{
    "cas_no": "594-30-9",
    "key_name": "Triphenylbismuth dichloride",
    "cn_name": null,
    "alternate_name": "Bismuth, dichlorotriphenyl-;Bismuthine, triphenyl-, dichloride;Dichlorotriphenylbismuth;Triphenylbismuth dichloride;NSC 173027",
    "duplicated_cas_no": "934824-74-5",
    "SMILES": "[Bi](Cl)(Cl)(C1=CC=CC=C1)(C2=CC=CC=C2)C3=CC=CC=C3",
    "meta_data": {
        "InChI": "InChI=1S/3C6H5.Bi.2ClH/c3*1-2-4-6-5-3-1;;;/h3*1-5H;;2*1H/q;;;+2;;/p-2",
        "InChIKey": null,
        "Canonical SMILES": "Cl[Bi](Cl)(C=1C=CC=CC1)(C=2C=CC=CC2)C=3C=CC=CC3",
        "Molecular Formula": "C<sub>18</sub>H<sub>15</sub>BiCl<sub>2</sub>",
        "Molecular Mass": "",
        "Melting Point": "149-150 °C"
    }
}