{
    "cas_no": "5754-18-7",
    "key_name": "1,2-Dihydro-4-methyl-3,6-pyridazinedione",
    "cn_name": "4-甲基-3,6-二羟基哒嗪;",
    "alternate_name": "3,6-Pyridazinedione, 1,2-dihydro-4-methyl-;1,2-Dihydro-4-methyl-3,6-pyridazinedione;2-Butenedioic acid, 2-methyl-, cyclic hydrazide, (<em>Z</em>)-;3,6-Dihydroxy-4-methylpyridazine;NSC 48830;NSC 58527;4-Methyl-3,6-pyridazinediol;4-Methyl-3,6-pyridazin-diol",
    "duplicated_cas_no": "6625-80-5",
    "SMILES": "CC=1C(=O)NNC(=O)C1",
    "meta_data": {
        "InChI": "InChI=1S/C5H6N2O2/c1-3-2-4(8)6-7-5(3)9/h2H,1H3,(H,6,8)(H,7,9)",
        "InChIKey": null,
        "Canonical SMILES": "O=C1C=C(C(=O)NN1)C",
        "Molecular Formula": "C<sub>5</sub>H<sub>6</sub>N<sub>2</sub>O<sub>2</sub>",
        "Molecular Mass": "126.11",
        "Melting Point": "277 °C"
    }
}