{
    "cas_no": "619-04-5",
    "key_name": "3,4-Dimethylbenzoic acid",
    "cn_name": "3,4-二甲基苯甲酸;",
    "alternate_name": "Benzoic acid, 3,4-dimethyl-;3,4-Dimethylbenzoic acid;1-Carboxy-3,4-dimethylbenzene",
    "duplicated_cas_no": "",
    "SMILES": "C(O)(=O)C1=CC(C)=C(C)C=C1",
    "meta_data": {
        "InChI": "InChI=1S/C9H10O2/c1-6-3-4-8(9(10)11)5-7(6)2/h3-5H,1-2H3,(H,10,11)",
        "InChIKey": null,
        "Canonical SMILES": "O=C(O)C1=CC=C(C(=C1)C)C",
        "Molecular Formula": "C<sub>9</sub>H<sub>10</sub>O<sub>2</sub>",
        "Molecular Mass": "150.17",
        "Melting Point": "165 °C"
    }
}