{
    "cas_no": "540-59-0",
    "key_name": "1,2-Dichloroethylene",
    "cn_name": "1,2-二氯乙烯;对称二氯乙烯;二氯乙烯;二氯化乙炔;",
    "alternate_name": "Ethene, 1,2-dichloro-;Ethylene, 1,2-dichloro-;1,2-Dichloroethene;1,2-Dichloroethylene;Dioform;Acetylene dichloride;<em>sym</em>-Dichloroethylene;HCFO-1130",
    "duplicated_cas_no": "",
    "SMILES": "C(=CCl)Cl",
    "meta_data": {
        "InChI": "InChI=1S/C2H2Cl2/c3-1-2-4/h1-2H",
        "InChIKey": null,
        "Canonical SMILES": "ClC=CCl",
        "Molecular Formula": "C<sub>2</sub>H<sub>2</sub>Cl<sub>2</sub>",
        "Molecular Mass": "96.94",
        "Boiling Point": "~55 °C (approx)",
        "Melting Point": "-50 °C",
        "Density": "~1.28 g/cm³ (approx)"
    }
}