{
    "cas_no": "65340-75-2",
    "key_name": "8-Bromo-4-quinolinamine",
    "cn_name": null,
    "alternate_name": "4-Quinolinamine, 8-bromo-;8-Bromo-4-quinolinamine;4-Amino-8-bromoquinoline",
    "duplicated_cas_no": "",
    "SMILES": "NC=1C2=C(C(Br)=CC=C2)N=CC1",
    "meta_data": {
        "InChI": "InChI=1S/C9H7BrN2/c10-7-3-1-2-6-8(11)4-5-12-9(6)7/h1-5H,(H2,11,12)",
        "InChIKey": null,
        "Canonical SMILES": "BrC1=CC=CC2=C(N)C=CN=C12",
        "Molecular Formula": "C<sub>9</sub>H<sub>7</sub>BrN<sub>2</sub>",
        "Molecular Mass": "223.07",
        "Melting Point": "187-188 °C"
    }
}