{
    "cas_no": "1531-18-6",
    "key_name": "2-Ethyl-4-pyridinecarbonitrile",
    "cn_name": null,
    "alternate_name": "4-Pyridinecarbonitrile, 2-ethyl-;Isonicotinonitrile, 2-ethyl-;2-Ethyl-4-pyridinecarbonitrile;4-Cyano-2-ethylpyridine;2-Ethylisonicotinonitrile;2-Ethyl-4-cyanopyridine",
    "duplicated_cas_no": "",
    "SMILES": "C(#N)C=1C=C(CC)N=CC1",
    "meta_data": {
        "InChI": "InChI=1S/C8H8N2/c1-2-8-5-7(6-9)3-4-10-8/h3-5H,2H2,1H3",
        "InChIKey": null,
        "Canonical SMILES": "N#CC=1C=CN=C(C1)CC",
        "Molecular Formula": "C<sub>8</sub>H<sub>8</sub>N<sub>2</sub>",
        "Molecular Mass": "132.16",
        "Boiling Point": "106-110 °C @ Press: 29 Torr"
    }
}