{
    "cas_no": "10380-28-6",
    "key_name": "Bis(8-quinolinolato)copper",
    "cn_name": "8-羟基喹啉铜;",
    "alternate_name": "Copper, bis(8-quinolinolato-κ<em>N</em><sup>1</sup>,κ<em>O</em><sup>8</sup>)-;Copper, bis(8-quinolinolato)-;Copper, bis(8-quinolinolato-<em>N</em><sup>1</sup>,<em>O</em><sup>8</sup>)-;Bis(8-quinolinolato-κ<em>N</em><sup>1</sup>,κ<em>O</em><sup>8</sup>)copper;Copper 8-hydroxyquinolinate;Copper 8-quinolinolate;8-Hydroxyquinoline copper(2+) salt;Oxine-copper;Quinolate 15;Quinolate 20;Copper oxyquinoline;Copper quinolate;Copper oxinate;Copper oxyquinolate;Cupric 8-quinolinolate;8-Hydroxyquinoline copper salt;Copper 8-hydroxyquinoline;Quinolate;Milmer 1;Copper 8-quinolinol;Copper 8-hydroxyquinolate;Bis(8-quinolinolato)copper;Copper hydroxyquinolinate;Copper quinolinolate;Copper 8-quinolate;Copper(2+) oxinate;Copper hydroxyquinolate;Bis(8-oxyquinoline)copper;Cupric 8-hydroxyquinolate;Copper-oxine;Cuproquin;Bis(8-hydroxyquinolinato)copper;Copper bis(8-hydroxyquinolinate);Copper 8-quinolinolate (1:2);Cunilate 2174;Copper dioxinate;Fennotox 45;Cunilate 2419;Cuprinol Dispersion AQ;Timtex AQS;Timtex 17;Timtex;PQ 8;Nylate 10;Cunilate 2419-75;Cu 8Q;Quin 20;Yukilate CD 50;PQ 57;PQ 357;Arbrex 805;Oxidong;Penetraat;Cu 8;Betaxate;Bioquin;PEI 273;PQ 8 (fungicide);Copper Clear;Copper(II) oxinate;NSC 7720;CUPRIC 8-OXYQUINOLINE;Bis(8-quinolinolato)copper(II);Oxyquinoline copper;Copper(II) bis(8-quinolinolate)",
    "duplicated_cas_no": "132-71-8;29713-19-7;37220-44-3;37233-52-6;47110-30-5;1135443-76-3",
    "SMILES": "[Cu+2]12([N]=3C=4C([O-]1)=CC=CC4C=CC3)[N]=5C=6C([O-]2)=CC=CC6C=CC5",
    "meta_data": {
        "InChI": "InChI=1S/2C9H7NO.Cu/c2*11-8-5-1-3-7-4-2-6-10-9(7)8;/h2*1-6,11H;/q;;+2/p-2",
        "InChIKey": null,
        "Canonical SMILES": "[O-]1C2=CC=CC=3C=CC=[N](C23)[Cu+2]14[O-]C5=CC=CC=6C=CC=[N]4C56",
        "Molecular Formula": "C<sub>18</sub>H<sub>12</sub>CuN<sub>2</sub>O<sub>2</sub>",
        "Molecular Mass": "",
        "Melting Point": "339 °C",
        "Density": "1.63 g/cm³"
    }
}