{
    "cas_no": "101-68-8",
    "key_name": "Diphenylmethane diisocyanate",
    "cn_name": "4,4\"-亚甲基双(异氰酸苯酯);亚甲基二对苯基二异氰酸酯;二苯基甲烷-4,4\"-二异氰酸酯;",
    "alternate_name": "Benzene, 1,1′-methylenebis[4-isocyanato-;Isocyanic acid, methylenedi-<em>p</em>-phenylene ester;1,1′-Methylenebis[4-isocyanatobenzene];Bis(4-isocyanatophenyl)methane;Diphenylmethane 4,4′-diisocyanate;Methylenebis(4-isocyanatobenzene);Bis(<em>p</em>-isocyanatophenyl)methane;<em>p</em>,<em>p</em>′-Methylenebis(phenyl isocyanate);4,4′-Methylenebis(phenyl isocyanate);Methylenebis(4-phenyl isocyanate);Diphenylmethylene 4,4′-diisocyanate;Methylenedi-<em>p</em>-phenylene diisocyanate;Methylenedi-<em>p</em>-phenylene isocyanate;4,4′-Methylenediphenyl diisocyanate;4,4′-Diisocyanatodiphenylmethane;Methylenebis(<em>p</em>-phenylene isocyanate);Methylbis(4-phenylisocyanate);4,4′-Methylenediphenylene isocyanate;Methylenebis(4-phenylene isocyanate);Methylenebis(<em>p</em>-phenyl isocyanate);Bis(1,4-isocyanatophenyl)methane;MDI;Methylenebis-<em>p</em>-phenylene diisocyanate;Methyldi-<em>p</em>-phenylene isocyanate;4,4′-Diphenylmethane diisocyanate;<em>p</em>,<em>p</em>′-Diphenylmethane diisocyanate;4,4′-Methylenedi-<em>p</em>-phenylene diisocyanate;Diisocyanatodiphenylmethane;Methylenebis(phenyl isocyanate);Diphenylmethane diisocyanate;Di(4-isocyanatophenyl)methane;4,4′-Methylenebis(isocyanatobenzene);Methylenebisphenylene diisocyanate;4,4′-MDI;Isocyanic acid, diphenylmethylene ester;Diphenylmethylene diisocyanate;4,4′-Methylenedi(phenyl isocyanate);4,4′-Bis(isocyanatophenyl)methane;Methylene diphenyl diisocyanate;NSC 9596;Diphenylmethyl diisocyanate;Methylene diisocyanate;Bis(isocyanatophenyl)methane;Methylenediphenylisocyanate;<em>p</em>,<em>p</em>′-Methylenediphenyl diisocyanate;4,4′-Methylenebis(phenylisocyanate);MDI 80;<em>p</em>,<em>p</em>′-Methylene diphenyl diisocyanate;1-Isocyanato-4-[(4-isocyanatophenyl)methyl]Benzene;Huntsman 5005;Sumidur 44S92;8609E;MDI 8002;Isonat 2000",
    "duplicated_cas_no": "53633-14-0;55157-41-0;57460-66-9;77090-48-3;88001-94-9;97568-33-7;142690-07-1;153986-89-1;201528-77-0;1211266-59-9;1211316-64-1;1220313-65-4;1400594-70-8;1533423-48-1;1588489-56-8;2031250-39-0;2056146-02-0",
    "SMILES": "C(C1=CC=C(N=C=O)C=C1)C2=CC=C(N=C=O)C=C2",
    "meta_data": {
        "InChI": "InChI=1S/C15H10N2O2/c18-10-16-14-5-1-12(2-6-14)9-13-3-7-15(8-4-13)17-11-19/h1-8H,9H2",
        "InChIKey": null,
        "Canonical SMILES": "O=C=NC1=CC=C(C=C1)CC2=CC=C(N=C=O)C=C2",
        "Molecular Formula": "C<sub>15</sub>H<sub>10</sub>N<sub>2</sub>O<sub>2</sub>",
        "Molecular Mass": "250.25",
        "Boiling Point": "196 °C @ Press: 5 Torr",
        "Melting Point": "37 °C",
        "Density": "1.197 g/cm³ @ Temp: 70 °C"
    }
}