{
    "cas_no": "1459-93-4",
    "key_name": "Dimethyl isophthalate",
    "cn_name": "间苯二甲酸二甲酯;",
    "alternate_name": "1,3-Benzenedicarboxylic acid, 1,3-dimethyl ester;Isophthalic acid, dimethyl ester;1,3-Benzenedicarboxylic acid, dimethyl ester;Dimethyl <em>m</em>-phthalate;Dimethyl isophthalate;Dimethyl 1,3-benzenedicarboxylate;Methyl isophthalate;Methyl 3-carbomethoxybenzoate;Morflex 1129;NSC 15313;1,3-Di(methoxycarbonyl)benzene;DMIP;Dimethy isophthalate;1,3-Dimethyl benzene-1,3-dicarboxylate",
    "duplicated_cas_no": "1352054-39-7",
    "SMILES": "C(OC)(=O)C1=CC(C(OC)=O)=CC=C1",
    "meta_data": {
        "InChI": "InChI=1S/C10H10O4/c1-13-9(11)7-4-3-5-8(6-7)10(12)14-2/h3-6H,1-2H3",
        "InChIKey": null,
        "Canonical SMILES": "O=C(OC)C1=CC=CC(=C1)C(=O)OC",
        "Molecular Formula": "C<sub>10</sub>H<sub>10</sub>O<sub>4</sub>",
        "Molecular Mass": "194.18",
        "Boiling Point": "282 °C",
        "Melting Point": "67.5 °C",
        "Density": "1.194 g/cm³ @ Temp: 20 °C"
    }
}