{
    "cas_no": "55-48-1",
    "key_name": "Atropine sulfate",
    "cn_name": "硫酸阿托品;(8-甲基-8-氮杂双环[3.2.1]辛-3-基)3-羟基-2-苯基-丙酸酯硫酸盐;",
    "alternate_name": "Benzeneacetic acid, α-(hydroxymethyl)- (3-<em>endo</em>)-8-methyl-8-azabicyclo[3.2.1]oct-3-yl ester, sulfate (2:1);1α<span class=\"text-smallcaps\">H</smallcap>,5α<smallcap>H</span>-Tropan-3α-ol (±)-tropate (ester), sulfate (2:1) (salt);Benzeneacetic acid, α-(hydroxymethyl)- 8-methyl-8-azabicyclo[3.2.1]oct-3-yl ester <em>endo</em>-(±)-, sulfate (2:1) (salt);Benzeneacetic acid, α-(hydroxymethyl)- (3-<em>endo</em>)-8-methyl-8-azabicyclo[3.2.1]oct-3-yl ester, sulfate (2:1) (salt);Atropine sulfate;Atropine sulphate;Atropisol;Atropinium sulfate;Atropisal;MBK;Ichtho-Bellol;Atropette;Atropinsal;Sulfatropinol;Tropintran;Corbella;Davurtrop;Eyesule;Lio-Atropin;Benzeneacetic acid, α-(hydroxymethyl)-8-methyl-8-azabicyclo[3.2.1]oct-3-yl ester <em>endo</em>-, sulfate (2:1) (salt);Atropisol Ophthalmic Solution;NSC 26671;Atropine Minims;Isopto Atropine",
    "duplicated_cas_no": "17108-73-5",
    "SMILES": "S(=O)(=O)(O)O.O(C(C(CO)C1=CC=CC=C1)=O)[C@H]2C[C@@]3(N(C)[C@](C2)(CC3)[H])[H]",
    "meta_data": {
        "InChI": "InChI=1/C17H23NO3.H2O4S/c1-18-13-7-8-14(18)10-15(9-13)21-17(20)16(11-19)12-5-3-2-4-6-12;1-5(2,3)4/h2-6,13-16,19H,7-11H2,1H3;(H2,1,2,3,4)/t13-,14+,15+,16?;",
        "InChIKey": null,
        "Canonical SMILES": "O=C(OC1CC2N(C)C(CC2)C1)C(C=3C=CC=CC3)CO.O=S(=O)(O)O",
        "Molecular Formula": "C<sub>17</sub>H<sub>23</sub>NO<sub>3</sub>.<sup>1</sup>/<sub>2</sub>H<sub>2</sub>O<sub>4</sub>S",
        "Molecular Mass": "",
        "Boiling Point": "135 °C",
        "Melting Point": "50.5 °C"
    }
}