{
    "cas_no": "2629-72-3",
    "key_name": "4-Pyridinepropanol",
    "cn_name": "4-吡啶丙醇;",
    "alternate_name": "4-Pyridinepropanol;4-(3-Hydroxypropyl)pyridine;3-(4-Pyridyl)propanol;3-(γ-Pyridyl)propanol;3-(4-Pyridyl)-1-propanol;3-Pyridin-4-ylpropanol;NSC 3720;NSC 66565;3-Pyridin-4-ylpropan-1-ol",
    "duplicated_cas_no": "",
    "SMILES": "C(CCO)C=1C=CN=CC1",
    "meta_data": {
        "InChI": "InChI=1S/C8H11NO/c10-7-1-2-8-3-5-9-6-4-8/h3-6,10H,1-2,7H2",
        "InChIKey": null,
        "Canonical SMILES": "OCCCC=1C=CN=CC1",
        "Molecular Formula": "C<sub>8</sub>H<sub>11</sub>NO",
        "Molecular Mass": "137.18",
        "Boiling Point": "289 °C",
        "Melting Point": "37 °C"
    }
}