{
    "cas_no": "2749-11-3",
    "key_name": "<span class=\"text-smallcaps\">L</span>-Alaninol",
    "cn_name": "L-氨基丙醇;",
    "alternate_name": "1-Propanol, 2-amino-, (2<em>S</em>)-;1-Propanol, 2-amino-, <span class=\"text-smallcaps\">L</span>-;1-Propanol, 2-amino-, (<em>S</em>)-;(2<em>S</em>)-2-Amino-1-propanol;<span class=\"text-smallcaps\">L</span>-Alaninol;<span class=\"text-smallcaps\">L</span>-2-Aminopropanol;<span class=\"text-smallcaps\">L</span>-(+)-Alaninol;<span class=\"text-smallcaps\">L</span>-2-Amino-1-propanol;<em>S</em>-(+)-Alaninol;(<em>S</em>)-Alaninol;(<em>S</em>)-2-Aminopropanol;(<em>S</em>)-2-Amino-1-propanol;(+)-2-Amino-1-propanol;<em>S</em>-(+)-2-Amino-1-propanol;(+)-Alaninol;(+)-2-Aminopropanol;((<em>S</em>)-2-Hydroxy-1-methylethyl)amine;(2<em>S</em>)-(+)-2-Aminopropan-1-ol;[(<em>S</em>)-1-(Hydroxymethyl)ethyl]amine;(2<em>S</em>)-2-Aminopropan-1-ol;2-(<em>S</em>)-Amino-propan-1-ol;(S)-2-Amino-1-propanol;2<em>S</em>-Aminopropanol;(2S)-(+)-2-Aminopropan-1-ol",
    "duplicated_cas_no": "79009-34-0",
    "SMILES": "[C@@H](CO)(C)N",
    "meta_data": {
        "InChI": "InChI=1S/C3H9NO/c1-3(4)2-5/h3,5H,2,4H2,1H3/t3-/m0/s1",
        "InChIKey": null,
        "Canonical SMILES": "OCC(N)C",
        "Molecular Formula": "C<sub>3</sub>H<sub>9</sub>NO",
        "Molecular Mass": "75.11",
        "Boiling Point": "72-73 °C @ Press: 11 Torr",
        "Melting Point": "174-175 °C",
        "Density": "0.965 g/cm³ @ Temp: 20 °C"
    }
}