{
    "cas_no": "99512-10-4",
    "key_name": "3-Amino-4-nitrobenzonitrile",
    "cn_name": null,
    "alternate_name": "Benzonitrile, 3-amino-4-nitro-;3-Amino-4-nitrobenzonitrile",
    "duplicated_cas_no": "",
    "SMILES": "N(=O)(=O)C1=C(N)C=C(C#N)C=C1",
    "meta_data": {
        "InChI": "InChI=1S/C7H5N3O2/c8-4-5-1-2-7(10(11)12)6(9)3-5/h1-3H,9H2",
        "InChIKey": null,
        "Canonical SMILES": "N#CC1=CC=C(C(N)=C1)N(=O)=O",
        "Molecular Formula": "C<sub>7</sub>H<sub>5</sub>N<sub>3</sub>O<sub>2</sub>",
        "Molecular Mass": "163.13",
        "Melting Point": "128-131 °C"
    }
}