{
    "cas_no": "57078-99-6",
    "key_name": "2,5-Dihydro-2,5-dioxo-1<em>H</em>-pyrrole-1-pentanoic acid",
    "cn_name": null,
    "alternate_name": "1<em>H</em>-Pyrrole-1-pentanoic acid, 2,5-dihydro-2,5-dioxo-;2,5-Dihydro-2,5-dioxo-1<em>H</em>-pyrrole-1-pentanoic acid;<em>N</em>-(4-Carboxybutyl)maleimide;5-Maleimidopentanoic acid",
    "duplicated_cas_no": "",
    "SMILES": "C(CCCC(O)=O)N1C(=O)C=CC1=O",
    "meta_data": {
        "InChI": "InChI=1S/C9H11NO4/c11-7-4-5-8(12)10(7)6-2-1-3-9(13)14/h4-5H,1-3,6H2,(H,13,14)",
        "InChIKey": null,
        "Canonical SMILES": "O=C1C=CC(=O)N1CCCCC(=O)O",
        "Molecular Formula": "C<sub>9</sub>H<sub>11</sub>NO<sub>4</sub>",
        "Molecular Mass": "197.19",
        "Melting Point": "84-85 °C"
    }
}