{
    "cas_no": "3392-12-9",
    "key_name": "<span class=\"text-smallcaps\">L</span>-Valine, <em>N</em>-[(1,1-dimethylethoxy)carbonyl]-, 2,5-dioxo-1-pyrrolidinyl ester",
    "cn_name": "Boc-L-缬氨酸羟基琥珀酰亚胺酯;N-叔丁氧羰基-L-缬氨酸羟基琥珀酰亚胺酯;",
    "alternate_name": "<span class=\"text-smallcaps\">L</span>-Valine, <em>N</em>-[(1,1-dimethylethoxy)carbonyl]-, 2,5-dioxo-1-pyrrolidinyl ester;Succinimide, <em>N</em>-[(<em>N</em>-carboxy-<span class=\"text-smallcaps\">L</span>-valyl)oxy]-, <em>tert</em>-butyl ester;Carbamic acid, [1-[[(2,5-dioxo-1-pyrrolidinyl)oxy]carbonyl]-2-methylpropyl]-, 1,1-dimethylethyl ester, (<em>S</em>)-;Carbamic acid, [(1<em>S</em>)-1-[[(2,5-dioxo-1-pyrrolidinyl)oxy]carbonyl]-2-methylpropyl]-, 1,1-dimethylethyl ester;Valine, <em>N</em>-carboxy-, <em>N</em>-<em>tert</em>-butyl ester, succinimido deriv., <span class=\"text-smallcaps\">L</span>-;<em>N</em>-(<em>tert</em>-Butyloxycarbonyl)-<span class=\"text-smallcaps\">L</span>-valine ester with <em>N</em>-hydroxysuccinimide;<em>tert</em>-Butoxycarbonyl-<span class=\"text-smallcaps\">L</span>-valine <em>N</em>-hydroxysuccinimide ester;<em>N</em>-<em>tert</em>-Butyloxycarbonyl-<span class=\"text-smallcaps\">L</span>-valine <em>N</em>-hydroxysuccinimide ester;<em>tert</em>-Butoxycarbonylvaline succinimide ester;NSC 164060;38: PN: US20070066537 PAGE: 13 claimed protein;(2,5-Dioxopyrrolidin-1-yl) (2S)-3-methyl-2-[(2-methylpropan-2-yl)oxycarbonylamino]butanoate",
    "duplicated_cas_no": "74084-74-5",
    "SMILES": "O(C([C@@H](NC(OC(C)(C)C)=O)C(C)C)=O)N1C(=O)CCC1=O",
    "meta_data": {
        "InChI": "InChI=1S/C14H22N2O6/c1-8(2)11(15-13(20)21-14(3,4)5)12(19)22-16-9(17)6-7-10(16)18/h8,11H,6-7H2,1-5H3,(H,15,20)/t11-/m0/s1",
        "InChIKey": null,
        "Canonical SMILES": "O=C(OC(C)(C)C)NC(C(=O)ON1C(=O)CCC1=O)C(C)C",
        "Molecular Formula": "C<sub>14</sub>H<sub>22</sub>N<sub>2</sub>O<sub>6</sub>",
        "Molecular Mass": "314.33",
        "Melting Point": "128-129 °C"
    }
}