{
    "cas_no": "122-40-7",
    "key_name": "Amylcinnamaldehyde",
    "cn_name": "甲位戊基桂醛;alpha-戍基肉桂醛;",
    "alternate_name": "Heptanal, 2-(phenylmethylene)-;Cinnamaldehyde, α-pentyl-;Cinnamaldehyde, α-amyl-;2-(Phenylmethylene)heptanal;α-Amylcinnamaldehyde;α-Amyl-β-phenylacrolein;Flomine;α-Pentylcinnamaldehyde;Jasminaldehyde;Amylcinnamaldehyde;2-Benzylideneheptanal;Pentylcinnamaldehyde;Amylcinnamic acid aldehyde;Amylcinnamic aldehyde;Jasminal;α-Amylcinnamal;NSC 6649;Jasmine aldehyde;Amyl cinnamal;2-Benzylidenheptanal;2-Propenal, 3-phenyl-, monopentyl deriv.",
    "duplicated_cas_no": "121734-22-3",
    "SMILES": "C(=C(CCCCC)C=O)C1=CC=CC=C1",
    "meta_data": {
        "InChI": "InChI=1S/C14H18O/c1-2-3-5-10-14(12-15)11-13-8-6-4-7-9-13/h4,6-9,11-12H,2-3,5,10H2,1H3",
        "InChIKey": null,
        "Canonical SMILES": "O=CC(=CC=1C=CC=CC1)CCCCC",
        "Molecular Formula": "C<sub>14</sub>H<sub>18</sub>O",
        "Molecular Mass": "202.29",
        "Boiling Point": "174-175 °C @ Press: 20 Torr",
        "Melting Point": "80 °C",
        "Density": "0.97108 g/cm³ @ Temp: 20 °C"
    }
}