{
    "cas_no": "5653-46-3",
    "key_name": "2-Hydroxy-3,4-dimethoxybenzoic acid",
    "cn_name": "2-羟基-3,4-二甲氧基苯甲酸;",
    "alternate_name": "Benzoic acid, 2-hydroxy-3,4-dimethoxy-;Veratric acid, 2-hydroxy-;2-Hydroxy-3,4-dimethoxybenzoic acid;3,4-Dimethoxysalicylic acid;NSC 37414",
    "duplicated_cas_no": "",
    "SMILES": "O(C)C1=C(OC)C=CC(C(O)=O)=C1O",
    "meta_data": {
        "InChI": "InChI=1S/C9H10O5/c1-13-6-4-3-5(9(11)12)7(10)8(6)14-2/h3-4,10H,1-2H3,(H,11,12)",
        "InChIKey": null,
        "Canonical SMILES": "O=C(O)C1=CC=C(OC)C(OC)=C1O",
        "Molecular Formula": "C<sub>9</sub>H<sub>10</sub>O<sub>5</sub>",
        "Molecular Mass": "198.17",
        "Melting Point": "168-169 °C"
    }
}