{
    "cas_no": "2538-87-6",
    "key_name": "<em>p</em>-Hydroxycinnamaldehyde",
    "cn_name": null,
    "alternate_name": "2-Propenal, 3-(4-hydroxyphenyl)-;Cinnamaldehyde, <em>p</em>-hydroxy-;3-(4-Hydroxyphenyl)-2-propenal;<em>p</em>-Coumaroyl aldehyde;<em>p</em>-Coumaraldehyde;4-Hydroxycinnamaldehyde;<em>p</em>-Hydroxycinnamaldehyde",
    "duplicated_cas_no": "",
    "SMILES": "C(=CC=O)C1=CC=C(O)C=C1",
    "meta_data": {
        "InChI": "InChI=1S/C9H8O2/c10-7-1-2-8-3-5-9(11)6-4-8/h1-7,11H",
        "InChIKey": null,
        "Canonical SMILES": "O=CC=CC1=CC=C(O)C=C1",
        "Molecular Formula": "C<sub>9</sub>H<sub>8</sub>O<sub>2</sub>",
        "Molecular Mass": "148.16",
        "Melting Point": "134 °C"
    }
}