{
    "cas_no": "336-19-6",
    "key_name": "1,2-Dichloro-3,3,4,4,5,5,6,6-octafluorocyclohexene",
    "cn_name": "1,2-二氯八氟环己烯;",
    "alternate_name": "Cyclohexene, 1,2-dichloro-3,3,4,4,5,5,6,6-octafluoro-;Cyclohexene, 1,2-dichlorooctafluoro-;1,2-Dichloro-3,3,4,4,5,5,6,6-octafluorocyclohexene;1,2-Dichlorooctafluorocyclohexene;1,2-Dichloroperfluorocyclohexene;1,2-Dichloro-3,3,4,4,5,5,6,6-octafluoro-1-cyclohexene",
    "duplicated_cas_no": "",
    "SMILES": "FC1(F)C(F)(F)C(F)(F)C(Cl)=C(Cl)C1(F)F",
    "meta_data": {
        "InChI": "InChI=1S/C6Cl2F8/c7-1-2(8)4(11,12)6(15,16)5(13,14)3(1,9)10",
        "InChIKey": null,
        "Canonical SMILES": "FC1(F)C(Cl)=C(Cl)C(F)(F)C(F)(F)C1(F)F",
        "Molecular Formula": "C<sub>6</sub>Cl<sub>2</sub>F<sub>8</sub>",
        "Molecular Mass": "294.96",
        "Boiling Point": "113 °C",
        "Melting Point": "-70 °C",
        "Density": "1.719 g/cm³ @ Temp: 25 °C"
    }
}