{
    "cas_no": "56-86-0",
    "key_name": "<span class=\"text-smallcaps\">L</span>-Glutamic acid",
    "cn_name": "谷氨酸;L-谷氨酸;alpha-氨基戊二酸;麸氨酸;",
    "alternate_name": "<span class=\"text-smallcaps\">L</span>-Glutamic acid;Glutamic acid, <span class=\"text-smallcaps\">L</span>-;Aciglut;Glusate;Glutacid;α-Glutamic acid;<em>l</em>-Glutaminic acid;Glutaminol;Glutaminic acid;Glutaton;Pentanedioic acid, 2-amino-, (<em>S</em>)-;<span class=\"text-smallcaps\">L</span>-(+)-Glutamic acid;α-Aminoglutaric acid;1-Aminopropane-1,3-dicarboxylic acid;Glutamic acid;(<em>S</em>)-(+)-Glutamic acid;Glutamicol;Glutamidex;(<em>S</em>)-Glutamic acid;(<em>S</em>)-2-Aminopentanedioic acid;2-Aminoglutaric acid;(2<em>S</em>)-2-Aminopentanedioic acid;<span class=\"text-smallcaps\">L</span>-α-Aminoglutaric acid;<span class=\"text-smallcaps\">L</span>-Glutaminic acid;E 620;NSC 143503;(<em>S</em>)-2-Amino-1,5-pentanedioic acid;(+)-<span class=\"text-smallcaps\">L</span>-Glutamic acid;Sortem;(2S)-2-Azaniumyl-5-hydroxy-5-oxopentanoate;9: PN: WO2023056433 PAGE: 60 claimed sequence;MeSH ID: D018698",
    "duplicated_cas_no": "138-16-9;6899-05-4;10549-13-0;2087491-17-4",
    "SMILES": "[C@H](CCC(O)=O)(C(O)=O)N",
    "meta_data": {
        "InChI": "InChI=1S/C5H9NO4/c6-3(5(9)10)1-2-4(7)8/h3H,1-2,6H2,(H,7,8)(H,9,10)/t3-/m0/s1",
        "InChIKey": null,
        "Canonical SMILES": "O=C(O)CCC(N)C(=O)O",
        "Molecular Formula": "C<sub>5</sub>H<sub>9</sub>NO<sub>4</sub>",
        "Molecular Mass": "147.13",
        "Melting Point": "224 °C (decomp)",
        "Density": "1.46 g/cm³"
    }
}