{
    "cas_no": "5697-02-9",
    "key_name": "1-Acetoxy-2-methylnaphthalene",
    "cn_name": "2-甲基萘酚-1-乙酸酯;",
    "alternate_name": "1-Naphthalenol, 2-methyl-, 1-acetate;1-Naphthol, 2-methyl-, acetate;1-Naphthalenol, 2-methyl-, acetate;1-Acetoxy-2-methylnaphthalene;2-Methyl-1-naphthyl acetate;2-Methyl-1-naphthol acetate",
    "duplicated_cas_no": "",
    "SMILES": "O(C(C)=O)C=1C2=C(C=CC1C)C=CC=C2",
    "meta_data": {
        "InChI": "InChI=1S/C13H12O2/c1-9-7-8-11-5-3-4-6-12(11)13(9)15-10(2)14/h3-8H,1-2H3",
        "InChIKey": null,
        "Canonical SMILES": "O=C(OC=1C=2C=CC=CC2C=CC1C)C",
        "Molecular Formula": "C<sub>13</sub>H<sub>12</sub>O<sub>2</sub>",
        "Molecular Mass": "200.23",
        "Melting Point": "81-82 °C"
    }
}