{
    "cas_no": "10531-50-7",
    "key_name": "(-)-2,2,2-Trifluoro-1-phenylethanol",
    "cn_name": "(R)-(-)-α-(三氟甲基)苯甲醇;",
    "alternate_name": "Benzenemethanol, α-(trifluoromethyl)-, (α<em>R</em>)-;Benzyl alcohol, α-(trifluoromethyl)-, (<em>R</em>)-(-)-;Benzenemethanol, α-(trifluoromethyl)-, (<em>R</em>)-;(α<em>R</em>)-α-(Trifluoromethyl)benzenemethanol;(<em>R</em>)-(-)-2,2,2-Trifluoro-1-phenylethanol;(<em>R</em>)-(Trifluoromethyl)phenylmethanol;(<em>R</em>)-1-Phenyl-2,2,2-trifluoroethanol;(-)-1-Phenyl-2,2,2-trifluoroethanol;(-)-2,2,2-Trifluoro-1-phenylethanol;(<em>R</em>)-2,2,2-Trifluoro-1-phenylethanol;(-)-α-(Trifluoromethyl) benzyl alcohol;(<em>R</em>)-(-)-α-(Trifluoromethyl)benzyl alcohol;(<em>R</em>)-α-(Trifluoromethyl)benzyl alcohol;(R)-2,2,2-Trifluoro-1-phenylethanol;(R)-(-)-α-(Trifluoromethyl)benzyl alcohol;(1R)-2,2,2-Trifluoro-1-phenylethanol;(1R)-2,2,2-Trifluoro-1-phenylethan-1-ol",
    "duplicated_cas_no": "",
    "SMILES": "[C@@H](C(F)(F)F)(O)C1=CC=CC=C1",
    "meta_data": {
        "InChI": "InChI=1S/C8H7F3O/c9-8(10,11)7(12)6-4-2-1-3-5-6/h1-5,7,12H/t7-/m1/s1",
        "InChIKey": null,
        "Canonical SMILES": "FC(F)(F)C(O)C=1C=CC=CC1",
        "Molecular Formula": "C<sub>8</sub>H<sub>7</sub>F<sub>3</sub>O",
        "Molecular Mass": "176.14",
        "Boiling Point": "80-82 °C @ Press: 23 Torr"
    }
}