{
    "cas_no": "73963-42-5",
    "key_name": "5-(4-Chlorobutyl)-1-cyclohexyl-1<em>H</em>-tetrazole",
    "cn_name": "5-(4-氯丁基)-1-环己基四氮唑;1-环己基-5-(4-氯丁基)-四氮唑;",
    "alternate_name": "1<em>H</em>-Tetrazole, 5-(4-chlorobutyl)-1-cyclohexyl-;5-(4-Chlorobutyl)-1-cyclohexyl-1<em>H</em>-tetrazole;1-Cyclohexyl-5-(4-chlorobutyl)-1,2,3,4-tetrazole;1-Cyclohexyl-5-(4-chlorobutyl)tetrazole",
    "duplicated_cas_no": "",
    "SMILES": "C(CCCCl)C=1N(N=NN1)C2CCCCC2",
    "meta_data": {
        "InChI": "InChI=1S/C11H19ClN4/c12-9-5-4-8-11-13-14-15-16(11)10-6-2-1-3-7-10/h10H,1-9H2",
        "InChIKey": null,
        "Canonical SMILES": "ClCCCCC1=NN=NN1C2CCCCC2",
        "Molecular Formula": "C<sub>11</sub>H<sub>19</sub>ClN<sub>4</sub>",
        "Molecular Mass": "242.75",
        "Melting Point": "84.5-86.5 °C"
    }
}