{
    "cas_no": "6590-94-9",
    "key_name": "1,2-Dichloro-4-isothiocyanatobenzene",
    "cn_name": "3,4-二氯异硫氰酸苯酯;",
    "alternate_name": "Benzene, 1,2-dichloro-4-isothiocyanato-;Isothiocyanic acid, 3,4-dichlorophenyl ester;1,2-Dichloro-4-isothiocyanatobenzene;3,4-Dichlorophenyl isothiocyanate;NSC 220236;3,4-Dichloro-1-isothiocyanatobenzene",
    "duplicated_cas_no": "",
    "SMILES": "N(=C=S)C1=CC(Cl)=C(Cl)C=C1",
    "meta_data": {
        "InChI": "InChI=1S/C7H3Cl2NS/c8-6-2-1-5(10-4-11)3-7(6)9/h1-3H",
        "InChIKey": null,
        "Canonical SMILES": "S=C=NC1=CC=C(Cl)C(Cl)=C1",
        "Molecular Formula": "C<sub>7</sub>H<sub>3</sub>Cl<sub>2</sub>NS",
        "Molecular Mass": "204.08",
        "Boiling Point": "134.8-135.9 °C @ Press: 7 Torr",
        "Melting Point": "178 °C"
    }
}