{
    "cas_no": "13220-57-0",
    "key_name": "Tryptanthrin",
    "cn_name": null,
    "alternate_name": "Indolo[2,1-<em>b</em>]quinazoline-6,12-dione;Tryptanthrine;Couroupitine A;Tryptanthrin;NSC 349447;Triptantrin",
    "duplicated_cas_no": "",
    "SMILES": "O=C1N2C(C(=O)C=3C2=CC=CC3)=NC=4C1=CC=CC4",
    "meta_data": {
        "InChI": "InChI=1S/C15H8N2O2/c18-13-10-6-2-4-8-12(10)17-14(13)16-11-7-3-1-5-9(11)15(17)19/h1-8H",
        "InChIKey": null,
        "Canonical SMILES": "O=C1C=2C=CC=CC2N3C(=O)C=4C=CC=CC4N=C13",
        "Molecular Formula": "C<sub>15</sub>H<sub>8</sub>N<sub>2</sub>O<sub>2</sub>",
        "Molecular Mass": "248.24",
        "Melting Point": "258 °C"
    }
}