{
    "cas_no": "4525-75-1",
    "key_name": "2-Chlorophenyl acetate",
    "cn_name": "2-氯苯酚乙酸;",
    "alternate_name": "Acetic acid, 2-chlorophenyl ester;Acetic acid, <em>o</em>-chlorophenyl ester;Phenol, <em>o</em>-chloro-, acetate;2-Chlorophenyl acetate;<em>o</em>-Chlorophenyl acetate;<em>o</em>-Acetoxychlorobenzene;NSC 404080",
    "duplicated_cas_no": "",
    "SMILES": "O(C(C)=O)C1=C(Cl)C=CC=C1",
    "meta_data": {
        "InChI": "InChI=1S/C8H7ClO2/c1-6(10)11-8-5-3-2-4-7(8)9/h2-5H,1H3",
        "InChIKey": null,
        "Canonical SMILES": "O=C(OC=1C=CC=CC1Cl)C",
        "Molecular Formula": "C<sub>8</sub>H<sub>7</sub>ClO<sub>2</sub>",
        "Molecular Mass": "170.59",
        "Boiling Point": "103 °C @ Press: 15 Torr",
        "Melting Point": "-20.5--19.5 °C",
        "Density": "1.2166 g/cm³ @ Temp: 20 °C"
    }
}