{
    "cas_no": "815-06-5",
    "key_name": "<em>N</em>-Methyltrifluoroacetamide",
    "cn_name": "N-甲基-2,2,2-三氟乙酰胺;",
    "alternate_name": "Acetamide, 2,2,2-trifluoro-<em>N</em>-methyl-;2,2,2-Trifluoro-<em>N</em>-methylacetamide;<em>N</em>-Methyltrifluoroacetamide",
    "duplicated_cas_no": "",
    "SMILES": "C(C(F)(F)F)(NC)=O",
    "meta_data": {
        "InChI": "InChI=1S/C3H4F3NO/c1-7-2(8)3(4,5)6/h1H3,(H,7,8)",
        "InChIKey": null,
        "Canonical SMILES": "O=C(NC)C(F)(F)F",
        "Molecular Formula": "C<sub>3</sub>H<sub>4</sub>F<sub>3</sub>NO",
        "Molecular Mass": "127.07",
        "Boiling Point": "156-157 °C",
        "Melting Point": "50-51 °C"
    }
}