{
    "cas_no": "7120-13-0",
    "key_name": "6-(4-Bromophenyl)imidazo[2,1-<em>b</em>]thiazole",
    "cn_name": "6-(4-溴苯基)咪唑[2,1-B-1,3]噻唑;",
    "alternate_name": "Imidazo[2,1-<em>b</em>]thiazole, 6-(4-bromophenyl)-;Imidazo[2,1-<em>b</em>]thiazole, 6-(<em>p</em>-bromophenyl)-;6-(4-Bromophenyl)imidazo[2,1-<em>b</em>]thiazole;6-(4-Bromophenyl)imidazo[2,1-<em>b</em>][1,3]thiazole",
    "duplicated_cas_no": "",
    "SMILES": "BrC1=CC=C(C2=CN3C(=N2)SC=C3)C=C1",
    "meta_data": {
        "InChI": "InChI=1S/C11H7BrN2S/c12-9-3-1-8(2-4-9)10-7-14-5-6-15-11(14)13-10/h1-7H",
        "InChIKey": null,
        "Canonical SMILES": "BrC=1C=CC(=CC1)C=2N=C3SC=CN3C2",
        "Molecular Formula": "C<sub>11</sub>H<sub>7</sub>BrN<sub>2</sub>S",
        "Molecular Mass": "279.16",
        "Melting Point": "179-180 °C"
    }
}