{
    "cas_no": "1744-22-5",
    "key_name": "Riluzole",
    "cn_name": "利鲁唑;2-氨基-6-三氟甲氧基苯并噻唑;",
    "alternate_name": "2-Benzothiazolamine, 6-(trifluoromethoxy)-;Benzothiazole, 2-amino-6-(trifluoromethoxy)-;6-(Trifluoromethoxy)-2-benzothiazolamine;2-Amino-6-(trifluoromethoxy)benzothiazole;PK 26124;Riluzole;RP 54274;6-(Trifluoromethoxy)-2-aminobenzothiazole;Rilutek;6-(Trifluoromethoxy)-1,3-benzothiazol-2-ylamine;6-Trifluoromethoxybenzothiazol-2-ylamine;6-(Trifluoromethoxy)-1,3-benzothiazol-2-amine;6-Trifluoromethoxybenzo[<em>d</em>]thiazol-2-amine;Rilutor;BHV 0233;BHV 0223;Tiglutik;MeSH ID: D019782",
    "duplicated_cas_no": "",
    "SMILES": "NC1=NC=2C(=CC(OC(F)(F)F)=CC2)S1",
    "meta_data": {
        "InChI": "InChI=1S/C8H5F3N2OS/c9-8(10,11)14-4-1-2-5-6(3-4)15-7(12)13-5/h1-3H,(H2,12,13)",
        "InChIKey": null,
        "Canonical SMILES": "FC(F)(F)OC=1C=CC=2N=C(SC2C1)N",
        "Molecular Formula": "C<sub>8</sub>H<sub>5</sub>F<sub>3</sub>N<sub>2</sub>OS",
        "Molecular Mass": "234.20",
        "Melting Point": "117-119 °C"
    }
}