{
    "cas_no": "2740-83-2",
    "key_name": "3-(Trifluoromethyl)benzylamine",
    "cn_name": "3-(三氟甲基)苯甲胺;3-三氟甲基苄胺;间三氟甲基苄胺;",
    "alternate_name": "Benzenemethanamine, 3-(trifluoromethyl)-;Benzylamine, <em>m</em>-(trifluoromethyl)-;3-(Trifluoromethyl)benzenemethanamine;3-(Trifluoromethyl)benzylamine;<em>m</em>-(Trifluoromethyl)benzylamine;[3-(Trifluoromethyl)phenyl]methanamine;((3-(Trifluoromethyl)phenyl)methyl)amine;Meta-trifluoromethylbenzylamine;3-Triflouromethyl-1-benzylamine;1-[3-(Trifluoromethyl)phenyl]methanamine",
    "duplicated_cas_no": "",
    "SMILES": "C(F)(F)(F)C1=CC(CN)=CC=C1",
    "meta_data": {
        "InChI": "InChI=1S/C8H8F3N/c9-8(10,11)7-3-1-2-6(4-7)5-12/h1-4H,5,12H2",
        "InChIKey": null,
        "Canonical SMILES": "FC(F)(F)C=1C=CC=C(C1)CN",
        "Molecular Formula": "C<sub>8</sub>H<sub>8</sub>F<sub>3</sub>N",
        "Molecular Mass": "175.15",
        "Boiling Point": "95-97 °C @ Press: 40 Torr",
        "Melting Point": "176.5-178.5 °C"
    }
}