{
    "cas_no": "3760-20-1",
    "key_name": "2-Ethylcyclohexanol",
    "cn_name": null,
    "alternate_name": "Cyclohexanol, 2-ethyl-;2-Ethylcyclohexanol;NSC 62035;2-Ethylcyclohexan-1-ol",
    "duplicated_cas_no": "",
    "SMILES": "C(C)C1C(O)CCCC1",
    "meta_data": {
        "InChI": "InChI=1S/C8H16O/c1-2-7-5-3-4-6-8(7)9/h7-9H,2-6H2,1H3",
        "InChIKey": null,
        "Canonical SMILES": "OC1CCCCC1CC",
        "Molecular Formula": "C<sub>8</sub>H<sub>16</sub>O",
        "Molecular Mass": "128.21",
        "Boiling Point": "55-65 °C @ Press: 4 Torr",
        "Density": "0.9214 g/cm³ @ Temp: 20 °C"
    }
}