{
    "cas_no": "1568-83-8",
    "key_name": "1,1′-(1-Methylethylidene)bis[4-methoxybenzene]",
    "cn_name": "双酚A二甲醚;",
    "alternate_name": "Benzene, 1,1′-(1-methylethylidene)bis[4-methoxy-;Propane, 2,2-bis(<em>p</em>-methoxyphenyl)-;1,1′-(1-Methylethylidene)bis[4-methoxybenzene];Bisphenol A dimethyl ether;2,2-Bis(4-methoxyphenyl)propane;1,1′-propane-2,2-diylbis(4-methoxybenzene);1-Methoxy-4-[2-(4-methoxyphenyl)propan-2-yl]benzene",
    "duplicated_cas_no": "",
    "SMILES": "C(C)(C)(C1=CC=C(OC)C=C1)C2=CC=C(OC)C=C2",
    "meta_data": {
        "InChI": "InChI=1S/C17H20O2/c1-17(2,13-5-9-15(18-3)10-6-13)14-7-11-16(19-4)12-8-14/h5-12H,1-4H3",
        "InChIKey": null,
        "Canonical SMILES": "O(C1=CC=C(C=C1)C(C2=CC=C(OC)C=C2)(C)C)C",
        "Molecular Formula": "C<sub>17</sub>H<sub>20</sub>O<sub>2</sub>",
        "Molecular Mass": "256.34",
        "Boiling Point": "183 °C @ Press: 3 Torr",
        "Melting Point": "51-52 °C"
    }
}