{
    "cas_no": "230615-70-0",
    "key_name": "2,2,2-Trifluoro-1-(6,7,9,10-tetrahydro-6,10-methano-8<em>H</em>-pyrazino[2,3-<em>h</em>][3]benzazepin-8-yl)ethanone",
    "cn_name": "7,8,9,10-四氢-8-(三氟乙酰基)-6,10-甲桥-6H-吡嗪并[2,3-h][3]苯并氮杂卓;",
    "alternate_name": "Ethanone, 2,2,2-trifluoro-1-(6,7,9,10-tetrahydro-6,10-methano-8<em>H</em>-pyrazino[2,3-<em>h</em>][3]benzazepin-8-yl)-;6,10-Methano-6<em>H</em>-pyrazino[2,3-<em>h</em>][3]benzazepine, 7,8,9,10-tetrahydro-8-(trifluoroacetyl)-;2,2,2-Trifluoro-1-(6,7,9,10-tetrahydro-6,10-methano-8<em>H</em>-pyrazino[2,3-<em>h</em>][3]benzazepin-8-yl)ethanone;1-(9,10-Dihydro-6<em>H</em>-6,10-methanoazepino[4,5-<em>g</em>]quinoxalin-8(7<em>H</em>)-yl)-2,2,2-trifluoroethanone",
    "duplicated_cas_no": "",
    "SMILES": "C(C(F)(F)F)(=O)N1CC2C=3C(C(C2)C1)=CC=4C(C3)=NC=CN4",
    "meta_data": {
        "InChI": "InChI=1S/C15H12F3N3O/c16-15(17,18)14(22)21-6-8-3-9(7-21)11-5-13-12(4-10(8)11)19-1-2-20-13/h1-2,4-5,8-9H,3,6-7H2",
        "InChIKey": null,
        "Canonical SMILES": "O=C(N1CC2C=3C=C4N=CC=NC4=CC3C(C1)C2)C(F)(F)F",
        "Molecular Formula": "C<sub>15</sub>H<sub>12</sub>F<sub>3</sub>N<sub>3</sub>O",
        "Molecular Mass": "307.27",
        "Melting Point": "164-166 °C"
    }
}