{
    "cas_no": "1821-27-8",
    "key_name": "4,4′-Dinitrodiphenylamine",
    "cn_name": "4,4-二硝基二苯胺;",
    "alternate_name": "Benzenamine, 4-nitro-<em>N</em>-(4-nitrophenyl)-;Diphenylamine, 4,4′-dinitro-;4-Nitro-<em>N</em>-(4-nitrophenyl)benzenamine;4,4′-Dinitrodiphenylamine;Bis(<em>p</em>-nitrophenyl)amine;Bis(4-nitrophenyl)amine;NSC 36659;<em>N</em>,<em>N</em>-Bis(4-nitrophenyl)amine",
    "duplicated_cas_no": "",
    "SMILES": "N(C1=CC=C(N(=O)=O)C=C1)C2=CC=C(N(=O)=O)C=C2",
    "meta_data": {
        "InChI": "InChI=1S/C12H9N3O4/c16-14(17)11-5-1-9(2-6-11)13-10-3-7-12(8-4-10)15(18)19/h1-8,13H",
        "InChIKey": null,
        "Canonical SMILES": "O=N(=O)C1=CC=C(C=C1)NC2=CC=C(C=C2)N(=O)=O",
        "Molecular Formula": "C<sub>12</sub>H<sub>9</sub>N<sub>3</sub>O<sub>4</sub>",
        "Molecular Mass": "259.22",
        "Melting Point": "216 °C"
    }
}