{
    "cas_no": "126-11-4",
    "key_name": "Tris(hydroxymethyl)nitromethane",
    "cn_name": "三(羟甲基)硝基甲烷;2-羟甲基-2-硝基-1,3-丙二醇;",
    "alternate_name": "1,3-Propanediol, 2-(hydroxymethyl)-2-nitro-;2-(Hydroxymethyl)-2-nitro-1,3-propanediol;Isobutylglycerol, nitro-;2-Nitro-2-(hydroxymethyl)-1,3-propanediol;Trihydroxymethylnitromethane;Trimethylolnitromethane;Tris(hydroxymethyl)nitromethane;Nitroisobutylglycerol;2-(Hydroxymethyl)-2-nitropropanediol;Nitrotris(hydroxymethyl)methane;1,3-Dihydroxy-2-(hydroxymethyl)-2-nitropropane;Tris Nitro;Nitrotrimethylolmethane;NSC 17675;NSC 2344;1-Nitro-1,1,1-tris(hydroxymethyl)methane;2-(Hydroxymethyl)-2-nitropropan-1,3-diol",
    "duplicated_cas_no": "",
    "SMILES": "C(N(=O)=O)(CO)(CO)CO",
    "meta_data": {
        "InChI": "InChI=1S/C4H9NO5/c6-1-4(2-7,3-8)5(9)10/h6-8H,1-3H2",
        "InChIKey": null,
        "Canonical SMILES": "O=N(=O)C(CO)(CO)CO",
        "Molecular Formula": "C<sub>4</sub>H<sub>9</sub>NO<sub>5</sub>",
        "Molecular Mass": "151.12",
        "Melting Point": "165 °C",
        "Density": "1.458 g/cm³"
    }
}