{
    "cas_no": "3089-11-0",
    "key_name": "Hexakis(methoxymethyl)melamine",
    "cn_name": "2,4,6-三[双(甲氧基甲基)氨基]-1,3,5-三嗪;",
    "alternate_name": "1,3,5-Triazine-2,4,6-triamine, <em>N</em><sup>2</sup>,<em>N</em><sup>2</sup>,<em>N</em><sup>4</sup>,<em>N</em><sup>4</sup>,<em>N</em><sup>6</sup>,<em>N</em><sup>6</sup>-hexakis(methoxymethyl)-;Melamine, hexakis(methoxymethyl)-;1,3,5-Triazine-2,4,6-triamine, <em>N</em>,<em>N</em>,<em>N</em>′,<em>N</em>′,<em>N</em>′′,<em>N</em>′′-hexakis(methoxymethyl)-;<em>N</em><sup>2</sup>,<em>N</em><sup>2</sup>,<em>N</em><sup>4</sup>,<em>N</em><sup>4</sup>,<em>N</em><sup>6</sup>,<em>N</em><sup>6</sup>-Hexakis(methoxymethyl)-1,3,5-triazine-2,4,6-triamine;Hexakis(methoxymethyl)melamine;Hexamethylolmelamine hexamethyl ether;Hexamethyl methylolmelamine;Hexa(methoxymethyl)melamine;<em>N</em>,<em>N</em>,<em>N</em>′,<em>N</em>′,<em>N</em>′′,<em>N</em>′′-Hexakis(methoxymethyl)-1,3,5-triazine-2,4,6-triamine;2,4,6-Tris[bis(methoxymethyl)amino]-1,3,5-triazine;<em>N</em>,<em>N</em>,<em>N</em>′,<em>N</em>′,<em>N</em>′′,<em>N</em>′′-Hexamethoxymethylmelamine;Hexamethoxymethylolmelamine;Hexamethoxy methyl melamine resin;2-<em>N</em>,2-<em>N</em>,4-<em>N</em>,4-<em>N</em>,6-<em>N</em>,6-<em>N</em>-Hexakis(methoxymethyl)-1,3,5-triazine-2,4,6-triamine",
    "duplicated_cas_no": "11098-24-1;37331-82-1;58607-87-7;66565-50-2;174805-33-5",
    "SMILES": "N(COC)(COC)C=1N=C(N(COC)COC)N=C(N(COC)COC)N1",
    "meta_data": {
        "InChI": "InChI=1S/C15H30N6O6/c1-22-7-19(8-23-2)13-16-14(20(9-24-3)10-25-4)18-15(17-13)21(11-26-5)12-27-6/h7-12H2,1-6H3",
        "InChIKey": null,
        "Canonical SMILES": "N=1C(=NC(=NC1N(COC)COC)N(COC)COC)N(COC)COC",
        "Molecular Formula": "C<sub>15</sub>H<sub>30</sub>N<sub>6</sub>O<sub>6</sub>",
        "Molecular Mass": "390.44",
        "Melting Point": "40-42 °C"
    }
}