{
    "cas_no": "95-45-4",
    "key_name": "Dimethylglyoxime",
    "cn_name": "二甲基乙二醛肟;二甲基乙酰肟;丁二酮二肟;二乙二肟;丁二肟;双乙酮肟;二乙酰二肟;二甲基乙二肟;",
    "alternate_name": "2,3-Butanedione, 2,3-dioxime;2,3-Butanedione, dioxime;Diacetyl dioxime;Dimethylglyoxime;2,3-Diisonitrosobutane;Chugaev's reagent;Biacetyl dioxime;Reagents, Chugaev's;NSC 9",
    "duplicated_cas_no": "",
    "SMILES": "C(C(=NO)C)(=NO)C",
    "meta_data": {
        "InChI": "InChI=1S/C4H8N2O2/c1-3(5-7)4(2)6-8/h7-8H,1-2H3",
        "InChIKey": null,
        "Canonical SMILES": "ON=C(C(=NO)C)C",
        "Molecular Formula": "C<sub>4</sub>H<sub>8</sub>N<sub>2</sub>O<sub>2</sub>",
        "Molecular Mass": "116.12",
        "Boiling Point": "249-295 °C",
        "Melting Point": "245.5 °C"
    }
}