{
    "cas_no": "38533-61-8",
    "key_name": "2-Chloro-6-methoxy-3-nitropyridine",
    "cn_name": "2-氯-6-甲氧基-3-硝基吡啶;2-氯-3-硝基-6-甲氧基吡啶;",
    "alternate_name": "Pyridine, 2-chloro-6-methoxy-3-nitro-;2-Chloro-6-methoxy-3-nitropyridine;6-Methoxy-3-nitro-2-chloropyridine",
    "duplicated_cas_no": "",
    "SMILES": "N(=O)(=O)C1=C(Cl)N=C(OC)C=C1",
    "meta_data": {
        "InChI": "InChI=1S/C6H5ClN2O3/c1-12-5-3-2-4(9(10)11)6(7)8-5/h2-3H,1H3",
        "InChIKey": null,
        "Canonical SMILES": "O=N(=O)C=1C=CC(=NC1Cl)OC",
        "Molecular Formula": "C<sub>6</sub>H<sub>5</sub>ClN<sub>2</sub>O<sub>3</sub>",
        "Molecular Mass": "188.57",
        "Melting Point": "78-80 °C"
    }
}