{
    "cas_no": "25229-97-4",
    "key_name": "2-Cyano-3-(4-morpholinyl)-2-propenamide",
    "cn_name": "2-氰基-3-吗啉丙酰胺;",
    "alternate_name": "2-Propenamide, 2-cyano-3-(4-morpholinyl)-;4-Morpholineacrylamide, α-cyano-;2-Cyano-3-(4-morpholinyl)-2-propenamide;3-Morpholino-2-cyanoacrylamide;2-Cyano-3-morpholinoacrylamide",
    "duplicated_cas_no": "",
    "SMILES": "C(=C(C(N)=O)C#N)N1CCOCC1",
    "meta_data": {
        "InChI": "InChI=1S/C8H11N3O2/c9-5-7(8(10)12)6-11-1-3-13-4-2-11/h6H,1-4H2,(H2,10,12)",
        "InChIKey": null,
        "Canonical SMILES": "N#CC(=CN1CCOCC1)C(=O)N",
        "Molecular Formula": "C<sub>8</sub>H<sub>11</sub>N<sub>3</sub>O<sub>2</sub>",
        "Molecular Mass": "181.19",
        "Melting Point": "169-173 °C"
    }
}