{
    "cas_no": "183208-35-7",
    "key_name": "5-Bromo-1<em>H</em>-pyrrolo[2,3-<em>b</em>]pyridine",
    "cn_name": "5-溴-7-氮杂吲哚;5-溴-1H-吡咯[2,3-B]吡啶;5-溴-1H-吡咯并[2,3-B]吡啶;",
    "alternate_name": "1<em>H</em>-Pyrrolo[2,3-<em>b</em>]pyridine, 5-bromo-;5-Bromo-1<em>H</em>-pyrrolo[2,3-<em>b</em>]pyridine;5-Bromo-7-azaindole;5-Bromo-7<em>H</em>-pyrrolo[2,3-<em>b</em>]pyridine",
    "duplicated_cas_no": "1848244-69-8",
    "SMILES": "BrC=1C=C2C(=NC1)NC=C2",
    "meta_data": {
        "InChI": "InChI=1S/C7H5BrN2/c8-6-3-5-1-2-9-7(5)10-4-6/h1-4H,(H,9,10)",
        "InChIKey": null,
        "Canonical SMILES": "BrC=1C=NC=2NC=CC2C1",
        "Molecular Formula": "C<sub>7</sub>H<sub>5</sub>BrN<sub>2</sub>",
        "Molecular Mass": "197.03",
        "Melting Point": "174-176 °C"
    }
}