{
    "cas_no": "51857-17-1",
    "key_name": "N-BOC-1,6-diaminohexane",
    "cn_name": "N-(6-氨基己基)氨基甲酸叔丁酯;N-叔丁氧羰基-1,6-二氨基己烷;",
    "alternate_name": "Carbamic acid, <em>N</em>-(6-aminohexyl)-, 1,1-dimethylethyl ester;Carbamic acid, (6-aminohexyl)-, 1,1-dimethylethyl ester;6-[(<em>tert</em>-Butyloxycarbonyl)amino]hexylamine;<em>N</em>-(<em>tert</em>-Butoxycarbonyl)hexamethylenediamine;<em>N</em>-(<em>tert</em>-Butoxycarbonyl)-1,6-hexanediamine;<em>N</em>-BOC-1,6-diaminohexane;1-((<em>tert</em>-Butoxycarbonyl)amino)-6-aminohexane;(6-Aminohexyl)carbamic acid <em>tert</em>-butyl ester;6-Aminohexylcarbamic acid tert-butyl ester;<em>tert</em>-Butyl <em>N</em>-(6-aminohexyl)carbamate;<em>tert</em>-Butyl (6-aminohexyl)carbamate;6-(<em>tert</em>-Butoxycarbonylamino)-1-hexanamine;6-((<em>tert</em>-Butoxycarbonyl)amino)-1-hexylamine;<em>N</em>-(<em>tert</em>-Butoxycarbonyl)-1,6-diaminohexane;6-(<em>tert</em>-Butoxycarbonylamino)hexylamine;N-BOC-1,6-diaminohexane;Mono-BOC-hexamethylenediamine;<em>tert</em>-Butyloxycarbonyl-1,6-hexamethylenediamine;Boc-1,6-hexanediamine;<em>N</em>-Boc-1,6-hexanediamine;6-(<em>tert</em>-Butoxycarbonyl)amino-1-aminohexane",
    "duplicated_cas_no": "",
    "SMILES": "C(NCCCCCCN)(OC(C)(C)C)=O",
    "meta_data": {
        "InChI": "InChI=1S/C11H24N2O2/c1-11(2,3)15-10(14)13-9-7-5-4-6-8-12/h4-9,12H2,1-3H3,(H,13,14)",
        "InChIKey": null,
        "Canonical SMILES": "O=C(OC(C)(C)C)NCCCCCCN",
        "Molecular Formula": "C<sub>11</sub>H<sub>24</sub>N<sub>2</sub>O<sub>2</sub>",
        "Molecular Mass": "216.32",
        "Melting Point": "67-69 °C"
    }
}