{
    "cas_no": "5568-90-1",
    "key_name": "10<em>H</em>-Phenothiazine-10-ethanamine, <em>N</em>,<em>N</em>,β-trimethyl-, hydrochloride (1:1)",
    "cn_name": null,
    "alternate_name": "10<em>H</em>-Phenothiazine-10-ethanamine, <em>N</em>,<em>N</em>,β-trimethyl-, hydrochloride (1:1);Phenothiazine, 10-[2-(dimethylamino)-1-methylethyl]-, monohydrochloride;10<em>H</em>-Phenothiazine-10-ethanamine, <em>N</em>,<em>N</em>,β-trimethyl-, monohydrochloride;Isopromethazine hydrochloride",
    "duplicated_cas_no": "",
    "SMILES": "C(CN(C)C)(C)N1C=2C(SC=3C1=CC=CC3)=CC=CC2.Cl",
    "meta_data": {
        "InChI": "InChI=1S/C17H20N2S.ClH/c1-13(12-18(2)3)19-14-8-4-6-10-16(14)20-17-11-7-5-9-15(17)19;/h4-11,13H,12H2,1-3H3;1H",
        "InChIKey": null,
        "Canonical SMILES": "Cl.S1C=2C=CC=CC2N(C=3C=CC=CC13)C(C)CN(C)C",
        "Molecular Formula": "C<sub>17</sub>H<sub>20</sub>N<sub>2</sub>S.ClH",
        "Molecular Mass": "",
        "Melting Point": "204 °C"
    }
}