{
    "cas_no": "13404-22-3",
    "key_name": "<span class=\"text-smallcaps\">L</span>-Alanine <em>tert</em>-butyl ester hydrochloride",
    "cn_name": "L-丙氨酸叔丁酯盐酸盐;",
    "alternate_name": "<span class=\"text-smallcaps\">L</span>-Alanine, 1,1-dimethylethyl ester, hydrochloride (1:1);Alanine, <em>tert</em>-butyl ester, hydrochloride, <span class=\"text-smallcaps\">L</span>-;<span class=\"text-smallcaps\">L</span>-Alanine, 1,1-dimethylethyl ester, hydrochloride;Alanine <em>tert</em>-butyl ester hydrochloride;<em>tert</em>-Butyl <span class=\"text-smallcaps\">L</span>-alaninate hydrochloride;<span class=\"text-smallcaps\">L</span>-Alanine <em>tert</em>-butyl ester hydrochloride;<em>tert</em>-Butyl (<em>S</em>)-2-aminopropanoate hydrochloride;(<em>S</em>)-2-Aminopropionic acid <em>tert</em>-butyl ester hydrochloride;(<em>S</em>)-Alanine <em>tert</em>-butyl ester hydrochloride;<span class=\"text-smallcaps\">L</span>-Alanine tert-Butyl ester hydrogen chloride;<span class=\"text-smallcaps\">L</span>-Ala-OtBu·HCl",
    "duplicated_cas_no": "10589-97-6",
    "SMILES": "C(OC(C)(C)C)([C@H](C)N)=O.Cl",
    "meta_data": {
        "InChI": "InChI=1S/C7H15NO2.ClH/c1-5(8)6(9)10-7(2,3)4;/h5H,8H2,1-4H3;1H/t5-;/m0./s1",
        "InChIKey": null,
        "Canonical SMILES": "Cl.O=C(OC(C)(C)C)C(N)C",
        "Molecular Formula": "C<sub>7</sub>H<sub>15</sub>NO<sub>2</sub>.ClH",
        "Molecular Mass": "",
        "Melting Point": "168 °C (decomp)"
    }
}