{
    "cas_no": "495-84-1",
    "key_name": "Salicylaldehyde isonicotinoylhydrazone",
    "cn_name": null,
    "alternate_name": "4-Pyridinecarboxylic acid, 2-[(2-hydroxyphenyl)methylene]hydrazide;Isonicotinic acid, salicylidenehydrazide;4-Pyridinecarboxylic acid, [(2-hydroxyphenyl)methylene]hydrazide;Hydrazine, 1-isonicotinoyl-2-salicylidene-;<em>o</em>-Hydroxybenzal isonicotinylhydrazone;<em>N</em>-Isonicotinoyl-<em>N</em>′-(salicylidene)hydrazine;1-Isonicotinoyl-2-salicylidenehydrazine;Nupasal;Nupasal 213;SAH;Salinazid;Salizid;Salicylaldehyde isonicotinoylhydrazone;<em>o</em>-Hydroxybenzaldehyde isonicotinoylhydrazone;Salicylaldehyde 4-pyridinecarboxylic acid hydrazone;<em>o</em>-Oxyberon;Phthisosan;INSH;Neobicina Salicilica;Nilazid;Salizide;<em>N</em>-Isonicotinamidosalicylaldimine;Salicylidene isonicotinoylhydrazone;NSC 33760;SIH;(2-Hydroxybenzylidene)pyridine-4-carbohydrazide;Salicylaldehyde isonicotinoylhydrazine",
    "duplicated_cas_no": "",
    "SMILES": "C(=NNC(=O)C=1C=CN=CC1)C2=C(O)C=CC=C2",
    "meta_data": {
        "InChI": "InChI=1S/C13H11N3O2/c17-12-4-2-1-3-11(12)9-15-16-13(18)10-5-7-14-8-6-10/h1-9,17H,(H,16,18)",
        "InChIKey": null,
        "Canonical SMILES": "O=C(NN=CC=1C=CC=CC1O)C=2C=CN=CC2",
        "Molecular Formula": "C<sub>13</sub>H<sub>11</sub>N<sub>3</sub>O<sub>2</sub>",
        "Molecular Mass": "241.25",
        "Melting Point": "232 °C"
    }
}