{
    "cas_no": "1476-98-8",
    "key_name": "Hydroquinidine hydrochloride",
    "cn_name": null,
    "alternate_name": "Cinchonan-9-ol, 10,11-dihydro-6′-methoxy-, hydrochloride (1:1), (9<em>S</em>)-;Hydroquinidine, monohydrochloride;Cinchonan-9-ol, 10,11-dihydro-6′-methoxy-, monohydrochloride, (9<em>S</em>)-;DHQ hydrochloride;Hydroquinidine hydrochloride;Dihydroquinidine hydrochloride;10,11-Dihydroquinidine monohydrochloride;Serecor",
    "duplicated_cas_no": "",
    "SMILES": "[C@H](O)(C=1C2=C(C=CC(OC)=C2)N=CC1)[C@@]3([N@@]4C[C@H](CC)[C@](C3)(CC4)[H])[H].Cl",
    "meta_data": {
        "InChI": "InChI=1S/C20H26N2O2.ClH/c1-3-13-12-22-9-7-14(13)10-19(22)20(23)16-6-8-21-18-5-4-15(24-2)11-17(16)18;/h4-6,8,11,13-14,19-20,23H,3,7,9-10,12H2,1-2H3;1H/t13-,14-,19+,20-;/m0./s1",
        "InChIKey": null,
        "Canonical SMILES": "Cl.OC(C=1C=CN=C2C=CC(OC)=CC21)C3N4CCC(C3)C(C4)CC",
        "Molecular Formula": "C<sub>20</sub>H<sub>26</sub>N<sub>2</sub>O<sub>2</sub>.ClH",
        "Molecular Mass": "",
        "Melting Point": "273-274 °C"
    }
}