{
    "cas_no": "76985-10-9",
    "key_name": "(α<em>R</em>)-α-[[(1,1-Dimethylethoxy)carbonyl]amino]-2-naphthalenepropanoic acid",
    "cn_name": "Boc-3-(2-萘基)-D-丙氨酸;N-叔丁氧羰基-3-(2-萘基)-D-丙氨酸;",
    "alternate_name": "2-Naphthalenepropanoic acid, α-[[(1,1-dimethylethoxy)carbonyl]amino]-, (α<em>R</em>)-;2-Naphthalenepropanoic acid, α-[[(1,1-dimethylethoxy)carbonyl]amino]-, (<em>R</em>)-;(α<em>R</em>)-α-[[(1,1-Dimethylethoxy)carbonyl]amino]-2-naphthalenepropanoic acid;BOC-(2-naphthyl)-<span class=\"text-smallcaps\">D</span>-alanine;<em>N</em>-(<em>tert</em>-Butoxycarbonyl)-3-(2-naphthyl)-<span class=\"text-smallcaps\">D</span>-alanine;(<em>R</em>)-2-[(<em>tert</em>-Butoxycarbonyl)amino]-3-(naphthalen-2-yl)propionic acid;(2R)-2-[(2-Methylpropan-2-yl)oxycarbonylamino]-3-naphthalen-2-ylpropanoic acid;2-Naphthalenepropanoic acid α-[[(1,1-dimethylethoxy)carbonyl]amino]-, (αR)-;Boc-3-(2-naphthyl)-<span class=\"text-smallcaps\">D</span>-alanine",
    "duplicated_cas_no": "",
    "SMILES": "C([C@@H](NC(OC(C)(C)C)=O)C(O)=O)C1=CC2=C(C=C1)C=CC=C2",
    "meta_data": {
        "InChI": "InChI=1S/C18H21NO4/c1-18(2,3)23-17(22)19-15(16(20)21)11-12-8-9-13-6-4-5-7-14(13)10-12/h4-10,15H,11H2,1-3H3,(H,19,22)(H,20,21)/t15-/m1/s1",
        "InChIKey": null,
        "Canonical SMILES": "O=C(OC(C)(C)C)NC(C(=O)O)CC=1C=CC=2C=CC=CC2C1",
        "Molecular Formula": "C<sub>18</sub>H<sub>21</sub>NO<sub>4</sub>",
        "Molecular Mass": "315.36",
        "Melting Point": "91-93 °C"
    }
}