{
    "cas_no": "1124-19-2",
    "key_name": "Phenyltin trichloride",
    "cn_name": "苯基三氯化锡;苯基锡;三氯苯基锡;",
    "alternate_name": "Stannane, trichlorophenyl-;Phenyltin trichloride;Trichlorophenylstannane;Trichlorophenyltin;Phenyltrichlorotin;Phenyltrichlorostannane;Monophenyltin trichloride;Monophenyltin chloride;NSC 92617",
    "duplicated_cas_no": "",
    "SMILES": "[Sn](Cl)(Cl)(Cl)C1=CC=CC=C1",
    "meta_data": {
        "InChI": "InChI=1S/C6H5.3ClH.Sn/c1-2-4-6-5-3-1;;;;/h1-5H;3*1H;/q;;;;+3/p-3",
        "InChIKey": null,
        "Canonical SMILES": "Cl[Sn](Cl)(Cl)C=1C=CC=CC1",
        "Molecular Formula": "C<sub>6</sub>H<sub>5</sub>Cl<sub>3</sub>Sn",
        "Molecular Mass": "302.17",
        "Boiling Point": "141-143 °C @ Press: 25 Torr",
        "Melting Point": "-31 °C",
        "Density": "1.839 g/cm³"
    }
}