{
    "cas_no": "13454-96-1",
    "key_name": "Platinum tetrachloride",
    "cn_name": "氯化铂;四氯化铂;",
    "alternate_name": "Platinum chloride (PtCl<sub>4</sub>), (<em>SP</em>-4-1)-;Platinum chloride (PtCl<sub>4</sub>);Platinum tetrachloride;Platinum(IV) tetrachloride;Platinum(IV) chloride;Tetrachloroplatinum",
    "duplicated_cas_no": "1380586-71-9",
    "SMILES": "[Pt](Cl)(Cl)(Cl)Cl",
    "meta_data": {
        "InChI": "InChI=1S/4ClH.Pt/h4*1H;/q;;;;+4/p-4",
        "InChIKey": null,
        "Canonical SMILES": "Cl[Pt](Cl)(Cl)Cl",
        "Molecular Formula": "Cl<sub>4</sub>Pt",
        "Molecular Mass": "",
        "Melting Point": "327 °C (decomp)",
        "Density": "4.3 g/cm³ @ Temp: 25 °C"
    }
}