{
    "cas_no": "24623-24-3",
    "key_name": "6-Nitroindanone",
    "cn_name": "6-Nitroindan-1-one;",
    "alternate_name": "1<em>H</em>-Inden-1-one, 2,3-dihydro-6-nitro-;1-Indanone, 6-nitro-;2,3-Dihydro-6-nitro-1<em>H</em>-inden-1-one;6-Nitroindan-1-one;6-Nitroindanone;1-Oxo-6-nitroindane;NSC 225094;6-Nitro-2,3-dihydro-1<em>H</em>-inden-1-one",
    "duplicated_cas_no": "",
    "SMILES": "O=C1C=2C(=CC=C(N(=O)=O)C2)CC1",
    "meta_data": {
        "InChI": "InChI=1S/C9H7NO3/c11-9-4-2-6-1-3-7(10(12)13)5-8(6)9/h1,3,5H,2,4H2",
        "InChIKey": null,
        "Canonical SMILES": "O=C1C2=CC(=CC=C2CC1)N(=O)=O",
        "Molecular Formula": "C<sub>9</sub>H<sub>7</sub>NO<sub>3</sub>",
        "Molecular Mass": "177.16",
        "Melting Point": "71-73 °C"
    }
}