{
    "cas_no": "3382-63-6",
    "key_name": "4-[[(4-Fluorophenyl)imino]methyl]phenol",
    "cn_name": "4-[[(4-氟苯基)亚胺]甲基]-苯酚;",
    "alternate_name": "Phenol, 4-[[(4-fluorophenyl)imino]methyl]-;Phenol, <em>p</em>-[<em>N</em>-(<em>p</em>-fluorophenyl)formimidoyl]-;4-[[(4-Fluorophenyl)imino]methyl]phenol;4-[(4-Fluorophenylimino)methyl]phenol;<em>N</em>-(4-Hydroxybenzylidene)-4-fluorobenzenamine",
    "duplicated_cas_no": "",
    "SMILES": "C(=NC1=CC=C(F)C=C1)C2=CC=C(O)C=C2",
    "meta_data": {
        "InChI": "InChI=1S/C13H10FNO/c14-11-3-5-12(6-4-11)15-9-10-1-7-13(16)8-2-10/h1-9,16H",
        "InChIKey": null,
        "Canonical SMILES": "FC1=CC=C(N=CC2=CC=C(O)C=C2)C=C1",
        "Molecular Formula": "C<sub>13</sub>H<sub>10</sub>FNO",
        "Molecular Mass": "215.22",
        "Melting Point": "195 °C"
    }
}