{
    "cas_no": "127-69-5",
    "key_name": "Sulfisoxazole",
    "cn_name": "磺胺二甲异噁唑;净尿磺;菌得清;",
    "alternate_name": "Benzenesulfonamide, 4-amino-<em>N</em>-(3,4-dimethyl-5-isoxazolyl)-;Sulfanilamide, <em>N</em><sup>1</sup>-(3,4-dimethyl-5-isoxazolyl)-;4-Amino-<em>N</em>-(3,4-dimethyl-5-isoxazolyl)benzenesulfonamide;Alphazole;5-(<em>p</em>-Aminobenzenesulfonamido)-3,4-dimethylisoxazole;5-(<em>p</em>-Aminobenzenesulphonamido)-3,4-dimethylisoxazole;5-(4-Aminophenylsulfonamido)-3,4-dimethylisoxazole;Chemouag;<em>N</em><sup>1</sup>-(3,4-Dimethyl-5-isoxazolyl)sulfanilamide;3,4-Dimethyl-5-sulfanilamidoisoxazole;Entusul;Gantrisin;Gantrosan;Neazolin;Roxosul tablets;Soxisol;Stansin;Sulbio;Sulfadimethylisoxazole;Sulfafurazol;Sulfafurazole;Sulfaisoxazole;5-Sulfanilamido-3,4-dimethylisoxazole;Sulfazin;Sulfisoxazol;Sulfisoxazole;Sulphafurazole;Unisulf;Thiasin;Amidoxal;Neoxazol;3,4-Dimethyl-5-sulfonamidoisoxazole;Dorsulfan Warthausen;Uritrisin;Gantrisona;Pancid;Isoxamin;Sulfagan;Norilgan-S;Sulfasol;Sulfisoxazole dialamine;Sulphisoxazole;Gantrizin;4-Amino-<em>N</em>-(3,4-dimethylisoxazol-5-yl)benzenesulfonamide;Sosol;Sulfalar;Sulfoxol;Soxomide;Sulsoxin;NSC 13120;NSC 33807;NSC 38588;NSC 683536;<em>N</em>-(3,4-Dimethylisoxazol-5-yl)-4-aminobenzenesulfonamide;Soxazole;MeSH ID: D013444",
    "duplicated_cas_no": "207522-06-3",
    "SMILES": "S(NC1=C(C)C(C)=NO1)(=O)(=O)C2=CC=C(N)C=C2",
    "meta_data": {
        "InChI": "InChI=1S/C11H13N3O3S/c1-7-8(2)13-17-11(7)14-18(15,16)10-5-3-9(12)4-6-10/h3-6,14H,12H2,1-2H3",
        "InChIKey": null,
        "Canonical SMILES": "O=S(=O)(NC=1ON=C(C1C)C)C2=CC=C(N)C=C2",
        "Molecular Formula": "C<sub>11</sub>H<sub>13</sub>N<sub>3</sub>O<sub>3</sub>S",
        "Molecular Mass": "267.30",
        "Melting Point": "194 °C",
        "Density": "1.40 g/cm³"
    }
}