{
    "cas_no": "1009-36-5",
    "key_name": "1-Chloro-2-methoxy-4-nitrobenzene",
    "cn_name": "2-氯-5-硝基苯甲醚; 2-氯-5-硝基茴香醚;",
    "alternate_name": "Benzene, 1-chloro-2-methoxy-4-nitro-;Anisole, 2-chloro-5-nitro-;1-Chloro-2-methoxy-4-nitrobenzene;2-Chloro-5-nitroanisole;2-Methoxy-4-nitrochlorobenzene;4-Chloro-3-methoxynitrobenzene;2-Methoxy-4-nitro-1-chlorobenzene",
    "duplicated_cas_no": "",
    "SMILES": "O(C)C1=CC(N(=O)=O)=CC=C1Cl",
    "meta_data": {
        "InChI": "InChI=1S/C7H6ClNO3/c1-12-7-4-5(9(10)11)2-3-6(7)8/h2-4H,1H3",
        "InChIKey": null,
        "Canonical SMILES": "O=N(=O)C1=CC=C(Cl)C(OC)=C1",
        "Molecular Formula": "C<sub>7</sub>H<sub>6</sub>ClNO<sub>3</sub>",
        "Molecular Mass": "187.58",
        "Melting Point": "82.5 °C"
    }
}