{
    "cas_no": "5541-67-3",
    "key_name": "5-Methyl-8-hydroxyquinoline",
    "cn_name": "8-羟基-5-甲基喹啉;",
    "alternate_name": "8-Quinolinol, 5-methyl-;5-Methyl-8-quinolinol;5-Methyloxine;8-Hydroxy-5-methylquinoline;Tiliquinol;5-Methyl-8-hydroxyquinoline;NSC 130828",
    "duplicated_cas_no": "",
    "SMILES": "CC=1C2=C(C(O)=CC1)N=CC=C2",
    "meta_data": {
        "InChI": "InChI=1S/C10H9NO/c1-7-4-5-9(12)10-8(7)3-2-6-11-10/h2-6,12H,1H3",
        "InChIKey": null,
        "Canonical SMILES": "OC=1C=CC(=C2C=CC=NC12)C",
        "Molecular Formula": "C<sub>10</sub>H<sub>9</sub>NO",
        "Molecular Mass": "159.18",
        "Melting Point": "121-122 °C"
    }
}