{
    "cas_no": "23465-76-1",
    "key_name": "Caroverine",
    "cn_name": null,
    "alternate_name": "2(1<em>H</em>)-Quinoxalinone, 1-[2-(diethylamino)ethyl]-3-[(4-methoxyphenyl)methyl]-;2(1<em>H</em>)-Quinoxalinone, 1-[2-(diethylamino)ethyl]-3-(<em>p</em>-methoxybenzyl)-;1-[2-(Diethylamino)ethyl]-3-[(4-methoxyphenyl)methyl]-2(1<em>H</em>)-quinoxalinone;1-[2-(Diethylamino)ethyl]-3-(<em>p</em>-methoxybenzyl)-2-quinoxalone;Spasmium;Spadon;Caroverine;1-[2-(Diethylamino)ethyl]-3-[(4-methoxyphenyl)methyl]quinoxalin-2-one",
    "duplicated_cas_no": "37764-46-8",
    "SMILES": "C(CN(CC)CC)N1C=2C(N=C(CC3=CC=C(OC)C=C3)C1=O)=CC=CC2",
    "meta_data": {
        "InChI": "InChI=1S/C22H27N3O2/c1-4-24(5-2)14-15-25-21-9-7-6-8-19(21)23-20(22(25)26)16-17-10-12-18(27-3)13-11-17/h6-13H,4-5,14-16H2,1-3H3",
        "InChIKey": null,
        "Canonical SMILES": "O=C1C(=NC=2C=CC=CC2N1CCN(CC)CC)CC3=CC=C(OC)C=C3",
        "Molecular Formula": "C<sub>22</sub>H<sub>27</sub>N<sub>3</sub>O<sub>2</sub>",
        "Molecular Mass": "365.47",
        "Boiling Point": "202 °C @ Press: 0.01 Torr",
        "Melting Point": "69 °C"
    }
}