{
    "cas_no": "138517-61-0",
    "key_name": "Trost Ligand",
    "cn_name": null,
    "alternate_name": "Benzamide, <em>N</em>,<em>N</em>′-(1<em>R</em>,2<em>R</em>)-1,2-cyclohexanediylbis[2-(diphenylphosphino)-;Benzamide, <em>N</em>,<em>N</em>′-1,2-cyclohexanediylbis[2-(diphenylphosphino)-, (1<em>R</em>-<em>trans</em>)-;<em>N</em>,<em>N</em>′-(1<em>R</em>,2<em>R</em>)-1,2-Cyclohexanediylbis[2-(diphenylphosphino)benzamide];(<em>R</em>,<em>R</em>)-Trost ligand;Trost Ligand;(1<em>R</em>,2<em>R</em>)-<em>N</em>,<em>N</em>′-Bis[<em>o</em>-(diphenylphosphino)benzoyl]cyclohexane-1,2-diamine;(<em>R</em>,<em>R</em>)-DPPBA;(<em>R</em>)-Trost ligand;(1<em>R</em>,2<em>R</em>)-1,2-Bis[[2-(diphenylphosphanyl)benzoyl]amino]cyclohexane;(1<em>R</em>,2<em>R</em>)-1,2-Bis[[2-(diphenylphosphino)benzoyl]amino]cyclohexane;(1<em>R</em>,2<em>R</em>)-(+)-1,2-Diaminocyclohexane-N,N′-bis(2′-diphenylphosphinobenzoyl)",
    "duplicated_cas_no": "155229-40-6;171868-68-1",
    "SMILES": "P(C1=C(C(N[C@H]2[C@H](NC(=O)C3=C(P(C4=CC=CC=C4)C5=CC=CC=C5)C=CC=C3)CCCC2)=O)C=CC=C1)(C6=CC=CC=C6)C7=CC=CC=C7",
    "meta_data": {
        "InChI": "InChI=1S/C44H40N2O2P2/c47-43(37-27-13-17-31-41(37)49(33-19-5-1-6-20-33)34-21-7-2-8-22-34)45-39-29-15-16-30-40(39)46-44(48)38-28-14-18-32-42(38)50(35-23-9-3-10-24-35)36-25-11-4-12-26-36/h1-14,17-28,31-32,39-40H,15-16,29-30H2,(H,45,47)(H,46,48)/t39-,40-/m1/s1",
        "InChIKey": null,
        "Canonical SMILES": "O=C(NC1CCCCC1NC(=O)C=2C=CC=CC2P(C=3C=CC=CC3)C=4C=CC=CC4)C=5C=CC=CC5P(C=6C=CC=CC6)C=7C=CC=CC7",
        "Molecular Formula": "C<sub>44</sub>H<sub>40</sub>N<sub>2</sub>O<sub>2</sub>P<sub>2</sub>",
        "Molecular Mass": "690.75",
        "Melting Point": "136-139 °C"
    }
}