{
    "cas_no": "2114-00-3",
    "key_name": "α-Bromopropiophenone",
    "cn_name": "2-溴苯丙酮;",
    "alternate_name": "1-Propanone, 2-bromo-1-phenyl-;Propiophenone, 2-bromo-;2-Bromo-1-phenyl-1-propanone;α-Bromopropiophenone;2-Bromopropiophenone;1-Bromoethyl phenyl ketone;1-Benzoyl-1-bromoethane;α-Bromoethyl phenyl ketone;α-Methylphenacyl bromide;<em>dl</em>-α-Bromopropiophenone;NSC 89689",
    "duplicated_cas_no": "78541-87-4",
    "SMILES": "C(C(Br)C)(=O)C1=CC=CC=C1",
    "meta_data": {
        "InChI": "InChI=1S/C9H9BrO/c1-7(10)9(11)8-5-3-2-4-6-8/h2-7H,1H3",
        "InChIKey": null,
        "Canonical SMILES": "O=C(C=1C=CC=CC1)C(Br)C",
        "Molecular Formula": "C<sub>9</sub>H<sub>9</sub>BrO",
        "Molecular Mass": "213.07",
        "Boiling Point": "247.5 °C",
        "Density": "1.430 g/cm³ @ Temp: 20 °C"
    }
}