{
    "cas_no": "22424-58-4",
    "key_name": "2-Methyl-1-nitro-4-(phenylmethoxy)benzene",
    "cn_name": null,
    "alternate_name": "Benzene, 2-methyl-1-nitro-4-(phenylmethoxy)-;Ether, benzyl 4-nitro-<em>m</em>-tolyl;2-Methyl-1-nitro-4-(phenylmethoxy)benzene;NSC 86149;1-(Benzyloxy)-3-methyl-4-nitrobenzene;5-Benzyloxy-2-nitrotoluene;1-((3-Methyl-4-nitrophenoxy)methyl)benzene",
    "duplicated_cas_no": "",
    "SMILES": "N(=O)(=O)C1=C(C)C=C(OCC2=CC=CC=C2)C=C1",
    "meta_data": {
        "InChI": "InChI=1S/C14H13NO3/c1-11-9-13(7-8-14(11)15(16)17)18-10-12-5-3-2-4-6-12/h2-9H,10H2,1H3",
        "InChIKey": null,
        "Canonical SMILES": "O=N(=O)C1=CC=C(OCC=2C=CC=CC2)C=C1C",
        "Molecular Formula": "C<sub>14</sub>H<sub>13</sub>NO<sub>3</sub>",
        "Molecular Mass": "243.26",
        "Melting Point": "73-74 °C"
    }
}