{
    "cas_no": "80-13-7",
    "key_name": "Halazone",
    "cn_name": "哈拉宗;4-(N,N-二氯胺磺酰基)苯甲酸;",
    "alternate_name": "Benzoic acid, 4-[(dichloroamino)sulfonyl]-;Benzoic acid, <em>p</em>-(dichlorosulfamoyl)-;Halazone;4-[(Dichloroamino)sulfonyl]benzoic acid;<em>p</em>-(Dichlorosulfamoyl)benzoic acid;<em>p</em>-(<em>N</em>,<em>N</em>-Dichlorosulfamyl)benzoic acid;Pantocid;<em>p</em>-Sulfondichloramidobenzoic acid;Pantocide;Pantosid;<em>p</em>-(<em>N</em>,<em>N</em>-Dichlorosulfamoyl)benzoic acid;Halazon;Pentocid;Zeptabs;4-Carboxy-<em>N</em>,<em>N</em>-dichlorobenzenesulfonamide;NSC 60717",
    "duplicated_cas_no": "",
    "SMILES": "S(N(Cl)Cl)(=O)(=O)C1=CC=C(C(O)=O)C=C1",
    "meta_data": {
        "InChI": "InChI=1S/C7H5Cl2NO4S/c8-10(9)15(13,14)6-3-1-5(2-4-6)7(11)12/h1-4H,(H,11,12)",
        "InChIKey": null,
        "Canonical SMILES": "O=C(O)C1=CC=C(C=C1)S(=O)(=O)N(Cl)Cl",
        "Molecular Formula": "C<sub>7</sub>H<sub>5</sub>Cl<sub>2</sub>NO<sub>4</sub>S",
        "Molecular Mass": "270.09",
        "Melting Point": "195 °C (decomp)"
    }
}