{
    "cas_no": "139272-67-6",
    "key_name": "2-Ethoxy-2-oxoethyl 2-[(2,6-dichlorophenyl)amino]benzeneacetate",
    "cn_name": null,
    "alternate_name": "Benzeneacetic acid, 2-[(2,6-dichlorophenyl)amino]-, 2-ethoxy-2-oxoethyl ester;2-Ethoxy-2-oxoethyl 2-[(2,6-dichlorophenyl)amino]benzeneacetate;2-Ethoxy-2-oxoethyl 2-(2-(2,6-dichlorophenylamino)-phenyl)acetate;2-Ethoxy-2-oxoethyl 2-(2-((2,6-dichlorophenyl)amino)phenyl)acetate",
    "duplicated_cas_no": "",
    "SMILES": "N(C1=C(CC(OCC(OCC)=O)=O)C=CC=C1)C2=C(Cl)C=CC=C2Cl",
    "meta_data": {
        "InChI": "InChI=1S/C18H17Cl2NO4/c1-2-24-17(23)11-25-16(22)10-12-6-3-4-9-15(12)21-18-13(19)7-5-8-14(18)20/h3-9,21H,2,10-11H2,1H3",
        "InChIKey": null,
        "Canonical SMILES": "O=C(OCC)COC(=O)CC=1C=CC=CC1NC=2C(Cl)=CC=CC2Cl",
        "Molecular Formula": "C<sub>18</sub>H<sub>17</sub>Cl<sub>2</sub>NO<sub>4</sub>",
        "Molecular Mass": "382.24",
        "Melting Point": "165-166 °C"
    }
}