{
    "cas_no": "623-68-7",
    "key_name": "2-Butenoic acid, 1,1′-anhydride",
    "cn_name": "巴豆酸酐;",
    "alternate_name": "2-Butenoic acid, 1,1′-anhydride;Crotonic anhydride;2-Butenoic acid, anhydride;Crotonic acid anhydride;2-Butenoic anhydride;NSC 97397",
    "duplicated_cas_no": "",
    "SMILES": "C(OC(C=CC)=O)(C=CC)=O",
    "meta_data": {
        "InChI": "InChI=1S/C8H10O3/c1-3-5-7(9)11-8(10)6-4-2/h3-6H,1-2H3",
        "InChIKey": null,
        "Canonical SMILES": "O=C(OC(=O)C=CC)C=CC",
        "Molecular Formula": "C<sub>8</sub>H<sub>10</sub>O<sub>3</sub>",
        "Molecular Mass": "154.16",
        "Boiling Point": "246-248 °C @ Press: 766 Torr",
        "Melting Point": "72 °C",
        "Density": "1.0397 g/cm³ @ Temp: 20 °C"
    }
}