{
    "cas_no": "84540-57-8",
    "key_name": "Propylene glycol methyl ether acetate",
    "cn_name": "1-甲氧基-2-乙酰氧基丙烷;",
    "alternate_name": "Propanol, 1(<em>or</em> 2)-methoxy-, acetate;Propanol, methoxy-, acetate;Propylene glycol methyl ether acetate;Methoxypropanol acetate;Propylene glycol monomethyl ether acetate;PM Acetate;PGMEA;1,2-Propanediol monoacetate monomethyl ether;Methoxypropyl acetate;Isopropylene glycol monomethyl ether acetate;Dowanol PMA-C;PGMAC;Bawanol PMA;Nano XP;Lunazard;MFGAc;PMA-P;MMPG-AC;PMA;Dowanol PM acetate;Arcosolv PM acetate;Dowanol PMA-MPA;R 4102;Bannernol G;Propylene glycol acetate monomethyl ether",
    "duplicated_cas_no": "109975-14-6;110656-52-5;112708-24-4;112815-79-9;121077-41-6;122200-84-4;128234-94-6;132759-79-6;89024-54-4;93838-74-5;847935-22-2;1089724-11-7",
    "SMILES": "",
    "meta_data": {
        "InChI": "",
        "InChIKey": null,
        "Canonical SMILES": "",
        "Molecular Formula": "C<sub>6</sub>H<sub>12</sub>O<sub>3</sub>",
        "Molecular Mass": "",
        "Boiling Point": "146 °C"
    }
}