{
    "cas_no": "3052-50-4",
    "key_name": "Monomethyl maleate",
    "cn_name": "马来酸单甲酯;顺丁烯二酸单甲酯;(Z)-2-丁烯二酸单甲酯;",
    "alternate_name": "2-Butenedioic acid (2<em>Z</em>)-, 1-methyl ester;Maleic acid, monomethyl ester;2-Butenedioic acid (<em>Z</em>)-, monomethyl ester;Maleic acid, methyl ester;2-Butenedioic acid (2<em>Z</em>)-, monomethyl ester;Methyl hydrogen maleate;Monomethyl maleate;Hydrogen methyl maleate;Monomethyl (<em>Z</em>)-2-butenedioate;Monomethyl (2<em>Z</em>)-2-butenedioate;Methyl hydrogen (2<em>Z</em>)-2-butendioate;(Z)-4-Methoxy-4-oxobut-2-enoic acid;(<em>Z</em>)-4-Methoxy-4-oxobut-2-enoic acid",
    "duplicated_cas_no": "",
    "SMILES": "C(/C=C\\C(O)=O)(OC)=O",
    "meta_data": {
        "InChI": "InChI=1S/C5H6O4/c1-9-5(8)3-2-4(6)7/h2-3H,1H3,(H,6,7)/b3-2-",
        "InChIKey": null,
        "Canonical SMILES": "O=C(O)C=CC(=O)OC",
        "Molecular Formula": "C<sub>5</sub>H<sub>6</sub>O<sub>4</sub>",
        "Molecular Mass": "130.10",
        "Melting Point": "93 °C (decomp)",
        "Density": "1.2520 g/cm³ @ Temp: 20 °C"
    }
}