{
    "cas_no": "3114-70-3",
    "key_name": "1,4-Diaminocyclohexane",
    "cn_name": null,
    "alternate_name": "1,4-Cyclohexanediamine;Hexahydro-1,4-phenylenediamine;1,4-Diaminocyclohexane;1,4-Cyclohexylenediamine;4-Aminocyclohexylamine",
    "duplicated_cas_no": "",
    "SMILES": "NC1CCC(N)CC1",
    "meta_data": {
        "InChI": "InChI=1S/C6H14N2/c7-5-1-2-6(8)4-3-5/h5-6H,1-4,7-8H2",
        "InChIKey": null,
        "Canonical SMILES": "NC1CCC(N)CC1",
        "Molecular Formula": "C<sub>6</sub>H<sub>14</sub>N<sub>2</sub>",
        "Molecular Mass": "114.19",
        "Boiling Point": "90 °C @ Press: 22 Torr"
    }
}