{
    "cas_no": "2818-66-8",
    "key_name": "5-Amino-2-mercaptobenzimidazole",
    "cn_name": "5-氨基-2-巯基苯并咪唑;2-巯基-5-氨基苯并咪唑;",
    "alternate_name": "2<em>H</em>-Benzimidazole-2-thione, 5-amino-1,3-dihydro-;2-Benzimidazolethiol, 5-amino-;2-Benzimidazolethiol, 5(<em>or</em> 6)-amino-;5-Amino-1,3-dihydro-2<em>H</em>-benzimidazole-2-thione;5-Amino-2-mercaptobenzimidazole;5-Amino-2-benzimidazolethiol;6-Amino-2-mercaptobenzimidazole;NSC 3984;2-Mercapto-1<em>H</em>-benzo[<em>d</em>]imidazol-5-amine;5-Amino-1<em>H</em>-benzo[<em>d</em>]imidazole-2-thiol;2-Mercapto-5-aminobenzimidazole;2-Mercapto-1<em>H</em>-benzimidazol-5-amine",
    "duplicated_cas_no": "",
    "SMILES": "S=C1NC=2C(N1)=CC(N)=CC2",
    "meta_data": {
        "InChI": "InChI=1S/C7H7N3S/c8-4-1-2-5-6(3-4)10-7(11)9-5/h1-3H,8H2,(H2,9,10,11)",
        "InChIKey": null,
        "Canonical SMILES": "S=C1NC2=CC=C(N)C=C2N1",
        "Molecular Formula": "C<sub>7</sub>H<sub>7</sub>N<sub>3</sub>S",
        "Molecular Mass": "165.22",
        "Melting Point": "280 °C (decomp)"
    }
}