{
    "cas_no": "53905-13-8",
    "key_name": "3-(4-Hydroxy-3-methoxyphenyl)-<em>N</em>-[2-(1<em>H</em>-indol-3-yl)ethyl]-2-propenamide",
    "cn_name": null,
    "alternate_name": "2-Propenamide, 3-(4-hydroxy-3-methoxyphenyl)-<em>N</em>-[2-(1<em>H</em>-indol-3-yl)ethyl]-;3-(4-Hydroxy-3-methoxyphenyl)-<em>N</em>-[2-(1<em>H</em>-indol-3-yl)ethyl]-2-propenamide;<em>N</em>-Ferulyltryptamine",
    "duplicated_cas_no": "",
    "SMILES": "C(CNC(C=CC1=CC(OC)=C(O)C=C1)=O)C=2C=3C(NC2)=CC=CC3",
    "meta_data": {
        "InChI": "InChI=1S/C20H20N2O3/c1-25-19-12-14(6-8-18(19)23)7-9-20(24)21-11-10-15-13-22-17-5-3-2-4-16(15)17/h2-9,12-13,22-23H,10-11H2,1H3,(H,21,24)",
        "InChIKey": null,
        "Canonical SMILES": "O=C(C=CC1=CC=C(O)C(OC)=C1)NCCC2=CNC=3C=CC=CC32",
        "Molecular Formula": "C<sub>20</sub>H<sub>20</sub>N<sub>2</sub>O<sub>3</sub>",
        "Molecular Mass": "336.38",
        "Melting Point": "163-165 °C"
    }
}