{
    "cas_no": "629-45-8",
    "key_name": "Butyl disulfide",
    "cn_name": "二丁基二硫;",
    "alternate_name": "Disulfide, dibutyl;Butyl disulfide;Dibutyl disulfide;Di-<em>n</em>-butyl disulfide;5,6-Dithiadecane;<em>n</em>-Butyl disulfide;NSC 36626;1,2-Dibutyldisulfane;1-(Butyldisulfanyl)butane",
    "duplicated_cas_no": "",
    "SMILES": "S(SCCCC)CCCC",
    "meta_data": {
        "InChI": "InChI=1S/C8H18S2/c1-3-5-7-9-10-8-6-4-2/h3-8H2,1-2H3",
        "InChIKey": null,
        "Canonical SMILES": "S(SCCCC)CCCC",
        "Molecular Formula": "C<sub>8</sub>H<sub>18</sub>S<sub>2</sub>",
        "Molecular Mass": "178.36",
        "Boiling Point": "110-130 °C @ Press: 15 Torr",
        "Melting Point": "94.04 °C",
        "Density": "0.930 g/cm³ @ Temp: 20 °C"
    }
}