{
    "cas_no": "41862-11-7",
    "key_name": "6-Amino-1-benzyluracil",
    "cn_name": null,
    "alternate_name": "2,4(1<em>H</em>,3<em>H</em>)-Pyrimidinedione, 6-amino-1-(phenylmethyl)-;6-Amino-1-(phenylmethyl)-2,4(1<em>H</em>,3<em>H</em>)-pyrimidinedione;6-Amino-1-benzyluracil;6-Amino-1-benzyl-1,3-dihydropyrimidine-2,4-dione;NSC 70496",
    "duplicated_cas_no": "",
    "SMILES": "C(N1C(N)=CC(=O)NC1=O)C2=CC=CC=C2",
    "meta_data": {
        "InChI": "InChI=1S/C11H11N3O2/c12-9-6-10(15)13-11(16)14(9)7-8-4-2-1-3-5-8/h1-6H,7,12H2,(H,13,15,16)",
        "InChIKey": null,
        "Canonical SMILES": "O=C1C=C(N)N(C(=O)N1)CC=2C=CC=CC2",
        "Molecular Formula": "C<sub>11</sub>H<sub>11</sub>N<sub>3</sub>O<sub>2</sub>",
        "Molecular Mass": "217.22",
        "Melting Point": "285-286 °C"
    }
}