{
    "cas_no": "626-60-8",
    "key_name": "3-Chloropyridine",
    "cn_name": "3-氯吡啶;",
    "alternate_name": "Pyridine, 3-chloro-;3-Chloropyridine;<em>m</em>-Chloropyridine;NSC 60200;3-Pyridinyl chloride;3-Pyridyl chloride",
    "duplicated_cas_no": "",
    "SMILES": "ClC=1C=CC=NC1",
    "meta_data": {
        "InChI": "InChI=1S/C5H4ClN/c6-5-2-1-3-7-4-5/h1-4H",
        "InChIKey": null,
        "Canonical SMILES": "ClC=1C=NC=CC1",
        "Molecular Formula": "C<sub>5</sub>H<sub>4</sub>ClN",
        "Molecular Mass": "113.54",
        "Boiling Point": "148 °C",
        "Melting Point": "135 °C"
    }
}