{
    "cas_no": "2415-24-9",
    "key_name": "Catalpol",
    "cn_name": "梓醇;",
    "alternate_name": "β-<span class=\"text-smallcaps\">D</span>-Glucopyranoside, (1a<em>S</em>,1b<em>S</em>,2<em>S</em>,5a<em>R</em>,6<em>S</em>,6a<em>S</em>)-1a,1b,2,5a,6,6a-hexahydro-6-hydroxy-1a-(hydroxymethyl)oxireno[4,5]cyclopenta[1,2-<em>c</em>]pyran-2-yl;Catalpol;β-<span class=\"text-smallcaps\">D</span>-Glucopyranoside, 1a,1b,2,5a,6,6a-hexahydro-6-hydroxy-1a-(hydroxymethyl)oxireno[4,5]cyclopenta[1,2-<em>c</em>]pyran-2-yl, [1a<em>S</em>-(1aα,1bβ,2β,5aβ,6β,6aα)]-;(1a<em>S</em>,1b<em>S</em>,2<em>S</em>,5a<em>R</em>,6<em>S</em>,6a<em>S</em>)-1a,1b,2,5a,6,6a-Hexahydro-6-hydroxy-1a-(hydroxymethyl)oxireno[4,5]cyclopenta[1,2-<em>c</em>]pyran-2-yl β-<span class=\"text-smallcaps\">D</span>-glucopyranoside;Catalpinoside;De(<em>p</em>-hydroxybenzoyl)catalposide;Catapol;Aucubin 7,8-epoxide;7,8-Epoxyaucubin",
    "duplicated_cas_no": "27892-32-6;29856-95-9;849811-72-9",
    "SMILES": "C(O)[C@@]12[C@@]3([C@]([C@H](O)[C@@]1(O2)[H])(C=CO[C@H]3O[C@@H]4O[C@H](CO)[C@@H](O)[C@H](O)[C@H]4O)[H])[H]",
    "meta_data": {
        "InChI": "InChI=1S/C15H22O10/c16-3-6-9(19)10(20)11(21)14(23-6)24-13-7-5(1-2-22-13)8(18)12-15(7,4-17)25-12/h1-2,5-14,16-21H,3-4H2/t5-,6-,7-,8+,9-,10+,11-,12+,13+,14+,15-/m1/s1",
        "InChIKey": null,
        "Canonical SMILES": "OCC1OC(OC2OC=CC3C(O)C4OC4(CO)C23)C(O)C(O)C1O",
        "Molecular Formula": "C<sub>15</sub>H<sub>22</sub>O<sub>10</sub>",
        "Molecular Mass": "362.33",
        "Melting Point": "207 °C"
    }
}