{
    "cas_no": "1126-20-1",
    "key_name": "2-Allyloxyphenol",
    "cn_name": "2-(烯丙氧基)苯酚;2-(2-丙烯氧基)苯酚;邻烯丙氧基苯酚;",
    "alternate_name": "Phenol, 2-(2-propen-1-yloxy)-;Phenol, <em>o</em>-(allyloxy)-;Phenol, 2-(2-propenyloxy)-;2-(2-Propen-1-yloxy)phenol;<em>o</em>-(Allyloxy)phenol;Pyrocatechol monoallyl ether;2-Allyloxyphenol;<em>o</em>-Hydroxyphenyl 2-propenyl ether;Catechol monoallyl ether;2-(2-Propenyloxy)phenol;Allyl <em>o</em>-hydroxyphenyl ether;2-Prop-2-enoxyphenol",
    "duplicated_cas_no": "",
    "SMILES": "O(CC=C)C1=C(O)C=CC=C1",
    "meta_data": {
        "InChI": "InChI=1S/C9H10O2/c1-2-7-11-9-6-4-3-5-8(9)10/h2-6,10H,1,7H2",
        "InChIKey": null,
        "Canonical SMILES": "OC=1C=CC=CC1OCC=C",
        "Molecular Formula": "C<sub>9</sub>H<sub>10</sub>O<sub>2</sub>",
        "Molecular Mass": "150.17",
        "Boiling Point": "110 °C @ Press: 12 Torr",
        "Melting Point": "30.2 °C",
        "Density": "1.091 g/cm³ @ Temp: 15 °C"
    }
}