{
    "cas_no": "2509-26-4",
    "key_name": "1,1′-Oxybis[4-(methoxymethyl)benzene]",
    "cn_name": "4,4\"-二(甲氧基甲基)二苯醚;",
    "alternate_name": "Benzene, 1,1′-oxybis[4-(methoxymethyl)-;Ether, bis(α-methoxy-<em>p</em>-tolyl);1,1′-Oxybis[4-(methoxymethyl)benzene];4,4′-Bis(methoxymethyl)diphenyl ether;4,4′-Dimethoxymethyldiphenyl ether;1-(Methoxymethyl)-4-[4-(methoxymethyl)phenoxy]benzene",
    "duplicated_cas_no": "",
    "SMILES": "O(C1=CC=C(COC)C=C1)C2=CC=C(COC)C=C2",
    "meta_data": {
        "InChI": "InChI=1S/C16H18O3/c1-17-11-13-3-7-15(8-4-13)19-16-9-5-14(6-10-16)12-18-2/h3-10H,11-12H2,1-2H3",
        "InChIKey": null,
        "Canonical SMILES": "O(C1=CC=C(C=C1)COC)C2=CC=C(C=C2)COC",
        "Molecular Formula": "C<sub>16</sub>H<sub>18</sub>O<sub>3</sub>",
        "Molecular Mass": "258.31",
        "Boiling Point": "158-161 °C @ Press: 2 Torr",
        "Density": "1.1015 g/cm³ @ Temp: 20 °C"
    }
}