{
    "cas_no": "1166-52-5",
    "key_name": "Dodecyl gallate",
    "cn_name": null,
    "alternate_name": "Benzoic acid, 3,4,5-trihydroxy-, dodecyl ester;Gallic acid, dodecyl ester;Dodecyl gallate;Lauryl gallate;Nipagallin LA;Progallin LA;Lauryl 3,4,5-trihydroxybenzoate;Dodecyl 3,4,5-trihydroxybenzoate;Gallic acid lauryl ester;NSC 133463;E 312",
    "duplicated_cas_no": "149030-04-6",
    "SMILES": "C(OCCCCCCCCCCCC)(=O)C1=CC(O)=C(O)C(O)=C1",
    "meta_data": {
        "InChI": "InChI=1S/C19H30O5/c1-2-3-4-5-6-7-8-9-10-11-12-24-19(23)15-13-16(20)18(22)17(21)14-15/h13-14,20-22H,2-12H2,1H3",
        "InChIKey": null,
        "Canonical SMILES": "O=C(OCCCCCCCCCCCC)C1=CC(O)=C(O)C(O)=C1",
        "Molecular Formula": "C<sub>19</sub>H<sub>30</sub>O<sub>5</sub>",
        "Molecular Mass": "338.44",
        "Melting Point": "96.5-97 °C"
    }
}