{
    "cas_no": "81406-37-3",
    "key_name": "Attain A",
    "cn_name": "氟草烟1-甲基庚基酯;((4-氨基-3,5-二氯-6-氟-2-吡啶)氧基)-乙酸1-甲基庚基酯;",
    "alternate_name": "Acetic acid, 2-[(4-amino-3,5-dichloro-6-fluoro-2-pyridinyl)oxy]-, 1-methylheptyl ester;Acetic acid, [(4-amino-3,5-dichloro-6-fluoro-2-pyridinyl)oxy]-, 1-methylheptyl ester;Dowco 433;Starane 250;Starane;Starane 2;Fluroxypyr 1-methylheptyl ester;XRM 5084;Fluroxypyr meptyl;Tomahawk;Spotlight;Spotlight (pyridinoxyacetate herbicide);Fluroxypyr meptyl ester;Attain A;Starane 250EC;Trophy A;Starane Ultra",
    "duplicated_cas_no": "",
    "SMILES": "O(CC(OC(CCCCCC)C)=O)C1=C(Cl)C(N)=C(Cl)C(F)=N1",
    "meta_data": {
        "InChI": "InChI=1S/C15H21Cl2FN2O3/c1-3-4-5-6-7-9(2)23-10(21)8-22-15-12(17)13(19)11(16)14(18)20-15/h9H,3-8H2,1-2H3,(H2,19,20)",
        "InChIKey": null,
        "Canonical SMILES": "O=C(OC(C)CCCCCC)COC1=NC(F)=C(Cl)C(N)=C1Cl",
        "Molecular Formula": "C<sub>15</sub>H<sub>21</sub>Cl<sub>2</sub>FN<sub>2</sub>O<sub>3</sub>",
        "Molecular Mass": "367.24",
        "Melting Point": "59 °C"
    }
}