{
    "cas_no": "539-92-4",
    "key_name": "Diisobutyl carbonate",
    "cn_name": "碳酸二异丁酯;碳酸二异丁酯;",
    "alternate_name": "Carbonic acid, bis(2-methylpropyl) ester;Carbonic acid, diisobutyl ester;Isobutyl carbonate;Diisobutyl carbonate;NSC 4009",
    "duplicated_cas_no": "",
    "SMILES": "C(OCC(C)C)(OCC(C)C)=O",
    "meta_data": {
        "InChI": "InChI=1S/C9H18O3/c1-7(2)5-11-9(10)12-6-8(3)4/h7-8H,5-6H2,1-4H3",
        "InChIKey": null,
        "Canonical SMILES": "O=C(OCC(C)C)OCC(C)C",
        "Molecular Formula": "C<sub>9</sub>H<sub>18</sub>O<sub>3</sub>",
        "Molecular Mass": "174.24",
        "Boiling Point": "190 °C",
        "Density": "0.9130 g/cm³ @ Temp: 20 °C"
    }
}