{
    "cas_no": "173334-57-1",
    "key_name": "Aliskiren",
    "cn_name": "阿利克仑;(2S,4S,5S,7S)-5-氨基-N-(2-氨基甲酰基-2-甲基丙基)-4-羟基-2-异丙基-7-[4-甲氧基-3-(3-甲氧基丙;",
    "alternate_name": "Benzeneoctanamide, δ-amino-<em>N</em>-(3-amino-2,2-dimethyl-3-oxopropyl)-γ-hydroxy-4-methoxy-3-(3-methoxypropoxy)-α,ζ-bis(1-methylethyl)-, (α<em>S</em>,γ<em>S</em>,δ<em>S</em>,ζ<em>S</em>)-;Benzeneoctanamide, δ-amino-<em>N</em>-(3-amino-2,2-dimethyl-3-oxopropyl)-γ-hydroxy-4-methoxy-3-(3-methoxypropoxy)-α,ζ-bis(1-methylethyl)-, [α<em>S</em>-(α<em>R</em>*,γ<em>R</em>*,δ<em>R</em>*,ζ<em>R</em>*)]-;(α<em>S</em>,γ<em>S</em>,δ<em>S</em>,ζ<em>S</em>)-δ-Amino-<em>N</em>-(3-amino-2,2-dimethyl-3-oxopropyl)-γ-hydroxy-4-methoxy-3-(3-methoxypropoxy)-α,ζ-bis(1-methylethyl)benzeneoctanamide;CGP 60536;Aliskiren;CGP60536B;SPP 100;Tekturna;Rasilez;(2<em>S</em>,4<em>S</em>,5<em>S</em>,7<em>S</em>)-<em>N</em>-(2-Carbamoyl-2-methylpropyl)-5-amino-4-hydroxy-2,7-diisopropyl-8-[4-methoxy-3-(3-methoxypropoxy)phenyl]octanamide;Sprimeo;Riprazo;Enviage",
    "duplicated_cas_no": "401809-63-0;957114-21-5;1044931-14-7",
    "SMILES": "O(CCCOC)C1=C(OC)C=CC(C[C@@H](C[C@@H]([C@H](C[C@H](C(NCC(C(N)=O)(C)C)=O)C(C)C)O)N)C(C)C)=C1",
    "meta_data": {
        "InChI": "InChI=1S/C30H53N3O6/c1-19(2)22(14-21-10-11-26(38-8)27(15-21)39-13-9-12-37-7)16-24(31)25(34)17-23(20(3)4)28(35)33-18-30(5,6)29(32)36/h10-11,15,19-20,22-25,34H,9,12-14,16-18,31H2,1-8H3,(H2,32,36)(H,33,35)/t22-,23-,24-,25-/m0/s1",
        "InChIKey": null,
        "Canonical SMILES": "O=C(N)C(C)(C)CNC(=O)C(CC(O)C(N)CC(CC1=CC=C(OC)C(OCCCOC)=C1)C(C)C)C(C)C",
        "Molecular Formula": "C<sub>30</sub>H<sub>53</sub>N<sub>3</sub>O<sub>6</sub>",
        "Molecular Mass": "551.76",
        "Melting Point": "98-99 °C"
    }
}