{
    "cas_no": "1680-36-0",
    "key_name": "Nonanoic acid, 1,1′-anhydride",
    "cn_name": "壬酸酐;壬酸酐;",
    "alternate_name": "Nonanoic acid, 1,1′-anhydride;Nonanoic anhydride;Nonanoic acid, anhydride;Pelargonic anhydride",
    "duplicated_cas_no": "",
    "SMILES": "C(OC(CCCCCCCC)=O)(CCCCCCCC)=O",
    "meta_data": {
        "InChI": "InChI=1S/C18H34O3/c1-3-5-7-9-11-13-15-17(19)21-18(20)16-14-12-10-8-6-4-2/h3-16H2,1-2H3",
        "InChIKey": null,
        "Canonical SMILES": "O=C(OC(=O)CCCCCCCC)CCCCCCCC",
        "Molecular Formula": "C<sub>18</sub>H<sub>34</sub>O<sub>3</sub>",
        "Molecular Mass": "298.46",
        "Boiling Point": "90-94 °C",
        "Melting Point": "14.8 °C"
    }
}