{
    "cas_no": "88107-10-2",
    "key_name": "Tomelukast",
    "cn_name": null,
    "alternate_name": "Ethanone, 1-[2-hydroxy-3-propyl-4-[4-(2<em>H</em>-tetrazol-5-yl)butoxy]phenyl]-;Ethanone, 1-[2-hydroxy-3-propyl-4-[4-(1<em>H</em>-tetrazol-5-yl)butoxy]phenyl]-;1-[2-Hydroxy-3-propyl-4-[4-(2<em>H</em>-tetrazol-5-yl)butoxy]phenyl]ethanone;LY 171883;Tomelukast;1-[2-Hydroxy-3-propyl-4-[4-(1<em>H</em>-tetrazol-5-yl)butoxy]phenyl]ethanone",
    "duplicated_cas_no": "",
    "SMILES": "O(CCCCC=1NN=NN1)C2=C(CCC)C(O)=C(C(C)=O)C=C2",
    "meta_data": {
        "InChI": "InChI=1S/C16H22N4O3/c1-3-6-13-14(9-8-12(11(2)21)16(13)22)23-10-5-4-7-15-17-19-20-18-15/h8-9,22H,3-7,10H2,1-2H3,(H,17,18,19,20)",
        "InChIKey": null,
        "Canonical SMILES": "O=C(C1=CC=C(OCCCCC2=NN=NN2)C(=C1O)CCC)C",
        "Molecular Formula": "C<sub>16</sub>H<sub>22</sub>N<sub>4</sub>O<sub>3</sub>",
        "Molecular Mass": "318.37",
        "Melting Point": "113.5-115.0 °C"
    }
}