{
    "cas_no": "7647-15-6",
    "key_name": "Sodium bromide",
    "cn_name": "溴化钠;",
    "alternate_name": "Sodium bromide (NaBr);Sodium bromide;Sedoneural;NSC 77384;Sanibrom 40",
    "duplicated_cas_no": "59217-63-9",
    "SMILES": "Br[Na]",
    "meta_data": {
        "InChI": "InChI=1S/BrH.Na/h1H;/q;+1/p-1",
        "InChIKey": null,
        "Canonical SMILES": "[Na]Br",
        "Molecular Formula": "BrNa",
        "Molecular Mass": "",
        "Boiling Point": "1390 °C",
        "Melting Point": "755 °C",
        "Density": "3.21 g/cm³"
    }
}