{
    "cas_no": "376-73-8",
    "key_name": "Hexafluoroglutaric acid",
    "cn_name": "六氟戊二酸;全氟戊二酸;",
    "alternate_name": "Pentanedioic acid, 2,2,3,3,4,4-hexafluoro-;Glutaric acid, hexafluoro-;Pentanedioic acid, hexafluoro-;2,2,3,3,4,4-Hexafluoropentanedioic acid;Perfluoroglutaric acid;Hexafluoroglutaric acid;2,2,3,3,4,4-Hexafluoroglutaric acid;NSC 6826",
    "duplicated_cas_no": "",
    "SMILES": "C(C(C(O)=O)(F)F)(C(C(O)=O)(F)F)(F)F",
    "meta_data": {
        "InChI": "InChI=1S/C5H2F6O4/c6-3(7,1(12)13)5(10,11)4(8,9)2(14)15/h(H,12,13)(H,14,15)",
        "InChIKey": null,
        "Canonical SMILES": "O=C(O)C(F)(F)C(F)(F)C(F)(F)C(=O)O",
        "Molecular Formula": "C<sub>5</sub>H<sub>2</sub>F<sub>6</sub>O<sub>4</sub>",
        "Molecular Mass": "240.06",
        "Boiling Point": "134 °C",
        "Melting Point": "80 °C"
    }
}