{
    "cas_no": "36437-30-6",
    "key_name": "1,1′-Dioctyl-4,4′-bipyridinium dibromide",
    "cn_name": null,
    "alternate_name": "4,4′-Bipyridinium, 1,1′-dioctyl-, bromide (1:2);4,4′-Bipyridinium, 1,1′-dioctyl-, dibromide;Octylviologen bromide;1,1′-Dioctyl-4,4′-bipyridinium dibromide;1,1′-Dioctyl-4,4′-bipyridinium(2+) dibromide;1,1′-Di-<em>n</em>-octyl-4,4′-bipyridinium dibromide",
    "duplicated_cas_no": "",
    "SMILES": "C(CCCCCCC)[N+]=1C=CC(=CC1)C=2C=C[N+](CCCCCCCC)=CC2.[Br-]",
    "meta_data": {
        "InChI": "InChI=1S/C26H42N2.2BrH/c1-3-5-7-9-11-13-19-27-21-15-25(16-22-27)26-17-23-28(24-18-26)20-14-12-10-8-6-4-2;;/h15-18,21-24H,3-14,19-20H2,1-2H3;2*1H/q+2;;/p-2",
        "InChIKey": null,
        "Canonical SMILES": "[Br-].C=1C=[N+](C=CC1C=2C=C[N+](=CC2)CCCCCCCC)CCCCCCCC",
        "Molecular Formula": "C<sub>26</sub>H<sub>42</sub>N<sub>2</sub>.2Br",
        "Molecular Mass": "",
        "Melting Point": "300-301 °C (decomp)"
    }
}