{
    "cas_no": "37910-77-3",
    "key_name": "Ethyl erucate",
    "cn_name": null,
    "alternate_name": "13-Docosenoic acid, ethyl ester, (13<em>Z</em>)-;13-Docosenoic acid, ethyl ester, (<em>Z</em>)-;Ethyl erucate;(<em>Z</em>)-13-Docosenoic acid ethyl ester;Erucic acid ethyl ester;Ethyl (<em>Z</em>)-13-docosenoate",
    "duplicated_cas_no": "6045-37-0",
    "SMILES": "C(CCCCCCCC/C=C\\CCCCCCCC)CCC(OCC)=O",
    "meta_data": {
        "InChI": "InChI=1S/C24H46O2/c1-3-5-6-7-8-9-10-11-12-13-14-15-16-17-18-19-20-21-22-23-24(25)26-4-2/h11-12H,3-10,13-23H2,1-2H3/b12-11-",
        "InChIKey": null,
        "Canonical SMILES": "O=C(OCC)CCCCCCCCCCCC=CCCCCCCCC",
        "Molecular Formula": "C<sub>24</sub>H<sub>46</sub>O<sub>2</sub>",
        "Molecular Mass": "366.62",
        "Boiling Point": "229-230 °C",
        "Melting Point": "34 °C",
        "Density": "0.8648 g/cm³ @ Temp: 20 °C"
    }
}