{
    "cas_no": "220551-92-8",
    "key_name": "<em>N</em>-(2,5-Dimethoxybenzyl)-<em>N</em>-(5-fluoro-2-phenoxyphenyl)acetamide",
    "cn_name": null,
    "alternate_name": "Acetamide, <em>N</em>-[(2,5-dimethoxyphenyl)methyl]-<em>N</em>-(5-fluoro-2-phenoxyphenyl)-;<em>N</em>-[(2,5-Dimethoxyphenyl)methyl]-<em>N</em>-(5-fluoro-2-phenoxyphenyl)acetamide;DAA 1106;<em>N</em>-(2,5-Dimethoxybenzyl)-<em>N</em>-(5-fluoro-2-phenoxyphenyl)acetamide",
    "duplicated_cas_no": "",
    "SMILES": "N(CC1=C(OC)C=CC(OC)=C1)(C(C)=O)C2=C(OC3=CC=CC=C3)C=CC(F)=C2",
    "meta_data": {
        "InChI": "InChI=1S/C23H22FNO4/c1-16(26)25(15-17-13-20(27-2)10-12-22(17)28-3)21-14-18(24)9-11-23(21)29-19-7-5-4-6-8-19/h4-14H,15H2,1-3H3",
        "InChIKey": null,
        "Canonical SMILES": "O=C(N(C1=CC(F)=CC=C1OC=2C=CC=CC2)CC3=CC(OC)=CC=C3OC)C",
        "Molecular Formula": "C<sub>23</sub>H<sub>22</sub>FNO<sub>4</sub>",
        "Molecular Mass": "395.42",
        "Melting Point": "92.5-93.5 °C"
    }
}