{
    "cas_no": "538-28-3",
    "key_name": "Benzylisothiourea hydrochloride",
    "cn_name": "S-苄基硫脲盐酸盐;苄基异硫脲盐酸盐;",
    "alternate_name": "Carbamimidothioic acid, phenylmethyl ester, hydrochloride (1:1);Pseudourea, 2-benzyl-2-thio-, monohydrochloride;Carbamimidothioic acid, phenylmethyl ester, monohydrochloride;Pseudourea, 2-benzyl-2-thio-, hydrochloride;Benzylisothiourea hydrochloride;Benzylisothiuronium chloride;<em>S</em>-Benzylthiuronium chloride;BTKh;Benzylisothiouronium chloride;<em>S</em>-Benzylthiouronium chloride;<em>S</em>-Benzylisothiuronium chloride;<em>S</em>-Benzylisothiourea hydrochloride;<em>S</em>-Benzylthiopseudourea hydrochloride;<em>S</em>-Benzylthioformamidine hydrochloride;<em>S</em>-Benzylthiourea hydrochloride;<em>S</em>-Benzylisothiouronium hydrochloride;<em>S</em>-Benzylisothiouronium chloride;U 19451A;2-Benzyl-2-thiopseudourea hydrochloride;Benzituron;Benzyl carbamimidothioate hydrochloride;(Benzylsulfanyl)methanimidamide hydrochloride;(Benzylsulfanyl)(imino)methanaminium chloride",
    "duplicated_cas_no": "860511-29-1",
    "SMILES": "C(SC(=N)N)C1=CC=CC=C1.Cl",
    "meta_data": {
        "InChI": "InChI=1S/C8H10N2S.ClH/c9-8(10)11-6-7-4-2-1-3-5-7;/h1-5H,6H2,(H3,9,10);1H",
        "InChIKey": null,
        "Canonical SMILES": "Cl.N=C(SCC=1C=CC=CC1)N",
        "Molecular Formula": "C<sub>8</sub>H<sub>10</sub>N<sub>2</sub>S.ClH",
        "Molecular Mass": "",
        "Melting Point": "173 °C"
    }
}