{
    "cas_no": "4890-85-1",
    "key_name": "2-(2-Phenylethyl)benzoic acid",
    "cn_name": "2-苯乙基苯甲酸;",
    "alternate_name": "Benzoic acid, 2-(2-phenylethyl)-;Benzoic acid, <em>o</em>-phenethyl-;2-(2-Phenylethyl)benzoic acid;<em>o</em>-Phenethylbenzoic acid;2-(2-Phenethyl)benzoic acid;2-(Phenethyl)benzoic acid;2-Bibenzylcarboxylic acid",
    "duplicated_cas_no": "",
    "SMILES": "C(CC1=CC=CC=C1)C2=C(C(O)=O)C=CC=C2",
    "meta_data": {
        "InChI": "InChI=1S/C15H14O2/c16-15(17)14-9-5-4-8-13(14)11-10-12-6-2-1-3-7-12/h1-9H,10-11H2,(H,16,17)",
        "InChIKey": null,
        "Canonical SMILES": "O=C(O)C=1C=CC=CC1CCC=2C=CC=CC2",
        "Molecular Formula": "C<sub>15</sub>H<sub>14</sub>O<sub>2</sub>",
        "Molecular Mass": "226.27",
        "Melting Point": "130 °C"
    }
}