{
    "cas_no": "88182-33-6",
    "key_name": "Levistolide A",
    "cn_name": null,
    "alternate_name": "1<em>H</em>-5,10c-Ethanonaphtho[1,2-<em>c</em>:7,8-<em>c</em>′]difuran-3,10-dione, 1,8-dibutylidene-5,5a,6,7,8,10b-hexahydro-, (1<em>Z</em>,5<em>S</em>,5a<em>S</em>,8<em>Z</em>,10b<em>S</em>,10c<em>S</em>)-;1<em>H</em>-5,10c-Ethanonaphtho[1,2-<em>c</em>:7,8-<em>c</em>′]difuran-3,10-dione, 1,8-dibutylidene-5,5a,6,7,8,10b-hexahydro-, [5<em>S</em>-(1<em>Z</em>,5α,5aα,8<em>Z</em>,10bα,10cα)]-;(1<em>Z</em>,5<em>S</em>,5a<em>S</em>,8<em>Z</em>,10b<em>S</em>,10c<em>S</em>)-1,8-Dibutylidene-5,5a,6,7,8,10b-hexahydro-1<em>H</em>-5,10c-ethanonaphtho[1,2-<em>c</em>:7,8-<em>c</em>′]difuran-3,10-dione;Diligustilide;(<em>Z</em>,<em>Z</em>)-Diligustilide;Levistolide A;<em>Z</em>,<em>Z</em>′-6,6′,7,3′a-Diligustilide;Levistolid A",
    "duplicated_cas_no": "89708-23-6",
    "SMILES": "C(\\CCC)=C\\1/[C@@]23[C@]4(C5=C(\\C(=C\\CCC)\\OC5=O)CC[C@]4([C@@](C=C2C(=O)O1)(CC3)[H])[H])[H]",
    "meta_data": {
        "InChI": "InChI=1S/C24H28O4/c1-3-5-7-18-16-10-9-15-14-11-12-24(21(15)20(16)23(26)27-18)17(13-14)22(25)28-19(24)8-6-4-2/h7-8,13-15,21H,3-6,9-12H2,1-2H3/b18-7-,19-8-/t14-,15+,21-,24+/m1/s1",
        "InChIKey": null,
        "Canonical SMILES": "O=C1OC(=CCCC)C23C1=CC(CC2)C4CCC=5C(OC(=O)C5C43)=CCCC",
        "Molecular Formula": "C<sub>24</sub>H<sub>28</sub>O<sub>4</sub>",
        "Molecular Mass": "380.48",
        "Melting Point": "112-114 °C"
    }
}