{
    "cas_no": "38565-53-6",
    "key_name": "2-(2,2,3,3,4,4,5,5,6,6,7,7,8,8,9,9,9-Heptadecafluorononyl)oxirane",
    "cn_name": null,
    "alternate_name": "Oxirane, 2-(2,2,3,3,4,4,5,5,6,6,7,7,8,8,9,9,9-heptadecafluorononyl)-;Oxirane, (2,2,3,3,4,4,5,5,6,6,7,7,8,8,9,9,9-heptadecafluorononyl)-;2-(2,2,3,3,4,4,5,5,6,6,7,7,8,8,9,9,9-Heptadecafluorononyl)oxirane;3-Perfluorooctyl-1,2-epoxypropane;(2,2,3,3,4,4,5,5,6,6,7,7,8,8,9,9,9-Heptadecafluorononyl)oxirane;1,2-Epoxy-4,4,5,5,6,6,7,7,8,8,9,9,10,10,11,11,11-heptadecafluoroundecane;3-(Perfluorooctyl)propylene oxide;3-(2-Perfluoro-<em>n</em>-octyl)-1,2-epoxypropane;H 010;3-Perfluorooctyl-1,2-propene oxide;1,2-Epoxy-1<em>H</em>,1<em>H</em>,2<em>H</em>,3<em>H</em>,3<em>H</em>-heptadecafluoroundecane;[(Perfluorooctyl)methyl]oxirane;3-Perfluorooctyl-1,2-propeneoxide;E 0462;T 8EP",
    "duplicated_cas_no": "131269-17-5",
    "SMILES": "C(C(C(C(C(F)(F)F)(F)F)(F)F)(F)F)(C(C(C(CC1CO1)(F)F)(F)F)(F)F)(F)F",
    "meta_data": {
        "InChI": "InChI=1S/C11H5F17O/c12-4(13,1-3-2-29-3)5(14,15)6(16,17)7(18,19)8(20,21)9(22,23)10(24,25)11(26,27)28/h3H,1-2H2",
        "InChIKey": null,
        "Canonical SMILES": "FC(F)(F)C(F)(F)C(F)(F)C(F)(F)C(F)(F)C(F)(F)C(F)(F)C(F)(F)CC1OC1",
        "Molecular Formula": "C<sub>11</sub>H<sub>5</sub>F<sub>17</sub>O",
        "Molecular Mass": "476.13",
        "Melting Point": "76-78 °C"
    }
}