{
    "cas_no": "27548-93-2",
    "key_name": "Baccatin III",
    "cn_name": null,
    "alternate_name": "7,11-Methano-5<em>H</em>-cyclodeca[3,4]benz[1,2-<em>b</em>]oxet-5-one, 6,12b-bis(acetyloxy)-12-(benzoyloxy)-1,2a,3,4,4a,6,9,10,11,12,12a,12b-dodecahydro-4,9,11-trihydroxy-4a,8,13,13-tetramethyl-, (2a<em>R</em>,4<em>S</em>,4a<em>S</em>,6<em>R</em>,9<em>S</em>,11<em>S</em>,12<em>S</em>,12a<em>R</em>,12b<em>S</em>)-;7,11-Methano-5<em>H</em>-cyclodeca[3,4]benz[1,2-<em>b</em>]oxet-5-one, 6,12b-bis(acetyloxy)-12-(benzoyloxy)-1,2a,3,4,4a,6,9,10,11,12,12a,12b-dodecahydro-4,9,11-trihydroxy-4a,8,13,13-tetramethyl-, [2a<em>R</em>-(2aα,4β,4aβ,6β,9α,11α,12α,12aα,12bα)]-;(2a<em>R</em>,4<em>S</em>,4a<em>S</em>,6<em>R</em>,9<em>S</em>,11<em>S</em>,12<em>S</em>,12a<em>R</em>,12b<em>S</em>)-6,12b-Bis(acetyloxy)-12-(benzoyloxy)-1,2a,3,4,4a,6,9,10,11,12,12a,12b-dodecahydro-4,9,11-trihydroxy-4a,8,13,13-tetramethyl-7,11-methano-5<em>H</em>-cyclodeca[3,4]benz[1,2-<em>b</em>]oxet-5-one;Baccatin III;NSC 330753",
    "duplicated_cas_no": "",
    "SMILES": "O(C(C)=O)[C@]12[C@]3([C@H](OC(=O)C4=CC=CC=C4)[C@@]5(O)C(C)(C)C([C@@H](OC(C)=O)C(=O)[C@]3(C)[C@@H](O)C[C@]1(OC2)[H])=C(C)[C@@H](O)C5)[H]",
    "meta_data": {
        "InChI": "InChI=1S/C31H38O11/c1-15-19(34)13-31(38)26(41-27(37)18-10-8-7-9-11-18)24-29(6,20(35)12-21-30(24,14-39-21)42-17(3)33)25(36)23(40-16(2)32)22(15)28(31,4)5/h7-11,19-21,23-24,26,34-35,38H,12-14H2,1-6H3/t19-,20-,21+,23+,24-,26-,29+,30-,31+/m0/s1",
        "InChIKey": null,
        "Canonical SMILES": "O=C(OC1C2C3(OC(=O)C)COC3CC(O)C2(C(=O)C(OC(=O)C)C4=C(C)C(O)CC1(O)C4(C)C)C)C=5C=CC=CC5",
        "Molecular Formula": "C<sub>31</sub>H<sub>38</sub>O<sub>11</sub>",
        "Molecular Mass": "586.63",
        "Melting Point": "243-245 °C"
    }
}