{
    "cas_no": "104-94-9",
    "key_name": "4-Methoxyaniline",
    "cn_name": "对甲氧基苯胺;对茴香胺;对氨基苯甲醚;",
    "alternate_name": "Benzenamine, 4-methoxy-;<em>p</em>-Anisidine;4-Methoxybenzenamine;<em>p</em>-Aminoanisole;4-Aminoanisole;<em>p</em>-Methoxyphenylamine;<em>p</em>-Anisylamine;4-Methoxyaniline;p-Anisidine;<em>p</em>-Methoxyaniline;1-Amino-4-methoxybenzene;<em>p</em>-Aminomethoxybenzene;4-Methoxyphenylamine;1,4-Anisidine;4-Aminomethoxybenzene;4-Methoxylaniline;Methyl 4-aminophenyl ether;Anisidine;NSC 7921;4-Methoxy-1-aminobenzene",
    "duplicated_cas_no": "1619933-04-8",
    "SMILES": "O(C)C1=CC=C(N)C=C1",
    "meta_data": {
        "InChI": "InChI=1S/C7H9NO/c1-9-7-4-2-6(8)3-5-7/h2-5H,8H2,1H3",
        "InChIKey": null,
        "Canonical SMILES": "O(C1=CC=C(N)C=C1)C",
        "Molecular Formula": "C<sub>7</sub>H<sub>9</sub>NO",
        "Molecular Mass": "123.15",
        "Boiling Point": "243 °C",
        "Melting Point": "57.2 °C",
        "Density": "1.071 g/cm³ @ Temp: 57 °C"
    }
}