{
    "cas_no": "15486-33-6",
    "key_name": "Kaempferol-7,4′-dimethyl ether",
    "cn_name": null,
    "alternate_name": "4<em>H</em>-1-Benzopyran-4-one, 3,5-dihydroxy-7-methoxy-2-(4-methoxyphenyl)-;Flavone, 3,5-dihydroxy-4′,7-dimethoxy-;3,5-Dihydroxy-7-methoxy-2-(4-methoxyphenyl)-4<em>H</em>-1-benzopyran-4-one;3,5-Dihydroxy-7,4′-dimethoxyflavone;3,5-Dihydroxy-4′,7-dimethoxyflavone;4′,7-Dimethylkaempferol;Kaempferol 4′,7-dimethyl ether;Kaempferol-7,4′-dimethyl ether;7,4′-Di-<em>O</em>-methylkaempferol;7,4′-Dimethoxykaempferol;7,4′-Dimethylkaempferol;4′,7-Dimethoxykaempferol;3,5-Dihydroxy-7-methoxy-2-(4-methoxyphenyl)-4<em>H</em>-chromen-4-one;3,5-Dihydroxy-7-methoxy-2-(4-methoxyphenyl)chromen-4-one",
    "duplicated_cas_no": "",
    "SMILES": "O=C1C=2C(OC(=C1O)C3=CC=C(OC)C=C3)=CC(OC)=CC2O",
    "meta_data": {
        "InChI": "InChI=1S/C17H14O6/c1-21-10-5-3-9(4-6-10)17-16(20)15(19)14-12(18)7-11(22-2)8-13(14)23-17/h3-8,18,20H,1-2H3",
        "InChIKey": null,
        "Canonical SMILES": "O=C1C(O)=C(OC=2C=C(OC)C=C(O)C12)C=3C=CC(OC)=CC3",
        "Molecular Formula": "C<sub>17</sub>H<sub>14</sub>O<sub>6</sub>",
        "Molecular Mass": "314.29",
        "Melting Point": "180-182 °C"
    }
}