{
    "cas_no": "1501-26-4",
    "key_name": "Methyl 4-(chloroformyl)butyrate",
    "cn_name": "4-氯甲酰基丁酸甲酯;",
    "alternate_name": "Pentanoic acid, 5-chloro-5-oxo-, methyl ester;Butyric acid, 4-(chloroformyl)-, methyl ester;Methyl glutaryl chloride;γ-(Carbomethoxy)butyryl chloride;Methyl 4-(chloroformyl)butyrate;4-(Methoxycarbonyl)butyryl chloride;Glutaryl chloride methyl ester;4-(Carbomethoxy)butyryl chloride;Methyl 4-(chloroformyl)butanoate;4-(Carbomethoxy)butanoyl chloride;Methyl 5-chloro-5-oxopentanoate;Methyl glutaroyl chloride;Monomethyl glutaryl chloride;Glutaric acid monomethyl ester chloride;5-Chloro-5-oxopentanoic acid methyl ester;Methyl 5-chloro-5-oxovalerate;NSC 93892;4-(Chlorocarbonyl)butanoic acid methyl ester;4-Chlorocarbonylbutyric acid methyl ester;Methyl 4-(chlorocarbonyl)butanoate;4-(Chloroformyl)butyric acid methyl ester;5-Methoxy-5-oxopentanoyl chloride",
    "duplicated_cas_no": "139487-99-3",
    "SMILES": "C(CCCC(Cl)=O)(OC)=O",
    "meta_data": {
        "InChI": "InChI=1S/C6H9ClO3/c1-10-6(9)4-2-3-5(7)8/h2-4H2,1H3",
        "InChIKey": null,
        "Canonical SMILES": "O=C(Cl)CCCC(=O)OC",
        "Molecular Formula": "C<sub>6</sub>H<sub>9</sub>ClO<sub>3</sub>",
        "Molecular Mass": "164.59",
        "Boiling Point": "110 °C @ Press: 30 Torr"
    }
}