{
    "cas_no": "86-28-2",
    "key_name": "9-Ethylcarbazole",
    "cn_name": "N-乙基咔唑;",
    "alternate_name": "9<em>H</em>-Carbazole, 9-ethyl-;Carbazole, 9-ethyl-;9-Ethyl-9<em>H</em>-carbazole;<em>N</em>-Ethylcarbazole;9-Ethylcarbazole;NSC 60585",
    "duplicated_cas_no": "2324893-63-0",
    "SMILES": "C(C)N1C=2C(C=3C1=CC=CC3)=CC=CC2",
    "meta_data": {
        "InChI": "InChI=1S/C14H13N/c1-2-15-13-9-5-3-7-11(13)12-8-4-6-10-14(12)15/h3-10H,2H2,1H3",
        "InChIKey": null,
        "Canonical SMILES": "C=1C=CC2=C(C1)C=3C=CC=CC3N2CC",
        "Molecular Formula": "C<sub>14</sub>H<sub>13</sub>N",
        "Molecular Mass": "195.26",
        "Boiling Point": "190 °C",
        "Melting Point": "68 °C",
        "Density": "1.06148 g/cm³ @ Temp: 75.000 °C"
    }
}