{
    "cas_no": "488-81-3",
    "key_name": "Ribitol",
    "cn_name": null,
    "alternate_name": "Ribitol;Adonitol;Adonite;Adonit;NSC 16868;<em>ribo</em>-Pentitol;MeSH ID: D012255;BBP 418",
    "duplicated_cas_no": "28296-13-1;84709-28-4",
    "SMILES": "C(C(CO)O)(C(CO)O)O",
    "meta_data": {
        "InChI": "InChI=1S/C5H12O5/c6-1-3(8)5(10)4(9)2-7/h3-10H,1-2H2",
        "InChIKey": null,
        "Canonical SMILES": "OCC(O)C(O)C(O)CO",
        "Molecular Formula": "C<sub>5</sub>H<sub>12</sub>O<sub>5</sub>",
        "Molecular Mass": "152.15",
        "Melting Point": "104 °C",
        "Density": "1.088 g/cm³"
    }
}