{
    "cas_no": "55849-30-4",
    "key_name": "5-Bromo-2-ethoxypyridine",
    "cn_name": "5-溴-2-乙氧基吡啶;",
    "alternate_name": "Pyridine, 5-bromo-2-ethoxy-;5-Bromo-2-ethoxypyridine;3-Bromo-6-ethoxypyridine;6-Ethoxypyridin-3-yl bromide",
    "duplicated_cas_no": "",
    "SMILES": "O(CC)C1=CC=C(Br)C=N1",
    "meta_data": {
        "InChI": "InChI=1S/C7H8BrNO/c1-2-10-7-4-3-6(8)5-9-7/h3-5H,2H2,1H3",
        "InChIKey": null,
        "Canonical SMILES": "BrC1=CN=C(OCC)C=C1",
        "Molecular Formula": "C<sub>7</sub>H<sub>8</sub>BrNO",
        "Molecular Mass": "202.05",
        "Melting Point": "25 °C"
    }
}