{
    "cas_no": "2305-26-2",
    "key_name": "<em>rel</em>-(1<em>R</em>,2<em>S</em>)-4-Cyclohexene-1,2-dicarboxylic acid",
    "cn_name": "顺-4-环己烯-1,2-二羧酸;",
    "alternate_name": "4-Cyclohexene-1,2-dicarboxylic acid, (1<em>R</em>,2<em>S</em>)-<em>rel</em>-;4-Cyclohexene-1,2-dicarboxylic acid, <em>cis</em>-;<em>rel</em>-(1<em>R</em>,2<em>S</em>)-4-Cyclohexene-1,2-dicarboxylic acid;<em>cis</em>-4-Cyclohexene-1,2-dicarboxylic acid;1-Cyclohexene-4,5-<em>cis</em>-dicarboxylic acid;<em>cis</em>-Δ<sup>4</sup>-Tetrahydrophthalic acid;<em>cis</em>-Δ<sup>4</sup>-Cyclohexene-1,2-dicarboxylic acid;<em>cis</em>-Cyclohexene-4,5-dicarboxylic acid;<em>cis</em>-1,2,3,6-Tetrahydrophthalic acid;<em>cis</em>-1,2-Cyclohex-4-enedicarboxylic acid",
    "duplicated_cas_no": "207518-96-5",
    "SMILES": "C(O)(=O)[C@H]1[C@@H](C(O)=O)CC=CC1",
    "meta_data": {
        "InChI": "InChI=1/C8H10O4/c9-7(10)5-3-1-2-4-6(5)8(11)12/h1-2,5-6H,3-4H2,(H,9,10)(H,11,12)/t5-,6+",
        "InChIKey": null,
        "Canonical SMILES": "O=C(O)C1CC=CCC1C(=O)O",
        "Molecular Formula": "C<sub>8</sub>H<sub>10</sub>O<sub>4</sub>",
        "Molecular Mass": "170.16",
        "Boiling Point": "106-107 °C @ Press: 0.1 Torr",
        "Melting Point": "166 °C"
    }
}