{
    "cas_no": "5339-26-4",
    "key_name": "4-Nitrophenethyl bromide",
    "cn_name": "4-硝基苯乙基溴;",
    "alternate_name": "Benzene, 1-(2-bromoethyl)-4-nitro-;1-(2-Bromoethyl)-4-nitrobenzene;<em>p</em>-Nitrophenethyl bromide;2-(4-Nitrophenyl)ethyl bromide;β-(<em>p</em>-Nitrophenyl)ethyl bromide;4-(2-Bromoethyl)nitrobenzene;4-Nitrophenethyl bromide;2-(<em>p</em>-Nitrophenyl)ethyl bromide;1-Bromo-2-(4-nitrophenyl)ethane;2-(4-Nitrophenyl)-1-bromoethane;NSC 100730;NSC 3493;4-(2-Bromoethyl)-1-nitrobenzene",
    "duplicated_cas_no": "",
    "SMILES": "N(=O)(=O)C1=CC=C(CCBr)C=C1",
    "meta_data": {
        "InChI": "InChI=1S/C8H8BrNO2/c9-6-5-7-1-3-8(4-2-7)10(11)12/h1-4H,5-6H2",
        "InChIKey": null,
        "Canonical SMILES": "O=N(=O)C1=CC=C(C=C1)CCBr",
        "Molecular Formula": "C<sub>8</sub>H<sub>8</sub>BrNO<sub>2</sub>",
        "Molecular Mass": "230.06",
        "Boiling Point": "112-120 °C @ Press: 0.2 Torr",
        "Melting Point": "68 °C"
    }
}