{
    "cas_no": "3443-28-5",
    "key_name": "Prudomestin",
    "cn_name": null,
    "alternate_name": "4<em>H</em>-1-Benzopyran-4-one, 3,5,7-trihydroxy-8-methoxy-2-(4-methoxyphenyl)-;Flavone, 3,5,7-trihydroxy-4′,8-dimethoxy-;3,5,7-Trihydroxy-8-methoxy-2-(4-methoxyphenyl)-4<em>H</em>-1-benzopyran-4-one;Prudomestin;Herbacetin 8,4′-dimethyl ether;3,5,7-Trihydroxy-8,4′-dimethoxyflavone",
    "duplicated_cas_no": "",
    "SMILES": "O(C)C1=C2C(C(=O)C(O)=C(O2)C3=CC=C(OC)C=C3)=C(O)C=C1O",
    "meta_data": {
        "InChI": "InChI=1S/C17H14O7/c1-22-9-5-3-8(4-6-9)15-14(21)13(20)12-10(18)7-11(19)16(23-2)17(12)24-15/h3-7,18-19,21H,1-2H3",
        "InChIKey": null,
        "Canonical SMILES": "O=C1C(O)=C(OC=2C(OC)=C(O)C=C(O)C12)C=3C=CC(OC)=CC3",
        "Molecular Formula": "C<sub>17</sub>H<sub>14</sub>O<sub>7</sub>",
        "Molecular Mass": "330.29",
        "Melting Point": "209-210 °C"
    }
}