{
    "cas_no": "623-46-1",
    "key_name": "1,2-Dichloro-1-ethoxyethane",
    "cn_name": "1,2-二氯乙氧基乙烷;",
    "alternate_name": "Ethane, 1,2-dichloro-1-ethoxy-;Ether, 1,2-dichloroethyl ethyl;1,2-Dichloro-1-ethoxyethane;1,2-Dichloroethyl ethyl ether;1,2-Dichloro-2-ethoxyethane;α,β-Dichloroethyl ethyl ether;NSC 163477",
    "duplicated_cas_no": "",
    "SMILES": "C(OCC)(CCl)Cl",
    "meta_data": {
        "InChI": "InChI=1S/C4H8Cl2O/c1-2-7-4(6)3-5/h4H,2-3H2,1H3",
        "InChIKey": null,
        "Canonical SMILES": "ClCC(Cl)OCC",
        "Molecular Formula": "C<sub>4</sub>H<sub>8</sub>Cl<sub>2</sub>O",
        "Molecular Mass": "143.01",
        "Boiling Point": "145 °C",
        "Density": "1.1870 g/cm³ @ Temp: 20 °C"
    }
}