{
    "cas_no": "198561-87-4",
    "key_name": "9<em>H</em>-Fluoren-9-ylmethyl <em>N</em>-[(1<em>R</em>)-2-(1,1-dimethylethoxy)-1-(hydroxymethyl)ethyl]carbamate",
    "cn_name": null,
    "alternate_name": "Carbamic acid, <em>N</em>-[(1<em>R</em>)-2-(1,1-dimethylethoxy)-1-(hydroxymethyl)ethyl]-, 9<em>H</em>-fluoren-9-ylmethyl ester;Carbamic acid, [2-(1,1-dimethylethoxy)-1-(hydroxymethyl)ethyl]-, 9<em>H</em>-fluoren-9-ylmethyl ester, (<em>R</em>)-;Carbamic acid, [(1<em>R</em>)-2-(1,1-dimethylethoxy)-1-(hydroxymethyl)ethyl]-, 9<em>H</em>-fluoren-9-ylmethyl ester;9<em>H</em>-Fluoren-9-ylmethyl <em>N</em>-[(1<em>R</em>)-2-(1,1-dimethylethoxy)-1-(hydroxymethyl)ethyl]carbamate",
    "duplicated_cas_no": "",
    "SMILES": "C(OC(N[C@@H](COC(C)(C)C)CO)=O)C1C=2C(C=3C1=CC=CC3)=CC=CC2",
    "meta_data": {
        "InChI": "InChI=1S/C22H27NO4/c1-22(2,3)27-13-15(12-24)23-21(25)26-14-20-18-10-6-4-8-16(18)17-9-5-7-11-19(17)20/h4-11,15,20,24H,12-14H2,1-3H3,(H,23,25)/t15-/m1/s1",
        "InChIKey": null,
        "Canonical SMILES": "O=C(OCC1C=2C=CC=CC2C=3C=CC=CC31)NC(CO)COC(C)(C)C",
        "Molecular Formula": "C<sub>22</sub>H<sub>27</sub>NO<sub>4</sub>",
        "Molecular Mass": "369.45",
        "Melting Point": "95-97 °C"
    }
}