{
    "cas_no": "10049-07-7",
    "key_name": "Rhodium trichloride",
    "cn_name": "氯化铑;",
    "alternate_name": "Rhodium chloride (RhCl<sub>3</sub>);Rhodium trichloride;Rhodium chloride;Trichlororhodium;Rhodium(III) chloride;Rhodium(3+) chloride",
    "duplicated_cas_no": "",
    "SMILES": "[Rh](Cl)(Cl)Cl",
    "meta_data": {
        "InChI": "InChI=1S/3ClH.Rh/h3*1H;/q;;;+3/p-3",
        "InChIKey": null,
        "Canonical SMILES": "Cl[Rh](Cl)Cl",
        "Molecular Formula": "Cl<sub>3</sub>Rh",
        "Molecular Mass": "",
        "Melting Point": "680-700 °C"
    }
}