{
    "cas_no": "481-74-3",
    "key_name": "Chrysophanol",
    "cn_name": "大黄酚;1,8-二羟基-3-甲基蒽醌;",
    "alternate_name": "9,10-Anthracenedione, 1,8-dihydroxy-3-methyl-;Anthraquinone, 1,8-dihydroxy-3-methyl-;1,8-Dihydroxy-3-methyl-9,10-anthracenedione;C.I. 75400;Chrysophanic acid;Chrysophanol;C.I. Natural Yellow 23;1,8-Dihydroxy-3-methylanthraquinone;3-Methylchrysazin;3-Methyl-1,8-dihydroxyanthraquinone;Turkey Rhubarb;2-Methyl-4,5-dihydroxyanthraquinone;4,5-Dihydroxy-2-methylanthraquinone;1,8-Dihydroxy-3-methyl-9,10-anthraquinone;NSC 37132;NSC 646567",
    "duplicated_cas_no": "",
    "SMILES": "O=C1C=2C(C(=O)C=3C1=CC=CC3O)=C(O)C=C(C)C2",
    "meta_data": {
        "InChI": "InChI=1S/C15H10O4/c1-7-5-9-13(11(17)6-7)15(19)12-8(14(9)18)3-2-4-10(12)16/h2-6,16-17H,1H3",
        "InChIKey": null,
        "Canonical SMILES": "O=C1C=2C=CC=C(O)C2C(=O)C3=C(O)C=C(C=C13)C",
        "Molecular Formula": "C<sub>15</sub>H<sub>10</sub>O<sub>4</sub>",
        "Molecular Mass": "254.24",
        "Boiling Point": "60-80 °C",
        "Melting Point": "196 °C"
    }
}