{
    "cas_no": "70298-89-4",
    "key_name": "<em>N</em>-(Pyridin-4-yl)pivalamide",
    "cn_name": "2，2-二甲基-N-（4-吡啶基）丙酰胺;",
    "alternate_name": "Propanamide, 2,2-dimethyl-<em>N</em>-4-pyridinyl-;2,2-Dimethyl-<em>N</em>-4-pyridinylpropanamide;4-(<em>tert</em>-Butylcarbonylamino)pyridine;2,2-Dimethyl-<em>N</em>-(4-pyridinyl)propanamide;NSC 206407;4-(Pivaloylamino)pyridine;<em>N</em>-(Pyridin-4-yl)pivalamide",
    "duplicated_cas_no": "",
    "SMILES": "N(C(C(C)(C)C)=O)C=1C=CN=CC1",
    "meta_data": {
        "InChI": "InChI=1S/C10H14N2O/c1-10(2,3)9(13)12-8-4-6-11-7-5-8/h4-7H,1-3H3,(H,11,12,13)",
        "InChIKey": null,
        "Canonical SMILES": "O=C(NC=1C=CN=CC1)C(C)(C)C",
        "Molecular Formula": "C<sub>10</sub>H<sub>14</sub>N<sub>2</sub>O",
        "Molecular Mass": "178.23",
        "Melting Point": "133-135 °C"
    }
}