{
    "cas_no": "88-10-8",
    "key_name": "Diethylcarbamoyl chloride",
    "cn_name": "N,N-二乙基氯甲酰胺;二乙氨基甲酰氯;",
    "alternate_name": "Carbamic chloride, <em>N</em>,<em>N</em>-diethyl-;Carbamoyl chloride, diethyl-;Carbamic chloride, diethyl-;<em>N</em>,<em>N</em>-Diethylcarbamic chloride;Diethylcarbamoyl chloride;<em>N</em>,<em>N</em>-Diethylcarbamoyl chloride;Diethylcarbamyl chloride;<em>N</em>,<em>N</em>-Diethylchloroformamide;(Diethylamino)carbonyl chloride;NSC 223067;<em>N</em>-(Chlorocarbonyl)diethylamine",
    "duplicated_cas_no": "",
    "SMILES": "N(C(Cl)=O)(CC)CC",
    "meta_data": {
        "InChI": "InChI=1S/C5H10ClNO/c1-3-7(4-2)5(6)8/h3-4H2,1-2H3",
        "InChIKey": null,
        "Canonical SMILES": "O=C(Cl)N(CC)CC",
        "Molecular Formula": "C<sub>5</sub>H<sub>10</sub>ClNO",
        "Molecular Mass": "135.59",
        "Boiling Point": "186 °C",
        "Melting Point": "-32 °C",
        "Density": "1.0712 g/cm³ @ Temp: 20 °C"
    }
}