{
    "cas_no": "3435-25-4",
    "key_name": "4-Chloro-6-methylpyrimidine",
    "cn_name": "4-氯-6-甲基嘧啶;",
    "alternate_name": "Pyrimidine, 4-chloro-6-methyl-;4-Chloro-6-methylpyrimidine;6-Chloro-4-methylpyrimidine",
    "duplicated_cas_no": "",
    "SMILES": "CC=1C=C(Cl)N=CN1",
    "meta_data": {
        "InChI": "InChI=1S/C5H5ClN2/c1-4-2-5(6)8-3-7-4/h2-3H,1H3",
        "InChIKey": null,
        "Canonical SMILES": "ClC1=NC=NC(=C1)C",
        "Molecular Formula": "C<sub>5</sub>H<sub>5</sub>ClN<sub>2</sub>",
        "Molecular Mass": "128.56",
        "Boiling Point": "59-62 °C @ Press: 22 Torr",
        "Melting Point": "37 °C"
    }
}