{
    "cas_no": "132131-24-9",
    "key_name": "2-Amino-5-iodobenzonitrile",
    "cn_name": null,
    "alternate_name": "Benzonitrile, 2-amino-5-iodo-;2-Amino-5-iodobenzonitrile;2-Cyano-4-iodoaniline",
    "duplicated_cas_no": "",
    "SMILES": "C(#N)C1=C(N)C=CC(I)=C1",
    "meta_data": {
        "InChI": "InChI=1S/C7H5IN2/c8-6-1-2-7(10)5(3-6)4-9/h1-3H,10H2",
        "InChIKey": null,
        "Canonical SMILES": "N#CC1=CC(I)=CC=C1N",
        "Molecular Formula": "C<sub>7</sub>H<sub>5</sub>IN<sub>2</sub>",
        "Molecular Mass": "244.03",
        "Melting Point": "85-86 °C"
    }
}