{
    "cas_no": "105-46-4",
    "key_name": "<em>sec</em>-Butyl acetate",
    "cn_name": "乙酸仲丁酯;1-甲基丙基乙酸酯;",
    "alternate_name": "Acetic acid, 1-methylpropyl ester;<em>sec</em>-Butyl alcohol acetate;Acetic acid, <em>sec</em>-butyl ester;<em>sec</em>-Butyl alcohol, ester with AcOH;<em>sec</em>-Butyl acetate;2-Butyl acetate;1-Methylpropyl acetate;2-Acetoxybutane;(±)-<em>sec</em>-Butyl acetate;(±)-2-Butyl acetate;NSC 8034;<em>sec</em>-Butyl ethanoate;Ultrasolve M 1200;Acetic acid sec-butyl ester",
    "duplicated_cas_no": "116698-48-7",
    "SMILES": "C(OC(C)=O)(CC)C",
    "meta_data": {
        "InChI": "InChI=1S/C6H12O2/c1-4-5(2)8-6(3)7/h5H,4H2,1-3H3",
        "InChIKey": null,
        "Canonical SMILES": "O=C(OC(C)CC)C",
        "Molecular Formula": "C<sub>6</sub>H<sub>12</sub>O<sub>2</sub>",
        "Molecular Mass": "116.16",
        "Boiling Point": "112 °C",
        "Melting Point": "-98.9 °C",
        "Density": "0.8748 g/cm³ @ Temp: 20 °C"
    }
}