{
    "cas_no": "1949-45-7",
    "key_name": "Metrizoate",
    "cn_name": "甲泛影酸;3-乙酰氨基-5-[乙酰(甲基)氨基]-2,4,6-三碘苯甲酸;",
    "alternate_name": "Benzoic acid, 3-(acetylamino)-5-(acetylmethylamino)-2,4,6-triiodo-;Benzoic acid, 3-acetamido-2,4,6-triiodo-5-(<em>N</em>-methylacetamido)-;3-(Acetylamino)-5-(acetylmethylamino)-2,4,6-triiodobenzoic acid;3,5-Diacetamido-<em>N</em>-methyl-2,4,6-triiodobenzoic acid;Metrizoic acid;Metrizoate;3-Acetamido-5-[acetyl(methyl)amino]-2,4,6-triiodobenzoic acid;3-Acetamido-2,4,6-triiodo-5-(<em>N</em>-methylacetamido)benzoic acid",
    "duplicated_cas_no": "",
    "SMILES": "N(C(C)=O)(C)C1=C(I)C(NC(C)=O)=C(I)C(C(O)=O)=C1I",
    "meta_data": {
        "InChI": "InChI=1S/C12H11I3N2O4/c1-4(18)16-10-7(13)6(12(20)21)8(14)11(9(10)15)17(3)5(2)19/h1-3H3,(H,16,18)(H,20,21)",
        "InChIKey": null,
        "Canonical SMILES": "O=C(O)C1=C(I)C(NC(=O)C)=C(I)C(=C1I)N(C(=O)C)C",
        "Molecular Formula": "C<sub>12</sub>H<sub>11</sub>I<sub>3</sub>N<sub>2</sub>O<sub>4</sub>",
        "Molecular Mass": "627.94",
        "Melting Point": "281.5 °C"
    }
}