{
    "cas_no": "5397-31-9",
    "key_name": "3-[(2-Ethylhexyl)oxy]-1-propanamine",
    "cn_name": "3-异辛氧基丙胺;3-(2-乙基己氧基)丙胺;",
    "alternate_name": "1-Propanamine, 3-[(2-ethylhexyl)oxy]-;Propylamine, 3-[(2-ethylhexyl)oxy]-;3-[(2-Ethylhexyl)oxy]-1-propanamine;2-Ethylhexyl 3-aminopropyl ether;3-(2-Ethylhexoxy)propylamine;3-(2-Ethylhexyloxy)propylamine;3-(2-Ethylhexyloxy)-1-propanamine;3-Aminopropyl 2-ethylhexyl ether;PA 12EH;NSC 1078;Tomamine PA 12EH;2-Ethylhexyloxypropylamine",
    "duplicated_cas_no": "29714-54-3;76461-78-4;155634-20-1",
    "SMILES": "C(COCCCN)(CCCC)CC",
    "meta_data": {
        "InChI": "InChI=1S/C11H25NO/c1-3-5-7-11(4-2)10-13-9-6-8-12/h11H,3-10,12H2,1-2H3",
        "InChIKey": null,
        "Canonical SMILES": "O(CCCN)CC(CC)CCCC",
        "Molecular Formula": "C<sub>11</sub>H<sub>25</sub>NO",
        "Molecular Mass": "187.32",
        "Boiling Point": "74-77 °C @ Press: 0.5 Torr"
    }
}