{
    "cas_no": "29388-59-8",
    "key_name": "(-)-Secoisolariciresinol",
    "cn_name": null,
    "alternate_name": "1,4-Butanediol, 2,3-bis[(4-hydroxy-3-methoxyphenyl)methyl]-, (2<em>R</em>,3<em>R</em>)-;1,4-Butanediol, 2,3-divanillyl-, (-)-;1,4-Butanediol, 2,3-bis[(4-hydroxy-3-methoxyphenyl)methyl]-, [<em>R</em>-(<em>R</em>*,<em>R</em>*)]-;Secoisolariciresinol;(2<em>R</em>,3<em>R</em>)-2,3-Bis[(4-hydroxy-3-methoxyphenyl)methyl]-1,4-butanediol;(-)-Secoisolariciresinol;Secoisolariciresinol, (-)-;<em>seco</em>-Isolariciresinol;(8<em>R</em>,8′<em>R</em>)-(-)-Secoisolariciresinol;Secoisolarisiresinol;Knotolan",
    "duplicated_cas_no": "25327-50-8;54405-52-6",
    "SMILES": "C([C@H]([C@@H](CC1=CC(OC)=C(O)C=C1)CO)CO)C2=CC(OC)=C(O)C=C2",
    "meta_data": {
        "InChI": "InChI=1S/C20H26O6/c1-25-19-9-13(3-5-17(19)23)7-15(11-21)16(12-22)8-14-4-6-18(24)20(10-14)26-2/h3-6,9-10,15-16,21-24H,7-8,11-12H2,1-2H3/t15-,16-/m0/s1",
        "InChIKey": null,
        "Canonical SMILES": "OC1=CC=C(C=C1OC)CC(CO)C(CO)CC2=CC=C(O)C(OC)=C2",
        "Molecular Formula": "C<sub>20</sub>H<sub>26</sub>O<sub>6</sub>",
        "Molecular Mass": "362.42",
        "Melting Point": "113 °C"
    }
}