{
    "cas_no": "480-44-4",
    "key_name": "Acacetin",
    "cn_name": "金合欢素;5,7-二羟基-4\"-甲氧基黄酮;",
    "alternate_name": "4<em>H</em>-1-Benzopyran-4-one, 5,7-dihydroxy-2-(4-methoxyphenyl)-;Acacetin;Flavone, 5,7-dihydroxy-4′-methoxy-;5,7-Dihydroxy-2-(4-methoxyphenyl)-4<em>H</em>-1-benzopyran-4-one;Buddleoflavonol;5,7-Dihydroxy-4′-methoxyflavone;Linarigenin;Apigenin 4′-methyl ether;4′-<em>O</em>-Methylapigenin;4′-Methylapigenin;2-(4-Methoxyphenyl)-5,7-dihydroxy-4<em>H</em>-1-benzopyran-4-one;LY 064233;NSC 76061;4′-<em>O</em>-Methyl-5,7,4′-trihydroxyflavone",
    "duplicated_cas_no": "",
    "SMILES": "O=C1C=2C(OC(=C1)C3=CC=C(OC)C=C3)=CC(O)=CC2O",
    "meta_data": {
        "InChI": "InChI=1S/C16H12O5/c1-20-11-4-2-9(3-5-11)14-8-13(19)16-12(18)6-10(17)7-15(16)21-14/h2-8,17-18H,1H3",
        "InChIKey": null,
        "Canonical SMILES": "O=C1C=C(OC=2C=C(O)C=C(O)C12)C=3C=CC(OC)=CC3",
        "Molecular Formula": "C<sub>16</sub>H<sub>12</sub>O<sub>5</sub>",
        "Molecular Mass": "284.26",
        "Melting Point": "263 °C"
    }
}