{
    "cas_no": "6291-85-6",
    "key_name": "3-Ethoxypropylamine",
    "cn_name": "3-乙氧基丙胺;",
    "alternate_name": "1-Propanamine, 3-ethoxy-;Propylamine, 3-ethoxy-;3-Ethoxy-1-propanamine;3-Ethoxypropylamine;3-Ethoxy-1-propylamine;Propanolamine ethyl ether;3-Ethoxypropanamine;NSC 8162;[3-(Ethyloxy)propyl]amine",
    "duplicated_cas_no": "",
    "SMILES": "C(CCN)OCC",
    "meta_data": {
        "InChI": "InChI=1S/C5H13NO/c1-2-7-5-3-4-6/h2-6H2,1H3",
        "InChIKey": null,
        "Canonical SMILES": "O(CC)CCCN",
        "Molecular Formula": "C<sub>5</sub>H<sub>13</sub>NO",
        "Molecular Mass": "103.16",
        "Boiling Point": "134-136 °C @ Press: 732 Torr",
        "Density": "0.8613 g/cm³ @ Temp: 20 °C"
    }
}