{
    "cas_no": "1143-72-2",
    "key_name": "2,3,4-Trihydroxybenzophenone",
    "cn_name": "2,3,4-三羟基二苯甲酮;2,3,4-THBP;",
    "alternate_name": "Methanone, phenyl(2,3,4-trihydroxyphenyl)-;Benzophenone, 2,3,4-trihydroxy-;Phenyl(2,3,4-trihydroxyphenyl)methanone;C.I. 57005;Alizarine Yellow A;Alizarin Yellow A;2,3,4-Trihydroxybenzophenone;Gallobenzophenone;NSC 30665;PHF 005",
    "duplicated_cas_no": "",
    "SMILES": "C(=O)(C1=C(O)C(O)=C(O)C=C1)C2=CC=CC=C2",
    "meta_data": {
        "InChI": "InChI=1S/C13H10O4/c14-10-7-6-9(12(16)13(10)17)11(15)8-4-2-1-3-5-8/h1-7,14,16-17H",
        "InChIKey": null,
        "Canonical SMILES": "O=C(C=1C=CC=CC1)C2=CC=C(O)C(O)=C2O",
        "Molecular Formula": "C<sub>13</sub>H<sub>10</sub>O<sub>4</sub>",
        "Molecular Mass": "230.22",
        "Melting Point": "140 °C"
    }
}