{
    "cas_no": "625-82-1",
    "key_name": "2,4-Dimethylpyrrole",
    "cn_name": "2,4-二甲基吡咯;",
    "alternate_name": "1<em>H</em>-Pyrrole, 2,4-dimethyl-;Pyrrole, 2,4-dimethyl-;2,4-Dimethyl-1<em>H</em>-pyrrole;2,4-Dimethylpyrrole;NSC 81347;2,4-Dimethyl-1-pyrrole;2,4-Dimethyl-3<em>H</em>-pyrrole",
    "duplicated_cas_no": "",
    "SMILES": "CC=1C=C(C)NC1",
    "meta_data": {
        "InChI": "InChI=1S/C6H9N/c1-5-3-6(2)7-4-5/h3-4,7H,1-2H3",
        "InChIKey": null,
        "Canonical SMILES": "C=1NC(=CC1C)C",
        "Molecular Formula": "C<sub>6</sub>H<sub>9</sub>N",
        "Molecular Mass": "95.14",
        "Boiling Point": "168 °C",
        "Density": "0.9236 g/cm³ @ Temp: 420 °C"
    }
}