{
    "cas_no": "630-05-7",
    "key_name": "Tritriacontane",
    "cn_name": "正三十三烷;三十三烷;",
    "alternate_name": "Tritriacontane;<em>n</em>-Tritriacontane",
    "duplicated_cas_no": "",
    "SMILES": "C(CCCCCCCCCCCCCCCC)CCCCCCCCCCCCCCCC",
    "meta_data": {
        "InChI": "InChI=1S/C33H68/c1-3-5-7-9-11-13-15-17-19-21-23-25-27-29-31-33-32-30-28-26-24-22-20-18-16-14-12-10-8-6-4-2/h3-33H2,1-2H3",
        "InChIKey": null,
        "Canonical SMILES": "CCCCCCCCCCCCCCCCCCCCCCCCCCCCCCCCC",
        "Molecular Formula": "C<sub>33</sub>H<sub>68</sub>",
        "Molecular Mass": "464.89",
        "Melting Point": "72 °C",
        "Density": "0.782 g/cm³"
    }
}