{
    "cas_no": "110-78-1",
    "key_name": "Propyl isocyanate",
    "cn_name": "异氰酸丙酯;丙基异氰酸酯;异氰酸正丙酯;",
    "alternate_name": "Propane, 1-isocyanato-;Isocyanic acid, propyl ester;1-Isocyanatopropane;Propyl isocyanate;1-Propyl isocyanate;<em>n</em>-Propyl isocyanate;NSC 89688",
    "duplicated_cas_no": "",
    "SMILES": "C(N=C=O)CC",
    "meta_data": {
        "InChI": "InChI=1S/C4H7NO/c1-2-3-5-4-6/h2-3H2,1H3",
        "InChIKey": null,
        "Canonical SMILES": "O=C=NCCC",
        "Molecular Formula": "C<sub>4</sub>H<sub>7</sub>NO",
        "Molecular Mass": "85.10",
        "Boiling Point": "83.5 °C"
    }
}