{
    "cas_no": "82-43-9",
    "key_name": "1,8-Dichloroanthraquinone",
    "cn_name": "1,8-二氯蒽醌;",
    "alternate_name": "9,10-Anthracenedione, 1,8-dichloro-;Anthraquinone, 1,8-dichloro-;1,8-Dichloro-9,10-anthracenedione;1,8-Dichloroanthraquinone;1,8-Dichloro-9,10-anthraquinone;NSC 7209;1,8-Dichloro-9,10-dihydroanthracene-9,10-dione",
    "duplicated_cas_no": "",
    "SMILES": "O=C1C=2C(C(=O)C=3C1=C(Cl)C=CC3)=CC=CC2Cl",
    "meta_data": {
        "InChI": "InChI=1S/C14H6Cl2O2/c15-9-5-1-3-7-11(9)14(18)12-8(13(7)17)4-2-6-10(12)16/h1-6H",
        "InChIKey": null,
        "Canonical SMILES": "O=C1C=2C=CC=C(Cl)C2C(=O)C=3C(Cl)=CC=CC13",
        "Molecular Formula": "C<sub>14</sub>H<sub>6</sub>Cl<sub>2</sub>O<sub>2</sub>",
        "Molecular Mass": "277.10",
        "Melting Point": "202 °C",
        "Density": "1.62 g/cm³"
    }
}