{
    "cas_no": "359-07-9",
    "key_name": "2-Bromo-1,1-difluoroethane",
    "cn_name": "1-溴-2,2-二氟乙烷;1-溴-2,2-二氟乙烷;",
    "alternate_name": "Ethane, 2-bromo-1,1-difluoro-;2-Bromo-1,1-difluoroethane;2,2-Difluoroethyl bromide;1-Bromo-2,2-difluoroethane;2,2-Difluoro-1-bromoethane",
    "duplicated_cas_no": "",
    "SMILES": "C(CBr)(F)F",
    "meta_data": {
        "InChI": "InChI=1S/C2H3BrF2/c3-1-2(4)5/h2H,1H2",
        "InChIKey": null,
        "Canonical SMILES": "FC(F)CBr",
        "Molecular Formula": "C<sub>2</sub>H<sub>3</sub>BrF<sub>2</sub>",
        "Molecular Mass": "144.95",
        "Boiling Point": "57.3 °C",
        "Melting Point": "-75 °C"
    }
}