{
    "cas_no": "7786-61-0",
    "key_name": "4-Vinylguaiacol",
    "cn_name": "4-乙烯基-2-甲氧基苯酚;对乙烯基愈疮木酚;",
    "alternate_name": "Phenol, 4-ethenyl-2-methoxy-;Phenol, 2-methoxy-4-vinyl-;Guaiacol, 4-vinyl-;4-Ethenyl-2-methoxyphenol;2-Methoxy-4-vinylphenol;4-Vinylguaiacol;<em>o</em>-Methoxy-<em>p</em>-vinylphenol;<em>p</em>-Vinylguaiacol;4-Hydroxy-3-methoxyvinylbenzene;3-Methoxy-4-hydroxystyrene;4-Hydroxy-3-methoxystyrene;4-Vinyl-2-methoxyphenol;2-Methoxy-4-ethenylphenol;Varamol 106;(4-Hydroxy-3-methoxyphenyl)ethene",
    "duplicated_cas_no": "",
    "SMILES": "O(C)C1=CC(C=C)=CC=C1O",
    "meta_data": {
        "InChI": "InChI=1S/C9H10O2/c1-3-7-4-5-8(10)9(6-7)11-2/h3-6,10H,1H2,2H3",
        "InChIKey": null,
        "Canonical SMILES": "OC1=CC=C(C=C)C=C1OC",
        "Molecular Formula": "C<sub>9</sub>H<sub>10</sub>O<sub>2</sub>",
        "Molecular Mass": "150.17",
        "Boiling Point": "100 °C @ Press: 5 Torr",
        "Melting Point": "112-114 °C"
    }
}