{
    "cas_no": "3405-77-4",
    "key_name": "5-Methyl-3-isoxazolecarboxylic acid",
    "cn_name": "5-甲基异恶唑-3-甲酸;",
    "alternate_name": "3-Isoxazolecarboxylic acid, 5-methyl-;5-Methyl-3-isoxazolecarboxylic acid;3-Carboxy-5-methylisoxazole;5-Methyl-1,2-oxazole-3-carboxylic acid",
    "duplicated_cas_no": "",
    "SMILES": "C(O)(=O)C=1C=C(C)ON1",
    "meta_data": {
        "InChI": "InChI=1S/C5H5NO3/c1-3-2-4(5(7)8)6-9-3/h2H,1H3,(H,7,8)",
        "InChIKey": null,
        "Canonical SMILES": "O=C(O)C1=NOC(=C1)C",
        "Molecular Formula": "C<sub>5</sub>H<sub>5</sub>NO<sub>3</sub>",
        "Molecular Mass": "127.10",
        "Melting Point": "176-177 °C (decomp)",
        "Density": "1.502 g/cm³ @ Press: 750 Torr"
    }
}