{
    "cas_no": "61857-83-8",
    "key_name": "2,2-Dimethyl-5-(3-thienyl)-1,3-dioxane-4,6-dione",
    "cn_name": null,
    "alternate_name": "1,3-Dioxane-4,6-dione, 2,2-dimethyl-5-(3-thienyl)-;2,2-Dimethyl-5-(3-thienyl)-1,3-dioxane-4,6-dione;NSC 643156;2,2-Dimethyl-5-thiophen-3-yl-1,3-dioxane-4,6-dione",
    "duplicated_cas_no": "",
    "SMILES": "O=C1C(C(=O)OC(C)(C)O1)C=2C=CSC2",
    "meta_data": {
        "InChI": "InChI=1S/C10H10O4S/c1-10(2)13-8(11)7(9(12)14-10)6-3-4-15-5-6/h3-5,7H,1-2H3",
        "InChIKey": null,
        "Canonical SMILES": "O=C1OC(OC(=O)C1C2=CSC=C2)(C)C",
        "Molecular Formula": "C<sub>10</sub>H<sub>10</sub>O<sub>4</sub>S",
        "Molecular Mass": "226.25",
        "Melting Point": "129-130 °C"
    }
}