{
    "cas_no": "93413-77-5",
    "key_name": "1-[2-Amino-1-(4-methoxyphenyl)ethyl]cyclohexanol",
    "cn_name": "1-[2-氨基-1-(4-甲氧基苯基)乙基]环己醇盐酸盐;",
    "alternate_name": "Cyclohexanol, 1-[2-amino-1-(4-methoxyphenyl)ethyl]-;Cyclohexanol, 1-[2-amino-1-(4-methoxyphenyl)ethyl]-, (±)-;1-[2-Amino-1-(4-methoxyphenyl)ethyl]cyclohexanol;1-[2-Amino-1-(<em>p</em>-methoxyphenyl)ethyl]cyclohexanol;<em>N</em>,<em>N</em>-Didesmethylvenlafaxine;Dinorvenlafaxine;2-(4-Methoxyphenyl)-2-(1-hydroxycyclohexyl)-ethylamine;1-[2-Amino-1-(4-methoxyphenyl)ethyl]cyclohexan-1-ol;2-(1-Hydroxy-1-cyclohexyl)-2-(4-methoxyphenyl)ethylamine",
    "duplicated_cas_no": "149289-31-6",
    "SMILES": "C(CN)(C1(O)CCCCC1)C2=CC=C(OC)C=C2",
    "meta_data": {
        "InChI": "InChI=1S/C15H23NO2/c1-18-13-7-5-12(6-8-13)14(11-16)15(17)9-3-2-4-10-15/h5-8,14,17H,2-4,9-11,16H2,1H3",
        "InChIKey": null,
        "Canonical SMILES": "OC1(CCCCC1)C(C2=CC=C(OC)C=C2)CN",
        "Molecular Formula": "C<sub>15</sub>H<sub>23</sub>NO<sub>2</sub>",
        "Molecular Mass": "249.35",
        "Melting Point": "102-105 °C"
    }
}