{
    "cas_no": "1953-99-7",
    "key_name": "Tetrachlorophthalonitrile",
    "cn_name": "3,4,5,6-四氯苯-1,2-二甲腈;3,4,5,6-四氯邻苯二甲腈;",
    "alternate_name": "1,2-Benzenedicarbonitrile, 3,4,5,6-tetrachloro-;Phthalonitrile, tetrachloro-;3,4,5,6-Tetrachloro-1,2-benzenedicarbonitrile;Tetrachlorophthalonitrile;Tetrachlorophthalodinitrile;3,4,5,6-Tetrachlorophthalonitrile;3,4,5,6-Tetrachloro-1,2-dicyanobenzene;3,4,5,6-Tetrachlorophthalodinitrile;1,2-Dicyano-3,4,5,6-tetrachlorobenzene",
    "duplicated_cas_no": "",
    "SMILES": "C(#N)C1=C(C#N)C(Cl)=C(Cl)C(Cl)=C1Cl",
    "meta_data": {
        "InChI": "InChI=1S/C8Cl4N2/c9-5-3(1-13)4(2-14)6(10)8(12)7(5)11",
        "InChIKey": null,
        "Canonical SMILES": "N#CC=1C(Cl)=C(Cl)C(Cl)=C(Cl)C1C#N",
        "Molecular Formula": "C<sub>8</sub>Cl<sub>4</sub>N<sub>2</sub>",
        "Molecular Mass": "265.91",
        "Melting Point": "243.5-244.0 °C"
    }
}