{
    "cas_no": "135-01-3",
    "key_name": "1,2-Diethylbenzene",
    "cn_name": "1,2-二乙苯;",
    "alternate_name": "Benzene, 1,2-diethyl-;Benzene, <em>o</em>-diethyl-;1,2-Diethylbenzene;<em>o</em>-Diethylbenzene",
    "duplicated_cas_no": "",
    "SMILES": "C(C)C1=C(CC)C=CC=C1",
    "meta_data": {
        "InChI": "InChI=1S/C10H14/c1-3-9-7-5-6-8-10(9)4-2/h5-8H,3-4H2,1-2H3",
        "InChIKey": null,
        "Canonical SMILES": "C=1C=CC(=C(C1)CC)CC",
        "Molecular Formula": "C<sub>10</sub>H<sub>14</sub>",
        "Molecular Mass": "134.22",
        "Boiling Point": "184 °C",
        "Melting Point": "-31.2 °C",
        "Density": "0.8800 g/cm³ @ Temp: 20 °C"
    }
}