{
    "cas_no": "10425-71-5",
    "key_name": "3,5-Dinitro-4-pyridinol",
    "cn_name": null,
    "alternate_name": "4-Pyridinol, 3,5-dinitro-;3,5-Dinitro-4-pyridinol;3,5-Dinitro-4-hydroxypyridine;4-Hydroxy-3,5-dinitropyridine;3,5-Dinitro-1<em>H</em>-pyridin-4-one",
    "duplicated_cas_no": "",
    "SMILES": "N(=O)(=O)C=1C(O)=C(N(=O)=O)C=NC1",
    "meta_data": {
        "InChI": "InChI=1S/C5H3N3O5/c9-5-3(7(10)11)1-6-2-4(5)8(12)13/h1-2H,(H,6,9)",
        "InChIKey": null,
        "Canonical SMILES": "O=N(=O)C1=CN=CC(=C1O)N(=O)=O",
        "Molecular Formula": "C<sub>5</sub>H<sub>3</sub>N<sub>3</sub>O<sub>5</sub>",
        "Molecular Mass": "185.09",
        "Melting Point": "315 °C"
    }
}