{
    "cas_no": "71-44-3",
    "key_name": "Spermine",
    "cn_name": "精胺;N,N\"-双(3-氨基丙基)-1,4-丁二胺;",
    "alternate_name": "1,4-Butanediamine, <em>N</em><sup>1</sup>,<em>N</em><sup>4</sup>-bis(3-aminopropyl)-;Spermine;1,4-Butanediamine, <em>N</em>,<em>N</em>′-bis(3-aminopropyl)-;<em>N</em><sup>1</sup>,<em>N</em><sup>4</sup>-Bis(3-aminopropyl)-1,4-butanediamine;Gerontine;Musculamine;Neuridine;4,9-Diazadodecane-1,12-diamine;Spermin;<em>N</em>,<em>N</em>′-Bis(3-aminopropyl)-1,4-tetramethylenediamine;1,5,10,14-Tetraazatetradecane;<em>N</em>,<em>N</em>′-Bis(3-aminopropyl)-1,4-butanediamine;NSC 268508;<em>N</em>,<em>N</em>′-Bis(3-aminopropyl)butanediamine;<em>N</em>,<em>N</em>′-Bis(3-Aminopropyl)-1,4-diaminobutane;MeSH ID: D013096",
    "duplicated_cas_no": "115-04-8;1127437-73-3",
    "SMILES": "C(CCNCCCN)CNCCCN",
    "meta_data": {
        "InChI": "InChI=1S/C10H26N4/c11-5-3-9-13-7-1-2-8-14-10-4-6-12/h13-14H,1-12H2",
        "InChIKey": null,
        "Canonical SMILES": "NCCCNCCCCNCCCN",
        "Molecular Formula": "C<sub>10</sub>H<sub>26</sub>N<sub>4</sub>",
        "Molecular Mass": "202.34",
        "Boiling Point": "172-176 °C @ Press: 40 Torr",
        "Melting Point": "29 °C"
    }
}