{
    "cas_no": "59989-18-3",
    "key_name": "Eniluracil",
    "cn_name": null,
    "alternate_name": "2,4(1<em>H</em>,3<em>H</em>)-Pyrimidinedione, 5-ethynyl-;5-Ethynyl-2,4(1<em>H</em>,3<em>H</em>)-pyrimidinedione;5-Ethynyluracil;Eniluracil;776C85;NSC 687296",
    "duplicated_cas_no": "",
    "SMILES": "C(#C)C=1C(=O)NC(=O)NC1",
    "meta_data": {
        "InChI": "InChI=1S/C6H4N2O2/c1-2-4-3-7-6(10)8-5(4)9/h1,3H,(H2,7,8,9,10)",
        "InChIKey": null,
        "Canonical SMILES": "O=C1NC=C(C#C)C(=O)N1",
        "Molecular Formula": "C<sub>6</sub>H<sub>4</sub>N<sub>2</sub>O<sub>2</sub>",
        "Molecular Mass": "136.11",
        "Melting Point": "&gt;220 °C (decomp)"
    }
}