{
    "cas_no": "17397-89-6",
    "key_name": "(+)-Cerulenin",
    "cn_name": "浅蓝菌素;2,3-环氧-4-氧-7,10-十二碳二烯酰胺;变蓝菌素;天蓝菌素;",
    "alternate_name": "2-Oxiranecarboxamide, 3-[(4<em>E</em>,7<em>E</em>)-1-oxo-4,7-nonadien-1-yl]-, (2<em>R</em>,3<em>S</em>)-;7,10-Dodecadienamide, 2,3-epoxy-4-oxo-;Oxiranecarboxamide, 3-(1-oxo-4,7-nonadienyl)-, [2<em>R</em>-[2α,3α(4<em>E</em>,7<em>E</em>)]]-;Oxiranecarboxamide, 3-[(4<em>E</em>,7<em>E</em>)-1-oxo-4,7-nonadienyl]-, (2<em>R</em>,3<em>S</em>)-;(2<em>R</em>,3<em>S</em>)-3-[(4<em>E</em>,7<em>E</em>)-1-Oxo-4,7-nonadien-1-yl]-2-oxiranecarboxamide;Cerulenin;Helicocerin;(+)-Cerulenin",
    "duplicated_cas_no": "11052-24-7;23557-85-9",
    "SMILES": "C(CC/C=C/C/C=C/C)(=O)[C@@H]1[C@H](C(N)=O)O1",
    "meta_data": {
        "InChI": "InChI=1S/C12H17NO3/c1-2-3-4-5-6-7-8-9(14)10-11(16-10)12(13)15/h2-3,5-6,10-11H,4,7-8H2,1H3,(H2,13,15)/b3-2+,6-5+/t10-,11-/m1/s1",
        "InChIKey": null,
        "Canonical SMILES": "O=C(N)C1OC1C(=O)CCC=CCC=CC",
        "Molecular Formula": "C<sub>12</sub>H<sub>17</sub>NO<sub>3</sub>",
        "Molecular Mass": "223.27",
        "Melting Point": "93.5 °C"
    }
}