{
    "cas_no": "22518-27-0",
    "key_name": "4-(4-Chlorophenyl)-2-pyrrolidinone",
    "cn_name": "4-(4\"-氯苯基)-2-吡咯烷酮;",
    "alternate_name": "2-Pyrrolidinone, 4-(4-chlorophenyl)-;2-Pyrrolidinone, 4-(<em>p</em>-chlorophenyl)-;4-(4-Chlorophenyl)-2-pyrrolidinone;4-(4-Chlorophenyl)-2-pyrrolidone;(±)-Baclofen lactam;Baclofen lactam",
    "duplicated_cas_no": "123632-28-0",
    "SMILES": "O=C1CC(C2=CC=C(Cl)C=C2)CN1",
    "meta_data": {
        "InChI": "InChI=1S/C10H10ClNO/c11-9-3-1-7(2-4-9)8-5-10(13)12-6-8/h1-4,8H,5-6H2,(H,12,13)",
        "InChIKey": null,
        "Canonical SMILES": "O=C1NCC(C2=CC=C(Cl)C=C2)C1",
        "Molecular Formula": "C<sub>10</sub>H<sub>10</sub>ClNO",
        "Molecular Mass": "195.65",
        "Melting Point": "118 °C"
    }
}