{
    "cas_no": "638-53-9",
    "key_name": "Tridecanoic acid",
    "cn_name": "十三酸;十三(烷)酸;十二烷-1-羧酸;十三烷酸;十三碳酸;",
    "alternate_name": "Tridecanoic acid;<em>n</em>-Tridecoic acid;Tridecylic acid;<em>n</em>-Tridecanoic acid;NSC 25955;NSC 69131",
    "duplicated_cas_no": "2243150-89-0",
    "SMILES": "C(CCCCCCCCC)CCC(O)=O",
    "meta_data": {
        "InChI": "InChI=1S/C13H26O2/c1-2-3-4-5-6-7-8-9-10-11-12-13(14)15/h2-12H2,1H3,(H,14,15)",
        "InChIKey": null,
        "Canonical SMILES": "O=C(O)CCCCCCCCCCCC",
        "Molecular Formula": "C<sub>13</sub>H<sub>26</sub>O<sub>2</sub>",
        "Molecular Mass": "214.34",
        "Boiling Point": "312.4 °C",
        "Melting Point": "44.5 °C",
        "Density": "0.9582 g/cm³ @ Temp: 20 °C"
    }
}