{
    "cas_no": "34225-81-5",
    "key_name": "3-Methyl-1<em>H</em>-indene-2-carboxylic acid",
    "cn_name": "3-甲基茚-2-羧酸;",
    "alternate_name": "1<em>H</em>-Indene-2-carboxylic acid, 3-methyl-;Indene-2-carboxylic acid, 3-methyl-;3-Methyl-1<em>H</em>-indene-2-carboxylic acid;3-Methylindene-2-carboxylic acid",
    "duplicated_cas_no": "",
    "SMILES": "CC=1C=2C(CC1C(O)=O)=CC=CC2",
    "meta_data": {
        "InChI": "InChI=1S/C11H10O2/c1-7-9-5-3-2-4-8(9)6-10(7)11(12)13/h2-5H,6H2,1H3,(H,12,13)",
        "InChIKey": null,
        "Canonical SMILES": "O=C(O)C1=C(C=2C=CC=CC2C1)C",
        "Molecular Formula": "C<sub>11</sub>H<sub>10</sub>O<sub>2</sub>",
        "Molecular Mass": "174.20",
        "Melting Point": "200-201 °C"
    }
}