{
    "cas_no": "2492-23-1",
    "key_name": "Phosphonium, [(2,4-dichlorophenyl)methyl]triphenyl-, chloride (1:1)",
    "cn_name": "(2,4-二氯苄基)三苯基氯化膦;",
    "alternate_name": "Phosphonium, [(2,4-dichlorophenyl)methyl]triphenyl-, chloride (1:1);Phosphonium, (2,4-dichlorobenzyl)triphenyl-, chloride;Phosphonium, [(2,4-dichlorophenyl)methyl]triphenyl-, chloride;(2,4-Dichlorobenzyl)triphenylphosphonium chloride;NSC 124000",
    "duplicated_cas_no": "1091628-54-4",
    "SMILES": "[P+](CC1=C(Cl)C=C(Cl)C=C1)(C2=CC=CC=C2)(C3=CC=CC=C3)C4=CC=CC=C4.[Cl-]",
    "meta_data": {
        "InChI": "InChI=1S/C25H20Cl2P.ClH/c26-21-17-16-20(25(27)18-21)19-28(22-10-4-1-5-11-22,23-12-6-2-7-13-23)24-14-8-3-9-15-24;/h1-18H,19H2;1H/q+1;/p-1",
        "InChIKey": null,
        "Canonical SMILES": "[Cl-].ClC1=CC=C(C(Cl)=C1)C[P+](C=2C=CC=CC2)(C=3C=CC=CC3)C=4C=CC=CC4",
        "Molecular Formula": "C<sub>25</sub>H<sub>20</sub>Cl<sub>2</sub>P.Cl",
        "Molecular Mass": "",
        "Melting Point": "246-249 °C"
    }
}