{
    "cas_no": "1420-04-8",
    "key_name": "Niclosamide ethanolamine salt",
    "cn_name": null,
    "alternate_name": "Benzamide, 5-chloro-<em>N</em>-(2-chloro-4-nitrophenyl)-2-hydroxy-, compd. with 2-aminoethanol (1:1);Salicylanilide, 2′,5-dichloro-4′-nitro-, compd. with 2-aminoethanol (1:1);Ethanol, 2-amino-, compd. with 2′,5-dichloro-4′-nitrosalicylanilide (1:1);Ethanol, 2-amino-, compd. with 5-chloro-<em>N</em>-(2-chloro-4-nitrophenyl)-2-hydroxybenzamide (1:1);Bayer 73;M 73;SR 73;Bayluscide;2′,5-Dichloro-4′-nitrosalicylanilide, 2-aminoethanol salt;BAY 73;HL 2448;Niclosamide ethanolamine salt;BAY 6076;Bayer 6076;Phenasal ethanolamine salt;Mollutox;Clonitralide;Baylucit;Uccmaluscide;Clonitrilide;Niclosamide-olamine;Clonitralid",
    "duplicated_cas_no": "",
    "SMILES": "C(CO)N.C(NC1=C(Cl)C=C(N(=O)=O)C=C1)(=O)C2=C(O)C=CC(Cl)=C2",
    "meta_data": {
        "InChI": "InChI=1S/C13H8Cl2N2O4.C2H7NO/c14-7-1-4-12(18)9(5-7)13(19)16-11-3-2-8(17(20)21)6-10(11)15;3-1-2-4/h1-6,18H,(H,16,19);4H,1-3H2",
        "InChIKey": null,
        "Canonical SMILES": "O=C(NC1=CC=C(C=C1Cl)N(=O)=O)C2=CC(Cl)=CC=C2O.OCCN",
        "Molecular Formula": "C<sub>13</sub>H<sub>8</sub>Cl<sub>2</sub>N<sub>2</sub>O<sub>4</sub>.C<sub>2</sub>H<sub>7</sub>NO",
        "Molecular Mass": "",
        "Melting Point": "216 °C"
    }
}