{
    "cas_no": "701-70-2",
    "key_name": "1-Phenyl-2-butanol",
    "cn_name": "乙基苯乙醇;",
    "alternate_name": "Benzeneethanol, α-ethyl-;Phenethyl alcohol, α-ethyl-;α-Ethylbenzeneethanol;Benzyl ethyl carbinol;2-Butanol, 1-phenyl-;1-Phenyl-2-butanol;(±)-1-Phenyl-2-butanol;NSC 11004;NSC 406921",
    "duplicated_cas_no": "120055-09-6",
    "SMILES": "C(C(CC)O)C1=CC=CC=C1",
    "meta_data": {
        "InChI": "InChI=1S/C10H14O/c1-2-10(11)8-9-6-4-3-5-7-9/h3-7,10-11H,2,8H2,1H3",
        "InChIKey": null,
        "Canonical SMILES": "OC(CC=1C=CC=CC1)CC",
        "Molecular Formula": "C<sub>10</sub>H<sub>14</sub>O",
        "Molecular Mass": "150.22",
        "Boiling Point": "215 °C",
        "Density": "0.989 g/cm³ @ Temp: 16 °C"
    }
}