{
    "cas_no": "14464-31-4",
    "key_name": "Palmitic acid <em>N</em>-hydroxysuccinimide",
    "cn_name": null,
    "alternate_name": "Hexadecanoic acid, 2,5-dioxo-1-pyrrolidinyl ester;Succinimide, <em>N</em>-(palmitoyloxy)-;2,5-Pyrrolidinedione, 1-[(1-oxohexadecyl)oxy]-;Palmitic acid <em>N</em>-hydroxysuccinimide ester;<em>N</em>-Hydroxysuccinimide palmitate;<em>N</em>-(Palmitoyloxy)succinimide;Palmitic acid succinimide ester;Hexadecanoic acid <em>N</em>-hydroxysuccinimide ester;Succinimidyl hexadecanoate;Palmitic acid <em>N</em>-hydroxysuccinimidyl ester;Palmitic acid <em>N</em>-hydroxysuccinimide;Palmitic acid NHS ester;Palmitic acid succinimidyl ester;2,5-Dioxopyrrolidin-1-yl palmitate",
    "duplicated_cas_no": "",
    "SMILES": "O(C(CCCCCCCCCCCCCCC)=O)N1C(=O)CCC1=O",
    "meta_data": {
        "InChI": "InChI=1S/C20H35NO4/c1-2-3-4-5-6-7-8-9-10-11-12-13-14-15-20(24)25-21-18(22)16-17-19(21)23/h2-17H2,1H3",
        "InChIKey": null,
        "Canonical SMILES": "O=C(ON1C(=O)CCC1=O)CCCCCCCCCCCCCCC",
        "Molecular Formula": "C<sub>20</sub>H<sub>35</sub>NO<sub>4</sub>",
        "Molecular Mass": "353.50",
        "Melting Point": "91 °C"
    }
}