{
    "cas_no": "10094-45-8",
    "key_name": "Stearyl erucamide",
    "cn_name": null,
    "alternate_name": "13-Docosenamide, <em>N</em>-octadecyl-, (13<em>Z</em>)-;13-Docosenamide, <em>N</em>-octadecyl-, (<em>Z</em>)-;(13<em>Z</em>)-<em>N</em>-Octadecyl-13-docosenamide;Stearyl erucamide;<em>N</em>-Stearylerucamide;Kemamide E 180;Nikka Amide SE;SNT 40;HTSA 3;(<em>Z</em>)-<em>N</em>-Octadecyl-13-docosenamide;SNT;<em>N</em>-Stearyl-(13<em>Z</em>)-13-docosenamide;Lutamide S 98;KER 6;Neutron SNT;SNT-P;Crodamide 212;<em>N</em>-Octadecylerucamide;(Z)-<em>N</em>-Octadecyldocos-13-enamide;Finawax-SE;WK 1558;Chemide SEA;SNT-F",
    "duplicated_cas_no": "",
    "SMILES": "C(C(NCCCCCCCCCCCCCCCCCC)=O)CCCCCCCCCC/C=C\\CCCCCCCC",
    "meta_data": {
        "InChI": "InChI=1S/C40H79NO/c1-3-5-7-9-11-13-15-17-19-21-22-23-24-26-28-30-32-34-36-38-40(42)41-39-37-35-33-31-29-27-25-20-18-16-14-12-10-8-6-4-2/h17,19H,3-16,18,20-39H2,1-2H3,(H,41,42)/b19-17-",
        "InChIKey": null,
        "Canonical SMILES": "O=C(NCCCCCCCCCCCCCCCCCC)CCCCCCCCCCCC=CCCCCCCCC",
        "Molecular Formula": "C<sub>40</sub>H<sub>79</sub>NO",
        "Molecular Mass": "590.06",
        "Melting Point": "70 °C"
    }
}