{
    "cas_no": "31323-44-1",
    "key_name": "1,1,1,3,3,5,5,5-Octachlorotrisiloxane",
    "cn_name": null,
    "alternate_name": "Trisiloxane, 1,1,1,3,3,5,5,5-octachloro-;Trisiloxane, octachloro-;1,1,1,3,3,5,5,5-Octachlorotrisiloxane;Octachlorotrisiloxane",
    "duplicated_cas_no": "",
    "SMILES": "O([Si](O[Si](Cl)(Cl)Cl)(Cl)Cl)[Si](Cl)(Cl)Cl",
    "meta_data": {
        "InChI": "InChI=1S/Cl8O2Si3/c1-11(2,3)9-13(7,8)10-12(4,5)6",
        "InChIKey": null,
        "Canonical SMILES": "Cl[Si](Cl)(Cl)O[Si](Cl)(Cl)O[Si](Cl)(Cl)Cl",
        "Molecular Formula": "Cl<sub>8</sub>O<sub>2</sub>Si<sub>3</sub>",
        "Molecular Mass": "399.88",
        "Boiling Point": "184 °C",
        "Melting Point": "-47 °C",
        "Density": "1.36 g/cm³"
    }
}