{
    "cas_no": "572-09-8",
    "key_name": "α-Acetobromoglucose",
    "cn_name": "2,3,4,6-四乙酰氧基-alpha-D-吡喃葡萄糖溴化物;溴代葡萄糖苷;",
    "alternate_name": "α-<span class=\"text-smallcaps\">D</span>-Glucopyranosyl bromide, 2,3,4,6-tetraacetate;Glucopyranosyl bromide, tetraacetate, α-<span class=\"text-smallcaps\">D</span>-;α-<span class=\"text-smallcaps\">D</span>-Glucopyranosyl bromide, tetraacetate;α-Acetobromglucose;2,3,4,6-Tetraacetyl-α-<span class=\"text-smallcaps\">D</span>-glucopyranosyl bromide;Acetobromoglucose;Tetra-<em>O</em>-acetyl-α-<span class=\"text-smallcaps\">D</span>-glucopyranosyl bromide;α-Acetobromoglucose;2,3,4,6-Tetra-<em>O</em>-acetyl-α-<span class=\"text-smallcaps\">D</span>-glucopyranosyl bromide;α-<span class=\"text-smallcaps\">D</span>-Glucosyl bromide tetraacetate;Acetobromglucose;Tetra-O-acetyl-α-<span class=\"text-smallcaps\">D</span>-glucopyranosyl bromide;Acetylbromoglucose;2,3,4,6-Tetra-<em>O</em>-acetyl-α-<span class=\"text-smallcaps\">D</span>-bromoglucopyranose;<span class=\"text-smallcaps\">D</span>-Acetobromoglucose;Acetobromo-<span class=\"text-smallcaps\">D</span>-glucose;Tetra-<em>O</em>-acetyl-α-<span class=\"text-smallcaps\">D</span>-glucosyl bromide;α-Bromoglucose tetraacetate;Acetobromo-α-<span class=\"text-smallcaps\">D</span>-glucose;α-<span class=\"text-smallcaps\">D</span>-Acetobromoglucose;1-Bromo-α-<span class=\"text-smallcaps\">D</span>-glucose tetraacetate;α-<span class=\"text-smallcaps\">D</span>-Bromotetraacetylglucose;2,3,4,6-Tetra-<em>O</em>-acetyl-1-α-bromo-<span class=\"text-smallcaps\">D</span>-glucopyranose;1-Bromo-2,3,4,6-tetra(<em>O</em>-acetyl)-α-<span class=\"text-smallcaps\">D</span>-pyranoglucose;α-<span class=\"text-smallcaps\">D</span>-Tetraacetylglucopyranosyl bromide;1-Bromo-1-deoxy-2,3,4,6-tetra-<em>O</em>-acetyl-α-<span class=\"text-smallcaps\">D</span>-glucopyranose;Tetra-<em>O</em>-acetyl-α-<span class=\"text-smallcaps\">D</span>-bromoglucose",
    "duplicated_cas_no": "24220-07-3;51898-30-7;1044954-82-6;1087727-17-0;1265627-52-8;1372169-32-8;1447814-43-8;1770811-27-2",
    "SMILES": "O(C(C)=O)[C@H]1[C@H](OC(C)=O)[C@@H](COC(C)=O)O[C@H](Br)[C@@H]1OC(C)=O",
    "meta_data": {
        "InChI": "InChI=1S/C14H19BrO9/c1-6(16)20-5-10-11(21-7(2)17)12(22-8(3)18)13(14(15)24-10)23-9(4)19/h10-14H,5H2,1-4H3/t10-,11-,12+,13-,14+/m1/s1",
        "InChIKey": null,
        "Canonical SMILES": "O=C(OCC1OC(Br)C(OC(=O)C)C(OC(=O)C)C1OC(=O)C)C",
        "Molecular Formula": "C<sub>14</sub>H<sub>19</sub>BrO<sub>9</sub>",
        "Molecular Mass": "411.20",
        "Boiling Point": "0.125-30 °C @ Press: 5 x 10<sup>-4</sup> Torr",
        "Melting Point": "88.5 °C"
    }
}