{
    "cas_no": "3775-90-4",
    "key_name": "<em>tert</em>-Butylaminoethyl methacrylate",
    "cn_name": "2-甲基-2-丙烯酸-2-[(1,1-二甲基乙基)氨]乙酯;",
    "alternate_name": "2-Propenoic acid, 2-methyl-, 2-[(1,1-dimethylethyl)amino]ethyl ester;Methacrylic acid, 2-(<em>tert</em>-butylamino)ethyl ester;Ethanol, 2-(<em>tert</em>-butylamino)-, methacrylate (ester);<em>tert</em>-Butylaminoethyl methacrylate;2-(<em>tert</em>-Butylamino)ethyl methacrylate;<em>N</em>-<em>tert</em>-Butylaminoethyl methacrylate;Ageflex FM 4;Mhoromer BM 615;t-Butylaminoethyl methacrylate;2-(<em>N</em>-<em>tert</em>-Butylamino)ethyl methacrylate;2-(<em>tert</em>-Butylamino)ethyl methacrylate methacrylate;2-(<em>tert</em>-Butylamino)ethyl 2-methylprop-2-enoate;t-BAEMA",
    "duplicated_cas_no": "115567-56-1;160928-64-3",
    "SMILES": "O(CCNC(C)(C)C)C(C(C)=C)=O",
    "meta_data": {
        "InChI": "InChI=1S/C10H19NO2/c1-8(2)9(12)13-7-6-11-10(3,4)5/h11H,1,6-7H2,2-5H3",
        "InChIKey": null,
        "Canonical SMILES": "O=C(OCCNC(C)(C)C)C(=C)C",
        "Molecular Formula": "C<sub>10</sub>H<sub>19</sub>NO<sub>2</sub>",
        "Molecular Mass": "185.26",
        "Boiling Point": "100-105 °C @ Press: 12 Torr",
        "Melting Point": "&lt;-70 °C",
        "Density": "0.914 g/cm³ @ Temp: 25 °C"
    }
}