{
    "cas_no": "476-28-8",
    "key_name": "Lycorine",
    "cn_name": null,
    "alternate_name": "1<em>H</em>-[1,3]Dioxolo[4,5-<em>j</em>]pyrrolo[3,2,1-<em>de</em>]phenanthridine-1,2-diol, 2,4,5,7,12b,12c-hexahydro-, (1<em>S</em>,2<em>S</em>,12b<em>S</em>,12c<em>S</em>)-;Galanthidine;Lycoran-1α,2β-diol, 3,3a-didehydro-;Galanthan-1,2-diol, 3,12-didehydro-9,10-[methylenebis(oxy)]-, (1α,2β)-;(1<em>S</em>,2<em>S</em>,12b<em>S</em>,12c<em>S</em>)-2,4,5,7,12b,12c-Hexahydro-1<em>H</em>-[1,3]dioxolo[4,5-<em>j</em>]pyrrolo[3,2,1-<em>de</em>]phenanthridine-1,2-diol;Amarylline;Lycorine;3,4-Didehydro-11,12-[methylenebis(oxy)]galanthan-1α,2β-diol;3,3a-Didehydrolycoran-1α,2β-diol;Narcissine;Narcissin;(-)-Lycorine;1<em>H</em>-[1,3]Dioxolo[4,5-<em>j</em>]pyrrolo[3,2,1-<em>de</em>]phenanthridine-1,2-diol, 2,4,5,7,12b,12c-hexahydro-, [1<em>S</em>-(1α,2β,12bβ,12cα)]-;NSC 401360;NSC 683873",
    "duplicated_cas_no": "",
    "SMILES": "O[C@H]1[C@@]2([C@@]3(N(CC=4C2=CC5=C(C4)OCO5)CCC3=C[C@@H]1O)[H])[H]",
    "meta_data": {
        "InChI": "InChI=1S/C16H17NO4/c18-11-3-8-1-2-17-6-9-4-12-13(21-7-20-12)5-10(9)14(15(8)17)16(11)19/h3-5,11,14-16,18-19H,1-2,6-7H2/t11-,14-,15+,16+/m0/s1",
        "InChIKey": null,
        "Canonical SMILES": "OC1C=C2CCN3CC4=CC=5OCOC5C=C4C(C1O)C23",
        "Molecular Formula": "C<sub>16</sub>H<sub>17</sub>NO<sub>4</sub>",
        "Molecular Mass": "287.31",
        "Melting Point": "280 °C"
    }
}