{
    "cas_no": "6003-05-0",
    "key_name": "<span class=\"text-smallcaps\">L</span>-Alanine, hydrochloride (1:1)",
    "cn_name": null,
    "alternate_name": "<span class=\"text-smallcaps\">L</span>-Alanine, hydrochloride (1:1);Alanine, hydrochloride, <span class=\"text-smallcaps\">L</span>-;<span class=\"text-smallcaps\">L</span>-Alanine, hydrochloride;Alanine hydrochloride;α-Alanine hydrochloride;(<em>S</em>)-Alanine hydrochloride;<span class=\"text-smallcaps\">L</span>-Alanine monohydrochloride",
    "duplicated_cas_no": "",
    "SMILES": "[C@@H](C(O)=O)(C)N.Cl",
    "meta_data": {
        "InChI": "InChI=1S/C3H7NO2.ClH/c1-2(4)3(5)6;/h2H,4H2,1H3,(H,5,6);1H/t2-;/m0./s1",
        "InChIKey": null,
        "Canonical SMILES": "Cl.O=C(O)C(N)C",
        "Molecular Formula": "C<sub>3</sub>H<sub>7</sub>NO<sub>2</sub>.ClH",
        "Molecular Mass": "",
        "Melting Point": "205 °C",
        "Density": "1.325 g/cm³"
    }
}