{
    "cas_no": "492-22-8",
    "key_name": "Thioxanthone",
    "cn_name": "9-噻吨酮;噻吨-9-酮;",
    "alternate_name": "9<em>H</em>-Thioxanthen-9-one;Thioxanthen-9-one;Thiaxanthone;Thioxanthone;9<em>H</em>-Thioxanthene, 9-oxo-;Thioxanthenone;10-Thioxanthone;Thiaxanthenone;9-Thioxanthone;Thiaxanthon;9<em>H</em>-Thiaxanthen-9-one;Thioxanthone TX;NSC 15912;NSC 54677;NSC 658181;9-Thianthracen-10-one;Esacure ITX;Dibenzo[<em>b</em>,<em>e</em>]thiopyran-10-one;TX",
    "duplicated_cas_no": "",
    "SMILES": "O=C1C=2C(SC=3C1=CC=CC3)=CC=CC2",
    "meta_data": {
        "InChI": "InChI=1S/C13H8OS/c14-13-9-5-1-3-7-11(9)15-12-8-4-2-6-10(12)13/h1-8H",
        "InChIKey": null,
        "Canonical SMILES": "O=C1C=2C=CC=CC2SC=3C=CC=CC31",
        "Molecular Formula": "C<sub>13</sub>H<sub>8</sub>OS",
        "Molecular Mass": "212.27",
        "Boiling Point": "373 °C",
        "Melting Point": "209 °C"
    }
}