{
    "cas_no": "1128-54-7",
    "key_name": "3-Methyl-1-phenyl-1<em>H</em>-pyrazole",
    "cn_name": "3-甲基-1-苯基吡唑;3-甲基-1-苯基吡啶;",
    "alternate_name": "1<em>H</em>-Pyrazole, 3-methyl-1-phenyl-;Pyrazole, 3-methyl-1-phenyl-;3-Methyl-1-phenyl-1<em>H</em>-pyrazole;3-Methyl-1-phenylpyrazole;1-Phenyl-3-methylpyrazole;NSC 163372",
    "duplicated_cas_no": "",
    "SMILES": "CC1=NN(C=C1)C2=CC=CC=C2",
    "meta_data": {
        "InChI": "InChI=1S/C10H10N2/c1-9-7-8-12(11-9)10-5-3-2-4-6-10/h2-8H,1H3",
        "InChIKey": null,
        "Canonical SMILES": "N1=C(C=CN1C=2C=CC=CC2)C",
        "Molecular Formula": "C<sub>10</sub>H<sub>10</sub>N<sub>2</sub>",
        "Molecular Mass": "158.20",
        "Boiling Point": "255 °C",
        "Melting Point": "37 °C"
    }
}