{
    "cas_no": "100-51-6",
    "key_name": "Benzyl alcohol",
    "cn_name": "苄醇;苄基醇;苯甲醇;",
    "alternate_name": "Benzenemethanol;Benzyl alcohol;Benzenecarbinol;Phenylcarbinol;Phenylmethanol;Phenylmethyl alcohol;α-Toluenol;(Hydroxymethyl)benzene;α-Hydroxytoluene;Benzylic alcohol;Sunmorl BK 20;NSC 8044;TB 13G;GTA 220;MeSH ID: D019905",
    "duplicated_cas_no": "1336-27-2;185532-71-2;2263936-23-6;2565578-76-7",
    "SMILES": "C(O)C1=CC=CC=C1",
    "meta_data": {
        "InChI": "InChI=1S/C7H8O/c8-6-7-4-2-1-3-5-7/h1-5,8H,6H2",
        "InChIKey": null,
        "Canonical SMILES": "OCC=1C=CC=CC1",
        "Molecular Formula": "C<sub>7</sub>H<sub>8</sub>O",
        "Molecular Mass": "108.14",
        "Boiling Point": "205.3 °C",
        "Melting Point": "-15.2 °C",
        "Density": "1.0419 g/cm³ @ Temp: 20 °C"
    }
}