{
    "cas_no": "67868-84-2",
    "key_name": "2-Hydroxy-5-(methylthio)benzaldehyde",
    "cn_name": null,
    "alternate_name": "Benzaldehyde, 2-hydroxy-5-(methylthio)-;2-Hydroxy-5-(methylthio)benzaldehyde;5-(Methylthio)salicylaldehyde;2-Hydroxy-5-methylsulfanylbenzaldehyde",
    "duplicated_cas_no": "",
    "SMILES": "C(=O)C1=CC(SC)=CC=C1O",
    "meta_data": {
        "InChI": "InChI=1S/C8H8O2S/c1-11-7-2-3-8(10)6(4-7)5-9/h2-5,10H,1H3",
        "InChIKey": null,
        "Canonical SMILES": "O=CC1=CC(SC)=CC=C1O",
        "Molecular Formula": "C<sub>8</sub>H<sub>8</sub>O<sub>2</sub>S",
        "Molecular Mass": "168.21",
        "Boiling Point": "114-118 °C @ Press: 4 Torr"
    }
}