{
    "cas_no": "1586-92-1",
    "key_name": "Diethylaluminum ethoxide",
    "cn_name": "乙氧基二乙基铝;",
    "alternate_name": "Aluminum, ethoxydiethyl-;Ethoxydiethylaluminum;Diethylaluminum ethoxide;Diethylaluminum monoethoxide;Diethylethoxyaluminum;Diethylaluminium ethoxide;(Ethanolato)diethylaluminum;Dealox",
    "duplicated_cas_no": "",
    "SMILES": "[Al](OCC)(CC)CC",
    "meta_data": {
        "InChI": "InChI=1S/C2H5O.2C2H5.Al/c1-2-3;2*1-2;/h2H2,1H3;2*1H2,2H3;/q-1;;;+1",
        "InChIKey": null,
        "Canonical SMILES": "O([Al](CC)CC)CC",
        "Molecular Formula": "C<sub>6</sub>H<sub>15</sub>AlO",
        "Molecular Mass": "",
        "Boiling Point": "108.5 °C",
        "Melting Point": "-50 °C"
    }
}