{
    "cas_no": "1629229-37-3",
    "key_name": "[(8<em>R</em>)-5,6-Dihydro-8-methyl-3-(3-methyl-1,2,4-thiadiazol-5-yl)-1,2,4-triazolo[4,3-<em>a</em>]pyrazin-7(8<em>H</em>)-yl](4-fluorophenyl)methanone",
    "cn_name": null,
    "alternate_name": "Methanone, [(8<em>R</em>)-5,6-dihydro-8-methyl-3-(3-methyl-1,2,4-thiadiazol-5-yl)-1,2,4-triazolo[4,3-<em>a</em>]pyrazin-7(8<em>H</em>)-yl](4-fluorophenyl)-;[(8<em>R</em>)-5,6-Dihydro-8-methyl-3-(3-methyl-1,2,4-thiadiazol-5-yl)-1,2,4-triazolo[4,3-<em>a</em>]pyrazin-7(8<em>H</em>)-yl](4-fluorophenyl)methanone;Fezolinetant;(4-Fluorophenyl)[(8<em>R</em>)-8-methyl-3-(3-methyl-1,2,4-thiadiazol-5-yl)-5,6-dihydro-[1,2,4]triazolo[4,3-<em>a</em>]pyrazin-7(8<em>H</em>)-yl]methanone;ESN 364;ESN-364;AS 3472693-00;A 2693;Veozah",
    "duplicated_cas_no": "",
    "SMILES": "C[C@@H]1C=2N(C(=NN2)C=3SN=C(C)N3)CCN1C(=O)C4=CC=C(F)C=C4",
    "meta_data": {
        "InChI": "InChI=1S/C16H15FN6OS/c1-9-13-19-20-14(15-18-10(2)21-25-15)23(13)8-7-22(9)16(24)11-3-5-12(17)6-4-11/h3-6,9H,7-8H2,1-2H3/t9-/m1/s1",
        "InChIKey": null,
        "Canonical SMILES": "O=C(C1=CC=C(F)C=C1)N2CCN3C(=NN=C3C2C)C4=NC(=NS4)C",
        "Molecular Formula": "C<sub>16</sub>H<sub>15</sub>FN<sub>6</sub>OS",
        "Molecular Mass": "358.39",
        "Melting Point": "166.8-168.6 °C"
    }
}