{
    "cas_no": "302-79-4",
    "key_name": "Retinoic acid",
    "cn_name": "维A酸;维他命A酸;全反式维A酸;视黄酸;3,7-二甲基-9-(2,6,6-三甲基环己烯)-2,4,6,8-全反式壬四烯酸;",
    "alternate_name": "Retinoic acid;Retinoic acid, <em>all</em>-<em>trans</em>-;Vitamin A acid;Tretinoin;<em>trans</em>-Retinoic acid;2,4,6,8-Nonatetraenoic acid, 3,7-dimethyl-9-(2,6,6-trimethyl-1-cyclohexen-1-yl)-, (<em>all</em>-<em>E</em>)-;<em>all</em>-<em>trans</em>-Vitamin A acid;Vitamin A acid, <em>all</em>-<em>trans</em>-;Vitamin A<sub>1</sub> acid, <em>all</em>-<em>trans</em>-;3,7-Dimethyl-9-(2,6,6-trimethyl-1-cyclohexen-1-yl)-2,4,6,8-nonatetraenoic acid;β-Retinoic acid;(<em>all</em>-<em>E</em>)-3,7-Dimethyl-9-(2,6,6-trimethyl-1-cyclohexen-1-yl)-2,4,6,8-nonatetraenoic acid;<em>all</em>-<em>trans</em>-Tretinoin;<em>all</em>-(<em>E</em>)-Retinoic acid;Tretin M;<em>all</em>-<em>trans</em>-β-Retinoic acid;Ro 1-5488;Retin A;AGN 100335;Aberel;<em>all</em>-<em>trans</em>-Retinoic acid;Vesanoid;ATRA;Renova;Atragen;Vesnaroid;Epi-Aberel;Cordes Vas;Dermairol;Aknoten;Airol;NSC 122578;Eudyna;Retacnyl;NSC 122758",
    "duplicated_cas_no": "7005-78-9;56573-65-0;187175-63-9",
    "SMILES": "C(=C/C(=C/C=C/C(=C/C(O)=O)/C)/C)\\C=1C(C)(C)CCCC1C",
    "meta_data": {
        "InChI": "InChI=1S/C20H28O2/c1-15(8-6-9-16(2)14-19(21)22)11-12-18-17(3)10-7-13-20(18,4)5/h6,8-9,11-12,14H,7,10,13H2,1-5H3,(H,21,22)/b9-6+,12-11+,15-8+,16-14+",
        "InChIKey": null,
        "Canonical SMILES": "O=C(O)C=C(C=CC=C(C=CC1=C(C)CCCC1(C)C)C)C",
        "Molecular Formula": "C<sub>20</sub>H<sub>28</sub>O<sub>2</sub>",
        "Molecular Mass": "300.44",
        "Melting Point": "180-182 °C"
    }
}