{
    "cas_no": "79-40-3",
    "key_name": "Dithiooxamide",
    "cn_name": "二硫代草酰氨;",
    "alternate_name": "Ethanedithioamide;Oxamide, dithio-;Dithiooxamide;Rubeane;Rubeanic acid;Hydrorubeanic acid;Rubean;Dithiooxalic acid diamide;NSC 1893;1,2-Ethanedisulfenamide;D 0957",
    "duplicated_cas_no": "7275-92-5;1092079-37-2",
    "SMILES": "C(C(N)=S)(N)=S",
    "meta_data": {
        "InChI": "InChI=1S/C2H4N2S2/c3-1(5)2(4)6/h(H2,3,5)(H2,4,6)",
        "InChIKey": null,
        "Canonical SMILES": "S=C(N)C(=S)N",
        "Molecular Formula": "C<sub>2</sub>H<sub>4</sub>N<sub>2</sub>S<sub>2</sub>",
        "Molecular Mass": "120.20",
        "Melting Point": "170 °C (decomp)",
        "Density": "1.523 g/cm³"
    }
}