{
    "cas_no": "1792-81-0",
    "key_name": "<em>cis</em>-1,2-Cyclohexanediol",
    "cn_name": "顺式-1,2-环己二醇;",
    "alternate_name": "1,2-Cyclohexanediol, (1<em>R</em>,2<em>S</em>)-<em>rel</em>-;1,2-Cyclohexanediol, <em>cis</em>-;<em>rel</em>-(1<em>R</em>,2<em>S</em>)-1,2-Cyclohexanediol;<em>cis</em>-1,2-Cyclohexanediol;Grandidentol;1,2-<em>cis</em>-Dihydroxycyclohexane;<em>cis</em>-2-Hydroxycyclohexanol;<em>cis</em>-1,2-Dihydroxycyclohexane;<em>meso</em>-<em>cis</em>-1,2-Cyclohexanediol;<em>meso</em>-1,2-Cyclohexanediol;1,2-<em>cis</em>-Cyclohexaneanediol;NSC 52143;(1<em>R</em>,2<em>S</em>)-1,2-Cyclohexanediol",
    "duplicated_cas_no": "199856-36-5;859160-79-5;905444-98-6;1093881-53-8;1128812-88-3;1418123-54-2;2247038-17-9;2291356-02-8;2983140-14-1;3033787-36-6",
    "SMILES": "O[C@H]1[C@@H](O)CCCC1",
    "meta_data": {
        "InChI": "InChI=1/C6H12O2/c7-5-3-1-2-4-6(5)8/h5-8H,1-4H2/t5-,6+",
        "InChIKey": null,
        "Canonical SMILES": "OC1CCCCC1O",
        "Molecular Formula": "C<sub>6</sub>H<sub>12</sub>O<sub>2</sub>",
        "Molecular Mass": "116.16",
        "Boiling Point": "120 °C",
        "Melting Point": "100 °C"
    }
}