{
    "cas_no": "3260-93-3",
    "key_name": "3-Chloro-2-methoxybenzoic acid",
    "cn_name": null,
    "alternate_name": "Benzoic acid, 3-chloro-2-methoxy-;<em>o</em>-Anisic acid, 3-chloro-;3-Chloro-2-methoxybenzoic acid",
    "duplicated_cas_no": "",
    "SMILES": "O(C)C1=C(C(O)=O)C=CC=C1Cl",
    "meta_data": {
        "InChI": "InChI=1S/C8H7ClO3/c1-12-7-5(8(10)11)3-2-4-6(7)9/h2-4H,1H3,(H,10,11)",
        "InChIKey": null,
        "Canonical SMILES": "O=C(O)C=1C=CC=C(Cl)C1OC",
        "Molecular Formula": "C<sub>8</sub>H<sub>7</sub>ClO<sub>3</sub>",
        "Molecular Mass": "186.59",
        "Melting Point": "120-121 °C"
    }
}