{
    "cas_no": "4104-45-4",
    "key_name": "3-(Methylthio)propylamine",
    "cn_name": null,
    "alternate_name": "1-Propanamine, 3-(methylthio)-;Propylamine, 3-(methylthio)-;3-(Methylthio)-1-propanamine;3-(Methylmercapto)propylamine;3-(Methylthio)propylamine;3-Aminopropyl methyl sulfide;1-Amino-3-(methylthio)propane;<em>S</em>-Methylhomocysteamine;3-(Methylthio)-1-propylamine;3-Methylsulfanyl-1-propylamine;3-(Methylsulfanyl)propylamine;3-Methylsulfanylpropan-1-amine",
    "duplicated_cas_no": "",
    "SMILES": "C(CSC)CN",
    "meta_data": {
        "InChI": "InChI=1S/C4H11NS/c1-6-4-2-3-5/h2-5H2,1H3",
        "InChIKey": null,
        "Canonical SMILES": "S(C)CCCN",
        "Molecular Formula": "C<sub>4</sub>H<sub>11</sub>NS",
        "Molecular Mass": "105.20",
        "Boiling Point": "170 °C"
    }
}