{
    "cas_no": "16799-05-6",
    "key_name": "1-(2-Bromoethyl)-3-chlorobenzene",
    "cn_name": null,
    "alternate_name": "Benzene, 1-(2-bromoethyl)-3-chloro-;1-(2-Bromoethyl)-3-chlorobenzene;2-(3-Chlorophenyl)-1-bromoethane;3-Chlorophenethyl bromide;2-(3-Chlorophenyl)ethyl bromide",
    "duplicated_cas_no": "",
    "SMILES": "C(CBr)C1=CC(Cl)=CC=C1",
    "meta_data": {
        "InChI": "InChI=1S/C8H8BrCl/c9-5-4-7-2-1-3-8(10)6-7/h1-3,6H,4-5H2",
        "InChIKey": null,
        "Canonical SMILES": "ClC1=CC=CC(=C1)CCBr",
        "Molecular Formula": "C<sub>8</sub>H<sub>8</sub>BrCl",
        "Molecular Mass": "219.51",
        "Boiling Point": "85 °C @ Press: 0.1 Torr"
    }
}