{
    "cas_no": "105-64-6",
    "key_name": "Diisopropyl peroxydicarbonate",
    "cn_name": "过氧化二碳酸二异丙酯;",
    "alternate_name": "Peroxydicarbonic acid, <em>C</em>,<em>C</em>′-bis(1-methylethyl) ester;Peroxydicarbonic acid, diisopropyl ester;Peroxydicarbonic acid, bis(1-methylethyl) ester;Diisopropyl perdicarbonate;Diisopropyl peroxydicarbonate;Isopropyl peroxydicarbonate;Diisopropyl peroxydiformate;Luperox IPP;Di-<em>iso</em>-propyl peroxydicarbonate;Peroyl IPP;IPP;Diisopropyl percarbonate;Perkadox IPP;Bisisopropyl peroxydicarbonate;Kayacarbon I 20;IPP 27;Luperox IPP 27;Perbutyl IPP 50",
    "duplicated_cas_no": "1415121-31-1",
    "SMILES": "C(OOC(OC(C)C)=O)(OC(C)C)=O",
    "meta_data": {
        "InChI": "InChI=1S/C8H14O6/c1-5(2)11-7(9)13-14-8(10)12-6(3)4/h5-6H,1-4H3",
        "InChIKey": null,
        "Canonical SMILES": "O=C(OOC(=O)OC(C)C)OC(C)C",
        "Molecular Formula": "C<sub>8</sub>H<sub>14</sub>O<sub>6</sub>",
        "Molecular Mass": "206.19",
        "Boiling Point": "47 °C @ Press: 100 Torr",
        "Melting Point": "8-10 °C",
        "Density": "1.080 g/cm³ @ Temp: 15.5 °C"
    }
}