{
    "cas_no": "6178-44-5",
    "key_name": "Ethyl 3,4,5-trimethoxybenzoate",
    "cn_name": "3,4,5-三甲氧基苯甲酸乙酯;",
    "alternate_name": "Benzoic acid, 3,4,5-trimethoxy-, ethyl ester;Ethyl 3,4,5-trimethoxybenzoate;NSC 26825;3,4,5-Trimethoxybenzoic acid ethyl ester",
    "duplicated_cas_no": "",
    "SMILES": "O(C)C1=C(OC)C=C(C(OCC)=O)C=C1OC",
    "meta_data": {
        "InChI": "InChI=1S/C12H16O5/c1-5-17-12(13)8-6-9(14-2)11(16-4)10(7-8)15-3/h6-7H,5H2,1-4H3",
        "InChIKey": null,
        "Canonical SMILES": "O=C(OCC)C1=CC(OC)=C(OC)C(OC)=C1",
        "Molecular Formula": "C<sub>12</sub>H<sub>16</sub>O<sub>5</sub>",
        "Molecular Mass": "240.25",
        "Boiling Point": "180-181 °C @ Press: 12 Torr",
        "Melting Point": "53 °C"
    }
}