{
    "cas_no": "174501-64-5",
    "key_name": "1-Butyl-3-methylimidazolium hexafluorophosphate",
    "cn_name": "1-丁基-3-甲基咪唑六氟磷酸盐;1-丁基-3-甲基六氟磷酸盐咪唑鎓;",
    "alternate_name": "1<em>H</em>-Imidazolium, 3-butyl-1-methyl-, hexafluorophosphate(1-) (1:1);1<em>H</em>-Imidazolium, 1-butyl-3-methyl-, hexafluorophosphate(1-);1-Butyl-3-methylimidazolium hexafluorophosphate;1-Butyl-3-methyl-1<em>H</em>-imidazolium hexafluorophosphate;1-<em>n</em>-Butyl-3-methylimidazolium hexafluorophosphate;3-Butyl-1-methylimidazolium hexafluorophosphate;1-Butyl-3-methyl-1<em>H</em>-imidazolium hexafluorophosphate(1-);BmimPF<sub>6</sub>;1-Methyl-3-butyl imidazolium hexafluorophosphate;1-Butyl-3-methylimidazolium hexafluorophosphate(1-);<em>N</em>-Butyl-<em>N</em>′-methylimidazolium hexafluorophosphate;LP 104;Bmim hexafluorophosphate;Bmim hexafluorophosphate(1-);BMI-PF 6;1-Butyl-3-methylimidazolinium hexafluorophosphate;Butylmethylimidazolium hexafluorophosphate;[C<sub>4</sub>Mim<sup>+</sup>][PF<sub>6</sub><sup>-</sup>];3-Butyl-1-methyl-1<em>H</em>-imidazol-3-ium hexafluorophosphate;A 33092;DR 515",
    "duplicated_cas_no": "1402596-70-6;2633027-01-5",
    "SMILES": "C(CCC)[N+]1=CN(C)C=C1.[P+5]([F-])([F-])([F-])([F-])([F-])[F-]",
    "meta_data": {
        "InChI": "InChI=1S/C8H15N2.F6P/c1-3-4-5-10-7-6-9(2)8-10;1-7(2,3,4,5)6/h6-8H,3-5H2,1-2H3;/q+1;-1",
        "InChIKey": null,
        "Canonical SMILES": "[F-][P+5]([F-])([F-])([F-])([F-])[F-].C1=C[N+](=CN1C)CCCC",
        "Molecular Formula": "C<sub>8</sub>H<sub>15</sub>N<sub>2</sub>.F<sub>6</sub>P",
        "Molecular Mass": "",
        "Melting Point": "10.36 °C",
        "Density": "1.396 g/cm³"
    }
}