{
    "cas_no": "87-99-0",
    "key_name": "Xylitol",
    "cn_name": "木糖醇;1,2,3,4,5-五羟基戊烷;",
    "alternate_name": "Xylitol;Xylite (sugar);Xylite;Klinit;Xyliton;Kylit;Wood sugar alcohol;Xylisorb;Xylitol C;Xylitol CM 90;Xylit;NSC 25283;Xylitab 100;Xylitab DC;Xylisorb 300;Xylisorb 700;Xylitab 300;C-Xylidex CR 16055;Xylit XC;Fluorette;<span class=\"text-smallcaps\">D</smallcap><smallcap>L</span>-Xylitol;<em>meso</em>-Xylitol;Eutrit;<em>xylo</em>-Pentitol;Xylitol P;X 0018;Xylite P;Xivia CM 90;MeSH ID: D014993;Genencare XL;E 967;Xylishine",
    "duplicated_cas_no": "7313-55-5;12426-00-5;16277-71-7;37191-59-6;75398-81-1;84709-42-2",
    "SMILES": "C(C(CO)O)(C(CO)O)O",
    "meta_data": {
        "InChI": "InChI=1S/C5H12O5/c6-1-3(8)5(10)4(9)2-7/h3-10H,1-2H2",
        "InChIKey": null,
        "Canonical SMILES": "OCC(O)C(O)C(O)CO",
        "Molecular Formula": "C<sub>5</sub>H<sub>12</sub>O<sub>5</sub>",
        "Molecular Mass": "152.15",
        "Boiling Point": "216 °C",
        "Melting Point": "93.5 °C",
        "Density": "~1.35 g/cm³"
    }
}