{
    "cas_no": "41826-92-0",
    "key_name": "Trepibutone",
    "cn_name": "曲匹布通;舒胆通;3-(2,4,5-三乙氧基苯甲酰基)丙酸;",
    "alternate_name": "Benzenebutanoic acid, 2,4,5-triethoxy-γ-oxo-;2,4,5-Triethoxy-γ-oxobenzenebutanoic acid;AA 149;Trepibutone;Supacal",
    "duplicated_cas_no": "",
    "SMILES": "C(CCC(O)=O)(=O)C1=C(OCC)C=C(OCC)C(OCC)=C1",
    "meta_data": {
        "InChI": "InChI=1S/C16H22O6/c1-4-20-13-10-15(22-6-3)14(21-5-2)9-11(13)12(17)7-8-16(18)19/h9-10H,4-8H2,1-3H3,(H,18,19)",
        "InChIKey": null,
        "Canonical SMILES": "O=C(O)CCC(=O)C1=CC(OCC)=C(OCC)C=C1OCC",
        "Molecular Formula": "C<sub>16</sub>H<sub>22</sub>O<sub>6</sub>",
        "Molecular Mass": "310.34",
        "Melting Point": "150.5 °C"
    }
}