{
    "cas_no": "528-43-8",
    "key_name": "Magnolol",
    "cn_name": "厚朴酚;5\",5-二烯丙基-2,2\"-联苯二酚;",
    "alternate_name": "[1,1′-Biphenyl]-2,2′-diol, 5,5′-di-2-propen-1-yl-;2,2′-Bichavicol;2,2′-Biphenyldiol, 5,5′-diallyl-;[1,1′-Biphenyl]-2,2′-diol, 5,5′-di-2-propenyl-;5,5′-Di-2-propen-1-yl[1,1′-biphenyl]-2,2′-diol;Magnolol;5,5′-Diallyl-2,2′-biphenyldiol;NSC 293099;2-(2-Hydroxy-5-prop-2-enylphenyl)-4-prop-2-enylphenol;E 100338",
    "duplicated_cas_no": "",
    "SMILES": "OC=1C(=CC(CC=C)=CC1)C2=CC(CC=C)=CC=C2O",
    "meta_data": {
        "InChI": "InChI=1S/C18H18O2/c1-3-5-13-7-9-17(19)15(11-13)16-12-14(6-4-2)8-10-18(16)20/h3-4,7-12,19-20H,1-2,5-6H2",
        "InChIKey": null,
        "Canonical SMILES": "OC=1C=CC(=CC1C2=CC(=CC=C2O)CC=C)CC=C",
        "Molecular Formula": "C<sub>18</sub>H<sub>18</sub>O<sub>2</sub>",
        "Molecular Mass": "266.33",
        "Boiling Point": "178-180 °C @ Press: 1 Torr",
        "Melting Point": "103 °C"
    }
}