{
    "cas_no": "117977-21-6",
    "key_name": "Rabeprazole-thioether",
    "cn_name": "2-[[[4-(3-甲氧基丙氧基)-3-甲基吡啶-2-基]甲基]硫代]-1H-苯并咪唑;",
    "alternate_name": "1<em>H</em>-Benzimidazole, 2-[[[4-(3-methoxypropoxy)-3-methyl-2-pyridinyl]methyl]thio]-;2-[[[4-(3-Methoxypropoxy)-3-methyl-2-pyridinyl]methyl]thio]-1<em>H</em>-benzimidazole;H 295/43;2-[[[3-Methyl-4-(3-methoxypropoxy)-2-pyridyl]methyl]thio]-1<em>H</em>-benzimidazole;Rabeprazole-thioether;2-[((4-(3-Methoxypropoxy)-3-methylpyridine-2-yl)methyl)thio]-1<em>H</em>-benzimidazole;2-(((4-(3-Methoxypropoxy)-3-methylpyridin-2-yl)methyl)thio)-1<em>H</em>-benzo[<em>d</em>]imidazole;2-[[4-(3-Methoxypropoxy)-3-methylpyridin-2-yl]methylsulfanyl]-1<em>H</em>-benzimidazole",
    "duplicated_cas_no": "909251-55-4",
    "SMILES": "S(CC1=C(C)C(OCCCOC)=CC=N1)C=2NC=3C(N2)=CC=CC3",
    "meta_data": {
        "InChI": "InChI=1S/C18H21N3O2S/c1-13-16(19-9-8-17(13)23-11-5-10-22-2)12-24-18-20-14-6-3-4-7-15(14)21-18/h3-4,6-9H,5,10-12H2,1-2H3,(H,20,21)",
        "InChIKey": null,
        "Canonical SMILES": "N=1C=CC(OCCCOC)=C(C1CSC2=NC=3C=CC=CC3N2)C",
        "Molecular Formula": "C<sub>18</sub>H<sub>21</sub>N<sub>3</sub>O<sub>2</sub>S",
        "Molecular Mass": "343.44",
        "Melting Point": "111-112 °C"
    }
}