{
    "cas_no": "18997-19-8",
    "key_name": "Chloromethyl pivalate",
    "cn_name": "特戊酸氯甲酯;叔戊酸氯甲酯;新戊酸氯甲酯;2,2-二甲基丙酸氯甲酯;",
    "alternate_name": "Propanoic acid, 2,2-dimethyl-, chloromethyl ester;Pivalic acid, chloromethyl ester;Methanol, chloro-, pivalate;Chloromethyl 2,2-dimethylpropionate;Pivaloyloxymethyl chloride;Chloromethyl trimethylacetate;[(<em>tert</em>-Butylcarbonyl)oxy]methyl chloride;α,α-Dimethylpropionyloxymethyl chloride;Chloromethyl pivalate;Chloromethyl 2,2-dimethylpropanoate;(2,2-Dimethyl-1-oxopropoxy)methyl chloride;2,2-Dimethylpropionic acid chloromethyl ester;POM-Cl",
    "duplicated_cas_no": "",
    "SMILES": "C(C(C)(C)C)(OCCl)=O",
    "meta_data": {
        "InChI": "InChI=1S/C6H11ClO2/c1-6(2,3)5(8)9-4-7/h4H2,1-3H3",
        "InChIKey": null,
        "Canonical SMILES": "O=C(OCCl)C(C)(C)C",
        "Molecular Formula": "C<sub>6</sub>H<sub>11</sub>ClO<sub>2</sub>",
        "Molecular Mass": "150.60",
        "Boiling Point": "80 °C @ Press: 15 mmHg",
        "Melting Point": "132-135 °C"
    }
}