{
    "cas_no": "358-67-8",
    "key_name": "Dimethoxymethyl(3,3,3-trifluoropropyl)silane",
    "cn_name": "3,3,3-三氟丙基甲基二甲氧基硅;",
    "alternate_name": "Silane, dimethoxymethyl(3,3,3-trifluoropropyl)-;Dimethoxymethyl(3,3,3-trifluoropropyl)silane;T 2842;(3,3,3-Trifluoropropyl)(methyl)dimethoxysilane;LS 1080;3,3,3-Trifluoropropyldimethoxymethylsilane;Methyl(3,3,3-trifluoropropyl)dimethoxysilane;FD 1001;SiSiB PC 9711;PC 9711",
    "duplicated_cas_no": "",
    "SMILES": "[Si](CCC(F)(F)F)(OC)(OC)C",
    "meta_data": {
        "InChI": "InChI=1S/C6H13F3O2Si/c1-10-12(3,11-2)5-4-6(7,8)9/h4-5H2,1-3H3",
        "InChIKey": null,
        "Canonical SMILES": "FC(F)(F)CC[Si](OC)(OC)C",
        "Molecular Formula": "C<sub>6</sub>H<sub>13</sub>F<sub>3</sub>O<sub>2</sub>Si",
        "Molecular Mass": "202.25",
        "Boiling Point": "118 °C",
        "Melting Point": "27 °C",
        "Density": "1.1 g/cm³"
    }
}