{
    "cas_no": "16898-52-5",
    "key_name": "4,4′-Trimethylenedipiperidine",
    "cn_name": "1,3-二(4-哌啶基)丙烷;4,4\"-(1,3-丙二基)双哌啶;",
    "alternate_name": "Piperidine, 4,4′-(1,3-propanediyl)bis-;Piperidine, 4,4′-trimethylenedi-;4,4′-(1,3-Propanediyl)bis[piperidine];DI-PIP;1,3-Bis(4-piperidyl)propane;4,4′-Trimethylenedipiperidine;4,4′-(1,3-Propanediyl)bispiperidine;1,3-Di-4-piperidylpropane;4,4′-Trimethylenepiperidine;NSC 96364;1,3-Bis(4-piperidinyl)propane",
    "duplicated_cas_no": "",
    "SMILES": "C(CCC1CCNCC1)C2CCNCC2",
    "meta_data": {
        "InChI": "InChI=1S/C13H26N2/c1(2-12-4-8-14-9-5-12)3-13-6-10-15-11-7-13/h12-15H,1-11H2",
        "InChIKey": null,
        "Canonical SMILES": "N1CCC(CC1)CCCC2CCNCC2",
        "Molecular Formula": "C<sub>13</sub>H<sub>26</sub>N<sub>2</sub>",
        "Molecular Mass": "210.36",
        "Boiling Point": "329 °C",
        "Melting Point": "67.1 °C"
    }
}