{
    "cas_no": "618-80-4",
    "key_name": "2,6-Dichloro-4-nitrophenol",
    "cn_name": "2,6-二氯-4-硝基苯酚;",
    "alternate_name": "Phenol, 2,6-dichloro-4-nitro-;2,6-Dichloro-4-nitrophenol;4-Nitro-2,6-dichlorophenol;DCNP;NSC 4123;2,6-Dichloro-<em>p</em>-nitrophenol",
    "duplicated_cas_no": "",
    "SMILES": "N(=O)(=O)C1=CC(Cl)=C(O)C(Cl)=C1",
    "meta_data": {
        "InChI": "InChI=1S/C6H3Cl2NO3/c7-4-1-3(9(11)12)2-5(8)6(4)10/h1-2,10H",
        "InChIKey": null,
        "Canonical SMILES": "O=N(=O)C1=CC(Cl)=C(O)C(Cl)=C1",
        "Molecular Formula": "C<sub>6</sub>H<sub>3</sub>Cl<sub>2</sub>NO<sub>3</sub>",
        "Molecular Mass": "208.00",
        "Melting Point": "125 °C"
    }
}