{
    "cas_no": "19241-16-8",
    "key_name": "2-Isothiocyanato-1,3-dimethylbenzene",
    "cn_name": "2,6-二甲基异硫氰酸苯酯;",
    "alternate_name": "Benzene, 2-isothiocyanato-1,3-dimethyl-;Isothiocyanic acid, 2,6-xylyl ester;2-Isothiocyanato-1,3-dimethylbenzene;2,6-Dimethylphenyl isothiocyanate;2,6-Xylyl isothiocyanate;NSC 172978;2,6-Dimethylphenyl thioisocyanate",
    "duplicated_cas_no": "",
    "SMILES": "N(=C=S)C1=C(C)C=CC=C1C",
    "meta_data": {
        "InChI": "InChI=1S/C9H9NS/c1-7-4-3-5-8(2)9(7)10-6-11/h3-5H,1-2H3",
        "InChIKey": null,
        "Canonical SMILES": "S=C=NC=1C(=CC=CC1C)C",
        "Molecular Formula": "C<sub>9</sub>H<sub>9</sub>NS",
        "Molecular Mass": "163.24",
        "Boiling Point": "89 °C @ Press: 2 Torr"
    }
}