{
    "cas_no": "437-64-9",
    "key_name": "Genkwanin",
    "cn_name": "4\",5-二羟基-7-甲氧基黄酮;4\",5-二羟基-7-甲氧基黄酮;芫花素;5,4\"-二羥-7-甲氧黃酮;",
    "alternate_name": "4<em>H</em>-1-Benzopyran-4-one, 5-hydroxy-2-(4-hydroxyphenyl)-7-methoxy-;Flavone, 4′,5-dihydroxy-7-methoxy-;Genkwanin;5-Hydroxy-2-(4-hydroxyphenyl)-7-methoxy-4<em>H</em>-1-benzopyran-4-one;4′,5-Dihydroxy-7-methoxyflavone;Apigenin 7-methyl ether;5,4′-Dihydroxy-7-methoxyflavone;7-<em>O</em>-Methylapigenin;Puddumetin;7-Methylapigenin;Apigenin 7-<em>O</em>-methyl ether",
    "duplicated_cas_no": "",
    "SMILES": "O=C1C=2C(OC(=C1)C3=CC=C(O)C=C3)=CC(OC)=CC2O",
    "meta_data": {
        "InChI": "InChI=1S/C16H12O5/c1-20-11-6-12(18)16-13(19)8-14(21-15(16)7-11)9-2-4-10(17)5-3-9/h2-8,17-18H,1H3",
        "InChIKey": null,
        "Canonical SMILES": "O=C1C=C(OC=2C=C(OC)C=C(O)C12)C=3C=CC(O)=CC3",
        "Molecular Formula": "C<sub>16</sub>H<sub>12</sub>O<sub>5</sub>",
        "Molecular Mass": "284.26",
        "Melting Point": "286 °C"
    }
}