{
    "cas_no": "503417-31-0",
    "key_name": "1-(4-Methylphenyl)cyclopropanamine",
    "cn_name": null,
    "alternate_name": "Cyclopropanamine, 1-(4-methylphenyl)-;1-(4-Methylphenyl)cyclopropanamine;1-<em>p</em>-Tolylcyclopropanamine;1-(4-Methylphenyl)cyclopropan-1-amine",
    "duplicated_cas_no": "",
    "SMILES": "NC1(CC1)C2=CC=C(C)C=C2",
    "meta_data": {
        "InChI": "InChI=1S/C10H13N/c1-8-2-4-9(5-3-8)10(11)6-7-10/h2-5H,6-7,11H2,1H3",
        "InChIKey": null,
        "Canonical SMILES": "NC1(C2=CC=C(C=C2)C)CC1",
        "Molecular Formula": "C<sub>10</sub>H<sub>13</sub>N",
        "Molecular Mass": "147.22",
        "Melting Point": "79 °C"
    }
}