{
    "cas_no": "16545-68-9",
    "key_name": "Cyclopropanol",
    "cn_name": null,
    "alternate_name": "Cyclopropanol;Cyclopropyl alcohol;Hydroxycyclopropane",
    "duplicated_cas_no": "",
    "SMILES": "OC1CC1",
    "meta_data": {
        "InChI": "InChI=1S/C3H6O/c4-3-1-2-3/h3-4H,1-2H2",
        "InChIKey": null,
        "Canonical SMILES": "OC1CC1",
        "Molecular Formula": "C<sub>3</sub>H<sub>6</sub>O",
        "Molecular Mass": "58.08",
        "Boiling Point": "100-103 °C",
        "Density": "9.9110 g/cm³ @ Temp: 20 °C"
    }
}