{
    "cas_no": "28197-66-2",
    "key_name": "<em>N</em>-[3-Acetyl-4-(2-oxiranylmethoxy)phenyl]butanamide",
    "cn_name": null,
    "alternate_name": "Butanamide, <em>N</em>-[3-acetyl-4-(2-oxiranylmethoxy)phenyl]-;Butyranilide, 3′-acetyl-4′-(2,3-epoxypropoxy)-;Butanamide, <em>N</em>-[3-acetyl-4-(oxiranylmethoxy)phenyl]-;<em>N</em>-[3-Acetyl-4-(2-oxiranylmethoxy)phenyl]butanamide",
    "duplicated_cas_no": "",
    "SMILES": "O(CC1CO1)C2=C(C(C)=O)C=C(NC(CCC)=O)C=C2",
    "meta_data": {
        "InChI": "InChI=1S/C15H19NO4/c1-3-4-15(18)16-11-5-6-14(13(7-11)10(2)17)20-9-12-8-19-12/h5-7,12H,3-4,8-9H2,1-2H3,(H,16,18)",
        "InChIKey": null,
        "Canonical SMILES": "O=C(NC1=CC=C(OCC2OC2)C(=C1)C(=O)C)CCC",
        "Molecular Formula": "C<sub>15</sub>H<sub>19</sub>NO<sub>4</sub>",
        "Molecular Mass": "277.32",
        "Melting Point": "126-128 °C"
    }
}