{
    "cas_no": "86-34-0",
    "key_name": "Phensuximide",
    "cn_name": null,
    "alternate_name": "2,5-Pyrrolidinedione, 1-methyl-3-phenyl-;Succinimide, <em>N</em>-methyl-2-phenyl-;1-Methyl-3-phenyl-2,5-pyrrolidinedione;Epimid;Lifene;<em>N</em>-Methyl-2-phenylsuccinimide;<em>N</em>-Methyl-α-phenylsuccinimide;Milontin;Phensuximide;1-Methyl-3-phenylsuccinimide;Succitimal;Mirontin;Phensuximid;Milonton;PM 334;<em>N</em>-Methyl-3-phenylsuccinimide;<em>RS</em>-Phensuximide;(±)-Phensuximide;Racemic phensuximide;<em>N</em>-Methyl-3-phenylpyrrolidinedione",
    "duplicated_cas_no": "34367-67-4",
    "SMILES": "O=C1C(CC(=O)N1C)C2=CC=CC=C2",
    "meta_data": {
        "InChI": "InChI=1S/C11H11NO2/c1-12-10(13)7-9(11(12)14)8-5-3-2-4-6-8/h2-6,9H,7H2,1H3",
        "InChIKey": null,
        "Canonical SMILES": "O=C1N(C(=O)C(C=2C=CC=CC2)C1)C",
        "Molecular Formula": "C<sub>11</sub>H<sub>11</sub>NO<sub>2</sub>",
        "Molecular Mass": "189.21",
        "Melting Point": "72 °C"
    }
}