{
    "cas_no": "115-19-5",
    "key_name": "2-Methyl-3-butyn-2-ol",
    "cn_name": "3-甲基丁炔醇-3;2-甲基-3-丁炔-2-醇;",
    "alternate_name": "3-Butyn-2-ol, 2-methyl-;2-Propyn-1-ol, 1,1-dimethyl-;2-Methyl-3-butyn-2-ol;Dimethylethynylcarbinol;2-Hydroxy-2-methyl-3-butyne;Dimethylacetylenecarbinol;Ethynyldimethylcarbinol;α,α-Dimethylpropargyl alcohol;1,1-Dimethyl-2-propyn-1-ol;1,1-Dimethyl-2-propynol;Dimethylethynylmethanol;1,1-Dimethylpropargyl alcohol;Dimethylacetylenylcarbinol;AB 32;2-Methyl-2-hydroxy-3-butyne;3-Methyl-3-hydroxy-1-butyne;Olfine B;3-Hydroxy-3-methyl-1-butyne;3-Methyl-1-butyn-3-ol;AB 32 (alcohol);2-Methyl-3-butyne-2-ol;(1-Hydroxy-1-methylethyl)acetylene;3-Methyl-3-hydroxybutyne;NSC 523;2-Ethynyl-2-propanol;Mebynol;3-Methyl-1-butyne-3-ol;2-Methy-3-butyn-2-ol",
    "duplicated_cas_no": "140705-79-9;67539-62-2;946073-41-2",
    "SMILES": "C(C#C)(C)(C)O",
    "meta_data": {
        "InChI": "InChI=1S/C5H8O/c1-4-5(2,3)6/h1,6H,2-3H3",
        "InChIKey": null,
        "Canonical SMILES": "C#CC(O)(C)C",
        "Molecular Formula": "C<sub>5</sub>H<sub>8</sub>O",
        "Molecular Mass": "84.12",
        "Boiling Point": "104 °C",
        "Melting Point": "3 °C",
        "Density": "0.8637 g/cm³ @ Temp: 15.5 °C"
    }
}