{
    "cas_no": "582-80-9",
    "key_name": "4-(Benzoylamino)benzoic acid",
    "cn_name": null,
    "alternate_name": "Benzoic acid, 4-(benzoylamino)-;Benzoic acid, <em>p</em>-benzamido-;4-(Benzoylamino)benzoic acid;4-Benzamidobenzoic acid;<em>N</em>-(4-Carboxyphenyl)benzamide;NSC 74676;<em>p</em>-(Benzoylamino)benzoic acid",
    "duplicated_cas_no": "",
    "SMILES": "C(NC1=CC=C(C(O)=O)C=C1)(=O)C2=CC=CC=C2",
    "meta_data": {
        "InChI": "InChI=1S/C14H11NO3/c16-13(10-4-2-1-3-5-10)15-12-8-6-11(7-9-12)14(17)18/h1-9H,(H,15,16)(H,17,18)",
        "InChIKey": null,
        "Canonical SMILES": "O=C(O)C1=CC=C(C=C1)NC(=O)C=2C=CC=CC2",
        "Molecular Formula": "C<sub>14</sub>H<sub>11</sub>NO<sub>3</sub>",
        "Molecular Mass": "241.24",
        "Melting Point": "278 °C"
    }
}