{
    "cas_no": "13275-42-8",
    "key_name": "2-(2-Bromophenyl)-1<em>H</em>-benzimidazole",
    "cn_name": null,
    "alternate_name": "1<em>H</em>-Benzimidazole, 2-(2-bromophenyl)-;Benzimidazole, 2-(<em>o</em>-bromophenyl)-;2-(2-Bromophenyl)-1<em>H</em>-benzimidazole;2-(2-Bromophenyl)benzimidazole;G 641;G 641 (biocide);NSC 128738;2-(2-Bromophenyl)-1<em>H</em>-benzo[<em>d</em>]imidazole;2-(2-Bromophenyl)-1<em>H</em>-1,3-benzodiazole",
    "duplicated_cas_no": "",
    "SMILES": "BrC1=C(C=2NC=3C(N2)=CC=CC3)C=CC=C1",
    "meta_data": {
        "InChI": "InChI=1S/C13H9BrN2/c14-10-6-2-1-5-9(10)13-15-11-7-3-4-8-12(11)16-13/h1-8H,(H,15,16)",
        "InChIKey": null,
        "Canonical SMILES": "BrC=1C=CC=CC1C2=NC=3C=CC=CC3N2",
        "Molecular Formula": "C<sub>13</sub>H<sub>9</sub>BrN<sub>2</sub>",
        "Molecular Mass": "273.13",
        "Melting Point": "246 °C"
    }
}