{
    "cas_no": "17095-20-4",
    "key_name": "1-Bromo-4-[(trimethylsilyl)methyl]benzene",
    "cn_name": null,
    "alternate_name": "Benzene, 1-bromo-4-[(trimethylsilyl)methyl]-;Silane, (<em>p</em>-bromobenzyl)trimethyl-;Silane, [(4-bromophenyl)methyl]trimethyl-;1-Bromo-4-[(trimethylsilyl)methyl]benzene;4-Bromobenzyltrimethylsilane;(<em>p</em>-Bromobenzyl)trimethylsilane;(4-Bromophenyl)methyl-trimethylsilane;[(4-Bromophenyl)methyl]trimethylsilane",
    "duplicated_cas_no": "",
    "SMILES": "C([Si](C)(C)C)C1=CC=C(Br)C=C1",
    "meta_data": {
        "InChI": "InChI=1S/C10H15BrSi/c1-12(2,3)8-9-4-6-10(11)7-5-9/h4-7H,8H2,1-3H3",
        "InChIKey": null,
        "Canonical SMILES": "BrC1=CC=C(C=C1)C[Si](C)(C)C",
        "Molecular Formula": "C<sub>10</sub>H<sub>15</sub>BrSi",
        "Molecular Mass": "243.22",
        "Boiling Point": "96 °C @ Press: 5 Torr",
        "Density": "1.1891 g/cm³ @ Temp: 20 °C"
    }
}