{
    "cas_no": "115-53-7",
    "key_name": "Sinomenine",
    "cn_name": "青藤碱;(9alpha,13alpha,14alpha)-7,8-二脱氢-4-羟基-3,7-二甲氧基-17-甲基吗啡喃-6-酮;",
    "alternate_name": "Morphinan-6-one, 7,8-didehydro-4-hydroxy-3,7-dimethoxy-17-methyl-, (9α,13α,14α)-;Sinomenine;9α,13α,14α-Morphinan-6-one, 7,8-didehydro-4-hydroxy-3,7-dimethoxy-17-methyl-;(9α,13α,14α)-7,8-Didehydro-4-hydroxy-3,7-dimethoxy-17-methylmorphinan-6-one;Cucoline;Kukoline;Sinomenin",
    "duplicated_cas_no": "1089764-83-9",
    "SMILES": "OC1=C2[C@]34[C@@]([C@](CC2=CC=C1OC)(N(C)CC3)[H])(C=C(OC)C(=O)C4)[H]",
    "meta_data": {
        "InChI": "InChI=1S/C19H23NO4/c1-20-7-6-19-10-14(21)16(24-3)9-12(19)13(20)8-11-4-5-15(23-2)18(22)17(11)19/h4-5,9,12-13,22H,6-8,10H2,1-3H3/t12-,13+,19-/m1/s1",
        "InChIKey": null,
        "Canonical SMILES": "O=C1C(OC)=CC2C3N(C)CCC2(C4=C(O)C(OC)=CC=C4C3)C1",
        "Molecular Formula": "C<sub>19</sub>H<sub>23</sub>NO<sub>4</sub>",
        "Molecular Mass": "329.39",
        "Melting Point": "162 °C"
    }
}