{
    "cas_no": "4727-50-8",
    "key_name": "Quinolinium, 1-ethyl-4-[3-(1-ethyl-4(1<em>H</em>)-quinolinylidene)-1-propen-1-yl]-, iodide (1:1)",
    "cn_name": "隐花青;1,1-二乙基-4,4-羰花青碘;",
    "alternate_name": "Quinolinium, 1-ethyl-4-[3-(1-ethyl-4(1<em>H</em>)-quinolinylidene)-1-propen-1-yl]-, iodide (1:1);Quinolinium, 1-ethyl-4-[3-(1-ethyl-4(1<em>H</em>)-quinolylidene)propenyl]-, iodide;Quinolinium, 1-ethyl-4-[3-(1-ethyl-4(1<em>H</em>)-quinolinylidene)-1-propenyl]-, iodide;1-Ethyl-4-[3-(1-ethyl-4(1<em>H</em>)-quinolylidene)propenyl]quinolinium iodide;1,1′-Diethyl-4,4′-carbocyanine iodide;1,1′-Diethyl-4,4′-quinocarbocyanine iodide;Cryptocyanine O.A. 2;Cryptocyanine;Cryptocyanin;1-Ethyl-4-[3-[1-ethyl-4(1<em>H</em>)-quinolylidene]-1-propenyl]quinolinium iodide;Kryptocyanine iodide;NK 5 (dye);Cryptocyanine iodide;NK 5;1,1′-Diethylquino-(4)-carbocyanine iodide;Kryptocyanin;Eastman 1334;1-Ethyl-4-[3-(1-ethyl-4(1<em>H</em>)quinolinylidene)-1-propenyl]quinolinium iodide;NSC 34391;S-LAM 66;S-BAH 28;S-FPM 2;1-Ethyl-4-[3-(1-ethyl-1,4-dihydroquinolin-4-ylidene)prop-1-en-1-yl]quinolin-1-ium iodide",
    "duplicated_cas_no": "116777-19-6",
    "SMILES": "C(C=CC=1C2=C([N+](CC)=CC1)C=CC=C2)=C3C=4C(N(CC)C=C3)=CC=CC4.[I-]",
    "meta_data": {
        "InChI": "InChI=1S/C25H25N2.HI/c1-3-26-18-16-20(22-12-5-7-14-24(22)26)10-9-11-21-17-19-27(4-2)25-15-8-6-13-23(21)25;/h5-19H,3-4H2,1-2H3;1H/q+1;/p-1",
        "InChIKey": null,
        "Canonical SMILES": "[I-].C=1C=CC2=C(C1)C(=CC=CC3=CC=[N+](C=4C=CC=CC34)CC)C=CN2CC",
        "Molecular Formula": "C<sub>25</sub>H<sub>25</sub>N<sub>2</sub>.I",
        "Molecular Mass": "",
        "Melting Point": "253-254 °C"
    }
}