{
    "cas_no": "12022-95-6",
    "key_name": "Iron silicide (FeSi)",
    "cn_name": null,
    "alternate_name": "Iron silicide (FeSi);Iron monosilicide;Iron silicide (Fe<sub>0.5</sub>Si<sub>0.5</sub>)",
    "duplicated_cas_no": "264125-01-1;444005-02-1;2077101-15-4;2108078-03-9",
    "SMILES": "",
    "meta_data": {
        "InChI": "",
        "InChIKey": null,
        "Canonical SMILES": "",
        "Molecular Formula": "FeSi",
        "Molecular Mass": "",
        "Melting Point": "1410 °C"
    }
}