{
    "cas_no": "155-09-9",
    "key_name": "Tranylcypromine",
    "cn_name": null,
    "alternate_name": "Cyclopropanamine, 2-phenyl-, (1<em>R</em>,2<em>S</em>)-<em>rel</em>-;Cyclopropylamine, 2-phenyl-, <em>trans</em>-(±)-;Cyclopropanamine, 2-phenyl-, <em>trans</em>-(±)-;<em>rel</em>-(1<em>R</em>,2<em>S</em>)-2-Phenylcyclopropanamine;<em>dl</em>-Tranylcypromine;Tranylcypromine;Transamine;SKF 385;<em>trans</em>-<em>dl</em>-2-Phenylcyclopropylamine;(±)-Tranylcypromine;<em>trans</em>-(±)-2-Phenylcyclopropylamine;(<em>RS</em>)-Tranylcypromine;<em>trans</em>-2-Phenylcyclopropylamine;<em>trans</em>-Phenylcyclopropylamine;<em>trans</em>-2-Phenylcyclopropanamine;<em>trans</em>-2-Phenyl-1-cyclopropylamine;<em>trans</em>-1-Amino-2-phenylcyclopropane;(<em>RS</em>)-<em>trans</em>-2-Phenylcyclopropylamine;<em>trans</em>-SKF 385;NSC 80664;(1<em>R</em>,2<em>S</em>)-<em>rel</em>-2-Phenylcyclopropanamine;(±)-<em>trans</em>-2-Phenylcyclopropylamine;<em>trans</em>-2-Phenylcyclopropan-1-amine;MeSH ID: D014191",
    "duplicated_cas_no": "95-62-5",
    "SMILES": "N[C@H]1[C@@H](C1)C2=CC=CC=C2",
    "meta_data": {
        "InChI": "InChI=1/C9H11N/c10-9-6-8(9)7-4-2-1-3-5-7/h1-5,8-9H,6,10H2/t8-,9+/s2",
        "InChIKey": null,
        "Canonical SMILES": "NC1CC1C=2C=CC=CC2",
        "Molecular Formula": "C<sub>9</sub>H<sub>11</sub>N",
        "Molecular Mass": "133.19",
        "Boiling Point": "79-80 °C @ Press: 1.5-1.6 Torr",
        "Melting Point": "28 °C"
    }
}