{
    "cas_no": "52196-74-4",
    "key_name": "2-Chloro-1,4-diethoxybenzene",
    "cn_name": "2-氯-1,4-二乙氧基苯; 2,5-二乙氧基氯苯;",
    "alternate_name": "Benzene, 2-chloro-1,4-diethoxy-;2-Chloro-1,4-diethoxybenzene;2,5-Diethoxy-1-chlorobenzene;2,5-Diethoxychlorobenzene;NSC 89737",
    "duplicated_cas_no": "",
    "SMILES": "O(CC)C1=C(Cl)C=C(OCC)C=C1",
    "meta_data": {
        "InChI": "InChI=1S/C10H13ClO2/c1-3-12-8-5-6-10(13-4-2)9(11)7-8/h5-7H,3-4H2,1-2H3",
        "InChIKey": null,
        "Canonical SMILES": "ClC1=CC(OCC)=CC=C1OCC",
        "Molecular Formula": "C<sub>10</sub>H<sub>13</sub>ClO<sub>2</sub>",
        "Molecular Mass": "200.66",
        "Boiling Point": "128-129 °C @ Press: 9 Torr",
        "Melting Point": "15 °C"
    }
}