{
    "cas_no": "98-54-4",
    "key_name": "4-<em>tert</em>-Butylphenol",
    "cn_name": "4-叔丁基苯酚;对叔丁基苯酚;",
    "alternate_name": "Phenol, 4-(1,1-dimethylethyl)-;Phenol, <em>p</em>-<em>tert</em>-butyl-;4-(1,1-Dimethylethyl)phenol;Butylphen;<em>p</em>-<em>tert</em>-Butylphenol;4-<em>tert</em>-Butylphenol;PTBP;NSC 3697;B 110666",
    "duplicated_cas_no": "1334243-56-9",
    "SMILES": "C(C)(C)(C)C1=CC=C(O)C=C1",
    "meta_data": {
        "InChI": "InChI=1S/C10H14O/c1-10(2,3)8-4-6-9(11)7-5-8/h4-7,11H,1-3H3",
        "InChIKey": null,
        "Canonical SMILES": "OC1=CC=C(C=C1)C(C)(C)C",
        "Molecular Formula": "C<sub>10</sub>H<sub>14</sub>O",
        "Molecular Mass": "150.22",
        "Boiling Point": "237 °C",
        "Melting Point": "98 °C",
        "Density": "0.9 g/cm³"
    }
}