{
    "cas_no": "5434-21-9",
    "key_name": "4-Aminophthalic acid",
    "cn_name": "4-氨基邻苯二甲酸;",
    "alternate_name": "1,2-Benzenedicarboxylic acid, 4-amino-;4-Amino-1,2-benzenedicarboxylic acid;4-Aminophthalic acid;4-Aminophthalate;Aniline-3,4-dicarboxylic acid;NSC 15742;1-Amino-3,4-dicarboxy-benzene",
    "duplicated_cas_no": "",
    "SMILES": "C(O)(=O)C1=C(C(O)=O)C=C(N)C=C1",
    "meta_data": {
        "InChI": "InChI=1S/C8H7NO4/c9-4-1-2-5(7(10)11)6(3-4)8(12)13/h1-3H,9H2,(H,10,11)(H,12,13)",
        "InChIKey": null,
        "Canonical SMILES": "O=C(O)C1=CC=C(N)C=C1C(=O)O",
        "Molecular Formula": "C<sub>8</sub>H<sub>7</sub>NO<sub>4</sub>",
        "Molecular Mass": "181.15",
        "Melting Point": "&gt;300 °C"
    }
}