{
    "cas_no": "81131-70-6",
    "key_name": "Pravastatin sodium",
    "cn_name": "普伐他汀钠;1,2,6,7,8,8a-六氢-2-甲基-8-(2-甲基丁酰氧基)-1-萘-3\",5\",6-三羟基庚酸钠盐;",
    "alternate_name": "1-Naphthaleneheptanoic acid, 1,2,6,7,8,8a-hexahydro-β,δ,6-trihydroxy-2-methyl-8-[(2<em>S</em>)-2-methyl-1-oxobutoxy]-, sodium salt (1:1), (β<em>R</em>,δ<em>R</em>,1<em>S</em>,2<em>S</em>,6<em>S</em>,8<em>S</em>,8a<em>R</em>)-;1-Naphthaleneheptanoic acid, 1,2,6,7,8,8a-hexahydro-β,δ,6-trihydroxy-2-methyl-8-(2-methyl-1-oxobutoxy)-, monosodium salt, [1<em>S</em>-[1α(β<em>S</em>*,δ<em>S</em>*),2α,6α,8β(<em>R</em>*),8aα]]-;1-Naphthaleneheptanoic acid, 1,2,6,7,8,8a-hexahydro-β,δ,6-trihydroxy-2-methyl-8-[(2<em>S</em>)-2-methyl-1-oxobutoxy]-, monosodium salt, (β<em>R</em>,δ<em>R</em>,1<em>S</em>,2<em>S</em>,6<em>S</em>,8<em>S</em>,8a<em>R</em>)-;CS 514;SQ 31000;Epastatin sodium;Pravastatin sodium;Mevalotin;Pravachol;Sodium pravastatin;Pravastatin sodium salt;Pravacol;Vasten;Lipostat;Selektine;Elisor;Pravasine;Liprevil;Prava;Pravaselect;Pravasin;Selipran;Selectin;Lipidal;Oliprevin;3β-Hydroxycompactin sodium salt;Eptastatin sodium;Mevan;Pravator;Pravastin",
    "duplicated_cas_no": "115873-26-2;81131-73-9;85956-24-7;87098-76-8",
    "SMILES": "C(C[C@H](C[C@H](CC(O)=O)O)O)[C@@H]1[C@]2([C@@H](OC([C@H](CC)C)=O)C[C@H](O)C=C2C=C[C@@H]1C)[H].[Na]",
    "meta_data": {
        "InChI": "InChI=1S/C23H36O7.Na/c1-4-13(2)23(29)30-20-11-17(25)9-15-6-5-14(3)19(22(15)20)8-7-16(24)10-18(26)12-21(27)28;/h5-6,9,13-14,16-20,22,24-26H,4,7-8,10-12H2,1-3H3,(H,27,28);/t13-,14-,16+,17+,18+,19-,20-,22-;/m0./s1",
        "InChIKey": null,
        "Canonical SMILES": "[Na].O=C(O)CC(O)CC(O)CCC1C(C=CC2=CC(O)CC(OC(=O)C(C)CC)C21)C",
        "Molecular Formula": "C<sub>23</sub>H<sub>36</sub>O<sub>7</sub>.Na",
        "Molecular Mass": "",
        "Melting Point": "181.5 °C"
    }
}