{
    "cas_no": "34761-47-2",
    "key_name": "2,4,4,5,7,7,8,10,10,11,13,13,14,14,15,15,15-Heptadecafluoro-2,5,8,11-tetrakis(trifluoromethyl)-3,6,9,12-tetraoxapentadecanoyl fluoride",
    "cn_name": null,
    "alternate_name": "3,6,9,12-Tetraoxapentadecanoyl fluoride, 2,4,4,5,7,7,8,10,10,11,13,13,14,14,15,15,15-heptadecafluoro-2,5,8,11-tetrakis(trifluoromethyl)-;2,4,4,5,7,7,8,10,10,11,13,13,14,14,15,15,15-Heptadecafluoro-2,5,8,11-tetrakis(trifluoromethyl)-3,6,9,12-tetraoxapentadecanoyl fluoride;2,3,3,3-Tetrafluoro-2-[1,1,2,3,3,3-hexafluoro-2-[1,1,2,3,3,3-hexafluoro-2-[1,1,2,3,3,3-hexafluoro-2-(1,1,2,2,3,3,3-heptafluoropropoxy)propoxy]propoxy]propoxy]propanoyl fluoride",
    "duplicated_cas_no": "",
    "SMILES": "C(C(OC(C(OC(C(OC(C(F)(F)F)(C(F)=O)F)(F)F)(C(F)(F)F)F)(F)F)(C(F)(F)F)F)(F)F)(OC(C(C(F)(F)F)(F)F)(F)F)(C(F)(F)F)F",
    "meta_data": {
        "InChI": "InChI=1S/C15F30O5/c16-1(46)2(17,7(23,24)25)47-13(40,41)4(20,9(29,30)31)49-15(44,45)6(22,11(35,36)37)50-14(42,43)5(21,10(32,33)34)48-12(38,39)3(18,19)8(26,27)28",
        "InChIKey": null,
        "Canonical SMILES": "O=C(F)C(F)(OC(F)(F)C(F)(OC(F)(F)C(F)(OC(F)(F)C(F)(OC(F)(F)C(F)(F)C(F)(F)F)C(F)(F)F)C(F)(F)F)C(F)(F)F)C(F)(F)F",
        "Molecular Formula": "C<sub>15</sub>F<sub>30</sub>O<sub>5</sub>",
        "Molecular Mass": "830.11",
        "Boiling Point": "162-163 °C @ Press: 760 Torr"
    }
}