{
    "cas_no": "106566-58-9",
    "key_name": "Tellurate(1-), trichloro[1,2-ethanediolato(2-)-κ<em>O</em><sup>1</sup>,κ<em>O</em><sup>2</sup>]-, ammonium (1:1), (<em>SP</em>-5-22)-",
    "cn_name": null,
    "alternate_name": "Tellurate(1-), trichloro[1,2-ethanediolato(2-)-κ<em>O</em><sup>1</sup>,κ<em>O</em><sup>2</sup>]-, ammonium (1:1), (<em>SP</em>-5-22)-;Tellurate(1-), trichloro[1,2-ethanediolato(2-)-<em>O</em>,<em>O</em>′]-, ammonium, (<em>SP</em>-5-22)-;1,2-Ethanediol, tellurium complex;AS 101 (pharmaceutical);AS 101;Ossirene;Ammonium trichlorotellurate;Ammonium trichloro[1,2-ethanediolato-<em>O</em>,<em>O</em>′]-tellurate",
    "duplicated_cas_no": "",
    "SMILES": "[Cl-][Te+4]1([Cl-])([Cl-])[O-]CC[O-]1.[NH4+]",
    "meta_data": {
        "InChI": "InChI=1S/C2H4Cl3O2Te.H3N/c3-8(4,5)6-1-2-7-8;/h1-2H2;1H3/q-1;/p+1",
        "InChIKey": null,
        "Canonical SMILES": "[Cl-][Te+4]1([Cl-])([Cl-])[O-]CC[O-]1.[NH4+]",
        "Molecular Formula": "C<sub>2</sub>H<sub>4</sub>Cl<sub>3</sub>O<sub>2</sub>Te.H<sub>4</sub>N",
        "Molecular Mass": "",
        "Melting Point": "233 °C (decomp)"
    }
}