{
    "cas_no": "16631-25-7",
    "key_name": "Tetradecanoic acid, 2-bromo-, methyl ester",
    "cn_name": "2-溴代十四酸甲酯;",
    "alternate_name": "Tetradecanoic acid, 2-bromo-, methyl ester;Methyl 2-bromotetradecanoate;Methyl 2-bromo-1-tetradecanoate",
    "duplicated_cas_no": "135312-88-8",
    "SMILES": "C(CC(C(OC)=O)Br)CCCCCCCCCC",
    "meta_data": {
        "InChI": "InChI=1S/C15H29BrO2/c1-3-4-5-6-7-8-9-10-11-12-13-14(16)15(17)18-2/h14H,3-13H2,1-2H3",
        "InChIKey": null,
        "Canonical SMILES": "O=C(OC)C(Br)CCCCCCCCCCCC",
        "Molecular Formula": "C<sub>15</sub>H<sub>29</sub>BrO<sub>2</sub>",
        "Molecular Mass": "321.29",
        "Boiling Point": "149 °C @ Press: 0.9998 Torr",
        "Density": "1.108 g/cm³ @ Temp: 20 °C"
    }
}