{
    "cas_no": "1084-76-0",
    "key_name": "<em>N</em>-(2,4-Dinitrophenyl)glycine",
    "cn_name": "N-(2,4-二硝基苯)甘氨酸;",
    "alternate_name": "Glycine, <em>N</em>-(2,4-dinitrophenyl)-;<em>N</em>-(2,4-Dinitrophenyl)glycine;2,4-Dinitrophenylglycine;<em>N</em><sup>α</sup>-2,4-Dinitrophenylglycine;<em>N</em>-2,4-DNP-glycine;DNP-glycine;NSC 37410;2-(2,4-Dinitroanilino)acetic acid;2-[(2,4-Dinitrophenyl)amino]acetic acid",
    "duplicated_cas_no": "",
    "SMILES": "N(=O)(=O)C1=C(NCC(O)=O)C=CC(N(=O)=O)=C1",
    "meta_data": {
        "InChI": "InChI=1S/C8H7N3O6/c12-8(13)4-9-6-2-1-5(10(14)15)3-7(6)11(16)17/h1-3,9H,4H2,(H,12,13)",
        "InChIKey": null,
        "Canonical SMILES": "O=C(O)CNC1=CC=C(C=C1N(=O)=O)N(=O)=O",
        "Molecular Formula": "C<sub>8</sub>H<sub>7</sub>N<sub>3</sub>O<sub>6</sub>",
        "Molecular Mass": "241.16",
        "Melting Point": "205 °C"
    }
}