{
    "cas_no": "144-48-9",
    "key_name": "Iodoacetamide",
    "cn_name": "2-碘乙酰胺;",
    "alternate_name": "Acetamide, 2-iodo-;Acetamide, iodo-;2-Iodoacetamide;α-Iodoacetamide;Iodoacetamide;Monoiodoacetamide;Surauto;NSC 9581;Deltop;MeSH ID: D007460",
    "duplicated_cas_no": "",
    "SMILES": "C(CI)(N)=O",
    "meta_data": {
        "InChI": "InChI=1S/C2H4INO/c3-1-2(4)5/h1H2,(H2,4,5)",
        "InChIKey": null,
        "Canonical SMILES": "O=C(N)CI",
        "Molecular Formula": "C<sub>2</sub>H<sub>4</sub>INO",
        "Molecular Mass": "184.96",
        "Melting Point": "94.5 °C"
    }
}