{
    "cas_no": "72178-02-0",
    "key_name": "Fomesafen",
    "cn_name": "氟磺胺草醚;5-[2-氯-4-(三氟甲基)苯氧基]-N-(甲基磺酰基)-2-硝基苯甲酰胺;",
    "alternate_name": "Benzamide, 5-[2-chloro-4-(trifluoromethyl)phenoxy]-<em>N</em>-(methylsulfonyl)-2-nitro-;5-[2-Chloro-4-(trifluoromethyl)phenoxy]-<em>N</em>-(methylsulfonyl)-2-nitrobenzamide;Fomesafen;Flex;<em>N</em>-Methanesulfonyl-5-[(2-chloro-α,α,α-trifluoro-4-tolyl)oxy]-2-nitrobenzamide;Reflex;Flexstar;PP021;Reflex (herbicide)",
    "duplicated_cas_no": "",
    "SMILES": "C(NS(C)(=O)=O)(=O)C1=C(N(=O)=O)C=CC(OC2=C(Cl)C=C(C(F)(F)F)C=C2)=C1",
    "meta_data": {
        "InChI": "InChI=1S/C15H10ClF3N2O6S/c1-28(25,26)20-14(22)10-7-9(3-4-12(10)21(23)24)27-13-5-2-8(6-11(13)16)15(17,18)19/h2-7H,1H3,(H,20,22)",
        "InChIKey": null,
        "Canonical SMILES": "O=C(NS(=O)(=O)C)C1=CC(OC2=CC=C(C=C2Cl)C(F)(F)F)=CC=C1N(=O)=O",
        "Molecular Formula": "C<sub>15</sub>H<sub>10</sub>ClF<sub>3</sub>N<sub>2</sub>O<sub>6</sub>S",
        "Molecular Mass": "438.76",
        "Melting Point": "220-221 °C",
        "Density": "1.28 g/cm³ @ Temp: 20 °C"
    }
}