{
    "cas_no": "21401-21-8",
    "key_name": "Taxiphyllin",
    "cn_name": null,
    "alternate_name": "Benzeneacetonitrile, α-(β-<span class=\"text-smallcaps\">D</span>-glucopyranosyloxy)-4-hydroxy-, (α<em>R</em>)-;Acetonitrile, (β-<span class=\"text-smallcaps\">D</span>-glucopyranosyloxy)(<em>p</em>-hydroxyphenyl)-;Benzeneacetonitrile, α-(β-<span class=\"text-smallcaps\">D</span>-glucopyranosyloxy)-4-hydroxy-, (<em>R</em>)-;Glucopyranoside, <span class=\"text-smallcaps\">D</span>-α-cyano-<em>p</em>-hydroxybenzyl;(α<em>R</em>)-α-(β-<span class=\"text-smallcaps\">D</span>-Glucopyranosyloxy)-4-hydroxybenzeneacetonitrile;Taxiphyllin;(2<em>R</em>)-Taxiphyllin",
    "duplicated_cas_no": "",
    "SMILES": "O([C@@H](C#N)C1=CC=C(O)C=C1)[C@@H]2O[C@H](CO)[C@@H](O)[C@H](O)[C@H]2O",
    "meta_data": {
        "InChI": "InChI=1S/C14H17NO7/c15-5-9(7-1-3-8(17)4-2-7)21-14-13(20)12(19)11(18)10(6-16)22-14/h1-4,9-14,16-20H,6H2/t9-,10+,11+,12-,13+,14+/m0/s1",
        "InChIKey": null,
        "Canonical SMILES": "N#CC(OC1OC(CO)C(O)C(O)C1O)C2=CC=C(O)C=C2",
        "Molecular Formula": "C<sub>14</sub>H<sub>17</sub>NO<sub>7</sub>",
        "Molecular Mass": "311.29",
        "Melting Point": "168-169 °C (decomp)"
    }
}