{
    "cas_no": "22246-16-8",
    "key_name": "3,4-Dihydro-6-nitro-2(1<em>H</em>)-quinolinone",
    "cn_name": null,
    "alternate_name": "2(1<em>H</em>)-Quinolinone, 3,4-dihydro-6-nitro-;Carbostyril, 3,4-dihydro-6-nitro-;3,4-Dihydro-6-nitro-2(1<em>H</em>)-quinolinone;6-Nitro-1,2,3,4-tetrahydrochinolin-2-one;6-Nitro-1,3,4-trihydroquinolin-2-one;6-Nitro-3,4-dihydro-1<em>H</em>-quinolin-2-one;6-Nitro-3,4-dihydroquinolin-2(1<em>H</em>)-one",
    "duplicated_cas_no": "",
    "SMILES": "N(=O)(=O)C=1C=C2C(NC(=O)CC2)=CC1",
    "meta_data": {
        "InChI": "InChI=1S/C9H8N2O3/c12-9-4-1-6-5-7(11(13)14)2-3-8(6)10-9/h2-3,5H,1,4H2,(H,10,12)",
        "InChIKey": null,
        "Canonical SMILES": "O=C1NC2=CC=C(C=C2CC1)N(=O)=O",
        "Molecular Formula": "C<sub>9</sub>H<sub>8</sub>N<sub>2</sub>O<sub>3</sub>",
        "Molecular Mass": "192.17",
        "Melting Point": "202-205 °C"
    }
}