{
    "cas_no": "1485-92-3",
    "key_name": "1,3,3-Trimethylindolinobenzospiropyran",
    "cn_name": "1,3,3-三甲基吲哚苯并二氢呋喃;1,3,3-三甲基螺[1(2H)-苯并吡喃-2,2-吲哚];",
    "alternate_name": "Spiro[2<em>H</em>-1-benzopyran-2,2′-[2<em>H</em>]indole], 1′,3′-dihydro-1′,3′,3′-trimethyl-;Spiro[2<em>H</em>-1-benzopyran-2,2′-indoline], 1′,3′,3′-trimethyl-;1′,3′-Dihydro-1′,3′,3′-trimethylspiro[2<em>H</em>-1-benzopyran-2,2′-[2<em>H</em>]indole];1,3,3-Trimethylbenzoindolinopyranospiran;1,3,3-Trimethylindolinobenzospiropyran;1′,3′,3′-Trimethylspiro[2<em>H</em>-1-benzopyran-2,2′-indoline];1,3,3-Trimethylindolinobenzopyrylspiran;NSC 206174;1′,3′,3′-Trimethyl-1′,3′-dihydrospiro[chromene-2,2′-indole];1′,3′,3′-Trimethylspiro[chromene-2,2′-indole]",
    "duplicated_cas_no": "157542-71-7",
    "SMILES": "CC1(C)C2(N(C)C=3C1=CC=CC3)OC=4C(C=C2)=CC=CC4",
    "meta_data": {
        "InChI": "InChI=1S/C19H19NO/c1-18(2)15-9-5-6-10-16(15)20(3)19(18)13-12-14-8-4-7-11-17(14)21-19/h4-13H,1-3H3",
        "InChIKey": null,
        "Canonical SMILES": "O1C=2C=CC=CC2C=CC13N(C=4C=CC=CC4C3(C)C)C",
        "Molecular Formula": "C<sub>19</sub>H<sub>19</sub>NO",
        "Molecular Mass": "277.36",
        "Melting Point": "92 °C"
    }
}