{
    "cas_no": "29679-58-1",
    "key_name": "Fenoprofen",
    "cn_name": null,
    "alternate_name": "Benzeneacetic acid, α-methyl-3-phenoxy-;Hydratropic acid, <em>m</em>-phenoxy-;α-Methyl-3-phenoxybenzeneacetic acid;2-(3-Phenoxyphenyl)propionic acid;3-Phenoxyhydratropic acid;2-(<em>m</em>-Phenoxyphenyl)propionic acid;Fenoprofen;(±)-<em>m</em>-Phenoxyhydratropic acid;<em>dl</em>-2-(3-Phenoxyphenyl)propionic acid;(±)-2-(3-Phenoxyphenyl)propionic acid;(±)-Fenoprofen;Lilly 53858;2-(3-Phenoxyphenyl)-1-propanoic acid;2-(3-Phenoxyphenyl)propanoic acid;<em>m</em>-Phenoxyhydratropic acid;MeSH ID: D005279",
    "duplicated_cas_no": "31879-05-7",
    "SMILES": "O(C1=CC(C(C(O)=O)C)=CC=C1)C2=CC=CC=C2",
    "meta_data": {
        "InChI": "InChI=1S/C15H14O3/c1-11(15(16)17)12-6-5-9-14(10-12)18-13-7-3-2-4-8-13/h2-11H,1H3,(H,16,17)",
        "InChIKey": null,
        "Canonical SMILES": "O=C(O)C(C=1C=CC=C(OC=2C=CC=CC2)C1)C",
        "Molecular Formula": "C<sub>15</sub>H<sub>14</sub>O<sub>3</sub>",
        "Molecular Mass": "242.27",
        "Boiling Point": "168-171 °C @ Press: 0.11 Torr"
    }
}