{
    "cas_no": "665-46-3",
    "key_name": "Tetraethylammonium fluoride",
    "cn_name": "四乙基氟化铵(二水);",
    "alternate_name": "Ethanaminium, <em>N</em>,<em>N</em>,<em>N</em>-triethyl-, fluoride (1:1);Ammonium, tetraethyl-, fluoride;Ethanaminium, <em>N</em>,<em>N</em>,<em>N</em>-triethyl-, fluoride;Tetraethylammonium fluoride",
    "duplicated_cas_no": "",
    "SMILES": "[N+](CC)(CC)(CC)CC.[F-]",
    "meta_data": {
        "InChI": "InChI=1S/C8H20N.FH/c1-5-9(6-2,7-3)8-4;/h5-8H2,1-4H3;1H/q+1;/p-1",
        "InChIKey": null,
        "Canonical SMILES": "[F-].CC[N+](CC)(CC)CC",
        "Molecular Formula": "C<sub>8</sub>H<sub>20</sub>N.F",
        "Molecular Mass": "",
        "Melting Point": "80 °C (decomp)"
    }
}