{
    "cas_no": "119-58-4",
    "key_name": "4,4′-Bis(dimethylamino)benzhydrol",
    "cn_name": "4,4\"-二(N,N-二甲氨基)二苯基甲醇;4,4\"-四甲基米氏醇;",
    "alternate_name": "Benzenemethanol, 4-(dimethylamino)-α-[4-(dimethylamino)phenyl]-;Benzhydrol, 4,4′-bis(dimethylamino)-;Benzohydrol, 4,4′-bis(dimethylamino)-;4-(Dimethylamino)-α-[4-(dimethylamino)phenyl]benzenemethanol;α,α-Bis(<em>p</em>-dimethylaminophenyl)methanol;Michler's hydrol;Tetramethyldiaminobenzhydrol;<em>N</em>,<em>N</em>′-Tetramethyl-4,4′-diaminobenzohydrol;4,4′-Bis(dimethylamino)diphenylcarbinol;<em>p</em>,<em>p</em>′-Bis(dimethylamino)benzhydrol;4,4′-Bis(dimethylamino)diphenylmethanol;4,4′-Bis(dimethylamino)benzhydrol;NSC 3563;4,4′-(Dimethylamino)benzhydrol",
    "duplicated_cas_no": "",
    "SMILES": "C(O)(C1=CC=C(N(C)C)C=C1)C2=CC=C(N(C)C)C=C2",
    "meta_data": {
        "InChI": "InChI=1S/C17H22N2O/c1-18(2)15-9-5-13(6-10-15)17(20)14-7-11-16(12-8-14)19(3)4/h5-12,17,20H,1-4H3",
        "InChIKey": null,
        "Canonical SMILES": "OC(C1=CC=C(C=C1)N(C)C)C2=CC=C(C=C2)N(C)C",
        "Molecular Formula": "C<sub>17</sub>H<sub>22</sub>N<sub>2</sub>O",
        "Molecular Mass": "270.37",
        "Melting Point": "98-100 °C"
    }
}