{
    "cas_no": "6145-31-9",
    "key_name": "Ethylenediphosphonic acid",
    "cn_name": "1,2-乙烯基二膦酸;",
    "alternate_name": "Phosphonic acid, <em>P</em>,<em>P</em>′-1,2-ethanediylbis-;Phosphonic acid, ethylenedi-;Phosphonic acid, 1,2-ethanediylbis-;<em>P</em>,<em>P</em>′-1,2-Ethanediylbis[phosphonic acid];1,2-Ethanediphosphonic acid;1,2-Ethylenediphosphonic acid;Ethylenediphosphonic acid;1,2-Ethylenebis(phosphonic acid);NSC 40837",
    "duplicated_cas_no": "",
    "SMILES": "C(CP(=O)(O)O)P(=O)(O)O",
    "meta_data": {
        "InChI": "InChI=1S/C2H8O6P2/c3-9(4,5)1-2-10(6,7)8/h1-2H2,(H2,3,4,5)(H2,6,7,8)",
        "InChIKey": null,
        "Canonical SMILES": "O=P(O)(O)CCP(=O)(O)O",
        "Molecular Formula": "C<sub>2</sub>H<sub>8</sub>O<sub>6</sub>P<sub>2</sub>",
        "Molecular Mass": "190.03",
        "Melting Point": "220-221 °C"
    }
}