{
    "cas_no": "83-95-4",
    "key_name": "Skimmianine",
    "cn_name": null,
    "alternate_name": "Furo[2,3-<em>b</em>]quinoline, 4,7,8-trimethoxy-;β-Fagarine;Skimmianine;4,7,8-Trimethoxyfuro[2,3-<em>b</em>]quinoline;Chloroxylonine;Skimmianin;Skimmiamine;NSC 217986;NSC 94654",
    "duplicated_cas_no": "785715-66-4",
    "SMILES": "O(C)C1=C2C(C(OC)=C3C(=N2)OC=C3)=CC=C1OC",
    "meta_data": {
        "InChI": "InChI=1S/C14H13NO4/c1-16-10-5-4-8-11(13(10)18-3)15-14-9(6-7-19-14)12(8)17-2/h4-7H,1-3H3",
        "InChIKey": null,
        "Canonical SMILES": "N1=C2OC=CC2=C(OC)C=3C=CC(OC)=C(OC)C13",
        "Molecular Formula": "C<sub>14</sub>H<sub>13</sub>NO<sub>4</sub>",
        "Molecular Mass": "259.26",
        "Melting Point": "177 °C"
    }
}