{
    "cas_no": "89796-99-6",
    "key_name": "Aceclofenac",
    "cn_name": "醋氯芬酸;2-[(2,6-二氯苯基)氨基]苯乙酰氧基乙酸;",
    "alternate_name": "Benzeneacetic acid, 2-[(2,6-dichlorophenyl)amino]-, carboxymethyl ester;Aceclofenac;Falcol;Gerbin;2-[[2-[(2,6-Dichlorophenyl)amino]phenyl]acetoxy]acetic acid;Airtal;Tresquim;Biofenac;PR 82/3;Aceclofar;Bristaflam;Glycolic acid 2-[<em>o</em>-(2,6-dichloroanilino)phenyl]acetate;Zerodol;Hifenac;Preservex;[2-[(2,6-Dichlorophenyl)amino]phenyl]acetoxyacetic acid;Hifenac-TL;Dolokind;Acepac;Flexidol;Aceclofenac BP;Aceclo;Aceclo Plus;[2-(2,6-Dichloro-phenylamino)-phenyl]-acetic acid carboxymethyl ester;2-[2-[2-(2,6-Dichloroanilino)phenyl]acetyl]oxyacetic acid",
    "duplicated_cas_no": "",
    "SMILES": "N(C1=C(CC(OCC(O)=O)=O)C=CC=C1)C2=C(Cl)C=CC=C2Cl",
    "meta_data": {
        "InChI": "InChI=1S/C16H13Cl2NO4/c17-11-5-3-6-12(18)16(11)19-13-7-2-1-4-10(13)8-15(22)23-9-14(20)21/h1-7,19H,8-9H2,(H,20,21)",
        "InChIKey": null,
        "Canonical SMILES": "O=C(O)COC(=O)CC=1C=CC=CC1NC=2C(Cl)=CC=CC2Cl",
        "Molecular Formula": "C<sub>16</sub>H<sub>13</sub>Cl<sub>2</sub>NO<sub>4</sub>",
        "Molecular Mass": "354.18",
        "Melting Point": "149-150 °C",
        "Density": "1.72 g/cm³"
    }
}