{
    "cas_no": "53440-12-3",
    "key_name": "1,2,3,4-Tetrahydro-2-naphthoic acid",
    "cn_name": "1,2,3,4-四氢-2-萘酸;",
    "alternate_name": "2-Naphthalenecarboxylic acid, 1,2,3,4-tetrahydro-;2-Naphthoic acid, 1,2,3,4-tetrahydro-;1,2,3,4-Tetrahydro-2-naphthalenecarboxylic acid;1,2,3,4-Tetrahydro-2-naphthoic acid;(<em>RS</em>)-1,2,3,4-Tetrahydronaphthalene-2-carboxylic acid;2-Carboxy-1,2,3,4-tetrahydronaphthalene;NSC 408608;Tetraline-2-carboxylic acid",
    "duplicated_cas_no": "133322-27-7",
    "SMILES": "C(O)(=O)C1CC=2C(CC1)=CC=CC2",
    "meta_data": {
        "InChI": "InChI=1S/C11H12O2/c12-11(13)10-6-5-8-3-1-2-4-9(8)7-10/h1-4,10H,5-7H2,(H,12,13)",
        "InChIKey": null,
        "Canonical SMILES": "O=C(O)C1CC=2C=CC=CC2CC1",
        "Molecular Formula": "C<sub>11</sub>H<sub>12</sub>O<sub>2</sub>",
        "Molecular Mass": "176.21",
        "Melting Point": "97.7 °C"
    }
}