{
    "cas_no": "7389-87-9",
    "key_name": "<span class=\"text-smallcaps\">L</span>-Histidine, methyl ester, hydrochloride (1:2)",
    "cn_name": "L-组氨酸甲酯二盐酸盐;",
    "alternate_name": "<span class=\"text-smallcaps\">L</span>-Histidine, methyl ester, hydrochloride (1:2);Histidine, methyl ester, dihydrochloride, <span class=\"text-smallcaps\">L</span>-;<span class=\"text-smallcaps\">L</span>-Histidine, methyl ester, dihydrochloride;Histidine methyl ester dihydrochloride;(<em>S</em>)-Histidine methyl ester dihydrochloride;Methyl <span class=\"text-smallcaps\">L</span>-histidinate dihydrochloride;NSC 522221",
    "duplicated_cas_no": "2491-19-2",
    "SMILES": "C([C@@H](C(OC)=O)N)C1=CN=CN1.Cl",
    "meta_data": {
        "InChI": "InChI=1S/C7H11N3O2.2ClH/c1-12-7(11)6(8)2-5-3-9-4-10-5;;/h3-4,6H,2,8H2,1H3,(H,9,10);2*1H/t6-;;/m0../s1",
        "InChIKey": null,
        "Canonical SMILES": "Cl.O=C(OC)C(N)CC1=CN=CN1",
        "Molecular Formula": "C<sub>7</sub>H<sub>11</sub>N<sub>3</sub>O<sub>2</sub>.2ClH",
        "Molecular Mass": "",
        "Melting Point": "200-201 °C"
    }
}