{
    "cas_no": "4261-14-7",
    "key_name": "9-(Phenylmethyl)-9<em>H</em>-purin-6-amine",
    "cn_name": null,
    "alternate_name": "9<em>H</em>-Purin-6-amine, 9-(phenylmethyl)-;Adenine, 9-benzyl-;9-(Phenylmethyl)-9<em>H</em>-purin-6-amine;9-Benzyladenine;9-Benzylaminopurine;<em>N</em><sup>9</sup>-Benzyladenine;SQ 21611;NSC 35649",
    "duplicated_cas_no": "",
    "SMILES": "C(N1C=2C(N=C1)=C(N)N=CN2)C3=CC=CC=C3",
    "meta_data": {
        "InChI": "InChI=1S/C12H11N5/c13-11-10-12(15-7-14-11)17(8-16-10)6-9-4-2-1-3-5-9/h1-5,7-8H,6H2,(H2,13,14,15)",
        "InChIKey": null,
        "Canonical SMILES": "N=1C=NC2=C(N=CN2CC=3C=CC=CC3)C1N",
        "Molecular Formula": "C<sub>12</sub>H<sub>11</sub>N<sub>5</sub>",
        "Molecular Mass": "225.25",
        "Melting Point": "224-225 °C (decomp)"
    }
}