{
    "cas_no": "2557-13-3",
    "key_name": "Benzoic acid, 3-(trifluoromethyl)-, methyl ester",
    "cn_name": "3-三氟甲基苯甲酸甲酯;间三氟甲基苯甲酸甲酯;",
    "alternate_name": "Benzoic acid, 3-(trifluoromethyl)-, methyl ester;<em>m</em>-Toluic acid, α,α,α-trifluoro-, methyl ester;Methyl 3-trifluoromethylbenzoate;Methyl <em>m</em>-trifluoromethylbenzoate;3-Trifluoromethylbenzoic acid methyl ester",
    "duplicated_cas_no": "",
    "SMILES": "C(OC)(=O)C1=CC(C(F)(F)F)=CC=C1",
    "meta_data": {
        "InChI": "InChI=1S/C9H7F3O2/c1-14-8(13)6-3-2-4-7(5-6)9(10,11)12/h2-5H,1H3",
        "InChIKey": null,
        "Canonical SMILES": "O=C(OC)C1=CC=CC(=C1)C(F)(F)F",
        "Molecular Formula": "C<sub>9</sub>H<sub>7</sub>F<sub>3</sub>O<sub>2</sub>",
        "Molecular Mass": "204.15",
        "Boiling Point": "93.5-94.5 °C"
    }
}