{
    "cas_no": "3058-39-7",
    "key_name": "4-Iodobenzonitrile",
    "cn_name": "4-碘氰基苯;对碘苯腈;",
    "alternate_name": "Benzonitrile, 4-iodo-;Benzonitrile, <em>p</em>-iodo-;4-Iodobenzonitrile;<em>p</em>-Cyanoiodobenzene;<em>p</em>-Iodobenzonitrile;<em>p</em>-Cyanophenyl iodide;1-Cyano-4-iodobenzene;4-Cyanoiodobenzene;4-Iodocyanobenzene;4-Cyanophenyl iodide;NSC 87894;4-Cyano-1-iodobenzene;1-Iodo-4-cyanobenzene",
    "duplicated_cas_no": "1629273-08-0",
    "SMILES": "C(#N)C1=CC=C(I)C=C1",
    "meta_data": {
        "InChI": "InChI=1S/C7H4IN/c8-7-3-1-6(5-9)2-4-7/h1-4H",
        "InChIKey": null,
        "Canonical SMILES": "N#CC1=CC=C(I)C=C1",
        "Molecular Formula": "C<sub>7</sub>H<sub>4</sub>IN",
        "Molecular Mass": "229.02",
        "Melting Point": "128-129 °C"
    }
}