{
    "cas_no": "34626-51-2",
    "key_name": "5-Bromo-1-pentanol",
    "cn_name": "5-溴-1-戊醇;",
    "alternate_name": "1-Pentanol, 5-bromo-;5-Bromo-1-pentanol;5-Bromopentanol;1-Bromo-5-hydroxypentane",
    "duplicated_cas_no": "",
    "SMILES": "C(CCBr)CCO",
    "meta_data": {
        "InChI": "InChI=1S/C5H11BrO/c6-4-2-1-3-5-7/h7H,1-5H2",
        "InChIKey": null,
        "Canonical SMILES": "BrCCCCCO",
        "Molecular Formula": "C<sub>5</sub>H<sub>11</sub>BrO",
        "Molecular Mass": "167.04",
        "Boiling Point": "72-74 °C @ Press: 0.2 Torr"
    }
}