{
    "cas_no": "41051-80-3",
    "key_name": "3-(Diethylamino)propyltrimethoxysilane",
    "cn_name": "N,N-二乙基-3-氨丙基三甲氧基硅烷;",
    "alternate_name": "1-Propanamine, <em>N</em>,<em>N</em>-diethyl-3-(trimethoxysilyl)-;<em>N</em>,<em>N</em>-Diethyl-3-(trimethoxysilyl)-1-propanamine;3-<em>N</em>,<em>N</em>-Diethylaminopropyltrimethoxysilane;Silar 1104;<em>N</em>,<em>N</em>-Diethyl-3-aminopropyltrimethoxysilane;3-(Diethylamino)propyltrimethoxysilane;<em>N</em>,<em>N</em>-Diethyl-3-(trimethoxysilyl)propylamine;SID 3396.0;<em>N</em>,<em>N</em>-Diethyl-<em>N</em>-(3-trimethoxysilylpropyl)amine;<em>N</em>,<em>N</em>-Diethyl-γ-aminopropyl trimethoxy silane;KH 703",
    "duplicated_cas_no": "",
    "SMILES": "[Si](CCCN(CC)CC)(OC)(OC)OC",
    "meta_data": {
        "InChI": "InChI=1S/C10H25NO3Si/c1-6-11(7-2)9-8-10-15(12-3,13-4)14-5/h6-10H2,1-5H3",
        "InChIKey": null,
        "Canonical SMILES": "O(C)[Si](OC)(OC)CCCN(CC)CC",
        "Molecular Formula": "C<sub>10</sub>H<sub>25</sub>NO<sub>3</sub>Si",
        "Molecular Mass": "235.40",
        "Boiling Point": "120 °C @ Press: 20 Torr",
        "Density": "0.934 g/cm³"
    }
}