{
    "cas_no": "2351-33-9",
    "key_name": "1,1-Dichlorosilacyclobutane",
    "cn_name": null,
    "alternate_name": "Silacyclobutane, 1,1-dichloro-;1,1-Dichlorosilacyclobutane;1,1-Dichloro-1-silacyclobutane;Cyclotrimethylenedichlorosilane;1,1-Dichlorosiletane",
    "duplicated_cas_no": "",
    "SMILES": "Cl[Si]1(Cl)CCC1",
    "meta_data": {
        "InChI": "InChI=1S/C3H6Cl2Si/c4-6(5)2-1-3-6/h1-3H2",
        "InChIKey": null,
        "Canonical SMILES": "Cl[Si]1(Cl)CCC1",
        "Molecular Formula": "C<sub>3</sub>H<sub>6</sub>Cl<sub>2</sub>Si",
        "Molecular Mass": "141.07",
        "Boiling Point": "113-114 °C",
        "Density": "1.201 g/cm³"
    }
}