{
    "cas_no": "699-90-1",
    "key_name": "3-Fluoro-2-methylbenzoic acid",
    "cn_name": null,
    "alternate_name": "Benzoic acid, 3-fluoro-2-methyl-;<em>o</em>-Toluic acid, 3-fluoro-;3-Fluoro-2-methylbenzoic acid;NSC 60050",
    "duplicated_cas_no": "",
    "SMILES": "C(O)(=O)C1=C(C)C(F)=CC=C1",
    "meta_data": {
        "InChI": "InChI=1S/C8H7FO2/c1-5-6(8(10)11)3-2-4-7(5)9/h2-4H,1H3,(H,10,11)",
        "InChIKey": null,
        "Canonical SMILES": "O=C(O)C=1C=CC=C(F)C1C",
        "Molecular Formula": "C<sub>8</sub>H<sub>7</sub>FO<sub>2</sub>",
        "Molecular Mass": "154.14",
        "Melting Point": "156-157 °C"
    }
}