{
    "cas_no": "499-02-5",
    "key_name": "<em>rel</em>-(1<em>R</em>,2<em>R</em>)-3-Methylene-1,2-cyclopropanedicarboxylic acid",
    "cn_name": "3-亚甲基环丙烷-反-1,2-二羧酸;",
    "alternate_name": "1,2-Cyclopropanedicarboxylic acid, 3-methylene-, (1<em>R</em>,2<em>R</em>)-<em>rel</em>-;Feist's acid;1,2-Cyclopropanedicarboxylic acid, 3-methylene-, <em>trans</em>-;<em>rel</em>-(1<em>R</em>,2<em>R</em>)-3-Methylene-1,2-cyclopropanedicarboxylic acid;3-Methylenecyclopropane-<em>trans</em>-1,2-dicarboxylic acid;<em>trans</em>-3-Methylenecyclopropane-1,2-dicarboxylic acid",
    "duplicated_cas_no": "139891-18-2",
    "SMILES": "C(O)(=O)[C@H]1[C@H](C(O)=O)C1=C",
    "meta_data": {
        "InChI": "InChI=1/C6H6O4/c1-2-3(5(7)8)4(2)6(9)10/h3-4H,1H2,(H,7,8)(H,9,10)/t3-,4-/s2",
        "InChIKey": null,
        "Canonical SMILES": "O=C(O)C1C(=C)C1C(=O)O",
        "Molecular Formula": "C<sub>6</sub>H<sub>6</sub>O<sub>4</sub>",
        "Molecular Mass": "142.11",
        "Boiling Point": "90-100 °C @ Press: 0.03 Torr",
        "Melting Point": "200 °C",
        "Density": "1.45 g/cm³"
    }
}