{
    "cas_no": "5932-53-6",
    "key_name": "(±)-6β-Hydroxytropinone",
    "cn_name": "6-羟基托品酮;6-羟基-8-甲基-8-氮杂双环[3.2.1]辛烷-3-酮;",
    "alternate_name": "8-Azabicyclo[3.2.1]octan-3-one, 6-hydroxy-8-methyl-, (1<em>R</em>,5<em>R</em>,6<em>S</em>)-<em>rel</em>-;1α<span class=\"text-smallcaps\">H</smallcap>,5α<smallcap>H</span>-Tropan-3-one, 6β-hydroxy-;8-Azabicyclo[3.2.1]octan-3-one, 6-hydroxy-8-methyl-, <em>exo</em>-;Tropinone, 6β-hydroxy-;<em>rel</em>-(1<em>R</em>,5<em>R</em>,6<em>S</em>)-6-Hydroxy-8-methyl-8-azabicyclo[3.2.1]octan-3-one;(±)-6β-Hydroxytropan-3-one;(±)-6β-Hydroxytropinone",
    "duplicated_cas_no": "60873-19-0",
    "SMILES": "CN1[C@]2(C[C@@H](O)[C@@]1(CC(=O)C2)[H])[H]",
    "meta_data": {
        "InChI": "InChI=1/C8H13NO2/c1-9-5-2-6(10)4-7(9)8(11)3-5/h5,7-8,11H,2-4H2,1H3/t5-,7+,8-/s2",
        "InChIKey": null,
        "Canonical SMILES": "O=C1CC2N(C)C(C1)C(O)C2",
        "Molecular Formula": "C<sub>8</sub>H<sub>13</sub>NO<sub>2</sub>",
        "Molecular Mass": "155.19",
        "Melting Point": "120-121 °C"
    }
}