{
    "cas_no": "21947-98-8",
    "key_name": "<em>N</em>-[(1,1-Dimethylethoxy)carbonyl]-<em>S</em>-(triphenylmethyl)-<span class=\"text-smallcaps\">L</span>-cysteine",
    "cn_name": "N-叔丁氧羰基-S-三苯甲基-L-半胱氨酸;",
    "alternate_name": "<span class=\"text-smallcaps\">L</span>-Cysteine, <em>N</em>-[(1,1-dimethylethoxy)carbonyl]-<em>S</em>-(triphenylmethyl)-;Alanine, <em>N</em>-carboxy-3-(tritylthio)-, <em>N</em>-<em>tert</em>-butyl ester, <span class=\"text-smallcaps\">L</span>-;<em>N</em>-[(1,1-Dimethylethoxy)carbonyl]-<em>S</em>-(triphenylmethyl)-<span class=\"text-smallcaps\">L</span>-cysteine;<em>N</em>-<em>tert</em>-Butoxycarbonyl-<em>S</em>-tritylcysteine;<em>N</em>-(<em>tert</em>-Butoxycarbonyl)-<em>S</em>-trityl-<span class=\"text-smallcaps\">L</span>-cysteine;<em>N</em>-Boc-<em>S</em>-trityl-<span class=\"text-smallcaps\">L</span>-cysteine;NSC 129903;2: PN: US20040265921 PAGE: 4 claimed protein;6: PN: WO2015068532 SEQID: 6 claimed sequence;(2R)-2-[(2-Methylpropan-2-yl)oxycarbonylamino]-3-tritylsulfanylpropanoic acid",
    "duplicated_cas_no": "",
    "SMILES": "C(SC[C@H](NC(OC(C)(C)C)=O)C(O)=O)(C1=CC=CC=C1)(C2=CC=CC=C2)C3=CC=CC=C3",
    "meta_data": {
        "InChI": "InChI=1S/C27H29NO4S/c1-26(2,3)32-25(31)28-23(24(29)30)19-33-27(20-13-7-4-8-14-20,21-15-9-5-10-16-21)22-17-11-6-12-18-22/h4-18,23H,19H2,1-3H3,(H,28,31)(H,29,30)/t23-/m0/s1",
        "InChIKey": null,
        "Canonical SMILES": "O=C(OC(C)(C)C)NC(C(=O)O)CSC(C=1C=CC=CC1)(C=2C=CC=CC2)C=3C=CC=CC3",
        "Molecular Formula": "C<sub>27</sub>H<sub>29</sub>NO<sub>4</sub>S",
        "Molecular Mass": "463.59",
        "Melting Point": "76-77 °C"
    }
}