{
    "cas_no": "19522-69-1",
    "key_name": "<em>N</em><sup>1</sup>-Butyl-1,2-ethanediamine",
    "cn_name": null,
    "alternate_name": "1,2-Ethanediamine, <em>N</em><sup>1</sup>-butyl-;Ethylenediamine, <em>N</em>-butyl-;1,2-Ethanediamine, <em>N</em>-butyl-;<em>N</em><sup>1</sup>-Butyl-1,2-ethanediamine;<em>N</em>-Butylethylenediamine;2-Butylaminoethylamine;(2-Aminoethyl)(butyl)amine",
    "duplicated_cas_no": "",
    "SMILES": "C(NCCN)CCC",
    "meta_data": {
        "InChI": "InChI=1S/C6H16N2/c1-2-3-5-8-6-4-7/h8H,2-7H2,1H3",
        "InChIKey": null,
        "Canonical SMILES": "NCCNCCCC",
        "Molecular Formula": "C<sub>6</sub>H<sub>16</sub>N<sub>2</sub>",
        "Molecular Mass": "116.20",
        "Boiling Point": "71 °C @ Press: 13 Torr",
        "Density": "1.45 g/cm³ @ Temp: 30 °C"
    }
}