{
    "cas_no": "3284-79-5",
    "key_name": "3-(4-Chlorophenoxy)propanoic acid",
    "cn_name": "3-(对氯苯氧基)丙酸;3-(对氯苯氧基)丙酸;",
    "alternate_name": "Propanoic acid, 3-(4-chlorophenoxy)-;Propionic acid, 3-(<em>p</em>-chlorophenoxy)-;3-(4-Chlorophenoxy)propanoic acid;β-(4-Chlorophenoxy)propionic acid;3-(<em>p</em>-Chlorophenoxy)propionic acid;3-(4-Chlorophenoxy)propionic acid;NSC 48113",
    "duplicated_cas_no": "",
    "SMILES": "O(CCC(O)=O)C1=CC=C(Cl)C=C1",
    "meta_data": {
        "InChI": "InChI=1S/C9H9ClO3/c10-7-1-3-8(4-2-7)13-6-5-9(11)12/h1-4H,5-6H2,(H,11,12)",
        "InChIKey": null,
        "Canonical SMILES": "O=C(O)CCOC1=CC=C(Cl)C=C1",
        "Molecular Formula": "C<sub>9</sub>H<sub>9</sub>ClO<sub>3</sub>",
        "Molecular Mass": "200.62",
        "Melting Point": "138-139 °C"
    }
}