{
    "cas_no": "28981-97-7",
    "key_name": "Alprazolam",
    "cn_name": "阿普唑仑;1-甲基-6-苯基-8-氯-4H-s-三氮唑并[4,3-a][1,4]苯并二氮杂卓;",
    "alternate_name": "4<em>H</em>-[1,2,4]Triazolo[4,3-<em>a</em>][1,4]benzodiazepine, 8-chloro-1-methyl-6-phenyl-;4<em>H</em>-<em>s</em>-Triazolo[4,3-<em>a</em>][1,4]benzodiazepine, 8-chloro-1-methyl-6-phenyl-;8-Chloro-1-methyl-6-phenyl-4<em>H</em>-[1,2,4]triazolo[4,3-<em>a</em>][1,4]benzodiazepine;D 65MT;U 31889;8-Chloro-1-methyl-6-phenyl-4<em>H</em>-<em>s</em>-triazolo[4,3-<em>a</em>][1,4]benzodiazepine;Alprazolam;Xanax;TUS 1;Solanax;Alprozolam;Trankimazin;Valeans;Panix;Tafil;Prinox;Alzolam;Alpralid;Zopax;Zolarem;Alplax;Alpaz;Altraxic;Restyl;Ansiopax;Tafil D;Anpress;Zopic;Zoldac;Tricalma;Zotran;Kalma;Xanax TS;Apo-Alpraz;Alprazolam Intensol;Xanor;Xanolam;Tensivan;Alprax;Constan;Pharnax;Azor;Alpram;Alzam;Ralozam;Frontal;Relaxol;Cassadan;Tranquinal;Xanagis;Alcelam;Zolam;8-Chloro-1-methyl-6-phenyl-4<em>H</em>-2,3,5,10b-tetraazabenzo[<em>e</em>]azulene;Nerum;Azolam;Paxal;Niravam;MeSH ID: D000525",
    "duplicated_cas_no": "",
    "SMILES": "CC=1N2C=3C(C(=NCC2=NN1)C4=CC=CC=C4)=CC(Cl)=CC3",
    "meta_data": {
        "InChI": "InChI=1S/C17H13ClN4/c1-11-20-21-16-10-19-17(12-5-3-2-4-6-12)14-9-13(18)7-8-15(14)22(11)16/h2-9H,10H2,1H3",
        "InChIKey": null,
        "Canonical SMILES": "ClC=1C=CC2=C(C1)C(=NCC3=NN=C(N32)C)C=4C=CC=CC4",
        "Molecular Formula": "C<sub>17</sub>H<sub>13</sub>ClN<sub>4</sub>",
        "Molecular Mass": "308.76",
        "Melting Point": "228-228.5 °C"
    }
}