{
    "cas_no": "304-59-6",
    "key_name": "Potassium sodium tartrate",
    "cn_name": "酒石酸钾钠;罗谢尔盐;",
    "alternate_name": "Butanedioic acid, 2,3-dihydroxy- (2<em>R</em>,3<em>R</em>)-, potassium sodium salt (1:1:1);Tartaric acid, monopotassium monosodium salt;Potassium sodium tartrate;Butanedioic acid, 2,3-dihydroxy-[<em>R</em>-(<em>R</em>*,<em>R</em>*)]-, monopotassium monosodium salt;Butanedioic acid, 2,3-dihydroxy- (2<em>R</em>,3<em>R</em>)-, monopotassium monosodium salt;Sodium potassium tartrate;Rochelle salt;Seignette salt;Monopotassium monosodium tartrate;Potassium sodium <span class=\"text-smallcaps\">L</span>-(+)-tartrate;Potassium sodium <em>d</em>-tartrate;[<em>R</em>-(<em>R</em>*,<em>R</em>*)-2,3-Dihydroxybutanedioic acid monopotassium monosodium salt;E 337;Potassium sodium tartarate",
    "duplicated_cas_no": "19598-88-0;1029019-37-1;2089212-74-6",
    "SMILES": "[C@@H]([C@H](C(O)=O)O)(C(O)=O)O.[K].[Na]",
    "meta_data": {
        "InChI": "InChI=1S/C4H6O6.K.Na/c5-1(3(7)8)2(6)4(9)10;;/h1-2,5-6H,(H,7,8)(H,9,10);;/t1-,2-;;/m1../s1",
        "InChIKey": null,
        "Canonical SMILES": "[Na].[K].O=C(O)C(O)C(O)C(=O)O",
        "Molecular Formula": "C<sub>4</sub>H<sub>6</sub>O<sub>6</sub>.K.Na",
        "Molecular Mass": "",
        "Boiling Point": "200 °C",
        "Melting Point": "90-100 °C",
        "Density": "1.79 g/cm³"
    }
}