{
    "cas_no": "13057-72-2",
    "key_name": "7-Hydroxyisoflavone",
    "cn_name": "7-羟基异黄酮;7-羟基异黄酮;7-羟基-3-苯基-4H-1-苯并吡喃-4-酮;",
    "alternate_name": "4<em>H</em>-1-Benzopyran-4-one, 7-hydroxy-3-phenyl-;Isoflavone, 7-hydroxy-;7-Hydroxy-3-phenyl-4<em>H</em>-1-benzopyran-4-one;7-Hydroxyisoflavone;7-Hydroxy-3-phenylchromen-4-one;NSC 607392;7-Hydroxy-3-phenyl-4<em>H</em>-chromen-4-one",
    "duplicated_cas_no": "",
    "SMILES": "O=C1C=2C(OC=C1C3=CC=CC=C3)=CC(O)=CC2",
    "meta_data": {
        "InChI": "InChI=1S/C15H10O3/c16-11-6-7-12-14(8-11)18-9-13(15(12)17)10-4-2-1-3-5-10/h1-9,16H",
        "InChIKey": null,
        "Canonical SMILES": "O=C1C(=COC2=CC(O)=CC=C21)C=3C=CC=CC3",
        "Molecular Formula": "C<sub>15</sub>H<sub>10</sub>O<sub>3</sub>",
        "Molecular Mass": "238.24",
        "Melting Point": "215 °C"
    }
}