{
    "cas_no": "156-83-2",
    "key_name": "2,4-Diamino-6-chloropyrimidine",
    "cn_name": "2,4-二氨基-6-氯嘧啶;",
    "alternate_name": "2,4-Pyrimidinediamine, 6-chloro-;Pyrimidine, 2,4-diamino-6-chloro-;6-Chloro-2,4-pyrimidinediamine;2,4-Diamino-6-chloropyrimidine;2,6-Diamino-4-chloropyrimidine;4-Chloro-2,6-diaminopyrimidine;6-Chloro-2,4-diaminopyrimidine;NSC 8818;6-Chloropyrimidine-2,4-diamine",
    "duplicated_cas_no": "",
    "SMILES": "ClC=1C=C(N)N=C(N)N1",
    "meta_data": {
        "InChI": "InChI=1S/C4H5ClN4/c5-2-1-3(6)9-4(7)8-2/h1H,(H4,6,7,8,9)",
        "InChIKey": null,
        "Canonical SMILES": "ClC=1N=C(N=C(N)C1)N",
        "Molecular Formula": "C<sub>4</sub>H<sub>5</sub>ClN<sub>4</sub>",
        "Molecular Mass": "144.56",
        "Melting Point": "200-201 °C"
    }
}