{
    "cas_no": "13310-75-3",
    "key_name": "2-Propylpentanenitrile",
    "cn_name": null,
    "alternate_name": "Pentanenitrile, 2-propyl-;Valeronitrile, 2-propyl-;2-Propylpentanenitrile;2-Propylvaleronitrile;4-Cyanoheptane;Dipropylacetonitrile",
    "duplicated_cas_no": "",
    "SMILES": "C(CCC)(CCC)C#N",
    "meta_data": {
        "InChI": "InChI=1S/C8H15N/c1-3-5-8(7-9)6-4-2/h8H,3-6H2,1-2H3",
        "InChIKey": null,
        "Canonical SMILES": "N#CC(CCC)CCC",
        "Molecular Formula": "C<sub>8</sub>H<sub>15</sub>N",
        "Molecular Mass": "125.21",
        "Boiling Point": "183-184 °C"
    }
}