{
    "cas_no": "748-97-0",
    "key_name": "α-[4-[2-(Dimethylamino)ethoxy]phenyl]-β-ethyl-α-phenylbenzeneethanol",
    "cn_name": null,
    "alternate_name": "Benzeneethanol, α-[4-[2-(dimethylamino)ethoxy]phenyl]-β-ethyl-α-phenyl-;1-Butanol, 1-[<em>p</em>-[2-(dimethylamino)ethoxy]phenyl]-1,2-diphenyl-;α-[4-[2-(Dimethylamino)ethoxy]phenyl]-β-ethyl-α-phenylbenzeneethanol;(±)-1,2-Diphenyl-1-[4-[2-(dimethylamino)ethoxy]phenyl]butan-1-ol",
    "duplicated_cas_no": "",
    "SMILES": "C(C(CC)C1=CC=CC=C1)(O)(C2=CC=C(OCCN(C)C)C=C2)C3=CC=CC=C3",
    "meta_data": {
        "InChI": "InChI=1S/C26H31NO2/c1-4-25(21-11-7-5-8-12-21)26(28,22-13-9-6-10-14-22)23-15-17-24(18-16-23)29-20-19-27(2)3/h5-18,25,28H,4,19-20H2,1-3H3",
        "InChIKey": null,
        "Canonical SMILES": "OC(C=1C=CC=CC1)(C2=CC=C(OCCN(C)C)C=C2)C(C=3C=CC=CC3)CC",
        "Molecular Formula": "C<sub>26</sub>H<sub>31</sub>NO<sub>2</sub>",
        "Molecular Mass": "389.53",
        "Melting Point": "120-121 °C"
    }
}