{
    "cas_no": "394-68-3",
    "key_name": "8-Fluoroquinoline",
    "cn_name": "8-氟喹啉;",
    "alternate_name": "Quinoline, 8-fluoro-;8-Fluoroquinoline;NSC 51786",
    "duplicated_cas_no": "",
    "SMILES": "FC=1C2=C(C=CC1)C=CC=N2",
    "meta_data": {
        "InChI": "InChI=1S/C9H6FN/c10-8-5-1-3-7-4-2-6-11-9(7)8/h1-6H",
        "InChIKey": null,
        "Canonical SMILES": "FC=1C=CC=C2C=CC=NC12",
        "Molecular Formula": "C<sub>9</sub>H<sub>6</sub>FN",
        "Molecular Mass": "147.15",
        "Boiling Point": "148 °C @ Press: 30 Torr",
        "Density": "1.215 g/cm³ @ Temp: 25 °C"
    }
}