{
    "cas_no": "161797-99-5",
    "key_name": "Ethyl 2-(4-hydroxyphenyl)-4-methyl-5-thiazolecarboxylate",
    "cn_name": "2-(4-羟基苯基)-4-甲基噻唑-5-羧酸乙酯;",
    "alternate_name": "5-Thiazolecarboxylic acid, 2-(4-hydroxyphenyl)-4-methyl-, ethyl ester;Ethyl 2-(4-hydroxyphenyl)-4-methyl-5-thiazolecarboxylate;Ethyl 2-(4-hydroxyphenyl)-4-methyl-1,3-thiazole-5-carboxylate;2-(4-Hydroxyphenyl)-4-methylthiazole-5-carboxylic acid ethyl ester",
    "duplicated_cas_no": "",
    "SMILES": "C(OCC)(=O)C=1SC(=NC1C)C2=CC=C(O)C=C2",
    "meta_data": {
        "InChI": "InChI=1S/C13H13NO3S/c1-3-17-13(16)11-8(2)14-12(18-11)9-4-6-10(15)7-5-9/h4-7,15H,3H2,1-2H3",
        "InChIKey": null,
        "Canonical SMILES": "O=C(OCC)C=1SC(=NC1C)C=2C=CC(O)=CC2",
        "Molecular Formula": "C<sub>13</sub>H<sub>13</sub>NO<sub>3</sub>S",
        "Molecular Mass": "263.31",
        "Melting Point": "180 °C"
    }
}