{
    "cas_no": "624-17-9",
    "key_name": "Diethyl azelate",
    "cn_name": "壬二酸二乙酯;",
    "alternate_name": "Nonanedioic acid, 1,9-diethyl ester;Azelaic acid, diethyl ester;Nonanedioic acid, diethyl ester;Diethyl azelate;Diethyl azelaate;Diethyl nonanedioate;NSC 61074",
    "duplicated_cas_no": "",
    "SMILES": "C(CCCCCCCC(OCC)=O)(OCC)=O",
    "meta_data": {
        "InChI": "InChI=1S/C13H24O4/c1-3-16-12(14)10-8-6-5-7-9-11-13(15)17-4-2/h3-11H2,1-2H3",
        "InChIKey": null,
        "Canonical SMILES": "O=C(OCC)CCCCCCCC(=O)OCC",
        "Molecular Formula": "C<sub>13</sub>H<sub>24</sub>O<sub>4</sub>",
        "Molecular Mass": "244.33",
        "Boiling Point": "291.5 °C",
        "Melting Point": "-18.5 °C"
    }
}