{
    "cas_no": "61413-54-5",
    "key_name": "Rolipram",
    "cn_name": "咯利普兰;",
    "alternate_name": "2-Pyrrolidinone, 4-[3-(cyclopentyloxy)-4-methoxyphenyl]-;4-[3-(Cyclopentyloxy)-4-methoxyphenyl]-2-pyrrolidinone;ZK 62711;Rolipram;(±)-Rolipram;SB 95952;(<em>R</em>,<em>S</em>)-Rolipram;MeSH ID: D020889",
    "duplicated_cas_no": "85416-74-6",
    "SMILES": "O(C1=C(OC)C=CC(=C1)C2CNC(=O)C2)C3CCCC3",
    "meta_data": {
        "InChI": "InChI=1S/C16H21NO3/c1-19-14-7-6-11(12-9-16(18)17-10-12)8-15(14)20-13-4-2-3-5-13/h6-8,12-13H,2-5,9-10H2,1H3,(H,17,18)",
        "InChIKey": null,
        "Canonical SMILES": "O=C1NCC(C2=CC=C(OC)C(OC3CCCC3)=C2)C1",
        "Molecular Formula": "C<sub>16</sub>H<sub>21</sub>NO<sub>3</sub>",
        "Molecular Mass": "275.34",
        "Melting Point": "132 °C"
    }
}