{
    "cas_no": "110-33-8",
    "key_name": "Dihexyl adipate",
    "cn_name": "己二酸二正己酯;DHA;",
    "alternate_name": "Hexanedioic acid, 1,6-dihexyl ester;Adipic acid, dihexyl ester;Hexanedioic acid, dihexyl ester;Dihexyl adipate;Dihexyl hexanedioate;Plastomoll DHA",
    "duplicated_cas_no": "",
    "SMILES": "C(CCCC(OCCCCCC)=O)C(OCCCCCC)=O",
    "meta_data": {
        "InChI": "InChI=1S/C18H34O4/c1-3-5-7-11-15-21-17(19)13-9-10-14-18(20)22-16-12-8-6-4-2/h3-16H2,1-2H3",
        "InChIKey": null,
        "Canonical SMILES": "O=C(OCCCCCC)CCCCC(=O)OCCCCCC",
        "Molecular Formula": "C<sub>18</sub>H<sub>34</sub>O<sub>4</sub>",
        "Molecular Mass": "314.46",
        "Melting Point": "-9--7 °C"
    }
}