{
    "cas_no": "67-92-5",
    "key_name": "Dicyclomine hydrochloride",
    "cn_name": null,
    "alternate_name": "[1,1′-Bicyclohexyl]-1-carboxylic acid, 2-(diethylamino)ethyl ester, hydrochloride (1:1);[Bicyclohexyl]-1-carboxylic acid, 2-(diethylamino)ethyl ester hydrochloride;[1,1′-Bicyclohexyl]-1-carboxylic acid, 2-(diethylamino)ethyl ester, hydrochloride;Atumin;Bentyl hydrochloride;Dicyclomine hydrochloride;β-Diethylaminoethyl 1-cyclohexylcyclohexanecarboxylate hydrochloride;Diocyl hydrochloride;Merbentyl;Wyovin hydrochloride;Dicycloverin hydrochloride;Di-Syntramine;Mamiesan;Procyclomin;Benacol;Bentomine;Dyspas;Dicycloverine hydrochloride;2-(Diethylamino)ethyl [1,1′-bi(cyclohexane)]-1-carboxylate hydrochloride",
    "duplicated_cas_no": "79988-11-7",
    "SMILES": "C(OCCN(CC)CC)(=O)C1(CCCCC1)C2CCCCC2.Cl",
    "meta_data": {
        "InChI": "InChI=1S/C19H35NO2.ClH/c1-3-20(4-2)15-16-22-18(21)19(13-9-6-10-14-19)17-11-7-5-8-12-17;/h17H,3-16H2,1-2H3;1H",
        "InChIKey": null,
        "Canonical SMILES": "Cl.O=C(OCCN(CC)CC)C1(CCCCC1)C2CCCCC2",
        "Molecular Formula": "C<sub>19</sub>H<sub>35</sub>NO<sub>2</sub>.ClH",
        "Molecular Mass": "",
        "Melting Point": "165 °C"
    }
}