{
    "cas_no": "2304-94-1",
    "key_name": "<em>N</em>-(Benzyloxycarbonyl)-β-alanine",
    "cn_name": "N-CBZ-beta-丙氨酸;苯甲氧羰基-beta-丙氨酸;",
    "alternate_name": "β-Alanine, <em>N</em>-[(phenylmethoxy)carbonyl]-;β-Alanine, <em>N</em>-carboxy-, <em>N</em>-benzyl ester;<em>N</em>-[(Phenylmethoxy)carbonyl]-β-alanine;<em>N</em>-(Benzyloxycarbonyl)-β-alanine;Carbobenzoxy-β-alanine;<em>N</em>-Carbobenzoxy-β-alanine;<em>N</em>-Carbobenzyloxy-β-alanine;<em>N</em>-CBZ-β-alanine;3-(Benzyloxycarbonylamino)propionic acid;NSC 17161;NSC 28943;NSC 657842;3-(Benzyloxycarbonylamino)propanoic acid;3-[<em>N</em>-(Benzyloxycarbonyl)amino]propionic acid;<em>N</em>-Carbobenzoyl-β-alanine;Cbz-beta-Alanine",
    "duplicated_cas_no": "",
    "SMILES": "C(OC(NCCC(O)=O)=O)C1=CC=CC=C1",
    "meta_data": {
        "InChI": "InChI=1S/C11H13NO4/c13-10(14)6-7-12-11(15)16-8-9-4-2-1-3-5-9/h1-5H,6-8H2,(H,12,15)(H,13,14)",
        "InChIKey": null,
        "Canonical SMILES": "O=C(O)CCNC(=O)OCC=1C=CC=CC1",
        "Molecular Formula": "C<sub>11</sub>H<sub>13</sub>NO<sub>4</sub>",
        "Molecular Mass": "223.23",
        "Melting Point": "106 °C"
    }
}