{
    "cas_no": "9005-64-5",
    "key_name": "Polyoxyethylene sorbitan monolaurate",
    "cn_name": "吐温20;聚氧乙烯失水山梨醇月桂酸酯;聚氧乙烯山梨醇酐月桂酸酯;聚氧乙烯山梨糖醇酐单月桂酸酯;乳化剂T-20;",
    "alternate_name": "Sorbitan, monododecanoate, poly(oxy-1,2-ethanediyl) derivs.;Sorbitan, monolaurate, polyoxyethylene derivs.;Atlas G 7596P;Atlas G 7596J;Polyoxyethylene Span 20;Tween 21;Polysorbate 20;Tween 20;G 7596J;Armotan PML 20;Sorbimacrogol laurate;Ethylene oxide-sorbitan monolaurate adduct;Vykamol Sorbitol 6B;G 1020;GL 1;Poly(oxyethylene)sorbitan ether monolaurate;Sorbitan polyethoxy monolaurate;Crillet 1;Oxyethylated sorbitan monolaurate;Sorbimacrogol laurate 300;Sorgen TW 20;Sorbitan monolaurate poly(oxyethylene)ether;Polyethylene glycol sorbitan monolaurate;Ethylene oxide-sorbitan monolaurate polymer;Emasol L 130;Nonion LT 221;Emasol 1112;Polyoxyethylene sorbitan monolaurate;Kemotan T 20;Sorbitan monolaurate polyethylene glycol ether;Nikkol TL 10;ML 55F;Montanox 20;Sorboxethane laurate;Nissan Nonion LT 221;Poly(oxyethylene sorbitan laurate);Polyoxyethylene sorbitan monododecanoate;Rheodol TW-L 120;Ethoxylated sorbitan monolaurate;Ahco 7596T;Emsorb 6915;Rheodol TW-L 106;Polysorbate 21;Value 7220;Polysten 20;Ionet T 20C;Eumulgin SML 20;G 7606J;G 4280;Disponil SML 120;Oxysorbic 20;GL 1 (carbohydrate);Tween 164;Glytanox 1001;Sorbon T 20;TW-L 120 Super;Radiasurf 7137;Alkamuls PSML 20;Rheodol TW-L 100;Rheodol Super TW-L 120;Rheodol TW-L 80;Poly(ethylene glycol) sorbitan ether monolaurate;T-MAZ 20;Atlas G 4280;Atmer 110;LT 221;Rheodol Super TW-L 20;Witconol 2720;Liposorb L 20;Nissan Nonion LT 204;Alkamuls T 20;POE sorbitan monolaurate;Eumulgin SML 15;Crillet 1HP;E 432;PEO(20) sorbitan monolaurate;Rheodol PW-S 106;Glycosperse L 20K;Sorgen TW 20F;PEG sorbitan monolaurate;Monopol Twl 1030;Lamesorb SML 20;Emasol L 120V;PEG-20 sorbitan monolaurate;Alkamuls PSML 80/72;Ethsorbox L 20;Nonion LT 210;Nonion LT 280;Nissan Nonion LT 210;Nissan Nonion LT 280;Tego SML 20;Nikkol LT 221;Lumisorb PSML-80;Tween 10;Pionin D 941;D 941;Kaopan TW-L 120;Tween L 120;Disponil SML 20;Canarcel TW 20;Wilsurf TF 20;Cremophor PS 20;Polysorbate 20PH;Kolliphor PS 20;Coulter Dispersant IB;Protasorb L 20;PTV-M 5309;Anapoe 20;Rheodol Super TW-L 120V;Ercasorb 2020;Alkest TW 20;Polysorbate E 432;Rheodol TW-L 106V;P 1397;Tween 327;Tween 24;PS 20;Rheodol TW-L10;Rheodol TW-L;Rheodol TW;Rheodol;Hipom UV 330;Surfactant P 20;TW 20;Sorbilene L;T 20;Tween 22;Tween 23;T 20 (ester);Newkalgen D 941;PAT 662BNF;Polysorbate 24;Tween 80LQ-AP;Poluethylene glycol sorbitan ether laurate;Sorbox 20;TW-L 120;TW-L 106",
    "duplicated_cas_no": "1341-06-6;8036-82-6;9011-30-7;9015-57-0;37310-96-6;54174-54-8;60318-54-9;62229-28-1;93037-36-6;118955-39-8;122304-31-8;129428-64-4;194879-92-0;851015-03-7;861842-35-5;1242241-45-7;1646144-25-3;1994335-01-1;2488693-42-9",
    "SMILES": "",
    "meta_data": {
        "InChI": "",
        "InChIKey": null,
        "Canonical SMILES": "",
        "Molecular Formula": "Unspecified",
        "Molecular Mass": "",
        "Melting Point": "98.9 °C (decomp)",
        "Density": "1.1 g/cm³"
    }
}