{
    "cas_no": "1821-02-9",
    "key_name": "2-Oxovaleric acid",
    "cn_name": "2-氧代戊酸;2-戊酮酸;",
    "alternate_name": "Pentanoic acid, 2-oxo-;Valeric acid, 2-oxo-;2-Oxopentanoic acid;α-Oxovaleric acid;α-Oxo-<em>n</em>-valeric acid;α-Ketovaleric acid;2-Oxovaleric acid;α-Oxopentanoic acid;2-Ketovaleric acid;α-<em>keto</em>-Valeric acid;2-Ketopentanoic acid;2-Oxo-<em>n</em>-valeric acid;2-Ketopentanoate",
    "duplicated_cas_no": "",
    "SMILES": "C(CCC)(C(O)=O)=O",
    "meta_data": {
        "InChI": "InChI=1S/C5H8O3/c1-2-3-4(6)5(7)8/h2-3H2,1H3,(H,7,8)",
        "InChIKey": null,
        "Canonical SMILES": "O=C(O)C(=O)CCC",
        "Molecular Formula": "C<sub>5</sub>H<sub>8</sub>O<sub>3</sub>",
        "Molecular Mass": "116.12",
        "Boiling Point": "179 °C",
        "Melting Point": "6.5 °C",
        "Density": "1.097 g/cm³ @ Temp: 14 °C"
    }
}