{
    "cas_no": "1014-05-7",
    "key_name": "1-(3,4-Dimethylphenyl)piperazine",
    "cn_name": "1-(3,4-二甲基苯基)哌嗪;",
    "alternate_name": "Piperazine, 1-(3,4-dimethylphenyl)-;Piperazine, 1-(3,4-xylyl)-;1-(3,4-Dimethylphenyl)piperazine;<em>N</em>-(3,4-Dimethylphenyl)piperazine;1-(3,4-Xylyl)piperazine;<em>N</em>-3,4-Xylylpiperazine;4-(3,4-Dimethylphenyl)piperazine",
    "duplicated_cas_no": "",
    "SMILES": "CC=1C=C(C=CC1C)N2CCNCC2",
    "meta_data": {
        "InChI": "InChI=1S/C12H18N2/c1-10-3-4-12(9-11(10)2)14-7-5-13-6-8-14/h3-4,9,13H,5-8H2,1-2H3",
        "InChIKey": null,
        "Canonical SMILES": "C=1C=C(C(=CC1N2CCNCC2)C)C",
        "Molecular Formula": "C<sub>12</sub>H<sub>18</sub>N<sub>2</sub>",
        "Molecular Mass": "190.28",
        "Boiling Point": "175 °C @ Press: 10 Torr",
        "Melting Point": "62 °C"
    }
}