{
    "cas_no": "626-23-3",
    "key_name": "<em>N</em>-(1-Methylpropyl)-2-butanamine",
    "cn_name": "二仲丁胺;二(2-甲基丙基)胺;",
    "alternate_name": "2-Butanamine, <em>N</em>-(1-methylpropyl)-;Di-<em>sec</em>-butylamine;<em>N</em>-(1-Methylpropyl)-2-butanamine;Bis(1-methylpropyl)amine;Di-2-butylamine;Bis(<em>sec</em>-butyl)amine;NSC 8703;<em>N</em>,<em>N</em>-Di-<em>sec</em>-butylamine;<em>N</em>,<em>N</em>-Bis(1-methylpropyl)amine;Bis(2-butyl)amine",
    "duplicated_cas_no": "",
    "SMILES": "N(C(CC)C)C(CC)C",
    "meta_data": {
        "InChI": "InChI=1S/C8H19N/c1-5-7(3)9-8(4)6-2/h7-9H,5-6H2,1-4H3",
        "InChIKey": null,
        "Canonical SMILES": "N(C(C)CC)C(C)CC",
        "Molecular Formula": "C<sub>8</sub>H<sub>19</sub>N",
        "Molecular Mass": "129.24",
        "Boiling Point": "135 °C"
    }
}