{
    "cas_no": "56341-38-9",
    "key_name": "1,3-Dihydro-6-methyl-2<em>H</em>-indol-2-one",
    "cn_name": null,
    "alternate_name": "2<em>H</em>-Indol-2-one, 1,3-dihydro-6-methyl-;1,3-Dihydro-6-methyl-2<em>H</em>-indol-2-one;6-Methyl-2-oxoindoline;6-Methyloxindole;6-Methylindolin-2-one",
    "duplicated_cas_no": "",
    "SMILES": "O=C1CC=2C(N1)=CC(C)=CC2",
    "meta_data": {
        "InChI": "InChI=1S/C9H9NO/c1-6-2-3-7-5-9(11)10-8(7)4-6/h2-4H,5H2,1H3,(H,10,11)",
        "InChIKey": null,
        "Canonical SMILES": "O=C1NC2=CC(=CC=C2C1)C",
        "Molecular Formula": "C<sub>9</sub>H<sub>9</sub>NO",
        "Molecular Mass": "147.17",
        "Melting Point": "179-180 °C"
    }
}