{
    "cas_no": "63909-58-0",
    "key_name": "Diethyl <em>P</em>-[(4-fluorophenyl)methyl]phosphonate",
    "cn_name": null,
    "alternate_name": "Phosphonic acid, <em>P</em>-[(4-fluorophenyl)methyl]-, diethyl ester;Phosphonic acid, [(4-fluorophenyl)methyl]-, diethyl ester;Diethyl <em>P</em>-[(4-fluorophenyl)methyl]phosphonate;Diethyl (<em>p</em>-fluorophenyl)methanephosphonate;Diethyl 4-fluorobenzylphosphonate;4-Fluorobenzylphosphonic acid diethyl ester;[(4-Fluorophenyl)methyl]phosphonic acid diethyl ester;1-(Diethoxyphosphorylmethyl)-4-fluorobenzene",
    "duplicated_cas_no": "",
    "SMILES": "C(P(OCC)(OCC)=O)C1=CC=C(F)C=C1",
    "meta_data": {
        "InChI": "InChI=1S/C11H16FO3P/c1-3-14-16(13,15-4-2)9-10-5-7-11(12)8-6-10/h5-8H,3-4,9H2,1-2H3",
        "InChIKey": null,
        "Canonical SMILES": "O=P(OCC)(OCC)CC1=CC=C(F)C=C1",
        "Molecular Formula": "C<sub>11</sub>H<sub>16</sub>FO<sub>3</sub>P",
        "Molecular Mass": "246.22",
        "Boiling Point": "103 °C"
    }
}