{
    "cas_no": "2883-98-9",
    "key_name": "Asarone",
    "cn_name": null,
    "alternate_name": "Benzene, 1,2,4-trimethoxy-5-(1<em>E</em>)-1-propen-1-yl-;Benzene, 1,2,4-trimethoxy-5-propenyl-, (<em>E</em>)-;Benzene, 1,2,4-trimethoxy-5-(1-propenyl)-, (<em>E</em>)-;Isoasaron;Benzene, 1,2,4-trimethoxy-5-(1<em>E</em>)-1-propenyl-;1,2,4-Trimethoxy-5-(1<em>E</em>)-1-propen-1-ylbenzene;Asaron;<em>trans</em>-Asarone;Asarum camphor;Asarone;α-Asarone;<em>trans</em>-Isoasaron;<em>trans</em>-Isoasarone;(<em>E</em>)-Asarone;α-Asaron;(<em>E</em>)-1,2,4-Trimethoxy-5-(prop-1-en-1-yl)benzene;1,2,4-Trimethoxy-5[(1<em>E</em>)-1-propenyl]benzene",
    "duplicated_cas_no": "",
    "SMILES": "C(=C/C)\\C1=C(OC)C=C(OC)C(OC)=C1",
    "meta_data": {
        "InChI": "InChI=1S/C12H16O3/c1-5-6-9-7-11(14-3)12(15-4)8-10(9)13-2/h5-8H,1-4H3/b6-5+",
        "InChIKey": null,
        "Canonical SMILES": "O(C=1C=C(OC)C(C=CC)=CC1OC)C",
        "Molecular Formula": "C<sub>12</sub>H<sub>16</sub>O<sub>3</sub>",
        "Molecular Mass": "208.25",
        "Boiling Point": "296 °C @ Press: 760 Torr",
        "Melting Point": "62-63 °C"
    }
}