{
    "cas_no": "17957-94-7",
    "key_name": "(+)-Menthofuran",
    "cn_name": "(+)-薄荷呋喃;",
    "alternate_name": "Benzofuran, 4,5,6,7-tetrahydro-3,6-dimethyl-, (6<em>R</em>)-;<em>p</em>-Mentha-3,8-diene, 3,9-epoxy-, (+)-;Benzofuran, 4,5,6,7-tetrahydro-3,6-dimethyl-, (<em>R</em>)-;(6<em>R</em>)-4,5,6,7-Tetrahydro-3,6-dimethylbenzofuran;(+)-Menthofuran;(<em>R</em>)-(+)-Menthofuran;(<em>R</em>)-Menthofuran;(R)-3,6-Dimethyl-4,5,6,7-tetrahydrobenzofuran;(6R)-3,6-Dimethyl-4,5,6,7-tetrahydro-1-benzofuran",
    "duplicated_cas_no": "",
    "SMILES": "CC=1C2=C(OC1)C[C@H](C)CC2",
    "meta_data": {
        "InChI": "InChI=1S/C10H14O/c1-7-3-4-9-8(2)6-11-10(9)5-7/h6-7H,3-5H2,1-2H3/t7-/m1/s1",
        "InChIKey": null,
        "Canonical SMILES": "O1C=C(C2=C1CC(C)CC2)C",
        "Molecular Formula": "C<sub>10</sub>H<sub>14</sub>O",
        "Molecular Mass": "150.22",
        "Boiling Point": "72-73 °C @ Press: 10 Torr"
    }
}