{
    "cas_no": "486-70-4",
    "key_name": "Lupinine",
    "cn_name": "羽扇豆宁;",
    "alternate_name": "2<em>H</em>-Quinolizine-1-methanol, octahydro-, (1<em>R</em>,9a<em>R</em>)-;Lupinine;2<em>H</em>-Quinolizine-1-methanol, octahydro-, (1<em>R</em>-<em>trans</em>)-;(1<em>R</em>,9a<em>R</em>)-Octahydro-2<em>H</em>-quinolizine-1-methanol;(-)-Lupinine;(-)-Octahydro-1<em>H</em>-quinolizine-1-methanol;NSC 21723;(1<em>R</em>,9a<em>R</em>)-(Octahydroquinolizin-1-yl)methanol;1-((1R,9<em>a</em>R)-Octahydroquinolizidin-1-yl)methanol;(<em>R</em>,<em>R</em>)-1-(Hydroxymethyl)octahydroindolizine",
    "duplicated_cas_no": "3000-87-1;31456-49-2",
    "SMILES": "C(O)[C@H]1[C@@]2(N(CCC1)CCCC2)[H]",
    "meta_data": {
        "InChI": "InChI=1S/C10H19NO/c12-8-9-4-3-7-11-6-2-1-5-10(9)11/h9-10,12H,1-8H2/t9-,10+/m0/s1",
        "InChIKey": null,
        "Canonical SMILES": "OCC1CCCN2CCCCC21",
        "Molecular Formula": "C<sub>10</sub>H<sub>19</sub>NO",
        "Molecular Mass": "169.26",
        "Boiling Point": "270 °C",
        "Melting Point": "70 °C"
    }
}