{
    "cas_no": "38183-12-9",
    "key_name": "Fluorescamine",
    "cn_name": "荧光胺;荧胺;4-苯基螺[呋喃-2(3H),1-二氢异苯并呋喃]-3,3\"-二酮;",
    "alternate_name": "Spiro[furan-2(3<em>H</em>),1′(3′<em>H</em>)-isobenzofuran]-3,3′-dione, 4-phenyl-;4-Phenylspiro[furan-2(3<em>H</em>),1′(3′<em>H</em>)-isobenzofuran]-3,3′-dione;4-Phenylspiro[furan-2(3<em>H</em>),1′-phthalan]-3,3′-dione;Fluorescamine;Ro 20-7234;Fluram;MeSH ID: D005450",
    "duplicated_cas_no": "",
    "SMILES": "O=C1C2(C=3C(C(=O)O2)=CC=CC3)OC=C1C4=CC=CC=C4",
    "meta_data": {
        "InChI": "InChI=1S/C17H10O4/c18-15-13(11-6-2-1-3-7-11)10-20-17(15)14-9-5-4-8-12(14)16(19)21-17/h1-10H",
        "InChIKey": null,
        "Canonical SMILES": "O=C1OC2(OC=C(C=3C=CC=CC3)C2=O)C=4C=CC=CC14",
        "Molecular Formula": "C<sub>17</sub>H<sub>10</sub>O<sub>4</sub>",
        "Molecular Mass": "278.26",
        "Melting Point": "154.5 °C"
    }
}