{
    "cas_no": "12086-40-7",
    "key_name": "(Ferrocenylmethyl)trimethylammonium iodide",
    "cn_name": "(二茂铁基甲基)三甲基碘化铵;",
    "alternate_name": "Methanaminium, 1-ferrocenyl-<em>N</em>,<em>N</em>,<em>N</em>-trimethyl-, iodide (1:1);Ammonium, (ferrocenylmethyl)trimethyl-, iodide;Methanaminium, 1-ferrocenyl-<em>N</em>,<em>N</em>,<em>N</em>-trimethyl-, iodide;Iron, cyclopentadienyl[[(dimethylamino)methyl]cyclopentadienyl]-, methiodide;<em>N</em>-Ferrocenylmethyl-<em>N</em>,<em>N</em>,<em>N</em>-trimethylammonium iodide;(<em>N</em>,<em>N</em>-Dimethylaminomethyl)ferrocene methiodide;(Trimethylammoniomethyl)ferrocene iodide;<em>N</em>-(Ferrocenylmethyl)trimethylammonium iodide;(Ferrocenylmethyl)trimethylammonium iodide;NSC 20888;<em>N</em>,<em>N</em>,<em>N</em>-Trimethyl(ferrocenylmethyl)ammonium iodide",
    "duplicated_cas_no": "",
    "SMILES": "C([N+](C)(C)C)[C-]12[Fe+2]3456789([CH]1=[CH]3[CH]4=[CH]52)[CH-]%10[CH]6=[CH]7[CH]8=[CH]9%10.[I-]",
    "meta_data": {
        "InChI": "InChI=1S/C9H15N.C5H5.Fe.HI/c1-10(2,3)8-9-6-4-5-7-9;1-2-4-5-3-1;;/h4-7H,8H2,1-3H3;1-5H;;1H/q;-1;+2;/p-1",
        "InChIKey": null,
        "Canonical SMILES": "[I-].C[N+](C)(C)C[C-]12[CH]3=[CH]4[CH]5=[CH]1[Fe+2]67894532[CH]=%10[CH]9=[CH]8[CH-]7[CH]%106",
        "Molecular Formula": "C<sub>14</sub>H<sub>20</sub>FeN.I",
        "Molecular Mass": "",
        "Melting Point": "218 °C (decomp)"
    }
}