{
    "cas_no": "486-90-8",
    "key_name": "(-)-Thermopsine",
    "cn_name": "黄华碱;",
    "alternate_name": "7,14-Methano-2<em>H</em>,11<em>H</em>-dipyrido[1,2-<em>a</em>:1′,2′-<em>e</em>][1,5]diazocin-11-one, 1,3,4,6,7,13,14,14a-octahydro-, (7<em>R</em>,14<em>R</em>,14a<em>S</em>)-;Thermopsine;7,14-Methano-2<em>H</em>,11<em>H</em>-dipyrido[1,2-<em>a</em>:1′,2′-<em>e</em>][1,5]diazocin-11-one, 1,3,4,6,7,13,14,14a-octahydro-, [7<em>R</em>-(7α,14α,14aα)]-;(7<em>R</em>,14<em>R</em>,14a<em>S</em>)-1,3,4,6,7,13,14,14a-Octahydro-7,14-methano-2<em>H</em>,11<em>H</em>-dipyrido[1,2-<em>a</em>:1′,2′-<em>e</em>][1,5]diazocin-11-one;<em>l</em>-Thermopsine;(-)-Thermopsine;NSC 21725",
    "duplicated_cas_no": "",
    "SMILES": "O=C1N2C([C@@]3(C[C@](C2)([C@]4(N(C3)CCCC4)[H])[H])[H])=CC=C1",
    "meta_data": {
        "InChI": "InChI=1S/C15H20N2O/c18-15-6-3-5-14-11-8-12(10-17(14)15)13-4-1-2-7-16(13)9-11/h3,5-6,11-13H,1-2,4,7-10H2/t11-,12-,13+/m1/s1",
        "InChIKey": null,
        "Canonical SMILES": "O=C1C=CC=C2N1CC3CC2CN4CCCCC43",
        "Molecular Formula": "C<sub>15</sub>H<sub>20</sub>N<sub>2</sub>O",
        "Molecular Mass": "244.33",
        "Melting Point": "205-205.5 °C"
    }
}