{
    "cas_no": "1484-13-5",
    "key_name": "<em>N</em>-Vinylcarbazole",
    "cn_name": "N-乙烯基咔唑;",
    "alternate_name": "9<em>H</em>-Carbazole, 9-ethenyl-;Carbazole, 9-vinyl-;9-Ethenyl-9<em>H</em>-carbazole;<em>N</em>-Vinylcarbazole;9-Vinylcarbazole;<em>N</em>-Ethenylcarbazole;9-Vinyl-9<em>H</em>-carbazole;NSC 406868;P 0656;V 0021;HRM-C 01",
    "duplicated_cas_no": "228120-10-3;2130972-98-2",
    "SMILES": "C(=C)N1C=2C(C=3C1=CC=CC3)=CC=CC2",
    "meta_data": {
        "InChI": "InChI=1S/C14H11N/c1-2-15-13-9-5-3-7-11(13)12-8-4-6-10-14(12)15/h2-10H,1H2",
        "InChIKey": null,
        "Canonical SMILES": "C=CN1C=2C=CC=CC2C=3C=CC=CC31",
        "Molecular Formula": "C<sub>14</sub>H<sub>11</sub>N",
        "Molecular Mass": "193.24",
        "Boiling Point": "170-180 °C @ Press: 15 Torr",
        "Melting Point": "66 °C"
    }
}