{
    "cas_no": "36455-72-8",
    "key_name": "(-)-α-Zearalenol",
    "cn_name": null,
    "alternate_name": "1<em>H</em>-2-Benzoxacyclotetradecin-1-one, 3,4,5,6,7,8,9,10-octahydro-7,14,16-trihydroxy-3-methyl-, (3<em>S</em>,7<em>R</em>,11<em>E</em>)-;1<em>H</em>-2-Benzoxacyclotetradecin-1-one, 3,4,5,6,7,8,9,10-octahydro-7,14,16-trihydroxy-3-methyl-, [3<em>S</em>-(3<em>R</em>*,7<em>S</em>*,11<em>E</em>)]-;(3<em>S</em>,7<em>R</em>,11<em>E</em>)-3,4,5,6,7,8,9,10-Octahydro-7,14,16-trihydroxy-3-methyl-1<em>H</em>-2-benzoxacyclotetradecin-1-one;<em>trans</em>-Zearalenol;α-Zearalenol;Zearalenol;(-)-α-Zearalenol",
    "duplicated_cas_no": "40790-12-3",
    "SMILES": "OC1=C2C(=CC(O)=C1)/C=C/CCC[C@@H](O)CCC[C@H](C)OC2=O",
    "meta_data": {
        "InChI": "InChI=1S/C18H24O5/c1-12-6-5-9-14(19)8-4-2-3-7-13-10-15(20)11-16(21)17(13)18(22)23-12/h3,7,10-12,14,19-21H,2,4-6,8-9H2,1H3/b7-3+/t12-,14+/m0/s1",
        "InChIKey": null,
        "Canonical SMILES": "O=C1OC(C)CCCC(O)CCCC=CC=2C=C(O)C=C(O)C12",
        "Molecular Formula": "C<sub>18</sub>H<sub>24</sub>O<sub>5</sub>",
        "Molecular Mass": "320.38",
        "Melting Point": "169-170 °C"
    }
}