{
    "cas_no": "109425-51-6",
    "key_name": "<em>N</em>-[(9<em>H</em>-Fluoren-9-ylmethoxy)carbonyl]-1-(triphenylmethyl)-<span class=\"text-smallcaps\">L</span>-histidine",
    "cn_name": "N-Fmoc-N\"-三苯甲基-L-组氨酸;N-芴甲氧羰基-N\"-三苯甲基-L-组氨酸;",
    "alternate_name": "<span class=\"text-smallcaps\">L</span>-Histidine, <em>N</em>-[(9<em>H</em>-fluoren-9-ylmethoxy)carbonyl]-1-(triphenylmethyl)-;<em>N</em>-[(9<em>H</em>-Fluoren-9-ylmethoxy)carbonyl]-1-(triphenylmethyl)-<span class=\"text-smallcaps\">L</span>-histidine;(2S)-2-(9<em>H</em>-Fluoren-9-ylmethoxycarbonylamino)-3-(1-tritylimidazol-4-yl)propanoic acid;(2S)-2-([[(9<em>H</em>-Fluoren-9-yl)methoxy]carbonyl]amino)-3-[1-(triphenylmethyl)-1<em>H</em>-imidazol-4-yl]propanoic acid;<em>N</em>-Fmoc-<em>N</em>′-trityl-<span class=\"text-smallcaps\">L</span>-histidine",
    "duplicated_cas_no": "199109-91-6",
    "SMILES": "C(N1C=C(C[C@H](NC(OCC2C=3C(C=4C2=CC=CC4)=CC=CC3)=O)C(O)=O)N=C1)(C5=CC=CC=C5)(C6=CC=CC=C6)C7=CC=CC=C7",
    "meta_data": {
        "InChI": "InChI=1S/C40H33N3O4/c44-38(45)37(42-39(46)47-26-36-34-22-12-10-20-32(34)33-21-11-13-23-35(33)36)24-31-25-43(27-41-31)40(28-14-4-1-5-15-28,29-16-6-2-7-17-29)30-18-8-3-9-19-30/h1-23,25,27,36-37H,24,26H2,(H,42,46)(H,44,45)/t37-/m0/s1",
        "InChIKey": null,
        "Canonical SMILES": "O=C(O)C(NC(=O)OCC1C=2C=CC=CC2C=3C=CC=CC31)CC=4N=CN(C4)C(C=5C=CC=CC5)(C=6C=CC=CC6)C=7C=CC=CC7",
        "Molecular Formula": "C<sub>40</sub>H<sub>33</sub>N<sub>3</sub>O<sub>4</sub>",
        "Molecular Mass": "619.71",
        "Melting Point": "145 °C"
    }
}