{
    "cas_no": "37026-88-3",
    "key_name": "1-Butanaminium, <em>N</em>,<em>N</em>-dibutyl-<em>N</em>-methyl-, bromide (1:1)",
    "cn_name": "甲基三正丁基溴化铵;甲基三丁基溴化铵;",
    "alternate_name": "1-Butanaminium, <em>N</em>,<em>N</em>-dibutyl-<em>N</em>-methyl-, bromide (1:1);1-Butanaminium, <em>N</em>,<em>N</em>-dibutyl-<em>N</em>-methyl-, bromide;Tributylmethylammonium bromide;Methyltributylammonium bromide;<em>N</em>-Methyl-<em>N</em>,<em>N</em>,<em>N</em>-tributylammonium bromide",
    "duplicated_cas_no": "",
    "SMILES": "[N+](CCCC)(CCCC)(CCCC)C.[Br-]",
    "meta_data": {
        "InChI": "InChI=1S/C13H30N.BrH/c1-5-8-11-14(4,12-9-6-2)13-10-7-3;/h5-13H2,1-4H3;1H/q+1;/p-1",
        "InChIKey": null,
        "Canonical SMILES": "[Br-].CCCC[N+](C)(CCCC)CCCC",
        "Molecular Formula": "C<sub>13</sub>H<sub>30</sub>N.Br",
        "Molecular Mass": "",
        "Melting Point": "120.5-121.5 °C"
    }
}