{
    "cas_no": "2260-50-6",
    "key_name": "Acetylcholine iodide",
    "cn_name": null,
    "alternate_name": "Ethanaminium, 2-(acetyloxy)-<em>N</em>,<em>N</em>,<em>N</em>-trimethyl-, iodide (1:1);Choline acetate (ester), iodide;Ethanaminium, 2-(acetyloxy)-<em>N</em>,<em>N</em>,<em>N</em>-trimethyl-, iodide;Choline, acetyl-, iodide;Acetylcholine iodide;2-(Dimethylamino)ethyl acetate methiodide",
    "duplicated_cas_no": "",
    "SMILES": "C(COC(C)=O)[N+](C)(C)C.[I-]",
    "meta_data": {
        "InChI": "InChI=1S/C7H16NO2.HI/c1-7(9)10-6-5-8(2,3)4;/h5-6H2,1-4H3;1H/q+1;/p-1",
        "InChIKey": null,
        "Canonical SMILES": "[I-].O=C(OCC[N+](C)(C)C)C",
        "Molecular Formula": "C<sub>7</sub>H<sub>16</sub>NO<sub>2</sub>.I",
        "Molecular Mass": "",
        "Melting Point": "160-162 °C",
        "Density": "1.43 g/cm³"
    }
}