{
    "cas_no": "272-67-3",
    "key_name": "Thieno[3,2-<em>b</em>]pyridine",
    "cn_name": null,
    "alternate_name": "Thieno[3,2-<em>b</em>]pyridine",
    "duplicated_cas_no": "",
    "SMILES": "C1=2C(SC=C1)=CC=CN2",
    "meta_data": {
        "InChI": "InChI=1S/C7H5NS/c1-2-7-6(8-4-1)3-5-9-7/h1-5H",
        "InChIKey": null,
        "Canonical SMILES": "N1=CC=CC=2SC=CC12",
        "Molecular Formula": "C<sub>7</sub>H<sub>5</sub>NS",
        "Molecular Mass": "135.19",
        "Boiling Point": "107-108 °C @ Press: 10 Torr"
    }
}