{
    "cas_no": "2628-16-2",
    "key_name": "4-Acetoxystyrene",
    "cn_name": "4-乙酰氧基苯乙烯;对乙酰氧基苯乙烯;",
    "alternate_name": "Phenol, 4-ethenyl-, 1-acetate;Phenol, <em>p</em>-vinyl-, acetate;Phenol, 4-ethenyl-, acetate;<em>p</em>-Acetoxystyrene;4-Acetoxystyrene;4-Vinylphenyl acetate;4-Ethenylphenol acetate;PACS;(4-Ethenylphenyl) acetate;4-Acetoxy-1-ethenylbenzene;Acetic acid 4-vinylphenyl ester",
    "duplicated_cas_no": "",
    "SMILES": "O(C(C)=O)C1=CC=C(C=C)C=C1",
    "meta_data": {
        "InChI": "InChI=1S/C10H10O2/c1-3-9-4-6-10(7-5-9)12-8(2)11/h3-7H,1H2,2H3",
        "InChIKey": null,
        "Canonical SMILES": "O=C(OC1=CC=C(C=C)C=C1)C",
        "Molecular Formula": "C<sub>10</sub>H<sub>10</sub>O<sub>2</sub>",
        "Molecular Mass": "162.19",
        "Boiling Point": "80 °C @ Press: 1.5 Torr",
        "Melting Point": "7-8 °C",
        "Density": "1.0548 g/cm³ @ Temp: 25 °C"
    }
}