{
    "cas_no": "425-87-6",
    "key_name": "2-Chloro-1,1,2-trifluoro-1-methoxyethane",
    "cn_name": "2-氯-1,1,2-三氟乙基甲醚;2-氯-1，1，2-三氟乙基甲醚;",
    "alternate_name": "Ethane, 2-chloro-1,1,2-trifluoro-1-methoxy-;Ether, 2-chloro-1,1,2-trifluoroethyl methyl;2-Chloro-1,1,2-trifluoro-1-methoxyethane;2-Chloro-1,1,2-trifluoroethyl methyl ether;1-Chloro-1,2,2-trifluoro-2-methoxyethane",
    "duplicated_cas_no": "",
    "SMILES": "C(C(Cl)F)(OC)(F)F",
    "meta_data": {
        "InChI": "InChI=1S/C3H4ClF3O/c1-8-3(6,7)2(4)5/h2H,1H3",
        "InChIKey": null,
        "Canonical SMILES": "FC(Cl)C(F)(F)OC",
        "Molecular Formula": "C<sub>3</sub>H<sub>4</sub>ClF<sub>3</sub>O",
        "Molecular Mass": "148.51",
        "Boiling Point": "70.6 °C",
        "Density": "1.3636 g/cm³ @ Temp: 20 °C"
    }
}