{
    "cas_no": "3380-34-5",
    "key_name": "Triclosan",
    "cn_name": "三氯生;三氯新;2,4,4\"-三氯-2\"-羟基二苯醚;",
    "alternate_name": "Phenol, 5-chloro-2-(2,4-dichlorophenoxy)-;5-Chloro-2-(2,4-dichlorophenoxy)phenol;2,4,4′-Trichloro-2′-hydroxydiphenyl ether;Irgasan CH 3565;Irgasan DP 300;2-Hydroxy-2′,4,4′-trichlorodiphenyl ether;2′,4′,4-Trichloro-2-hydroxydiphenyl ether;2,2′-Oxybis(1′,5′-dichlorophenyl-5-chlorophenol);4-Chloro-2-hydroxyphenyl 2,4-dichlorophenyl ether;Triclosan;CH 3565;2′,4,4′-Trichloro-2-hydroxydiphenyl ether;Irgasan;3-Chloro-6-(2,4-dichlorophenoxy)phenol;Irgasan DP 3000;Zilesan UW;THDP;Bacti-Stat soap;Irgasan DP 30;DP 300;Irgasan PE 30;Irgasan PG 60;Irgacide LP 10;Microban Additive B;Ultra-Fresh NM 100;NM 100;Microban B;Irgaguard B 1000;Tinosan AM 100;Tinosan AM 110;Yujiexin;Vinyzene DP 7000;TCCP;2′-Hydroxy-2,4,4′-trichlorodiphenyl ether;Irgasan DP 400;Oletron;Cansan TCH;SterZac;CH 3635;Sapoderm;Gamophen;Aquasept;Sanitized XTX;Irgacare MP;Irgaguard B 1325;Ultra-Fresh NM-V 2;Microban;2,4,4′-Trichloro-2′-hydroxyldiphenyl ether;Microfresh Liquid Formulation 9200-200;Invasan;Invasan DP 300R;Microfresh 9200-200;Anvasan AM 110;Anvasan AM 110 new;2-(2,4-Dichlorophenoxy)-5-chlorophenol;Germicide CA;MeSH ID: D014260",
    "duplicated_cas_no": "112099-35-1;88032-08-0;164325-69-3;261921-78-2;1155174-27-8",
    "SMILES": "O(C1=C(Cl)C=C(Cl)C=C1)C2=C(O)C=C(Cl)C=C2",
    "meta_data": {
        "InChI": "InChI=1S/C12H7Cl3O2/c13-7-1-3-11(9(15)5-7)17-12-4-2-8(14)6-10(12)16/h1-6,16H",
        "InChIKey": null,
        "Canonical SMILES": "ClC1=CC=C(OC2=CC=C(Cl)C=C2O)C(Cl)=C1",
        "Molecular Formula": "C<sub>12</sub>H<sub>7</sub>Cl<sub>3</sub>O<sub>2</sub>",
        "Molecular Mass": "289.54",
        "Melting Point": "54-57.3 °C",
        "Density": "1550 g/cm³ @ Temp: 22 °C"
    }
}