{
    "cas_no": "3037-04-5",
    "key_name": "Ethanethiol, 2-amino-, 4-methylbenzenesulfonate (1:1)",
    "cn_name": null,
    "alternate_name": "Ethanethiol, 2-amino-, 4-methylbenzenesulfonate (1:1);Ethanethiol, 2-amino-, <em>p</em>-toluenesulfonate (salt);Ethanethiol, 2-amino-, <em>p</em>-toluenesulfonate;Ethanethiol, 2-amino-, 4-methylbenzenesulfonate (salt);2-Mercaptoethylamine <em>p</em>-toluenesulfonate;(Mercaptoethyl)ammonium toluene-<em>p</em>-sulfonate",
    "duplicated_cas_no": "",
    "SMILES": "S(=O)(=O)(O)C1=CC=C(C)C=C1.C(CS)N",
    "meta_data": {
        "InChI": "InChI=1S/C7H8O3S.C2H7NS/c1-6-2-4-7(5-3-6)11(8,9)10;3-1-2-4/h2-5H,1H3,(H,8,9,10);4H,1-3H2",
        "InChIKey": null,
        "Canonical SMILES": "O=S(=O)(O)C1=CC=C(C=C1)C.SCCN",
        "Molecular Formula": "C<sub>7</sub>H<sub>8</sub>O<sub>3</sub>S.C<sub>2</sub>H<sub>7</sub>NS",
        "Molecular Mass": "",
        "Melting Point": "168-170 °C"
    }
}