{
    "cas_no": "111-14-8",
    "key_name": "Heptanoic acid",
    "cn_name": "庚酸;正庚酸;",
    "alternate_name": "Heptanoic acid;Enanthic acid;Enanthylic acid;<em>n</em>-Heptoic acid;Heptylic acid;1-Hexanecarboxylic acid;<em>n</em>-Heptylic acid;Oenanthic acid;Oenanthylic acid;Heptoic acid;<em>n</em>-Heptanoic acid;NSC 2192;Enanthoic acid",
    "duplicated_cas_no": "2243153-85-5",
    "SMILES": "C(CC(O)=O)CCCC",
    "meta_data": {
        "InChI": "InChI=1S/C7H14O2/c1-2-3-4-5-6-7(8)9/h2-6H2,1H3,(H,8,9)",
        "InChIKey": null,
        "Canonical SMILES": "O=C(O)CCCCCC",
        "Molecular Formula": "C<sub>7</sub>H<sub>14</sub>O<sub>2</sub>",
        "Molecular Mass": "130.18",
        "Boiling Point": "222.2 °C",
        "Melting Point": "-7.5 °C",
        "Density": "0.9181 g/cm³ @ Temp: 20 °C"
    }
}