{
    "cas_no": "4532-64-3",
    "key_name": "2,3-Butanedithiol",
    "cn_name": "2,3-丁二硫醇;",
    "alternate_name": "2,3-Butanedithiol;2,3-Dimercaptobutane",
    "duplicated_cas_no": "",
    "SMILES": "C(C(C)S)(C)S",
    "meta_data": {
        "InChI": "InChI=1S/C4H10S2/c1-3(5)4(2)6/h3-6H,1-2H3",
        "InChIKey": null,
        "Canonical SMILES": "SC(C)C(S)C",
        "Molecular Formula": "C<sub>4</sub>H<sub>10</sub>S<sub>2</sub>",
        "Molecular Mass": "122.25",
        "Boiling Point": "86-87 °C @ Press: 50 Torr"
    }
}