{
    "cas_no": "1235406-42-4",
    "key_name": "1,1-Dimethylethyl <em>N</em>-4-thiazolylcarbamate",
    "cn_name": null,
    "alternate_name": "Carbamic acid, <em>N</em>-4-thiazolyl-, 1,1-dimethylethyl ester;1,1-Dimethylethyl <em>N</em>-4-thiazolylcarbamate;(1,3-Thiazol-4-yl)carbamic acid tert-butyl ester;Thiazol-4-ylcarbamic acid tert-butyl ester",
    "duplicated_cas_no": "1897387-18-6",
    "SMILES": "N(C(OC(C)(C)C)=O)C1=CSC=N1",
    "meta_data": {
        "InChI": "InChI=1S/C8H12N2O2S/c1-8(2,3)12-7(11)10-6-4-13-5-9-6/h4-5H,1-3H3,(H,10,11)",
        "InChIKey": null,
        "Canonical SMILES": "O=C(OC(C)(C)C)NC=1N=CSC1",
        "Molecular Formula": "C<sub>8</sub>H<sub>12</sub>N<sub>2</sub>O<sub>2</sub>S",
        "Molecular Mass": "200.26",
        "Melting Point": "153-155 °C"
    }
}