{
    "cas_no": "3160-91-6",
    "key_name": "Moroxydine hydrochloride",
    "cn_name": "盐酸吗啉胍;N-(2-胍基-乙亚氨基)-吗啉盐酸盐;(alpha-吗啉-alpha-亚胺甲基)胍;",
    "alternate_name": "4-Morpholinecarboximidamide, <em>N</em>-(aminoiminomethyl)-, hydrochloride (1:1);4-Morpholinecarboxamidine, <em>N</em>-amidino-, monohydrochloride;4-Morpholinecarboximidamide, <em>N</em>-(aminoiminomethyl)-, monohydrochloride;Guanidine, 4-morpholinecarboximidoyl-, hydrochloride;ABOB hydrochloride;Spenitol;Flumidin;Virustat;<em>N</em><sup>1</sup>,<em>N</em><sup>1</sup>-Anhydrobis(β-hydroxyethyl)biguanide hydrochloride;4-(Amidinoamidino)morpholine hydrochloride;Morpholinobiguanide monohydrochloride;Morpholinobiguanide hydrochloride;Virusmin;Moroxydine hydrochloride;Malinguchlorate;Miejunging",
    "duplicated_cas_no": "8058-46-6;1195550-67-4",
    "SMILES": "C(NC(=N)N)(=N)N1CCOCC1.Cl",
    "meta_data": {
        "InChI": "InChI=1S/C6H13N5O.ClH/c7-5(8)10-6(9)11-1-3-12-4-2-11;/h1-4H2,(H5,7,8,9,10);1H",
        "InChIKey": null,
        "Canonical SMILES": "Cl.N=C(N)NC(=N)N1CCOCC1",
        "Molecular Formula": "C<sub>6</sub>H<sub>13</sub>N<sub>5</sub>O.ClH",
        "Molecular Mass": "",
        "Melting Point": "211-212 °C"
    }
}