{
    "cas_no": "2117-36-4",
    "key_name": "Tributylchlorogermane",
    "cn_name": "氯化三正丁基镓;三丁基氯化锗;三正丁基氯化锗;",
    "alternate_name": "Germane, tributylchloro-;Tributylchlorogermane;Chlorotributylgermane;Tributylgermanium chloride;Tributylgermyl chloride",
    "duplicated_cas_no": "",
    "SMILES": "[Ge](CCCC)(CCCC)(CCCC)Cl",
    "meta_data": {
        "InChI": "InChI=1S/C12H27ClGe/c1-4-7-10-14(13,11-8-5-2)12-9-6-3/h4-12H2,1-3H3",
        "InChIKey": null,
        "Canonical SMILES": "Cl[Ge](CCCC)(CCCC)CCCC",
        "Molecular Formula": "C<sub>12</sub>H<sub>27</sub>ClGe",
        "Molecular Mass": "279.44",
        "Boiling Point": "269-270 °C",
        "Density": "1.054 g/cm³"
    }
}