{
    "cas_no": "7149-75-9",
    "key_name": "4-Chloro-3-methylaniline",
    "cn_name": "4-氯-3-甲基苯胺;",
    "alternate_name": "Benzenamine, 4-chloro-3-methyl-;<em>m</em>-Toluidine, 4-chloro-;4-Chloro-3-methylbenzenamine;5-Amino-2-chlorotoluene;4-Chloro-3-methylaniline;3-Methyl-4-chloroaniline;4-Chloro-<em>m</em>-toluidine;2-Chloro-5-aminotoluene;(4-Chloro-3-methylphenyl)amine;NSC 72329",
    "duplicated_cas_no": "",
    "SMILES": "CC1=C(Cl)C=CC(N)=C1",
    "meta_data": {
        "InChI": "InChI=1S/C7H8ClN/c1-5-4-6(9)2-3-7(5)8/h2-4H,9H2,1H3",
        "InChIKey": null,
        "Canonical SMILES": "ClC1=CC=C(N)C=C1C",
        "Molecular Formula": "C<sub>7</sub>H<sub>8</sub>ClN",
        "Molecular Mass": "141.60",
        "Boiling Point": "241 °C",
        "Melting Point": "83.5 °C"
    }
}