{
    "cas_no": "25532-45-0",
    "key_name": "19-Epiajmalicine",
    "cn_name": null,
    "alternate_name": "Oxayohimban-16-carboxylic acid, 16,17-didehydro-19-methyl-, methyl ester, (19β)-;19-Epiajmalicine;Mayumbine;19-<em>epi</em>-Ajmalicine;(+)-19-<em>epi</em>-Ajmalicine;(+)-19-Epiajmalicine",
    "duplicated_cas_no": "7616-08-2;25404-00-6",
    "SMILES": "C(OC)(=O)C=1[C@]2(C[C@]3(C4=C(C=5C(N4)=CC=CC5)CCN3C[C@@]2([C@@H](C)OC1)[H])[H])[H]",
    "meta_data": {
        "InChI": "InChI=1S/C21H24N2O3/c1-12-16-10-23-8-7-14-13-5-3-4-6-18(13)22-20(14)19(23)9-15(16)17(11-26-12)21(24)25-2/h3-6,11-12,15-16,19,22H,7-10H2,1-2H3/t12-,15+,16-,19+/m1/s1",
        "InChIKey": null,
        "Canonical SMILES": "O=C(OC)C1=COC(C)C2CN3CCC=4C=5C=CC=CC5NC4C3CC12",
        "Molecular Formula": "C<sub>21</sub>H<sub>24</sub>N<sub>2</sub>O<sub>3</sub>",
        "Molecular Mass": "352.43",
        "Melting Point": "216 °C"
    }
}