{
    "cas_no": "2495-37-6",
    "key_name": "Benzyl methacrylate",
    "cn_name": "甲基丙烯酸苄基酯;",
    "alternate_name": "2-Propenoic acid, 2-methyl-, phenylmethyl ester;Methacrylic acid, benzyl ester;Benzyl methacrylate;Benzyl 2-methylacrylate;Light Ester BZ;Benzyl 2-methyl-2-propenoate;Acryester BZ;NSC 20970;BzMA;Phenylmethyl 2-methyl-2-propenoate;Fancryl FA-BZM;FZ-BZA;FA-BZM;Benzyl α-methylacrylate;Miramer M 1183;A 003M;Visiomer BNMA",
    "duplicated_cas_no": "2696-41-5",
    "SMILES": "C(OC(C(C)=C)=O)C1=CC=CC=C1",
    "meta_data": {
        "InChI": "InChI=1S/C11H12O2/c1-9(2)11(12)13-8-10-6-4-3-5-7-10/h3-7H,1,8H2,2H3",
        "InChIKey": null,
        "Canonical SMILES": "O=C(OCC=1C=CC=CC1)C(=C)C",
        "Molecular Formula": "C<sub>11</sub>H<sub>12</sub>O<sub>2</sub>",
        "Molecular Mass": "176.21",
        "Boiling Point": "104-106 °C @ Press: 6 Torr",
        "Melting Point": "&lt;25 °C",
        "Density": "1.0399 g/cm³ @ Temp: 204 °C"
    }
}