{
    "cas_no": "2040-04-2",
    "key_name": "1-(2,6-Dimethoxyphenyl)ethanone",
    "cn_name": "2,6-二甲氧基苯乙酮;",
    "alternate_name": "Ethanone, 1-(2,6-dimethoxyphenyl)-;Acetophenone, 2′,6′-dimethoxy-;Acetophenone, 2,6-dimethoxy-;1-(2,6-Dimethoxyphenyl)ethanone;2′,6′-Dimethoxyacetophenone;1-(2,6-Dimethoxyphenyl)ethan-1-one",
    "duplicated_cas_no": "",
    "SMILES": "C(C)(=O)C1=C(OC)C=CC=C1OC",
    "meta_data": {
        "InChI": "InChI=1S/C10H12O3/c1-7(11)10-8(12-2)5-4-6-9(10)13-3/h4-6H,1-3H3",
        "InChIKey": null,
        "Canonical SMILES": "O=C(C=1C(OC)=CC=CC1OC)C",
        "Molecular Formula": "C<sub>10</sub>H<sub>12</sub>O<sub>3</sub>",
        "Molecular Mass": "180.20",
        "Boiling Point": "135-136 °C",
        "Melting Point": "73-74 °C"
    }
}