{
    "cas_no": "54093-92-4",
    "key_name": "2,2′-[(6-Chloro-4,8-di-1-piperidinylpyrimido[5,4-<em>d</em>]pyrimidin-2-yl)imino]bis[ethanol]",
    "cn_name": null,
    "alternate_name": "Ethanol, 2,2′-[(6-chloro-4,8-di-1-piperidinylpyrimido[5,4-<em>d</em>]pyrimidin-2-yl)imino]bis-;Ethanol, 2,2′-[(6-chloro-4,8-dipiperidinopyrimido[5,4-<em>d</em>]pyrimidin-2-yl)imino]di-;Pyrimido[5,4-<em>d</em>]pyrimidine, ethanol deriv.;2,2′-[(6-Chloro-4,8-di-1-piperidinylpyrimido[5,4-<em>d</em>]pyrimidin-2-yl)imino]bis[ethanol];2-Diethanolamino-6-chloro-4,8-dipiperidinopyrimido[5,4-<em>d</em>]pyrimidine;2-[[2-Chloro-4,8-di(piperidin-1-yl)pyrimido[5,4-<em>d</em>]pyrimidin-6-yl]-(2-hydroxyethyl)amino]ethanol",
    "duplicated_cas_no": "",
    "SMILES": "N(CCO)(CCO)C1=NC2=C(C(=N1)N3CCCCC3)N=C(Cl)N=C2N4CCCCC4",
    "meta_data": {
        "InChI": "InChI=1S/C20H30ClN7O2/c21-19-22-15-16(17(24-19)26-7-3-1-4-8-26)23-20(28(11-13-29)12-14-30)25-18(15)27-9-5-2-6-10-27/h29-30H,1-14H2",
        "InChIKey": null,
        "Canonical SMILES": "ClC=1N=C2C(N=C(N=C2N3CCCCC3)N(CCO)CCO)=C(N1)N4CCCCC4",
        "Molecular Formula": "C<sub>20</sub>H<sub>30</sub>ClN<sub>7</sub>O<sub>2</sub>",
        "Molecular Mass": "435.95",
        "Melting Point": "155-157 °C"
    }
}