{
    "cas_no": "13375-29-6",
    "key_name": "α-Cyclopropylcyclopropanemethanamine",
    "cn_name": "双环丙基甲胺;",
    "alternate_name": "Cyclopropanemethanamine, α-cyclopropyl-;Methylamine, 1,1-dicyclopropyl-;α-Cyclopropylcyclopropanemethanamine;Dicyclopropylmethylamine;1,1-Dicyclopropylmethanamine;Dicyclopropylmethanamine",
    "duplicated_cas_no": "",
    "SMILES": "C(N)(C1CC1)C2CC2",
    "meta_data": {
        "InChI": "InChI=1S/C7H13N/c8-7(5-1-2-5)6-3-4-6/h5-7H,1-4,8H2",
        "InChIKey": null,
        "Canonical SMILES": "NC(C1CC1)C2CC2",
        "Molecular Formula": "C<sub>7</sub>H<sub>13</sub>N",
        "Molecular Mass": "111.18",
        "Boiling Point": "55-65 °C @ Press: 11 Torr"
    }
}