{
    "cas_no": "762-99-2",
    "key_name": "(<em>T</em>-4)-Dichlorobis(2-propanolato)titanium",
    "cn_name": "二氯化钛二异丙醇烷;",
    "alternate_name": "Titanium, dichlorobis(2-propanolato)-, (<em>T</em>-4)-;Titanium, dichlorodiisopropoxy-;(<em>T</em>-4)-Dichlorobis(2-propanolato)titanium;Dichlorodiisopropoxytitanium;Diisopropoxytitanium dichloride;Dichlorotitanium diisopropoxide;Titanium dichloride diisopropoxide;Bis(isopropoxy)titanium dichloride;Dichlorobis(isopropoxy)titanium;Dichlorobis(isopropoxo)titanium;Dichlorobis(isopropanolato)titanium;Titanium diisopropoxide dichloride;Dichlorobis(2-propanolato)titanium;Dichlorodiisopropoxotitanium;Titanium dichloride diisopropylate",
    "duplicated_cas_no": "15972-80-2",
    "SMILES": "O([Ti](OC(C)C)(Cl)Cl)C(C)C",
    "meta_data": {
        "InChI": "InChI=1S/2C3H7O.2ClH.Ti/c2*1-3(2)4;;;/h2*3H,1-2H3;2*1H;/q2*-1;;;+4/p-2",
        "InChIKey": null,
        "Canonical SMILES": "Cl[Ti](Cl)(OC(C)C)OC(C)C",
        "Molecular Formula": "C<sub>6</sub>H<sub>14</sub>Cl<sub>2</sub>O<sub>2</sub>Ti",
        "Molecular Mass": "",
        "Melting Point": "42-43 °C"
    }
}