{
    "cas_no": "115287-37-1",
    "key_name": "<em>N</em>-Methyl-4-nitro-<em>N</em>-[2-(4-nitrophenoxy)ethyl]benzeneethanamine",
    "cn_name": "N-甲基-N-(4-硝基苯氧乙基)-4-硝基苯乙胺;",
    "alternate_name": "Benzeneethanamine, <em>N</em>-methyl-4-nitro-<em>N</em>-[2-(4-nitrophenoxy)ethyl]-;<em>N</em>-Methyl-4-nitro-<em>N</em>-[2-(4-nitrophenoxy)ethyl]benzeneethanamine",
    "duplicated_cas_no": "",
    "SMILES": "C(CN(CCOC1=CC=C(N(=O)=O)C=C1)C)C2=CC=C(N(=O)=O)C=C2",
    "meta_data": {
        "InChI": "InChI=1S/C17H19N3O5/c1-18(11-10-14-2-4-15(5-3-14)19(21)22)12-13-25-17-8-6-16(7-9-17)20(23)24/h2-9H,10-13H2,1H3",
        "InChIKey": null,
        "Canonical SMILES": "O=N(=O)C1=CC=C(OCCN(C)CCC2=CC=C(C=C2)N(=O)=O)C=C1",
        "Molecular Formula": "C<sub>17</sub>H<sub>19</sub>N<sub>3</sub>O<sub>5</sub>",
        "Molecular Mass": "345.35",
        "Melting Point": "74 °C"
    }
}