{
    "cas_no": "5985-28-4",
    "key_name": "Synephrine hydrochloride",
    "cn_name": "辛弗林盐酸盐;1-(4-羟基苯基)-2-(甲基氨基)-乙醇盐酸盐;",
    "alternate_name": "Benzenemethanol, 4-hydroxy-α-[(methylamino)methyl]-, hydrochloride (1:1);Benzyl alcohol, <em>p</em>-hydroxy-α-[(methylamino)methyl]-, hydrochloride;Benzenemethanol, 4-hydroxy-α-[(methylamino)methyl]-, hydrochloride;<em>p</em>-Hydroxy-α-(methylaminomethyl)benzyl alcohol hydrochloride;Synephrine hydrochloride;Oxedrine hydrochloride",
    "duplicated_cas_no": "61186-11-6",
    "SMILES": "C(CNC)(O)C1=CC=C(O)C=C1.Cl",
    "meta_data": {
        "InChI": "InChI=1S/C9H13NO2.ClH/c1-10-6-9(12)7-2-4-8(11)5-3-7;/h2-5,9-12H,6H2,1H3;1H",
        "InChIKey": null,
        "Canonical SMILES": "Cl.OC1=CC=C(C=C1)C(O)CNC",
        "Molecular Formula": "C<sub>9</sub>H<sub>13</sub>NO<sub>2</sub>.ClH",
        "Molecular Mass": "",
        "Melting Point": "151-152 °C"
    }
}