{
    "cas_no": "84547-64-8",
    "key_name": "3-(Chloromethyl)-1-methyl-1<em>H</em>-pyrazole",
    "cn_name": null,
    "alternate_name": "1<em>H</em>-Pyrazole, 3-(chloromethyl)-1-methyl-;3-(Chloromethyl)-1-methyl-1<em>H</em>-pyrazole;3-Chloromethyl-1-methylpyrazole;3-Chloromethyl-1-methyl-1<em>H</em>-pyrazole",
    "duplicated_cas_no": "",
    "SMILES": "C(Cl)C1=NN(C)C=C1",
    "meta_data": {
        "InChI": "InChI=1S/C5H7ClN2/c1-8-3-2-5(4-6)7-8/h2-3H,4H2,1H3",
        "InChIKey": null,
        "Canonical SMILES": "ClCC1=NN(C=C1)C",
        "Molecular Formula": "C<sub>5</sub>H<sub>7</sub>ClN<sub>2</sub>",
        "Molecular Mass": "130.58",
        "Boiling Point": "146-148 °C"
    }
}