{
    "cas_no": "18156-15-5",
    "key_name": "3-Cyanopropyldimethylchlorosilane",
    "cn_name": "4-(二甲基氯硅基)丁腈;",
    "alternate_name": "Butanenitrile, 4-(chlorodimethylsilyl)-;Butyronitrile, 4-(chlorodimethylsilyl)-;4-(Chlorodimethylsilyl)butanenitrile;Chloro(3-cyanopropyl)dimethylsilane;3-Cyanopropyldimethylchlorosilane;3-Cyanopropyldimethylsilyl chloride;3-(Chlorodimethylsilyl)butyronitrile",
    "duplicated_cas_no": "178664-51-2",
    "SMILES": "C([Si](C)(C)Cl)CCC#N",
    "meta_data": {
        "InChI": "InChI=1S/C6H12ClNSi/c1-9(2,7)6-4-3-5-8/h3-4,6H2,1-2H3",
        "InChIKey": null,
        "Canonical SMILES": "N#CCCC[Si](Cl)(C)C",
        "Molecular Formula": "C<sub>6</sub>H<sub>12</sub>ClNSi",
        "Molecular Mass": "161.70",
        "Boiling Point": "108-109 °C @ Press: 15 Torr",
        "Density": "0.986 g/cm³"
    }
}