{
    "cas_no": "6914-71-2",
    "key_name": "1,1-Cyclopropanedicarboxylic acid, 1,1-dimethyl ester",
    "cn_name": "1,1-环丙烷二甲酸二甲酯;",
    "alternate_name": "1,1-Cyclopropanedicarboxylic acid, 1,1-dimethyl ester;1,1-Cyclopropanedicarboxylic acid, dimethyl ester;Dimethyl 1,1-cyclopropanedicarboxylate;1,1-Dimethyl cyclopropane-1,1-dicarboxylate",
    "duplicated_cas_no": "151444-20-1",
    "SMILES": "C(OC)(=O)C1(C(OC)=O)CC1",
    "meta_data": {
        "InChI": "InChI=1S/C7H10O4/c1-10-5(8)7(3-4-7)6(9)11-2/h3-4H2,1-2H3",
        "InChIKey": null,
        "Canonical SMILES": "O=C(OC)C1(C(=O)OC)CC1",
        "Molecular Formula": "C<sub>7</sub>H<sub>10</sub>O<sub>4</sub>",
        "Molecular Mass": "158.15",
        "Boiling Point": "98 °C @ Press: 22 Torr"
    }
}