{
    "cas_no": "250-84-0",
    "key_name": "Thieno[2,3-<em>b</em>]thiophene",
    "cn_name": "噻吩[2,3-B]噻吩;",
    "alternate_name": "Thieno[2,3-<em>b</em>]thiophene;Thiophthene;1,6-Thiophthene",
    "duplicated_cas_no": "",
    "SMILES": "C12=C(SC=C1)SC=C2",
    "meta_data": {
        "InChI": "InChI=1S/C6H4S2/c1-3-7-6-5(1)2-4-8-6/h1-4H",
        "InChIKey": null,
        "Canonical SMILES": "S1C=CC=2C=CSC12",
        "Molecular Formula": "C<sub>6</sub>H<sub>4</sub>S<sub>2</sub>",
        "Molecular Mass": "140.23",
        "Boiling Point": "102 °C @ Press: 16 Torr"
    }
}