{
    "cas_no": "597-76-2",
    "key_name": "3-Ethyl-3-hexanol",
    "cn_name": "3-乙基-3-己醇;3-乙基-3-己醇;二乙基丙基甲醇;",
    "alternate_name": "3-Hexanol, 3-ethyl-;3-Ethyl-3-hexanol;1,1-Diethyl-1-butanol;1,1-Diethylbutanol;NSC 28044",
    "duplicated_cas_no": "",
    "SMILES": "C(CCC)(CC)(CC)O",
    "meta_data": {
        "InChI": "InChI=1S/C8H18O/c1-4-7-8(9,5-2)6-3/h9H,4-7H2,1-3H3",
        "InChIKey": null,
        "Canonical SMILES": "OC(CC)(CC)CCC",
        "Molecular Formula": "C<sub>8</sub>H<sub>18</sub>O",
        "Molecular Mass": "130.23",
        "Boiling Point": "160 °C"
    }
}