{
    "cas_no": "30123-17-2",
    "key_name": "Tianeptine sodium",
    "cn_name": "噻奈普汀钠盐;7-[(3-氯-6,11-二氢-5,5-二氧-6-甲基二苯并-[c,f][1,2]噻唑平-11-基)氨基]庚酸钠盐;",
    "alternate_name": "Heptanoic acid, 7-[(3-chloro-6,11-dihydro-6-methyl-5,5-dioxidodibenzo[<em>c</em>,<em>f</em>][1,2]thiazepin-11-yl)amino]-, sodium salt (1:1);Heptanoic acid, 7-[(3-chloro-6,11-dihydro-6-methyldibenzo[<em>c</em>,<em>f</em>][1,2]thiazepin-11-yl)amino]-, <em>S</em>,<em>S</em>-dioxide, monosodium salt;Heptanoic acid, 7-[(3-chloro-6,11-dihydro-6-methyl-5,5-dioxidodibenzo[<em>c</em>,<em>f</em>][1,2]thiazepin-11-yl)amino]-, monosodium salt;Dibenzo[<em>c</em>,<em>f</em>][1,2]thiazepine, heptanoic acid deriv.;Tianeptine sodium salt;Stablon;Sodium 7-[(3-chloro-6,11-dihydro-6-methyldibenzo[<em>c</em>,<em>f</em>][1,2]thiazepin-11-yl)amino]heptanoate <em>S</em>,<em>S</em>-dioxide;Tianeptine sodium",
    "duplicated_cas_no": "54317-11-2",
    "SMILES": "N(CCCCCCC(O)=O)C1C=2C(S(=O)(=O)N(C)C=3C1=CC=CC3)=CC(Cl)=CC2.[Na]",
    "meta_data": {
        "InChI": "InChI=1S/C21H25ClN2O4S.Na/c1-24-18-9-6-5-8-16(18)21(23-13-7-3-2-4-10-20(25)26)17-12-11-15(22)14-19(17)29(24,27)28;/h5-6,8-9,11-12,14,21,23H,2-4,7,10,13H2,1H3,(H,25,26);",
        "InChIKey": null,
        "Canonical SMILES": "[Na].O=C(O)CCCCCCNC1C=2C=CC=CC2N(C)S(=O)(=O)C3=CC(Cl)=CC=C31",
        "Molecular Formula": "C<sub>21</sub>H<sub>25</sub>ClN<sub>2</sub>O<sub>4</sub>S.Na",
        "Molecular Mass": "",
        "Melting Point": "180 °C"
    }
}