{
    "cas_no": "6719-21-7",
    "key_name": "2-Amino-2-cyanoacetamide",
    "cn_name": "2-氨基-2-氰基乙酰胺;",
    "alternate_name": "Acetamide, 2-amino-2-cyano-;2-Amino-2-cyanoacetamide;α-Amino-α-cyanoacetamide;Aminocyanacetamide;Aminocyanoacetamide;NSC 108868",
    "duplicated_cas_no": "",
    "SMILES": "C(C(N)=O)(C#N)N",
    "meta_data": {
        "InChI": "InChI=1S/C3H5N3O/c4-1-2(5)3(6)7/h2H,5H2,(H2,6,7)",
        "InChIKey": null,
        "Canonical SMILES": "N#CC(N)C(=O)N",
        "Molecular Formula": "C<sub>3</sub>H<sub>5</sub>N<sub>3</sub>O",
        "Molecular Mass": "99.09",
        "Melting Point": "121 °C"
    }
}