{
    "cas_no": "107-75-5",
    "key_name": "Hydroxycitronellal",
    "cn_name": "羟基香茅醛;7-羟基-3,7-二甲基辛醛;",
    "alternate_name": "Octanal, 7-hydroxy-3,7-dimethyl-;7-Hydroxy-3,7-dimethyloctanal;Citronellal hydrate;Cyclalia;Cyclosia;3,7-Dimethyl-7-hydroxyoctanal;Fixol;Laurine;Lilyl aldehyde;Muguet synthetic;Muguettine principle;Phixia;Citronellal, hydroxy-;Hydroxycitronellal;7-Hydroxycitronellal;(±)-Hydroxycitronellal;NSC 406740;Cyclosia base;3,7-Dimethyl-7-hydroxyoctan-1-al",
    "duplicated_cas_no": "123238-75-5",
    "SMILES": "C(C(C)(C)O)CCC(CC=O)C",
    "meta_data": {
        "InChI": "InChI=1S/C10H20O2/c1-9(6-8-11)5-4-7-10(2,3)12/h8-9,12H,4-7H2,1-3H3",
        "InChIKey": null,
        "Canonical SMILES": "O=CCC(C)CCCC(O)(C)C",
        "Molecular Formula": "C<sub>10</sub>H<sub>20</sub>O<sub>2</sub>",
        "Molecular Mass": "172.26",
        "Boiling Point": "126-127 °C @ Press: 10 Torr",
        "Melting Point": "22-23 °C",
        "Density": "0.9207 g/cm³ @ Temp: 18.5 °C"
    }
}