{
    "cas_no": "823-22-3",
    "key_name": "(±)-δ-Hexalactone",
    "cn_name": "丁位己内酯;delta-己醇内酯;",
    "alternate_name": "2<em>H</em>-Pyran-2-one, tetrahydro-6-methyl-;Hexanoic acid, 5-hydroxy-, lactone;Tetrahydro-6-methyl-2<em>H</em>-pyran-2-one;Hexanoic acid, 5-hydroxy-, δ-lactone;5-Hydroxyhexanoic acid lactone;δ-Hexalactone;δ-Methyl-δ-valerolactone;δ-Caprolactone;6-Methylvalerolactone;δ-Hexanolide;(±)-5-Hexanolide;(<em>RS</em>)-δ-Hexalactone;(±)-δ-Hexalactone;NSC 134774;NSC 32863;6-Methyl-δ-valerolactone;6-Methyltetrahydropyran-2-one;5-Hexanolide;6-Methyl-2<em>H</em>-tetrahydropyran-2-one;δ-Hexanolactone",
    "duplicated_cas_no": "26991-67-3",
    "SMILES": "CC1OC(=O)CCC1",
    "meta_data": {
        "InChI": "InChI=1S/C6H10O2/c1-5-3-2-4-6(7)8-5/h5H,2-4H2,1H3",
        "InChIKey": null,
        "Canonical SMILES": "O=C1OC(C)CCC1",
        "Molecular Formula": "C<sub>6</sub>H<sub>10</sub>O<sub>2</sub>",
        "Molecular Mass": "114.14",
        "Boiling Point": "101-102 °C @ Press: 11 Torr",
        "Melting Point": "16-18 °C",
        "Density": "1.0162 g/cm³ @ Temp: 20 °C"
    }
}