{
    "cas_no": "563-76-8",
    "key_name": "2-Bromopropionyl bromide",
    "cn_name": "2-溴丙酰溴;",
    "alternate_name": "Propanoyl bromide, 2-bromo-;Propionyl bromide, 2-bromo-;2-Bromopropanoyl bromide;2-Bromopropionyl bromide;α-Bromopropionyl bromide;α-Bromopropanyl bromide;<span class=\"text-smallcaps\">DL</span>-2-Bromopropionyl bromide;(±)-2-Bromopropanoyl bromide;2-Bromoisopropionyl chloride",
    "duplicated_cas_no": "95673-15-7",
    "SMILES": "C(C(Br)=O)(Br)C",
    "meta_data": {
        "InChI": "InChI=1S/C3H4Br2O/c1-2(4)3(5)6/h2H,1H3",
        "InChIKey": null,
        "Canonical SMILES": "O=C(Br)C(Br)C",
        "Molecular Formula": "C<sub>3</sub>H<sub>4</sub>Br<sub>2</sub>O",
        "Molecular Mass": "215.87",
        "Boiling Point": "153-155 °C"
    }
}