{
    "cas_no": "3901-77-7",
    "key_name": "2,4,6-Trimethyl-2,4,6-trivinylcyclotrisiloxane",
    "cn_name": null,
    "alternate_name": "Cyclotrisiloxane, 2,4,6-triethenyl-2,4,6-trimethyl-;Cyclotrisiloxane, 2,4,6-trimethyl-2,4,6-trivinyl-;2,4,6-Triethenyl-2,4,6-trimethylcyclotrisiloxane;2,4,6-Trimethyl-2,4,6-trivinylcyclotrisiloxane;LS 8170;NSC 242021;Trimethyltrivinylcyclotrisiloxane;2,4,6-Tris(ethenyl)-2,4,6-trimethyl-1,3,5,2,4,6-trioxatrisilinane;2,4,6-Trimethyl-2,4,6-trivinyl-1,3,5,2,4,6-trioxatrisilinane;2,4,6-Triethenyl-2,4,6-trimethyl-1,3,5,2,4,6-trioxatrisilinane",
    "duplicated_cas_no": "103202-55-7;1569492-99-4",
    "SMILES": "C(=C)[Si]1(C)O[Si](C=C)(C)O[Si](C=C)(C)O1",
    "meta_data": {
        "InChI": "InChI=1S/C9H18O3Si3/c1-7-13(4)10-14(5,8-2)12-15(6,9-3)11-13/h7-9H,1-3H2,4-6H3",
        "InChIKey": null,
        "Canonical SMILES": "O1[Si](O[Si](O[Si]1(C=C)C)(C=C)C)(C=C)C",
        "Molecular Formula": "C<sub>9</sub>H<sub>18</sub>O<sub>3</sub>Si<sub>3</sub>",
        "Molecular Mass": "258.49",
        "Boiling Point": "80 °C @ Press: 20 Torr",
        "Density": "0.966 g/cm³"
    }
}