{
    "cas_no": "23256-30-6",
    "key_name": "(±)-Nifurtimox",
    "cn_name": null,
    "alternate_name": "4-Thiomorpholinamine, 3-methyl-<em>N</em>-[(5-nitro-2-furanyl)methylene]-, 1,1-dioxide;Thiomorpholine, 3-methyl-4-[(5-nitrofurfurylidene)amino]-, 1,1-dioxide;3-Methyl-4-(5-nitrofurfurylideneamino)tetrahydro-1,4-thiazine-1,1-dioxide;BAY 2502;Bayer 2502;Tetrahydro-3-methyl-4-[(5-nitrofurfurylidene)amino]-4<em>H</em>-1,4-thiazine 1,1-dioxide;Nifurtimox;Lampit;4-(5-Nitrofurfurylideneamino)-3-methylthiomorpholine 1,1-dioxide;(±)-Nifurtimox;BAY-A 2502",
    "duplicated_cas_no": "",
    "SMILES": "N(=CC=1OC(N(=O)=O)=CC1)N2C(C)CS(=O)(=O)CC2",
    "meta_data": {
        "InChI": "InChI=1S/C10H13N3O5S/c1-8-7-19(16,17)5-4-12(8)11-6-9-2-3-10(18-9)13(14)15/h2-3,6,8H,4-5,7H2,1H3",
        "InChIKey": null,
        "Canonical SMILES": "O=N(=O)C=1OC(C=NN2CCS(=O)(=O)CC2C)=CC1",
        "Molecular Formula": "C<sub>10</sub>H<sub>13</sub>N<sub>3</sub>O<sub>5</sub>S",
        "Molecular Mass": "287.29",
        "Melting Point": "181 °C"
    }
}