{
    "cas_no": "557-34-6",
    "key_name": "Zinc acetate",
    "cn_name": "醋酸锌;乙酸锌;",
    "alternate_name": "Acetic acid, zinc salt (2:1);Zinc acetate;Acetic acid, zinc salt;Zinc diacetate;Zinc(II) acetate;Siltex CL 4;Galzin;MeSH ID: D019345",
    "duplicated_cas_no": "128514-83-0;131853-00-4;1416549-90-0;1883462-25-6;2244957-68-2;2574438-49-4",
    "SMILES": "C(C)(O)=O.[Zn]",
    "meta_data": {
        "InChI": "InChI=1S/C2H4O2.Zn/c1-2(3)4;/h1H3,(H,3,4);",
        "InChIKey": null,
        "Canonical SMILES": "[Zn].O=C(O)C",
        "Molecular Formula": "C<sub>2</sub>H<sub>4</sub>O<sub>2</sub>.<sup>1</sup>/<sub>2</sub>Zn",
        "Molecular Mass": "",
        "Melting Point": "237 °C (decomp)",
        "Density": "1.735 g/cm³"
    }
}