{
    "cas_no": "7298-67-1",
    "key_name": "<em>N</em>-(3-Acetyl-4-hydroxyphenyl)acetamide",
    "cn_name": "2-羟基-5-乙酰氨基苯乙酮;",
    "alternate_name": "Acetamide, <em>N</em>-(3-acetyl-4-hydroxyphenyl)-;Acetanilide, 3′-acetyl-4′-hydroxy-;<em>N</em>-(3-Acetyl-4-hydroxyphenyl)acetamide;5′-Acetamido-2′-hydroxyacetophenone;2-Acetyl-4-acetamidophenol;5-Acetamido-2-hydroxyacetophenone;3-Acetyl-4-hydroxyacetanilide;5′-(Acetylamino)-2′-hydroxyacetophenone;2-Acetyl-4-acetylamino-5-nitrophenol",
    "duplicated_cas_no": "",
    "SMILES": "N(C(C)=O)C1=CC(C(C)=O)=C(O)C=C1",
    "meta_data": {
        "InChI": "InChI=1S/C10H11NO3/c1-6(12)9-5-8(11-7(2)13)3-4-10(9)14/h3-5,14H,1-2H3,(H,11,13)",
        "InChIKey": null,
        "Canonical SMILES": "O=C(NC1=CC=C(O)C(=C1)C(=O)C)C",
        "Molecular Formula": "C<sub>10</sub>H<sub>11</sub>NO<sub>3</sub>",
        "Molecular Mass": "193.20",
        "Melting Point": "165 °C"
    }
}