{
    "cas_no": "132112-35-7",
    "key_name": "2-Piperidinecarboxamide, <em>N</em>-(2,6-dimethylphenyl)-1-propyl-, hydrochloride, hydrate (1:1:1), (2<em>S</em>)-",
    "cn_name": "盐酸罗哌卡因;(-)-S)-N-(2,6-二甲基苯基)-1-正丙基哌啶-2-甲酰胺盐酸盐;",
    "alternate_name": "2-Piperidinecarboxamide, <em>N</em>-(2,6-dimethylphenyl)-1-propyl-, hydrochloride, hydrate (1:1:1), (2<em>S</em>)-;2-Piperidinecarboxamide, <em>N</em>-(2,6-dimethylphenyl)-1-propyl-, monohydrochloride, monohydrate, (<em>S</em>)-;2-Piperidinecarboxamide, <em>N</em>-(2,6-dimethylphenyl)-1-propyl-, monohydrochloride, monohydrate, (2<em>S</em>)-;Ropivacaine hydrochloride monohydrate;(2<em>S</em>)-2-[(Dimethylphenyl)carbamoyl]-1-propylpiperidin-1-ium chloride monohydrate",
    "duplicated_cas_no": "",
    "SMILES": "C(NC1=C(C)C=CC=C1C)(=O)[C@H]2N(CCC)CCCC2.Cl.O",
    "meta_data": {
        "InChI": "InChI=1S/C17H26N2O.ClH.H2O/c1-4-11-19-12-6-5-10-15(19)17(20)18-16-13(2)8-7-9-14(16)3;;/h7-9,15H,4-6,10-12H2,1-3H3,(H,18,20);1H;1H2/t15-;;/m0../s1",
        "InChIKey": null,
        "Canonical SMILES": "Cl.O=C(NC=1C(=CC=CC1C)C)C2N(CCC)CCCC2.O",
        "Molecular Formula": "C<sub>17</sub>H<sub>26</sub>N<sub>2</sub>O.ClH.H<sub>2</sub>O",
        "Molecular Mass": "",
        "Melting Point": "269.5-270.6 °C"
    }
}