{
    "cas_no": "38002-45-8",
    "key_name": "(3-Bromo-1-propyn-1-yl)trimethylsilane",
    "cn_name": "3-溴-1-三甲基硅基-1-丙炔;3-三甲硅基溴丙炔;",
    "alternate_name": "Silane, (3-bromo-1-propyn-1-yl)trimethyl-;Silane, (3-bromo-1-propynyl)trimethyl-;(3-Bromo-1-propyn-1-yl)trimethylsilane;(3-Bromo-1-propynyl)trimethylsilane;3-(Trimethylsilyl)propargyl bromide;1-(Trimethylsilyl)-3-bromopropyne;3-Bromo-1-(trimethylsilyl)propyne;1-Bromo-3-trimethylsilyl-2-propyne;3-Bromo-1-(trimethylsilyl)-1-propyne;(Trimethylsilyl)propargyl bromide;(Bromomethyl)(trimethylsilyl)acetylene;3-Trimethylsilyl-2-propynyl bromide;1-Bromo-3-trimethylsilylyprop-2-yne;3-Bromo-1-(trimethylsily)-1-propyne;3-Trimethylsilyl-1-bromo-2-propyne",
    "duplicated_cas_no": "945634-98-0",
    "SMILES": "C([Si](C)(C)C)#CCBr",
    "meta_data": {
        "InChI": "InChI=1S/C6H11BrSi/c1-8(2,3)6-4-5-7/h5H2,1-3H3",
        "InChIKey": null,
        "Canonical SMILES": "BrCC#C[Si](C)(C)C",
        "Molecular Formula": "C<sub>6</sub>H<sub>11</sub>BrSi",
        "Molecular Mass": "191.14",
        "Boiling Point": "44-45 °C @ Press: 2 Torr",
        "Density": "1.351 g/cm³"
    }
}