{
    "cas_no": "61-49-4",
    "key_name": "Methyltryptamine",
    "cn_name": "N(omega)-甲基色胺;3-(2-甲基氨基乙基)吲哚;",
    "alternate_name": "1<em>H</em>-Indole-3-ethanamine, <em>N</em>-methyl-;Indole, 3-[2-(methylamino)ethyl]-;<em>N</em>-Methyl-1<em>H</em>-indole-3-ethanamine;Dipterine;Methyltryptamine;<em>N</em>-Methyltryptamine;<em>N</em><sub>b</sub>-Methyltryptamine;Monomethyltryptamine;<em>N</em>-Monomethyltryptamine;<em>N</em><sup>ω</sup>-Methyltryptamine;3-(2-Methylaminoethyl)indole;3-[2-(Methylamino)ethyl]-1<em>H</em>-indole;<em>N</em><sup>10</sup>-Methyltryptamine;[2-(1<em>H</em>-Indol-3-yl)ethyl]methylamine;2-(1<em>H</em>-Indol-3-yl)-<em>N</em>-methylethanamine",
    "duplicated_cas_no": "",
    "SMILES": "C(CNC)C=1C=2C(NC1)=CC=CC2",
    "meta_data": {
        "InChI": "InChI=1S/C11H14N2/c1-12-7-6-9-8-13-11-5-3-2-4-10(9)11/h2-5,8,12-13H,6-7H2,1H3",
        "InChIKey": null,
        "Canonical SMILES": "C=1C=CC2=C(C1)NC=C2CCNC",
        "Molecular Formula": "C<sub>11</sub>H<sub>14</sub>N<sub>2</sub>",
        "Molecular Mass": "174.24",
        "Boiling Point": "160-170 °C @ Press: 0.01 Torr",
        "Melting Point": "90 °C"
    }
}