{
    "cas_no": "3396-11-0",
    "key_name": "Cesium acetate",
    "cn_name": "乙酸铯;",
    "alternate_name": "Acetic acid, cesium salt (1:1);Acetic acid, cesium salt;Cesium acetate",
    "duplicated_cas_no": "",
    "SMILES": "C(C)(O)=O.[Cs]",
    "meta_data": {
        "InChI": "InChI=1S/C2H4O2.Cs/c1-2(3)4;/h1H3,(H,3,4);",
        "InChIKey": null,
        "Canonical SMILES": "[Cs].O=C(O)C",
        "Molecular Formula": "C<sub>2</sub>H<sub>4</sub>O<sub>2</sub>.Cs",
        "Molecular Mass": "",
        "Melting Point": "190-195 °C"
    }
}