{
    "cas_no": "169939-94-0",
    "key_name": "Ruboxistaurin",
    "cn_name": null,
    "alternate_name": "9<em>H</em>,18<em>H</em>-5,21:12,17-Dimethenodibenzo[<em>e</em>,<em>k</em>]pyrrolo[3,4-<em>h</em>][1,4,13]oxadiazacyclohexadecine-18,20(19<em>H</em>)-dione, 9-[(dimethylamino)methyl]-6,7,10,11-tetrahydro-, (9<em>S</em>)-;9<em>H</em>,18<em>H</em>-5,21:12,17-Dimethenodibenzo[<em>e</em>,<em>k</em>]pyrrolo[3,4-<em>h</em>][1,4,13]oxadiazacyclohexadecine-18,20(19<em>H</em>)-dione, 9-[(dimethylamino)methyl]-6,7,10,11-tetrahydro-, (<em>S</em>)-;(9<em>S</em>)-9-[(Dimethylamino)methyl]-6,7,10,11-tetrahydro-9<em>H</em>,18<em>H</em>-5,21:12,17-dimethenodibenzo[<em>e</em>,<em>k</em>]pyrrolo[3,4-<em>h</em>][1,4,13]oxadiazacyclohexadecine-18,20(19<em>H</em>)-dione;LY 333531;Ruboxistaurin",
    "duplicated_cas_no": "",
    "SMILES": "O=C1C2=C(C=3C=4C(N(C3)CCO[C@H](CN(C)C)CCN5C=C2C=6C5=CC=CC6)=CC=CC4)C(=O)N1",
    "meta_data": {
        "InChI": "InChI=1S/C28H28N4O3/c1-30(2)15-18-11-12-31-16-21(19-7-3-5-9-23(19)31)25-26(28(34)29-27(25)33)22-17-32(13-14-35-18)24-10-6-4-8-20(22)24/h3-10,16-18H,11-15H2,1-2H3,(H,29,33,34)/t18-/m0/s1",
        "InChIKey": null,
        "Canonical SMILES": "O=C1NC(=O)C=2C3=CN(C=4C=CC=CC34)CCC(OCCN5C=C(C=6C=CC=CC65)C12)CN(C)C",
        "Molecular Formula": "C<sub>28</sub>H<sub>28</sub>N<sub>4</sub>O<sub>3</sub>",
        "Molecular Mass": "468.55",
        "Melting Point": "235-239 °C"
    }
}