{
    "cas_no": "57497-39-9",
    "key_name": "2-Propanamine, <em>N</em>-hydroxy-2-methyl-, hydrochloride (1:1)",
    "cn_name": "N-(叔丁基)盐酸羟胺;",
    "alternate_name": "2-Propanamine, <em>N</em>-hydroxy-2-methyl-, hydrochloride (1:1);2-Propanamine, <em>N</em>-hydroxy-2-methyl-, hydrochloride;Hydroxylamine, <em>N</em>-<em>tert</em>-butyl-, hydrochloride;<em>N</em>-<em>tert</em>-Butylhydroxylamine hydrochloride;<em>tert</em>-Butylhydroxylamine hydrochloride;<em>N</em>-Hydroxy-2-methyl-2-propanamine hydrochloride",
    "duplicated_cas_no": "",
    "SMILES": "C(NO)(C)(C)C.Cl",
    "meta_data": {
        "InChI": "InChI=1S/C4H11NO.ClH/c1-4(2,3)5-6;/h5-6H,1-3H3;1H",
        "InChIKey": null,
        "Canonical SMILES": "Cl.ONC(C)(C)C",
        "Molecular Formula": "C<sub>4</sub>H<sub>11</sub>NO.ClH",
        "Molecular Mass": "",
        "Melting Point": "178 °C"
    }
}