{
    "cas_no": "827-25-8",
    "key_name": "2-Bromo-4-chloro-6-nitrobenzenamine",
    "cn_name": "2-硝基-4-氯-6-溴苯胺;",
    "alternate_name": "Benzenamine, 2-bromo-4-chloro-6-nitro-;Aniline, 2-bromo-4-chloro-6-nitro-;2-Bromo-4-chloro-6-nitrobenzenamine;2-Bromo-4-chloro-6-nitroaniline",
    "duplicated_cas_no": "",
    "SMILES": "N(=O)(=O)C1=C(N)C(Br)=CC(Cl)=C1",
    "meta_data": {
        "InChI": "InChI=1S/C6H4BrClN2O2/c7-4-1-3(8)2-5(6(4)9)10(11)12/h1-2H,9H2",
        "InChIKey": null,
        "Canonical SMILES": "O=N(=O)C=1C=C(Cl)C=C(Br)C1N",
        "Molecular Formula": "C<sub>6</sub>H<sub>4</sub>BrClN<sub>2</sub>O<sub>2</sub>",
        "Molecular Mass": "251.47",
        "Melting Point": "106 °C"
    }
}