{
    "cas_no": "22131-79-9",
    "key_name": "Alclofenac",
    "cn_name": "烯氯苯乙酸;[4-(烯丙氧基)-3-氯苯基]乙酸;",
    "alternate_name": "Benzeneacetic acid, 3-chloro-4-(2-propen-1-yloxy)-;Acetic acid, [4-(allyloxy)-3-chlorophenyl]-;Benzeneacetic acid, 3-chloro-4-(2-propenyloxy)-;3-Chloro-4-(2-propen-1-yloxy)benzeneacetic acid;[4-(Allyloxy)-3-chlorophenyl]acetic acid;Mervan;Alclofenac;W 7320;Alclophenac;Neosten;Prinalgin;[3-Chloro-4-(allyloxy)phenyl]acetic acid;Neoston;MY 101;Allopydin;Medifenac;Zumaril;Epinal;Reufenac;Aclofenac;2-[3-Chloro-4-(prop-2-en-1-yloxy)phenyl]acetic acid;2-(4-(Allyloxy)-3-chlorophenyl)acetic acid;2-(4-(Allyloxy)-3-chlorophenyl)aceticacid",
    "duplicated_cas_no": "",
    "SMILES": "C(C(O)=O)C1=CC(Cl)=C(OCC=C)C=C1",
    "meta_data": {
        "InChI": "InChI=1S/C11H11ClO3/c1-2-5-15-10-4-3-8(6-9(10)12)7-11(13)14/h2-4,6H,1,5,7H2,(H,13,14)",
        "InChIKey": null,
        "Canonical SMILES": "O=C(O)CC1=CC=C(OCC=C)C(Cl)=C1",
        "Molecular Formula": "C<sub>11</sub>H<sub>11</sub>ClO<sub>3</sub>",
        "Molecular Mass": "226.66",
        "Melting Point": "92.5 °C"
    }
}