{
    "cas_no": "504-63-2",
    "key_name": "1,3-Propanediol",
    "cn_name": "1,3-丙二醇;1,3-二羟基丙烷;",
    "alternate_name": "1,3-Propanediol;PG;β-Propylene glycol;1,3-Propylene glycol;Trimethylene glycol;1,3-Dihydroxypropane;2-Deoxyglycerol;1,3-Propylenediol;ω-Propanediol;NSC 65426;Bio-PDO;Zemea;Susterra;Zemea propanediol;Propane-1,3-diol;P 0486;Activonol 3;Zemea Select Propanediol",
    "duplicated_cas_no": "757125-93-2;1629855-95-3",
    "SMILES": "C(CO)CO",
    "meta_data": {
        "InChI": "InChI=1S/C3H8O2/c4-2-1-3-5/h4-5H,1-3H2",
        "InChIKey": null,
        "Canonical SMILES": "OCCCO",
        "Molecular Formula": "C<sub>3</sub>H<sub>8</sub>O<sub>2</sub>",
        "Molecular Mass": "76.09",
        "Boiling Point": "214.4 °C",
        "Melting Point": "-26.7 °C",
        "Density": "1.0573 g/cm³ @ Temp: 15 °C"
    }
}