{
    "cas_no": "10212-25-6",
    "key_name": "Ancitabine hydrochloride",
    "cn_name": "盐酸环胞苷;",
    "alternate_name": "6<em>H</em>-Furo[2′,3′:4,5]oxazolo[3,2-<em>a</em>]pyrimidine-2-methanol, 2,3,3a,9a-tetrahydro-3-hydroxy-6-imino-, hydrochloride (1:1), (2<em>R</em>,3<em>R</em>,3a<em>S</em>,9a<em>R</em>)-;6<em>H</em>-Furo[2′,3′:4,5]oxazolo[3,2-<em>a</em>]pyrimidine-2-methanol, 2,3,3a,9a-tetrahydro-3-hydroxy-6-imino-, monohydrochloride, stereoisomer;6<em>H</em>-Furo[2′,3′:4,5]oxazolo[3,2-<em>a</em>]pyrimidine-2-methanol, 2,3,3a,9a-tetrahydro-3-hydroxy-6-imino-, monohydrochloride, [2<em>R</em>-(2α,3β,3aβ,9aβ)]-;6<em>H</em>-Furo[2′,3′:4,5]oxazolo[3,2-<em>a</em>]pyrimidine-2-methanol, 2,3,3a,9a-tetrahydro-3-hydroxy-6-imino-, hydrochloride;6<em>H</em>-Furo[2′,3′:4,5]oxazolo[3,2-<em>a</em>]pyrimidine-2-methanol, 2,3,3a,9a-tetrahydro-3-hydroxy-6-imino-, monohydrochloride, (2<em>R</em>,3<em>R</em>,3a<em>S</em>,9a<em>R</em>)-;2,2′-<em>O</em>-Cyclocytidine hydrochloride;<em>O</em><sup>2</sup>,<em>O</em><sup>2′</sup>-Anhydro-1-β-arabinofuranosylcytosine hydrochloride;<em>O</em><sup>2</sup>,<em>O</em><sup>2′</sup>-Anhydro-1-β-<span class=\"text-smallcaps\">D</span>-arabinofuranosylcytosine monohydrochloride;Cyclo-CMP hydrochloride;Cyclocytidine hydrochloride;2,2′-Anhydroarabinosylcytosine hydrochloride;2,2′-Anhydrocytidine hydrochloride;2,2′-Cyclocytidine hydrochloride;2,2′-Anhydro-1-β-<span class=\"text-smallcaps\">D</span>-arabinofuranosylcytosine monohydrochloride;NSC 145668;2,2′-Anhydroaracytidine hydrochloride;2,2′-Anhydro-1-β-<span class=\"text-smallcaps\">D</span>-arabinofuranosylcytosine hydrochloride;Ancitabine hydrochloride;OCTD hydrochloride",
    "duplicated_cas_no": "130825-73-9;135896-99-0;40390-35-0;42782-87-6;42965-86-6;42968-70-7",
    "SMILES": "O[C@H]1[C@]2([C@](N3C(O2)=NC(=N)C=C3)(O[C@@H]1CO)[H])[H].Cl",
    "meta_data": {
        "InChI": "InChI=1S/C9H11N3O4.ClH/c10-5-1-2-12-8-7(16-9(12)11-5)6(14)4(3-13)15-8;/h1-2,4,6-8,10,13-14H,3H2;1H/t4-,6-,7+,8-;/m1./s1",
        "InChIKey": null,
        "Canonical SMILES": "Cl.N=C1N=C2OC3C(O)C(OC3N2C=C1)CO",
        "Molecular Formula": "C<sub>9</sub>H<sub>11</sub>N<sub>3</sub>O<sub>4</sub>.ClH",
        "Molecular Mass": "",
        "Melting Point": "248-250 °C"
    }
}