{
    "cas_no": "6342-17-2",
    "key_name": "1,4-Bis(acryloyl)piperazine",
    "cn_name": "1,4-二丙烯酰基哌嗪;",
    "alternate_name": "2-Propen-1-one, 1,1′-(1,4-piperazinediyl)bis-;Piperazine, 1,4-diacryloyl-;Piperazine, 1,4-bis(1-oxo-2-propenyl)-;1,1′-(1,4-Piperazinediyl)bis[2-propen-1-one];1,4-Diacryloylpiperazine;<em>N</em>,<em>N</em>′-Bisacryloylpiperazine;1,4-Bis(acryloyl)piperazine;Diacrylylpiperazine;NSC 133364;NSC 49404;Piperazine diacrylamide;<em>N</em>,<em>N</em>′-Diacryloylpiperazine;1-[4-(Prop-2-enoyl)piperazin-1-yl]prop-2-en-1-one;1-(4-Prop-2-enoylpiperazin-1-yl)prop-2-en-1-one",
    "duplicated_cas_no": "",
    "SMILES": "C(C=C)(=O)N1CCN(C(C=C)=O)CC1",
    "meta_data": {
        "InChI": "InChI=1S/C10H14N2O2/c1-3-9(13)11-5-7-12(8-6-11)10(14)4-2/h3-4H,1-2,5-8H2",
        "InChIKey": null,
        "Canonical SMILES": "O=C(C=C)N1CCN(C(=O)C=C)CC1",
        "Molecular Formula": "C<sub>10</sub>H<sub>14</sub>N<sub>2</sub>O<sub>2</sub>",
        "Molecular Mass": "194.23",
        "Melting Point": "97.8 °C"
    }
}