{
    "cas_no": "52763-21-0",
    "key_name": "Ethyl 1-benzyl-3-oxopiperidine-4-carboxylate hydrochloride",
    "cn_name": "N-苄基-3-氧代哌啶-4-羧酸乙酯盐酸盐;N-苄基-4-乙氧羰基-3-哌啶酮盐酸盐;",
    "alternate_name": "4-Piperidinecarboxylic acid, 3-oxo-1-(phenylmethyl)-, ethyl ester, hydrochloride (1:1);4-Piperidinecarboxylic acid, 3-oxo-1-(phenylmethyl)-, ethyl ester, hydrochloride;1-Benzyl-4-carbethoxy-3-oxopiperidine hydrochloride;Ethyl <em>N</em>-benzyl-3-oxo-4-piperidinecarboxylate hydrochloride;<em>N</em>-Benzyl-4-carbethoxy-3-piperidone hydrochloride;Ethyl 1-benzyl-3-oxopiperidine-4-carboxylate hydrochloride;NSC 117336;Ethyl 3-oxo-<em>N</em>-benzylpiperidine-4-carboxylate hydrochloride;1-Benzyl-3-oxopiperidine-4-carboxylic acid ethyl ester hydrochloride;1-Benzyl-3-oxopiperidine-4-carboxylic acid ethyl ester monohydrochloride;Ethyl <em>N</em>-benzyl-3-oxo-4-piperidincarboxylate hydrochloride;1-Benzyl-4-(ethoxycarbonyl)-3-oxopiperidin-1-ium chloride",
    "duplicated_cas_no": "1010684-90-8",
    "SMILES": "C(OCC)(=O)C1C(=O)CN(CC2=CC=CC=C2)CC1.Cl",
    "meta_data": {
        "InChI": "InChI=1S/C15H19NO3.ClH/c1-2-19-15(18)13-8-9-16(11-14(13)17)10-12-6-4-3-5-7-12;/h3-7,13H,2,8-11H2,1H3;1H",
        "InChIKey": null,
        "Canonical SMILES": "Cl.O=C(OCC)C1C(=O)CN(CC=2C=CC=CC2)CC1",
        "Molecular Formula": "C<sub>15</sub>H<sub>19</sub>NO<sub>3</sub>.ClH",
        "Molecular Mass": "",
        "Melting Point": "162-165 °C"
    }
}