{
    "cas_no": "3232-39-1",
    "key_name": "Ethanethioic acid, 1,1′-anhydrosulfide",
    "cn_name": "乙酰硫醚;",
    "alternate_name": "Ethanethioic acid, 1,1′-anhydrosulfide;Acetic acid, thio-, anhydrosulfide;Ethanethioic acid, anhydrosulfide;Acetyl sulfide;Diacetyl sulfide;Acetic thioanhydride;Thioacetic anhydride;NSC 5133;1-(Acetylsulfanyl)ethan-1-one",
    "duplicated_cas_no": "",
    "SMILES": "S(C(C)=O)C(C)=O",
    "meta_data": {
        "InChI": "InChI=1S/C4H6O2S/c1-3(5)7-4(2)6/h1-2H3",
        "InChIKey": null,
        "Canonical SMILES": "O=C(SC(=O)C)C",
        "Molecular Formula": "C<sub>4</sub>H<sub>6</sub>O<sub>2</sub>S",
        "Molecular Mass": "118.15",
        "Boiling Point": "62-63 °C @ Press: 20 Torr",
        "Melting Point": "140-142 °C",
        "Density": "1.124 g/cm³ @ Temp: 20 °C"
    }
}