{
    "cas_no": "35286-59-0",
    "key_name": "Ziyuglycoside II",
    "cn_name": null,
    "alternate_name": "Urs-12-en-28-oic acid, 3-(α-<span class=\"text-smallcaps\">L</span>-arabinopyranosyloxy)-19-hydroxy-, (3β)-;(3β)-3-(α-<span class=\"text-smallcaps\">L</span>-Arabinopyranosyloxy)-19-hydroxyurs-12-en-28-oic acid;Ziyuglycoside II;Zigu-glucoside II;3β,19α-Dihydroxyurs-12-en-28-oic acid 3-<em>O</em>-α-<span class=\"text-smallcaps\">L</span>-arabinopyranoside;Pomolic acid 3-<em>O</em>-α-<span class=\"text-smallcaps\">L</span>-arabinopyranoside;3-<em>O</em>-α-<span class=\"text-smallcaps\">L</span>-Arabinopyranosylpomolic acid;Gouguside 1;3β-<em>O</em>-α-<span class=\"text-smallcaps\">L</span>-Arabinopyranosyl-19α-hydroxyurs-12-en-28-oic acid;Ziyu-glucoside II",
    "duplicated_cas_no": "",
    "SMILES": "C(O)(=O)[C@]12[C@](C=3[C@@](C)(CC1)[C@@]4(C)[C@](CC3)([C@]5(C)[C@@](CC4)(C(C)(C)[C@@H](O[C@H]6[C@H](O)[C@@H](O)[C@@H](O)CO6)CC5)[H])[H])([C@](C)(O)[C@H](C)CC2)[H]",
    "meta_data": {
        "InChI": "InChI=1S/C35H56O8/c1-19-10-15-35(29(39)40)17-16-32(5)20(27(35)34(19,7)41)8-9-23-31(4)13-12-24(30(2,3)22(31)11-14-33(23,32)6)43-28-26(38)25(37)21(36)18-42-28/h8,19,21-28,36-38,41H,9-18H2,1-7H3,(H,39,40)/t19-,21+,22+,23-,24+,25+,26-,27-,28+,31+,32-,33-,34-,35+/m1/s1",
        "InChIKey": null,
        "Canonical SMILES": "O=C(O)C12CCC(C)C(O)(C)C2C3=CCC4C5(C)CCC(OC6OCC(O)C(O)C6O)C(C)(C)C5CCC4(C)C3(C)CC1",
        "Molecular Formula": "C<sub>35</sub>H<sub>56</sub>O<sub>8</sub>",
        "Molecular Mass": "604.81",
        "Melting Point": "260-263 °C"
    }
}