{
    "cas_no": "3262-03-1",
    "key_name": "1-Chloro-3,4-dihydro-2-naphthalenecarboxaldehyde",
    "cn_name": null,
    "alternate_name": "2-Naphthalenecarboxaldehyde, 1-chloro-3,4-dihydro-;2-Naphthaldehyde, 1-chloro-3,4-dihydro-;1-Chloro-3,4-dihydro-2-naphthalenecarboxaldehyde;1-Chloro-3,4-dihydro-2-naphthaldehyde;NSC 141813;1-Chloro-3,4-dihydronaphthalene-2-carbaldehyde;1-Chloro-3,4-dihydro-2-naphthalenecarbaldehyde",
    "duplicated_cas_no": "",
    "SMILES": "ClC=1C=2C(CCC1C=O)=CC=CC2",
    "meta_data": {
        "InChI": "InChI=1S/C11H9ClO/c12-11-9(7-13)6-5-8-3-1-2-4-10(8)11/h1-4,7H,5-6H2",
        "InChIKey": null,
        "Canonical SMILES": "O=CC1=C(Cl)C=2C=CC=CC2CC1",
        "Molecular Formula": "C<sub>11</sub>H<sub>9</sub>ClO",
        "Molecular Mass": "192.64",
        "Boiling Point": "145-153 °C @ Press: 5 Torr",
        "Melting Point": "37 °C"
    }
}