{
    "cas_no": "66841-25-6",
    "key_name": "Tralomethrin",
    "cn_name": null,
    "alternate_name": "Cyclopropanecarboxylic acid, 2,2-dimethyl-3-(1,2,2,2-tetrabromoethyl)-, cyano(3-phenoxyphenyl)methyl ester;Tralomethrin;HAG 107;RU 25472;Scout (insecticide);Scout X-tra;Bengal Fire Ant Killer;SAGA;Tracker;Scout",
    "duplicated_cas_no": "81604-63-9",
    "SMILES": "C(C(Br)(Br)Br)(Br)C1C(C(OC(C#N)C2=CC(OC3=CC=CC=C3)=CC=C2)=O)C1(C)C",
    "meta_data": {
        "InChI": "InChI=1S/C22H19Br4NO3/c1-21(2)17(19(23)22(24,25)26)18(21)20(28)30-16(12-27)13-7-6-10-15(11-13)29-14-8-4-3-5-9-14/h3-11,16-19H,1-2H3",
        "InChIKey": null,
        "Canonical SMILES": "N#CC(OC(=O)C1C(C(Br)C(Br)(Br)Br)C1(C)C)C=2C=CC=C(OC=3C=CC=CC3)C2",
        "Molecular Formula": "C<sub>22</sub>H<sub>19</sub>Br<sub>4</sub>NO<sub>3</sub>",
        "Molecular Mass": "665.01",
        "Melting Point": "138-148 °C",
        "Density": "1.70 g/cm³ @ Temp: 20 °C"
    }
}