{
    "cas_no": "638-37-9",
    "key_name": "Butanedial",
    "cn_name": "丁二醛;",
    "alternate_name": "Butanedial;Succinaldehyde;Succindialdehyde;Succinic dialdehyde;Succinic aldehyde;1,4-Butanedione;β-Formylpropionaldehyde;1,4-Butanedial;4-Oxobutyraldehyde;NSC 11057",
    "duplicated_cas_no": "",
    "SMILES": "C(CC=O)C=O",
    "meta_data": {
        "InChI": "InChI=1S/C4H6O2/c5-3-1-2-4-6/h3-4H,1-2H2",
        "InChIKey": null,
        "Canonical SMILES": "O=CCCC=O",
        "Molecular Formula": "C<sub>4</sub>H<sub>6</sub>O<sub>2</sub>",
        "Molecular Mass": "86.09",
        "Boiling Point": "56.5 °C @ Press: 9 Torr",
        "Density": "1.069 g/cm³ @ Temp: 18 °C"
    }
}