{
    "cas_no": "3398-16-1",
    "key_name": "4-Bromo-3,5-dimethylpyrazole",
    "cn_name": "3,5-二甲基-4-溴吡唑;",
    "alternate_name": "1<em>H</em>-Pyrazole, 4-bromo-3,5-dimethyl-;Pyrazole, 4-bromo-3,5-dimethyl-;4-Bromo-3,5-dimethyl-1<em>H</em>-pyrazole;GF 12;3,5-Dimethyl-4-bromopyrazole;4-Bromo-3,5-dimethylpyrazole;NSC 50564",
    "duplicated_cas_no": "",
    "SMILES": "BrC=1C(C)=NNC1C",
    "meta_data": {
        "InChI": "InChI=1S/C5H7BrN2/c1-3-5(6)4(2)8-7-3/h1-2H3,(H,7,8)",
        "InChIKey": null,
        "Canonical SMILES": "BrC=1C(=NNC1C)C",
        "Molecular Formula": "C<sub>5</sub>H<sub>7</sub>BrN<sub>2</sub>",
        "Molecular Mass": "175.03",
        "Melting Point": "118 °C"
    }
}