{
    "cas_no": "39115-95-2",
    "key_name": "Benzoic acid, 4-iodo-, hydrazide",
    "cn_name": null,
    "alternate_name": "Benzoic acid, 4-iodo-, hydrazide;<em>p</em>-Iodobenzoic acid hydrazide;<em>p</em>-Iodobenzoic hydrazide;4-Iodobenzoic acid hydrazide;4-Iodobenzoylhydrazine;(<em>p</em>-Iodobenzoyl)hydrazine;4-Iodobenzohydrazide;NSC 203430;4-Iodobenzoic hydrazide",
    "duplicated_cas_no": "",
    "SMILES": "C(NN)(=O)C1=CC=C(I)C=C1",
    "meta_data": {
        "InChI": "InChI=1S/C7H7IN2O/c8-6-3-1-5(2-4-6)7(11)10-9/h1-4H,9H2,(H,10,11)",
        "InChIKey": null,
        "Canonical SMILES": "O=C(NN)C1=CC=C(I)C=C1",
        "Molecular Formula": "C<sub>7</sub>H<sub>7</sub>IN<sub>2</sub>O",
        "Molecular Mass": "262.05",
        "Melting Point": "168-169 °C"
    }
}