{
    "cas_no": "13612-34-5",
    "key_name": "2,5-Dimethylbenzeneacetic acid",
    "cn_name": "2,5-二甲基苯乙酸;",
    "alternate_name": "Benzeneacetic acid, 2,5-dimethyl-;Acetic acid, (2,5-xylyl)-;2,5-Dimethylbenzeneacetic acid;2,5-Dimethylphenylacetic acid;2,5-Xylylacetic acid;2-(2,5-Dimethylphenyl)acetic acid",
    "duplicated_cas_no": "",
    "SMILES": "C(C(O)=O)C1=C(C)C=CC(C)=C1",
    "meta_data": {
        "InChI": "InChI=1S/C10H12O2/c1-7-3-4-8(2)9(5-7)6-10(11)12/h3-5H,6H2,1-2H3,(H,11,12)",
        "InChIKey": null,
        "Canonical SMILES": "O=C(O)CC1=CC(=CC=C1C)C",
        "Molecular Formula": "C<sub>10</sub>H<sub>12</sub>O<sub>2</sub>",
        "Molecular Mass": "164.20",
        "Melting Point": "128 °C"
    }
}