{
    "cas_no": "1728-46-7",
    "key_name": "2-<em>tert</em>-Butylcyclohexanone",
    "cn_name": null,
    "alternate_name": "Cyclohexanone, 2-(1,1-dimethylethyl)-;Cyclohexanone, 2-<em>tert</em>-butyl-;2-(1,1-Dimethylethyl)cyclohexanone;2-<em>tert</em>-Butylcyclohexanone;(±)-2-<em>tert</em>-Butylcyclohexanone;<em>o</em>-<em>tert</em>-Butylcyclohexanone;Verdone;2-(<em>tert</em>-Butyl)cyclohexan-1-one;2-<em>tert</em>-Butylcyclohexan-1-one",
    "duplicated_cas_no": "13152-46-0;13495-19-7",
    "SMILES": "C(C)(C)(C)C1C(=O)CCCC1",
    "meta_data": {
        "InChI": "InChI=1S/C10H18O/c1-10(2,3)8-6-4-5-7-9(8)11/h8H,4-7H2,1-3H3",
        "InChIKey": null,
        "Canonical SMILES": "O=C1CCCCC1C(C)(C)C",
        "Molecular Formula": "C<sub>10</sub>H<sub>18</sub>O",
        "Molecular Mass": "154.25",
        "Boiling Point": "62.5 °C @ Press: 4 Torr"
    }
}