{
    "cas_no": "35963-20-3",
    "key_name": "(-)-Camphorsulfonic acid",
    "cn_name": "樟脑磺酸;7,7-三甲基二环[2.2.1]庚烷-2-酮-1-甲磺酸;",
    "alternate_name": "Bicyclo[2.2.1]heptane-1-methanesulfonic acid, 7,7-dimethyl-2-oxo-, (1<em>R</em>,4<em>S</em>)-;Bicyclo[2.2.1]heptane-1-methanesulfonic acid, 7,7-dimethyl-2-oxo-, (1<em>R</em>)-;(1<em>R</em>,4<em>S</em>)-7,7-Dimethyl-2-oxobicyclo[2.2.1]heptane-1-methanesulfonic acid;(-)-10-Camphorsulfonic acid;<em>l</em>-Camphorsulfonic acid;(-)-Camphorsulfonic acid;(1<em>R</em>)-(-)-10-Camphorsulfonic acid;(1<em>R</em>)-10-Camphorsulfonic acid;<em>l</em>-10-Camphorsulfonic acid;(-)-(1<em>R</em>)-7,7-Dimethyl-2-oxobicyclo[2.2.1]heptane-1-methanesulfonic acid;(1<em>R</em>)-Camphorsulfonic acid;(<em>R</em>)-(-)-10-Camphorsulfonic acid;(<em>R</em>)-Camphor-10-sulfonic acid;(<em>R</em>)-(-)-CSA;<span class=\"text-smallcaps\">L</span>(-)-Camphor-10-sulfonic acid;((1<em>R</em>,4<em>S</em>)-7,7-Dimethyl-2-oxobicyclo[2.2.1]heptan-1-yl)methanesulfonic acid;(-)-CSA",
    "duplicated_cas_no": "46242-49-3;137017-40-4;376392-98-2;1146435-75-7;1217513-85-3;1242240-49-8;1272762-55-6;1283735-12-5;1290628-10-2;1404526-19-7;1822297-65-3;2007907-04-0;2166358-65-0;2241798-99-0;2296714-02-6;2299297-59-7;2508132-67-8;2566615-57-2;2566621-06-3;2925366-36-3;2925656-66-0;2925658-55-3",
    "SMILES": "C(S(=O)(=O)O)[C@]12[C@@](C)(C)[C@](CC1=O)(CC2)[H]",
    "meta_data": {
        "InChI": "InChI=1S/C10H16O4S/c1-9(2)7-3-4-10(9,8(11)5-7)6-15(12,13)14/h7H,3-6H2,1-2H3,(H,12,13,14)/t7-,10-/m0/s1",
        "InChIKey": null,
        "Canonical SMILES": "O=C1CC2CCC1(CS(=O)(=O)O)C2(C)C",
        "Molecular Formula": "C<sub>10</sub>H<sub>16</sub>O<sub>4</sub>S",
        "Molecular Mass": "232.30",
        "Melting Point": "39 °C"
    }
}