{
    "cas_no": "6990-06-3",
    "key_name": "Fusidic acid",
    "cn_name": "夫西地酸;",
    "alternate_name": "29-Nordammara-17(20),24-dien-21-oic acid, 16-(acetyloxy)-3,11-dihydroxy-, (3α,4α,8α,9β,11α,13α,14β,16β,17<em>Z</em>)-;29-Nor-8α,9β,13α,14β-dammara-17(20),24-dien-21-oic acid, 3α,11α,16β-trihydroxy-, 16-acetate, (<em>Z</em>)-;Fusidic acid;(3α,4α,8α,9β,11α,13α,14β,16β,17<em>Z</em>)-16-(Acetyloxy)-3,11-dihydroxy-29-nordammara-17(20),24-dien-21-oic acid;Ramycin;SQ 16603;Fucithalmic;Fusidinic acid;NSC 56192;Flucidin;Foban;Fugen;Optifucin;Phudicin;Usidin;MeSH ID: D005672",
    "duplicated_cas_no": "62-60-2;1386-65-8;1404-47-3;2618-21-5;313340-66-8",
    "SMILES": "C[C@@]12[C@]3(C)[C@](/C(=C(\\CCC=C(C)C)/C(O)=O)/[C@@H](OC(C)=O)C3)(C[C@@H](O)[C@]1([C@]4(C)[C@@](CC2)([C@H](C)[C@H](O)CC4)[H])[H])[H]",
    "meta_data": {
        "InChI": "InChI=1S/C31H48O6/c1-17(2)9-8-10-20(28(35)36)26-22-15-24(34)27-29(5)13-12-23(33)18(3)21(29)11-14-30(27,6)31(22,7)16-25(26)37-19(4)32/h9,18,21-25,27,33-34H,8,10-16H2,1-7H3,(H,35,36)/b26-20-/t18-,21-,22-,23+,24+,25-,27-,29-,30-,31-/m0/s1",
        "InChIKey": null,
        "Canonical SMILES": "O=C(O)C(=C1C(OC(=O)C)CC2(C)C1CC(O)C3C4(C)CCC(O)C(C)C4CCC32C)CCC=C(C)C",
        "Molecular Formula": "C<sub>31</sub>H<sub>48</sub>O<sub>6</sub>",
        "Molecular Mass": "516.71",
        "Melting Point": "192.5 °C"
    }
}