{
    "cas_no": "568-72-9",
    "key_name": "Tanshinone IIA",
    "cn_name": "丹参酮IIA;",
    "alternate_name": "Phenanthro[1,2-<em>b</em>]furan-10,11-dione, 6,7,8,9-tetrahydro-1,6,6-trimethyl-;Tanshinone IIA;6,7,8,9-Tetrahydro-1,6,6-trimethylphenanthro[1,2-<em>b</em>]furan-10,11-dione;Tanshinone II;Tanshinon II;Dan Shen ketone;Tanshinone B;NSC 686519;NSC 686518;Tashinone IIA;1,6,6-Trimethyl-6,7,8,9-tetrahydrophenanthro[1,2-<em>b</em>]furan-10,11-dione;Salviol IIA;1,6,6-Trimethyl-8,9-dihydro-7<em>H</em>-naphtho[1,2-<em>g</em>][1]benzofuran-10,11-dione",
    "duplicated_cas_no": "",
    "SMILES": "O=C1C=2C(C3=C(C1=O)C(C)=CO3)=CC=C4C2CCCC4(C)C",
    "meta_data": {
        "InChI": "InChI=1S/C19H18O3/c1-10-9-22-18-12-6-7-13-11(5-4-8-19(13,2)3)15(12)17(21)16(20)14(10)18/h6-7,9H,4-5,8H2,1-3H3",
        "InChIKey": null,
        "Canonical SMILES": "O=C1C(=O)C2=C(C=CC3=C2CCCC3(C)C)C=4OC=C(C14)C",
        "Molecular Formula": "C<sub>19</sub>H<sub>18</sub>O<sub>3</sub>",
        "Molecular Mass": "294.34",
        "Melting Point": "205-207 °C"
    }
}