{
    "cas_no": "113-52-0",
    "key_name": "Imipramine hydrochloride",
    "cn_name": "盐酸丙咪嗪;N,N-二甲基-10,11-二氢-5H-二苯并[b,f]氮杂卓-5-丙胺盐酸盐;",
    "alternate_name": "5<em>H</em>-Dibenz[<em>b</em>,<em>f</em>]azepine-5-propanamine, 10,11-dihydro-<em>N</em>,<em>N</em>-dimethyl-, hydrochloride (1:1);5<em>H</em>-Dibenz[<em>b</em>,<em>f</em>]azepine, 5-[3-(dimethylamino)propyl]-10,11-dihydro-, monohydrochloride;5<em>H</em>-Dibenz[<em>b</em>,<em>f</em>]azepine-5-propanamine, 10,11-dihydro-<em>N</em>,<em>N</em>-dimethyl-, monohydrochloride;G 22355;5-(3-Dimethylaminopropyl)-10,11-dihydro-5<em>H</em>-dibenz[<em>b</em>,<em>f</em>]azepine hydrochloride;<em>N</em>-(γ-Dimethylaminopropyl)iminodibenzyl hydrochloride;<em>N</em>-(3-Dimethylaminopropyl)iminodibenzyl hydrochloride;Imipramine hydrochloride;Tofranil;Imizine;Melipramine hydrochloride;Imizin;Imipramine monohydrochloride;Tofranile;Teperine;Feinalmin;Irmin;Novo-pramine;Timolet;Eupramin;Censtim;Censtin;Surplix;SK-Pramine;Imizinum;Pryleugan;Intalpram;Tipramine;Chrytemin;Apo-Imipramine;Praminil;Imidobenzyle;Iramil;Imidol;DIPD;Janimine;Imiprin;Impril;Imavate;Imilanyle;Efuranol;Promiben;Dimipressin;Deprinol;Presamine;Dyna-Zina;Depsol;Melipramin",
    "duplicated_cas_no": "",
    "SMILES": "C(CCN(C)C)N1C=2C(CCC=3C1=CC=CC3)=CC=CC2.Cl",
    "meta_data": {
        "InChI": "InChI=1S/C19H24N2.ClH/c1-20(2)14-7-15-21-18-10-5-3-8-16(18)12-13-17-9-4-6-11-19(17)21;/h3-6,8-11H,7,12-15H2,1-2H3;1H",
        "InChIKey": null,
        "Canonical SMILES": "Cl.C=1C=CC2=C(C1)N(C=3C=CC=CC3CC2)CCCN(C)C",
        "Molecular Formula": "C<sub>19</sub>H<sub>24</sub>N<sub>2</sub>.ClH",
        "Molecular Mass": "",
        "Melting Point": "174-175 °C"
    }
}