{
    "cas_no": "673-22-3",
    "key_name": "2-Hydroxy-4-methoxybenzaldehyde",
    "cn_name": "2-羟基-4-甲氧基苯甲醛;4-甲氧基水杨醛;",
    "alternate_name": "Benzaldehyde, 2-hydroxy-4-methoxy-;<em>p</em>-Anisaldehyde, 2-hydroxy-;2-Hydroxy-4-methoxybenzaldehyde;2-Hydroxy-<em>p</em>-anisaldehyde;4-Methoxysalicylaldehyde;<em>o</em>-Hydroxy-<em>p</em>-methoxybenzaldehyde;2-Formyl-5-methoxyphenol;NSC 155334;4-Methoxy-6-hydroxybenzaldehyde;2-Hydroxy-4-methoxybenazldehyde;4-Methoxy-2-hydroxybenzaldehyde",
    "duplicated_cas_no": "",
    "SMILES": "O(C)C1=CC(O)=C(C=O)C=C1",
    "meta_data": {
        "InChI": "InChI=1S/C8H8O3/c1-11-7-3-2-6(5-9)8(10)4-7/h2-5,10H,1H3",
        "InChIKey": null,
        "Canonical SMILES": "O=CC1=CC=C(OC)C=C1O",
        "Molecular Formula": "C<sub>8</sub>H<sub>8</sub>O<sub>3</sub>",
        "Molecular Mass": "152.15",
        "Boiling Point": "116-126 °C @ Press: 6 Torr",
        "Melting Point": "41 °C"
    }
}