{
    "cas_no": "625-25-2",
    "key_name": "2-Methyl-2-heptanol",
    "cn_name": "2-甲基-2-庚醇;二甲基戊基甲醇;",
    "alternate_name": "2-Heptanol, 2-methyl-;2-Methyl-2-heptanol;1,1-Dimethylhexanol;NSC 898;2-Methyl-2-hydroxyheptane",
    "duplicated_cas_no": "",
    "SMILES": "C(C(C)(C)O)CCCC",
    "meta_data": {
        "InChI": "InChI=1S/C8H18O/c1-4-5-6-7-8(2,3)9/h9H,4-7H2,1-3H3",
        "InChIKey": null,
        "Canonical SMILES": "OC(C)(C)CCCCC",
        "Molecular Formula": "C<sub>8</sub>H<sub>18</sub>O",
        "Molecular Mass": "130.23",
        "Boiling Point": "156 °C",
        "Melting Point": "-50.4 °C",
        "Density": "0.8136 g/cm³ @ Temp: 25 °C"
    }
}