{
    "cas_no": "14773-42-3",
    "key_name": "3,4-Dimethoxybenzenepropanamine",
    "cn_name": null,
    "alternate_name": "Benzenepropanamine, 3,4-dimethoxy-;Propylamine, 3-(3,4-dimethoxyphenyl)-;3,4-Dimethoxybenzenepropanamine;3-(3,4-Dimethoxyphenyl)propylamine;3,4-Dimethoxyphenylpropylamine;3-(3,4-Dimethoxyphenyl)propan-1-amine",
    "duplicated_cas_no": "",
    "SMILES": "O(C)C1=C(OC)C=CC(CCCN)=C1",
    "meta_data": {
        "InChI": "InChI=1S/C11H17NO2/c1-13-10-6-5-9(4-3-7-12)8-11(10)14-2/h5-6,8H,3-4,7,12H2,1-2H3",
        "InChIKey": null,
        "Canonical SMILES": "O(C1=CC=C(C=C1OC)CCCN)C",
        "Molecular Formula": "C<sub>11</sub>H<sub>17</sub>NO<sub>2</sub>",
        "Molecular Mass": "195.26",
        "Boiling Point": "125-130 °C @ Press: 1.5 Torr"
    }
}