{
    "cas_no": "400-54-4",
    "key_name": "1,1,1-Trifluoro-2,4-hexanedione",
    "cn_name": "2-羟基-2-甲基-1-[4-(叔丁基)苯基]-1-丙酮;光引发剂185;",
    "alternate_name": "2,4-Hexanedione, 1,1,1-trifluoro-;1,1,1-Trifluoro-2,4-hexanedione",
    "duplicated_cas_no": "",
    "SMILES": "C(CC(CC)=O)(C(F)(F)F)=O",
    "meta_data": {
        "InChI": "InChI=1S/C6H7F3O2/c1-2-4(10)3-5(11)6(7,8)9/h2-3H2,1H3",
        "InChIKey": null,
        "Canonical SMILES": "O=C(CC(=O)C(F)(F)F)CC",
        "Molecular Formula": "C<sub>6</sub>H<sub>7</sub>F<sub>3</sub>O<sub>2</sub>",
        "Molecular Mass": "168.11",
        "Boiling Point": "124 °C @ Press: 755 Torr",
        "Density": "1.22 g/cm³"
    }
}