{
    "cas_no": "29911-28-2",
    "key_name": "1-(1-Butoxy-2-propoxy)-2-propanol",
    "cn_name": null,
    "alternate_name": "2-Propanol, 1-(2-butoxy-1-methylethoxy)-;1-(2-Butoxy-1-methylethoxy)-2-propanol;1-(1-Butoxy-2-propoxy)-2-propanol;Solvenon DPnB;1-((1-Butoxypropan-2-yl)oxy)propan-2-ol;Celtol DPNB;(2-Butoxy-1-methylethoxy)propan-2-ol",
    "duplicated_cas_no": "",
    "SMILES": "C(OCC(C)O)(COCCCC)C",
    "meta_data": {
        "InChI": "InChI=1S/C10H22O3/c1-4-5-6-12-8-10(3)13-7-9(2)11/h9-11H,4-8H2,1-3H3",
        "InChIKey": null,
        "Canonical SMILES": "OC(C)COC(C)COCCCC",
        "Molecular Formula": "C<sub>10</sub>H<sub>22</sub>O<sub>3</sub>",
        "Molecular Mass": "190.28",
        "Boiling Point": "103 °C @ Press: 10 Torr",
        "Density": "0.9185 g/cm³ @ Temp: 20 °C"
    }
}