{
    "cas_no": "614-39-1",
    "key_name": "Procainamide hydrochloride",
    "cn_name": "盐酸普鲁卡因胺;N-[(2-二乙氨基)乙基]-4-氨基苯甲酰胺盐酸盐;",
    "alternate_name": "Benzamide, 4-amino-<em>N</em>-[2-(diethylamino)ethyl]-, hydrochloride (1:1);Benzamide, <em>p</em>-amino-<em>N</em>-[2-(diethylamino)ethyl]-, monohydrochloride;Benzamide, 4-amino-<em>N</em>-[2-(diethylamino)ethyl]-, monohydrochloride;Novocamid hydrochloride;Procainamide monohydrochloride;Procardyl;Pronestyl hydrochloride;HC 5006;Procainamide hydrochloride;Pronestyl;Amisalin;4-Amino-<em>N</em>-[2-(diethylamino)ethyl]benzamide monohydrochloride;Amidoprocaine;Cardiorytmin;Spicain amide;Procamid;Novocaine amide hydrochloride;Procan SR;Procamide;Procapan",
    "duplicated_cas_no": "",
    "SMILES": "C(NCCN(CC)CC)(=O)C1=CC=C(N)C=C1.Cl",
    "meta_data": {
        "InChI": "InChI=1S/C13H21N3O.ClH/c1-3-16(4-2)10-9-15-13(17)11-5-7-12(14)8-6-11;/h5-8H,3-4,9-10,14H2,1-2H3,(H,15,17);1H",
        "InChIKey": null,
        "Canonical SMILES": "Cl.O=C(NCCN(CC)CC)C1=CC=C(N)C=C1",
        "Molecular Formula": "C<sub>13</sub>H<sub>21</sub>N<sub>3</sub>O.ClH",
        "Molecular Mass": "",
        "Melting Point": "167 °C",
        "Density": "0.997043 g/cm³ @ Temp: 25.000 °C"
    }
}