{
    "cas_no": "352-97-6",
    "key_name": "Guanidinoacetic acid",
    "cn_name": "胍乙酸;胍基乙酸;乙酸胍;",
    "alternate_name": "Glycine, <em>N</em>-(aminoiminomethyl)-;Glycine, <em>N</em>-amidino-;<em>N</em>-(Aminoiminomethyl)glycine;Betacyamine;Glycocyamine;Guanidine, (carboxymethyl)-;Guanidineacetic acid;Guanidinoacetic acid;Guanidoacetic acid;Guanyl glycine;Acetic acid, [(aminoiminomethyl)amino]-;Guanidylacetic acid;Betasyamine;α-Guanidinoacetic acid;β-Guanidinoacetic acid;<em>N</em>-Amidinoglycine;2-[[Amino(imino)methyl]amino]acetic acid;NSC 1901;NSC 227847;NSC 26360;2-Guanidinoacetic acid;2-Carbamimidamidoacetic acid;2-(Diaminomethylideneazaniumyl)acetate;2-[(Diaminomethylidene)amino]acetic acid",
    "duplicated_cas_no": "13516-06-8;2101843-56-3",
    "SMILES": "C(NC(=N)N)C(O)=O",
    "meta_data": {
        "InChI": "InChI=1S/C3H7N3O2/c4-3(5)6-1-2(7)8/h1H2,(H,7,8)(H4,4,5,6)",
        "InChIKey": null,
        "Canonical SMILES": "O=C(O)CNC(=N)N",
        "Molecular Formula": "C<sub>3</sub>H<sub>7</sub>N<sub>3</sub>O<sub>2</sub>",
        "Molecular Mass": "117.11",
        "Melting Point": "&gt;300 °C"
    }
}