{
    "cas_no": "7149-59-9",
    "key_name": "Hexanedioic acid, 3-oxo-, 1,6-diethyl ester",
    "cn_name": null,
    "alternate_name": "Hexanedioic acid, 3-oxo-, 1,6-diethyl ester;Hexanedioic acid, 3-oxo-, diethyl ester;Diethyl β-oxoadipate;3-Oxohexanedioic acid diethyl ester;Diethyl 3-oxohexanedioate;3-Oxoadipic acid diethyl ester;Diethyl 4-oxohexanedioate;NSC 72263;1,6-Diethyl 3-oxohexanedioate",
    "duplicated_cas_no": "",
    "SMILES": "C(CCC(OCC)=O)(CC(OCC)=O)=O",
    "meta_data": {
        "InChI": "InChI=1S/C10H16O5/c1-3-14-9(12)6-5-8(11)7-10(13)15-4-2/h3-7H2,1-2H3",
        "InChIKey": null,
        "Canonical SMILES": "O=C(OCC)CC(=O)CCC(=O)OCC",
        "Molecular Formula": "C<sub>10</sub>H<sub>16</sub>O<sub>5</sub>",
        "Molecular Mass": "216.23",
        "Boiling Point": "65-70 °C @ Press: 1 x 10<sup>-3</sup> Torr"
    }
}