{
    "cas_no": "696-02-6",
    "key_name": "4-Chloro-1,2-difluorobenzene",
    "cn_name": null,
    "alternate_name": "Benzene, 4-chloro-1,2-difluoro-;4-Chloro-1,2-difluorobenzene;3,4-Difluorochlorobenzene;1-Chloro-3,4-difluorobenzene;NSC 10255",
    "duplicated_cas_no": "",
    "SMILES": "FC1=C(F)C=CC(Cl)=C1",
    "meta_data": {
        "InChI": "InChI=1S/C6H3ClF2/c7-4-1-2-5(8)6(9)3-4/h1-3H",
        "InChIKey": null,
        "Canonical SMILES": "FC1=CC=C(Cl)C=C1F",
        "Molecular Formula": "C<sub>6</sub>H<sub>3</sub>ClF<sub>2</sub>",
        "Molecular Mass": "148.54",
        "Boiling Point": "127 °C"
    }
}