{
    "cas_no": "5326-47-6",
    "key_name": "2-Amino-5-iodobenzoic acid",
    "cn_name": "2-氨基-5-碘苯甲酸;",
    "alternate_name": "Benzoic acid, 2-amino-5-iodo-;Anthranilic acid, 5-iodo-;2-Amino-5-iodobenzoic acid;5-Iodoanthranilic acid;NSC 302;5-Iodo-2-aminobenzoic acid",
    "duplicated_cas_no": "",
    "SMILES": "C(O)(=O)C1=C(N)C=CC(I)=C1",
    "meta_data": {
        "InChI": "InChI=1S/C7H6INO2/c8-4-1-2-6(9)5(3-4)7(10)11/h1-3H,9H2,(H,10,11)",
        "InChIKey": null,
        "Canonical SMILES": "O=C(O)C1=CC(I)=CC=C1N",
        "Molecular Formula": "C<sub>7</sub>H<sub>6</sub>INO<sub>2</sub>",
        "Molecular Mass": "263.03",
        "Melting Point": "220 °C (decomp)"
    }
}