{
    "cas_no": "22808-73-7",
    "key_name": "Benzoic acid, 4-(aminosulfonyl)-, methyl ester",
    "cn_name": null,
    "alternate_name": "Benzoic acid, 4-(aminosulfonyl)-, methyl ester;Benzoic acid, <em>p</em>-sulfamoyl-, methyl ester;4-Methoxycarbonylbenzenesulfonamide;Methyl <em>p</em>-(aminosulfonyl)benzoate;Methyl 4-(aminosulfonyl)benzoate;4-Sulfamoylbenzoic acid methyl ester;<em>p</em>-Carboxybenzenesulfonamide methyl ester;NSC 251214;Methyl 4-sulfamoylbenzoate",
    "duplicated_cas_no": "",
    "SMILES": "S(N)(=O)(=O)C1=CC=C(C(OC)=O)C=C1",
    "meta_data": {
        "InChI": "InChI=1S/C8H9NO4S/c1-13-8(10)6-2-4-7(5-3-6)14(9,11)12/h2-5H,1H3,(H2,9,11,12)",
        "InChIKey": null,
        "Canonical SMILES": "O=C(OC)C1=CC=C(C=C1)S(=O)(=O)N",
        "Molecular Formula": "C<sub>8</sub>H<sub>9</sub>NO<sub>4</sub>S",
        "Molecular Mass": "215.23",
        "Melting Point": "181-182 °C"
    }
}