{
    "cas_no": "95-85-2",
    "key_name": "2-Amino-4-chlorophenol",
    "cn_name": "4-氯-2-氨基苯酚;2-氨基-4-氯苯酚;对氯邻氨基苯酚;",
    "alternate_name": "Phenol, 2-amino-4-chloro-;2-Amino-4-chlorophenol;C.I. 76525;C.I. Oxidation Base 18;Fouramine PY;<em>p</em>-Chloro-<em>o</em>-aminophenol;1-Amino-2-hydroxy-5-chlorobenzene;1-Hydroxy-2-amino-4-chlorobenzene;2-Hydroxy-5-chloroaniline;4-Chloro-2-aminophenol;5-Chloro-2-hydroxyaniline;<em>o</em>-Amino-<em>p</em>-chlorophenol;4-Chloro-<em>o</em>-aminophenol;NSC 247814",
    "duplicated_cas_no": "",
    "SMILES": "NC1=C(O)C=CC(Cl)=C1",
    "meta_data": {
        "InChI": "InChI=1S/C6H6ClNO/c7-4-1-2-6(9)5(8)3-4/h1-3,9H,8H2",
        "InChIKey": null,
        "Canonical SMILES": "ClC1=CC=C(O)C(N)=C1",
        "Molecular Formula": "C<sub>6</sub>H<sub>6</sub>ClNO",
        "Molecular Mass": "143.57",
        "Melting Point": "140 °C"
    }
}