{
    "cas_no": "99725-13-0",
    "key_name": "5-Bromo-2-fluorobenzenemethanol",
    "cn_name": "5-溴-2-氟苄胺盐酸盐;",
    "alternate_name": "Benzenemethanol, 5-bromo-2-fluoro-;5-Bromo-2-fluorobenzenemethanol;5-Bromo-2-fluorobenzyl alcohol;(5-Bromo-2-fluorophenyl)methanol",
    "duplicated_cas_no": "",
    "SMILES": "C(O)C1=C(F)C=CC(Br)=C1",
    "meta_data": {
        "InChI": "InChI=1S/C7H6BrFO/c8-6-1-2-7(9)5(3-6)4-10/h1-3,10H,4H2",
        "InChIKey": null,
        "Canonical SMILES": "FC1=CC=C(Br)C=C1CO",
        "Molecular Formula": "C<sub>7</sub>H<sub>6</sub>BrFO",
        "Molecular Mass": "205.02",
        "Boiling Point": "82-87 °C @ Press: 0.4 Torr"
    }
}