{
    "cas_no": "1132-68-9",
    "key_name": "4-Fluoro-<span class=\"text-smallcaps\">L</span>-phenylalanine",
    "cn_name": "L-4-氟苯丙氨酸;",
    "alternate_name": "<span class=\"text-smallcaps\">L</span>-Phenylalanine, 4-fluoro-;Alanine, 3-(<em>p</em>-fluorophenyl)-, <span class=\"text-smallcaps\">L</span>-;4-Fluoro-<span class=\"text-smallcaps\">L</span>-phenylalanine;<em>p</em>-Fluoro-<span class=\"text-smallcaps\">L</span>-phenylalanine;<span class=\"text-smallcaps\">L</span>-(<em>p</em>-Fluorophenyl)alanine;<em>S</em>-(-)-<em>p</em>-Fluorophenylalanine;<span class=\"text-smallcaps\">L</span>-4-Fluorophenylalanine;(<em>S</em>)-2-Amino-3-(4-fluorophenyl)propionic acid;(<em>S</em>)-4-Fluorophenylalanine;(2<em>S</em>)-Amino-3-(4-fluorophenyl)propionic acid;(<em>S</em>)-2-Amino-3-(4-fluorophenyl)propanoic acid;(2S)-2-Amino-3-(4-fluorophenyl)propanoic acid;(2S)-2-Azaniumyl-3-(4-fluorophenyl)propanoate",
    "duplicated_cas_no": "",
    "SMILES": "C([C@@H](C(O)=O)N)C1=CC=C(F)C=C1",
    "meta_data": {
        "InChI": "InChI=1S/C9H10FNO2/c10-7-3-1-6(2-4-7)5-8(11)9(12)13/h1-4,8H,5,11H2,(H,12,13)/t8-/m0/s1",
        "InChIKey": null,
        "Canonical SMILES": "O=C(O)C(N)CC1=CC=C(F)C=C1",
        "Molecular Formula": "C<sub>9</sub>H<sub>10</sub>FNO<sub>2</sub>",
        "Molecular Mass": "183.18",
        "Melting Point": "252-255 °C"
    }
}