{
    "cas_no": "2168-06-1",
    "key_name": "4-Chloro-β,β-bis(4-chlorophenyl)benzenepropanoic acid",
    "cn_name": "3,3,3-三对氯苯丙酸;",
    "alternate_name": "Benzenepropanoic acid, 4-chloro-β,β-bis(4-chlorophenyl)-;Propionic acid, 3,3,3-tris(<em>p</em>-chlorophenyl)-;4-Chloro-β,β-bis(4-chlorophenyl)benzenepropanoic acid;3,3,3-Tris(4-chlorophenyl)propanoic acid",
    "duplicated_cas_no": "",
    "SMILES": "C(CC(O)=O)(C1=CC=C(Cl)C=C1)(C2=CC=C(Cl)C=C2)C3=CC=C(Cl)C=C3",
    "meta_data": {
        "InChI": "InChI=1S/C21H15Cl3O2/c22-17-7-1-14(2-8-17)21(13-20(25)26,15-3-9-18(23)10-4-15)16-5-11-19(24)12-6-16/h1-12H,13H2,(H,25,26)",
        "InChIKey": null,
        "Canonical SMILES": "O=C(O)CC(C1=CC=C(Cl)C=C1)(C2=CC=C(Cl)C=C2)C3=CC=C(Cl)C=C3",
        "Molecular Formula": "C<sub>21</sub>H<sub>15</sub>Cl<sub>3</sub>O<sub>2</sub>",
        "Molecular Mass": "405.70",
        "Melting Point": "192-193 °C"
    }
}