{
    "cas_no": "5411-12-1",
    "key_name": "Chalcone epoxide",
    "cn_name": "查耳酮α;",
    "alternate_name": "Methanone, phenyl(3-phenyl-2-oxiranyl)-;Propiophenone, 2,3-epoxy-3-phenyl-;Methanone, phenyl(3-phenyloxiranyl)-;Phenyl(3-phenyl-2-oxiranyl)methanone;2,3-Epoxy-3-phenylpropiophenone;Chalcone epoxide;1,3-Diphenyl-2,3-epoxy-1-propanone;2,3-Epoxy-1,3-diphenyl-1-propanone;Epoxybenzalacetophenone;Chalcone oxide;1-Benzoyl-2-phenyloxirane;NSC 10919;Phenyl(3-phenyloxiran-2-yl)methanone;2-Benzoyl-3-phenyloxirane",
    "duplicated_cas_no": "",
    "SMILES": "C(=O)(C1C(O1)C2=CC=CC=C2)C3=CC=CC=C3",
    "meta_data": {
        "InChI": "InChI=1S/C15H12O2/c16-13(11-7-3-1-4-8-11)15-14(17-15)12-9-5-2-6-10-12/h1-10,14-15H",
        "InChIKey": null,
        "Canonical SMILES": "O=C(C=1C=CC=CC1)C2OC2C=3C=CC=CC3",
        "Molecular Formula": "C<sub>15</sub>H<sub>12</sub>O<sub>2</sub>",
        "Molecular Mass": "224.25",
        "Melting Point": "86.5-87.5 °C"
    }
}