{
    "cas_no": "6852-58-0",
    "key_name": "2-Methyl-<em>N</em>-(phenylmethylene)-2-propanamine",
    "cn_name": null,
    "alternate_name": "2-Propanamine, 2-methyl-<em>N</em>-(phenylmethylene)-;Ethylamine, <em>N</em>-benzylidene-1,1-dimethyl-;2-Methyl-<em>N</em>-(phenylmethylene)-2-propanamine;<em>N</em>-Benzylidene-<em>tert</em>-butylamine;<em>N</em>-<em>tert</em>-Butylbenzylideneamine;Benzylidene-<em>tert</em>-butylamine;<em>N</em>-Benzylidene-<em>N</em>-<em>tert</em>-butylamine;<em>N</em>-Benzylidene-1,1-dimethylethylamine;<em>N</em>-<em>tert</em>-Butylbenzylimine;<em>N</em>-<em>t</em>-Butylbenzylideneimine;Benzaldehyde <em>tert</em>-butylimine;<em>N</em>-Benzylidene-<em>N</em>-<em>tert</em>-butylimine;<em>N</em>-(<em>tert</em>-Butyl)benzylideneimine;<em>N</em>-<em>tert</em>-Butylbenzaldimine;<em>N</em>-Benzylidene-2-methylpropan-2-amine;<em>N</em>-<em>tert</em>-Butyl-1-phenylmethanimine",
    "duplicated_cas_no": "",
    "SMILES": "C(=NC(C)(C)C)C1=CC=CC=C1",
    "meta_data": {
        "InChI": "InChI=1S/C11H15N/c1-11(2,3)12-9-10-7-5-4-6-8-10/h4-9H,1-3H3",
        "InChIKey": null,
        "Canonical SMILES": "N(=CC=1C=CC=CC1)C(C)(C)C",
        "Molecular Formula": "C<sub>11</sub>H<sub>15</sub>N",
        "Molecular Mass": "161.24",
        "Boiling Point": "102-103 °C @ Press: 20 Torr",
        "Density": "0.904 g/cm³ @ Temp: 25 °C"
    }
}