{
    "cas_no": "501-65-5",
    "key_name": "Diphenylacetylene",
    "cn_name": "二苯基乙炔;二苯乙炔;",
    "alternate_name": "Benzene, 1,1′-(1,2-ethynediyl)bis-;Acetylene, diphenyl-;1,1′-(1,2-Ethynediyl)bis[benzene];Diphenylacetylene;Diphenylethyne;Tolan;Tolane;Ethyne, diphenyl-;1,2-Diphenylacetylene;1,2-Diphenylethyne;NSC 5185;(2-Phenylethynyl)benzene;2-Phenylethynylbenzene",
    "duplicated_cas_no": "72234-42-5",
    "SMILES": "C(#CC1=CC=CC=C1)C2=CC=CC=C2",
    "meta_data": {
        "InChI": "InChI=1S/C14H10/c1-3-7-13(8-4-1)11-12-14-9-5-2-6-10-14/h1-10H",
        "InChIKey": null,
        "Canonical SMILES": "C(#CC=1C=CC=CC1)C=2C=CC=CC2",
        "Molecular Formula": "C<sub>14</sub>H<sub>10</sub>",
        "Molecular Mass": "178.23",
        "Boiling Point": "300 °C",
        "Melting Point": "62.5 °C",
        "Density": "0.99 g/cm³"
    }
}