{
    "cas_no": "27215-38-9",
    "key_name": "Monolaurin",
    "cn_name": "甘油单月桂酸酯;",
    "alternate_name": "Dodecanoic acid, monoester with 1,2,3-propanetriol;Laurin, mono-;Monolaurin;Monoglycerol laurate;Lauric acid monoglyceride;Monododecanoyl glycerol;Glycerol monolaurate;Glycerol laurate;Aldo MLD;Glycerin monolaurate;Monomuls L 90;Lauric monoglyceride;Monomuls 90L12;Grindtek ML 90;Lauricidin R;Sunsoft 757;Glycerol monododecanoate;Poem M 300;Lauricidin 802;Lauricidin 812;Sunsoft 750;Monolauroylglycerin;Glyceryl monolaurate;Tegin L 90;Cithrol GML;Aldo MLD-K-FG;Dimodan ML 90;M 300;Glycerox L 8;Imwitor 312;Rikemal M 300;Lauracidin;Rylo-MG 12;NSC 4837;Monolauroyl glycerol;Denon 2659;ML-G 0081;Monomuls 90-45;Sunsoft 750H;Electrostripper TS 14B;Monomuls 90L2;Glycerin lauric acid monoester;TS 14B;Poem M 300PNA;Radiamuls 2549;Sunsoft 750C;Durosoft GML;Colonial Monolaurin",
    "duplicated_cas_no": "1322-88-9;83382-36-9;83382-35-8;152872-58-7;902145-13-5;902145-50-0",
    "SMILES": "",
    "meta_data": {
        "InChI": "",
        "InChIKey": null,
        "Canonical SMILES": "",
        "Molecular Formula": "C<sub>15</sub>H<sub>30</sub>O<sub>4</sub>",
        "Molecular Mass": "",
        "Melting Point": "50 °C"
    }
}