{
    "cas_no": "39205-62-4",
    "key_name": "4-Chloro-2(3<em>H</em>)-benzothiazolone",
    "cn_name": "邻氯苯骈噻唑酮;",
    "alternate_name": "2(3<em>H</em>)-Benzothiazolone, 4-chloro-;2-Benzothiazolol, 4-chloro-;4-Chloro-2(3<em>H</em>)-benzothiazolone;4-Chloro-2-oxobenzothiazoline;4-Chloro-2-hydroxybenzothiazole;4-Chloro-2-benzothiazolinone",
    "duplicated_cas_no": "",
    "SMILES": "ClC1=C2C(SC(=O)N2)=CC=C1",
    "meta_data": {
        "InChI": "InChI=1S/C7H4ClNOS/c8-4-2-1-3-5-6(4)9-7(10)11-5/h1-3H,(H,9,10)",
        "InChIKey": null,
        "Canonical SMILES": "O=C1SC=2C=CC=C(Cl)C2N1",
        "Molecular Formula": "C<sub>7</sub>H<sub>4</sub>ClNOS",
        "Molecular Mass": "185.63",
        "Melting Point": "204-205 °C"
    }
}