{
    "cas_no": "1999-33-3",
    "key_name": "Glycyl-<span class=\"text-smallcaps\">L</span>-asparagine",
    "cn_name": "Nα-甘氨酰-L-天冬酰胺;",
    "alternate_name": "<span class=\"text-smallcaps\">L</span>-Asparagine, glycyl-;Asparagine, <em>N</em><sup>2</sup>-glycyl-, <span class=\"text-smallcaps\">L</span>-;<span class=\"text-smallcaps\">L</span>-Asparagine, <em>N</em><sup>2</sup>-glycyl-;Glycyl-<span class=\"text-smallcaps\">L</span>-asparagine;Glycylasparagine;<em>N</em><sup>2</sup>-Glycylasparagine;NSC 203810;222: PN: EP2161028 PAGE: 11 claimed protein;6: PN: WO2014063098 TABLE: 5 claimed sequence;8: PN: WO2013001819 SEQID: 16 claimed protein;127: PN: US20130123467 SEQID: 152 claimed protein;7: PN: WO2018183671 TABLE: L1 claimed sequence;22: PN: WO2019144309 SEQID: 25 claimed protein;(2S)-4-Amino-2-[(2-azaniumylacetyl)amino]-4-oxobutanoate;27: PN: WO2020113403 TABLE: L1 claimed protein",
    "duplicated_cas_no": "26520-54-7;50694-67-2;89771-63-1",
    "SMILES": "[C@H](NC(CN)=O)(CC(N)=O)C(O)=O",
    "meta_data": {
        "InChI": "InChI=1S/C6H11N3O4/c7-2-5(11)9-3(6(12)13)1-4(8)10/h3H,1-2,7H2,(H2,8,10)(H,9,11)(H,12,13)/t3-/m0/s1",
        "InChIKey": null,
        "Canonical SMILES": "O=C(O)C(NC(=O)CN)CC(=O)N",
        "Molecular Formula": "C<sub>6</sub>H<sub>11</sub>N<sub>3</sub>O<sub>4</sub>",
        "Molecular Mass": "189.17",
        "Melting Point": "203 °C (decomp)"
    }
}