{
    "cas_no": "42200-33-9",
    "key_name": "Nadolol",
    "cn_name": null,
    "alternate_name": "2,3-Naphthalenediol, 5-[3-[(1,1-dimethylethyl)amino]-2-hydroxypropoxy]-1,2,3,4-tetrahydro-;5-[3-[(1,1-Dimethylethyl)amino]-2-hydroxypropoxy]-1,2,3,4-tetrahydro-2,3-naphthalenediol;Nadolol;SQ 11725;Corgard;Solgol;Anabet;MeSH ID: D009248",
    "duplicated_cas_no": "",
    "SMILES": "O(CC(CNC(C)(C)C)O)C1=C2C(CC(O)C(O)C2)=CC=C1",
    "meta_data": {
        "InChI": "InChI=1S/C17H27NO4/c1-17(2,3)18-9-12(19)10-22-16-6-4-5-11-7-14(20)15(21)8-13(11)16/h4-6,12,14-15,18-21H,7-10H2,1-3H3",
        "InChIKey": null,
        "Canonical SMILES": "OC(COC1=CC=CC2=C1CC(O)C(O)C2)CNC(C)(C)C",
        "Molecular Formula": "C<sub>17</sub>H<sub>27</sub>NO<sub>4</sub>",
        "Molecular Mass": "309.40",
        "Melting Point": "124-136 °C"
    }
}