{
    "cas_no": "37680-73-2",
    "key_name": "PCB 101",
    "cn_name": "2,2,4,5,5-五氯联苯;2,2,4,5,5-五氯联苯PCBNo101;",
    "alternate_name": "1,1′-Biphenyl, 2,2′,4,5,5′-pentachloro-;2,2′,4,5,5′-Pentachloro-1,1′-biphenyl;2,5,2′,4′,5′-Pentachlorobiphenyl;2,2′,4,5,5′-Pentachlorobiphenyl;2,4,5,2′,5′-Pentachlorobiphenyl;2,2′,4,5,5′-PCB;2,2′,4′,5,5′-Pentachlorobiphenyl;PCB 101;K 101;CB 101;1,2,4-Trichloro-5-(2,5-dichlorophenyl)benzene",
    "duplicated_cas_no": "",
    "SMILES": "ClC1=C(C=C(Cl)C(Cl)=C1)C2=C(Cl)C=CC(Cl)=C2",
    "meta_data": {
        "InChI": "InChI=1S/C12H5Cl5/c13-6-1-2-9(14)7(3-6)8-4-11(16)12(17)5-10(8)15/h1-5H",
        "InChIKey": null,
        "Canonical SMILES": "ClC1=CC=C(Cl)C(=C1)C=2C=C(Cl)C(Cl)=CC2Cl",
        "Molecular Formula": "C<sub>12</sub>H<sub>5</sub>Cl<sub>5</sub>",
        "Molecular Mass": "326.43",
        "Boiling Point": "196-213 °C",
        "Melting Point": "77 °C"
    }
}