{
    "cas_no": "5945-50-6",
    "key_name": "Monotropein",
    "cn_name": null,
    "alternate_name": "Cyclopenta[<em>c</em>]pyran-4-carboxylic acid, 1-(β-<span class=\"text-smallcaps\">D</span>-glucopyranosyloxy)-1,4a,7,7a-tetrahydro-7-hydroxy-7-(hydroxymethyl)-, (1<em>S</em>,4a<em>S</em>,7<em>R</em>,7a<em>S</em>)-;Monotropein;Cyclopenta[<em>c</em>]pyran-4-carboxylic acid, 1-(β-<span class=\"text-smallcaps\">D</span>-glucopyranosyloxy)-1,4a,7,7a-tetrahydro-7-hydroxy-7-(hydroxymethyl)-, [1<em>S</em>-(1α,4aα,7β,7aα)]-;(1<em>S</em>,4a<em>S</em>,7<em>R</em>,7a<em>S</em>)-1-(β-<span class=\"text-smallcaps\">D</span>-Glucopyranosyloxy)-1,4a,7,7a-tetrahydro-7-hydroxy-7-(hydroxymethyl)cyclopenta[<em>c</em>]pyran-4-carboxylic acid;Monotropeine;NSC 291303;NSC 88926",
    "duplicated_cas_no": "98845-47-7;1365-63-5;27120-79-2;31018-71-0;741212-56-6",
    "SMILES": "O([C@H]1[C@]2([C@@](C(C(O)=O)=CO1)(C=C[C@@]2(CO)O)[H])[H])[C@@H]3O[C@H](CO)[C@@H](O)[C@H](O)[C@H]3O",
    "meta_data": {
        "InChI": "InChI=1S/C16H22O11/c17-3-8-10(19)11(20)12(21)15(26-8)27-14-9-6(1-2-16(9,24)5-18)7(4-25-14)13(22)23/h1-2,4,6,8-12,14-15,17-21,24H,3,5H2,(H,22,23)/t6-,8-,9-,10-,11+,12-,14+,15+,16+/m1/s1",
        "InChIKey": null,
        "Canonical SMILES": "O=C(O)C1=COC(OC2OC(CO)C(O)C(O)C2O)C3C1C=CC3(O)CO",
        "Molecular Formula": "C<sub>16</sub>H<sub>22</sub>O<sub>11</sub>",
        "Molecular Mass": "390.34",
        "Melting Point": "170-173 °C"
    }
}