{
    "cas_no": "342573-75-5",
    "key_name": "1-Ethyl-3-methylimidazolium ethylsulfate",
    "cn_name": null,
    "alternate_name": "1<em>H</em>-Imidazolium, 3-ethyl-1-methyl-, ethyl sulfate (1:1);1<em>H</em>-Imidazolium, 1-ethyl-3-methyl-, ethyl sulfate;1-Ethyl-3-methylimidazolium ethylsulfate;Ecoeng 212;Tego IL-IMES;Ecoeng 121;E 0650;Tego IL EMIM-ES;Basionics LQ 01;Emin ETOSO<sub>3</sub>;1-Ethyl-3-methylimidazolium ethylsulfate(1-);LQ 01;[EMIM]ETSO<sub>4</sub>;BASF LQ 01",
    "duplicated_cas_no": "916847-55-7",
    "SMILES": "C(C)[N+]1=CN(C)C=C1.O(S(=O)(=O)[O-])CC",
    "meta_data": {
        "InChI": "InChI=1S/C6H11N2.C2H6O4S/c1-3-8-5-4-7(2)6-8;1-2-6-7(3,4)5/h4-6H,3H2,1-2H3;2H2,1H3,(H,3,4,5)/q+1;/p-1",
        "InChIKey": null,
        "Canonical SMILES": "O=S(=O)([O-])OCC.C1=C[N+](=CN1C)CC",
        "Molecular Formula": "C<sub>6</sub>H<sub>11</sub>N<sub>2</sub>.C<sub>2</sub>H<sub>5</sub>O<sub>4</sub>S",
        "Molecular Mass": "",
        "Melting Point": "-65 °C",
        "Density": "1.2075 g/cm³ @ Temp: 79.15 °C"
    }
}