{
    "cas_no": "105-34-0",
    "key_name": "Methyl cyanoacetate",
    "cn_name": "氰乙酸甲酯;",
    "alternate_name": "Acetic acid, 2-cyano-, methyl ester;Acetic acid, cyano-, methyl ester;Methyl cyanoacetate;Methyl cyanoethanoate;Cyanoacetic acid methyl ester;Methyl 2-cyanoacetate;(Methoxycarbonyl)acetonitrile;Methyl α-cyanoacetate;2-Cyanoacetic acid methyl ester;NSC 3113;NSC 68507",
    "duplicated_cas_no": "",
    "SMILES": "C(CC#N)(OC)=O",
    "meta_data": {
        "InChI": "InChI=1S/C4H5NO2/c1-7-4(6)2-3-5/h2H2,1H3",
        "InChIKey": null,
        "Canonical SMILES": "N#CCC(=O)OC",
        "Molecular Formula": "C<sub>4</sub>H<sub>5</sub>NO<sub>2</sub>",
        "Molecular Mass": "99.09",
        "Boiling Point": "200.5 °C",
        "Melting Point": "-22.5 °C",
        "Density": "1.1288 g/cm³ @ Temp: 20 °C"
    }
}