{
    "cas_no": "458532-88-2",
    "key_name": "3-Fluoropyridine-4-boronic acid pinacol ester",
    "cn_name": "3-氟-吡啶-4-硼酸-频哪酯;",
    "alternate_name": "Pyridine, 3-fluoro-4-(4,4,5,5-tetramethyl-1,3,2-dioxaborolan-2-yl)-;3-Fluoro-4-(4,4,5,5-tetramethyl-1,3,2-dioxaborolan-2-yl)pyridine;3-Fluoro-4-(4,4,5,5-tetramethyl-[1,3,2]dioxaborolan-2-yl)pyridine;3-Fluoropyridine-4-boronic acid pinacol ester;2-(3-Fluoropyridin-4-yl)-4,4,5,5-tetramethyl-1,3,2-dioxaborolane;3-Fluoro-4-(tetramethyl-1,3,2-dioxaborolan-2-yl)pyridine",
    "duplicated_cas_no": "",
    "SMILES": "FC=1C(B2OC(C)(C)C(C)(C)O2)=CC=NC1",
    "meta_data": {
        "InChI": "InChI=1S/C11H15BFNO2/c1-10(2)11(3,4)16-12(15-10)8-5-6-14-7-9(8)13/h5-7H,1-4H3",
        "InChIKey": null,
        "Canonical SMILES": "FC=1C=NC=CC1B2OC(C)(C)C(O2)(C)C",
        "Molecular Formula": "C<sub>11</sub>H<sub>15</sub>BFNO<sub>2</sub>",
        "Molecular Mass": "223.05",
        "Melting Point": "110-115 °C (sublm)"
    }
}