{
    "cas_no": "3972-25-6",
    "key_name": "<em>tert</em>-Butyl alcohol-<em>d</em>",
    "cn_name": null,
    "alternate_name": "2-Propanol-<em>d</em>, 2-methyl-;<em>tert</em>-Butyl alcohol-<em>d</em>;<em>tert</em>-Butyl hydroxide-<em>d</em>",
    "duplicated_cas_no": "",
    "SMILES": "C(C)(C)(C)O[2H]",
    "meta_data": {
        "InChI": "InChI=1S/C4H10O/c1-4(2,3)5/h5H,1-3H3/i5D",
        "InChIKey": null,
        "Canonical SMILES": "OC(C)(C)C",
        "Molecular Formula": "C<sub>4</sub>H<sub>9</sub>DO",
        "Molecular Mass": "",
        "Boiling Point": "84.2 °C @ Press: 760 Torr"
    }
}