{
    "cas_no": "824-40-8",
    "key_name": "Picolinic acid <em>N</em>-oxide",
    "cn_name": "三苯甲胺;三苯基甲胺;三甲苯基胺;",
    "alternate_name": "2-Pyridinecarboxylic acid, 1-oxide;Picolinic acid, 1-oxide;Pyridine-2-carboxylic acid <em>N</em>-oxide;Picolinic acid <em>N</em>-oxide;2-Carboxypyridine <em>N</em>-oxide;1-Oxopicolinic acid;NSC 27961;1-Oxidopyridine-2-carboxylic acid;2-Carboxypyridine 1-oxide;2-Carboxypyridin-1-ium-1-olate",
    "duplicated_cas_no": "",
    "SMILES": "C(O)(=O)C=1N(=O)=CC=CC1",
    "meta_data": {
        "InChI": "InChI=1S/C6H5NO3/c8-6(9)5-3-1-2-4-7(5)10/h1-4H,(H,8,9)",
        "InChIKey": null,
        "Canonical SMILES": "O=C(O)C=1C=CC=CN1=O",
        "Molecular Formula": "C<sub>6</sub>H<sub>5</sub>NO<sub>3</sub>",
        "Molecular Mass": "139.11",
        "Melting Point": "161 °C"
    }
}