{
    "cas_no": "2227-29-4",
    "key_name": "Chlorobis(1-methylethyl)silane",
    "cn_name": "氯化二异丙基硅烷;二异丙基氯代硅烷;",
    "alternate_name": "Silane, chlorobis(1-methylethyl)-;Silane, chlorodiisopropyl-;Chlorobis(1-methylethyl)silane;Diisopropylchlorosilane;Chlorodiisopropylsilane;Diisopropylsilyl chloride",
    "duplicated_cas_no": "",
    "SMILES": "[SiH](C(C)C)(C(C)C)Cl",
    "meta_data": {
        "InChI": "InChI=1S/C6H15ClSi/c1-5(2)8(7)6(3)4/h5-6,8H,1-4H3",
        "InChIKey": null,
        "Canonical SMILES": "Cl[SiH](C(C)C)C(C)C",
        "Molecular Formula": "C<sub>6</sub>H<sub>15</sub>ClSi",
        "Molecular Mass": "150.72",
        "Boiling Point": "137 °C",
        "Density": "0.872 g/cm³"
    }
}