{
    "cas_no": "29975-16-4",
    "key_name": "Estazolam",
    "cn_name": "艾司唑仑;6-苯基-8-氯-4H-[1,2,4]三氮唑并[4,3-a][1,4]苯并二氮杂卓;",
    "alternate_name": "4<em>H</em>-[1,2,4]Triazolo[4,3-<em>a</em>][1,4]benzodiazepine, 8-chloro-6-phenyl-;4<em>H</em>-<em>s</em>-Triazolo[4,3-<em>a</em>][1,4]benzodiazepine, 8-chloro-6-phenyl-;8-Chloro-6-phenyl-4<em>H</em>-[1,2,4]triazolo[4,3-<em>a</em>][1,4]benzodiazepine;D 40TA;8-Chloro-6-phenyl-4<em>H</em>-<em>s</em>-triazolo[4,3-<em>a</em>][1,4]benzodiazepine;8-Chloro-6-phenyl-4<em>H</em>-<em>s</em>-triazolo[4,3-α][1,4]benzodiazepine;8-Chloro-6-phenyl-4<em>H</em>-s-triazolo[4,3-<em>a</em>][1,4]benzodiazepine;Estazolam;U 33737;Eurodin;Abbott 47631;A 47631;ProSom;Somnatrol;Cannoc;Nemurel;Esilgan;Julodin;Nuctalon;NSC 290818;8-Chloro-6-phenyl-4<em>H</em>-[1,2,4]-triazolo[4,3-(a)][1,4]benzodiazepine;MeSH ID: D004949",
    "duplicated_cas_no": "",
    "SMILES": "ClC=1C=C2C(N3C(CN=C2C4=CC=CC=C4)=NN=C3)=CC1",
    "meta_data": {
        "InChI": "InChI=1S/C16H11ClN4/c17-12-6-7-14-13(8-12)16(11-4-2-1-3-5-11)18-9-15-20-19-10-21(14)15/h1-8,10H,9H2",
        "InChIKey": null,
        "Canonical SMILES": "ClC=1C=CC2=C(C1)C(=NCC3=NN=CN32)C=4C=CC=CC4",
        "Molecular Formula": "C<sub>16</sub>H<sub>11</sub>ClN<sub>4</sub>",
        "Molecular Mass": "294.74",
        "Melting Point": "228.5 °C"
    }
}