{
    "cas_no": "555-45-3",
    "key_name": "Trimyristin",
    "cn_name": "三肉豆蔻酯;",
    "alternate_name": "Tetradecanoic acid, 1,1′,1′′-(1,2,3-propanetriyl) ester;Myristin, tri-;Tetradecanoic acid, 1,2,3-propanetriyl ester;Glycerol trimyristate;Glyceryl trimyristate;Trimyristin;VP 114;Myristic acid triglyceride;Dynasan 114;Myristic triglyceride;Trimyristoylglycerol;Glycerin trimyristate;Triglyceride MMM;Glyceryl tritetradecanoate;Tritetradecanoin;NSC 4062;Esteride G-M;2,3-Di(tetradecanoyloxy)propyl tetradecanoate",
    "duplicated_cas_no": "",
    "SMILES": "C(OC(CCCCCCCCCCCCC)=O)(COC(CCCCCCCCCCCCC)=O)COC(CCCCCCCCCCCCC)=O",
    "meta_data": {
        "InChI": "InChI=1S/C45H86O6/c1-4-7-10-13-16-19-22-25-28-31-34-37-43(46)49-40-42(51-45(48)39-36-33-30-27-24-21-18-15-12-9-6-3)41-50-44(47)38-35-32-29-26-23-20-17-14-11-8-5-2/h42H,4-41H2,1-3H3",
        "InChIKey": null,
        "Canonical SMILES": "O=C(OCC(OC(=O)CCCCCCCCCCCCC)COC(=O)CCCCCCCCCCCCC)CCCCCCCCCCCCC",
        "Molecular Formula": "C<sub>45</sub>H<sub>86</sub>O<sub>6</sub>",
        "Molecular Mass": "723.16",
        "Boiling Point": "311 °C",
        "Melting Point": "56.5 °C",
        "Density": "0.872 g/cm³ @ Temp: 60 °C"
    }
}