{
    "cas_no": "73978-41-3",
    "key_name": "6-Pteridinemethanol, 2,4-diamino-, hydrochloride (1:1)",
    "cn_name": "2,4-二氨基-6-羟甲基蝶啶盐酸盐;",
    "alternate_name": "6-Pteridinemethanol, 2,4-diamino-, hydrochloride (1:1);6-Pteridinemethanol, 2,4-diamino-, monohydrochloride;2,4-Diamino-6-(hydroxymethyl)pteridine hydrochloride;2,4-Diaminopyrimido[4,5-<em>b</em>]pyrazine-6-methanol monohydrochloride",
    "duplicated_cas_no": "",
    "SMILES": "NC=1C2=C(N=C(N)N1)N=CC(CO)=N2.Cl",
    "meta_data": {
        "InChI": "InChI=1S/C7H8N6O.ClH/c8-5-4-6(13-7(9)12-5)10-1-3(2-14)11-4;/h1,14H,2H2,(H4,8,9,10,12,13);1H",
        "InChIKey": null,
        "Canonical SMILES": "Cl.OCC=1N=C2C(=NC1)N=C(N=C2N)N",
        "Molecular Formula": "C<sub>7</sub>H<sub>8</sub>N<sub>6</sub>O.ClH",
        "Molecular Mass": "",
        "Melting Point": "&gt;300 °C"
    }
}