{
    "cas_no": "404-72-8",
    "key_name": "3-Fluorophenyl isothiocyanate",
    "cn_name": "3-氟苯硫代异氰酸酯;",
    "alternate_name": "Benzene, 1-fluoro-3-isothiocyanato-;Isothiocyanic acid, <em>m</em>-fluorophenyl ester;1-Fluoro-3-isothiocyanatobenzene;3-Fluorophenyl isothiocyanate;<em>m</em>-Fluorophenyl isothiocyanate;NSC 78432;Benzenamine, 3-fluoro-, <em>N</em>-sulfide",
    "duplicated_cas_no": "1619287-33-0;2124236-52-6;2484718-20-7",
    "SMILES": "N(=C=S)C1=CC(F)=CC=C1",
    "meta_data": {
        "InChI": "InChI=1S/C7H4FNS/c8-6-2-1-3-7(4-6)9-5-10/h1-4H",
        "InChIKey": null,
        "Canonical SMILES": "FC1=CC=CC(N=C=S)=C1",
        "Molecular Formula": "C<sub>7</sub>H<sub>4</sub>FNS",
        "Molecular Mass": "153.18",
        "Boiling Point": "227 °C"
    }
}