{
    "cas_no": "1004-40-6",
    "key_name": "6-Amino-2-thiouracil",
    "cn_name": "6-氨基-2-硫脲嘧啶;2-硫-6-氨基脲嘧啶;2-巯基-4-氨基-6-羟基嘧啶;",
    "alternate_name": "4(1<em>H</em>)-Pyrimidinone, 6-amino-2,3-dihydro-2-thioxo-;Uracil, 6-amino-2-thio-;6-Amino-2,3-dihydro-2-thioxo-4(1<em>H</em>)-pyrimidinone;4-Hydroxy-6-amino-2-mercaptopyrimidine;2-Thio-4-amino-6-hydroxypyrimidine;4-Amino-2-thiouracil;AB 48;4-Amino-6-hydroxy-2-mercaptopyrimidine;2-Mercapto-6-aminouracil;2-Thio-6-aminouracil;2-Mercapto-4-amino-6-hydroxypyrimidine;6-Amino-2-thiouracil;6-Amino-4-oxo-2-thioxo-1,2,3,4-tetrahydropyrimidine;6-Amino-2-mercapto-4-pyrimidinol;6-Amino-4-hydroxy-2-mercaptopyrimidine;4-Amino-6-hydroxy-2-thiopyrimidine;4-Amino-6-hydroxy-2-sulfanylpyrimidine;NSC 1587;NSC 202018;NSC 321193;NSC 321194;6-Amino-2-mercapto-4(3<em>H</em>)-pyrimidinone;6-Amino-2-sulfanyl-4(3<em>H</em>)-pyrimidinone;6-Aminothiouracil",
    "duplicated_cas_no": "106651-79-0;333-57-3;197175-00-1",
    "SMILES": "NC1=CC(=O)NC(=S)N1",
    "meta_data": {
        "InChI": "InChI=1S/C4H5N3OS/c5-2-1-3(8)7-4(9)6-2/h1H,(H4,5,6,7,8,9)",
        "InChIKey": null,
        "Canonical SMILES": "O=C1C=C(N)NC(=S)N1",
        "Molecular Formula": "C<sub>4</sub>H<sub>5</sub>N<sub>3</sub>OS",
        "Molecular Mass": "143.17",
        "Melting Point": "&gt;295 °C"
    }
}