{
    "cas_no": "107-72-2",
    "key_name": "Trichloropentylsilane",
    "cn_name": null,
    "alternate_name": "Silane, trichloropentyl-;Trichloropentylsilane;Amyltrichlorosilane;Pentylsilicon trichloride;Trichloroamylsilane;Pentyltrichlorosilane;<em>n</em>-Pentyltrichlorosilane",
    "duplicated_cas_no": "",
    "SMILES": "C([Si](Cl)(Cl)Cl)CCCC",
    "meta_data": {
        "InChI": "InChI=1S/C5H11Cl3Si/c1-2-3-4-5-9(6,7)8/h2-5H2,1H3",
        "InChIKey": null,
        "Canonical SMILES": "Cl[Si](Cl)(Cl)CCCCC",
        "Molecular Formula": "C<sub>5</sub>H<sub>11</sub>Cl<sub>3</sub>Si",
        "Molecular Mass": "205.59",
        "Boiling Point": "172 °C",
        "Density": "1.1330 g/cm³ @ Temp: 20 °C"
    }
}