{
    "cas_no": "1678-93-9",
    "key_name": "Butylcyclohexane",
    "cn_name": "n-丁基环己烷;正丁基环己烷;",
    "alternate_name": "Cyclohexane, butyl-;Butylcyclohexane;Butane, 1-cyclohexyl-;<em>n</em>-Butylcyclohexane;NSC 8469",
    "duplicated_cas_no": "",
    "SMILES": "C(CCC)C1CCCCC1",
    "meta_data": {
        "InChI": "InChI=1S/C10H20/c1-2-3-7-10-8-5-4-6-9-10/h10H,2-9H2,1H3",
        "InChIKey": null,
        "Canonical SMILES": "CCCCC1CCCCC1",
        "Molecular Formula": "C<sub>10</sub>H<sub>20</sub>",
        "Molecular Mass": "140.27",
        "Boiling Point": "180.9 °C",
        "Melting Point": "-74.7 °C",
        "Density": "0.8178 g/cm³ @ Temp: 20 °C"
    }
}