{
    "cas_no": "6938-26-7",
    "key_name": "Ethyl 2-hydroxypentanoate",
    "cn_name": "2-羟基戊酸乙酯;2-羟基戊酸乙酯;",
    "alternate_name": "Pentanoic acid, 2-hydroxy-, ethyl ester;Ethyl α-hydroxyvalerate;Ethyl 2-hydroxypentanoate;2-Hydroxypentanoic acid ethyl ester;2-Hydroxyvaleric acid ethyl ester;NSC 53939",
    "duplicated_cas_no": "126372-01-8",
    "SMILES": "C(C(OCC)=O)(CCC)O",
    "meta_data": {
        "InChI": "InChI=1S/C7H14O3/c1-3-5-6(8)7(9)10-4-2/h6,8H,3-5H2,1-2H3",
        "InChIKey": null,
        "Canonical SMILES": "O=C(OCC)C(O)CCC",
        "Molecular Formula": "C<sub>7</sub>H<sub>14</sub>O<sub>3</sub>",
        "Molecular Mass": "146.18",
        "Boiling Point": "170-180 °C @ Press: 760 Torr"
    }
}