{
    "cas_no": "487-58-1",
    "key_name": "(+)-Hypaphorine",
    "cn_name": null,
    "alternate_name": "1<em>H</em>-Indole-3-ethanaminium, α-carboxy-<em>N</em>,<em>N</em>,<em>N</em>-trimethyl-, inner salt, (α<em>S</em>)-;Hypaphorine;Ammonium, (1-carboxy-2-indol-3-ylethyl)trimethyl-, hydroxide, inner salt;1<em>H</em>-Indole-3-ethanaminium, α-carboxy-<em>N</em>,<em>N</em>,<em>N</em>-trimethyl-, inner salt, (<em>S</em>)-;(1-Carboxy-2-indol-3-ylethyl)trimethylammonium hydroxide, inner salt;Tryptophan, trimethylbetaine;Lenticin;Lenticine;Tryptophan betaine;<span class=\"text-smallcaps\">L</span>-Hypaphorine;Glyyunnanenine;(+)-Hypaphorine",
    "duplicated_cas_no": "97045-39-1;12673-47-1;63767-89-5",
    "SMILES": "C([C@H]([N@+](C)(C)C)C([O-])=O)C=1C=2C(NC1)=CC=CC2",
    "meta_data": {
        "InChI": "InChI=1S/C14H18N2O2/c1-16(2,3)13(14(17)18)8-10-9-15-12-7-5-4-6-11(10)12/h4-7,9,13,15H,8H2,1-3H3/t13-/m0/s1",
        "InChIKey": null,
        "Canonical SMILES": "O=C([O-])C(CC1=CNC=2C=CC=CC21)[N+](C)(C)C",
        "Molecular Formula": "C<sub>14</sub>H<sub>18</sub>N<sub>2</sub>O<sub>2</sub>",
        "Molecular Mass": "",
        "Melting Point": "255 °C (decomp)"
    }
}