{
    "cas_no": "614-98-2",
    "key_name": "Ethyl 3-furoate",
    "cn_name": "3-呋喃甲酸乙酯;乙基-3-糠酸;",
    "alternate_name": "3-Furancarboxylic acid, ethyl ester;3-Furoic acid, ethyl ester;Ethyl 3-furancarboxylate;Ethyl 3-furoate;NSC 349939",
    "duplicated_cas_no": "",
    "SMILES": "C(OCC)(=O)C=1C=COC1",
    "meta_data": {
        "InChI": "InChI=1S/C7H8O3/c1-2-10-7(8)6-3-4-9-5-6/h3-5H,2H2,1H3",
        "InChIKey": null,
        "Canonical SMILES": "O=C(OCC)C1=COC=C1",
        "Molecular Formula": "C<sub>7</sub>H<sub>8</sub>O<sub>3</sub>",
        "Molecular Mass": "140.14",
        "Boiling Point": "93-95 °C"
    }
}