{
    "cas_no": "14396-90-8",
    "key_name": "<em>N</em>-(3-Butynyl)phthalimide",
    "cn_name": null,
    "alternate_name": "1<em>H</em>-Isoindole-1,3(2<em>H</em>)-dione, 2-(3-butyn-1-yl)-;Phthalimide, <em>N</em>-3-butynyl-;1<em>H</em>-Isoindole-1,3(2<em>H</em>)-dione, 2-(3-butynyl)-;2-(3-Butyn-1-yl)-1<em>H</em>-isoindole-1,3(2<em>H</em>)-dione;<em>N</em>-(3-Butynyl)phthalimide;2-But-3-ynyl-isoindole-1,3-dione;2-(3-Butynyl)isoindoline-1,3-dione;2-(But-3-ynyl)isoindoline-1,3-dione;<em>N</em>-(3-Butyn-1-yl)phthalimide;2-(But-3-yn-1-yl)-2,3-dihydro-1<em>H</em>-isoindole-1,3-dione",
    "duplicated_cas_no": "",
    "SMILES": "O=C1C=2C(C(=O)N1CCC#C)=CC=CC2",
    "meta_data": {
        "InChI": "InChI=1S/C12H9NO2/c1-2-3-8-13-11(14)9-6-4-5-7-10(9)12(13)15/h1,4-7H,3,8H2",
        "InChIKey": null,
        "Canonical SMILES": "O=C1C=2C=CC=CC2C(=O)N1CCC#C",
        "Molecular Formula": "C<sub>12</sub>H<sub>9</sub>NO<sub>2</sub>",
        "Molecular Mass": "199.21",
        "Melting Point": "133-134 °C"
    }
}