{
    "cas_no": "5274-68-0",
    "key_name": "3,6,9,12-Tetraoxatetracosan-1-ol",
    "cn_name": "四聚乙二醇单月桂醚;月桂醇聚醚-4;月桂醇聚氧乙烯(4)醚;",
    "alternate_name": "3,6,9,12-Tetraoxatetracosan-1-ol;Ethanol, 2[[2-(dodecyloxy)ethoxy]ethoxyethoxy]-;Ethanol, 2-[2-[2-[2-(dodecyloxy)ethoxy]ethoxy]ethoxy]-;Tetraoxyethylene glycol monododecyl ether;Tetra(oxyethylene) dodecyl ether;Tetraethylene glycol monolauryl ether;Tetraethylene glycol dodecyl ether;Polyoxyethylene(4) lauryl ether;Tetraethylene glycol monododecyl ether;<em>n</em>-Dodecyl tetraethylene glycol ether;Dodecyl tetraethylene glycol ether;Tetraoxyethylene monododecyl ether;α-Dodecyl-ω-hydroxytetrakis(oxyethylene);Tetraoxyethylene glycol dodecyl ether;Tetraethylene glycol lauryl ether;NSC 190605;2-[2-[2-(2-Dodecyloxyethoxy)ethoxy]ethoxy]ethanol;2-[2-[2-(2-Dodecoxyethoxy)ethoxy]ethoxy]ethanol",
    "duplicated_cas_no": "",
    "SMILES": "O(CCCCCCCCCCCC)CCOCCOCCOCCO",
    "meta_data": {
        "InChI": "InChI=1S/C20H42O5/c1-2-3-4-5-6-7-8-9-10-11-13-22-15-17-24-19-20-25-18-16-23-14-12-21/h21H,2-20H2,1H3",
        "InChIKey": null,
        "Canonical SMILES": "OCCOCCOCCOCCOCCCCCCCCCCCC",
        "Molecular Formula": "C<sub>20</sub>H<sub>42</sub>O<sub>5</sub>",
        "Molecular Mass": "362.54",
        "Boiling Point": "166 °C @ Press: 0.02 Torr",
        "Melting Point": "18.6-19.0 °C",
        "Density": "0.989 g/cm³ @ Temp: 40 °C"
    }
}