{
    "cas_no": "37942-07-7",
    "key_name": "3,5-Di-<em>tert</em>-butylsalicylaldehyde",
    "cn_name": "3,5-二叔丁基水杨醛;",
    "alternate_name": "Benzaldehyde, 3,5-bis(1,1-dimethylethyl)-2-hydroxy-;Salicylaldehyde, 3,5-di-<em>tert</em>-butyl-;3,5-Bis(1,1-dimethylethyl)-2-hydroxybenzaldehyde;2-Hydroxy-3,5-di-<em>tert</em>-butylbenzaldehyde;3,5-Di-<em>tert</em>-butylsalicylaldehyde;3,5-Di-<em>tert</em>-butyl-2-hydroxybenzaldehyde;3,5-Di-<em>tert</em>-butylsalicylic aldehyde;3,5-Bis(<em>tert</em>-butyl)salicylaldehyde;3,5-Di-<em>t</em>-butylsalicylaldehyde;3,5-Di-<em>t</em>-butyl-2-hydroxybenzaldehyde;3,5-<em>tert</em>-Butyl-2-hydroxybenzaldehyde;2-Hydroxy-3,5-bis(<em>tert</em>-butyl)benzaldehyde;3,5-Bis-<em>tert</em>-butyl-2-hydroxybenzaldehyde;3,5-Ditert-butyl-2-hydroxybenzaldehyde",
    "duplicated_cas_no": "66232-32-4",
    "SMILES": "C(C)(C)(C)C1=CC(C(C)(C)C)=CC(C=O)=C1O",
    "meta_data": {
        "InChI": "InChI=1S/C15H22O2/c1-14(2,3)11-7-10(9-16)13(17)12(8-11)15(4,5)6/h7-9,17H,1-6H3",
        "InChIKey": null,
        "Canonical SMILES": "O=CC=1C=C(C=C(C1O)C(C)(C)C)C(C)(C)C",
        "Molecular Formula": "C<sub>15</sub>H<sub>22</sub>O<sub>2</sub>",
        "Molecular Mass": "234.33",
        "Boiling Point": "114-116 °C @ Press: 1 Torr",
        "Melting Point": "61.5-63 °C"
    }
}