{
    "cas_no": "628-76-2",
    "key_name": "1,5-Dichloropentane",
    "cn_name": "1,5-二氯戊烷;",
    "alternate_name": "Pentane, 1,5-dichloro-;1,5-Dichloropentane;Pentamethylene chloride;NSC 6210",
    "duplicated_cas_no": "",
    "SMILES": "C(CCCl)CCCl",
    "meta_data": {
        "InChI": "InChI=1S/C5H10Cl2/c6-4-2-1-3-5-7/h1-5H2",
        "InChIKey": null,
        "Canonical SMILES": "ClCCCCCCl",
        "Molecular Formula": "C<sub>5</sub>H<sub>10</sub>Cl<sub>2</sub>",
        "Molecular Mass": "141.04",
        "Boiling Point": "179 °C",
        "Melting Point": "-72.8 °C",
        "Density": "1.208 g/cm³"
    }
}