{
    "cas_no": "1679-07-8",
    "key_name": "Cyclopentanethiol",
    "cn_name": "环戊硫醇;",
    "alternate_name": "Cyclopentanethiol;Cyclopentyl mercaptan;Mercaptocyclopentane;Cyclopentylthiol",
    "duplicated_cas_no": "",
    "SMILES": "SC1CCCC1",
    "meta_data": {
        "InChI": "InChI=1S/C5H10S/c6-5-3-1-2-4-5/h5-6H,1-4H2",
        "InChIKey": null,
        "Canonical SMILES": "SC1CCCC1",
        "Molecular Formula": "C<sub>5</sub>H<sub>10</sub>S",
        "Molecular Mass": "102.20",
        "Boiling Point": "132.1 °C",
        "Density": "0.9485 g/cm³ @ Temp: 420 °C"
    }
}