{
    "cas_no": "92-71-7",
    "key_name": "2,5-Diphenyloxazole",
    "cn_name": "2,5-二苯基恶唑;",
    "alternate_name": "Oxazole, 2,5-diphenyl-;2,5-Diphenyloxazole;2,5-Diphenyl-1,3-oxazole;PPO (scintillator);PPO;Tritosol;DPO (scintillator);DPO;NSC 24856;NSC 49168",
    "duplicated_cas_no": "",
    "SMILES": "C=1(OC(=NC1)C2=CC=CC=C2)C3=CC=CC=C3",
    "meta_data": {
        "InChI": "InChI=1S/C15H11NO/c1-3-7-12(8-4-1)14-11-16-15(17-14)13-9-5-2-6-10-13/h1-11H",
        "InChIKey": null,
        "Canonical SMILES": "N=1C=C(OC1C=2C=CC=CC2)C=3C=CC=CC3",
        "Molecular Formula": "C<sub>15</sub>H<sub>11</sub>NO",
        "Molecular Mass": "221.25",
        "Boiling Point": "360 °C",
        "Melting Point": "74 °C"
    }
}