{
    "cas_no": "127-51-5",
    "key_name": "Isomethyl-α-ionone",
    "cn_name": "α-异甲基紫罗兰酮;甲基-α-异紫罗酮;异甲基-α-紫罗兰酮;3-甲基-4-(2,6,6- 三甲基-2-环已烯-1-炔基)-3-丁;",
    "alternate_name": "3-Buten-2-one, 3-methyl-4-(2,6,6-trimethyl-2-cyclohexen-1-yl)-;3-Methyl-4-(2,6,6-trimethyl-2-cyclohexen-1-yl)-3-buten-2-one;α-Cetone;4-(2,6,6-Trimethyl-2-cyclohexen-1-yl)-3-methyl-3-buten-2-one;α-Ionone, isomethyl-;Isomethyl-α-ionone;Cetone Alpha;NSC 66432;3-Methyl-4-(2,6,6-trimethylcyclohex-2-enyl)-3-buten-2-one",
    "duplicated_cas_no": "",
    "SMILES": "C(=C(C(C)=O)C)C1C(C)(C)CCC=C1C",
    "meta_data": {
        "InChI": "InChI=1S/C14H22O/c1-10-7-6-8-14(4,5)13(10)9-11(2)12(3)15/h7,9,13H,6,8H2,1-5H3",
        "InChIKey": null,
        "Canonical SMILES": "O=C(C(=CC1C(=CCCC1(C)C)C)C)C",
        "Molecular Formula": "C<sub>14</sub>H<sub>22</sub>O",
        "Molecular Mass": "206.32",
        "Boiling Point": "121-122 °C @ Press: 9 Torr",
        "Density": "0.9345 g/cm³ @ Temp: 20 °C"
    }
}