{
    "cas_no": "1002-57-9",
    "key_name": "8-Aminooctanoic acid",
    "cn_name": "8-氨基辛酸;",
    "alternate_name": "Octanoic acid, 8-amino-;8-Aminooctanoic acid;η-Aminocaprylic acid;ω-Aminocaprylic acid;8-Aminocaprylic acid;ω-Aminooctanoic acid;NSC 59019;Poly(8-aminocaprylic acid)",
    "duplicated_cas_no": "",
    "SMILES": "C(CCCCN)CCC(O)=O",
    "meta_data": {
        "InChI": "InChI=1S/C8H17NO2/c9-7-5-3-1-2-4-6-8(10)11/h1-7,9H2,(H,10,11)",
        "InChIKey": null,
        "Canonical SMILES": "O=C(O)CCCCCCCN",
        "Molecular Formula": "C<sub>8</sub>H<sub>17</sub>NO<sub>2</sub>",
        "Molecular Mass": "159.23",
        "Melting Point": "194 °C (decomp)"
    }
}