{
    "uri": "substance/pt/1344952",
    "rn": "1344-95-2",
    "name": "Calcium silicate",
    "images": [],
    "inchi": "",
    "inchiKey": "",
    "smile": "",
    "canonicalSmile": "",
    "molecularFormula": "Unspecified",
    "molecularMass": "",
    "experimentalProperties": [
        {
            "name": "Melting Point",
            "property": "1540 °C",
            "sourceNumber": 1
        },
        {
            "name": "Density",
            "property": "2.9 g/cm³",
            "sourceNumber": 2
        }
    ],
    "propertyCitations": [
        {
            "docUri": "",
            "sourceNumber": 1,
            "source": "International Chemical Safety Cards data were obtained from the National Institute for Occupational Safety and Health (US)"
        },
        {
            "docUri": "",
            "sourceNumber": 2,
            "source": "Hazardous Substances Data Bank data were obtained from the National Library of Medicine (US)"
        }
    ],
    "synonyms": [
        "Silicic acid, calcium salt",
        "Calcium silicate",
        "Calcium monosilicate",
        "Calcium hydrosilicate",
        "CS Lafarge",
        "Micro-Cel",
        "Micro-Cel T",
        "Micro-Cel E",
        "Calcium polysilicate",
        "Micro-Cel C",
        "Microcal ET",
        "Micro-Cel T 41",
        "Calsil",
        "Micro-Cel B",
        "Micro-Cel T 26",
        "Calflo E",
        "Micro-Cel A",
        "Silene EF",
        "Micro-Cel T 38",
        "Florite R",
        "Starlex L",
        "Silmos T",
        "Marimet 45",
        "SW 400",
        "Stabinex NW 7PS",
        "Toyofine A",
        "Microcal 160",
        "Florite RM 20",
        "FPW 5000",
        "Florite RM 10",
        "Hishirakku NA",
        "Silasorb",
        "Hubersorb 600",
        "Florite RN",
        "Silasorb (celite)",
        "NW 7P",
        "Nyglos I 10013",
        "Florite RE",
        "Serusuton F",
        "Hubersorb 250",
        "Calsilite",
        "KTK",
        "Advacate",
        "Serusuton H",
        "Hiluc N 80",
        "Gastrosil",
        "E 552",
        "Zeopharm 600",
        "PCM Lite 10",
        "LSM 100",
        "NT Glasal",
        "Florite RM",
        "Huberderm 1000",
        "Hiluc 0.8",
        "Sekisui Asuberu",
        "SuperPro 300",
        "Florite RT",
        "Zeopharm S 170",
        "Zeopharm 6000",
        "Sipernat 880",
        "Hubersorb 5121",
        "Rxcipients FM 1000",
        "FM 1000",
        "Taikalite",
        "Taikalit",
        "JCPDS 27-0088",
        "Keical Ace",
        "Hiluc M",
        "Ecolux",
        "Rxcipient FM 1000",
        "NP Rakkusu",
        "Keical Ace Super Silica",
        "Zeodent 250",
        "Hiluc 0.8FK",
        "Flowrite R",
        "T 800H",
        "Hishitaika 70",
        "Netherlands D",
        "Promaxon D",
        "AD 850H200M",
        "Florite",
        "Fluorite R",
        "Fluorite PS 10",
        "Sarasano",
        "Jinfu D 1.4",
        "D 1.4",
        "DSX 650",
        "E 51",
        "E 51 (silicate)",
        "Florite PS 10",
        "Sicacell 990",
        "Briskoil CAS 30S",
        "Tremin 238-600EST",
        "NC 600EST",
        "Zeofree 600",
        "Tremin 939-300MST",
        "Trimin 238EST600"
    ],
    "replacedRns": [
        "11129-16-1",
        "12612-25-8",
        "12616-31-8",
        "12707-59-4",
        "55584-92-4",
        "59787-14-3",
        "89382-97-8",
        "106857-03-8",
        "157090-66-9",
        "188674-04-6",
        "217468-33-2",
        "486446-43-9"
    ],
    "hasMolfile": false,
    "source": "https://commonchemistry.cas.org/detail?cas_rn=1344-95-2"
}