{
    "cas_no": "1990-90-5",
    "key_name": "3-Methyl-4-pyridinamine",
    "cn_name": "3-甲基-4-氨基吡啶;4-氨基-3-甲基吡啶;",
    "alternate_name": "4-Pyridinamine, 3-methyl-;3-Picoline, 4-amino-;3-Methyl-4-pyridinamine;Phillips 1908;4-Amino-3-methylpyridine;3-Methyl-4-aminopyridine;4-Amino-3-picoline;NSC 52454;(3-Methylpyridin-4-yl)amine;3-Methylpyridin-4-amine",
    "duplicated_cas_no": "",
    "SMILES": "CC=1C(N)=CC=NC1",
    "meta_data": {
        "InChI": "InChI=1S/C6H8N2/c1-5-4-8-3-2-6(5)7/h2-4H,1H3,(H2,7,8)",
        "InChIKey": null,
        "Canonical SMILES": "N=1C=CC(N)=C(C1)C",
        "Molecular Formula": "C<sub>6</sub>H<sub>8</sub>N<sub>2</sub>",
        "Molecular Mass": "108.14",
        "Melting Point": "108-109 °C"
    }
}