{
    "cas_no": "584-79-2",
    "key_name": "Allethrin",
    "cn_name": "右旋烯丙菊酯;右旋反式丙烯菊酯;右旋-反式-2,2-二甲基-3-(2-甲基-1-丙烯基)环丙烷羧酸-(R,S)-2-甲基-3-烯丙;",
    "alternate_name": "Cyclopropanecarboxylic acid, 2,2-dimethyl-3-(2-methyl-1-propen-1-yl)-, 2-methyl-4-oxo-3-(2-propen-1-yl)-2-cyclopenten-1-yl ester;Cyclopropanecarboxylic acid, 2,2-dimethyl-3-(2-methylpropenyl)-, ester with 2-allyl-4-hydroxy-3-methyl-2-cyclopenten-1-one;Cyclopropanecarboxylic acid, 2,2-dimethyl-3-(2-methyl-1-propenyl)-, 2-methyl-4-oxo-3-(2-propenyl)-2-cyclopenten-1-yl ester;Chrysanthemummonocarboxylic acid, 3-allyl-2-methyl-4-oxo-2-cyclopenten-1-yl ester;2-Cyclopenten-1-one, 2-allyl-4-hydroxy-3-methyl-, 2,2-dimethyl-3-(2-methylpropenyl)cyclopropanecarboxylate;2-Allyl-4-hydroxy-3-methyl-2-cyclopenten-1-one ester of 2,2-dimethyl-3-(2-methylpropenyl)cyclopropane carboxylic acid;3-Allyl-4-keto-2-methylcyclopentenyl chrysanthemummonocarboxylate;3-Allyl-4-methyl-2-oxo-3-cyclopenten-1-yl ester of 2,2-dimethyl-3-(2-methylpropenyl)cyclopropanecarboxylic acid;2,2-Dimethyl-3-(2-methyl-1-propenyl)cyclopropanecarboxylic acid, ester with 2-allyl-4-hydroxy-3-methyl-2-cyclopenten-1-one;Allethrin;Pynamin;ENT 17510;(±)-Allerethonyl (±)-<em>cis</em>,<em>trans</em>-chrysanthemate;Allyl cinerin I;<em>dl</em>-2-Allyl-4-hydroxy-3-methyl-2-cyclopenten-1-one ester with <em>dl</em>-chrysanthemummonocarboxylic acid;(±)-3-Allyl-4-<em>keto</em>-2-methylcyclopent-2-enyl (±)-<em>cis</em>,<em>trans</em>-chrysanthemummonocarboxylate;Pyresyn;Allethrine;<em>trans</em>-Allethrin;Exthrin;Wasp Stopper CF;Matox;RU 27436;EBT;OMS 3045;2-Methyl-3-(2-propenyl)-4-oxo-2-cyclopentenyl 2,2-dimethyl-3-(2-methyl-1-propenyl)cyclopropanecarboxylate;NSC 11782;<em>dl</em>-Allethrin;3-(2-Propenyl)-2-methyl-4-oxo-2-cyclopentenyl 3,3-dimethyl-2-(2-methyl-1-propenyl)cyclopropanecarboxylate;<em>dl</em>, <em>d</em>-T80 allethrin;Depallethrin;Depallethrine;MeSH ID: D000487",
    "duplicated_cas_no": "137-98-4;6385-67-7;6385-68-8;8018-12-0;18793-35-6;18877-88-8;20301-61-5;22431-63-6;22556-34-9;23453-08-9;24313-23-3;25406-22-8;25406-25-1;25406-24-0;71119-51-2;71211-88-6;84030-86-4",
    "SMILES": "C(=C(C)C)C1C(C(OC2C(C)=C(CC=C)C(=O)C2)=O)C1(C)C",
    "meta_data": {
        "InChI": "InChI=1S/C19H26O3/c1-7-8-13-12(4)16(10-15(13)20)22-18(21)17-14(9-11(2)3)19(17,5)6/h7,9,14,16-17H,1,8,10H2,2-6H3",
        "InChIKey": null,
        "Canonical SMILES": "O=C(OC1C(=C(C(=O)C1)CC=C)C)C2C(C=C(C)C)C2(C)C",
        "Molecular Formula": "C<sub>19</sub>H<sub>26</sub>O<sub>3</sub>",
        "Molecular Mass": "302.41",
        "Boiling Point": "140 °C @ Press: 0.1 Torr",
        "Melting Point": "4 °C",
        "Density": "1.01 g/cm³ @ Temp: 20 °C"
    }
}