{
    "cas_no": "5807-14-7",
    "key_name": "1,5,7-Triazabicyclo[4.4.0]dec-5-ene",
    "cn_name": "1,5,7-三氮杂二环[4.4.0]癸-5-烯;",
    "alternate_name": "2<em>H</em>-Pyrimido[1,2-<em>a</em>]pyrimidine, 1,3,4,6,7,8-hexahydro-;2<em>H</em>-Pyrimido[1,2-<em>a</em>]pyrimidine, 3,4,6,7,8,9-hexahydro-;1,3,4,6,7,8-Hexahydro-2<em>H</em>-pyrimido[1,2-<em>a</em>]pyrimidine;1,5,9-Triazabicyclo[4.4.0]dec-9-ene;1,5,7-Triazabicyclo[4.4.0]dec-5-ene;2,3,4,6,7,8-Hexahydro-1<em>H</em>-pyrimido[1,2-<em>a</em>]pyrimidine;1,5,7-Triazabicyclo[4.4.0]deca-5-ene;TBD;1<em>H</em>,2<em>H</em>,3<em>H</em>,4<em>H</em>,6<em>H</em>,7<em>H</em>,8<em>H</em>-[1,3]Diazino[1,2-<em>a</em>]pyrimidine;Triazabicyclodecene;3,4,6,7,8,9-Hexahydro-2<em>H</em>-pyrimido[1,2-<em>a</em>]pyrimidine",
    "duplicated_cas_no": "170942-35-5;389623-48-7;1308663-28-6;1330822-87-1;1380207-47-5;1567797-33-4;1872278-68-6;2000224-85-9",
    "SMILES": "C=12N(CCCN1)CCCN2",
    "meta_data": {
        "InChI": "InChI=1S/C7H13N3/c1-3-8-7-9-4-2-6-10(7)5-1/h1-6H2,(H,8,9)",
        "InChIKey": null,
        "Canonical SMILES": "N1=C2NCCCN2CCC1",
        "Molecular Formula": "C<sub>7</sub>H<sub>13</sub>N<sub>3</sub>",
        "Molecular Mass": "139.20",
        "Melting Point": "109-111 °C"
    }
}