{
    "cas_no": "600-57-7",
    "key_name": "11β-Hydroxyprogesterone",
    "cn_name": "11B-羟孕酮;11B-羟孕酮;",
    "alternate_name": "Pregn-4-ene-3,20-dione, 11-hydroxy-, (11β)-;Pregn-4-ene-3,20-dione, 11β-hydroxy-;(11β)-11-Hydroxypregn-4-ene-3,20-dione;11β-Hydroxyprogesterone;Pregn-4-en-11β-ol-3,20-dione;11β-Hydroxy-4-pregnene-3,20-dione;Δ<sup>4</sup>-Pregnene-11β-ol-3,20-dione;Pregn-4-ene-11β-ol-3,20-dione;21-Deoxycorticosterone;U 1701;NSC 15469;11β-Hydroxy-P4",
    "duplicated_cas_no": "",
    "SMILES": "C[C@@]12[C@@]3([C@]([C@]4([C@](C)(C[C@@H]3O)[C@@H](C(C)=O)CC4)[H])(CCC1=CC(=O)CC2)[H])[H]",
    "meta_data": {
        "InChI": "InChI=1S/C21H30O3/c1-12(22)16-6-7-17-15-5-4-13-10-14(23)8-9-20(13,2)19(15)18(24)11-21(16,17)3/h10,15-19,24H,4-9,11H2,1-3H3/t15-,16+,17-,18-,19+,20-,21+/m0/s1",
        "InChIKey": null,
        "Canonical SMILES": "O=C1C=C2CCC3C4CCC(C(=O)C)C4(C)CC(O)C3C2(C)CC1",
        "Molecular Formula": "C<sub>21</sub>H<sub>30</sub>O<sub>3</sub>",
        "Molecular Mass": "330.46",
        "Melting Point": "186-188 °C"
    }
}