{
    "cas_no": "121-63-1",
    "key_name": "4,4′-Oxybis[benzenesulfonyl chloride]",
    "cn_name": "4,4\"-氧双苯磺酰氯;",
    "alternate_name": "Benzenesulfonyl chloride, 4,4′-oxybis-;Benzenesulfonyl chloride, 4,4′-oxydi-;4,4′-Oxybis[benzenesulfonyl chloride];4,4′-Oxydibenzenesulfonyl chloride;Diphenyl ether 4,4′-disulfonyl chloride;Oxybis(benzenesulfonyl chloride);Bis(4-chlorosulfonylphenyl) ether;<em>p</em>,<em>p</em>′-Oxybis(benzenesulfonyl chloride);4,4′-Oxybis(benzenesulfonyl chloride);Oxybis(4-benzenesulfonyl chloride);Phenoxybenzene-4,4′-disulfonyl chloride;4,4′-Bis(chlorosulfonyl)biphenyl ether;4,4′-Bis(chlorosulfonyl)diphenyl ether;NSC 212",
    "duplicated_cas_no": "",
    "SMILES": "S(Cl)(=O)(=O)C1=CC=C(OC2=CC=C(S(Cl)(=O)=O)C=C2)C=C1",
    "meta_data": {
        "InChI": "InChI=1S/C12H8Cl2O5S2/c13-20(15,16)11-5-1-9(2-6-11)19-10-3-7-12(8-4-10)21(14,17)18/h1-8H",
        "InChIKey": null,
        "Canonical SMILES": "O=S(=O)(Cl)C1=CC=C(OC2=CC=C(C=C2)S(=O)(=O)Cl)C=C1",
        "Molecular Formula": "C<sub>12</sub>H<sub>8</sub>Cl<sub>2</sub>O<sub>5</sub>S<sub>2</sub>",
        "Molecular Mass": "367.22",
        "Melting Point": "128-129 °C"
    }
}