{
    "cas_no": "6620-60-6",
    "key_name": "Proglumide",
    "cn_name": "丙谷胺;二丙谷酰胺;(+/-)-5-二丙基氨基-4-苯甲酰氨基-5-氧代戊酸;",
    "alternate_name": "Pentanoic acid, 4-(benzoylamino)-5-(dipropylamino)-5-oxo-;Glutaramic acid, 4-benzamido-<em>N</em>,<em>N</em>-dipropyl-, <span class=\"text-smallcaps\">DL</span>-;Pentanoic acid, 4-(benzoylamino)-5-(dipropylamino)-5-oxo-, (±)-;4-(Benzoylamino)-5-(dipropylamino)-5-oxopentanoic acid;<span class=\"text-smallcaps\">DL</span>-4-Benzamido-<em>N</em>,<em>N</em>-dipropylglutaramic acid;Proglumide;CR 242;Xyde;Xylamide;Xylamide (gastroprotective agent);Milid;W 5219;Binoside;Gastrotopic;Midelid;Milide;Nulsa;Ulcutin;Promide (parasympatholytic);(±)-Proglumide;<span class=\"text-smallcaps\">DL</span>-Proglumide;Promid;DDO 5701",
    "duplicated_cas_no": "24485-90-3;25727-74-6",
    "SMILES": "C(C(N(CCC)CCC)=O)(NC(=O)C1=CC=CC=C1)CCC(O)=O",
    "meta_data": {
        "InChI": "InChI=1S/C18H26N2O4/c1-3-12-20(13-4-2)18(24)15(10-11-16(21)22)19-17(23)14-8-6-5-7-9-14/h5-9,15H,3-4,10-13H2,1-2H3,(H,19,23)(H,21,22)",
        "InChIKey": null,
        "Canonical SMILES": "O=C(O)CCC(NC(=O)C=1C=CC=CC1)C(=O)N(CCC)CCC",
        "Molecular Formula": "C<sub>18</sub>H<sub>26</sub>N<sub>2</sub>O<sub>4</sub>",
        "Molecular Mass": "334.41",
        "Melting Point": "143.5 °C"
    }
}