{
    "cas_no": "1731-86-8",
    "key_name": "Methyl undecanoate",
    "cn_name": "十一酸甲酯;",
    "alternate_name": "Undecanoic acid, methyl ester;Methyl undecanoate;Methyl <em>n</em>-undecanoate",
    "duplicated_cas_no": "",
    "SMILES": "C(CCC(OC)=O)CCCCCCC",
    "meta_data": {
        "InChI": "InChI=1S/C12H24O2/c1-3-4-5-6-7-8-9-10-11-12(13)14-2/h3-11H2,1-2H3",
        "InChIKey": null,
        "Canonical SMILES": "O=C(OC)CCCCCCCCCC",
        "Molecular Formula": "C<sub>12</sub>H<sub>24</sub>O<sub>2</sub>",
        "Molecular Mass": "200.32",
        "Boiling Point": "230-260 °C"
    }
}