{
    "cas_no": "15706-73-7",
    "key_name": "(±)-Butyl 2-methylbutanoate",
    "cn_name": "2-甲基丁酸丁酯;",
    "alternate_name": "Butanoic acid, 2-methyl-, butyl ester;Butyric acid, 2-methyl-, butyl ester;Butyl 2-methylbutanoate;Butyl 2-methylbutyrate;<em>n</em>-Butyl 2-methylbutyrate;(±)-Butyl 2-methylbutanoate",
    "duplicated_cas_no": "144831-53-8",
    "SMILES": "C(OCCCC)(C(CC)C)=O",
    "meta_data": {
        "InChI": "InChI=1S/C9H18O2/c1-4-6-7-11-9(10)8(3)5-2/h8H,4-7H2,1-3H3",
        "InChIKey": null,
        "Canonical SMILES": "O=C(OCCCC)C(C)CC",
        "Molecular Formula": "C<sub>9</sub>H<sub>18</sub>O<sub>2</sub>",
        "Molecular Mass": "158.24",
        "Boiling Point": "179 °C"
    }
}