{
    "cas_no": "527-52-6",
    "key_name": "Digitoxose",
    "cn_name": "头孢噻肟;头孢氨噻肟;头孢氨噻;头孢噻肟酸;3-乙酰氧基甲基-7-[2-(2-氨基-4-噻唑基)-2-甲氧亚胺基]-乙酰胺基;",
    "alternate_name": "<span class=\"text-smallcaps\">D</span>-<em>ribo</em>-Hexose, 2,6-dideoxy-;Digitoxose;2,6-Dideoxy-<span class=\"text-smallcaps\">D</span>-<em>ribo</em>-hexose;<span class=\"text-smallcaps\">D</span>-Digitoxose;2,6-Dideoxy-<span class=\"text-smallcaps\">D</span>-altrose;(+)-Digitoxose;NSC 87513",
    "duplicated_cas_no": "527-63-9;5746-73-6;14214-19-8;16730-85-1",
    "SMILES": "[C@H]([C@H](CC=O)O)([C@@H](C)O)O",
    "meta_data": {
        "InChI": "InChI=1S/C6H12O4/c1-4(8)6(10)5(9)2-3-7/h3-6,8-10H,2H2,1H3/t4-,5+,6-/m1/s1",
        "InChIKey": null,
        "Canonical SMILES": "O=CCC(O)C(O)C(O)C",
        "Molecular Formula": "C<sub>6</sub>H<sub>12</sub>O<sub>4</sub>",
        "Molecular Mass": "148.16",
        "Melting Point": "112 °C"
    }
}