{
    "cas_no": "10431-99-9",
    "key_name": "2-Isopropyl-2-oxazoline",
    "cn_name": "2-异丙基-2-噁唑啉;",
    "alternate_name": "Oxazole, 4,5-dihydro-2-(1-methylethyl)-;2-Oxazoline, 2-isopropyl-;4,5-Dihydro-2-(1-methylethyl)oxazole;2-Isopropyl-2-oxazoline;2-(Propan-2-yl)-4,5-dihydro-1,3-oxazole",
    "duplicated_cas_no": "114730-73-3",
    "SMILES": "C(C)(C)C1=NCCO1",
    "meta_data": {
        "InChI": "InChI=1S/C6H11NO/c1-5(2)6-7-3-4-8-6/h5H,3-4H2,1-2H3",
        "InChIKey": null,
        "Canonical SMILES": "N1=C(OCC1)C(C)C",
        "Molecular Formula": "C<sub>6</sub>H<sub>11</sub>NO",
        "Molecular Mass": "113.16",
        "Boiling Point": "137-138 °C"
    }
}