{
    "cas_no": "2605-14-3",
    "key_name": "2-Chloro-6-methoxybenzothiazole",
    "cn_name": "2-氯-6-甲氧基苯并噻唑;",
    "alternate_name": "Benzothiazole, 2-chloro-6-methoxy-;2-Chloro-6-methoxybenzothiazole;6-Methoxy-2-chlorobenzothiazole;NSC 118120;2-Chloro-6-methoxybenzo[<em>d</em>]thiazole;2-Chloro-6-methoxy-1,3-benzothiazole;2-Chloro-6-(methyloxy)-1,3-benzothiazole",
    "duplicated_cas_no": "",
    "SMILES": "ClC1=NC=2C(=CC(OC)=CC2)S1",
    "meta_data": {
        "InChI": "InChI=1S/C8H6ClNOS/c1-11-5-2-3-6-7(4-5)12-8(9)10-6/h2-4H,1H3",
        "InChIKey": null,
        "Canonical SMILES": "ClC1=NC=2C=CC(OC)=CC2S1",
        "Molecular Formula": "C<sub>8</sub>H<sub>6</sub>ClNOS",
        "Molecular Mass": "199.66",
        "Boiling Point": "130-133 °C @ Press: 7 Torr",
        "Melting Point": "43-44 °C"
    }
}