{
    "cas_no": "19614-15-4",
    "key_name": "Ethyl 4-(4-morpholinyl)benzoate",
    "cn_name": null,
    "alternate_name": "Benzoic acid, 4-(4-morpholinyl)-, ethyl ester;Benzoic acid, <em>p</em>-morpholino-, ethyl ester;Ethyl 4-(4-morpholinyl)benzoate;4-(Morpholin-4-yl)benzoic acid ethyl ester;Ethyl 4-morpholinobenzoate",
    "duplicated_cas_no": "",
    "SMILES": "C(OCC)(=O)C1=CC=C(C=C1)N2CCOCC2",
    "meta_data": {
        "InChI": "InChI=1S/C13H17NO3/c1-2-17-13(15)11-3-5-12(6-4-11)14-7-9-16-10-8-14/h3-6H,2,7-10H2,1H3",
        "InChIKey": null,
        "Canonical SMILES": "O=C(OCC)C1=CC=C(C=C1)N2CCOCC2",
        "Molecular Formula": "C<sub>13</sub>H<sub>17</sub>NO<sub>3</sub>",
        "Molecular Mass": "235.28",
        "Melting Point": "83-85 °C"
    }
}