{
    "cas_no": "1128-44-5",
    "key_name": "4-Methylisatin",
    "cn_name": null,
    "alternate_name": "1<em>H</em>-Indole-2,3-dione, 4-methyl-;Indole-2,3-dione, 4-methyl-;Isatin, 4-methyl-;4-Methyl-1<em>H</em>-indole-2,3-dione;4-Methylisatin;4-Methylindole-2,3-dione;4-Methylindoline-2,3-dione",
    "duplicated_cas_no": "",
    "SMILES": "O=C1C=2C(NC1=O)=CC=CC2C",
    "meta_data": {
        "InChI": "InChI=1S/C9H7NO2/c1-5-3-2-4-6-7(5)8(11)9(12)10-6/h2-4H,1H3,(H,10,11,12)",
        "InChIKey": null,
        "Canonical SMILES": "O=C1NC2=CC=CC(=C2C1=O)C",
        "Molecular Formula": "C<sub>9</sub>H<sub>7</sub>NO<sub>2</sub>",
        "Molecular Mass": "161.16",
        "Melting Point": "189 °C"
    }
}