{
    "cas_no": "2598-31-4",
    "key_name": "Quinacetol",
    "cn_name": null,
    "alternate_name": "Ethanone, 1-(8-hydroxy-5-quinolinyl)-;Ketone, 8-hydroxy-5-quinolyl methyl;1-(8-Hydroxy-5-quinolinyl)ethanone;5-Acetyloxine;5-Acetyl-8-hydroxyquinoline;5-Acetyl-8-quinolinol;Quinacetol;NSC 40901;NSC 523017;NSC 68447;1-(8-Hydroxyquinolin-5-yl)ethan-1-one",
    "duplicated_cas_no": "",
    "SMILES": "C(C)(=O)C=1C2=C(C(O)=CC1)N=CC=C2",
    "meta_data": {
        "InChI": "InChI=1S/C11H9NO2/c1-7(13)8-4-5-10(14)11-9(8)3-2-6-12-11/h2-6,14H,1H3",
        "InChIKey": null,
        "Canonical SMILES": "O=C(C=1C=CC(O)=C2N=CC=CC21)C",
        "Molecular Formula": "C<sub>11</sub>H<sub>9</sub>NO<sub>2</sub>",
        "Molecular Mass": "187.19",
        "Melting Point": "113-114 °C"
    }
}