{
    "cas_no": "6092-54-2",
    "key_name": "Hexyl chloroformate",
    "cn_name": "己基甲酸氯;",
    "alternate_name": "Carbonochloridic acid, hexyl ester;Formic acid, chloro-, hexyl ester;Hexyl alcohol, chloroformate;Hexyl chloroformate;Chloroformic acid <em>n</em>-hexyl ester;Hexyl chlorocarbonate;<em>n</em>-Hexyl chloroformate;Hexyloxycarbonyl chloride;Hexyl carbonochloridate",
    "duplicated_cas_no": "",
    "SMILES": "C(CCCCC)OC(Cl)=O",
    "meta_data": {
        "InChI": "InChI=1S/C7H13ClO2/c1-2-3-4-5-6-10-7(8)9/h2-6H2,1H3",
        "InChIKey": null,
        "Canonical SMILES": "O=C(Cl)OCCCCCC",
        "Molecular Formula": "C<sub>7</sub>H<sub>13</sub>ClO<sub>2</sub>",
        "Molecular Mass": "164.63",
        "Boiling Point": "60-61 °C @ Press: 7 Torr",
        "Density": "1.007 g/cm³"
    }
}