{
    "cas_no": "628-66-0",
    "key_name": "1,3-Diacetoxypropane",
    "cn_name": "1,3-丙二醇二乙酸酯;",
    "alternate_name": "1,3-Propanediol, 1,3-diacetate;1,3-Propanediol, diacetate;1,3-Propylene diacetate;1,3-Propylene glycol diacetate;Trimethylene acetate;1,3-Diacetoxypropane;1,3-Bis(acetyloxy)propane;NSC 227936",
    "duplicated_cas_no": "",
    "SMILES": "C(OC(C)=O)CCOC(C)=O",
    "meta_data": {
        "InChI": "InChI=1S/C7H12O4/c1-6(8)10-4-3-5-11-7(2)9/h3-5H2,1-2H3",
        "InChIKey": null,
        "Canonical SMILES": "O=C(OCCCOC(=O)C)C",
        "Molecular Formula": "C<sub>7</sub>H<sub>12</sub>O<sub>4</sub>",
        "Molecular Mass": "160.17",
        "Boiling Point": "209.5 °C"
    }
}