{
    "cas_no": "4755-50-4",
    "key_name": "4-(Dimethylamino)benzoyl chloride",
    "cn_name": "4-二甲氨基苯甲酰氯;",
    "alternate_name": "Benzoyl chloride, 4-(dimethylamino)-;Benzoyl chloride, <em>p</em>-(dimethylamino)-;4-(Dimethylamino)benzoyl chloride;<em>p</em>-(Dimethylamino)benzoyl chloride;4-(Dimethylamino)benzoic acid chloride;4-(<em>N</em>,<em>N</em>-Dimethylamino)benzoyl chloride;4-[Dimethylamino]benzoic acid chloride;<em>p</em>-(<em>N</em>,<em>N</em>-Dimethylamino)benzoyl chloride;4′-(Dimethylamino)[1,1′-biphenyl]-4-carbonyl chloride",
    "duplicated_cas_no": "2839755-78-9",
    "SMILES": "C(Cl)(=O)C1=CC=C(N(C)C)C=C1",
    "meta_data": {
        "InChI": "InChI=1S/C9H10ClNO/c1-11(2)8-5-3-7(4-6-8)9(10)12/h3-6H,1-2H3",
        "InChIKey": null,
        "Canonical SMILES": "O=C(Cl)C1=CC=C(C=C1)N(C)C",
        "Molecular Formula": "C<sub>9</sub>H<sub>10</sub>ClNO",
        "Molecular Mass": "183.63",
        "Boiling Point": "180 °C @ Press: 15 Torr",
        "Melting Point": "145.700078125 °C"
    }
}