{
    "cas_no": "5470-96-2",
    "key_name": "2-Quinolinecarboxaldehyde",
    "cn_name": "喹啉-2-甲醛;2-喹啉甲醛;",
    "alternate_name": "2-Quinolinecarboxaldehyde;Quinaldaldehyde;2-Formylquinoline;2-Quinolinecarbaldehyde;NSC 27026;2-Quinolylcarbaldehyde;2-Quinolylaldehyde",
    "duplicated_cas_no": "",
    "SMILES": "C(=O)C1=NC2=C(C=C1)C=CC=C2",
    "meta_data": {
        "InChI": "InChI=1S/C10H7NO/c12-7-9-6-5-8-3-1-2-4-10(8)11-9/h1-7H",
        "InChIKey": null,
        "Canonical SMILES": "O=CC=1N=C2C=CC=CC2=CC1",
        "Molecular Formula": "C<sub>10</sub>H<sub>7</sub>NO",
        "Molecular Mass": "157.17",
        "Melting Point": "70-72 °C"
    }
}