{
    "cas_no": "1522-34-5",
    "key_name": "Pentanoic acid, 2-acetyl-4-methyl-, ethyl ester",
    "cn_name": "2-异丁基乙酰乙酸乙酯;",
    "alternate_name": "Pentanoic acid, 2-acetyl-4-methyl-, ethyl ester;Valeric acid, 2-acetyl-4-methyl-, ethyl ester;Ethyl 2-acetyl-4-methylvalerate;Ethyl 2-isobutylacetoacetate;Ethyl 2-isobutylacetylacetate;Ethyl 2-acetyl-4-methylpentanoate;2-Acetyl-4-methylpentanoic acid ethyl ester",
    "duplicated_cas_no": "",
    "SMILES": "C(C(OCC)=O)(CC(C)C)C(C)=O",
    "meta_data": {
        "InChI": "InChI=1S/C10H18O3/c1-5-13-10(12)9(8(4)11)6-7(2)3/h7,9H,5-6H2,1-4H3",
        "InChIKey": null,
        "Canonical SMILES": "O=C(OCC)C(C(=O)C)CC(C)C",
        "Molecular Formula": "C<sub>10</sub>H<sub>18</sub>O<sub>3</sub>",
        "Molecular Mass": "186.25",
        "Boiling Point": "104-107 °C @ Press: 15 Torr"
    }
}