{
    "cas_no": "10521-08-1",
    "key_name": "2<em>H</em>-Pyran-2,4,6(3<em>H</em>,5<em>H</em>)-trione",
    "cn_name": null,
    "alternate_name": "2<em>H</em>-Pyran-2,4,6(3<em>H</em>,5<em>H</em>)-trione;Glutaric anhydride, 3-oxo-;β-Ketoglutaric anhydride;Pyran-2,4,6-trione;Acetone dicarboxylic acid anhydride",
    "duplicated_cas_no": "",
    "SMILES": "O=C1CC(=O)OC(=O)C1",
    "meta_data": {
        "InChI": "InChI=1S/C5H4O4/c6-3-1-4(7)9-5(8)2-3/h1-2H2",
        "InChIKey": null,
        "Canonical SMILES": "O=C1OC(=O)CC(=O)C1",
        "Molecular Formula": "C<sub>5</sub>H<sub>4</sub>O<sub>4</sub>",
        "Molecular Mass": "128.08",
        "Melting Point": "138-140 °C (decomp)"
    }
}