{
    "cas_no": "59467-94-6",
    "key_name": "Midazolam maleate",
    "cn_name": "马来酸咪达唑仑;8-氯-6-(2-氟苯基)-1-甲基-4H-咪唑并[1,5-a][1,4]苯并二氮杂卓马来酸盐;",
    "alternate_name": "4<em>H</em>-Imidazo[1,5-<em>a</em>][1,4]benzodiazepine, 8-chloro-6-(2-fluorophenyl)-1-methyl-, (2<em>Z</em>)-2-butenedioate (1:1);4<em>H</em>-Imidazo[1,5-<em>a</em>][1,4]benzodiazepine, 8-chloro-6-(2-fluorophenyl)-1-methyl-, (<em>Z</em>)-2-butenedioate (1:1);Ro 21-3981;Midazolam maleate;Dormicum;Flormidal;Ro 21-3981/001;NSC 313452;Dormicum (tablet)",
    "duplicated_cas_no": "65506-68-5;65607-69-4",
    "SMILES": "CC=1N2C=3C(C(=NCC2=CN1)C4=C(F)C=CC=C4)=CC(Cl)=CC3.C(=C\\C(O)=O)\\C(O)=O",
    "meta_data": {
        "InChI": "InChI=1S/C18H13ClFN3.C4H4O4/c1-11-21-9-13-10-22-18(14-4-2-3-5-16(14)20)15-8-12(19)6-7-17(15)23(11)13;5-3(6)1-2-4(7)8/h2-9H,10H2,1H3;1-2H,(H,5,6)(H,7,8)/b;2-1-",
        "InChIKey": null,
        "Canonical SMILES": "O=C(O)C=CC(=O)O.FC=1C=CC=CC1C2=NCC3=CN=C(N3C=4C=CC(Cl)=CC24)C",
        "Molecular Formula": "C<sub>18</sub>H<sub>13</sub>ClFN<sub>3</sub>.C<sub>4</sub>H<sub>4</sub>O<sub>4</sub>",
        "Molecular Mass": "",
        "Melting Point": "114-117 °C"
    }
}