{
    "cas_no": "553-21-9",
    "key_name": "(+)-Costunolide",
    "cn_name": "木香烃内酯;",
    "alternate_name": "Cyclodeca[<em>b</em>]furan-2(3<em>H</em>)-one, 3a,4,5,8,9,11a-hexahydro-6,10-dimethyl-3-methylene-, (3a<em>S</em>,6<em>E</em>,10<em>E</em>,11a<em>R</em>)-;Germacra-1(10),4,11(13)-trien-12-oic acid, 6α-hydroxy-, γ-lactone, (<em>E</em>,<em>E</em>)-;Costunolide;Cyclodeca[<em>b</em>]furan-2(3<em>H</em>)-one, 3a,4,5,8,9,11a-hexahydro-6,10-dimethyl-3-methylene-, [3a<em>S</em>-(3a<em>R</em>*,6<em>E</em>,10<em>E</em>,11a<em>S</em>*)]-;(3a<em>S</em>,6<em>E</em>,10<em>E</em>,11a<em>R</em>)-3a,4,5,8,9,11a-Hexahydro-6,10-dimethyl-3-methylenecyclodeca[<em>b</em>]furan-2(3<em>H</em>)-one;Costus lactone;Costunolid;(+)-Costunolide;NSC 106404",
    "duplicated_cas_no": "126621-28-1;11028-78-7;25333-06-6;46814-17-9;62458-56-4;80750-19-2",
    "SMILES": "",
    "meta_data": {
        "InChI": "",
        "InChIKey": null,
        "Canonical SMILES": "",
        "Molecular Formula": "C<sub>15</sub>H<sub>20</sub>O<sub>2</sub>",
        "Molecular Mass": "232.32",
        "Melting Point": "106-107 °C"
    }
}