{
    "cas_no": "2454-35-5",
    "key_name": "1-[3-(Acetyloxy)phenyl]ethanone",
    "cn_name": "3-乙酰氧基苯乙酮;",
    "alternate_name": "Ethanone, 1-[3-(acetyloxy)phenyl]-;Acetophenone, 3′-hydroxy-, acetate;1-[3-(Acetyloxy)phenyl]ethanone;<em>m</em>-Acetylphenyl acetate;3′-Acetoxyacetophenone;3-Acetylphenyl acetate;NSC 174054",
    "duplicated_cas_no": "",
    "SMILES": "O(C(C)=O)C1=CC(C(C)=O)=CC=C1",
    "meta_data": {
        "InChI": "InChI=1S/C10H10O3/c1-7(11)9-4-3-5-10(6-9)13-8(2)12/h3-6H,1-2H3",
        "InChIKey": null,
        "Canonical SMILES": "O=C(OC1=CC=CC(=C1)C(=O)C)C",
        "Molecular Formula": "C<sub>10</sub>H<sub>10</sub>O<sub>3</sub>",
        "Molecular Mass": "178.18",
        "Boiling Point": "147 °C @ Press: 9 Torr",
        "Melting Point": "44-44.5 °C"
    }
}