{
    "cas_no": "1088991-73-4",
    "key_name": "MK 6096",
    "cn_name": null,
    "alternate_name": "Methanone, [(2<em>R</em>,5<em>R</em>)-5-[[(5-fluoro-2-pyridinyl)oxy]methyl]-2-methyl-1-piperidinyl][5-methyl-2-(2-pyrimidinyl)phenyl]-;[(2<em>R</em>,5<em>R</em>)-5-[[(5-Fluoro-2-pyridinyl)oxy]methyl]-2-methyl-1-piperidinyl][5-methyl-2-(2-pyrimidinyl)phenyl]methanone;MK 6096;Filorexant",
    "duplicated_cas_no": "",
    "SMILES": "C(=O)(C1=C(C=CC(C)=C1)C=2N=CC=CN2)N3C[C@H](COC4=CC=C(F)C=N4)CC[C@H]3C",
    "meta_data": {
        "InChI": "InChI=1S/C24H25FN4O2/c1-16-4-8-20(23-26-10-3-11-27-23)21(12-16)24(30)29-14-18(6-5-17(29)2)15-31-22-9-7-19(25)13-28-22/h3-4,7-13,17-18H,5-6,14-15H2,1-2H3/t17-,18-/m1/s1",
        "InChIKey": null,
        "Canonical SMILES": "O=C(C=1C=C(C=CC1C2=NC=CC=N2)C)N3CC(COC4=NC=C(F)C=C4)CCC3C",
        "Molecular Formula": "C<sub>24</sub>H<sub>25</sub>FN<sub>4</sub>O<sub>2</sub>",
        "Molecular Mass": "420.48",
        "Melting Point": "134.8 °C"
    }
}