{
    "cas_no": "616-06-8",
    "key_name": "(±)-Norleucine",
    "cn_name": "DL-正亮氨酸;2-氨基己酸;",
    "alternate_name": "Norleucine;Norleucine, <span class=\"text-smallcaps\">DL</span>-;<span class=\"text-smallcaps\">DL</span>-Norleucine;<span class=\"text-smallcaps\">DL</span>-α-Aminocaproic acid;(±)-Norleucine;(±)-2-Aminohexanoic acid;NSC 203799;22: PN: WO2005055994 PAGE: 50 claimed protein;<span class=\"text-smallcaps\">D</smallcap>,<smallcap>L</span>-Norleucine;2-Amino-hexanoic acid;2-Aminohexanoic acid",
    "duplicated_cas_no": "",
    "SMILES": "C(C(O)=O)(CCCC)N",
    "meta_data": {
        "InChI": "InChI=1S/C6H13NO2/c1-2-3-4-5(7)6(8)9/h5H,2-4,7H2,1H3,(H,8,9)",
        "InChIKey": null,
        "Canonical SMILES": "O=C(O)C(N)CCCC",
        "Molecular Formula": "C<sub>6</sub>H<sub>13</sub>NO<sub>2</sub>",
        "Molecular Mass": "131.17",
        "Melting Point": "327 °C (decomp)"
    }
}