{
    "cas_no": "945016-63-7",
    "key_name": "3-(2-Chloro-4-pyrimidinyl)-1<em>H</em>-indole",
    "cn_name": null,
    "alternate_name": "1<em>H</em>-Indole, 3-(2-chloro-4-pyrimidinyl)-;3-(2-Chloro-4-pyrimidinyl)-1<em>H</em>-indole",
    "duplicated_cas_no": "",
    "SMILES": "ClC=1N=C(C=2C=3C(NC2)=CC=CC3)C=CN1",
    "meta_data": {
        "InChI": "InChI=1S/C12H8ClN3/c13-12-14-6-5-11(16-12)9-7-15-10-4-2-1-3-8(9)10/h1-7,15H",
        "InChIKey": null,
        "Canonical SMILES": "ClC=1N=CC=C(N1)C2=CNC=3C=CC=CC32",
        "Molecular Formula": "C<sub>12</sub>H<sub>8</sub>ClN<sub>3</sub>",
        "Molecular Mass": "229.66",
        "Melting Point": "157-158 °C (sublm)"
    }
}