{
    "cas_no": "626-61-9",
    "key_name": "4-Chloropyridine",
    "cn_name": "4-氯吡啶;",
    "alternate_name": "Pyridine, 4-chloro-;4-Chloropyridine;γ-Chloropyridine",
    "duplicated_cas_no": "",
    "SMILES": "ClC=1C=CN=CC1",
    "meta_data": {
        "InChI": "InChI=1S/C5H4ClN/c6-5-1-3-7-4-2-5/h1-4H",
        "InChIKey": null,
        "Canonical SMILES": "ClC=1C=CN=CC1",
        "Molecular Formula": "C<sub>5</sub>H<sub>4</sub>ClN",
        "Molecular Mass": "113.54",
        "Boiling Point": "147.5 °C",
        "Melting Point": "-43.5 °C"
    }
}