{
    "cas_no": "3764-87-2",
    "key_name": "MENT",
    "cn_name": "曲托龙;",
    "alternate_name": "Estr-4-en-3-one, 17-hydroxy-7-methyl-, (7α,17β)-;Estr-4-en-3-one, 17β-hydroxy-7α-methyl-;(7α,17β)-17-Hydroxy-7-methylestr-4-en-3-one;7α-Methyl-19-nortestosterone;Trestolone;19-Nor-7α-methyltestosterone;17β-Hydroxy-7α-methylestr-4-enone;7α-Methyl-17β-hydroxy-4-estren-3-one;7α-Methyl-3-oxo-4-estren-17β-ol;RU 27333;17β-Hydroxy-7α-methylestr-4-en-3-one;MENT;7α-Methylnandrolone;NSC 142229",
    "duplicated_cas_no": "",
    "SMILES": "C[C@H]1[C@@]2([C@@]([C@@]3(C(C1)=CC(=O)CC3)[H])(CC[C@@]4(C)[C@]2(CC[C@@H]4O)[H])[H])[H]",
    "meta_data": {
        "InChI": "InChI=1S/C19H28O2/c1-11-9-12-10-13(20)3-4-14(12)15-7-8-19(2)16(18(11)15)5-6-17(19)21/h10-11,14-18,21H,3-9H2,1-2H3/t11-,14+,15-,16+,17+,18-,19+/m1/s1",
        "InChIKey": null,
        "Canonical SMILES": "O=C1C=C2CC(C)C3C(CCC4(C)C(O)CCC34)C2CC1",
        "Molecular Formula": "C<sub>19</sub>H<sub>28</sub>O<sub>2</sub>",
        "Molecular Mass": "288.42",
        "Melting Point": "145-146 °C"
    }
}