{
    "cas_no": "50390-76-6",
    "key_name": "2-Methoxy-5-(methylsulfonyl)benzoic acid",
    "cn_name": "2-甲氧基-5-甲磺酰基苯甲酸;",
    "alternate_name": "Benzoic acid, 2-methoxy-5-(methylsulfonyl)-;2-Methoxy-5-(methylsulfonyl)benzoic acid;6-Methoxy-3-methylsulfonylbenzoic acid;5-Methylsulfonyl-2-methoxybenzoic acid;2-Methoxy-5-methylsulphonylbenzoic acid",
    "duplicated_cas_no": "",
    "SMILES": "C(O)(=O)C1=C(OC)C=CC(S(C)(=O)=O)=C1",
    "meta_data": {
        "InChI": "InChI=1S/C9H10O5S/c1-14-8-4-3-6(15(2,12)13)5-7(8)9(10)11/h3-5H,1-2H3,(H,10,11)",
        "InChIKey": null,
        "Canonical SMILES": "O=C(O)C1=CC(=CC=C1OC)S(=O)(=O)C",
        "Molecular Formula": "C<sub>9</sub>H<sub>10</sub>O<sub>5</sub>S",
        "Molecular Mass": "230.24",
        "Melting Point": "190 °C"
    }
}