{
    "cas_no": "7778-87-2",
    "key_name": "Propyl heptanoate",
    "cn_name": "庚酸丙酯;",
    "alternate_name": "Heptanoic acid, propyl ester;Propyl heptanoate;NSC 23045",
    "duplicated_cas_no": "",
    "SMILES": "C(C(OCCC)=O)CCCCC",
    "meta_data": {
        "InChI": "InChI=1S/C10H20O2/c1-3-5-6-7-8-10(11)12-9-4-2/h3-9H2,1-2H3",
        "InChIKey": null,
        "Canonical SMILES": "O=C(OCCC)CCCCCC",
        "Molecular Formula": "C<sub>10</sub>H<sub>20</sub>O<sub>2</sub>",
        "Molecular Mass": "172.26",
        "Boiling Point": "208 °C",
        "Melting Point": "-63.5 °C",
        "Density": "0.8823 g/cm³ @ Temp: 0 °C"
    }
}