{
    "cas_no": "26027-38-3",
    "key_name": "Polyethylene glycol mono(4-nonylphenyl) ether",
    "cn_name": null,
    "alternate_name": "Poly(oxy-1,2-ethanediyl), α-(4-nonylphenyl)-ω-hydroxy-;Glycols, polyethylene, mono(<em>p</em>-nonylphenyl) ether;Phenol, <em>p</em>-nonyl-, monoether with polyethylene glycol;α-(<em>p</em>-Nonylphenyl)-ω-hydroxypoly(oxyethylene);Polyethylene glycol <em>p</em>-nonylphenyl ether;Polyethylene glycol mono(<em>p</em>-nonylphenyl) ether;Tetra(oxyethylene), α-(4-nonylphenyl)-ω-hydroxy-;<em>p</em>-Nonylphenol-polyethylene glycol adduct;Ethoxylated <em>p</em>-nonyl phenol;Polyethylene glycol mono(4-nonylphenyl) ether;Nonoxynol;<em>p</em>-Nonylphenol polyethylene glycol ether;Rokafenol NX 8;Nonoxynol 13;Nonoxynol 6;Nonoxynol 14;Nonoxynol 10;Rokafenol N 25;Rokafenol N;Rokafenol N 10;Rokafenol N 8;Rokafenol N 4;Rokafenol N 5;Rokafenol N 14;Rokafenol N 6;Rexol 25/6;Polyethylene glycol 4-nonylphenyl monoether;Newcol 565;Bion NE 9;Nonoxynol 9;Rokafenol N 2;Rokafenol N 45;Delfen;Conceptrol;Encare oval;NOP 8;NOP 17;Egyptol;Koromex;Prevocell W-ON 100;Rokafenol N 3;Praewozell W-ON 100;N 100;Polyoxyethylene <em>p</em>-nonylphenyl ether;Gynol II;Iconol NP 100;Akyporox NP 150;Liponox NCY;PEG <em>p</em>-nonylphenyl ether;W-ON 100;Polyethylene glycol-10 <em>p</em>-nonylphenol ether;<em>p</em>-Nonylphenyl polyoxyethylene ether;Pannox 16;Pannox 18;Pannox 110;Pannox 111;Pannox 116;Pannox 140;Pannox 150;NP 8.5;Polyoxyethylene mono-<em>p</em>-nonylphenyl ether;Poly(oxyethylene)-4-nonylphenyl ether;Nonoxynol 8.5;Imbetin N 7A;APSA 80;Amway All Purpose Spray Adjuvant;Amway APSA 80;Hyoxyd X 400;Nonoxynol 15;Monopol NP 1013;Monopol NP 1060;<em>p</em>-Nonylphenol decaethylene glycol ether;Decaethylene glycol mono(<em>p</em>-nonylphenyl) ether;4-Nonylphenol decaglycol ether;Decaethylene glycol <em>p</em>-nonylphenyl ether;Advantage 24;PONPE 7.5;Rexol 25/1;Prevocell N 9;PONPE 10;PONPE 15;PONPE 20;Cremophor NP 10;Cremophor NP 14;Polyethylene glycol <em>p</em>-nonylphenyl monoether;Emulan 30;Emulan 40;Rokafenol N 705;Hyoxyd X 200;Hyoxyd X 100;K-Y Plus;Nonoxynol 100;Nonoxynol 12;C-Film;Intercept;Today Sponge;Semicid;Staycept;Conco NI 90;Neutronyx 611;Encare;Findet 9Q21.5;COL 1492;Nonal 204;Nonal 202;Nonal 106;Rokafenol N 9;Emulsogen ELN;Rokafenol N 7;4-Nonylphenol polyethoxylate;Rokafenol N 22;NP 1060;Polyoxyethylene mono(4-nonylphenyl) ether;IKD;Advantage S (spermicide);Advantage S;Tergitol NP 50;Coulter Dispersant IC;Sympatens NP 090;NP 40;APEO 7;APEO 10",
    "duplicated_cas_no": "9002-95-3;12612-63-4;27942-26-3;28776-15-0;29319-48-0;34149-89-8;37330-04-4;39042-04-1;52440-21-8;52440-22-9;55247-80-8;56214-26-7;58339-76-7;68858-84-4;69154-14-9;70025-66-0;78009-08-2;86243-62-1;86727-29-9;96827-50-8;96827-63-3;99550-41-1;100777-03-5;102735-76-2;113595-38-3;117989-54-5;120038-12-2;124401-72-5;131160-29-7;135229-74-2;190386-13-1;195065-75-9;204842-55-7;226924-41-0;374934-72-2;1338788-01-4",
    "SMILES": "",
    "meta_data": {
        "InChI": "",
        "InChIKey": null,
        "Canonical SMILES": "",
        "Molecular Formula": "(C<sub>2</sub>H<sub>4</sub>O)<sub>n</sub>C<sub>15</sub>H<sub>24</sub>O",
        "Molecular Mass": "",
        "Boiling Point": "30 °C"
    }
}