{
    "cas_no": "17484-36-5",
    "key_name": "4-Methoxy-1-methyl-2-nitrobenzene",
    "cn_name": "4-甲基-3-硝基苯甲醚;3-硝基-4-甲基苯甲醚;",
    "alternate_name": "Benzene, 4-methoxy-1-methyl-2-nitro-;Anisole, 4-methyl-3-nitro-;4-Methoxy-1-methyl-2-nitrobenzene;4-Methyl-3-nitroanisole;4-Methoxy-2-nitrotoluene;2-Nitro-4-methoxytoluene;3-Nitro-4-methylanisole",
    "duplicated_cas_no": "",
    "SMILES": "N(=O)(=O)C1=CC(OC)=CC=C1C",
    "meta_data": {
        "InChI": "InChI=1S/C8H9NO3/c1-6-3-4-7(12-2)5-8(6)9(10)11/h3-5H,1-2H3",
        "InChIKey": null,
        "Canonical SMILES": "O=N(=O)C1=CC(OC)=CC=C1C",
        "Molecular Formula": "C<sub>8</sub>H<sub>9</sub>NO<sub>3</sub>",
        "Molecular Mass": "167.16",
        "Boiling Point": "266.5 °C",
        "Melting Point": "17 °C"
    }
}