{
    "cas_no": "29307-03-7",
    "key_name": "Deoxyelephantopin",
    "cn_name": null,
    "alternate_name": "2-Propenoic acid, 2-methyl-, (3a<em>R</em>,4<em>S</em>,9<em>R</em>,11<em>E</em>,12a<em>R</em>)-2,3,3a,4,5,9,10,12a-octahydro-11-methyl-3-methylene-2,7-dioxo-7<em>H</em>-9,6-methenofuro[2,3-<em>f</em>]oxacycloundecin-4-yl ester;Germacra-1(10),4,11(13)-triene-12,14-dioic acid, 2β,6α,8α-trihydroxy-, 12,6:14,2-dilactone, methacrylate, (<em>E</em>)-;2-Propenoic acid, 2-methyl-, 2,3,3a,4,5,9,10,12a-octahydro-11-methyl-3-methylene-2,7-dioxo-7<em>H</em>-9,6-methenofuro[2,3-<em>f</em>]oxacycloundecin-4-yl ester, [3a<em>R</em>-(3a<em>R</em>*,4<em>S</em>*,9<em>R</em>*,11<em>E</em>,12a<em>R</em>*)]-;Methacrylic acid, 8-ester with 2β,6α,8α-trihydroxygermacra-1(10),4,11(13)-triene-12,14-dioic acid di-γ-lactone, (<em>E</em>)-;7<em>H</em>-9,6-Methenofuro[2,3-<em>f</em>]oxacycloundecin, 2-propenoic acid deriv.;Elephantopin, deoxy-;Deoxyelephantopin;NSC 259726;11-Methyl-3-methylene-2,7-dioxo-3,3a,4,5,7,9,10,12a-octahydro-2<em>H</em>-6,9-(metheno)furo[2,3-<em>f</em>][1]oxacycloundecin-4-yl methacrylate",
    "duplicated_cas_no": "",
    "SMILES": "",
    "meta_data": {
        "InChI": "",
        "InChIKey": null,
        "Canonical SMILES": "",
        "Molecular Formula": "C<sub>19</sub>H<sub>20</sub>O<sub>6</sub>",
        "Molecular Mass": "344.36",
        "Melting Point": "198-200 °C"
    }
}