{
    "cas_no": "3141-25-1",
    "key_name": "2,3,4-Tribromothiophene",
    "cn_name": "2,3,4-三溴噻吩;",
    "alternate_name": "Thiophene, 2,3,4-tribromo-;2,3,4-Tribromothiophene",
    "duplicated_cas_no": "",
    "SMILES": "BrC=1C(Br)=CSC1Br",
    "meta_data": {
        "InChI": "InChI=1S/C4HBr3S/c5-2-1-8-4(7)3(2)6/h1H",
        "InChIKey": null,
        "Canonical SMILES": "BrC=1SC=C(Br)C1Br",
        "Molecular Formula": "C<sub>4</sub>HBr<sub>3</sub>S",
        "Molecular Mass": "320.83",
        "Boiling Point": "132-134 °C @ Press: 10 Torr",
        "Melting Point": "43-46 °C"
    }
}