{
    "cas_no": "70097-64-2",
    "key_name": "1-(Phenylmethoxy)-3-(trifluoromethyl)benzene",
    "cn_name": null,
    "alternate_name": "Benzene, 1-(phenylmethoxy)-3-(trifluoromethyl)-;1-(Phenylmethoxy)-3-(trifluoromethyl)benzene;1-Trifluoromethyl-3-(phenylmethoxy)benzene;1-(Benzyloxy)-3-(trifluoromethyl)benzene;1-Benzyloxy-3-trifluoromethylbenzene;Benzyl 3-(trifluoromethyl)phenyl ether",
    "duplicated_cas_no": "",
    "SMILES": "O(CC1=CC=CC=C1)C2=CC(C(F)(F)F)=CC=C2",
    "meta_data": {
        "InChI": "InChI=1S/C14H11F3O/c15-14(16,17)12-7-4-8-13(9-12)18-10-11-5-2-1-3-6-11/h1-9H,10H2",
        "InChIKey": null,
        "Canonical SMILES": "FC(F)(F)C=1C=CC=C(OCC=2C=CC=CC2)C1",
        "Molecular Formula": "C<sub>14</sub>H<sub>11</sub>F<sub>3</sub>O",
        "Molecular Mass": "252.23",
        "Melting Point": "62-64 °C"
    }
}