{
    "cas_no": "2876-78-0",
    "key_name": "Methyl 1-naphthylacetate",
    "cn_name": null,
    "alternate_name": "1-Naphthaleneacetic acid, methyl ester;Methyl α-naphthylacetate;Methyl 1-naphthylacetate;Hormonit;Methyl 1-naphthaleneacetate;Kartofin;α-Naphthaleneacetic acid methyl ester;α-Naphthylacetic acid methyl ester;M 1 (growth regulator);M 1;Methyl α-naphthaleneacetate;NSC 122030;Methyl 1-naphthalenylacetate",
    "duplicated_cas_no": "",
    "SMILES": "C(C(OC)=O)C=1C2=C(C=CC1)C=CC=C2",
    "meta_data": {
        "InChI": "InChI=1S/C13H12O2/c1-15-13(14)9-11-7-4-6-10-5-2-3-8-12(10)11/h2-8H,9H2,1H3",
        "InChIKey": null,
        "Canonical SMILES": "O=C(OC)CC1=CC=CC=2C=CC=CC21",
        "Molecular Formula": "C<sub>13</sub>H<sub>12</sub>O<sub>2</sub>",
        "Molecular Mass": "200.23",
        "Boiling Point": "103 °C @ Press: 2 Torr",
        "Melting Point": "143-144 °C",
        "Density": "1.1459 g/cm³ @ Temp: 20 °C"
    }
}