{
    "cas_no": "3397-65-7",
    "key_name": "<em>N</em>-Lauroyl-<span class=\"text-smallcaps\">L</span>-glutamic acid",
    "cn_name": "N-(1-氧代十二烷基)-L-谷氨酸(9CI);N-(1-氧代十二烷基)-L-谷氨酸(9CI);",
    "alternate_name": "<span class=\"text-smallcaps\">L</span>-Glutamic acid, <em>N</em>-(1-oxododecyl)-;Glutamic acid, <em>N</em>-lauroyl-, <span class=\"text-smallcaps\">L</span>-;Glutamic acid, <em>N</em>-lauroyl-;<em>N</em>-(1-Oxododecyl)-<span class=\"text-smallcaps\">L</span>-glutamic acid;<em>N</em>-Lauroylglutamic acid;<em>N</em>-Lauroyl-<span class=\"text-smallcaps\">L</span>-glutamic acid;Lauroylglutamic acid;Amisoft LA;NSC 522180;<em>N</em>-Dodecanoyl-<span class=\"text-smallcaps\">L</span>-glutamic acid;(2S)-2-(Dodecanoylamino)pentanedioic acid",
    "duplicated_cas_no": "141052-52-0;36728-06-0;179799-63-4;258525-04-1",
    "SMILES": "[C@H](NC(CCCCCCCCCCC)=O)(CCC(O)=O)C(O)=O",
    "meta_data": {
        "InChI": "InChI=1S/C17H31NO5/c1-2-3-4-5-6-7-8-9-10-11-15(19)18-14(17(22)23)12-13-16(20)21/h14H,2-13H2,1H3,(H,18,19)(H,20,21)(H,22,23)/t14-/m0/s1",
        "InChIKey": null,
        "Canonical SMILES": "O=C(O)CCC(NC(=O)CCCCCCCCCCC)C(=O)O",
        "Molecular Formula": "C<sub>17</sub>H<sub>31</sub>NO<sub>5</sub>",
        "Molecular Mass": "329.43",
        "Melting Point": "95-96 °C"
    }
}