{
    "cas_no": "54373-15-8",
    "key_name": "4-(2-Chloroethoxy)benzaldehyde",
    "cn_name": null,
    "alternate_name": "Benzaldehyde, 4-(2-chloroethoxy)-;Benzaldehyde, <em>p</em>-(2-chloroethoxy)-;4-(2-Chloroethoxy)benzaldehyde;<em>p</em>-(2-Chloroethoxy)benzaldehyde",
    "duplicated_cas_no": "",
    "SMILES": "O(CCCl)C1=CC=C(C=O)C=C1",
    "meta_data": {
        "InChI": "InChI=1S/C9H9ClO2/c10-5-6-12-9-3-1-8(7-11)2-4-9/h1-4,7H,5-6H2",
        "InChIKey": null,
        "Canonical SMILES": "O=CC1=CC=C(OCCCl)C=C1",
        "Molecular Formula": "C<sub>9</sub>H<sub>9</sub>ClO<sub>2</sub>",
        "Molecular Mass": "184.62",
        "Boiling Point": "138-142 °C @ Press: 2 Torr",
        "Melting Point": "31 °C",
        "Density": "1.2246 g/cm³ @ Temp: 25 °C"
    }
}