{
    "cas_no": "93457-07-9",
    "key_name": "1-(2,4-Dichlorophenyl)-2-propanone",
    "cn_name": "2,4-二氯苯基丙酮;",
    "alternate_name": "2-Propanone, 1-(2,4-dichlorophenyl)-;2-Propanone, (2,4-dichlorophenyl)-;1-(2,4-Dichlorophenyl)-2-propanone;2,4-Dichlorophenylacetone",
    "duplicated_cas_no": "",
    "SMILES": "C(C(C)=O)C1=C(Cl)C=C(Cl)C=C1",
    "meta_data": {
        "InChI": "InChI=1S/C9H8Cl2O/c1-6(12)4-7-2-3-8(10)5-9(7)11/h2-3,5H,4H2,1H3",
        "InChIKey": null,
        "Canonical SMILES": "O=C(C)CC1=CC=C(Cl)C=C1Cl",
        "Molecular Formula": "C<sub>9</sub>H<sub>8</sub>Cl<sub>2</sub>O",
        "Molecular Mass": "203.07",
        "Boiling Point": "73-78 °C @ Press: 0.07 Torr"
    }
}