{
    "cas_no": "465-11-2",
    "key_name": "Gamabufotalin",
    "cn_name": "日本蟾蜍毒苷元;日蟾蜍他灵;和蟾蜍他;",
    "alternate_name": "Bufa-20,22-dienolide, 3,11,14-trihydroxy-, (3β,5β,11α)-;Gamabufotalin;5β-Bufa-20,22-dienolide, 3β,11α,14-trihydroxy-;(3β,5β,11α)-3,11,14-Trihydroxybufa-20,22-dienolide;Gamabufagin;Gamabufogenin;Gammabufotalin;NSC 90384",
    "duplicated_cas_no": "",
    "SMILES": "C[C@@]12[C@@](O)([C@]3([C@]([C@H](O)C1)([C@]4(C)[C@](CC3)(C[C@@H](O)CC4)[H])[H])[H])CC[C@@H]2C=5C=CC(=O)OC5",
    "meta_data": {
        "InChI": "InChI=1S/C24H34O5/c1-22-9-7-16(25)11-15(22)4-5-18-21(22)19(26)12-23(2)17(8-10-24(18,23)28)14-3-6-20(27)29-13-14/h3,6,13,15-19,21,25-26,28H,4-5,7-12H2,1-2H3/t15-,16+,17-,18-,19-,21-,22+,23-,24+/m1/s1",
        "InChIKey": null,
        "Canonical SMILES": "O=C1OC=C(C=C1)C2CCC3(O)C4CCC5CC(O)CCC5(C)C4C(O)CC23C",
        "Molecular Formula": "C<sub>24</sub>H<sub>34</sub>O<sub>5</sub>",
        "Molecular Mass": "402.52",
        "Melting Point": "254 °C"
    }
}