{
    "cas_no": "999-72-4",
    "key_name": "3,3′-Dithiobis[<em>N</em>-methylpropanamide]",
    "cn_name": "3,3\"-二硫代二丙酰甲胺;",
    "alternate_name": "Propanamide, 3,3′-dithiobis[<em>N</em>-methyl-;Propionamide, 3,3′-dithiobis[<em>N</em>-methyl-;3,3′-Dithiobis[<em>N</em>-methylpropanamide];<em>N</em>,<em>N</em>′-Dimethyl-3,3′-dithiodipropionamide",
    "duplicated_cas_no": "89923-67-1",
    "SMILES": "C(CCSSCCC(NC)=O)(NC)=O",
    "meta_data": {
        "InChI": "InChI=1S/C8H16N2O2S2/c1-9-7(11)3-5-13-14-6-4-8(12)10-2/h3-6H2,1-2H3,(H,9,11)(H,10,12)",
        "InChIKey": null,
        "Canonical SMILES": "O=C(NC)CCSSCCC(=O)NC",
        "Molecular Formula": "C<sub>8</sub>H<sub>16</sub>N<sub>2</sub>O<sub>2</sub>S<sub>2</sub>",
        "Molecular Mass": "236.35",
        "Melting Point": "111-112 °C"
    }
}