{
    "cas_no": "187235-37-6",
    "key_name": "PA 824",
    "cn_name": null,
    "alternate_name": "5<em>H</em>-Imidazo[2,1-<em>b</em>][1,3]oxazine, 6,7-dihydro-2-nitro-6-[[4-(trifluoromethoxy)phenyl]methoxy]-, (6<em>S</em>)-;5<em>H</em>-Imidazo[2,1-<em>b</em>][1,3]oxazine, 6,7-dihydro-2-nitro-6-[[4-(trifluoromethoxy)phenyl]methoxy]-, (<em>S</em>)-;(6<em>S</em>)-6,7-Dihydro-2-nitro-6-[[4-(trifluoromethoxy)phenyl]methoxy]-5<em>H</em>-imidazo[2,1-<em>b</em>][1,3]oxazine;PA 824;(<em>S</em>)-PA 824;Pretomanid;(<em>S</em>)-6-[[4-(Trifluoromethoxy)benzyl]oxy]-6,7-dihydro-2-nitro-5<em>H</em>-imidazo[2,1-<em>b</em>][1,3]oxazine;(<em>S</em>)-2-Nitro-6-((4-(trifluoromethoxy)benzyl)oxy)-6,7-dihydro-5<em>H</em>-imidazo[2,1-<em>b</em>][1,3]oxazine;(6S)-2-Nitro-6-[[4-(trifluoromethoxy)phenyl]methoxy]-6,7-dihydro-5<em>H</em>-imidazo[2,1-<em>b</em>][1,3]oxazine",
    "duplicated_cas_no": "",
    "SMILES": "N(=O)(=O)C1=CN2C(=N1)OC[C@@H](OCC3=CC=C(OC(F)(F)F)C=C3)C2",
    "meta_data": {
        "InChI": "InChI=1S/C14H12F3N3O5/c15-14(16,17)25-10-3-1-9(2-4-10)7-23-11-5-19-6-12(20(21)22)18-13(19)24-8-11/h1-4,6,11H,5,7-8H2/t11-/m0/s1",
        "InChIKey": null,
        "Canonical SMILES": "O=N(=O)C=1N=C2OCC(OCC3=CC=C(OC(F)(F)F)C=C3)CN2C1",
        "Molecular Formula": "C<sub>14</sub>H<sub>12</sub>F<sub>3</sub>N<sub>3</sub>O<sub>5</sub>",
        "Molecular Mass": "359.26",
        "Melting Point": "149-150 °C"
    }
}