{
    "cas_no": "537-98-4",
    "key_name": "<em>trans</em>-Ferulic acid",
    "cn_name": "反式阿魏酸;反式4-羟基-3-甲氧基肉桂酸;4-羟基-3-甲氧基苯丙烯酸;",
    "alternate_name": "2-Propenoic acid, 3-(4-hydroxy-3-methoxyphenyl)-, (2<em>E</em>)-;Cinnamic acid, 4-hydroxy-3-methoxy-, (<em>E</em>)-;2-Propenoic acid, 3-(4-hydroxy-3-methoxyphenyl)-, (<em>E</em>)-;(2<em>E</em>)-3-(4-Hydroxy-3-methoxyphenyl)-2-propenoic acid;<em>trans</em>-Ferulic acid;(<em>E</em>)-4-Hydroxy-3-methoxycinnamic acid;<em>trans</em>-4-Hydroxy-3-methoxycinnamic acid;(<em>E</em>)-3-(4-Hydroxy-3-methoxyphenyl)-2-propenoic acid;(<em>E</em>)-Ferulic acid;(2E)-3-(4-Hydroxy-3-methoxyphenyl)-2-propenoic acid;(2<em>E</em>)-3-(4-Hydroxy-3-methoxyphenyl)-2-acrylic acid;(2<em>E</em>)-3-(4-Hydroxy-3-methoxyphenyl)prop-2-enoic acid;Fumalic acid;(E)-3-(4-Hydroxy-3-methoxyphenyl)acrylic acid;(<em>E</em>)-3-(4-Hydroxy-3-methoxyphenyl)acrylic acid;TCI-CA 01",
    "duplicated_cas_no": "",
    "SMILES": "C(=C/C(O)=O)\\C1=CC(OC)=C(O)C=C1",
    "meta_data": {
        "InChI": "InChI=1S/C10H10O4/c1-14-9-6-7(2-4-8(9)11)3-5-10(12)13/h2-6,11H,1H3,(H,12,13)/b5-3+",
        "InChIKey": null,
        "Canonical SMILES": "O=C(O)C=CC1=CC=C(O)C(OC)=C1",
        "Molecular Formula": "C<sub>10</sub>H<sub>10</sub>O<sub>4</sub>",
        "Molecular Mass": "194.18",
        "Melting Point": "169-170 °C"
    }
}