{
    "cas_no": "60835-75-8",
    "key_name": "4′-Carboxybenzo-18-crown-6",
    "cn_name": "4-碳酸苯并-18-冠醚-6;",
    "alternate_name": "1,4,7,10,13,16-Benzohexaoxacyclooctadecin-18-carboxylic acid, 2,3,5,6,8,9,11,12,14,15-decahydro-;2,3,5,6,8,9,11,12,14,15-Decahydro-1,4,7,10,13,16-benzohexaoxacyclooctadecin-18-carboxylic acid;4′-Carboxybenzo-18-crown-6;2,3,5,6,8,9,11,12,14,15-decahydro-1,4,7,10,13,16-benzohexaoxacyclooctadecin-18-carboxylic acid;2,5,8,11,14,17-Hexaoxabicyclo[16.4.0]docosa-1(18),19,21-triene-20-carboxylic acid",
    "duplicated_cas_no": "",
    "SMILES": "C(O)(=O)C=1C=C2C(=CC1)OCCOCCOCCOCCOCCO2",
    "meta_data": {
        "InChI": "InChI=1S/C17H24O8/c18-17(19)14-1-2-15-16(13-14)25-12-10-23-8-6-21-4-3-20-5-7-22-9-11-24-15/h1-2,13H,3-12H2,(H,18,19)",
        "InChIKey": null,
        "Canonical SMILES": "O=C(O)C1=CC=C2OCCOCCOCCOCCOCCOC2=C1",
        "Molecular Formula": "C<sub>17</sub>H<sub>24</sub>O<sub>8</sub>",
        "Molecular Mass": "356.37",
        "Melting Point": "111 °C"
    }
}