{
    "cas_no": "114108-86-0",
    "key_name": "2-(Chloromethyl)-4,6-dimethoxypyrimidine",
    "cn_name": "2-(氯甲基)-4,6-二甲氧基嘧啶;",
    "alternate_name": "Pyrimidine, 2-(chloromethyl)-4,6-dimethoxy-;2-(Chloromethyl)-4,6-dimethoxypyrimidine",
    "duplicated_cas_no": "",
    "SMILES": "O(C)C=1C=C(OC)N=C(CCl)N1",
    "meta_data": {
        "InChI": "InChI=1S/C7H9ClN2O2/c1-11-6-3-7(12-2)10-5(4-8)9-6/h3H,4H2,1-2H3",
        "InChIKey": null,
        "Canonical SMILES": "ClCC1=NC(OC)=CC(=N1)OC",
        "Molecular Formula": "C<sub>7</sub>H<sub>9</sub>ClN<sub>2</sub>O<sub>2</sub>",
        "Molecular Mass": "188.61",
        "Melting Point": "40-42 °C"
    }
}