{
    "cas_no": "18680-27-8",
    "key_name": "(+)-Pinanediol",
    "cn_name": "(1S,2S,3R,5S)-(+)-2,3-蒎烷二醇;(1S-(1alpha,2alpha,3alpha,5alpha))-2,6,6-三甲基双环[3.3.1]庚烷-2,3-二;",
    "alternate_name": "Bicyclo[3.1.1]heptane-2,3-diol, 2,6,6-trimethyl-, (1<em>S</em>,2<em>S</em>,3<em>R</em>,5<em>S</em>)-;2,3-Pinanediol, (1<em>S</em>,2<em>S</em>,3<em>R</em>,5<em>S</em>)-(+)-;Bicyclo[3.1.1]heptane-2,3-diol, 2,6,6-trimethyl-, [1<em>S</em>-(1α,2α,3α,5α)]-;(1<em>S</em>,2<em>S</em>,3<em>R</em>,5<em>S</em>)-2,6,6-Trimethylbicyclo[3.1.1]heptane-2,3-diol;2α,3α-Pinanediol;(1<em>S</em>,2<em>S</em>,3<em>R</em>,5<em>S</em>)-(+)-Pinanediol;(1<em>S</em>,2<em>S</em>,3<em>R</em>,5<em>S</em>)-(+)-Pinane-2,3-diol;(1<em>S</em>,2<em>S</em>,3<em>R</em>,5<em>S</em>)-2,3-Pinanediol;(+)-Pinanediol;(1<em>S</em>,2<em>S</em>,3<em>R</em>,5<em>S</em>)-(+)-2,6,6-Trimethylbicyclo[3.1.1]heptane-2,3-diol;(1S,2S,5S)-2,6,6-Trimethylbicyclo[3.1.1]heptane-2,3-diol",
    "duplicated_cas_no": "1860831-78-2",
    "SMILES": "CC1(C)[C@@]2(C[C@]1(C[C@@H](O)[C@@]2(C)O)[H])[H]",
    "meta_data": {
        "InChI": "InChI=1S/C10H18O2/c1-9(2)6-4-7(9)10(3,12)8(11)5-6/h6-8,11-12H,4-5H2,1-3H3/t6-,7-,8+,10-/m0/s1",
        "InChIKey": null,
        "Canonical SMILES": "OC1CC2CC(C1(O)C)C2(C)C",
        "Molecular Formula": "C<sub>10</sub>H<sub>18</sub>O<sub>2</sub>",
        "Molecular Mass": "170.25",
        "Melting Point": "53-56 °C"
    }
}