{
    "cas_no": "41995-31-7",
    "key_name": "2-Amino-3-ethyl-6-methylpyridine",
    "cn_name": "2-氨基-3-乙基-6-甲基吡啶;",
    "alternate_name": "2-Pyridinamine, 3-ethyl-6-methyl-;2-Picoline, 6-amino-5-ethyl-;3-Ethyl-6-methyl-2-pyridinamine;3-Ethyl-6-methyl-2-aminopyridine;2-Amino-3-ethyl-6-methylpyridine",
    "duplicated_cas_no": "",
    "SMILES": "C(C)C1=C(N)N=C(C)C=C1",
    "meta_data": {
        "InChI": "InChI=1S/C8H12N2/c1-3-7-5-4-6(2)10-8(7)9/h4-5H,3H2,1-2H3,(H2,9,10)",
        "InChIKey": null,
        "Canonical SMILES": "N=1C(N)=C(C=CC1C)CC",
        "Molecular Formula": "C<sub>8</sub>H<sub>12</sub>N<sub>2</sub>",
        "Molecular Mass": "136.19",
        "Boiling Point": "82-88 °C @ Press: 0.5 Torr",
        "Melting Point": "48 °C"
    }
}