{
    "cas_no": "30525-89-4",
    "key_name": "Paraformaldehyde",
    "cn_name": null,
    "alternate_name": "Paraformaldehyde;Flo-Mor;Paraform;Aldacide;TransFix;Granuform;PFA;Granuform 96;WANPFA 92;Granuform M;Granuform 91;Polyformaldehyde",
    "duplicated_cas_no": "53026-80-5;104512-58-5;104512-63-2;104814-22-4;1417997-02-4",
    "SMILES": "C=O",
    "meta_data": {
        "InChI": "InChI=1S/CH2O/c1-2/h1H2",
        "InChIKey": null,
        "Canonical SMILES": "O=C",
        "Molecular Formula": "(CH<sub>2</sub>O)<sub>x</sub>",
        "Molecular Mass": "",
        "Boiling Point": "135-136 °C @ Press: 13 Torr",
        "Melting Point": "164 °C (decomp)",
        "Density": "1.46 g/cm³"
    }
}