{
    "cas_no": "23778-52-1",
    "key_name": "2,5,8,11,14-Pentaoxahexadecan-16-ol",
    "cn_name": "2,5,8,11,14-五氧杂-16-十六烷醇;",
    "alternate_name": "3,6,9,12,15-Pentaoxahexadecan-1-ol;2,5,8,11,14-Pentaoxahexadecan-16-ol;Ethanol, 2-[2-[2-[2-(2-methoxyethoxy)ethoxy]ethoxy]ethoxy]-;Pentaethylene glycol, monomethyl ether;3,6,9,12,15-Pentaoxahexadecanol;Pentaethylene glycol methyl ether;Methoxypentaethylene glycol;2-[2-[2-[2-(2-Methoxyethoxy)ethoxy]ethoxy]ethoxy]ethanol",
    "duplicated_cas_no": "",
    "SMILES": "C(COCCOCCO)OCCOCCOC",
    "meta_data": {
        "InChI": "InChI=1S/C11H24O6/c1-13-4-5-15-8-9-17-11-10-16-7-6-14-3-2-12/h12H,2-11H2,1H3",
        "InChIKey": null,
        "Canonical SMILES": "OCCOCCOCCOCCOCCOC",
        "Molecular Formula": "C<sub>11</sub>H<sub>24</sub>O<sub>6</sub>",
        "Molecular Mass": "252.30",
        "Boiling Point": "110 °C @ Press: 0.01 Torr"
    }
}