{
    "cas_no": "1476-39-7",
    "key_name": "1,5-Diaminopentane dihydrochloride",
    "cn_name": "尸胺二盐酸;1,5-戊二胺盐酸盐;",
    "alternate_name": "1,5-Pentanediamine, hydrochloride (1:2);1,5-Pentanediamine, dihydrochloride;Cadaverine dihydrochloride;Pentamethylenediamine dihydrochloride;1,5-Diaminopentane dihydrochloride;1,5-Pentanediammonium dichloride;Cadaverine hydrochloride;Cadaverinium dichloride;Cadeverine dihydrochloride",
    "duplicated_cas_no": "35408-57-2",
    "SMILES": "C(CCN)CCN.Cl",
    "meta_data": {
        "InChI": "InChI=1S/C5H14N2.2ClH/c6-4-2-1-3-5-7;;/h1-7H2;2*1H",
        "InChIKey": null,
        "Canonical SMILES": "Cl.NCCCCCN",
        "Molecular Formula": "C<sub>5</sub>H<sub>14</sub>N<sub>2</sub>.2ClH",
        "Molecular Mass": "",
        "Melting Point": "255 °C"
    }
}