{
    "cas_no": "427-51-0",
    "key_name": "Cyproterone acetate",
    "cn_name": "醋酸环丙氯地孕酮;环丙氯地孕酮醋酸酯;",
    "alternate_name": "3′<em>H</em>-Cyclopropa[1,2]pregna-1,4,6-triene-3,20-dione, 17-(acetyloxy)-6-chloro-1,2-dihydro-, (1β,2β)-;3′<em>H</em>-Cyclopropa[1,2]pregna-1,4,6-triene-3,20-dione, 6-chloro-1β,2β-dihydro-17-hydroxy-, acetate;Pregna-4,6-diene-3,20-dione, 6-chloro-17-hydroxy-1α,2α-methylene-, acetate;Cyclopropa[1,2]cyclopenta[<em>a</em>]phenanthrene, 3′<em>H</em>-cyclopropa[1,2]pregna-1,4,6-triene-3,20-dione deriv.;(1β,2β)-17-(Acetyloxy)-6-chloro-1,2-dihydro-3′<em>H</em>-cyclopropa[1,2]pregna-1,4,6-triene-3,20-dione;SH 714;17α-Acetoxy-6-chloro-1α,2α-methylenepregna-4,6-diene-3,20-dione;6-Chloro-1,2α-methylene-6-dehydro-17α-hydroxyprogesterone acetate;6-Chloro-17-hydroxy-1α,2α-methylenepregna-4,6-diene-3,20-dione acetate;6-Chloro-1,2α-methylene-17α-hydroxy-Δ<sup>6</sup>-progesterone acetate;Cyproterone acetate;1,2α-Methylene-6-chloro-pregna-4,6-diene-3,20-dione 17α-acetate;1,2α-Methylene-6-chloro-Δ<sup>4,6</sup>-pregnadien-17α-ol-3,20-dione acetate;Cyproterone 17α-acetate;3′<em>H</em>-Cyclopropa[1,2]pregna-1,4,6-triene-3,20-dione;Cyproterone 17-<em>O</em>-acetate;1,2α-Methylene-6-chloro-17α-acetoxy-4,6-pregnadiene-3,20-dione;Androcur;Cyproviron;Cyprostat;CPA;NSC 81430;Androcur Depot;MeSH ID: D017373",
    "duplicated_cas_no": "",
    "SMILES": "C[C@]12[C@@]3([C@@](C3)(C(=O)C=C1C(Cl)=C[C@@]4([C@@]2(CC[C@@]5(C)[C@]4(CC[C@]5(OC(C)=O)C(C)=O)[H])[H])[H])[H])[H]",
    "meta_data": {
        "InChI": "InChI=1S/C24H29ClO4/c1-12(26)24(29-13(2)27)8-6-16-14-10-20(25)19-11-21(28)15-9-18(15)23(19,4)17(14)5-7-22(16,24)3/h10-11,14-18H,5-9H2,1-4H3/t14-,15+,16-,17-,18-,22-,23-,24-/m0/s1",
        "InChIKey": null,
        "Canonical SMILES": "O=C(OC1(C(=O)C)CCC2C3C=C(Cl)C4=CC(=O)C5CC5C4(C)C3CCC21C)C",
        "Molecular Formula": "C<sub>24</sub>H<sub>29</sub>ClO<sub>4</sub>",
        "Molecular Mass": "416.94",
        "Melting Point": "200-201 °C"
    }
}