{
    "cas_no": "4342-36-3",
    "key_name": "Tributyltin benzoate",
    "cn_name": "苯酸三丁基锡;",
    "alternate_name": "Benzoic acid, tributylstannyl ester;Stannane, (benzoyloxy)tributyl-;Tributyltin benzoate;Tin, (benzoyloxy)tributyl-;Tri-<em>n</em>-butyltin benzoate;Tributylstannyl benzoate;(Benzoyloxy)tributyltin;NSC 221308;(Benzoyloxy)tributylstannane;Fungitrol 158",
    "duplicated_cas_no": "158707-50-7",
    "SMILES": "[Sn](OC(=O)C1=CC=CC=C1)(CCCC)(CCCC)CCCC",
    "meta_data": {
        "InChI": "InChI=1S/C7H6O2.3C4H9.Sn/c8-7(9)6-4-2-1-3-5-6;3*1-3-4-2;/h1-5H,(H,8,9);3*1,3-4H2,2H3;/q;;;;+1/p-1",
        "InChIKey": null,
        "Canonical SMILES": "O=C(O[Sn](CCCC)(CCCC)CCCC)C=1C=CC=CC1",
        "Molecular Formula": "C<sub>19</sub>H<sub>32</sub>O<sub>2</sub>Sn",
        "Molecular Mass": "411.17",
        "Boiling Point": "167 °C",
        "Density": "1.1926 g/cm³ @ Temp: 20 °C"
    }
}