{
    "cas_no": "88-89-1",
    "key_name": "Picric acid",
    "cn_name": "苦味酸;2,4,6-三硝基苯酚;",
    "alternate_name": "Phenol, 2,4,6-trinitro-;Picric acid;2,4,6-Trinitrophenol;C.I. 10305;Carbazotic acid;Nitroxanthic acid;Picronitric acid;Trinitrophenol;Melinite;Picral;1-Hydroxy-2,4,6-trinitrobenzene;NSC 36947;NSC 56147;MeSH ID: D010851",
    "duplicated_cas_no": "29663-11-4;856615-63-9;856993-13-0;857370-42-4;189195-39-9;190402-10-9",
    "SMILES": "N(=O)(=O)C1=C(O)C(N(=O)=O)=CC(N(=O)=O)=C1",
    "meta_data": {
        "InChI": "InChI=1S/C6H3N3O7/c10-6-4(8(13)14)1-3(7(11)12)2-5(6)9(15)16/h1-2,10H",
        "InChIKey": null,
        "Canonical SMILES": "O=N(=O)C=1C=C(C(O)=C(C1)N(=O)=O)N(=O)=O",
        "Molecular Formula": "C<sub>6</sub>H<sub>3</sub>N<sub>3</sub>O<sub>7</sub>",
        "Molecular Mass": "229.10",
        "Boiling Point": "&gt;300 °C",
        "Melting Point": "122-123 °C",
        "Density": "1.763 g/cm³"
    }
}