{
    "cas_no": "84387-89-3",
    "key_name": "5-Nitro-1,2-benzisothiazol-3-amine",
    "cn_name": "3-氨基-5-硝基-2,1-苯并异噻唑;",
    "alternate_name": "1,2-Benzisothiazol-3-amine, 5-nitro-;5-Nitro-1,2-benzisothiazol-3-amine;3-Amino-5-nitrobenzisothiazole;3-Amino-5-nitrobenzoisothiazole;3-Amino-5-nitrobenzo[<em>d</em>]isothiazole;5-Nitrobenzo[<em>d</em>]isothiazol-3-ylamine;3-Amino-5-nitro-1,2-benzisothiazole",
    "duplicated_cas_no": "",
    "SMILES": "NC=1C=2C(=CC=C(N(=O)=O)C2)SN1",
    "meta_data": {
        "InChI": "InChI=1S/C7H5N3O2S/c8-7-5-3-4(10(11)12)1-2-6(5)13-9-7/h1-3H,(H2,8,9)",
        "InChIKey": null,
        "Canonical SMILES": "O=N(=O)C=1C=CC=2SN=C(N)C2C1",
        "Molecular Formula": "C<sub>7</sub>H<sub>5</sub>N<sub>3</sub>O<sub>2</sub>S",
        "Molecular Mass": "195.20",
        "Melting Point": "225-227 °C"
    }
}