{
    "cas_no": "50735-34-7",
    "key_name": "Methyl 2-amino-5-bromonicotinate",
    "cn_name": "2-氨基-5-溴烟酸甲酯;",
    "alternate_name": "3-Pyridinecarboxylic acid, 2-amino-5-bromo-, methyl ester;Methyl 2-amino-5-bromonicotinate;Methyl 2-amino-5-bromopyridine-3-carboxylate",
    "duplicated_cas_no": "",
    "SMILES": "C(OC)(=O)C1=C(N)N=CC(Br)=C1",
    "meta_data": {
        "InChI": "InChI=1S/C7H7BrN2O2/c1-12-7(11)5-2-4(8)3-10-6(5)9/h2-3H,1H3,(H2,9,10)",
        "InChIKey": null,
        "Canonical SMILES": "O=C(OC)C1=CC(Br)=CN=C1N",
        "Molecular Formula": "C<sub>7</sub>H<sub>7</sub>BrN<sub>2</sub>O<sub>2</sub>",
        "Molecular Mass": "231.05",
        "Melting Point": "148-149 °C"
    }
}