{
    "cas_no": "58593-78-5",
    "key_name": "4-Chloro-1,3-benzenedithiol",
    "cn_name": "4-氯-1,3-苯二硫醇;",
    "alternate_name": "1,3-Benzenedithiol, 4-chloro-;4-Chloro-1,3-benzenedithiol;4-Chloro-<em>m</em>-benzenedithiol;4-Chloro-3-mercaptothiophenol",
    "duplicated_cas_no": "",
    "SMILES": "SC1=C(Cl)C=CC(S)=C1",
    "meta_data": {
        "InChI": "InChI=1S/C6H5ClS2/c7-5-2-1-4(8)3-6(5)9/h1-3,8-9H",
        "InChIKey": null,
        "Canonical SMILES": "ClC1=CC=C(S)C=C1S",
        "Molecular Formula": "C<sub>6</sub>H<sub>5</sub>ClS<sub>2</sub>",
        "Molecular Mass": "176.69",
        "Boiling Point": "145-146 °C @ Press: 13-14 Torr"
    }
}