{
    "cas_no": "3922-40-5",
    "key_name": "4,7-Dihydroxy-1,10-phenanthroline",
    "cn_name": "4,7-二羟基-1,10-菲啰啉;",
    "alternate_name": "1,10-Phenanthroline-4,7-diol;4,7-Dihydroxy-1,10-phenanthroline",
    "duplicated_cas_no": "",
    "SMILES": "OC=1C=2C(=C3C(=CC2)C(O)=CC=N3)N=CC1",
    "meta_data": {
        "InChI": "InChI=1S/C12H8N2O2/c15-9-3-5-13-11-7(9)1-2-8-10(16)4-6-14-12(8)11/h1-6H,(H,13,15)(H,14,16)",
        "InChIKey": null,
        "Canonical SMILES": "OC=1C=CN=C2C=3N=CC=C(O)C3C=CC12",
        "Molecular Formula": "C<sub>12</sub>H<sub>8</sub>N<sub>2</sub>O<sub>2</sub>",
        "Molecular Mass": "212.20",
        "Melting Point": "475 °C (decomp)"
    }
}