{
    "cas_no": "61318-91-0",
    "key_name": "Sulconazole nitrate",
    "cn_name": "硝酸硫康唑;",
    "alternate_name": "1<em>H</em>-Imidazole, 1-[2-[[(4-chlorophenyl)methyl]thio]-2-(2,4-dichlorophenyl)ethyl]-, nitrate (1:1);1<em>H</em>-Imidazole, 1-[2-[[(4-chlorophenyl)methyl]thio]-2-(2,4-dichlorophenyl)ethyl]-, (±)-, mononitrate;1<em>H</em>-Imidazole, 1-[2-[[(4-chlorophenyl)methyl]thio]-2-(2,4-dichlorophenyl)ethyl]-, mononitrate;Sulconazole nitrate;Exelderm;Myk;RS 44872;Sulcosyn;RS 44872-00-10-3;Sulfaconazole",
    "duplicated_cas_no": "59293-82-2;92446-61-2",
    "SMILES": "C(CN1C=CN=C1)(SCC2=CC=C(Cl)C=C2)C3=C(Cl)C=C(Cl)C=C3.N(=O)(=O)O",
    "meta_data": {
        "InChI": "InChI=1S/C18H15Cl3N2S.HNO3/c19-14-3-1-13(2-4-14)11-24-18(10-23-8-7-22-12-23)16-6-5-15(20)9-17(16)21;2-1(3)4/h1-9,12,18H,10-11H2;(H,2,3,4)",
        "InChIKey": null,
        "Canonical SMILES": "O=N(=O)O.ClC1=CC=C(C=C1)CSC(C2=CC=C(Cl)C=C2Cl)CN3C=NC=C3",
        "Molecular Formula": "C<sub>18</sub>H<sub>15</sub>Cl<sub>3</sub>N<sub>2</sub>S.HNO<sub>3</sub>",
        "Molecular Mass": "",
        "Melting Point": "130.5-132 °C"
    }
}