{
    "cas_no": "50-53-3",
    "key_name": "Chlorpromazine",
    "cn_name": "氯丙嗪;3-(2-氯-10H-吩噻嗪-10-基)-N,N-二甲基丙-1-胺;",
    "alternate_name": "10<em>H</em>-Phenothiazine-10-propanamine, 2-chloro-<em>N</em>,<em>N</em>-dimethyl-;Phenothiazine, 2-chloro-10-[3-(dimethylamino)propyl]-;2-Chloro-<em>N</em>,<em>N</em>-dimethyl-10<em>H</em>-phenothiazine-10-propanamine;Aminazine;Ampliactil;2-Chloro-10-[3-(dimethylamino)propyl]phenothiazine;Chlorpromazine;CPZ;Fenactil;Fenaktyl;Fraction AB;Largactilothiazine;Largactyl;Megaphen;Novomazina;Phenactyl;Promazil;Propaphenin;Thorazine;Wintermin;Aminazin;Chlorderazin;HL 5746;Promactil;Prozil;Sanopron;Amplictil;Proma;Chlor-Promanyl;Elmarin;Chlorpromados;Esmind;2-Chloropromazine;Chlordelazin;Thorazin;BC 135;RP 4560;SKF 2601A;Chlropromados;2601A;NSC 167745;NSC 226514;Sedatil;Noiafren;Relitil;Largaltil;[3-(2-Chloro-phenothiazin-10-yl)-propyl]-dimethyl-amine;MeSH ID: D002746",
    "duplicated_cas_no": "",
    "SMILES": "C(CCN(C)C)N1C=2C(SC=3C1=CC=CC3)=CC=C(Cl)C2",
    "meta_data": {
        "InChI": "InChI=1S/C17H19ClN2S/c1-19(2)10-5-11-20-14-6-3-4-7-16(14)21-17-9-8-13(18)12-15(17)20/h3-4,6-9,12H,5,10-11H2,1-2H3",
        "InChIKey": null,
        "Canonical SMILES": "ClC1=CC=C2SC=3C=CC=CC3N(C2=C1)CCCN(C)C",
        "Molecular Formula": "C<sub>17</sub>H<sub>19</sub>ClN<sub>2</sub>S",
        "Molecular Mass": "318.86",
        "Boiling Point": "200-205 °C @ Press: 0.8 Torr",
        "Melting Point": "&lt;25 °C"
    }
}