{
    "cas_no": "121-69-7",
    "key_name": "<em>N</em>,<em>N</em>-Dimethylaniline",
    "cn_name": "N,N-二甲基苯胺;",
    "alternate_name": "Benzenamine, <em>N</em>,<em>N</em>-dimethyl-;Aniline, <em>N</em>,<em>N</em>-dimethyl-;<em>N</em>,<em>N</em>-Dimethylbenzenamine;Dimethylaniline;(Dimethylamino)benzene;Dimethylphenylamine;<em>N</em>,<em>N</em>-Dimethylaminobenzene;Versneller NL 63/10;<em>N</em>,<em>N</em>-Dimethylaniline;<em>N</em>,<em>N</em>-Dimethylphenylamine;NL 63-10P;EP 210;NSC 7195;DMA;Accelerator NL 63-100",
    "duplicated_cas_no": "162744-63-0;168153-21-7;171745-67-8",
    "SMILES": "N(C)(C)C1=CC=CC=C1",
    "meta_data": {
        "InChI": "InChI=1S/C8H11N/c1-9(2)8-6-4-3-5-7-8/h3-7H,1-2H3",
        "InChIKey": null,
        "Canonical SMILES": "C=1C=CC(=CC1)N(C)C",
        "Molecular Formula": "C<sub>8</sub>H<sub>11</sub>N",
        "Molecular Mass": "121.18",
        "Boiling Point": "193.54 °C",
        "Melting Point": "2.50 °C",
        "Density": "0.956 g/cm³ @ Temp: 20 °C"
    }
}