{
    "cas_no": "575-38-2",
    "key_name": "1,7-Dihydroxynaphthalene",
    "cn_name": "1,7-二羟基萘;",
    "alternate_name": "1,7-Naphthalenediol;C.I. 76635;1,7-Dihydroxynaphthalene;NC 002;NSC 62686",
    "duplicated_cas_no": "",
    "SMILES": "OC=1C2=C(C=CC(O)=C2)C=CC1",
    "meta_data": {
        "InChI": "InChI=1S/C10H8O2/c11-8-5-4-7-2-1-3-10(12)9(7)6-8/h1-6,11-12H",
        "InChIKey": null,
        "Canonical SMILES": "OC=1C=CC=2C=CC=C(O)C2C1",
        "Molecular Formula": "C<sub>10</sub>H<sub>8</sub>O<sub>2</sub>",
        "Molecular Mass": "160.17",
        "Melting Point": "180.5 °C"
    }
}