{
    "cas_no": "1189-93-1",
    "key_name": "1,1,3,3,5,5-Hexamethyltrisiloxane",
    "cn_name": "六甲基三硅氧烷;",
    "alternate_name": "Trisiloxane, 1,1,3,3,5,5-hexamethyl-;1,1,3,3,5,5-Hexamethyltrisiloxane;DMS 03H;2,4,4,6-Tetramethyl-3,5-dioxa-2,4,6-trisilaheptane",
    "duplicated_cas_no": "",
    "SMILES": "O([Si](O[SiH](C)C)(C)C)[SiH](C)C",
    "meta_data": {
        "InChI": "InChI=1S/C6H20O2Si3/c1-9(2)7-11(5,6)8-10(3)4/h9-10H,1-6H3",
        "InChIKey": null,
        "Canonical SMILES": "O([SiH](C)C)[Si](O[SiH](C)C)(C)C",
        "Molecular Formula": "C<sub>6</sub>H<sub>20</sub>O<sub>2</sub>Si<sub>3</sub>",
        "Molecular Mass": "208.48",
        "Boiling Point": "128 °C",
        "Density": "0.822 g/cm³"
    }
}