{
    "cas_no": "6856-31-1",
    "key_name": "Pridinol mesylate",
    "cn_name": null,
    "alternate_name": "1-Piperidinepropanol, α,α-diphenyl-, methanesulfonate (1:1);1-Piperidinepropanol, α,α-diphenyl-, methanesulfonate (salt);Methanesulfonic acid, compd. with α,α-diphenyl-1-piperidinepropanol;3-(<em>N</em>-Piperidino)-1,1-diphenyl-1-propanol methanesulfonate;3-Piperidino-1,1-diphenyl-1-propanol methanesulfonate;Lyseen;Pridinol mesylate;Mitanoline;Loxeen;Pridinol methanesulfonate;Konlax",
    "duplicated_cas_no": "",
    "SMILES": "C(CCN1CCCCC1)(O)(C2=CC=CC=C2)C3=CC=CC=C3.S(C)(=O)(=O)O",
    "meta_data": {
        "InChI": "InChI=1S/C20H25NO.CH4O3S/c22-20(18-10-4-1-5-11-18,19-12-6-2-7-13-19)14-17-21-15-8-3-9-16-21;1-5(2,3)4/h1-2,4-7,10-13,22H,3,8-9,14-17H2;1H3,(H,2,3,4)",
        "InChIKey": null,
        "Canonical SMILES": "O=S(=O)(O)C.OC(C=1C=CC=CC1)(C=2C=CC=CC2)CCN3CCCCC3",
        "Molecular Formula": "C<sub>20</sub>H<sub>25</sub>NO.CH<sub>4</sub>O<sub>3</sub>S",
        "Molecular Mass": "",
        "Melting Point": "152.5-155 °C"
    }
}