{
    "cas_no": "21472-89-9",
    "key_name": "1-Azabicyclo[2.2.1]heptan-3-one",
    "cn_name": null,
    "alternate_name": "1-Azabicyclo[2.2.1]heptan-3-one",
    "duplicated_cas_no": "133366-30-0",
    "SMILES": "O=C1C2CN(C1)CC2",
    "meta_data": {
        "InChI": "InChI=1S/C6H9NO/c8-6-4-7-2-1-5(6)3-7/h5H,1-4H2",
        "InChIKey": null,
        "Canonical SMILES": "O=C1CN2CCC1C2",
        "Molecular Formula": "C<sub>6</sub>H<sub>9</sub>NO",
        "Molecular Mass": "111.14",
        "Melting Point": "25-27 °C"
    }
}