{
    "cas_no": "76-49-3",
    "key_name": "(±)-Bornyl acetate",
    "cn_name": "乙酸冰片酯;1-冰片基乙酸酯;内型-1,7,7-三甲基二环[2.2.1]庚烷-2-醇乙酸酯;",
    "alternate_name": "Bicyclo[2.2.1]heptan-2-ol, 1,7,7-trimethyl-, 2-acetate, (1<em>R</em>,2<em>S</em>,4<em>R</em>)-<em>rel</em>-;Borneol, acetate;Bicyclo[2.2.1]heptan-2-ol, 1,7,7-trimethyl-, acetate, <em>endo</em>-;Bicyclo[2.2.1]heptan-2-ol, 1,7,7-trimethyl-, acetate, (1<em>R</em>,2<em>S</em>,4<em>R</em>)-<em>rel</em>-;Bornyl acetate;Bornyl acetic ester;Bornyl ethanoate;Borneyl acetate;<em>endo</em>-Bornyl acetate;<em>dl</em>-Bornyl acetate;(±)-Bornyl acetate",
    "duplicated_cas_no": "15313-72-1;36386-52-4;76306-81-5;1192038-28-0;1990151-21-7;2925656-37-5",
    "SMILES": "C[C@@]12[C@H](OC(C)=O)C[C@@](C1(C)C)(CC2)[H]",
    "meta_data": {
        "InChI": "InChI=1/C12H20O2/c1-8(13)14-10-7-9-5-6-12(10,4)11(9,2)3/h9-10H,5-7H2,1-4H3/t9-,10+,12+/s2",
        "InChIKey": null,
        "Canonical SMILES": "O=C(OC1CC2CCC1(C)C2(C)C)C",
        "Molecular Formula": "C<sub>12</sub>H<sub>20</sub>O<sub>2</sub>",
        "Molecular Mass": "196.29",
        "Boiling Point": "221 °C",
        "Melting Point": "29 °C",
        "Density": "0.97715 g/cm³ @ Temp: 30 °C"
    }
}