{
    "cas_no": "96449-92-2",
    "key_name": "1-[(4-Chlorophenyl)methyl]-5-oxo-3-pyrrolidinecarboxylic acid",
    "cn_name": null,
    "alternate_name": "3-Pyrrolidinecarboxylic acid, 1-[(4-chlorophenyl)methyl]-5-oxo-;1-[(4-Chlorophenyl)methyl]-5-oxo-3-pyrrolidinecarboxylic acid;1-(4-Chlorobenzyl)-5-oxopyrrolidine-3-carboxylic acid",
    "duplicated_cas_no": "",
    "SMILES": "C(N1CC(C(O)=O)CC1=O)C2=CC=C(Cl)C=C2",
    "meta_data": {
        "InChI": "InChI=1S/C12H12ClNO3/c13-10-3-1-8(2-4-10)6-14-7-9(12(16)17)5-11(14)15/h1-4,9H,5-7H2,(H,16,17)",
        "InChIKey": null,
        "Canonical SMILES": "O=C(O)C1CC(=O)N(CC2=CC=C(Cl)C=C2)C1",
        "Molecular Formula": "C<sub>12</sub>H<sub>12</sub>ClNO<sub>3</sub>",
        "Molecular Mass": "253.68",
        "Melting Point": "158-159 °C"
    }
}