{
    "cas_no": "99-24-1",
    "key_name": "Methyl gallate",
    "cn_name": "没食子酸甲酯;3,4,5-三羟基苯甲酸甲酯;",
    "alternate_name": "Benzoic acid, 3,4,5-trihydroxy-, methyl ester;Gallic acid, methyl ester;Methyl gallate;3,4,5-Trihydroxybenzoic acid methyl ester;Methyl 3,4,5-trihydroxybenzoate;NSC 363001;Gallincin",
    "duplicated_cas_no": "",
    "SMILES": "C(OC)(=O)C1=CC(O)=C(O)C(O)=C1",
    "meta_data": {
        "InChI": "InChI=1S/C8H8O5/c1-13-8(12)4-2-5(9)7(11)6(10)3-4/h2-3,9-11H,1H3",
        "InChIKey": null,
        "Canonical SMILES": "O=C(OC)C1=CC(O)=C(O)C(O)=C1",
        "Molecular Formula": "C<sub>8</sub>H<sub>8</sub>O<sub>5</sub>",
        "Molecular Mass": "184.15",
        "Melting Point": "261.5 °C",
        "Density": "0.295 g/cm³ @ Temp: 59.9 °C; Press: 75006 Torr"
    }
}