{
    "cas_no": "76-74-4",
    "key_name": "(±)-Pentobarbital",
    "cn_name": "戊巴比妥;5-乙基-5-(1-甲基丁基)巴比妥酸;5-乙基-5-(1-甲基丁基)-2,4,6-(1H,3H,5H)-嘧啶三酮;",
    "alternate_name": "2,4,6(1<em>H</em>,3<em>H</em>,5<em>H</em>)-Pyrimidinetrione, 5-ethyl-5-(1-methylbutyl)-;Barbituric acid, 5-ethyl-5-(1-methylbutyl)-;5-Ethyl-5-(1-methylbutyl)-2,4,6(1<em>H</em>,3<em>H</em>,5<em>H</em>)-pyrimidinetrione;Ethaminal;5-Ethyl-5-(1-methylbutyl)barbituric acid;Pentobarbital;Pentobarbitone;Rivadorm;5-Ethyl-5-(<em>sec</em>-pentyl)barbituric acid;Nembutal;Mebubarbital;Pentabarbitone;Pentobarbituric acid;Neodorm (new);Neodorm;Phetobarbitone;(<em>RS</em>)-Pentobarbital;(±)-Pentobarbital;(±)-Pentobarbitone;NSC 28708;MeSH ID: D010424",
    "duplicated_cas_no": "5992-37-0",
    "SMILES": "C(CCC)(C)C1(CC)C(=O)NC(=O)NC1=O",
    "meta_data": {
        "InChI": "InChI=1S/C11H18N2O3/c1-4-6-7(3)11(5-2)8(14)12-10(16)13-9(11)15/h7H,4-6H2,1-3H3,(H2,12,13,14,15,16)",
        "InChIKey": null,
        "Canonical SMILES": "O=C1NC(=O)C(C(=O)N1)(CC)C(C)CCC",
        "Molecular Formula": "C<sub>11</sub>H<sub>18</sub>N<sub>2</sub>O<sub>3</sub>",
        "Molecular Mass": "226.27",
        "Melting Point": "130 °C"
    }
}