{
    "cas_no": "108-47-4",
    "key_name": "2,4-Dimethylpyridine",
    "cn_name": "2,4-二甲基吡啶;",
    "alternate_name": "Pyridine, 2,4-dimethyl-;2,4-Lutidine;2,4-Dimethylpyridine;α,γ-Dimethylpyridine;NSC 2156",
    "duplicated_cas_no": "",
    "SMILES": "CC=1C=C(C)N=CC1",
    "meta_data": {
        "InChI": "InChI=1S/C7H9N/c1-6-3-4-8-7(2)5-6/h3-5H,1-2H3",
        "InChIKey": null,
        "Canonical SMILES": "N=1C=CC(=CC1C)C",
        "Molecular Formula": "C<sub>7</sub>H<sub>9</sub>N",
        "Molecular Mass": "107.15",
        "Boiling Point": "158.5 °C",
        "Melting Point": "-64 °C",
        "Density": "0.9273 g/cm³ @ Temp: 25 °C"
    }
}