{
    "cas_no": "923590-37-8",
    "key_name": "Vaniprevir",
    "cn_name": null,
    "alternate_name": "Cyclopropanecarboxamide, <em>N</em>-[[[6-(2-carboxy-2,3-dihydro-1<em>H</em>-isoindol-4-yl)-2,2-dimethylhexyl]oxy]carbonyl]-3-methyl-<span class=\"text-smallcaps\">L</smallcap>-valyl-(4<em>R</em>)-4-hydroxy-<smallcap>L</span>-prolyl-1-amino-<em>N</em>-(cyclopropylsulfonyl)-2-ethyl-, (1→2)-lactone, (1<em>R</em>,2<em>R</em>)-;MK 7009;Vaniprevir;Vanihep",
    "duplicated_cas_no": "1216963-56-2",
    "SMILES": "N(C(=O)[C@H]1N2C[C@@](C1)(OC(=O)N3CC=4C(C3)=CC=CC4CCCCC(C)(C)COC(=O)N[C@@H]([C@](C)(C)C)C2=O)[H])[C@@]5(C(NS(=O)(=O)C6CC6)=O)[C@H](CC)C5",
    "meta_data": {
        "InChI": "InChI=1S/C38H55N5O9S/c1-7-25-18-38(25,33(46)41-53(49,50)27-14-15-27)40-31(44)29-17-26-20-43(29)32(45)30(36(2,3)4)39-34(47)51-22-37(5,6)16-9-8-11-23-12-10-13-24-19-42(21-28(23)24)35(48)52-26/h10,12-13,25-27,29-30H,7-9,11,14-22H2,1-6H3,(H,39,47)(H,40,44)(H,41,46)/t25-,26-,29+,30-,38-/m1/s1",
        "InChIKey": null,
        "Canonical SMILES": "O=C1OCC(C)(C)CCCCC=2C=CC=C3C2CN(C(=O)OC4CN(C(=O)C(N1)C(C)(C)C)C(C(=O)NC5(C(=O)NS(=O)(=O)C6CC6)CC5CC)C4)C3",
        "Molecular Formula": "C<sub>38</sub>H<sub>55</sub>N<sub>5</sub>O<sub>9</sub>S",
        "Molecular Mass": "757.94",
        "Melting Point": "175-177 °C"
    }
}