{
    "cas_no": "113981-49-0",
    "key_name": "7-<em>O</em>-Methyldihydrowogonin",
    "cn_name": null,
    "alternate_name": "4<em>H</em>-1-Benzopyran-4-one, 2,3-dihydro-5-hydroxy-7,8-dimethoxy-2-phenyl-, (2<em>S</em>)-;4<em>H</em>-1-Benzopyran-4-one, 2,3-dihydro-5-hydroxy-7,8-dimethoxy-2-phenyl-, (<em>S</em>)-;(2<em>S</em>)-2,3-Dihydro-5-hydroxy-7,8-dimethoxy-2-phenyl-4<em>H</em>-1-benzopyran-4-one;7-<em>O</em>-Methyldihydrowogonin;(2S)-5-Hydroxy-7,8-dimethoxyflavanone;(<em>S</em>)-5-Hydroxy-7,8-dimethoxy-2-phenylchroman-4-one",
    "duplicated_cas_no": "",
    "SMILES": "O(C)C1=C2C(C(=O)C[C@H](O2)C3=CC=CC=C3)=C(O)C=C1OC",
    "meta_data": {
        "InChI": "InChI=1S/C17H16O5/c1-20-14-9-12(19)15-11(18)8-13(10-6-4-3-5-7-10)22-17(15)16(14)21-2/h3-7,9,13,19H,8H2,1-2H3/t13-/m0/s1",
        "InChIKey": null,
        "Canonical SMILES": "O=C1C2=C(O)C=C(OC)C(OC)=C2OC(C=3C=CC=CC3)C1",
        "Molecular Formula": "C<sub>17</sub>H<sub>16</sub>O<sub>5</sub>",
        "Molecular Mass": "300.31",
        "Melting Point": "99-100 °C"
    }
}