{
    "cas_no": "90101-16-9",
    "key_name": "Droxicam",
    "cn_name": null,
    "alternate_name": "2<em>H</em>,5<em>H</em>-1,3-Oxazino[5,6-<em>c</em>][1,2]benzothiazine-2,4(3<em>H</em>)-dione, 5-methyl-3-(2-pyridinyl)-, 6,6-dioxide;Droxicam;E 318;Ombolan;Droxar;Dobenam;E 3128",
    "duplicated_cas_no": "",
    "SMILES": "O=C1C2=C(C=3C(S(=O)(=O)N2C)=CC=CC3)OC(=O)N1C4=CC=CC=N4",
    "meta_data": {
        "InChI": "InChI=1S/C16H11N3O5S/c1-18-13-14(10-6-2-3-7-11(10)25(18,22)23)24-16(21)19(15(13)20)12-8-4-5-9-17-12/h2-9H,1H3",
        "InChIKey": null,
        "Canonical SMILES": "O=C1OC=2C=3C=CC=CC3S(=O)(=O)N(C2C(=O)N1C4=NC=CC=C4)C",
        "Molecular Formula": "C<sub>16</sub>H<sub>11</sub>N<sub>3</sub>O<sub>5</sub>S",
        "Molecular Mass": "357.34",
        "Melting Point": "259-261 °C"
    }
}