{
    "cas_no": "19490-92-7",
    "key_name": "α-Methyl-α-phenyl-2-pyridinemethanol",
    "cn_name": null,
    "alternate_name": "2-Pyridinemethanol, α-methyl-α-phenyl-;α-Methyl-α-phenyl-2-pyridinemethanol;α-Methyl-α-pyridylbenzyl alcohol;α-Methyl-α-phenyl-2-pyridylmethanol;NSC 28862;1-Phenyl-1-(pyridin-2-yl)ethanol;1-Phenyl-1-(2-pyridyl)ethanol;1-Phenyl-1-(pyridin-2-yl)ethan-1-ol",
    "duplicated_cas_no": "",
    "SMILES": "C(C)(O)(C1=CC=CC=C1)C2=CC=CC=N2",
    "meta_data": {
        "InChI": "InChI=1S/C13H13NO/c1-13(15,11-7-3-2-4-8-11)12-9-5-6-10-14-12/h2-10,15H,1H3",
        "InChIKey": null,
        "Canonical SMILES": "OC(C1=NC=CC=C1)(C=2C=CC=CC2)C",
        "Molecular Formula": "C<sub>13</sub>H<sub>13</sub>NO",
        "Molecular Mass": "199.25",
        "Boiling Point": "301-303 °C",
        "Melting Point": "32 °C"
    }
}