{
    "cas_no": "26446-35-5",
    "key_name": "Monoacetin",
    "cn_name": null,
    "alternate_name": "1,2,3-Propanetriol, monoacetate;Acetin, mono-;Acetin;Glyceryl acetate;Glyceryl monoacetate;Glycerol monoacetate;Glycerol acetate;Monoacetin;Glycerin monoacetate;Glycerine monoacetate;Eastman 9-45",
    "duplicated_cas_no": "1335-38-2",
    "SMILES": "",
    "meta_data": {
        "InChI": "",
        "InChIKey": null,
        "Canonical SMILES": "",
        "Molecular Formula": "C<sub>5</sub>H<sub>10</sub>O<sub>4</sub>",
        "Molecular Mass": "",
        "Boiling Point": "129-131 °C @ Press: 3 Torr",
        "Melting Point": "-78 °C",
        "Density": "1.206 g/cm³ @ Temp: 20 °C"
    }
}