{
    "cas_no": "4079-52-1",
    "key_name": "2-Methoxy-1-phenylethanone",
    "cn_name": "2-甲氧基乙酰苯;2-甲氧基苯乙酮;",
    "alternate_name": "Ethanone, 2-methoxy-1-phenyl-;Acetophenone, 2-methoxy-;2-Methoxy-1-phenylethanone;α-Methoxyacetophenone;ω-Methoxyacetophenone;2-Methoxyacetophenone;Methoxymethyl phenyl ketone;NSC 227212;NSC 354;Phenyl methoxymethyl ketone;2-Methoxy-1-phenylethan-1-one",
    "duplicated_cas_no": "",
    "SMILES": "C(COC)(=O)C1=CC=CC=C1",
    "meta_data": {
        "InChI": "InChI=1S/C9H10O2/c1-11-7-9(10)8-5-3-2-4-6-8/h2-6H,7H2,1H3",
        "InChIKey": null,
        "Canonical SMILES": "O=C(C=1C=CC=CC1)COC",
        "Molecular Formula": "C<sub>9</sub>H<sub>10</sub>O<sub>2</sub>",
        "Molecular Mass": "150.17",
        "Boiling Point": "245 °C",
        "Melting Point": "8 °C",
        "Density": "1.093 g/cm³ @ Temp: 21.2 °C"
    }
}