{
    "cas_no": "2878-14-0",
    "key_name": "2-Methylallylamine",
    "cn_name": "2-甲基烯丙基胺;",
    "alternate_name": "2-Propen-1-amine, 2-methyl-;Allylamine, 2-methyl-;Methallylamine;2-Methylallylamine;β-Methallylamine;1-Amino-2-methyl-2-propene;3-Amino-2-methyl-1-propene;2-Methyl-2-propenylamine;NSC 32610;2-Methyl-2-propen-1-amine;2-Methylallylamin;2-Methylprop-2-en-amine",
    "duplicated_cas_no": "",
    "SMILES": "C(CN)(C)=C",
    "meta_data": {
        "InChI": "InChI=1S/C4H9N/c1-4(2)3-5/h1,3,5H2,2H3",
        "InChIKey": null,
        "Canonical SMILES": "C=C(C)CN",
        "Molecular Formula": "C<sub>4</sub>H<sub>9</sub>N",
        "Molecular Mass": "71.12",
        "Boiling Point": "76.7-77.7 °C @ Press: 746 Torr"
    }
}