{
    "cas_no": "24697-74-3",
    "key_name": "Leonurine",
    "cn_name": "盐酸益母草碱;3,5-二甲氧基-4-羟基-苯甲酸(4-胍基)-1-丁酯一水合物盐酸盐;",
    "alternate_name": "Benzoic acid, 4-hydroxy-3,5-dimethoxy-, 4-[(aminoiminomethyl)amino]butyl ester;Benzoic acid, 4-hydroxy-3,5-dimethoxy-, ester with (4-hydroxybutyl)guanidine;Leonurine;Guanidine, (4-hydroxybutyl)-, 4-hydroxy-3,5-dimethoxybenzoate (ester);Guanidine, (4-hydroxybutyl)-, 4-hydroxy-3,5-dimethoxybenzoate;4-Hydroxy-3,5-dimethoxybenzoic acid δ-guanidinobutyl ester;Syringic acid δ-guanidinobutyl ester;[4-(4-Hydroxy-3,5-dimethoxybenzoyloxy)butyl]guanidine;4-Guanidino-1-butanol syringate;Leonurin;SCM 198",
    "duplicated_cas_no": "7097-09-8",
    "SMILES": "C(OCCCCNC(=N)N)(=O)C1=CC(OC)=C(O)C(OC)=C1",
    "meta_data": {
        "InChI": "InChI=1S/C14H21N3O5/c1-20-10-7-9(8-11(21-2)12(10)18)13(19)22-6-4-3-5-17-14(15)16/h7-8,18H,3-6H2,1-2H3,(H4,15,16,17)",
        "InChIKey": null,
        "Canonical SMILES": "O=C(OCCCCNC(=N)N)C1=CC(OC)=C(O)C(OC)=C1",
        "Molecular Formula": "C<sub>14</sub>H<sub>21</sub>N<sub>3</sub>O<sub>5</sub>",
        "Molecular Mass": "311.33",
        "Melting Point": "238 °C"
    }
}