{
    "cas_no": "2150-43-8",
    "key_name": "Methyl 3,4-dihydroxybenzoate",
    "cn_name": null,
    "alternate_name": "Benzoic acid, 3,4-dihydroxy-, methyl ester;Protocatechuic acid, methyl ester;3,4-Dihydroxybenzoic acid methyl ester;Methyl protocatechuate;Methyl 3,4-dihydroxybenzoate;NSC 146458",
    "duplicated_cas_no": "118074-32-1",
    "SMILES": "C(OC)(=O)C1=CC(O)=C(O)C=C1",
    "meta_data": {
        "InChI": "InChI=1S/C8H8O4/c1-12-8(11)5-2-3-6(9)7(10)4-5/h2-4,9-10H,1H3",
        "InChIKey": null,
        "Canonical SMILES": "O=C(OC)C1=CC=C(O)C(O)=C1",
        "Molecular Formula": "C<sub>8</sub>H<sub>8</sub>O<sub>4</sub>",
        "Molecular Mass": "168.15",
        "Boiling Point": "120-180 °C @ Press: 1.5 Torr",
        "Melting Point": "134-135 °C"
    }
}