{
    "cas_no": "1724-02-3",
    "key_name": "Glutaconic acid",
    "cn_name": null,
    "alternate_name": "2-Pentenedioic acid;Glutaconic acid;Pentenedioic acid;1,3-Propenedicarboxylic acid;1-Propene-1,3-dicarboxylic acid",
    "duplicated_cas_no": "",
    "SMILES": "C(CC(O)=O)=CC(O)=O",
    "meta_data": {
        "InChI": "InChI=1S/C5H6O4/c6-4(7)2-1-3-5(8)9/h1-2H,3H2,(H,6,7)(H,8,9)",
        "InChIKey": null,
        "Canonical SMILES": "O=C(O)C=CCC(=O)O",
        "Molecular Formula": "C<sub>5</sub>H<sub>6</sub>O<sub>4</sub>",
        "Molecular Mass": "130.10",
        "Melting Point": "130-134 °C"
    }
}