{
    "cas_no": "5066-94-4",
    "key_name": "5-(1-Methylpropyl)-3-phenyl-2-thioxo-4-imidazolidinone",
    "cn_name": "乙内酰苯硫脲异亮氨酸;5仲丁基-3-苯基-2-硫代乙内酰脲;",
    "alternate_name": "4-Imidazolidinone, 5-(1-methylpropyl)-3-phenyl-2-thioxo-;Hydantoin, 5-<em>sec</em>-butyl-3-phenyl-2-thio-;5-(1-Methylpropyl)-3-phenyl-2-thioxo-4-imidazolidinone;Isoleucine phenylthiohydantoin;NSC 96423",
    "duplicated_cas_no": "",
    "SMILES": "O=C1N(C(=S)NC1C(CC)C)C2=CC=CC=C2",
    "meta_data": {
        "InChI": "InChI=1S/C13H16N2OS/c1-3-9(2)11-12(16)15(13(17)14-11)10-7-5-4-6-8-10/h4-9,11H,3H2,1-2H3,(H,14,17)",
        "InChIKey": null,
        "Canonical SMILES": "O=C1N(C=2C=CC=CC2)C(=S)NC1C(C)CC",
        "Molecular Formula": "C<sub>13</sub>H<sub>16</sub>N<sub>2</sub>OS",
        "Molecular Mass": "248.34",
        "Melting Point": "132 °C"
    }
}