{
    "cas_no": "73792-22-0",
    "key_name": "1-(4-Amino-3-fluorophenyl)ethanone",
    "cn_name": null,
    "alternate_name": "Ethanone, 1-(4-amino-3-fluorophenyl)-;1-(4-Amino-3-fluorophenyl)ethanone;4′-Amino-3′-fluoroacetophenone;3-Fluoro-4-aminoacetophenone;4-Acetyl-2-fluoroaniline;1-(4-Amino-3-fluorophenyl)ethan-1-one",
    "duplicated_cas_no": "",
    "SMILES": "C(C)(=O)C1=CC(F)=C(N)C=C1",
    "meta_data": {
        "InChI": "InChI=1S/C8H8FNO/c1-5(11)6-2-3-8(10)7(9)4-6/h2-4H,10H2,1H3",
        "InChIKey": null,
        "Canonical SMILES": "O=C(C1=CC=C(N)C(F)=C1)C",
        "Molecular Formula": "C<sub>8</sub>H<sub>8</sub>FNO",
        "Molecular Mass": "153.15",
        "Melting Point": "86-88 °C"
    }
}