{
    "cas_no": "79-55-0",
    "key_name": "1,2,2,6,6-Pentamethylpiperidine",
    "cn_name": "1,2,2,6,6,-五甲基哌啶;",
    "alternate_name": "Piperidine, 1,2,2,6,6-pentamethyl-;1,2,2,6,6-Pentamethylpiperidine;M&amp;B 4486;Pempidine;Pyrilene;<em>N</em>-Methyl-2,2,6,6-tetramethylpiperidine;2,2,6,6,<em>N</em>-Pentamethylpiperidine;<em>N</em>,2,2,6,6-Pentamethylpiperidine;MeSH ID: D010393",
    "duplicated_cas_no": "",
    "SMILES": "CN1C(C)(C)CCCC1(C)C",
    "meta_data": {
        "InChI": "InChI=1S/C10H21N/c1-9(2)7-6-8-10(3,4)11(9)5/h6-8H2,1-5H3",
        "InChIKey": null,
        "Canonical SMILES": "N1(C)C(C)(C)CCCC1(C)C",
        "Molecular Formula": "C<sub>10</sub>H<sub>21</sub>N",
        "Molecular Mass": "155.28",
        "Boiling Point": "147 °C",
        "Melting Point": "&lt;25 °C"
    }
}