{
    "cas_no": "2402-99-5",
    "key_name": "Pyridine, 3,5-dibromo-, 1-oxide",
    "cn_name": "3,5-二溴吡啶-N-氧化物;3,5-二溴吡啶氮氧化物-1;",
    "alternate_name": "Pyridine, 3,5-dibromo-, 1-oxide;3,5-Dibromopyridine 1-oxide;3,5-Dibromopyridine <em>N</em>-oxide;3,5-Dibromo-1-oxidopyridin-1-ium;3,5-Dibromopyridin-1-ium-1-olate",
    "duplicated_cas_no": "",
    "SMILES": "BrC=1C=C(Br)C=N(=O)C1",
    "meta_data": {
        "InChI": "InChI=1S/C5H3Br2NO/c6-4-1-5(7)3-8(9)2-4/h1-3H",
        "InChIKey": null,
        "Canonical SMILES": "O=N=1C=C(Br)C=C(Br)C1",
        "Molecular Formula": "C<sub>5</sub>H<sub>3</sub>Br<sub>2</sub>NO",
        "Molecular Mass": "252.89",
        "Melting Point": "143.5-144.5 °C"
    }
}