{
    "cas_no": "803-19-0",
    "key_name": "4,4′-(Phenylphosphinylidene)bis[benzoic acid]",
    "cn_name": "双(4-羧基苯基)苯基氧化膦;",
    "alternate_name": "Benzoic acid, 4,4′-(phenylphosphinylidene)bis-;Benzoic acid, 4,4′-(phenylphosphinylidene)di-;4,4′-(Phenylphosphinylidene)bis[benzoic acid];Bis(4-carboxyphenyl)phenyl phosphine oxide",
    "duplicated_cas_no": "",
    "SMILES": "P(=O)(C1=CC=C(C(O)=O)C=C1)(C2=CC=C(C(O)=O)C=C2)C3=CC=CC=C3",
    "meta_data": {
        "InChI": "InChI=1S/C20H15O5P/c21-19(22)14-6-10-17(11-7-14)26(25,16-4-2-1-3-5-16)18-12-8-15(9-13-18)20(23)24/h1-13H,(H,21,22)(H,23,24)",
        "InChIKey": null,
        "Canonical SMILES": "O=C(O)C1=CC=C(C=C1)P(=O)(C=2C=CC=CC2)C3=CC=C(C=C3)C(=O)O",
        "Molecular Formula": "C<sub>20</sub>H<sub>15</sub>O<sub>5</sub>P",
        "Molecular Mass": "366.30",
        "Melting Point": "340-342 °C"
    }
}