{
    "cas_no": "1088-56-8",
    "key_name": "Lumiflavin",
    "cn_name": "光?素;",
    "alternate_name": "Benzo[<em>g</em>]pteridine-2,4(3<em>H</em>,10<em>H</em>)-dione, 7,8,10-trimethyl-;Lumiflavine;Benzo[<em>g</em>]pteridin-2(10<em>H</em>)-one, 4-hydroxy-7,8,10-trimethyl-;7,8,10-Trimethylbenzo[<em>g</em>]pteridine-2,4(3<em>H</em>,10<em>H</em>)-dione;Lumiflavin;7,8,10-Trimethylisoalloxazine;Lumilactoflavin",
    "duplicated_cas_no": "528-06-3",
    "SMILES": "O=C1C=2C(N(C)C=3C(N2)=CC(C)=C(C)C3)=NC(=O)N1",
    "meta_data": {
        "InChI": "InChI=1S/C13H12N4O2/c1-6-4-8-9(5-7(6)2)17(3)11-10(14-8)12(18)16-13(19)15-11/h4-5H,1-3H3,(H,16,18,19)",
        "InChIKey": null,
        "Canonical SMILES": "O=C1N=C2C(=NC=3C=C(C(=CC3N2C)C)C)C(=O)N1",
        "Molecular Formula": "C<sub>13</sub>H<sub>12</sub>N<sub>4</sub>O<sub>2</sub>",
        "Molecular Mass": "256.26",
        "Melting Point": "320 °C",
        "Density": "1.48 g/cm³"
    }
}