{
    "cas_no": "6457-49-4",
    "key_name": "4-Piperidinemethanol",
    "cn_name": "4-羟甲基哌啶;4-甲醇派啶;",
    "alternate_name": "4-Piperidinemethanol;4-(Hydroxymethyl)piperidine;(4-Piperidyl)methanol;(4-Piperidinyl)methanol;4-Piperidine-1-methanol",
    "duplicated_cas_no": "",
    "SMILES": "C(O)C1CCNCC1",
    "meta_data": {
        "InChI": "InChI=1S/C6H13NO/c8-5-6-1-3-7-4-2-6/h6-8H,1-5H2",
        "InChIKey": null,
        "Canonical SMILES": "OCC1CCNCC1",
        "Molecular Formula": "C<sub>6</sub>H<sub>13</sub>NO",
        "Molecular Mass": "115.17",
        "Boiling Point": "122 °C @ Press: 12 Torr",
        "Melting Point": "56-62 °C"
    }
}