{
    "cas_no": "106740-09-4",
    "key_name": "Phosphinodithioic acid, <em>P</em>-(4-methoxyphenyl)-<em>P</em>-4-morpholinyl-, compd. with morpholine (1:1)",
    "cn_name": null,
    "alternate_name": "Phosphinodithioic acid, <em>P</em>-(4-methoxyphenyl)-<em>P</em>-4-morpholinyl-, compd. with morpholine (1:1);Phosphinodithioic acid, (<em>p</em>-methoxyphenyl)morpholino-, compd. with morpholine;GYY 4137;(4-Methoxyphenyl)morpholino-phosphinodithioic acid compound with morpholine",
    "duplicated_cas_no": "",
    "SMILES": "P(=S)(S)(C1=CC=C(OC)C=C1)N2CCOCC2.C1COCCN1",
    "meta_data": {
        "InChI": "InChI=1S/C11H16NO2PS2.C4H9NO/c1-13-10-2-4-11(5-3-10)15(16,17)12-6-8-14-9-7-12;1-3-6-4-2-5-1/h2-5H,6-9H2,1H3,(H,16,17);5H,1-4H2",
        "InChIKey": null,
        "Canonical SMILES": "S=P(S)(C1=CC=C(OC)C=C1)N2CCOCC2.O1CCNCC1",
        "Molecular Formula": "C<sub>11</sub>H<sub>16</sub>NO<sub>2</sub>PS<sub>2</sub>.C<sub>4</sub>H<sub>9</sub>NO",
        "Molecular Mass": "",
        "Melting Point": "164-166 °C"
    }
}