{
    "cas_no": "658-99-1",
    "key_name": "3,4-Difluorobenzeneacetonitrile",
    "cn_name": "3,4-二氟苯乙腈;",
    "alternate_name": "Benzeneacetonitrile, 3,4-difluoro-;Acetonitrile, (3,4-difluorophenyl)-;3,4-Difluorobenzeneacetonitrile;(3,4-Difluorophenyl)acetonitrile;3,4-Difluorobenzyl cyanide;2-(3,4-Difluorophenyl)acetonitrile",
    "duplicated_cas_no": "",
    "SMILES": "C(C#N)C1=CC(F)=C(F)C=C1",
    "meta_data": {
        "InChI": "InChI=1S/C8H5F2N/c9-7-2-1-6(3-4-11)5-8(7)10/h1-2,5H,3H2",
        "InChIKey": null,
        "Canonical SMILES": "N#CCC1=CC=C(F)C(F)=C1",
        "Molecular Formula": "C<sub>8</sub>H<sub>5</sub>F<sub>2</sub>N",
        "Molecular Mass": "153.13",
        "Boiling Point": "110-120 °C @ Press: 13 Torr"
    }
}