{
    "cas_no": "25910-85-4",
    "key_name": "Quinolinium, 6-ethoxy-1-methyl-2-[2-(3-nitrophenyl)ethenyl]-, methyl sulfate (1:1)",
    "cn_name": "6-乙氧基-1-甲基-2-(3-硝基苯乙烯基)喹啉硫酸甲酯盐;",
    "alternate_name": "Quinolinium, 6-ethoxy-1-methyl-2-[2-(3-nitrophenyl)ethenyl]-, methyl sulfate (1:1);Quinolinium, 6-ethoxy-1-methyl-2-(<em>m</em>-nitrostyryl)-, methyl sulfate;Quinolinium, 6-ethoxy-1-methyl-2-[2-(3-nitrophenyl)ethenyl]-, methyl sulfate;AF 901",
    "duplicated_cas_no": "",
    "SMILES": "C[N+]=1C2=C(C=C(OCC)C=C2)C=CC1C=CC3=CC(N(=O)=O)=CC=C3.S(OC)(=O)(=O)[O-]",
    "meta_data": {
        "InChI": "InChI=1S/C20H19N2O3.CH4O4S/c1-3-25-19-11-12-20-16(14-19)8-10-17(21(20)2)9-7-15-5-4-6-18(13-15)22(23)24;1-5-6(2,3)4/h4-14H,3H2,1-2H3;1H3,(H,2,3,4)/q+1;/p-1",
        "InChIKey": null,
        "Canonical SMILES": "O=N(=O)C=1C=CC=C(C=CC=2C=CC3=CC(OCC)=CC=C3[N+]2C)C1.O=S(=O)([O-])OC",
        "Molecular Formula": "C<sub>20</sub>H<sub>19</sub>N<sub>2</sub>O<sub>3</sub>.CH<sub>3</sub>O<sub>4</sub>S",
        "Molecular Mass": "",
        "Melting Point": "259-260 °C"
    }
}