{
    "cas_no": "6012-97-1",
    "key_name": "2,3,4,5-Tetrachlorothiophene",
    "cn_name": "四氯噻吩;",
    "alternate_name": "Thiophene, 2,3,4,5-tetrachloro-;Thiophene, tetrachloro-;2,3,4,5-Tetrachlorothiophene;Tetrachlorothiophene;Penphene;Perchlorothiophene;IF;NSC 44615;NSC 61442",
    "duplicated_cas_no": "",
    "SMILES": "ClC=1C(Cl)=C(Cl)SC1Cl",
    "meta_data": {
        "InChI": "InChI=1S/C4Cl4S/c5-1-2(6)4(8)9-3(1)7",
        "InChIKey": null,
        "Canonical SMILES": "ClC=1SC(Cl)=C(Cl)C1Cl",
        "Molecular Formula": "C<sub>4</sub>Cl<sub>4</sub>S",
        "Molecular Mass": "221.92",
        "Boiling Point": "233.4 °C",
        "Melting Point": "30.5 °C"
    }
}