{
    "cas_no": "13906-09-7",
    "key_name": "2-Mercapto-4(3<em>H</em>)-quinazolinone",
    "cn_name": "2-巯基-4(3H)-喹唑酮;",
    "alternate_name": "4(1<em>H</em>)-Quinazolinone, 2,3-dihydro-2-thioxo-;2,4(1<em>H</em>,3<em>H</em>)-Quinazolinedione, 2-thio-;2,3-Dihydro-2-thioxo-4(1<em>H</em>)-quinazolinone;2-Thio-4-oxo-1,2,3,4-tetrahydroquinazoline;2-Thio-2,4(1<em>H</em>,3<em>H</em>)-quinazolinedione;2-Mercapto-4-quinazolinol;2-Mercaptoquinazolin-4-one;2,3-Dihydro-2-thioxoquinazolin-4(1<em>H</em>)-one;2-Thioxo-4-quinazolinone;2-Mercapto-4(3<em>H</em>)-quinazolinone;2-Mercapto-3<em>H</em>-quinazolin-4-one;2-Thioxo-2,3-dihydroquinazolin-4(1H)-one;2-Mercapto-3,4-dihydro-4-quinazolone;2-Mercaptoquinazolin-4(1<em>H</em>)-one;2-Sulfanylquinazolin-4-ol;2-Sulfanyl-1,4-dihydroquinazolin-4-one;2-Sulfanylidene-1<em>H</em>-quinazolin-4-one;2-Thioxo-2,3-dihydro-1<em>H</em>-quinazolin-4-one;2-Sulfanyl-3,4-dihydroquinazolin-4-one;2-Sulfanylidene-1,2,3,4-tetrahydroquinazolin-4-one",
    "duplicated_cas_no": "16431-28-0",
    "SMILES": "O=C1C=2C(NC(=S)N1)=CC=CC2",
    "meta_data": {
        "InChI": "InChI=1S/C8H6N2OS/c11-7-5-3-1-2-4-6(5)9-8(12)10-7/h1-4H,(H2,9,10,11,12)",
        "InChIKey": null,
        "Canonical SMILES": "O=C1NC(=S)NC=2C=CC=CC12",
        "Molecular Formula": "C<sub>8</sub>H<sub>6</sub>N<sub>2</sub>OS",
        "Molecular Mass": "178.21",
        "Melting Point": "315-316 °C"
    }
}