{
    "cas_no": "2243-35-8",
    "key_name": "2-(Acetyloxy)-1-phenylethanone",
    "cn_name": "2-乙酰氧基苯乙酮;",
    "alternate_name": "Ethanone, 2-(acetyloxy)-1-phenyl-;Acetophenone, 2-hydroxy-, acetate;2-(Acetyloxy)-1-phenylethanone;ω-Acetoxyacetophenone;Phenacyl acetate;2-Hydroxyacetophenoneacetate;α-Acetoxyacetophenone;2-Acetoxyacetophenone;Acetic acid 2-oxo-2-phenylethyl ester;NSC 9837;Benzoylmethyl acetate;2-Oxo-2-phenylethyl acetate",
    "duplicated_cas_no": "",
    "SMILES": "C(COC(C)=O)(=O)C1=CC=CC=C1",
    "meta_data": {
        "InChI": "InChI=1S/C10H10O3/c1-8(11)13-7-10(12)9-5-3-2-4-6-9/h2-6H,7H2,1H3",
        "InChIKey": null,
        "Canonical SMILES": "O=C(OCC(=O)C=1C=CC=CC1)C",
        "Molecular Formula": "C<sub>10</sub>H<sub>10</sub>O<sub>3</sub>",
        "Molecular Mass": "178.18",
        "Boiling Point": "270 °C",
        "Melting Point": "49 °C"
    }
}