{
    "cas_no": "599-04-2",
    "key_name": "<span class=\"text-smallcaps\">D</span>-Pantolactone",
    "cn_name": "(R)-3-羟基-4,4-二甲基-二氢-2(3H)-呋喃酮;泛酰内酯;二氢-3-羟基-4,4-二甲基-2(3H)呋喃酮;&alpha;-羟基-&be;",
    "alternate_name": "2(3<em>H</em>)-Furanone, dihydro-3-hydroxy-4,4-dimethyl-, (3<em>R</em>)-;2(3<em>H</em>)-Furanone, dihydro-3-hydroxy-4,4-dimethyl-, <span class=\"text-smallcaps\">D</span>-(-)-;2(3<em>H</em>)-Furanone, dihydro-3-hydroxy-4,4-dimethyl-, (<em>R</em>)-;(3<em>R</em>)-Dihydro-3-hydroxy-4,4-dimethyl-2(3<em>H</em>)-furanone;<span class=\"text-smallcaps\">D</span>-(-)-Pantolactone;(-)-Pantolactone;(<em>R</em>)-α-Hydroxy-β,β-dimethyl-γ-butyrolactone;Pantothenic lactone;Pantoyl lactone;<span class=\"text-smallcaps\">D</span>-(-)-α-Hydroxy-β,β-dimethyl-γ-butyrolactone;Pantolactone;(<em>R</em>)-(-)-Pantolactone;<span class=\"text-smallcaps\">D</span>-(-)-Pantoyl lactone;<span class=\"text-smallcaps\">D</span>-Pantolactone;(<em>R</em>)-Pantolactone;(-)-Pantoyl lactone;<span class=\"text-smallcaps\">D</span>-Pantoyl lactone;(-)-(<em>R</em>)-Pantolactone;(-)-2-Hydroxy-3,3-dimethyl-γ-butyrolactone;(<em>R</em>)-3-Hydroxy-4,4-dimethyldihydrofuran-2(3<em>H</em>)-one;(3<em>R</em>)-Tetrahydro-3-hydroxy-4,4-dimethylfuran-2-one;l-Pantoyl lactone;(3R)-3-Hydroxy-4,4-dimethyloxolan-2-one;(R)-3-Hydroxy-4,4-dimethyldihydrofuran-2(3<em>H</em>)-one",
    "duplicated_cas_no": "631-68-5;16562-48-4",
    "SMILES": "O[C@@H]1C(C)(C)COC1=O",
    "meta_data": {
        "InChI": "InChI=1S/C6H10O3/c1-6(2)3-9-5(8)4(6)7/h4,7H,3H2,1-2H3/t4-/m0/s1",
        "InChIKey": null,
        "Canonical SMILES": "O=C1OCC(C)(C)C1O",
        "Molecular Formula": "C<sub>6</sub>H<sub>10</sub>O<sub>3</sub>",
        "Molecular Mass": "130.14",
        "Melting Point": "92 °C"
    }
}