{
    "cas_no": "96948-64-0",
    "key_name": "α-[[(1,1-Dimethylethyl)amino]methyl]-4-hydroxybenzenemethanol",
    "cn_name": null,
    "alternate_name": "Benzenemethanol, α-[[(1,1-dimethylethyl)amino]methyl]-4-hydroxy-;Benzenemethanol, α-[[(1,1-dimethylethyl)amino]methyl]-4-hydroxy-, (±)-;α-[[(1,1-Dimethylethyl)amino]methyl]-4-hydroxybenzenemethanol;KWD 2066;<em>t</em>-Butylnorsynephrine;Buctopamine",
    "duplicated_cas_no": "7376-67-2",
    "SMILES": "C(CNC(C)(C)C)(O)C1=CC=C(O)C=C1",
    "meta_data": {
        "InChI": "InChI=1S/C12H19NO2/c1-12(2,3)13-8-11(15)9-4-6-10(14)7-5-9/h4-7,11,13-15H,8H2,1-3H3",
        "InChIKey": null,
        "Canonical SMILES": "OC1=CC=C(C=C1)C(O)CNC(C)(C)C",
        "Molecular Formula": "C<sub>12</sub>H<sub>19</sub>NO<sub>2</sub>",
        "Molecular Mass": "209.28",
        "Melting Point": "172-173.5 °C"
    }
}