{
    "cas_no": "16066-09-4",
    "key_name": "1,1,1,3,5,7,7,7-Octamethyltetrasiloxane",
    "cn_name": "1,1,1,3,5,7,7,7-八甲基四硅氧烷;",
    "alternate_name": "Tetrasiloxane, 1,1,1,3,5,7,7,7-octamethyl-;1,1,1,3,5,7,7,7-Octamethyltetrasiloxane;H Oil;LS 8630;1,3-Bis(trimethylsiloxy)-1,3-dimethyldisiloxane;SIB 1838.0",
    "duplicated_cas_no": "",
    "SMILES": "O([Si](C)(C)C)[SiH](O[SiH](O[Si](C)(C)C)C)C",
    "meta_data": {
        "InChI": "InChI=1S/C8H26O3Si4/c1-12(10-14(3,4)5)9-13(2)11-15(6,7)8/h12-13H,1-8H3",
        "InChIKey": null,
        "Canonical SMILES": "O([SiH](O[Si](C)(C)C)C)[SiH](O[Si](C)(C)C)C",
        "Molecular Formula": "C<sub>8</sub>H<sub>26</sub>O<sub>3</sub>Si<sub>4</sub>",
        "Molecular Mass": "282.63",
        "Boiling Point": "170 °C",
        "Density": "0.858 g/cm³"
    }
}