{
    "cas_no": "10373-78-1",
    "key_name": "Camphorquinone",
    "cn_name": "DL-樟脑醌;DL-1,7,7-三甲基二环[2.2.1]庚烷-2,3-二酮;",
    "alternate_name": "Bicyclo[2.2.1]heptane-2,3-dione, 1,7,7-trimethyl-;2,3-Bornanedione, (±)-;Bicyclo[2.2.1]heptane-2,3-dione, 1,7,7-trimethyl-, (±)-;1,7,7-Trimethylbicyclo[2.2.1]heptane-2,3-dione;(±)-Camphorquinone;<em>dl</em>-2,3-Camphanedione;<em>dl</em>-Camphorquinone;Camphorquinone;Camphoquinone;Camphoroquinone;NSC 285;NSC 402031;<span class=\"text-smallcaps\">DL</span>-Bornane-2,3-dione;CQ;C 0014",
    "duplicated_cas_no": "465-29-2",
    "SMILES": "CC12C(C)(C)C(C(=O)C1=O)CC2",
    "meta_data": {
        "InChI": "InChI=1S/C10H14O2/c1-9(2)6-4-5-10(9,3)8(12)7(6)11/h6H,4-5H2,1-3H3",
        "InChIKey": null,
        "Canonical SMILES": "O=C1C(=O)C2(C)CCC1C2(C)C",
        "Molecular Formula": "C<sub>10</sub>H<sub>14</sub>O<sub>2</sub>",
        "Molecular Mass": "166.22",
        "Boiling Point": "90 °C @ Press: 20 Torr",
        "Melting Point": "198-200 °C"
    }
}