{
    "cas_no": "7778-83-8",
    "key_name": "Propyl cinnamate",
    "cn_name": "肉桂酸正丙酯;肉桂酸丙酯;3-苯基-2-丙烯酸丙酯;",
    "alternate_name": "2-Propenoic acid, 3-phenyl-, propyl ester;Cinnamic acid, propyl ester;Propyl cinnamate;<em>n</em>-Propyl cinnamate;Propyl 3-phenylacrylate;NSC 406146;Propyl 3-phenyl-2-acrylate",
    "duplicated_cas_no": "",
    "SMILES": "C(=CC(OCCC)=O)C1=CC=CC=C1",
    "meta_data": {
        "InChI": "InChI=1S/C12H14O2/c1-2-10-14-12(13)9-8-11-6-4-3-5-7-11/h3-9H,2,10H2,1H3",
        "InChIKey": null,
        "Canonical SMILES": "O=C(OCCC)C=CC=1C=CC=CC1",
        "Molecular Formula": "C<sub>12</sub>H<sub>14</sub>O<sub>2</sub>",
        "Molecular Mass": "190.24",
        "Boiling Point": "148 °C @ Press: 15 Torr",
        "Density": "1.0496 g/cm³ @ Temp: 20 °C"
    }
}