{
    "cas_no": "770-09-2",
    "key_name": "Benzyltrimethylsilane",
    "cn_name": "苄基三甲基硅烷;",
    "alternate_name": "Benzene, [(trimethylsilyl)methyl]-;Silane, benzyltrimethyl-;Silane, trimethyl(phenylmethyl)-;[(Trimethylsilyl)methyl]benzene;Benzyltrimethylsilane;α-Trimethylsilyltoluene;Trimethylbenzylsilane;(Trimethylsilyl)phenylmethane;Trimethyl(phenylmethyl)silane;NSC 107;(Phenylmethyl)trimethylsilane",
    "duplicated_cas_no": "",
    "SMILES": "C([Si](C)(C)C)C1=CC=CC=C1",
    "meta_data": {
        "InChI": "InChI=1S/C10H16Si/c1-11(2,3)9-10-7-5-4-6-8-10/h4-8H,9H2,1-3H3",
        "InChIKey": null,
        "Canonical SMILES": "C=1C=CC(=CC1)C[Si](C)(C)C",
        "Molecular Formula": "C<sub>10</sub>H<sub>16</sub>Si",
        "Molecular Mass": "164.32",
        "Boiling Point": "190.5 °C",
        "Density": "0.893 g/cm³"
    }
}