{
    "cas_no": "936329-97-4",
    "key_name": "Borate(1-), [[4-[(1,1-dimethylethoxy)carbonyl]-1-piperazinyl]methyl]trifluoro-, potassium (1:1), (<em>T</em>-4)-",
    "cn_name": null,
    "alternate_name": "Borate(1-), [[4-[(1,1-dimethylethoxy)carbonyl]-1-piperazinyl]methyl]trifluoro-, potassium (1:1), (<em>T</em>-4)-;Potassium ((4-(<em>tert</em>-butoxycarbonyl)piperazin-1-yl)methyl)trifluoroborate",
    "duplicated_cas_no": "2363163-31-7",
    "SMILES": "[CH2-]([B+3]([F-])([F-])[F-])N1CCN(C(OC(C)(C)C)=O)CC1.[K+]",
    "meta_data": {
        "InChI": "InChI=1S/C10H19BF3N2O2.K/c1-10(2,3)18-9(17)16-6-4-15(5-7-16)8-11(12,13)14;/h4-8H2,1-3H3;/q-1;+1",
        "InChIKey": null,
        "Canonical SMILES": "[K+].O=C(OC(C)(C)C)N1CCN(CC1)[CH2-][B+3]([F-])([F-])[F-]",
        "Molecular Formula": "C<sub>10</sub>H<sub>19</sub>BF<sub>3</sub>N<sub>2</sub>O<sub>2</sub>.K",
        "Molecular Mass": "",
        "Melting Point": "200 °C (decomp)"
    }
}