{
    "cas_no": "253863-19-3",
    "key_name": "(3<em>S</em>,5<em>Z</em>,8<em>S</em>,9<em>S</em>,11<em>E</em>)-3,4,9,10-Tetrahydro-8,9,16-trihydroxy-14-methoxy-3-methyl-1<em>H</em>-2-benzoxacyclotetradecin-1,7(8<em>H</em>)-dione",
    "cn_name": null,
    "alternate_name": "1<em>H</em>-2-Benzoxacyclotetradecin-1,7(8<em>H</em>)-dione, 3,4,9,10-tetrahydro-8,9,16-trihydroxy-14-methoxy-3-methyl-, (3<em>S</em>,5<em>Z</em>,8<em>S</em>,9<em>S</em>,11<em>E</em>)-;(3<em>S</em>,5<em>Z</em>,8<em>S</em>,9<em>S</em>,11<em>E</em>)-3,4,9,10-Tetrahydro-8,9,16-trihydroxy-14-methoxy-3-methyl-1<em>H</em>-2-benzoxacyclotetradecin-1,7(8<em>H</em>)-dione;L 783279;F 152;LL-Z 1640-2;C 292;f 152 A<sub>1</sub>;FR 148083;(-)-LL-Z 1640-2;(5<em>Z</em>)-7-Oxozeaenol;(5Z)-7-Oxozeaenol",
    "duplicated_cas_no": "66018-38-0",
    "SMILES": "",
    "meta_data": {
        "InChI": "",
        "InChIKey": null,
        "Canonical SMILES": "",
        "Molecular Formula": "C<sub>19</sub>H<sub>22</sub>O<sub>7</sub>",
        "Molecular Mass": "362.37",
        "Melting Point": "171-173 °C"
    }
}