{
    "cas_no": "7782-64-1",
    "key_name": "Manganese fluoride (MnF<sub>2</sub>)",
    "cn_name": "二氟化锰;氟化锰;氟化亚锰;",
    "alternate_name": "Manganese fluoride (MnF<sub>2</sub>);C.I. 77738;Manganese difluoride;Manganous fluoride;Manganese bifluoride;Manganese(II) fluoride",
    "duplicated_cas_no": "",
    "SMILES": "[Mn](F)F",
    "meta_data": {
        "InChI": "InChI=1S/2FH.Mn/h2*1H;/q;;+2/p-2",
        "InChIKey": null,
        "Canonical SMILES": "F[Mn]F",
        "Molecular Formula": "F<sub>2</sub>Mn",
        "Molecular Mass": "",
        "Melting Point": "930 °C",
        "Density": "3.8 g/cm³"
    }
}