{
    "cas_no": "569-77-7",
    "key_name": "Purpurogallin",
    "cn_name": "红陪酚;红倍酚;",
    "alternate_name": "5<em>H</em>-Benzocyclohepten-5-one, 2,3,4,6-tetrahydroxy-;Purpurogallin;2,3,4,6-Tetrahydroxy-5<em>H</em>-benzocyclohepten-5-one;NSC 35676;NSC 646653;2,3,4,6-Tetrahydroxy-5<em>H</em>-benzo[<em>a</em>]cyclohepten-5-one;NCI 35676;2,3,4,6-Tetrahydroxy-5<em>H</em>-benzo[7]annulen-5-one;2,3,4,5-Tetrahydroxybenzo[7]annulen-6-one",
    "duplicated_cas_no": "",
    "SMILES": "OC1=C2C(=CC(O)=C1O)C=CC=C(O)C2=O",
    "meta_data": {
        "InChI": "InChI=1S/C11H8O5/c12-6-3-1-2-5-4-7(13)10(15)11(16)8(5)9(6)14/h1-4,13,15-16H,(H,12,14)",
        "InChIKey": null,
        "Canonical SMILES": "O=C1C(O)=CC=CC=2C=C(O)C(O)=C(O)C12",
        "Molecular Formula": "C<sub>11</sub>H<sub>8</sub>O<sub>5</sub>",
        "Molecular Mass": "220.18",
        "Melting Point": "274.5 °C (decomp)"
    }
}