{
    "cas_no": "2601-90-3",
    "key_name": "<em>N</em>-Oleoylglycine",
    "cn_name": null,
    "alternate_name": "Glycine, <em>N</em>-[(9<em>Z</em>)-1-oxo-9-octadecen-1-yl]-;Glycine, <em>N</em>-oleoyl-;Glycine, <em>N</em>-(1-oxo-9-octadecenyl)-, (<em>Z</em>)-;Glycine, <em>N</em>-[(9<em>Z</em>)-1-oxo-9-octadecenyl]-;<em>N</em>-[(9<em>Z</em>)-1-Oxo-9-octadecen-1-yl]glycine;<em>N</em>-Oleoylglycine;2-Oleamidoacetic acid",
    "duplicated_cas_no": "",
    "SMILES": "C(CC(NCC(O)=O)=O)CCCCC/C=C\\CCCCCCCC",
    "meta_data": {
        "InChI": "InChI=1S/C20H37NO3/c1-2-3-4-5-6-7-8-9-10-11-12-13-14-15-16-17-19(22)21-18-20(23)24/h9-10H,2-8,11-18H2,1H3,(H,21,22)(H,23,24)/b10-9-",
        "InChIKey": null,
        "Canonical SMILES": "O=C(O)CNC(=O)CCCCCCCC=CCCCCCCCC",
        "Molecular Formula": "C<sub>20</sub>H<sub>37</sub>NO<sub>3</sub>",
        "Molecular Mass": "339.51",
        "Melting Point": "77-78 °C"
    }
}