{
    "cas_no": "1956-30-5",
    "key_name": "Uridine, 2′-deoxy-5-iodo-, 3′,5′-diacetate",
    "cn_name": "3,5-双乙酰基-5-碘代-2-脱氧尿苷;",
    "alternate_name": "Uridine, 2′-deoxy-5-iodo-, 3′,5′-diacetate;3′,5′-Di-<em>O</em>-acetyl-5-iodo-2′-deoxyuridine",
    "duplicated_cas_no": "",
    "SMILES": "O=C1N([C@@H]2O[C@H](COC(C)=O)[C@@H](OC(C)=O)C2)C=C(I)C(=O)N1",
    "meta_data": {
        "InChI": "InChI=1S/C13H15IN2O7/c1-6(17)21-5-10-9(22-7(2)18)3-11(23-10)16-4-8(14)12(19)15-13(16)20/h4,9-11H,3,5H2,1-2H3,(H,15,19,20)/t9-,10+,11+/m0/s1",
        "InChIKey": null,
        "Canonical SMILES": "O=C(OCC1OC(N2C=C(I)C(=O)NC2=O)CC1OC(=O)C)C",
        "Molecular Formula": "C<sub>13</sub>H<sub>15</sub>IN<sub>2</sub>O<sub>7</sub>",
        "Molecular Mass": "438.17",
        "Melting Point": "156-157 °C"
    }
}