{
    "cas_no": "18266-55-2",
    "key_name": "<em>N</em>-(2-Hydroxyethyl)propionamide",
    "cn_name": "N-(2-羟乙基)酰丙胺;",
    "alternate_name": "Propanamide, <em>N</em>-(2-hydroxyethyl)-;Propionamide, <em>N</em>-(2-hydroxyethyl)-;<em>N</em>-(2-Hydroxyethyl)propanamide;<em>N</em>-(β-Hydroxyethyl)propionamide;<em>N</em>-(2-Hydroxyethyl)propionamide;<em>N</em>-(2-Hydroxyethyl)propionic acid amide;NSC 6001;Propionylaminoethanol;<em>N</em>-(2-Hydroxylethyl)propionamide",
    "duplicated_cas_no": "",
    "SMILES": "C(NCCO)(CC)=O",
    "meta_data": {
        "InChI": "InChI=1S/C5H11NO2/c1-2-5(8)6-3-4-7/h7H,2-4H2,1H3,(H,6,8)",
        "InChIKey": null,
        "Canonical SMILES": "O=C(NCCO)CC",
        "Molecular Formula": "C<sub>5</sub>H<sub>11</sub>NO<sub>2</sub>",
        "Molecular Mass": "117.15",
        "Boiling Point": "201-203 °C @ Press: 10 Torr",
        "Melting Point": "46-48 °C",
        "Density": "1.071 g/cm³ @ Temp: 25 °C"
    }
}