{
    "cas_no": "147403-52-9",
    "key_name": "Methyl 2-ethoxy-1-[[2′-(5-oxo-4,5-dihydro-1,2,4-oxadiazol-3-yl)biphenyl-4-yl]methyl]-1<em>H</em>-benzimidazole-7-carboxylate",
    "cn_name": null,
    "alternate_name": "1<em>H</em>-Benzimidazole-7-carboxylic acid, 1-[[2′-(2,5-dihydro-5-oxo-1,2,4-oxadiazol-3-yl)[1,1′-biphenyl]-4-yl]methyl]-2-ethoxy-, methyl ester;Methyl 2-ethoxy-1-[[2′-(5-oxo-4,5-dihydro-1,2,4-oxadiazol-3-yl)biphenyl-4-yl]methyl]-1<em>H</em>-benzimidazole-7-carboxylate;Methyl 2-ethoxy-1-[[2′-(2,5-dihydro-5-oxo-1,2,4-oxadiazol-3-yl)biphenyl-4-yl]methyl]benzimidazole-7-carboxylate",
    "duplicated_cas_no": "",
    "SMILES": "C(N1C=2C(N=C1OCC)=CC=CC2C(OC)=O)C3=CC=C(C=C3)C4=C(C=CC=C4)C5=NOC(=O)N5",
    "meta_data": {
        "InChI": "InChI=1S/C26H22N4O5/c1-3-34-25-27-21-10-6-9-20(24(31)33-2)22(21)30(25)15-16-11-13-17(14-12-16)18-7-4-5-8-19(18)23-28-26(32)35-29-23/h4-14H,3,15H2,1-2H3,(H,28,29,32)",
        "InChIKey": null,
        "Canonical SMILES": "O=C1ON=C(N1)C=2C=CC=CC2C=3C=CC(=CC3)CN4C(=NC=5C=CC=C(C(=O)OC)C54)OCC",
        "Molecular Formula": "C<sub>26</sub>H<sub>22</sub>N<sub>4</sub>O<sub>5</sub>",
        "Molecular Mass": "470.48",
        "Melting Point": "192-196 °C"
    }
}