{
    "cas_no": "19932-84-4",
    "key_name": "6-Chloro-2,3-dihydrobenzoxazol-2-one",
    "cn_name": "6-氯苯并恶唑酮;",
    "alternate_name": "2(3<em>H</em>)-Benzoxazolone, 6-chloro-;2-Benzoxazolinone, 6-chloro-;6-Chloro-2(3<em>H</em>)-benzoxazolone;6-Chlorobenzoxazolone;6-Chloro-2-benzoxazolinone;6-Chloro-2-benzoxazolone;6-Chlorobenzoxazolinone;HOE 54014;6-Chloro-2,3-dihydrobenzoxazol-2-one;6-Chlorobenzoxazolone-2;NSC 26191;NSC 664284;6-Chloro-3<em>H</em>-benzoxazol-2-one;6-Chlorobenzo[<em>d</em>]oxazol-2(3<em>H</em>)-one",
    "duplicated_cas_no": "32850-85-4",
    "SMILES": "O=C1NC=2C(O1)=CC(Cl)=CC2",
    "meta_data": {
        "InChI": "InChI=1S/C7H4ClNO2/c8-4-1-2-5-6(3-4)11-7(10)9-5/h1-3H,(H,9,10)",
        "InChIKey": null,
        "Canonical SMILES": "O=C1OC2=CC(Cl)=CC=C2N1",
        "Molecular Formula": "C<sub>7</sub>H<sub>4</sub>ClNO<sub>2</sub>",
        "Molecular Mass": "169.57",
        "Melting Point": "196 °C"
    }
}