{
    "cas_no": "2924-09-6",
    "key_name": "5-Bromo-2-fluorobenzenamine",
    "cn_name": null,
    "alternate_name": "Benzenamine, 5-bromo-2-fluoro-;5-Bromo-2-fluorobenzenamine;5-Bromo-2-fluoroaniline;(5-Bromo-2-fluorophenyl)amine;2-Fluoro-5-bromoaniline",
    "duplicated_cas_no": "",
    "SMILES": "NC1=C(F)C=CC(Br)=C1",
    "meta_data": {
        "InChI": "InChI=1S/C6H5BrFN/c7-4-1-2-5(8)6(9)3-4/h1-3H,9H2",
        "InChIKey": null,
        "Canonical SMILES": "FC1=CC=C(Br)C=C1N",
        "Molecular Formula": "C<sub>6</sub>H<sub>5</sub>BrFN",
        "Molecular Mass": "190.01",
        "Boiling Point": "91-92 °C @ Press: 9 Torr"
    }
}