{
    "cas_no": "13031-60-2",
    "key_name": "Methyl 4-aminobutyrate hydrochloride",
    "cn_name": "4-氨基丁酸甲酯盐酸盐;",
    "alternate_name": "Butanoic acid, 4-amino-, methyl ester, hydrochloride (1:1);Butyric acid, 4-amino-, methyl ester, hydrochloride;Butanoic acid, 4-amino-, methyl ester, hydrochloride;4-Aminobutyric acid methyl ester hydrochloride;Methyl γ-aminobutyrate hydrochloride;GABA methyl ester hydrochloride;γ-Aminobutyric acid methyl ester hydrochloride;Methyl 4-aminobutyrate hydrochloride;Methyl 4-aminobutanoate hydrochloride;4-Aminobutanoic acid methyl ester hydrochloride;Methyl aminobutyrate hydrochloride",
    "duplicated_cas_no": "",
    "SMILES": "C(CCCN)(OC)=O.Cl",
    "meta_data": {
        "InChI": "InChI=1S/C5H11NO2.ClH/c1-8-5(7)3-2-4-6;/h2-4,6H2,1H3;1H",
        "InChIKey": null,
        "Canonical SMILES": "Cl.O=C(OC)CCCN",
        "Molecular Formula": "C<sub>5</sub>H<sub>11</sub>NO<sub>2</sub>.ClH",
        "Molecular Mass": "",
        "Melting Point": "105-107 °C"
    }
}