{
    "cas_no": "2362-14-3",
    "key_name": "1,1-Bis(4-hydroxy-3-methylphenyl)cyclohexane",
    "cn_name": "1,1\"-双(4-羟基-3-甲基苯基)环己烷;",
    "alternate_name": "Phenol, 4,4′-cyclohexylidenebis[2-methyl-;<em>o</em>-Cresol, 4,4′-cyclohexylidenedi-;4,4′-Cyclohexylidenebis[2-methylphenol];1,1-Bis(4-hydroxy-3-methylphenyl)cyclohexane;4,4′-Cyclohexylidenedi-<em>o</em>-cresol;Bis-OC-Z;1,1-Bis(3-methyl-4-hydroxyphenyl)cyclohexane;NSC 73731;4,4′-Cyclohexane-1,1-diylbis[2-methylphenol];Bisphenol CZ;1,1-Bis(4-hydroxy-3-methylphenyl)-3,3,5-cyclohexane;BPOCTMC;1,1-Bis(3-methyl-4-hydroxyphenyl)-3,3,5-cyclohexane;Bis(4-hydroxy-3-methylphenyl)cyclohexane",
    "duplicated_cas_no": "104282-79-3;75850-89-4",
    "SMILES": "CC=1C=C(C2(CCCCC2)C3=CC(C)=C(O)C=C3)C=CC1O",
    "meta_data": {
        "InChI": "InChI=1S/C20H24O2/c1-14-12-16(6-8-18(14)21)20(10-4-3-5-11-20)17-7-9-19(22)15(2)13-17/h6-9,12-13,21-22H,3-5,10-11H2,1-2H3",
        "InChIKey": null,
        "Canonical SMILES": "OC1=CC=C(C=C1C)C2(C3=CC=C(O)C(=C3)C)CCCCC2",
        "Molecular Formula": "C<sub>20</sub>H<sub>24</sub>O<sub>2</sub>",
        "Molecular Mass": "296.40",
        "Melting Point": "186 °C"
    }
}