{
    "cas_no": "25245-35-6",
    "key_name": "2-Iodo-1,4-dimethoxybenzene",
    "cn_name": "2-碘-1,4-二甲氧基苯;",
    "alternate_name": "Benzene, 2-iodo-1,4-dimethoxy-;2-Iodo-1,4-dimethoxybenzene;1-Iodo-2,5-dimethoxybenzene;1,4-Dimethoxy-2-iodobenzene;2,5-Dimethoxyiodobenzene;2,5-Dimethoxy-1-iodobenzene",
    "duplicated_cas_no": "",
    "SMILES": "O(C)C1=CC(I)=C(OC)C=C1",
    "meta_data": {
        "InChI": "InChI=1S/C8H9IO2/c1-10-6-3-4-8(11-2)7(9)5-6/h3-5H,1-2H3",
        "InChIKey": null,
        "Canonical SMILES": "IC1=CC(OC)=CC=C1OC",
        "Molecular Formula": "C<sub>8</sub>H<sub>9</sub>IO<sub>2</sub>",
        "Molecular Mass": "264.06",
        "Boiling Point": "118-120 °C @ Press: 3-4 Torr",
        "Melting Point": "&lt;50 °C"
    }
}