{
    "cas_no": "13794-14-4",
    "key_name": "2-Phenoxybutanoic acid",
    "cn_name": "2-苯氧基丁酸;",
    "alternate_name": "Butanoic acid, 2-phenoxy-;Butyric acid, 2-phenoxy-;Butyric acid, α-phenoxy-;2-Phenoxybutanoic acid;α-Phenoxybutyric acid;2-Phenoxybutyric acid;<span class=\"text-smallcaps\">DL</span>-2-Phenoxybutyric acid",
    "duplicated_cas_no": "10488-45-6",
    "SMILES": "O(C(C(O)=O)CC)C1=CC=CC=C1",
    "meta_data": {
        "InChI": "InChI=1S/C10H12O3/c1-2-9(10(11)12)13-8-6-4-3-5-7-8/h3-7,9H,2H2,1H3,(H,11,12)",
        "InChIKey": null,
        "Canonical SMILES": "O=C(O)C(OC=1C=CC=CC1)CC",
        "Molecular Formula": "C<sub>10</sub>H<sub>12</sub>O<sub>3</sub>",
        "Molecular Mass": "180.20",
        "Boiling Point": "258 °C",
        "Melting Point": "98 °C"
    }
}