{
    "cas_no": "4786-20-3",
    "key_name": "2-Butenenitrile",
    "cn_name": "巴豆腈;2-丁烯腈;丙烯基氰;",
    "alternate_name": "2-Butenenitrile;Crotononitrile;1-Cyanopropene;1-Propenyl cyanide;Crotonic nitrile;β-Methylacrylonitrile;NSC 165574",
    "duplicated_cas_no": "",
    "SMILES": "C(=CC)C#N",
    "meta_data": {
        "InChI": "InChI=1S/C4H5N/c1-2-3-4-5/h2-3H,1H3",
        "InChIKey": null,
        "Canonical SMILES": "N#CC=CC",
        "Molecular Formula": "C<sub>4</sub>H<sub>5</sub>N",
        "Molecular Mass": "67.09",
        "Boiling Point": "120.5 °C"
    }
}