{
    "cas_no": "51388-20-6",
    "key_name": "Benzenamine, 4-(phenylmethoxy)-, hydrochloride (1:1)",
    "cn_name": "4-苯甲氧基苯胺盐酸盐;4-苄氧基苯胺盐酸盐;",
    "alternate_name": "Benzenamine, 4-(phenylmethoxy)-, hydrochloride (1:1);Benzenamine, 4-(phenylmethoxy)-, hydrochloride;<em>p</em>-(Benzyloxy)aniline hydrochloride;4-(Benzyloxy)aniline hydrochloride;4-Benzyloxyaniline hydrochloric acid salt;4-Benzyloxyphenylamine hydrochloride;4-(Phenylmethoxy)aniline hydrochloride;4-[(Phenylmethyl)oxy]aniline hydrochloride;4-(Benzyloxy)aniline monohydrochloride",
    "duplicated_cas_no": "",
    "SMILES": "O(CC1=CC=CC=C1)C2=CC=C(N)C=C2.Cl",
    "meta_data": {
        "InChI": "InChI=1S/C13H13NO.ClH/c14-12-6-8-13(9-7-12)15-10-11-4-2-1-3-5-11;/h1-9H,10,14H2;1H",
        "InChIKey": null,
        "Canonical SMILES": "Cl.O(C1=CC=C(N)C=C1)CC=2C=CC=CC2",
        "Molecular Formula": "C<sub>13</sub>H<sub>13</sub>NO.ClH",
        "Molecular Mass": "",
        "Melting Point": "222-223 °C"
    }
}