{
    "cas_no": "998-29-8",
    "key_name": "Tripropylsilane",
    "cn_name": null,
    "alternate_name": "Silane, tripropyl-;Tripropylsilane;Tri-<em>n</em>-propylsilane;NSC 96837",
    "duplicated_cas_no": "",
    "SMILES": "[SiH](CCC)(CCC)CCC",
    "meta_data": {
        "InChI": "InChI=1S/C9H22Si/c1-4-7-10(8-5-2)9-6-3/h10H,4-9H2,1-3H3",
        "InChIKey": null,
        "Canonical SMILES": "CCC[SiH](CCC)CCC",
        "Molecular Formula": "C<sub>9</sub>H<sub>22</sub>Si",
        "Molecular Mass": "158.36",
        "Boiling Point": "172 °C",
        "Density": "0.758 g/cm³"
    }
}