{
    "cas_no": "179528-45-1",
    "key_name": "(2<em>Z</em>)-3-(4-Iodophenyl)-2-mercapto-2-propenoic acid",
    "cn_name": null,
    "alternate_name": "2-Propenoic acid, 3-(4-iodophenyl)-2-mercapto-, (2<em>Z</em>)-;2-Propenoic acid, 3-(4-iodophenyl)-2-mercapto-, (<em>Z</em>)-;(2<em>Z</em>)-3-(4-Iodophenyl)-2-mercapto-2-propenoic acid;PD 150606",
    "duplicated_cas_no": "179461-53-1",
    "SMILES": "C(=C(/C(O)=O)\\S)\\C1=CC=C(I)C=C1",
    "meta_data": {
        "InChI": "InChI=1S/C9H7IO2S/c10-7-3-1-6(2-4-7)5-8(13)9(11)12/h1-5,13H,(H,11,12)/b8-5-",
        "InChIKey": null,
        "Canonical SMILES": "O=C(O)C(S)=CC1=CC=C(I)C=C1",
        "Molecular Formula": "C<sub>9</sub>H<sub>7</sub>IO<sub>2</sub>S",
        "Molecular Mass": "306.12",
        "Melting Point": "160 °C"
    }
}