{
    "cas_no": "1778-02-5",
    "key_name": "Pregnenolone acetate",
    "cn_name": "孕烯诺龙乙酸酯;醋酸妊娠烯醇酮;",
    "alternate_name": "Pregn-5-en-20-one, 3-(acetyloxy)-, (3β)-;Pregn-5-en-20-one, 3β-hydroxy-, acetate;(3β)-3-(Acetyloxy)pregn-5-en-20-one;3β-Acetoxy-Δ<sup>5</sup>-pregnen-20-one;3β-Acetoxy-5-pregnen-20-one;Antofin;Artivis;Enescorb;Previsone;Sharmone;3β-Hydroxypregn-5-en-20-one acetate;Pregnenolone acetate;5-Pregnen-3β-ol-20-one acetate;3-Hydroxypregn-5-en-20-one acetate;Pregenolone acetate;Pregnenolone-3-acetate;NSC 64827;5-Pregnene-3β-acetoxy-20-one;3β-Pregn-5-enol-20-one acetate;3-Acetoxy-5-pregnene",
    "duplicated_cas_no": "2414115-00-5",
    "SMILES": "C[C@@]12[C@]([C@]3([C@](CC1)([C@]4(C)C(=CC3)C[C@@H](OC(C)=O)CC4)[H])[H])(CC[C@@H]2C(C)=O)[H]",
    "meta_data": {
        "InChI": "InChI=1S/C23H34O3/c1-14(24)19-7-8-20-18-6-5-16-13-17(26-15(2)25)9-11-22(16,3)21(18)10-12-23(19,20)4/h5,17-21H,6-13H2,1-4H3/t17-,18-,19+,20-,21-,22-,23+/m0/s1",
        "InChIKey": null,
        "Canonical SMILES": "O=C(OC1CC2=CCC3C(CCC4(C)C(C(=O)C)CCC34)C2(C)CC1)C",
        "Molecular Formula": "C<sub>23</sub>H<sub>34</sub>O<sub>3</sub>",
        "Molecular Mass": "358.51",
        "Melting Point": "148.5-149.5 °C"
    }
}