{
    "cas_no": "156223-05-1",
    "key_name": "DMXB-A",
    "cn_name": null,
    "alternate_name": "2,3′-Bipyridine, 3-[(2,4-dimethoxyphenyl)methylene]-3,4,5,6-tetrahydro-, hydrochloride (1:2), (3<em>E</em>)-;2,3′-Bipyridine, 3-[(2,4-dimethoxyphenyl)methylene]-3,4,5,6-tetrahydro-, dihydrochloride, (<em>E</em>)-;2,3′-Bipyridine, 3-[(2,4-dimethoxyphenyl)methylene]-3,4,5,6-tetrahydro-, dihydrochloride, (3<em>E</em>)-;GTS 21;DMXB-A;DMBX-anabaseine;3-2,4-Dimethoxybenzylidene anabaseine",
    "duplicated_cas_no": "",
    "SMILES": "C(=C\\1/C(=NCCC1)C=2C=CC=NC2)\\C3=C(OC)C=C(OC)C=C3.Cl",
    "meta_data": {
        "InChI": "InChI=1S/C19H20N2O2.2ClH/c1-22-17-8-7-14(18(12-17)23-2)11-15-5-4-10-21-19(15)16-6-3-9-20-13-16;;/h3,6-9,11-13H,4-5,10H2,1-2H3;2*1H/b15-11+;;",
        "InChIKey": null,
        "Canonical SMILES": "Cl.N=1C=CC=C(C1)C2=NCCCC2=CC3=CC=C(OC)C=C3OC",
        "Molecular Formula": "C<sub>19</sub>H<sub>20</sub>N<sub>2</sub>O<sub>2</sub>.2ClH",
        "Molecular Mass": "",
        "Melting Point": "216-217 °C (decomp)"
    }
}