{
    "cas_no": "7378-99-6",
    "key_name": "Dimethyloctylamine",
    "cn_name": "N,N,-二甲基-1-辛胺;N,N-二甲基正辛胺;",
    "alternate_name": "1-Octanamine, <em>N</em>,<em>N</em>-dimethyl-;Octylamine, <em>N</em>,<em>N</em>-dimethyl-;<em>N</em>,<em>N</em>-Dimethyl-1-octanamine;Dimethyloctylamine;<em>N</em>,<em>N</em>-Dimethyloctylamine;<em>N</em>,<em>N</em>-Dimethyl-<em>n</em>-octylamine;Octyldimethylamine;<em>N</em>-Octyldimethylamine;Dimethyl-<em>n</em>-octylamine;Farmin DM 08P;1-(Dimethylamino)octane;Adma 8;<em>N</em>-Octyl-<em>N</em>,<em>N</em>-dimethylamine;Farmin DM 0898;NSC 63928",
    "duplicated_cas_no": "",
    "SMILES": "C(CCCCC)CCN(C)C",
    "meta_data": {
        "InChI": "InChI=1S/C10H23N/c1-4-5-6-7-8-9-10-11(2)3/h4-10H2,1-3H3",
        "InChIKey": null,
        "Canonical SMILES": "N(C)(C)CCCCCCCC",
        "Molecular Formula": "C<sub>10</sub>H<sub>23</sub>N",
        "Molecular Mass": "157.30",
        "Boiling Point": "194 °C",
        "Density": "0.7688 g/cm³ @ Temp: 20 °C"
    }
}