{
    "uri": "substance/pt/1306065",
    "rn": "1306-06-5",
    "name": "Hydroxylapatite (Ca<sub>5</sub>(OH)(PO<sub>4</sub>)<sub>3</sub>)",
    "images": [],
    "inchi": "InChI=1S/Ca.H3O4P.H2O/c;1-5(2,3)4;/h;(H3,1,2,3,4);1H2/p-4",
    "inchiKey": "InChIKey=SNEQGKNGRFIHGW-UHFFFAOYSA-J",
    "smile": "[OH-].P(=O)([O-])([O-])[O-].[Ca]",
    "canonicalSmile": "[Ca].[OH-].O=P([O-])([O-])[O-]",
    "molecularFormula": "Ca.HO.O<sub>4</sub>P",
    "molecularMass": "",
    "experimentalProperties": [
        {
            "name": "Melting Point",
            "property": "1500 °C",
            "sourceNumber": 1
        },
        {
            "name": "Density",
            "property": "3.076 g/cm³ @ Temp: 18 °C",
            "sourceNumber": 2
        }
    ],
    "propertyCitations": [
        {
            "docUri": "document/pt/document/22328563",
            "sourceNumber": 1,
            "source": "Rathje, Werner; Bodenkunde und Pflanzenernaehrung, (1939), 12, 121-8, CAplus"
        },
        {
            "docUri": "document/pt/document/22593497",
            "sourceNumber": 2,
            "source": "Burri, Conrad; Schweizerische Mineralogische und Petrographische Mitteilungen, (1935), 15, 327-39, CAplus"
        }
    ],
    "synonyms": [
        "Hydroxylapatite (Ca<sub>5</sub>(OH)(PO<sub>4</sub>)<sub>3</sub>)",
        "Hydroxylapatite",
        "Monite",
        "Supertite 10",
        "Calcium hydroxyapatite",
        "Hydroxyapatite",
        "Tri-Tab",
        "Durapatite",
        "Apaceram",
        "HAP-B",
        "Synamel",
        "Hy-Apatite",
        "Interpore 500",
        "Apatite",
        "Interpore 200",
        "Boneceram P",
        "Bonfil",
        "FKI",
        "Apatite hydroxide (Ca<sub>10</sub>(PO<sub>4</sub>)<sub>6</sub>(OH)<sub>2</sub>)",
        "APAFILL-G",
        "AMDRY 6021",
        "Win 40350",
        "Alveograf",
        "Ceratite",
        "HA 300BP",
        "HW 004",
        "HA 200",
        "Captal R",
        "HW 004 (mineral)",
        "Captal 90",
        "HAP (mineral)",
        "HAP",
        "Captal",
        "Hydroxypol",
        "APP 600",
        "HAP 08NP",
        "PeriApatite",
        "ProOsteon",
        "Neobone",
        "SP 1",
        "Boneceram P-G 0",
        "Boneceram P-G 1",
        "Bone ject",
        "Boneceram K",
        "HAP-SC",
        "HAP 300",
        "Nukbone",
        "Captal 30",
        "Radiesse",
        "HAP 15NP",
        "Apapore",
        "Actifuse",
        "Cellyard-AX",
        "Apaceram-AX",
        "Captal 60-1",
        "Coralina HAP 200",
        "Engipore",
        "Apatite HAP",
        "CHT",
        "Bongros",
        "HAP 200",
        "P 218R",
        "Captal 30SD",
        "CHT Typell",
        "Apapore 60",
        "Apa-micron PP",
        "nano-SHAp-MHS 00405",
        "Cellyard",
        "HAP 100 (mineral)",
        "HAP 100",
        "Ostim 35",
        "nanoXIM.TCP 202",
        "nanoXIM.HAp 402",
        "Sintlife",
        "Micro-SHAp",
        "IHM 100P000",
        "Neo Active Apatite",
        "Fin-Granule",
        "Micro-SHAp IHM 100P000",
        "GAP 85UD",
        "Captal S",
        "Hydroxyapatite C",
        "BABI-HAP-N 100",
        "Radiesse K 100086592",
        "Metco 6903A",
        "CA-PATOH 018NP",
        "Kalident PF",
        "HAP 04",
        "GC 01-337",
        "Calcium hydroxide phosphate (Ca<sub>5</sub>(OH)(PO<sub>4</sub>)<sub>3</sub>)",
        "Calcium phosphate (Ca<sub>5</sub>OH(PO<sub>4</sub>)<sub>3</sub>)",
        "Calcium tribasic phosphate",
        "Calcium hydroxyphosphate (Ca<sub>10</sub>(OH)<sub>2</sub>(PO<sub>4</sub>)<sub>6</sub>)",
        "Calcium hydroxide phosphate (Ca<sub>10</sub>(OH)<sub>2</sub>(PO<sub>4</sub>)<sub>6</sub>)",
        "Pentacalcium hydroxide triphosphate",
        "Calcium phosphate (Ca<sub>10</sub>(OH)<sub>2</sub>(PO<sub>4</sub>)<sub>6</sub>)",
        "Calcium phosphate hydroxide (Ca<sub>10</sub>(PO<sub>4</sub>)<sub>6</sub>(OH)<sub>2</sub>)",
        "Calcium phosphate hydroxide (Ca<sub>5</sub>(PO<sub>4</sub>)<sub>3</sub>(OH))",
        "Decacalcium hexaphosphate dihydroxide",
        "Calcium hydroxyphosphate (Ca<sub>5</sub>(PO<sub>4</sub>)<sub>3</sub>OH)",
        "Pentacalcium hydroxylphosphate",
        "Hydroxyapatite (synthetic)",
        "Synthetic hydroxyapatite",
        "Epsolute C 1309",
        "Calcium phosphate hydroxyapatite",
        "Calcium hydroxide metaphosphate (Ca<sub>10</sub>(OH)<sub>2</sub>(PO<sub>3</sub>))",
        "Calcium hydride hydroxide phosphate (Ca<sub>10</sub>H(OH)(PO<sub>4</sub>)<sub>6</sub>)",
        "Calcium hydroxide oxide phosphide (Ca<sub>10</sub>(OH)<sub>2</sub>O<sub>3</sub>P<sub>6</sub>)",
        "Calcium hydroxide phosphate (Ca(OH)<sub>2</sub>(PO<sub>4</sub>)<sub>6</sub>)",
        "Colloidal tricalcium phosphate",
        "Phosphoric acid, tricalcium salt, colloidal",
        "Calcium hydroxide phosphate (Ca<sub>10</sub>(OH)<sub>2</sub>(PO<sub>4</sub>))",
        "Ety 851",
        "SWSW 0715157",
        "HQ-HA-Q 1"
    ],
    "replacedRns": [
        "1337-78-6",
        "12167-74-7",
        "12440-80-1",
        "29796-40-5",
        "136841-77-5",
        "196875-13-5",
        "205873-50-3",
        "221359-86-0",
        "947383-76-8",
        "1059174-00-3",
        "1398505-50-4",
        "2172828-58-7",
        "2376822-12-5",
        "2608052-30-6",
        "2639476-81-4",
        "2916501-27-2"
    ],
    "hasMolfile": true,
    "source": "https://commonchemistry.cas.org/detail?cas_rn=1306-06-5"
}