{
    "cas_no": "1030377-33-3",
    "key_name": "Suvorexant",
    "cn_name": null,
    "alternate_name": "Methanone, [(7<em>R</em>)-4-(5-chloro-2-benzoxazolyl)hexahydro-7-methyl-1<em>H</em>-1,4-diazepin-1-yl][5-methyl-2-(2<em>H</em>-1,2,3-triazol-2-yl)phenyl]-;[(7<em>R</em>)-4-(5-Chloro-2-benzoxazolyl)hexahydro-7-methyl-1<em>H</em>-1,4-diazepin-1-yl][5-methyl-2-(2<em>H</em>-1,2,3-triazol-2-yl)phenyl]methanone;5-Chloro-2-[(5<em>R</em>)-5-methyl-4-[5-methyl-2-(2<em>H</em>-1,2,3-triazol-2-yl)benzoyl]-1,4-diazepan-1-yl]-1,3-benzoxazole;MK 4305;Suvorexant;[(R)-4-(5-Chloro-benzooxazol-2-yl)-7-methyl-[1,4]diazepan-1-yl]-(5-methyl-2-[1,2,3]triazol-2-yl-phenyl)-methanone;Belsomra",
    "duplicated_cas_no": "",
    "SMILES": "C(=O)(C1=C(C=CC(C)=C1)N2N=CC=N2)N3CCN(CC[C@H]3C)C4=NC=5C(O4)=CC=C(Cl)C5",
    "meta_data": {
        "InChI": "InChI=1S/C23H23ClN6O2/c1-15-3-5-20(30-25-8-9-26-30)18(13-15)22(31)29-12-11-28(10-7-16(29)2)23-27-19-14-17(24)4-6-21(19)32-23/h3-6,8-9,13-14,16H,7,10-12H2,1-2H3/t16-/m1/s1",
        "InChIKey": null,
        "Canonical SMILES": "O=C(C1=CC(=CC=C1N2N=CC=N2)C)N3CCN(C4=NC=5C=C(Cl)C=CC5O4)CCC3C",
        "Molecular Formula": "C<sub>23</sub>H<sub>23</sub>ClN<sub>6</sub>O<sub>2</sub>",
        "Molecular Mass": "450.92",
        "Melting Point": "153.1 °C"
    }
}