{
    "cas_no": "39565-00-9",
    "key_name": "1-(5-Nitro-2-thienyl)ethanone",
    "cn_name": null,
    "alternate_name": "Ethanone, 1-(5-nitro-2-thienyl)-;Ketone, methyl 5-nitro-2-thienyl;1-(5-Nitro-2-thienyl)ethanone;2-Acetyl-5-nitrothiophene;5-Nitro-2-acetylthiophene;1-(5-Nitrothiophen-2-yl)ethan-1-one;1-(5-Nitrothiophen-2-yl)ethanone",
    "duplicated_cas_no": "",
    "SMILES": "C(C)(=O)C=1SC(N(=O)=O)=CC1",
    "meta_data": {
        "InChI": "InChI=1S/C6H5NO3S/c1-4(8)5-2-3-6(11-5)7(9)10/h2-3H,1H3",
        "InChIKey": null,
        "Canonical SMILES": "O=C(C=1SC(=CC1)N(=O)=O)C",
        "Molecular Formula": "C<sub>6</sub>H<sub>5</sub>NO<sub>3</sub>S",
        "Molecular Mass": "171.17",
        "Melting Point": "105-106 °C",
        "Density": "1.486 g/cm³ @ Press: 7 x 10⁷ Torr"
    }
}