{
    "cas_no": "130-16-5",
    "key_name": "5-Chloro-8-hydroxyquinoline",
    "cn_name": "5-氯-8-羟基喹啉;",
    "alternate_name": "8-Quinolinol, 5-chloro-;5-Chloro-8-quinolinol;5-Chloro-8-hydroxyquinoline;Dermofungin;Dermofongin;5-Chloro-8-oxyquinoline;Cloxyquin;5-Chlorooxine;8-Hydroxy-5-chloroquinoline;Cloxiquine;NSC 35083;NSC 53182;NSC 74943;5-Chloro-quinoline-8-ol",
    "duplicated_cas_no": "",
    "SMILES": "ClC=1C2=C(C(O)=CC1)N=CC=C2",
    "meta_data": {
        "InChI": "InChI=1S/C9H6ClNO/c10-7-3-4-8(12)9-6(7)2-1-5-11-9/h1-5,12H",
        "InChIKey": null,
        "Canonical SMILES": "ClC=1C=CC(O)=C2N=CC=CC12",
        "Molecular Formula": "C<sub>9</sub>H<sub>6</sub>ClNO",
        "Molecular Mass": "179.60",
        "Melting Point": "130 °C"
    }
}