{
    "cas_no": "7787-59-9",
    "key_name": "Bismuth oxychloride",
    "cn_name": null,
    "alternate_name": "Bismuthine, chlorooxo-;Bismuth chloride oxide (BiOCl);Bismuth chloride (BiOCl);Chlorooxobismuthine;C.I. 77163;Basic bismuth chloride;Bismuth oxychloride;Bismuthyl chloride;Blanc de Perle;Blanc d'Espagne;Chlorbismol;C.I. Pigment White 14;Cosmetic Bismuth;Flake White;Pearl Powder Mixture FCT 138A;Pearl Powder Mixture FCT 125A;Pearl Powder Mixture FCT 1251D;Pearl White;Spanish White;Bismuth chloride oxide (BiClO);Bismuth chloride oxide;Bismuth oxide chloride (BiOCl);Bismuth oxychloride (BiOCl);Biju;Bismuth subchloride;Mearlite;Pearl-Glo;Bi-Run;Bital;Pearl-Glo CO;Pearl-Glo MO;Biron;Pigment White 14;Mearlite GBU;Mearlite LBU;Chromalite Black;C.I. Pigment White 31;Bismuth monochloride monoxide;Mearlite Pearlescent EP 91143;Mearlite UltraFine OFS;Mearlite Ultrabright USD;Mearlite Radiant Pearl SUQ;Biron MTU;Biron ESQ;Biron B 50;Biron Fines;Biron LF 2000;Biron Silver CO;Nailsyn Sterling 60;Bi-Flair 66a;STL;UFI;PL 6-53D;Biron Liquid Silver;Rona Biron Silver;Chlorooxobismuth;Pearl-Glo UVR;Mearlite UPFMT;RonaFlair B 50;RonaFlair LF 2000;RonaFlair Fines;Biju Ultra UFC;Timiron Liquid Silver;RonaFlair EsQ;RonaFlair MTU;LC 100;L 100;Nailsyn Sterling 60 Silver",
    "duplicated_cas_no": "390394-83-9;1636184-71-8;2348404-37-3",
    "SMILES": "[Bi](Cl)=O",
    "meta_data": {
        "InChI": "InChI=1S/Bi.ClH.O/h;1H;/q+1;;/p-1",
        "InChIKey": null,
        "Canonical SMILES": "O=[Bi]Cl",
        "Molecular Formula": "BiClO",
        "Molecular Mass": "",
        "Melting Point": "&gt;600 °C (decomp)",
        "Density": "7.72 g/cm³"
    }
}