{
    "cas_no": "73-05-2",
    "key_name": "Phentolamine hydrochloride",
    "cn_name": "盐酸酚妥拉明;3-[4,5-二氢-1H-咪唑-2-基甲基-(4-甲基苯基)氨基]苯酚;",
    "alternate_name": "Phenol, 3-[[(4,5-dihydro-1<em>H</em>-imidazol-2-yl)methyl](4-methylphenyl)amino]-, hydrochloride (1:1);Phenol, <em>m</em>-[<em>N</em>-(2-imidazolin-2-ylmethyl)-<em>p</em>-toluidino]-, monohydrochloride;Phenol, 3-[[(4,5-dihydro-1<em>H</em>-imidazol-2-yl)methyl](4-methylphenyl)amino]-, monohydrochloride;DNP;<em>m</em>-[<em>N</em>-(2-Imidazolin-2-ylmethyl)-<em>p</em>-toluidino]phenol hydrochloride;Phentolamine hydrochloride;Regitine hydrochloride;Phentolamine chloride",
    "duplicated_cas_no": "",
    "SMILES": "N(CC=1NCCN1)(C2=CC(O)=CC=C2)C3=CC=C(C)C=C3.Cl",
    "meta_data": {
        "InChI": "InChI=1S/C17H19N3O.ClH/c1-13-5-7-14(8-6-13)20(12-17-18-9-10-19-17)15-3-2-4-16(21)11-15;/h2-8,11,21H,9-10,12H2,1H3,(H,18,19);1H",
        "InChIKey": null,
        "Canonical SMILES": "Cl.OC1=CC=CC(=C1)N(C2=CC=C(C=C2)C)CC3=NCCN3",
        "Molecular Formula": "C<sub>17</sub>H<sub>19</sub>N<sub>3</sub>O.ClH",
        "Molecular Mass": "",
        "Melting Point": "239-240 °C"
    }
}