{
    "cas_no": "124-30-1",
    "key_name": "Octadecylamine",
    "cn_name": "十八胺;十八烷基胺;硬脂胺;",
    "alternate_name": "1-Octadecanamine;Octadecylamine;Adogenen 142;Alamine 7;<em>n</em>-Octadecylamine;Stearylamine;<em>n</em>-Stearylamine;Alamine 7D;1-Octadecylamine;Kemamine P 990;1-Aminooctadecane;Armofilm;Armeen 18D;Nissan Amine AB;Stearamine;Crodamine 1.18D;Amine AB;Monooctadecylamine;Farmin 80;Armeen 18;ODA;Genamin SH 100;Kemamine P 990D;Amine 18D;Armeen 18D-FLK;NSC 9857;18D;Lipomin 18D;Farmin 80S;Farmin 86V;Farmin 80V;Lipomin HTD;Fentamine A 18",
    "duplicated_cas_no": "1341-47-5;8038-60-6;258339-97-8;457883-16-8;1533423-47-0;2031250-41-4",
    "SMILES": "C(CCCCCCCCC)CCCCCCCCN",
    "meta_data": {
        "InChI": "InChI=1S/C18H39N/c1-2-3-4-5-6-7-8-9-10-11-12-13-14-15-16-17-18-19/h2-19H2,1H3",
        "InChIKey": null,
        "Canonical SMILES": "NCCCCCCCCCCCCCCCCCC",
        "Molecular Formula": "C<sub>18</sub>H<sub>39</sub>N",
        "Molecular Mass": "269.51",
        "Boiling Point": "346.8 °C @ Press: 760 Torr",
        "Melting Point": "52.9 °C",
        "Density": "0.8618 g/cm³ @ Temp: 20 °C"
    }
}