{
    "cas_no": "339-43-5",
    "key_name": "Carbutamide",
    "cn_name": "氨磺丁脲;",
    "alternate_name": "Benzenesulfonamide, 4-amino-<em>N</em>-[(butylamino)carbonyl]-;Urea, 1-butyl-3-sulfanilyl-;Sulfanilamide, <em>N</em><sup>1</sup>-(butylcarbamoyl)-;4-Amino-<em>N</em>-[(butylamino)carbonyl]benzenesulfonamide;BZ 55;U 6987;Alentin;<em>N</em>-(4-Aminobenzenesulfonyl)-<em>N</em>′-butylurea;Aminophenurobutane;Bucarban;Bucrol;Burcol;<em>N</em>′-(Butylcarbamoyl)sulfanilamide;<em>N</em>-Butyl-<em>N</em>′-sulfanilylurea;1-Butyl-3-sulfanilylurea;Carbutamide;Emedan;Glucidoral;Glybutamide;Invenol;Nadisan;Norboral;Oranil;Orasulin;Diaboral;Oranyl;<em>N</em>′-(4-Aminobenzenesulfonyl)-<em>N</em>-butylurea;<em>N</em>′-(4-Aminophenylsulfonyl)-<em>N</em>-butylurea;<em>N</em>′-(4-Aminophenylsulfonyl)-<em>N</em>-<em>n</em>-butylurea;Carbutamid;<em>N</em>-Sulfanilyl-<em>N</em>′-butylurea;Bukarban;Nadizan;Butisulfina;Inbuton;Glucofren;NSC 242409;NSC 246862;1-(4-Aminophenyl)sulfonyl-3-butylurea;MeSH ID: D002271",
    "duplicated_cas_no": "1331317-37-3",
    "SMILES": "S(NC(NCCCC)=O)(=O)(=O)C1=CC=C(N)C=C1",
    "meta_data": {
        "InChI": "InChI=1S/C11H17N3O3S/c1-2-3-8-13-11(15)14-18(16,17)10-6-4-9(12)5-7-10/h4-7H,2-3,8,12H2,1H3,(H2,13,14,15)",
        "InChIKey": null,
        "Canonical SMILES": "O=C(NCCCC)NS(=O)(=O)C1=CC=C(N)C=C1",
        "Molecular Formula": "C<sub>11</sub>H<sub>17</sub>N<sub>3</sub>O<sub>3</sub>S",
        "Molecular Mass": "271.34",
        "Melting Point": "144-145 °C"
    }
}