{
    "cas_no": "26444-49-5",
    "key_name": "Cresyl diphenyl phosphate",
    "cn_name": null,
    "alternate_name": "Phosphoric acid, methylphenyl diphenyl ester;Phosphoric acid, diphenyl tolyl ester;Phenyl tolyl phosphate ((PhO)<sub>2</sub>(C<sub>7</sub>H<sub>7</sub>)PO);Phenyl tolyl phosphate ((PhO)<sub>2</sub>(C<sub>7</sub>H<sub>7</sub>O)PO);Cresyl diphenyl phosphate;Cresol diphenyl phosphate;Diphenyl cresyl phosphate;Diphenyl cresol phosphate;Phosphoric acid, cresyl diphenyl ester;Diphenyl tolyl phosphate;Tolyl diphenyl phosphate;Monocresyl diphenyl phosphate;Methylphenyl diphenyl phosphate;Disflamoll DPK;Phosflex 112;CDP;Cresyl DPP;Kronitex CDP;Phosflex CDP;Durad CDP;WSFR-CDP",
    "duplicated_cas_no": "1323-17-7;627081-24-7",
    "SMILES": "",
    "meta_data": {
        "InChI": "",
        "InChIKey": null,
        "Canonical SMILES": "",
        "Molecular Formula": "C<sub>19</sub>H<sub>17</sub>O<sub>4</sub>P",
        "Molecular Mass": "",
        "Boiling Point": "390 °C @ Press: 760 Torr",
        "Density": "1.208 g/cm³ @ Temp: 25 °C"
    }
}