{
    "cas_no": "546-18-9",
    "key_name": "5β-Cholanic acid",
    "cn_name": "5β-胆烷酸;",
    "alternate_name": "Cholan-24-oic acid, (5β)-;5β-Cholan-24-oic acid;5β-Cholanic acid;(5β)-Cholan-24-oic acid;5β-Cholanoic acid;Ursocholanic acid;L 596205-0;Androstane-17-butanoic acid, γ-methyl-, (5β,17β)-;Cholanoic acid;NSC 18161",
    "duplicated_cas_no": "",
    "SMILES": "C[C@@]12[C@]([C@]3([C@](CC1)([C@]4(C)[C@](CC3)(CCCC4)[H])[H])[H])(CC[C@@]2([C@@H](CCC(O)=O)C)[H])[H]",
    "meta_data": {
        "InChI": "InChI=1S/C24H40O2/c1-16(7-12-22(25)26)19-10-11-20-18-9-8-17-6-4-5-14-23(17,2)21(18)13-15-24(19,20)3/h16-21H,4-15H2,1-3H3,(H,25,26)/t16-,17+,18+,19-,20+,21+,23+,24-/m1/s1",
        "InChIKey": null,
        "Canonical SMILES": "O=C(O)CCC(C)C1CCC2C3CCC4CCCCC4(C)C3CCC12C",
        "Molecular Formula": "C<sub>24</sub>H<sub>40</sub>O<sub>2</sub>",
        "Molecular Mass": "360.57",
        "Melting Point": "150 °C"
    }
}