{
    "cas_no": "1678-43-9",
    "key_name": "Benzoin tosylate",
    "cn_name": "2-苯基-2-对甲苯磺酰氧基苯乙酮;",
    "alternate_name": "Ethanone, 2-[[(4-methylphenyl)sulfonyl]oxy]-1,2-diphenyl-;Benzoin, <em>p</em>-toluenesulfonate;2-[[(4-Methylphenyl)sulfonyl]oxy]-1,2-diphenylethanone;Desyl tosylate;CG 21-746;α-Tosyloxydeoxybenzoin;Benzoin tosylate;Benzoin 4-toluenesulfonate;2-Oxo-1,2-diphenylethyl 4-methylbenzenesulfonate",
    "duplicated_cas_no": "124481-37-4",
    "SMILES": "C(C(=O)C1=CC=CC=C1)(OS(=O)(=O)C2=CC=C(C)C=C2)C3=CC=CC=C3",
    "meta_data": {
        "InChI": "InChI=1S/C21H18O4S/c1-16-12-14-19(15-13-16)26(23,24)25-21(18-10-6-3-7-11-18)20(22)17-8-4-2-5-9-17/h2-15,21H,1H3",
        "InChIKey": null,
        "Canonical SMILES": "O=C(C=1C=CC=CC1)C(OS(=O)(=O)C2=CC=C(C=C2)C)C=3C=CC=CC3",
        "Molecular Formula": "C<sub>21</sub>H<sub>18</sub>O<sub>4</sub>S",
        "Molecular Mass": "366.43",
        "Melting Point": "105.5-106 °C"
    }
}