{
    "cas_no": "557-31-3",
    "key_name": "3-Ethoxy-1-propene",
    "cn_name": "丙烯基乙醚;烯丙基乙基醚;乙基烯丙基醚;",
    "alternate_name": "1-Propene, 3-ethoxy-;Ether, allyl ethyl;3-Ethoxy-1-propene;Allyl ethyl ether;Ethyl allyl ether;Ethyl 2-propenyl ether",
    "duplicated_cas_no": "",
    "SMILES": "C(OCC)C=C",
    "meta_data": {
        "InChI": "InChI=1S/C5H10O/c1-3-5-6-4-2/h3H,1,4-5H2,2H3",
        "InChIKey": null,
        "Canonical SMILES": "O(CC=C)CC",
        "Molecular Formula": "C<sub>5</sub>H<sub>10</sub>O",
        "Molecular Mass": "86.13",
        "Boiling Point": "67.6 °C",
        "Density": "0.8664 g/cm³ @ Temp: 20 °C"
    }
}