{
    "cas_no": "4249-19-8",
    "key_name": "<span class=\"text-smallcaps\">L</span>-β-Aminoisobutyric acid",
    "cn_name": null,
    "alternate_name": "Propanoic acid, 3-amino-2-methyl-, (2<em>S</em>)-;β-Alanine, 2-methyl-, <span class=\"text-smallcaps\">L</span>-;Propanoic acid, 3-amino-2-methyl-, (<em>S</em>)-;(2<em>S</em>)-3-Amino-2-methylpropanoic acid;<span class=\"text-smallcaps\">L</span>-β-Aminoisobutyric acid;(+)-α-Methyl-β-alanine;(<em>S</em>)-β-Aminoisobutyric acid;<span class=\"text-smallcaps\">L</span>-3-Amino-2-methylpropionic acid;(+)-β-Aminoisobutyric acid;<span class=\"text-smallcaps\">L</span>-3-Amino-2-methylpropanoic acid;(<em>S</em>)-3-Amino-2-methylpropionic acid;<span class=\"text-smallcaps\">L</span>-3-Aminoisobutyric acid;(+)-3-Amino-2-methylpropionic acid;2(<em>S</em>)-Methyl-β-alanine;(2S)-3-Amino-2-methylpropanoic acid;(<em>S</em>)-3-Amino-2-methylpropanoic acid",
    "duplicated_cas_no": "",
    "SMILES": "[C@@H](C(O)=O)(CN)C",
    "meta_data": {
        "InChI": "InChI=1S/C4H9NO2/c1-3(2-5)4(6)7/h3H,2,5H2,1H3,(H,6,7)/t3-/m0/s1",
        "InChIKey": null,
        "Canonical SMILES": "O=C(O)C(C)CN",
        "Molecular Formula": "C<sub>4</sub>H<sub>9</sub>NO<sub>2</sub>",
        "Molecular Mass": "103.12",
        "Melting Point": "179 °C"
    }
}