{
    "cas_no": "1331-81-3",
    "key_name": "Anisyl alcohol",
    "cn_name": null,
    "alternate_name": "Benzenemethanol, <em>ar</em>-methoxy-;Benzyl alcohol, <em>ar</em>-methoxy-;Anisyl alcohol;<em>ar</em>-Methoxybenzenemethanol;Methoxybenzyl alcohol",
    "duplicated_cas_no": "",
    "SMILES": "",
    "meta_data": {
        "InChI": "",
        "InChIKey": null,
        "Canonical SMILES": "",
        "Molecular Formula": "C<sub>8</sub>H<sub>10</sub>O<sub>2</sub>",
        "Molecular Mass": "",
        "Boiling Point": "141-143 °C",
        "Melting Point": "23.7 °C",
        "Density": "1.1064 g/cm³ @ Temp: 30 °C"
    }
}