{
    "cas_no": "869572-92-9",
    "key_name": "Tecovirimat",
    "cn_name": null,
    "alternate_name": "Benzamide, <em>N</em>-[(3a<em>R</em>,4<em>R</em>,4a<em>R</em>,5a<em>S</em>,6<em>S</em>,6a<em>S</em>)-3,3a,4,4a,5,5a,6,6a-octahydro-1,3-dioxo-4,6-ethenocycloprop[<em>f</em>]isoindol-2(1<em>H</em>)-yl]-4-(trifluoromethyl)-, <em>rel</em>-;<em>rel</em>-<em>N</em>-[(3a<em>R</em>,4<em>R</em>,4a<em>R</em>,5a<em>S</em>,6<em>S</em>,6a<em>S</em>)-3,3a,4,4a,5,5a,6,6a-Octahydro-1,3-dioxo-4,6-ethenocycloprop[<em>f</em>]isoindol-2(1<em>H</em>)-yl]-4-(trifluoromethyl)benzamide;ST 246;Tecovirimat;SIGA 246;TPOXX",
    "duplicated_cas_no": "816458-31-8;935766-08-8;935839-17-1;1235612-96-0",
    "SMILES": "O=C1[C@]2([C@]([C@@]3([C@@]4([C@]([C@]2(C=C3)[H])(C4)[H])[H])[H])(C(=O)N1NC(=O)C5=CC=C(C(F)(F)F)C=C5)[H])[H]",
    "meta_data": {
        "InChI": "InChI=1/C19H15F3N2O3/c20-19(21,22)9-3-1-8(2-4-9)16(25)23-24-17(26)14-10-5-6-11(13-7-12(10)13)15(14)18(24)27/h1-6,10-15H,7H2,(H,23,25)/t10-,11+,12+,13-,14-,15+",
        "InChIKey": null,
        "Canonical SMILES": "O=C(NN1C(=O)C2C3C=CC(C2C1=O)C4CC34)C5=CC=C(C=C5)C(F)(F)F",
        "Molecular Formula": "C<sub>19</sub>H<sub>15</sub>F<sub>3</sub>N<sub>2</sub>O<sub>3</sub>",
        "Molecular Mass": "376.33",
        "Melting Point": "194-195 °C"
    }
}