{
    "cas_no": "925-90-6",
    "key_name": "Ethylmagnesium bromide",
    "cn_name": "乙基溴化镁;溴化乙基鎂;",
    "alternate_name": "Magnesium, bromoethyl-;Ethylmagnesium bromide;Bromoethylmagnesium",
    "duplicated_cas_no": "6000-67-5",
    "SMILES": "C([Mg]Br)C",
    "meta_data": {
        "InChI": "InChI=1S/C2H5.BrH.Mg/c1-2;;/h1H2,2H3;1H;/q;;+1/p-1",
        "InChIKey": null,
        "Canonical SMILES": "Br[Mg]CC",
        "Molecular Formula": "C<sub>2</sub>H<sub>5</sub>BrMg",
        "Molecular Mass": "",
        "Boiling Point": "57-75 °C @ Press: 43 Torr",
        "Melting Point": "72.4-73.8 °C"
    }
}