{
    "cas_no": "10517-50-7",
    "key_name": "2-Amino-α-methylbenzenemethanol",
    "cn_name": null,
    "alternate_name": "Benzenemethanol, 2-amino-α-methyl-;Benzyl alcohol, <em>o</em>-amino-α-methyl-;2-Amino-α-methylbenzenemethanol;2-Amino-α-methylbenzyl alcohol;α-Methyl-<em>o</em>-aminobenzyl alcohol;2-(1-Hydroxyethyl)aniline;<em>o</em>-Amino-α-methylbenzyl alcohol;1-(2′-Aminophenyl)ethanol;1-(2-Aminophenyl)ethan-1-ol",
    "duplicated_cas_no": "57793-77-8",
    "SMILES": "C(C)(O)C1=C(N)C=CC=C1",
    "meta_data": {
        "InChI": "InChI=1S/C8H11NO/c1-6(10)7-4-2-3-5-8(7)9/h2-6,10H,9H2,1H3",
        "InChIKey": null,
        "Canonical SMILES": "OC(C=1C=CC=CC1N)C",
        "Molecular Formula": "C<sub>8</sub>H<sub>11</sub>NO",
        "Molecular Mass": "137.18",
        "Boiling Point": "100-105 °C @ Press: 0.6 Torr",
        "Melting Point": "48-50 °C",
        "Density": "1.0791 g/cm³ @ Temp: 20 °C"
    }
}