{
    "cas_no": "118024-26-3",
    "key_name": "Blumeatin",
    "cn_name": null,
    "alternate_name": "4<em>H</em>-1-Benzopyran-4-one, 2-(3,5-dihydroxyphenyl)-2,3-dihydro-5-hydroxy-7-methoxy-, (2<em>S</em>)-;(2<em>S</em>)-2-(3,5-Dihydroxyphenyl)-2,3-dihydro-5-hydroxy-7-methoxy-4<em>H</em>-1-benzopyran-4-one;Blumeatin;5,3′,5′-Trihydroxy-7-methoxyflavanone;(-)-Blumeatin;(<em>S</em>)-(-)-Blumeatin",
    "duplicated_cas_no": "",
    "SMILES": "O=C1C=2C(O[C@@H](C1)C3=CC(O)=CC(O)=C3)=CC(OC)=CC2O",
    "meta_data": {
        "InChI": "InChI=1S/C16H14O6/c1-21-11-5-12(19)16-13(20)7-14(22-15(16)6-11)8-2-9(17)4-10(18)3-8/h2-6,14,17-19H,7H2,1H3/t14-/m0/s1",
        "InChIKey": null,
        "Canonical SMILES": "O=C1C2=C(O)C=C(OC)C=C2OC(C=3C=C(O)C=C(O)C3)C1",
        "Molecular Formula": "C<sub>16</sub>H<sub>14</sub>O<sub>6</sub>",
        "Molecular Mass": "302.28",
        "Melting Point": "218-220 °C"
    }
}