{
    "cas_no": "1771-18-2",
    "key_name": "2-Methoxy-10<em>H</em>-phenothiazine",
    "cn_name": "2-甲氧基吩噻嗪;",
    "alternate_name": "10<em>H</em>-Phenothiazine, 2-methoxy-;Phenothiazine, 2-methoxy-;2-Methoxy-10<em>H</em>-phenothiazine;2-Methoxyphenothiazine;NSC 72107;MP-H",
    "duplicated_cas_no": "",
    "SMILES": "O(C)C=1C=C2C(SC=3C(N2)=CC=CC3)=CC1",
    "meta_data": {
        "InChI": "InChI=1S/C13H11NOS/c1-15-9-6-7-13-11(8-9)14-10-4-2-3-5-12(10)16-13/h2-8,14H,1H3",
        "InChIKey": null,
        "Canonical SMILES": "O(C1=CC=C2SC=3C=CC=CC3NC2=C1)C",
        "Molecular Formula": "C<sub>13</sub>H<sub>11</sub>NOS",
        "Molecular Mass": "229.30",
        "Melting Point": "184.5 °C"
    }
}