{
    "cas_no": "6443-85-2",
    "key_name": "3-Pyridineacetonitrile",
    "cn_name": "3-吡啶乙腈;吡啶-3-乙腈;",
    "alternate_name": "3-Pyridineacetonitrile;3-Cyanomethylpyridine;3-Pyridylacetonitrile;RG 84098;NSC 83226;Pyridin-3-ylacetonitrile;2-(Pyridin-3-yl)acetonitrile;2-(3-Pyridyl)acetonitrile",
    "duplicated_cas_no": "",
    "SMILES": "C(C#N)C=1C=CC=NC1",
    "meta_data": {
        "InChI": "InChI=1S/C7H6N2/c8-4-3-7-2-1-5-9-6-7/h1-2,5-6H,3H2",
        "InChIKey": null,
        "Canonical SMILES": "N#CCC=1C=NC=CC1",
        "Molecular Formula": "C<sub>7</sub>H<sub>6</sub>N<sub>2</sub>",
        "Molecular Mass": "118.14",
        "Boiling Point": "91 °C @ Press: 2 Torr",
        "Melting Point": "99-100 °C"
    }
}