{
    "cas_no": "17230-88-5",
    "key_name": "Danazol",
    "cn_name": "达那唑;17alpha-孕甾-2,4-二烯-20-炔并[2,3-d]异噁唑-17beta-醇;炔羟雄烯异噁唑;",
    "alternate_name": "Pregna-2,4-dien-20-yno[2,3-<em>d</em>]isoxazol-17-ol, (17α)-;17α-Pregna-2,4-dien-20-yno[2,3-<em>d</em>]isoxazol-17-ol;1<em>H</em>-Cyclopenta[7,8]phenanthro[3,2-<em>d</em>]isoxazol-1-ol, 1-ethynyl-2,3,3a,3b,4,5,10,10a,10b,11,12,12a-dodecahydro-10a,12a-dimethyl-;1<em>H</em>-Cyclopenta[7,8]phenanthro[3,2-<em>d</em>]isoxazole, pregna-2,4-dien-20-yno[2,3-<em>d</em>]isoxazol-17-ol deriv.;(17α)-Pregna-2,4-dien-20-yno[2,3-<em>d</em>]isoxazol-17-ol;Danazol;Win 17757;Danocrine;Danzol;Cyclomen;Danazolum;17α-Pregna-2,4-dien-20-yne-[2,3-<em>d</em>]isoxazole-17β-ol;Chronogyn;Winobanin;Ladogal;Danovaol;Bonzol;Danol;NSC 270916;Danatrol;Danalem;MeSH ID: D003613",
    "duplicated_cas_no": "",
    "SMILES": "C[C@@]12[C@@]3([C@]([C@]4([C@](C)(CC3)[C@@](C#C)(O)CC4)[H])(CCC1=CC5=C(C2)C=NO5)[H])[H]",
    "meta_data": {
        "InChI": "InChI=1S/C22H27NO2/c1-4-22(24)10-8-18-16-6-5-15-11-19-14(13-23-25-19)12-20(15,2)17(16)7-9-21(18,22)3/h1,11,13,16-18,24H,5-10,12H2,2-3H3/t16-,17+,18+,20+,21+,22+/m1/s1",
        "InChIKey": null,
        "Canonical SMILES": "C#CC1(O)CCC2C3CCC4=CC=5ON=CC5CC4(C)C3CCC21C",
        "Molecular Formula": "C<sub>22</sub>H<sub>27</sub>NO<sub>2</sub>",
        "Molecular Mass": "337.46",
        "Melting Point": "225.6 °C"
    }
}