{
    "cas_no": "321-14-2",
    "key_name": "5-Chlorosalicylic acid",
    "cn_name": "5-氯代水杨酸;5-氯-2-羟基苯甲酸;",
    "alternate_name": "Benzoic acid, 5-chloro-2-hydroxy-;Salicylic acid, 5-chloro-;5-Chloro-2-hydroxybenzoic acid;5-Chlorosalicylic acid;2-Hydroxy-5-chlorobenzoic acid;NSC 30111",
    "duplicated_cas_no": "",
    "SMILES": "C(O)(=O)C1=C(O)C=CC(Cl)=C1",
    "meta_data": {
        "InChI": "InChI=1S/C7H5ClO3/c8-4-1-2-6(9)5(3-4)7(10)11/h1-3,9H,(H,10,11)",
        "InChIKey": null,
        "Canonical SMILES": "O=C(O)C1=CC(Cl)=CC=C1O",
        "Molecular Formula": "C<sub>7</sub>H<sub>5</sub>ClO<sub>3</sub>",
        "Molecular Mass": "172.57",
        "Melting Point": "171.5 °C"
    }
}