{
    "cas_no": "73404-00-9",
    "key_name": "α-[4-[2-(Diethylamino)ethoxy]phenyl]-α-phenylbenzeneethanol",
    "cn_name": null,
    "alternate_name": "Benzeneethanol, α-[4-[2-(diethylamino)ethoxy]phenyl]-α-phenyl-;Ethanol, 1-[<em>p</em>-[2-(diethylamino)ethoxy]phenyl]-1,2-diphenyl-;α-[4-[2-(Diethylamino)ethoxy]phenyl]-α-phenylbenzeneethanol;1-[4-[2-(Diethylamino)ethoxy]phenyl]-1,2-diphenylethanol",
    "duplicated_cas_no": "",
    "SMILES": "C(CC1=CC=CC=C1)(O)(C2=CC=C(OCCN(CC)CC)C=C2)C3=CC=CC=C3",
    "meta_data": {
        "InChI": "InChI=1S/C26H31NO2/c1-3-27(4-2)19-20-29-25-17-15-24(16-18-25)26(28,23-13-9-6-10-14-23)21-22-11-7-5-8-12-22/h5-18,28H,3-4,19-21H2,1-2H3",
        "InChIKey": null,
        "Canonical SMILES": "OC(C=1C=CC=CC1)(C2=CC=C(OCCN(CC)CC)C=C2)CC=3C=CC=CC3",
        "Molecular Formula": "C<sub>26</sub>H<sub>31</sub>NO<sub>2</sub>",
        "Molecular Mass": "389.53",
        "Melting Point": "95-96 °C"
    }
}