{
    "cas_no": "104901-43-1",
    "key_name": "Methyl 3-bromo-4-methylbenzoate",
    "cn_name": "3-溴-4-甲基苯甲酸甲酯;",
    "alternate_name": "Benzoic acid, 3-bromo-4-methyl-, methyl ester;Methyl 3-bromo-4-methylbenzoate;3-Bromo-4-methylbenzoic acid methyl ester;4-Methyl-3-bromobenzoic acid methyl ester;3-Bromo-4-methylbenzenecarboxylic acid methyl ester",
    "duplicated_cas_no": "",
    "SMILES": "C(OC)(=O)C1=CC(Br)=C(C)C=C1",
    "meta_data": {
        "InChI": "InChI=1S/C9H9BrO2/c1-6-3-4-7(5-8(6)10)9(11)12-2/h3-5H,1-2H3",
        "InChIKey": null,
        "Canonical SMILES": "O=C(OC)C1=CC=C(C(Br)=C1)C",
        "Molecular Formula": "C<sub>9</sub>H<sub>9</sub>BrO<sub>2</sub>",
        "Molecular Mass": "229.07",
        "Boiling Point": "125-130 °C @ Press: 0.1 Torr"
    }
}