{
    "cas_no": "4504-96-5",
    "key_name": "1-Propanamine, 3-dibenz[<em>b</em>,<em>e</em>]oxepin-11(6<em>H</em>)-ylidene-<em>N</em>-methyl-, hydrochloride (1:1), (3<em>E</em>)-",
    "cn_name": null,
    "alternate_name": "1-Propanamine, 3-dibenz[<em>b</em>,<em>e</em>]oxepin-11(6<em>H</em>)-ylidene-<em>N</em>-methyl-, hydrochloride (1:1), (3<em>E</em>)-;Dibenz[<em>b</em>,<em>e</em>]oxepin-Δ<sup>11(6</sup><em><sup>H</sup></em><sup>),γ</sup>-propylamine, <em>N</em>-methyl-, hydrochloride, <em>cis</em>-;1-Propanamine, 3-dibenz[<em>b</em>,<em>e</em>]oxepin-11(6<em>H</em>)-ylidene-<em>N</em>-methyl-, hydrochloride, (<em>E</em>)-;Dibenz[<em>b</em>,<em>e</em>]oxepin, 1-propanamine deriv.",
    "duplicated_cas_no": "",
    "SMILES": "C(\\CCNC)=C/1\\C=2C(COC=3C1=CC=CC3)=CC=CC2.Cl",
    "meta_data": {
        "InChI": "InChI=1S/C18H19NO.ClH/c1-19-12-6-10-16-15-8-3-2-7-14(15)13-20-18-11-5-4-9-17(16)18;/h2-5,7-11,19H,6,12-13H2,1H3;1H/b16-10+;",
        "InChIKey": null,
        "Canonical SMILES": "Cl.O1C=2C=CC=CC2C(=CCCNC)C=3C=CC=CC3C1",
        "Molecular Formula": "C<sub>18</sub>H<sub>19</sub>NO.ClH",
        "Molecular Mass": "",
        "Melting Point": "225-226.5 °C"
    }
}