{
    "cas_no": "149082-03-1",
    "key_name": "3,5-Dimethyl-4-nitro-2-pyridinemethanol",
    "cn_name": "3,5-二甲基-4-硝基吡啶-2-甲醇;",
    "alternate_name": "2-Pyridinemethanol, 3,5-dimethyl-4-nitro-;3,5-Dimethyl-4-nitro-2-pyridinemethanol;2-(Hydroxymethyl)-3,5-dimethyl-4-nitropyridine;3,5-Dimethyl-4-nitropyridine-2-methanol;4-Nitro-3,5-dimethyl-2-(hydroxymethyl)pyridine;(3,5-Dimethyl-4-nitropyridin-2-yl)methanol;3,5-Dimethyl-2-hydroxymethyl-4-nitropyridine",
    "duplicated_cas_no": "",
    "SMILES": "N(=O)(=O)C=1C(C)=C(CO)N=CC1C",
    "meta_data": {
        "InChI": "InChI=1S/C8H10N2O3/c1-5-3-9-7(4-11)6(2)8(5)10(12)13/h3,11H,4H2,1-2H3",
        "InChIKey": null,
        "Canonical SMILES": "O=N(=O)C=1C(=CN=C(C1C)CO)C",
        "Molecular Formula": "C<sub>8</sub>H<sub>10</sub>N<sub>2</sub>O<sub>3</sub>",
        "Molecular Mass": "182.18",
        "Melting Point": "65.2-66 °C"
    }
}