{
    "cas_no": "27063-98-5",
    "key_name": "3-Bromo-4,5-dimethylpyridine",
    "cn_name": null,
    "alternate_name": "Pyridine, 3-bromo-4,5-dimethyl-;3,4-Lutidine, 5-bromo-;3-Bromo-4,5-dimethylpyridine;5-Bromo-3,4-dimethylpyridine",
    "duplicated_cas_no": "",
    "SMILES": "CC=1C(Br)=CN=CC1C",
    "meta_data": {
        "InChI": "InChI=1S/C7H8BrN/c1-5-3-9-4-7(8)6(5)2/h3-4H,1-2H3",
        "InChIKey": null,
        "Canonical SMILES": "BrC1=CN=CC(=C1C)C",
        "Molecular Formula": "C<sub>7</sub>H<sub>8</sub>BrN",
        "Molecular Mass": "186.05",
        "Boiling Point": "38 °C @ Press: 40 Torr",
        "Melting Point": "33-34 °C"
    }
}