{
    "cas_no": "1975-51-5",
    "key_name": "2-Methyl-4-nitrobenzoic acid",
    "cn_name": "2-甲基-4-硝基苯甲酸;",
    "alternate_name": "Benzoic acid, 2-methyl-4-nitro-;<em>o</em>-Toluic acid, 4-nitro-;2-Methyl-4-nitrobenzoic acid;4-Nitro-2-methylbenzoic acid;4-Nitro-<em>o</em>-toluic acid;NSC 227948",
    "duplicated_cas_no": "",
    "SMILES": "N(=O)(=O)C1=CC(C)=C(C(O)=O)C=C1",
    "meta_data": {
        "InChI": "InChI=1S/C8H7NO4/c1-5-4-6(9(12)13)2-3-7(5)8(10)11/h2-4H,1H3,(H,10,11)",
        "InChIKey": null,
        "Canonical SMILES": "O=C(O)C1=CC=C(C=C1C)N(=O)=O",
        "Molecular Formula": "C<sub>8</sub>H<sub>7</sub>NO<sub>4</sub>",
        "Molecular Mass": "181.15",
        "Boiling Point": "153 °C",
        "Melting Point": "151-152 °C"
    }
}