{
    "cas_no": "624-38-4",
    "key_name": "1,4-Diiodobenzene",
    "cn_name": "1,4-二碘苯;对二碘苯;",
    "alternate_name": "Benzene, 1,4-diiodo-;Benzene, <em>p</em>-diiodo-;1,4-Diiodobenzene;<em>p</em>-Diiodobenzene;4-Iodophenyl iodide;NSC 6297;<em>p</em>-Phenylene diiodide",
    "duplicated_cas_no": "",
    "SMILES": "IC1=CC=C(I)C=C1",
    "meta_data": {
        "InChI": "InChI=1S/C6H4I2/c7-5-1-2-6(8)4-3-5/h1-4H",
        "InChIKey": null,
        "Canonical SMILES": "IC1=CC=C(I)C=C1",
        "Molecular Formula": "C<sub>6</sub>H<sub>4</sub>I<sub>2</sub>",
        "Molecular Mass": "329.90",
        "Boiling Point": "285 °C",
        "Melting Point": "131.5 °C"
    }
}