{
    "cas_no": "477-27-0",
    "key_name": "Colchiceine",
    "cn_name": "原秋水仙?;",
    "alternate_name": "Acetamide, <em>N</em>-[(7<em>S</em>)-5,6,7,9-tetrahydro-10-hydroxy-1,2,3-trimethoxy-9-oxobenzo[<em>a</em>]heptalen-7-yl]-;Colchiceine;Acetamide, <em>N</em>-(5,6,7,9-tetrahydro-10-hydroxy-1,2,3-trimethoxy-9-oxobenzo[<em>a</em>]heptalen-7-yl)-, (<em>S</em>)-;Benzo[<em>a</em>]heptalene, acetamide deriv.;<em>N</em>-[(7<em>S</em>)-5,6,7,9-Tetrahydro-10-hydroxy-1,2,3-trimethoxy-9-oxobenzo[<em>a</em>]heptalen-7-yl]acetamide;<em>O</em><sup>10</sup>-Demethylcolchicine;NSC 33411;10-<em>O</em>-Demethylcolchicine",
    "duplicated_cas_no": "",
    "SMILES": "O(C)C1=C2C=3C([C@@H](NC(C)=O)CCC2=CC(OC)=C1OC)=CC(=O)C(O)=CC3",
    "meta_data": {
        "InChI": "InChI=1S/C21H23NO6/c1-11(23)22-15-7-5-12-9-18(26-2)20(27-3)21(28-4)19(12)13-6-8-16(24)17(25)10-14(13)15/h6,8-10,15H,5,7H2,1-4H3,(H,22,23)(H,24,25)/t15-/m0/s1",
        "InChIKey": null,
        "Canonical SMILES": "O=C1C=C2C(=CC=C1O)C3=C(OC)C(OC)=C(OC)C=C3CCC2NC(=O)C",
        "Molecular Formula": "C<sub>21</sub>H<sub>23</sub>NO<sub>6</sub>",
        "Molecular Mass": "385.41",
        "Melting Point": "178.5 °C"
    }
}