{
    "cas_no": "88-85-7",
    "key_name": "Dinoseb",
    "cn_name": "地乐酚;二硝丁酚;4,6-二硝基-2-仲丁基苯酚;阻聚剂DNBP;",
    "alternate_name": "Phenol, 2-(1-methylpropyl)-4,6-dinitro-;Phenol, 2-<em>sec</em>-butyl-4,6-dinitro-;2-(1-Methylpropyl)-4,6-dinitrophenol;BNP 30;DN 289;Butaphene;2-<em>sec</em>-Butyl-4,6-dinitrophenol;Chemox P.E.;4,6-Dinitro-2-(1-methyl-<em>n</em>-propyl)phenol;Dinoseb;DNOSBP;DNSBP;Dow General;4,6-Dinitro-2-<em>sec</em>-butylphenol;4,6-Dinitro-<em>o</em>-<em>sec</em>-butylphenol;BNP 20;Dibutox;DNBP;Liro DNBP;2,4-Dinitro-6-<em>sec</em>-butylphenol;DBNF;WSX 8365;2,4-Dinitro-6-(1-methylpropyl)phenol;Dytop;Laseb;Aatox;Hivertox;Ladob;Desicoil;6-<em>sec</em>-Butyl-2,4-dinitrophenol;Butaphen;Premerge;Blaartox;4,6-Dinitro-2-(2-butyl)phenol;Dibutox 20CE;NSC 202753;Super Kabrol",
    "duplicated_cas_no": "39403-80-0;152212-20-9",
    "SMILES": "C(CC)(C)C1=C(O)C(N(=O)=O)=CC(N(=O)=O)=C1",
    "meta_data": {
        "InChI": "InChI=1S/C10H12N2O5/c1-3-6(2)8-4-7(11(14)15)5-9(10(8)13)12(16)17/h4-6,13H,3H2,1-2H3",
        "InChIKey": null,
        "Canonical SMILES": "O=N(=O)C=1C=C(C(O)=C(C1)C(C)CC)N(=O)=O",
        "Molecular Formula": "C<sub>10</sub>H<sub>12</sub>N<sub>2</sub>O<sub>5</sub>",
        "Molecular Mass": "240.21",
        "Boiling Point": "332 °C",
        "Melting Point": "38-42 °C",
        "Density": "1.2647 g/cm³ @ Temp: 45 °C"
    }
}