{
    "cas_no": "19315-93-6",
    "key_name": "6-Hydroxy-2(1<em>H</em>)-quinolinone",
    "cn_name": null,
    "alternate_name": "2(1<em>H</em>)-Quinolinone, 6-hydroxy-;2,6-Quinolinediol;6-Hydroxy-2(1<em>H</em>)-quinolinone;6-Hydroxycarbostyril;6-Hydroxyquinolin-2-one;2,6-Dihydroxyquinoline;6-Hydroxy-1<em>H</em>-quinolin-2-one",
    "duplicated_cas_no": "",
    "SMILES": "OC=1C=C2C(NC(=O)C=C2)=CC1",
    "meta_data": {
        "InChI": "InChI=1S/C9H7NO2/c11-7-2-3-8-6(5-7)1-4-9(12)10-8/h1-5,11H,(H,10,12)",
        "InChIKey": null,
        "Canonical SMILES": "O=C1C=CC=2C=C(O)C=CC2N1",
        "Molecular Formula": "C<sub>9</sub>H<sub>7</sub>NO<sub>2</sub>",
        "Molecular Mass": "161.16",
        "Melting Point": "328-332 °C"
    }
}