{
    "cas_no": "937602-15-8",
    "key_name": "<em>N</em>-Methyl(5-trifluoromethylpyridin-2-yl)amine",
    "cn_name": null,
    "alternate_name": "2-Pyridinamine, <em>N</em>-methyl-5-(trifluoromethyl)-;<em>N</em>-Methyl-5-(trifluoromethyl)-2-pyridinamine;<em>N</em>-Methyl(5-trifluoromethylpyridin-2-yl)amine",
    "duplicated_cas_no": "",
    "SMILES": "C(F)(F)(F)C=1C=CC(NC)=NC1",
    "meta_data": {
        "InChI": "InChI=1S/C7H7F3N2/c1-11-6-3-2-5(4-12-6)7(8,9)10/h2-4H,1H3,(H,11,12)",
        "InChIKey": null,
        "Canonical SMILES": "FC(F)(F)C1=CN=C(C=C1)NC",
        "Molecular Formula": "C<sub>7</sub>H<sub>7</sub>F<sub>3</sub>N<sub>2</sub>",
        "Molecular Mass": "176.14",
        "Melting Point": "50-53 °C"
    }
}