{
    "cas_no": "120-51-4",
    "key_name": "Benzyl benzoate",
    "cn_name": "苯甲酸苄酯;安息香酸苄酯;",
    "alternate_name": "Benzoic acid, phenylmethyl ester;Benzoic acid, benzyl ester;Ascabin;Ascabiol;Benylate;Benzyl benzenecarboxylate;Benzyl benzoate;Benzylets;Benzyl phenylformate;Colebenz;Novoscabin;Peruscabin;Venzonate;Vanzoate;Scobenol;Scabagen;Scabanca;Scabide;Scabiozon;Phenylmethyl benzoate;Nicca Sunsolt LM 7EX;Pelemol B66;NSC 8081;Scabcare BB;Benzyloxy phenyl ketone",
    "duplicated_cas_no": "",
    "SMILES": "C(OCC1=CC=CC=C1)(=O)C2=CC=CC=C2",
    "meta_data": {
        "InChI": "InChI=1S/C14H12O2/c15-14(13-9-5-2-6-10-13)16-11-12-7-3-1-4-8-12/h1-10H,11H2",
        "InChIKey": null,
        "Canonical SMILES": "O=C(OCC=1C=CC=CC1)C=2C=CC=CC2",
        "Molecular Formula": "C<sub>14</sub>H<sub>12</sub>O<sub>2</sub>",
        "Molecular Mass": "212.24",
        "Boiling Point": "323-324 °C",
        "Melting Point": "21 °C",
        "Density": "1.118 g/cm³ @ Temp: 25 °C"
    }
}