{
    "cas_no": "698-27-1",
    "key_name": "2-Hydroxy-4-methylbenzaldehyde",
    "cn_name": "2-羟基-4-甲基苯甲醛;",
    "alternate_name": "Benzaldehyde, 2-hydroxy-4-methyl-;2,4-Cresotaldehyde;2-Hydroxy-4-methylbenzaldehyde;<em>m</em>-Homosalicylaldehyde;4-Methylsalicylaldehyde;2-Formyl-5-methylphenol;4-Methyl-2-hydroxybenzaldehyde",
    "duplicated_cas_no": "",
    "SMILES": "C(=O)C1=C(O)C=C(C)C=C1",
    "meta_data": {
        "InChI": "InChI=1S/C8H8O2/c1-6-2-3-7(5-9)8(10)4-6/h2-5,10H,1H3",
        "InChIKey": null,
        "Canonical SMILES": "O=CC1=CC=C(C=C1O)C",
        "Molecular Formula": "C<sub>8</sub>H<sub>8</sub>O<sub>2</sub>",
        "Molecular Mass": "136.15",
        "Boiling Point": "223 °C",
        "Melting Point": "60.5 °C"
    }
}