{
    "cas_no": "25393-98-0",
    "key_name": "1,4-Bis(1,2-dibromoethyl)benzene",
    "cn_name": "1,4-二(1,2-二溴乙基)苯;",
    "alternate_name": "Benzene, 1,4-bis(1,2-dibromoethyl)-;Benzene, <em>p</em>-bis(1,2-dibromoethyl)-;1,4-Bis(1,2-dibromoethyl)benzene;1,4-Bis(α,β-dibromoethyl)benzene;<em>p</em>-Bis(1,2-dibromoethyl)benzene;α,α′,β,β′-Tetrabromo-1,4-diethylbenzene;NSC 96981;1,4-(1,2-Dibromoethyl)benzene",
    "duplicated_cas_no": "",
    "SMILES": "C(CBr)(Br)C1=CC=C(C(CBr)Br)C=C1",
    "meta_data": {
        "InChI": "InChI=1S/C10H10Br4/c11-5-9(13)7-1-2-8(4-3-7)10(14)6-12/h1-4,9-10H,5-6H2",
        "InChIKey": null,
        "Canonical SMILES": "BrCC(Br)C1=CC=C(C=C1)C(Br)CBr",
        "Molecular Formula": "C<sub>10</sub>H<sub>10</sub>Br<sub>4</sub>",
        "Molecular Mass": "449.80",
        "Melting Point": "157.5 °C"
    }
}