{
    "cas_no": "33579-63-4",
    "key_name": "Graveobioside B",
    "cn_name": null,
    "alternate_name": "4<em>H</em>-1-Benzopyran-4-one, 7-[(2-<em>O</em>-<span class=\"text-smallcaps\">D</smallcap>-apio-β-<smallcap>D</smallcap>-furanosyl-β-<smallcap>D</span>-glucopyranosyl)oxy]-5-hydroxy-2-(4-hydroxy-3-methoxyphenyl)-;Graveobioside B;Flavone, 4′,5,7-trihydroxy-3′-methoxy-, 7-(2-<em>O</em>-<span class=\"text-smallcaps\">D</smallcap>-apiofuranosyl-β-<smallcap>D</span>-glucopyranoside);7-[(2-<em>O</em>-<span class=\"text-smallcaps\">D</smallcap>-Apio-β-<smallcap>D</smallcap>-furanosyl-β-<smallcap>D</span>-glucopyranosyl)oxy]-5-hydroxy-2-(4-hydroxy-3-methoxyphenyl)-4<em>H</em>-1-benzopyran-4-one;Chrysoeriol 7-apiosylglucoside;Chrysoeriol 7-<em>O</em>-apiosylglucoside",
    "duplicated_cas_no": "28709-98-0;38725-01-8;64550-36-3;34506-81-5;890407-50-8",
    "SMILES": "O=C1C=2C(OC(=C1)C3=CC(OC)=C(O)C=C3)=CC(O[C@H]4[C@H](O[C@H]5[C@H](O)[C@](CO)(O)CO5)[C@@H](O)[C@H](O)[C@@H](CO)O4)=CC2O",
    "meta_data": {
        "InChI": "InChI=1S/C27H30O15/c1-37-17-4-11(2-3-13(17)30)16-7-15(32)20-14(31)5-12(6-18(20)40-16)39-25-23(22(34)21(33)19(8-28)41-25)42-26-24(35)27(36,9-29)10-38-26/h2-7,19,21-26,28-31,33-36H,8-10H2,1H3/t19-,21-,22+,23-,24+,25-,26+,27-/m1/s1",
        "InChIKey": null,
        "Canonical SMILES": "O=C1C=C(OC2=CC(OC3OC(CO)C(O)C(O)C3OC4OCC(O)(CO)C4O)=CC(O)=C12)C=5C=CC(O)=C(OC)C5",
        "Molecular Formula": "C<sub>27</sub>H<sub>30</sub>O<sub>15</sub>",
        "Molecular Mass": "594.52",
        "Melting Point": "214-216 °C"
    }
}