{
    "cas_no": "27655-41-0",
    "key_name": "5-Isoquinolinecarbonitrile",
    "cn_name": null,
    "alternate_name": "5-Isoquinolinecarbonitrile;5-Cyanoisoquinoline",
    "duplicated_cas_no": "",
    "SMILES": "C(#N)C=1C2=C(C=CC1)C=NC=C2",
    "meta_data": {
        "InChI": "InChI=1S/C10H6N2/c11-6-8-2-1-3-9-7-12-5-4-10(8)9/h1-5,7H",
        "InChIKey": null,
        "Canonical SMILES": "N#CC1=CC=CC=2C=NC=CC12",
        "Molecular Formula": "C<sub>10</sub>H<sub>6</sub>N<sub>2</sub>",
        "Molecular Mass": "154.17",
        "Melting Point": "138 °C"
    }
}