{
    "cas_no": "594-60-5",
    "key_name": "2,3-Dimethyl-2-butanol",
    "cn_name": "2,3-二甲基-2-丁醇;2,3-二甲基-2-丁醇;二甲基异丙基甲醇;异丙基二甲基甲醇;2,3-二甲-2-丁醇;",
    "alternate_name": "2-Butanol, 2,3-dimethyl-;2,3-Dimethyl-2-butanol;Thexyl alcohol;Isopropyldimethylcarbinol;Dimethylisopropylcarbinol;NSC 2312",
    "duplicated_cas_no": "",
    "SMILES": "C(C(C)C)(C)(C)O",
    "meta_data": {
        "InChI": "InChI=1S/C6H14O/c1-5(2)6(3,4)7/h5,7H,1-4H3",
        "InChIKey": null,
        "Canonical SMILES": "OC(C)(C)C(C)C",
        "Molecular Formula": "C<sub>6</sub>H<sub>14</sub>O",
        "Molecular Mass": "102.17",
        "Boiling Point": "118.4 °C",
        "Melting Point": "-14 °C",
        "Density": "0.8294 g/cm³ @ Temp: 420 °C"
    }
}