{
    "cas_no": "3884-71-7",
    "key_name": "5-Bromo-2-pentanone",
    "cn_name": null,
    "alternate_name": "2-Pentanone, 5-bromo-;5-Bromo-2-pentanone;1-Bromo-4-pentanone;3-Bromopropyl methyl ketone",
    "duplicated_cas_no": "",
    "SMILES": "C(C(C)=O)CCBr",
    "meta_data": {
        "InChI": "InChI=1S/C5H9BrO/c1-5(7)3-2-4-6/h2-4H2,1H3",
        "InChIKey": null,
        "Canonical SMILES": "O=C(C)CCCBr",
        "Molecular Formula": "C<sub>5</sub>H<sub>9</sub>BrO",
        "Molecular Mass": "165.03",
        "Boiling Point": "73-75 °C @ Press: 12 Torr"
    }
}