{
    "cas_no": "3238-55-9",
    "key_name": "2-Propionylpyridine",
    "cn_name": "2-丙酰基吡啶;",
    "alternate_name": "1-Propanone, 1-(2-pyridinyl)-;1-Propanone, 1-(2-pyridyl)-;1-(2-Pyridinyl)-1-propanone;2-Propionylpyridine;2-Pyridyl ethyl ketone;Ethyl 2-pyridyl ketone;2-Propanoylpyridine",
    "duplicated_cas_no": "",
    "SMILES": "C(CC)(=O)C1=CC=CC=N1",
    "meta_data": {
        "InChI": "InChI=1S/C8H9NO/c1-2-8(10)7-5-3-4-6-9-7/h3-6H,2H2,1H3",
        "InChIKey": null,
        "Canonical SMILES": "O=C(C1=NC=CC=C1)CC",
        "Molecular Formula": "C<sub>8</sub>H<sub>9</sub>NO",
        "Molecular Mass": "135.16",
        "Boiling Point": "95-100 °C @ Press: 15 Torr"
    }
}