{
    "cas_no": "64263-81-6",
    "key_name": "<em>N</em>-[(1,1-Dimethylethoxy)carbonyl]-<em>N</em>-methyl-<em>O</em>-(phenylmethyl)-<span class=\"text-smallcaps\">L</span>-tyrosine",
    "cn_name": null,
    "alternate_name": "<span class=\"text-smallcaps\">L</span>-Tyrosine, <em>N</em>-[(1,1-dimethylethoxy)carbonyl]-<em>N</em>-methyl-<em>O</em>-(phenylmethyl)-;<em>N</em>-[(1,1-Dimethylethoxy)carbonyl]-<em>N</em>-methyl-<em>O</em>-(phenylmethyl)-<span class=\"text-smallcaps\">L</span>-tyrosine;Boc-MeTyr(OBn)-OH;(2S)-2-[Methyl-[(2-methylpropan-2-yl)oxycarbonyl]amino]-3-(4-phenylmethoxyphenyl)propanoic acid",
    "duplicated_cas_no": "",
    "SMILES": "C([C@H](N(C(OC(C)(C)C)=O)C)C(O)=O)C1=CC=C(OCC2=CC=CC=C2)C=C1",
    "meta_data": {
        "InChI": "InChI=1S/C22H27NO5/c1-22(2,3)28-21(26)23(4)19(20(24)25)14-16-10-12-18(13-11-16)27-15-17-8-6-5-7-9-17/h5-13,19H,14-15H2,1-4H3,(H,24,25)/t19-/m0/s1",
        "InChIKey": null,
        "Canonical SMILES": "O=C(O)C(N(C(=O)OC(C)(C)C)C)CC1=CC=C(OCC=2C=CC=CC2)C=C1",
        "Molecular Formula": "C<sub>22</sub>H<sub>27</sub>NO<sub>5</sub>",
        "Molecular Mass": "385.45",
        "Melting Point": "130-134 °C"
    }
}