{
    "cas_no": "2541-69-7",
    "key_name": "7-Methylbenz[<em>a</em>]anthracene",
    "cn_name": "7-甲苯基蒽;",
    "alternate_name": "Benz[<em>a</em>]anthracene, 7-methyl-;7-Methylbenz[<em>a</em>]anthracene;10-Methyl-1,2-benzanthracene;3,4-Benz-9-methylanthracene;7-Monomethylbenz[<em>a</em>]anthracene;NSC 30974",
    "duplicated_cas_no": "",
    "SMILES": "CC=1C=2C(=C3C(=CC2)C=CC=C3)C=C4C1C=CC=C4",
    "meta_data": {
        "InChI": "InChI=1S/C19H14/c1-13-16-8-4-3-7-15(16)12-19-17(13)11-10-14-6-2-5-9-18(14)19/h2-12H,1H3",
        "InChIKey": null,
        "Canonical SMILES": "C=1C=CC2=C(C1)C=CC3=C2C=C4C=CC=CC4=C3C",
        "Molecular Formula": "C<sub>19</sub>H<sub>14</sub>",
        "Molecular Mass": "242.31",
        "Melting Point": "141 °C"
    }
}