{
    "cas_no": "609-72-3",
    "key_name": "Dimethyl-<em>o</em>-toluidine",
    "cn_name": "N,N-二甲基邻甲苯胺;2-甲基-N,N-二甲基苯胺;",
    "alternate_name": "Benzenamine, <em>N</em>,<em>N</em>,2-trimethyl-;<em>o</em>-Toluidine, <em>N</em>,<em>N</em>-dimethyl-;<em>N</em>,<em>N</em>,2-Trimethylbenzenamine;<em>N</em>,<em>N</em>-Dimethyl-<em>o</em>-toluidine;<em>N</em>,<em>N</em>,2-Trimethylaniline;<em>N</em>,<em>N</em>-Dimethyl-2-methylaniline;<em>o</em>-Methyldimethylaniline;Dimethyl-<em>o</em>-toluidine;2-Methyl-<em>N</em>,<em>N</em>-dimethylaniline;<em>o</em>-Methyl-<em>N</em>,<em>N</em>-dimethylaniline;<em>N</em>,<em>N</em>-Dimethyl-<em>o</em>-methylaniline;2,<em>N</em>,<em>N</em>-Trimethylaniline;NSC 1784",
    "duplicated_cas_no": "",
    "SMILES": "N(C)(C)C1=C(C)C=CC=C1",
    "meta_data": {
        "InChI": "InChI=1S/C9H13N/c1-8-6-4-5-7-9(8)10(2)3/h4-7H,1-3H3",
        "InChIKey": null,
        "Canonical SMILES": "C=1C=CC(=C(C1)N(C)C)C",
        "Molecular Formula": "C<sub>9</sub>H<sub>13</sub>N",
        "Molecular Mass": "135.21",
        "Boiling Point": "194.1 °C",
        "Melting Point": "-60 °C",
        "Density": "0.9252-0.9261 g/cm³ @ Temp: 20.6 °C"
    }
}