{
    "cas_no": "119-54-0",
    "key_name": "<em>N</em>,<em>N</em>-Diethyl-1-piperazinecarboxamide",
    "cn_name": null,
    "alternate_name": "1-Piperazinecarboxamide, <em>N</em>,<em>N</em>-diethyl-;<em>N</em>,<em>N</em>-Diethyl-1-piperazinecarboxamide;Subdamine;1-Diethylcarbamoylpiperazine;1-(Diethylcarbamyl)piperazine;<em>N</em>,<em>N</em>-Diethylcarbamoylpiperazine;1-(<em>N</em>,<em>N</em>-Diethylaminocarbonyl)piperazine",
    "duplicated_cas_no": "",
    "SMILES": "C(N(CC)CC)(=O)N1CCNCC1",
    "meta_data": {
        "InChI": "InChI=1S/C9H19N3O/c1-3-11(4-2)9(13)12-7-5-10-6-8-12/h10H,3-8H2,1-2H3",
        "InChIKey": null,
        "Canonical SMILES": "O=C(N(CC)CC)N1CCNCC1",
        "Molecular Formula": "C<sub>9</sub>H<sub>19</sub>N<sub>3</sub>O",
        "Molecular Mass": "185.27",
        "Boiling Point": "113.5-115.5 °C @ Press: 3 Torr"
    }
}