{
    "cas_no": "3468-53-9",
    "key_name": "Phenyl 3-pyridinecarboxylate",
    "cn_name": "烟酸苯酯;烟酸苯酯;",
    "alternate_name": "3-Pyridinecarboxylic acid, phenyl ester;Nicotinic acid, phenyl ester;Phenyl 3-pyridinecarboxylate;Phenyl nicotinate;NSC 75878",
    "duplicated_cas_no": "",
    "SMILES": "C(OC1=CC=CC=C1)(=O)C=2C=CC=NC2",
    "meta_data": {
        "InChI": "InChI=1S/C12H9NO2/c14-12(10-5-4-8-13-9-10)15-11-6-2-1-3-7-11/h1-9H",
        "InChIKey": null,
        "Canonical SMILES": "O=C(OC=1C=CC=CC1)C=2C=NC=CC2",
        "Molecular Formula": "C<sub>12</sub>H<sub>9</sub>NO<sub>2</sub>",
        "Molecular Mass": "199.21",
        "Boiling Point": "166.5 °C @ Press: 9 Torr",
        "Melting Point": "59 °C"
    }
}