{
    "cas_no": "3569-21-9",
    "key_name": "Indole-3-propanol",
    "cn_name": "吲哚-3-丙醇;",
    "alternate_name": "1<em>H</em>-Indole-3-propanol;Indole-3-propanol;Homotryptophol;3-(1<em>H</em>-Indol-3-yl)-1-propanol;3-(3-Hydroxypropyl)indole;3-(3-Hydroxypropyl)-1<em>H</em>-indole;3-(3-Indolyl)-1-propanol;3-(1<em>H</em>-Indol-3-yl)propanol",
    "duplicated_cas_no": "",
    "SMILES": "C(CCO)C=1C=2C(NC1)=CC=CC2",
    "meta_data": {
        "InChI": "InChI=1S/C11H13NO/c13-7-3-4-9-8-12-11-6-2-1-5-10(9)11/h1-2,5-6,8,12-13H,3-4,7H2",
        "InChIKey": null,
        "Canonical SMILES": "OCCCC1=CNC=2C=CC=CC21",
        "Molecular Formula": "C<sub>11</sub>H<sub>13</sub>NO",
        "Molecular Mass": "175.23",
        "Melting Point": "0 °C"
    }
}