{
    "cas_no": "104-93-8",
    "key_name": "4-Methylanisole",
    "cn_name": "对甲苯甲醚;对甲氧基甲苯;大茴香醚;",
    "alternate_name": "Benzene, 1-methoxy-4-methyl-;Anisole, <em>p</em>-methyl-;1-Methoxy-4-methylbenzene;<em>p</em>-Cresol methyl ether;<em>p</em>-Cresyl methyl ether;<em>p</em>-Methoxytoluene;4-Methoxytoluene;<em>p</em>-Methylanisole;<em>O</em>-Methyl-<em>p</em>-cresol;Methyl <em>p</em>-tolyl ether;<em>p</em>-Tolyl methyl ether;4-Methylanisole;Methyl <em>p</em>-methylphenyl ether;1-Methyl-4-methoxybenzene;4-Methyl-1-methoxybenzene;4-Cresol methyl ether;NSC 6254;4-Methoxy-1-methylbenzene",
    "duplicated_cas_no": "1071687-44-9",
    "SMILES": "O(C)C1=CC=C(C)C=C1",
    "meta_data": {
        "InChI": "InChI=1S/C8H10O/c1-7-3-5-8(9-2)6-4-7/h3-6H,1-2H3",
        "InChIKey": null,
        "Canonical SMILES": "O(C1=CC=C(C=C1)C)C",
        "Molecular Formula": "C<sub>8</sub>H<sub>10</sub>O",
        "Molecular Mass": "122.16",
        "Boiling Point": "175.5 °C @ Press: 760 Torr",
        "Melting Point": "-32 °C",
        "Density": "0.969 g/cm³ @ Temp: 25 °C"
    }
}