{
    "cas_no": "19156-50-4",
    "key_name": "5-Methyl-3-thiophenecarboxylic acid",
    "cn_name": null,
    "alternate_name": "3-Thiophenecarboxylic acid, 5-methyl-;5-Methyl-3-thiophenecarboxylic acid;2-Methyl-4-thiophenecarboxylic acid;5-Methylthiophene-3-carboxylic acid",
    "duplicated_cas_no": "",
    "SMILES": "C(O)(=O)C=1C=C(C)SC1",
    "meta_data": {
        "InChI": "InChI=1S/C6H6O2S/c1-4-2-5(3-9-4)6(7)8/h2-3H,1H3,(H,7,8)",
        "InChIKey": null,
        "Canonical SMILES": "O=C(O)C1=CSC(=C1)C",
        "Molecular Formula": "C<sub>6</sub>H<sub>6</sub>O<sub>2</sub>S",
        "Molecular Mass": "142.18",
        "Melting Point": "131-132 °C"
    }
}