{
    "cas_no": "33467-76-4",
    "key_name": "<em>trans</em>-2-Hepten-1-ol",
    "cn_name": null,
    "alternate_name": "2-Hepten-1-ol, (2<em>E</em>)-;2-Hepten-1-ol, (<em>E</em>)-;<em>trans</em>-2-Hepten-1-ol;(2<em>E</em>)-2-Hepten-1-ol;<em>n</em>-Hept-<em>trans</em>-2-en-1-ol;(<em>E</em>)-2-Hepten-1-ol;<em>trans</em>-2-Heptenol",
    "duplicated_cas_no": "",
    "SMILES": "C(/C=C/CO)CCC",
    "meta_data": {
        "InChI": "InChI=1S/C7H14O/c1-2-3-4-5-6-7-8/h5-6,8H,2-4,7H2,1H3/b6-5+",
        "InChIKey": null,
        "Canonical SMILES": "OCC=CCCCC",
        "Molecular Formula": "C<sub>7</sub>H<sub>14</sub>O",
        "Molecular Mass": "114.19",
        "Boiling Point": "178 °C",
        "Density": "0.8426 g/cm³ @ Temp: 20 °C"
    }
}