{
    "cas_no": "1617-53-4",
    "key_name": "Amentoflavone",
    "cn_name": "穗花杉双黄酮;",
    "alternate_name": "4<em>H</em>-1-Benzopyran-4-one, 8-[5-(5,7-dihydroxy-4-oxo-4<em>H</em>-1-benzopyran-2-yl)-2-hydroxyphenyl]-5,7-dihydroxy-2-(4-hydroxyphenyl)-;3′′′,8-Biflavone, 4′,4′′′,5,5′′,7,7′′-hexahydroxy-;Ginkgetin, didemethyl-;8-[5-(5,7-Dihydroxy-4-oxo-4<em>H</em>-1-benzopyran-2-yl)-2-hydroxyphenyl]-5,7-dihydroxy-2-(4-hydroxyphenyl)-4<em>H</em>-1-benzopyran-4-one;Amentoflavone;Tridemethylsciadopitysin;I3′,II8-Biapigenin;Amenthoflavone;NSC 295677",
    "duplicated_cas_no": "79596-89-7",
    "SMILES": "OC=1C(=C2C(C(=O)C=C(O2)C3=CC=C(O)C=C3)=C(O)C1)C4=CC(=CC=C4O)C=5OC=6C(C(=O)C5)=C(O)C=C(O)C6",
    "meta_data": {
        "InChI": "InChI=1S/C30H18O10/c31-15-4-1-13(2-5-15)24-12-23(38)29-21(36)10-20(35)27(30(29)40-24)17-7-14(3-6-18(17)33)25-11-22(37)28-19(34)8-16(32)9-26(28)39-25/h1-12,31-36H",
        "InChIKey": null,
        "Canonical SMILES": "O=C1C=C(OC=2C=C(O)C=C(O)C12)C=3C=CC(O)=C(C3)C4=C(O)C=C(O)C=5C(=O)C=C(OC54)C=6C=CC(O)=CC6",
        "Molecular Formula": "C<sub>30</sub>H<sub>18</sub>O<sub>10</sub>",
        "Molecular Mass": "538.46",
        "Melting Point": "245-250 °C (decomp)"
    }
}