{
    "cas_no": "1686-14-2",
    "key_name": "α-Pinene oxide",
    "cn_name": "α-环氧蒎烷;Α-环氧蒎烷;",
    "alternate_name": "3-Oxatricyclo[4.1.1.0<sup>2,4</sup>]octane, 2,7,7-trimethyl-;Pinane, 2,3-epoxy-;2,7,7-Trimethyl-3-oxatricyclo[4.1.1.0<sup>2,4</sup>]octane;α-Pinene epoxide;α-Pinene oxide;2,3-Epoxypinane;α-Pinene 2,3-oxide;NSC 12148;NSC 407160;NSC 5609;PNO",
    "duplicated_cas_no": "25488-94-2",
    "SMILES": "CC12C3C(C)(C)C(C3)CC1O2",
    "meta_data": {
        "InChI": "InChI=1S/C10H16O/c1-9(2)6-4-7(9)10(3)8(5-6)11-10/h6-8H,4-5H2,1-3H3",
        "InChIKey": null,
        "Canonical SMILES": "O1C2CC3CC(C12C)C3(C)C",
        "Molecular Formula": "C<sub>10</sub>H<sub>16</sub>O",
        "Molecular Mass": "152.23",
        "Boiling Point": "102.5 °C",
        "Density": "0.9812 g/cm³ @ Temp: 0 °C"
    }
}