{
    "cas_no": "2396-77-2",
    "key_name": "Methyl 2-hexenoate",
    "cn_name": "2-己烯酸甲酯;",
    "alternate_name": "2-Hexenoic acid, methyl ester;Methyl 2-hexenoate;3-Propylacrylic acid methyl ester;Methyl 3-propylacrylate",
    "duplicated_cas_no": "",
    "SMILES": "C(C=CCCC)(OC)=O",
    "meta_data": {
        "InChI": "InChI=1S/C7H12O2/c1-3-4-5-6-7(8)9-2/h5-6H,3-4H2,1-2H3",
        "InChIKey": null,
        "Canonical SMILES": "O=C(OC)C=CCCC",
        "Molecular Formula": "C<sub>7</sub>H<sub>12</sub>O<sub>2</sub>",
        "Molecular Mass": "128.17",
        "Boiling Point": "56-58 °C @ Press: 13 Torr",
        "Melting Point": "32 °C"
    }
}