{
    "cas_no": "511545-94-1",
    "key_name": "9-[(4,4,5,5,5-Pentafluoropentyl)thio]-1-nonanol",
    "cn_name": null,
    "alternate_name": "1-Nonanol, 9-[(4,4,5,5,5-pentafluoropentyl)thio]-;9-[(4,4,5,5,5-Pentafluoropentyl)thio]-1-nonanol",
    "duplicated_cas_no": "",
    "SMILES": "C(CCCSCCCCCCCCCO)(C(F)(F)F)(F)F",
    "meta_data": {
        "InChI": "InChI=1S/C14H25F5OS/c15-13(16,14(17,18)19)9-8-12-21-11-7-5-3-1-2-4-6-10-20/h20H,1-12H2",
        "InChIKey": null,
        "Canonical SMILES": "FC(F)(F)C(F)(F)CCCSCCCCCCCCCO",
        "Molecular Formula": "C<sub>14</sub>H<sub>25</sub>F<sub>5</sub>OS",
        "Molecular Mass": "336.40",
        "Melting Point": "40-42 °C"
    }
}