{
    "cas_no": "593-56-6",
    "key_name": "<em>O</em>-Methylhydroxylamine hydrochloride",
    "cn_name": null,
    "alternate_name": "Hydroxylamine, <em>O</em>-methyl-, hydrochloride (1:1);Hydroxylamine, <em>O</em>-methyl-, hydrochloride;Methoxyamine hydrochloride;Methoxyammonium chloride;Methoxylamine hydrochloride;<em>O</em>-Methylhydroxylamine hydrochloride;<em>O</em>-Methoxyamine hydrochloride;<em>N</em>-Methoxylamine hydrochloride;Hydroxylamine methyl ether hydrochloride;<em>O</em>-Methylhydroxyamine hydrochloride;(Aminooxy)methane hydrochloride",
    "duplicated_cas_no": "73151-12-9;400605-40-5;253880-85-2",
    "SMILES": "O(C)N.Cl",
    "meta_data": {
        "InChI": "InChI=1S/CH5NO.ClH/c1-3-2;/h2H2,1H3;1H",
        "InChIKey": null,
        "Canonical SMILES": "Cl.O(N)C",
        "Molecular Formula": "CH<sub>5</sub>NO.ClH",
        "Molecular Mass": "",
        "Melting Point": "148-149 °C"
    }
}