{
    "cas_no": "7078-98-0",
    "key_name": "4-Benzylidene-2,6-di-<em>tert</em>-butylcyclohexa-2,5-dienone",
    "cn_name": "4-苯基亚甲基-2,6-二叔丁基-2,5-环己二烯-1-酮;",
    "alternate_name": "2,5-Cyclohexadien-1-one, 2,6-bis(1,1-dimethylethyl)-4-(phenylmethylene)-;2,5-Cyclohexadien-1-one, 4-benzylidene-2,6-di-<em>tert</em>-butyl-;2,6-Bis(1,1-dimethylethyl)-4-(phenylmethylene)-2,5-cyclohexadien-1-one;4-Benzylidene-2,6-di-<em>tert</em>-butyl-2,5-cyclohexadien-1-one;4-Benzylidene-2,6-di-<em>tert</em>-butylcyclohexa-2,5-dienone;2,6-Di-<em>tert</em>-butyl-4-benzylidene-cyclohexa-2,5-dienone;4-Phenylmethylene-2,6-di-<em>tert</em>-butyl-2,5-cyclohexadien-1-one;Genorad 24",
    "duplicated_cas_no": "",
    "SMILES": "C(=C1C=C(C(C)(C)C)C(=O)C(C(C)(C)C)=C1)C2=CC=CC=C2",
    "meta_data": {
        "InChI": "InChI=1S/C21H26O/c1-20(2,3)17-13-16(12-15-10-8-7-9-11-15)14-18(19(17)22)21(4,5)6/h7-14H,1-6H3",
        "InChIKey": null,
        "Canonical SMILES": "O=C1C(=CC(=CC=2C=CC=CC2)C=C1C(C)(C)C)C(C)(C)C",
        "Molecular Formula": "C<sub>21</sub>H<sub>26</sub>O",
        "Molecular Mass": "294.43",
        "Boiling Point": "186 °C @ Press: 1 Torr",
        "Melting Point": "74-75 °C"
    }
}