{
    "cas_no": "936-49-2",
    "key_name": "2-Phenylimidazoline",
    "cn_name": "2-苯基咪唑啉;",
    "alternate_name": "1<em>H</em>-Imidazole, 4,5-dihydro-2-phenyl-;2-Imidazoline, 2-phenyl-;4,5-Dihydro-2-phenyl-1<em>H</em>-imidazole;2-Phenylimidazoline;2-Phenyl-2-imidazoline;2-Phenyl-4,5-dihydroimidazole;Curezol 2PZ-L;Vestagon B 31;B 31;Veba B 31;NSC 54747;2-Phenyl-4,5-dihydro-1<em>H</em>-imidazole;2PZ-L;Eutomer B 31;Jietongda SA 31;SA 31;Curezol 2PZL-T",
    "duplicated_cas_no": "54391-81-0;170013-98-6",
    "SMILES": "C=1(NCCN1)C2=CC=CC=C2",
    "meta_data": {
        "InChI": "InChI=1S/C9H10N2/c1-2-4-8(5-3-1)9-10-6-7-11-9/h1-5H,6-7H2,(H,10,11)",
        "InChIKey": null,
        "Canonical SMILES": "N1=C(NCC1)C=2C=CC=CC2",
        "Molecular Formula": "C<sub>9</sub>H<sub>10</sub>N<sub>2</sub>",
        "Molecular Mass": "146.19",
        "Boiling Point": "162 °C",
        "Melting Point": "102-103 °C"
    }
}