{
    "cas_no": "554-84-7",
    "key_name": "3-Nitrophenol",
    "cn_name": "3-硝基苯酚;间硝基酚;",
    "alternate_name": "Phenol, 3-nitro-;Phenol, <em>m</em>-nitro-;3-Nitrophenol;<em>m</em>-Nitrophenol;<em>m</em>-Hydroxynitrobenzene;3-Hydroxynitrobenzene;1-Hydroxy-3-nitrobenzene;NSC 1551",
    "duplicated_cas_no": "",
    "SMILES": "N(=O)(=O)C1=CC(O)=CC=C1",
    "meta_data": {
        "InChI": "InChI=1S/C6H5NO3/c8-6-3-1-2-5(4-6)7(9)10/h1-4,8H",
        "InChIKey": null,
        "Canonical SMILES": "O=N(=O)C=1C=CC=C(O)C1",
        "Molecular Formula": "C<sub>6</sub>H<sub>5</sub>NO<sub>3</sub>",
        "Molecular Mass": "139.11",
        "Boiling Point": "194 °C @ Press: 70 Torr",
        "Melting Point": "97 °C",
        "Density": "1.2797 g/cm³ @ Temp: 100 °C"
    }
}