{
    "cas_no": "3788-94-1",
    "key_name": "Butanoic acid, 2-(ethoxymethylene)-3-oxo-, ethyl ester",
    "cn_name": "2-乙氧亚甲基乙酰乙酸乙酯;",
    "alternate_name": "Butanoic acid, 2-(ethoxymethylene)-3-oxo-, ethyl ester;Acetoacetic acid, 2-(ethoxymethylene)-, ethyl ester;Ethyl 2-(ethoxymethylene)acetoacetate;Ethyl (ethoxymethylene)acetoacetate;2-(Ethoxymethylene)acetoacetic acid ethyl ester;Ethyl 2-ethoxymethylene-3-oxobutanoate;Ethyl 2-acetyl-3-ethoxyacrylate;Ethyl 2-(ethoxymethylene)-3-oxobutyrate;2-Acetyl-3-ethoxyacrylic acid ethyl ester;NSC 32775;2-Ethoxymethylene-3-oxobutanoic acid ethyl ester;2-[1-Ethoxymethylidene]-3-oxo-butyric acid ethyl ester;Ethyl 2-ethoxymethylidene-acetoacetate;Ethyl 2-(ethoxymethylidene)-3-oxobutanoate;Butanoic acid, 3-oxo-, ethoxymethyl ester",
    "duplicated_cas_no": "2677030-39-4",
    "SMILES": "C(C(OCC)=O)(=COCC)C(C)=O",
    "meta_data": {
        "InChI": "InChI=1S/C9H14O4/c1-4-12-6-8(7(3)10)9(11)13-5-2/h6H,4-5H2,1-3H3",
        "InChIKey": null,
        "Canonical SMILES": "O=C(OCC)C(=COCC)C(=O)C",
        "Molecular Formula": "C<sub>9</sub>H<sub>14</sub>O<sub>4</sub>",
        "Molecular Mass": "186.21",
        "Boiling Point": "105-112 °C @ Press: 0.6-0.8 Torr"
    }
}