{
    "cas_no": "100-19-6",
    "key_name": "<em>p</em>-Nitroacetophenone",
    "cn_name": "对硝基苯乙酮;",
    "alternate_name": "Ethanone, 1-(4-nitrophenyl)-;Acetophenone, 4′-nitro-;Acetophenone, <em>p</em>-nitro-;1-(4-Nitrophenyl)ethanone;<em>p</em>-Nitrophenyl methyl ketone;<em>p</em>-Nitroacetophenone;4′-Nitroacetophenone;<em>p</em>-Acetylnitrobenzene;Methyl <em>p</em>-nitrophenyl ketone;4-Acetylnitrobenzene;1-Acetyl-4-nitrobenzene;Methyl 4-nitrophenyl ketone;4-Nitrophenyl methyl ketone;NSC 41590;1-(4-Nitrophenyl)ethan-1-one;4-Acetyl-1-nitrobenzene",
    "duplicated_cas_no": "",
    "SMILES": "C(C)(=O)C1=CC=C(N(=O)=O)C=C1",
    "meta_data": {
        "InChI": "InChI=1S/C8H7NO3/c1-6(10)7-2-4-8(5-3-7)9(11)12/h2-5H,1H3",
        "InChIKey": null,
        "Canonical SMILES": "O=C(C1=CC=C(C=C1)N(=O)=O)C",
        "Molecular Formula": "C<sub>8</sub>H<sub>7</sub>NO<sub>3</sub>",
        "Molecular Mass": "165.15",
        "Boiling Point": "165 °C",
        "Melting Point": "81.8 °C"
    }
}