{
    "cas_no": "3288-99-1",
    "key_name": "(4-<em>tert</em>-Butylphenyl)acetonitrile",
    "cn_name": "4-叔丁基氰苄;4-叔丁基苯乙腈;对叔丁基氰苄;",
    "alternate_name": "Benzeneacetonitrile, 4-(1,1-dimethylethyl)-;Acetonitrile, (<em>p</em>-<em>tert</em>-butylphenyl)-;4-(1,1-Dimethylethyl)benzeneacetonitrile;<em>p</em>-<em>tert</em>-Butylbenzyl cyanide;(<em>p</em>-<em>tert</em>-Butylphenyl)acetonitrile;4-<em>tert</em>-Butylbenzyl cyanide;(4-<em>tert</em>-Butylphenyl)acetonitrile;NSC 85354;2-[4-(<em>tert</em>-Butyl)phenyl]ethanenitrile;2-(4-<em>tert</em>-Butylphenyl)acetonitrile",
    "duplicated_cas_no": "",
    "SMILES": "C(C)(C)(C)C1=CC=C(CC#N)C=C1",
    "meta_data": {
        "InChI": "InChI=1S/C12H15N/c1-12(2,3)11-6-4-10(5-7-11)8-9-13/h4-7H,8H2,1-3H3",
        "InChIKey": null,
        "Canonical SMILES": "N#CCC1=CC=C(C=C1)C(C)(C)C",
        "Molecular Formula": "C<sub>12</sub>H<sub>15</sub>N",
        "Molecular Mass": "173.25",
        "Boiling Point": "141-142 °C"
    }
}