{
    "cas_no": "114971-52-7",
    "key_name": "Benzyltrimethylammonium dichloroiodate",
    "cn_name": "苄基三甲基二氯碘酸铵;",
    "alternate_name": "Benzenemethanaminium, <em>N</em>,<em>N</em>,<em>N</em>-trimethyl-, dichloroiodate(1-) (1:1);Benzenemethanaminium, <em>N</em>,<em>N</em>,<em>N</em>-trimethyl-, dichloroiodate(1-);Iodate(1-), dichloro-, <em>N</em>,<em>N</em>,<em>N</em>-trimethylbenzenemethanaminium;Benzyltrimethylammonium dichloroiodate;Benzyltrimethylammonium dichloroiodide",
    "duplicated_cas_no": "184165-13-7;1195982-23-0",
    "SMILES": "C([N+](C)(C)C)C1=CC=CC=C1.[I-](Cl)Cl",
    "meta_data": {
        "InChI": "InChI=1S/C10H16N.Cl2I/c1-11(2,3)9-10-7-5-4-6-8-10;1-3-2/h4-8H,9H2,1-3H3;/q+1;-1",
        "InChIKey": null,
        "Canonical SMILES": "Cl[I-]Cl.C=1C=CC(=CC1)C[N+](C)(C)C",
        "Molecular Formula": "C<sub>10</sub>H<sub>16</sub>N.Cl<sub>2</sub>I",
        "Molecular Mass": "",
        "Melting Point": "125-126 °C"
    }
}