{
    "cas_no": "96-05-9",
    "key_name": "Allyl methacrylate",
    "cn_name": "甲基丙烯酸烯丙酯;2-甲基丙烯酸烯丙酯;",
    "alternate_name": "2-Propenoic acid, 2-methyl-, 2-propen-1-yl ester;Methacrylic acid, allyl ester;2-Propenoic acid, 2-methyl-, 2-propenyl ester;Allyl alcohol, methacrylate;Allyl methacrylate;NSC 18597;2-Methyl-2-propenoic acid 2-propenyl ester;Acryester A;3-Methacryloyloxypropylene;Visiomer AMA;AMA",
    "duplicated_cas_no": "",
    "SMILES": "C(C(C)=C)(OCC=C)=O",
    "meta_data": {
        "InChI": "InChI=1S/C7H10O2/c1-4-5-9-7(8)6(2)3/h4H,1-2,5H2,3H3",
        "InChIKey": null,
        "Canonical SMILES": "O=C(OCC=C)C(=C)C",
        "Molecular Formula": "C<sub>7</sub>H<sub>10</sub>O<sub>2</sub>",
        "Molecular Mass": "126.15",
        "Boiling Point": "30-50 °C @ Press: 23 Torr",
        "Density": "0.927 g/cm³ @ Temp: 20 °C"
    }
}