{
    "cas_no": "4202-14-6",
    "key_name": "Dimethyl <em>P</em>-(2-oxopropyl)phosphonate",
    "cn_name": "丙酮基膦酸二甲酯;",
    "alternate_name": "Phosphonic acid, <em>P</em>-(2-oxopropyl)-, dimethyl ester;Phosphonic acid, acetonyl-, dimethyl ester;Phosphonic acid, (2-oxopropyl)-, dimethyl ester;Dimethyl <em>P</em>-(2-oxopropyl)phosphonate;(2-Oxopropyl)phosphonic acid dimethyl ester;Dimethyl (2-oxopropyl)phosphonate;(Dimethylphosphono)acetone;Dimethyl β-<em>keto</em>-propylphosphonate;Dimethyl acetonylphosphonate;Dimethyl 2-oxopropanephosphonate;1-Dimethoxyphosphorylpropan-2-one",
    "duplicated_cas_no": "",
    "SMILES": "P(CC(C)=O)(OC)(OC)=O",
    "meta_data": {
        "InChI": "InChI=1S/C5H11O4P/c1-5(6)4-10(7,8-2)9-3/h4H2,1-3H3",
        "InChIKey": null,
        "Canonical SMILES": "O=C(C)CP(=O)(OC)OC",
        "Molecular Formula": "C<sub>5</sub>H<sub>11</sub>O<sub>4</sub>P",
        "Molecular Mass": "166.11",
        "Boiling Point": "76-79 °C",
        "Density": "1.1748 g/cm³ @ Temp: 20 °C"
    }
}