{
    "cas_no": "62978-73-8",
    "key_name": "5-Acetyl-8-hydroxy-2(1<em>H</em>)-quinolinone",
    "cn_name": null,
    "alternate_name": "2(1<em>H</em>)-Quinolinone, 5-acetyl-8-hydroxy-;5-Acetyl-8-hydroxy-2(1<em>H</em>)-quinolinone;5-Acetyl-8-hydroxycarbostyril;5-Acetyl-8-hydroxy-1<em>H</em>-quinolin-2-one;1-(2,8-Dihydroxyquinolin-5-yl)ethan-1-one",
    "duplicated_cas_no": "530084-73-2",
    "SMILES": "C(C)(=O)C1=C2C(=C(O)C=C1)NC(=O)C=C2",
    "meta_data": {
        "InChI": "InChI=1S/C11H9NO3/c1-6(13)7-2-4-9(14)11-8(7)3-5-10(15)12-11/h2-5,14H,1H3,(H,12,15)",
        "InChIKey": null,
        "Canonical SMILES": "O=C1C=CC=2C(=CC=C(O)C2N1)C(=O)C",
        "Molecular Formula": "C<sub>11</sub>H<sub>9</sub>NO<sub>3</sub>",
        "Molecular Mass": "203.19",
        "Melting Point": "&gt;260 °C"
    }
}