{
    "cas_no": "5198-80-1",
    "key_name": "2-Bromo-4-thiazolecarboxaldehyde",
    "cn_name": "2-溴-4-醛基噻唑;2-溴噻唑-4-甲醛;",
    "alternate_name": "4-Thiazolecarboxaldehyde, 2-bromo-;2-Bromo-4-thiazolecarboxaldehyde;2-Bromothiazole-4-carbaldehyde;2-Bromo-1,3-thiazole-4-carboxaldehyde;2-Bromo-1,3-thiazole-4-carbaldehyde;2-Bromo-4-formylthiazole",
    "duplicated_cas_no": "",
    "SMILES": "C(=O)C=1N=C(Br)SC1",
    "meta_data": {
        "InChI": "InChI=1S/C4H2BrNOS/c5-4-6-3(1-7)2-8-4/h1-2H",
        "InChIKey": null,
        "Canonical SMILES": "O=CC=1N=C(Br)SC1",
        "Molecular Formula": "C<sub>4</sub>H<sub>2</sub>BrNOS",
        "Molecular Mass": "192.03",
        "Melting Point": "147-148 °C"
    }
}