{
    "cas_no": "2556-73-2",
    "key_name": "<em>N</em>-Methylcaprolactam",
    "cn_name": null,
    "alternate_name": "2<em>H</em>-Azepin-2-one, hexahydro-1-methyl-;Hexamethylenimine, 1-methyl-2-oxo-;Hexahydro-1-methyl-2<em>H</em>-azepin-2-one;<em>N</em>-Methylcaprolactam;<em>N</em>-Methyl-ε-caprolactam;1-Methylcaprolactam;1-Methylhexahydro-2<em>H</em>-azepin-2-one;1-Methylazacycloheptan-2-one;<em>N</em>-Methyl-6-caprolactam;NSC 68794;Hexahydro-1-methyl-2H-azepin-2-one;1-Methylazepan-2-one;1-Methyl-2-azepanone",
    "duplicated_cas_no": "",
    "SMILES": "O=C1N(C)CCCCC1",
    "meta_data": {
        "InChI": "InChI=1S/C7H13NO/c1-8-6-4-2-3-5-7(8)9/h2-6H2,1H3",
        "InChIKey": null,
        "Canonical SMILES": "O=C1N(C)CCCCC1",
        "Molecular Formula": "C<sub>7</sub>H<sub>13</sub>NO",
        "Molecular Mass": "127.18",
        "Boiling Point": "104-106 °C @ Press: 11 Torr"
    }
}