{
    "cas_no": "76241-79-7",
    "key_name": "3-Chloro-1,2-benzenedicarbonitrile",
    "cn_name": null,
    "alternate_name": "1,2-Benzenedicarbonitrile, 3-chloro-;3-Chloro-1,2-benzenedicarbonitrile;3-Chlorophthalonitrile;3-Chlorophthalodinitrile;3-Chloro-1,2-dicyanobenzene",
    "duplicated_cas_no": "",
    "SMILES": "C(#N)C1=C(C#N)C(Cl)=CC=C1",
    "meta_data": {
        "InChI": "InChI=1S/C8H3ClN2/c9-8-3-1-2-6(4-10)7(8)5-11/h1-3H",
        "InChIKey": null,
        "Canonical SMILES": "N#CC=1C=CC=C(Cl)C1C#N",
        "Molecular Formula": "C<sub>8</sub>H<sub>3</sub>ClN<sub>2</sub>",
        "Molecular Mass": "162.58",
        "Melting Point": "111-112.6 °C"
    }
}