{
    "cas_no": "14468-90-7",
    "key_name": "1-(Trimethylsilyl)-2-pyrrolidinone",
    "cn_name": "1-三甲基硅基吡咯酮;1-三甲基甲硅烷基-2-吡啶酮;N-三甲基硅烷基-2-吡咯烷酮;",
    "alternate_name": "2-Pyrrolidinone, 1-(trimethylsilyl)-;1-(Trimethylsilyl)-2-pyrrolidinone;<em>N</em>-(Trimethylsilyl)pyrrolidinone;<em>N</em>-(Trimethylsilyl)-2-pyrrolidinone;<em>N</em>-(Trimethylsilyl)-2-pyrrolidone;<em>N</em>-Trimethylsilylpyrrolidone;1-(Trimethylsilyl)-2-pyrrolidone;N-(trimethylsilyl)-2-pyrrolidone;1-(Trimethylsilanyl)pyrrolidin-2-one",
    "duplicated_cas_no": "",
    "SMILES": "[Si](C)(C)(C)N1C(=O)CCC1",
    "meta_data": {
        "InChI": "InChI=1S/C7H15NOSi/c1-10(2,3)8-6-4-5-7(8)9/h4-6H2,1-3H3",
        "InChIKey": null,
        "Canonical SMILES": "O=C1N(CCC1)[Si](C)(C)C",
        "Molecular Formula": "C<sub>7</sub>H<sub>15</sub>NOSi",
        "Molecular Mass": "157.29",
        "Boiling Point": "77-81 °C @ Press: 6 Torr",
        "Melting Point": "70 °C"
    }
}