{
    "cas_no": "122-11-2",
    "key_name": "Sulfadimethoxine",
    "cn_name": "磺胺二甲氧嗪;磺胺二甲氧基嘧啶;",
    "alternate_name": "Benzenesulfonamide, 4-amino-<em>N</em>-(2,6-dimethoxy-4-pyrimidinyl)-;Sulfanilamide, <em>N</em><sup>1</sup>-(2,6-dimethoxy-4-pyrimidinyl)-;4-Amino-<em>N</em>-(2,6-dimethoxy-4-pyrimidinyl)benzenesulfonamide;Abcid;Albon;4-(<em>p</em>-Aminobenzenesulfonamido)-2,6-dimethoxypyrimidine;<em>N</em><sup>1</sup>-(2,6-Dimethoxy-4-pyrimidinyl)sulfanilamide;2,4-Dimethoxy-6-sulfanilamido-1,3-diazine;2,4-Dimethoxy-6-sulfanilamidopyrimidine;2,4-Dimethoxy-6-sulfanilamido-1,3-pyrimidine;Madribon;Madriqid;Madroxin;Omnibon;SDMO;Sulfadimethoxine;Sulfadimethoxydiazine;4-Sulfa-2,6-dimethoxypyrimidine;6-Sulfanilamido-2,4-dimethoxy-1,3-diazine;6-Sulfanilamido-2,4-dimethoxypyrimidine;4-Sulfanilamido-2,6-dimethoxypyrimidine;Sulfastop;2,6-Dimethoxy-4-sulfanilamidopyrimidine;Deposul;Sulxin;2,4-Dimethoxy-6-sulfonylamido-1,3-diazine;Sulfadimethoxin;Dimethoxysulfadiazine;Sudine;Madroxine;Symbio;Sulphadimethoxine;Sulfadimetoxin;Madrigid;Persulfen;Fuxal;Metoxidon;Scandisil;Dinosol;Sulfoplan;Dorisul;Arnosulfan;Redifal;Diasulfa;Mecozine;Lasibon;Sulforal;Sulfadimetoxine;Agribon;Sulfabon;Maxulvet;Bactrovet;Sumbio;Neostreptal;Ultrasulfon;Suldixine;NSC 683544;Sulfamed G;<em>N</em>-(2,6-Dimethoxypyrimidin-4-yl)-4-aminobenzenesulfonamide;MeSH ID: D013412",
    "duplicated_cas_no": "8017-94-5;8023-12-9",
    "SMILES": "N(S(=O)(=O)C1=CC=C(N)C=C1)C=2C=C(OC)N=C(OC)N2",
    "meta_data": {
        "InChI": "InChI=1S/C12H14N4O4S/c1-19-11-7-10(14-12(15-11)20-2)16-21(17,18)9-5-3-8(13)4-6-9/h3-7H,13H2,1-2H3,(H,14,15,16)",
        "InChIKey": null,
        "Canonical SMILES": "O=S(=O)(NC=1N=C(N=C(OC)C1)OC)C2=CC=C(N)C=C2",
        "Molecular Formula": "C<sub>12</sub>H<sub>14</sub>N<sub>4</sub>O<sub>4</sub>S",
        "Molecular Mass": "310.33",
        "Melting Point": "203.5 °C",
        "Density": "1.654 g/cm³"
    }
}