{
    "cas_no": "7398-69-8",
    "key_name": "Diallyldimethylammonium chloride",
    "cn_name": "二烯丙基二甲基氯化铵;二甲基二烯丙基氯化铵;",
    "alternate_name": "2-Propen-1-aminium, <em>N</em>,<em>N</em>-dimethyl-<em>N</em>-2-propen-1-yl-, chloride (1:1);Ammonium, diallyldimethyl-, chloride;2-Propen-1-aminium, <em>N</em>,<em>N</em>-dimethyl-<em>N</em>-2-propenyl-, chloride;Diallyldimethylammonium chloride;Dimethyldiallylammonium chloride;<em>N</em>,<em>N</em>-Diallyl-<em>N</em>,<em>N</em>-dimethylammonium chloride;C 1615;Nalco 7544;DADMAC;C 1615M-BR 30;M-DADMAC;Nalco TX 13645;LYFM 205-65;Newfrontier C 1615;Hercules D 1259;D 1259;AG Fix M 80;FC 704;Flocryl 4007Q;GY 172",
    "duplicated_cas_no": "26189-16-2;54398-19-5;58829-43-9;76484-84-9;88353-41-7;104814-50-8;118338-80-0;135976-69-1;144306-62-7;147025-96-5;149611-39-2;175716-65-1;192799-01-2;2379671-23-3",
    "SMILES": "[N+](CC=C)(CC=C)(C)C.[Cl-]",
    "meta_data": {
        "InChI": "InChI=1S/C8H16N.ClH/c1-5-7-9(3,4)8-6-2;/h5-6H,1-2,7-8H2,3-4H3;1H/q+1;/p-1",
        "InChIKey": null,
        "Canonical SMILES": "[Cl-].C=CC[N+](C)(C)CC=C",
        "Molecular Formula": "C<sub>8</sub>H<sub>16</sub>N.Cl",
        "Molecular Mass": "",
        "Melting Point": "164-167 °C"
    }
}