{
    "cas_no": "22831-39-6",
    "key_name": "Magnesium silicide (Mg<sub>2</sub>Si)",
    "cn_name": "硅化镁;",
    "alternate_name": "Magnesium silicide (Mg<sub>2</sub>Si);Dimagnesium silicide;Magnesium silicide;Dimagnesium monosilicide;Magnesium, compd. with silicon (2:1);Magnesium silicide (Mg<sub>66.7</sub>Si<sub>33.3</sub>)",
    "duplicated_cas_no": "1313-07-1;310402-17-6;1270160-10-5;1402143-05-8;1448517-05-2;2007918-24-1",
    "SMILES": "[Si](=[Mg])=[Mg]",
    "meta_data": {
        "InChI": "InChI=1S/2Mg.Si",
        "InChIKey": null,
        "Canonical SMILES": "[Mg]=[Si]=[Mg]",
        "Molecular Formula": "Mg<sub>2</sub>Si",
        "Molecular Mass": "",
        "Melting Point": "1102 °C",
        "Density": "1.940 g/cm³"
    }
}