{
    "cas_no": "17948-42-4",
    "key_name": "(6<em>S</em>,7<em>R</em>)-6,7-Dihydro-7-methyl-5<em>H</em>-cyclopenta[<em>c</em>]pyridin-6-ol",
    "cn_name": null,
    "alternate_name": "5<em>H</em>-Cyclopenta[<em>c</em>]pyridin-6-ol, 6,7-dihydro-7-methyl-, (6<em>S</em>,7<em>R</em>)-;Venoterpine;5<em>H</em>-Cyclopenta[<em>c</em>]pyridin-6-ol, 6,7-dihydro-7-methyl-, (6<em>S</em>-<em>cis</em>)-;(6<em>S</em>,7<em>R</em>)-6,7-Dihydro-7-methyl-5<em>H</em>-cyclopenta[<em>c</em>]pyridin-6-ol;Alkaloid RW 47",
    "duplicated_cas_no": "27815-59-4",
    "SMILES": "C[C@@H]1C=2C(C[C@@H]1O)=CC=NC2",
    "meta_data": {
        "InChI": "InChI=1S/C9H11NO/c1-6-8-5-10-3-2-7(8)4-9(6)11/h2-3,5-6,9,11H,4H2,1H3/t6-,9+/m1/s1",
        "InChIKey": null,
        "Canonical SMILES": "OC1CC=2C=CN=CC2C1C",
        "Molecular Formula": "C<sub>9</sub>H<sub>11</sub>NO",
        "Molecular Mass": "149.19",
        "Melting Point": "130-132 °C"
    }
}