{
    "cas_no": "128-93-8",
    "key_name": "1-Bromo-4-(methylamino)-9,10-anthracenedione",
    "cn_name": "1-甲氨基-4-溴蒽醌;",
    "alternate_name": "9,10-Anthracenedione, 1-bromo-4-(methylamino)-;Anthraquinone, 1-bromo-4-(methylamino)-;1-Bromo-4-(methylamino)-9,10-anthracenedione;1-(Methylamino)-4-bromoanthraquinone;1-Bromo-4-(methylamino)anthraquinone;1-<em>N</em>-Methylamino-4-bromo-9,10-anthraquinone;4-Bromo-1-(methylamino)anthraquinone;NSC 39941;1-Bromo-4-(<em>N</em>-methylamino)anthraquinone;4-Bromo-1-(<em>N</em>-methylamino)anthraquinone;4-Bromo-1-methylamino-9,10-anthraquinone;1-Bromo-4-(methylamino)-9,10-dihydroanthracene-9,10-dione",
    "duplicated_cas_no": "82970-77-2",
    "SMILES": "O=C1C=2C(C(=O)C=3C1=CC=CC3)=C(Br)C=CC2NC",
    "meta_data": {
        "InChI": "InChI=1S/C15H10BrNO2/c1-17-11-7-6-10(16)12-13(11)15(19)9-5-3-2-4-8(9)14(12)18/h2-7,17H,1H3",
        "InChIKey": null,
        "Canonical SMILES": "O=C1C=2C=CC=CC2C(=O)C=3C(=CC=C(Br)C13)NC",
        "Molecular Formula": "C<sub>15</sub>H<sub>10</sub>BrNO<sub>2</sub>",
        "Molecular Mass": "316.15",
        "Melting Point": "178-181 °C"
    }
}