{
    "cas_no": "98-50-0",
    "key_name": "Arsanilic acid",
    "cn_name": "4-氨基苯胂酸;",
    "alternate_name": "Arsonic acid, <em>As</em>-(4-aminophenyl)-;Arsanilic acid;Arsonic acid, (4-aminophenyl)-;<em>As</em>-(4-Aminophenyl)arsonic acid;<em>p</em>-Aminobenzenearsonic acid;Aminophenylarsine acid;<em>p</em>-Anilinearsonic acid;Atoxylic acid;Arsanilic Acid 100;Pro-gen 227 Premix;<em>p</em>-Arsanilic acid;4-Aminobenzenearsonic acid;(<em>p</em>-Aminophenyl)arsonic acid;4-Arsanilic acid;AS 101;Pro-gen;4-Arsonoaniline;Pro-gen 90;4-Aminophenylarsonic acid;<em>p</em>-Arsonoaniline;NSC 2023;MeSH ID: D001147",
    "duplicated_cas_no": "125715-67-5",
    "SMILES": "[As](=O)(O)(O)C1=CC=C(N)C=C1",
    "meta_data": {
        "InChI": "InChI=1S/C6H8AsNO3/c8-6-3-1-5(2-4-6)7(9,10)11/h1-4H,8H2,(H2,9,10,11)",
        "InChIKey": null,
        "Canonical SMILES": "O=[As](O)(O)C1=CC=C(N)C=C1",
        "Molecular Formula": "C<sub>6</sub>H<sub>8</sub>AsNO<sub>3</sub>",
        "Molecular Mass": "217.05",
        "Melting Point": "232 °C",
        "Density": "1.9571 g/cm³ @ Temp: 10 °C"
    }
}