{
    "cas_no": "599-64-4",
    "key_name": "4-Cumylphenol",
    "cn_name": "4-肉桂苯酚;4-枯基苯酚;4-(1-甲基-1-苯乙基)苯酚;对异丙苯基苯酚;",
    "alternate_name": "Phenol, 4-(1-methyl-1-phenylethyl)-;Phenol, <em>p</em>-(α,α-dimethylbenzyl)-;4-(1-Methyl-1-phenylethyl)phenol;4-Hydroxydiphenyldimethylmethane;4-(α,α-Dimethylbenzyl)phenol;<em>p</em>-(α,α-Dimethylbenzyl)phenol;2-Phenyl-2-(4-hydroxyphenyl)propane;<em>p</em>-(α-Cumyl)phenol;<em>p</em>-Cumylphenol;4-(Dimethylphenylmethyl)phenol;4-Cumylphenol;PCP;NSC 6237;2-(4-Hydroxyphenyl)-2-phenylpropane;4-α-Cumylphenol;4-(2-Phenylpropan-2-yl)phenol",
    "duplicated_cas_no": "28261-59-8",
    "SMILES": "C(C)(C)(C1=CC=C(O)C=C1)C2=CC=CC=C2",
    "meta_data": {
        "InChI": "InChI=1S/C15H16O/c1-15(2,12-6-4-3-5-7-12)13-8-10-14(16)11-9-13/h3-11,16H,1-2H3",
        "InChIKey": null,
        "Canonical SMILES": "OC1=CC=C(C=C1)C(C=2C=CC=CC2)(C)C",
        "Molecular Formula": "C<sub>15</sub>H<sub>16</sub>O",
        "Molecular Mass": "212.29",
        "Boiling Point": "213-214 °C @ Press: 25 Torr",
        "Melting Point": "73 °C",
        "Density": "1.0163 g/cm³ @ Temp: 20 °C"
    }
}