{
    "cas_no": "26964-24-9",
    "key_name": "6-Methoxyflavone",
    "cn_name": "5-甲氧基黄酮;6-甲氧基黄酮;",
    "alternate_name": "4<em>H</em>-1-Benzopyran-4-one, 6-methoxy-2-phenyl-;Flavone, 6-methoxy-;6-Methoxy-2-phenyl-4<em>H</em>-1-benzopyran-4-one;6-Methoxyflavone;6-Methoxy-2-phenylchromone;6-Methoxy-2-phenyl-4<em>H</em>-chromen-4-one",
    "duplicated_cas_no": "",
    "SMILES": "O=C1C=2C(OC(=C1)C3=CC=CC=C3)=CC=C(OC)C2",
    "meta_data": {
        "InChI": "InChI=1S/C16H12O3/c1-18-12-7-8-15-13(9-12)14(17)10-16(19-15)11-5-3-2-4-6-11/h2-10H,1H3",
        "InChIKey": null,
        "Canonical SMILES": "O=C1C=C(OC2=CC=C(OC)C=C12)C=3C=CC=CC3",
        "Molecular Formula": "C<sub>16</sub>H<sub>12</sub>O<sub>3</sub>",
        "Molecular Mass": "252.26",
        "Melting Point": "154 °C"
    }
}