{
    "cas_no": "5912-35-6",
    "key_name": "8-Bromo-1,7-naphthyridin-6-amine",
    "cn_name": null,
    "alternate_name": "1,7-Naphthyridin-6-amine, 8-bromo-;1,7-Naphthyridine, 6-amino-8-bromo-;8-Bromo-1,7-naphthyridin-6-amine;6-Amino-8-bromo-1,7-naphthyridine",
    "duplicated_cas_no": "",
    "SMILES": "BrC=1C2=C(C=C(N)N1)C=CC=N2",
    "meta_data": {
        "InChI": "InChI=1S/C8H6BrN3/c9-8-7-5(2-1-3-11-7)4-6(10)12-8/h1-4H,(H2,10,12)",
        "InChIKey": null,
        "Canonical SMILES": "BrC=1N=C(N)C=C2C=CC=NC12",
        "Molecular Formula": "C<sub>8</sub>H<sub>6</sub>BrN<sub>3</sub>",
        "Molecular Mass": "224.06",
        "Melting Point": "181 °C"
    }
}