{
    "cas_no": "657-06-7",
    "key_name": "2-Chloro-5-(trifluoromethyl)benzoic acid",
    "cn_name": "2-氯-5-(三氟甲基)苯甲酸;",
    "alternate_name": "Benzoic acid, 2-chloro-5-(trifluoromethyl)-;<em>m</em>-Toluic acid, 6-chloro-α,α,α-trifluoro-;2-Chloro-5-(trifluoromethyl)benzoic acid",
    "duplicated_cas_no": "",
    "SMILES": "C(O)(=O)C1=CC(C(F)(F)F)=CC=C1Cl",
    "meta_data": {
        "InChI": "InChI=1S/C8H4ClF3O2/c9-6-2-1-4(8(10,11)12)3-5(6)7(13)14/h1-3H,(H,13,14)",
        "InChIKey": null,
        "Canonical SMILES": "O=C(O)C1=CC(=CC=C1Cl)C(F)(F)F",
        "Molecular Formula": "C<sub>8</sub>H<sub>4</sub>ClF<sub>3</sub>O<sub>2</sub>",
        "Molecular Mass": "224.56",
        "Melting Point": "92.5-93.5 °C"
    }
}