{
    "cas_no": "31078-36-1",
    "key_name": "<em>N</em>-Vanillyldecanamide",
    "cn_name": null,
    "alternate_name": "Decanamide, <em>N</em>-[(4-hydroxy-3-methoxyphenyl)methyl]-;Decanamide, <em>N</em>-vanillyl-;<em>N</em>-[(4-Hydroxy-3-methoxyphenyl)methyl]decanamide;Vanillyl <em>N</em>-decoylamide;Decylic acid vanillylamide;Capric acid vanillylamide;<em>N</em>-Vanillyldecanamide",
    "duplicated_cas_no": "",
    "SMILES": "C(NC(CCCCCCCCC)=O)C1=CC(OC)=C(O)C=C1",
    "meta_data": {
        "InChI": "InChI=1S/C18H29NO3/c1-3-4-5-6-7-8-9-10-18(21)19-14-15-11-12-16(20)17(13-15)22-2/h11-13,20H,3-10,14H2,1-2H3,(H,19,21)",
        "InChIKey": null,
        "Canonical SMILES": "O=C(NCC1=CC=C(O)C(OC)=C1)CCCCCCCCC",
        "Molecular Formula": "C<sub>18</sub>H<sub>29</sub>NO<sub>3</sub>",
        "Molecular Mass": "307.43",
        "Melting Point": "48-50 °C"
    }
}