{
    "cas_no": "61-54-1",
    "key_name": "Tryptamine",
    "cn_name": "色胺;3-(2-氨乙基)吲哚;",
    "alternate_name": "1<em>H</em>-Indole-3-ethanamine;Indole, 3-(2-aminoethyl)-;3-(2-Aminoethyl)indole;2-(3-Indolyl)ethylamine;Tryptamine;Tryptamin;β-(3-Indolyl)ethylamine;3-Indoleethylamine;2-(1<em>H</em>-Indol-3-yl)ethylamine;2-(1<em>H</em>-Indol-3-yl)ethanamine;NSC 165212;3-Indoleethanamine;3-(2-Aminoethyl)-1<em>H</em>-indole;2-(1<em>H</em>-Indol-3-yl)ethan-1-amine",
    "duplicated_cas_no": "",
    "SMILES": "C(CN)C=1C=2C(NC1)=CC=CC2",
    "meta_data": {
        "InChI": "InChI=1S/C10H12N2/c11-6-5-8-7-12-10-4-2-1-3-9(8)10/h1-4,7,12H,5-6,11H2",
        "InChIKey": null,
        "Canonical SMILES": "NCCC1=CNC=2C=CC=CC21",
        "Molecular Formula": "C<sub>10</sub>H<sub>12</sub>N<sub>2</sub>",
        "Molecular Mass": "160.22",
        "Boiling Point": "137 °C @ Press: 0.15 Torr",
        "Melting Point": "118 °C",
        "Density": "0.15 g/cm³"
    }
}