{
    "cas_no": "8002-75-3",
    "key_name": "Palm oil",
    "cn_name": null,
    "alternate_name": "Palm oil;Oils, palm;Palm butter;Oils, palm fruit;Oils, glyceridic, palm;Red palm oil;Elaeis guineensis oil;Palm oils;Elaeis guineensis mesocarp oil;Fats and Glyceridic oils, palm;Elaeis guineensis fruit oil;Hobut;Pam Ace N;Palm Ace N;Cegesoft GPO;Carotino Premium;Palmotene;Tokyo Parix 100L;RPO;Sans Trans 39;Pamuesu N;Biscuitine 300;Palm Ace 10;Melba 40;Ferdinand Super;Ferdinand Trust;Turey oil;HOP 650;Cisao 82-53;Pamuesu 10;PL 65S;New Lacto KWF;TC 84;RPO Ace;Rosan Ice VS;Plymol 100;Palmax SG;RBDOL;EV 800;PKF 300;Multiace 20S",
    "duplicated_cas_no": "61789-94-4;90082-15-8;2102096-88-6",
    "SMILES": "",
    "meta_data": {
        "InChI": "",
        "InChIKey": null,
        "Canonical SMILES": "",
        "Molecular Formula": "Unspecified",
        "Molecular Mass": "",
        "Melting Point": "27-42.5 °C",
        "Density": "0.920-0.927 g/cm³"
    }
}