{
    "cas_no": "6231-18-1",
    "key_name": "2,6-Dimethoxypyridine",
    "cn_name": "2,6-二甲氧基吡啶;",
    "alternate_name": "Pyridine, 2,6-dimethoxy-;2,6-Dimethoxypyridine",
    "duplicated_cas_no": "",
    "SMILES": "O(C)C=1N=C(OC)C=CC1",
    "meta_data": {
        "InChI": "InChI=1S/C7H9NO2/c1-9-6-4-3-5-7(8-6)10-2/h3-5H,1-2H3",
        "InChIKey": null,
        "Canonical SMILES": "N=1C(OC)=CC=CC1OC",
        "Molecular Formula": "C<sub>7</sub>H<sub>9</sub>NO<sub>2</sub>",
        "Molecular Mass": "139.15",
        "Boiling Point": "179 °C"
    }
}