{
    "cas_no": "6274-57-3",
    "key_name": "4-Bromo-<em>N</em>,<em>N</em>-dimethylbenzenemethanamine",
    "cn_name": null,
    "alternate_name": "Benzenemethanamine, 4-bromo-<em>N</em>,<em>N</em>-dimethyl-;Benzylamine, <em>p</em>-bromo-<em>N</em>,<em>N</em>-dimethyl-;4-Bromo-<em>N</em>,<em>N</em>-dimethylbenzenemethanamine;<em>p</em>-Bromobenzyldimethylamine;4-Bromo-<em>N</em>,<em>N</em>-dimethylbenzylamine;1-Bromo-4-[(dimethylamino)methyl]benzene;NSC 37488;4-[(Dimethylamino)methyl]bromobenzene;(4-Bromobenzyl)dimethylamine;<em>N</em>,<em>N</em>-Dimethyl-4-bromobenzylamine;1-(4-Bromophenyl)-<em>N</em>,<em>N</em>-dimethylmethylamine;4-Bromobenzyl-<em>N</em>,<em>N</em>-dimethylamine;1-(4-Bromophenyl)-<em>N</em>,<em>N</em>-dimethylmethanamine;[(4-Bromophenyl)methyl]dimethylamine",
    "duplicated_cas_no": "",
    "SMILES": "C(N(C)C)C1=CC=C(Br)C=C1",
    "meta_data": {
        "InChI": "InChI=1S/C9H12BrN/c1-11(2)7-8-3-5-9(10)6-4-8/h3-6H,7H2,1-2H3",
        "InChIKey": null,
        "Canonical SMILES": "BrC1=CC=C(C=C1)CN(C)C",
        "Molecular Formula": "C<sub>9</sub>H<sub>12</sub>BrN",
        "Molecular Mass": "214.10",
        "Boiling Point": "121-122 °C @ Press: 20 Torr",
        "Melting Point": "165-167 °C"
    }
}