{
    "cas_no": "2566-30-5",
    "key_name": "<em>N</em>-Methyl-<span class=\"text-smallcaps\">L</span>-phenylalanine",
    "cn_name": "N-甲基-L-苯丙氨酸;",
    "alternate_name": "<span class=\"text-smallcaps\">L</span>-Phenylalanine, <em>N</em>-methyl-;Alanine, <em>N</em>-methyl-3-phenyl-, <span class=\"text-smallcaps\">L</span>-;<em>N</em>-Methyl-<span class=\"text-smallcaps\">L</span>-phenylalanine;<em>N</em>-Methylphenylalanine;<span class=\"text-smallcaps\">L</span>-<em>N</em>-Methylphenylalanine;(<em>S</em>)-<em>N</em>-Methylphenylalanine;<em>N</em><sup>α</sup>-Methyl-<span class=\"text-smallcaps\">L</span>-phenylalanine;(2<em>S</em>)-2-(Methylamino)-3-phenylpropanoate;(<em>S</em>)-2-Methylamino-3-phenylpropionic acid;(<em>S</em>)-2-(Methylamino)-3-phenylpropanoic acid",
    "duplicated_cas_no": "",
    "SMILES": "C([C@@H](C(O)=O)NC)C1=CC=CC=C1",
    "meta_data": {
        "InChI": "InChI=1S/C10H13NO2/c1-11-9(10(12)13)7-8-5-3-2-4-6-8/h2-6,9,11H,7H2,1H3,(H,12,13)/t9-/m0/s1",
        "InChIKey": null,
        "Canonical SMILES": "O=C(O)C(NC)CC=1C=CC=CC1",
        "Molecular Formula": "C<sub>10</sub>H<sub>13</sub>NO<sub>2</sub>",
        "Molecular Mass": "179.22",
        "Melting Point": "254-256 °C"
    }
}