{
    "cas_no": "84104-71-2",
    "key_name": "Wilforlide A",
    "cn_name": null,
    "alternate_name": "Olean-12-en-29-oic acid, 3,22-dihydroxy-, γ-lactone, (3β,20α,22α)-;4,2-(Epoxymethano)picene, olean-12-en-29-oic acid deriv.;Wilforlide A;Abruslactone A;Regelide;(-)-Abruslactone A",
    "duplicated_cas_no": "",
    "SMILES": "C[C@]12C([C@]3([C@@](C)(CC1)[C@@]4(C[C@](C)(C3)C(=O)O4)[H])[H])=CC[C@]5([C@@]2(C)CC[C@@]6([C@]5(C)CC[C@H](O)C6(C)C)[H])[H]",
    "meta_data": {
        "InChI": "InChI=1S/C30H46O3/c1-25(2)20-10-13-30(7)21(28(20,5)12-11-22(25)31)9-8-18-19-16-26(3)17-23(33-24(26)32)27(19,4)14-15-29(18,30)6/h8,19-23,31H,9-17H2,1-7H3/t19-,20-,21+,22-,23-,26-,27+,28-,29+,30+/m0/s1",
        "InChIKey": null,
        "Canonical SMILES": "O=C1OC2CC1(C)CC3C4=CCC5C6(C)CCC(O)C(C)(C)C6CCC5(C)C4(C)CCC23C",
        "Molecular Formula": "C<sub>30</sub>H<sub>46</sub>O<sub>3</sub>",
        "Molecular Mass": "454.68",
        "Melting Point": "318-320 °C"
    }
}