{
    "cas_no": "2461-42-9",
    "key_name": "2-[(1-Naphthalenyloxy)methyl]oxirane",
    "cn_name": "3-(1-萘氧基)-1,2-环氧丙烷;",
    "alternate_name": "Oxirane, 2-[(1-naphthalenyloxy)methyl]-;Naphthalene, 1-(2,3-epoxypropoxy)-;Oxirane, [(1-naphthalenyloxy)methyl]-;Propane, 1,2-epoxy-3-(1-naphthyloxy)-;2-[(1-Naphthalenyloxy)methyl]oxirane;1-(2,3-Epoxypropoxy)naphthalene;1-(1-Naphthyloxy)-2,3-epoxypropane;1-(1-Naphthoxy)-2,3-epoxypropane;1-(α-Naphthoxy)-2,3-epoxypropane;1,2-Epoxy-3-(α-naphthoxy)propane;Glycidyl 1-naphthyl ether;1-(Glycidyloxy)naphthalene;Glycidyl α-naphthyl ether;1,2-Epoxy-3-(1-naphthoxy)propane;α-Naphthyl glycidyl ether;1-Naphthyl glycidyl ether;2,3-Epoxypropyl 1-naphthyl ether;3-(1-Naphthyloxy)-1,2-epoxypropane;(1-Naphthoxymethyl)oxirane;(±)-1-(1-Naphthyloxy)-2,3-epoxypropane;(1-Naphthyloxymethyl)oxirane;2-(1-Naphthyloxymethyl)oxirane;3-(1-Naphthyloxy)propylene oxide;NSC 632;1-Naphthalenyloxymethyloxirane;2-[[(Naphthalen-1-yl)oxy]methyl]oxirane;1-Naphthol glycidyl ether;3-(1-Naphthoxy)-1,2-epoxypropane",
    "duplicated_cas_no": "87144-72-7",
    "SMILES": "O(CC1CO1)C=2C3=C(C=CC2)C=CC=C3",
    "meta_data": {
        "InChI": "InChI=1S/C13H12O2/c1-2-6-12-10(4-1)5-3-7-13(12)15-9-11-8-14-11/h1-7,11H,8-9H2",
        "InChIKey": null,
        "Canonical SMILES": "O(C1=CC=CC=2C=CC=CC12)CC3OC3",
        "Molecular Formula": "C<sub>13</sub>H<sub>12</sub>O<sub>2</sub>",
        "Molecular Mass": "200.23",
        "Boiling Point": "203-203.5 °C @ Press: 18 Torr",
        "Melting Point": "95 °C"
    }
}