{
    "cas_no": "12091-64-4",
    "key_name": "Molybdenum, hexacarbonylbis(η<sup>5</sup>-2,4-cyclopentadien-1-yl)di-, (<em>Mo</em>-<em>Mo</em>)",
    "cn_name": null,
    "alternate_name": "Molybdenum, hexacarbonylbis(η<sup>5</sup>-2,4-cyclopentadien-1-yl)di-, (<em>Mo</em>-<em>Mo</em>);Molybdenum, hexacarbonyldi-π-cyclopentadienyldi-;Molybdenum, hexacarbonyldicyclopentadienyldi-;Bis(π-cyclopentadienylmolybdenum tricarbonyl);Hexacarbonyldi-π-cyclopentadienyldimolybdenum;Cyclopentadienyltricarbonylmolybdenum dimer;Hexacarbonylbis(η<sup>5</sup>-cyclopentadienyl)dimolybdenum(I);Bis[(η<sup>5</sup>-cyclopentadienyl)tricarbonylmolybdenum];Bis[tricarbonyl(η<sup>5</sup>-cyclopentadienyl)molybdenum];Hexacarbonylbis(cyclopentadienyl)dimolybdenum;Hexacarbonylbis(η<sup>5</sup>-cyclopentadienyl)dimolybdenum;Hexacarbonylbis(η<sup>5</sup>-cyclopentadienyl)dimolybdenum(Mo-Mo);Cyclopentadienylmolybdenum(II) tricarbonyl",
    "duplicated_cas_no": "119130-47-1;12566-65-3;50803-49-1;51151-80-5",
    "SMILES": "C(#O)[Mo+]1234(C#O)(C#O)([CH-]5[CH]1=[CH]2[CH]3=[CH]45)[Mo+]6789(C#O)(C#O)(C#O)[CH-]%10[CH]6=[CH]7[CH]8=[CH]9%10",
    "meta_data": {
        "InChI": "InChI=1S/2C5H5.6CO.2Mo/c2*1-2-4-5-3-1;6*1-2;;/h2*1-5H;;;;;;;;/q2*-1;;;;;;;2*+1",
        "InChIKey": null,
        "Canonical SMILES": "O#C[Mo+]1234(C#O)(C#O)([CH]=5[CH]4=[CH]3[CH-]2[CH]51)[Mo+]6789(C#O)(C#O)(C#O)[CH]=%10[CH]9=[CH]8[CH-]7[CH]%106",
        "Molecular Formula": "C<sub>16</sub>H<sub>10</sub>Mo<sub>2</sub>O<sub>6</sub>",
        "Molecular Mass": "",
        "Melting Point": "215 °C (decomp)"
    }
}