{
    "cas_no": "1912-31-8",
    "key_name": "Propyl methanesulfonate",
    "cn_name": null,
    "alternate_name": "Methanesulfonic acid, propyl ester;Propyl methanesulfonate;NSC 49872;<em>n</em>-Propyl methanesulfonate;Propyl mesylate",
    "duplicated_cas_no": "",
    "SMILES": "O(S(C)(=O)=O)CCC",
    "meta_data": {
        "InChI": "InChI=1S/C4H10O3S/c1-3-4-7-8(2,5)6/h3-4H2,1-2H3",
        "InChIKey": null,
        "Canonical SMILES": "O=S(=O)(OCCC)C",
        "Molecular Formula": "C<sub>4</sub>H<sub>10</sub>O<sub>3</sub>S",
        "Molecular Mass": "138.19",
        "Boiling Point": "115 °C @ Press: 21 Torr"
    }
}