{
    "cas_no": "1620-30-0",
    "key_name": "α,α-Diphenyl-4-pyridinemethanol",
    "cn_name": "二苯基(4-吡啶基)甲醇;",
    "alternate_name": "4-Pyridinemethanol, α,α-diphenyl-;α,α-Diphenyl-4-pyridinemethanol;Diphenyl-4-pyridylmethanol;4-Pyridyldiphenylcarbinol;α-(4-Pyridyl)benzhydrol;NSC 241092;NSC 525212;α-Pyridylbenzhydrol",
    "duplicated_cas_no": "",
    "SMILES": "C(O)(C1=CC=CC=C1)(C2=CC=CC=C2)C=3C=CN=CC3",
    "meta_data": {
        "InChI": "InChI=1S/C18H15NO/c20-18(15-7-3-1-4-8-15,16-9-5-2-6-10-16)17-11-13-19-14-12-17/h1-14,20H",
        "InChIKey": null,
        "Canonical SMILES": "OC(C=1C=CN=CC1)(C=2C=CC=CC2)C=3C=CC=CC3",
        "Molecular Formula": "C<sub>18</sub>H<sub>15</sub>NO",
        "Molecular Mass": "261.32",
        "Melting Point": "238-238.5 °C"
    }
}