{
    "cas_no": "3946-32-5",
    "key_name": "1-Methyl octanedioate",
    "cn_name": null,
    "alternate_name": "Octanedioic acid, 1-methyl ester;Suberic acid, monomethyl ester;Octanedioic acid, monomethyl ester;Suberic acid, methyl ester;1-Methyl octanedioate;Monomethyl suberate;Methyl 7-carboxyheptanoate;Methyl 1,8-octanedionate;8-Methoxy-8-oxooctanoic acid",
    "duplicated_cas_no": "",
    "SMILES": "C(CCCCCCC(O)=O)(OC)=O",
    "meta_data": {
        "InChI": "InChI=1S/C9H16O4/c1-13-9(12)7-5-3-2-4-6-8(10)11/h2-7H2,1H3,(H,10,11)",
        "InChIKey": null,
        "Canonical SMILES": "O=C(O)CCCCCCC(=O)OC",
        "Molecular Formula": "C<sub>9</sub>H<sub>16</sub>O<sub>4</sub>",
        "Molecular Mass": "188.22",
        "Boiling Point": "146-150 °C @ Press: 1 Torr",
        "Melting Point": "17-19 °C",
        "Density": "1.047 g/cm³ @ Temp: 20 °C"
    }
}