{
    "cas_no": "18802-37-4",
    "key_name": "Dihydro-1,2,4-triazine-3,5(2<em>H</em>,4<em>H</em>)-dione",
    "cn_name": null,
    "alternate_name": "1,2,4-Triazine-3,5(2<em>H</em>,4<em>H</em>)-dione, dihydro-;<em>as</em>-Triazine-3,5(2<em>H</em>,4<em>H</em>)-dione, dihydro-;Dihydro-1,2,4-triazine-3,5(2<em>H</em>,4<em>H</em>)-dione;5,6-Dihydro-6-azauracil;Hexahydro-1,2,4-triazine-3,5-dione;1,2,4-Triazinane-3,5-dione",
    "duplicated_cas_no": "",
    "SMILES": "O=C1NC(=O)NNC1",
    "meta_data": {
        "InChI": "InChI=1S/C3H5N3O2/c7-2-1-4-6-3(8)5-2/h4H,1H2,(H2,5,6,7,8)",
        "InChIKey": null,
        "Canonical SMILES": "O=C1NNCC(=O)N1",
        "Molecular Formula": "C<sub>3</sub>H<sub>5</sub>N<sub>3</sub>O<sub>2</sub>",
        "Molecular Mass": "115.09",
        "Melting Point": "234 °C"
    }
}