{
    "cas_no": "30578-37-1",
    "key_name": "Amezinium metilsulfate",
    "cn_name": "甲磺美嗪;6-甲氧基-1-苯基哒嗪-1-鎓-4-胺甲磺酸盐;",
    "alternate_name": "Pyridazinium, 4-amino-6-methoxy-1-phenyl-, methyl sulfate (1:1);Pyridazinium, 4-amino-6-methoxy-1-phenyl-, methyl sulfate;1-Phenyl-4-amino-6-methoxypyridazinium methyl sulfate;Lu 1631;Amezinium metilsulfate;Regulton;Amezinium methyl sulfate;Risumic;Supratonin",
    "duplicated_cas_no": "",
    "SMILES": "O(C)C=1[N+](=NC=C(N)C1)C2=CC=CC=C2.S(OC)(=O)(=O)[O-]",
    "meta_data": {
        "InChI": "InChI=1S/C11H11N3O.CH4O4S/c1-15-11-7-9(12)8-13-14(11)10-5-3-2-4-6-10;1-5-6(2,3)4/h2-8,12H,1H3;1H3,(H,2,3,4)",
        "InChIKey": null,
        "Canonical SMILES": "O=S(=O)([O-])OC.N=1C=C(N)C=C(OC)[N+]1C=2C=CC=CC2",
        "Molecular Formula": "C<sub>11</sub>H<sub>12</sub>N<sub>3</sub>O.CH<sub>3</sub>O<sub>4</sub>S",
        "Molecular Mass": "",
        "Melting Point": "176 °C (decomp)"
    }
}