{
    "cas_no": "519-73-3",
    "key_name": "Triphenylmethane",
    "cn_name": "三苯基甲烷;",
    "alternate_name": "Benzene, 1,1′,1′′-methylidynetris-;Methane, triphenyl-;1,1′,1′′-Methylidynetris[benzene];Triphenylmethane;Tritane;NSC 4049",
    "duplicated_cas_no": "25954-71-6",
    "SMILES": "C(C1=CC=CC=C1)(C2=CC=CC=C2)C3=CC=CC=C3",
    "meta_data": {
        "InChI": "InChI=1S/C19H16/c1-4-10-16(11-5-1)19(17-12-6-2-7-13-17)18-14-8-3-9-15-18/h1-15,19H",
        "InChIKey": null,
        "Canonical SMILES": "C=1C=CC(=CC1)C(C=2C=CC=CC2)C=3C=CC=CC3",
        "Molecular Formula": "C<sub>19</sub>H<sub>16</sub>",
        "Molecular Mass": "244.33",
        "Boiling Point": "359 °C",
        "Melting Point": "94 °C",
        "Density": "1.142 g/cm³"
    }
}