{
    "cas_no": "15014-25-2",
    "key_name": "Dibenzyl malonate",
    "cn_name": "马来酸二苄酯;二苄基马来酸酯;丙二酸二苯酯;马来酸二苄酯;二苄基丙二酸酯;马来酸二苄酯,95%;丙二酸二苄酯;",
    "alternate_name": "Propanedioic acid, 1,3-bis(phenylmethyl) ester;Malonic acid, dibenzyl ester;Propanedioic acid, bis(phenylmethyl) ester;Dibenzyl malonate;NSC 101027;1,3-Dibenzyl propanedioate",
    "duplicated_cas_no": "",
    "SMILES": "C(OC(CC(OCC1=CC=CC=C1)=O)=O)C2=CC=CC=C2",
    "meta_data": {
        "InChI": "InChI=1S/C17H16O4/c18-16(20-12-14-7-3-1-4-8-14)11-17(19)21-13-15-9-5-2-6-10-15/h1-10H,11-13H2",
        "InChIKey": null,
        "Canonical SMILES": "O=C(OCC=1C=CC=CC1)CC(=O)OCC=2C=CC=CC2",
        "Molecular Formula": "C<sub>17</sub>H<sub>16</sub>O<sub>4</sub>",
        "Molecular Mass": "284.31",
        "Boiling Point": "234-235 °C"
    }
}