{
    "cas_no": "25103-58-6",
    "key_name": "<em>tert</em>-Dodecyl mercaptan",
    "cn_name": "叔十二烷基硫醇;叔十二碳硫醇;TDM;",
    "alternate_name": "<em>tert</em>-Dodecanethiol;<em>tert</em>-Dodecyl mercaptan;<em>tert</em>-Dodecyl thiol;Sulfole 120;t-DDM;<em>tert</em>-Lauryl mercaptan;TDM",
    "duplicated_cas_no": "90501-34-1;119147-91-0;1971112-70-5",
    "SMILES": "",
    "meta_data": {
        "InChI": "",
        "InChIKey": null,
        "Canonical SMILES": "",
        "Molecular Formula": "C<sub>12</sub>H<sub>26</sub>S",
        "Molecular Mass": "",
        "Boiling Point": "160-193 °C",
        "Density": "0.855 g/cm³"
    }
}