{
    "cas_no": "77-77-0",
    "key_name": "Divinyl sulfone",
    "cn_name": "乙烯砜;二乙烯砜;二乙烯基砜;",
    "alternate_name": "Ethene, 1,1′-sulfonylbis-;Vinyl sulfone;1,1′-Sulfonylbis[ethene];Divinyl sulfone;Bis(ethenyl)sulfone;NSC 133793;NSC 18590;NSC 57304;Ethenylsulfonylethene;1-Vinylsulfonylethylene;Vinylsulfonylethene;(Ethenesulfonyl)ethene;V 3700 (crosslinker)",
    "duplicated_cas_no": "",
    "SMILES": "S(C=C)(C=C)(=O)=O",
    "meta_data": {
        "InChI": "InChI=1S/C4H6O2S/c1-3-7(5,6)4-2/h3-4H,1-2H2",
        "InChIKey": null,
        "Canonical SMILES": "O=S(=O)(C=C)C=C",
        "Molecular Formula": "C<sub>4</sub>H<sub>6</sub>O<sub>2</sub>S",
        "Molecular Mass": "118.15",
        "Boiling Point": "234.5 °C",
        "Melting Point": "-26 °C",
        "Density": "1.177 g/cm³ @ Temp: 25 °C"
    }
}