{
    "cas_no": "27469-60-9",
    "key_name": "1-[Bis(4-fluorophenyl)methyl]piperazine",
    "cn_name": "4,4\"-二氟苯甲哌嗪;",
    "alternate_name": "Piperazine, 1-[bis(4-fluorophenyl)methyl]-;Piperazine, 1-[bis(<em>p</em>-fluorophenyl)methyl]-;1-[Bis(4-fluorophenyl)methyl]piperazine;1-(Di-<em>p</em>-fluorobenzhydryl)piperazine;R 19352;T 841;<em>N</em>-(4,4′-Difluorobenzhydryl)piperazine;<em>N</em>-(Bis(4-fluorophenyl)methyl)piperazine;4-[Bis(4-fluorophenyl)methyl]piperazine;4,4′-Difluorobenzhydrylpiperazine",
    "duplicated_cas_no": "1082831-33-1",
    "SMILES": "C(C1=CC=C(F)C=C1)(C2=CC=C(F)C=C2)N3CCNCC3",
    "meta_data": {
        "InChI": "InChI=1S/C17H18F2N2/c18-15-5-1-13(2-6-15)17(21-11-9-20-10-12-21)14-3-7-16(19)8-4-14/h1-8,17,20H,9-12H2",
        "InChIKey": null,
        "Canonical SMILES": "FC1=CC=C(C=C1)C(C2=CC=C(F)C=C2)N3CCNCC3",
        "Molecular Formula": "C<sub>17</sub>H<sub>18</sub>F<sub>2</sub>N<sub>2</sub>",
        "Molecular Mass": "288.33",
        "Melting Point": "88-91 °C"
    }
}