{
    "cas_no": "105-06-6",
    "key_name": "<em>p</em>-Divinylbenzene",
    "cn_name": "对二乙烯苯;1,4-二乙烯基苯;",
    "alternate_name": "Benzene, 1,4-diethenyl-;Benzene, <em>p</em>-divinyl-;1,4-Diethenylbenzene;<em>p</em>-Divinylbenzene;<em>p</em>-Vinylstyrene;1,4-Divinylbenzene;4-Vinylstyrene",
    "duplicated_cas_no": "56481-85-7;2576469-83-3",
    "SMILES": "C(=C)C1=CC=C(C=C)C=C1",
    "meta_data": {
        "InChI": "InChI=1S/C10H10/c1-3-9-5-7-10(4-2)8-6-9/h3-8H,1-2H2",
        "InChIKey": null,
        "Canonical SMILES": "C=CC1=CC=C(C=C)C=C1",
        "Molecular Formula": "C<sub>10</sub>H<sub>10</sub>",
        "Molecular Mass": "130.19",
        "Boiling Point": "52 °C @ Press: 4 Torr",
        "Melting Point": "31 °C",
        "Density": "0.913 g/cm³ @ Temp: 40 °C"
    }
}