{
    "cas_no": "7440-25-7",
    "key_name": "Tantalum",
    "cn_name": "钽粉;钽;钽片;钽箔;单晶钽片;钽片(不规则);钽球;钽丝;钽网;",
    "alternate_name": "Tantalum;Tantalum-181;JIS H4701 TaH;JIS TaH;C 606;Trabecular Metal;VFI 70KD;QR 7;S 506;STA 100 (metal);S 700 (metal);STA 150;S 700;STA 100;NH 175;TU 4D;C 255 (metal);C 255;STA 150KA;Trabeculite;Tantal Nodular;MeSH ID: D013635",
    "duplicated_cas_no": "1926138-08-0;2933217-02-6",
    "SMILES": "[Ta]",
    "meta_data": {
        "InChI": "InChI=1S/Ta",
        "InChIKey": null,
        "Canonical SMILES": "[Ta]",
        "Molecular Formula": "Ta",
        "Molecular Mass": "",
        "Boiling Point": "5429 °C",
        "Melting Point": "2996 °C",
        "Density": "16.64 g/cm³"
    }
}