{
    "cas_no": "778-22-3",
    "key_name": "Dimethyldiphenylmethane",
    "cn_name": "2,2-二苯基丙烷;",
    "alternate_name": "Benzene, 1,1′-(1-methylethylidene)bis-;Propane, 2,2-diphenyl-;1,1′-(1-Methylethylidene)bis[benzene];2,2-Diphenylpropane;Dimethyldiphenylmethane;2-Phenylpropan-2-ylbenzene",
    "duplicated_cas_no": "",
    "SMILES": "C(C)(C)(C1=CC=CC=C1)C2=CC=CC=C2",
    "meta_data": {
        "InChI": "InChI=1S/C15H16/c1-15(2,13-9-5-3-6-10-13)14-11-7-4-8-12-14/h3-12H,1-2H3",
        "InChIKey": null,
        "Canonical SMILES": "C=1C=CC(=CC1)C(C=2C=CC=CC2)(C)C",
        "Molecular Formula": "C<sub>15</sub>H<sub>16</sub>",
        "Molecular Mass": "196.29",
        "Boiling Point": "282.5 °C",
        "Melting Point": "29 °C",
        "Density": "0.9958 g/cm³ @ Temp: 25 °C"
    }
}