{
    "cas_no": "4408-64-4",
    "key_name": "<em>N</em>-Methyliminodiacetic acid",
    "cn_name": "N-甲基亚氨二乙酸;N-甲基亚氨基二乙酸;",
    "alternate_name": "Glycine, <em>N</em>-(carboxymethyl)-<em>N</em>-methyl-;Acetic acid, (methylimino)di-;<em>N</em>-(Carboxymethyl)-<em>N</em>-methylglycine;MIDA;<em>N</em>-Methyliminodiacetic acid;Methylimidodiacetic acid;(Methylimino)diacetic acid;<em>N</em>-Methylaminodiacetic acid;NSC 11773;2,2′-Methyliminodiacetic acid;2,2′-(Methylazanediyl)diacetic acid;(Carboxymethyl-methyl-amino)-acetic acid;2-[Carboxymethyl(methyl)amino]acetic acid;2-[(Carboxymethyl)(methyl)amino]acetic acid",
    "duplicated_cas_no": "",
    "SMILES": "C(N(CC(O)=O)C)C(O)=O",
    "meta_data": {
        "InChI": "InChI=1S/C5H9NO4/c1-6(2-4(7)8)3-5(9)10/h2-3H2,1H3,(H,7,8)(H,9,10)",
        "InChIKey": null,
        "Canonical SMILES": "O=C(O)CN(C)CC(=O)O",
        "Molecular Formula": "C<sub>5</sub>H<sub>9</sub>NO<sub>4</sub>",
        "Molecular Mass": "147.13",
        "Melting Point": "216-219 °C (decomp)"
    }
}