{
    "cas_no": "826-73-3",
    "key_name": "Benzosuberone",
    "cn_name": "1-苯并环庚酮;",
    "alternate_name": "5<em>H</em>-Benzocyclohepten-5-one, 6,7,8,9-tetrahydro-;6,7,8,9-Tetrahydro-5<em>H</em>-benzocyclohepten-5-one;1-Benzosuberanone;Benzo[<em>b</em>]cycloheptan-1-one;α-Benzosuberone;2,3-Benzosuberone;6,7,8,9-Tetrahydrobenzocyclohepten-5-one;1-Benzosuberone;5-Benzocycloheptanone;Benzosuberone;1-Benzocycloheptanone;NSC 87961;6,7,8,9-tetrahydro-5H-benzocyclohepten-5-one;6,7,8,9-Tetrahydro-5<em>H</em>-benzo[7]annulen-5-one",
    "duplicated_cas_no": "168099-12-5",
    "SMILES": "O=C1C=2C(=CC=CC2)CCCC1",
    "meta_data": {
        "InChI": "InChI=1S/C11H12O/c12-11-8-4-2-6-9-5-1-3-7-10(9)11/h1,3,5,7H,2,4,6,8H2",
        "InChIKey": null,
        "Canonical SMILES": "O=C1C=2C=CC=CC2CCCC1",
        "Molecular Formula": "C<sub>11</sub>H<sub>12</sub>O",
        "Molecular Mass": "160.21",
        "Boiling Point": "139 °C",
        "Melting Point": "202 °C",
        "Density": "1.0780 g/cm³ @ Temp: 20 °C"
    }
}