{
    "cas_no": "1491-41-4",
    "key_name": "Naftalofos",
    "cn_name": "萘肽磷;O,O-二乙基-O-萘二甲酰亚胺基磷酸酯;",
    "alternate_name": "Phosphoric acid, 1,3-dioxo-1<em>H</em>-benz[<em>de</em>]isoquinolin-2(3<em>H</em>)-yl diethyl ester;Naphthalimide, <em>N</em>-hydroxy-, diethyl phosphate;1<em>H</em>-Benz[<em>de</em>]isoquinoline-1,3(2<em>H</em>)-dione, 2-[(diethoxyphosphinyl)oxy]-;S 940;ENT 25567;<em>O</em>,<em>O</em>-Diethyl N-hydroxynaphthalimide phosphate;<em>N</em>-Hydroxynaphthalimide diethyl phosphate;Naftalofos;Naphthalophos;Rametin;BAY 9002;Maretin;Bayer 9002;1,3-Dioxo-1<em>H</em>-benzo[<em>de</em>]isoquinolin-2(3<em>H</em>)-yl diethyl phosphate",
    "duplicated_cas_no": "57-99-8",
    "SMILES": "O=C1C=2C=3C(C(=O)N1OP(OCC)(OCC)=O)=CC=CC3C=CC2",
    "meta_data": {
        "InChI": "InChI=1S/C16H16NO6P/c1-3-21-24(20,22-4-2)23-17-15(18)12-9-5-7-11-8-6-10-13(14(11)12)16(17)19/h5-10H,3-4H2,1-2H3",
        "InChIKey": null,
        "Canonical SMILES": "O=C1C=2C=CC=C3C=CC=C(C(=O)N1OP(=O)(OCC)OCC)C32",
        "Molecular Formula": "C<sub>16</sub>H<sub>16</sub>NO<sub>6</sub>P",
        "Molecular Mass": "349.28",
        "Melting Point": "177 °C"
    }
}