{
    "cas_no": "17407-55-5",
    "key_name": "(<em>S</em>)-2-Hydroxy-3-methylbutanoic acid",
    "cn_name": "L-α-羟基异戊酸;",
    "alternate_name": "Butanoic acid, 2-hydroxy-3-methyl-, (2<em>S</em>)-;Butanoic acid, 2-hydroxy-3-methyl-, (<em>S</em>)-;Butyric acid, 2-hydroxy-3-methyl-, (<span class=\"text-smallcaps\">L</span>)-;(2<em>S</em>)-2-Hydroxy-3-methylbutanoic acid;<span class=\"text-smallcaps\">L</span>-2-Hydroxy-3-methylbutyric acid;<span class=\"text-smallcaps\">L</span>-α-Hydroxyisovaleric acid;<span class=\"text-smallcaps\">L</span>-2-Hydroxyisovaleric acid;(<em>S</em>)-2-Hydroxyisovaleric acid;(<em>S</em>)-α-Hydroxyisovaleric acid;(+)-2-Hydroxy-3-methylbutyric acid;(<em>S</em>)-2-Hydroxy-3-methylbutanoic acid;(+)-α-Hydroxyisovaleric acid;(<em>S</em>)-2-Hydroxy-3-methylbutyric acid;(+)-2-Hydroxyisovaleric acid;(<em>S</em>)-(+)-2-Hydroxyisovaleric acid;(<em>S</em>)-(+)-2-Hydroxy-3-methylbutanoic acid;(2S)-2-Hydroxy-3-methylbutanoic acid;(<em>S</em>)-(+)-2-Hydroxy-3-methylbutyric acid;<span class=\"text-smallcaps\">L</span>-2-Hydroxy-3-methylbutanoic acid",
    "duplicated_cas_no": "96166-24-4;19451-58-2",
    "SMILES": "[C@H](C(C)C)(C(O)=O)O",
    "meta_data": {
        "InChI": "InChI=1S/C5H10O3/c1-3(2)4(6)5(7)8/h3-4,6H,1-2H3,(H,7,8)/t4-/m0/s1",
        "InChIKey": null,
        "Canonical SMILES": "O=C(O)C(O)C(C)C",
        "Molecular Formula": "C<sub>5</sub>H<sub>10</sub>O<sub>3</sub>",
        "Molecular Mass": "118.13",
        "Melting Point": "71-72 °C"
    }
}