{
    "cas_no": "766-93-8",
    "key_name": "Cyclohexylformamide",
    "cn_name": "N-环己基甲酰胺;",
    "alternate_name": "Formamide, <em>N</em>-cyclohexyl-;<em>N</em>-Cyclohexylformamide;Cyclohexylformamide;Formamidocyclohexane;<em>N</em>-Formylcyclohexylamine;NSC 76127;Formylaminocyclohexane",
    "duplicated_cas_no": "",
    "SMILES": "N(C=O)C1CCCCC1",
    "meta_data": {
        "InChI": "InChI=1S/C7H13NO/c9-6-8-7-4-2-1-3-5-7/h6-7H,1-5H2,(H,8,9)",
        "InChIKey": null,
        "Canonical SMILES": "O=CNC1CCCCC1",
        "Molecular Formula": "C<sub>7</sub>H<sub>13</sub>NO",
        "Molecular Mass": "127.18",
        "Boiling Point": "260 °C",
        "Melting Point": "39.5 °C",
        "Density": "1.0123 g/cm³ @ Temp: 17 °C"
    }
}