{
    "cas_no": "13726-69-7",
    "key_name": "1-(1,1-Dimethylethyl) (2<em>S</em>,4<em>R</em>)-4-hydroxy-1,2-pyrrolidinedicarboxylate",
    "cn_name": "Boc-L-羟脯氨酸;N-叔丁氧羰基-4-羟基-L-脯氨酸;",
    "alternate_name": "1,2-Pyrrolidinedicarboxylic acid, 4-hydroxy-, 1-(1,1-dimethylethyl) ester, (2<em>S</em>,4<em>R</em>)-;1,2-Pyrrolidinedicarboxylic acid, 4-hydroxy-, 1-<em>tert</em>-butyl ester, <span class=\"text-smallcaps\">L</span>-;1,2-Pyrrolidinedicarboxylic acid, 4-hydroxy-, 1-(1,1-dimethylethyl) ester, (2<em>S</em>-<em>trans</em>)-;1-(1,1-Dimethylethyl) (2<em>S</em>,4<em>R</em>)-4-hydroxy-1,2-pyrrolidinedicarboxylate;<em>N</em>-(<em>tert</em>-Butoxycarbonyl)hydroxy-<span class=\"text-smallcaps\">L</span>-proline;<em>N</em>-(<em>tert</em>-Butyloxycarbonyl)-4-hydroxyproline;<em>N</em>-(<em>tert</em>-Butoxycarbonyl)hydroxyproline;<em>N</em>-(<em>tert</em>-Butoxycarbonyl)-4-hydroxy-<span class=\"text-smallcaps\">L</span>-proline;(2<em>S</em>,4<em>R</em>)-1-(<em>tert</em>-Butoxycarbonyl)-4-hydroxypyrrolidine-2-carboxylic acid;<em>N</em>-<em>tert</em>-Butoxycarbonyl-(4<em>R</em>)-4-hydroxy-<span class=\"text-smallcaps\">L</span>-proline;<em>trans</em>-1-(<em>tert</em>-Butoxycarbonyl)-4-hydroxy-<span class=\"text-smallcaps\">L</span>-proline;(2<em>S</em>,4<em>R</em>)-4-Hydroxypyrrolidine-1,2-dicarboxylic acid 1-<em>tert</em>-butyl ester;(2<em>S</em>,4<em>R</em>)-4-Hydroxy-1-(<em>tert</em>-butoxycarbonyl)pyrrolidine-2-carboxylic acid;NSC 343720;(4<em>R</em>)-1-(<em>tert</em>-Butoxycarbonyl)-4-hydroxy-<span class=\"text-smallcaps\">L</span>-proline;1-(<em>tert</em>-Butoxycarbonyl)-(2S,4R)-4-hydroxypyrrolidine-2-carboxylic acid;(2S,4R)-1-(<em>tert</em>-Butoxycarbonyl)-4-hydroxypyrrolidine-2-carboxylic acid;(2S,4R)-4-Hydroxy-1-[(2-methylpropan-2-yl)oxycarbonyl]pyrrolidine-2-carboxylic acid;Boc-<span class=\"text-smallcaps\">L</span>-<em>trans</em>-γ-hydroxyproline;<em>N</em>-Boc-<em>trans</em>-4-hydroxy-<span class=\"text-smallcaps\">L</span>-proline;Boc-<em>trans</em>-Hydroxy-<span class=\"text-smallcaps\">L</span>-proline;(2S,4R)-<em>N</em>-<em>tert</em>-Butoxycarbonyl-4-hydroxyproline;<em>N</em>-<em>tert</em>-Butoxycarbonyl trans-4-hydroxy-<span class=\"text-smallcaps\">L</span>-proline",
    "duplicated_cas_no": "112770-75-9",
    "SMILES": "C(OC(C)(C)C)(=O)N1[C@H](C(O)=O)C[C@@H](O)C1",
    "meta_data": {
        "InChI": "InChI=1S/C10H17NO5/c1-10(2,3)16-9(15)11-5-6(12)4-7(11)8(13)14/h6-7,12H,4-5H2,1-3H3,(H,13,14)/t6-,7+/m1/s1",
        "InChIKey": null,
        "Canonical SMILES": "O=C(OC(C)(C)C)N1CC(O)CC1C(=O)O",
        "Molecular Formula": "C<sub>10</sub>H<sub>17</sub>NO<sub>5</sub>",
        "Molecular Mass": "231.25",
        "Melting Point": "126-128 °C"
    }
}