{
    "cas_no": "1956-06-5",
    "key_name": "<em>p</em>-Nitrophenyl propionate",
    "cn_name": "丙酸对硝基苯;对-硝基苯基丙酸酯;",
    "alternate_name": "Propanoic acid, 4-nitrophenyl ester;Propionic acid, <em>p</em>-nitrophenyl ester;<em>p</em>-Nitrophenyl propionate;<em>p</em>-Nitrophenyl <em>n</em>-propionate;4-Nitrophenyl propionate;<em>p</em>-Nitrophenyl propanoate;NSC 404316;4-Nitrophenyl propanoate",
    "duplicated_cas_no": "",
    "SMILES": "O(C(CC)=O)C1=CC=C(N(=O)=O)C=C1",
    "meta_data": {
        "InChI": "InChI=1S/C9H9NO4/c1-2-9(11)14-8-5-3-7(4-6-8)10(12)13/h3-6H,2H2,1H3",
        "InChIKey": null,
        "Canonical SMILES": "O=C(OC1=CC=C(C=C1)N(=O)=O)CC",
        "Molecular Formula": "C<sub>9</sub>H<sub>9</sub>NO<sub>4</sub>",
        "Molecular Mass": "195.17",
        "Melting Point": "65-65.5 °C"
    }
}