{
    "cas_no": "7400-27-3",
    "key_name": "Hydrazine, (1,1-dimethylethyl)-, hydrochloride (1:1)",
    "cn_name": "叔丁基肼盐酸盐;",
    "alternate_name": "Hydrazine, (1,1-dimethylethyl)-, hydrochloride (1:1);Hydrazine, <em>tert</em>-butyl-, monohydrochloride;Hydrazine, (1,1-dimethylethyl)-, monohydrochloride;Hydrazine, <em>tert</em>-butyl-, hydrochloride;<em>tert</em>-Butylhydrazinium chloride;<em>tert</em>-Butylhydrazine hydrochloride;<em>tert</em>-Butylhydrazine monohydrochloride;(1,1-Dimethylethyl)hydrazine hydrochloride;<em>N</em>′-<em>tert</em>-Butylhydrazine hydrochloride;t-Butylhydrazine hydrochloride;<em>N</em>-<em>tert</em>-Butyl hydrazine hydrochloride",
    "duplicated_cas_no": "",
    "SMILES": "C(NN)(C)(C)C.Cl",
    "meta_data": {
        "InChI": "InChI=1S/C4H12N2.ClH/c1-4(2,3)6-5;/h6H,5H2,1-3H3;1H",
        "InChIKey": null,
        "Canonical SMILES": "Cl.NNC(C)(C)C",
        "Molecular Formula": "C<sub>4</sub>H<sub>12</sub>N<sub>2</sub>.ClH",
        "Molecular Mass": "",
        "Melting Point": "191-192 °C"
    }
}