{
    "cas_no": "144927-57-1",
    "key_name": "7<em>H</em>-Pyrrolo[2,3-<em>d</em>]pyrimidine-5-carboxylic acid, 4-chloro-, ethyl ester",
    "cn_name": null,
    "alternate_name": "7<em>H</em>-Pyrrolo[2,3-<em>d</em>]pyrimidine-5-carboxylic acid, 4-chloro-, ethyl ester;1<em>H</em>-Pyrrolo[2,3-<em>d</em>]pyrimidine-5-carboxylic acid, 4-chloro-, ethyl ester;Ethyl 4-chloro-7<em>H</em>-pyrrolo[2,3-<em>d</em>]pyrimidine-5-carboxylate",
    "duplicated_cas_no": "",
    "SMILES": "C(OCC)(=O)C=1C=2C(NC1)=NC=NC2Cl",
    "meta_data": {
        "InChI": "InChI=1S/C9H8ClN3O2/c1-2-15-9(14)5-3-11-8-6(5)7(10)12-4-13-8/h3-4H,2H2,1H3,(H,11,12,13)",
        "InChIKey": null,
        "Canonical SMILES": "O=C(OCC)C1=CNC=2N=CN=C(Cl)C21",
        "Molecular Formula": "C<sub>9</sub>H<sub>8</sub>ClN<sub>3</sub>O<sub>2</sub>",
        "Molecular Mass": "225.63",
        "Melting Point": "140-141 °C"
    }
}