{
    "cas_no": "25913-05-7",
    "key_name": "4-Fluoro-4′-hydroxybenzophenone",
    "cn_name": "4-氟-4\"-羟基二苯甲酮;",
    "alternate_name": "Methanone, (4-fluorophenyl)(4-hydroxyphenyl)-;(4-Fluorophenyl)(4-hydroxyphenyl)methanone;<em>p</em>-(4-Fluorobenzoyl)phenol;4-Fluoro-4′-hydroxybenzophenone;4-(<em>p</em>-Fluorobenzoyl)phenol;1-(4-Fluorophenyl)-1-(4-hydroxyphenyl)methanone",
    "duplicated_cas_no": "",
    "SMILES": "C(=O)(C1=CC=C(F)C=C1)C2=CC=C(O)C=C2",
    "meta_data": {
        "InChI": "InChI=1S/C13H9FO2/c14-11-5-1-9(2-6-11)13(16)10-3-7-12(15)8-4-10/h1-8,15H",
        "InChIKey": null,
        "Canonical SMILES": "O=C(C1=CC=C(F)C=C1)C2=CC=C(O)C=C2",
        "Molecular Formula": "C<sub>13</sub>H<sub>9</sub>FO<sub>2</sub>",
        "Molecular Mass": "216.21",
        "Melting Point": "168-171 °C"
    }
}