{
    "cas_no": "1317-36-8",
    "key_name": "Lead oxide (PbO)",
    "cn_name": null,
    "alternate_name": "Lead oxide (PbO);C.I. 77577;C.I. Pigment Yellow 46;Lead monooxide;Lead monoxide;Lead(II) oxide;Lead oxide yellow;Lead protoxide;Litharge Yellow L 28;Plumbous oxide;Yellow lead ocher;Lead oxide;Lead(2+) oxide;Litharge S;Litharge;Pigment Yellow 46;G 2;Rhenogran PbO 80",
    "duplicated_cas_no": "1309-59-7;12359-23-8;2985639-03-8",
    "SMILES": "O=[Pb]",
    "meta_data": {
        "InChI": "InChI=1S/O.Pb",
        "InChIKey": null,
        "Canonical SMILES": "O=[Pb]",
        "Molecular Formula": "OPb",
        "Molecular Mass": "",
        "Boiling Point": "1470 °C",
        "Melting Point": "888 °C",
        "Density": "9.53 g/cm³"
    }
}