{
    "cas_no": "289-95-2",
    "key_name": "Pyrimidine",
    "cn_name": "嘧啶;",
    "alternate_name": "Pyrimidine;1,3-Diazabenzene;<em>m</em>-Diazine;1,3-Diazine;Metadiazine;Miazine;NSC 89305",
    "duplicated_cas_no": "",
    "SMILES": "C=1C=NC=NC1",
    "meta_data": {
        "InChI": "InChI=1S/C4H4N2/c1-2-5-4-6-3-1/h1-4H",
        "InChIKey": null,
        "Canonical SMILES": "N=1C=NC=CC1",
        "Molecular Formula": "C<sub>4</sub>H<sub>4</sub>N<sub>2</sub>",
        "Molecular Mass": "80.09",
        "Boiling Point": "123.8 °C",
        "Melting Point": "22 °C"
    }
}