{
    "cas_no": "20323-74-4",
    "key_name": "Benzoic acid, 2-amino-4,5-dimethoxy-, ethyl ester",
    "cn_name": "2-氨基-4,5-二甲氧基苯甲酸乙酯;",
    "alternate_name": "Benzoic acid, 2-amino-4,5-dimethoxy-, ethyl ester;Veratric acid, 6-amino-, ethyl ester;Ethyl 2-amino-4,5-dimethoxybenzoate;Ethyl 6-aminoveratrate",
    "duplicated_cas_no": "",
    "SMILES": "C(OCC)(=O)C1=CC(OC)=C(OC)C=C1N",
    "meta_data": {
        "InChI": "InChI=1S/C11H15NO4/c1-4-16-11(13)7-5-9(14-2)10(15-3)6-8(7)12/h5-6H,4,12H2,1-3H3",
        "InChIKey": null,
        "Canonical SMILES": "O=C(OCC)C1=CC(OC)=C(OC)C=C1N",
        "Molecular Formula": "C<sub>11</sub>H<sub>15</sub>NO<sub>4</sub>",
        "Molecular Mass": "225.24",
        "Melting Point": "88 °C"
    }
}