{
    "cas_no": "4040-74-8",
    "key_name": "1,1-Dimethylsilacyclohexane",
    "cn_name": "1,1-二甲基硅杂环己烷;1,1-二甲基硅杂环己烷;",
    "alternate_name": "Silacyclohexane, 1,1-dimethyl-;1,1-Dimethylsilacyclohexane;1,1-Dimethyl-1-silacyclohexane;NSC 96808;Cyclopentamethylenedimethylsilane;1,1-Dimethylsilinane",
    "duplicated_cas_no": "",
    "SMILES": "C[Si]1(C)CCCCC1",
    "meta_data": {
        "InChI": "InChI=1S/C7H16Si/c1-8(2)6-4-3-5-7-8/h3-7H2,1-2H3",
        "InChIKey": null,
        "Canonical SMILES": "C[Si]1(C)CCCCC1",
        "Molecular Formula": "C<sub>7</sub>H<sub>16</sub>Si",
        "Molecular Mass": "128.29",
        "Boiling Point": "132-133 °C",
        "Density": "0.804 g/cm³"
    }
}