{
    "cas_no": "54240-36-7",
    "key_name": "Benzenemethanol, 4-amino-3-chloro-α-[[(1,1-dimethylethyl)amino]methyl]-5-(trifluoromethyl)-, hydrochloride (1:1)",
    "cn_name": null,
    "alternate_name": "Benzenemethanol, 4-amino-3-chloro-α-[[(1,1-dimethylethyl)amino]methyl]-5-(trifluoromethyl)-, hydrochloride (1:1);Benzenemethanol, 4-amino-3-chloro-α-[[(1,1-dimethylethyl)amino]methyl]-5-(trifluoromethyl)-, monohydrochloride;KF 868 (pharmaceutical);KF 868;<em>dl</em>-Mabuterol hydrochloride;Broncholin",
    "duplicated_cas_no": "95656-48-7",
    "SMILES": "C(F)(F)(F)C1=CC(C(CNC(C)(C)C)O)=CC(Cl)=C1N.Cl",
    "meta_data": {
        "InChI": "InChI=1S/C13H18ClF3N2O.ClH/c1-12(2,3)19-6-10(20)7-4-8(13(15,16)17)11(18)9(14)5-7;/h4-5,10,19-20H,6,18H2,1-3H3;1H",
        "InChIKey": null,
        "Canonical SMILES": "Cl.FC(F)(F)C1=CC(=CC(Cl)=C1N)C(O)CNC(C)(C)C",
        "Molecular Formula": "C<sub>13</sub>H<sub>18</sub>ClF<sub>3</sub>N<sub>2</sub>O.ClH",
        "Molecular Mass": "",
        "Melting Point": "205-206 °C"
    }
}