{
    "cas_no": "36770-74-8",
    "key_name": "<em>N</em>-(3-Chloropropyl)-3,4-dimethoxy-<em>N</em>-methylbenzeneethanamine",
    "cn_name": "N-甲基l-N-(3-氯丙基)-3,4-二甲氧基苯乙胺;",
    "alternate_name": "Benzeneethanamine, <em>N</em>-(3-chloropropyl)-3,4-dimethoxy-<em>N</em>-methyl-;<em>N</em>-(3-Chloropropyl)-3,4-dimethoxy-<em>N</em>-methylbenzeneethanamine;SR 45813;<em>N</em>-Methyl-<em>N</em>-(3-chloropropyl)homoveratrylamine;(3-Chloropropyl)[2-(3,4-dimethoxyphenyl)ethyl]methylamine",
    "duplicated_cas_no": "",
    "SMILES": "O(C)C1=C(OC)C=CC(CCN(CCCCl)C)=C1",
    "meta_data": {
        "InChI": "InChI=1S/C14H22ClNO2/c1-16(9-4-8-15)10-7-12-5-6-13(17-2)14(11-12)18-3/h5-6,11H,4,7-10H2,1-3H3",
        "InChIKey": null,
        "Canonical SMILES": "ClCCCN(C)CCC1=CC=C(OC)C(OC)=C1",
        "Molecular Formula": "C<sub>14</sub>H<sub>22</sub>ClNO<sub>2</sub>",
        "Molecular Mass": "271.78",
        "Boiling Point": "69-70 °C @ Press: 5 x 10<sup>-3</sup> Torr"
    }
}