{
    "cas_no": "4251-21-2",
    "key_name": "1,4-Benzenedipropanoic acid",
    "cn_name": "对亚苯基二丙酸;",
    "alternate_name": "1,4-Benzenedipropanoic acid;<em>p</em>-Benzenedipropionic acid;<em>p</em>-Phenylenedipropionic acid;1,4-Benzenedipropionic acid;1,4-Phenylenedipropionic acid",
    "duplicated_cas_no": "",
    "SMILES": "C(CC(O)=O)C1=CC=C(CCC(O)=O)C=C1",
    "meta_data": {
        "InChI": "InChI=1S/C12H14O4/c13-11(14)7-5-9-1-2-10(4-3-9)6-8-12(15)16/h1-4H,5-8H2,(H,13,14)(H,15,16)",
        "InChIKey": null,
        "Canonical SMILES": "O=C(O)CCC1=CC=C(C=C1)CCC(=O)O",
        "Molecular Formula": "C<sub>12</sub>H<sub>14</sub>O<sub>4</sub>",
        "Molecular Mass": "222.24",
        "Melting Point": "228-230 °C"
    }
}