{
    "cas_no": "1634-82-8",
    "key_name": "2-(4′-Hydroxyphenylazo)benzoic acid",
    "cn_name": null,
    "alternate_name": "Benzoic acid, 2-[2-(4-hydroxyphenyl)diazenyl]-;Benzoic acid, <em>o</em>-[(<em>p</em>-hydroxyphenyl)azo]-;Benzoic acid, 2-[(4-hydroxyphenyl)azo]-;2-[2-(4-Hydroxyphenyl)diazenyl]benzoic acid;2-(4′-Hydroxyphenylazo)benzoic acid;<em>o</em>-(<em>p</em>-Hydroxyphenylazo)benzoic acid;2-[(4-Hydroxyphenyl)azo]benzoic acid;2-(4-Hydroxybenzeneazo)benzoic acid;HABA;HABA (dye);4′-Hydroxyazobenzene-2-carboxylic acid;2-(4′-Hydroxybenzeneazo)benzoic acid;4-(2′-Carboxyphenylazo)phenol;NSC 77376;4-Hydroxyazobenzene-2′-carboxylic acid",
    "duplicated_cas_no": "",
    "SMILES": "N(=NC1=CC=C(O)C=C1)C2=C(C(O)=O)C=CC=C2",
    "meta_data": {
        "InChI": "InChI=1S/C13H10N2O3/c16-10-7-5-9(6-8-10)14-15-12-4-2-1-3-11(12)13(17)18/h1-8,16H,(H,17,18)",
        "InChIKey": null,
        "Canonical SMILES": "O=C(O)C=1C=CC=CC1N=NC2=CC=C(O)C=C2",
        "Molecular Formula": "C<sub>13</sub>H<sub>10</sub>N<sub>2</sub>O<sub>3</sub>",
        "Molecular Mass": "242.23",
        "Melting Point": "206-207 °C"
    }
}