{
    "cas_no": "503-20-8",
    "key_name": "Acetonitrile, fluoro-",
    "cn_name": "氟乙腈;",
    "alternate_name": "Acetonitrile, fluoro-;Fluoroacetonitrile;Fluoromethyl cyanide;Monofluoroacetonitrile;2-Fluoroacetonitrile",
    "duplicated_cas_no": "1800084-91-6",
    "SMILES": "C(C#N)F",
    "meta_data": {
        "InChI": "InChI=1S/C2H2FN/c3-1-2-4/h1H2",
        "InChIKey": null,
        "Canonical SMILES": "N#CCF",
        "Molecular Formula": "C<sub>2</sub>H<sub>2</sub>FN",
        "Molecular Mass": "59.04",
        "Boiling Point": "81.8-82 °C",
        "Density": "1.0730 g/cm³ @ Temp: 16 °C"
    }
}