{
    "cas_no": "20776-51-6",
    "key_name": "2-Amino-3-bromobenzoic acid",
    "cn_name": "2-氨基-3-溴苯甲酸;",
    "alternate_name": "Benzoic acid, 2-amino-3-bromo-;Anthranilic acid, 3-bromo-;2-Amino-3-bromobenzoic acid;3-Bromoanthranilic acid;NSC 112517;3-Bromo-2-aminobenzoic acid",
    "duplicated_cas_no": "",
    "SMILES": "C(O)(=O)C1=C(N)C(Br)=CC=C1",
    "meta_data": {
        "InChI": "InChI=1S/C7H6BrNO2/c8-5-3-1-2-4(6(5)9)7(10)11/h1-3H,9H2,(H,10,11)",
        "InChIKey": null,
        "Canonical SMILES": "O=C(O)C=1C=CC=C(Br)C1N",
        "Molecular Formula": "C<sub>7</sub>H<sub>6</sub>BrNO<sub>2</sub>",
        "Molecular Mass": "216.03",
        "Melting Point": "171-174 °C"
    }
}