{
    "cas_no": "34911-55-2",
    "key_name": "(±)-Bupropion",
    "cn_name": "安非他酮;1-(3-氯苯基)-2-[(1,1-甲基乙基)氨基]-1-丙酮;",
    "alternate_name": "1-Propanone, 1-(3-chlorophenyl)-2-[(1,1-dimethylethyl)amino]-;1-Propanone, 1-(3-chlorophenyl)-2-[(1,1-dimethylethyl)amino]-, (±)-;1-(3-Chlorophenyl)-2-[(1,1-dimethylethyl)amino]-1-propanone;Bupropion;Amfebutamone;α-(<em>tert</em>-Butylamino)-<em>m</em>-chloropropiophenone;(±)-Bupropion;Amfebutamon;Bupropion SR;Elontril;Aplenzin;Bupropion XL;Bupropion XR;Bupron;2-(<em>tert</em>-Butylamino)-1-(3-chlorophenyl)propan-1-one;Forfivo XL;Buproban;MeSH ID: D016642",
    "duplicated_cas_no": "34841-39-9",
    "SMILES": "C(C(NC(C)(C)C)C)(=O)C1=CC(Cl)=CC=C1",
    "meta_data": {
        "InChI": "InChI=1S/C13H18ClNO/c1-9(15-13(2,3)4)12(16)10-6-5-7-11(14)8-10/h5-9,15H,1-4H3",
        "InChIKey": null,
        "Canonical SMILES": "O=C(C=1C=CC=C(Cl)C1)C(NC(C)(C)C)C",
        "Molecular Formula": "C<sub>13</sub>H<sub>18</sub>ClNO",
        "Molecular Mass": "239.74",
        "Boiling Point": "52 °C",
        "Melting Point": "25 °C"
    }
}