{
    "cas_no": "387-48-4",
    "key_name": "3-Fluoro-2-iodobenzoic acid",
    "cn_name": "3-氟-2-碘苯甲酸;",
    "alternate_name": "Benzoic acid, 3-fluoro-2-iodo-;3-Fluoro-2-iodobenzoic acid",
    "duplicated_cas_no": "",
    "SMILES": "C(O)(=O)C1=C(I)C(F)=CC=C1",
    "meta_data": {
        "InChI": "InChI=1S/C7H4FIO2/c8-5-3-1-2-4(6(5)9)7(10)11/h1-3H,(H,10,11)",
        "InChIKey": null,
        "Canonical SMILES": "O=C(O)C=1C=CC=C(F)C1I",
        "Molecular Formula": "C<sub>7</sub>H<sub>4</sub>FIO<sub>2</sub>",
        "Molecular Mass": "266.01",
        "Melting Point": "152-153 °C"
    }
}