{
    "cas_no": "5103-74-2",
    "key_name": "<em>trans</em>-Chlordane",
    "cn_name": null,
    "alternate_name": "4,7-Methano-1<em>H</em>-indene, 1,2,4,5,6,7,8,8-octachloro-2,3,3a,4,7,7a-hexahydro-, (1<em>R</em>,2<em>R</em>,3a<em>S</em>,4<em>S</em>,7<em>R</em>,7a<em>S</em>)-<em>rel</em>-;4,7-Methanoindan, 1β,2α,4α,5,6,7α,8,8-octachloro-3aβ,4,7,7aβ-tetrahydro-;4,7-Methano-1<em>H</em>-indene, 1,2,4,5,6,7,8,8-octachloro-2,3,3a,4,7,7a-hexahydro-, (1α,2β,3aα,4β,7β,7aα)-;<em>rel</em>-(1<em>R</em>,2<em>R</em>,3a<em>S</em>,4<em>S</em>,7<em>R</em>,7a<em>S</em>)-1,2,4,5,6,7,8,8-Octachloro-2,3,3a,4,7,7a-hexahydro-4,7-methano-1<em>H</em>-indene;Chlordan, <em>trans</em>-;<em>trans</em>-Chlordane;<em>trans</em>-Chlordan;β-Chlordan;<em>trans</em>-1,2,4,5,6,7,8,8-Octachloro-3a,4,7,7a-tetrahydro-4,7-<em>endo</em>-methanoindan;β-Chlordane;(±)-<em>trans</em>-Chlordane;γ-Chlordan;γ-Chlordane;<em>trans</em>-γ-Chlordane",
    "duplicated_cas_no": "17436-70-3;28181-89-7;152322-27-5",
    "SMILES": "Cl[C@]12[C@@]3([C@]([C@](Cl)(C1(Cl)Cl)C(Cl)=C2Cl)([C@@H](Cl)[C@H](Cl)C3)[H])[H]",
    "meta_data": {
        "InChI": "InChI=1/C10H6Cl8/c11-3-1-2-4(5(3)12)9(16)7(14)6(13)8(2,15)10(9,17)18/h2-5H,1H2/t2-,3+,4-,5-,8-,9+/s2",
        "InChIKey": null,
        "Canonical SMILES": "ClC1=C(Cl)C2(Cl)C3C(Cl)C(Cl)CC3C1(Cl)C2(Cl)Cl",
        "Molecular Formula": "C<sub>10</sub>H<sub>6</sub>Cl<sub>8</sub>",
        "Molecular Mass": "409.78",
        "Melting Point": "133 °C",
        "Density": "1.59 x 10⁻³-1.63 x 10⁻³ g/cm³ @ Temp: 20 °C"
    }
}