{
    "cas_no": "99-63-8",
    "key_name": "Isophthaloyl chloride",
    "cn_name": "间苯二甲酰氯;",
    "alternate_name": "1,3-Benzenedicarbonyl dichloride;Isophthaloyl chloride;1,3-Benzenedicarbonyl chloride;Isophthalic acid chloride;Isophthalic acid dichloride;Isophthaloyl dichloride;Isophthalyl chloride;Isophthalyl dichloride;<em>m</em>-Phthalic dichloride;<em>m</em>-Phthaloyl chloride;Isophthalic chloride;<em>m</em>-Benzenedicarbonyl chloride;Isothaloyl chloride;<em>m</em>-Phthaloyl dichloride;1,3-Bis(chlorocarbonyl)benzene;1,3-Di(chlorocarbonyl)benzene;NSC 41884;Isoterephthaloyl dichloride",
    "duplicated_cas_no": "188665-61-4;1640987-71-8",
    "SMILES": "C(Cl)(=O)C1=CC(C(Cl)=O)=CC=C1",
    "meta_data": {
        "InChI": "InChI=1S/C8H4Cl2O2/c9-7(11)5-2-1-3-6(4-5)8(10)12/h1-4H",
        "InChIKey": null,
        "Canonical SMILES": "O=C(Cl)C1=CC=CC(=C1)C(=O)Cl",
        "Molecular Formula": "C<sub>8</sub>H<sub>4</sub>Cl<sub>2</sub>O<sub>2</sub>",
        "Molecular Mass": "203.02",
        "Boiling Point": "276 °C",
        "Melting Point": "43-44 °C",
        "Density": "1.3880 g/cm³ @ Temp: 17 °C"
    }
}