{
    "cas_no": "31378-03-7",
    "key_name": "2-[(4-Methylphenyl)sulfonyl]-1-phenylethanone",
    "cn_name": "2-(对甲苯磺酰)乙酰苯;",
    "alternate_name": "Ethanone, 2-[(4-methylphenyl)sulfonyl]-1-phenyl-;Acetophenone, 2-(<em>p</em>-tolylsulfonyl)-;2-[(4-Methylphenyl)sulfonyl]-1-phenylethanone;(<em>p</em>-Tolylsulfonyl)benzoylmethane;Phenacyl <em>p</em>-tolyl sulfone;4-Methylphenyl phenacyl sulfone;2-(<em>p</em>-Toluenesulfonyl)acetophenone;<em>p</em>-Tolyl phenacyl sulfone;α-(<em>p</em>-Toluenesulfonyl)acetophenone;NSC 140338;1-Phenyl-2-tosylethanone;α-Tosylacetophenone;1-Phenyl-2-tosylethan-1-one;1-Phenyl-2-(toluene-4-sulfonyl)-ethanone;1-Phenyl-2-(4-methylphenylsulfonyl)ethan-1-one;2-(4-Methylbenzenesulfonyl)-1-phenylethan-1-one",
    "duplicated_cas_no": "",
    "SMILES": "S(CC(=O)C1=CC=CC=C1)(=O)(=O)C2=CC=C(C)C=C2",
    "meta_data": {
        "InChI": "InChI=1S/C15H14O3S/c1-12-7-9-14(10-8-12)19(17,18)11-15(16)13-5-3-2-4-6-13/h2-10H,11H2,1H3",
        "InChIKey": null,
        "Canonical SMILES": "O=C(C=1C=CC=CC1)CS(=O)(=O)C2=CC=C(C=C2)C",
        "Molecular Formula": "C<sub>15</sub>H<sub>14</sub>O<sub>3</sub>S",
        "Molecular Mass": "274.33",
        "Melting Point": "110 °C"
    }
}