{
    "cas_no": "3038-47-9",
    "key_name": "2-(Trifluoromethyl)benzeneacetonitrile",
    "cn_name": "2-(三氟甲基)苯基乙腈;",
    "alternate_name": "Benzeneacetonitrile, 2-(trifluoromethyl)-;Acetonitrile, (α,α,α-trifluoro-<em>o</em>-tolyl)-;2-(Trifluoromethyl)benzeneacetonitrile;(α,α,α-Trifluoro-<em>o</em>-tolyl)acetonitrile;2-(Trifluoromethyl)phenylacetonitrile;2-(2-Trifluoromethylphenyl)ethanenitrile;1-[2-(Trifluoromethyl)phenyl]acetonitrile;2-[2-(Trifluoromethyl)phenyl]acetonitrile",
    "duplicated_cas_no": "",
    "SMILES": "C(F)(F)(F)C1=C(CC#N)C=CC=C1",
    "meta_data": {
        "InChI": "InChI=1S/C9H6F3N/c10-9(11,12)8-4-2-1-3-7(8)5-6-13/h1-4H,5H2",
        "InChIKey": null,
        "Canonical SMILES": "N#CCC=1C=CC=CC1C(F)(F)F",
        "Molecular Formula": "C<sub>9</sub>H<sub>6</sub>F<sub>3</sub>N",
        "Molecular Mass": "185.15",
        "Melting Point": "33 °C"
    }
}