{
    "cas_no": "478296-72-9",
    "key_name": "Gabapentin enacarbil",
    "cn_name": "Gabapentinenacarbil;1-[[[[1-(2-甲基-1-氧代丙氧基)乙氧基]甲酰]氨基]甲基]环己烷乙酸;",
    "alternate_name": "Cyclohexaneacetic acid, 1-[[[[1-(2-methyl-1-oxopropoxy)ethoxy]carbonyl]amino]methyl]-;1-[[[[1-(2-Methyl-1-oxopropoxy)ethoxy]carbonyl]amino]methyl]cyclohexaneacetic acid;XP 13512;Gabapentin enacarbil;Horizant;Regnite;1-[[(1-(Isobutanoyloxy)ethoxy)carbonyl]aminomethyl]cyclohex-1-ylacetic acid",
    "duplicated_cas_no": "791632-57-0",
    "SMILES": "C(NC(OC(OC(C(C)C)=O)C)=O)C1(CC(O)=O)CCCCC1",
    "meta_data": {
        "InChI": "InChI=1S/C16H27NO6/c1-11(2)14(20)22-12(3)23-15(21)17-10-16(9-13(18)19)7-5-4-6-8-16/h11-12H,4-10H2,1-3H3,(H,17,21)(H,18,19)",
        "InChIKey": null,
        "Canonical SMILES": "O=C(OC(OC(=O)C(C)C)C)NCC1(CC(=O)O)CCCCC1",
        "Molecular Formula": "C<sub>16</sub>H<sub>27</sub>NO<sub>6</sub>",
        "Molecular Mass": "329.39",
        "Melting Point": "65 °C"
    }
}