{
    "cas_no": "32807-28-6",
    "key_name": "Methyl 4-chloroacetoacetate",
    "cn_name": "4-氯乙酰乙酸甲酯;",
    "alternate_name": "Butanoic acid, 4-chloro-3-oxo-, methyl ester;Acetoacetic acid, 4-chloro-, methyl ester;γ-Chloroacetoacetic acid methyl ester;Methyl γ-chloroacetoacetate;Methyl 4-chloroacetoacetate;Methyl ω-chloroacetoacetate;Methyl 3-oxo-4-chlorobutanoate;Methyl 4-chloro-3-oxobutyrate;Methyl 4-chloro-3-oxobutanoate;4-Chloro-3-oxobutanoic acid methyl ester;4-Chloro-3-oxo-butyric acid methyl ester;4-Chloroacetoacetic acid methyl ester;Methyl (chloroacetyl)acetate",
    "duplicated_cas_no": "",
    "SMILES": "C(C(CCl)=O)C(OC)=O",
    "meta_data": {
        "InChI": "InChI=1S/C5H7ClO3/c1-9-5(8)2-4(7)3-6/h2-3H2,1H3",
        "InChIKey": null,
        "Canonical SMILES": "O=C(OC)CC(=O)CCl",
        "Molecular Formula": "C<sub>5</sub>H<sub>7</sub>ClO<sub>3</sub>",
        "Molecular Mass": "150.56",
        "Boiling Point": "96-97 °C @ Press: 11 Torr",
        "Density": "1.3048 g/cm³ @ Temp: 40 °C"
    }
}