{
    "cas_no": "56617-44-8",
    "key_name": "1-(2-Methylphenyl)-5-oxo-3-pyrrolidinecarboxylic acid",
    "cn_name": null,
    "alternate_name": "3-Pyrrolidinecarboxylic acid, 1-(2-methylphenyl)-5-oxo-;1-(2-Methylphenyl)-5-oxo-3-pyrrolidinecarboxylic acid;5-Oxo-1-(<em>o</em>-tolyl)pyrrolidine-3-carboxylic acid",
    "duplicated_cas_no": "",
    "SMILES": "O=C1N(CC(C(O)=O)C1)C2=C(C)C=CC=C2",
    "meta_data": {
        "InChI": "InChI=1S/C12H13NO3/c1-8-4-2-3-5-10(8)13-7-9(12(15)16)6-11(13)14/h2-5,9H,6-7H2,1H3,(H,15,16)",
        "InChIKey": null,
        "Canonical SMILES": "O=C(O)C1CC(=O)N(C=2C=CC=CC2C)C1",
        "Molecular Formula": "C<sub>12</sub>H<sub>13</sub>NO<sub>3</sub>",
        "Molecular Mass": "219.24",
        "Melting Point": "152-153 °C"
    }
}