{
    "cas_no": "53716-50-0",
    "key_name": "Oxfendazole",
    "cn_name": "奥吩达唑;",
    "alternate_name": "Carbamic acid, <em>N</em>-[6-(phenylsulfinyl)-1<em>H</em>-benzimidazol-2-yl]-, methyl ester;Carbamic acid, [5-(phenylsulfinyl)-1<em>H</em>-benzimidazol-2-yl]-, methyl ester;Oxfendazole;HOE 8105;Systamex;Methyl (5-benzenesulfinyl-2-benzimidazolyl)carbamate;Fenbendazole sulfoxide;(±)-Fenbendazole sulfoxide;Oxphendazole;Oxfenbendazole;Synanthic;Methyl [5-(phenylsulfinyl)-1<em>H</em>-benzimidazol-2-yl]carbamate;(5-Phenylsulfinyl-1<em>H</em>-benzimidazol-2-yl)carbamic acid methyl ester",
    "duplicated_cas_no": "122063-19-8",
    "SMILES": "S(=O)(C=1C=C2C(N=C(NC(OC)=O)N2)=CC1)C3=CC=CC=C3",
    "meta_data": {
        "InChI": "InChI=1S/C15H13N3O3S/c1-21-15(19)18-14-16-12-8-7-11(9-13(12)17-14)22(20)10-5-3-2-4-6-10/h2-9H,1H3,(H2,16,17,18,19)",
        "InChIKey": null,
        "Canonical SMILES": "O=C(OC)NC1=NC=2C=CC(=CC2N1)S(=O)C=3C=CC=CC3",
        "Molecular Formula": "C<sub>15</sub>H<sub>13</sub>N<sub>3</sub>O<sub>3</sub>S",
        "Molecular Mass": "315.35",
        "Melting Point": "253 °C (decomp)"
    }
}