{
    "cas_no": "24277-39-2",
    "key_name": "<em>N</em>-(<em>tert</em>-Butoxycarbonyl)-<span class=\"text-smallcaps\">L</span>-glutamic acid 1-<em>tert</em>-butyl ester",
    "cn_name": "Boc-L-谷氨酸-1-叔丁酯;N-叔丁氧羰基-L-谷氨酸-1-叔丁酯;",
    "alternate_name": "<span class=\"text-smallcaps\">L</span>-Glutamic acid, <em>N</em>-[(1,1-dimethylethoxy)carbonyl]-, 1-(1,1-dimethylethyl) ester;Glutamic acid, <em>N</em>-carboxy-, <em>N</em>,1-di-<em>tert</em>-butyl ester, <span class=\"text-smallcaps\">L</span>-;<em>N</em>-<em>tert</em>-Butoxycarbonylglutamic acid α-<em>tert</em>-butyl ester;NSC 164659;<em>N</em>-(<em>tert</em>-Butoxycarbonyl)-<span class=\"text-smallcaps\">L</span>-glutamic acid 1-<em>tert</em>-butyl ester;639: PN: WO2006034056 TABLE: 10 claimed protein;(4<em>S</em>)-5-<em>tert</em>-Butoxy-4-[(<em>tert</em>-butoxycarbonyl)amino]-5-oxopentanoic acid;BOC-<span class=\"text-smallcaps\">L</span>-glutamic acid tert-butyl ester;<em>N</em>-α-<em>tert</em>-Butoxycarbonyl-<span class=\"text-smallcaps\">L</span>-glutamic acid α-tert butyl ester;(<em>S</em>)-5-<em>tert</em>-Butoxy-4-(<em>tert</em>-butoxycarbonylamino)-5-oxopentanoic acid;<em>N</em>-Boc-glutamic acid tert-butyl ester;(<em>S</em>)-2-[(<em>tert</em>-Butoxycarbonyl)amino]pentanedioic acid 1-<em>tert</em>-butyl ester;Boc-<span class=\"text-smallcaps\">L</span>-glutamic acid 1-<em>tert</em>-butyl ester;(4S)-5-(<em>tert</em>-Butoxy)-4-[[(<em>tert</em>-butoxy)carbonyl]amino]-5-oxopentanoic acid;(4S)-5-[(2-Methylpropan-2-yl)oxy]-4-[(2-methylpropan-2-yl)oxycarbonylamino]-5-oxopentanoic acid",
    "duplicated_cas_no": "500297-64-3",
    "SMILES": "[C@@H](NC(OC(C)(C)C)=O)(C(OC(C)(C)C)=O)CCC(O)=O",
    "meta_data": {
        "InChI": "InChI=1S/C14H25NO6/c1-13(2,3)20-11(18)9(7-8-10(16)17)15-12(19)21-14(4,5)6/h9H,7-8H2,1-6H3,(H,15,19)(H,16,17)/t9-/m0/s1",
        "InChIKey": null,
        "Canonical SMILES": "O=C(OC(C)(C)C)NC(C(=O)OC(C)(C)C)CCC(=O)O",
        "Molecular Formula": "C<sub>14</sub>H<sub>25</sub>NO<sub>6</sub>",
        "Molecular Mass": "303.35",
        "Melting Point": "103.3-105.5 °C"
    }
}