{
    "cas_no": "80-63-7",
    "key_name": "Methyl 2-chloro-2-propenoate",
    "cn_name": "甲基氯代丙酸酯;",
    "alternate_name": "2-Propenoic acid, 2-chloro-, methyl ester;Acrylic acid, 2-chloro-, methyl ester;Methyl 2-chloro-2-propenoate;Methyl α-chloroacrylate;Methyl 2-chloroacrylate;Methyl 2-chloropropenoate;2-Chloroacrylic acid methyl ester;NSC 32608",
    "duplicated_cas_no": "",
    "SMILES": "C(C(=C)Cl)(OC)=O",
    "meta_data": {
        "InChI": "InChI=1S/C4H5ClO2/c1-3(5)4(6)7-2/h1H2,2H3",
        "InChIKey": null,
        "Canonical SMILES": "O=C(OC)C(Cl)=C",
        "Molecular Formula": "C<sub>4</sub>H<sub>5</sub>ClO<sub>2</sub>",
        "Molecular Mass": "120.53",
        "Boiling Point": "52 °C @ Press: 51 Torr",
        "Density": "1.189 g/cm³ @ Temp: 20 °C"
    }
}