{
    "cas_no": "74163-81-8",
    "key_name": "(-)-1,2,3,4-Tetrahydroisoquinoline-3-carboxylic acid",
    "cn_name": "(S)-(-)-1,2,3,4-四氢异喹啉-3-羧酸;(S)-1,2,3,4-四氢异喹啉-3-甲酸;",
    "alternate_name": "3-Isoquinolinecarboxylic acid, 1,2,3,4-tetrahydro-, (3<em>S</em>)-;3-Isoquinolinecarboxylic acid, 1,2,3,4-tetrahydro-, (<em>S</em>)-;(3<em>S</em>)-1,2,3,4-Tetrahydro-3-isoquinolinecarboxylic acid;<span class=\"text-smallcaps\">L</span>-3-Carboxy-1,2,3,4-tetrahydroisoquinoline;<span class=\"text-smallcaps\">L</span>-Porretine;<span class=\"text-smallcaps\">L</span>-1,2,3,4-Tetrahydroisoquinoline-3-carboxylic acid;(<em>S</em>)-1,2,3,4-Tetrahydroisoquinoline-3-carboxylic acid;(-)-1,2,3,4-Tetrahydroisoquinoline-3-carboxylic acid;(3S)-1,2,3,4-Tetrahydroisoquinolin-2-ium-3-carboxylate",
    "duplicated_cas_no": "",
    "SMILES": "C(O)(=O)[C@@H]1CC=2C(CN1)=CC=CC2",
    "meta_data": {
        "InChI": "InChI=1S/C10H11NO2/c12-10(13)9-5-7-3-1-2-4-8(7)6-11-9/h1-4,9,11H,5-6H2,(H,12,13)/t9-/m0/s1",
        "InChIKey": null,
        "Canonical SMILES": "O=C(O)C1NCC=2C=CC=CC2C1",
        "Molecular Formula": "C<sub>10</sub>H<sub>11</sub>NO<sub>2</sub>",
        "Molecular Mass": "177.20",
        "Melting Point": "&gt;300 °C"
    }
}