{
    "cas_no": "335-44-4",
    "key_name": "2,2,3-Trichloro-1,1,1,3,4,4,4-heptafluorobutane",
    "cn_name": "七氟-2,3,3-三氯丁烷;",
    "alternate_name": "Butane, 2,2,3-trichloro-1,1,1,3,4,4,4-heptafluoro-;Butane, 2,2,3-trichloroheptafluoro-;2,2,3-Trichloro-1,1,1,3,4,4,4-heptafluorobutane;2,2,3-Trichloroheptafluorobutane;NSC 163328;Heptafluoro-2,3,3-trichlorobutane",
    "duplicated_cas_no": "",
    "SMILES": "C(C(C(F)(F)F)(Cl)F)(C(F)(F)F)(Cl)Cl",
    "meta_data": {
        "InChI": "InChI=1S/C4Cl3F7/c5-1(6,3(9,10)11)2(7,8)4(12,13)14",
        "InChIKey": null,
        "Canonical SMILES": "FC(F)(F)C(F)(Cl)C(Cl)(Cl)C(F)(F)F",
        "Molecular Formula": "C<sub>4</sub>Cl<sub>3</sub>F<sub>7</sub>",
        "Molecular Mass": "287.39",
        "Boiling Point": "98 °C",
        "Melting Point": "4 °C",
        "Density": "1.7484 g/cm³ @ Temp: 20 °C"
    }
}