{
    "cas_no": "51173-06-9",
    "key_name": "5-Fluoro-1-methyl-2(1<em>H</em>)-pyridinone",
    "cn_name": null,
    "alternate_name": "2(1<em>H</em>)-Pyridinone, 5-fluoro-1-methyl-;5-Fluoro-1-methyl-2(1<em>H</em>)-pyridinone;5-Fluoro-1-methyl-2-pyridone",
    "duplicated_cas_no": "",
    "SMILES": "CN1C(=O)C=CC(F)=C1",
    "meta_data": {
        "InChI": "InChI=1S/C6H6FNO/c1-8-4-5(7)2-3-6(8)9/h2-4H,1H3",
        "InChIKey": null,
        "Canonical SMILES": "O=C1C=CC(F)=CN1C",
        "Molecular Formula": "C<sub>6</sub>H<sub>6</sub>FNO",
        "Molecular Mass": "127.12",
        "Boiling Point": "112-116 °C @ Press: 6 Torr"
    }
}