{
    "cas_no": "1638-41-1",
    "key_name": "3,4,6-Trichloro-2-[(2,3,5-trichloro-6-hydroxyphenyl)sulfonyl]phenol",
    "cn_name": null,
    "alternate_name": "Phenol, 3,4,6-trichloro-2-[(2,3,5-trichloro-6-hydroxyphenyl)sulfonyl]-;Phenol, 2,2′-sulfonylbis[3,4,6-trichloro-;3,4,6-Trichloro-2-[(2,3,5-trichloro-6-hydroxyphenyl)sulfonyl]phenol;2,2′-Dihydroxy-3,3′,5,5′,6,6′-hexachlorodiphenyl sulfone",
    "duplicated_cas_no": "",
    "SMILES": "S(=O)(=O)(C1=C(Cl)C(Cl)=CC(Cl)=C1O)C2=C(Cl)C(Cl)=CC(Cl)=C2O",
    "meta_data": {
        "InChI": "InChI=1S/C12H4Cl6O4S/c13-3-1-5(15)9(19)11(7(3)17)23(21,22)12-8(18)4(14)2-6(16)10(12)20/h1-2,19-20H",
        "InChIKey": null,
        "Canonical SMILES": "O=S(=O)(C=1C(Cl)=C(Cl)C=C(Cl)C1O)C=2C(Cl)=C(Cl)C=C(Cl)C2O",
        "Molecular Formula": "C<sub>12</sub>H<sub>4</sub>Cl<sub>6</sub>O<sub>4</sub>S",
        "Molecular Mass": "456.94",
        "Melting Point": "244-245 °C"
    }
}