{
    "cas_no": "139891-98-8",
    "key_name": "3′,6-Disinapoylsucrose",
    "cn_name": null,
    "alternate_name": "α-<span class=\"text-smallcaps\">D</smallcap>-Glucopyranoside, 3-<em>O</em>-[(2<em>E</em>)-3-(4-hydroxy-3,5-dimethoxyphenyl)-1-oxo-2-propen-1-yl]-β-<smallcap>D</span>-fructofuranosyl, 6-[(2<em>E</em>)-3-(4-hydroxy-3,5-dimethoxyphenyl)-2-propenoate];α-<span class=\"text-smallcaps\">D</smallcap>-Glucopyranoside, 3-<em>O</em>-[3-(4-hydroxy-3,5-dimethoxyphenyl)-1-oxo-2-propenyl]-β-<smallcap>D</span>-fructofuranosyl, 6-[3-(4-hydroxy-3,5-dimethoxyphenyl)-2-propenoate], [1(<em>E</em>),6(<em>E</em>)]-;α-<span class=\"text-smallcaps\">D</smallcap>-Glucopyranoside, 3-<em>O</em>-[(2<em>E</em>)-3-(4-hydroxy-3,5-dimethoxyphenyl)-1-oxo-2-propenyl]-β-<smallcap>D</span>-fructofuranosyl, 6-[(2<em>E</em>)-3-(4-hydroxy-3,5-dimethoxyphenyl)-2-propenoate];β-<span class=\"text-smallcaps\">D</smallcap>-(3-<em>O</em>-Sinapoyl)-fructofuranosyl-(2→1)-α-<smallcap>D</span>-[6-<em>O</em>-sinapoyl]-glucopyranoside;3′,6-Disinapoylsucrose;3,6′-Disinapoylsucrose ester;(3-<em>O</em>-Sinapoyl)-β-<span class=\"text-smallcaps\">D</smallcap>-fructofuranosyl-(2→1)-(6-<em>O</em>-sinapoyl)-α-<smallcap>D</span>-glucopyranoside",
    "duplicated_cas_no": "383876-21-9;1040088-11-6;1453166-38-5;1649433-23-7",
    "SMILES": "O([C@@]1(CO)[C@@H](OC(/C=C/C2=CC(OC)=C(O)C(OC)=C2)=O)[C@H](O)[C@@H](CO)O1)[C@H]3O[C@H](COC(/C=C/C4=CC(OC)=C(O)C(OC)=C4)=O)[C@@H](O)[C@H](O)[C@H]3O",
    "meta_data": {
        "InChI": "InChI=1S/C34H42O19/c1-45-18-9-16(10-19(46-2)26(18)39)5-7-24(37)49-14-23-28(41)30(43)31(44)33(50-23)53-34(15-36)32(29(42)22(13-35)52-34)51-25(38)8-6-17-11-20(47-3)27(40)21(12-17)48-4/h5-12,22-23,28-33,35-36,39-44H,13-15H2,1-4H3/b7-5+,8-6+/t22-,23-,28-,29-,30+,31-,32+,33-,34+/m1/s1",
        "InChIKey": null,
        "Canonical SMILES": "O=C(OCC1OC(OC2(OC(CO)C(O)C2OC(=O)C=CC3=CC(OC)=C(O)C(OC)=C3)CO)C(O)C(O)C1O)C=CC4=CC(OC)=C(O)C(OC)=C4",
        "Molecular Formula": "C<sub>34</sub>H<sub>42</sub>O<sub>19</sub>",
        "Molecular Mass": "754.69",
        "Melting Point": "129-130 °C"
    }
}