{
    "cas_no": "53055-05-3",
    "key_name": "3-Methoxy-2-nitrobenzaldehyde",
    "cn_name": "3-甲氧基-2-硝基苯甲醛;",
    "alternate_name": "Benzaldehyde, 3-methoxy-2-nitro-;<em>m</em>-Anisaldehyde, 2-nitro-;3-Methoxy-2-nitrobenzaldehyde;2-Nitro-3-methoxybenzaldehyde;NSC 172558",
    "duplicated_cas_no": "",
    "SMILES": "N(=O)(=O)C1=C(C=O)C=CC=C1OC",
    "meta_data": {
        "InChI": "InChI=1S/C8H7NO4/c1-13-7-4-2-3-6(5-10)8(7)9(11)12/h2-5H,1H3",
        "InChIKey": null,
        "Canonical SMILES": "O=CC=1C=CC=C(OC)C1N(=O)=O",
        "Molecular Formula": "C<sub>8</sub>H<sub>7</sub>NO<sub>4</sub>",
        "Molecular Mass": "181.15",
        "Melting Point": "102 °C"
    }
}