{
    "cas_no": "6304-39-8",
    "key_name": "Octanoic hydrazide",
    "cn_name": "辛酰肼;",
    "alternate_name": "Octanoic acid, hydrazide;Caprylic hydrazide;Octanoylhydrazine;Octanoic hydrazide;Caprylic acid hydrazide;Capryloylhydrazide;NSC 227236;NSC 42947;Octanoyl hydrazide",
    "duplicated_cas_no": "",
    "SMILES": "C(CC(NN)=O)CCCCC",
    "meta_data": {
        "InChI": "InChI=1S/C8H18N2O/c1-2-3-4-5-6-7-8(11)10-9/h2-7,9H2,1H3,(H,10,11)",
        "InChIKey": null,
        "Canonical SMILES": "O=C(NN)CCCCCCC",
        "Molecular Formula": "C<sub>8</sub>H<sub>18</sub>N<sub>2</sub>O",
        "Molecular Mass": "158.24",
        "Melting Point": "87-89 °C"
    }
}