{
    "cas_no": "24860-40-0",
    "key_name": "6-(1-Methylethoxy)-1,3,5-triazine-2,4-diamine",
    "cn_name": "2,4-二氨基-6-丙氧基异丙醇-1,3,5-三嗪;",
    "alternate_name": "1,3,5-Triazine-2,4-diamine, 6-(1-methylethoxy)-;<em>s</em>-Triazine, 2,4-diamino-6-isopropoxy-;6-(1-Methylethoxy)-1,3,5-triazine-2,4-diamine;2-Isopropoxy-4,6-diamino-<em>s</em>-triazine;2,4-Diamino-6-isopropoxy-<em>s</em>-triazine;2,4-Diamino-6-isopropoxy-1,3,5-triazine",
    "duplicated_cas_no": "",
    "SMILES": "O(C(C)C)C=1N=C(N)N=C(N)N1",
    "meta_data": {
        "InChI": "InChI=1S/C6H11N5O/c1-3(2)12-6-10-4(7)9-5(8)11-6/h3H,1-2H3,(H4,7,8,9,10,11)",
        "InChIKey": null,
        "Canonical SMILES": "N=1C(=NC(=NC1N)N)OC(C)C",
        "Molecular Formula": "C<sub>6</sub>H<sub>11</sub>N<sub>5</sub>O",
        "Molecular Mass": "169.18",
        "Melting Point": "172 °C"
    }
}