{
    "cas_no": "584-48-5",
    "key_name": "1-Bromo-2,4-dinitrobenzene",
    "cn_name": "1-溴-2,4-二硝基苯;",
    "alternate_name": "Benzene, 1-bromo-2,4-dinitro-;1-Bromo-2,4-dinitrobenzene;2,4-Dinitrobromobenzene;4-Bromo-1,3-dinitrobenzene;<em>o</em>,<em>p</em>-Dinitrophenyl bromide;2,4-Dinitrophenyl bromide;6-Bromo-1,3-dinitrobenzene;NSC 3808;2-Bromo-1,5-dinitrobenzene;2,4-Nitrophenyl bromide",
    "duplicated_cas_no": "",
    "SMILES": "N(=O)(=O)C1=CC(N(=O)=O)=CC=C1Br",
    "meta_data": {
        "InChI": "InChI=1S/C6H3BrN2O4/c7-5-2-1-4(8(10)11)3-6(5)9(12)13/h1-3H",
        "InChIKey": null,
        "Canonical SMILES": "O=N(=O)C1=CC=C(Br)C(=C1)N(=O)=O",
        "Molecular Formula": "C<sub>6</sub>H<sub>3</sub>BrN<sub>2</sub>O<sub>4</sub>",
        "Molecular Mass": "247.00",
        "Melting Point": "51 °C"
    }
}