{
    "cas_no": "18014-00-1",
    "key_name": "1,4-Dimethyl 2,5-dibromo-1,4-benzenedicarboxylate",
    "cn_name": "2,5-二溴对苯二甲酸二甲酯;2,5-二溴对苯二甲酸二甲酯;",
    "alternate_name": "1,4-Benzenedicarboxylic acid, 2,5-dibromo-, 1,4-dimethyl ester;Terephthalic acid, 2,5-dibromo-, dimethyl ester;1,4-Benzenedicarboxylic acid, 2,5-dibromo-, dimethyl ester;1,4-Dimethyl 2,5-dibromo-1,4-benzenedicarboxylate;Dimethyl 2,5-dibromoterephthalate;Dimethyl 2,5-dibromobenzene-1,4-dicarboxylate",
    "duplicated_cas_no": "",
    "SMILES": "C(OC)(=O)C1=C(Br)C=C(C(OC)=O)C(Br)=C1",
    "meta_data": {
        "InChI": "InChI=1S/C10H8Br2O4/c1-15-9(13)5-3-8(12)6(4-7(5)11)10(14)16-2/h3-4H,1-2H3",
        "InChIKey": null,
        "Canonical SMILES": "O=C(OC)C1=CC(Br)=C(C=C1Br)C(=O)OC",
        "Molecular Formula": "C<sub>10</sub>H<sub>8</sub>Br<sub>2</sub>O<sub>4</sub>",
        "Molecular Mass": "351.98",
        "Melting Point": "148.6 °C"
    }
}