{
    "cas_no": "1277-49-2",
    "key_name": "1-Ferrocenylethanol",
    "cn_name": null,
    "alternate_name": "Ferrocene, (1-hydroxyethyl)-;Ferrocenemethanol, α-methyl-;Iron, cyclopentadienyl[(1-hydroxyethyl)cyclopentadienyl]-;Ethanol, 1-ferrocenyl-;1-Ferrocenylethanol;(α-Hydroxyethyl)ferrocene;α-Ferrocenylethanol;NSC 162110;(1-Hydroxyethyl)ferrocene;(±)-1-Ferrocenylethanol",
    "duplicated_cas_no": "1271-65-4;34889-18-4",
    "SMILES": "C(C)(O)[C-]12[Fe+2]3456789([CH]1=[CH]3[CH]4=[CH]52)[CH-]%10[CH]6=[CH]7[CH]8=[CH]9%10",
    "meta_data": {
        "InChI": "InChI=1S/C7H9O.C5H5.Fe/c1-6(8)7-4-2-3-5-7;1-2-4-5-3-1;/h2-6,8H,1H3;1-5H;/q2*-1;+2",
        "InChIKey": null,
        "Canonical SMILES": "OC(C)[C-]12[CH]3=[CH]4[CH]5=[CH]1[Fe+2]67894532[CH]=%10[CH]9=[CH]8[CH-]7[CH]%106",
        "Molecular Formula": "C<sub>12</sub>H<sub>14</sub>FeO",
        "Molecular Mass": "",
        "Melting Point": "78-79 °C"
    }
}