{
    "cas_no": "1193-47-1",
    "key_name": "2,2-Dimethylcyclohexanone",
    "cn_name": "2,2-二甲基环己酮;2,2-二甲基环己酮;",
    "alternate_name": "Cyclohexanone, 2,2-dimethyl-;2,2-Dimethylcyclohexanone;2,2-Dimethyl-1-cyclohexanone;NSC 20553",
    "duplicated_cas_no": "",
    "SMILES": "O=C1C(C)(C)CCCC1",
    "meta_data": {
        "InChI": "InChI=1S/C8H14O/c1-8(2)6-4-3-5-7(8)9/h3-6H2,1-2H3",
        "InChIKey": null,
        "Canonical SMILES": "O=C1CCCCC1(C)C",
        "Molecular Formula": "C<sub>8</sub>H<sub>14</sub>O",
        "Molecular Mass": "126.20",
        "Boiling Point": "172 °C",
        "Melting Point": "-20.5 °C",
        "Density": "0.9141 g/cm³ @ Temp: 20 °C"
    }
}