{
    "cas_no": "98-51-1",
    "key_name": "4-<em>tert</em>-Butyltoluene",
    "cn_name": "4-叔丁基甲苯;对叔丁基甲苯;PTB;",
    "alternate_name": "Benzene, 1-(1,1-dimethylethyl)-4-methyl-;Toluene, <em>p</em>-<em>tert</em>-butyl-;1-(1,1-Dimethylethyl)-4-methylbenzene;<em>p</em>-<em>tert</em>-Butyltoluene;1-<em>tert</em>-Butyl-4-methylbenzene;4-Methyl-<em>tert</em>-butylbenzene;1-Methyl-4-<em>tert</em>-butylbenzene;4-<em>tert</em>-Butyltoluene;4-<em>tert</em>-Butyl-1-methylbenzene;<em>p</em>-Methyl-<em>tert</em>-butylbenzene;NSC 6589;1-Methyl-4-(1,1-dimethylethyl)benzene",
    "duplicated_cas_no": "",
    "SMILES": "C(C)(C)(C)C1=CC=C(C)C=C1",
    "meta_data": {
        "InChI": "InChI=1S/C11H16/c1-9-5-7-10(8-6-9)11(2,3)4/h5-8H,1-4H3",
        "InChIKey": null,
        "Canonical SMILES": "C=1C=C(C=CC1C)C(C)(C)C",
        "Molecular Formula": "C<sub>11</sub>H<sub>16</sub>",
        "Molecular Mass": "148.24",
        "Boiling Point": "193 °C @ Press: 760 Torr",
        "Melting Point": "-52 °C",
        "Density": "0.8612 g/cm³ @ Temp: 20 °C"
    }
}