{
    "cas_no": "7697-26-9",
    "key_name": "3-Bromo-4-methylbenzoic acid",
    "cn_name": "3-溴-4-甲基苯甲酸;",
    "alternate_name": "Benzoic acid, 3-bromo-4-methyl-;<em>p</em>-Toluic acid, 3-bromo-;3-Bromo-4-methylbenzoic acid;4-Methyl-3-bromobenzoic acid;3-Bromo-<em>p</em>-toluic acid;NSC 243715;3-Bromo-4-methylbenzenecarboxylic acid",
    "duplicated_cas_no": "",
    "SMILES": "C(O)(=O)C1=CC(Br)=C(C)C=C1",
    "meta_data": {
        "InChI": "InChI=1S/C8H7BrO2/c1-5-2-3-6(8(10)11)4-7(5)9/h2-4H,1H3,(H,10,11)",
        "InChIKey": null,
        "Canonical SMILES": "O=C(O)C1=CC=C(C(Br)=C1)C",
        "Molecular Formula": "C<sub>8</sub>H<sub>7</sub>BrO<sub>2</sub>",
        "Molecular Mass": "215.04",
        "Melting Point": "209.5-210 °C"
    }
}