{
    "cas_no": "3399-67-5",
    "key_name": "(2-Aminoethyl)trimethylammonium chloride, hydrochloride",
    "cn_name": null,
    "alternate_name": "Ethanaminium, 2-amino-<em>N</em>,<em>N</em>,<em>N</em>-trimethyl-, chloride, hydrochloride (1:1:1);Ammonium, (2-aminoethyl)trimethyl-, chloride, hydrochloride;Ethanaminium, 2-amino-<em>N</em>,<em>N</em>,<em>N</em>-trimethyl-, chloride, hydrochloride;(2-Aminoethyl)trimethylammonium chloride, hydrochloride;1-Amino-2-(trimethylammonium)ethane chloride;2-AETA;2-Amino-<em>N</em>,<em>N</em>,<em>N</em>-trimethylethanaminium chloride hydrochloride;(2-Aminoethyl)trimethylazanium hydrochloride chloride;Cholamine chloride hydrochloride",
    "duplicated_cas_no": "1105507-16-1",
    "SMILES": "C([N+](C)(C)C)CN.[Cl-].Cl",
    "meta_data": {
        "InChI": "InChI=1S/C5H15N2.2ClH/c1-7(2,3)5-4-6;;/h4-6H2,1-3H3;2*1H/q+1;;/p-1",
        "InChIKey": null,
        "Canonical SMILES": "[Cl-].Cl.NCC[N+](C)(C)C",
        "Molecular Formula": "C<sub>5</sub>H<sub>15</sub>N<sub>2</sub>.ClH.Cl",
        "Molecular Mass": "",
        "Melting Point": "254 °C"
    }
}