{
    "cas_no": "68077-27-0",
    "key_name": "3-Quinolinecarboxylic acid, 1-ethyl-6-fluoro-1,4-dihydro-4-oxo-7-(1-piperazinyl)-, hydrochloride (1:1)",
    "cn_name": null,
    "alternate_name": "3-Quinolinecarboxylic acid, 1-ethyl-6-fluoro-1,4-dihydro-4-oxo-7-(1-piperazinyl)-, hydrochloride (1:1);3-Quinolinecarboxylic acid, 1-ethyl-6-fluoro-1,4-dihydro-4-oxo-7-(1-piperazinyl)-, monohydrochloride;Norfloxacin monohydrochloride;1-Ethyl-6-fluoro-4-oxo-7-(piperazin-1-yl)-1,4-dihydroquinoline-3-carboxylic acid hydrochloride",
    "duplicated_cas_no": "",
    "SMILES": "C(C)N1C=2C(C(=O)C(C(O)=O)=C1)=CC(F)=C(C2)N3CCNCC3.Cl",
    "meta_data": {
        "InChI": "InChI=1S/C16H18FN3O3.ClH/c1-2-19-9-11(16(22)23)15(21)10-7-12(17)14(8-13(10)19)20-5-3-18-4-6-20;/h7-9,18H,2-6H2,1H3,(H,22,23);1H",
        "InChIKey": null,
        "Canonical SMILES": "Cl.O=C(O)C1=CN(C2=CC(=C(F)C=C2C1=O)N3CCNCC3)CC",
        "Molecular Formula": "C<sub>16</sub>H<sub>18</sub>FN<sub>3</sub>O<sub>3</sub>.ClH",
        "Molecular Mass": "",
        "Melting Point": "&gt;300 °C"
    }
}