{
    "cas_no": "128-46-1",
    "key_name": "Dihydrostreptomycin",
    "cn_name": "双氢霉素;双氢链霉素;",
    "alternate_name": "<span class=\"text-smallcaps\">D</smallcap>-Streptamine, <em>O</em>-2-deoxy-2-(methylamino)-α-<smallcap>L</smallcap>-glucopyranosyl-(1→2)-<em>O</em>-5-deoxy-3-<em>C</em>-(hydroxymethyl)-α-<smallcap>L</span>-lyxofuranosyl-(1→4)-<em>N</em><sup>1</sup>,<em>N</em><sup>3</sup>-bis(aminoiminomethyl)-;Streptomycin, dihydro-;<span class=\"text-smallcaps\">D</smallcap>-Streptamine, <em>O</em>-2-deoxy-2-(methylamino)-α-<smallcap>L</smallcap>-glucopyranosyl-(1→2)-<em>O</em>-5-deoxy-3-<em>C</em>-(hydroxymethyl)-α-<smallcap>L</span>-lyxofuranosyl-(1→4)-<em>N</em>,<em>N</em>′-bis(aminoiminomethyl)-;Streptomycin, deoxydihydrohydroxy-;<em>O</em>-2-Deoxy-2-(methylamino)-α-<span class=\"text-smallcaps\">L</smallcap>-glucopyranosyl-(1→2)-<em>O</em>-5-deoxy-3-<em>C</em>-(hydroxymethyl)-α-<smallcap>L</smallcap>-lyxofuranosyl-(1→4)-<em>N</em><sup>1</sup>,<em>N</em><sup>3</sup>-bis(aminoiminomethyl)-<smallcap>D</span>-streptamine;DHSM;2,4-Diguanidino-3,5,6-trihydroxycyclohexyl-5-deoxy-2-<em>O</em>-(2-deoxy-2-methylamino-α-<span class=\"text-smallcaps\">L</smallcap>-glucopyranosyl)-3-hydroxymethyl-β-<smallcap>L</span>-<em>lyxo</em>-pentanofuranoside;Dihydrostreptomycin;DST;Abiocine;Vibriomycin",
    "duplicated_cas_no": "47822-65-1;53648-21-8;423764-84-5;887226-79-1",
    "SMILES": "O([C@H]1[C@H](O[C@@H]2[C@@H](NC(=N)N)[C@H](O)[C@@H](NC(=N)N)[C@H](O)[C@H]2O)O[C@@H](C)[C@@]1(CO)O)[C@H]3[C@@H](NC)[C@H](O)[C@@H](O)[C@H](CO)O3",
    "meta_data": {
        "InChI": "InChI=1S/C21H41N7O12/c1-5-21(36,4-30)16(40-17-9(26-2)13(34)10(31)6(3-29)38-17)18(37-5)39-15-8(28-20(24)25)11(32)7(27-19(22)23)12(33)14(15)35/h5-18,26,29-36H,3-4H2,1-2H3,(H4,22,23,27)(H4,24,25,28)/t5-,6-,7+,8-,9-,10-,11+,12-,13-,14+,15+,16-,17-,18-,21+/m0/s1",
        "InChIKey": null,
        "Canonical SMILES": "N=C(N)NC1C(O)C(O)C(OC2OC(C)C(O)(CO)C2OC3OC(CO)C(O)C(O)C3NC)C(NC(=N)N)C1O",
        "Molecular Formula": "C<sub>21</sub>H<sub>41</sub>N<sub>7</sub>O<sub>12</sub>",
        "Molecular Mass": "583.59",
        "Melting Point": "&gt;300 °C"
    }
}