{
    "cas_no": "63628-26-2",
    "key_name": "(-)-2-Methoxy-2-(1-naphthyl)propionic acid",
    "cn_name": null,
    "alternate_name": "1-Naphthaleneacetic acid, α-methoxy-α-methyl-, (α<em>R</em>)-;(α<em>R</em>)-α-Methoxy-α-methyl-1-naphthaleneacetic acid;(-)-(<em>R</em>)-2-Methoxy-2-(1-naphthyl)propanoic acid;(<em>R</em>)-2-Methoxy-2-(1-naphthyl)propanoic acid;(-)-2-Methoxy-2-(1-naphthyl)propionic acid;(R)-(-)-2-Methoxy-2-(1-naphthyl)propanoic acid;(2R)-2-Methoxy-2-naphthalen-1-ylpropanoic acid;(R)-2-Methoxy-2-(naphthalen-1-yl)propanoicacid",
    "duplicated_cas_no": "",
    "SMILES": "[C@@](C(O)=O)(OC)(C)C=1C2=C(C=CC1)C=CC=C2",
    "meta_data": {
        "InChI": "InChI=1S/C14H14O3/c1-14(17-2,13(15)16)12-9-5-7-10-6-3-4-8-11(10)12/h3-9H,1-2H3,(H,15,16)/t14-/m1/s1",
        "InChIKey": null,
        "Canonical SMILES": "O=C(O)C(OC)(C1=CC=CC=2C=CC=CC21)C",
        "Molecular Formula": "C<sub>14</sub>H<sub>14</sub>O<sub>3</sub>",
        "Molecular Mass": "230.26",
        "Melting Point": "106-107 °C"
    }
}