{
    "cas_no": "147-93-3",
    "key_name": "2-Mercaptobenzoic acid",
    "cn_name": "硫代水杨酸;2-巯基苯甲酸;",
    "alternate_name": "Benzoic acid, 2-mercapto-;Benzoic acid, <em>o</em>-mercapto-;2-Mercaptobenzoic acid;<em>o</em>-Mercaptobenzoic acid;Salicylic acid, 2-thio-;<em>o</em>-Sulfhydrylbenzoic acid;<em>o</em>-Thiosalicylic acid;2-Carboxythiophenol;Thiosalicylic acid;<em>o</em>-Carboxythiophenol;Thiophenol-2-carboxylic acid;2-Thiosalicylic acid;2-Sulfanylbenzoic acid;NSC 2184;NSC 660640;2-Carboxybenzenethiol",
    "duplicated_cas_no": "860499-02-1",
    "SMILES": "C(O)(=O)C1=C(S)C=CC=C1",
    "meta_data": {
        "InChI": "InChI=1S/C7H6O2S/c8-7(9)5-3-1-2-4-6(5)10/h1-4,10H,(H,8,9)",
        "InChIKey": null,
        "Canonical SMILES": "O=C(O)C=1C=CC=CC1S",
        "Molecular Formula": "C<sub>7</sub>H<sub>6</sub>O<sub>2</sub>S",
        "Molecular Mass": "154.19",
        "Melting Point": "168-169 °C"
    }
}