{
    "cas_no": "484-66-2",
    "key_name": "2,3,4,5,6-Pentamethylbenzenemethanol",
    "cn_name": "2,3,4,5,6-五甲基苯甲醇;",
    "alternate_name": "Benzenemethanol, 2,3,4,5,6-pentamethyl-;Benzyl alcohol, 2,3,4,5,6-pentamethyl-;2,3,4,5,6-Pentamethylbenzenemethanol;2,3,4,5,6-Pentamethylbenzyl alcohol;(Pentamethylphenyl)methanol;Pentamethylbenzyl alcohol;Pentamethylbenzenemethanol",
    "duplicated_cas_no": "",
    "SMILES": "C(O)C1=C(C)C(C)=C(C)C(C)=C1C",
    "meta_data": {
        "InChI": "InChI=1S/C12H18O/c1-7-8(2)10(4)12(6-13)11(5)9(7)3/h13H,6H2,1-5H3",
        "InChIKey": null,
        "Canonical SMILES": "OCC=1C(=C(C(=C(C1C)C)C)C)C",
        "Molecular Formula": "C<sub>12</sub>H<sub>18</sub>O",
        "Molecular Mass": "178.27",
        "Melting Point": "136-137 °C"
    }
}