{
    "cas_no": "586-38-9",
    "key_name": "3-Methoxybenzoic acid",
    "cn_name": "3-甲氧基苯甲酸;间甲氧基苯甲酸;",
    "alternate_name": "Benzoic acid, 3-methoxy-;<em>m</em>-Anisic acid;3-Methoxybenzoic acid;<em>m</em>-Methoxybenzoic acid;3-Anisic acid;NSC 27014;NSC 9264",
    "duplicated_cas_no": "",
    "SMILES": "C(O)(=O)C1=CC(OC)=CC=C1",
    "meta_data": {
        "InChI": "InChI=1S/C8H8O3/c1-11-7-4-2-3-6(5-7)8(9)10/h2-5H,1H3,(H,9,10)",
        "InChIKey": null,
        "Canonical SMILES": "O=C(O)C=1C=CC=C(OC)C1",
        "Molecular Formula": "C<sub>8</sub>H<sub>8</sub>O<sub>3</sub>",
        "Molecular Mass": "152.15",
        "Boiling Point": "170 °C",
        "Melting Point": "107 °C"
    }
}