{
    "cas_no": "1304-82-1",
    "key_name": "Bismuth telluride",
    "cn_name": "碲化铋(III);",
    "alternate_name": "Bismuth telluride (Bi<sub>2</sub>Te<sub>3</sub>);Bismuth sesquitelluride;Bismuth telluride;Bismuth(3+) telluride;Dibismuth tritelluride",
    "duplicated_cas_no": "1269232-64-5;2097007-51-5;2227602-46-0;2323616-59-5",
    "SMILES": "",
    "meta_data": {
        "InChI": "",
        "InChIKey": null,
        "Canonical SMILES": "",
        "Molecular Formula": "Bi<sub>2</sub>Te<sub>3</sub>",
        "Molecular Mass": "",
        "Boiling Point": "1172 °C",
        "Melting Point": "585 °C",
        "Density": "7.26 g/cm³"
    }
}