{
    "uri": "substance/pt/1304821",
    "rn": "1304-82-1",
    "name": "Bismuth telluride",
    "images": [],
    "inchi": "",
    "inchiKey": "",
    "smile": "",
    "canonicalSmile": "",
    "molecularFormula": "Bi<sub>2</sub>Te<sub>3</sub>",
    "molecularMass": "",
    "experimentalProperties": [
        {
            "name": "Boiling Point",
            "property": "1172 °C",
            "sourceNumber": 1
        },
        {
            "name": "Melting Point",
            "property": "585 °C",
            "sourceNumber": 2
        },
        {
            "name": "Density",
            "property": "7.26 g/cm³",
            "sourceNumber": 3
        }
    ],
    "propertyCitations": [
        {
            "docUri": "document/pt/document/21199987",
            "sourceNumber": 1,
            "source": "Ustyugov, G. P.; Izvestiya Akademii Nauk SSSR, Neorganicheskie Materialy, (1969), 5(1), 166-7, CAplus"
        },
        {
            "docUri": "document/pt/document/12134016",
            "sourceNumber": 2,
            "source": "Ball, Donald L.; Inorganic Chemistry, (1962), 1, 805-11, CAplus"
        },
        {
            "docUri": "document/pt/document/21754433",
            "sourceNumber": 3,
            "source": "Glazov, V. M.; Izvestiya Akademii Nauk SSSR, Neorganicheskie Materialy, (1966), 2(8), 1477-82, CAplus"
        }
    ],
    "synonyms": [
        "Bismuth telluride (Bi<sub>2</sub>Te<sub>3</sub>)",
        "Bismuth sesquitelluride",
        "Bismuth telluride",
        "Bismuth(3+) telluride",
        "Dibismuth tritelluride"
    ],
    "replacedRns": [
        "1269232-64-5",
        "2097007-51-5",
        "2227602-46-0",
        "2323616-59-5"
    ],
    "hasMolfile": false,
    "source": "https://commonchemistry.cas.org/detail?cas_rn=1304-82-1"
}