{
    "cas_no": "5356-71-8",
    "key_name": "1,3-Diphenyl-1<em>H</em>-pyrazol-5-amine",
    "cn_name": "5-氨基-1,3-二苯基哌唑;5-氨基-1,3-二苯基吡唑;",
    "alternate_name": "1<em>H</em>-Pyrazol-5-amine, 1,3-diphenyl-;Pyrazole, 5-amino-1,3-diphenyl-;1,3-Diphenyl-1<em>H</em>-pyrazol-5-amine;5-Amino-1,3-diphenylpyrazole;1,3-Diphenyl-5-aminopyrazole;2,5-Diphenylpyrazol-3-amine;5-Amino-1-phenyl-3-phenylpyrazole;1,3-Diphenyl-1<em>H</em>-pyrazole-5-amine",
    "duplicated_cas_no": "",
    "SMILES": "NC=1N(N=C(C1)C2=CC=CC=C2)C3=CC=CC=C3",
    "meta_data": {
        "InChI": "InChI=1S/C15H13N3/c16-15-11-14(12-7-3-1-4-8-12)17-18(15)13-9-5-2-6-10-13/h1-11H,16H2",
        "InChIKey": null,
        "Canonical SMILES": "N1=C(C=C(N)N1C=2C=CC=CC2)C=3C=CC=CC3",
        "Molecular Formula": "C<sub>15</sub>H<sub>13</sub>N<sub>3</sub>",
        "Molecular Mass": "235.28",
        "Melting Point": "129-130 °C"
    }
}