{
    "cas_no": "105956-99-8",
    "key_name": "3-Quinolinecarboxylic acid, 7-(3-amino-1-pyrrolidinyl)-8-chloro-1-cyclopropyl-6-fluoro-1,4-dihydro-4-oxo-, hydrochloride (1:1)",
    "cn_name": "盐酸克林沙星;7-(3-氨基-1-吡咯烷基)-8-氯-1-环丙基-6-氟-1,4-二氢-4-氧代-3-喹啉羧酸盐酸盐;",
    "alternate_name": "3-Quinolinecarboxylic acid, 7-(3-amino-1-pyrrolidinyl)-8-chloro-1-cyclopropyl-6-fluoro-1,4-dihydro-4-oxo-, hydrochloride (1:1);3-Quinolinecarboxylic acid, 7-(3-amino-1-pyrrolidinyl)-8-chloro-1-cyclopropyl-6-fluoro-1,4-dihydro-4-oxo-, monohydrochloride;CI 960;KR 11095;AM 1091;Clinafloxacin hydrochloride",
    "duplicated_cas_no": "122842-92-6",
    "SMILES": "ClC1=C2N(C=C(C(O)=O)C(=O)C2=CC(F)=C1N3CC(N)CC3)C4CC4.Cl",
    "meta_data": {
        "InChI": "InChI=1S/C17H17ClFN3O3.ClH/c18-13-14-10(5-12(19)15(13)21-4-3-8(20)6-21)16(23)11(17(24)25)7-22(14)9-1-2-9;/h5,7-9H,1-4,6,20H2,(H,24,25);1H",
        "InChIKey": null,
        "Canonical SMILES": "Cl.O=C(O)C1=CN(C2=C(Cl)C(=C(F)C=C2C1=O)N3CCC(N)C3)C4CC4",
        "Molecular Formula": "C<sub>17</sub>H<sub>17</sub>ClFN<sub>3</sub>O<sub>3</sub>.ClH",
        "Molecular Mass": "",
        "Melting Point": "263-265 °C (decomp)"
    }
}