{
    "cas_no": "583-69-7",
    "key_name": "2-Bromo-1,4-benzenediol",
    "cn_name": "溴羟基喹啉;",
    "alternate_name": "1,4-Benzenediol, 2-bromo-;Hydroquinone, bromo-;2-Bromo-1,4-benzenediol;Bromohydroquinone;2-Bromoquinol;2-Bromohydroquinone;2-Bromo-1,4-hydroquinone;2-Bromo-1,4-dihydroxybenzene;1-Bromo-2,5-dihydroxybenzene;NSC 3977",
    "duplicated_cas_no": "",
    "SMILES": "BrC1=C(O)C=CC(O)=C1",
    "meta_data": {
        "InChI": "InChI=1S/C6H5BrO2/c7-5-3-4(8)1-2-6(5)9/h1-3,8-9H",
        "InChIKey": null,
        "Canonical SMILES": "BrC1=CC(O)=CC=C1O",
        "Molecular Formula": "C<sub>6</sub>H<sub>5</sub>BrO<sub>2</sub>",
        "Molecular Mass": "189.01",
        "Melting Point": "111.5 °C"
    }
}