{
    "cas_no": "613-84-3",
    "key_name": "5-Methylsalicylaldehyde",
    "cn_name": "5-甲基水杨醛;2-羟基-5-甲基苯甲醛;",
    "alternate_name": "Benzaldehyde, 2-hydroxy-5-methyl-;2,5-Cresotaldehyde;2-Hydroxy-5-methylbenzaldehyde;5-Methylsalicylaldehyde;5-Methyl-2-hydroxybenzaldehyde;2-Formyl-4-methylphenol;NSC 97517",
    "duplicated_cas_no": "",
    "SMILES": "C(=O)C1=C(O)C=CC(C)=C1",
    "meta_data": {
        "InChI": "InChI=1S/C8H8O2/c1-6-2-3-8(10)7(4-6)5-9/h2-5,10H,1H3",
        "InChIKey": null,
        "Canonical SMILES": "O=CC1=CC(=CC=C1O)C",
        "Molecular Formula": "C<sub>8</sub>H<sub>8</sub>O<sub>2</sub>",
        "Molecular Mass": "136.15",
        "Boiling Point": "217.5 °C",
        "Melting Point": "56 °C"
    }
}