{
    "cas_no": "1668-54-8",
    "key_name": "2-Amino-4-methoxy-6-methyl-1,3,5-triazine",
    "cn_name": "2-氨基-4-甲基-6-甲氧基-1,3,5-三嗪;",
    "alternate_name": "1,3,5-Triazin-2-amine, 4-methoxy-6-methyl-;<em>s</em>-Triazine, 2-amino-4-methoxy-6-methyl-;4-Methoxy-6-methyl-1,3,5-triazin-2-amine;2-Methyl-4-amino-6-methoxy-<em>s</em>-triazine;CV 399;2-Amino-4-methoxy-6-methyl-1,3,5-triazine;2-Methoxy-4-methyl-6-amino-1,3,5-triazine;A 4098;2-Amino-4-methyl-6-methoxy-<em>s</em>-triazine;2-Amino-4-methoxy-6-methyl-<em>s</em>-triazine;2-Amino-4-methyl-6-methoxy-1,3,5-triazine;IN-A 4098",
    "duplicated_cas_no": "",
    "SMILES": "O(C)C=1N=C(C)N=C(N)N1",
    "meta_data": {
        "InChI": "InChI=1S/C5H8N4O/c1-3-7-4(6)9-5(8-3)10-2/h1-2H3,(H2,6,7,8,9)",
        "InChIKey": null,
        "Canonical SMILES": "N=1C(=NC(=NC1N)C)OC",
        "Molecular Formula": "C<sub>5</sub>H<sub>8</sub>N<sub>4</sub>O",
        "Molecular Mass": "140.14",
        "Melting Point": "256-257 °C"
    }
}