{
    "cas_no": "675126-28-0",
    "key_name": "4-Methoxy-3-[3-(4-morpholinyl)propoxy]benzonitrile",
    "cn_name": null,
    "alternate_name": "Benzonitrile, 4-methoxy-3-[3-(4-morpholinyl)propoxy]-;4-Methoxy-3-[3-(4-morpholinyl)propoxy]benzonitrile;4-Methoxy-3-(3-morpholinopropoxy)benzonitrile",
    "duplicated_cas_no": "",
    "SMILES": "O(CCCN1CCOCC1)C2=C(OC)C=CC(C#N)=C2",
    "meta_data": {
        "InChI": "InChI=1S/C15H20N2O3/c1-18-14-4-3-13(12-16)11-15(14)20-8-2-5-17-6-9-19-10-7-17/h3-4,11H,2,5-10H2,1H3",
        "InChIKey": null,
        "Canonical SMILES": "N#CC1=CC=C(OC)C(OCCCN2CCOCC2)=C1",
        "Molecular Formula": "C<sub>15</sub>H<sub>20</sub>N<sub>2</sub>O<sub>3</sub>",
        "Molecular Mass": "276.33",
        "Melting Point": "52.4 °C"
    }
}