{
    "cas_no": "693-89-0",
    "key_name": "1-Methylcyclopentene",
    "cn_name": "1-甲基环戊烯;1-甲基-1-环戊烯;",
    "alternate_name": "Cyclopentene, 1-methyl-;1-Methylcyclopentene;1-Methyl-1-cyclopentene;NSC 64657",
    "duplicated_cas_no": "",
    "SMILES": "CC=1CCCC1",
    "meta_data": {
        "InChI": "InChI=1S/C6H10/c1-6-4-2-3-5-6/h4H,2-3,5H2,1H3",
        "InChIKey": null,
        "Canonical SMILES": "C1=C(C)CCC1",
        "Molecular Formula": "C<sub>6</sub>H<sub>10</sub>",
        "Molecular Mass": "82.14",
        "Boiling Point": "75.5 °C",
        "Melting Point": "-126.5 °C",
        "Density": "0.7979 g/cm³ @ Temp: 0 °C"
    }
}