{
    "cas_no": "999-64-4",
    "key_name": "3-Bromooctane",
    "cn_name": null,
    "alternate_name": "Octane, 3-bromo-;3-Bromooctane;3-Octyl bromide",
    "duplicated_cas_no": "",
    "SMILES": "C(CCCCC)(CC)Br",
    "meta_data": {
        "InChI": "InChI=1S/C8H17Br/c1-3-5-6-7-8(9)4-2/h8H,3-7H2,1-2H3",
        "InChIKey": null,
        "Canonical SMILES": "BrC(CC)CCCCC",
        "Molecular Formula": "C<sub>8</sub>H<sub>17</sub>Br",
        "Molecular Mass": "193.12",
        "Boiling Point": "81.5 °C @ Press: 20 Torr"
    }
}