{
    "cas_no": "465-99-6",
    "key_name": "Hederagenin",
    "cn_name": "常春藤皂苷元;常春藤皂甙元;(3beta,4alpha)-3,23-二羟基齐墩果-12-烯-28-酸;",
    "alternate_name": "Olean-12-en-28-oic acid, 3,23-dihydroxy-, (3β,4α)-;Olean-12-en-28-oic acid, 3β,23-dihydroxy-;(3β,4α)-3,23-Dihydroxyolean-12-en-28-oic acid;Caulosapogenin;Hederagenin;Hederagenol;Astrantiagenin E;Hederagenic acid;NSC 24954;Hederagenine;3β,23-Dihydroxyolean-12-en-28-oic acid;Helexin",
    "duplicated_cas_no": "2102352-61-2",
    "SMILES": "C[C@]12C([C@]3([C@@](C(O)=O)(CC1)CCC(C)(C)C3)[H])=CC[C@]4([C@@]2(C)CC[C@@]5([C@]4(C)CC[C@H](O)[C@]5(CO)C)[H])[H]",
    "meta_data": {
        "InChI": "InChI=1S/C30H48O4/c1-25(2)13-15-30(24(33)34)16-14-28(5)19(20(30)17-25)7-8-22-26(3)11-10-23(32)27(4,18-31)21(26)9-12-29(22,28)6/h7,20-23,31-32H,8-18H2,1-6H3,(H,33,34)/t20-,21+,22+,23-,26-,27-,28+,29+,30-/m0/s1",
        "InChIKey": null,
        "Canonical SMILES": "O=C(O)C12CCC(C)(C)CC2C3=CCC4C5(C)CCC(O)C(C)(CO)C5CCC4(C)C3(C)CC1",
        "Molecular Formula": "C<sub>30</sub>H<sub>48</sub>O<sub>4</sub>",
        "Molecular Mass": "472.70",
        "Melting Point": "325 °C"
    }
}