{
    "cas_no": "591-54-8",
    "key_name": "4-Aminopyrimidine",
    "cn_name": "4-氨基嘧啶;",
    "alternate_name": "4-Pyrimidinamine;Pyrimidine, 4-amino-;4-Aminopyrimidine;3,4-Dihydro-4-iminopyrimidine;6-Aminopyrimidine;NSC 401236;Pyrimidin-4-ylamine",
    "duplicated_cas_no": "37066-99-2",
    "SMILES": "NC=1C=CN=CN1",
    "meta_data": {
        "InChI": "InChI=1S/C4H5N3/c5-4-1-2-6-3-7-4/h1-3H,(H2,5,6,7)",
        "InChIKey": null,
        "Canonical SMILES": "N=1C=NC(N)=CC1",
        "Molecular Formula": "C<sub>4</sub>H<sub>5</sub>N<sub>3</sub>",
        "Molecular Mass": "95.10",
        "Melting Point": "155 °C"
    }
}