{
    "cas_no": "1138-52-9",
    "key_name": "3,5-Di-<em>tert</em>-butylphenol",
    "cn_name": "3,5-二叔丁基苯酚;3,5-二叔丁基苯酚;",
    "alternate_name": "Phenol, 3,5-bis(1,1-dimethylethyl)-;Phenol, 3,5-di-<em>tert</em>-butyl-;3,5-Bis(1,1-dimethylethyl)phenol;3,5-Di-<em>tert</em>-butylphenol;3,5-Di-<em>t</em>-butylphenol;NSC 68209;3,5-Bis(<em>tert</em>-butyl)phenol;3,5-Ditert-butylphenol",
    "duplicated_cas_no": "50356-18-8",
    "SMILES": "C(C)(C)(C)C1=CC(C(C)(C)C)=CC(O)=C1",
    "meta_data": {
        "InChI": "InChI=1S/C14H22O/c1-13(2,3)10-7-11(14(4,5)6)9-12(15)8-10/h7-9,15H,1-6H3",
        "InChIKey": null,
        "Canonical SMILES": "OC=1C=C(C=C(C1)C(C)(C)C)C(C)(C)C",
        "Molecular Formula": "C<sub>14</sub>H<sub>22</sub>O",
        "Molecular Mass": "206.32",
        "Melting Point": "93.5-94.0 °C"
    }
}