{
    "cas_no": "1470-61-7",
    "key_name": "Silver diethyldithiocarbamate",
    "cn_name": "砷试剂;二乙基二硫代氨基甲酸银;(二乙基二硫代氨基甲酸-S,S\")银;",
    "alternate_name": "Silver, (diethylcarbamodithioato-κ<em>S</em>,κ<em>S</em>′)-;Silver, (diethyldithiocarbamato)-;Silver, (diethylcarbamodithioato-<em>S</em>,<em>S</em>′)-;(Diethylcarbamodithioato-κ<em>S</em>,κ<em>S</em>′)silver;Silver diethyldithiocarbamate;Silver(1+) diethyldithiocarbamate;(Diethyldithiocarbamate)silver;(Diethyldithiocarbamato)silver;Carbamodithioic acid, diethyl-, silver(1+) salt;NSC 378347;Carbamodithioic acid, <em>N</em>,<em>N</em>-diethyl-, silver(1+) salt (1:1)",
    "duplicated_cas_no": "22137-89-9;873001-24-2;879674-08-5;1824725-79-2",
    "SMILES": "N(CC)(CC)C=1[S-][Ag+][S]1",
    "meta_data": {
        "InChI": "InChI=1S/C5H11NS2.Ag/c1-3-6(4-2)5(7)8;/h3-4H2,1-2H3,(H,7,8);/q;+1/p-1",
        "InChIKey": null,
        "Canonical SMILES": "[S]=1[Ag+][S-]C1N(CC)CC",
        "Molecular Formula": "C<sub>5</sub>H<sub>10</sub>AgNS<sub>2</sub>",
        "Molecular Mass": "",
        "Melting Point": "172-175 °C"
    }
}