{
    "cas_no": "689-67-8",
    "key_name": "6,10-Dimethyl-5,9-undecadien-2-one",
    "cn_name": "香叶基丙酮;6,10-二甲基-5,9-十一双烯-2-酮;",
    "alternate_name": "5,9-Undecadien-2-one, 6,10-dimethyl-;5,9-Hendecadien-2-one, 6,10-dimethyl-;6,10-Dimethyl-5,9-undecadien-2-one;2,6-Dimethylundeca-2,6-dien-10-one;Dihydropseudoionone;6,10-Dimethyl-5,9-undecadiene-2-one;NSC 406679;6,10-Dimethyl-5,9-undec-2-one",
    "duplicated_cas_no": "",
    "SMILES": "C(CCC=C(C)C)(=CCCC(C)=O)C",
    "meta_data": {
        "InChI": "InChI=1S/C13H22O/c1-11(2)7-5-8-12(3)9-6-10-13(4)14/h7,9H,5-6,8,10H2,1-4H3",
        "InChIKey": null,
        "Canonical SMILES": "O=C(C)CCC=C(C)CCC=C(C)C",
        "Molecular Formula": "C<sub>13</sub>H<sub>22</sub>O",
        "Molecular Mass": "194.31",
        "Boiling Point": "141-143 °C @ Press: 13 Torr",
        "Density": "0.871 g/cm³ @ Temp: 23 °C"
    }
}