{
    "cas_no": "13863-41-7",
    "key_name": "Bromine chloride (BrCl)",
    "cn_name": "氯化溴;",
    "alternate_name": "Bromine chloride (BrCl);Bromochloride;Bromine monochloride;Bromine chloride",
    "duplicated_cas_no": "",
    "SMILES": "BrCl",
    "meta_data": {
        "InChI": "InChI=1S/BrCl/c1-2",
        "InChIKey": null,
        "Canonical SMILES": "ClBr",
        "Molecular Formula": "BrCl",
        "Molecular Mass": "115.36",
        "Melting Point": "158 °C"
    }
}