{
    "cas_no": "628-51-3",
    "key_name": "Methanediol, 1,1-diacetate",
    "cn_name": null,
    "alternate_name": "Methanediol, 1,1-diacetate;Methanediol, diacetate;Methylene diacetate;Methylene glycol diacetate;Diacetoxymethane;NSC 57545;(Acetyloxy)methyl acetate",
    "duplicated_cas_no": "",
    "SMILES": "C(OC(C)=O)OC(C)=O",
    "meta_data": {
        "InChI": "InChI=1S/C5H8O4/c1-4(6)8-3-9-5(2)7/h3H2,1-2H3",
        "InChIKey": null,
        "Canonical SMILES": "O=C(OCOC(=O)C)C",
        "Molecular Formula": "C<sub>5</sub>H<sub>8</sub>O<sub>4</sub>",
        "Molecular Mass": "132.11",
        "Boiling Point": "168-172 °C",
        "Melting Point": "118 °C"
    }
}