{
    "cas_no": "74568-07-3",
    "key_name": "25,26,27,28-Tetrahydroxycalix[4]arene",
    "cn_name": "杯[4]芳烃;",
    "alternate_name": "Pentacyclo[19.3.1.1<sup>3,7</sup>.1<sup>9,13</sup>.1<sup>15,19</sup>]octacosa-1(25),3,5,7(28),9,11,13(27),15,17,19(26),21,23-dodecaene-25,26,27,28-tetrol;25,26,27,28-Tetrahydroxycalix[4]arene;Calix[4]arene-25,26,27,28-tetrol;Calix[4]arenetetrol;Calix[4]arene;Pentacyclo[19.3.1.1<sup>3,7</sup>.1<sup>9,13</sup>.1<sup>15,19</sup>]octacosa-1(25),3,5,7(28),9,11,13(27),15,17,19(26),21,23-dodecaene-5,25,26,27-tetrol;CALX 4;Pentacyclo[19.3.1.1<sup>3,7</sup>.1<sup>9,13</sup>.1<sup>15,19</sup>]octacosa-1(25),3,5,7(28),9,11,13(27),15,17,19(26),21,23-dodecaene-5,17,25,27-tetrol;Pentacyclo[19.3.1.1<sup>3,7</sup>.1<sup>9,13</sup>.1<sup>15,19</sup>]octacosa-1(25),3,5,7(28),9,11,13(27),15,17,19(26),21,23-dodecaene-5,11,17,23-tetrol",
    "duplicated_cas_no": "151409-35-7;155562-04-2;440088-96-0;1257241-79-4;2566761-46-2;2996862-28-1",
    "SMILES": "OC=1C=2CC=3C(O)=C(CC=4C(O)=C(CC5=C(O)C(CC1C=CC2)=CC=C5)C=CC4)C=CC3",
    "meta_data": {
        "InChI": "InChI=1S/C28H24O4/c29-25-17-5-1-6-18(25)14-20-8-3-10-22(27(20)31)16-24-12-4-11-23(28(24)32)15-21-9-2-7-19(13-17)26(21)30/h1-12,29-32H,13-16H2",
        "InChIKey": null,
        "Canonical SMILES": "OC=1C2=CC=CC1CC3=CC=CC(=C3O)CC=4C=CC=C(C4O)CC=5C=CC=C(C5O)C2",
        "Molecular Formula": "C<sub>28</sub>H<sub>24</sub>O<sub>4</sub>",
        "Molecular Mass": "424.49",
        "Melting Point": "313 °C"
    }
}