{
    "cas_no": "13568-40-6",
    "key_name": "Lithium molybdate (Li<sub>2</sub>MoO<sub>4</sub>)",
    "cn_name": "钼酸锂;",
    "alternate_name": "Molybdate (MoO<sub>4</sub><sup>2-</sup>), lithium (1:2), (<em>T</em>-4)-;Molybdic acid (H<sub>2</sub>MoO<sub>4</sub>), dilithium salt;Molybdate (MoO<sub>4</sub><sup>2-</sup>), dilithium, (<em>T</em>-4)-;Lithium molybdate(VI) (Li<sub>2</sub>MoO<sub>4</sub>);Dilithium molybdate (Li<sub>2</sub>MoO<sub>4</sub>);Lithium molybdate;Lithium molybdate (Li<sub>2</sub>MoO<sub>4</sub>);Dilithium tetraoxomolybdate(2-);Lithium molybdenum oxide (Li<sub>2</sub>MoO<sub>4</sub>);Dilithium molybdenum tetraoxide",
    "duplicated_cas_no": "",
    "SMILES": "[Mo-2](=O)(=O)(=O)=O.[Li+]",
    "meta_data": {
        "InChI": "InChI=1S/2Li.Mo.4O/q2*+1;-2;;;;",
        "InChIKey": null,
        "Canonical SMILES": "[Li+].O=[Mo-2](=O)(=O)=O",
        "Molecular Formula": "Li.<sup>1</sup>/<sub>2</sub>MoO<sub>4</sub>",
        "Molecular Mass": "",
        "Melting Point": "700 °C",
        "Density": "3.06 g/cm³"
    }
}