{
    "cas_no": "2312-35-8",
    "key_name": "Propargite",
    "cn_name": "炔螨特;2-(4-特丁基苯氧基)环己基丙炔-2-基亚硫酸酯;",
    "alternate_name": "Sulfurous acid, 2-[4-(1,1-dimethylethyl)phenoxy]cyclohexyl 2-propyn-1-yl ester;Sulfurous acid, 2-(<em>p</em>-<em>tert</em>-butylphenoxy)cyclohexyl 2-propynyl ester;Sulfurous acid, 2-[4-(1,1-dimethylethyl)phenoxy]cyclohexyl 2-propynyl ester;2-(<em>p</em>-<em>tert</em>-Butylphenoxy)cyclohexyl 2-propynyl sulfite;Omite;Naugatuck D 014;D 014;Omite 85E;Propargil;Propargite;Comite;Omite 57E;2-(<em>p</em>-<em>tert</em>-Butylphenoxy)cyclohexyl propargyl sulfite;Cyclosulfyne;BPPS;Kelaran;D 014 (ester);Comite II;Acarit 720EC;2-(4-(<em>tert</em>-Butyl)phenoxy)cyclohexyl prop-2-yn-1-yl sulfite",
    "duplicated_cas_no": "60098-53-5",
    "SMILES": "O(C1C(OS(OCC#C)=O)CCCC1)C2=CC=C(C(C)(C)C)C=C2",
    "meta_data": {
        "InChI": "InChI=1S/C19H26O4S/c1-5-14-21-24(20)23-18-9-7-6-8-17(18)22-16-12-10-15(11-13-16)19(2,3)4/h1,10-13,17-18H,6-9,14H2,2-4H3",
        "InChIKey": null,
        "Canonical SMILES": "O=S(OCC#C)OC1CCCCC1OC2=CC=C(C=C2)C(C)(C)C",
        "Molecular Formula": "C<sub>19</sub>H<sub>26</sub>O<sub>4</sub>S",
        "Molecular Mass": "350.47",
        "Melting Point": "&lt;25 °C"
    }
}