{
    "cas_no": "196597-26-9",
    "key_name": "Ramelteon",
    "cn_name": "雷美替胺;瑞美替昂;(S)-N-[2-(1,6,7,8-四氢-2H-茚并[5,4-b]呋喃-8-基)乙基]丙酰胺;",
    "alternate_name": "Propanamide, <em>N</em>-[2-[(8<em>S</em>)-1,6,7,8-tetrahydro-2<em>H</em>-indeno[5,4-<em>b</em>]furan-8-yl]ethyl]-;Propanamide, <em>N</em>-[2-(1,6,7,8-tetrahydro-2<em>H</em>-indeno[5,4-<em>b</em>]furan-8-yl)ethyl]-, (<em>S</em>)-;<em>N</em>-[2-[(8<em>S</em>)-1,6,7,8-Tetrahydro-2<em>H</em>-indeno[5,4-<em>b</em>]furan-8-yl]ethyl]propanamide;TAK 375;Ramelteon;(<em>S</em>)-<em>N</em>-[2-(1,6,7,8-Tetrahydro-2<em>H</em>-indeno[5,4-<em>b</em>]furan-8-yl)ethyl]propionamide;Rozerem;(<em>S</em>)-<em>N</em>-[2-(1,6,7,8-Tetrahydro-2<em>H</em>-indeno-[5,4-b]furan-8-yl)ethyl]propionamide;Rozerm",
    "duplicated_cas_no": "",
    "SMILES": "C(CNC(CC)=O)[C@H]1C=2C3=C(C=CC2CC1)OCC3",
    "meta_data": {
        "InChI": "InChI=1S/C16H21NO2/c1-2-15(18)17-9-7-12-4-3-11-5-6-14-13(16(11)12)8-10-19-14/h5-6,12H,2-4,7-10H2,1H3,(H,17,18)/t12-/m0/s1",
        "InChIKey": null,
        "Canonical SMILES": "O=C(NCCC1C=2C(=CC=C3OCCC32)CC1)CC",
        "Molecular Formula": "C<sub>16</sub>H<sub>21</sub>NO<sub>2</sub>",
        "Molecular Mass": "259.34",
        "Melting Point": "113-115 °C"
    }
}