{
    "cas_no": "27262-48-2",
    "key_name": "2-Piperidinecarboxamide, 1-butyl-<em>N</em>-(2,6-dimethylphenyl)-, hydrochloride (1:1), (2<em>S</em>)-",
    "cn_name": "盐酸左布比卡因;S-(-)-1-丁基-N-(2,6-二甲基苯基)-2-哌啶甲酰胺盐酸盐;",
    "alternate_name": "2-Piperidinecarboxamide, 1-butyl-<em>N</em>-(2,6-dimethylphenyl)-, hydrochloride (1:1), (2<em>S</em>)-;2′,6′-Pipecoloxylidide, 1-butyl-, monohydrochloride, (-)-;2-Piperidinecarboxamide, 1-butyl-<em>N</em>-(2,6-dimethylphenyl)-, monohydrochloride, (<em>S</em>)-;2-Piperidinecarboxamide, 1-butyl-<em>N</em>-(2,6-dimethylphenyl)-, monohydrochloride, (2<em>S</em>)-;(-)-Bupivacaine monohydrochloride;(<em>S</em>)-(-)-Bupivacaine monohydrochloride;Chirocaine;Levobupivacaine hydrochloride;Popscaine",
    "duplicated_cas_no": "",
    "SMILES": "C(NC1=C(C)C=CC=C1C)(=O)[C@H]2N(CCCC)CCCC2.Cl",
    "meta_data": {
        "InChI": "InChI=1S/C18H28N2O.ClH/c1-4-5-12-20-13-7-6-11-16(20)18(21)19-17-14(2)9-8-10-15(17)3;/h8-10,16H,4-7,11-13H2,1-3H3,(H,19,21);1H/t16-;/m0./s1",
        "InChIKey": null,
        "Canonical SMILES": "Cl.O=C(NC=1C(=CC=CC1C)C)C2N(CCCC)CCCC2",
        "Molecular Formula": "C<sub>18</sub>H<sub>28</sub>N<sub>2</sub>O.ClH",
        "Molecular Mass": "",
        "Melting Point": "261.4 °C"
    }
}