{
    "cas_no": "55-21-0",
    "key_name": "Benzamide",
    "cn_name": "苯甲酰胺;",
    "alternate_name": "Benzamide;Benzoic acid amide;Phenylcarboxamide;Benzenecarboxamide;Phenylamide;Benzoylamine;NSC 3114",
    "duplicated_cas_no": "27208-38-4",
    "SMILES": "C(N)(=O)C1=CC=CC=C1",
    "meta_data": {
        "InChI": "InChI=1S/C7H7NO/c8-7(9)6-4-2-1-3-5-6/h1-5H,(H2,8,9)",
        "InChIKey": null,
        "Canonical SMILES": "O=C(N)C=1C=CC=CC1",
        "Molecular Formula": "C<sub>7</sub>H<sub>7</sub>NO",
        "Molecular Mass": "121.14",
        "Boiling Point": "288 °C",
        "Melting Point": "130 °C",
        "Density": "1.341 g/cm³"
    }
}