{
    "cas_no": "101-90-6",
    "key_name": "Resorcinol diglycidyl ether",
    "cn_name": "1,3-苯二酚二缩水甘油醚;间苯二酚二缩水甘油醚;",
    "alternate_name": "Oxirane, 2,2′-[1,3-phenylenebis(oxymethylene)]bis-;Benzene, <em>m</em>-bis(2,3-epoxypropoxy)-;2,2′-[1,3-Phenylenebis(oxymethylene)]bis[oxirane];<em>m</em>-Bis(2,3-epoxypropoxy)benzene;Resorcinol diglycidyl ether;Diglycidyl resorcinol ether;Resorcinol glycidyl ether;Resorcinol bis(2,3-epoxypropyl) ether;1,3-Bis(2,3-epoxypropoxy)benzene;<em>m</em>-Bis(glycidyloxy)benzene;NSC 76621;1,3-Diglycidyloxybenzene;1,3-Dihydroxybenzene diglycidyl ether;2-[3-(Oxiran-2-ylmethoxy)phenoxymethyl]oxirane;2-[[3-(Oxiran-2-ylmethoxy)phenoxy]methyl]oxirane;KMC 694",
    "duplicated_cas_no": "168331-52-0;2056031-50-4",
    "SMILES": "O(CC1CO1)C2=CC(OCC3CO3)=CC=C2",
    "meta_data": {
        "InChI": "InChI=1S/C12H14O4/c1-2-9(13-5-11-7-15-11)4-10(3-1)14-6-12-8-16-12/h1-4,11-12H,5-8H2",
        "InChIKey": null,
        "Canonical SMILES": "O(C1=CC=CC(OCC2OC2)=C1)CC3OC3",
        "Molecular Formula": "C<sub>12</sub>H<sub>14</sub>O<sub>4</sub>",
        "Molecular Mass": "222.24",
        "Boiling Point": "172 °C @ Press: 0.8 Torr",
        "Melting Point": "32-33 °C",
        "Density": "1.21 g/cm³ @ Temp: 25 °C"
    }
}