{
    "cas_no": "474-62-4",
    "key_name": "Campesterol",
    "cn_name": "菜油甾醇;",
    "alternate_name": "Ergost-5-en-3-ol, (3β,24<em>R</em>)-;Campesterol;Ergost-5-en-3β-ol, (24<em>R</em>)-;(3β,24<em>R</em>)-Ergost-5-en-3-ol;Campesterin;(24<em>R</em>)-24-Methylcholest-5-en-3β-ol;24α-Methylcholesterol;(24<em>R</em>)-5-Ergosten-3β-ol;24α-Methyl-5-cholesten-3β-ol;(24<em>R</em>)-Methylcholest-5-en-3β-ol;Δ<sup>5</sup>-24-Isoergosten-3β-ol;24(<em>R</em>)-Methylcholesterol;NSC 224330;Campasterol",
    "duplicated_cas_no": "137764-28-4",
    "SMILES": "C[C@@]12[C@]([C@]3([C@@]([C@]4(C)C(=CC3)C[C@@H](O)CC4)(CC1)[H])[H])(CC[C@@]2([C@@H](CC[C@H](C(C)C)C)C)[H])[H]",
    "meta_data": {
        "InChI": "InChI=1S/C28H48O/c1-18(2)19(3)7-8-20(4)24-11-12-25-23-10-9-21-17-22(29)13-15-27(21,5)26(23)14-16-28(24,25)6/h9,18-20,22-26,29H,7-8,10-17H2,1-6H3/t19-,20-,22+,23+,24-,25+,26+,27+,28-/m1/s1",
        "InChIKey": null,
        "Canonical SMILES": "OC1CC2=CCC3C(CCC4(C)C(CCC34)C(C)CCC(C)C(C)C)C2(C)CC1",
        "Molecular Formula": "C<sub>28</sub>H<sub>48</sub>O",
        "Molecular Mass": "400.68",
        "Melting Point": "157.5 °C"
    }
}