{
    "cas_no": "660-27-5",
    "key_name": "Acetic acid, 2,2-dichloro-, compd. with <em>N</em>-(1-methylethyl)-2-propanamine (1:1)",
    "cn_name": "二氯醋酸二异丙胺;",
    "alternate_name": "Acetic acid, 2,2-dichloro-, compd. with <em>N</em>-(1-methylethyl)-2-propanamine (1:1);Acetic acid, dichloro-, compd. with diisopropylamine (1:1);Acetic acid, dichloro-, compd. with <em>N</em>-(1-methylethyl)-2-propanamine (1:1);Acetic acid, dichloro-, compd. with diisopropylamine;Diisopropylamine, dichloroacetate;2-Propanamine, <em>N</em>-(1-methylethyl)-, dichloroacetate;IS 401;Diisopropylammonium dichloroacetate;Diisopropylammonium dichloroethanoate;DADA;Diisopropylamine dichloroethanoate;DIPA;DIEDI;Dapocel;Dedyl;Kalodil;Tensicor;Disotat;β-Anoxin;Krino B 15;Cubisol;Oxypangam;Vasculopatina;Dipromonium;DIPA-DCA",
    "duplicated_cas_no": "",
    "SMILES": "N(C(C)C)C(C)C.C(C(O)=O)(Cl)Cl",
    "meta_data": {
        "InChI": "InChI=1S/C6H15N.C2H2Cl2O2/c1-5(2)7-6(3)4;3-1(4)2(5)6/h5-7H,1-4H3;1H,(H,5,6)",
        "InChIKey": null,
        "Canonical SMILES": "O=C(O)C(Cl)Cl.N(C(C)C)C(C)C",
        "Molecular Formula": "C<sub>6</sub>H<sub>15</sub>N.C<sub>2</sub>H<sub>2</sub>Cl<sub>2</sub>O<sub>2</sub>",
        "Molecular Mass": "",
        "Melting Point": "119-121 °C"
    }
}