{
    "cas_no": "708-79-2",
    "key_name": "1-Methyluric acid",
    "cn_name": "1-甲基尿酸;1-甲基尿酸;",
    "alternate_name": "1<em>H</em>-Purine-2,6,8(3<em>H</em>)-trione, 7,9-dihydro-1-methyl-;Uric acid, 1-methyl-;7,9-Dihydro-1-methyl-1<em>H</em>-purine-2,6,8(3<em>H</em>)-trione;1-Methyluric acid;<em>N</em><sup>1</sup>-Methyluric acid;1-Methyl-2,3,6,7,8,9-hexahydro-1<em>H</em>-purine-2,6,8-trione;1-Methyl-1<em>H</em>-purine-2,6,8(3<em>H</em>,7<em>H</em>,9<em>H</em>)-trione;1-Methyl-7,9-dihydro-3<em>H</em>-purine-2,6,8-trione",
    "duplicated_cas_no": "",
    "SMILES": "O=C1C2=C(NC(=O)N1C)NC(=O)N2",
    "meta_data": {
        "InChI": "InChI=1S/C6H6N4O3/c1-10-4(11)2-3(9-6(10)13)8-5(12)7-2/h1H3,(H,9,13)(H2,7,8,12)",
        "InChIKey": null,
        "Canonical SMILES": "O=C1NC=2NC(=O)N(C(=O)C2N1)C",
        "Molecular Formula": "C<sub>6</sub>H<sub>6</sub>N<sub>4</sub>O<sub>3</sub>",
        "Molecular Mass": "182.14",
        "Melting Point": "202-203 °C"
    }
}