{
    "cas_no": "2370-61-8",
    "key_name": "(±)-<em>o</em>-Tyrosine",
    "cn_name": "DL-o-络氨酸;(±)-2-氨基-3-(2-羟基苯)丙酸;3-(2-羟基苯)-DL-丙氨酸;",
    "alternate_name": "Phenylalanine, 2-hydroxy-;<em>o</em>-Tyrosine, <span class=\"text-smallcaps\">DL</span>-;<span class=\"text-smallcaps\">DL</span>-Phenylalanine, 2-hydroxy-;2-Hydroxyphenylalanine;<em>o</em>-<span class=\"text-smallcaps\">DL</span>-Tyrosine;<span class=\"text-smallcaps\">DL</span>-2-Hydroxyphenylalanine;<em>o</em>-Tyrosine;<span class=\"text-smallcaps\">DL</span>-<em>o</em>-Tyrosine;(±)-<em>o</em>-Tyrosine;NSC 72345;Ortho-tyrosine;2-Azaniumyl-3-(2-hydroxyphenyl)propanoate;2-Amino-3-(2-hydroxyphenyl)propanoic acid",
    "duplicated_cas_no": "709-16-0",
    "SMILES": "C(C(C(O)=O)N)C1=C(O)C=CC=C1",
    "meta_data": {
        "InChI": "InChI=1S/C9H11NO3/c10-7(9(12)13)5-6-3-1-2-4-8(6)11/h1-4,7,11H,5,10H2,(H,12,13)",
        "InChIKey": null,
        "Canonical SMILES": "O=C(O)C(N)CC=1C=CC=CC1O",
        "Molecular Formula": "C<sub>9</sub>H<sub>11</sub>NO<sub>3</sub>",
        "Molecular Mass": "181.19",
        "Melting Point": "247-250 °C (decomp)"
    }
}