{
    "cas_no": "89524-99-2",
    "key_name": "Methyl 2-(acetylamino)-2-(dimethoxyphosphinyl)acetate",
    "cn_name": null,
    "alternate_name": "Acetic acid, 2-(acetylamino)-2-(dimethoxyphosphinyl)-, methyl ester;Acetic acid, (acetylamino)(dimethoxyphosphinyl)-, methyl ester;Methyl 2-(acetylamino)-2-(dimethoxyphosphinyl)acetate;Trimethyl α-(acetamido)phosphonoacetate;Methyl α-(acetylamino)-α-(dimethoxyphosphoryl)acetate",
    "duplicated_cas_no": "141540-68-3",
    "SMILES": "P(C(C(OC)=O)NC(C)=O)(OC)(OC)=O",
    "meta_data": {
        "InChI": "InChI=1S/C7H14NO6P/c1-5(9)8-6(7(10)12-2)15(11,13-3)14-4/h6H,1-4H3,(H,8,9)",
        "InChIKey": null,
        "Canonical SMILES": "O=C(OC)C(NC(=O)C)P(=O)(OC)OC",
        "Molecular Formula": "C<sub>7</sub>H<sub>14</sub>NO<sub>6</sub>P",
        "Molecular Mass": "239.16",
        "Melting Point": "88.0-88.5 °C"
    }
}