{
    "cas_no": "593-08-8",
    "key_name": "2-Tridecanone",
    "cn_name": null,
    "alternate_name": "2-Tridecanone;Methyl undecyl ketone;Tridecanone-2;NSC 14763",
    "duplicated_cas_no": "",
    "SMILES": "C(CCCCCCCC)CCC(C)=O",
    "meta_data": {
        "InChI": "InChI=1S/C13H26O/c1-3-4-5-6-7-8-9-10-11-12-13(2)14/h3-12H2,1-2H3",
        "InChIKey": null,
        "Canonical SMILES": "O=C(C)CCCCCCCCCCC",
        "Molecular Formula": "C<sub>13</sub>H<sub>26</sub>O",
        "Molecular Mass": "198.34",
        "Boiling Point": "263 °C",
        "Melting Point": "30.5 °C"
    }
}