{
    "cas_no": "13775-53-6",
    "key_name": "Trisodium hexafluoroaluminate",
    "cn_name": "六氟铝酸钠;氟铝酸钠;",
    "alternate_name": "Aluminate(3-), hexafluoro-, sodium (1:3), (<em>OC</em>-6-11)-;Aluminate(3-), hexafluoro-, trisodium;Aluminate(3-), hexafluoro-, trisodium, (<em>OC</em>-6-11)-;Sodium hexafluoroaluminate (Na<sub>3</sub>AlF<sub>6</sub>);Trisodium aluminum hexafluoride;Trisodium hexafluoroaluminate;Sodium fluoroaluminate (Na<sub>3</sub>AlF<sub>6</sub>);Aluminum sodium fluoride (Na<sub>3</sub>AlF<sub>6</sub>);Sodium fluoaluminate(3-);Sodium aluminum hexafluoride;Aluminum trisodium hexafluoride;Aluminum sodium hexafluoride (AlNa<sub>3</sub>F<sub>6</sub>);Sodium hexafluoroaluminate(3-)",
    "duplicated_cas_no": "12397-51-2;1228236-36-9;2222063-96-7;2396520-37-7",
    "SMILES": "[Al+3]([F-])([F-])([F-])([F-])([F-])[F-].[Na+]",
    "meta_data": {
        "InChI": "InChI=1S/Al.6FH.3Na/h;6*1H;;;/q+3;;;;;;;3*+1/p-6",
        "InChIKey": null,
        "Canonical SMILES": "[Na+].[F-][Al+3]([F-])([F-])([F-])([F-])[F-]",
        "Molecular Formula": "AlF<sub>6</sub>.3Na",
        "Molecular Mass": "",
        "Melting Point": "1008 °C",
        "Density": "2.95 g/cm³ @ Temp: 20 °C"
    }
}