{
    "cas_no": "4458-31-5",
    "key_name": "Diethylpropylamine",
    "cn_name": null,
    "alternate_name": "1-Propanamine, <em>N</em>,<em>N</em>-diethyl-;Propylamine, <em>N</em>,<em>N</em>-diethyl-;<em>N</em>,<em>N</em>-Diethyl-1-propanamine;Ethanamine, <em>N</em>-ethyl-<em>N</em>-propyl-;Diethylpropylamine;<em>N</em>,<em>N</em>-Diethylpropylamine;Diethylammonium propane;NSC 1097",
    "duplicated_cas_no": "",
    "SMILES": "N(CCC)(CC)CC",
    "meta_data": {
        "InChI": "InChI=1S/C7H17N/c1-4-7-8(5-2)6-3/h4-7H2,1-3H3",
        "InChIKey": null,
        "Canonical SMILES": "N(CC)(CC)CCC",
        "Molecular Formula": "C<sub>7</sub>H<sub>17</sub>N",
        "Molecular Mass": "115.22",
        "Boiling Point": "111.9-112.2 °C",
        "Density": "0.742 g/cm³ @ Temp: 20 °C"
    }
}