{
    "cas_no": "17746-05-3",
    "key_name": "Undecanoyl chloride",
    "cn_name": "十一烷酰氯;",
    "alternate_name": "Undecanoyl chloride;<em>n</em>-Undecanoyl chloride;Undecanoic acid chloride;NSC 83585;Undecanoic acid, anhydride with carbonochloridic acid",
    "duplicated_cas_no": "1246204-28-3",
    "SMILES": "C(CCCCCC)CCCC(Cl)=O",
    "meta_data": {
        "InChI": "InChI=1S/C11H21ClO/c1-2-3-4-5-6-7-8-9-10-11(12)13/h2-10H2,1H3",
        "InChIKey": null,
        "Canonical SMILES": "O=C(Cl)CCCCCCCCCC",
        "Molecular Formula": "C<sub>11</sub>H<sub>21</sub>ClO",
        "Molecular Mass": "204.74",
        "Boiling Point": "90 °C @ Press: 1.0 Torr"
    }
}