{
    "cas_no": "3353-68-2",
    "key_name": "1,3-Bis(3-carboxypropyl)tetramethyldisiloxane",
    "cn_name": null,
    "alternate_name": "Butanoic acid, 4,4′-(1,1,3,3-tetramethyl-1,3-disiloxanediyl)bis-;6-Oxa-5,7-disilaundecanedioic acid, 5,5,7,7-tetramethyl-;4,4′-(1,1,3,3-Tetramethyl-1,3-disiloxanediyl)bis[butanoic acid];4,6-Disila-5-oxanonane-1,9-dicarboxylic acid, 4,4,6,6-tetramethyl-;1,3-Bis(3-carboxypropyl)tetramethyldisiloxane;1,3-Bis(3-carboxypropyl)-1,1,3,3-tetramethyldisiloxane",
    "duplicated_cas_no": "",
    "SMILES": "[Si](O[Si](CCCC(O)=O)(C)C)(CCCC(O)=O)(C)C",
    "meta_data": {
        "InChI": "InChI=1S/C12H26O5Si2/c1-18(2,9-5-7-11(13)14)17-19(3,4)10-6-8-12(15)16/h5-10H2,1-4H3,(H,13,14)(H,15,16)",
        "InChIKey": null,
        "Canonical SMILES": "O=C(O)CCC[Si](O[Si](C)(C)CCCC(=O)O)(C)C",
        "Molecular Formula": "C<sub>12</sub>H<sub>26</sub>O<sub>5</sub>Si<sub>2</sub>",
        "Molecular Mass": "306.50",
        "Melting Point": "46-49 °C"
    }
}