{
    "cas_no": "73746-44-8",
    "key_name": "4,5-Diiodo-2-methyl-1<em>H</em>-imidazole",
    "cn_name": "4,5-二碘-2-甲基咪唑;",
    "alternate_name": "1<em>H</em>-Imidazole, 4,5-diiodo-2-methyl-;4,5-Diiodo-2-methyl-1<em>H</em>-imidazole;4,5-Diiodo-2-methylimidazole",
    "duplicated_cas_no": "",
    "SMILES": "IC1=C(I)N=C(C)N1",
    "meta_data": {
        "InChI": "InChI=1S/C4H4I2N2/c1-2-7-3(5)4(6)8-2/h1H3,(H,7,8)",
        "InChIKey": null,
        "Canonical SMILES": "IC=1N=C(NC1I)C",
        "Molecular Formula": "C<sub>4</sub>H<sub>4</sub>I<sub>2</sub>N<sub>2</sub>",
        "Molecular Mass": "333.90",
        "Melting Point": "193-195 °C"
    }
}