{
    "cas_no": "4436-74-2",
    "key_name": "3-Hexenedioic acid",
    "cn_name": null,
    "alternate_name": "3-Hexenedioic acid;β-Hydromuconic acid;2-Butene-1,4-dicarboxylic acid;Dihydromuconic acid",
    "duplicated_cas_no": "",
    "SMILES": "C(=CCC(O)=O)CC(O)=O",
    "meta_data": {
        "InChI": "InChI=1S/C6H8O4/c7-5(8)3-1-2-4-6(9)10/h1-2H,3-4H2,(H,7,8)(H,9,10)",
        "InChIKey": null,
        "Canonical SMILES": "O=C(O)CC=CCC(=O)O",
        "Molecular Formula": "C<sub>6</sub>H<sub>8</sub>O<sub>4</sub>",
        "Molecular Mass": "144.13",
        "Melting Point": "197 °C"
    }
}