{
    "cas_no": "1428-33-7",
    "key_name": "3-(1,1,2,2-Tetrafluoroethoxy)-1-propene",
    "cn_name": "烯丙基-1,1,2,2-四氟乙基醚;",
    "alternate_name": "1-Propene, 3-(1,1,2,2-tetrafluoroethoxy)-;Ether, allyl 1,1,2,2-tetrafluoroethyl;3-(1,1,2,2-Tetrafluoroethoxy)-1-propene;Allyl 1,1,2,2-tetrafluoroethyl ether;1,1,2,2-Tetrafluoroethyl allyl ether",
    "duplicated_cas_no": "",
    "SMILES": "C(C(F)F)(OCC=C)(F)F",
    "meta_data": {
        "InChI": "InChI=1S/C5H6F4O/c1-2-3-10-5(8,9)4(6)7/h2,4H,1,3H2",
        "InChIKey": null,
        "Canonical SMILES": "FC(F)C(F)(F)OCC=C",
        "Molecular Formula": "C<sub>5</sub>H<sub>6</sub>F<sub>4</sub>O",
        "Molecular Mass": "158.09",
        "Boiling Point": "74 °C @ Press: 739 Torr",
        "Density": "1.2043 g/cm³ @ Temp: 20 °C"
    }
}