{
    "cas_no": "23687-25-4",
    "key_name": "4-Isoquinolinamine",
    "cn_name": "4-氨基异喹啉;",
    "alternate_name": "4-Isoquinolinamine;Isoquinoline, 4-amino-;4-Aminoisoquinoline;NSC 170840",
    "duplicated_cas_no": "",
    "SMILES": "NC=1C2=C(C=NC1)C=CC=C2",
    "meta_data": {
        "InChI": "InChI=1S/C9H8N2/c10-9-6-11-5-7-3-1-2-4-8(7)9/h1-6H,10H2",
        "InChIKey": null,
        "Canonical SMILES": "N=1C=C(N)C=2C=CC=CC2C1",
        "Molecular Formula": "C<sub>9</sub>H<sub>8</sub>N<sub>2</sub>",
        "Molecular Mass": "144.17",
        "Melting Point": "108 °C"
    }
}