{
    "cas_no": "793-19-1",
    "key_name": "<em>N</em>-(3-Methoxy-3-oxopropyl)-<em>N</em>-(phenylmethyl)-β-alanine methyl ester",
    "cn_name": null,
    "alternate_name": "β-Alanine, <em>N</em>-(3-methoxy-3-oxopropyl)-<em>N</em>-(phenylmethyl)-, methyl ester;Propionic acid, 3,3′-(benzylimino)di-, dimethyl ester;<em>N</em>-(3-Methoxy-3-oxopropyl)-<em>N</em>-(phenylmethyl)-β-alanine methyl ester;3,3′-(Benzylimino)dipropionic acid dimethyl ester;NSC 54971;<em>N</em>,<em>N</em>-Bis[2-(methoxycarbonyl)ethyl]benzylamine;Dimethyl 3,3′-(benzylazanediyl)dipropanoate",
    "duplicated_cas_no": "",
    "SMILES": "N(CC1=CC=CC=C1)(CCC(OC)=O)CCC(OC)=O",
    "meta_data": {
        "InChI": "InChI=1S/C15H21NO4/c1-19-14(17)8-10-16(11-9-15(18)20-2)12-13-6-4-3-5-7-13/h3-7H,8-12H2,1-2H3",
        "InChIKey": null,
        "Canonical SMILES": "O=C(OC)CCN(CC=1C=CC=CC1)CCC(=O)OC",
        "Molecular Formula": "C<sub>15</sub>H<sub>21</sub>NO<sub>4</sub>",
        "Molecular Mass": "279.33",
        "Boiling Point": "150-161 °C @ Press: 0.6 Torr"
    }
}