{
    "cas_no": "4524-93-0",
    "key_name": "Cyclopentanecarbonyl chloride",
    "cn_name": "环戊基甲酰氯;",
    "alternate_name": "Cyclopentanecarbonyl chloride;Cyclopentanoyl chloride;Cyclopentylcarbonyl chloride;Cyclopentanecarboxylic acid chloride;1-Cyclopentanecarbonyl chloride",
    "duplicated_cas_no": "2137051-33-1",
    "SMILES": "C(Cl)(=O)C1CCCC1",
    "meta_data": {
        "InChI": "InChI=1S/C6H9ClO/c7-6(8)5-3-1-2-4-5/h5H,1-4H2",
        "InChIKey": null,
        "Canonical SMILES": "O=C(Cl)C1CCCC1",
        "Molecular Formula": "C<sub>6</sub>H<sub>9</sub>ClO",
        "Molecular Mass": "132.59",
        "Boiling Point": "160-162 °C"
    }
}