{
    "cas_no": "875-79-6",
    "key_name": "1,2-Dimethylindole",
    "cn_name": "1,2-二甲基吲哚;",
    "alternate_name": "1<em>H</em>-Indole, 1,2-dimethyl-;Indole, 1,2-dimethyl-;1,2-Dimethyl-1<em>H</em>-indole;1,2-Dimethylindole;<em>N</em>,2-Dimethylindole;NSC 62087",
    "duplicated_cas_no": "",
    "SMILES": "CN1C=2C(C=C1C)=CC=CC2",
    "meta_data": {
        "InChI": "InChI=1S/C10H11N/c1-8-7-9-5-3-4-6-10(9)11(8)2/h3-7H,1-2H3",
        "InChIKey": null,
        "Canonical SMILES": "C=1C=CC2=C(C1)C=C(N2C)C",
        "Molecular Formula": "C<sub>10</sub>H<sub>11</sub>N",
        "Molecular Mass": "145.20",
        "Boiling Point": "85-89 °C @ Press: 1.2 Torr",
        "Melting Point": "55-58 °C"
    }
}