{
    "cas_no": "39614-78-3",
    "key_name": "6-Ethoxy-3-pyridazinamine",
    "cn_name": null,
    "alternate_name": "3-Pyridazinamine, 6-ethoxy-;Pyridazine, 3-amino-6-ethoxy-;6-Ethoxy-3-pyridazinamine;6-Ethoxypyridazin-3-amine",
    "duplicated_cas_no": "39539-68-9",
    "SMILES": "O(CC)C1=CC=C(N)N=N1",
    "meta_data": {
        "InChI": "InChI=1S/C6H9N3O/c1-2-10-6-4-3-5(7)8-9-6/h3-4H,2H2,1H3,(H2,7,8)",
        "InChIKey": null,
        "Canonical SMILES": "N=1N=C(N)C=CC1OCC",
        "Molecular Formula": "C<sub>6</sub>H<sub>9</sub>N<sub>3</sub>O",
        "Molecular Mass": "139.16",
        "Melting Point": "163-166 °C"
    }
}