{
    "cas_no": "1137-99-1",
    "key_name": "1-(2-Hydroxyethyl) 1,4-benzenedicarboxylate",
    "cn_name": null,
    "alternate_name": "1,4-Benzenedicarboxylic acid, 1-(2-hydroxyethyl) ester;Terephthalic acid, mono(2-hydroxyethyl) ester;1,4-Benzenedicarboxylic acid, mono(2-hydroxyethyl) ester;Terephthalic acid, 2-hydroxyethyl ester;Ethylene glycol, mono(hydrogen terephthalate);1-(2-Hydroxyethyl) 1,4-benzenedicarboxylate;Ethylene glycol terephthalate (1:1);Mono(2-hydroxyethyl) terephthalate;Ethylene glycol, hydrogen terephthalate (1:1);Mono(β-hydroxyethyl) terephthalate;2-Hydroxyethyl terephthalate;β-Hydroxyethyl terephthalate;2-Hydroxyethyl hydrogen terephthalate;Hydrogen 2-hydroxyethyl terephthalate;Terephthalic acid ethylene glycol monoester;Ethylene glycol-terephthalic acid monoester",
    "duplicated_cas_no": "",
    "SMILES": "C(OCCO)(=O)C1=CC=C(C(O)=O)C=C1",
    "meta_data": {
        "InChI": "InChI=1S/C10H10O5/c11-5-6-15-10(14)8-3-1-7(2-4-8)9(12)13/h1-4,11H,5-6H2,(H,12,13)",
        "InChIKey": null,
        "Canonical SMILES": "O=C(O)C1=CC=C(C=C1)C(=O)OCCO",
        "Molecular Formula": "C<sub>10</sub>H<sub>10</sub>O<sub>5</sub>",
        "Molecular Mass": "210.18",
        "Boiling Point": "100-108 °C",
        "Melting Point": "183-186 °C"
    }
}