{
    "cas_no": "33462-81-6",
    "key_name": "Sulfonium, cyclopropyldiphenyl-, tetrafluoroborate(1-) (1:1)",
    "cn_name": "环丙基二苯基锍四氟硼酸盐;",
    "alternate_name": "Sulfonium, cyclopropyldiphenyl-, tetrafluoroborate(1-) (1:1);Sulfonium, cyclopropyldiphenyl-, tetrafluoroborate(1-);Borate(1-), tetrafluoro-, cyclopropyldiphenylsulfonium;Cyclopropyldiphenylsulfonium tetrafluoroborate;Cyclopropyldiphenylsulfonium fluoborate;Diphenylcyclopropylsulfonium tetrafluoroborate",
    "duplicated_cas_no": "",
    "SMILES": "[S+](C1CC1)(C2=CC=CC=C2)C3=CC=CC=C3.[B+3]([F-])([F-])([F-])[F-]",
    "meta_data": {
        "InChI": "InChI=1S/C15H15S.BF4/c1-3-7-13(8-4-1)16(15-11-12-15)14-9-5-2-6-10-14;2-1(3,4)5/h1-10,15H,11-12H2;/q+1;-1",
        "InChIKey": null,
        "Canonical SMILES": "[F-][B+3]([F-])([F-])[F-].C=1C=CC(=CC1)[S+](C=2C=CC=CC2)C3CC3",
        "Molecular Formula": "C<sub>15</sub>H<sub>15</sub>S.BF<sub>4</sub>",
        "Molecular Mass": "",
        "Melting Point": "139 °C"
    }
}