{
    "cas_no": "38818-50-7",
    "key_name": "4-Chloro-3-nitrobenzoyl chloride",
    "cn_name": "4-氯-3-硝基苯甲酰氯;3-硝基-4-氯苯甲酰氯;",
    "alternate_name": "Benzoyl chloride, 4-chloro-3-nitro-;4-Chloro-3-nitrobenzoyl chloride;3-Nitro-4-chlorobenzoyl chloride;4-Chloro-3-nitrobenzoic acid chloride",
    "duplicated_cas_no": "",
    "SMILES": "N(=O)(=O)C1=CC(C(Cl)=O)=CC=C1Cl",
    "meta_data": {
        "InChI": "InChI=1S/C7H3Cl2NO3/c8-5-2-1-4(7(9)11)3-6(5)10(12)13/h1-3H",
        "InChIKey": null,
        "Canonical SMILES": "O=C(Cl)C1=CC=C(Cl)C(=C1)N(=O)=O",
        "Molecular Formula": "C<sub>7</sub>H<sub>3</sub>Cl<sub>2</sub>NO<sub>3</sub>",
        "Molecular Mass": "220.01",
        "Melting Point": "52-54 °C"
    }
}