{
    "cas_no": "98-15-7",
    "key_name": "3-Chlorobenzotrifluoride",
    "cn_name": "间氯三氟甲苯;3-氯三氟甲苯;",
    "alternate_name": "Benzene, 1-chloro-3-(trifluoromethyl)-;Toluene, <em>m</em>-chloro-α,α,α-trifluoro-;1-Chloro-3-(trifluoromethyl)benzene;<em>m</em>-Chlorobenzotrifluoride;<em>m</em>-Chloro-α,α,α-trifluorotoluene;<em>m</em>-(Trifluoromethyl)phenyl chloride;3-Chloro-α,α,α-trifluorotoluene;3-Chlorobenzotrifluoride;3-Chloro(trifluoromethyl)benzene;<em>m</em>-Chloro(trifluoromethyl)benzene;<em>m</em>-(Trifluoromethyl)chlorobenzene;3-(Trifluoromethyl)chlorobenzene;NSC 10308;3-Trifluoromethylphenyl chloride;3-Trifluoromethyl-1-chlorobenzene;3-Chloro-1-trifluoromethylbenzene",
    "duplicated_cas_no": "",
    "SMILES": "C(F)(F)(F)C1=CC(Cl)=CC=C1",
    "meta_data": {
        "InChI": "InChI=1S/C7H4ClF3/c8-6-3-1-2-5(4-6)7(9,10)11/h1-4H",
        "InChIKey": null,
        "Canonical SMILES": "FC(F)(F)C=1C=CC=C(Cl)C1",
        "Molecular Formula": "C<sub>7</sub>H<sub>4</sub>ClF<sub>3</sub>",
        "Molecular Mass": "180.55",
        "Boiling Point": "137.5 °C",
        "Melting Point": "-56 °C"
    }
}