{
    "cas_no": "71989-31-6",
    "key_name": "Fmoc-Pro-OH",
    "cn_name": "Fmoc-L-脯氨酸;芴甲氧羰基-L-脯氨酸;",
    "alternate_name": "1,2-Pyrrolidinedicarboxylic acid, 1-(9<em>H</em>-fluoren-9-ylmethyl) ester, (2<em>S</em>)-;1,2-Pyrrolidinedicarboxylic acid, 1-(9<em>H</em>-fluoren-9-ylmethyl) ester, (<em>S</em>)-;<em>N</em>-(9-Fluorenylmethoxycarbonyl)proline;Fmoc-Pro-OH;Fluorenylmethoxycarbonylproline;<em>N</em>-(9-Fluorenylmethoxycarbonyl)-<span class=\"text-smallcaps\">L</span>-proline;(<em>S</em>)-<em>N</em>-(9-Fluorenylmethoxycarbonyl)proline;<em>N</em>-FMOC-<span class=\"text-smallcaps\">L</span>-proline;NSC 334294;Fmoc-<span class=\"text-smallcaps\">L</span>-proline;Fmoc-<span class=\"text-smallcaps\">L</span>-Pro-OH;(2S)-1-[(9<em>H</em>-Fluoren-9-ylmethoxy)carbonyl]pyrrolidine-2-carboxylic acid;(2S)-1-[[(9<em>H</em>-Fluoren-9-yl)methoxy]carbonyl]pyrrolidine-2-carboxylic acid",
    "duplicated_cas_no": "179457-84-2",
    "SMILES": "C(OC(=O)N1[C@H](C(O)=O)CCC1)C2C=3C(C=4C2=CC=CC4)=CC=CC3",
    "meta_data": {
        "InChI": "InChI=1S/C20H19NO4/c22-19(23)18-10-5-11-21(18)20(24)25-12-17-15-8-3-1-6-13(15)14-7-2-4-9-16(14)17/h1-4,6-9,17-18H,5,10-12H2,(H,22,23)/t18-/m0/s1",
        "InChIKey": null,
        "Canonical SMILES": "O=C(O)C1N(C(=O)OCC2C=3C=CC=CC3C=4C=CC=CC42)CCC1",
        "Molecular Formula": "C<sub>20</sub>H<sub>19</sub>NO<sub>4</sub>",
        "Molecular Mass": "337.37",
        "Melting Point": "134-136 °C (decomp)"
    }
}