{
    "cas_no": "934-74-7",
    "key_name": "1-Ethyl-3,5-dimethylbenzene",
    "cn_name": "5-乙基-3,5-二甲基苯;",
    "alternate_name": "Benzene, 1-ethyl-3,5-dimethyl-;<em>m</em>-Xylene, 5-ethyl-;1-Ethyl-3,5-dimethylbenzene;1,3-Dimethyl-5-ethylbenzene;5-Ethyl-<em>m</em>-xylene;3,5-Dimethylethylbenzene;NSC 74185",
    "duplicated_cas_no": "",
    "SMILES": "C(C)C1=CC(C)=CC(C)=C1",
    "meta_data": {
        "InChI": "InChI=1S/C10H14/c1-4-10-6-8(2)5-9(3)7-10/h5-7H,4H2,1-3H3",
        "InChIKey": null,
        "Canonical SMILES": "C=1C(=CC(=CC1C)CC)C",
        "Molecular Formula": "C<sub>10</sub>H<sub>14</sub>",
        "Molecular Mass": "134.22",
        "Boiling Point": "183.6 °C",
        "Melting Point": "-84.3 °C",
        "Density": "0.8644 g/cm³ @ Temp: 20 °C"
    }
}