{
    "cas_no": "7452-59-7",
    "key_name": "Octyl carbonochloridate",
    "cn_name": "氯甲酸正辛酯;氯甲酸辛酯;",
    "alternate_name": "Carbonochloridic acid, octyl ester;Formic acid, chloro-, octyl ester;Octyl carbonochloridate;Octyl chloroformate;1-Octyl chloroformate;<em>n</em>-Octyl chloroformate",
    "duplicated_cas_no": "",
    "SMILES": "C(CCCCCC)COC(Cl)=O",
    "meta_data": {
        "InChI": "InChI=1S/C9H17ClO2/c1-2-3-4-5-6-7-8-12-9(10)11/h2-8H2,1H3",
        "InChIKey": null,
        "Canonical SMILES": "O=C(Cl)OCCCCCCCC",
        "Molecular Formula": "C<sub>9</sub>H<sub>17</sub>ClO<sub>2</sub>",
        "Molecular Mass": "192.68",
        "Boiling Point": "119-123 °C @ Press: 30 Torr"
    }
}