{
    "cas_no": "118-44-5",
    "key_name": "<em>N</em>-Ethyl-1-naphthalenamine",
    "cn_name": "N-乙基-1-萘胺;",
    "alternate_name": "1-Naphthalenamine, <em>N</em>-ethyl-;1-Naphthylamine, <em>N</em>-ethyl-;<em>N</em>-Ethyl-1-naphthalenamine;Ethyl-α-naphthylamine;<em>N</em>-Ethyl-α-naphthylamine;<em>N</em>-Ethyl-1-naphthylamine;1-(Ethylamino)naphthalene;<em>N</em>-Ethyl-1-aminonaphthalene;NSC 8636",
    "duplicated_cas_no": "92483-38-0",
    "SMILES": "N(CC)C=1C2=C(C=CC1)C=CC=C2",
    "meta_data": {
        "InChI": "InChI=1S/C12H13N/c1-2-13-12-9-5-7-10-6-3-4-8-11(10)12/h3-9,13H,2H2,1H3",
        "InChIKey": null,
        "Canonical SMILES": "C=1C=CC2=C(C1)C=CC=C2NCC",
        "Molecular Formula": "C<sub>12</sub>H<sub>13</sub>N",
        "Molecular Mass": "171.24",
        "Boiling Point": "305 °C",
        "Melting Point": "164-165 °C (decomp)"
    }
}