{
    "cas_no": "51364-51-3",
    "key_name": "Tris(dibenzylideneacetone)dipalladium",
    "cn_name": "三(二亚苄基丙酮)二钯;",
    "alternate_name": "Palladium, tris[μ-[(1,2-η:4,5-η)-(1<em>E</em>,4<em>E</em>)-1,5-diphenyl-1,4-pentadien-3-one]]di-;Palladium, tris[μ-[(1,2-η:4,5-η)-1,5-diphenyl-1,4-pentadien-3-one]]di-, (<em>all</em>-<em>E</em>)-;1,4-Pentadien-3-one, 1,5-diphenyl-, palladium complex, (<em>E</em>,<em>E</em>)-;Tris[μ-[(1,2-η:4,5-η)-(1<em>E</em>,4<em>E</em>)-1,5-diphenyl-1,4-pentadien-3-one]]dipalladium;Tris(dibenzylideneacetone)dipalladium;Pd<sub>2</sub>(DBA)<sub>3</sub>;tris[μ-[(1,2-η:4,5-η)-(1<em>E</em>,4<em>E</em>)-1,5-diphenyl-1,4-pentadien-3-one]]dipalladium [Pd<sub>2</sub>(dba)<sub>3</sub>];Tris(dibenzylideneacetonyl)bis-palladium;Tris[(1<em>E</em>,4<em>E</em>)-1,5-diphenyl-1,4-pentadien-3-one]dipalladium;Tris[dibenzylideneacetone]dipalladium (DBA palladium);Tris(dibenzylideneacetone)dipalladium(0)",
    "duplicated_cas_no": "52409-22-0;60748-47-2;2408763-24-4",
    "SMILES": "O=C1[CH]=2[Pd]345([CH](=[CH]3C6=CC=CC=C6)C(=O)[CH]=7[Pd]89([CH]1=[CH]8C%10=CC=CC=C%10)([CH](C(=O)[CH]4=[CH]5C%11=CC=CC=C%11)=[CH]9C%12=CC=CC=C%12)[CH]7C%13=CC=CC=C%13)[CH]2C%14=CC=CC=C%14",
    "meta_data": {
        "InChI": "InChI=1S/3C17H14O.2Pd/c3*18-17(13-11-15-7-3-1-4-8-15)14-12-16-9-5-2-6-10-16;;/h3*1-14H;;",
        "InChIKey": null,
        "Canonical SMILES": "O=C1[CH]2=[CH](C=3C=CC=CC3)[Pd]4562[CH](C=7C=CC=CC7)=[CH]6C(=O)[CH]8=[CH](C=9C=CC=CC9)[Pd]%10%118([CH](C=%12C=CC=CC%12)=[CH]1%10)[CH](C=%13C=CC=CC%13)=[CH]%11C(=O)[CH]5=[CH]4C=%14C=CC=CC%14",
        "Molecular Formula": "C<sub>51</sub>H<sub>42</sub>O<sub>3</sub>Pd<sub>2</sub>",
        "Molecular Mass": "",
        "Melting Point": "120-122 °C"
    }
}