{
    "cas_no": "344-72-9",
    "key_name": "5-Thiazolecarboxylic acid, 2-amino-4-(trifluoromethyl)-, ethyl ester",
    "cn_name": "2-氨基-4-(三溴甲基)-5-噻唑羧酸乙酯;2-氨基-4-(三溴甲基)-5-噻唑羧酸乙酯;",
    "alternate_name": "5-Thiazolecarboxylic acid, 2-amino-4-(trifluoromethyl)-, ethyl ester;NSC 4465;Ethyl 2-amino-4-(trifluoromethyl)thiazole-5-carboxylate;2-Amino-4-(trifluoromethyl)-5-(carbethoxy)thiazole;2-Amino-4-trifluoromethyl-thiazole-5-carboxylic acid ethyl ester",
    "duplicated_cas_no": "",
    "SMILES": "C(F)(F)(F)C1=C(C(OCC)=O)SC(N)=N1",
    "meta_data": {
        "InChI": "InChI=1S/C7H7F3N2O2S/c1-2-14-5(13)3-4(7(8,9)10)12-6(11)15-3/h2H2,1H3,(H2,11,12)",
        "InChIKey": null,
        "Canonical SMILES": "O=C(OCC)C=1SC(=NC1C(F)(F)F)N",
        "Molecular Formula": "C<sub>7</sub>H<sub>7</sub>F<sub>3</sub>N<sub>2</sub>O<sub>2</sub>S",
        "Molecular Mass": "240.20",
        "Melting Point": "168-171 °C"
    }
}