{
    "cas_no": "101-99-5",
    "key_name": "Ethyl <em>N</em>-phenylcarbamate",
    "cn_name": null,
    "alternate_name": "Carbamic acid, <em>N</em>-phenyl-, ethyl ester;Carbanilic acid, ethyl ester;Carbamic acid, phenyl-, ethyl ester;Ethanol, carbanilate;EPC;Ethyl carbanilate;Ethyl phenylcarbamate;Euphorin;Phenylurethan;<em>N</em>-Phenylurethane;Phenylurethane;Ethyl <em>N</em>-phenylcarbamate;Ethyl <em>N</em>-phenylurethan;Ethyl <em>N</em>-phenylurethane;<em>N</em>-(Ethoxycarbonyl)aniline;<em>N</em>-Phenylcarbamic acid ethyl ester;<em>O</em>-Ethyl <em>N</em>-phenylcarbamate;NSC 3245;<em>N</em>-Phenyl-<em>O</em>-ethyl carbamate",
    "duplicated_cas_no": "",
    "SMILES": "N(C(OCC)=O)C1=CC=CC=C1",
    "meta_data": {
        "InChI": "InChI=1S/C9H11NO2/c1-2-12-9(11)10-8-6-4-3-5-7-8/h3-7H,2H2,1H3,(H,10,11)",
        "InChIKey": null,
        "Canonical SMILES": "O=C(OCC)NC=1C=CC=CC1",
        "Molecular Formula": "C<sub>9</sub>H<sub>11</sub>NO<sub>2</sub>",
        "Molecular Mass": "165.19",
        "Boiling Point": "238 °C",
        "Melting Point": "52-53 °C",
        "Density": "1.1064 g/cm³ @ Temp: 20 °C"
    }
}