{
    "cas_no": "17290-70-9",
    "key_name": "Isosinensetin",
    "cn_name": null,
    "alternate_name": "4<em>H</em>-1-Benzopyran-4-one, 2-(3,4-dimethoxyphenyl)-5,7,8-trimethoxy-;Flavone, 3′,4′,5,7,8-pentamethoxy-;2-(3,4-Dimethoxyphenyl)-5,7,8-trimethoxy-4<em>H</em>-1-benzopyran-4-one;Isosinensetin;3′,4′,5,7,8-Pentamethoxyflavone;5,7,8,3′,4′-Pentamethoxyflavone;6-Demethoxynobiletin;2-(3,4-Dimethoxyphenyl)-5,7,8-trimethoxy-4<em>H</em>-chromen-4-one;2-(3,4-Dimethoxyphenyl)-5,7,8-trimethoxychromen-4-one",
    "duplicated_cas_no": "78590-15-5",
    "SMILES": "O(C)C1=C2C(=C(OC)C(OC)=C1)OC(=CC2=O)C3=CC(OC)=C(OC)C=C3",
    "meta_data": {
        "InChI": "InChI=1S/C20H20O7/c1-22-13-7-6-11(8-15(13)23-2)14-9-12(21)18-16(24-3)10-17(25-4)19(26-5)20(18)27-14/h6-10H,1-5H3",
        "InChIKey": null,
        "Canonical SMILES": "O=C1C=C(OC=2C(OC)=C(OC)C=C(OC)C12)C=3C=CC(OC)=C(OC)C3",
        "Molecular Formula": "C<sub>20</sub>H<sub>20</sub>O<sub>7</sub>",
        "Molecular Mass": "372.37",
        "Melting Point": "198-199 °C"
    }
}