{
    "cas_no": "938-75-0",
    "key_name": "Ethyl 3,4-dimethyl-1<em>H</em>-pyrrole-2-carboxylate",
    "cn_name": null,
    "alternate_name": "1<em>H</em>-Pyrrole-2-carboxylic acid, 3,4-dimethyl-, ethyl ester;Pyrrole-2-carboxylic acid, 3,4-dimethyl-, ethyl ester;Ethyl 3,4-dimethyl-1<em>H</em>-pyrrole-2-carboxylate;Ethyl 3,4-dimethylpyrrole-2-carboxylate;2-Carboethoxy-3,4-dimethyl-1<em>H</em>-pyrrole;2-Ethoxycarbonyl-3,4-dimethylpyrrole;5-Ethoxycarbonyl-3,4-dimethylpyrrole;Ethyl 3,4-dimethyl-5-pyrrolecarboxylic acid;2-Ethoxycarbonyl-3,4-dimethyl-1<em>H</em>-pyrrole;3,4-Dimethyl-1<em>H</em>-pyrrole-2-carboxylic acid ethyl ester",
    "duplicated_cas_no": "",
    "SMILES": "C(OCC)(=O)C1=C(C)C(C)=CN1",
    "meta_data": {
        "InChI": "InChI=1S/C9H13NO2/c1-4-12-9(11)8-7(3)6(2)5-10-8/h5,10H,4H2,1-3H3",
        "InChIKey": null,
        "Canonical SMILES": "O=C(OCC)C=1NC=C(C1C)C",
        "Molecular Formula": "C<sub>9</sub>H<sub>13</sub>NO<sub>2</sub>",
        "Molecular Mass": "167.21",
        "Boiling Point": "120-125 °C @ Press: 11 Torr",
        "Melting Point": "96 °C"
    }
}