{
    "cas_no": "37107-50-9",
    "key_name": "2-Cyano-2-cyclohexylideneacetic acid",
    "cn_name": null,
    "alternate_name": "Acetic acid, 2-cyano-2-cyclohexylidene-;Acetic acid, cyanocyclohexylidene-;Δ<sup>1,α</sup>-Cyclohexaneacetic acid, α-cyano-;2-Cyano-2-cyclohexylideneacetic acid;Cyclohexylidenecyanoacetic acid;NSC 124616",
    "duplicated_cas_no": "",
    "SMILES": "C(C(O)=O)(C#N)=C1CCCCC1",
    "meta_data": {
        "InChI": "InChI=1S/C9H11NO2/c10-6-8(9(11)12)7-4-2-1-3-5-7/h1-5H2,(H,11,12)",
        "InChIKey": null,
        "Canonical SMILES": "N#CC(C(=O)O)=C1CCCCC1",
        "Molecular Formula": "C<sub>9</sub>H<sub>11</sub>NO<sub>2</sub>",
        "Molecular Mass": "165.19",
        "Boiling Point": "129-130 °C",
        "Melting Point": "110-110.5 °C",
        "Density": "1.03053 g/cm³ @ Temp: 20.5 °C"
    }
}