{
    "cas_no": "5436-21-5",
    "key_name": "4,4-Dimethoxy-2-butanone",
    "cn_name": "4,4-二甲氧基-2-丁酮;",
    "alternate_name": "2-Butanone, 4,4-dimethoxy-;Acetoacetaldehyde, 1-(dimethyl acetal);4,4-Dimethoxy-2-butanone;Acetoacetaldehyde dimethyl acetal;1,1-Dimethoxy-3-butanone;3-Oxobutyraldehyde dimethyl acetal;β-Oxobutyraldehyde dimethyl acetal;Formylacetone dimethyl acetal;Acetylacetaldehyde dimethyl acetal;3-Oxobutyraldehyde 1-(dimethyl acetal);NSC 21538;NSC 59721;4,4-Dimethoxybutane-2-one",
    "duplicated_cas_no": "",
    "SMILES": "C(CC(C)=O)(OC)OC",
    "meta_data": {
        "InChI": "InChI=1S/C6H12O3/c1-5(7)4-6(8-2)9-3/h6H,4H2,1-3H3",
        "InChIKey": null,
        "Canonical SMILES": "O=C(C)CC(OC)OC",
        "Molecular Formula": "C<sub>6</sub>H<sub>12</sub>O<sub>3</sub>",
        "Molecular Mass": "132.16",
        "Boiling Point": "76-78 °C @ Press: 25 Torr",
        "Melting Point": "0 °C",
        "Density": "0.9895 g/cm³ @ Temp: 25 °C"
    }
}