{
    "cas_no": "3676-85-5",
    "key_name": "4-Aminophthalimide",
    "cn_name": "4-氨基邻苯二甲酰亚胺;4-氨基酞酰亚胺;",
    "alternate_name": "1<em>H</em>-Isoindole-1,3(2<em>H</em>)-dione, 5-amino-;Phthalimide, 4-amino-;5-Amino-1<em>H</em>-isoindole-1,3(2<em>H</em>)-dione;4-Aminophthalimide;NSC 25173;5-Amino-1,3-dioxo-2,3-dihydro-1<em>H</em>-isoindole;5-Aminoisoindoline-1,3-dione;5-Aminoisoindole-1,3-dione",
    "duplicated_cas_no": "",
    "SMILES": "O=C1C=2C(C(=O)N1)=CC=C(N)C2",
    "meta_data": {
        "InChI": "InChI=1S/C8H6N2O2/c9-4-1-2-5-6(3-4)8(12)10-7(5)11/h1-3H,9H2,(H,10,11,12)",
        "InChIKey": null,
        "Canonical SMILES": "O=C1NC(=O)C2=CC(N)=CC=C12",
        "Molecular Formula": "C<sub>8</sub>H<sub>6</sub>N<sub>2</sub>O<sub>2</sub>",
        "Molecular Mass": "162.15",
        "Boiling Point": "268-275 °C @ Press: 9 Torr",
        "Melting Point": "294 °C"
    }
}