{
    "cas_no": "4175-76-2",
    "key_name": "2,4-Dichlorothiazole",
    "cn_name": "2,4-二氯噻唑;",
    "alternate_name": "Thiazole, 2,4-dichloro-;2,4-Dichlorothiazole;2,4-Dichloro-1,3-thiazole",
    "duplicated_cas_no": "",
    "SMILES": "ClC=1N=C(Cl)SC1",
    "meta_data": {
        "InChI": "InChI=1S/C3HCl2NS/c4-2-1-7-3(5)6-2/h1H",
        "InChIKey": null,
        "Canonical SMILES": "ClC1=NC(Cl)=CS1",
        "Molecular Formula": "C<sub>3</sub>HCl<sub>2</sub>NS",
        "Molecular Mass": "154.02",
        "Boiling Point": "184 °C",
        "Melting Point": "42-43 °C"
    }
}