{
    "cas_no": "1570-48-5",
    "key_name": "3-Propionylpyridine",
    "cn_name": "3-丙酰基吡啶;3-丙酰基吡啶;3-丙酰吡啶;3-丙酰吡啶, 98+%;1-(3-吡啶基)丙-1-酮;3-吡啶基乙基酮;",
    "alternate_name": "1-Propanone, 1-(3-pyridinyl)-;1-Propanone, 1-(3-pyridyl)-;1-(3-Pyridinyl)-1-propanone;3-Propionylpyridine;3-Pyridyl ethyl ketone;Ethyl 3-pyridyl ketone;1-(3-Pyridyl)-1-propanone;1-Pyridin-3-ylpropan-1-one",
    "duplicated_cas_no": "",
    "SMILES": "C(CC)(=O)C=1C=CC=NC1",
    "meta_data": {
        "InChI": "InChI=1S/C8H9NO/c1-2-8(10)7-4-3-5-9-6-7/h3-6H,2H2,1H3",
        "InChIKey": null,
        "Canonical SMILES": "O=C(C=1C=NC=CC1)CC",
        "Molecular Formula": "C<sub>8</sub>H<sub>9</sub>NO",
        "Molecular Mass": "135.16",
        "Boiling Point": "109-112 °C @ Press: 10 Torr",
        "Melting Point": "174 °C"
    }
}