{
    "cas_no": "26156-51-4",
    "key_name": "4-Pyridinecarboxylic acid, 2-methoxy-, methyl ester",
    "cn_name": null,
    "alternate_name": "4-Pyridinecarboxylic acid, 2-methoxy-, methyl ester;Isonicotinic acid, 2-methoxy-, methyl ester;Methyl 2-methoxy-4-pyridinecarboxylate;Methyl 2-methoxyisonicotinate;2-Methoxyisonicotinic acid methyl ester",
    "duplicated_cas_no": "",
    "SMILES": "C(OC)(=O)C=1C=C(OC)N=CC1",
    "meta_data": {
        "InChI": "InChI=1S/C8H9NO3/c1-11-7-5-6(3-4-9-7)8(10)12-2/h3-5H,1-2H3",
        "InChIKey": null,
        "Canonical SMILES": "O=C(OC)C=1C=CN=C(OC)C1",
        "Molecular Formula": "C<sub>8</sub>H<sub>9</sub>NO<sub>3</sub>",
        "Molecular Mass": "167.16",
        "Boiling Point": "120 °C @ Press: 1 Torr",
        "Melting Point": "33-35 °C"
    }
}