{
    "cas_no": "1615-02-7",
    "key_name": "4-Chlorocinnamic acid",
    "cn_name": "4-氯肉桂酸;对氯肉桂酸;",
    "alternate_name": "2-Propenoic acid, 3-(4-chlorophenyl)-;Cinnamic acid, <em>p</em>-chloro-;3-(4-Chlorophenyl)-2-propenoic acid;<em>p</em>-Chlorocinnamic acid;4-Chlorocinnamic acid;3-(<em>p</em>-Chlorophenyl)acrylic acid;3-(4-Chlorophenyl)propenoic acid;3-(4-Chlorophenyl)acrylic acid;NSC 1509;NSC 2756",
    "duplicated_cas_no": "",
    "SMILES": "C(=CC(O)=O)C1=CC=C(Cl)C=C1",
    "meta_data": {
        "InChI": "InChI=1S/C9H7ClO2/c10-8-4-1-7(2-5-8)3-6-9(11)12/h1-6H,(H,11,12)",
        "InChIKey": null,
        "Canonical SMILES": "O=C(O)C=CC1=CC=C(Cl)C=C1",
        "Molecular Formula": "C<sub>9</sub>H<sub>7</sub>ClO<sub>2</sub>",
        "Molecular Mass": "182.60",
        "Melting Point": "248 °C"
    }
}