{
    "cas_no": "76783-59-0",
    "key_name": "Benzoic acid, 3-(trifluoromethyl)-, ethyl ester",
    "cn_name": "3-(三氟甲基)苯甲酸乙酯;",
    "alternate_name": "Benzoic acid, 3-(trifluoromethyl)-, ethyl ester;Ethyl 3-(trifluoromethyl)benzoate;Ethyl <em>m</em>-(trifluoromethyl)benzoate;3-(Trifluoromethyl)benzoic acid ethyl ester",
    "duplicated_cas_no": "",
    "SMILES": "C(OCC)(=O)C1=CC(C(F)(F)F)=CC=C1",
    "meta_data": {
        "InChI": "InChI=1S/C10H9F3O2/c1-2-15-9(14)7-4-3-5-8(6-7)10(11,12)13/h3-6H,2H2,1H3",
        "InChIKey": null,
        "Canonical SMILES": "O=C(OCC)C1=CC=CC(=C1)C(F)(F)F",
        "Molecular Formula": "C<sub>10</sub>H<sub>9</sub>F<sub>3</sub>O<sub>2</sub>",
        "Molecular Mass": "218.17",
        "Boiling Point": "28-29 °C @ Press: 0.19 Torr"
    }
}