{
    "cas_no": "961-38-6",
    "key_name": "2,4,6-Tris(1,1-dimethylethyl)benzenamine",
    "cn_name": "2,4,6-三叔丁基苯胺;",
    "alternate_name": "Benzenamine, 2,4,6-tris(1,1-dimethylethyl)-;Aniline, 2,4,6-tri-<em>tert</em>-butyl-;2,4,6-Tris(1,1-dimethylethyl)benzenamine;2,4,6-Tri-<em>tert</em>-butylaniline;2,4,6-Tris(<em>tert</em>-butyl)aniline;2,4,6-Tritert-butylaniline",
    "duplicated_cas_no": "594839-01-7",
    "SMILES": "C(C)(C)(C)C1=C(N)C(C(C)(C)C)=CC(C(C)(C)C)=C1",
    "meta_data": {
        "InChI": "InChI=1S/C18H31N/c1-16(2,3)12-10-13(17(4,5)6)15(19)14(11-12)18(7,8)9/h10-11H,19H2,1-9H3",
        "InChIKey": null,
        "Canonical SMILES": "NC=1C(=CC(=CC1C(C)(C)C)C(C)(C)C)C(C)(C)C",
        "Molecular Formula": "C<sub>18</sub>H<sub>31</sub>N",
        "Molecular Mass": "261.45",
        "Melting Point": "144.5-145.5 °C"
    }
}