{
    "cas_no": "5263-87-6",
    "key_name": "6-Methoxyquinoline",
    "cn_name": "6-甲氧基喹啉;",
    "alternate_name": "Quinoline, 6-methoxy-;6-Methoxyquinoline;NSC 1954",
    "duplicated_cas_no": "",
    "SMILES": "O(C)C1=CC2=C(C=C1)N=CC=C2",
    "meta_data": {
        "InChI": "InChI=1S/C10H9NO/c1-12-9-4-5-10-8(7-9)3-2-6-11-10/h2-7H,1H3",
        "InChIKey": null,
        "Canonical SMILES": "N=1C=CC=C2C=C(OC)C=CC12",
        "Molecular Formula": "C<sub>10</sub>H<sub>9</sub>NO",
        "Molecular Mass": "159.18",
        "Boiling Point": "306 °C",
        "Melting Point": "26.5 °C",
        "Density": "1.000 g/cm³ @ Temp: 20 °C"
    }
}