{
    "cas_no": "638-10-8",
    "key_name": "Ethyl 3,3-dimethylacrylate",
    "cn_name": "3-甲基-2-丁烯酸乙酯;3,3-二甲基丙烯酸乙酯;千里酸乙酯;",
    "alternate_name": "2-Butenoic acid, 3-methyl-, ethyl ester;Crotonic acid, 3-methyl-, ethyl ester;Senecioic acid, ethyl ester;Ethyl isopropylideneacetate;Ethyl senecioate;Ethyl β,β-dimethylacrylate;Ethyl 3-methylcrotonate;Ethyl 3-methyl-2-butenoate;Ethyl dimethylacrylate;Ethyl 3,3-dimethylacrylate;Ethyl isobutenoate;Ethyl β-methylcrotonate;NSC 61853;NSC 99208;3-Methyl-2-butenoic acid ethyl ester;3,3-Dimethylacrylic acid ethyl ester",
    "duplicated_cas_no": "",
    "SMILES": "C(C(OCC)=O)=C(C)C",
    "meta_data": {
        "InChI": "InChI=1S/C7H12O2/c1-4-9-7(8)5-6(2)3/h5H,4H2,1-3H3",
        "InChIKey": null,
        "Canonical SMILES": "O=C(OCC)C=C(C)C",
        "Molecular Formula": "C<sub>7</sub>H<sub>12</sub>O<sub>2</sub>",
        "Molecular Mass": "128.17",
        "Boiling Point": "153.5 °C",
        "Melting Point": "153-154 °C",
        "Density": "0.9171 g/cm³ @ Temp: 15 °C"
    }
}