{
    "cas_no": "22775-37-7",
    "key_name": "3,5-Dichloro-2-methoxybenzoic acid",
    "cn_name": null,
    "alternate_name": "Benzoic acid, 3,5-dichloro-2-methoxy-;<em>o</em>-Anisic acid, 3,5-dichloro-;3,5-Dichloro-2-methoxybenzoic acid;Salicyn (growth stimulant);2-Methoxy-3,5-dichlorobenzoic acid",
    "duplicated_cas_no": "",
    "SMILES": "O(C)C1=C(C(O)=O)C=C(Cl)C=C1Cl",
    "meta_data": {
        "InChI": "InChI=1S/C8H6Cl2O3/c1-13-7-5(8(11)12)2-4(9)3-6(7)10/h2-3H,1H3,(H,11,12)",
        "InChIKey": null,
        "Canonical SMILES": "O=C(O)C=1C=C(Cl)C=C(Cl)C1OC",
        "Molecular Formula": "C<sub>8</sub>H<sub>6</sub>Cl<sub>2</sub>O<sub>3</sub>",
        "Molecular Mass": "221.04",
        "Melting Point": "166-167 °C"
    }
}