{
    "cas_no": "1306-19-0",
    "key_name": "Cadmium oxide",
    "cn_name": null,
    "alternate_name": "Cadmium oxide (CdO);Cadmium oxide;Cadmium monoxide;Cadmia",
    "duplicated_cas_no": "1436666-97-5;2485700-58-9;2641128-84-7",
    "SMILES": "[Cd]=O",
    "meta_data": {
        "InChI": "InChI=1S/Cd.O",
        "InChIKey": null,
        "Canonical SMILES": "O=[Cd]",
        "Molecular Formula": "CdO",
        "Molecular Mass": "",
        "Melting Point": "1230 °C",
        "Density": "8.15 g/cm³"
    }
}