{
    "cas_no": "59576-26-0",
    "key_name": "2-Acetyl-4-methylpyridine",
    "cn_name": "2-乙酰-4-甲基吡啶;",
    "alternate_name": "Ethanone, 1-(4-methyl-2-pyridinyl)-;Ketone, methyl 4-methyl-2-pyridyl;1-(4-Methyl-2-pyridinyl)ethanone;2-Acetyl-4-methylpyridine;1-(4-Methyl-2-pyridyl)-1-ethanone;4-Methyl-2-acetylpyridine;1-(4-Methylpyridin-2-yl)ethanone;1-(4-Methylpyridin-2-yl)ethan-1-one",
    "duplicated_cas_no": "",
    "SMILES": "C(C)(=O)C1=CC(C)=CC=N1",
    "meta_data": {
        "InChI": "InChI=1S/C8H9NO/c1-6-3-4-9-8(5-6)7(2)10/h3-5H,1-2H3",
        "InChIKey": null,
        "Canonical SMILES": "O=C(C1=NC=CC(=C1)C)C",
        "Molecular Formula": "C<sub>8</sub>H<sub>9</sub>NO",
        "Molecular Mass": "135.16",
        "Boiling Point": "95-97 °C @ Press: 15 Torr",
        "Melting Point": "33-34 °C"
    }
}