{
    "cas_no": "104104-50-9",
    "key_name": "Gabazine",
    "cn_name": null,
    "alternate_name": "1(6<em>H</em>)-Pyridazinebutanoic acid, 6-imino-3-(4-methoxyphenyl)-, hydrobromide (1:1);1(6<em>H</em>)-Pyridazinebutanoic acid, 6-imino-3-(4-methoxyphenyl)-, monohydrobromide;SR 95531;Gabazine",
    "duplicated_cas_no": "",
    "SMILES": "C(CCC(O)=O)N1N=C(C=CC1=N)C2=CC=C(OC)C=C2.Br",
    "meta_data": {
        "InChI": "InChI=1S/C15H17N3O3.BrH/c1-21-12-6-4-11(5-7-12)13-8-9-14(16)18(17-13)10-2-3-15(19)20;/h4-9,16H,2-3,10H2,1H3,(H,19,20);1H",
        "InChIKey": null,
        "Canonical SMILES": "Br.O=C(O)CCCN1N=C(C=CC1=N)C=2C=CC(OC)=CC2",
        "Molecular Formula": "C<sub>15</sub>H<sub>17</sub>N<sub>3</sub>O<sub>3</sub>.BrH",
        "Molecular Mass": "",
        "Melting Point": "200 °C"
    }
}