{
    "cas_no": "4053-34-3",
    "key_name": "6-Methylquinolin-2(1<em>H</em>)-one",
    "cn_name": null,
    "alternate_name": "2(1<em>H</em>)-Quinolinone, 6-methyl-;Carbostyril, 6-methyl-;6-Methyl-2(1<em>H</em>)-quinolinone;6-Methyl-2-hydroxyquinoline;6-Methylcarbostyril;6-Methyl-1<em>H</em>-quinolin-2-one;6-Methylquinolin-2(1<em>H</em>)-one",
    "duplicated_cas_no": "23832-81-7",
    "SMILES": "CC=1C=C2C(NC(=O)C=C2)=CC1",
    "meta_data": {
        "InChI": "InChI=1S/C10H9NO/c1-7-2-4-9-8(6-7)3-5-10(12)11-9/h2-6H,1H3,(H,11,12)",
        "InChIKey": null,
        "Canonical SMILES": "O=C1C=CC=2C=C(C=CC2N1)C",
        "Molecular Formula": "C<sub>10</sub>H<sub>9</sub>NO",
        "Molecular Mass": "159.18",
        "Melting Point": "233 °C"
    }
}