{
    "cas_no": "5135-30-8",
    "key_name": "Adenosine, 5′-(4-methylbenzenesulfonate)",
    "cn_name": "5\"-对甲苯磺酸腺苷;",
    "alternate_name": "Adenosine, 5′-(4-methylbenzenesulfonate);Adenosine, 5′-<em>p</em>-toluenesulfonate;5′-Tosyladenosine;5′-<em>O</em>-Tosyladenosine;5′-<em>O</em>-Toluenesulfonyladenosine",
    "duplicated_cas_no": "",
    "SMILES": "O[C@H]1[C@H](N2C=3C(N=C2)=C(N)N=CN3)O[C@H](COS(=O)(=O)C4=CC=C(C)C=C4)[C@H]1O",
    "meta_data": {
        "InChI": "InChI=1S/C17H19N5O6S/c1-9-2-4-10(5-3-9)29(25,26)27-6-11-13(23)14(24)17(28-11)22-8-21-12-15(18)19-7-20-16(12)22/h2-5,7-8,11,13-14,17,23-24H,6H2,1H3,(H2,18,19,20)/t11-,13-,14-,17-/m1/s1",
        "InChIKey": null,
        "Canonical SMILES": "O=S(=O)(OCC1OC(N2C=NC=3C(=NC=NC32)N)C(O)C1O)C4=CC=C(C=C4)C",
        "Molecular Formula": "C<sub>17</sub>H<sub>19</sub>N<sub>5</sub>O<sub>6</sub>S",
        "Molecular Mass": "421.43",
        "Melting Point": "152 °C"
    }
}