{
    "cas_no": "3697-42-5",
    "key_name": "Chlorhexidine hydrochloride",
    "cn_name": "盐酸氯己定;盐酸洗必泰;1,1\"-己基双[5-(对氯苯基)双胍]盐酸盐;",
    "alternate_name": "2,4,11,13-Tetraazatetradecanediimidamide, <em>N</em><sup>1</sup>,<em>N</em><sup>14</sup>-bis(4-chlorophenyl)-3,12-diimino-, hydrochloride (1:2);Biguanide, 1,1′-hexamethylenebis[5-(<em>p</em>-chlorophenyl)-, dihydrochloride;2,4,11,13-Tetraazatetradecanediimidamide, <em>N</em>,<em>N</em>′′-bis(4-chlorophenyl)-3,12-diimino-, dihydrochloride;AY 5312;Chlorhexidine dihydrochloride;1,1′-Hexamethylenebis[5-(<em>p</em>-chlorophenyl)biguanide] dihydrochloride;Chlorhexidine hydrochloride;Chlorhexidinium dichloride;Arlacide H;Lisium;Sebidin;Catedgel",
    "duplicated_cas_no": "",
    "SMILES": "N(C(NC(NCCCCCCNC(NC(NC1=CC=C(Cl)C=C1)=N)=N)=N)=N)C2=CC=C(Cl)C=C2.Cl",
    "meta_data": {
        "InChI": "InChI=1S/C22H30Cl2N10.2ClH/c23-15-5-9-17(10-6-15)31-21(27)33-19(25)29-13-3-1-2-4-14-30-20(26)34-22(28)32-18-11-7-16(24)8-12-18;;/h5-12H,1-4,13-14H2,(H5,25,27,29,31,33)(H5,26,28,30,32,34);2*1H",
        "InChIKey": null,
        "Canonical SMILES": "Cl.ClC1=CC=C(C=C1)NC(=N)NC(=N)NCCCCCCNC(=N)NC(=N)NC2=CC=C(Cl)C=C2",
        "Molecular Formula": "C<sub>22</sub>H<sub>30</sub>Cl<sub>2</sub>N<sub>10</sub>.2ClH",
        "Molecular Mass": "",
        "Melting Point": "257-258 °C"
    }
}