{
    "cas_no": "36077-41-5",
    "key_name": "Leucylisoleucine",
    "cn_name": null,
    "alternate_name": "<span class=\"text-smallcaps\">L</smallcap>-Isoleucine, <smallcap>L</span>-leucyl-;<span class=\"text-smallcaps\">L</smallcap>-Isoleucine, <em>N</em>-<smallcap>L</span>-leucyl-;<span class=\"text-smallcaps\">L</smallcap>-Leucyl-<smallcap>L</span>-isoleucine;Leucylisoleucine;165: PN: WO2011146121 PAGE: 117 claimed sequence",
    "duplicated_cas_no": "",
    "SMILES": "[C@H](NC([C@H](CC(C)C)N)=O)([C@H](CC)C)C(O)=O",
    "meta_data": {
        "InChI": "InChI=1S/C12H24N2O3/c1-5-8(4)10(12(16)17)14-11(15)9(13)6-7(2)3/h7-10H,5-6,13H2,1-4H3,(H,14,15)(H,16,17)/t8-,9-,10-/m0/s1",
        "InChIKey": null,
        "Canonical SMILES": "O=C(O)C(NC(=O)C(N)CC(C)C)C(C)CC",
        "Molecular Formula": "C<sub>12</sub>H<sub>24</sub>N<sub>2</sub>O<sub>3</sub>",
        "Molecular Mass": "244.33",
        "Melting Point": "279-280 °C"
    }
}