{
    "cas_no": "19064-69-8",
    "key_name": "1-Phthalazinamine",
    "cn_name": null,
    "alternate_name": "1-Phthalazinamine;Phthalazine, 1-amino-;1-Aminophthalazine",
    "duplicated_cas_no": "",
    "SMILES": "NC=1C2=C(C=NN1)C=CC=C2",
    "meta_data": {
        "InChI": "InChI=1S/C8H7N3/c9-8-7-4-2-1-3-6(7)5-10-11-8/h1-5H,(H2,9,11)",
        "InChIKey": null,
        "Canonical SMILES": "N=1N=C(N)C=2C=CC=CC2C1",
        "Molecular Formula": "C<sub>8</sub>H<sub>7</sub>N<sub>3</sub>",
        "Molecular Mass": "145.16",
        "Melting Point": "211 °C (sublm)"
    }
}