{
    "cas_no": "6705-33-5",
    "key_name": "2-Pyrazinemethanol",
    "cn_name": "2-羟甲基吡嗪;",
    "alternate_name": "2-Pyrazinemethanol;Pyrazinemethanol;2-(Hydroxymethyl)pyrazine;(Hydroxymethyl)pyrazine;Pyrazin-2-ylmethanol",
    "duplicated_cas_no": "",
    "SMILES": "C(O)C=1C=NC=CN1",
    "meta_data": {
        "InChI": "InChI=1S/C5H6N2O/c8-4-5-3-6-1-2-7-5/h1-3,8H,4H2",
        "InChIKey": null,
        "Canonical SMILES": "OCC1=NC=CN=C1",
        "Molecular Formula": "C<sub>5</sub>H<sub>6</sub>N<sub>2</sub>O",
        "Molecular Mass": "110.11",
        "Boiling Point": "64-66 °C @ Press: 0.3 Torr"
    }
}