{
    "cas_no": "613-06-9",
    "key_name": "2,3-Dimethylanthracene",
    "cn_name": "2,3-二甲基蒽;",
    "alternate_name": "Anthracene, 2,3-dimethyl-;2,3-Dimethylanthracene",
    "duplicated_cas_no": "",
    "SMILES": "CC1=CC2=C(C=C3C(=C2)C=CC=C3)C=C1C",
    "meta_data": {
        "InChI": "InChI=1S/C16H14/c1-11-7-15-9-13-5-3-4-6-14(13)10-16(15)8-12(11)2/h3-10H,1-2H3",
        "InChIKey": null,
        "Canonical SMILES": "C=1C=CC2=CC3=CC(=C(C=C3C=C2C1)C)C",
        "Molecular Formula": "C<sub>16</sub>H<sub>14</sub>",
        "Molecular Mass": "206.28",
        "Melting Point": "252 °C"
    }
}