{
    "cas_no": "1516-96-7",
    "key_name": "5-Bromo-1,3-bis(1,1-dimethylethyl)-2-methoxybenzene",
    "cn_name": "4-溴-2,6-二叔丁基苯甲醚;",
    "alternate_name": "Benzene, 5-bromo-1,3-bis(1,1-dimethylethyl)-2-methoxy-;Anisole, 4-bromo-2,6-di-<em>tert</em>-butyl-;5-Bromo-1,3-bis(1,1-dimethylethyl)-2-methoxybenzene;4-Bromo-2,6-di-<em>tert</em>-butylanisole;1-Bromo-4-methoxy-3,5-di-<em>tert</em>-butylbenzene;3,5-Di-<em>tert</em>-butyl-4-methoxybromobenzene;5-Bromo-1,3-di(<em>tert</em>-butyl)-2-methoxybenzene;1-Bromo-3,5-di-<em>tert</em>-butyl-4-methoxybenzene;4-Methoxy-3,5-di(<em>tert</em>-butyl)bromobenzene;5-Bromo-2-methoxy-1,3-di-<em>tert</em>-butylbenzene",
    "duplicated_cas_no": "",
    "SMILES": "O(C)C1=C(C(C)(C)C)C=C(Br)C=C1C(C)(C)C",
    "meta_data": {
        "InChI": "InChI=1S/C15H23BrO/c1-14(2,3)11-8-10(16)9-12(13(11)17-7)15(4,5)6/h8-9H,1-7H3",
        "InChIKey": null,
        "Canonical SMILES": "BrC=1C=C(C(OC)=C(C1)C(C)(C)C)C(C)(C)C",
        "Molecular Formula": "C<sub>15</sub>H<sub>23</sub>BrO",
        "Molecular Mass": "299.25",
        "Melting Point": "49-50 °C"
    }
}