{
    "cas_no": "594-82-1",
    "key_name": "2,2,3,3-Tetramethylbutane",
    "cn_name": "2,2,3,3-四甲基丁烷;",
    "alternate_name": "Butane, 2,2,3,3-tetramethyl-;2,2,3,3-Tetramethylbutane;Ethane, hexamethyl-;Hexamethylethane;Tetramethylbutane;NSC 62039",
    "duplicated_cas_no": "",
    "SMILES": "C(C(C)(C)C)(C)(C)C",
    "meta_data": {
        "InChI": "InChI=1S/C8H18/c1-7(2,3)8(4,5)6/h1-6H3",
        "InChIKey": null,
        "Canonical SMILES": "CC(C)(C)C(C)(C)C",
        "Molecular Formula": "C<sub>8</sub>H<sub>18</sub>",
        "Molecular Mass": "114.23",
        "Boiling Point": "106.4 °C",
        "Melting Point": "100.7 °C",
        "Density": "0.823 g/cm³ @ Temp: 23 °C"
    }
}