{
    "cas_no": "1709-44-0",
    "key_name": "3-Aminobenzaldehyde",
    "cn_name": "3-氨基苯甲醛;间氨基苯甲醛;m-氨基苯甲醛;",
    "alternate_name": "Benzaldehyde, 3-amino-;Benzaldehyde, <em>m</em>-amino-;3-Aminobenzaldehyde;<em>m</em>-Aminobenzaldehyde;3-Formylaniline;NSC 36957",
    "duplicated_cas_no": "",
    "SMILES": "C(=O)C1=CC(N)=CC=C1",
    "meta_data": {
        "InChI": "InChI=1S/C7H7NO/c8-7-3-1-2-6(4-7)5-9/h1-5H,8H2",
        "InChIKey": null,
        "Canonical SMILES": "O=CC=1C=CC=C(N)C1",
        "Molecular Formula": "C<sub>7</sub>H<sub>7</sub>NO",
        "Molecular Mass": "121.14",
        "Melting Point": "28-30 °C"
    }
}