{
    "cas_no": "3913-81-3",
    "key_name": "(<em>E</em>)-2-Decenal",
    "cn_name": null,
    "alternate_name": "2-Decenal, (2<em>E</em>)-;2-Decenal, (<em>E</em>)-;(2<em>E</em>)-2-Decenal;<em>trans</em>-2-Decenal;2(<em>E</em>)-Decenal;<em>trans</em>-2-Decen-1-al;(<em>E</em>)-2-Decenal",
    "duplicated_cas_no": "",
    "SMILES": "C(CCCCC)C/C=C/C=O",
    "meta_data": {
        "InChI": "InChI=1S/C10H18O/c1-2-3-4-5-6-7-8-9-10-11/h8-10H,2-7H2,1H3/b9-8+",
        "InChIKey": null,
        "Canonical SMILES": "O=CC=CCCCCCCC",
        "Molecular Formula": "C<sub>10</sub>H<sub>18</sub>O",
        "Molecular Mass": "154.25",
        "Boiling Point": "117-119 °C @ Press: 22 Torr",
        "Density": "0.835 g/cm³ @ Temp: 20 °C; Press: 760 Torr"
    }
}