{
    "cas_no": "5968-70-7",
    "key_name": "Acetyl-β-boswellic acid",
    "cn_name": null,
    "alternate_name": "Urs-12-en-23-oic acid, 3-(acetyloxy)-, (3α,4β)-;Urs-12-en-24-oic acid, 3α-hydroxy-, acetate;(3α,4β)-3-(Acetyloxy)urs-12-en-23-oic acid;β-Boswellic acid acetate;Acetyl-β-boswellic acid;3α-Acetoxyurs-12-en-24-oic acid;3-Acetyl-β-boswellic acid;3α-Acetyl-β-boswellic acid;3-<em>O</em>-Acetyl-β-boswellic acid",
    "duplicated_cas_no": "1285527-38-9",
    "SMILES": "C[C@]12[C@@]([C@]3(C)[C@@](CC1)([C@](C(O)=O)(C)[C@H](OC(C)=O)CC3)[H])(CC=C4[C@@]2(C)CC[C@]5(C)[C@]4([C@@H](C)[C@H](C)CC5)[H])[H]",
    "meta_data": {
        "InChI": "InChI=1S/C32H50O4/c1-19-11-14-28(4)17-18-30(6)22(26(28)20(19)2)9-10-23-29(5)15-13-25(36-21(3)33)32(8,27(34)35)24(29)12-16-31(23,30)7/h9,19-20,23-26H,10-18H2,1-8H3,(H,34,35)/t19-,20+,23-,24-,25-,26+,28-,29-,30-,31-,32-/m1/s1",
        "InChIKey": null,
        "Canonical SMILES": "O=C(OC1CCC2(C)C(CCC3(C)C2CC=C4C5C(C)C(C)CCC5(C)CCC43C)C1(C(=O)O)C)C",
        "Molecular Formula": "C<sub>32</sub>H<sub>50</sub>O<sub>4</sub>",
        "Molecular Mass": "498.74",
        "Melting Point": "271 °C"
    }
}