{
    "cas_no": "9011-13-6",
    "key_name": "Maleic anhydride-styrene copolymer",
    "cn_name": null,
    "alternate_name": "2,5-Furandione, polymer with ethenylbenzene;Maleic anhydride, polymer with styrene;Styrene, polymer with maleic anhydride;Benzene, ethenyl-, polymer with 2,5-furandione;Styrene-maleic anhydride copolymer;Styrene-maleic anhydride resin;Povimal ST;Styrene-maleic anhydride polymer;Lytron 822;Styromal;Lytron 810;Maleic anhydride-styrene polymers;SMA 3000A;LPA 39;SMA 1725A;Maleic anhydride-styrene polymer;SMA 4000A;SMA 1420Al;Dylark 231;SMA 2000A;Styromal 5;Dylark 230;SMA 2000;Styromal 30;SMA (styrene polymer);SMA;SMAC-A;Dylark 238;Dylark 111;Dylark 332;Dytherm X 214;Lytron 812;Matilit CM 2L;Styrene-maleic acid anhydride copolymer;Dylark DKB 290;DKB 218;DKB 218-2;DKB 1116;DKB 1117;Romstiral C 1;Dylark 290;Dylark 322;Umastat S;Arastar 700;Maleic acid anhydride-styrene copolymer;Moremax UG 430;Moremax UG 830;Moremax UG 460;Dytherm M 214;Dylark 132;Maleic anhydride-styrene copolymer;Ecran PE;MSX 2000;Moremax VG 830;UG 460;Dylark 378P20;Dylark 2000FG;Dylark DPN 9207A;Admast 1000;Stapron SM 200;Dylark 232-82;Zelan 338;Moremax UG 461;Dylark 480;GSM 505;Dylark D 332;GSM 503;UG 461;Poly(styrene-co-maleic anhydride);Dylark 387;2,5-Furandione-styrene copolymer;GSM 1002;XSMA 15000;XSMA 10000;Rheobuild 3040;Rheobuild 3520;GSM 601;GSM 151;GSM 1001;UG 640;Dylark 480P16;GSM 101;GSM 1004;SAM 1000;Poly(styrene-maleic anhydride);Stapron SZ 28110;Risug;KS-I;Styrite HS 1;D 232;SMA 3000;Dylark 332/80;SMA 3000P;Admast 3000;GSM 301;Stapron SZ 34080;SZ 26080;SZ 34080;ER 30;ER 30 (vinyl polymer);KS 1;SZ 22110;KS 1 (syntan);SMA-EF 30;SMA 2000P;Dylark 481;Stapron S-SM 300;Polymaron KS 1570;EF 40;SMA-EF 40;SMA 8097;GSM 803;Leumal 501L100;KS 153;KS 100;KS 100 (polymer);D 332;Smartan 3000;Smartan 2000;Smartan 1000;SMA 212;SMA 1737;KS;KS (retanning agent);SMA 1440-20;Benma 218;GSM 602;GSM 603;SMA 1000P;MPC 1555;S 67;S 67 (styrene polymer);SMA 1000F;SMA 520;Sartomer SMA EF-40;RV 89;RV 11;SEA 0579;Scripset 745;Cadon DMC 250;SMA Resin 1000P;SMA 4000;Sartomer EF 40;Xiran SZ 26080;Xiran SZ 22065;SMA-EF 60;Sartomer SMA-EF 60;Sartomer SMA 2000;SB 401;SB 401 (vinyl polymer);218HF;SMA-EF 80;SMA 3840F;EF 60;Sartomer SMA 1000F;RX 04;SMA Base Resin 3000;SMA 380;Xiran SZ 22110;Dylark FG 7300;SMA 3024;SMA 426946;SMA 2000F;SMA Resin EF 60;SMA 2021;SMA-SZ 26180;Styrene-maleic anhydride-pyrene copolymer;M 14;M 14 (vinyl polymer);SMA 2021P;Entel 2612SMA;SMA 3000F;Xiran SZ 26180;Xiran SZ 26120;Xiran SM 200;Xiran SM 300;Xiran SG 224;Xiran SG 320;RY 16;TP 38;MPC 1501R;Resit SM 101;BF 80;Xiran SZ 23110;Xiran SZ 28110;SMA 308;KT 2;Xiran SZ 08250;Xiran SZ 23001;Xiran SZ 28065;Xiran 28065;SZ 28065;SZ 08250;EF 30;SZ 26120;Xiran SZ 25010;SSD 5-218;SMA 210;PRO 20783;PRO 20784;Xiran XZ 09-004;Xiran XZ 09-002;SZ 28110;Maleic anhydride-styrene copolymer dodecylamine salt;CR 107;DST;SMA 700;DST (vinyl polymer);Xiran SMA 28110;SMA 40001;SMA 5000;Xiran SZ 15170;SMA 9001;SZ 23110;Xiran SE 700;Xiran SZ 1570;Xiran 26080;SMA-E 60;SMA-E 40;4M/SSD5-214;Trupotan WRT;SMA 1440K;Tanintan OT-Z;Xiran SZ 40005;SZ 33030;Xiran SP 40005;SMA 100P;EF 80;Xeran H 22;Xiran 30010;Xiran SZ 8250;C 400;Xiran SZ 15010;SMA-EF 40P;EF 1000;SZ 40005;SZ 40010;Xiran 15170;Xibond 100;SMA-EF 30P;SMA-SZ 26080;4000P;Scripset 1000SMA;SA 714;SMA 725;SMA 020;Xibond 120;Xibond 140;Xibond 180;SMA 900;3000P;SZ 25010;SZ 30010;Xiran SZ 30010;Xiran 40005;Maleic anhydride-styrene compolymer;SMA 28;SMA 12;X 250;X 180;Xiran SP 10010;SMA 17352F;SMA 238;Xibond 160;SMA 700R50;Lipodisq;Xiran 1000H;Xiran EF 30;Xiran EF 40;Xiran EF 60;Xiran EF 80;Maleic anyhydride-styrene copolymer;SMA 015;YF 652;Xiran EF 10;YE 8835;Dow 3364;SMA 3000P1;Xiran S 90010;Xiran 1000P;Xiran SO 23110;Xiran 3000;Xiran 2000;Xiran 4000;Xiran 1000;Polyscope 2025;SMA 6000;SMA 800;Xiran SO 26080;Xiran 2000P;HWSMA-Z 10;HWSMA-Z 06;HWSMA-Z 03;SZ 10010;Xibond 250;SMA 500;SMA 510;SMA 701A;Xibond 2025;SZ 15170;Xibond 125;SMA 200 (polymer);SMA 200;EF 60P;EF 20 (vinyl polymer);EF 20;Xiran 23110;SMA 7000;SMA 50 (polymer);SMA 50;Xiran 6000;Xiran 9000;Xiran 3000P;Xiran 1440H;R 00;Coace KS 01;Xibond 280;SMA 725K;RL 44;Xiran 3500;SMA 125",
    "duplicated_cas_no": "12656-13-2;27101-47-9;37336-66-6;39287-85-9;50883-91-5;78321-27-4;81843-49-4;109768-17-4;178412-10-7;183076-29-1;945674-41-9;1202061-98-0;1211280-79-3;1241946-58-6;1315245-92-1;1621099-09-9;1621099-12-4;1802075-35-9;1919812-69-3;2040296-02-2;2250157-01-6;2374203-76-4;2892257-98-4;2989885-89-2",
    "SMILES": "O=C1OC(=O)C=C1.C(=C)C1=CC=CC=C1",
    "meta_data": {
        "InChI": "InChI=1S/C8H8.C4H2O3/c1-2-8-6-4-3-5-7-8;5-3-1-2-4(6)7-3/h2-7H,1H2;1-2H",
        "InChIKey": null,
        "Canonical SMILES": "O=C1OC(=O)C=C1.C=CC=1C=CC=CC1",
        "Molecular Formula": "(C<sub>8</sub>H<sub>8</sub>.C<sub>4</sub>H<sub>2</sub>O<sub>3</sub>)<sub>x</sub>",
        "Molecular Mass": "",
        "Melting Point": "75-100 °C"
    }
}