{
    "cas_no": "9006-26-2",
    "key_name": "Ethylene-maleic anhydride copolymer",
    "cn_name": "马来酸酐改性的聚乙烯;",
    "alternate_name": "2,5-Furandione, polymer with ethene;Maleic anhydride, polymer with ethylene;Ethylene, polymer with maleic anhydride;Ethene, polymer with 2,5-furandione;Ethylene-maleic anhydride polymer;Maleic anhydride-ethylene copolymer;EMA 11;EMA 21;EMA 71;Maleic anhydride-ethylene polymer;Ethylene-maleic acid anhydride copolymer;DX 840-11;EMA 31;Polyethylene maleic anhydride copolymer;EMA 91;DX 840;EMA 81;Ethylene-maleic anhydride copolymer;EMA 64K;Admer 207;EMA 61;Ethene-maleic anhydride copolymer;EMA 701;Lotader HX 807.0;EMI 31;EB 02B;RPC 1022;WCZ 628;Poly(ethylene-maleic anhydride);AC 575;Ceramer 106;Bondine HX 0210;N-polymer L 2260;Flexomer DEFB 1373;AC 573;Cel-Span 334;M 503;Admer F 551;Poly(ethylene-co-maleic anhydride);Coesive L 8.92.8m;Admer AT 1804;F 551;A-C 1221P;A-C 1302P;Fusabond M 603;Zema 400;OC 100LW.E;Modic A 545;NF 308T;Maleic anhydride-vinyl copolymer;Polyethylene-co-maleic acid anhydride;Fusabond M 623XF;EMA 80",
    "duplicated_cas_no": "25085-32-9;28549-89-5;223537-61-9;1254159-65-3",
    "SMILES": "O=C1OC(=O)C=C1.C=C",
    "meta_data": {
        "InChI": "InChI=1S/C4H2O3.C2H4/c5-3-1-2-4(6)7-3;1-2/h1-2H;1-2H2",
        "InChIKey": null,
        "Canonical SMILES": "O=C1OC(=O)C=C1.C=C",
        "Molecular Formula": "(C<sub>4</sub>H<sub>2</sub>O<sub>3</sub>.C<sub>2</sub>H<sub>4</sub>)<sub>x</sub>",
        "Molecular Mass": "",
        "Melting Point": "235 °C",
        "Density": "0.930 g/cm³"
    }
}