{
    "cas_no": "183673-70-3",
    "key_name": "1,1-Dimethylethyl 2,4-dioxo-1,3,8-triazaspiro[4.5]decane-8-carboxylate",
    "cn_name": null,
    "alternate_name": "1,3,8-Triazaspiro[4.5]decane-8-carboxylic acid, 2,4-dioxo-, 1,1-dimethylethyl ester;1,1-Dimethylethyl 2,4-dioxo-1,3,8-triazaspiro[4.5]decane-8-carboxylate;2,4-Dioxo-1,3,8-triazaspiro[4.5]decane-8-carboxylic acid <em>tert</em>-butyl ester;2,4-Dioxo-1,3,8-triazaspiro[4.5]decane-8-carboxylic acid tert-butyl ester;<em>tert</em>-Butyl 2,4-dioxo-1,3,8-triazaspiro[4.5]decane-8-carboxylate;8-<em>tert</em>-Butoxycarbonyl-1,3,8-triazaspiro[4.5]decane-2,4-dione;<em>tert</em>-Butyl 2,4-dioxo-1,3,8-triazaspiro[4.5]decan-8-carboxylate",
    "duplicated_cas_no": "",
    "SMILES": "O=C1C2(CCN(C(OC(C)(C)C)=O)CC2)NC(=O)N1",
    "meta_data": {
        "InChI": "InChI=1S/C12H19N3O4/c1-11(2,3)19-10(18)15-6-4-12(5-7-15)8(16)13-9(17)14-12/h4-7H2,1-3H3,(H2,13,14,16,17)",
        "InChIKey": null,
        "Canonical SMILES": "O=C1NC(=O)C2(N1)CCN(C(=O)OC(C)(C)C)CC2",
        "Molecular Formula": "C<sub>12</sub>H<sub>19</sub>N<sub>3</sub>O<sub>4</sub>",
        "Molecular Mass": "269.30",
        "Melting Point": "233-234 °C (decomp)"
    }
}