{
    "cas_no": "50419-58-4",
    "key_name": "2-Amino-3,4-dimethylbenzoic acid",
    "cn_name": "2-氨基-3,4-二甲基苯甲酸;",
    "alternate_name": "Benzoic acid, 2-amino-3,4-dimethyl-;2-Amino-3,4-dimethylbenzoic acid;3,4-Dimethylanthranilic acid;NSC 135928",
    "duplicated_cas_no": "",
    "SMILES": "C(O)(=O)C1=C(N)C(C)=C(C)C=C1",
    "meta_data": {
        "InChI": "InChI=1S/C9H11NO2/c1-5-3-4-7(9(11)12)8(10)6(5)2/h3-4H,10H2,1-2H3,(H,11,12)",
        "InChIKey": null,
        "Canonical SMILES": "O=C(O)C1=CC=C(C(=C1N)C)C",
        "Molecular Formula": "C<sub>9</sub>H<sub>11</sub>NO<sub>2</sub>",
        "Molecular Mass": "165.19",
        "Melting Point": "184-186 °C (decomp)"
    }
}