{
    "cas_no": "580-19-8",
    "key_name": "7-Aminoquinoline",
    "cn_name": "7-氨基喹啉;",
    "alternate_name": "7-Quinolinamine;Quinoline, 7-amino-;7-Aminoquinoline;7-Quinolylamine;NSC 58389;(Quinolin-7-yl)amine",
    "duplicated_cas_no": "59679-87-7",
    "SMILES": "NC1=CC2=C(C=C1)C=CC=N2",
    "meta_data": {
        "InChI": "InChI=1S/C9H8N2/c10-8-4-3-7-2-1-5-11-9(7)6-8/h1-6H,10H2",
        "InChIKey": null,
        "Canonical SMILES": "N1=CC=CC2=CC=C(N)C=C12",
        "Molecular Formula": "C<sub>9</sub>H<sub>8</sub>N<sub>2</sub>",
        "Molecular Mass": "144.17",
        "Melting Point": "93.5-94 °C"
    }
}