{
    "cas_no": "468-28-0",
    "key_name": "Lupulone",
    "cn_name": null,
    "alternate_name": "2,4-Cyclohexadien-1-one, 3,5-dihydroxy-2,6,6-tris(3-methyl-2-buten-1-yl)-4-(3-methyl-1-oxobutyl)-;Lupulone;2,4-Cyclohexadien-1-one, 3,5-dihydroxy-2,6,6-tris(3-methyl-2-butenyl)-4-(3-methyl-1-oxobutyl)-;3,5-Dihydroxy-2,6,6-tris(3-methyl-2-buten-1-yl)-4-(3-methyl-1-oxobutyl)-2,4-cyclohexadien-1-one;β-Lupulic acid;Lupulon;<em>n</em>-Lupulone;Lupulone β-acid;3,5-Dihydroxy-2,6,6-tris(3-methylbut-2-enyl)-4-(3-methyl-1-oxobutyl)cyclohexa-2,4-dien-1-one",
    "duplicated_cas_no": "",
    "SMILES": "C(C=C(C)C)C1(CC=C(C)C)C(O)=C(C(CC(C)C)=O)C(O)=C(CC=C(C)C)C1=O",
    "meta_data": {
        "InChI": "InChI=1S/C26H38O4/c1-16(2)9-10-20-23(28)22(21(27)15-19(7)8)25(30)26(24(20)29,13-11-17(3)4)14-12-18(5)6/h9,11-12,19,28,30H,10,13-15H2,1-8H3",
        "InChIKey": null,
        "Canonical SMILES": "O=C(C=1C(O)=C(C(=O)C(C1O)(CC=C(C)C)CC=C(C)C)CC=C(C)C)CC(C)C",
        "Molecular Formula": "C<sub>26</sub>H<sub>38</sub>O<sub>4</sub>",
        "Molecular Mass": "414.58",
        "Melting Point": "93 °C"
    }
}