{
    "cas_no": "614-76-6",
    "key_name": "<em>N</em>-(2-Bromophenyl)acetamide",
    "cn_name": null,
    "alternate_name": "Acetamide, <em>N</em>-(2-bromophenyl)-;Acetanilide, 2′-bromo-;<em>N</em>-(2-Bromophenyl)acetamide;2′-Bromoacetanilide;<em>o</em>-Bromoacetanilide;2-Bromo-<em>N</em>-acetylaniline;<em>N</em>-Acetyl-2-bromoaniline;2-(Acetylamino)bromobenzene",
    "duplicated_cas_no": "",
    "SMILES": "N(C(C)=O)C1=C(Br)C=CC=C1",
    "meta_data": {
        "InChI": "InChI=1S/C8H8BrNO/c1-6(11)10-8-5-3-2-4-7(8)9/h2-5H,1H3,(H,10,11)",
        "InChIKey": null,
        "Canonical SMILES": "O=C(NC=1C=CC=CC1Br)C",
        "Molecular Formula": "C<sub>8</sub>H<sub>8</sub>BrNO",
        "Molecular Mass": "214.06",
        "Melting Point": "95-97 °C"
    }
}