{
    "cas_no": "35202-54-1",
    "key_name": "3,4-Dimethoxybicyclo[4.2.0]octa-1,3,5-triene-7-carbonitrile",
    "cn_name": "4,5-二甲氧基-1-氰基苯并环丁烷;",
    "alternate_name": "Bicyclo[4.2.0]octa-1,3,5-triene-7-carbonitrile, 3,4-dimethoxy-;3,4-Dimethoxybicyclo[4.2.0]octa-1,3,5-triene-7-carbonitrile;1-Cyano-4,5-dimethoxybenzocyclobutene;4,5-Dimethoxy-1-benzocyclobutenecarbonitrile;1,2-Dihydro-4,5-dimethoxybenzocyclobutene-1-carbonitrile;NSC 154410;4,5-Dimethoxy-1-cyanobenzocyclobutane;3,4-Dimethoxybicyclo[4.2.0]octa-1(6),2,4-triene-7-carbonitrile",
    "duplicated_cas_no": "96860-77-4",
    "SMILES": "C(#N)C1C=2C(C1)=CC(OC)=C(OC)C2",
    "meta_data": {
        "InChI": "InChI=1S/C11H11NO2/c1-13-10-4-7-3-8(6-12)9(7)5-11(10)14-2/h4-5,8H,3H2,1-2H3",
        "InChIKey": null,
        "Canonical SMILES": "N#CC1C2=CC(OC)=C(OC)C=C2C1",
        "Molecular Formula": "C<sub>11</sub>H<sub>11</sub>NO<sub>2</sub>",
        "Molecular Mass": "189.21",
        "Melting Point": "79-81 °C"
    }
}