{
    "cas_no": "3581-87-1",
    "key_name": "2-Methylthiazole",
    "cn_name": "2-甲基噻唑;",
    "alternate_name": "Thiazole, 2-methyl-;2-Methylthiazole;2-Methyl-1,3-thiazole",
    "duplicated_cas_no": "",
    "SMILES": "CC1=NC=CS1",
    "meta_data": {
        "InChI": "InChI=1S/C4H5NS/c1-4-5-2-3-6-4/h2-3H,1H3",
        "InChIKey": null,
        "Canonical SMILES": "N=1C=CSC1C",
        "Molecular Formula": "C<sub>4</sub>H<sub>5</sub>NS",
        "Molecular Mass": "99.15",
        "Boiling Point": "128.5 °C",
        "Density": "1.1121 g/cm³ @ Temp: 20 °C"
    }
}