{
    "cas_no": "83-74-9",
    "key_name": "(-)-Ibogaine",
    "cn_name": null,
    "alternate_name": "Ibogamine, 12-methoxy-;Ibogaine;6,9-Methano-5<em>H</em>-pyrido[1′,2′:1,2]azepino[4,5-<em>b</em>]indole, ibogamine deriv.;12-Methoxyibogamine;(-)-Ibogaine;Ibogain;NSC 249764;MeSH ID: D007050",
    "duplicated_cas_no": "17378-46-0",
    "SMILES": "C(C)[C@@H]1[C@]2([C@@]3(C4=C(C=5C(N4)=CC=C(OC)C5)CC[N@]2C[C@@](C3)(C1)[H])[H])[H]",
    "meta_data": {
        "InChI": "InChI=1S/C20H26N2O/c1-3-13-8-12-9-17-19-15(6-7-22(11-12)20(13)17)16-10-14(23-2)4-5-18(16)21-19/h4-5,10,12-13,17,20-21H,3,6-9,11H2,1-2H3/t12-,13+,17+,20+/m1/s1",
        "InChIKey": null,
        "Canonical SMILES": "O(C=1C=CC=2NC3=C(C2C1)CCN4CC5CC3C4C(CC)C5)C",
        "Molecular Formula": "C<sub>20</sub>H<sub>26</sub>N<sub>2</sub>O",
        "Molecular Mass": "310.43",
        "Melting Point": "148 °C"
    }
}