{
    "cas_no": "2349-67-9",
    "key_name": "2-Amino-5-mercapto-1,3,4-thiadiazole",
    "cn_name": "2-氨基-5-巯基-1,3,4-噻二唑;5-氨基-2-巯基-1,3,4-噻二唑;",
    "alternate_name": "1,3,4-Thiadiazole-2(3<em>H</em>)-thione, 5-amino-;1,3,4-Thiadiazole-2-thiol, 5-amino-;Δ<sup>2</sup>-1,3,4-Thiadiazoline-2-thiol, 5-imino-;5-Amino-1,3,4-thiadiazole-2(3<em>H</em>)-thione;2-Mercapto-5-amino-1,3,4-thiadiazole;5-Amino-1,3,4-thiadiazole-2-thiol;2-Thiol-5-amino-1,3,4-thiadiazole;2-Amino-Δ<sup>2</sup>-1,3,4-thiadiazoline-5-thione;2-Amino-1,3,4-thiadiazole-5-thiol;5-Amino-1,3,4-thiadiazoline-2-thione;5-Amino-2-mercapto-1,3,4-thiadiazole;2-Amino-1,3,4-thiadiazol-5-thiol;2-Amino-1,3,4-thiadiazole-5-mercaptan;2-Amino-5-mercapto-1,3,4-thiadiazole;WR 180;5-Amino-3<em>H</em>-1,3,4-thiadiazole-2-thione;2-Amino-5-mercaptothiadiazole;ATT;NSC 209061;NSC 21402;5-Amino-1,3,4-thiadiazole-2-thione;5-Thio-2-amino-[1,3,4]thiadiazole;5-Amino-1,3,4-thidiazole-2-thiol;5-Thiol-2-amino-1,3,4-thiadiazole;2-Mercapto-5-aminothiadiazole;5-Amino-1,3,4-thiadiazole-5-thiol;2-Amino-5-sulfhydryl-1,3,4-thiadiazole;5-Amino-2-sulfhydryl-1,3,4-thiadiazole;2-Amino-5-sulfanyl-1,3,4-thiadiazole;5-Amino-1,3,4-thiadiazole-2-mercaptan",
    "duplicated_cas_no": "17374-12-8;36369-18-3;1630090-71-9",
    "SMILES": "NC=1SC(=S)NN1",
    "meta_data": {
        "InChI": "InChI=1S/C2H3N3S2/c3-1-4-5-2(6)7-1/h(H2,3,4)(H,5,6)",
        "InChIKey": null,
        "Canonical SMILES": "S=C1SC(=NN1)N",
        "Molecular Formula": "C<sub>2</sub>H<sub>3</sub>N<sub>3</sub>S<sub>2</sub>",
        "Molecular Mass": "133.20",
        "Melting Point": "235 °C"
    }
}