{
    "cas_no": "68-26-8",
    "key_name": "Retinol",
    "cn_name": "维生素A;抗干眼醇；抗干眼维生素；视网醇；维生素A醇 ；全反式-3,7-二甲基-9-(2,6,6-三甲基-1-环己-1-烯)-2;",
    "alternate_name": "Retinol;Retinol, <em>all</em>-<em>trans</em>-;Acon;Afaxin;Agiolan;Alphalin;Alphasterol;Anatola;Anti-Infective vitamin;Antixerophthalmic vitamin;Anatola A;Apexol;Aquasynth;Aoral;Atav;Avibon;Avita;Avitol;Biosterol;Disatabs Tabs;Dofsol;Epiteliol;Hi-A-Vita;Lard Factor;Myvpack;2,4,6,8-Nonatetraen-1-ol, 3,7-dimethyl-9-(2,6,6-trimethyl-1-cyclohexen-1-yl)-, (<em>all</em>-<em>E</em>)-;Oleovitamin a;Ophthalamin;Prepalin;Testavol;Vaflol;Vi-Alpha;Vitamin A<sub>1</sub>;Vitamin A<sub>1</sub> alcohol;Vitpex;Vogan;<em>all</em>-<em>trans</em>-Retinol;Vitamin A alcohol;<em>all</em>-<em>trans</em>-Vitamin A alcohol;Vitamin A alcohol, <em>all</em>-<em>trans</em>-;Vitamin A<sub>1</sub> alcohol, <em>all</em>-<em>trans</em>-;Vitamin A<sub>1</sub>, <em>all</em>-<em>trans</em>-;Axerophthol;<em>trans</em>-Retinol;<em>all</em>-<em>trans</em>-Retinyl alcohol;Apostavit;Axerol;Dohyfral A;Nio-A-Let;Vitavel A;Vogan-Neu;<em>trans</em>-Vitamin A alcohol;β-Retinol;Vitamin A;Plivit A;A-Mulsal;Agoncal;Alcovit A;Veroftal;A-Vi-Pel;Bentavit A;<em>all</em>-<em>trans</em>-Vitamin A;(<em>all</em>-<em>E</em>)-3,7-Dimethyl-9-(2,6,6-trimethyl-1-cyclohexen-1-yl)-2,4,6,8-nonatetraen-1-ol;<em>all</em>-<em>trans</em>-Vitamin A<sub>1</sub>;Thalasphere;Cylasphere;Aquasol A Parenteral;A-Sol;Vi-Dom-A;A-Vitan;NSC 122759;Retinol 50C;Retinyl A;Tegosphere VitA;Tagravit R 1;Riken Dry A-S 200PT",
    "duplicated_cas_no": "5979-23-7;13123-33-6;17104-91-5;2820400-21-1",
    "SMILES": "C(=C/C(=C/C=C/C(=C/CO)/C)/C)\\C=1C(C)(C)CCCC1C",
    "meta_data": {
        "InChI": "InChI=1S/C20H30O/c1-16(8-6-9-17(2)13-15-21)11-12-19-18(3)10-7-14-20(19,4)5/h6,8-9,11-13,21H,7,10,14-15H2,1-5H3/b9-6+,12-11+,16-8+,17-13+",
        "InChIKey": null,
        "Canonical SMILES": "OCC=C(C=CC=C(C=CC1=C(C)CCCC1(C)C)C)C",
        "Molecular Formula": "C<sub>20</sub>H<sub>30</sub>O",
        "Molecular Mass": "286.45",
        "Boiling Point": "137-138 °C @ Press: 1 x 10<sup>-6</sup> Torr",
        "Melting Point": "62-64 °C"
    }
}