{
    "cas_no": "2979-22-8",
    "key_name": "β-Methoxybenzeneethanol",
    "cn_name": "&beta;-甲氧基苯乙醇;2-甲氧基-2-苯乙醇;",
    "alternate_name": "Benzeneethanol, β-methoxy-;Phenethyl alcohol, β-methoxy-;β-Methoxybenzeneethanol;β-Methoxyphenethyl alcohol;2-Hydroxy-1-methoxy-1-phenylethane;2-Methoxy-2-phenylethanol;2-Phenyl-2-methoxyethanol;(±)-2-Methoxy-2-phenylethanol;2-Methoxy-2-phenylethan-1-ol",
    "duplicated_cas_no": "104527-66-4",
    "SMILES": "C(CO)(OC)C1=CC=CC=C1",
    "meta_data": {
        "InChI": "InChI=1S/C9H12O2/c1-11-9(7-10)8-5-3-2-4-6-8/h2-6,9-10H,7H2,1H3",
        "InChIKey": null,
        "Canonical SMILES": "OCC(OC)C=1C=CC=CC1",
        "Molecular Formula": "C<sub>9</sub>H<sub>12</sub>O<sub>2</sub>",
        "Molecular Mass": "152.19",
        "Boiling Point": "108-113 °C @ Press: 6 Torr"
    }
}