{
    "cas_no": "14919-01-8",
    "key_name": "<em>trans</em>-3-Octene",
    "cn_name": null,
    "alternate_name": "3-Octene, (3<em>E</em>)-;3-Octene, (<em>E</em>)-;(3<em>E</em>)-3-Octene;<em>trans</em>-3-Octene;(<em>E</em>)-3-Octene;γ-<em>trans</em>-Octene;NSC 95418",
    "duplicated_cas_no": "",
    "SMILES": "C(/C=C/CC)CCC",
    "meta_data": {
        "InChI": "InChI=1S/C8H16/c1-3-5-7-8-6-4-2/h5,7H,3-4,6,8H2,1-2H3/b7-5+",
        "InChIKey": null,
        "Canonical SMILES": "C(=CCCCC)CC",
        "Molecular Formula": "C<sub>8</sub>H<sub>16</sub>",
        "Molecular Mass": "112.21",
        "Boiling Point": "123.3 °C",
        "Melting Point": "-110 °C",
        "Density": "0.71210 g/cm³ @ Temp: 25 °C"
    }
}