{
    "cas_no": "6940-78-9",
    "key_name": "1-Bromo-4-chlorobutane",
    "cn_name": "1-溴-4-氯丁烷;",
    "alternate_name": "Butane, 1-bromo-4-chloro-;1-Bromo-4-chlorobutane;Tetramethylenechlorobromide;1-Chloro-4-bromobutane;4-Bromo-1-chlorobutane;4-Bromobutyl chloride;4-Chlorobutyl bromide;4-Chloro-1-bromobutane;NSC 60193",
    "duplicated_cas_no": "",
    "SMILES": "C(CCCl)CBr",
    "meta_data": {
        "InChI": "InChI=1S/C4H8BrCl/c5-3-1-2-4-6/h1-4H2",
        "InChIKey": null,
        "Canonical SMILES": "ClCCCCBr",
        "Molecular Formula": "C<sub>4</sub>H<sub>8</sub>BrCl",
        "Molecular Mass": "171.46",
        "Boiling Point": "175 °C",
        "Density": "1.488 g/cm³ @ Temp: 20 °C"
    }
}