{
    "cas_no": "4769-96-4",
    "key_name": "6-Nitroindole",
    "cn_name": null,
    "alternate_name": "1<em>H</em>-Indole, 6-nitro-;Indole, 6-nitro-;6-Nitro-1<em>H</em>-indole;6-Nitroindole;NSC 89285",
    "duplicated_cas_no": "",
    "SMILES": "N(=O)(=O)C=1C=C2C(=CC1)C=CN2",
    "meta_data": {
        "InChI": "InChI=1S/C8H6N2O2/c11-10(12)7-2-1-6-3-4-9-8(6)5-7/h1-5,9H",
        "InChIKey": null,
        "Canonical SMILES": "O=N(=O)C=1C=CC=2C=CNC2C1",
        "Molecular Formula": "C<sub>8</sub>H<sub>6</sub>N<sub>2</sub>O<sub>2</sub>",
        "Molecular Mass": "162.15",
        "Melting Point": "139-140.5 °C"
    }
}