{
    "cas_no": "622-75-3",
    "key_name": "1,4-Benzenediacetonitrile",
    "cn_name": null,
    "alternate_name": "1,4-Benzenediacetonitrile;<em>p</em>-Benzenediacetonitrile;<em>p</em>-Xylylene dicyanide;<em>p</em>-Phenylenediacetonitrile;<em>p</em>-Bis(cyanomethyl)benzene;<em>p</em>-(Cyanomethyl)benzyl cyanide;1,4-Bis(cyanomethyl)benzene;<em>p</em>-Xylylenedinitrile;7,8-Dicyano-<em>p</em>-xylene;1,4-Phenylenediacetonitrile;1,4-Phenyldiacetonitrile;NSC 513731;4-Cyanomethylphenylacetonitrile;2,2′-(1,4-Phenylene) diacetonitrile;1,4-Di(cyanomethyl)benzene;2-[4-(Cyanomethyl)phenyl]acetonitrile",
    "duplicated_cas_no": "",
    "SMILES": "C(C#N)C1=CC=C(CC#N)C=C1",
    "meta_data": {
        "InChI": "InChI=1S/C10H8N2/c11-7-5-9-1-2-10(4-3-9)6-8-12/h1-4H,5-6H2",
        "InChIKey": null,
        "Canonical SMILES": "N#CCC1=CC=C(C=C1)CC#N",
        "Molecular Formula": "C<sub>10</sub>H<sub>8</sub>N<sub>2</sub>",
        "Molecular Mass": "156.18",
        "Boiling Point": "85 °C @ Press: 12 Torr",
        "Melting Point": "222 °C"
    }
}