{
    "cas_no": "530-40-5",
    "key_name": "<em>N</em>,<em>N</em>-Diethylisonicotinamide",
    "cn_name": "N,N-二乙基异烟酰胺;",
    "alternate_name": "4-Pyridinecarboxamide, <em>N</em>,<em>N</em>-diethyl-;Isonicotinamide, <em>N</em>,<em>N</em>-diethyl-;<em>N</em>,<em>N</em>-Diethyl-4-pyridinecarboxamide;Isonicotinic acid diethylamide;<em>N</em>,<em>N</em>-Diethylisonicotinamide;NSC 165783",
    "duplicated_cas_no": "",
    "SMILES": "C(N(CC)CC)(=O)C=1C=CN=CC1",
    "meta_data": {
        "InChI": "InChI=1S/C10H14N2O/c1-3-12(4-2)10(13)9-5-7-11-8-6-9/h5-8H,3-4H2,1-2H3",
        "InChIKey": null,
        "Canonical SMILES": "O=C(C=1C=CN=CC1)N(CC)CC",
        "Molecular Formula": "C<sub>10</sub>H<sub>14</sub>N<sub>2</sub>O",
        "Molecular Mass": "178.23",
        "Boiling Point": "162-164 °C @ Press: 15 Torr",
        "Melting Point": "23-25 °C"
    }
}