{
    "cas_no": "2035-72-5",
    "key_name": "2-Hydroxy-4-(methacryloyloxy)benzophenone",
    "cn_name": null,
    "alternate_name": "2-Propenoic acid, 2-methyl-, 4-benzoyl-3-hydroxyphenyl ester;Methacrylic acid, 4-ester with 2,4-dihydroxybenzophenone;Methacrylic acid, 4-benzoyl-3-hydroxyphenyl ester;Benzophenone, 2,4-dihydroxy-, 4-methacrylate;2-Hydroxy-4-(methacryloyloxy)benzophenone;(3-Hydroxy-4-benzoyl)phenyl methacrylate;4-Methacryloyloxy-2-hydroxybenzophenone;4-Methacryloxy-2-hydroxybenzophenone;2-Methyl-acrylic acid 4-benzoyl-3-hydroxy-phenyl ester",
    "duplicated_cas_no": "700864-12-6",
    "SMILES": "C(=O)(C1=C(O)C=C(OC(C(C)=C)=O)C=C1)C2=CC=CC=C2",
    "meta_data": {
        "InChI": "InChI=1S/C17H14O4/c1-11(2)17(20)21-13-8-9-14(15(18)10-13)16(19)12-6-4-3-5-7-12/h3-10,18H,1H2,2H3",
        "InChIKey": null,
        "Canonical SMILES": "O=C(OC1=CC=C(C(O)=C1)C(=O)C=2C=CC=CC2)C(=C)C",
        "Molecular Formula": "C<sub>17</sub>H<sub>14</sub>O<sub>4</sub>",
        "Molecular Mass": "282.29",
        "Melting Point": "77-78 °C"
    }
}