{
    "cas_no": "6628-83-7",
    "key_name": "Tetrahydro-2<em>H</em>-pyran-2-methanamine",
    "cn_name": null,
    "alternate_name": "2<em>H</em>-Pyran-2-methanamine, tetrahydro-;2<em>H</em>-Pyran-2-methylamine, tetrahydro-;Pyran-2-methylamine, tetrahydro-;Tetrahydro-2<em>H</em>-pyran-2-methanamine;2-(Aminomethyl)tetrahydropyran;2-(Aminomethyl)tetrahydro-2<em>H</em>-pyran;NSC 59724;[(Tetrahydropyran-2-yl)methyl]amine;(Tetrahydro-2<em>H</em>-pyran-2-yl)methanamine;[(3,4,5,6-Tetrahydro-2<em>H</em>-pyran-2-yl)methyl]amine;(Oxan-2-yl)methylamine;1-Tetrahydro-2<em>H</em>-pyran-2-ylmethanamine;(Oxan-2-yl)methanamine;Tetrahydropyran-2-ylmethanamine",
    "duplicated_cas_no": "",
    "SMILES": "C(N)C1CCCCO1",
    "meta_data": {
        "InChI": "InChI=1S/C6H13NO/c7-5-6-3-1-2-4-8-6/h6H,1-5,7H2",
        "InChIKey": null,
        "Canonical SMILES": "O1CCCCC1CN",
        "Molecular Formula": "C<sub>6</sub>H<sub>13</sub>NO",
        "Molecular Mass": "115.17",
        "Boiling Point": "45-48 °C @ Press: 10 Torr",
        "Melting Point": "136 °C",
        "Density": "1.9635 g/cm³ @ Temp: 20 °C"
    }
}