{
    "cas_no": "3058-04-6",
    "key_name": "2,4,8,10-Tetraoxaspiro[5.5]undecane-3,9-dipropanenitrile",
    "cn_name": "3,9-双(3-氰基乙基)-2,4,8,10-四氧杂螺[5.5]十一烷;",
    "alternate_name": "2,4,8,10-Tetraoxaspiro[5.5]undecane-3,9-dipropanenitrile;2,4,8,10-Tetraoxaspiro[5.5]undecane-3,9-dipropionitrile;3,9-Bis(2-cyanoethyl)-2,4,8,10-tetraoxaspiro[5.5]undecane",
    "duplicated_cas_no": "",
    "SMILES": "C(CC#N)C1OCC2(COC(CCC#N)OC2)CO1",
    "meta_data": {
        "InChI": "InChI=1S/C13H18N2O4/c14-5-1-3-11-16-7-13(8-17-11)9-18-12(19-10-13)4-2-6-15/h11-12H,1-4,7-10H2",
        "InChIKey": null,
        "Canonical SMILES": "N#CCCC1OCC2(CO1)COC(OC2)CCC#N",
        "Molecular Formula": "C<sub>13</sub>H<sub>18</sub>N<sub>2</sub>O<sub>4</sub>",
        "Molecular Mass": "266.29",
        "Boiling Point": "180-181 °C @ Press: 0.2 Torr",
        "Melting Point": "73-74 °C"
    }
}