{
    "cas_no": "41513-04-6",
    "key_name": "1-Bromo-4-chloro-2-nitrobenzene",
    "cn_name": "2-溴-5-氯硝基苯;1-溴-4-氯-2-硝基苯;",
    "alternate_name": "Benzene, 1-bromo-4-chloro-2-nitro-;1-Bromo-4-chloro-2-nitrobenzene;4-Chloro-2-bromonitrobenzene;2-Bromo-5-chloronitrobenzene;4-Bromo-3-nitrochlorobenzene;1-Bromo-2-nitro-4-chlorobenzene;2-Nitro-4-chloro-1-bromobenzene;4-Chloro-2-nitro-1-bromobenzene",
    "duplicated_cas_no": "",
    "SMILES": "N(=O)(=O)C1=C(Br)C=CC(Cl)=C1",
    "meta_data": {
        "InChI": "InChI=1S/C6H3BrClNO2/c7-5-2-1-4(8)3-6(5)9(10)11/h1-3H",
        "InChIKey": null,
        "Canonical SMILES": "O=N(=O)C1=CC(Cl)=CC=C1Br",
        "Molecular Formula": "C<sub>6</sub>H<sub>3</sub>BrClNO<sub>2</sub>",
        "Molecular Mass": "236.45",
        "Melting Point": "64.8 °C",
        "Density": "2.048 g/cm³ @ Temp: 16 °C"
    }
}