{
    "cas_no": "1617-70-5",
    "key_name": "Lupenone",
    "cn_name": "羽扇烯酮;羽扇烯酮;",
    "alternate_name": "Lup-20(29)-en-3-one;Lupenone;Lup-20(30)-en-3-one;9<em>H</em>-Cyclopenta[<em>a</em>]chrysene, lup-20(29)-en-3-one deriv.;NSC 281807;Lupine ketene",
    "duplicated_cas_no": "",
    "SMILES": "C[C@]12[C@@]([C@@]3([C@@](C)(CC1)CC[C@H]3C(C)=C)[H])(CC[C@]4([C@@]2(C)CC[C@@]5([C@]4(C)CCC(=O)C5(C)C)[H])[H])[H]",
    "meta_data": {
        "InChI": "InChI=1S/C30H48O/c1-19(2)20-11-14-27(5)17-18-29(7)21(25(20)27)9-10-23-28(6)15-13-24(31)26(3,4)22(28)12-16-30(23,29)8/h20-23,25H,1,9-18H2,2-8H3/t20-,21+,22-,23+,25+,27+,28-,29+,30+/m0/s1",
        "InChIKey": null,
        "Canonical SMILES": "O=C1CCC2(C)C(CCC3(C)C2CCC4C5C(C(=C)C)CCC5(C)CCC43C)C1(C)C",
        "Molecular Formula": "C<sub>30</sub>H<sub>48</sub>O",
        "Molecular Mass": "424.70",
        "Melting Point": "170 °C",
        "Density": "1.115 g/cm³ @ Temp: 18 °C"
    }
}