{
    "cas_no": "645-48-7",
    "key_name": "Phenylthiosemicarbazide",
    "cn_name": "1-苯基-3-氨基硫脲;苯胺基硫脲;1-苯基氨基硫脲;",
    "alternate_name": "Hydrazinecarbothioamide, 2-phenyl-;Semicarbazide, 1-phenyl-3-thio-;2-Phenylhydrazinecarbothioamide;1-Phenylthiosemicarbazide;Phenylthiosemicarbazide;1-Phenyl-3-thiosemicarbazide;NSC 179798;NSC 25003",
    "duplicated_cas_no": "",
    "SMILES": "N(NC(N)=S)C1=CC=CC=C1",
    "meta_data": {
        "InChI": "InChI=1S/C7H9N3S/c8-7(11)10-9-6-4-2-1-3-5-6/h1-5,9H,(H3,8,10,11)",
        "InChIKey": null,
        "Canonical SMILES": "S=C(N)NNC=1C=CC=CC1",
        "Molecular Formula": "C<sub>7</sub>H<sub>9</sub>N<sub>3</sub>S",
        "Molecular Mass": "167.23",
        "Melting Point": "197-198 °C",
        "Density": "1.322 g/cm³"
    }
}