{
    "cas_no": "108929-04-0",
    "key_name": "Epinastine hydrochloride",
    "cn_name": null,
    "alternate_name": "1<em>H</em>-Dibenz[<em>c</em>,<em>f</em>]imidazo[1,5-<em>a</em>]azepin-3-amine, 9,13b-dihydro-, hydrochloride (1:1);1<em>H</em>-Dibenz[<em>c</em>,<em>f</em>]imidazo[1,5-<em>a</em>]azepin-3-amine, 9,13b-dihydro-, monohydrochloride;WAL 801CL;Epinastine hydrochloride;Alesion;Elestat",
    "duplicated_cas_no": "80012-44-8",
    "SMILES": "NC=1N2C(C=3C(CC=4C2=CC=CC4)=CC=CC3)CN1.Cl",
    "meta_data": {
        "InChI": "InChI=1S/C16H15N3.ClH/c17-16-18-10-15-13-7-3-1-5-11(13)9-12-6-2-4-8-14(12)19(15)16;/h1-8,15H,9-10H2,(H2,17,18);1H",
        "InChIKey": null,
        "Canonical SMILES": "Cl.N1=C(N)N2C=3C=CC=CC3CC=4C=CC=CC4C2C1",
        "Molecular Formula": "C<sub>16</sub>H<sub>15</sub>N<sub>3</sub>.ClH",
        "Molecular Mass": "",
        "Melting Point": "273-275 °C"
    }
}