{
    "cas_no": "7685-44-1",
    "key_name": "2-Amino-4-pentenoic acid",
    "cn_name": "DL-2-氨基-4-戊烯酸;",
    "alternate_name": "4-Pentenoic acid, 2-amino-;4-Pentenoic acid, 2-amino-, <span class=\"text-smallcaps\">DL</span>-;4-Pentenoic acid, 2-amino-, (±)-;2-Amino-4-pentenoic acid;<span class=\"text-smallcaps\">DL</span>-Allylglycine;<span class=\"text-smallcaps\">DL</span>-2-Amino-4-pentenoic acid;<span class=\"text-smallcaps\">DL</span>-<em>C</em>-Allylglycine;<span class=\"text-smallcaps\">DL</span>-α-Allylglycine;Allylglycine;2-Allylglycine;Allyl-<em>C</em>-glycine;NSC 20898;α-Allylglycine",
    "duplicated_cas_no": "1069-48-3",
    "SMILES": "C(CC=C)(C(O)=O)N",
    "meta_data": {
        "InChI": "InChI=1S/C5H9NO2/c1-2-3-4(6)5(7)8/h2,4H,1,3,6H2,(H,7,8)",
        "InChIKey": null,
        "Canonical SMILES": "O=C(O)C(N)CC=C",
        "Molecular Formula": "C<sub>5</sub>H<sub>9</sub>NO<sub>2</sub>",
        "Molecular Mass": "115.13",
        "Melting Point": "255-258 °C (decomp)"
    }
}