{
    "cas_no": "996-50-9",
    "key_name": "(Diethylamino)trimethylsilane",
    "cn_name": "三甲基硅烷基二乙胺;",
    "alternate_name": "Silanamine, <em>N</em>,<em>N</em>-diethyl-1,1,1-trimethyl-;Silylamine, <em>N</em>,<em>N</em>-diethyl-1,1,1-trimethyl-;<em>N</em>,<em>N</em>-Diethyl-1,1,1-trimethylsilanamine;(Trimethylsilyl)diethylamine;Ethanamine, <em>N</em>-ethyl-<em>N</em>-(trimethylsilyl)-;Diethyl(trimethylsilyl)amine;<em>N</em>-(Trimethylsilyl)diethylamine;(Diethylamino)trimethylsilane;<em>N</em>,<em>N</em>-Diethyltrimethylsilanamine;<em>N</em>,<em>N</em>-Diethyltrimethylsilylamine;Trimethyl(diethylamino)silane;<em>N</em>,<em>N</em>-Diethyl-1,1,1-trimethylsilylamine;(<em>N</em>,<em>N</em>-Diethylamino)trimethylsilane;NSC 377650;T 0492",
    "duplicated_cas_no": "",
    "SMILES": "N([Si](C)(C)C)(CC)CC",
    "meta_data": {
        "InChI": "InChI=1S/C7H19NSi/c1-6-8(7-2)9(3,4)5/h6-7H2,1-5H3",
        "InChIKey": null,
        "Canonical SMILES": "N(CC)(CC)[Si](C)(C)C",
        "Molecular Formula": "C<sub>7</sub>H<sub>19</sub>NSi",
        "Molecular Mass": "145.32",
        "Boiling Point": "126.1-126.4 °C @ Press: 750 Torr"
    }
}