{
    "cas_no": "13403-01-5",
    "key_name": "2-[2,4-Bis(1,1-dimethylpropyl)phenoxy]butanoic acid",
    "cn_name": "2-(2,4-二特戊基苯氧基)丁酸;",
    "alternate_name": "Butanoic acid, 2-[2,4-bis(1,1-dimethylpropyl)phenoxy]-;Butyric acid, 2-(2,4-di-<em>tert</em>-pentylphenoxy)-;2-[2,4-Bis(1,1-dimethylpropyl)phenoxy]butanoic acid;2-(2,4-Di-<em>tert</em>-amylphenoxy)butyric acid;2-(2,4-Di-<em>tert</em>-pentylphenoxy)butyric acid;2-(2,4-Di-<em>tert</em>-pentylphenoxy)butanoic acid;2-[2,4-Bis-(1,1-dimethyl-propyl)-phenoxy]-butyric acid",
    "duplicated_cas_no": "",
    "SMILES": "O(C(C(O)=O)CC)C1=C(C(CC)(C)C)C=C(C(CC)(C)C)C=C1",
    "meta_data": {
        "InChI": "InChI=1S/C20H32O3/c1-8-16(18(21)22)23-17-12-11-14(19(4,5)9-2)13-15(17)20(6,7)10-3/h11-13,16H,8-10H2,1-7H3,(H,21,22)",
        "InChIKey": null,
        "Canonical SMILES": "O=C(O)C(OC1=CC=C(C=C1C(C)(C)CC)C(C)(C)CC)CC",
        "Molecular Formula": "C<sub>20</sub>H<sub>32</sub>O<sub>3</sub>",
        "Molecular Mass": "320.47",
        "Boiling Point": "170-200 °C @ Press: 1.0 Torr",
        "Melting Point": "76-78 °C"
    }
}