{
    "cas_no": "328-74-5",
    "key_name": "3,5-Bis(trifluoromethyl)benzenamine",
    "cn_name": "3,5-二(三氟甲基)苯胺;间二(三氟甲基)苯胺;",
    "alternate_name": "Benzenamine, 3,5-bis(trifluoromethyl)-;3,5-Xylidine, α,α,α,α′,α′,α′-hexafluoro-;3,5-Bis(trifluoromethyl)benzenamine;3,5-Bis(trifluoromethyl)aniline;α,α,α,α′,α′,α′-Hexafluoro-3,5-xylidine;3,5-Di(trifluoromethyl)aniline;NSC 3411;3,5-Bis(trifluoromethyl)phenylamine;3,5-Di(trifluoromethyl)phenylamine;Bis(trifluoromethyl)aniline",
    "duplicated_cas_no": "",
    "SMILES": "C(F)(F)(F)C1=CC(C(F)(F)F)=CC(N)=C1",
    "meta_data": {
        "InChI": "InChI=1S/C8H5F6N/c9-7(10,11)4-1-5(8(12,13)14)3-6(15)2-4/h1-3H,15H2",
        "InChIKey": null,
        "Canonical SMILES": "FC(F)(F)C1=CC(N)=CC(=C1)C(F)(F)F",
        "Molecular Formula": "C<sub>8</sub>H<sub>5</sub>F<sub>6</sub>N",
        "Molecular Mass": "229.12",
        "Boiling Point": "85 °C",
        "Melting Point": "168.2-169.2 °C"
    }
}