{
    "cas_no": "5410-29-7",
    "key_name": "<em>As</em>-(2-Nitrophenyl)arsonic acid",
    "cn_name": null,
    "alternate_name": "Arsonic acid, <em>As</em>-(2-nitrophenyl)-;Benzenearsonic acid, <em>o</em>-nitro-;Arsonic acid, (2-nitrophenyl)-;<em>As</em>-(2-Nitrophenyl)arsonic acid;(<em>o</em>-Nitrophenyl)arsonic acid;2-Nitrobenzenearsonic acid;2-Nitrophenylarsonic acid;<em>o</em>-Nitrobenzenearsonic acid;NSC 12609",
    "duplicated_cas_no": "1091626-85-5",
    "SMILES": "[As](=O)(O)(O)C1=C(N(=O)=O)C=CC=C1",
    "meta_data": {
        "InChI": "InChI=1S/C6H6AsNO5/c9-7(10,11)5-3-1-2-4-6(5)8(12)13/h1-4H,(H2,9,10,11)",
        "InChIKey": null,
        "Canonical SMILES": "O=N(=O)C=1C=CC=CC1[As](=O)(O)O",
        "Molecular Formula": "C<sub>6</sub>H<sub>6</sub>AsNO<sub>5</sub>",
        "Molecular Mass": "247.04",
        "Melting Point": "233 °C"
    }
}