{
    "cas_no": "346-06-5",
    "key_name": "2-(Trifluoromethyl)benzenemethanol",
    "cn_name": "2-三氟甲基苯甲醇;邻三氟甲基苯甲醇;",
    "alternate_name": "Benzenemethanol, 2-(trifluoromethyl)-;Benzyl alcohol, <em>o</em>-(trifluoromethyl)-;2-(Trifluoromethyl)benzenemethanol;<em>o</em>-(Trifluoromethyl)benzyl alcohol;2-(Trifluoromethyl)benzyl alcohol;2-Trifluorobenzyl alcohol;(2-Trifluoromethylphenyl)methanol",
    "duplicated_cas_no": "185533-02-2",
    "SMILES": "C(O)C1=C(C(F)(F)F)C=CC=C1",
    "meta_data": {
        "InChI": "InChI=1S/C8H7F3O/c9-8(10,11)7-4-2-1-3-6(7)5-12/h1-4,12H,5H2",
        "InChIKey": null,
        "Canonical SMILES": "FC(F)(F)C=1C=CC=CC1CO",
        "Molecular Formula": "C<sub>8</sub>H<sub>7</sub>F<sub>3</sub>O",
        "Molecular Mass": "176.14",
        "Boiling Point": "82-83 °C @ Press: 3.5 Torr"
    }
}