{
    "cas_no": "42513-36-0",
    "key_name": "12-Chloro-5-dodecyne",
    "cn_name": "12-氯-5-十二炔;",
    "alternate_name": "5-Dodecyne, 12-chloro-;12-Chloro-5-dodecyne",
    "duplicated_cas_no": "",
    "SMILES": "C(C#CCCCC)CCCCCCl",
    "meta_data": {
        "InChI": "InChI=1S/C12H21Cl/c1-2-3-4-5-6-7-8-9-10-11-12-13/h2-4,7-12H2,1H3",
        "InChIKey": null,
        "Canonical SMILES": "ClCCCCCCC#CCCCC",
        "Molecular Formula": "C<sub>12</sub>H<sub>21</sub>Cl",
        "Molecular Mass": "200.75",
        "Boiling Point": "92-93 °C @ Press: 0.5 Torr"
    }
}