{
    "cas_no": "6945-68-2",
    "key_name": "5-Bromo-3-nitro-2-pyridinamine",
    "cn_name": "2-氨基-5-溴-3-硝基吡啶;2-氨基-3-硝基-5-溴吡啶;",
    "alternate_name": "2-Pyridinamine, 5-bromo-3-nitro-;Pyridine, 2-amino-5-bromo-3-nitro-;5-Bromo-3-nitro-2-pyridinamine;2-Amino-5-bromo-3-nitropyridine;5-Bromo-3-nitropyridin-2-ylamine;NSC 52200;5-Bromo-3-nitropyridin-2-amine",
    "duplicated_cas_no": "",
    "SMILES": "N(=O)(=O)C1=C(N)N=CC(Br)=C1",
    "meta_data": {
        "InChI": "InChI=1S/C5H4BrN3O2/c6-3-1-4(9(10)11)5(7)8-2-3/h1-2H,(H2,7,8)",
        "InChIKey": null,
        "Canonical SMILES": "O=N(=O)C1=CC(Br)=CN=C1N",
        "Molecular Formula": "C<sub>5</sub>H<sub>4</sub>BrN<sub>3</sub>O<sub>2</sub>",
        "Molecular Mass": "218.01",
        "Melting Point": "205 °C"
    }
}