{
    "cas_no": "6521-30-8",
    "key_name": "Isoamyl 4-hydroxybenzoate",
    "cn_name": "对羟基苯甲酸异戊酯;",
    "alternate_name": "Benzoic acid, 4-hydroxy-, 3-methylbutyl ester;Benzoic acid, <em>p</em>-hydroxy-, isopentyl ester;Isopentyl alcohol, <em>p</em>-hydroxybenzoate;<em>p</em>-Hydroxybenzoic acid isoamyl ester;Isopentyl <em>p</em>-hydroxybenzoate;Isoamyl 4-hydroxybenzoate;4-Hydroxybenzoic acid isoamyl ester;Isoamyl <em>p</em>-hydroxybenzoate",
    "duplicated_cas_no": "",
    "SMILES": "C(OCCC(C)C)(=O)C1=CC=C(O)C=C1",
    "meta_data": {
        "InChI": "InChI=1S/C12H16O3/c1-9(2)7-8-15-12(14)10-3-5-11(13)6-4-10/h3-6,9,13H,7-8H2,1-2H3",
        "InChIKey": null,
        "Canonical SMILES": "O=C(OCCC(C)C)C1=CC=C(O)C=C1",
        "Molecular Formula": "C<sub>12</sub>H<sub>16</sub>O<sub>3</sub>",
        "Molecular Mass": "208.25",
        "Melting Point": "51 °C"
    }
}