{
    "cas_no": "319-85-7",
    "key_name": "β-Hexachlorocyclohexane",
    "cn_name": null,
    "alternate_name": "Cyclohexane, 1,2,3,4,5,6-hexachloro-, (1α,2β,3α,4β,5α,6β)-;Cyclohexane, 1,2,3,4,5,6-hexachloro-, β-;(1α,2β,3α,4β,5α,6β)-1,2,3,4,5,6-Hexachlorocyclohexane;β-BHC;β-Hexachlorocyclohexane;β-1,2,3,4,5,6-Hexachlorocyclohexane;β-Lindane;β-Benzene hexachloride;β-HCH;β-Hexachlorobenzene;β-Hexachloran;β-666",
    "duplicated_cas_no": "",
    "SMILES": "Cl[C@H]1[C@H](Cl)[C@@H](Cl)[C@H](Cl)[C@@H](Cl)[C@@H]1Cl",
    "meta_data": {
        "InChI": "InChI=1/C6H6Cl6/c7-1-2(8)4(10)6(12)5(11)3(1)9/h1-6H/t1-,2-,3+,4+,5-,6-",
        "InChIKey": null,
        "Canonical SMILES": "ClC1C(Cl)C(Cl)C(Cl)C(Cl)C1Cl",
        "Molecular Formula": "C<sub>6</sub>H<sub>6</sub>Cl<sub>6</sub>",
        "Molecular Mass": "290.83",
        "Boiling Point": "60 °C @ Press: 0.50 Torr",
        "Melting Point": "309 °C",
        "Density": "1.89 g/cm³ @ Temp: 19 °C"
    }
}