{
    "cas_no": "240417-00-9",
    "key_name": "2-(Diphenylphosphino)-2′-(<em>N</em>,<em>N</em>-dimethylamino)biphenyl",
    "cn_name": "2-二苯基磷-2\"-(N,N-二甲氨基)联苯;",
    "alternate_name": "[1,1′-Biphenyl]-2-amine, 2′-(diphenylphosphino)-<em>N</em>,<em>N</em>-dimethyl-;2′-(Diphenylphosphino)-<em>N</em>,<em>N</em>-dimethyl[1,1′-biphenyl]-2-amine;2-(Dimethylamino)-2′-(diphenylphosphino)biphenyl;2′-(Diphenylphosphino)-<em>N</em>,<em>N</em>′-dimethyl(1,1′-biphenyl)-2-amine;2-(Diphenylphosphino)-2′-(<em>N</em>,<em>N</em>-dimethylamino)biphenyl;PhDavePhos;2-(Dimethylamino)-2′-(diphenylphosphino)-[1,1′-biphenyl];2-(2-Diphenylphosphanylphenyl)-<em>N</em>,<em>N</em>-dimethylaniline",
    "duplicated_cas_no": "",
    "SMILES": "P(C1=C(C=CC=C1)C2=C(N(C)C)C=CC=C2)(C3=CC=CC=C3)C4=CC=CC=C4",
    "meta_data": {
        "InChI": "InChI=1S/C26H24NP/c1-27(2)25-19-11-9-17-23(25)24-18-10-12-20-26(24)28(21-13-5-3-6-14-21)22-15-7-4-8-16-22/h3-20H,1-2H3",
        "InChIKey": null,
        "Canonical SMILES": "C=1C=CC(=CC1)P(C=2C=CC=CC2)C=3C=CC=CC3C=4C=CC=CC4N(C)C",
        "Molecular Formula": "C<sub>26</sub>H<sub>24</sub>NP",
        "Molecular Mass": "381.45",
        "Melting Point": "124-126 °C"
    }
}