{
    "cas_no": "38353-09-2",
    "key_name": "2(1<em>H</em>)-Pyrimidinone, hydrochloride (1:1)",
    "cn_name": "2-羟基嘧啶盐酸盐;",
    "alternate_name": "2(1<em>H</em>)-Pyrimidinone, hydrochloride (1:1);2(1<em>H</em>)-Pyrimidinone, monohydrochloride;2-Pyrimidinol, hydrochloride;2-Hydroxypyrimidine hydrochloride;2-Pyrimidinone hydrochloride;Pyrimidin-2-one monohydrochloride;2-Hydroxypyrimidine monohydrochloride;1,2-Dihydropyrimidin-2-one hydrochloride",
    "duplicated_cas_no": "1450-92-6;53412-83-2;2607106-64-7",
    "SMILES": "O=C1NC=CC=N1.Cl",
    "meta_data": {
        "InChI": "InChI=1S/C4H4N2O.ClH/c7-4-5-2-1-3-6-4;/h1-3H,(H,5,6,7);1H",
        "InChIKey": null,
        "Canonical SMILES": "Cl.O=C1N=CC=CN1",
        "Molecular Formula": "C<sub>4</sub>H<sub>4</sub>N<sub>2</sub>O.ClH",
        "Molecular Mass": "",
        "Melting Point": "203-205 °C"
    }
}