{
    "cas_no": "64485-88-7",
    "key_name": "Ethyl (α<em>Z</em>)-2-amino-α-(methoxyimino)-4-thiazoleacetate",
    "cn_name": "氨噻肟酸乙酯;",
    "alternate_name": "4-Thiazoleacetic acid, 2-amino-α-(methoxyimino)-, ethyl ester, (α<em>Z</em>)-;4-Thiazoleacetic acid, 2-amino-α-(methoxyimino)-, ethyl ester, (<em>Z</em>)-;Ethyl (α<em>Z</em>)-2-amino-α-(methoxyimino)-4-thiazoleacetate;2-(2-Amino-4-thiazolyl)-2(<em>Z</em>)(methoxy)imino ethyl acetate;Ethyl 2-(2-aminothiazol-4-yl)-(<em>Z</em>)-2-(methoxyimino)acetate;Ethyl (<em>Z</em>)-[2-amino-4-thiazolyl](methoxyimino)acetate;Ethyl (Z)-(2-aminothiazol-4-yl)-α-methoxyiminoacetate;Ethyl (Z)-2-(2-aminothiazole-4-yl)-2-methoxyiminoacetate",
    "duplicated_cas_no": "",
    "SMILES": "C(\\C(OCC)=O)(=N\\OC)/C=1N=C(N)SC1",
    "meta_data": {
        "InChI": "InChI=1S/C8H11N3O3S/c1-3-14-7(12)6(11-13-2)5-4-15-8(9)10-5/h4H,3H2,1-2H3,(H2,9,10)/b11-6-",
        "InChIKey": null,
        "Canonical SMILES": "O=C(OCC)C(=NOC)C=1N=C(SC1)N",
        "Molecular Formula": "C<sub>8</sub>H<sub>11</sub>N<sub>3</sub>O<sub>3</sub>S",
        "Molecular Mass": "229.26",
        "Melting Point": "161-163 °C"
    }
}