{
    "cas_no": "46755-94-6",
    "key_name": "(2<em>S</em>)-1,1-Diphenyl-1,2-propanediol",
    "cn_name": "S(-)-1,1-二苯基-1,2-丙二醇;",
    "alternate_name": "1,2-Propanediol, 1,1-diphenyl-, (2<em>S</em>)-;1,2-Propanediol, 1,1-diphenyl-, (<em>S</em>)-;<em>l</em>-1,2-Propanediol, 1,1-diphenyl-;(2<em>S</em>)-1,1-Diphenyl-1,2-propanediol;(-)-1,1-Diphenyl-1,2-propanediol;(<em>S</em>)-1,1-Diphenyl-1,2-propanediol;(<em>S</em>)-(-)-1,1-Diphenyl-1,2-propanediol;(2S)-1,1-Diphenylpropane-1,2-diol",
    "duplicated_cas_no": "",
    "SMILES": "C([C@H](C)O)(O)(C1=CC=CC=C1)C2=CC=CC=C2",
    "meta_data": {
        "InChI": "InChI=1S/C15H16O2/c1-12(16)15(17,13-8-4-2-5-9-13)14-10-6-3-7-11-14/h2-12,16-17H,1H3/t12-/m0/s1",
        "InChIKey": null,
        "Canonical SMILES": "OC(C)C(O)(C=1C=CC=CC1)C=2C=CC=CC2",
        "Molecular Formula": "C<sub>15</sub>H<sub>16</sub>O<sub>2</sub>",
        "Molecular Mass": "228.29",
        "Melting Point": "92 °C"
    }
}