{
    "cas_no": "1420-55-9",
    "key_name": "Thiethylperazine",
    "cn_name": "乙巯拉嗪;乙巯匹拉嗪;硫乙哌丙嗪;硫乙拉嗪;吐来抗;",
    "alternate_name": "10<em>H</em>-Phenothiazine, 2-(ethylthio)-10-[3-(4-methyl-1-piperazinyl)propyl]-;Phenothiazine, 2-(ethylthio)-10-[3-(4-methyl-1-piperazinyl)propyl]-;2-(Ethylthio)-10-[3-(4-methyl-1-piperazinyl)propyl]-10<em>H</em>-phenothiazine;2-(Ethylthio)-10-[3-(4-methyl-1-piperazinyl)propyl]phenothiazine;Ethylthioperazine;Thiethylperazine;TEP;TEP (thiethylperazine)",
    "duplicated_cas_no": "",
    "SMILES": "C(CCN1CCN(C)CC1)N2C=3C(SC=4C2=CC=CC4)=CC=C(SCC)C3",
    "meta_data": {
        "InChI": "InChI=1S/C22H29N3S2/c1-3-26-18-9-10-22-20(17-18)25(19-7-4-5-8-21(19)27-22)12-6-11-24-15-13-23(2)14-16-24/h4-5,7-10,17H,3,6,11-16H2,1-2H3",
        "InChIKey": null,
        "Canonical SMILES": "S1C=2C=CC=CC2N(C3=CC(SCC)=CC=C13)CCCN4CCN(C)CC4",
        "Molecular Formula": "C<sub>22</sub>H<sub>29</sub>N<sub>3</sub>S<sub>2</sub>",
        "Molecular Mass": "399.62",
        "Boiling Point": "227 °C @ Press: 0.01 Torr",
        "Melting Point": "62-64 °C"
    }
}