{
    "cas_no": "4664-00-0",
    "key_name": "5<em>H</em>-Pyrrolo[3,4-<em>b</em>]pyridine-5,7(6<em>H</em>)-dione",
    "cn_name": "2，3-吡啶二酰亚胺;2，3-吡啶二酰亚胺;",
    "alternate_name": "5<em>H</em>-Pyrrolo[3,4-<em>b</em>]pyridine-5,7(6<em>H</em>)-dione;2,3-Pyridinedicarboximide;Quinolinimide;Pyrrolo[3,4-<em>b</em>]pyridine-5,7-dione;2,3-Pyridinecarboximide;NSC 405554",
    "duplicated_cas_no": "",
    "SMILES": "O=C1C=2C(C(=O)N1)=NC=CC2",
    "meta_data": {
        "InChI": "InChI=1S/C7H4N2O2/c10-6-4-2-1-3-8-5(4)7(11)9-6/h1-3H,(H,9,10,11)",
        "InChIKey": null,
        "Canonical SMILES": "O=C1NC(=O)C2=CC=CN=C12",
        "Molecular Formula": "C<sub>7</sub>H<sub>4</sub>N<sub>2</sub>O<sub>2</sub>",
        "Molecular Mass": "148.12",
        "Melting Point": "230-231 °C"
    }
}