{
    "cas_no": "13600-43-6",
    "key_name": "4-(Trifluoromethyl)-3-pyridinecarbonitrile",
    "cn_name": "3-氰基-4-三氟甲基吡啶;4-(三氟甲基)烟腈;",
    "alternate_name": "3-Pyridinecarbonitrile, 4-(trifluoromethyl)-;Nicotinonitrile, 4-(trifluoromethyl)-;4-(Trifluoromethyl)-3-pyridinecarbonitrile;3-Cyano-4-(trifluoromethyl)pyridine;4-(Trifluoromethyl)nicotinonitrile",
    "duplicated_cas_no": "",
    "SMILES": "C(#N)C=1C(C(F)(F)F)=CC=NC1",
    "meta_data": {
        "InChI": "InChI=1S/C7H3F3N2/c8-7(9,10)6-1-2-12-4-5(6)3-11/h1-2,4H",
        "InChIKey": null,
        "Canonical SMILES": "N#CC=1C=NC=CC1C(F)(F)F",
        "Molecular Formula": "C<sub>7</sub>H<sub>3</sub>F<sub>3</sub>N<sub>2</sub>",
        "Molecular Mass": "172.11",
        "Boiling Point": "70 °C"
    }
}