{
    "cas_no": "5736-85-6",
    "key_name": "4-Propoxybenzaldehyde",
    "cn_name": "4-丙氧基苯甲醛;",
    "alternate_name": "Benzaldehyde, 4-propoxy-;Benzaldehyde, <em>p</em>-propoxy-;4-Propoxybenzaldehyde;<em>p</em>-Propoxybenzaldehyde;1,4-Propoxybenzaldehyde;NSC 32509;NSC 406729;<em>p</em>-<em>n</em>-Propoxybenzaldehyde;4-Propyloxybenzaldehyde",
    "duplicated_cas_no": "",
    "SMILES": "O(CCC)C1=CC=C(C=O)C=C1",
    "meta_data": {
        "InChI": "InChI=1S/C10H12O2/c1-2-7-12-10-5-3-9(8-11)4-6-10/h3-6,8H,2,7H2,1H3",
        "InChIKey": null,
        "Canonical SMILES": "O=CC1=CC=C(OCCC)C=C1",
        "Molecular Formula": "C<sub>10</sub>H<sub>12</sub>O<sub>2</sub>",
        "Molecular Mass": "164.20",
        "Boiling Point": "129-130 °C @ Press: 10 Torr",
        "Melting Point": "268 °C"
    }
}