{
    "cas_no": "10042-88-3",
    "key_name": "Terbium chloride",
    "cn_name": "三氯化铽(III);氯化铽(Ⅲ)六水;三氯化铽；氯化铽;",
    "alternate_name": "Terbium chloride (TbCl<sub>3</sub>);Terbium trichloride;Terbium(III) chloride;Terbium chloride;NSC 621599",
    "duplicated_cas_no": "1876462-13-3",
    "SMILES": "[Tb](Cl)(Cl)Cl",
    "meta_data": {
        "InChI": "InChI=1S/3ClH.Tb/h3*1H;/q;;;+3/p-3",
        "InChIKey": null,
        "Canonical SMILES": "Cl[Tb](Cl)Cl",
        "Molecular Formula": "Cl<sub>3</sub>Tb",
        "Molecular Mass": "",
        "Melting Point": "581 °C"
    }
}