{
    "cas_no": "1918-02-1",
    "key_name": "Picloram",
    "cn_name": "4-氨基-3,5,6-三氯吡啶羧酸;毒莠定;",
    "alternate_name": "2-Pyridinecarboxylic acid, 4-amino-3,5,6-trichloro-;Picolinic acid, 4-amino-3,5,6-trichloro-;4-Amino-3,5,6-trichloro-2-pyridinecarboxylic acid;4-Amino-3,5,6-trichloropicolinic acid;4-Amino-3,5,6-trichloro-2-picolinic acid;ATCP;Picloram;Tordon;3,5,6-Trichloro-4-aminopicolinic acid;4-Aminotrichloropicolinic acid;4-Amino-3,5,6-trichloropyridine-2-carboxylic acid;Grazon PC;NSC 233899;Padron;Padron (herbicide);MeSH ID: D010846",
    "duplicated_cas_no": "",
    "SMILES": "C(O)(=O)C1=C(Cl)C(N)=C(Cl)C(Cl)=N1",
    "meta_data": {
        "InChI": "InChI=1S/C6H3Cl3N2O2/c7-1-3(10)2(8)5(9)11-4(1)6(12)13/h(H2,10,11)(H,12,13)",
        "InChIKey": null,
        "Canonical SMILES": "O=C(O)C1=NC(Cl)=C(Cl)C(N)=C1Cl",
        "Molecular Formula": "C<sub>6</sub>H<sub>3</sub>Cl<sub>3</sub>N<sub>2</sub>O<sub>2</sub>",
        "Molecular Mass": "241.46",
        "Melting Point": "218.5 °C"
    }
}