{
    "cas_no": "1198-47-6",
    "key_name": "6-Methylthioguanine",
    "cn_name": "2-氨基-6-甲基巯嘌呤;2-氨基-6-巯嘌呤;",
    "alternate_name": "9<em>H</em>-Purin-2-amine, 6-(methylthio)-;Purine, 2-amino-6-(methylthio)-;1<em>H</em>-Purin-2-amine, 6-(methylthio)-;6-(Methylthio)-9<em>H</em>-purin-2-amine;2-Amino-6-methylthiopurine;2-Amino-6-methylmercaptopurine;6-Methylthioguanine;<em>S</em>-Methyl-6-thioguanine;<em>S</em><sup>6</sup>-Methyl-6-thioguanine;NSC 29420",
    "duplicated_cas_no": "2002-61-1;37527-14-3",
    "SMILES": "S(C)C1=C2C(=NC(N)=N1)N=CN2",
    "meta_data": {
        "InChI": "InChI=1S/C6H7N5S/c1-12-5-3-4(9-2-8-3)10-6(7)11-5/h2H,1H3,(H3,7,8,9,10,11)",
        "InChIKey": null,
        "Canonical SMILES": "N1=CNC2=C1N=C(N=C2SC)N",
        "Molecular Formula": "C<sub>6</sub>H<sub>7</sub>N<sub>5</sub>S",
        "Molecular Mass": "181.22",
        "Melting Point": "237-241 °C (decomp)"
    }
}