{
    "cas_no": "103-90-2",
    "key_name": "Acetaminophen",
    "cn_name": "N-乙酰对氨基酚;对羟基乙酰苯胺;对乙酰氨基酚;扑热息痛;",
    "alternate_name": "Acetamide, <em>N</em>-(4-hydroxyphenyl)-;Acetanilide, 4′-hydroxy-;<em>N</em>-(4-Hydroxyphenyl)acetamide;Acetagesic;<em>p</em>-Acetamidophenol;4-Acetamidophenol;Acetaminophen;<em>N</em>-Acetyl-<em>p</em>-aminophenol;Alvedon;Amadil;Anelix;Apamide;Calpol;Clixodyne;Eneril;Febro-Gesic;Febrolin;Fendon;4′-Hydroxyacetanilide;<em>p</em>-Hydroxyacetanilide;Lestemp;Liquagesic;Lonarid;Lyteca;Lyteca Syrup;Multin;NAPA;NAPAP;Nobedon;Panadol;Paracetamol;Tabalgin;Tempra;Tralgon;Paralen;Tylenol;Valgesic;APAP;Pyrinazine;4-Hydroxyacetanilide;4-(Acetylamino)phenol;<em>N</em>-Acetyl-4-aminophenol;<em>p</em>-(Acetylamino)phenol;Dymadon;Naprinol;Panets;Homoolan;Febrilix;Abensanil;Anaflon;Hedex;Pacemo;Parmol;Acamol;Bickie-mol;Dial-a-gesic;Temlo;Valadol;Cetadol;Acetalgin;Finimal;Dirox;Paracetamole;Ben-u-ron;Apamid;Acetaminofen;Phendon;Pedric;Napafen;Tempanal;Algotropyl;4-Acetaminophenol;Paracetamol DC;Acenol;Acenol (pharmaceutical);<em>N</em>-Acetyl-4-hydroxyaniline;Biocetamol;Duorol;Crocin;NAPA (analgesic);Fepanil;4-(<em>N</em>-Acetylamino)phenol;<em>p</em>-Acetoaminophen;Gattaphen T;Panodil;Pinex;Pinex (pharmaceutical);Tachipirina;Paramol;Efferalgan;Citramon P;Daphalgan;Gelocatil;Resprin;Vick Pyrena;Pamol;Panadol Extend;Exdol;Ortensan;Pacemol;Anhiba;Alpiny;Paraspen;Dolprone;Paldesic;Datril;Banesin;Enelfa;Eu-Med;Tapar;Nebs;Doliprane;Febrilex;Dafalgan;Panaleve;Claratal;Momentum;Korum;Salzone;<em>p</em>-Aceaminophenol;Pasolind N;Disprol;Captin;Phenaphen;Parelan;Panasorb;Prodafalgan;Resfenol;NSC 109028;NSC 3991;Rhodapop NCR;Panadol Actifast;Perfalgan;Endophy;Puerxitong;Jin Gang;Daga;Sara;panadeine;Minoset;Minoset Plus;Vermidon;TylolHot;Gutte Enteric;Parageniol;Pyral;Adol;Colimex tabs;Cyclopam;Aminofen;Para-Tabs;Paracip;Dolo;Rapidol;Sanador;<em>N</em>-(<em>p</em>-Hydroxyphenyl)acetamide;Dolo 650;Femol;Tyfy;Paracet;<em>N</em>-(4-Hydroxyphenyl)ethanamide;Pyril;Pyretinol;Pacimol;Compap L;Pyridol;Eperimol;Huangnamin;Tamol (pharmaceutical);Aphlogis;Paraceta;Paralyoc;MeSH ID: D000082;4-Hydroxyacetaminophen;Mexalen;Tachiprina;McXYPara;Sanmol (pharmaceutical);Dumin;Ace (pharmaceutical);Vetocin;Cetamol;Panadol Advance;Asmol (pharmaceutical);Dolomol;Para-Denk 500;Elymol;Agomol;Diodol;Parakant;Paracetamol AL 500;Paracetamol Winthrop;Antidol (pharmaceutical)",
    "duplicated_cas_no": "8055-08-1;719293-04-6;1430221-00-3",
    "SMILES": "N(C(C)=O)C1=CC=C(O)C=C1",
    "meta_data": {
        "InChI": "InChI=1S/C8H9NO2/c1-6(10)9-7-2-4-8(11)5-3-7/h2-5,11H,1H3,(H,9,10)",
        "InChIKey": null,
        "Canonical SMILES": "O=C(NC1=CC=C(O)C=C1)C",
        "Molecular Formula": "C<sub>8</sub>H<sub>9</sub>NO<sub>2</sub>",
        "Molecular Mass": "151.16",
        "Boiling Point": "500 °C",
        "Melting Point": "169-170.5 °C",
        "Density": "1.293 g/cm³ @ Temp: 21 °C"
    }
}