{
    "cas_no": "1508-76-5",
    "key_name": "Procyclidine hydrochloride",
    "cn_name": "丙环定盐酸盐;丙环定盐酸盐;",
    "alternate_name": "1-Pyrrolidinepropanol, α-cyclohexyl-α-phenyl-, hydrochloride (1:1);1-Pyrrolidinepropanol, α-cyclohexyl-α-phenyl-, hydrochloride;1-Cyclohexyl-1-phenyl-3-pyrrolidino-1-propanol hydrochloride;Kemadrin hydrochloride;Tricyclamol hydrochloride;Procyclidine hydrochloride;Kemadrin;(±)-Procyclidine hydrochloride;Osnervan;Arpicolin;1-Cyclohexyl-1-phenyl-3-(pyrrolidin-1-yl)propan-1-ol hydrochloride",
    "duplicated_cas_no": "30953-84-5",
    "SMILES": "C(CCN1CCCC1)(O)(C2CCCCC2)C3=CC=CC=C3.Cl",
    "meta_data": {
        "InChI": "InChI=1S/C19H29NO.ClH/c21-19(17-9-3-1-4-10-17,18-11-5-2-6-12-18)13-16-20-14-7-8-15-20;/h1,3-4,9-10,18,21H,2,5-8,11-16H2;1H",
        "InChIKey": null,
        "Canonical SMILES": "Cl.OC(C=1C=CC=CC1)(CCN2CCCC2)C3CCCCC3",
        "Molecular Formula": "C<sub>19</sub>H<sub>29</sub>NO.ClH",
        "Molecular Mass": "",
        "Melting Point": "159-164 °C"
    }
}