{
    "cas_no": "1559-36-0",
    "key_name": "Diethylene glycol mono(2-ethylhexyl) ether",
    "cn_name": "2-[2-[(2-乙己基)氧]乙氧基]-乙醇;二甘醇单(2-乙己基)醚;",
    "alternate_name": "Ethanol, 2-[2-[(2-ethylhexyl)oxy]ethoxy]-;2-[2-[(2-Ethylhexyl)oxy]ethoxy]ethanol;Diethylene glycol mono(2-ethylhexyl) ether;2-Ethylhexyloxy-2-ethoxyethyl alcohol;Kyowanol OX 20;OX 20;Ethal EH 2;EHDG;2-[2-(2-Ethylhexyloxy)ethoxy]ethanol;Newcol 1002;Diethylene glycol 2-ethylhexyl ether;Diethyleneglycol ethylhexyl ether;2-[2-(2-Ethylhexoxy)ethoxy]ethanol",
    "duplicated_cas_no": "154427-52-8;195454-57-0",
    "SMILES": "C(COCCOCCO)(CCCC)CC",
    "meta_data": {
        "InChI": "InChI=1S/C12H26O3/c1-3-5-6-12(4-2)11-15-10-9-14-8-7-13/h12-13H,3-11H2,1-2H3",
        "InChIKey": null,
        "Canonical SMILES": "OCCOCCOCC(CC)CCCC",
        "Molecular Formula": "C<sub>12</sub>H<sub>26</sub>O<sub>3</sub>",
        "Molecular Mass": "218.33",
        "Boiling Point": "272 °C"
    }
}