{
    "cas_no": "95-30-7",
    "key_name": "Carbamodithioic acid, <em>N</em>,<em>N</em>-diethyl-, 2-benzothiazolyl ester",
    "cn_name": null,
    "alternate_name": "Carbamodithioic acid, <em>N</em>,<em>N</em>-diethyl-, 2-benzothiazolyl ester;Carbamic acid, diethyldithio-, 2-benzothiazolyl ester;Carbamodithioic acid, diethyl-, 2-benzothiazolyl ester;2-Benzothiazolethiol, diethyldithiocarbamate (ester);2-Benzothiazyl-<em>N</em>,<em>N</em>-diethylthiocarbamylsulfide;Ethylac;Diethyldithiocarbamic acid 2-benzothiazolyl ester;<em>N</em>,<em>N</em>-Diethylthiocarbamoyl 2-benzothiazolyl sulfide;2-Benzothiazolyl diethyldithiocarbamate;2-(<em>N</em>,<em>N</em>-Diethylthiocarbamoylthio)benzothiazole;Nocceler 64;NSC 4035;Accelerator E",
    "duplicated_cas_no": "",
    "SMILES": "S(C(N(CC)CC)=S)C1=NC=2C(S1)=CC=CC2",
    "meta_data": {
        "InChI": "InChI=1S/C12H14N2S3/c1-3-14(4-2)12(15)17-11-13-9-7-5-6-8-10(9)16-11/h5-8H,3-4H2,1-2H3",
        "InChIKey": null,
        "Canonical SMILES": "S=C(SC1=NC=2C=CC=CC2S1)N(CC)CC",
        "Molecular Formula": "C<sub>12</sub>H<sub>14</sub>N<sub>2</sub>S<sub>3</sub>",
        "Molecular Mass": "282.45",
        "Melting Point": "78-79 °C"
    }
}