{
    "cas_no": "544-47-8",
    "key_name": "Carbamimidothioic acid, (4-chlorophenyl)methyl ester, hydrochloride (1:1)",
    "cn_name": "S-(4-氯苄基)氯化异硫脲;",
    "alternate_name": "Carbamimidothioic acid, (4-chlorophenyl)methyl ester, hydrochloride (1:1);Pseudourea, 2-(<em>p</em>-chlorobenzyl)-2-thio-, monohydrochloride;Carbamimidothioic acid, (4-chlorophenyl)methyl ester, monohydrochloride;Pseudourea, 2-(<em>p</em>-chlorobenzyl)-2-thio-, hydrochloride;<em>p</em>-Chlorobenzylpseudothiuronium chloride;2-(<em>p</em>-Chlorobenzyl)-2-thiopseudourea hydrochloride;<em>S</em>-(<em>p</em>-Chlorobenzyl)thiouronium chloride;<em>p</em>-Chlorobenzylisothiuronium chloride;2-(4-Chlorobenzyl)isothiouronium chloride",
    "duplicated_cas_no": "42023-49-4",
    "SMILES": "C(SC(=N)N)C1=CC=C(Cl)C=C1.Cl",
    "meta_data": {
        "InChI": "InChI=1S/C8H9ClN2S.ClH/c9-7-3-1-6(2-4-7)5-12-8(10)11;/h1-4H,5H2,(H3,10,11);1H",
        "InChIKey": null,
        "Canonical SMILES": "Cl.ClC1=CC=C(C=C1)CSC(=N)N",
        "Molecular Formula": "C<sub>8</sub>H<sub>9</sub>ClN<sub>2</sub>S.ClH",
        "Molecular Mass": "",
        "Melting Point": "197 °C"
    }
}