{
    "cas_no": "2365-85-7",
    "key_name": "3-Amino-4-fluorobenzoic acid",
    "cn_name": "3-氨基-4-氟苯甲酸;",
    "alternate_name": "Benzoic acid, 3-amino-4-fluoro-;3-Amino-4-fluorobenzoic acid;4-Fluoro-3-aminobenzoic acid;NSC 127014",
    "duplicated_cas_no": "",
    "SMILES": "C(O)(=O)C1=CC(N)=C(F)C=C1",
    "meta_data": {
        "InChI": "InChI=1S/C7H6FNO2/c8-5-2-1-4(7(10)11)3-6(5)9/h1-3H,9H2,(H,10,11)",
        "InChIKey": null,
        "Canonical SMILES": "O=C(O)C1=CC=C(F)C(N)=C1",
        "Molecular Formula": "C<sub>7</sub>H<sub>6</sub>FNO<sub>2</sub>",
        "Molecular Mass": "155.13",
        "Melting Point": "182-183 °C (decomp)"
    }
}