{
    "cas_no": "1455-20-5",
    "key_name": "2-Butylthiophene",
    "cn_name": "2-正丁基噻吩;2-正丁基噻吩;",
    "alternate_name": "Thiophene, 2-butyl-;2-Butylthiophene;2-<em>n</em>-Butylthiophene",
    "duplicated_cas_no": "",
    "SMILES": "C(CCC)C1=CC=CS1",
    "meta_data": {
        "InChI": "InChI=1S/C8H12S/c1-2-3-5-8-6-4-7-9-8/h4,6-7H,2-3,5H2,1H3",
        "InChIKey": null,
        "Canonical SMILES": "S1C=CC=C1CCCC",
        "Molecular Formula": "C<sub>8</sub>H<sub>12</sub>S",
        "Molecular Mass": "140.25",
        "Boiling Point": "181.5 °C",
        "Density": "0.9554 g/cm³ @ Temp: 20 °C"
    }
}