{
    "cas_no": "13060-14-5",
    "key_name": "(+)-Yangambin",
    "cn_name": null,
    "alternate_name": "1<em>H</em>,3<em>H</em>-Furo[3,4-<em>c</em>]furan, tetrahydro-1,4-bis(3,4,5-trimethoxyphenyl)-, (1<em>S</em>,3a<em>R</em>,4<em>S</em>,6a<em>R</em>)-;Yangambin;1<em>H</em>,3<em>H</em>-Furo[3,4-<em>c</em>]furan, 3aα,4,6,6aα-tetrahydro-1α,4α-bis(3,4,5-trimethoxyphenyl)-;1<em>H</em>,3<em>H</em>-Furo[3,4-<em>c</em>]furan, tetrahydro-1,4-bis(3,4,5-trimethoxyphenyl)-, [1<em>S</em>-(1α,3aα,4α,6aα)]-;Lirioresinol B, dimethyl-;(1<em>S</em>,3a<em>R</em>,4<em>S</em>,6a<em>R</em>)-Tetrahydro-1,4-bis(3,4,5-trimethoxyphenyl)-1<em>H</em>,3<em>H</em>-furo[3,4-<em>c</em>]furan;(+)-<em>O</em>,<em>O</em>-Dimethyllirioresinol B;Lirioresinol B, <em>O</em>,<em>O</em>-dimethyl-;Lirioresinol B dimethyl ether;<em>O</em>,<em>O</em>-Dimethyllirioresinol B;(+)-Yangambin;(+)-Yangabin;Yangabin",
    "duplicated_cas_no": "19046-37-8;34612-48-1",
    "SMILES": "O(C)C=1C=C([C@@H]2[C@@]3([C@@]([C@H](OC3)C4=CC(OC)=C(OC)C(OC)=C4)(CO2)[H])[H])C=C(OC)C1OC",
    "meta_data": {
        "InChI": "InChI=1S/C24H30O8/c1-25-17-7-13(8-18(26-2)23(17)29-5)21-15-11-32-22(16(15)12-31-21)14-9-19(27-3)24(30-6)20(10-14)28-4/h7-10,15-16,21-22H,11-12H2,1-6H3/t15-,16-,21+,22+/m0/s1",
        "InChIKey": null,
        "Canonical SMILES": "O(C=1C=C(C=C(OC)C1OC)C2OCC3C(OCC23)C4=CC(OC)=C(OC)C(OC)=C4)C",
        "Molecular Formula": "C<sub>24</sub>H<sub>30</sub>O<sub>8</sub>",
        "Molecular Mass": "446.49",
        "Melting Point": "105-106 °C"
    }
}