{
    "cas_no": "13626-60-3",
    "key_name": "3-Hydroxyisoxazole-5-carboxylic acid",
    "cn_name": null,
    "alternate_name": "5-Isoxazolecarboxylic acid, 2,3-dihydro-3-oxo-;5-Isoxazolecarboxylic acid, 3-hydroxy-;2,3-Dihydro-3-oxo-5-isoxazolecarboxylic acid;3-Hydroxyisoxazole-5-carboxylic acid;3-Oxo-2,3-dihydroisoxazole-5-carboxylic acid;3-Hydroxy-1,2-oxazole-5-carboxylic acid;3-Oxo-2,3-dihydro-1,2-oxazole-5-carboxylic acid;3-Oxo-1,2-oxazole-5-carboxylic acid",
    "duplicated_cas_no": "",
    "SMILES": "C(O)(=O)C1=CC(=O)NO1",
    "meta_data": {
        "InChI": "InChI=1S/C4H3NO4/c6-3-1-2(4(7)8)9-5-3/h1H,(H,5,6)(H,7,8)",
        "InChIKey": null,
        "Canonical SMILES": "O=C(O)C=1ONC(=O)C1",
        "Molecular Formula": "C<sub>4</sub>H<sub>3</sub>NO<sub>4</sub>",
        "Molecular Mass": "129.07",
        "Melting Point": "265 °C"
    }
}