{
    "cas_no": "162758-35-2",
    "key_name": "5-(4-Chlorophenyl)-1-(2,4-dichlorophenyl)-4-methyl-1<em>H</em>-pyrazole-3-carboxylic acid",
    "cn_name": "1-(2,4-二氯苯基)-5-对氯苯基-4-甲基-吡唑-3-甲酸;",
    "alternate_name": "1<em>H</em>-Pyrazole-3-carboxylic acid, 5-(4-chlorophenyl)-1-(2,4-dichlorophenyl)-4-methyl-;5-(4-Chlorophenyl)-1-(2,4-dichlorophenyl)-4-methyl-1<em>H</em>-pyrazole-3-carboxylic acid;1-(2,4-Dichlorophenyl)-5-(4-chlorophenyl)-4-methyl-1<em>H</em>-pyrazole-3-carboxylic acid;5-(4-Chlorophenyl)-1-(2,4-dichlorophenyl)-4-methylpyrazole-3-carboxylic acid",
    "duplicated_cas_no": "1265634-21-6",
    "SMILES": "CC1=C(N(N=C1C(O)=O)C2=C(Cl)C=C(Cl)C=C2)C3=CC=C(Cl)C=C3",
    "meta_data": {
        "InChI": "InChI=1S/C17H11Cl3N2O2/c1-9-15(17(23)24)21-22(14-7-6-12(19)8-13(14)20)16(9)10-2-4-11(18)5-3-10/h2-8H,1H3,(H,23,24)",
        "InChIKey": null,
        "Canonical SMILES": "O=C(O)C1=NN(C2=CC=C(Cl)C=C2Cl)C(C=3C=CC(Cl)=CC3)=C1C",
        "Molecular Formula": "C<sub>17</sub>H<sub>11</sub>Cl<sub>3</sub>N<sub>2</sub>O<sub>2</sub>",
        "Molecular Mass": "381.64",
        "Melting Point": "202-203 °C"
    }
}