{
    "cas_no": "20925-27-3",
    "key_name": "4-Amino-2-chlorobenzonitrile",
    "cn_name": "2-氯-4-氨基苯腈;4-氨基-2-氯苯甲腈;3-氯-4-氰基苯胺;邻氯对氨基苯腈;",
    "alternate_name": "Benzonitrile, 4-amino-2-chloro-;4-Amino-2-chlorobenzonitrile;3-Chloro-4-cyanoaniline;2-Chloro-4-aminobenzonitrile;(3-Chloro-4-cyanophenyl)amine",
    "duplicated_cas_no": "",
    "SMILES": "C(#N)C1=C(Cl)C=C(N)C=C1",
    "meta_data": {
        "InChI": "InChI=1S/C7H5ClN2/c8-7-3-6(10)2-1-5(7)4-9/h1-3H,10H2",
        "InChIKey": null,
        "Canonical SMILES": "N#CC1=CC=C(N)C=C1Cl",
        "Molecular Formula": "C<sub>7</sub>H<sub>5</sub>ClN<sub>2</sub>",
        "Molecular Mass": "152.58",
        "Melting Point": "118 °C"
    }
}