{
    "cas_no": "130-61-0",
    "key_name": "Thioridazine hydrochloride",
    "cn_name": "盐酸硫利达嗪;甲硫达嗪盐酸盐;10-[2-(1-甲基-2-哌啶基)乙基]-2-(甲硫基)-10H-吩噻嗪盐酸盐;",
    "alternate_name": "10<em>H</em>-Phenothiazine, 10-[2-(1-methyl-2-piperidinyl)ethyl]-2-(methylthio)-, hydrochloride (1:1);Phenothiazine, 10-[2-(1-methyl-2-piperidyl)ethyl]-2-(methylthio)-, monohydrochloride;10<em>H</em>-Phenothiazine, 10-[2-(1-methyl-2-piperidinyl)ethyl]-2-(methylthio)-, monohydrochloride;Phenothiazine, 10-[2-(1-methyl-2-piperidyl)ethyl]-2-(methylthio)-, hydrochloride;Mellaril hydrochloride;2-Methylmercapto-10-[2-(<em>N</em>-methyl-2-piperidyl)ethyl]phenothiazine hydrochloride;10-[3-(1-Methyl-2-piperidyl)ethyl]-2-(methylthio)phenothiazine hydrochloride;Thioridazine hydrochloride;Melleril;Mellaril;Melleril (tablet);Orsanil;Stalleril;Aldazine;Ridazin;Novoridazine;Melleretten;Mallorol;NSC 186060;Thioril;Thiozine;10-[2-(1-Methylpiperidin-2-yl)ethyl]-2-(methylsulfanyl)-10<em>H</em>-phenothiazine hydrochloride",
    "duplicated_cas_no": "107388-89-6",
    "SMILES": "C(CC1N(C)CCCC1)N2C=3C(SC=4C2=CC=CC4)=CC=C(SC)C3.Cl",
    "meta_data": {
        "InChI": "InChI=1S/C21H26N2S2.ClH/c1-22-13-6-5-7-16(22)12-14-23-18-8-3-4-9-20(18)25-21-11-10-17(24-2)15-19(21)23;/h3-4,8-11,15-16H,5-7,12-14H2,1-2H3;1H",
        "InChIKey": null,
        "Canonical SMILES": "Cl.S1C=2C=CC=CC2N(C3=CC(SC)=CC=C13)CCC4N(C)CCCC4",
        "Molecular Formula": "C<sub>21</sub>H<sub>26</sub>N<sub>2</sub>S<sub>2</sub>.ClH",
        "Molecular Mass": "",
        "Melting Point": "158-160 °C"
    }
}