{
    "cas_no": "769-78-8",
    "key_name": "Vinyl benzoate",
    "cn_name": null,
    "alternate_name": "Benzoic acid, ethenyl ester;Benzoic acid, vinyl ester;Vinyl benzoate;Ethenyl benzoate;NSC 2296",
    "duplicated_cas_no": "",
    "SMILES": "C(OC=C)(=O)C1=CC=CC=C1",
    "meta_data": {
        "InChI": "InChI=1S/C9H8O2/c1-2-11-9(10)8-6-4-3-5-7-8/h2-7H,1H2",
        "InChIKey": null,
        "Canonical SMILES": "O=C(OC=C)C=1C=CC=CC1",
        "Molecular Formula": "C<sub>9</sub>H<sub>8</sub>O<sub>2</sub>",
        "Molecular Mass": "148.16",
        "Boiling Point": "72-74 °C @ Press: 3 Torr",
        "Density": "1.068 g/cm³ @ Temp: 20 °C"
    }
}