{
    "cas_no": "86398-94-9",
    "key_name": "[2,6-Dichloro-4-(trifluoromethyl)phenyl]hydrazine",
    "cn_name": "2,6-二氯-4-三氟甲基苯肼;2,6-二氯-4-(三氟甲基)苯肼;",
    "alternate_name": "Hydrazine, [2,6-dichloro-4-(trifluoromethyl)phenyl]-;[2,6-Dichloro-4-(trifluoromethyl)phenyl]hydrazine",
    "duplicated_cas_no": "",
    "SMILES": "C(F)(F)(F)C1=CC(Cl)=C(NN)C(Cl)=C1",
    "meta_data": {
        "InChI": "InChI=1S/C7H5Cl2F3N2/c8-4-1-3(7(10,11)12)2-5(9)6(4)14-13/h1-2,14H,13H2",
        "InChIKey": null,
        "Canonical SMILES": "FC(F)(F)C1=CC(Cl)=C(NN)C(Cl)=C1",
        "Molecular Formula": "C<sub>7</sub>H<sub>5</sub>Cl<sub>2</sub>F<sub>3</sub>N<sub>2</sub>",
        "Molecular Mass": "245.03",
        "Melting Point": "65-67 °C"
    }
}