{
    "cas_no": "18797-79-0",
    "key_name": "(+)-Corynoline",
    "cn_name": null,
    "alternate_name": "[1,3]Benzodioxolo[5,6-<em>c</em>]-1,3-dioxolo[4,5-<em>i</em>]phenanthridin-6-ol, 5b,6,7,12b,13,14-hexahydro-5b,13-dimethyl-, (5b<em>R</em>,6<em>S</em>,12b<em>R</em>)-;Corynoline;Chelidonine, 13-methyl-;[1,3]Benzodioxolo[5,6-<em>c</em>]-1,3-dioxolo[4,5-<em>i</em>]phenanthridine, chelidonine deriv.;(5b<em>R</em>,6<em>S</em>,12b<em>R</em>)-5b,6,7,12b,13,14-Hexahydro-5b,13-dimethyl[1,3]benzodioxolo[5,6-<em>c</em>]-1,3-dioxolo[4,5-<em>i</em>]phenanthridin-6-ol;(+)-Corynoline;[1,3]Benzodioxolo[5,6-<em>c</em>]-1,3-dioxolo[4,5-<em>i</em>]phenanthridin-6-ol, 5b,6,7,12b,13,14-hexahydro-5b,13-dimethyl-, [5b<em>R</em>-(5bα,6β,12bα)]-",
    "duplicated_cas_no": "",
    "SMILES": "C[C@@]12[C@@](C=3C(C[C@@H]1O)=CC4=C(C3)OCO4)(N(C)CC=5C2=CC=C6C5OCO6)[H]",
    "meta_data": {
        "InChI": "InChI=1S/C21H21NO5/c1-21-14-3-4-15-19(27-10-24-15)13(14)8-22(2)20(21)12-7-17-16(25-9-26-17)5-11(12)6-18(21)23/h3-5,7,18,20,23H,6,8-10H2,1-2H3/t18-,20+,21-/m0/s1",
        "InChIKey": null,
        "Canonical SMILES": "OC1CC2=CC=3OCOC3C=C2C4N(C)CC5=C6OCOC6=CC=C5C14C",
        "Molecular Formula": "C<sub>21</sub>H<sub>21</sub>NO<sub>5</sub>",
        "Molecular Mass": "367.40",
        "Melting Point": "180-183 °C"
    }
}