{
    "cas_no": "109-59-1",
    "key_name": "2-Isopropoxyethanol",
    "cn_name": "2-异丙氧基乙醇;乙二醇单异丙基醚;2-异丙氧基乙醇;乙二醇异丙醚;异丙氧基乙醇;乙二醇异丙基醚;2-异丙氧基乙;",
    "alternate_name": "Ethanol, 2-(1-methylethoxy)-;Ethanol, 2-isopropoxy-;2-(1-Methylethoxy)ethanol;Dowanal EiPAT;Ethylene glycol isopropyl ether;Ethylene glycol monisopropyl ether;Ethylene glycol monoisopropyl ether;β-Hydroxyethyl isopropyl ether;2-Isopropoxyethanol;Isopropyl Cellosolve;Isopropyl Oxitol;Ucar AC;2-Isopropyloxyethanol;NSC 1259;2-[(1-Methylethyl)oxy]ethanol;2-(Propan-2-yloxy)ethanol;2-(Propan-2-yloxy)ethan-1-ol",
    "duplicated_cas_no": "",
    "SMILES": "O(C(C)C)CCO",
    "meta_data": {
        "InChI": "InChI=1S/C5H12O2/c1-5(2)7-4-3-6/h5-6H,3-4H2,1-2H3",
        "InChIKey": null,
        "Canonical SMILES": "OCCOC(C)C",
        "Molecular Formula": "C<sub>5</sub>H<sub>12</sub>O<sub>2</sub>",
        "Molecular Mass": "104.15",
        "Boiling Point": "144 °C @ Press: 743 Torr",
        "Density": "0.9030 g/cm³ @ Temp: 20 °C"
    }
}