{
    "cas_no": "23659-87-2",
    "key_name": "4,6-Dimethoxy-1<em>H</em>-indole",
    "cn_name": "4,6-二甲氧基吲哚;",
    "alternate_name": "1<em>H</em>-Indole, 4,6-dimethoxy-;Indole, 4,6-dimethoxy-;4,6-Dimethoxy-1<em>H</em>-indole;4,6-Dimethoxyindole",
    "duplicated_cas_no": "",
    "SMILES": "O(C)C1=C2C(=CC(OC)=C1)NC=C2",
    "meta_data": {
        "InChI": "InChI=1S/C10H11NO2/c1-12-7-5-9-8(3-4-11-9)10(6-7)13-2/h3-6,11H,1-2H3",
        "InChIKey": null,
        "Canonical SMILES": "O(C=1C=C(OC)C=2C=CNC2C1)C",
        "Molecular Formula": "C<sub>10</sub>H<sub>11</sub>NO<sub>2</sub>",
        "Molecular Mass": "177.20",
        "Melting Point": "118-120 °C"
    }
}