{
    "cas_no": "24880-43-1",
    "key_name": "Mesembrine",
    "cn_name": null,
    "alternate_name": "6<em>H</em>-Indol-6-one, 3a-(3,4-dimethoxyphenyl)octahydro-1-methyl-, (3a<em>S</em>,7a<em>S</em>)-;4α,9α-Mesembrine;6<em>H</em>-Indol-6-one, 3a-(3,4-dimethoxyphenyl)octahydro-1-methyl-, (3a<em>S</em>-<em>cis</em>)-;(3a<em>S</em>,7a<em>S</em>)-3a-(3,4-Dimethoxyphenyl)octahydro-1-methyl-6<em>H</em>-indol-6-one;Mesembrine;Mesembrine, (-)-;(-)-Mesembrine;Mesembrin;(-)-Mesembranone;Mesembranone",
    "duplicated_cas_no": "",
    "SMILES": "CN1[C@@]2([C@](CC1)(CCC(=O)C2)C3=CC(OC)=C(OC)C=C3)[H]",
    "meta_data": {
        "InChI": "InChI=1S/C17H23NO3/c1-18-9-8-17(7-6-13(19)11-16(17)18)12-4-5-14(20-2)15(10-12)21-3/h4-5,10,16H,6-9,11H2,1-3H3/t16-,17-/m0/s1",
        "InChIKey": null,
        "Canonical SMILES": "O=C1CCC2(C3=CC=C(OC)C(OC)=C3)CCN(C)C2C1",
        "Molecular Formula": "C<sub>17</sub>H<sub>23</sub>NO<sub>3</sub>",
        "Molecular Mass": "289.37",
        "Boiling Point": "186-190 °C @ Press: 0.3 Torr"
    }
}