{
    "cas_no": "589-29-7",
    "key_name": "1,4-Benzenedimethanol",
    "cn_name": "对苯二甲醇;",
    "alternate_name": "1,4-Benzenedimethanol;<em>p</em>-Xylene-α,α′-diol;Terephthalyl alcohol;<em>p</em>-Xylylenediol;<em>p</em>-Xylylene-α,α′-diol;<em>p</em>-Xylylene glycol;1,4-Bis(hydroxymethyl)benzene;1,4-Dimethylolbenzene;1,4-Xylylene glycol;<em>p</em>-Benzenedimethanol;<em>p</em>-Xylene glycol;α,α′-<em>p</em>-Xylenediol;<em>p</em>-(Hydroxymethyl)benzyl alcohol;<em>p</em>-Bis(hydroxymethyl)benzene;α,α′-Dihydroxy-<em>p</em>-xylene;4-(Hydroxymethyl)benzenemethanol;NSC 5097;1,4-Di(hydroxymethyl)benzene;4-(Hydroxymethyl)benzyl alcohol;<em>p</em>-Xylene dimethanol;1,4-Phenylenedimethanol;[4-(Hydroxymethyl)phenyl]methanol",
    "duplicated_cas_no": "",
    "SMILES": "C(O)C1=CC=C(CO)C=C1",
    "meta_data": {
        "InChI": "InChI=1S/C8H10O2/c9-5-7-1-2-8(6-10)4-3-7/h1-4,9-10H,5-6H2",
        "InChIKey": null,
        "Canonical SMILES": "OCC1=CC=C(C=C1)CO",
        "Molecular Formula": "C<sub>8</sub>H<sub>10</sub>O<sub>2</sub>",
        "Molecular Mass": "138.16",
        "Boiling Point": "118.0-119.4 °C",
        "Melting Point": "117.5 °C"
    }
}