{
    "cas_no": "475489-16-8",
    "key_name": "7-[<em>cis</em>-3-(1-Azetidinylmethyl)cyclobutyl]-5-[3-(phenylmethoxy)phenyl]-7<em>H</em>-pyrrolo[2,3-<em>d</em>]pyrimidin-4-amine",
    "cn_name": null,
    "alternate_name": "7<em>H</em>-Pyrrolo[2,3-<em>d</em>]pyrimidin-4-amine, 7-[<em>cis</em>-3-(1-azetidinylmethyl)cyclobutyl]-5-[3-(phenylmethoxy)phenyl]-;7-[<em>cis</em>-3-(1-Azetidinylmethyl)cyclobutyl]-5-[3-(phenylmethoxy)phenyl]-7<em>H</em>-pyrrolo[2,3-<em>d</em>]pyrimidin-4-amine;[7-[<em>cis</em>-3-[(Azetidin-1-yl)methyl]cyclobutyl]-5-(3-benzyloxyphenyl)-7<em>H</em>-pyrrolo[2,3-<em>d</em>]pyrimidin-4-yl]amine",
    "duplicated_cas_no": "",
    "SMILES": "NC1=C2C(N(C=C2C3=CC(OCC4=CC=CC=C4)=CC=C3)[C@@H]5C[C@H](CN6CCC6)C5)=NC=N1",
    "meta_data": {
        "InChI": "InChI=1/C27H29N5O/c28-26-25-24(21-8-4-9-23(14-21)33-17-19-6-2-1-3-7-19)16-32(27(25)30-18-29-26)22-12-20(13-22)15-31-10-5-11-31/h1-4,6-9,14,16,18,20,22H,5,10-13,15,17H2,(H2,28,29,30)/t20-,22+",
        "InChIKey": null,
        "Canonical SMILES": "N=1C=NC2=C(C1N)C(=CN2C3CC(CN4CCC4)C3)C=5C=CC=C(OCC=6C=CC=CC6)C5",
        "Molecular Formula": "C<sub>27</sub>H<sub>29</sub>N<sub>5</sub>O",
        "Molecular Mass": "439.55",
        "Melting Point": "145 °C"
    }
}