{
    "cas_no": "41202-32-8",
    "key_name": "Piperazine, 1-(2-chlorophenyl)-, hydrochloride (1:1)",
    "cn_name": "1-(2-氯苯基)哌嗪盐酸盐;",
    "alternate_name": "Piperazine, 1-(2-chlorophenyl)-, hydrochloride (1:1);Piperazine, 1-(2-chlorophenyl)-, monohydrochloride;<em>N</em>-(2-Chlorophenyl)piperazine monohydrochloride;1-(2-Chlorophenyl)piperazine monohydrochloride;1-4-(2-Chlorophenyl)piperazine monohydrochloride",
    "duplicated_cas_no": "",
    "SMILES": "ClC1=C(N2CCNCC2)C=CC=C1.Cl",
    "meta_data": {
        "InChI": "InChI=1S/C10H13ClN2.ClH/c11-9-3-1-2-4-10(9)13-7-5-12-6-8-13;/h1-4,12H,5-8H2;1H",
        "InChIKey": null,
        "Canonical SMILES": "Cl.ClC=1C=CC=CC1N2CCNCC2",
        "Molecular Formula": "C<sub>10</sub>H<sub>13</sub>ClN<sub>2</sub>.ClH",
        "Molecular Mass": "",
        "Melting Point": "159-162 °C"
    }
}