{
    "cas_no": "125-65-5",
    "key_name": "Pleuromutilin",
    "cn_name": "泰妙菌素;截短侧耳素;",
    "alternate_name": "Acetic acid, 2-hydroxy-, (3a<em>S</em>,4<em>R</em>,5<em>S</em>,6<em>S</em>,8<em>R</em>,9<em>R</em>,9a<em>R</em>,10<em>R</em>)-6-ethenyldecahydro-5-hydroxy-4,6,9,10-tetramethyl-1-oxo-3a,9-propano-3a<em>H</em>-cyclopentacycloocten-8-yl ester;Glycolic acid, 8-ester with octahydro-5,8-dihydroxy-4,6,9,10-tetramethyl-6-vinyl-3a,9-propano-3a<em>H</em>-cyclopentacycloocten-1(4<em>H</em>)-one;Acetic acid, hydroxy-, 6-ethenyldecahydro-5-hydroxy-4,6,9,10-tetramethyl-1-oxo-3a,9-propano-3a<em>H</em>-cyclopentacycloocten-8-yl ester, [3a<em>S</em>-(3aα,4β,5α,6α,8β,9α,9aβ,10<em>S</em>*)]-;Pleuromutilin;Acetic acid, hydroxy-, (3a<em>S</em>,4<em>R</em>,5<em>S</em>,6<em>S</em>,8<em>R</em>,9<em>R</em>,9a<em>R</em>,10<em>R</em>)-6-ethenyldecahydro-5-hydroxy-4,6,9,10-tetramethyl-1-oxo-3a,9-propano-3a<em>H</em>-cyclopentacycloocten-8-yl ester;3a,9-Propano-3a<em>H</em>-cyclopentacyclooctene, acetic acid deriv.;BC 757;Drosophilin B;Antibiotic A 40104C;14-Deoxy-14-[(hydroxyacetyl)oxy]mutilin;(+)-Pleuromutilin;Pleuromulin;NSC 121145;Mutilin 14-glycolate",
    "duplicated_cas_no": "11023-32-8;17107-35-6",
    "SMILES": "C[C@@H]1[C@]23[C@]([C@](C)([C@H](OC(CO)=O)C[C@](C=C)(C)[C@H]1O)[C@H](C)CC2)(C(=O)CC3)[H]",
    "meta_data": {
        "InChI": "InChI=1S/C22H34O5/c1-6-20(4)11-16(27-17(25)12-23)21(5)13(2)7-9-22(14(3)19(20)26)10-8-15(24)18(21)22/h6,13-14,16,18-19,23,26H,1,7-12H2,2-5H3/t13-,14+,16-,18+,19+,20-,21+,22+/m1/s1",
        "InChIKey": null,
        "Canonical SMILES": "O=C(OC1CC(C=C)(C)C(O)C(C)C23CCC(=O)C2C1(C)C(C)CC3)CO",
        "Molecular Formula": "C<sub>22</sub>H<sub>34</sub>O<sub>5</sub>",
        "Molecular Mass": "378.50",
        "Melting Point": "170.5 °C"
    }
}