{
    "cas_no": "4098-98-0",
    "key_name": "1,1,1,3,3,3-Hexamethyl-2,2-bis(trimethylsilyl)trisilane",
    "cn_name": "四(三甲基硅基)硅烷;四(三甲基硅基)硅烷;",
    "alternate_name": "Trisilane, 1,1,1,3,3,3-hexamethyl-2,2-bis(trimethylsilyl)-;1,1,1,3,3,3-Hexamethyl-2,2-bis(trimethylsilyl)trisilane;Tetrakis(trimethylsilyl)silane;Tetra(trimethylsilyl)silane",
    "duplicated_cas_no": "",
    "SMILES": "[Si]([Si](C)(C)C)([Si](C)(C)C)([Si](C)(C)C)[Si](C)(C)C",
    "meta_data": {
        "InChI": "InChI=1S/C12H36Si5/c1-13(2,3)17(14(4,5)6,15(7,8)9)16(10,11)12/h1-12H3",
        "InChIKey": null,
        "Canonical SMILES": "C[Si](C)(C)[Si]([Si](C)(C)C)([Si](C)(C)C)[Si](C)(C)C",
        "Molecular Formula": "C<sub>12</sub>H<sub>36</sub>Si<sub>5</sub>",
        "Molecular Mass": "320.84",
        "Melting Point": "263-264 °C"
    }
}