{
    "cas_no": "6322-56-1",
    "key_name": "4-Hydroxy-3-nitroacetophenone",
    "cn_name": "4\"-羟基-3\"-硝基苯乙酮;",
    "alternate_name": "Ethanone, 1-(4-hydroxy-3-nitrophenyl)-;Acetophenone, 4′-hydroxy-3′-nitro-;1-(4-Hydroxy-3-nitrophenyl)ethanone;3′-Nitro-4′-hydroxyacetophenone;4′-Hydroxy-3′-nitroacetophenone;2-Nitro-4-acetylphenol;4-Acetyl-2-nitrophenol;4-Hydroxy-3-nitroacetophenone;NSC 32113;(4-Hydroxy-3-nitrophenyl)ethan-1-one;1-(4-Hydroxy-3-nitrophenyl)ethan-1-one",
    "duplicated_cas_no": "",
    "SMILES": "N(=O)(=O)C1=CC(C(C)=O)=CC=C1O",
    "meta_data": {
        "InChI": "InChI=1S/C8H7NO4/c1-5(10)6-2-3-8(11)7(4-6)9(12)13/h2-4,11H,1H3",
        "InChIKey": null,
        "Canonical SMILES": "O=C(C1=CC=C(O)C(=C1)N(=O)=O)C",
        "Molecular Formula": "C<sub>8</sub>H<sub>7</sub>NO<sub>4</sub>",
        "Molecular Mass": "181.15",
        "Boiling Point": "121-123 °C",
        "Melting Point": "135 °C"
    }
}