{
    "cas_no": "4437-85-8",
    "key_name": "Butylene carbonate",
    "cn_name": "4-乙基-1,3-二恶烷-2-酮;",
    "alternate_name": "1,3-Dioxolan-2-one, 4-ethyl-;Carbonic acid, cyclic ethylethylene ester;Carbonic acid, ethylethylene ester;1,2-Butanediol, cyclic carbonate;4-Ethyl-1,3-dioxolan-2-one;1,2-Butylene carbonate;Butylene carbonate;1,2-Butanediol carbonate;2-Oxo-4-ethyl-1,3-dioxolane;Jeffsol BC;4-Ethyl-1,3-dioxolidin-2-one;1-Butene carbonate",
    "duplicated_cas_no": "126828-12-4;127128-77-2",
    "SMILES": "C(C)C1OC(=O)OC1",
    "meta_data": {
        "InChI": "InChI=1S/C5H8O3/c1-2-4-3-7-5(6)8-4/h4H,2-3H2,1H3",
        "InChIKey": null,
        "Canonical SMILES": "O=C1OCC(O1)CC",
        "Molecular Formula": "C<sub>5</sub>H<sub>8</sub>O<sub>3</sub>",
        "Molecular Mass": "116.12",
        "Boiling Point": "75-80 °C @ Press: 0.8 Torr",
        "Density": "1.14 g/cm³ @ Temp: 25 °C"
    }
}