{
    "cas_no": "55704-78-4",
    "key_name": "2,5-Dihydroxy-2,5-dimethyl-1,4-dithiane",
    "cn_name": "二聚巯基丙酮;2,5-二甲基-2,5-二羟基-1,4-二噻烷;",
    "alternate_name": "1,4-Dithiane-2,5-diol, 2,5-dimethyl-;<em>p</em>-Dithiane-,2,5-diol, 2,5-dimethyl-;2,5-Dimethyl-1,4-dithiane-2,5-diol;2,5-Dimethyl-1,4-dithian-2,5-diol;2,5-Dihydroxy-2,5-dimethyl-1,4-dithiane;NSC 176174;2,5-Dimethyl-2,5-dihydroxy-1,4-dithiane",
    "duplicated_cas_no": "",
    "SMILES": "CC1(O)CSC(C)(O)CS1",
    "meta_data": {
        "InChI": "InChI=1S/C6H12O2S2/c1-5(7)3-10-6(2,8)4-9-5/h7-8H,3-4H2,1-2H3",
        "InChIKey": null,
        "Canonical SMILES": "OC1(SCC(O)(SC1)C)C",
        "Molecular Formula": "C<sub>6</sub>H<sub>12</sub>O<sub>2</sub>S<sub>2</sub>",
        "Molecular Mass": "180.29",
        "Melting Point": "136-138 °C"
    }
}