{
    "cas_no": "1670-84-4",
    "key_name": "1<em>H</em>-Indole-2-carboxamide",
    "cn_name": null,
    "alternate_name": "1<em>H</em>-Indole-2-carboxamide;Indole-2-carboxamide;2-Carbamoylindole;Indolecarboxamide",
    "duplicated_cas_no": "",
    "SMILES": "C(N)(=O)C1=CC=2C(N1)=CC=CC2",
    "meta_data": {
        "InChI": "InChI=1S/C9H8N2O/c10-9(12)8-5-6-3-1-2-4-7(6)11-8/h1-5,11H,(H2,10,12)",
        "InChIKey": null,
        "Canonical SMILES": "O=C(N)C1=CC=2C=CC=CC2N1",
        "Molecular Formula": "C<sub>9</sub>H<sub>8</sub>N<sub>2</sub>O",
        "Molecular Mass": "160.17",
        "Melting Point": "234.5-235.5 °C"
    }
}