{
    "cas_no": "15119-34-3",
    "key_name": "3-Cyanocoumarin",
    "cn_name": null,
    "alternate_name": "2<em>H</em>-1-Benzopyran-3-carbonitrile, 2-oxo-;Coumarin, 3-cyano-;2-Oxo-2<em>H</em>-1-benzopyran-3-carbonitrile;3-Cyanocoumarin;2-Oxochromene-3-carbonitrile;2-Oxo-2<em>H</em>-chromene-3-carbonitrile",
    "duplicated_cas_no": "",
    "SMILES": "C(#N)C1=CC=2C(OC1=O)=CC=CC2",
    "meta_data": {
        "InChI": "InChI=1S/C10H5NO2/c11-6-8-5-7-3-1-2-4-9(7)13-10(8)12/h1-5H",
        "InChIKey": null,
        "Canonical SMILES": "N#CC1=CC=2C=CC=CC2OC1=O",
        "Molecular Formula": "C<sub>10</sub>H<sub>5</sub>NO<sub>2</sub>",
        "Molecular Mass": "171.15",
        "Melting Point": "185-186 °C"
    }
}