{
    "cas_no": "7374-79-0",
    "key_name": "Acanthoside B",
    "cn_name": "刺五加提取物;",
    "alternate_name": "β-<span class=\"text-smallcaps\">D</span>-Glucopyranoside, 2,6-dimethoxy-4-[(1<em>S</em>,3a<em>R</em>,4<em>S</em>,6a<em>R</em>)-tetrahydro-4-(4-hydroxy-3,5-dimethoxyphenyl)-1<em>H</em>,3<em>H</em>-furo[3,4-<em>c</em>]furan-1-yl]phenyl;Glucopyranoside, 2,6-dimethoxy-4-[tetrahydro-4-(4-hydroxy-3,5-dimethoxyphenyl)-1<em>H</em>,3<em>H</em>-furo[3,4-<em>c</em>]furan-1-yl]phenyl, β-<span class=\"text-smallcaps\">D</span>-;Acanthoside B;β-<span class=\"text-smallcaps\">D</span>-Glucopyranoside, 2,6-dimethoxy-4-[tetrahydro-4-(4-hydroxy-3,5-dimethoxyphenyl)-1<em>H</em>,3<em>H</em>-furo[3,4-<em>c</em>]furan-1-yl]phenyl, [1<em>S</em>-(1α,3aα,4α,6aα)]-;1<em>H</em>,3<em>H</em>-Furo[3,4-<em>c</em>]furan, β-<span class=\"text-smallcaps\">D</span>-glucopyranoside deriv.;2,6-Dimethoxy-4-[(1<em>S</em>,3a<em>R</em>,4<em>S</em>,6a<em>R</em>)-tetrahydro-4-(4-hydroxy-3,5-dimethoxyphenyl)-1<em>H</em>,3<em>H</em>-furo[3,4-<em>c</em>]furan-1-yl]phenyl β-<span class=\"text-smallcaps\">D</span>-glucopyranoside;Eleutheroside E<sub>1</sub>;(+)-Syringaresinol β-<span class=\"text-smallcaps\">D</span>-glucoside;(+)-Syringaresinol β-<span class=\"text-smallcaps\">D</span>-glucopyranoside;(+)-Syringaresinol <em>O</em>-β-<span class=\"text-smallcaps\">D</span>-glucopyranoside;(+)-Syringaresinol 4′-<em>O</em>-β-glucopyranoside;Syringaresinol 4′-<em>O</em>-β-<span class=\"text-smallcaps\">D</span>-glucopyranoside;Syringaresinol β-<span class=\"text-smallcaps\">D</span>-glucoside;Syringaresinol-4-<em>O</em>-β-<span class=\"text-smallcaps\">D</span>-monoglucoside;(+)-Springaresinol-4′′-<em>O</em>-β-<span class=\"text-smallcaps\">D</span>-monoglucopyranoside",
    "duplicated_cas_no": "117585-37-2",
    "SMILES": "O(C)C=1C=C([C@@H]2[C@@]3([C@@]([C@H](OC3)C4=CC(OC)=C(O)C(OC)=C4)(CO2)[H])[H])C=C(OC)C1O[C@@H]5O[C@H](CO)[C@@H](O)[C@H](O)[C@H]5O",
    "meta_data": {
        "InChI": "InChI=1S/C28H36O13/c1-34-16-5-12(6-17(35-2)21(16)30)25-14-10-39-26(15(14)11-38-25)13-7-18(36-3)27(19(8-13)37-4)41-28-24(33)23(32)22(31)20(9-29)40-28/h5-8,14-15,20,22-26,28-33H,9-11H2,1-4H3/t14-,15-,20+,22+,23-,24+,25+,26+,28-/m0/s1",
        "InChIKey": null,
        "Canonical SMILES": "OC1=C(OC)C=C(C=C1OC)C2OCC3C(OCC23)C4=CC(OC)=C(OC5OC(CO)C(O)C(O)C5O)C(OC)=C4",
        "Molecular Formula": "C<sub>28</sub>H<sub>36</sub>O<sub>13</sub>",
        "Molecular Mass": "580.58",
        "Melting Point": "182-183 °C"
    }
}