{
    "cas_no": "7787-32-8",
    "key_name": "Barium fluoride",
    "cn_name": "氟化钡;",
    "alternate_name": "Barium fluoride (BaF<sub>2</sub>);Barium fluoride;Barium difluoride;Barium difluoride (BaF<sub>2</sub>)",
    "duplicated_cas_no": "75013-56-8;1809065-98-2;2095567-50-1",
    "SMILES": "[Ba](F)F",
    "meta_data": {
        "InChI": "InChI=1S/Ba.2FH/h;2*1H/q+2;;/p-2",
        "InChIKey": null,
        "Canonical SMILES": "F[Ba]F",
        "Molecular Formula": "BaF<sub>2</sub>",
        "Molecular Mass": "",
        "Boiling Point": "2260 °C",
        "Melting Point": "1289 °C",
        "Density": "4.89 g/cm³ @ Temp: 25 °C"
    }
}