{
    "cas_no": "10112-91-1",
    "key_name": "Mercury chloride (Hg<sub>2</sub>Cl<sub>2</sub>)",
    "cn_name": null,
    "alternate_name": "Mercury chloride (Hg<sub>2</sub>Cl<sub>2</sub>);Mercury subchloride;Calomel;Mercurous chloride;Calotab;Calogreen;Cyclosan;Mercurous chloride (Hg<sub>2</sub>Cl<sub>2</sub>);Dimercury dichloride;Mercury monochloride;Precipite blanc;Mild mercury chloride",
    "duplicated_cas_no": "39448-57-2",
    "SMILES": "[Hg]([Hg]Cl)Cl",
    "meta_data": {
        "InChI": "InChI=1S/2ClH.2Hg/h2*1H;;/q;;2*+1/p-2",
        "InChIKey": null,
        "Canonical SMILES": "Cl[Hg][Hg]Cl",
        "Molecular Formula": "Cl<sub>2</sub>Hg<sub>2</sub>",
        "Molecular Mass": "",
        "Melting Point": "400 °C (sublm)",
        "Density": "7.15 g/cm³"
    }
}