{
    "cas_no": "89-24-7",
    "key_name": "Phenylhydantoin",
    "cn_name": "5-苯基海因;",
    "alternate_name": "2,4-Imidazolidinedione, 5-phenyl-;Hydantoin, 5-phenyl-;5-Phenyl-2,4-imidazolidinedione;5-Phenylhydantoin;Phenylhydantoin;<span class=\"text-smallcaps\">DL</span>-5-Phenylhydantoin;(±)-5-Phenylhydantoin;NSC 27302;NSC 40885;NSC 51847;5-Phenylimidazoline-2,4-dione",
    "duplicated_cas_no": "27534-86-7",
    "SMILES": "O=C1C(NC(=O)N1)C2=CC=CC=C2",
    "meta_data": {
        "InChI": "InChI=1S/C9H8N2O2/c12-8-7(10-9(13)11-8)6-4-2-1-3-5-6/h1-5,7H,(H2,10,11,12,13)",
        "InChIKey": null,
        "Canonical SMILES": "O=C1NC(=O)C(N1)C=2C=CC=CC2",
        "Molecular Formula": "C<sub>9</sub>H<sub>8</sub>N<sub>2</sub>O<sub>2</sub>",
        "Molecular Mass": "176.17",
        "Melting Point": "134-135 °C"
    }
}