{
    "cas_no": "5332-24-1",
    "key_name": "3-Bromoquinoline",
    "cn_name": "3-溴喹啉;",
    "alternate_name": "Quinoline, 3-bromo-;3-Bromoquinoline;NSC 3995;Quinolin-3-yl bromide",
    "duplicated_cas_no": "",
    "SMILES": "BrC1=CC2=C(N=C1)C=CC=C2",
    "meta_data": {
        "InChI": "InChI=1S/C9H6BrN/c10-8-5-7-3-1-2-4-9(7)11-6-8/h1-6H",
        "InChIKey": null,
        "Canonical SMILES": "BrC1=CN=C2C=CC=CC2=C1",
        "Molecular Formula": "C<sub>9</sub>H<sub>6</sub>BrN",
        "Molecular Mass": "208.05",
        "Boiling Point": "275 °C",
        "Melting Point": "13.3 °C"
    }
}