{
    "cas_no": "3211-76-5",
    "key_name": "<span class=\"text-smallcaps\">L</span>-Selenomethionine",
    "cn_name": "L-硒代蛋氨酸;L-(+)-硒代蛋氨酸;(S)-(+)-2-氨基-4-(甲基硒)丁酸;",
    "alternate_name": "Butanoic acid, 2-amino-4-(methylseleno)-, (2<em>S</em>)-;Butyric acid, 2-amino-4-(methylselenyl)-, <span class=\"text-smallcaps\">L</span>-;Butanoic acid, 2-amino-4-(methylseleno)-, (<em>S</em>)-;(2<em>S</em>)-2-Amino-4-(methylseleno)butanoic acid;Seleno-<span class=\"text-smallcaps\">L</span>-methionine;Selenomethionine;<span class=\"text-smallcaps\">L</span>-Selenomethionine;SelenoSource AF 2000;Selenomax;SelenoSource AF 600;SelenoSource AF;Vitaselenium;Prince Se Yeast 2000;(2S)-2-Azaniumyl-4-methylselanylbutanoate",
    "duplicated_cas_no": "",
    "SMILES": "[C@@H](C(O)=O)(CC[Se]C)N",
    "meta_data": {
        "InChI": "InChI=1S/C5H11NO2Se/c1-9-3-2-4(6)5(7)8/h4H,2-3,6H2,1H3,(H,7,8)/t4-/m0/s1",
        "InChIKey": null,
        "Canonical SMILES": "O=C(O)C(N)CC[Se]C",
        "Molecular Formula": "C<sub>5</sub>H<sub>11</sub>NO<sub>2</sub>Se",
        "Molecular Mass": "196.11",
        "Melting Point": "275 °C (decomp)"
    }
}