{
    "cas_no": "20849-78-9",
    "key_name": "4-(2-Chloroethyl)benzoic acid",
    "cn_name": "4-(2-氯乙基)苯甲酸;",
    "alternate_name": "Benzoic acid, 4-(2-chloroethyl)-;Benzoic acid, <em>p</em>-(2-chloroethyl)-;4-(2-Chloroethyl)benzoic acid;2-[4-Carboxyphenyl]ethyl chloride",
    "duplicated_cas_no": "",
    "SMILES": "C(O)(=O)C1=CC=C(CCCl)C=C1",
    "meta_data": {
        "InChI": "InChI=1S/C9H9ClO2/c10-6-5-7-1-3-8(4-2-7)9(11)12/h1-4H,5-6H2,(H,11,12)",
        "InChIKey": null,
        "Canonical SMILES": "O=C(O)C1=CC=C(C=C1)CCCl",
        "Molecular Formula": "C<sub>9</sub>H<sub>9</sub>ClO<sub>2</sub>",
        "Molecular Mass": "184.62",
        "Melting Point": "187-188 °C"
    }
}