{
    "cas_no": "212650-43-6",
    "key_name": "4-(<em>tert</em>-Butoxycarbonyl)morpholine-3-carboxylic acid",
    "cn_name": null,
    "alternate_name": "3,4-Morpholinedicarboxylic acid, 4-(1,1-dimethylethyl) ester;4-(<em>tert</em>-Butoxycarbonyl)morpholine-3-carboxylic acid;<em>N</em>-Boc-morpholine-3-carboxylic acid;4-[[(1,1-Dimethylethyl)oxy]carbonyl]-3-morpholinecarboxylic acid;Morpholine-3,4-dicarboxylic acid 4-<em>tert</em>-butyl ester;4-Boc-morpholine-3-carboxylic acid",
    "duplicated_cas_no": "1240059-10-2",
    "SMILES": "C(OC(C)(C)C)(=O)N1C(C(O)=O)COCC1",
    "meta_data": {
        "InChI": "InChI=1S/C10H17NO5/c1-10(2,3)16-9(14)11-4-5-15-6-7(11)8(12)13/h7H,4-6H2,1-3H3,(H,12,13)",
        "InChIKey": null,
        "Canonical SMILES": "O=C(OC(C)(C)C)N1CCOCC1C(=O)O",
        "Molecular Formula": "C<sub>10</sub>H<sub>17</sub>NO<sub>5</sub>",
        "Molecular Mass": "231.25",
        "Melting Point": "159-160 °C"
    }
}