{
    "cas_no": "7423-96-3",
    "key_name": "3-Fluoro-<span class=\"text-smallcaps\">L</span>-tyrosine",
    "cn_name": "3-氟-L-酪氨酸;",
    "alternate_name": "<span class=\"text-smallcaps\">L</span>-Tyrosine, 3-fluoro-;Tyrosine, 3-fluoro-, <span class=\"text-smallcaps\">L</span>-;3-Fluoro-<span class=\"text-smallcaps\">L</span>-tyrosine;<span class=\"text-smallcaps\">L</span>-<em>m</em>-Fluorotyrosine;(<em>S</em>)-2-Amino-3-(3-fluoro-4-hydroxyphenyl)propanoic acid;(2S)-2-Azaniumyl-3-(3-fluoro-4-hydroxyphenyl)propanoate;(2S)-2-Amino-3-(3-fluoro-4-hydroxyphenyl)propanoic acid",
    "duplicated_cas_no": "",
    "SMILES": "C([C@@H](C(O)=O)N)C1=CC(F)=C(O)C=C1",
    "meta_data": {
        "InChI": "InChI=1S/C9H10FNO3/c10-6-3-5(1-2-8(6)12)4-7(11)9(13)14/h1-3,7,12H,4,11H2,(H,13,14)/t7-/m0/s1",
        "InChIKey": null,
        "Canonical SMILES": "O=C(O)C(N)CC1=CC=C(O)C(F)=C1",
        "Molecular Formula": "C<sub>9</sub>H<sub>10</sub>FNO<sub>3</sub>",
        "Molecular Mass": "199.18",
        "Melting Point": "278-279 °C (decomp)"
    }
}