{
    "cas_no": "52-78-8",
    "key_name": "Norethandrolone",
    "cn_name": "乙诺酮;",
    "alternate_name": "19-Norpregn-4-en-3-one, 17-hydroxy-, (17α)-;19-Nor-17α-pregn-4-en-3-one, 17-hydroxy-;19-Norandrost-4-en-3-one, 17α-ethyl-17-hydroxy-;(17α)-17-Hydroxy-19-norpregn-4-en-3-one;17α-Ethyl-17β-hydroxyestr-4-en-3-one;17α-Ethyl-17-hydroxy-13β-methylgon-4-en-3-one;17-Ethyl-19-nortestosterone;17α-Ethylnortestosterone;17α-Ethyl-19-nortestosterone;Nilevar;Norethandrolone;19-Nortestosterone, 17-ethyl-;17α-Ethyl-17-hydroxy-4-norandrosten-3-one;17α-Ethyl-17-hydroxy-19-nor-4-androsten-3-one;Nileva;17α-Ethyl-17-hydroxy-4-estren-3-one;17β-Hydroxy-17α-ethylestr-4-en-3-one;17α-Ethyl-17β-hydroxy-19-norandrost-4-en-3-one;CB 8022;17-ENT;Pronabol;SC 5914;U 6817;Solevar;NSC 70581;NSC 9893;MeSH ID: D009639",
    "duplicated_cas_no": "",
    "SMILES": "C[C@@]12[C@]([C@]3([C@](CC1)([C@@]4(C(CC3)=CC(=O)CC4)[H])[H])[H])(CC[C@]2(CC)O)[H]",
    "meta_data": {
        "InChI": "InChI=1S/C20H30O2/c1-3-20(22)11-9-18-17-6-4-13-12-14(21)5-7-15(13)16(17)8-10-19(18,20)2/h12,15-18,22H,3-11H2,1-2H3/t15-,16+,17+,18-,19-,20-/m0/s1",
        "InChIKey": null,
        "Canonical SMILES": "O=C1C=C2CCC3C(CCC4(C)C3CCC4(O)CC)C2CC1",
        "Molecular Formula": "C<sub>20</sub>H<sub>30</sub>O<sub>2</sub>",
        "Molecular Mass": "302.45",
        "Melting Point": "140.5 °C"
    }
}