{
    "cas_no": "4041-95-6",
    "key_name": "<em>N</em>,<em>N</em>′-Bis(1,1-dimethylethyl)thiourea",
    "cn_name": "N,N\"-二叔丁基硫脲;1,3-二叔丁基硫脲;",
    "alternate_name": "Thiourea, <em>N</em>,<em>N</em>′-bis(1,1-dimethylethyl)-;Urea, 1,3-di-<em>tert</em>-butyl-2-thio-;<em>N</em>,<em>N</em>′-Bis(1,1-dimethylethyl)thiourea;<em>N</em>,<em>N</em>′-Di-<em>tert</em>-butylthiourea;1,3-Di-<em>tert</em>-butylthiourea;1,3-Di-<em>tert</em>-butyl-2-thiourea;1,3-Di-<em>t</em>-butylthiourea;NSC 47496;1,3-Ditert-butylthiourea",
    "duplicated_cas_no": "",
    "SMILES": "N(C(C)(C)C)C(NC(C)(C)C)=S",
    "meta_data": {
        "InChI": "InChI=1S/C9H20N2S/c1-8(2,3)10-7(12)11-9(4,5)6/h1-6H3,(H2,10,11,12)",
        "InChIKey": null,
        "Canonical SMILES": "S=C(NC(C)(C)C)NC(C)(C)C",
        "Molecular Formula": "C<sub>9</sub>H<sub>20</sub>N<sub>2</sub>S",
        "Molecular Mass": "188.33",
        "Melting Point": "140-150 °C (decomp)"
    }
}