{
    "cas_no": "154-86-9",
    "key_name": "Benzenemethanol, 3-hydroxy-α-[(methylamino)methyl]-, hydrochloride (1:1)",
    "cn_name": "去氧肾上腺素;",
    "alternate_name": "Benzenemethanol, 3-hydroxy-α-[(methylamino)methyl]-, hydrochloride (1:1);Benzyl alcohol, <em>m</em>-hydroxy-α-[(methylamino)methyl]-, hydrochloride, (±)-;Benzenemethanol, 3-hydroxy-α-[(methylamino)methyl]-, hydrochloride, (±)-;Benzenemethanol, 3-hydroxy-α-[(methylamino)methyl]-, hydrochloride;<span class=\"text-smallcaps\">DL</span>-Phenylephrine hydrochloride;(±)-Phenylephrine hydrochloride;1-(3-Hydroxyphenyl)-2-methylaminoethanol hydrochloride;NSC 14029;RS-phenylephrine hydrochloride",
    "duplicated_cas_no": "20368-45-0",
    "SMILES": "C(CNC)(O)C1=CC(O)=CC=C1.Cl",
    "meta_data": {
        "InChI": "InChI=1S/C9H13NO2.ClH/c1-10-6-9(12)7-3-2-4-8(11)5-7;/h2-5,9-12H,6H2,1H3;1H",
        "InChIKey": null,
        "Canonical SMILES": "Cl.OC1=CC=CC(=C1)C(O)CNC",
        "Molecular Formula": "C<sub>9</sub>H<sub>13</sub>NO<sub>2</sub>.ClH",
        "Molecular Mass": "",
        "Melting Point": "140-145 °C (decomp)"
    }
}