{
    "cas_no": "2781-10-4",
    "key_name": "1,1′-(Dibutylstannylene) bis(2-ethylhexanoate)",
    "cn_name": "二正丁基二异辛酸锡;二丁基二异辛酸锡;二丁基双(2-乙基己酸)锡;",
    "alternate_name": "Hexanoic acid, 2-ethyl-, 1,1′-(dibutylstannylene) ester;Stannane, dibutylbis[(2-ethylhexanoyl)oxy]-;Dibutyltin bis(2-ethylhexanoate);Stannane, dibutylbis[(2-ethyl-1-oxohexyl)oxy]-;Tin, dibutylbis[(2-ethylhexanoyl)oxy]-;Hexanoic acid, 2-ethyl-, dibutylstannylene deriv.;1,1′-(Dibutylstannylene) bis(2-ethylhexanoate);Dibutyltin bis(α-ethylhexanoate);Dibutyltin di(2-ethylhexoate);Dibutyltin di(2-ethylhexanoate);Dibutylbis(2-ethyl-1-oxohexyloxy)stannane;Fascat 4208;Neostann U 8;NSC 73733",
    "duplicated_cas_no": "11111-26-5",
    "SMILES": "[Sn](OC(C(CCCC)CC)=O)(OC(C(CCCC)CC)=O)(CCCC)CCCC",
    "meta_data": {
        "InChI": "InChI=1S/2C8H16O2.2C4H9.Sn/c2*1-3-5-6-7(4-2)8(9)10;2*1-3-4-2;/h2*7H,3-6H2,1-2H3,(H,9,10);2*1,3-4H2,2H3;/q;;;;+2/p-2",
        "InChIKey": null,
        "Canonical SMILES": "O=C(O[Sn](OC(=O)C(CC)CCCC)(CCCC)CCCC)C(CC)CCCC",
        "Molecular Formula": "C<sub>24</sub>H<sub>48</sub>O<sub>4</sub>Sn",
        "Molecular Mass": "519.35",
        "Boiling Point": "217 °C",
        "Melting Point": "57 °C"
    }
}