{
    "cas_no": "79917-90-1",
    "key_name": "1-Butyl-3-methylimidazolium chloride",
    "cn_name": null,
    "alternate_name": "1<em>H</em>-Imidazolium, 3-butyl-1-methyl-, chloride (1:1);1<em>H</em>-Imidazolium, 1-butyl-3-methyl-, chloride;1-Methyl-3-butylimidazolium chloride;3-Butyl-1-methylimidazolium chloride;1-Butyl-3-methylimidazolium chloride;1-<em>n</em>-Butyl-3-methylimidazolium chloride;1-Butyl-3-methyl-1<em>H</em>-imidazolium chloride;[BMIM]Cl;<em>N</em>-Butyl-<em>N</em>′-methylimidazolium chloride;1-Butyl-3-methylimidizolium chloride;LM 1039;Basionics ST 70;[C4Mim]Cl;[C<sub>4</sub>Mim<sup>+</sup>][Cl<sup>-</sup>];1-Butyl-3-methyiimidazoiium chloride",
    "duplicated_cas_no": "",
    "SMILES": "C(CCC)[N+]1=CN(C)C=C1.[Cl-]",
    "meta_data": {
        "InChI": "InChI=1S/C8H15N2.ClH/c1-3-4-5-10-7-6-9(2)8-10;/h6-8H,3-5H2,1-2H3;1H/q+1;/p-1",
        "InChIKey": null,
        "Canonical SMILES": "[Cl-].C1=C[N+](=CN1C)CCCC",
        "Molecular Formula": "C<sub>8</sub>H<sub>15</sub>N<sub>2</sub>.Cl",
        "Molecular Mass": "",
        "Melting Point": "68.80 °C",
        "Density": "1.08 g/cm³ @ Temp: 25 °C"
    }
}