{
    "cas_no": "126-80-7",
    "key_name": "1,3-Bis(3-glycidoxypropyl)-1,1,3,3-tetramethyldisiloxane",
    "cn_name": "1,1,3,3-四甲基-1,3二[3-(环氧乙基甲氧基)丙基]二硅氧烷;",
    "alternate_name": "Disiloxane, 1,1,3,3-tetramethyl-1,3-bis[3-(2-oxiranylmethoxy)propyl]-;Disiloxane, 1,3-bis[3-(2,3-epoxypropoxy)propyl]-1,1,3,3-tetramethyl-;Disiloxane, 1,1,3,3-tetramethyl-1,3-bis[3-(oxiranylmethoxy)propyl]-;1,1,3,3-Tetramethyl-1,3-bis[3-(2-oxiranylmethoxy)propyl]disiloxane;1,3-Bis[3-(2,3-epoxypropoxy)propyl]tetramethyldisiloxane;1,3-Bis[3-(glycidyloxy)propyl]-1,1,3,3-tetramethyldisiloxane;1,3-Bis(3-glycidyloxypropyl)tetramethyldisiloxane;1,3-Di(3-glycidoxypropyl)-1,1,3,3-tetramethyldisiloxane;NSC 93976;1,3-Bis(3-glycidoxypropyl)-1,1,3,3-tetramethyldisiloxane;1,1,3,3-Tetramethyl-1,3-di[3-(epoxyethylmethoxy)propyl]disiloxane;1,3-Bis(glycidyloxypropyl)tetramethyldisiloxane;1,3-Bis(3-glycidoxypropyl)tetramethyldisiloxane;[Dimethyl-[3-(oxiran-2-ylmethoxy)propyl]silyl]oxy-dimethyl-[3-(oxiran-2-ylmethoxy)propyl]silane;MY 010;GP 600;S 081369",
    "duplicated_cas_no": "909701-29-7;1419318-48-1",
    "SMILES": "[Si](O[Si](CCCOCC1CO1)(C)C)(CCCOCC2CO2)(C)C",
    "meta_data": {
        "InChI": "InChI=1S/C16H34O5Si2/c1-22(2,9-5-7-17-11-15-13-19-15)21-23(3,4)10-6-8-18-12-16-14-20-16/h15-16H,5-14H2,1-4H3",
        "InChIKey": null,
        "Canonical SMILES": "O(CCC[Si](O[Si](C)(C)CCCOCC1OC1)(C)C)CC2OC2",
        "Molecular Formula": "C<sub>16</sub>H<sub>34</sub>O<sub>5</sub>Si<sub>2</sub>",
        "Molecular Mass": "362.61",
        "Boiling Point": "184-187 °C @ Press: 2 Torr",
        "Melting Point": "-50--48 °C",
        "Density": "0.996 g/cm³"
    }
}