{
    "cas_no": "84803-67-8",
    "key_name": "1-(3-Amino-10,11-dihydro-5<em>H</em>-dibenz[<em>b</em>,<em>f</em>]azepin-5-yl)ethanone",
    "cn_name": "3-氨基-5-乙酰基亚氨基二苄;",
    "alternate_name": "Ethanone, 1-(3-amino-10,11-dihydro-5<em>H</em>-dibenz[<em>b</em>,<em>f</em>]azepin-5-yl)-;5<em>H</em>-Dibenz[<em>b</em>,<em>f</em>]azepin-3-amine, 5-acetyl-10,11-dihydro-;5<em>H</em>-Dibenz[<em>b</em>,<em>f</em>]azepine, 5-acetyl-3-amino-10,11-dihydro-;1-(3-Amino-10,11-dihydro-5<em>H</em>-dibenz[<em>b</em>,<em>f</em>]azepin-5-yl)ethanone;5-Acetyl-3-aminoiminodibenzyl;5-Acetyl-10,11-dihydro-5<em>H</em>-dibenz[<em>b</em>,<em>f</em>]azepin-3-amine",
    "duplicated_cas_no": "",
    "SMILES": "C(C)(=O)N1C=2C(CCC=3C1=CC=CC3)=CC=C(N)C2",
    "meta_data": {
        "InChI": "InChI=1S/C16H16N2O/c1-11(19)18-15-5-3-2-4-12(15)6-7-13-8-9-14(17)10-16(13)18/h2-5,8-10H,6-7,17H2,1H3",
        "InChIKey": null,
        "Canonical SMILES": "O=C(N1C=2C=CC=CC2CCC3=CC=C(N)C=C31)C",
        "Molecular Formula": "C<sub>16</sub>H<sub>16</sub>N<sub>2</sub>O",
        "Molecular Mass": "252.31",
        "Melting Point": "149-150 °C"
    }
}