{
    "cas_no": "575-36-0",
    "key_name": "<em>N</em>-1-Naphthylacetamide",
    "cn_name": "N-乙酰-1-萘胺;N-(1-萘基)乙酰胺;",
    "alternate_name": "Acetamide, <em>N</em>-1-naphthalenyl-;Acetamide, <em>N</em>-1-naphthyl-;<em>N</em>-1-Naphthalenylacetamide;<em>N</em>-1-Naphthylacetamide;<em>N</em>-Acetyl-1-naphthylamine;1-Acetamidonaphthalene;<em>N</em>-α-Naphthylacetamide;<em>N</em>-Acetyl-α-naphthylamine;1-(Acetylamino)naphthalene;NSC 3105;<em>N</em>-Acetyl-1-naphthalenamine",
    "duplicated_cas_no": "",
    "SMILES": "N(C(C)=O)C=1C2=C(C=CC1)C=CC=C2",
    "meta_data": {
        "InChI": "InChI=1S/C12H11NO/c1-9(14)13-12-8-4-6-10-5-2-3-7-11(10)12/h2-8H,1H3,(H,13,14)",
        "InChIKey": null,
        "Canonical SMILES": "O=C(NC1=CC=CC=2C=CC=CC21)C",
        "Molecular Formula": "C<sub>12</sub>H<sub>11</sub>NO",
        "Molecular Mass": "185.22",
        "Melting Point": "176 °C (decomp)"
    }
}