{
    "cas_no": "96405-62-8",
    "key_name": "(+)-Goniotriol",
    "cn_name": null,
    "alternate_name": "<span class=\"text-smallcaps\">D</span>-<em>xylo</em>-Hept-2-enonic acid, 2,3-dideoxy-7-<em>C</em>-phenyl-, δ-lactone, (7<em>R</em>)-;Goniotriol;(+)-Goniotriol",
    "duplicated_cas_no": "",
    "SMILES": "[C@H]([C@H](O)C1=CC=CC=C1)(O)[C@]2([C@@H](O)C=CC(=O)O2)[H]",
    "meta_data": {
        "InChI": "InChI=1S/C13H14O5/c14-9-6-7-10(15)18-13(9)12(17)11(16)8-4-2-1-3-5-8/h1-7,9,11-14,16-17H/t9-,11+,12+,13+/m0/s1",
        "InChIKey": null,
        "Canonical SMILES": "O=C1OC(C(O)C=C1)C(O)C(O)C=2C=CC=CC2",
        "Molecular Formula": "C<sub>13</sub>H<sub>14</sub>O<sub>5</sub>",
        "Molecular Mass": "250.25",
        "Melting Point": "169-171 °C"
    }
}