{
    "cas_no": "32510-61-5",
    "key_name": "(6<em>R</em>,7<em>R</em>)-3-[(Acetyloxy)methyl]-8-oxo-7-[[2-(1<em>H</em>-tetrazol-1-yl)acetyl]amino]-5-thia-1-azabicyclo[4.2.0]oct-2-ene-2-carboxylic acid",
    "cn_name": null,
    "alternate_name": "5-Thia-1-azabicyclo[4.2.0]oct-2-ene-2-carboxylic acid, 3-[(acetyloxy)methyl]-8-oxo-7-[[2-(1<em>H</em>-tetrazol-1-yl)acetyl]amino]-, (6<em>R</em>,7<em>R</em>)-;5-Thia-1-azabicyclo[4.2.0]oct-2-ene-2-carboxylic acid, 3-(hydroxymethyl)-8-oxo-7-[2-(1<em>H</em>-tetrazol-1-yl)acetamido]-, acetate (ester);5-Thia-1-azabicyclo[4.2.0]oct-2-ene-2-carboxylic acid, 3-[(acetyloxy)methyl]-8-oxo-7-[(1<em>H</em>-tetrazol-1-ylacetyl)amino]-, (6<em>R</em>-<em>trans</em>)-;5-Thia-1-azabicyclo[4.2.0]oct-2-ene-2-carboxylic acid, 3-[(acetyloxy)methyl]-8-oxo-7-[(1<em>H</em>-tetrazol-1-ylacetyl)amino]-, (6<em>R</em>,7<em>R</em>)-;(6<em>R</em>,7<em>R</em>)-3-[(Acetyloxy)methyl]-8-oxo-7-[[2-(1<em>H</em>-tetrazol-1-yl)acetyl]amino]-5-thia-1-azabicyclo[4.2.0]oct-2-ene-2-carboxylic acid;<em>N</em>-(Tetrazolylacetyl)-7-aminocephalosporin;7-(1<em>H</em>-Tetrazol-1-acetamido)cephalosporanic acid;7-(1<em>H</em>-Tetrazol-1-yl)acetamidocelphalosporanic acid",
    "duplicated_cas_no": "",
    "SMILES": "C(O)(=O)C=1N2[C@@]([C@H](NC(CN3C=NN=N3)=O)C2=O)(SCC1COC(C)=O)[H]",
    "meta_data": {
        "InChI": "InChI=1S/C13H14N6O6S/c1-6(20)25-3-7-4-26-12-9(11(22)19(12)10(7)13(23)24)15-8(21)2-18-5-14-16-17-18/h5,9,12H,2-4H2,1H3,(H,15,21)(H,23,24)/t9-,12-/m1/s1",
        "InChIKey": null,
        "Canonical SMILES": "O=C(O)C1=C(COC(=O)C)CSC2N1C(=O)C2NC(=O)CN3N=NN=C3",
        "Molecular Formula": "C<sub>13</sub>H<sub>14</sub>N<sub>6</sub>O<sub>6</sub>S",
        "Molecular Mass": "382.35",
        "Melting Point": "215-217 °C"
    }
}