{
    "cas_no": "19012-03-4",
    "key_name": "1-Methylindole-3-carboxaldehyde",
    "cn_name": "1-甲基吲哚-3-甲醛;",
    "alternate_name": "1<em>H</em>-Indole-3-carboxaldehyde, 1-methyl-;Indole-3-carboxaldehyde, 1-methyl-;1-Methyl-1<em>H</em>-indole-3-carboxaldehyde;3-Formyl-1-methylindole;<em>N</em>-Methyl-3-formylindole;<em>N</em>-Methyl-3-indolecarboxaldehyde;1-Methylindole-3-carboxaldehyde;1-Methyl-3-formylindole;<em>N</em>-Methylindole-3-carbaldehyde;NSC 83042;1-Methyl-1<em>H</em>-indole-3-carbaldehyde;1-Methylindole-3-carbaldehyde",
    "duplicated_cas_no": "",
    "SMILES": "C(=O)C=1C=2C(N(C)C1)=CC=CC2",
    "meta_data": {
        "InChI": "InChI=1S/C10H9NO/c1-11-6-8(7-12)9-4-2-3-5-10(9)11/h2-7H,1H3",
        "InChIKey": null,
        "Canonical SMILES": "O=CC1=CN(C=2C=CC=CC12)C",
        "Molecular Formula": "C<sub>10</sub>H<sub>9</sub>NO",
        "Molecular Mass": "159.18",
        "Boiling Point": "186-189 °C @ Press: 3-4 Torr",
        "Melting Point": "69-70 °C"
    }
}