{
    "cas_no": "6938-45-0",
    "key_name": "Benzyl hexanoate",
    "cn_name": null,
    "alternate_name": "Hexanoic acid, phenylmethyl ester;Hexanoic acid, benzyl ester;Benzyl caproate;Benzyl hexanoate;NSC 53964",
    "duplicated_cas_no": "",
    "SMILES": "C(OC(CCCCC)=O)C1=CC=CC=C1",
    "meta_data": {
        "InChI": "InChI=1S/C13H18O2/c1-2-3-5-10-13(14)15-11-12-8-6-4-7-9-12/h4,6-9H,2-3,5,10-11H2,1H3",
        "InChIKey": null,
        "Canonical SMILES": "O=C(OCC=1C=CC=CC1)CCCCC",
        "Molecular Formula": "C<sub>13</sub>H<sub>18</sub>O<sub>2</sub>",
        "Molecular Mass": "206.28",
        "Boiling Point": "270 °C"
    }
}