{
    "cas_no": "5307-99-3",
    "key_name": "7,7-Dichlorobicyclo[3.2.0]hept-2-en-6-one",
    "cn_name": "7,7-二氯二环(3.2.0 )庚-2-烯-6-酮;",
    "alternate_name": "Bicyclo[3.2.0]hept-2-en-6-one, 7,7-dichloro-;7,7-Dichlorobicyclo[3.2.0]hept-2-en-6-one;NSC 116987",
    "duplicated_cas_no": "32166-21-5;62182-64-3",
    "SMILES": "O=C1C2C(C1(Cl)Cl)C=CC2",
    "meta_data": {
        "InChI": "InChI=1S/C7H6Cl2O/c8-7(9)5-3-1-2-4(5)6(7)10/h1,3-5H,2H2",
        "InChIKey": null,
        "Canonical SMILES": "O=C1C2CC=CC2C1(Cl)Cl",
        "Molecular Formula": "C<sub>7</sub>H<sub>6</sub>Cl<sub>2</sub>O",
        "Molecular Mass": "177.03",
        "Boiling Point": "59-60 °C @ Press: 0.5 Torr"
    }
}