{
    "cas_no": "79-31-2",
    "key_name": "Isobutyric acid",
    "cn_name": "异丁酸;2-甲基丙酸;",
    "alternate_name": "Propanoic acid, 2-methyl-;Isobutyric acid;2-Methylpropanoic acid;Dimethylacetic acid;Isopropylformic acid;α-Methylpropionic acid;2-Methylpropionic acid;<em>iso</em>-Butyric acid;Isobutanoic acid;α-Methylpropanoic acid;i-Butyric acid;NSC 62780;2-Propanecarboxylic acid;2-Methyl-1-propanoic acid;Isobutyrates;67: PN: WO2021258073 SEQID: 68 claimed sequence;MeSH ID: D058610",
    "duplicated_cas_no": "",
    "SMILES": "C(C(O)=O)(C)C",
    "meta_data": {
        "InChI": "InChI=1S/C4H8O2/c1-3(2)4(5)6/h3H,1-2H3,(H,5,6)",
        "InChIKey": null,
        "Canonical SMILES": "O=C(O)C(C)C",
        "Molecular Formula": "C<sub>4</sub>H<sub>8</sub>O<sub>2</sub>",
        "Molecular Mass": "88.11",
        "Boiling Point": "152-155 °C @ Press: 760 Torr",
        "Melting Point": "-47 °C",
        "Density": "0.950 g/cm³ @ Temp: 20 °C"
    }
}