{
    "cas_no": "313-67-7",
    "key_name": "Aristolochic acid",
    "cn_name": "马兜铃酸;8-甲氧基-3,4-亚甲二氧基-10-硝基菲-1-甲酸;",
    "alternate_name": "Phenanthro[3,4-<em>d</em>]-1,3-dioxole-5-carboxylic acid, 8-methoxy-6-nitro-;8-Methoxy-6-nitrophenanthro[3,4-<em>d</em>]-1,3-dioxole-5-carboxylic acid;Aristolochic acid I;Tardolyt;TR 1736;Aristolochic acid;Aristolochic acid A;Aristolochic acid 1;NSC 11926;NSC 50413;Aristolochia A;8-Methoxy-3,4-methylenedioxy-10-nitrophenanthrene-1-carboxylic acid",
    "duplicated_cas_no": "12770-90-0;61117-05-3;1414787-57-7",
    "SMILES": "N(=O)(=O)C=1C=2C(C=3C(C1)=C(OC)C=CC3)=C4C(=CC2C(O)=O)OCO4",
    "meta_data": {
        "InChI": "InChI=1S/C17H11NO7/c1-23-12-4-2-3-8-9(12)5-11(18(21)22)14-10(17(19)20)6-13-16(15(8)14)25-7-24-13/h2-6H,7H2,1H3,(H,19,20)",
        "InChIKey": null,
        "Canonical SMILES": "O=C(O)C1=CC=2OCOC2C3=C4C=CC=C(OC)C4=CC(=C13)N(=O)=O",
        "Molecular Formula": "C<sub>17</sub>H<sub>11</sub>NO<sub>7</sub>",
        "Molecular Mass": "341.27",
        "Melting Point": "278 °C (decomp)"
    }
}