{
    "cas_no": "298-02-2",
    "key_name": "Phorate",
    "cn_name": "甲拌磷;O,O-二乙基-S-乙硫基甲基-二硫代磷酸酯;",
    "alternate_name": "Phosphorodithioic acid, <em>O</em>,<em>O</em>-diethyl <em>S</em>-[(ethylthio)methyl] ester;L 11/6;ENT 24,042;American Cyanamid 3911;<em>O</em>,<em>O</em>-Diethyl <em>S</em>-ethylmercaptomethyl dithiophosphate;<em>O</em>,<em>O</em>-Diethyl <em>S</em>-ethylthiomethyl dithiophosphate;<em>O</em>,<em>O</em>-Diethyl <em>S</em>-[(ethylthio)methyl] phosphorodithioate;Experimental Insecticide 3911;Phorate;Thimet;Thimet G;Thimet 10G;Phorate 10G;Timet;Granutox;VUAgT 182;suScon FuMing;Foratox;MeSH ID: D010702",
    "duplicated_cas_no": "",
    "SMILES": "P(SCSCC)(OCC)(OCC)=S",
    "meta_data": {
        "InChI": "InChI=1S/C7H17O2PS3/c1-4-8-10(11,9-5-2)13-7-12-6-3/h4-7H2,1-3H3",
        "InChIKey": null,
        "Canonical SMILES": "S=P(OCC)(OCC)SCSCC",
        "Molecular Formula": "C<sub>7</sub>H<sub>17</sub>O<sub>2</sub>PS<sub>3</sub>",
        "Molecular Mass": "260.38",
        "Boiling Point": "125-127 °C @ Press: 2.0 Torr",
        "Melting Point": "&lt;-15 °C",
        "Density": "1.156 g/cm³ @ Temp: 25 °C"
    }
}