{
    "cas_no": "1138-60-9",
    "key_name": "Isopropyl gallate",
    "cn_name": "没食子酸异丙酯;",
    "alternate_name": "Benzoic acid, 3,4,5-trihydroxy-, 1-methylethyl ester;Gallic acid, isopropyl ester;Isopropyl gallate;NSC 133457;3,4,5-Trihydroxy-benzoic acid isopropyl ester;Isopropyl 3,4,5-trihydroxybenzoate",
    "duplicated_cas_no": "",
    "SMILES": "C(OC(C)C)(=O)C1=CC(O)=C(O)C(O)=C1",
    "meta_data": {
        "InChI": "InChI=1S/C10H12O5/c1-5(2)15-10(14)6-3-7(11)9(13)8(12)4-6/h3-5,11-13H,1-2H3",
        "InChIKey": null,
        "Canonical SMILES": "O=C(OC(C)C)C1=CC(O)=C(O)C(O)=C1",
        "Molecular Formula": "C<sub>10</sub>H<sub>12</sub>O<sub>5</sub>",
        "Molecular Mass": "212.20",
        "Melting Point": "123-124.5 °C"
    }
}