{
    "cas_no": "3772-26-7",
    "key_name": "<em>N</em>-Isopropyl-2-pyrrolidone",
    "cn_name": "N-异丙基-2-吡咯烷酮;",
    "alternate_name": "2-Pyrrolidinone, 1-(1-methylethyl)-;2-Pyrrolidinone, 1-isopropyl-;1-(1-Methylethyl)-2-pyrrolidinone;<em>N</em>-Isopropyl-2-pyrrolidone;1-Isopropyl-2-pyrrolidinone;<em>N</em>-Isopropylpyrrolidinone;<em>N</em>-Isopropyl-2-pyrrolidinone;<em>N</em>-Isopropylbutyrolactam;1-(Propan-2-yl)pyrrolidin-2-one;1-Propan-2-ylpyrrolidin-2-one",
    "duplicated_cas_no": "",
    "SMILES": "C(C)(C)N1C(=O)CCC1",
    "meta_data": {
        "InChI": "InChI=1S/C7H13NO/c1-6(2)8-5-3-4-7(8)9/h6H,3-5H2,1-2H3",
        "InChIKey": null,
        "Canonical SMILES": "O=C1N(CCC1)C(C)C",
        "Molecular Formula": "C<sub>7</sub>H<sub>13</sub>NO",
        "Molecular Mass": "127.18",
        "Boiling Point": "110-115 °C @ Press: 25 Torr"
    }
}