{
    "cas_no": "4754-39-6",
    "key_name": "5′-Deoxyadenosine",
    "cn_name": null,
    "alternate_name": "Adenosine, 5′-deoxy-;5′-Deoxyadenosine",
    "duplicated_cas_no": "14357-30-3",
    "SMILES": "O[C@H]1[C@H](N2C=3C(N=C2)=C(N)N=CN3)O[C@H](C)[C@H]1O",
    "meta_data": {
        "InChI": "InChI=1S/C10H13N5O3/c1-4-6(16)7(17)10(18-4)15-3-14-5-8(11)12-2-13-9(5)15/h2-4,6-7,10,16-17H,1H3,(H2,11,12,13)/t4-,6-,7-,10-/m1/s1",
        "InChIKey": null,
        "Canonical SMILES": "OC1C(O)C(OC1N2C=NC=3C(=NC=NC32)N)C",
        "Molecular Formula": "C<sub>10</sub>H<sub>13</sub>N<sub>5</sub>O<sub>3</sub>",
        "Molecular Mass": "251.24",
        "Melting Point": "205-207 °C"
    }
}