{
    "cas_no": "6850-23-3",
    "key_name": "1-Methyl-6-nitro-1<em>H</em>-indazole",
    "cn_name": null,
    "alternate_name": "1<em>H</em>-Indazole, 1-methyl-6-nitro-;1-Methyl-6-nitro-1<em>H</em>-indazole;1-Methyl-6-nitroindazole;NSC 131654",
    "duplicated_cas_no": "",
    "SMILES": "CN1C=2C(=CC=C(N(=O)=O)C2)C=N1",
    "meta_data": {
        "InChI": "InChI=1S/C8H7N3O2/c1-10-8-4-7(11(12)13)3-2-6(8)5-9-10/h2-5H,1H3",
        "InChIKey": null,
        "Canonical SMILES": "O=N(=O)C=1C=CC=2C=NN(C2C1)C",
        "Molecular Formula": "C<sub>8</sub>H<sub>7</sub>N<sub>3</sub>O<sub>2</sub>",
        "Molecular Mass": "177.16",
        "Melting Point": "122 °C"
    }
}