{
    "cas_no": "1327-53-3",
    "key_name": "Arsenic trioxide",
    "cn_name": null,
    "alternate_name": "Arsenic oxide (As<sub>2</sub>O<sub>3</sub>);Arsenic sesquioxide;Arsenic trioxide;Arsenous oxide;White arsenic;Arsenous anhydride;Arsodent;Diarsenic trioxide;Arsenious oxide;Arsenicum album;Arsenic sesquioxide (As<sub>2</sub>O<sub>3</sub>);Arsenic oxide (AsO<sub>1.5</sub>);Arsenious trioxide;Trisenox;Arsenic(III) trioxide;Trisonex",
    "duplicated_cas_no": "28380-38-3;856307-43-2",
    "SMILES": "",
    "meta_data": {
        "InChI": "",
        "InChIKey": null,
        "Canonical SMILES": "",
        "Molecular Formula": "As<sub>2</sub>O<sub>3</sub>",
        "Molecular Mass": "",
        "Boiling Point": "460 °C",
        "Melting Point": "275-313 °C",
        "Density": "3.7-4.2 g/cm³"
    }
}