{
    "uri": "substance/pt/1327533",
    "rn": "1327-53-3",
    "name": "Arsenic trioxide",
    "images": [],
    "inchi": "",
    "inchiKey": "",
    "smile": "",
    "canonicalSmile": "",
    "molecularFormula": "As<sub>2</sub>O<sub>3</sub>",
    "molecularMass": "",
    "experimentalProperties": [
        {
            "name": "Boiling Point",
            "property": "460 °C",
            "sourceNumber": 1
        },
        {
            "name": "Melting Point",
            "property": "275-313 °C",
            "sourceNumber": 2
        },
        {
            "name": "Density",
            "property": "3.7-4.2 g/cm³",
            "sourceNumber": 2
        }
    ],
    "propertyCitations": [
        {
            "docUri": "",
            "sourceNumber": 1,
            "source": "Hazardous Substances Data Bank data were obtained from the National Library of Medicine (US)"
        },
        {
            "docUri": "",
            "sourceNumber": 2,
            "source": "International Chemical Safety Cards data were obtained from the National Institute for Occupational Safety and Health (US)"
        }
    ],
    "synonyms": [
        "Arsenic oxide (As<sub>2</sub>O<sub>3</sub>)",
        "Arsenic sesquioxide",
        "Arsenic trioxide",
        "Arsenous oxide",
        "White arsenic",
        "Arsenous anhydride",
        "Arsodent",
        "Diarsenic trioxide",
        "Arsenious oxide",
        "Arsenicum album",
        "Arsenic sesquioxide (As<sub>2</sub>O<sub>3</sub>)",
        "Arsenic oxide (AsO<sub>1.5</sub>)",
        "Arsenious trioxide",
        "Trisenox",
        "Arsenic(III) trioxide",
        "Trisonex"
    ],
    "replacedRns": [
        "28380-38-3",
        "856307-43-2"
    ],
    "hasMolfile": false,
    "source": "https://commonchemistry.cas.org/detail?cas_rn=1327-53-3"
}