{
    "cas_no": "28289-54-5",
    "key_name": "1-Methyl-4-phenyl-1,2,3,6-tetrahydropyridine",
    "cn_name": "1-甲基-4-苯基-1,2,3,6-四氢吡啶;",
    "alternate_name": "Pyridine, 1,2,3,6-tetrahydro-1-methyl-4-phenyl-;1,2,3,6-Tetrahydro-1-methyl-4-phenylpyridine;1-Methyl-4-phenyl-1,2,3,6-tetrahydropyridine;<em>N</em>-Methyl-4-phenyl-1,2,3,6-tetrahydropyridine;1-Methyl-4-phenyl-1,2,5,6-tetrahydropyridine;<em>N</em>-Methyl-4-phenyl-1,2,5,6-tetrahydropyridine;MPTP;NSC 139654;1-Methyl-4-phenyl-3,6-dihydro-2<em>H</em>-pyridine;MeSH ID: D015632",
    "duplicated_cas_no": "5047-96-1",
    "SMILES": "CN1CCC(=CC1)C2=CC=CC=C2",
    "meta_data": {
        "InChI": "InChI=1S/C12H15N/c1-13-9-7-12(8-10-13)11-5-3-2-4-6-11/h2-7H,8-10H2,1H3",
        "InChIKey": null,
        "Canonical SMILES": "C=1C=CC(=CC1)C2=CCN(C)CC2",
        "Molecular Formula": "C<sub>12</sub>H<sub>15</sub>N",
        "Molecular Mass": "173.25",
        "Boiling Point": "85-90 °C @ Press: 0.8 Torr",
        "Melting Point": "40-42 °C"
    }
}