{
    "cas_no": "963-15-5",
    "key_name": "1,1′-[(1<em>Z</em>)-1,2-Ethenediylbis(sulfonyl)]bis[benzene]",
    "cn_name": "顺-1,2-二(苯砜)乙烯;",
    "alternate_name": "Benzene, 1,1′-[(1<em>Z</em>)-1,2-ethenediylbis(sulfonyl)]bis-;Ethylene, 1,2-bis(phenylsulfonyl)-, (<em>Z</em>)-;Benzene, 1,1′-[1,2-ethenediylbis(sulfonyl)]bis-, (<em>Z</em>)-;1,1′-[(1<em>Z</em>)-1,2-Ethenediylbis(sulfonyl)]bis[benzene];<em>Z</em>-1,2-Bis(phenylsulfonyl)ethylene;(<em>Z</em>)-1,2-Bis(benzenesulfonyl)ethylene;<em>cis</em>-1,2-Bis(phenylsulfonyl)ethylene;(<em>Z</em>)-1,2-Di(phenylsulfonyl)ethylene;<em>cis</em>-Bis(phenylsulfonyl)ethylene;<em>cis</em>-1,2-Di(phenylsulfonyl)ethylene",
    "duplicated_cas_no": "",
    "SMILES": "S(/C=C\\S(=O)(=O)C1=CC=CC=C1)(=O)(=O)C2=CC=CC=C2",
    "meta_data": {
        "InChI": "InChI=1S/C14H12O4S2/c15-19(16,13-7-3-1-4-8-13)11-12-20(17,18)14-9-5-2-6-10-14/h1-12H/b12-11-",
        "InChIKey": null,
        "Canonical SMILES": "O=S(=O)(C=CS(=O)(=O)C=1C=CC=CC1)C=2C=CC=CC2",
        "Molecular Formula": "C<sub>14</sub>H<sub>12</sub>O<sub>4</sub>S<sub>2</sub>",
        "Molecular Mass": "308.37",
        "Melting Point": "99-100 °C"
    }
}