{
    "cas_no": "335-70-6",
    "key_name": "1,8-Diiodoperfluorooctane",
    "cn_name": "1,8-二碘代全氟辛烷;",
    "alternate_name": "Octane, 1,1,2,2,3,3,4,4,5,5,6,6,7,7,8,8-hexadecafluoro-1,8-diiodo-;Octane, hexadecafluoro-1,8-diiodo-;1,1,2,2,3,3,4,4,5,5,6,6,7,7,8,8-Hexadecafluoro-1,8-diiodooctane;1,8-Diiodoperfluorooctane;1,8-Diiodohexadecafluorooctane;α,ω-Diiodoperfluorooctane",
    "duplicated_cas_no": "",
    "SMILES": "C(C(C(C(C(F)(F)I)(F)F)(F)F)(F)F)(C(C(C(F)(F)I)(F)F)(F)F)(F)F",
    "meta_data": {
        "InChI": "InChI=1S/C8F16I2/c9-1(10,3(13,14)5(17,18)7(21,22)25)2(11,12)4(15,16)6(19,20)8(23,24)26",
        "InChIKey": null,
        "Canonical SMILES": "FC(F)(I)C(F)(F)C(F)(F)C(F)(F)C(F)(F)C(F)(F)C(F)(F)C(F)(F)I",
        "Molecular Formula": "C<sub>8</sub>F<sub>16</sub>I<sub>2</sub>",
        "Molecular Mass": "653.87",
        "Boiling Point": "95-98 °C @ Press: 0.4 Torr",
        "Melting Point": "75-76 °C"
    }
}