{
    "cas_no": "4181-95-7",
    "key_name": "Tetracontane",
    "cn_name": null,
    "alternate_name": "Tetracontane;<em>n</em>-Tetracontane",
    "duplicated_cas_no": "",
    "SMILES": "C(CCCCCCCCCCCCCCCCCCCC)CCCCCCCCCCCCCCCCCCC",
    "meta_data": {
        "InChI": "InChI=1S/C40H82/c1-3-5-7-9-11-13-15-17-19-21-23-25-27-29-31-33-35-37-39-40-38-36-34-32-30-28-26-24-22-20-18-16-14-12-10-8-6-4-2/h3-40H2,1-2H3",
        "InChIKey": null,
        "Canonical SMILES": "CCCCCCCCCCCCCCCCCCCCCCCCCCCCCCCCCCCCCCCC",
        "Molecular Formula": "C<sub>40</sub>H<sub>82</sub>",
        "Molecular Mass": "563.08",
        "Boiling Point": "150 °C",
        "Melting Point": "81-83 °C"
    }
}