{
    "cas_no": "14228-73-0",
    "key_name": "1,4-Cyclohexanedimethanol diglycidyl ether",
    "cn_name": "1,4-双[(缩水甘油氧)甲基]环己烷;",
    "alternate_name": "Oxirane, 2,2′-[1,4-cyclohexanediylbis(methyleneoxymethylene)]bis-;Cyclohexane, 1,4-bis[(2,3-epoxypropoxy)methyl]-;2,2′-[1,4-Cyclohexanediylbis(methyleneoxymethylene)]bis[oxirane];1,4-Bis[(2,3-epoxypropoxy)methyl]cyclohexane;1,4-Bis(glycidoxymethyl)cyclohexane;1,4-Bis[(glycidyloxy)methyl]cyclohexane;1,4-Cyclohexanedimethanol diglycidyl ether;1,4-Bis(hydroxymethyl)cyclohexane diglycidyl ether;REP 111",
    "duplicated_cas_no": "18625-91-7;2354430-43-4;3008545-06-7",
    "SMILES": "C(OCC1CO1)C2CCC(COCC3CO3)CC2",
    "meta_data": {
        "InChI": "InChI=1S/C14H24O4/c1-2-12(6-16-8-14-10-18-14)4-3-11(1)5-15-7-13-9-17-13/h11-14H,1-10H2",
        "InChIKey": null,
        "Canonical SMILES": "O(CC1OC1)CC2CCC(COCC3OC3)CC2",
        "Molecular Formula": "C<sub>14</sub>H<sub>24</sub>O<sub>4</sub>",
        "Molecular Mass": "256.34",
        "Boiling Point": "135 °C @ Press: 0.12 Torr"
    }
}