{
    "cas_no": "626-87-9",
    "key_name": "1,4-Dibromopentane",
    "cn_name": "1,4-二溴戊烷;",
    "alternate_name": "Pentane, 1,4-dibromo-;1,4-Dibromopentane;(<em>RS</em>)-1,4-Dibromopentane;NSC 8753;2,5-Dibromopentane",
    "duplicated_cas_no": "",
    "SMILES": "C(C(Br)C)CCBr",
    "meta_data": {
        "InChI": "InChI=1S/C5H10Br2/c1-5(7)3-2-4-6/h5H,2-4H2,1H3",
        "InChIKey": null,
        "Canonical SMILES": "BrCCCC(Br)C",
        "Molecular Formula": "C<sub>5</sub>H<sub>10</sub>Br<sub>2</sub>",
        "Molecular Mass": "229.94",
        "Boiling Point": "82 °C @ Press: 12 Torr",
        "Melting Point": "-34.4 °C",
        "Density": "1.687 g/cm³ @ Temp: 15 °C"
    }
}