{
    "cas_no": "106-89-8",
    "key_name": "Epichlorohydrin",
    "cn_name": "环氧氯丙烷;3-氯-1,2-环氧丙烷;",
    "alternate_name": "Oxirane, 2-(chloromethyl)-;Propane, 1-chloro-2,3-epoxy-;Oxirane, (chloromethyl)-;2-(Chloromethyl)oxirane;1-Chloro-2,3-epoxypropane;3-Chloro-1,2-epoxypropane;Epichlorohydrin;γ-Chloropropylene oxide;3-Chloro-1,2-propylene oxide;α-Epichlorohydrin;(Chloromethyl)ethylene oxide;1,2-Epoxy-3-chloropropane;2,3-Epoxypropyl chloride;(Chloromethyl)oxirane;Chloropropylene oxide;3-Chloropropene-1,2-oxide;Glycidyl chloride;Glycerol epichlorohydrin;3-Chloropropylene oxide;J 006;<em>dl</em>-α-Epichlorohydrin;(<em>RS</em>)-Epichlorhydrin;(±)-Epichlorohydrin;NSC 6747;Epoxychloropropane;Epicerol;10: PN: WO2017021334 SEQID: 16 claimed sequence;3-Chloropropylene epoxide;MeSH ID: D004811",
    "duplicated_cas_no": "109351-74-8;9009-12-5;13403-37-7;36250-81-4",
    "SMILES": "C(Cl)C1CO1",
    "meta_data": {
        "InChI": "InChI=1S/C3H5ClO/c4-1-3-2-5-3/h3H,1-2H2",
        "InChIKey": null,
        "Canonical SMILES": "ClCC1OC1",
        "Molecular Formula": "C<sub>3</sub>H<sub>5</sub>ClO",
        "Molecular Mass": "92.52",
        "Boiling Point": "117.9 °C",
        "Melting Point": "-25.6 °C",
        "Density": "1.1750 g/cm³ @ Temp: 25 °C"
    }
}