{
    "cas_no": "1019-45-0",
    "key_name": "5-Methoxy-<em>N</em>,<em>N</em>-dimethyltryptamine",
    "cn_name": "5-甲氧基-N,N-二甲基色胺;",
    "alternate_name": "1<em>H</em>-Indole-3-ethanamine, 5-methoxy-<em>N</em>,<em>N</em>-dimethyl-;Indole, 3-[2-(dimethylamino)ethyl]-5-methoxy-;5-Methoxy-<em>N</em>,<em>N</em>-dimethyl-1<em>H</em>-indole-3-ethanamine;Bufotenine, <em>O</em>-methyl-;3-(2-Dimethylaminoethyl)-5-methoxyindole;5-Methoxy-<em>N</em>,<em>N</em>-dimethyltryptamine;<em>O</em>-Methylbufotenine;CT 4334;5-Methoxydimethyltryptamine;Methoxybufotenin;Methylbufotenine;<em>N</em>,<em>N</em>-Dimethyl-5-methoxytryptamine;NSC 88624;5-MeO-DMT;[2-(5-Methoxy-1<em>H</em>-indol-3-yl)-ethyl]-dimethyl-amine;[2-(5-Methoxy-1<em>H</em>-indol-3-yl)ethyl]dimethylamine;Mebufotenin",
    "duplicated_cas_no": "",
    "SMILES": "C(CN(C)C)C=1C=2C(NC1)=CC=C(OC)C2",
    "meta_data": {
        "InChI": "InChI=1S/C13H18N2O/c1-15(2)7-6-10-9-14-13-5-4-11(16-3)8-12(10)13/h4-5,8-9,14H,6-7H2,1-3H3",
        "InChIKey": null,
        "Canonical SMILES": "O(C=1C=CC=2NC=C(C2C1)CCN(C)C)C",
        "Molecular Formula": "C<sub>13</sub>H<sub>18</sub>N<sub>2</sub>O",
        "Molecular Mass": "218.29",
        "Boiling Point": "208-210 °C",
        "Melting Point": "66-67 °C"
    }
}