{
    "cas_no": "207740-24-7",
    "key_name": "4-Ethylthio-2,5-dimethoxyphenethylamine",
    "cn_name": "2,5-二甲氧基-4-乙硫基苯乙胺;",
    "alternate_name": "Benzeneethanamine, 4-(ethylthio)-2,5-dimethoxy-;4-(Ethylthio)-2,5-dimethoxybenzeneethanamine;2,5-Dimethoxy-4-(ethylthio)phenethylamine;4-Ethylthio-2,5-dimethoxyphenethylamine;2C-T2;4-Ethylthio-2,5-dimethoxy-β-phenethylamine;2-[4-(Ethylsulfanyl)-2,5-dimethoxyphenyl]ethan-1-amine",
    "duplicated_cas_no": "",
    "SMILES": "C(CN)C1=C(OC)C=C(SCC)C(OC)=C1",
    "meta_data": {
        "InChI": "InChI=1S/C12H19NO2S/c1-4-16-12-8-10(14-2)9(5-6-13)7-11(12)15-3/h7-8H,4-6,13H2,1-3H3",
        "InChIKey": null,
        "Canonical SMILES": "O(C1=CC(=C(OC)C=C1SCC)CCN)C",
        "Molecular Formula": "C<sub>12</sub>H<sub>19</sub>NO<sub>2</sub>S",
        "Molecular Mass": "241.35",
        "Melting Point": "130 °C"
    }
}