{
    "cas_no": "5071-96-5",
    "key_name": "3-Methoxybenzylamine",
    "cn_name": "3-甲氧基苄胺;",
    "alternate_name": "Benzenemethanamine, 3-methoxy-;Benzylamine, <em>m</em>-methoxy-;3-Methoxybenzenemethanamine;3-Methoxybenzylamine;<em>m</em>-Methoxybenzylamine;(3-Methoxyphenyl)methanamine;[(3-Methoxyphenyl)methyl]amine;NSC 162042;[[3-(Methyloxy)phenyl]methyl]amine;1-[3-(Methyloxy)phenyl]methanamine;1-(3-Methoxyphenyl)methanamine",
    "duplicated_cas_no": "",
    "SMILES": "C(N)C1=CC(OC)=CC=C1",
    "meta_data": {
        "InChI": "InChI=1S/C8H11NO/c1-10-8-4-2-3-7(5-8)6-9/h2-5H,6,9H2,1H3",
        "InChIKey": null,
        "Canonical SMILES": "O(C1=CC=CC(=C1)CN)C",
        "Molecular Formula": "C<sub>8</sub>H<sub>11</sub>NO",
        "Molecular Mass": "137.18",
        "Boiling Point": "131 °C @ Press: 26 Torr"
    }
}