{
    "cas_no": "5124-30-1",
    "key_name": "Hydrogenated MDI",
    "cn_name": "4,4-二异氰酸酯二环己基甲烷;",
    "alternate_name": "Cyclohexane, 1,1′-methylenebis[4-isocyanato-;Isocyanic acid, methylenedi-4,1-cyclohexylene ester;Isocyanic acid, methylenedi-1,4-cyclohexylene ester;Methane, bis(4-isocyanatocyclohexyl)-;1,1′-Methylenebis[4-isocyanatocyclohexane];Dicyclohexylmethane 4,4′-diisocyanate;Bis(4-isocyanatocyclohexyl)methane;Methylenebis(4-cyclohexyl isocyanate);4,4′-Diisocyanatodicyclohexylmethane;Methylenedi-4-cyclohexylene diisocyanate;Methylenedi-1,4-cyclohexylene isocyanate;Methylenedi-4,1-cyclohexylene isocyanate;Methylenebis(1,4-cyclohexylene) diisocyanate;Methylenebis(4-isocyanatocyclohexane);4,4′-Methylenebis(cyclohexyl isocyanate);Hydrogenated MDI;4,4′-Methylenedicyclohexyl diisocyanate;1,1-Methylene bis(4-isocyanatocyclohexane);4,4′-Dicyclohexylmethylene diisocyanate;Methylenedicyclohexylene-4,4′-diisocyanate;4,4′-Methylenedicyclohexylene diisocyanate;H<sub>12</sub>MDI;Perhydrodiphenylmethane-4,4′-diisocyanate;4,4′-Di(isocyanatocyclohexyl)methane;Methylene bis(<em>p</em>-cyclohexyl isocyanate);4,4′-Cyclohexylmethanediisocyanate;Hydrogenated diphenylmethane diisocyanate;Hydrogenated 4,4′-diphenylmethane diisocyanate;HMDI;4,4′-Methylenebis(4-cyclohexylisocyanate);1-Isocyanato-4-[(4-isocyanatocyclohexyl)methyl]cyclohexane;Hydrogenated 4,4′-MDI;4,4′-(Methylene)di(isocyanatocyclohexane);Methylenedicyclohexane-4,4′-diisocyanate",
    "duplicated_cas_no": "68966-63-2;73156-15-7;88504-76-1;103072-21-5;107314-16-9;123773-48-8;190601-97-9;201536-77-8;218459-95-1;280144-17-4;1081805-58-4;2368816-71-9",
    "SMILES": "C(C1CCC(N=C=O)CC1)C2CCC(N=C=O)CC2",
    "meta_data": {
        "InChI": "InChI=1S/C15H22N2O2/c18-10-16-14-5-1-12(2-6-14)9-13-3-7-15(8-4-13)17-11-19/h12-15H,1-9H2",
        "InChIKey": null,
        "Canonical SMILES": "O=C=NC1CCC(CC1)CC2CCC(N=C=O)CC2",
        "Molecular Formula": "C<sub>15</sub>H<sub>22</sub>N<sub>2</sub>O<sub>2</sub>",
        "Molecular Mass": "262.35",
        "Boiling Point": "156-158 °C @ Press: 0.1 Torr",
        "Density": "1.07 g/cm³"
    }
}