{
    "cas_no": "144-11-6",
    "key_name": "(±)-Trihexyphenidyl",
    "cn_name": "苯海索;安坦;1-环己基-1-苯基-3-哌啶基-1-丙醇;",
    "alternate_name": "1-Piperidinepropanol, α-cyclohexyl-α-phenyl-;α-Cyclohexyl-α-phenyl-1-piperidinepropanol;Benzhexol;Trihexyphenidyl;(±)-Trihexyphenidyl;(±)-Benzhexol;(±)-Triphenidyl;NSC 12268;1-Cyclohexyl-1-phenyl-3-piperidin-1-ylpropan-1-ol;1-Cyclohexyl-1-phenyl-3-(piperidin-1-yl)propan-1-ol;MeSH ID: D014282",
    "duplicated_cas_no": "87439-43-8",
    "SMILES": "C(CCN1CCCCC1)(O)(C2CCCCC2)C3=CC=CC=C3",
    "meta_data": {
        "InChI": "InChI=1S/C20H31NO/c22-20(18-10-4-1-5-11-18,19-12-6-2-7-13-19)14-17-21-15-8-3-9-16-21/h1,4-5,10-11,19,22H,2-3,6-9,12-17H2",
        "InChIKey": null,
        "Canonical SMILES": "OC(C=1C=CC=CC1)(CCN2CCCCC2)C3CCCCC3",
        "Molecular Formula": "C<sub>20</sub>H<sub>31</sub>NO",
        "Molecular Mass": "301.47",
        "Melting Point": "114.3-115.0 °C"
    }
}