{
    "cas_no": "41484-35-9",
    "key_name": "Thiodiethylene bis(3,5-di-<em>tert</em>-butyl-4-hydroxyhydrocinnamate)",
    "cn_name": "抗氧剂1035;硫代二乙撑双[3-(3,5-二叔丁基-4-羟基苯基)丙酸酯];",
    "alternate_name": "Benzenepropanoic acid, 3,5-bis(1,1-dimethylethyl)-4-hydroxy-, 1,1′-(thiodi-2,1-ethanediyl) ester;Benzenepropanoic acid, 3,5-bis(1,1-dimethylethyl)-4-hydroxy-, thiodi-2,1-ethanediyl ester;2,2′-Thiodiethylene bis[3-(3,5-di-<em>tert</em>-butyl-4-hydroxyhydrocinnamate];Thiodiethylene glycol bis[3-(3,5-di-<em>tert</em>-butyl-4-hydroxyphenyl)propionate];2,2′-Thiodiethylene bis[3-(3,5-di-<em>tert</em>-butyl-4-hydroxyphenyl)propionate];Bis[2-[3-(3,5-di-<em>tert</em>-butyl-4-hydroxyphenyl)propionyloxy]ethyl] sulfide;Bis[(3,5-di-<em>tert</em>-butyl-4-hydroxyphenyl)propionyl-2-oxyethyl] sulfide;Irganox 1035;Fenozan 30;3-Thia-1,5-pentanediol bis[3-(3,5-di-<em>tert</em>-butyl-4-hydroxyphenyl)propionate];Irganox 1035FF;Thiodi(2,1-ethanediyl) bis[3-(3,5-di-<em>tert</em>-butyl-4-hydroxyphenyl)propionate];Thiodiethylene bis(3,5-di-<em>tert</em>-butyl-4-hydroxyhydrocinnamate);Irganox L 1035;Naugard EL 50;2-(3,5-Di-<em>tert</em>-butyl-4-hydroxyphenyl)propionic acid 2,2′-thiobisethanol diester;AO 75;Durad AX 15;Thiodiethylene glycol bis[β-(4-hydroxy-3,5-di(<em>tert</em>-butyl)phenyl)propionate];Thiodiethylene glycol bis[β-(3,5-di-<em>tert</em>-butyl-4-hydroxyphenyl)propionate];IR 1035;Thiodiethylene bis[3-(3,5-di-<em>tert</em>-butyl-4-hydroxyphenyl)propionate;Irganox L 115;Anox 70;Antioxidant 1035;3,5-Di-<em>tert</em>-butyl-4-hydroxybenzenepropanoic acid thiodi-2,1-ethanediyl ester;Chinox 1035;2,2′-Thiodiethyl bis[3-(3,5-di-<em>tert</em>-butyl-4-hydroxyphenyl)propionate];S 35;L 115;2,2-Thiodiethylene bis-[(3-(3,5-di-<em>t</em>ert-butyl-4-hydroxyphenyl)propionate];Chinox S 35;2,2′-Thiodiethylene bis[3(3,5-di-<em>t</em>ert-butyl-4-hydroxyphenyl)propionate];3,5-Bis(1,1-dimethylethyl)-4-hydroxybenzenepropanoic acid 1,1′-(thiodi-2,1-ethanediyl) ester;2-[2-[3-(3,5-Ditert-butyl-4-hydroxyphenyl)propanoyloxy]ethylsulfanyl]ethyl 3-(3,5-ditert-butyl-4-hydroxyphenyl)propanoate;AO 1035;S 65385;Irgafos 1035;Brad-Chem 395;BNX 1035",
    "duplicated_cas_no": "53789-56-3;62132-55-2;75915-28-5;131439-63-9;350983-77-6;894791-61-8;1883508-43-7;1917308-14-5;2218524-51-5",
    "SMILES": "C(CC(OCCSCCOC(CCC1=CC(C(C)(C)C)=C(O)C(C(C)(C)C)=C1)=O)=O)C2=CC(C(C)(C)C)=C(O)C(C(C)(C)C)=C2",
    "meta_data": {
        "InChI": "InChI=1S/C38H58O6S/c1-35(2,3)27-21-25(22-28(33(27)41)36(4,5)6)13-15-31(39)43-17-19-45-20-18-44-32(40)16-14-26-23-29(37(7,8)9)34(42)30(24-26)38(10,11)12/h21-24,41-42H,13-20H2,1-12H3",
        "InChIKey": null,
        "Canonical SMILES": "O=C(OCCSCCOC(=O)CCC=1C=C(C(O)=C(C1)C(C)(C)C)C(C)(C)C)CCC=2C=C(C(O)=C(C2)C(C)(C)C)C(C)(C)C",
        "Molecular Formula": "C<sub>38</sub>H<sub>58</sub>O<sub>6</sub>S",
        "Molecular Mass": "642.93",
        "Melting Point": "70 °C"
    }
}