{
    "cas_no": "98-94-2",
    "key_name": "<em>N</em>,<em>N</em>-Dimethylcyclohexylamine",
    "cn_name": "N,N-二甲基环己胺;DMCHA;",
    "alternate_name": "Cyclohexanamine, <em>N</em>,<em>N</em>-dimethyl-;Cyclohexylamine, <em>N</em>,<em>N</em>-dimethyl-;<em>N</em>,<em>N</em>-Dimethylcyclohexanamine;Cyclohexyldimethylamine;(Dimethylamino)cyclohexane;<em>N</em>-Cyclohexyldimethylamine;Polycat 8;<em>N</em>,<em>N</em>-Dimethylaminocyclohexane;Toyocat DMCH;Wondamine DMCA;Wandamin DMCA;Niax C 8;PC CAT DMCHA;<em>N</em>,<em>N</em>-Dimethylcyclohexylamine;PC CAT NP 33R;Kaolizer 10;NSC 163904;PC 8;Kao 10;SFC;Jeffcat DMCHA;DMCHA;Y 12 (catalyst);Y 12;Tegoamin DMCHA;KL 10;<em>N</em>-Cyclohexyl-<em>N</em>,<em>N</em>-dimethylamine;Lupragen N 100;DY 8;PC 8 catalyst;Dabco PC 8;Desmorapid 726B;Rubitherm LR 18412;Niax PC 8;Wanamine DMCHA",
    "duplicated_cas_no": "75496-03-6;130254-81-8;205657-42-7;389120-80-3;1304117-32-5;1639015-74-9",
    "SMILES": "N(C)(C)C1CCCCC1",
    "meta_data": {
        "InChI": "InChI=1S/C8H17N/c1-9(2)8-6-4-3-5-7-8/h8H,3-7H2,1-2H3",
        "InChIKey": null,
        "Canonical SMILES": "N(C)(C)C1CCCCC1",
        "Molecular Formula": "C<sub>8</sub>H<sub>17</sub>N",
        "Molecular Mass": "127.23",
        "Boiling Point": "162-165 °C",
        "Melting Point": "-60 °C",
        "Density": "0.8490 g/cm³ @ Temp: 20 °C"
    }
}