{
    "cas_no": "5694-00-8",
    "key_name": "Glycidamide",
    "cn_name": "环氧丙酰胺;环氧丙酰胺;",
    "alternate_name": "2-Oxiranecarboxamide;Glycidamide;Oxiranecarboxamide;Glycidic acid amide;(±)-Oxiranecarboxamide",
    "duplicated_cas_no": "163491-00-7",
    "SMILES": "C(N)(=O)C1CO1",
    "meta_data": {
        "InChI": "InChI=1S/C3H5NO2/c4-3(5)2-1-6-2/h2H,1H2,(H2,4,5)",
        "InChIKey": null,
        "Canonical SMILES": "O=C(N)C1OC1",
        "Molecular Formula": "C<sub>3</sub>H<sub>5</sub>NO<sub>2</sub>",
        "Molecular Mass": "87.08",
        "Boiling Point": "72-73 °C @ Press: 0.2 Torr",
        "Melting Point": "33-34 °C"
    }
}