{
    "cas_no": "6885-57-0",
    "key_name": "Aflatoxin M<sub>2</sub>",
    "cn_name": null,
    "alternate_name": "Cyclopenta[<em>c</em>]furo[3′,2′:4,5]furo[2,3-<em>h</em>][1]benzopyran-1,11-dione, 2,3,6a,8,9,9a-hexahydro-9a-hydroxy-4-methoxy-;Aflatoxin M<sub>2</sub>;2,3,6a,8,9,9a-Hexahydro-9a-hydroxy-4-methoxycyclopenta[<em>c</em>]furo[3′,2′:4,5]furo[2,3-<em>h</em>][1]benzopyran-1,11-dione",
    "duplicated_cas_no": "",
    "SMILES": "OC12C=3C4=C(C5=C(C(=O)O4)C(=O)CC5)C(OC)=CC3OC1OCC2",
    "meta_data": {
        "InChI": "InChI=1S/C17H14O7/c1-21-9-6-10-13(17(20)4-5-22-16(17)23-10)14-12(9)7-2-3-8(18)11(7)15(19)24-14/h6,16,20H,2-5H2,1H3",
        "InChIKey": null,
        "Canonical SMILES": "O=C1OC2=C(C(OC)=CC=3OC4OCCC4(O)C32)C5=C1C(=O)CC5",
        "Molecular Formula": "C<sub>17</sub>H<sub>14</sub>O<sub>7</sub>",
        "Molecular Mass": "330.29",
        "Melting Point": "293 °C"
    }
}