{
    "cas_no": "33844-21-2",
    "key_name": "4-Methoxy-2-nitrobenzoic acid",
    "cn_name": "4-甲氧基-2-硝基苯甲酸;",
    "alternate_name": "Benzoic acid, 4-methoxy-2-nitro-;<em>p</em>-Anisic acid, 2-nitro-;4-Methoxy-2-nitrobenzoic acid;2-Nitro-4-methoxybenzoic acid;2-Nitro-<em>p</em>-anisic acid;NSC 149936",
    "duplicated_cas_no": "",
    "SMILES": "N(=O)(=O)C1=C(C(O)=O)C=CC(OC)=C1",
    "meta_data": {
        "InChI": "InChI=1S/C8H7NO5/c1-14-5-2-3-6(8(10)11)7(4-5)9(12)13/h2-4H,1H3,(H,10,11)",
        "InChIKey": null,
        "Canonical SMILES": "O=C(O)C1=CC=C(OC)C=C1N(=O)=O",
        "Molecular Formula": "C<sub>8</sub>H<sub>7</sub>NO<sub>5</sub>",
        "Molecular Mass": "197.14",
        "Melting Point": "195-196 °C"
    }
}