{
    "cas_no": "6289-46-9",
    "key_name": "Dimethyl succinylsuccinate",
    "cn_name": "丁二酰丁二酸二甲酯;2,5-二甲氧酰基-1,4-环己二酮;",
    "alternate_name": "1,4-Cyclohexanedicarboxylic acid, 2,5-dioxo-, 1,4-dimethyl ester;1,4-Cyclohexanedicarboxylic acid, 2,5-dioxo-, dimethyl ester;Succinosuccinic acid dimethyl ester;Dimethyl succinosuccinate;Dimethyl succinylsuccinate;Dimethyl 2,5-dioxocyclohexane-1,4-dicarboxylate;NSC 122567;NSC 5670;Dimethyl cyclohexane-2,5-dione-1,4-dicarboxylate;Dimethyl 1,4-cyclohexanedione-2,5-dicarboxylate;Dimethyl 2,5-dioxocyclohexane-1,4-carboxylate;1,4-Dimethyl 2,5-dioxocyclohexane-1,4-dicarboxylate",
    "duplicated_cas_no": "",
    "SMILES": "C(OC)(=O)C1C(=O)CC(C(OC)=O)C(=O)C1",
    "meta_data": {
        "InChI": "InChI=1S/C10H12O6/c1-15-9(13)5-3-8(12)6(4-7(5)11)10(14)16-2/h5-6H,3-4H2,1-2H3",
        "InChIKey": null,
        "Canonical SMILES": "O=C(OC)C1C(=O)CC(C(=O)OC)C(=O)C1",
        "Molecular Formula": "C<sub>10</sub>H<sub>12</sub>O<sub>6</sub>",
        "Molecular Mass": "228.20",
        "Melting Point": "153 °C"
    }
}