{
    "cas_no": "2924-15-4",
    "key_name": "Hydrazine, (2-fluorophenyl)-, hydrochloride (1:1)",
    "cn_name": "2-氟苯肼盐酸盐;",
    "alternate_name": "Hydrazine, (2-fluorophenyl)-, hydrochloride (1:1);Hydrazine, (<em>o</em>-fluorophenyl)-, monohydrochloride;Hydrazine, (2-fluorophenyl)-, monohydrochloride",
    "duplicated_cas_no": "2763637-76-7",
    "SMILES": "N(N)C1=C(F)C=CC=C1.Cl",
    "meta_data": {
        "InChI": "InChI=1S/C6H7FN2.ClH/c7-5-3-1-2-4-6(5)9-8;/h1-4,9H,8H2;1H",
        "InChIKey": null,
        "Canonical SMILES": "Cl.FC=1C=CC=CC1NN",
        "Molecular Formula": "C<sub>6</sub>H<sub>7</sub>FN<sub>2</sub>.ClH",
        "Molecular Mass": "",
        "Melting Point": "186 °C (decomp)"
    }
}