{
    "cas_no": "1996-41-4",
    "key_name": "2-Chloro-4-fluorophenol",
    "cn_name": "2-氯-4-氟苯酚;邻氯对氟苯酚;",
    "alternate_name": "Phenol, 2-chloro-4-fluoro-;2-Chloro-4-fluorophenol;4-Fluoro-2-chlorophenol;NSC 10273",
    "duplicated_cas_no": "",
    "SMILES": "ClC1=C(O)C=CC(F)=C1",
    "meta_data": {
        "InChI": "InChI=1S/C6H4ClFO/c7-5-3-4(8)1-2-6(5)9/h1-3,9H",
        "InChIKey": null,
        "Canonical SMILES": "FC1=CC=C(O)C(Cl)=C1",
        "Molecular Formula": "C<sub>6</sub>H<sub>4</sub>ClFO",
        "Molecular Mass": "146.55",
        "Boiling Point": "50 °C @ Press: 1 Torr",
        "Melting Point": "51-53 °C",
        "Density": "1.377 g/cm³ @ Temp: 19 °C"
    }
}