{
    "cas_no": "90315-82-5",
    "key_name": "Ethyl (<em>R</em>)-2-hydroxy-4-phenylbutyrate",
    "cn_name": null,
    "alternate_name": "Benzenebutanoic acid, α-hydroxy-, ethyl ester, (α<em>R</em>)-;Benzenebutanoic acid, α-hydroxy-, ethyl ester, (<em>R</em>)-;Ethyl (<em>R</em>)-2-hydroxy-4-phenylbutanoate;Ethyl (<em>R</em>)-2-hydroxy-4-phenylbutyrate;Ethyl (<em>R</em>)-4-phenyl-2-hydroxybutyrate;Ethyl 2(<em>R</em>)-hydroxy-4-phenylbutyrate;(<em>R</em>)-2-Hydroxy-4-phenylbutanoic acid ethyl ester;(<em>R</em>)-Ethyl 4-phenyl-2-hydroxybutanoate;Ethyl (2<em>R</em>)-2-hydroxy-4-phenylbutyrate;(α<em>R</em>)-α-Hydroxybenzenebutanoic acid ethyl ester;(R)-Ethyl 2-hydroxy-4-phenylbutanoic acid;(<em>R</em>)-4-Phenyl-2-hydroxybutanoic acid ethyl ester;(R)-Ethyl2-hydroxy-4-phenylbutanoate",
    "duplicated_cas_no": "",
    "SMILES": "C(C[C@H](C(OCC)=O)O)C1=CC=CC=C1",
    "meta_data": {
        "InChI": "InChI=1S/C12H16O3/c1-2-15-12(14)11(13)9-8-10-6-4-3-5-7-10/h3-7,11,13H,2,8-9H2,1H3/t11-/m1/s1",
        "InChIKey": null,
        "Canonical SMILES": "O=C(OCC)C(O)CCC=1C=CC=CC1",
        "Molecular Formula": "C<sub>12</sub>H<sub>16</sub>O<sub>3</sub>",
        "Molecular Mass": "208.25",
        "Boiling Point": "120 °C @ Press: 1.0 Torr"
    }
}