{
    "cas_no": "2402-78-0",
    "key_name": "2,6-Dichloropyridine",
    "cn_name": "2,6-二氯吡啶;",
    "alternate_name": "Pyridine, 2,6-dichloro-;2,6-Dichloropyridine;NSC 76606",
    "duplicated_cas_no": "",
    "SMILES": "ClC=1N=C(Cl)C=CC1",
    "meta_data": {
        "InChI": "InChI=1S/C5H3Cl2N/c6-4-2-1-3-5(7)8-4/h1-3H",
        "InChIKey": null,
        "Canonical SMILES": "ClC=1N=C(Cl)C=CC1",
        "Molecular Formula": "C<sub>5</sub>H<sub>3</sub>Cl<sub>2</sub>N",
        "Molecular Mass": "147.99",
        "Boiling Point": "211 °C",
        "Melting Point": "88 °C"
    }
}