{
    "cas_no": "85-40-5",
    "key_name": "1,2,3,6-Tetrahydrophthalimide",
    "cn_name": "1,2,3,6-四氢邻苯二甲酰亚胺;四氢酞酰亚胺;",
    "alternate_name": "1<em>H</em>-Isoindole-1,3(2<em>H</em>)-dione, 3a,4,7,7a-tetrahydro-;4-Cyclohexene-1,2-dicarboximide;3a,4,7,7a-Tetrahydro-1<em>H</em>-isoindole-1,3(2<em>H</em>)-dione;Δ<sup>4</sup>-Tetrahydrophthalimide;Tetrahydrophthalimide;Tetrahydrophthalic acid imide;1,2,3,6-Tetrahydrophthalimide;NSC 59011;3a,4,7,7a-Tetrahydroisoindole-1,3-dione;2,3,3a,4,7,7a-Hexahydro-1<em>H</em>-isoindole-1,3-dione;THPI;3-Hydroxy-3a,4,7,7a-tetrahydro-1<em>H</em>-isoindol-1-one",
    "duplicated_cas_no": "",
    "SMILES": "O=C1C2C(C(=O)N1)CC=CC2",
    "meta_data": {
        "InChI": "InChI=1S/C8H9NO2/c10-7-5-3-1-2-4-6(5)8(11)9-7/h1-2,5-6H,3-4H2,(H,9,10,11)",
        "InChIKey": null,
        "Canonical SMILES": "O=C1NC(=O)C2CC=CCC12",
        "Molecular Formula": "C<sub>8</sub>H<sub>9</sub>NO<sub>2</sub>",
        "Molecular Mass": "151.16",
        "Boiling Point": "145 °C @ Press: 1.0 Torr",
        "Melting Point": "135-136.5 °C"
    }
}