{
    "cas_no": "17952-82-8",
    "key_name": "2,3,4,9-Tetrahydro-1<em>H</em>-pyrido[3,4-<em>b</em>]indol-1-one",
    "cn_name": null,
    "alternate_name": "1<em>H</em>-Pyrido[3,4-<em>b</em>]indol-1-one, 2,3,4,9-tetrahydro-;2,3,4,9-Tetrahydro-1<em>H</em>-pyrido[3,4-<em>b</em>]indol-1-one;1-Oxo-1,2,3,4-tetrahydro-β-carboline;1,2,3,4-Tetrahydro-1-oxo-β-carboline;1,2,3,4-Tetrahydronorharman-1-one;NSC 147829;2,3,4,9-Tetrahydro-β-carbolin-1-one;1<em>H</em>,2<em>H</em>,3<em>H</em>,4<em>H</em>,9<em>H</em>-Pyrido[3,4-<em>b</em>]indol-1-one;2,3,4,9-Tetrahydropyrido[3,4-<em>b</em>]indol-1-one",
    "duplicated_cas_no": "",
    "SMILES": "O=C1C2=C(C=3C(N2)=CC=CC3)CCN1",
    "meta_data": {
        "InChI": "InChI=1S/C11H10N2O/c14-11-10-8(5-6-12-11)7-3-1-2-4-9(7)13-10/h1-4,13H,5-6H2,(H,12,14)",
        "InChIKey": null,
        "Canonical SMILES": "O=C1NCCC=2C=3C=CC=CC3NC12",
        "Molecular Formula": "C<sub>11</sub>H<sub>10</sub>N<sub>2</sub>O",
        "Molecular Mass": "186.21",
        "Melting Point": "183-185 °C"
    }
}