{
    "cas_no": "4165-96-2",
    "key_name": "3-Phenylglutaric acid",
    "cn_name": "3-苯基戊二酸;",
    "alternate_name": "Pentanedioic acid, 3-phenyl-;Glutaric acid, 3-phenyl-;3-Phenylpentanedioic acid;β-Phenylglutaric acid;3-Phenylglutaric acid",
    "duplicated_cas_no": "",
    "SMILES": "C(CC(O)=O)(CC(O)=O)C1=CC=CC=C1",
    "meta_data": {
        "InChI": "InChI=1S/C11H12O4/c12-10(13)6-9(7-11(14)15)8-4-2-1-3-5-8/h1-5,9H,6-7H2,(H,12,13)(H,14,15)",
        "InChIKey": null,
        "Canonical SMILES": "O=C(O)CC(C=1C=CC=CC1)CC(=O)O",
        "Molecular Formula": "C<sub>11</sub>H<sub>12</sub>O<sub>4</sub>",
        "Molecular Mass": "208.21",
        "Melting Point": "140 °C"
    }
}