{
    "cas_no": "939-90-2",
    "key_name": "<em>trans</em>-2-Phenylcyclopropanecarboxylic acid",
    "cn_name": "反-2-苯基-1-环丙羧酸;反式-2-苯基环丙烷-羧酸;",
    "alternate_name": "Cyclopropanecarboxylic acid, 2-phenyl-, (1<em>R</em>,2<em>R</em>)-<em>rel</em>-;Cyclopropanecarboxylic acid, 2-phenyl-, <em>trans</em>-;<em>rel</em>-(1<em>R</em>,2<em>R</em>)-2-Phenylcyclopropanecarboxylic acid;<em>trans</em>-2-Phenylcyclopropanecarboxylic acid;<em>trans</em>-2-Phenyl-1-cyclopropanecarboxylic acid;(±)-<em>trans</em>-2-Phenyl-1-cyclopropanecarboxylic acid;NSC 40846;<em>trans</em>-2-Phenylcyclopropane-1-carboxylic acid",
    "duplicated_cas_no": "42916-14-3",
    "SMILES": "C(O)(=O)[C@H]1[C@@H](C1)C2=CC=CC=C2",
    "meta_data": {
        "InChI": "InChI=1/C10H10O2/c11-10(12)9-6-8(9)7-4-2-1-3-5-7/h1-5,8-9H,6H2,(H,11,12)/t8-,9+/s2",
        "InChIKey": null,
        "Canonical SMILES": "O=C(O)C1CC1C=2C=CC=CC2",
        "Molecular Formula": "C<sub>10</sub>H<sub>10</sub>O<sub>2</sub>",
        "Molecular Mass": "162.19",
        "Boiling Point": "128 °C @ Press: 0.18 Torr",
        "Melting Point": "91 °C"
    }
}