{
    "cas_no": "108-93-0",
    "key_name": "Cyclohexanol",
    "cn_name": "环己醇;",
    "alternate_name": "Cyclohexanol;Adronal;Anol;Cyclohexyl alcohol;Hexahydrophenol;Hexalin;Hydroxycyclohexane;Naxol;Phenol, hexahydro-;Adronol;Hexalin (alcohol);1-Cyclohexanol;NSC 403656;NSC 54711",
    "duplicated_cas_no": "2263936-22-5",
    "SMILES": "OC1CCCCC1",
    "meta_data": {
        "InChI": "InChI=1S/C6H12O/c7-6-4-2-1-3-5-6/h6-7H,1-5H2",
        "InChIKey": null,
        "Canonical SMILES": "OC1CCCCC1",
        "Molecular Formula": "C<sub>6</sub>H<sub>12</sub>O",
        "Molecular Mass": "100.16",
        "Boiling Point": "161.08 °C @ Press: 760 Torr",
        "Melting Point": "25.4 °C",
        "Density": "0.9624 g/cm³ @ Temp: 20 °C"
    }
}