{
    "cas_no": "621-12-5",
    "key_name": "<em>N</em>,2-Diphenylhydrazinecarboxamide",
    "cn_name": "1,4-二苯氨基脲;1,4-二苯氨脲;N,2-二苯基肼甲酰胺;1,4-二苯基氨脲;",
    "alternate_name": "Hydrazinecarboxamide, <em>N</em>,2-diphenyl-;Semicarbazide, 1,4-diphenyl-;<em>N</em>,2-Diphenylhydrazinecarboxamide;1,4-Diphenylsemicarbazide;<em>N</em>,<em>N</em>′-Diphenyl semicarbazide;NSC 6790;1-Anilino-3-phenylurea;1-Phenyl-3-(phenylamino)urea;3-Phenyl-1-(phenylamino)urea",
    "duplicated_cas_no": "",
    "SMILES": "N(C(NNC1=CC=CC=C1)=O)C2=CC=CC=C2",
    "meta_data": {
        "InChI": "InChI=1S/C13H13N3O/c17-13(14-11-7-3-1-4-8-11)16-15-12-9-5-2-6-10-12/h1-10,15H,(H2,14,16,17)",
        "InChIKey": null,
        "Canonical SMILES": "O=C(NNC=1C=CC=CC1)NC=2C=CC=CC2",
        "Molecular Formula": "C<sub>13</sub>H<sub>13</sub>N<sub>3</sub>O",
        "Molecular Mass": "227.26",
        "Melting Point": "175-175.5 °C"
    }
}