{
    "cas_no": "567-02-2",
    "key_name": "Allotetrahydrodeoxycorticosterone",
    "cn_name": null,
    "alternate_name": "Pregnan-20-one, 3,21-dihydroxy-, (3α,5α)-;5α-Pregnan-20-one, 3α,21-dihydroxy-;(3α,5α)-3,21-Dihydroxypregnan-20-one;Allotetrahydrodeoxycorticosterone;3α,21-Dihydroxy-5α-pregnan-20-one;21-Hydroxyallopregnanolone;3α,5α-Tetrahydrodeoxycorticosterone;5α-Pregnane-3α,21-diol-20-one;NSC 113927;3α,5α-THDOC;THDOC;α-THDOC",
    "duplicated_cas_no": "",
    "SMILES": "C[C@@]12[C@]([C@]3([C@@]([C@]4(C)[C@@](CC3)(C[C@H](O)CC4)[H])(CC1)[H])[H])(CC[C@@H]2C(CO)=O)[H]",
    "meta_data": {
        "InChI": "InChI=1S/C21H34O3/c1-20-9-7-14(23)11-13(20)3-4-15-16-5-6-18(19(24)12-22)21(16,2)10-8-17(15)20/h13-18,22-23H,3-12H2,1-2H3/t13-,14+,15-,16-,17-,18+,20-,21-/m0/s1",
        "InChIKey": null,
        "Canonical SMILES": "O=C(CO)C1CCC2C3CCC4CC(O)CCC4(C)C3CCC12C",
        "Molecular Formula": "C<sub>21</sub>H<sub>34</sub>O<sub>3</sub>",
        "Molecular Mass": "334.49",
        "Melting Point": "163-166 °C"
    }
}