{
    "cas_no": "1656-48-0",
    "key_name": "Bis(2-cyanoethyl) ether",
    "cn_name": "2-氰基乙醚;2-氰乙基醚;3,3\"-氧二丙腈;",
    "alternate_name": "Propanenitrile, 3,3′-oxybis-;Propionitrile, 3,3′-oxydi-;3,3′-Oxybis[propanenitrile];β,β′-Dicyanodiethyl ether;β,β′-Oxydipropionitrile;3,3′-Oxydipropionitrile;Bis(2-cyanoethyl) ether;β,β′-Bis(cyanoethyl) ether;Bis(β-cyanoethyl) ether;Bis(propionitrile) ether;3,3′-Oxybispropionitrile;2,2′-Dicyanodiethyl ether;NSC 7769;2-Cyanoethyl ether",
    "duplicated_cas_no": "",
    "SMILES": "O(CCC#N)CCC#N",
    "meta_data": {
        "InChI": "InChI=1S/C6H8N2O/c7-3-1-5-9-6-2-4-8/h1-2,5-6H2",
        "InChIKey": null,
        "Canonical SMILES": "N#CCCOCCC#N",
        "Molecular Formula": "C<sub>6</sub>H<sub>8</sub>N<sub>2</sub>O",
        "Molecular Mass": "124.14",
        "Boiling Point": "161-162 °C @ Press: 5 Torr",
        "Melting Point": "50 °C",
        "Density": "1.0482 g/cm³ @ Temp: 25 °C"
    }
}