{
    "cas_no": "4342-61-4",
    "key_name": "1,2-Dichloro-1,1,2,2-tetramethyldisilane",
    "cn_name": "1,2-二氯-1,1,2,2-四甲基二硅烷;二氯四甲基二硅烷;",
    "alternate_name": "Disilane, 1,2-dichloro-1,1,2,2-tetramethyl-;1,2-Dichloro-1,1,2,2-tetramethyldisilane;Dichlorotetramethyldisilane;1,2-Dichlorotetramethyldisilane;1,1,2,2-Tetramethyl-1,2-dichlorodisilane",
    "duplicated_cas_no": "",
    "SMILES": "[Si]([Si](C)(C)Cl)(C)(C)Cl",
    "meta_data": {
        "InChI": "InChI=1S/C4H12Cl2Si2/c1-7(2,5)8(3,4)6/h1-4H3",
        "InChIKey": null,
        "Canonical SMILES": "Cl[Si](C)(C)[Si](Cl)(C)C",
        "Molecular Formula": "C<sub>4</sub>H<sub>12</sub>Cl<sub>2</sub>Si<sub>2</sub>",
        "Molecular Mass": "187.22",
        "Boiling Point": "146-148 °C",
        "Density": "1.010 g/cm³ @ Temp: 20 °C"
    }
}