{
    "cas_no": "1294481-82-5",
    "key_name": "9-[(2<em>R</em>)-3,5-Bis-<em>O</em>-(4-chlorobenzoyl)-2-deoxy-2-fluoro-2-methyl-β-<span class=\"text-smallcaps\">D</span>-<em>erythro</em>-pentofuranosyl]-6-chloro-9<em>H</em>-purin-2-amine",
    "cn_name": null,
    "alternate_name": "9<em>H</em>-Purin-2-amine, 9-[(2<em>R</em>)-3,5-bis-<em>O</em>-(4-chlorobenzoyl)-2-deoxy-2-fluoro-2-methyl-β-<span class=\"text-smallcaps\">D</span>-<em>erythro</em>-pentofuranosyl]-6-chloro-;9-[(2<em>R</em>)-3,5-Bis-<em>O</em>-(4-chlorobenzoyl)-2-deoxy-2-fluoro-2-methyl-β-<span class=\"text-smallcaps\">D</span>-<em>erythro</em>-pentofuranosyl]-6-chloro-9<em>H</em>-purin-2-amine",
    "duplicated_cas_no": "",
    "SMILES": "C[C@]1(F)[C@H](N2C=3C(N=C2)=C(Cl)N=C(N)N3)O[C@H](COC(=O)C4=CC=C(Cl)C=C4)[C@H]1OC(=O)C5=CC=C(Cl)C=C5",
    "meta_data": {
        "InChI": "InChI=1S/C25H19Cl3FN5O5/c1-25(29)18(39-22(36)13-4-8-15(27)9-5-13)16(10-37-21(35)12-2-6-14(26)7-3-12)38-23(25)34-11-31-17-19(28)32-24(30)33-20(17)34/h2-9,11,16,18,23H,10H2,1H3,(H2,30,32,33)/t16-,18-,23-,25-/m1/s1",
        "InChIKey": null,
        "Canonical SMILES": "O=C(OCC1OC(N2C=NC=3C(Cl)=NC(=NC32)N)C(F)(C)C1OC(=O)C4=CC=C(Cl)C=C4)C5=CC=C(Cl)C=C5",
        "Molecular Formula": "C<sub>25</sub>H<sub>19</sub>Cl<sub>3</sub>FN<sub>5</sub>O<sub>5</sub>",
        "Molecular Mass": "594.81",
        "Melting Point": "171-176 °C"
    }
}