{
    "cas_no": "4704-31-8",
    "key_name": "Vinyl decanoate",
    "cn_name": null,
    "alternate_name": "Decanoic acid, ethenyl ester;Decanoic acid, vinyl ester;Vinyl decanoate;Vinyl caprate;Vinyl <em>n</em>-decanoate;NSC 32648",
    "duplicated_cas_no": "",
    "SMILES": "C(CCCCCCCC)C(OC=C)=O",
    "meta_data": {
        "InChI": "InChI=1S/C12H22O2/c1-3-5-6-7-8-9-10-11-12(13)14-4-2/h4H,2-3,5-11H2,1H3",
        "InChIKey": null,
        "Canonical SMILES": "O=C(OC=C)CCCCCCCCC",
        "Molecular Formula": "C<sub>12</sub>H<sub>22</sub>O<sub>2</sub>",
        "Molecular Mass": "198.30",
        "Boiling Point": "121 °C @ Press: 15 Torr",
        "Density": "0.8681 g/cm³ @ Temp: 20 °C"
    }
}