{
    "cas_no": "1022-31-7",
    "key_name": "<em>N</em>-Formylkynurenine",
    "cn_name": null,
    "alternate_name": "Benzenebutanoic acid, α-amino-2-(formylamino)-γ-oxo-;Alanine, 3-(<em>N</em>-formylanthraniloyl)-;α-Amino-2-(formylamino)-γ-oxobenzenebutanoic acid;Kynurenine, <em>N</em>′-formyl-;<em>N</em>′-Formylkynurenine;Formylkynurenine;<em>N</em>-Formylkynurenine;2-Amino-4-(2-formamidophenyl)-4-oxobutanoic acid;2-Amino-4-(2-formamidophenyl)-4-oxo-butanoic acid",
    "duplicated_cas_no": "32999-58-9",
    "SMILES": "C(CC(C(O)=O)N)(=O)C1=C(NC=O)C=CC=C1",
    "meta_data": {
        "InChI": "InChI=1S/C11H12N2O4/c12-8(11(16)17)5-10(15)7-3-1-2-4-9(7)13-6-14/h1-4,6,8H,5,12H2,(H,13,14)(H,16,17)",
        "InChIKey": null,
        "Canonical SMILES": "O=CNC=1C=CC=CC1C(=O)CC(N)C(=O)O",
        "Molecular Formula": "C<sub>11</sub>H<sub>12</sub>N<sub>2</sub>O<sub>4</sub>",
        "Molecular Mass": "236.22",
        "Melting Point": "169-170 °C"
    }
}