{
    "cas_no": "19932-26-4",
    "key_name": "2-[(2,2,3,3-Tetrafluoropropoxy)methyl]oxirane",
    "cn_name": "3-(2,2,3,3-四氟丙氧基)-1,2-氧化丙烯;",
    "alternate_name": "Oxirane, 2-[(2,2,3,3-tetrafluoropropoxy)methyl]-;Propane, 1,2-epoxy-3-(2,2,3,3-tetrafluoropropoxy)-;Oxirane, [(2,2,3,3-tetrafluoropropoxy)methyl]-;2-[(2,2,3,3-Tetrafluoropropoxy)methyl]oxirane;1,2-Epoxy-3-(2,2,3,3-tetrafluoropropoxy)propane;Glycidyl 2,2,3,3-tetrafluoropropyl ether;E 5244;2-(4,4,5,5-Tetrafluoro-2-oxapentyl)oxirane",
    "duplicated_cas_no": "1332615-56-1;2190548-74-2",
    "SMILES": "C(OCC(C(F)F)(F)F)C1CO1",
    "meta_data": {
        "InChI": "InChI=1S/C6H8F4O2/c7-5(8)6(9,10)3-11-1-4-2-12-4/h4-5H,1-3H2",
        "InChIKey": null,
        "Canonical SMILES": "FC(F)C(F)(F)COCC1OC1",
        "Molecular Formula": "C<sub>6</sub>H<sub>8</sub>F<sub>4</sub>O<sub>2</sub>",
        "Molecular Mass": "188.12",
        "Boiling Point": "175-176 °C",
        "Melting Point": "110-111 °C"
    }
}