{
    "cas_no": "3871-20-3",
    "key_name": "Phosphoric acid, tris(4-nitrophenyl) ester",
    "cn_name": "三(4-硝基苯基)磷酸酯;三(4-硝基苯基)磷酸酯;",
    "alternate_name": "Phosphoric acid, tris(4-nitrophenyl) ester;Phosphoric acid, tris(<em>p</em>-nitrophenyl) ester;Phenol, <em>p</em>-nitro-, phosphate (3:1);Tris(<em>p</em>-nitrophenyl) phosphate;Tris(4-nitrophenyl) phosphate;NSC 66455;Tri(<em>p</em>-nitrophenyl) phosphate",
    "duplicated_cas_no": "",
    "SMILES": "P(OC1=CC=C(N(=O)=O)C=C1)(OC2=CC=C(N(=O)=O)C=C2)(OC3=CC=C(N(=O)=O)C=C3)=O",
    "meta_data": {
        "InChI": "InChI=1S/C18H12N3O10P/c22-19(23)13-1-7-16(8-2-13)29-32(28,30-17-9-3-14(4-10-17)20(24)25)31-18-11-5-15(6-12-18)21(26)27/h1-12H",
        "InChIKey": null,
        "Canonical SMILES": "O=N(=O)C1=CC=C(OP(=O)(OC2=CC=C(C=C2)N(=O)=O)OC3=CC=C(C=C3)N(=O)=O)C=C1",
        "Molecular Formula": "C<sub>18</sub>H<sub>12</sub>N<sub>3</sub>O<sub>10</sub>P",
        "Molecular Mass": "461.28",
        "Melting Point": "155 °C"
    }
}