{
    "cas_no": "64262-23-3",
    "key_name": "Piperazine, 1-propyl-, hydrobromide (1:2)",
    "cn_name": "1-正-丙基哌嗪二溴酸盐;1-丙基哌嗪二氢溴酸;1-正-丙基哌嗪二溴酸盐;",
    "alternate_name": "Piperazine, 1-propyl-, hydrobromide (1:2);Piperazine, 1-propyl-, dihydrobromide;1-Propylpiperazine dihydrobromide;1-(1-Propyl)piperazine dihydrobromide;<em>N</em>-Propylpiperazine dihydrobromide",
    "duplicated_cas_no": "",
    "SMILES": "C(CC)N1CCNCC1.Br",
    "meta_data": {
        "InChI": "InChI=1S/C7H16N2.2BrH/c1-2-5-9-6-3-8-4-7-9;;/h8H,2-7H2,1H3;2*1H",
        "InChIKey": null,
        "Canonical SMILES": "Br.N1CCN(CC1)CCC",
        "Molecular Formula": "C<sub>7</sub>H<sub>16</sub>N<sub>2</sub>.2BrH",
        "Molecular Mass": "",
        "Melting Point": "224-230 °C"
    }
}