{
    "cas_no": "1758-73-2",
    "key_name": "Thiourea dioxide",
    "cn_name": "二氧化硫脲;硫脲-S,S-二氧化物;甲脒亚磺酸;",
    "alternate_name": "Methanesulfinic acid, 1-amino-1-imino-;Methanesulfinic acid, aminoimino-;1-Amino-1-iminomethanesulfinic acid;NSC 34540;Formamidinesulfinic acid;Manofast;Aminoiminomethanesulfinic acid;Thiourea dioxide;Lorinol R;Degussa F;Tec Light;Formamidine sulfinate;NT-F 100;NSC 226979;Rucorit RGH;Thiourea peroxide;FAS;Reduktana;Polyclear;Operegal O;FAS (bleaching agent);Redulit F",
    "duplicated_cas_no": "23056-93-1;42580-06-3;56766-73-5;110445-04-0;852937-99-6;1081537-75-8",
    "SMILES": "C(S(=O)O)(=N)N",
    "meta_data": {
        "InChI": "InChI=1S/CH4N2O2S/c2-1(3)6(4)5/h(H3,2,3)(H,4,5)",
        "InChIKey": null,
        "Canonical SMILES": "O=S(O)C(=N)N",
        "Molecular Formula": "CH<sub>4</sub>N<sub>2</sub>O<sub>2</sub>S",
        "Molecular Mass": "108.12",
        "Melting Point": "130 °C"
    }
}