{
    "cas_no": "1656-94-6",
    "key_name": "<em>N</em>-(3-Pyridinylmethyl)-3-pyridinemethanamine",
    "cn_name": "3,3-二甲基吡啶胺;3,3\"-二甲基吡啶胺;",
    "alternate_name": "3-Pyridinemethanamine, <em>N</em>-(3-pyridinylmethyl)-;Pyridine, 3,3′-(iminodimethylene)di-;<em>N</em>-(3-Pyridinylmethyl)-3-pyridinemethanamine;Bis[(3-pyridyl)methyl]amine;3,3′-(Iminodimethylene)dipyridine;NSC 86140;1-Pyridin-3-yl-<em>N</em>-(pyridin-3-ylmethyl)methanamine;Lylamine",
    "duplicated_cas_no": "",
    "SMILES": "C(NCC=1C=CC=NC1)C=2C=CC=NC2",
    "meta_data": {
        "InChI": "InChI=1S/C12H13N3/c1-3-11(7-13-5-1)9-15-10-12-4-2-6-14-8-12/h1-8,15H,9-10H2",
        "InChIKey": null,
        "Canonical SMILES": "N=1C=CC=C(C1)CNCC=2C=NC=CC2",
        "Molecular Formula": "C<sub>12</sub>H<sub>13</sub>N<sub>3</sub>",
        "Molecular Mass": "199.25",
        "Boiling Point": "168 °C @ Press: 0.55 Torr"
    }
}