{
    "cas_no": "5625-67-2",
    "key_name": "Piperazinone",
    "cn_name": "2-哌嗪酮;哌嗪-2-酮;",
    "alternate_name": "2-Piperazinone;Piperazinone;2(1<em>H</em>)-Pyrazinone, tetrahydro-;2-Ketopiperazine;2-Oxopiperazine;Piperazine-2-one;Oxopiperazine;NSC 27441;3-Oxopiperazine;Piperazin-2-one;JKF 011;3,4,5,6-Tetrahydropyrazin-2-ol",
    "duplicated_cas_no": "1228675-32-8",
    "SMILES": "O=C1CNCCN1",
    "meta_data": {
        "InChI": "InChI=1S/C4H8N2O/c7-4-3-5-1-2-6-4/h5H,1-3H2,(H,6,7)",
        "InChIKey": null,
        "Canonical SMILES": "O=C1NCCNC1",
        "Molecular Formula": "C<sub>4</sub>H<sub>8</sub>N<sub>2</sub>O",
        "Molecular Mass": "100.12",
        "Boiling Point": "165 °C @ Press: 5 Torr",
        "Melting Point": "136 °C"
    }
}