{
    "cas_no": "603-47-4",
    "key_name": "Benzenamine, 4,4′-[[4-(methylimino)-2,5-cyclohexadien-1-ylidene]methylene]bis[<em>N</em>,<em>N</em>-dimethyl-, hydrochloride (1:1)",
    "cn_name": "结晶紫;",
    "alternate_name": "Benzenamine, 4,4′-[[4-(methylimino)-2,5-cyclohexadien-1-ylidene]methylene]bis[<em>N</em>,<em>N</em>-dimethyl-, hydrochloride (1:1);Aniline, <em>p</em>-[[<em>p</em>-(dimethylamino)phenyl][4-(methylimino)-2,5-cyclohexadien-1-ylidene]methyl]-<em>N</em>,<em>N</em>-dimethyl-, monohydrochloride;Benzenamine, 4-[[4-(dimethylamino)phenyl][4-(methylimino)-2,5-cyclohexadien-1-ylidene]methyl]-<em>N</em>,<em>N</em>-dimethyl-, monohydrochloride;Pentamethyl pararosaniline chloride;Methyl Violet 2BN200;Gentian Violet B",
    "duplicated_cas_no": "21325-96-2;37199-26-1",
    "SMILES": "C(C1=CC=C(N(C)C)C=C1)(C2=CC=C(N(C)C)C=C2)=C3C=CC(=NC)C=C3.Cl",
    "meta_data": {
        "InChI": "InChI=1S/C24H27N3.ClH/c1-25-21-12-6-18(7-13-21)24(19-8-14-22(15-9-19)26(2)3)20-10-16-23(17-11-20)27(4)5;/h6-17H,1-5H3;1H",
        "InChIKey": null,
        "Canonical SMILES": "Cl.N(=C1C=CC(C=C1)=C(C2=CC=C(C=C2)N(C)C)C3=CC=C(C=C3)N(C)C)C",
        "Molecular Formula": "C<sub>24</sub>H<sub>27</sub>N<sub>3</sub>.ClH",
        "Molecular Mass": "",
        "Melting Point": "137 °C"
    }
}