{
    "cas_no": "10606-72-1",
    "key_name": "(-)-Ethyl mandelate",
    "cn_name": "D-(-)-扁桃酸乙酯;",
    "alternate_name": "Benzeneacetic acid, α-hydroxy-, ethyl ester, (α<em>R</em>)-;Mandelic acid, ethyl ester, (<em>R</em>)-;Benzeneacetic acid, α-hydroxy-, ethyl ester, (<em>R</em>)-;(<em>R</em>)-(-)-Ethyl mandelate;<span class=\"text-smallcaps\">D</span>-(-)-Ethyl mandelate;Ethyl (<em>R</em>)-mandelate;Ethyl (<em>R</em>)-α-hydroxybenzeneacetate;(-)-α-Hydroxybenzeneacetic acid ethyl ester;<span class=\"text-smallcaps\">D</span>-(-)-Mandelic acid ethyl ester;(-)-Mandelic acid ethyl ester;(<em>R</em>)-(-)-Mandelic acid ethyl ester;(α<em>R</em>)-α-Hydroxybenzeneacetic acid ethyl ester;(-)-Ethyl mandelate;(<em>R</em>)-α-Hydroxybenzeneacetic acid ethyl ester;(<em>R</em>)-Ethyl (hydroxy)(phenyl)acetate;Ethyl (<em>R</em>)-2-hydroxy-2-phenylacetate",
    "duplicated_cas_no": "708-91-8;389569-62-4;1147491-70-0",
    "SMILES": "[C@@H](C(OCC)=O)(O)C1=CC=CC=C1",
    "meta_data": {
        "InChI": "InChI=1S/C10H12O3/c1-2-13-10(12)9(11)8-6-4-3-5-7-8/h3-7,9,11H,2H2,1H3/t9-/m1/s1",
        "InChIKey": null,
        "Canonical SMILES": "O=C(OCC)C(O)C=1C=CC=CC1",
        "Molecular Formula": "C<sub>10</sub>H<sub>12</sub>O<sub>3</sub>",
        "Molecular Mass": "180.20",
        "Boiling Point": "101-103 °C @ Press: 2 Torr",
        "Melting Point": "33-34 °C"
    }
}