{
    "cas_no": "5048-82-8",
    "key_name": "Ethyl 3-(4-aminophenyl)-2-propenoate",
    "cn_name": "4-氨基肉桂酸乙酯;",
    "alternate_name": "2-Propenoic acid, 3-(4-aminophenyl)-, ethyl ester;Cinnamic acid, <em>p</em>-amino-, ethyl ester;Ethyl 3-(4-aminophenyl)-2-propenoate;Ethyl <em>p</em>-aminocinnamate;Ethyl 4-aminocinnamate;4-Aminocinnamic acid ethyl ester;(4-(2-(Ethoxycarbonyl)ethenyl)phenyl)amine;NSC 44439;Ethyl 3-(4-aminophenyl)acrylate;3-(4-Aminophenyl)acrylic acid ethyl ester",
    "duplicated_cas_no": "",
    "SMILES": "C(=CC(OCC)=O)C1=CC=C(N)C=C1",
    "meta_data": {
        "InChI": "InChI=1S/C11H13NO2/c1-2-14-11(13)8-5-9-3-6-10(12)7-4-9/h3-8H,2,12H2,1H3",
        "InChIKey": null,
        "Canonical SMILES": "O=C(OCC)C=CC1=CC=C(N)C=C1",
        "Molecular Formula": "C<sub>11</sub>H<sub>13</sub>NO<sub>2</sub>",
        "Molecular Mass": "191.23",
        "Melting Point": "73 °C"
    }
}