{
    "cas_no": "5661-71-2",
    "key_name": "Octahydro-1<em>H</em>-azonine",
    "cn_name": "八次甲基亚胺;",
    "alternate_name": "1<em>H</em>-Azonine, octahydro-;Azonine, octahydro-;Octahydro-1<em>H</em>-azonine;Azacyclononane;Octamethylenimine;Perhydroazonine;NSC 74469;NSC 90799;NSC 91021;Azonane",
    "duplicated_cas_no": "",
    "SMILES": "C1CCCCNCCC1",
    "meta_data": {
        "InChI": "InChI=1S/C8H17N/c1-2-4-6-8-9-7-5-3-1/h9H,1-8H2",
        "InChIKey": null,
        "Canonical SMILES": "N1CCCCCCCC1",
        "Molecular Formula": "C<sub>8</sub>H<sub>17</sub>N",
        "Molecular Mass": "127.23",
        "Boiling Point": "69 °C @ Press: 17 Torr",
        "Melting Point": "-19 °C",
        "Density": "0.8905 g/cm³ @ Temp: 20 °C"
    }
}