{
    "cas_no": "54767-75-8",
    "key_name": "Suloctidil",
    "cn_name": null,
    "alternate_name": "Benzenemethanol, 4-[(1-methylethyl)thio]-α-[(1<em>R</em>)-1-(octylamino)ethyl]-, (α<em>S</em>)-;Benzenemethanol, 4-[(1-methylethyl)thio]-α-[1-(octylamino)ethyl]-, (<em>R</em>*,<em>S</em>*)-;(α<em>S</em>)-4-[(1-Methylethyl)thio]-α-[(1<em>R</em>)-1-(octylamino)ethyl]benzenemethanol;Suloctidil;Sulocton;CP 556S;Suloctidyl;(±)-Suloctidil;Dulasi;Sudil;Sulodene;Iangene;Bemperil;Cerebro;Fluvisco;Fluversin;Loctidon;Dulcotil;MJF 12637;Euvasal;Circleton;Locton;Hemoantin;Octamet;Polivasal;MeSH ID: D013468",
    "duplicated_cas_no": "113409-25-9",
    "SMILES": "[C@H]([C@H](NCCCCCCCC)C)(O)C1=CC=C(SC(C)C)C=C1",
    "meta_data": {
        "InChI": "InChI=1/C20H35NOS/c1-5-6-7-8-9-10-15-21-17(4)20(22)18-11-13-19(14-12-18)23-16(2)3/h11-14,16-17,20-22H,5-10,15H2,1-4H3/t17-,20-/s2",
        "InChIKey": null,
        "Canonical SMILES": "OC(C1=CC=C(SC(C)C)C=C1)C(NCCCCCCCC)C",
        "Molecular Formula": "C<sub>20</sub>H<sub>35</sub>NOS",
        "Molecular Mass": "337.56",
        "Melting Point": "62-63 °C"
    }
}