{
    "cas_no": "768-91-2",
    "key_name": "1-Methyladamantane",
    "cn_name": null,
    "alternate_name": "Tricyclo[3.3.1.1<sup>3,7</sup>]decane, 1-methyl-;Adamantane, 1-methyl-;1-Methyltricyclo[3.3.1.1<sup>3,7</sup>]decane;1-Methyladamantane",
    "duplicated_cas_no": "",
    "SMILES": "CC12CC3CC(C1)CC(C2)C3",
    "meta_data": {
        "InChI": "InChI=1S/C11H18/c1-11-5-8-2-9(6-11)4-10(3-8)7-11/h8-10H,2-7H2,1H3",
        "InChIKey": null,
        "Canonical SMILES": "CC12CC3CC(CC(C3)C1)C2",
        "Molecular Formula": "C<sub>11</sub>H<sub>18</sub>",
        "Molecular Mass": "150.26",
        "Melting Point": "95.0-97.8 °C"
    }
}