{
    "cas_no": "1295-35-8",
    "key_name": "Bis(1,5-cyclooctadiene)nickel",
    "cn_name": null,
    "alternate_name": "Nickel, bis[(1,2,5,6-η)-1,5-cyclooctadiene]-;Nickel, bis(1,5-cyclooctadiene)-;1,5-Cyclooctadiene, nickel complex;Bis[(1,2,5,6-η)-1,5-cyclooctadiene]nickel;Bis(1,5-cyclooctadiene)nickel;Bis(cyclooctadiene)nickel;Bis(1,5-cyclooctadiene)nickel(0);Nickel dicyclooctadiene;Bis-1,5-cyclooctadienylnickel;Dicyclooctadiene nickel;Di(1,5-cyclooctadiene)nickel;Bis(cyclooctadiene)nickel(0);Bis(η<sup>4</sup>-1,5-cyclooctadiene)nickel;Bis(cyclooctadienyl)nickel;Nickel bis(cyclooctadiene);Nickel(COD)<sub>2</sub>",
    "duplicated_cas_no": "12289-90-6;32761-24-3;53585-17-4;57776-90-6",
    "SMILES": "[Ni]123456([CH]7=[CH]1CC[CH]2=[CH]3CC7)[CH]8=[CH]4CC[CH]5=[CH]6CC8",
    "meta_data": {
        "InChI": "InChI=1S/2C8H12.Ni/c2*1-2-4-6-8-7-5-3-1;/h2*1-2,7-8H,3-6H2;",
        "InChIKey": null,
        "Canonical SMILES": "C1C[CH]2=[CH]3CC[CH]4=[CH]1[Ni]243567[CH]=8CC[CH]7=[CH]6CC[CH]85",
        "Molecular Formula": "C<sub>16</sub>H<sub>24</sub>Ni",
        "Molecular Mass": "",
        "Melting Point": "50-90 °C"
    }
}