{
    "cas_no": "191-26-4",
    "key_name": "Anthanthrene",
    "cn_name": "蒽嵌蒽;蒽嵌蒽;",
    "alternate_name": "Dibenzo[<em>def</em>,<em>mno</em>]chrysene;Anthanthren;Dibenzo[<em>cd</em>,<em>jk</em>]pyrene;Anthanthrene",
    "duplicated_cas_no": "",
    "SMILES": "C12=C3C=4C=5C=C1C=CC6=C2C(C=C3C=CC4C=CC5)=CC=C6",
    "meta_data": {
        "InChI": "InChI=1S/C22H12/c1-3-13-7-9-18-12-16-6-2-4-14-8-10-17-11-15(5-1)19(13)21(18)22(17)20(14)16/h1-12H",
        "InChIKey": null,
        "Canonical SMILES": "C=1C=C2C=CC3=CC=4C=CC=C5C=CC6=CC(C1)=C2C3=C6C54",
        "Molecular Formula": "C<sub>22</sub>H<sub>12</sub>",
        "Molecular Mass": "276.33",
        "Melting Point": "257 °C"
    }
}