{
    "cas_no": "501-26-8",
    "key_name": "Ginkgol",
    "cn_name": null,
    "alternate_name": "Phenol, 3-(8<em>Z</em>)-8-pentadecen-1-yl-;Phenol, <em>m</em>-8-pentadecenyl-, (<em>Z</em>)-;Phenol, 3-(8-pentadecenyl)-, (<em>Z</em>)-;Phenol, 3-(8<em>Z</em>)-8-pentadecenyl-;3-(8<em>Z</em>)-8-Pentadecen-1-ylphenol;Ginkgol;(<em>Z</em>)-3-(8-Pentadecenyl)phenol;Cardanol monoene;3-[8(<em>Z</em>)-Pentadecenyl]phenol;Cardanol <em>C</em><sub>15:1</sub>",
    "duplicated_cas_no": "25377-75-7;29322-12-1",
    "SMILES": "C(CCCCCC/C=C\\CCCCCC)C1=CC(O)=CC=C1",
    "meta_data": {
        "InChI": "InChI=1S/C21H34O/c1-2-3-4-5-6-7-8-9-10-11-12-13-14-16-20-17-15-18-21(22)19-20/h7-8,15,17-19,22H,2-6,9-14,16H2,1H3/b8-7-",
        "InChIKey": null,
        "Canonical SMILES": "OC1=CC=CC(=C1)CCCCCCCC=CCCCCCC",
        "Molecular Formula": "C<sub>21</sub>H<sub>34</sub>O",
        "Molecular Mass": "302.49",
        "Boiling Point": "221-223 °C"
    }
}