{
    "cas_no": "189882-33-5",
    "key_name": "1<em>H</em>-Pyrrolo[2,3-<em>b</em>]pyridine-6-carbonitrile",
    "cn_name": null,
    "alternate_name": "1<em>H</em>-Pyrrolo[2,3-<em>b</em>]pyridine-6-carbonitrile",
    "duplicated_cas_no": "",
    "SMILES": "C(#N)C=1N=C2C(=CC1)C=CN2",
    "meta_data": {
        "InChI": "InChI=1S/C8H5N3/c9-5-7-2-1-6-3-4-10-8(6)11-7/h1-4H,(H,10,11)",
        "InChIKey": null,
        "Canonical SMILES": "N#CC1=NC=2NC=CC2C=C1",
        "Molecular Formula": "C<sub>8</sub>H<sub>5</sub>N<sub>3</sub>",
        "Molecular Mass": "143.15",
        "Melting Point": "187.4 °C"
    }
}