{
    "cas_no": "580-13-2",
    "key_name": "2-Bromonaphthalene",
    "cn_name": "2-溴代萘;2-溴萘;",
    "alternate_name": "Naphthalene, 2-bromo-;2-Bromonaphthalene;β-Bromonaphthalene;β-Naphthyl bromide;2-Naphthyl bromide;NSC 4011",
    "duplicated_cas_no": "",
    "SMILES": "BrC1=CC2=C(C=C1)C=CC=C2",
    "meta_data": {
        "InChI": "InChI=1S/C10H7Br/c11-10-6-5-8-3-1-2-4-9(8)7-10/h1-7H",
        "InChIKey": null,
        "Canonical SMILES": "BrC=1C=CC=2C=CC=CC2C1",
        "Molecular Formula": "C<sub>10</sub>H<sub>7</sub>Br",
        "Molecular Mass": "207.07",
        "Boiling Point": "281.5 °C",
        "Melting Point": "59 °C"
    }
}