{
    "cas_no": "10041-02-8",
    "key_name": "4-(1<em>H</em>-Imidazol-1-yl)phenol",
    "cn_name": "4-(咪唑-1-基)苯酚;",
    "alternate_name": "Phenol, 4-(1<em>H</em>-imidazol-1-yl)-;Phenol, <em>p</em>-imidazol-1-yl-;4-(1<em>H</em>-Imidazol-1-yl)phenol;4-(1<em>H</em>-1-Imidazolyl)phenol;Ro 22-3582;4-(1-Imidazolyl)phenol;<em>p</em>-(Imidazolyl-1-yl)phenol;<em>p</em>-(Imidazol-1-yl)phenol;1-(4-Hydroxyphenyl)imidazole;1-(<em>p</em>-Hydroxyphenyl)imidazole;1-(4-Hydroxyphenyl)-1<em>H</em>-imidazole;<em>N</em>-(4-Hydroxyphenyl)imidazole",
    "duplicated_cas_no": "",
    "SMILES": "OC1=CC=C(C=C1)N2C=CN=C2",
    "meta_data": {
        "InChI": "InChI=1S/C9H8N2O/c12-9-3-1-8(2-4-9)11-6-5-10-7-11/h1-7,12H",
        "InChIKey": null,
        "Canonical SMILES": "OC1=CC=C(C=C1)N2C=NC=C2",
        "Molecular Formula": "C<sub>9</sub>H<sub>8</sub>N<sub>2</sub>O",
        "Molecular Mass": "160.17",
        "Melting Point": "196-198 °C"
    }
}