{
    "cas_no": "600-18-0",
    "key_name": "2-Oxobutanoic acid",
    "cn_name": "2-酮丁酸;2-氧代丁酸;3-甲基丙酮酸;",
    "alternate_name": "Butanoic acid, 2-oxo-;Butyric acid, 2-oxo-;2-Oxobutanoic acid;Propionylformic acid;α-Oxobutyric acid;α-Oxo-<em>n</em>-butyric acid;2-Oxobutyric acid;α-Ketobutyric acid;2-Ketobutyric acid;α-<em>keto</em>-<em>n</em>-Butyric acid;3-Methylpyruvic acid;2-Oxo-<em>n</em>-butyric acid;2-Ketobutanoic acid;NSC 60533;α-Oxobutanoic acid",
    "duplicated_cas_no": "",
    "SMILES": "C(C(O)=O)(CC)=O",
    "meta_data": {
        "InChI": "InChI=1S/C4H6O3/c1-2-3(5)4(6)7/h2H2,1H3,(H,6,7)",
        "InChIKey": null,
        "Canonical SMILES": "O=C(O)C(=O)CC",
        "Molecular Formula": "C<sub>4</sub>H<sub>6</sub>O<sub>3</sub>",
        "Molecular Mass": "102.09",
        "Boiling Point": "74-78 °C @ Press: 25 Torr",
        "Melting Point": "33 °C"
    }
}