{
    "cas_no": "25068-26-2",
    "key_name": "Poly(4-methyl-1-pentene)",
    "cn_name": null,
    "alternate_name": "1-Pentene, 4-methyl-, homopolymer;1-Pentene, 4-methyl-, polymers;Poly(4-methyl-1-pentene);Methylpentene polymer;4-Methyl-1-pentene polymer;4-Methyl-1-pentene homopolymer;DX 836;DX 830;TPX-MX 020;TPX-MX 002;RO 15;TPX-DX 945;TPX;Templen;TPX-RT 18P;TPX-MX 019P;TPX-MX 002P;Poly(4-methylpentene-1);TPX 44;TPX-MX 007;Poly(methylpentene);TPX 45;TPX-X 22;TPX-D 820;MX 002;TPX 50X44B;TPX-RT 18XB;TPX 221M;TPX-OT 009;TPX-0S 015;TPX-OS 020;4-Methylpentene homopolymer;TPX-RT 10;TPX-RMX 001;DX 720;TPX 840;DX 350;TPX-MTT 231;TPX-M 002;TPX-X 44B;TPX-MBZ 230;ResinKit 43;Opulent X 60YMT4;Opulent X 66Y;TPX-MX 321XB;TPX-RT 30;TPX-DX 820M;Opulent X 88;Opulent 44BMT4;Opulent TPX-X 44B;TPX (polyolefin);TPX-RMX 002;Opulent X 22;X 44B;DX 310M;TPX 820M;TPX-DX 350;TPX-MX 022;DX 842;Mitsui DX 842;MTS 284;TPX 820;TPX-DX 818;TPX-DX 810UP;MX 002UP;TPX-X 88B;Opulent X 88B;Opulent X 88BMT4;X 88BMT4;MX 321XB;TPX-MX 002UP;Opulent X 88B50;EF 020G-A30;CR 1012;MX 001PMP;TPX-DX 470;DX 470;DX 485;TLN 8;TPX-DX 324;TPX-MX 0020;DX 810PW;X 88B;Sumilite CEL-E 950D;Opulent XP 88B",
    "duplicated_cas_no": "246523-45-5",
    "SMILES": "C(C(C)C)C=C",
    "meta_data": {
        "InChI": "InChI=1S/C6H12/c1-4-5-6(2)3/h4,6H,1,5H2,2-3H3",
        "InChIKey": null,
        "Canonical SMILES": "C=CCC(C)C",
        "Molecular Formula": "(C<sub>6</sub>H<sub>12</sub>)<sub>x</sub>",
        "Molecular Mass": "",
        "Boiling Point": "0.83 °C",
        "Melting Point": "250 °C",
        "Density": "0.84 g/cm³"
    }
}