{
    "cas_no": "84-62-8",
    "key_name": "Diphenyl phthalate",
    "cn_name": "邻苯二甲酸二苯酯;邻苯二甲酸二苯酯;",
    "alternate_name": "1,2-Benzenedicarboxylic acid, 1,2-diphenyl ester;Phthalic acid, diphenyl ester;1,2-Benzenedicarboxylic acid, diphenyl ester;Diphenyl phthalate;Phenyl phthalate;NSC 4052;1,2-Diphenyl benzene-1,2-dicarboxylate",
    "duplicated_cas_no": "",
    "SMILES": "C(OC1=CC=CC=C1)(=O)C2=C(C(OC3=CC=CC=C3)=O)C=CC=C2",
    "meta_data": {
        "InChI": "InChI=1S/C20H14O4/c21-19(23-15-9-3-1-4-10-15)17-13-7-8-14-18(17)20(22)24-16-11-5-2-6-12-16/h1-14H",
        "InChIKey": null,
        "Canonical SMILES": "O=C(OC=1C=CC=CC1)C=2C=CC=CC2C(=O)OC=3C=CC=CC3",
        "Molecular Formula": "C<sub>20</sub>H<sub>14</sub>O<sub>4</sub>",
        "Molecular Mass": "318.32",
        "Boiling Point": "255 °C",
        "Melting Point": "73 °C"
    }
}