{
    "cas_no": "40851-65-8",
    "key_name": "2-Aminomethylphenylacetic acid",
    "cn_name": "2-氨基甲基苯乙酸;",
    "alternate_name": "Benzeneacetic acid, 2-(aminomethyl)-;Acetic acid, (α-amino-<em>o</em>-tolyl)-;2-(Aminomethyl)benzeneacetic acid;<em>o</em>-(Aminomethyl)phenylacetic acid;2-Aminomethylphenylacetic acid;2-[2-(Aminomethyl)phenyl]acetic acid",
    "duplicated_cas_no": "",
    "SMILES": "C(C(O)=O)C1=C(CN)C=CC=C1",
    "meta_data": {
        "InChI": "InChI=1S/C9H11NO2/c10-6-8-4-2-1-3-7(8)5-9(11)12/h1-4H,5-6,10H2,(H,11,12)",
        "InChIKey": null,
        "Canonical SMILES": "O=C(O)CC=1C=CC=CC1CN",
        "Molecular Formula": "C<sub>9</sub>H<sub>11</sub>NO<sub>2</sub>",
        "Molecular Mass": "165.19",
        "Melting Point": "202 °C (decomp)"
    }
}