{
    "cas_no": "16640-68-9",
    "key_name": "2-(Triphenylphosphoranylidene)acetonitrile",
    "cn_name": "(三苯基膦)乙腈;",
    "alternate_name": "Acetonitrile, 2-(triphenylphosphoranylidene)-;Acetonitrile, (triphenylphosphoranylidene)-;2-(Triphenylphosphoranylidene)acetonitrile;(Cyanomethylene)triphenylphosphorane;Triphenylcyanomethylenephosphorane;Cyanomethyltriphenylphosphonium ylide;(Cyanomethylene)triphenylphosphine;Triphenylphosphoranylidenacetonitrile;(Cyano)(triphenylphosphoranylidene)methane;(Triphenylphosphoranylidene)acetonitrile;NSC 135204;(Cyanomethylidene)triphenylphosphorane;2-(Triphenyl-λ5-phosphanylidene)acetonitrile",
    "duplicated_cas_no": "597558-27-5",
    "SMILES": "P(=CC#N)(C1=CC=CC=C1)(C2=CC=CC=C2)C3=CC=CC=C3",
    "meta_data": {
        "InChI": "InChI=1S/C20H16NP/c21-16-17-22(18-10-4-1-5-11-18,19-12-6-2-7-13-19)20-14-8-3-9-15-20/h1-15,17H",
        "InChIKey": null,
        "Canonical SMILES": "N#CC=P(C=1C=CC=CC1)(C=2C=CC=CC2)C=3C=CC=CC3",
        "Molecular Formula": "C<sub>20</sub>H<sub>16</sub>NP",
        "Molecular Mass": "301.32",
        "Melting Point": "192 °C"
    }
}