{
    "cas_no": "611-06-3",
    "key_name": "2,4-Dichloronitrobenzene",
    "cn_name": "2,4-二氯硝基苯;",
    "alternate_name": "Benzene, 2,4-dichloro-1-nitro-;2,4-Dichloro-1-nitrobenzene;2,4-Dichloronitrobenzene;1,3-Dichloro-4-nitrobenzene;4-Nitro-1,3-dichlorobenzene;NSC 43196",
    "duplicated_cas_no": "",
    "SMILES": "N(=O)(=O)C1=C(Cl)C=C(Cl)C=C1",
    "meta_data": {
        "InChI": "InChI=1S/C6H3Cl2NO2/c7-4-1-2-6(9(10)11)5(8)3-4/h1-3H",
        "InChIKey": null,
        "Canonical SMILES": "O=N(=O)C1=CC=C(Cl)C=C1Cl",
        "Molecular Formula": "C<sub>6</sub>H<sub>3</sub>Cl<sub>2</sub>NO<sub>2</sub>",
        "Molecular Mass": "192.00",
        "Boiling Point": "258.5 °C",
        "Melting Point": "34 °C",
        "Density": "1.4790 g/cm³ @ Temp: 80 °C"
    }
}