{
    "cas_no": "620-20-2",
    "key_name": "3-Chlorobenzyl chloride",
    "cn_name": "间氯氯苄;3-氯氯苄;",
    "alternate_name": "Benzene, 1-chloro-3-(chloromethyl)-;Toluene, <em>m</em>,α-dichloro-;1-Chloro-3-(chloromethyl)benzene;<em>m</em>-Chlorobenzyl chloride;<em>m</em>,α-Dichlorotoluene;α,3-Dichlorotoluene;3-Chlorobenzyl chloride;α,<em>m</em>-Dichlorotoluene;<em>m</em>-Chlorophenylmethyl chloride;NSC 76577",
    "duplicated_cas_no": "",
    "SMILES": "C(Cl)C1=CC(Cl)=CC=C1",
    "meta_data": {
        "InChI": "InChI=1S/C7H6Cl2/c8-5-6-2-1-3-7(9)4-6/h1-4H,5H2",
        "InChIKey": null,
        "Canonical SMILES": "ClC1=CC=CC(=C1)CCl",
        "Molecular Formula": "C<sub>7</sub>H<sub>6</sub>Cl<sub>2</sub>",
        "Molecular Mass": "161.03",
        "Boiling Point": "216 °C",
        "Melting Point": "32-34 °C",
        "Density": "1.262 g/cm³ @ Temp: 20 °C"
    }
}