{
    "cas_no": "29949-85-7",
    "key_name": "Tris(3-chlorophenyl)phosphine",
    "cn_name": "三(3-氯苯基)膦;",
    "alternate_name": "Phosphine, tris(3-chlorophenyl)-;Phosphine, tris(<em>m</em>-chlorophenyl)-;Tris(3-chlorophenyl)phosphine;Tris(<em>m</em>-chlorophenyl)phosphine;Tri(<em>m</em>-chlorophenyl)phosphine",
    "duplicated_cas_no": "",
    "SMILES": "P(C1=CC(Cl)=CC=C1)(C2=CC(Cl)=CC=C2)C3=CC(Cl)=CC=C3",
    "meta_data": {
        "InChI": "InChI=1S/C18H12Cl3P/c19-13-4-1-7-16(10-13)22(17-8-2-5-14(20)11-17)18-9-3-6-15(21)12-18/h1-12H",
        "InChIKey": null,
        "Canonical SMILES": "ClC1=CC=CC(=C1)P(C=2C=CC=C(Cl)C2)C=3C=CC=C(Cl)C3",
        "Molecular Formula": "C<sub>18</sub>H<sub>12</sub>Cl<sub>3</sub>P",
        "Molecular Mass": "365.62",
        "Melting Point": "67 °C"
    }
}