{
    "cas_no": "1184-88-9",
    "key_name": "Propanoic acid, 2,2-dimethyl-, sodium salt (1:1)",
    "cn_name": null,
    "alternate_name": "Propanoic acid, 2,2-dimethyl-, sodium salt (1:1);Pivalic acid, sodium salt;Propanoic acid, 2,2-dimethyl-, sodium salt;Sodium neopentanoate;Sodium trimethylacetate;Sodium 2,2-dimethylpropanoate;Trimethylacetic acid sodium salt;Sodium pivalate;Sodium 2,2-dimethylpropionate;2,2-Dimethylpropionic acid sodium salt;Sodium <em>tert</em>-butylcarboxylate;2,2-Dimethylpropanoic acid sodium salt",
    "duplicated_cas_no": "",
    "SMILES": "C(C(O)=O)(C)(C)C.[Na]",
    "meta_data": {
        "InChI": "InChI=1S/C5H10O2.Na/c1-5(2,3)4(6)7;/h1-3H3,(H,6,7);",
        "InChIKey": null,
        "Canonical SMILES": "[Na].O=C(O)C(C)(C)C",
        "Molecular Formula": "C<sub>5</sub>H<sub>10</sub>O<sub>2</sub>.Na",
        "Molecular Mass": "",
        "Boiling Point": "100-102 °C @ Press: 10 Torr",
        "Melting Point": "315 °C",
        "Density": "0.902 g/cm³ @ Temp: 22 °C"
    }
}