{
    "cas_no": "94749-08-3",
    "key_name": "Salmeterol xinafoate",
    "cn_name": "昔美酸沙美特罗;沙美特罗羟萘甲酸盐;2-羟甲基-4-[1-羟基-2-[6-(4-苯基丁氧基)己基氨基]乙基]苯酚1-羟基-2-;",
    "alternate_name": "2-Naphthalenecarboxylic acid, 1-hydroxy-, compd. with 4-hydroxy-α<sup>1</sup>-[[[6-(4-phenylbutoxy)hexyl]amino]methyl]-1,3-benzenedimethanol (1:1);2-Naphthalenecarboxylic acid, 1-hydroxy-, compd. with (±)-4-hydroxy-α<sup>1</sup>-[[[6-(4-phenylbutoxy)hexyl]amino]methyl]-1,3-benzenedimethanol (1:1);1,3-Benzenedimethanol, 4-hydroxy-α<sup>1</sup>-[[[6-(4-phenylbutoxy)hexyl]amino]methyl]-, (±)-, 1-hydroxy-2-naphthalenecarboxylate (salt);1,3-Benzenedimethanol, 4-hydroxy-α<sup>1</sup>-[[[6-(4-phenylbutoxy)hexyl]amino]methyl]-, 1-hydroxy-2-naphthalenecarboxylate (salt);GR 33343G;Salmeterol xinafoate;SN 408;Salmeterol hydroxynaphthoate;Siduomi;Serevent;GR 3343G;Salmetedur;Arial;Serevent Diskus",
    "duplicated_cas_no": "143982-79-0",
    "SMILES": "C(CNCCCCCCOCCCCC1=CC=CC=C1)(O)C2=CC(CO)=C(O)C=C2.OC=1C2=C(C=CC1C(O)=O)C=CC=C2",
    "meta_data": {
        "InChI": "InChI=1S/C25H37NO4.C11H8O3/c27-20-23-18-22(13-14-24(23)28)25(29)19-26-15-7-1-2-8-16-30-17-9-6-12-21-10-4-3-5-11-21;12-10-8-4-2-1-3-7(8)5-6-9(10)11(13)14/h3-5,10-11,13-14,18,25-29H,1-2,6-9,12,15-17,19-20H2;1-6,12H,(H,13,14)",
        "InChIKey": null,
        "Canonical SMILES": "O=C(O)C=1C=CC=2C=CC=CC2C1O.OC1=CC=C(C=C1CO)C(O)CNCCCCCCOCCCCC=2C=CC=CC2",
        "Molecular Formula": "C<sub>25</sub>H<sub>37</sub>NO<sub>4</sub>.C<sub>11</sub>H<sub>8</sub>O<sub>3</sub>",
        "Molecular Mass": "",
        "Melting Point": "137-138 °C"
    }
}