{
    "cas_no": "10488-69-4",
    "key_name": "Butanoic acid, 4-chloro-3-hydroxy-, ethyl ester",
    "cn_name": null,
    "alternate_name": "Butanoic acid, 4-chloro-3-hydroxy-, ethyl ester;Butyric acid, 4-chloro-3-hydroxy-, ethyl ester;Ethyl 4-chloro-3-hydroxybutyrate;Ethyl γ-chloro-β-hydroxybutyrate;Ethyl 4-chloro-3-hydroxybutanoate;4-Chloro-3-hydroxybutanoic acid ethyl ester;(±)-Ethyl 4-chloro-3-hydroxybutyrate;4-Chloro-3-hydroxybutyric acid ethyl ester",
    "duplicated_cas_no": "87068-18-6",
    "SMILES": "C(C(OCC)=O)C(CCl)O",
    "meta_data": {
        "InChI": "InChI=1S/C6H11ClO3/c1-2-10-6(9)3-5(8)4-7/h5,8H,2-4H2,1H3",
        "InChIKey": null,
        "Canonical SMILES": "O=C(OCC)CC(O)CCl",
        "Molecular Formula": "C<sub>6</sub>H<sub>11</sub>ClO<sub>3</sub>",
        "Molecular Mass": "166.60",
        "Boiling Point": "155-157 °C @ Press: 10 Torr",
        "Melting Point": "136 °C",
        "Density": "1.1257 g/cm³ @ Temp: 16 °C"
    }
}