{
    "cas_no": "79775-07-8",
    "key_name": "(4<em>R</em>)-4-(1,1-Dimethylethoxy)-<span class=\"text-smallcaps\">L</span>-proline",
    "cn_name": null,
    "alternate_name": "<span class=\"text-smallcaps\">L</span>-Proline, 4-(1,1-dimethylethoxy)-, (4<em>R</em>)-;<span class=\"text-smallcaps\">L</span>-Proline, 4-(1,1-dimethylethoxy)-, <em>trans</em>-;(4<em>R</em>)-4-(1,1-Dimethylethoxy)-<span class=\"text-smallcaps\">L</span>-proline;<em>trans</em>-4-<em>tert</em>-Butoxy-<span class=\"text-smallcaps\">L</span>-proline;(2<em>S</em>,4<em>R</em>)-4-<em>tert</em>-Butoxypyrrolidine-2-carboxylic acid",
    "duplicated_cas_no": "",
    "SMILES": "O(C(C)(C)C)[C@@H]1C[C@@H](C(O)=O)NC1",
    "meta_data": {
        "InChI": "InChI=1S/C9H17NO3/c1-9(2,3)13-6-4-7(8(11)12)10-5-6/h6-7,10H,4-5H2,1-3H3,(H,11,12)/t6-,7+/m1/s1",
        "InChIKey": null,
        "Canonical SMILES": "O=C(O)C1NCC(OC(C)(C)C)C1",
        "Molecular Formula": "C<sub>9</sub>H<sub>17</sub>NO<sub>3</sub>",
        "Molecular Mass": "187.24",
        "Melting Point": "204-206 °C"
    }
}