{
    "cas_no": "33173-55-6",
    "key_name": "4-Azido-<em>N</em>-[(1,1-dimethylethoxy)carbonyl]-<span class=\"text-smallcaps\">L</span>-phenylalanine",
    "cn_name": null,
    "alternate_name": "<span class=\"text-smallcaps\">L</span>-Phenylalanine, 4-azido-<em>N</em>-[(1,1-dimethylethoxy)carbonyl]-;Alanine, 3-(<em>p</em>-azidophenyl)-<em>N</em>-carboxy-, <em>N</em>-<em>tert</em>-butyl ester, <span class=\"text-smallcaps\">L</span>-;4-Azido-<em>N</em>-[(1,1-dimethylethoxy)carbonyl]-<span class=\"text-smallcaps\">L</span>-phenylalanine;(<em>S</em>)-3-(4-Azidophenyl)-2-[(<em>tert</em>-butoxycarbonyl)amino]propionic acid;(2<em>S</em>)-3-(4-Azidophenyl)-2-[(<em>tert</em>-butoxycarbonyl)amino]propionic acid;(2S)-3-(4-Azidophenyl)-2-[(2-methylpropan-2-yl)oxycarbonylamino]propanoic acid",
    "duplicated_cas_no": "47226-42-6;71939-15-6;2089042-45-3",
    "SMILES": "C([C@H](NC(OC(C)(C)C)=O)C(O)=O)C1=CC=C(N=[N+]=[N-])C=C1",
    "meta_data": {
        "InChI": "InChI=1S/C14H18N4O4/c1-14(2,3)22-13(21)16-11(12(19)20)8-9-4-6-10(7-5-9)17-18-15/h4-7,11H,8H2,1-3H3,(H,16,21)(H,19,20)/t11-/m0/s1",
        "InChIKey": null,
        "Canonical SMILES": "[N-]=[N+]=NC1=CC=C(C=C1)CC(NC(=O)OC(C)(C)C)C(=O)O",
        "Molecular Formula": "C<sub>14</sub>H<sub>18</sub>N<sub>4</sub>O<sub>4</sub>",
        "Molecular Mass": "",
        "Melting Point": "84 °C"
    }
}