{
    "cas_no": "5690-24-4",
    "key_name": "Benzo[<em>lmn</em>][3,8]phenanthroline-1,3,6,8(2<em>H</em>,7<em>H</em>)-tetrone",
    "cn_name": "1,4,5,8-萘四碳二酰亚胺;",
    "alternate_name": "Benzo[<em>lmn</em>][3,8]phenanthroline-1,3,6,8(2<em>H</em>,7<em>H</em>)-tetrone;1,4,5,8-Naphthalenetetracarboxylic 1,8:4,5-diimide;NSC 96429;1,4,5,8-Naphthaldiimide;1,4,5,8-Naphthalenetetracarboxylic acid diimide;1,4,5,8-Naphthalenetetracarboxylic diimide;NTCDI",
    "duplicated_cas_no": "",
    "SMILES": "O=C1C=2C3=C4C(C(=O)NC(=O)C4=CC2)=CC=C3C(=O)N1",
    "meta_data": {
        "InChI": "InChI=1S/C14H6N2O4/c17-11-5-1-2-6-10-8(14(20)16-12(6)18)4-3-7(9(5)10)13(19)15-11/h1-4H,(H,15,17,19)(H,16,18,20)",
        "InChIKey": null,
        "Canonical SMILES": "O=C1NC(=O)C2=CC=C3C(=O)NC(=O)C4=CC=C1C2=C43",
        "Molecular Formula": "C<sub>14</sub>H<sub>6</sub>N<sub>2</sub>O<sub>4</sub>",
        "Molecular Mass": "266.21",
        "Melting Point": "&gt;410 °C"
    }
}