{
    "cas_no": "2623-23-6",
    "key_name": "(-)-Menthyl acetate",
    "cn_name": "乙酸-L-孟酯;乙酸薄荷酯;乙酸5-甲基-2-(1-甲基乙基)环己酯;",
    "alternate_name": "Cyclohexanol, 5-methyl-2-(1-methylethyl)-, 1-acetate, (1<em>R</em>,2<em>S</em>,5<em>R</em>)-;Menthol, acetate, (1<em>R</em>,3<em>R</em>,4<em>S</em>)-(-)-;Cyclohexanol, 5-methyl-2-(1-methylethyl)-, acetate, [1<em>R</em>-(1α,2β,5α)]-;Cyclohexanol, 5-methyl-2-(1-methylethyl)-, acetate, (1<em>R</em>,2<em>S</em>,5<em>R</em>)-;(-)-Menthyl acetate;<span class=\"text-smallcaps\">L</span>-Menthyl acetate;<em>l</em>-Menthyl acetate;<em>l</em>-Menthol acetate;<em>l</em>-(-)-Menthyl acetate;(1<em>R</em>,2<em>S</em>,5<em>R</em>)-5-Methyl-2-(1-methylethyl)cyclohexanol acetate;(-)-Menthol acetate;NSC 3722;NSC 52970;(-)-<em>p</em>-Menthyl acetate;Acetic acid (<em>R</em>)-menthyl ester",
    "duplicated_cas_no": "",
    "SMILES": "[C@H](C)(C)[C@H]1[C@H](OC(C)=O)C[C@H](C)CC1",
    "meta_data": {
        "InChI": "InChI=1S/C12H22O2/c1-8(2)11-6-5-9(3)7-12(11)14-10(4)13/h8-9,11-12H,5-7H2,1-4H3/t9-,11+,12-/m1/s1",
        "InChIKey": null,
        "Canonical SMILES": "O=C(OC1CC(C)CCC1C(C)C)C",
        "Molecular Formula": "C<sub>12</sub>H<sub>22</sub>O<sub>2</sub>",
        "Molecular Mass": "198.30",
        "Boiling Point": "229.5 °C",
        "Melting Point": "&lt;25 °C"
    }
}