{
    "cas_no": "766-84-7",
    "key_name": "3-Chlorobenzonitrile",
    "cn_name": "3-氯苯腈;间氯苯腈;",
    "alternate_name": "Benzonitrile, 3-chloro-;Benzonitrile, <em>m</em>-chloro-;3-Chlorobenzonitrile;<em>m</em>-Chlorobenzonitrile;<em>m</em>-Cyanochlorobenzene;<em>m</em>-Chlorocyanobenzene;m-Chlorobenzonitrile;NSC 59733",
    "duplicated_cas_no": "",
    "SMILES": "C(#N)C1=CC(Cl)=CC=C1",
    "meta_data": {
        "InChI": "InChI=1S/C7H4ClN/c8-7-3-1-2-6(4-7)5-9/h1-4H",
        "InChIKey": null,
        "Canonical SMILES": "N#CC=1C=CC=C(Cl)C1",
        "Molecular Formula": "C<sub>7</sub>H<sub>4</sub>ClN",
        "Molecular Mass": "137.57",
        "Melting Point": "41 °C"
    }
}