{
    "cas_no": "30709-67-2",
    "key_name": "5-Methyl-4-phenyl-2-thiazolamine",
    "cn_name": null,
    "alternate_name": "2-Thiazolamine, 5-methyl-4-phenyl-;Thiazole, 2-amino-5-methyl-4-phenyl-;5-Methyl-4-phenyl-2-thiazolamine;2-Amino-5-methyl-4-phenylthiazole;5-Methyl-4-phenyl-1,3-thiazol-2-amine;NSC 54435;(5-Methyl-4-phenylthiazol-2-yl)amine;2-Amino-4-phenyl-5-methylthiazole",
    "duplicated_cas_no": "",
    "SMILES": "CC1=C(N=C(N)S1)C2=CC=CC=C2",
    "meta_data": {
        "InChI": "InChI=1S/C10H10N2S/c1-7-9(12-10(11)13-7)8-5-3-2-4-6-8/h2-6H,1H3,(H2,11,12)",
        "InChIKey": null,
        "Canonical SMILES": "N1=C(SC(=C1C=2C=CC=CC2)C)N",
        "Molecular Formula": "C<sub>10</sub>H<sub>10</sub>N<sub>2</sub>S",
        "Molecular Mass": "190.26",
        "Boiling Point": "163-164 °C @ Press: 0.6 Torr",
        "Melting Point": "116-118 °C"
    }
}