{
    "cas_no": "17228-64-7",
    "key_name": "2-Chloro-6-methoxypyridine",
    "cn_name": "2-氯-6-甲氧基吡啶;2-甲氧基-6-氯吡啶;",
    "alternate_name": "Pyridine, 2-chloro-6-methoxy-;2-Chloro-6-methoxypyridine;6-Chloro-2-methoxypyridine;2-Methoxy-6-chloropyridine",
    "duplicated_cas_no": "",
    "SMILES": "O(C)C=1N=C(Cl)C=CC1",
    "meta_data": {
        "InChI": "InChI=1S/C6H6ClNO/c1-9-6-4-2-3-5(7)8-6/h2-4H,1H3",
        "InChIKey": null,
        "Canonical SMILES": "ClC=1N=C(OC)C=CC1",
        "Molecular Formula": "C<sub>6</sub>H<sub>6</sub>ClNO",
        "Molecular Mass": "143.57",
        "Boiling Point": "185.5 °C"
    }
}