{
    "cas_no": "5854-78-4",
    "key_name": "<em>O</em>-(1,1-Dimethylethyl)-<span class=\"text-smallcaps\">L</span>-threonine 1,1-dimethylethyl ester",
    "cn_name": "tBu-缬氨酸叔丁酯;tBu-缬氨酸叔丁酯;",
    "alternate_name": "<span class=\"text-smallcaps\">L</span>-Threonine, <em>O</em>-(1,1-dimethylethyl)-, 1,1-dimethylethyl ester;Butyric acid, 2-amino-3-<em>tert</em>-butoxy-, <em>tert</em>-butyl ester, <span class=\"text-smallcaps\">L</span>-;Butyric acid, 2-amino-3-<em>tert</em>-butoxy-, <em>tert</em>-butyl ester;<em>O</em>-(1,1-Dimethylethyl)-<span class=\"text-smallcaps\">L</span>-threonine 1,1-dimethylethyl ester;<em>O</em>-<em>tert</em>-Butyl-<span class=\"text-smallcaps\">L</span>-threonine <em>tert</em>-butyl ester;<em>O</em>-<em>tert</em>-Butylthreonine <em>tert</em>-butyl ester",
    "duplicated_cas_no": "247167-05-1;1202352-70-2",
    "SMILES": "[C@@H]([C@@H](C(OC(C)(C)C)=O)N)(OC(C)(C)C)C",
    "meta_data": {
        "InChI": "InChI=1S/C12H25NO3/c1-8(15-11(2,3)4)9(13)10(14)16-12(5,6)7/h8-9H,13H2,1-7H3/t8-,9+/m1/s1",
        "InChIKey": null,
        "Canonical SMILES": "O=C(OC(C)(C)C)C(N)C(OC(C)(C)C)C",
        "Molecular Formula": "C<sub>12</sub>H<sub>25</sub>NO<sub>3</sub>",
        "Molecular Mass": "231.33",
        "Melting Point": "74-75 °C"
    }
}