{
    "cas_no": "111-35-3",
    "key_name": "3-Ethoxy-1-propanol",
    "cn_name": "3-乙氧基丙醇;1,3-丙二醇单乙醚;",
    "alternate_name": "1-Propanol, 3-ethoxy-;3-Ethoxy-1-propanol;3-Ethoxypropanol;NSC 78799;3-Ethoxy-2-propyl alcohol",
    "duplicated_cas_no": "192707-14-5",
    "SMILES": "C(CCO)OCC",
    "meta_data": {
        "InChI": "InChI=1S/C5H12O2/c1-2-7-5-3-4-6/h6H,2-5H2,1H3",
        "InChIKey": null,
        "Canonical SMILES": "OCCCOCC",
        "Molecular Formula": "C<sub>5</sub>H<sub>12</sub>O<sub>2</sub>",
        "Molecular Mass": "104.15",
        "Boiling Point": "59-60 °C @ Press: 12 Torr",
        "Melting Point": "160.5 °C"
    }
}