{
    "cas_no": "6312-72-7",
    "key_name": "2,6-Diamino-5-bromo-4(3<em>H</em>)-pyrimidinone",
    "cn_name": null,
    "alternate_name": "4(3<em>H</em>)-Pyrimidinone, 2,6-diamino-5-bromo-;4-Pyrimidinol, 2,6-diamino-5-bromo-;4(1<em>H</em>)-Pyrimidinone, 2,6-diamino-5-bromo-;2,6-Diamino-5-bromo-4(3<em>H</em>)-pyrimidinone;2,4-Diamino-6-hydroxy-5-bromopyrimidine;5-Bromo-2,4-diamino-6-hydroxypyrimidine;5-Bromo-2,6-diaminopyrimidin-4(3<em>H</em>)-one;NSC 40393;NSC 67304;NSC 9303;2,6-Diamino-5-bromopyrimidin-4-ol;2,6-Diamino-5-bromo-1<em>H</em>-pyrimidin-4-one;2,6-Diamino-5-bromo-1,4-dihydropyrimidin-4-one;2,6-Diamino-5-bromo-3,4-dihydropyrimidin-4-one",
    "duplicated_cas_no": "",
    "SMILES": "BrC1=C(N)NC(N)=NC1=O",
    "meta_data": {
        "InChI": "InChI=1S/C4H5BrN4O/c5-1-2(6)8-4(7)9-3(1)10/h(H5,6,7,8,9,10)",
        "InChIKey": null,
        "Canonical SMILES": "O=C1N=C(N)NC(N)=C1Br",
        "Molecular Formula": "C<sub>4</sub>H<sub>5</sub>BrN<sub>4</sub>O",
        "Molecular Mass": "205.01",
        "Melting Point": "243 °C (decomp)"
    }
}