{
    "cas_no": "7459-46-3",
    "key_name": "Triethyl 1,1,2-ethanetricarboxylate",
    "cn_name": "1,1,2-乙烷三羧酸三乙酯;",
    "alternate_name": "1,1,2-Ethanetricarboxylic acid, 1,1,2-triethyl ester;1,1,2-Ethanetricarboxylic acid, triethyl ester;Triethyl ethane-1,2,2-tricarboxylate;1,1,2-Tricarbethoxyethane;Triethyl ethanetricarboxylate;Diethyl 2-carbethoxysuccinate;Triethyl 1,1,2-ethanetricarboxylate;2-Ethoxycarbonylsuccinic acid diethyl ester;NSC 78463;1,1,2-Triethyl ethane-1,1,2-tricarboxylate",
    "duplicated_cas_no": "70489-33-7;2750422-79-6",
    "SMILES": "C(CC(OCC)=O)(C(OCC)=O)C(OCC)=O",
    "meta_data": {
        "InChI": "InChI=1S/C11H18O6/c1-4-15-9(12)7-8(10(13)16-5-2)11(14)17-6-3/h8H,4-7H2,1-3H3",
        "InChIKey": null,
        "Canonical SMILES": "O=C(OCC)CC(C(=O)OCC)C(=O)OCC",
        "Molecular Formula": "C<sub>11</sub>H<sub>18</sub>O<sub>6</sub>",
        "Molecular Mass": "246.26",
        "Boiling Point": "139-142 °C @ Press: 7 Torr",
        "Density": "1.1018 g/cm³ @ Temp: 22 °C"
    }
}