{
    "cas_no": "10030-73-6",
    "key_name": "Palmitelaidic acid",
    "cn_name": null,
    "alternate_name": "9-Hexadecenoic acid, (9<em>E</em>)-;9-Hexadecenoic acid, (<em>E</em>)-;(9<em>E</em>)-9-Hexadecenoic acid;Palmitelaidic acid;(<em>E</em>)-9-Hexadecenoic acid;<em>trans</em>-Palmitoleic acid;<em>trans</em>-9-Hexadecenoic acid;9-<em>trans</em>-Hexadecenoic acid;(<em>E</em>)-Hexadec-9-enoic acid",
    "duplicated_cas_no": "",
    "SMILES": "C(CC/C=C/CCCCCC)CCCCC(O)=O",
    "meta_data": {
        "InChI": "InChI=1S/C16H30O2/c1-2-3-4-5-6-7-8-9-10-11-12-13-14-15-16(17)18/h7-8H,2-6,9-15H2,1H3,(H,17,18)/b8-7+",
        "InChIKey": null,
        "Canonical SMILES": "O=C(O)CCCCCCCC=CCCCCCC",
        "Molecular Formula": "C<sub>16</sub>H<sub>30</sub>O<sub>2</sub>",
        "Molecular Mass": "254.41",
        "Melting Point": "31-32 °C"
    }
}