{
    "cas_no": "7361-43-5",
    "key_name": "<span class=\"text-smallcaps\">L</span>-Serine, <em>N</em>-glycyl-",
    "cn_name": "甘氨酰-L-丝氨酸;",
    "alternate_name": "<span class=\"text-smallcaps\">L</span>-Serine, glycyl-;Serine, <em>N</em>-glycyl-, <span class=\"text-smallcaps\">L</span>-;<span class=\"text-smallcaps\">L</span>-Serine, <em>N</em>-glycyl-;Glycyl-<span class=\"text-smallcaps\">L</span>-serine;Glycineserine;Glycylserine;<em>N</em>-Glycyl-<span class=\"text-smallcaps\">L</span>-serine;11: PN: WO03052099 PAGE: 83 claimed protein;NSC 524160;454: PN: WO2005081628 SEQID: 456 claimed protein;1685: PN: EP2071334 SEQID: 1778 claimed protein;1685: PN: WO2009077864 SEQID: 1778 claimed protein;300: PN: WO2010007533 SEQID: 300 unclaimed protein;45: PN: WO2007115148 PAGE: 61 claimed protein;5: PN: WO2010097394 SEQID: 7 claimed protein;5: PN: WO2010097385 SEQID: 7 claimed protein;5: PN: WO2010097386 SEQID: 7 claimed protein;15: PN: US20100215657 SEQID: 15 claimed protein;130: PN: WO2010136481 SEQID: 86 unclaimed protein;7: PN: WO2010136492 SEQID: 7 claimed protein;1: PN: WO2010136485 SEQID: 10 claimed protein;51: PN: WO2010136483 SEQID: 51 claimed protein;31: PN: WO2010136482 SEQID: 31 unclaimed protein;5: PN: WO2010136480 SEQID: 31 claimed protein;77: PN: WO2011084714 SEQID: 80 claimed sequence;858: PN: WO2011086143 PAGE: 73 claimed sequence;70: PN: US20110195077 SEQID: 15 claimed sequence;21: PN: WO2014063098 TABLE: 5 claimed sequence;362: PN: WO2011146121 SEQID: 71 unclaimed protein;15: PN: WO2011141451 SEQID: 13 unclaimed protein;1: PN: WO2011150133 PAGE: 63 claimed sequence;31: PN: WO2012001647 SEQID: 24 unclaimed protein;108: PN: WO2012050923 SEQID: 135 unclaimed protein;8: PN: WO2012061268 SEQID: 8 claimed protein;185: PN: WO2012140627 SEQID: 159 unclaimed protein;12: PN: WO2012175508 SEQID: 12 claimed protein;7: PN: WO2013027191 SEQID: 15 claimed sequence;1: PN: US20130078245 PAGE: 98 claimed sequence;139: PN: US20130123467 SEQID: 167 claimed protein;5: PN: WO2013092716 SEQID: 1 unclaimed protein;158: PN: WO2013190555 SEQID: 159 unclaimed protein;1: PN: WO2014052462 PAGE: 152 claimed sequence;73: PN: WO2014083004 SEQID: 73 claimed protein;29: PN: WO2014089209 SEQID: 29 claimed protein;25: PN: WO2014102104 SEQID: 124 claimed protein;25: PN: WO2014102101 SEQID: 325 claimed protein;65: PN: WO2014102103 TABLE: 1 claimed protein;44: PN: WO2014102100 TABLE: 1 claimed protein;3: PN: WO2014170713 SEQID: 103 claimed protein;6: PN: US20150111814 SEQID: 10 claimed sequence;1: PN: WO2015103072 PAGE: 93 claimed sequence;2: PN: CN105348392 PAGE: 2 claimed sequence;75: PN: WO2016065326 SEQID: 354 claimed protein;5: PN: WO2016088059 SEQID: 15 claimed sequence;3: PN: CN105801706 SEQID: 3 claimed protein;Peptide (synthetic linker);11: PN: WO2016134335 SEQID: 1567 claimed protein;2: PN: WO2017060857 PAGE: 93 claimed sequence;401: PN: WO2017096120 SEQID: 557 claimed protein;7: PN: WO2017095769 SEQID: 9 claimed sequence;Growth differentiation factor 15 (synthetic);312: PN: WO2017109706 SEQID: 313 claimed protein;4: PN: WO2017151971 SEQID: 4 claimed sequence;Glycine-serine;2: PN: CN107245105 SEQID: 6 claimed protein;10: PN: WO2018022936 SEQID: 145 claimed sequence;40: PN: WO2018075807 SEQID: 96 claimed protein;1: PN: WO2018071777 SEQID: 49 claimed sequence;4: PN: WO2018183671 TABLE: L1 claimed sequence;23: PN: WO2018217564 SEQID: 52 claimed protein;3: PN: US20190062373 SEQID: 3 claimed sequence;43: PN: WO2019094669 SEQID: 44 claimed protein;125: PN: WO2019129221 SEQID: 375 claimed protein;4: PN: WO2019134710 SEQID: 4 claimed sequence;187: PN: WO2019137541 SEQID: 373 claimed protein;15: PN: WO2019144309 SEQID: 18 claimed protein;(2S)-2-[(2-Azaniumylacetyl)amino]-3-hydroxypropanoate;2: PN: CN110144010 PAGE: 2 claimed sequence;350: PN: WO2019185040 SEQID: 369 claimed protein;54: PN: WO2019246392 SEQID: 116 claimed protein;11: PN: WO2020022782 SEQID: 11 claimed protein;34: PN: WO2020048525 SEQID: 42 claimed protein;1: PN: CN110903400 SEQID: 13 claimed sequence;49: PN: WO2020069398 SEQID: 49 claimed protein;1: PN: WO2020076970 PAGE: 258 claimed sequence;8: PN: WO2020074469 SEQID: 17 claimed protein;53: PN: WO2020088645 SEQID: 53 claimed protein;21: PN: WO2020109978 SEQID: 21 claimed protein;3: PN: WO2020113403 TABLE: L1 claimed sequence;21: PN: WO2020135335 SEQID: 32 claimed protein;19: PN: WO2020132810 SEQID: 32 claimed protein;55: PN: WO2020139920 SEQID: 93 claimed protein;2: PN: WO2020135804 PAGE: 42 claimed sequence;7: PN: WO2020191289 PAGE: 118 claimed sequence;3: PN: WO2021037222 SEQID: 19 claimed protein;17: PN: WO2021041934 SEQID: 70 claimed protein;3: PN: WO2021037221 SEQID: 14 claimed protein;4: PN: CN112442493 PAGE: 2 claimed sequence;26: PN: WO2021058563 SEQID: 29 claimed protein;2: PN: WO2021076564 PAGE: 143 claimed sequence;137: PN: WO2021102345 SEQID: 138 claimed protein;17: PN: WO2021143858 SEQID: 43 claimed protein;8: PN: WO2021141118 SEQID: 9 claimed protein;22: PN: WO2021146627 SEQID: 26 claimed protein;7: PN: WO2021160163 SEQID: 7 claimed protein;57: PN: WO2021164701 SEQID: 62 claimed protein;32: PN: WO2021211467 SEQID: 185 claimed sequence;17: PN: WO2021213421 SEQID: 29 claimed protein;8: PN: US20210395396 SEQID: 17 claimed protein;79: PN: WO2022012683 SEQID: 79 claimed protein;108: PN: WO2022012682 SEQID: 108 claimed protein;134: PN: WO2022012680 SEQID: 134 claimed protein;77: PN: WO2022010798 SEQID: 77 claimed protein;270: PN: WO2022012639 SEQID: 334 claimed protein;2: PN: US20220042062 PAGE: 205 claimed sequence;26: PN: WO2022032660 SEQID: 26 claimed protein;1: PN: WO2022081765 SEQID: 7 claimed protein;5: PN: WO2022099157 PAGE: 113 claimed sequence;1: PN: WO2022120286 PAGE: 70 claimed sequence;1: PN: WO2022135469 PAGE: 70 claimed sequence;256: PN: WO2022125673 SEQID: 256 claimed protein;1: PN: WO2022144812 SEQID: 1 claimed protein;6: PN: WO2022143516 SEQID: 144 claimed protein;41: PN: WO2022159984 SEQID: 49 claimed protein;1: PN: WO2022162428 PAGE: 38 claimed sequence;21: PN: WO2022174114 SEQID: 23 claimed protein;48: PN: WO2022171068 SEQID: 50 claimed protein;93: PN: WO2022187272 SEQID: 93 claimed protein;1: PN: WO2022202947 PAGE: 79 claimed sequence;29: PN: WO2022200442 SEQID: 29 claimed protein;19: PN: WO2022212845 SEQID: 19 claimed protein;150: PN: WO2022232321 SEQID: 150 claimed protein;1: PN: WO2022232044 PAGE: 92 claimed sequence;8: PN: WO2022235072 SEQID: 8 claimed protein;5: PN: WO2022235295 SEQID: 105 claimed protein;109: PN: WO2022247826 SEQID: 157 claimed protein;12: PN: WO2022242682 SEQID: 16 claimed sequence;76: PN: WO2022242679 SEQID: 239 claimed protein;34: PN: WO2022262749 SEQID: 120 claimed protein;1: PN: WO2023281482 PAGE: 122 claimed sequence;159: PN: WO2023283092 SEQID: 286 claimed protein;2: PN: WO2023044306 PAGE: 118 claimed sequence;1: PN: WO2023045361 PAGE: 37 claimed sequence;1: PN: WO2023051798 PAGE: 63 claimed sequence;2: PN: WO2023064923 SEQID: 501 claimed sequence;2: PN: WO2023077156 SEQID: 21 claimed sequence;2: PN: WO2023077152 SEQID: 19 claimed sequence;1: PN: WO2023088295 PAGE: 40 claimed sequence;2: PN: WO2023125974 PAGE: 36 claimed sequence;1: PN: WO2023141590 SEQID: 7 claimed sequence;1: PN: WO2023168426 PAGE: 429 claimed sequence;1: PN: WO2023182858 PAGE: 24 claimed sequence;36: PN: WO2023241653 SEQID: 44 claimed sequence;1: PN: WO2024006532 SEQID: 5 claimed sequence;14: PN: WO2024008177 SEQID: 14 claimed protein;1: PN: WO2024017103 PAGE: 18 claimed sequence;1: PN: WO2024061188 PAGE: 102 claimed sequence;1: PN: WO2024061239 PAGE: 109 claimed sequence;3: PN: WO2024068760 SEQID: 29 claimed sequence;3: PN: WO2024080304 PAGE: 283 claimed sequence",
    "duplicated_cas_no": "",
    "SMILES": "[C@@H](NC(CN)=O)(C(O)=O)CO",
    "meta_data": {
        "InChI": "InChI=1S/C5H10N2O4/c6-1-4(9)7-3(2-8)5(10)11/h3,8H,1-2,6H2,(H,7,9)(H,10,11)/t3-/m0/s1",
        "InChIKey": null,
        "Canonical SMILES": "O=C(O)C(NC(=O)CN)CO",
        "Molecular Formula": "C<sub>5</sub>H<sub>10</sub>N<sub>2</sub>O<sub>4</sub>",
        "Molecular Mass": "162.14",
        "Melting Point": "201-202 °C"
    }
}