{
    "cas_no": "585-99-9",
    "key_name": "Melibiose",
    "cn_name": null,
    "alternate_name": "<span class=\"text-smallcaps\">D</smallcap>-Glucose, 6-<em>O</em>-α-<smallcap>D</span>-galactopyranosyl-;Melibiose;6-<em>O</em>-α-<span class=\"text-smallcaps\">D</smallcap>-Galactopyranosyl-<smallcap>D</span>-glucose;<span class=\"text-smallcaps\">D</span>-Melibiose;NSC 2028;<span class=\"text-smallcaps\">D</span>-(+)-Melibiose;MeSH ID: D008553",
    "duplicated_cas_no": "",
    "SMILES": "O(C[C@H]([C@H]([C@@H]([C@H](C=O)O)O)O)O)[C@H]1O[C@H](CO)[C@H](O)[C@H](O)[C@H]1O",
    "meta_data": {
        "InChI": "InChI=1S/C12H22O11/c13-1-4(15)7(17)8(18)5(16)3-22-12-11(21)10(20)9(19)6(2-14)23-12/h1,4-12,14-21H,2-3H2/t4-,5+,6+,7+,8+,9-,10-,11+,12-/m0/s1",
        "InChIKey": null,
        "Canonical SMILES": "O=CC(O)C(O)C(O)C(O)COC1OC(CO)C(O)C(O)C1O",
        "Molecular Formula": "C<sub>12</sub>H<sub>22</sub>O<sub>11</sub>",
        "Molecular Mass": "342.30",
        "Melting Point": "84 °C"
    }
}