{
    "cas_no": "19227-13-5",
    "key_name": "4-Methylbenzamidoxime",
    "cn_name": "4-甲基苯甲酰胺肟;N-羟基-4-甲基苯甲脒;N-羟基-4-甲基苄脒;",
    "alternate_name": "Benzenecarboximidamide, <em>N</em>-hydroxy-4-methyl-;<em>p</em>-Toluamidoxime;<em>N</em>-Hydroxy-4-methylbenzenecarboximidamide;4-Methylbenzamidoxime;<em>p</em>-Tolamidoxime;<em>p</em>-Methylbenzamidoxime;<em>p</em>-Toluamide oxime;<em>p</em>-Tolylamidoxime;<em>N</em>-Hydroxy-4-methylbenzamidine;4-Methyl-<em>N</em>-hydroxybenzamidine;<em>N</em>′-Hydroxy-4-methylbenzamidine;<em>N</em>′-Hydroxy-4-methylbenzenecarboximidamide;4-Methylbenzamide oxime;<em>N</em>′-Hydroxy-4-methylbenzimidamide;<em>N</em>-Hydroxy-4-methylbenzimidamide",
    "duplicated_cas_no": "",
    "SMILES": "C(NO)(=N)C1=CC=C(C)C=C1",
    "meta_data": {
        "InChI": "InChI=1S/C8H10N2O/c1-6-2-4-7(5-3-6)8(9)10-11/h2-5,11H,1H3,(H2,9,10)",
        "InChIKey": null,
        "Canonical SMILES": "N=C(NO)C1=CC=C(C=C1)C",
        "Molecular Formula": "C<sub>8</sub>H<sub>10</sub>N<sub>2</sub>O",
        "Molecular Mass": "150.18",
        "Melting Point": "148-149 °C"
    }
}