{
    "cas_no": "3194-15-8",
    "key_name": "2-Propionylfuran",
    "cn_name": "2-丙酰呋喃;",
    "alternate_name": "1-Propanone, 1-(2-furanyl)-;1-Propanone, 1-(2-furyl)-;1-(2-Furanyl)-1-propanone;2-Propionylfuran;Ethyl 2-furyl ketone;2-Furyl ethyl ketone;1-(2-Furyl)-1-propanone;NSC 27357",
    "duplicated_cas_no": "",
    "SMILES": "C(CC)(=O)C1=CC=CO1",
    "meta_data": {
        "InChI": "InChI=1S/C7H8O2/c1-2-6(8)7-4-3-5-9-7/h3-5H,2H2,1H3",
        "InChIKey": null,
        "Canonical SMILES": "O=C(C=1OC=CC1)CC",
        "Molecular Formula": "C<sub>7</sub>H<sub>8</sub>O<sub>2</sub>",
        "Molecular Mass": "124.14",
        "Boiling Point": "86.2 °C @ Press: 20 Torr",
        "Melting Point": "28 °C",
        "Density": "1.0587 g/cm³ @ Temp: 29.5 °C"
    }
}