{
    "cas_no": "28460-01-7",
    "key_name": "Diethyl <em>P</em>-[(methylthio)methyl]phosphonate",
    "cn_name": "甲硫甲基磷酸二乙酯;",
    "alternate_name": "Phosphonic acid, <em>P</em>-[(methylthio)methyl]-, diethyl ester;Phosphonic acid, [(methylthio)methyl]-, diethyl ester;Diethyl <em>P</em>-[(methylthio)methyl]phosphonate;Diethyl [(methylthio)methyl]phosphonate;Diethyl (methylthio)methanephosphonate;[(Methylthio)methyl]phosphonic acid diethyl ester;1-[Ethoxy(methylsulfanylmethyl)phosphoryl]oxyethane",
    "duplicated_cas_no": "",
    "SMILES": "P(CSC)(OCC)(OCC)=O",
    "meta_data": {
        "InChI": "InChI=1S/C6H15O3PS/c1-4-8-10(7,6-11-3)9-5-2/h4-6H2,1-3H3",
        "InChIKey": null,
        "Canonical SMILES": "O=P(OCC)(OCC)CSC",
        "Molecular Formula": "C<sub>6</sub>H<sub>15</sub>O<sub>3</sub>PS",
        "Molecular Mass": "198.22",
        "Boiling Point": "119-120 °C @ Press: 10 Torr",
        "Density": "1.13232 g/cm³ @ Temp: 20 °C"
    }
}