{
    "cas_no": "22352-19-8",
    "key_name": "β-<span class=\"text-smallcaps\">D</smallcap>-Glucopyranose, 4-<em>O</em>-(2,3,4,6-tetra-<em>O</em>-acetyl-α-<smallcap>D</span>-glucopyranosyl)-, 1,2,3,6-tetraacetate",
    "cn_name": "beta-D-麦芽糖八乙酸酯;",
    "alternate_name": "β-<span class=\"text-smallcaps\">D</smallcap>-Glucopyranose, 4-<em>O</em>-(2,3,4,6-tetra-<em>O</em>-acetyl-α-<smallcap>D</span>-glucopyranosyl)-, 1,2,3,6-tetraacetate;Maltose, octaacetate, β-;β-<span class=\"text-smallcaps\">D</smallcap>-Glucopyranose, 4-<em>O</em>-(2,3,4,6-tetra-<em>O</em>-acetyl-α-<smallcap>D</span>-glucopyranosyl)-, tetraacetate;β-Maltose octaacetate;Octaacetyl-β-maltose;β-<span class=\"text-smallcaps\">D</span>-Maltopyranose octaacetate;Octa-<em>O</em>-acetyl-β-<span class=\"text-smallcaps\">D</span>-maltose;NSC 1351;Octa-<em>O</em>-acetyl-β-maltose;β-<span class=\"text-smallcaps\">D</span>-Maltose octaacetate;β-Maltose peracetate",
    "duplicated_cas_no": "1195513-03-1;1194788-43-6",
    "SMILES": "O([C@H]1[C@H](OC(C)=O)[C@@H](OC(C)=O)[C@H](OC(C)=O)O[C@@H]1COC(C)=O)[C@@H]2[C@H](OC(C)=O)[C@@H](OC(C)=O)[C@H](OC(C)=O)[C@@H](COC(C)=O)O2",
    "meta_data": {
        "InChI": "InChI=1S/C28H38O19/c1-11(29)37-9-19-21(39-13(3)31)23(40-14(4)32)26(43-17(7)35)28(46-19)47-22-20(10-38-12(2)30)45-27(44-18(8)36)25(42-16(6)34)24(22)41-15(5)33/h19-28H,9-10H2,1-8H3/t19-,20-,21-,22-,23+,24+,25-,26-,27-,28-/m1/s1",
        "InChIKey": null,
        "Canonical SMILES": "O=C(OCC1OC(OC2C(OC(OC(=O)C)C(OC(=O)C)C2OC(=O)C)COC(=O)C)C(OC(=O)C)C(OC(=O)C)C1OC(=O)C)C",
        "Molecular Formula": "C<sub>28</sub>H<sub>38</sub>O<sub>19</sub>",
        "Molecular Mass": "678.59",
        "Boiling Point": "0.200-5 °C @ Press: 1 x 10<sup>-4</sup> Torr",
        "Melting Point": "159-160 °C"
    }
}