{
    "cas_no": "4754-27-2",
    "key_name": "α-Methyl-3-pyridinemethanol",
    "cn_name": null,
    "alternate_name": "3-Pyridinemethanol, α-methyl-;α-Methyl-3-pyridinemethanol;Methyl-3-pyridylcarbinol;1-(3-Pyridyl)ethanol;(±)-1-(3-Pyridyl)ethanol;1-(3-Pyridinyl)ethanol;3-(1-Hydroxyethyl)pyridine;NSC 526489;1-(Pyridin-3-yl)ethan-1-ol",
    "duplicated_cas_no": "10593-35-8",
    "SMILES": "C(C)(O)C=1C=CC=NC1",
    "meta_data": {
        "InChI": "InChI=1S/C7H9NO/c1-6(9)7-3-2-4-8-5-7/h2-6,9H,1H3",
        "InChIKey": null,
        "Canonical SMILES": "OC(C=1C=NC=CC1)C",
        "Molecular Formula": "C<sub>7</sub>H<sub>9</sub>NO",
        "Molecular Mass": "123.15",
        "Boiling Point": "123-125 °C @ Press: 5 Torr"
    }
}