{
    "cas_no": "2243-83-6",
    "key_name": "2-Naphthoyl chloride",
    "cn_name": "2-萘甲酰氯;",
    "alternate_name": "2-Naphthalenecarbonyl chloride;2-Naphthoyl chloride;β-Naphthoyl chloride;β-Naphthalenecarbonyl chloride;2-Naphthoic chloride;2-(Chlorocarbonyl)naphthalene;2-Naphthalenecarboxylic acid chloride;2-Naphthoic acid chloride;NSC 9842;Naphthalen-2-carbonyl chloride",
    "duplicated_cas_no": "",
    "SMILES": "C(Cl)(=O)C1=CC2=C(C=C1)C=CC=C2",
    "meta_data": {
        "InChI": "InChI=1S/C11H7ClO/c12-11(13)10-6-5-8-3-1-2-4-9(8)7-10/h1-7H",
        "InChIKey": null,
        "Canonical SMILES": "O=C(Cl)C=1C=CC=2C=CC=CC2C1",
        "Molecular Formula": "C<sub>11</sub>H<sub>7</sub>ClO",
        "Molecular Mass": "190.63",
        "Boiling Point": "305 °C",
        "Melting Point": "51 °C"
    }
}