{
    "cas_no": "3060-50-2",
    "key_name": "2,2-Diphenylglycine",
    "cn_name": "2,2-联苯基氨基乙酸;",
    "alternate_name": "Benzeneacetic acid, α-amino-α-phenyl-;Glycine, 2,2-diphenyl-;α-Amino-α-phenylbenzeneacetic acid;2,2-Diphenylglycine;α-Aminodiphenylacetic acid;α,α-Diphenylglycine;2-Amino-2,2-diphenylacetic acid;NSC 33392;Amino(diphenyl)acetic acid",
    "duplicated_cas_no": "",
    "SMILES": "C(C(O)=O)(N)(C1=CC=CC=C1)C2=CC=CC=C2",
    "meta_data": {
        "InChI": "InChI=1S/C14H13NO2/c15-14(13(16)17,11-7-3-1-4-8-11)12-9-5-2-6-10-12/h1-10H,15H2,(H,16,17)",
        "InChIKey": null,
        "Canonical SMILES": "O=C(O)C(N)(C=1C=CC=CC1)C=2C=CC=CC2",
        "Molecular Formula": "C<sub>14</sub>H<sub>13</sub>NO<sub>2</sub>",
        "Molecular Mass": "227.26",
        "Melting Point": "245 °C"
    }
}