{
    "cas_no": "636-31-7",
    "key_name": "1,2,4,5-Tetraiodobenzene",
    "cn_name": null,
    "alternate_name": "Benzene, 1,2,4,5-tetraiodo-;1,2,4,5-Tetraiodobenzene",
    "duplicated_cas_no": "",
    "SMILES": "IC1=C(I)C=C(I)C(I)=C1",
    "meta_data": {
        "InChI": "InChI=1S/C6H2I4/c7-3-1-4(8)6(10)2-5(3)9/h1-2H",
        "InChIKey": null,
        "Canonical SMILES": "IC=1C=C(I)C(I)=CC1I",
        "Molecular Formula": "C<sub>6</sub>H<sub>2</sub>I<sub>4</sub>",
        "Molecular Mass": "581.70",
        "Melting Point": "254 °C"
    }
}