{
    "cas_no": "1984-58-3",
    "key_name": "1,4-Dichloro-2-methoxybenzene",
    "cn_name": "2,5-二氯苯甲醚;",
    "alternate_name": "Benzene, 1,4-dichloro-2-methoxy-;Anisole, 2,5-dichloro-;1,4-Dichloro-2-methoxybenzene;2,5-Dichloroanisole",
    "duplicated_cas_no": "",
    "SMILES": "O(C)C1=C(Cl)C=CC(Cl)=C1",
    "meta_data": {
        "InChI": "InChI=1S/C7H6Cl2O/c1-10-7-4-5(8)2-3-6(7)9/h2-4H,1H3",
        "InChIKey": null,
        "Canonical SMILES": "ClC1=CC=C(Cl)C(OC)=C1",
        "Molecular Formula": "C<sub>7</sub>H<sub>6</sub>Cl<sub>2</sub>O",
        "Molecular Mass": "177.03",
        "Melting Point": "24 °C"
    }
}