{
    "cas_no": "80866-76-8",
    "key_name": "3-Methyl-2-nitrobenzenemethanol",
    "cn_name": "3-甲基-2-硝基苄醇;",
    "alternate_name": "Benzenemethanol, 3-methyl-2-nitro-;3-Methyl-2-nitrobenzenemethanol;3-Hydroxymethyl-2-nitrotoluene;3-Methyl-2-nitrobenzyl alcohol;(3-Methyl-2-nitrophenyl)methanol;2-Methyl-6-hydroxymethyl-1-nitrobenzene",
    "duplicated_cas_no": "",
    "SMILES": "N(=O)(=O)C1=C(CO)C=CC=C1C",
    "meta_data": {
        "InChI": "InChI=1S/C8H9NO3/c1-6-3-2-4-7(5-10)8(6)9(11)12/h2-4,10H,5H2,1H3",
        "InChIKey": null,
        "Canonical SMILES": "O=N(=O)C=1C(=CC=CC1CO)C",
        "Molecular Formula": "C<sub>8</sub>H<sub>9</sub>NO<sub>3</sub>",
        "Molecular Mass": "167.16",
        "Melting Point": "44-46 °C"
    }
}