{
    "cas_no": "95-77-2",
    "key_name": "3,4-Dichlorophenol",
    "cn_name": "3,4-二氯苯酚;",
    "alternate_name": "Phenol, 3,4-dichloro-;3,4-Dichlorophenol;4,5-Dichlorophenol;NSC 60648",
    "duplicated_cas_no": "",
    "SMILES": "ClC1=C(Cl)C=CC(O)=C1",
    "meta_data": {
        "InChI": "InChI=1S/C6H4Cl2O/c7-5-2-1-4(9)3-6(5)8/h1-3,9H",
        "InChIKey": null,
        "Canonical SMILES": "ClC1=CC=C(O)C=C1Cl",
        "Molecular Formula": "C<sub>6</sub>H<sub>4</sub>Cl<sub>2</sub>O",
        "Molecular Mass": "163.00",
        "Boiling Point": "253 °C",
        "Melting Point": "68 °C"
    }
}