{
    "cas_no": "375-16-6",
    "key_name": "Heptafluorobutyryl chloride",
    "cn_name": "七氟丁酰氯;全氟丁酰氯;",
    "alternate_name": "Butanoyl chloride, 2,2,3,3,4,4,4-heptafluoro-;Butyryl chloride, heptafluoro-;Butanoyl chloride, heptafluoro-;2,2,3,3,4,4,4-Heptafluorobutanoyl chloride;Perfluorobutyryl chloride;Heptafluorobutyryl chloride;Heptafluoro-<em>n</em>-butyryl chloride;Heptafluorobutanoyl chloride;Perfluorobutanoyl chloride;Heptafluorobutyric chloride;Perfluorobutanoic acid chloride",
    "duplicated_cas_no": "",
    "SMILES": "C(C(C(Cl)=O)(F)F)(C(F)(F)F)(F)F",
    "meta_data": {
        "InChI": "InChI=1S/C4ClF7O/c5-1(13)2(6,7)3(8,9)4(10,11)12",
        "InChIKey": null,
        "Canonical SMILES": "O=C(Cl)C(F)(F)C(F)(F)C(F)(F)F",
        "Molecular Formula": "C<sub>4</sub>ClF<sub>7</sub>O",
        "Molecular Mass": "232.48",
        "Boiling Point": "38.5 °C",
        "Density": "1.55 g/cm³ @ Temp: 25 °C"
    }
}