{
    "cas_no": "623-82-5",
    "key_name": "(3<em>R</em>)-3-Methylhexanedioic acid",
    "cn_name": "(R)-(+)-3-甲基己二酸;",
    "alternate_name": "Hexanedioic acid, 3-methyl-, (3<em>R</em>)-;Hexanedioic acid, 3-methyl-, (<em>R</em>)-(+)-;Hexanedioic acid, 3-methyl-, (<em>R</em>)-;(3<em>R</em>)-3-Methylhexanedioic acid;(<em>R</em>)-3-Methyladipic acid;(+)-3-Methyladipic acid;(<em>R</em>)-3-Methyl-1,6-hexanedioic acid;(<em>R</em>)-(+)-3-Methyladipic acid;R-(+)-3-Methyladipic acid;(<em>R</em>)-3-Methylcyclohexanedicarboxylic acid",
    "duplicated_cas_no": "",
    "SMILES": "[C@@H](CCC(O)=O)(CC(O)=O)C",
    "meta_data": {
        "InChI": "InChI=1S/C7H12O4/c1-5(4-7(10)11)2-3-6(8)9/h5H,2-4H2,1H3,(H,8,9)(H,10,11)/t5-/m1/s1",
        "InChIKey": null,
        "Canonical SMILES": "O=C(O)CCC(C)CC(=O)O",
        "Molecular Formula": "C<sub>7</sub>H<sub>12</sub>O<sub>4</sub>",
        "Molecular Mass": "160.17",
        "Melting Point": "84.6-85.6 °C"
    }
}