{
    "cas_no": "596-38-3",
    "key_name": "9-Phenylxanthen-9-ol",
    "cn_name": null,
    "alternate_name": "9<em>H</em>-Xanthen-9-ol, 9-phenyl-;Xanthen-9-ol, 9-phenyl-;9-Phenyl-9<em>H</em>-xanthen-9-ol;9-Phenylxanthen-9-ol;9-Hydroxy-9-phenylxanthene;NSC 16331",
    "duplicated_cas_no": "",
    "SMILES": "OC1(C=2C(OC=3C1=CC=CC3)=CC=CC2)C4=CC=CC=C4",
    "meta_data": {
        "InChI": "InChI=1S/C19H14O2/c20-19(14-8-2-1-3-9-14)15-10-4-6-12-17(15)21-18-13-7-5-11-16(18)19/h1-13,20H",
        "InChIKey": null,
        "Canonical SMILES": "OC1(C=2C=CC=CC2)C=3C=CC=CC3OC=4C=CC=CC41",
        "Molecular Formula": "C<sub>19</sub>H<sub>14</sub>O<sub>2</sub>",
        "Molecular Mass": "274.31",
        "Melting Point": "158-159 °C"
    }
}