{
    "cas_no": "5469-69-2",
    "key_name": "3-Amino-6-chloropyridazine",
    "cn_name": "3-氨基-6-氯哒嗪;",
    "alternate_name": "3-Pyridazinamine, 6-chloro-;Pyridazine, 3-amino-6-chloro-;6-Chloro-3-pyridazinamine;3-Amino-6-chloropyridazine;6-Amino-3-chloropyridazine;6-Chloropyridazin-3-amine;NSC 25227;(6-Chloropyridazin-3-yl)amine;6-Chloro-3-aminopyridazine;2-Amino-6-chloro-Pyridazine",
    "duplicated_cas_no": "",
    "SMILES": "ClC1=CC=C(N)N=N1",
    "meta_data": {
        "InChI": "InChI=1S/C4H4ClN3/c5-3-1-2-4(6)8-7-3/h1-2H,(H2,6,8)",
        "InChIKey": null,
        "Canonical SMILES": "ClC1=NN=C(N)C=C1",
        "Molecular Formula": "C<sub>4</sub>H<sub>4</sub>ClN<sub>3</sub>",
        "Molecular Mass": "129.55",
        "Melting Point": "213-214 °C (decomp)"
    }
}