{
    "cas_no": "96-14-0",
    "key_name": "3-Methylpentane",
    "cn_name": "3-甲基戊烷;3-甲基戊烷;",
    "alternate_name": "Pentane, 3-methyl-;3-Methylpentane;NSC 66497",
    "duplicated_cas_no": "",
    "SMILES": "C(CC)(CC)C",
    "meta_data": {
        "InChI": "InChI=1S/C6H14/c1-4-6(3)5-2/h6H,4-5H2,1-3H3",
        "InChIKey": null,
        "Canonical SMILES": "CCC(C)CC",
        "Molecular Formula": "C<sub>6</sub>H<sub>14</sub>",
        "Molecular Mass": "86.18",
        "Boiling Point": "63.282 °C",
        "Melting Point": "-118 °C",
        "Density": "0.65976 g/cm³ @ Temp: 25 °C"
    }
}