{
    "cas_no": "83088-26-0",
    "key_name": "4-[(1<em>E</em>)-2-(3,5-Dimethoxyphenyl)ethenyl]-1,2-dimethoxybenzene",
    "cn_name": null,
    "alternate_name": "Benzene, 4-[(1<em>E</em>)-2-(3,5-dimethoxyphenyl)ethenyl]-1,2-dimethoxy-;Benzene, 4-[2-(3,5-dimethoxyphenyl)ethenyl]-1,2-dimethoxy-, (<em>E</em>)-;4-[(1<em>E</em>)-2-(3,5-Dimethoxyphenyl)ethenyl]-1,2-dimethoxybenzene;3,5,3′,4′-Tetramethoxypiceatannol",
    "duplicated_cas_no": "",
    "SMILES": "C(=C/C1=CC(OC)=CC(OC)=C1)\\C2=CC(OC)=C(OC)C=C2",
    "meta_data": {
        "InChI": "InChI=1S/C18H20O4/c1-19-15-9-14(10-16(12-15)20-2)6-5-13-7-8-17(21-3)18(11-13)22-4/h5-12H,1-4H3/b6-5+",
        "InChIKey": null,
        "Canonical SMILES": "O(C=1C=C(OC)C=C(C=CC2=CC=C(OC)C(OC)=C2)C1)C",
        "Molecular Formula": "C<sub>18</sub>H<sub>20</sub>O<sub>4</sub>",
        "Molecular Mass": "300.35",
        "Melting Point": "66-67 °C"
    }
}