{
    "cas_no": "22781-23-3",
    "key_name": "Bendiocarb",
    "cn_name": "恶虫威;苯究卡白;2，3-(异丙叉二氧)苯基甲基氨基甲酸酯;",
    "alternate_name": "1,3-Benzodioxol-4-ol, 2,2-dimethyl-, 4-(<em>N</em>-methylcarbamate);Carbamic acid, methyl-, 2,3-(isopropylidenedioxy)phenyl ester;1,3-Benzodioxol-4-ol, 2,2-dimethyl-, methylcarbamate;Phenol, 2,3-(isopropylidenedioxy)-, methylcarbamate;NC 6897;Fisons NC 6897;Bendiocarb;Ficam;Ficam 80W;2,2-Dimethyl-1,3-benzodioxol-4-yl <em>N</em>-methylcarbamate;2,2-Dimethyl-1,3-benzodioxol-4-yl methylcarbamate;Ficam W;Garvox;Niomil;Bencarbate;Tatoo;Seedox;Seedox 80W;Seedox (insecticide);Turcam;Tattoo;Dycarb;Multamat;Ficam D",
    "duplicated_cas_no": "61533-57-1",
    "SMILES": "O(C(NC)=O)C1=C2C(OC(C)(C)O2)=CC=C1",
    "meta_data": {
        "InChI": "InChI=1S/C11H13NO4/c1-11(2)15-8-6-4-5-7(9(8)16-11)14-10(13)12-3/h4-6H,1-3H3,(H,12,13)",
        "InChIKey": null,
        "Canonical SMILES": "O=C(OC1=CC=CC=2OC(OC12)(C)C)NC",
        "Molecular Formula": "C<sub>11</sub>H<sub>13</sub>NO<sub>4</sub>",
        "Molecular Mass": "223.23",
        "Melting Point": "129-130 °C",
        "Density": "0.69 g/cm³ @ Temp: 20 °C"
    }
}