{
    "cas_no": "14282-76-9",
    "key_name": "2-Bromo-3-methylthiophene",
    "cn_name": "2-溴-3-甲基噻吩;",
    "alternate_name": "Thiophene, 2-bromo-3-methyl-;2-Bromo-3-methylthiophene;5-Bromo-4-methylthiophene",
    "duplicated_cas_no": "",
    "SMILES": "CC1=C(Br)SC=C1",
    "meta_data": {
        "InChI": "InChI=1S/C5H5BrS/c1-4-2-3-7-5(4)6/h2-3H,1H3",
        "InChIKey": null,
        "Canonical SMILES": "BrC=1SC=CC1C",
        "Molecular Formula": "C<sub>5</sub>H<sub>5</sub>BrS",
        "Molecular Mass": "177.06",
        "Boiling Point": "176 °C",
        "Melting Point": "&lt;25 °C",
        "Density": "1.571 g/cm³ @ Temp: 20 °C"
    }
}