{
    "cas_no": "80474-14-2",
    "key_name": "Fluticasone propionate",
    "cn_name": "氟替卡松丙酸酯;(6a,11B,16a,17a)-6,9-二氟-11-羟-16-甲基-3-氧代-17-(1-氧代丙氧基)-雄甾-1,4-二烯-17-硫;",
    "alternate_name": "Androsta-1,4-diene-17-carbothioic acid, 6,9-difluoro-11-hydroxy-16-methyl-3-oxo-17-(1-oxopropoxy)-, <em>S</em>-(fluoromethyl) ester, (6α,11β,16α,17α)-;Fluticasone propionate;Fluticasone 17-propionate;Flixotide;Flutide;Flutide N;Flixonase;Flovent Diskus;Flovent;Cutivate cream;Flonase;Flunase;Flutivate;Flixotide Disks;Flixotide Disk;Flixotide Inhaler;Zoflut;Atemur Mite;Cutivate;Flixonase Nasal Spray;Flonase Aq;CCI 18781;Cyclesonide;Fluticone;Axotide;Flovent Rotadisk;Rotadisk;F 9428",
    "duplicated_cas_no": "",
    "SMILES": "O(C(CC)=O)[C@@]1(C(SCF)=O)[C@]2(C)[C@@](C[C@H]1C)([C@]3([C@](F)([C@@H](O)C2)[C@]4(C)C([C@@H](F)C3)=CC(=O)C=C4)[H])[H]",
    "meta_data": {
        "InChI": "InChI=1S/C25H31F3O5S/c1-5-20(31)33-25(21(32)34-12-26)13(2)8-15-16-10-18(27)17-9-14(29)6-7-22(17,3)24(16,28)19(30)11-23(15,25)4/h6-7,9,13,15-16,18-19,30H,5,8,10-12H2,1-4H3/t13-,15+,16+,18+,19+,22+,23+,24+,25+/m1/s1",
        "InChIKey": null,
        "Canonical SMILES": "O=C1C=CC2(C(=C1)C(F)CC3C4CC(C)C(OC(=O)CC)(C(=O)SCF)C4(C)CC(O)C32F)C",
        "Molecular Formula": "C<sub>25</sub>H<sub>31</sub>F<sub>3</sub>O<sub>5</sub>S",
        "Molecular Mass": "500.57",
        "Melting Point": "272-273 °C (decomp)",
        "Density": "1.3 g/cm³ (approx)"
    }
}