{
    "cas_no": "557-11-9",
    "key_name": "Allylurea",
    "cn_name": "烯丙基脲;",
    "alternate_name": "Urea, <em>N</em>-2-propen-1-yl-;Urea, allyl-;Urea, 2-propenyl-;<em>N</em>-2-Propen-1-ylurea;Allylcarbamide;Monoallylurea;Allylurea;1-Allylurea;<em>N</em>-2-Propenylurea;<em>N</em>-Allylurea;NSC 136617;NSC 7607;1-(2-Propenyl)urea;(Prop-2-en-1-yl)urea",
    "duplicated_cas_no": "",
    "SMILES": "N(C(N)=O)CC=C",
    "meta_data": {
        "InChI": "InChI=1S/C4H8N2O/c1-2-3-6-4(5)7/h2H,1,3H2,(H3,5,6,7)",
        "InChIKey": null,
        "Canonical SMILES": "O=C(N)NCC=C",
        "Molecular Formula": "C<sub>4</sub>H<sub>8</sub>N<sub>2</sub>O",
        "Molecular Mass": "100.12",
        "Melting Point": "85 °C"
    }
}