{
    "cas_no": "25954-44-3",
    "key_name": "Gentianose",
    "cn_name": "龙胆三糖;",
    "alternate_name": "α-<span class=\"text-smallcaps\">D</smallcap>-Glucopyranoside, β-<smallcap>D</smallcap>-fructofuranosyl <em>O</em>-β-<smallcap>D</span>-glucopyranosyl-(1→6)-;Gentianose;β-<span class=\"text-smallcaps\">D</smallcap>-Fructofuranosyl <em>O</em>-β-<smallcap>D</smallcap>-glucopyranosyl-(1→6)-α-<smallcap>D</span>-glucopyranoside",
    "duplicated_cas_no": "127350-38-3;172657-41-9",
    "SMILES": "O([C@]1(CO)O[C@H](CO)[C@@H](O)[C@@H]1O)[C@H]2O[C@H](CO[C@@H]3O[C@H](CO)[C@@H](O)[C@H](O)[C@H]3O)[C@@H](O)[C@H](O)[C@H]2O",
    "meta_data": {
        "InChI": "InChI=1S/C18H32O16/c19-1-5-8(22)11(25)13(27)16(31-5)30-3-7-9(23)12(26)14(28)17(32-7)34-18(4-21)15(29)10(24)6(2-20)33-18/h5-17,19-29H,1-4H2/t5-,6-,7-,8-,9-,10-,11+,12+,13-,14-,15+,16-,17-,18+/m1/s1",
        "InChIKey": null,
        "Canonical SMILES": "OCC1OC(OCC2OC(OC3(OC(CO)C(O)C3O)CO)C(O)C(O)C2O)C(O)C(O)C1O",
        "Molecular Formula": "C<sub>18</sub>H<sub>32</sub>O<sub>16</sub>",
        "Molecular Mass": "504.44",
        "Melting Point": "207-209 °C"
    }
}