{
    "cas_no": "6000-43-7",
    "key_name": "Aminoacetic acid hydrochloride",
    "cn_name": "甘氨酸盐酸盐;",
    "alternate_name": "Glycine, hydrochloride (1:1);Glycine, hydrochloride;Glycocoll hydrochloride;Aminoacetic acid hydrochloride;Carboxymethanaminium chloride",
    "duplicated_cas_no": "",
    "SMILES": "C(CN)(O)=O.Cl",
    "meta_data": {
        "InChI": "InChI=1S/C2H5NO2.ClH/c3-1-2(4)5;/h1,3H2,(H,4,5);1H",
        "InChIKey": null,
        "Canonical SMILES": "Cl.O=C(O)CN",
        "Molecular Formula": "C<sub>2</sub>H<sub>5</sub>NO<sub>2</sub>.ClH",
        "Molecular Mass": "",
        "Melting Point": "178 °C"
    }
}