{
    "cas_no": "2103-99-3",
    "key_name": "4-(4-Chlorophenyl)-2-thiazolamine",
    "cn_name": "2-氨基-4-(4-氯苯基)噻唑;",
    "alternate_name": "2-Thiazolamine, 4-(4-chlorophenyl)-;Thiazole, 2-amino-4-(<em>p</em>-chlorophenyl)-;4-(4-Chlorophenyl)-2-thiazolamine;2-Amino-4-(<em>p</em>-chlorophenyl)thiazole;4-(<em>p</em>-Chlorophenyl)-2-aminothiazole;2-Amino-4-(4-chlorophenyl)thiazole;T 157602;4-(4′-Chlorophenyl)-2-aminothiazole;NSC 372682;4-(4-Chlorophenyl)thiazol-2-amine;4-(4-Chlorophenyl)thiazol-2-ylamine;4-(4-Chlorophenyl)-1,3-thiazol-2-amine;4-(4-Chlorophenyl)-2-aminothiazole",
    "duplicated_cas_no": "",
    "SMILES": "NC1=NC(C2=CC=C(Cl)C=C2)=CS1",
    "meta_data": {
        "InChI": "InChI=1S/C9H7ClN2S/c10-7-3-1-6(2-4-7)8-5-13-9(11)12-8/h1-5H,(H2,11,12)",
        "InChIKey": null,
        "Canonical SMILES": "ClC=1C=CC(=CC1)C=2N=C(SC2)N",
        "Molecular Formula": "C<sub>9</sub>H<sub>7</sub>ClN<sub>2</sub>S",
        "Molecular Mass": "210.68",
        "Melting Point": "163-164 °C"
    }
}