{
    "cas_no": "541-85-5",
    "key_name": "5-Methyl-3-heptanone",
    "cn_name": "5-甲基-3-庚酮;乙基另戊基甲酮;",
    "alternate_name": "3-Heptanone, 5-methyl-;5-Methyl-3-heptanone;3-Methyl-5-heptanone;Ethyl 2-methylbutyl ketone;2-Methylbutyl ethyl ketone;(±)-5-Methyl-3-heptanone;NSC 100734",
    "duplicated_cas_no": "57968-70-4",
    "SMILES": "C(C(CC)C)C(CC)=O",
    "meta_data": {
        "InChI": "InChI=1S/C8H16O/c1-4-7(3)6-8(9)5-2/h7H,4-6H2,1-3H3",
        "InChIKey": null,
        "Canonical SMILES": "O=C(CC)CC(C)CC",
        "Molecular Formula": "C<sub>8</sub>H<sub>16</sub>O",
        "Molecular Mass": "128.21",
        "Boiling Point": "157-162 °C",
        "Melting Point": "-56.7 °C",
        "Density": "0.82 g/cm³"
    }
}