{
    "cas_no": "26452-97-1",
    "key_name": "2,3-Dihydro-1<em>H</em>-indene-1-carbonitrile",
    "cn_name": null,
    "alternate_name": "1<em>H</em>-Indene-1-carbonitrile, 2,3-dihydro-;1-Indancarbonitrile;2,3-Dihydro-1<em>H</em>-indene-1-carbonitrile;1-Cyanoindan",
    "duplicated_cas_no": "132205-63-1",
    "SMILES": "C(#N)C1C=2C(CC1)=CC=CC2",
    "meta_data": {
        "InChI": "InChI=1S/C10H9N/c11-7-9-6-5-8-3-1-2-4-10(8)9/h1-4,9H,5-6H2",
        "InChIKey": null,
        "Canonical SMILES": "N#CC1C=2C=CC=CC2CC1",
        "Molecular Formula": "C<sub>10</sub>H<sub>9</sub>N",
        "Molecular Mass": "143.19",
        "Boiling Point": "108-109 °C @ Press: 0.7 Torr"
    }
}