{
    "cas_no": "24327-08-0",
    "key_name": "<em>rel</em>-(3a<em>R</em>,4<em>S</em>,7<em>R</em>,7a<em>S</em>)-3a,4,7,7a-Tetrahydro-4,7-ethanoisobenzofuran-1,3-dione",
    "cn_name": "endo-二环[2.2.2]辛基-5-烯-2,3-二羧酸酸酐;",
    "alternate_name": "4,7-Ethanoisobenzofuran-1,3-dione, 3a,4,7,7a-tetrahydro-, (3a<em>R</em>,4<em>S</em>,7<em>R</em>,7a<em>S</em>)-<em>rel</em>-;Bicyclo[2.2.2]oct-5-ene-2,3-dicarboxylic anhydride, <em>cis</em>-<em>endo</em>-;4,7-Ethanoisobenzofuran-1,3-dione, 3a,4,7,7a-tetrahydro-, (3aα,4α,7α,7aα)-;<em>rel</em>-(3a<em>R</em>,4<em>S</em>,7<em>R</em>,7a<em>S</em>)-3a,4,7,7a-Tetrahydro-4,7-ethanoisobenzofuran-1,3-dione;Bicyclo[2.2.2]octene-2,3-<em>endo</em>-dicarboxylic anhydride;<em>endo</em>-Bicyclo[2.2.2]octenedicarboxylic acid anhydride;<em>endo</em>-Bicyclo[2.2.2]oct-5-ene-2,3-dicarboxylic anhydride;NSC 238003;<em>cis</em>-<em>endo</em>-[2.2.2]Oct-5-ene-2,3-dicarboxylic anhydride",
    "duplicated_cas_no": "3769-14-0;841234-99-9",
    "SMILES": "O=C1[C@@]2([C@@]([C@@]3(C=C[C@]2(CC3)[H])[H])(C(=O)O1)[H])[H]",
    "meta_data": {
        "InChI": "InChI=1/C10H10O3/c11-9-7-5-1-2-6(4-3-5)8(7)10(12)13-9/h1-2,5-8H,3-4H2/t5-,6+,7-,8+",
        "InChIKey": null,
        "Canonical SMILES": "O=C1OC(=O)C2C3C=CC(CC3)C12",
        "Molecular Formula": "C<sub>10</sub>H<sub>10</sub>O<sub>3</sub>",
        "Molecular Mass": "178.18",
        "Melting Point": "146 °C"
    }
}