{
    "cas_no": "1086-00-6",
    "key_name": "1-(Chloromethyl)pyrene",
    "cn_name": "1-氯甲基芘;1-氯甲基芘;",
    "alternate_name": "Pyrene, 1-(chloromethyl)-;1-(Chloromethyl)pyrene;3-(Chloromethyl)pyrene;1-Pyrenylmethyl chloride;NSC 133487",
    "duplicated_cas_no": "",
    "SMILES": "C(Cl)C1=C2C3=C4C(C=C2)=CC=CC4=CC=C3C=C1",
    "meta_data": {
        "InChI": "InChI=1S/C17H11Cl/c18-10-14-7-6-13-5-4-11-2-1-3-12-8-9-15(14)17(13)16(11)12/h1-9H,10H2",
        "InChIKey": null,
        "Canonical SMILES": "ClCC1=CC=C2C=CC3=CC=CC=4C=CC1=C2C34",
        "Molecular Formula": "C<sub>17</sub>H<sub>11</sub>Cl",
        "Molecular Mass": "250.72",
        "Melting Point": "144-145 °C"
    }
}