{
    "cas_no": "34915-68-9",
    "key_name": "(±)-Bunitrolol",
    "cn_name": null,
    "alternate_name": "Benzonitrile, 2-[3-[(1,1-dimethylethyl)amino]-2-hydroxypropoxy]-;2-[3-[(1,1-Dimethylethyl)amino]-2-hydroxypropoxy]benzonitrile;1-<em>tert</em>-Butylamino-3-(2-cyanophenoxy)-2-propanol;1-<em>tert</em>-Butylamino-3-(2-nitrilophenoxy)-2-propanol;Bunitrolol;1-(2-Cyanophenoxy)-2-hydroxy-3-<em>tert</em>-butylaminopropane;<em>dl</em>-Bunitrolol;(±)-Bunitrolol;2-[3-(<em>tert</em>-Butylamino)-2-hydroxypropoxy]benzonitrile",
    "duplicated_cas_no": "83073-79-4",
    "SMILES": "O(CC(CNC(C)(C)C)O)C1=C(C#N)C=CC=C1",
    "meta_data": {
        "InChI": "InChI=1S/C14H20N2O2/c1-14(2,3)16-9-12(17)10-18-13-7-5-4-6-11(13)8-15/h4-7,12,16-17H,9-10H2,1-3H3",
        "InChIKey": null,
        "Canonical SMILES": "N#CC=1C=CC=CC1OCC(O)CNC(C)(C)C",
        "Molecular Formula": "C<sub>14</sub>H<sub>20</sub>N<sub>2</sub>O<sub>2</sub>",
        "Molecular Mass": "248.32",
        "Melting Point": "163-165 °C"
    }
}