{
    "cas_no": "611-17-6",
    "key_name": "2-Chlorobenzyl bromide",
    "cn_name": "2-氯苄溴;邻氯溴苄;",
    "alternate_name": "Benzene, 1-(bromomethyl)-2-chloro-;Toluene, α-bromo-<em>o</em>-chloro-;1-(Bromomethyl)-2-chlorobenzene;2-Chlorobenzyl bromide;<em>o</em>-Chlorobenzyl bromide;α-Bromo-<em>o</em>-chlorotoluene",
    "duplicated_cas_no": "",
    "SMILES": "C(Br)C1=C(Cl)C=CC=C1",
    "meta_data": {
        "InChI": "InChI=1S/C7H6BrCl/c8-5-6-3-1-2-4-7(6)9/h1-4H,5H2",
        "InChIKey": null,
        "Canonical SMILES": "ClC=1C=CC=CC1CBr",
        "Molecular Formula": "C<sub>7</sub>H<sub>6</sub>BrCl",
        "Molecular Mass": "205.48",
        "Boiling Point": "120 °C @ Press: 10 Torr",
        "Melting Point": "83-84 °C"
    }
}