{
    "cas_no": "2973-80-0",
    "key_name": "2-Bromo-5-hydroxybenzaldehyde",
    "cn_name": null,
    "alternate_name": "Benzaldehyde, 2-bromo-5-hydroxy-;2-Bromo-5-hydroxybenzaldehyde;6-Bromo-3-hydroxybenzaldehyde;5-Hydroxy-2-bromobenzaldehyde",
    "duplicated_cas_no": "",
    "SMILES": "C(=O)C1=C(Br)C=CC(O)=C1",
    "meta_data": {
        "InChI": "InChI=1S/C7H5BrO2/c8-7-2-1-6(10)3-5(7)4-9/h1-4,10H",
        "InChIKey": null,
        "Canonical SMILES": "O=CC1=CC(O)=CC=C1Br",
        "Molecular Formula": "C<sub>7</sub>H<sub>5</sub>BrO<sub>2</sub>",
        "Molecular Mass": "201.02",
        "Melting Point": "135 °C"
    }
}