{
    "cas_no": "99880-64-5",
    "key_name": "Glyceryl dibehenate",
    "cn_name": null,
    "alternate_name": "Docosanoic acid, diester with 1,2,3-propanetriol;Glycerin dibehenate;Glycerol didocosanoate;Glyceryl dibehenate;Glycerol dibehenate;Glyceryl didocosanoate;Compritol 888",
    "duplicated_cas_no": "239468-75-8",
    "SMILES": "",
    "meta_data": {
        "InChI": "",
        "InChIKey": null,
        "Canonical SMILES": "",
        "Molecular Formula": "C<sub>47</sub>H<sub>92</sub>O<sub>5</sub>",
        "Molecular Mass": "",
        "Melting Point": "70 °C"
    }
}