{
    "cas_no": "86060-85-7",
    "key_name": "<em>N</em>-[(9<em>H</em>-Fluoren-9-ylmethoxy)carbonyl]glycine 2,3,4,5,6-pentafluorophenyl ester",
    "cn_name": "FMOC-甘氨酸五氟苯酯;",
    "alternate_name": "Glycine, <em>N</em>-[(9<em>H</em>-fluoren-9-ylmethoxy)carbonyl]-, 2,3,4,5,6-pentafluorophenyl ester;Glycine, <em>N</em>-[(9<em>H</em>-fluoren-9-ylmethoxy)carbonyl]-, pentafluorophenyl ester;<em>N</em>-[(9<em>H</em>-Fluoren-9-ylmethoxy)carbonyl]glycine 2,3,4,5,6-pentafluorophenyl ester;<em>N</em>-(Fluorenylmethoxycarbonyl)glycine pentafluorophenyl ester;<em>N</em>-9-Fluorenylmethoxycarbonylglycine pentafluorophenyl ester",
    "duplicated_cas_no": "",
    "SMILES": "C(OC(NCC(OC1=C(F)C(F)=C(F)C(F)=C1F)=O)=O)C2C=3C(C=4C2=CC=CC4)=CC=CC3",
    "meta_data": {
        "InChI": "InChI=1S/C23H14F5NO4/c24-17-18(25)20(27)22(21(28)19(17)26)33-16(30)9-29-23(31)32-10-15-13-7-3-1-5-11(13)12-6-2-4-8-14(12)15/h1-8,15H,9-10H2,(H,29,31)",
        "InChIKey": null,
        "Canonical SMILES": "O=C(OCC1C=2C=CC=CC2C=3C=CC=CC31)NCC(=O)OC=4C(F)=C(F)C(F)=C(F)C4F",
        "Molecular Formula": "C<sub>23</sub>H<sub>14</sub>F<sub>5</sub>NO<sub>4</sub>",
        "Molecular Mass": "463.35",
        "Melting Point": "156.3-157.4 °C"
    }
}