{
    "cas_no": "16879-02-0",
    "key_name": "6-Chloro-2(1<em>H</em>)-pyridinone",
    "cn_name": "6-氯吡啶-2-醇;2-氯-6-羟基吡啶;",
    "alternate_name": "2(1<em>H</em>)-Pyridinone, 6-chloro-;2(1<em>H</em>)-Pyridone, 6-chloro-;6-Chloro-2(1<em>H</em>)-pyridinone;2-Chloro-6-hydroxypyridine;6-Chloro-2-pyridone;6-Chloro-2-pyridinol;6-Chloro-2-hydroxypyridine;6-Chloro-2(1<em>H</em>)-pyridone;2-Hydroxy-6-chloropyridine;2-Chloro-6-pyridinol;6-Chloro-2-pyridinone;NSC 148331;6-Chloro-1,2-dihydropyridin-2-one;6-Chloro-1<em>H</em>-pyridin-2-one",
    "duplicated_cas_no": "17228-61-4",
    "SMILES": "ClC=1NC(=O)C=CC1",
    "meta_data": {
        "InChI": "InChI=1S/C5H4ClNO/c6-4-2-1-3-5(8)7-4/h1-3H,(H,7,8)",
        "InChIKey": null,
        "Canonical SMILES": "O=C1C=CC=C(Cl)N1",
        "Molecular Formula": "C<sub>5</sub>H<sub>4</sub>ClNO",
        "Molecular Mass": "129.54",
        "Melting Point": "128.5-129 °C"
    }
}