{
    "cas_no": "3187-58-4",
    "key_name": "Methyl orsellinate",
    "cn_name": null,
    "alternate_name": "Benzoic acid, 2,4-dihydroxy-6-methyl-, methyl ester;β-Resorcylic acid, 6-methyl-, methyl ester;Methyl <em>o</em>-orsellinate;Methyl orsellinate;Methyl 2,4-dihydroxy-6-methylbenzoate;Orsellinic acid monomethyl ester;Methyl 6-methyl-β-resorcylate;Orsellinic acid methyl ester;Methyl 2,4-hydroxy-6-methylbenzoate;2,4-Dihydroxy-6-methylbenzoic acid methyl ester",
    "duplicated_cas_no": "",
    "SMILES": "C(OC)(=O)C1=C(C)C=C(O)C=C1O",
    "meta_data": {
        "InChI": "InChI=1S/C9H10O4/c1-5-3-6(10)4-7(11)8(5)9(12)13-2/h3-4,10-11H,1-2H3",
        "InChIKey": null,
        "Canonical SMILES": "O=C(OC)C=1C(O)=CC(O)=CC1C",
        "Molecular Formula": "C<sub>9</sub>H<sub>10</sub>O<sub>4</sub>",
        "Molecular Mass": "182.17",
        "Melting Point": "139 °C"
    }
}