{
    "cas_no": "93-42-5",
    "key_name": "Thionalide",
    "cn_name": "丁环四唑;",
    "alternate_name": "Acetamide, 2-mercapto-<em>N</em>-2-naphthalenyl-;Acetamide, 2-mercapto-<em>N</em>-2-naphthyl-;2-Mercapto-<em>N</em>-2-naphthalenylacetamide;Thioglycolic-β-aminonaphthalide;Thionalide;2-Mercapto-<em>N</em>-2-naphthylacetamide;Thiolanilide;<em>N</em>-2-Naphthyl-2-mercaptoacetamide;Thionalid;Thioglycolic acid β-naphthalide;<em>N</em>-(2-Naphthyl)mercaptoacetamide;NSC 7327",
    "duplicated_cas_no": "",
    "SMILES": "N(C(CS)=O)C1=CC2=C(C=C1)C=CC=C2",
    "meta_data": {
        "InChI": "InChI=1S/C12H11NOS/c14-12(8-15)13-11-6-5-9-3-1-2-4-10(9)7-11/h1-7,15H,8H2,(H,13,14)",
        "InChIKey": null,
        "Canonical SMILES": "O=C(NC=1C=CC=2C=CC=CC2C1)CS",
        "Molecular Formula": "C<sub>12</sub>H<sub>11</sub>NOS",
        "Molecular Mass": "217.29",
        "Melting Point": "111.5 °C"
    }
}