{
    "cas_no": "25784-83-2",
    "key_name": "1-[(4-Chlorophenyl)thio]-2-propanone",
    "cn_name": "(4-硫代氯苯基)丙烷-2-酮;",
    "alternate_name": "2-Propanone, 1-[(4-chlorophenyl)thio]-;2-Propanone, 1-[(<em>p</em>-chlorophenyl)thio]-;2-Propanone, (<em>p</em>-chlorophenylthio)-;1-[(4-Chlorophenyl)thio]-2-propanone;<em>p</em>-Chlorophenylthioacetone;1-(4-Chlorophenylthio)-2-propanone;(4-Chlorophenylthio)acetone;NSC 274960;1-[(4-Chlorophenyl)thio]acetone;1-(4-Chlorophenyl)sulfanylpropan-2-one;1-[(4-Chlorophenyl)sulfanyl]propan-2-one",
    "duplicated_cas_no": "",
    "SMILES": "S(CC(C)=O)C1=CC=C(Cl)C=C1",
    "meta_data": {
        "InChI": "InChI=1S/C9H9ClOS/c1-7(11)6-12-9-4-2-8(10)3-5-9/h2-5H,6H2,1H3",
        "InChIKey": null,
        "Canonical SMILES": "O=C(C)CSC1=CC=C(Cl)C=C1",
        "Molecular Formula": "C<sub>9</sub>H<sub>9</sub>ClOS",
        "Molecular Mass": "200.69",
        "Boiling Point": "170-173 °C @ Press: 13 Torr",
        "Melting Point": "31 °C"
    }
}