{
    "cas_no": "5662-95-3",
    "key_name": "8-Oxaspiro[4.5]decane-7,9-dione",
    "cn_name": "3,3-四亚甲基戊二酸酐;环戊烷-1,1-二乙酸酐;",
    "alternate_name": "8-Oxaspiro[4.5]decane-7,9-dione;1,1-Cyclopentanediacetic anhydride;3,3-Tetramethyleneglutaric anhydride;1,1-Cyclopentanediacetic acid anhydride;NSC 78448",
    "duplicated_cas_no": "",
    "SMILES": "O=C1CC2(CC(=O)O1)CCCC2",
    "meta_data": {
        "InChI": "InChI=1S/C9H12O3/c10-7-5-9(3-1-2-4-9)6-8(11)12-7/h1-6H2",
        "InChIKey": null,
        "Canonical SMILES": "O=C1OC(=O)CC2(C1)CCCC2",
        "Molecular Formula": "C<sub>9</sub>H<sub>12</sub>O<sub>3</sub>",
        "Molecular Mass": "168.19",
        "Melting Point": "65.29 °C"
    }
}