{
    "cas_no": "139-87-7",
    "key_name": "<em>N</em>-Ethyldiethanolamine",
    "cn_name": null,
    "alternate_name": "Ethanol, 2,2′-(ethylimino)bis-;Ethanol, 2,2′-(ethylimino)di-;2,2′-(Ethylimino)bis[ethanol];Ethyldiethanolamine;<em>N</em>-Ethyl-2,2′-iminodiethanol;2,2′-(Ethylimino)diethanol;<em>N</em>-Ethyldiethanolamine;Diethanolethylamine;<em>N</em>,<em>N</em>-Bis(2-hydroxyethyl)ethylamine;Ethylbis(2-hydroxyethyl)amine;<em>N</em>-Ethyl-<em>N</em>,<em>N</em>-diethanolamine;2-[Ethyl(2-hydroxyethyl)amino]ethanol;EDEA;Amino Alcohol MED;2,2′-(Ethylazanediyl)diethanol;2-[Ethyl(2-hydroxyethyl)amino]ethan-1-ol",
    "duplicated_cas_no": "",
    "SMILES": "N(CCO)(CCO)CC",
    "meta_data": {
        "InChI": "InChI=1S/C6H15NO2/c1-2-7(3-5-8)4-6-9/h8-9H,2-6H2,1H3",
        "InChIKey": null,
        "Canonical SMILES": "OCCN(CC)CCO",
        "Molecular Formula": "C<sub>6</sub>H<sub>15</sub>NO<sub>2</sub>",
        "Molecular Mass": "133.19",
        "Boiling Point": "247 °C",
        "Melting Point": "-50 °C"
    }
}