{
    "cas_no": "5799-68-8",
    "key_name": "Methanedisulfonyl dichloride",
    "cn_name": "甲烷二磺酰氯;",
    "alternate_name": "Methanedisulfonyl dichloride;Methanedisulfonyl chloride;Methylenedi(sulfonyl chloride);Bis(chlorosulfonyl)methane",
    "duplicated_cas_no": "",
    "SMILES": "C(S(Cl)(=O)=O)S(Cl)(=O)=O",
    "meta_data": {
        "InChI": "InChI=1S/CH2Cl2O4S2/c2-8(4,5)1-9(3,6)7/h1H2",
        "InChIKey": null,
        "Canonical SMILES": "O=S(=O)(Cl)CS(=O)(=O)Cl",
        "Molecular Formula": "CH<sub>2</sub>Cl<sub>2</sub>O<sub>4</sub>S<sub>2</sub>",
        "Molecular Mass": "213.06",
        "Boiling Point": "86-87 °C @ Press: 0.6 Torr"
    }
}