{
    "cas_no": "110-91-8",
    "key_name": "Morpholine",
    "cn_name": "吗啡啉;吗啉;1,4-氧氮杂环己烷;四氢-1,4-噁嗪;1,4-氧氮六环;",
    "alternate_name": "Morpholine;Diethylene imidoxide;Diethylene oximide;Diethylenimide oxide;<em>p</em>-Isoxazine, tetrahydro-;1-Oxa-4-azacyclohexane;2<em>H</em>-1,4-Oxazine, tetrahydro-;4<em>H</em>-1,4-Oxazine, tetrahydro-;Tetrahydro-<em>p</em>-oxazine;Tetrahydro-1,4-oxazine;Tetrahydro-2<em>H</em>-1,4-oxazine;BASF 238;Drewamine;NSC 9376",
    "duplicated_cas_no": "88542-81-8;96122-95-1;99108-56-2;147366-31-2;854893-20-2;1357848-50-0",
    "SMILES": "C1COCCN1",
    "meta_data": {
        "InChI": "InChI=1S/C4H9NO/c1-3-6-4-2-5-1/h5H,1-4H2",
        "InChIKey": null,
        "Canonical SMILES": "O1CCNCC1",
        "Molecular Formula": "C<sub>4</sub>H<sub>9</sub>NO",
        "Molecular Mass": "87.12",
        "Boiling Point": "128.9 °C @ Press: 760 Torr",
        "Melting Point": "-4.9 °C",
        "Density": "1.0007 g/cm³ @ Temp: 20 °C"
    }
}