{
    "cas_no": "1587-20-8",
    "key_name": "Trimethyl citrate",
    "cn_name": "柠檬酸三甲酯;枸橼酸三甲酯;",
    "alternate_name": "1,2,3-Propanetricarboxylic acid, 2-hydroxy-, 1,2,3-trimethyl ester;Citric acid, trimethyl ester;1,2,3-Propanetricarboxylic acid, 2-hydroxy-, trimethyl ester;Trimethyl citrate;NSC 75824;3-Hydroxy-3-methoxycarbonylpentanedioic acid dimethyl ester;1,2,3-Trimethyl 2-hydroxypropane-1,2,3-tricarboxylate",
    "duplicated_cas_no": "",
    "SMILES": "C(CC(OC)=O)(CC(OC)=O)(C(OC)=O)O",
    "meta_data": {
        "InChI": "InChI=1S/C9H14O7/c1-14-6(10)4-9(13,8(12)16-3)5-7(11)15-2/h13H,4-5H2,1-3H3",
        "InChIKey": null,
        "Canonical SMILES": "O=C(OC)CC(O)(C(=O)OC)CC(=O)OC",
        "Molecular Formula": "C<sub>9</sub>H<sub>14</sub>O<sub>7</sub>",
        "Molecular Mass": "234.20",
        "Boiling Point": "285 °C",
        "Melting Point": "79.3 °C"
    }
}