{
    "cas_no": "452-68-6",
    "key_name": "1-Fluoro-4-iodo-2-methylbenzene",
    "cn_name": "2-氟-5-碘甲苯;",
    "alternate_name": "Benzene, 1-fluoro-4-iodo-2-methyl-;Toluene, 2-fluoro-5-iodo-;1-Fluoro-4-iodo-2-methylbenzene;2-Fluoro-5-iodotoluene",
    "duplicated_cas_no": "",
    "SMILES": "CC1=C(F)C=CC(I)=C1",
    "meta_data": {
        "InChI": "InChI=1S/C7H6FI/c1-5-4-6(9)2-3-7(5)8/h2-4H,1H3",
        "InChIKey": null,
        "Canonical SMILES": "FC1=CC=C(I)C=C1C",
        "Molecular Formula": "C<sub>7</sub>H<sub>6</sub>FI",
        "Molecular Mass": "236.03",
        "Boiling Point": "86-87 °C @ Press: 9 Torr"
    }
}