{
    "cas_no": "2050-60-4",
    "key_name": "Dibutyl oxalate",
    "cn_name": "草酸二丁酯;乙二酸二丁酯;",
    "alternate_name": "Ethanedioic acid, 1,2-dibutyl ester;Oxalic acid, dibutyl ester;Ethanedioic acid, dibutyl ester;di-<em>n</em>-Butyl oxalate;Dibutyl oxalate;Butyl oxalate;NSC 8468",
    "duplicated_cas_no": "",
    "SMILES": "C(C(OCCCC)=O)(OCCCC)=O",
    "meta_data": {
        "InChI": "InChI=1S/C10H18O4/c1-3-5-7-13-9(11)10(12)14-8-6-4-2/h3-8H2,1-2H3",
        "InChIKey": null,
        "Canonical SMILES": "O=C(OCCCC)C(=O)OCCCC",
        "Molecular Formula": "C<sub>10</sub>H<sub>18</sub>O<sub>4</sub>",
        "Molecular Mass": "202.25",
        "Boiling Point": "241 °C",
        "Melting Point": "-30.5 °C",
        "Density": "0.98732 g/cm³ @ Temp: 20 °C"
    }
}