{
    "cas_no": "6165-76-0",
    "key_name": "2-Propyn-1-ol, 1-(4-methylbenzenesulfonate)",
    "cn_name": "对甲苯磺酸丙炔酯;",
    "alternate_name": "2-Propyn-1-ol, 1-(4-methylbenzenesulfonate);2-Propyn-1-ol, <em>p</em>-toluenesulfonate;2-Propyn-1-ol, 4-methylbenzenesulfonate;<em>p</em>-Toluenesulfonic acid propargyl ester;Propargyl tosylate;2-Propynyl <em>p</em>-toluenesulfonate;2-Propynyl tosylate;Propargyl alcohol tosylate;1-[(<em>p</em>-Toluenesulfonyl)oxy]-2-propyne;2-Propyn-1-yl 4-methylbenzenesulfonate",
    "duplicated_cas_no": "142920-54-5",
    "SMILES": "S(OCC#C)(=O)(=O)C1=CC=C(C)C=C1",
    "meta_data": {
        "InChI": "InChI=1S/C10H10O3S/c1-3-8-13-14(11,12)10-6-4-9(2)5-7-10/h1,4-7H,8H2,2H3",
        "InChIKey": null,
        "Canonical SMILES": "O=S(=O)(OCC#C)C1=CC=C(C=C1)C",
        "Molecular Formula": "C<sub>10</sub>H<sub>10</sub>O<sub>3</sub>S",
        "Molecular Mass": "210.25",
        "Boiling Point": "161-162 °C @ Press: 4 Torr"
    }
}