{
    "cas_no": "10217-34-2",
    "key_name": "2-(3,4-Epoxycyclohexyl)ethyltriethoxysilane",
    "cn_name": "2-(3,4-环氧环己烷基)乙基三乙氧基硅烷;三乙氧基[2-(7-氧杂二环[4.1.0]庚-3-基)乙基]硅烷;",
    "alternate_name": "7-Oxabicyclo[4.1.0]heptane, 3-[2-(triethoxysilyl)ethyl]-;Silane, triethoxy[2-(7-oxabicyclo[4.1.0]hept-3-yl)ethyl]-;7-Oxabicyclo[4.1.0]heptane, silane deriv.;3-[2-(Triethoxysilyl)ethyl]-7-oxabicyclo[4.1.0]heptane;β-(3,4-Epoxycyclohexyl)ethyltriethoxysilane;2-(3,4-Epoxycyclohexyl)ethyltriethoxysilane;1,2-Epoxy-4-(2-triethoxysilylethyl)cyclohexane;CoatOSil 1770;Silquest Wetlink 90;Y 11870;CoatOSil Y 11988;S 1770 VAN;CoatOSil A 1770;ADD 107;KH 567;CG 0186;KH 1770;DB 1770;Wetlink 90;(2-(7-Oxabicyclo[4.1.0]heptan-3-yl)ethyl)triethoxysilane;A 1861;TCI-T 3585;B 87;SCA-E 86E",
    "duplicated_cas_no": "",
    "SMILES": "[Si](CCC1CC2C(CC1)O2)(OCC)(OCC)OCC",
    "meta_data": {
        "InChI": "InChI=1S/C14H28O4Si/c1-4-15-19(16-5-2,17-6-3)10-9-12-7-8-13-14(11-12)18-13/h12-14H,4-11H2,1-3H3",
        "InChIKey": null,
        "Canonical SMILES": "O(CC)[Si](OCC)(OCC)CCC1CCC2OC2C1",
        "Molecular Formula": "C<sub>14</sub>H<sub>28</sub>O<sub>4</sub>Si",
        "Molecular Mass": "288.46",
        "Boiling Point": "114-117 °C @ Press: 0.4 Torr",
        "Density": "1.015 g/cm³"
    }
}