{
    "cas_no": "2105-94-4",
    "key_name": "4-Bromo-2-fluorophenol",
    "cn_name": "4-溴-2-氟苯酚;",
    "alternate_name": "Phenol, 4-bromo-2-fluoro-;4-Bromo-2-fluorophenol;2-Fluoro-4-bromophenol;<em>p</em>-Bromo-<em>o</em>-fluorophenol;3-Fluoro-4-hydroxybromobenzene",
    "duplicated_cas_no": "",
    "SMILES": "FC1=C(O)C=CC(Br)=C1",
    "meta_data": {
        "InChI": "InChI=1S/C6H4BrFO/c7-4-1-2-6(9)5(8)3-4/h1-3,9H",
        "InChIKey": null,
        "Canonical SMILES": "FC1=CC(Br)=CC=C1O",
        "Molecular Formula": "C<sub>6</sub>H<sub>4</sub>BrFO",
        "Molecular Mass": "191.00",
        "Boiling Point": "64 °C @ Press: 7 Torr"
    }
}