{
    "cas_no": "15500-60-4",
    "key_name": "<em>N</em>,<em>N</em>-Bis(trimethylsilyl)formamide",
    "cn_name": "N,N-双(三甲基硅基)甲酰胺;",
    "alternate_name": "Formamide, <em>N</em>,<em>N</em>-bis(trimethylsilyl)-;<em>N</em>,<em>N</em>-Bis(trimethylsilyl)formamide;Bis(trimethylsilyl)formamide",
    "duplicated_cas_no": "",
    "SMILES": "N([Si](C)(C)C)([Si](C)(C)C)C=O",
    "meta_data": {
        "InChI": "InChI=1S/C7H19NOSi2/c1-10(2,3)8(7-9)11(4,5)6/h7H,1-6H3",
        "InChIKey": null,
        "Canonical SMILES": "O=CN([Si](C)(C)C)[Si](C)(C)C",
        "Molecular Formula": "C<sub>7</sub>H<sub>19</sub>NOSi<sub>2</sub>",
        "Molecular Mass": "189.40",
        "Boiling Point": "71-73 °C"
    }
}