{
    "cas_no": "5018-38-2",
    "key_name": "4,6-Dichloro-5-methoxypyrimidine",
    "cn_name": "4,6-二氯-5-甲氧基嘧啶;",
    "alternate_name": "Pyrimidine, 4,6-dichloro-5-methoxy-;4,6-Dichloro-5-methoxypyrimidine;NSC 252184",
    "duplicated_cas_no": "",
    "SMILES": "O(C)C=1C(Cl)=NC=NC1Cl",
    "meta_data": {
        "InChI": "InChI=1S/C5H4Cl2N2O/c1-10-3-4(6)8-2-9-5(3)7/h2H,1H3",
        "InChIKey": null,
        "Canonical SMILES": "ClC1=NC=NC(Cl)=C1OC",
        "Molecular Formula": "C<sub>5</sub>H<sub>4</sub>Cl<sub>2</sub>N<sub>2</sub>O",
        "Molecular Mass": "179.00",
        "Melting Point": "57-58 °C"
    }
}