{
    "cas_no": "183319-69-9",
    "key_name": "Erlotinib hydrochloride",
    "cn_name": "盐酸埃罗替尼;N-(3-乙炔苯基)-[6,7-二(2-甲氧基乙氧基)]喹唑啉-4-胺盐酸盐;",
    "alternate_name": "4-Quinazolinamine, <em>N</em>-(3-ethynylphenyl)-6,7-bis(2-methoxyethoxy)-, hydrochloride (1:1);4-Quinazolinamine, <em>N</em>-(3-ethynylphenyl)-6,7-bis(2-methoxyethoxy)-, monohydrochloride;CP 358774;OSI 774;Tarceva;6,7-Bis(2-methoxyethoxy)-4-(3-ethynylanilino)quinazoline hydrochloride;[6,7-Bis(2-methoxyethoxy)quinazolin-4-yl]-(3-ethynylphenyl)amine hydrochloride;Erlotinib hydrochloride",
    "duplicated_cas_no": "",
    "SMILES": "N(C=1C2=C(C=C(OCCOC)C(OCCOC)=C2)N=CN1)C3=CC(C#C)=CC=C3.Cl",
    "meta_data": {
        "InChI": "InChI=1S/C22H23N3O4.ClH/c1-4-16-6-5-7-17(12-16)25-22-18-13-20(28-10-8-26-2)21(29-11-9-27-3)14-19(18)23-15-24-22;/h1,5-7,12-15H,8-11H2,2-3H3,(H,23,24,25);1H",
        "InChIKey": null,
        "Canonical SMILES": "Cl.C#CC1=CC=CC(=C1)NC=2N=CN=C3C=C(OCCOC)C(OCCOC)=CC32",
        "Molecular Formula": "C<sub>22</sub>H<sub>23</sub>N<sub>3</sub>O<sub>4</sub>.ClH",
        "Molecular Mass": "",
        "Melting Point": "219-221 °C"
    }
}