{
    "cas_no": "1860-60-2",
    "key_name": "4-Methoxy-3-(phenylmethoxy)benzenemethanol",
    "cn_name": null,
    "alternate_name": "Benzenemethanol, 4-methoxy-3-(phenylmethoxy)-;Benzyl alcohol, 3-(benzyloxy)-4-methoxy-;4-Methoxy-3-(phenylmethoxy)benzenemethanol;3-(Benzyloxy)-4-methoxybenzyl alcohol;[3-(Benzyloxy)-4-methoxyphenyl]methanol;NSC 131750;4-Methoxy-3-benzyloxybenzyl alcohol",
    "duplicated_cas_no": "",
    "SMILES": "O(CC1=CC=CC=C1)C2=C(OC)C=CC(CO)=C2",
    "meta_data": {
        "InChI": "InChI=1S/C15H16O3/c1-17-14-8-7-13(10-16)9-15(14)18-11-12-5-3-2-4-6-12/h2-9,16H,10-11H2,1H3",
        "InChIKey": null,
        "Canonical SMILES": "OCC1=CC=C(OC)C(OCC=2C=CC=CC2)=C1",
        "Molecular Formula": "C<sub>15</sub>H<sub>16</sub>O<sub>3</sub>",
        "Molecular Mass": "244.29",
        "Melting Point": "70-71 °C"
    }
}