{
    "cas_no": "877-89-4",
    "key_name": "2,4,6-Trimethoxy-1,3,5-triazine",
    "cn_name": "三聚氰酸三甲酯;三聚氰酸三甲酯;",
    "alternate_name": "1,3,5-Triazine, 2,4,6-trimethoxy-;<em>s</em>-Triazine, 2,4,6-trimethoxy-;2,4,6-Trimethoxy-1,3,5-triazine;2,4,6-Trimethoxy-<em>s</em>-triazine;Trimethyl cyanurate",
    "duplicated_cas_no": "",
    "SMILES": "O(C)C=1N=C(OC)N=C(OC)N1",
    "meta_data": {
        "InChI": "InChI=1S/C6H9N3O3/c1-10-4-7-5(11-2)9-6(8-4)12-3/h1-3H3",
        "InChIKey": null,
        "Canonical SMILES": "N=1C(=NC(=NC1OC)OC)OC",
        "Molecular Formula": "C<sub>6</sub>H<sub>9</sub>N<sub>3</sub>O<sub>3</sub>",
        "Molecular Mass": "171.15",
        "Melting Point": "135 °C"
    }
}