{
    "cas_no": "345-29-9",
    "key_name": "4-Fluoro-2-hydroxybenzoic acid",
    "cn_name": "4-氟水杨酸;",
    "alternate_name": "Benzoic acid, 4-fluoro-2-hydroxy-;Salicylic acid, 4-fluoro-;4-Fluoro-2-hydroxybenzoic acid;4-Fluorosalicylic acid;NSC 109099;4-Fluoro-2-hydroxybenzenecarboxylic acid",
    "duplicated_cas_no": "",
    "SMILES": "C(O)(=O)C1=C(O)C=C(F)C=C1",
    "meta_data": {
        "InChI": "InChI=1S/C7H5FO3/c8-4-1-2-5(7(10)11)6(9)3-4/h1-3,9H,(H,10,11)",
        "InChIKey": null,
        "Canonical SMILES": "O=C(O)C1=CC=C(F)C=C1O",
        "Molecular Formula": "C<sub>7</sub>H<sub>5</sub>FO<sub>3</sub>",
        "Molecular Mass": "156.11",
        "Melting Point": "180 °C"
    }
}