{
    "cas_no": "78-41-1",
    "key_name": "Triparanol",
    "cn_name": "曲帕拉醇;",
    "alternate_name": "Benzeneethanol, 4-chloro-α-[4-[2-(diethylamino)ethoxy]phenyl]-α-(4-methylphenyl)-;Ethanol, 2-(<em>p</em>-chlorophenyl)-1-[<em>p</em>-[2-(diethylamino)ethoxy]phenyl]-1-<em>p</em>-tolyl-;4-Chloro-α-[4-[2-(diethylamino)ethoxy]phenyl]-α-(4-methylphenyl)benzeneethanol;MER 29;2-(<em>p</em>-Chlorophenyl)-1-[<em>p</em>-(β-diethylaminoethoxy)phenyl]-1-(<em>p</em>-tolyl)ethanol;2-<em>p</em>-Chlorophenyl-1-[<em>p</em>-(2-diethylaminoethoxy)phenyl]-1-<em>p</em>-tolylethanol;1-[<em>p</em>-(β-Diethylaminoethoxy)phenyl]-1-(<em>p</em>-tolyl)-2-(<em>p</em>-chlorophenyl)ethanol;1-[4-[2-(Diethylamino)ethoxy]phenyl]-1-(<em>p</em>-tolyl)-2-(<em>p</em>-chlorophenyl)ethanol;Triparanol;TR;Triparin;Tropalin;Diticyl;Trianel;Sclane;Drenaren;Acosterina;Valip;Metasclene;Hipocolestina;Trikosterol;Verdiana;Clotrox;MER 2p;Metasqualene;NSC 65345;MeSH ID: D014308",
    "duplicated_cas_no": "144-08-1",
    "SMILES": "C(CC1=CC=C(Cl)C=C1)(O)(C2=CC=C(OCCN(CC)CC)C=C2)C3=CC=C(C)C=C3",
    "meta_data": {
        "InChI": "InChI=1S/C27H32ClNO2/c1-4-29(5-2)18-19-31-26-16-12-24(13-17-26)27(30,23-10-6-21(3)7-11-23)20-22-8-14-25(28)15-9-22/h6-17,30H,4-5,18-20H2,1-3H3",
        "InChIKey": null,
        "Canonical SMILES": "ClC1=CC=C(C=C1)CC(O)(C2=CC=C(OCCN(CC)CC)C=C2)C3=CC=C(C=C3)C",
        "Molecular Formula": "C<sub>27</sub>H<sub>32</sub>ClNO<sub>2</sub>",
        "Molecular Mass": "438.00",
        "Boiling Point": "235-240 °C @ Press: 0.08 Torr",
        "Melting Point": "103 °C"
    }
}