{
    "cas_no": "122-98-5",
    "key_name": "<em>N</em>-(2-Hydroxyethyl)aniline",
    "cn_name": "N-苯基乙醇胺;",
    "alternate_name": "Ethanol, 2-(phenylamino)-;Ethanol, 2-anilino-;2-(Phenylamino)ethanol;<em>N</em>-(β-Hydroxyethyl)aniline;<em>N</em>-(2-Hydroxyethyl)phenylamine;<em>N</em>-Phenylethanolamine;Benzenamine, <em>N</em>-(2-hydroxyethyl)-;2-Anilinoethanol;<em>N</em>-(2-Hydroxyethyl)aniline;β-Anilinoethanol;<em>N</em>-Ethanolaniline;<em>N</em>-(2-Hydroxyethyl)benzenamine;<em>N</em>-Phenyl-2-aminoethanol;NSC 8393;<em>N</em>-Anilinoethanol;2-(Phenylamino)ethan-1-ol",
    "duplicated_cas_no": "",
    "SMILES": "N(CCO)C1=CC=CC=C1",
    "meta_data": {
        "InChI": "InChI=1S/C8H11NO/c10-7-6-9-8-4-2-1-3-5-8/h1-5,9-10H,6-7H2",
        "InChIKey": null,
        "Canonical SMILES": "OCCNC=1C=CC=CC1",
        "Molecular Formula": "C<sub>8</sub>H<sub>11</sub>NO",
        "Molecular Mass": "137.18",
        "Boiling Point": "279.5 °C",
        "Melting Point": "11 °C",
        "Density": "1.101 g/cm³ @ Temp: 24 °C"
    }
}