{
    "cas_no": "372-48-5",
    "key_name": "2-Fluoropyridine",
    "cn_name": "2-氟吡啶;邻氟吡啶;",
    "alternate_name": "Pyridine, 2-fluoro-;2-Fluoropyridine;NSC 5077;2-Pyridyl fluoride",
    "duplicated_cas_no": "",
    "SMILES": "FC1=CC=CC=N1",
    "meta_data": {
        "InChI": "InChI=1S/C5H4FN/c6-5-3-1-2-4-7-5/h1-4H",
        "InChIKey": null,
        "Canonical SMILES": "FC1=NC=CC=C1",
        "Molecular Formula": "C<sub>5</sub>H<sub>4</sub>FN",
        "Molecular Mass": "97.09",
        "Boiling Point": "127 °C",
        "Density": "1.1281 g/cm³ @ Temp: 20 °C"
    }
}