{
    "cas_no": "447-31-4",
    "key_name": "Desyl chloride",
    "cn_name": "2-氯-2-苯基苯乙酮;2-氯-1,2-二苯乙酮;二苯氯乙酮;2-氯-2-苯基苯乙酮;alpha-Chlorodeoxybenzoin;2-Chloro-2;",
    "alternate_name": "Ethanone, 2-chloro-1,2-diphenyl-;Acetophenone, 2-chloro-2-phenyl-;2-Chloro-1,2-diphenylethanone;Desyl chloride;2-Chloro-2-phenylacetophenone;α-Chlorobenzyl phenyl ketone;1,2-Diphenyl-2-chloroethanone;α-Chloro-α-phenylacetophenone;α-Chlorodeoxybenzoin;NSC 2883;2-Chloro-1,2-diphenylethan-1-one",
    "duplicated_cas_no": "70288-34-5",
    "SMILES": "C(C(=O)C1=CC=CC=C1)(Cl)C2=CC=CC=C2",
    "meta_data": {
        "InChI": "InChI=1S/C14H11ClO/c15-13(11-7-3-1-4-8-11)14(16)12-9-5-2-6-10-12/h1-10,13H",
        "InChIKey": null,
        "Canonical SMILES": "O=C(C=1C=CC=CC1)C(Cl)C=2C=CC=CC2",
        "Molecular Formula": "C<sub>14</sub>H<sub>11</sub>ClO",
        "Molecular Mass": "230.69",
        "Boiling Point": "150 °C @ Press: 0.02 Torr",
        "Melting Point": "68.5 °C"
    }
}