{
    "cas_no": "377-71-9",
    "key_name": "1,4-Diethyl 2,2,3,3-tetrafluorobutanedioate",
    "cn_name": "四氟丁二酸二乙酯;",
    "alternate_name": "Butanedioic acid, 2,2,3,3-tetrafluoro-, 1,4-diethyl ester;Succinic acid, tetrafluoro-, diethyl ester;Butanedioic acid, tetrafluoro-, diethyl ester;1,4-Diethyl 2,2,3,3-tetrafluorobutanedioate;Diethyl tetrafluorosuccinate",
    "duplicated_cas_no": "",
    "SMILES": "C(C(C(OCC)=O)(F)F)(C(OCC)=O)(F)F",
    "meta_data": {
        "InChI": "InChI=1S/C8H10F4O4/c1-3-15-5(13)7(9,10)8(11,12)6(14)16-4-2/h3-4H2,1-2H3",
        "InChIKey": null,
        "Canonical SMILES": "O=C(OCC)C(F)(F)C(F)(F)C(=O)OCC",
        "Molecular Formula": "C<sub>8</sub>H<sub>10</sub>F<sub>4</sub>O<sub>4</sub>",
        "Molecular Mass": "246.16",
        "Boiling Point": "89 °C @ Press: 15 Torr",
        "Density": "1.264 g/cm³ @ Temp: 20 °C"
    }
}