{
    "cas_no": "35480-52-5",
    "key_name": "2,5-Bis(2,2,2-trifluoroethoxy)benzoic acid",
    "cn_name": "2,5-双(2,2,2-三氟乙氧基)苯甲酸;",
    "alternate_name": "Benzoic acid, 2,5-bis(2,2,2-trifluoroethoxy)-;2,5-Bis(2,2,2-trifluoroethoxy)benzoic acid",
    "duplicated_cas_no": "",
    "SMILES": "O(CC(F)(F)F)C1=C(C(O)=O)C=C(OCC(F)(F)F)C=C1",
    "meta_data": {
        "InChI": "InChI=1S/C11H8F6O4/c12-10(13,14)4-20-6-1-2-8(7(3-6)9(18)19)21-5-11(15,16)17/h1-3H,4-5H2,(H,18,19)",
        "InChIKey": null,
        "Canonical SMILES": "O=C(O)C1=CC(OCC(F)(F)F)=CC=C1OCC(F)(F)F",
        "Molecular Formula": "C<sub>11</sub>H<sub>8</sub>F<sub>6</sub>O<sub>4</sub>",
        "Molecular Mass": "318.17",
        "Melting Point": "120-122 °C"
    }
}