{
    "cas_no": "34452-51-2",
    "key_name": "Potassium thioglycolate",
    "cn_name": null,
    "alternate_name": "Acetic acid, 2-mercapto-, potassium salt (1:1);Acetic acid, mercapto-, monopotassium salt;Potassium thioglycolate;Potassium 2-mercaptoacetate",
    "duplicated_cas_no": "",
    "SMILES": "C(CS)(O)=O.[K]",
    "meta_data": {
        "InChI": "InChI=1S/C2H4O2S.K/c3-2(4)1-5;/h5H,1H2,(H,3,4);",
        "InChIKey": null,
        "Canonical SMILES": "[K].O=C(O)CS",
        "Molecular Formula": "C<sub>2</sub>H<sub>4</sub>O<sub>2</sub>S.K",
        "Molecular Mass": "",
        "Melting Point": "226-229 °C"
    }
}