{
    "cas_no": "18671-97-1",
    "key_name": "2,6-Dichloroquinoxaline",
    "cn_name": "2,6-二氯喹喔啉;",
    "alternate_name": "Quinoxaline, 2,6-dichloro-;2,6-Dichloroquinoxaline",
    "duplicated_cas_no": "",
    "SMILES": "ClC1=CC2=C(N=C(Cl)C=N2)C=C1",
    "meta_data": {
        "InChI": "InChI=1S/C8H4Cl2N2/c9-5-1-2-6-7(3-5)11-4-8(10)12-6/h1-4H",
        "InChIKey": null,
        "Canonical SMILES": "ClC1=NC2=CC=C(Cl)C=C2N=C1",
        "Molecular Formula": "C<sub>8</sub>H<sub>4</sub>Cl<sub>2</sub>N<sub>2</sub>",
        "Molecular Mass": "199.04",
        "Melting Point": "159-160 °C"
    }
}