{
    "cas_no": "6142-95-6",
    "key_name": "(3,3-Diethoxy-1-propyn-1-yl)benzene",
    "cn_name": "苯基丙醛二乙基乙缩醛;",
    "alternate_name": "Benzene, (3,3-diethoxy-1-propyn-1-yl)-;Propiolaldehyde, phenyl-, diethyl acetal;Benzene, (3,3-diethoxy-1-propynyl)-;Propyne, 3,3-diethoxy-1-phenyl-;(3,3-Diethoxy-1-propyn-1-yl)benzene;3,3-Diethoxy-1-phenylpropyne;3-Phenylpropynal diethyl acetal;Phenylpropynal diethyl acetal;3,3-Diethoxy-1-phenylprop-1-yne;(3,3-Diethoxy-1-propynyl)benzene;NSC 66194;Phenylpropiolaldehyde diethyl acetal",
    "duplicated_cas_no": "",
    "SMILES": "C(#CC(OCC)OCC)C1=CC=CC=C1",
    "meta_data": {
        "InChI": "InChI=1S/C13H16O2/c1-3-14-13(15-4-2)11-10-12-8-6-5-7-9-12/h5-9,13H,3-4H2,1-2H3",
        "InChIKey": null,
        "Canonical SMILES": "C(#CC(OCC)OCC)C=1C=CC=CC1",
        "Molecular Formula": "C<sub>13</sub>H<sub>16</sub>O<sub>2</sub>",
        "Molecular Mass": "204.26",
        "Boiling Point": "93-95 °C @ Press: 5 Torr"
    }
}