{
    "cas_no": "365-34-4",
    "key_name": "[2-(Trifluoromethyl)phenyl]hydrazine",
    "cn_name": "2-(三氟甲基)苯基肼;邻三氟甲基苯肼;2-(三氟甲基)苯基肼;",
    "alternate_name": "Hydrazine, [2-(trifluoromethyl)phenyl]-;Hydrazine, (α,α,α-trifluoro-<em>o</em>-tolyl)-;[2-(Trifluoromethyl)phenyl]hydrazine;<em>o</em>-(Trifluoromethyl)phenylhydrazine;2-Trifluoromethylphenylhydrazine;1-[2-(Trifluoromethyl)phenyl]hydrazine",
    "duplicated_cas_no": "",
    "SMILES": "N(N)C1=C(C(F)(F)F)C=CC=C1",
    "meta_data": {
        "InChI": "InChI=1S/C7H7F3N2/c8-7(9,10)5-3-1-2-4-6(5)12-11/h1-4,12H,11H2",
        "InChIKey": null,
        "Canonical SMILES": "FC(F)(F)C=1C=CC=CC1NN",
        "Molecular Formula": "C<sub>7</sub>H<sub>7</sub>F<sub>3</sub>N<sub>2</sub>",
        "Molecular Mass": "176.14",
        "Melting Point": "61-62 °C"
    }
}