{
    "cas_no": "69555-14-2",
    "key_name": "<em>N</em>-(Diphenylmethylene)glycine ethyl ester",
    "cn_name": "二苯亚甲基甘氨酸乙酯;",
    "alternate_name": "Glycine, <em>N</em>-(diphenylmethylene)-, ethyl ester;Ethyl <em>N</em>-benzhydrylideneglycinate;Ethyl <em>N</em>-(diphenylmethylene)glycinate;<em>N</em>-(Diphenylmethylene)glycine ethyl ester;Ethyl (benzhydrylideneamino)acetate;NSC 263808;(Benzhydrylideneamino)acetic acid ethyl ester;Ethyl 2-[(diphenylmethylene)amino]acetate;<em>N</em>-(Diphenylmethylidene)glycine ethyl ester;Ethyl 2-(benzhydrylideneamino)acetate",
    "duplicated_cas_no": "",
    "SMILES": "C(=NCC(OCC)=O)(C1=CC=CC=C1)C2=CC=CC=C2",
    "meta_data": {
        "InChI": "InChI=1S/C17H17NO2/c1-2-20-16(19)13-18-17(14-9-5-3-6-10-14)15-11-7-4-8-12-15/h3-12H,2,13H2,1H3",
        "InChIKey": null,
        "Canonical SMILES": "O=C(OCC)CN=C(C=1C=CC=CC1)C=2C=CC=CC2",
        "Molecular Formula": "C<sub>17</sub>H<sub>17</sub>NO<sub>2</sub>",
        "Molecular Mass": "267.32",
        "Melting Point": "50-52 °C"
    }
}