{
    "cas_no": "2624-44-4",
    "key_name": "Etamsylate",
    "cn_name": "酚磺乙胺;2,5-二羟基苯磺酸二乙胺盐;",
    "alternate_name": "Benzenesulfonic acid, 2,5-dihydroxy-, compd. with <em>N</em>-ethylethanamine (1:1);Benzenesulfonic acid, 2,5-dihydroxy-, compd. with diethylamine (1:1);Benzenesulfonic acid, 2,5-dihydroxy-, compd. with Et2NH;Diethylamine, 2,5-dihydroxybenzenesulfonate;Ethanamine, <em>N</em>-ethyl-, 2,5-dihydroxybenzenesulfonate;141 MD;Dicynene;Dicynone;Diethylammonium 2,5-dihydroxybenzenesulfonate;Ethamsylate;Cyclonamine;Eselin;Aglumin;Altodor;Etamsylate;2,5-Dihydroxybenzenesulfonic acid diethylamine salt;Dicinone;Biosinon;MD 141;E 141;K-Stat;Hemsyl;Sylate",
    "duplicated_cas_no": "",
    "SMILES": "N(CC)CC.S(=O)(=O)(O)C1=C(O)C=CC(O)=C1",
    "meta_data": {
        "InChI": "InChI=1S/C6H6O5S.C4H11N/c7-4-1-2-5(8)6(3-4)12(9,10)11;1-3-5-4-2/h1-3,7-8H,(H,9,10,11);5H,3-4H2,1-2H3",
        "InChIKey": null,
        "Canonical SMILES": "O=S(=O)(O)C1=CC(O)=CC=C1O.N(CC)CC",
        "Molecular Formula": "C<sub>6</sub>H<sub>6</sub>O<sub>5</sub>S.C<sub>4</sub>H<sub>11</sub>N",
        "Molecular Mass": "",
        "Melting Point": "125 °C"
    }
}