{
    "cas_no": "108-98-5",
    "key_name": "Thiophenol",
    "cn_name": "苯硫酚;苯硫醇;苯基硫醇;巯基苯;硫代苯酚;",
    "alternate_name": "Benzenethiol;Phenol, thio-;Phenyl mercaptan;Thiophenol;Mercaptobenzene;Phenylthiol;NSC 6953;Phenyl hydrosulfide",
    "duplicated_cas_no": "1429189-89-8",
    "SMILES": "SC1=CC=CC=C1",
    "meta_data": {
        "InChI": "InChI=1S/C6H6S/c7-6-4-2-1-3-5-6/h1-5,7H",
        "InChIKey": null,
        "Canonical SMILES": "SC=1C=CC=CC1",
        "Molecular Formula": "C<sub>6</sub>H<sub>6</sub>S",
        "Molecular Mass": "110.18",
        "Boiling Point": "168.3 °C",
        "Melting Point": "-14.9 °C",
        "Density": "1.0728 g/cm³ @ Temp: 25 °C"
    }
}