{
    "cas_no": "1948-40-9",
    "key_name": "4-Hydroxy-3,5-diiodobenzaldehyde",
    "cn_name": "3,5-二碘-4-羟基苯甲醛;",
    "alternate_name": "Benzaldehyde, 4-hydroxy-3,5-diiodo-;4-Hydroxy-3,5-diiodobenzaldehyde;3,5-Diiodo-4-hydroxybenzaldehyde;NSC 72943",
    "duplicated_cas_no": "",
    "SMILES": "C(=O)C1=CC(I)=C(O)C(I)=C1",
    "meta_data": {
        "InChI": "InChI=1S/C7H4I2O2/c8-5-1-4(3-10)2-6(9)7(5)11/h1-3,11H",
        "InChIKey": null,
        "Canonical SMILES": "O=CC1=CC(I)=C(O)C(I)=C1",
        "Molecular Formula": "C<sub>7</sub>H<sub>4</sub>I<sub>2</sub>O<sub>2</sub>",
        "Molecular Mass": "373.91",
        "Melting Point": "200-201 °C"
    }
}