{
    "cas_no": "33224-23-6",
    "key_name": "4-Methoxy-3-nitrobenzonitrile",
    "cn_name": "4-甲氧基-3-硝基苯甲腈;",
    "alternate_name": "Benzonitrile, 4-methoxy-3-nitro-;<em>p</em>-Anisonitrile, 3-nitro-;4-Methoxy-3-nitrobenzonitrile;5-Cyano-2-methoxynitrobenzene;3-Nitro-4-methoxybenzonitrile",
    "duplicated_cas_no": "",
    "SMILES": "N(=O)(=O)C1=C(OC)C=CC(C#N)=C1",
    "meta_data": {
        "InChI": "InChI=1S/C8H6N2O3/c1-13-8-3-2-6(5-9)4-7(8)10(11)12/h2-4H,1H3",
        "InChIKey": null,
        "Canonical SMILES": "N#CC1=CC=C(OC)C(=C1)N(=O)=O",
        "Molecular Formula": "C<sub>8</sub>H<sub>6</sub>N<sub>2</sub>O<sub>3</sub>",
        "Molecular Mass": "178.14",
        "Melting Point": "151 °C"
    }
}