{
    "cas_no": "2486-02-4",
    "key_name": "Isoamyl gallate",
    "cn_name": "没食子酸异戊酯;",
    "alternate_name": "Benzoic acid, 3,4,5-trihydroxy-, 3-methylbutyl ester;Gallic acid, isopentyl ester;Isopentyl alcohol, gallate;Isoamyl gallate;Gallic acid, isoamyl ester;Isopentyl gallate;3-Methylbutyl 3,4,5-trihydroxybenzoate;Isopentyl 3,4,5-trihydroxybenzoate",
    "duplicated_cas_no": "",
    "SMILES": "C(OCCC(C)C)(=O)C1=CC(O)=C(O)C(O)=C1",
    "meta_data": {
        "InChI": "InChI=1S/C12H16O5/c1-7(2)3-4-17-12(16)8-5-9(13)11(15)10(14)6-8/h5-7,13-15H,3-4H2,1-2H3",
        "InChIKey": null,
        "Canonical SMILES": "O=C(OCCC(C)C)C1=CC(O)=C(O)C(O)=C1",
        "Molecular Formula": "C<sub>12</sub>H<sub>16</sub>O<sub>5</sub>",
        "Molecular Mass": "240.25",
        "Melting Point": "145-146 °C"
    }
}