{
    "cas_no": "102-27-2",
    "key_name": "<em>N</em>-Ethyl-<em>m</em>-toluidine",
    "cn_name": "N-乙基间甲苯胺;N-乙基-3-甲基苯胺;",
    "alternate_name": "Benzenamine, <em>N</em>-ethyl-3-methyl-;<em>m</em>-Toluidine, <em>N</em>-ethyl-;<em>N</em>-Ethyl-3-methylbenzenamine;<em>N</em>-Ethyl-3-methylaniline;3-Methyl-<em>N</em>-ethylaniline;<em>N</em>-Ethyl-<em>m</em>-toluidine;NSC 8624;<em>N</em>-Ethyl(3-methylphenyl)amine",
    "duplicated_cas_no": "",
    "SMILES": "N(CC)C1=CC(C)=CC=C1",
    "meta_data": {
        "InChI": "InChI=1S/C9H13N/c1-3-10-9-6-4-5-8(2)7-9/h4-7,10H,3H2,1-2H3",
        "InChIKey": null,
        "Canonical SMILES": "C=1C=C(C=C(C1)C)NCC",
        "Molecular Formula": "C<sub>9</sub>H<sub>13</sub>N",
        "Molecular Mass": "135.21",
        "Boiling Point": "221 °C"
    }
}