{
    "cas_no": "85-98-3",
    "key_name": "Centralite",
    "cn_name": "1,3-二乙基-1,3-二苯脲;",
    "alternate_name": "Urea, <em>N</em>,<em>N</em>′-diethyl-<em>N</em>,<em>N</em>′-diphenyl-;Carbanilide, <em>N</em>,<em>N</em>′-diethyl-;Centralite 1;<em>N</em>,<em>N</em>′-Diethyl-<em>N</em>,<em>N</em>′-diphenylurea;Carbamite;Centralite;<em>sym</em>-Diethyldiphenylurea;Ethyl centralite;<em>N</em>,<em>N</em>′-Diethylcarbanilide;Centralite I;1,3-Diethyl-1,3-diphenylurea;NSC 28779;NSC 44038",
    "duplicated_cas_no": "",
    "SMILES": "N(C(N(CC)C1=CC=CC=C1)=O)(CC)C2=CC=CC=C2",
    "meta_data": {
        "InChI": "InChI=1S/C17H20N2O/c1-3-18(15-11-7-5-8-12-15)17(20)19(4-2)16-13-9-6-10-14-16/h5-14H,3-4H2,1-2H3",
        "InChIKey": null,
        "Canonical SMILES": "O=C(N(C=1C=CC=CC1)CC)N(C=2C=CC=CC2)CC",
        "Molecular Formula": "C<sub>17</sub>H<sub>20</sub>N<sub>2</sub>O",
        "Molecular Mass": "268.35",
        "Melting Point": "79 °C"
    }
}