{
    "cas_no": "1517-69-7",
    "key_name": "(+)-1-Phenylethanol",
    "cn_name": "(R)-(+)-1-苯基乙醇;",
    "alternate_name": "Benzenemethanol, α-methyl-, (α<em>R</em>)-;Benzyl alcohol, α-methyl-, (<em>R</em>)-(+)-;Benzenemethanol, α-methyl-, (<em>R</em>)-;(α<em>R</em>)-α-Methylbenzenemethanol;<span class=\"text-smallcaps\">D</span>-(+)-Methylphenylcarbinol;(+)-α-Methylbenzyl alcohol;(+)-1-Phenylethanol;(<em>R</em>)-α-Methylbenzyl alcohol;(<em>R</em>)-(+)-α-Hydroxyethylbenzene;(+)-α-Phenylethanol;<em>d</em>-1-Phenylethanol;(<em>R</em>)-(+)-α-Phenylethanol;<span class=\"text-smallcaps\">D</span>-(+)-α-Phenylethanol;(<em>R</em>)-(+)-α-Methylbenzyl alcohol;<em>d</em>-α-Phenethyl alcohol;(<em>R</em>)-α-Phenylethanol;<em>R</em>(+)-Phenylethanol;(<em>R</em>)-(+)-α-Methylbenzenemethanol;(<em>R</em>)-1-Phenylethyl alcohol;(<em>R</em>)-(+)-α-Phenethyl alcohol;(<em>R</em>)-Phenylmethylcarbinol;(<em>R</em>)-1-Phenylethanol;(+)-<em>sec</em>-Phenethyl alcohol;(<em>R</em>)-<em>sec</em>-Phenethyl alcohol;(<em>R</em>)-α-Hydroxyethylbenzene;(+)-1-Phenylethyl alcohol;(<em>R</em>)-α-Phenethyl alcohol;(+)-α-Phenethyl alcohol;(<em>R</em>)-α-Methylbenzenemethanol;R-α-Methylbenzyl alcohol;(<em>R</em>)-(+)-<em>sec</em>-Phenethyl alcohol;(R)-<em>sec</em>-Phenylethyl alcohol;(<em>R</em>)-Phenylethanol;(<em>R</em>)-(+)-1-Phenylethanol;(1<em>R</em>)-1-Phenylethanol;(R)-(+)-Phenylethanol;(R)-(+)-1-Phenylethanol;(1R)-1-Phenylethanol;(R)-Phenylethanol;(<em>R</em>)-1-Phenylethan-1-ol;(1R)-1-Phenylethan-1-ol",
    "duplicated_cas_no": "5692-05-7",
    "SMILES": "[C@H](C)(O)C1=CC=CC=C1",
    "meta_data": {
        "InChI": "InChI=1S/C8H10O/c1-7(9)8-5-3-2-4-6-8/h2-7,9H,1H3/t7-/m1/s1",
        "InChIKey": null,
        "Canonical SMILES": "OC(C=1C=CC=CC1)C",
        "Molecular Formula": "C<sub>8</sub>H<sub>10</sub>O",
        "Molecular Mass": "122.16",
        "Boiling Point": "98 °C",
        "Melting Point": "9-11 °C"
    }
}