{
    "cas_no": "81228-09-3",
    "key_name": "2,4-Difluorophenylacetic acid",
    "cn_name": "2,4-二氟苯乙酸;",
    "alternate_name": "Benzeneacetic acid, 2,4-difluoro-;2,4-Difluorobenzeneacetic acid;2,4-Difluorophenylacetic acid;2-(2,4-Difluorophenyl)acetic acid",
    "duplicated_cas_no": "",
    "SMILES": "C(C(O)=O)C1=C(F)C=C(F)C=C1",
    "meta_data": {
        "InChI": "InChI=1S/C8H6F2O2/c9-6-2-1-5(3-8(11)12)7(10)4-6/h1-2,4H,3H2,(H,11,12)",
        "InChIKey": null,
        "Canonical SMILES": "O=C(O)CC1=CC=C(F)C=C1F",
        "Molecular Formula": "C<sub>8</sub>H<sub>6</sub>F<sub>2</sub>O<sub>2</sub>",
        "Molecular Mass": "172.13",
        "Melting Point": "117.00 °C"
    }
}