{
    "cas_no": "204326-43-2",
    "key_name": "8-Bromo-1<em>H</em>,4<em>H</em>-[1,2,4]oxadiazolo[3,4-<em>c</em>][1,4]benzoxazin-1-one",
    "cn_name": null,
    "alternate_name": "1<em>H</em>,4<em>H</em>-[1,2,4]Oxadiazolo[3,4-<em>c</em>][1,4]benzoxazin-1-one, 8-bromo-;8-Bromo-1<em>H</em>,4<em>H</em>-[1,2,4]oxadiazolo[3,4-<em>c</em>][1,4]benzoxazin-1-one;NS 2028;4<em>H</em>-8-Bromo-1,2,4-oxadiazolo(3,4-<em>d</em>)ben(b)(1,4)oxazin-1-one",
    "duplicated_cas_no": "",
    "SMILES": "O=C1N2C=3C(OCC2=NO1)=CC=C(Br)C3",
    "meta_data": {
        "InChI": "InChI=1S/C9H5BrN2O3/c10-5-1-2-7-6(3-5)12-8(4-14-7)11-15-9(12)13/h1-3H,4H2",
        "InChIKey": null,
        "Canonical SMILES": "O=C1ON=C2N1C3=CC(Br)=CC=C3OC2",
        "Molecular Formula": "C<sub>9</sub>H<sub>5</sub>BrN<sub>2</sub>O<sub>3</sub>",
        "Molecular Mass": "269.05",
        "Melting Point": "163-164 °C"
    }
}