{
    "cas_no": "593-50-0",
    "key_name": "1-Triacontanol",
    "cn_name": "三十烷醇;",
    "alternate_name": "1-Triacontanol;<em>n</em>-Triacontanol;Myricyl alcohol;Melissyl alcohol;Triacontyl alcohol;Triacontanol;Prosopol;Miraculan;1-Hydroxytriacontane;Well-Bloom;Nutron;Ultria;Tomatex;NSC 402492;NSC 405588",
    "duplicated_cas_no": "",
    "SMILES": "C(CCCCCCCCCCCCCCC)CCCCCCCCCCCCCCO",
    "meta_data": {
        "InChI": "InChI=1S/C30H62O/c1-2-3-4-5-6-7-8-9-10-11-12-13-14-15-16-17-18-19-20-21-22-23-24-25-26-27-28-29-30-31/h31H,2-30H2,1H3",
        "InChIKey": null,
        "Canonical SMILES": "OCCCCCCCCCCCCCCCCCCCCCCCCCCCCCC",
        "Molecular Formula": "C<sub>30</sub>H<sub>62</sub>O",
        "Molecular Mass": "438.81",
        "Melting Point": "88 °C"
    }
}