{
    "cas_no": "121-60-8",
    "key_name": "4-Acetamidobenzenesulfonyl chloride",
    "cn_name": "对乙酰胺基苯磺酰氯;",
    "alternate_name": "Benzenesulfonyl chloride, 4-(acetylamino)-;Sulfanilyl chloride, <em>N</em>-acetyl-;4-(Acetylamino)benzenesulfonyl chloride;Acetanilide-<em>p</em>-sulfonyl chloride;<em>p</em>-(Acetylamino)benzenesulfonyl chloride;ASC;Dagenan chloride;4-Acetamidophenylsulfonyl chloride;<em>N</em><sup>4</sup>-Acetylsulfanilyl chloride;<em>p</em>-Acetamidobenzenesulfonyl chloride;4′-(Chlorosulfonyl)acetanilide;<em>p</em>-Acetamidophenylsulfonyl chloride;4-Acetamidobenzenesulfonyl chloride;4-Chlorosulfonylacetanilide;<em>p</em>-(Chlorosulfonyl)acetanilide;<em>N</em>-Acetylsulfanilyl chloride;4-(Acetylamino)phenylsulfonyl chloride;<em>N</em>-Acetyl-<em>p</em>-aminobenzenesulfonyl chloride;NSC 127860;4-Acetamidobenzene-1-sulfonyl chloride;<em>N</em>-(4-Chlorosulfonylphenyl)acetamide;<em>p</em>-Acetylaminophenylsulfonyl chloride;ASC (acetylsulfanilyl chloride)",
    "duplicated_cas_no": "",
    "SMILES": "S(Cl)(=O)(=O)C1=CC=C(NC(C)=O)C=C1",
    "meta_data": {
        "InChI": "InChI=1S/C8H8ClNO3S/c1-6(11)10-7-2-4-8(5-3-7)14(9,12)13/h2-5H,1H3,(H,10,11)",
        "InChIKey": null,
        "Canonical SMILES": "O=C(NC1=CC=C(C=C1)S(=O)(=O)Cl)C",
        "Molecular Formula": "C<sub>8</sub>H<sub>8</sub>ClNO<sub>3</sub>S",
        "Molecular Mass": "233.67",
        "Melting Point": "149 °C"
    }
}