{
    "cas_no": "123-06-8",
    "key_name": "2-(Ethoxymethylene)propanedinitrile",
    "cn_name": "乙氧基亚甲基丙二腈;",
    "alternate_name": "Propanedinitrile, 2-(ethoxymethylene)-;Malononitrile, (ethoxymethylene)-;Propanedinitrile, (ethoxymethylene)-;2-(Ethoxymethylene)propanedinitrile;(Ethoxymethylene)malononitrile;2-Cyano-3-ethoxyacrylonitrile;(β-Ethoxymethylene)malononitrile;(Ethoxymethylene)malonodinitrile;α-Cyano-β-ethoxyacrylonitrile;1,1-Dicyano-2-ethoxyethene;1-Ethoxy-2,2-dicyanoethene;2-Ethoxy-1,1-ethenedicarbonitrile;1-Ethoxy-2,2-dicyanoethylene;(Ethoxymethylene)propanedinitrile;NSC 27792;(Ethoxymethylidene)malononitrile;1-Ethoxymethylenemalonitrile;Ethoxymethylenemalonitrile;2-(Ethoxymethylene)malononitrile;2-(Ethoxymethylidene)propanedinitrile",
    "duplicated_cas_no": "1220632-37-0",
    "SMILES": "C(=COCC)(C#N)C#N",
    "meta_data": {
        "InChI": "InChI=1S/C6H6N2O/c1-2-9-5-6(3-7)4-8/h5H,2H2,1H3",
        "InChIKey": null,
        "Canonical SMILES": "N#CC(C#N)=COCC",
        "Molecular Formula": "C<sub>6</sub>H<sub>6</sub>N<sub>2</sub>O",
        "Molecular Mass": "122.12",
        "Boiling Point": "156-157 °C @ Press: 15 Torr",
        "Melting Point": "66 °C"
    }
}