{
    "cas_no": "15901-40-3",
    "key_name": "<em>N</em>,<em>N</em>′,<em>N</em>′′-Tricyclohexyl-1-methylsilanetriamine",
    "cn_name": null,
    "alternate_name": "Silanetriamine, <em>N</em>,<em>N</em>′,<em>N</em>′′-tricyclohexyl-1-methyl-;<em>N</em>,<em>N</em>′,<em>N</em>′′-Tricyclohexyl-1-methylsilanetriamine;Methyltris(cyclohexylamino)silane;Tris(cyclohexylamino)methylsilane",
    "duplicated_cas_no": "",
    "SMILES": "[Si](NC1CCCCC1)(NC2CCCCC2)(NC3CCCCC3)C",
    "meta_data": {
        "InChI": "InChI=1S/C19H39N3Si/c1-23(20-17-11-5-2-6-12-17,21-18-13-7-3-8-14-18)22-19-15-9-4-10-16-19/h17-22H,2-16H2,1H3",
        "InChIKey": null,
        "Canonical SMILES": "N(C1CCCCC1)[Si](NC2CCCCC2)(NC3CCCCC3)C",
        "Molecular Formula": "C<sub>19</sub>H<sub>39</sub>N<sub>3</sub>Si",
        "Molecular Mass": "337.62",
        "Boiling Point": "169 °C @ Press: 3 Torr",
        "Density": "0.960 g/cm³"
    }
}