{
    "cas_no": "627-09-8",
    "key_name": "2-Propyn-1-ol, 1-acetate",
    "cn_name": null,
    "alternate_name": "2-Propyn-1-ol, 1-acetate;2-Propyn-1-ol, acetate;Propargyl acetate;Acetic acid propargyl ester;3-Acetoxy-1-propyne;2-Propynyl acetate;1-Acetoxy-2-propyne;2-Propyn-1-yl acetate",
    "duplicated_cas_no": "",
    "SMILES": "O(C(C)=O)CC#C",
    "meta_data": {
        "InChI": "InChI=1S/C5H6O2/c1-3-4-7-5(2)6/h1H,4H2,2H3",
        "InChIKey": null,
        "Canonical SMILES": "O=C(OCC#C)C",
        "Molecular Formula": "C<sub>5</sub>H<sub>6</sub>O<sub>2</sub>",
        "Molecular Mass": "98.10",
        "Boiling Point": "111-112 °C",
        "Density": "0.999 g/cm³ @ Temp: 24 °C"
    }
}