{
    "cas_no": "2144-37-8",
    "key_name": "Methyl 5-chloromethyl-2-furoate",
    "cn_name": "5-氯代甲基-2-糠酸甲酯;5-(氯甲基)2-呋喃甲酸甲酯;5-(氯甲基)呋喃-2-甲酸甲酯;",
    "alternate_name": "2-Furancarboxylic acid, 5-(chloromethyl)-, methyl ester;2-Furoic acid, 5-(chloromethyl)-, methyl ester;Methyl 5-(chloromethyl)furan-2-carboxylate;5-Carbomethoxyfurfuryl chloride;Methyl 5-chloromethyl-2-furoate;Methyl 5-(chloromethyl)furoate;Methyl 5-chloromethyl-2-furanoate;NSC 117334;5-(Chloromethyl)furan-2-carboxylic acid methyl ester;Methyl 5-chloromethyl-2-furancarboxylate;ST 005540",
    "duplicated_cas_no": "",
    "SMILES": "C(OC)(=O)C=1OC(CCl)=CC1",
    "meta_data": {
        "InChI": "InChI=1S/C7H7ClO3/c1-10-7(9)6-3-2-5(4-8)11-6/h2-3H,4H2,1H3",
        "InChIKey": null,
        "Canonical SMILES": "O=C(OC)C=1OC(=CC1)CCl",
        "Molecular Formula": "C<sub>7</sub>H<sub>7</sub>ClO<sub>3</sub>",
        "Molecular Mass": "174.58",
        "Boiling Point": "136 °C @ Press: 15 Torr",
        "Melting Point": "32.5 °C"
    }
}