{
    "cas_no": "99-18-3",
    "key_name": "Prunasin",
    "cn_name": "1-(2-糠酰)-2-硝基乙烯;",
    "alternate_name": "Benzeneacetonitrile, α-(β-<span class=\"text-smallcaps\">D</span>-glucopyranosyloxy)-, (α<em>R</em>)-;Prunasin;Benzeneacetonitrile, α-(β-<span class=\"text-smallcaps\">D</span>-glucopyranosyloxy)-, (<em>R</em>)-;(α<em>R</em>)-α-(β-<span class=\"text-smallcaps\">D</span>-Glucopyranosyloxy)benzeneacetonitrile;<span class=\"text-smallcaps\">D</span>-Prunasin;(<em>R</em>)-Prunasin;(2<em>R</em>)-Prunasin;Benzeneacetonitrile 7-<em>O</em>-β-<span class=\"text-smallcaps\">D</span>-glucopyranoside",
    "duplicated_cas_no": "1300-20-5",
    "SMILES": "O([C@@H](C#N)C1=CC=CC=C1)[C@@H]2O[C@H](CO)[C@@H](O)[C@H](O)[C@H]2O",
    "meta_data": {
        "InChI": "InChI=1S/C14H17NO6/c15-6-9(8-4-2-1-3-5-8)20-14-13(19)12(18)11(17)10(7-16)21-14/h1-5,9-14,16-19H,7H2/t9-,10+,11+,12-,13+,14+/m0/s1",
        "InChIKey": null,
        "Canonical SMILES": "N#CC(OC1OC(CO)C(O)C(O)C1O)C=2C=CC=CC2",
        "Molecular Formula": "C<sub>14</sub>H<sub>17</sub>NO<sub>6</sub>",
        "Molecular Mass": "295.29",
        "Melting Point": "148 °C"
    }
}