{
    "cas_no": "24287-95-4",
    "key_name": "2-Bromo-3-thiophenecarboxylic acid",
    "cn_name": "2-溴-3-噻吩羧酸;",
    "alternate_name": "3-Thiophenecarboxylic acid, 2-bromo-;2-Bromo-3-thiophenecarboxylic acid;Thiophene-2-bromo-3-carboxylic acid",
    "duplicated_cas_no": "",
    "SMILES": "C(O)(=O)C1=C(Br)SC=C1",
    "meta_data": {
        "InChI": "InChI=1S/C5H3BrO2S/c6-4-3(5(7)8)1-2-9-4/h1-2H,(H,7,8)",
        "InChIKey": null,
        "Canonical SMILES": "O=C(O)C=1C=CSC1Br",
        "Molecular Formula": "C<sub>5</sub>H<sub>3</sub>BrO<sub>2</sub>S",
        "Molecular Mass": "207.05",
        "Melting Point": "178-179 °C"
    }
}