{
    "cas_no": "360-54-3",
    "key_name": "Methyl 3,3,3-trifluoro-2-(trifluoromethyl)propanoate",
    "cn_name": null,
    "alternate_name": "Propanoic acid, 3,3,3-trifluoro-2-(trifluoromethyl)-, methyl ester;Propionic acid, 3,3,3-trifluoro-2-(trifluoromethyl)-, methyl ester;Methyl 3,3,3-trifluoro-2-(trifluoromethyl)propanoate;Methyl 3,3,3-trifluoro-2-(trifluoromethyl)propionate;Methyl α-hydrohexafluoroisobutyrate;Methyl 2-trifluoromethyl-3,3,3-trifluoropropionate;3,3,3-Trifluoro-2-(trifluoromethyl)propanoic acid methyl;3,3,3-Trifluoro-2-(trifluoromethyl)propanoic acid methyl ester",
    "duplicated_cas_no": "",
    "SMILES": "C(C(OC)=O)(C(F)(F)F)C(F)(F)F",
    "meta_data": {
        "InChI": "InChI=1S/C5H4F6O2/c1-13-3(12)2(4(6,7)8)5(9,10)11/h2H,1H3",
        "InChIKey": null,
        "Canonical SMILES": "O=C(OC)C(C(F)(F)F)C(F)(F)F",
        "Molecular Formula": "C<sub>5</sub>H<sub>4</sub>F<sub>6</sub>O<sub>2</sub>",
        "Molecular Mass": "210.07",
        "Boiling Point": "89 °C @ Press: 743 Torr",
        "Density": "1.4470 g/cm³ @ Temp: 20 °C"
    }
}