{
    "cas_no": "77881-13-1",
    "key_name": "Androstenedione cyanohydrin",
    "cn_name": null,
    "alternate_name": "Androst-4-ene-17-carbonitrile, 17-hydroxy-3-oxo-, (17α)-;(17α)-17-Hydroxy-3-oxoandrost-4-ene-17-carbonitrile;17β-Cyano-17α-hydroxyandrost-4-en-3-one;17α-Hydroxy-17β-cyanoandrost-4-en-3-one;Androstenedione cyanohydrin",
    "duplicated_cas_no": "",
    "SMILES": "C[C@@]12[C@]([C@]3([C@@]([C@]4(C)C(CC3)=CC(=O)CC4)(CC1)[H])[H])(CC[C@@]2(C#N)O)[H]",
    "meta_data": {
        "InChI": "InChI=1S/C20H27NO2/c1-18-8-5-14(22)11-13(18)3-4-15-16(18)6-9-19(2)17(15)7-10-20(19,23)12-21/h11,15-17,23H,3-10H2,1-2H3/t15-,16+,17+,18+,19+,20+/m1/s1",
        "InChIKey": null,
        "Canonical SMILES": "N#CC1(O)CCC2C3CCC4=CC(=O)CCC4(C)C3CCC21C",
        "Molecular Formula": "C<sub>20</sub>H<sub>27</sub>NO<sub>2</sub>",
        "Molecular Mass": "313.43",
        "Melting Point": "211-212 °C"
    }
}