{
    "cas_no": "60-87-7",
    "key_name": "(±)-Promethazine",
    "cn_name": null,
    "alternate_name": "10<em>H</em>-Phenothiazine-10-ethanamine, <em>N</em>,<em>N</em>,α-trimethyl-;Phenothiazine, 10-[2-(dimethylamino)propyl]-;<em>N</em>,<em>N</em>,α-Trimethyl-10<em>H</em>-phenothiazine-10-ethanamine;Dimapp;(2-Dimethylamino-2-methyl)ethyl-<em>N</em>-dibenzoparathiazine;10-[2-(Dimethylamino)propyl]phenothiazine;Proazamine;Procit;Promethazine;Vallergine;RP 3277;Prothazin;Diphergan;Protazine;(±)-Promethazine;Prometazin;NSC 30321;MeSH ID: D011398",
    "duplicated_cas_no": "73745-50-3",
    "SMILES": "C(C(N(C)C)C)N1C=2C(SC=3C1=CC=CC3)=CC=CC2",
    "meta_data": {
        "InChI": "InChI=1S/C17H20N2S/c1-13(18(2)3)12-19-14-8-4-6-10-16(14)20-17-11-7-5-9-15(17)19/h4-11,13H,12H2,1-3H3",
        "InChIKey": null,
        "Canonical SMILES": "S1C=2C=CC=CC2N(C=3C=CC=CC13)CC(N(C)C)C",
        "Molecular Formula": "C<sub>17</sub>H<sub>20</sub>N<sub>2</sub>S",
        "Molecular Mass": "284.42",
        "Boiling Point": "190-192 °C @ Press: 3 Torr",
        "Melting Point": "60 °C"
    }
}