{
    "cas_no": "1226-22-8",
    "key_name": "Garbanzol",
    "cn_name": null,
    "alternate_name": "4<em>H</em>-1-Benzopyran-4-one, 2,3-dihydro-3,7-dihydroxy-2-(4-hydroxyphenyl)-, (2<em>R</em>,3<em>R</em>)-;Flavanone, 3,4′,7-trihydroxy-;4<em>H</em>-1-Benzopyran-4-one, 2,3-dihydro-3,7-dihydroxy-2-(4-hydroxyphenyl)-, (2<em>R</em>-<em>trans</em>)-;(2<em>R</em>,3<em>R</em>)-2,3-Dihydro-3,7-dihydroxy-2-(4-hydroxyphenyl)-4<em>H</em>-1-benzopyran-4-one;Garbanzol;(2<em>R</em>-<em>trans</em>)-3,4′,7-Trihydroxyflavanone;5-Deoxyaromadendrin",
    "duplicated_cas_no": "",
    "SMILES": "O[C@@H]1[C@H](OC=2C(C1=O)=CC=C(O)C2)C3=CC=C(O)C=C3",
    "meta_data": {
        "InChI": "InChI=1S/C15H12O5/c16-9-3-1-8(2-4-9)15-14(19)13(18)11-6-5-10(17)7-12(11)20-15/h1-7,14-17,19H/t14-,15+/m0/s1",
        "InChIKey": null,
        "Canonical SMILES": "O=C1C2=CC=C(O)C=C2OC(C3=CC=C(O)C=C3)C1O",
        "Molecular Formula": "C<sub>15</sub>H<sub>12</sub>O<sub>5</sub>",
        "Molecular Mass": "272.25",
        "Melting Point": "207-208 °C"
    }
}