{
    "cas_no": "2142-68-9",
    "key_name": "2′-Chloroacetophenone",
    "cn_name": "2\"-氯苯基乙酮;",
    "alternate_name": "Ethanone, 1-(2-chlorophenyl)-;Acetophenone, 2′-chloro-;1-(2-Chlorophenyl)ethanone;<em>o</em>-Chloroacetophenone;2′-Chloroacetophenone;<em>o</em>-Chlorophenyl methyl ketone;Methyl 2-chlorophenyl ketone;2-Chlorophenyl methyl ketone;NSC 405474;2-Acetylphenyl chloride;2-Chloro-1-acetylbenzene;1-(2-Chlorophenyl)ethan-1-one",
    "duplicated_cas_no": "",
    "SMILES": "C(C)(=O)C1=C(Cl)C=CC=C1",
    "meta_data": {
        "InChI": "InChI=1S/C8H7ClO/c1-6(10)7-4-2-3-5-8(7)9/h2-5H,1H3",
        "InChIKey": null,
        "Canonical SMILES": "O=C(C=1C=CC=CC1Cl)C",
        "Molecular Formula": "C<sub>8</sub>H<sub>7</sub>ClO",
        "Molecular Mass": "154.59",
        "Boiling Point": "227-278 °C @ Press: 788 Torr",
        "Melting Point": "25-28 °C",
        "Density": "1.1884 g/cm³ @ Temp: 25 °C"
    }
}