{
    "cas_no": "59084-06-9",
    "key_name": "1-(2-Nitrophenyl)piperazine",
    "cn_name": "1-(2-硝基苯基)哌嗪;",
    "alternate_name": "Piperazine, 1-(2-nitrophenyl)-;Piperazine, 1-(<em>o</em>-nitrophenyl)-;1-(2-Nitrophenyl)piperazine;<em>N</em>-(2-Nitrophenyl)piperazine",
    "duplicated_cas_no": "",
    "SMILES": "N(=O)(=O)C1=C(C=CC=C1)N2CCNCC2",
    "meta_data": {
        "InChI": "InChI=1S/C10H13N3O2/c14-13(15)10-4-2-1-3-9(10)12-7-5-11-6-8-12/h1-4,11H,5-8H2",
        "InChIKey": null,
        "Canonical SMILES": "O=N(=O)C=1C=CC=CC1N2CCNCC2",
        "Molecular Formula": "C<sub>10</sub>H<sub>13</sub>N<sub>3</sub>O<sub>2</sub>",
        "Molecular Mass": "207.23",
        "Boiling Point": "120-126 °C @ Press: 0.1 Torr"
    }
}