{
    "cas_no": "38985-79-4",
    "key_name": "2-(Acetylamino)-5-bromobenzoic acid",
    "cn_name": null,
    "alternate_name": "Benzoic acid, 2-(acetylamino)-5-bromo-;Anthranilic acid, <em>N</em>-acetyl-5-bromo-;2-(Acetylamino)-5-bromobenzoic acid;<em>N</em>-Acetyl-5-bromoanthranilic acid;2-Acetamido-5-bromobenzoic acid",
    "duplicated_cas_no": "",
    "SMILES": "N(C(C)=O)C1=C(C(O)=O)C=C(Br)C=C1",
    "meta_data": {
        "InChI": "InChI=1S/C9H8BrNO3/c1-5(12)11-8-3-2-6(10)4-7(8)9(13)14/h2-4H,1H3,(H,11,12)(H,13,14)",
        "InChIKey": null,
        "Canonical SMILES": "O=C(O)C1=CC(Br)=CC=C1NC(=O)C",
        "Molecular Formula": "C<sub>9</sub>H<sub>8</sub>BrNO<sub>3</sub>",
        "Molecular Mass": "258.07",
        "Melting Point": "222-223 °C"
    }
}