{
    "cas_no": "1330-78-5",
    "key_name": "Tricresyl phosphate",
    "cn_name": null,
    "alternate_name": "Phosphoric acid, tris(methylphenyl) ester;Phosphoric acid, tritolyl ester;Kronitex;Lindol;Tricresyl phosphate;Tritolyl phosphate;Tricresol phosphate;Cresyl phosphate;Phosphoric acid tricresyl ester;Imol S 140;Disflamoll TKP;Celluflex 179C;TCP;Tris(tolyloxy)phosphine oxide;Fyrquel 150;Kronitex R;Kronitex TCP;Phosphlex 179A;Syn-O-Ad 8484;Sumiguard TBT;Reomol TCP;Tris(methylphenyl) phosphate;Durad 124;Tricresyl orthophosphate;Sansocizer TCP;Durad 125;Nissan Unflame TCP;T 306;RB 6;T 306 (ester);Lindol XP Plus;Phosflex TCP;TCF;Durad TCP;Disflamoll TKP-P;WSFR-TCP;MeSH ID: D014317",
    "duplicated_cas_no": "25013-17-6;34902-62-0;56499-45-7;56573-10-5;69234-04-4;1259372-53-6;2107376-26-9;2594422-47-4",
    "SMILES": "",
    "meta_data": {
        "InChI": "",
        "InChIKey": null,
        "Canonical SMILES": "",
        "Molecular Formula": "C<sub>21</sub>H<sub>21</sub>O<sub>4</sub>P",
        "Molecular Mass": "",
        "Boiling Point": "420 °C",
        "Melting Point": "-33 °C",
        "Density": "1.215 g/cm³ @ Temp: 15 °C"
    }
}