{
    "cas_no": "28314-80-9",
    "key_name": "2,4,6-Trifluorobenzoic acid",
    "cn_name": "2,4,6-三氟苯甲酸;",
    "alternate_name": "Benzoic acid, 2,4,6-trifluoro-;2,4,6-Trifluorobenzoic acid",
    "duplicated_cas_no": "",
    "SMILES": "C(O)(=O)C1=C(F)C=C(F)C=C1F",
    "meta_data": {
        "InChI": "InChI=1S/C7H3F3O2/c8-3-1-4(9)6(7(11)12)5(10)2-3/h1-2H,(H,11,12)",
        "InChIKey": null,
        "Canonical SMILES": "O=C(O)C=1C(F)=CC(F)=CC1F",
        "Molecular Formula": "C<sub>7</sub>H<sub>3</sub>F<sub>3</sub>O<sub>2</sub>",
        "Molecular Mass": "176.09",
        "Melting Point": "143 °C"
    }
}