{
    "cas_no": "16709-86-7",
    "key_name": "(Chloromethyl)ethenyldimethylsilane",
    "cn_name": "乙烯基(氯甲基)二甲基硅烷;氯甲基乙基二甲基硅烷;",
    "alternate_name": "Silane, (chloromethyl)ethenyldimethyl-;Silane, (chloromethyl)dimethylvinyl-;(Chloromethyl)ethenyldimethylsilane;(Chloromethyl)dimethylvinylsilane;Vinyl(chloromethyl)dimethylsilane;Dimethylvinylsilylmethyl chloride;(Chloromethyl)(vinyl)dimethylsilane",
    "duplicated_cas_no": "",
    "SMILES": "[Si](C=C)(CCl)(C)C",
    "meta_data": {
        "InChI": "InChI=1S/C5H11ClSi/c1-4-7(2,3)5-6/h4H,1,5H2,2-3H3",
        "InChIKey": null,
        "Canonical SMILES": "ClC[Si](C=C)(C)C",
        "Molecular Formula": "C<sub>5</sub>H<sub>11</sub>ClSi",
        "Molecular Mass": "134.68",
        "Boiling Point": "121-122 °C",
        "Density": "0.893 g/cm³"
    }
}