{
    "cas_no": "6051-43-0",
    "key_name": "4-(Aminocarbonyl)benzoic acid",
    "cn_name": "对苯二甲酸单酰胺;",
    "alternate_name": "Benzoic acid, 4-(aminocarbonyl)-;Terephthalamic acid;4-(Aminocarbonyl)benzoic acid;<em>p</em>-Carbamoylbenzoic acid;4-Carbamoylbenzoic acid;<em>p</em>-Carboxybenzamide",
    "duplicated_cas_no": "879721-21-8",
    "SMILES": "C(N)(=O)C1=CC=C(C(O)=O)C=C1",
    "meta_data": {
        "InChI": "InChI=1S/C8H7NO3/c9-7(10)5-1-3-6(4-2-5)8(11)12/h1-4H,(H2,9,10)(H,11,12)",
        "InChIKey": null,
        "Canonical SMILES": "O=C(O)C1=CC=C(C=C1)C(=O)N",
        "Molecular Formula": "C<sub>8</sub>H<sub>7</sub>NO<sub>3</sub>",
        "Molecular Mass": "165.15",
        "Melting Point": "208 °C"
    }
}