{
    "cas_no": "7763-16-8",
    "key_name": "<em>N</em><sup>2</sup>-[(Phenylmethoxy)carbonyl]-<span class=\"text-smallcaps\">L</span>-glutamine 4-nitrophenyl ester",
    "cn_name": "Z-谷氨酰胺对硝基苯酯;Z-谷氨酰胺对硝基苯酯;",
    "alternate_name": "<span class=\"text-smallcaps\">L</span>-Glutamine, <em>N</em><sup>2</sup>-[(phenylmethoxy)carbonyl]-, 4-nitrophenyl ester;Glutamine, <em>N</em><sup>2</sup>-carboxy-, <em>N</em><sup>2</sup>-benzyl <em>p</em>-nitrophenyl ester, <span class=\"text-smallcaps\">L</span>-;Glutamine, <em>N</em><sup>2</sup>-carboxy-, <em>N</em>-benzyl <em>p</em>-nitrophenyl ester;<em>N</em><sup>2</sup>-[(Phenylmethoxy)carbonyl]-<span class=\"text-smallcaps\">L</span>-glutamine 4-nitrophenyl ester;<em>N</em><sup>2</sup>-(Benzyloxycarbonyl)-<span class=\"text-smallcaps\">L</span>-glutamine <em>p</em>-nitrophenyl ester;<em>N</em>-Carbobenzoxy-<span class=\"text-smallcaps\">L</span>-glutamine-<em>p</em>-nitrophenyl ester",
    "duplicated_cas_no": "51536-68-6",
    "SMILES": "[C@H](C(OC1=CC=C(N(=O)=O)C=C1)=O)(NC(OCC2=CC=CC=C2)=O)CCC(N)=O",
    "meta_data": {
        "InChI": "InChI=1S/C19H19N3O7/c20-17(23)11-10-16(21-19(25)28-12-13-4-2-1-3-5-13)18(24)29-15-8-6-14(7-9-15)22(26)27/h1-9,16H,10-12H2,(H2,20,23)(H,21,25)/t16-/m0/s1",
        "InChIKey": null,
        "Canonical SMILES": "O=C(OCC=1C=CC=CC1)NC(C(=O)OC2=CC=C(C=C2)N(=O)=O)CCC(=O)N",
        "Molecular Formula": "C<sub>19</sub>H<sub>19</sub>N<sub>3</sub>O<sub>7</sub>",
        "Molecular Mass": "401.37",
        "Melting Point": "151-153 °C"
    }
}