{
    "cas_no": "26473-47-2",
    "key_name": "3-Mercaptoisobutyric acid",
    "cn_name": "3-巯基异丁酸;",
    "alternate_name": "Propanoic acid, 3-mercapto-2-methyl-;Propionic acid, 3-mercapto-2-methyl-;Isobutyric acid, β-mercapto-;3-Mercapto-2-methylpropanoic acid;3-Mercapto-2-methylpropionic acid;3-Mercaptoisobutyric acid",
    "duplicated_cas_no": "74709-27-6",
    "SMILES": "C(C(O)=O)(CS)C",
    "meta_data": {
        "InChI": "InChI=1S/C4H8O2S/c1-3(2-7)4(5)6/h3,7H,2H2,1H3,(H,5,6)",
        "InChIKey": null,
        "Canonical SMILES": "O=C(O)C(C)CS",
        "Molecular Formula": "C<sub>4</sub>H<sub>8</sub>O<sub>2</sub>S",
        "Molecular Mass": "120.17",
        "Boiling Point": "120-122 °C @ Press: 12 Torr"
    }
}