{
    "cas_no": "17643-36-6",
    "key_name": "9-Decyn-1-ol",
    "cn_name": "9-癸炔-1-醇;",
    "alternate_name": "9-Decyn-1-ol;9-Decynyl alcohol",
    "duplicated_cas_no": "",
    "SMILES": "C(CCCC#C)CCCCO",
    "meta_data": {
        "InChI": "InChI=1S/C10H18O/c1-2-3-4-5-6-7-8-9-10-11/h1,11H,3-10H2",
        "InChIKey": null,
        "Canonical SMILES": "C#CCCCCCCCCO",
        "Molecular Formula": "C<sub>10</sub>H<sub>18</sub>O",
        "Molecular Mass": "154.25",
        "Boiling Point": "78-79 °C @ Press: 0.5 Torr"
    }
}