{
    "cas_no": "14736-31-3",
    "key_name": "Ethyl 4-oxo-4<em>H</em>-1-benzopyran-2-carboxylate",
    "cn_name": null,
    "alternate_name": "4<em>H</em>-1-Benzopyran-2-carboxylic acid, 4-oxo-, ethyl ester;Ethyl 4-oxo-4<em>H</em>-1-benzopyran-2-carboxylate;Ethyl chromone-2-carboxylate;2-(Ethoxycarbonyl)chromone;2-Ethoxycarbonyl-4-oxo-4<em>H</em>-1-benzopyran",
    "duplicated_cas_no": "",
    "SMILES": "O=C1C=2C(OC(C(OCC)=O)=C1)=CC=CC2",
    "meta_data": {
        "InChI": "InChI=1S/C12H10O4/c1-2-15-12(14)11-7-9(13)8-5-3-4-6-10(8)16-11/h3-7H,2H2,1H3",
        "InChIKey": null,
        "Canonical SMILES": "O=C(OCC)C=1OC=2C=CC=CC2C(=O)C1",
        "Molecular Formula": "C<sub>12</sub>H<sub>10</sub>O<sub>4</sub>",
        "Molecular Mass": "218.21",
        "Melting Point": "71-72 °C"
    }
}