{
    "cas_no": "132201-32-2",
    "key_name": "Benzenepropanoic acid, β-amino-α-hydroxy-, hydrochloride (1:1), (α<em>R</em>,β<em>S</em>)-",
    "cn_name": "(2R,3S)-3-苯基异丝氨酸盐酸盐;(2R,3S)-3-氨基-2-羟基-3-苯基丙酸盐酸盐;",
    "alternate_name": "Benzenepropanoic acid, β-amino-α-hydroxy-, hydrochloride (1:1), (α<em>R</em>,β<em>S</em>)-;Benzenepropanoic acid, β-amino-α-hydroxy-, hydrochloride, [<em>R</em>-(<em>R</em>*,<em>S</em>*)]-;Benzenepropanoic acid, β-amino-α-hydroxy-, hydrochloride, (α<em>R</em>,β<em>S</em>)-;(2<em>R</em>,3<em>S</em>)-3-Phenylisoserine hydrochloride",
    "duplicated_cas_no": "",
    "SMILES": "[C@H]([C@H](C(O)=O)O)(N)C1=CC=CC=C1.Cl",
    "meta_data": {
        "InChI": "InChI=1S/C9H11NO3.ClH/c10-7(8(11)9(12)13)6-4-2-1-3-5-6;/h1-5,7-8,11H,10H2,(H,12,13);1H/t7-,8+;/m0./s1",
        "InChIKey": null,
        "Canonical SMILES": "Cl.O=C(O)C(O)C(N)C=1C=CC=CC1",
        "Molecular Formula": "C<sub>9</sub>H<sub>11</sub>NO<sub>3</sub>.ClH",
        "Molecular Mass": "",
        "Melting Point": "222-224 °C (decomp)"
    }
}