{
    "cas_no": "102-16-9",
    "key_name": "Benzyl phenylacetate",
    "cn_name": "苯乙酸苯甲酯;",
    "alternate_name": "Benzeneacetic acid, phenylmethyl ester;Acetic acid, phenyl-, benzyl ester;Benzyl phenylacetate;Benzyl α-toluate;Benzyl benzeneacetate;Benzyl 2-phenylacetate",
    "duplicated_cas_no": "1071573-04-0",
    "SMILES": "C(C(OCC1=CC=CC=C1)=O)C2=CC=CC=C2",
    "meta_data": {
        "InChI": "InChI=1S/C15H14O2/c16-15(11-13-7-3-1-4-8-13)17-12-14-9-5-2-6-10-14/h1-10H,11-12H2",
        "InChIKey": null,
        "Canonical SMILES": "O=C(OCC=1C=CC=CC1)CC=2C=CC=CC2",
        "Molecular Formula": "C<sub>15</sub>H<sub>14</sub>O<sub>2</sub>",
        "Molecular Mass": "226.27",
        "Boiling Point": "175-176 °C @ Press: 12 Torr",
        "Melting Point": "51-52 °C"
    }
}