{
    "cas_no": "2161-85-5",
    "key_name": "4,6-Diacetylresorcinol",
    "cn_name": "1,1-(4,6-二羟基-1,3-次苯基)二乙酮;4,6-二乙酰基树脂酚;",
    "alternate_name": "Ethanone, 1,1′-(4,6-dihydroxy-1,3-phenylene)bis-;Resorcinol, 4,6-diacetyl-;1,1′-(4,6-Dihydroxy-1,3-phenylene)bis[ethanone];4,6-Diacetyl-1,3-benzenediol;4,6-Diacetylresorcinol;Resodiacetophenone;5′-Acetyl-2′,4′-dihydroxyacetophenone;2′,4′-Dihydroxy-5′-acetylacetophenone;1,3-Diacetyl-4,6-dihydroxybenzene;Resdiacetophenone;1,5-Diacetyl-2,4-dihydroxybenzene;1,1′-(4,6-Dihydroxybenzene-1,3-diyl)diethanone;1-(5-Acetyl-2,4-dihydroxyphenyl)ethanone;1-(5-Acetyl-2,4-dihydroxyphenyl)ethan-1-one;1,1′-(4,6-Dihydroxy-1,3-phenylene)diethanone",
    "duplicated_cas_no": "",
    "SMILES": "C(C)(=O)C1=CC(C(C)=O)=C(O)C=C1O",
    "meta_data": {
        "InChI": "InChI=1S/C10H10O4/c1-5(11)7-3-8(6(2)12)10(14)4-9(7)13/h3-4,13-14H,1-2H3",
        "InChIKey": null,
        "Canonical SMILES": "O=C(C=1C=C(C(O)=CC1O)C(=O)C)C",
        "Molecular Formula": "C<sub>10</sub>H<sub>10</sub>O<sub>4</sub>",
        "Molecular Mass": "194.18",
        "Melting Point": "182 °C"
    }
}