{
    "cas_no": "542-54-1",
    "key_name": "4-Methylpentanenitrile",
    "cn_name": "异己腈;4-甲基戊腈;氰化异戊烷;异戊基氰;",
    "alternate_name": "Pentanenitrile, 4-methyl-;Valeronitrile, 4-methyl-;4-Methylpentanenitrile;Isoamyl cyanide;Isocapronitrile;4-Methylvaleronitrile;4-Methylpentanonitrile;Isohexanonitrile;Isopentyl cyanide;NSC 6109;Isopentylnitrile;4-Methylpentenenitrile",
    "duplicated_cas_no": "",
    "SMILES": "C(C(C)C)CC#N",
    "meta_data": {
        "InChI": "InChI=1S/C6H11N/c1-6(2)4-3-5-7/h6H,3-4H2,1-2H3",
        "InChIKey": null,
        "Canonical SMILES": "N#CCCC(C)C",
        "Molecular Formula": "C<sub>6</sub>H<sub>11</sub>N",
        "Molecular Mass": "97.16",
        "Boiling Point": "156.5 °C",
        "Melting Point": "-51 °C",
        "Density": "0.8009 g/cm³ @ Temp: 20 °C"
    }
}