{
    "cas_no": "569-51-7",
    "key_name": "1,2,3-Benzenetricarboxylic acid",
    "cn_name": "1,2,3-苯三甲酸;连苯三甲酸;",
    "alternate_name": "1,2,3-Benzenetricarboxylic acid;Hemimellitic acid;1,2,3-Tricarboxybenzene;NSC 401092",
    "duplicated_cas_no": "",
    "SMILES": "C(O)(=O)C1=C(C(O)=O)C=CC=C1C(O)=O",
    "meta_data": {
        "InChI": "InChI=1S/C9H6O6/c10-7(11)4-2-1-3-5(8(12)13)6(4)9(14)15/h1-3H,(H,10,11)(H,12,13)(H,14,15)",
        "InChIKey": null,
        "Canonical SMILES": "O=C(O)C1=CC=CC(C(=O)O)=C1C(=O)O",
        "Molecular Formula": "C<sub>9</sub>H<sub>6</sub>O<sub>6</sub>",
        "Molecular Mass": "210.14",
        "Melting Point": "200 °C"
    }
}