{
    "cas_no": "717-74-8",
    "key_name": "1,3,5-Triisopropylbenzene",
    "cn_name": "1,3,5-三异丙基苯;",
    "alternate_name": "Benzene, 1,3,5-tris(1-methylethyl)-;Benzene, 1,3,5-triisopropyl-;1,3,5-Tris(1-methylethyl)benzene;2,4,6-Triisopropylbenzene;1,3,5-Triisopropylbenzene;1,3,5-Tris(isopropyl)benzene;NSC 403075;1,3,5-Tri(propan-2-yl)benzene;1,3,5-Tris(propan-2-yl)benzene",
    "duplicated_cas_no": "",
    "SMILES": "C(C)(C)C1=CC(C(C)C)=CC(C(C)C)=C1",
    "meta_data": {
        "InChI": "InChI=1S/C15H24/c1-10(2)13-7-14(11(3)4)9-15(8-13)12(5)6/h7-12H,1-6H3",
        "InChIKey": null,
        "Canonical SMILES": "C=1C(=CC(=CC1C(C)C)C(C)C)C(C)C",
        "Molecular Formula": "C<sub>15</sub>H<sub>24</sub>",
        "Molecular Mass": "204.35",
        "Boiling Point": "238 °C",
        "Melting Point": "-7.4 °C",
        "Density": "0.8547 g/cm³ @ Temp: 20 °C"
    }
}