{
    "cas_no": "76497-39-7",
    "key_name": "<span class=\"text-smallcaps\">D</span>-β-Acetylthioisobutyric acid",
    "cn_name": null,
    "alternate_name": "Propanoic acid, 3-(acetylthio)-2-methyl-, (2<em>S</em>)-;Propanoic acid, 3-(acetylthio)-2-methyl-, (<em>S</em>)-;(2<em>S</em>)-3-(Acetylthio)-2-methylpropanoic acid;<span class=\"text-smallcaps\">D</span>-3-Acetylthio-2-methylpropionic acid;(<em>S</em>)-3-(Acetylthio)-2-methylpropanoic acid;(<em>S</em>)-3-Acetylthio-2-methylpropionic acid;<span class=\"text-smallcaps\">D</span>-β-Acetylthioisobutyric acid;<span class=\"text-smallcaps\">D</span>-(-)-3-Acetylthio-2-methylpropionic acid;(<em>S</em>)-3-Acetylsulfanyl-2-methylpropionic acid;(2S)-3-Acetylsulfanyl-2-methylpropanoic acid;(2S)-3-(Acetylsulfanyl)-2-methylpropanoic acid",
    "duplicated_cas_no": "125768-54-9",
    "SMILES": "[C@@H](CSC(C)=O)(C(O)=O)C",
    "meta_data": {
        "InChI": "InChI=1S/C6H10O3S/c1-4(6(8)9)3-10-5(2)7/h4H,3H2,1-2H3,(H,8,9)/t4-/m1/s1",
        "InChIKey": null,
        "Canonical SMILES": "O=C(SCC(C(=O)O)C)C",
        "Molecular Formula": "C<sub>6</sub>H<sub>10</sub>O<sub>3</sub>S",
        "Molecular Mass": "162.21",
        "Melting Point": "131-132 °C"
    }
}