{
    "cas_no": "23056-40-8",
    "key_name": "2-Chloro-5-methyl-3-nitropyridine",
    "cn_name": "2-氯-5-甲基-3-硝基吡啶;",
    "alternate_name": "Pyridine, 2-chloro-5-methyl-3-nitro-;3-Picoline, 6-chloro-5-nitro-;2-Chloro-5-methyl-3-nitropyridine;5-Methyl-2-chloro-3-nitropyridine;5-Methyl-3-nitro-2-chloropyridine;2-Chloro-3-nitro-5-methylpyridine",
    "duplicated_cas_no": "",
    "SMILES": "N(=O)(=O)C1=C(Cl)N=CC(C)=C1",
    "meta_data": {
        "InChI": "InChI=1S/C6H5ClN2O2/c1-4-2-5(9(10)11)6(7)8-3-4/h2-3H,1H3",
        "InChIKey": null,
        "Canonical SMILES": "O=N(=O)C1=CC(=CN=C1Cl)C",
        "Molecular Formula": "C<sub>6</sub>H<sub>5</sub>ClN<sub>2</sub>O<sub>2</sub>",
        "Molecular Mass": "172.57",
        "Melting Point": "50-51 °C"
    }
}