{
    "cas_no": "1152-62-1",
    "key_name": "Benzyloxycarbonyl-<span class=\"text-smallcaps\">L</span>-methionine",
    "cn_name": "N-Cbz-L-蛋氨酸;N-苄氧羰基-L-蛋氨酸;",
    "alternate_name": "<span class=\"text-smallcaps\">L</span>-Methionine, <em>N</em>-[(phenylmethoxy)carbonyl]-;Methionine, <em>N</em>-carboxy-, <em>N</em>-benzyl ester, <span class=\"text-smallcaps\">L</span>-;Methionine, <em>N</em>-carboxy-, <em>N</em>-benzyl ester;<em>N</em>-[(Phenylmethoxy)carbonyl]-<span class=\"text-smallcaps\">L</span>-methionine;<em>N</em>-(Benzyloxycarbonyl)-<span class=\"text-smallcaps\">L</span>-methionine;(Benzyloxycarbonyl)methionine;<em>N</em>-(Benzyloxycarbonyl)methionine;Benzyloxycarbonyl-<span class=\"text-smallcaps\">L</span>-methionine;<em>N</em>-(Carbobenzyloxy)methionine;<em>N</em>-Carbobenzoxy-<span class=\"text-smallcaps\">L</span>-methionine;<span class=\"text-smallcaps\">L</span>-(Carbobenzyloxy)methionine;CBZ-<span class=\"text-smallcaps\">L</span>-Methionine;<em>N</em>-Carbobenzyloxy-<span class=\"text-smallcaps\">L</span>-methionine;(<span class=\"text-smallcaps\">L</span>)-<em>N</em>-Benzyloxycarbonylmethionine;NSC 88497;<em>N</em>-CBZ-<span class=\"text-smallcaps\">L</span>-methionine;(2S)-2-[[(Benzyloxy)carbonyl]amino]-4-(methylsulfanyl)butanoic acid;(2S)-4-Methylsulfanyl-2-(phenylmethoxycarbonylamino)butanoic acid",
    "duplicated_cas_no": "24579-80-4",
    "SMILES": "C(OC(N[C@@H](CCSC)C(O)=O)=O)C1=CC=CC=C1",
    "meta_data": {
        "InChI": "InChI=1S/C13H17NO4S/c1-19-8-7-11(12(15)16)14-13(17)18-9-10-5-3-2-4-6-10/h2-6,11H,7-9H2,1H3,(H,14,17)(H,15,16)/t11-/m0/s1",
        "InChIKey": null,
        "Canonical SMILES": "O=C(OCC=1C=CC=CC1)NC(C(=O)O)CCSC",
        "Molecular Formula": "C<sub>13</sub>H<sub>17</sub>NO<sub>4</sub>S",
        "Molecular Mass": "283.34",
        "Melting Point": "69 °C"
    }
}