{
    "cas_no": "1825-59-8",
    "key_name": "1,1′-(Ethoxymethylsilylene)bis[benzene]",
    "cn_name": "甲基二苯基乙氧基硅烷;",
    "alternate_name": "Benzene, 1,1′-(ethoxymethylsilylene)bis-;Silane, ethoxymethyldiphenyl-;1,1′-(Ethoxymethylsilylene)bis[benzene];Methyldiphenylethoxysilane;Ethoxymethyldiphenylsilane;Diphenylmethylethoxysilane",
    "duplicated_cas_no": "",
    "SMILES": "[Si](OCC)(C)(C1=CC=CC=C1)C2=CC=CC=C2",
    "meta_data": {
        "InChI": "InChI=1S/C15H18OSi/c1-3-16-17(2,14-10-6-4-7-11-14)15-12-8-5-9-13-15/h4-13H,3H2,1-2H3",
        "InChIKey": null,
        "Canonical SMILES": "O(CC)[Si](C=1C=CC=CC1)(C=2C=CC=CC2)C",
        "Molecular Formula": "C<sub>15</sub>H<sub>18</sub>OSi",
        "Molecular Mass": "242.39",
        "Boiling Point": "100-102 °C @ Press: 0.3 Torr",
        "Melting Point": "-27 °C",
        "Density": "1.018 g/cm³"
    }
}