{
    "cas_no": "139122-81-9",
    "key_name": "Tripterifordin",
    "cn_name": null,
    "alternate_name": "Kauran-18-oic acid, 16,20-dihydroxy-, δ-lactone, (4α)-;1<em>H</em>,3<em>H</em>-6a,9-Methano-4,11b-propanocyclohepta[<em>h</em>][2]benzopyran, kauran-18-oic acid deriv.;Tripterifordin;(-)-Tripterifordin;Hypodiolide A;Antriptolactone;Hydroxyodolide",
    "duplicated_cas_no": "",
    "SMILES": "C[C@@]12[C@@]3([C@@]([C@]4([C@]5(C[C@@](CC4)([C@](C)(O)C5)[H])CC3)[H])(COC1=O)CCC2)[H]",
    "meta_data": {
        "InChI": "InChI=1S/C20H30O3/c1-17-7-3-8-20(12-23-16(17)21)14(17)6-9-19-10-13(4-5-15(19)20)18(2,22)11-19/h13-15,22H,3-12H2,1-2H3/t13-,14-,15-,17-,18-,19+,20+/m1/s1",
        "InChIKey": null,
        "Canonical SMILES": "O=C1OCC23CCCC1(C)C3CCC45CC(CCC42)C(O)(C)C5",
        "Molecular Formula": "C<sub>20</sub>H<sub>30</sub>O<sub>3</sub>",
        "Molecular Mass": "318.45",
        "Melting Point": "245-248 °C"
    }
}