{
    "cas_no": "101580-70-5",
    "key_name": "1,2-Dibromo-4-methyl-5-nitrobenzene",
    "cn_name": null,
    "alternate_name": "Benzene, 1,2-dibromo-4-methyl-5-nitro-;Toluene, 4,5-dibromo-2-nitro-;1,2-Dibromo-4-methyl-5-nitrobenzene;4,5-Dibromo-2-nitrotoluene",
    "duplicated_cas_no": "",
    "SMILES": "N(=O)(=O)C1=C(C)C=C(Br)C(Br)=C1",
    "meta_data": {
        "InChI": "InChI=1S/C7H5Br2NO2/c1-4-2-5(8)6(9)3-7(4)10(11)12/h2-3H,1H3",
        "InChIKey": null,
        "Canonical SMILES": "O=N(=O)C1=CC(Br)=C(Br)C=C1C",
        "Molecular Formula": "C<sub>7</sub>H<sub>5</sub>Br<sub>2</sub>NO<sub>2</sub>",
        "Molecular Mass": "294.93",
        "Melting Point": "90.5-91.5 °C"
    }
}