{
    "cas_no": "455-88-9",
    "key_name": "2-Fluoro-5-nitrotoluene",
    "cn_name": "2-氟-5-硝基甲苯;",
    "alternate_name": "Benzene, 1-fluoro-2-methyl-4-nitro-;Toluene, 2-fluoro-5-nitro-;1-Fluoro-2-methyl-4-nitrobenzene;2-Fluoro-5-nitrotoluene;3-Methyl-4-fluoronitrobenzene;5-Nitro-2-fluorotoluene;4-Fluoro-3-methylnitrobenzene;2-Methyl-4-nitrofluorobenzene;4-Fluoro-3-methyl-1-nitrobenzene",
    "duplicated_cas_no": "",
    "SMILES": "N(=O)(=O)C1=CC(C)=C(F)C=C1",
    "meta_data": {
        "InChI": "InChI=1S/C7H6FNO2/c1-5-4-6(9(10)11)2-3-7(5)8/h2-4H,1H3",
        "InChIKey": null,
        "Canonical SMILES": "O=N(=O)C1=CC=C(F)C(=C1)C",
        "Molecular Formula": "C<sub>7</sub>H<sub>6</sub>FNO<sub>2</sub>",
        "Molecular Mass": "155.13",
        "Boiling Point": "99.4-99.6 °C @ Press: 13 Torr",
        "Melting Point": "41 °C"
    }
}