{
    "cas_no": "61597-37-3",
    "key_name": "4-Methoxy-α,α-dimethyl-1,4-cyclohexadiene-1-methanol",
    "cn_name": "2-(4-甲氧基-1,4-环己二烯-1-基)-2-丙醇;",
    "alternate_name": "1,4-Cyclohexadiene-1-methanol, 4-methoxy-α,α-dimethyl-;4-Methoxy-α,α-dimethyl-1,4-cyclohexadiene-1-methanol;2-(4-Methoxycyclohexa-1,4-dien-1-yl)propan-2-ol",
    "duplicated_cas_no": "",
    "SMILES": "C(C)(C)(O)C=1CC=C(OC)CC1",
    "meta_data": {
        "InChI": "InChI=1S/C10H16O2/c1-10(2,11)8-4-6-9(12-3)7-5-8/h4,7,11H,5-6H2,1-3H3",
        "InChIKey": null,
        "Canonical SMILES": "OC(C1=CCC(OC)=CC1)(C)C",
        "Molecular Formula": "C<sub>10</sub>H<sub>16</sub>O<sub>2</sub>",
        "Molecular Mass": "168.23",
        "Boiling Point": "128-130 °C @ Press: 16 Torr"
    }
}