{
    "cas_no": "851179-00-5",
    "key_name": "3-Chloro-2,5-difluoropyridine",
    "cn_name": null,
    "alternate_name": "Pyridine, 3-chloro-2,5-difluoro-;3-Chloro-2,5-difluoropyridine",
    "duplicated_cas_no": "",
    "SMILES": "ClC1=C(F)N=CC(F)=C1",
    "meta_data": {
        "InChI": "InChI=1S/C5H2ClF2N/c6-4-1-3(7)2-9-5(4)8/h1-2H",
        "InChIKey": null,
        "Canonical SMILES": "FC1=CN=C(F)C(Cl)=C1",
        "Molecular Formula": "C<sub>5</sub>H<sub>2</sub>ClF<sub>2</sub>N",
        "Molecular Mass": "149.53",
        "Boiling Point": "136-137 °C",
        "Melting Point": "10-12 °C"
    }
}