{
    "cas_no": "917-54-4",
    "key_name": "Methyllithium",
    "cn_name": null,
    "alternate_name": "Lithium, methyl-;Methyllithium;Lithium methide",
    "duplicated_cas_no": "12540-68-0;33825-29-5",
    "SMILES": "C[Li]",
    "meta_data": {
        "InChI": "InChI=1S/CH3.Li/h1H3;",
        "InChIKey": null,
        "Canonical SMILES": "[Li]C",
        "Molecular Formula": "CH<sub>3</sub>Li",
        "Molecular Mass": "",
        "Melting Point": "70-71 °C"
    }
}