{
    "cas_no": "34622-58-7",
    "key_name": "Orbencarb",
    "cn_name": "除草丹;S-(2-氯苄基)-N，N-二乙基硫代氨基甲酸酯；甲基杀草丹；旱草丹；坪草丹；拦草净；931；B-3356;",
    "alternate_name": "Carbamothioic acid, <em>N</em>,<em>N</em>-diethyl-, <em>S</em>-[(2-chlorophenyl)methyl] ester;Carbamothioic acid, diethyl-, <em>S</em>-[(2-chlorophenyl)methyl] ester;<em>S</em>-(<em>o</em>-Chlorobenzyl) <em>N</em>,<em>N</em>-diethylthiocarbamate;<em>S</em>-2-Chlorobenzyl <em>N</em>,<em>N</em>-diethylthiocarbamate;B 3356;Orthobencarb;Orbencarb",
    "duplicated_cas_no": "",
    "SMILES": "C(SC(N(CC)CC)=O)C1=C(Cl)C=CC=C1",
    "meta_data": {
        "InChI": "InChI=1S/C12H16ClNOS/c1-3-14(4-2)12(15)16-9-10-7-5-6-8-11(10)13/h5-8H,3-4,9H2,1-2H3",
        "InChIKey": null,
        "Canonical SMILES": "O=C(SCC=1C=CC=CC1Cl)N(CC)CC",
        "Molecular Formula": "C<sub>12</sub>H<sub>16</sub>ClNOS",
        "Molecular Mass": "257.78",
        "Boiling Point": "158 °C",
        "Melting Point": "9 °C"
    }
}