{
    "cas_no": "37677-14-8",
    "key_name": "Myrac aldehyde",
    "cn_name": "4-(4-甲基-3-戊烯基)-3-环己烯-1-甲醛;柑青醛;",
    "alternate_name": "3-Cyclohexene-1-carboxaldehyde, 4-(4-methyl-3-penten-1-yl)-;3-Cyclohexene-1-carboxaldehyde, 4-(4-methyl-3-pentenyl)-;4-(4-Methyl-3-penten-1-yl)-3-cyclohexene-1-carboxaldehyde;1-(4-Methyl-3-pentenyl)-1-cyclohexene-4-carboxaldehyde;1-(4-Methyl-3-pentenyl)-4-formyl-1-cyclohexene;4-(4-Methyl-3-pentenyl)-3-cyclohexenecarboxaldehyde;Myrac aldehyde;Para-myrac aldehyde;Empetaal;4-(4′-Methylpent-3′-enyl)cyclohex-3-enal;<em>p</em>-Myrac aldehyde;Emfetal;4-(4-Methyl-3-pentenyl)-3-cyclohexene-1-carboxaldehyde;4-(4-Methylpent-3-en-1-yl)cyclohex-3-ene-1-carboxaldehyde;Isohexenyl cyclohexenylcarboxaldehyde;Vertomugal;4-(4-Methylpent-3-enyl)cyclohex-3-ene-1-carbaldehyde;4-(4-Methylpent-3-en-1-yl)cyclohex-3-enecarboxaldehyde",
    "duplicated_cas_no": "128352-68-1;80450-04-0;939768-33-9",
    "SMILES": "C(CC=C(C)C)C=1CCC(C=O)CC1",
    "meta_data": {
        "InChI": "InChI=1S/C13H20O/c1-11(2)4-3-5-12-6-8-13(10-14)9-7-12/h4,6,10,13H,3,5,7-9H2,1-2H3",
        "InChIKey": null,
        "Canonical SMILES": "O=CC1CC=C(CCC=C(C)C)CC1",
        "Molecular Formula": "C<sub>13</sub>H<sub>20</sub>O",
        "Molecular Mass": "192.30",
        "Boiling Point": "108 °C @ Press: 1.6 Torr",
        "Density": "0.933 g/cm³ @ Temp: 20 °C"
    }
}