{
    "cas_no": "39590-81-3",
    "key_name": "1,1-Cyclopropanedimethanol",
    "cn_name": "1,1-环丙烷二甲醇;1,1-环丙二甲醇;",
    "alternate_name": "1,1-Cyclopropanedimethanol;1,1-Bis(hydroxymethyl)cyclopropane;1,1-Di(hydroxymethyl)cyclopropane;2,2-(1,2-Ethylene)-1,3-propanediol;(1-Hydroxymethylcyclopropyl)methanol;Cyclopropane-1,1-bis(methanol);Cyclopropane-1,1-diyldimethanol",
    "duplicated_cas_no": "",
    "SMILES": "C(O)C1(CO)CC1",
    "meta_data": {
        "InChI": "InChI=1S/C5H10O2/c6-3-5(4-7)1-2-5/h6-7H,1-4H2",
        "InChIKey": null,
        "Canonical SMILES": "OCC1(CO)CC1",
        "Molecular Formula": "C<sub>5</sub>H<sub>10</sub>O<sub>2</sub>",
        "Molecular Mass": "102.13",
        "Boiling Point": "123-127 °C @ Press: 12 Torr",
        "Density": "1.0710 g/cm³ @ Temp: 20 °C"
    }
}