{
    "cas_no": "58-61-7",
    "key_name": "Adenosine",
    "cn_name": "腺苷;腺甙;腺嘌呤核苷;9-beta-D-呋喃核糖基腺嘌呤;",
    "alternate_name": "Adenosine;Adenine riboside;9-β-<span class=\"text-smallcaps\">D</span>-Ribofuranosyladenine;β-<span class=\"text-smallcaps\">D</span>-Adenosine;9<em>H</em>-Purin-6-amine, 9-β-<span class=\"text-smallcaps\">D</span>-ribofuranosyl-;β-<span class=\"text-smallcaps\">D</span>-Ribofuranose, 1-(6-amino-9<em>H</em>-purin-9-yl)-1-deoxy-;β-<span class=\"text-smallcaps\">D</span>-Ribofuranoside, adenine-9;β-Adenosine;Boniton;Myocol;Nucleocardyl;Sandesin;Riboadenosine;9-β-<span class=\"text-smallcaps\">D</span>-Ribofuranosyl-9<em>H</em>-purin-6-amine;<span class=\"text-smallcaps\">D</span>-Adenosine;Adenocard;Adenoscan;Adrekar;Adenocor;NSC 7652;24: PN: WO2007053194 SEQID: 49 claimed sequence;26: PN: WO2007053194 SEQID: 49 claimed sequence;27: PN: WO2007053194 SEQID: 49 claimed sequence;Adenogesic;NQZ-012;MeSH ID: D000241",
    "duplicated_cas_no": "46946-45-6;46969-16-8;1348387-95-0",
    "SMILES": "O[C@H]1[C@H](N2C=3C(N=C2)=C(N)N=CN3)O[C@H](CO)[C@H]1O",
    "meta_data": {
        "InChI": "InChI=1S/C10H13N5O4/c11-8-5-9(13-2-12-8)15(3-14-5)10-7(18)6(17)4(1-16)19-10/h2-4,6-7,10,16-18H,1H2,(H2,11,12,13)/t4-,6-,7-,10-/m1/s1",
        "InChIKey": null,
        "Canonical SMILES": "OCC1OC(N2C=NC=3C(=NC=NC32)N)C(O)C1O",
        "Molecular Formula": "C<sub>10</sub>H<sub>13</sub>N<sub>5</sub>O<sub>4</sub>",
        "Molecular Mass": "267.24",
        "Melting Point": "235.5 °C"
    }
}