{
    "cas_no": "39186-58-8",
    "key_name": "4-Bromo-2,2-diphenylbutyronitrile",
    "cn_name": "溴乙基二苯乙腈;4-溴-2,2-二苯基丁腈;",
    "alternate_name": "Benzeneacetonitrile, α-(2-bromoethyl)-α-phenyl-;Butyronitrile, 4-bromo-2,2-diphenyl-;α-(2-Bromoethyl)-α-phenylbenzeneacetonitrile;3-Cyano-3,3-diphenylpropyl bromide;4-Bromo-2,2-diphenylbutyronitrile;2,2-Diphenyl-4-bromobutyronitrile;NSC 80688;1-Bromo-3,3-diphenyl-3-cyanopropane;4-Bromo-2,2-diphenylbutanenitrile",
    "duplicated_cas_no": "",
    "SMILES": "C(CCBr)(C#N)(C1=CC=CC=C1)C2=CC=CC=C2",
    "meta_data": {
        "InChI": "InChI=1S/C16H14BrN/c17-12-11-16(13-18,14-7-3-1-4-8-14)15-9-5-2-6-10-15/h1-10H,11-12H2",
        "InChIKey": null,
        "Canonical SMILES": "N#CC(C=1C=CC=CC1)(C=2C=CC=CC2)CCBr",
        "Molecular Formula": "C<sub>16</sub>H<sub>14</sub>BrN",
        "Molecular Mass": "300.19",
        "Melting Point": "66-67 °C"
    }
}