{
    "cas_no": "42142-52-9",
    "key_name": "3-(Methylamino)-1-phenyl-1-propanol",
    "cn_name": "N-甲基-3-苯基-3-羟基丙胺;甲胺苯丙醇;",
    "alternate_name": "Benzenemethanol, α-[2-(methylamino)ethyl]-;Benzyl alcohol, α-[2-(methylamino)ethyl]-;α-[2-(Methylamino)ethyl]benzenemethanol;<em>N</em>-Methyl-3-phenyl-3-hydroxypropylamine;3-Methylamino-1-phenylpropanol;3-Hydroxy-<em>N</em>-methyl-3-phenylpropylamine;(±)-<em>N</em>-Methyl-3-hydroxy-3-phenylpropylamine;3-(Methylamino)-1-phenyl-1-propanol;<em>N</em>-Methyl-3-hydroxy-3-phenylpropylamine;Methyl(3-hydroxy-3-phenylpropyl)amine;<em>N</em>-(3-Hydroxy-3-phenylpropyl)-<em>N</em>-methylamine;<em>N</em>-Methyl-<em>N</em>-(3-hydroxy-3-phenylpropyl)amine;<em>N</em>-(3-Hydroxy-3-phenylpropyl)methylamine;3-<em>N</em>-Methylamino-1-phenyl-1-propanol",
    "duplicated_cas_no": "153745-64-3",
    "SMILES": "C(CCNC)(O)C1=CC=CC=C1",
    "meta_data": {
        "InChI": "InChI=1S/C10H15NO/c1-11-8-7-10(12)9-5-3-2-4-6-9/h2-6,10-12H,7-8H2,1H3",
        "InChIKey": null,
        "Canonical SMILES": "OC(C=1C=CC=CC1)CCNC",
        "Molecular Formula": "C<sub>10</sub>H<sub>15</sub>NO",
        "Molecular Mass": "165.23",
        "Boiling Point": "109 °C @ Press: 2 Torr"
    }
}