{
    "cas_no": "454-90-0",
    "key_name": "1-Methoxy-3-(trifluoromethyl)benzene",
    "cn_name": "3-(三氟甲基)苯甲醚;间三氟甲基苯甲醚;",
    "alternate_name": "Benzene, 1-methoxy-3-(trifluoromethyl)-;Anisole, <em>m</em>-(trifluoromethyl)-;1-Methoxy-3-(trifluoromethyl)benzene;<em>m</em>-(Trifluoromethyl)anisole;3-(Trifluoromethyl)anisole;NSC 86566;3-Methoxybenzotrifluoride",
    "duplicated_cas_no": "",
    "SMILES": "C(F)(F)(F)C1=CC(OC)=CC=C1",
    "meta_data": {
        "InChI": "InChI=1S/C8H7F3O/c1-12-7-4-2-3-6(5-7)8(9,10)11/h2-5H,1H3",
        "InChIKey": null,
        "Canonical SMILES": "FC(F)(F)C=1C=CC=C(OC)C1",
        "Molecular Formula": "C<sub>8</sub>H<sub>7</sub>F<sub>3</sub>O",
        "Molecular Mass": "176.14",
        "Boiling Point": "159.5 °C @ Press: 754 Torr",
        "Melting Point": "-65.0 °C",
        "Density": "1.2342 g/cm³ @ Temp: 25 °C"
    }
}