{
    "cas_no": "25069-40-3",
    "key_name": "4-(Diphenylamino)benzenemethanol",
    "cn_name": null,
    "alternate_name": "Benzenemethanol, 4-(diphenylamino)-;Benzyl alcohol, <em>p</em>-(diphenylamino)-;4-(Diphenylamino)benzenemethanol;4-(Hydroxymethyl)triphenylamine;<em>p</em>-(Diphenylamino)benzyl alcohol;4-(Diphenylamino)benzyl alcohol;[4-(<em>N</em>-Phenylanilino)phenyl]methanol;(4-(Diphenylamino)phenyl)methanol",
    "duplicated_cas_no": "",
    "SMILES": "N(C1=CC=C(CO)C=C1)(C2=CC=CC=C2)C3=CC=CC=C3",
    "meta_data": {
        "InChI": "InChI=1S/C19H17NO/c21-15-16-11-13-19(14-12-16)20(17-7-3-1-4-8-17)18-9-5-2-6-10-18/h1-14,21H,15H2",
        "InChIKey": null,
        "Canonical SMILES": "OCC1=CC=C(C=C1)N(C=2C=CC=CC2)C=3C=CC=CC3",
        "Molecular Formula": "C<sub>19</sub>H<sub>17</sub>NO",
        "Molecular Mass": "275.34",
        "Melting Point": "93-94 °C"
    }
}