{
    "cas_no": "1306-24-7",
    "key_name": "Cadmium selenide",
    "cn_name": "硒化镉;",
    "alternate_name": "Cadmium selenide (CdSe);Cadmium selenide;Cadmium Colours;Cadmium monoselenide;Red BBS;Lumidot CdSe 520;Cadmium selenide (Cd<sub>0.5</sub>Se<sub>0.5</sub>)",
    "duplicated_cas_no": "309242-71-5;695161-38-7;1645316-98-8;2196169-62-5;2412416-26-1;2490500-45-1",
    "SMILES": "[Cd]=[Se]",
    "meta_data": {
        "InChI": "InChI=1S/Cd.Se",
        "InChIKey": null,
        "Canonical SMILES": "[Se]=[Cd]",
        "Molecular Formula": "CdSe",
        "Molecular Mass": "",
        "Melting Point": "1258 °C",
        "Density": "5.816 g/cm³"
    }
}