{
    "cas_no": "456-12-2",
    "key_name": "(±)-Aegeline",
    "cn_name": null,
    "alternate_name": "2-Propenamide, <em>N</em>-[2-hydroxy-2-(4-methoxyphenyl)ethyl]-3-phenyl-, (2<em>E</em>)-;Egeline;2-Propenamide, <em>N</em>-[2-hydroxy-2-(4-methoxyphenyl)ethyl]-3-phenyl-, (<em>E</em>)-(±)-;(2<em>E</em>)-<em>N</em>-[2-Hydroxy-2-(4-methoxyphenyl)ethyl]-3-phenyl-2-propenamide;Aegelin;Aegeline;(±)-Egeline;(±)-Aegeline;2-Propenamide, <em>N</em>-[2-hydroxy-2-(4-methoxyphenyl)ethyl]-3-phenyl-, (<em>E</em>)-",
    "duplicated_cas_no": "37791-13-2",
    "SMILES": "C(CNC(/C=C/C1=CC=CC=C1)=O)(O)C2=CC=C(OC)C=C2",
    "meta_data": {
        "InChI": "InChI=1/C18H19NO3/c1-22-16-10-8-15(9-11-16)17(20)13-19-18(21)12-7-14-5-3-2-4-6-14/h2-12,17,20H,13H2,1H3,(H,19,21)/b12-7+",
        "InChIKey": null,
        "Canonical SMILES": "O=C(C=CC=1C=CC=CC1)NCC(O)C2=CC=C(OC)C=C2",
        "Molecular Formula": "C<sub>18</sub>H<sub>19</sub>NO<sub>3</sub>",
        "Molecular Mass": "297.35",
        "Melting Point": "178-179 °C"
    }
}