{
    "cas_no": "34014-18-1",
    "key_name": "Tebuthiuron",
    "cn_name": "特丁噻草隆;N-(5-叔丁基-1,3,4,-噻二唑-2-基)-N,N\"-二甲基脲;",
    "alternate_name": "Urea, <em>N</em>-[5-(1,1-dimethylethyl)-1,3,4-thiadiazol-2-yl]-<em>N</em>,<em>N</em>′-dimethyl-;Urea, 1-(5-<em>tert</em>-butyl-1,3,4-thiadiazol-2-yl)-1,3-dimethyl-;<em>N</em>-[5-(1,1-Dimethylethyl)-1,3,4-thiadiazol-2-yl]-<em>N</em>,<em>N</em>′-dimethylurea;1,3-Dimethyl-1-(5-<em>tert</em>-butyl-1,3,4-thiadiazol-2-yl)urea;SPIKE;1-(5-<em>tert</em>-Butyl-1,3,4-thiadiazol-2-yl)-1,3-dimethylurea;Tebuthiuron;EL 103;Perflan;Graslan;Spike 80W;Graslan 250 Brush Bullets;Tebutiuron;Combine;Combine 500 SC",
    "duplicated_cas_no": "",
    "SMILES": "N(C(NC)=O)(C)C=1SC(C(C)(C)C)=NN1",
    "meta_data": {
        "InChI": "InChI=1S/C9H16N4OS/c1-9(2,3)6-11-12-8(15-6)13(5)7(14)10-4/h1-5H3,(H,10,14)",
        "InChIKey": null,
        "Canonical SMILES": "O=C(NC)N(C1=NN=C(S1)C(C)(C)C)C",
        "Molecular Formula": "C<sub>9</sub>H<sub>16</sub>N<sub>4</sub>OS",
        "Molecular Mass": "228.31",
        "Melting Point": "161.5-164 °C"
    }
}