{
    "cas_no": "63624-28-2",
    "key_name": "2,4-Dimethoxybenzenesulfonyl chloride",
    "cn_name": "2,4-二甲氧基苯磺酰氯;",
    "alternate_name": "Benzenesulfonyl chloride, 2,4-dimethoxy-;2,4-Dimethoxybenzenesulfonyl chloride;2,4-Dimethoxyphenylsulfonyl chloride;2,4-Dimethoxybenzene-1-sulfonyl chloride",
    "duplicated_cas_no": "",
    "SMILES": "O(C)C1=C(S(Cl)(=O)=O)C=CC(OC)=C1",
    "meta_data": {
        "InChI": "InChI=1S/C8H9ClO4S/c1-12-6-3-4-8(14(9,10)11)7(5-6)13-2/h3-5H,1-2H3",
        "InChIKey": null,
        "Canonical SMILES": "O=S(=O)(Cl)C1=CC=C(OC)C=C1OC",
        "Molecular Formula": "C<sub>8</sub>H<sub>9</sub>ClO<sub>4</sub>S",
        "Molecular Mass": "236.67",
        "Melting Point": "67-69 °C"
    }
}