{
    "cas_no": "19064-74-5",
    "key_name": "6-Bromophthalazine",
    "cn_name": null,
    "alternate_name": "Phthalazine, 6-bromo-;6-Bromophthalazine",
    "duplicated_cas_no": "",
    "SMILES": "BrC1=CC2=C(C=C1)C=NN=C2",
    "meta_data": {
        "InChI": "InChI=1S/C8H5BrN2/c9-8-2-1-6-4-10-11-5-7(6)3-8/h1-5H",
        "InChIKey": null,
        "Canonical SMILES": "BrC=1C=CC=2C=NN=CC2C1",
        "Molecular Formula": "C<sub>8</sub>H<sub>5</sub>BrN<sub>2</sub>",
        "Molecular Mass": "209.04",
        "Melting Point": "110 °C"
    }
}