{
    "cas_no": "34840-23-8",
    "key_name": "Methyl <em>N</em>-[[(methoxycarbonyl)amino](methylthio)methylene]carbamate",
    "cn_name": "1,3-二羧甲基-2-甲基-2-硫代异脲;",
    "alternate_name": "Carbamic acid, <em>N</em>-[[(methoxycarbonyl)amino](methylthio)methylene]-, methyl ester;Carbamic acid, [[(methoxycarbonyl)amino](methylthio)methylene]-, methyl ester;Carbamic acid, [(methylthio)methylidyne]di-, dimethyl ester;Methyl <em>N</em>-[[(methoxycarbonyl)amino](methylthio)methylene]carbamate;1,3-Bis(methoxycarbonyl)-2-methylisothiourea;1,3-Bis(methoxycarbonyl)-<em>S</em>-methylisothiourea;<em>N</em>,<em>N</em>-Di(methoxycarbonyl)-<em>S</em>-methylisothiourea;Dimethyl 2-methylisothiourea-1,3-dicarboxylate;<em>N</em>,<em>N</em>′-Bis(methoxycarbonyl)-<em>S</em>-methylisothiourea;1,3-Bis(carbomethoxy)-<em>S</em>-methylisothiourea;1,3-Dicarbomethoxy-<em>S</em>-methylisothiourea;1,3-Bis(methoxycarbonyl)-2-methyl-2-thiopseudourea;NSC 160237;1,3-Di(methoxycarbonyl)-2-methylisothiourea",
    "duplicated_cas_no": "80983-48-8",
    "SMILES": "C(=NC(OC)=O)(NC(OC)=O)SC",
    "meta_data": {
        "InChI": "InChI=1S/C6H10N2O4S/c1-11-5(9)7-4(13-3)8-6(10)12-2/h1-3H3,(H,7,8,9,10)",
        "InChIKey": null,
        "Canonical SMILES": "O=C(N=C(SC)NC(=O)OC)OC",
        "Molecular Formula": "C<sub>6</sub>H<sub>10</sub>N<sub>2</sub>O<sub>4</sub>S",
        "Molecular Mass": "206.22",
        "Melting Point": "100-102 °C"
    }
}