{
    "cas_no": "121-45-9",
    "key_name": "Trimethyl phosphite",
    "cn_name": "三甲氧基磷;亚磷酸三甲酯;",
    "alternate_name": "Phosphorous acid, trimethyl ester;Trimethyl phosphite;Trimethoxyphosphine;NSC 6513",
    "duplicated_cas_no": "",
    "SMILES": "P(OC)(OC)OC",
    "meta_data": {
        "InChI": "InChI=1S/C3H9O3P/c1-4-7(5-2)6-3/h1-3H3",
        "InChIKey": null,
        "Canonical SMILES": "O(P(OC)OC)C",
        "Molecular Formula": "C<sub>3</sub>H<sub>9</sub>O<sub>3</sub>P",
        "Molecular Mass": "124.08",
        "Boiling Point": "111.5 °C",
        "Melting Point": "-78 °C",
        "Density": "1.0520 g/cm³ @ Temp: 20 °C"
    }
}