{
    "cas_no": "6338-41-6",
    "key_name": "5-(Hydroxymethyl)-2-furancarboxylic acid",
    "cn_name": null,
    "alternate_name": "2-Furancarboxylic acid, 5-(hydroxymethyl)-;2-Furoic acid, 5-(hydroxymethyl)-;5-(Hydroxymethyl)-2-furancarboxylic acid;Sumiki's acid;5-(Hydroxymethyl)-2-furoic acid;Sumikis' acid;2-(Hydroxymethyl)furan-5-carboxylic acid;NSC 40739;5-Hydroxymethyl-2-furanoic acid",
    "duplicated_cas_no": "",
    "SMILES": "C(O)(=O)C=1OC(CO)=CC1",
    "meta_data": {
        "InChI": "InChI=1S/C6H6O4/c7-3-4-1-2-5(10-4)6(8)9/h1-2,7H,3H2,(H,8,9)",
        "InChIKey": null,
        "Canonical SMILES": "O=C(O)C=1OC(=CC1)CO",
        "Molecular Formula": "C<sub>6</sub>H<sub>6</sub>O<sub>4</sub>",
        "Molecular Mass": "142.11",
        "Melting Point": "165 °C"
    }
}