{
    "cas_no": "65195-20-2",
    "key_name": "2-(1-Piperidinyl)phenol",
    "cn_name": "2-(1-哌啶基)苯酚;",
    "alternate_name": "Phenol, 2-(1-piperidinyl)-;Phenol, <em>o</em>-piperidino-;2-(1-Piperidinyl)phenol;2-Piperidinophenol;<em>o</em>-Piperidinophenol;2-Piperidin-1-ylphenol",
    "duplicated_cas_no": "",
    "SMILES": "OC1=C(N2CCCCC2)C=CC=C1",
    "meta_data": {
        "InChI": "InChI=1S/C11H15NO/c13-11-7-3-2-6-10(11)12-8-4-1-5-9-12/h2-3,6-7,13H,1,4-5,8-9H2",
        "InChIKey": null,
        "Canonical SMILES": "OC=1C=CC=CC1N2CCCCC2",
        "Molecular Formula": "C<sub>11</sub>H<sub>15</sub>NO",
        "Molecular Mass": "177.24",
        "Boiling Point": "150-152 °C @ Press: 12 Torr",
        "Melting Point": "71-72 °C"
    }
}