{
    "cas_no": "64744-50-9",
    "key_name": "2-Azaspiro[4.5]decan-3-one",
    "cn_name": null,
    "alternate_name": "2-Azaspiro[4.5]decan-3-one;Gabapentin-lactam;Gabapentin-lactams",
    "duplicated_cas_no": "",
    "SMILES": "O=C1CC2(CN1)CCCCC2",
    "meta_data": {
        "InChI": "InChI=1S/C9H15NO/c11-8-6-9(7-10-8)4-2-1-3-5-9/h1-7H2,(H,10,11)",
        "InChIKey": null,
        "Canonical SMILES": "O=C1NCC2(C1)CCCCC2",
        "Molecular Formula": "C<sub>9</sub>H<sub>15</sub>NO",
        "Molecular Mass": "153.22",
        "Melting Point": "84-89 °C"
    }
}