{
    "cas_no": "19186-97-1",
    "key_name": "Tris(tribromoneopentyl) phosphate",
    "cn_name": "三(三溴新戊基)磷酸酯;",
    "alternate_name": "1-Propanol, 3-bromo-2,2-bis(bromomethyl)-, 1,1′,1′′-phosphate;1-Propanol, 3-bromo-2,2-bis(bromomethyl)-, phosphate (3:1);Tris[3-bromo-2,2-bis(bromomethyl)propyl] phosphate;Tris[2,2-bis(bromomethyl)-3-bromopropyl] phosphate;CR 900;Tris(tribromoneopentyl) phosphate;Flame Cut 175R;TPB 3070;Flame Cut 175;Kronitex PB 370;PB 370;FR 370;FR 372;Reoflam FR 370;TexFRon 3000;FR 680;SR 370",
    "duplicated_cas_no": "134376-16-2;36483-58-6",
    "SMILES": "C(COP(OCC(CBr)(CBr)CBr)(OCC(CBr)(CBr)CBr)=O)(CBr)(CBr)CBr",
    "meta_data": {
        "InChI": "InChI=1S/C15H24Br9O4P/c16-1-13(2-17,3-18)10-26-29(25,27-11-14(4-19,5-20)6-21)28-12-15(7-22,8-23)9-24/h1-12H2",
        "InChIKey": null,
        "Canonical SMILES": "O=P(OCC(CBr)(CBr)CBr)(OCC(CBr)(CBr)CBr)OCC(CBr)(CBr)CBr",
        "Molecular Formula": "C<sub>15</sub>H<sub>24</sub>Br<sub>9</sub>O<sub>4</sub>P",
        "Molecular Mass": "1018.46",
        "Melting Point": "172-173 °C"
    }
}