{
    "cas_no": "41994-50-7",
    "key_name": "2,5-Pyrrolidinedicarboxylic acid, 2,5-diethyl ester",
    "cn_name": null,
    "alternate_name": "2,5-Pyrrolidinedicarboxylic acid, 2,5-diethyl ester;2,5-Pyrrolidinedicarboxylic acid, diethyl ester;Diethyl 2,5-pyrrolidinedicarboxylate;2-Diethyl 2,5-pyrrolidinedicarboxylate;2,5-Diethyl pyrrolidine-2,5-dicarboxylate",
    "duplicated_cas_no": "",
    "SMILES": "C(OCC)(=O)C1NC(C(OCC)=O)CC1",
    "meta_data": {
        "InChI": "InChI=1S/C10H17NO4/c1-3-14-9(12)7-5-6-8(11-7)10(13)15-4-2/h7-8,11H,3-6H2,1-2H3",
        "InChIKey": null,
        "Canonical SMILES": "O=C(OCC)C1NC(C(=O)OCC)CC1",
        "Molecular Formula": "C<sub>10</sub>H<sub>17</sub>NO<sub>4</sub>",
        "Molecular Mass": "215.25",
        "Boiling Point": "95-96 °C @ Press: 0.3 Torr"
    }
}