{
    "cas_no": "17303-67-2",
    "key_name": "Goniothalamin",
    "cn_name": null,
    "alternate_name": "2<em>H</em>-Pyran-2-one, 5,6-dihydro-6-[(1<em>E</em>)-2-phenylethenyl]-, (6<em>R</em>)-;2<em>H</em>-Pyran-2-one, 5,6-dihydro-6-(2-phenylethenyl)-, [<em>R</em>-(<em>E</em>)]-;(6<em>R</em>)-5,6-Dihydro-6-[(1<em>E</em>)-2-phenylethenyl]-2<em>H</em>-pyran-2-one;Goniothalamin;(6<em>R</em>)-(+)-5,6-Dihydro-6-styryl-2-pyrone;(+)-Goniothalamin;(6<em>R</em>)-(+)-Goniothalamin;(<em>R</em>)-Goniothalamin;(<em>R</em>)-(+)-Goniothalamin;(+)-(<em>R</em>)-Goniothalamin",
    "duplicated_cas_no": "",
    "SMILES": "C(=C/C1=CC=CC=C1)\\[C@@H]2OC(=O)C=CC2",
    "meta_data": {
        "InChI": "InChI=1S/C13H12O2/c14-13-8-4-7-12(15-13)10-9-11-5-2-1-3-6-11/h1-6,8-10,12H,7H2/b10-9+/t12-/m1/s1",
        "InChIKey": null,
        "Canonical SMILES": "O=C1OC(C=CC=2C=CC=CC2)CC=C1",
        "Molecular Formula": "C<sub>13</sub>H<sub>12</sub>O<sub>2</sub>",
        "Molecular Mass": "200.23",
        "Melting Point": "79-81 °C"
    }
}