{
    "cas_no": "2550-26-7",
    "key_name": "4-Phenyl-2-butanone",
    "cn_name": "苄基丙酮;4-苯基-2-丁酮;",
    "alternate_name": "2-Butanone, 4-phenyl-;4-Phenyl-2-butanone;Benzylacetone;1-Phenyl-3-butanone;Methyl phenethyl ketone;Methyl 2-phenylethyl ketone;Phenethyl methyl ketone;2-Phenylethyl methyl ketone;NSC 44829;NSC 813",
    "duplicated_cas_no": "",
    "SMILES": "C(CC(C)=O)C1=CC=CC=C1",
    "meta_data": {
        "InChI": "InChI=1S/C10H12O/c1-9(11)7-8-10-5-3-2-4-6-10/h2-6H,7-8H2,1H3",
        "InChIKey": null,
        "Canonical SMILES": "O=C(C)CCC=1C=CC=CC1",
        "Molecular Formula": "C<sub>10</sub>H<sub>12</sub>O",
        "Molecular Mass": "148.20",
        "Boiling Point": "233.5 °C",
        "Melting Point": "-13 °C",
        "Density": "0.9877 g/cm³ @ Temp: 40 °C"
    }
}