{
    "cas_no": "936-05-0",
    "key_name": "2-Hydroxymethyl-1-methyl-5-nitroimidazole",
    "cn_name": "1-甲基-5-硝基-2-羟甲基咪唑;",
    "alternate_name": "1<em>H</em>-Imidazole-2-methanol, 1-methyl-5-nitro-;Imidazole-2-methanol, 1-methyl-5-nitro-;1-Methyl-5-nitro-1<em>H</em>-imidazole-2-methanol;2-Hydroxymethyl-1-methyl-5-nitroimidazole;1-Methyl-2-hydroxymethyl-5-nitroimidazole;1-Methyl-5-nitro-2-imidazolemethanol;Hydroxydimetridazole;(1-Methyl-5-nitro-1<em>H</em>-imidazol-2-yl)-methanol;(1-Methyl-5-nitroimidazol-2-yl)methanol;(1-Methyl-5-nitro-1<em>H</em>-imidazol-2-yl)methanol",
    "duplicated_cas_no": "",
    "SMILES": "N(=O)(=O)C=1N(C)C(CO)=NC1",
    "meta_data": {
        "InChI": "InChI=1S/C5H7N3O3/c1-7-4(3-9)6-2-5(7)8(10)11/h2,9H,3H2,1H3",
        "InChIKey": null,
        "Canonical SMILES": "O=N(=O)C1=CN=C(N1C)CO",
        "Molecular Formula": "C<sub>5</sub>H<sub>7</sub>N<sub>3</sub>O<sub>3</sub>",
        "Molecular Mass": "157.13",
        "Melting Point": "116-117 °C"
    }
}