{
    "cas_no": "394-70-7",
    "key_name": "4-Fluoroquinoline",
    "cn_name": null,
    "alternate_name": "Quinoline, 4-fluoro-;4-Fluoroquinoline",
    "duplicated_cas_no": "",
    "SMILES": "FC=1C2=C(N=CC1)C=CC=C2",
    "meta_data": {
        "InChI": "InChI=1S/C9H6FN/c10-8-5-6-11-9-4-2-1-3-7(8)9/h1-6H",
        "InChIKey": null,
        "Canonical SMILES": "FC=1C=CN=C2C=CC=CC12",
        "Molecular Formula": "C<sub>9</sub>H<sub>6</sub>FN",
        "Molecular Mass": "147.15",
        "Boiling Point": "119 °C @ Press: 30 Torr",
        "Melting Point": "180-195 °C"
    }
}