{
    "cas_no": "7775-14-6",
    "key_name": "Sodium dithionite",
    "cn_name": "连二亚硫酸钠;保险粉;次亚硫酸钠;低亚硫酸钠;",
    "alternate_name": "Dithionous acid, sodium salt (1:2);Dithionous acid, disodium salt;Sodium dithionite;Vatrolite;Hydros;Blankit;Sodium dithionite (Na<sub>2</sub>(S<sub>2</sub>O<sub>4</sub>));Disodium dithionite;Disodium hydrosulfite;Sodium hydrosulfite;Sodium hyposulfite;Burmol;Sodium hydrosulfite (Na<sub>2</sub>S<sub>2</sub>O<sub>4</sub>);V-Brite B;Blankit IN;Hydrosulfite R Conc;Cyclanon ARC;Blankit S;Hydrosulfite F;Oxygen Scavenger SHS;Albite F",
    "duplicated_cas_no": "1340-77-8",
    "SMILES": "S(S(=O)O)(=O)O.[Na]",
    "meta_data": {
        "InChI": "InChI=1S/2Na.H2O4S2/c;;1-5(2)6(3)4/h;;(H,1,2)(H,3,4)",
        "InChIKey": null,
        "Canonical SMILES": "[Na].O=S(O)S(=O)O",
        "Molecular Formula": "H<sub>2</sub>O<sub>4</sub>S<sub>2</sub>.2Na",
        "Molecular Mass": "",
        "Melting Point": "166-168 °C",
        "Density": "2.19 g/cm³"
    }
}