{
    "cas_no": "61676-62-8",
    "key_name": "Isopropoxy 4,4,5,5-tetramethyl-1,3,2-dioxaborolane",
    "cn_name": "异丙醇频哪醇硼酸酯;2-异丙氧基-4,4,5,5-四甲基-1,3,2-二氧杂环戊硼烷;",
    "alternate_name": "1,3,2-Dioxaborolane, 4,4,5,5-tetramethyl-2-(1-methylethoxy)-;Boric acid, cyclic tetramethylethylene isopropyl ester;4,4,5,5-Tetramethyl-2-(1-methylethoxy)-1,3,2-dioxaborolane;2-Isopropoxy-4,4,5,5-tetramethyl-1,3,2-dioxaborolane;Isopropyl pinacol borate;Isopropoxy 4,4,5,5-tetramethyl-1,3,2-dioxaborolane;2-Isopropoxy-4,4,5,5-tetramethyl-1,3,2-dioxoborolane;2-Isopropoxy-4,4,5,5-tetramethyl-1,3,2-dioxaboralane;4,4,5,5-Tetramethyl-2-[(propan-2-yl)oxy]-1,3,2-dioxaborolane;Isopropoxyboronic acid pinacol ester;4,4,5,5-Tetramethyl-2-isopropoxy-1,3,2-dioxaborolane;PinBop;2-Isopropoxy-4,4′,5,5′-tetramethyl[1-3]dioxaborolane;2-Isopropoxy-4,4,5,6-tetramethyl-1,3,2-dioxaboralane;Isopropylpinacolylborate;2-Isopropoxy-4,4,5,5-tetramethyl-1,3,2-dioxaborolan",
    "duplicated_cas_no": "1895068-67-3",
    "SMILES": "O(C(C)C)B1OC(C)(C)C(C)(C)O1",
    "meta_data": {
        "InChI": "InChI=1S/C9H19BO3/c1-7(2)11-10-12-8(3,4)9(5,6)13-10/h7H,1-6H3",
        "InChIKey": null,
        "Canonical SMILES": "O(B1OC(C)(C)C(O1)(C)C)C(C)C",
        "Molecular Formula": "C<sub>9</sub>H<sub>19</sub>BO<sub>3</sub>",
        "Molecular Mass": "186.06",
        "Boiling Point": "180-185 °C"
    }
}