{
    "cas_no": "13393-64-1",
    "key_name": "1,5,9-Decatriene",
    "cn_name": "1,5,9-癸三烯;",
    "alternate_name": "1,5,9-Decatriene",
    "duplicated_cas_no": "",
    "SMILES": "C(=CCCC=C)CCC=C",
    "meta_data": {
        "InChI": "InChI=1S/C10H16/c1-3-5-7-9-10-8-6-4-2/h3-4,9-10H,1-2,5-8H2",
        "InChIKey": null,
        "Canonical SMILES": "C=CCCC=CCCC=C",
        "Molecular Formula": "C<sub>10</sub>H<sub>16</sub>",
        "Molecular Mass": "136.23",
        "Boiling Point": "170 °C @ Press: 760 Torr"
    }
}