{
    "cas_no": "42270-37-1",
    "key_name": "1-(2-Thiazolyl)piperazine",
    "cn_name": "1-(噻唑-2-基)哌嗪;",
    "alternate_name": "Piperazine, 1-(2-thiazolyl)-;1-(2-Thiazolyl)piperazine;4-(1,3-Thiazol-2-yl)piperazine;2-(Piperazin-1-yl)thiazole;2-Piperazin-1-yl-1,3-thiazole",
    "duplicated_cas_no": "",
    "SMILES": "C1(=NC=CS1)N2CCNCC2",
    "meta_data": {
        "InChI": "InChI=1S/C7H11N3S/c1-4-10(5-2-8-1)7-9-3-6-11-7/h3,6,8H,1-2,4-5H2",
        "InChIKey": null,
        "Canonical SMILES": "N=1C=CSC1N2CCNCC2",
        "Molecular Formula": "C<sub>7</sub>H<sub>11</sub>N<sub>3</sub>S",
        "Molecular Mass": "169.25",
        "Boiling Point": "120-125 °C @ Press: 2 Torr"
    }
}