{
    "cas_no": "1066-50-8",
    "key_name": "Ethylphosphonic dichloride",
    "cn_name": null,
    "alternate_name": "Phosphonic dichloride, <em>P</em>-ethyl-;Phosphonic dichloride, ethyl-;<em>P</em>-Ethylphosphonic dichloride;Ethylphosphonic dichloride;Ethanephosphonyl chloride;Dichloroethylphosphine oxide;Ethylphosphonic acid dichloride;Ethylphosphonyl dichloride;Ethylphosphonodichloridate;1-Dichlorophosphorylethane",
    "duplicated_cas_no": "",
    "SMILES": "P(CC)(Cl)(Cl)=O",
    "meta_data": {
        "InChI": "InChI=1S/C2H5Cl2OP/c1-2-6(3,4)5/h2H2,1H3",
        "InChIKey": null,
        "Canonical SMILES": "O=P(Cl)(Cl)CC",
        "Molecular Formula": "C<sub>2</sub>H<sub>5</sub>Cl<sub>2</sub>OP",
        "Molecular Mass": "146.94",
        "Boiling Point": "174.5 °C @ Press: 28 Torr",
        "Density": "1.3678 g/cm³ @ Temp: 20 °C"
    }
}