{
    "cas_no": "10138-52-0",
    "key_name": "Gadolinium chloride",
    "cn_name": "超干氯化钆;氯化钆(Ⅲ)(六水)；六水合氯化钆；三氯化钆(六水);",
    "alternate_name": "Gadolinium chloride (GdCl<sub>3</sub>);Gadolinium trichloride;Gadolinium chloride;Gadolinium(III) chloride;NSC 174322",
    "duplicated_cas_no": "",
    "SMILES": "[Gd](Cl)(Cl)Cl",
    "meta_data": {
        "InChI": "InChI=1S/3ClH.Gd/h3*1H;/q;;;+3/p-3",
        "InChIKey": null,
        "Canonical SMILES": "Cl[Gd](Cl)Cl",
        "Molecular Formula": "Cl<sub>3</sub>Gd",
        "Molecular Mass": "",
        "Melting Point": "609 °C"
    }
}