{
    "cas_no": "3438-46-8",
    "key_name": "4-Methylpyrimidine",
    "cn_name": "4-甲基嘧啶;",
    "alternate_name": "Pyrimidine, 4-methyl-;4-Methylpyrimidine;4-Methyl-1,3-diazine",
    "duplicated_cas_no": "",
    "SMILES": "CC=1C=CN=CN1",
    "meta_data": {
        "InChI": "InChI=1S/C5H6N2/c1-5-2-3-6-4-7-5/h2-4H,1H3",
        "InChIKey": null,
        "Canonical SMILES": "N=1C=NC(=CC1)C",
        "Molecular Formula": "C<sub>5</sub>H<sub>6</sub>N<sub>2</sub>",
        "Molecular Mass": "94.11",
        "Boiling Point": "142 °C",
        "Melting Point": "32 °C"
    }
}