{
    "cas_no": "71089-74-2",
    "key_name": "1,4,8,11-Tetrakis[(4-methylphenyl)sulfonyl]-1,4,8,11-tetraazacyclotetradecane",
    "cn_name": "1,4,8,11-四[(4-甲基苯基)磺酰基]-1,4,8,11-四氮杂环十四烷;",
    "alternate_name": "1,4,8,11-Tetraazacyclotetradecane, 1,4,8,11-tetrakis[(4-methylphenyl)sulfonyl]-;1,4,8,11-Tetraazacyclotetradecane, 1,4,8,11-tetrakis(<em>p</em>-tolylsulfonyl)-;1,4,8,11-Tetrakis[(4-methylphenyl)sulfonyl]-1,4,8,11-tetraazacyclotetradecane;1,4,8,11-Tetratosyl-1,4,8,11-tetraazacyclotetradecane",
    "duplicated_cas_no": "1187178-73-9",
    "SMILES": "S(=O)(=O)(N1CCN(S(=O)(=O)C2=CC=C(C)C=C2)CCCN(S(=O)(=O)C3=CC=C(C)C=C3)CCN(S(=O)(=O)C4=CC=C(C)C=C4)CCC1)C5=CC=C(C)C=C5",
    "meta_data": {
        "InChI": "InChI=1S/C38H48N4O8S4/c1-31-7-15-35(16-8-31)51(43,44)39-23-5-24-41(53(47,48)37-19-11-33(3)12-20-37)29-30-42(54(49,50)38-21-13-34(4)14-22-38)26-6-25-40(28-27-39)52(45,46)36-17-9-32(2)10-18-36/h7-22H,5-6,23-30H2,1-4H3",
        "InChIKey": null,
        "Canonical SMILES": "O=S(=O)(C1=CC=C(C=C1)C)N2CCN(CCCN(CCN(CCC2)S(=O)(=O)C3=CC=C(C=C3)C)S(=O)(=O)C4=CC=C(C=C4)C)S(=O)(=O)C5=CC=C(C=C5)C",
        "Molecular Formula": "C<sub>38</sub>H<sub>48</sub>N<sub>4</sub>O<sub>8</sub>S<sub>4</sub>",
        "Molecular Mass": "817.07",
        "Melting Point": "284-287 °C"
    }
}