{
    "cas_no": "51-17-2",
    "key_name": "Benzimidazole",
    "cn_name": "苯并咪唑;",
    "alternate_name": "1<em>H</em>-Benzimidazole;Benzimidazole;3-Azaindole;Azindole;<em>o</em>-Benzimidazole;1,3-Benzodiazole;Benzoglyoxaline;1,3-Diazaindene;<em>N</em>,<em>N</em>′-Methenyl-<em>o</em>-phenylenediamine;Benziminazole;BZI;NSC 759;1<em>H</em>-Benzo[<em>d</em>]imidazole;1<em>H</em>-1,3-Benzodiazole",
    "duplicated_cas_no": "116421-27-3;25463-25-6;79351-71-6",
    "SMILES": "C1=2C(N=CN1)=CC=CC2",
    "meta_data": {
        "InChI": "InChI=1S/C7H6N2/c1-2-4-7-6(3-1)8-5-9-7/h1-5H,(H,8,9)",
        "InChIKey": null,
        "Canonical SMILES": "N1=CNC=2C=CC=CC12",
        "Molecular Formula": "C<sub>7</sub>H<sub>6</sub>N<sub>2</sub>",
        "Molecular Mass": "118.14",
        "Boiling Point": "&gt;360 °C",
        "Melting Point": "170.5 °C",
        "Density": "1.227 g/cm³"
    }
}