{
    "cas_no": "499-81-0",
    "key_name": "3,5-Pyridinedicarboxylic acid",
    "cn_name": "3,5-吡啶二甲酸;3,5-吡啶二羧酸;",
    "alternate_name": "3,5-Pyridinedicarboxylic acid;Dinicotinic acid;5-Carboxynicotinic acid;3,5-Pyridinedicarboxylate;NSC 6497",
    "duplicated_cas_no": "",
    "SMILES": "C(O)(=O)C=1C=C(C(O)=O)C=NC1",
    "meta_data": {
        "InChI": "InChI=1S/C7H5NO4/c9-6(10)4-1-5(7(11)12)3-8-2-4/h1-3H,(H,9,10)(H,11,12)",
        "InChIKey": null,
        "Canonical SMILES": "O=C(O)C1=CN=CC(=C1)C(=O)O",
        "Molecular Formula": "C<sub>7</sub>H<sub>5</sub>NO<sub>4</sub>",
        "Molecular Mass": "167.12",
        "Melting Point": "324 °C"
    }
}