{
    "cas_no": "298-46-4",
    "key_name": "Carbamazepine",
    "cn_name": "卡马西平;5H-二苯并[b,f]氮杂卓-5-甲酰胺;",
    "alternate_name": "5<em>H</em>-Dibenz[<em>b</em>,<em>f</em>]azepine-5-carboxamide;G 32883;Geigy 32883;Carbamazepen;Carbamazepine;5-Carbamoyl-5<em>H</em>-dibenz[<em>b</em>,<em>f</em>]azepine;Carbazepine;Tegretol;Tegretal;Finlepsin;Karbamazepin;Neurotol;Amizepin;Stazepine;Carbamazepin;Sirtal;Calepsin;Carbelan;Telesmin;Timonil;Epitol;Biston;NSC 169864;Neurotop;Carbatrol;Tegretol XR;CBZ;Karberol;Karbelex;Equetro;Tegrital;MeSH ID: D002220",
    "duplicated_cas_no": "105234-21-7;121947-25-9;121985-71-5",
    "SMILES": "C(N)(=O)N1C=2C(=CC=CC2)C=CC=3C1=CC=CC3",
    "meta_data": {
        "InChI": "InChI=1S/C15H12N2O/c16-15(18)17-13-7-3-1-5-11(13)9-10-12-6-2-4-8-14(12)17/h1-10H,(H2,16,18)",
        "InChIKey": null,
        "Canonical SMILES": "O=C(N)N1C=2C=CC=CC2C=CC=3C=CC=CC31",
        "Molecular Formula": "C<sub>15</sub>H<sub>12</sub>N<sub>2</sub>O",
        "Molecular Mass": "236.27",
        "Melting Point": "190.2 °C"
    }
}