{
    "cas_no": "1883-32-5",
    "key_name": "β-Phenylbenzeneethanol",
    "cn_name": "2,2-二苯基乙醇;",
    "alternate_name": "Benzeneethanol, β-phenyl-;Ethanol, 2,2-diphenyl-;β-Phenylbenzeneethanol;2,2-Diphenylethanol;2,2-Diphenylethyl alcohol;NSC 4574;2,2-Diphenyl-1-ethanol",
    "duplicated_cas_no": "",
    "SMILES": "C(CO)(C1=CC=CC=C1)C2=CC=CC=C2",
    "meta_data": {
        "InChI": "InChI=1S/C14H14O/c15-11-14(12-7-3-1-4-8-12)13-9-5-2-6-10-13/h1-10,14-15H,11H2",
        "InChIKey": null,
        "Canonical SMILES": "OCC(C=1C=CC=CC1)C=2C=CC=CC2",
        "Molecular Formula": "C<sub>14</sub>H<sub>14</sub>O",
        "Molecular Mass": "198.26",
        "Boiling Point": "190-192 °C @ Press: 12 Torr",
        "Melting Point": "64.5 °C"
    }
}