{
    "cas_no": "369-26-6",
    "key_name": "Benzoic acid, 3-amino-4-fluoro-, methyl ester",
    "cn_name": null,
    "alternate_name": "Benzoic acid, 3-amino-4-fluoro-, methyl ester;3-Amino-4-fluorobenzoic acid methyl ester;Methyl 3-amino-4-fluorobenzoate",
    "duplicated_cas_no": "",
    "SMILES": "C(OC)(=O)C1=CC(N)=C(F)C=C1",
    "meta_data": {
        "InChI": "InChI=1S/C8H8FNO2/c1-12-8(11)5-2-3-6(9)7(10)4-5/h2-4H,10H2,1H3",
        "InChIKey": null,
        "Canonical SMILES": "O=C(OC)C1=CC=C(F)C(N)=C1",
        "Molecular Formula": "C<sub>8</sub>H<sub>8</sub>FNO<sub>2</sub>",
        "Molecular Mass": "169.15",
        "Melting Point": "105-107 °C"
    }
}