{
    "cas_no": "100-55-0",
    "key_name": "3-Pyridinemethanol",
    "cn_name": "3-吡啶甲醇;",
    "alternate_name": "3-Pyridinemethanol;RO-1-5155;Nicotinic alcohol;Nicotinyl alcohol;β-Pyridylcarbinol;Roniacol;β-Pyridinecarbinol;3-Pyridylmethanol;Pyridine-3-carbinol;3-Pyridylcarbinol;β-Picolyl alcohol;3-(Hydroxymethyl)pyridine;Nu-2121;3-Pyridinylmethanol;NSC 526046;5-(Hydroxymethyl)pyridine;3-Pyridyl carbinal",
    "duplicated_cas_no": "",
    "SMILES": "C(O)C=1C=CC=NC1",
    "meta_data": {
        "InChI": "InChI=1S/C6H7NO/c8-5-6-2-1-3-7-4-6/h1-4,8H,5H2",
        "InChIKey": null,
        "Canonical SMILES": "OCC=1C=NC=CC1",
        "Molecular Formula": "C<sub>6</sub>H<sub>7</sub>NO",
        "Molecular Mass": "109.13",
        "Boiling Point": "266 °C",
        "Melting Point": "-6.5 °C"
    }
}