{
    "cas_no": "43050-28-8",
    "key_name": "1-(4-Methoxyphenyl)cyclopentanecarboxylic acid",
    "cn_name": "1-(4-甲氧基苯基)-1-环戊烷羧酸;",
    "alternate_name": "Cyclopentanecarboxylic acid, 1-(4-methoxyphenyl)-;1-(4-Methoxyphenyl)cyclopentanecarboxylic acid;1-(<em>p</em>-Methoxyphenyl)cyclopentanecarboxylic acid;NSC 155172;1-(4-Methoxyphenyl)-1-cyclopentanecarboxylic acid;1-(4-Methoxyphenyl)cyclopentane-1-carboxylic acid",
    "duplicated_cas_no": "",
    "SMILES": "C(O)(=O)C1(CCCC1)C2=CC=C(OC)C=C2",
    "meta_data": {
        "InChI": "InChI=1S/C13H16O3/c1-16-11-6-4-10(5-7-11)13(12(14)15)8-2-3-9-13/h4-7H,2-3,8-9H2,1H3,(H,14,15)",
        "InChIKey": null,
        "Canonical SMILES": "O=C(O)C1(C2=CC=C(OC)C=C2)CCCC1",
        "Molecular Formula": "C<sub>13</sub>H<sub>16</sub>O<sub>3</sub>",
        "Molecular Mass": "220.26",
        "Melting Point": "140-141 °C"
    }
}