{
    "cas_no": "32588-54-8",
    "key_name": "2-(1,1-Dimethylpropyl)-9,10-anthracenedione",
    "cn_name": null,
    "alternate_name": "9,10-Anthracenedione, 2-(1,1-dimethylpropyl)-;Anthraquinone, 2-<em>tert</em>-pentyl-;2-(1,1-Dimethylpropyl)-9,10-anthracenedione;2-<em>tert</em>-Amylanthraquinone;2-<em>tert</em>-Pentylanthraquinone;2-(2-Methylbutan-2-yl)-9,10-dihydroanthracene-9,10-dione;2-(1,1-Dimethylpropyl)anthraquinone",
    "duplicated_cas_no": "",
    "SMILES": "O=C1C=2C(C(=O)C=3C1=CC=CC3)=CC=C(C(CC)(C)C)C2",
    "meta_data": {
        "InChI": "InChI=1S/C19H18O2/c1-4-19(2,3)12-9-10-15-16(11-12)18(21)14-8-6-5-7-13(14)17(15)20/h5-11H,4H2,1-3H3",
        "InChIKey": null,
        "Canonical SMILES": "O=C1C=2C=CC=CC2C(=O)C3=CC(=CC=C13)C(C)(C)CC",
        "Molecular Formula": "C<sub>19</sub>H<sub>18</sub>O<sub>2</sub>",
        "Molecular Mass": "278.35",
        "Boiling Point": "245-273 °C",
        "Density": "0.82 g/cm³"
    }
}