{
    "cas_no": "1670-82-2",
    "key_name": "1<em>H</em>-Indole-6-carboxylic acid",
    "cn_name": "6-吲哚甲酸;吲哚-6-甲酸;",
    "alternate_name": "1<em>H</em>-Indole-6-carboxylic acid;Indole-6-carboxylic acid;6-Carboxyindole;6-Carboxy-1<em>H</em>-indole",
    "duplicated_cas_no": "",
    "SMILES": "C(O)(=O)C=1C=C2C(=CC1)C=CN2",
    "meta_data": {
        "InChI": "InChI=1S/C9H7NO2/c11-9(12)7-2-1-6-3-4-10-8(6)5-7/h1-5,10H,(H,11,12)",
        "InChIKey": null,
        "Canonical SMILES": "O=C(O)C=1C=CC=2C=CNC2C1",
        "Molecular Formula": "C<sub>9</sub>H<sub>7</sub>NO<sub>2</sub>",
        "Molecular Mass": "161.16",
        "Melting Point": "243-244 °C"
    }
}