{
    "cas_no": "1461-23-0",
    "key_name": "Bromotributylstannane",
    "cn_name": "三正丁基溴化锡;三正丁基溴化锡;",
    "alternate_name": "Stannane, bromotributyl-;Tributyltin bromide;Tin, bromotributyl-;Bromotributylstannane;Bromotributyltin;Tributylstannyl bromide;Tributylbromostannane;NSC 202816;Tri-<em>n</em>-butyltin bromide",
    "duplicated_cas_no": "",
    "SMILES": "[Sn](CCCC)(CCCC)(CCCC)Br",
    "meta_data": {
        "InChI": "InChI=1S/3C4H9.BrH.Sn/c3*1-3-4-2;;/h3*1,3-4H2,2H3;1H;/q;;;;+1/p-1",
        "InChIKey": null,
        "Canonical SMILES": "Br[Sn](CCCC)(CCCC)CCCC",
        "Molecular Formula": "C<sub>12</sub>H<sub>27</sub>BrSn",
        "Molecular Mass": "369.96",
        "Boiling Point": "163 °C",
        "Melting Point": "120 °C",
        "Density": "1.3365 g/cm³ @ Temp: 20 °C"
    }
}