{
    "cas_no": "3207-12-3",
    "key_name": "1-Propanol, 2-amino-2-methyl-, hydrochloride (1:1)",
    "cn_name": "2-氨基-2-甲基-1-丙醇盐酸盐;",
    "alternate_name": "1-Propanol, 2-amino-2-methyl-, hydrochloride (1:1);1-Propanol, 2-amino-2-methyl-, hydrochloride;2-Amino-2-methylpropanol hydrochloride;2-Amino-2-methyl-1-propanol hydrochloride;2-Hydroxy-1,1-dimethylethylamine hydrochloride;Catalyst AC;1-Hydroxymethyl-1-methylethanaminium chloride",
    "duplicated_cas_no": "",
    "SMILES": "C(CO)(C)(C)N.Cl",
    "meta_data": {
        "InChI": "InChI=1S/C4H11NO.ClH/c1-4(2,5)3-6;/h6H,3,5H2,1-2H3;1H",
        "InChIKey": null,
        "Canonical SMILES": "Cl.OCC(N)(C)C",
        "Molecular Formula": "C<sub>4</sub>H<sub>11</sub>NO.ClH",
        "Molecular Mass": "",
        "Melting Point": "200-201 °C"
    }
}