{
    "cas_no": "7779-88-6",
    "key_name": "Zinc nitrate",
    "cn_name": "硝酸锌;",
    "alternate_name": "Nitric acid, zinc salt (2:1);Nitric acid, zinc salt;Zinc nitrate;Aerotex Accelerator Number 5;Zinc dinitrate;Celloxan;X 4 (nitrate);Zinc nitrate (Zn(NO<sub>3</sub>)<sub>2</sub>);X 4;Zinc(II) nitrate;Catalyst FT;Zinc nitrate (Zn(NO<sub>3</sub>)<sub>2</sub>);Zinc, bis(nitrato-κ<em>O</em>)-",
    "duplicated_cas_no": "22842-96-2;2301016-41-9;2379621-26-6;2411835-47-5;2414553-22-1",
    "SMILES": "N(=O)(=O)O.[Zn]",
    "meta_data": {
        "InChI": "InChI=1S/HNO3.Zn/c2-1(3)4;/h(H,2,3,4);",
        "InChIKey": null,
        "Canonical SMILES": "[Zn].O=N(=O)O",
        "Molecular Formula": "HNO<sub>3</sub>.<sup>1</sup>/<sub>2</sub>Zn",
        "Molecular Mass": "",
        "Melting Point": "110 °C",
        "Density": "1.522 g/cm³"
    }
}