{
    "cas_no": "13760-83-3",
    "key_name": "Erbium fluoride",
    "cn_name": null,
    "alternate_name": "Erbium fluoride (ErF<sub>3</sub>);Erbium trifluoride;Erbium fluoride;ErF<sub>3</sub>",
    "duplicated_cas_no": "",
    "SMILES": "[Er](F)(F)F",
    "meta_data": {
        "InChI": "InChI=1S/Er.3FH/h;3*1H/q+3;;;/p-3",
        "InChIKey": null,
        "Canonical SMILES": "F[Er](F)F",
        "Molecular Formula": "ErF<sub>3</sub>",
        "Molecular Mass": "",
        "Melting Point": "1146 °C"
    }
}