{
    "cas_no": "19847-10-0",
    "key_name": "2-Pyrazinecarbonyl chloride",
    "cn_name": "吡嗪-2-羰基氯;2-吡嗪碳酰氯;Pyrazinecarbonyl chloride;2-Pyrazinecarbonyl Chloride;",
    "alternate_name": "2-Pyrazinecarbonyl chloride;Pyrazinecarbonyl chloride;Pyrazinoyl chloride;Pyrazine-2-carboxylic acid chloride;Pyrazinoic acid chloride",
    "duplicated_cas_no": "",
    "SMILES": "C(Cl)(=O)C=1C=NC=CN1",
    "meta_data": {
        "InChI": "InChI=1S/C5H3ClN2O/c6-5(9)4-3-7-1-2-8-4/h1-3H",
        "InChIKey": null,
        "Canonical SMILES": "O=C(Cl)C1=NC=CN=C1",
        "Molecular Formula": "C<sub>5</sub>H<sub>3</sub>ClN<sub>2</sub>O",
        "Molecular Mass": "142.54",
        "Melting Point": "59-61 °C"
    }
}