{
    "cas_no": "346688-38-8",
    "key_name": "Pridopidine",
    "cn_name": null,
    "alternate_name": "Piperidine, 4-[3-(methylsulfonyl)phenyl]-1-propyl-;4-[3-(Methylsulfonyl)phenyl]-1-propylpiperidine;ACR 16;ASP 2314;Pridopidine;FR 310826;Huntexil",
    "duplicated_cas_no": "",
    "SMILES": "S(C)(=O)(=O)C=1C=C(C=CC1)C2CCN(CCC)CC2",
    "meta_data": {
        "InChI": "InChI=1S/C15H23NO2S/c1-3-9-16-10-7-13(8-11-16)14-5-4-6-15(12-14)19(2,17)18/h4-6,12-13H,3,7-11H2,1-2H3",
        "InChIKey": null,
        "Canonical SMILES": "O=S(=O)(C=1C=CC=C(C1)C2CCN(CCC)CC2)C",
        "Molecular Formula": "C<sub>15</sub>H<sub>23</sub>NO<sub>2</sub>S",
        "Molecular Mass": "281.41",
        "Melting Point": "212-214 °C"
    }
}