{
    "cas_no": "214360-66-4",
    "key_name": "4-<em>tert</em>-Butylphenylboronic acid pinacol ester",
    "cn_name": null,
    "alternate_name": "1,3,2-Dioxaborolane, 2-[4-(1,1-dimethylethyl)phenyl]-4,4,5,5-tetramethyl-;2-[4-(1,1-Dimethylethyl)phenyl]-4,4,5,5-tetramethyl-1,3,2-dioxaborolane;2-(4-<em>tert</em>-Butylphenyl)-4,4,5,5-tetramethyl-1,3,2-dioxaborolane;4-<em>tert</em>-Butylphenylboronic acid pinacol ester",
    "duplicated_cas_no": "",
    "SMILES": "CC1(C)OB(OC1(C)C)C2=CC=C(C(C)(C)C)C=C2",
    "meta_data": {
        "InChI": "InChI=1S/C16H25BO2/c1-14(2,3)12-8-10-13(11-9-12)17-18-15(4,5)16(6,7)19-17/h8-11H,1-7H3",
        "InChIKey": null,
        "Canonical SMILES": "O1B(OC(C)(C)C1(C)C)C2=CC=C(C=C2)C(C)(C)C",
        "Molecular Formula": "C<sub>16</sub>H<sub>25</sub>BO<sub>2</sub>",
        "Molecular Mass": "260.18",
        "Melting Point": "139.9-140.9 °C"
    }
}