{
    "cas_no": "1810-74-8",
    "key_name": "1,2-Dihydro-7-methoxy-2,2,4-trimethylquinoline",
    "cn_name": null,
    "alternate_name": "Quinoline, 1,2-dihydro-7-methoxy-2,2,4-trimethyl-;1,2-Dihydro-7-methoxy-2,2,4-trimethylquinoline;2,2,4-Trimethyl-7-methoxy-1,2-dihydroquinoline;7-Methoxy-2,2,4-trimethyl-1,2-dihydroquinoline",
    "duplicated_cas_no": "",
    "SMILES": "CC=1C=2C(NC(C)(C)C1)=CC(OC)=CC2",
    "meta_data": {
        "InChI": "InChI=1S/C13H17NO/c1-9-8-13(2,3)14-12-7-10(15-4)5-6-11(9)12/h5-8,14H,1-4H3",
        "InChIKey": null,
        "Canonical SMILES": "O(C=1C=CC2=C(C1)NC(C=C2C)(C)C)C",
        "Molecular Formula": "C<sub>13</sub>H<sub>17</sub>NO",
        "Molecular Mass": "203.28",
        "Melting Point": "67-69 °C"
    }
}