{
    "cas_no": "112-11-8",
    "key_name": "Isopropyl oleate",
    "cn_name": "(Z)-9-十八烯酸2-甲基乙基酯;油酸异丙酯;",
    "alternate_name": "9-Octadecenoic acid (9<em>Z</em>)-, 1-methylethyl ester;Oleic acid, isopropyl ester;9-Octadecenoic acid (<em>Z</em>)-, 1-methylethyl ester;Isopropyl oleate",
    "duplicated_cas_no": "",
    "SMILES": "C(CCCC/C=C\\CCCCCCCC)CCC(OC(C)C)=O",
    "meta_data": {
        "InChI": "InChI=1S/C21H40O2/c1-4-5-6-7-8-9-10-11-12-13-14-15-16-17-18-19-21(22)23-20(2)3/h11-12,20H,4-10,13-19H2,1-3H3/b12-11-",
        "InChIKey": null,
        "Canonical SMILES": "O=C(OC(C)C)CCCCCCCC=CCCCCCCCC",
        "Molecular Formula": "C<sub>21</sub>H<sub>40</sub>O<sub>2</sub>",
        "Molecular Mass": "324.54",
        "Boiling Point": "215-217 °C @ Press: 14-15 Torr",
        "Melting Point": "-37.7 °C",
        "Density": "0.8678 g/cm³ @ Temp: 15 °C"
    }
}