{
    "cas_no": "26978-65-4",
    "key_name": "Bromoethanesulfonic acid",
    "cn_name": "2-溴乙基磺酸;",
    "alternate_name": "Ethanesulfonic acid, 2-bromo-;2-Bromoethanesulfonic acid;Bromoethanesulfonic acid;2-Bromoethane-1-sulfonic acid;2-Bromo-1-ethanesulfonic acid",
    "duplicated_cas_no": "",
    "SMILES": "C(S(=O)(=O)O)CBr",
    "meta_data": {
        "InChI": "InChI=1S/C2H5BrO3S/c3-1-2-7(4,5)6/h1-2H2,(H,4,5,6)",
        "InChIKey": null,
        "Canonical SMILES": "O=S(=O)(O)CCBr",
        "Molecular Formula": "C<sub>2</sub>H<sub>5</sub>BrO<sub>3</sub>S",
        "Molecular Mass": "189.03",
        "Boiling Point": "160-162 °C @ Press: 2 Torr"
    }
}