{
    "cas_no": "105-90-8",
    "key_name": "Geranyl propionate",
    "cn_name": "丙酸香叶酯;(E)-3,7-二甲基-2,6-辛二烯-1-醇丙酸酯;丙酸叶醇酯;",
    "alternate_name": "2,6-Octadien-1-ol, 3,7-dimethyl-, 1-propanoate, (2<em>E</em>)-;2,6-Octadien-1-ol, 3,7-dimethyl-, propionate, (<em>E</em>)-;2,6-Octadien-1-ol, 3,7-dimethyl-, propanoate, (<em>E</em>)-;Propionic acid, geranyl ester;2,6-Octadien-1-ol, 3,7-dimethyl-, propanoate, (2<em>E</em>)-;<em>trans</em>-3,7-Dimethyl-2,6-octadienyl propionate;Geranyl propionate;(<em>E</em>)-3,7-Dimethyl-2,6-octadien-1-ol propanoate;Geranyl propanoate;Geraniol propionate;Geraniol propanoate",
    "duplicated_cas_no": "",
    "SMILES": "C(=C/COC(CC)=O)(\\CCC=C(C)C)/C",
    "meta_data": {
        "InChI": "InChI=1S/C13H22O2/c1-5-13(14)15-10-9-12(4)8-6-7-11(2)3/h7,9H,5-6,8,10H2,1-4H3/b12-9+",
        "InChIKey": null,
        "Canonical SMILES": "O=C(OCC=C(C)CCC=C(C)C)CC",
        "Molecular Formula": "C<sub>13</sub>H<sub>22</sub>O<sub>2</sub>",
        "Molecular Mass": "210.31",
        "Boiling Point": "95-98 °C @ Press: 5 Torr"
    }
}