{
    "cas_no": "18711-15-4",
    "key_name": "4,6-Dichloro-1<em>H</em>-indole-2,3-dione",
    "cn_name": null,
    "alternate_name": "1<em>H</em>-Indole-2,3-dione, 4,6-dichloro-;Indole-2,3-dione, 4,6-dichloro-;4,6-Dichloro-1<em>H</em>-indole-2,3-dione;4,6-Dichloroisatin;4,6-Dichloro-2,3-indolinedione",
    "duplicated_cas_no": "",
    "SMILES": "O=C1C=2C(NC1=O)=CC(Cl)=CC2Cl",
    "meta_data": {
        "InChI": "InChI=1S/C8H3Cl2NO2/c9-3-1-4(10)6-5(2-3)11-8(13)7(6)12/h1-2H,(H,11,12,13)",
        "InChIKey": null,
        "Canonical SMILES": "O=C1NC=2C=C(Cl)C=C(Cl)C2C1=O",
        "Molecular Formula": "C<sub>8</sub>H<sub>3</sub>Cl<sub>2</sub>NO<sub>2</sub>",
        "Molecular Mass": "216.02",
        "Melting Point": "250 °C"
    }
}