{
    "cas_no": "1972-28-7",
    "key_name": "Diethyl azodicarboxylate",
    "cn_name": "偶氮二甲酸二乙酯;",
    "alternate_name": "1,2-Diazenedicarboxylic acid, 1,2-diethyl ester;Formic acid, azodi-, diethyl ester;Diazenedicarboxylic acid, diethyl ester;Diethyl azodicarboxylate;Diethyl azodiformate;Diethyl diazodicarboxylate;Diethoxycarbonyldiazene;1,2-Ethoxycarbonyl diazene;Diethyl diazenedicarboxylate;Azodicarboxylic acid diethyl ester;DEAD;Unifoam AZ-AE 200;NSC 3474;NSC 679015",
    "duplicated_cas_no": "1002737-16-7",
    "SMILES": "C(N=NC(OCC)=O)(OCC)=O",
    "meta_data": {
        "InChI": "InChI=1S/C6H10N2O4/c1-3-11-5(9)7-8-6(10)12-4-2/h3-4H2,1-2H3",
        "InChIKey": null,
        "Canonical SMILES": "O=C(N=NC(=O)OCC)OCC",
        "Molecular Formula": "C<sub>6</sub>H<sub>10</sub>N<sub>2</sub>O<sub>4</sub>",
        "Molecular Mass": "174.15",
        "Boiling Point": "90-95 °C @ Press: 5 Torr",
        "Melting Point": "118-122 °C"
    }
}