{
    "cas_no": "121-58-4",
    "key_name": "4-(Dimethylamino)benzenesulfonic acid",
    "cn_name": null,
    "alternate_name": "Benzenesulfonic acid, 4-(dimethylamino)-;Sulfanilic acid, <em>N</em>,<em>N</em>-dimethyl-;4-(Dimethylamino)benzenesulfonic acid;<em>N</em>,<em>N</em>-Dimethylsulfanilic acid;<em>p</em>-(Dimethylamino)benzenesulfonic acid;NSC 3540",
    "duplicated_cas_no": "",
    "SMILES": "S(=O)(=O)(O)C1=CC=C(N(C)C)C=C1",
    "meta_data": {
        "InChI": "InChI=1S/C8H11NO3S/c1-9(2)7-3-5-8(6-4-7)13(10,11)12/h3-6H,1-2H3,(H,10,11,12)",
        "InChIKey": null,
        "Canonical SMILES": "O=S(=O)(O)C1=CC=C(C=C1)N(C)C",
        "Molecular Formula": "C<sub>8</sub>H<sub>11</sub>NO<sub>3</sub>S",
        "Molecular Mass": "201.24",
        "Melting Point": "270 °C"
    }
}