{
    "cas_no": "2403-54-5",
    "key_name": "2-(4-Chlorophenyl)-1,3-dioxolane",
    "cn_name": "2-(4-氯苯基)-1,3-二氧戊环;对氯苯基乙二醇缩甲醛;",
    "alternate_name": "1,3-Dioxolane, 2-(4-chlorophenyl)-;1,3-Dioxolane, 2-(<em>p</em>-chlorophenyl)-;2-(4-Chlorophenyl)-1,3-dioxolane;2-(<em>p</em>-Chlorophenyl)-1,3-dioxolane;<em>p</em>-Chlorobenzaldehyde cyclic ethylene acetal;<em>p</em>-Chlorobenzaldehyde ethylene acetal;4-Chlorobenzaldehyde ethylene glycol acetal;4-Chlorobenzaldehyde ethylene acetal;NSC 202824;2-(4-Chlorophenyl)dioxolane",
    "duplicated_cas_no": "",
    "SMILES": "ClC1=CC=C(C=C1)C2OCCO2",
    "meta_data": {
        "InChI": "InChI=1S/C9H9ClO2/c10-8-3-1-7(2-4-8)9-11-5-6-12-9/h1-4,9H,5-6H2",
        "InChIKey": null,
        "Canonical SMILES": "ClC1=CC=C(C=C1)C2OCCO2",
        "Molecular Formula": "C<sub>9</sub>H<sub>9</sub>ClO<sub>2</sub>",
        "Molecular Mass": "184.62",
        "Boiling Point": "136-139 °C @ Press: 13 Torr"
    }
}