{
    "cas_no": "397246-14-9",
    "key_name": "1,1-Dimethylethyl <em>N</em>-[(1<em>R</em>)-3-hydroxy-1-(hydroxymethyl)propyl]carbamate",
    "cn_name": null,
    "alternate_name": "Carbamic acid, <em>N</em>-[(1<em>R</em>)-3-hydroxy-1-(hydroxymethyl)propyl]-, 1,1-dimethylethyl ester;Carbamic acid, [(1<em>R</em>)-3-hydroxy-1-(hydroxymethyl)propyl]-, 1,1-dimethylethyl ester;1,1-Dimethylethyl <em>N</em>-[(1<em>R</em>)-3-hydroxy-1-(hydroxymethyl)propyl]carbamate;(2<em>R</em>)-(<em>tert</em>-Butoxycarbonylamino)butane-1,4-diol;(R)-<em>tert</em>-Butyl (1,4-dihydroxybutan-2-yl)carbamate",
    "duplicated_cas_no": "",
    "SMILES": "N([C@H](CCO)CO)C(OC(C)(C)C)=O",
    "meta_data": {
        "InChI": "InChI=1S/C9H19NO4/c1-9(2,3)14-8(13)10-7(6-12)4-5-11/h7,11-12H,4-6H2,1-3H3,(H,10,13)/t7-/m1/s1",
        "InChIKey": null,
        "Canonical SMILES": "O=C(OC(C)(C)C)NC(CO)CCO",
        "Molecular Formula": "C<sub>9</sub>H<sub>19</sub>NO<sub>4</sub>",
        "Molecular Mass": "205.25",
        "Melting Point": "64-68 °C"
    }
}