{
    "cas_no": "27460-02-2",
    "key_name": "Phosphoric acid, dodecyl diphenyl ester",
    "cn_name": "烷基二苯磷酸酯;",
    "alternate_name": "Phosphoric acid, dodecyl diphenyl ester;Dodecyl diphenyl phosphate;Diphenyl lauryl phosphate",
    "duplicated_cas_no": "",
    "SMILES": "P(OC1=CC=CC=C1)(OC2=CC=CC=C2)(OCCCCCCCCCCCC)=O",
    "meta_data": {
        "InChI": "InChI=1S/C24H35O4P/c1-2-3-4-5-6-7-8-9-10-17-22-26-29(25,27-23-18-13-11-14-19-23)28-24-20-15-12-16-21-24/h11-16,18-21H,2-10,17,22H2,1H3",
        "InChIKey": null,
        "Canonical SMILES": "O=P(OC=1C=CC=CC1)(OC=2C=CC=CC2)OCCCCCCCCCCCC",
        "Molecular Formula": "C<sub>24</sub>H<sub>35</sub>O<sub>4</sub>P",
        "Molecular Mass": "418.51",
        "Melting Point": "&lt;-30 °C",
        "Density": "1.038 g/cm³ @ Temp: 26.5 °C"
    }
}