{
    "cas_no": "2923-28-6",
    "key_name": "Silver triflate",
    "cn_name": "三氟甲烷磺酸银;",
    "alternate_name": "Methanesulfonic acid, 1,1,1-trifluoro-, silver(1+) salt (1:1);Methanesulfonic acid, trifluoro-, silver(1+) salt;Trifluoromethanesulfonic acid silver(1+) salt;Silver triflate;Silver (trifluoromethyl)sulfonate;Silver(I) trifluoromethanesulfonate;Silver trifluoromethanesulfonate;Silver(1+) trifluoromethanesulfonate;Silver trifluoromethanesulphonate;Silver(I) triflate;Silver(1+) triflate;Silver trifluoromethanesulfonate (AgO<sub>3</sub>SCF<sub>3</sub>);Silver trifluoromethanesulfonate (AgCF<sub>3</sub>SO<sub>3</sub>)",
    "duplicated_cas_no": "330649-44-0;380240-12-0;460355-11-7;499776-24-8;637342-85-9;1958087-17-6;2232870-49-2",
    "SMILES": "C(S(=O)(=O)O)(F)(F)F.[Ag]",
    "meta_data": {
        "InChI": "InChI=1S/CHF3O3S.Ag/c2-1(3,4)8(5,6)7;/h(H,5,6,7);",
        "InChIKey": null,
        "Canonical SMILES": "[Ag].O=S(=O)(O)C(F)(F)F",
        "Molecular Formula": "CHF<sub>3</sub>O<sub>3</sub>S.Ag",
        "Molecular Mass": "",
        "Melting Point": "286 °C"
    }
}