{
    "cas_no": "149-11-1",
    "key_name": "Copper(II) 2-ethylhexanoate",
    "cn_name": "异辛酸铜;",
    "alternate_name": "Hexanoic acid, 2-ethyl-, copper(2+) salt (2:1);Hexanoic acid, 2-ethyl-, copper(2+) salt;Hexanoic acid, 2-ethyl-, copper salt (2:1);Cupric bis(2-ethylhexanoate);2-Ethylhexanoic acid copper(2+) salt;Copper bis(2-ethylhexanoate);Copper di(2-ethylhexanoate);Copper(2+) 2-ethylhexanoate;Copper(II) 2-ethylhexanoate;NSC 4139",
    "duplicated_cas_no": "",
    "SMILES": "C(CCCC)(C(O)=O)CC.[Cu]",
    "meta_data": {
        "InChI": "InChI=1S/C8H16O2.Cu/c1-3-5-6-7(4-2)8(9)10;/h7H,3-6H2,1-2H3,(H,9,10);",
        "InChIKey": null,
        "Canonical SMILES": "[Cu].O=C(O)C(CC)CCCC",
        "Molecular Formula": "C<sub>8</sub>H<sub>16</sub>O<sub>2</sub>.<sup>1</sup>/<sub>2</sub>Cu",
        "Molecular Mass": "",
        "Melting Point": "252 °C (decomp)"
    }
}