{
    "cas_no": "4333-56-6",
    "key_name": "Bromocyclopropane",
    "cn_name": "溴代环丙烷;环丙溴;",
    "alternate_name": "Cyclopropane, bromo-;Bromocyclopropane;Cyclopropyl bromide;NSC 89692",
    "duplicated_cas_no": "",
    "SMILES": "BrC1CC1",
    "meta_data": {
        "InChI": "InChI=1S/C3H5Br/c4-3-1-2-3/h3H,1-2H2",
        "InChIKey": null,
        "Canonical SMILES": "BrC1CC1",
        "Molecular Formula": "C<sub>3</sub>H<sub>5</sub>Br",
        "Molecular Mass": "120.98",
        "Boiling Point": "69 °C",
        "Density": "1.5052 g/cm³ @ Temp: 25 °C"
    }
}