{
    "cas_no": "1182-66-7",
    "key_name": "Cholesteryl nonanoate",
    "cn_name": "胆固醇壬酸酯;",
    "alternate_name": "Cholest-5-en-3-ol (3β)-, 3-nonanoate;Cholesterol, nonanoate;Cholest-5-en-3-ol (3β)-, nonanoate;Nonanoic acid, cholesteryl ester;Cholesteryl nonanoate;3β-(Nonanoyloxy)cholest-5-ene;Cholesterol pelargonate;Cholesteryl pelargonate;Cholesteryl nonylate;Cholesterin pelargonate;Cholest-5-en-3β-ol nonanoate;5-Cholesten-3β-ol nonanoate",
    "duplicated_cas_no": "56362-71-1;346420-10-8;248260-64-2;248258-85-7;870637-54-0",
    "SMILES": "C[C@@]12[C@@]3([C@]([C@]4([C@](C)(CC3)[C@@]([C@@H](CCCC(C)C)C)(CC4)[H])[H])(CC=C1C[C@@H](OC(CCCCCCCC)=O)CC2)[H])[H]",
    "meta_data": {
        "InChI": "InChI=1S/C36H62O2/c1-7-8-9-10-11-12-16-34(37)38-29-21-23-35(5)28(25-29)17-18-30-32-20-19-31(27(4)15-13-14-26(2)3)36(32,6)24-22-33(30)35/h17,26-27,29-33H,7-16,18-25H2,1-6H3/t27-,29+,30+,31-,32+,33+,35+,36-/m1/s1",
        "InChIKey": null,
        "Canonical SMILES": "O=C(OC1CC2=CCC3C(CCC4(C)C(CCC34)C(C)CCCC(C)C)C2(C)CC1)CCCCCCCC",
        "Molecular Formula": "C<sub>36</sub>H<sub>62</sub>O<sub>2</sub>",
        "Molecular Mass": "526.88",
        "Melting Point": "80 °C"
    }
}