{
    "cas_no": "774-40-3",
    "key_name": "(±)-Ethyl mandelate",
    "cn_name": "扁桃酸乙酯;&alpha;-羟基苯乙酸乙酯;",
    "alternate_name": "Benzeneacetic acid, α-hydroxy-, ethyl ester;Mandelic acid, ethyl ester;Ethyl mandelate;Ethyl phenylglycolate;<span class=\"text-smallcaps\">D</smallcap><smallcap>L</span>-Ethyl mandelate;<em>dl</em>-Mandelic acid ethyl ester;(±)-Ethyl mandelate;<span class=\"text-smallcaps\">D</smallcap><smallcap>L</span>-Mandelic acid ethyl ester;(±)-α-Hydroxybenzeneacetic acid ethyl ester;(±)-Mandelic acid ethyl ester;Ethyl hydroxy(phenyl)acetate;Ethyl α-hydroxyphenylacetate;NSC 5307;Ethyl 2-hydroxy-2-phenylacetate;Ethyl α-hydroxybenzeneacetate;Ethyl amygdalate;Ethyl 2-phenyl-2-hydroxyacetate",
    "duplicated_cas_no": "4358-88-7;1147491-52-8",
    "SMILES": "C(C(OCC)=O)(O)C1=CC=CC=C1",
    "meta_data": {
        "InChI": "InChI=1S/C10H12O3/c1-2-13-10(12)9(11)8-6-4-3-5-7-8/h3-7,9,11H,2H2,1H3",
        "InChIKey": null,
        "Canonical SMILES": "O=C(OCC)C(O)C=1C=CC=CC1",
        "Molecular Formula": "C<sub>10</sub>H<sub>12</sub>O<sub>3</sub>",
        "Molecular Mass": "180.20",
        "Boiling Point": "130-135 °C @ Press: 13 Torr",
        "Melting Point": "35 °C"
    }
}