{
    "cas_no": "3107-21-9",
    "key_name": "1,2,3-Trichloro-5-fluorobenzene",
    "cn_name": null,
    "alternate_name": "Benzene, 1,2,3-trichloro-5-fluoro-;1,2,3-Trichloro-5-fluorobenzene;3,4,5-Trichlorofluorobenzene;1-Fluoro-3,4,5-trichlorobenzene",
    "duplicated_cas_no": "",
    "SMILES": "ClC1=C(Cl)C=C(F)C=C1Cl",
    "meta_data": {
        "InChI": "InChI=1S/C6H2Cl3F/c7-4-1-3(10)2-5(8)6(4)9/h1-2H",
        "InChIKey": null,
        "Canonical SMILES": "FC=1C=C(Cl)C(Cl)=C(Cl)C1",
        "Molecular Formula": "C<sub>6</sub>H<sub>2</sub>Cl<sub>3</sub>F",
        "Molecular Mass": "199.44",
        "Melting Point": "52 °C"
    }
}