{
    "cas_no": "1205-64-7",
    "key_name": "3-Methyldiphenylamine",
    "cn_name": "3-甲基二苯胺;间甲二苯胺;",
    "alternate_name": "Benzenamine, 3-methyl-<em>N</em>-phenyl-;<em>m</em>-Toluidine, <em>N</em>-phenyl-;3-Methyl-<em>N</em>-phenylbenzenamine;3-Methyldiphenylamine;<em>N</em>-Phenyl-<em>m</em>-toluidine;(3-Methylphenyl)phenylamine;<em>N</em>-(3-Methylphenyl)-<em>N</em>-phenylamine;<em>N</em>-(3-Methylphenyl)aniline;<em>N</em>-Phenyl-3-methylaniline;Phenyl-<em>m</em>-tolylamine;<em>N</em>-Phenyl-3-toluidine;3-Methyl-<em>N</em>-phenylaniline",
    "duplicated_cas_no": "",
    "SMILES": "N(C1=CC(C)=CC=C1)C2=CC=CC=C2",
    "meta_data": {
        "InChI": "InChI=1S/C13H13N/c1-11-6-5-9-13(10-11)14-12-7-3-2-4-8-12/h2-10,14H,1H3",
        "InChIKey": null,
        "Canonical SMILES": "C=1C=CC(=CC1)NC2=CC=CC(=C2)C",
        "Molecular Formula": "C<sub>13</sub>H<sub>13</sub>N",
        "Molecular Mass": "183.25",
        "Boiling Point": "316 °C",
        "Melting Point": "30 °C"
    }
}