{
    "cas_no": "40172-95-0",
    "key_name": "1-(2-Furoyl)piperazine",
    "cn_name": "1-(2-呋喃甲酰基)哌嗪;",
    "alternate_name": "Methanone, 2-furanyl-1-piperazinyl-;Piperazine, 1-(2-furanylcarbonyl)-;2-Furanyl-1-piperazinylmethanone;<em>N</em>-(2-Furoyl)piperazine;1-(2-Furoyl)piperazine;1-(2-Furylcarbonyl)piperazine;1-(2-Furanylcarbonyl)piperazine;1-(Furan-2-carbonyl)piperazine;(Furan-2-yl)(piperazin-1-yl)methanone;4-(Furan-2-ylcarbonyl)piperazine;<em>N</em>-(2-Furancarbonyl)piperazine;<em>N</em>-(Furan-2-oyl)piperazine;1-(2-Furanoyl)piperazine",
    "duplicated_cas_no": "",
    "SMILES": "C(=O)(C1=CC=CO1)N2CCNCC2",
    "meta_data": {
        "InChI": "InChI=1S/C9H12N2O2/c12-9(8-2-1-7-13-8)11-5-3-10-4-6-11/h1-2,7,10H,3-6H2",
        "InChIKey": null,
        "Canonical SMILES": "O=C(C=1OC=CC1)N2CCNCC2",
        "Molecular Formula": "C<sub>9</sub>H<sub>12</sub>N<sub>2</sub>O<sub>2</sub>",
        "Molecular Mass": "180.20",
        "Boiling Point": "137-140 °C @ Press: 0.1 Torr"
    }
}