{
    "cas_no": "141-28-6",
    "key_name": "Diethyl adipate",
    "cn_name": "己二酸二乙酯;",
    "alternate_name": "Hexanedioic acid, 1,6-diethyl ester;Adipic acid, diethyl ester;Hexanedioic acid, diethyl ester;Diethyl adipate;Ethyl adipate;Ethyl δ-carboethoxyvalerate;Diethyl hexanedioate;NSC 19160;NSC 3363;Crodamol SE-LQ-(JP);1,6-Diethyl hexanedioate",
    "duplicated_cas_no": "",
    "SMILES": "C(CCCCC(OCC)=O)(OCC)=O",
    "meta_data": {
        "InChI": "InChI=1S/C10H18O4/c1-3-13-9(11)7-5-6-8-10(12)14-4-2/h3-8H2,1-2H3",
        "InChIKey": null,
        "Canonical SMILES": "O=C(OCC)CCCCC(=O)OCC",
        "Molecular Formula": "C<sub>10</sub>H<sub>18</sub>O<sub>4</sub>",
        "Molecular Mass": "202.25",
        "Boiling Point": "245 °C",
        "Melting Point": "-19.8 °C",
        "Density": "1.0076 g/cm³ @ Temp: 20 °C"
    }
}