{
    "cas_no": "26106-63-8",
    "key_name": "Tetrahydrofuran-2,3,4,5-tetracarboxylic acid",
    "cn_name": "四氢呋喃-2,3,4,5-四羧酸;四氢呋喃-2,3,4,5-四羧酸;",
    "alternate_name": "2,3,4,5-Furantetracarboxylic acid, tetrahydro-;Furantetracarboxylic acid, tetrahydro-;Tetrahydro-2,3,4,5-furantetracarboxylic acid;Tetrahydrofuran-2,3,4,5-tetracarboxylic acid;Tetrahydrofurantetracarboxylic acid;2,3,4,5-Tetracarboxytetrahydrofuran;NSC 122277",
    "duplicated_cas_no": "",
    "SMILES": "C(O)(=O)C1C(C(O)=O)C(C(O)=O)OC1C(O)=O",
    "meta_data": {
        "InChI": "InChI=1S/C8H8O9/c9-5(10)1-2(6(11)12)4(8(15)16)17-3(1)7(13)14/h1-4H,(H,9,10)(H,11,12)(H,13,14)(H,15,16)",
        "InChIKey": null,
        "Canonical SMILES": "O=C(O)C1OC(C(=O)O)C(C(=O)O)C1C(=O)O",
        "Molecular Formula": "C<sub>8</sub>H<sub>8</sub>O<sub>9</sub>",
        "Molecular Mass": "248.14",
        "Melting Point": "208 °C (decomp)"
    }
}