{
    "cas_no": "6864-37-5",
    "key_name": "Bis(4-amino-3-methylcyclohexyl)methane",
    "cn_name": "3,3\"-二甲基-4,4-二氨基二环己基甲烷;",
    "alternate_name": "Cyclohexanamine, 4,4′-methylenebis[2-methyl-;Cyclohexylamine, 4,4′-methylenebis[2-methyl-;4,4′-Methylenebis[2-methylcyclohexanamine];4,4′-Diamino-3,3′-dimethyldicyclohexylmethane;Bis(3-methyl-4-aminocyclohexyl)methane;3,3′-Dimethyl-4,4′-diaminodicyclohexylmethane;4,4′-Methylenebis[2-methylcyclohexylamine];Bis(4-amino-3-methylcyclohexyl)methane;Laromin C 260;Laromin C;Hardener SL;Rutapox SL;3DCM;2,2′-Dimethyl-4,4′-methylenebis(cyclohexylamine);Ancamine 2049;Dimethyldicykan;Ciba 2976;Eporesit T 58;RF 24;SIQ-AMIN 1105;Epicure 113;JER Cure 113;T 58;C 260;DMDC;JER 113;EC 331;Baxxodur EC 331;Aradur 8615;MACM;MH 3122;Baxxodur 331;4,4′-Methylenebis(2-methycyclohexylamine);Epikure 04434;L 287;Lunacure MACM-F",
    "duplicated_cas_no": "32911-59-4;39283-21-1;60120-40-3;74926-18-4;116397-45-6;167678-63-9;300690-18-0;635305-12-3;1204529-54-3;1437984-69-4;1451256-40-8;1493800-15-9;2794918-34-4",
    "SMILES": "C(C1CC(C)C(N)CC1)C2CC(C)C(N)CC2",
    "meta_data": {
        "InChI": "InChI=1S/C15H30N2/c1-10-7-12(3-5-14(10)16)9-13-4-6-15(17)11(2)8-13/h10-15H,3-9,16-17H2,1-2H3",
        "InChIKey": null,
        "Canonical SMILES": "NC1CCC(CC2CCC(N)C(C)C2)CC1C",
        "Molecular Formula": "C<sub>15</sub>H<sub>30</sub>N<sub>2</sub>",
        "Molecular Mass": "238.41",
        "Boiling Point": "342 °C",
        "Melting Point": "-7 °C",
        "Density": "0.95 g/cm³"
    }
}