{
    "cas_no": "15870-10-7",
    "key_name": "2-Methyl-1-heptene",
    "cn_name": "2-甲基-1-庚烯;",
    "alternate_name": "1-Heptene, 2-methyl-;2-Methyl-1-heptene;NSC 73949",
    "duplicated_cas_no": "",
    "SMILES": "C(CCCC)C(C)=C",
    "meta_data": {
        "InChI": "InChI=1S/C8H16/c1-4-5-6-7-8(2)3/h2,4-7H2,1,3H3",
        "InChIKey": null,
        "Canonical SMILES": "C=C(C)CCCCC",
        "Molecular Formula": "C<sub>8</sub>H<sub>16</sub>",
        "Molecular Mass": "112.21",
        "Boiling Point": "119.3 °C",
        "Melting Point": "-90 °C",
        "Density": "0.72025 g/cm³ @ Temp: 20 °C"
    }
}