{
    "cas_no": "5318-76-3",
    "key_name": "Imidocarb hydrochloride",
    "cn_name": null,
    "alternate_name": "Urea, <em>N</em>,<em>N</em>′-bis[3-(4,5-dihydro-1<em>H</em>-imidazol-2-yl)phenyl]-, hydrochloride (1:2);Carbanilide, 3,3′-di-2-imidazolin-2-yl-, dihydrochloride;Urea, <em>N</em>,<em>N</em>′-bis[3-(4,5-dihydro-1<em>H</em>-imidazol-2-yl)phenyl]-, dihydrochloride;Imidocarb hydrochloride;Imizocarb;4A65;Imidocarb dihydrochloride;3,3′-Bis(2-imidazolin-2-yl)carbanilide dihydrochloride;Diamidine;Diamidine (babesicide)",
    "duplicated_cas_no": "",
    "SMILES": "N(C(NC1=CC(=CC=C1)C=2NCCN2)=O)C=3C=C(C=CC3)C=4NCCN4.Cl",
    "meta_data": {
        "InChI": "InChI=1S/C19H20N6O.2ClH/c26-19(24-15-5-1-3-13(11-15)17-20-7-8-21-17)25-16-6-2-4-14(12-16)18-22-9-10-23-18;;/h1-6,11-12H,7-10H2,(H,20,21)(H,22,23)(H2,24,25,26);2*1H",
        "InChIKey": null,
        "Canonical SMILES": "Cl.O=C(NC1=CC=CC(=C1)C2=NCCN2)NC3=CC=CC(=C3)C4=NCCN4",
        "Molecular Formula": "C<sub>19</sub>H<sub>20</sub>N<sub>6</sub>O.2ClH",
        "Molecular Mass": "",
        "Melting Point": "350 °C (decomp)"
    }
}