{
    "cas_no": "709-49-9",
    "key_name": "2,4-Dinitroiodobenzene",
    "cn_name": "2,4-二硝基碘苯;2,4-二硝基-1-碘苯;",
    "alternate_name": "Benzene, 1-iodo-2,4-dinitro-;1-Iodo-2,4-dinitrobenzene;2,4-Dinitroiodobenzene;1,3-Dinitro-4-iodobenzene;2,4-Dinitrophenyl iodide;4-Iodo-1,3-dinitrobenzene;NSC 10266;2,4-Dinitro-1-iodobenzene;6-Iodo-1,3-dinitrobenzene",
    "duplicated_cas_no": "",
    "SMILES": "N(=O)(=O)C1=CC(N(=O)=O)=CC=C1I",
    "meta_data": {
        "InChI": "InChI=1S/C6H3IN2O4/c7-5-2-1-4(8(10)11)3-6(5)9(12)13/h1-3H",
        "InChIKey": null,
        "Canonical SMILES": "O=N(=O)C1=CC=C(I)C(=C1)N(=O)=O",
        "Molecular Formula": "C<sub>6</sub>H<sub>3</sub>IN<sub>2</sub>O<sub>4</sub>",
        "Molecular Mass": "294.00",
        "Melting Point": "88.7 °C"
    }
}