{
    "cas_no": "71022-43-0",
    "key_name": "3,5-Dinitrobenzenemethanol",
    "cn_name": "3,5-二硝基苯甲醇;",
    "alternate_name": "Benzenemethanol, 3,5-dinitro-;Benzyl alcohol, 3,5-dinitro-;3,5-Dinitrobenzenemethanol;3,5-Dinitrobenzyl alcohol;(3,5-Dinitro-phenyl)-methanol",
    "duplicated_cas_no": "",
    "SMILES": "N(=O)(=O)C1=CC(N(=O)=O)=CC(CO)=C1",
    "meta_data": {
        "InChI": "InChI=1S/C7H6N2O5/c10-4-5-1-6(8(11)12)3-7(2-5)9(13)14/h1-3,10H,4H2",
        "InChIKey": null,
        "Canonical SMILES": "O=N(=O)C=1C=C(C=C(C1)CO)N(=O)=O",
        "Molecular Formula": "C<sub>7</sub>H<sub>6</sub>N<sub>2</sub>O<sub>5</sub>",
        "Molecular Mass": "198.13",
        "Melting Point": "89 °C"
    }
}