{
    "cas_no": "531-44-2",
    "key_name": "Scopolin",
    "cn_name": "东莨菪苷;",
    "alternate_name": "2<em>H</em>-1-Benzopyran-2-one, 7-(β-<span class=\"text-smallcaps\">D</span>-glucopyranosyloxy)-6-methoxy-;Scopolin;7-(β-<span class=\"text-smallcaps\">D</span>-Glucopyranosyloxy)-6-methoxy-2<em>H</em>-1-benzopyran-2-one;Scopoletin 7-glucoside;6-Methoxy-7-(β-<span class=\"text-smallcaps\">D</span>-glucopyranosyloxy)coumarin;Scopoloside;Scopoline;Scopoletin 7-<em>O</em>-β-<span class=\"text-smallcaps\">D</span>-glucopyranoside;Scopoletin 7-<em>O</em>-glucoside;NSC 404560;7-<em>O</em>-β-Glucopyranosylscopoletin;7-(β-<span class=\"text-smallcaps\">D</span>-Glucopyranosyloxy)-6-methoxycoumarin;6-Methoxycoumarin 7-<em>O</em>-β-<span class=\"text-smallcaps\">D</span>-glucoside",
    "duplicated_cas_no": "27013-26-9",
    "SMILES": "O(C1=C(OC)C=C2C(=C1)OC(=O)C=C2)[C@@H]3O[C@H](CO)[C@@H](O)[C@H](O)[C@H]3O",
    "meta_data": {
        "InChI": "InChI=1S/C16H18O9/c1-22-9-4-7-2-3-12(18)23-8(7)5-10(9)24-16-15(21)14(20)13(19)11(6-17)25-16/h2-5,11,13-17,19-21H,6H2,1H3/t11-,13-,14+,15-,16-/m1/s1",
        "InChIKey": null,
        "Canonical SMILES": "O=C1OC=2C=C(OC3OC(CO)C(O)C(O)C3O)C(OC)=CC2C=C1",
        "Molecular Formula": "C<sub>16</sub>H<sub>18</sub>O<sub>9</sub>",
        "Molecular Mass": "354.31",
        "Melting Point": "221-223 °C"
    }
}