{
    "cas_no": "88678-67-5",
    "key_name": "Pyributicarb",
    "cn_name": "稗草畏;O-3-特丁基苯基-6-甲氧基-2-吡啶(甲基)硫代氨基甲酸酯;",
    "alternate_name": "Carbamothioic acid, <em>N</em>-(6-methoxy-2-pyridinyl)-<em>N</em>-methyl-, <em>O</em>-[3-(1,1-dimethylethyl)phenyl] ester;Carbamothioic acid, (6-methoxy-2-pyridinyl)methyl-, <em>O</em>-[3-(1,1-dimethylethyl)phenyl] ester;Pyributicarb;TSH 888;<em>O</em>-3-<em>tert</em>-Butylphenyl <em>N</em>-(6-methoxy-2-pyridyl)-<em>N</em>-methylthiocarbamate;Isshintasuke flowable;Isshintasuke",
    "duplicated_cas_no": "140908-77-6",
    "SMILES": "O(C(N(C)C=1N=C(OC)C=CC1)=S)C2=CC(C(C)(C)C)=CC=C2",
    "meta_data": {
        "InChI": "InChI=1S/C18H22N2O2S/c1-18(2,3)13-8-6-9-14(12-13)22-17(23)20(4)15-10-7-11-16(19-15)21-5/h6-12H,1-5H3",
        "InChIKey": null,
        "Canonical SMILES": "S=C(OC1=CC=CC(=C1)C(C)(C)C)N(C2=NC(OC)=CC=C2)C",
        "Molecular Formula": "C<sub>18</sub>H<sub>22</sub>N<sub>2</sub>O<sub>2</sub>S",
        "Molecular Mass": "330.44",
        "Melting Point": "86 °C"
    }
}