{
    "cas_no": "4761-93-7",
    "key_name": "Imidodicarbonimidic diamide, hydrochloride (1:1)",
    "cn_name": null,
    "alternate_name": "Imidodicarbonimidic diamide, hydrochloride (1:1);Biguanide, monohydrochloride;Imidodicarbonimidic diamide, monohydrochloride;Guanylguanidinium chloride",
    "duplicated_cas_no": "",
    "SMILES": "N(C(=N)N)C(=N)N.Cl",
    "meta_data": {
        "InChI": "InChI=1S/C2H7N5.ClH/c3-1(4)7-2(5)6;/h(H7,3,4,5,6,7);1H",
        "InChIKey": null,
        "Canonical SMILES": "Cl.N=C(N)NC(=N)N",
        "Molecular Formula": "C<sub>2</sub>H<sub>7</sub>N<sub>5</sub>.ClH",
        "Molecular Mass": "",
        "Melting Point": "350 °C"
    }
}