{
    "cas_no": "3973-62-4",
    "key_name": "3-Phenylpiperidine",
    "cn_name": "3-苯基哌啶;3-苯基哌啶;",
    "alternate_name": "Piperidine, 3-phenyl-;3-Phenylpiperidine",
    "duplicated_cas_no": "",
    "SMILES": "C1(=CC=CC=C1)C2CCCNC2",
    "meta_data": {
        "InChI": "InChI=1S/C11H15N/c1-2-5-10(6-3-1)11-7-4-8-12-9-11/h1-3,5-6,11-12H,4,7-9H2",
        "InChIKey": null,
        "Canonical SMILES": "C=1C=CC(=CC1)C2CNCCC2",
        "Molecular Formula": "C<sub>11</sub>H<sub>15</sub>N",
        "Molecular Mass": "161.24",
        "Boiling Point": "257 °C",
        "Melting Point": "14.5 °C",
        "Density": "1.0040 g/cm³"
    }
}