{
    "cas_no": "18437-63-3",
    "key_name": "1,1-Dimethylethyl <em>N</em>-(4-nitrophenyl)carbamate",
    "cn_name": null,
    "alternate_name": "Carbamic acid, <em>N</em>-(4-nitrophenyl)-, 1,1-dimethylethyl ester;Carbanilic acid, <em>p</em>-nitro-, <em>tert</em>-butyl ester;Carbamic acid, (4-nitrophenyl)-, 1,1-dimethylethyl ester;1,1-Dimethylethyl <em>N</em>-(4-nitrophenyl)carbamate;<em>tert</em>-Butyl <em>p</em>-nitrocarbanilate;4-Nitro-<em>N</em>-(<em>tert</em>-butoxycarbonyl)aniline;(4-Nitrophenyl)carbamic acid 1,1-dimethylethyl ester;<em>tert</em>-Butyl <em>p</em>-nitrophenylcarbamate;<em>N</em>-(<em>tert</em>-Butoxycarbonyl)-4-nitroaniline;<em>tert</em>-Butyl (4-nitrophenyl)carbamate;<em>tert</em>-Butyl <em>N</em>-(4-nitrophenyl)carbamate;<em>N</em>-Boc-4-nitroaniline;(4-Nitrophenyl)carbamic acid tert-butyl ester",
    "duplicated_cas_no": "",
    "SMILES": "N(=O)(=O)C1=CC=C(NC(OC(C)(C)C)=O)C=C1",
    "meta_data": {
        "InChI": "InChI=1S/C11H14N2O4/c1-11(2,3)17-10(14)12-8-4-6-9(7-5-8)13(15)16/h4-7H,1-3H3,(H,12,14)",
        "InChIKey": null,
        "Canonical SMILES": "O=C(OC(C)(C)C)NC1=CC=C(C=C1)N(=O)=O",
        "Molecular Formula": "C<sub>11</sub>H<sub>14</sub>N<sub>2</sub>O<sub>4</sub>",
        "Molecular Mass": "238.24",
        "Boiling Point": "308-312 °C",
        "Melting Point": "112-113 °C"
    }
}