{
    "cas_no": "619-73-8",
    "key_name": "4-Nitrobenzyl alcohol",
    "cn_name": "对硝基苯甲醇;",
    "alternate_name": "Benzenemethanol, 4-nitro-;Benzyl alcohol, <em>p</em>-nitro-;4-Nitrobenzenemethanol;4-Nitrobenzyl alcohol;<em>p</em>-(Hydroxymethyl)nitrobenzene;(4-Nitrophenyl)methanol;<em>p</em>-Nitrobenzyl alcohol;4-(Hydroxymethyl)nitrobenzene;1-(Hydroxymethyl)-4-nitrobenzene;NSC 5389;<em>p</em>-Nitrophenylmethanol",
    "duplicated_cas_no": "185532-82-5",
    "SMILES": "N(=O)(=O)C1=CC=C(CO)C=C1",
    "meta_data": {
        "InChI": "InChI=1S/C7H7NO3/c9-5-6-1-3-7(4-2-6)8(10)11/h1-4,9H,5H2",
        "InChIKey": null,
        "Canonical SMILES": "O=N(=O)C1=CC=C(C=C1)CO",
        "Molecular Formula": "C<sub>7</sub>H<sub>7</sub>NO<sub>3</sub>",
        "Molecular Mass": "153.14",
        "Boiling Point": "185 °C",
        "Melting Point": "96.5 °C"
    }
}