{
    "cas_no": "76-22-2",
    "key_name": "(±)-Camphor",
    "cn_name": "2-莰酮;樟脑醑;樟脑;1,7,7-三甲基二环[2.2.1]庚烷-2-酮;",
    "alternate_name": "Bicyclo[2.2.1]heptan-2-one, 1,7,7-trimethyl-;Camphor;1,7,7-Trimethylbicyclo[2.2.1]heptan-2-one;2-Bornanone;1,7,7-Trimethylbicyclo[2.2.1]-2-heptanone;Root bark oil;Spirit of camphor;1,7,7-Trimethylnorcamphor;2-Camphanone;Alphanon;(±)-Camphor;<em>dl</em>-Camphor;<span class=\"text-smallcaps\">DL</span>-Camphor;Racemic camphor;Borneo camphor;HCXL 8899;MeSH ID: D002164",
    "duplicated_cas_no": "8013-55-6;8022-77-3;21368-68-3;48113-22-0",
    "SMILES": "CC12C(C)(C)C(CC1=O)CC2",
    "meta_data": {
        "InChI": "InChI=1S/C10H16O/c1-9(2)7-4-5-10(9,3)8(11)6-7/h7H,4-6H2,1-3H3",
        "InChIKey": null,
        "Canonical SMILES": "O=C1CC2CCC1(C)C2(C)C",
        "Molecular Formula": "C<sub>10</sub>H<sub>16</sub>O",
        "Molecular Mass": "152.23",
        "Boiling Point": "204 °C",
        "Melting Point": "179 °C",
        "Density": "0.992 g/cm³ @ Temp: 25 °C"
    }
}