{
    "cas_no": "1443-76-1",
    "key_name": "4-Hydroxy-3,5-dimethoxybenzoic acid hydrazide",
    "cn_name": "3,5-二甲氧基-4-羟基苯酰肼;",
    "alternate_name": "Benzoic acid, 4-hydroxy-3,5-dimethoxy-, hydrazide;4-Hydroxy-3,5-dimethoxybenzoic acid hydrazide;3,5-Dimethoxy-4-hydroxybenzoic acid hydrazide;NSC 77902",
    "duplicated_cas_no": "",
    "SMILES": "C(NN)(=O)C1=CC(OC)=C(O)C(OC)=C1",
    "meta_data": {
        "InChI": "InChI=1S/C9H12N2O4/c1-14-6-3-5(9(13)11-10)4-7(15-2)8(6)12/h3-4,12H,10H2,1-2H3,(H,11,13)",
        "InChIKey": null,
        "Canonical SMILES": "O=C(NN)C1=CC(OC)=C(O)C(OC)=C1",
        "Molecular Formula": "C<sub>9</sub>H<sub>12</sub>N<sub>2</sub>O<sub>4</sub>",
        "Molecular Mass": "212.20",
        "Melting Point": "210-215 °C"
    }
}