{
    "cas_no": "702-82-9",
    "key_name": "3-Amino-1-adamantanol",
    "cn_name": "3-胺基-1-金刚烷醇;",
    "alternate_name": "Tricyclo[3.3.1.1<sup>3,7</sup>]decan-1-ol, 3-amino-;1-Adamantanol, 3-amino-;3-Aminotricyclo[3.3.1.1<sup>3,7</sup>]decan-1-ol;1-Amino-3-hydroxyadamantane;3-Amino-1-adamantanol;1-Amino-3-adamantanol;(3-Hydroxyadamantan-1-yl)amine;3-Amino-1-hydroxyadamantane",
    "duplicated_cas_no": "",
    "SMILES": "NC12CC3(O)CC(C1)CC(C2)C3",
    "meta_data": {
        "InChI": "InChI=1S/C10H17NO/c11-9-2-7-1-8(3-9)5-10(12,4-7)6-9/h7-8,12H,1-6,11H2",
        "InChIKey": null,
        "Canonical SMILES": "OC12CC3CC(C1)CC(N)(C3)C2",
        "Molecular Formula": "C<sub>10</sub>H<sub>17</sub>NO",
        "Molecular Mass": "167.25",
        "Melting Point": "267 °C"
    }
}