{
    "cas_no": "22710-07-2",
    "key_name": "Pyridine, 2,3-dimethyl-, 1-oxide",
    "cn_name": "2,3-二甲基吡啶-N-氧化物;",
    "alternate_name": "Pyridine, 2,3-dimethyl-, 1-oxide;2,3-Lutidine, 1-oxide;2,3-Dimethylpyridine <em>N</em>-oxide;2,3-Dimethylpyridine 1-oxide;2,3-Lutidine-<em>N</em>-oxide;2,3-Dimethyl-1-oxidopyridin-1-ium",
    "duplicated_cas_no": "",
    "SMILES": "CC1=C(C)C=CC=N1=O",
    "meta_data": {
        "InChI": "InChI=1S/C7H9NO/c1-6-4-3-5-8(9)7(6)2/h3-5H,1-2H3",
        "InChIKey": null,
        "Canonical SMILES": "O=N=1C=CC=C(C1C)C",
        "Molecular Formula": "C<sub>7</sub>H<sub>9</sub>NO",
        "Molecular Mass": "123.15",
        "Boiling Point": "160-161 °C @ Press: 1 Torr",
        "Melting Point": "85-93 °C"
    }
}