{
    "cas_no": "539-15-1",
    "key_name": "Hordenine",
    "cn_name": "大麦芽碱;麦芽碱;大麦碱;4-(2-二甲基氨基乙基)苯酚;",
    "alternate_name": "Phenol, 4-[2-(dimethylamino)ethyl]-;Eremursine;Hordenine;Phenol, <em>p</em>-[2-(dimethylamino)ethyl]-;4-[2-(Dimethylamino)ethyl]phenol;Anhaline;<em>p</em>-Hydroxy-<em>N</em>,<em>N</em>-dimethylphenethylamine;Peyocactine;<em>N</em>,<em>N</em>-Dimethyl-<em>p</em>-hydroxyphenethylamine;<em>p</em>-[2-(Dimethylamino)ethyl]phenol;<em>N</em>,<em>N</em>-Dimethyltyramine;Anhalin;Ordenina;Hordenin;Cactine;<em>N</em>,<em>N</em>-Dimethyl-4-hydroxy-β-phenethylamine",
    "duplicated_cas_no": "",
    "SMILES": "C(CN(C)C)C1=CC=C(O)C=C1",
    "meta_data": {
        "InChI": "InChI=1S/C10H15NO/c1-11(2)8-7-9-3-5-10(12)6-4-9/h3-6,12H,7-8H2,1-2H3",
        "InChIKey": null,
        "Canonical SMILES": "OC1=CC=C(C=C1)CCN(C)C",
        "Molecular Formula": "C<sub>10</sub>H<sub>15</sub>NO",
        "Molecular Mass": "165.23",
        "Boiling Point": "136-137 °C @ Press: 13 Torr",
        "Melting Point": "117.5 °C",
        "Density": "1.12 g/cm³"
    }
}