{
    "cas_no": "926-39-6",
    "key_name": "2-Aminoethyl hydrogen sulfate",
    "cn_name": "硫酸氢二氨基乙酯;2-氨基乙基硫酸氢钠;氨乙醇硫酸氢酯;",
    "alternate_name": "Ethanol, 2-amino-, 1-(hydrogen sulfate);Ethanol, 2-amino-, hydrogen sulfate (ester);Ethanol, 2-amino-, hydrogen sulfate;Ethanol, 2-amino-, sulfate;Ethanolamine <em>O</em>-sulfate;2-Aminoethyl hydrogen sulfate;2-Aminoethyl sulfate;2-Aminoethyl sulfuric acid;Mono(2-aminoethyl) sulfate;Ethanolamine sulfate;2-Aminoethanol hydrogen sulfate (ester);WAS-34;NSC 204188;NSC 3532;(2-Aminoethoxy)sulfonic acid;2-Azaniumylethyl sulfate",
    "duplicated_cas_no": "",
    "SMILES": "O(S(=O)(=O)O)CCN",
    "meta_data": {
        "InChI": "InChI=1S/C2H7NO4S/c3-1-2-7-8(4,5)6/h1-3H2,(H,4,5,6)",
        "InChIKey": null,
        "Canonical SMILES": "O=S(=O)(O)OCCN",
        "Molecular Formula": "C<sub>2</sub>H<sub>7</sub>NO<sub>4</sub>S",
        "Molecular Mass": "141.15",
        "Melting Point": "162.5 °C (decomp)"
    }
}