{
    "cas_no": "19777-66-3",
    "key_name": "1,2-Propanediamine, hydrochloride (1:2), (2<em>S</em>)-",
    "cn_name": null,
    "alternate_name": "1,2-Propanediamine, hydrochloride (1:2), (2<em>S</em>)-;1,2-Propanediamine, dihydrochloride, <span class=\"text-smallcaps\">L</span>-;1,2-Propanediamine, dihydrochloride, (<em>S</em>)-;1,2-Propanediamine, dihydrochloride, (2<em>S</em>)-;(<em>S</em>)-(-)-1,2-Propanediamine dihydrochloride;(<em>S</em>)-1,2-Diaminopropane dihydrochloride;(<em>S</em>)-(-)-1,2-Diaminopropane dihydrochloride;(<em>S</em>)-Propane-1,2-diamine dihydrochloride",
    "duplicated_cas_no": "",
    "SMILES": "[C@@H](CN)(C)N.Cl",
    "meta_data": {
        "InChI": "InChI=1S/C3H10N2.2ClH/c1-3(5)2-4;;/h3H,2,4-5H2,1H3;2*1H/t3-;;/m0../s1",
        "InChIKey": null,
        "Canonical SMILES": "Cl.NCC(N)C",
        "Molecular Formula": "C<sub>3</sub>H<sub>10</sub>N<sub>2</sub>.2ClH",
        "Molecular Mass": "",
        "Melting Point": "242-243 °C"
    }
}