{
    "cas_no": "1940-29-0",
    "key_name": "4-Bromo-3,5-dichlorobenzenamine",
    "cn_name": null,
    "alternate_name": "Benzenamine, 4-bromo-3,5-dichloro-;Aniline, 4-bromo-3,5-dichloro-;4-Bromo-3,5-dichlorobenzenamine;4-Bromo-3,5-dichloroaniline",
    "duplicated_cas_no": "",
    "SMILES": "BrC1=C(Cl)C=C(N)C=C1Cl",
    "meta_data": {
        "InChI": "InChI=1S/C6H4BrCl2N/c7-6-4(8)1-3(10)2-5(6)9/h1-2H,10H2",
        "InChIKey": null,
        "Canonical SMILES": "ClC=1C=C(N)C=C(Cl)C1Br",
        "Molecular Formula": "C<sub>6</sub>H<sub>4</sub>BrCl<sub>2</sub>N",
        "Molecular Mass": "240.91",
        "Melting Point": "125-127 °C"
    }
}