{
    "cas_no": "142326-59-8",
    "key_name": "7-Chloro-4-hydroxy-3-(3-phenoxyphenyl)-2(1<em>H</em>)-quinolinone",
    "cn_name": null,
    "alternate_name": "2(1<em>H</em>)-Quinolinone, 7-chloro-4-hydroxy-3-(3-phenoxyphenyl)-;7-Chloro-4-hydroxy-3-(3-phenoxyphenyl)-2(1<em>H</em>)-quinolinone;L 701324",
    "duplicated_cas_no": "",
    "SMILES": "OC1=C(C2=CC(OC3=CC=CC=C3)=CC=C2)C(=O)NC=4C1=CC=C(Cl)C4",
    "meta_data": {
        "InChI": "InChI=1S/C21H14ClNO3/c22-14-9-10-17-18(12-14)23-21(25)19(20(17)24)13-5-4-8-16(11-13)26-15-6-2-1-3-7-15/h1-12H,(H2,23,24,25)",
        "InChIKey": null,
        "Canonical SMILES": "O=C1NC=2C=C(Cl)C=CC2C(O)=C1C3=CC=CC(OC=4C=CC=CC4)=C3",
        "Molecular Formula": "C<sub>21</sub>H<sub>14</sub>ClNO<sub>3</sub>",
        "Molecular Mass": "363.79",
        "Melting Point": "308 °C"
    }
}