{
    "cas_no": "93479-97-1",
    "key_name": "Glimepiride",
    "cn_name": "格列美脲;1-[4-[2-(3-乙基-4-甲基-2-氧代-3-吡咯啉-1-甲酰胺基)-乙基]-苯磺酰]-3-(反式-4-甲基环己基)-脲;",
    "alternate_name": "1<em>H</em>-Pyrrole-1-carboxamide, 3-ethyl-2,5-dihydro-4-methyl-<em>N</em>-[2-[4-[[[[(<em>trans</em>-4-methylcyclohexyl)amino]carbonyl]amino]sulfonyl]phenyl]ethyl]-2-oxo-;1<em>H</em>-Pyrrole-1-carboxamide, 3-ethyl-2,5-dihydro-4-methyl-<em>N</em>-[2-[4-[[[[(4-methylcyclohexyl)amino]carbonyl]amino]sulfonyl]phenyl]ethyl]-2-oxo-, <em>trans</em>-;3-Ethyl-2,5-dihydro-4-methyl-<em>N</em>-[2-[4-[[[[(<em>trans</em>-4-methylcyclohexyl)amino]carbonyl]amino]sulfonyl]phenyl]ethyl]-2-oxo-1<em>H</em>-pyrrole-1-carboxamide;Glimepiride;HOE 490;Amaryl;<em>trans</em>-3-Ethyl-2,5-dihydro-4-methyl-<em>N</em>-[2-[4-[[[[(4-methylcyclohexyl)amino]carbonyl]amino]sulfonyl]phenyl]ethyl] 2-oxo-1<em>H</em>-pyrrole-1-carboxamide;Glimperide;Glirid;Diameprid;Glimax;Limeral;Dibiglim;GlucoNovax;ZINC 537791;ZINC ID: ZINC537791",
    "duplicated_cas_no": "",
    "SMILES": "C(NCCC1=CC=C(S(NC(N[C@H]2CC[C@H](C)CC2)=O)(=O)=O)C=C1)(=O)N3C(=O)C(CC)=C(C)C3",
    "meta_data": {
        "InChI": "InChI=1/C24H34N4O5S/c1-4-21-17(3)15-28(22(21)29)24(31)25-14-13-18-7-11-20(12-8-18)34(32,33)27-23(30)26-19-9-5-16(2)6-10-19/h7-8,11-12,16,19H,4-6,9-10,13-15H2,1-3H3,(H,25,31)(H2,26,27,30)/t16-,19-",
        "InChIKey": null,
        "Canonical SMILES": "O=C(NC1CCC(C)CC1)NS(=O)(=O)C2=CC=C(C=C2)CCNC(=O)N3C(=O)C(=C(C)C3)CC",
        "Molecular Formula": "C<sub>24</sub>H<sub>34</sub>N<sub>4</sub>O<sub>5</sub>S",
        "Molecular Mass": "490.62",
        "Melting Point": "212.5 °C"
    }
}