{
    "cas_no": "587-02-0",
    "key_name": "3-Ethylaniline",
    "cn_name": "3-乙基苯胺;",
    "alternate_name": "Benzenamine, 3-ethyl-;Aniline, <em>m</em>-ethyl-;3-Ethylbenzenamine;<em>m</em>-Ethylaniline;3-Ethylaniline;3-Ethylphenylamine",
    "duplicated_cas_no": "",
    "SMILES": "C(C)C1=CC(N)=CC=C1",
    "meta_data": {
        "InChI": "InChI=1S/C8H11N/c1-2-7-4-3-5-8(9)6-7/h3-6H,2,9H2,1H3",
        "InChIKey": null,
        "Canonical SMILES": "NC1=CC=CC(=C1)CC",
        "Molecular Formula": "C<sub>8</sub>H<sub>11</sub>N",
        "Molecular Mass": "121.18",
        "Boiling Point": "214 °C",
        "Melting Point": "-64 °C"
    }
}