{
    "cas_no": "75498-96-3",
    "key_name": "Cefminox sodium",
    "cn_name": "头孢米诺钠;氧羧甲氧头孢菌素钠;(6R,7S)-7beta-[(S)-2-[(2-氨基-2-羧乙基)硫]乙酰氨基]-7alpha-甲氧基-3-[(;",
    "alternate_name": "5-Thia-1-azabicyclo[4.2.0]oct-2-ene-2-carboxylic acid, 7-[[2-[[(2<em>S</em>)-2-amino-2-carboxyethyl]thio]acetyl]amino]-7-methoxy-3-[[(1-methyl-1<em>H</em>-tetrazol-5-yl)thio]methyl]-8-oxo-, sodium salt (1:1), (6<em>R</em>,7<em>S</em>)-;5-Thia-1-azabicyclo[4.2.0]oct-2-ene-2-carboxylic acid, 7-[[[(2-amino-2-carboxyethyl)thio]acetyl]amino]-7-methoxy-3-[[(1-methyl-1<em>H</em>-tetrazol-5-yl)thio]methyl]-8-oxo-, monosodium salt, [6<em>R</em>-[6α,7α,7(<em>S</em>*)]]-;5-Thia-1-azabicyclo[4.2.0]oct-2-ene-2-carboxylic acid, 7-[[[[(2<em>S</em>)-2-amino-2-carboxyethyl]thio]acetyl]amino]-7-methoxy-3-[[(1-methyl-1<em>H</em>-tetrazol-5-yl)thio]methyl]-8-oxo-, monosodium salt, (6<em>R</em>,7<em>S</em>)-;Cefminox sodium;Meicelin;Cefminox sodium salt",
    "duplicated_cas_no": "78345-56-9",
    "SMILES": "N(C(CSC[C@H](C(O)=O)N)=O)[C@@]1(OC)[C@@]2(N(C1=O)C(C(O)=O)=C(CSC=3N(C)N=NN3)CS2)[H].[Na]",
    "meta_data": {
        "InChI": "InChI=1S/C16H21N7O7S3.Na/c1-22-15(19-20-21-22)33-4-7-3-32-14-16(30-2,13(29)23(14)10(7)12(27)28)18-9(24)6-31-5-8(17)11(25)26;/h8,14H,3-6,17H2,1-2H3,(H,18,24)(H,25,26)(H,27,28);/t8-,14-,16+;/m1./s1",
        "InChIKey": null,
        "Canonical SMILES": "[Na].O=C(O)C1=C(CSC2=NN=NN2C)CSC3N1C(=O)C3(OC)NC(=O)CSCC(N)C(=O)O",
        "Molecular Formula": "C<sub>16</sub>H<sub>21</sub>N<sub>7</sub>O<sub>7</sub>S<sub>3</sub>.Na",
        "Molecular Mass": "",
        "Melting Point": "90-91 °C"
    }
}