{
    "cas_no": "97041-37-7",
    "key_name": "4-Chloro-2-methoxy-6-methylpyrimidine",
    "cn_name": null,
    "alternate_name": "Pyrimidine, 4-chloro-2-methoxy-6-methyl-;4-Chloro-2-methoxy-6-methylpyrimidine",
    "duplicated_cas_no": "",
    "SMILES": "O(C)C=1N=C(C)C=C(Cl)N1",
    "meta_data": {
        "InChI": "InChI=1S/C6H7ClN2O/c1-4-3-5(7)9-6(8-4)10-2/h3H,1-2H3",
        "InChIKey": null,
        "Canonical SMILES": "ClC=1N=C(N=C(C1)C)OC",
        "Molecular Formula": "C<sub>6</sub>H<sub>7</sub>ClN<sub>2</sub>O",
        "Molecular Mass": "158.59",
        "Melting Point": "71-73 °C"
    }
}