{
    "cas_no": "13709-47-2",
    "key_name": "Scandium fluoride",
    "cn_name": "氟化钪;三氟化钪;",
    "alternate_name": "Scandium fluoride (ScF<sub>3</sub>);Scandium trifluoride;Scandium trifluoride (ScF<sub>3</sub>);Scandium fluoride",
    "duplicated_cas_no": "37362-95-1",
    "SMILES": "[Sc](F)(F)F",
    "meta_data": {
        "InChI": "InChI=1S/3FH.Sc/h3*1H;/q;;;+3/p-3",
        "InChIKey": null,
        "Canonical SMILES": "F[Sc](F)F",
        "Molecular Formula": "F<sub>3</sub>Sc",
        "Molecular Mass": "",
        "Melting Point": "1530 °C",
        "Density": "2.52 g/cm³"
    }
}