{
    "cas_no": "903550-26-5",
    "key_name": "1-(Tetrahydro-2<em>H</em>-pyran-2-yl)-1<em>H</em>-pyrazole-5-boronic acid pinacol ester",
    "cn_name": "1-(2-四氢吡喃基)-1H-吡唑-5-硼酸频哪酯;",
    "alternate_name": "1<em>H</em>-Pyrazole, 1-(tetrahydro-2<em>H</em>-pyran-2-yl)-5-(4,4,5,5-tetramethyl-1,3,2-dioxaborolan-2-yl)-;1-(Tetrahydro-2<em>H</em>-pyran-2-yl)-5-(4,4,5,5-tetramethyl-1,3,2-dioxaborolan-2-yl)-1<em>H</em>-pyrazole;1-(Tetrahydro-2<em>H</em>-pyran-2-yl)-1<em>H</em>-pyrazole-5-boronic acid pinacol ester;[1-(Tetrahydropyran-2-yl)-1<em>H</em>-pyrazol-5-yl]boronic acid pinacol ester;1-(Tetrahydropyran-2-yl)-5-(4,4,5,5-tetramethyl-1,3,2-dioxaborolan-2-yl)-1<em>H</em>-pyrazole;1-Tetrahydropyran-2-yl-5-(4,4,5,5-tetramethyl-1,3,2-dioxaborolan-2-yl)pyrazole;1-(Oxan-2-yl)-5-(4,4,5,5-tetramethyl-1,3,2-dioxaborolan-2-yl)pyrazole;1-(Oxan-2-yl)-5-(tetramethyl-1,3,2-dioxaborolan-2-yl)-1<em>H</em>-pyrazole",
    "duplicated_cas_no": "",
    "SMILES": "CC1(C)OB(OC1(C)C)C=2N(N=CC2)C3CCCCO3",
    "meta_data": {
        "InChI": "InChI=1S/C14H23BN2O3/c1-13(2)14(3,4)20-15(19-13)11-8-9-16-17(11)12-7-5-6-10-18-12/h8-9,12H,5-7,10H2,1-4H3",
        "InChIKey": null,
        "Canonical SMILES": "N1=CC=C(B2OC(C)(C)C(O2)(C)C)N1C3OCCCC3",
        "Molecular Formula": "C<sub>14</sub>H<sub>23</sub>BN<sub>2</sub>O<sub>3</sub>",
        "Molecular Mass": "278.15",
        "Melting Point": "77-78 °C"
    }
}