{
    "cas_no": "4292-25-5",
    "key_name": "1-Octadecanaminium, <em>N</em>,<em>N</em>,<em>N</em>-trimethyl-, iodide (1:1)",
    "cn_name": null,
    "alternate_name": "1-Octadecanaminium, <em>N</em>,<em>N</em>,<em>N</em>-trimethyl-, iodide (1:1);Ammonium, trimethyloctadecyl-, iodide;1-Octadecanaminium, <em>N</em>,<em>N</em>,<em>N</em>-trimethyl-, iodide;Trimethyloctadecylammonium iodide;Quaternol 2;Trimethylstearylammonium iodide;<em>N</em>-Octadecyl-<em>N</em>,<em>N</em>,<em>N</em>-trimethylammonium iodide;Octadecyltrimethylammonium iodide;Trimethyl(octadecanyl)ammonium iodide;Stearyltrimethylammonium iodide",
    "duplicated_cas_no": "",
    "SMILES": "C(CCCCCCCCCCCCCCC)CC[N+](C)(C)C.[I-]",
    "meta_data": {
        "InChI": "InChI=1S/C21H46N.HI/c1-5-6-7-8-9-10-11-12-13-14-15-16-17-18-19-20-21-22(2,3)4;/h5-21H2,1-4H3;1H/q+1;/p-1",
        "InChIKey": null,
        "Canonical SMILES": "[I-].CCCCCCCCCCCCCCCCCC[N+](C)(C)C",
        "Molecular Formula": "C<sub>21</sub>H<sub>46</sub>N.I",
        "Molecular Mass": "",
        "Melting Point": "238-241 °C"
    }
}