{
    "cas_no": "1457-46-1",
    "key_name": "3-Phenylrhodanine",
    "cn_name": "N-苯基绕丹宁;",
    "alternate_name": "4-Thiazolidinone, 3-phenyl-2-thioxo-;Rhodanine, 3-phenyl-;3-Phenyl-2-thioxo-4-thiazolidinone;3-Phenyl-4-thiazolidinone-2-thione;<em>N</em>-Phenylrhodanine;3-Phenylrhodanine;3-Phenyl-2-thioxo-4-Thiazolidinone;NSC 17528;3-Phenyl-2-thioxo-1,3-thiazolidin-4-one;<em>N</em>-Phenyl-2-thioxothiazolidin-4-one;3-Phenyl-2-sulfanylidene-1,3-thiazolidin-4-one",
    "duplicated_cas_no": "",
    "SMILES": "O=C1N(C(=S)SC1)C2=CC=CC=C2",
    "meta_data": {
        "InChI": "InChI=1S/C9H7NOS2/c11-8-6-13-9(12)10(8)7-4-2-1-3-5-7/h1-5H,6H2",
        "InChIKey": null,
        "Canonical SMILES": "O=C1N(C(=S)SC1)C=2C=CC=CC2",
        "Molecular Formula": "C<sub>9</sub>H<sub>7</sub>NOS<sub>2</sub>",
        "Molecular Mass": "209.29",
        "Melting Point": "192-193 °C"
    }
}