{
    "cas_no": "87199-16-4",
    "key_name": "3-Formylphenylboronic acid",
    "cn_name": "3-甲酰基苯硼酸;",
    "alternate_name": "Boronic acid, <em>B</em>-(3-formylphenyl)-;Boronic acid, (3-formylphenyl)-;Benzeneboronic acid, <em>m</em>-formyl-;<em>B</em>-(3-Formylphenyl)boronic acid;<em>m</em>-Formylphenylboronic acid;3-Formylphenylboronic acid;(3-Formylbenzene)boronic acid",
    "duplicated_cas_no": "",
    "SMILES": "B(O)(O)C1=CC(C=O)=CC=C1",
    "meta_data": {
        "InChI": "InChI=1S/C7H7BO3/c9-5-6-2-1-3-7(4-6)8(10)11/h1-5,10-11H",
        "InChIKey": null,
        "Canonical SMILES": "O=CC1=CC=CC(=C1)B(O)O",
        "Molecular Formula": "C<sub>7</sub>H<sub>7</sub>BO<sub>3</sub>",
        "Molecular Mass": "149.94",
        "Melting Point": "112 °C"
    }
}