{
    "cas_no": "60456-21-5",
    "key_name": "Methyl (4<em>S</em>)-2,2-dimethyl-1,3-dioxolane-4-carboxylate",
    "cn_name": "(?)-甲基(S)-2,2-二甲基-1,3-二氧戊环-4-羧酸酯;",
    "alternate_name": "1,3-Dioxolane-4-carboxylic acid, 2,2-dimethyl-, methyl ester, (4<em>S</em>)-;1,3-Dioxolane-4-carboxylic acid, 2,2-dimethyl-, methyl ester, (<em>S</em>)-;Methyl (4<em>S</em>)-2,2-dimethyl-1,3-dioxolane-4-carboxylate;4(<em>S</em>)-Methyl 2,2-dimethyl-1,3-dioxolane-4-carboxylate;Methyl (<em>S</em>)-glycerate acetonide;Methyl (4S)-2,2-dimethyl-1,3-dioxolane-4-carboxylate;Methyl (<em>S</em>)-2,2-dimethyl-1,3-dioxolane-4-carboxylate;(<em>S</em>)-2,2-Dimethyl-[1,3]dioxolane-4-carboxylic acid methyl ester;2,2-Dimethyl-(4<em>S</em>)-1,3-dioxolane-4-carboxylic acid methyl ester;Methyl α,β-isopropylidene-<span class=\"text-smallcaps\">L</span>-glycerate;Methyl (<em>S</em>)-2,2-dimethyl-1,3-dioxalane-4-carboxylate;Methyl isopropylidene-<span class=\"text-smallcaps\">L</span>-glycerate",
    "duplicated_cas_no": "",
    "SMILES": "C(OC)(=O)[C@H]1OC(C)(C)OC1",
    "meta_data": {
        "InChI": "InChI=1S/C7H12O4/c1-7(2)10-4-5(11-7)6(8)9-3/h5H,4H2,1-3H3/t5-/m0/s1",
        "InChIKey": null,
        "Canonical SMILES": "O=C(OC)C1OC(OC1)(C)C",
        "Molecular Formula": "C<sub>7</sub>H<sub>12</sub>O<sub>4</sub>",
        "Molecular Mass": "160.17",
        "Boiling Point": "115-118 °C @ Press: 20 Torr"
    }
}