{
    "cas_no": "6750-30-7",
    "key_name": "Arnidiol",
    "cn_name": null,
    "alternate_name": "Urs-20(30)-ene-3,16-diol, (3β,16β,18α,19α)-;18α,19β<span class=\"text-smallcaps\">H</span>-Urs-20(30)-ene-3β,12-diol;(3β,16β,18α,19α)-Urs-20(30)-ene-3,16-diol;Arnidenediol;Arnidiol;3β,16β-Dihydroxytaraxene",
    "duplicated_cas_no": "",
    "SMILES": "C[C@]12[C@@]3(C)[C@@]([C@]4(C)[C@@](CC3)(C(C)(C)[C@@H](O)CC4)[H])(CC[C@@]1([C@@]5([C@@](C)([C@@H](O)C2)CCC(=C)[C@H]5C)[H])[H])[H]",
    "meta_data": {
        "InChI": "InChI=1S/C30H50O2/c1-18-11-14-28(6)24(32)17-30(8)20(25(28)19(18)2)9-10-22-27(5)15-13-23(31)26(3,4)21(27)12-16-29(22,30)7/h19-25,31-32H,1,9-17H2,2-8H3/t19-,20-,21+,22-,23+,24+,25-,27+,28-,29-,30-/m1/s1",
        "InChIKey": null,
        "Canonical SMILES": "OC1CCC2(C)C(CCC3(C)C2CCC4C5C(C(=C)CCC5(C)C(O)CC43C)C)C1(C)C",
        "Molecular Formula": "C<sub>30</sub>H<sub>50</sub>O<sub>2</sub>",
        "Molecular Mass": "442.72",
        "Melting Point": "256 °C"
    }
}