{
    "cas_no": "138113-08-3",
    "key_name": "(7-Methoxynaphthalen-1-yl)acetonitrile",
    "cn_name": "2-(7-甲氧基萘-1-基)乙腈;",
    "alternate_name": "1-Naphthaleneacetonitrile, 7-methoxy-;7-Methoxy-1-naphthaleneacetonitrile;7-Methoxy-1-naphthylacetonitrile;1-Cyanomethyl-7-methoxynaphthalene;2-(7-Methoxy-1-naphthyl)acetonitrile;(7-Methoxynaphthalen-1-yl)acetonitrile;7-Methoxynaphthalene-1-acetonitrile;2-(7-Methoxynaphthalen-1-yl)acetonitrile",
    "duplicated_cas_no": "",
    "SMILES": "C(C#N)C=1C2=C(C=CC(OC)=C2)C=CC1",
    "meta_data": {
        "InChI": "InChI=1S/C13H11NO/c1-15-12-6-5-10-3-2-4-11(7-8-14)13(10)9-12/h2-6,9H,7H2,1H3",
        "InChIKey": null,
        "Canonical SMILES": "N#CCC1=CC=CC2=CC=C(OC)C=C21",
        "Molecular Formula": "C<sub>13</sub>H<sub>11</sub>NO",
        "Molecular Mass": "197.23",
        "Melting Point": "56-58 °C"
    }
}