{
    "cas_no": "1490-25-1",
    "key_name": "Methyl succinyl chloride",
    "cn_name": "丁二酸单甲酯酰氯;3-甲氧羰基丙酰氯;",
    "alternate_name": "Butanoic acid, 4-chloro-4-oxo-, methyl ester;Propionic acid, 3-(chloroformyl)-, methyl ester;Carbomethoxypropionyl chloride;Monomethyl succinyl chloride;β-Carbomethoxypropionyl chloride;3-Carbomethoxypropanoyl chloride;3-(Carbomethoxy)propionyl chloride;Methyl succinyl chloride;β-(Methoxycarbonyl)propionyl chloride;Methyl succinate chloride;Methyl 3-(chlorocarbonyl)propionate;Methyl succinate monochloride;Methyl 4-chloro-4-oxobutanoate;4-Chloro-4-oxobutanoic acid methyl ester;3-(Methoxycarbonyl)propionyl chloride;Methyl succinoyl chloride;Methyl 3-(chloroformyl)propionate;3-(Methoxycarbonyl)propanoyl chloride;Methyl 3-(chlorocarbonyl)propanoate;NSC 10757;4-Methoxy-4-oxobutanoic acid chloride;Methyl 4-chloro-4-oxobutyrate;3-Chlorocarbonylpropionic acid methyl ester;Succinic acid monomethyl chloride;4-Methoxy-4-oxobutanoyl chloride;4-Chloro-4-oxobutyric acid methyl ester",
    "duplicated_cas_no": "80782-79-2",
    "SMILES": "C(CCC(Cl)=O)(OC)=O",
    "meta_data": {
        "InChI": "InChI=1S/C5H7ClO3/c1-9-5(8)3-2-4(6)7/h2-3H2,1H3",
        "InChIKey": null,
        "Canonical SMILES": "O=C(Cl)CCC(=O)OC",
        "Molecular Formula": "C<sub>5</sub>H<sub>7</sub>ClO<sub>3</sub>",
        "Molecular Mass": "150.56",
        "Boiling Point": "93 °C @ Press: 18 Torr"
    }
}