{
    "cas_no": "5337-41-7",
    "key_name": "Trioctadecyl borate",
    "cn_name": "三硬脂酰基硼酸;",
    "alternate_name": "Boric acid, trioctadecyl ester;Boric acid (H<sub>3</sub>BO<sub>3</sub>), trioctadecyl ester;Octadecyl borate;Trioctadecyl borate;Borester 13;Tristearyl borate;Tris(octadecyloxy)boron;NSC 786",
    "duplicated_cas_no": "",
    "SMILES": "B(OCCCCCCCCCCCCCCCCCC)(OCCCCCCCCCCCCCCCCCC)OCCCCCCCCCCCCCCCCCC",
    "meta_data": {
        "InChI": "InChI=1S/C54H111BO3/c1-4-7-10-13-16-19-22-25-28-31-34-37-40-43-46-49-52-56-55(57-53-50-47-44-41-38-35-32-29-26-23-20-17-14-11-8-5-2)58-54-51-48-45-42-39-36-33-30-27-24-21-18-15-12-9-6-3/h4-54H2,1-3H3",
        "InChIKey": null,
        "Canonical SMILES": "O(B(OCCCCCCCCCCCCCCCCCC)OCCCCCCCCCCCCCCCCCC)CCCCCCCCCCCCCCCCCC",
        "Molecular Formula": "C<sub>54</sub>H<sub>111</sub>BO<sub>3</sub>",
        "Molecular Mass": "819.27",
        "Boiling Point": "339-343 °C @ Press: 0.4 Torr",
        "Melting Point": "41-44 °C"
    }
}