{
    "cas_no": "475085-57-5",
    "key_name": "2-[4-[(5,6-Diphenyl-2-pyrazinyl)(1-methylethyl)amino]butoxy]acetic acid",
    "cn_name": null,
    "alternate_name": "Acetic acid, 2-[4-[(5,6-diphenyl-2-pyrazinyl)(1-methylethyl)amino]butoxy]-;Acetic acid, [4-[(5,6-diphenylpyrazinyl)(1-methylethyl)amino]butoxy]-;2-[4-[(5,6-Diphenyl-2-pyrazinyl)(1-methylethyl)amino]butoxy]acetic acid;MRE 269;ACT 333679;[4-[(5,6-Diphenylpyrazin-2-yl)(isopropyl)amino]butoxy]acetic acid;2-[4-[(5,6-Diphenylpyrazin-2-yl)(propan-2-yl)amino]butoxy]acetic acid;2-(4-((5,6-Diphenylpyrazin-2-yl)(isopropyl)amino)butoxy)acetic acid;[4-[(5,6-Diphenylpyrazin-2-yl)(propan-2-yl)amino]butoxy]acetic acid",
    "duplicated_cas_no": "",
    "SMILES": "N(CCCCOCC(O)=O)(C(C)C)C=1N=C(C(=NC1)C2=CC=CC=C2)C3=CC=CC=C3",
    "meta_data": {
        "InChI": "InChI=1S/C25H29N3O3/c1-19(2)28(15-9-10-16-31-18-23(29)30)22-17-26-24(20-11-5-3-6-12-20)25(27-22)21-13-7-4-8-14-21/h3-8,11-14,17,19H,9-10,15-16,18H2,1-2H3,(H,29,30)",
        "InChIKey": null,
        "Canonical SMILES": "O=C(O)COCCCCN(C1=NC(C2=CC=CC=C2)=C(N=C1)C=3C=CC=CC3)C(C)C",
        "Molecular Formula": "C<sub>25</sub>H<sub>29</sub>N<sub>3</sub>O<sub>3</sub>",
        "Molecular Mass": "419.52",
        "Melting Point": "114-116 °C"
    }
}