{
    "cas_no": "698-00-0",
    "key_name": "2-Bromo-<em>N</em>,<em>N</em>-dimethylbenzenamine",
    "cn_name": "2-溴-N,正二甲基苯胺;",
    "alternate_name": "Benzenamine, 2-bromo-<em>N</em>,<em>N</em>-dimethyl-;Aniline, <em>o</em>-bromo-<em>N</em>,<em>N</em>-dimethyl-;2-Bromo-<em>N</em>,<em>N</em>-dimethylbenzenamine;<em>o</em>-Bromo-<em>N</em>,<em>N</em>-dimethylaniline;2-Bromo-<em>N</em>,<em>N</em>-dimethylaniline;2-(Dimethylamino)bromobenzene;2-(Dimethylamino)phenyl bromide;NSC 33816;<em>N</em>,<em>N</em>-Dimethyl-2-bromoaniline;2-Dimethylamino-1-bromobenzene;2-(<em>N</em>,<em>N</em>-Dimethylamino)bromobenzene;1-Bromo-2-dimethylaminobenzene;(2-Bromophenyl)dimethylamine",
    "duplicated_cas_no": "",
    "SMILES": "N(C)(C)C1=C(Br)C=CC=C1",
    "meta_data": {
        "InChI": "InChI=1S/C8H10BrN/c1-10(2)8-6-4-3-5-7(8)9/h3-6H,1-2H3",
        "InChIKey": null,
        "Canonical SMILES": "BrC=1C=CC=CC1N(C)C",
        "Molecular Formula": "C<sub>8</sub>H<sub>10</sub>BrN",
        "Molecular Mass": "200.08",
        "Boiling Point": "107-108 °C @ Press: 14 Torr",
        "Melting Point": "51.5-53 °C",
        "Density": "1.3880 g/cm³ @ Temp: 25 °C"
    }
}