{
    "cas_no": "16545-54-3",
    "key_name": "Dimyristyl thiodipropionate",
    "cn_name": "3,3-硫代二丙酸双十四烷酯;3,3’-硫代双丙酸二(十四烷醇)酯;二肉豆蔻醇硫代二丙酸酯;硫二丙酸肉豆蔻基酯;",
    "alternate_name": "Propanoic acid, 3,3′-thiobis-, 1,1′-ditetradecyl ester;Propionic acid, 3,3′-thiodi-, ditetradecyl ester;Propanoic acid, 3,3′-thiobis-, ditetradecyl ester;Advastab PS 801;Myristyl thiodipropionate;Dimyristyl 3,3′-thiodipropionate;Advastab 801;Dimyristyl thiodipropionate;Advastab 810;AO 4;DMTP;TPM;Sumilizer TPM;Seenox DM;Ditetradecylthiodipropionate;Chimox 14;Cyanox MTDP;Yoshinox DMTP;Tetradecyl 3,3′-thiodipropionate;DMTP Yoshitomi;Antioxidant TPM;DMTDP;Antioxidant DM",
    "duplicated_cas_no": "",
    "SMILES": "C(CCSCCC(OCCCCCCCCCCCCCC)=O)(OCCCCCCCCCCCCCC)=O",
    "meta_data": {
        "InChI": "InChI=1S/C34H66O4S/c1-3-5-7-9-11-13-15-17-19-21-23-25-29-37-33(35)27-31-39-32-28-34(36)38-30-26-24-22-20-18-16-14-12-10-8-6-4-2/h3-32H2,1-2H3",
        "InChIKey": null,
        "Canonical SMILES": "O=C(OCCCCCCCCCCCCCC)CCSCCC(=O)OCCCCCCCCCCCCCC",
        "Molecular Formula": "C<sub>34</sub>H<sub>66</sub>O<sub>4</sub>S",
        "Molecular Mass": "570.95",
        "Melting Point": "48-50 °C"
    }
}