{
    "cas_no": "3698-95-1",
    "key_name": "Methyl octyl sulfide",
    "cn_name": "正辛基甲基硫醚;正辛基甲基硫醚;",
    "alternate_name": "Octane, 1-(methylthio)-;Sulfide, methyl octyl;1-(Methylthio)octane;Methyl octyl sulfide;Octyl methyl sulfide;2-Thiadecane;<em>n</em>-Octyl methyl sulfide;Methyl 1-octyl sulfide;1-Methylthiooctane;Methyl <em>n</em>-octyl sulfide;1-Methylsulfanyloctane",
    "duplicated_cas_no": "",
    "SMILES": "C(CCCSC)CCCC",
    "meta_data": {
        "InChI": "InChI=1S/C9H20S/c1-3-4-5-6-7-8-9-10-2/h3-9H2,1-2H3",
        "InChIKey": null,
        "Canonical SMILES": "S(C)CCCCCCCC",
        "Molecular Formula": "C<sub>9</sub>H<sub>20</sub>S",
        "Molecular Mass": "160.32",
        "Boiling Point": "90-91 °C @ Press: 18 Torr"
    }
}