{
    "cas_no": "632-46-2",
    "key_name": "2,6-Dimethylbenzoic acid",
    "cn_name": "2,6-二甲基苯甲酸;",
    "alternate_name": "Benzoic acid, 2,6-dimethyl-;2,6-Dimethylbenzoic acid",
    "duplicated_cas_no": "",
    "SMILES": "C(O)(=O)C1=C(C)C=CC=C1C",
    "meta_data": {
        "InChI": "InChI=1S/C9H10O2/c1-6-4-3-5-7(2)8(6)9(10)11/h3-5H,1-2H3,(H,10,11)",
        "InChIKey": null,
        "Canonical SMILES": "O=C(O)C=1C(=CC=CC1C)C",
        "Molecular Formula": "C<sub>9</sub>H<sub>10</sub>O<sub>2</sub>",
        "Molecular Mass": "150.17",
        "Boiling Point": "274.5 °C",
        "Melting Point": "116 °C"
    }
}