{
    "cas_no": "80-55-7",
    "key_name": "Ethyl 2-hydroxyisobutyrate",
    "cn_name": "2-羟基异丁酸乙酯;2-羟基-2-甲基丙酸乙酯;",
    "alternate_name": "Propanoic acid, 2-hydroxy-2-methyl-, ethyl ester;Lactic acid, 2-methyl-, ethyl ester;Ethyl α-hydroxyisobutyrate;Ethyl 2-methyllactate;Ethyl 2-hydroxy-2-methylpropionate;Ethyl 2-hydroxyisobutyrate;Ethyl 2-methyl-2-hydroxypropanoate;2-Hydroxy-2-methylpropanoic acid ethyl ester;NSC 4667;Ethyl 2-hydroxy-2-methylpropanoate;2-Hydroxy-2-methylpropionic acid ethyl ester;2-Hydroxyisobutyric acid ethyl ester;α-Hydroxyisobutyric acid ethyl ester",
    "duplicated_cas_no": "",
    "SMILES": "C(C(C)(C)O)(OCC)=O",
    "meta_data": {
        "InChI": "InChI=1S/C6H12O3/c1-4-9-5(7)6(2,3)8/h8H,4H2,1-3H3",
        "InChIKey": null,
        "Canonical SMILES": "O=C(OCC)C(O)(C)C",
        "Molecular Formula": "C<sub>6</sub>H<sub>12</sub>O<sub>3</sub>",
        "Molecular Mass": "132.16",
        "Boiling Point": "150 °C",
        "Melting Point": "78 °C"
    }
}