{
    "cas_no": "623-53-0",
    "key_name": "Ethyl methyl carbonate",
    "cn_name": "碳酸甲乙酯;",
    "alternate_name": "Carbonic acid, ethyl methyl ester;Ethyl methyl carbonate;Methyl ethyl carbonate;EMC;Ethylene methyl carbonate",
    "duplicated_cas_no": "",
    "SMILES": "C(OCC)(OC)=O",
    "meta_data": {
        "InChI": "InChI=1S/C4H8O3/c1-3-7-4(5)6-2/h3H2,1-2H3",
        "InChIKey": null,
        "Canonical SMILES": "O=C(OC)OCC",
        "Molecular Formula": "C<sub>4</sub>H<sub>8</sub>O<sub>3</sub>",
        "Molecular Mass": "104.10",
        "Boiling Point": "106.5-107 °C",
        "Melting Point": "-53.8 °C",
        "Density": "0.97640 g/cm³ @ Temp: 50.05 °C"
    }
}