{
    "cas_no": "1313-27-5",
    "key_name": "Molybdenum oxide (MoO<sub>3</sub>)",
    "cn_name": "三氧化钼;",
    "alternate_name": "Molybdenum oxide (MoO<sub>3</sub>);Molybdenum trioxide;Molybdic acid anhydride;Molybdic anhydride;Molybdenum(VI) oxide;Molybdenum oxide;Mo 1202T;Molybdic oxide;Molybdena;Molybdenum(VI) trioxide;Molybdenum oxide (Mo<sub>4</sub>O<sub>12</sub>);Molybdenum trioxide tetramer;Molybdenum oxide (Mo<sub>5</sub>O<sub>15</sub>);Molybdenum trioxide pentamer;Bouen SKN 301;MFR;Pol-U;JCPDS 35-0609;NSC 215191;MOP-P 100;SS-M 0100",
    "duplicated_cas_no": "12412-21-4;12412-22-5;37376-47-9;77835-70-2;114316-51-7;114663-84-2;199790-61-9;252368-25-5;278186-89-3;390388-97-3;2196217-15-7;2303937-75-7",
    "SMILES": "[Mo](=O)(=O)=O",
    "meta_data": {
        "InChI": "InChI=1S/Mo.3O",
        "InChIKey": null,
        "Canonical SMILES": "O=[Mo](=O)=O",
        "Molecular Formula": "MoO<sub>3</sub>",
        "Molecular Mass": "",
        "Boiling Point": "1155 °C",
        "Melting Point": "795 °C",
        "Density": "4.69 g/cm³ @ Temp: 26 °C"
    }
}