{
    "cas_no": "459-64-3",
    "key_name": "4-Methoxybenzenediazonium tetrafluoroborate",
    "cn_name": "四氟硼酸-4-甲氧基重氮苯正酯;",
    "alternate_name": "Benzenediazonium, 4-methoxy-, tetrafluoroborate(1-) (1:1);Benzenediazonium, <em>p</em>-methoxy-, tetrafluoroborate(1-);Benzenediazonium, 4-methoxy-, tetrafluoroborate(1-);<em>p</em>-Methoxybenzenediazonium tetrafluoroborate;<em>p</em>-Methoxybenzenediazonium fluoborate;Borate(1-), tetrafluoro-, <em>p</em>-methoxybenzenediazonium;Borate(1-), tetrafluoro-, 4-methoxybenzenediazonium;<em>p</em>-Methoxybenzenediazonium tetrafluoroborate(1-);<em>p</em>-Methoxybenzenediazonium fluoroborate;<em>p</em>-Anisyldiazonium tetrafluoroborate;4-Methoxybenzenediazonium tetrafluoroborate;4-Methoxyphenyldiazonium tetrafluoroborate;<em>p</em>-Methoxyphenyldiazonium tetrafluoroborate;Diazene, (4-methoxyphenyl)-, tetrafluoroborate(1-) (1:1)",
    "duplicated_cas_no": "18424-07-2;2101457-40-1;2190529-21-4",
    "SMILES": "[N+](#N)C1=CC=C(OC)C=C1.[B+3]([F-])([F-])([F-])[F-]",
    "meta_data": {
        "InChI": "InChI=1S/C7H7N2O.BF4/c1-10-7-4-2-6(9-8)3-5-7;2-1(3,4)5/h2-5H,1H3;/q+1;-1",
        "InChIKey": null,
        "Canonical SMILES": "N#[N+]C1=CC=C(OC)C=C1.[F-][B+3]([F-])([F-])[F-]",
        "Molecular Formula": "C<sub>7</sub>H<sub>7</sub>N<sub>2</sub>O.BF<sub>4</sub>",
        "Molecular Mass": "",
        "Melting Point": "142-143 °C"
    }
}