{
    "cas_no": "288-94-8",
    "key_name": "1<em>H</em>-Tetrazole",
    "cn_name": "四氮唑;",
    "alternate_name": "2<em>H</em>-Tetrazole;1<em>H</em>-Tetrazole;Tetraazacyclopentadiene;NSC 36712;2,3,4-Triazapyrrole;1H-TZ",
    "duplicated_cas_no": "116421-33-1;288-95-9;6573-80-4;51852-99-4;100043-29-6",
    "SMILES": "C=1NN=NN1",
    "meta_data": {
        "InChI": "InChI=1S/CH2N4/c1-2-4-5-3-1/h1H,(H,2,3,4,5)",
        "InChIKey": null,
        "Canonical SMILES": "N=1N=CNN1",
        "Molecular Formula": "CH<sub>2</sub>N<sub>4</sub>",
        "Molecular Mass": "70.05",
        "Melting Point": "157 °C",
        "Density": "1.53 g/cm³"
    }
}