{
    "cas_no": "1681-17-0",
    "key_name": "4-Acetyl-4-methylheptanedinitrile",
    "cn_name": "3-乙酰基-3-甲基戊烷二腈;",
    "alternate_name": "Heptanedinitrile, 4-acetyl-4-methyl-;4-Acetyl-4-methylheptanedinitrile;2,2-Bis(β-cyanoethyl)-3-butanone;4-Acetyl-4-methylpimelonitrile;NSC 2767;NSC 404930",
    "duplicated_cas_no": "",
    "SMILES": "C(CCC#N)(CCC#N)(C(C)=O)C",
    "meta_data": {
        "InChI": "InChI=1S/C10H14N2O/c1-9(13)10(2,5-3-7-11)6-4-8-12/h3-6H2,1-2H3",
        "InChIKey": null,
        "Canonical SMILES": "N#CCCC(C(=O)C)(C)CCC#N",
        "Molecular Formula": "C<sub>10</sub>H<sub>14</sub>N<sub>2</sub>O",
        "Molecular Mass": "178.23",
        "Boiling Point": "200-203 °C @ Press: 1.5 Torr",
        "Melting Point": "67 °C"
    }
}