{
    "cas_no": "1667-01-2",
    "key_name": "2′,4′,6′-Trimethylacetophenone",
    "cn_name": "2,4,6-三甲基苯乙酮;",
    "alternate_name": "Ethanone, 1-(2,4,6-trimethylphenyl)-;Acetophenone, 2′,4′,6′-trimethyl-;Acetophenone, 2,4,6-trimethyl-;1-(2,4,6-Trimethylphenyl)ethanone;Acetomesitylene;2′,4′,6′-Trimethylacetophenone;Mesityl methyl ketone;Methyl 2,4,6-trimethylphenyl ketone;Acetylmesitylene;Methyl mesityl ketone;1-Acetyl-2,4,6-trimethylbenzene;1-(2,4,6-Trimethylphenyl)-1-ethanone;NSC 65636;1-Mesitylethanone;1-Mesitylethan-1-one;2-Acetylmesitylene",
    "duplicated_cas_no": "51885-97-3",
    "SMILES": "C(C)(=O)C1=C(C)C=C(C)C=C1C",
    "meta_data": {
        "InChI": "InChI=1S/C11H14O/c1-7-5-8(2)11(10(4)12)9(3)6-7/h5-6H,1-4H3",
        "InChIKey": null,
        "Canonical SMILES": "O=C(C=1C(=CC(=CC1C)C)C)C",
        "Molecular Formula": "C<sub>11</sub>H<sub>14</sub>O",
        "Molecular Mass": "162.23",
        "Boiling Point": "241 °C",
        "Density": "0.9754 g/cm³ @ Temp: 20 °C"
    }
}