{
    "cas_no": "103-78-6",
    "key_name": "1-Cyclohexyl-2-propanone",
    "cn_name": "环己基丙酮;",
    "alternate_name": "2-Propanone, 1-cyclohexyl-;2-Propanone, cyclohexyl-;1-Cyclohexyl-2-propanone;Cyclohexylacetone;Acetonylcyclohexane;Cyclohexyl-2-propanone;NSC 15332",
    "duplicated_cas_no": "",
    "SMILES": "C(C(C)=O)C1CCCCC1",
    "meta_data": {
        "InChI": "InChI=1S/C9H16O/c1-8(10)7-9-5-3-2-4-6-9/h9H,2-7H2,1H3",
        "InChIKey": null,
        "Canonical SMILES": "O=C(C)CC1CCCCC1",
        "Molecular Formula": "C<sub>9</sub>H<sub>16</sub>O",
        "Molecular Mass": "140.22",
        "Boiling Point": "198-200 °C",
        "Melting Point": "116 °C",
        "Density": "0.935 g/cm³ @ Temp: 0 °C"
    }
}