{
    "cas_no": "1852-17-1",
    "key_name": "Tetrahydro-2(1<em>H</em>)-pyrimidinone",
    "cn_name": "丙烯脲;3,4,5,6-四氢-2(1H)-嘧啶酮;",
    "alternate_name": "2(1<em>H</em>)-Pyrimidinone, tetrahydro-;Tetrahydro-2(1<em>H</em>)-pyrimidinone;Urea, <em>N</em>,<em>N</em>′-1,3-propanediyl-;Propyleneurea;2-Ketohexahydropyrimidine;Tetrahydro-2-pyrimidone;<em>N</em>,<em>N</em>′-Trimethyleneurea;1,3-Propanediamine cyclic urea;NSC 21315;Hexahydro-1<em>H</em>-pyrimidin-2-one;Tetrahydro-2-pyrimidinone;3,4,5,6-Tetrahydropyrimidin-2(1<em>H</em>)-one;1,3-Propyleneurea;1,3-Diazinan-2-one",
    "duplicated_cas_no": "2122-15-8",
    "SMILES": "O=C1NCCCN1",
    "meta_data": {
        "InChI": "InChI=1S/C4H8N2O/c7-4-5-2-1-3-6-4/h1-3H2,(H2,5,6,7)",
        "InChIKey": null,
        "Canonical SMILES": "O=C1NCCCN1",
        "Molecular Formula": "C<sub>4</sub>H<sub>8</sub>N<sub>2</sub>O",
        "Molecular Mass": "100.12",
        "Melting Point": "265-266 °C"
    }
}