{
    "cas_no": "1186-10-3",
    "key_name": "Diethyl <em>P</em>-(3-bromopropyl)phosphonate",
    "cn_name": "二乙基(3-溴丙基)膦酸酯;",
    "alternate_name": "Phosphonic acid, <em>P</em>-(3-bromopropyl)-, diethyl ester;Phosphonic acid, (3-bromopropyl)-, diethyl ester;Diethyl <em>P</em>-(3-bromopropyl)phosphonate;Diethyl (3-bromopropyl)phosphonate;NSC 138345;(3-Bromopropyl)phosphonic acid diethyl ester;1-Bromo-3-diethoxyphosphorylpropane;Phosphonic acid, <em>P</em>-(2-bromobutyl)-, diethyl ester;3-Bromo-1-propanephosphonic acid diethyl ester",
    "duplicated_cas_no": "83496-08-6;2398642-04-9",
    "SMILES": "P(CCCBr)(OCC)(OCC)=O",
    "meta_data": {
        "InChI": "InChI=1S/C7H16BrO3P/c1-3-10-12(9,11-4-2)7-5-6-8/h3-7H2,1-2H3",
        "InChIKey": null,
        "Canonical SMILES": "O=P(OCC)(OCC)CCCBr",
        "Molecular Formula": "C<sub>7</sub>H<sub>16</sub>BrO<sub>3</sub>P",
        "Molecular Mass": "259.08",
        "Boiling Point": "87 °C @ Press: 0.06 Torr",
        "Density": "1.3072 g/cm³ @ Temp: 20 °C"
    }
}