{
    "cas_no": "3554-65-2",
    "key_name": "1-Methyl-2-pyrrolidinemethanol",
    "cn_name": "1-甲基-2-吡咯烷甲醇;",
    "alternate_name": "2-Pyrrolidinemethanol, 1-methyl-;1-Methyl-2-pyrrolidinemethanol;2-(Hydroxymethyl)-1-methylpyrrolidine;(±)-1-Methyl-2-pyrrolidinemethanol;<em>N</em>-Methylpyrrolidine-2-methanol;(1-Methylpyrrolidin-2-yl)methanol;NSC 45497;<em>N</em>-Methylprolinol",
    "duplicated_cas_no": "30727-24-3",
    "SMILES": "C(O)C1N(C)CCC1",
    "meta_data": {
        "InChI": "InChI=1S/C6H13NO/c1-7-4-2-3-6(7)5-8/h6,8H,2-5H2,1H3",
        "InChIKey": null,
        "Canonical SMILES": "OCC1N(C)CCC1",
        "Molecular Formula": "C<sub>6</sub>H<sub>13</sub>NO",
        "Molecular Mass": "115.17",
        "Boiling Point": "67-68 °C @ Press: 12 Torr"
    }
}