{
    "cas_no": "39959-51-8",
    "key_name": "2-Iodobenzenemethanamine",
    "cn_name": null,
    "alternate_name": "Benzenemethanamine, 2-iodo-;Benzylamine, <em>o</em>-iodo-;2-Iodobenzenemethanamine;2-Iodobenzylamine;<em>o</em>-Iodobenzylamine;1-(2-Iodophenyl)methanamine;(2-Iodophenyl)methanamine",
    "duplicated_cas_no": "",
    "SMILES": "C(N)C1=C(I)C=CC=C1",
    "meta_data": {
        "InChI": "InChI=1S/C7H8IN/c8-7-4-2-1-3-6(7)5-9/h1-4H,5,9H2",
        "InChIKey": null,
        "Canonical SMILES": "IC=1C=CC=CC1CN",
        "Molecular Formula": "C<sub>7</sub>H<sub>8</sub>IN",
        "Molecular Mass": "233.05",
        "Melting Point": "63-65 °C"
    }
}