{
    "cas_no": "36919-03-6",
    "key_name": "Methyl 2,3,4,5,6-pentafluorophenyl carbonate",
    "cn_name": "五氟苯基碳酸甲酯;",
    "alternate_name": "Carbonic acid, methyl 2,3,4,5,6-pentafluorophenyl ester;Carbonic acid, methyl pentafluorophenyl ester;Methyl 2,3,4,5,6-pentafluorophenyl carbonate;Methyl pentafluorophenyl carbonate",
    "duplicated_cas_no": "",
    "SMILES": "O(C(OC)=O)C1=C(F)C(F)=C(F)C(F)=C1F",
    "meta_data": {
        "InChI": "InChI=1S/C8H3F5O3/c1-15-8(14)16-7-5(12)3(10)2(9)4(11)6(7)13/h1H3",
        "InChIKey": null,
        "Canonical SMILES": "O=C(OC=1C(F)=C(F)C(F)=C(F)C1F)OC",
        "Molecular Formula": "C<sub>8</sub>H<sub>3</sub>F<sub>5</sub>O<sub>3</sub>",
        "Molecular Mass": "242.10",
        "Melting Point": "31-33 °C"
    }
}