{
    "cas_no": "106-67-2",
    "key_name": "2-Ethyl-4-methylpentanol",
    "cn_name": null,
    "alternate_name": "1-Pentanol, 2-ethyl-4-methyl-;2-Ethyl-4-methyl-1-pentanol;2-Ethyl-4-methylpentanol",
    "duplicated_cas_no": "111767-90-9;10137-88-9",
    "SMILES": "C(CC(C)C)(CC)CO",
    "meta_data": {
        "InChI": "InChI=1S/C8H18O/c1-4-8(6-9)5-7(2)3/h7-9H,4-6H2,1-3H3",
        "InChIKey": null,
        "Canonical SMILES": "OCC(CC)CC(C)C",
        "Molecular Formula": "C<sub>8</sub>H<sub>18</sub>O",
        "Molecular Mass": "130.23",
        "Boiling Point": "75-77 °C @ Press: 10 Torr",
        "Density": "0.830 g/cm³ @ Temp: 20 °C"
    }
}