{
    "cas_no": "13078-21-2",
    "key_name": "Acetic acid, 2-(2-methoxyphenoxy)-, ethyl ester",
    "cn_name": null,
    "alternate_name": "Acetic acid, 2-(2-methoxyphenoxy)-, ethyl ester;Acetic acid, (<em>o</em>-methoxyphenoxy)-, ethyl ester;Acetic acid, (2-methoxyphenoxy)-, ethyl ester;Ethyl 2-(2-methoxyphenoxy)acetate;Ethyl (2-methoxyphenoxy)acetate",
    "duplicated_cas_no": "",
    "SMILES": "O(CC(OCC)=O)C1=C(OC)C=CC=C1",
    "meta_data": {
        "InChI": "InChI=1S/C11H14O4/c1-3-14-11(12)8-15-10-7-5-4-6-9(10)13-2/h4-7H,3,8H2,1-2H3",
        "InChIKey": null,
        "Canonical SMILES": "O=C(OCC)COC=1C=CC=CC1OC",
        "Molecular Formula": "C<sub>11</sub>H<sub>14</sub>O<sub>4</sub>",
        "Molecular Mass": "210.23",
        "Boiling Point": "116 °C @ Press: 0.2 Torr"
    }
}