{
    "cas_no": "116057-75-1",
    "key_name": "Idoxifene",
    "cn_name": null,
    "alternate_name": "Pyrrolidine, 1-[2-[4-[(1<em>E</em>)-1-(4-iodophenyl)-2-phenyl-1-buten-1-yl]phenoxy]ethyl]-;Pyrrolidine, 1-[2-[4-[1-(4-iodophenyl)-2-phenyl-1-butenyl]phenoxy]ethyl]-, (<em>E</em>)-;Pyrrolidine, 1-[2-[4-[(1<em>E</em>)-1-(4-iodophenyl)-2-phenyl-1-butenyl]phenoxy]ethyl]-;1-[2-[4-[(1<em>E</em>)-1-(4-Iodophenyl)-2-phenyl-1-buten-1-yl]phenoxy]ethyl]pyrrolidine;CB 7432;Idoxifene;SB 223030;Idoxyfene",
    "duplicated_cas_no": "531553-45-4",
    "SMILES": "C(=C(/CC)\\C1=CC=CC=C1)(\\C2=CC=C(OCCN3CCCC3)C=C2)/C4=CC=C(I)C=C4",
    "meta_data": {
        "InChI": "InChI=1S/C28H30INO/c1-2-27(22-8-4-3-5-9-22)28(23-10-14-25(29)15-11-23)24-12-16-26(17-13-24)31-21-20-30-18-6-7-19-30/h3-5,8-17H,2,6-7,18-21H2,1H3/b28-27-",
        "InChIKey": null,
        "Canonical SMILES": "IC1=CC=C(C=C1)C(C2=CC=C(OCCN3CCCC3)C=C2)=C(C=4C=CC=CC4)CC",
        "Molecular Formula": "C<sub>28</sub>H<sub>30</sub>INO",
        "Molecular Mass": "523.45",
        "Melting Point": "106-109 °C"
    }
}