{
    "cas_no": "532-55-8",
    "key_name": "Benzoyl isothiocyanate",
    "cn_name": "苯甲酰基异硫氰酸酯;",
    "alternate_name": "Benzoyl isothiocyanate;Benzoic acid, anhydride with isothiocyanic acid;Isothiocyanic acid, anhydride with benzoic acid;Benzoylthiocarbimide;<em>N</em>-Benzoyl isothiocyanate;NSC 29259",
    "duplicated_cas_no": "1616101-03-1",
    "SMILES": "C(N=C=S)(=O)C1=CC=CC=C1",
    "meta_data": {
        "InChI": "InChI=1S/C8H5NOS/c10-8(9-6-11)7-4-2-1-3-5-7/h1-5H",
        "InChIKey": null,
        "Canonical SMILES": "O=C(N=C=S)C=1C=CC=CC1",
        "Molecular Formula": "C<sub>8</sub>H<sub>5</sub>NOS",
        "Molecular Mass": "163.20",
        "Boiling Point": "135 °C",
        "Melting Point": "&lt;25 °C"
    }
}