{
    "cas_no": "521-62-0",
    "key_name": "Frangulin A",
    "cn_name": null,
    "alternate_name": "9,10-Anthracenedione, 3-[(6-deoxy-α-<span class=\"text-smallcaps\">L</span>-mannopyranosyl)oxy]-1,8-dihydroxy-6-methyl-;Frangulin A;3-[(6-Deoxy-α-<span class=\"text-smallcaps\">L</span>-mannopyranosyl)oxy]-1,8-dihydroxy-6-methyl-9,10-anthracenedione;Franguloside;Emodin-<span class=\"text-smallcaps\">L</span>-rhamnoside;Rhamnoxanthin",
    "duplicated_cas_no": "100456-02-8;30401-58-2",
    "SMILES": "O=C1C=2C(C(=O)C=3C1=CC(C)=CC3O)=C(O)C=C(O[C@H]4[C@H](O)[C@H](O)[C@@H](O)[C@H](C)O4)C2",
    "meta_data": {
        "InChI": "InChI=1S/C21H20O9/c1-7-3-10-14(12(22)4-7)18(26)15-11(17(10)25)5-9(6-13(15)23)30-21-20(28)19(27)16(24)8(2)29-21/h3-6,8,16,19-24,27-28H,1-2H3/t8-,16-,19+,20+,21-/m0/s1",
        "InChIKey": null,
        "Canonical SMILES": "O=C1C2=CC(OC3OC(C)C(O)C(O)C3O)=CC(O)=C2C(=O)C4=C(O)C=C(C=C14)C",
        "Molecular Formula": "C<sub>21</sub>H<sub>20</sub>O<sub>9</sub>",
        "Molecular Mass": "416.38",
        "Melting Point": "228 °C"
    }
}