{
    "cas_no": "353-59-3",
    "key_name": "Bromochlorodifluoromethane",
    "cn_name": "二氟一氯一溴甲烷;二氟氯溴甲烷;哈龙-1211;二氟溴氯甲烷;氟里昂;二氟一氯溴甲烷;",
    "alternate_name": "Methane, bromochlorodifluoro-;Bromochlorodifluoromethane;Freon 12B1;Halon 1211;R 12B1;Difluorochlorobromomethane;Fluorocarbon 1211;Flugex 12B1;BCF;Chlorobromodifluoromethane;Daiflon 12B1;F 12B1;H 1211;BCF (halocarbon)",
    "duplicated_cas_no": "11104-73-7",
    "SMILES": "C(Br)(Cl)(F)F",
    "meta_data": {
        "InChI": "InChI=1S/CBrClF2/c2-1(3,4)5",
        "InChIKey": null,
        "Canonical SMILES": "FC(F)(Cl)Br",
        "Molecular Formula": "CBrClF<sub>2</sub>",
        "Molecular Mass": "165.36",
        "Boiling Point": "-3.7 °C",
        "Melting Point": "-159.5 °C",
        "Density": "1.917 g/cm³"
    }
}