{
    "cas_no": "14484-69-6",
    "key_name": "Potassium aluminum fluoride",
    "cn_name": "氟铝酸钾;氟化铝钾;四氟铝酸钾;",
    "alternate_name": "Aluminate(1-), tetrafluoro-, potassium (1:1), (<em>T</em>-4)-;Aluminate(1-), tetrafluoro-, potassium;Aluminate(1-), tetrafluoro-, potassium, (<em>T</em>-4)-;Potassium tetrafluoroaluminate;Potassium tetrafluoroaluminate(1-);Potassium tetrafluoroaluminate (KAlF<sub>4</sub>);Aluminum potassium fluoride (AlKF<sub>4</sub>);Potassium aluminum fluoride;Potassium aluminum fluoride (KAlF<sub>4</sub>);FL 20;FL 20 (flux);Kalfren PAF",
    "duplicated_cas_no": "678983-34-1;1272665-95-8",
    "SMILES": "[Al+3]([F-])([F-])([F-])[F-].[K+]",
    "meta_data": {
        "InChI": "InChI=1S/Al.4FH.K/h;4*1H;/q+3;;;;;+1/p-4",
        "InChIKey": null,
        "Canonical SMILES": "[K+].[F-][Al+3]([F-])([F-])[F-]",
        "Molecular Formula": "AlF<sub>4</sub>.K",
        "Molecular Mass": "",
        "Melting Point": "546 °C"
    }
}