{
    "cas_no": "123324-71-0",
    "key_name": "4-<em>tert</em>-Butylphenylboronic acid",
    "cn_name": "4-叔丁基苯硼酸;4-叔丁基苯基硼酸;",
    "alternate_name": "Boronic acid, <em>B</em>-[4-(1,1-dimethylethyl)phenyl]-;Boronic acid, [4-(1,1-dimethylethyl)phenyl]-;<em>B</em>-[4-(1,1-Dimethylethyl)phenyl]boronic acid;4-<em>tert</em>-Butylphenylboronic acid;(<em>p</em>-<em>tert</em>-Butylphenyl)boronic acid;4-<em>tert</em>-Butylbenzeneboronic acid;<em>p</em>-<em>tert</em>-Butylbenzeneboronic acid;4-<em>t</em>-Butylbenzeneboronic acid;[4-(1,1-Dimethylethyl)phenyl]boronic acid;4-<em>t</em>-Butylphenylboronic acid",
    "duplicated_cas_no": "",
    "SMILES": "C(C)(C)(C)C1=CC=C(B(O)O)C=C1",
    "meta_data": {
        "InChI": "InChI=1S/C10H15BO2/c1-10(2,3)8-4-6-9(7-5-8)11(12)13/h4-7,12-13H,1-3H3",
        "InChIKey": null,
        "Canonical SMILES": "OB(O)C1=CC=C(C=C1)C(C)(C)C",
        "Molecular Formula": "C<sub>10</sub>H<sub>15</sub>BO<sub>2</sub>",
        "Molecular Mass": "178.04",
        "Melting Point": "160 °C"
    }
}