{
    "cas_no": "486424-37-7",
    "key_name": "3-Amino-6-bromo-2-pyrazinecarboxylic acid",
    "cn_name": "3-氨基-6-溴吡嗪-2-甲酸;",
    "alternate_name": "2-Pyrazinecarboxylic acid, 3-amino-6-bromo-;Pyrazinecarboxylic acid, 3-amino-6-bromo-;3-Amino-6-bromo-2-pyrazinecarboxylic acid;3-Amino-6-bromopyrazine-2-carboxylic acid;2-Amino-5-bromopyrazine-3-carboxylic acid",
    "duplicated_cas_no": "",
    "SMILES": "C(O)(=O)C=1C(N)=NC=C(Br)N1",
    "meta_data": {
        "InChI": "InChI=1S/C5H4BrN3O2/c6-2-1-8-4(7)3(9-2)5(10)11/h1H,(H2,7,8)(H,10,11)",
        "InChIKey": null,
        "Canonical SMILES": "O=C(O)C1=NC(Br)=CN=C1N",
        "Molecular Formula": "C<sub>5</sub>H<sub>4</sub>BrN<sub>3</sub>O<sub>2</sub>",
        "Molecular Mass": "218.01",
        "Melting Point": "185-186 °C (decomp)"
    }
}