{
    "cas_no": "29091-21-2",
    "key_name": "Prodiamine",
    "cn_name": "氨基丙氟灵;2,4-二硝基-N3,N3-二丙基-6-三氟甲基苯-1,3-二胺;",
    "alternate_name": "1,3-Benzenediamine, 2,6-dinitro-<em>N</em><sup>1</sup>,<em>N</em><sup>1</sup>-dipropyl-4-(trifluoromethyl)-;Toluene-2,4-diamine, α,α,α-trifluoro-3,5-dinitro-<em>N</em><sup>4</sup>,<em>N</em><sup>4</sup>-dipropyl-;2,6-Dinitro-<em>N</em><sup>1</sup>,<em>N</em><sup>1</sup>-dipropyl-4-(trifluoromethyl)-1,3-benzenediamine;<em>N</em><sup>3</sup>,<em>N</em><sup>3</sup>-Dipropyl-2,4-dinitro-6-trifluoromethyl-1,3-phenylenediamine;Prodiamine;Endurance;Barricade;Barricade (herbicide);Kusablock;Factor;Endurance (herbicide)",
    "duplicated_cas_no": "",
    "SMILES": "N(CCC)(CCC)C1=C(N(=O)=O)C(N)=C(C(F)(F)F)C=C1N(=O)=O",
    "meta_data": {
        "InChI": "InChI=1S/C13H17F3N4O4/c1-3-5-18(6-4-2)11-9(19(21)22)7-8(13(14,15)16)10(17)12(11)20(23)24/h7H,3-6,17H2,1-2H3",
        "InChIKey": null,
        "Canonical SMILES": "O=N(=O)C=1C=C(C(N)=C(C1N(CCC)CCC)N(=O)=O)C(F)(F)F",
        "Molecular Formula": "C<sub>13</sub>H<sub>17</sub>F<sub>3</sub>N<sub>4</sub>O<sub>4</sub>",
        "Molecular Mass": "350.29",
        "Melting Point": "124 °C"
    }
}