{
    "cas_no": "16844-71-6",
    "key_name": "Epifriedelanol",
    "cn_name": null,
    "alternate_name": "24,25,26-Trinoroleanan-3-ol, 5,9,13-trimethyl-, (3β,4β,5β,8α,9β,10α,13α,14β)-;<em>D</em>:<em>A</em>-Friedooleanan-3β-ol;<em>D</em>:<em>A</em>-Friedooleanan-3-ol, (3β)-;(3β,4β,5β,8α,9β,10α,13α,14β)-5,9,13-Trimethyl-24,25,26-trinoroleanan-3-ol;Epifriedelanol;Epifriedelinol;Friedelan-3β-ol;Friedelin-3β-ol;β-Friedelinol;<em>epi</em>-Friedelanol;Longan triterpane A;3β-Hydroxyfriedelane;3-Epifriedelinol;3-<em>epi</em>-Friedanol",
    "duplicated_cas_no": "",
    "SMILES": "C[C@@]12[C@](C)([C@]3([C@@](C)(CC1)CCC(C)(C)C3)[H])CC[C@]4(C)[C@@]2(CC[C@@]5(C)[C@]4(CC[C@H](O)[C@@H]5C)[H])[H]",
    "meta_data": {
        "InChI": "InChI=1S/C30H52O/c1-20-21(31)9-10-22-27(20,5)12-11-23-28(22,6)16-18-30(8)24-19-25(2,3)13-14-26(24,4)15-17-29(23,30)7/h20-24,31H,9-19H2,1-8H3/t20-,21-,22+,23-,24+,26+,27+,28-,29+,30-/m0/s1",
        "InChIKey": null,
        "Canonical SMILES": "OC1CCC2C(C)(CCC3C2(C)CCC4(C)C5CC(C)(C)CCC5(C)CCC34C)C1C",
        "Molecular Formula": "C<sub>30</sub>H<sub>52</sub>O",
        "Molecular Mass": "428.73",
        "Melting Point": "279-283 °C"
    }
}