{
    "cas_no": "15384-37-9",
    "key_name": "<span class=\"text-smallcaps\">D</span>-Xylono-1,4-lactone",
    "cn_name": null,
    "alternate_name": "<span class=\"text-smallcaps\">D</span>-Xylonic acid, γ-lactone;Xylonic acid, γ-lactone, <span class=\"text-smallcaps\">D</span>-;<span class=\"text-smallcaps\">D</span>-Xylono-1,4-lactone;<span class=\"text-smallcaps\">D</span>-Xylono-γ-lactone",
    "duplicated_cas_no": "",
    "SMILES": "C(O)[C@@H]1[C@H](O)[C@@H](O)C(=O)O1",
    "meta_data": {
        "InChI": "InChI=1S/C5H8O5/c6-1-2-3(7)4(8)5(9)10-2/h2-4,6-8H,1H2/t2-,3+,4-/m1/s1",
        "InChIKey": null,
        "Canonical SMILES": "O=C1OC(CO)C(O)C1O",
        "Molecular Formula": "C<sub>5</sub>H<sub>8</sub>O<sub>5</sub>",
        "Molecular Mass": "148.11",
        "Melting Point": "97 °C"
    }
}