{
    "cas_no": "505-48-6",
    "key_name": "Suberic acid",
    "cn_name": "辛二酸;",
    "alternate_name": "Octanedioic acid;Suberic acid;Hexamethylenedicarboxylic acid;1,6-Hexanedicarboxylic acid;1,8-Octanedioic acid;1,6-Dicarboxyhexane;Cork acid;NSC 25952;NSC 53777",
    "duplicated_cas_no": "",
    "SMILES": "C(CC(O)=O)CCCCC(O)=O",
    "meta_data": {
        "InChI": "InChI=1S/C8H14O4/c9-7(10)5-3-1-2-4-6-8(11)12/h1-6H2,(H,9,10)(H,11,12)",
        "InChIKey": null,
        "Canonical SMILES": "O=C(O)CCCCCCC(=O)O",
        "Molecular Formula": "C<sub>8</sub>H<sub>14</sub>O<sub>4</sub>",
        "Molecular Mass": "174.19",
        "Boiling Point": "345.5 °C",
        "Melting Point": "144 °C",
        "Density": "1.272 g/cm³"
    }
}