{
    "cas_no": "5471-63-6",
    "key_name": "1,3-Diphenylisobenzofuran",
    "cn_name": "1,3-二苯基异苯并呋喃;2,5-二苯基-3,4-苯并呋喃;",
    "alternate_name": "Isobenzofuran, 1,3-diphenyl-;1,3-Diphenylisobenzofuran;1,3-Diphenylbenzo[<em>c</em>]furan;Diphenylisobenzofuran;NSC 28407;1,3-Isobenzofurandiol;DPBF",
    "duplicated_cas_no": "2107319-64-0",
    "SMILES": "C1(=C2C(=C(O1)C3=CC=CC=C3)C=CC=C2)C4=CC=CC=C4",
    "meta_data": {
        "InChI": "InChI=1S/C20H14O/c1-3-9-15(10-4-1)19-17-13-7-8-14-18(17)20(21-19)16-11-5-2-6-12-16/h1-14H",
        "InChIKey": null,
        "Canonical SMILES": "O1C(C=2C=CC=CC2)=C3C=CC=CC3=C1C=4C=CC=CC4",
        "Molecular Formula": "C<sub>20</sub>H<sub>14</sub>O",
        "Molecular Mass": "270.32",
        "Melting Point": "125 °C"
    }
}