{
    "cas_no": "10537-47-0",
    "key_name": "Tyrphostin 9",
    "cn_name": "丙螨氰;2-(3，5－二特丁基－4－羟基苯亚甲基)丙二腈；克螨腈;",
    "alternate_name": "Propanedinitrile, 2-[[3,5-bis(1,1-dimethylethyl)-4-hydroxyphenyl]methylene]-;Malononitrile, (3,5-di-<em>tert</em>-butyl-4-hydroxybenzylidene)-;Propanedinitrile, [[3,5-bis(1,1-dimethylethyl)-4-hydroxyphenyl]methylene]-;2-[[3,5-Bis(1,1-dimethylethyl)-4-hydroxyphenyl]methylene]propanedinitrile;3,5-di-<em>tert</em>-Butyl-4-hydroxybenzylidenemalononitrile;2,6-Di-<em>tert</em>-butyl-4-(2,2-dicyanovinyl)phenol;3,5-di-<em>tert</em>-Butyl-4-hydroxybenzylidenemalonitrile;Malonoben;SF 6847;GCP 5126;RG 50872;AG 17;Tyrphostin AG 17;NSC 242557;Tyrphostin 9;Tyrphostin A 9;2-(3,5-Di-<em>tert</em>-butyl-4-hydroxybenzylidene)malononitrile;2-(3,5-Di-<em>tert</em>-butyl-4-hydroxy-benzylidene)-malononitrile",
    "duplicated_cas_no": "51601-81-1;68072-88-8;180324-80-5",
    "SMILES": "C(C)(C)(C)C1=C(O)C(C(C)(C)C)=CC(C=C(C#N)C#N)=C1",
    "meta_data": {
        "InChI": "InChI=1S/C18H22N2O/c1-17(2,3)14-8-12(7-13(10-19)11-20)9-15(16(14)21)18(4,5)6/h7-9,21H,1-6H3",
        "InChIKey": null,
        "Canonical SMILES": "N#CC(C#N)=CC=1C=C(C(O)=C(C1)C(C)(C)C)C(C)(C)C",
        "Molecular Formula": "C<sub>18</sub>H<sub>22</sub>N<sub>2</sub>O",
        "Molecular Mass": "282.38",
        "Melting Point": "141-143 °C"
    }
}