{
    "cas_no": "2086-83-1",
    "key_name": "Berberine",
    "cn_name": "小檗碱;黄连素碱;5,6-二氢-9,10-二甲氧基苯并[G]-1,3-二噁茂苯并[5,6&alpha;]喹嗪;",
    "alternate_name": "Benzo[<em>g</em>]-1,3-benzodioxolo[5,6-<em>a</em>]quinolizinium, 5,6-dihydro-9,10-dimethoxy-;Umbellatine;Berbinium, 7,8,13,13a-tetradehydro-9,10-dimethoxy-2,3-(methylenedioxy)-;5,6-Dihydro-9,10-dimethoxybenzo[<em>g</em>]-1,3-benzodioxolo[5,6-<em>a</em>]quinolizinium;Berberine;Berbericine;Berberin;Umbellatin;Thalsine;Majarine;Berberone;MeSH ID: D001599",
    "duplicated_cas_no": "1361-59-7;11048-54-7;66414-49-1;100414-97-9;2832957-71-6",
    "SMILES": "O(C)C1=C2C=[N+]3C(C=4C(=CC5=C(C4)OCO5)CC3)=CC2=CC=C1OC",
    "meta_data": {
        "InChI": "InChI=1S/C20H18NO4/c1-22-17-4-3-12-7-16-14-9-19-18(24-11-25-19)8-13(14)5-6-21(16)10-15(12)20(17)23-2/h3-4,7-10H,5-6,11H2,1-2H3/q+1",
        "InChIKey": null,
        "Canonical SMILES": "O(C=1C=CC2=CC=3C4=CC=5OCOC5C=C4CC[N+]3C=C2C1OC)C",
        "Molecular Formula": "C<sub>20</sub>H<sub>18</sub>NO<sub>4</sub>",
        "Molecular Mass": "",
        "Melting Point": "145 °C"
    }
}