{
    "cas_no": "18494-87-6",
    "key_name": "Benzo[<em>b</em>]thiophene-3-sulfonyl chloride",
    "cn_name": "1-苯并噻吩-3-磺酰氯;",
    "alternate_name": "Benzo[<em>b</em>]thiophene-3-sulfonyl chloride;1-Benzothiophene-3-sulfonyl chloride",
    "duplicated_cas_no": "",
    "SMILES": "S(Cl)(=O)(=O)C=1C=2C(SC1)=CC=CC2",
    "meta_data": {
        "InChI": "InChI=1S/C8H5ClO2S2/c9-13(10,11)8-5-12-7-4-2-1-3-6(7)8/h1-5H",
        "InChIKey": null,
        "Canonical SMILES": "O=S(=O)(Cl)C1=CSC=2C=CC=CC21",
        "Molecular Formula": "C<sub>8</sub>H<sub>5</sub>ClO<sub>2</sub>S<sub>2</sub>",
        "Molecular Mass": "232.71",
        "Melting Point": "90 °C"
    }
}