{
    "cas_no": "104653-34-1",
    "key_name": "Difethialone",
    "cn_name": null,
    "alternate_name": "2<em>H</em>-1-Benzothiopyran-2-one, 3-[3-(4′-bromo[1,1′-biphenyl]-4-yl)-1,2,3,4-tetrahydro-1-naphthalenyl]-4-hydroxy-;3-[3-(4′-Bromo[1,1′-biphenyl]-4-yl)-1,2,3,4-tetrahydro-1-naphthalenyl]-4-hydroxy-2<em>H</em>-1-benzothiopyran-2-one;Difethialone;LM 2219;Baraki;Difethiarol",
    "duplicated_cas_no": "",
    "SMILES": "OC1=C(C2C=3C(CC(C2)C4=CC=C(C=C4)C5=CC=C(Br)C=C5)=CC=CC3)C(=O)SC=6C1=CC=CC6",
    "meta_data": {
        "InChI": "InChI=1S/C31H23BrO2S/c32-24-15-13-20(14-16-24)19-9-11-21(12-10-19)23-17-22-5-1-2-6-25(22)27(18-23)29-30(33)26-7-3-4-8-28(26)35-31(29)34/h1-16,23,27,33H,17-18H2",
        "InChIKey": null,
        "Canonical SMILES": "O=C1SC=2C=CC=CC2C(O)=C1C3C=4C=CC=CC4CC(C5=CC=C(C=C5)C=6C=CC(Br)=CC6)C3",
        "Molecular Formula": "C<sub>31</sub>H<sub>23</sub>BrO<sub>2</sub>S",
        "Molecular Mass": "539.48",
        "Melting Point": "233-236 °C",
        "Density": "1.3614 g/cm³ @ Temp: 25 °C"
    }
}