{
    "cas_no": "7786-81-4",
    "key_name": "Nickel sulfate (NiSO<sub>4</sub>)",
    "cn_name": "硫酸镍;",
    "alternate_name": "Sulfuric acid, nickel(2+) salt (1:1);Nickel sulfate (NiSO<sub>4</sub>);Nickel sulfate;Nickel(II) sulfate;Nickel sulfate (1:1);Nickelous sulfate;Nickel(2+) sulfate;Sulfuric acid nickel(2+) salt;Nickel(2+) sulfate (1:1);Nickel monosulfate;Fine Emerald",
    "duplicated_cas_no": "139939-67-6;1820866-61-2;2309326-19-8",
    "SMILES": "S(=O)(=O)(O)O.[Ni]",
    "meta_data": {
        "InChI": "InChI=1S/Ni.H2O4S/c;1-5(2,3)4/h;(H2,1,2,3,4)",
        "InChIKey": null,
        "Canonical SMILES": "[Ni].O=S(=O)(O)O",
        "Molecular Formula": "H<sub>2</sub>O<sub>4</sub>S.Ni",
        "Molecular Mass": "",
        "Melting Point": "840 °C (decomp)",
        "Density": "4.01 g/cm³"
    }
}