{
    "cas_no": "18720-65-5",
    "key_name": "5-Methyl-3-heptanol",
    "cn_name": "5-甲基-3-庚醇;",
    "alternate_name": "3-Heptanol, 5-methyl-;5-Methyl-3-heptanol",
    "duplicated_cas_no": "",
    "SMILES": "C(C(CC)C)C(CC)O",
    "meta_data": {
        "InChI": "InChI=1S/C8H18O/c1-4-7(3)6-8(9)5-2/h7-9H,4-6H2,1-3H3",
        "InChIKey": null,
        "Canonical SMILES": "OC(CC)CC(C)CC",
        "Molecular Formula": "C<sub>8</sub>H<sub>18</sub>O",
        "Molecular Mass": "130.23",
        "Boiling Point": "172 °C",
        "Melting Point": "-91.2 °C",
        "Density": "0.8493 g/cm³ @ Temp: 0 °C"
    }
}