{
    "cas_no": "33286-22-5",
    "key_name": "Diltiazem hydrochloride",
    "cn_name": "盐酸地尔硫卓;顺-(+)-5-[(2-二甲氨基)乙基]-2-(4-甲氧基苯基)-3-乙酰氧基-2,3-二氢-1,5-苯并硫氮杂卓-4(5H);",
    "alternate_name": "1,5-Benzothiazepin-4(5<em>H</em>)-one, 3-(acetyloxy)-5-[2-(dimethylamino)ethyl]-2,3-dihydro-2-(4-methoxyphenyl)-, hydrochloride (1:1), (2<em>S</em>,3<em>S</em>)-;1,5-Benzothiazepin-4(5<em>H</em>)-one, 3-(acetyloxy)-5-[2-(dimethylamino)ethyl]-2,3-dihydro-2-(4-methoxyphenyl)-, monohydrochloride, (2<em>S</em>-<em>cis</em>)-;1,5-Benzothiazepin-4(5<em>H</em>)-one, 3-(acetyloxy)-5-[2-(dimethylamino)ethyl]-2,3-dihydro-2-(4-methoxyphenyl)-, monohydrochloride, (2<em>S</em>,3<em>S</em>)-;CRD 401;<em>d</em>-<em>cis</em>-3-Acetoxy-2,3-dihydro-5-[2-(dimethylamino)ethyl]-2-(<em>p</em>-methoxyphenyl)-1,5-benzothiazepin-4(5<em>H</em>)-one hydrochloride;Diltiazem hydrochloride;Herbesser;Tildiem;Masdil;(+)-Diltiazem hydrochloride;Cardizem;Blocalcin 60;(<em>S</em>,<em>S</em>)-Diltiazem hydrochloride;Tiazac;Kardil;Cardizem CD;Cardizem SR;Dilacor XR;Dilacor;Bruzem;Anginyl;Diladel;Dilpral;Dilrene;RG 83606;Angizem;Deltazen;Adizem;<em>d</em>-<em>cis</em>-Diltiazem hydrochloride;Altiazem;Dilzene;Citizem;Calcicard;Cormax;Britiazim;Dilcardia;Dilgard;Kaizem;Angipress;Dicard;(2S,3S)-(+)-<em>cis</em>-Diltiazem hydrochloride;Bi-Teldiem;Dilzacard",
    "duplicated_cas_no": "",
    "SMILES": "O(C(C)=O)[C@@H]1[C@@H](SC=2C(N(CCN(C)C)C1=O)=CC=CC2)C3=CC=C(OC)C=C3.Cl",
    "meta_data": {
        "InChI": "InChI=1S/C22H26N2O4S.ClH/c1-15(25)28-20-21(16-9-11-17(27-4)12-10-16)29-19-8-6-5-7-18(19)24(22(20)26)14-13-23(2)3;/h5-12,20-21H,13-14H2,1-4H3;1H/t20-,21+;/m1./s1",
        "InChIKey": null,
        "Canonical SMILES": "Cl.O=C(OC1C(=O)N(C=2C=CC=CC2SC1C3=CC=C(OC)C=C3)CCN(C)C)C",
        "Molecular Formula": "C<sub>22</sub>H<sub>26</sub>N<sub>2</sub>O<sub>4</sub>S.ClH",
        "Molecular Mass": "",
        "Melting Point": "207.5-212 °C",
        "Density": "1.30 g/cm³"
    }
}