{
    "cas_no": "10234-40-9",
    "key_name": "1,2-Bis(2-hydroxyethoxy)benzene",
    "cn_name": null,
    "alternate_name": "Ethanol, 2,2′-[1,2-phenylenebis(oxy)]bis-;Ethanol, 2,2′-(<em>o</em>-phenylenedioxy)di-;2,2′-[1,2-Phenylenebis(oxy)]bis[ethanol];1,2-Bis(2-hydroxyethoxy)benzene;<em>o</em>-Bis(2-hydroxyethoxy)benzene;Catechol bis(2-hydroxyethyl) ether;2,2′-(1,2-Phenylenedioxy)diethanol;2,2′-[1,2-phenylenebis(oxy)]bis[ethanol];2-[2-(2-Hydroxyethoxy)phenoxy]ethanol",
    "duplicated_cas_no": "",
    "SMILES": "O(CCO)C1=C(OCCO)C=CC=C1",
    "meta_data": {
        "InChI": "InChI=1S/C10H14O4/c11-5-7-13-9-3-1-2-4-10(9)14-8-6-12/h1-4,11-12H,5-8H2",
        "InChIKey": null,
        "Canonical SMILES": "OCCOC=1C=CC=CC1OCCO",
        "Molecular Formula": "C<sub>10</sub>H<sub>14</sub>O<sub>4</sub>",
        "Molecular Mass": "198.22",
        "Boiling Point": "170-172 °C @ Press: 5-8 Torr",
        "Melting Point": "89-91 °C"
    }
}