{
    "cas_no": "56512-49-3",
    "key_name": "Dabsyl chloride",
    "cn_name": "4-二甲胺基苯基偶氮苯磺酰氯;",
    "alternate_name": "Benzenesulfonyl chloride, 4-[2-[4-(dimethylamino)phenyl]diazenyl]-;Benzenesulfonyl chloride, 4-[[4-(dimethylamino)phenyl]azo]-;4-[2-[4-(Dimethylamino)phenyl]diazenyl]benzenesulfonyl chloride;4-Dimethylaminoazobenzene-4′-sulfonyl chloride;Dabsyl chloride;DABS-Cl;4-[[4-(Dimethylamino)phenyl]azo]benzenesulfonyl chloride;4′-(Dimethylamino)azobenzene-4-sulfonic acid chloride",
    "duplicated_cas_no": "174675-53-7",
    "SMILES": "N(=NC1=CC=C(N(C)C)C=C1)C2=CC=C(S(Cl)(=O)=O)C=C2",
    "meta_data": {
        "InChI": "InChI=1S/C14H14ClN3O2S/c1-18(2)13-7-3-11(4-8-13)16-17-12-5-9-14(10-6-12)21(15,19)20/h3-10H,1-2H3",
        "InChIKey": null,
        "Canonical SMILES": "O=S(=O)(Cl)C1=CC=C(N=NC2=CC=C(C=C2)N(C)C)C=C1",
        "Molecular Formula": "C<sub>14</sub>H<sub>14</sub>ClN<sub>3</sub>O<sub>2</sub>S",
        "Molecular Mass": "323.80",
        "Melting Point": "183-185 °C"
    }
}