{
    "cas_no": "54827-17-7",
    "key_name": "3,3′,5,5′-Tetramethylbenzidine",
    "cn_name": "3,3\",5,5\"-四甲基联苯胺;",
    "alternate_name": "[1,1′-Biphenyl]-4,4′-diamine, 3,3′,5,5′-tetramethyl-;Benzidine, 3,3′,5,5′-tetramethyl-;3,3′,5,5′-Tetramethyl[1,1′-biphenyl]-4,4′-diamine;3,3′,5,5′-Tetramethylbenzidine;3,5,3′,5′-Tetramethylbenzidine;TMB;BM blue;TMB substrate;3,3′,5,5′-Tetramethylbiphenyl-4,4′-diamine;K-Blue Max;ColorBurst Blue;TMB Blotting Plus;Enhanced K-Blue;Sure Blue TMB;K-Blue;3,3′,5,5′-Tetramethyl-4,4′-diaminobiphenyl;3,3′,5,5′-Tetramehylbenzidine;4,4′-Diamino-3,3′,5,5′-tetramethyl-1,1′-biphenyl",
    "duplicated_cas_no": "",
    "SMILES": "CC=1C=C(C=C(C)C1N)C2=CC(C)=C(N)C(C)=C2",
    "meta_data": {
        "InChI": "InChI=1S/C16H20N2/c1-9-5-13(6-10(2)15(9)17)14-7-11(3)16(18)12(4)8-14/h5-8H,17-18H2,1-4H3",
        "InChIKey": null,
        "Canonical SMILES": "NC=1C(=CC(=CC1C)C=2C=C(C(N)=C(C2)C)C)C",
        "Molecular Formula": "C<sub>16</sub>H<sub>20</sub>N<sub>2</sub>",
        "Molecular Mass": "240.34",
        "Melting Point": "168.5 °C"
    }
}