{
    "cas_no": "366-77-8",
    "key_name": "3-(4-Fluorobenzoyl)propionic acid",
    "cn_name": "4-(4-氟苯基)-4-氧代丁酸;3-(4-氟苯甲酰)丙酸;",
    "alternate_name": "Benzenebutanoic acid, 4-fluoro-γ-oxo-;Propionic acid, 3-(<em>p</em>-fluorobenzoyl)-;4-Fluoro-γ-oxobenzenebutanoic acid;β-(<em>p</em>-Fluorobenzoyl)propionic acid;Ba 2833;3-(<em>p</em>-Fluorobenzoyl)propionic acid;4-Oxo-4-(<em>p</em>-fluorophenyl)butyric acid;3-(4-Fluorobenzoyl)propionic acid;4-Fluorobenzoylpropionic acid;3-(4-Fluorobenzoyl)propanoic acid;β-(4-Fluorobenzoyl)propionic acid;γ-(4-Fluorophenyl)-γ-oxobutanoic acid;4-(4-Fluorophenyl)-4-oxobutanoic acid;4-(4-Fluorophenyl)-4-oxobutyric acid;NSC 408180",
    "duplicated_cas_no": "",
    "SMILES": "C(CCC(O)=O)(=O)C1=CC=C(F)C=C1",
    "meta_data": {
        "InChI": "InChI=1S/C10H9FO3/c11-8-3-1-7(2-4-8)9(12)5-6-10(13)14/h1-4H,5-6H2,(H,13,14)",
        "InChIKey": null,
        "Canonical SMILES": "O=C(O)CCC(=O)C1=CC=C(F)C=C1",
        "Molecular Formula": "C<sub>10</sub>H<sub>9</sub>FO<sub>3</sub>",
        "Molecular Mass": "196.18",
        "Melting Point": "102.2-102.7 °C"
    }
}