{
    "cas_no": "1839-18-5",
    "key_name": "2-Chloroadenine",
    "cn_name": "2-氯-6-氨基嘌呤;2-氯腺嘌呤;",
    "alternate_name": "9<em>H</em>-Purin-6-amine, 2-chloro-;Adenine, 2-chloro-;1<em>H</em>-Purin-6-amine, 2-chloro-;2-Chloro-9<em>H</em>-purin-6-amine;2-Chloroadenine;6-Amino-2-chloropurine;SQ 22982;2-Chloro-6-aminopurine;NSC 7362;6-Amino-2-chloro-9<em>H</em>-purine;2-Chloro-1<em>H</em>-purin-6-amine;2-Chloro-7<em>H</em>-purin-6-amine",
    "duplicated_cas_no": "31458-56-7",
    "SMILES": "NC1=C2C(=NC(Cl)=N1)N=CN2",
    "meta_data": {
        "InChI": "InChI=1S/C5H4ClN5/c6-5-10-3(7)2-4(11-5)9-1-8-2/h1H,(H3,7,8,9,10,11)",
        "InChIKey": null,
        "Canonical SMILES": "ClC1=NC=2N=CNC2C(=N1)N",
        "Molecular Formula": "C<sub>5</sub>H<sub>4</sub>ClN<sub>5</sub>",
        "Molecular Mass": "169.57",
        "Melting Point": "&gt;300 °C"
    }
}