{
    "cas_no": "630-07-9",
    "key_name": "Pentatriacontane",
    "cn_name": null,
    "alternate_name": "Pentatriacontane;<em>n</em>-Pentatriacontane;NSC 125400",
    "duplicated_cas_no": "",
    "SMILES": "C(CCCCCCCCCCCCCCCCC)CCCCCCCCCCCCCCCCC",
    "meta_data": {
        "InChI": "InChI=1S/C35H72/c1-3-5-7-9-11-13-15-17-19-21-23-25-27-29-31-33-35-34-32-30-28-26-24-22-20-18-16-14-12-10-8-6-4-2/h3-35H2,1-2H3",
        "InChIKey": null,
        "Canonical SMILES": "CCCCCCCCCCCCCCCCCCCCCCCCCCCCCCCCCCC",
        "Molecular Formula": "C<sub>35</sub>H<sub>72</sub>",
        "Molecular Mass": "492.95",
        "Boiling Point": "490 °C",
        "Melting Point": "75 °C"
    }
}