{
    "cas_no": "25985-57-3",
    "key_name": "2-[(Aminoiminomethyl)thio]ethanesulfonic acid",
    "cn_name": "2-脒基硫乙磺酸;",
    "alternate_name": "Ethanesulfonic acid, 2-[(aminoiminomethyl)thio]-;Ethanesulfonic acid, 2-(amidinothio)-;Pseudourea, 2-(2-sulfoethyl)-;2-[(Aminoiminomethyl)thio]ethanesulfonic acid;Carbamimidothioic acid, 2-sulfoethyl ester;2-S-Thiuronium ethanesulfonate;2-<em>S</em>-Thiuronium ethanesulfonate;2-(Carbamimidoylthio)ethanesulfonic acid",
    "duplicated_cas_no": "",
    "SMILES": "C(CSC(=N)N)S(=O)(=O)O",
    "meta_data": {
        "InChI": "InChI=1S/C3H8N2O3S2/c4-3(5)9-1-2-10(6,7)8/h1-2H2,(H3,4,5)(H,6,7,8)",
        "InChIKey": null,
        "Canonical SMILES": "O=S(=O)(O)CCSC(=N)N",
        "Molecular Formula": "C<sub>3</sub>H<sub>8</sub>N<sub>2</sub>O<sub>3</sub>S<sub>2</sub>",
        "Molecular Mass": "184.24",
        "Melting Point": "209-270 °C"
    }
}