{
    "cas_no": "342-24-5",
    "key_name": "2-Fluorobenzophenone",
    "cn_name": "邻氟二苯甲酮;",
    "alternate_name": "Methanone, (2-fluorophenyl)phenyl-;Benzophenone, 2-fluoro-;2-Fluorobenzophenone;<em>o</em>-Fluorobenzophenone;2-Fluorophenyl phenyl ketone;NSC 88283;(2-Fluorophenyl)phenylmethanone",
    "duplicated_cas_no": "",
    "SMILES": "C(=O)(C1=C(F)C=CC=C1)C2=CC=CC=C2",
    "meta_data": {
        "InChI": "InChI=1S/C13H9FO/c14-12-9-5-4-8-11(12)13(15)10-6-2-1-3-7-10/h1-9H",
        "InChIKey": null,
        "Canonical SMILES": "O=C(C=1C=CC=CC1)C=2C=CC=CC2F",
        "Molecular Formula": "C<sub>13</sub>H<sub>9</sub>FO",
        "Molecular Mass": "200.21",
        "Boiling Point": "150 °C"
    }
}