{
    "cas_no": "4643-27-0",
    "key_name": "2-Octen-4-one",
    "cn_name": "2-辛烯-4-酮;2-辛-4-酮;",
    "alternate_name": "2-Octen-4-one;Butyl 1-propenyl ketone",
    "duplicated_cas_no": "",
    "SMILES": "C(CCCC)(C=CC)=O",
    "meta_data": {
        "InChI": "InChI=1S/C8H14O/c1-3-5-7-8(9)6-4-2/h4,6H,3,5,7H2,1-2H3",
        "InChIKey": null,
        "Canonical SMILES": "O=C(C=CC)CCCC",
        "Molecular Formula": "C<sub>8</sub>H<sub>14</sub>O",
        "Molecular Mass": "126.20",
        "Boiling Point": "178 °C",
        "Density": "0.852 g/cm³ @ Temp: 20 °C"
    }
}