{
    "cas_no": "618-56-4",
    "key_name": "Benzoic acid, 3,5-diamino-, hydrochloride (1:2)",
    "cn_name": null,
    "alternate_name": "Benzoic acid, 3,5-diamino-, hydrochloride (1:2);Benzoic acid, 3,5-diamino-, dihydrochloride;3,5-Diaminobenzoic acid dihydrochloride",
    "duplicated_cas_no": "",
    "SMILES": "C(O)(=O)C1=CC(N)=CC(N)=C1.Cl",
    "meta_data": {
        "InChI": "InChI=1S/C7H8N2O2.2ClH/c8-5-1-4(7(10)11)2-6(9)3-5;;/h1-3H,8-9H2,(H,10,11);2*1H",
        "InChIKey": null,
        "Canonical SMILES": "Cl.O=C(O)C=1C=C(N)C=C(N)C1",
        "Molecular Formula": "C<sub>7</sub>H<sub>8</sub>N<sub>2</sub>O<sub>2</sub>.2ClH",
        "Molecular Mass": "",
        "Melting Point": "185 °C (decomp)"
    }
}