{
    "cas_no": "13674-87-8",
    "key_name": "Tris(1,3-dichloro-2-propyl) phosphate",
    "cn_name": "磷酸三(1,3-二氯异丙基)酯;",
    "alternate_name": "2-Propanol, 1,3-dichloro-, 2,2′,2′′-phosphate;2-Propanol, 1,3-dichloro-, phosphate (3:1);Tris(1,3-dichloroisopropyl) phosphate;PF 38;Tris(1-chloromethyl-2-chloroethyl)phosphate;Tris(1,3-dichloro-2-propyl) phosphate;Fyrol FR 2;Tris[2-chloro-1-(chloromethyl)ethyl] phosphate;TDCPP;PF 38/3;CRP;CRP (fireproofing agent);Antiblaze 195;FR 10;FR 10 (phosphate);3PC-R;Tri(1,3-dichloroisopropyl) phosphate;WR 30LV;Antiblaze WR 30LV;Tris(1,3-dichloro-2-isopropyl)phosphate",
    "duplicated_cas_no": "1425202-15-8",
    "SMILES": "P(OC(CCl)CCl)(OC(CCl)CCl)(OC(CCl)CCl)=O",
    "meta_data": {
        "InChI": "InChI=1S/C9H15Cl6O4P/c10-1-7(2-11)17-20(16,18-8(3-12)4-13)19-9(5-14)6-15/h7-9H,1-6H2",
        "InChIKey": null,
        "Canonical SMILES": "O=P(OC(CCl)CCl)(OC(CCl)CCl)OC(CCl)CCl",
        "Molecular Formula": "C<sub>9</sub>H<sub>15</sub>Cl<sub>6</sub>O<sub>4</sub>P",
        "Molecular Mass": "430.90",
        "Boiling Point": "236-237 °C @ Press: 5 Torr",
        "Melting Point": "27 °C",
        "Density": "148 g/cm³ @ Temp: 25 °C"
    }
}