{
    "cas_no": "14959-32-1",
    "key_name": "6-Chloro-<em>N</em>-methyl-3-pyridazinamine",
    "cn_name": "3- 氯-6-甲基氨基哒嗪;",
    "alternate_name": "3-Pyridazinamine, 6-chloro-<em>N</em>-methyl-;Pyridazine, 3-chloro-6-(methylamino)-;6-Chloro-<em>N</em>-methyl-3-pyridazinamine;3-Chloro-6-(methylamino)pyridazine",
    "duplicated_cas_no": "",
    "SMILES": "N(C)C1=CC=C(Cl)N=N1",
    "meta_data": {
        "InChI": "InChI=1S/C5H6ClN3/c1-7-5-3-2-4(6)8-9-5/h2-3H,1H3,(H,7,9)",
        "InChIKey": null,
        "Canonical SMILES": "ClC1=NN=C(C=C1)NC",
        "Molecular Formula": "C<sub>5</sub>H<sub>6</sub>ClN<sub>3</sub>",
        "Molecular Mass": "143.57",
        "Melting Point": "198-199 °C"
    }
}