{
    "cas_no": "7379-51-3",
    "key_name": "3,5-Dimethyl-4-(methylthio)phenol",
    "cn_name": "4-甲硫基-3,5-二甲基苯酚;3,5-二甲基-4-甲硫基苯酚;",
    "alternate_name": "Phenol, 3,5-dimethyl-4-(methylthio)-;3,5-Xylenol, 4-(methylthio)-;3,5-Dimethyl-4-(methylthio)phenol;4-Methylsulfanyl-3,5-dimethylphenol;3,5-Dimethyl-4-methylsulfanylphenol",
    "duplicated_cas_no": "",
    "SMILES": "S(C)C1=C(C)C=C(O)C=C1C",
    "meta_data": {
        "InChI": "InChI=1S/C9H12OS/c1-6-4-8(10)5-7(2)9(6)11-3/h4-5,10H,1-3H3",
        "InChIKey": null,
        "Canonical SMILES": "OC=1C=C(C(SC)=C(C1)C)C",
        "Molecular Formula": "C<sub>9</sub>H<sub>12</sub>OS",
        "Molecular Mass": "168.26",
        "Boiling Point": "155-160 °C @ Press: 12 Torr",
        "Melting Point": "64-65.5 °C"
    }
}