{
    "cas_no": "26172-55-4",
    "key_name": "5-Chloro-2-methyl-4-isothiazolin-3-one",
    "cn_name": "异噻唑啉酮;5-氯-2-甲基异噻唑啉-3-酮;卡松;",
    "alternate_name": "3(2<em>H</em>)-Isothiazolone, 5-chloro-2-methyl-;4-Isothiazolin-3-one, 5-chloro-2-methyl-;5-Chloro-2-methyl-3(2<em>H</em>)-isothiazolone;5-Chloro-<em>N</em>-methylisothiazolin-3-one;5-Chloro-2-methyl-3-isothiazolone;<em>N</em>-Methyl-5-chloroisothiazolin-3-one;2-Methyl-5-chloro-3-isothiazolone;Kathon CG 5243;5-Chloro-2-methyl-4-isothiazolin-3-one;2-Methyl-5-chloroisothiazolin-3-one;5-Chloro-2-methylisothiazolin-3-one;5-Chloro-2-methyl-2<em>H</em>-isothiazol-3-one;5-Chloro-<em>N</em>-methylisothiazolone;<em>N</em>-Methyl-5-chloroisothiazolone;Methylchloroisothiazolinone;Kathon IXE;HS 818;HS 818 (antiseptic);A 33;A 33 (bactericide);Bioace;T 360;CIT;CMIT;5-Chloro-2-methyl-3(2<em>H</em>)-isothiazolinone;5-Chloro-2-methyl-2<em>H</em>-isothiazolin-3-one;5-Chloro-2-methyl-4-isothiazoline-3-ketone;XL 2;XL 2 (bactericide);Acticide C 1;Kathon CJ 1;Acticide MV 1",
    "duplicated_cas_no": "137662-59-0;137086-87-4",
    "SMILES": "O=C1N(C)SC(Cl)=C1",
    "meta_data": {
        "InChI": "InChI=1S/C4H4ClNOS/c1-6-4(7)2-3(5)8-6/h2H,1H3",
        "InChIKey": null,
        "Canonical SMILES": "O=C1C=C(Cl)SN1C",
        "Molecular Formula": "C<sub>4</sub>H<sub>4</sub>ClNOS",
        "Molecular Mass": "149.60",
        "Melting Point": "52 °C"
    }
}