{
    "cas_no": "462-23-7",
    "key_name": "4-Fluorobutanoic acid",
    "cn_name": "4-氟丁酸;",
    "alternate_name": "Butanoic acid, 4-fluoro-;Butyric acid, 4-fluoro-;4-Fluorobutanoic acid;4-Fluorobutyric acid",
    "duplicated_cas_no": "",
    "SMILES": "C(C(O)=O)CCF",
    "meta_data": {
        "InChI": "InChI=1S/C4H7FO2/c5-3-1-2-4(6)7/h1-3H2,(H,6,7)",
        "InChIKey": null,
        "Canonical SMILES": "O=C(O)CCCF",
        "Molecular Formula": "C<sub>4</sub>H<sub>7</sub>FO<sub>2</sub>",
        "Molecular Mass": "106.10",
        "Boiling Point": "60.0-62.0 °C @ Press: 2 Torr"
    }
}