{
    "cas_no": "96-35-5",
    "key_name": "Methyl glycolate",
    "cn_name": "羟乙酸甲酯;羟基乙酸甲酯;乙醇酸甲酯;",
    "alternate_name": "Acetic acid, 2-hydroxy-, methyl ester;Glycolic acid, methyl ester;Acetic acid, hydroxy-, methyl ester;Methyl glycolate;Methyl hydroxyacetate;Methyl 2-hydroxyacetate;Methyl 2-hydroxyethanoate;Hydroxyacetic acid methyl ester;NSC 27786",
    "duplicated_cas_no": "",
    "SMILES": "C(CO)(OC)=O",
    "meta_data": {
        "InChI": "InChI=1S/C3H6O3/c1-6-3(5)2-4/h4H,2H2,1H3",
        "InChIKey": null,
        "Canonical SMILES": "O=C(OC)CO",
        "Molecular Formula": "C<sub>3</sub>H<sub>6</sub>O<sub>3</sub>",
        "Molecular Mass": "90.08",
        "Boiling Point": "63 °C @ Press: 21 Torr",
        "Melting Point": "148 °C",
        "Density": "1.4251 g/cm³ @ Temp: 20 °C"
    }
}