{
    "cas_no": "42438-90-4",
    "key_name": "Lycoperodine-1",
    "cn_name": "(S)-2,3,4,9-四氢-1H-吡啶[3,4-b]吲哚-3-羧酸;",
    "alternate_name": "1<em>H</em>-Pyrido[3,4-<em>b</em>]indole-3-carboxylic acid, 2,3,4,9-tetrahydro-, (3<em>S</em>)-;1<em>H</em>-Pyrido[3,4-<em>b</em>]indole-3-carboxylic acid, 2,3,4,9-tetrahydro-, (<em>S</em>)-;(3<em>S</em>)-2,3,4,9-Tetrahydro-1<em>H</em>-pyrido[3,4-<em>b</em>]indole-3-carboxylic acid;(-)-(3<em>S</em>)-1,2,3,4-Tetrahydro-β-carboline-3-carboxylic acid;<span class=\"text-smallcaps\">L</span>-3-Carboxy-1,2,3,4-tetrahydro-β-carboline;<span class=\"text-smallcaps\">L</span>-1,2,3,4-Tetrahydro-3-carboxy-2-carboline;(<em>S</em>)-1,2,3,4-Tetrahydro-3-carboxy-2-carboline;(<em>S</em>)-(-)-2,3,4,9-Tetrahydro-1<em>H</em>-pyrido[3,4-<em>b</em>]indole-3-carboxylic acid;Lycoperodine-1;(<em>S</em>)-2,3,4,9-Tetrahydro-β-carboline-3-carboxylic acid;TNCA;(3S)-1<em>H</em>,2<em>H</em>,3<em>H</em>,4<em>H</em>,9<em>H</em>-Pyrido[3,4-<em>b</em>]indole-3-carboxylic acid;(3S)-2,3,4,9-Tetrahydro-1<em>H</em>-pyrido[3,4-<em>b</em>]indole-3-carboxylic acid;(3S)-1,2,3,4-Tetrahydro-β-carboline-3-carboxylic acid",
    "duplicated_cas_no": "",
    "SMILES": "C(O)(=O)[C@@H]1CC=2C=3C(NC2CN1)=CC=CC3",
    "meta_data": {
        "InChI": "InChI=1S/C12H12N2O2/c15-12(16)10-5-8-7-3-1-2-4-9(7)14-11(8)6-13-10/h1-4,10,13-14H,5-6H2,(H,15,16)/t10-/m0/s1",
        "InChIKey": null,
        "Canonical SMILES": "O=C(O)C1NCC=2NC=3C=CC=CC3C2C1",
        "Molecular Formula": "C<sub>12</sub>H<sub>12</sub>N<sub>2</sub>O<sub>2</sub>",
        "Molecular Mass": "216.24",
        "Melting Point": "280-282 °C"
    }
}