{
    "cas_no": "103-32-2",
    "key_name": "Benzylaniline",
    "cn_name": "N-苄基苯胺;",
    "alternate_name": "Benzenemethanamine, <em>N</em>-phenyl-;Benzylamine, <em>N</em>-phenyl-;<em>N</em>-Phenylbenzenemethanamine;<em>N</em>-Benzylaniline;Benzylphenylamine;Benzenamine, <em>N</em>-(phenylmethyl)-;Benzylaniline;Phenylbenzylamine;<em>N</em>-Phenylbenzylamine;<em>N</em>-Benzylbenzenamine;<em>N</em>-Benzyl-<em>N</em>-phenylamine;<em>N</em>-Phenyl-<em>N</em>-benzylamine;<em>N</em>-Benzylphenylamine;NSC 147284",
    "duplicated_cas_no": "",
    "SMILES": "C(NC1=CC=CC=C1)C2=CC=CC=C2",
    "meta_data": {
        "InChI": "InChI=1S/C13H13N/c1-3-7-12(8-4-1)11-14-13-9-5-2-6-10-13/h1-10,14H,11H2",
        "InChIKey": null,
        "Canonical SMILES": "C=1C=CC(=CC1)NCC=2C=CC=CC2",
        "Molecular Formula": "C<sub>13</sub>H<sub>13</sub>N",
        "Molecular Mass": "183.25",
        "Boiling Point": "306.5 °C",
        "Melting Point": "37.5 °C",
        "Density": "1.0298 g/cm³ @ Temp: 65 °C"
    }
}