{
    "cas_no": "1013-88-3",
    "key_name": "Benzophenone imine",
    "cn_name": "二苯甲酮亚胺;",
    "alternate_name": "Benzenemethanimine, α-phenyl-;Methylenimine, 1,1-diphenyl-;α-Phenylbenzenemethanimine;Benzhydrylidenimine;Diphenylketimine;Diphenylmethanimine;Benzophenone imine;1,1-Diphenylmethylenimine;Benzhydrylimine;Benzophenonimine;Iminodiphenylmethane;1,1-Diphenylmethanimine",
    "duplicated_cas_no": "",
    "SMILES": "C(=N)(C1=CC=CC=C1)C2=CC=CC=C2",
    "meta_data": {
        "InChI": "InChI=1S/C13H11N/c14-13(11-7-3-1-4-8-11)12-9-5-2-6-10-12/h1-10,14H",
        "InChIKey": null,
        "Canonical SMILES": "N=C(C=1C=CC=CC1)C=2C=CC=CC2",
        "Molecular Formula": "C<sub>13</sub>H<sub>11</sub>N",
        "Molecular Mass": "181.23",
        "Boiling Point": "282 °C",
        "Density": "1.0939 g/cm³ @ Temp: 20 °C"
    }
}