{
    "cas_no": "10090-05-8",
    "key_name": "Trimethylsilyl methanesulfonate",
    "cn_name": "三甲基硅基甲磺酸酯;三甲基硅烷基甲磺酸盐;",
    "alternate_name": "Silanol, 1,1,1-trimethyl-, 1-methanesulfonate;Silanol, trimethyl-, methanesulfonate;Trimethylsilyl methanesulfonate;Trimethylsilyl mesylate;Trimethylsilyl methylsulfonate;Methanesulfonic acid trimethylsilyl ester",
    "duplicated_cas_no": "",
    "SMILES": "O(S(C)(=O)=O)[Si](C)(C)C",
    "meta_data": {
        "InChI": "InChI=1S/C4H12O3SSi/c1-8(5,6)7-9(2,3)4/h1-4H3",
        "InChIKey": null,
        "Canonical SMILES": "O=S(=O)(O[Si](C)(C)C)C",
        "Molecular Formula": "C<sub>4</sub>H<sub>12</sub>O<sub>3</sub>SSi",
        "Molecular Mass": "168.29",
        "Boiling Point": "103-104 °C @ Press: 25 Torr",
        "Density": "0.826 g/cm³"
    }
}