{
    "cas_no": "2196-99-8",
    "key_name": "2-Chloro-1-(4-methoxyphenyl)ethanone",
    "cn_name": "2-氯-4-甲氧基苯乙酮;alpha-氯代对甲氧基苯乙酮;",
    "alternate_name": "Ethanone, 2-chloro-1-(4-methoxyphenyl)-;Acetophenone, 2-chloro-4′-methoxy-;2-Chloro-1-(4-methoxyphenyl)ethanone;4-Methoxyphenacyl chloride;4′-Methoxy-2-chloroacetophenone;<em>p</em>-Methoxyphenacyl chloride;2-Chloro-4′-methoxyacetophenone;α-Chloro-4-methoxyacetophenone;2-Chloro-1-(4′-methoxyphenyl)ethanone;Chloromethyl 4-methoxyphenyl ketone;NSC 41670;α-Chloro-4′-methoxyacetophenone;α-Chloro-<em>p</em>-methoxyacetophenone;2-Chloro-1-(4-methoxyphenyl)ethan-1-one",
    "duplicated_cas_no": "",
    "SMILES": "C(CCl)(=O)C1=CC=C(OC)C=C1",
    "meta_data": {
        "InChI": "InChI=1S/C9H9ClO2/c1-12-8-4-2-7(3-5-8)9(11)6-10/h2-5H,6H2,1H3",
        "InChIKey": null,
        "Canonical SMILES": "O=C(C1=CC=C(OC)C=C1)CCl",
        "Molecular Formula": "C<sub>9</sub>H<sub>9</sub>ClO<sub>2</sub>",
        "Molecular Mass": "184.62",
        "Melting Point": "97-98 °C"
    }
}