{
    "cas_no": "7073-94-1",
    "key_name": "1-Bromo-2-(1-methylethyl)benzene",
    "cn_name": "1-溴-2-异丙基苯;邻溴异丙苯;",
    "alternate_name": "Benzene, 1-bromo-2-(1-methylethyl)-;Cumene, <em>o</em>-bromo-;1-Bromo-2-(1-methylethyl)benzene;1-Bromo-2-isopropylbenzene;2-Isopropylbromobenzene;<em>o</em>-Bromocumene;<em>o</em>-Isopropylphenyl bromide;2-Bromoisopropylbenzene;<em>o</em>-Isopropylbromobenzene;<em>o</em>-Bromoisopropylbenzene;2-Isopropylphenyl bromide;2-Bromocumene;2-Isopropyl-1-bromobenzene;1-Bromo-2-propan-2-ylbenzene;1-Bromo-2-(propan-2-yl)benzene",
    "duplicated_cas_no": "",
    "SMILES": "C(C)(C)C1=C(Br)C=CC=C1",
    "meta_data": {
        "InChI": "InChI=1S/C9H11Br/c1-7(2)8-5-3-4-6-9(8)10/h3-7H,1-2H3",
        "InChIKey": null,
        "Canonical SMILES": "BrC=1C=CC=CC1C(C)C",
        "Molecular Formula": "C<sub>9</sub>H<sub>11</sub>Br",
        "Molecular Mass": "199.09",
        "Boiling Point": "90 °C @ Press: 15 Torr",
        "Melting Point": "-58.90 °C",
        "Density": "1.3035 g/cm³ @ Temp: 20 °C"
    }
}