{
    "cas_no": "108-52-1",
    "key_name": "2-Amino-4-methylpyrimidine",
    "cn_name": null,
    "alternate_name": "2-Pyrimidinamine, 4-methyl-;Pyrimidine, 2-amino-4-methyl-;4-Methyl-2-pyrimidinamine;2-Amino-4-methylpyrimidine;6-Methyl-2-pyrimidinamine;4-Methyl-2-aminopyrimidine;2-Amino-6-methylpyrimidine;NSC 1939",
    "duplicated_cas_no": "",
    "SMILES": "CC1=NC(N)=NC=C1",
    "meta_data": {
        "InChI": "InChI=1S/C5H7N3/c1-4-2-3-7-5(6)8-4/h2-3H,1H3,(H2,6,7,8)",
        "InChIKey": null,
        "Canonical SMILES": "N=1C=CC(=NC1N)C",
        "Molecular Formula": "C<sub>5</sub>H<sub>7</sub>N<sub>3</sub>",
        "Molecular Mass": "109.13",
        "Melting Point": "160.3 °C"
    }
}