{
    "cas_no": "15149-10-7",
    "key_name": "2-(4-Methylphenoxy)ethanol",
    "cn_name": "2-(4-甲基苯氧基)乙醇;",
    "alternate_name": "Ethanol, 2-(4-methylphenoxy)-;Ethanol, 2-(<em>p</em>-tolyloxy)-;2-(4-Methylphenoxy)ethanol;2-(<em>p</em>-Tolyloxy)ethanol;β-Hydroxyethyl <em>p</em>-methylphenyl ether;Ethylene glycol mono-<em>p</em>-tolyl ether;β-(<em>p</em>-Cresyloxy)ethanol;Ethylene glycol mono-<em>p</em>-cresol ether;1-(2-Hydroxyethoxy)-4-methylbenzene;<em>p</em>-(2-Hydroxyethoxy)toluene;β-(<em>p</em>-Tolyloxy)ethanol;Ethylene glycol mono(4-methylphenyl) ether;NSC 68802;2-(<em>p</em>-Tolyloxy)ethan-1-ol;2-(4-Methylphenoxy)ethan-1-ol",
    "duplicated_cas_no": "",
    "SMILES": "O(CCO)C1=CC=C(C)C=C1",
    "meta_data": {
        "InChI": "InChI=1S/C9H12O2/c1-8-2-4-9(5-3-8)11-7-6-10/h2-5,10H,6-7H2,1H3",
        "InChIKey": null,
        "Canonical SMILES": "OCCOC1=CC=C(C=C1)C",
        "Molecular Formula": "C<sub>9</sub>H<sub>12</sub>O<sub>2</sub>",
        "Molecular Mass": "152.19",
        "Boiling Point": "142 °C @ Press: 22 Torr",
        "Melting Point": "44-45 °C"
    }
}