{
    "cas_no": "14649-03-7",
    "key_name": "(-)-α-Methylbenzyl isocyanate",
    "cn_name": "(S)-(-)-1-苯乙基异氰酸酯;",
    "alternate_name": "Benzene, [(1<em>S</em>)-1-isocyanatoethyl]-;Isocyanic acid, α-methylbenzyl ester, (-)-;Benzene, (1-isocyanatoethyl)-, (<em>S</em>)-;[(1<em>S</em>)-1-Isocyanatoethyl]benzene;(-)-α-Phenylethyl isocyanate;(-)-1-Phenylethyl isocyanate;(-)-1-Phenethyl isocyanate;(-)-(<em>S</em>)-α-Phenethyl isocyanate;(-)-α-Methylbenzyl isocyanate;<em>S</em>-(-)-α-Phenylethyl isocyanate;(<em>S</em>)-(-)-α-Methylbenzyl isocyanate;(-)-(<em>S</em>)-α-Methylbenzyl isocyanate;(<em>S</em>)-α-Methylbenzyl isocyanate;(<em>S</em>)-1-Phenylethyl isocyanate;(<em>S</em>)-1-Phenethyl isocyanate;(-)-(<em>S</em>)-α-Phenylethyl isocyanate;(<em>S</em>)-1-Phenyl-1-isocyanatoethane;[(<em>S</em>)-1-Isocyanatoethyl]benzene;(<em>S</em>)-(-)-Alpha-methylbenzyl isocyanate;[(1S)-1-Isocyanatoethyl]benzene",
    "duplicated_cas_no": "",
    "SMILES": "[C@H](N=C=O)(C)C1=CC=CC=C1",
    "meta_data": {
        "InChI": "InChI=1S/C9H9NO/c1-8(10-7-11)9-5-3-2-4-6-9/h2-6,8H,1H3/t8-/m0/s1",
        "InChIKey": null,
        "Canonical SMILES": "O=C=NC(C=1C=CC=CC1)C",
        "Molecular Formula": "C<sub>9</sub>H<sub>9</sub>NO",
        "Molecular Mass": "147.17",
        "Boiling Point": "42 °C @ Press: 0.1 Torr",
        "Melting Point": "65 °C"
    }
}