{
    "cas_no": "357-08-4",
    "key_name": "Naloxone hydrochloride",
    "cn_name": "盐酸纳洛酮;17-烯丙基-4,5a-环氧基-3,14-二羟基吗啡喃-6-酮盐酸盐;",
    "alternate_name": "Morphinan-6-one, 4,5-epoxy-3,14-dihydroxy-17-(2-propen-1-yl)-, hydrochloride (1:1), (5α)-;Morphinan-6-one, 17-allyl-4,5α-epoxy-3,14-dihydroxy-, hydrochloride;Morphinan-6-one, 4,5-epoxy-3,14-dihydroxy-17-(2-propenyl)-, hydrochloride, (5α)-;Normorphinone, <em>N</em>-allyl-7,8-dihydro-14-hydroxy-, hydrochloride;EN 1530;(-)-<em>N</em>-Allyl-14-hydroxynordihydromorphinone hydrochloride;Naloxone hydrochloride;(-)-Naloxone hydrochloride;Narcan;<em>l</em>-Naloxone hydrochloride;Nalonee;<em>N</em>-Allyldihydro-14-hydroxynormorphinone hydrochloride;NIH 7890;EN 15304;Narcanti;Nalone;Narcoxone",
    "duplicated_cas_no": "",
    "SMILES": "O[C@]12[C@@]34C=5C(O[C@]3(C(=O)CC1)[H])=C(O)C=CC5C[C@]2(N(CC=C)CC4)[H].Cl",
    "meta_data": {
        "InChI": "InChI=1S/C19H21NO4.ClH/c1-2-8-20-9-7-18-15-11-3-4-12(21)16(15)24-17(18)13(22)5-6-19(18,23)14(20)10-11;/h2-4,14,17,21,23H,1,5-10H2;1H/t14-,17+,18+,19-;/m1./s1",
        "InChIKey": null,
        "Canonical SMILES": "Cl.O=C1CCC2(O)C3N(CC=C)CCC42C5=C(OC14)C(O)=CC=C5C3",
        "Molecular Formula": "C<sub>19</sub>H<sub>21</sub>NO<sub>4</sub>.ClH",
        "Molecular Mass": "",
        "Melting Point": "200-205 °C"
    }
}