{
    "cas_no": "99-32-1",
    "key_name": "Chelidonic acid",
    "cn_name": "白屈菜酸;4-吡喃酮-2,6-二羧酸;",
    "alternate_name": "4<em>H</em>-Pyran-2,6-dicarboxylic acid, 4-oxo-;Chelidonic acid;4-Oxo-4<em>H</em>-pyran-2,6-dicarboxylic acid;Jerva acid;Jervaic acid;Jervasic acid;4-Oxo-1,4-pyran-2,6-dicarboxylic acid;γ-Pyrone-2,6-dicarboxylic acid;2,6-Dicarboxy-4-pyrone;4-Pyranone-2,6-dicarboxylic acid;NSC 3979",
    "duplicated_cas_no": "",
    "SMILES": "C(O)(=O)C=1OC(C(O)=O)=CC(=O)C1",
    "meta_data": {
        "InChI": "InChI=1S/C7H4O6/c8-3-1-4(6(9)10)13-5(2-3)7(11)12/h1-2H,(H,9,10)(H,11,12)",
        "InChIKey": null,
        "Canonical SMILES": "O=C(O)C=1OC(=CC(=O)C1)C(=O)O",
        "Molecular Formula": "C<sub>7</sub>H<sub>4</sub>O<sub>6</sub>",
        "Molecular Mass": "184.10",
        "Melting Point": "262 °C",
        "Density": "1.571 g/cm³"
    }
}