{
    "cas_no": "621-59-0",
    "key_name": "Isovanillin",
    "cn_name": "3-羟基-4-甲氧基苯甲醛;异香草醛;",
    "alternate_name": "Benzaldehyde, 3-hydroxy-4-methoxy-;<em>p</em>-Anisaldehyde, 3-hydroxy-;Isovanillin;3-Hydroxy-4-methoxybenzaldehyde;5-Formylguaiacol;3-Hydroxy-<em>p</em>-anisaldehyde;Isovanillic aldehyde;4-Methoxy-3-hydroxybenzaldehyde;3-Hydroxy-4-anisaldehyde;5-Formyl-2-methoxyphenol;2-Methoxy-5-formylphenol;NSC 82996",
    "duplicated_cas_no": "",
    "SMILES": "C(=O)C1=CC(O)=C(OC)C=C1",
    "meta_data": {
        "InChI": "InChI=1S/C8H8O3/c1-11-8-3-2-6(5-9)4-7(8)10/h2-5,10H,1H3",
        "InChIKey": null,
        "Canonical SMILES": "O=CC1=CC=C(OC)C(O)=C1",
        "Molecular Formula": "C<sub>8</sub>H<sub>8</sub>O<sub>3</sub>",
        "Molecular Mass": "152.15",
        "Boiling Point": "179 °C",
        "Melting Point": "114 °C",
        "Density": "1.4 g/cm³"
    }
}