{
    "cas_no": "19660-16-3",
    "key_name": "2,3-Dibromopropyl acrylate",
    "cn_name": "2，3-二溴丙基丙烯;",
    "alternate_name": "2-Propenoic acid, 2,3-dibromopropyl ester;Acrylic acid, 2,3-dibromopropyl ester;1-Propanol, 2,3-dibromo-, acrylate;2,3-Dibromopropyl acrylate;2,3-Dibromopropyl prop-2-enoate",
    "duplicated_cas_no": "",
    "SMILES": "C(COC(C=C)=O)(CBr)Br",
    "meta_data": {
        "InChI": "InChI=1S/C6H8Br2O2/c1-2-6(9)10-4-5(8)3-7/h2,5H,1,3-4H2",
        "InChIKey": null,
        "Canonical SMILES": "O=C(OCC(Br)CBr)C=C",
        "Molecular Formula": "C<sub>6</sub>H<sub>8</sub>Br<sub>2</sub>O<sub>2</sub>",
        "Molecular Mass": "271.93",
        "Boiling Point": "105 °C @ Press: 6 Torr",
        "Density": "1.7803 g/cm³ @ Temp: 20 °C"
    }
}