{
    "cas_no": "7205-91-6",
    "key_name": "[(Chloromethyl)thio]benzene",
    "cn_name": "氯甲基苯硫醚;",
    "alternate_name": "Benzene, [(chloromethyl)thio]-;Sulfide, chloromethyl phenyl;[(Chloromethyl)thio]benzene;Chloromethyl phenyl sulfide;(Chloromethylthio)benzene;(Phenylthio)methyl chloride;Phenyl chloromethyl sulfide;Chloromethyl phenyl thioether;Chloro(phenylthio)methane;α-Chlorothioanisole;NSC 203003",
    "duplicated_cas_no": "",
    "SMILES": "S(CCl)C1=CC=CC=C1",
    "meta_data": {
        "InChI": "InChI=1S/C7H7ClS/c8-6-9-7-4-2-1-3-5-7/h1-5H,6H2",
        "InChIKey": null,
        "Canonical SMILES": "ClCSC=1C=CC=CC1",
        "Molecular Formula": "C<sub>7</sub>H<sub>7</sub>ClS",
        "Molecular Mass": "158.65",
        "Boiling Point": "98 °C @ Press: 12 Torr"
    }
}