{
    "cas_no": "113-59-7",
    "key_name": "Chlorprothixene",
    "cn_name": "氯普噻吨;反式-2-氯-9-(3-二甲胺基亚丙基)硫杂蒽;(Z)-N,N-二甲基-3-(2-氯-9H-亚噻吨基)-1-丙胺;",
    "alternate_name": "1-Propanamine, 3-(2-chloro-9<em>H</em>-thioxanthen-9-ylidene)-<em>N</em>,<em>N</em>-dimethyl-, (3<em>Z</em>)-;1-Propanamine, 3-(2-chloro-9<em>H</em>-thioxanthen-9-ylidene)-<em>N</em>,<em>N</em>-dimethyl-, (<em>Z</em>)-;Thioxanthene-Δ<sup>9,γ</sup>-propylamine, 2-chloro-<em>N</em>,<em>N</em>-dimethyl-, (<em>Z</em>)-;9<em>H</em>-Thioxanthene, 1-propanamine deriv.;(3<em>Z</em>)-3-(2-Chloro-9<em>H</em>-thioxanthen-9-ylidene)-<em>N</em>,<em>N</em>-dimethyl-1-propanamine;MK 184;N 714;Ro 4-0403;Chlorprothixene;CPT;CPX;Iaractan;Taractan;Tarasan;Truxal;Chlorprothixen;Chlorprotixene;α-Chlorprothixene;Chlorprotixen;Chlothixen;Traquilan;Trictal;Paxyl;Truxil;Vetacalm;Rentovet;Tactaran;<em>cis</em>-Chlorprothixene;Tardan;Ro 4-04033;Truxaletten;Chorprothixene;Cloxan;MeSH ID: D002749",
    "duplicated_cas_no": "18862-39-0",
    "SMILES": "C(\\CCN(C)C)=C/1\\C=2C(SC=3C1=CC=CC3)=CC=C(Cl)C2",
    "meta_data": {
        "InChI": "InChI=1S/C18H18ClNS/c1-20(2)11-5-7-14-15-6-3-4-8-17(15)21-18-10-9-13(19)12-16(14)18/h3-4,6-10,12H,5,11H2,1-2H3/b14-7-",
        "InChIKey": null,
        "Canonical SMILES": "ClC1=CC=C2SC=3C=CC=CC3C(=CCCN(C)C)C2=C1",
        "Molecular Formula": "C<sub>18</sub>H<sub>18</sub>ClNS",
        "Molecular Mass": "315.86",
        "Boiling Point": "160 °C @ Press: 0.04 Torr",
        "Melting Point": "97-98 °C"
    }
}