{
    "cas_no": "64125-60-6",
    "key_name": "Longistylin C",
    "cn_name": null,
    "alternate_name": "Phenol, 3-methoxy-4-(3-methyl-2-buten-1-yl)-5-[(1<em>E</em>)-2-phenylethenyl]-;Phenol, 3-methoxy-4-(3-methyl-2-butenyl)-5-(2-phenylethenyl)-, (<em>E</em>)-;Phenol, 3-methoxy-4-(3-methyl-2-butenyl)-5-[(1<em>E</em>)-2-phenylethenyl]-;3-Methoxy-4-(3-methyl-2-buten-1-yl)-5-[(1<em>E</em>)-2-phenylethenyl]phenol;Longistylin C;Longistyline C",
    "duplicated_cas_no": "",
    "SMILES": "C(C=C(C)C)C1=C(/C=C/C2=CC=CC=C2)C=C(O)C=C1OC",
    "meta_data": {
        "InChI": "InChI=1S/C20H22O2/c1-15(2)9-12-19-17(13-18(21)14-20(19)22-3)11-10-16-7-5-4-6-8-16/h4-11,13-14,21H,12H2,1-3H3/b11-10+",
        "InChIKey": null,
        "Canonical SMILES": "OC=1C=C(OC)C(=C(C=CC=2C=CC=CC2)C1)CC=C(C)C",
        "Molecular Formula": "C<sub>20</sub>H<sub>22</sub>O<sub>2</sub>",
        "Molecular Mass": "294.39",
        "Melting Point": "88-91 °C"
    }
}