{
    "cas_no": "348-51-6",
    "key_name": "1-Chloro-2-fluorobenzene",
    "cn_name": "2-氯氟苯;1-氯-2-氟苯;",
    "alternate_name": "Benzene, 1-chloro-2-fluoro-;1-Chloro-2-fluorobenzene;<em>o</em>-Chlorofluorobenzene;1-Fluoro-2-chlorobenzene;<em>o</em>-Fluorochlorobenzene;2-Chlorofluorobenzene;<em>o</em>-Monofluoromonochlorobenzene;2-Fluoro-1-chlorobenzene;NSC 10270;2-Fluorophenyl chloride",
    "duplicated_cas_no": "",
    "SMILES": "ClC1=C(F)C=CC=C1",
    "meta_data": {
        "InChI": "InChI=1S/C6H4ClF/c7-5-3-1-2-4-6(5)8/h1-4H",
        "InChIKey": null,
        "Canonical SMILES": "FC=1C=CC=CC1Cl",
        "Molecular Formula": "C<sub>6</sub>H<sub>4</sub>ClF",
        "Molecular Mass": "130.55",
        "Boiling Point": "137.6 °C",
        "Melting Point": "-43 °C",
        "Density": "1.2346 g/cm³ @ Temp: 25.00 °C"
    }
}