{
    "cas_no": "111061-56-4",
    "key_name": "<em>N</em>-[(9<em>H</em>-Fluoren-9-ylmethoxy)carbonyl]-<em>O</em>-(triphenylmethyl)-<span class=\"text-smallcaps\">L</span>-serine",
    "cn_name": "Fmoc-O-三苯甲基-L-丝氨酸;N-(9-芴甲氧羰酰基)-O-三苯甲基-L-丝氨酸;",
    "alternate_name": "<span class=\"text-smallcaps\">L</span>-Serine, <em>N</em>-[(9<em>H</em>-fluoren-9-ylmethoxy)carbonyl]-<em>O</em>-(triphenylmethyl)-;<em>N</em>-[(9<em>H</em>-Fluoren-9-ylmethoxy)carbonyl]-<em>O</em>-(triphenylmethyl)-<span class=\"text-smallcaps\">L</span>-serine",
    "duplicated_cas_no": "",
    "SMILES": "C(OC[C@H](NC(OCC1C=2C(C=3C1=CC=CC3)=CC=CC2)=O)C(O)=O)(C4=CC=CC=C4)(C5=CC=CC=C5)C6=CC=CC=C6",
    "meta_data": {
        "InChI": "InChI=1S/C37H31NO5/c39-35(40)34(38-36(41)42-24-33-31-22-12-10-20-29(31)30-21-11-13-23-32(30)33)25-43-37(26-14-4-1-5-15-26,27-16-6-2-7-17-27)28-18-8-3-9-19-28/h1-23,33-34H,24-25H2,(H,38,41)(H,39,40)/t34-/m0/s1",
        "InChIKey": null,
        "Canonical SMILES": "O=C(OCC1C=2C=CC=CC2C=3C=CC=CC31)NC(C(=O)O)COC(C=4C=CC=CC4)(C=5C=CC=CC5)C=6C=CC=CC6",
        "Molecular Formula": "C<sub>37</sub>H<sub>31</sub>NO<sub>5</sub>",
        "Molecular Mass": "569.65",
        "Melting Point": "195-197 °C"
    }
}