{
    "cas_no": "21747-46-6",
    "key_name": "Viridiflorene",
    "cn_name": null,
    "alternate_name": "1<em>H</em>-Cycloprop[<em>e</em>]azulene, 1a,2,3,5,6,7,7a,7b-octahydro-1,1,4,7-tetramethyl-, (1a<em>R</em>,7<em>R</em>,7a<em>S</em>,7b<em>R</em>)-;1<em>H</em>-Cycloprop[<em>e</em>]azulene, 1a,2,3,5,6,7,7a,7b-octahydro-1,1,4,7-tetramethyl-, (+)-;1<em>H</em>-Cycloprop[<em>e</em>]azulene, 1a,2,3,5,6,7,7a,7b-octahydro-1,1,4,7-tetramethyl-, [1a<em>R</em>-(1aα,7α,7aβ,7bα)]-;Ledene;(1a<em>R</em>,7<em>R</em>,7a<em>S</em>,7b<em>R</em>)-1a,2,3,5,6,7,7a,7b-Octahydro-1,1,4,7-tetramethyl-1<em>H</em>-cycloprop[<em>e</em>]azulene;Viridiflorene;Leden;(+)-Ledene;(+)-Viridiflorene",
    "duplicated_cas_no": "40520-60-3",
    "SMILES": "CC1(C)[C@]2([C@]3(C(=C(C)CC[C@]21[H])CC[C@H]3C)[H])[H]",
    "meta_data": {
        "InChI": "InChI=1S/C15H24/c1-9-6-8-12-14(15(12,3)4)13-10(2)5-7-11(9)13/h10,12-14H,5-8H2,1-4H3/t10-,12-,13-,14-/m1/s1",
        "InChIKey": null,
        "Canonical SMILES": "C1(=C2CCC(C)C2C3C(CC1)C3(C)C)C",
        "Molecular Formula": "C<sub>15</sub>H<sub>24</sub>",
        "Molecular Mass": "204.35",
        "Boiling Point": "116-118 °C",
        "Density": "0.9233 g/cm³ @ Temp: 20 °C"
    }
}