{
    "cas_no": "1974-04-5",
    "key_name": "2-Bromoheptane",
    "cn_name": "2-溴庚烷;",
    "alternate_name": "Heptane, 2-bromo-;2-Bromoheptane;2-Heptyl bromide;(±)-2-Bromoheptane;NSC 11768;Heptan-2-yl bromide",
    "duplicated_cas_no": "63789-83-3",
    "SMILES": "C(CCCC)C(Br)C",
    "meta_data": {
        "InChI": "InChI=1S/C7H15Br/c1-3-4-5-6-7(2)8/h7H,3-6H2,1-2H3",
        "InChIKey": null,
        "Canonical SMILES": "BrC(C)CCCCC",
        "Molecular Formula": "C<sub>7</sub>H<sub>15</sub>Br",
        "Molecular Mass": "179.10",
        "Boiling Point": "166 °C",
        "Melting Point": "47 °C",
        "Density": "1.1277 g/cm³ @ Temp: 20 °C"
    }
}