{
    "cas_no": "2736-23-4",
    "key_name": "5-(Aminosulfonyl)-2,4-dichlorobenzoic acid",
    "cn_name": "2,4-二氯-5-磺酰胺基苯甲酸;",
    "alternate_name": "Benzoic acid, 5-(aminosulfonyl)-2,4-dichloro-;Benzoic acid, 2,4-dichloro-5-sulfamoyl-;5-(Aminosulfonyl)-2,4-dichlorobenzoic acid;2,4-Dichloro-5-sulfamoylbenzoic acid;3-Sulfamoyl-4,6-dichlorobenzoic acid;5-Carboxy-2,4-dichlorobenzenesulfonamide;5-Aminosulfonyl-2,4-dichlorobenzoic acid",
    "duplicated_cas_no": "",
    "SMILES": "S(N)(=O)(=O)C1=CC(C(O)=O)=C(Cl)C=C1Cl",
    "meta_data": {
        "InChI": "InChI=1S/C7H5Cl2NO4S/c8-4-2-5(9)6(15(10,13)14)1-3(4)7(11)12/h1-2H,(H,11,12)(H2,10,13,14)",
        "InChIKey": null,
        "Canonical SMILES": "O=C(O)C=1C=C(C(Cl)=CC1Cl)S(=O)(=O)N",
        "Molecular Formula": "C<sub>7</sub>H<sub>5</sub>Cl<sub>2</sub>NO<sub>4</sub>S",
        "Molecular Mass": "270.09",
        "Melting Point": "233-235 °C"
    }
}