{
    "cas_no": "2461-15-6",
    "key_name": "2-Ethylhexyl glycidyl ether",
    "cn_name": "辛基缩水甘油醚;异辛基缩水甘油醚;",
    "alternate_name": "Oxirane, 2-[[(2-ethylhexyl)oxy]methyl]-;Propane, 1,2-epoxy-3-[(2-ethylhexyl)oxy]-;Oxirane, [[(2-ethylhexyl)oxy]methyl]-;2-[[(2-Ethylhexyl)oxy]methyl]oxirane;2-Ethylhexyl glycidyl ether;Glycidyl 2-ethylhexyl ether;[[(2-Ethylhexyl)oxy]methyl]oxirane;Heloxy MK 116;Denacol EX 12;1-(2-Ethylhexyloxy)-2,3-epoxypropane;Epodil 746;Heloxy 116;Epiol EH;Denacol EX 121;Adeka Glycilol ED 518;ED 518;Grilonit 1807-41;NSC 252154;Adeka Glycilol ED 518S;Laproxid 301;JX 014;Epodil 747;2-(2-Ethylhexyloxymethyl)oxirane;Laproxid 301G;Epogosey 2EH;DY-A;Erisys GE 6;EX 121;ED 518S;Epiol EH-N;GE 6;RD 17;2-Ethyl hexyleneglycidyl ether;Sensiva ST 50JP;DER 728;YED 188;2-(2-Ethylhexoxymethyl)oxirane;Xinyuan 746;Ipox RD 17;Catana Epox 2015",
    "duplicated_cas_no": "98913-53-2;102640-36-8;145928-91-2;388080-79-3;845755-34-2;898543-72-1",
    "SMILES": "C(OCC(CCCC)CC)C1CO1",
    "meta_data": {
        "InChI": "InChI=1S/C11H22O2/c1-3-5-6-10(4-2)7-12-8-11-9-13-11/h10-11H,3-9H2,1-2H3",
        "InChIKey": null,
        "Canonical SMILES": "O(CC1OC1)CC(CC)CCCC",
        "Molecular Formula": "C<sub>11</sub>H<sub>22</sub>O<sub>2</sub>",
        "Molecular Mass": "186.29",
        "Boiling Point": "89.5-90.5 °C @ Press: 2 Torr",
        "Density": "0.8862 g/cm³ @ Temp: 30 °C"
    }
}