{
    "cas_no": "86604-78-6",
    "key_name": "4-Methoxy-3,5-dimethyl-2-pyridinemethanol",
    "cn_name": "4-甲氧基-3,5-二甲基-2-羟甲基吡啶;",
    "alternate_name": "2-Pyridinemethanol, 4-methoxy-3,5-dimethyl-;4-Methoxy-3,5-dimethyl-2-pyridinemethanol;2-Hydroxymethyl-4-methoxy-3,5-dimethylpyridine;2-(Hydroxymethyl)-3,5-dimethyl-4-methoxypyridine;(4-Methoxy-3,5-dimethylpyridin-2-yl)methanol;4-Methoxy-3,5-dimethyl-2-(hydroxymethyl)pyridine",
    "duplicated_cas_no": "",
    "SMILES": "O(C)C=1C(C)=C(CO)N=CC1C",
    "meta_data": {
        "InChI": "InChI=1S/C9H13NO2/c1-6-4-10-8(5-11)7(2)9(6)12-3/h4,11H,5H2,1-3H3",
        "InChIKey": null,
        "Canonical SMILES": "OCC1=NC=C(C(OC)=C1C)C",
        "Molecular Formula": "C<sub>9</sub>H<sub>13</sub>NO<sub>2</sub>",
        "Molecular Mass": "167.21",
        "Boiling Point": "115-135 °C @ Press: 0.01 Torr"
    }
}