{
    "cas_no": "555-37-3",
    "key_name": "Neburon",
    "cn_name": "草不隆;N-丁基-N-(3,4-二氯苯酚))-N-甲脲;",
    "alternate_name": "Urea, <em>N</em>-butyl-<em>N</em>′-(3,4-dichlorophenyl)-<em>N</em>-methyl-;Urea, 1-butyl-3-(3,4-dichlorophenyl)-1-methyl-;<em>N</em>-Butyl-<em>N</em>′-(3,4-dichlorophenyl)-<em>N</em>-methylurea;1-<em>n</em>-Butyl-3-(3,4-dichlorophenyl)-1-methylurea;1-Butyl-3-(3,4-dichlorophenyl)-1-methylurea;3-(3,4-Dichlorophenyl)-1-<em>n</em>-butyl-1-methylurea;3-(3,4-Dichlorophenyl)-1-methyl-1-<em>n</em>-butylurea;Kloben;Kloben neburon;Neburon;<em>N</em>-(3,4-Dichlorophenyl)-<em>N</em>′-methyl-<em>N</em>′-butylurea;3-(3,4-Dichlorophenyl)-1-methyl-1-butylurea;Neburea",
    "duplicated_cas_no": "",
    "SMILES": "N(C(N(CCCC)C)=O)C1=CC(Cl)=C(Cl)C=C1",
    "meta_data": {
        "InChI": "InChI=1S/C12H16Cl2N2O/c1-3-4-7-16(2)12(17)15-9-5-6-10(13)11(14)8-9/h5-6,8H,3-4,7H2,1-2H3,(H,15,17)",
        "InChIKey": null,
        "Canonical SMILES": "O=C(NC1=CC=C(Cl)C(Cl)=C1)N(C)CCCC",
        "Molecular Formula": "C<sub>12</sub>H<sub>16</sub>Cl<sub>2</sub>N<sub>2</sub>O",
        "Molecular Mass": "275.17",
        "Melting Point": "102 °C"
    }
}