{
    "cas_no": "68528-80-3",
    "key_name": "Disuccinimidyl suberate",
    "cn_name": "辛二酸二琥珀酰亚胺;辛二酸双(N-羟基琥珀酰亚胺酯);",
    "alternate_name": "Octanedioic acid, 1,8-bis(2,5-dioxo-1-pyrrolidinyl) ester;2,5-Pyrrolidinedione, 1,1′-[(1,8-dioxo-1,8-octanediyl)bis(oxy)]bis-;Disuccinimidyl suberate;Octanedioic acid di-<em>N</em>-hydroxysuccinimide ester;Suberic acid bis(<em>N</em>-hydroxy succinimide ester);NSC 340008",
    "duplicated_cas_no": "116275-17-3",
    "SMILES": "O(C(CCCCCCC(ON1C(=O)CCC1=O)=O)=O)N2C(=O)CCC2=O",
    "meta_data": {
        "InChI": "InChI=1S/C16H20N2O8/c19-11-7-8-12(20)17(11)25-15(23)5-3-1-2-4-6-16(24)26-18-13(21)9-10-14(18)22/h1-10H2",
        "InChIKey": null,
        "Canonical SMILES": "O=C(ON1C(=O)CCC1=O)CCCCCCC(=O)ON2C(=O)CCC2=O",
        "Molecular Formula": "C<sub>16</sub>H<sub>20</sub>N<sub>2</sub>O<sub>8</sub>",
        "Molecular Mass": "368.34",
        "Melting Point": "62-64 °C",
        "Density": "1.295 g/cm³"
    }
}