{
    "cas_no": "578-39-2",
    "key_name": "4-Hydroxy-2-methylbenzoic acid",
    "cn_name": null,
    "alternate_name": "Benzoic acid, 4-hydroxy-2-methyl-;4,2-Cresotic acid;4-Hydroxy-2-methylbenzoic acid;4-Hydroxy-<em>o</em>-toluic acid;2-Methyl-4-hydroxybenzoic acid;NSC 85496",
    "duplicated_cas_no": "",
    "SMILES": "C(O)(=O)C1=C(C)C=C(O)C=C1",
    "meta_data": {
        "InChI": "InChI=1S/C8H8O3/c1-5-4-6(9)2-3-7(5)8(10)11/h2-4,9H,1H3,(H,10,11)",
        "InChIKey": null,
        "Canonical SMILES": "O=C(O)C1=CC=C(O)C=C1C",
        "Molecular Formula": "C<sub>8</sub>H<sub>8</sub>O<sub>3</sub>",
        "Molecular Mass": "152.15",
        "Melting Point": "182 °C"
    }
}