{
    "cas_no": "517-09-9",
    "key_name": "(+)-Equilenin",
    "cn_name": null,
    "alternate_name": "Estra-1,3,5,7,9-pentaen-17-one, 3-hydroxy-;Equilenin;3-Hydroxyestra-1,3,5,7,9-pentaen-17-one;3-Hydroxyestra-1,3,5(10),6,8-pentaen-17-one;Equilenine;<em>d</em>-Equilenin;(+)-Equilenin;NSC 9901;E 400;MeSH ID: D004855",
    "duplicated_cas_no": "",
    "SMILES": "C[C@@]12[C@](C=3C(=C4C(=CC3)C=C(O)C=C4)CC1)(CCC2=O)[H]",
    "meta_data": {
        "InChI": "InChI=1S/C18H18O2/c1-18-9-8-14-13-5-3-12(19)10-11(13)2-4-15(14)16(18)6-7-17(18)20/h2-5,10,16,19H,6-9H2,1H3/t16-,18-/m0/s1",
        "InChIKey": null,
        "Canonical SMILES": "O=C1CCC2C=3C=CC4=CC(O)=CC=C4C3CCC12C",
        "Molecular Formula": "C<sub>18</sub>H<sub>18</sub>O<sub>2</sub>",
        "Molecular Mass": "266.33",
        "Melting Point": "258.5 °C"
    }
}