{
    "cas_no": "1518-16-7",
    "key_name": "Tetracyanoquinodimethane",
    "cn_name": "7,7,8,8-四氰基对苯二醌二甲烷;四氰基对醌二甲烷;",
    "alternate_name": "Propanedinitrile, 2,2′-(2,5-cyclohexadiene-1,4-diylidene)bis-;2,5-Cyclohexadiene-Δ<sup>1,α:4,α′</sup>-dimalononitrile;2,2′-(2,5-Cyclohexadiene-1,4-diylidene)bis[propanedinitrile];(2,5-Cyclohexadiene-1,4-diylidene)dimalononitrile;Quinodimethane, tetracyano-;TCNQ;7,7,8,8-Tetracyanoquinodimethane;Tetracyano-<em>p</em>-quinodimethane;7,7′,8,8′-Tetracyanoquinodimethane;7,7,8,8-Tetracyano-<em>p</em>-quinodimethane;7,7,8,8-Tetracyano-1,4-quinodimethan;NSC 105237;1,4-Bis(dicyanomethylene)cyclohexadiene;Tetracyanoquinodimethane;2,2′-(Cyclohexa-2,5-diene-1,4-diylidene)dimalononitrile;2-[4-(Dicyanomethylidene)cyclohexa-2,5-dien-1-ylidene]propanedinitrile",
    "duplicated_cas_no": "121505-17-7;51584-70-4;51778-95-1;855786-15-1;856294-25-2",
    "SMILES": "C(C#N)(C#N)=C1C=CC(=C(C#N)C#N)C=C1",
    "meta_data": {
        "InChI": "InChI=1S/C12H4N4/c13-5-11(6-14)9-1-2-10(4-3-9)12(7-15)8-16/h1-4H",
        "InChIKey": null,
        "Canonical SMILES": "N#CC(C#N)=C1C=CC(C=C1)=C(C#N)C#N",
        "Molecular Formula": "C<sub>12</sub>H<sub>4</sub>N<sub>4</sub>",
        "Molecular Mass": "204.19",
        "Melting Point": "293.5-296.0 °C",
        "Density": "1.34 g/cm³"
    }
}