{
    "cas_no": "205-43-6",
    "key_name": "Benzo[<em>b</em>]naphtho[1,2-<em>d</em>]thiophene",
    "cn_name": "苯并萘(1,2-D)噻唑;",
    "alternate_name": "Benzo[<em>b</em>]naphtho[1,2-<em>d</em>]thiophene;3,4-Benzo-9-thiafluorene;7-Thia-7<em>H</em>-benzo[<em>c</em>]fluorene;Naphtho[2,1-<em>b</em>]thianaphthene;3,4-Benzodibenzothiophene",
    "duplicated_cas_no": "",
    "SMILES": "C=12C=3C(SC1C=CC=4C2=CC=CC4)=CC=CC3",
    "meta_data": {
        "InChI": "InChI=1S/C16H10S/c1-2-6-12-11(5-1)9-10-15-16(12)13-7-3-4-8-14(13)17-15/h1-10H",
        "InChIKey": null,
        "Canonical SMILES": "S1C=2C=CC=CC2C=3C1=CC=C4C=CC=CC43",
        "Molecular Formula": "C<sub>16</sub>H<sub>10</sub>S",
        "Molecular Mass": "234.32",
        "Boiling Point": "280 °C @ Press: 15 Torr",
        "Melting Point": "102-102.5 °C"
    }
}