{
    "cas_no": "13470-08-1",
    "key_name": "Titanium fluoride (TiF<sub>3</sub>)",
    "cn_name": "三氟化钛;三氟化钛(III);",
    "alternate_name": "Titanium fluoride (TiF<sub>3</sub>);Titanium trifluoride",
    "duplicated_cas_no": "2697188-10-4",
    "SMILES": "[Ti](F)(F)F",
    "meta_data": {
        "InChI": "InChI=1S/3FH.Ti/h3*1H;/q;;;+3/p-3",
        "InChIKey": null,
        "Canonical SMILES": "F[Ti](F)F",
        "Molecular Formula": "F<sub>3</sub>Ti",
        "Molecular Mass": "",
        "Melting Point": "300 °C (decomp)"
    }
}