{
    "cas_no": "29540-81-6",
    "key_name": "1-[(Trifluoromethyl)sulfonyl]-1<em>H</em>-imidazole",
    "cn_name": "1-(三氟甲磺酰基)咪唑;",
    "alternate_name": "1<em>H</em>-Imidazole, 1-[(trifluoromethyl)sulfonyl]-;Imidazole, 1-[(trifluoromethyl)sulfonyl]-;1-[(Trifluoromethyl)sulfonyl]-1<em>H</em>-imidazole;<em>N</em>-Trifluoromethanesulfonylimidazole;NSC 114260;NSC 270680;1-(Trifluoromethanesulfonyl)imidazole;1-Trifluoromethanesulfonyl-1<em>H</em>-imidazole;1-(Trifluoromethylsulfonyl)imidazole",
    "duplicated_cas_no": "",
    "SMILES": "S(C(F)(F)F)(=O)(=O)N1C=CN=C1",
    "meta_data": {
        "InChI": "InChI=1S/C4H3F3N2O2S/c5-4(6,7)12(10,11)9-2-1-8-3-9/h1-3H",
        "InChIKey": null,
        "Canonical SMILES": "O=S(=O)(N1C=NC=C1)C(F)(F)F",
        "Molecular Formula": "C<sub>4</sub>H<sub>3</sub>F<sub>3</sub>N<sub>2</sub>O<sub>2</sub>S",
        "Molecular Mass": "200.14",
        "Melting Point": "19-20 °C"
    }
}