{
    "cas_no": "95-46-5",
    "key_name": "2-Bromotoluene",
    "cn_name": "2-溴甲苯;邻溴甲苯;",
    "alternate_name": "Benzene, 1-bromo-2-methyl-;Toluene, <em>o</em>-bromo-;1-Bromo-2-methylbenzene;<em>o</em>-Bromotoluene;<em>o</em>-Tolyl bromide;2-Bromotoluene;2-Methylbromobenzene;2-Tolyl bromide;<em>o</em>-Methylphenyl bromide;<em>o</em>-Bromomethylbenzene;<em>o</em>-Methylbromobenzene;2-Bromo-1-methylbenzene;2-Methylphenyl bromide;NSC 6532;2-Methyl-1-bromobenzene",
    "duplicated_cas_no": "",
    "SMILES": "BrC1=C(C)C=CC=C1",
    "meta_data": {
        "InChI": "InChI=1S/C7H7Br/c1-6-4-2-3-5-7(6)8/h2-5H,1H3",
        "InChIKey": null,
        "Canonical SMILES": "BrC=1C=CC=CC1C",
        "Molecular Formula": "C<sub>7</sub>H<sub>7</sub>Br",
        "Molecular Mass": "171.03",
        "Boiling Point": "181.7 °C",
        "Melting Point": "-27.8 °C",
        "Density": "1.432 g/cm³ @ Temp: 20 °C"
    }
}