{
    "cas_no": "5292-47-7",
    "key_name": "1,4-Benzenedicarboxylic acid, 2-fluoro-, 1,4-dimethyl ester",
    "cn_name": "二氟-对苯二酸二甲酯;二氟-对苯二酸二甲酯;",
    "alternate_name": "1,4-Benzenedicarboxylic acid, 2-fluoro-, 1,4-dimethyl ester;Terephthalic acid, fluoro-, dimethyl ester;1,4-Benzenedicarboxylic acid, 2-fluoro-, dimethyl ester;Dimethyl 2-fluoroterephthalate;1,4-Dimethyl 2-fluorobenzene-1,4-dicarboxylate",
    "duplicated_cas_no": "",
    "SMILES": "C(OC)(=O)C1=C(F)C=C(C(OC)=O)C=C1",
    "meta_data": {
        "InChI": "InChI=1S/C10H9FO4/c1-14-9(12)6-3-4-7(8(11)5-6)10(13)15-2/h3-5H,1-2H3",
        "InChIKey": null,
        "Canonical SMILES": "O=C(OC)C1=CC=C(C(=O)OC)C(F)=C1",
        "Molecular Formula": "C<sub>10</sub>H<sub>9</sub>FO<sub>4</sub>",
        "Molecular Mass": "212.17",
        "Melting Point": "82-83 °C"
    }
}