{
    "cas_no": "359-37-5",
    "key_name": "Iodotrifluoroethylene",
    "cn_name": "碘三氟乙烯;碘三氟乙烯;碘三氟乙烯, 97%, STAB. WITH COPPER;",
    "alternate_name": "Ethene, 1,1,2-trifluoro-2-iodo-;Ethylene, trifluoroiodo-;Ethene, trifluoroiodo-;1,1,2-Trifluoro-2-iodoethene;Trifluorovinyl iodide;Iodotrifluoroethylene;Perfluorovinyl iodide;Trifluoroiodoethylene;1-Iodo-1,2,2-trifluoroethene;Iodotrifluoroethene;1,2,2-Trifluoro-1-iodoethene;Trifluoroiodoethene;NSC 174158;1-Iodo-1,2,2-trifluoroethylene;1,1,2-Trifluoro-2-iodoethylene",
    "duplicated_cas_no": "",
    "SMILES": "C(=C(F)I)(F)F",
    "meta_data": {
        "InChI": "InChI=1S/C2F3I/c3-1(4)2(5)6",
        "InChIKey": null,
        "Canonical SMILES": "FC(F)=C(F)I",
        "Molecular Formula": "C<sub>2</sub>F<sub>3</sub>I",
        "Molecular Mass": "207.92",
        "Boiling Point": "30 °C",
        "Density": "2.284 g/cm³ @ Temp: 0 °C"
    }
}