{
    "cas_no": "13956-52-0",
    "key_name": "(3<em>S</em>,4<em>S</em>,4a<em>R</em>,6a<em>S</em>,9a<em>R</em>,11<em>S</em>,13a<em>R</em>,13b<em>S</em>,15a<em>S</em>,15b<em>R</em>)-2,3,4,4a,5,6,6a,7,9,9a,10,11,12,13,13a,13b,14,15,15a,15b-Eicosahydro-4-(hydroxymethyl)-4,6a,10,10,13a,15b-hexamethyl-1<em>H</em>-cyclohepta[1,2-<em>a</em>:5,4-<em>a</em>′]dinaphthalene-3,11-diol",
    "cn_name": null,
    "alternate_name": "1<em>H</em>-Cyclohepta[1,2-<em>a</em>:5,4-<em>a</em>′]dinaphthalene-3,11-diol, 2,3,4,4a,5,6,6a,7,9,9a,10,11,12,13,13a,13b,14,15,15a,15b-eicosahydro-4-(hydroxymethyl)-4,6a,10,10,13a,15b-hexamethyl-, (3<em>S</em>,4<em>S</em>,4a<em>R</em>,6a<em>S</em>,9a<em>R</em>,11<em>S</em>,13a<em>R</em>,13b<em>S</em>,15a<em>S</em>,15b<em>R</em>)-;<em>C</em>(<em>14a</em>)-Homo-27-norgammacer-14-ene-3β,21α,24-triol;Serratriol;<em>C</em>(<em>14a</em>)-Homo-27-norgammacer-14-ene-3,21,23-triol, (3β,4β,21α)-;(3<em>S</em>,4<em>S</em>,4a<em>R</em>,6a<em>S</em>,9a<em>R</em>,11<em>S</em>,13a<em>R</em>,13b<em>S</em>,15a<em>S</em>,15b<em>R</em>)-2,3,4,4a,5,6,6a,7,9,9a,10,11,12,13,13a,13b,14,15,15a,15b-Eicosahydro-4-(hydroxymethyl)-4,6a,10,10,13a,15b-hexamethyl-1<em>H</em>-cyclohepta[1,2-<em>a</em>:5,4-<em>a</em>′]dinaphthalene-3,11-diol;Serrat-14-en-3β,21α,24-triol",
    "duplicated_cas_no": "11009-93-1",
    "SMILES": "C[C@@]12[C@@]3([C@](C)(CC=4[C@](CC3)([C@]5(C)[C@@](CC4)(C(C)(C)[C@@H](O)CC5)[H])[H])CC[C@]1([C@](CO)(C)[C@@H](O)CC2)[H])[H]",
    "meta_data": {
        "InChI": "InChI=1S/C30H50O3/c1-26(2)21-9-7-19-17-27(3)14-11-23-29(5,16-13-25(33)30(23,6)18-31)22(27)10-8-20(19)28(21,4)15-12-24(26)32/h7,20-25,31-33H,8-18H2,1-6H3/t20-,21-,22-,23+,24-,25-,27-,28+,29+,30+/m0/s1",
        "InChIKey": null,
        "Canonical SMILES": "OCC1(C)C(O)CCC2(C)C3CCC4C(=CCC5C(C)(C)C(O)CCC45C)CC3(C)CCC12",
        "Molecular Formula": "C<sub>30</sub>H<sub>50</sub>O<sub>3</sub>",
        "Molecular Mass": "458.72",
        "Melting Point": "335-336 °C"
    }
}