{
    "cas_no": "59-26-7",
    "key_name": "<em>N</em>,<em>N</em>-Diethylnicotinamide",
    "cn_name": "尼可刹米;可拉明;烟酰乙胺;二乙烟酰胺;妥卡尼;对氟苯乙醚;",
    "alternate_name": "3-Pyridinecarboxamide, <em>N</em>,<em>N</em>-diethyl-;Nicotinamide, <em>N</em>,<em>N</em>-diethyl-;<em>N</em>,<em>N</em>-Diethyl-3-pyridinecarboxamide;Anacardone;Anacordone;Astrocar;Carbamidal;Cardamine;Cardiamid;Cardiamine;Cardimon;Coracon;Cordiamin;Cordiamine;Corediol;Cormed;Cormid;Cornotone;Corvitol;Corvotone;<em>N</em>,<em>N</em>-Diethylnicotinamide;Dynacoryl;Eucoran;Niamine;Nicamide;Nicetamide;Nicethamide;Nicorine;Nicotinic acid diethylamide;Nikardin;Nikethamide;Niketharol;Nikorin;Pyricardyl;Pyridine-3-carboxydiethylamide;Pyridine-3-carboxylic acid diethylamide;Reformin;Rehormin;Salvacard;Solyacord;Stimulin;Ventramine;Diethylnicotinamide;Ni-Cor;Niketamide;Cardiamide;Coramine (pharmaceutical);Kordiamin;Cormotyl;Sancora;Percoral;Corvin;Canfodiamina;Nikethyl;Niketamine;Coramine;Niquetamide;3-(<em>N</em>,<em>N</em>-Diethylcarbamoyl)pyridine;Ecoran;Coractiv N;NSC 130820;NSC 169863;NSC 62103;MeSH ID: D009552",
    "duplicated_cas_no": "",
    "SMILES": "C(N(CC)CC)(=O)C=1C=CC=NC1",
    "meta_data": {
        "InChI": "InChI=1S/C10H14N2O/c1-3-12(4-2)10(13)9-6-5-7-11-8-9/h5-8H,3-4H2,1-2H3",
        "InChIKey": null,
        "Canonical SMILES": "O=C(C=1C=NC=CC1)N(CC)CC",
        "Molecular Formula": "C<sub>10</sub>H<sub>14</sub>N<sub>2</sub>O",
        "Molecular Mass": "178.23",
        "Boiling Point": "298 °C",
        "Melting Point": "25 °C"
    }
}