{
    "cas_no": "1717-50-6",
    "key_name": "2,2,4,4-Tetrafluoro-1,3-dithietane",
    "cn_name": "四氟-1,3-二硫五氮杂环e;四氟-1,3-二硫五氮杂环;",
    "alternate_name": "1,3-Dithietane, 2,2,4,4-tetrafluoro-;1,3-Dithietane, tetrafluoro-;2,2,4,4-Tetrafluoro-1,3-dithietane;Tetrafluoro-1,3-dithietane;NSC 339329",
    "duplicated_cas_no": "",
    "SMILES": "FC1(F)SC(F)(F)S1",
    "meta_data": {
        "InChI": "InChI=1S/C2F4S2/c3-1(4)7-2(5,6)8-1",
        "InChIKey": null,
        "Canonical SMILES": "FC1(F)SC(F)(F)S1",
        "Molecular Formula": "C<sub>2</sub>F<sub>4</sub>S<sub>2</sub>",
        "Molecular Mass": "164.15",
        "Boiling Point": "47-48 °C",
        "Melting Point": "-6 °C",
        "Density": "1.6036 g/cm³ @ Temp: 20 °C"
    }
}