{
    "cas_no": "70359-46-5",
    "key_name": "Brimonidine tartrate",
    "cn_name": "酒石酸溴莫尼定;溴莫尼定酒石酸盐;5-溴-6-(咪唑啉-2-基)氨基喹喔啉酒石酸盐;",
    "alternate_name": "6-Quinoxalinamine, 5-bromo-<em>N</em>-(4,5-dihydro-1<em>H</em>-imidazol-2-yl)-, (2<em>R</em>,3<em>R</em>)-2,3-dihydroxybutanedioate (1:1);6-Quinoxalinamine, 5-bromo-<em>N</em>-(4,5-dihydro-1<em>H</em>-imidazol-2-yl)-, [<em>R</em>-(<em>R</em>*,<em>R</em>*)]-2,3-dihydroxybutanedioate (1:1);Brimonidine tartrate;AGN 190342LF;Brominide tartrate;Alphagan;Alphagan P;Brimonidine Purite;Mirvaso;(5-Bromo-quinoxalin-6-yl)-(4,5-dihydro-1<em>H</em>-imidazol-2-yl)-amine L-tartrate;Lumify",
    "duplicated_cas_no": "109826-56-4;79570-19-7",
    "SMILES": "BrC=1C2=C(C=CC1NC=3NCCN3)N=CC=N2.[C@@H]([C@H](C(O)=O)O)(C(O)=O)O",
    "meta_data": {
        "InChI": "InChI=1S/C11H10BrN5.C4H6O6/c12-9-7(17-11-15-5-6-16-11)1-2-8-10(9)14-4-3-13-8;5-1(3(7)8)2(6)4(9)10/h1-4H,5-6H2,(H2,15,16,17);1-2,5-6H,(H,7,8)(H,9,10)/t;1-,2-/m.1/s1",
        "InChIKey": null,
        "Canonical SMILES": "O=C(O)C(O)C(O)C(=O)O.BrC1=C2N=CC=NC2=CC=C1NC3=NCCN3",
        "Molecular Formula": "C<sub>11</sub>H<sub>10</sub>BrN<sub>5</sub>.C<sub>4</sub>H<sub>6</sub>O<sub>6</sub>",
        "Molecular Mass": "",
        "Melting Point": "207.5 °C"
    }
}