{
    "cas_no": "1631-82-9",
    "key_name": "(Chloromethylsilyl)benzene",
    "cn_name": "甲基苯基氯硅烷;",
    "alternate_name": "Benzene, (chloromethylsilyl)-;Silane, chloromethylphenyl-;(Chloromethylsilyl)benzene;Methylphenylchlorosilane;Chloromethylphenylsilane;Phenylmethylchlorosilane;Chloro(phenyl)methylsilane;Methylphenylsilyl chloride",
    "duplicated_cas_no": "",
    "SMILES": "[SiH](C)(Cl)C1=CC=CC=C1",
    "meta_data": {
        "InChI": "InChI=1S/C7H9ClSi/c1-9(8)7-5-3-2-4-6-7/h2-6,9H,1H3",
        "InChIKey": null,
        "Canonical SMILES": "Cl[SiH](C=1C=CC=CC1)C",
        "Molecular Formula": "C<sub>7</sub>H<sub>9</sub>ClSi",
        "Molecular Mass": "156.68",
        "Boiling Point": "176-177 °C",
        "Density": "1.054 g/cm³"
    }
}