{
    "cas_no": "54419-93-1",
    "key_name": "<span class=\"text-smallcaps\">L</smallcap>-Glutaminyl-<smallcap>L</span>-glutamine",
    "cn_name": "H-GLN-GLN-OH;",
    "alternate_name": "<span class=\"text-smallcaps\">L</smallcap>-Glutamine, <smallcap>L</span>-glutaminyl-;<span class=\"text-smallcaps\">L</smallcap>-Glutamine, <em>N</em><sup>2</sup>-<smallcap>L</span>-glutaminyl-;Glutamine, <em>N</em><sup>2</sup>-glutaminyl-;<span class=\"text-smallcaps\">L</smallcap>-Glutaminyl-<smallcap>L</span>-glutamine;34: PN: WO2005094423 PAGE: 42 claimed protein;62: PN: US20070191366 TABLE: 5 claimed protein;43: PN: EP2301956 PAGE: 31 claimed sequence;109: PN: WO2011146121 PAGE: 115 claimed sequence;4: PN: WO2014102104 SEQID: 103 claimed protein;4: PN: WO2014102101 SEQID: 304 claimed protein;44: PN: WO2014102103 TABLE: 1 claimed protein;23: PN: WO2014102100 TABLE: 1 claimed protein;5: PN: WO2023160499 SEQID: 5 claimed sequence",
    "duplicated_cas_no": "",
    "SMILES": "[C@H](NC([C@H](CCC(N)=O)N)=O)(CCC(N)=O)C(O)=O",
    "meta_data": {
        "InChI": "InChI=1S/C10H18N4O5/c11-5(1-3-7(12)15)9(17)14-6(10(18)19)2-4-8(13)16/h5-6H,1-4,11H2,(H2,12,15)(H2,13,16)(H,14,17)(H,18,19)/t5-,6-/m0/s1",
        "InChIKey": null,
        "Canonical SMILES": "O=C(N)CCC(N)C(=O)NC(C(=O)O)CCC(=O)N",
        "Molecular Formula": "C<sub>10</sub>H<sub>18</sub>N<sub>4</sub>O<sub>5</sub>",
        "Molecular Mass": "274.27",
        "Melting Point": "209 °C (decomp)"
    }
}