{
    "cas_no": "57486-68-7",
    "key_name": "Methyl 2-chlorobenzeneacetate",
    "cn_name": "2-氯苯乙酸甲酯;",
    "alternate_name": "Benzeneacetic acid, 2-chloro-, methyl ester;Methyl 2-chlorobenzeneacetate;Methyl (<em>o</em>-chlorophenyl)acetate;Methyl (2-chlorophenyl)acetate;2-Chlorobenzeneacetic acid methyl ester;(2-Chlorophenyl)acetic acid methyl ester",
    "duplicated_cas_no": "",
    "SMILES": "C(C(OC)=O)C1=C(Cl)C=CC=C1",
    "meta_data": {
        "InChI": "InChI=1S/C9H9ClO2/c1-12-9(11)6-7-4-2-3-5-8(7)10/h2-5H,6H2,1H3",
        "InChIKey": null,
        "Canonical SMILES": "O=C(OC)CC=1C=CC=CC1Cl",
        "Molecular Formula": "C<sub>9</sub>H<sub>9</sub>ClO<sub>2</sub>",
        "Molecular Mass": "184.62",
        "Boiling Point": "77-78 °C @ Press: 1.8 Torr"
    }
}