{
    "cas_no": "17640-15-2",
    "key_name": "Methyl cyanoformate",
    "cn_name": "氰基甲酸甲酯;",
    "alternate_name": "Carbonocyanidic acid, methyl ester;Formic acid, cyano-, methyl ester;Methyl cyanoformate;Methyl carbonocyanidate;Mander's reagent;Cyanoformic acid methyl ester;[(Cyanocarbonyl)oxy]methane;2-Methoxy-2-oxoacetonitrile",
    "duplicated_cas_no": "",
    "SMILES": "C(C#N)(OC)=O",
    "meta_data": {
        "InChI": "InChI=1S/C3H3NO2/c1-6-3(5)2-4/h1H3",
        "InChIKey": null,
        "Canonical SMILES": "N#CC(=O)OC",
        "Molecular Formula": "C<sub>3</sub>H<sub>3</sub>NO<sub>2</sub>",
        "Molecular Mass": "85.06",
        "Boiling Point": "96-97 °C",
        "Density": "1.0719 g/cm³ @ Temp: 20 °C"
    }
}