{
    "cas_no": "4526-77-6",
    "key_name": "Cyclo(alanylglycine)",
    "cn_name": null,
    "alternate_name": "2,5-Piperazinedione, 3-methyl-, (3<em>S</em>)-;2,5-Piperazinedione, 3-methyl-, (<em>S</em>)-;2,5-Piperazinedione, 3-methyl-, <span class=\"text-smallcaps\">L</span>-;Cyclo(<span class=\"text-smallcaps\">L</span>-alanylglycyl);(3<em>S</em>)-3-Methyl-2,5-piperazinedione;Alanine, cyclic anhydride with glycine;<em>N</em>-Glycylalanine, cyclic anhydride;Cyclo(Gly-Ala);Cyclo(glycylalanine);Cyclo(alanylglycine);Cyclo(Gly-<span class=\"text-smallcaps\">L</span>-Ala);Cyclo(Ala-Gly);(3S)-3-Methylpiperazine-2,5-dione;2,5-Piperazinedione 3-methyl-, (3S)-",
    "duplicated_cas_no": "",
    "SMILES": "C[C@H]1C(=O)NCC(=O)N1",
    "meta_data": {
        "InChI": "InChI=1S/C5H8N2O2/c1-3-5(9)6-2-4(8)7-3/h3H,2H2,1H3,(H,6,9)(H,7,8)/t3-/m0/s1",
        "InChIKey": null,
        "Canonical SMILES": "O=C1NC(C(=O)NC1)C",
        "Molecular Formula": "C<sub>5</sub>H<sub>8</sub>N<sub>2</sub>O<sub>2</sub>",
        "Molecular Mass": "128.13",
        "Melting Point": "305 °C (decomp)"
    }
}