{
    "cas_no": "1466-48-4",
    "key_name": "Tris(2-cyanoethyl)nitromethane",
    "cn_name": "四(2-氰乙基)硝基甲烷;",
    "alternate_name": "Heptanedinitrile, 4-(2-cyanoethyl)-4-nitro-;4-(2-Cyanoethyl)-4-nitroheptanedinitrile;Tris(2-cyanoethyl)nitromethane;NSC 680512;4-(2-Cyanoethyl)-4-nitro-1,7-heptanedinitrile",
    "duplicated_cas_no": "",
    "SMILES": "C(CCC#N)(CCC#N)(CCC#N)N(=O)=O",
    "meta_data": {
        "InChI": "InChI=1S/C10H12N4O2/c11-7-1-4-10(14(15)16,5-2-8-12)6-3-9-13/h1-6H2",
        "InChIKey": null,
        "Canonical SMILES": "N#CCCC(N(=O)=O)(CCC#N)CCC#N",
        "Molecular Formula": "C<sub>10</sub>H<sub>12</sub>N<sub>4</sub>O<sub>2</sub>",
        "Molecular Mass": "220.23",
        "Melting Point": "114 °C"
    }
}