{
    "cas_no": "1027-28-7",
    "key_name": "<em>N</em>-Acetyl-3,5-diiodo-<span class=\"text-smallcaps\">L</span>-tyrosine",
    "cn_name": "2-(乙酰氨基)-3-(4-羟基-3,5-二碘苯基)丙酸;N-乙酰基-3,5-二碘酷氨酸;",
    "alternate_name": "<span class=\"text-smallcaps\">L</span>-Tyrosine, <em>N</em>-acetyl-3,5-diiodo-;Tyrosine, <em>N</em>-acetyl-3,5-diiodo-, <span class=\"text-smallcaps\">L</span>-;<em>N</em>-Acetyl-3,5-diiodo-<span class=\"text-smallcaps\">L</span>-tyrosine;3,5-Diiodo-<em>N</em>-acetyl-<span class=\"text-smallcaps\">L</span>-tyrosine;NSC 76100;<em>N</em>-Acetyl-3,5-diiodotyrosine;(2S)-2-Acetamido-3-(4-hydroxy-3,5-diiodophenyl)propanoic acid",
    "duplicated_cas_no": "76733-10-3",
    "SMILES": "C([C@H](NC(C)=O)C(O)=O)C1=CC(I)=C(O)C(I)=C1",
    "meta_data": {
        "InChI": "InChI=1S/C11H11I2NO4/c1-5(15)14-9(11(17)18)4-6-2-7(12)10(16)8(13)3-6/h2-3,9,16H,4H2,1H3,(H,14,15)(H,17,18)/t9-/m0/s1",
        "InChIKey": null,
        "Canonical SMILES": "O=C(O)C(NC(=O)C)CC1=CC(I)=C(O)C(I)=C1",
        "Molecular Formula": "C<sub>11</sub>H<sub>11</sub>I<sub>2</sub>NO<sub>4</sub>",
        "Molecular Mass": "475.02",
        "Melting Point": "198-200 °C"
    }
}