{
    "cas_no": "1467-70-5",
    "key_name": "α-Oxo-2-furanacetic acid",
    "cn_name": "A-氧-2-呋喃乙酸;A-氧-2-呋喃乙酸;",
    "alternate_name": "2-Furanacetic acid, α-oxo-;2-Furanglyoxylic acid;α-Oxo-2-furanacetic acid;2-Furylglyoxylic acid;Furoylformic acid;2-Oxo-2-(2-furanyl)acetic acid;2-(2-Furyl)-2-oxoacetic acid;NSC 59069;2-Furanyl(oxo)acetic acid;2-(Furan-2-yl)-2-oxoacetic acid",
    "duplicated_cas_no": "164066-48-2",
    "SMILES": "C(C(O)=O)(=O)C1=CC=CO1",
    "meta_data": {
        "InChI": "InChI=1S/C6H4O4/c7-5(6(8)9)4-2-1-3-10-4/h1-3H,(H,8,9)",
        "InChIKey": null,
        "Canonical SMILES": "O=C(O)C(=O)C=1OC=CC1",
        "Molecular Formula": "C<sub>6</sub>H<sub>4</sub>O<sub>4</sub>",
        "Molecular Mass": "140.09",
        "Melting Point": "94-95 °C"
    }
}