{
    "cas_no": "90076-65-6",
    "key_name": "Lithium bis(trifluoromethanesulfonyl)imide",
    "cn_name": null,
    "alternate_name": "Methanesulfonamide, 1,1,1-trifluoro-<em>N</em>-[(trifluoromethyl)sulfonyl]-, lithium salt (1:1);Methanesulfonamide, 1,1,1-trifluoro-<em>N</em>-[(trifluoromethyl)sulfonyl]-, lithium salt;Lithium bis(trifluoromethylsulfonyl)imide;Lithium bis(trifluoromethanesulfonyl)imide;Lithium bis(trifluoromethylsulfonyl)amide;Fluorad HQ 115;Lithium triflimide;Bis[(trifluoromethyl)sulfonyl]imide lithium salt;HQ 115;LiTFSI;Lithium bistriflamide;1,1,1-Trifluoro-<em>N</em>-[(trifluoromethyl)sulfonyl]methanesulfonamide lithium salt;Lithiotrifluoromethanesulfonimide;Lithium bis(trifluoromethane)sulfonimide;Lithium bis(perfluoromethylsulfonyl)imide;Lithium bis(trifluoromethane sulfone)imide;Fluorinert HQ 115;Fluorinert HQ 115J;<em>N</em>,<em>N</em>-Bis[(trifluoromethyl)sulfonyl]amine lithium salt;MEK 50R;Lithium bis(trifluoromethanesulfonyl)amide;Bis(trifluoromethane)sulfonimide lithium salt;Sankonol EAc 20R;LJ 603010;Lithium bis(trifluromethanesulfonyl)imide;Lithium bis(trifluoromethylsulfonyl)imidate;Lithium bis(trifluoromethanesulfonyl)imide(1-);Lithium bis(trifluoromethyl)sulfonylamine;Lithium bis(trifluoromethylsulfonyl)imidate(1-);EF-N 115;Sankonol MEK 50R;Lithium triflamide;LiNTf<sub>2</sub>;Lithium bis(trifluoromethane)sulfonimidate;Eftop EF-N 115;Methanesulfonic acid, 1,1,1-trifluoro-, 1,1′-azanylidene ester, lithium salt (1:1);Carbon lithium dithionate floride nitride (C<sub>2</sub>Li(S<sub>2</sub>O<sub>4</sub>)F<sub>6</sub>N)",
    "duplicated_cas_no": "149330-06-3;157306-34-8;230309-67-8;327155-75-9;716377-02-5;732284-91-2;848585-66-0;858642-85-0;876273-90-4;900160-17-0;1000693-70-8;1086269-49-9;1122573-46-9;1184304-91-3;1290058-32-0;1357997-90-0;1445874-17-8;1465133-90-7;1613165-06-2;1620207-60-4;1644364-49-7;1772606-15-1;1937276-37-3;2043073-41-0;2088060-53-9;2088571-19-9;2095311-25-2;2095698-07-8;2099044-97-8;2101914-80-9;2143908-44-3;2221058-91-7;2226338-84-5;2242726-01-6;2243227-82-7;2452229-63-7;2588540-91-2;2600796-04-9;2640832-88-6;2757214-20-1;2762493-35-4;2830558-20-6;2851530-47-5;2983817-31-6",
    "SMILES": "S(NS(C(F)(F)F)(=O)=O)(C(F)(F)F)(=O)=O.[Li]",
    "meta_data": {
        "InChI": "InChI=1S/C2HF6NO4S2.Li/c3-1(4,5)14(10,11)9-15(12,13)2(6,7)8;/h9H;",
        "InChIKey": null,
        "Canonical SMILES": "[Li].O=S(=O)(NS(=O)(=O)C(F)(F)F)C(F)(F)F",
        "Molecular Formula": "C<sub>2</sub>HF<sub>6</sub>NO<sub>4</sub>S<sub>2</sub>.Li",
        "Molecular Mass": "",
        "Melting Point": "238.00 °C",
        "Density": "2.27 g/cm³"
    }
}