{
    "cas_no": "149104-90-5",
    "key_name": "4-Acetylphenylboronic acid",
    "cn_name": "4-乙酰基苯硼酸;",
    "alternate_name": "Boronic acid, <em>B</em>-(4-acetylphenyl)-;Boronic acid, (4-acetylphenyl)-;<em>B</em>-(4-Acetylphenyl)boronic acid;4-Acetylphenylboronic acid;4-Acetylbenzeneboronic acid;<em>p</em>-Acetylphenylboronic acid",
    "duplicated_cas_no": "",
    "SMILES": "B(O)(O)C1=CC=C(C(C)=O)C=C1",
    "meta_data": {
        "InChI": "InChI=1S/C8H9BO3/c1-6(10)7-2-4-8(5-3-7)9(11)12/h2-5,11-12H,1H3",
        "InChIKey": null,
        "Canonical SMILES": "O=C(C1=CC=C(C=C1)B(O)O)C",
        "Molecular Formula": "C<sub>8</sub>H<sub>9</sub>BO<sub>3</sub>",
        "Molecular Mass": "163.97",
        "Melting Point": "231-233 °C"
    }
}