{
    "cas_no": "1477-49-2",
    "key_name": "Indole-3-glyoxylic acid",
    "cn_name": "3-吲哚乙醛酸;",
    "alternate_name": "1<em>H</em>-Indole-3-acetic acid, α-oxo-;Indole-3-glyoxylic acid;α-Oxo-1<em>H</em>-indole-3-acetic acid;3-Indolylglyoxylic acid;β-Indolylglyoxylic acid;Indole-3-glyoxalic acid;NSC 71954;1<em>H</em>-Indol-3-yl-2-oxoacetic acid;2-(1<em>H</em>-Indol-3-yl)-2-oxoacetic acid;1<em>H</em>-Indol-3-yl(oxo)acetic acid",
    "duplicated_cas_no": "",
    "SMILES": "C(C(O)=O)(=O)C=1C=2C(NC1)=CC=CC2",
    "meta_data": {
        "InChI": "InChI=1S/C10H7NO3/c12-9(10(13)14)7-5-11-8-4-2-1-3-6(7)8/h1-5,11H,(H,13,14)",
        "InChIKey": null,
        "Canonical SMILES": "O=C(O)C(=O)C1=CNC=2C=CC=CC21",
        "Molecular Formula": "C<sub>10</sub>H<sub>7</sub>NO<sub>3</sub>",
        "Molecular Mass": "189.17",
        "Melting Point": "210 °C (decomp)"
    }
}