{
    "cas_no": "629-40-3",
    "key_name": "Octanedinitrile",
    "cn_name": "1,6-二氰基己烷;1,8-辛二腈;",
    "alternate_name": "Octanedinitrile;Suberonitrile;1,6-Dicyanohexane;Suberic acid dinitrile;D 7800-8;NSC 51242;Hexamethylene dicyanide",
    "duplicated_cas_no": "",
    "SMILES": "C(CCCC#N)CCC#N",
    "meta_data": {
        "InChI": "InChI=1S/C8H12N2/c9-7-5-3-1-2-4-6-8-10/h1-6H2",
        "InChIKey": null,
        "Canonical SMILES": "N#CCCCCCCC#N",
        "Molecular Formula": "C<sub>8</sub>H<sub>12</sub>N<sub>2</sub>",
        "Molecular Mass": "136.19",
        "Boiling Point": "185 °C",
        "Melting Point": "-3.5 °C",
        "Density": "0.940 g/cm³ @ Temp: 22 °C"
    }
}