{
    "cas_no": "83554-69-2",
    "key_name": "(2<em>E</em>)-<em>N</em>,6,6-Trimethyl-2-hepten-4-yn-1-amine",
    "cn_name": "1-氯-6,6-二甲基-2-庚烯-4-炔;6,6-二甲基-2-烯-4-炔氯代庚烷;",
    "alternate_name": "2-Hepten-4-yn-1-amine, <em>N</em>,6,6-trimethyl-, (2<em>E</em>)-;2-Hepten-4-yn-1-amine, <em>N</em>,6,6-trimethyl-, (<em>E</em>)-;(2<em>E</em>)-<em>N</em>,6,6-Trimethyl-2-hepten-4-yn-1-amine",
    "duplicated_cas_no": "",
    "SMILES": "C(#C/C=C/CNC)C(C)(C)C",
    "meta_data": {
        "InChI": "InChI=1S/C10H17N/c1-10(2,3)8-6-5-7-9-11-4/h5,7,11H,9H2,1-4H3/b7-5+",
        "InChIKey": null,
        "Canonical SMILES": "C(#CC(C)(C)C)C=CCNC",
        "Molecular Formula": "C<sub>10</sub>H<sub>17</sub>N",
        "Molecular Mass": "151.25",
        "Melting Point": "163-166 °C"
    }
}