{
    "cas_no": "13698-49-2",
    "key_name": "Delmadinone acetate",
    "cn_name": null,
    "alternate_name": "Pregna-1,4,6-triene-3,20-dione, 17-(acetyloxy)-6-chloro-;Pregna-1,4,6-triene-3,20-dione, 6-chloro-17-hydroxy-, acetate;17-(Acetyloxy)-6-chloropregna-1,4,6-triene-3,20-dione;Δ<sup>1</sup>-Chlormadinone acetate;17α-Acetoxy-6-chloropregna-1,4,6-triene-3,20-dione;17-Acetoxy-6-chloropregna-1,4,6-triene-3,20-dione;Delmadinone acetate;6-Chloro-17-hydroxypregna-1,4,6-triene-3,20-dione acetate;Estrex;Tardastrex;Delminal;Tarden;RS 1301;Zenadrex",
    "duplicated_cas_no": "28379-12-6",
    "SMILES": "O(C(C)=O)[C@@]1(C(C)=O)[C@]2(C)[C@@](CC1)([C@]3([C@](CC2)([C@]4(C)C(C(Cl)=C3)=CC(=O)C=C4)[H])[H])[H]",
    "meta_data": {
        "InChI": "InChI=1S/C23H27ClO4/c1-13(25)23(28-14(2)26)10-7-18-16-12-20(24)19-11-15(27)5-8-21(19,3)17(16)6-9-22(18,23)4/h5,8,11-12,16-18H,6-7,9-10H2,1-4H3/t16-,17+,18+,21-,22+,23+/m1/s1",
        "InChIKey": null,
        "Canonical SMILES": "O=C1C=CC2(C(=C1)C(Cl)=CC3C2CCC4(C)C3CCC4(OC(=O)C)C(=O)C)C",
        "Molecular Formula": "C<sub>23</sub>H<sub>27</sub>ClO<sub>4</sub>",
        "Molecular Mass": "402.91",
        "Melting Point": "168 °C"
    }
}