{
    "cas_no": "21312-10-7",
    "key_name": "Acetylsulfamethoxazole",
    "cn_name": null,
    "alternate_name": "Acetamide, <em>N</em>-[4-[[(5-methyl-3-isoxazolyl)amino]sulfonyl]phenyl]-;Acetanilide, 4′-[(5-methyl-3-isoxazolyl)sulfamoyl]-;<em>N</em>-[4-[[(5-Methyl-3-isoxazolyl)amino]sulfonyl]phenyl]acetamide;<em>N</em><sup>4</sup>-Acetylsulfisomezole;Sulfisomezole-<em>N</em><sup>4</sup>-acetate;<em>N</em><sup>4</sup>-Acetylsulfamethoxazole;4′-Acetyl-3-sulfa-5-methylisoxazole;Acetylsulfamethoxazole;N<sub>4</sub>-Acetylsulfamethoxazole;STX 606;<em>N</em>-Acetylsulfamethoxazole",
    "duplicated_cas_no": "",
    "SMILES": "N(S(=O)(=O)C1=CC=C(NC(C)=O)C=C1)C2=NOC(C)=C2",
    "meta_data": {
        "InChI": "InChI=1S/C12H13N3O4S/c1-8-7-12(14-19-8)15-20(17,18)11-5-3-10(4-6-11)13-9(2)16/h3-7H,1-2H3,(H,13,16)(H,14,15)",
        "InChIKey": null,
        "Canonical SMILES": "O=C(NC1=CC=C(C=C1)S(=O)(=O)NC2=NOC(=C2)C)C",
        "Molecular Formula": "C<sub>12</sub>H<sub>13</sub>N<sub>3</sub>O<sub>4</sub>S",
        "Molecular Mass": "295.31",
        "Melting Point": "220-221 °C"
    }
}