{
    "cas_no": "18483-17-5",
    "key_name": "1,3,6-Tri-<em>O</em>-galloyl-β-<span class=\"text-smallcaps\">D</span>-glucose",
    "cn_name": null,
    "alternate_name": "β-<span class=\"text-smallcaps\">D</span>-Glucopyranose, 1,3,6-tris(3,4,5-trihydroxybenzoate);Glucopyranose, 1,3,6-trigallate, β-<span class=\"text-smallcaps\">D</span>-;1,3,6-Tri-<em>O</em>-galloyl-β-<span class=\"text-smallcaps\">D</span>-glucose;β-<span class=\"text-smallcaps\">D</span>-Glucopyranose 1,3,6-trigallate;1,3,6-Tri-<em>O</em>-galloyl-β-<span class=\"text-smallcaps\">D</span>-glucopyranose;NSC 69861;1,3,6-Tri-<em>O</em>-galloyl-β-glucospyranose;NP 005114;1,3,6-Tri-<em>O</em>-galloylglucose;NP-005114",
    "duplicated_cas_no": "",
    "SMILES": "O(C(=O)C1=CC(O)=C(O)C(O)=C1)[C@@H]2[C@@H](O)[C@H](OC(=O)C3=CC(O)=C(O)C(O)=C3)O[C@H](COC(=O)C4=CC(O)=C(O)C(O)=C4)[C@H]2O",
    "meta_data": {
        "InChI": "InChI=1S/C27H24O18/c28-11-1-8(2-12(29)18(11)34)24(39)42-7-17-21(37)23(44-25(40)9-3-13(30)19(35)14(31)4-9)22(38)27(43-17)45-26(41)10-5-15(32)20(36)16(33)6-10/h1-6,17,21-23,27-38H,7H2/t17-,21-,22-,23+,27+/m1/s1",
        "InChIKey": null,
        "Canonical SMILES": "O=C(OCC1OC(OC(=O)C2=CC(O)=C(O)C(O)=C2)C(O)C(OC(=O)C3=CC(O)=C(O)C(O)=C3)C1O)C4=CC(O)=C(O)C(O)=C4",
        "Molecular Formula": "C<sub>27</sub>H<sub>24</sub>O<sub>18</sub>",
        "Molecular Mass": "636.47",
        "Melting Point": "227 °C"
    }
}