{
    "cas_no": "22254-24-6",
    "key_name": "Ipratropium bromide",
    "cn_name": "异丙托溴铵;[(1R,5S)-8-甲基-8-异丙基-8-氮杂双环[3.2.1]辛-3-基]3-羟基-2-苯基丙酸酯溴化物;",
    "alternate_name": "8-Azoniabicyclo[3.2.1]octane, 3-(3-hydroxy-1-oxo-2-phenylpropoxy)-8-methyl-8-(1-methylethyl)-, bromide (1:1), (3-<em>endo</em>,8-<em>syn</em>)-;1α<span class=\"text-smallcaps\">H</smallcap>,5α<smallcap>H</span>-Tropanium, 3α-hydroxy-8-isopropyl-, bromide, (±)-tropate;8-Azoniabicyclo[3.2.1]octane, 3-(3-hydroxy-1-oxo-2-phenylpropoxy)-8-methyl-8-(1-methylethyl)-, bromide, (<em>endo</em>,<em>syn</em>)-(±)-;8-Isopropylatropinium bromide;8-Azoniabicyclo[3.2.1]octane, 3-(3-hydroxy-1-oxo-2-phenylpropoxy)-8-methyl-8-(1-methylethyl)-, bromide, (3-<em>endo</em>,8-<em>syn</em>)-;Sch 1000;Atrovent;Ipratropium bromide;<em>N</em>-Isopropylatropinium bromide;8-Azoniabicyclo[3.2.1]octane, 3-(3-hydroxy-1-oxo-2-phenylpropoxy)-8-methyl-8-(1-methylethyl)-, bromide, (<em>endo</em>,<em>syn</em>)-;Sch 100;<em>N</em>-Isopropylnoratropinium bromomethylate;Atrovent forte;Aerovent;Ipraxa",
    "duplicated_cas_no": "58073-57-7;197647-05-5",
    "SMILES": "C(C)(C)[N@@+]1(C)[C@]2(C[C@H](OC(C(CO)C3=CC=CC=C3)=O)C[C@@]1(CC2)[H])[H].[Br-]",
    "meta_data": {
        "InChI": "InChI=1/C20H30NO3.BrH/c1-14(2)21(3)16-9-10-17(21)12-18(11-16)24-20(23)19(13-22)15-7-5-4-6-8-15;/h4-8,14,16-19,22H,9-13H2,1-3H3;1H/q+1;/p-1/t16-,17+,18+,19?,21+;",
        "InChIKey": null,
        "Canonical SMILES": "[Br-].O=C(OC1CC2CCC(C1)[N+]2(C)C(C)C)C(C=3C=CC=CC3)CO",
        "Molecular Formula": "C<sub>20</sub>H<sub>30</sub>NO<sub>3</sub>.Br",
        "Molecular Mass": "",
        "Melting Point": "231 °C",
        "Density": "0.9993 g/cm³"
    }
}