{
    "cas_no": "24242-20-4",
    "key_name": "5-Aminopicolinic acid",
    "cn_name": "5-氨基-2-吡啶羧酸;5-氨基-2-吡啶甲酸;",
    "alternate_name": "2-Pyridinecarboxylic acid, 5-amino-;Picolinic acid, 5-amino-;5-Amino-2-pyridinecarboxylic acid;5-Aminopicolinic acid;5-Aminopyridine-2-carboxylic acid",
    "duplicated_cas_no": "",
    "SMILES": "C(O)(=O)C1=CC=C(N)C=N1",
    "meta_data": {
        "InChI": "InChI=1S/C6H6N2O2/c7-4-1-2-5(6(9)10)8-3-4/h1-3H,7H2,(H,9,10)",
        "InChIKey": null,
        "Canonical SMILES": "O=C(O)C1=NC=C(N)C=C1",
        "Molecular Formula": "C<sub>6</sub>H<sub>6</sub>N<sub>2</sub>O<sub>2</sub>",
        "Molecular Mass": "138.12",
        "Melting Point": "218-219 °C"
    }
}