{
    "cas_no": "6515-38-4",
    "key_name": "3,5,6-Trichloro-2-pyridinol",
    "cn_name": "3,5,6-三氯吡啶-2-醇;",
    "alternate_name": "2(1<em>H</em>)-Pyridinone, 3,5,6-trichloro-;2(1<em>H</em>)-Pyridone, 3,5,6-trichloro-;2-Pyridinol, 3,5,6-trichloro-;3,5,6-Trichloro-2(1<em>H</em>)-pyridinone;2-Hydroxy-3,5,6-trichloropyridine;3,5,6-Trichloro-2-hydroxypyridine;3,5,6-Trichloro-2-pyridinol;3,5,6-Trichloropyridine-2-ol;2,3,5-Trichloro-6-hydroxypyridine;TCP;2-Hydroxyl-3,5,6-trichloropyridine;3,5,6-Trichloro-1<em>H</em>-pyridin-2-one",
    "duplicated_cas_no": "",
    "SMILES": "ClC1=C(Cl)NC(=O)C(Cl)=C1",
    "meta_data": {
        "InChI": "InChI=1S/C5H2Cl3NO/c6-2-1-3(7)5(10)9-4(2)8/h1H,(H,9,10)",
        "InChIKey": null,
        "Canonical SMILES": "O=C1NC(Cl)=C(Cl)C=C1Cl",
        "Molecular Formula": "C<sub>5</sub>H<sub>2</sub>Cl<sub>3</sub>NO",
        "Molecular Mass": "198.43",
        "Melting Point": "174-175 °C"
    }
}