{
    "cas_no": "3842-03-3",
    "key_name": "1,1-Diethoxy-3-methylbutane",
    "cn_name": "1,1-二乙氧基-3-甲基丁烷;",
    "alternate_name": "Butane, 1,1-diethoxy-3-methyl-;Isovaleraldehyde, diethyl acetal;1,1-Diethoxy-3-methylbutane;1,1-Diethoxyisopentane",
    "duplicated_cas_no": "",
    "SMILES": "C(CC(C)C)(OCC)OCC",
    "meta_data": {
        "InChI": "InChI=1S/C9H20O2/c1-5-10-9(11-6-2)7-8(3)4/h8-9H,5-7H2,1-4H3",
        "InChIKey": null,
        "Canonical SMILES": "O(CC)C(OCC)CC(C)C",
        "Molecular Formula": "C<sub>9</sub>H<sub>20</sub>O<sub>2</sub>",
        "Molecular Mass": "160.25",
        "Boiling Point": "167-168 °C @ Press: 750 Torr",
        "Density": "0.8356 g/cm³ @ Temp: 20 °C"
    }
}