{
    "cas_no": "4279-22-5",
    "key_name": "2,2-Dichlorobutane",
    "cn_name": null,
    "alternate_name": "Butane, 2,2-dichloro-;2,2-Dichlorobutane",
    "duplicated_cas_no": "",
    "SMILES": "C(CC)(C)(Cl)Cl",
    "meta_data": {
        "InChI": "InChI=1S/C4H8Cl2/c1-3-4(2,5)6/h3H2,1-2H3",
        "InChIKey": null,
        "Canonical SMILES": "ClC(Cl)(C)CC",
        "Molecular Formula": "C<sub>4</sub>H<sub>8</sub>Cl<sub>2</sub>",
        "Molecular Mass": "127.01",
        "Boiling Point": "104 °C",
        "Melting Point": "-74 °C",
        "Density": "1.05 g/cm³"
    }
}