{
    "cas_no": "868-84-8",
    "key_name": "<em>S</em>,<em>S</em>-Dimethyl dithiocarbonate",
    "cn_name": "荒酸二甲酯;S,S-二硫代碳酸二甲酯;",
    "alternate_name": "Carbonodithioic acid, <em>S</em>,<em>S</em>-dimethyl ester;Carbonic acid, dithio-, <em>S</em>,<em>S</em>-dimethyl ester;<em>S</em>,<em>S</em>-Dimethyl dithiocarbonate;<em>S</em>,<em>S</em>′-Dimethyldithiocarbonate;NSC 227849;Dithiocarbonic acid <em>S</em>,<em>S</em>′-dimethyl ester",
    "duplicated_cas_no": "",
    "SMILES": "C(SC)(SC)=O",
    "meta_data": {
        "InChI": "InChI=1S/C3H6OS2/c1-5-3(4)6-2/h1-2H3",
        "InChIKey": null,
        "Canonical SMILES": "O=C(SC)SC",
        "Molecular Formula": "C<sub>3</sub>H<sub>6</sub>OS<sub>2</sub>",
        "Molecular Mass": "122.21",
        "Boiling Point": "67-69 °C @ Press: 20 Torr",
        "Melting Point": "133-135 °C",
        "Density": "1.1838 g/cm³ @ Temp: 25 °C"
    }
}