{
    "cas_no": "3669-80-5",
    "key_name": "11-Hydroxyundecanoic acid",
    "cn_name": "11-羟基十一烷酸;",
    "alternate_name": "Undecanoic acid, 11-hydroxy-;11-Hydroxyundecanoic acid",
    "duplicated_cas_no": "",
    "SMILES": "C(CCCCCCCO)CCC(O)=O",
    "meta_data": {
        "InChI": "InChI=1S/C11H22O3/c12-10-8-6-4-2-1-3-5-7-9-11(13)14/h12H,1-10H2,(H,13,14)",
        "InChIKey": null,
        "Canonical SMILES": "O=C(O)CCCCCCCCCCO",
        "Molecular Formula": "C<sub>11</sub>H<sub>22</sub>O<sub>3</sub>",
        "Molecular Mass": "202.29",
        "Melting Point": "65.5 °C"
    }
}