{
    "cas_no": "113-00-8",
    "key_name": "Guanidine",
    "cn_name": "胍;亚氨脲;",
    "alternate_name": "Guanidine;Aminoformamidine;Aminomethanamidine;Carbamamidine;Carbamidine;Iminourea;Imidourea;Guanidin;MeSH ID: D019791",
    "duplicated_cas_no": "113978-92-0;113978-93-1;117365-55-6;152252-01-2;475470-57-6;756878-05-4;1135443-21-8;1259405-68-9;1395060-12-4;1395060-56-6",
    "SMILES": "C(=N)(N)N",
    "meta_data": {
        "InChI": "InChI=1S/CH5N3/c2-1(3)4/h(H5,2,3,4)",
        "InChIKey": null,
        "Canonical SMILES": "N=C(N)N",
        "Molecular Formula": "CH<sub>5</sub>N<sub>3</sub>",
        "Molecular Mass": "59.07",
        "Melting Point": "50 °C"
    }
}