{
    "cas_no": "5438-41-5",
    "key_name": "5-(2-Nitro-1-propen-1-yl)-1,3-benzodioxole",
    "cn_name": null,
    "alternate_name": "1,3-Benzodioxole, 5-(2-nitro-1-propen-1-yl)-;Benzene, 1,2-(methylenedioxy)-4-(2-nitropropenyl)-;1,3-Benzodioxole, 5-(2-nitro-1-propenyl)-;5-(2-Nitro-1-propen-1-yl)-1,3-benzodioxole;1-(2-Nitro-1-propenyl)-3,4-methylenedioxybenzene;1,2-Methylenedioxy-4-(2-nitropropenyl)benzene;3,4-Methylenedioxy-1-(2-nitropropenyl)benzene;β-Methyl-β-nitro-3,4-methylenedioxystyrene;2-Nitro-1-(3,4-methylenedioxyphenyl)-1-propene;NSC 16685;NSC 65667;Iksin",
    "duplicated_cas_no": "253140-68-0",
    "SMILES": "C(=C(N(=O)=O)C)C=1C=C2C(=CC1)OCO2",
    "meta_data": {
        "InChI": "InChI=1S/C10H9NO4/c1-7(11(12)13)4-8-2-3-9-10(5-8)15-6-14-9/h2-5H,6H2,1H3",
        "InChIKey": null,
        "Canonical SMILES": "O=N(=O)C(=CC1=CC=C2OCOC2=C1)C",
        "Molecular Formula": "C<sub>10</sub>H<sub>9</sub>NO<sub>4</sub>",
        "Molecular Mass": "207.18",
        "Melting Point": "98 °C"
    }
}