{
    "cas_no": "3230-39-5",
    "key_name": "<em>p</em>-(<em>p</em>-Methoxybenzylideneamino)phenol",
    "cn_name": "4-(4-甲氧基亚苄基)-4-羟基苯胺;",
    "alternate_name": "Phenol, 4-[[(4-methoxyphenyl)methylene]amino]-;Phenol, <em>p</em>-[(<em>p</em>-methoxybenzylidene)amino]-;4-[[(4-Methoxyphenyl)methylene]amino]phenol;<em>p</em>-(<em>p</em>-Methoxybenzylideneamino)phenol;4-Hydroxy-<em>N</em>-(4-methoxybenzylidene)aniline;4-[(4-Methoxybenzylidene)amino]phenol;NSC 112115",
    "duplicated_cas_no": "",
    "SMILES": "C(=NC1=CC=C(O)C=C1)C2=CC=C(OC)C=C2",
    "meta_data": {
        "InChI": "InChI=1S/C14H13NO2/c1-17-14-8-2-11(3-9-14)10-15-12-4-6-13(16)7-5-12/h2-10,16H,1H3",
        "InChIKey": null,
        "Canonical SMILES": "OC1=CC=C(N=CC2=CC=C(OC)C=C2)C=C1",
        "Molecular Formula": "C<sub>14</sub>H<sub>13</sub>NO<sub>2</sub>",
        "Molecular Mass": "227.26",
        "Melting Point": "187 °C"
    }
}