{
    "cas_no": "22573-93-9",
    "key_name": "Alexidine",
    "cn_name": null,
    "alternate_name": "2,4,11,13-Tetraazatetradecanediimidamide, <em>N</em>,<em>N</em>′′-bis(2-ethylhexyl)-3,12-diimino-;Biguanide, 1,1′-hexamethylenebis[5-(2-ethylhexyl)-;<em>N</em>,<em>N</em>′′-Bis(2-ethylhexyl)-3,12-diimino-2,4,11,13-tetraazatetradecanediimidamide;Alexidine;Win 21904;Sterwin 904;Bisguadine;1,6-Bis(2-ethylhexylbiguanido)hexane;QR 711;Bisguanidine;Compound 904;1,1′-Hexamethylenebis[5-(2-ethylhexyl)biguanide]",
    "duplicated_cas_no": "22782-69-0;25795-30-6",
    "SMILES": "C(CNC(NC(NCCCCCCNC(NC(NCC(CCCC)CC)=N)=N)=N)=N)(CCCC)CC",
    "meta_data": {
        "InChI": "InChI=1S/C26H56N10/c1-5-9-15-21(7-3)19-33-25(29)35-23(27)31-17-13-11-12-14-18-32-24(28)36-26(30)34-20-22(8-4)16-10-6-2/h21-22H,5-20H2,1-4H3,(H5,27,29,31,33,35)(H5,28,30,32,34,36)",
        "InChIKey": null,
        "Canonical SMILES": "N=C(NC(=N)NCC(CC)CCCC)NCCCCCCNC(=N)NC(=N)NCC(CC)CCCC",
        "Molecular Formula": "C<sub>26</sub>H<sub>56</sub>N<sub>10</sub>",
        "Molecular Mass": "508.79",
        "Melting Point": "224-227 °C"
    }
}