{
    "cas_no": "638-94-8",
    "key_name": "Desonide",
    "cn_name": "地索奈德;",
    "alternate_name": "Pregna-1,4-diene-3,20-dione, 11,21-dihydroxy-16,17-[(1-methylethylidene)bis(oxy)]-, (11β,16α)-;Pregna-1,4-diene-3,20-dione, 11β,16α,17,21-tetrahydroxy-, cyclic 16,17-acetal with acetone;2<em>H</em>-Naphth[2′,1′:4,5]indeno[1,2-<em>d</em>][1,3]dioxole, pregna-1,4-diene-3,20-dione deriv.;(11β,16α)-11,21-Dihydroxy-16,17-[(1-methylethylidene)bis(oxy)]pregna-1,4-diene-3,20-dione;16α-Hydroxyprednisolone 16α,17α-acetonide;Desonide;Prednacinolone;16α-Hydroxyprednisolone acetonide;11β,16α,17,21-Tetrahydroxypregna-1,4-diene-3,20-dione 16,17-acetonide;Tridesilon;16α-Hydroxyprednisolone 16,17-acetonide;16α,17α-(Isopropylidenedioxy)prednisolone;Steroderm;11β,21-Dihydroxy-16α,17α-(isopropylidenedioxy)pregna-1,4-diene-3,20-dione;Prednacinolone acetonide;Apolar;D 2083;Locapred;Topifug;Sterax;Budesonide acetonide;Prenacid;Tridesonit;Prednisolone acetonide;Desowen;MeSH ID: D003898",
    "duplicated_cas_no": "24814-50-4;63905-08-8",
    "SMILES": "C(CO)(=O)[C@]12[C@]3(C)[C@@](C[C@]1(OC(C)(C)O2)[H])([C@]4([C@]([C@@H](O)C3)([C@]5(C)C(CC4)=CC(=O)C=C5)[H])[H])[H]",
    "meta_data": {
        "InChI": "InChI=1S/C24H32O6/c1-21(2)29-19-10-16-15-6-5-13-9-14(26)7-8-22(13,3)20(15)17(27)11-23(16,4)24(19,30-21)18(28)12-25/h7-9,15-17,19-20,25,27H,5-6,10-12H2,1-4H3/t15-,16-,17-,19+,20+,22-,23-,24+/m0/s1",
        "InChIKey": null,
        "Canonical SMILES": "O=C1C=CC2(C(=C1)CCC3C4CC5OC(OC5(C(=O)CO)C4(C)CC(O)C32)(C)C)C",
        "Molecular Formula": "C<sub>24</sub>H<sub>32</sub>O<sub>6</sub>",
        "Molecular Mass": "416.51",
        "Melting Point": "274 °C"
    }
}