{
    "cas_no": "16611-67-9",
    "key_name": "2,5-Dichlorobenzophenone",
    "cn_name": "2,5-二氯二苯甲酮;",
    "alternate_name": "Methanone, (2,5-dichlorophenyl)phenyl-;Benzophenone, 2,5-dichloro-;(2,5-Dichlorophenyl)phenylmethanone;2,5-Dichlorobenzophenone;Benzoyl-2,5-dichlorobenzene",
    "duplicated_cas_no": "",
    "SMILES": "C(=O)(C1=C(Cl)C=CC(Cl)=C1)C2=CC=CC=C2",
    "meta_data": {
        "InChI": "InChI=1S/C13H8Cl2O/c14-10-6-7-12(15)11(8-10)13(16)9-4-2-1-3-5-9/h1-8H",
        "InChIKey": null,
        "Canonical SMILES": "O=C(C=1C=CC=CC1)C2=CC(Cl)=CC=C2Cl",
        "Molecular Formula": "C<sub>13</sub>H<sub>8</sub>Cl<sub>2</sub>O",
        "Molecular Mass": "251.11",
        "Boiling Point": "240-260 °C",
        "Melting Point": "88 °C"
    }
}