{
    "cas_no": "112-41-4",
    "key_name": "1-Dodecene",
    "cn_name": null,
    "alternate_name": "1-Dodecene;Adacene 12;<em>n</em>-Dodec-1-ene;α-Dodecene;Dialen 12;Linealene 12;NSC 12016;Neodene C 12;Neodene Shop C<sub>12</sub>;LAO-C 12;Linealene C 12;Neodene 12",
    "duplicated_cas_no": "",
    "SMILES": "C(CCCCC=C)CCCCC",
    "meta_data": {
        "InChI": "InChI=1S/C12H24/c1-3-5-7-9-11-12-10-8-6-4-2/h3H,1,4-12H2,2H3",
        "InChIKey": null,
        "Canonical SMILES": "C=CCCCCCCCCCC",
        "Molecular Formula": "C<sub>12</sub>H<sub>24</sub>",
        "Molecular Mass": "168.32",
        "Boiling Point": "213.8 °C",
        "Melting Point": "-35.2 °C",
        "Density": "0.7584 g/cm³ @ Temp: 20 °C"
    }
}