{
    "cas_no": "89-87-2",
    "key_name": "4-Nitro-<em>m</em>-xylene",
    "cn_name": "1,3-二甲基-4-硝基苯;4-硝基间二甲苯;4-硝基-1,3-二甲苯;2,4-二甲基硝基苯;",
    "alternate_name": "Benzene, 2,4-dimethyl-1-nitro-;<em>m</em>-Xylene, 4-nitro-;2,4-Dimethyl-1-nitrobenzene;4-Nitro-1,3-dimethylbenzene;4-Nitro-<em>m</em>-xylene;4-Nitro-1,3-xylene;1-Nitro-2,4-dimethylbenzene;1,3-Dimethyl-4-nitrobenzene;NSC 50661",
    "duplicated_cas_no": "",
    "SMILES": "N(=O)(=O)C1=C(C)C=C(C)C=C1",
    "meta_data": {
        "InChI": "InChI=1S/C8H9NO2/c1-6-3-4-8(9(10)11)7(2)5-6/h3-5H,1-2H3",
        "InChIKey": null,
        "Canonical SMILES": "O=N(=O)C1=CC=C(C=C1C)C",
        "Molecular Formula": "C<sub>8</sub>H<sub>9</sub>NO<sub>2</sub>",
        "Molecular Mass": "151.16",
        "Boiling Point": "247 °C",
        "Melting Point": "9 °C"
    }
}