{
    "cas_no": "14080-23-0",
    "key_name": "2-Pyrimidinecarbonitrile",
    "cn_name": "2-氰基嘧啶;",
    "alternate_name": "2-Pyrimidinecarbonitrile;2-Cyanopyrimidine",
    "duplicated_cas_no": "",
    "SMILES": "C(#N)C=1N=CC=CN1",
    "meta_data": {
        "InChI": "InChI=1S/C5H3N3/c6-4-5-7-2-1-3-8-5/h1-3H",
        "InChIKey": null,
        "Canonical SMILES": "N#CC1=NC=CC=N1",
        "Molecular Formula": "C<sub>5</sub>H<sub>3</sub>N<sub>3</sub>",
        "Molecular Mass": "105.10",
        "Melting Point": "24 °C"
    }
}