{
    "cas_no": "491-67-8",
    "key_name": "Baicalein",
    "cn_name": "黄芩素;黄芩苷元;黄芩甙元;黄芩黄素;5,6,7-三羟基黄酮;",
    "alternate_name": "4<em>H</em>-1-Benzopyran-4-one, 5,6,7-trihydroxy-2-phenyl-;Flavone, 5,6,7-trihydroxy-;Baicalein;5,6,7-Trihydroxy-2-phenyl-4<em>H</em>-1-benzopyran-4-one;5,6,7-Trihydroxyflavone;Noroxylin;NSC 661431;Baikalein",
    "duplicated_cas_no": "",
    "SMILES": "O=C1C=2C(OC(=C1)C3=CC=CC=C3)=CC(O)=C(O)C2O",
    "meta_data": {
        "InChI": "InChI=1S/C15H10O5/c16-9-6-11(8-4-2-1-3-5-8)20-12-7-10(17)14(18)15(19)13(9)12/h1-7,17-19H",
        "InChIKey": null,
        "Canonical SMILES": "O=C1C=C(OC2=CC(O)=C(O)C(O)=C12)C=3C=CC=CC3",
        "Molecular Formula": "C<sub>15</sub>H<sub>10</sub>O<sub>5</sub>",
        "Molecular Mass": "270.24",
        "Melting Point": "264.5 °C (decomp)"
    }
}