{
    "cas_no": "7380-39-4",
    "key_name": "5-(Geranyloxy)-7-methoxycoumarin",
    "cn_name": null,
    "alternate_name": "2<em>H</em>-1-Benzopyran-2-one, 5-[[(2<em>E</em>)-3,7-dimethyl-2,6-octadien-1-yl]oxy]-7-methoxy-;Coumarin, 5-[(3,7-dimethyl-2,6-octadienyl)oxy]-7-methoxy-, (<em>E</em>)-;2<em>H</em>-1-Benzopyran-2-one, 5-[(3,7-dimethyl-2,6-octadienyl)oxy]-7-methoxy-, (<em>E</em>)-;Herniarin, 5-(geranyloxy)-;2<em>H</em>-1-Benzopyran-2-one, 5-[[(2<em>E</em>)-3,7-dimethyl-2,6-octadienyl]oxy]-7-methoxy-;5-[[(2<em>E</em>)-3,7-Dimethyl-2,6-octadien-1-yl]oxy]-7-methoxy-2<em>H</em>-1-benzopyran-2-one;7-Methoxy-5-geranoxycoumarin;7-Methoxy-5-geranoxycoumarine;5-(Geranyloxy)-7-methoxycoumarin;5-Geranoxy-7-methoxycoumarin;Same",
    "duplicated_cas_no": "",
    "SMILES": "O(C/C=C(/CCC=C(C)C)\\C)C1=C2C(=CC(OC)=C1)OC(=O)C=C2",
    "meta_data": {
        "InChI": "InChI=1S/C20H24O4/c1-14(2)6-5-7-15(3)10-11-23-18-12-16(22-4)13-19-17(18)8-9-20(21)24-19/h6,8-10,12-13H,5,7,11H2,1-4H3/b15-10+",
        "InChIKey": null,
        "Canonical SMILES": "O=C1OC2=CC(OC)=CC(OCC=C(C)CCC=C(C)C)=C2C=C1",
        "Molecular Formula": "C<sub>20</sub>H<sub>24</sub>O<sub>4</sub>",
        "Molecular Mass": "328.40",
        "Melting Point": "86-87 °C"
    }
}