{
    "cas_no": "481-21-0",
    "key_name": "5α-Cholestane",
    "cn_name": "5α-胆甾烷;5alpha-胆甾烷;",
    "alternate_name": "Cholestane, (5α)-;5α-Cholestane;(5α)-Cholestane;28,29,30-Trinorlanostane;Cholestane;α-Cholestane;(20<em>R</em>)-5α(<em>H</em>),14α(<em>H</em>),17α(<em>H</em>)-Cholestane;(20<em>R</em>)-5α(H),14α(H),17α(H)-Cholestane;NSC 224419;(5R,8R,9S,10S,13R,14S,17R)-10,13-Dimethyl-17-((R)-6-methylheptan-2-yl)hexadecahydro-1<em>H</em>-cyclopenta[<em>a</em>]phenanthrene",
    "duplicated_cas_no": "1206559-34-3;1466402-48-1",
    "SMILES": "C[C@@]12[C@]([C@]3([C@@]([C@]4(C)[C@@](CC3)(CCCC4)[H])(CC1)[H])[H])(CC[C@@]2([C@@H](CCCC(C)C)C)[H])[H]",
    "meta_data": {
        "InChI": "InChI=1S/C27H48/c1-19(2)9-8-10-20(3)23-14-15-24-22-13-12-21-11-6-7-17-26(21,4)25(22)16-18-27(23,24)5/h19-25H,6-18H2,1-5H3/t20-,21-,22+,23-,24+,25+,26+,27-/m1/s1",
        "InChIKey": null,
        "Canonical SMILES": "CC(C)CCCC(C)C1CCC2C3CCC4CCCCC4(C)C3CCC12C",
        "Molecular Formula": "C<sub>27</sub>H<sub>48</sub>",
        "Molecular Mass": "372.67",
        "Melting Point": "80 °C"
    }
}