{
    "cas_no": "597-31-9",
    "key_name": "Hydroxypivalaldehyde",
    "cn_name": "2,2-二甲基-3-羟基丙醛;",
    "alternate_name": "Propanal, 3-hydroxy-2,2-dimethyl-;Hydracrylaldehyde, 2,2-dimethyl-;3-Hydroxy-2,2-dimethylpropanal;Pentaaldol;2,2-Dimethyl-3-hydroxypropanal;α,α-Dimethyl-β-hydroxypropionaldehyde;2,2-Dimethyl-3-hydroxypropionaldehyde;Hydroxypivalaldehyde;2-(Hydroxymethyl)-2-methylpropanal;Hydroxypivaldehyde;3-Hydroxy-2,2-dimethylpropionaldehyde;3-Hydroxypivalaldehyde;Pentaldol;2-(Hydroxymethyl)isobutyraldehyde",
    "duplicated_cas_no": "",
    "SMILES": "C(CO)(C=O)(C)C",
    "meta_data": {
        "InChI": "InChI=1S/C5H10O2/c1-5(2,3-6)4-7/h3,7H,4H2,1-2H3",
        "InChIKey": null,
        "Canonical SMILES": "O=CC(C)(C)CO",
        "Molecular Formula": "C<sub>5</sub>H<sub>10</sub>O<sub>2</sub>",
        "Molecular Mass": "102.13",
        "Boiling Point": "78-85 °C @ Press: 4 Torr",
        "Melting Point": "30-33 °C"
    }
}