{
    "cas_no": "3291-03-0",
    "key_name": "3,4,5-Trimethoxybenzohydrazide",
    "cn_name": "3,4,5-三甲氧基苯甲酰肼;",
    "alternate_name": "Benzoic acid, 3,4,5-trimethoxy-, hydrazide;3,4,5-Trimethoxybenzoic acid hydrazide;3,4,5-Trimethoxybenzoic hydrazide;(3,4,5-Trimethoxybenzoyl)hydrazine;3,4,5-Trimethoxybenzohydrazide;NSC 39075;3,4,5-Trimethoxybenzoylhydrazide",
    "duplicated_cas_no": "908846-07-1",
    "SMILES": "O(C)C1=C(OC)C=C(C(NN)=O)C=C1OC",
    "meta_data": {
        "InChI": "InChI=1S/C10H14N2O4/c1-14-7-4-6(10(13)12-11)5-8(15-2)9(7)16-3/h4-5H,11H2,1-3H3,(H,12,13)",
        "InChIKey": null,
        "Canonical SMILES": "O=C(NN)C1=CC(OC)=C(OC)C(OC)=C1",
        "Molecular Formula": "C<sub>10</sub>H<sub>14</sub>N<sub>2</sub>O<sub>4</sub>",
        "Molecular Mass": "226.23",
        "Melting Point": "158-159 °C"
    }
}