{
    "cas_no": "7789-20-0",
    "key_name": "Water-<em>d</em><sub>2</sub>",
    "cn_name": null,
    "alternate_name": "Water-<em>d</em><sub>2</sub>;Water, heavy (D<sub>2</sub>O);Deuterium oxide;Dideuterium oxide;Heavy water (D<sub>2</sub>O);Heavy water-<em>d</em><sub>2</sub>;Heavy water;Deuterium oxide (D<sub>2</sub>O);Water-<sup>2</sup><em>H</em><sub>2</sub>;Deuterium oxide-<em>d</em><sub>2</sub>;Dideuterium monoxide",
    "duplicated_cas_no": "39388-36-8;156428-50-1",
    "SMILES": "O([2H])[2H]",
    "meta_data": {
        "InChI": "InChI=1S/H2O/h1H2/i/hD2",
        "InChIKey": null,
        "Canonical SMILES": "O",
        "Molecular Formula": "D<sub>2</sub>O",
        "Molecular Mass": "",
        "Boiling Point": "101.42 °C",
        "Melting Point": "3.81 °C",
        "Density": "1.104 g/cm³"
    }
}