{
    "cas_no": "5435-64-3",
    "key_name": "3,5,5-Trimethylhexanal",
    "cn_name": "3,5,5-三甲基己醛;拂地醛;",
    "alternate_name": "Hexanal, 3,5,5-trimethyl-;3,5,5-Trimethylhexanal;3,5,5-Trimethylcapronaldehyde;NSC 21482",
    "duplicated_cas_no": "",
    "SMILES": "C(CC(C)(C)C)(CC=O)C",
    "meta_data": {
        "InChI": "InChI=1S/C9H18O/c1-8(5-6-10)7-9(2,3)4/h6,8H,5,7H2,1-4H3",
        "InChIKey": null,
        "Canonical SMILES": "O=CCC(C)CC(C)(C)C",
        "Molecular Formula": "C<sub>9</sub>H<sub>18</sub>O",
        "Molecular Mass": "142.24",
        "Boiling Point": "82-83 °C @ Press: 35 Torr"
    }
}