{
    "cas_no": "813-56-9",
    "key_name": "Propanedioic-<em>2</em>,<em>2</em>-<em>d</em><sub>2</sub> acid-<em>1</em>,<em>3</em>-<em>d</em><sub>2</sub>",
    "cn_name": "丙二酸-d4;",
    "alternate_name": "Propanedioic-<em>2</em>,<em>2</em>-<em>d</em><sub>2</sub> acid-<em>1</em>,<em>3</em>-<em>d</em><sub>2</sub>;Malonic-<em>d</em><sub>2</sub> acid-<em>d</em><sub>2</sub>;Propanedioic-<em>d</em><sub>2</sub> acid-<em>d</em><sub>2</sub>;Malonic acid-<em>d</em><sub>4</sub>;Tetradeuteriomalonic acid",
    "duplicated_cas_no": "",
    "SMILES": "C(C(O[2H])=O)(C(O[2H])=O)([2H])[2H]",
    "meta_data": {
        "InChI": "InChI=1S/C3H4O4/c4-2(5)1-3(6)7/h1H2,(H,4,5)(H,6,7)/i1D2/hD2",
        "InChIKey": null,
        "Canonical SMILES": "O=C(O)CC(=O)O",
        "Molecular Formula": "C<sub>3</sub>D<sub>4</sub>O<sub>4</sub>",
        "Molecular Mass": "",
        "Melting Point": "130-131 °C"
    }
}