{
    "cas_no": "1544-46-3",
    "key_name": "Acetaldehyde, fluoro-",
    "cn_name": "氟乙醛;",
    "alternate_name": "Acetaldehyde, fluoro-;Fluoroacetaldehyde;2-Fluoroethanal;Fluoroethanal;α-Fluoroacetaldehyde;2-Fluoroacetaldehyde",
    "duplicated_cas_no": "",
    "SMILES": "C(C=O)F",
    "meta_data": {
        "InChI": "InChI=1S/C2H3FO/c3-1-2-4/h2H,1H2",
        "InChIKey": null,
        "Canonical SMILES": "O=CCF",
        "Molecular Formula": "C<sub>2</sub>H<sub>3</sub>FO",
        "Molecular Mass": "62.04",
        "Boiling Point": "19-23 °C",
        "Density": "1.2410 g/cm³ @ Temp: 20 °C"
    }
}