{
    "cas_no": "108-68-9",
    "key_name": "3,5-Dimethylphenol",
    "cn_name": "3,5-二甲基苯酚;3,5-二甲酚;",
    "alternate_name": "Phenol, 3,5-dimethyl-;3,5-Xylenol;3,5-Dimethylphenol;1-Hydroxy-3,5-dimethylbenzene;1,3,5-Xylenol;NSC 9268",
    "duplicated_cas_no": "50356-23-5",
    "SMILES": "CC1=CC(C)=CC(O)=C1",
    "meta_data": {
        "InChI": "InChI=1S/C8H10O/c1-6-3-7(2)5-8(9)4-6/h3-5,9H,1-2H3",
        "InChIKey": null,
        "Canonical SMILES": "OC=1C=C(C=C(C1)C)C",
        "Molecular Formula": "C<sub>8</sub>H<sub>10</sub>O",
        "Molecular Mass": "122.16",
        "Boiling Point": "219.5 °C",
        "Melting Point": "64 °C",
        "Density": "0.9680 g/cm³ @ Temp: 20 °C"
    }
}