{
    "cas_no": "372-29-2",
    "key_name": "Ethyl 3-amino-4,4,4-trifluoro-2-butenoate",
    "cn_name": "3-氨基-4,4,4-三氟巴豆酸乙酯;3-氨基-4,4,4-三氟-2-丁烯酸乙酯;",
    "alternate_name": "2-Butenoic acid, 3-amino-4,4,4-trifluoro-, ethyl ester;Crotonic acid, 3-amino-4,4,4-trifluoro-, ethyl ester;Ethyl 3-amino-4,4,4-trifluoro-2-butenoate;Ethyl 3-amino-4,4,4-trifluorocrotonate;3-Amino-4,4,4-trifluorocrotonic acid ethyl ester;3-Amino-4,4,4-trifluoro-2-butenoic acid ethyl ester",
    "duplicated_cas_no": "",
    "SMILES": "C(=C(C(F)(F)F)N)C(OCC)=O",
    "meta_data": {
        "InChI": "InChI=1S/C6H8F3NO2/c1-2-12-5(11)3-4(10)6(7,8)9/h3H,2,10H2,1H3",
        "InChIKey": null,
        "Canonical SMILES": "O=C(OCC)C=C(N)C(F)(F)F",
        "Molecular Formula": "C<sub>6</sub>H<sub>8</sub>F<sub>3</sub>NO<sub>2</sub>",
        "Molecular Mass": "183.13",
        "Melting Point": "25 °C"
    }
}