{
    "cas_no": "670-54-2",
    "key_name": "Tetracyanoethylene",
    "cn_name": "四氰基乙烯;四氰乙烯;",
    "alternate_name": "1,1,2,2-Ethenetetracarbonitrile;Ethenetetracarbonitrile;Δ<sup>2,2′</sup>-Bimalononitrile;TCNE;Tetracyanoethylene;Ethene, tetracyano-;Ethylenetetracarbonitrile;Tetracyanoethene;1,1,2,2-Tetracyanoethene;1,1,2,2-Tetracyanoethylene;NSC 24833",
    "duplicated_cas_no": "51778-96-2;56875-27-5",
    "SMILES": "C(=C(C#N)C#N)(C#N)C#N",
    "meta_data": {
        "InChI": "InChI=1S/C6N4/c7-1-5(2-8)6(3-9)4-10",
        "InChIKey": null,
        "Canonical SMILES": "N#CC(C#N)=C(C#N)C#N",
        "Molecular Formula": "C<sub>6</sub>N<sub>4</sub>",
        "Molecular Mass": "128.09",
        "Boiling Point": "223 °C",
        "Melting Point": "199 °C",
        "Density": "1.313 g/cm³"
    }
}