{
    "cas_no": "473-15-4",
    "key_name": "beta-Eudesmol",
    "cn_name": "beta-桉叶醇;",
    "alternate_name": "2-Naphthalenemethanol, decahydro-α,α,4a-trimethyl-8-methylene-, (2<em>R</em>,4a<em>R</em>,8a<em>S</em>)-;Eudesm-4(14)-en-11-ol;β-Eudesmol;2-Naphthalenemethanol, decahydro-α,α,4a-trimethyl-8-methylene-, [2<em>R</em>-(2α,4aα,8aβ)]-;2-Naphthalenemethanol, 1,2α,3,4,4a,5,6,7,8,8aα-decahydro-α,α,4aβ-trimethyl-8-methylene-;(2<em>R</em>,4a<em>R</em>,8a<em>S</em>)-Decahydro-α,α,4a-trimethyl-8-methylene-2-naphthalenemethanol;β-Selinenol;(+)-β-Eudesmol;beta-Selinenol;beta-Eudesmol",
    "duplicated_cas_no": "",
    "SMILES": "C[C@]12[C@@](C[C@H](C(C)(C)O)CC1)(C(=C)CCC2)[H]",
    "meta_data": {
        "InChI": "InChI=1S/C15H26O/c1-11-6-5-8-15(4)9-7-12(10-13(11)15)14(2,3)16/h12-13,16H,1,5-10H2,2-4H3/t12-,13+,15-/m1/s1",
        "InChIKey": null,
        "Canonical SMILES": "OC(C)(C)C1CCC2(C)CCCC(=C)C2C1",
        "Molecular Formula": "C<sub>15</sub>H<sub>26</sub>O",
        "Molecular Mass": "222.37",
        "Melting Point": "75.5-76 °C"
    }
}