{
    "cas_no": "3347-62-4",
    "key_name": "3-Methyl-5-phenylpyrazole",
    "cn_name": "3-甲基-5-苯基-1H-吡唑;3-甲基-5-苯基-1H-吡唑;",
    "alternate_name": "1<em>H</em>-Pyrazole, 3-methyl-5-phenyl-;Pyrazole, 3-methyl-5-phenyl-;Pyrazole, 3(<em>or</em> 5)-methyl-5(<em>or</em> 3)-phenyl-;3-Methyl-5-phenyl-1<em>H</em>-pyrazole;3-Methyl-5-phenylpyrazole;Phemerazole;5-Methyl-3-phenylpyrazole;Femerazol;3-Phenyl-5-methylpyrazole;NSC 78454;5-Methyl-3-phenyl-1<em>H</em>-pyrazole",
    "duplicated_cas_no": "3440-06-0;3006739-06-3",
    "SMILES": "CC=1C=C(NN1)C2=CC=CC=C2",
    "meta_data": {
        "InChI": "InChI=1S/C10H10N2/c1-8-7-10(12-11-8)9-5-3-2-4-6-9/h2-7H,1H3,(H,11,12)",
        "InChIKey": null,
        "Canonical SMILES": "N=1NC(=CC1C)C=2C=CC=CC2",
        "Molecular Formula": "C<sub>10</sub>H<sub>10</sub>N<sub>2</sub>",
        "Molecular Mass": "158.20",
        "Boiling Point": "180-195 °C @ Press: 10 Torr",
        "Melting Point": "128 °C"
    }
}