{
    "cas_no": "1003-14-1",
    "key_name": "2-Propyloxirane",
    "cn_name": "丙基环氧乙烷;",
    "alternate_name": "Oxirane, 2-propyl-;Pentane, 1,2-epoxy-;Oxirane, propyl-;2-Propyloxirane;1,2-Epoxypentane;Propylethylene oxide;Propyloxirane;Pentene 1,2-oxide;1-Pentene oxide;<em>n</em>-Propyloxirane;NSC 46349",
    "duplicated_cas_no": "138128-26-4",
    "SMILES": "C(CC)C1CO1",
    "meta_data": {
        "InChI": "InChI=1S/C5H10O/c1-2-3-5-4-6-5/h5H,2-4H2,1H3",
        "InChIKey": null,
        "Canonical SMILES": "O1CC1CCC",
        "Molecular Formula": "C<sub>5</sub>H<sub>10</sub>O",
        "Molecular Mass": "86.13",
        "Boiling Point": "89-90 °C @ Press: 750 Torr"
    }
}