{
    "cas_no": "2039-90-9",
    "key_name": "2,6-Dimethylstyrene",
    "cn_name": null,
    "alternate_name": "Benzene, 2-ethenyl-1,3-dimethyl-;Styrene, 2,6-dimethyl-;2-Ethenyl-1,3-dimethylbenzene;2,6-Dimethylstyrene;1,3-Dimethyl-2-vinylbenzene;2-Vinyl-<em>m</em>-xylene",
    "duplicated_cas_no": "",
    "SMILES": "C(=C)C1=C(C)C=CC=C1C",
    "meta_data": {
        "InChI": "InChI=1S/C10H12/c1-4-10-8(2)6-5-7-9(10)3/h4-7H,1H2,2-3H3",
        "InChIKey": null,
        "Canonical SMILES": "C=CC=1C(=CC=CC1C)C",
        "Molecular Formula": "C<sub>10</sub>H<sub>12</sub>",
        "Molecular Mass": "132.20",
        "Boiling Point": "65-66 °C @ Press: 10 Torr",
        "Melting Point": "48-50 °C",
        "Density": "0.9094 g/cm³ @ Temp: 20 °C"
    }
}