{
    "cas_no": "2303-01-7",
    "key_name": "<em>m</em>-Cresol purple",
    "cn_name": "间甲酚紫;间甲苯酚紫;间甲酚磺酰酞;3,3\"-二甲基酚酞;",
    "alternate_name": "Phenol, 4,4′-(1,1-dioxido-3<em>H</em>-2,1-benzoxathiol-3-ylidene)bis[3-methyl-;<em>m</em>-Cresol, 4,4′-(3<em>H</em>-2,1-benzoxathiol-3-ylidene)di-, <em>S</em>,<em>S</em>-dioxide;<em>m</em>-Cresol purple;Phenol, 4,4′-(3<em>H</em>-2,1-benzoxathiol-3-ylidene)bis[3-methyl-, <em>S</em>,<em>S</em>-dioxide;<em>o</em>-Toluenesulfonic acid, α-hydroxy-α,α-bis(4-hydroxy-<em>o</em>-tolyl)-, γ-sultone;3<em>H</em>-2,1-Benzoxathiole, phenol deriv.;4,4′-(1,1-Dioxido-3<em>H</em>-2,1-benzoxathiol-3-ylidene)bis[3-methylphenol];Cresol purple;<em>m</em>-Cresolsulfonephthalein;Metacresol Purple;NSC 9607;3,3-Bis(4-hydroxy-2-methylphenyl)-3<em>H</em>-benzo[<em>c</em>][1,2]oxathiole 1,1-dioxide",
    "duplicated_cas_no": "2877-89-6;88492-48-2",
    "SMILES": "CC1=C(C2(C=3C(S(=O)(=O)O2)=CC=CC3)C4=C(C)C=C(O)C=C4)C=CC(O)=C1",
    "meta_data": {
        "InChI": "InChI=1S/C21H18O5S/c1-13-11-15(22)7-9-17(13)21(18-10-8-16(23)12-14(18)2)19-5-3-4-6-20(19)27(24,25)26-21/h3-12,22-23H,1-2H3",
        "InChIKey": null,
        "Canonical SMILES": "O=S1(=O)OC(C2=CC=C(O)C=C2C)(C3=CC=C(O)C=C3C)C=4C=CC=CC41",
        "Molecular Formula": "C<sub>21</sub>H<sub>18</sub>O<sub>5</sub>S",
        "Molecular Mass": "382.43",
        "Melting Point": "296 °C"
    }
}