{
    "cas_no": "4752-10-7",
    "key_name": "1,4-Dichlorophthalazine",
    "cn_name": null,
    "alternate_name": "Phthalazine, 1,4-dichloro-;1,4-Dichlorophthalazine",
    "duplicated_cas_no": "",
    "SMILES": "ClC=1C2=C(C(Cl)=NN1)C=CC=C2",
    "meta_data": {
        "InChI": "InChI=1S/C8H4Cl2N2/c9-7-5-3-1-2-4-6(5)8(10)12-11-7/h1-4H",
        "InChIKey": null,
        "Canonical SMILES": "ClC1=NN=C(Cl)C=2C=CC=CC12",
        "Molecular Formula": "C<sub>8</sub>H<sub>4</sub>Cl<sub>2</sub>N<sub>2</sub>",
        "Molecular Mass": "199.04",
        "Melting Point": "163 °C"
    }
}