{
    "cas_no": "1439-36-7",
    "key_name": "1-(Triphenylphosphoranylidene)-2-propanone",
    "cn_name": "1-三苯基膦-2-丙酮;",
    "alternate_name": "2-Propanone, 1-(triphenylphosphoranylidene)-;2-Propanone, (triphenylphosphoranylidene)-;1-(Triphenylphosphoranylidene)-2-propanone;(Acetonylidene)triphenylphosphorane;(Acetylmethylene)triphenylphosphorane;Triphenyl(acetylmethylene)phosphorane;(Triphenylphosphoranylidene)acetone;(2-Oxopropylidene)triphenylphosphorane;(Triphenylphosphoranylidene)-2-propanone;1-(Triphenylphosphoranylidene)acetone;1-(Triphenylphosphorylidene)-2-propanone;Methyl (triphenylphosphoranylidene)methyl ketone;NSC 407394;3-(Triphenylphosphoranylidene)-2-propanone;1-(Triphenylphosphanylidene)propan-2-one;1-(Triphenyl-λ<sup>5</sup>-phosphanylidene)propan-2-one;1-(Triphenyl-λ5-phosphaneylidene)propan-2-one",
    "duplicated_cas_no": "",
    "SMILES": "P(=CC(C)=O)(C1=CC=CC=C1)(C2=CC=CC=C2)C3=CC=CC=C3",
    "meta_data": {
        "InChI": "InChI=1S/C21H19OP/c1-18(22)17-23(19-11-5-2-6-12-19,20-13-7-3-8-14-20)21-15-9-4-10-16-21/h2-17H,1H3",
        "InChIKey": null,
        "Canonical SMILES": "O=C(C=P(C=1C=CC=CC1)(C=2C=CC=CC2)C=3C=CC=CC3)C",
        "Molecular Formula": "C<sub>21</sub>H<sub>19</sub>OP",
        "Molecular Mass": "318.35",
        "Melting Point": "200-202 °C"
    }
}