{
    "cas_no": "599-71-3",
    "key_name": "<em>N</em>-Hydroxybenzenesulfonamide",
    "cn_name": "苯磺基异羟肟酸;",
    "alternate_name": "Benzenesulfonamide, <em>N</em>-hydroxy-;<em>N</em>-Hydroxybenzenesulfonamide;Hydroxylamine, <em>N</em>-(phenylsulfonyl)-;Piloty's acid;Benzenesulfohydroxamic acid;<em>N</em>-(Phenylsulfonyl)hydroxylamine;NSC 45357",
    "duplicated_cas_no": "",
    "SMILES": "S(NO)(=O)(=O)C1=CC=CC=C1",
    "meta_data": {
        "InChI": "InChI=1S/C6H7NO3S/c8-7-11(9,10)6-4-2-1-3-5-6/h1-5,7-8H",
        "InChIKey": null,
        "Canonical SMILES": "O=S(=O)(NO)C=1C=CC=CC1",
        "Molecular Formula": "C<sub>6</sub>H<sub>7</sub>NO<sub>3</sub>S",
        "Molecular Mass": "173.19",
        "Melting Point": "125 °C (decomp)"
    }
}