{
    "cas_no": "119-62-0",
    "key_name": "2-Amino-1-(4-nitrophenyl)-1,3-propanediol",
    "cn_name": "2-氨基-1-(4-硝基苯基)-1,3-丙二醇;1-对硝基苯基-2-氨基-1,3-丙二醇;",
    "alternate_name": "1,3-Propanediol, 2-amino-1-(4-nitrophenyl)-;1,3-Propanediol, 2-amino-1-(<em>p</em>-nitrophenyl)-;2-Amino-1-(4-nitrophenyl)-1,3-propanediol;1-(<em>p</em>-Nitrophenyl)-2-amino-1,3-propanediol;<em>p</em>-Nitrophenyl-2-amino-1,3-propanediol;2-Amino-1-<em>p</em>-nitrophenyl-1,3-propanediol;1-(<em>p</em>-Nitrophenyl)-1,3-dihydroxy-2-aminopropane;1-(4-Nitrophenyl)-2-amino-1,3-propanediol;1-(4-Nitrophenyl)-2-aminopropane-1,3-diol;NSC 163951",
    "duplicated_cas_no": "",
    "SMILES": "C(C(CO)N)(O)C1=CC=C(N(=O)=O)C=C1",
    "meta_data": {
        "InChI": "InChI=1S/C9H12N2O4/c10-8(5-12)9(13)6-1-3-7(4-2-6)11(14)15/h1-4,8-9,12-13H,5,10H2",
        "InChIKey": null,
        "Canonical SMILES": "O=N(=O)C1=CC=C(C=C1)C(O)C(N)CO",
        "Molecular Formula": "C<sub>9</sub>H<sub>12</sub>N<sub>2</sub>O<sub>4</sub>",
        "Molecular Mass": "212.20",
        "Melting Point": "161-162 °C"
    }
}