{
    "cas_no": "1712-69-2",
    "key_name": "1-Methoxy-4-(1-methylethenyl)benzene",
    "cn_name": null,
    "alternate_name": "Benzene, 1-methoxy-4-(1-methylethenyl)-;Anisole, <em>p</em>-isopropenyl-;1-Methoxy-4-(1-methylethenyl)benzene;Pseudoestragole;<em>ps</em>-Estragole;2-(<em>p</em>-Methoxyphenyl)propene;2-(<em>p</em>-Methoxyphenyl)propylene;<em>p</em>-Methoxy-α-methylstyrene;4-Methoxy-α-methylstyrene;<em>p</em>-Isopropenylanisole;α-Methyl-<em>p</em>-methoxystyrene;4-Isopropenylphenyl methyl ether;<em>p</em>-Isopropenylphenyl methyl ether;2-(<em>p</em>-Anisyl)propene;ψ-Estragole;2-(4-Methoxyphenyl)propene;NSC 89344;4-Isopropenyl-1-methoxybenzene;4-(1-Propen-2-yl)anisole;1-Methoxy-4-(prop-1-en-2-yl)benzene;4-Isopropenylanisole;1-Isopropenyl-4-methoxybenzene",
    "duplicated_cas_no": "",
    "SMILES": "C(C)(=C)C1=CC=C(OC)C=C1",
    "meta_data": {
        "InChI": "InChI=1S/C10H12O/c1-8(2)9-4-6-10(11-3)7-5-9/h4-7H,1H2,2-3H3",
        "InChIKey": null,
        "Canonical SMILES": "O(C1=CC=C(C=C1)C(=C)C)C",
        "Molecular Formula": "C<sub>10</sub>H<sub>12</sub>O",
        "Molecular Mass": "148.20",
        "Boiling Point": "120 °C @ Press: 12 Torr",
        "Melting Point": "32 °C"
    }
}