{
    "cas_no": "94-05-3",
    "key_name": "Ethyl (ethoxymethylene)cyanoacetate",
    "cn_name": "乙氧甲叉氰乙酸乙酯;2-氰基-3-乙氧基-2-丙烯酸乙酯;",
    "alternate_name": "2-Propenoic acid, 2-cyano-3-ethoxy-, ethyl ester;Acrylic acid, 2-cyano-3-ethoxy-, ethyl ester;Ethyl 2-cyano-3-ethoxyacrylate;Ethyl 2-cyano-3-ethoxy-2-propenoate;Ethyl (ethoxymethylene)cyanoacetate;Ethyl 3-ethoxy-2-cyanoacrylate;Ethyl α-(ethoxymethylene)-α-cyanoacetate;Ethyl cyano(ethoxymethylene)acetate;Ethyl 2-cyano-3-ethoxypropenoate;2-Cyano-3-ethoxy-2-propenoic acid ethyl ester;Ethyl 2-(ethoxymethylene)-2-cyanoacetate;Ethyl cyano(ethoxymethylidene)acetate;NSC 27797;NSC 31579;NSC 62026;2-(Ethoxymethylene)-2-cyanoacetic acid ethyl ester;2-Cyano-3-ethoxyacrylic acid ethyl ester;Ethyl 2-cyano-3-(ethyloxy)-2-propenoate;Ethyl 2-cyano-2-(ethoxymethylene)acetate;Ethyl 2-ethoxymethylidenecyanoacetate",
    "duplicated_cas_no": "",
    "SMILES": "C(C(OCC)=O)(=COCC)C#N",
    "meta_data": {
        "InChI": "InChI=1S/C8H11NO3/c1-3-11-6-7(5-9)8(10)12-4-2/h6H,3-4H2,1-2H3",
        "InChIKey": null,
        "Canonical SMILES": "N#CC(=COCC)C(=O)OCC",
        "Molecular Formula": "C<sub>8</sub>H<sub>11</sub>NO<sub>3</sub>",
        "Molecular Mass": "169.18",
        "Boiling Point": "150-155 °C @ Press: 5 Torr",
        "Melting Point": "49-50 °C"
    }
}