{
    "cas_no": "54125-02-9",
    "key_name": "[[(2<em>E</em>)-3-Methoxy-1-methylene-2-propen-1-yl]oxy]trimethylsilane",
    "cn_name": "1-甲氧基-3-(三甲基硅氧基)-丁二烯;1-甲氧基-3-三甲基硅氧基-1,3-丁二烯;",
    "alternate_name": "Silane, [[(2<em>E</em>)-3-methoxy-1-methylene-2-propen-1-yl]oxy]trimethyl-;Silane, [(3-methoxy-1-methylene-2-propenyl)oxy]trimethyl-, (<em>E</em>)-;Silane, [[(2<em>E</em>)-3-methoxy-1-methylene-2-propenyl]oxy]trimethyl-;[[(2<em>E</em>)-3-Methoxy-1-methylene-2-propen-1-yl]oxy]trimethylsilane;<em>trans</em>-1-Methoxy-3-(trimethylsiloxy)-1,3-butadiene;(<em>E</em>)-1-Methoxy-3-(trimethylsilyloxy)-1,3-butadiene;<em>trans</em>-1-Methoxy-3-[(trimethylsilyl)oxy]-1,3-butadiene;(<em>E</em>)-(3-Methoxy-1-methylene-2-propenyloxy)trimethylsilane;Danishefsky-Kitahara diene;(<em>E</em>)-((3-Methoxy-1-(methylene)allyl)oxy)trimethylsilane;(<em>E</em>)-1-Methoxy-3-trimethylsiloxy-1,3-butadiene;[[(2<em>E</em>)-3-Methoxy-1-methylene-2-propenyl]oxy]trimethylsilane;E-1-Methoxy-3-[(trimethylsilyl)oxy]buta-1,3-diene;[((2<em>E</em>)-3-Methoxy-1-methyleneprop-2-en-1-yl)oxy]trimethylsilane;(<em>E</em>)-(4-Methoxybuta-1,3-dien-2-yloxy)trimethylsilane;(E)-(4-Methoxybuta-1,3-dien-2-yloxy)trimethylsilane;[[(3E)-4-Methoxybuta-1,3-dien-2-yl]oxy](trimethyl)silane",
    "duplicated_cas_no": "",
    "SMILES": "O(C(/C=C/OC)=C)[Si](C)(C)C",
    "meta_data": {
        "InChI": "InChI=1S/C8H16O2Si/c1-8(6-7-9-2)10-11(3,4)5/h6-7H,1H2,2-5H3/b7-6+",
        "InChIKey": null,
        "Canonical SMILES": "O(C=CC(O[Si](C)(C)C)=C)C",
        "Molecular Formula": "C<sub>8</sub>H<sub>16</sub>O<sub>2</sub>Si",
        "Molecular Mass": "172.30",
        "Boiling Point": "68-69 °C @ Press: 14 Torr",
        "Density": "0.885 g/cm³"
    }
}