{
    "cas_no": "23488-38-2",
    "key_name": "2,3,5,6-Tetrabromo-<em>p</em>-xylene",
    "cn_name": "2,3,5,6-四溴对二甲苯;",
    "alternate_name": "Benzene, 1,2,4,5-tetrabromo-3,6-dimethyl-;<em>p</em>-Xylene, 2,3,5,6-tetrabromo-;1,2,4,5-Tetrabromo-3,6-dimethylbenzene;2,3,5,6-Tetrabromo-<em>p</em>-xylene;1,4-Dimethyltetrabromobenzene;2,3,5,6-Tetrabromo-1,4-dimethylbenzene",
    "duplicated_cas_no": "",
    "SMILES": "BrC1=C(Br)C(C)=C(Br)C(Br)=C1C",
    "meta_data": {
        "InChI": "InChI=1S/C8H6Br4/c1-3-5(9)7(11)4(2)8(12)6(3)10/h1-2H3",
        "InChIKey": null,
        "Canonical SMILES": "BrC=1C(Br)=C(C(Br)=C(Br)C1C)C",
        "Molecular Formula": "C<sub>8</sub>H<sub>6</sub>Br<sub>4</sub>",
        "Molecular Mass": "421.75",
        "Melting Point": "246-248 °C"
    }
}