{
    "cas_no": "674-82-8",
    "key_name": "Diketene",
    "cn_name": "二乙烯酮;双乙烯酮;",
    "alternate_name": "2-Oxetanone, 4-methylene-;3-Butenoic acid, 3-hydroxy-, β-lactone;Diketene;Ethenone, dimer;4-Methylene-2-oxetanone;Ketene dimer;NSC 93783",
    "duplicated_cas_no": "2130-41-8;6144-29-2",
    "SMILES": "C=C1CC(=O)O1",
    "meta_data": {
        "InChI": "InChI=1S/C4H4O2/c1-3-2-4(5)6-3/h1-2H2",
        "InChIKey": null,
        "Canonical SMILES": "O=C1OC(=C)C1",
        "Molecular Formula": "C<sub>4</sub>H<sub>4</sub>O<sub>2</sub>",
        "Molecular Mass": "84.07",
        "Boiling Point": "127.4 °C",
        "Melting Point": "-6.5 °C",
        "Density": "1.0897 g/cm³"
    }
}