{
    "cas_no": "32451-19-7",
    "key_name": "2-(2-Thienyl)-4-thiazolidinecarboxylic acid",
    "cn_name": null,
    "alternate_name": "4-Thiazolidinecarboxylic acid, 2-(2-thienyl)-;2-(2-Thienyl)-4-thiazolidinecarboxylic acid;2-(2-Thienyl)-<span class=\"text-smallcaps\">L</span>-thiazolidine-4-carboxylic acid;NSC 522095;NSC 83229;2-(Thiophen-2-yl)-1,3-thiazolidine-4-carboxylic acid;2-Thien-2-yl-1,3-thiazolidine-4-carboxylic acid;2-Thiophen-2-yl-thiazolidine-4-carboxylic acid;2-Thiophen-2-yl-1,3-thiazolidine-4-carboxylic acid",
    "duplicated_cas_no": "",
    "SMILES": "C(O)(=O)C1NC(SC1)C2=CC=CS2",
    "meta_data": {
        "InChI": "InChI=1S/C8H9NO2S2/c10-8(11)5-4-13-7(9-5)6-2-1-3-12-6/h1-3,5,7,9H,4H2,(H,10,11)",
        "InChIKey": null,
        "Canonical SMILES": "O=C(O)C1NC(SC1)C=2SC=CC2",
        "Molecular Formula": "C<sub>8</sub>H<sub>9</sub>NO<sub>2</sub>S<sub>2</sub>",
        "Molecular Mass": "215.29",
        "Melting Point": "145-146 °C"
    }
}