{
    "cas_no": "7275-43-6",
    "key_name": "2,2′-Bipyridine <em>N</em>,<em>N</em>′-dioxide",
    "cn_name": null,
    "alternate_name": "2,2′-Bipyridine, 1,1′-dioxide;2,2′-Bipyridine <em>N</em>,<em>N</em>′-dioxide;2,2′-Dipyridyl <em>N</em>,<em>N</em>′-dioxide;2,2′-Dipyridyl dioxide;2,2′-Bipyridyl-1,1′-di-<em>N</em>-oxide;2,2′-Bipyridyl <em>N</em>,<em>N</em>′-dioxide;2,2′-Bipyridine di-<em>N</em>-oxide;NSC 351883;2-(1-Oxidopyridin-1-ium-2-yl)pyridin-1-ium-1-olate",
    "duplicated_cas_no": "93439-44-2",
    "SMILES": "O=N=1C(=CC=CC1)C=2N(=O)=CC=CC2",
    "meta_data": {
        "InChI": "InChI=1S/C10H8N2O2/c13-11-7-3-1-5-9(11)10-6-2-4-8-12(10)14/h1-8H",
        "InChIKey": null,
        "Canonical SMILES": "O=N=1C=CC=CC1C=2C=CC=CN2=O",
        "Molecular Formula": "C<sub>10</sub>H<sub>8</sub>N<sub>2</sub>O<sub>2</sub>",
        "Molecular Mass": "188.18",
        "Melting Point": "307-309 °C"
    }
}