{
    "cas_no": "51037-30-0",
    "key_name": "Acipimox",
    "cn_name": "阿西莫司;5-甲基吡嗪-2-羧酸4-氧化物;",
    "alternate_name": "2-Pyrazinecarboxylic acid, 5-methyl-, 4-oxide;Pyrazinecarboxylic acid, 5-methyl-, 4-oxide;Acipimox;5-Methylpyrazinecarboxylic acid 4-oxide;5-Methylpyrazine-2-carboxylic acid 4-oxide;Olbetam;Olbemox;K 9321",
    "duplicated_cas_no": "",
    "SMILES": "C(O)(=O)C=1C=N(=O)C(C)=CN1",
    "meta_data": {
        "InChI": "InChI=1S/C6H6N2O3/c1-4-2-7-5(6(9)10)3-8(4)11/h2-3H,1H3,(H,9,10)",
        "InChIKey": null,
        "Canonical SMILES": "O=C(O)C1=NC=C(N(=O)=C1)C",
        "Molecular Formula": "C<sub>6</sub>H<sub>6</sub>N<sub>2</sub>O<sub>3</sub>",
        "Molecular Mass": "154.12",
        "Melting Point": "178.5 °C"
    }
}