{
    "cas_no": "1067883-58-2",
    "key_name": "2-[2-(Dicyclohexylphosphino)phenyl]-1-methyl-1<em>H</em>-indole",
    "cn_name": null,
    "alternate_name": "1<em>H</em>-Indole, 2-[2-(dicyclohexylphosphino)phenyl]-1-methyl-;2-[2-(Dicyclohexylphosphino)phenyl]-1-methyl-1<em>H</em>-indole;CM-phos;2-(2-Dicyclohexylphosphanyl-phenyl)-1-methyl-1<em>H</em>-indole",
    "duplicated_cas_no": "",
    "SMILES": "P(C1=C(C=CC=C1)C=2N(C)C=3C(C2)=CC=CC3)(C4CCCCC4)C5CCCCC5",
    "meta_data": {
        "InChI": "InChI=1S/C27H34NP/c1-28-25-18-10-8-12-21(25)20-26(28)24-17-9-11-19-27(24)29(22-13-4-2-5-14-22)23-15-6-3-7-16-23/h8-12,17-20,22-23H,2-7,13-16H2,1H3",
        "InChIKey": null,
        "Canonical SMILES": "C=1C=CC2=C(C1)C=C(C=3C=CC=CC3P(C4CCCCC4)C5CCCCC5)N2C",
        "Molecular Formula": "C<sub>27</sub>H<sub>34</sub>NP",
        "Molecular Mass": "403.54",
        "Melting Point": "171.9-174.9 °C"
    }
}