{
    "cas_no": "38380-05-1",
    "key_name": "PCB 132",
    "cn_name": null,
    "alternate_name": "1,1′-Biphenyl, 2,2′,3,3′,4,6′-hexachloro-;2,2′,3,3′,4,6′-Hexachloro-1,1′-biphenyl;2,3,4,2′,3′,6′-Hexachlorobiphenyl;2,2′,3,3′,4,6′-Hexachlorobiphenyl;PCB 132;2,3,6,2′,3′,4′-Hexachlorobiphenyl;CB 132;(±)-PCB 132",
    "duplicated_cas_no": "153084-04-9",
    "SMILES": "ClC1=C(C(Cl)=CC=C1Cl)C2=C(Cl)C(Cl)=C(Cl)C=C2",
    "meta_data": {
        "InChI": "InChI=1S/C12H4Cl6/c13-6-3-4-7(14)11(17)9(6)5-1-2-8(15)12(18)10(5)16/h1-4H",
        "InChIKey": null,
        "Canonical SMILES": "ClC=1C=CC(=C(Cl)C1Cl)C=2C(Cl)=CC=C(Cl)C2Cl",
        "Molecular Formula": "C<sub>12</sub>H<sub>4</sub>Cl<sub>6</sub>",
        "Molecular Mass": "360.88",
        "Melting Point": "112-114 °C"
    }
}