{
    "cas_no": "6080-56-4",
    "key_name": "Lead diacetate trihydrate",
    "cn_name": "乙酸铅三水合物;醋酸铅(三水);",
    "alternate_name": "Acetic acid, lead(2+) salt, trihydrate;Lead diacetate trihydrate;Lead acetate trihydrate (Pb(OAc)<sub>2</sub>.3H<sub>2</sub>O);Lead(II) acetate trihydrate;Plumbous acetate trihydrate",
    "duplicated_cas_no": "",
    "SMILES": "C(C)(O)=O.O.[Pb]",
    "meta_data": {
        "InChI": "InChI=1S/C2H4O2.H2O.Pb/c1-2(3)4;;/h1H3,(H,3,4);1H2;",
        "InChIKey": null,
        "Canonical SMILES": "[Pb].O=C(O)C.O",
        "Molecular Formula": "C<sub>2</sub>H<sub>4</sub>O<sub>2</sub>.<sup>3</sup>/<sub>2</sub>H<sub>2</sub>O.<sup>1</sup>/<sub>2</sub>Pb",
        "Molecular Mass": "",
        "Melting Point": "75 °C",
        "Density": "2.55 g/cm³"
    }
}