{
    "cas_no": "1671-18-7",
    "key_name": "2-Chloro-1-methyl-4-(methylsulfonyl)benzene",
    "cn_name": null,
    "alternate_name": "Benzene, 2-chloro-1-methyl-4-(methylsulfonyl)-;Sulfone, 3-chloro-<em>p</em>-tolyl methyl;2-Chloro-1-methyl-4-(methylsulfonyl)benzene;3-Chloro-4-methylphenyl methyl sulfone;2-Chloro-4-(methylsulfonyl)toluene;3-Chloro-4-methyl(methylsulfonyl)benzene;2-Chloro-4-methanesulfonyl-1-methylbenzene",
    "duplicated_cas_no": "",
    "SMILES": "S(C)(=O)(=O)C1=CC(Cl)=C(C)C=C1",
    "meta_data": {
        "InChI": "InChI=1S/C8H9ClO2S/c1-6-3-4-7(5-8(6)9)12(2,10)11/h3-5H,1-2H3",
        "InChIKey": null,
        "Canonical SMILES": "O=S(=O)(C1=CC=C(C(Cl)=C1)C)C",
        "Molecular Formula": "C<sub>8</sub>H<sub>9</sub>ClO<sub>2</sub>S",
        "Molecular Mass": "204.67",
        "Melting Point": "95-96 °C"
    }
}