{
    "cas_no": "111974-69-7",
    "key_name": "Quetiapine",
    "cn_name": "喹硫平;11-[4-[2-(2-羟基乙氧基)乙基]-1-哌嗪基]二苯并[b,f][1,4]硫氮杂卓;",
    "alternate_name": "Ethanol, 2-[2-(4-dibenzo[<em>b</em>,<em>f</em>][1,4]thiazepin-11-yl-1-piperazinyl)ethoxy]-;Dibenzo[<em>b</em>,<em>f</em>][1,4]thiazepine, ethanol deriv.;2-[2-(4-Dibenzo[<em>b</em>,<em>f</em>][1,4]thiazepin-11-yl-1-piperazinyl)ethoxy]ethanol;Quetiapine;Ketipinor;Seronia",
    "duplicated_cas_no": "264256-90-8",
    "SMILES": "C(COCCO)N1CCN(C=2C=3C(SC=4C(N2)=CC=CC4)=CC=CC3)CC1",
    "meta_data": {
        "InChI": "InChI=1S/C21H25N3O2S/c25-14-16-26-15-13-23-9-11-24(12-10-23)21-17-5-1-3-7-19(17)27-20-8-4-2-6-18(20)22-21/h1-8,25H,9-16H2",
        "InChIKey": null,
        "Canonical SMILES": "OCCOCCN1CCN(C2=NC=3C=CC=CC3SC=4C=CC=CC42)CC1",
        "Molecular Formula": "C<sub>21</sub>H<sub>25</sub>N<sub>3</sub>O<sub>2</sub>S",
        "Molecular Mass": "383.51",
        "Melting Point": "172-173 °C"
    }
}