{
    "cas_no": "10541-83-0",
    "key_name": "4-(Methylamino)benzoic acid",
    "cn_name": "4-甲氨基苯甲酸;对甲氨基苯甲酸;",
    "alternate_name": "Benzoic acid, 4-(methylamino)-;Benzoic acid, <em>p</em>-(methylamino)-;4-(Methylamino)benzoic acid;<em>p</em>-(Methylamino)benzoic acid;<em>N</em>-Methyl-4-aminobenzoic acid;4-(<em>N</em>-Methylamino)benzoic acid;<em>p</em>-Carboxy-<em>N</em>-methylaniline;NSC 102506",
    "duplicated_cas_no": "",
    "SMILES": "C(O)(=O)C1=CC=C(NC)C=C1",
    "meta_data": {
        "InChI": "InChI=1S/C8H9NO2/c1-9-7-4-2-6(3-5-7)8(10)11/h2-5,9H,1H3,(H,10,11)",
        "InChIKey": null,
        "Canonical SMILES": "O=C(O)C1=CC=C(C=C1)NC",
        "Molecular Formula": "C<sub>8</sub>H<sub>9</sub>NO<sub>2</sub>",
        "Molecular Mass": "151.16",
        "Melting Point": "160 °C"
    }
}