{
    "cas_no": "124-18-5",
    "key_name": "Decane",
    "cn_name": "癸烷;正癸烷;",
    "alternate_name": "Decane;<em>n</em>-Decane;Cactus Normal Paraffin N 10;NSC 8781",
    "duplicated_cas_no": "",
    "SMILES": "C(CCCCC)CCCC",
    "meta_data": {
        "InChI": "InChI=1S/C10H22/c1-3-5-7-9-10-8-6-4-2/h3-10H2,1-2H3",
        "InChIKey": null,
        "Canonical SMILES": "CCCCCCCCCC",
        "Molecular Formula": "C<sub>10</sub>H<sub>22</sub>",
        "Molecular Mass": "142.28",
        "Boiling Point": "174.1 °C",
        "Melting Point": "-29.7 °C",
        "Density": "0.7300 g/cm³ @ Temp: 20 °C"
    }
}