{
    "cas_no": "3147-50-0",
    "key_name": "2,6-Dihydroxybenzamide",
    "cn_name": null,
    "alternate_name": "Benzamide, 2,6-dihydroxy-;γ-Resorcylamide;2,6-Dihydroxybenzamide;2,6-Dihydroxybenzoic acid amide;NSC 49192",
    "duplicated_cas_no": "",
    "SMILES": "C(N)(=O)C1=C(O)C=CC=C1O",
    "meta_data": {
        "InChI": "InChI=1S/C7H7NO3/c8-7(11)6-4(9)2-1-3-5(6)10/h1-3,9-10H,(H2,8,11)",
        "InChIKey": null,
        "Canonical SMILES": "O=C(N)C=1C(O)=CC=CC1O",
        "Molecular Formula": "C<sub>7</sub>H<sub>7</sub>NO<sub>3</sub>",
        "Molecular Mass": "153.14",
        "Melting Point": "218 °C"
    }
}