{
    "cas_no": "13391-28-1",
    "key_name": "5-Methoxybenzofuran",
    "cn_name": "5-甲氧基苯并呋喃;",
    "alternate_name": "Benzofuran, 5-methoxy-;5-Methoxybenzofuran;R 7236;NSC 149953",
    "duplicated_cas_no": "",
    "SMILES": "O(C)C=1C=C2C(=CC1)OC=C2",
    "meta_data": {
        "InChI": "InChI=1S/C9H8O2/c1-10-8-2-3-9-7(6-8)4-5-11-9/h2-6H,1H3",
        "InChIKey": null,
        "Canonical SMILES": "O1C=CC=2C=C(OC)C=CC12",
        "Molecular Formula": "C<sub>9</sub>H<sub>8</sub>O<sub>2</sub>",
        "Molecular Mass": "148.16",
        "Boiling Point": "266 °C @ Press: 706 Torr",
        "Melting Point": "32-33 °C"
    }
}