{
    "cas_no": "1184-85-6",
    "key_name": "<em>N</em>-Methylmethanesulfonamide",
    "cn_name": "甲磺酰甲胺;",
    "alternate_name": "Methanesulfonamide, <em>N</em>-methyl-;<em>N</em>-Methylmethanesulfonamide;NSC 137909;Methyl(methylsulfonyl)amine;N-Methylmethanesulfonamide",
    "duplicated_cas_no": "196815-02-8",
    "SMILES": "S(NC)(C)(=O)=O",
    "meta_data": {
        "InChI": "InChI=1S/C2H7NO2S/c1-3-6(2,4)5/h3H,1-2H3",
        "InChIKey": null,
        "Canonical SMILES": "O=S(=O)(NC)C",
        "Molecular Formula": "C<sub>2</sub>H<sub>7</sub>NO<sub>2</sub>S",
        "Molecular Mass": "109.15",
        "Boiling Point": "153-154 °C @ Press: 15 Torr"
    }
}