{
    "cas_no": "17576-35-1",
    "key_name": "1,3,3-Trimethoxy-1-propene",
    "cn_name": null,
    "alternate_name": "1-Propene, 1,3,3-trimethoxy-;Acrolein, 3-methoxy-, dimethyl acetal;Propene, 1,3,3-trimethoxy-;1,3,3-Trimethoxy-1-propene;1,3,3-Trimethoxypropene",
    "duplicated_cas_no": "29446-10-4",
    "SMILES": "C(C=COC)(OC)OC",
    "meta_data": {
        "InChI": "InChI=1S/C6H12O3/c1-7-5-4-6(8-2)9-3/h4-6H,1-3H3",
        "InChIKey": null,
        "Canonical SMILES": "O(C=CC(OC)OC)C",
        "Molecular Formula": "C<sub>6</sub>H<sub>12</sub>O<sub>3</sub>",
        "Molecular Mass": "132.16",
        "Boiling Point": "30 °C @ Press: 0.5 Torr",
        "Density": "0.9667 g/cm³ @ Temp: 20 °C"
    }
}