{
    "cas_no": "2942-40-7",
    "key_name": "4-Nitro-1<em>H</em>-indazole",
    "cn_name": "4-硝基吲唑;",
    "alternate_name": "1<em>H</em>-Indazole, 4-nitro-;4-Nitro-1<em>H</em>-indazole;4-Nitroindazole;NSC 96892",
    "duplicated_cas_no": "",
    "SMILES": "N(=O)(=O)C1=C2C(NN=C2)=CC=C1",
    "meta_data": {
        "InChI": "InChI=1S/C7H5N3O2/c11-10(12)7-3-1-2-6-5(7)4-8-9-6/h1-4H,(H,8,9)",
        "InChIKey": null,
        "Canonical SMILES": "O=N(=O)C=1C=CC=C2NN=CC21",
        "Molecular Formula": "C<sub>7</sub>H<sub>5</sub>N<sub>3</sub>O<sub>2</sub>",
        "Molecular Mass": "163.13",
        "Melting Point": "202-203 °C"
    }
}