{
    "cas_no": "1624-62-0",
    "key_name": "(+)-Estrone 3-methyl ether",
    "cn_name": null,
    "alternate_name": "Estra-1,3,5(10)-trien-17-one, 3-methoxy-;3-Methoxyestra-1,3,5(10)-trien-17-one;Estrone 3-methyl ether;Estrone methyl ether;3-Methoxyestra-1,3,5-trien-17-one;3-Methoxyoestra-1,3,5(10)-trien-17-one;Oestrone methyl ether;3-Methoxyestrone;3-<em>O</em>-Methylestrone;Estrone <em>O</em>-methyl ether;(+)-Estrone 3-methyl ether;3-Methoxyestra-1,3,5(10)triene-17-one;NSC 88911;(+)-Estrone methyl ether;Mestrone;(8R,9S,13S,14S)-3-Methoxy-13-methyl-6,7,8,9,11,12,13,14,15,16-decahydro-17<em>H</em>-cyclopenta[<em>a</em>]phenanthren-17-one",
    "duplicated_cas_no": "30519-93-8;60727-55-1;1207541-74-9;1221293-86-2",
    "SMILES": "C[C@@]12[C@]([C@]3([C@@](C=4C(CC3)=CC(OC)=CC4)(CC1)[H])[H])(CCC2=O)[H]",
    "meta_data": {
        "InChI": "InChI=1S/C19H24O2/c1-19-10-9-15-14-6-4-13(21-2)11-12(14)3-5-16(15)17(19)7-8-18(19)20/h4,6,11,15-17H,3,5,7-10H2,1-2H3/t15-,16-,17+,19+/m1/s1",
        "InChIKey": null,
        "Canonical SMILES": "O=C1CCC2C3CCC4=CC(OC)=CC=C4C3CCC12C",
        "Molecular Formula": "C<sub>19</sub>H<sub>24</sub>O<sub>2</sub>",
        "Molecular Mass": "284.39",
        "Melting Point": "164-165 °C"
    }
}