{
    "cas_no": "4712-38-3",
    "key_name": "1-Butanol-<em>d</em>",
    "cn_name": null,
    "alternate_name": "1-Butanol-<em>d</em>;Butyl alcohol-<em>d</em>;Butanol-<em>O</em>-<em>d</em>;<em>n</em>-Butanol-<em>O</em>-<em>d</em>;1-Deuteriooxybutane",
    "duplicated_cas_no": "",
    "SMILES": "C(CC)CO[2H]",
    "meta_data": {
        "InChI": "InChI=1S/C4H10O/c1-2-3-4-5/h5H,2-4H2,1H3/i5D",
        "InChIKey": null,
        "Canonical SMILES": "OCCCC",
        "Molecular Formula": "C<sub>4</sub>H<sub>9</sub>DO",
        "Molecular Mass": "",
        "Boiling Point": "118 °C"
    }
}