{
    "cas_no": "335-36-4",
    "key_name": "Perfluoro-2-butyltetrahydrofuran",
    "cn_name": "全氟丁基四氢呋喃;庚氟四氢基-2-(九氟丁基)呋喃;",
    "alternate_name": "Furan, 2,2,3,3,4,4,5-heptafluorotetrahydro-5-(1,1,2,2,3,3,4,4,4-nonafluorobutyl)-;Furan, heptafluorotetrahydro-2-(nonafluorobutyl)-;Furan, 2,2,3,3,4,4,5-heptafluorotetrahydro-5-(nonafluorobutyl)-;2,2,3,3,4,4,5-Heptafluorotetrahydro-5-(1,1,2,2,3,3,4,4,4-nonafluorobutyl)furan;Perfluoro-2-butyltetrahydrofuran;Fluorinert FC 75;FC 75;FC 75R;2,2,3,3,4,4,5-Heptafluorotetrahydro-5-(nonafluorobutyl)furan;2,2,3,3,4,4,5-Heptafluoro-5-(1,1,2,2,3,3,4,4,4-nonafluorobutyl)oxolane",
    "duplicated_cas_no": "11072-16-5;12627-87-1",
    "SMILES": "C(C(C(C(F)(F)F)(F)F)(F)F)(F)(F)C1(F)C(F)(F)C(F)(F)C(F)(F)O1",
    "meta_data": {
        "InChI": "InChI=1S/C8F16O/c9-1(10,4(15,16)7(20,21)22)2(11,12)6(19)3(13,14)5(17,18)8(23,24)25-6",
        "InChIKey": null,
        "Canonical SMILES": "FC(F)(F)C(F)(F)C(F)(F)C(F)(F)C1(F)OC(F)(F)C(F)(F)C1(F)F",
        "Molecular Formula": "C<sub>8</sub>F<sub>16</sub>O",
        "Molecular Mass": "416.06",
        "Boiling Point": "102.6 °C",
        "Density": "1.7660 g/cm³ @ Temp: 20 °C"
    }
}