{
    "cas_no": "20395-28-2",
    "key_name": "1-Pentanol, 5-chloro-, 1-acetate",
    "cn_name": "5-氯乙酸苯酯;",
    "alternate_name": "1-Pentanol, 5-chloro-, 1-acetate;1-Pentanol, 5-chloro-, acetate;5-Chloropentyl acetate;5-Chloro-1-amyl acetate;5-Chloro-1-acetoxypentane;5-Chloro-1-pentanol acetate;5-Chloro-1-pentyl acetate;1-Acetoxy-5-chloropentane;NSC 76003",
    "duplicated_cas_no": "",
    "SMILES": "C(CCCCCl)OC(C)=O",
    "meta_data": {
        "InChI": "InChI=1S/C7H13ClO2/c1-7(9)10-6-4-2-3-5-8/h2-6H2,1H3",
        "InChIKey": null,
        "Canonical SMILES": "O=C(OCCCCCCl)C",
        "Molecular Formula": "C<sub>7</sub>H<sub>13</sub>ClO<sub>2</sub>",
        "Molecular Mass": "164.63",
        "Boiling Point": "103 °C @ Press: 18 Torr",
        "Density": "1.0648 g/cm³ @ Temp: 20 °C"
    }
}