{
    "cas_no": "2905-69-3",
    "key_name": "Methyl 2,5-dichlorobenzoate",
    "cn_name": "2,5-二氯苯甲酸甲酯e;",
    "alternate_name": "Benzoic acid, 2,5-dichloro-, methyl ester;Methyl 2,5-dichlorobenzoate;2,5-Dichlorobenzoic acid methyl ester",
    "duplicated_cas_no": "",
    "SMILES": "C(OC)(=O)C1=C(Cl)C=CC(Cl)=C1",
    "meta_data": {
        "InChI": "InChI=1S/C8H6Cl2O2/c1-12-8(11)6-4-5(9)2-3-7(6)10/h2-4H,1H3",
        "InChIKey": null,
        "Canonical SMILES": "O=C(OC)C1=CC(Cl)=CC=C1Cl",
        "Molecular Formula": "C<sub>8</sub>H<sub>6</sub>Cl<sub>2</sub>O<sub>2</sub>",
        "Molecular Mass": "205.04",
        "Melting Point": "37-40 °C"
    }
}