{
    "cas_no": "39562-70-4",
    "key_name": "Nitrendipine",
    "cn_name": "尼群地平;2,6-二甲基-4-(3-硝基苯基)-1,4-二氢-3,5-吡啶二甲酸甲乙酯;",
    "alternate_name": "3,5-Pyridinedicarboxylic acid, 1,4-dihydro-2,6-dimethyl-4-(3-nitrophenyl)-, 3-ethyl 5-methyl ester;3,5-Pyridinedicarboxylic acid, 1,4-dihydro-2,6-dimethyl-4-(3-nitrophenyl)-, ethyl methyl ester;BAY-e 5009;Nitrendipine;Bayotensin;Baypress;(±)-BAY E 5009;(±)-Nitrendipine;Nitrepin;Nitrendipin;Bylotensin;Deiten;Nidrel;Cardif;Baylotensin;MeSH ID: D009568",
    "duplicated_cas_no": "86052-02-0;146904-08-7",
    "SMILES": "C(OCC)(=O)C=1C(C(C(OC)=O)=C(C)NC1C)C2=CC(N(=O)=O)=CC=C2",
    "meta_data": {
        "InChI": "InChI=1S/C18H20N2O6/c1-5-26-18(22)15-11(3)19-10(2)14(17(21)25-4)16(15)12-7-6-8-13(9-12)20(23)24/h6-9,16,19H,5H2,1-4H3",
        "InChIKey": null,
        "Canonical SMILES": "O=C(OC)C1=C(NC(=C(C(=O)OCC)C1C=2C=CC=C(C2)N(=O)=O)C)C",
        "Molecular Formula": "C<sub>18</sub>H<sub>20</sub>N<sub>2</sub>O<sub>6</sub>",
        "Molecular Mass": "360.36",
        "Melting Point": "158 °C"
    }
}