{
    "cas_no": "6956-96-3",
    "key_name": "2,3-Dimethoxy-1,4-naphthoquinone",
    "cn_name": "2,3-二甲氧基-1,4-萘醌;",
    "alternate_name": "1,4-Naphthalenedione, 2,3-dimethoxy-;1,4-Naphthoquinone, 2,3-dimethoxy-;2,3-Dimethoxy-1,4-naphthalenedione;2,3-Dimethoxy-1,4-naphthoquinone;2,3-Dimethoxy-<em>p</em>-naphthoquinone;2,3-Dimethoxynaphthoquinone;NSC 69355;2,3-Dimethoxy-1,4-dihydronaphthalene-1,4-dione",
    "duplicated_cas_no": "",
    "SMILES": "O=C1C=2C(C(=O)C(OC)=C1OC)=CC=CC2",
    "meta_data": {
        "InChI": "InChI=1S/C12H10O4/c1-15-11-9(13)7-5-3-4-6-8(7)10(14)12(11)16-2/h3-6H,1-2H3",
        "InChIKey": null,
        "Canonical SMILES": "O=C1C(OC)=C(OC)C(=O)C=2C=CC=CC12",
        "Molecular Formula": "C<sub>12</sub>H<sub>10</sub>O<sub>4</sub>",
        "Molecular Mass": "218.21",
        "Melting Point": "112-114 °C"
    }
}