{
    "cas_no": "118353-04-1",
    "key_name": "4-Chloro-5-(2,3-dichlorophenoxy)-2-nitrobenzenamine",
    "cn_name": "4-氯-5-(2,3-二氯苯氧基)-2-硝基苯胺;",
    "alternate_name": "Benzenamine, 4-chloro-5-(2,3-dichlorophenoxy)-2-nitro-;4-Chloro-5-(2,3-dichlorophenoxy)-2-nitrobenzenamine;4-Chloro-5-(2,3-dichlorophenoxy)-2-nitroaniline",
    "duplicated_cas_no": "",
    "SMILES": "O(C1=C(Cl)C=C(N(=O)=O)C(N)=C1)C2=C(Cl)C(Cl)=CC=C2",
    "meta_data": {
        "InChI": "InChI=1S/C12H7Cl3N2O3/c13-6-2-1-3-10(12(6)15)20-11-5-8(16)9(17(18)19)4-7(11)14/h1-5H,16H2",
        "InChIKey": null,
        "Canonical SMILES": "O=N(=O)C1=CC(Cl)=C(OC=2C=CC=C(Cl)C2Cl)C=C1N",
        "Molecular Formula": "C<sub>12</sub>H<sub>7</sub>Cl<sub>3</sub>N<sub>2</sub>O<sub>3</sub>",
        "Molecular Mass": "333.55",
        "Melting Point": "149-150 °C"
    }
}