{
    "cas_no": "938-35-2",
    "key_name": "6-Chloro-2,3-dihydro-4-methyl-1<em>H</em>-inden-1-one",
    "cn_name": null,
    "alternate_name": "1<em>H</em>-Inden-1-one, 6-chloro-2,3-dihydro-4-methyl-;1-Indanone, 6-chloro-4-methyl-;6-Chloro-2,3-dihydro-4-methyl-1<em>H</em>-inden-1-one",
    "duplicated_cas_no": "",
    "SMILES": "CC1=C2C(=CC(Cl)=C1)C(=O)CC2",
    "meta_data": {
        "InChI": "InChI=1S/C10H9ClO/c1-6-4-7(11)5-9-8(6)2-3-10(9)12/h4-5H,2-3H2,1H3",
        "InChIKey": null,
        "Canonical SMILES": "O=C1C2=CC(Cl)=CC(=C2CC1)C",
        "Molecular Formula": "C<sub>10</sub>H<sub>9</sub>ClO",
        "Molecular Mass": "180.63",
        "Melting Point": "111-112 °C"
    }
}