{
    "cas_no": "3095-48-5",
    "key_name": "Benzoic acid, 4-amino-3,5-dimethyl-, methyl ester",
    "cn_name": null,
    "alternate_name": "Benzoic acid, 4-amino-3,5-dimethyl-, methyl ester;Methyl 4-amino-3,5-dimethylbenzoate;4-(Carbomethoxy)-2,6-dimethylaniline;4-Amino-3,5-dimethylbenzoic acid methyl ester",
    "duplicated_cas_no": "",
    "SMILES": "C(OC)(=O)C1=CC(C)=C(N)C(C)=C1",
    "meta_data": {
        "InChI": "InChI=1S/C10H13NO2/c1-6-4-8(10(12)13-3)5-7(2)9(6)11/h4-5H,11H2,1-3H3",
        "InChIKey": null,
        "Canonical SMILES": "O=C(OC)C=1C=C(C(N)=C(C1)C)C",
        "Molecular Formula": "C<sub>10</sub>H<sub>13</sub>NO<sub>2</sub>",
        "Molecular Mass": "179.22",
        "Melting Point": "106-107 °C"
    }
}