{
    "cas_no": "4187-86-4",
    "key_name": "1-Pentyn-3-ol",
    "cn_name": "1-戊炔-3-醇;乙基乙炔基甲醇;",
    "alternate_name": "1-Pentyn-3-ol;Ethylethynylcarbinol;3-Hydroxy-1-pentyne;(<em>RS</em>)-1-Pentyn-3-ol;NSC 60556;Pent-1-yn-3-ol",
    "duplicated_cas_no": "65253-21-6",
    "SMILES": "C(CC)(C#C)O",
    "meta_data": {
        "InChI": "InChI=1S/C5H8O/c1-3-5(6)4-2/h1,5-6H,4H2,2H3",
        "InChIKey": null,
        "Canonical SMILES": "C#CC(O)CC",
        "Molecular Formula": "C<sub>5</sub>H<sub>8</sub>O",
        "Molecular Mass": "84.12",
        "Boiling Point": "125 °C",
        "Density": "0.8926 g/cm³ @ Temp: 15 °C"
    }
}