{
    "cas_no": "3065-79-0",
    "key_name": "3,3′-Diethyl-9-methylthiacarbocyanine iodide",
    "cn_name": null,
    "alternate_name": "Benzothiazolium, 3-ethyl-2-[3-(3-ethyl-2(3<em>H</em>)-benzothiazolylidene)-2-methyl-1-propen-1-yl]-, iodide (1:1);Benzothiazolium, 3-ethyl-2-[3-(3-ethyl-2-benzothiazolinylidene)-2-methylpropenyl]-, iodide;Benzothiazolium, 3-ethyl-2-[3-(3-ethyl-2(3<em>H</em>)-benzothiazolylidene)-2-methyl-1-propenyl]-, iodide;3-Ethyl-2-[3-(3-ethyl-2-benzothiazolinylidene)-2-methylpropenyl]benzothiazolium iodide;Thiacarbocyanine iodide, 3,3′-diethyl-9-methyl-;3,3′-Diethyl-9-methylthiacarbocyanine iodide;3,3′-Diethyl-9-methyl-2,2′-thiacarbocyanine iodide;Bis(3-ethyl-2-benzothiazole)-β-methyltrimethinecyanine iodide;NK 77;ST 656;3-Ethyl-2-(3-(3-ethylbenzo[<em>d</em>]thiazol-2(3<em>H</em>)-ylidene)-2-methylprop-1-en-1-yl)benzo[<em>d</em>]thiazol-3-ium iodide;NSC 96932",
    "duplicated_cas_no": "51895-84-2",
    "SMILES": "C(C)N1C=2C(SC1=CC(=CC3=[N+](CC)C=4C(S3)=CC=CC4)C)=CC=CC2.[I-]",
    "meta_data": {
        "InChI": "InChI=1S/C22H23N2S2.HI/c1-4-23-17-10-6-8-12-19(17)25-21(23)14-16(3)15-22-24(5-2)18-11-7-9-13-20(18)26-22;/h6-15H,4-5H2,1-3H3;1H/q+1;/p-1",
        "InChIKey": null,
        "Canonical SMILES": "[I-].S1C=2C=CC=CC2N(C1=CC(=CC=3SC=4C=CC=CC4[N+]3CC)C)CC",
        "Molecular Formula": "C<sub>22</sub>H<sub>23</sub>N<sub>2</sub>S<sub>2</sub>.I",
        "Molecular Mass": "",
        "Melting Point": "285 °C"
    }
}