{
    "cas_no": "14617-85-7",
    "key_name": "<em>p</em>-Nitrophenyl myristate",
    "cn_name": null,
    "alternate_name": "Tetradecanoic acid, 4-nitrophenyl ester;Myristic acid, <em>p</em>-nitrophenyl ester;<em>p</em>-Nitrophenyl myristate;<em>p</em>-Nitrophenyl tetradecanoate;4-Nitrophenyl tetradecanoate;4-Nitrophenyl myristate;NSC 122044",
    "duplicated_cas_no": "",
    "SMILES": "O(C(CCCCCCCCCCCCC)=O)C1=CC=C(N(=O)=O)C=C1",
    "meta_data": {
        "InChI": "InChI=1S/C20H31NO4/c1-2-3-4-5-6-7-8-9-10-11-12-13-20(22)25-19-16-14-18(15-17-19)21(23)24/h14-17H,2-13H2,1H3",
        "InChIKey": null,
        "Canonical SMILES": "O=C(OC1=CC=C(C=C1)N(=O)=O)CCCCCCCCCCCCC",
        "Molecular Formula": "C<sub>20</sub>H<sub>31</sub>NO<sub>4</sub>",
        "Molecular Mass": "349.46",
        "Melting Point": "55 °C"
    }
}