{
    "cas_no": "12154-84-6",
    "key_name": "[(1,2,5,6-η)-1,5-Cyclooctadiene](2,4-pentanedionato-κ<em>O</em><sup>2</sup>,κ<em>O</em><sup>4</sup>)iridium",
    "cn_name": null,
    "alternate_name": "Iridium, [(1,2,5,6-η)-1,5-cyclooctadiene](2,4-pentanedionato-κ<em>O</em><sup>2</sup>,κ<em>O</em><sup>4</sup>)-;Iridium, [(1,2,5,6-η)-1,5-cyclooctadiene](2,4-pentanedionato-<em>O</em>,<em>O</em>′)-;Iridium, (1,5-cyclooctadiene)(2,4-pentanedionato)-;Iridium, (2,4-pentanedionato)(1,5-cyclooctadiene)-;Iridium, [(1,2,5,6-η)-1,5-cyclooctadiene](2,4-pentanedionato-κ<em>O</em>,κ<em>O</em>′)-;1,5-Cyclooctadiene, iridium complex;[(1,2,5,6-η)-1,5-Cyclooctadiene](2,4-pentanedionato-κ<em>O</em><sup>2</sup>,κ<em>O</em><sup>4</sup>)iridium;(Acetylacetonato)(1,5-cyclooctadiene)iridium;Ir(cod)(acac)",
    "duplicated_cas_no": "",
    "SMILES": "CC1=O[Ir+]234([CH]5=[CH]2CC[CH]3=[CH]4CC5)O=C(C)[CH-]1",
    "meta_data": {
        "InChI": "InChI=1S/C8H12.C5H7O2.Ir/c1-2-4-6-8-7-5-3-1;1-4(6)3-5(2)7;/h1-2,7-8H,3-6H2;3H,1-2H3;/q;-1;+1",
        "InChIKey": null,
        "Canonical SMILES": "O1=C([CH-]C(=O[Ir+]1234[CH]=5CC[CH]4=[CH]3CC[CH]52)C)C",
        "Molecular Formula": "C<sub>13</sub>H<sub>19</sub>IrO<sub>2</sub>",
        "Molecular Mass": "",
        "Melting Point": "155 °C"
    }
}