{
    "cas_no": "7612-96-6",
    "key_name": "1-(4-Isothiocyanatophenyl)-2-phenyldiazene",
    "cn_name": "4-苯偶氮硫代异氰酸酯;",
    "alternate_name": "Diazene, 1-(4-isothiocyanatophenyl)-2-phenyl-;Isothiocyanic acid, <em>p</em>-(phenylazo)phenyl ester;Diazene, (4-isothiocyanatophenyl)phenyl-;1-(4-Isothiocyanatophenyl)-2-phenyldiazene;Isothiocyanic acid, ester with C.I. Solvent Yellow 7;Azobenzene-4-isothiocyanate;4-Isothiocyanatoazobenzene;4-Phenylazophenyl isothiocyanate;<em>p</em>-Phenylazophenyl isothiocyanate",
    "duplicated_cas_no": "",
    "SMILES": "N(=NC1=CC=CC=C1)C2=CC=C(N=C=S)C=C2",
    "meta_data": {
        "InChI": "InChI=1S/C13H9N3S/c17-10-14-11-6-8-13(9-7-11)16-15-12-4-2-1-3-5-12/h1-9H",
        "InChIKey": null,
        "Canonical SMILES": "S=C=NC1=CC=C(N=NC=2C=CC=CC2)C=C1",
        "Molecular Formula": "C<sub>13</sub>H<sub>9</sub>N<sub>3</sub>S",
        "Molecular Mass": "239.30",
        "Melting Point": "95 °C"
    }
}