{
    "cas_no": "155270-99-8",
    "key_name": "Istradefylline",
    "cn_name": null,
    "alternate_name": "1<em>H</em>-Purine-2,6-dione, 8-[(1<em>E</em>)-2-(3,4-dimethoxyphenyl)ethenyl]-1,3-diethyl-3,7-dihydro-7-methyl-;1<em>H</em>-Purine-2,6-dione, 8-[2-(3,4-dimethoxyphenyl)ethenyl]-1,3-diethyl-3,7-dihydro-7-methyl-, (<em>E</em>)-;8-[(1<em>E</em>)-2-(3,4-Dimethoxyphenyl)ethenyl]-1,3-diethyl-3,7-dihydro-7-methyl-1<em>H</em>-purine-2,6-dione;KW 6002;Istradefylline;Nourianz;Nouriast",
    "duplicated_cas_no": "",
    "SMILES": "CN1C2=C(N(CC)C(=O)N(CC)C2=O)N=C1/C=C/C3=CC(OC)=C(OC)C=C3",
    "meta_data": {
        "InChI": "InChI=1S/C20H24N4O4/c1-6-23-18-17(19(25)24(7-2)20(23)26)22(3)16(21-18)11-9-13-8-10-14(27-4)15(12-13)28-5/h8-12H,6-7H2,1-5H3/b11-9+",
        "InChIKey": null,
        "Canonical SMILES": "O=C1C2=C(N=C(C=CC3=CC=C(OC)C(OC)=C3)N2C)N(C(=O)N1CC)CC",
        "Molecular Formula": "C<sub>20</sub>H<sub>24</sub>N<sub>4</sub>O<sub>4</sub>",
        "Molecular Mass": "384.43",
        "Melting Point": "191 °C"
    }
}