{
    "cas_no": "41148-79-2",
    "key_name": "<em>N</em>-[(3<em>S</em>)-Tetrahydro-2,5-dioxo-3-furanyl]acetamide",
    "cn_name": null,
    "alternate_name": "Acetamide, <em>N</em>-[(3<em>S</em>)-tetrahydro-2,5-dioxo-3-furanyl]-;Acetamide, <em>N</em>-(tetrahydro-2,5-dioxo-3-furanyl)-, (<em>S</em>)-;<em>N</em>-[(3<em>S</em>)-Tetrahydro-2,5-dioxo-3-furanyl]acetamide;<em>N</em>-Acetyl-<span class=\"text-smallcaps\">L</span>-aspartic acid anhydride;<em>N</em>-Acetyl-<span class=\"text-smallcaps\">L</span>-(<em>S</em>)-aspartic anhydride;<span class=\"text-smallcaps\">L</span>-(<em>S</em>)-<em>N</em>-Acetylaspartic anhydride;<em>N</em>-Acetyl-<span class=\"text-smallcaps\">L</span>-aspartic anhydride;<em>N</em>-Acetylaspartyl anhydride",
    "duplicated_cas_no": "",
    "SMILES": "N(C(C)=O)[C@H]1CC(=O)OC1=O",
    "meta_data": {
        "InChI": "InChI=1S/C6H7NO4/c1-3(8)7-4-2-5(9)11-6(4)10/h4H,2H2,1H3,(H,7,8)/t4-/m0/s1",
        "InChIKey": null,
        "Canonical SMILES": "O=C1OC(=O)C(NC(=O)C)C1",
        "Molecular Formula": "C<sub>6</sub>H<sub>7</sub>NO<sub>4</sub>",
        "Molecular Mass": "157.12",
        "Melting Point": "141 °C"
    }
}