{
    "cas_no": "3811-49-2",
    "key_name": "Salithion",
    "cn_name": "水杨硫磷;杀抗松粉剂；杀抗松乳剂；蔬果磷粉剂；蔬果硫磷乳剂；水杨硫磷粉剂；水杨硫磷乳剂；环硫磷粉剂；;",
    "alternate_name": "4<em>H</em>-1,3,2-Benzodioxaphosphorin, 2-methoxy-, 2-sulfide;Phosphorothioic acid, cyclic <em>O</em>,<em>O</em>-(methylene-<em>o</em>-phenylene) <em>O</em>-methyl ester;Phosphorothioic acid, <em>O</em>-methyl ester, cyclic <em>O</em>,<em>O</em>-ester with <em>o</em>-hydroxybenzyl alcohol;Benzyl alcohol, <em>o</em>-hydroxy-, cyclic <em>O</em>,<em>O</em>-ester with <em>O</em>-methyl phosphorothioate;Salithion;2-Methoxy-4<em>H</em>-1,3,2-benzodioxaphosphorin-2-sulfide;Saligenin cyclic methyl phosphorothionate;2-Methoxy-4<em>H</em>-1,3,2-benzodioxaphospholin-2-sulfide;Fenfosphorin;Dioxabenzophos;Dioxabenzofos;2-Methoxy-2,4-dihydro-1,3,2λ5-benzodioxaphosphinine-2-thione",
    "duplicated_cas_no": "92470-71-8",
    "SMILES": "O(C)P1(=S)OC=2C(CO1)=CC=CC2",
    "meta_data": {
        "InChI": "InChI=1S/C8H9O3PS/c1-9-12(13)10-6-7-4-2-3-5-8(7)11-12/h2-5H,6H2,1H3",
        "InChIKey": null,
        "Canonical SMILES": "S=P1(OC=2C=CC=CC2CO1)OC",
        "Molecular Formula": "C<sub>8</sub>H<sub>9</sub>O<sub>3</sub>PS",
        "Molecular Mass": "216.19",
        "Melting Point": "55 °C"
    }
}