{
    "cas_no": "1465-25-4",
    "key_name": "<em>N</em>-1-Naphthylethylenediamine dihydrochloride",
    "cn_name": "N-(1-萘基)乙二胺二盐酸盐;",
    "alternate_name": "1,2-Ethanediamine, <em>N</em><sup>1</sup>-1-naphthalenyl-, hydrochloride (1:2);1,2-Ethanediamine, <em>N</em>-1-naphthalenyl-, dihydrochloride;Ethylenediamine, <em>N</em>-1-naphthyl-, dihydrochloride;<em>N</em>-1-Naphthylethylenediamine dihydrochloride;Bratton-Marshall reagent;Reagents, Bratton-Marshall;<em>N</em>-(1-Naphthyl)ethylendiamine dihydrochloride;NEDA;NEDA (amine);<em>N</em>-Naphthylethylenediamine dihydrochloride",
    "duplicated_cas_no": "2973284-72-7",
    "SMILES": "N(CCN)C=1C2=C(C=CC1)C=CC=C2.Cl",
    "meta_data": {
        "InChI": "InChI=1S/C12H14N2.2ClH/c13-8-9-14-12-7-3-5-10-4-1-2-6-11(10)12;;/h1-7,14H,8-9,13H2;2*1H",
        "InChIKey": null,
        "Canonical SMILES": "Cl.NCCNC1=CC=CC=2C=CC=CC21",
        "Molecular Formula": "C<sub>12</sub>H<sub>14</sub>N<sub>2</sub>.2ClH",
        "Molecular Mass": "",
        "Melting Point": "188-190 °C"
    }
}