{
    "cas_no": "392-70-1",
    "key_name": "4-Fluoro-2,6-dimethylbenzenamine",
    "cn_name": "4-氟-2,6-二甲基苯胺;",
    "alternate_name": "Benzenamine, 4-fluoro-2,6-dimethyl-;2,6-Xylidine, 4-fluoro-;4-Fluoro-2,6-dimethylbenzenamine;4-Fluoro-2,6-dimethylaniline;2,6-Dimethyl-4-fluoroaniline",
    "duplicated_cas_no": "",
    "SMILES": "NC1=C(C)C=C(F)C=C1C",
    "meta_data": {
        "InChI": "InChI=1S/C8H10FN/c1-5-3-7(9)4-6(2)8(5)10/h3-4H,10H2,1-2H3",
        "InChIKey": null,
        "Canonical SMILES": "FC=1C=C(C(N)=C(C1)C)C",
        "Molecular Formula": "C<sub>8</sub>H<sub>10</sub>FN",
        "Molecular Mass": "139.17",
        "Boiling Point": "117-118 °C @ Press: 14 Torr"
    }
}