{
    "cas_no": "914-00-1",
    "key_name": "Methacycline",
    "cn_name": "甲烯土霉素;",
    "alternate_name": "2-Naphthacenecarboxamide, 4-(dimethylamino)-1,4,4a,5,5a,6,11,12a-octahydro-3,5,10,12,12a-pentahydroxy-6-methylene-1,11-dioxo-, (4<em>S</em>,4a<em>R</em>,5<em>S</em>,5a<em>R</em>,12a<em>S</em>)-;2-Naphthacenecarboxamide, 4-(dimethylamino)-1,4,4a,5,5a,6,11,12a-octahydro-3,5,10,12,12a-pentahydroxy-6-methylene-1,11-dioxo-;2-Naphthacenecarboxamide, 4-(dimethylamino)-1,4,4a,5,5a,6,11,12a-octahydro-3,5,10,12,12a-pentahydroxy-6-methylene-1,11-dioxo-, [4<em>S</em>-(4α,4aα,5α,5aα,12aα)]-;(4<em>S</em>,4a<em>R</em>,5<em>S</em>,5a<em>R</em>,12a<em>S</em>)-4-(Dimethylamino)-1,4,4a,5,5a,6,11,12a-octahydro-3,5,10,12,12a-pentahydroxy-6-methylene-1,11-dioxo-2-naphthacenecarboxamide;4-Dimethylamino-1,4,4a,5,5a,6,11,12a-octahydro-3,5,10,12,12a-pentahydroxy-6-methylene-1,11-dioxo-2-naphthacenecarboxamide;Metacycline;Methacycline;6-Methyleneoxytetracycline;Rondomycin;6-Methylene-5-hydroxytetracycline;Oxytetracycline, 6-methylene-;6-Deoxy-6-methylene-6-demethyl-5-hydroxytetracycline;Bialatan;6-Demethyl-6-deoxy-5-hydroxy-6-methylenetetracycline;Tri-methacycline;GS 2876;MeSH ID: D008690",
    "duplicated_cas_no": "130604-14-7;2326-40-1;5585-78-4;7285-00-9;10597-93-0;60683-14-9;77506-08-2;82290-85-5;857345-45-0",
    "SMILES": "O[C@]12[C@]([C@H](N(C)C)C(O)=C(C(N)=O)C1=O)([C@@H](O)[C@]3(C(=C2O)C(=O)C=4C(C3=C)=CC=CC4O)[H])[H]",
    "meta_data": {
        "InChI": "InChI=1S/C22H22N2O8/c1-7-8-5-4-6-9(25)11(8)16(26)12-10(7)17(27)14-15(24(2)3)18(28)13(21(23)31)20(30)22(14,32)19(12)29/h4-6,10,14-15,17,25,27-29,32H,1H2,2-3H3,(H2,23,31)/t10-,14-,15+,17+,22+/m1/s1",
        "InChIKey": null,
        "Canonical SMILES": "O=C(N)C=1C(=O)C2(O)C(O)=C3C(=O)C=4C(O)=CC=CC4C(=C)C3C(O)C2C(C1O)N(C)C",
        "Molecular Formula": "C<sub>22</sub>H<sub>22</sub>N<sub>2</sub>O<sub>8</sub>",
        "Molecular Mass": "442.42",
        "Melting Point": "205 °C (decomp)"
    }
}