{
    "cas_no": "6138-41-6",
    "key_name": "Trigonelline hydrochloride",
    "cn_name": "盐酸胡芦巴碱;N-甲基烟酸内盐盐酸盐;",
    "alternate_name": "Pyridinium, 3-carboxy-1-methyl-, chloride (1:1);Pyridinium, 3-carboxy-1-methyl-, chloride;3-Carboxy-1-methylpyridinium chloride;Trigonelline, chloride;Trigonelline hydrochloride;<em>N</em>-Methyl-3-carboxypyridinium chloride",
    "duplicated_cas_no": "209064-35-7",
    "SMILES": "C(O)(=O)C1=C[N+](C)=CC=C1.[Cl-]",
    "meta_data": {
        "InChI": "InChI=1S/C7H7NO2.ClH/c1-8-4-2-3-6(5-8)7(9)10;/h2-5H,1H3;1H",
        "InChIKey": null,
        "Canonical SMILES": "[Cl-].O=C(O)C1=CC=C[N+](=C1)C",
        "Molecular Formula": "C<sub>7</sub>H<sub>8</sub>NO<sub>2</sub>.Cl",
        "Molecular Mass": "",
        "Melting Point": "243-244.5 °C (decomp)"
    }
}