{
    "cas_no": "1004-38-2",
    "key_name": "2,4,6-Triaminopyrimidine",
    "cn_name": "2,4,6-三氨基嘧啶;",
    "alternate_name": "2,4,6-Pyrimidinetriamine;Pyrimidine, 2,4,6-triamino-;2,4,6-Triaminopyrimidine;NSC 26493",
    "duplicated_cas_no": "42911-01-3;42911-04-6;42911-03-5",
    "SMILES": "NC=1C=C(N)N=C(N)N1",
    "meta_data": {
        "InChI": "InChI=1S/C4H7N5/c5-2-1-3(6)9-4(7)8-2/h1H,(H6,5,6,7,8,9)",
        "InChIKey": null,
        "Canonical SMILES": "N=1C(=NC(N)=CC1N)N",
        "Molecular Formula": "C<sub>4</sub>H<sub>7</sub>N<sub>5</sub>",
        "Molecular Mass": "125.13",
        "Melting Point": "249-251 °C"
    }
}