{
    "cas_no": "19230-50-3",
    "key_name": "2-Iodo-5-nitrobenzoic acid",
    "cn_name": null,
    "alternate_name": "Benzoic acid, 2-iodo-5-nitro-;2-Iodo-5-nitrobenzoic acid",
    "duplicated_cas_no": "",
    "SMILES": "C(O)(=O)C1=CC(N(=O)=O)=CC=C1I",
    "meta_data": {
        "InChI": "InChI=1S/C7H4INO4/c8-6-2-1-4(9(12)13)3-5(6)7(10)11/h1-3H,(H,10,11)",
        "InChIKey": null,
        "Canonical SMILES": "O=C(O)C1=CC(=CC=C1I)N(=O)=O",
        "Molecular Formula": "C<sub>7</sub>H<sub>4</sub>INO<sub>4</sub>",
        "Molecular Mass": "293.02",
        "Melting Point": "197-198 °C"
    }
}