{
    "cas_no": "623-93-8",
    "key_name": "5-Nonanol",
    "cn_name": null,
    "alternate_name": "5-Nonanol;Dibutylcarbinol;NSC 4552",
    "duplicated_cas_no": "",
    "SMILES": "C(CCCC)(CCCC)O",
    "meta_data": {
        "InChI": "InChI=1S/C9H20O/c1-3-5-7-9(10)8-6-4-2/h9-10H,3-8H2,1-2H3",
        "InChIKey": null,
        "Canonical SMILES": "OC(CCCC)CCCC",
        "Molecular Formula": "C<sub>9</sub>H<sub>20</sub>O",
        "Molecular Mass": "144.25",
        "Boiling Point": "193 °C",
        "Melting Point": "51-52 °C",
        "Density": "0.823 g/cm³ @ Temp: 18 °C"
    }
}