{
    "cas_no": "645-13-6",
    "key_name": "1-[4-(1-Methylethyl)phenyl]ethanone",
    "cn_name": "4\"-异丙基苯乙酮;",
    "alternate_name": "Ethanone, 1-[4-(1-methylethyl)phenyl]-;Acetophenone, 4′-isopropyl-;1-[4-(1-Methylethyl)phenyl]ethanone;Cuminone;<em>p</em>-Isopropylacetophenone;4-Isopropylacetophenone;4′-Isopropylacetophenone;NSC 9165;1-(4-Isopropylphenyl)ethanone;1-(4-Isopropylphenyl)ethan-1-one;1-(4-Propan-2-ylphenyl)ethanone;1-[4-(Propan-2-yl)phenyl]ethan-1-one",
    "duplicated_cas_no": "",
    "SMILES": "C(C)(C)C1=CC=C(C(C)=O)C=C1",
    "meta_data": {
        "InChI": "InChI=1S/C11H14O/c1-8(2)10-4-6-11(7-5-10)9(3)12/h4-8H,1-3H3",
        "InChIKey": null,
        "Canonical SMILES": "O=C(C1=CC=C(C=C1)C(C)C)C",
        "Molecular Formula": "C<sub>11</sub>H<sub>14</sub>O",
        "Molecular Mass": "162.23",
        "Boiling Point": "254 °C",
        "Density": "0.9681 g/cm³"
    }
}