{
    "cas_no": "2136-81-4",
    "key_name": "1-Chloro-3-(trichloromethyl)benzene",
    "cn_name": "3-氯苯并三氯化物;",
    "alternate_name": "Benzene, 1-chloro-3-(trichloromethyl)-;Toluene, <em>m</em>,α,α,α-tetrachloro-;1-Chloro-3-(trichloromethyl)benzene;<em>m</em>-Chlorobenzotrichloride;3-Chlorobenzotrichloride;<em>m</em>-Chloro(trichloromethyl)benzene;NSC 59737",
    "duplicated_cas_no": "",
    "SMILES": "C(Cl)(Cl)(Cl)C1=CC(Cl)=CC=C1",
    "meta_data": {
        "InChI": "InChI=1S/C7H4Cl4/c8-6-3-1-2-5(4-6)7(9,10)11/h1-4H",
        "InChIKey": null,
        "Canonical SMILES": "ClC1=CC=CC(=C1)C(Cl)(Cl)Cl",
        "Molecular Formula": "C<sub>7</sub>H<sub>4</sub>Cl<sub>4</sub>",
        "Molecular Mass": "229.92",
        "Boiling Point": "255 °C",
        "Melting Point": "0.6 °C"
    }
}