{
    "cas_no": "3460-44-4",
    "key_name": "α-Methylbenzyl butyrate",
    "cn_name": null,
    "alternate_name": "Butanoic acid, 1-phenylethyl ester;Butyric acid, α-methylbenzyl ester;α-Methylbenzyl butyrate;Styralyl butyrate;α-Phenethyl butyrate;1-Phenylethyl butanoate;1-Phenylethyl butyrate",
    "duplicated_cas_no": "122407-72-1",
    "SMILES": "C(OC(CCC)=O)(C)C1=CC=CC=C1",
    "meta_data": {
        "InChI": "InChI=1S/C12H16O2/c1-3-7-12(13)14-10(2)11-8-5-4-6-9-11/h4-6,8-10H,3,7H2,1-2H3",
        "InChIKey": null,
        "Canonical SMILES": "O=C(OC(C=1C=CC=CC1)C)CCC",
        "Molecular Formula": "C<sub>12</sub>H<sub>16</sub>O<sub>2</sub>",
        "Molecular Mass": "192.25",
        "Boiling Point": "83.0-83.5 °C @ Press: 3 Torr",
        "Density": "0.9972 g/cm³ @ Temp: 20 °C"
    }
}