{
    "cas_no": "608-07-1",
    "key_name": "5-Methoxytryptamine",
    "cn_name": "5-甲氧基色胺;",
    "alternate_name": "1<em>H</em>-Indole-3-ethanamine, 5-methoxy-;Indole, 3-(2-aminoethyl)-5-methoxy-;5-Methoxy-1<em>H</em>-indole-3-ethanamine;5-MOT;3-(2-Aminoethyl)-5-methoxyindole;Methoxytryptamine;5-Methoxytryptamine;Deacetylmelatonin;2-(5-Methoxyindol-3-yl)ethylamine;[2-(5-Methoxy-1<em>H</em>-indol-3-yl)ethyl]amine;NSC 56422;2-[5-(Methyloxy)-1<em>H</em>-indol-3-yl]ethanamine;2-(5-Methoxy-1<em>H</em>-indol-3-yl)ethanamine;5-MeOT;2-(5-Methoxy-1<em>H</em>-indol-3-yl)ethan-1-amine;MeSH ID: D008735",
    "duplicated_cas_no": "",
    "SMILES": "C(CN)C=1C=2C(NC1)=CC=C(OC)C2",
    "meta_data": {
        "InChI": "InChI=1S/C11H14N2O/c1-14-9-2-3-11-10(6-9)8(4-5-12)7-13-11/h2-3,6-7,13H,4-5,12H2,1H3",
        "InChIKey": null,
        "Canonical SMILES": "O(C=1C=CC=2NC=C(C2C1)CCN)C",
        "Molecular Formula": "C<sub>11</sub>H<sub>14</sub>N<sub>2</sub>O",
        "Molecular Mass": "190.24",
        "Boiling Point": "165-170 °C @ Press: 0.1 Torr",
        "Melting Point": "121.5 °C",
        "Density": "1.460 g/cm³"
    }
}