{
    "cas_no": "3108-24-5",
    "key_name": "Ethyl 2,2,3,3,4,4,5,5,6,6,7,7,8,8,8-pentadecafluorooctanoate",
    "cn_name": "全氟辛酸乙酯;",
    "alternate_name": "Octanoic acid, 2,2,3,3,4,4,5,5,6,6,7,7,8,8,8-pentadecafluoro-, ethyl ester;Octanoic acid, pentadecafluoro-, ethyl ester;Ethyl 2,2,3,3,4,4,5,5,6,6,7,7,8,8,8-pentadecafluorooctanoate;Ethyl perfluorooctanoate;Ethyl pentadecafluorooctanoate",
    "duplicated_cas_no": "173441-60-6",
    "SMILES": "C(C(C(C(C(OCC)=O)(F)F)(F)F)(F)F)(C(C(C(F)(F)F)(F)F)(F)F)(F)F",
    "meta_data": {
        "InChI": "InChI=1S/C10H5F15O2/c1-2-27-3(26)4(11,12)5(13,14)6(15,16)7(17,18)8(19,20)9(21,22)10(23,24)25/h2H2,1H3",
        "InChIKey": null,
        "Canonical SMILES": "O=C(OCC)C(F)(F)C(F)(F)C(F)(F)C(F)(F)C(F)(F)C(F)(F)C(F)(F)F",
        "Molecular Formula": "C<sub>10</sub>H<sub>5</sub>F<sub>15</sub>O<sub>2</sub>",
        "Molecular Mass": "442.12",
        "Boiling Point": "74-76 °C @ Press: 18 Torr",
        "Density": "1.623 g/cm³ @ Temp: 25 °C"
    }
}