{
    "cas_no": "671-42-1",
    "key_name": "3-Aminoazepan-2-one",
    "cn_name": "(±)-α-氨基-ε-己内酰胺;",
    "alternate_name": "2<em>H</em>-Azepin-2-one, 3-aminohexahydro-;3-Aminohexahydro-2<em>H</em>-azepin-2-one;α-Amino-ε-caprolactam;3-Amino-1-azacycloheptan-2-one;α-Aminocaprolactam;3-Aminoperhydro-2-azepinone;3-Amino-ε-caprolactam;<span class=\"text-smallcaps\">DL</span>-α-Amino-ε-caprolactam;<span class=\"text-smallcaps\">DL</span>-α-Aminocaprolactam;(±)-α-Amino-ε-caprolactam;(±)-α-Aminocaprolactam;<em>dl</em>-α-Amino-ε-caprolactam;3-Amino-2-oxohomopiperidine;NSC 522223;3-Aminoazepan-2-one;2-Oxoazepan-3-amine",
    "duplicated_cas_no": "17929-90-7",
    "SMILES": "NC1C(=O)NCCCC1",
    "meta_data": {
        "InChI": "InChI=1S/C6H12N2O/c7-5-3-1-2-4-8-6(5)9/h5H,1-4,7H2,(H,8,9)",
        "InChIKey": null,
        "Canonical SMILES": "O=C1NCCCCC1N",
        "Molecular Formula": "C<sub>6</sub>H<sub>12</sub>N<sub>2</sub>O",
        "Molecular Mass": "128.17",
        "Boiling Point": "165-168 °C @ Press: 12 Torr",
        "Melting Point": "68-69 °C"
    }
}