{
    "cas_no": "922-62-3",
    "key_name": "<em>cis</em>-3-Methyl-2-pentene",
    "cn_name": "顺-3-甲基-2-戊烯;顺-3-甲基-2-戊烯;",
    "alternate_name": "2-Pentene, 3-methyl-, (2<em>Z</em>)-;2-Pentene, 3-methyl-, (<em>Z</em>)-;(2<em>Z</em>)-3-Methyl-2-pentene;<em>cis</em>-3-Methyl-2-pentene;(<em>Z</em>)-3-Methyl-2-pentene",
    "duplicated_cas_no": "",
    "SMILES": "C(\\CC)(=C\\C)/C",
    "meta_data": {
        "InChI": "InChI=1S/C6H12/c1-4-6(3)5-2/h4H,5H2,1-3H3/b6-4-",
        "InChIKey": null,
        "Canonical SMILES": "C(=C(C)CC)C",
        "Molecular Formula": "C<sub>6</sub>H<sub>12</sub>",
        "Molecular Mass": "84.16",
        "Boiling Point": "67.7 °C",
        "Melting Point": "-134.8 °C"
    }
}