{
    "cas_no": "1889-67-4",
    "key_name": "2,3-Dimethyl-2,3-diphenylbutane",
    "cn_name": "2,3-二甲基-2,3-二苯基丁烷;",
    "alternate_name": "Benzene, 1,1′-(1,1,2,2-tetramethyl-1,2-ethanediyl)bis-;Bibenzyl, α,α,α′,α′-tetramethyl-;1,1′-(1,1,2,2-Tetramethyl-1,2-ethanediyl)bis[benzene];Dicumene;α,α′-Dicumyl;2,3-Dimethyl-2,3-diphenylbutane;2,3-Diphenyl-2,3-dimethylbutane;Dicumyl;1,2-Diphenyltetramethylethane;Interox CC-DFB;α,α,α′,α′-Tetramethylbibenzyl;Perkadox 30;Nofmer BC;1,1,2,2-Tetramethyl-1,2-diphenylethane;Bicumyl;Nofmer BC 90;BC 90;CCDFB 90;NSC 34859;Curox CC-DC;(2,3-Dimethylbutane-2,3-diyl)dibenzene;(2,3-Dimethyl-3-phenylbutan-2-yl)benzene;DMDPB",
    "duplicated_cas_no": "",
    "SMILES": "C(C(C)(C)C1=CC=CC=C1)(C)(C)C2=CC=CC=C2",
    "meta_data": {
        "InChI": "InChI=1S/C18H22/c1-17(2,15-11-7-5-8-12-15)18(3,4)16-13-9-6-10-14-16/h5-14H,1-4H3",
        "InChIKey": null,
        "Canonical SMILES": "C=1C=CC(=CC1)C(C)(C)C(C=2C=CC=CC2)(C)C",
        "Molecular Formula": "C<sub>18</sub>H<sub>22</sub>",
        "Molecular Mass": "238.37",
        "Boiling Point": "162-165 °C @ Press: 14 Torr",
        "Melting Point": "115 °C"
    }
}