{
    "cas_no": "7539-12-0",
    "key_name": "Dihydro-3-(2-propen-1-yl)-2,5-furandione",
    "cn_name": "烯丙基琥珀酸酐;",
    "alternate_name": "2,5-Furandione, dihydro-3-(2-propen-1-yl)-;Succinic anhydride, allyl-;2,5-Furandione, dihydro-3-(2-propenyl)-;Dihydro-3-(2-propen-1-yl)-2,5-furandione;Allylsuccinic anhydride;Allylsuccinic acid anhydride;Ally succinic acid anhydride;3-Prop-2-enyloxolane-2,5-dione",
    "duplicated_cas_no": "",
    "SMILES": "C(C=C)C1C(=O)OC(=O)C1",
    "meta_data": {
        "InChI": "InChI=1S/C7H8O3/c1-2-3-5-4-6(8)10-7(5)9/h2,5H,1,3-4H2",
        "InChIKey": null,
        "Canonical SMILES": "O=C1OC(=O)C(CC=C)C1",
        "Molecular Formula": "C<sub>7</sub>H<sub>8</sub>O<sub>3</sub>",
        "Molecular Mass": "140.14",
        "Boiling Point": "135-142 °C @ Press: 16 Torr"
    }
}