{
    "cas_no": "108-50-9",
    "key_name": "2,6-Dimethylpyrazine",
    "cn_name": "2,6-二甲基吡嗪;",
    "alternate_name": "Pyrazine, 2,6-dimethyl-;2,6-Dimethylpyrazine;3,5-Dimethylpyrazine",
    "duplicated_cas_no": "",
    "SMILES": "CC1=NC(C)=CN=C1",
    "meta_data": {
        "InChI": "InChI=1S/C6H8N2/c1-5-3-7-4-6(2)8-5/h3-4H,1-2H3",
        "InChIKey": null,
        "Canonical SMILES": "N=1C=C(N=C(C1)C)C",
        "Molecular Formula": "C<sub>6</sub>H<sub>8</sub>N<sub>2</sub>",
        "Molecular Mass": "108.14",
        "Boiling Point": "155.6 °C",
        "Melting Point": "47.5 °C",
        "Density": "0.9647 g/cm³ @ Temp: 50 °C"
    }
}