{
    "cas_no": "881681-00-1",
    "key_name": "Vonoprazan",
    "cn_name": null,
    "alternate_name": "1<em>H</em>-Pyrrole-3-methanamine, 5-(2-fluorophenyl)-<em>N</em>-methyl-1-(3-pyridinylsulfonyl)-;5-(2-Fluorophenyl)-<em>N</em>-methyl-1-(3-pyridinylsulfonyl)-1<em>H</em>-pyrrole-3-methanamine;1-[5-(2-Fluorophenyl)-1-[(pyridin-3-yl)sulfonyl]-1<em>H</em>-pyrrol-3-yl]-<em>N</em>-methylmethanamine;Vonoprazan;TAK 438 free form",
    "duplicated_cas_no": "",
    "SMILES": "S(=O)(=O)(N1C(=CC(CNC)=C1)C2=C(F)C=CC=C2)C=3C=CC=NC3",
    "meta_data": {
        "InChI": "InChI=1S/C17H16FN3O2S/c1-19-10-13-9-17(15-6-2-3-7-16(15)18)21(12-13)24(22,23)14-5-4-8-20-11-14/h2-9,11-12,19H,10H2,1H3",
        "InChIKey": null,
        "Canonical SMILES": "O=S(=O)(C=1C=NC=CC1)N2C=C(C=C2C=3C=CC=CC3F)CNC",
        "Molecular Formula": "C<sub>17</sub>H<sub>16</sub>FN<sub>3</sub>O<sub>2</sub>S",
        "Molecular Mass": "345.39",
        "Melting Point": "200.2-202 °C"
    }
}