{
    "cas_no": "126544-47-6",
    "key_name": "Ciclesonide",
    "cn_name": "环索奈德;",
    "alternate_name": "Pregna-1,4-diene-3,20-dione, 16,17-[[(<em>R</em>)-cyclohexylmethylene]bis(oxy)]-11-hydroxy-21-(2-methyl-1-oxopropoxy)-, (11β,16α)-;Pregna-1,4-diene-3,20-dione, 16,17-[(cyclohexylmethylene)bis(oxy)]-11-hydroxy-21-(2-methyl-1-oxopropoxy)-, [11β,16α(<em>R</em>)]-;2<em>H</em>-Naphth[2′,1′:4,5]indeno[1,2-<em>d</em>][1,3]dioxole, pregna-1,4-diene-3,20-dione deriv.;(11β,16α)-16,17-[[(<em>R</em>)-Cyclohexylmethylene]bis(oxy)]-11-hydroxy-21-(2-methyl-1-oxopropoxy)pregna-1,4-diene-3,20-dione;Ciclesonide;(<em>R</em>)-11β,16α,17,21-Tetrahydroxypregna-1,4-diene-3,20-dione cyclic 16,17-acetal with cyclohexanecarboxaldehyde, 21-isobutyrate;RPR 251526;Alvesco;Omnaris;Cinase;BI 54903;Aservo EquiHaler;Omniair;Zetonna",
    "duplicated_cas_no": "141845-82-1",
    "SMILES": "C(COC(C(C)C)=O)(=O)[C@]12[C@]3(C)[C@@](C[C@]1(O[C@H](O2)[C@@H]4CCCCC4)[H])([C@]5([C@]([C@@H](O)C3)([C@]6(C)C(CC5)=CC(=O)C=C6)[H])[H])[H]",
    "meta_data": {
        "InChI": "InChI=1S/C32H44O7/c1-18(2)28(36)37-17-25(35)32-26(38-29(39-32)19-8-6-5-7-9-19)15-23-22-11-10-20-14-21(33)12-13-30(20,3)27(22)24(34)16-31(23,32)4/h12-14,18-19,22-24,26-27,29,34H,5-11,15-17H2,1-4H3/t22-,23-,24-,26+,27+,29+,30-,31-,32+/m0/s1",
        "InChIKey": null,
        "Canonical SMILES": "O=C1C=CC2(C(=C1)CCC3C4CC5OC(OC5(C(=O)COC(=O)C(C)C)C4(C)CC(O)C32)C6CCCCC6)C",
        "Molecular Formula": "C<sub>32</sub>H<sub>44</sub>O<sub>7</sub>",
        "Molecular Mass": "540.69",
        "Melting Point": "209-211 °C",
        "Density": "1.169 g/cm³ @ Temp: 20 °C"
    }
}