{
    "cas_no": "91-56-5",
    "key_name": "Isatin",
    "cn_name": "吲哚-2,3-二酮;靛红;",
    "alternate_name": "1<em>H</em>-Indole-2,3-dione;Indole-2,3-dione;<em>o</em>-Aminobenzoylformic anhydride;2,3-Diketoindoline;2,3-Dioxoindoline;2,3-Indolinedione;Isatic acid lactam;Isatin;Isatinic acid anhydride;Pseudoisatin;2,3-Dioxo-2,3-dihydroindole;Isatine;2,3-Dihydro-1<em>H</em>-indole-2,3-dione;2,3-Indolindione;NSC 9262;2,3-Dihydroindole-2,3-dione;MeSH ID: D007510",
    "duplicated_cas_no": "5815-00-9;84788-92-1",
    "SMILES": "O=C1C=2C(NC1=O)=CC=CC2",
    "meta_data": {
        "InChI": "InChI=1S/C8H5NO2/c10-7-5-3-1-2-4-6(5)9-8(7)11/h1-4H,(H,9,10,11)",
        "InChIKey": null,
        "Canonical SMILES": "O=C1NC=2C=CC=CC2C1=O",
        "Molecular Formula": "C<sub>8</sub>H<sub>5</sub>NO<sub>2</sub>",
        "Molecular Mass": "147.13",
        "Boiling Point": "30-40 °C",
        "Melting Point": "203 °C (decomp)"
    }
}