{
    "cas_no": "5805-57-2",
    "key_name": "1<em>H</em>-Benzimidazole-2-methanamine",
    "cn_name": null,
    "alternate_name": "1<em>H</em>-Benzimidazole-2-methanamine;Benzimidazole, 2-(aminomethyl)-;2-Aminomethylbenzimidazole;2-Benzimidazolylmethylamine;<em>C</em>-(1<em>H</em>-Benzimidazol-2-yl)methylamine;1-(1<em>H</em>-Benzimidazol-2-yl)methanamine;[(1<em>H</em>-Benzimidazol-2-yl)methyl]amine;(1<em>H</em>-Benzimidazol-2-yl)methanamine;1<em>H</em>-1,3-Benzodiazol-2-ylmethanamine;(1<em>H</em>-Benzo[<em>d</em>]imidazol-2-yl)methanamine",
    "duplicated_cas_no": "1031926-50-7",
    "SMILES": "C(N)C=1NC=2C(N1)=CC=CC2",
    "meta_data": {
        "InChI": "InChI=1S/C8H9N3/c9-5-8-10-6-3-1-2-4-7(6)11-8/h1-4H,5,9H2,(H,10,11)",
        "InChIKey": null,
        "Canonical SMILES": "N=1C=2C=CC=CC2NC1CN",
        "Molecular Formula": "C<sub>8</sub>H<sub>9</sub>N<sub>3</sub>",
        "Molecular Mass": "147.18",
        "Melting Point": "101.5 °C"
    }
}