{
    "cas_no": "6285-57-0",
    "key_name": "2-Amino-6-nitrobenzothiazole",
    "cn_name": "2-氨基-6-硝基苯并噻唑;",
    "alternate_name": "2-Benzothiazolamine, 6-nitro-;Benzothiazole, 2-amino-6-nitro-;6-Nitro-2-benzothiazolamine;2-Amino-6-nitrobenzothiazole;6-Nitro-2-aminobenzothiazole;6-Nitro-2-benzothiazolylamine;6-Nitro-1,3-benzothiazol-2-ylamine;NSC 10794;NSC 62341;NSC 62980;2-Amino-6-nitro-1,3-benzothiazole;SKA 4;6-Nitrobenzothiazol-2-amine;6-Nitrobenzo[<em>d</em>]thiazol-2-amine;6-Nitrobenzothiazole-2-ylamine",
    "duplicated_cas_no": "",
    "SMILES": "N(=O)(=O)C=1C=C2C(=CC1)N=C(N)S2",
    "meta_data": {
        "InChI": "InChI=1S/C7H5N3O2S/c8-7-9-5-2-1-4(10(11)12)3-6(5)13-7/h1-3H,(H2,8,9)",
        "InChIKey": null,
        "Canonical SMILES": "O=N(=O)C=1C=CC=2N=C(SC2C1)N",
        "Molecular Formula": "C<sub>7</sub>H<sub>5</sub>N<sub>3</sub>O<sub>2</sub>S",
        "Molecular Mass": "195.20",
        "Melting Point": "249 °C"
    }
}