{
    "cas_no": "17980-64-2",
    "key_name": "6-(2-Methoxyethoxy)-6-methyl-2,5,7,10-tetraoxa-6-silaundecane",
    "cn_name": null,
    "alternate_name": "2,5,7,10-Tetraoxa-6-silaundecane, 6-(2-methoxyethoxy)-6-methyl-;Silane, tris(2-methoxyethoxy)methyl-;6-(2-Methoxyethoxy)-6-methyl-2,5,7,10-tetraoxa-6-silaundecane;Methyltris(2-methoxyethoxy)silane;Tris(2-methoxyethoxy)methylsilane;Methyltris(methoxyethoxy)silane;LS 3660;NSC 77102",
    "duplicated_cas_no": "",
    "SMILES": "[Si](OCCOC)(OCCOC)(OCCOC)C",
    "meta_data": {
        "InChI": "InChI=1S/C10H24O6Si/c1-11-5-8-14-17(4,15-9-6-12-2)16-10-7-13-3/h5-10H2,1-4H3",
        "InChIKey": null,
        "Canonical SMILES": "O(C)CCO[Si](OCCOC)(OCCOC)C",
        "Molecular Formula": "C<sub>10</sub>H<sub>24</sub>O<sub>6</sub>Si",
        "Molecular Mass": "268.38",
        "Boiling Point": "145 °C @ Press: 15 Torr",
        "Density": "1.045 g/cm³"
    }
}