{
    "cas_no": "84-17-3",
    "key_name": "Dienestrol",
    "cn_name": "双稀雌粉;2,3-二苯酚丁二烯;双稀雌粉;",
    "alternate_name": "Phenol, 4,4′-(1,2-diethylidene-1,2-ethanediyl)bis-;Phenol, 4,4′-(diethylideneethylene)di-;4,4′-(1,2-Diethylidene-1,2-ethanediyl)bis[phenol];3,4-Bis(<em>p</em>-hydroxyphenyl)-2,4-hexadiene;Cycladiene;Dienestrol;Dienol;<em>p</em>,<em>p</em>′-(Diethylideneethylene)diphenol;4,4′-(Diethylideneethylene)diphenol;4,4′-Dihydroxy-γ,δ-diphenyl-β,δ-hexadiene;Dinovex;Di-(<em>p</em>-oxyphenyl)-2,4-hexadiene;Estroral;Gynefollin;Oestrasid;Oestrodiene;Oestroral;Restrol;Retalon;Sexadien;3,4-Di-<em>p</em>-(hydroxyphenyl)hexa-2,4-diene;2,4-Hexadiene, 3,4-bis(4-hydroxyphenyl)-;Estrodienol;Teserene;Follidiene;Follormon;Dienesterol;Synestrol;Hormofemin;DV;Dienoestrol;NSC 59809;Dehydrostilbestrol;MeSH ID: D004028",
    "duplicated_cas_no": "",
    "SMILES": "C(C(=CC)C1=CC=C(O)C=C1)(=CC)C2=CC=C(O)C=C2",
    "meta_data": {
        "InChI": "InChI=1S/C18H18O2/c1-3-17(13-5-9-15(19)10-6-13)18(4-2)14-7-11-16(20)12-8-14/h3-12,19-20H,1-2H3",
        "InChIKey": null,
        "Canonical SMILES": "OC1=CC=C(C=C1)C(=CC)C(=CC)C2=CC=C(O)C=C2",
        "Molecular Formula": "C<sub>18</sub>H<sub>18</sub>O<sub>2</sub>",
        "Molecular Mass": "266.33",
        "Melting Point": "227-228 °C",
        "Density": "1.184 g/cm³"
    }
}