{
    "cas_no": "11071-47-9",
    "key_name": "Isooctene",
    "cn_name": null,
    "alternate_name": "Isooctene;Di-<em>n</em>-butene",
    "duplicated_cas_no": "",
    "SMILES": "",
    "meta_data": {
        "InChI": "",
        "InChIKey": null,
        "Canonical SMILES": "",
        "Molecular Formula": "C<sub>8</sub>H<sub>16</sub>",
        "Molecular Mass": "",
        "Boiling Point": "80-171 °C"
    }
}