{
    "cas_no": "611-98-3",
    "key_name": "4,4′-Diaminobenzophenone",
    "cn_name": "4,4\"-二氨基二苯甲酮;",
    "alternate_name": "Methanone, bis(4-aminophenyl)-;Benzophenone, 4,4′-diamino-;Bis(4-aminophenyl)methanone;4,4′-Diaminobenzophenone;<em>p</em>,<em>p</em>′-Diaminobenzophenone;4,4′-Carbonyldianiline;4,4′-Diaminodiphenyl ketone;NSC 6096;4,4′-Bis-aminobenzophenone;Bis(4-aminophenyl) ketone",
    "duplicated_cas_no": "",
    "SMILES": "C(=O)(C1=CC=C(N)C=C1)C2=CC=C(N)C=C2",
    "meta_data": {
        "InChI": "InChI=1S/C13H12N2O/c14-11-5-1-9(2-6-11)13(16)10-3-7-12(15)8-4-10/h1-8H,14-15H2",
        "InChIKey": null,
        "Canonical SMILES": "O=C(C1=CC=C(N)C=C1)C2=CC=C(N)C=C2",
        "Molecular Formula": "C<sub>13</sub>H<sub>12</sub>N<sub>2</sub>O",
        "Molecular Mass": "212.25",
        "Melting Point": "241 °C"
    }
}