{
    "cas_no": "15181-11-0",
    "key_name": "3,5-Di-<em>tert</em>-butyltoluene",
    "cn_name": "3,5-二叔丁基甲苯;",
    "alternate_name": "Benzene, 1,3-bis(1,1-dimethylethyl)-5-methyl-;Toluene, 3,5-di-<em>tert</em>-butyl-;1,3-Bis(1,1-dimethylethyl)-5-methylbenzene;3,5-Di-<em>tert</em>-butyltoluene;1-Methyl-3,5-di-<em>tert</em>-butylbenzene;1,3-Di-<em>tert</em>-butyl-5-methylbenzene;3,5-Bis(<em>tert</em>-butyl)toluene;1,3-Ditert-butyl-5-methylbenzene",
    "duplicated_cas_no": "",
    "SMILES": "C(C)(C)(C)C1=CC(C(C)(C)C)=CC(C)=C1",
    "meta_data": {
        "InChI": "InChI=1S/C15H24/c1-11-8-12(14(2,3)4)10-13(9-11)15(5,6)7/h8-10H,1-7H3",
        "InChIKey": null,
        "Canonical SMILES": "C=1C(=CC(=CC1C(C)(C)C)C(C)(C)C)C",
        "Molecular Formula": "C<sub>15</sub>H<sub>24</sub>",
        "Molecular Mass": "204.35",
        "Boiling Point": "234-237 °C",
        "Melting Point": "31-31.9 °C"
    }
}