{
    "cas_no": "1338-41-6",
    "key_name": "Sorbitan monooctadecanoate",
    "cn_name": "斯盘60;失水山梨醇硬脂酸酯;山梨醇酐硬脂酸酯;山梨糖醇酐单硬脂酸酯;乳化剂S-60;",
    "alternate_name": "Sorbitan, monooctadecanoate;Sorbitan, monostearate;Stearic acid, monoester with sorbitan;Sorbitan monooctadecanoate;Span 60;Crill 3;MS 33;Span 55;Crill K 3;Arlacel 60;Sorbitan S;Sorgen 50;Ionet S 60;Nonion SP 60;Armotan MS;Emsorb 2505;Hodag SMS;Sorbon S 60;Newcol 60;Anhydrosorbitol stearate;Drewsorb 60;Durtan 60;Nissan Nonion SP 60;Nissan Nonion SP 60R;MS 33F;Montane 60;Rikemal S 250;Rikemal S 300;Nikkol SS 10;Nonion SP 60R;Span TS 1105;Rheodol SP-S 10;Emasol 310;Emasol S 10;Disponil SMS;Famodan MS;Solman S 300;Ionet S 60C;Atmer 103;SP 60R;Rheodol AS 10;Ahco 909;Poem S 60;Sunsoft 61NN;Liposorb S;Polycon S 60K;Polycon 60;Polycon S 80;Nissan Nonion MP 30R;Nonion MP 30R;Estol 3715;Dehymul SMS;Sorbac 60;Sunsoft 61S;Lonzest SMS;SS 10;Grindsted SMS;S 300;Emasol Super S 10F;Emalex SPE 100;SS 10M;Rheodol Super SP-S 10;SP-S 10;Nissan Nonion SP 60RP;Nonion SP 60RP;SP 60RP;SA 6638;E 491;Liposorb S 20;Sorbitan C;Emasol S 10V;Rheodol SP-S 10V;SP-S 10V;Nikkol SS 10V;Emalex SPE 100S;Poem S 250;SS 10MV;S 60;S-Maz 60k;Poem 60V;Ionet S 60V;Nikkol SS 10M;Sorgen 50V;Solman S 301V;Rheodol AS 10V;Ionet <em>S</em>-60V;Almax 3600;Poem S 60V;Emasol S 10VHL;Tego SMS;SS 10V;Span S 60;Montane 60PHA;S 7010;SP 60 (emulsifier);SP 60;AS 10;Wilsurf 60;Radiasurf 7145",
    "duplicated_cas_no": "56940-43-3;58052-16-7;64772-18-5;76011-53-5;76169-00-1;107461-71-2;368449-23-4;1051378-63-2;1629855-82-8;2245272-62-0",
    "SMILES": "",
    "meta_data": {
        "InChI": "",
        "InChIKey": null,
        "Canonical SMILES": "",
        "Molecular Formula": "C<sub>24</sub>H<sub>46</sub>O<sub>6</sub>",
        "Molecular Mass": "",
        "Melting Point": "49-65 °C",
        "Density": "1.0 g/cm³ @ Temp: 25 °C"
    }
}