{
    "cas_no": "108-44-1",
    "key_name": "<em>m</em>-Toluidine",
    "cn_name": "3-甲基苯胺;间甲苯胺;3-氨基甲苯;间氨基甲苯;",
    "alternate_name": "Benzenamine, 3-methyl-;<em>m</em>-Toluidine;3-Methylbenzenamine;3-Aminotoluene;3-Methylaniline;<em>m</em>-Aminotoluene;3-Toluidine;3-Aminophenylmethane;1-Amino-3-methylbenzene;<em>m</em>-Tolylamine;3-Methylphenylamine;(<em>m</em>-Methylphenyl)amine;<em>m</em>-Methylaniline;NSC 15349",
    "duplicated_cas_no": "",
    "SMILES": "CC1=CC(N)=CC=C1",
    "meta_data": {
        "InChI": "InChI=1S/C7H9N/c1-6-3-2-4-7(8)5-6/h2-5H,8H2,1H3",
        "InChIKey": null,
        "Canonical SMILES": "NC1=CC=CC(=C1)C",
        "Molecular Formula": "C<sub>7</sub>H<sub>9</sub>N",
        "Molecular Mass": "107.15",
        "Boiling Point": "203.3 °C",
        "Melting Point": "-31.2 °C",
        "Density": "0.9889 g/cm³ @ Temp: 20 °C"
    }
}