{
    "cas_no": "623-70-1",
    "key_name": "Ethyl <em>trans</em>-crotonate",
    "cn_name": "巴豆酸乙酯;反式-2-丁烯酸乙酯;",
    "alternate_name": "2-Butenoic acid, ethyl ester, (2<em>E</em>)-;Crotonic acid, ethyl ester, (<em>E</em>)-;2-Butenoic acid, ethyl ester, (<em>E</em>)-;<em>trans</em>-2-Butenoic acid ethyl ester;Ethyl <em>trans</em>-crotonate;Ethyl (<em>E</em>)-crotonate;(<em>E</em>)-2-Butenoic acid ethyl ester;Ethyl (<em>E</em>)-2-butenoate;Ethyl <em>trans</em>-2-butenoate;(E)-Ethyl but-2-enoate;<em>trans</em>-Crotonic acid ethyl ester;Ethyl (2E)-but-2-enoate;Ethyl (2<em>E</em>)-but-2-enoate",
    "duplicated_cas_no": "77825-56-0",
    "SMILES": "C(/C=C/C)(OCC)=O",
    "meta_data": {
        "InChI": "InChI=1S/C6H10O2/c1-3-5-6(7)8-4-2/h3,5H,4H2,1-2H3/b5-3+",
        "InChIKey": null,
        "Canonical SMILES": "O=C(OCC)C=CC",
        "Molecular Formula": "C<sub>6</sub>H<sub>10</sub>O<sub>2</sub>",
        "Molecular Mass": "114.14",
        "Boiling Point": "138 °C",
        "Density": "0.9210 g/cm³ @ Temp: 18 °C"
    }
}