{
    "cas_no": "2058-74-4",
    "key_name": "1-Methylisatin",
    "cn_name": "1-甲基靛红;1-甲基靛红;",
    "alternate_name": "1<em>H</em>-Indole-2,3-dione, 1-methyl-;Indole-2,3-dione, 1-methyl-;Isatin, 1-methyl-;1-Methyl-1<em>H</em>-indole-2,3-dione;1-Methylisatin;<em>N</em>-Methylisatin;OL 57;1-Methyl-2,3-indolinedione;1-Methylindole-2,3-dione;<em>N</em>-Methylindoline-2,3-dione;NSC 42449;<em>N</em>-Methyl-indole-2,3-dione;1-Methyl-2,3-dioxoindole;1-Methyl-2,3-dihydro-1<em>H</em>-indole-2,3-dione",
    "duplicated_cas_no": "",
    "SMILES": "O=C1C=2C(N(C)C1=O)=CC=CC2",
    "meta_data": {
        "InChI": "InChI=1S/C9H7NO2/c1-10-7-5-3-2-4-6(7)8(11)9(10)12/h2-5H,1H3",
        "InChIKey": null,
        "Canonical SMILES": "O=C1C(=O)N(C=2C=CC=CC12)C",
        "Molecular Formula": "C<sub>9</sub>H<sub>7</sub>NO<sub>2</sub>",
        "Molecular Mass": "161.16",
        "Melting Point": "130-133 °C"
    }
}