{
    "cas_no": "3251-23-8",
    "key_name": "Cupric nitrate",
    "cn_name": "硝酸铜;",
    "alternate_name": "Nitric acid, copper(2+) salt (2:1);Nitric acid, copper(2+) salt;Copper nitrate (Cu(NO<sub>3</sub>)<sub>2</sub>);Cupric nitrate;Copper(II) nitrate;Copper dinitrate;Cupric dinitrate;Copper(2+) nitrate;Claycop",
    "duplicated_cas_no": "2267987-58-4",
    "SMILES": "N(=O)(=O)O.[Cu]",
    "meta_data": {
        "InChI": "InChI=1S/Cu.HNO3/c;2-1(3)4/h;(H,2,3,4)",
        "InChIKey": null,
        "Canonical SMILES": "[Cu].O=N(=O)O",
        "Molecular Formula": "Cu.2HNO<sub>3</sub>",
        "Molecular Mass": "",
        "Melting Point": "255-256 °C",
        "Density": "3.05 g/cm³"
    }
}