{
    "cas_no": "1625-39-4",
    "key_name": "6α-Methylhydrocortisone",
    "cn_name": null,
    "alternate_name": "Pregn-4-ene-3,20-dione, 11,17,21-trihydroxy-6-methyl-, (6α,11β)-;Pregn-4-ene-3,20-dione, 11β,17,21-trihydroxy-6α-methyl-;Corticosterone, 17-hydroxy-6α-methyl-;(6α,11β)-11,17,21-Trihydroxy-6-methylpregn-4-ene-3,20-dione;U 7240;6α-Methylcortisol;6α-Methylhydrocortisone;6α-Methyl-11β,17α,21-trihydroxy-4-pregnene-3,20-dione;NSC 19618;Premedrol",
    "duplicated_cas_no": "",
    "SMILES": "C[C@@]12[C@]([C@]3([C@@]([C@]4(C)C([C@@H](C)C3)=CC(=O)CC4)([C@@H](O)C1)[H])[H])(CC[C@@]2(C(CO)=O)O)[H]",
    "meta_data": {
        "InChI": "InChI=1S/C22H32O5/c1-12-8-14-15-5-7-22(27,18(26)11-23)21(15,3)10-17(25)19(14)20(2)6-4-13(24)9-16(12)20/h9,12,14-15,17,19,23,25,27H,4-8,10-11H2,1-3H3/t12-,14-,15-,17-,19+,20-,21-,22-/m0/s1",
        "InChIKey": null,
        "Canonical SMILES": "O=C1C=C2C(C)CC3C4CCC(O)(C(=O)CO)C4(C)CC(O)C3C2(C)CC1",
        "Molecular Formula": "C<sub>22</sub>H<sub>32</sub>O<sub>5</sub>",
        "Molecular Mass": "376.49",
        "Melting Point": "203-208 °C"
    }
}