{
    "cas_no": "3083-77-0",
    "key_name": "Uracil arabinoside",
    "cn_name": "阿糖尿苷;",
    "alternate_name": "2,4(1<em>H</em>,3<em>H</em>)-Pyrimidinedione, 1-β-<span class=\"text-smallcaps\">D</span>-arabinofuranosyl-;Uracil, 1-β-<span class=\"text-smallcaps\">D</span>-arabinofuranosyl-;1-β-<span class=\"text-smallcaps\">D</span>-Arabinofuranosyl-2,4(1<em>H</em>,3<em>H</em>)-pyrimidinedione;Spongouridine;Uracil arabinoside;1-β-<span class=\"text-smallcaps\">D</span>-Arabinofuranosyluracil;Arauridine;Uracil β-<span class=\"text-smallcaps\">D</span>-arabinofuranoside;Arabinosyluracil;Arabinofuranosyluracil;Spongouridin;Ara-U;NSC 68928",
    "duplicated_cas_no": "489-61-2;92418-86-5",
    "SMILES": "O[C@@H]1[C@@H](O[C@H](CO)[C@H]1O)N2C(=O)NC(=O)C=C2",
    "meta_data": {
        "InChI": "InChI=1S/C9H12N2O6/c12-3-4-6(14)7(15)8(17-4)11-2-1-5(13)10-9(11)16/h1-2,4,6-8,12,14-15H,3H2,(H,10,13,16)/t4-,6-,7+,8-/m1/s1",
        "InChIKey": null,
        "Canonical SMILES": "O=C1C=CN(C(=O)N1)C2OC(CO)C(O)C2O",
        "Molecular Formula": "C<sub>9</sub>H<sub>12</sub>N<sub>2</sub>O<sub>6</sub>",
        "Molecular Mass": "244.20",
        "Melting Point": "213-216 °C"
    }
}