{
    "cas_no": "90-24-4",
    "key_name": "Xanthoxylin",
    "cn_name": "2-羟基-4,6-二甲氧基苯乙酮;2\"-羟基-4\",6\"-二甲氧基苯乙酮;",
    "alternate_name": "Ethanone, 1-(2-hydroxy-4,6-dimethoxyphenyl)-;Acetophenone, 2′-hydroxy-4′,6′-dimethoxy-;1-(2-Hydroxy-4,6-dimethoxyphenyl)ethanone;Brevifolin;Phloroacetophenone dimethyl ether;Xanthoxylin;2,4-Di-<em>O</em>-methylphloroacetophenone;2′-Hydroxy-4′,6′-dimethoxyacetophenone;Brevifolin (Zanthoxylum);Phloroacetophenone 2,4-dimethyl ether;1-Acetyl-2-hydroxy-4,6-dimethoxybenzene;NSC 17392;2-Acetyl-3,5-dimethoxyphenol;2′,4′-Dimethoxy-6′-hydroxyacetophenone;4′,6′-Dimethoxy-2′-hydroxyacetophenone;1-(2-Hydroxy-4,6-dimethoxyphenyl)ethan-1-one",
    "duplicated_cas_no": "1401-86-1;1401-87-2",
    "SMILES": "O(C)C1=C(C(C)=O)C(O)=CC(OC)=C1",
    "meta_data": {
        "InChI": "InChI=1S/C10H12O4/c1-6(11)10-8(12)4-7(13-2)5-9(10)14-3/h4-5,12H,1-3H3",
        "InChIKey": null,
        "Canonical SMILES": "O=C(C=1C(O)=CC(OC)=CC1OC)C",
        "Molecular Formula": "C<sub>10</sub>H<sub>12</sub>O<sub>4</sub>",
        "Molecular Mass": "196.20",
        "Boiling Point": "307 °C @ Press: 760 Torr",
        "Melting Point": "82 °C"
    }
}