{
    "cas_no": "19387-91-8",
    "key_name": "Tinidazole",
    "cn_name": "替硝唑;2-甲基-1-[2-(乙基磺酰基)乙基]-5-硝基-1H-咪唑;",
    "alternate_name": "1<em>H</em>-Imidazole, 1-[2-(ethylsulfonyl)ethyl]-2-methyl-5-nitro-;Imidazole, 1-[2-(ethylsulfonyl)ethyl]-2-methyl-5-nitro-;1-[2-(Ethylsulfonyl)ethyl]-2-methyl-5-nitro-1<em>H</em>-imidazole;Tinidazole;1-(Ethylsulfonylethyl)-2-methyl-5-nitroimidazole;CP 12574;Ethyl [2-(2-methyl-5-nitroimidazol-1-yl)ethyl] sulfone;Tinidazol;Glongyn;Fasigyn;Bioshik;Sorquetan;Trimonase;Simplotan;Fasigin;Tricolam;Pletil;Tiprogyn;Tini 300;Tindamax;Amtiba;1-(2-Ethylsulfonylethyl)-2-methyl-5-nitroimidazole;Protozol;1-[2′-(Ethylsulfonyl)-ethyl]-2-methyl-5-nitroimidazole;1-[2-(Ethanesulfonyl)ethyl]-2-methyl-5-nitro-1<em>H</em>-imidazole;1-(2-Ethanesulfonyl-ethyl)-2-methyl-5-nitro-1<em>H</em>-imidazole;Sporinex;MeSH ID: D014011",
    "duplicated_cas_no": "",
    "SMILES": "C(CS(CC)(=O)=O)N1C(N(=O)=O)=CN=C1C",
    "meta_data": {
        "InChI": "InChI=1S/C8H13N3O4S/c1-3-16(14,15)5-4-10-7(2)9-6-8(10)11(12)13/h6H,3-5H2,1-2H3",
        "InChIKey": null,
        "Canonical SMILES": "O=N(=O)C1=CN=C(N1CCS(=O)(=O)CC)C",
        "Molecular Formula": "C<sub>8</sub>H<sub>13</sub>N<sub>3</sub>O<sub>4</sub>S",
        "Molecular Mass": "247.27",
        "Melting Point": "127-128 °C"
    }
}