{
    "cas_no": "4664-16-8",
    "key_name": "6-Hydroxy-4-methyl-2-pyridone",
    "cn_name": "2,6-二羟基-4-甲基吡啶;6-羟基-4-甲基-2-吡啶;",
    "alternate_name": "2(1<em>H</em>)-Pyridinone, 6-hydroxy-4-methyl-;2,6-Pyridinediol, 4-methyl-;6-Hydroxy-4-methyl-2(1<em>H</em>)-pyridinone;4-Picoline-2,6-diol;4-Methyl-6-hydroxypyrid-2-one;2,6-Dihydroxy-4-methylpyridine;4-Methyl-2,6-pyridinediol;6-Hydroxy-4-methyl-2-pyridone;2-Hydroxy-4-methyl-6-pyridinone;NSC 110280",
    "duplicated_cas_no": "39120-54-2",
    "SMILES": "CC1=CC(=O)NC(O)=C1",
    "meta_data": {
        "InChI": "InChI=1S/C6H7NO2/c1-4-2-5(8)7-6(9)3-4/h2-3H,1H3,(H2,7,8,9)",
        "InChIKey": null,
        "Canonical SMILES": "O=C1C=C(C=C(O)N1)C",
        "Molecular Formula": "C<sub>6</sub>H<sub>7</sub>NO<sub>2</sub>",
        "Molecular Mass": "125.13",
        "Melting Point": "194 °C"
    }
}