{
    "cas_no": "119-91-5",
    "key_name": "2,2′-Biquinoline",
    "cn_name": "2,2\"-联喹啉;",
    "alternate_name": "2,2′-Biquinoline;Cuproine;2,2′-Biquinolyl;2,2′-Diquinolyl;Cuproin;2,2′-Bichinoline;NSC 1533;2,2′-Diquinoline;2-Quinolin-2-ylquinoline;2-(Quinolin-2-yl)quinoline",
    "duplicated_cas_no": "1204521-35-6",
    "SMILES": "C1(=NC2=C(C=C1)C=CC=C2)C3=NC4=C(C=C3)C=CC=C4",
    "meta_data": {
        "InChI": "InChI=1S/C18H12N2/c1-3-7-15-13(5-1)9-11-17(19-15)18-12-10-14-6-2-4-8-16(14)20-18/h1-12H",
        "InChIKey": null,
        "Canonical SMILES": "N=1C(=CC=C2C=CC=CC12)C3=NC4=CC=CC=C4C=C3",
        "Molecular Formula": "C<sub>18</sub>H<sub>12</sub>N<sub>2</sub>",
        "Molecular Mass": "256.30",
        "Melting Point": "194.5 °C"
    }
}