{
    "cas_no": "1871-76-7",
    "key_name": "Diphenylacetyl chloride",
    "cn_name": "二苯基乙酰氯;",
    "alternate_name": "Benzeneacetyl chloride, α-phenyl-;Acetyl chloride, diphenyl-;α-Phenylbenzeneacetyl chloride;Diphenylacetic acid chloride;Diphenylacetyl chloride;α,α-Diphenylacetyl chloride;2,2-Diphenylacetyl chloride;NSC 120906",
    "duplicated_cas_no": "",
    "SMILES": "C(C(Cl)=O)(C1=CC=CC=C1)C2=CC=CC=C2",
    "meta_data": {
        "InChI": "InChI=1S/C14H11ClO/c15-14(16)13(11-7-3-1-4-8-11)12-9-5-2-6-10-12/h1-10,13H",
        "InChIKey": null,
        "Canonical SMILES": "O=C(Cl)C(C=1C=CC=CC1)C=2C=CC=CC2",
        "Molecular Formula": "C<sub>14</sub>H<sub>11</sub>ClO",
        "Molecular Mass": "230.69",
        "Boiling Point": "175-176 °C @ Press: 17 Torr",
        "Melting Point": "56.5 °C"
    }
}