{
    "cas_no": "3010-80-8",
    "key_name": "Tris(4-chlorophenyl)methanol",
    "cn_name": "4,4\",4\"-三氯苯基甲醇;",
    "alternate_name": "Benzenemethanol, 4-chloro-α,α-bis(4-chlorophenyl)-;Methanol, tris(<em>p</em>-chlorophenyl)-;4-Chloro-α,α-bis(4-chlorophenyl)benzenemethanol;4,4′,4′′-Trichlorotriphenylmethanol;Tris(<em>p</em>-chlorophenyl)methanol;Tris(4-chlorophenyl)methanol;Tris(4-chlorophenyl)carbinol;Tri-<em>p</em>-chlorophenyl carbinol;4,4′,4′′-Trichlorotrityl alcohol",
    "duplicated_cas_no": "",
    "SMILES": "C(O)(C1=CC=C(Cl)C=C1)(C2=CC=C(Cl)C=C2)C3=CC=C(Cl)C=C3",
    "meta_data": {
        "InChI": "InChI=1S/C19H13Cl3O/c20-16-7-1-13(2-8-16)19(23,14-3-9-17(21)10-4-14)15-5-11-18(22)12-6-15/h1-12,23H",
        "InChIKey": null,
        "Canonical SMILES": "ClC1=CC=C(C=C1)C(O)(C2=CC=C(Cl)C=C2)C3=CC=C(Cl)C=C3",
        "Molecular Formula": "C<sub>19</sub>H<sub>13</sub>Cl<sub>3</sub>O",
        "Molecular Mass": "363.66",
        "Melting Point": "98 °C"
    }
}