{
    "cas_no": "2867-20-1",
    "key_name": "<span class=\"text-smallcaps\">DL</smallcap>-Alanyl-<smallcap>DL</span>-alanine",
    "cn_name": null,
    "alternate_name": "Alanine, alanyl-;Alanine, <em>N</em>-<span class=\"text-smallcaps\">DL</smallcap>-alanyl-, <smallcap>DL</span>-;Alanine, <em>N</em>-alanyl-;Alanylalanine;<span class=\"text-smallcaps\">DL</smallcap>-Alanyl-<smallcap>DL</span>-alanine;<span class=\"text-smallcaps\">DL</smallcap>-α-Alanine-<smallcap>DL</span>-α-alanine;<em>N</em>-<span class=\"text-smallcaps\">DL</smallcap>-Alanyl-<smallcap>DL</span>-alanine;<span class=\"text-smallcaps\">DL</smallcap>-α-Alanyl-<smallcap>DL</span>-α-alanine;NSC 89654;2-(2-Aminopropanamido)propanoic acid;2-(2-Aminopropanoylamino)propanoic acid",
    "duplicated_cas_no": "99265-26-6",
    "SMILES": "C(NC(C(C)N)=O)(C(O)=O)C",
    "meta_data": {
        "InChI": "InChI=1S/C6H12N2O3/c1-3(7)5(9)8-4(2)6(10)11/h3-4H,7H2,1-2H3,(H,8,9)(H,10,11)",
        "InChIKey": null,
        "Canonical SMILES": "O=C(O)C(NC(=O)C(N)C)C",
        "Molecular Formula": "C<sub>6</sub>H<sub>12</sub>N<sub>2</sub>O<sub>3</sub>",
        "Molecular Mass": "160.17",
        "Melting Point": "265 °C"
    }
}