{
    "cas_no": "181139-72-0",
    "key_name": "Methyl 2-[(3<em>S</em>)-3-[3-[(1<em>E</em>)-2-(7-chloro-2-quinolinyl)ethenyl]phenyl]-3-hydroxypropyl]benzoate",
    "cn_name": null,
    "alternate_name": "Benzoic acid, 2-[(3<em>S</em>)-3-[3-[(1<em>E</em>)-2-(7-chloro-2-quinolinyl)ethenyl]phenyl]-3-hydroxypropyl]-, methyl ester;Benzoic acid, 2-[3-[3-[2-(7-chloro-2-quinolinyl)ethenyl]phenyl]-3-hydroxypropyl]-, methyl ester, [<em>S</em>-(<em>E</em>)]-;Methyl 2-[(3<em>S</em>)-3-[3-[(1<em>E</em>)-2-(7-chloro-2-quinolinyl)ethenyl]phenyl]-3-hydroxypropyl]benzoate;Methyl (<em>S</em>),(E)-2-[3-[3-[2-(7-chloro-2-quinolinyl)ethenyl]phenyl]-3-hydroxypropyl]benzoate",
    "duplicated_cas_no": "1600535-53-2",
    "SMILES": "C(=C/C1=CC([C@H](CCC2=C(C(OC)=O)C=CC=C2)O)=CC=C1)\\C3=NC4=C(C=C3)C=CC(Cl)=C4",
    "meta_data": {
        "InChI": "InChI=1S/C28H24ClNO3/c1-33-28(32)25-8-3-2-6-20(25)12-16-27(31)22-7-4-5-19(17-22)9-14-24-15-11-21-10-13-23(29)18-26(21)30-24/h2-11,13-15,17-18,27,31H,12,16H2,1H3/b14-9+/t27-/m0/s1",
        "InChIKey": null,
        "Canonical SMILES": "O=C(OC)C=1C=CC=CC1CCC(O)C=2C=CC=C(C=CC=3N=C4C=C(Cl)C=CC4=CC3)C2",
        "Molecular Formula": "C<sub>28</sub>H<sub>24</sub>ClNO<sub>3</sub>",
        "Molecular Mass": "457.95",
        "Melting Point": "84 °C"
    }
}