{
    "cas_no": "2016-56-0",
    "key_name": "Dodecylamine, acetate",
    "cn_name": null,
    "alternate_name": "1-Dodecanamine, acetate (1:1);Dodecylamine, acetate;1-Dodecanamine, acetate;Laurylamine acetate;<em>n</em>-Dodecylamine acetate;Dodecylammonium acetate;Armac 12D;Lauryl ammonium acetate;Nopcogen 16L;Laurylamine acetic acid salt;NSC 97256",
    "duplicated_cas_no": "126667-13-8;8035-78-7;37316-57-7",
    "SMILES": "C(CCCCCC)CCCCCN.C(C)(O)=O",
    "meta_data": {
        "InChI": "InChI=1S/C12H27N.C2H4O2/c1-2-3-4-5-6-7-8-9-10-11-12-13;1-2(3)4/h2-13H2,1H3;1H3,(H,3,4)",
        "InChIKey": null,
        "Canonical SMILES": "O=C(O)C.NCCCCCCCCCCCC",
        "Molecular Formula": "C<sub>12</sub>H<sub>27</sub>N.C<sub>2</sub>H<sub>4</sub>O<sub>2</sub>",
        "Molecular Mass": "",
        "Melting Point": "68.5-69 °C"
    }
}