{
    "cas_no": "80-62-6",
    "key_name": "2-Propenoic acid, 2-methyl-, methyl ester",
    "cn_name": "甲基丙烯酸甲酯;",
    "alternate_name": "2-Propenoic acid, 2-methyl-, methyl ester;Methacrylic acid methyl ester;Methacrylic acid, methyl ester;MMA;Methyl 2-methyl-2-propenoate;Pegalan;Methyl 2-methylacrylate;2-(Methoxycarbonyl)-1-propene;Acryester M;TEB 3K;2-Methyl-2-propenoic acid methyl ester;Light Ester M;NSC 4769;Methyl methacrylate;Acryloid HT 100;Paraloid HT 100;Methyl 2-methacrylate;Three Bond 3057J;Methyl isobutenoate;Acryester MMA;ACR-PA 20;DL 101;Degacryl M 547;Visiomer MMA;Acrifix 1S0116;NA 7890;Degalan M 890;Meracryl MMA;Neocryl B 736;M 109626;MeSH ID: D020366",
    "duplicated_cas_no": "162221-54-7;211862-43-0;220713-32-6;874217-13-7;1196968-39-4;1227277-87-3;1451188-71-8;1453489-95-6",
    "SMILES": "C(C(C)=C)(OC)=O",
    "meta_data": {
        "InChI": "InChI=1S/C5H8O2/c1-4(2)5(6)7-3/h1H2,2-3H3",
        "InChIKey": null,
        "Canonical SMILES": "O=C(OC)C(=C)C",
        "Molecular Formula": "C<sub>5</sub>H<sub>8</sub>O<sub>2</sub>",
        "Molecular Mass": "100.12",
        "Boiling Point": "100.5 °C @ Press: 760 Torr",
        "Melting Point": "-48 °C",
        "Density": "0.9440 g/cm³ @ Temp: 20 °C"
    }
}