{
    "cas_no": "37074-39-8",
    "key_name": "1-(4-Chloro-3-methylphenyl)ethanone",
    "cn_name": null,
    "alternate_name": "Ethanone, 1-(4-chloro-3-methylphenyl)-;Acetophenone, 4′-chloro-3′-methyl-;1-(4-Chloro-3-methylphenyl)ethanone;3-Methyl-4-chloroacetophenone;4′-Chloro-3′-methylacetophenone;4-Chloro-3-methylacetophenone;1-(4-Chloro-3-methylphenyl)ethan-1-one",
    "duplicated_cas_no": "",
    "SMILES": "C(C)(=O)C1=CC(C)=C(Cl)C=C1",
    "meta_data": {
        "InChI": "InChI=1S/C9H9ClO/c1-6-5-8(7(2)11)3-4-9(6)10/h3-5H,1-2H3",
        "InChIKey": null,
        "Canonical SMILES": "O=C(C1=CC=C(Cl)C(=C1)C)C",
        "Molecular Formula": "C<sub>9</sub>H<sub>9</sub>ClO",
        "Molecular Mass": "168.62",
        "Boiling Point": "254.2-254.4 °C @ Press: 753-754 Torr",
        "Melting Point": "56-57 °C"
    }
}