{
    "cas_no": "1825-62-3",
    "key_name": "Trimethylethoxysilane",
    "cn_name": "三甲基乙氧基硅烷;",
    "alternate_name": "Silane, ethoxytrimethyl-;Ethoxytrimethylsilane;Trimethylethoxysilane;Trimethylsilyl ethyl ether;Ethyl trimethylsilyl ether;Trimethylsilyl ethoxide;Trimethylsilicon ethoxide;NSC 43345;LS 875;Silane M 3-ethoxy;KBM 31;T 1394;SIT 8515.0",
    "duplicated_cas_no": "871937-41-6",
    "SMILES": "O([Si](C)(C)C)CC",
    "meta_data": {
        "InChI": "InChI=1S/C5H14OSi/c1-5-6-7(2,3)4/h5H2,1-4H3",
        "InChIKey": null,
        "Canonical SMILES": "O(CC)[Si](C)(C)C",
        "Molecular Formula": "C<sub>5</sub>H<sub>14</sub>OSi",
        "Molecular Mass": "118.25",
        "Boiling Point": "76 °C",
        "Melting Point": "-83 °C",
        "Density": "0.757 g/cm³"
    }
}