{
    "cas_no": "7647-14-5",
    "key_name": "Sodium chloride",
    "cn_name": "氯化钠;",
    "alternate_name": "Sodium chloride (NaCl);Sodium chloride;Salt;Iodized salt;Sodium monochloride;Common salt;SS Salt;BCD;Watesal A;Brinewate Superfine;Mafiron;Special Salt 100/95;Natrum mur;Titrisol;Uzushio Biryuu M;Adsorbanac;Ayr;NSC 77364;Dendritic salt;Solsel;Canners 999;Naruto Shokuen;Cap-Shure 70 Salt;Cap-Shure 85 Salt;Dendritis;Gingivyl;Top flake;Hypersal;Flexivial;Natritope chloride;Sodium chloric;Kochsalz;Extra Fine 200 Salt;Extra Fine 325 Salt;Slow Sodium;Arm-A-Vial;LS 1700;H.G. Blending;D 02056;Soft Salt S 50;Nissei-no Yakishio S;Suprasel;Suprasel Nitrite;Nakuru N;Nakuru UM 5;MARSEL;Natrum muriaticum;Esco PDV Table Salt;Adios Ambros;EF 40;EF 40 (salt);Iodised salt;Mediterra salt;Alberger salt;Culinox 999 Salt;Aladdin C111533;Tomita Salt;7: PN: CN114214436 PAGE: 3 claimed sequence;Yakishio P;MeSH ID: D012965;Nakuru UM 10;Nakuru UM 50;Nakuru UM 20",
    "duplicated_cas_no": "8028-77-1;11062-32-1;11062-43-4;418758-90-4",
    "SMILES": "Cl[Na]",
    "meta_data": {
        "InChI": "InChI=1S/ClH.Na/h1H;/q;+1/p-1",
        "InChIKey": null,
        "Canonical SMILES": "[Na]Cl",
        "Molecular Formula": "ClNa",
        "Molecular Mass": "",
        "Boiling Point": "1413 °C",
        "Melting Point": "801 °C",
        "Density": "2.165 g/cm³ @ Temp: 25 °C"
    }
}