{
    "cas_no": "102625-70-7",
    "key_name": "Pantoprazole",
    "cn_name": "泮托拉唑;5-二氟甲氧基-2-[(3,4-二甲氧基-2-吡啶基)甲基]亚硫酰基-1H-苯并咪唑;",
    "alternate_name": "1<em>H</em>-Benzimidazole, 6-(difluoromethoxy)-2-[[(3,4-dimethoxy-2-pyridinyl)methyl]sulfinyl]-;1<em>H</em>-Benzimidazole, 5-(difluoromethoxy)-2-[[(3,4-dimethoxy-2-pyridinyl)methyl]sulfinyl]-;6-(Difluoromethoxy)-2-[[(3,4-dimethoxy-2-pyridinyl)methyl]sulfinyl]-1<em>H</em>-benzimidazole;Pantoprazole;SKF 96022;BY 1023;5-(Difluoromethoxy)-2-[[(3,4-dimethoxy-2-pyridyl)methyl]sulfinyl]-1<em>H</em>-benzimidazole;5-(Difluoromethoxy)-2-[[(3,4-dimethoxy-2-pyridinyl)methyl]sulfinyl]-1<em>H</em>-benzimidazole;Pantozol;(±)-Pantoprazole;2-[[(3,4-Dimethoxypyridin-2-yl)methyl]sulfinyl]-5-difluoromethoxy-1<em>H</em>-benzimidazole;Pantocid;Protium;Protium (pharmaceutical);Zovanta;Altopan;Pantopan;Pantecta Control;Pantoloc Control;Pantozol Control;Somac Control;Controloc Control;Toprazole",
    "duplicated_cas_no": "154644-14-1",
    "SMILES": "S(CC1=C(OC)C(OC)=CC=N1)(=O)C=2NC=3C(N2)=CC(OC(F)F)=CC3",
    "meta_data": {
        "InChI": "InChI=1S/C16H15F2N3O4S/c1-23-13-5-6-19-12(14(13)24-2)8-26(22)16-20-10-4-3-9(25-15(17)18)7-11(10)21-16/h3-7,15H,8H2,1-2H3,(H,20,21)",
        "InChIKey": null,
        "Canonical SMILES": "O=S(C1=NC=2C=C(OC(F)F)C=CC2N1)CC3=NC=CC(OC)=C3OC",
        "Molecular Formula": "C<sub>16</sub>H<sub>15</sub>F<sub>2</sub>N<sub>3</sub>O<sub>4</sub>S",
        "Molecular Mass": "383.37",
        "Melting Point": "139-140 °C (decomp)"
    }
}