{
    "cas_no": "1016-47-3",
    "key_name": "<em>N</em>-Acetyltryptamine",
    "cn_name": null,
    "alternate_name": "Acetamide, <em>N</em>-[2-(1<em>H</em>-indol-3-yl)ethyl]-;Acetamide, <em>N</em>-(2-indol-3-ylethyl)-;<em>N</em>-[2-(1<em>H</em>-Indol-3-yl)ethyl]acetamide;Acetotryptamide;<em>N</em>-Acetyltryptamine;<em>N</em><sup>ω</sup>-Acetyltryptamine;N<sup>10</sup>-Acetyltryptamine;<em>N</em>-Acetyl-2-(indol-3-yl)ethylamine;N<sub>b</sub>-Acetyltryptamine;Acetyltryptamine;SL 2005",
    "duplicated_cas_no": "",
    "SMILES": "C(CNC(C)=O)C=1C=2C(NC1)=CC=CC2",
    "meta_data": {
        "InChI": "InChI=1S/C12H14N2O/c1-9(15)13-7-6-10-8-14-12-5-3-2-4-11(10)12/h2-5,8,14H,6-7H2,1H3,(H,13,15)",
        "InChIKey": null,
        "Canonical SMILES": "O=C(NCCC1=CNC=2C=CC=CC21)C",
        "Molecular Formula": "C<sub>12</sub>H<sub>14</sub>N<sub>2</sub>O",
        "Molecular Mass": "202.25",
        "Boiling Point": "195-196 °C @ Press: 0.01 Torr",
        "Melting Point": "81-82 °C"
    }
}