{
    "cas_no": "149806-06-4",
    "key_name": "6-Bromo-3-pyridinecarboxaldehyde",
    "cn_name": "2-溴-5-醛基吡啶;6-溴吡啶-3-甲醛;6-溴-3-甲醛吡啶;",
    "alternate_name": "3-Pyridinecarboxaldehyde, 6-bromo-;6-Bromo-3-pyridinecarboxaldehyde;2-Bromo-5-pyridinecarboxaldehyde;6-Bromonicotinaldehyde;2-Bromo-5-formylpyridine;3-Formyl-6-bromopyridine;6-Bromopyridine-3-carbaldehyde;2-Bromopyridine-5-carbaldehyde",
    "duplicated_cas_no": "",
    "SMILES": "C(=O)C=1C=CC(Br)=NC1",
    "meta_data": {
        "InChI": "InChI=1S/C6H4BrNO/c7-6-2-1-5(4-9)3-8-6/h1-4H",
        "InChIKey": null,
        "Canonical SMILES": "O=CC1=CN=C(Br)C=C1",
        "Molecular Formula": "C<sub>6</sub>H<sub>4</sub>BrNO",
        "Molecular Mass": "186.01",
        "Melting Point": "100.7-102.2 °C"
    }
}