{
    "cas_no": "170355-38-1",
    "key_name": "3-Thiophenecarboxylic acid, 5-bromo-, ethyl ester",
    "cn_name": null,
    "alternate_name": "3-Thiophenecarboxylic acid, 5-bromo-, ethyl ester;Ethyl 2-bromo-4-thiophenecarboxylate;Ethyl 5-bromothiophene-3-carboxylate;5-Bromothiophene-3-carboxylic acid ethyl ester",
    "duplicated_cas_no": "",
    "SMILES": "C(OCC)(=O)C1=CSC(Br)=C1",
    "meta_data": {
        "InChI": "InChI=1S/C7H7BrO2S/c1-2-10-7(9)5-3-6(8)11-4-5/h3-4H,2H2,1H3",
        "InChIKey": null,
        "Canonical SMILES": "O=C(OCC)C1=CSC(Br)=C1",
        "Molecular Formula": "C<sub>7</sub>H<sub>7</sub>BrO<sub>2</sub>S",
        "Molecular Mass": "235.10",
        "Boiling Point": "65-66 °C"
    }
}