{
    "cas_no": "13190-34-6",
    "key_name": "(±)-Goitrin",
    "cn_name": "DL-甲状腺肿素;5-乙烯基-1,3-唑烷-2-硫酮;",
    "alternate_name": "2-Oxazolidinethione, 5-ethenyl-;2-Oxazolidinethione, 5-vinyl-;5-Ethenyl-2-oxazolidinethione;5-Vinyloxazolidinethione;5-Vinyl-2-thiooxazolidone;5-Vinylthiooxazolidone;5-Vinyl-2-oxazolidinethione;5-Vinyl-2-oxazolidine-2-thione;5-Vinyl-2-thiooxazolidinone;(±)-Goitrin;<span class=\"text-smallcaps\">DL</span>-Goitrin",
    "duplicated_cas_no": "13997-13-2",
    "SMILES": "C(=C)C1OC(=S)NC1",
    "meta_data": {
        "InChI": "InChI=1S/C5H7NOS/c1-2-4-3-6-5(8)7-4/h2,4H,1,3H2,(H,6,8)",
        "InChIKey": null,
        "Canonical SMILES": "S=C1OC(C=C)CN1",
        "Molecular Formula": "C<sub>5</sub>H<sub>7</sub>NOS",
        "Molecular Mass": "129.18",
        "Melting Point": "50 °C"
    }
}