{
    "cas_no": "14316-61-1",
    "key_name": "Acetic acid, 2-phenoxy-, 1,1′-anhydride",
    "cn_name": null,
    "alternate_name": "Acetic acid, 2-phenoxy-, 1,1′-anhydride;Acetic acid, phenoxy-, anhydride;Phenoxyacetic anhydride;NSC 259934;(2-Phenoxyacetyl) 2-phenoxyacetate;2-Phenoxyaceticanhydride",
    "duplicated_cas_no": "",
    "SMILES": "O(CC(OC(COC1=CC=CC=C1)=O)=O)C2=CC=CC=C2",
    "meta_data": {
        "InChI": "InChI=1S/C16H14O5/c17-15(11-19-13-7-3-1-4-8-13)21-16(18)12-20-14-9-5-2-6-10-14/h1-10H,11-12H2",
        "InChIKey": null,
        "Canonical SMILES": "O=C(OC(=O)COC=1C=CC=CC1)COC=2C=CC=CC2",
        "Molecular Formula": "C<sub>16</sub>H<sub>14</sub>O<sub>5</sub>",
        "Molecular Mass": "286.28",
        "Melting Point": "67-68 °C"
    }
}