{
    "cas_no": "32476-67-8",
    "key_name": "Periplocymarin",
    "cn_name": null,
    "alternate_name": "Card-20(22)-enolide, 3-[(2,6-dideoxy-3-<em>O</em>-methyl-β-<span class=\"text-smallcaps\">D</span>-<em>ribo</em>-hexopyranosyl)oxy]-5,14-dihydroxy-, (3β,5β)-;Periplocymarin",
    "duplicated_cas_no": "127-32-2",
    "SMILES": "O[C@@]12[C@]3([C@@]([C@]4(C)[C@](O)(CC3)C[C@@H](O[C@H]5C[C@H](OC)[C@H](O)[C@@H](C)O5)CC4)(CC[C@]1(C)[C@H](CC2)C6=CC(=O)OC6)[H])[H]",
    "meta_data": {
        "InChI": "InChI=1S/C30H46O8/c1-17-26(32)23(35-4)14-25(37-17)38-19-5-9-27(2)21-6-10-28(3)20(18-13-24(31)36-16-18)8-12-30(28,34)22(21)7-11-29(27,33)15-19/h13,17,19-23,25-26,32-34H,5-12,14-16H2,1-4H3/t17-,19+,20-,21+,22-,23+,25+,26-,27-,28-,29+,30+/m1/s1",
        "InChIKey": null,
        "Canonical SMILES": "O=C1OCC(=C1)C2CCC3(O)C4CCC5(O)CC(OC6OC(C)C(O)C(OC)C6)CCC5(C)C4CCC23C",
        "Molecular Formula": "C<sub>30</sub>H<sub>46</sub>O<sub>8</sub>",
        "Molecular Mass": "534.68",
        "Melting Point": "148 °C"
    }
}