{
    "cas_no": "116255-48-2",
    "key_name": "Bromuconazole",
    "cn_name": "糠菌唑;1-[(2RS，4RS；2RS，4SR)-4-溴-2(2，4-二氯苯基)四氢糠基]-1H-1，2，4-唑;",
    "alternate_name": "Pentitol, 2,5-anhydro-4-bromo-1,3,4-trideoxy-2-<em>C</em>-(2,4-dichlorophenyl)-1-(1<em>H</em>-1,2,4-triazol-1-yl)-;2,5-Anhydro-4-bromo-1,3,4-trideoxy-2-<em>C</em>-(2,4-dichlorophenyl)-1-(1<em>H</em>-1,2,4-triazol-1-yl)pentitol;LS 860263;Bromuconazole;Granit (pesticide);Vectra;Granit;1<em>H</em>-1,2,4-Triazole, 1-[[4-bromo-2-(2,4-dichlorophenyl)tetrahydro-2-furanyl]methyl]-",
    "duplicated_cas_no": "188992-37-2",
    "SMILES": "C(C1(CC(Br)CO1)C2=C(Cl)C=C(Cl)C=C2)N3C=NC=N3",
    "meta_data": {
        "InChI": "InChI=1S/C13H12BrCl2N3O/c14-9-4-13(20-5-9,6-19-8-17-7-18-19)11-2-1-10(15)3-12(11)16/h1-3,7-9H,4-6H2",
        "InChIKey": null,
        "Canonical SMILES": "ClC1=CC=C(C(Cl)=C1)C2(OCC(Br)C2)CN3N=CN=C3",
        "Molecular Formula": "C<sub>13</sub>H<sub>12</sub>BrCl<sub>2</sub>N<sub>3</sub>O",
        "Molecular Mass": "377.06",
        "Melting Point": "84 °C",
        "Density": "1.7 g/cm³"
    }
}