{
    "cas_no": "58846-77-8",
    "key_name": "Decyl glucoside",
    "cn_name": "癸基吡喃葡萄糖苷; 癸基-beta-D-吡喃葡萄糖苷;",
    "alternate_name": "β-<span class=\"text-smallcaps\">D</span>-Glucopyranoside, decyl;Decyl β-<span class=\"text-smallcaps\">D</span>-glucopyranoside;Decyl β-glucopyranoside;Decyl β-<span class=\"text-smallcaps\">D</span>-glucoside;<em>n</em>-Decyl β-<span class=\"text-smallcaps\">D</span>-glucopyranoside;Decyl glucoside;Decyl β-glucoside;AG 10 (carbohydrate);AG 10;Plantacare 818;1-<em>O</em>-Decyl-β-<span class=\"text-smallcaps\">D</span>-glucopyranoside;<em>n</em>-Decyl-β-glucoside;Oramix NS 10;Plantaren PS 100;Plantaren W 2000;APG 10",
    "duplicated_cas_no": "124828-32-6;148406-76-2;150679-30-4",
    "SMILES": "O(CCCCCCCCCC)[C@@H]1O[C@H](CO)[C@@H](O)[C@H](O)[C@H]1O",
    "meta_data": {
        "InChI": "InChI=1S/C16H32O6/c1-2-3-4-5-6-7-8-9-10-21-16-15(20)14(19)13(18)12(11-17)22-16/h12-20H,2-11H2,1H3/t12-,13-,14+,15-,16-/m1/s1",
        "InChIKey": null,
        "Canonical SMILES": "OCC1OC(OCCCCCCCCCC)C(O)C(O)C1O",
        "Molecular Formula": "C<sub>16</sub>H<sub>32</sub>O<sub>6</sub>",
        "Molecular Mass": "320.42",
        "Melting Point": "75-130 °C"
    }
}