{
    "cas_no": "2695-48-9",
    "key_name": "8-Bromo-1-octene",
    "cn_name": "8-溴-1-辛烯;",
    "alternate_name": "1-Octene, 8-bromo-;Octene, 8-bromo-;8-Bromo-1-octene;7-Octen-1-yl bromide;1-Bromo-7-octene;7-Octenyl bromide;8-Bromooctene",
    "duplicated_cas_no": "",
    "SMILES": "C(CCCBr)CCC=C",
    "meta_data": {
        "InChI": "InChI=1S/C8H15Br/c1-2-3-4-5-6-7-8-9/h2H,1,3-8H2",
        "InChIKey": null,
        "Canonical SMILES": "BrCCCCCCC=C",
        "Molecular Formula": "C<sub>8</sub>H<sub>15</sub>Br",
        "Molecular Mass": "191.11",
        "Boiling Point": "94-97 °C"
    }
}