{
    "cas_no": "13716-12-6",
    "key_name": "Tri-<em>tert</em>-butylphosphine",
    "cn_name": "三叔丁基膦;",
    "alternate_name": "Phosphine, tris(1,1-dimethylethyl)-;Phosphine, tri-<em>tert</em>-butyl-;Tris(1,1-dimethylethyl)phosphine;Tri-<em>tert</em>-butylphosphine;Tris(<em>tert</em>-butyl)phosphine",
    "duplicated_cas_no": "",
    "SMILES": "P(C(C)(C)C)(C(C)(C)C)C(C)(C)C",
    "meta_data": {
        "InChI": "InChI=1S/C12H27P/c1-10(2,3)13(11(4,5)6)12(7,8)9/h1-9H3",
        "InChIKey": null,
        "Canonical SMILES": "P(C(C)(C)C)(C(C)(C)C)C(C)(C)C",
        "Molecular Formula": "C<sub>12</sub>H<sub>27</sub>P",
        "Molecular Mass": "202.32",
        "Melting Point": "19-23 °C"
    }
}