{
    "cas_no": "5503-74-2",
    "key_name": "3-Borono-2-thiophenecarboxylic acid",
    "cn_name": null,
    "alternate_name": "2-Thiophenecarboxylic acid, 3-borono-;3-Borono-2-thiophenecarboxylic acid;2-Carboxythiophene-3-boronic acid",
    "duplicated_cas_no": "",
    "SMILES": "B(O)(O)C1=C(C(O)=O)SC=C1",
    "meta_data": {
        "InChI": "InChI=1S/C5H5BO4S/c7-5(8)4-3(6(9)10)1-2-11-4/h1-2,9-10H,(H,7,8)",
        "InChIKey": null,
        "Canonical SMILES": "O=C(O)C=1SC=CC1B(O)O",
        "Molecular Formula": "C<sub>5</sub>H<sub>5</sub>BO<sub>4</sub>S",
        "Molecular Mass": "171.97",
        "Melting Point": "159.5-162.5 °C"
    }
}