{
    "cas_no": "331-39-5",
    "key_name": "Caffeic acid",
    "cn_name": "咖啡酸;3,4-二羟基肉桂酸;",
    "alternate_name": "2-Propenoic acid, 3-(3,4-dihydroxyphenyl)-;Cinnamic acid, 3,4-dihydroxy-;3-(3,4-Dihydroxyphenyl)-2-propenoic acid;Caffeic acid;3,4-Dihydroxycinnamic acid;3-(3,4-Dihydroxyphenyl)propenoic acid;4-(2-Carboxyethenyl)-1,2-dihydroxybenzene;4-(2′-Carboxyvinyl)-1,2-dihydroxybenzene;3,4-Dihydroxybenzeneacrylic acid;NSC 57197;NSC 623438;DHCA",
    "duplicated_cas_no": "",
    "SMILES": "C(=CC(O)=O)C1=CC(O)=C(O)C=C1",
    "meta_data": {
        "InChI": "InChI=1S/C9H8O4/c10-7-3-1-6(5-8(7)11)2-4-9(12)13/h1-5,10-11H,(H,12,13)",
        "InChIKey": null,
        "Canonical SMILES": "O=C(O)C=CC1=CC=C(O)C(O)=C1",
        "Molecular Formula": "C<sub>9</sub>H<sub>8</sub>O<sub>4</sub>",
        "Molecular Mass": "180.16",
        "Melting Point": "225 °C (decomp)"
    }
}