{
    "cas_no": "4403-71-8",
    "key_name": "4-Aminobenzylamine",
    "cn_name": "4-氨基苄胺;对氨基苄胺;",
    "alternate_name": "Benzenemethanamine, 4-amino-;Toluene-α,4-diamine;4-Aminobenzenemethanamine;4-Aminobenzylamine;<em>p</em>-Aminobenzylamine;<em>p</em>-(Aminomethyl)aniline;4-(Aminomethyl)aniline;4-Aminomethylphenylamine;4-(Aminomethyl)benzenamine",
    "duplicated_cas_no": "",
    "SMILES": "C(N)C1=CC=C(N)C=C1",
    "meta_data": {
        "InChI": "InChI=1S/C7H10N2/c8-5-6-1-3-7(9)4-2-6/h1-4H,5,8-9H2",
        "InChIKey": null,
        "Canonical SMILES": "NC1=CC=C(C=C1)CN",
        "Molecular Formula": "C<sub>7</sub>H<sub>10</sub>N<sub>2</sub>",
        "Molecular Mass": "122.17",
        "Boiling Point": "142-143 °C @ Press: 10 Torr",
        "Melting Point": "64 °C"
    }
}