{
    "cas_no": "24160-36-9",
    "key_name": "Trametenolic acid",
    "cn_name": null,
    "alternate_name": "Lanosta-8,24-dien-21-oic acid, 3-hydroxy-, (3β)-;Lanosta-8,24-dien-21-oic acid, 3β-hydroxy-;5α-Lanosta-8,24-dien-21-oic acid, 3β-hydroxy-;(3β)-3-Hydroxylanosta-8,24-dien-21-oic acid;3β-Hydroxylanosta-8,24-dien-21-oic acid;Trametenolic acid;Trametenolic acid B;(+)-Trametenolic acid B;3β-Hydroxy-5α-lanosta-8,24-dien-21-oic acid;3β-Hydroxylanosta-8,24-dien-21-acid",
    "duplicated_cas_no": "19269-76-2;24160-38-1",
    "SMILES": "C[C@]12C3=C([C@]4(C)[C@@](CC3)(C(C)(C)[C@@H](O)CC4)[H])CC[C@]1(C)[C@@]([C@@H](CCC=C(C)C)C(O)=O)(CC2)[H]",
    "meta_data": {
        "InChI": "InChI=1S/C30H48O3/c1-19(2)9-8-10-20(26(32)33)21-13-17-30(7)23-11-12-24-27(3,4)25(31)15-16-28(24,5)22(23)14-18-29(21,30)6/h9,20-21,24-25,31H,8,10-18H2,1-7H3,(H,32,33)/t20-,21-,24+,25+,28-,29-,30+/m1/s1",
        "InChIKey": null,
        "Canonical SMILES": "O=C(O)C(CCC=C(C)C)C1CCC2(C3=C(CCC12C)C4(C)CCC(O)C(C)(C)C4CC3)C",
        "Molecular Formula": "C<sub>30</sub>H<sub>48</sub>O<sub>3</sub>",
        "Molecular Mass": "456.70",
        "Melting Point": "259-261 °C"
    }
}