{
    "cas_no": "161715-24-8",
    "key_name": "Tebipenem pivoxil",
    "cn_name": null,
    "alternate_name": "1-Azabicyclo[3.2.0]hept-2-ene-2-carboxylic acid, 3-[[1-(4,5-dihydro-2-thiazolyl)-3-azetidinyl]thio]-6-[(1<em>R</em>)-1-hydroxyethyl]-4-methyl-7-oxo-, (2,2-dimethyl-1-oxopropoxy)methyl ester, (4<em>R</em>,5<em>S</em>,6<em>S</em>)-;1-Azabicyclo[3.2.0]hept-2-ene-2-carboxylic acid, 3-[[1-(4,5-dihydro-2-thiazolyl)-3-azetidinyl]thio]-6-(1-hydroxyethyl)-4-methyl-7-oxo-, (2,2-dimethyl-1-oxopropoxy)methyl ester, [4<em>R</em>-[4α,5β,6β(<em>R</em>*)]]-;Tebipenem pivoxil;L 084;Orapenem;SPR 994",
    "duplicated_cas_no": "",
    "SMILES": "C(OCOC(C(C)(C)C)=O)(=O)C=1N2[C@@]([C@@]([C@@H](C)O)(C2=O)[H])([C@@H](C)C1SC3CN(C3)C4=NCCS4)[H]",
    "meta_data": {
        "InChI": "InChI=1S/C22H31N3O6S2/c1-11-15-14(12(2)26)18(27)25(15)16(19(28)30-10-31-20(29)22(3,4)5)17(11)33-13-8-24(9-13)21-23-6-7-32-21/h11-15,26H,6-10H2,1-5H3/t11-,12-,14-,15-/m1/s1",
        "InChIKey": null,
        "Canonical SMILES": "O=C(OCOC(=O)C(C)(C)C)C1=C(SC2CN(C3=NCCS3)C2)C(C)C4N1C(=O)C4C(O)C",
        "Molecular Formula": "C<sub>22</sub>H<sub>31</sub>N<sub>3</sub>O<sub>6</sub>S<sub>2</sub>",
        "Molecular Mass": "497.63",
        "Melting Point": "140-142 °C"
    }
}