{
    "cas_no": "87130-20-9",
    "key_name": "Diethofencarb",
    "cn_name": "乙霉威;3,4-二乙氧基苯基氨基甲酸异丙酯;",
    "alternate_name": "Carbamic acid, <em>N</em>-(3,4-diethoxyphenyl)-, 1-methylethyl ester;Carbamic acid, (3,4-diethoxyphenyl)-, 1-methylethyl ester;Diethofencarb;Isopropyl <em>N</em>-(3,4-diethoxyphenyl)carbamate;Isopropyl 3,4-diethoxycarbanilate;S 32165;Powmil;Powmyl",
    "duplicated_cas_no": "99616-24-7;116331-53-4;1135443-11-6",
    "SMILES": "O(CC)C1=C(OCC)C=CC(NC(OC(C)C)=O)=C1",
    "meta_data": {
        "InChI": "InChI=1S/C14H21NO4/c1-5-17-12-8-7-11(9-13(12)18-6-2)15-14(16)19-10(3)4/h7-10H,5-6H2,1-4H3,(H,15,16)",
        "InChIKey": null,
        "Canonical SMILES": "O=C(OC(C)C)NC1=CC=C(OCC)C(OCC)=C1",
        "Molecular Formula": "C<sub>14</sub>H<sub>21</sub>NO<sub>4</sub>",
        "Molecular Mass": "267.32",
        "Melting Point": "100.3 °C"
    }
}