{
    "cas_no": "79-38-9",
    "key_name": "Chlorotrifluoroethylene",
    "cn_name": "三氟氯乙烯;氯三氟乙烯;",
    "alternate_name": "Ethene, 1-chloro-1,2,2-trifluoro-;Ethylene, chlorotrifluoro-;Ethene, chlorotrifluoro-;1-Chloro-1,2,2-trifluoroethene;Chlorotrifluoroethylene;Genetron 1113;Monochlorotrifluoroethylene;Trifluorochloroethylene;Trifluoromonochloroethylene;Trifluorovinyl chloride;Trithene;Chlorotrifluoroethene;1-Chloro-1,2,2-trifluoroethylene;2-Chloro-1,1,2-trifluoroethylene;Trifluorochloroethene;F 1113;R 1113;2-Chloro-1,1,2-trifluoroethene;CFC 1113;CFO 1113;HCFO 1113",
    "duplicated_cas_no": "",
    "SMILES": "C(=C(F)F)(Cl)F",
    "meta_data": {
        "InChI": "InChI=1S/C2ClF3/c3-1(4)2(5)6",
        "InChIKey": null,
        "Canonical SMILES": "FC(F)=C(F)Cl",
        "Molecular Formula": "C<sub>2</sub>ClF<sub>3</sub>",
        "Molecular Mass": "116.47",
        "Boiling Point": "-27.9 °C",
        "Melting Point": "-158.2 °C",
        "Density": "1.3 g/cm³"
    }
}