{
    "cas_no": "7232-21-5",
    "key_name": "Metoclopramide hydrochloride",
    "cn_name": null,
    "alternate_name": "Benzamide, 4-amino-5-chloro-<em>N</em>-[2-(diethylamino)ethyl]-2-methoxy-, hydrochloride (1:1);<em>o</em>-Anisamide, 4-amino-5-chloro-<em>N</em>-[2-(diethylamino)ethyl]-, monohydrochloride;Benzamide, 4-amino-5-chloro-<em>N</em>-[2-(diethylamino)ethyl]-2-methoxy-, monohydrochloride;4-Amino-5-chloro-<em>N</em>-[2-(diethylamino)ethyl]-<em>o</em>-anisamide hydrochloride;Metoclopramide hydrochloride;Maxolon;Paspertin;Cerucal;Primperan;Primperan (tablet);Rimetin;Metoclopramide monohydrochloride;Reglan;AHR 3070-C;NSC 354467;Tserulan;Perinorm;Mexeron;Metpamid;Ami-metoclopramide;Metoclopramide-Hakim;Plazilin;Telperane",
    "duplicated_cas_no": "49625-23-2",
    "SMILES": "C(NCCN(CC)CC)(=O)C1=C(OC)C=C(N)C(Cl)=C1.Cl",
    "meta_data": {
        "InChI": "InChI=1S/C14H22ClN3O2.ClH/c1-4-18(5-2)7-6-17-14(19)10-8-11(15)12(16)9-13(10)20-3;/h8-9H,4-7,16H2,1-3H3,(H,17,19);1H",
        "InChIKey": null,
        "Canonical SMILES": "Cl.O=C(NCCN(CC)CC)C1=CC(Cl)=C(N)C=C1OC",
        "Molecular Formula": "C<sub>14</sub>H<sub>22</sub>ClN<sub>3</sub>O<sub>2</sub>.ClH",
        "Molecular Mass": "",
        "Melting Point": "182.5-184 °C"
    }
}