{
    "cas_no": "935-30-8",
    "key_name": "Octahydro-2<em>H</em>-azonin-2-one",
    "cn_name": "2-氮杂环壬酮;",
    "alternate_name": "2<em>H</em>-Azonin-2-one, octahydro-;Octahydro-2<em>H</em>-azonin-2-one;Azacyclononan-2-one;ω-Caprylolactam;Octanoic acid, 8-amino-, lactam;η-Capryllactam;Capryllactam;Caprylolactam;8-Aminooctanoic acid lactam;2-Perhydroazoninone;8-Octanelactam;1-Aza-2-cyclononanone;2-Oxooctamethyleneimine;NSC 59017;Azonan-2-one;ω-Octalactam",
    "duplicated_cas_no": "",
    "SMILES": "O=C1CCCCCCCN1",
    "meta_data": {
        "InChI": "InChI=1S/C8H15NO/c10-8-6-4-2-1-3-5-7-9-8/h1-7H2,(H,9,10)",
        "InChIKey": null,
        "Canonical SMILES": "O=C1NCCCCCCC1",
        "Molecular Formula": "C<sub>8</sub>H<sub>15</sub>NO",
        "Molecular Mass": "141.21",
        "Boiling Point": "164-166 °C @ Press: 14 Torr",
        "Melting Point": "77-79 °C",
        "Density": "1.0087 g/cm³ @ Temp: 73 °C"
    }
}