{
    "cas_no": "6147-53-1",
    "key_name": "Cobalt acetate tetrahydrate",
    "cn_name": "四水合乙酸钴;",
    "alternate_name": "Acetic acid, cobalt(2+) salt, hydrate (2:1:4);Acetic acid, cobalt(2+) salt, tetrahydrate;Cobaltous acetate tetrahydrate;Cobalt acetate tetrahydrate;Cobalt diacetate tetrahydrate;Cobalt(2+) acetate tetrahydrate;Cobalt(II) acetate tetrahydrate;Cobalt(2+) diacetate tetrahydrate",
    "duplicated_cas_no": "",
    "SMILES": "C(C)(O)=O.[Co].O",
    "meta_data": {
        "InChI": "InChI=1S/C2H4O2.Co.2H2O/c1-2(3)4;;;/h1H3,(H,3,4);;2*1H2",
        "InChIKey": null,
        "Canonical SMILES": "[Co].O=C(O)C.O",
        "Molecular Formula": "C<sub>2</sub>H<sub>4</sub>O<sub>2</sub>.<sup>1</sup>/<sub>2</sub>Co.2H<sub>2</sub>O",
        "Molecular Mass": "",
        "Melting Point": "140 °C",
        "Density": "1.7 g/cm³"
    }
}