{
    "cas_no": "483-14-7",
    "key_name": "(-)-Tetrahydropalmatine",
    "cn_name": null,
    "alternate_name": "6<em>H</em>-Dibenzo[<em>a</em>,<em>g</em>]quinolizine, 5,8,13,13a-tetrahydro-2,3,9,10-tetramethoxy-, (13a<em>S</em>)-;13aα-Berbine, 2,3,9,10-tetramethoxy-;Gindarine;6<em>H</em>-Dibenzo[<em>a</em>,<em>g</em>]quinolizine, 5,8,13,13a-tetrahydro-2,3,9,10-tetramethoxy-, (<em>S</em>)-;Cyclanoline, <em>O</em>,<em>O</em>-dimethyl-<em>N</em>-demethyl-;(13a<em>S</em>)-5,8,13,13a-Tetrahydro-2,3,9,10-tetramethoxy-6<em>H</em>-dibenzo[<em>a</em>,<em>g</em>]quinolizine;Caseanine;(-)-Tetrahydropalmatine;Hyndarine;Palmatine, tetrahydro-, (-)-;Rotundine;(-)-<em>S</em>-Tetrahydropalmatine;Rotundine (Stephania), (-)-;(-)-2,3,9,10-Tetramethoxyberbine;(-)-Rotundine;(<em>S</em>)-Tetrahydropalmatine;<em>l</em>-Tetrahydropalmatine;(-)-Corydalis B;<em>N</em>-Demethyl-<em>O</em>,<em>O</em>′-dimethylcyclanoline;<em>N</em>-Demethyl-<em>O</em>,<em>O</em>′-dimethylsteponine;(13AS)-2,3,9,10-tetramethoxy-6,8,13,13a-tetrahydro-5<em>H</em>-isoquinolino[2,1-<em>b</em>]isoquinoline",
    "duplicated_cas_no": "605-20-9;11075-91-5;34017-31-7;906324-96-7",
    "SMILES": "O(C)C=1C=C2[C@]3(N(CC=4C(C3)=CC=C(OC)C4OC)CCC2=CC1OC)[H]",
    "meta_data": {
        "InChI": "InChI=1S/C21H25NO4/c1-23-18-6-5-13-9-17-15-11-20(25-3)19(24-2)10-14(15)7-8-22(17)12-16(13)21(18)26-4/h5-6,10-11,17H,7-9,12H2,1-4H3/t17-/m0/s1",
        "InChIKey": null,
        "Canonical SMILES": "O(C1=CC=C2C(=C1OC)CN3CCC4=CC(OC)=C(OC)C=C4C3C2)C",
        "Molecular Formula": "C<sub>21</sub>H<sub>25</sub>NO<sub>4</sub>",
        "Molecular Mass": "355.43",
        "Melting Point": "142 °C"
    }
}