{
    "cas_no": "632-93-9",
    "key_name": "3,5-Diethyl 1,4-dihydro-2,4,6-trimethyl-3,5-pyridinedicarboxylate",
    "cn_name": "1,4-二氢-2,4,6-三甲基-3,5-吡啶二甲酸二乙酯;3,5-二乙氧基羰基-1,4-二氢-2,4,6-三甲基吡啶;",
    "alternate_name": "3,5-Pyridinedicarboxylic acid, 1,4-dihydro-2,4,6-trimethyl-, 3,5-diethyl ester;3,5-Pyridinedicarboxylic acid, 1,4-dihydro-2,4,6-trimethyl-, diethyl ester;3,5-Diethyl 1,4-dihydro-2,4,6-trimethyl-3,5-pyridinedicarboxylate;3,5-Dicarbethoxy-1,4-dihydrocollidine;1,4-Dihydro-2,4,6-trimethyl-3,5-dicarbethoxypyridine;1,4-Dihydro-3,5-dicarbethoxycollidine;3,5-Bis(ethoxycarbonyl)-1,4-dihydro-2,4,6-trimethylpyridine;3,5-Diethoxycarbonyl-1,4-dihydro-2,4,6-trimethylpyridine;Diethyl 1,4-dihydro-2,4,6-trimethylpyridine-3,5-dicarboxylate;3,5-Dicarbethoxy-1,4-dihydro-2,4,6-trimethylpyridine;3,5-(Diethoxycarbonyl)-1,4-dihydrocollidine;1,4-Dihydro-2,4,6-trimethyl-3,5-pyridinedicarboxylic acid diethyl ester;DDC;3,5-Diethoxycarbonyl-1,4-dihydro-<em>s</em>-collidine;3,5-Bis(ethoxycarbonyl)-1,4-dihydrocollidine;2,4,6-Trimethyl-3,5-diethoxycarbonyl-1,4-dihydropyridine;DDC (porphyrinogen);Diethyl 2,4,6-trimethyl-1,4-dihydropyridine-3,5-dicarboxylate;3,5-Bis(ethoxycarbonyl)-2,4,6-trimethyl-1,4-dihydropyridine;NSC 49528;NSC 8910;Diethyl 2,4,6-tetramethyl-1,4-dihydropyridine-3,5-dicarboxylate;3,5-Diethyl 2,4,6-trimethyl-1,4-dihydropyridine-3,5-dicarboxylate",
    "duplicated_cas_no": "",
    "SMILES": "C(OCC)(=O)C=1C(C)C(C(OCC)=O)=C(C)NC1C",
    "meta_data": {
        "InChI": "InChI=1S/C14H21NO4/c1-6-18-13(16)11-8(3)12(14(17)19-7-2)10(5)15-9(11)4/h8,15H,6-7H2,1-5H3",
        "InChIKey": null,
        "Canonical SMILES": "O=C(OCC)C1=C(NC(=C(C(=O)OCC)C1C)C)C",
        "Molecular Formula": "C<sub>14</sub>H<sub>21</sub>NO<sub>4</sub>",
        "Molecular Mass": "267.32",
        "Melting Point": "131-132 °C"
    }
}