{
    "cas_no": "16182-15-3",
    "key_name": "Benzenesulfonic acid, 2,4,6-trimethyl-, hydrazide",
    "cn_name": "异亚丙基丙酮磺酰肼;",
    "alternate_name": "Benzenesulfonic acid, 2,4,6-trimethyl-, hydrazide;2-Mesitylenesulfonic acid, hydrazide;Mesitylenesulfonyl hydrazide;(2,4,6-Trimethylbenzenesulfonyl)hydrazine;2,4,6-Trimethylbenzenesulfonic acid hydrazide;Mesitylenesulfonic hydrazide;(Mesitylsulfonyl)hydrazine;<em>N</em>-(2,4,6-Trimethylphenylsulfonyl)hydrazine;NSC 158041;2,4,6-Trimethylbenzenesulfonohydrazide;2,4,6-Trimethylbenzene-1-sulfonohydrazide;2-Mesitylenesulfonohydrazide;2,4,6-Trimethylbenzenesulfonyl hydrazide;2,4,6-Trimethylbenzensulfonohydrazide;2-Mesitylenesulfonyl hydrazide",
    "duplicated_cas_no": "154012-31-4",
    "SMILES": "S(NN)(=O)(=O)C1=C(C)C=C(C)C=C1C",
    "meta_data": {
        "InChI": "InChI=1S/C9H14N2O2S/c1-6-4-7(2)9(8(3)5-6)14(12,13)11-10/h4-5,11H,10H2,1-3H3",
        "InChIKey": null,
        "Canonical SMILES": "O=S(=O)(NN)C=1C(=CC(=CC1C)C)C",
        "Molecular Formula": "C<sub>9</sub>H<sub>14</sub>N<sub>2</sub>O<sub>2</sub>S",
        "Molecular Mass": "214.28",
        "Melting Point": "130 °C"
    }
}