{
    "cas_no": "453-71-4",
    "key_name": "4-Fluoro-3-nitrobenzoic acid",
    "cn_name": "4-氟-3-硝基苯甲酸;",
    "alternate_name": "Benzoic acid, 4-fluoro-3-nitro-;4-Fluoro-3-nitrobenzoic acid;4-Carboxy-2-nitrofluorobenzene;NSC 10311;3-Nitro-4-fluorobenzoic acid",
    "duplicated_cas_no": "",
    "SMILES": "N(=O)(=O)C1=CC(C(O)=O)=CC=C1F",
    "meta_data": {
        "InChI": "InChI=1S/C7H4FNO4/c8-5-2-1-4(7(10)11)3-6(5)9(12)13/h1-3H,(H,10,11)",
        "InChIKey": null,
        "Canonical SMILES": "O=C(O)C1=CC=C(F)C(=C1)N(=O)=O",
        "Molecular Formula": "C<sub>7</sub>H<sub>4</sub>FNO<sub>4</sub>",
        "Molecular Mass": "185.11",
        "Melting Point": "121-122 °C"
    }
}