{
    "cas_no": "108-79-2",
    "key_name": "2-Hydroxy-4,6-dimethylpyrimidine",
    "cn_name": "4,6-二甲基-2-羟基嘧啶;",
    "alternate_name": "2(1<em>H</em>)-Pyrimidinone, 4,6-dimethyl-;2-Pyrimidinol, 4,6-dimethyl-;2(1<em>H</em>)-Pyrimidone, 4,6-dimethyl-;4,6-Dimethyl-2(1<em>H</em>)-pyrimidinone;4,6-Dimethyl-2-pyrimidinol;2-Hydroxy-4,6-dimethylpyrimidine;4,6-Dimethyl-2-hydroxypyrimidine;4,6-Dimethyl-1,2-dihydro-2-pyrimidone;4,6-Dimethyl-2(1<em>H</em>)-pyrimidone;4,6-Dimethyl-2-pyrimidone;4,6-Dimethyl-1,2-dihydropyrimidin-2-one",
    "duplicated_cas_no": "3297-20-9",
    "SMILES": "CC1=CC(C)=NC(=O)N1",
    "meta_data": {
        "InChI": "InChI=1S/C6H8N2O/c1-4-3-5(2)8-6(9)7-4/h3H,1-2H3,(H,7,8,9)",
        "InChIKey": null,
        "Canonical SMILES": "O=C1N=C(C=C(N1)C)C",
        "Molecular Formula": "C<sub>6</sub>H<sub>8</sub>N<sub>2</sub>O",
        "Molecular Mass": "124.14",
        "Melting Point": "197 °C",
        "Density": "1.29 g/cm³"
    }
}