{
    "cas_no": "358-43-0",
    "key_name": "Triethylfluorosilane",
    "cn_name": null,
    "alternate_name": "Silane, triethylfluoro-;Triethylfluorosilane;Triethylsilyl fluoride;Fluorotriethylsilane",
    "duplicated_cas_no": "",
    "SMILES": "[Si](CC)(CC)(CC)F",
    "meta_data": {
        "InChI": "InChI=1S/C6H15FSi/c1-4-8(7,5-2)6-3/h4-6H2,1-3H3",
        "InChIKey": null,
        "Canonical SMILES": "F[Si](CC)(CC)CC",
        "Molecular Formula": "C<sub>6</sub>H<sub>15</sub>FSi",
        "Molecular Mass": "134.27",
        "Boiling Point": "110 °C",
        "Density": "0.8354 g/cm³ @ Temp: 25 °C"
    }
}