{
    "cas_no": "73096-42-1",
    "key_name": "5-(2-Bromophenyl)-2<em>H</em>-tetrazole",
    "cn_name": "5-(2-溴苯)-1H-四唑;邻溴四唑;5-邻溴苯基四氮唑;",
    "alternate_name": "2<em>H</em>-Tetrazole, 5-(2-bromophenyl)-;1<em>H</em>-Tetrazole, 5-(2-bromophenyl)-;Tetrazole, 5-(<em>o</em>-bromophenyl)-;5-(2-Bromophenyl)-2<em>H</em>-tetrazole;5-(<em>o</em>-Bromophenyl)tetrazole;5-(2-Bromophenyl)-1<em>H</em>-tetrazole;5-(2-Bromophenyl)tetrazole;5-(2-Bromophenyl)-1<em>H</em>-1,2,3,4-tetrazole",
    "duplicated_cas_no": "",
    "SMILES": "BrC1=C(C=2NN=NN2)C=CC=C1",
    "meta_data": {
        "InChI": "InChI=1S/C7H5BrN4/c8-6-4-2-1-3-5(6)7-9-11-12-10-7/h1-4H,(H,9,10,11,12)",
        "InChIKey": null,
        "Canonical SMILES": "BrC=1C=CC=CC1C2=NN=NN2",
        "Molecular Formula": "C<sub>7</sub>H<sub>5</sub>BrN<sub>4</sub>",
        "Molecular Mass": "225.05",
        "Melting Point": "174-176 °C"
    }
}