{
    "cas_no": "25233-30-1",
    "key_name": "Polyaniline",
    "cn_name": null,
    "alternate_name": "Benzenamine, homopolymer;Aniline, polymers;Aniline homopolymer;Polyaniline;Aniline polymer;Polyphenyleneamine;Polyemeraldine;Versicon;Ormecon;Anirido;Corrpassiv 4900;Corrpassiv 4901;Skippers Corrpassiv;XICP O501;PASS 01;P 4000W;D 1002W;D 1500W;Anilide SB 50;Kemipol;Panipol W;Aniline acetate homopolymer;JGT ES 1;ZP-ES 1;JGT-EB 1;NS 09/205W;PANT;XZ-BA 02;XZ-BAY 03;AS 8526;PA-N 35S;DF 535;HS 0394;PANI",
    "duplicated_cas_no": "105961-05-5;133066-46-3;159996-84-6;163966-67-4;164354-56-7;241824-47-5;245071-51-6;449773-31-3;868978-05-6;1118677-55-6;1144028-79-4;1235970-92-9;1236299-74-3;1263272-01-0;1266684-48-3;1426242-72-9;1558055-29-0;1644037-09-1;1704728-49-3;1883400-49-4;2088060-55-1;2712744-07-3;2712744-08-4",
    "SMILES": "NC1=CC=CC=C1",
    "meta_data": {
        "InChI": "InChI=1S/C6H7N/c7-6-4-2-1-3-5-6/h1-5H,7H2",
        "InChIKey": null,
        "Canonical SMILES": "NC=1C=CC=CC1",
        "Molecular Formula": "(C<sub>6</sub>H<sub>7</sub>N)<sub>x</sub>",
        "Molecular Mass": "",
        "Melting Point": "745 °C",
        "Density": "1.1-1.3 g/cm³"
    }
}