{
    "cas_no": "87-87-6",
    "key_name": "Tetrachloro-<em>p</em>-hydroquinone",
    "cn_name": "2,3,5,6-四氯-1,4-苯二酚;四氯氢醌;",
    "alternate_name": "1,4-Benzenediol, 2,3,5,6-tetrachloro-;Hydroquinone, tetrachloro-;2,3,5,6-Tetrachloro-1,4-benzenediol;Tetrachloro-<em>p</em>-hydroquinone;Tetrachlorobenzoquinol;2,3,5,6-Tetrachlorohydroquinone;Tetrachloro-<em>p</em>-benzohydroquinone;Dihydro-<em>p</em>-chloranil;Perchlorohydroquinone;Nordrosophilin A;Tetrachloro-1,4-hydroquinone;2,3,5,6-Tetrachloro-1,4-dihydroxybenzene;Tetrachloro-1,4-benzenediol;NSC 100888;NSC 4858",
    "duplicated_cas_no": "29764-02-1",
    "SMILES": "ClC1=C(Cl)C(O)=C(Cl)C(Cl)=C1O",
    "meta_data": {
        "InChI": "InChI=1S/C6H2Cl4O2/c7-1-2(8)6(12)4(10)3(9)5(1)11/h11-12H",
        "InChIKey": null,
        "Canonical SMILES": "ClC=1C(Cl)=C(O)C(Cl)=C(Cl)C1O",
        "Molecular Formula": "C<sub>6</sub>H<sub>2</sub>Cl<sub>4</sub>O<sub>2</sub>",
        "Molecular Mass": "247.89",
        "Melting Point": "220 °C"
    }
}