{
    "cas_no": "51146-57-7",
    "key_name": "(-)-Ibuprofen",
    "cn_name": null,
    "alternate_name": "Benzeneacetic acid, α-methyl-4-(2-methylpropyl)-, (α<em>R</em>)-;Benzeneacetic acid, α-methyl-4-(2-methylpropyl)-, (<em>R</em>)-;(α<em>R</em>)-α-Methyl-4-(2-methylpropyl)benzeneacetic acid;(-)-Ibuprofen;<em>R</em>-(-)-<em>p</em>-Isobutylhydratropic acid;<em>l</em>-Ibuprofen;(<em>R</em>)-(-)-Ibuprofen;(<em>R</em>)-Ibuprofen;(-)-Ibuprophen;(<em>R</em>)-2-(4-Isobutylphenyl)propanoic acid;(-)-α-Methyl-4-(2-methylpropyl)benzeneacetic acid;(R)-2-(4-Isobutylphenyl)propanoic acid;(2R)-2-[4-(2-Methylpropyl)phenyl]propanoic acid",
    "duplicated_cas_no": "",
    "SMILES": "[C@@H](C(O)=O)(C)C1=CC=C(CC(C)C)C=C1",
    "meta_data": {
        "InChI": "InChI=1S/C13H18O2/c1-9(2)8-11-4-6-12(7-5-11)10(3)13(14)15/h4-7,9-10H,8H2,1-3H3,(H,14,15)/t10-/m1/s1",
        "InChIKey": null,
        "Canonical SMILES": "O=C(O)C(C1=CC=C(C=C1)CC(C)C)C",
        "Molecular Formula": "C<sub>13</sub>H<sub>18</sub>O<sub>2</sub>",
        "Molecular Mass": "206.28",
        "Melting Point": "48-49 °C"
    }
}