{
    "cas_no": "163119-30-0",
    "key_name": "2-[[[3-Methyl-1-oxido-4-(2,2,2-trifluoroethoxy)-2-pyridinyl]methyl]thio]-1<em>H</em>-benzimidazole",
    "cn_name": null,
    "alternate_name": "1<em>H</em>-Benzimidazole, 2-[[[3-methyl-1-oxido-4-(2,2,2-trifluoroethoxy)-2-pyridinyl]methyl]thio]-;1<em>H</em>-Benzimidazole, 2-[[[3-methyl-4-(2,2,2-trifluoroethoxy)-2-pyridinyl]methyl]thio]-, <em>N</em>-oxide;2-[[[3-Methyl-1-oxido-4-(2,2,2-trifluoroethoxy)-2-pyridinyl]methyl]thio]-1<em>H</em>-benzimidazole;2-[[[4-(2,2,2-Trifluoroethoxy)-3-methyl-1-oxopyridin-2-yl]methyl]sulfanyl]-1<em>H</em>-benzimidazole;2-[[3-Methyl-1-oxido-4-(2,2,2-trifluoroethoxy)pyridin-1-ium-2-yl]methylsulfanyl]-1<em>H</em>-benzimidazole",
    "duplicated_cas_no": "",
    "SMILES": "S(CC1=C(C)C(OCC(F)(F)F)=CC=N1=O)C=2NC=3C(N2)=CC=CC3",
    "meta_data": {
        "InChI": "InChI=1S/C16H14F3N3O2S/c1-10-13(22(23)7-6-14(10)24-9-16(17,18)19)8-25-15-20-11-4-2-3-5-12(11)21-15/h2-7H,8-9H2,1H3,(H,20,21)",
        "InChIKey": null,
        "Canonical SMILES": "O=N1=CC=C(OCC(F)(F)F)C(=C1CSC2=NC=3C=CC=CC3N2)C",
        "Molecular Formula": "C<sub>16</sub>H<sub>14</sub>F<sub>3</sub>N<sub>3</sub>O<sub>2</sub>S",
        "Molecular Mass": "369.36",
        "Melting Point": "225-226 °C"
    }
}