{
    "cas_no": "2478-38-8",
    "key_name": "Acetosyringone",
    "cn_name": "乙酰丁香酮;4\"-羟基-3\",5\"-二甲氧基苯乙酮;",
    "alternate_name": "Ethanone, 1-(4-hydroxy-3,5-dimethoxyphenyl)-;Acetophenone, 4′-hydroxy-3′,5′-dimethoxy-;1-(4-Hydroxy-3,5-dimethoxyphenyl)ethanone;Acetosyringone;4′-Hydroxy-3′,5′-dimethoxyacetophenone;2,6-Dimethoxy-4-acetylphenol;4-Acetyl-2,6-dimethoxyphenol;Syringylethanone;2,6-Dimethoxy-4-acetophenol;3′,5′-Dimethoxy-4′-hydroxyacetophenone;Syringone;4-Acetylsyringol;4-Hydroxy-3,5-dimethoxyphenylethanone;Acetosyringenin;1-(4-Hydroxy-3,5-dimethoxyphenyl)ethan-1-one",
    "duplicated_cas_no": "",
    "SMILES": "O(C)C1=C(O)C(OC)=CC(C(C)=O)=C1",
    "meta_data": {
        "InChI": "InChI=1S/C10H12O4/c1-6(11)7-4-8(13-2)10(12)9(5-7)14-3/h4-5,12H,1-3H3",
        "InChIKey": null,
        "Canonical SMILES": "O=C(C1=CC(OC)=C(O)C(OC)=C1)C",
        "Molecular Formula": "C<sub>10</sub>H<sub>12</sub>O<sub>4</sub>",
        "Molecular Mass": "196.20",
        "Melting Point": "117 °C"
    }
}