{
    "cas_no": "6713-27-5",
    "key_name": "Moronic acid",
    "cn_name": null,
    "alternate_name": "Olean-18-en-28-oic acid, 3-oxo-;3-Oxoolean-18-en-28-oic acid;Moronic acid;Ambronic acid;(+)-Moronic acid",
    "duplicated_cas_no": "",
    "SMILES": "C[C@]12[C@@]3(C)[C@@](C=4[C@@](C(O)=O)(CC3)CCC(C)(C)C4)(CC[C@@]1([C@]5(C)[C@@](CC2)(C(C)(C)C(=O)CC5)[H])[H])[H]",
    "meta_data": {
        "InChI": "InChI=1S/C30H46O3/c1-25(2)14-16-30(24(32)33)17-15-28(6)19(20(30)18-25)8-9-22-27(5)12-11-23(31)26(3,4)21(27)10-13-29(22,28)7/h18-19,21-22H,8-17H2,1-7H3,(H,32,33)/t19-,21+,22-,27+,28-,29-,30+/m1/s1",
        "InChIKey": null,
        "Canonical SMILES": "O=C(O)C12C(=CC(C)(C)CC1)C3CCC4C5(C)CCC(=O)C(C)(C)C5CCC4(C)C3(C)CC2",
        "Molecular Formula": "C<sub>30</sub>H<sub>46</sub>O<sub>3</sub>",
        "Molecular Mass": "454.68",
        "Melting Point": "192-194 °C"
    }
}