{
    "cas_no": "10031-27-3",
    "key_name": "Tellurium bromide (TeBr<sub>4</sub>), (<em>T</em>-4)-",
    "cn_name": "溴化碲;溴化碲;四溴化碲;四溴化碲, ULTRA DRY, 99.999% (METALS BASIS);四溴化碲, 99.9% (METALS BASIS);",
    "alternate_name": "Tellurium bromide (TeBr<sub>4</sub>), (<em>T</em>-4)-;Tellurium bromide (TeBr<sub>4</sub>);Telluric bromide;Tellurium tetrabromide;Tetrabromotellurium;Tellurium(IV) tetrabromide",
    "duplicated_cas_no": "",
    "SMILES": "[Te](Br)(Br)(Br)Br",
    "meta_data": {
        "InChI": "InChI=1S/Br4Te/c1-5(2,3)4",
        "InChIKey": null,
        "Canonical SMILES": "Br[Te](Br)(Br)Br",
        "Molecular Formula": "Br<sub>4</sub>Te",
        "Molecular Mass": "",
        "Melting Point": "388 °C"
    }
}