{
    "cas_no": "7252-83-7",
    "key_name": "2-Bromo-1,1-dimethoxyethane",
    "cn_name": "2-溴-1,1-二甲氧基乙烷;溴代乙醛缩二甲醇;",
    "alternate_name": "Ethane, 2-bromo-1,1-dimethoxy-;Acetaldehyde, bromo-, dimethyl acetal;2-Bromo-1,1-dimethoxyethane;Bromoacetaldehyde dimethyl acetal;2,2-Dimethoxybromoethane;2,2-Dimethoxyethyl bromide;1-Bromo-2,2-dimethoxyethane;2-Bromoacetaldehyde dimethyl acetal;1,1-Dimethoxy-2-bromoethane;NSC 73700;2,2-Dimethoxy-1-bromoethane;Bromoacetoaldehyde dimethyl acetal",
    "duplicated_cas_no": "",
    "SMILES": "C(CBr)(OC)OC",
    "meta_data": {
        "InChI": "InChI=1S/C4H9BrO2/c1-6-4(3-5)7-2/h4H,3H2,1-2H3",
        "InChIKey": null,
        "Canonical SMILES": "BrCC(OC)OC",
        "Molecular Formula": "C<sub>4</sub>H<sub>9</sub>BrO<sub>2</sub>",
        "Molecular Mass": "169.02",
        "Boiling Point": "149 °C",
        "Density": "1.430 g/cm³ @ Temp: 20 °C"
    }
}