{
    "cas_no": "34683-73-3",
    "key_name": "1-Chloro-6-iodohexane",
    "cn_name": "1-氯-6-碘己烷;1-氯-6-碘己烷;1-氯-6-碘己烷,97%;",
    "alternate_name": "Hexane, 1-chloro-6-iodo-;1-Chloro-6-iodohexane;1-Iodo-6-chlorohexane;6-Chloro-1-iodohexane;6-Iodo-1-chlorohexane",
    "duplicated_cas_no": "",
    "SMILES": "C(CCCI)CCCl",
    "meta_data": {
        "InChI": "InChI=1S/C6H12ClI/c7-5-3-1-2-4-6-8/h1-6H2",
        "InChIKey": null,
        "Canonical SMILES": "ClCCCCCCI",
        "Molecular Formula": "C<sub>6</sub>H<sub>12</sub>ClI",
        "Molecular Mass": "246.52",
        "Boiling Point": "73-74 °C @ Press: 0.7 Torr"
    }
}