{
    "cas_no": "4213-45-0",
    "key_name": "Quinacrine mustard",
    "cn_name": "氮芥喹丫因;氮芥喹丫因;",
    "alternate_name": "1,4-Pentanediamine, <em>N</em><sup>1</sup>,<em>N</em><sup>1</sup>-bis(2-chloroethyl)-<em>N</em><sup>4</sup>-(6-chloro-2-methoxy-9-acridinyl)-, hydrochloride (1:2);Acridine, 9-[[4-[bis(2-chloroethyl)amino]-1-methylbutyl]amino]-6-chloro-2-methoxy-, dihydrochloride;1,4-Pentanediamine, <em>N</em><sup>1</sup>,<em>N</em><sup>1</sup>-bis(2-chloroethyl)-<em>N</em><sup>4</sup>-(6-chloro-2-methoxy-9-acridinyl)-, dihydrochloride;2-Methoxy-6-chloro-9-[4-bis[2-chloroethyl]amino-1-methylbutyl amino)acridine dihydrochloride;Quinacrine mustard;Quinacrine mustard dihydrochloride;ICR 10;NSC 3424",
    "duplicated_cas_no": "39362-56-6",
    "SMILES": "N(C(CCCN(CCCl)CCCl)C)C=1C2=C(N=C3C1C=CC(Cl)=C3)C=CC(OC)=C2.Cl",
    "meta_data": {
        "InChI": "InChI=1S/C23H28Cl3N3O.2ClH/c1-16(4-3-11-29(12-9-24)13-10-25)27-23-19-7-5-17(26)14-22(19)28-21-8-6-18(30-2)15-20(21)23;;/h5-8,14-16H,3-4,9-13H2,1-2H3,(H,27,28);2*1H",
        "InChIKey": null,
        "Canonical SMILES": "Cl.ClC=1C=CC=2C(=NC=3C=CC(OC)=CC3C2NC(C)CCCN(CCCl)CCCl)C1",
        "Molecular Formula": "C<sub>23</sub>H<sub>28</sub>Cl<sub>3</sub>N<sub>3</sub>O.2ClH",
        "Molecular Mass": "",
        "Melting Point": "110 °C (decomp)"
    }
}