{
    "cas_no": "14916-80-4",
    "key_name": "3-Octyn-1-ol",
    "cn_name": "3-辛炔-1-醇;",
    "alternate_name": "3-Octyn-1-ol;NSC 67251",
    "duplicated_cas_no": "",
    "SMILES": "C(CCCC)#CCCO",
    "meta_data": {
        "InChI": "InChI=1S/C8H14O/c1-2-3-4-5-6-7-8-9/h9H,2-4,7-8H2,1H3",
        "InChIKey": null,
        "Canonical SMILES": "OCCC#CCCCC",
        "Molecular Formula": "C<sub>8</sub>H<sub>14</sub>O",
        "Molecular Mass": "126.20",
        "Boiling Point": "97 °C",
        "Density": "0.8765 g/cm³ @ Temp: 20 °C"
    }
}