{
    "cas_no": "603-86-1",
    "key_name": "2-Chloro-6-nitrophenol",
    "cn_name": "2-氯-6-硝基苯酚;2-硝基-6-氯苯酚;",
    "alternate_name": "Phenol, 2-chloro-6-nitro-;2-Chloro-6-nitrophenol;6-Chloro-2-nitrophenol;NSC 28581",
    "duplicated_cas_no": "",
    "SMILES": "N(=O)(=O)C1=C(O)C(Cl)=CC=C1",
    "meta_data": {
        "InChI": "InChI=1S/C6H4ClNO3/c7-4-2-1-3-5(6(4)9)8(10)11/h1-3,9H",
        "InChIKey": null,
        "Canonical SMILES": "O=N(=O)C=1C=CC=C(Cl)C1O",
        "Molecular Formula": "C<sub>6</sub>H<sub>4</sub>ClNO<sub>3</sub>",
        "Molecular Mass": "173.55",
        "Melting Point": "70 °C"
    }
}