{
    "cas_no": "17745-04-9",
    "key_name": "Imidazo[1,2-<em>a</em>]pyridine-3-acetic acid",
    "cn_name": null,
    "alternate_name": "Imidazo[1,2-<em>a</em>]pyridine-3-acetic acid;2-(Imidazolo[1,2-<em>a</em>]pyridin-3-yl)acetic acid;2-(Imidazo[1,2-<em>a</em>]pyridin-3-yl)acetic acid",
    "duplicated_cas_no": "63907-25-5",
    "SMILES": "C(C(O)=O)C=1N2C(=NC1)C=CC=C2",
    "meta_data": {
        "InChI": "InChI=1S/C9H8N2O2/c12-9(13)5-7-6-10-8-3-1-2-4-11(7)8/h1-4,6H,5H2,(H,12,13)",
        "InChIKey": null,
        "Canonical SMILES": "O=C(O)CC1=CN=C2C=CC=CN21",
        "Molecular Formula": "C<sub>9</sub>H<sub>8</sub>N<sub>2</sub>O<sub>2</sub>",
        "Molecular Mass": "176.17",
        "Melting Point": "255-256 °C"
    }
}