{
    "cas_no": "598-73-2",
    "key_name": "1-Bromo-1,2,2-trifluoroethene",
    "cn_name": "三氟溴乙烯;溴代三氟代乙烯;",
    "alternate_name": "Ethene, 1-bromo-1,2,2-trifluoro-;Ethylene, bromotrifluoro-;Ethene, bromotrifluoro-;1-Bromo-1,2,2-trifluoroethene;1-Bromo-1,2,2-trifluoroethylene;Bromotrifluoroethylene;Trifluorovinyl bromide;Trifluorobromoethylene;1,2,2-Trifluoro-2-bromoethylene;Bromotrifluoroethene;HBFC 1113B1;1,1,2-Trifluoro-2-bromoethylene",
    "duplicated_cas_no": "",
    "SMILES": "C(=C(F)F)(Br)F",
    "meta_data": {
        "InChI": "InChI=1S/C2BrF3/c3-1(4)2(5)6",
        "InChIKey": null,
        "Canonical SMILES": "FC(F)=C(F)Br",
        "Molecular Formula": "C<sub>2</sub>BrF<sub>3</sub>",
        "Molecular Mass": "160.92",
        "Boiling Point": "-1 °C"
    }
}