{
    "cas_no": "61323-24-8",
    "key_name": "4-Methyl-2-(2-methylpropyl)thiazole",
    "cn_name": "2-异丁基-4-甲基噻唑;",
    "alternate_name": "Thiazole, 4-methyl-2-(2-methylpropyl)-;4-Methyl-2-(2-methylpropyl)thiazole;2-Isobutyl-4-methylthiazole",
    "duplicated_cas_no": "",
    "SMILES": "C(C(C)C)C1=NC(C)=CS1",
    "meta_data": {
        "InChI": "InChI=1S/C8H13NS/c1-6(2)4-8-9-7(3)5-10-8/h5-6H,4H2,1-3H3",
        "InChIKey": null,
        "Canonical SMILES": "N=1C(=CSC1CC(C)C)C",
        "Molecular Formula": "C<sub>8</sub>H<sub>13</sub>NS",
        "Molecular Mass": "155.26",
        "Boiling Point": "189 °C"
    }
}