{
    "cas_no": "4294-45-5",
    "key_name": "<span class=\"text-smallcaps\">DL</span>-<em>threo</em>-β-Hydroxyaspartic acid",
    "cn_name": null,
    "alternate_name": "<span class=\"text-smallcaps\">D</span>-Aspartic acid, 3-hydroxy-, (3<em>R</em>)-<em>rel</em>-;Aspartic acid, 3-hydroxy-, <span class=\"text-smallcaps\">DL</span>-<em>threo</em>-;<span class=\"text-smallcaps\">DL</span>-Aspartic acid, 3-hydroxy-, <em>threo</em>-;<em>rel</em>-(3<em>R</em>)-3-Hydroxy-<span class=\"text-smallcaps\">D</span>-aspartic acid;<span class=\"text-smallcaps\">DL</span>-<em>threo</em>-3-Hydroxyaspartic acid;<span class=\"text-smallcaps\">DL</span>-<em>threo</em>-β-Hydroxyaspartic acid;<em>threo</em>-3-Hydroxy-<span class=\"text-smallcaps\">DL</span>-aspartic acid",
    "duplicated_cas_no": "5174-55-0",
    "SMILES": "[C@H]([C@@H](C(O)=O)O)(C(O)=O)N",
    "meta_data": {
        "InChI": "InChI=1/C4H7NO5/c5-1(3(7)8)2(6)4(9)10/h1-2,6H,5H2,(H,7,8)(H,9,10)/t1-,2-/s2",
        "InChIKey": null,
        "Canonical SMILES": "O=C(O)C(O)C(N)C(=O)O",
        "Molecular Formula": "C<sub>4</sub>H<sub>7</sub>NO<sub>5</sub>",
        "Molecular Mass": "149.10",
        "Melting Point": "220-260 °C (decomp)"
    }
}