{
    "cas_no": "2863-98-1",
    "key_name": "Benzonitrile, 4-hydrazinyl-, hydrochloride (1:1)",
    "cn_name": "4-氰基苯肼盐酸盐;",
    "alternate_name": "Benzonitrile, 4-hydrazinyl-, hydrochloride (1:1);Benzonitrile, <em>p</em>-hydrazino-, monohydrochloride;Benzonitrile, 4-hydrazino-, monohydrochloride;Benzonitrile, <em>p</em>-hydrazino-, hydrochloride;(4-Cyanophenyl)hydrazine hydrochloride;4-Hydrazinobenzonitrile monohydrochloride;4-(Hydrazino)benzonitrile hydrochloride;<em>p</em>-Cyanophenylhydrazine hydrochloride;4-Hydrazinylbenzonitrile hydrochloride",
    "duplicated_cas_no": "2413452-95-4",
    "SMILES": "C(#N)C1=CC=C(NN)C=C1.Cl",
    "meta_data": {
        "InChI": "InChI=1S/C7H7N3.ClH/c8-5-6-1-3-7(10-9)4-2-6;/h1-4,10H,9H2;1H",
        "InChIKey": null,
        "Canonical SMILES": "Cl.N#CC1=CC=C(C=C1)NN",
        "Molecular Formula": "C<sub>7</sub>H<sub>7</sub>N<sub>3</sub>.ClH",
        "Molecular Mass": "",
        "Melting Point": "240 °C"
    }
}