{
    "cas_no": "25660-71-3",
    "key_name": "5-[(Phenylmethyl)thio]-1,3,4-thiadiazol-2-amine",
    "cn_name": "氨基苄巯基噻二唑;氨基苄巯基噻二唑;2-氨基-5-苄基巯基-1,3,4-噻二唑;",
    "alternate_name": "1,3,4-Thiadiazol-2-amine, 5-[(phenylmethyl)thio]-;1,3,4-Thiadiazole, 2-amino-5-(benzylthio)-;5-[(Phenylmethyl)thio]-1,3,4-thiadiazol-2-amine;2-Amino-5-benzylthio-1,3,4-thiadiazole;2-Amino-5-benzylthio-1,2,4-thiadiazol;2-Amino-5-benzylmercapto-1,3,4-thiadiazole;NSC 204491;5-Benzylsulfanyl-2-amino-1,3,4-thiadiazole;5-Amino-2-(benzylthio)-1,3,4-thiadiazole",
    "duplicated_cas_no": "",
    "SMILES": "S(CC1=CC=CC=C1)C2=NN=C(N)S2",
    "meta_data": {
        "InChI": "InChI=1S/C9H9N3S2/c10-8-11-12-9(14-8)13-6-7-4-2-1-3-5-7/h1-5H,6H2,(H2,10,11)",
        "InChIKey": null,
        "Canonical SMILES": "N=1N=C(SC1SCC=2C=CC=CC2)N",
        "Molecular Formula": "C<sub>9</sub>H<sub>9</sub>N<sub>3</sub>S<sub>2</sub>",
        "Molecular Mass": "223.32",
        "Melting Point": "158 °C"
    }
}