{
    "cas_no": "63335-25-1",
    "key_name": "Malabaricone C",
    "cn_name": null,
    "alternate_name": "1-Nonanone, 1-(2,6-dihydroxyphenyl)-9-(3,4-dihydroxyphenyl)-;1-(2,6-Dihydroxyphenyl)-9-(3,4-dihydroxyphenyl)-1-nonanone;Malabaricone C;NSC 287968",
    "duplicated_cas_no": "",
    "SMILES": "C(CCCCCCCCC1=CC(O)=C(O)C=C1)(=O)C2=C(O)C=CC=C2O",
    "meta_data": {
        "InChI": "InChI=1S/C21H26O5/c22-16-13-12-15(14-20(16)26)8-5-3-1-2-4-6-9-17(23)21-18(24)10-7-11-19(21)25/h7,10-14,22,24-26H,1-6,8-9H2",
        "InChIKey": null,
        "Canonical SMILES": "O=C(C=1C(O)=CC=CC1O)CCCCCCCCC2=CC=C(O)C(O)=C2",
        "Molecular Formula": "C<sub>21</sub>H<sub>26</sub>O<sub>5</sub>",
        "Molecular Mass": "358.43",
        "Melting Point": "122-124 °C"
    }
}