{
    "cas_no": "2550-21-2",
    "key_name": "3-Methyl-2-hexanone",
    "cn_name": "3-甲基-2-己酮;",
    "alternate_name": "2-Hexanone, 3-methyl-;3-Methyl-2-hexanone",
    "duplicated_cas_no": "",
    "SMILES": "C(CCC)(C(C)=O)C",
    "meta_data": {
        "InChI": "InChI=1S/C7H14O/c1-4-5-6(2)7(3)8/h6H,4-5H2,1-3H3",
        "InChIKey": null,
        "Canonical SMILES": "O=C(C)C(C)CCC",
        "Molecular Formula": "C<sub>7</sub>H<sub>14</sub>O",
        "Molecular Mass": "114.19",
        "Boiling Point": "143.5 °C",
        "Density": "0.828 g/cm³ @ Temp: 25 °C"
    }
}