{
    "cas_no": "947-73-9",
    "key_name": "9-Aminophenanthrene",
    "cn_name": "9-菲胺;9-氨基酸菲;",
    "alternate_name": "9-Phenanthrenamine;9-Phenanthrylamine;9-Aminophenanthrene;(Phenanthren-9-yl)amine",
    "duplicated_cas_no": "",
    "SMILES": "NC1=C2C(=C3C(=C1)C=CC=C3)C=CC=C2",
    "meta_data": {
        "InChI": "InChI=1S/C14H11N/c15-14-9-10-5-1-2-6-11(10)12-7-3-4-8-13(12)14/h1-9H,15H2",
        "InChIKey": null,
        "Canonical SMILES": "NC1=CC=2C=CC=CC2C=3C=CC=CC13",
        "Molecular Formula": "C<sub>14</sub>H<sub>11</sub>N",
        "Molecular Mass": "193.24",
        "Melting Point": "138.3 °C"
    }
}