{
    "cas_no": "2901-76-0",
    "key_name": "<em>N</em>-Benzoyl-<span class=\"text-smallcaps\">DL</span>-phenylalanine",
    "cn_name": null,
    "alternate_name": "Phenylalanine, <em>N</em>-benzoyl-;<span class=\"text-smallcaps\">DL</span>-Phenylalanine, <em>N</em>-benzoyl-;Alanine, <em>N</em>-benzoyl-3-phenyl-, <span class=\"text-smallcaps\">DL</span>-;<em>N</em>-Benzoylphenylalanine;<em>N</em>-Benzoyl-<span class=\"text-smallcaps\">DL</span>-phenylalanine;<span class=\"text-smallcaps\">DL</span>-2-Benzamido-3-phenylpropionic acid;<span class=\"text-smallcaps\">DL</span>-<em>N</em>-Benzoylphenylalanine;<span class=\"text-smallcaps\">DL</span>-Bz-Phenylalanine;NSC 96354;2-Benzamido-3-phenylpropanoicacid;3-Phenyl-2-(phenylformamido)propanoic acid;2-Benzamido-3-phenylpropanoic acid",
    "duplicated_cas_no": "195060-97-0;200489-43-6;201137-52-2",
    "SMILES": "C(NC(=O)C1=CC=CC=C1)(CC2=CC=CC=C2)C(O)=O",
    "meta_data": {
        "InChI": "InChI=1S/C16H15NO3/c18-15(13-9-5-2-6-10-13)17-14(16(19)20)11-12-7-3-1-4-8-12/h1-10,14H,11H2,(H,17,18)(H,19,20)",
        "InChIKey": null,
        "Canonical SMILES": "O=C(O)C(NC(=O)C=1C=CC=CC1)CC=2C=CC=CC2",
        "Molecular Formula": "C<sub>16</sub>H<sub>15</sub>NO<sub>3</sub>",
        "Molecular Mass": "269.30",
        "Melting Point": "187 °C"
    }
}