{
    "cas_no": "869-10-3",
    "key_name": "1,6-Diethyl 2,5-dibromohexanedioate",
    "cn_name": null,
    "alternate_name": "Hexanedioic acid, 2,5-dibromo-, 1,6-diethyl ester;Hexanedioic acid, 2,5-dibromo-, diethyl ester;1,6-Diethyl 2,5-dibromohexanedioate;Diethyl 2,5-dibromoadipate;Diethyl 2,5-dibromohexanedioate;Diethyl α,α′-dibromoadipate;2,5-Dibromohexanedioic acid diethyl ester;NSC 49144",
    "duplicated_cas_no": "",
    "SMILES": "C(CCC(C(OCC)=O)Br)(C(OCC)=O)Br",
    "meta_data": {
        "InChI": "InChI=1S/C10H16Br2O4/c1-3-15-9(13)7(11)5-6-8(12)10(14)16-4-2/h7-8H,3-6H2,1-2H3",
        "InChIKey": null,
        "Canonical SMILES": "O=C(OCC)C(Br)CCC(Br)C(=O)OCC",
        "Molecular Formula": "C<sub>10</sub>H<sub>16</sub>Br<sub>2</sub>O<sub>4</sub>",
        "Molecular Mass": "360.04",
        "Boiling Point": "195 °C @ Press: 10 Torr",
        "Melting Point": "75 °C",
        "Density": "1.5501 g/cm³ @ Temp: 20 °C"
    }
}