{
    "cas_no": "112-61-8",
    "key_name": "Methyl stearate",
    "cn_name": null,
    "alternate_name": "Octadecanoic acid, methyl ester;Stearic acid, methyl ester;Methyl octadecanoate;Methyl stearate;Methyl <em>n</em>-octadecanoate;<em>n</em>-Octadecanoic acid methyl ester;Kemester 9718;Pastell M 180;Emery 2218;NSC 9418;Exceparl MS;Esterol A",
    "duplicated_cas_no": "172226-13-0;172226-14-1;218433-32-0",
    "SMILES": "C(CCCCCCCCCCCC)CCCCC(OC)=O",
    "meta_data": {
        "InChI": "InChI=1S/C19H38O2/c1-3-4-5-6-7-8-9-10-11-12-13-14-15-16-17-18-19(20)21-2/h3-18H2,1-2H3",
        "InChIKey": null,
        "Canonical SMILES": "O=C(OC)CCCCCCCCCCCCCCCCC",
        "Molecular Formula": "C<sub>19</sub>H<sub>38</sub>O<sub>2</sub>",
        "Molecular Mass": "298.50",
        "Boiling Point": "443 °C",
        "Melting Point": "39.1 °C",
        "Density": "0.8498 g/cm³ @ Temp: 40 °C"
    }
}