{
    "cas_no": "52438-21-8",
    "key_name": "(<em>E</em>)-3-Phenyl-1-(pyrrolidino)-2-propen-1-one",
    "cn_name": null,
    "alternate_name": "2-Propen-1-one, 3-phenyl-1-(1-pyrrolidinyl)-, (2<em>E</em>)-;Pyrrolidine, 1-(1-oxo-3-phenyl-2-propenyl)-, (<em>E</em>)-;Pyrrolidine, 1-[(2<em>E</em>)-1-oxo-3-phenyl-2-propenyl]-;(2<em>E</em>)-3-Phenyl-1-(1-pyrrolidinyl)-2-propen-1-one;Cinnamopyrrolidide;1-[(2<em>E</em>)-1-Oxo-3-phenyl-2-propenyl]pyrrolidine;(<em>E</em>)-3-Phenyl-1-(pyrrolidino)-2-propen-1-one",
    "duplicated_cas_no": "",
    "SMILES": "C(/C=C/C1=CC=CC=C1)(=O)N2CCCC2",
    "meta_data": {
        "InChI": "InChI=1S/C13H15NO/c15-13(14-10-4-5-11-14)9-8-12-6-2-1-3-7-12/h1-3,6-9H,4-5,10-11H2/b9-8+",
        "InChIKey": null,
        "Canonical SMILES": "O=C(C=CC=1C=CC=CC1)N2CCCC2",
        "Molecular Formula": "C<sub>13</sub>H<sub>15</sub>NO",
        "Molecular Mass": "201.26",
        "Melting Point": "93-94 °C"
    }
}