{
    "cas_no": "2078-71-9",
    "key_name": "(2-Hydroxyethyl)urea",
    "cn_name": null,
    "alternate_name": "Urea, <em>N</em>-(2-hydroxyethyl)-;Urea, (2-hydroxyethyl)-;<em>N</em>-(2-Hydroxyethyl)urea;Monoethylolurea;<em>N</em>-(β-Hydroxyethyl)urea;(2-Hydroxyethyl)urea;(β-Hydroxyethyl)urea;Monoethanolurea;1-(2-Hydroxyethyl)urea;NSC 1127;Hydrovance",
    "duplicated_cas_no": "",
    "SMILES": "N(C(N)=O)CCO",
    "meta_data": {
        "InChI": "InChI=1S/C3H8N2O2/c4-3(7)5-1-2-6/h6H,1-2H2,(H3,4,5,7)",
        "InChIKey": null,
        "Canonical SMILES": "O=C(N)NCCO",
        "Molecular Formula": "C<sub>3</sub>H<sub>8</sub>N<sub>2</sub>O<sub>2</sub>",
        "Molecular Mass": "104.11",
        "Melting Point": "94-95 °C"
    }
}