{
    "cas_no": "1003-32-3",
    "key_name": "5-Thiazolecarboxaldehyde",
    "cn_name": "5-噻唑甲醛;噻唑-5-甲醛;",
    "alternate_name": "5-Thiazolecarboxaldehyde;5-Formylthiazole;1,3-Thiazole-5-carboxaldehyde;1,3-Thiazole-5-carbaldehyde",
    "duplicated_cas_no": "",
    "SMILES": "C(=O)C1=CN=CS1",
    "meta_data": {
        "InChI": "InChI=1S/C4H3NOS/c6-2-4-1-5-3-7-4/h1-3H",
        "InChIKey": null,
        "Canonical SMILES": "O=CC=1SC=NC1",
        "Molecular Formula": "C<sub>4</sub>H<sub>3</sub>NOS",
        "Molecular Mass": "113.14",
        "Boiling Point": "90-94 °C @ Press: 12 Torr",
        "Melting Point": "229 °C (decomp)"
    }
}