{
    "cas_no": "13014-24-9",
    "key_name": "1,2-Dichloro-4-(trichloromethyl)benzene",
    "cn_name": null,
    "alternate_name": "Benzene, 1,2-dichloro-4-(trichloromethyl)-;Toluene, α,α,α,3,4-pentachloro-;1,2-Dichloro-4-(trichloromethyl)benzene;3,4-Dichlorophenyltrichloromethane;α,α,α,3,4-Pentachlorotoluene;3,4-Dichlorobenzotrichloride;3,4-Dichlorotrichloromethylbenzene;3,4-α,α,α-Pentachlorotoluene;NSC 163901",
    "duplicated_cas_no": "",
    "SMILES": "C(Cl)(Cl)(Cl)C1=CC(Cl)=C(Cl)C=C1",
    "meta_data": {
        "InChI": "InChI=1S/C7H3Cl5/c8-5-2-1-4(3-6(5)9)7(10,11)12/h1-3H",
        "InChIKey": null,
        "Canonical SMILES": "ClC1=CC=C(C=C1Cl)C(Cl)(Cl)Cl",
        "Molecular Formula": "C<sub>7</sub>H<sub>3</sub>Cl<sub>5</sub>",
        "Molecular Mass": "264.36",
        "Boiling Point": "283.1 °C",
        "Melting Point": "25.8 °C"
    }
}