{
    "cas_no": "403-15-6",
    "key_name": "4-Fluoro-3-methylbenzoic acid",
    "cn_name": "4-氟-3-甲基苯甲酸;",
    "alternate_name": "Benzoic acid, 4-fluoro-3-methyl-;<em>m</em>-Toluic acid, 4-fluoro-;4-Fluoro-3-methylbenzoic acid;4-Fluoro-<em>m</em>-toluic acid;NSC 51778",
    "duplicated_cas_no": "",
    "SMILES": "C(O)(=O)C1=CC(C)=C(F)C=C1",
    "meta_data": {
        "InChI": "InChI=1S/C8H7FO2/c1-5-4-6(8(10)11)2-3-7(5)9/h2-4H,1H3,(H,10,11)",
        "InChIKey": null,
        "Canonical SMILES": "O=C(O)C1=CC=C(F)C(=C1)C",
        "Molecular Formula": "C<sub>8</sub>H<sub>7</sub>FO<sub>2</sub>",
        "Molecular Mass": "154.14",
        "Melting Point": "165 °C"
    }
}