{
    "cas_no": "3922-90-5",
    "key_name": "Oleandomycin",
    "cn_name": null,
    "alternate_name": "Oleandomycin;Nonanoic acid, 8-(3,5-dihydroxy-2,4-dimethylhexanoyl)-5-(4-dimethylaminotetrahydro-3-hydroxy-6-methylpyran-2-yloxy)-8,9-epoxy-2,4,6-trimethyl-3-(tetrahydro-5-hydroxy-4-methoxy-6-methylpyran-2-yloxy)-, μ-lactone;1,9-Dioxaspiro[2.13]hexadecane, oleandomycin deriv.;Amimycin;PA 775;1,9-Dioxaspiro[2.13]hexadecane-4,10-dione, 12-[(2,6-dideoxy-3-<em>O</em>-methyl-α-<span class=\"text-smallcaps\">L</smallcap>-<em>arabino</em>-hexopyranosyl)oxy]-6-hydroxy-5,7,8,11,13,15-hexamethyl-14-[[3,4,6-trideoxy-3-(dimethylamino)-β-<smallcap>D</span>-<em>xylo</em>-hexopyranosyl]oxy]-, [3<em>R</em>-(3<em>R</em>*,5<em>R</em>*,6<em>S</em>*,7<em>R</em>*,8<em>R</em>*,11<em>R</em>*,12<em>S</em>*,13<em>R</em>*,14<em>S</em>*,15<em>S</em>*)]-;Antibiotic PA 105;Romicil;[3<em>R</em>-(3<em>R</em>*,5<em>R</em>*,6<em>S</em>*,7<em>R</em>*,8<em>R</em>*,11<em>R</em>*,12<em>S</em>*,13<em>R</em>*,14<em>S</em>*,15<em>S</em>*)]-12-[(2,6-Dideoxy-3-<em>O</em>-methyl-α-<span class=\"text-smallcaps\">L</smallcap>-<em>arabino</em>-hexopyranosyl)oxy]-6-hydroxy-5,7,8,11,13,15-hexamethyl-14-[[3,4,6-trideoxy-3-(dimethylamino)-β-<smallcap>D</span>-<em>xylo</em>-hexopyranosyl]oxy]-1,9-dioxaspiro[2.13]hexadecane-4,10-dione;Oleandomycin A;Landomycin;PA 105;Sigmamycine;MeSH ID: D009827",
    "duplicated_cas_no": "7562-59-6;11048-04-7;11048-09-2;784133-63-7;856566-00-2",
    "SMILES": "O=C1[C@]2(CO2)C[C@H](C)[C@H](O[C@H]3[C@H](O)[C@@H](N(C)C)C[C@@H](C)O3)[C@@H](C)[C@H](O[C@H]4C[C@H](OC)[C@@H](O)[C@H](C)O4)[C@@H](C)C(=O)O[C@H](C)[C@H](C)[C@H](O)[C@H]1C",
    "meta_data": {
        "InChI": "InChI=1S/C35H61NO12/c1-16-14-35(15-43-35)32(40)19(4)27(37)18(3)22(7)46-33(41)21(6)31(47-26-13-25(42-11)28(38)23(8)45-26)20(5)30(16)48-34-29(39)24(36(9)10)12-17(2)44-34/h16-31,34,37-39H,12-15H2,1-11H3/t16-,17+,18-,19+,20+,21+,22+,23-,24-,25-,26-,27-,28-,29+,30-,31-,34-,35+/m0/s1",
        "InChIKey": null,
        "Canonical SMILES": "O=C1OC(C)C(C)C(O)C(C(=O)C2(OC2)CC(C)C(OC3OC(C)CC(N(C)C)C3O)C(C)C(OC4OC(C)C(O)C(OC)C4)C1C)C",
        "Molecular Formula": "C<sub>35</sub>H<sub>61</sub>NO<sub>12</sub>",
        "Molecular Mass": "687.86",
        "Melting Point": "110 °C (decomp)"
    }
}