{
    "cas_no": "608-33-3",
    "key_name": "2,6-Dibromophenol",
    "cn_name": "2,6-二溴苯酚;",
    "alternate_name": "Phenol, 2,6-dibromo-;2,6-Dibromophenol;NSC 6214",
    "duplicated_cas_no": "",
    "SMILES": "OC1=C(Br)C=CC=C1Br",
    "meta_data": {
        "InChI": "InChI=1S/C6H4Br2O/c7-4-2-1-3-5(8)6(4)9/h1-3,9H",
        "InChIKey": null,
        "Canonical SMILES": "BrC1=CC=CC(Br)=C1O",
        "Molecular Formula": "C<sub>6</sub>H<sub>4</sub>Br<sub>2</sub>O",
        "Molecular Mass": "251.90",
        "Boiling Point": "255 °C",
        "Melting Point": "56.5 °C"
    }
}