{
    "cas_no": "3877-15-4",
    "key_name": "Methyl propyl sulfide",
    "cn_name": "正辛基丙基硫醚;甲基丙基硫醚;",
    "alternate_name": "Propane, 1-(methylthio)-;Sulfide, methyl propyl;Methyl propyl sulfide;2-Thiapentane;Propyl methyl sulfide;1-(Methylthio)propane;Methyl <em>n</em>-propyl sulfide;1-(Methylsulfanyl)propane;1-Methylsulfanylpropane",
    "duplicated_cas_no": "",
    "SMILES": "C(CC)SC",
    "meta_data": {
        "InChI": "InChI=1S/C4H10S/c1-3-4-5-2/h3-4H2,1-2H3",
        "InChIKey": null,
        "Canonical SMILES": "S(C)CCC",
        "Molecular Formula": "C<sub>4</sub>H<sub>10</sub>S",
        "Molecular Mass": "90.19",
        "Boiling Point": "95.6 °C",
        "Melting Point": "-113 °C",
        "Density": "0.8438 g/cm³ @ Temp: 20 °C"
    }
}