{
    "cas_no": "931-86-2",
    "key_name": "6-Amino-1,3,5-triazin-2(1<em>H</em>)-one",
    "cn_name": "5-氮杂胞嘧啶;4-氨基-1,3,5-三嗪-2-酮;",
    "alternate_name": "1,3,5-Triazin-2(1<em>H</em>)-one, 6-amino-;<em>s</em>-Triazin-2(1<em>H</em>)-one, 4-amino-;1,3,5-Triazin-2(1<em>H</em>)-one, 4-amino-;<em>s</em>-Triazin-2-ol, 4-amino-;6-Amino-1,3,5-triazin-2(1<em>H</em>)-one;5-Azacytosine;2-Hydroxy-4-aminotriazine;4-Amino-2-hydroxy-1,3,5-triazine;NSC 51100;NSC 54006;4-Amino-1,3,5-triazin-2-ol",
    "duplicated_cas_no": "4040-10-2",
    "SMILES": "NC=1NC(=O)N=CN1",
    "meta_data": {
        "InChI": "InChI=1S/C3H4N4O/c4-2-5-1-6-3(8)7-2/h1H,(H3,4,5,6,7,8)",
        "InChIKey": null,
        "Canonical SMILES": "O=C1N=CN=C(N)N1",
        "Molecular Formula": "C<sub>3</sub>H<sub>4</sub>N<sub>4</sub>O",
        "Molecular Mass": "112.09",
        "Melting Point": "175-180 °C"
    }
}