{
    "cas_no": "2693-46-1",
    "key_name": "3-Aminofluoranthene",
    "cn_name": "3-氨基荧蒽;",
    "alternate_name": "3-Fluoranthenamine;3-Aminofluoranthene;4-Aminofluoranthene;4-Fluoranthenamine;NSC 57469",
    "duplicated_cas_no": "",
    "SMILES": "NC1=C2C3=C(C=4C(C3=CC=C2)=CC=CC4)C=C1",
    "meta_data": {
        "InChI": "InChI=1S/C16H11N/c17-15-9-8-13-11-5-2-1-4-10(11)12-6-3-7-14(15)16(12)13/h1-9H,17H2",
        "InChIKey": null,
        "Canonical SMILES": "NC=1C=CC=2C3=CC=CC=C3C4=CC=CC1C42",
        "Molecular Formula": "C<sub>16</sub>H<sub>11</sub>N",
        "Molecular Mass": "217.27",
        "Boiling Point": "280-290 °C @ Press: 10 Torr",
        "Melting Point": "115-117 °C"
    }
}