{
    "cas_no": "67-68-5",
    "key_name": "Dimethyl sulfoxide",
    "cn_name": "二甲基亚砜;",
    "alternate_name": "Methane, 1,1′-sulfinylbis-;Methyl sulfoxide;Methane, sulfinylbis-;1,1′-Sulfinylbis[methane];SQ 9453;DMSO;Dromisol;Dimethyl sulphoxide;Dimexide;Sulfinylbismethane;Dimethyl sulfoxide;Dolicur;DMS 70;DMS 90;Hyadur;Somipront;Infiltrina;Dipirartril-tropico;Demsodrox;Durasorb;Dimexidum;Rimso 50;Syntexan;Gamasol 90;Kemsol;Domoso;Sclerosol;Demavet;Herpid;Demeso;NSC 763;Dimethylsulfoxide;Demasorb;DMSO Evol;Methylsulfinylmethane;MeSH ID: D004121",
    "duplicated_cas_no": "8070-53-9;164071-41-4;705301-21-9;1173018-42-2",
    "SMILES": "S(C)(C)=O",
    "meta_data": {
        "InChI": "InChI=1S/C2H6OS/c1-4(2)3/h1-2H3",
        "InChIKey": null,
        "Canonical SMILES": "O=S(C)C",
        "Molecular Formula": "C<sub>2</sub>H<sub>6</sub>OS",
        "Molecular Mass": "78.13",
        "Boiling Point": "189 °C",
        "Melting Point": "18.5 °C",
        "Density": "1.100 g/cm³ @ Temp: 20 °C"
    }
}