{
    "cas_no": "6290-05-7",
    "key_name": "Diethyl iminodiacetate",
    "cn_name": "亚氨基二乙酸二乙酯;",
    "alternate_name": "Glycine, <em>N</em>-(2-ethoxy-2-oxoethyl)-, ethyl ester;Acetic acid, iminodi-, diethyl ester;Diethyl iminodiacetate;Iminodiacetic acid diethyl ester;<em>N</em>,<em>N</em>-Bis(ethoxycarbonylmethyl)amine;<em>N</em>-(Ethoxycarbonylmethyl)glycine ethyl ester;Diethyl iminobis(acetate);NSC 6950;[[(Ethoxycarbonyl)methyl]amino]acetic acid ethyl ester;66: PN: US20050107325 PAGE: 155 claimed protein;Iminodiethyl diacetate",
    "duplicated_cas_no": "",
    "SMILES": "C(CNCC(OCC)=O)(OCC)=O",
    "meta_data": {
        "InChI": "InChI=1S/C8H15NO4/c1-3-12-7(10)5-9-6-8(11)13-4-2/h9H,3-6H2,1-2H3",
        "InChIKey": null,
        "Canonical SMILES": "O=C(OCC)CNCC(=O)OCC",
        "Molecular Formula": "C<sub>8</sub>H<sub>15</sub>NO<sub>4</sub>",
        "Molecular Mass": "189.21",
        "Boiling Point": "126-127 °C @ Press: 13 Torr",
        "Density": "1.0819 g/cm³ @ Temp: 18.5 °C"
    }
}