{
    "cas_no": "627-41-8",
    "key_name": "Methyl propargyl ether",
    "cn_name": null,
    "alternate_name": "1-Propyne, 3-methoxy-;Ether, methyl 2-propynyl;Methyl propargyl ether;3-Methoxypropyne;3-Methoxy-1-propyne;Propargyl methyl ether;Methyl 2-propynyl ether;Prop-2-yn-1-yl methyl ether;(Methoxymethyl)ethyne;(Methoxymethyl)acetylene;1-Methoxy-2-propyne",
    "duplicated_cas_no": "",
    "SMILES": "C(C#C)OC",
    "meta_data": {
        "InChI": "InChI=1S/C4H6O/c1-3-4-5-2/h1H,4H2,2H3",
        "InChIKey": null,
        "Canonical SMILES": "C#CCOC",
        "Molecular Formula": "C<sub>4</sub>H<sub>6</sub>O",
        "Molecular Mass": "70.09",
        "Boiling Point": "63 °C",
        "Density": "0.879 g/cm³ @ Temp: 15 °C"
    }
}