{
    "cas_no": "358-23-6",
    "key_name": "Trifluoromethanesulfonic anhydride",
    "cn_name": "三氟甲磺酸酐;",
    "alternate_name": "Methanesulfonic acid, 1,1,1-trifluoro-, 1,1′-anhydride;Methanesulfonic acid, trifluoro-, anhydride;Trifluoromethanesulfonic anhydride;Trifluoromethylsulfonic anhydride;Triflate anhydride;Trifluoromethylsulfonic acid anhydride;Trifluoromethanesulfonyl anhydride;Trifluoromethanesulfonic acid anhydride;Triflic anhydride;Perfluoromethanesulfonic anhydride;Triflic acid anhydride;Tirflic anhydride;Trifluoromethanesulfonic anyhydride;Tf<sub>2</sub>O;Trifluoromethanesulfonyl trifluoromethanesulfonate;Trifluoromethylsulfonyl trifluoromethanesulfonate",
    "duplicated_cas_no": "93916-16-6",
    "SMILES": "S(OS(C(F)(F)F)(=O)=O)(C(F)(F)F)(=O)=O",
    "meta_data": {
        "InChI": "InChI=1S/C2F6O5S2/c3-1(4,5)14(9,10)13-15(11,12)2(6,7)8",
        "InChIKey": null,
        "Canonical SMILES": "O=S(=O)(OS(=O)(=O)C(F)(F)F)C(F)(F)F",
        "Molecular Formula": "C<sub>2</sub>F<sub>6</sub>O<sub>5</sub>S<sub>2</sub>",
        "Molecular Mass": "282.14",
        "Boiling Point": "80.5 °C"
    }
}