{
    "cas_no": "13037-86-0",
    "key_name": "4-(Heptyloxy)phenol",
    "cn_name": "4-庚氧基苯酚;对庚氧基苯酚;",
    "alternate_name": "Phenol, 4-(heptyloxy)-;Phenol, <em>p</em>-(heptyloxy)-;4-(Heptyloxy)phenol;<em>p</em>-(Heptyloxy)phenol;<em>p</em>-Heptoxyphenol",
    "duplicated_cas_no": "",
    "SMILES": "O(CCCCCCC)C1=CC=C(O)C=C1",
    "meta_data": {
        "InChI": "InChI=1S/C13H20O2/c1-2-3-4-5-6-11-15-13-9-7-12(14)8-10-13/h7-10,14H,2-6,11H2,1H3",
        "InChIKey": null,
        "Canonical SMILES": "OC1=CC=C(OCCCCCCC)C=C1",
        "Molecular Formula": "C<sub>13</sub>H<sub>20</sub>O<sub>2</sub>",
        "Molecular Mass": "208.30",
        "Melting Point": "60-63 °C"
    }
}