{
    "cas_no": "22252-43-3",
    "key_name": "7-Aminodeacetoxycephalosporanic acid",
    "cn_name": "7-氨基-3-甲基-8-氧代-5-硫杂-1-氮杂双环[4.2.0]辛-2-烯-2-甲酸;",
    "alternate_name": "5-Thia-1-azabicyclo[4.2.0]oct-2-ene-2-carboxylic acid, 7-amino-3-methyl-8-oxo-, (6<em>R</em>,7<em>R</em>)-;5-Thia-1-azabicyclo[4.2.0]oct-2-ene-2-carboxylic acid, 7-amino-3-methyl-8-oxo-;5-Thia-1-azabicyclo[4.2.0]oct-2-ene-2-carboxylic acid, 7-amino-3-methyl-8-oxo-, (6<em>R</em>-<em>trans</em>)-;(6<em>R</em>,7<em>R</em>)-7-Amino-3-methyl-8-oxo-5-thia-1-azabicyclo[4.2.0]oct-2-ene-2-carboxylic acid;7-Amino-3-methyl-3-cephem-4-carboxylic acid;3-Methyl-7-amino-Δ<sup>3</sup>-cephem-4-carboxylic acid;7β-Amino-3-methylceph-3-em-4-carboxylic acid;7-Aminodeacetoxycephalosporanic acid;7-Amino-3-deacetoxycephalosporanic acid;7-Amino-3-methyl-Δ<sup>3</sup>-cephan-4-carboxylic acid;7-Amino-3-methyl-3-cephen-4-carboxylic acid;7-Aminodesacetoxycephalosporanic acid;7-Aminodeacetoxycephalexanic acid;7-β-Amino-3-methyl-3-cephem-4-carboxylic acid;Deacetoxycephalosporanic acid;3-Methyl-7-aminoceph-3-em-4-carboxylic acid;7-Amino-3-desacetoxycephalosporanic acid;7-Amino-3-methyl-Δ<sup>3</sup>-cephem-4-carboxylic acid;7-ADCA;7-Amino-3-methylcephalosporanic acid",
    "duplicated_cas_no": "",
    "SMILES": "C(O)(=O)C=1N2[C@@]([C@H](N)C2=O)(SCC1C)[H]",
    "meta_data": {
        "InChI": "InChI=1S/C8H10N2O3S/c1-3-2-14-7-4(9)6(11)10(7)5(3)8(12)13/h4,7H,2,9H2,1H3,(H,12,13)/t4-,7-/m1/s1",
        "InChIKey": null,
        "Canonical SMILES": "O=C(O)C1=C(C)CSC2N1C(=O)C2N",
        "Molecular Formula": "C<sub>8</sub>H<sub>10</sub>N<sub>2</sub>O<sub>3</sub>S",
        "Molecular Mass": "214.24",
        "Melting Point": "228-231 °C (decomp)"
    }
}