{
    "cas_no": "586-30-1",
    "key_name": "3-Hydroxy-4-methylbenzoic acid",
    "cn_name": "3-羟基-4-甲基苯甲酸;",
    "alternate_name": "Benzoic acid, 3-hydroxy-4-methyl-;3,4-Cresotic acid;3-Hydroxy-4-methylbenzoic acid;3-Hydroxy-<em>p</em>-toluic acid;4-Methyl-3-hydroxybenzoic acid;NSC 67717;NSC 75850",
    "duplicated_cas_no": "",
    "SMILES": "C(O)(=O)C1=CC(O)=C(C)C=C1",
    "meta_data": {
        "InChI": "InChI=1S/C8H8O3/c1-5-2-3-6(8(10)11)4-7(5)9/h2-4,9H,1H3,(H,10,11)",
        "InChIKey": null,
        "Canonical SMILES": "O=C(O)C1=CC=C(C(O)=C1)C",
        "Molecular Formula": "C<sub>8</sub>H<sub>8</sub>O<sub>3</sub>",
        "Molecular Mass": "152.15",
        "Melting Point": "205-207 °C"
    }
}