{
    "cas_no": "90-46-0",
    "key_name": "Xanthydrol",
    "cn_name": "占吨醇;9-羟基占吨;",
    "alternate_name": "9<em>H</em>-Xanthen-9-ol;Xanthen-9-ol;9-Hydroxyxanthene;Xanthydrol;9-Xanthydrol;NSC 4038;Xanthene alcohol",
    "duplicated_cas_no": "",
    "SMILES": "OC1C=2C(OC=3C1=CC=CC3)=CC=CC2",
    "meta_data": {
        "InChI": "InChI=1S/C13H10O2/c14-13-9-5-1-3-7-11(9)15-12-8-4-2-6-10(12)13/h1-8,13-14H",
        "InChIKey": null,
        "Canonical SMILES": "OC1C=2C=CC=CC2OC=3C=CC=CC31",
        "Molecular Formula": "C<sub>13</sub>H<sub>10</sub>O<sub>2</sub>",
        "Molecular Mass": "198.22",
        "Melting Point": "116-120 °C"
    }
}