{
    "cas_no": "79247-78-2",
    "key_name": "2,5-Dibromo-4-methylthiazole",
    "cn_name": null,
    "alternate_name": "Thiazole, 2,5-dibromo-4-methyl-;2,5-Dibromo-4-methylthiazole",
    "duplicated_cas_no": "",
    "SMILES": "CC1=C(Br)SC(Br)=N1",
    "meta_data": {
        "InChI": "InChI=1S/C4H3Br2NS/c1-2-3(5)8-4(6)7-2/h1H3",
        "InChIKey": null,
        "Canonical SMILES": "BrC1=NC(=C(Br)S1)C",
        "Molecular Formula": "C<sub>4</sub>H<sub>3</sub>Br<sub>2</sub>NS",
        "Molecular Mass": "256.95",
        "Melting Point": "22 °C"
    }
}