{
    "cas_no": "123040-16-4",
    "key_name": "Y 25130",
    "cn_name": "盐酸阿扎司琼;N-(1-氮杂双环[2.2.2]辛-8-基)-6-氯-4-甲基-3-氧代-3,4-二氢-2H-1,4-苯并恶嗪-8-甲酰胺盐酸盐;",
    "alternate_name": "2<em>H</em>-1,4-Benzoxazine-8-carboxamide, <em>N</em>-1-azabicyclo[2.2.2]oct-3-yl-6-chloro-3,4-dihydro-4-methyl-3-oxo-, hydrochloride (1:1);2<em>H</em>-1,4-Benzoxazine-8-carboxamide, <em>N</em>-1-azabicyclo[2.2.2]oct-3-yl-6-chloro-3,4-dihydro-4-methyl-3-oxo-, monohydrochloride;Y 25130;Azasetron hydrochloride;Serotone;(±)-6-Chloro-3,4-dihydro-4-methyl-3-oxo-<em>N</em>-(3-quinuclidinyl)-2<em>H</em>-1,4-benzoxazine-8-carboxamide hydrochloride",
    "duplicated_cas_no": "132004-84-3;141922-90-9",
    "SMILES": "C(NC1C2CCN(C1)CC2)(=O)C3=C4C(N(C)C(=O)CO4)=CC(Cl)=C3.Cl",
    "meta_data": {
        "InChI": "InChI=1S/C17H20ClN3O3.ClH/c1-20-14-7-11(18)6-12(16(14)24-9-15(20)22)17(23)19-13-8-21-4-2-10(13)3-5-21;/h6-7,10,13H,2-5,8-9H2,1H3,(H,19,23);1H",
        "InChIKey": null,
        "Canonical SMILES": "Cl.O=C(NC1CN2CCC1CC2)C3=CC(Cl)=CC4=C3OCC(=O)N4C",
        "Molecular Formula": "C<sub>17</sub>H<sub>20</sub>ClN<sub>3</sub>O<sub>3</sub>.ClH",
        "Molecular Mass": "",
        "Melting Point": "281 °C (decomp)"
    }
}