{
    "cas_no": "7524-50-7",
    "key_name": "<span class=\"text-smallcaps\">L</span>-Phenylalanine, methyl ester, hydrochloride",
    "cn_name": null,
    "alternate_name": "<span class=\"text-smallcaps\">L</span>-Phenylalanine, methyl ester, hydrochloride (1:1);Alanine, phenyl-, methyl ester, hydrochloride, <span class=\"text-smallcaps\">L</span>-;<span class=\"text-smallcaps\">L</span>-Phenylalanine, methyl ester, hydrochloride;Methyl <span class=\"text-smallcaps\">L</span>-phenylalaninate hydrochloride;Phenylalanine hydrochloride methyl ester;Phenylalanine methyl ester hydrochloride;(<em>S</em>)-Phenylalanine methyl ester hydrochloride;Methyl (<em>S</em>)-phenylalaninate hydrochloride;Methyl (2<em>S</em>)-2-amino-3-phenylpropanoate hydrochloride;NSC 194642;(<em>S</em>)-2-Amino-3-phenylpropionic acid methyl ester hydrochloride;(2S)-2-Amino-3-phenylpropionic acid methyl ester hydrochloride;Methyl (<em>S</em>)-2-amino-3-phenylpropanoate hydrochloride;<span class=\"text-smallcaps\">L</span>-Phenylanine methyl ester hydrochloride;Glycine, 2-bromo-, methyl ester, hydrochloride (1:1), (2<em>S</em>)-",
    "duplicated_cas_no": "2921990-16-9",
    "SMILES": "C([C@@H](C(OC)=O)N)C1=CC=CC=C1.Cl",
    "meta_data": {
        "InChI": "InChI=1S/C10H13NO2.ClH/c1-13-10(12)9(11)7-8-5-3-2-4-6-8;/h2-6,9H,7,11H2,1H3;1H/t9-;/m0./s1",
        "InChIKey": null,
        "Canonical SMILES": "Cl.O=C(OC)C(N)CC=1C=CC=CC1",
        "Molecular Formula": "C<sub>10</sub>H<sub>13</sub>NO<sub>2</sub>.ClH",
        "Molecular Mass": "",
        "Melting Point": "160 °C"
    }
}