{
    "cas_no": "2458-12-0",
    "key_name": "3-Amino-4-methylbenzoic acid",
    "cn_name": "3-氨基-4-甲基苯甲酸;",
    "alternate_name": "Benzoic acid, 3-amino-4-methyl-;<em>p</em>-Toluic acid, 3-amino-;3-Amino-4-methylbenzoic acid;2-Toluidine-4-carboxylic acid;4-Methyl-3-aminobenzoic acid;NSC 127033;NSC 597",
    "duplicated_cas_no": "",
    "SMILES": "C(O)(=O)C1=CC(N)=C(C)C=C1",
    "meta_data": {
        "InChI": "InChI=1S/C8H9NO2/c1-5-2-3-6(8(10)11)4-7(5)9/h2-4H,9H2,1H3,(H,10,11)",
        "InChIKey": null,
        "Canonical SMILES": "O=C(O)C1=CC=C(C(N)=C1)C",
        "Molecular Formula": "C<sub>8</sub>H<sub>9</sub>NO<sub>2</sub>",
        "Molecular Mass": "151.16",
        "Melting Point": "162 °C"
    }
}