{
    "cas_no": "1013-20-3",
    "key_name": "1-Naphthalenamine, <em>N</em>-hydroxy-<em>N</em>-nitroso-, ammonium salt (1:1)",
    "cn_name": "新铜铁灵;N-亚硝基萘胲铵;",
    "alternate_name": "1-Naphthalenamine, <em>N</em>-hydroxy-<em>N</em>-nitroso-, ammonium salt (1:1);Hydroxylamine, <em>N</em>-1-naphthyl-<em>N</em>-nitroso-, ammonium salt;Neocupferron;1-Naphthalenamine, <em>N</em>-hydroxy-<em>N</em>-nitroso-, ammonium salt;Hydroxylamine, <em>N</em>-1-naphthyl-<em>N</em>-nitroso-, ammonium deriv.;α-Naphthylnitrosohydroxylamine ammonium salt",
    "duplicated_cas_no": "",
    "SMILES": "N(N=O)(O)C=1C2=C(C=CC1)C=CC=C2.N",
    "meta_data": {
        "InChI": "InChI=1S/C10H8N2O2.H3N/c13-11-12(14)10-7-3-5-8-4-1-2-6-9(8)10;/h1-7,14H;1H3",
        "InChIKey": null,
        "Canonical SMILES": "O=NN(O)C1=CC=CC=2C=CC=CC21.N",
        "Molecular Formula": "C<sub>10</sub>H<sub>8</sub>N<sub>2</sub>O<sub>2</sub>.H<sub>3</sub>N",
        "Molecular Mass": "",
        "Melting Point": "125 °C (decomp)"
    }
}