{
    "cas_no": "6306-60-1",
    "key_name": "2,4-Dichlorobenzeneacetonitrile",
    "cn_name": "2,4-二氯氰苄;2,4-二氯苯乙腈;",
    "alternate_name": "Benzeneacetonitrile, 2,4-dichloro-;Acetonitrile, (2,4-dichlorophenyl)-;2,4-Dichlorobenzeneacetonitrile;2-(2,4-Dichlorophenyl)acetonitrile;2,4-Dichlorobenzyl cyanide;2,4-Dichlorophenylacetonitrile;NSC 22988",
    "duplicated_cas_no": "",
    "SMILES": "C(C#N)C1=C(Cl)C=C(Cl)C=C1",
    "meta_data": {
        "InChI": "InChI=1S/C8H5Cl2N/c9-7-2-1-6(3-4-11)8(10)5-7/h1-2,5H,3H2",
        "InChIKey": null,
        "Canonical SMILES": "N#CCC1=CC=C(Cl)C=C1Cl",
        "Molecular Formula": "C<sub>8</sub>H<sub>5</sub>Cl<sub>2</sub>N",
        "Molecular Mass": "186.04",
        "Boiling Point": "170 °C @ Press: 12 Torr",
        "Melting Point": "57-59 °C"
    }
}