{
    "cas_no": "38049-26-2",
    "key_name": "Dihydrocarveol",
    "cn_name": null,
    "alternate_name": "Cyclohexanol, 2-methyl-5-(1-methylethenyl)-, (1<em>R</em>,2<em>R</em>,5<em>R</em>)-<em>rel</em>-;Cyclohexanol, 2-methyl-5-(1-methylethenyl)-, (1α,2β,5α)-;<em>rel</em>-(1<em>R</em>,2<em>R</em>,5<em>R</em>)-2-Methyl-5-(1-methylethenyl)cyclohexanol;<em>p</em>-Menth-8-en-2-ol;Dihydrocarveol;Carveol, dihydro-;Cyclohexanol, 2-methyl-5-(1-methylethenyl)-, (1α,2β,5α)-(±)-;(±)-<em>trans</em>-Dihydrocarveol",
    "duplicated_cas_no": "17699-09-1;73804-29-2",
    "SMILES": "C(C)(=C)[C@H]1C[C@@H](O)[C@H](C)CC1",
    "meta_data": {
        "InChI": "InChI=1/C10H18O/c1-7(2)9-5-4-8(3)10(11)6-9/h8-11H,1,4-6H2,2-3H3/t8-,9-,10-/s2",
        "InChIKey": null,
        "Canonical SMILES": "OC1CC(C(=C)C)CCC1C",
        "Molecular Formula": "C<sub>10</sub>H<sub>18</sub>O",
        "Molecular Mass": "154.25",
        "Boiling Point": "98 °C @ Press: 9 Torr",
        "Density": "0.9210 g/cm³ @ Temp: 20 °C"
    }
}