{
    "cas_no": "22818-40-2",
    "key_name": "<span class=\"text-smallcaps\">D</span>-<em>p</em>-Hydroxyphenylglycine",
    "cn_name": "D(-)-对羟基苯甘氨酸;",
    "alternate_name": "Benzeneacetic acid, α-amino-4-hydroxy-, (α<em>R</em>)-;Glycine, 2-(<em>p</em>-hydroxyphenyl)-, <span class=\"text-smallcaps\">D</span>-;Benzeneacetic acid, α-amino-4-hydroxy-, (<em>R</em>)-;(α<em>R</em>)-α-Amino-4-hydroxybenzeneacetic acid;<span class=\"text-smallcaps\">D</span>-(-)-2-(4-Hydroxyphenyl)glycine;<span class=\"text-smallcaps\">D</span>-<em>p</em>-Hydroxyphenylglycine;<span class=\"text-smallcaps\">D</span>-(-)-2-(<em>p</em>-Hydroxyphenyl)glycine;<span class=\"text-smallcaps\">D</span>-2-(4-Hydroxyphenyl)glycine;<span class=\"text-smallcaps\">D</span>-(-)-Amino(4-hydroxyphenyl)acetic acid;<span class=\"text-smallcaps\">D</span>-α-Amino-<em>p</em>-hydroxyphenylacetic acid;<span class=\"text-smallcaps\">D</span>-2-Amino-2-(<em>p</em>-hydroxyphenyl)acetic acid;<span class=\"text-smallcaps\">D</span>-(-)-<em>p</em>-Hydroxyphenylglycine;<span class=\"text-smallcaps\">D</span>-(-)-α-Amino-<em>p</em>-hydroxyphenylacetic acid;<span class=\"text-smallcaps\">D</span>-(-)-α-Amino-4-hydroxyphenylacetic acid;<span class=\"text-smallcaps\">D</span>-α-Amino-4-hydroxyphenylacetic acid;<span class=\"text-smallcaps\">D</span>-4-Hydroxyphenylglycine;<em>p</em>-Hydroxy-<span class=\"text-smallcaps\">D</span>-phenylglycine;<span class=\"text-smallcaps\">D</span>-(-)-α-(4-Hydroxyphenyl)glycine;<span class=\"text-smallcaps\">D</span>-α-<em>p</em>-Hydroxyphenylglycine;<span class=\"text-smallcaps\">D</span>-(-)-4-Hydroxyphenylglycine;(<em>R</em>)-(4-Hydroxyphenyl)glycine;(<em>R</em>)-2-(4-Hydroxyphenyl)glycine;<em>p</em>-Hydroxy-(<em>R</em>)-phenylglycine;4-Hydroxy-<span class=\"text-smallcaps\">D</span>-phenylglycine;(R)-2-Amino-2-(4-hydroxyphenyl)acetic acid;(2R)-2-Amino-2-(4-hydroxyphenyl)acetic acid;(2R)-2-Azaniumyl-2-(4-hydroxyphenyl)acetate",
    "duplicated_cas_no": "",
    "SMILES": "[C@@H](C(O)=O)(N)C1=CC=C(O)C=C1",
    "meta_data": {
        "InChI": "InChI=1S/C8H9NO3/c9-7(8(11)12)5-1-3-6(10)4-2-5/h1-4,7,10H,9H2,(H,11,12)/t7-/m1/s1",
        "InChIKey": null,
        "Canonical SMILES": "O=C(O)C(N)C1=CC=C(O)C=C1",
        "Molecular Formula": "C<sub>8</sub>H<sub>9</sub>NO<sub>3</sub>",
        "Molecular Mass": "167.16",
        "Melting Point": "223 °C (decomp)"
    }
}