{
    "cas_no": "1824-94-8",
    "key_name": "Methyl β-<span class=\"text-smallcaps\">D</span>-galactopyranoside",
    "cn_name": "甲基-3-谷氨基丙烷;",
    "alternate_name": "β-<span class=\"text-smallcaps\">D</span>-Galactopyranoside, methyl;Galactopyranoside, methyl, β-<span class=\"text-smallcaps\">D</span>-;Methyl β-<span class=\"text-smallcaps\">D</span>-galactopyranoside;Methyl galactoside;Methyl β-galactoside;1-<em>O</em>-Methyl-β-<span class=\"text-smallcaps\">D</span>-galactopyranoside;Methyl β-<span class=\"text-smallcaps\">D</span>-galactoside;NSC 33685;β-Methylgalactose",
    "duplicated_cas_no": "31394-53-3",
    "SMILES": "C(O)[C@H]1O[C@@H](OC)[C@H](O)[C@@H](O)[C@H]1O",
    "meta_data": {
        "InChI": "InChI=1S/C7H14O6/c1-12-7-6(11)5(10)4(9)3(2-8)13-7/h3-11H,2H2,1H3/t3-,4+,5+,6-,7-/m1/s1",
        "InChIKey": null,
        "Canonical SMILES": "OCC1OC(OC)C(O)C(O)C1O",
        "Molecular Formula": "C<sub>7</sub>H<sub>14</sub>O<sub>6</sub>",
        "Molecular Mass": "194.18",
        "Melting Point": "174 °C",
        "Density": "1.485 g/cm³"
    }
}