{
    "cas_no": "14234-82-3",
    "key_name": "Diisobutyl maleate",
    "cn_name": "马来酸二异丁酯;",
    "alternate_name": "2-Butenedioic acid (2<em>Z</em>)-, 1,4-bis(2-methylpropyl) ester;Maleic acid, diisobutyl ester;2-Butenedioic acid (<em>Z</em>)-, bis(2-methylpropyl) ester;2-Butenedioic acid (2<em>Z</em>)-, bis(2-methylpropyl) ester;Diisobutyl maleate",
    "duplicated_cas_no": "45178-60-7",
    "SMILES": "C(/C=C\\C(OCC(C)C)=O)(OCC(C)C)=O",
    "meta_data": {
        "InChI": "InChI=1S/C12H20O4/c1-9(2)7-15-11(13)5-6-12(14)16-8-10(3)4/h5-6,9-10H,7-8H2,1-4H3/b6-5-",
        "InChIKey": null,
        "Canonical SMILES": "O=C(OCC(C)C)C=CC(=O)OCC(C)C",
        "Molecular Formula": "C<sub>12</sub>H<sub>20</sub>O<sub>4</sub>",
        "Molecular Mass": "228.28",
        "Boiling Point": "100 °C @ Press: 0.8 Torr"
    }
}