{
    "cas_no": "505-60-2",
    "key_name": "Sulfur mustard",
    "cn_name": "芥子气;二氯二乙硫醚;二氯乙硫醚;2,2\"-二氯乙硫醚;",
    "alternate_name": "Ethane, 1,1′-thiobis[2-chloro-;Sulfide, bis(2-chloroethyl);1,1′-Thiobis[2-chloroethane];Bis(β-chloroethyl) sulfide;Bis(2-chloroethyl) sulfide;1-Chloro-2-(β-chloroethylthio)ethane;2,2′-Dichlorodiethyl sulfide;Di-2-chloroethyl sulfide;β,β′-Dichloroethyl sulfide;Kampstoff Lost;Mustard gas;Sulfur mustard;Sulfur mustard gas;Yellow cross liquid;Yperite;2,2′-Dichloroethyl sulfide;Senfgas;Iprit;S-Lost;β,β′-Dichlorodiethyl sulfide;S-Yperite;Agent HD;HD (chemical warfare agent);HD;Mustard;β-Chloroethylisobutyl sulfide;THD;Agent THD;THD (chemical warfare agent)",
    "duplicated_cas_no": "39472-40-7;68157-62-0;69020-37-7;172672-70-7",
    "SMILES": "S(CCCl)CCCl",
    "meta_data": {
        "InChI": "InChI=1S/C4H8Cl2S/c5-1-3-7-4-2-6/h1-4H2",
        "InChIKey": null,
        "Canonical SMILES": "ClCCSCCCl",
        "Molecular Formula": "C<sub>4</sub>H<sub>8</sub>Cl<sub>2</sub>S",
        "Molecular Mass": "159.08",
        "Boiling Point": "216 °C",
        "Melting Point": "13-14 °C",
        "Density": "1.27 g/cm³ @ Temp: 15 °C"
    }
}