{
    "cas_no": "628-21-7",
    "key_name": "1,4-Diiodobutane",
    "cn_name": "1,4-二碘丁烷;1,4-二碘代丁烷;",
    "alternate_name": "Butane, 1,4-diiodo-;1,4-Diiodobutane;Tetramethylene diiodide;α,ω-Diiodobutane;1,4-Diodobutane;NSC 31721",
    "duplicated_cas_no": "",
    "SMILES": "C(CCI)CI",
    "meta_data": {
        "InChI": "InChI=1S/C4H8I2/c5-3-1-2-4-6/h1-4H2",
        "InChIKey": null,
        "Canonical SMILES": "ICCCCI",
        "Molecular Formula": "C<sub>4</sub>H<sub>8</sub>I<sub>2</sub>",
        "Molecular Mass": "309.92",
        "Boiling Point": "147-152 °C @ Press: 26 Torr",
        "Melting Point": "5.8 °C",
        "Density": "2.341 g/cm³ @ Temp: 18 °C"
    }
}