{
    "cas_no": "173841-02-6",
    "key_name": "3-Chloro-1-methyl-1<em>H</em>-pyrazole-5-carboxylic acid",
    "cn_name": null,
    "alternate_name": "1<em>H</em>-Pyrazole-5-carboxylic acid, 3-chloro-1-methyl-;3-Chloro-1-methyl-1<em>H</em>-pyrazole-5-carboxylic acid;CMPA",
    "duplicated_cas_no": "",
    "SMILES": "C(O)(=O)C1=CC(Cl)=NN1C",
    "meta_data": {
        "InChI": "InChI=1S/C5H5ClN2O2/c1-8-3(5(9)10)2-4(6)7-8/h2H,1H3,(H,9,10)",
        "InChIKey": null,
        "Canonical SMILES": "O=C(O)C1=CC(Cl)=NN1C",
        "Molecular Formula": "C<sub>5</sub>H<sub>5</sub>ClN<sub>2</sub>O<sub>2</sub>",
        "Molecular Mass": "160.56",
        "Melting Point": "171-174 °C"
    }
}