{
    "cas_no": "4707-71-5",
    "key_name": "9-Phenanthrenecarboxaldehyde",
    "cn_name": null,
    "alternate_name": "9-Phenanthrenecarboxaldehyde;9-Phenanthraldehyde;9-Phenanthrenaldehyde;9-Phenanthrenecarbaldehyde;9-Formylphenanthrene;NSC 1932;9-Phenanthridinecarboxaldehyde;Phenanthrene-9-carboxaldehyde",
    "duplicated_cas_no": "1610857-80-1",
    "SMILES": "C(=O)C1=C2C(=C3C(=C1)C=CC=C3)C=CC=C2",
    "meta_data": {
        "InChI": "InChI=1S/C15H10O/c16-10-12-9-11-5-1-2-6-13(11)15-8-4-3-7-14(12)15/h1-10H",
        "InChIKey": null,
        "Canonical SMILES": "O=CC1=CC=2C=CC=CC2C=3C=CC=CC13",
        "Molecular Formula": "C<sub>15</sub>H<sub>10</sub>O",
        "Molecular Mass": "206.24",
        "Boiling Point": "160-170 °C @ Press: 1 Torr",
        "Melting Point": "101 °C"
    }
}