{
    "cas_no": "1145-73-9",
    "key_name": "4-Dimethylaminostilbene",
    "cn_name": "4-(Dimethylamino)stibene;",
    "alternate_name": "Benzenamine, <em>N</em>,<em>N</em>-dimethyl-4-(2-phenylethenyl)-;4-Stilbenamine, <em>N</em>,<em>N</em>-dimethyl-;<em>N</em>,<em>N</em>-Dimethyl-4-(2-phenylethenyl)benzenamine;4-Dimethylaminostilbene;NSC 30991;4-(<em>N</em>,<em>N</em>-Dimethylamino)stilbene",
    "duplicated_cas_no": "",
    "SMILES": "C(=CC1=CC=CC=C1)C2=CC=C(N(C)C)C=C2",
    "meta_data": {
        "InChI": "InChI=1S/C16H17N/c1-17(2)16-12-10-15(11-13-16)9-8-14-6-4-3-5-7-14/h3-13H,1-2H3",
        "InChIKey": null,
        "Canonical SMILES": "C=1C=CC(=CC1)C=CC2=CC=C(C=C2)N(C)C",
        "Molecular Formula": "C<sub>16</sub>H<sub>17</sub>N",
        "Molecular Mass": "223.31",
        "Melting Point": "150 °C"
    }
}