{
    "cas_no": "87333-22-0",
    "key_name": "<em>N</em>-Acetyl-3-chloroalanine methyl ester",
    "cn_name": "N-乙酰基-3-氯-L-丙氨酸甲酯;",
    "alternate_name": "Alanine, <em>N</em>-acetyl-3-chloro-, methyl ester;<em>N</em>-Acetyl-3-chloroalanine methyl ester;<span class=\"text-smallcaps\">DL</span>-<em>N</em>-Acetyl-β-chloroalanine methyl ester;(±)-Methyl 2-(acetylamino)-3-chloropropionate;NSC 146378;Pentanoic acid, 2-(chloromethyl)-4-oxo-, methyl ester;3-Chloro-2-acetylamino-propionic acid methylester",
    "duplicated_cas_no": "40026-27-5;2170919-19-2",
    "SMILES": "C(C(OC)=O)(NC(C)=O)CCl",
    "meta_data": {
        "InChI": "InChI=1S/C6H10ClNO3/c1-4(9)8-5(3-7)6(10)11-2/h5H,3H2,1-2H3,(H,8,9)",
        "InChIKey": null,
        "Canonical SMILES": "O=C(NC(C(=O)OC)CCl)C",
        "Molecular Formula": "C<sub>6</sub>H<sub>10</sub>ClNO<sub>3</sub>",
        "Molecular Mass": "179.60",
        "Melting Point": "79-80 °C"
    }
}