{
    "cas_no": "492-88-6",
    "key_name": "3-Ethoxysalicylaldehyde",
    "cn_name": "3-乙氧基邻羟基苯醛;",
    "alternate_name": "Benzaldehyde, 3-ethoxy-2-hydroxy-;Salicylaldehyde, 3-ethoxy-;3-Ethoxy-2-hydroxybenzaldehyde;Novovanillin;<em>o</em>-Ethylvanillin;3-Ethoxysalicylaldehyde;2-Hydroxy-3-ethoxybenzaldehyde;2-Ethoxy-6-formylphenol;5-Ethoxy-6-hydroxybenzaldehyde;NSC 133446;6-Formylguethol",
    "duplicated_cas_no": "1186389-30-9",
    "SMILES": "O(CC)C1=C(O)C(C=O)=CC=C1",
    "meta_data": {
        "InChI": "InChI=1S/C9H10O3/c1-2-12-8-5-3-4-7(6-10)9(8)11/h3-6,11H,2H2,1H3",
        "InChIKey": null,
        "Canonical SMILES": "O=CC=1C=CC=C(OCC)C1O",
        "Molecular Formula": "C<sub>9</sub>H<sub>10</sub>O<sub>3</sub>",
        "Molecular Mass": "166.17",
        "Boiling Point": "263-264 °C @ Press: 740 Torr",
        "Melting Point": "64-65 °C"
    }
}