{
    "cas_no": "13748-90-8",
    "key_name": "<span class=\"text-smallcaps\">L</span>-Leucic acid",
    "cn_name": "L-白氨酸;S-2-羟基-4-甲基戊酸;L-alpha-羟基异己酸;",
    "alternate_name": "Pentanoic acid, 2-hydroxy-4-methyl-, (2<em>S</em>)-;Valeric acid, 2-hydroxy-4-methyl-, <span class=\"text-smallcaps\">L</span>-(+)-;Pentanoic acid, 2-hydroxy-4-methyl-, (<em>S</em>)-;(2<em>S</em>)-2-Hydroxy-4-methylpentanoic acid;<span class=\"text-smallcaps\">L</span>-α-Hydroxyisocaproic acid;<span class=\"text-smallcaps\">L</span>-2-Hydroxy-4-methylvaleric acid;<span class=\"text-smallcaps\">L</span>-Leucic acid;<span class=\"text-smallcaps\">L</span>-2-Hydroxyisocaproic acid;(<em>S</em>)-Leucic acid;<em>S</em>-2-Hydroxy-4-methylpentanoic acid;(<em>S</em>)-2-Hydroxyisocaproic acid;(+)-α-Hydroxyisocaproic acid;(+)-2-Hydroxyisocaproic acid;(2S)-Hydroxy-4-methylpentanoic acid;(2S)-2-Hydroxy-4-methylpentanoic acid",
    "duplicated_cas_no": "1670273-87-6",
    "SMILES": "[C@H](CC(C)C)(C(O)=O)O",
    "meta_data": {
        "InChI": "InChI=1S/C6H12O3/c1-4(2)3-5(7)6(8)9/h4-5,7H,3H2,1-2H3,(H,8,9)/t5-/m0/s1",
        "InChIKey": null,
        "Canonical SMILES": "O=C(O)C(O)CC(C)C",
        "Molecular Formula": "C<sub>6</sub>H<sub>12</sub>O<sub>3</sub>",
        "Molecular Mass": "132.16",
        "Melting Point": "75-77 °C"
    }
}