{
    "cas_no": "4200-95-7",
    "key_name": "Heptadecylamine",
    "cn_name": "十七胺;正十七胺;",
    "alternate_name": "1-Heptadecanamine;Heptadecylamine;<em>n</em>-Heptadecylamine;Margarylamine;1-Aminoheptadecane;NSC 91524",
    "duplicated_cas_no": "",
    "SMILES": "C(CCCCCCCCN)CCCCCCCC",
    "meta_data": {
        "InChI": "InChI=1S/C17H37N/c1-2-3-4-5-6-7-8-9-10-11-12-13-14-15-16-17-18/h2-18H2,1H3",
        "InChIKey": null,
        "Canonical SMILES": "NCCCCCCCCCCCCCCCCC",
        "Molecular Formula": "C<sub>17</sub>H<sub>37</sub>N",
        "Molecular Mass": "255.48",
        "Boiling Point": "336 °C",
        "Melting Point": "49 °C"
    }
}