{
    "cas_no": "53755-77-4",
    "key_name": "(3<em>S</em>,4<em>R</em>,4a<em>R</em>,6a<em>S</em>,9a<em>R</em>,11<em>R</em>,13a<em>R</em>,13b<em>S</em>,15a<em>S</em>,15b<em>R</em>)-2,3,4,4a,5,6,6a,7,9,9a,10,11,12,13,13a,13b,14,15,15a,15b-Eicosahydro-3,11-dihydroxy-4,6a,10,10,13a,15b-hexamethyl-1<em>H</em>-cyclohepta[1,2-<em>a</em>:5,4-<em>a</em>′]dinaphthalene-4-carboxylic acid",
    "cn_name": null,
    "alternate_name": "1<em>H</em>-Cyclohepta[1,2-<em>a</em>:5,4-<em>a</em>′]dinaphthalene-4-carboxylic acid, 2,3,4,4a,5,6,6a,7,9,9a,10,11,12,13,13a,13b,14,15,15a,15b-eicosahydro-3,11-dihydroxy-4,6a,10,10,13a,15b-hexamethyl-, (3<em>S</em>,4<em>R</em>,4a<em>R</em>,6a<em>S</em>,9a<em>R</em>,11<em>R</em>,13a<em>R</em>,13b<em>S</em>,15a<em>S</em>,15b<em>R</em>)-;<em>C</em>(<em>14a</em>)-Homo-27-norgammacer-14-en-23-oic acid, 3,21-dihydroxy-, (3β,4β,21β)-;(3<em>S</em>,4<em>R</em>,4a<em>R</em>,6a<em>S</em>,9a<em>R</em>,11<em>R</em>,13a<em>R</em>,13b<em>S</em>,15a<em>S</em>,15b<em>R</em>)-2,3,4,4a,5,6,6a,7,9,9a,10,11,12,13,13a,13b,14,15,15a,15b-Eicosahydro-3,11-dihydroxy-4,6a,10,10,13a,15b-hexamethyl-1<em>H</em>-cyclohepta[1,2-<em>a</em>:5,4-<em>a</em>′]dinaphthalene-4-carboxylic acid;Lycernuic acid A;1<em>H</em>-Cyclohepta[1,2-<em>a</em>:5,4-<em>a</em>′]dinaphthalene-4-carboxylic acid, 2,3,4,4a,5,6,6a,7,9,9a,10,11,12,13,13a,13b,14,15,15a,15b-eicosahydro-3,11-dihydroxy-4,6a,10,10,13a,15b-hexamethyl-, [3<em>S</em>-(3α,4α,4aβ,6aα,9aα,11α,13aβ,13bα,15aβ,15bα)]-;Lycornuic acid A",
    "duplicated_cas_no": "147237-21-6;1651208-38-6",
    "SMILES": "C[C@@]12[C@@]3([C@](C)(CC=4[C@](CC3)([C@]5(C)[C@@](CC4)(C(C)(C)[C@H](O)CC5)[H])[H])CC[C@]1([C@](C(O)=O)(C)[C@@H](O)CC2)[H])[H]",
    "meta_data": {
        "InChI": "InChI=1S/C30H48O4/c1-26(2)20-9-7-18-17-27(3)14-11-22-29(5,16-13-24(32)30(22,6)25(33)34)21(27)10-8-19(18)28(20,4)15-12-23(26)31/h7,19-24,31-32H,8-17H2,1-6H3,(H,33,34)/t19-,20-,21-,22+,23+,24-,27-,28+,29+,30+/m0/s1",
        "InChIKey": null,
        "Canonical SMILES": "O=C(O)C1(C)C(O)CCC2(C)C1CCC3(C)CC4=CCC5C(C)(C)C(O)CCC5(C)C4CCC32",
        "Molecular Formula": "C<sub>30</sub>H<sub>48</sub>O<sub>4</sub>",
        "Molecular Mass": "472.70",
        "Melting Point": "322-324 °C"
    }
}