{
    "cas_no": "53251-94-8",
    "key_name": "Pinaverium bromide",
    "cn_name": "匹维溴胺;4-[(2-溴-4,5-二甲氧基苯基)甲基]-4-[2-[2-(7,7-二甲基-2-双环[3.1.1]庚烷基)乙氧基]乙基]吗啉-4-;",
    "alternate_name": "Morpholinium, 4-[(2-bromo-4,5-dimethoxyphenyl)methyl]-4-[2-[2-(6,6-dimethylbicyclo[3.1.1]hept-2-yl)ethoxy]ethyl]-, bromide (1:1);Morpholinium, 4-[(2-bromo-4,5-dimethoxyphenyl)methyl]-4-[2-[2-(6,6-dimethylbicyclo[3.1.1]hept-2-yl)ethoxy]ethyl]-, bromide;Pinaverium bromide;Dicetel;LAT 1717;<span class=\"text-smallcaps\">L</span>-Pinaverium bromide;Eldicet",
    "duplicated_cas_no": "",
    "SMILES": "C([N+]1(CCOCCC2C3C(C)(C)C(C3)CC2)CCOCC1)C4=CC(OC)=C(OC)C=C4Br.[Br-]",
    "meta_data": {
        "InChI": "InChI=1S/C26H41BrNO4.BrH/c1-26(2)21-6-5-19(22(26)16-21)7-11-31-12-8-28(9-13-32-14-10-28)18-20-15-24(29-3)25(30-4)17-23(20)27;/h15,17,19,21-22H,5-14,16,18H2,1-4H3;1H/q+1;/p-1",
        "InChIKey": null,
        "Canonical SMILES": "[Br-].BrC=1C=C(OC)C(OC)=CC1C[N+]2(CCOCCC3CCC4CC3C4(C)C)CCOCC2",
        "Molecular Formula": "C<sub>26</sub>H<sub>41</sub>BrNO<sub>4</sub>.Br",
        "Molecular Mass": "",
        "Melting Point": "181 °C"
    }
}