{
    "cas_no": "389-40-2",
    "key_name": "Pentafluoroanisole",
    "cn_name": null,
    "alternate_name": "Benzene, 1,2,3,4,5-pentafluoro-6-methoxy-;Anisole, 2,3,4,5,6-pentafluoro-;Benzene, pentafluoromethoxy-;1,2,3,4,5-Pentafluoro-6-methoxybenzene;2,3,4,5,6-Pentafluoroanisole;Pentafluoroanisole;Methyl pentafluorophenyl ether;Pentafluorophenyl methyl ether;Methoxypentafluorobenzene;NSC 21631",
    "duplicated_cas_no": "",
    "SMILES": "O(C)C1=C(F)C(F)=C(F)C(F)=C1F",
    "meta_data": {
        "InChI": "InChI=1S/C7H3F5O/c1-13-7-5(11)3(9)2(8)4(10)6(7)12/h1H3",
        "InChIKey": null,
        "Canonical SMILES": "FC=1C(F)=C(F)C(OC)=C(F)C1F",
        "Molecular Formula": "C<sub>7</sub>H<sub>3</sub>F<sub>5</sub>O",
        "Molecular Mass": "198.09",
        "Boiling Point": "138.5 °C",
        "Melting Point": "-37 °C",
        "Density": "1.4960 g/cm³ @ Temp: 20 °C"
    }
}