{
    "cas_no": "195062-59-0",
    "key_name": "4,4,5,5-Tetramethyl-2-<em>o</em>-tolyl-1,3,2-dioxaborolane",
    "cn_name": null,
    "alternate_name": "1,3,2-Dioxaborolane, 4,4,5,5-tetramethyl-2-(2-methylphenyl)-;4,4,5,5-Tetramethyl-2-(2-methylphenyl)-1,3,2-dioxaborolane;2-(2-Methylphenyl)-4,4,5,5-tetramethyl-1,3,2-dioxaborolane;4,4,5,5-Tetramethyl-2-<em>o</em>-tolyl-1,3,2-dioxaborolane;(<em>o</em>-Methylphenyl)pinacolborane;2-Tolylboronic acid pinacol ester;2-Methylphenylboronic acid pinacol ester;2-(4,4,5,5-Tetramethyl-1,3,2-dioxaborolan-2-yl)toluene",
    "duplicated_cas_no": "",
    "SMILES": "CC1=C(B2OC(C)(C)C(C)(C)O2)C=CC=C1",
    "meta_data": {
        "InChI": "InChI=1S/C13H19BO2/c1-10-8-6-7-9-11(10)14-15-12(2,3)13(4,5)16-14/h6-9H,1-5H3",
        "InChIKey": null,
        "Canonical SMILES": "O1B(OC(C)(C)C1(C)C)C=2C=CC=CC2C",
        "Molecular Formula": "C<sub>13</sub>H<sub>19</sub>BO<sub>2</sub>",
        "Molecular Mass": "218.10",
        "Melting Point": "32-34 °C"
    }
}