{
    "cas_no": "577-38-8",
    "key_name": "Flavanomarein",
    "cn_name": null,
    "alternate_name": "4<em>H</em>-1-Benzopyran-4-one, 2-(3,4-dihydroxyphenyl)-7-(β-<span class=\"text-smallcaps\">D</span>-glucopyranosyloxy)-2,3-dihydro-8-hydroxy-, (2<em>S</em>)-;Flavanone, 3′,4′,7,8-tetrahydroxy-, 7-<span class=\"text-smallcaps\">D</span>-glucopyranoside;4<em>H</em>-1-Benzopyran-4-one, 2-(3,4-dihydroxyphenyl)-7-(β-<span class=\"text-smallcaps\">D</span>-glucopyranosyloxy)-2,3-dihydro-8-hydroxy-, (<em>S</em>)-;(2<em>S</em>)-2-(3,4-Dihydroxyphenyl)-7-(β-<span class=\"text-smallcaps\">D</span>-glucopyranosyloxy)-2,3-dihydro-8-hydroxy-4<em>H</em>-1-benzopyran-4-one;Flavanomarein;Flavonomarein;Flavomarein;Isookanin 7-<em>O</em>-β-<span class=\"text-smallcaps\">D</span>-glucopyranoside",
    "duplicated_cas_no": "77646-74-3",
    "SMILES": "OC1=C2C(C(=O)C[C@H](O2)C3=CC(O)=C(O)C=C3)=CC=C1O[C@@H]4O[C@H](CO)[C@@H](O)[C@H](O)[C@H]4O",
    "meta_data": {
        "InChI": "InChI=1S/C21H22O11/c22-7-15-16(26)18(28)19(29)21(32-15)31-13-4-2-9-11(24)6-14(30-20(9)17(13)27)8-1-3-10(23)12(25)5-8/h1-5,14-16,18-19,21-23,25-29H,6-7H2/t14-,15+,16+,18-,19+,21+/m0/s1",
        "InChIKey": null,
        "Canonical SMILES": "O=C1C2=CC=C(OC3OC(CO)C(O)C(O)C3O)C(O)=C2OC(C4=CC=C(O)C(O)=C4)C1",
        "Molecular Formula": "C<sub>21</sub>H<sub>22</sub>O<sub>11</sub>",
        "Molecular Mass": "450.39",
        "Melting Point": "237-243 °C"
    }
}