{
    "cas_no": "32780-64-6",
    "key_name": "Labetalol hydrochloride",
    "cn_name": "盐酸拉贝洛尔;柳胺苄心定;2-羟基-5-[1-羟基-2-[(1-甲基-3-苯基丙基)氨基]乙基]苯甲酰胺盐酸盐;",
    "alternate_name": "Benzamide, 2-hydroxy-5-[1-hydroxy-2-[(1-methyl-3-phenylpropyl)amino]ethyl]-, hydrochloride (1:1);Benzamide, 2-hydroxy-5-[1-hydroxy-2-[(1-methyl-3-phenylpropyl)amino]ethyl]-, monohydrochloride;Salicylamide, 5-[1-hydroxy-2-[(1-methyl-3-phenylpropyl)amino]ethyl]-, monohydrochloride;AH 5158A;AH 5158 hydrochloride;Labetalol hydrochloride;Trandate;Normodyne;Presdate;Labelol;Labracol;Pressalolo;Ipolab;Vescal;Amipress;Sch 15719W;NSC 290312",
    "duplicated_cas_no": "",
    "SMILES": "C(CNC(CCC1=CC=CC=C1)C)(O)C2=CC(C(N)=O)=C(O)C=C2.Cl",
    "meta_data": {
        "InChI": "InChI=1S/C19H24N2O3.ClH/c1-13(7-8-14-5-3-2-4-6-14)21-12-18(23)15-9-10-17(22)16(11-15)19(20)24;/h2-6,9-11,13,18,21-23H,7-8,12H2,1H3,(H2,20,24);1H",
        "InChIKey": null,
        "Canonical SMILES": "Cl.O=C(N)C1=CC(=CC=C1O)C(O)CNC(C)CCC=2C=CC=CC2",
        "Molecular Formula": "C<sub>19</sub>H<sub>24</sub>N<sub>2</sub>O<sub>3</sub>.ClH",
        "Molecular Mass": "",
        "Melting Point": "187-189 °C"
    }
}