{
    "cas_no": "16331-45-6",
    "key_name": "4-Ethylbenzoyl chloride",
    "cn_name": "对乙基苯甲酰氯;4-乙基苯甲酰氯;",
    "alternate_name": "Benzoyl chloride, 4-ethyl-;Benzoyl chloride, <em>p</em>-ethyl-;4-Ethylbenzoyl chloride;<em>p</em>-Ethylbenzoyl chloride",
    "duplicated_cas_no": "",
    "SMILES": "C(Cl)(=O)C1=CC=C(CC)C=C1",
    "meta_data": {
        "InChI": "InChI=1S/C9H9ClO/c1-2-7-3-5-8(6-4-7)9(10)11/h3-6H,2H2,1H3",
        "InChIKey": null,
        "Canonical SMILES": "O=C(Cl)C1=CC=C(C=C1)CC",
        "Molecular Formula": "C<sub>9</sub>H<sub>9</sub>ClO",
        "Molecular Mass": "168.62",
        "Boiling Point": "118-119 °C @ Press: 13 Torr"
    }
}