{
    "cas_no": "7252-53-1",
    "key_name": "Cyclopropanemethanamine, hydrochloride (1:1)",
    "cn_name": "环丙甲胺盐酸盐;",
    "alternate_name": "Cyclopropanemethanamine, hydrochloride (1:1);Cyclopropanemethanamine, hydrochloride;Cyclopropanemethylamine, hydrochloride;Cyclopropylmethylamine hydrochloride;(Aminomethyl)cyclopropane hydrochloride;Cyclopropylmethanamine hydrochloride;1-Cyclopropylmethanamine hydrochloride",
    "duplicated_cas_no": "",
    "SMILES": "C(N)C1CC1.Cl",
    "meta_data": {
        "InChI": "InChI=1S/C4H9N.ClH/c5-3-4-1-2-4;/h4H,1-3,5H2;1H",
        "InChIKey": null,
        "Canonical SMILES": "Cl.NCC1CC1",
        "Molecular Formula": "C<sub>4</sub>H<sub>9</sub>N.ClH",
        "Molecular Mass": "",
        "Melting Point": "206-207.5 °C"
    }
}