{
    "cas_no": "539-17-3",
    "key_name": "4-[2-(4-Aminophenyl)diazenyl]-<em>N</em>,<em>N</em>-dimethylbenzenamine",
    "cn_name": "4-氨基-4-二甲基氨基偶氮苯;",
    "alternate_name": "Benzenamine, 4-[2-(4-aminophenyl)diazenyl]-<em>N</em>,<em>N</em>-dimethyl-;C.I. Disperse Black 3;Benzenamine, 4-[(4-aminophenyl)azo]-<em>N</em>,<em>N</em>-dimethyl-;Aniline, <em>N</em>,<em>N</em>-dimethyl-4,4′-azodi-;4-[2-(4-Aminophenyl)diazenyl]-<em>N</em>,<em>N</em>-dimethylbenzenamine;C.I. 11025;Acetile Diazo Black N;Acetile Diazo Black R;<em>p</em>-Aminobenzeneazodimethylaniline;Diazo Nero Microsetile G;Interchem Acetate Developed Black;Meisei Acemyl Diazo Black B;Meisei Teryl Diazo Black CR;Microsetile Diazo Black G;Supracet Diazo Black A;4-Amino-4′-(dimethylamino)azobenzene;ADAB;4′-Amino-<em>N</em>,<em>N</em>-dimethyl-4-aminoazobenzene;4-(Dimethylamino)-4′-aminoazobenzene;<em>p</em>′-Amino-<em>p</em>-(dimethylamino)azobenzene;4′-Amino-4-(dimethylamino)azobenzene;Disperse Black 3",
    "duplicated_cas_no": "1422360-84-6;2948352-64-3",
    "SMILES": "N(=NC1=CC=C(N)C=C1)C2=CC=C(N(C)C)C=C2",
    "meta_data": {
        "InChI": "InChI=1S/C14H16N4/c1-18(2)14-9-7-13(8-10-14)17-16-12-5-3-11(15)4-6-12/h3-10H,15H2,1-2H3",
        "InChIKey": null,
        "Canonical SMILES": "N(=NC1=CC=C(C=C1)N(C)C)C2=CC=C(N)C=C2",
        "Molecular Formula": "C<sub>14</sub>H<sub>16</sub>N<sub>4</sub>",
        "Molecular Mass": "240.30",
        "Melting Point": "190 °C (decomp)"
    }
}