{
    "cas_no": "1949-78-6",
    "key_name": "<span class=\"text-smallcaps\">L</span>-Lyxose",
    "cn_name": "L-来苏糖;L-谷胺酸酯;來蘇糖;",
    "alternate_name": "<span class=\"text-smallcaps\">L</span>-Lyxose;Lyxose, <span class=\"text-smallcaps\">L</span>-",
    "duplicated_cas_no": "",
    "SMILES": "[C@@H]([C@H](CO)O)([C@H](C=O)O)O",
    "meta_data": {
        "InChI": "InChI=1S/C5H10O5/c6-1-3(8)5(10)4(9)2-7/h1,3-5,7-10H,2H2/t3-,4-,5-/m0/s1",
        "InChIKey": null,
        "Canonical SMILES": "O=CC(O)C(O)C(O)CO",
        "Molecular Formula": "C<sub>5</sub>H<sub>10</sub>O<sub>5</sub>",
        "Molecular Mass": "150.13",
        "Melting Point": "102-104 °C"
    }
}