{
    "cas_no": "134-09-8",
    "key_name": "Menthyl anthranilate",
    "cn_name": "5-甲基-2-(1-甲基乙基)环己醇2-氨基苯甲酸酯;",
    "alternate_name": "Cyclohexanol, 5-methyl-2-(1-methylethyl)-, 1-(2-aminobenzoate);Anthranilic acid, <em>p</em>-menth-3-yl ester;Cyclohexanol, 5-methyl-2-(1-methylethyl)-, 2-aminobenzoate;Menthol, anthranilate;Antisolaire;Menthyl anthranilate;Sunburn preventive No. 2;Menthyl <em>o</em>-aminobenzoate;Meradimate;Neo Heliopan MA;(5-Methyl-2-propan-2-ylcyclohexyl) 2-aminobenzoate;2-Amino-benzoic acid 2-isopropyl-5-methyl-cyclohexyl ester",
    "duplicated_cas_no": "1404094-59-2",
    "SMILES": "C(C)(C)C1C(OC(=O)C2=C(N)C=CC=C2)CC(C)CC1",
    "meta_data": {
        "InChI": "InChI=1S/C17H25NO2/c1-11(2)13-9-8-12(3)10-16(13)20-17(19)14-6-4-5-7-15(14)18/h4-7,11-13,16H,8-10,18H2,1-3H3",
        "InChIKey": null,
        "Canonical SMILES": "O=C(OC1CC(C)CCC1C(C)C)C=2C=CC=CC2N",
        "Molecular Formula": "C<sub>17</sub>H<sub>25</sub>NO<sub>2</sub>",
        "Molecular Mass": "275.39",
        "Boiling Point": "177-179 °C"
    }
}