{
    "cas_no": "121-05-1",
    "key_name": "<em>N</em>,<em>N</em>-Diisopropylethylenediamine",
    "cn_name": "N,N-二异丙基乙二胺;",
    "alternate_name": "1,2-Ethanediamine, <em>N</em><sup>1</sup>,<em>N</em><sup>1</sup>-bis(1-methylethyl)-;Ethylenediamine, <em>N</em>,<em>N</em>-diisopropyl-;1,2-Ethanediamine, <em>N</em>,<em>N</em>-bis(1-methylethyl)-;<em>N</em><sup>1</sup>,<em>N</em><sup>1</sup>-Bis(1-methylethyl)-1,2-ethanediamine;<em>N</em>,<em>N</em>-Diisopropylethylenediamine;2-(Diisopropylamino)ethylamine;<em>N</em>,<em>N</em>-Diisopropyl-1,2-ethanediamine;2-(Diisopropylamino)ethanamine;<em>N</em>-(<em>N</em>,<em>N</em>-Diisopropylamino)ethylamine;<em>N</em>,<em>N</em>-Bis(1-methylethyl)-1,2-ethanediamine;NSC 166335;[2-(Diisopropylamino)ethan-1-yl]amine;(2-Aminoethyl)bis(propan-2-yl)amine;2-Aminoethyldiisopropylamine",
    "duplicated_cas_no": "",
    "SMILES": "N(CCN)(C(C)C)C(C)C",
    "meta_data": {
        "InChI": "InChI=1S/C8H20N2/c1-7(2)10(6-5-9)8(3)4/h7-8H,5-6,9H2,1-4H3",
        "InChIKey": null,
        "Canonical SMILES": "NCCN(C(C)C)C(C)C",
        "Molecular Formula": "C<sub>8</sub>H<sub>20</sub>N<sub>2</sub>",
        "Molecular Mass": "144.26",
        "Boiling Point": "38 °C @ Press: 3-4 Torr",
        "Melting Point": "109-111.5 °C"
    }
}