{
    "cas_no": "41306-45-0",
    "key_name": "Carbamimidothioic acid, <em>N</em>-methyl-, methyl ester, hydriodide (1:1)",
    "cn_name": "1,2-二甲基-2-异硫脲氢碘酸盐;",
    "alternate_name": "Carbamimidothioic acid, <em>N</em>-methyl-, methyl ester, hydriodide (1:1);Carbamimidothioic acid, methyl-, methyl ester, monohydriodide;Pseudourea, 1,2-dimethyl-2-thio-, hydriodide;Pseudourea, 2,3-dimethyl-2-thio-, hydriodide;<em>N</em>,<em>S</em>-Dimethylthiopseudourea hydriodide;<em>N</em>,<em>S</em>-Dimethylthiopseudourea hydrogen iodide;<em>N</em>,<em>S</em>-Dimethylisothiourea hydroiodide;<em>N</em>,<em>S</em>-Dimethylisothiourea hydriodide;<em>S</em>,<em>N</em>-Dimethylisothiourea hydriodide;<em>N</em>,<em>S</em>-Dimethylthiouronium iodide;1,2-Dimethylisothiourea hydroiodide;Methyl methylcarbamimidothioate hydroiodide",
    "duplicated_cas_no": "39536-29-3",
    "SMILES": "C(NC)(SC)=N.I",
    "meta_data": {
        "InChI": "InChI=1S/C3H8N2S.HI/c1-5-3(4)6-2;/h1-2H3,(H2,4,5);1H",
        "InChIKey": null,
        "Canonical SMILES": "I.N=C(SC)NC",
        "Molecular Formula": "C<sub>3</sub>H<sub>8</sub>N<sub>2</sub>S.HI",
        "Molecular Mass": "",
        "Melting Point": "135 °C"
    }
}