{
    "cas_no": "24691-76-7",
    "key_name": "Pyracarbolid",
    "cn_name": "吡喃灵;2-甲基-5，6-二氢吡喃-3-甲酰替苯胺;",
    "alternate_name": "2<em>H</em>-Pyran-5-carboxamide, 3,4-dihydro-6-methyl-<em>N</em>-phenyl-;2<em>H</em>-Pyran-5-carboxanilide, 3,4-dihydro-6-methyl-;3,4-Dihydro-6-methyl-<em>N</em>-phenyl-2<em>H</em>-pyran-5-carboxamide;2-Methyl-5,6-dihydro-4<em>H</em>-pyran-3-carboxylic acid anilide;2-Methyl-[5,6-dihydro-4<em>H</em>-pyran]-3-carboxanilide;Pyracarbolid;HOE 6053;HOE 6052;Sicarol;HOE 2989;Pirocarbolid;Sicarol 50PM",
    "duplicated_cas_no": "",
    "SMILES": "C(NC1=CC=CC=C1)(=O)C2=C(C)OCCC2",
    "meta_data": {
        "InChI": "InChI=1S/C13H15NO2/c1-10-12(8-5-9-16-10)13(15)14-11-6-3-2-4-7-11/h2-4,6-7H,5,8-9H2,1H3,(H,14,15)",
        "InChIKey": null,
        "Canonical SMILES": "O=C(NC=1C=CC=CC1)C2=C(OCCC2)C",
        "Molecular Formula": "C<sub>13</sub>H<sub>15</sub>NO<sub>2</sub>",
        "Molecular Mass": "217.26",
        "Melting Point": "110.5 °C"
    }
}