{
    "cas_no": "6281-23-8",
    "key_name": "3-(5-Nitro-2-furyl)acrylic acid",
    "cn_name": "5-硝基呋喃-2-丙烯酸;3-(5-硝基-2-呋喃基)-2-丙烯酸;",
    "alternate_name": "2-Propenoic acid, 3-(5-nitro-2-furanyl)-;2-Furanacrylic acid, 5-nitro-;3-(5-Nitro-2-furanyl)-2-propenoic acid;5-Nitro-2-furanacrylic acid;5-Nitrofurylacrylic acid;5-Nitro-2-furylacrylic acid;3-(5-Nitro-2-furyl)acrylic acid;3-(5-Nitro-2-furanyl)acrylic acid;β-(5-Nitro-2-furyl)acrylic acid;NSC 6460;3-(5-Nitrofuran-2-yl)-2-propenoic acid",
    "duplicated_cas_no": "",
    "SMILES": "C(=CC(O)=O)C=1OC(N(=O)=O)=CC1",
    "meta_data": {
        "InChI": "InChI=1S/C7H5NO5/c9-7(10)4-2-5-1-3-6(13-5)8(11)12/h1-4H,(H,9,10)",
        "InChIKey": null,
        "Canonical SMILES": "O=C(O)C=CC=1OC(=CC1)N(=O)=O",
        "Molecular Formula": "C<sub>7</sub>H<sub>5</sub>NO<sub>5</sub>",
        "Molecular Mass": "183.12",
        "Melting Point": "235-236 °C"
    }
}