{
    "cas_no": "1438-16-0",
    "key_name": "3-Aminorhodanine",
    "cn_name": "N-氨基绕丹宁;3-氨基硫氧噻唑烷;",
    "alternate_name": "4-Thiazolidinone, 3-amino-2-thioxo-;Rhodanine, 3-amino-;3-Amino-2-thioxo-4-thiazolidinone;3-Aminorhodanine;<em>N</em>-Aminorhodanine;3-Amino-2-thioxo-1,3-thiazolidin-4-one;NSC 23272;3-Amino-2-sulfanylidene-1,3-thiazolidin-4-one",
    "duplicated_cas_no": "",
    "SMILES": "NN1C(=O)CSC1=S",
    "meta_data": {
        "InChI": "InChI=1S/C3H4N2OS2/c4-5-2(6)1-8-3(5)7/h1,4H2",
        "InChIKey": null,
        "Canonical SMILES": "O=C1N(N)C(=S)SC1",
        "Molecular Formula": "C<sub>3</sub>H<sub>4</sub>N<sub>2</sub>OS<sub>2</sub>",
        "Molecular Mass": "148.21",
        "Melting Point": "92 °C"
    }
}