{
    "cas_no": "4363-95-5",
    "key_name": "4-Quinolinecarboxamide",
    "cn_name": null,
    "alternate_name": "4-Quinolinecarboxamide;Cinchoninamide",
    "duplicated_cas_no": "",
    "SMILES": "C(N)(=O)C=1C2=C(N=CC1)C=CC=C2",
    "meta_data": {
        "InChI": "InChI=1S/C10H8N2O/c11-10(13)8-5-6-12-9-4-2-1-3-7(8)9/h1-6H,(H2,11,13)",
        "InChIKey": null,
        "Canonical SMILES": "O=C(N)C=1C=CN=C2C=CC=CC21",
        "Molecular Formula": "C<sub>10</sub>H<sub>8</sub>N<sub>2</sub>O",
        "Molecular Mass": "172.18",
        "Melting Point": "181 °C"
    }
}