{
    "cas_no": "35082-49-6",
    "key_name": "Cercosporin",
    "cn_name": null,
    "alternate_name": "Perylo[1,12-<em>def</em>]-1,3-dioxepin-5,11-dione, 6,12-dihydroxy-8,9-bis[(2<em>R</em>)-2-hydroxypropyl]-7,10-dimethoxy-, (13b<em>R</em>)-;Cercosporin;Perylo[1,12-<em>def</em>]-1,3-dioxepin-5,11-dione, 6,12-dihydroxy-8,9-bis(2-hydroxypropyl)-7,10-dimethoxy-, stereoisomer;(13b<em>R</em>)-6,12-Dihydroxy-8,9-bis[(2<em>R</em>)-2-hydroxypropyl]-7,10-dimethoxyperylo[1,12-<em>def</em>]-1,3-dioxepin-5,11-dione;(+)-Cercosporin;NSC 153111",
    "duplicated_cas_no": "",
    "SMILES": "C(C(C)O)C=1C=2C=3C=4C5=C6C2C(CC(C)O)=C(OC)C(O)=C6C(=O)C=C5OCOC4C=C(O)C3C(=O)C1OC",
    "meta_data": {
        "InChI": "InChI=1S/C29H26O10/c1-10(30)5-12-18-19-13(6-11(2)31)29(37-4)27(35)21-15(33)8-17-23(25(19)21)22-16(38-9-39-17)7-14(32)20(24(18)22)26(34)28(12)36-3/h7-8,10-11,30-32,35H,5-6,9H2,1-4H3",
        "InChIKey": null,
        "Canonical SMILES": "O=C1C=C2OCOC3=CC(O)=C4C(=O)C(OC)=C(C5=C4C3=C2C6=C1C(O)=C(OC)C(=C65)CC(O)C)CC(O)C",
        "Molecular Formula": "C<sub>29</sub>H<sub>26</sub>O<sub>10</sub>",
        "Molecular Mass": "534.51",
        "Melting Point": "241 °C"
    }
}