{
    "cas_no": "4865-84-3",
    "key_name": "1,2-Benzisoxazole-3-acetic acid",
    "cn_name": "1,2-苯并异噁唑-3-乙酸;",
    "alternate_name": "1,2-Benzisoxazole-3-acetic acid;1,2-Benzisoxazol-3-ylacetic acid;NSC 179803;(Benzo[<em>d</em>]isoxazol-3-yl)acetic acid;2-(Benzisoxazol-3-yl)acetic acid;Benzisoxazol-3-ylacetic acid;2-(Benzo[<em>d</em>]isoxazol-3-yl)acetic acid;(1,2-Benzoxazol-3-yl)acetic acid;2-(1,2-Benzoxazol-3-yl)acetic acid;2-(1,2-Benzisoxazol-3-yl)acetic acid",
    "duplicated_cas_no": "",
    "SMILES": "C(C(O)=O)C=1C=2C(ON1)=CC=CC2",
    "meta_data": {
        "InChI": "InChI=1S/C9H7NO3/c11-9(12)5-7-6-3-1-2-4-8(6)13-10-7/h1-4H,5H2,(H,11,12)",
        "InChIKey": null,
        "Canonical SMILES": "O=C(O)CC1=NOC=2C=CC=CC21",
        "Molecular Formula": "C<sub>9</sub>H<sub>7</sub>NO<sub>3</sub>",
        "Molecular Mass": "177.16",
        "Melting Point": "120-125 °C"
    }
}