{
    "cas_no": "582-52-5",
    "key_name": "Diacetone-<span class=\"text-smallcaps\">D</span>-glucose",
    "cn_name": "双丙酮葡萄糖;双丙酮-D-葡萄糖;",
    "alternate_name": "α-<span class=\"text-smallcaps\">D</span>-Glucofuranose, 1,2:5,6-bis-<em>O</em>-(1-methylethylidene)-;Glucofuranose, 1,2:5,6-di-<em>O</em>-isopropylidene-, α-<span class=\"text-smallcaps\">D</span>-;Furo[2,3-<em>d</em>]-1,3-dioxole, α-<span class=\"text-smallcaps\">D</span>-glucofuranose deriv.;1,2:5,6-Bis-<em>O</em>-(1-methylethylidene)-α-<span class=\"text-smallcaps\">D</span>-glucofuranose;1,2:5,6-Di-<em>O</em>-isopropylidene-α-<span class=\"text-smallcaps\">D</span>-glucose;1,2:5,6-Di-<em>O</em>-isopropylidene-α-<span class=\"text-smallcaps\">D</span>-glucofuranose;1,2:5,6-Diisopropylidene-α-<span class=\"text-smallcaps\">D</span>-glucofuranose;Diacetone glucose;Diacetone-<span class=\"text-smallcaps\">D</span>-glucose;1,2:5,6-Di-<em>O</em>-isopropylidene-<span class=\"text-smallcaps\">D</span>-glucose;(-)-1,2:5,6-Di-<em>O</em>-isopropylidene-α-<span class=\"text-smallcaps\">D</span>-glucofuranose;Glucose bisacetonide;NSC 1223;Glucose diacetonide;<span class=\"text-smallcaps\">D</span>-Glucose diacetonide;1,2:5,6-Di-<em>O</em>-isopropylidene-<span class=\"text-smallcaps\">D</span>-glucofuranose",
    "duplicated_cas_no": "6078-38-2;12587-95-0;65561-77-5;131334-70-8;211254-42-1;311342-06-0;620630-82-2;886202-52-4;1821051-23-3;2490556-89-1",
    "SMILES": "O[C@@H]1[C@@]2([C@](O[C@@]1([C@]3(COC(C)(C)O3)[H])[H])(OC(C)(C)O2)[H])[H]",
    "meta_data": {
        "InChI": "InChI=1S/C12H20O6/c1-11(2)14-5-6(16-11)8-7(13)9-10(15-8)18-12(3,4)17-9/h6-10,13H,5H2,1-4H3/t6-,7+,8-,9-,10-/m1/s1",
        "InChIKey": null,
        "Canonical SMILES": "OC1C(OC2OC(OC21)(C)C)C3OC(OC3)(C)C",
        "Molecular Formula": "C<sub>12</sub>H<sub>20</sub>O<sub>6</sub>",
        "Molecular Mass": "260.28",
        "Boiling Point": "156-160 °C @ Press: 0.05 Torr",
        "Melting Point": "110-111 °C"
    }
}