{
    "cas_no": "19075-59-3",
    "key_name": "7-Bromobenzo[<em>b</em>]thiophene-2-carboxylic acid",
    "cn_name": null,
    "alternate_name": "Benzo[<em>b</em>]thiophene-2-carboxylic acid, 7-bromo-;7-Bromobenzo[<em>b</em>]thiophene-2-carboxylic acid;7-Bromobenzothiophene-2-carboxylic acid",
    "duplicated_cas_no": "",
    "SMILES": "BrC1=C2C(C=C(C(O)=O)S2)=CC=C1",
    "meta_data": {
        "InChI": "InChI=1S/C9H5BrO2S/c10-6-3-1-2-5-4-7(9(11)12)13-8(5)6/h1-4H,(H,11,12)",
        "InChIKey": null,
        "Canonical SMILES": "O=C(O)C=1SC=2C(Br)=CC=CC2C1",
        "Molecular Formula": "C<sub>9</sub>H<sub>5</sub>BrO<sub>2</sub>S",
        "Molecular Mass": "257.10",
        "Melting Point": "288 °C"
    }
}