{
    "cas_no": "871126-15-7",
    "key_name": "<em>B</em>-(3-Fluoro-2-formylphenyl)boronic acid",
    "cn_name": null,
    "alternate_name": "Boronic acid, <em>B</em>-(3-fluoro-2-formylphenyl)-;Boronic acid, (3-fluoro-2-formylphenyl)-;<em>B</em>-(3-Fluoro-2-formylphenyl)boronic acid;(3-Fluoro-2-formylphenyl)boronic acid",
    "duplicated_cas_no": "",
    "SMILES": "C(=O)C1=C(B(O)O)C=CC=C1F",
    "meta_data": {
        "InChI": "InChI=1S/C7H6BFO3/c9-7-3-1-2-6(8(11)12)5(7)4-10/h1-4,11-12H",
        "InChIKey": null,
        "Canonical SMILES": "O=CC=1C(F)=CC=CC1B(O)O",
        "Molecular Formula": "C<sub>7</sub>H<sub>6</sub>BFO<sub>3</sub>",
        "Molecular Mass": "167.93",
        "Melting Point": "129.5 °C"
    }
}