{
    "cas_no": "119446-68-3",
    "key_name": "Difenoconazole",
    "cn_name": "恶醚唑;苯醚甲环唑;顺,反-3-氯-4-[4-甲基-2-(1H-1,2,4-三唑-1-基甲基)-1,3-二噁戊烷-2-基]苯基4-氯苯基醚;",
    "alternate_name": "1<em>H</em>-1,2,4-Triazole, 1-[[2-[2-chloro-4-(4-chlorophenoxy)phenyl]-4-methyl-1,3-dioxolan-2-yl]methyl]-;1-[[2-[2-Chloro-4-(4-chlorophenoxy)phenyl]-4-methyl-1,3-dioxolan-2-yl]methyl]-1<em>H</em>-1,2,4-triazole;CGA 169374;Difenoconazole;Dragon;Score;Dividend;Dividend (fungicide);Score EC 250;Plover;Difenconazole;Score 10WG;Bardos Neu;Sico;BaiJunTong",
    "duplicated_cas_no": "1135441-03-0",
    "SMILES": "C(C1(OC(C)CO1)C2=C(Cl)C=C(OC3=CC=C(Cl)C=C3)C=C2)N4C=NC=N4",
    "meta_data": {
        "InChI": "InChI=1S/C19H17Cl2N3O3/c1-13-9-25-19(27-13,10-24-12-22-11-23-24)17-7-6-16(8-18(17)21)26-15-4-2-14(20)3-5-15/h2-8,11-13H,9-10H2,1H3",
        "InChIKey": null,
        "Canonical SMILES": "ClC1=CC=C(OC2=CC=C(C(Cl)=C2)C3(OCC(O3)C)CN4N=CN=C4)C=C1",
        "Molecular Formula": "C<sub>19</sub>H<sub>17</sub>Cl<sub>2</sub>N<sub>3</sub>O<sub>3</sub>",
        "Molecular Mass": "406.26",
        "Melting Point": "76 °C"
    }
}