{
    "cas_no": "511-96-6",
    "key_name": "Gitogenin",
    "cn_name": null,
    "alternate_name": "Spirostan-2,3-diol, (2α,3β,5α,25<em>R</em>)-;Gitogenin;5α-Spirostan-2α,3β-diol, (25<em>R</em>)-;(2α,3β,5α,25<em>R</em>)-Spirostan-2,3-diol;(25<em>R</em>)-5α-Spirostan-2α,3β-diol;Digin;5α,25<span class=\"text-smallcaps\">D</span>-Spirostan-2α,3β-diol;2α-Hydroxytigogenin;NSC 147752;(2a,3b,5a,25R)-Spirostan-2,3-diol",
    "duplicated_cas_no": "1391-33-9;1667763-72-5",
    "SMILES": "C[C@@H]1[C@]2(O[C@@]3([C@]1([C@]4(C)[C@@](C3)([C@]5([C@](CC4)([C@]6(C)[C@@](CC5)(C[C@@H](O)[C@H](O)C6)[H])[H])[H])[H])[H])[H])CC[C@@H](C)CO2",
    "meta_data": {
        "InChI": "InChI=1S/C27H44O4/c1-15-7-10-27(30-14-15)16(2)24-23(31-27)12-20-18-6-5-17-11-21(28)22(29)13-26(17,4)19(18)8-9-25(20,24)3/h15-24,28-29H,5-14H2,1-4H3/t15-,16+,17+,18-,19+,20+,21-,22-,23+,24+,25+,26+,27-/m1/s1",
        "InChIKey": null,
        "Canonical SMILES": "OC1CC2CCC3C(CCC4(C)C3CC5OC6(OCC(C)CC6)C(C)C54)C2(C)CC1O",
        "Molecular Formula": "C<sub>27</sub>H<sub>44</sub>O<sub>4</sub>",
        "Molecular Mass": "432.64",
        "Melting Point": "266-268 °C"
    }
}