{
    "cas_no": "17747-43-2",
    "key_name": "3-Acetoxypyridine",
    "cn_name": null,
    "alternate_name": "3-Pyridinol, 3-acetate;3-Pyridinol, acetate (ester);3-Pyridinol, acetate;3-Acetoxypyridine;NSC 273047;3-Pyridyl acetate",
    "duplicated_cas_no": "",
    "SMILES": "O(C(C)=O)C=1C=CC=NC1",
    "meta_data": {
        "InChI": "InChI=1S/C7H7NO2/c1-6(9)10-7-3-2-4-8-5-7/h2-5H,1H3",
        "InChIKey": null,
        "Canonical SMILES": "O=C(OC=1C=NC=CC1)C",
        "Molecular Formula": "C<sub>7</sub>H<sub>7</sub>NO<sub>2</sub>",
        "Molecular Mass": "137.14",
        "Boiling Point": "92 °C @ Press: 9 Torr"
    }
}