{
    "cas_no": "70851-49-9",
    "key_name": "Dimethylsila-14-crown-5",
    "cn_name": null,
    "alternate_name": "1,3,6,9,12-Pentaoxa-2-silacyclotetradecane, 2,2-dimethyl-;2,2-Dimethyl-1,3,6,9,12-pentaoxa-2-silacyclotetradecane;Dimethylsila-14-crown-5",
    "duplicated_cas_no": "",
    "SMILES": "C[Si]1(C)OCCOCCOCCOCCO1",
    "meta_data": {
        "InChI": "InChI=1S/C10H22O5Si/c1-16(2)14-9-7-12-5-3-11-4-6-13-8-10-15-16/h3-10H2,1-2H3",
        "InChIKey": null,
        "Canonical SMILES": "O1CCOCCO[Si](OCCOCC1)(C)C",
        "Molecular Formula": "C<sub>10</sub>H<sub>22</sub>O<sub>5</sub>Si",
        "Molecular Mass": "250.36",
        "Boiling Point": "125-129 °C @ Press: 0.5 Torr",
        "Density": "1.080 g/cm³"
    }
}