{
    "cas_no": "10580-52-6",
    "key_name": "Vanadium dichloride",
    "cn_name": "氯化钒(II);氯化钒(II);",
    "alternate_name": "Vanadium chloride (VCl<sub>2</sub>);Vanadium dichloride;Vanadium chloride;Vanadium(II) chloride;Dichlorovanadium",
    "duplicated_cas_no": "",
    "SMILES": "[V](Cl)Cl",
    "meta_data": {
        "InChI": "InChI=1S/2ClH.V/h2*1H;/q;;+2/p-2",
        "InChIKey": null,
        "Canonical SMILES": "Cl[V]Cl",
        "Molecular Formula": "Cl<sub>2</sub>V",
        "Molecular Mass": "",
        "Melting Point": "1350 °C"
    }
}