{
    "cas_no": "5434-27-5",
    "key_name": "1,3-Dibromo-2,2-dimethylpropane",
    "cn_name": null,
    "alternate_name": "Propane, 1,3-dibromo-2,2-dimethyl-;1,3-Dibromo-2,2-dimethylpropane;2,2-Dimethyl-1,3-dibromopropane;1,3-Dibromoneopentane;2,2-Bis(bromomethyl)propane;NSC 15754;Neopentyl dibromide;1-Bromo-2-bromomethyl-2-methylpropane",
    "duplicated_cas_no": "",
    "SMILES": "C(CBr)(CBr)(C)C",
    "meta_data": {
        "InChI": "InChI=1S/C5H10Br2/c1-5(2,3-6)4-7/h3-4H2,1-2H3",
        "InChIKey": null,
        "Canonical SMILES": "BrCC(C)(C)CBr",
        "Molecular Formula": "C<sub>5</sub>H<sub>10</sub>Br<sub>2</sub>",
        "Molecular Mass": "229.94",
        "Boiling Point": "64-69 °C @ Press: 11 Torr",
        "Density": "1.6775 g/cm³ @ Temp: 20 °C"
    }
}