{
    "cas_no": "38212-30-5",
    "key_name": "1-(4-Methoxyphenyl)piperazine",
    "cn_name": "1-(4-甲氧基苯基)哌嗪;",
    "alternate_name": "Piperazine, 1-(4-methoxyphenyl)-;1-(4-Methoxyphenyl)piperazine;1-(<em>p</em>-Methoxyphenyl)piperazine;1-(<em>p</em>-Anisyl)piperazine;<em>N</em>-(<em>p</em>-Methoxyphenyl)piperazine;<em>N</em>-(4-Methoxyphenyl)piperazine;4-(4-Methoxyphenyl)piperazine;1-(4′-Methoxyphenyl)piperazine",
    "duplicated_cas_no": "",
    "SMILES": "O(C)C1=CC=C(C=C1)N2CCNCC2",
    "meta_data": {
        "InChI": "InChI=1S/C11H16N2O/c1-14-11-4-2-10(3-5-11)13-8-6-12-7-9-13/h2-5,12H,6-9H2,1H3",
        "InChIKey": null,
        "Canonical SMILES": "O(C1=CC=C(C=C1)N2CCNCC2)C",
        "Molecular Formula": "C<sub>11</sub>H<sub>16</sub>N<sub>2</sub>O",
        "Molecular Mass": "192.26",
        "Melting Point": "209-210 °C"
    }
}