{
    "cas_no": "102-19-2",
    "key_name": "Isoamyl phenylacetate",
    "cn_name": "苯乙酸异戊酯;",
    "alternate_name": "Benzeneacetic acid, 3-methylbutyl ester;Acetic acid, phenyl-, isopentyl ester;Isopentyl alcohol, phenylacetate;Isoamyl phenylacetate;Isopentyl phenylacetate;Phenylacetic acid, isopentyl ester;NSC 60582;3-Methylbutyl phenylacetate;3-Methylbutyl 2-phenylacetate",
    "duplicated_cas_no": "",
    "SMILES": "C(C(OCCC(C)C)=O)C1=CC=CC=C1",
    "meta_data": {
        "InChI": "InChI=1S/C13H18O2/c1-11(2)8-9-15-13(14)10-12-6-4-3-5-7-12/h3-7,11H,8-10H2,1-2H3",
        "InChIKey": null,
        "Canonical SMILES": "O=C(OCCC(C)C)CC=1C=CC=CC1",
        "Molecular Formula": "C<sub>13</sub>H<sub>18</sub>O<sub>2</sub>",
        "Molecular Mass": "206.28",
        "Boiling Point": "250-251 °C",
        "Density": "0.9267 g/cm³ @ Temp: 16 °C"
    }
}