{
    "cas_no": "183322-18-1",
    "key_name": "4-Chloro-6,7-bis(2-methoxyethoxy)quinazoline",
    "cn_name": "4-氯-6,7-二(2-甲氧基乙氧基)喹唑啉;",
    "alternate_name": "Quinazoline, 4-chloro-6,7-bis(2-methoxyethoxy)-;4-Chloro-6,7-bis(2-methoxyethoxy)quinazoline;4-Chloro-6,7-di(2-methoxyethoxy)quinazoline;6,7-Bis(2-methoxyethoxy)-4-chloroquinazoline;CP 335963",
    "duplicated_cas_no": "",
    "SMILES": "ClC=1C2=C(C=C(OCCOC)C(OCCOC)=C2)N=CN1",
    "meta_data": {
        "InChI": "InChI=1S/C14H17ClN2O4/c1-18-3-5-20-12-7-10-11(16-9-17-14(10)15)8-13(12)21-6-4-19-2/h7-9H,3-6H2,1-2H3",
        "InChIKey": null,
        "Canonical SMILES": "ClC1=NC=NC=2C=C(OCCOC)C(OCCOC)=CC12",
        "Molecular Formula": "C<sub>14</sub>H<sub>17</sub>ClN<sub>2</sub>O<sub>4</sub>",
        "Molecular Mass": "312.75",
        "Melting Point": "105-107 °C"
    }
}