{
    "cas_no": "22717-56-2",
    "key_name": "4-Bromo-2-hydroxybenzoic acid methyl ester",
    "cn_name": null,
    "alternate_name": "Benzoic acid, 4-bromo-2-hydroxy-, methyl ester;Salicylic acid, 4-bromo-, methyl ester;Methyl 4-bromo-2-hydroxybenzoate;4-Bromo-2-hydroxybenzoic acid methyl ester",
    "duplicated_cas_no": "",
    "SMILES": "C(OC)(=O)C1=C(O)C=C(Br)C=C1",
    "meta_data": {
        "InChI": "InChI=1S/C8H7BrO3/c1-12-8(11)6-3-2-5(9)4-7(6)10/h2-4,10H,1H3",
        "InChIKey": null,
        "Canonical SMILES": "O=C(OC)C1=CC=C(Br)C=C1O",
        "Molecular Formula": "C<sub>8</sub>H<sub>7</sub>BrO<sub>3</sub>",
        "Molecular Mass": "231.04",
        "Melting Point": "38 °C"
    }
}