{
    "cas_no": "644-31-5",
    "key_name": "Acetyl benzoyl peroxide",
    "cn_name": "过氧化乙酰苯甲酰;",
    "alternate_name": "Peroxide, acetyl benzoyl;Acetyl benzoyl peroxide;Acetozone;Benzoyl acetyl peroxide;Benzozone;Trigonox P 50S",
    "duplicated_cas_no": "",
    "SMILES": "C(OOC(C)=O)(=O)C1=CC=CC=C1",
    "meta_data": {
        "InChI": "InChI=1S/C9H8O4/c1-7(10)12-13-9(11)8-5-3-2-4-6-8/h2-6H,1H3",
        "InChIKey": null,
        "Canonical SMILES": "O=C(OOC(=O)C)C=1C=CC=CC1",
        "Molecular Formula": "C<sub>9</sub>H<sub>8</sub>O<sub>4</sub>",
        "Molecular Mass": "180.16",
        "Boiling Point": "130 °C @ Press: 19 Torr",
        "Melting Point": "37 °C"
    }
}