{
    "cas_no": "56741-34-5",
    "key_name": "Benzoic acid, 5-amino-2-fluoro-, methyl ester",
    "cn_name": "2-氟-5-氨基苯甲酸甲酯;",
    "alternate_name": "Benzoic acid, 5-amino-2-fluoro-, methyl ester;Methyl 5-amino-2-fluorobenzoate;5-Amino-2-fluorobenzoic acid methyl ester",
    "duplicated_cas_no": "",
    "SMILES": "C(OC)(=O)C1=C(F)C=CC(N)=C1",
    "meta_data": {
        "InChI": "InChI=1S/C8H8FNO2/c1-12-8(11)6-4-5(10)2-3-7(6)9/h2-4H,10H2,1H3",
        "InChIKey": null,
        "Canonical SMILES": "O=C(OC)C1=CC(N)=CC=C1F",
        "Molecular Formula": "C<sub>8</sub>H<sub>8</sub>FNO<sub>2</sub>",
        "Molecular Mass": "169.15",
        "Melting Point": "86 °C"
    }
}