{
    "cas_no": "94-26-8",
    "key_name": "Butylparaben",
    "cn_name": "尼泊金丁酯;对羟基苯甲酸丁酯;",
    "alternate_name": "Benzoic acid, 4-hydroxy-, butyl ester;Benzoic acid, <em>p</em>-hydroxy-, butyl ester;Aseptoform Butyl;Butoben;Butyl chemosept;Butyl <em>p</em>-hydroxybenzoate;Butylparaben;Butyl Tegosept;<em>p</em>-Hydroxybenzoic acid butyl ester;Nipabutyl;Preserval B;Solbrol B;Tegosept B;<em>n</em>-Butyl <em>p</em>-hydroxybenzoate;Butyl 4-hydroxybenzoate;SPF;4-Hydroxybenzoic acid butyl ester;Butyl parasept;Tegosept Butyl;Butyl Butex;4-(Butoxycarbonyl)phenol;<em>n</em>-Butylparaben;<em>n</em>-Butyl 4-hydroxybenzoate;Mekkings B;Butyl parabens;NSC 13164;NSC 8475;Mekkins B",
    "duplicated_cas_no": "8068-49-3;1350551-41-5",
    "SMILES": "C(OCCCC)(=O)C1=CC=C(O)C=C1",
    "meta_data": {
        "InChI": "InChI=1S/C11H14O3/c1-2-3-8-14-11(13)9-4-6-10(12)7-5-9/h4-7,12H,2-3,8H2,1H3",
        "InChIKey": null,
        "Canonical SMILES": "O=C(OCCCC)C1=CC=C(O)C=C1",
        "Molecular Formula": "C<sub>11</sub>H<sub>14</sub>O<sub>3</sub>",
        "Molecular Mass": "194.23",
        "Boiling Point": "309 °C",
        "Melting Point": "68-69 °C"
    }
}