{
    "cas_no": "35231-44-8",
    "key_name": "4-Bromomethyl-7-methoxycoumarin",
    "cn_name": "4-溴甲基-7-甲氧基香豆素;",
    "alternate_name": "2<em>H</em>-1-Benzopyran-2-one, 4-(bromomethyl)-7-methoxy-;4-(Bromomethyl)-7-methoxy-2<em>H</em>-1-benzopyran-2-one;4-Bromomethyl-7-methoxy-2-oxo-2<em>H</em>-benzopyran;4-Bromomethyl-7-methoxycoumarin;7-Methoxy-4-(bromomethyl)coumarin;4-(Bromomethyl)-7-methoxy-2<em>H</em>-chromen-2-one;4-(Bromomethyl)-7-methoxy-2<em>H</em>-chromene-2-one;4-(Bromomethyl)-7-methoxychromen-2-one",
    "duplicated_cas_no": "",
    "SMILES": "C(Br)C=1C=2C(=CC(OC)=CC2)OC(=O)C1",
    "meta_data": {
        "InChI": "InChI=1S/C11H9BrO3/c1-14-8-2-3-9-7(6-12)4-11(13)15-10(9)5-8/h2-5H,6H2,1H3",
        "InChIKey": null,
        "Canonical SMILES": "O=C1OC=2C=C(OC)C=CC2C(=C1)CBr",
        "Molecular Formula": "C<sub>11</sub>H<sub>9</sub>BrO<sub>3</sub>",
        "Molecular Mass": "269.09",
        "Melting Point": "204 °C"
    }
}