{
    "cas_no": "64118-84-9",
    "key_name": "4′-Hydroxydiclofenac",
    "cn_name": "4\"-羟基双氯芬酸;2-((2,6-二氯-4-羟基苯基)氨基)苯乙酸;",
    "alternate_name": "Benzeneacetic acid, 2-[(2,6-dichloro-4-hydroxyphenyl)amino]-;2-[(2,6-Dichloro-4-hydroxyphenyl)amino]benzeneacetic acid;4′-Hydroxydiclofenac",
    "duplicated_cas_no": "",
    "SMILES": "N(C1=C(Cl)C=C(O)C=C1Cl)C2=C(CC(O)=O)C=CC=C2",
    "meta_data": {
        "InChI": "InChI=1S/C14H11Cl2NO3/c15-10-6-9(18)7-11(16)14(10)17-12-4-2-1-3-8(12)5-13(19)20/h1-4,6-7,17-18H,5H2,(H,19,20)",
        "InChIKey": null,
        "Canonical SMILES": "O=C(O)CC=1C=CC=CC1NC=2C(Cl)=CC(O)=CC2Cl",
        "Molecular Formula": "C<sub>14</sub>H<sub>11</sub>Cl<sub>2</sub>NO<sub>3</sub>",
        "Molecular Mass": "312.15",
        "Melting Point": "177-178 °C"
    }
}