{
    "cas_no": "499-20-7",
    "key_name": "Dhurrin",
    "cn_name": "蜀黍苷;",
    "alternate_name": "Benzeneacetonitrile, α-(β-<span class=\"text-smallcaps\">D</span>-glucopyranosyloxy)-4-hydroxy-, (α<em>S</em>)-;Dhurrin;Benzeneacetonitrile, α-(β-<span class=\"text-smallcaps\">D</span>-glucopyranosyloxy)-4-hydroxy-, (<em>S</em>)-;Glucoside, α-cyano-<em>p</em>-hydroxybenzyl;(α<em>S</em>)-α-(β-<span class=\"text-smallcaps\">D</span>-Glucopyranosyloxy)-4-hydroxybenzeneacetonitrile;(<em>S</em>)-α-Cyano-<em>p</em>-hydroxybenzyl glucoside",
    "duplicated_cas_no": "96788-82-8;802274-24-4",
    "SMILES": "O([C@H](C#N)C1=CC=C(O)C=C1)[C@@H]2O[C@H](CO)[C@@H](O)[C@H](O)[C@H]2O",
    "meta_data": {
        "InChI": "InChI=1S/C14H17NO7/c15-5-9(7-1-3-8(17)4-2-7)21-14-13(20)12(19)11(18)10(6-16)22-14/h1-4,9-14,16-20H,6H2/t9-,10-,11-,12+,13-,14-/m1/s1",
        "InChIKey": null,
        "Canonical SMILES": "N#CC(OC1OC(CO)C(O)C(O)C1O)C2=CC=C(O)C=C2",
        "Molecular Formula": "C<sub>14</sub>H<sub>17</sub>NO<sub>7</sub>",
        "Molecular Mass": "311.29",
        "Melting Point": "200 °C (decomp)"
    }
}