{
    "cas_no": "7783-77-9",
    "key_name": "Molybdenum fluoride (MoF<sub>6</sub>), (<em>OC</em>-6-11)-",
    "cn_name": null,
    "alternate_name": "Molybdenum fluoride (MoF<sub>6</sub>), (<em>OC</em>-6-11)-;Molybdenum fluoride (MoF<sub>6</sub>);Molybdenum hexafluoride;Molybdenum(6+) fluoride;Hexafluoromolybdenum",
    "duplicated_cas_no": "26979-68-0;26979-69-1",
    "SMILES": "[Mo](F)(F)(F)(F)(F)F",
    "meta_data": {
        "InChI": "InChI=1S/6FH.Mo/h6*1H;/q;;;;;;+6/p-6",
        "InChIKey": null,
        "Canonical SMILES": "F[Mo](F)(F)(F)(F)F",
        "Molecular Formula": "F<sub>6</sub>Mo",
        "Molecular Mass": "",
        "Boiling Point": "35 °C",
        "Melting Point": "17 °C"
    }
}