{
    "cas_no": "1421-69-8",
    "key_name": "<em>N</em>-[(Phenylmethoxy)carbonyl]glycyl-<span class=\"text-smallcaps\">L</span>-leucine",
    "cn_name": null,
    "alternate_name": "<span class=\"text-smallcaps\">L</span>-Leucine, <em>N</em>-[(phenylmethoxy)carbonyl]glycyl-;Leucine, <em>N</em>-(<em>N</em>-carboxyglycyl)-, <em>N</em>-benzyl ester, <span class=\"text-smallcaps\">L</span>-;<span class=\"text-smallcaps\">L</span>-Leucine, <em>N</em>-[<em>N</em>-[(phenylmethoxy)carbonyl]glycyl]-;Leucine, <em>N</em>-(<em>N</em>-carboxyglycyl)-, <em>N</em>-benzyl ester;<em>N</em>-[(Phenylmethoxy)carbonyl]glycyl-<span class=\"text-smallcaps\">L</span>-leucine;<em>N</em>-Carbobenzoxyglycyl-<span class=\"text-smallcaps\">L</span>-leucine;<em>N</em>-(Benzyloxycarbonyl)glycyl-<span class=\"text-smallcaps\">L</span>-leucine;<em>N</em>-(Benzyloxycarbonyl)glycylleucine;NSC 89638",
    "duplicated_cas_no": "",
    "SMILES": "C(OC(NCC(N[C@@H](CC(C)C)C(O)=O)=O)=O)C1=CC=CC=C1",
    "meta_data": {
        "InChI": "InChI=1S/C16H22N2O5/c1-11(2)8-13(15(20)21)18-14(19)9-17-16(22)23-10-12-6-4-3-5-7-12/h3-7,11,13H,8-10H2,1-2H3,(H,17,22)(H,18,19)(H,20,21)/t13-/m0/s1",
        "InChIKey": null,
        "Canonical SMILES": "O=C(OCC=1C=CC=CC1)NCC(=O)NC(C(=O)O)CC(C)C",
        "Molecular Formula": "C<sub>16</sub>H<sub>22</sub>N<sub>2</sub>O<sub>5</sub>",
        "Molecular Mass": "",
        "Melting Point": "99-100 °C"
    }
}