{
    "cas_no": "74650-71-8",
    "key_name": "2-Chloro-5-methoxy-3-pyridinecarboxylic acid",
    "cn_name": null,
    "alternate_name": "3-Pyridinecarboxylic acid, 2-chloro-5-methoxy-;2-Chloro-5-methoxy-3-pyridinecarboxylic acid;2-Chloro-5-methoxynicotinic acid",
    "duplicated_cas_no": "",
    "SMILES": "C(O)(=O)C=1C=C(OC)C=NC1Cl",
    "meta_data": {
        "InChI": "InChI=1S/C7H6ClNO3/c1-12-4-2-5(7(10)11)6(8)9-3-4/h2-3H,1H3,(H,10,11)",
        "InChIKey": null,
        "Canonical SMILES": "O=C(O)C1=CC(OC)=CN=C1Cl",
        "Molecular Formula": "C<sub>7</sub>H<sub>6</sub>ClNO<sub>3</sub>",
        "Molecular Mass": "187.58",
        "Melting Point": "167.2-168.7 °C"
    }
}