{
    "cas_no": "118-93-4",
    "key_name": "2′-Hydroxyacetophenone",
    "cn_name": "邻羟基苯乙酮;2\"-羟基苯乙酮;",
    "alternate_name": "Ethanone, 1-(2-hydroxyphenyl)-;Acetophenone, 2′-hydroxy-;Acetophenone, <em>o</em>-hydroxy-;1-(2-Hydroxyphenyl)ethanone;<em>o</em>-Hydroxyacetophenone;2′-Hydroxyacetophenone;<em>o</em>-Acetylphenol;2-Acetylphenol;<em>o</em>-Hydroxyphenyl methyl ketone;2-Hydroxyphenyl methyl ketone;2-Hydroxyacetophenone;Methyl 2-hydroxyphenyl ketone;2-Hydroxyphenylethanone;NSC 16933;NSC 44452;NSC 83568;NSC 9263;<em>o</em>-Hydroxyhypnone;1-(6-Hydroxyphenyl)ethanone;1-(2-Hydroxyphenyl)ethan-1-one;1-Acetyl-2-hydroxybenzene",
    "duplicated_cas_no": "",
    "SMILES": "C(C)(=O)C1=C(O)C=CC=C1",
    "meta_data": {
        "InChI": "InChI=1S/C8H8O2/c1-6(9)7-4-2-3-5-8(7)10/h2-5,10H,1H3",
        "InChIKey": null,
        "Canonical SMILES": "O=C(C=1C=CC=CC1O)C",
        "Molecular Formula": "C<sub>8</sub>H<sub>8</sub>O<sub>2</sub>",
        "Molecular Mass": "136.15",
        "Boiling Point": "218 °C",
        "Melting Point": "5 °C",
        "Density": "1.1326 g/cm³ @ Temp: 20 °C"
    }
}