{
    "cas_no": "4316-93-2",
    "key_name": "4,6-Dichloro-5-nitropyrimidine",
    "cn_name": "4,6-二氯-5-硝基嘧啶;5-硝基-4,6-二氯嘧啶;",
    "alternate_name": "Pyrimidine, 4,6-dichloro-5-nitro-;4,6-Dichloro-5-nitropyrimidine;NSC 89693",
    "duplicated_cas_no": "",
    "SMILES": "N(=O)(=O)C=1C(Cl)=NC=NC1Cl",
    "meta_data": {
        "InChI": "InChI=1S/C4HCl2N3O2/c5-3-2(9(10)11)4(6)8-1-7-3/h1H",
        "InChIKey": null,
        "Canonical SMILES": "O=N(=O)C=1C(Cl)=NC=NC1Cl",
        "Molecular Formula": "C<sub>4</sub>HCl<sub>2</sub>N<sub>3</sub>O<sub>2</sub>",
        "Molecular Mass": "193.98",
        "Melting Point": "102-104 °C"
    }
}