{
    "cas_no": "1330-70-7",
    "key_name": "Hydroxyoctadecanoic acid",
    "cn_name": "羟基硬脂酸;羟基硬脂酸;",
    "alternate_name": "Octadecanoic acid, hydroxy-;Hydroxyoctadecanoic acid;Hyfac 12;Hydroxystearic acid;Monohydroxystearic acid;Cenwax A;Edenor DSSG;C18:0-OH",
    "duplicated_cas_no": "",
    "SMILES": "",
    "meta_data": {
        "InChI": "",
        "InChIKey": null,
        "Canonical SMILES": "",
        "Molecular Formula": "C<sub>18</sub>H<sub>36</sub>O<sub>3</sub>",
        "Molecular Mass": "",
        "Melting Point": "90 °C"
    }
}