{
    "cas_no": "64-10-8",
    "key_name": "Phenylurea",
    "cn_name": "N-苯基脲;苯基脲;",
    "alternate_name": "Urea, <em>N</em>-phenyl-;Urea, phenyl-;<em>N</em>-Phenylurea;Monophenylurea;Phenylcarbamide;Phenylurea;1-Phenylurea;Stabilisator VH;Stabilizer VH;VH;NSC 2781;Ethyl 5-nitro-1<em>H</em>-indole-3-carboxylate;PMSA 954",
    "duplicated_cas_no": "",
    "SMILES": "N(C(N)=O)C1=CC=CC=C1",
    "meta_data": {
        "InChI": "InChI=1S/C7H8N2O/c8-7(10)9-6-4-2-1-3-5-6/h1-5H,(H3,8,9,10)",
        "InChIKey": null,
        "Canonical SMILES": "O=C(N)NC=1C=CC=CC1",
        "Molecular Formula": "C<sub>7</sub>H<sub>8</sub>N<sub>2</sub>O",
        "Molecular Mass": "136.15",
        "Boiling Point": "238 °C",
        "Melting Point": "147 °C",
        "Density": "1.2849 g/cm³"
    }
}