{
    "cas_no": "638-68-6",
    "key_name": "Triacontane",
    "cn_name": "正三十烷;三十烷;",
    "alternate_name": "Triacontane;<em>n</em>-Triacontane;NSC 158661",
    "duplicated_cas_no": "",
    "SMILES": "C(CCCCCCCCCCCCCCC)CCCCCCCCCCCCCC",
    "meta_data": {
        "InChI": "InChI=1S/C30H62/c1-3-5-7-9-11-13-15-17-19-21-23-25-27-29-30-28-26-24-22-20-18-16-14-12-10-8-6-4-2/h3-30H2,1-2H3",
        "InChIKey": null,
        "Canonical SMILES": "CCCCCCCCCCCCCCCCCCCCCCCCCCCCCC",
        "Molecular Formula": "C<sub>30</sub>H<sub>62</sub>",
        "Molecular Mass": "422.81",
        "Boiling Point": "449.7 °C",
        "Melting Point": "65.8 °C",
        "Density": "0.7684 g/cm³ @ Temp: 89 °C"
    }
}