{
    "cas_no": "18621-75-5",
    "key_name": "1,4-Diacetoxy-2-butene",
    "cn_name": null,
    "alternate_name": "2-Butene-1,4-diol, 1,4-diacetate;2-Butene-1,4-diol, diacetate;1,4-Diacetoxy-2-butene;2-Butenylene acetate;1,4-Diacetoxybutene;2-Butenylene diacetate;Butene-1,4-diol, diacetate",
    "duplicated_cas_no": "1081853-27-1",
    "SMILES": "C(OC(C)=O)C=CCOC(C)=O",
    "meta_data": {
        "InChI": "InChI=1S/C8H12O4/c1-7(9)11-5-3-4-6-12-8(2)10/h3-4H,5-6H2,1-2H3",
        "InChIKey": null,
        "Canonical SMILES": "O=C(OCC=CCOC(=O)C)C",
        "Molecular Formula": "C<sub>8</sub>H<sub>12</sub>O<sub>4</sub>",
        "Molecular Mass": "172.18",
        "Boiling Point": "114 °C @ Press: 15 Torr",
        "Density": "1.0826 g/cm³ @ Temp: 420 °C"
    }
}