{
    "cas_no": "2365-48-2",
    "key_name": "Methyl thioglycolate",
    "cn_name": "巯基乙酸甲酯;",
    "alternate_name": "Acetic acid, 2-mercapto-, methyl ester;Acetic acid, mercapto-, methyl ester;Methyl mercaptoacetate;Methyl thioglycolate;Thioglycolic acid methyl ester;Methyl 2-mercaptoacetate;Mercaptoacetic acid methyl ester;Methyl α-mercaptoacetate;NSC 75117;2-Mercaptoacetic acid methyl ester;Methyl sulfanylacetate;Methyl 2-sulfanylacetate",
    "duplicated_cas_no": "64807-90-5;1629585-98-3;2787549-47-5",
    "SMILES": "C(CS)(OC)=O",
    "meta_data": {
        "InChI": "InChI=1S/C3H6O2S/c1-5-3(4)2-6/h6H,2H2,1H3",
        "InChIKey": null,
        "Canonical SMILES": "O=C(OC)CS",
        "Molecular Formula": "C<sub>3</sub>H<sub>6</sub>O<sub>2</sub>S",
        "Molecular Mass": "106.14",
        "Boiling Point": "148 °C"
    }
}