{
    "cas_no": "33758-34-8",
    "key_name": "Heptyl carbonochloridate",
    "cn_name": "氯甲酸正庚酯;",
    "alternate_name": "Carbonochloridic acid, heptyl ester;Formic acid, chloro-, heptyl ester;Heptyl carbonochloridate;Heptyl chloroformate;<em>n</em>-Heptyl chloroformate;1-Heptyl chloroformate;Heptyl chlorocarbonate",
    "duplicated_cas_no": "",
    "SMILES": "C(CCCCC)COC(Cl)=O",
    "meta_data": {
        "InChI": "InChI=1S/C8H15ClO2/c1-2-3-4-5-6-7-11-8(9)10/h2-7H2,1H3",
        "InChIKey": null,
        "Canonical SMILES": "O=C(Cl)OCCCCCCC",
        "Molecular Formula": "C<sub>8</sub>H<sub>15</sub>ClO<sub>2</sub>",
        "Molecular Mass": "178.66",
        "Boiling Point": "60-62 °C @ Press: 4 Torr"
    }
}