{
    "cas_no": "120934-96-5",
    "key_name": "Methyl 2,5-dimethyl-4-[2-(phenylmethyl)benzoyl]-1<em>H</em>-pyrrole-3-carboxylate",
    "cn_name": null,
    "alternate_name": "1<em>H</em>-Pyrrole-3-carboxylic acid, 2,5-dimethyl-4-[2-(phenylmethyl)benzoyl]-, methyl ester;Methyl 2,5-dimethyl-4-[2-(phenylmethyl)benzoyl]-1<em>H</em>-pyrrole-3-carboxylate;FPL 64176",
    "duplicated_cas_no": "",
    "SMILES": "C(=O)(C=1C(C(OC)=O)=C(C)NC1C)C2=C(CC3=CC=CC=C3)C=CC=C2",
    "meta_data": {
        "InChI": "InChI=1S/C22H21NO3/c1-14-19(20(15(2)23-14)22(25)26-3)21(24)18-12-8-7-11-17(18)13-16-9-5-4-6-10-16/h4-12,23H,13H2,1-3H3",
        "InChIKey": null,
        "Canonical SMILES": "O=C(OC)C=1C(C(=O)C=2C=CC=CC2CC=3C=CC=CC3)=C(NC1C)C",
        "Molecular Formula": "C<sub>22</sub>H<sub>21</sub>NO<sub>3</sub>",
        "Molecular Mass": "347.41",
        "Melting Point": "145-146 °C"
    }
}