{
    "cas_no": "56377-79-8",
    "key_name": "Nosiheptide",
    "cn_name": "那西肽;诺西肽;诺肽菌素;",
    "alternate_name": "4-Thiazolecarboxamide, <em>N</em>-[1-(aminocarbonyl)ethenyl]-2-[(11<em>S</em>,14<em>Z</em>,21<em>S</em>,23<em>S</em>,29<em>S</em>)-14-ethylidene-9,10,11,12,13,14,19,20,21,22,23,24,26,33,35,36-hexadecahydro-3,23-dihydroxy-11-[(1<em>R</em>)-1-hydroxyethyl]-31-methyl-9,12,19,24,33,43-hexaoxo-30,32-imino-8,5:18,15:40,37-trinitrilo-21,36-([2,4]-<em>endo</em>-thiazolomethanimino)-5<em>H</em>,15<em>H</em>,37<em>H</em>-pyrido[3,2-<em>w</em>][2,11,21,27,31,7,14,17]benzoxatetrathiatriazacyclohexatriacontin-2-yl]-;Nosiheptide;30,32-Imino-8,5:18,15:40,37-trinitrilo-21,36-([2,4]-<em>endo</em>-thiazolomethanimino)-5<em>H</em>,15<em>H</em>,37<em>H</em>-pyrido[3,2-<em>w</em>][2,11,21,27,31,7,14,17]benzoxatetrathiatriazacyclohexatriacontine, nosiheptide deriv.;<em>N</em>-[1-(Aminocarbonyl)ethenyl]-2-[(11<em>S</em>,14<em>Z</em>,21<em>S</em>,23<em>S</em>,29<em>S</em>)-14-ethylidene-9,10,11,12,13,14,19,20,21,22,23,24,26,33,35,36-hexadecahydro-3,23-dihydroxy-11-[(1<em>R</em>)-1-hydroxyethyl]-31-methyl-9,12,19,24,33,43-hexaoxo-30,32-imino-8,5:18,15:40,37-trinitrilo-21,36-([2,4]-<em>endo</em>-thiazolomethanimino)-5<em>H</em>,15<em>H</em>,37<em>H</em>-pyrido[3,2-<em>w</em>][2,11,21,27,31,7,14,17]benzoxatetrathiatriazacyclohexatriacontin-2-yl]-4-thiazolecarboxamide;Multhiomycin;Multiomycin;[11<em>S</em>-[11<em>R</em>*(<em>S</em>*),14<em>Z</em>,21<em>R</em>*,23<em>R</em>*,29<em>R</em>*]]-<em>N</em>-[1-(aminocarbonyl)ethenyl]-2-[14-ethylidene-9,10,11,12,13,14,19,20,21,22,23,24,26,33,35,36-hexadecahydro-3,23-dihydroxy-11-(1-hydroxyethyl)-31-methyl-9,12,19,24,33,43-hexaoxo-30,32-imino-8,5:18,15:40,37-trinitrilo-21,36-([2,4]-<em>endo</em>-thiazolomethanimino)-5<em>H</em>,15<em>H</em>,37<em>H</em>-pyrido[3,2-<em>w</em>][2,11,21,27,31,7,14,17]benzoxatetrathiatriazacyclohexatriacontin-2-yl]-4-thiazolecarboxamide;Primofax;RP 9671;NSC 307240",
    "duplicated_cas_no": "11057-08-2;51668-49-6;65454-47-9",
    "SMILES": "OC=1C=C2C(C=3N=C(SC3)C4NC(=O)C=5N=C(SC5)C(NC(=O)C=6N=C(C(=CC)NC(=O)C(C(C)O)NC(=O)C=7N=C2SC7)SC6)CC(O)C(=O)OCC8=C9C(C)=C(C(=O)SC4)NC9=CC=C8)=NC1C%10=NC(C(NC(C(N)=O)=C)=O)=CS%10",
    "meta_data": {
        "InChI": "InChI=1S/C51H43N13O12S6/c1-5-23-46-60-28(14-79-46)41(70)56-25-10-33(67)50(74)76-11-21-7-6-8-24-34(21)18(2)35(54-24)51(75)82-17-31(57-42(71)29-15-80-47(25)61-29)48-58-26(12-78-48)37-22(45-59-30(13-77-45)43(72)64-36(20(4)65)44(73)55-23)9-32(66)38(63-37)49-62-27(16-81-49)40(69)53-19(3)39(52)68/h5-9,12-16,20,25,31,33,36,54,65-67H,3,10-11,17H2,1-2,4H3,(H2,52,68)(H,53,69)(H,55,73)(H,56,70)(H,57,71)(H,64,72)",
        "InChIKey": null,
        "Canonical SMILES": "O=C1SCC2NC(=O)C=3N=C(SC3)C(NC(=O)C=4N=C(SC4)C(=CC)NC(=O)C(NC(=O)C=5N=C(SC5)C=6C=C(O)C(=NC6C=7N=C2SC7)C8=NC(=CS8)C(=O)NC(=C)C(=O)N)C(O)C)CC(O)C(=O)OCC=9C=CC=C%10NC1=C(C%109)C",
        "Molecular Formula": "C<sub>51</sub>H<sub>43</sub>N<sub>13</sub>O<sub>12</sub>S<sub>6</sub>",
        "Molecular Mass": "1222.36",
        "Melting Point": "310-320 °C (decomp)"
    }
}