{
    "cas_no": "13450-91-4",
    "key_name": "Gallium iodide",
    "cn_name": "无水三碘化镓;三碘化镓无水;碘化镓(III);",
    "alternate_name": "Gallium iodide (GaI<sub>3</sub>);Gallium triiodide;Triiodogallium;Gallium iodide;NSC 94003",
    "duplicated_cas_no": "",
    "SMILES": "[Ga](I)(I)I",
    "meta_data": {
        "InChI": "InChI=1S/Ga.3HI/h;3*1H/q+3;;;/p-3",
        "InChIKey": null,
        "Canonical SMILES": "I[Ga](I)I",
        "Molecular Formula": "GaI<sub>3</sub>",
        "Molecular Mass": "",
        "Boiling Point": "345 °C",
        "Melting Point": "212 °C",
        "Density": "4.15 g/cm³"
    }
}