{
    "cas_no": "521-52-8",
    "key_name": "Vulpinic acid",
    "cn_name": "吴耳酸;",
    "alternate_name": "Benzeneacetic acid, α-(3-hydroxy-5-oxo-4-phenyl-2(5<em>H</em>)-furanylidene)-, methyl ester, (α<em>E</em>)-;Δ<sup>2(5</sup><em><sup>H</sup></em><sup>),α</sup>-Furanacetic acid, 3-hydroxy-5-oxo-α,4-diphenyl-, methyl ester;Benzeneacetic acid, α-(3-hydroxy-5-oxo-4-phenyl-2(5<em>H</em>)-furanylidene)-, methyl ester, (<em>E</em>)-;Vulpinic acid;NSC 5897",
    "duplicated_cas_no": "28127-99-3;34612-25-4",
    "SMILES": "C(\\C(OC)=O)(=C/1\\C(O)=C(C(=O)O1)C2=CC=CC=C2)/C3=CC=CC=C3",
    "meta_data": {
        "InChI": "InChI=1S/C19H14O5/c1-23-18(21)15(13-10-6-3-7-11-13)17-16(20)14(19(22)24-17)12-8-4-2-5-9-12/h2-11,20H,1H3/b17-15+",
        "InChIKey": null,
        "Canonical SMILES": "O=C1OC(C(O)=C1C=2C=CC=CC2)=C(C(=O)OC)C=3C=CC=CC3",
        "Molecular Formula": "C<sub>19</sub>H<sub>14</sub>O<sub>5</sub>",
        "Molecular Mass": "322.31",
        "Melting Point": "122-157 °C"
    }
}