{
    "cas_no": "728-87-0",
    "key_name": "4-Methoxy-α-(4-methoxyphenyl)benzenemethanol",
    "cn_name": "4,4\"-二甲氧基二苯基甲醇;",
    "alternate_name": "Benzenemethanol, 4-methoxy-α-(4-methoxyphenyl)-;Benzhydrol, 4,4′-dimethoxy-;4-Methoxy-α-(4-methoxyphenyl)benzenemethanol;4-Methoxy-4′-methoxybenzhydrol;4,4′-Dimethoxybenzhydrol;Bis(<em>p</em>-methoxyphenyl)carbinol;<em>p</em>,<em>p</em>′-Dimethoxybenzhydrol;Bis(4-methoxyphenyl)methanol;4,4′-Dimethoxydiphenylcarbinol;Bis(<em>p</em>-methoxyphenyl)methanol;NSC 5256;4-methoxy-α-(4-methoxyphenyl)benzenemethanol",
    "duplicated_cas_no": "",
    "SMILES": "C(O)(C1=CC=C(OC)C=C1)C2=CC=C(OC)C=C2",
    "meta_data": {
        "InChI": "InChI=1S/C15H16O3/c1-17-13-7-3-11(4-8-13)15(16)12-5-9-14(18-2)10-6-12/h3-10,15-16H,1-2H3",
        "InChIKey": null,
        "Canonical SMILES": "OC(C1=CC=C(OC)C=C1)C2=CC=C(OC)C=C2",
        "Molecular Formula": "C<sub>15</sub>H<sub>16</sub>O<sub>3</sub>",
        "Molecular Mass": "244.29",
        "Melting Point": "71 °C"
    }
}