{
    "cas_no": "1620-76-4",
    "key_name": "4-Methyl-2-pyridinecarbonitrile",
    "cn_name": null,
    "alternate_name": "2-Pyridinecarbonitrile, 4-methyl-;Picolinonitrile, 4-methyl-;4-Methyl-2-pyridinecarbonitrile;2-Cyano-4-methylpyridine;4-Methyl-2-cyanopyridine",
    "duplicated_cas_no": "",
    "SMILES": "C(#N)C1=CC(C)=CC=N1",
    "meta_data": {
        "InChI": "InChI=1S/C7H6N2/c1-6-2-3-9-7(4-6)5-8/h2-4H,1H3",
        "InChIKey": null,
        "Canonical SMILES": "N#CC1=NC=CC(=C1)C",
        "Molecular Formula": "C<sub>7</sub>H<sub>6</sub>N<sub>2</sub>",
        "Molecular Mass": "118.14",
        "Boiling Point": "88.5 °C @ Press: 2 Torr",
        "Melting Point": "48-77 °C"
    }
}