{
    "cas_no": "74738-17-3",
    "key_name": "Fenpiclonil",
    "cn_name": "拌种咯;拌种咯;4-(2,3-二氯苯基)吡咯-3-腈;",
    "alternate_name": "1<em>H</em>-Pyrrole-3-carbonitrile, 4-(2,3-dichlorophenyl)-;4-(2,3-Dichlorophenyl)-1<em>H</em>-pyrrole-3-carbonitrile;3-(2,3-Dichlorophenyl)-4-cyanopyrrole;4-Cyano-3-(2,3-dichlorophenyl)pyrrole;Fenpiclonil;CGA 142705;Beret",
    "duplicated_cas_no": "1135442-62-4",
    "SMILES": "C(#N)C=1C(=CNC1)C2=C(Cl)C(Cl)=CC=C2",
    "meta_data": {
        "InChI": "InChI=1S/C11H6Cl2N2/c12-10-3-1-2-8(11(10)13)9-6-15-5-7(9)4-14/h1-3,5-6,15H",
        "InChIKey": null,
        "Canonical SMILES": "N#CC1=CNC=C1C=2C=CC=C(Cl)C2Cl",
        "Molecular Formula": "C<sub>11</sub>H<sub>6</sub>Cl<sub>2</sub>N<sub>2</sub>",
        "Molecular Mass": "237.08",
        "Melting Point": "147 °C"
    }
}