{
    "cas_no": "108-95-2",
    "key_name": "Phenol",
    "cn_name": "苯酚;石炭酸;",
    "alternate_name": "Phenol;Carbolic acid;Hydroxybenzene;Monohydroxybenzene;Oxybenzene;Phenic acid;Phenyl hydrate;Phenyl hydroxide;Phenylic acid;Phenylic alcohol;Benzenol;Monophenol;Phenyl alcohol;ENT 1814;NSC 36808;2-Allphenol;MeSH ID: D019800",
    "duplicated_cas_no": "8002-07-1;14534-23-7;50356-25-7",
    "SMILES": "OC1=CC=CC=C1",
    "meta_data": {
        "InChI": "InChI=1S/C6H6O/c7-6-4-2-1-3-5-6/h1-5,7H",
        "InChIKey": null,
        "Canonical SMILES": "OC=1C=CC=CC1",
        "Molecular Formula": "C<sub>6</sub>H<sub>6</sub>O",
        "Molecular Mass": "94.11",
        "Boiling Point": "181.75 °C @ Press: 760.0 Torr",
        "Melting Point": "40.91 °C",
        "Density": "1.071 g/cm³"
    }
}