{
    "cas_no": "18103-42-9",
    "key_name": "5,7-Dihydroxy-3′,4′,5′-trimethoxyflavone",
    "cn_name": null,
    "alternate_name": "4<em>H</em>-1-Benzopyran-4-one, 5,7-dihydroxy-2-(3,4,5-trimethoxyphenyl)-;Flavone, 5,7-dihydroxy-3′,4′,5′-trimethoxy-;5,7-Dihydroxy-2-(3,4,5-trimethoxyphenyl)-4<em>H</em>-1-benzopyran-4-one;5,7-Dihydroxy-3′,4′,5′-trimethoxyflavone;Tricetin 3′,4′,5′-trimethyl ether;3′,4′,5′-Tri-<em>O</em>-methyl-tricetin;NSC 123410",
    "duplicated_cas_no": "",
    "SMILES": "O=C1C=2C(OC(=C1)C3=CC(OC)=C(OC)C(OC)=C3)=CC(O)=CC2O",
    "meta_data": {
        "InChI": "InChI=1S/C18H16O7/c1-22-15-4-9(5-16(23-2)18(15)24-3)13-8-12(21)17-11(20)6-10(19)7-14(17)25-13/h4-8,19-20H,1-3H3",
        "InChIKey": null,
        "Canonical SMILES": "O=C1C=C(OC=2C=C(O)C=C(O)C12)C=3C=C(OC)C(OC)=C(OC)C3",
        "Molecular Formula": "C<sub>18</sub>H<sub>16</sub>O<sub>7</sub>",
        "Molecular Mass": "344.32",
        "Melting Point": "264-265 °C"
    }
}