{
    "cas_no": "4701-17-1",
    "key_name": "5-Bromo-2-thiophenecarboxaldehyde",
    "cn_name": "5-溴-2-噻吩甲醛;5-溴-2-噻酚缩醛;5-溴硫代苯-2-甲醛;",
    "alternate_name": "2-Thiophenecarboxaldehyde, 5-bromo-;5-Bromo-2-thiophenecarboxaldehyde;5-Bromo-2-formylthiophene;2-Bromo-5-formylthiophene;2-Bromo-5-thiophenecarboxaldehyde;5-Bromothiophene-2-carbaldehyde;5-Bromo-2-thiophenaldehyde;2-Formyl-5-bromothiophene;5-Bromothiophene-2-aldehyde;5-Bromothiophen-2-carboxaldehyde;5-Bromo-2-thienylaldehyde;5-Bromo-2-carbonylthiophene",
    "duplicated_cas_no": "",
    "SMILES": "C(=O)C=1SC(Br)=CC1",
    "meta_data": {
        "InChI": "InChI=1S/C5H3BrOS/c6-5-2-1-4(3-7)8-5/h1-3H",
        "InChIKey": null,
        "Canonical SMILES": "O=CC=1SC(Br)=CC1",
        "Molecular Formula": "C<sub>5</sub>H<sub>3</sub>BrOS",
        "Molecular Mass": "191.05",
        "Boiling Point": "115 °C @ Press: 14 Torr"
    }
}