{
    "cas_no": "19847-12-2",
    "key_name": "Pyrazinecarbonitrile",
    "cn_name": "2-氰基吡嗪;",
    "alternate_name": "2-Pyrazinecarbonitrile;Pyrazinecarbonitrile;Pyrazinonitrile;2-Cyanopyrazine;Pyrazinenitrile;Cyanopyrazine;Pyrazinyl cyanide;NSC 166137;NSC 72371",
    "duplicated_cas_no": "",
    "SMILES": "C(#N)C=1C=NC=CN1",
    "meta_data": {
        "InChI": "InChI=1S/C5H3N3/c6-3-5-4-7-1-2-8-5/h1-2,4H",
        "InChIKey": null,
        "Canonical SMILES": "N#CC1=NC=CN=C1",
        "Molecular Formula": "C<sub>5</sub>H<sub>3</sub>N<sub>3</sub>",
        "Molecular Mass": "105.10",
        "Boiling Point": "87 °C",
        "Melting Point": "20 °C"
    }
}