{
    "cas_no": "10150-93-3",
    "key_name": "Ethyl (2<em>E</em>)-4-oxo-2-pentenoate",
    "cn_name": null,
    "alternate_name": "2-Pentenoic acid, 4-oxo-, ethyl ester, (2<em>E</em>)-;2-Pentenoic acid, 4-oxo-, ethyl ester, (<em>E</em>)-;Ethyl (2<em>E</em>)-4-oxo-2-pentenoate;Ethyl <em>trans</em>-4-oxo-2-pentenoate;(<em>E</em>)-Ethyl 4-oxo-2-pentenoate",
    "duplicated_cas_no": "",
    "SMILES": "C(/C=C/C(C)=O)(OCC)=O",
    "meta_data": {
        "InChI": "InChI=1S/C7H10O3/c1-3-10-7(9)5-4-6(2)8/h4-5H,3H2,1-2H3/b5-4+",
        "InChIKey": null,
        "Canonical SMILES": "O=C(OCC)C=CC(=O)C",
        "Molecular Formula": "C<sub>7</sub>H<sub>10</sub>O<sub>3</sub>",
        "Molecular Mass": "142.15",
        "Boiling Point": "86-87 °C @ Press: 12 Torr",
        "Melting Point": "-25 °C"
    }
}