{
    "cas_no": "563-45-1",
    "key_name": "3-Methyl-1-butene",
    "cn_name": null,
    "alternate_name": "1-Butene, 3-methyl-;3-Methyl-1-butene;α-Isoamylene;2-Methyl-3-butene;Isopropylethylene;Isopropylethene;3,3-Dimethylpropene",
    "duplicated_cas_no": "",
    "SMILES": "C(C=C)(C)C",
    "meta_data": {
        "InChI": "InChI=1S/C5H10/c1-4-5(2)3/h4-5H,1H2,2-3H3",
        "InChIKey": null,
        "Canonical SMILES": "C=CC(C)C",
        "Molecular Formula": "C<sub>5</sub>H<sub>10</sub>",
        "Molecular Mass": "70.13",
        "Boiling Point": "20.1 °C",
        "Melting Point": "-168.5 °C",
        "Density": "0.6213 g/cm³ @ Temp: 25 °C"
    }
}