{
    "cas_no": "3117-02-0",
    "key_name": "2,3-Dimethoxy-2,5-cyclohexadiene-1,4-dione",
    "cn_name": null,
    "alternate_name": "2,5-Cyclohexadiene-1,4-dione, 2,3-dimethoxy-;<em>p</em>-Benzoquinone, 2,3-dimethoxy-;Quinone, 2,3-dimethoxy-;2,3-Dimethoxy-2,5-cyclohexadiene-1,4-dione;2,3-Dimethoxybenzoquinone;2,3-Dimethoxyquinone;2,3-Dimethoxy-1,4-benzoquinone;2,3-Dimethoxy-<em>p</em>-benzoquinone;NSC 56335",
    "duplicated_cas_no": "",
    "SMILES": "O(C)C1=C(OC)C(=O)C=CC1=O",
    "meta_data": {
        "InChI": "InChI=1S/C8H8O4/c1-11-7-5(9)3-4-6(10)8(7)12-2/h3-4H,1-2H3",
        "InChIKey": null,
        "Canonical SMILES": "O=C1C=CC(=O)C(OC)=C1OC",
        "Molecular Formula": "C<sub>8</sub>H<sub>8</sub>O<sub>4</sub>",
        "Molecular Mass": "168.15",
        "Melting Point": "66-67 °C"
    }
}