{
    "cas_no": "41219-16-3",
    "key_name": "2,3,4-Trimethoxybenzenemethanamine",
    "cn_name": "2,3,4-三甲氧基苄胺;",
    "alternate_name": "Benzenemethanamine, 2,3,4-trimethoxy-;2,3,4-Trimethoxybenzenemethanamine;2,3,4-Trimethoxybenzylamine;(2,3,4-Trimethoxyphenyl)methanamine",
    "duplicated_cas_no": "",
    "SMILES": "O(C)C1=C(OC)C(OC)=CC=C1CN",
    "meta_data": {
        "InChI": "InChI=1S/C10H15NO3/c1-12-8-5-4-7(6-11)9(13-2)10(8)14-3/h4-5H,6,11H2,1-3H3",
        "InChIKey": null,
        "Canonical SMILES": "O(C1=CC=C(C(OC)=C1OC)CN)C",
        "Molecular Formula": "C<sub>10</sub>H<sub>15</sub>NO<sub>3</sub>",
        "Molecular Mass": "197.23",
        "Boiling Point": "87-89 °C @ Press: 0.2 Torr"
    }
}