{
    "cas_no": "53925-27-2",
    "key_name": "6-Hydroxy-2-methyl-5-nitro-4(1<em>H</em>)-pyrimidinone",
    "cn_name": null,
    "alternate_name": "4(1<em>H</em>)-Pyrimidinone, 6-hydroxy-2-methyl-5-nitro-;6-Hydroxy-2-methyl-5-nitro-4(1<em>H</em>)-pyrimidinone;2-Methyl-5-nitro-4,6-pyrimidinediol;NSC 74447;4,6-Dihydroxy-2-methyl-5-nitropyrimidine;2-Methyl-5-nitro-4,6-dihydroxypyrimidine;2-Methyl-4,6-dihydroxy-5-nitropyrimidine",
    "duplicated_cas_no": "",
    "SMILES": "N(=O)(=O)C=1C(=O)NC(C)=NC1O",
    "meta_data": {
        "InChI": "InChI=1S/C5H5N3O4/c1-2-6-4(9)3(8(11)12)5(10)7-2/h1H3,(H2,6,7,9,10)",
        "InChIKey": null,
        "Canonical SMILES": "O=C1NC(=NC(O)=C1N(=O)=O)C",
        "Molecular Formula": "C<sub>5</sub>H<sub>5</sub>N<sub>3</sub>O<sub>4</sub>",
        "Molecular Mass": "171.11",
        "Melting Point": "270-280 °C (decomp)"
    }
}