{
    "cas_no": "7223-38-3",
    "key_name": "<em>N</em>,<em>N</em>-Dimethylpropargylamine",
    "cn_name": "1-二甲基氨基-2-丙炔;",
    "alternate_name": "2-Propyn-1-amine, <em>N</em>,<em>N</em>-dimethyl-;2-Propynylamine, <em>N</em>,<em>N</em>-dimethyl-;<em>N</em>,<em>N</em>-Dimethyl-2-propyn-1-amine;3-(Dimethylamino)-1-propyne;<em>N</em>,<em>N</em>-Dimethylpropargylamine;<em>N</em>,<em>N</em>-Dimethyl-2-propynylamine;3-(Dimethylamino)propyne;3-(<em>N</em>,<em>N</em>-Dimethylamino)propyne;Propargyldimethylamine;3-(<em>N</em>,<em>N</em>-Dimethylamino)-1-propyne;1-Dimethylaminoprop-2-yne;<em>N</em>,<em>N</em>-Dimethyl-2-propynamine;<em>N</em>,<em>N</em>-Dimethyl-<em>N</em>-(2-propynyl)amine;<em>N</em>-Propargyldimethylamine;Dimethyl(2-propyn-1-yl)amine",
    "duplicated_cas_no": "",
    "SMILES": "C(N(C)C)C#C",
    "meta_data": {
        "InChI": "InChI=1S/C5H9N/c1-4-5-6(2)3/h1H,5H2,2-3H3",
        "InChIKey": null,
        "Canonical SMILES": "C#CCN(C)C",
        "Molecular Formula": "C<sub>5</sub>H<sub>9</sub>N",
        "Molecular Mass": "83.13",
        "Boiling Point": "82 °C",
        "Density": "0.7792 g/cm³ @ Temp: 420 °C"
    }
}