{
    "cas_no": "513-78-0",
    "key_name": "Cadmium carbonate (CdCO<sub>3</sub>)",
    "cn_name": null,
    "alternate_name": "Carbonic acid, cadmium salt (1:1);Cadmium carbonate;Carbonic acid, cadmium salt;Chemcarb (CdCO<sub>3</sub>);Cadmium carbonate (CdCO<sub>3</sub>);Cadmium monocarbonate;Supermikrokalcit;Mikrokalcit;Kalcit",
    "duplicated_cas_no": "",
    "SMILES": "C(=O)(O)O.[Cd]",
    "meta_data": {
        "InChI": "InChI=1S/CH2O3.Cd/c2-1(3)4;/h(H2,2,3,4);",
        "InChIKey": null,
        "Canonical SMILES": "[Cd].O=C(O)O",
        "Molecular Formula": "CH<sub>2</sub>O<sub>3</sub>.Cd",
        "Molecular Mass": "",
        "Melting Point": "375 °C (decomp)",
        "Density": "4.26 g/cm³"
    }
}