{
    "cas_no": "1450-85-7",
    "key_name": "2-Mercaptopyrimidine",
    "cn_name": "2-巯基哌啶;",
    "alternate_name": "2(1<em>H</em>)-Pyrimidinethione;2-Pyrimidinethiol;2-Mercaptopyrimidine;2-Thiopyrimidine;2-Pyrimidinethione;1<em>H</em>-Pyrimidine-2-thione;2-Sulfanylpyrimidine;NSC 193522;NSC 321197;NSC 321198;NSC 48073;1,2-Dihydropyrimidine-2-thione",
    "duplicated_cas_no": "107646-94-6;19351-11-2;847778-89-6",
    "SMILES": "S=C1NC=CC=N1",
    "meta_data": {
        "InChI": "InChI=1S/C4H4N2S/c7-4-5-2-1-3-6-4/h1-3H,(H,5,6,7)",
        "InChIKey": null,
        "Canonical SMILES": "S=C1N=CC=CN1",
        "Molecular Formula": "C<sub>4</sub>H<sub>4</sub>N<sub>2</sub>S",
        "Molecular Mass": "112.15",
        "Melting Point": "230 °C (decomp)"
    }
}