{
    "cas_no": "65277-42-1",
    "key_name": "Ketoconazole",
    "cn_name": "酮康唑;顺-1-乙酰基-4-[4-[[2-(2,4-二氯苯基)-2-(1H-咪唑-1-基甲基)-1,3-二氧戊环-4-基]甲氧基]苯基]哌嗪;",
    "alternate_name": "Ethanone, 1-[4-[4-[[(2<em>R</em>,4<em>S</em>)-2-(2,4-dichlorophenyl)-2-(1<em>H</em>-imidazol-1-ylmethyl)-1,3-dioxolan-4-yl]methoxy]phenyl]-1-piperazinyl]-, <em>rel</em>-;Piperazine, 1-acetyl-4-[4-[[2-(2,4-dichlorophenyl)-2-(1<em>H</em>-imidazol-1-ylmethyl)-1,3-dioxolan-4-yl]methoxy]phenyl]-, <em>cis</em>-;Piperazine, 1-acetyl-4-[4-[[(2<em>R</em>,4<em>S</em>)-2-(2,4-dichlorophenyl)-2-(1<em>H</em>-imidazol-1-ylmethyl)-1,3-dioxolan-4-yl]methoxy]phenyl]-, <em>rel</em>-;<em>rel</em>-1-[4-[4-[[(2<em>R</em>,4<em>S</em>)-2-(2,4-Dichlorophenyl)-2-(1<em>H</em>-imidazol-1-ylmethyl)-1,3-dioxolan-4-yl]methoxy]phenyl]-1-piperazinyl]ethanone;Ketoconazole;R 41400;Nizoral;(±)-Ketoconazole;Fungoral;Nizral;Orifungal M;Ketoderm;Panfungol;Ketoisdin;Fungarest;Brizoral;Onofin K;Ketozoral;Phytorol;Tocon;Nizaral;Micosin;MeSH ID: D007654;Terzolin",
    "duplicated_cas_no": "72093-26-6",
    "SMILES": "C([C@]1(O[C@@H](COC2=CC=C(C=C2)N3CCN(C(C)=O)CC3)CO1)C4=C(Cl)C=C(Cl)C=C4)N5C=CN=C5",
    "meta_data": {
        "InChI": "InChI=1/C26H28Cl2N4O4/c1-19(33)31-10-12-32(13-11-31)21-3-5-22(6-4-21)34-15-23-16-35-26(36-23,17-30-9-8-29-18-30)24-7-2-20(27)14-25(24)28/h2-9,14,18,23H,10-13,15-17H2,1H3/t23-,26-/s2",
        "InChIKey": null,
        "Canonical SMILES": "O=C(N1CCN(C2=CC=C(OCC3OC(OC3)(C4=CC=C(Cl)C=C4Cl)CN5C=NC=C5)C=C2)CC1)C",
        "Molecular Formula": "C<sub>26</sub>H<sub>28</sub>Cl<sub>2</sub>N<sub>4</sub>O<sub>4</sub>",
        "Molecular Mass": "531.43",
        "Melting Point": "146 °C",
        "Density": "1.30 g/cm³ (solid)"
    }
}