{
    "cas_no": "83-46-5",
    "key_name": "(-)-β-Sitosterol",
    "cn_name": "beta-谷甾醇;植物甾醇;",
    "alternate_name": "Stigmast-5-en-3-ol, (3β)-;Stigmast-5-en-3β-ol;Nimbosterol;(3β)-Stigmast-5-en-3-ol;Cupreol;α-Dihydrofucosterol;22,23-Dihydrostigmasterol;Quebrachol;Rhamnol;β-Sitosterol;Stigmasterol, 22,23-dihydro-;Angelicin (steroid);Cinchol;SKF 14463;Sitosterol;Angelicin;β-Sitosterin;24α-Ethylcholesterol;Δ<sup>5</sup>-Stigmasten-3β-ol;(24<em>R</em>)-Ethylcholest-5-en-3β-ol;Azuprostat;Sobatum;(-)-β-Sitosterol;(24<em>R</em>)-Stigmast-5-en-3β-ol;Rhammol;Sito-Lande;Harzol;α-Phytosterol;Prostasal;NSC 18173;NSC 49083;NSC 8096;Betaprost;Inmunicin MAYMO",
    "duplicated_cas_no": "8003-23-4;15764-35-9;76772-70-8;182512-23-8;2504119-39-3",
    "SMILES": "C[C@@]12[C@]([C@]3([C@@]([C@]4(C)C(=CC3)C[C@@H](O)CC4)(CC1)[H])[H])(CC[C@@]2([C@@H](CC[C@H](C(C)C)CC)C)[H])[H]",
    "meta_data": {
        "InChI": "InChI=1S/C29H50O/c1-7-21(19(2)3)9-8-20(4)25-12-13-26-24-11-10-22-18-23(30)14-16-28(22,5)27(24)15-17-29(25,26)6/h10,19-21,23-27,30H,7-9,11-18H2,1-6H3/t20-,21-,23+,24+,25-,26+,27+,28+,29-/m1/s1",
        "InChIKey": null,
        "Canonical SMILES": "OC1CC2=CCC3C(CCC4(C)C(CCC34)C(C)CCC(CC)C(C)C)C2(C)CC1",
        "Molecular Formula": "C<sub>29</sub>H<sub>50</sub>O",
        "Molecular Mass": "414.71",
        "Melting Point": "140 °C",
        "Density": "0.9417 g/cm³ @ Temp: 25 °C"
    }
}