{
    "cas_no": "7152-42-3",
    "key_name": "10-Phenylphenothiazine",
    "cn_name": null,
    "alternate_name": "10<em>H</em>-Phenothiazine, 10-phenyl-;Phenothiazine, 10-phenyl-;10-Phenyl-10<em>H</em>-phenothiazine;10-Phenylphenothiazine;<em>N</em>-Phenylphenothiazine;NSC 23181",
    "duplicated_cas_no": "",
    "SMILES": "N1(C=2C(SC=3C1=CC=CC3)=CC=CC2)C4=CC=CC=C4",
    "meta_data": {
        "InChI": "InChI=1S/C18H13NS/c1-2-8-14(9-3-1)19-15-10-4-6-12-17(15)20-18-13-7-5-11-16(18)19/h1-13H",
        "InChIKey": null,
        "Canonical SMILES": "S1C=2C=CC=CC2N(C=3C=CC=CC3)C=4C=CC=CC14",
        "Molecular Formula": "C<sub>18</sub>H<sub>13</sub>NS",
        "Molecular Mass": "275.37",
        "Melting Point": "94 °C"
    }
}