{
    "cas_no": "728-81-4",
    "key_name": "3-(Trifluoromethyl)benzophenone",
    "cn_name": "3-(三氟甲基)苯甲酮;3- (三氟甲基) 二苯酮;3-(三氟甲基)苯甲酮;",
    "alternate_name": "Methanone, phenyl[3-(trifluoromethyl)phenyl]-;Benzophenone, 3-(trifluoromethyl)-;Phenyl[3-(trifluoromethyl)phenyl]methanone;3-(Trifluoromethyl)benzophenone;<em>m</em>-(Trifluoromethyl)benzophenone;Phenyl(3-(trifluoromethyl)phenyl)methanone",
    "duplicated_cas_no": "",
    "SMILES": "C(=O)(C1=CC(C(F)(F)F)=CC=C1)C2=CC=CC=C2",
    "meta_data": {
        "InChI": "InChI=1S/C14H9F3O/c15-14(16,17)12-8-4-7-11(9-12)13(18)10-5-2-1-3-6-10/h1-9H",
        "InChIKey": null,
        "Canonical SMILES": "O=C(C=1C=CC=CC1)C2=CC=CC(=C2)C(F)(F)F",
        "Molecular Formula": "C<sub>14</sub>H<sub>9</sub>F<sub>3</sub>O",
        "Molecular Mass": "250.22",
        "Boiling Point": "122 °C",
        "Melting Point": "52.5 °C"
    }
}