{
    "cas_no": "90390-27-5",
    "key_name": "3,5-Difluorobenzylamine",
    "cn_name": null,
    "alternate_name": "Benzenemethanamine, 3,5-difluoro-;3,5-Difluorobenzenemethanamine;3,5-Difluorobenzylamine;[(3,5-Difluorophenyl)methyl]amine;(3,5-Difluorophenyl)methanamine;1-(3,5-Difluorophenyl)methanamine",
    "duplicated_cas_no": "",
    "SMILES": "C(N)C1=CC(F)=CC(F)=C1",
    "meta_data": {
        "InChI": "InChI=1S/C7H7F2N/c8-6-1-5(4-10)2-7(9)3-6/h1-3H,4,10H2",
        "InChIKey": null,
        "Canonical SMILES": "FC=1C=C(F)C=C(C1)CN",
        "Molecular Formula": "C<sub>7</sub>H<sub>7</sub>F<sub>2</sub>N",
        "Molecular Mass": "143.13",
        "Melting Point": "261-262 °C"
    }
}