{
    "cas_no": "2444-68-0",
    "key_name": "9-Vinylanthracene",
    "cn_name": "9-乙烯基蒽;",
    "alternate_name": "Anthracene, 9-ethenyl-;Anthracene, 9-vinyl-;9-Ethenylanthracene;9-Vinylanthracene;NSC 91571",
    "duplicated_cas_no": "",
    "SMILES": "C(=C)C=1C2=C(C=C3C1C=CC=C3)C=CC=C2",
    "meta_data": {
        "InChI": "InChI=1S/C16H12/c1-2-14-15-9-5-3-7-12(15)11-13-8-4-6-10-16(13)14/h2-11H,1H2",
        "InChIKey": null,
        "Canonical SMILES": "C=CC=1C=2C=CC=CC2C=C3C=CC=CC31",
        "Molecular Formula": "C<sub>16</sub>H<sub>12</sub>",
        "Molecular Mass": "204.27",
        "Boiling Point": "154 °C @ Press: 0.5 Torr",
        "Melting Point": "64.5-65.5 °C"
    }
}