{
    "cas_no": "2170-03-8",
    "key_name": "Itaconic anhydride",
    "cn_name": "衣康酸酐;2-亚甲基丁二酸酐;",
    "alternate_name": "2,5-Furandione, dihydro-3-methylene-;Itaconic anhydride;Succinic anhydride, methylene-;Dihydro-3-methylene-2,5-furandione;Methylenesuccinic anhydride;Itaconic acid anhydride;3-Methylenedihydrofuran-2,5-dione;NSC 43979;3-Methylidenedihydrofuran-2,5-dione;KD 13;3,4-Dihydro-3-methylene-2,5-Furandione;3-Methylideneoxolane-2,5-dione",
    "duplicated_cas_no": "141257-20-7;2055573-69-6",
    "SMILES": "C=C1C(=O)OC(=O)C1",
    "meta_data": {
        "InChI": "InChI=1S/C5H4O3/c1-3-2-4(6)8-5(3)7/h1-2H2",
        "InChIKey": null,
        "Canonical SMILES": "O=C1OC(=O)CC1=C",
        "Molecular Formula": "C<sub>5</sub>H<sub>4</sub>O<sub>3</sub>",
        "Molecular Mass": "112.08",
        "Boiling Point": "139-140 °C @ Press: 30 Torr",
        "Melting Point": "69 °C"
    }
}