{
    "cas_no": "13759-10-9",
    "key_name": "Silicon sulfide (SiS<sub>2</sub>)",
    "cn_name": "硫化硅(IV);硫化硅(IV);",
    "alternate_name": "Silicon sulfide (SiS<sub>2</sub>);Silicon disulfide",
    "duplicated_cas_no": "1315-00-0;2767139-89-7",
    "SMILES": "[Si](=S)=S",
    "meta_data": {
        "InChI": "InChI=1S/S2Si/c1-3-2",
        "InChIKey": null,
        "Canonical SMILES": "S=[Si]=S",
        "Molecular Formula": "S<sub>2</sub>Si",
        "Molecular Mass": "92.22",
        "Boiling Point": "1090 °C",
        "Density": "2.02 g/cm³"
    }
}