{
    "cas_no": "3724-19-4",
    "key_name": "3-Pyridinepropanoic acid",
    "cn_name": "3-(3-吡啶基)丙酸;",
    "alternate_name": "3-Pyridinepropanoic acid;3-Pyridinepropionic acid;3-(3-Pyridyl)propanoic acid;3-(3-Pyridyl)propionic acid;3-(3′-Pyridyl)propionic acid;3-(3-Pyridinyl)propanoic acid;NSC 89720;3-(Pyridin-3-yl)propanoic acid;3-(Pyridin-3-yl)propionic acid;3-Pyridylpropionic acid",
    "duplicated_cas_no": "",
    "SMILES": "C(CC(O)=O)C=1C=CC=NC1",
    "meta_data": {
        "InChI": "InChI=1S/C8H9NO2/c10-8(11)4-3-7-2-1-5-9-6-7/h1-2,5-6H,3-4H2,(H,10,11)",
        "InChIKey": null,
        "Canonical SMILES": "O=C(O)CCC=1C=NC=CC1",
        "Molecular Formula": "C<sub>8</sub>H<sub>9</sub>NO<sub>2</sub>",
        "Molecular Mass": "151.16",
        "Melting Point": "160-162 °C"
    }
}