{
    "cas_no": "5578-42-7",
    "key_name": "(Dichloromethylsilyl)cyclohexane",
    "cn_name": "甲基二氯环己基硅烷;",
    "alternate_name": "Cyclohexane, (dichloromethylsilyl)-;Silane, dichlorocyclohexylmethyl-;(Dichloromethylsilyl)cyclohexane;Methylcyclohexyldichlorosilane;Cyclohexylmethyldichlorosilane;Dichloro(cyclohexyl)(methyl)silane",
    "duplicated_cas_no": "",
    "SMILES": "[Si](C)(Cl)(Cl)C1CCCCC1",
    "meta_data": {
        "InChI": "InChI=1S/C7H14Cl2Si/c1-10(8,9)7-5-3-2-4-6-7/h7H,2-6H2,1H3",
        "InChIKey": null,
        "Canonical SMILES": "Cl[Si](Cl)(C)C1CCCCC1",
        "Molecular Formula": "C<sub>7</sub>H<sub>14</sub>Cl<sub>2</sub>Si",
        "Molecular Mass": "197.18",
        "Boiling Point": "83 °C @ Press: 15 Torr",
        "Density": "1.095 g/cm³"
    }
}