{
    "cas_no": "1810-72-6",
    "key_name": "2,6-Dichloroquinoline",
    "cn_name": "2,6-二氯喹啉;",
    "alternate_name": "Quinoline, 2,6-dichloro-;2,6-Dichloroquinoline",
    "duplicated_cas_no": "",
    "SMILES": "ClC1=CC2=C(N=C(Cl)C=C2)C=C1",
    "meta_data": {
        "InChI": "InChI=1S/C9H5Cl2N/c10-7-2-3-8-6(5-7)1-4-9(11)12-8/h1-5H",
        "InChIKey": null,
        "Canonical SMILES": "ClC=1N=C2C=CC(Cl)=CC2=CC1",
        "Molecular Formula": "C<sub>9</sub>H<sub>5</sub>Cl<sub>2</sub>N",
        "Molecular Mass": "198.05",
        "Melting Point": "162-163 °C"
    }
}