{
    "cas_no": "5832-01-9",
    "key_name": "2-Thiophenecarboxylic acid, 5-nitro-, methyl ester",
    "cn_name": "5-硝基-噻吩-2-甲酸甲酯;5-硝基-噻吩-2-甲酸甲酯;",
    "alternate_name": "2-Thiophenecarboxylic acid, 5-nitro-, methyl ester;Methyl 5-nitro-2-thiophenecarboxylate;5-Nitro-2-(methoxycarbonyl)thiophene;Methyl 5-nitro-2-thienylcarboxylate",
    "duplicated_cas_no": "",
    "SMILES": "C(OC)(=O)C=1SC(N(=O)=O)=CC1",
    "meta_data": {
        "InChI": "InChI=1S/C6H5NO4S/c1-11-6(8)4-2-3-5(12-4)7(9)10/h2-3H,1H3",
        "InChIKey": null,
        "Canonical SMILES": "O=C(OC)C=1SC(=CC1)N(=O)=O",
        "Molecular Formula": "C<sub>6</sub>H<sub>5</sub>NO<sub>4</sub>S",
        "Molecular Mass": "187.17",
        "Melting Point": "76 °C"
    }
}