{
    "cas_no": "7440-04-2",
    "key_name": "Osmium",
    "cn_name": "锇粉;锇粉;",
    "alternate_name": "Osmium;NSC 607770;NSC 607771;NSC 607772;MeSH ID: D009992",
    "duplicated_cas_no": "",
    "SMILES": "[Os]",
    "meta_data": {
        "InChI": "InChI=1S/Os",
        "InChIKey": null,
        "Canonical SMILES": "[Os]",
        "Molecular Formula": "Os",
        "Molecular Mass": "",
        "Melting Point": "3033 °C",
        "Density": "19.1 g/cm³ (liquid) @ Temp: 3033 °C"
    }
}