{
    "cas_no": "144026-79-9",
    "key_name": "Scandium triflate",
    "cn_name": "三氟甲烷磺酸钪;三氟甲基磺酸钪;三氟甲烷磺酸钪;三氟甲磺酸钪;",
    "alternate_name": "Methanesulfonic acid, 1,1,1-trifluoro-, scandium(3+) salt (3:1);Methanesulfonic acid, trifluoro-, scandium(3+) salt;Scandium(III) trifluoromethanesulfonate;Scandium triflate;Scandium tris(trifluoromethanesulfonate);Scandium trifluoromethanesulfonate;Scandium(3+) triflate;Trifluoromethanesulfonic acid scandium(3+) salt;Scandium(III) triflate;Scandium triflate Sc(OTf)<sub>3</sub>;Sc(otf)3",
    "duplicated_cas_no": "551942-89-3",
    "SMILES": "C(S(=O)(=O)O)(F)(F)F.[Sc]",
    "meta_data": {
        "InChI": "InChI=1S/CHF3O3S.Sc/c2-1(3,4)8(5,6)7;/h(H,5,6,7);",
        "InChIKey": null,
        "Canonical SMILES": "[Sc].O=S(=O)(O)C(F)(F)F",
        "Molecular Formula": "CHF<sub>3</sub>O<sub>3</sub>S.<sup>1</sup>/<sub>3</sub>Sc",
        "Molecular Mass": "",
        "Melting Point": "9 °C"
    }
}