{
    "cas_no": "168626-94-6",
    "key_name": "Conivaptan hydrochloride",
    "cn_name": null,
    "alternate_name": "[1,1′-Biphenyl]-2-carboxamide, <em>N</em>-[4-[(4,5-dihydro-2-methylimidazo[4,5-<em>d</em>][1]benzazepin-6(1<em>H</em>)-yl)carbonyl]phenyl]-, hydrochloride (1:1);[1,1′-Biphenyl]-2-carboxamide, <em>N</em>-[4-[(4,5-dihydro-2-methylimidazo[4,5-<em>d</em>][1]benzazepin-6(1<em>H</em>)-yl)carbonyl]phenyl]-, monohydrochloride;YM 087;Conivaptan hydrochloride;Vaprisol;conivaptan monohydrochloride",
    "duplicated_cas_no": "",
    "SMILES": "C(=O)(N1C=2C(C3=C(CC1)N=C(C)N3)=CC=CC2)C4=CC=C(NC(=O)C5=C(C=CC=C5)C6=CC=CC=C6)C=C4.Cl",
    "meta_data": {
        "InChI": "InChI=1S/C32H26N4O2.ClH/c1-21-33-28-19-20-36(29-14-8-7-13-27(29)30(28)34-21)32(38)23-15-17-24(18-16-23)35-31(37)26-12-6-5-11-25(26)22-9-3-2-4-10-22;/h2-18H,19-20H2,1H3,(H,33,34)(H,35,37);1H",
        "InChIKey": null,
        "Canonical SMILES": "Cl.O=C(NC1=CC=C(C=C1)C(=O)N2C=3C=CC=CC3C=4NC(=NC4CC2)C)C=5C=CC=CC5C=6C=CC=CC6",
        "Molecular Formula": "C<sub>32</sub>H<sub>26</sub>N<sub>4</sub>O<sub>2</sub>.ClH",
        "Molecular Mass": "",
        "Melting Point": "&gt;250 °C"
    }
}