{
    "cas_no": "93106-60-6",
    "key_name": "Enrofloxacin",
    "cn_name": "恩诺沙星;蒽诺沙星;1-环丙基-7-(4-乙基-1-哌嗪基)-6-氟-1,4-二氢-4-氧代-3-喹啉羧酸;",
    "alternate_name": "3-Quinolinecarboxylic acid, 1-cyclopropyl-7-(4-ethyl-1-piperazinyl)-6-fluoro-1,4-dihydro-4-oxo-;1-Cyclopropyl-7-(4-ethyl-1-piperazinyl)-6-fluoro-1,4-dihydro-4-oxo-3-quinolinecarboxylic acid;CFPQ;BAY-Vp 2674;Enrofloxacin;Baytril;<em>N</em>-Ethylciprofloxacin;PD 160788;<em>N</em>′-Ethylciprofloxacin;1-Cyclopropyl-6-fluoro-7-(4-ethyl-1-piperazinyl)-1,4-dihydro-4-oxo-3-quinolinecarboxylic acid;Enroxil;Enrogil;Enrocin;Biofloxavet;Alsir;Enrofan;Enrovet;Enrodac;Fortius;N-Ethyl ciprofloxacin;Enflocyna Sol;Bayrocin;1-Cyclopropyl-7-(4-ethyl-piperazin-1-yl)-6-fluoro-4-oxo-1,4-dihydro-quinoline-3-carboxylic acid;1-Cyclopropyl-7-(4-ethylpiperazin-1-yl)-6-fluoro-4-oxoquinoline-3-carboxylic acid;Enroflon",
    "duplicated_cas_no": "2684400-00-6",
    "SMILES": "O=C1C=2C(N(C=C1C(O)=O)C3CC3)=CC(=C(F)C2)N4CCN(CC)CC4",
    "meta_data": {
        "InChI": "InChI=1S/C19H22FN3O3/c1-2-21-5-7-22(8-6-21)17-10-16-13(9-15(17)20)18(24)14(19(25)26)11-23(16)12-3-4-12/h9-12H,2-8H2,1H3,(H,25,26)",
        "InChIKey": null,
        "Canonical SMILES": "O=C(O)C1=CN(C2=CC(=C(F)C=C2C1=O)N3CCN(CC)CC3)C4CC4",
        "Molecular Formula": "C<sub>19</sub>H<sub>22</sub>FN<sub>3</sub>O<sub>3</sub>",
        "Molecular Mass": "359.39",
        "Melting Point": "219-221 °C",
        "Density": "1.378 g/cm³"
    }
}