{
    "cas_no": "123312-89-0",
    "key_name": "Pymetrozine",
    "cn_name": null,
    "alternate_name": "1,2,4-Triazin-3(2<em>H</em>)-one, 4,5-dihydro-6-methyl-4-[(<em>E</em>)-(3-pyridinylmethylene)amino]-;1,2,4-Triazin-3(2<em>H</em>)-one, 4,5-dihydro-6-methyl-4-[(3-pyridinylmethylene)amino]-, (<em>E</em>)-;4,5-Dihydro-6-methyl-4-[(<em>E</em>)-(3-pyridinylmethylene)amino]-1,2,4-triazin-3(2<em>H</em>)-one;CGA 215944;Pymetrozine;Chess;Fulfill;Plenum;Endeavor;A 9364A",
    "duplicated_cas_no": "",
    "SMILES": "N(=C/C=1C=CC=NC1)\\N2C(=O)NN=C(C)C2",
    "meta_data": {
        "InChI": "InChI=1S/C10H11N5O/c1-8-7-15(10(16)14-13-8)12-6-9-3-2-4-11-5-9/h2-6H,7H2,1H3,(H,14,16)/b12-6+",
        "InChIKey": null,
        "Canonical SMILES": "O=C1NN=C(C)CN1N=CC=2C=NC=CC2",
        "Molecular Formula": "C<sub>10</sub>H<sub>11</sub>N<sub>5</sub>O",
        "Molecular Mass": "217.23",
        "Melting Point": "217 °C",
        "Density": "1.36 g/cm³ @ Temp: 20 °C"
    }
}