{
    "cas_no": "1888-89-7",
    "key_name": "1,2:5,6-Diepoxyhexane",
    "cn_name": "1,5-二环氧己烷;1,2,5,6-二环氧己烷;",
    "alternate_name": "Hexitol, 1,2:5,6-dianhydro-3,4-dideoxy-;Hexane, 1,2:5,6-diepoxy-;1,2:5,6-Dianhydro-3,4-dideoxyhexitol;1,5-Hexadiene diepoxide;1,2:5,6-Diepoxyhexane;NSC 47548;1,2-Di(oxiran-2-yl)ethane;2-[2-(Oxiran-2-yl)ethyl]oxirane",
    "duplicated_cas_no": "",
    "SMILES": "C(CC1CO1)C2CO2",
    "meta_data": {
        "InChI": "InChI=1S/C6H10O2/c1(5-3-7-5)2-6-4-8-6/h5-6H,1-4H2",
        "InChIKey": null,
        "Canonical SMILES": "O1CC1CCC2OC2",
        "Molecular Formula": "C<sub>6</sub>H<sub>10</sub>O<sub>2</sub>",
        "Molecular Mass": "114.14",
        "Boiling Point": "86-88 °C @ Press: 15 Torr"
    }
}