{
    "cas_no": "13530-65-9",
    "key_name": "Zinc chromate",
    "cn_name": "铬酸锌;",
    "alternate_name": "Chromic acid (H<sub>2</sub>CrO<sub>4</sub>), zinc salt (1:1);Zinc chromate(VI) (ZnCrO<sub>4</sub>);Zinc chromate;Zinc chromate (ZnCrO<sub>4</sub>);Chromium zinc oxide (ZnCrO<sub>4</sub>);Zinc chromium oxide (ZnCrO<sub>4</sub>);Buttercup yellow;Zinc chrome yellow;Zincro ZTO",
    "duplicated_cas_no": "1308-13-0;1328-67-2;14675-41-3",
    "SMILES": "[Cr](O)(O)(=O)=O.[Zn]",
    "meta_data": {
        "InChI": "InChI=1S/Cr.2H2O.2O.Zn/h;2*1H2;;;/q+2;;;;;/p-2",
        "InChIKey": null,
        "Canonical SMILES": "[Zn].O=[Cr](=O)(O)O",
        "Molecular Formula": "CrH<sub>2</sub>O<sub>4</sub>.Zn",
        "Molecular Mass": "",
        "Melting Point": "316 °C",
        "Density": "3.40 g/cm³"
    }
}