{
    "cas_no": "120157-98-4",
    "key_name": "1,1-Dimethylethyl <em>N</em>-acetylcarbamate",
    "cn_name": null,
    "alternate_name": "Carbamic acid, <em>N</em>-acetyl-, 1,1-dimethylethyl ester;Carbamic acid, acetyl-, 1,1-dimethylethyl ester;1,1-Dimethylethyl <em>N</em>-acetylcarbamate;<em>N</em>-(<em>tert</em>-Butoxycarbonyl)acetamide",
    "duplicated_cas_no": "",
    "SMILES": "O(C(C)(C)C)C(NC(C)=O)=O",
    "meta_data": {
        "InChI": "InChI=1S/C7H13NO3/c1-5(9)8-6(10)11-7(2,3)4/h1-4H3,(H,8,9,10)",
        "InChIKey": null,
        "Canonical SMILES": "O=C(OC(C)(C)C)NC(=O)C",
        "Molecular Formula": "C<sub>7</sub>H<sub>13</sub>NO<sub>3</sub>",
        "Molecular Mass": "159.18",
        "Melting Point": "77-78 °C"
    }
}