{
    "cas_no": "168555-66-6",
    "key_name": "Fosbretabulin disodium",
    "cn_name": "考布他丁A-4磷酸二钠盐;2-甲氧基-5-[(1Z)-2-(3,4,5-三甲氧基苯基)乙烯基]苯酚磷酸酯二钠盐;",
    "alternate_name": "Phenol, 2-methoxy-5-[(1<em>Z</em>)-2-(3,4,5-trimethoxyphenyl)ethenyl]-, 1-(dihydrogen phosphate), sodium salt (1:2);Phenol, 2-methoxy-5-[2-(3,4,5-trimethoxyphenyl)ethenyl]-, dihydrogen phosphate, disodium salt, (<em>Z</em>)-;Phenol, 2-methoxy-5-[(1<em>Z</em>)-2-(3,4,5-trimethoxyphenyl)ethenyl]-, dihydrogen phosphate, disodium salt;Combretastatin A4 disodium phosphate;Fosbretabulin disodium;Fosbretabulin disodium salt;CA 4DP;CA 4P;SML1131",
    "duplicated_cas_no": "229027-07-0",
    "SMILES": "O(P(=O)(O)O)C1=C(OC)C=CC(/C=C\\C2=CC(OC)=C(OC)C(OC)=C2)=C1.[Na]",
    "meta_data": {
        "InChI": "InChI=1S/C18H21O8P.2Na/c1-22-14-8-7-12(9-15(14)26-27(19,20)21)5-6-13-10-16(23-2)18(25-4)17(11-13)24-3;;/h5-11H,1-4H3,(H2,19,20,21);;/b6-5-;;",
        "InChIKey": null,
        "Canonical SMILES": "[Na].O=P(O)(O)OC1=CC(=CC=C1OC)C=CC2=CC(OC)=C(OC)C(OC)=C2",
        "Molecular Formula": "C<sub>18</sub>H<sub>21</sub>O<sub>8</sub>P.2Na",
        "Molecular Mass": "",
        "Melting Point": "238-242 °C (decomp)"
    }
}