{
    "cas_no": "351-28-0",
    "key_name": "<em>N</em>-(3-Fluorophenyl)acetamide",
    "cn_name": "3-氟乙酰苯胺;N-(3-氟苯基)乙酰胺;",
    "alternate_name": "Acetamide, <em>N</em>-(3-fluorophenyl)-;Acetanilide, 3′-fluoro-;<em>N</em>-(3-Fluorophenyl)acetamide;3′-Fluoroacetanilide;<em>m</em>-Fluoroacetanilide;<em>N</em>-Methylcarbonyl-3-fluoroaniline;<em>N</em>-Acetyl-3-fluoroaniline;NSC 10348",
    "duplicated_cas_no": "",
    "SMILES": "N(C(C)=O)C1=CC(F)=CC=C1",
    "meta_data": {
        "InChI": "InChI=1S/C8H8FNO/c1-6(11)10-8-4-2-3-7(9)5-8/h2-5H,1H3,(H,10,11)",
        "InChIKey": null,
        "Canonical SMILES": "O=C(NC=1C=CC=C(F)C1)C",
        "Molecular Formula": "C<sub>8</sub>H<sub>8</sub>FNO",
        "Molecular Mass": "153.15",
        "Melting Point": "83 °C"
    }
}