{
    "cas_no": "10075-66-8",
    "key_name": "1,8-Dimethoxynaphthalene",
    "cn_name": null,
    "alternate_name": "Naphthalene, 1,8-dimethoxy-;1,8-Dimethoxynaphthalene",
    "duplicated_cas_no": "",
    "SMILES": "O(C)C=1C2=C(C=CC=C2OC)C=CC1",
    "meta_data": {
        "InChI": "InChI=1S/C12H12O2/c1-13-10-7-3-5-9-6-4-8-11(14-2)12(9)10/h3-8H,1-2H3",
        "InChIKey": null,
        "Canonical SMILES": "O(C1=CC=CC=2C=CC=C(OC)C12)C",
        "Molecular Formula": "C<sub>12</sub>H<sub>12</sub>O<sub>2</sub>",
        "Molecular Mass": "188.22",
        "Melting Point": "160-161 °C"
    }
}