{
    "cas_no": "6487-99-6",
    "key_name": "2-(3-Methylphenoxy)ethanamine",
    "cn_name": null,
    "alternate_name": "Ethanamine, 2-(3-methylphenoxy)-;Ethylamine, 2-(<em>m</em>-tolyloxy)-;2-(3-Methylphenoxy)ethanamine;2-(3-Methylphenoxy)ethylamine;2-<em>m</em>-Tolyloxy-ethylamine;2-(3-Methylphenoxy)ethan-1-amine",
    "duplicated_cas_no": "",
    "SMILES": "O(CCN)C1=CC(C)=CC=C1",
    "meta_data": {
        "InChI": "InChI=1S/C9H13NO/c1-8-3-2-4-9(7-8)11-6-5-10/h2-4,7H,5-6,10H2,1H3",
        "InChIKey": null,
        "Canonical SMILES": "O(C1=CC=CC(=C1)C)CCN",
        "Molecular Formula": "C<sub>9</sub>H<sub>13</sub>NO",
        "Molecular Mass": "151.21",
        "Boiling Point": "139-142 °C @ Press: 13 Torr"
    }
}