{
    "cas_no": "7748-58-5",
    "key_name": "5-Bromo-6-nitro-1,3-benzodioxole",
    "cn_name": null,
    "alternate_name": "1,3-Benzodioxole, 5-bromo-6-nitro-;Benzene, 1-bromo-4,5-(methylenedioxy)-2-nitro-;5-Bromo-6-nitro-1,3-benzodioxole;2-Bromo-4,5-methylenedioxynitrobenzene;2-Bromo-3,4-methylenedioxynitrobenzene;4-Bromo-5-nitro-1,2-methylenedioxybenzene;6-Nitro-5-bromobenzodioxol",
    "duplicated_cas_no": "",
    "SMILES": "N(=O)(=O)C=1C=C2C(=CC1Br)OCO2",
    "meta_data": {
        "InChI": "InChI=1S/C7H4BrNO4/c8-4-1-6-7(13-3-12-6)2-5(4)9(10)11/h1-2H,3H2",
        "InChIKey": null,
        "Canonical SMILES": "O=N(=O)C=1C=C2OCOC2=CC1Br",
        "Molecular Formula": "C<sub>7</sub>H<sub>4</sub>BrNO<sub>4</sub>",
        "Molecular Mass": "246.01",
        "Melting Point": "89 °C"
    }
}