{
    "cas_no": "20348-16-7",
    "key_name": "2-Amino-6-methyl-3-pyridinol",
    "cn_name": null,
    "alternate_name": "3-Pyridinol, 2-amino-6-methyl-;2-Amino-6-methyl-3-pyridinol;3-Hydroxy-6-methyl-2-pyridinamine;2-Amino-3-hydroxy-6-methylpyridine;(3-Hydroxy-6-methylpyridin-2-yl)amine;2-Amino-6-methylpyridinyl-3-ol",
    "duplicated_cas_no": "",
    "SMILES": "NC1=C(O)C=CC(C)=N1",
    "meta_data": {
        "InChI": "InChI=1S/C6H8N2O/c1-4-2-3-5(9)6(7)8-4/h2-3,9H,1H3,(H2,7,8)",
        "InChIKey": null,
        "Canonical SMILES": "OC=1C=CC(=NC1N)C",
        "Molecular Formula": "C<sub>6</sub>H<sub>8</sub>N<sub>2</sub>O",
        "Molecular Mass": "124.14",
        "Melting Point": "153-154.5 °C"
    }
}