{
    "cas_no": "811-49-4",
    "key_name": "Ethyllithium",
    "cn_name": "乙基锂;",
    "alternate_name": "Lithium, ethyl-;Ethyllithium",
    "duplicated_cas_no": "12545-33-4;58486-31-0;61288-86-6",
    "SMILES": "C(C)[Li]",
    "meta_data": {
        "InChI": "InChI=1S/C2H5.Li/c1-2;/h1H2,2H3;",
        "InChIKey": null,
        "Canonical SMILES": "[Li]CC",
        "Molecular Formula": "C<sub>2</sub>H<sub>5</sub>Li",
        "Molecular Mass": "",
        "Melting Point": "95 °C",
        "Density": "0.883 g/cm³ @ Temp: 13 °C"
    }
}