{
    "cas_no": "673-84-7",
    "key_name": "<em>allo</em>-Ocimene",
    "cn_name": "2,6-二甲基-2,4,6-辛三烯;",
    "alternate_name": "2,4,6-Octatriene, 2,6-dimethyl-;Alloocimene;2,6-Dimethyl-2,4,6-octatriene;<em>allo</em>-Ocimene;NSC 406263;Allocymene",
    "duplicated_cas_no": "17627-39-3;17627-38-2;23487-64-1",
    "SMILES": "C(C=CC=C(C)C)(=CC)C",
    "meta_data": {
        "InChI": "InChI=1S/C10H16/c1-5-10(4)8-6-7-9(2)3/h5-8H,1-4H3",
        "InChIKey": null,
        "Canonical SMILES": "C(=CC(=CC)C)C=C(C)C",
        "Molecular Formula": "C<sub>10</sub>H<sub>16</sub>",
        "Molecular Mass": "136.23",
        "Boiling Point": "112-113 °C",
        "Density": "0.8085 g/cm³ @ Temp: 25 °C"
    }
}