{
    "cas_no": "452-72-2",
    "key_name": "4-Fluoro-2-methylphenol",
    "cn_name": "4-氟-2-甲基苯酚;",
    "alternate_name": "Phenol, 4-fluoro-2-methyl-;<em>o</em>-Cresol, 4-fluoro-;4-Fluoro-2-methylphenol;4-Fluoro-<em>o</em>-cresol;2-Methyl-4-fluorophenol;NSC 10340",
    "duplicated_cas_no": "",
    "SMILES": "CC1=C(O)C=CC(F)=C1",
    "meta_data": {
        "InChI": "InChI=1S/C7H7FO/c1-5-4-6(8)2-3-7(5)9/h2-4,9H,1H3",
        "InChIKey": null,
        "Canonical SMILES": "FC1=CC=C(O)C(=C1)C",
        "Molecular Formula": "C<sub>7</sub>H<sub>7</sub>FO",
        "Molecular Mass": "126.13",
        "Boiling Point": "83 °C @ Press: 9 Torr",
        "Melting Point": "33-34 °C"
    }
}