{
    "cas_no": "383-29-9",
    "key_name": "4,4′-Difluorodiphenyl sulfone",
    "cn_name": "4,4\"-二氟二苯砜;",
    "alternate_name": "Benzene, 1,1′-sulfonylbis[4-fluoro-;Sulfone, bis(<em>p</em>-fluorophenyl);1,1′-Sulfonylbis[4-fluorobenzene];4,4′-Difluorodiphenyl sulfone;Bis(<em>p</em>-fluorophenyl) sulfone;4-Fluorophenylsulfone;Bis(4-fluorophenyl)sulfone;NSC 87584;D 0537;NSC 683542;4,4′-Sulfonylbis(fluorobenzene);4,4′-Fluorodiphenyl sulfone;1-Fluoro-4-(4-fluorophenyl)sulfonylbenzene",
    "duplicated_cas_no": "2356275-28-8",
    "SMILES": "S(=O)(=O)(C1=CC=C(F)C=C1)C2=CC=C(F)C=C2",
    "meta_data": {
        "InChI": "InChI=1S/C12H8F2O2S/c13-9-1-5-11(6-2-9)17(15,16)12-7-3-10(14)4-8-12/h1-8H",
        "InChIKey": null,
        "Canonical SMILES": "O=S(=O)(C1=CC=C(F)C=C1)C2=CC=C(F)C=C2",
        "Molecular Formula": "C<sub>12</sub>H<sub>8</sub>F<sub>2</sub>O<sub>2</sub>S",
        "Molecular Mass": "254.25",
        "Melting Point": "97-98 °C"
    }
}