{
    "cas_no": "2832-10-2",
    "key_name": "Hexanoic acid, 4-acetyl-5-oxo-, ethyl ester",
    "cn_name": "4-乙酰基-5-氧己酸乙酯;",
    "alternate_name": "Hexanoic acid, 4-acetyl-5-oxo-, ethyl ester;Ethyl 4-acetyl-5-oxohexanoate",
    "duplicated_cas_no": "",
    "SMILES": "C(CCC(OCC)=O)(C(C)=O)C(C)=O",
    "meta_data": {
        "InChI": "InChI=1S/C10H16O4/c1-4-14-10(13)6-5-9(7(2)11)8(3)12/h9H,4-6H2,1-3H3",
        "InChIKey": null,
        "Canonical SMILES": "O=C(OCC)CCC(C(=O)C)C(=O)C",
        "Molecular Formula": "C<sub>10</sub>H<sub>16</sub>O<sub>4</sub>",
        "Molecular Mass": "200.23",
        "Boiling Point": "182 °C @ Press: 48 Torr",
        "Density": "1.0668 g/cm³ @ Temp: 16 °C"
    }
}