{
    "cas_no": "16331-46-7",
    "key_name": "4-Ethoxybenzoyl chloride",
    "cn_name": "4-乙氧基苯甲酰氯;对乙氧基苯甲酰氯;",
    "alternate_name": "Benzoyl chloride, 4-ethoxy-;Benzoyl chloride, <em>p</em>-ethoxy-;4-Ethoxybenzoyl chloride;<em>m</em>-Ethoxybenzoyl chloride;<em>p</em>-Ethoxybenzoyl chloride;4-Ethoxybenzoic acid chloride",
    "duplicated_cas_no": "",
    "SMILES": "C(Cl)(=O)C1=CC=C(OCC)C=C1",
    "meta_data": {
        "InChI": "InChI=1S/C9H9ClO2/c1-2-12-8-5-3-7(4-6-8)9(10)11/h3-6H,2H2,1H3",
        "InChIKey": null,
        "Canonical SMILES": "O=C(Cl)C1=CC=C(OCC)C=C1",
        "Molecular Formula": "C<sub>9</sub>H<sub>9</sub>ClO<sub>2</sub>",
        "Molecular Mass": "184.62",
        "Boiling Point": "130-139 °C @ Press: 16 Torr"
    }
}