{
    "cas_no": "349-56-4",
    "key_name": "3-Methoxy-5-(trifluoromethyl)phenol",
    "cn_name": null,
    "alternate_name": "Phenol, 3-methoxy-5-(trifluoromethyl)-;<em>m</em>-Cresol, α,α,α-trifluoro-5-methoxy-;3-Methoxy-5-(trifluoromethyl)phenol",
    "duplicated_cas_no": "",
    "SMILES": "C(F)(F)(F)C1=CC(OC)=CC(O)=C1",
    "meta_data": {
        "InChI": "InChI=1S/C8H7F3O2/c1-13-7-3-5(8(9,10)11)2-6(12)4-7/h2-4,12H,1H3",
        "InChIKey": null,
        "Canonical SMILES": "FC(F)(F)C=1C=C(O)C=C(OC)C1",
        "Molecular Formula": "C<sub>8</sub>H<sub>7</sub>F<sub>3</sub>O<sub>2</sub>",
        "Molecular Mass": "192.14",
        "Boiling Point": "100 °C @ Press: 14 Torr",
        "Melting Point": "75 °C"
    }
}