{
    "cas_no": "19492-03-6",
    "key_name": "8-Hydroxy-7-methoxy-2<em>H</em>-1-benzopyran-2-one",
    "cn_name": null,
    "alternate_name": "2<em>H</em>-1-Benzopyran-2-one, 8-hydroxy-7-methoxy-;Coumarin, 8-hydroxy-7-methoxy-;Herniarin, 8-hydroxy-;8-Hydroxy-7-methoxy-2<em>H</em>-1-benzopyran-2-one;Daphnetin 7-methyl ether;8-Hydroxy-7-methoxycoumarin;7-Methoxy-8-hydroxycoumarin",
    "duplicated_cas_no": "",
    "SMILES": "OC1=C2C(=CC=C1OC)C=CC(=O)O2",
    "meta_data": {
        "InChI": "InChI=1S/C10H8O4/c1-13-7-4-2-6-3-5-8(11)14-10(6)9(7)12/h2-5,12H,1H3",
        "InChIKey": null,
        "Canonical SMILES": "O=C1OC=2C(O)=C(OC)C=CC2C=C1",
        "Molecular Formula": "C<sub>10</sub>H<sub>8</sub>O<sub>4</sub>",
        "Molecular Mass": "192.17",
        "Melting Point": "169-170 °C"
    }
}