{
    "cas_no": "3236-63-3",
    "key_name": "2,2′-Methylenebis(4-methylphenol)",
    "cn_name": null,
    "alternate_name": "Phenol, 2,2′-methylenebis[4-methyl-;<em>p</em>-Cresol, 2,2′-methylenedi-;2,2′-Methylenebis[4-methylphenol];2,2′-Dihydroxy-5,5′-dimethyldiphenylmethane;2,2′-Methylenedi-<em>p</em>-cresol;2,2′-Methylenebis(4-methylphenol);4,4′-Dimethyl-2,2′-methylenediphenol;Bis(2-hydroxy-5-methylphenyl)methane;M 1134;2-(2-Hydroxy-5-methylbenzyl)-4-methylphenol;Bis(4-methylphenol)-2-Methylene;2-[(2-Hydroxy-5-methylphenyl)methyl]-4-methylphenol",
    "duplicated_cas_no": "",
    "SMILES": "C(C1=C(O)C=CC(C)=C1)C2=C(O)C=CC(C)=C2",
    "meta_data": {
        "InChI": "InChI=1S/C15H16O2/c1-10-3-5-14(16)12(7-10)9-13-8-11(2)4-6-15(13)17/h3-8,16-17H,9H2,1-2H3",
        "InChIKey": null,
        "Canonical SMILES": "OC1=CC=C(C=C1CC2=CC(=CC=C2O)C)C",
        "Molecular Formula": "C<sub>15</sub>H<sub>16</sub>O<sub>2</sub>",
        "Molecular Mass": "228.29",
        "Melting Point": "124 °C"
    }
}