{
    "cas_no": "18039-42-4",
    "key_name": "5-Phenyltetrazole",
    "cn_name": "5-苯基四氮唑;",
    "alternate_name": "2<em>H</em>-Tetrazole, 5-phenyl-;1<em>H</em>-Tetrazole, 5-phenyl-;Tetrazole, 5-phenyl-;5-Phenyl-2<em>H</em>-tetrazole;5-Phenyltetrazole;MA 1623;5-Phenyl-1<em>H</em>-tetrazole;Kempore 50XPT;Expandex OX 5PT;Expandex 5PT;5-Phenyl-1,2,3,4-tetrazole;Phenyltetrazole;Unifoam HB 1;Unicell 5PT;NSC 11138;Celltetra BHT-P 5T;Celltetra P 5T;5-Phenyl-1,2,3,4-tetraazole",
    "duplicated_cas_no": "3999-10-8;25378-28-3;31422-49-8;221658-40-8;133585-63-4",
    "SMILES": "C=1(NN=NN1)C2=CC=CC=C2",
    "meta_data": {
        "InChI": "InChI=1S/C7H6N4/c1-2-4-6(5-3-1)7-8-10-11-9-7/h1-5H,(H,8,9,10,11)",
        "InChIKey": null,
        "Canonical SMILES": "N1=NNC(=N1)C=2C=CC=CC2",
        "Molecular Formula": "C<sub>7</sub>H<sub>6</sub>N<sub>4</sub>",
        "Molecular Mass": "146.15",
        "Boiling Point": "40-60 °C",
        "Melting Point": "215 °C"
    }
}