{
    "cas_no": "2217-79-0",
    "key_name": "Diphenyliodonium iodide",
    "cn_name": "碘化二苯基碘;",
    "alternate_name": "Iodonium, diphenyl-, iodide (1:1);Iodonium, diphenyl-, iodide;Diphenyliodonium iodide;NSC 172526",
    "duplicated_cas_no": "17267-16-2",
    "SMILES": "[I+](C1=CC=CC=C1)C2=CC=CC=C2.[I-]",
    "meta_data": {
        "InChI": "InChI=1S/C12H10I.HI/c1-3-7-11(8-4-1)13-12-9-5-2-6-10-12;/h1-10H;1H/q+1;/p-1",
        "InChIKey": null,
        "Canonical SMILES": "[I-].[I+](C=1C=CC=CC1)C=2C=CC=CC2",
        "Molecular Formula": "C<sub>12</sub>H<sub>10</sub>I.I",
        "Molecular Mass": "",
        "Melting Point": "162 °C"
    }
}