{
    "cas_no": "141-10-6",
    "key_name": "Pseudoionone",
    "cn_name": null,
    "alternate_name": "3,5,9-Undecatrien-2-one, 6,10-dimethyl-;Pseudoionone;6,10-Dimethyl-3,5,9-undecatrien-2-one;Citrylideneacetone;2,6-Dimethylhendeca-2,6,8-trien-10-one;ψ-Ionone;2,6-Dimethyl-2,6,8-undecatrien-10-one;2-Pseudoionone;2-Pseudojonon;φ-Ionone",
    "duplicated_cas_no": "",
    "SMILES": "C(CCC=C(C)C)(=CC=CC(C)=O)C",
    "meta_data": {
        "InChI": "InChI=1S/C13H20O/c1-11(2)7-5-8-12(3)9-6-10-13(4)14/h6-7,9-10H,5,8H2,1-4H3",
        "InChIKey": null,
        "Canonical SMILES": "O=C(C=CC=C(C)CCC=C(C)C)C",
        "Molecular Formula": "C<sub>13</sub>H<sub>20</sub>O",
        "Molecular Mass": "192.30",
        "Boiling Point": "144 °C",
        "Melting Point": "&lt;25 °C",
        "Density": "0.9003 g/cm³ @ Temp: 23 °C"
    }
}