{
    "cas_no": "545-06-2",
    "key_name": "Trichloroacetonitrile",
    "cn_name": "三氯乙腈;",
    "alternate_name": "Acetonitrile, 2,2,2-trichloro-;Acetonitrile, trichloro-;2,2,2-Trichloroacetonitrile;Trichloroacetonitrile;Trichloromethyl cyanide;Tritox;Cyanotrichloromethane;Trichlorocyanomethane;NSC 66405;Cl<sub>3</sub>CCN",
    "duplicated_cas_no": "",
    "SMILES": "C(C#N)(Cl)(Cl)Cl",
    "meta_data": {
        "InChI": "InChI=1S/C2Cl3N/c3-2(4,5)1-6",
        "InChIKey": null,
        "Canonical SMILES": "N#CC(Cl)(Cl)Cl",
        "Molecular Formula": "C<sub>2</sub>Cl<sub>3</sub>N",
        "Molecular Mass": "144.39",
        "Boiling Point": "85.7 °C",
        "Melting Point": "-42 °C",
        "Density": "1.44 g/cm³ @ Temp: 25 °C"
    }
}