{
    "cas_no": "7756-87-8",
    "key_name": "1,3-Dichloro-1,1,3,3-tetraphenyldisiloxane",
    "cn_name": "1,3-二氯四苯基二硅氧烷;1,3-二氯四苯基二硅氧烷;",
    "alternate_name": "Disiloxane, 1,3-dichloro-1,1,3,3-tetraphenyl-;1,3-Dichloro-1,1,3,3-tetraphenyldisiloxane;1,3-Dichlorotetraphenyldisiloxane",
    "duplicated_cas_no": "",
    "SMILES": "[Si](O[Si](Cl)(C1=CC=CC=C1)C2=CC=CC=C2)(Cl)(C3=CC=CC=C3)C4=CC=CC=C4",
    "meta_data": {
        "InChI": "InChI=1S/C24H20Cl2OSi2/c25-28(21-13-5-1-6-14-21,22-15-7-2-8-16-22)27-29(26,23-17-9-3-10-18-23)24-19-11-4-12-20-24/h1-20H",
        "InChIKey": null,
        "Canonical SMILES": "Cl[Si](O[Si](Cl)(C=1C=CC=CC1)C=2C=CC=CC2)(C=3C=CC=CC3)C=4C=CC=CC4",
        "Molecular Formula": "C<sub>24</sub>H<sub>20</sub>Cl<sub>2</sub>OSi<sub>2</sub>",
        "Molecular Mass": "451.49",
        "Boiling Point": "238-241 °C @ Press: 1 Torr",
        "Melting Point": "36-38 °C"
    }
}