{
    "cas_no": "50824-05-0",
    "key_name": "4-Trifluoromethoxybenzyl bromide",
    "cn_name": "4-三氟甲氧基溴苄;对三氟甲氧基溴苄;",
    "alternate_name": "Benzene, 1-(bromomethyl)-4-(trifluoromethoxy)-;1-(Bromomethyl)-4-(trifluoromethoxy)benzene;4-Trifluoromethoxybenzyl bromide;<em>p</em>-Trifluoromethoxybenzyl bromide;4-(Bromomethyl)phenyl trifluoromethyl ether;4-(Trifluoromethoxy)-1-(bromomethyl)-benzene;2-(Bromomethyl)-5-(trifluoromethoxy)benzene",
    "duplicated_cas_no": "",
    "SMILES": "O(C(F)(F)F)C1=CC=C(CBr)C=C1",
    "meta_data": {
        "InChI": "InChI=1S/C8H6BrF3O/c9-5-6-1-3-7(4-2-6)13-8(10,11)12/h1-4H,5H2",
        "InChIKey": null,
        "Canonical SMILES": "FC(F)(F)OC1=CC=C(C=C1)CBr",
        "Molecular Formula": "C<sub>8</sub>H<sub>6</sub>BrF<sub>3</sub>O",
        "Molecular Mass": "255.03",
        "Boiling Point": "78-79 °C @ Press: 9 Torr",
        "Melting Point": "23-24 °C"
    }
}