{
    "cas_no": "375-82-6",
    "key_name": "2,2,3,3,4,4,5,5,6,6,7,7,7-Tridecafluoro-1-heptanol",
    "cn_name": "1H,1H-全氟-1-庚醇;全氟-1-庚醇;",
    "alternate_name": "1-Heptanol, 2,2,3,3,4,4,5,5,6,6,7,7,7-tridecafluoro-;2,2,3,3,4,4,5,5,6,6,7,7,7-Tridecafluoro-1-heptanol;1<em>H</em>,1<em>H</em>-Perfluoroheptanol;α,α-Dihydroperfluoroheptanol;1,1-Dihydroperfluoroheptanol;Perfluorohexylmethanol;1<em>H</em>,1<em>H</em>-Perfluoro-1-heptanol;1<em>H</em>,1<em>H</em>-Tridecafluoroheptanol;1<em>H</em>,1<em>H</em>-Tridecafluoro-1-heptanol",
    "duplicated_cas_no": "",
    "SMILES": "C(C(C(C(F)(F)F)(F)F)(F)F)(C(C(CO)(F)F)(F)F)(F)F",
    "meta_data": {
        "InChI": "InChI=1S/C7H3F13O/c8-2(9,1-21)3(10,11)4(12,13)5(14,15)6(16,17)7(18,19)20/h21H,1H2",
        "InChIKey": null,
        "Canonical SMILES": "FC(F)(F)C(F)(F)C(F)(F)C(F)(F)C(F)(F)C(F)(F)CO",
        "Molecular Formula": "C<sub>7</sub>H<sub>3</sub>F<sub>13</sub>O",
        "Molecular Mass": "350.08",
        "Boiling Point": "146-147 °C"
    }
}