{
    "cas_no": "139-65-1",
    "key_name": "4,4′-Diaminodiphenyl sulfide",
    "cn_name": "4,4\"-二氨基二苯硫醚;",
    "alternate_name": "Benzenamine, 4,4′-thiobis-;Aniline, 4,4′-thiodi-;4,4′-Thiobis[benzenamine];Bis(4-aminophenyl) sulfide;<em>p</em>,<em>p</em>′-Diaminodiphenyl sulfide;4,4′-Diaminodiphenyl sulfide;Di(<em>p</em>-aminophenyl) sulfide;<em>p</em>,<em>p</em>-Thiodianiline;Thioaniline;Thiodi-<em>p</em>-phenylenediamine;4,4′-Thiodianiline;4,4′-Diaminophenyl sulfide;4,4′-Thiobis[aniline];4-(Aminophenylthio)phenylamine;NSC 6191;BAPS;4,4′-Diaminodiphenyl thioether;<em>p</em>-Aminodiphenyl sulfide;[4-[(4-Aminophenyl)thio]phenyl]amine",
    "duplicated_cas_no": "",
    "SMILES": "S(C1=CC=C(N)C=C1)C2=CC=C(N)C=C2",
    "meta_data": {
        "InChI": "InChI=1S/C12H12N2S/c13-9-1-5-11(6-2-9)15-12-7-3-10(14)4-8-12/h1-8H,13-14H2",
        "InChIKey": null,
        "Canonical SMILES": "S(C1=CC=C(N)C=C1)C2=CC=C(N)C=C2",
        "Molecular Formula": "C<sub>12</sub>H<sub>12</sub>N<sub>2</sub>S",
        "Molecular Mass": "216.30",
        "Boiling Point": "361 °C",
        "Melting Point": "108-109 °C"
    }
}