{
    "cas_no": "56767-76-1",
    "key_name": "Flurbiprofen sodium",
    "cn_name": null,
    "alternate_name": "[1,1′-Biphenyl]-4-acetic acid, 2-fluoro-α-methyl-, sodium salt (1:1);[1,1′-Biphenyl]-4-acetic acid, 2-fluoro-α-methyl-, sodium salt;Sodium flurbiprofen;Sodium 3-fluoro-4-phenylhydratropate;Flurbiprofen sodium salt;Flurbiprofen sodium;Ocufen;2-Fluoro-α-methyl-4-diphenylacetic acid sodium salt;2-(2-Fluorobiphenyl-4-yl)propionic acid sodium salt;Ocuflur",
    "duplicated_cas_no": "",
    "SMILES": "FC1=C(C=CC(C(C(O)=O)C)=C1)C2=CC=CC=C2.[Na]",
    "meta_data": {
        "InChI": "InChI=1S/C15H13FO2.Na/c1-10(15(17)18)12-7-8-13(14(16)9-12)11-5-3-2-4-6-11;/h2-10H,1H3,(H,17,18);",
        "InChIKey": null,
        "Canonical SMILES": "[Na].O=C(O)C(C=1C=CC(=C(F)C1)C=2C=CC=CC2)C",
        "Molecular Formula": "C<sub>15</sub>H<sub>13</sub>FO<sub>2</sub>.Na",
        "Molecular Mass": "",
        "Melting Point": "114-116 °C"
    }
}