{
    "cas_no": "6299-25-8",
    "key_name": "4,6-Dichloro-2-(methylthio)pyrimidine",
    "cn_name": "4,6-二氯-二甲硫基嘧啶;",
    "alternate_name": "Pyrimidine, 4,6-dichloro-2-(methylthio)-;4,6-Dichloro-2-(methylthio)pyrimidine;4,6-Dichloro-2-(methylmercapto)pyrimidine;2-Methylthio-4,6-dichloropyrimidine;4,6-Dichloro-2-(methylsulfanyl)pyrimidine;NSC 44560",
    "duplicated_cas_no": "",
    "SMILES": "S(C)C=1N=C(Cl)C=C(Cl)N1",
    "meta_data": {
        "InChI": "InChI=1S/C5H4Cl2N2S/c1-10-5-8-3(6)2-4(7)9-5/h2H,1H3",
        "InChIKey": null,
        "Canonical SMILES": "ClC=1N=C(N=C(Cl)C1)SC",
        "Molecular Formula": "C<sub>5</sub>H<sub>4</sub>Cl<sub>2</sub>N<sub>2</sub>S",
        "Molecular Mass": "195.07",
        "Melting Point": "39-40 °C"
    }
}