{
    "cas_no": "3296-50-2",
    "key_name": "<em>rel</em>-(3a<em>R</em>,7a<em>R</em>)-Octahydro-1<em>H</em>-indene",
    "cn_name": "反式-六氢茚满;反式-六氢茚满;",
    "alternate_name": "1<em>H</em>-Indene, octahydro-, (3a<em>R</em>,7a<em>R</em>)-<em>rel</em>-;Indan, hexahydro-, <em>trans</em>-;1<em>H</em>-Indene, octahydro-, <em>trans</em>-;<em>rel</em>-(3a<em>R</em>,7a<em>R</em>)-Octahydro-1<em>H</em>-indene;<em>trans</em>-Bicyclo[4.3.0]nonane;<em>trans</em>-Hexahydroindan;<em>trans</em>-Perhydroindene;<em>trans</em>-Hydrindan",
    "duplicated_cas_no": "38105-99-6",
    "SMILES": "[C@@]12([C@@](CCC1)(CCCC2)[H])[H]",
    "meta_data": {
        "InChI": "InChI=1/C9H16/c1-2-5-9-7-3-6-8(9)4-1/h8-9H,1-7H2/t8-,9-/s2",
        "InChIKey": null,
        "Canonical SMILES": "C1CCC2CCCC2C1",
        "Molecular Formula": "C<sub>9</sub>H<sub>16</sub>",
        "Molecular Mass": "124.22",
        "Boiling Point": "159 °C @ Press: 760 Torr",
        "Density": "0.8632 g/cm³ @ Temp: 20 °C"
    }
}