{
    "cas_no": "1629-60-3",
    "key_name": "1-Hexen-3-one",
    "cn_name": "1-己酮;1-己酮;",
    "alternate_name": "1-Hexen-3-one;Vinyl propyl ketone;Propyl vinyl ketone",
    "duplicated_cas_no": "",
    "SMILES": "C(CCC)(C=C)=O",
    "meta_data": {
        "InChI": "InChI=1S/C6H10O/c1-3-5-6(7)4-2/h4H,2-3,5H2,1H3",
        "InChIKey": null,
        "Canonical SMILES": "O=C(C=C)CCC",
        "Molecular Formula": "C<sub>6</sub>H<sub>10</sub>O",
        "Molecular Mass": "98.14",
        "Boiling Point": "24 °C @ Press: 10 Torr",
        "Density": "0.8518 g/cm³ @ Temp: 15 °C"
    }
}