{
    "cas_no": "59662-31-6",
    "key_name": "4-Hexyl-1,1′-biphenyl",
    "cn_name": "4-正己基联苯;4-己基联苯;",
    "alternate_name": "1,1′-Biphenyl, 4-hexyl-;Biphenyl, 4-hexyl-;4-Hexyl-1,1′-biphenyl;4-Hexylbiphenyl;1-Hexyl-4-phenylbenzene",
    "duplicated_cas_no": "",
    "SMILES": "C(CCCCC)C1=CC=C(C=C1)C2=CC=CC=C2",
    "meta_data": {
        "InChI": "InChI=1S/C18H22/c1-2-3-4-6-9-16-12-14-18(15-13-16)17-10-7-5-8-11-17/h5,7-8,10-15H,2-4,6,9H2,1H3",
        "InChIKey": null,
        "Canonical SMILES": "C=1C=CC(=CC1)C=2C=CC(=CC2)CCCCCC",
        "Molecular Formula": "C<sub>18</sub>H<sub>22</sub>",
        "Molecular Mass": "238.37",
        "Boiling Point": "175-176 °C @ Press: 3 Torr",
        "Melting Point": "25 °C",
        "Density": "1.0152 g/cm³ @ Temp: 20 °C"
    }
}