{
    "cas_no": "116-09-6",
    "key_name": "Hydroxyacetone",
    "cn_name": "羟基丙酮;丙酮醇;",
    "alternate_name": "2-Propanone, 1-hydroxy-;2-Propanone, hydroxy-;1-Hydroxy-2-propanone;Acetol;Acetone alcohol;Hydroxyacetone;Methanol, acetyl-;1-Hydroxyacetone;Hydroxymethyl methyl ketone;Acetylcarbinol;Hydroxypropanone;2-Oxopropanol;α-Hydroxyacetone;Acetylmethanol;Rongal 5242;NSC 102497;1-Hydroxy-2-acetone",
    "duplicated_cas_no": "",
    "SMILES": "C(CO)(C)=O",
    "meta_data": {
        "InChI": "InChI=1S/C3H6O2/c1-3(5)2-4/h4H,2H2,1H3",
        "InChIKey": null,
        "Canonical SMILES": "O=C(C)CO",
        "Molecular Formula": "C<sub>3</sub>H<sub>6</sub>O<sub>2</sub>",
        "Molecular Mass": "74.08",
        "Boiling Point": "145.5 °C",
        "Melting Point": "-17 °C",
        "Density": "1.059 g/cm³ @ Temp: 25 °C"
    }
}