{
    "cas_no": "492-70-6",
    "key_name": "Hydrobenzoin",
    "cn_name": null,
    "alternate_name": "1,2-Ethanediol, 1,2-diphenyl-;Hydrobenzoin;1,2-Diphenyl-1,2-ethanediol;α,α′-Bi[benzyl alcohol];1,2-Diphenylethylene glycol;Dihydrobenzoin;1,2-Dihydroxy-1,2-diphenylethane;NSC 10752;NSC 14970;(<em>RS</em>,<em>RS</em>)-1,2-Diphenyl-1,2-ethanediol;(±)-Dihydrobenzoin",
    "duplicated_cas_no": "",
    "SMILES": "C(C(O)C1=CC=CC=C1)(O)C2=CC=CC=C2",
    "meta_data": {
        "InChI": "InChI=1S/C14H14O2/c15-13(11-7-3-1-4-8-11)14(16)12-9-5-2-6-10-12/h1-10,13-16H",
        "InChIKey": null,
        "Canonical SMILES": "OC(C=1C=CC=CC1)C(O)C=2C=CC=CC2",
        "Molecular Formula": "C<sub>14</sub>H<sub>14</sub>O<sub>2</sub>",
        "Molecular Mass": "214.26",
        "Melting Point": "139 °C"
    }
}