{
    "cas_no": "5785-66-0",
    "key_name": "α-Cyclopropyl-α-phenylbenzenemethanol",
    "cn_name": "环丙基二苯甲醇;",
    "alternate_name": "Benzenemethanol, α-cyclopropyl-α-phenyl-;Methanol, cyclopropyldiphenyl-;α-Cyclopropyl-α-phenylbenzenemethanol;Cyclopropyldiphenylmethanol;Cyclopropyldiphenylcarbinol;NSC 78478",
    "duplicated_cas_no": "",
    "SMILES": "C(O)(C1CC1)(C2=CC=CC=C2)C3=CC=CC=C3",
    "meta_data": {
        "InChI": "InChI=1S/C16H16O/c17-16(15-11-12-15,13-7-3-1-4-8-13)14-9-5-2-6-10-14/h1-10,15,17H,11-12H2",
        "InChIKey": null,
        "Canonical SMILES": "OC(C=1C=CC=CC1)(C=2C=CC=CC2)C3CC3",
        "Molecular Formula": "C<sub>16</sub>H<sub>16</sub>O",
        "Molecular Mass": "224.30",
        "Boiling Point": "150 °C @ Press: 3 Torr",
        "Melting Point": "82-83 °C"
    }
}