{
    "cas_no": "453-14-5",
    "key_name": "1,3-Difluoro-2-propanone",
    "cn_name": null,
    "alternate_name": "2-Propanone, 1,3-difluoro-;1,3-Difluoro-2-propanone;<em>sym</em>-Difluoroacetone;1,3-Difluoroacetone;NSC 21301",
    "duplicated_cas_no": "",
    "SMILES": "C(CF)(CF)=O",
    "meta_data": {
        "InChI": "InChI=1S/C3H4F2O/c4-1-3(6)2-5/h1-2H2",
        "InChIKey": null,
        "Canonical SMILES": "O=C(CF)CF",
        "Molecular Formula": "C<sub>3</sub>H<sub>4</sub>F<sub>2</sub>O",
        "Molecular Mass": "94.06",
        "Boiling Point": "101-102 °C"
    }
}