{
    "cas_no": "1504-63-8",
    "key_name": "3-(4-Nitrophenyl)-2-propen-1-ol",
    "cn_name": "4-硝基肉桂醇;4-硝基苯丙烯醇;4-硝基肉桂醇;4-硝基肉桂醇,98%;",
    "alternate_name": "2-Propen-1-ol, 3-(4-nitrophenyl)-;2-Propen-1-ol, 3-(<em>p</em>-nitrophenyl)-;3-(4-Nitrophenyl)-2-propen-1-ol;4-Nitrocinnamyl alcohol;3-(4-Nitrophenyl)-2-propenol;<em>p</em>-Nitrocinnamyl alcohol;3-(4-Nitrophenyl)prop-2-en-1-ol;1-Hydroxy-3-(4-nitrophenyl)-2-propene",
    "duplicated_cas_no": "",
    "SMILES": "N(=O)(=O)C1=CC=C(C=CCO)C=C1",
    "meta_data": {
        "InChI": "InChI=1S/C9H9NO3/c11-7-1-2-8-3-5-9(6-4-8)10(12)13/h1-6,11H,7H2",
        "InChIKey": null,
        "Canonical SMILES": "O=N(=O)C1=CC=C(C=C1)C=CCO",
        "Molecular Formula": "C<sub>9</sub>H<sub>9</sub>NO<sub>3</sub>",
        "Molecular Mass": "179.17",
        "Melting Point": "127.5-128 °C"
    }
}