{
    "cas_no": "5399-22-4",
    "key_name": "Lauric hydrazide",
    "cn_name": "月桂酸酰肼;月桂酰肼;",
    "alternate_name": "Dodecanoic acid, hydrazide;Lauric acid, hydrazide;Dodecanohydrazide;Lauroylhydrazine;Dodecanoic hydrazide;Lauroyl hydrazide;NSC 1136;Lauric hydrazide",
    "duplicated_cas_no": "",
    "SMILES": "C(CCC(NN)=O)CCCCCCCC",
    "meta_data": {
        "InChI": "InChI=1S/C12H26N2O/c1-2-3-4-5-6-7-8-9-10-11-12(15)14-13/h2-11,13H2,1H3,(H,14,15)",
        "InChIKey": null,
        "Canonical SMILES": "O=C(NN)CCCCCCCCCCC",
        "Molecular Formula": "C<sub>12</sub>H<sub>26</sub>N<sub>2</sub>O",
        "Molecular Mass": "214.35",
        "Boiling Point": "270-275 °C",
        "Melting Point": "104.5 °C"
    }
}