{
    "cas_no": "41708-72-9",
    "key_name": "Tocainide",
    "cn_name": "妥卡尼;2-氨基-N-(2,6-二甲基苯基)丙酰胺;N-(2-氨基丙酰基)-2,6-二甲基苯胺;",
    "alternate_name": "Propanamide, 2-amino-<em>N</em>-(2,6-dimethylphenyl)-;2-Amino-<em>N</em>-(2,6-dimethylphenyl)propanamide;2-Amino-2′,6′-propionoxylidide;Astra W 36095;W 36095;Tocainide;(<em>RS</em>)-Tocainide;(±)-Tocainide;Racemic tocainide;<span class=\"text-smallcaps\">DL</span>-Tocainide",
    "duplicated_cas_no": "76213-25-7",
    "SMILES": "N(C(C(C)N)=O)C1=C(C)C=CC=C1C",
    "meta_data": {
        "InChI": "InChI=1S/C11H16N2O/c1-7-5-4-6-8(2)10(7)13-11(14)9(3)12/h4-6,9H,12H2,1-3H3,(H,13,14)",
        "InChIKey": null,
        "Canonical SMILES": "O=C(NC=1C(=CC=CC1C)C)C(N)C",
        "Molecular Formula": "C<sub>11</sub>H<sub>16</sub>N<sub>2</sub>O",
        "Molecular Mass": "192.26",
        "Melting Point": "246-266 °C"
    }
}