{
    "cas_no": "367-11-3",
    "key_name": "1,2-Difluorobenzene",
    "cn_name": "1,2-二氟苯;",
    "alternate_name": "Benzene, 1,2-difluoro-;Benzene, <em>o</em>-difluoro-;1,2-Difluorobenzene;<em>o</em>-Difluorobenzene;NSC 10275",
    "duplicated_cas_no": "",
    "SMILES": "FC1=C(F)C=CC=C1",
    "meta_data": {
        "InChI": "InChI=1S/C6H4F2/c7-5-3-1-2-4-6(5)8/h1-4H",
        "InChIKey": null,
        "Canonical SMILES": "FC=1C=CC=CC1F",
        "Molecular Formula": "C<sub>6</sub>H<sub>4</sub>F<sub>2</sub>",
        "Molecular Mass": "114.09",
        "Boiling Point": "94 °C",
        "Melting Point": "-34 °C",
        "Density": "1.1496 g/cm³ @ Temp: 25 °C"
    }
}