{
    "cas_no": "2508-72-7",
    "key_name": "Antazoline hydrochloride",
    "cn_name": "盐酸安他唑啉;N-苯基-N-苄基-4,5-二氢-1H-咪唑-2-甲胺盐酸盐;",
    "alternate_name": "1<em>H</em>-Imidazole-2-methanamine, 4,5-dihydro-<em>N</em>-phenyl-<em>N</em>-(phenylmethyl)-, hydrochloride (1:1);1<em>H</em>-Imidazole-2-methanamine, 4,5-dihydro-<em>N</em>-phenyl-<em>N</em>-(phenylmethyl)-, monohydrochloride;2-Imidazoline, 2-[(<em>N</em>-benzylanilino)methyl]-, monohydrochloride;Antazoline hydrochloride;Antistine hydrochloride;2-(<em>N</em>-Benzylanilinomethyl)-2-imidazoline hydrochloride;Phenazoline hydrochloride;Antazoline chloride;Antistina;Antistin;Antastan;Histostab;Antihistal;Imidamine;Azalone;Antasten;Dibistin;5512M;Fenazolina;Histazine;Ben-a-hist",
    "duplicated_cas_no": "",
    "SMILES": "N(CC1=CC=CC=C1)(CC=2NCCN2)C3=CC=CC=C3.Cl",
    "meta_data": {
        "InChI": "InChI=1S/C17H19N3.ClH/c1-3-7-15(8-4-1)13-20(14-17-18-11-12-19-17)16-9-5-2-6-10-16;/h1-10H,11-14H2,(H,18,19);1H",
        "InChIKey": null,
        "Canonical SMILES": "Cl.N1=C(NCC1)CN(C=2C=CC=CC2)CC=3C=CC=CC3",
        "Molecular Formula": "C<sub>17</sub>H<sub>19</sub>N<sub>3</sub>.ClH",
        "Molecular Mass": "",
        "Melting Point": "237-241 °C"
    }
}