{
    "cas_no": "22204-89-3",
    "key_name": "4-Hydroxy-<em>N</em>,<em>N</em>-diethyltryptamine",
    "cn_name": null,
    "alternate_name": "1<em>H</em>-Indol-4-ol, 3-[2-(diethylamino)ethyl]-;Indol-4-ol, 3-[2-(diethylamino)ethyl]-;3-[2-(Diethylamino)ethyl]-1<em>H</em>-indol-4-ol;4-Hydroxy-<em>N</em>,<em>N</em>-diethyltryptamine;3-(2-Diethylaminoethyl)indol-4-ol;CZ 74",
    "duplicated_cas_no": "",
    "SMILES": "C(CN(CC)CC)C=1C=2C(NC1)=CC=CC2O",
    "meta_data": {
        "InChI": "InChI=1S/C14H20N2O/c1-3-16(4-2)9-8-11-10-15-12-6-5-7-13(17)14(11)12/h5-7,10,15,17H,3-4,8-9H2,1-2H3",
        "InChIKey": null,
        "Canonical SMILES": "OC1=CC=CC=2NC=C(C12)CCN(CC)CC",
        "Molecular Formula": "C<sub>14</sub>H<sub>20</sub>N<sub>2</sub>O",
        "Molecular Mass": "232.32",
        "Melting Point": "104-106 °C"
    }
}