{
    "cas_no": "1315-01-1",
    "key_name": "Tin sulfide (SnS<sub>2</sub>)",
    "cn_name": "二硫酸化锡;二硫酸化锡;",
    "alternate_name": "Tin sulfide (SnS<sub>2</sub>);C.I. 77878;C.I. Pigment Yellow 38;Stannic sulfide;Tin disulfide;Tin disulfide (SnS<sub>2</sub>);Pigment Yellow 38;Tin(IV) sulfide;Mosaic gold",
    "duplicated_cas_no": "",
    "SMILES": "[Sn](=S)=S",
    "meta_data": {
        "InChI": "InChI=1S/2S.Sn",
        "InChIKey": null,
        "Canonical SMILES": "S=[Sn]=S",
        "Molecular Formula": "S<sub>2</sub>Sn",
        "Molecular Mass": "182.84",
        "Melting Point": "870 °C",
        "Density": "4.5 g/cm³"
    }
}