{
    "cas_no": "27603-25-4",
    "key_name": "2-(Methylsulfonyl)-5-(trifluoromethyl)-1,3,4-thiadiazole",
    "cn_name": null,
    "alternate_name": "1,3,4-Thiadiazole, 2-(methylsulfonyl)-5-(trifluoromethyl)-;2-(Methylsulfonyl)-5-(trifluoromethyl)-1,3,4-thiadiazole;2-Methanesulfonyl-5-(trifluoromethyl)-1,3,4-thiadiazole",
    "duplicated_cas_no": "",
    "SMILES": "C(F)(F)(F)C=1SC(S(C)(=O)=O)=NN1",
    "meta_data": {
        "InChI": "InChI=1S/C4H3F3N2O2S2/c1-13(10,11)3-9-8-2(12-3)4(5,6)7/h1H3",
        "InChIKey": null,
        "Canonical SMILES": "O=S(=O)(C1=NN=C(S1)C(F)(F)F)C",
        "Molecular Formula": "C<sub>4</sub>H<sub>3</sub>F<sub>3</sub>N<sub>2</sub>O<sub>2</sub>S<sub>2</sub>",
        "Molecular Mass": "232.20",
        "Melting Point": "86 °C"
    }
}