{
    "cas_no": "480-49-9",
    "key_name": "Filipin III",
    "cn_name": "菲律平;菲律平;",
    "alternate_name": "Oxacyclooctacosa-17,19,21,23,25-pentaen-2-one, 4,6,8,10,12,14,16,27-octahydroxy-3-[(1<em>R</em>)-1-hydroxyhexyl]-17,28-dimethyl-, (3<em>R</em>,4<em>S</em>,6<em>S</em>,8<em>S</em>,10<em>R</em>,12<em>R</em>,14<em>R</em>,16<em>S</em>,17<em>E</em>,19<em>E</em>,21<em>E</em>,23<em>E</em>,25<em>E</em>,27<em>S</em>,28<em>R</em>)-;Filipin;Filipin III;Oxacyclooctacosane, filipin III deriv.;(3<em>R</em>,4<em>S</em>,6<em>S</em>,8<em>S</em>,10<em>R</em>,12<em>R</em>,14<em>R</em>,16<em>S</em>,17<em>E</em>,19<em>E</em>,21<em>E</em>,23<em>E</em>,25<em>E</em>,27<em>S</em>,28<em>R</em>)-4,6,8,10,12,14,16,27-Octahydroxy-3-[(1<em>R</em>)-1-hydroxyhexyl]-17,28-dimethyloxacyclooctacosa-17,19,21,23,25-pentaen-2-one;14-Deoxylagosin;Filimarisin;[3<em>R</em>-[3<em>R</em>*(<em>R</em>*),4<em>S</em>*,6<em>S</em>*,8<em>S</em>*,10<em>R</em>*,12<em>R</em>*,14<em>R</em>*,16<em>S</em>*,17<em>E</em>,19<em>E</em>,21<em>E</em>,23<em>E</em>,25<em>E</em>,27<em>S</em>*,28<em>R</em>*]]-4,6,8,10,12,14,16,27-Octahydroxy-3-(1-hydroxyhexyl)-17,28-dimethyloxacyclooctacosa-17,19,21,23,25-pentaen-2-one;15-Deoxylagosin;NSC 3364;NSC 38092;1′,26-Dihydroxyfilipin I;1′-Hydroxyfilipin II;1′-<em>epi</em>-Filipin IV;MeSH ID: D005372",
    "duplicated_cas_no": "10109-08-7;11006-21-6;27115-88-4;875829-47-3",
    "SMILES": "",
    "meta_data": {
        "InChI": "",
        "InChIKey": null,
        "Canonical SMILES": "",
        "Molecular Formula": "C<sub>35</sub>H<sub>58</sub>O<sub>11</sub>",
        "Molecular Mass": "654.83",
        "Melting Point": "163-180 °C"
    }
}