{
    "cas_no": "2475-46-9",
    "key_name": "C.I. Disperse Blue 3",
    "cn_name": "分散蓝3;1-[(2-羟乙基)氨基]-4-(甲氨基)-9,10-蒽醌;",
    "alternate_name": "C.I. Disperse Blue 3;C.I. 61505;Acetate Brilliant Blue 4B;Acetoquinone Light Pure Blue R;Altocyl Brilliant Blue B;Amacel Blue BNN;Amacel Brilliant Blue B;Artisil Blue BSQ;Calcosyn Sapphire Blue R;Calcosyn Sapphire Blue 2GS;Celanthrene Brilliant Blue;Celanthrene Brilliant Blue FFS;Celliton Fast Blue FBBN;Celliton Fast Blue FFR;Celliton Fast Blue FFRN;Celliton Fast Blue FFRS;Celutate Blue BLT;Celutate Blue RNH;Celutate Brilliant Blue B;Cibacet Blue BNG;Cibacet Brilliant Blue BG new;Cilla Fast Blue FFR;Diacelliton Fast Brilliant Blue B;Diacelliton Fast Brilliant Blue BF;Duranol Brilliant Blue B;Duranol Brilliant Blue BN;Duranol Printing Blue B;Eastman Blue BNN;Eastman Blue GBN;Fenacet Fast Blue FF;Fenacet Fast Blue FFN;Interchem Acetate Blue B;Interchem Acetate Blue NBN;Interchem Acetate Blue RBN;Interchem Acetate Blue WNBN;Kayalon Fast Blue FN;Microsetile Blue FF;Microsetile Blue FFR;Miketon Brilliant Blue B;Nacelan Blue KLT;Nyloquinone Pure Blue R;Perliton Blue FFR;Serinyl Hosiery Blue BG;Serisol Brilliant Blue BG;Serisol Brilliant Blue BP;Serisol Brilliant Blue FF;Setacyl Blue BN;Setacyl Blue FG;Setacyl Blue RF;Setacyl Brilliant Blue BG;Supracet Brilliant Blue BG;Disperse Blue 3;Disperse Blue K;Cibacet Blue F 3R;Artisil Blue BSG;Celliton Blue FFR;Transetile Blue P-FFR;Lurafix Blue FFR;C.I. Disperse Blue 41;9,10-Anthracenedione, 1,4-diamino-, <em>N</em>,<em>N</em>′-mixed 2-hydroxyethyl and Me derivs.;Miketon Fast Brilliant Blue B;C.I. Disperse Blue 66;Lurafix Blue 660;Atlantic Disperse Blue BNA;Ostacet Blue P 3R;Akasperse Blue GLF;Cibacet Blue BF;Disperse Blue FFR",
    "duplicated_cas_no": "71486-78-7;71807-37-9",
    "SMILES": "",
    "meta_data": {
        "InChI": "",
        "InChIKey": null,
        "Canonical SMILES": "",
        "Molecular Formula": "Unspecified",
        "Molecular Mass": "",
        "Melting Point": "187 °C"
    }
}