{
    "cas_no": "5334-43-0",
    "key_name": "5-Amino-1-phenyl-1<em>H</em>-pyrazole-4-carbonitrile",
    "cn_name": null,
    "alternate_name": "1<em>H</em>-Pyrazole-4-carbonitrile, 5-amino-1-phenyl-;Pyrazole-4-carbonitrile, 5-amino-1-phenyl-;5-Amino-1-phenyl-1<em>H</em>-pyrazole-4-carbonitrile;5-Amino-4-cyano-1-phenylpyrazole;5-Amino-1-phenyl-4-pyrazolecarbonitrile;MB 3670;M and B 36701;NSC 1414;1-Phenyl-4-cyano-5-aminopyrazole;5-Amino-4-cyano-1-phenyl-1<em>H</em>-pyrazole",
    "duplicated_cas_no": "",
    "SMILES": "NC=1N(N=CC1C#N)C2=CC=CC=C2",
    "meta_data": {
        "InChI": "InChI=1S/C10H8N4/c11-6-8-7-13-14(10(8)12)9-4-2-1-3-5-9/h1-5,7H,12H2",
        "InChIKey": null,
        "Canonical SMILES": "N#CC=1C=NN(C=2C=CC=CC2)C1N",
        "Molecular Formula": "C<sub>10</sub>H<sub>8</sub>N<sub>4</sub>",
        "Molecular Mass": "184.20",
        "Melting Point": "140 °C"
    }
}