{
    "cas_no": "14774-36-8",
    "key_name": "Tetrahydro-2<em>H</em>-pyran-3-methanol",
    "cn_name": null,
    "alternate_name": "2<em>H</em>-Pyran-3-methanol, tetrahydro-;Pyran-3-methanol, tetrahydro-;Tetrahydro-2<em>H</em>-pyran-3-methanol;3-(Hydroxymethyl)tetrahydropyran;(Tetrahydropyran-3-yl)methanol;5-(Hydroxymethyl)tetrahydropyran;(Tetrahydro-2<em>H</em>-pyran-3-yl)methanol;Oxan-3-ylmethanol",
    "duplicated_cas_no": "",
    "SMILES": "C(O)C1CCCOC1",
    "meta_data": {
        "InChI": "InChI=1S/C6H12O2/c7-4-6-2-1-3-8-5-6/h6-7H,1-5H2",
        "InChIKey": null,
        "Canonical SMILES": "OCC1COCCC1",
        "Molecular Formula": "C<sub>6</sub>H<sub>12</sub>O<sub>2</sub>",
        "Molecular Mass": "116.16",
        "Boiling Point": "68-69 °C @ Press: 2 Torr",
        "Density": "1.040 g/cm³ @ Temp: 20 °C"
    }
}