{
    "cas_no": "10226-30-9",
    "key_name": "6-Chloro-2-hexanone",
    "cn_name": "6-氯-2-己酮;",
    "alternate_name": "2-Hexanone, 6-chloro-;6-Chloro-2-hexanone;5-Oxohexyl chloride;1-Chlorohexan-5-one;4-Chlorobutyl methyl ketone",
    "duplicated_cas_no": "",
    "SMILES": "C(CCCCl)C(C)=O",
    "meta_data": {
        "InChI": "InChI=1S/C6H11ClO/c1-6(8)4-2-3-5-7/h2-5H2,1H3",
        "InChIKey": null,
        "Canonical SMILES": "O=C(C)CCCCCl",
        "Molecular Formula": "C<sub>6</sub>H<sub>11</sub>ClO",
        "Molecular Mass": "134.60",
        "Boiling Point": "85-86 °C @ Press: 16 Torr"
    }
}