{
    "cas_no": "610-14-0",
    "key_name": "2-Nitrobenzoyl chloride",
    "cn_name": "2-硝基苯甲酰氯;",
    "alternate_name": "Benzoyl chloride, 2-nitro-;Benzoyl chloride, <em>o</em>-nitro-;2-Nitrobenzoyl chloride;<em>o</em>-Nitrobenzoyl chloride;<em>o</em>-Nitrobenzoic acid chloride",
    "duplicated_cas_no": "",
    "SMILES": "C(Cl)(=O)C1=C(N(=O)=O)C=CC=C1",
    "meta_data": {
        "InChI": "InChI=1S/C7H4ClNO3/c8-7(10)5-3-1-2-4-6(5)9(11)12/h1-4H",
        "InChIKey": null,
        "Canonical SMILES": "O=C(Cl)C=1C=CC=CC1N(=O)=O",
        "Molecular Formula": "C<sub>7</sub>H<sub>4</sub>ClNO<sub>3</sub>",
        "Molecular Mass": "185.56",
        "Boiling Point": "112 °C @ Press: 1 Torr",
        "Melting Point": "24-25 °C"
    }
}