{
    "cas_no": "66300-61-6",
    "key_name": "1,4-Bis(2,2,2-trifluoroethoxy)benzene",
    "cn_name": "1,4-双(2,2,2-三氟乙氧基)苯;",
    "alternate_name": "Benzene, 1,4-bis(2,2,2-trifluoroethoxy)-;1,4-Bis(2,2,2-trifluoroethoxy)benzene",
    "duplicated_cas_no": "",
    "SMILES": "O(CC(F)(F)F)C1=CC=C(OCC(F)(F)F)C=C1",
    "meta_data": {
        "InChI": "InChI=1S/C10H8F6O2/c11-9(12,13)5-17-7-1-2-8(4-3-7)18-6-10(14,15)16/h1-4H,5-6H2",
        "InChIKey": null,
        "Canonical SMILES": "FC(F)(F)COC1=CC=C(OCC(F)(F)F)C=C1",
        "Molecular Formula": "C<sub>10</sub>H<sub>8</sub>F<sub>6</sub>O<sub>2</sub>",
        "Molecular Mass": "274.16",
        "Melting Point": "70 °C"
    }
}