{
    "cas_no": "6711-48-4",
    "key_name": "3,3′-Iminobis(<em>N</em>,<em>N</em>-dimethylpropylamine)",
    "cn_name": null,
    "alternate_name": "1,3-Propanediamine, <em>N</em><sup>3</sup>-[3-(dimethylamino)propyl]-<em>N</em><sup>1</sup>,<em>N</em><sup>1</sup>-dimethyl-;Dipropylamine, 3,3′-bis(dimethylamino)-;1,3-Propanediamine, <em>N</em>′-[3-(dimethylamino)propyl]-<em>N</em>,<em>N</em>-dimethyl-;<em>N</em><sup>3</sup>-[3-(Dimethylamino)propyl]-<em>N</em><sup>1</sup>,<em>N</em><sup>1</sup>-dimethyl-1,3-propanediamine;2,6,10-Triazaundecane, 2,10-dimethyl-;Bis[3-(dimethylamino)propyl]amine;3,3′-Iminobis(<em>N</em>,<em>N</em>-dimethylpropylamine);2,10-Dimethyl-2,6,10-triazaundecane;<em>N</em>′-[3-(Dimethylamino)propyl]-<em>N</em>,<em>N</em>-dimethyl-1,3-propanediamine;Tetramethyldipropylenetriamine;Polycat 70/15;Polycat 15;1,1,9,9-Tetramethyl-1,5,9-triazanonane;<em>N</em>,<em>N</em>,<em>N</em>′,<em>N</em>′-Tetramethyliminobispropylamine;<em>N</em>,<em>N</em>-Bis[3-(dimethylamino)propyl]amine;3′-Iminobis(<em>N</em>,<em>N</em>-dimethylpropylamine);NSC 129937;Jeffcat Z 130;Z 130;Polycat 9;<em>N</em>-(3-Dimethylaminopropyl)-<em>N</em>′,<em>N</em>′-dimethylpropane-1,3-diamine;Zeffcat Z 130;<em>N</em>,<em>N</em>,<em>N</em>′′,<em>N</em>′′-Tetramethyldipropylenetriamine;CT 18L;ZR 50B;PC 9;<em>N</em>,<em>N</em>,<em>N</em>′,<em>N</em>′-Tetramethyldipropylenetriamine;PC 15;(3-[[3-(Dimethylamino)propyl]amino]propyl)dimethylamine;TMDPT;PMDPTA",
    "duplicated_cas_no": "86003-72-7;136363-31-0;1467059-84-2",
    "SMILES": "C(CN(C)C)CNCCCN(C)C",
    "meta_data": {
        "InChI": "InChI=1S/C10H25N3/c1-12(2)9-5-7-11-8-6-10-13(3)4/h11H,5-10H2,1-4H3",
        "InChIKey": null,
        "Canonical SMILES": "N(CCCN(C)C)CCCN(C)C",
        "Molecular Formula": "C<sub>10</sub>H<sub>25</sub>N<sub>3</sub>",
        "Molecular Mass": "187.33",
        "Boiling Point": "128-131 °C @ Press: 20 Torr"
    }
}