{
    "cas_no": "2240-41-7",
    "key_name": "Dimethyl <em>P</em>-phenylphosphonate",
    "cn_name": "苯膦酸二甲酯;苯基膦酸二甲酯;",
    "alternate_name": "Phosphonic acid, <em>P</em>-phenyl-, dimethyl ester;Phosphonic acid, phenyl-, dimethyl ester;Dimethyl <em>P</em>-phenylphosphonate;Dimethyl phenylphosphonate;Dimethyl benzenephosphonate;Phenylphosphonic acid dimethyl ester;Dimethoxyphenylphosphine oxide;NSC 62258;<em>O</em>,<em>O</em>-Dimethyl phenylphosphonate",
    "duplicated_cas_no": "",
    "SMILES": "P(OC)(OC)(=O)C1=CC=CC=C1",
    "meta_data": {
        "InChI": "InChI=1S/C8H11O3P/c1-10-12(9,11-2)8-6-4-3-5-7-8/h3-7H,1-2H3",
        "InChIKey": null,
        "Canonical SMILES": "O=P(OC)(OC)C=1C=CC=CC1",
        "Molecular Formula": "C<sub>8</sub>H<sub>11</sub>O<sub>3</sub>P",
        "Molecular Mass": "186.14",
        "Boiling Point": "103-104 °C @ Press: 4 Torr"
    }
}