{
    "cas_no": "56-75-7",
    "key_name": "(-)-Chloramphenicol",
    "cn_name": "氯霉素;D-苏式-(-)-N-[alpha-(羟基甲基)-beta-羟基-对硝基苯乙基]-2,2-二氯乙酰胺;",
    "alternate_name": "Acetamide, 2,2-dichloro-<em>N</em>-[(1<em>R</em>,2<em>R</em>)-2-hydroxy-1-(hydroxymethyl)-2-(4-nitrophenyl)ethyl]-;Acetamide, 2,2-dichloro-<em>N</em>-[β-hydroxy-α-(hydroxymethyl)-<em>p</em>-nitrophenethyl]-, <span class=\"text-smallcaps\">D</span>-<em>threo</em>-(-)-;Levomycetin;Acetamide, 2,2-dichloro-<em>N</em>-[2-hydroxy-1-(hydroxymethyl)-2-(4-nitrophenyl)ethyl]-, [<em>R</em>-(<em>R</em>*,<em>R</em>*)]-;2,2-Dichloro-<em>N</em>-[(1<em>R</em>,2<em>R</em>)-2-hydroxy-1-(hydroxymethyl)-2-(4-nitrophenyl)ethyl]acetamide;Alficetyn;Amseclor;CAF (pharmaceutical);CAM;CAP;Chemicetina;Chlomycol;Chloramphenicol;Chlorocid;Chloromycetin;Chloronitrin;Cloramicol;Clorocyn;Cloromisan;<span class=\"text-smallcaps\">D</span>-(-)-<em>threo</em>-2-Dichloroacetamido-1-<em>p</em>-nitrophenyl-1,3-propanediol;<span class=\"text-smallcaps\">D</span>-<em>threo</em>-<em>N</em>-Dichloroacetyl-1-<em>p</em>-nitrophenyl-2-amino-1,3-propanediol;Enteromycetin;Farmicetina;Globenicol;Ismicetina;Kemicetine;Klorita;Leukomyan;Levomicetina;Micloretin;Microcetina;<span class=\"text-smallcaps\">D</span>-(-)-<em>threo</em>-1-<em>p</em>-Nitrophenyl-2-dichloracetamido-1,3-propanediol;Novomycetin;Paraxin;Quemicetina;Sintomicetina;Sintomicetine R;Stanomycetin;Tifomycine;Treomicetina;Unimycetin;Detreomycin;I 337A;<span class=\"text-smallcaps\">D</span>-<em>threo</em>-Chloramphenicol;Chlorocidin C;CPh;Chlorocide;<span class=\"text-smallcaps\">D</span>-(-)-<em>threo</em>-Chloramphenicol;Klorocid S;<span class=\"text-smallcaps\">D</span>-Chloramphenicol;Chlorocidin C tetran;<span class=\"text-smallcaps\">D</span>-(-)-<em>threo</em>-1-(4-Nitrophenyl)-2-dichloroacetamido-1,3-propanediol;Chemicetin;Catilan;<span class=\"text-smallcaps\">D</span>-<em>threo</em>-(1<em>R</em>,2<em>R</em>)-1-<em>p</em>-Nitrophenyl-2-dichloroacetamido-1,3-propanediol;<span class=\"text-smallcaps\">D</span>-(-)-Chloramphenicol;<span class=\"text-smallcaps\">D</span>-(-)-<em>threo</em>-1-<em>p</em>-Nitrophenyl-2-dichloroacetylamino-1,3-propanediol;Amphicol;Austracol;Chloramsaar;Chlorocaps;Ciplamycetin;Cloramficin;Cylphenicol;Embacetin;Enicol;Intramycetin;Juvamycetin;Chloramex;Fenicol;Mastiphen;Septicol;Opclor;Pantovernil;Mychel;Kamaver;Leukomycin;Loromisin;Mycinol;Amphenicol;Levomitsetin;Ophthochlor;Normimycin V;Tevcocin;Sintomicetin;Myclocin;Synthomycetin;Chloroptic;Gloveticol;CAF;Mycochlorin;Levovetin;Mychel-Vet;Levoplast;Halcetin;Soluthor;(-)-Chloramphenicol;Levosin;Levocin;Ocuphenicol;Chlorocin;Chlorasol;Veticol;Anacetin;Viceton;Cloramfen;Micoclorina;Ronphenil;Aquamycetin;Ak-Chlor;Sno Phenicol;Chloricol;NSC 3069;Chlorcetin;Bradyoxetin;5: PN: CN114214436 PAGE: 3 claimed sequence;MeSH ID: D002701",
    "duplicated_cas_no": "137731-90-9;15313-32-3;55172-72-0;59112-59-3;85666-84-8",
    "SMILES": "[C@@H]([C@H](NC(C(Cl)Cl)=O)CO)(O)C1=CC=C(N(=O)=O)C=C1",
    "meta_data": {
        "InChI": "InChI=1S/C11H12Cl2N2O5/c12-10(13)11(18)14-8(5-16)9(17)6-1-3-7(4-2-6)15(19)20/h1-4,8-10,16-17H,5H2,(H,14,18)/t8-,9-/m1/s1",
        "InChIKey": null,
        "Canonical SMILES": "O=C(NC(CO)C(O)C1=CC=C(C=C1)N(=O)=O)C(Cl)Cl",
        "Molecular Formula": "C<sub>11</sub>H<sub>12</sub>Cl<sub>2</sub>N<sub>2</sub>O<sub>5</sub>",
        "Molecular Mass": "323.13",
        "Melting Point": "150.5-151.5 °C"
    }
}