{
    "cas_no": "141-14-0",
    "key_name": "Citronellyl propionate",
    "cn_name": null,
    "alternate_name": "6-Octen-1-ol, 3,7-dimethyl-, 1-propanoate;6-Octen-1-ol, 3,7-dimethyl-, propionate;6-Octen-1-ol, 3,7-dimethyl-, propanoate;Propionic acid, ester with citronellol;Citronellyl propionate;Citronellyl propanoate;Citronellol propanoate;Citronellol propionate",
    "duplicated_cas_no": "76444-23-0",
    "SMILES": "C(CCOC(CC)=O)(CCC=C(C)C)C",
    "meta_data": {
        "InChI": "InChI=1S/C13H24O2/c1-5-13(14)15-10-9-12(4)8-6-7-11(2)3/h7,12H,5-6,8-10H2,1-4H3",
        "InChIKey": null,
        "Canonical SMILES": "O=C(OCCC(C)CCC=C(C)C)CC",
        "Molecular Formula": "C<sub>13</sub>H<sub>24</sub>O<sub>2</sub>",
        "Molecular Mass": "212.33",
        "Boiling Point": "120-124 °C @ Press: 14 Torr",
        "Density": "0.8950 g/cm³ @ Temp: 15 °C"
    }
}