{
    "cas_no": "34328-61-5",
    "key_name": "3-Chloro-4-fluorobenzaldehyde",
    "cn_name": "3-氯-4-氟苯甲醛;",
    "alternate_name": "Benzaldehyde, 3-chloro-4-fluoro-;3-Chloro-4-fluorobenzaldehyde;4-Fluoro-3-chlorobenzaldehyde",
    "duplicated_cas_no": "",
    "SMILES": "C(=O)C1=CC(Cl)=C(F)C=C1",
    "meta_data": {
        "InChI": "InChI=1S/C7H4ClFO/c8-6-3-5(4-10)1-2-7(6)9/h1-4H",
        "InChIKey": null,
        "Canonical SMILES": "O=CC1=CC=C(F)C(Cl)=C1",
        "Molecular Formula": "C<sub>7</sub>H<sub>4</sub>ClFO",
        "Molecular Mass": "158.56",
        "Melting Point": "83-85 °C"
    }
}