{
    "cas_no": "3010-81-9",
    "key_name": "4-Methoxy-α,α-bis(4-methoxyphenyl)benzenemethanol",
    "cn_name": "4,4\",4\"-三甲氧基苯基甲醇;",
    "alternate_name": "Benzenemethanol, 4-methoxy-α,α-bis(4-methoxyphenyl)-;Methanol, tris(<em>p</em>-methoxyphenyl)-;4-Methoxy-α,α-bis(4-methoxyphenyl)benzenemethanol;4,4′,4′′-Trimethoxytriphenylmethanol;Tris(<em>p</em>-methoxyphenyl)methanol;Tris(4-methoxyphenyl)methanol;4,4′,4′′-Trimethoxytrityl alcohol;1,1,1-Tris(4-methoxyphenyl)methanol",
    "duplicated_cas_no": "",
    "SMILES": "C(O)(C1=CC=C(OC)C=C1)(C2=CC=C(OC)C=C2)C3=CC=C(OC)C=C3",
    "meta_data": {
        "InChI": "InChI=1S/C22H22O4/c1-24-19-10-4-16(5-11-19)22(23,17-6-12-20(25-2)13-7-17)18-8-14-21(26-3)15-9-18/h4-15,23H,1-3H3",
        "InChIKey": null,
        "Canonical SMILES": "OC(C1=CC=C(OC)C=C1)(C2=CC=C(OC)C=C2)C3=CC=C(OC)C=C3",
        "Molecular Formula": "C<sub>22</sub>H<sub>22</sub>O<sub>4</sub>",
        "Molecular Mass": "350.41",
        "Melting Point": "82 °C"
    }
}