{
    "cas_no": "609-73-4",
    "key_name": "1-Iodo-2-nitrobenzene",
    "cn_name": "2-硝基碘苯;2-碘硝基苯;邻硝基碘苯;邻碘硝基苯;",
    "alternate_name": "Benzene, 1-iodo-2-nitro-;1-Iodo-2-nitrobenzene;<em>o</em>-Iodonitrobenzene;2-Nitroiodobenzene;2-Iodonitrobenzene;<em>o</em>-Nitroiodobenzene;<em>o</em>-Nitrophenyl iodide;2-Nitrophenyl iodide;1-Nitro-2-iodobenzene;NSC 9793;2-Nitro-1-iodobenzene",
    "duplicated_cas_no": "",
    "SMILES": "N(=O)(=O)C1=C(I)C=CC=C1",
    "meta_data": {
        "InChI": "InChI=1S/C6H4INO2/c7-5-3-1-2-4-6(5)8(9)10/h1-4H",
        "InChIKey": null,
        "Canonical SMILES": "O=N(=O)C=1C=CC=CC1I",
        "Molecular Formula": "C<sub>6</sub>H<sub>4</sub>INO<sub>2</sub>",
        "Molecular Mass": "249.01",
        "Boiling Point": "290 °C",
        "Melting Point": "54 °C"
    }
}