{
    "cas_no": "93-14-1",
    "key_name": "Guaifenesin",
    "cn_name": "愈创甘油醚;愈创木酚甘油醚;3-(2-甲氧基苯氧基)丙烷-1,2-二醇;",
    "alternate_name": "1,2-Propanediol, 3-(2-methoxyphenoxy)-;1,2-Propanediol, 3-(<em>o</em>-methoxyphenoxy)-;3-(2-Methoxyphenoxy)-1,2-propanediol;SL 90;Aeronesin;Aresol;Creson;1,2-Dihydroxy-3-(2-methoxyphenoxy)propane;Dilyn;Glycerin guaiacolate;Glycerol guaiacolate;Glycerol α-(<em>o</em>-methoxyphenyl)ether;Glyceryl guaiacolate;α-Glyceryl guaiacolate ether;Glyceryl guaiacyl ether;Glycotuss;α-Glyceryl guaiacol ether;Guaiacuran;Guaiacurane;Guaiacyl glyceryl ether;Guaiamar;Guaianesin;Guaiphenesin;Guaiphenesine;Guajacuran;Guayanesin;3-(<em>o</em>-Methoxyphenoxy)-1,2-propanediol;<em>o</em>-Methoxyphenyl glyceryl ether;Methphenoxydiol;Myocaine;Neuroton;Neurotone;Oresol;Oreson;Reorganin;Respenyl;Resyl;Ritussin;Guaiacol glyceryl ether;Glycerylguaiacol;Guaiacol glycerol ether;Glyceryl guaiacolate ether;Glycerol α-guaiacyl ether;Glycerol α-(2-methoxyphenyl) ether;XL 90;Myoscain;Relaxil G;Calmipan;Tenntuss;Tulyn;Sirotol;Guaiacol glycerin ether;Guaifenesin;Muskurelax;Myocain;Hytuss;Miocurin;Guanar;My 301;Robitussin;Glyceryl guaiacol ether;Trecid;Hustosil;racemic-Guaifenesin;Guaifenesine;Tenntus;Actifed C;Equicol;Colrex Expectorant;Amonidren;2-G;Glycodex;NSC 62112;Organidin NR;Mucinex;Giafen;MeSH ID: D006140",
    "duplicated_cas_no": "128707-44-8;1336-67-0;12041-73-5",
    "SMILES": "O(CC(CO)O)C1=C(OC)C=CC=C1",
    "meta_data": {
        "InChI": "InChI=1S/C10H14O4/c1-13-9-4-2-3-5-10(9)14-7-8(12)6-11/h2-5,8,11-12H,6-7H2,1H3",
        "InChIKey": null,
        "Canonical SMILES": "OCC(O)COC=1C=CC=CC1OC",
        "Molecular Formula": "C<sub>10</sub>H<sub>14</sub>O<sub>4</sub>",
        "Molecular Mass": "198.22",
        "Boiling Point": "215 °C @ Press: 19 Torr",
        "Melting Point": "78.5-79 °C"
    }
}