{
    "cas_no": "112-35-6",
    "key_name": "Triethylene glycol monomethyl ether",
    "cn_name": "三乙二醇单甲醚;三甘醇单甲醚;三乙二醇甲醚;2-[2-(2-甲氧基乙氧基)乙氧基]乙醇;",
    "alternate_name": "Ethanol, 2-[2-(2-methoxyethoxy)ethoxy]-;2-[2-(2-Methoxyethoxy)ethoxy]ethanol;Dowanol TMAT;Triethylene glycol monomethyl ether;Triglycol monomethyl ether;Methyltrioxitol;3,6,9-Trioxa-1-decanol;3,6,9-Trioxadecanol;Methyltriglycol;NSC 97395;Bikanol M 3;Hymol TM;Monomethoxytriethylene glycol;MTG;2-[2-(2-Methoxyethoxy)ethoxy]ethan-1-ol;2-(2-(2-Methoxyethoxy)ethoxy)ethan-1-ol",
    "duplicated_cas_no": "",
    "SMILES": "C(COCCO)OCCOC",
    "meta_data": {
        "InChI": "InChI=1S/C7H16O4/c1-9-4-5-11-7-6-10-3-2-8/h8H,2-7H2,1H3",
        "InChIKey": null,
        "Canonical SMILES": "OCCOCCOCCOC",
        "Molecular Formula": "C<sub>7</sub>H<sub>16</sub>O<sub>4</sub>",
        "Molecular Mass": "164.20",
        "Boiling Point": "249 °C",
        "Melting Point": "-44 °C",
        "Density": "1.0494 g/cm³"
    }
}