{
    "cas_no": "91-65-6",
    "key_name": "<em>N</em>,<em>N</em>-Diethylcyclohexylamine",
    "cn_name": null,
    "alternate_name": "Cyclohexanamine, <em>N</em>,<em>N</em>-diethyl-;Cyclohexylamine, <em>N</em>,<em>N</em>-diethyl-;<em>N</em>,<em>N</em>-Diethylcyclohexanamine;<em>N</em>,<em>N</em>-Diethylcyclohexylamine;Diethylcyclohexylamine;Cyclohexyldiethylamine;NSC 5313;<em>N</em>-Cyclohexyl-<em>N</em>,<em>N</em>-diethylamine",
    "duplicated_cas_no": "",
    "SMILES": "N(CC)(CC)C1CCCCC1",
    "meta_data": {
        "InChI": "InChI=1S/C10H21N/c1-3-11(4-2)10-8-6-5-7-9-10/h10H,3-9H2,1-2H3",
        "InChIKey": null,
        "Canonical SMILES": "N(CC)(CC)C1CCCCC1",
        "Molecular Formula": "C<sub>10</sub>H<sub>21</sub>N",
        "Molecular Mass": "155.28",
        "Boiling Point": "193 °C",
        "Melting Point": "172 °C",
        "Density": "0.8445 g/cm³ @ Temp: 25 °C"
    }
}