{
    "cas_no": "616-75-1",
    "key_name": "Benzylmalonic acid",
    "cn_name": "苄基丙二酸;",
    "alternate_name": "Propanedioic acid, 2-(phenylmethyl)-;Malonic acid, benzyl-;Propanedioic acid, (phenylmethyl)-;2-(Phenylmethyl)propanedioic acid;1,1-Ethanedicarboxylic acid, 2-phenyl-;Benzylmalonic acid;2-Benzylmalonic acid;Malonic acid, 2-benzyl-;NSC 8068;2-Benzylpropanedioic acid",
    "duplicated_cas_no": "1384980-32-8",
    "SMILES": "C(CC1=CC=CC=C1)(C(O)=O)C(O)=O",
    "meta_data": {
        "InChI": "InChI=1S/C10H10O4/c11-9(12)8(10(13)14)6-7-4-2-1-3-5-7/h1-5,8H,6H2,(H,11,12)(H,13,14)",
        "InChIKey": null,
        "Canonical SMILES": "O=C(O)C(C(=O)O)CC=1C=CC=CC1",
        "Molecular Formula": "C<sub>10</sub>H<sub>10</sub>O<sub>4</sub>",
        "Molecular Mass": "194.18",
        "Melting Point": "116-117 °C"
    }
}