{
    "cas_no": "2694-54-4",
    "key_name": "Triallyl trimellitate",
    "cn_name": "1,2,4-苯三甲酸三烯丙酯;偏苯三酸三烯丙酯;",
    "alternate_name": "1,2,4-Benzenetricarboxylic acid, 1,2,4-tri-2-propen-1-yl ester;1,2,4-Benzenetricarboxylic acid, triallyl ester;1,2,4-Benzenetricarboxylic acid, tri-2-propenyl ester;Triallyl trimellitate;Trimellitic acid triallyl ester;TRIAM 705;1,2,4-Triallyl trimellitate;TRIAM 750;Triallyl 1,2,4-benzenetricarboxylate",
    "duplicated_cas_no": "114050-55-4",
    "SMILES": "C(OCC=C)(=O)C1=C(C(OCC=C)=O)C=CC(C(OCC=C)=O)=C1",
    "meta_data": {
        "InChI": "InChI=1S/C18H18O6/c1-4-9-22-16(19)13-7-8-14(17(20)23-10-5-2)15(12-13)18(21)24-11-6-3/h4-8,12H,1-3,9-11H2",
        "InChIKey": null,
        "Canonical SMILES": "O=C(OCC=C)C1=CC=C(C(=O)OCC=C)C(=C1)C(=O)OCC=C",
        "Molecular Formula": "C<sub>18</sub>H<sub>18</sub>O<sub>6</sub>",
        "Molecular Mass": "330.33",
        "Boiling Point": "109-116 °C @ Press: 4.5 Torr",
        "Density": "1.1531 g/cm³ @ Temp: 20 °C"
    }
}