{
    "cas_no": "14426-21-2",
    "key_name": "Diethanolamine hydrochloride",
    "cn_name": null,
    "alternate_name": "Ethanol, 2,2′-iminobis-, hydrochloride (1:1);Ethanol, 2,2′-iminodi-, hydrochloride;Ethanol, 2,2′-iminobis-, hydrochloride;Diethanolamine hydrochloride;Diethanolamine hydrochloric acid salt;Diethanolammonium chloride;Di(β-hydroxyethyl)amine hydrochloride",
    "duplicated_cas_no": "",
    "SMILES": "N(CCO)CCO.Cl",
    "meta_data": {
        "InChI": "InChI=1S/C4H11NO2.ClH/c6-3-1-5-2-4-7;/h5-7H,1-4H2;1H",
        "InChIKey": null,
        "Canonical SMILES": "Cl.OCCNCCO",
        "Molecular Formula": "C<sub>4</sub>H<sub>11</sub>NO<sub>2</sub>.ClH",
        "Molecular Mass": "",
        "Melting Point": "-26 °C",
        "Density": "1.24 g/cm³"
    }
}