{
    "cas_no": "56296-78-7",
    "key_name": "Reconcile",
    "cn_name": "盐酸氟西汀;(+/-)-N-甲基-3-(对三氟甲基苯氧基)-3-苯基丙胺盐酸盐;",
    "alternate_name": "Benzenepropanamine, <em>N</em>-methyl-γ-[4-(trifluoromethyl)phenoxy]-, hydrochloride (1:1);Benzenepropanamine, <em>N</em>-methyl-γ-[4-(trifluoromethyl)phenoxy]-, hydrochloride;Fluoxetine hydrochloride;Lilly 110140;LY 110140;Prozac;(±)-<em>N</em>-Methyl-3-phenyl-3-[4-(trifluoromethyl)phenoxy]propylamine hydrochloride;Adofen;Ansilan;Deproxin;Erocap;Fluctin;Fluctine;Affectine;Alzac 20;Flunil;Fluoxac;Fluoxeren;Fluoxil;Fluox-Puren;Flutin;Flutine;Fluxen;Fluxil;Fontex;Foxetin;Lorien;Lovan;Margrilan;Modipran;Neupax;Nopres;Nuzak;Oxedep;Pragmaten;Prizma;Proctin;Prodep;Prozac 20;Rowexetina;Sanzur;Sinzac;Zactin;Zepax;Fludac;Flufran;Reneuron;Sarafem;Profluzac;<em>N</em>-Methyl-3-(4-trifluoromethylphenoxy)-3-phenylpropylamine hydrochloride;Zedprex;Reconcile;Digassim;Nodepe;Fluxetyl;Pluzac;Salipax;Octozac;N-methyl-3-[4-(trifluoromethyl)phenoxy]-3-phenylpropanamine hydrochloride;Flunirin",
    "duplicated_cas_no": "59333-67-4",
    "SMILES": "C(OC1=CC=C(C(F)(F)F)C=C1)(CCNC)C2=CC=CC=C2.Cl",
    "meta_data": {
        "InChI": "InChI=1S/C17H18F3NO.ClH/c1-21-12-11-16(13-5-3-2-4-6-13)22-15-9-7-14(8-10-15)17(18,19)20;/h2-10,16,21H,11-12H2,1H3;1H",
        "InChIKey": null,
        "Canonical SMILES": "Cl.FC(F)(F)C1=CC=C(OC(C=2C=CC=CC2)CCNC)C=C1",
        "Molecular Formula": "C<sub>17</sub>H<sub>18</sub>F<sub>3</sub>NO.ClH",
        "Molecular Mass": "",
        "Melting Point": "158.4-158.9 °C"
    }
}