{
    "cas_no": "15878-00-9",
    "key_name": "4-Chloropyrazole",
    "cn_name": "4-氯吡唑;",
    "alternate_name": "1<em>H</em>-Pyrazole, 4-chloro-;Pyrazole, 4-chloro-;4-Chloro-1<em>H</em>-pyrazole;4-Chloropyrazole",
    "duplicated_cas_no": "",
    "SMILES": "ClC=1C=NNC1",
    "meta_data": {
        "InChI": "InChI=1S/C3H3ClN2/c4-3-1-5-6-2-3/h1-2H,(H,5,6)",
        "InChIKey": null,
        "Canonical SMILES": "ClC=1C=NNC1",
        "Molecular Formula": "C<sub>3</sub>H<sub>3</sub>ClN<sub>2</sub>",
        "Molecular Mass": "102.52",
        "Melting Point": "71-73 °C"
    }
}