{
    "cas_no": "583-39-1",
    "key_name": "2-Mercaptobenzimidazole",
    "cn_name": "2-巯基苯并咪唑;2-硫醇基苯并咪唑;橡胶防老剂MB;",
    "alternate_name": "2<em>H</em>-Benzimidazole-2-thione, 1,3-dihydro-;2-Benzimidazolethiol;2-Benzimidazolinethione;1,3-Dihydro-2<em>H</em>-benzimidazole-2-thione;2-Mercaptobenzimidazole;1<em>H</em>-Benzimidazole-2-thiol;ASM MB;2-Thiobenzimidazole;Antioxidant MB;<em>o</em>-Phenylenethiourea;Antigene MB;Permanax 21;2-Benzimidazolethione;Vulkanox MB;AO-MB;Nocrac MB;Vulkanox MBI;G 580;2-Mercapto-1<em>H</em>-benzimidazole;Antioxidant MB/K;MB/K;Antage MB;Sumilizer MB;MB;2,3-Dihydro-1<em>H</em>-benzimidazole-2-thione;Nonflex MB;1,3-Dihydro-2<em>H</em>-benzoimidazole-2-thione;NSC 186246;NSC 21414;Benzimidazolin-2-thione;Sandant MB;Vulkanox MG;1<em>H</em>-Benzo[<em>d</em>]imidazole-2(3<em>H</em>)-thione;Curekind MBI/B;1<em>H</em>-Benzo[<em>d</em>]imidazole-2-thiol;2-Sulfhydrylbenzimidazole;MBI 80;Rhenogran MBI 80;1,3-Dihydrobenzimidazole-2-thione;1<em>H</em>-Benzoimidazole-2-thiol;1<em>H</em>-1,3-Benzodiazole-2-thiol;1,3-Dihydro-benzoimidazole-2-thione",
    "duplicated_cas_no": "2080-59-3;2254-59-3;12640-35-6;49608-67-5;98443-73-3;124449-02-1;134469-07-1;138464-55-8",
    "SMILES": "S=C1NC=2C(N1)=CC=CC2",
    "meta_data": {
        "InChI": "InChI=1S/C7H6N2S/c10-7-8-5-3-1-2-4-6(5)9-7/h1-4H,(H2,8,9,10)",
        "InChIKey": null,
        "Canonical SMILES": "S=C1NC=2C=CC=CC2N1",
        "Molecular Formula": "C<sub>7</sub>H<sub>6</sub>N<sub>2</sub>S",
        "Molecular Mass": "150.20",
        "Melting Point": "298 °C",
        "Density": "1.43 g/cm³ @ Temp: 25.000 °C"
    }
}