{
    "cas_no": "22235-81-0",
    "key_name": "<em>N</em>-Isopropylnoratropine",
    "cn_name": null,
    "alternate_name": "Benzeneacetic acid, α-(hydroxymethyl)-, (3-<em>endo</em>)-8-(1-methylethyl)-8-azabicyclo[3.2.1]oct-3-yl ester;1α<span class=\"text-smallcaps\">H</smallcap>,5α<smallcap>H</span>-Nortropan-3α-ol, 8-isopropyl-, (±)-tropate (ester);Benzeneacetic acid, α-(hydroxymethyl)-, 8-(1-methylethyl)-8-azabicyclo[3.2.1]oct-3-yl ester, <em>endo</em>-(±)-;Benzeneacetic acid, α-(hydroxymethyl)-, 8-(1-methylethyl)-8-azabicyclo[3.2.1]oct-3-yl ester, <em>endo</em>-;Tropic acid, 8-isopropyl-3α-nortropanyl ester;<em>N</em>-Isopropylnoratropine",
    "duplicated_cas_no": "88607-17-4",
    "SMILES": "C(C)(C)N1[C@]2(C[C@H](OC(C(CO)C3=CC=CC=C3)=O)C[C@@]1(CC2)[H])[H]",
    "meta_data": {
        "InChI": "InChI=1/C19H27NO3/c1-13(2)20-15-8-9-16(20)11-17(10-15)23-19(22)18(12-21)14-6-4-3-5-7-14/h3-7,13,15-18,21H,8-12H2,1-2H3/t15-,16+,17+,18?",
        "InChIKey": null,
        "Canonical SMILES": "O=C(OC1CC2N(C(C)C)C(CC2)C1)C(C=3C=CC=CC3)CO",
        "Molecular Formula": "C<sub>19</sub>H<sub>27</sub>NO<sub>3</sub>",
        "Molecular Mass": "317.42",
        "Melting Point": "114-116 °C"
    }
}