{
    "cas_no": "2420-17-9",
    "key_name": "5-(4-Hydroxyphenyl)-2,4-imidazolidinedione",
    "cn_name": "对羟基苯海因;5-对羟基苯基乙内酰脲;",
    "alternate_name": "2,4-Imidazolidinedione, 5-(4-hydroxyphenyl)-;Hydantoin, 5-(<em>p</em>-hydroxyphenyl)-;5-(4-Hydroxyphenyl)-2,4-imidazolidinedione;5-(<em>p</em>-Hydroxyphenyl)hydantoin;5-(4-Hydroxyphenyl)hydantoin;<em>p</em>-Hydroxyphenylhydantoin;<span class=\"text-smallcaps\">DL</span>-5-(4-Hydroxyphenyl)hydantoin;<span class=\"text-smallcaps\">DL</span>-5-<em>p</em>-Hydroxyphenylhydantoin;(±)-5-(4-Hydroxyphenyl)hydantoin;NSC 101474",
    "duplicated_cas_no": "54832-24-5",
    "SMILES": "O=C1C(NC(=O)N1)C2=CC=C(O)C=C2",
    "meta_data": {
        "InChI": "InChI=1S/C9H8N2O3/c12-6-3-1-5(2-4-6)7-8(13)11-9(14)10-7/h1-4,7,12H,(H2,10,11,13,14)",
        "InChIKey": null,
        "Canonical SMILES": "O=C1NC(=O)C(N1)C2=CC=C(O)C=C2",
        "Molecular Formula": "C<sub>9</sub>H<sub>8</sub>N<sub>2</sub>O<sub>3</sub>",
        "Molecular Mass": "192.17",
        "Melting Point": "262 °C"
    }
}