{
    "cas_no": "27469-53-0",
    "key_name": "Almitrine",
    "cn_name": null,
    "alternate_name": "1,3,5-Triazine-2,4-diamine, 6-[4-[bis(4-fluorophenyl)methyl]-1-piperazinyl]-<em>N</em><sup>2</sup>,<em>N</em><sup>4</sup>-di-2-propen-1-yl-;<em>s</em>-Triazine, 2,4-bis(allylamino)-6-[4-[bis(<em>p</em>-fluorophenyl)methyl]-1-piperazinyl]-;1,3,5-Triazine-2,4-diamine, 6-[4-[bis(4-fluorophenyl)methyl]-1-piperazinyl]-<em>N</em>,<em>N</em>′-di-2-propenyl-;6-[4-[Bis(4-fluorophenyl)methyl]-1-piperazinyl]-<em>N</em><sup>2</sup>,<em>N</em><sup>4</sup>-di-2-propen-1-yl-1,3,5-triazine-2,4-diamine;1-(4,6-Bis(allylamino)-2-<em>s</em>-triazinyl)-4-(4,4′-difluorobenzhydryl)piperazine;S 2620;Almitrine",
    "duplicated_cas_no": "",
    "SMILES": "C(N1CCN(CC1)C=2N=C(NCC=C)N=C(NCC=C)N2)(C3=CC=C(F)C=C3)C4=CC=C(F)C=C4",
    "meta_data": {
        "InChI": "InChI=1S/C26H29F2N7/c1-3-13-29-24-31-25(30-14-4-2)33-26(32-24)35-17-15-34(16-18-35)23(19-5-9-21(27)10-6-19)20-7-11-22(28)12-8-20/h3-12,23H,1-2,13-18H2,(H2,29,30,31,32,33)",
        "InChIKey": null,
        "Canonical SMILES": "FC1=CC=C(C=C1)C(C2=CC=C(F)C=C2)N3CCN(C=4N=C(N=C(N4)NCC=C)NCC=C)CC3",
        "Molecular Formula": "C<sub>26</sub>H<sub>29</sub>F<sub>2</sub>N<sub>7</sub>",
        "Molecular Mass": "477.55",
        "Melting Point": "181 °C"
    }
}