{
    "cas_no": "1128-08-1",
    "key_name": "Dihydrojasmone",
    "cn_name": "二氢茉莉酮;3-甲基-2-戊基-2-环戊烯-1-酮;",
    "alternate_name": "2-Cyclopenten-1-one, 3-methyl-2-pentyl-;3-Methyl-2-pentyl-2-cyclopenten-1-one;Dihydrojasmone;3-Methyl-2-pentyl-2-cyclopentenone;2-Pentyl-3-methyl-2-cyclopentenone;2-Amyl-3-methyl-2-cyclopentenone;NSC 71928;2-<em>n</em>-Pentyl-3-methyl-2-cyclopenten-1-one",
    "duplicated_cas_no": "30966-11-1",
    "SMILES": "C(CCCC)C1=C(C)CCC1=O",
    "meta_data": {
        "InChI": "InChI=1S/C11H18O/c1-3-4-5-6-10-9(2)7-8-11(10)12/h3-8H2,1-2H3",
        "InChIKey": null,
        "Canonical SMILES": "O=C1C(=C(C)CC1)CCCCC",
        "Molecular Formula": "C<sub>11</sub>H<sub>18</sub>O",
        "Molecular Mass": "166.26",
        "Boiling Point": "75-76 °C @ Press: 1 Torr",
        "Density": "0.9176 g/cm³ @ Temp: 20 °C"
    }
}