{
    "cas_no": "104-52-9",
    "key_name": "1-Chloro-3-phenylpropane",
    "cn_name": "1-氯-3-苯基丙烷;3-苯基丙基氯;",
    "alternate_name": "Benzene, (3-chloropropyl)-;(3-Chloropropyl)benzene;3-Phenylpropyl chloride;γ-Phenylpropyl chloride;3-Chloro-1-phenylpropane;γ-Chloropropylbenzene;1-Chloro-3-phenylpropane;3-Phenyl-1-chloropropane;NSC 16939",
    "duplicated_cas_no": "",
    "SMILES": "C(CCCl)C1=CC=CC=C1",
    "meta_data": {
        "InChI": "InChI=1S/C9H11Cl/c10-8-4-7-9-5-2-1-3-6-9/h1-3,5-6H,4,7-8H2",
        "InChIKey": null,
        "Canonical SMILES": "ClCCCC=1C=CC=CC1",
        "Molecular Formula": "C<sub>9</sub>H<sub>11</sub>Cl",
        "Molecular Mass": "154.64",
        "Boiling Point": "219.5 °C"
    }
}