{
    "cas_no": "2921-88-2",
    "key_name": "Chlorpyrifos",
    "cn_name": "毒死蜱;氯蜱硫磷;O,O-二乙基-O-(3,5,6-三氯-2-吡啶基)硫代磷酸;",
    "alternate_name": "Phosphorothioic acid, <em>O</em>,<em>O</em>-diethyl <em>O</em>-(3,5,6-trichloro-2-pyridinyl) ester;Phosphorothioic acid, <em>O</em>,<em>O</em>-diethyl <em>O</em>-(3,5,6-trichloro-2-pyridyl) ester;ENT 27311;<em>O</em>,<em>O</em>-Diethyl <em>O</em>-(3,5,6-trichloro-2-pyridyl) phosphorothioate;Dursban;Dowco 179;Dursban 4E;<em>O</em>,<em>O</em>-Diethyl-<em>O</em>-3,5,6-trichloro-2-pyridylphosphorothionate;Chlorpyrifos;Chlorpyriphos;Chloropyrifos;Lorsban;Chloropyriphos;Killmaster;<em>O</em>,<em>O</em>-Diethyl <em>O</em>-(3,5,6-trichloro-2-pyridinyl)phosphorothioate;Dursban 10CR;suSCon;Lorsban 50SL;Coroban;Chlorpyrifos-ethyl;Dhanusban;Pyrinex;Terial 40L;Terial;Danusban;Dursban R;Durmet;Dursban TC;Spannit;suSCon Blue;<em>O</em>,<em>O</em>-Diethyl <em>O</em>-(3,5,6-trichloro-2-pyridyl) thiophosphate;XRM 5160;Equity;XRM 429;Ethyl chlorpyriphos;Radar (fungicide);Lentrek;Lock-On;Radar;suScon Green;Bonidel;Grofo;FE;Geodinfos;Tafaban;Empire 20;Chloropyrifos-ethyl;Clorpiran;Cyfos;Dursband 48;Dursband;Clorpirifos;Chlora;Chlora (insecticide);Stipend;Pyrifos;Xinnongba;Dursban Pro;Sabre;Emperor;Gigant;Chloroban;suSCon Plus;Saurus;Chlorpyrifos E;EF 1315;Nufos 4E;LAF 1;Grub Guard;Termicot;Nufos;GF 2153;Flower Power;Lorsban 15G;Pyrical;Lorsban Advanced;Spinter;Dursban L.O.;Pestban;Lorsban 48E;Pyriban;Pirfos Glex;Pyrinex 480EC;Pyrinex 480;Dursban 20 EC;Dursban 75WG;Termifos;Hilban;CPF Zamba;Warhawk;Chlorofet;Dursban 48EC;Klorpan;Klorpan 480 EC;Megaban 20EC;Megaban;Megaban 25WP;Megaban Super;Sunpyrifos;MeSH ID: D004390",
    "duplicated_cas_no": "12768-48-8;39475-55-3",
    "SMILES": "P(OC1=C(Cl)C=C(Cl)C(Cl)=N1)(OCC)(OCC)=S",
    "meta_data": {
        "InChI": "InChI=1S/C9H11Cl3NO3PS/c1-3-14-17(18,15-4-2)16-9-7(11)5-6(10)8(12)13-9/h5H,3-4H2,1-2H3",
        "InChIKey": null,
        "Canonical SMILES": "S=P(OC1=NC(Cl)=C(Cl)C=C1Cl)(OCC)OCC",
        "Molecular Formula": "C<sub>9</sub>H<sub>11</sub>Cl<sub>3</sub>NO<sub>3</sub>PS",
        "Molecular Mass": "350.59",
        "Melting Point": "41-42 °C",
        "Density": "1.398 g/cm³ @ Temp: 43.5 °C"
    }
}