{
    "cas_no": "3613-73-8",
    "key_name": "Dimebon",
    "cn_name": null,
    "alternate_name": "1<em>H</em>-Pyrido[4,3-<em>b</em>]indole, 2,3,4,5-tetrahydro-2,8-dimethyl-5-[2-(6-methyl-3-pyridinyl)ethyl]-;1<em>H</em>-Pyrido[4,3-<em>b</em>]indole, 2,3,4,5-tetrahydro-2,8-dimethyl-5-[2-(6-methyl-3-pyridyl)ethyl]-;2,3,4,5-Tetrahydro-2,8-dimethyl-5-[2-(6-methyl-3-pyridinyl)ethyl]-1<em>H</em>-pyrido[4,3-<em>b</em>]indole;Dimeboline;Preparation 84;Dimebolin;Dimebone;Dimebon;2,3,4,5-Tetrahydro-2,8-dimethyl-5-[2-(6-methylpyridin-3-yl)ethyl]-1<em>H</em>-pyrido[4,3-<em>b</em>]indole;Latrepirdine;2,8-Dimethyl-5-[2-(6-methylpyridin-3-yl)ethyl]-3,4-dihydro-1<em>H</em>-pyrido[4,3-<em>b</em>]indole;2,8-Dimethyl-5-[2-(6-methyl-pyridin-3-yl)-ethyl]-2,3,4,5-tetrahydro-1<em>H</em>-pyrido[4,3-<em>b</em>]indole",
    "duplicated_cas_no": "12687-54-6;20684-30-4",
    "SMILES": "C(CC=1C=CC(C)=NC1)N2C=3C(C4=C2CCN(C)C4)=CC(C)=CC3",
    "meta_data": {
        "InChI": "InChI=1S/C21H25N3/c1-15-4-7-20-18(12-15)19-14-23(3)10-9-21(19)24(20)11-8-17-6-5-16(2)22-13-17/h4-7,12-13H,8-11,14H2,1-3H3",
        "InChIKey": null,
        "Canonical SMILES": "N=1C=C(C=CC1C)CCN2C=3C=CC(=CC3C4=C2CCN(C)C4)C",
        "Molecular Formula": "C<sub>21</sub>H<sub>25</sub>N<sub>3</sub>",
        "Molecular Mass": "319.44",
        "Melting Point": "115-116 °C"
    }
}