{
    "cas_no": "637-03-6",
    "key_name": "Phenylarsine oxide",
    "cn_name": null,
    "alternate_name": "Arsine, oxophenyl-;Benzene, arsenoso-;Oxophenylarsine;Arsenosobenzene;Arzene;Phenylarsine oxide;Phenylarsoxane;NSC 42470",
    "duplicated_cas_no": "8052-79-7;2569107-90-8",
    "SMILES": "[As](=O)C1=CC=CC=C1",
    "meta_data": {
        "InChI": "InChI=1S/C6H5AsO/c8-7-6-4-2-1-3-5-6/h1-5H",
        "InChIKey": null,
        "Canonical SMILES": "O=[As]C=1C=CC=CC1",
        "Molecular Formula": "C<sub>6</sub>H<sub>5</sub>AsO",
        "Molecular Mass": "168.02",
        "Melting Point": "145 °C"
    }
}