{
    "cas_no": "56649-48-0",
    "key_name": "1-[(1<em>R</em>)-1-Phenylethyl]-1<em>H</em>-imidazole-5-carboxylic acid",
    "cn_name": null,
    "alternate_name": "1<em>H</em>-Imidazole-5-carboxylic acid, 1-[(1<em>R</em>)-1-phenylethyl]-;1<em>H</em>-Imidazole-5-carboxylic acid, 1-(1-phenylethyl)-, (<em>R</em>)-;1-[(1<em>R</em>)-1-Phenylethyl]-1<em>H</em>-imidazole-5-carboxylic acid;(<em>R</em>)-(+)-1-(1-Phenylethyl)-1<em>H</em>-imidazole-5-carboxylic acid;R 28141;1<em>H</em>-Imidazole-5-carboxylic acid 1-[(1R)-1-phenylethyl]-;(R)-1-(1-Phenylethyl)-1<em>H</em>-imidazole-5-carboxylic acid",
    "duplicated_cas_no": "",
    "SMILES": "[C@H](C)(N1C(C(O)=O)=CN=C1)C2=CC=CC=C2",
    "meta_data": {
        "InChI": "InChI=1S/C12H12N2O2/c1-9(10-5-3-2-4-6-10)14-8-13-7-11(14)12(15)16/h2-9H,1H3,(H,15,16)/t9-/m1/s1",
        "InChIKey": null,
        "Canonical SMILES": "O=C(O)C1=CN=CN1C(C=2C=CC=CC2)C",
        "Molecular Formula": "C<sub>12</sub>H<sub>12</sub>N<sub>2</sub>O<sub>2</sub>",
        "Molecular Mass": "216.24",
        "Melting Point": "156.3 °C"
    }
}