{
    "cas_no": "5704-04-1",
    "key_name": "Tricine",
    "cn_name": "三(羟甲基)甲基甘氨酸;N-三(羟甲基)甲基甘氨酸;",
    "alternate_name": "Glycine, <em>N</em>-[2-hydroxy-1,1-bis(hydroxymethyl)ethyl]-;<em>N</em>-[2-Hydroxy-1,1-bis(hydroxymethyl)ethyl]glycine;Tricine;<em>N</em>-[Tris(hydroxymethyl)methyl]glycine;NSC 369995;2-[[1,3-Dihydroxy-2-(hydroxymethyl)propan-2-yl]amino]acetic acid",
    "duplicated_cas_no": "1644287-59-1",
    "SMILES": "C(NCC(O)=O)(CO)(CO)CO",
    "meta_data": {
        "InChI": "InChI=1S/C6H13NO5/c8-2-6(3-9,4-10)7-1-5(11)12/h7-10H,1-4H2,(H,11,12)",
        "InChIKey": null,
        "Canonical SMILES": "O=C(O)CNC(CO)(CO)CO",
        "Molecular Formula": "C<sub>6</sub>H<sub>13</sub>NO<sub>5</sub>",
        "Molecular Mass": "179.17",
        "Melting Point": "187 °C"
    }
}