{
    "cas_no": "15029-36-4",
    "key_name": "2-Cyano-<em>N</em>-ethylacetamide",
    "cn_name": null,
    "alternate_name": "Acetamide, 2-cyano-<em>N</em>-ethyl-;2-Cyano-<em>N</em>-ethylacetamide;<em>N</em>-Ethylcyanoacetamide;Cyanoacetic acid ethylamide;NSC 112760;<em>N</em>-Ethyl-2-cyanoacetamide",
    "duplicated_cas_no": "",
    "SMILES": "C(CC#N)(NCC)=O",
    "meta_data": {
        "InChI": "InChI=1S/C5H8N2O/c1-2-7-5(8)3-4-6/h2-3H2,1H3,(H,7,8)",
        "InChIKey": null,
        "Canonical SMILES": "N#CCC(=O)NCC",
        "Molecular Formula": "C<sub>5</sub>H<sub>8</sub>N<sub>2</sub>O",
        "Molecular Mass": "112.13",
        "Melting Point": "74 °C"
    }
}