{
    "cas_no": "14263-89-9",
    "key_name": "Benzenediazonium, 4-chloro-2-nitro-, (<em>T</em>-4)-tetrachlorozincate(2-) (2:1)",
    "cn_name": "(T-4)-四氯锌酸-4-氯-2-硝基苯重氮盐;",
    "alternate_name": "Benzenediazonium, 4-chloro-2-nitro-, (<em>T</em>-4)-tetrachlorozincate(2-) (2:1);Benzenediazonium, 4-chloro-2-nitro-, tetrachlorozincate(2-) (2:1);Bis(4-chloro-2-nitrobenzenediazonium) tetrachlorozincate;Zincate(2-), tetrachloro-, (<em>T</em>-4)-, bis(4-chloro-2-nitrobenzenediazonium)",
    "duplicated_cas_no": "",
    "SMILES": "N(=O)(=O)C1=C([N+]#N)C=CC(Cl)=C1.[Zn+2]([Cl-])([Cl-])([Cl-])[Cl-]",
    "meta_data": {
        "InChI": "InChI=1S/C6H3ClN3O2.4ClH.Zn/c7-4-1-2-5(9-8)6(3-4)10(11)12;;;;;/h1-3H;4*1H;/q+1;;;;;+2/p-4",
        "InChIKey": null,
        "Canonical SMILES": "N#[N+]C1=CC=C(Cl)C=C1N(=O)=O.[Cl-][Zn+2]([Cl-])([Cl-])[Cl-]",
        "Molecular Formula": "C<sub>6</sub>H<sub>3</sub>ClN<sub>3</sub>O<sub>2</sub>.<sup>1</sup>/<sub>2</sub>Cl<sub>4</sub>Zn",
        "Molecular Mass": "",
        "Melting Point": "141-142 °C (decomp)"
    }
}