{
    "cas_no": "67914-60-7",
    "key_name": "1-Acetyl-4-(4-hydroxyphenyl)piperazine",
    "cn_name": "1-乙酰基-4-(4-羟基苯基)哌嗪;",
    "alternate_name": "Ethanone, 1-[4-(4-hydroxyphenyl)-1-piperazinyl]-;Piperazine, 1-acetyl-4-(4-hydroxyphenyl)-;1-[4-(4-Hydroxyphenyl)-1-piperazinyl]ethanone;T 1141;1-Acetyl-4-(<em>p</em>-hydroxyphenyl)piperazine;1-Acetyl-4-(4-hydroxyphenyl)piperazine;4-(4-Acetylpiperazino)phenol;1-[4-(4-Hydroxyphenyl)piperazin-1-yl]ethanone;4-(4-Acetylpiperazin-1-yl)phenol;1-[4-(4-Hydroxyphenyl)piperazin-1-yl]ethan-1-one",
    "duplicated_cas_no": "1229612-23-0",
    "SMILES": "C(C)(=O)N1CCN(CC1)C2=CC=C(O)C=C2",
    "meta_data": {
        "InChI": "InChI=1S/C12H16N2O2/c1-10(15)13-6-8-14(9-7-13)11-2-4-12(16)5-3-11/h2-5,16H,6-9H2,1H3",
        "InChIKey": null,
        "Canonical SMILES": "O=C(N1CCN(C2=CC=C(O)C=C2)CC1)C",
        "Molecular Formula": "C<sub>12</sub>H<sub>16</sub>N<sub>2</sub>O<sub>2</sub>",
        "Molecular Mass": "220.27",
        "Melting Point": "180 °C"
    }
}