{
    "cas_no": "35351-21-4",
    "key_name": "5-Bromo-2-benzofurancarboxamide",
    "cn_name": null,
    "alternate_name": "2-Benzofurancarboxamide, 5-bromo-;5-Bromo-2-benzofurancarboxamide;5-Bromo-2-benzo[<em>b</em>]furancarboxamide;5-Bromobenzofuran-2-carboxamide;5-Bromobenzo[<em>b</em>]furan-2-carboxamide",
    "duplicated_cas_no": "",
    "SMILES": "C(N)(=O)C=1OC=2C(C1)=CC(Br)=CC2",
    "meta_data": {
        "InChI": "InChI=1S/C9H6BrNO2/c10-6-1-2-7-5(3-6)4-8(13-7)9(11)12/h1-4H,(H2,11,12)",
        "InChIKey": null,
        "Canonical SMILES": "O=C(N)C=1OC=2C=CC(Br)=CC2C1",
        "Molecular Formula": "C<sub>9</sub>H<sub>6</sub>BrNO<sub>2</sub>",
        "Molecular Mass": "240.05",
        "Melting Point": "211-213 °C"
    }
}