{
    "cas_no": "57381-37-0",
    "key_name": "2-Bromo-5-chlorobenzonitrile",
    "cn_name": null,
    "alternate_name": "Benzonitrile, 2-bromo-5-chloro-;2-Bromo-5-chlorobenzonitrile",
    "duplicated_cas_no": "",
    "SMILES": "C(#N)C1=C(Br)C=CC(Cl)=C1",
    "meta_data": {
        "InChI": "InChI=1S/C7H3BrClN/c8-7-2-1-6(9)3-5(7)4-10/h1-3H",
        "InChIKey": null,
        "Canonical SMILES": "N#CC1=CC(Cl)=CC=C1Br",
        "Molecular Formula": "C<sub>7</sub>H<sub>3</sub>BrClN",
        "Molecular Mass": "216.46",
        "Melting Point": "137-140 °C"
    }
}