{
    "cas_no": "270263-01-9",
    "key_name": "(β<em>S</em>)-β-[[(9<em>H</em>-Fluoren-9-ylmethoxy)carbonyl]amino]-3-thiophenebutanoic acid",
    "cn_name": null,
    "alternate_name": "3-Thiophenebutanoic acid, β-[[(9<em>H</em>-fluoren-9-ylmethoxy)carbonyl]amino]-, (β<em>S</em>)-;(β<em>S</em>)-β-[[(9<em>H</em>-Fluoren-9-ylmethoxy)carbonyl]amino]-3-thiophenebutanoic acid",
    "duplicated_cas_no": "",
    "SMILES": "C(OC(N[C@@H](CC=1C=CSC1)CC(O)=O)=O)C2C=3C(C=4C2=CC=CC4)=CC=CC3",
    "meta_data": {
        "InChI": "InChI=1S/C23H21NO4S/c25-22(26)12-16(11-15-9-10-29-14-15)24-23(27)28-13-21-19-7-3-1-5-17(19)18-6-2-4-8-20(18)21/h1-10,14,16,21H,11-13H2,(H,24,27)(H,25,26)/t16-/m0/s1",
        "InChIKey": null,
        "Canonical SMILES": "O=C(OCC1C=2C=CC=CC2C=3C=CC=CC31)NC(CC(=O)O)CC4=CSC=C4",
        "Molecular Formula": "C<sub>23</sub>H<sub>21</sub>NO<sub>4</sub>S",
        "Molecular Mass": "407.48",
        "Melting Point": "157-158 °C"
    }
}