{
    "cas_no": "2885-00-9",
    "key_name": "1-Octadecanethiol",
    "cn_name": "十八硫醇;",
    "alternate_name": "1-Octadecanethiol;Octadecyl mercaptan;Stearyl mercaptan;<em>n</em>-Octadecyl mercaptan;Octadecanethiol;1-Mercaptooctadecane;1-Octadecyl mercaptan;Octadecylthiol;<em>n</em>-Octadecanethiol;NSC 5545;<em>n</em>-Octadecyl thiolate;1-Octadecylthiol",
    "duplicated_cas_no": "",
    "SMILES": "C(CCCCCCCCC)CCCCCCCCS",
    "meta_data": {
        "InChI": "InChI=1S/C18H38S/c1-2-3-4-5-6-7-8-9-10-11-12-13-14-15-16-17-18-19/h19H,2-18H2,1H3",
        "InChIKey": null,
        "Canonical SMILES": "SCCCCCCCCCCCCCCCCCC",
        "Molecular Formula": "C<sub>18</sub>H<sub>38</sub>S",
        "Molecular Mass": "286.56",
        "Boiling Point": "360 °C",
        "Melting Point": "30 °C",
        "Density": "0.847 g/cm³ @ Temp: 24.9 °C"
    }
}