{
    "cas_no": "5241-58-7",
    "key_name": "Phenylalaninamide",
    "cn_name": "L-苯丙氨酰胺;",
    "alternate_name": "Benzenepropanamide, α-amino-, (α<em>S</em>)-;Hydrocinnamamide, α-amino-, <span class=\"text-smallcaps\">L</span>-;Benzenepropanamide, α-amino-, (<em>S</em>)-;(α<em>S</em>)-α-Aminobenzenepropanamide;<span class=\"text-smallcaps\">L</span>-Phenylalaninamide;Phenylalaninamide;Phenylalanylamide;<span class=\"text-smallcaps\">L</span>-Phenylalanine amide;(<em>S</em>)-Phenylalaninamide;(<em>S</em>)-2-Amino-3-phenylpropionamide;(<em>S</em>)-2-Amino-3-phenylpropanamide;(2S)-2-Amino-3-phenylpropanamide;(2<em>S</em>)-2-Amino-3-phenylpropanamide",
    "duplicated_cas_no": "49630-29-7",
    "SMILES": "C([C@@H](C(N)=O)N)C1=CC=CC=C1",
    "meta_data": {
        "InChI": "InChI=1S/C9H12N2O/c10-8(9(11)12)6-7-4-2-1-3-5-7/h1-5,8H,6,10H2,(H2,11,12)/t8-/m0/s1",
        "InChIKey": null,
        "Canonical SMILES": "O=C(N)C(N)CC=1C=CC=CC1",
        "Molecular Formula": "C<sub>9</sub>H<sub>12</sub>N<sub>2</sub>O",
        "Molecular Mass": "164.20",
        "Melting Point": "138-139 °C"
    }
}