{
    "cas_no": "2726-73-0",
    "key_name": "1,12-Octadecanediol",
    "cn_name": null,
    "alternate_name": "1,12-Octadecanediol;12-Hydroxystearyl alcohol;Alfol A;Loxanol;NSC 8551;Sovermol 912;1,12-Dihydroxyoctadecane",
    "duplicated_cas_no": "",
    "SMILES": "C(CCCCCCCCCCCO)(CCCCCC)O",
    "meta_data": {
        "InChI": "InChI=1S/C18H38O2/c1-2-3-4-12-15-18(20)16-13-10-8-6-5-7-9-11-14-17-19/h18-20H,2-17H2,1H3",
        "InChIKey": null,
        "Canonical SMILES": "OCCCCCCCCCCCC(O)CCCCCC",
        "Molecular Formula": "C<sub>18</sub>H<sub>38</sub>O<sub>2</sub>",
        "Molecular Mass": "286.49",
        "Boiling Point": "180-182 °C @ Press: 0.5 Torr",
        "Melting Point": "66-67 °C"
    }
}