{
    "cas_no": "7397-06-0",
    "key_name": "4-(1,1-Dimethylethyl)-1,2-dimethylbenzene",
    "cn_name": null,
    "alternate_name": "Benzene, 4-(1,1-dimethylethyl)-1,2-dimethyl-;<em>o</em>-Xylene, 4-<em>tert</em>-butyl-;4-(1,1-Dimethylethyl)-1,2-dimethylbenzene;4-<em>tert</em>-Butyl-1,2-dimethylbenzene;4-<em>tert</em>-Butyl-<em>o</em>-xylene;3,4-Dimethyl-1-<em>tert</em>-butylbenzene;1-<em>tert</em>-Butyl-3,4-dimethylbenzene;1,2-Dimethyl-4-<em>tert</em>-butylbenzene;1,2-Dimethyl-4-(1,1-dimethylethyl)benzene",
    "duplicated_cas_no": "",
    "SMILES": "C(C)(C)(C)C1=CC(C)=C(C)C=C1",
    "meta_data": {
        "InChI": "InChI=1S/C12H18/c1-9-6-7-11(8-10(9)2)12(3,4)5/h6-8H,1-5H3",
        "InChIKey": null,
        "Canonical SMILES": "C=1C=C(C(=CC1C(C)(C)C)C)C",
        "Molecular Formula": "C<sub>12</sub>H<sub>18</sub>",
        "Molecular Mass": "162.27",
        "Boiling Point": "83-85 °C @ Press: 3 Torr",
        "Melting Point": "-25.6 °C",
        "Density": "0.8733 g/cm³ @ Temp: 20 °C"
    }
}