{
    "cas_no": "205-25-4",
    "key_name": "7<em>H</em>-Benzo[<em>c</em>]carbazole",
    "cn_name": null,
    "alternate_name": "7<em>H</em>-Benzo[<em>c</em>]carbazole;3,4-Benzocarbazole;7-Aza-7<em>H</em>-benzo[<em>c</em>]fluorene;NSC 108995",
    "duplicated_cas_no": "",
    "SMILES": "C=12C=3C(NC1C=CC=4C2=CC=CC4)=CC=CC3",
    "meta_data": {
        "InChI": "InChI=1S/C16H11N/c1-2-6-12-11(5-1)9-10-15-16(12)13-7-3-4-8-14(13)17-15/h1-10,17H",
        "InChIKey": null,
        "Canonical SMILES": "C=1C=CC2=C(C1)C=CC=3NC=4C=CC=CC4C32",
        "Molecular Formula": "C<sub>16</sub>H<sub>11</sub>N",
        "Molecular Mass": "217.27",
        "Boiling Point": "448 °C",
        "Melting Point": "134 °C"
    }
}