{
    "cas_no": "18438-38-5",
    "key_name": "2-(Methylthio)pyridine",
    "cn_name": "2-甲硫基吡啶;",
    "alternate_name": "Pyridine, 2-(methylthio)-;2-(Methylthio)pyridine;Methyl 2-pyridyl sulfide;2-Pyridyl methyl sulfide;α-(Methylthio)pyridine;2-(Methylsulfanyl)pyridine;2-Methylsulfanyl-pyridine;2-Methylsulfanylpyridine",
    "duplicated_cas_no": "",
    "SMILES": "S(C)C1=CC=CC=N1",
    "meta_data": {
        "InChI": "InChI=1S/C6H7NS/c1-8-6-4-2-3-5-7-6/h2-5H,1H3",
        "InChIKey": null,
        "Canonical SMILES": "N=1C=CC=CC1SC",
        "Molecular Formula": "C<sub>6</sub>H<sub>7</sub>NS",
        "Molecular Mass": "125.19",
        "Boiling Point": "91 °C @ Press: 22 Torr"
    }
}