{
    "cas_no": "1191-25-9",
    "key_name": "6-Hydroxyhexanoic acid",
    "cn_name": "6-羟基己酸;6-羟基己酸;",
    "alternate_name": "Hexanoic acid, 6-hydroxy-;6-Hydroxyhexanoic acid;6-Hydroxycaproic acid;ε-Hydroxycaproic acid;NSC 617319",
    "duplicated_cas_no": "",
    "SMILES": "C(CC(O)=O)CCCO",
    "meta_data": {
        "InChI": "InChI=1S/C6H12O3/c7-5-3-1-2-4-6(8)9/h7H,1-5H2,(H,8,9)",
        "InChIKey": null,
        "Canonical SMILES": "O=C(O)CCCCCO",
        "Molecular Formula": "C<sub>6</sub>H<sub>12</sub>O<sub>3</sub>",
        "Molecular Mass": "132.16",
        "Boiling Point": "135-140 °C @ Press: 16 Torr",
        "Melting Point": "40-41 °C",
        "Density": "1.0214 g/cm³ @ Temp: 20 °C"
    }
}