{
    "cas_no": "2051-62-9",
    "key_name": "4-Chlorobiphenyl",
    "cn_name": "4-氯联苯;对氯联苯;4-氯-1,1\"-联苯;",
    "alternate_name": "1,1′-Biphenyl, 4-chloro-;Biphenyl, 4-chloro-;4-Chloro-1,1′-biphenyl;4-Chlorobiphenyl;<em>p</em>-Chlorobiphenyl;4-Chlorodiphenyl;1-Chloro-4-phenylbenzene;PCB 3;1,1′-Biphenyl-4-yl chloride;NSC 37066;4-Biphenylyl chloride",
    "duplicated_cas_no": "",
    "SMILES": "ClC1=CC=C(C=C1)C2=CC=CC=C2",
    "meta_data": {
        "InChI": "InChI=1S/C12H9Cl/c13-12-8-6-11(7-9-12)10-4-2-1-3-5-10/h1-9H",
        "InChIKey": null,
        "Canonical SMILES": "ClC=1C=CC(=CC1)C=2C=CC=CC2",
        "Molecular Formula": "C<sub>12</sub>H<sub>9</sub>Cl",
        "Molecular Mass": "188.65",
        "Boiling Point": "292.9 °C",
        "Melting Point": "78.8 °C"
    }
}