{
    "cas_no": "13127-88-3",
    "key_name": "Phen-<em>2</em>,<em>3</em>,<em>4</em>,<em>5</em>,<em>6</em>-<em>d</em><sub>5</sub>-ol-<em>d</em>",
    "cn_name": "苯酚-d6;六氘苯酚;",
    "alternate_name": "Phen-<em>2</em>,<em>3</em>,<em>4</em>,<em>5</em>,<em>6</em>-<em>d</em><sub>5</sub>-ol-<em>d</em>;Phenol-<em>d</em><sub>6</sub>;Hexadeuteriophenol;1,2,3,4,5-Pentadeuterio-6-deuteriooxybenzene",
    "duplicated_cas_no": "",
    "SMILES": "O(C1=C(C(=C(C(=C1[2H])[2H])[2H])[2H])[2H])[2H]",
    "meta_data": {
        "InChI": "InChI=1S/C6H6O/c7-6-4-2-1-3-5-6/h1-5,7H/i1D,2D,3D,4D,5D/hD",
        "InChIKey": null,
        "Canonical SMILES": "OC=1C=CC=CC1",
        "Molecular Formula": "C<sub>6</sub>D<sub>6</sub>O",
        "Molecular Mass": "",
        "Melting Point": "40-40.5 °C"
    }
}