{
    "cas_no": "3622-19-3",
    "key_name": "2-Bromo-6-methylbenzothiazole",
    "cn_name": null,
    "alternate_name": "Benzothiazole, 2-bromo-6-methyl-;2-Bromo-6-methylbenzothiazole;2-Bromo-6-methylbenzo[<em>d</em>]thiazole;2-Bromo-6-methyl-1,3-benzothiazole",
    "duplicated_cas_no": "",
    "SMILES": "BrC1=NC=2C(S1)=CC(C)=CC2",
    "meta_data": {
        "InChI": "InChI=1S/C8H6BrNS/c1-5-2-3-6-7(4-5)11-8(9)10-6/h2-4H,1H3",
        "InChIKey": null,
        "Canonical SMILES": "BrC1=NC=2C=CC(=CC2S1)C",
        "Molecular Formula": "C<sub>8</sub>H<sub>6</sub>BrNS",
        "Molecular Mass": "228.11",
        "Melting Point": "42-43 °C"
    }
}