{
    "cas_no": "505-29-3",
    "key_name": "1,4-Dithiane",
    "cn_name": "1,4-二噻烷;1,4-二硫杂环己烷;",
    "alternate_name": "1,4-Dithiane;<em>p</em>-Dithiane;1,4-Dithiin, tetrahydro-;1,4-Dithiacyclohexane;NSC 24178",
    "duplicated_cas_no": "",
    "SMILES": "C1CSCCS1",
    "meta_data": {
        "InChI": "InChI=1S/C4H8S2/c1-2-6-4-3-5-1/h1-4H2",
        "InChIKey": null,
        "Canonical SMILES": "S1CCSCC1",
        "Molecular Formula": "C<sub>4</sub>H<sub>8</sub>S<sub>2</sub>",
        "Molecular Mass": "120.24",
        "Boiling Point": "199.5 °C",
        "Melting Point": "112.3 °C"
    }
}