{
    "cas_no": "2365-26-6",
    "key_name": "1-Formylisoquinoline thiosemicarbazone",
    "cn_name": null,
    "alternate_name": "Hydrazinecarbothioamide, 2-(1-isoquinolinylmethylene)-;Isoquinaldaldehyde, thiosemicarbazone;2-(1-Isoquinolinylmethylene)hydrazinecarbothioamide;IQ 1;1-Formylisoquinoline thiosemicarbazone;1-Isoquinolinecarboxaldehyde, thiosemicarbazone;NSC 92188",
    "duplicated_cas_no": "",
    "SMILES": "C(=NNC(N)=S)C=1C2=C(C=CN1)C=CC=C2",
    "meta_data": {
        "InChI": "InChI=1S/C11H10N4S/c12-11(16)15-14-7-10-9-4-2-1-3-8(9)5-6-13-10/h1-7H,(H3,12,15,16)",
        "InChIKey": null,
        "Canonical SMILES": "S=C(N)NN=CC1=NC=CC=2C=CC=CC12",
        "Molecular Formula": "C<sub>11</sub>H<sub>10</sub>N<sub>4</sub>S",
        "Molecular Mass": "230.29",
        "Melting Point": "224-226 °C (decomp)"
    }
}