{
    "cas_no": "19430-93-4",
    "key_name": "(Perfluorobutyl)ethylene",
    "cn_name": "全氟丁基乙烯;1H,1H,2H-全氟-1-己烯;3,3,4,4,5,5,6,6,6-九氟-1-己烯;",
    "alternate_name": "1-Hexene, 3,3,4,4,5,5,6,6,6-nonafluoro-;3,3,4,4,5,5,6,6,6-Nonafluoro-1-hexene;1,1,2-Trihydroperfluoro-1-hexene;(Perfluorobutyl)ethene;(Perfluorobutyl)ethylene;1<em>H</em>,1<em>H</em>,2<em>H</em>-Nonafluoro-1-hexene;Zonyl PFBE;3,3,4,4,5,5,6,6,6-Nonafluorohexene;F 1420;1<em>H</em>,1<em>H</em>,2<em>H</em>-Perfluoro-1-hexene;6,6,6,5,5,4,4,3,3-Nonafluoro-1-hexene;Cheminox PFBE;1-(Perfluorobutyl)ethene",
    "duplicated_cas_no": "",
    "SMILES": "C(C(C(F)(F)F)(F)F)(C(C=C)(F)F)(F)F",
    "meta_data": {
        "InChI": "InChI=1S/C6H3F9/c1-2-3(7,8)4(9,10)5(11,12)6(13,14)15/h2H,1H2",
        "InChIKey": null,
        "Canonical SMILES": "FC(F)(F)C(F)(F)C(F)(F)C(F)(F)C=C",
        "Molecular Formula": "C<sub>6</sub>H<sub>3</sub>F<sub>9</sub>",
        "Molecular Mass": "246.07",
        "Boiling Point": "59 °C @ Press: 760 Torr"
    }
}