{
    "cas_no": "58461-27-1",
    "key_name": "(±)-Lavandulol",
    "cn_name": "5-甲基-2-(1-甲乙烯基)-4-己烯-1-醇;",
    "alternate_name": "4-Hexen-1-ol, 5-methyl-2-(1-methylethenyl)-;4-Hexen-1-ol, 2-isopropenyl-5-methyl-;5-Methyl-2-(1-methylethenyl)-4-hexen-1-ol;(±)-Lavandulol;2-Isopropenyl-5-methyl-4-hexen-1-ol",
    "duplicated_cas_no": "1845-51-8",
    "SMILES": "C(CC=C(C)C)(C(C)=C)CO",
    "meta_data": {
        "InChI": "InChI=1S/C10H18O/c1-8(2)5-6-10(7-11)9(3)4/h5,10-11H,3,6-7H2,1-2,4H3",
        "InChIKey": null,
        "Canonical SMILES": "OCC(C(=C)C)CC=C(C)C",
        "Molecular Formula": "C<sub>10</sub>H<sub>18</sub>O",
        "Molecular Mass": "154.25",
        "Boiling Point": "100-101 °C @ Press: 16 Torr",
        "Density": "0.8798 g/cm³ @ Temp: 17 °C"
    }
}