{
    "cas_no": "51781-21-6",
    "key_name": "Carteolol hydrochloride",
    "cn_name": null,
    "alternate_name": "2(1<em>H</em>)-Quinolinone, 5-[3-[(1,1-dimethylethyl)amino]-2-hydroxypropoxy]-3,4-dihydro-, hydrochloride (1:1);2(1<em>H</em>)-Quinolinone, 5-[3-[(1,1-dimethylethyl)amino]-2-hydroxypropoxy]-3,4-dihydro-, monohydrochloride;5-(3-<em>tert</em>-Butylamino-2-hydroxy)propoxy-3,4-dihydrocarbostyril hydrochloride;OPC 1085;OC 1085;Carteolol hydrochloride;Mikelan;<em>dl</em>-Carteolol hydrochloride;Cartrol;Tenalin;Teoptic;Tenalet;Carteol;Arteoptic;Caltidren;Optipress;Endak;NSC 300906;Ocupress",
    "duplicated_cas_no": "64813-19-0",
    "SMILES": "O(CC(CNC(C)(C)C)O)C1=C2C(=CC=C1)NC(=O)CC2.Cl",
    "meta_data": {
        "InChI": "InChI=1S/C16H24N2O3.ClH/c1-16(2,3)17-9-11(19)10-21-14-6-4-5-13-12(14)7-8-15(20)18-13;/h4-6,11,17,19H,7-10H2,1-3H3,(H,18,20);1H",
        "InChIKey": null,
        "Canonical SMILES": "Cl.O=C1NC=2C=CC=C(OCC(O)CNC(C)(C)C)C2CC1",
        "Molecular Formula": "C<sub>16</sub>H<sub>24</sub>N<sub>2</sub>O<sub>3</sub>.ClH",
        "Molecular Mass": "",
        "Melting Point": "278 °C"
    }
}