{
    "cas_no": "2233-18-3",
    "key_name": "3,5-Dimethyl-4-hydroxybenzaldehyde",
    "cn_name": "3,5-二甲基-4-羟基苯甲醛;4-羟基-3,5-二甲基苯甲醛;",
    "alternate_name": "Benzaldehyde, 4-hydroxy-3,5-dimethyl-;4-Hydroxy-3,5-dimethylbenzaldehyde;4-Formyl-2,6-xylenol;3,5-Dimethyl-4-hydroxybenzaldehyde;NSC 128405",
    "duplicated_cas_no": "",
    "SMILES": "C(=O)C1=CC(C)=C(O)C(C)=C1",
    "meta_data": {
        "InChI": "InChI=1S/C9H10O2/c1-6-3-8(5-10)4-7(2)9(6)11/h3-5,11H,1-2H3",
        "InChIKey": null,
        "Canonical SMILES": "O=CC=1C=C(C(O)=C(C1)C)C",
        "Molecular Formula": "C<sub>9</sub>H<sub>10</sub>O<sub>2</sub>",
        "Molecular Mass": "150.17",
        "Melting Point": "114.5-115 °C"
    }
}