{
    "cas_no": "4124-41-8",
    "key_name": "<em>p</em>-Toluenesulfonic anhydride",
    "cn_name": "4-甲苯磺酸酐;对甲苯磺酸酐;",
    "alternate_name": "Benzenesulfonic acid, 4-methyl-, 1,1′-anhydride;<em>p</em>-Toluenesulfonic anhydride;Benzenesulfonic acid, 4-methyl-, anhydride;<em>p</em>-Toluenesulfonic acid anhydride;4-Toluenesulfonic anhydride;Tosylic anhydride;4-Toluenesulfonic acid anhydride;Toluenesulfonic anhydride;4-Methylphenylsulfonic anhydride;<em>p</em>-Toluenesulfonyl anhydride;4-Methylbenzenesulfonic acid anhydride;Toluene-4-sulfonic acid ahnydride;(4-Methylphenyl)sulfonyl 4-methylbenzenesulfonate;1,3-Bis(4-methylphenyl)-1,1,3,3-tetraoxo-1λ6,3λ6-dithioxane;4-Methylbenzenesulfonic anhydride;Ts<sub>2</sub>O;<em>p</em>-Tolylsulfonyl 4-methylbenzenesulfonate",
    "duplicated_cas_no": "135089-46-2;2578126-57-3",
    "SMILES": "S(OS(=O)(=O)C1=CC=C(C)C=C1)(=O)(=O)C2=CC=C(C)C=C2",
    "meta_data": {
        "InChI": "InChI=1S/C14H14O5S2/c1-11-3-7-13(8-4-11)20(15,16)19-21(17,18)14-9-5-12(2)6-10-14/h3-10H,1-2H3",
        "InChIKey": null,
        "Canonical SMILES": "O=S(=O)(OS(=O)(=O)C1=CC=C(C=C1)C)C2=CC=C(C=C2)C",
        "Molecular Formula": "C<sub>14</sub>H<sub>14</sub>O<sub>5</sub>S<sub>2</sub>",
        "Molecular Mass": "326.39",
        "Melting Point": "122-125 °C (decomp)"
    }
}