{
    "cas_no": "618-45-1",
    "key_name": "3-Isopropylphenol",
    "cn_name": "间异丙基苯酚;3-(1-甲乙基)苯酚;间羟基枯烯;",
    "alternate_name": "Phenol, 3-(1-methylethyl)-;Phenol, <em>m</em>-isopropyl-;3-(1-Methylethyl)phenol;3-Isopropylphenol;<em>m</em>-Cumenol;<em>m</em>-Isopropylphenol;NSC 2209;3-(Propan-2-yl)phenol;3-Isopropylhydroxybenzene",
    "duplicated_cas_no": "",
    "SMILES": "C(C)(C)C1=CC(O)=CC=C1",
    "meta_data": {
        "InChI": "InChI=1S/C9H12O/c1-7(2)8-4-3-5-9(10)6-8/h3-7,10H,1-2H3",
        "InChIKey": null,
        "Canonical SMILES": "OC1=CC=CC(=C1)C(C)C",
        "Molecular Formula": "C<sub>9</sub>H<sub>12</sub>O",
        "Molecular Mass": "136.19",
        "Boiling Point": "228 °C",
        "Melting Point": "26 °C"
    }
}