{
    "cas_no": "98-67-9",
    "key_name": "4-Hydroxybenzenesulfonic acid",
    "cn_name": "4-羟基苯磺酸;对羟基苯磺酸;",
    "alternate_name": "Benzenesulfonic acid, 4-hydroxy-;Benzenesulfonic acid, <em>p</em>-hydroxy-;4-Hydroxybenzenesulfonic acid;<em>p</em>-Hydroxybenzenesulfonic acid;<em>p</em>-Phenolsulfonic acid;4-Phenolsulfonic acid;<em>p</em>-Sulfophenol;4-Hydroxyphenylsulfonic acid;NSC 227908",
    "duplicated_cas_no": "",
    "SMILES": "S(=O)(=O)(O)C1=CC=C(O)C=C1",
    "meta_data": {
        "InChI": "InChI=1S/C6H6O4S/c7-5-1-3-6(4-2-5)11(8,9)10/h1-4,7H,(H,8,9,10)",
        "InChIKey": null,
        "Canonical SMILES": "O=S(=O)(O)C1=CC=C(O)C=C1",
        "Molecular Formula": "C<sub>6</sub>H<sub>6</sub>O<sub>4</sub>S",
        "Molecular Mass": "174.17",
        "Melting Point": "52 °C",
        "Density": "1.337 g/cm³"
    }
}