{
    "cas_no": "16305-75-2",
    "key_name": "<span class=\"text-smallcaps\">L</smallcap>-Alanyl-<smallcap>L</span>-tryptophan",
    "cn_name": "L-丙氨酰-L-色氨酸;",
    "alternate_name": "<span class=\"text-smallcaps\">L</smallcap>-Tryptophan, <smallcap>L</span>-alanyl-;Tryptophan, <em>N</em>-<span class=\"text-smallcaps\">L</smallcap>-alanyl-, <smallcap>L</span>-;<span class=\"text-smallcaps\">L</smallcap>-Tryptophan, <em>N</em>-<smallcap>L</span>-alanyl-;Tryptophan, <em>N</em>-alanyl-;<span class=\"text-smallcaps\">L</smallcap>-Alanyl-<smallcap>L</span>-tryptophan;Alanyltryptophan;NSC 97948;178: PN: EP2161028 PAGE: 10 claimed protein;7: PN: JP2010248096 PAGE: 2 claimed protein;196: PN: WO2011146121 PAGE: 117 claimed sequence;15: PN: WO2012076822 PAGE: 51 claimed sequence;4: PN: JP2014003971 PAGE: 22 claimed sequence;1: PN: WO2014020129 PAGE: 145 claimed sequence;21: PN: JP2014079213 TABLE: 2 claimed sequence;54: PN: WO2020097235 SEQID: 283 claimed protein;390: PN: WO2023161197 SEQID: 392 claimed sequence",
    "duplicated_cas_no": "",
    "SMILES": "C([C@H](NC([C@H](C)N)=O)C(O)=O)C=1C=2C(NC1)=CC=CC2",
    "meta_data": {
        "InChI": "InChI=1S/C14H17N3O3/c1-8(15)13(18)17-12(14(19)20)6-9-7-16-11-5-3-2-4-10(9)11/h2-5,7-8,12,16H,6,15H2,1H3,(H,17,18)(H,19,20)/t8-,12-/m0/s1",
        "InChIKey": null,
        "Canonical SMILES": "O=C(O)C(NC(=O)C(N)C)CC1=CNC=2C=CC=CC21",
        "Molecular Formula": "C<sub>14</sub>H<sub>17</sub>N<sub>3</sub>O<sub>3</sub>",
        "Molecular Mass": "275.30",
        "Melting Point": "260 °C"
    }
}