{
    "cas_no": "4467-06-5",
    "key_name": "2-(4-Methylphenyl)pyridine",
    "cn_name": "2-(4-甲基苯基)吡啶;2-(对甲苯基)吡啶;",
    "alternate_name": "Pyridine, 2-(4-methylphenyl)-;Pyridine, 2-<em>p</em>-tolyl-;2-(4-Methylphenyl)pyridine;2-(<em>p</em>-Methylphenyl)pyridine;2-<em>p</em>-Tolylpyridine;2-(4-Tolyl)pyridine;4-(2-Pyridinyl)toluene;4-(2-Pyridyl)toluene;2-(4′-Methylphenyl)pyridine",
    "duplicated_cas_no": "",
    "SMILES": "CC1=CC=C(C=C1)C2=CC=CC=N2",
    "meta_data": {
        "InChI": "InChI=1S/C12H11N/c1-10-5-7-11(8-6-10)12-4-2-3-9-13-12/h2-9H,1H3",
        "InChIKey": null,
        "Canonical SMILES": "N=1C=CC=CC1C=2C=CC(=CC2)C",
        "Molecular Formula": "C<sub>12</sub>H<sub>11</sub>N",
        "Molecular Mass": "169.22",
        "Boiling Point": "93-98 °C @ Press: 1 Torr",
        "Melting Point": "132-132.5 °C",
        "Density": "1.055 g/cm³ @ Temp: 25 °C"
    }
}