{
    "cas_no": "519054-55-8",
    "key_name": "5-(4,4,5,5-Tetramethyl-1,3,2-dioxaborolan-2-yl)benzofuran",
    "cn_name": null,
    "alternate_name": "Benzofuran, 5-(4,4,5,5-tetramethyl-1,3,2-dioxaborolan-2-yl)-;5-(4,4,5,5-Tetramethyl-1,3,2-dioxaborolan-2-yl)benzofuran;5-(4,4,5,5-Tetramethyl-[1,3,2]dioxaborolan-2-yl)benzofuran;2-(Benzofuran-5-yl)-4,4,5,5-tetramethyl-[1,3,2]dioxaborolane;5-(4,4,5,5-Tetramethyl-1,3,2-dioxaborolan-2-yl)-1-benzofuran;2-(1-Benzofuran-5-yl)-4,4,5,5-tetramethyl-1,3,2-dioxaborolane",
    "duplicated_cas_no": "",
    "SMILES": "CC1(C)OB(OC1(C)C)C=2C=C3C(=CC2)OC=C3",
    "meta_data": {
        "InChI": "InChI=1S/C14H17BO3/c1-13(2)14(3,4)18-15(17-13)11-5-6-12-10(9-11)7-8-16-12/h5-9H,1-4H3",
        "InChIKey": null,
        "Canonical SMILES": "O1C=CC=2C=C(C=CC12)B3OC(C)(C)C(O3)(C)C",
        "Molecular Formula": "C<sub>14</sub>H<sub>17</sub>BO<sub>3</sub>",
        "Molecular Mass": "244.09",
        "Melting Point": "64-66 °C"
    }
}