{
    "cas_no": "3650-43-9",
    "key_name": "Costic acid",
    "cn_name": null,
    "alternate_name": "2-Naphthaleneacetic acid, decahydro-4a-methyl-α,8-bis(methylene)-, (2<em>R</em>,4a<em>R</em>,8a<em>S</em>)-;Eudesma-4(14),11(13)-dien-12-oic acid;2-Naphthaleneacetic acid, decahydro-4a-methyl-α,8-bis(methylene)-, [2<em>R</em>-(2α,4aα,8aβ)]-;2-Naphthaleneacetic acid, 1,2β,3,4,4a,5,6,7,8,8aβ-decahydro-4aα-methyl-α,8-dimethylene-;(2<em>R</em>,4a<em>R</em>,8a<em>S</em>)-Decahydro-4a-methyl-α,8-bis(methylene)-2-naphthaleneacetic acid;Costic acid;Costus acid;β-Costic acid",
    "duplicated_cas_no": "",
    "SMILES": "C[C@]12[C@@](C[C@H](C(C(O)=O)=C)CC1)(C(=C)CCC2)[H]",
    "meta_data": {
        "InChI": "InChI=1S/C15H22O2/c1-10-5-4-7-15(3)8-6-12(9-13(10)15)11(2)14(16)17/h12-13H,1-2,4-9H2,3H3,(H,16,17)/t12-,13+,15-/m1/s1",
        "InChIKey": null,
        "Canonical SMILES": "O=C(O)C(=C)C1CCC2(C)CCCC(=C)C2C1",
        "Molecular Formula": "C<sub>15</sub>H<sub>22</sub>O<sub>2</sub>",
        "Molecular Mass": "234.33",
        "Melting Point": "87-88 °C"
    }
}