{
    "cas_no": "37924-85-9",
    "key_name": "3-Bromomethylbenzisoxazole",
    "cn_name": "3-溴甲基-1,2-苯并异噁唑;",
    "alternate_name": "1,2-Benzisoxazole, 3-(bromomethyl)-;3-(Bromomethyl)-1,2-benzisoxazole;3-Bromomethylbenzisoxazole;3-Bromomethylbenzo[<em>d</em>]isoxazole",
    "duplicated_cas_no": "",
    "SMILES": "C(Br)C=1C=2C(ON1)=CC=CC2",
    "meta_data": {
        "InChI": "InChI=1S/C8H6BrNO/c9-5-7-6-3-1-2-4-8(6)11-10-7/h1-4H,5H2",
        "InChIKey": null,
        "Canonical SMILES": "BrCC1=NOC=2C=CC=CC21",
        "Molecular Formula": "C<sub>8</sub>H<sub>6</sub>BrNO",
        "Molecular Mass": "212.04",
        "Melting Point": "69 °C"
    }
}