{
    "cas_no": "5538-95-4",
    "key_name": "<em>N</em>-Dodecyl-1,3-propanediamine",
    "cn_name": "N-十二烷基-1,3-丙二胺英文名称：3-Propanediamine,N-dodecyl-1;N-十二烷基-1,3-丙二胺;",
    "alternate_name": "1,3-Propanediamine, <em>N</em><sup>1</sup>-dodecyl-;1,3-Propanediamine, <em>N</em>-dodecyl-;<em>N</em><sup>1</sup>-Dodecyl-1,3-propanediamine;RC 5635;<em>N</em>-Lauryltrimethylenediamine;<em>N</em>-Dodecyl-1,3-propanediamine;<em>N</em>-Dodecyl-1,3-trimethylenediamine;<em>N</em>-Dodecyltrimethylenediamine;<em>N</em>-(3-Aminopropyl)dodecylamine;Diam 21;Laurylaminopropylamine;3-(Dodecylamino)-1-propanamine;Dicrodamine 1.12;3-(Dodecylamino)propylamine;<em>N</em>-Lauryl-1,3-diaminopropane;<em>N</em>-Dodecyl-1,3-diaminopropane;3-(Laurylamino)propylamine;Genamin LAP 100D;Genamin LAP 100;NSC 28753;NSC 40165;<em>N</em>-Dodecyl-1,3-propylenediamine",
    "duplicated_cas_no": "52907-39-8",
    "SMILES": "C(CCCCCCCC)CCCNCCCN",
    "meta_data": {
        "InChI": "InChI=1S/C15H34N2/c1-2-3-4-5-6-7-8-9-10-11-14-17-15-12-13-16/h17H,2-16H2,1H3",
        "InChIKey": null,
        "Canonical SMILES": "NCCCNCCCCCCCCCCCC",
        "Molecular Formula": "C<sub>15</sub>H<sub>34</sub>N<sub>2</sub>",
        "Molecular Mass": "242.44",
        "Boiling Point": "137-141 °C @ Press: 1 Torr",
        "Melting Point": "24.5-25.5 °C"
    }
}