{
    "cas_no": "505-73-7",
    "key_name": "Dithiodiglycolic acid",
    "cn_name": "二硫醇二羟基乙酸;",
    "alternate_name": "Acetic acid, 2,2′-dithiobis-;Acetic acid, dithiodi-;2,2′-Dithiobis[acetic acid];Dithiodiglycolic acid;Bis(mercaptoacetic acid);Dithiodiacetic acid;Dithioglycolic acid;2,2′-Dithiodiacetic acid;Thioglycolate disulfide;2,2′-Dithiodiethanoic acid;Mercaptoacetic acid disulfide;NSC 54088;Bis(carboxymethyl) disulfide;2,2′-Dithiobis(acetic acid);4-Dithiodiglycolic acid;2,2′-Disulfanediyldiacetic acid;2-[(Carboxymethyl)disulfanyl]acetic acid;2-(Carboxymethyldisulfanyl)acetic acid",
    "duplicated_cas_no": "",
    "SMILES": "S(SCC(O)=O)CC(O)=O",
    "meta_data": {
        "InChI": "InChI=1S/C4H6O4S2/c5-3(6)1-9-10-2-4(7)8/h1-2H2,(H,5,6)(H,7,8)",
        "InChIKey": null,
        "Canonical SMILES": "O=C(O)CSSCC(=O)O",
        "Molecular Formula": "C<sub>4</sub>H<sub>6</sub>O<sub>4</sub>S<sub>2</sub>",
        "Molecular Mass": "182.22",
        "Melting Point": "109 °C"
    }
}