{
    "cas_no": "2835-95-2",
    "key_name": "5-Amino-2-methylphenol",
    "cn_name": "4-氨基-2-羟基甲苯;5-氨基邻甲酚;2-甲基-5-氨基苯酚;",
    "alternate_name": "Phenol, 5-amino-2-methyl-;<em>o</em>-Cresol, 5-amino-;5-Amino-2-methylphenol;3-Hydroxy-4-methylaniline;3-Amino-6-methylphenol;4-Amino-2-hydroxytoluene;2-Methyl-5-aminophenol;3-Hydroxy-<em>p</em>-toluidine;5-Amino-<em>o</em>-cresol;1-Methyl-2-hydroxy-4-aminobenzene;2-Hydroxy-4-aminotoluene;6-Methyl-3-aminophenol;5-Amino-2-cresol",
    "duplicated_cas_no": "",
    "SMILES": "OC1=C(C)C=CC(N)=C1",
    "meta_data": {
        "InChI": "InChI=1S/C7H9NO/c1-5-2-3-6(8)4-7(5)9/h2-4,9H,8H2,1H3",
        "InChIKey": null,
        "Canonical SMILES": "OC1=CC(N)=CC=C1C",
        "Molecular Formula": "C<sub>7</sub>H<sub>9</sub>NO",
        "Molecular Mass": "123.15",
        "Melting Point": "161 °C"
    }
}