{
    "cas_no": "30459-17-7",
    "key_name": "1-[4-(Trifluoromethyl)phenyl]piperazine",
    "cn_name": "1-(4-三氟甲基苯基)哌嗪;N-(ALPHA,ALPHA,ALPHA-三氟对甲苯)哌嗪;三氟甲基苯基哌嗪;",
    "alternate_name": "Piperazine, 1-[4-(trifluoromethyl)phenyl]-;Piperazine, 1-(α,α,α-trifluoro-<em>p</em>-tolyl)-;1-[4-(Trifluoromethyl)phenyl]piperazine;1-[<em>p</em>-(Trifluoromethyl)phenyl]piperazine;<em>N</em>-(4-Trifluoromethylphenyl)piperazine;<em>N</em>-(α,α,α-Trifluoro-<em>p</em>-tolyl)piperazine;4-Trifluoromethylphenylpiperazine;CD 3-3017",
    "duplicated_cas_no": "1268599-80-9",
    "SMILES": "C(F)(F)(F)C1=CC=C(C=C1)N2CCNCC2",
    "meta_data": {
        "InChI": "InChI=1S/C11H13F3N2/c12-11(13,14)9-1-3-10(4-2-9)16-7-5-15-6-8-16/h1-4,15H,5-8H2",
        "InChIKey": null,
        "Canonical SMILES": "FC(F)(F)C1=CC=C(C=C1)N2CCNCC2",
        "Molecular Formula": "C<sub>11</sub>H<sub>13</sub>F<sub>3</sub>N<sub>2</sub>",
        "Molecular Mass": "230.23",
        "Melting Point": "&gt;300 °C"
    }
}