{
    "cas_no": "1931-60-8",
    "key_name": "2-Methylenebutanedioyl dichloride",
    "cn_name": "衣康酰氯;",
    "alternate_name": "Butanedioyl dichloride, 2-methylene-;Succinyl chloride, methylene-;Butanedioyl dichloride, methylene-;2-Methylenebutanedioyl dichloride;Itaconic acid dichloride;Itaconic acid chloride;Methylenesuccinyl chloride;Itaconoyl chloride;Itaconoyl dichloride;NSC 89694;2-Methylidenebutanedioyl dichloride",
    "duplicated_cas_no": "",
    "SMILES": "C(CC(Cl)=O)(C(Cl)=O)=C",
    "meta_data": {
        "InChI": "InChI=1S/C5H4Cl2O2/c1-3(5(7)9)2-4(6)8/h1-2H2",
        "InChIKey": null,
        "Canonical SMILES": "O=C(Cl)C(=C)CC(=O)Cl",
        "Molecular Formula": "C<sub>5</sub>H<sub>4</sub>Cl<sub>2</sub>O<sub>2</sub>",
        "Molecular Mass": "166.99",
        "Boiling Point": "98-100 °C @ Press: 16 Torr"
    }
}