{
    "cas_no": "33024-60-1",
    "key_name": "Tetrahydro-2<em>H</em>-pyran-4-amine hydrochloride",
    "cn_name": "4-氨基四氢吡喃盐酸盐;",
    "alternate_name": "2<em>H</em>-Pyran-4-amine, tetrahydro-, hydrochloride (1:1);2<em>H</em>-Pyran-4-amine, tetrahydro-, hydrochloride;4-Aminotetrahydro-4<em>H</em>-pyran hydrochloride;Perhydro-2<em>H</em>-pyran-4-ylamine hydrochloride;4-Aminotetrahydro-4<em>H</em>-pyran monohydrochloride;Tetrahydro-2<em>H</em>-pyran-4-ylamine monohydrochloride;Tetrahydro-2<em>H</em>-pyran-4-amine hydrochloride;4-Aminotetrahydropyran hydrochloride;4-Aminotetrahydro-2<em>H</em>-pyran hydrochloride;(Tetrahydro-2<em>H</em>-pyran-4-yl)amine hydrochloride;Oxan-4-amine hydrochloride;Tetrahydropyran-4-amine hydrochloride",
    "duplicated_cas_no": "",
    "SMILES": "NC1CCOCC1.Cl",
    "meta_data": {
        "InChI": "InChI=1S/C5H11NO.ClH/c6-5-1-3-7-4-2-5;/h5H,1-4,6H2;1H",
        "InChIKey": null,
        "Canonical SMILES": "Cl.O1CCC(N)CC1",
        "Molecular Formula": "C<sub>5</sub>H<sub>11</sub>NO.ClH",
        "Molecular Mass": "",
        "Melting Point": "218-219 °C"
    }
}