{
    "cas_no": "89-20-3",
    "key_name": "4-Chlorophthalic acid",
    "cn_name": "4-氯邻苯二酸;",
    "alternate_name": "1,2-Benzenedicarboxylic acid, 4-chloro-;Phthalic acid, 4-chloro-;4-Chloro-1,2-benzenedicarboxylic acid;4-Chlorophthalic acid;NSC 57755",
    "duplicated_cas_no": "",
    "SMILES": "C(O)(=O)C1=C(C(O)=O)C=C(Cl)C=C1",
    "meta_data": {
        "InChI": "InChI=1S/C8H5ClO4/c9-4-1-2-5(7(10)11)6(3-4)8(12)13/h1-3H,(H,10,11)(H,12,13)",
        "InChIKey": null,
        "Canonical SMILES": "O=C(O)C1=CC=C(Cl)C=C1C(=O)O",
        "Molecular Formula": "C<sub>8</sub>H<sub>5</sub>ClO<sub>4</sub>",
        "Molecular Mass": "200.58",
        "Melting Point": "157 °C"
    }
}