{
    "cas_no": "2935-90-2",
    "key_name": "Methyl 3-mercaptopropionate",
    "cn_name": "3-巯基丙酸甲酯;",
    "alternate_name": "Propanoic acid, 3-mercapto-, methyl ester;Propionic acid, 3-mercapto-, methyl ester;Methyl 3-mercaptopropionate;Methyl β-mercaptopropionate;3-Mercaptopropionic acid methyl ester;Methyl 3-mercaptopropanoate;3-Mercaptopropanoic acid methyl ester;NSC 137814;3-Thiopropanoic acid methyl ester;β-Mercaptopropionic acid methyl ester;MPM (thiol);MPM;Methyl 3-mercaptopropionoate;3-Mercatopropropanoic acid methyl ester;Methyl 3-sulfanylpropanoate;3-Sulfanylpropionic acid methyl ester",
    "duplicated_cas_no": "",
    "SMILES": "C(CCS)(OC)=O",
    "meta_data": {
        "InChI": "InChI=1S/C4H8O2S/c1-6-4(5)2-3-7/h7H,2-3H2,1H3",
        "InChIKey": null,
        "Canonical SMILES": "O=C(OC)CCS",
        "Molecular Formula": "C<sub>4</sub>H<sub>8</sub>O<sub>2</sub>S",
        "Molecular Mass": "120.17",
        "Boiling Point": "166 °C",
        "Melting Point": "38 °C"
    }
}