{
    "cas_no": "13548-69-1",
    "key_name": "9<em>H</em>-Fluorene-2,7-diamine, hydrochloride (1:2)",
    "cn_name": "2,7-二氨基芴二盐酸盐;",
    "alternate_name": "9<em>H</em>-Fluorene-2,7-diamine, hydrochloride (1:2);Fluorene-2,7-diamine, dihydrochloride;9<em>H</em>-Fluorene-2,7-diamine, dihydrochloride;2,7-Diaminofluorene dihydrochloride",
    "duplicated_cas_no": "",
    "SMILES": "NC=1C=C2C(C=3C(C2)=CC(N)=CC3)=CC1.Cl",
    "meta_data": {
        "InChI": "InChI=1S/C13H12N2.2ClH/c14-10-1-3-12-8(6-10)5-9-7-11(15)2-4-13(9)12;;/h1-4,6-7H,5,14-15H2;2*1H",
        "InChIKey": null,
        "Canonical SMILES": "Cl.NC=1C=CC=2C3=CC=C(N)C=C3CC2C1",
        "Molecular Formula": "C<sub>13</sub>H<sub>12</sub>N<sub>2</sub>.2ClH",
        "Molecular Mass": "",
        "Melting Point": "&gt;300 °C"
    }
}