{
    "cas_no": "21881-77-6",
    "key_name": "<em>m</em>-Nifedipine",
    "cn_name": "间-硝苯地平;",
    "alternate_name": "3,5-Pyridinedicarboxylic acid, 1,4-dihydro-2,6-dimethyl-4-(3-nitrophenyl)-, 3,5-dimethyl ester;3,5-Pyridinedicarboxylic acid, 1,4-dihydro-2,6-dimethyl-4-(<em>m</em>-nitrophenyl)-, dimethyl ester;3,5-Pyridinedicarboxylic acid, 1,4-dihydro-2,6-dimethyl-4-(3-nitrophenyl)-, dimethyl ester;<em>m</em>-Nifedipine;BAY-a 4339;1,4-Dihydro-2,6-dimethyl-4-(3-nitrophenyl)-3,5-pyridinedicarboxylic acid dimethyl ester;Dimethyl 4-(<em>m</em>-nitrophenyl)-2,6-dimethyl-1,4-dihydro-3,5-pyridinedicarboxylate;3,5-Dimethyl 2,6-dimethyl-4-(3-nitrophenyl)-1,4-dihydropyridine-3,5-dicarboxylate",
    "duplicated_cas_no": "161838-98-8;173260-86-1",
    "SMILES": "C(OC)(=O)C=1C(C(C(OC)=O)=C(C)NC1C)C2=CC(N(=O)=O)=CC=C2",
    "meta_data": {
        "InChI": "InChI=1S/C17H18N2O6/c1-9-13(16(20)24-3)15(14(10(2)18-9)17(21)25-4)11-6-5-7-12(8-11)19(22)23/h5-8,15,18H,1-4H3",
        "InChIKey": null,
        "Canonical SMILES": "O=C(OC)C1=C(NC(=C(C(=O)OC)C1C=2C=CC=C(C2)N(=O)=O)C)C",
        "Molecular Formula": "C<sub>17</sub>H<sub>18</sub>N<sub>2</sub>O<sub>6</sub>",
        "Molecular Mass": "346.33",
        "Melting Point": "208.0 °C"
    }
}