{
    "cas_no": "1825-19-0",
    "key_name": "Pentachlorothioanisole",
    "cn_name": "五氯硫代苯甲醚;",
    "alternate_name": "Benzene, 1,2,3,4,5-pentachloro-6-(methylthio)-;Sulfide, methyl pentachlorophenyl;Benzene, pentachloro(methylthio)-;1,2,3,4,5-Pentachloro-6-(methylthio)benzene;Methyl pentachlorophenyl sulfide;Pentachlorothioanisole;Pentachloro(methylthio)benzene;Methylthiopentachlorobenzene;Pentachlorophenyl methyl sulfide;PCTA;1,2,3,4,5-Pentachloro-6-methylsulfanylbenzene;1,2,3,4,5-Pentachloro-6-(methylsulfanyl)benzene",
    "duplicated_cas_no": "76560-52-6",
    "SMILES": "S(C)C1=C(Cl)C(Cl)=C(Cl)C(Cl)=C1Cl",
    "meta_data": {
        "InChI": "InChI=1S/C7H3Cl5S/c1-13-7-5(11)3(9)2(8)4(10)6(7)12/h1H3",
        "InChIKey": null,
        "Canonical SMILES": "ClC=1C(Cl)=C(Cl)C(SC)=C(Cl)C1Cl",
        "Molecular Formula": "C<sub>7</sub>H<sub>3</sub>Cl<sub>5</sub>S",
        "Molecular Mass": "296.43",
        "Melting Point": "95-96 °C"
    }
}