{
    "cas_no": "35604-67-2",
    "key_name": "Viloxazine hydrochloride",
    "cn_name": "2-[(2-Ethoxyphenoxy)methyl]morpholinehydrochloride;",
    "alternate_name": "Morpholine, 2-[(2-ethoxyphenoxy)methyl]-, hydrochloride (1:1);Morpholine, 2-[(2-ethoxyphenoxy)methyl]-, hydrochloride;ICI 58834;Viloxazine hydrochloride;Vivalan;Viloxazin hydrochloride;2-[(2-Ethoxyphenoxy)methyl]morpholinium chloride;Catatrol;Vivarint;Vivilan;Vicilan;2-((2-Ethoxyphenoxy)methyl)morpholine hydrochloride",
    "duplicated_cas_no": "",
    "SMILES": "O(CC1CNCCO1)C2=C(OCC)C=CC=C2.Cl",
    "meta_data": {
        "InChI": "InChI=1S/C13H19NO3.ClH/c1-2-15-12-5-3-4-6-13(12)17-10-11-9-14-7-8-16-11;/h3-6,11,14H,2,7-10H2,1H3;1H",
        "InChIKey": null,
        "Canonical SMILES": "Cl.O(C=1C=CC=CC1OCC2OCCNC2)CC",
        "Molecular Formula": "C<sub>13</sub>H<sub>19</sub>NO<sub>3</sub>.ClH",
        "Molecular Mass": "",
        "Melting Point": "185-186 °C"
    }
}