{
    "cas_no": "604-35-3",
    "key_name": "(-)-Cholesteryl acetate",
    "cn_name": "胆固醇醋酸酯;胆固醇乙酸酯;",
    "alternate_name": "Cholest-5-en-3-ol (3β)-, 3-acetate;Cholesterol, acetate;Cholest-5-en-3-ol (3β)-, acetate;Cholesteryl acetate;3β-Acetoxycholest-5-ene;Cholest-5-en-3β-ol acetate;Cholest-5-en-3β-yl acetate;Cholesterin acetate;(-)-Cholesteryl acetate;Cholesterol 3β-acetate;3-Cholesteryl acetate;Cholesterol 3-acetate;(3β)-Cholest-5-en-3-ol acetate;NSC 8799",
    "duplicated_cas_no": "32213-60-8;80202-04-6;401796-39-2;594860-28-3;870637-55-1;890899-22-6;934020-83-4;2420433-63-0",
    "SMILES": "C[C@@]12[C@@]3([C@]([C@]4([C@](C)(CC3)[C@@]([C@@H](CCCC(C)C)C)(CC4)[H])[H])(CC=C1C[C@@H](OC(C)=O)CC2)[H])[H]",
    "meta_data": {
        "InChI": "InChI=1S/C29H48O2/c1-19(2)8-7-9-20(3)25-12-13-26-24-11-10-22-18-23(31-21(4)30)14-16-28(22,5)27(24)15-17-29(25,26)6/h10,19-20,23-27H,7-9,11-18H2,1-6H3/t20-,23+,24+,25-,26+,27+,28+,29-/m1/s1",
        "InChIKey": null,
        "Canonical SMILES": "O=C(OC1CC2=CCC3C(CCC4(C)C(CCC34)C(C)CCCC(C)C)C2(C)CC1)C",
        "Molecular Formula": "C<sub>29</sub>H<sub>48</sub>O<sub>2</sub>",
        "Molecular Mass": "428.69",
        "Melting Point": "113 °C",
        "Density": "1.0 g/cm³ @ Temp: 20 °C"
    }
}