{
    "cas_no": "5779-94-2",
    "key_name": "2,5-Dimethylbenzaldehyde",
    "cn_name": "2,5-二甲基苯甲醛;",
    "alternate_name": "Benzaldehyde, 2,5-dimethyl-;2,5-Dimethylbenzaldehyde;Isoxylaldehyde",
    "duplicated_cas_no": "",
    "SMILES": "C(=O)C1=C(C)C=CC(C)=C1",
    "meta_data": {
        "InChI": "InChI=1S/C9H10O/c1-7-3-4-8(2)9(5-7)6-10/h3-6H,1-2H3",
        "InChIKey": null,
        "Canonical SMILES": "O=CC1=CC(=CC=C1C)C",
        "Molecular Formula": "C<sub>9</sub>H<sub>10</sub>O",
        "Molecular Mass": "134.18",
        "Boiling Point": "220 °C"
    }
}