{
    "cas_no": "142810-19-3",
    "key_name": "<em>N</em>-[(9<em>H</em>-Fluoren-9-ylmethoxy)carbonyl]-<span class=\"text-smallcaps\">L</span>-valylglycine",
    "cn_name": null,
    "alternate_name": "Glycine, <em>N</em>-[(9<em>H</em>-fluoren-9-ylmethoxy)carbonyl]-<span class=\"text-smallcaps\">L</span>-valyl-;Glycine, <em>N</em>-[<em>N</em>-[(9<em>H</em>-fluoren-9-ylmethoxy)carbonyl]-<span class=\"text-smallcaps\">L</span>-valyl]-;<em>N</em>-[(9<em>H</em>-Fluoren-9-ylmethoxy)carbonyl]-<span class=\"text-smallcaps\">L</span>-valylglycine;(<em>S</em>)-2-(2-((((9<em>H</em>-Fluoren-9-yl)methoxy)carbonyl)amino)-3-methylbutanamido)acetic acid;2-[(2S)-2-([[(9<em>H</em>-Fluoren-9-yl)methoxy]carbonyl]amino)-3-methylbutanamido]acetic acid",
    "duplicated_cas_no": "",
    "SMILES": "C(OC(N[C@H](C(NCC(O)=O)=O)C(C)C)=O)C1C=2C(C=3C1=CC=CC3)=CC=CC2",
    "meta_data": {
        "InChI": "InChI=1S/C22H24N2O5/c1-13(2)20(21(27)23-11-19(25)26)24-22(28)29-12-18-16-9-5-3-7-14(16)15-8-4-6-10-17(15)18/h3-10,13,18,20H,11-12H2,1-2H3,(H,23,27)(H,24,28)(H,25,26)/t20-/m0/s1",
        "InChIKey": null,
        "Canonical SMILES": "O=C(OCC1C=2C=CC=CC2C=3C=CC=CC31)NC(C(=O)NCC(=O)O)C(C)C",
        "Molecular Formula": "C<sub>22</sub>H<sub>24</sub>N<sub>2</sub>O<sub>5</sub>",
        "Molecular Mass": "396.44",
        "Melting Point": "173-175 °C"
    }
}