{
    "cas_no": "101012-32-2",
    "key_name": "2-Chloro-3-pyridineacetonitrile",
    "cn_name": null,
    "alternate_name": "3-Pyridineacetonitrile, 2-chloro-;2-Chloro-3-pyridineacetonitrile;2-Chloro-3-cyanomethylpyridine;(2-Chloropyridin-3-yl)acetonitrile;2-(2-Chloropyridin-3-yl)acetonitrile",
    "duplicated_cas_no": "",
    "SMILES": "C(C#N)C1=C(Cl)N=CC=C1",
    "meta_data": {
        "InChI": "InChI=1S/C7H5ClN2/c8-7-6(3-4-9)2-1-5-10-7/h1-2,5H,3H2",
        "InChIKey": null,
        "Canonical SMILES": "N#CCC1=CC=CN=C1Cl",
        "Molecular Formula": "C<sub>7</sub>H<sub>5</sub>ClN<sub>2</sub>",
        "Molecular Mass": "152.58",
        "Melting Point": "85-86 °C"
    }
}