{
    "cas_no": "108-00-9",
    "key_name": "<em>N</em>,<em>N</em>-Dimethylethylenediamine",
    "cn_name": "N,N-二甲基乙二胺;",
    "alternate_name": "1,2-Ethanediamine, <em>N</em><sup>1</sup>,<em>N</em><sup>1</sup>-dimethyl-;Ethylenediamine, <em>N</em>,<em>N</em>-dimethyl-;1,2-Ethanediamine, <em>N</em>,<em>N</em>-dimethyl-;<em>N</em><sup>1</sup>,<em>N</em><sup>1</sup>-Dimethyl-1,2-ethanediamine;1-Amino-2-(dimethylamino)ethane;<em>N</em>,<em>N</em>-Dimethylethylenediamine;2-(Dimethylamino)ethylamine;<em>N</em>-(2-Aminoethyl)-<em>N</em>,<em>N</em>-dimethylamine;<em>N</em>,<em>N</em>-Dimethyl-1,2-ethanediamine;β-(Dimethylamino)ethylamine;<em>N</em>,<em>N</em>-Dimethyl-1,2-diaminoethane;2-(<em>N</em>,<em>N</em>-Dimethylamino)ethylamine;<em>N</em>,<em>N</em>-Dimethyl-1,2-ethylenediamine;<em>N</em>,<em>N</em>-Dimethylethanediamine;<em>unsym</em>-Dimethylethylenediamine;2-(Dimethylamino)ethanamine;(2-Aminoethyl)dimethylamine;NSC 24506;<em>N</em>,<em>N</em>-Methyl-1,2-ethanediamine;2-(<em>N</em>,<em>N</em>-Dimethylamino)ethanamine;<em>N</em>-(2-Dimethylaminoethyl)amine;2-Dimethylamino-1-ethanamine;2-Dimethylamino-1-ethylamine;N1,N1-Dimethylethane-1,2-diamine;Dimethylaminoethylamine;<em>N</em>,<em>N</em>-Dimethylaminoethylamine;<em>N</em><sup>1</sup>,<em>N</em><sup>1</sup>-Dimethylethan-1,2-diamine;<em>N</em>′,<em>N</em>′-Dimethyl-1,2-diaminoethane;<em>N</em>,<em>N</em>-Dimethylethan-1,2-diamine;2-Amino-<em>N</em>,<em>N</em>-dimethyl-1-ethanamine",
    "duplicated_cas_no": "",
    "SMILES": "C(N(C)C)CN",
    "meta_data": {
        "InChI": "InChI=1S/C4H12N2/c1-6(2)4-3-5/h3-5H2,1-2H3",
        "InChIKey": null,
        "Canonical SMILES": "NCCN(C)C",
        "Molecular Formula": "C<sub>4</sub>H<sub>12</sub>N<sub>2</sub>",
        "Molecular Mass": "88.15",
        "Boiling Point": "107 °C"
    }
}