{
    "cas_no": "98-16-8",
    "key_name": "3-(Trifluoromethyl)aniline",
    "cn_name": "间氨基三氟甲苯;3-氨基三氟甲苯;",
    "alternate_name": "Benzenamine, 3-(trifluoromethyl)-;<em>m</em>-Toluidine, α,α,α-trifluoro-;3-(Trifluoromethyl)benzenamine;α,α,α-Trifluoro-<em>m</em>-toluidine;<em>m</em>-Aminobenzotrifluoride;3-(Trifluoromethyl)aniline;<em>m</em>-(Trifluoromethyl)aniline;<em>m</em>-Amino-α,α,α-trifluorotoluene;3-Aminobenzotrifluoride;1-Amino-3-(trifluoromethyl)benzene;<em>m</em>-Aminobenzal fluoride;3-Amino-α,α,α-trifluorotoluene;m-Trifluoromethylaniline;3-(Trifluoromethyl)phenylamine;NSC 4540",
    "duplicated_cas_no": "",
    "SMILES": "C(F)(F)(F)C1=CC(N)=CC=C1",
    "meta_data": {
        "InChI": "InChI=1S/C7H6F3N/c8-7(9,10)5-2-1-3-6(11)4-5/h1-4H,11H2",
        "InChIKey": null,
        "Canonical SMILES": "FC(F)(F)C=1C=CC=C(N)C1",
        "Molecular Formula": "C<sub>7</sub>H<sub>6</sub>F<sub>3</sub>N",
        "Molecular Mass": "161.12",
        "Boiling Point": "187.5 °C @ Press: 764 Torr",
        "Melting Point": "5.5 °C",
        "Density": "1.2954 g/cm³ @ Temp: 204 °C"
    }
}