{
    "cas_no": "34841-06-0",
    "key_name": "3-Bromo-4-methoxybenzaldehyde",
    "cn_name": "3-溴-4-甲氧基苯甲醛;",
    "alternate_name": "Benzaldehyde, 3-bromo-4-methoxy-;<em>p</em>-Anisaldehyde, 3-bromo-;3-Bromo-4-methoxybenzaldehyde;3-Bromo-<em>p</em>-anisaldehyde;NSC 158162",
    "duplicated_cas_no": "",
    "SMILES": "C(=O)C1=CC(Br)=C(OC)C=C1",
    "meta_data": {
        "InChI": "InChI=1S/C8H7BrO2/c1-11-8-3-2-6(5-10)4-7(8)9/h2-5H,1H3",
        "InChIKey": null,
        "Canonical SMILES": "O=CC1=CC=C(OC)C(Br)=C1",
        "Molecular Formula": "C<sub>8</sub>H<sub>7</sub>BrO<sub>2</sub>",
        "Molecular Mass": "215.04",
        "Boiling Point": "108-110 °C @ Press: 1 Torr",
        "Melting Point": "43-44 °C"
    }
}