{
    "cas_no": "873-38-1",
    "key_name": "2-Bromo-4-chloroaniline",
    "cn_name": "2-溴-4-氯苯胺;",
    "alternate_name": "Benzenamine, 2-bromo-4-chloro-;Aniline, 2-bromo-4-chloro-;2-Bromo-4-chlorobenzenamine;2-Bromo-4-chloroaniline;NSC 139478;4-Chloro-2-bromoaniline;2-Bromo-4-chloro-phenylamine",
    "duplicated_cas_no": "",
    "SMILES": "BrC1=C(N)C=CC(Cl)=C1",
    "meta_data": {
        "InChI": "InChI=1S/C6H5BrClN/c7-5-3-4(8)1-2-6(5)9/h1-3H,9H2",
        "InChIKey": null,
        "Canonical SMILES": "ClC1=CC=C(N)C(Br)=C1",
        "Molecular Formula": "C<sub>6</sub>H<sub>5</sub>BrClN",
        "Molecular Mass": "206.47",
        "Melting Point": "65-67 °C"
    }
}