{
    "cas_no": "767-63-5",
    "key_name": "2,1,3-Benzoxadiazol-4-amine",
    "cn_name": "2,1,3-苯并噻二唑-4-胺;2,1,3-苯并噻二唑-4-胺;",
    "alternate_name": "2,1,3-Benzoxadiazol-4-amine;Benzofurazan, 4-amino-;4-Benzofurazanamine;4-Aminobenzofurazan;4-Amino-2,1,3-benzoxadiazole;2,1,3-Benzooxadiazol-4-ylamine",
    "duplicated_cas_no": "",
    "SMILES": "NC=1C=2C(C=CC1)=NON2",
    "meta_data": {
        "InChI": "InChI=1S/C6H5N3O/c7-4-2-1-3-5-6(4)9-10-8-5/h1-3H,7H2",
        "InChIKey": null,
        "Canonical SMILES": "N=1ON=C2C1C=CC=C2N",
        "Molecular Formula": "C<sub>6</sub>H<sub>5</sub>N<sub>3</sub>O",
        "Molecular Mass": "135.12",
        "Melting Point": "110-111 °C"
    }
}