{
    "cas_no": "1121-07-9",
    "key_name": "<em>N</em>-Methylsuccinimide",
    "cn_name": "N-甲基丁二酰胺;N-甲基丁二酰胺;",
    "alternate_name": "2,5-Pyrrolidinedione, 1-methyl-;Succinimide, <em>N</em>-methyl-;1-Methyl-2,5-pyrrolidinedione;<em>N</em>-Methylsuccinimide;<em>N</em>-Methyl-2,5-pyrrolidinedione;NSC 11324",
    "duplicated_cas_no": "",
    "SMILES": "CN1C(=O)CCC1=O",
    "meta_data": {
        "InChI": "InChI=1S/C5H7NO2/c1-6-4(7)2-3-5(6)8/h2-3H2,1H3",
        "InChIKey": null,
        "Canonical SMILES": "O=C1N(C(=O)CC1)C",
        "Molecular Formula": "C<sub>5</sub>H<sub>7</sub>NO<sub>2</sub>",
        "Molecular Mass": "113.11",
        "Boiling Point": "234 °C",
        "Melting Point": "71 °C"
    }
}