{
    "cas_no": "5599-70-2",
    "key_name": "1-Chloro-9<em>H</em>-carbazole",
    "cn_name": null,
    "alternate_name": "9<em>H</em>-Carbazole, 1-chloro-;Carbazole, 1-chloro-;1-Chloro-9<em>H</em>-carbazole;1-Chlorocarbazole",
    "duplicated_cas_no": "",
    "SMILES": "ClC1=C2C(C=3C(N2)=CC=CC3)=CC=C1",
    "meta_data": {
        "InChI": "InChI=1S/C12H8ClN/c13-10-6-3-5-9-8-4-1-2-7-11(8)14-12(9)10/h1-7,14H",
        "InChIKey": null,
        "Canonical SMILES": "ClC1=CC=CC=2C=3C=CC=CC3NC12",
        "Molecular Formula": "C<sub>12</sub>H<sub>8</sub>ClN",
        "Molecular Mass": "201.65",
        "Melting Point": "125 °C"
    }
}