{
    "cas_no": "748810-28-8",
    "key_name": "Vernakalant hydrochloride",
    "cn_name": null,
    "alternate_name": "3-Pyrrolidinol, 1-[(1<em>R</em>,2<em>R</em>)-2-[2-(3,4-dimethoxyphenyl)ethoxy]cyclohexyl]-, hydrochloride (1:1), (3<em>R</em>)-;3-Pyrrolidinol, 1-[(1<em>R</em>,2<em>R</em>)-2-[2-(3,4-dimethoxyphenyl)ethoxy]cyclohexyl]-, hydrochloride, (3<em>R</em>)-;(1<em>R</em>,2<em>R</em>)-2-((3<em>R</em>)-Hydroxypyrrolidinyl)-1-[2-(3,4-dimethoxyphenyl)ethoxy]cyclohexane monohydrochloride;Vernakalant hydrochloride;RSD 1235;(3<em>R</em>)-1-[(1<em>R</em>,2<em>R</em>)-2-[2-(3,4-Dimethoxyphenyl)ethoxy]cyclohexyl]-3-pyrrolidinol monohydrochloride;(1<em>R</em>,2<em>R</em>)-2-((3<em>R</em>)-Hydroxypyrrolidinyl)-1-(3,4-dimethoxyphenethoxy)cyclohexane monohydrochloride;Brinavess",
    "duplicated_cas_no": "605683-48-5",
    "SMILES": "O(CCC1=CC(OC)=C(OC)C=C1)[C@H]2[C@@H](CCCC2)N3CC[C@@H](O)C3.Cl",
    "meta_data": {
        "InChI": "InChI=1S/C20H31NO4.ClH/c1-23-19-8-7-15(13-20(19)24-2)10-12-25-18-6-4-3-5-17(18)21-11-9-16(22)14-21;/h7-8,13,16-18,22H,3-6,9-12,14H2,1-2H3;1H/t16-,17-,18-;/m1./s1",
        "InChIKey": null,
        "Canonical SMILES": "Cl.OC1CN(CC1)C2CCCCC2OCCC3=CC=C(OC)C(OC)=C3",
        "Molecular Formula": "C<sub>20</sub>H<sub>31</sub>NO<sub>4</sub>.ClH",
        "Molecular Mass": "",
        "Melting Point": "152-154 °C"
    }
}