{
    "cas_no": "1912-28-3",
    "key_name": "Methyl ethanesulfonate",
    "cn_name": null,
    "alternate_name": "Ethanesulfonic acid, methyl ester;Methyl ethanesulfonate;Methyl ethylsulfonate",
    "duplicated_cas_no": "",
    "SMILES": "S(CC)(OC)(=O)=O",
    "meta_data": {
        "InChI": "InChI=1S/C3H8O3S/c1-3-7(4,5)6-2/h3H2,1-2H3",
        "InChIKey": null,
        "Canonical SMILES": "O=S(=O)(OC)CC",
        "Molecular Formula": "C<sub>3</sub>H<sub>8</sub>O<sub>3</sub>S",
        "Molecular Mass": "124.16",
        "Boiling Point": "100-101 °C @ Press: 24 Torr"
    }
}