{
    "cas_no": "4570-41-6",
    "key_name": "2-Benzoxazolamine",
    "cn_name": null,
    "alternate_name": "2-Benzoxazolamine;Benzoxazole, 2-amino-;2-Aminobenzoxazole;NSC 26184;1,3-Benzoxazol-2-amine;Benzo[<em>d</em>]oxazol-2-amine;Benzo[<em>d</em>]oxazole-2-amine",
    "duplicated_cas_no": "",
    "SMILES": "NC1=NC=2C(O1)=CC=CC2",
    "meta_data": {
        "InChI": "InChI=1S/C7H6N2O/c8-7-9-5-3-1-2-4-6(5)10-7/h1-4H,(H2,8,9)",
        "InChIKey": null,
        "Canonical SMILES": "N1=C(OC=2C=CC=CC12)N",
        "Molecular Formula": "C<sub>7</sub>H<sub>6</sub>N<sub>2</sub>O",
        "Molecular Mass": "134.14",
        "Melting Point": "129-130 °C"
    }
}