{
    "cas_no": "5943-34-0",
    "key_name": "Diisopropyl trisulfide",
    "cn_name": null,
    "alternate_name": "Trisulfide, bis(1-methylethyl);Isopropyl trisulfide;Bis(1-methylethyl) trisulfide;Diisopropyl trisulfide;2,6-Dimethyl-3,4,5-trithiaheptane;2-(Propan-2-yltrisulfanyl)propane",
    "duplicated_cas_no": "",
    "SMILES": "S(SC(C)C)SC(C)C",
    "meta_data": {
        "InChI": "InChI=1S/C6H14S3/c1-5(2)7-9-8-6(3)4/h5-6H,1-4H3",
        "InChIKey": null,
        "Canonical SMILES": "S(SC(C)C)SC(C)C",
        "Molecular Formula": "C<sub>6</sub>H<sub>14</sub>S<sub>3</sub>",
        "Molecular Mass": "182.37",
        "Boiling Point": "75.6 °C @ Press: 5 Torr"
    }
}