{
    "cas_no": "115066-14-3",
    "key_name": "6-Cyano-7-nitroquinoxaline-2,3-dione",
    "cn_name": null,
    "alternate_name": "6-Quinoxalinecarbonitrile, 1,2,3,4-tetrahydro-7-nitro-2,3-dioxo-;1,2,3,4-Tetrahydro-7-nitro-2,3-dioxo-6-quinoxalinecarbonitrile;FG 9065;6-Cyano-2,3-dihydroxy-7-nitroquinoxaline;6-Cyano-7-nitroquinoxaline-2,3-dione;CNQX;2,3-Dioxo-7-nitro-1,2,3,4-tetrahydroquinoxaline-6-carbonitrile;MeSH ID: D018750;7-Nitro-2,3-dioxo-1,4-dihydroquinoxaline-6-carbonitrile",
    "duplicated_cas_no": "",
    "SMILES": "N(=O)(=O)C=1C=C2C(=CC1C#N)NC(=O)C(=O)N2",
    "meta_data": {
        "InChI": "InChI=1S/C9H4N4O4/c10-3-4-1-5-6(2-7(4)13(16)17)12-9(15)8(14)11-5/h1-2H,(H,11,14)(H,12,15)",
        "InChIKey": null,
        "Canonical SMILES": "N#CC=1C=C2NC(=O)C(=O)NC2=CC1N(=O)=O",
        "Molecular Formula": "C<sub>9</sub>H<sub>4</sub>N<sub>4</sub>O<sub>4</sub>",
        "Molecular Mass": "232.15",
        "Melting Point": "&gt;300 °C"
    }
}