{
    "uri": "substance/pt/11138662",
    "rn": "11138-66-2",
    "name": "Xanthan gum",
    "images": [],
    "inchi": "",
    "inchiKey": "",
    "smile": "",
    "canonicalSmile": "",
    "molecularFormula": "Unspecified",
    "molecularMass": "",
    "experimentalProperties": [
        {
            "name": "Melting Point",
            "property": "64.43 °C",
            "sourceNumber": 1
        },
        {
            "name": "Density",
            "property": "1.61 g/cm³ (approx)",
            "sourceNumber": 2
        }
    ],
    "propertyCitations": [
        {
            "docUri": "document/pt/document/36367487",
            "sourceNumber": 1,
            "source": "Pinheiro, A. C.; Carbohydrate Polymers, (2011), 83(2), 392-399, CAplus"
        },
        {
            "docUri": "document/pt/document/47892901",
            "sourceNumber": 2,
            "source": "Dawson, K. W.; Journal of Geophysical Research: Atmospheres, (2016), 121(19), 11803-11818, CAplus"
        }
    ],
    "synonyms": [
        "Xanthan gum",
        "Kelzan",
        "Xanthan",
        "Xanthomonas gum",
        "Kelzan XC",
        "Polysaccharide B 1459",
        "Biopolymer XB 23",
        "B 1459",
        "XB 23",
        "Kelzan M",
        "Kelzan MF",
        "Keltrol",
        "Biopolymer 9702",
        "Xanflood",
        "Xanthan biopolymer",
        "WT 5100",
        "Rhodopol 23",
        "Kelflo",
        "Galaxy XB",
        "Biozan R",
        "Flocon 1035",
        "Flocon 4800",
        "Kelzan ZN 4471116",
        "Kelzan D",
        "Keltrol F",
        "Actigum CX 9",
        "Enorflo X",
        "K 9C57",
        "Ekogum ketorol",
        "Rhodopol 50MD",
        "Rhodoflood XR 75",
        "Flodrill S",
        "Shellflo XA 140",
        "Rhodopol 23U",
        "Neosoft XO",
        "Flocon 4800C",
        "Shellflo XA",
        "Kelzan XCD",
        "Kelzan SS 4000",
        "Rhodigel 23",
        "K 5C151",
        "Kelzan AR",
        "Keltrol T",
        "Xanvis",
        "Rhodigel",
        "Statoil XC 44F4",
        "Bistop",
        "Keltrol TF",
        "Gums, xanthomonas",
        "Echogum T",
        "Monategum GS",
        "Kelzan F",
        "XC 85II-F4",
        "Keltrol RD",
        "Rheoflow CD 1",
        "Rheoflow CD 4",
        "Rhodopol XGD",
        "San Ace BS",
        "San Ace",
        "Kelzan T",
        "Rhodopol 23P",
        "Idvis",
        "Rhodopol R 23",
        "Echogum",
        "Keltrol TF 1000",
        "Echogum F",
        "Chemicogel",
        "Kelzan S",
        "Satiaxane CX 90",
        "San Ace C",
        "Rhodopol T",
        "Kelzan 140X",
        "Echogum SF",
        "Echogum RD",
        "Keltrol SF",
        "Neosoft XKK",
        "XG 550",
        "Rhodicare T",
        "Xantural 180",
        "N-VIS",
        "Keltrol CG",
        "Kelco BT",
        "Rhodigel 200",
        "Soaxan XG 550",
        "Jungbunzlauer ST",
        "ADM 40",
        "Bisfect XA 200",
        "Nomcort Z",
        "VIS TOP D 3000",
        "Kelzan ASX",
        "Monat Gum DA",
        "VS 900",
        "Neosoft XC",
        "Rhodigel Ultra",
        "Ultra Xanthan",
        "Rhodigel 80",
        "Kelzan ST",
        "E 415",
        "Echogum GM",
        "Kelzan RD",
        "Kem-Kh",
        "Keltrol K 5C151",
        "Keltrol BT",
        "VIS TOP D 3000C",
        "Rhodigel Clear",
        "Inagel V 10",
        "Kelzan XG",
        "Inagel V 10K",
        "Duovis",
        "Kelzan ASXT",
        "Gumixan K",
        "Monat Gum GS",
        "Keltrol CGT",
        "X-VIS",
        "Inagel V 7T",
        "Xantural 75",
        "San Ace NXG-S",
        "Xanthan Gum 614",
        "OptiXan D",
        "Keltrol HP",
        "VT 819",
        "Satiaxane CX 90T",
        "Kelzan HP",
        "Eco-Gum F",
        "Ultra Xanthan V 7",
        "Keltrol CGSFT",
        "Eco-Gum",
        "Keltrol ASXT",
        "Xanthural 75",
        "Satiaxane CX 911",
        "San Ace E-S",
        "Satiaxane CX 910",
        "PH Rapid",
        "San Ace NXG-C",
        "Monad Gum DA",
        "Keldent",
        "Soaxan",
        "Echogum 630",
        "Dehydroxanthan gum",
        "Keltrol 1000",
        "Vanzan",
        "Orno X",
        "Kelco CGT",
        "VIS TOP D 3000DF-C",
        "Rhodicare S",
        "Nomcort ZZ",
        "Xanthan Gum ST",
        "Keltrol 630",
        "Saraksan",
        "Saraksan T",
        "TGCS",
        "Saboksan",
        "Ceroga",
        "Novaxan 200",
        "Vanzan NF",
        "Grindsted Xanthan 80",
        "Grindsted Xanthan Clear 80",
        "Duo-Tec NS",
        "Duo-Vis Plus NS",
        "VIS TOP D 4021",
        "Keltrol T 630",
        "Barazan D Plus",
        "Vis Top CN 150",
        "Rheogel IRX 55395",
        "Kelco F",
        "Flovis Plus",
        "Barazan D",
        "Rheogel",
        "Vanzan D",
        "Comixan ST/HV",
        "AquaLinear",
        "Xnatural 75",
        "Grindsted Xanthan J",
        "Echogum BT",
        "Inagel V 7",
        "Inagel SAP",
        "Echogum T 630",
        "Neosoft XG",
        "Satiaxane CX 931",
        "Rhodicare CFT",
        "Satiaxane CX 930",
        "Ultra Xanthan V 7T",
        "Satiaxane CX 91",
        "Xanthan gum FJ",
        "Rhodopol XB 23",
        "Keltrol SFT",
        "Grindsted Xanthan TSC",
        "Flowzan",
        "Supungeru VIS-Y",
        "Greenbase Flowzan",
        "Liquid Flowzan",
        "Rhodigel Easy",
        "Rhaball Gum CG-SFT",
        "VIS TOP D 1640",
        "Rhaball Gum GS-C",
        "Novaxan D",
        "Ketrol T",
        "TXG-R",
        "Rhodicare XC",
        "Kelzan AST",
        "Fufeng 80",
        "Satiaxane UCX 930",
        "INS 415",
        "OptiXan 40T",
        "Rhodicare H",
        "Kelzan AP",
        "Ketrol CG-T",
        "VIS TOP NSD-X",
        "CX 91T",
        "Rhodopol 23/W",
        "Soaxan XG 350",
        "Kelzan S-XG",
        "Kelzan Advanced Performance",
        "Inagel V 10T",
        "Ticaxan",
        "Ticaxan Rapid 3",
        "G 1253",
        "Vis-Top D 4120K",
        "Du Pont Danisco Grindsted Xanthan 80",
        "Hydrocol CG",
        "Rhaball GS-C",
        "Grinsted Xanthan Clear 80",
        "KO B",
        "Satiaxane CX 2QD",
        "Keltrol RL",
        "XG 300",
        "VIS TOP G 3000",
        "Keldent SFT",
        "Rheocare XG",
        "VIS TOP D 3000E-S",
        "SD-R-W",
        "VIS TOP D 712",
        "Ziboxan F 200",
        "Visfect XA",
        "Xantural 11K",
        "Ticaxan SD-R-W",
        "Novaxan",
        "Tikan Gum SD R C",
        "XG 800",
        "VIS TOP D 3000S",
        "Novaxan 80",
        "Neosoft XE",
        "Keltrol CT-SFT",
        "Satiaxane CX 915",
        "Satiaxane CX 930SF",
        "Ketrol CG",
        "Bistop D 712",
        "TF 1000",
        "Ornol X 1",
        "Newgelin XGT",
        "Neosoft XR",
        "Nomu-coat Z",
        "Rhodopol 50MC",
        "Ag-Rho Pol 23W",
        "Vis Top D 3500",
        "Satiaxane CX 100",
        "CX 90",
        "Keltrol CG-BT",
        "Keltrol CG-F",
        "CG-F",
        "Rhodopol Extra 2 Clear",
        "Kelzan BT",
        "Grindsted CH 315",
        "HM 200",
        "Kelzan S Plus",
        "Xanthan FJ",
        "Minute GR",
        "XG 80PT",
        "Satiaxane CX 801",
        "N 610",
        "Ag-RH 23",
        "N 610 (gum)",
        "Bistop D 3000C",
        "Kelzan AP-AS",
        "X 0048",
        "Novaxan 40",
        "OptiXan 40",
        "Ketrol AP",
        "Aorun HY 6",
        "HY 6",
        "San Ace S",
        "Cellose HY 300",
        "Versagum 200",
        "Keltrol CG-LAX-T",
        "AS 300",
        "AS 8",
        "Gum Crystal",
        "Cosphaderm X 34",
        "EC 200 (gum)",
        "EC 200",
        "Rheocare XGN",
        "Keltrol CG-SFT V",
        "Kelsan",
        "Monat Gum OB",
        "Kelzan S+"
    ],
    "replacedRns": [
        "9088-32-8",
        "12673-42-6",
        "12771-06-1",
        "37189-49-4",
        "37279-85-9",
        "37332-19-7",
        "37383-52-1",
        "39393-27-6",
        "39444-54-7",
        "51811-95-1",
        "54511-23-8",
        "56592-13-3",
        "80450-59-5",
        "82600-55-3",
        "85568-76-9",
        "98112-77-7",
        "200013-98-5",
        "478314-71-5",
        "615269-70-0",
        "706786-85-8",
        "2246409-41-4",
        "2915302-51-9"
    ],
    "hasMolfile": false,
    "source": "https://commonchemistry.cas.org/detail?cas_rn=11138-66-2"
}