{
    "cas_no": "7731-28-4",
    "key_name": "<em>cis</em>-4-Methylcyclohexanol",
    "cn_name": null,
    "alternate_name": "Cyclohexanol, 4-methyl-, <em>cis</em>-;<em>cis</em>-4-Methylcyclohexanol;<em>cis</em>-4-Methyl-1-cyclohexanol;4-<em>cis</em>-Methylcyclohexanol",
    "duplicated_cas_no": "624-32-8",
    "SMILES": "C[C@H]1CC[C@@H](O)CC1",
    "meta_data": {
        "InChI": "InChI=1/C7H14O/c1-6-2-4-7(8)5-3-6/h6-8H,2-5H2,1H3/t6-,7+",
        "InChIKey": null,
        "Canonical SMILES": "OC1CCC(C)CC1",
        "Molecular Formula": "C<sub>7</sub>H<sub>14</sub>O",
        "Molecular Mass": "114.19",
        "Boiling Point": "173 °C",
        "Melting Point": "-9.2 °C",
        "Density": "0.9223 g/cm³ @ Temp: 20 °C"
    }
}