{
    "cas_no": "7758-97-6",
    "key_name": "Lead chromate (PbCrO<sub>4</sub>)",
    "cn_name": "铬酸铅;铬黄;",
    "alternate_name": "Chromic acid (H<sub>2</sub>CrO<sub>4</sub>), lead(2+) salt (1:1);Lead chromate(VI) (PbCrO<sub>4</sub>);Lead chromate;Lead chromate (PbCrO<sub>4</sub>);Plumbous chromate;Lead chromium oxide (PbCrO<sub>4</sub>);Royal Yellow 6000;Chromium lead oxide (CrPbO<sub>4</sub>)",
    "duplicated_cas_no": "8049-64-7;181768-98-9;2244671-11-0",
    "SMILES": "[Cr](O)(O)(=O)=O.[Pb]",
    "meta_data": {
        "InChI": "InChI=1S/Cr.2H2O.2O.Pb/h;2*1H2;;;/q+2;;;;;/p-2",
        "InChIKey": null,
        "Canonical SMILES": "[Pb].O=[Cr](=O)(O)O",
        "Molecular Formula": "CrH<sub>2</sub>O<sub>4</sub>.Pb",
        "Molecular Mass": "",
        "Melting Point": "844 °C",
        "Density": "6.12 g/cm³"
    }
}