{
    "cas_no": "553-19-5",
    "key_name": "Xanthyletin",
    "cn_name": "美洲花椒素;",
    "alternate_name": "2<em>H</em>,8<em>H</em>-Benzo[1,2-<em>b</em>:5,4-<em>b</em>′]dipyran-2-one, 8,8-dimethyl-;Xanthyletin;2<em>H</em>-1-Benzopyran-6-acrylic acid, 7-hydroxy-2,2-dimethyl-, δ-lactone;8,8-Dimethyl-2<em>H</em>,8<em>H</em>-benzo[1,2-<em>b</em>:5,4-<em>b</em>′]dipyran-2-one;7-Hydroxy-2,2-dimethyl-2<em>H</em>-1-benzopyran-6-acrylic acid δ-lactone;2,2-Dimethylchromenocoumarin;2,2-Dimethylpyrano[3,2-<em>g</em>]chromen-8-one",
    "duplicated_cas_no": "",
    "SMILES": "CC1(C)OC=2C(=CC3=C(C2)OC(=O)C=C3)C=C1",
    "meta_data": {
        "InChI": "InChI=1S/C14H12O3/c1-14(2)6-5-10-7-9-3-4-13(15)16-11(9)8-12(10)17-14/h3-8H,1-2H3",
        "InChIKey": null,
        "Canonical SMILES": "O=C1OC=2C=C3OC(C=CC3=CC2C=C1)(C)C",
        "Molecular Formula": "C<sub>14</sub>H<sub>12</sub>O<sub>3</sub>",
        "Molecular Mass": "228.24",
        "Boiling Point": "140-145 °C @ Press: 0.1 Torr",
        "Melting Point": "130-131 °C"
    }
}