{
    "cas_no": "129940-50-7",
    "key_name": "(2<em>S</em>)-2-[(Triphenylmethoxy)methyl]oxirane",
    "cn_name": "三苯甲基-(S)-缩水甘油醚;",
    "alternate_name": "Oxirane, 2-[(triphenylmethoxy)methyl]-, (2<em>S</em>)-;Oxirane, [(triphenylmethoxy)methyl]-, (<em>S</em>)-;Oxirane, [(triphenylmethoxy)methyl]-, (2<em>S</em>)-;(2<em>S</em>)-2-[(Triphenylmethoxy)methyl]oxirane;(<em>S</em>)-<em>O</em>-Tritylglycidol;Trityl (<em>S</em>)-glycidyl ether;(<em>S</em>)-(-)-Glycidyl trityl ether;(<em>S</em>)-Trityloxymethyloxirane;(<em>S</em>)-2-[(Trityloxy)methyl]oxirane;(<em>R</em>)-Glycidol trityl ether;(<em>S</em>)-(-)-Glycidyl triphenylmethyl ether;(2S)-2-(Trityloxymethyl)oxirane",
    "duplicated_cas_no": "183020-34-0",
    "SMILES": "C(OC[C@@H]1CO1)(C2=CC=CC=C2)(C3=CC=CC=C3)C4=CC=CC=C4",
    "meta_data": {
        "InChI": "InChI=1S/C22H20O2/c1-4-10-18(11-5-1)22(24-17-21-16-23-21,19-12-6-2-7-13-19)20-14-8-3-9-15-20/h1-15,21H,16-17H2/t21-/m0/s1",
        "InChIKey": null,
        "Canonical SMILES": "O1CC1COC(C=2C=CC=CC2)(C=3C=CC=CC3)C=4C=CC=CC4",
        "Molecular Formula": "C<sub>22</sub>H<sub>20</sub>O<sub>2</sub>",
        "Molecular Mass": "316.39",
        "Melting Point": "94-96 °C"
    }
}