{
    "cas_no": "88-65-3",
    "key_name": "2-Bromobenzoic acid",
    "cn_name": "2-溴苯甲酸;邻溴苯甲酸;",
    "alternate_name": "Benzoic acid, 2-bromo-;Benzoic acid, <em>o</em>-bromo-;2-Bromobenzoic acid;<em>o</em>-Bromobenzoic acid;NSC 176122;NSC 6976;Benzoic acid, 2-(bromocarbonyl)-",
    "duplicated_cas_no": "2375204-51-4",
    "SMILES": "C(O)(=O)C1=C(Br)C=CC=C1",
    "meta_data": {
        "InChI": "InChI=1S/C7H5BrO2/c8-6-4-2-1-3-5(6)7(9)10/h1-4H,(H,9,10)",
        "InChIKey": null,
        "Canonical SMILES": "O=C(O)C=1C=CC=CC1Br",
        "Molecular Formula": "C<sub>7</sub>H<sub>5</sub>BrO<sub>2</sub>",
        "Molecular Mass": "201.02",
        "Boiling Point": "86 °C @ Press: 4-5 Torr",
        "Melting Point": "150 °C",
        "Density": "1.929 g/cm³"
    }
}