{
    "cas_no": "5699-40-1",
    "key_name": "<em>N</em>-(Aminoiminomethyl)acetamide",
    "cn_name": "1-乙酰基胍;",
    "alternate_name": "Acetamide, <em>N</em>-(aminoiminomethyl)-;Acetamide, <em>N</em>-amidino-;<em>N</em>-(Aminoiminomethyl)acetamide;Guanidine, acetyl-;Acetylguanidine;<em>N</em>-Acetylguanidine;Acetoguanidine;1-Acetylguanidine;<em>N</em>-Carbamimidoylacetamide",
    "duplicated_cas_no": "105179-67-7",
    "SMILES": "N(C(C)=O)C(=N)N",
    "meta_data": {
        "InChI": "InChI=1S/C3H7N3O/c1-2(7)6-3(4)5/h1H3,(H4,4,5,6,7)",
        "InChIKey": null,
        "Canonical SMILES": "O=C(NC(=N)N)C",
        "Molecular Formula": "C<sub>3</sub>H<sub>7</sub>N<sub>3</sub>O",
        "Molecular Mass": "101.11",
        "Melting Point": "185 °C"
    }
}