{
    "cas_no": "154447-35-5",
    "key_name": "2-(4-Morpholinyl)-4<em>H</em>-naphtho[1,2-<em>b</em>]pyran-4-one",
    "cn_name": null,
    "alternate_name": "4<em>H</em>-Naphtho[1,2-<em>b</em>]pyran-4-one, 2-(4-morpholinyl)-;2-(4-Morpholinyl)-4<em>H</em>-naphtho[1,2-<em>b</em>]pyran-4-one;LY 293646;NU 7026;2-Morpholin-4-ylbenzo[<em>h</em>]chromen-4-one",
    "duplicated_cas_no": "",
    "SMILES": "O=C1C=2C(=C3C(=CC2)C=CC=C3)OC(=C1)N4CCOCC4",
    "meta_data": {
        "InChI": "InChI=1S/C17H15NO3/c19-15-11-16(18-7-9-20-10-8-18)21-17-13-4-2-1-3-12(13)5-6-14(15)17/h1-6,11H,7-10H2",
        "InChIKey": null,
        "Canonical SMILES": "O=C1C=C(OC2=C1C=CC=3C=CC=CC32)N4CCOCC4",
        "Molecular Formula": "C<sub>17</sub>H<sub>15</sub>NO<sub>3</sub>",
        "Molecular Mass": "281.31",
        "Melting Point": "267-269 °C"
    }
}