{
    "cas_no": "1128-76-3",
    "key_name": "Benzoic acid, 3-chloro-, ethyl ester",
    "cn_name": "3-氯苯甲酸乙酯;",
    "alternate_name": "Benzoic acid, 3-chloro-, ethyl ester;Benzoic acid, <em>m</em>-chloro-, ethyl ester;Ethyl <em>m</em>-chlorobenzoate;Ethyl 3-chlorobenzoate;3-Chlorobenzoic acid ethyl ester;NSC 67339",
    "duplicated_cas_no": "",
    "SMILES": "C(OCC)(=O)C1=CC(Cl)=CC=C1",
    "meta_data": {
        "InChI": "InChI=1S/C9H9ClO2/c1-2-12-9(11)7-4-3-5-8(10)6-7/h3-6H,2H2,1H3",
        "InChIKey": null,
        "Canonical SMILES": "O=C(OCC)C=1C=CC=C(Cl)C1",
        "Molecular Formula": "C<sub>9</sub>H<sub>9</sub>ClO<sub>2</sub>",
        "Molecular Mass": "184.62",
        "Boiling Point": "243 °C"
    }
}