{
    "cas_no": "23389-75-5",
    "key_name": "α-Methyl-4-pyridinemethanol",
    "cn_name": null,
    "alternate_name": "4-Pyridinemethanol, α-methyl-;α-Methyl-4-pyridinemethanol;1-(4-Pyridyl)ethyl alcohol;4-(1-Hydroxyethyl)pyridine;1-(4-Pyridyl)ethanol;(±)-1-(4-Pyridyl)ethanol;1-(4-Pyridinyl)ethanol;1-(4-Pyridin-4-yl)ethanol;1-(Pyridin-4-yl)ethan-1-ol;(±)-α-Methyl-4-pyridinemethanol;4-(1-Hydroxy-1-ethyl)pyridine",
    "duplicated_cas_no": "42732-22-9",
    "SMILES": "C(C)(O)C=1C=CN=CC1",
    "meta_data": {
        "InChI": "InChI=1S/C7H9NO/c1-6(9)7-2-4-8-5-3-7/h2-6,9H,1H3",
        "InChIKey": null,
        "Canonical SMILES": "OC(C=1C=CN=CC1)C",
        "Molecular Formula": "C<sub>7</sub>H<sub>9</sub>NO",
        "Molecular Mass": "123.15",
        "Boiling Point": "138-140 °C @ Press: 30 Torr",
        "Melting Point": "54 °C"
    }
}