{
    "cas_no": "88-16-4",
    "key_name": "2-Chlorobenzotrifluoride",
    "cn_name": "邻氯三氟甲苯;2-氯三氟甲苯;",
    "alternate_name": "Benzene, 1-chloro-2-(trifluoromethyl)-;Toluene, <em>o</em>-chloro-α,α,α-trifluoro-;1-Chloro-2-(trifluoromethyl)benzene;<em>o</em>-Chloro-α,α,α-trifluorotoluene;<em>o</em>-Chlorobenzotrifluoride;2-Chlorobenzotrifluoride;<em>o</em>-Trifluoromethylphenyl chloride;2-Chloro(trifluoromethyl)benzene;<em>o</em>-(Trifluoromethyl)chlorobenzene;2-Chloro-α,α,α-trifluorotoluene;2-(Trifluoromethyl)chlorobenzene;NSC 10307;2-Trifluoromethylphenyl chloride;2-Chloro-1-trifluoromethylbenzene",
    "duplicated_cas_no": "",
    "SMILES": "C(F)(F)(F)C1=C(Cl)C=CC=C1",
    "meta_data": {
        "InChI": "InChI=1S/C7H4ClF3/c8-6-4-2-1-3-5(6)7(9,10)11/h1-4H",
        "InChIKey": null,
        "Canonical SMILES": "FC(F)(F)C=1C=CC=CC1Cl",
        "Molecular Formula": "C<sub>7</sub>H<sub>4</sub>ClF<sub>3</sub>",
        "Molecular Mass": "180.55",
        "Boiling Point": "152.2 °C",
        "Melting Point": "-6 °C"
    }
}