{
    "cas_no": "83-63-6",
    "key_name": "<em>N</em>-Acetyl-<em>N</em>-[2-methyl-4-[2-(2-methylphenyl)diazenyl]phenyl]acetamide",
    "cn_name": null,
    "alternate_name": "Acetamide, <em>N</em>-acetyl-<em>N</em>-[2-methyl-4-[2-(2-methylphenyl)diazenyl]phenyl]-;<em>o</em>-Diacetotoluidide, 4′′-(<em>o</em>-tolylazo)-;Acetamide, <em>N</em>-acetyl-<em>N</em>-[2-methyl-4-[(2-methylphenyl)azo]phenyl]-;<em>N</em>-Acetyl-<em>N</em>-[2-methyl-4-[2-(2-methylphenyl)diazenyl]phenyl]acetamide;Diacetylaminoazotoluene;Dimazon;Pellidol;Pellidole;4′′-(<em>o</em>-Tolylazo)-<em>o</em>-diacetotoluidide;Dermagan;Diacetazotol;Diacetotoluide;Diamazo;Epidermol;Epithelone;Granulin;Granulin (ointment);NSC 6509;NSC 7221",
    "duplicated_cas_no": "1336-45-4",
    "SMILES": "N(C(C)=O)(C(C)=O)C1=C(C)C=C(N=NC2=C(C)C=CC=C2)C=C1",
    "meta_data": {
        "InChI": "InChI=1S/C18H19N3O2/c1-12-7-5-6-8-17(12)20-19-16-9-10-18(13(2)11-16)21(14(3)22)15(4)23/h5-11H,1-4H3",
        "InChIKey": null,
        "Canonical SMILES": "O=C(N(C(=O)C)C1=CC=C(N=NC=2C=CC=CC2C)C=C1C)C",
        "Molecular Formula": "C<sub>18</sub>H<sub>19</sub>N<sub>3</sub>O<sub>2</sub>",
        "Molecular Mass": "309.36",
        "Melting Point": "75 °C"
    }
}