{
    "cas_no": "6683-48-3",
    "key_name": "1,1,4,4,6-Pentamethyl-1,2,3,4-tetrahydronaphthalene",
    "cn_name": "1,1,4,4,6-五甲基-1,2,3,4-四氢化萘;",
    "alternate_name": "Naphthalene, 1,2,3,4-tetrahydro-1,1,4,4,6-pentamethyl-;1,2,3,4-Tetrahydro-1,1,4,4,6-pentamethylnaphthalene;1,1,4,4,6-Pentamethyl-1,2,3,4-tetrahydronaphthalene;1,1,4,4,6-Pentamethyl-2,3-dihydronaphthalene",
    "duplicated_cas_no": "2230471-02-8",
    "SMILES": "CC1(C)C=2C(C(C)(C)CC1)=CC=C(C)C2",
    "meta_data": {
        "InChI": "InChI=1S/C15H22/c1-11-6-7-12-13(10-11)15(4,5)9-8-14(12,2)3/h6-7,10H,8-9H2,1-5H3",
        "InChIKey": null,
        "Canonical SMILES": "C=1C=C2C(=CC1C)C(C)(C)CCC2(C)C",
        "Molecular Formula": "C<sub>15</sub>H<sub>22</sub>",
        "Molecular Mass": "202.34",
        "Boiling Point": "78 °C @ Press: 1.5 Torr",
        "Melting Point": "29 °C"
    }
}