{
    "cas_no": "33390-42-0",
    "key_name": "Gartanin",
    "cn_name": "1,3,5,8-四羟基-2,4-双(3-甲基-2-丁烯基)-9H-氧杂蒽-9-酮;",
    "alternate_name": "9<em>H</em>-Xanthen-9-one, 1,3,5,8-tetrahydroxy-2,4-bis(3-methyl-2-buten-1-yl)-;9<em>H</em>-Xanthen-9-one, 1,3,5,8-tetrahydroxy-2,4-bis(3-methyl-2-butenyl)-;Xanthen-9-one, 1,3,5,8-tetrahydroxy-2,4-bis(3-methyl-2-butenyl)-;1,3,5,8-Tetrahydroxy-2,4-bis(3-methyl-2-buten-1-yl)-9<em>H</em>-xanthen-9-one;Gartanin;NSC 692946;1,3,5,8-Tetrahydroxy-2,4-bis(3-methylbut-2-enyl)xanthen-9-one",
    "duplicated_cas_no": "",
    "SMILES": "O=C1C=2C(=C(CC=C(C)C)C(O)=C(CC=C(C)C)C2O)OC=3C1=C(O)C=CC3O",
    "meta_data": {
        "InChI": "InChI=1S/C23H24O6/c1-11(2)5-7-13-19(26)14(8-6-12(3)4)22-18(20(13)27)21(28)17-15(24)9-10-16(25)23(17)29-22/h5-6,9-10,24-27H,7-8H2,1-4H3",
        "InChIKey": null,
        "Canonical SMILES": "O=C1C=2C(O)=CC=C(O)C2OC3=C1C(O)=C(C(O)=C3CC=C(C)C)CC=C(C)C",
        "Molecular Formula": "C<sub>23</sub>H<sub>24</sub>O<sub>6</sub>",
        "Molecular Mass": "396.43",
        "Melting Point": "166-168 °C"
    }
}