{
    "cas_no": "101-31-5",
    "key_name": "(-)-Atropine",
    "cn_name": "L-天仙子胺;莨菪碱;(8-甲基-8-氮杂双环[3.2.1]辛-3-基)(2S)-3-羟基-2-苯基丙酸酯;",
    "alternate_name": "Benzeneacetic acid, α-(hydroxymethyl)-, (3-<em>endo</em>)-8-methyl-8-azabicyclo[3.2.1]oct-3-yl ester, (α<em>S</em>)-;1α<span class=\"text-smallcaps\">H</smallcap>,5α<smallcap>H</span>-Tropan-3α-ol, (-)-tropate (ester);Benzeneacetic acid, α-(hydroxymethyl)-, 8-methyl-8-azabicyclo[3.2.1]oct-3-yl ester, [3(<em>S</em>)-<em>endo</em>]-;Tropic acid, 1α<span class=\"text-smallcaps\">H</smallcap>,5α<smallcap>H</span>-tropan-3α-yl ester, (-)-;(-)-Atropine;Daturine;Duboisine;(-)-Hyoscyamine;<em>l</em>-Hyoscyamine;Hyoscyamine;1α<span class=\"text-smallcaps\">H</smallcap>,5α<smallcap>H</span>-Tropan-3α-yl (-)-tropate;<em>l</em>-Tropine tropate;(<em>S</em>)-(-)-Hyoscyamine;<span class=\"text-smallcaps\">L</span>-Hyoscyamine;<span class=\"text-smallcaps\">L</span>-Hyoscyamin;<em>l</em>-Atropine;(<em>S</em>)-Atropine;Cystospaz;MeSH ID: D064692",
    "duplicated_cas_no": "1892-81-5;8000-07-5;28905-40-0;38411-64-2;47170-56-9;1891070-00-0",
    "SMILES": "O(C([C@H](CO)C1=CC=CC=C1)=O)[C@@H]2C[C@]3(N(C)[C@@](C2)(CC3)[H])[H]",
    "meta_data": {
        "InChI": "InChI=1S/C17H23NO3/c1-18-13-7-8-14(18)10-15(9-13)21-17(20)16(11-19)12-5-3-2-4-6-12/h2-6,13-16,19H,7-11H2,1H3/t13-,14+,15+,16-/m1/s1",
        "InChIKey": null,
        "Canonical SMILES": "O=C(OC1CC2N(C)C(CC2)C1)C(C=3C=CC=CC3)CO",
        "Molecular Formula": "C<sub>17</sub>H<sub>23</sub>NO<sub>3</sub>",
        "Molecular Mass": "289.37",
        "Melting Point": "108.5 °C"
    }
}