{
    "cas_no": "2062-84-2",
    "key_name": "Benperidol",
    "cn_name": "苯哌利多;3-[1-[4-(4-氟苯基)-4-氧代丁基]哌啶-4-基]-1H-苯并咪唑-2-酮;",
    "alternate_name": "2<em>H</em>-Benzimidazol-2-one, 1-[1-[4-(4-fluorophenyl)-4-oxobutyl]-4-piperidinyl]-1,3-dihydro-;2-Benzimidazolinone, 1-[1-[3-(<em>p</em>-fluorobenzoyl)propyl]-4-piperidyl]-;1-[1-[4-(4-Fluorophenyl)-4-oxobutyl]-4-piperidinyl]-1,3-dihydro-2<em>H</em>-benzimidazol-2-one;McN-JR 4584;Benperidol;Benzoperidol;Benzperidol;1-[1-[3-(<em>p</em>-Fluorobenzoyl)propyl]-4-piperidyl]-2-benzimidazolinone;1-(1-[4-(<em>p</em>-Fluorophenyl)-4-oxobutyl]piperidin-4-yl)-2-benzimidazolinone;Glianimon;Anquil;CB 8089;Frenactyl;R 4584;R 4730;Frenactil;NSC 170982;Benguil",
    "duplicated_cas_no": "",
    "SMILES": "O=C1N(C=2C(N1)=CC=CC2)C3CCN(CCCC(=O)C4=CC=C(F)C=C4)CC3",
    "meta_data": {
        "InChI": "InChI=1S/C22H24FN3O2/c23-17-9-7-16(8-10-17)21(27)6-3-13-25-14-11-18(12-15-25)26-20-5-2-1-4-19(20)24-22(26)28/h1-2,4-5,7-10,18H,3,6,11-15H2,(H,24,28)",
        "InChIKey": null,
        "Canonical SMILES": "O=C1NC=2C=CC=CC2N1C3CCN(CCCC(=O)C4=CC=C(F)C=C4)CC3",
        "Molecular Formula": "C<sub>22</sub>H<sub>24</sub>FN<sub>3</sub>O<sub>2</sub>",
        "Molecular Mass": "381.44",
        "Melting Point": "170-171.8 °C"
    }
}