{
    "cas_no": "459-26-7",
    "key_name": "1-Ethoxy-4-fluorobenzene",
    "cn_name": "4-氟苯乙醚;对氟苯乙醚;",
    "alternate_name": "Benzene, 1-ethoxy-4-fluoro-;Phenetole, <em>p</em>-fluoro-;1-Ethoxy-4-fluorobenzene;<em>p</em>-Fluorophenetole;<em>p</em>-Ethoxyfluorobenzene;4-Fluoro-1-ethoxybenzene;Ethyl 4-fluorophenyl ether;4-Ethoxyfluorobenzene;NSC 89719",
    "duplicated_cas_no": "",
    "SMILES": "O(CC)C1=CC=C(F)C=C1",
    "meta_data": {
        "InChI": "InChI=1S/C8H9FO/c1-2-10-8-5-3-7(9)4-6-8/h3-6H,2H2,1H3",
        "InChIKey": null,
        "Canonical SMILES": "FC1=CC=C(OCC)C=C1",
        "Molecular Formula": "C<sub>8</sub>H<sub>9</sub>FO",
        "Molecular Mass": "140.15",
        "Boiling Point": "173 °C",
        "Melting Point": "-8.5 °C",
        "Density": "1.07148 g/cm³ @ Temp: 18.2 °C"
    }
}