{
    "cas_no": "1070-70-8",
    "key_name": "1,4-Butanediol, diacrylate",
    "cn_name": "1,4-丁二醇二丙烯酸酯;二丙烯酸-1,4-丁二酯;",
    "alternate_name": "2-Propenoic acid, 1,1′-(1,4-butanediyl) ester;Acrylic acid, tetramethylene ester;2-Propenoic acid, 1,4-butanediyl ester;1,4-Butanediol, diacrylate;1,4-Butylene glycol diacrylate;Tetramethylene diacrylate;1,4-Butylene diacrylate;Tetramethylene glycol diacrylate;Tetramethylene acrylate;SR 213;Viscoat 195;Laromer BDDA;Viscoat V 195;SR 213 (ester);SM 624;Fancryl FA 124SA;Fancryl FA 124AS;Miramer 204;1,4-Bis(acryloyloxy)butane;Butylene glycol diacrylate;Butane-1,4-diyl diacrylate;FA 124AS;Sartomer 213;1,4-Butanediol diacrylate;<em>n</em>-Butane-1,4-diyl diacrylate;M 204;Miramer M 204",
    "duplicated_cas_no": "119518-37-5;138790-64-4;1934258-70-4",
    "SMILES": "C(OCCCCOC(C=C)=O)(C=C)=O",
    "meta_data": {
        "InChI": "InChI=1S/C10H14O4/c1-3-9(11)13-7-5-6-8-14-10(12)4-2/h3-4H,1-2,5-8H2",
        "InChIKey": null,
        "Canonical SMILES": "O=C(OCCCCOC(=O)C=C)C=C",
        "Molecular Formula": "C<sub>10</sub>H<sub>14</sub>O<sub>4</sub>",
        "Molecular Mass": "198.22",
        "Boiling Point": "132-138 °C @ Press: 13 Torr",
        "Density": "1.056 g/cm³ @ Temp: 20 °C"
    }
}