{
    "cas_no": "1829-33-0",
    "key_name": "3-Chloro-5-hydroxybenzaldehyde",
    "cn_name": null,
    "alternate_name": "Benzaldehyde, 3-chloro-5-hydroxy-;3-Chloro-5-hydroxybenzaldehyde",
    "duplicated_cas_no": "",
    "SMILES": "C(=O)C1=CC(Cl)=CC(O)=C1",
    "meta_data": {
        "InChI": "InChI=1S/C7H5ClO2/c8-6-1-5(4-9)2-7(10)3-6/h1-4,10H",
        "InChIKey": null,
        "Canonical SMILES": "O=CC=1C=C(Cl)C=C(O)C1",
        "Molecular Formula": "C<sub>7</sub>H<sub>5</sub>ClO<sub>2</sub>",
        "Molecular Mass": "156.57",
        "Melting Point": "104 °C"
    }
}