{
    "cas_no": "2854-32-2",
    "key_name": "2-[1-(4-Chlorobenzoyl)-5-methoxy-2-methyl-1<em>H</em>-indol-3-yl]-1-(4-morpholinyl)ethanone",
    "cn_name": null,
    "alternate_name": "Ethanone, 2-[1-(4-chlorobenzoyl)-5-methoxy-2-methyl-1<em>H</em>-indol-3-yl]-1-(4-morpholinyl)-;Indole, 1-(<em>p</em>-chlorobenzoyl)-5-methoxy-2-methyl-3-[(morpholinocarbonyl)methyl]-;1<em>H</em>-Indole, 1-(4-chlorobenzoyl)-5-methoxy-2-methyl-3-[2-(4-morpholinyl)-2-oxoethyl]-;2-[1-(4-Chlorobenzoyl)-5-methoxy-2-methyl-1<em>H</em>-indol-3-yl]-1-(4-morpholinyl)ethanone;BML 190;LM-4131;2-(1-(4-Chlorobenzoyl)-5-methoxy-2-methyl-1<em>H</em>-indol-3-yl)-1-morpholinoethanone;2-[1-(4-Chlorobenzoyl)-5-methoxy-2-methyl-1<em>H</em>-indol-3-yl]-1-(morpholin-4-yl)ethan-1-one;2-[1-(4-Chlorobenzoyl)-5-methoxy-2-methylindol-3-yl]-1-morpholin-4-ylethanone",
    "duplicated_cas_no": "",
    "SMILES": "C(=O)(N1C=2C(C(CC(=O)N3CCOCC3)=C1C)=CC(OC)=CC2)C4=CC=C(Cl)C=C4",
    "meta_data": {
        "InChI": "InChI=1S/C23H23ClN2O4/c1-15-19(14-22(27)25-9-11-30-12-10-25)20-13-18(29-2)7-8-21(20)26(15)23(28)16-3-5-17(24)6-4-16/h3-8,13H,9-12,14H2,1-2H3",
        "InChIKey": null,
        "Canonical SMILES": "O=C(C1=CC=C(Cl)C=C1)N2C=3C=CC(OC)=CC3C(=C2C)CC(=O)N4CCOCC4",
        "Molecular Formula": "C<sub>23</sub>H<sub>23</sub>ClN<sub>2</sub>O<sub>4</sub>",
        "Molecular Mass": "426.89",
        "Melting Point": "162.0-163.5 °C"
    }
}