{
    "cas_no": "471-87-4",
    "key_name": "(-)-Stachydrine",
    "cn_name": "水苏碱;(2S)-1,1-二甲基吡咯烷-2-甲酸;",
    "alternate_name": "Pyrrolidinium, 2-carboxy-1,1-dimethyl-, inner salt, (2<em>S</em>)-;Stachydrine;Pyrrolidinium, 2-carboxy-1,1-dimethyl-, hydroxide, inner salt, (<em>S</em>)-;Methyl hygrate betaine;1-Methylproline methylbetaine;Hygric acid, methylbetaine;<em>S</em>-(-)-Stachydrine;<span class=\"text-smallcaps\">L</span>-Stachydrine;(<em>S</em>)-2-Carboxy-1,1-dimethylpyrrolidinium hydroxide inner salt;Cadabine;Stachydrin;Proline betaine;(-)-Stachydrine;<em>N</em>,<em>N</em>-Dimethyl-<span class=\"text-smallcaps\">L</span>-proline;α-<em>N</em>-Dimethyl-<span class=\"text-smallcaps\">L</span>-proline;(2S)-1,1-Dimethylpyrrolidin-1-ium-2-carboxylate;(<em>S</em>)-1,1-Dimethylpyrrolidin-1-ium-2-carboxylate",
    "duplicated_cas_no": "1369-81-9;24830-96-4;37303-33-6",
    "SMILES": "C([O-])(=O)[C@H]1[N+](C)(C)CCC1",
    "meta_data": {
        "InChI": "InChI=1S/C7H13NO2/c1-8(2)5-3-4-6(8)7(9)10/h6H,3-5H2,1-2H3/t6-/m0/s1",
        "InChIKey": null,
        "Canonical SMILES": "O=C([O-])C1CCC[N+]1(C)C",
        "Molecular Formula": "C<sub>7</sub>H<sub>13</sub>NO<sub>2</sub>",
        "Molecular Mass": "",
        "Melting Point": "235 °C (decomp)"
    }
}