{
    "cas_no": "482-54-2",
    "key_name": "1,2-Diaminocyclohexane-<em>N</em>,<em>N</em>,<em>N</em>′,<em>N</em>′-tetraacetic acid",
    "cn_name": "1,2-环己二胺四乙酸;",
    "alternate_name": "Glycine, <em>N</em>,<em>N</em>′-1,2-cyclohexanediylbis[<em>N</em>-(carboxymethyl)-;Acetic acid, (1,2-cyclohexylenedinitrilo)tetra-;<em>N</em>,<em>N</em>′-1,2-Cyclohexanediylbis[<em>N</em>-(carboxymethyl)glycine];1,2-Cyclohexanediamine-<em>N</em>,<em>N</em>,<em>N</em>′,<em>N</em>′-tetraacetic acid;1,2-Cyclohexylenediaminetetraacetic acid;1,2-Diaminocyclohexanetetraacetic acid;1,2-Cyclohexanediaminetetraacetic acid;1,2-Diaminocyclohexane-<em>N</em>,<em>N</em>,<em>N</em>′,<em>N</em>′-tetraacetic acid;<em>o</em>-Cyclohexanediaminetetraacetic acid;1,2-Cyclohexylenedinitrilotetraacetic acid;Cyclohexanediaminetetraacetic acid;DCyTA;NSC 529593;NSC 7339;2,2′,2′′,2′′′-(Cyclohexane-1,2-diylbis(azanetriyl))tetraacetic acid;2-[[2-[Bis(carboxymethyl)amino]cyclohexyl]-(carboxymethyl)amino]acetic acid",
    "duplicated_cas_no": "57843-17-1;88138-84-5",
    "SMILES": "N(CC(O)=O)(CC(O)=O)C1C(N(CC(O)=O)CC(O)=O)CCCC1",
    "meta_data": {
        "InChI": "InChI=1S/C14H22N2O8/c17-11(18)5-15(6-12(19)20)9-3-1-2-4-10(9)16(7-13(21)22)8-14(23)24/h9-10H,1-8H2,(H,17,18)(H,19,20)(H,21,22)(H,23,24)",
        "InChIKey": null,
        "Canonical SMILES": "O=C(O)CN(CC(=O)O)C1CCCCC1N(CC(=O)O)CC(=O)O",
        "Molecular Formula": "C<sub>14</sub>H<sub>22</sub>N<sub>2</sub>O<sub>8</sub>",
        "Molecular Mass": "346.33",
        "Melting Point": "215 °C"
    }
}