{
    "cas_no": "2997-85-5",
    "key_name": "1,4-Dioctyl (2<em>E</em>)-2-butenedioate",
    "cn_name": null,
    "alternate_name": "2-Butenedioic acid (2<em>E</em>)-, 1,4-dioctyl ester;Fumaric acid, dioctyl ester;2-Butenedioic acid (<em>E</em>)-, dioctyl ester;2-Butenedioic acid (2<em>E</em>)-, dioctyl ester;1,4-Dioctyl (2<em>E</em>)-2-butenedioate;Dioctyl fumarate;Di-<em>n</em>-octyl fumarate;Dicapryl fumarate",
    "duplicated_cas_no": "",
    "SMILES": "C(/C=C/C(OCCCCCCCC)=O)(OCCCCCCCC)=O",
    "meta_data": {
        "InChI": "InChI=1S/C20H36O4/c1-3-5-7-9-11-13-17-23-19(21)15-16-20(22)24-18-14-12-10-8-6-4-2/h15-16H,3-14,17-18H2,1-2H3/b16-15+",
        "InChIKey": null,
        "Canonical SMILES": "O=C(OCCCCCCCC)C=CC(=O)OCCCCCCCC",
        "Molecular Formula": "C<sub>20</sub>H<sub>36</sub>O<sub>4</sub>",
        "Molecular Mass": "340.50",
        "Boiling Point": "190 °C @ Press: 0.8 Torr",
        "Density": "0.9290 g/cm³ @ Temp: 23 °C"
    }
}