{
    "cas_no": "87-24-1",
    "key_name": "Ethyl 2-methylbenzoate",
    "cn_name": "邻甲基苯甲酸乙酯;",
    "alternate_name": "Benzoic acid, 2-methyl-, ethyl ester;<em>o</em>-Toluic acid, ethyl ester;Ethyl 2-methylbenzoate;Ethyl <em>o</em>-toluate;Ethyl <em>o</em>-methylbenzoate;NSC 29048;2-Methylbenzoic acid ethyl ester",
    "duplicated_cas_no": "",
    "SMILES": "C(OCC)(=O)C1=C(C)C=CC=C1",
    "meta_data": {
        "InChI": "InChI=1S/C10H12O2/c1-3-12-10(11)9-7-5-4-6-8(9)2/h4-7H,3H2,1-2H3",
        "InChIKey": null,
        "Canonical SMILES": "O=C(OCC)C=1C=CC=CC1C",
        "Molecular Formula": "C<sub>10</sub>H<sub>12</sub>O<sub>2</sub>",
        "Molecular Mass": "164.20",
        "Boiling Point": "227 °C",
        "Melting Point": "&lt;-10 °C"
    }
}