{
    "cas_no": "1885-29-6",
    "key_name": "2-Aminobenzonitrile",
    "cn_name": "2-氨基苯甲腈;",
    "alternate_name": "Benzonitrile, 2-amino-;Anthranilonitrile;2-Aminobenzonitrile;<em>o</em>-Aminobenzonitrile;2-Cyano-1-aminobenzene;2-Cyanoaniline;<em>o</em>-Cyanoaniline;2-Cyanophenylamine;1-Amino-2-cyanobenzene",
    "duplicated_cas_no": "",
    "SMILES": "C(#N)C1=C(N)C=CC=C1",
    "meta_data": {
        "InChI": "InChI=1S/C7H6N2/c8-5-6-3-1-2-4-7(6)9/h1-4H,9H2",
        "InChIKey": null,
        "Canonical SMILES": "N#CC=1C=CC=CC1N",
        "Molecular Formula": "C<sub>7</sub>H<sub>6</sub>N<sub>2</sub>",
        "Molecular Mass": "118.14",
        "Boiling Point": "263 °C",
        "Melting Point": "51 °C"
    }
}