{
    "cas_no": "2609-46-3",
    "key_name": "Amiloride",
    "cn_name": null,
    "alternate_name": "2-Pyrazinecarboxamide, 3,5-diamino-<em>N</em>-(aminoiminomethyl)-6-chloro-;Pyrazinecarboxamide, <em>N</em>-amidino-3,5-diamino-6-chloro-;Pyrazinecarboxamide, 3,5-diamino-<em>N</em>-(aminoiminomethyl)-6-chloro-;3,5-Diamino-<em>N</em>-(aminoiminomethyl)-6-chloro-2-pyrazinecarboxamide;<em>N</em>-Amidino-3,5-diamino-6-chloropyrazinecarboxamide;Amiloride;MK 870;(3,5-Diamino-6-chloropyrazinoyl)guanidine;Guanamprazine;Amipramidin;Hydikal;3,5-Diamino-6-chloro-<em>N</em>-(diaminomethylidene)pyrazine-2-carboxamide;3,5-Diamino-<em>N</em>-carbamimidoyl-6-chloropyrazine-2-carboxamide;MeSH ID: D000584",
    "duplicated_cas_no": "137053-85-1",
    "SMILES": "C(NC(=N)N)(=O)C=1C(N)=NC(N)=C(Cl)N1",
    "meta_data": {
        "InChI": "InChI=1S/C6H8ClN7O/c7-2-4(9)13-3(8)1(12-2)5(15)14-6(10)11/h(H4,8,9,13)(H4,10,11,14,15)",
        "InChIKey": null,
        "Canonical SMILES": "O=C(NC(=N)N)C1=NC(Cl)=C(N=C1N)N",
        "Molecular Formula": "C<sub>6</sub>H<sub>8</sub>ClN<sub>7</sub>O",
        "Molecular Mass": "229.63",
        "Melting Point": "241 °C"
    }
}