{
    "cas_no": "7440-61-1",
    "key_name": "Uranium",
    "cn_name": null,
    "alternate_name": "Uranium;Uranium-238;Uranium I (<sup>238</sup>U);U element;Uranium, isotope of mass 238;<sup>238</sup>U;<sup>238</sup>U element;U 238;MeSH ID: D014501",
    "duplicated_cas_no": "24678-82-8;1240656-48-7",
    "SMILES": "[U]",
    "meta_data": {
        "InChI": "InChI=1S/U",
        "InChIKey": null,
        "Canonical SMILES": "[U]",
        "Molecular Formula": "U",
        "Molecular Mass": "",
        "Boiling Point": "4131 °C",
        "Melting Point": "1135 °C",
        "Density": "19.1 g/cm³"
    }
}