{
    "cas_no": "19009-39-3",
    "key_name": "<em>N</em>,<em>N</em>-Bis(1-methylethyl)carbamic chloride",
    "cn_name": null,
    "alternate_name": "Carbamic chloride, <em>N</em>,<em>N</em>-bis(1-methylethyl)-;Carbamoyl chloride, diisopropyl-;Carbamic chloride, bis(1-methylethyl)-;<em>N</em>,<em>N</em>-Bis(1-methylethyl)carbamic chloride;Diisopropylcarbamoyl chloride;<em>N</em>,<em>N</em>-Diisopropylcarbamoyl chloride;Diisopropylcarbamyl chloride;Diisopropylcarbamic chloride",
    "duplicated_cas_no": "",
    "SMILES": "N(C(C)C)(C(C)C)C(Cl)=O",
    "meta_data": {
        "InChI": "InChI=1S/C7H14ClNO/c1-5(2)9(6(3)4)7(8)10/h5-6H,1-4H3",
        "InChIKey": null,
        "Canonical SMILES": "O=C(Cl)N(C(C)C)C(C)C",
        "Molecular Formula": "C<sub>7</sub>H<sub>14</sub>ClNO",
        "Molecular Mass": "163.65",
        "Boiling Point": "90-93 °C @ Press: 15 Torr",
        "Melting Point": "60 °C"
    }
}