{
    "cas_no": "39263-32-6",
    "key_name": "2-Amino-5-bromobenzonitrile",
    "cn_name": "2-氨基-5-溴苯腈; 2-氨基-5-溴苯甲腈;",
    "alternate_name": "Benzonitrile, 2-amino-5-bromo-;Anthranilonitrile, 5-bromo-;2-Amino-5-bromobenzonitrile;5-Bromoanthranilonitrile;2-Cyano-4-bromoaniline;4-Bromo-2-cyanoaniline;NSC 263786;5-Bromo-2-aminobenzonitrile",
    "duplicated_cas_no": "",
    "SMILES": "C(#N)C1=C(N)C=CC(Br)=C1",
    "meta_data": {
        "InChI": "InChI=1S/C7H5BrN2/c8-6-1-2-7(10)5(3-6)4-9/h1-3H,10H2",
        "InChIKey": null,
        "Canonical SMILES": "N#CC1=CC(Br)=CC=C1N",
        "Molecular Formula": "C<sub>7</sub>H<sub>5</sub>BrN<sub>2</sub>",
        "Molecular Mass": "197.03",
        "Melting Point": "96-97 °C"
    }
}