{
    "cas_no": "1199-59-3",
    "key_name": "4-(Dimethylamino)-2-methylbenzaldehyde",
    "cn_name": "4-二甲氨基邻甲苯醛;",
    "alternate_name": "Benzaldehyde, 4-(dimethylamino)-2-methyl-;<em>o</em>-Tolualdehyde, 4-(dimethylamino)-;4-(Dimethylamino)-2-methylbenzaldehyde;4-Dimethylamino-<em>o</em>-tolualdehyde;2-Methyl-4-(dimethylamino)benzaldehyde;2-Methyl-4-(<em>N</em>,<em>N</em>-dimethylamino)benzaldehyde;NSC 156548",
    "duplicated_cas_no": "",
    "SMILES": "N(C)(C)C1=CC(C)=C(C=O)C=C1",
    "meta_data": {
        "InChI": "InChI=1S/C10H13NO/c1-8-6-10(11(2)3)5-4-9(8)7-12/h4-7H,1-3H3",
        "InChIKey": null,
        "Canonical SMILES": "O=CC1=CC=C(C=C1C)N(C)C",
        "Molecular Formula": "C<sub>10</sub>H<sub>13</sub>NO",
        "Molecular Mass": "163.22",
        "Melting Point": "69.5 °C"
    }
}