{
    "cas_no": "21331-86-2",
    "key_name": "<em>N</em>,<em>N</em>-Bis(dimethylsilyl)-1,1-dimethylsilanamine",
    "cn_name": null,
    "alternate_name": "Silanamine, <em>N</em>,<em>N</em>-bis(dimethylsilyl)-1,1-dimethyl-;Disilazane, 2-(dimethylsilyl)-1,1,3,3-tetramethyl-;<em>N</em>,<em>N</em>-Bis(dimethylsilyl)-1,1-dimethylsilanamine;Tris(dimethylsilyl)amine;[[Bis(dimethylsilyl)amino]-methylsilyl]methane",
    "duplicated_cas_no": "",
    "SMILES": "N([SiH](C)C)([SiH](C)C)[SiH](C)C",
    "meta_data": {
        "InChI": "InChI=1S/C6H21NSi3/c1-8(2)7(9(3)4)10(5)6/h8-10H,1-6H3",
        "InChIKey": null,
        "Canonical SMILES": "N([SiH](C)C)([SiH](C)C)[SiH](C)C",
        "Molecular Formula": "C<sub>6</sub>H<sub>21</sub>NSi<sub>3</sub>",
        "Molecular Mass": "191.49",
        "Boiling Point": "152-155 °C",
        "Density": "0.804 g/cm³"
    }
}