{
    "cas_no": "355-63-5",
    "key_name": "1,1,2,3,3,4,4,5,5,6,6,7,7,7-Tetradecafluoro-1-heptene",
    "cn_name": "全氟庚烯-1;十四氟-1-庚烯;",
    "alternate_name": "1-Heptene, 1,1,2,3,3,4,4,5,5,6,6,7,7,7-tetradecafluoro-;1-Heptene, tetradecafluoro-;1,1,2,3,3,4,4,5,5,6,6,7,7,7-Tetradecafluoro-1-heptene;Tetradecafluoro-1-heptene;Perfluoro-1-heptene",
    "duplicated_cas_no": "",
    "SMILES": "C(C(C(C(=C(F)F)F)(F)F)(F)F)(C(C(F)(F)F)(F)F)(F)F",
    "meta_data": {
        "InChI": "InChI=1S/C7F14/c8-1(2(9)10)3(11,12)4(13,14)5(15,16)6(17,18)7(19,20)21",
        "InChIKey": null,
        "Canonical SMILES": "FC(F)=C(F)C(F)(F)C(F)(F)C(F)(F)C(F)(F)C(F)(F)F",
        "Molecular Formula": "C<sub>7</sub>F<sub>14</sub>",
        "Molecular Mass": "350.05",
        "Boiling Point": "81 °C"
    }
}