{
    "cas_no": "879-36-7",
    "key_name": "1<em>H</em>-Indole-3-ethanamine, α-methyl-, hydrochloride (1:1)",
    "cn_name": null,
    "alternate_name": "1<em>H</em>-Indole-3-ethanamine, α-methyl-, hydrochloride (1:1);Indole, 3-(2-aminopropyl)-, monohydrochloride;1<em>H</em>-Indole-3-ethanamine, α-methyl-, monohydrochloride;Indopan;α-Methyltryptamine hydrochloride;<em>dl</em>-α-Methyltryptamine hydrochloride",
    "duplicated_cas_no": "14702-62-6",
    "SMILES": "C(C(C)N)C=1C=2C(NC1)=CC=CC2.Cl",
    "meta_data": {
        "InChI": "InChI=1S/C11H14N2.ClH/c1-8(12)6-9-7-13-11-5-3-2-4-10(9)11;/h2-5,7-8,13H,6,12H2,1H3;1H",
        "InChIKey": null,
        "Canonical SMILES": "Cl.NC(C)CC1=CNC=2C=CC=CC21",
        "Molecular Formula": "C<sub>11</sub>H<sub>14</sub>N<sub>2</sub>.ClH",
        "Molecular Mass": "",
        "Melting Point": "217 °C"
    }
}