{
    "cas_no": "77498-98-7",
    "key_name": "2-Phenyl-1<em>H</em>-imidazole-5-carboxylic acid",
    "cn_name": null,
    "alternate_name": "1<em>H</em>-Imidazole-5-carboxylic acid, 2-phenyl-;1<em>H</em>-Imidazole-4-carboxylic acid, 2-phenyl-;2-Phenyl-1<em>H</em>-imidazole-5-carboxylic acid;2-Phenylimidazole-4-carboxylic acid;2-Phenyl-1<em>H</em>-imidazole-4-carboxylic acid",
    "duplicated_cas_no": "",
    "SMILES": "C(O)(=O)C=1NC(=NC1)C2=CC=CC=C2",
    "meta_data": {
        "InChI": "InChI=1S/C10H8N2O2/c13-10(14)8-6-11-9(12-8)7-4-2-1-3-5-7/h1-6H,(H,11,12)(H,13,14)",
        "InChIKey": null,
        "Canonical SMILES": "O=C(O)C1=CN=C(N1)C=2C=CC=CC2",
        "Molecular Formula": "C<sub>10</sub>H<sub>8</sub>N<sub>2</sub>O<sub>2</sub>",
        "Molecular Mass": "188.18",
        "Melting Point": "239 °C"
    }
}