{
    "cas_no": "61310-53-0",
    "key_name": "3-Ethoxy-2-propenenitrile",
    "cn_name": "3-乙氧基丙烯腈;",
    "alternate_name": "2-Propenenitrile, 3-ethoxy-;Acrylonitrile, 3-ethoxy-;3-Ethoxy-2-propenenitrile;3-Ethoxyacrylonitrile;β-Ethoxyacrylonitrile;NSC 27790",
    "duplicated_cas_no": "",
    "SMILES": "C(=CC#N)OCC",
    "meta_data": {
        "InChI": "InChI=1S/C5H7NO/c1-2-7-5-3-4-6/h3,5H,2H2,1H3",
        "InChIKey": null,
        "Canonical SMILES": "N#CC=COCC",
        "Molecular Formula": "C<sub>5</sub>H<sub>7</sub>NO",
        "Molecular Mass": "97.12",
        "Boiling Point": "71-72 °C @ Press: 8 Torr",
        "Density": "0.925 g/cm³ @ Temp: 25 °C"
    }
}