{
    "cas_no": "219861-08-2",
    "key_name": "Escitalopram oxalate",
    "cn_name": "草酸右旋西酞普兰;草酸依地普伦;草酸依他普伦;1-[3-(二甲胺基)丙基]-1-(4-氟苯基)-1,3-二氢-5-异苯并呋喃甲;",
    "alternate_name": "5-Isobenzofurancarbonitrile, 1-[3-(dimethylamino)propyl]-1-(4-fluorophenyl)-1,3-dihydro-, (1<em>S</em>)-, ethanedioate (1:1);Escitalopram oxalate;Lu 26-054-0;Lexapro;Cipralex;(+)-(<em>S</em>)-1-[3-(Dimethylamino)propyl]-1-(4-fluorophenyl)-1,3-dihydroisobenzofuran-5-carbonitrile oxalate (1:1);(<em>S</em>)-(+)Citalopram oxalate;Cipra-Pro;Szetalo",
    "duplicated_cas_no": "",
    "SMILES": "C(CCN(C)C)[C@@]1(C=2C(CO1)=CC(C#N)=CC2)C3=CC=C(F)C=C3.C(C(O)=O)(O)=O",
    "meta_data": {
        "InChI": "InChI=1S/C20H21FN2O.C2H2O4/c1-23(2)11-3-10-20(17-5-7-18(21)8-6-17)19-9-4-15(13-22)12-16(19)14-24-20;3-1(4)2(5)6/h4-9,12H,3,10-11,14H2,1-2H3;(H,3,4)(H,5,6)/t20-;/m0./s1",
        "InChIKey": null,
        "Canonical SMILES": "N#CC1=CC=C2C(=C1)COC2(C3=CC=C(F)C=C3)CCCN(C)C.O=C(O)C(=O)O",
        "Molecular Formula": "C<sub>20</sub>H<sub>21</sub>FN<sub>2</sub>O.C<sub>2</sub>H<sub>2</sub>O<sub>4</sub>",
        "Molecular Mass": "",
        "Melting Point": "144-146 °C"
    }
}