{
    "cas_no": "67191-93-9",
    "key_name": "5-Fluoro-2-methylphenyl isocyanate",
    "cn_name": "5-氟-2-甲基苯基异氰酸酯;",
    "alternate_name": "Benzene, 4-fluoro-2-isocyanato-1-methyl-;4-Fluoro-2-isocyanato-1-methylbenzene;5-Fluoro-2-methylphenyl isocyanate;1-Fluoro-3-isocyanato-4-methylbenzene",
    "duplicated_cas_no": "",
    "SMILES": "N(=C=O)C1=C(C)C=CC(F)=C1",
    "meta_data": {
        "InChI": "InChI=1S/C8H6FNO/c1-6-2-3-7(9)4-8(6)10-5-11/h2-4H,1H3",
        "InChIKey": null,
        "Canonical SMILES": "O=C=NC1=CC(F)=CC=C1C",
        "Molecular Formula": "C<sub>8</sub>H<sub>6</sub>FNO",
        "Molecular Mass": "151.14",
        "Boiling Point": "74 °C @ Press: 14 Torr"
    }
}