{
    "cas_no": "573-54-6",
    "key_name": "2-Bromo-3-nitrobenzoic acid",
    "cn_name": "2-溴-3-硝基苯甲酸;",
    "alternate_name": "Benzoic acid, 2-bromo-3-nitro-;2-Bromo-3-nitrobenzoic acid;NSC 9006",
    "duplicated_cas_no": "855832-30-3",
    "SMILES": "C(O)(=O)C1=C(Br)C(N(=O)=O)=CC=C1",
    "meta_data": {
        "InChI": "InChI=1S/C7H4BrNO4/c8-6-4(7(10)11)2-1-3-5(6)9(12)13/h1-3H,(H,10,11)",
        "InChIKey": null,
        "Canonical SMILES": "O=C(O)C1=CC=CC(=C1Br)N(=O)=O",
        "Molecular Formula": "C<sub>7</sub>H<sub>4</sub>BrNO<sub>4</sub>",
        "Molecular Mass": "246.01",
        "Melting Point": "178-179 °C"
    }
}