{
    "cas_no": "2252-45-1",
    "key_name": "1-Bromo-3-[(trifluoromethyl)thio]benzene",
    "cn_name": "3-(三氟甲基硫代)溴苯;",
    "alternate_name": "Benzene, 1-bromo-3-[(trifluoromethyl)thio]-;Sulfide, <em>m</em>-bromophenyl trifluoromethyl;1-Bromo-3-[(trifluoromethyl)thio]benzene;1-Bromo-3-trifluoromethylthiobenzene;(3-Bromophenyl)(trifluoromethyl)sulfane;1-Bromo-3-[(trifluoromethyl)sulfanyl]benzene;1-Bromo-3-(trifluoromethylsulfanyl)benzene",
    "duplicated_cas_no": "",
    "SMILES": "S(C(F)(F)F)C1=CC(Br)=CC=C1",
    "meta_data": {
        "InChI": "InChI=1S/C7H4BrF3S/c8-5-2-1-3-6(4-5)12-7(9,10)11/h1-4H",
        "InChIKey": null,
        "Canonical SMILES": "FC(F)(F)SC=1C=CC=C(Br)C1",
        "Molecular Formula": "C<sub>7</sub>H<sub>4</sub>BrF<sub>3</sub>S",
        "Molecular Mass": "257.07",
        "Boiling Point": "192-194 °C"
    }
}