{
    "cas_no": "943-80-6",
    "key_name": "4-Amino-<span class=\"text-smallcaps\">L</span>-phenylalanine",
    "cn_name": null,
    "alternate_name": "<span class=\"text-smallcaps\">L</span>-Phenylalanine, 4-amino-;Alanine, 3-(<em>p</em>-aminophenyl)-, <span class=\"text-smallcaps\">L</span>-;4-Amino-<span class=\"text-smallcaps\">L</span>-phenylalanine;<span class=\"text-smallcaps\">L</span>-(+)-<em>p</em>-Aminophenylalanine;4-Aminophenylalanine;<em>p</em>-Amino-<span class=\"text-smallcaps\">L</span>-phenylalanine;<span class=\"text-smallcaps\">L</span>-4-Aminophenylalanine;Aminophenylalanine;<em>p</em>-Aminophenylalanine;(<em>S</em>)-2-Amino-3-(4-aminophenyl)propionic acid;(2S)-2-Amino-3-(4-aminophenyl)propanoic acid",
    "duplicated_cas_no": "",
    "SMILES": "C([C@@H](C(O)=O)N)C1=CC=C(N)C=C1",
    "meta_data": {
        "InChI": "InChI=1S/C9H12N2O2/c10-7-3-1-6(2-4-7)5-8(11)9(12)13/h1-4,8H,5,10-11H2,(H,12,13)/t8-/m0/s1",
        "InChIKey": null,
        "Canonical SMILES": "O=C(O)C(N)CC1=CC=C(N)C=C1",
        "Molecular Formula": "C<sub>9</sub>H<sub>12</sub>N<sub>2</sub>O<sub>2</sub>",
        "Molecular Mass": "180.20",
        "Melting Point": "265 °C (decomp)"
    }
}