{
    "cas_no": "88082-66-0",
    "key_name": "(α<em>R</em>,β<em>R</em>)-β-Amino-α-phenylbenzeneethanol",
    "cn_name": null,
    "alternate_name": "Benzeneethanol, β-amino-α-phenyl-, (α<em>R</em>,β<em>R</em>)-;Benzeneethanol, β-amino-α-phenyl-, [<em>R</em>-(<em>R</em>*,<em>R</em>*)]-;(α<em>R</em>,β<em>R</em>)-β-Amino-α-phenylbenzeneethanol;(<em>R</em>,<em>R</em>)-2-Amino-1,2-diphenylethanol;(1<em>R</em>,2<em>R</em>)-1-Amino-2-hydroxy-1,2-diphenylethane;(1<em>R</em>,2<em>R</em>)-(+)-2-Amino-1,2-diphenylethanol",
    "duplicated_cas_no": "",
    "SMILES": "[C@@H]([C@H](O)C1=CC=CC=C1)(N)C2=CC=CC=C2",
    "meta_data": {
        "InChI": "InChI=1S/C14H15NO/c15-13(11-7-3-1-4-8-11)14(16)12-9-5-2-6-10-12/h1-10,13-14,16H,15H2/t13-,14-/m1/s1",
        "InChIKey": null,
        "Canonical SMILES": "OC(C=1C=CC=CC1)C(N)C=2C=CC=CC2",
        "Molecular Formula": "C<sub>14</sub>H<sub>15</sub>NO",
        "Molecular Mass": "213.27",
        "Melting Point": "104-106 °C"
    }
}