{
    "cas_no": "518-67-2",
    "key_name": "Phenanthridinium, 3,8-diamino-5-methyl-6-phenyl-, bromide (1:1)",
    "cn_name": null,
    "alternate_name": "Phenanthridinium, 3,8-diamino-5-methyl-6-phenyl-, bromide (1:1);Phenanthridinium, 3,8-diamino-5-methyl-6-phenyl-, bromide;3,8-Diamino-5-methyl-6-phenylphenanthridinium bromide;Dimidium bromide;Phenanthridinium compound 1553;Phenanthridium 1553;Trypadine",
    "duplicated_cas_no": "",
    "SMILES": "C[N+]=1C(=C2C(=C3C1C=C(N)C=C3)C=CC(N)=C2)C4=CC=CC=C4.[Br-]",
    "meta_data": {
        "InChI": "InChI=1S/C20H17N3.BrH/c1-23-19-12-15(22)8-10-17(19)16-9-7-14(21)11-18(16)20(23)13-5-3-2-4-6-13;/h2-12,22H,21H2,1H3;1H",
        "InChIKey": null,
        "Canonical SMILES": "[Br-].NC=1C=CC=2C=3C=CC(N)=CC3[N+](=C(C=4C=CC=CC4)C2C1)C",
        "Molecular Formula": "C<sub>20</sub>H<sub>18</sub>N<sub>3</sub>.Br",
        "Molecular Mass": "",
        "Melting Point": "240 °C (decomp)"
    }
}