{
    "cas_no": "2393-18-2",
    "key_name": "3-(4-Aminophenyl)-2-propenoic acid",
    "cn_name": "4-氨基肉桂酸;胺桂皮酸;",
    "alternate_name": "2-Propenoic acid, 3-(4-aminophenyl)-;Cinnamic acid, <em>p</em>-amino-;3-(4-Aminophenyl)-2-propenoic acid;4-Aminocinnamic acid;<em>p</em>-Aminocinnamic acid;NSC 1780",
    "duplicated_cas_no": "",
    "SMILES": "C(=CC(O)=O)C1=CC=C(N)C=C1",
    "meta_data": {
        "InChI": "InChI=1S/C9H9NO2/c10-8-4-1-7(2-5-8)3-6-9(11)12/h1-6H,10H2,(H,11,12)",
        "InChIKey": null,
        "Canonical SMILES": "O=C(O)C=CC1=CC=C(N)C=C1",
        "Molecular Formula": "C<sub>9</sub>H<sub>9</sub>NO<sub>2</sub>",
        "Molecular Mass": "163.17",
        "Melting Point": "155-160 °C (decomp)"
    }
}