{
    "cas_no": "4900-30-5",
    "key_name": "1,8-Nonadiene",
    "cn_name": null,
    "alternate_name": "1,8-Nonadiene",
    "duplicated_cas_no": "",
    "SMILES": "C(CCC=C)CCC=C",
    "meta_data": {
        "InChI": "InChI=1S/C9H16/c1-3-5-7-9-8-6-4-2/h3-4H,1-2,5-9H2",
        "InChIKey": null,
        "Canonical SMILES": "C=CCCCCCC=C",
        "Molecular Formula": "C<sub>9</sub>H<sub>16</sub>",
        "Molecular Mass": "124.22",
        "Boiling Point": "142.5 °C",
        "Melting Point": "-21 °C",
        "Density": "0.8159 g/cm³ @ Temp: 21 °C"
    }
}