{
    "cas_no": "2975-36-2",
    "key_name": "10<em>H</em>-Phenothiazine, 10-[(1-methyl-3-piperidinyl)methyl]-, hydrochloride (1:1)",
    "cn_name": null,
    "alternate_name": "10<em>H</em>-Phenothiazine, 10-[(1-methyl-3-piperidinyl)methyl]-, hydrochloride (1:1);Phenothiazine, 10-[(1-methyl-3-piperidyl)methyl]-, monohydrochloride;10<em>H</em>-Phenothiazine, 10-[(1-methyl-3-piperidinyl)methyl]-, monohydrochloride;Mepazine hydrochloride;Pecazine monohydrochloride;Mepazine chloride;Pecazine hydrochloride;NSC 64076",
    "duplicated_cas_no": "",
    "SMILES": "C(N1C=2C(SC=3C1=CC=CC3)=CC=CC2)C4CN(C)CCC4.Cl",
    "meta_data": {
        "InChI": "InChI=1S/C19H22N2S.ClH/c1-20-12-6-7-15(13-20)14-21-16-8-2-4-10-18(16)22-19-11-5-3-9-17(19)21;/h2-5,8-11,15H,6-7,12-14H2,1H3;1H",
        "InChIKey": null,
        "Canonical SMILES": "Cl.S1C=2C=CC=CC2N(C=3C=CC=CC13)CC4CN(C)CCC4",
        "Molecular Formula": "C<sub>19</sub>H<sub>22</sub>N<sub>2</sub>S.ClH",
        "Molecular Mass": "",
        "Boiling Point": "180-183 °C @ Press: 0.5 Torr",
        "Melting Point": "180-181 °C"
    }
}