{
    "cas_no": "19833-96-6",
    "key_name": "Methyl α-cyclopentyl-α-hydroxybenzeneacetate",
    "cn_name": "2-环戊基-2-羟基苯乙酸甲酯;",
    "alternate_name": "Benzeneacetic acid, α-cyclopentyl-α-hydroxy-, methyl ester;Mandelic acid, α-cyclopentyl-, methyl ester;Methyl α-cyclopentyl-α-hydroxybenzeneacetate;Methyl cyclopentylphenylglycolate;Methyl α-cyclopentylmandelate;NSC 93811;Methyl (±)-cyclopentylmandelate;Methyl 2-Cyclopentyl-2-hydroxy-2-phenylacetate",
    "duplicated_cas_no": "64471-42-7",
    "SMILES": "C(C(OC)=O)(O)(C1CCCC1)C2=CC=CC=C2",
    "meta_data": {
        "InChI": "InChI=1S/C14H18O3/c1-17-13(15)14(16,12-9-5-6-10-12)11-7-3-2-4-8-11/h2-4,7-8,12,16H,5-6,9-10H2,1H3",
        "InChIKey": null,
        "Canonical SMILES": "O=C(OC)C(O)(C=1C=CC=CC1)C2CCCC2",
        "Molecular Formula": "C<sub>14</sub>H<sub>18</sub>O<sub>3</sub>",
        "Molecular Mass": "234.29",
        "Boiling Point": "120-127 °C @ Press: 0.25 Torr"
    }
}