{
    "cas_no": "4571-25-9",
    "key_name": "2-Bromo-1-(2,5-dichlorophenyl)ethanone",
    "cn_name": "2-溴-1-(2,5-二氯苯基)乙酮; 2-溴-2\",5\"-二氯苯乙酮;",
    "alternate_name": "Ethanone, 2-bromo-1-(2,5-dichlorophenyl)-;Acetophenone, 2-bromo-2′,5′-dichloro-;2-Bromo-1-(2,5-dichlorophenyl)ethanone;2-Bromo-2′,5′-dichloroacetophenone;2,5-Dichlorophenacyl bromide;α-Bromo-2′,5′-dichloroacetophenone;2-Bromo-1-(2,5-dichlorophenyl)ethan-1-one",
    "duplicated_cas_no": "",
    "SMILES": "C(CBr)(=O)C1=C(Cl)C=CC(Cl)=C1",
    "meta_data": {
        "InChI": "InChI=1S/C8H5BrCl2O/c9-4-8(12)6-3-5(10)1-2-7(6)11/h1-3H,4H2",
        "InChIKey": null,
        "Canonical SMILES": "O=C(C1=CC(Cl)=CC=C1Cl)CBr",
        "Molecular Formula": "C<sub>8</sub>H<sub>5</sub>BrCl<sub>2</sub>O",
        "Molecular Mass": "267.93",
        "Melting Point": "34.5-35 °C"
    }
}