{
    "cas_no": "497-39-2",
    "key_name": "Di-<em>tert</em>-Butyl-<em>m</em>-cresol",
    "cn_name": "2,4-双(1,1-二甲乙基)-5-甲基苯酚;",
    "alternate_name": "Phenol, 2,4-bis(1,1-dimethylethyl)-5-methyl-;<em>m</em>-Cresol, 4,6-di-<em>tert</em>-butyl-;2,4-Bis(1,1-dimethylethyl)-5-methylphenol;DBMC;4,6-Di-<em>tert</em>-butyl-<em>m</em>-cresol;2,4-Di-<em>tert</em>-butyl-5-methylphenol;3-Methyl-4,6-di-<em>tert</em>-butylphenol;Di-<em>tert</em>-Butyl-<em>m</em>-cresol;4,6-Di-<em>tert</em>-butyl-3-methylphenol;2,4-Ditert-butyl-5-methylphenol",
    "duplicated_cas_no": "",
    "SMILES": "C(C)(C)(C)C1=CC(C(C)(C)C)=C(O)C=C1C",
    "meta_data": {
        "InChI": "InChI=1S/C15H24O/c1-10-8-13(16)12(15(5,6)7)9-11(10)14(2,3)4/h8-9,16H,1-7H3",
        "InChIKey": null,
        "Canonical SMILES": "OC=1C=C(C(=CC1C(C)(C)C)C(C)(C)C)C",
        "Molecular Formula": "C<sub>15</sub>H<sub>24</sub>O",
        "Molecular Mass": "220.35",
        "Boiling Point": "211 °C @ Press: 100 Torr",
        "Melting Point": "62.1 °C",
        "Density": "0.912 g/cm³ @ Temp: 80 °C"
    }
}