{
    "cas_no": "18166-02-4",
    "key_name": "(Trimethylsilylmethyl)amine",
    "cn_name": "氨甲基三甲基硅烷;三甲基硅甲胺;",
    "alternate_name": "Methanamine, 1-(trimethylsilyl)-;Methylamine, 1-(trimethylsilyl)-;1-(Trimethylsilyl)methanamine;(Trimethylsilylmethyl)amine;Aminomethyltrimethylsilane;1-(Trimethylsilyl)methylamine;NSC 96778;(Trimethylsilyl)methanamine;Trimethyl(aminomethyl)silane;SIA 0596.0",
    "duplicated_cas_no": "",
    "SMILES": "[Si](CN)(C)(C)C",
    "meta_data": {
        "InChI": "InChI=1S/C4H13NSi/c1-6(2,3)4-5/h4-5H2,1-3H3",
        "InChIKey": null,
        "Canonical SMILES": "NC[Si](C)(C)C",
        "Molecular Formula": "C<sub>4</sub>H<sub>13</sub>NSi",
        "Molecular Mass": "103.24",
        "Boiling Point": "94-95 °C",
        "Melting Point": "102-103 °C",
        "Density": "0.769 g/cm³"
    }
}