{
    "cas_no": "935-95-5",
    "key_name": "2,3,5,6-Tetrachlorophenol",
    "cn_name": "2,3,5,6-四氯苯;2,3,5,6-四氯苯酚;",
    "alternate_name": "Phenol, 2,3,5,6-tetrachloro-;2,3,5,6-Tetrachlorophenol;NSC 407823",
    "duplicated_cas_no": "",
    "SMILES": "ClC1=C(O)C(Cl)=C(Cl)C=C1Cl",
    "meta_data": {
        "InChI": "InChI=1S/C6H2Cl4O/c7-2-1-3(8)5(10)6(11)4(2)9/h1,11H",
        "InChIKey": null,
        "Canonical SMILES": "ClC=1C=C(Cl)C(Cl)=C(O)C1Cl",
        "Molecular Formula": "C<sub>6</sub>H<sub>2</sub>Cl<sub>4</sub>O",
        "Molecular Mass": "231.89",
        "Melting Point": "115 °C",
        "Density": "1.6 g/cm³ @ Temp: 60 °C"
    }
}