{
    "cas_no": "2199-52-2",
    "key_name": "Ethyl 2,5-dimethyl-1<em>H</em>-pyrrole-3-carboxylate",
    "cn_name": null,
    "alternate_name": "1<em>H</em>-Pyrrole-3-carboxylic acid, 2,5-dimethyl-, ethyl ester;Pyrrole-3-carboxylic acid, 2,5-dimethyl-, ethyl ester;Ethyl 2,5-dimethyl-1<em>H</em>-pyrrole-3-carboxylate;Ethyl 2,5-dimethylpyrrole-3-carboxylate;2,5-Dimethylpyrrole-3-carboxylic acid ethyl ester;NSC 19437;2,5-Dimethyl-1<em>H</em>-pyrrole-3-carboxylic acid ethyl ester",
    "duplicated_cas_no": "",
    "SMILES": "C(OCC)(=O)C1=C(C)NC(C)=C1",
    "meta_data": {
        "InChI": "InChI=1S/C9H13NO2/c1-4-12-9(11)8-5-6(2)10-7(8)3/h5,10H,4H2,1-3H3",
        "InChIKey": null,
        "Canonical SMILES": "O=C(OCC)C=1C=C(NC1C)C",
        "Molecular Formula": "C<sub>9</sub>H<sub>13</sub>NO<sub>2</sub>",
        "Molecular Mass": "167.21",
        "Melting Point": "117-117.5 °C"
    }
}