{
    "cas_no": "72544-16-2",
    "key_name": "1-Isobutyl-4-piperidinone",
    "cn_name": "N-异丁基-4-哌啶酮;",
    "alternate_name": "4-Piperidinone, 1-(2-methylpropyl)-;1-(2-Methylpropyl)-4-piperidinone;1-Isobutyl-4-piperidinone;1-Isobutyl-4-piperidone;1-(2-Methylpropyl)-4-piperidone;<em>N</em>-Isobutyl-4-piperidinone;1-(2-Methylpropyl)piperidin-4-one",
    "duplicated_cas_no": "",
    "SMILES": "C(C(C)C)N1CCC(=O)CC1",
    "meta_data": {
        "InChI": "InChI=1S/C9H17NO/c1-8(2)7-10-5-3-9(11)4-6-10/h8H,3-7H2,1-2H3",
        "InChIKey": null,
        "Canonical SMILES": "O=C1CCN(CC1)CC(C)C",
        "Molecular Formula": "C<sub>9</sub>H<sub>17</sub>NO",
        "Molecular Mass": "155.24",
        "Boiling Point": "105 °C @ Press: 22 Torr"
    }
}