{
    "cas_no": "36330-85-5",
    "key_name": "Fenbufen",
    "cn_name": "芬布芬;联苯丁酮酸;3-(4-联苯羰基)丙酸;",
    "alternate_name": "[1,1′-Biphenyl]-4-butanoic acid, γ-oxo-;Propionic acid, 3-(4-biphenylylcarbonyl)-;γ-Oxo[1,1′-biphenyl]-4-butanoic acid;3-(4-Biphenylcarbonyl)propionic acid;Fenbufen;CL 82204;Cinopal;Bufemid;Napanol;3-(4-Phenylbenzoyl)propionic acid;4-(4-Phenylphenyl)-4-oxobutyric acid;Lederfen;Cinopol;4-(Biphenyl-4-yl)-4-oxobutanoic acid;3-[(Biphenyl-4-yl)carbonyl]propionic acid;4-(1,1′-Biphenyl-4-yl)-4-oxobutanoic acid",
    "duplicated_cas_no": "",
    "SMILES": "C(CCC(O)=O)(=O)C1=CC=C(C=C1)C2=CC=CC=C2",
    "meta_data": {
        "InChI": "InChI=1S/C16H14O3/c17-15(10-11-16(18)19)14-8-6-13(7-9-14)12-4-2-1-3-5-12/h1-9H,10-11H2,(H,18,19)",
        "InChIKey": null,
        "Canonical SMILES": "O=C(O)CCC(=O)C=1C=CC(=CC1)C=2C=CC=CC2",
        "Molecular Formula": "C<sub>16</sub>H<sub>14</sub>O<sub>3</sub>",
        "Molecular Mass": "254.28",
        "Melting Point": "186 °C"
    }
}