{
    "cas_no": "83732-75-6",
    "key_name": "1-Methyl-1<em>H</em>-pyrrole-2-ethanamine",
    "cn_name": null,
    "alternate_name": "1<em>H</em>-Pyrrole-2-ethanamine, 1-methyl-;1-Methyl-1<em>H</em>-pyrrole-2-ethanamine;2-(2-Aminoethyl)-1-methylpyrrole;2-(2-Aminoethyl)-<em>N</em>-methylpyrrole;1-Methyl-2-(2-aminoethyl)pyrrole;2-(1-Methylpyrrol-2-yl)ethylamine;2-(2-Aminoethyl)-1-methyl-1<em>H</em>-pyrrole;2-(1-Methyl-1<em>H</em>-pyrrol-2-yl)ethanamine;2-(1-Methyl-1<em>H</em>-pyrrol-2-yl)ethan-1-amine;2-(1-Methylpyrrol-2-yl)ethanamine",
    "duplicated_cas_no": "",
    "SMILES": "C(CN)C=1N(C)C=CC1",
    "meta_data": {
        "InChI": "InChI=1S/C7H12N2/c1-9-6-2-3-7(9)4-5-8/h2-3,6H,4-5,8H2,1H3",
        "InChIKey": null,
        "Canonical SMILES": "NCCC1=CC=CN1C",
        "Molecular Formula": "C<sub>7</sub>H<sub>12</sub>N<sub>2</sub>",
        "Molecular Mass": "124.18",
        "Boiling Point": "70-71 °C @ Press: 1.5 Torr"
    }
}