{
    "cas_no": "6424-85-7",
    "key_name": "Acid Blue 40",
    "cn_name": null,
    "alternate_name": "2-Anthracenesulfonic acid, 4-[[4-(acetylamino)phenyl]amino]-1-amino-9,10-dihydro-9,10-dioxo-, sodium salt (1:1);2-Anthracenesulfonic acid, 4-(<em>p</em>-acetamidoanilino)-1-amino-9,10-dihydro-9,10-dioxo-, monosodium salt;2-Anthracenesulfonic acid, 4-[[4-(acetylamino)phenyl]amino]-1-amino-9,10-dihydro-9,10-dioxo-, monosodium salt;2-Anthracenesulfonic acid, 4-(<em>p</em>-acetamidoanilino)-1-amino-9,10-dihydro-9,10-dioxo-, sodium salt;C.I. 62125;Acid Alizarine Blue A 2G;Acid Alizarine Sapphire 2JL;Acidine Fast Blue ADG;Ahcoquinone Blue A 2G;Alizarine Blue A 2G;Alizarine Blue AGG;Alizarine Direct Blue AGG;Alizarine Direct Blue AGG-CF;Alizarine Light Blue 2G;Alizarine Light Blue 2GH;Alizarine Light Blue 2GL;Anthralan Blue G;Anthraquinone Blue 2GAN;Aquamine Blue GL;Calcocid Alizarine Blue A 2G;C.I. Acid Blue 40;Curol Blue AN;Erio Anthracene Brilliant Blue 2GL;Erio Fast Blue 2GL;Erionyl Blue E 2GL;Fenalan Blue G;Kayacyl Blue AGG;Kayaku Alizarine Blue AGG;Kiton Fast Blue 2GL;Lanaperl Blue G;Merpacyl Blue 2GA;Mitsui Alizarine Direct Blue AGG;Nylomine Acid Blue B 3G;Propolan Blue 2GX;Solanol Blue G;Solway Blue 2G;Suminol Fast Blue AGG;Suminol Levelling Blue AGG;Superian Blue 2G;Unitertracid Blue GGL;Unitertracid Fast Blue GGL;4-(<em>p</em>-Acetamidoanilino)-1-amino-2-anthraquinonesulfonic acid monosodium salt;Sodium 1-amino-4-(4-acetamidoanilino)anthraquinone-2-sulfonate;Acid Blue 40;C.I. Acid Blue 40 sodium salt;Alizarine Direct Blue A 2G;Telon Light Blue GGL;Acid Fast Blue 2G;Acid Alizarine Blue 2G;Alizarine Azurol A 2G;Egacid Blue A 2G;Kayanol Blue N 2G;Orbacid Fast Blue AGL;Nylosan Blue E 2GL;Telon Blue GGLL;Aminyl Blue E 2GL;Acid Brilliant Blue 2GB;Acid Blue 2GL;Vicoacid Blue 40;Acid Blue 2G;Acid Blue E 2G;Rifa Acid Fast Blue E-AGG;Dycosacid Brilliant Blue 2GB;Covanyl Blue KGL;Acid Blue AGG;Triacid Light Blue 2G;Superlan Blue 2G;Relon Blue 2G;Selmacid Blue E 2GL;Kenamide Blue G 3G;Apollo Nylon Fast Blue A 2G;Dyacid Blue 2G;Daedo Acid Blue 3AGG;Acid Blue A 2G243;Conacid Blue DO;Acid Blue A 2G;Concorde Acid Blue N 2G;Colocid Blue E 2G;Everacid Blue A 2G;Suracid Blue 2G;Everacid Levelling Blue A 2G;Elbenyl Blue B 2G;Lerui Acid Blue E 2GL;Daedo Acid Blue C-AGG;Fabracid Blue A 2G;Eniacid Light Blue E 2GA;Multacid Blue 2G;Naphthazine Blue KGL;Sellanyl Blue E 2GL;Best Acid Blue N 2G;Eniamide Blue E 2GA;Dinacid Alizarine Blue AZG;Nylosan Blue E 2GL 200;Weak Acid Blue 2G",
    "duplicated_cas_no": "39280-58-5;84842-83-1;1007600-13-6",
    "SMILES": "N(C1=C2C(C(=O)C=3C(C2=O)=CC=CC3)=C(N)C(S(=O)(=O)O)=C1)C4=CC=C(NC(C)=O)C=C4.[Na]",
    "meta_data": {
        "InChI": "InChI=1S/C22H17N3O6S.Na/c1-11(26)24-12-6-8-13(9-7-12)25-16-10-17(32(29,30)31)20(23)19-18(16)21(27)14-4-2-3-5-15(14)22(19)28;/h2-10,25H,23H2,1H3,(H,24,26)(H,29,30,31);",
        "InChIKey": null,
        "Canonical SMILES": "[Na].O=C1C=2C=CC=CC2C(=O)C3=C(C=C(C(N)=C13)S(=O)(=O)O)NC4=CC=C(C=C4)NC(=O)C",
        "Molecular Formula": "C<sub>22</sub>H<sub>17</sub>N<sub>3</sub>O<sub>6</sub>S.Na",
        "Molecular Mass": "",
        "Melting Point": "&gt;300 °C"
    }
}