{
    "cas_no": "3459-18-5",
    "key_name": "<em>p</em>-Nitrophenyl <em>N</em>-acetyl-β-<span class=\"text-smallcaps\">D</span>-glucosaminide",
    "cn_name": "4-硝基苯基-2-乙酰胺基-2-脱氧-B-D-吡喃葡糖霉;",
    "alternate_name": "β-<span class=\"text-smallcaps\">D</span>-Glucopyranoside, 4-nitrophenyl 2-(acetylamino)-2-deoxy-;Glucopyranoside, <em>p</em>-nitrophenyl 2-acetamido-2-deoxy-, β-<span class=\"text-smallcaps\">D</span>-;Glucopyranoside, <em>p</em>-nitrophenyl 2-acetamido-2-deoxy-;β-<span class=\"text-smallcaps\">D</span>-Glucoside, <em>p</em>-nitrophenyl 2-acetamido-2-deoxy-;4-Nitrophenyl 2-(acetylamino)-2-deoxy-β-<span class=\"text-smallcaps\">D</span>-glucopyranoside;<em>p</em>-Nitrophenyl <em>N</em>-acetyl-β-<span class=\"text-smallcaps\">D</span>-glucosaminide;<em>p</em>-Nitrophenyl <em>N</em>-acetyl-β-glucosaminide;4-Nitrophenyl 2-(acetylamino)-2-deoxy-β-<span class=\"text-smallcaps\">D</span>-glucoside;4-Nitrophenyl <em>N</em>-acetylglucosaminide;<em>p</em>-Nitrophenyl 2-acetamido-2-deoxy-β-<span class=\"text-smallcaps\">D</span>-glucopyranoside;<em>p</em>-Nitrophenyl <em>N</em>-acetylglucosaminide;4-Nitrophenyl <em>N</em>-acetyl-β-<span class=\"text-smallcaps\">D</span>-glucosaminide;4-Nitrophenyl-β-<span class=\"text-smallcaps\">D</span>-2-deoxy-2-<em>N</em>-Acetylglucosaminopyranoside",
    "duplicated_cas_no": "29636-02-0;30397-13-8;30402-23-4;36836-90-5;55781-74-3;77996-56-6;90836-31-0;96997-93-2;293738-06-4;799806-19-2;1623804-32-9",
    "SMILES": "O([C@H]1[C@H](NC(C)=O)[C@@H](O)[C@H](O)[C@@H](CO)O1)C2=CC=C(N(=O)=O)C=C2",
    "meta_data": {
        "InChI": "InChI=1S/C14H18N2O8/c1-7(18)15-11-13(20)12(19)10(6-17)24-14(11)23-9-4-2-8(3-5-9)16(21)22/h2-5,10-14,17,19-20H,6H2,1H3,(H,15,18)/t10-,11-,12-,13-,14-/m1/s1",
        "InChIKey": null,
        "Canonical SMILES": "O=C(NC1C(OC2=CC=C(C=C2)N(=O)=O)OC(CO)C(O)C1O)C",
        "Molecular Formula": "C<sub>14</sub>H<sub>18</sub>N<sub>2</sub>O<sub>8</sub>",
        "Molecular Mass": "342.30",
        "Melting Point": "214 °C"
    }
}