{
    "cas_no": "876-31-3",
    "key_name": "4-Cyanophenylacetonitrile",
    "cn_name": "4-氰基苯乙腈;",
    "alternate_name": "Benzeneacetonitrile, 4-cyano-;<em>p</em>-Tolunitrile, α-cyano-;4-Cyanobenzeneacetonitrile;<em>p</em>-Cyanobenzylcyanide;α-Cyano-<em>p</em>-tolunitrile;4-Cyanophenylacetonitrile;1-Cyano-4-(cyanomethyl)benzene;α-Cyano-<em>p</em>-toluonitrile;4-Cyanobenzyl cyanide;(<em>p</em>-Cyanophenyl)acetonitrile;NSC 97215;4-Cyanomethylbenzonitrile",
    "duplicated_cas_no": "",
    "SMILES": "C(C#N)C1=CC=C(C#N)C=C1",
    "meta_data": {
        "InChI": "InChI=1S/C9H6N2/c10-6-5-8-1-3-9(7-11)4-2-8/h1-4H,5H2",
        "InChIKey": null,
        "Canonical SMILES": "N#CC1=CC=C(C=C1)CC#N",
        "Molecular Formula": "C<sub>9</sub>H<sub>6</sub>N<sub>2</sub>",
        "Molecular Mass": "142.16",
        "Boiling Point": "142-143 °C @ Press: 1 Torr",
        "Melting Point": "102-104.5 °C"
    }
}