{
    "cas_no": "1427-07-2",
    "key_name": "2-Fluoro-1-methyl-4-nitrobenzene",
    "cn_name": null,
    "alternate_name": "Benzene, 2-fluoro-1-methyl-4-nitro-;Toluene, 2-fluoro-4-nitro-;2-Fluoro-1-methyl-4-nitrobenzene;2-Fluoro-4-nitrotoluene;3-Fluoro-4-methylnitrobenzene;NSC 60724;1-Methyl-2-fluoro-4-nitrobenzene",
    "duplicated_cas_no": "",
    "SMILES": "N(=O)(=O)C1=CC(F)=C(C)C=C1",
    "meta_data": {
        "InChI": "InChI=1S/C7H6FNO2/c1-5-2-3-6(9(10)11)4-7(5)8/h2-4H,1H3",
        "InChIKey": null,
        "Canonical SMILES": "O=N(=O)C1=CC=C(C(F)=C1)C",
        "Molecular Formula": "C<sub>7</sub>H<sub>6</sub>FNO<sub>2</sub>",
        "Molecular Mass": "155.13",
        "Boiling Point": "65-68 °C @ Press: 2 Torr",
        "Melting Point": "34-35 °C"
    }
}