{
    "cas_no": "2875-18-5",
    "key_name": "2,3,5,6-Tetrafluoropyridine",
    "cn_name": "2,3,5,6-四氟吡啶;",
    "alternate_name": "Pyridine, 2,3,5,6-tetrafluoro-;2,3,5,6-Tetrafluoropyridine",
    "duplicated_cas_no": "",
    "SMILES": "FC1=C(F)N=C(F)C(F)=C1",
    "meta_data": {
        "InChI": "InChI=1S/C5HF4N/c6-2-1-3(7)5(9)10-4(2)8/h1H",
        "InChIKey": null,
        "Canonical SMILES": "FC=1N=C(F)C(F)=CC1F",
        "Molecular Formula": "C<sub>5</sub>HF<sub>4</sub>N",
        "Molecular Mass": "151.06",
        "Boiling Point": "102 °C"
    }
}