{
    "cas_no": "5406-18-8",
    "key_name": "3-(4-Methoxyphenyl)-1-propanol",
    "cn_name": null,
    "alternate_name": "Benzenepropanol, 4-methoxy-;1-Propanol, 3-(<em>p</em>-methoxyphenyl)-;4-Methoxybenzenepropanol;1-(4-Methoxyphenyl)-3-propanol;3-(<em>p</em>-Methoxyphenyl)-1-propanol;3-<em>p</em>-Methoxyphenylpropanol;3-(4-Methoxyphenyl)-1-propanol;NSC 5311;3-(4-Methoxyphenyl)propanol",
    "duplicated_cas_no": "1356955-48-0",
    "SMILES": "C(CCO)C1=CC=C(OC)C=C1",
    "meta_data": {
        "InChI": "InChI=1S/C10H14O2/c1-12-10-6-4-9(5-7-10)3-2-8-11/h4-7,11H,2-3,8H2,1H3",
        "InChIKey": null,
        "Canonical SMILES": "OCCCC1=CC=C(OC)C=C1",
        "Molecular Formula": "C<sub>10</sub>H<sub>14</sub>O<sub>2</sub>",
        "Molecular Mass": "166.22",
        "Boiling Point": "162 °C",
        "Melting Point": "26 °C"
    }
}