{
    "cas_no": "596845-30-6",
    "key_name": "2-Bromo-6-fluoro-4-(trifluoromethyl)quinoline",
    "cn_name": "2-溴-6-氟-4-三氟甲基喹啉;",
    "alternate_name": "Quinoline, 2-bromo-6-fluoro-4-(trifluoromethyl)-;2-Bromo-6-fluoro-4-(trifluoromethyl)quinoline",
    "duplicated_cas_no": "",
    "SMILES": "C(F)(F)(F)C=1C2=C(N=C(Br)C1)C=CC(F)=C2",
    "meta_data": {
        "InChI": "InChI=1S/C10H4BrF4N/c11-9-4-7(10(13,14)15)6-3-5(12)1-2-8(6)16-9/h1-4H",
        "InChIKey": null,
        "Canonical SMILES": "FC=1C=CC2=NC(Br)=CC(=C2C1)C(F)(F)F",
        "Molecular Formula": "C<sub>10</sub>H<sub>4</sub>BrF<sub>4</sub>N",
        "Molecular Mass": "294.04",
        "Melting Point": "108-109 °C"
    }
}