{
    "cas_no": "4618-18-2",
    "key_name": "Lactulose",
    "cn_name": "乳果糖;4-O-beta-D-吡喃半乳糖基-alpha-D-果糖;",
    "alternate_name": "<span class=\"text-smallcaps\">D</smallcap>-Fructose, 4-<em>O</em>-β-<smallcap>D</span>-galactopyranosyl-;Lactulose;Fructose, 4-<em>O</em>-β-<span class=\"text-smallcaps\">D</smallcap>-galactopyranosyl-, <smallcap>D</span>-;4-<em>O</em>-β-<span class=\"text-smallcaps\">D</smallcap>-Galactopyranosyl-<smallcap>D</span>-fructose;<span class=\"text-smallcaps\">D</span>-Lactulose;Bifiteral;Laevolac;Isolactose;Well-me;MLS 50;Farlac;Cephulac;Generlac;Normase;Lactuflor;Duphalac;Laevilac;Milk Oligosaccharide MLP 95;Lazet;Laktusan;MLC 97;Laktulak;Vetalakt;Lael;Lactoflex;Lactofit;Prelax;Osmolak;Kristalose;Solactis galactofructose;Regulact;Milk Oligosaccharide MLS 50;MeSH ID: D007792",
    "duplicated_cas_no": "576-08-9;29319-45-7;33980-82-4;40773-84-0",
    "SMILES": "O([C@@H]([C@@H](C(CO)=O)O)[C@@H](CO)O)[C@@H]1O[C@H](CO)[C@H](O)[C@H](O)[C@H]1O",
    "meta_data": {
        "InChI": "InChI=1S/C12H22O11/c13-1-4(16)7(18)11(5(17)2-14)23-12-10(21)9(20)8(19)6(3-15)22-12/h5-15,17-21H,1-3H2/t5-,6-,7-,8+,9+,10-,11-,12+/m1/s1",
        "InChIKey": null,
        "Canonical SMILES": "O=C(CO)C(O)C(OC1OC(CO)C(O)C(O)C1O)C(O)CO",
        "Molecular Formula": "C<sub>12</sub>H<sub>22</sub>O<sub>11</sub>",
        "Molecular Mass": "342.30",
        "Melting Point": "169 °C"
    }
}