{
    "cas_no": "124236-29-9",
    "key_name": "(2<em>E</em>)-<em>N</em>-Ethyl-<em>N</em>-(2-methylphenyl)-2-butenamide",
    "cn_name": null,
    "alternate_name": "2-Butenamide, <em>N</em>-ethyl-<em>N</em>-(2-methylphenyl)-, (2<em>E</em>)-;2-Butenamide, <em>N</em>-ethyl-<em>N</em>-(2-methylphenyl)-, (<em>E</em>)-;(2<em>E</em>)-<em>N</em>-Ethyl-<em>N</em>-(2-methylphenyl)-2-butenamide;<em>trans</em>-Crotamiton",
    "duplicated_cas_no": "",
    "SMILES": "N(C(/C=C/C)=O)(CC)C1=C(C)C=CC=C1",
    "meta_data": {
        "InChI": "InChI=1S/C13H17NO/c1-4-8-13(15)14(5-2)12-10-7-6-9-11(12)3/h4,6-10H,5H2,1-3H3/b8-4+",
        "InChIKey": null,
        "Canonical SMILES": "O=C(C=CC)N(C=1C=CC=CC1C)CC",
        "Molecular Formula": "C<sub>13</sub>H<sub>17</sub>NO",
        "Molecular Mass": "203.28",
        "Boiling Point": "153-155 °C @ Press: 13 Torr"
    }
}