{
    "cas_no": "827614-69-7",
    "key_name": "1-Propyl-4-(4,4,5,5-tetramethyl-1,3,2-dioxaborolan-2-yl)-1<em>H</em>-pyrazole",
    "cn_name": "1-丙基-1H-吡唑-4-硼酸频哪醇酯;",
    "alternate_name": "1<em>H</em>-Pyrazole, 1-propyl-4-(4,4,5,5-tetramethyl-1,3,2-dioxaborolan-2-yl)-;1-Propyl-4-(4,4,5,5-tetramethyl-1,3,2-dioxaborolan-2-yl)-1<em>H</em>-pyrazole;1-Propyl-1<em>H</em>-pyrazole-4-boronic acid pinacol ester;1-Propylpyrazole-4-boronic acid pinacol ester;1-Propyl-4-(4,4,5,5-tetramethyl-1,3,2-dioxaborolan-2-yl)pyrazole;1-Propyl-4-(tetramethyl-1,3,2-dioxaborolan-2-yl)-1<em>H</em>-pyrazole",
    "duplicated_cas_no": "",
    "SMILES": "CC1(C)OB(OC1(C)C)C2=CN(CCC)N=C2",
    "meta_data": {
        "InChI": "InChI=1S/C12H21BN2O2/c1-6-7-15-9-10(8-14-15)13-16-11(2,3)12(4,5)17-13/h8-9H,6-7H2,1-5H3",
        "InChIKey": null,
        "Canonical SMILES": "N1=CC(=CN1CCC)B2OC(C)(C)C(O2)(C)C",
        "Molecular Formula": "C<sub>12</sub>H<sub>21</sub>BN<sub>2</sub>O<sub>2</sub>",
        "Molecular Mass": "236.12",
        "Boiling Point": "100-102 °C @ Press: 0.04 Torr"
    }
}