{
    "cas_no": "35000-37-4",
    "key_name": "Phosphonium, [2-(1,1-dimethylethoxy)-2-oxoethyl]triphenyl-, chloride (1:1)",
    "cn_name": "(叔丁氧基羰基甲基)氯化三苯基磷98%;",
    "alternate_name": "Phosphonium, [2-(1,1-dimethylethoxy)-2-oxoethyl]triphenyl-, chloride (1:1);Phosphonium, [2-(1,1-dimethylethoxy)-2-oxoethyl]triphenyl-, chloride;(Carboxymethyl)triphenylphosphonium chloride, <em>tert</em>-butyl ester;(<em>tert</em>-Butoxycarbonylmethyl)triphenylphosphonium chloride",
    "duplicated_cas_no": "",
    "SMILES": "[P+](CC(OC(C)(C)C)=O)(C1=CC=CC=C1)(C2=CC=CC=C2)C3=CC=CC=C3.[Cl-]",
    "meta_data": {
        "InChI": "InChI=1S/C24H26O2P.ClH/c1-24(2,3)26-23(25)19-27(20-13-7-4-8-14-20,21-15-9-5-10-16-21)22-17-11-6-12-18-22;/h4-18H,19H2,1-3H3;1H/q+1;/p-1",
        "InChIKey": null,
        "Canonical SMILES": "[Cl-].O=C(OC(C)(C)C)C[P+](C=1C=CC=CC1)(C=2C=CC=CC2)C=3C=CC=CC3",
        "Molecular Formula": "C<sub>24</sub>H<sub>26</sub>O<sub>2</sub>P.Cl",
        "Molecular Mass": "",
        "Melting Point": "172-173 °C"
    }
}