{
    "cas_no": "4124-30-5",
    "key_name": "Acetic acid, 2,2-dichloro-, 1,1′-anhydride",
    "cn_name": "二氯乙酸酐;",
    "alternate_name": "Acetic acid, 2,2-dichloro-, 1,1′-anhydride;Acetic acid, dichloro-, anhydride;Dichloroacetic anhydride;Dichloroacetic acid anhydride;NSC 401832;2,2-Dichloroacetic anhydride;2,2-Dichloroacetyl 2,2-dichloroacetate",
    "duplicated_cas_no": "",
    "SMILES": "C(OC(C(Cl)Cl)=O)(C(Cl)Cl)=O",
    "meta_data": {
        "InChI": "InChI=1S/C4H2Cl4O3/c5-1(6)3(9)11-4(10)2(7)8/h1-2H",
        "InChIKey": null,
        "Canonical SMILES": "O=C(OC(=O)C(Cl)Cl)C(Cl)Cl",
        "Molecular Formula": "C<sub>4</sub>H<sub>2</sub>Cl<sub>4</sub>O<sub>3</sub>",
        "Molecular Mass": "239.87",
        "Boiling Point": "100-102 °C @ Press: 15 Torr",
        "Melting Point": "17-18 °C"
    }
}