{
    "cas_no": "500011-88-1",
    "key_name": "Ethyl 2-(3-Chloro-2-pyridinyl)-5-oxo-3-pyrazolidinecarboxylate",
    "cn_name": null,
    "alternate_name": "3-Pyrazolidinecarboxylic acid, 2-(3-chloro-2-pyridinyl)-5-oxo-, ethyl ester;Ethyl 2-(3-Chloro-2-pyridinyl)-5-oxo-3-pyrazolidinecarboxylate;Ethyl 1-(3-chloro-2-pyridinyl)-3-pyrazolidinone-5-carboxylate;Ethyl 2-(3-chloro-2-pyridyl)-5-oxopyrazolidine-3-carboxylate",
    "duplicated_cas_no": "1308889-90-8",
    "SMILES": "C(OCC)(=O)C1N(NC(=O)C1)C2=C(Cl)C=CC=N2",
    "meta_data": {
        "InChI": "InChI=1S/C11H12ClN3O3/c1-2-18-11(17)8-6-9(16)14-15(8)10-7(12)4-3-5-13-10/h3-5,8H,2,6H2,1H3,(H,14,16)",
        "InChIKey": null,
        "Canonical SMILES": "O=C(OCC)C1N(NC(=O)C1)C2=NC=CC=C2Cl",
        "Molecular Formula": "C<sub>11</sub>H<sub>12</sub>ClN<sub>3</sub>O<sub>3</sub>",
        "Molecular Mass": "269.68",
        "Melting Point": "132-134 °C"
    }
}