{
    "cas_no": "6143-29-9",
    "key_name": "Bicyclo[2.2.1]hept-5-en-2-ol, 2-acetate",
    "cn_name": "5-降冰烯-2-基乙酸酯;",
    "alternate_name": "Bicyclo[2.2.1]hept-5-en-2-ol, 2-acetate;5-Norbornen-2-ol, acetate;Bicyclo[2.2.1]hept-5-en-2-ol, acetate;5-Norbornen-2-yl acetate;NSC 29887",
    "duplicated_cas_no": "",
    "SMILES": "O(C(C)=O)C1C2CC(C1)C=C2",
    "meta_data": {
        "InChI": "InChI=1S/C9H12O2/c1-6(10)11-9-5-7-2-3-8(9)4-7/h2-3,7-9H,4-5H2,1H3",
        "InChIKey": null,
        "Canonical SMILES": "O=C(OC1CC2C=CC1C2)C",
        "Molecular Formula": "C<sub>9</sub>H<sub>12</sub>O<sub>2</sub>",
        "Molecular Mass": "152.19",
        "Boiling Point": "73-77 °C @ Press: 14 Torr",
        "Density": "1.0513 g/cm³ @ Temp: 20 °C"
    }
}