{
    "cas_no": "6271-79-0",
    "key_name": "3,3′-Dinitrobenzidine",
    "cn_name": "二硝基联苯胺;",
    "alternate_name": "[1,1′-Biphenyl]-4,4′-diamine, 3,3′-dinitro-;Benzidine, 3,3′-dinitro-;3,3′-Dinitro[1,1′-biphenyl]-4,4′-diamine;3,3′-Dinitrobenzidine;NSC 37067;3,3′-Dinitro-1,1′-biphenyl-4,4′-diamine",
    "duplicated_cas_no": "152243-19-1",
    "SMILES": "N(=O)(=O)C=1C=C(C=CC1N)C2=CC(N(=O)=O)=C(N)C=C2",
    "meta_data": {
        "InChI": "InChI=1S/C12H10N4O4/c13-9-3-1-7(5-11(9)15(17)18)8-2-4-10(14)12(6-8)16(19)20/h1-6H,13-14H2",
        "InChIKey": null,
        "Canonical SMILES": "O=N(=O)C=1C=C(C=CC1N)C2=CC=C(N)C(=C2)N(=O)=O",
        "Molecular Formula": "C<sub>12</sub>H<sub>10</sub>N<sub>4</sub>O<sub>4</sub>",
        "Molecular Mass": "274.23",
        "Melting Point": "&gt;300 °C (sublm)"
    }
}