{
    "cas_no": "15469-77-9",
    "key_name": "3-Decenoic acid",
    "cn_name": "3-癸烯酸;",
    "alternate_name": "3-Decenoic acid",
    "duplicated_cas_no": "",
    "SMILES": "C(CCCCCC)=CCC(O)=O",
    "meta_data": {
        "InChI": "InChI=1S/C10H18O2/c1-2-3-4-5-6-7-8-9-10(11)12/h7-8H,2-6,9H2,1H3,(H,11,12)",
        "InChIKey": null,
        "Canonical SMILES": "O=C(O)CC=CCCCCCC",
        "Molecular Formula": "C<sub>10</sub>H<sub>18</sub>O<sub>2</sub>",
        "Molecular Mass": "170.25",
        "Boiling Point": "157-158 °C @ Press: 17 Torr",
        "Melting Point": "18 °C",
        "Density": "0.914 g/cm³ @ Temp: 18 °C"
    }
}