{
    "cas_no": "813-19-4",
    "key_name": "Bis(tributyltin)",
    "cn_name": null,
    "alternate_name": "Distannane, 1,1,1,2,2,2-hexabutyl-;Distannane, hexabutyl-;Tin, hexabutyldi-;1,1,1,2,2,2-Hexabutyldistannane;Hexabutylditin;Hexabutyldistannane;Hexa-<em>n</em>-butyldistannane;NSC 92633;Bis(tributyltin);Hexa-<em>n</em>-butylditin;NSC 227367;NSC 65520;Tributylditin;Tributyl(tributylstannyl)stannane",
    "duplicated_cas_no": "",
    "SMILES": "[Sn]([Sn](CCCC)(CCCC)CCCC)(CCCC)(CCCC)CCCC",
    "meta_data": {
        "InChI": "InChI=1S/6C4H9.2Sn/c6*1-3-4-2;;/h6*1,3-4H2,2H3;;",
        "InChIKey": null,
        "Canonical SMILES": "CCCC[Sn](CCCC)(CCCC)[Sn](CCCC)(CCCC)CCCC",
        "Molecular Formula": "C<sub>24</sub>H<sub>54</sub>Sn<sub>2</sub>",
        "Molecular Mass": "580.11",
        "Boiling Point": "197-198 °C @ Press: 1 Torr",
        "Density": "1.148 g/cm³"
    }
}