{
    "cas_no": "78-57-9",
    "key_name": "Menazon",
    "cn_name": "灭蚜松;灭蚜灵;S-[(4,6-二氨基-1,3,5-三嗪-2-基)甲基]-O,O-二甲基二硫代磷酸酯;唑蚜威;灭蚜松粉剂;可湿性粉;",
    "alternate_name": "Phosphorodithioic acid, <em>S</em>-[(4,6-diamino-1,3,5-triazin-2-yl)methyl] <em>O</em>,<em>O</em>-dimethyl ester;Phosphorodithioic acid, <em>S</em>-[(4,6-diamino-<em>s</em>-triazin-2-yl)methyl] <em>O</em>,<em>O</em>-dimethyl ester;PP.175;R 15,175;Azidithion;2,4-Diamino-6-dimethoxyphosphinothionylthiomethyl-<em>s</em>-triazine;<em>S</em>-[(4,6-Diamino-<em>s</em>-triazine-2-yl)methyl] <em>O</em>,<em>O</em>-dimethyl phosphorodithioate;<em>S</em>-(4,6-Diamino-1,3,5-triazin-2-ylmethyl) <em>O</em>,<em>O</em>-dimethyl phosphorodithioate;<em>S</em>-(4,6-Diamino-1,3,5-triazin-2-ylmethyl) dimethyl phosphorothiolothionate;<em>O</em>,<em>O</em>-Dimethyl <em>S</em>-(4,6-diamino-<em>s</em>-triazin-2-ylmethyl)phosphorodithioate;<em>O</em>,<em>O</em>-Dimethyl <em>S</em>-(4,6-diamino-1,3,5-triazin-2-yl)methyl phosphorothiolothionate;Menazon;Sayfos;Sayphos;<em>S</em>-[(4,6-Diamino-<em>s</em>-triazin-2-yl)methyl]-<em>O</em>,<em>O</em>-dimethyl phosphorodithioate",
    "duplicated_cas_no": "",
    "SMILES": "P(SCC=1N=C(N)N=C(N)N1)(OC)(OC)=S",
    "meta_data": {
        "InChI": "InChI=1S/C6H12N5O2PS2/c1-12-14(15,13-2)16-3-4-9-5(7)11-6(8)10-4/h3H2,1-2H3,(H4,7,8,9,10,11)",
        "InChIKey": null,
        "Canonical SMILES": "S=P(OC)(OC)SCC=1N=C(N=C(N1)N)N",
        "Molecular Formula": "C<sub>6</sub>H<sub>12</sub>N<sub>5</sub>O<sub>2</sub>PS<sub>2</sub>",
        "Molecular Mass": "281.30",
        "Melting Point": "164-166 °C"
    }
}