{
    "cas_no": "64-02-8",
    "key_name": "Tetrasodium EDTA",
    "cn_name": null,
    "alternate_name": "Glycine, <em>N</em>,<em>N</em>′-1,2-ethanediylbis[<em>N</em>-(carboxymethyl)-, sodium salt (1:4);Acetic acid, (ethylenedinitrilo)tetra-, tetrasodium salt;Glycine, <em>N</em>,<em>N</em>′-1,2-ethanediylbis[<em>N</em>-(carboxymethyl)-, tetrasodium salt;Aquamollin;Calsol;Celon E;Celon H;Celon IS;Cheelox BF;Cheelox BR 33;Complexone;Conigon BC;Distol 8;Distol;Edathanil tetrasodium;EDTA tetrasodium salt;Endrate tetrasodium;Ethylenebis[iminodiacetic acid] tetrasodium salt;(Ethylenedinitrilo)tetraacetic acid tetrasodium salt;Irgalon;Kalex;Komplexon;Metaquest C;Nervanaid B;Nullapon;Nullapon BF 12;Nullapon BF 78;Nullapon BFC Conc;Nullapon BFC Conc Beads;Nullapon BFC liquid;Questex;Sequestrene 30A;Syntes 12a;Tetracemin;Tetrasodium ethylenediaminetetraacetate;Tetrasodium (ethylenedinitrilo)tetraacetate;TST;Tyclarosol;Versene 67;Versene 100;Versene Beads;Versene Powder;Warkeelate S 42;Warkeelate PS 42;Warkeelate PS 43;Warkeelate PS 47;Nervanaid B liquid;Ethylenediaminetetraacetic acid tetrasodium salt;<em>N</em>,<em>N</em>′-1,2-Ethanediylbis[<em>N</em>-(carboxymethyl)glycine] tetrasodium salt;Sodium edetate;Edetic acid tetrasodium salt;Tetracemate tetrasodium;Tetrasodium edetate;Nullapon BFC;Nullapon B;Edetate sodium;Chemcolox 200;Chemcolox 240 Powder;Hamp-ene Na<sub>4</sub>;Hamp-ene 100;Hamp-ene 215;Perma-Kleer Tetra CP;Versene Flake;Sequestrene Na<sub>4</sub>;Sequestrene ST;Chelon 100;Syntron B;Trilon B;Tetrasodium ethylenediamine-<em>N</em>,<em>N</em>,<em>N</em>′,<em>N</em>′-tetraacetate;Versene 220;Ergon;Aquamollin BC;Ergon B;Sodium ethylenediaminetetraacetate;Trilon TB;Tetralon A;Kutrilon CS;Trilon BVT;Chelest 400;Na<sub>4</sub>EDTA;Ethylenediamine-<em>N</em>,<em>N</em>,<em>N</em>′,<em>N</em>′-tetraacetic acid tetrasodium salt;Sulfalox 100;Permakleer 100;Dotite 4NA;Tetrasodium EDTA;Clewat T;Hamp-ene 100S;Clewat S 2;Mayoquest 200;EDTA tetrasodium;Sequestrene;Tetrine;E 39;E 39 (aminocarboxylate);Versene 100LN;Dissolvine E 39;TPDC;Chelest D;Dissolvine Na4;Versene Na4EDTA;Zonon DM 600;Ethylenediaminetetraacetate tetrasodium salt;Tetrasodium versenate;Dissolvine NA;Dissolvine NA-T;Zonon NO;Crabion TS;Trilon BX;Chelest 2D;Hamp-ene 220;Chelest 2DS;Boron ST;Trilon B Powder;Dissolvine 100S;Dissolvine 220S;KK 07;EDETA B Powder;EDETA B;Trilon BX Liquid",
    "duplicated_cas_no": "8013-51-2;8023-21-0;50809-35-3;70699-53-5;97928-93-3",
    "SMILES": "N(CCN(CC(O)=O)CC(O)=O)(CC(O)=O)CC(O)=O.[Na]",
    "meta_data": {
        "InChI": "InChI=1S/C10H16N2O8.4Na/c13-7(14)3-11(4-8(15)16)1-2-12(5-9(17)18)6-10(19)20;;;;/h1-6H2,(H,13,14)(H,15,16)(H,17,18)(H,19,20);;;;",
        "InChIKey": null,
        "Canonical SMILES": "[Na].O=C(O)CN(CC(=O)O)CCN(CC(=O)O)CC(=O)O",
        "Molecular Formula": "C<sub>10</sub>H<sub>16</sub>N<sub>2</sub>O<sub>8</sub>.4Na",
        "Molecular Mass": "",
        "Melting Point": "&gt;300 °C"
    }
}