{
    "cas_no": "470-82-6",
    "key_name": "1,8-Cineole",
    "cn_name": "桉叶油醇;桉树脑;1,8-环氧对孟烷;欧卡那卜托;1,3,3-三甲基-2-氧杂双环[2.2.2]辛烷;",
    "alternate_name": "2-Oxabicyclo[2.2.2]octane, 1,3,3-trimethyl-;<em>p</em>-Menthane, 1,8-epoxy-;1,3,3-Trimethyl-2-oxabicyclo[2.2.2]octane;Cajeputol;Cineol;Cineole;1,8-Cineole;1,8-Epoxy-<em>p</em>-menthane;Eucalyptol;Eucalyptole;1,8-Cineol;<em>p</em>-Cineole;2-Oxa-1,3,3-trimethylbicyclo[2.2.2]octane;Eucapur;Terpan;NSC 6171;Eukalyptol;Eucalytol;Eucaliptol;1,8-Eucalyptol;FF 0964",
    "duplicated_cas_no": "8024-52-0;8024-53-1;10458-11-4;855347-23-8",
    "SMILES": "CC12OC(C)(C)C(CC1)CC2",
    "meta_data": {
        "InChI": "InChI=1S/C10H18O/c1-9(2)8-4-6-10(3,11-9)7-5-8/h8H,4-7H2,1-3H3",
        "InChIKey": null,
        "Canonical SMILES": "O1C(C)(C)C2CCC1(C)CC2",
        "Molecular Formula": "C<sub>10</sub>H<sub>18</sub>O",
        "Molecular Mass": "154.25",
        "Boiling Point": "176.4 °C",
        "Melting Point": "1.5 °C",
        "Density": "0.9267 g/cm³ @ Temp: 20 °C"
    }
}