{
    "cas_no": "804-30-8",
    "key_name": "Fursultiamine",
    "cn_name": "呋喃硫胺;N-[(4-氨基-2-甲基-5-嘧啶基)-甲基]-N-{4-羟基-1-甲基-2-[(四氢呋喃甲基)二硫]-1-丁烯基}甲酰胺;",
    "alternate_name": "Formamide, <em>N</em>-[(4-amino-2-methyl-5-pyrimidinyl)methyl]-<em>N</em>-[4-hydroxy-1-methyl-2-[[(tetrahydro-2-furanyl)methyl]dithio]-1-buten-1-yl]-;Formamide, <em>N</em>-[(4-amino-2-methyl-5-pyrimidinyl)methyl]-<em>N</em>-[4-hydroxy-1-methyl-2-[(tetrahydrofurfuryl)dithio]-1-butenyl]-;Formamide, <em>N</em>-[(4-amino-2-methyl-5-pyrimidinyl)methyl]-<em>N</em>-[4-hydroxy-1-methyl-2-[[(tetrahydro-2-furanyl)methyl]dithio]-1-butenyl]-;<em>N</em>-[(4-Amino-2-methyl-5-pyrimidinyl)methyl]-<em>N</em>-[4-hydroxy-1-methyl-2-[[(tetrahydro-2-furanyl)methyl]dithio]-1-buten-1-yl]formamide;Alinamin F;<em>N</em>-[(4-Amino-2-methyl-5-pyrimidinyl)methyl]-<em>N</em>-[4-hydroxy-1-methyl-2-[(tetrahydrofurfuryl)dithio]-1-butenyl]formamide;Fursultiamine;Judolor;Thiamine tetrahydrofurfuryl disulfide;TTFD;Tetrahydrofurfuryl thiamine disulfide;Diteftin;Adventan;Fursultiamin;Linamin;Retar B<sub>1</sub>;Thiamin tetrahydrofurfuryl disulfide",
    "duplicated_cas_no": "2088-19-9",
    "SMILES": "C(N(C(=C(SSCC1CCCO1)CCO)C)C=O)C=2C(N)=NC(C)=NC2",
    "meta_data": {
        "InChI": "InChI=1S/C17H26N4O3S2/c1-12(16(5-6-22)26-25-10-15-4-3-7-24-15)21(11-23)9-14-8-19-13(2)20-17(14)18/h8,11,15,22H,3-7,9-10H2,1-2H3,(H2,18,19,20)",
        "InChIKey": null,
        "Canonical SMILES": "O=CN(C(=C(SSCC1OCCC1)CCO)C)CC2=CN=C(N=C2N)C",
        "Molecular Formula": "C<sub>17</sub>H<sub>26</sub>N<sub>4</sub>O<sub>3</sub>S<sub>2</sub>",
        "Molecular Mass": "398.54",
        "Melting Point": "132 °C (decomp)",
        "Density": "1.29 g/cm³"
    }
}