{
    "cas_no": "7051-34-5",
    "key_name": "(Bromomethyl)cyclopropane",
    "cn_name": "溴甲基环丙烷;环丙甲基溴;环丙基溴甲烷;",
    "alternate_name": "Cyclopropane, (bromomethyl)-;(Bromomethyl)cyclopropane;Cyclopropylmethyl bromide;Cyclopropanemethyl bromide;Cyclopropylcarbinyl bromide;1-(Bromomethyl)cyclopropane;(Bromo)(cyclopropyl)methane",
    "duplicated_cas_no": "",
    "SMILES": "C(Br)C1CC1",
    "meta_data": {
        "InChI": "InChI=1S/C4H7Br/c5-3-4-1-2-4/h4H,1-3H2",
        "InChIKey": null,
        "Canonical SMILES": "BrCC1CC1",
        "Molecular Formula": "C<sub>4</sub>H<sub>7</sub>Br",
        "Molecular Mass": "135.00",
        "Boiling Point": "101.5-102.0 °C @ Press: 627 Torr",
        "Melting Point": "87-90 °C",
        "Density": "1.433 g/cm³ @ Temp: 26.5 °C"
    }
}