{
    "cas_no": "2549-87-3",
    "key_name": "4-(Allyloxy)-2-hydroxybenzophenone",
    "cn_name": "4-丙烯氧基-2-羟基二苯甲酮;4-丙烯氧基-2-羟基二苯甲酮;",
    "alternate_name": "Methanone, [2-hydroxy-4-(2-propen-1-yloxy)phenyl]phenyl-;Benzophenone, 4-(allyloxy)-2-hydroxy-;Methanone, [2-hydroxy-4-(2-propenyloxy)phenyl]phenyl-;[2-Hydroxy-4-(2-propen-1-yloxy)phenyl]phenylmethanone;4-(Allyloxy)-2-hydroxybenzophenone;2-Hydroxy-4-allyloxybenzophenone;(4-Allyloxy-2-hydroxy-phenyl)-phenyl-methanone;(2-Hydroxy-4-prop-2-enoxyphenyl)-phenylmethanone;(4-(Allyloxy)-2-hydroxyphenyl)(phenyl)methanone;2-Benzoyl-5-(prop-2-en-1-yloxy)phenol",
    "duplicated_cas_no": "",
    "SMILES": "C(=O)(C1=C(O)C=C(OCC=C)C=C1)C2=CC=CC=C2",
    "meta_data": {
        "InChI": "InChI=1S/C16H14O3/c1-2-10-19-13-8-9-14(15(17)11-13)16(18)12-6-4-3-5-7-12/h2-9,11,17H,1,10H2",
        "InChIKey": null,
        "Canonical SMILES": "O=C(C=1C=CC=CC1)C2=CC=C(OCC=C)C=C2O",
        "Molecular Formula": "C<sub>16</sub>H<sub>14</sub>O<sub>3</sub>",
        "Molecular Mass": "254.28",
        "Boiling Point": "166-178 °C @ Press: 1 Torr",
        "Melting Point": "67.5-68.5 °C"
    }
}