{
    "cas_no": "30566-92-8",
    "key_name": "5-[2-[Bis(phenylmethyl)amino]acetyl]-2-hydroxybenzamide",
    "cn_name": "5-(N,N-二苄基氨基乙酰)水杨酰胺;",
    "alternate_name": "Benzamide, 5-[2-[bis(phenylmethyl)amino]acetyl]-2-hydroxy-;Salicylamide, 5-(<em>N</em>,<em>N</em>-dibenzylglycyl)-;Benzamide, 5-[[bis(phenylmethyl)amino]acetyl]-2-hydroxy-;5-[2-[Bis(phenylmethyl)amino]acetyl]-2-hydroxybenzamide;5-(<em>N</em>,<em>N</em>-Dibenzylglycyl)salicylamide",
    "duplicated_cas_no": "",
    "SMILES": "N(CC1=CC=CC=C1)(CC2=CC=CC=C2)CC(=O)C3=CC(C(N)=O)=C(O)C=C3",
    "meta_data": {
        "InChI": "InChI=1S/C23H22N2O3/c24-23(28)20-13-19(11-12-21(20)26)22(27)16-25(14-17-7-3-1-4-8-17)15-18-9-5-2-6-10-18/h1-13,26H,14-16H2,(H2,24,28)",
        "InChIKey": null,
        "Canonical SMILES": "O=C(N)C1=CC(=CC=C1O)C(=O)CN(CC=2C=CC=CC2)CC=3C=CC=CC3",
        "Molecular Formula": "C<sub>23</sub>H<sub>22</sub>N<sub>2</sub>O<sub>3</sub>",
        "Molecular Mass": "374.43",
        "Melting Point": "179-180 °C"
    }
}