{
    "cas_no": "107-89-1",
    "key_name": "3-Hydroxybutanal",
    "cn_name": null,
    "alternate_name": "Butanal, 3-hydroxy-;Butyraldehyde, 3-hydroxy-;Aldol;3-Hydroxybutanal;Acetaldol;3-Butanolal;β-Hydroxybutyraldehyde;3-Hydroxybutyraldehyde;NSC 7610",
    "duplicated_cas_no": "115827-11-7",
    "SMILES": "C(C(C)O)C=O",
    "meta_data": {
        "InChI": "InChI=1S/C4H8O2/c1-4(6)2-3-5/h3-4,6H,2H2,1H3",
        "InChIKey": null,
        "Canonical SMILES": "O=CCC(O)C",
        "Molecular Formula": "C<sub>4</sub>H<sub>8</sub>O<sub>2</sub>",
        "Molecular Mass": "88.11",
        "Boiling Point": "83 °C @ Press: 20 Torr",
        "Melting Point": "&lt;25 °C",
        "Density": "1.103 g/cm³ @ Temp: 20 °C"
    }
}