{
    "cas_no": "2416-94-6",
    "key_name": "2,3,6-Trimethylphenol",
    "cn_name": "2,3,6-三甲基苯酚;",
    "alternate_name": "Phenol, 2,3,6-trimethyl-;2,3,6-Trimethylphenol;3-Hydroxypseudocumene;NSC 91509",
    "duplicated_cas_no": "50356-13-3",
    "SMILES": "CC1=C(O)C(C)=CC=C1C",
    "meta_data": {
        "InChI": "InChI=1S/C9H12O/c1-6-4-5-7(2)9(10)8(6)3/h4-5,10H,1-3H3",
        "InChIKey": null,
        "Canonical SMILES": "OC=1C(=CC=C(C1C)C)C",
        "Molecular Formula": "C<sub>9</sub>H<sub>12</sub>O",
        "Molecular Mass": "136.19",
        "Boiling Point": "226 °C",
        "Melting Point": "58 °C"
    }
}