{
    "cas_no": "1057-07-4",
    "key_name": "Dihydrotestosterone benzoate",
    "cn_name": "17-安息香酸雄甾醇酮;雄甾醇酮17-苯甲酸酯;雄诺龙17-苯甲酸酯;",
    "alternate_name": "Androstan-3-one, 17-(benzoyloxy)-, (5α,17β)-;5α-Androstan-3-one, 17β-hydroxy-, benzoate;(5α,17β)-17-(Benzoyloxy)androstan-3-one;Dihydrotestosterone benzoate;Androstanolone benzoate;5α-Dihydrotestosterone benzoate;Ermalone;Hermalone;Sarcosan;NSC 69549",
    "duplicated_cas_no": "1050679-13-4",
    "SMILES": "C[C@@]12[C@@]3([C@]([C@]4([C@](C)(CC3)[C@@H](OC(=O)C5=CC=CC=C5)CC4)[H])(CC[C@]1(CC(=O)CC2)[H])[H])[H]",
    "meta_data": {
        "InChI": "InChI=1S/C26H34O3/c1-25-14-12-19(27)16-18(25)8-9-20-21-10-11-23(26(21,2)15-13-22(20)25)29-24(28)17-6-4-3-5-7-17/h3-7,18,20-23H,8-16H2,1-2H3/t18-,20-,21-,22-,23-,25-,26-/m0/s1",
        "InChIKey": null,
        "Canonical SMILES": "O=C(OC1CCC2C3CCC4CC(=O)CCC4(C)C3CCC12C)C=5C=CC=CC5",
        "Molecular Formula": "C<sub>26</sub>H<sub>34</sub>O<sub>3</sub>",
        "Molecular Mass": "394.55",
        "Melting Point": "155 °C"
    }
}