{
    "cas_no": "13878-54-1",
    "key_name": "Bis(piperidinocarbodithioato)zinc",
    "cn_name": null,
    "alternate_name": "Zinc, bis(1-piperidinecarbodithioato-κ<em>S</em><sup>1</sup>,κ<em>S</em><sup>1′</sup>)-, (<em>T</em>-4)-;Zinc, bis(1-piperidinecarbodithioato)-;Zinc, bis(1-piperidinecarbodithioato-<em>S</em>,<em>S</em>′)-, (<em>T</em>-4)-;1-Piperidinecarbodithioic acid, zinc complex;Zinc pentamethylenedithiocarbamate;Zinc <em>N</em>,<em>N</em>-pentamethylenedithiocarbamate;Vulkacit ZP;Vulkacit ZPD;Bis(piperidinocarbodithioato)zinc;Nocceler ZP;ZP;Accelerator ZPD;1-Piperidinecarbodithioic acid, zinc salt (2:1)",
    "duplicated_cas_no": "13308-58-2;57884-22-7;200440-61-5;2779565-45-4",
    "SMILES": "[Zn+2]12([S-]C(=[S]1)N3CCCCC3)[S-]C(=[S]2)N4CCCCC4",
    "meta_data": {
        "InChI": "InChI=1S/2C6H11NS2.Zn/c2*8-6(9)7-4-2-1-3-5-7;/h2*1-5H2,(H,8,9);/q;;+2/p-2",
        "InChIKey": null,
        "Canonical SMILES": "[S]1=C([S-][Zn+2]12[S]=C([S-]2)N3CCCCC3)N4CCCCC4",
        "Molecular Formula": "C<sub>12</sub>H<sub>20</sub>N<sub>2</sub>S<sub>4</sub>Zn",
        "Molecular Mass": "",
        "Melting Point": "204 °C"
    }
}