{
    "cas_no": "615-16-7",
    "key_name": "2-Benzimidazolinone",
    "cn_name": "2-羟基苯并咪唑;",
    "alternate_name": "2<em>H</em>-Benzimidazol-2-one, 1,3-dihydro-;2-Benzimidazolinone;1,3-Dihydro-2<em>H</em>-benzimidazol-2-one;<em>o</em>-Phenyleneurea;Urea, <em>N</em>,<em>N</em>′-(1,2-phenylene)-;<em>N</em>,<em>N</em>′-(1,2-Phenyleneurea);1,3-Dihydro-2<em>H</em>-benzimidazole-2-one;2-Benzimidazolol;2-Hydroxybenzimidazole;2(3<em>H</em>)-Benzimidazolone;2-Benzimidazolone;2(3<em>H</em>)-Oxobenzimidazole;2,3-Dihydro-2-oxo-1<em>H</em>-benzimidazole;NSC 10383;NSC 178108;1,3-Dihydrobenzimidazol-2-one;1<em>H</em>-Benzimidazol-2(3<em>H</em>)-one;1<em>H</em>-Benzo[<em>d</em>]imidazol-2(3<em>H</em>)-one;1,3-Dihydro-2<em>H</em>-benzo[<em>d</em>]imidazol-2-one;1<em>H</em>-1,3-Benzodiazol-2-ol;1<em>H</em>-Benzoimidazol-2-ol;1,3-Dihydro-benzoimidazol-2-one;2,3-Dihydro-1<em>H</em>-1,3-benzodiazol-2-one",
    "duplicated_cas_no": "5400-74-8",
    "SMILES": "O=C1NC=2C(N1)=CC=CC2",
    "meta_data": {
        "InChI": "InChI=1S/C7H6N2O/c10-7-8-5-3-1-2-4-6(5)9-7/h1-4H,(H2,8,9,10)",
        "InChIKey": null,
        "Canonical SMILES": "O=C1NC=2C=CC=CC2N1",
        "Molecular Formula": "C<sub>7</sub>H<sub>6</sub>N<sub>2</sub>O",
        "Molecular Mass": "134.14",
        "Boiling Point": "185-190 °C @ Press: 0.01 Torr",
        "Melting Point": "&gt;300 °C"
    }
}