{
    "cas_no": "455-37-8",
    "key_name": "3-Fluorobenzamide",
    "cn_name": "间氟苯甲酰胺;",
    "alternate_name": "Benzamide, 3-fluoro-;Benzamide, <em>m</em>-fluoro-;3-Fluorobenzamide;<em>m</em>-Fluorobenzamide;NSC 97485;3-Carbamoyl-1-fluorobenzene",
    "duplicated_cas_no": "",
    "SMILES": "C(N)(=O)C1=CC(F)=CC=C1",
    "meta_data": {
        "InChI": "InChI=1S/C7H6FNO/c8-6-3-1-2-5(4-6)7(9)10/h1-4H,(H2,9,10)",
        "InChIKey": null,
        "Canonical SMILES": "O=C(N)C=1C=CC=C(F)C1",
        "Molecular Formula": "C<sub>7</sub>H<sub>6</sub>FNO",
        "Molecular Mass": "139.13",
        "Melting Point": "128-129 °C"
    }
}