{
    "cas_no": "2217-43-8",
    "key_name": "6-Aminotetralin",
    "cn_name": null,
    "alternate_name": "2-Naphthalenamine, 5,6,7,8-tetrahydro-;2-Naphthylamine, 5,6,7,8-tetrahydro-;5,6,7,8-Tetrahydro-2-naphthalenamine;6-Aminotetralin;2-Amino-5,6,7,8-tetrahydronaphthalene;5,6,7,8-Tetrahydro-2-naphthylamine;5,6,7,8-Tetrahydronaphthalen-2-amine;5,6,7,8-Tetrahydronaphthalen-2-ylamine;6-Amino-1,2,3,4-tetrahydronaphthalene;1,2,3,4-Tetrahydro-6-aminonaphthalene",
    "duplicated_cas_no": "",
    "SMILES": "NC=1C=C2C(=CC1)CCCC2",
    "meta_data": {
        "InChI": "InChI=1S/C10H13N/c11-10-6-5-8-3-1-2-4-9(8)7-10/h5-7H,1-4,11H2",
        "InChIKey": null,
        "Canonical SMILES": "NC1=CC=C2C(=C1)CCCC2",
        "Molecular Formula": "C<sub>10</sub>H<sub>13</sub>N",
        "Molecular Mass": "147.22",
        "Boiling Point": "148-156 °C @ Press: 19 Torr",
        "Melting Point": "34-35 °C"
    }
}