{
    "cas_no": "89-86-1",
    "key_name": "2,4-Dihydroxybenzoic acid",
    "cn_name": "2,4-二羟基苯甲酸;",
    "alternate_name": "Benzoic acid, 2,4-dihydroxy-;β-Resorcylic acid;2,4-Dihydroxybenzoic acid;4-Hydroxysalicylic acid;<em>p</em>-Hydroxysalicylic acid;4-Carboxyresorcinol;β-Resorcinolic acid;Coupler 320;NSC 13564;NSC 4740",
    "duplicated_cas_no": "",
    "SMILES": "C(O)(=O)C1=C(O)C=C(O)C=C1",
    "meta_data": {
        "InChI": "InChI=1S/C7H6O4/c8-4-1-2-5(7(10)11)6(9)3-4/h1-3,8-9H,(H,10,11)",
        "InChIKey": null,
        "Canonical SMILES": "O=C(O)C1=CC=C(O)C=C1O",
        "Molecular Formula": "C<sub>7</sub>H<sub>6</sub>O<sub>4</sub>",
        "Molecular Mass": "154.12",
        "Melting Point": "226 °C (decomp)"
    }
}