{
    "cas_no": "126-38-5",
    "key_name": "1-Bromo-2,2-dimethoxypropane",
    "cn_name": null,
    "alternate_name": "Propane, 1-bromo-2,2-dimethoxy-;2-Propanone, bromo-, dimethyl acetal;1-Bromo-2,2-dimethoxypropane;Bromoacetone dimethyl ketal",
    "duplicated_cas_no": "",
    "SMILES": "C(CBr)(OC)(OC)C",
    "meta_data": {
        "InChI": "InChI=1S/C5H11BrO2/c1-5(4-6,7-2)8-3/h4H2,1-3H3",
        "InChIKey": null,
        "Canonical SMILES": "BrCC(OC)(OC)C",
        "Molecular Formula": "C<sub>5</sub>H<sub>11</sub>BrO<sub>2</sub>",
        "Molecular Mass": "183.04",
        "Boiling Point": "81-83 °C @ Press: 70 Torr"
    }
}