{
    "cas_no": "13244-35-4",
    "key_name": "2-Chloro-4-(methylsulfonyl)benzenamine",
    "cn_name": "2-氯-4-甲基磺酰苯胺;",
    "alternate_name": "Benzenamine, 2-chloro-4-(methylsulfonyl)-;Aniline, 2-chloro-4-(methylsulfonyl)-;2-Chloro-4-(methylsulfonyl)benzenamine;3-Chloro-4-aminophenylmethylsulfone;4-Amino-3-chlorophenyl methyl sulfone;2-Chloro-4-(methylsulfonyl)aniline;2-Chloro-4-methanesulfonylaniline",
    "duplicated_cas_no": "",
    "SMILES": "S(C)(=O)(=O)C1=CC(Cl)=C(N)C=C1",
    "meta_data": {
        "InChI": "InChI=1S/C7H8ClNO2S/c1-12(10,11)5-2-3-7(9)6(8)4-5/h2-4H,9H2,1H3",
        "InChIKey": null,
        "Canonical SMILES": "O=S(=O)(C1=CC=C(N)C(Cl)=C1)C",
        "Molecular Formula": "C<sub>7</sub>H<sub>8</sub>ClNO<sub>2</sub>S",
        "Molecular Mass": "205.66",
        "Melting Point": "195-196 °C"
    }
}