{
    "cas_no": "6515-36-2",
    "key_name": "7-Hydroxyflavanone",
    "cn_name": "7-羟基磺烷酮;7-羟基黄烷酮;7-羟基磺烷酮;",
    "alternate_name": "4<em>H</em>-1-Benzopyran-4-one, 2,3-dihydro-7-hydroxy-2-phenyl-;Flavanone, 7-hydroxy-;2,3-Dihydro-7-hydroxy-2-phenyl-4<em>H</em>-1-benzopyran-4-one;7-Hydroxyflavanone;7-Hydroxy-2-phenylchroman-4-one",
    "duplicated_cas_no": "133399-10-7",
    "SMILES": "O=C1C=2C(OC(C1)C3=CC=CC=C3)=CC(O)=CC2",
    "meta_data": {
        "InChI": "InChI=1S/C15H12O3/c16-11-6-7-12-13(17)9-14(18-15(12)8-11)10-4-2-1-3-5-10/h1-8,14,16H,9H2",
        "InChIKey": null,
        "Canonical SMILES": "O=C1C2=CC=C(O)C=C2OC(C=3C=CC=CC3)C1",
        "Molecular Formula": "C<sub>15</sub>H<sub>12</sub>O<sub>3</sub>",
        "Molecular Mass": "240.25",
        "Melting Point": "189 °C"
    }
}