{
    "cas_no": "51004-61-6",
    "key_name": "AF 2 (foaming agent)",
    "cn_name": null,
    "alternate_name": "AF 2 (foaming agent);AF 2",
    "duplicated_cas_no": "",
    "SMILES": "",
    "meta_data": {
        "InChI": "",
        "InChIKey": null,
        "Canonical SMILES": "",
        "Molecular Formula": "Unspecified",
        "Molecular Mass": "",
        "Boiling Point": "&gt;170 °C"
    }
}