{
    "uri": "substance/pt/51004616",
    "rn": "51004-61-6",
    "name": "AF 2 (foaming agent)",
    "images": [],
    "inchi": "",
    "inchiKey": "",
    "smile": "",
    "canonicalSmile": "",
    "molecularFormula": "Unspecified",
    "molecularMass": "",
    "experimentalProperties": [
        {
            "name": "Boiling Point",
            "property": "&gt;170 °C",
            "sourceNumber": 1
        }
    ],
    "propertyCitations": [
        {
            "docUri": "document/pt/document/12752062",
            "sourceNumber": 1,
            "source": "Ogloblin, N. D.; Obogashchenie Poleznykh Iskopaemykh, (1980), 26, 26-8, CAplus"
        }
    ],
    "synonyms": [
        "AF 2 (foaming agent)",
        "AF 2"
    ],
    "replacedRns": [],
    "hasMolfile": false,
    "source": "https://commonchemistry.cas.org/detail?cas_rn=51004-61-6"
}