{
    "cas_no": "3789-59-1",
    "key_name": "(-)-1-Phenylpropylamine",
    "cn_name": "(S)-(-)-1-苯丙胺;S-(-)-alpha-乙基苄胺;",
    "alternate_name": "Benzenemethanamine, α-ethyl-, (α<em>S</em>)-;Benzylamine, α-ethyl-, (<em>S</em>)-(-)-;Benzenemethanamine, α-ethyl-, (<em>S</em>)-;Benzylamine, α-ethyl-, <em>l</em>-;(α<em>S</em>)-α-Ethylbenzenemethanamine;(<em>S</em>)-(-)-α-Ethylbenzylamine;(<em>S</em>)-α-Ethylbenzylamine;(<em>S</em>)-1-Phenylpropylamine;(-)-1-Ethylbenzylamine;(<em>S</em>)-α-Phenylpropylamine;(<em>S</em>)-α-Ethylbenzenemethanamine;(-)-1-Phenylpropylamine;[(1<em>S</em>)-1-Phenylpropyl]amine;(1<em>S</em>)-1-Phenyl-1-propanamine;(-)-(<em>S</em>)-1-Phenylpropylamine;(<em>S</em>)-(-)-1-Phenylpropylamine;(<em>S</em>)-1-Phenylpropan-1-amine;(<em>S</em>)-(-)-1-Amino-1-phenylpropane",
    "duplicated_cas_no": "",
    "SMILES": "[C@@H](CC)(N)C1=CC=CC=C1",
    "meta_data": {
        "InChI": "InChI=1S/C9H13N/c1-2-9(10)8-6-4-3-5-7-8/h3-7,9H,2,10H2,1H3/t9-/m0/s1",
        "InChIKey": null,
        "Canonical SMILES": "NC(C=1C=CC=CC1)CC",
        "Molecular Formula": "C<sub>9</sub>H<sub>13</sub>N",
        "Molecular Mass": "135.21",
        "Boiling Point": "87-90 °C @ Press: 15 Torr"
    }
}