{
    "cas_no": "7498-57-9",
    "key_name": "2-Naphthaleneacetonitrile",
    "cn_name": "2-萘乙腈;",
    "alternate_name": "2-Naphthaleneacetonitrile;2-(Cyanomethyl)naphthalene;2-Naphthylacetonitrile;(β-Naphthyl)acetonitrile;NSC 407556;Naphthalen-2-ylacetonitrile;2-Naphthalen-2-ylacetonitrile;2-(Naphthalen-2-yl)acetonitrile",
    "duplicated_cas_no": "",
    "SMILES": "C(C#N)C1=CC2=C(C=C1)C=CC=C2",
    "meta_data": {
        "InChI": "InChI=1S/C12H9N/c13-8-7-10-5-6-11-3-1-2-4-12(11)9-10/h1-6,9H,7H2",
        "InChIKey": null,
        "Canonical SMILES": "N#CCC=1C=CC=2C=CC=CC2C1",
        "Molecular Formula": "C<sub>12</sub>H<sub>9</sub>N",
        "Molecular Mass": "167.21",
        "Boiling Point": "303 °C",
        "Melting Point": "83 °C"
    }
}