{
    "cas_no": "446-51-5",
    "key_name": "2-Fluorobenzyl alcohol",
    "cn_name": "2-氟苄醇;2-氟苯甲醇;",
    "alternate_name": "Benzenemethanol, 2-fluoro-;Benzyl alcohol, <em>o</em>-fluoro-;2-Fluorobenzenemethanol;2-Fluorobenzyl alcohol;<em>o</em>-Fluorobenzyl alcohol;(2-Fluorophenyl)methanol;NSC 158274",
    "duplicated_cas_no": "185532-96-1",
    "SMILES": "C(O)C1=C(F)C=CC=C1",
    "meta_data": {
        "InChI": "InChI=1S/C7H7FO/c8-7-4-2-1-3-6(7)5-9/h1-4,9H,5H2",
        "InChIKey": null,
        "Canonical SMILES": "FC=1C=CC=CC1CO",
        "Molecular Formula": "C<sub>7</sub>H<sub>7</sub>FO",
        "Molecular Mass": "126.13",
        "Boiling Point": "82 °C @ Press: 10 Torr",
        "Melting Point": "91-94 °C"
    }
}