{
    "cas_no": "133-53-9",
    "key_name": "2,4-Dichloro-3,5-dimethylphenol",
    "cn_name": null,
    "alternate_name": "Phenol, 2,4-dichloro-3,5-dimethyl-;3,5-Xylenol, 2,4-dichloro-;2,4-Dichloro-3,5-dimethylphenol;Decasept;2,4-Dichloro-3,5-xylenol;Dichloroxylenol;DCMX;Dixol;Hewsol;Prinsyl;NSC 9774;Dichlorometaxylenol",
    "duplicated_cas_no": "",
    "SMILES": "ClC1=C(C)C(Cl)=C(O)C=C1C",
    "meta_data": {
        "InChI": "InChI=1S/C8H8Cl2O/c1-4-3-6(11)8(10)5(2)7(4)9/h3,11H,1-2H3",
        "InChIKey": null,
        "Canonical SMILES": "ClC1=C(O)C=C(C(Cl)=C1C)C",
        "Molecular Formula": "C<sub>8</sub>H<sub>8</sub>Cl<sub>2</sub>O",
        "Molecular Mass": "191.05",
        "Melting Point": "95-96 °C"
    }
}