{
    "cas_no": "329-56-6",
    "key_name": "(-)-Norepinephrine hydrochloride",
    "cn_name": "去甲肾上腺素盐酸盐;",
    "alternate_name": "1,2-Benzenediol, 4-[(1<em>R</em>)-2-amino-1-hydroxyethyl]-, hydrochloride (1:1);Benzyl alcohol, α-(aminomethyl)-3,4-dihydroxy-, hydrochloride, (-)-;1,2-Benzenediol, 4-(2-amino-1-hydroxyethyl)-, hydrochloride, (<em>R</em>)-;1,2-Benzenediol, 4-[(1<em>R</em>)-2-amino-1-hydroxyethyl]-, hydrochloride;Arterenol hydrochloride;<em>l</em>-Arterenol hydrochloride;Noradrenaline hydrochloride;<em>l</em>-Noradrenaline hydrochloride;Norepinephrine hydrochloride;<em>l</em>-Norepinephrine hydrochloride;(-)-Noradrenaline hydrochloride;(-)-Norepinephrine hydrochloride;<em>R</em>-(-)-Norepinephrine monohydrochloride;<em>R</em>-(-)-Noradrenaline hydrochloride;Aterenol",
    "duplicated_cas_no": "877-72-5;2101772-17-0",
    "SMILES": "[C@@H](CN)(O)C1=CC(O)=C(O)C=C1.Cl",
    "meta_data": {
        "InChI": "InChI=1S/C8H11NO3.ClH/c9-4-8(12)5-1-2-6(10)7(11)3-5;/h1-3,8,10-12H,4,9H2;1H/t8-;/m0./s1",
        "InChIKey": null,
        "Canonical SMILES": "Cl.OC1=CC=C(C=C1O)C(O)CN",
        "Molecular Formula": "C<sub>8</sub>H<sub>11</sub>NO<sub>3</sub>.ClH",
        "Molecular Mass": "",
        "Melting Point": "145.2-146.4 °C"
    }
}