{
    "cas_no": "1777-82-8",
    "key_name": "2,4-Dichlorobenzyl alcohol",
    "cn_name": "2,4-二氯苄醇;2,4-二氯苯甲醇;",
    "alternate_name": "Benzenemethanol, 2,4-dichloro-;Benzyl alcohol, 2,4-dichloro-;2,4-Dichlorobenzenemethanol;2,4-Dichlorobenzyl alcohol;Dybenal;Myacide SP;Rapidosept;Myacide;(2,4-Dichlorophenyl)methanol;NSC 15635",
    "duplicated_cas_no": "",
    "SMILES": "C(O)C1=C(Cl)C=C(Cl)C=C1",
    "meta_data": {
        "InChI": "InChI=1S/C7H6Cl2O/c8-6-2-1-5(4-10)7(9)3-6/h1-3,10H,4H2",
        "InChIKey": null,
        "Canonical SMILES": "ClC1=CC=C(C(Cl)=C1)CO",
        "Molecular Formula": "C<sub>7</sub>H<sub>6</sub>Cl<sub>2</sub>O",
        "Molecular Mass": "177.03",
        "Boiling Point": "150 °C @ Press: 25 Torr",
        "Melting Point": "59.5 °C"
    }
}