{
    "cas_no": "74-97-5",
    "key_name": "Bromochloromethane",
    "cn_name": "溴氯甲烷;",
    "alternate_name": "Methane, bromochloro-;Bromochloromethane;Halon 1011;Chlorobromomethane;Monochloromonobromomethane;Fluorocarbon 1011;Methylene bromide chloride;NSC 7294;Cathay HL 52;HL 52",
    "duplicated_cas_no": "83847-49-8",
    "SMILES": "C(Br)Cl",
    "meta_data": {
        "InChI": "InChI=1S/CH2BrCl/c2-1-3/h1H2",
        "InChIKey": null,
        "Canonical SMILES": "ClCBr",
        "Molecular Formula": "CH<sub>2</sub>BrCl",
        "Molecular Mass": "129.38",
        "Boiling Point": "68.0 °C",
        "Melting Point": "-87.9 °C",
        "Density": "1.9344 g/cm³ @ Temp: 20 °C"
    }
}