{
    "cas_no": "3061-75-4",
    "key_name": "Behenamide",
    "cn_name": "二十二酰胺;山嵛酸酰胺;",
    "alternate_name": "Docosanamide;Behenamide;Behenic acid amide;Behenylamide;Kemamide B;BNT 22H;Behenic amide;BNT;Diamid B 45;Denon LS 8;Diamid B 90;Diamid BL;Crodamide BR;Diamid BM;BNT (lubricant);Incroslip B;Alflow B 10;Lutamide BR;BNT 22;BNT 11;Finawax BR;Finawax B;Diamid BH",
    "duplicated_cas_no": "",
    "SMILES": "C(CCCCCCCCCCCCCC)CCCCCCC(N)=O",
    "meta_data": {
        "InChI": "InChI=1S/C22H45NO/c1-2-3-4-5-6-7-8-9-10-11-12-13-14-15-16-17-18-19-20-21-22(23)24/h2-21H2,1H3,(H2,23,24)",
        "InChIKey": null,
        "Canonical SMILES": "O=C(N)CCCCCCCCCCCCCCCCCCCCC",
        "Molecular Formula": "C<sub>22</sub>H<sub>45</sub>NO",
        "Molecular Mass": "339.60",
        "Melting Point": "111-112 °C"
    }
}