{
    "cas_no": "500-64-1",
    "key_name": "(+)-Kavain",
    "cn_name": null,
    "alternate_name": "2<em>H</em>-Pyran-2-one, 5,6-dihydro-4-methoxy-6-[(1<em>E</em>)-2-phenylethenyl]-, (6<em>R</em>)-;2<em>H</em>-Pyran-2-one, 5,6-dihydro-4-methoxy-6-styryl-, (<em>R</em>)-;2<em>H</em>-Pyran-2-one, 5,6-dihydro-4-methoxy-6-(2-phenylethenyl)-, [<em>R</em>-(<em>E</em>)]-;(6<em>R</em>)-5,6-Dihydro-4-methoxy-6-[(1<em>E</em>)-2-phenylethenyl]-2<em>H</em>-pyran-2-one;Gonosan;Kawain;(+)-Kavain;Kavain;<em>d</em>-Kawain;NSC 112162;(<em>R</em>)-(+)-Kavain;(+)-Kawain",
    "duplicated_cas_no": "21282-41-7",
    "SMILES": "C(=C/C1=CC=CC=C1)\\[C@H]2CC(OC)=CC(=O)O2",
    "meta_data": {
        "InChI": "InChI=1S/C14H14O3/c1-16-13-9-12(17-14(15)10-13)8-7-11-5-3-2-4-6-11/h2-8,10,12H,9H2,1H3/b8-7+/t12-/m0/s1",
        "InChIKey": null,
        "Canonical SMILES": "O=C1OC(C=CC=2C=CC=CC2)CC(OC)=C1",
        "Molecular Formula": "C<sub>14</sub>H<sub>14</sub>O<sub>3</sub>",
        "Molecular Mass": "230.26",
        "Boiling Point": "196 °C",
        "Melting Point": "105.5 °C"
    }
}