{
    "cas_no": "881-99-2",
    "key_name": "1,3-Bis(trichloromethyl)benzene",
    "cn_name": "1,3-二(三氯甲基)苯;",
    "alternate_name": "Benzene, 1,3-bis(trichloromethyl)-;<em>m</em>-Xylene, α,α,α,α′,α′,α′-hexachloro-;1,3-Bis(trichloromethyl)benzene;α,α,α,α′,α′,α′-Hexachloro-<em>m</em>-xylene;<em>m</em>-Bis(trichloromethyl)benzene;3-(Trichloromethyl)benzotrichloride;NSC 41882;1,3-Di(trichloromethyl)benzene",
    "duplicated_cas_no": "",
    "SMILES": "C(Cl)(Cl)(Cl)C1=CC(C(Cl)(Cl)Cl)=CC=C1",
    "meta_data": {
        "InChI": "InChI=1S/C8H4Cl6/c9-7(10,11)5-2-1-3-6(4-5)8(12,13)14/h1-4H",
        "InChIKey": null,
        "Canonical SMILES": "ClC(Cl)(Cl)C1=CC=CC(=C1)C(Cl)(Cl)Cl",
        "Molecular Formula": "C<sub>8</sub>H<sub>4</sub>Cl<sub>6</sub>",
        "Molecular Mass": "312.84",
        "Boiling Point": "113-116 °C @ Press: 1 Torr",
        "Melting Point": "41-42 °C"
    }
}