{
    "cas_no": "2818-69-1",
    "key_name": "5-Chloro-2-methylbenzimidazole",
    "cn_name": "2-甲基-5-氯苯并咪唑;",
    "alternate_name": "1<em>H</em>-Benzimidazole, 6-chloro-2-methyl-;Benzimidazole, 5-chloro-2-methyl-;1<em>H</em>-Benzimidazole, 5-chloro-2-methyl-;Benzimidazole, 5(<em>or</em> 6)-chloro-2-methyl-;6-Chloro-2-methyl-1<em>H</em>-benzimidazole;2-Methyl-5-chlorobenzimidazole;5-Chloro-2-methylbenzimidazole;Rosalin;Rozalin;5-Chloro-2-methyl-1<em>H</em>-benzimidazole;6-Chloro-2-methylbenzimidazole;NSC 60139;5-Chloro-2-methyl-1<em>H</em>-benzoimidazole",
    "duplicated_cas_no": "66771-92-4",
    "SMILES": "CC=1NC=2C(N1)=CC(Cl)=CC2",
    "meta_data": {
        "InChI": "InChI=1S/C8H7ClN2/c1-5-10-7-3-2-6(9)4-8(7)11-5/h2-4H,1H3,(H,10,11)",
        "InChIKey": null,
        "Canonical SMILES": "ClC=1C=CC=2NC(=NC2C1)C",
        "Molecular Formula": "C<sub>8</sub>H<sub>7</sub>ClN<sub>2</sub>",
        "Molecular Mass": "166.61",
        "Melting Point": "215-218 °C"
    }
}