{
    "cas_no": "1623-95-6",
    "key_name": "4-Phenoxybenzoyl chloride",
    "cn_name": null,
    "alternate_name": "Benzoyl chloride, 4-phenoxy-;Benzoyl chloride, <em>p</em>-phenoxy-;4-Phenoxybenzoyl chloride;<em>p</em>-Phenoxybenzoyl chloride",
    "duplicated_cas_no": "",
    "SMILES": "O(C1=CC=C(C(Cl)=O)C=C1)C2=CC=CC=C2",
    "meta_data": {
        "InChI": "InChI=1S/C13H9ClO2/c14-13(15)10-6-8-12(9-7-10)16-11-4-2-1-3-5-11/h1-9H",
        "InChIKey": null,
        "Canonical SMILES": "O=C(Cl)C1=CC=C(OC=2C=CC=CC2)C=C1",
        "Molecular Formula": "C<sub>13</sub>H<sub>9</sub>ClO<sub>2</sub>",
        "Molecular Mass": "232.66",
        "Boiling Point": "183-185 °C @ Press: 22 Torr"
    }
}