{
    "cas_no": "16962-07-5",
    "key_name": "Borate(1-), tetrahydro-, aluminum (3:1)",
    "cn_name": "硼氢化铝;",
    "alternate_name": "Borate(1-), tetrahydro-, aluminum (3:1);Borate(1-), tetrahydro-, aluminum;Aluminum borohydride;Aluminum tetrahydroborate;Aluminum hydroborate (Al[BH<sub>4</sub>]<sub>3</sub>)",
    "duplicated_cas_no": "1302-14-3",
    "SMILES": "[B+3]([H-])([H-])([H-])[H-].[Al+3]",
    "meta_data": {
        "InChI": "InChI=1S/Al.BH4/h;1H4/q+3;-1",
        "InChIKey": null,
        "Canonical SMILES": "[Al+3].[H-][B+3]([H-])([H-])[H-]",
        "Molecular Formula": "Al.3BH<sub>4</sub>",
        "Molecular Mass": "",
        "Boiling Point": "44.5 °C",
        "Melting Point": "64.5 °C"
    }
}