{
    "cas_no": "61764-34-9",
    "key_name": "4-Propyl-2-thiazolamine",
    "cn_name": null,
    "alternate_name": "2-Thiazolamine, 4-propyl-;Thiazole, 2-amino-4-propyl-;4-Propyl-2-thiazolamine;2-Amino-4-propylthiazole;4-Propyl-1,3-thiazol-2-ylamine;2-Amino-4-<em>n</em>-propylthiazole",
    "duplicated_cas_no": "",
    "SMILES": "C(CC)C=1N=C(N)SC1",
    "meta_data": {
        "InChI": "InChI=1S/C6H10N2S/c1-2-3-5-4-9-6(7)8-5/h4H,2-3H2,1H3,(H2,7,8)",
        "InChIKey": null,
        "Canonical SMILES": "N1=C(SC=C1CCC)N",
        "Molecular Formula": "C<sub>6</sub>H<sub>10</sub>N<sub>2</sub>S",
        "Molecular Mass": "142.22",
        "Boiling Point": "108-109 °C @ Press: 0.5 Torr"
    }
}