{
    "cas_no": "55314-16-4",
    "key_name": "3-Dimethylamino-1-(3-pyridyl)-2-propen-1-one",
    "cn_name": "1-(3-吡啶基)-3-(二甲氨基)-2-丙烯-1-酮;",
    "alternate_name": "2-Propen-1-one, 3-(dimethylamino)-1-(3-pyridinyl)-;3-(Dimethylamino)-1-(3-pyridinyl)-2-propen-1-one;1-(3-Pyridyl)-3-(dimethylamino)-2-propen-1-one;3-Dimethylamino-1-(3-pyridyl)-2-propen-1-one;3-Dimethylamino-1-(pyridin-3-yl)propenone",
    "duplicated_cas_no": "1629155-57-2",
    "SMILES": "C(C=CN(C)C)(=O)C=1C=CC=NC1",
    "meta_data": {
        "InChI": "InChI=1S/C10H12N2O/c1-12(2)7-5-10(13)9-4-3-6-11-8-9/h3-8H,1-2H3",
        "InChIKey": null,
        "Canonical SMILES": "O=C(C=CN(C)C)C=1C=NC=CC1",
        "Molecular Formula": "C<sub>10</sub>H<sub>12</sub>N<sub>2</sub>O",
        "Molecular Mass": "176.22",
        "Melting Point": "&gt;300 °C"
    }
}