{
    "cas_no": "456-03-1",
    "key_name": "1-(4-Fluorophenyl)-1-propanone",
    "cn_name": "4\"-氟苯丙酮;",
    "alternate_name": "1-Propanone, 1-(4-fluorophenyl)-;Propiophenone, 4′-fluoro-;1-(4-Fluorophenyl)-1-propanone;<em>p</em>-Fluoropropiophenone;4′-Fluoropropiophenone;4-Fluoropropiophenone;1-(4-Fluorophenyl)propan-1-one;Ethyl 4-fluorophenyl ketone;NSC 63354;4-Fluorophenylpropanone;(4-Fluorophenyl)ethylketone",
    "duplicated_cas_no": "",
    "SMILES": "C(CC)(=O)C1=CC=C(F)C=C1",
    "meta_data": {
        "InChI": "InChI=1S/C9H9FO/c1-2-9(11)7-3-5-8(10)6-4-7/h3-6H,2H2,1H3",
        "InChIKey": null,
        "Canonical SMILES": "O=C(C1=CC=C(F)C=C1)CC",
        "Molecular Formula": "C<sub>9</sub>H<sub>9</sub>FO",
        "Molecular Mass": "152.17",
        "Boiling Point": "105-107 °C @ Press: 22 Torr"
    }
}