{
    "cas_no": "1591-30-6",
    "key_name": "[1,1′-Biphenyl]-4,4′-dicarbonitrile",
    "cn_name": null,
    "alternate_name": "[1,1′-Biphenyl]-4,4′-dicarbonitrile;4,4′-Biphenyldicarbonitrile;4,4′-Dicyanobiphenyl;4,4′-Dicyanodiphenyl;NSC 87879;4,4′-Dicyano-1,1′-biphenyl",
    "duplicated_cas_no": "",
    "SMILES": "C(#N)C1=CC=C(C=C1)C2=CC=C(C#N)C=C2",
    "meta_data": {
        "InChI": "InChI=1S/C14H8N2/c15-9-11-1-5-13(6-2-11)14-7-3-12(10-16)4-8-14/h1-8H",
        "InChIKey": null,
        "Canonical SMILES": "N#CC=1C=CC(=CC1)C2=CC=C(C#N)C=C2",
        "Molecular Formula": "C<sub>14</sub>H<sub>8</sub>N<sub>2</sub>",
        "Molecular Mass": "204.23",
        "Melting Point": "232-234 °C"
    }
}