{
    "cas_no": "61-80-3",
    "key_name": "Zoxazolamine",
    "cn_name": "苯并恶唑胺;2-氨基-5-氯苯并恶唑;2-氨基-5-氯苯并噁唑;",
    "alternate_name": "2-Benzoxazolamine, 5-chloro-;Benzoxazole, 2-amino-5-chloro-;5-Chloro-2-benzoxazolamine;2-Amino-5-chlorobenzoxazole;Flexin;McN-485;Zoxazolamine;5-Chloro-2-aminobenzoxazole;Zoxamin;Zoxine;Deflexol;Flexilon;NSC 24995;5-Chloro-1,3-benzoxazol-2-amine;5-Chlorobenzoxazol-2-amine;5-Chlorobenzoxazol-2-ylamine;5-Chlorobenzo[<em>d</em>]oxazol-2-amine;MeSH ID: D015049",
    "duplicated_cas_no": "",
    "SMILES": "NC=1OC=2C(N1)=CC(Cl)=CC2",
    "meta_data": {
        "InChI": "InChI=1S/C7H5ClN2O/c8-4-1-2-6-5(3-4)10-7(9)11-6/h1-3H,(H2,9,10)",
        "InChIKey": null,
        "Canonical SMILES": "ClC=1C=CC=2OC(=NC2C1)N",
        "Molecular Formula": "C<sub>7</sub>H<sub>5</sub>ClN<sub>2</sub>O",
        "Molecular Mass": "168.58",
        "Melting Point": "184.5 °C"
    }
}