{
    "cas_no": "121-01-7",
    "key_name": "4-Nitro-2-(trifluoromethyl)aniline",
    "cn_name": "2-氨基-5-硝基三氟甲苯;4-硝基-2-三氟甲基苯胺;",
    "alternate_name": "Benzenamine, 4-nitro-2-(trifluoromethyl)-;<em>o</em>-Toluidine, α,α,α-trifluoro-4-nitro-;4-Nitro-2-(trifluoromethyl)benzenamine;α,α,α-Trifluoro-4-nitro-<em>o</em>-toluidine;4-Nitro-2-(trifluoromethyl)aniline;2-(Trifluoromethyl)-4-nitroaniline;2-Amino-5-nitrobenzotrifluoride;1-Amino-2-trifluoromethyl-4-nitrobenzene;4-Nitro-2-trifluoromethylphenylamine;4-Nitro-2-trifluoromethylbenzenamine",
    "duplicated_cas_no": "",
    "SMILES": "C(F)(F)(F)C1=CC(N(=O)=O)=CC=C1N",
    "meta_data": {
        "InChI": "InChI=1S/C7H5F3N2O2/c8-7(9,10)5-3-4(12(13)14)1-2-6(5)11/h1-3H,11H2",
        "InChIKey": null,
        "Canonical SMILES": "O=N(=O)C1=CC=C(N)C(=C1)C(F)(F)F",
        "Molecular Formula": "C<sub>7</sub>H<sub>5</sub>F<sub>3</sub>N<sub>2</sub>O<sub>2</sub>",
        "Molecular Mass": "206.12",
        "Melting Point": "88 °C"
    }
}