{
    "cas_no": "143-50-0",
    "key_name": "Chlordecone",
    "cn_name": null,
    "alternate_name": "1,3,4-Metheno-2<em>H</em>-cyclobuta[<em>cd</em>]pentalen-2-one, 1,1a,3,3a,4,5,5,5a,5b,6-decachlorooctahydro-;1,3,4-Metheno-2<em>H</em>-cyclobuta[<em>cd</em>]pentalen-2-one, decachlorooctahydro-;1,1a,3,3a,4,5,5,5a,5b,6-Decachlorooctahydro-1,3,4-metheno-2<em>H</em>-cyclobuta[<em>cd</em>]pentalen-2-one;GC 1189;Chlordecone;Compound 1189;Decachlorooctahydro-1,3,4-metheno-2<em>H</em>-cyclobuta[<em>cd</em>]pentalen-2-one;Decachloropentacyclo[5.2.1.0<sup>2,6</sup>.0<sup>3,9</sup>.0<sup>5</sup>,<sup>8</sup>]decan-4-one;Kepone;Decachloroketone;ENT-16391;Clordecone;NSC 124074;NSC 56532",
    "duplicated_cas_no": "98842-55-8;856323-41-6",
    "SMILES": "ClC12C3(Cl)C4(Cl)C(Cl)(Cl)C1(Cl)C5(Cl)C2(Cl)C(=O)C3(Cl)C45Cl",
    "meta_data": {
        "InChI": "InChI=1S/C10Cl10O/c11-2-1(21)3(12)6(15)4(2,13)8(17)5(2,14)7(3,16)9(6,18)10(8,19)20",
        "InChIKey": null,
        "Canonical SMILES": "O=C1C2(Cl)C3(Cl)C4(Cl)C(Cl)(Cl)C5(Cl)C3(Cl)C1(Cl)C5(Cl)C24Cl",
        "Molecular Formula": "C<sub>10</sub>Cl<sub>10</sub>O",
        "Molecular Mass": "490.64",
        "Melting Point": "350 °C (decomp)",
        "Density": "1.59-1.63 g/cm³ @ Temp: 25 °C"
    }
}