{
    "cas_no": "5070-13-3",
    "key_name": "Bis(4-nitrophenyl) carbonate",
    "cn_name": "二(对硝基苯)碳酸酯;",
    "alternate_name": "Carbonic acid, bis(4-nitrophenyl) ester;Carbonic acid, bis(<em>p</em>-nitrophenyl) ester;Bis(4-nitrophenyl) carbonate;<em>p</em>,<em>p</em>′-Dinitrodiphenylcarbonate;Bis(<em>p</em>-nitrophenyl) carbonate;4,4′-Dinitrodiphenyl carbonate;Di-4-nitrophenyl carbonate;Di-<em>p</em>-nitrophenyl carbonate;NSC 1730;Di(4-nitropropyl) carbonate",
    "duplicated_cas_no": "2660243-35-4",
    "SMILES": "O(C(OC1=CC=C(N(=O)=O)C=C1)=O)C2=CC=C(N(=O)=O)C=C2",
    "meta_data": {
        "InChI": "InChI=1S/C13H8N2O7/c16-13(21-11-5-1-9(2-6-11)14(17)18)22-12-7-3-10(4-8-12)15(19)20/h1-8H",
        "InChIKey": null,
        "Canonical SMILES": "O=C(OC1=CC=C(C=C1)N(=O)=O)OC2=CC=C(C=C2)N(=O)=O",
        "Molecular Formula": "C<sub>13</sub>H<sub>8</sub>N<sub>2</sub>O<sub>7</sub>",
        "Molecular Mass": "304.21",
        "Melting Point": "140 °C"
    }
}