{
    "cas_no": "765-30-0",
    "key_name": "Cyclopropylamine",
    "cn_name": "环丙胺;",
    "alternate_name": "Cyclopropanamine;Cyclopropylamine;Aminocyclopropane;NSC 56127",
    "duplicated_cas_no": "",
    "SMILES": "NC1CC1",
    "meta_data": {
        "InChI": "InChI=1S/C3H7N/c4-3-1-2-3/h3H,1-2,4H2",
        "InChIKey": null,
        "Canonical SMILES": "NC1CC1",
        "Molecular Formula": "C<sub>3</sub>H<sub>7</sub>N",
        "Molecular Mass": "57.09",
        "Boiling Point": "50.5 °C",
        "Melting Point": "-35.4 °C"
    }
}