{
    "cas_no": "15570-12-4",
    "key_name": "3-Methoxybenzenethiol",
    "cn_name": "3-甲氧基苯硫酚;",
    "alternate_name": "Benzenethiol, 3-methoxy-;Benzenethiol, <em>m</em>-methoxy-;3-Methoxybenzenethiol;<em>m</em>-Methoxythiophenol;3-Methoxythiophenol;<em>m</em>-Methoxybenzenethiol;(<em>m</em>-Methoxyphenyl)thiol;3-Mercaptoanisole;3-Methyloxybenzenethiol;3-Methoxybenzene-1-thiol",
    "duplicated_cas_no": "",
    "SMILES": "O(C)C1=CC(S)=CC=C1",
    "meta_data": {
        "InChI": "InChI=1S/C7H8OS/c1-8-6-3-2-4-7(9)5-6/h2-5,9H,1H3",
        "InChIKey": null,
        "Canonical SMILES": "SC1=CC=CC(OC)=C1",
        "Molecular Formula": "C<sub>7</sub>H<sub>8</sub>OS",
        "Molecular Mass": "140.20",
        "Boiling Point": "224.5 °C",
        "Melting Point": "264.4-268.3 °C (decomp)"
    }
}