{
    "cas_no": "36437-37-3",
    "key_name": "2-(3-<em>sec</em>-Butyl-5-<em>tert</em>-butyl-2-hydroxyphenyl)benzotriazole",
    "cn_name": "2-(2\"-羟基-3\"-异丁基-5\"-叔丁基苯基)苯并三唑;紫外线吸收剂UV-350;",
    "alternate_name": "Phenol, 2-(2<em>H</em>-benzotriazol-2-yl)-4-(1,1-dimethylethyl)-6-(1-methylpropyl)-;2-(2<em>H</em>-Benzotriazol-2-yl)-4-(1,1-dimethylethyl)-6-(1-methylpropyl)phenol;2-(3-<em>sec</em>-Butyl-5-<em>tert</em>-butyl-2-hydroxyphenyl)benzotriazole;4-<em>tert</em>-Butyl-6-<em>sec</em>-butyl-2-(2<em>H</em>-benzotriazol-2-yl)phenol;2-(3′-<em>sec</em>-Butyl-5′-<em>tert</em>-butyl-2′-hydroxyphenyl)benzotriazole;2-(2-Hydroxy-3-<em>sec</em>-butyl-5-<em>t</em>ert-butylphenyl) benzotriazole;Eversorb 79;2-(2-Hydroxy-3-<em>sec</em>-butyl-5-<em>tert</em>-butylphenyl)-2<em>H</em>-benzotriazole;2-(2<em>H</em>-Benzotriazol-2-yl)-4-(<em>tert</em>-butyl)-6-(<em>sec</em>-butyl)phenol;Chisorb 350;2-(Benzotriazol-2-yl)-6-butan-2-yl-4-<em>tert</em>-butylphenol;UV 350;Chisorb 325",
    "duplicated_cas_no": "122245-62-9;142513-61-9;153613-76-4;188025-37-8;189456-67-5",
    "SMILES": "OC1=C(N2N=C3C(=N2)C=CC=C3)C=C(C(C)(C)C)C=C1C(CC)C",
    "meta_data": {
        "InChI": "InChI=1S/C20H25N3O/c1-6-13(2)15-11-14(20(3,4)5)12-18(19(15)24)23-21-16-9-7-8-10-17(16)22-23/h7-13,24H,6H2,1-5H3",
        "InChIKey": null,
        "Canonical SMILES": "OC=1C(=CC(=CC1C(C)CC)C(C)(C)C)N2N=C3C=CC=CC3=N2",
        "Molecular Formula": "C<sub>20</sub>H<sub>25</sub>N<sub>3</sub>O",
        "Molecular Mass": "323.43",
        "Melting Point": "81-83 °C"
    }
}