{
    "cas_no": "853-23-6",
    "key_name": "3β-Acetoxyandrost-5-en-17-one",
    "cn_name": "醋酸去氢表雄酮;去氢表雄酮醋酸酯;",
    "alternate_name": "Androst-5-en-17-one, 3-(acetyloxy)-, (3β)-;Androst-5-en-17-one, 3β-hydroxy-, acetate;(3β)-3-(Acetyloxy)androst-5-en-17-one;Δ<sup>5</sup>-Dehydroepiandrosterone 3-acetate;Dehydroepiandrost-5-en-17-one 3-acetate;Dehydroisoandrosterone acetate;SKF 2847;3β-Acetoxyandrost-5-en-17-one;3β-Hydroxyandrost-5-en-17-one 3-acetate;3β-Hydroxy-5-androsten-17-one acetate;<em>trans</em>-Dehydroandrosterone acetate;5-Androsten-3β-ol-17-one acetate;3β-Acetoxydehydroepiandrosterone;Androstenolone acetate;17-Oxoandrost-5-en-3β-yl acetate;3β-Hydroxy-5-androstene-17-one acetate;Dehydroepiandrosterone 3-acetate;Dehydroisoandrosterone 3-acetate;Prasterone acetate;3β-Acetoxy-5-androstene-17-one;3β-Acetyloxyandrost-5-en-17-one;DHEA acetate;Dehydroandrosterone acetate;5-Androstene-3β-ol-17-one-3-acetate;3β-Acetoxyandrosta-5-en-17-on",
    "duplicated_cas_no": "651322-73-5;2420433-67-4",
    "SMILES": "C[C@@]12[C@@]3([C@]([C@]4([C@](C)(CC3)C(=O)CC4)[H])(CC=C1C[C@@H](OC(C)=O)CC2)[H])[H]",
    "meta_data": {
        "InChI": "InChI=1S/C21H30O3/c1-13(22)24-15-8-10-20(2)14(12-15)4-5-16-17-6-7-19(23)21(17,3)11-9-18(16)20/h4,15-18H,5-12H2,1-3H3/t15-,16-,17-,18-,20-,21-/m0/s1",
        "InChIKey": null,
        "Canonical SMILES": "O=C(OC1CC2=CCC3C4CCC(=O)C4(C)CCC3C2(C)CC1)C",
        "Molecular Formula": "C<sub>21</sub>H<sub>30</sub>O<sub>3</sub>",
        "Molecular Mass": "330.46",
        "Melting Point": "150 °C",
        "Density": "1.289 g/cm³ @ Temp: 25.000 °C; Press: 759.8 Torr"
    }
}