{
    "cas_no": "712-50-5",
    "key_name": "Cyclohexyl phenyl ketone",
    "cn_name": "环己基苯基甲酮;",
    "alternate_name": "Methanone, cyclohexylphenyl-;Ketone, cyclohexyl phenyl;Cyclohexylphenylmethanone;Cyclohexyl phenyl ketone;Benzoyl cyclohexane;Phenyl cyclohexyl ketone;NSC 818",
    "duplicated_cas_no": "",
    "SMILES": "C(=O)(C1CCCCC1)C2=CC=CC=C2",
    "meta_data": {
        "InChI": "InChI=1S/C13H16O/c14-13(11-7-3-1-4-8-11)12-9-5-2-6-10-12/h1,3-4,7-8,12H,2,5-6,9-10H2",
        "InChIKey": null,
        "Canonical SMILES": "O=C(C=1C=CC=CC1)C2CCCCC2",
        "Molecular Formula": "C<sub>13</sub>H<sub>16</sub>O",
        "Molecular Mass": "188.27",
        "Boiling Point": "136 °C @ Press: 9 Torr",
        "Melting Point": "51 °C"
    }
}