{
    "cas_no": "144-80-9",
    "key_name": "Sulfacetamide",
    "cn_name": "磺胺醋酰;N-(4-氨基苯磺酰基)乙酰胺;",
    "alternate_name": "Acetamide, <em>N</em>-[(4-aminophenyl)sulfonyl]-;Acetamide, <em>N</em>-sulfanilyl-;<em>N</em>-[(4-Aminophenyl)sulfonyl]acetamide;Acetocid;Albamine;Albucid;<em>p</em>-Aminobenzenesulfonacetamide;Steramide;Sulamyd;Sulfacet;Sulfacetamide;Sulfacyl;<em>N</em>-Sulfanilylacetamide;Urosulfon;Alesten;Formosulfacetamide;Region;Sulfacetimide;<em>N</em>-(4-Aminobenzenesulfonyl)acetamide;A 500;<em>N</em><sup>1</sup>-Acetylsulfanilamide;Sulphacetamide;Acetosulfamine;<em>N</em>′-Acetylsulfanilamide;<em>N</em>-Acetylsulfanilamide;Acetosulfamin;Sulphasil;<em>N</em>-(<em>p</em>-Aminophenylsulfonyl)acetamide;4-(Acetylaminosulfonyl)aniline;Ocusol;NSC 63871;MeSH ID: D013409",
    "duplicated_cas_no": "",
    "SMILES": "S(NC(C)=O)(=O)(=O)C1=CC=C(N)C=C1",
    "meta_data": {
        "InChI": "InChI=1S/C8H10N2O3S/c1-6(11)10-14(12,13)8-4-2-7(9)3-5-8/h2-5H,9H2,1H3,(H,10,11)",
        "InChIKey": null,
        "Canonical SMILES": "O=C(NS(=O)(=O)C1=CC=C(N)C=C1)C",
        "Molecular Formula": "C<sub>8</sub>H<sub>10</sub>N<sub>2</sub>O<sub>3</sub>S",
        "Molecular Mass": "214.24",
        "Melting Point": "183 °C",
        "Density": "1.416 g/cm³"
    }
}