{
    "cas_no": "19798-80-2",
    "key_name": "4-Chloro-2-pyridinamine",
    "cn_name": "2-氨基-4-氯吡啶;",
    "alternate_name": "2-Pyridinamine, 4-chloro-;Pyridine, 2-amino-4-chloro-;4-Chloro-2-pyridinamine;2-Amino-4-chloropyridine;4-Chloro-2-aminopyridine;(4-Chloropyridin-2-yl)amine",
    "duplicated_cas_no": "",
    "SMILES": "ClC=1C=C(N)N=CC1",
    "meta_data": {
        "InChI": "InChI=1S/C5H5ClN2/c6-4-1-2-8-5(7)3-4/h1-3H,(H2,7,8)",
        "InChIKey": null,
        "Canonical SMILES": "ClC=1C=CN=C(N)C1",
        "Molecular Formula": "C<sub>5</sub>H<sub>5</sub>ClN<sub>2</sub>",
        "Molecular Mass": "128.56",
        "Melting Point": "130-131 °C"
    }
}