{
    "cas_no": "491-71-4",
    "key_name": "Chrysoeriol",
    "cn_name": "金圣草(黄)素;",
    "alternate_name": "4<em>H</em>-1-Benzopyran-4-one, 5,7-dihydroxy-2-(4-hydroxy-3-methoxyphenyl)-;Flavone, 4′,5,7-trihydroxy-3′-methoxy-;5,7-Dihydroxy-2-(4-hydroxy-3-methoxyphenyl)-4<em>H</em>-1-benzopyran-4-one;Chrysoeriol;3′-Methoxyapigenin;Luteolin 3′-methyl ether;5,7,4′-Trihydroxy-3′-methoxyflavone;3′-Methoxy-4′,5,7-trihydroxyflavone;Chrysoriol;3′-<em>O</em>-Methylluteolin;Luteolin 3′-<em>O</em>-methylether",
    "duplicated_cas_no": "",
    "SMILES": "O=C1C=2C(OC(=C1)C3=CC(OC)=C(O)C=C3)=CC(O)=CC2O",
    "meta_data": {
        "InChI": "InChI=1S/C16H12O6/c1-21-14-4-8(2-3-10(14)18)13-7-12(20)16-11(19)5-9(17)6-15(16)22-13/h2-7,17-19H,1H3",
        "InChIKey": null,
        "Canonical SMILES": "O=C1C=C(OC=2C=C(O)C=C(O)C12)C=3C=CC(O)=C(OC)C3",
        "Molecular Formula": "C<sub>16</sub>H<sub>12</sub>O<sub>6</sub>",
        "Molecular Mass": "300.26",
        "Melting Point": "&gt;337 °C"
    }
}