{
    "cas_no": "66-23-9",
    "key_name": "Acetylcholine bromide",
    "cn_name": "乙酰溴化胆碱;溴化乙酰胆碱;",
    "alternate_name": "Ethanaminium, 2-(acetyloxy)-<em>N</em>,<em>N</em>,<em>N</em>-trimethyl-, bromide (1:1);Choline acetate (ester), bromide;Ethanaminium, 2-(acetyloxy)-<em>N</em>,<em>N</em>,<em>N</em>-trimethyl-, bromide;Choline, acetyl-, bromide;Acetylcholine bromide;Pragmoline;Tonocholin B;Acetylcholine bromhydrate;<em>N</em>,<em>N</em>,<em>N</em>-Trimethyl-2-acetoxyethylammonium bromide;Acetylcholine hydrobromide;Trimethyl(2-acetoxyethyl)ammonium bromide;(2-Acetyloxyethyl)trimethylammonium bromide;[2-(Acetyloxy)ethyl]trimethylazanium bromide",
    "duplicated_cas_no": "",
    "SMILES": "C(COC(C)=O)[N+](C)(C)C.[Br-]",
    "meta_data": {
        "InChI": "InChI=1S/C7H16NO2.BrH/c1-7(9)10-6-5-8(2,3)4;/h5-6H2,1-4H3;1H/q+1;/p-1",
        "InChIKey": null,
        "Canonical SMILES": "[Br-].O=C(OCC[N+](C)(C)C)C",
        "Molecular Formula": "C<sub>7</sub>H<sub>16</sub>NO<sub>2</sub>.Br",
        "Molecular Mass": "",
        "Melting Point": "146 °C"
    }
}