{
    "cas_no": "57933-83-2",
    "key_name": "1-Methylethenyl carbonochloridate",
    "cn_name": "异丙烯基氯甲酸酯;",
    "alternate_name": "Carbonochloridic acid, 1-methylethenyl ester;1-Methylethenyl carbonochloridate;Isopropenyl chloroformate;Prop-1-en-2-yl carbonochloridate",
    "duplicated_cas_no": "",
    "SMILES": "O(C(C)=C)C(Cl)=O",
    "meta_data": {
        "InChI": "InChI=1S/C4H5ClO2/c1-3(2)7-4(5)6/h1H2,2H3",
        "InChIKey": null,
        "Canonical SMILES": "O=C(Cl)OC(=C)C",
        "Molecular Formula": "C<sub>4</sub>H<sub>5</sub>ClO<sub>2</sub>",
        "Molecular Mass": "120.53",
        "Boiling Point": "102 °C"
    }
}