{
    "cas_no": "10287-54-4",
    "key_name": "Ethyl 4-(diethylamino)benzoate",
    "cn_name": null,
    "alternate_name": "Benzoic acid, 4-(diethylamino)-, ethyl ester;Benzoic acid, <em>p</em>-(diethylamino)-, ethyl ester;Ethyl 4-(diethylamino)benzoate;Ethyl <em>p</em>-(diethylamino)benzoate;Ethyl <em>p</em>-(<em>N</em>,<em>N</em>-diethylamino)benzoate;<em>p</em>-(Diethylamino)benzoic acid ethyl ester;NSC 147493",
    "duplicated_cas_no": "",
    "SMILES": "N(CC)(CC)C1=CC=C(C(OCC)=O)C=C1",
    "meta_data": {
        "InChI": "InChI=1S/C13H19NO2/c1-4-14(5-2)12-9-7-11(8-10-12)13(15)16-6-3/h7-10H,4-6H2,1-3H3",
        "InChIKey": null,
        "Canonical SMILES": "O=C(OCC)C1=CC=C(C=C1)N(CC)CC",
        "Molecular Formula": "C<sub>13</sub>H<sub>19</sub>NO<sub>2</sub>",
        "Molecular Mass": "221.30",
        "Boiling Point": "132-138 °C @ Press: 1.2 Torr",
        "Melting Point": "43 °C"
    }
}