{
    "cas_no": "640-15-3",
    "key_name": "Thiometon",
    "cn_name": "二甲硫吸磷;二甲硫吸磷标准液；二甲硫吸磷；S-2-乙基硫代乙基-O，O-二甲基二硫代磷酸酯二甲硫吸磷标准液；;",
    "alternate_name": "Phosphorodithioic acid, <em>S</em>-[2-(ethylthio)ethyl] <em>O</em>,<em>O</em>-dimethyl ester;Ethanethiol, 2-(ethylthio)-, <em>S</em>-ester with <em>O</em>,<em>O</em>-dimethyl phosphorodithioate;Ekatin aerosol;<em>S</em>-[2-(Ethylthio)ethyl] <em>O</em>,<em>O</em>-dimethyl phosphorodithioate;Intrathion;Intration;Thiometon;Ekatin;M 81;<em>O</em>,<em>O</em>-Dimethyl <em>S</em>-(2-ethylthioethyl) dithiophosphate;Veltin;M 81 (pharmaceutical);Dithiometon",
    "duplicated_cas_no": "1081810-45-8",
    "SMILES": "P(SCCSCC)(OC)(OC)=S",
    "meta_data": {
        "InChI": "InChI=1S/C6H15O2PS3/c1-4-11-5-6-12-9(10,7-2)8-3/h4-6H2,1-3H3",
        "InChIKey": null,
        "Canonical SMILES": "S=P(OC)(OC)SCCSCC",
        "Molecular Formula": "C<sub>6</sub>H<sub>15</sub>O<sub>2</sub>PS<sub>3</sub>",
        "Molecular Mass": "246.35",
        "Boiling Point": "110 °C @ Press: 0.1 Torr",
        "Melting Point": "&lt;25 °C",
        "Density": "1.209 g/cm³ @ Temp: 20 °C"
    }
}