{
    "cas_no": "4536-30-5",
    "key_name": "Ethylene glycol monododecyl ether",
    "cn_name": null,
    "alternate_name": "Ethanol, 2-(dodecyloxy)-;2-(Dodecyloxy)ethanol;Ethylene glycol monododecyl ether;Ethylene glycol monolauryl ether;Lauryl ethoxylate;Lipocol L 1;Lauryl monoethoxylate;Ethylene glycol dodecyl ether;Laureth 1;Monoethylene glycol monododecyl ether;2-Hydroxyethyl lauryl ether;Dodecyl monoethoxylate;Monoethylene glycol dodecyl ether;Nikkol BL 1SY;FX-NS 12010;Ethylene glycol 1-dodecyl ether;2-Dodecyloxy-1-ethanol;2-Dodecoxyethanol",
    "duplicated_cas_no": "",
    "SMILES": "C(CCCCOCCO)CCCCCCC",
    "meta_data": {
        "InChI": "InChI=1S/C14H30O2/c1-2-3-4-5-6-7-8-9-10-11-13-16-14-12-15/h15H,2-14H2,1H3",
        "InChIKey": null,
        "Canonical SMILES": "OCCOCCCCCCCCCCCC",
        "Molecular Formula": "C<sub>14</sub>H<sub>30</sub>O<sub>2</sub>",
        "Molecular Mass": "230.39",
        "Boiling Point": "142 °C @ Press: 1.8 Torr",
        "Melting Point": "22-24 °C",
        "Density": "0.8708 g/cm³ @ Temp: 25 °C"
    }
}