{
    "cas_no": "2538-98-9",
    "key_name": "4-Isopropoxy-3-methoxybenzaldehyde",
    "cn_name": null,
    "alternate_name": "Benzaldehyde, 3-methoxy-4-(1-methylethoxy)-;Benzaldehyde, 4-isopropoxy-3-methoxy-;3-Methoxy-4-(1-methylethoxy)benzaldehyde;4-Isopropoxy-3-methoxybenzaldehyde;3-Methoxy-4-isopropoxybenzaldehyde;3-Methoxy-4-(propan-2-yloxy)benzaldehyde;3-Methoxy-4-propan-2-yloxybenzaldehyde",
    "duplicated_cas_no": "",
    "SMILES": "O(C(C)C)C1=C(OC)C=C(C=O)C=C1",
    "meta_data": {
        "InChI": "InChI=1S/C11H14O3/c1-8(2)14-10-5-4-9(7-12)6-11(10)13-3/h4-8H,1-3H3",
        "InChIKey": null,
        "Canonical SMILES": "O=CC1=CC=C(OC(C)C)C(OC)=C1",
        "Molecular Formula": "C<sub>11</sub>H<sub>14</sub>O<sub>3</sub>",
        "Molecular Mass": "194.23",
        "Boiling Point": "150-152 °C @ Press: 13 Torr",
        "Melting Point": "121.5-123.0 °C"
    }
}