{
    "cas_no": "2176-45-6",
    "key_name": "3-Phenoxypyridine",
    "cn_name": "3-苯氧基吡啶;",
    "alternate_name": "Pyridine, 3-phenoxy-;3-Phenoxypyridine;CI 844;3-Pyridinyl phenyl ether",
    "duplicated_cas_no": "",
    "SMILES": "O(C1=CC=CC=C1)C=2C=CC=NC2",
    "meta_data": {
        "InChI": "InChI=1S/C11H9NO/c1-2-5-10(6-3-1)13-11-7-4-8-12-9-11/h1-9H",
        "InChIKey": null,
        "Canonical SMILES": "N=1C=CC=C(OC=2C=CC=CC2)C1",
        "Molecular Formula": "C<sub>11</sub>H<sub>9</sub>NO",
        "Molecular Mass": "171.20",
        "Boiling Point": "147-149 °C"
    }
}