{
    "cas_no": "1072-83-9",
    "key_name": "2-Acetylpyrrole",
    "cn_name": "2-乙酰基吡咯;",
    "alternate_name": "Ethanone, 1-(1<em>H</em>-pyrrol-2-yl)-;Ketone, methyl pyrrol-2-yl;Ketone, methyl 2-pyrryl;1-(1<em>H</em>-Pyrrol-2-yl)ethanone;2-Acetylpyrrole;Methyl pyrrol-2-yl ketone;1-(2-Pyrrolyl)-1-ethanone;2-Pyrrolyl methyl ketone;(2-Pyrrolyl)ethanone;2-Acetyl-1<em>H</em>-pyrrole;NSC 42861;2-Acetyl-1<em>H</em>-indole;1-(1<em>H</em>-Pyrrole-2-yl)ethanone;1<em>H</em>-Pyrrol-2-yl methyl ketone;1-(1<em>H</em>-Pyrrol-2-yl)ethan-1-one;1-(Pyrrol-2-yl)ethanone",
    "duplicated_cas_no": "",
    "SMILES": "C(C)(=O)C1=CC=CN1",
    "meta_data": {
        "InChI": "InChI=1S/C6H7NO/c1-5(8)6-3-2-4-7-6/h2-4,7H,1H3",
        "InChIKey": null,
        "Canonical SMILES": "O=C(C1=CC=CN1)C",
        "Molecular Formula": "C<sub>6</sub>H<sub>7</sub>NO",
        "Molecular Mass": "109.13",
        "Boiling Point": "220 °C",
        "Melting Point": "90 °C",
        "Density": "1.224 g/cm³ @ Temp: 25.000 °C"
    }
}