{
    "cas_no": "1145-76-2",
    "key_name": "Benzyl 4-nitrophenyl ether",
    "cn_name": "4-苄氧基-1-硝基苯;",
    "alternate_name": "Benzene, 1-nitro-4-(phenylmethoxy)-;Ether, benzyl <em>p</em>-nitrophenyl;1-Nitro-4-(phenylmethoxy)benzene;Benzyl <em>p</em>-nitrophenyl ether;4-(Benzyloxy)nitrobenzene;Benzyl 4-nitrophenyl ether;NSC 24667;1-(Benzyloxy)-4-nitrobenzene;[(4-Nitrophenoxy)methyl]benzene;1-Nitro-4-phenylmethoxybenzene",
    "duplicated_cas_no": "",
    "SMILES": "O(CC1=CC=CC=C1)C2=CC=C(N(=O)=O)C=C2",
    "meta_data": {
        "InChI": "InChI=1S/C13H11NO3/c15-14(16)12-6-8-13(9-7-12)17-10-11-4-2-1-3-5-11/h1-9H,10H2",
        "InChIKey": null,
        "Canonical SMILES": "O=N(=O)C1=CC=C(OCC=2C=CC=CC2)C=C1",
        "Molecular Formula": "C<sub>13</sub>H<sub>11</sub>NO<sub>3</sub>",
        "Molecular Mass": "229.23",
        "Melting Point": "107 °C"
    }
}