{
    "cas_no": "492-99-9",
    "key_name": "Nioxime",
    "cn_name": "1,2-环己二酮二肟;1: 1,2-环己二酮二肟;镍肟;1，2-环已二酮二肟;1,2-环己烷二酮二肟;1,2-環己二酮肟;尼肟;",
    "alternate_name": "1,2-Cyclohexanedione, 1,2-dioxime;1,2-Cyclohexanedione, dioxime;Nioxime;1,2-Bis(hydroxyimino)cyclohexane;Nioxim;Nyoxime;NSC 4076",
    "duplicated_cas_no": "",
    "SMILES": "N(O)=C1C(=NO)CCCC1",
    "meta_data": {
        "InChI": "InChI=1S/C6H10N2O2/c9-7-5-3-1-2-4-6(5)8-10/h9-10H,1-4H2",
        "InChIKey": null,
        "Canonical SMILES": "ON=C1C(=NO)CCCC1",
        "Molecular Formula": "C<sub>6</sub>H<sub>10</sub>N<sub>2</sub>O<sub>2</sub>",
        "Molecular Mass": "142.16",
        "Melting Point": "192 °C"
    }
}