{
    "cas_no": "32764-98-0",
    "key_name": "Tetrahydro-6-(3-penten-1-yl)-2<em>H</em>-pyran-2-one",
    "cn_name": null,
    "alternate_name": "2<em>H</em>-Pyran-2-one, tetrahydro-6-(3-penten-1-yl)-;2<em>H</em>-Pyran-2-one, tetrahydro-6-(3-pentenyl)-;8-Decenoic acid, 5-hydroxy-, δ-lactone;Tetrahydro-6-(3-penten-1-yl)-2<em>H</em>-pyran-2-one",
    "duplicated_cas_no": "",
    "SMILES": "C(CC=CC)C1OC(=O)CCC1",
    "meta_data": {
        "InChI": "InChI=1S/C10H16O2/c1-2-3-4-6-9-7-5-8-10(11)12-9/h2-3,9H,4-8H2,1H3",
        "InChIKey": null,
        "Canonical SMILES": "O=C1OC(CCC=CC)CCC1",
        "Molecular Formula": "C<sub>10</sub>H<sub>16</sub>O<sub>2</sub>",
        "Molecular Mass": "168.23",
        "Boiling Point": "149-151 °C @ Press: 18 Torr"
    }
}