{
    "cas_no": "323-09-1",
    "key_name": "2-Fluoronaphthalene",
    "cn_name": "2-氟萘;2-氟萘;",
    "alternate_name": "Naphthalene, 2-fluoro-;2-Fluoronaphthalene;β-Fluoronaphthalene;NSC 26048",
    "duplicated_cas_no": "",
    "SMILES": "FC1=CC2=C(C=C1)C=CC=C2",
    "meta_data": {
        "InChI": "InChI=1S/C10H7F/c11-10-6-5-8-3-1-2-4-9(8)7-10/h1-7H",
        "InChIKey": null,
        "Canonical SMILES": "FC=1C=CC=2C=CC=CC2C1",
        "Molecular Formula": "C<sub>10</sub>H<sub>7</sub>F",
        "Molecular Mass": "146.16",
        "Boiling Point": "212 °C",
        "Melting Point": "61 °C"
    }
}