{
    "cas_no": "17824-83-8",
    "key_name": "3,4,5,6-Tetrachloro-2-pyridinecarbonitrile",
    "cn_name": "3,4,5,6-四氯吡啶-2-甲腈;四氯吡啶腈;",
    "alternate_name": "2-Pyridinecarbonitrile, 3,4,5,6-tetrachloro-;Picolinonitrile, tetrachloro-;3,4,5,6-Tetrachloro-2-pyridinecarbonitrile;Tetrachloropicolinonitrile;3,4,5,6-Tetrachloropyridine-2-carbonitrile;Tetrachloro-2-pyridinecarbonitrile;3,4,5,6-Tetrachloropicolinonitrile;2-Cyano-3,4,5,6-tetrachloropyridine;Tetrachloro-2-cyanopyridine",
    "duplicated_cas_no": "",
    "SMILES": "C(#N)C1=C(Cl)C(Cl)=C(Cl)C(Cl)=N1",
    "meta_data": {
        "InChI": "InChI=1S/C6Cl4N2/c7-3-2(1-11)12-6(10)5(9)4(3)8",
        "InChIKey": null,
        "Canonical SMILES": "N#CC1=NC(Cl)=C(Cl)C(Cl)=C1Cl",
        "Molecular Formula": "C<sub>6</sub>Cl<sub>4</sub>N<sub>2</sub>",
        "Molecular Mass": "241.89",
        "Melting Point": "148-150 °C"
    }
}