{
    "cas_no": "517-23-7",
    "key_name": "2-Acetylbutyrolactone",
    "cn_name": "alpa-乙酰基-gama-丁內酯;",
    "alternate_name": "2(3<em>H</em>)-Furanone, 3-acetyldihydro-;Acetoacetic acid, 2-(2-hydroxyethyl)-, γ-lactone;3-Acetyldihydro-2(3<em>H</em>)-furanone;α-Acetobutyrolactone;α-Acetylbutyrolactone;3-Acetyl-4,5-dihydro-2(3<em>H</em>)-furanone;α-Acetyl-γ-hydroxybutyric acid γ-lactone;α-(2-Hydroxyethyl)acetoacetic acid γ-lactone;2-Acetylbutyrolactone;3-Acetyltetrahydro-2-furanone;α-Acetyl-γ-butyrolactone;2-Oxo-3-acetyltetrahydrofuran;2-Acetyl-γ-butyrolactone;2-Acetylbutanolide;Dihydro-3-acetyl-2(3<em>H</em>)-furanone;NSC 2019;3-Acetyldihydrofuran-2-one;3-Acetyl-4,5-dihydrofuran-2-one;3-Acetyl-4,5-dihydro-3<em>H</em>-2-furanone;3-Acetyloxolan-2-one",
    "duplicated_cas_no": "98634-97-0",
    "SMILES": "C(C)(=O)C1C(=O)OCC1",
    "meta_data": {
        "InChI": "InChI=1S/C6H8O3/c1-4(7)5-2-3-9-6(5)8/h5H,2-3H2,1H3",
        "InChIKey": null,
        "Canonical SMILES": "O=C1OCCC1C(=O)C",
        "Molecular Formula": "C<sub>6</sub>H<sub>8</sub>O<sub>3</sub>",
        "Molecular Mass": "128.13",
        "Boiling Point": "142 °C",
        "Melting Point": "&lt;25 °C",
        "Density": "1.1846 g/cm³ @ Temp: 20 °C"
    }
}