{
    "cas_no": "2510-99-8",
    "key_name": "Ethyl 2-phenylpropionate",
    "cn_name": null,
    "alternate_name": "Benzeneacetic acid, α-methyl-, ethyl ester;Hydratropic acid, ethyl ester;Ethyl 2-phenylpropionate;Ethyl hydrotropate;Ethyl 2-phenylpropanoate;Ethyl α-phenylpropionate;α-Methylbenzeneacetic acid ethyl ester;NSC 254979;2-Phenylpropionic acid ethyl ester",
    "duplicated_cas_no": "113085-12-4",
    "SMILES": "C(C(OCC)=O)(C)C1=CC=CC=C1",
    "meta_data": {
        "InChI": "InChI=1S/C11H14O2/c1-3-13-11(12)9(2)10-7-5-4-6-8-10/h4-9H,3H2,1-2H3",
        "InChIKey": null,
        "Canonical SMILES": "O=C(OCC)C(C=1C=CC=CC1)C",
        "Molecular Formula": "C<sub>11</sub>H<sub>14</sub>O<sub>2</sub>",
        "Molecular Mass": "178.23",
        "Boiling Point": "229-230 °C"
    }
}