{
    "cas_no": "6238-30-8",
    "key_name": "3-Hydroxyquinuclidine-3-carbonitrile",
    "cn_name": null,
    "alternate_name": "1-Azabicyclo[2.2.2]octane-3-carbonitrile, 3-hydroxy-;3-Quinuclidinecarbonitrile, 3-hydroxy-;3-Hydroxy-1-azabicyclo[2.2.2]octane-3-carbonitrile;NSC 168384;3-Hydroxyquinuclidine-3-carbonitrile;3-Cyano-3-hydroxy-1-azabicyclo[2.2.2]octane",
    "duplicated_cas_no": "138925-19-6",
    "SMILES": "C(#N)C1(O)C2CCN(C1)CC2",
    "meta_data": {
        "InChI": "InChI=1S/C8H12N2O/c9-5-8(11)6-10-3-1-7(8)2-4-10/h7,11H,1-4,6H2",
        "InChIKey": null,
        "Canonical SMILES": "N#CC1(O)CN2CCC1CC2",
        "Molecular Formula": "C<sub>8</sub>H<sub>12</sub>N<sub>2</sub>O",
        "Molecular Mass": "152.19",
        "Melting Point": "172-173 °C"
    }
}