{
    "cas_no": "700-44-7",
    "key_name": "2-Hydroxy-6-methoxybenzaldehyde",
    "cn_name": "2-羟基-6-甲氧基苯甲醛;",
    "alternate_name": "Benzaldehyde, 2-hydroxy-6-methoxy-;<em>o</em>-Anisaldehyde, 6-hydroxy-;2-Hydroxy-6-methoxybenzaldehyde;Ramal;6-Methoxysalicylaldehyde;6-Hydroxy-2-methoxybenzaldehyde",
    "duplicated_cas_no": "1186390-30-6",
    "SMILES": "O(C)C1=C(C=O)C(O)=CC=C1",
    "meta_data": {
        "InChI": "InChI=1S/C8H8O3/c1-11-8-4-2-3-7(10)6(8)5-9/h2-5,10H,1H3",
        "InChIKey": null,
        "Canonical SMILES": "O=CC=1C(O)=CC=CC1OC",
        "Molecular Formula": "C<sub>8</sub>H<sub>8</sub>O<sub>3</sub>",
        "Molecular Mass": "152.15",
        "Melting Point": "75 °C"
    }
}