{
    "cas_no": "2306-27-6",
    "key_name": "Sinensetin",
    "cn_name": "甜橙素;",
    "alternate_name": "4<em>H</em>-1-Benzopyran-4-one, 2-(3,4-dimethoxyphenyl)-5,6,7-trimethoxy-;Flavone, 3′,4′,5,6,7-pentamethoxy-;Sinensetin;2-(3,4-Dimethoxyphenyl)-5,6,7-trimethoxy-4<em>H</em>-1-benzopyran-4-one;5,6,7,3′,4′-Pentamethoxyflavone;3′,4′,5,6,7-Pentamethoxyflavone;Pedalitin permethyl ether;5,6,7,3′,4′-Pentamethoxyl flavone;2-(3,4-Dimethoxyphenyl)-5,6,7-trimethoxy-4<em>H</em>-chromen-4-one;2-(3,4-Dimethoxyphenyl)-5,6,7-trimethoxychromen-4-one",
    "duplicated_cas_no": "27181-91-5",
    "SMILES": "O(C)C1=C2C(OC(=CC2=O)C3=CC(OC)=C(OC)C=C3)=CC(OC)=C1OC",
    "meta_data": {
        "InChI": "InChI=1S/C20H20O7/c1-22-13-7-6-11(8-15(13)23-2)14-9-12(21)18-16(27-14)10-17(24-3)19(25-4)20(18)26-5/h6-10H,1-5H3",
        "InChIKey": null,
        "Canonical SMILES": "O=C1C=C(OC=2C=C(OC)C(OC)=C(OC)C12)C=3C=CC(OC)=C(OC)C3",
        "Molecular Formula": "C<sub>20</sub>H<sub>20</sub>O<sub>7</sub>",
        "Molecular Mass": "372.37",
        "Melting Point": "174.5 °C"
    }
}