{
    "cas_no": "4358-87-6",
    "key_name": "(±)-Methyl mandelate",
    "cn_name": "DL-扁桃酸甲酯;",
    "alternate_name": "Benzeneacetic acid, α-hydroxy-, methyl ester;Mandelic acid, methyl ester, <span class=\"text-smallcaps\">DL</span>-;Benzeneacetic acid, α-hydroxy-, methyl ester, (±)-;Methyl <span class=\"text-smallcaps\">DL</span>-mandelate;(±)-Methyl mandelate;Methyl (<em>RS</em>)-α-hydroxybenzeneacetate;(±)-Mandelic acid methyl ester;Methyl (±)-α-hydroxyphenylacetate;Methyl mandelate;Methyl 2-hydroxy-2-phenylacetate;Methyl phenylglycolate;Methyl α-hydroxyphenylacetate;Methyl (hydroxy)(phenyl)acetate;α-Hydroxybenzeneacetic acid methyl ester;Methyl 2-hydroxy-2-phenylethanoate;NSC 6539;2-Hydroxy-2-phenylethanoic acid methyl ester",
    "duplicated_cas_no": "771-90-4",
    "SMILES": "C(C(OC)=O)(O)C1=CC=CC=C1",
    "meta_data": {
        "InChI": "InChI=1S/C9H10O3/c1-12-9(11)8(10)7-5-3-2-4-6-7/h2-6,8,10H,1H3",
        "InChIKey": null,
        "Canonical SMILES": "O=C(OC)C(O)C=1C=CC=CC1",
        "Molecular Formula": "C<sub>9</sub>H<sub>10</sub>O<sub>3</sub>",
        "Molecular Mass": "166.17",
        "Boiling Point": "100-104 °C @ Press: 1 Torr",
        "Melting Point": "58 °C",
        "Density": "1.1284 g/cm³ @ Temp: 70 °C"
    }
}