{
    "cas_no": "10326-27-9",
    "key_name": "Barium chloride, dihydrate",
    "cn_name": "二水合氯化钡;",
    "alternate_name": "Barium chloride (BaCl<sub>2</sub>), dihydrate;Barium chloride, dihydrate;Barium dichloride dihydrate;Barium chloride (BaCl<sub>2</sub>) hydrate (1:2)",
    "duplicated_cas_no": "",
    "SMILES": "[Ba](Cl)Cl.O",
    "meta_data": {
        "InChI": "InChI=1S/Ba.2ClH.2H2O/h;2*1H;2*1H2/q+2;;;;/p-2",
        "InChIKey": null,
        "Canonical SMILES": "Cl[Ba]Cl.O",
        "Molecular Formula": "BaCl<sub>2</sub>.2H<sub>2</sub>O",
        "Molecular Mass": "",
        "Melting Point": "113 °C",
        "Density": "3.86 g/cm³"
    }
}