{
    "cas_no": "1758-68-5",
    "key_name": "1,2-Diaminoanthraquinone",
    "cn_name": "1,2-二氨基-9,10-蒽二酮;",
    "alternate_name": "9,10-Anthracenedione, 1,2-diamino-;Anthraquinone, 1,2-diamino-;1,2-Diamino-9,10-anthracenedione;1,2-Diaminoanthraquinone;1,2-Diamino-9,10-anthraquinone;NSC 39934;1,2-Diamino-9,10-dihydroanthracene-9,10-dione",
    "duplicated_cas_no": "",
    "SMILES": "O=C1C=2C(C(=O)C=3C1=CC=CC3)=CC=C(N)C2N",
    "meta_data": {
        "InChI": "InChI=1S/C14H10N2O2/c15-10-6-5-9-11(12(10)16)14(18)8-4-2-1-3-7(8)13(9)17/h1-6H,15-16H2",
        "InChIKey": null,
        "Canonical SMILES": "O=C1C=2C=CC=CC2C(=O)C3=C(N)C(N)=CC=C13",
        "Molecular Formula": "C<sub>14</sub>H<sub>10</sub>N<sub>2</sub>O<sub>2</sub>",
        "Molecular Mass": "238.24",
        "Melting Point": "298 °C"
    }
}