{
    "cas_no": "369-30-2",
    "key_name": "Benzoic acid, 3-fluoro-4-methoxy-, methyl ester",
    "cn_name": null,
    "alternate_name": "Benzoic acid, 3-fluoro-4-methoxy-, methyl ester;<em>p</em>-Anisic acid, 3-fluoro-, methyl ester;Methyl 3-fluoro-4-methoxybenzoate;Methyl 3-fluoro-4-(methyloxy)benzoate",
    "duplicated_cas_no": "",
    "SMILES": "C(OC)(=O)C1=CC(F)=C(OC)C=C1",
    "meta_data": {
        "InChI": "InChI=1S/C9H9FO3/c1-12-8-4-3-6(5-7(8)10)9(11)13-2/h3-5H,1-2H3",
        "InChIKey": null,
        "Canonical SMILES": "O=C(OC)C1=CC=C(OC)C(F)=C1",
        "Molecular Formula": "C<sub>9</sub>H<sub>9</sub>FO<sub>3</sub>",
        "Molecular Mass": "184.16",
        "Boiling Point": "116 °C @ Press: 5 Torr",
        "Melting Point": "70-71 °C"
    }
}