{
    "cas_no": "63545-55-1",
    "key_name": "3-(4-Mercaptophenyl)propanoic acid",
    "cn_name": "4-巯基羟基肉桂酸;",
    "alternate_name": "Benzenepropanoic acid, 4-mercapto-;Hydrocinnamic acid, <em>p</em>-mercapto-;4-Mercaptobenzenepropanoic acid;4-Mercaptodihydrocinnamic acid;3-(4-Mercaptophenyl)propionic acid;<em>p</em>-Mercaptohydrocinnamic acid;4-Mercaptohydrocinnamic acid;3-(4-Mercaptophenyl)propanoic acid",
    "duplicated_cas_no": "",
    "SMILES": "C(CC(O)=O)C1=CC=C(S)C=C1",
    "meta_data": {
        "InChI": "InChI=1S/C9H10O2S/c10-9(11)6-3-7-1-4-8(12)5-2-7/h1-2,4-5,12H,3,6H2,(H,10,11)",
        "InChIKey": null,
        "Canonical SMILES": "O=C(O)CCC1=CC=C(S)C=C1",
        "Molecular Formula": "C<sub>9</sub>H<sub>10</sub>O<sub>2</sub>S",
        "Molecular Mass": "182.24",
        "Melting Point": "100-105 °C"
    }
}