{
    "cas_no": "35543-25-0",
    "key_name": "1-Pyrrolidinebutanenitrile",
    "cn_name": "1-吡咯烷基丁腈;",
    "alternate_name": "1-Pyrrolidinebutanenitrile;1-Pyrrolidinebutyronitrile;4-Pyrrolidinobutyronitrile;4-(1-Pyrrolidinyl)butyronitrile;4-(Pyrrolidin-1-yl)butanenitrile",
    "duplicated_cas_no": "",
    "SMILES": "C(CCC#N)N1CCCC1",
    "meta_data": {
        "InChI": "InChI=1S/C8H14N2/c9-5-1-2-6-10-7-3-4-8-10/h1-4,6-8H2",
        "InChIKey": null,
        "Canonical SMILES": "N#CCCCN1CCCC1",
        "Molecular Formula": "C<sub>8</sub>H<sub>14</sub>N<sub>2</sub>",
        "Molecular Mass": "138.21",
        "Boiling Point": "115 °C @ Press: 18 Torr"
    }
}