{
    "cas_no": "7772-79-4",
    "key_name": "β-<span class=\"text-smallcaps\">D</span>-Glucopyranose, 2-(acetylamino)-2-deoxy-, 1,3,4,6-tetraacetate",
    "cn_name": "D-氨基葡萄糖五醋酸盐;",
    "alternate_name": "β-<span class=\"text-smallcaps\">D</span>-Glucopyranose, 2-(acetylamino)-2-deoxy-, 1,3,4,6-tetraacetate;Glucopyranose, 2-acetamido-2-deoxy-, 1,3,4,6-tetraacetate, β-<span class=\"text-smallcaps\">D</span>-;<em>N</em>-Acetyl-β-<span class=\"text-smallcaps\">D</span>-glucosamine tetraacetate;2-Acetamido-1,3,4,6-tetra-<em>O</em>-acetyl-2-deoxy-β-<span class=\"text-smallcaps\">D</span>-glucopyranose;1,3,4,6-Tetra-<em>O</em>-acetyl-<em>N</em>-acetyl-β-<span class=\"text-smallcaps\">D</span>-glucosamine;2-Acetamido-2-deoxy-1,3,4,6-tetra-<em>O</em>-acetyl-β-<span class=\"text-smallcaps\">D</span>-glucopyranose;NSC 224432;2-Acetamido-2-deoxy-β-<span class=\"text-smallcaps\">D</span>-glucopyranose 1,3,4,6-tetraacetate;<span class=\"text-smallcaps\">D</span>-Glucosamine pentaacetate",
    "duplicated_cas_no": "496926-66-0;1261929-30-9",
    "SMILES": "O(C(C)=O)[C@H]1[C@H](OC(C)=O)[C@@H](COC(C)=O)O[C@@H](OC(C)=O)[C@@H]1NC(C)=O",
    "meta_data": {
        "InChI": "InChI=1S/C16H23NO10/c1-7(18)17-13-15(25-10(4)21)14(24-9(3)20)12(6-23-8(2)19)27-16(13)26-11(5)22/h12-16H,6H2,1-5H3,(H,17,18)/t12-,13-,14-,15-,16-/m1/s1",
        "InChIKey": null,
        "Canonical SMILES": "O=C(OCC1OC(OC(=O)C)C(NC(=O)C)C(OC(=O)C)C1OC(=O)C)C",
        "Molecular Formula": "C<sub>16</sub>H<sub>23</sub>NO<sub>10</sub>",
        "Molecular Mass": "389.35",
        "Melting Point": "187 °C"
    }
}