{
    "cas_no": "195-19-7",
    "key_name": "Benzo[<em>c</em>]phenanthrene",
    "cn_name": null,
    "alternate_name": "Benzo[<em>c</em>]phenanthrene;3,4-Benzophenanthrene;Tetrahelicene;Benzo[<em>e</em>]phenanthrene",
    "duplicated_cas_no": "46861-06-7",
    "SMILES": "C12=C3C(=CC=C1C=CC=4C2=CC=CC4)C=CC=C3",
    "meta_data": {
        "InChI": "InChI=1S/C18H12/c1-3-7-16-13(5-1)9-11-15-12-10-14-6-2-4-8-17(14)18(15)16/h1-12H",
        "InChIKey": null,
        "Canonical SMILES": "C=1C=CC2=C(C1)C=CC3=CC=C4C=CC=CC4=C32",
        "Molecular Formula": "C<sub>18</sub>H<sub>12</sub>",
        "Molecular Mass": "228.29",
        "Boiling Point": "175-180 °C @ Press: 0.3 Torr",
        "Melting Point": "68 °C"
    }
}