{
    "cas_no": "10058-38-5",
    "key_name": "2-Phenyl-5-thiazolecarboxylic acid",
    "cn_name": null,
    "alternate_name": "5-Thiazolecarboxylic acid, 2-phenyl-;2-Phenyl-5-thiazolecarboxylic acid;RU 16900;2-Phenyl-1,3-thiazole-5-carboxylic acid",
    "duplicated_cas_no": "",
    "SMILES": "C(O)(=O)C=1SC(=NC1)C2=CC=CC=C2",
    "meta_data": {
        "InChI": "InChI=1S/C10H7NO2S/c12-10(13)8-6-11-9(14-8)7-4-2-1-3-5-7/h1-6H,(H,12,13)",
        "InChIKey": null,
        "Canonical SMILES": "O=C(O)C=1SC(=NC1)C=2C=CC=CC2",
        "Molecular Formula": "C<sub>10</sub>H<sub>7</sub>NO<sub>2</sub>S",
        "Molecular Mass": "205.23",
        "Melting Point": "186 °C"
    }
}