{
    "cas_no": "400-75-9",
    "key_name": "1-Iodo-4-nitro-2-(trifluoromethyl)benzene",
    "cn_name": null,
    "alternate_name": "Benzene, 1-iodo-4-nitro-2-(trifluoromethyl)-;Toluene, α,α,α-trifluoro-2-iodo-5-nitro-;1-Iodo-4-nitro-2-(trifluoromethyl)benzene;3-(Trifluoromethyl)-4-iodonitrobenzene;4-Iodo-3-trifluoromethylnitrobenzene",
    "duplicated_cas_no": "",
    "SMILES": "C(F)(F)(F)C1=CC(N(=O)=O)=CC=C1I",
    "meta_data": {
        "InChI": "InChI=1S/C7H3F3INO2/c8-7(9,10)5-3-4(12(13)14)1-2-6(5)11/h1-3H",
        "InChIKey": null,
        "Canonical SMILES": "O=N(=O)C1=CC=C(I)C(=C1)C(F)(F)F",
        "Molecular Formula": "C<sub>7</sub>H<sub>3</sub>F<sub>3</sub>INO<sub>2</sub>",
        "Molecular Mass": "317.00",
        "Melting Point": "82 °C"
    }
}