{
    "cas_no": "824-46-4",
    "key_name": "2-Methoxyhydroquinone",
    "cn_name": "2-甲氧基对苯二酚;",
    "alternate_name": "1,4-Benzenediol, 2-methoxy-;Hydroquinone, methoxy-;2-Methoxy-1,4-benzenediol;Methoxy-<em>p</em>-benzohydroquinone;Methoxyhydroquinone;Methoxyquinol;<em>o</em>-Methoxyhydroquinone;2-Methoxyhydroquinone;2,5-Dihydroxyanisole;1,4-Dihydroxy-3-methoxybenzene;1,4-Dihydroxy-2-methoxybenzene;Monomethoxyhydroquinone;3-Methoxy-1,4-benzenediol;4-Hydroxy-2-methoxyphenol;2-Methoxy-1,4-dihydroxybenzene",
    "duplicated_cas_no": "",
    "SMILES": "O(C)C1=C(O)C=CC(O)=C1",
    "meta_data": {
        "InChI": "InChI=1S/C7H8O3/c1-10-7-4-5(8)2-3-6(7)9/h2-4,8-9H,1H3",
        "InChIKey": null,
        "Canonical SMILES": "OC1=CC=C(O)C(OC)=C1",
        "Molecular Formula": "C<sub>7</sub>H<sub>8</sub>O<sub>3</sub>",
        "Molecular Mass": "140.14",
        "Boiling Point": "180 °C @ Press: 24 Torr",
        "Melting Point": "89-91 °C"
    }
}