{
    "cas_no": "874-84-0",
    "key_name": "2-(2-Nitroethenyl)thiophene",
    "cn_name": "2-硝基乙烯基噻吩;",
    "alternate_name": "Thiophene, 2-(2-nitroethenyl)-;Thiophene, 2-(2-nitrovinyl)-;2-(2-Nitroethenyl)thiophene;2-Thienylnitroethylene;2-(2-Nitrovinyl)thiophene;1-Nitro-2-(2-thienyl)ethylene;1-Nitro-2-(thien-2-yl)ethene;NSC 22059;2-Furyl-1-nitroethene;ST 003142",
    "duplicated_cas_no": "897654-34-1",
    "SMILES": "C(=CN(=O)=O)C1=CC=CS1",
    "meta_data": {
        "InChI": "InChI=1S/C6H5NO2S/c8-7(9)4-3-6-2-1-5-10-6/h1-5H",
        "InChIKey": null,
        "Canonical SMILES": "O=N(=O)C=CC=1SC=CC1",
        "Molecular Formula": "C<sub>6</sub>H<sub>5</sub>NO<sub>2</sub>S",
        "Molecular Mass": "155.17",
        "Melting Point": "79-80 °C"
    }
}