{
    "cas_no": "1927-95-3",
    "key_name": "4-Bromophenyl acetate",
    "cn_name": null,
    "alternate_name": "Phenol, 4-bromo-, 1-acetate;Phenol, <em>p</em>-bromo-, acetate;Phenol, 4-bromo-, acetate;<em>p</em>-Bromophenyl acetate;<em>p</em>-Acetoxybromobenzene;4-Bromophenyl acetate;1-Acetoxy-4-bromobenzene;4-Bromoacetoxybenzene;4-Acetoxybromobenzene;4-Bromophenol acetate;NSC 404083;1-Bromo-4-acetoxybenzene",
    "duplicated_cas_no": "",
    "SMILES": "O(C(C)=O)C1=CC=C(Br)C=C1",
    "meta_data": {
        "InChI": "InChI=1S/C8H7BrO2/c1-6(10)11-8-4-2-7(9)3-5-8/h2-5H,1H3",
        "InChIKey": null,
        "Canonical SMILES": "O=C(OC1=CC=C(Br)C=C1)C",
        "Molecular Formula": "C<sub>8</sub>H<sub>7</sub>BrO<sub>2</sub>",
        "Molecular Mass": "215.04",
        "Boiling Point": "235-240 °C",
        "Melting Point": "21.5 °C"
    }
}