{
    "cas_no": "1780-42-3",
    "key_name": "2,4,6-Trichloro-5-(1-methylethyl)pyrimidine",
    "cn_name": null,
    "alternate_name": "Pyrimidine, 2,4,6-trichloro-5-(1-methylethyl)-;Pyrimidine, 2,4,6-trichloro-5-isopropyl-;2,4,6-Trichloro-5-(1-methylethyl)pyrimidine;5-Isopropyl-2,4,6-trichloropyrimidine;2,4,6-Trichloro-5-isopropylpyrimidine;2,4,6-Trichloro-5-propan-2-ylpyrimidine;2,4,6-Trichloro-5-(propan-2-yl)pyrimidine",
    "duplicated_cas_no": "",
    "SMILES": "C(C)(C)C=1C(Cl)=NC(Cl)=NC1Cl",
    "meta_data": {
        "InChI": "InChI=1S/C7H7Cl3N2/c1-3(2)4-5(8)11-7(10)12-6(4)9/h3H,1-2H3",
        "InChIKey": null,
        "Canonical SMILES": "ClC=1N=C(Cl)C(=C(Cl)N1)C(C)C",
        "Molecular Formula": "C<sub>7</sub>H<sub>7</sub>Cl<sub>3</sub>N<sub>2</sub>",
        "Molecular Mass": "225.50",
        "Melting Point": "69-71 °C"
    }
}