{
    "cas_no": "544-60-5",
    "key_name": "Ammonium oleate",
    "cn_name": "油酸铵;十八烯酸铵;",
    "alternate_name": "9-Octadecenoic acid (9<em>Z</em>)-, ammonium salt (1:1);Oleic acid, ammonium salt;9-Octadecenoic acid (<em>Z</em>)-, ammonium salt;9-Octadecenoic acid (9<em>Z</em>)-, ammonium salt;Ammonia soap;Ammonium oleate;DEF 115;DEF 116T;DEF 116",
    "duplicated_cas_no": "",
    "SMILES": "C(C/C=C\\CCCCCCCC)CCCCCC(O)=O.N",
    "meta_data": {
        "InChI": "InChI=1S/C18H34O2.H3N/c1-2-3-4-5-6-7-8-9-10-11-12-13-14-15-16-17-18(19)20;/h9-10H,2-8,11-17H2,1H3,(H,19,20);1H3/b10-9-;",
        "InChIKey": null,
        "Canonical SMILES": "O=C(O)CCCCCCCC=CCCCCCCCC.N",
        "Molecular Formula": "C<sub>18</sub>H<sub>34</sub>O<sub>2</sub>.H<sub>3</sub>N",
        "Molecular Mass": "",
        "Melting Point": "71 °C"
    }
}