{
    "cas_no": "5721-91-5",
    "key_name": "Testosterone, decanoate",
    "cn_name": "癸酸睾丸素;癸酸睾酮;",
    "alternate_name": "Androst-4-en-3-one, 17-[(1-oxodecyl)oxy]-, (17β)-;Testosterone, decanoate;Decanoic acid, ester with testosterone;(17β)-17-[(1-Oxodecyl)oxy]androst-4-en-3-one;Testosterone caprinate;Testosterone 17-caprinate;Testosterone 17-decanoate;Testosterone caprate;17β-Hydroxyandrost-4-en-3-one decanoate;NSC 26642;4-Androstene-17β-ol-3-one decanoate",
    "duplicated_cas_no": "",
    "SMILES": "C[C@@]12[C@@]3([C@]([C@]4([C@](C)(CC3)[C@@H](OC(CCCCCCCCC)=O)CC4)[H])(CCC1=CC(=O)CC2)[H])[H]",
    "meta_data": {
        "InChI": "InChI=1S/C29H46O3/c1-4-5-6-7-8-9-10-11-27(31)32-26-15-14-24-23-13-12-21-20-22(30)16-18-28(21,2)25(23)17-19-29(24,26)3/h20,23-26H,4-19H2,1-3H3/t23-,24-,25-,26-,28-,29-/m0/s1",
        "InChIKey": null,
        "Canonical SMILES": "O=C(OC1CCC2C3CCC4=CC(=O)CCC4(C)C3CCC12C)CCCCCCCCC",
        "Molecular Formula": "C<sub>29</sub>H<sub>46</sub>O<sub>3</sub>",
        "Molecular Mass": "442.67",
        "Melting Point": "38 °C"
    }
}