{
    "cas_no": "91421-43-1",
    "key_name": "9-Aminocamptothecin",
    "cn_name": "9-氨基喜树碱;",
    "alternate_name": "1<em>H</em>-Pyrano[3′,4′:6,7]indolizino[1,2-<em>b</em>]quinoline-3,14(4<em>H</em>,12<em>H</em>)-dione, 10-amino-4-ethyl-4-hydroxy-, (4<em>S</em>)-;1<em>H</em>-Pyrano[3′,4′:6,7]indolizino[1,2-<em>b</em>]quinoline-3,14(4<em>H</em>,12<em>H</em>)-dione, 10-amino-4-ethyl-4-hydroxy-, (<em>S</em>)-;(4<em>S</em>)-10-Amino-4-ethyl-4-hydroxy-1<em>H</em>-pyrano[3′,4′:6,7]indolizino[1,2-<em>b</em>]quinoline-3,14(4<em>H</em>,12<em>H</em>)-dione;9-Aminocamptothecin;NSC 603071;9-Amino-20(<em>S</em>)-camptothecin;(<em>S</em>)-10-Amino-4-ethyl-4-hydroxy-1<em>H</em>-pyrano[3′,4′:6,7]indolizino[1,2-<em>b</em>]quinoline-3,14(4<em>H</em>,12<em>H</em>)-dione",
    "duplicated_cas_no": "",
    "SMILES": "C(C)[C@]1(O)C2=C(C(=O)N3C(=C2)C=4C(C3)=CC=5C(N4)=CC=CC5N)COC1=O",
    "meta_data": {
        "InChI": "InChI=1S/C20H17N3O4/c1-2-20(26)13-7-16-17-10(6-11-14(21)4-3-5-15(11)22-17)8-23(16)18(24)12(13)9-27-19(20)25/h3-7,26H,2,8-9,21H2,1H3/t20-/m0/s1",
        "InChIKey": null,
        "Canonical SMILES": "O=C1OCC=2C(=O)N3C(=CC2C1(O)CC)C=4N=C5C=CC=C(N)C5=CC4C3",
        "Molecular Formula": "C<sub>20</sub>H<sub>17</sub>N<sub>3</sub>O<sub>4</sub>",
        "Molecular Mass": "363.37",
        "Melting Point": "142.0-145.0 °C"
    }
}