{
    "cas_no": "12068-90-5",
    "key_name": "Mercury telluride",
    "cn_name": "硒化汞(II);碲化汞;锑化汞;",
    "alternate_name": "Mercury telluride (HgTe);Mercury monotelluride;Mercuric telluride;Mercury telluride;Mercury(II) telluride;Mercury(2+) telluride",
    "duplicated_cas_no": "226922-80-1;2456357-69-8;2996841-69-9",
    "SMILES": "[Hg]=[Te]",
    "meta_data": {
        "InChI": "InChI=1S/Hg.Te",
        "InChIKey": null,
        "Canonical SMILES": "[Te]=[Hg]",
        "Molecular Formula": "HgTe",
        "Molecular Mass": "",
        "Melting Point": "793 °C",
        "Density": "7.97 g/cm³"
    }
}