{
    "cas_no": "1312-73-8",
    "key_name": "Potassium sulfide",
    "cn_name": "硫化钾;硫化钾,五水;",
    "alternate_name": "Potassium sulfide (K<sub>2</sub>S);Potassium monosulfide;Potassium sulfide;Dipotassium sulfide;Dipotassium monosulfide;Dipotassium monosulfide (K<sub>2</sub>S)",
    "duplicated_cas_no": "",
    "SMILES": "S([K])[K]",
    "meta_data": {
        "InChI": "InChI=1S/2K.S",
        "InChIKey": null,
        "Canonical SMILES": "[K]S[K]",
        "Molecular Formula": "K<sub>2</sub>S",
        "Molecular Mass": "",
        "Boiling Point": "912 °C",
        "Melting Point": "912 °C",
        "Density": "1.74 g/cm³"
    }
}