{
    "cas_no": "638-45-9",
    "key_name": "1-Iodohexane",
    "cn_name": "1-碘己烷;",
    "alternate_name": "Hexane, 1-iodo-;1-Iodohexane;Hexyl iodide;1-Hexyl iodide;<em>n</em>-Hexyl iodide;NSC 9251;1-Iodo-<em>n</em>-hexane",
    "duplicated_cas_no": "",
    "SMILES": "C(CCC)CCI",
    "meta_data": {
        "InChI": "InChI=1S/C6H13I/c1-2-3-4-5-6-7/h2-6H2,1H3",
        "InChIKey": null,
        "Canonical SMILES": "ICCCCCC",
        "Molecular Formula": "C<sub>6</sub>H<sub>13</sub>I",
        "Molecular Mass": "212.07",
        "Boiling Point": "181 °C",
        "Melting Point": "-74.2 °C",
        "Density": "1.435 g/cm³ @ Temp: 20 °C"
    }
}