{
    "cas_no": "39098-97-0",
    "key_name": "2-Thiopheneacetyl chloride",
    "cn_name": "2-噻吩乙酰氯;",
    "alternate_name": "2-Thiopheneacetyl chloride;2-Thienylacetyl chloride;Thienylacetyl chloride;2-(2-Thienyl)acetyl chloride;Thiophene-2-acetic acid chloride;Thiophen-2-ylacetyl chloride;2-(2-Thienyl)ethanoyl chloride;2-(Thiophen-2-yl)acetyl chloride",
    "duplicated_cas_no": "",
    "SMILES": "C(C(Cl)=O)C1=CC=CS1",
    "meta_data": {
        "InChI": "InChI=1S/C6H5ClOS/c7-6(8)4-5-2-1-3-9-5/h1-3H,4H2",
        "InChIKey": null,
        "Canonical SMILES": "O=C(Cl)CC=1SC=CC1",
        "Molecular Formula": "C<sub>6</sub>H<sub>5</sub>ClOS",
        "Molecular Mass": "160.62",
        "Boiling Point": "105-106 °C @ Press: 22 Torr"
    }
}