{
    "cas_no": "97-99-4",
    "key_name": "Tetrahydrofurfuryl alcohol",
    "cn_name": "四氢糠醇;",
    "alternate_name": "2-Furanmethanol, tetrahydro-;Furfuryl alcohol, tetrahydro-;Tetrahydro-2-furanmethanol;QO THFA;Tetrahydro-2-furancarbinol;Tetrahydrofurfuryl alcohol;Tetrahydro-2-furylmethanol;THFA;2-(Hydroxymethyl)tetrahydrofuran;Tetrahydro-2-furanylmethanol;Rac-(Tetrahydrofuran-2-yl)methanol;NSC 15434;(Tetrahydrofuran-2-yl)methanol;(±)-Tetrahydrofurfuryl alcohol;(Oxolan-2-yl)methanol;Tetrahydrofurfurol",
    "duplicated_cas_no": "72074-94-3;82853-20-1",
    "SMILES": "C(O)C1CCCO1",
    "meta_data": {
        "InChI": "InChI=1S/C5H10O2/c6-4-5-2-1-3-7-5/h5-6H,1-4H2",
        "InChIKey": null,
        "Canonical SMILES": "OCC1OCCC1",
        "Molecular Formula": "C<sub>5</sub>H<sub>10</sub>O<sub>2</sub>",
        "Molecular Mass": "102.13",
        "Boiling Point": "178 °C @ Press: 760 Torr",
        "Melting Point": "&lt;-80 °C",
        "Density": "1.0544 g/cm³ @ Temp: 20 °C"
    }
}