{
    "cas_no": "7429-91-6",
    "key_name": "Dysprosium",
    "cn_name": "镝;镝棒;",
    "alternate_name": "Dysprosium;MeSH ID: D004419",
    "duplicated_cas_no": "110123-47-2;123943-90-8",
    "SMILES": "[Dy]",
    "meta_data": {
        "InChI": "InChI=1S/Dy",
        "InChIKey": null,
        "Canonical SMILES": "[Dy]",
        "Molecular Formula": "Dy",
        "Molecular Mass": "",
        "Melting Point": "1412 °C (polymorph)",
        "Density": "8.54 g/cm³"
    }
}