{
    "cas_no": "27187-13-9",
    "key_name": "5-Chloro-1,2,4-triazolo[4,3-<em>a</em>]pyridine",
    "cn_name": null,
    "alternate_name": "1,2,4-Triazolo[4,3-<em>a</em>]pyridine, 5-chloro-;<em>s</em>-Triazolo[4,3-<em>a</em>]pyridine, 5-chloro-;5-Chloro-1,2,4-triazolo[4,3-<em>a</em>]pyridine;NSC 289808;5-Chloro-[1,2,4]triazolo[4,3-<em>a</em>]pyridine",
    "duplicated_cas_no": "",
    "SMILES": "ClC=1N2C(C=CC1)=NN=C2",
    "meta_data": {
        "InChI": "InChI=1S/C6H4ClN3/c7-5-2-1-3-6-9-8-4-10(5)6/h1-4H",
        "InChIKey": null,
        "Canonical SMILES": "ClC1=CC=CC2=NN=CN12",
        "Molecular Formula": "C<sub>6</sub>H<sub>4</sub>ClN<sub>3</sub>",
        "Molecular Mass": "153.57",
        "Melting Point": "87-89 °C"
    }
}