{
    "cas_no": "7787-93-1",
    "key_name": "Dichloro(3-chloropropyl)methylsilane",
    "cn_name": "3-氯丙基甲基二氯硅烷;",
    "alternate_name": "Silane, dichloro(3-chloropropyl)methyl-;Dichloro(3-chloropropyl)methylsilane;3-Chloropropylmethyldichlorosilane;3-Chloropropyldichloromethylsilane;γ-Chloropropylmethyldichlorosilane",
    "duplicated_cas_no": "",
    "SMILES": "C([Si](C)(Cl)Cl)CCCl",
    "meta_data": {
        "InChI": "InChI=1S/C4H9Cl3Si/c1-8(6,7)4-2-3-5/h2-4H2,1H3",
        "InChIKey": null,
        "Canonical SMILES": "ClCCC[Si](Cl)(Cl)C",
        "Molecular Formula": "C<sub>4</sub>H<sub>9</sub>Cl<sub>3</sub>Si",
        "Molecular Mass": "191.56",
        "Boiling Point": "68-70 °C @ Press: 15 Torr",
        "Density": "1.204 g/cm³"
    }
}