{
    "cas_no": "554-70-1",
    "key_name": "Triethylphosphine",
    "cn_name": null,
    "alternate_name": "Phosphine, triethyl-;Triethylphosphine;Triethylphosphorus;Hishicolin P 2",
    "duplicated_cas_no": "129024-67-5",
    "SMILES": "P(CC)(CC)CC",
    "meta_data": {
        "InChI": "InChI=1S/C6H15P/c1-4-7(5-2)6-3/h4-6H2,1-3H3",
        "InChIKey": null,
        "Canonical SMILES": "P(CC)(CC)CC",
        "Molecular Formula": "C<sub>6</sub>H<sub>15</sub>P",
        "Molecular Mass": "118.16",
        "Boiling Point": "129 °C",
        "Melting Point": "-88 °C"
    }
}