{
    "cas_no": "4390-39-0",
    "key_name": "9-Azabicyclo[3.3.1]nonan-3-one",
    "cn_name": null,
    "alternate_name": "9-Azabicyclo[3.3.1]nonan-3-one;Norpseudopelletierine;Norgranatan-3-one;NPPN;9-Azabicyclo[3.3.1]nonane-3-one",
    "duplicated_cas_no": "",
    "SMILES": "O=C1CC2NC(C1)CCC2",
    "meta_data": {
        "InChI": "InChI=1S/C8H13NO/c10-8-4-6-2-1-3-7(5-8)9-6/h6-7,9H,1-5H2",
        "InChIKey": null,
        "Canonical SMILES": "O=C1CC2NC(C1)CCC2",
        "Molecular Formula": "C<sub>8</sub>H<sub>13</sub>NO",
        "Molecular Mass": "139.19",
        "Boiling Point": "120-125 °C @ Press: 0.1 Torr",
        "Melting Point": "98-99 °C"
    }
}