{
    "cas_no": "700-00-5",
    "key_name": "9-Methyladenine",
    "cn_name": "9-甲基腺嘌呤;",
    "alternate_name": "9<em>H</em>-Purin-6-amine, 9-methyl-;Adenine, 9-methyl-;9-Methyl-9<em>H</em>-purin-6-amine;9-Methyladenine;6-Amino-9-methylpurine;9-Methyl-9<em>H</em>-adenine;<em>N</em><sup>9</sup>-Methyladenine;N 838;NSC 7843;ST 088036",
    "duplicated_cas_no": "",
    "SMILES": "NC1=C2C(N(C)C=N2)=NC=N1",
    "meta_data": {
        "InChI": "InChI=1S/C6H7N5/c1-11-3-10-4-5(7)8-2-9-6(4)11/h2-3H,1H3,(H2,7,8,9)",
        "InChIKey": null,
        "Canonical SMILES": "N=1C=NC2=C(N=CN2C)C1N",
        "Molecular Formula": "C<sub>6</sub>H<sub>7</sub>N<sub>5</sub>",
        "Molecular Mass": "149.15",
        "Melting Point": "300 °C (sublm)",
        "Density": "1.471 g/cm³"
    }
}