{
    "cas_no": "886373-28-0",
    "key_name": "5-Bromo-3-fluoro-2-pyridinecarbonitrile",
    "cn_name": null,
    "alternate_name": "2-Pyridinecarbonitrile, 5-bromo-3-fluoro-;5-Bromo-3-fluoro-2-pyridinecarbonitrile;5-Bromo-3-fluoropyridine-2-carbonitrile;5-Bromo-3-fluoropicolinonitrile",
    "duplicated_cas_no": "",
    "SMILES": "C(#N)C1=C(F)C=C(Br)C=N1",
    "meta_data": {
        "InChI": "InChI=1S/C6H2BrFN2/c7-4-1-5(8)6(2-9)10-3-4/h1,3H",
        "InChIKey": null,
        "Canonical SMILES": "N#CC1=NC=C(Br)C=C1F",
        "Molecular Formula": "C<sub>6</sub>H<sub>2</sub>BrFN<sub>2</sub>",
        "Molecular Mass": "201.00",
        "Melting Point": "103-105 °C"
    }
}