{
    "cas_no": "25260-60-0",
    "key_name": "2-Butene-1,4-diol, 1,4-diacetate, (2<em>Z</em>)-",
    "cn_name": "cis-1,4-二乙酰氧基-2-丁烯;顺-1,4-二醋酸基-2-丁烯;",
    "alternate_name": "2-Butene-1,4-diol, 1,4-diacetate, (2<em>Z</em>)-;2-Butene-1,4-diol, diacetate, (<em>Z</em>)-;2-Butene-1,4-diol, diacetate, (2<em>Z</em>)-;<em>cis</em>-1,4-Diacetoxy-2-butene;<em>cis</em>-2-Butene-1,4-diol diacetate;(<em>Z</em>)-1,4-Diacetoxybut-2-ene;(<em>Z</em>)-4-(Acetyloxy)-2-butenyl acetate;(<em>Z</em>)-2-Butene-1,4-diyl diacetate;(<em>Z</em>)-1,4-Bis(acetoxy)but-2-ene;(Z)-But-2-en-1,4-diyl diacetate;(Z)-1,4-Diacetoxy-but-2-ene",
    "duplicated_cas_no": "",
    "SMILES": "C(OC(C)=O)/C=C\\COC(C)=O",
    "meta_data": {
        "InChI": "InChI=1S/C8H12O4/c1-7(9)11-5-3-4-6-12-8(2)10/h3-4H,5-6H2,1-2H3/b4-3-",
        "InChIKey": null,
        "Canonical SMILES": "O=C(OCC=CCOC(=O)C)C",
        "Molecular Formula": "C<sub>8</sub>H<sub>12</sub>O<sub>4</sub>",
        "Molecular Mass": "172.18",
        "Boiling Point": "120-121 °C @ Press: 18 Torr"
    }
}