{
    "cas_no": "320-51-4",
    "key_name": "4-Chloro-3-(trifluoromethyl)aniline",
    "cn_name": "5-氨基-2-氯三氟甲苯;2-氯-5-氨基三氟甲苯;",
    "alternate_name": "Benzenamine, 4-chloro-3-(trifluoromethyl)-;<em>m</em>-Toluidine, 4-chloro-α,α,α-trifluoro-;4-Chloro-3-(trifluoromethyl)benzenamine;4-Chloro-3-(trifluoromethyl)aniline;3-(Trifluoromethyl)-4-chloroaniline;4-Chloro-α,α,α-trifluoro-<em>m</em>-toluidine;5-Amino-2-chlorobenzotrifluoride;3-Amino-6-chlorobenzotrifluoride;NSC 61405;(4-Chloro-3-trifluoromethylphenyl)amine;2-Chloro-5-aminobenzotrifluoride;3-Trifluoromethyl-4-chlorophenylamine",
    "duplicated_cas_no": "",
    "SMILES": "C(F)(F)(F)C1=C(Cl)C=CC(N)=C1",
    "meta_data": {
        "InChI": "InChI=1S/C7H5ClF3N/c8-6-2-1-4(12)3-5(6)7(9,10)11/h1-3H,12H2",
        "InChIKey": null,
        "Canonical SMILES": "FC(F)(F)C1=CC(N)=CC=C1Cl",
        "Molecular Formula": "C<sub>7</sub>H<sub>5</sub>ClF<sub>3</sub>N",
        "Molecular Mass": "195.57",
        "Boiling Point": "132 °C @ Press: 27 Torr",
        "Melting Point": "36-37 °C"
    }
}