{
    "cas_no": "3041-16-5",
    "key_name": "Dioxanone",
    "cn_name": "1,4-二氧六环-2-酮;",
    "alternate_name": "1,4-Dioxan-2-one;<em>p</em>-Dioxan-2-one;Acetic acid, (2-hydroxyethoxy)-, δ-lactone;<em>p</em>-Dioxanone;2-Oxo-1,4-dioxane;2-<em>p</em>-Dioxanone;Dioxanone;NSC 60534",
    "duplicated_cas_no": "",
    "SMILES": "O=C1COCCO1",
    "meta_data": {
        "InChI": "InChI=1S/C4H6O3/c5-4-3-6-1-2-7-4/h1-3H2",
        "InChIKey": null,
        "Canonical SMILES": "O=C1OCCOC1",
        "Molecular Formula": "C<sub>4</sub>H<sub>6</sub>O<sub>3</sub>",
        "Molecular Mass": "102.09",
        "Boiling Point": "213 °C",
        "Melting Point": "26.7 °C",
        "Density": "1.2664 g/cm³ @ Temp: 30 °C"
    }
}