{
    "cas_no": "38487-86-4",
    "key_name": "2-Amino-4-chlorobenzonitrile",
    "cn_name": "2-氨基-4-氯苯腈;2-氰基-5-氯苯胺;",
    "alternate_name": "Benzonitrile, 2-amino-4-chloro-;Anthranilonitrile, 4-chloro-;2-Amino-4-chlorobenzonitrile;5-Chloro-2-cyanoaniline;4-Chloroanthranilonitrile;4-Chloro-2-aminobenzonitrile",
    "duplicated_cas_no": "",
    "SMILES": "C(#N)C1=C(N)C=C(Cl)C=C1",
    "meta_data": {
        "InChI": "InChI=1S/C7H5ClN2/c8-6-2-1-5(4-9)7(10)3-6/h1-3H,10H2",
        "InChIKey": null,
        "Canonical SMILES": "N#CC1=CC=C(Cl)C=C1N",
        "Molecular Formula": "C<sub>7</sub>H<sub>5</sub>ClN<sub>2</sub>",
        "Molecular Mass": "152.58",
        "Melting Point": "161 °C"
    }
}