{
    "cas_no": "77-48-5",
    "key_name": "1,3-Dibromo-5,5-dimethylhydantoin",
    "cn_name": "1,3-二溴-5,5-二甲基海因;",
    "alternate_name": "2,4-Imidazolidinedione, 1,3-dibromo-5,5-dimethyl-;Hydantoin, 1,3-dibromo-5,5-dimethyl-;1,3-Dibromo-5,5-dimethyl-2,4-imidazolidinedione;1,3-Dibromo-5,5-dimethylhydantoin;<em>N</em>,<em>N</em>′-Dibromodimethylhydantoin;Dibromantin;Dibromantine;5,5-Dimethyl-1,3-dibromohydantoin;<em>N</em>,<em>N</em>′-Dibromo-5,5-dimethylhydantoin;NSC 33305;1,3-Dibromo-5,5-dimethylimidazolidine-2,4-dione;1,3-Dibromo-5,5-dimethylimidazolidin-2,4-dione;Dibromohydantoin",
    "duplicated_cas_no": "101650-80-0",
    "SMILES": "CC1(C)C(=O)N(Br)C(=O)N1Br",
    "meta_data": {
        "InChI": "InChI=1S/C5H6Br2N2O2/c1-5(2)3(10)8(6)4(11)9(5)7/h1-2H3",
        "InChIKey": null,
        "Canonical SMILES": "O=C1N(Br)C(=O)C(N1Br)(C)C",
        "Molecular Formula": "C<sub>5</sub>H<sub>6</sub>Br<sub>2</sub>N<sub>2</sub>O<sub>2</sub>",
        "Molecular Mass": "285.92",
        "Melting Point": "198 °C (decomp)"
    }
}