{
    "cas_no": "627-00-9",
    "key_name": "4-Chlorobutanoic acid",
    "cn_name": "4-氯丁酸;",
    "alternate_name": "Butanoic acid, 4-chloro-;Butyric acid, 4-chloro-;4-Chlorobutanoic acid;4-Chlorobutyric acid;γ-Chlorobutyric acid;NSC 6391;NSC 76578;4-Chlorobutyrate",
    "duplicated_cas_no": "",
    "SMILES": "C(C(O)=O)CCCl",
    "meta_data": {
        "InChI": "InChI=1S/C4H7ClO2/c5-3-1-2-4(6)7/h1-3H2,(H,6,7)",
        "InChIKey": null,
        "Canonical SMILES": "O=C(O)CCCCl",
        "Molecular Formula": "C<sub>4</sub>H<sub>7</sub>ClO<sub>2</sub>",
        "Molecular Mass": "122.55",
        "Boiling Point": "114 °C @ Press: 16 Torr",
        "Melting Point": "16 °C",
        "Density": "1.2373 g/cm³ @ Temp: 20 °C"
    }
}