{
    "cas_no": "63857-00-1",
    "key_name": "Benzenamine, <em>N</em>-[[2-chloro-3-[(phenylamino)methylene]-1-cyclohexen-1-yl]methylene]-, hydrochloride (1:1)",
    "cn_name": "N-[(3-(苯胺基亚甲基)-2-氯-1-环己烯-1-基)亚甲基]苯胺盐酸盐;",
    "alternate_name": "Benzenamine, <em>N</em>-[[2-chloro-3-[(phenylamino)methylene]-1-cyclohexen-1-yl]methylene]-, hydrochloride (1:1);Benzenamine, <em>N</em>-[[2-chloro-3-[(phenylamino)methylene]-1-cyclohexen-1-yl]methylene]-, monohydrochloride;<em>N</em>-[(3-(Anilinomethylene)-2-chloro-1-cyclohexen-1-yl)methylene]aniline monohydrochloride",
    "duplicated_cas_no": "70446-42-3;162093-48-3;177969-29-8",
    "SMILES": "C(NC1=CC=CC=C1)=C2C(Cl)=C(C=NC3=CC=CC=C3)CCC2.Cl",
    "meta_data": {
        "InChI": "InChI=1S/C20H19ClN2.ClH/c21-20-16(14-22-18-10-3-1-4-11-18)8-7-9-17(20)15-23-19-12-5-2-6-13-19;/h1-6,10-15,22H,7-9H2;1H",
        "InChIKey": null,
        "Canonical SMILES": "Cl.ClC1=C(C=NC=2C=CC=CC2)CCCC1=CNC=3C=CC=CC3",
        "Molecular Formula": "C<sub>20</sub>H<sub>19</sub>ClN<sub>2</sub>.ClH",
        "Molecular Mass": "",
        "Melting Point": "220 °C"
    }
}