{
    "cas_no": "23853-10-3",
    "key_name": "1-Piperidineacetic acid, ethyl ester",
    "cn_name": "1-哌啶乙酸乙酯;",
    "alternate_name": "1-Piperidineacetic acid, ethyl ester;Ethyl <em>N</em>-piperidinylacetate;Ethyl piperidinoacetate;Ethyl 1-piperidineacetate;Piperidin-1-ylacetic acid ethyl ester;Ethyl 2-(piperidin-1-yl)acetate",
    "duplicated_cas_no": "",
    "SMILES": "C(C(OCC)=O)N1CCCCC1",
    "meta_data": {
        "InChI": "InChI=1S/C9H17NO2/c1-2-12-9(11)8-10-6-4-3-5-7-10/h2-8H2,1H3",
        "InChIKey": null,
        "Canonical SMILES": "O=C(OCC)CN1CCCCC1",
        "Molecular Formula": "C<sub>9</sub>H<sub>17</sub>NO<sub>2</sub>",
        "Molecular Mass": "171.24",
        "Boiling Point": "103 °C @ Press: 12 Torr"
    }
}