{
    "cas_no": "2167-14-8",
    "key_name": "1-Ethyl-1<em>H</em>-pyrrole-2-carboxaldehyde",
    "cn_name": null,
    "alternate_name": "1<em>H</em>-Pyrrole-2-carboxaldehyde, 1-ethyl-;Pyrrole-2-carboxaldehyde, 1-ethyl-;1-Ethyl-1<em>H</em>-pyrrole-2-carboxaldehyde;1-Ethyl-2-formylpyrrole;<em>N</em>-Ethylpyrrole-2-carboxaldehyde;<em>N</em>-Ethyl-2-formylpyrrole;1-Ethylpyrrole-2-aldehyde;1-Ethyl-2-pyrrolecarboxaldehyde",
    "duplicated_cas_no": "",
    "SMILES": "C(=O)C=1N(CC)C=CC1",
    "meta_data": {
        "InChI": "InChI=1S/C7H9NO/c1-2-8-5-3-4-7(8)6-9/h3-6H,2H2,1H3",
        "InChIKey": null,
        "Canonical SMILES": "O=CC1=CC=CN1CC",
        "Molecular Formula": "C<sub>7</sub>H<sub>9</sub>NO",
        "Molecular Mass": "123.15",
        "Boiling Point": "59 °C @ Press: 6 Torr"
    }
}