{
    "cas_no": "9004-35-7",
    "key_name": "Cellulose acetate",
    "cn_name": null,
    "alternate_name": "Cellulose, acetate;Cellulose acetate;Acetate cotton;Acetate ester of cellulose;Ampacet C/A;Crellate;Nixon C/A;Plastacele;Strux;Acetylcellulose;Etrol OEM;Etrol OES;Acetose;Cellidor;Cellidor AW;Cellit T;Acetate cellulose;PP 612;T-Cellit;Cellidor SM 15;PP 628;PP 613;A 432-130B;Cellit K 700;Cellit L 700;Acetyl 35;Bioden;DP 06;DP 02;E 394-45;E 394-30;E 394-40;E 394-60;E 383-40;E 376-40;E 398-10;E 400-25;Allogel;E 298-10;Nicollembal;Stripmix;Cellidor A;E 398-3;Acetol RIB;UAM;FM (cellulose derivative);E 398-38;Kodacel A 22;UAM 100;UAM 150;UAM 200;UAM 300;UAM 500;ATs 1-2;CA 2-3X;MGA 95;MGA 100 (membrane);Cellogel RS;KP 90;KP 90 (polysaccharide);KP 98;DDS 995;Cellidor S;Cellidor U;Cellit K 900;MGA 80;MGA 90;DDS 990;DDS 600;MGA 100;FM;CA 990;CA 995;CA 999;MFAS-G;DRS 90;Ultraphan;AC 61 (cellulose derivative);AC 61;E 395-60;Separax;UAM 50;Sartorius SM 11106;OE 67;Celotate EHWP 04700;DP-III;Asechi H;LL 10;Duoflux;Plasmaflo AP 06M;TRAF 2027/024;TRAF 2027/027;PT 600;Dexel Crystal X 1915;Hollosep M 1;Acetic acid, cellulose ester;FM 80 (cellulose derivative);FM 80;A 50T (cellulose derivative);Stone Acetyloid;CA 398-6;Eastman 398-10;Romembra SC 3100;Romembra SC-L 100S;Plastacetat;X 50-0-60-25;Desal CA-UF;Asechi;Daicel T-AC;Daicel V-AC;MFA-M;AC 398-10;MFA-MA;Daicel L 105;Separax S;CA 398-30;Sartorius SM 11127;Sartorius SM 11105;Sartorius SM 11104;Sartorius SM 12303;Millipore EG;Sartorius M 11107;CAE 398-3;GLF 84;Celluflow TA 25;CA 100;Millipore;Tenite A 036;Clarifoil 20MaTT/POLL;Vladipor UAM 500;Aceplast LS;Tenite Acetate 110;Grafix acetate;Diaflo YM 10;Amicon YM 10;CA 600PP;DP 06 (membrane);Daicel L-AC;Tartan;Tartan (cellulose derivative);PCAPOM S 10;Crisvon Assistor SD 17B;Eastman 398-3;TW 6;CA 394;AC 311075;Hydranautics SW-CA 4040;Hydranautics CTA;MGM;A 50T;ERO 3.0/400;ERO 96-950;E 398-3-6;Daicel L-AC 30;VBF;SEPA ST;TA 25;CA 398-10;CA-REF;L-AC L 20;Acetate Flake;Celgreen CA;YM 10;Tenite Acetate 105MS;CA 100 (ester);Celgard C 100;VFY;Asetifilm VR-R;Tenex;Osmonics SN 32;NF-CA 50;UF-CA 1;Tenex (cellulose derivative);AC 300;AC 300 (membrane);Amicon YC 05;YC 05;Mycel CA 5770;SC 3000;JLF 68;360E16;Daicel 15300-22;Sartobran 300;Cellulose acetate 15-4051;MP 18;K 900;PR-CA;FRK (cellulose derivative);Osmonics CG;Osmonics CD;Osmonics CA;VPU 5;Celish KY 100G acetate;AF 2F2;HA 5330;SS 10;KC 8UCR5;SS 10 (cellulose deriv.);L 60/90;Etrol Vilam 2;GE-Sepa CF-CA;NatureFlex NE 30;GE-Sepa DK;M 80;AC 3533B;CM 15208;Daicel LM 40;CA 398-10NF;Sepa DK;Biograde C 7500;Acetat N 50;Tenite Acetate 105;C 7500;Clarifoil T 24;Y 020A035A;BR 1;Ceolus TG 101 acetate;Fuji Tac TD 60;TD 60;L 20;Cellulose acetate L 20;CA 320S;TMI 12201;XR 2453TJ;CLS 431155;CA 202;BioGrade V 2844;Rhodoid;CA 389-3;Cellotherm P 400;C 3782;Naia;CE 41972;Selbrene EC 210;530A;Daicel L 70;CA 394-60LF;FP 1200;BR T03A",
    "duplicated_cas_no": "50806-92-3;58318-12-0;58517-46-7;66419-14-5;70992-66-4;71812-17-4;81210-20-0;81210-21-1;87582-55-6;92529-17-4;103288-81-9;109321-21-3;120300-14-3;125807-44-5;155860-40-5;210637-11-9;924294-65-5;1422526-87-1;1599444-05-9;1788865-62-2",
    "SMILES": "",
    "meta_data": {
        "InChI": "",
        "InChIKey": null,
        "Canonical SMILES": "",
        "Molecular Formula": "C<sub>2</sub>H<sub>4</sub>O<sub>2</sub>.xUnspecified",
        "Molecular Mass": "",
        "Boiling Point": "210 °C",
        "Melting Point": "~260 °C (approx)",
        "Density": "1.27-1.34 g/cm³"
    }
}