{
    "cas_no": "13552-21-1",
    "key_name": "1-Amino-2-butanol",
    "cn_name": "1-氨基-2-丁醇;2-羟基丁胺;",
    "alternate_name": "2-Butanol, 1-amino-;1-Amino-2-butanol;1-Ethyl-2-aminoethanol;1-Amino-2-hydroxybutane;2-Hydroxybutylamine;(±)-1-Amino-2-butanol;NSC 17695;Mono-<em>sec</em>-butanolamine",
    "duplicated_cas_no": "13552-32-4",
    "SMILES": "C(CC)(CN)O",
    "meta_data": {
        "InChI": "InChI=1S/C4H11NO/c1-2-4(6)3-5/h4,6H,2-3,5H2,1H3",
        "InChIKey": null,
        "Canonical SMILES": "OC(CN)CC",
        "Molecular Formula": "C<sub>4</sub>H<sub>11</sub>NO",
        "Molecular Mass": "89.14",
        "Boiling Point": "169 °C",
        "Melting Point": "3 °C"
    }
}