{
    "cas_no": "444731-74-2",
    "key_name": "<em>N</em>-(2-Chloro-4-pyrimidinyl)-2,3-dimethyl-2<em>H</em>-indazol-6-amine",
    "cn_name": "N-(2-氯嘧啶-4-基)- 2,3-二甲基-2H-吲唑-6-胺;",
    "alternate_name": "2<em>H</em>-Indazol-6-amine, <em>N</em>-(2-chloro-4-pyrimidinyl)-2,3-dimethyl-;<em>N</em>-(2-Chloro-4-pyrimidinyl)-2,3-dimethyl-2<em>H</em>-indazol-6-amine;<em>N</em>-(2-Chloropyrimidin-4-yl)-2,3-dimethyl-2<em>H</em>-indazol-6-amine;6-[N-(2-chloropyrimidin-4-yl)amino]-2,3-dimethyl-2H-indazole;<em>N</em>-(2-Chloropyrimidin-4-yl)-2,3-Methyl-2<em>H</em>-indazol-6-amine",
    "duplicated_cas_no": "",
    "SMILES": "CC1=C2C(C=C(NC3=NC(Cl)=NC=C3)C=C2)=NN1C",
    "meta_data": {
        "InChI": "InChI=1S/C13H12ClN5/c1-8-10-4-3-9(7-11(10)18-19(8)2)16-12-5-6-15-13(14)17-12/h3-7H,1-2H3,(H,15,16,17)",
        "InChIKey": null,
        "Canonical SMILES": "ClC1=NC=CC(=N1)NC=2C=CC=3C(=NN(C3C)C)C2",
        "Molecular Formula": "C<sub>13</sub>H<sub>12</sub>ClN<sub>5</sub>",
        "Molecular Mass": "273.72",
        "Melting Point": "215-216 °C"
    }
}