{
    "cas_no": "87-91-2",
    "key_name": "Diethyl tartrate",
    "cn_name": "L-(+)-酒石酸二乙酯;",
    "alternate_name": "Butanedioic acid, 2,3-dihydroxy- (2<em>R</em>,3<em>R</em>)-, 1,4-diethyl ester;Tartaric acid, diethyl ester;Butanedioic acid, 2,3-dihydroxy-[<em>R</em>-(<em>R</em>*,<em>R</em>*)]-, diethyl ester;Butanedioic acid, 2,3-dihydroxy- (2<em>R</em>,3<em>R</em>)-, diethyl ester;Diethyl tartrate;(+)-Diethyl <span class=\"text-smallcaps\">L</span>-tartrate;(<em>R</em>,<em>R</em>)-Tartaric acid diethyl ester;Ethyl tartrate;Ethyl (+)-tartrate;Diethyl <span class=\"text-smallcaps\">L</span>-tartrate;Diethyl (2<em>R</em>,3<em>R</em>)-(+)-tartrate;Diethyl (<em>R</em>,<em>R</em>)-(+)-tartrate;Diethyl 1,2-dihydroxy-1,2-ethanedicarboxylate;Diethyl (+)-tartrate;Diethyl <span class=\"text-smallcaps\">L</span>-(+)-tartrate;(+)-(<em>R</em>,<em>R</em>)-Diethyl tartrate;(<em>R</em>,<em>R</em>)-Diethyl tartrate;Diethyl (R,R)-tartrate;Diethyl (2<em>R</em>,3<em>R</em>)-tartrate;Diethyl <span class=\"text-smallcaps\">L</span>-tartarate;<span class=\"text-smallcaps\">L</span>-Diethyl tartrate;<span class=\"text-smallcaps\">L</span>-Tartaric acid diethyl ester;NSC 44808;NSC 8878;Diethyl (2<em>R</em>,3<em>R</em>)-2,3-dihydroxysuccinate;(+)-Diethyl L-tartarate;Diethyl tartarate;<span class=\"text-smallcaps\">L</span>-(+)-Tartaric acid diethyl ester",
    "duplicated_cas_no": "128851-23-0;608-84-4;45119-64-0;66473-11-8;168979-76-8;181628-97-7",
    "SMILES": "[C@@H]([C@H](C(OCC)=O)O)(C(OCC)=O)O",
    "meta_data": {
        "InChI": "InChI=1S/C8H14O6/c1-3-13-7(11)5(9)6(10)8(12)14-4-2/h5-6,9-10H,3-4H2,1-2H3/t5-,6-/m1/s1",
        "InChIKey": null,
        "Canonical SMILES": "O=C(OCC)C(O)C(O)C(=O)OCC",
        "Molecular Formula": "C<sub>8</sub>H<sub>14</sub>O<sub>6</sub>",
        "Molecular Mass": "206.19",
        "Boiling Point": "280 °C",
        "Melting Point": "17 °C",
        "Density": "1.2028 g/cm³ @ Temp: 20 °C"
    }
}