{
    "cas_no": "2417-90-5",
    "key_name": "3-Bromopropionitrile",
    "cn_name": "3-溴丙腈;&beta;-溴丙腈;溴乙基氰;",
    "alternate_name": "Propanenitrile, 3-bromo-;Propionitrile, 3-bromo-;3-Bromopropanenitrile;β-Bromopropionitrile;3-Bromopropionitrile;1-Bromo-2-cyanoethane;2-Bromoethyl cyanide;2-Cyanoethyl bromide;NSC 8021",
    "duplicated_cas_no": "",
    "SMILES": "C(CBr)C#N",
    "meta_data": {
        "InChI": "InChI=1S/C3H4BrN/c4-2-1-3-5/h1-2H2",
        "InChIKey": null,
        "Canonical SMILES": "N#CCCBr",
        "Molecular Formula": "C<sub>3</sub>H<sub>4</sub>BrN",
        "Molecular Mass": "133.97",
        "Boiling Point": "92 °C @ Press: 25 Torr",
        "Density": "1.6152 g/cm³ @ Temp: 20 °C"
    }
}