{
    "cas_no": "455-16-3",
    "key_name": "4-Methylbenzenesulfonyl fluoride",
    "cn_name": "对甲苯磺酰氟;",
    "alternate_name": "Benzenesulfonyl fluoride, 4-methyl-;<em>p</em>-Toluenesulfonyl fluoride;4-Methylbenzenesulfonyl fluoride;Tosyl fluoride;<em>p</em>-Methylbenzenesulfonyl fluoride;4-Tolylsulfonyl fluoride;Toluene-4-sulfonyl fluoride;<em>p</em>-Methylphenylsulfonyl fluoride;4-Methylphenylsulfonyl fluoride;NSC 2749;<em>p</em>-Tolylsulfonyl fluoride;1-(Fluorosulfonyl)-4-methylbenzene",
    "duplicated_cas_no": "",
    "SMILES": "S(F)(=O)(=O)C1=CC=C(C)C=C1",
    "meta_data": {
        "InChI": "InChI=1S/C7H7FO2S/c1-6-2-4-7(5-3-6)11(8,9)10/h2-5H,1H3",
        "InChIKey": null,
        "Canonical SMILES": "O=S(=O)(F)C1=CC=C(C=C1)C",
        "Molecular Formula": "C<sub>7</sub>H<sub>7</sub>FO<sub>2</sub>S",
        "Molecular Mass": "174.19",
        "Boiling Point": "112 °C",
        "Melting Point": "41.5 °C",
        "Density": "1.233 g/cm³"
    }
}