{
    "cas_no": "19975-56-5",
    "key_name": "4,5-Dihydro-2-(methylthio)thiazole",
    "cn_name": "2-(甲硫基)噻唑啉;",
    "alternate_name": "Thiazole, 4,5-dihydro-2-(methylthio)-;2-Thiazoline, 2-(methylthio)-;4,5-Dihydro-2-(methylthio)thiazole;2-Methylthio-2-thiazoline;2-(Methylthio)thiazoline;4,5-Dihydro-2-methylthiothiazole;NSC 196203;2-(Methylsulfanyl)-4,5-dihydrothiazole;2-(Methylthio)-4,5-dihydro-1,3-thiazole;2-(Methylthio)-4,5-dihydrothiazole;2-(Methylsulfanyl)-4,5-dihydro-1,3-thiazole;2-Methylsulfanyl-4,5-dihydro-1,3-thiazole",
    "duplicated_cas_no": "",
    "SMILES": "S(C)C1=NCCS1",
    "meta_data": {
        "InChI": "InChI=1S/C4H7NS2/c1-6-4-5-2-3-7-4/h2-3H2,1H3",
        "InChIKey": null,
        "Canonical SMILES": "N1=C(SC)SCC1",
        "Molecular Formula": "C<sub>4</sub>H<sub>7</sub>NS<sub>2</sub>",
        "Molecular Mass": "133.24",
        "Boiling Point": "46 °C @ Press: 14 Torr"
    }
}