{
    "cas_no": "84-74-2",
    "key_name": "Dibutyl phthalate",
    "cn_name": "邻苯二甲酸二丁酯;酞酸二丁酯;1,2-苯二甲酸二丁酯;增塑剂DBP;邻苯二甲酸二正丁酯;",
    "alternate_name": "1,2-Benzenedicarboxylic acid, 1,2-dibutyl ester;Phthalic acid, dibutyl ester;1,2-Benzenedicarboxylic acid, dibutyl ester;PX 104;Celluflex DPB;Dibutyl phthalate;Di-<em>n</em>-butyl phthalate;Elaol;Palatinol C;Polycizer DBP;Staflex DBP;Witcizer 300;Hexaplas M/B;Butyl phthalate;<em>n</em>-Butyl phthalate;Genoplast B;Unimoll DB;DBP;Ergoplast FDB;Di(<em>n</em>-butyl) 1,2-benzenedicarboxylate;Dibutyl <em>o</em>-phthalate;DBP (ester);Bis-<em>n</em>-butyl phthalate;Hatco DBP;Phthalic acid di-<em>n</em>-butyl ester;Corflex 440;Monocizer DBP;Kodaflex DBP;Vestinol C;Plasthall DBP;NSC 6370;Dibutyl ester 1,2-benzenedicarboxylic acid;YH 1BD2;Ruifeng VP 201;VP 201;MeSH ID: D003993",
    "duplicated_cas_no": "",
    "SMILES": "C(OCCCC)(=O)C1=C(C(OCCCC)=O)C=CC=C1",
    "meta_data": {
        "InChI": "InChI=1S/C16H22O4/c1-3-5-11-19-15(17)13-9-7-8-10-14(13)16(18)20-12-6-4-2/h7-10H,3-6,11-12H2,1-2H3",
        "InChIKey": null,
        "Canonical SMILES": "O=C(OCCCC)C=1C=CC=CC1C(=O)OCCCC",
        "Molecular Formula": "C<sub>16</sub>H<sub>22</sub>O<sub>4</sub>",
        "Molecular Mass": "278.34",
        "Boiling Point": "340 °C",
        "Melting Point": "-35 °C",
        "Density": "1.0465 g/cm³ @ Temp: 20 °C"
    }
}