{
    "cas_no": "506-51-4",
    "key_name": "1-Tetracosanol",
    "cn_name": "二十四烷醇;",
    "alternate_name": "1-Tetracosanol;Lignoceryl alcohol;Lignoceric alcohol;Tetracosyl alcohol;Lignocerol;<em>n</em>-Tetracosanol;Tetracosanol;NSC 93768",
    "duplicated_cas_no": "",
    "SMILES": "C(CCCCCCCCCCCC)CCCCCCCCCCCO",
    "meta_data": {
        "InChI": "InChI=1S/C24H50O/c1-2-3-4-5-6-7-8-9-10-11-12-13-14-15-16-17-18-19-20-21-22-23-24-25/h25H,2-24H2,1H3",
        "InChIKey": null,
        "Canonical SMILES": "OCCCCCCCCCCCCCCCCCCCCCCCC",
        "Molecular Formula": "C<sub>24</sub>H<sub>50</sub>O",
        "Molecular Mass": "354.65",
        "Boiling Point": "230-235 °C @ Press: 12 Torr",
        "Melting Point": "76 °C"
    }
}