{
    "cas_no": "21671-00-1",
    "key_name": "Shoreic acid",
    "cn_name": null,
    "alternate_name": "1<em>H</em>-Benz[<em>e</em>]indene-6-propanoic acid, dodecahydro-6,9a,9b-trimethyl-7-(1-methylethenyl)-3-[(2<em>S</em>,5<em>R</em>)-tetrahydro-5-(1-hydroxy-1-methylethyl)-2-methyl-2-furanyl]-, (3<em>S</em>,3a<em>R</em>,5a<em>R</em>,6<em>S</em>,7<em>S</em>,9a<em>R</em>,9b<em>R</em>)-;3,4-Secodammar-4(28)-en-3-oic acid, 20,24-epoxy-25-hydroxy-, (24<em>R</em>)-;(3<em>S</em>,3a<em>R</em>,5a<em>R</em>,6<em>S</em>,7<em>S</em>,9a<em>R</em>,9b<em>R</em>)-Dodecahydro-6,9a,9b-trimethyl-7-(1-methylethenyl)-3-[(2<em>S</em>,5<em>R</em>)-tetrahydro-5-(1-hydroxy-1-methylethyl)-2-methyl-2-furanyl]-1<em>H</em>-benz[<em>e</em>]indene-6-propanoic acid;Shoreic acid;Shoric acid;20,24-Epoxy-25-hydroxy-3,4-seco-4(28)-dammaren-3-oic acid methyl ester;29-Deoxycleomdiolic acid",
    "duplicated_cas_no": "",
    "SMILES": "C[C@]12[C@@]3(C)[C@@]([C@](CCC(O)=O)(C)[C@H](C(C)=C)CC3)(CC[C@@]1([C@](CC2)([C@@]4(C)O[C@@H](C(C)(C)O)CC4)[H])[H])[H]",
    "meta_data": {
        "InChI": "InChI=1S/C30H50O4/c1-19(2)20-11-17-29(7)23(27(20,5)15-14-25(31)32)10-9-21-22(12-16-28(21,29)6)30(8)18-13-24(34-30)26(3,4)33/h20-24,33H,1,9-18H2,2-8H3,(H,31,32)/t20-,21+,22-,23+,24+,27-,28+,29+,30-/m0/s1",
        "InChIKey": null,
        "Canonical SMILES": "O=C(O)CCC1(C)C(C(=C)C)CCC2(C)C1CCC3C(CCC32C)C4(OC(CC4)C(O)(C)C)C",
        "Molecular Formula": "C<sub>30</sub>H<sub>50</sub>O<sub>4</sub>",
        "Molecular Mass": "474.72",
        "Melting Point": "102-104 °C"
    }
}