{
    "cas_no": "2494-79-3",
    "key_name": "4-Chloro-3-(chlorosulfonyl)benzoic acid",
    "cn_name": null,
    "alternate_name": "Benzoic acid, 4-chloro-3-(chlorosulfonyl)-;4-Chloro-3-(chlorosulfonyl)benzoic acid;3-(Chlorosulfonyl)-4-chlorobenzoic acid;3-Carboxy-6-chlorobenzenesulfonyl chloride",
    "duplicated_cas_no": "",
    "SMILES": "S(Cl)(=O)(=O)C1=CC(C(O)=O)=CC=C1Cl",
    "meta_data": {
        "InChI": "InChI=1S/C7H4Cl2O4S/c8-5-2-1-4(7(10)11)3-6(5)14(9,12)13/h1-3H,(H,10,11)",
        "InChIKey": null,
        "Canonical SMILES": "O=C(O)C1=CC=C(Cl)C(=C1)S(=O)(=O)Cl",
        "Molecular Formula": "C<sub>7</sub>H<sub>4</sub>Cl<sub>2</sub>O<sub>4</sub>S",
        "Molecular Mass": "255.08",
        "Melting Point": "170-172 °C"
    }
}