{
    "cas_no": "82834-12-6",
    "key_name": "<em>N</em>-[(1<em>S</em>)-1-Carboxyethyl]-<span class=\"text-smallcaps\">L</span>-norvaline 1-ethyl ester",
    "cn_name": "N-[(S)-乙氧羰基-1-丁基]-(S)-丙氨酸;",
    "alternate_name": "<span class=\"text-smallcaps\">L</span>-Norvaline, <em>N</em>-[(1<em>S</em>)-1-carboxyethyl]-, 1-ethyl ester;<span class=\"text-smallcaps\">L</span>-Norvaline, <em>N</em>-(1-carboxyethyl)-, 1-ethyl ester, (<em>S</em>)-;<em>N</em>-[(1<em>S</em>)-1-Carboxyethyl]-<span class=\"text-smallcaps\">L</span>-norvaline 1-ethyl ester",
    "duplicated_cas_no": "116308-23-7;861143-71-7",
    "SMILES": "[C@@H](N[C@H](C(O)=O)C)(C(OCC)=O)CCC",
    "meta_data": {
        "InChI": "InChI=1S/C10H19NO4/c1-4-6-8(10(14)15-5-2)11-7(3)9(12)13/h7-8,11H,4-6H2,1-3H3,(H,12,13)/t7-,8-/m0/s1",
        "InChIKey": null,
        "Canonical SMILES": "O=C(O)C(NC(C(=O)OCC)CCC)C",
        "Molecular Formula": "C<sub>10</sub>H<sub>19</sub>NO<sub>4</sub>",
        "Molecular Mass": "217.26",
        "Melting Point": "148 °C"
    }
}