{
    "cas_no": "50906-77-9",
    "key_name": "3,3′-Dithiobis[propanoic acid] 1,1′-dihydrazide",
    "cn_name": null,
    "alternate_name": "Propanoic acid, 3,3′-dithiobis-, 1,1′-dihydrazide;Propanoic acid, 3,3′-dithiobis-, dihydrazide;3,3′-Dithiobis[propanoic acid] 1,1′-dihydrazide;Dithiodipropionic acid dihydrazide;3,3′-Dithiobis(propanoic dihydrazide);3,3′-Dithiobis(propionic hydrazide);3,3′-Dithiodipropionic acid dihydrazide;Dithiopropionate dihydrazide",
    "duplicated_cas_no": "",
    "SMILES": "C(CCSSCCC(NN)=O)(NN)=O",
    "meta_data": {
        "InChI": "InChI=1S/C6H14N4O2S2/c7-9-5(11)1-3-13-14-4-2-6(12)10-8/h1-4,7-8H2,(H,9,11)(H,10,12)",
        "InChIKey": null,
        "Canonical SMILES": "O=C(NN)CCSSCCC(=O)NN",
        "Molecular Formula": "C<sub>6</sub>H<sub>14</sub>N<sub>4</sub>O<sub>2</sub>S<sub>2</sub>",
        "Molecular Mass": "238.33",
        "Melting Point": "128 °C"
    }
}