{
    "cas_no": "103-94-6",
    "key_name": "2-[(4-Nitrophenyl)amino]-2-oxoacetic acid",
    "cn_name": "4-硝基苯基肟酸;",
    "alternate_name": "Acetic acid, 2-[(4-nitrophenyl)amino]-2-oxo-;Oxanilic acid, 4′-nitro-;Acetic acid, [(4-nitrophenyl)amino]oxo-;2-[(4-Nitrophenyl)amino]-2-oxoacetic acid;<em>N</em>-(4-Nitrophenyl)oxamic acid;4′-Nitrooxanilic acid;NSC 57783;[(4-Nitrophenyl)amino]oxoacetic acid",
    "duplicated_cas_no": "",
    "SMILES": "N(C(C(O)=O)=O)C1=CC=C(N(=O)=O)C=C1",
    "meta_data": {
        "InChI": "InChI=1S/C8H6N2O5/c11-7(8(12)13)9-5-1-3-6(4-2-5)10(14)15/h1-4H,(H,9,11)(H,12,13)",
        "InChIKey": null,
        "Canonical SMILES": "O=C(O)C(=O)NC1=CC=C(C=C1)N(=O)=O",
        "Molecular Formula": "C<sub>8</sub>H<sub>6</sub>N<sub>2</sub>O<sub>5</sub>",
        "Molecular Mass": "210.14",
        "Melting Point": "210 °C (decomp)"
    }
}