{
    "cas_no": "340-06-7",
    "key_name": "(+)-2,2,2-Trifluoro-1-phenylethanol",
    "cn_name": null,
    "alternate_name": "Benzenemethanol, α-(trifluoromethyl)-, (α<em>S</em>)-;Benzyl alcohol, α-(trifluoromethyl)-, (<em>S</em>)-(+)-;Benzenemethanol, α-(trifluoromethyl)-, (<em>S</em>)-;(α<em>S</em>)-α-(Trifluoromethyl)benzenemethanol;(<em>S</em>)-(+)-2,2,2-Trifluoro-1-phenylethanol;(+)-1-Phenyl-2,2,2-trifluoroethanol;(+)-2,2,2-Trifluoro-1-phenylethanol;(+)-α-(Trifluoromethyl) benzyl alcohol;(<em>S</em>)-α-(Trifluoromethyl)benzyl alcohol;(<em>S</em>)-1-Phenyl-2,2,2-trifluoroethanol;(1S)-2,2,2-Trifluoro-1-phenylethan-1-ol;(<em>S</em>)-(+)-1-Phenyl-2,2,2-trifluoroethanol;(1S)-2,2,2-Trifluoro-1-phenylethanol;(<em>S</em>)-(+)-α-(Trifluoromethyl)benzyl alcohol",
    "duplicated_cas_no": "",
    "SMILES": "[C@H](C(F)(F)F)(O)C1=CC=CC=C1",
    "meta_data": {
        "InChI": "InChI=1S/C8H7F3O/c9-8(10,11)7(12)6-4-2-1-3-5-6/h1-5,7,12H/t7-/m0/s1",
        "InChIKey": null,
        "Canonical SMILES": "FC(F)(F)C(O)C=1C=CC=CC1",
        "Molecular Formula": "C<sub>8</sub>H<sub>7</sub>F<sub>3</sub>O",
        "Molecular Mass": "176.14",
        "Boiling Point": "83-85 °C @ Press: 14 Torr"
    }
}