{
    "cas_no": "593-90-8",
    "key_name": "Trimethylboron",
    "cn_name": null,
    "alternate_name": "Borane, trimethyl-;Trimethylborane;Trimethylboron",
    "duplicated_cas_no": "2583506-20-9",
    "SMILES": "B(C)(C)C",
    "meta_data": {
        "InChI": "InChI=1S/C3H9B/c1-4(2)3/h1-3H3",
        "InChIKey": null,
        "Canonical SMILES": "B(C)(C)C",
        "Molecular Formula": "C<sub>3</sub>H<sub>9</sub>B",
        "Molecular Mass": "55.91",
        "Boiling Point": "-20.2 °C",
        "Melting Point": "-161.5 °C"
    }
}