{
    "cas_no": "53008-65-4",
    "key_name": "Methyl 2,3,4-tri-<em>O</em>-benzyl-α-<span class=\"text-smallcaps\">D</span>-glucopyranoside",
    "cn_name": "甲基-2,3,4-三-O-苄基-alpha-D-吡喃葡萄糖苷;",
    "alternate_name": "α-<span class=\"text-smallcaps\">D</span>-Glucopyranoside, methyl 2,3,4-tris-<em>O</em>-(phenylmethyl)-;Methyl 2,3,4-tris-<em>O</em>-(phenylmethyl)-α-<span class=\"text-smallcaps\">D</span>-glucopyranoside;Methyl 2,3,4-tri-<em>O</em>-benzyl-α-<span class=\"text-smallcaps\">D</span>-glucopyranoside",
    "duplicated_cas_no": "",
    "SMILES": "O(CC1=CC=CC=C1)[C@H]2[C@H](OCC3=CC=CC=C3)[C@@H](CO)O[C@H](OC)[C@@H]2OCC4=CC=CC=C4",
    "meta_data": {
        "InChI": "InChI=1S/C28H32O6/c1-30-28-27(33-20-23-15-9-4-10-16-23)26(32-19-22-13-7-3-8-14-22)25(24(17-29)34-28)31-18-21-11-5-2-6-12-21/h2-16,24-29H,17-20H2,1H3/t24-,25-,26+,27-,28+/m1/s1",
        "InChIKey": null,
        "Canonical SMILES": "OCC1OC(OC)C(OCC=2C=CC=CC2)C(OCC=3C=CC=CC3)C1OCC=4C=CC=CC4",
        "Molecular Formula": "C<sub>28</sub>H<sub>32</sub>O<sub>6</sub>",
        "Molecular Mass": "464.55",
        "Melting Point": "68-69.5 °C"
    }
}