{
    "cas_no": "7449-74-3",
    "key_name": "<em>N</em>-Methyl-<em>N</em>-(trimethylsilyl)acetamide",
    "cn_name": "N-甲基-N-(三甲基硅基)乙酰胺;N-甲基-N-三甲硅基乙酰胺;",
    "alternate_name": "Acetamide, <em>N</em>-methyl-<em>N</em>-(trimethylsilyl)-;<em>N</em>-Methyl-<em>N</em>-(trimethylsilyl)acetamide;<em>N</em>-Trimethylsilyl-<em>N</em>-methylacetamide;NSC 142435",
    "duplicated_cas_no": "",
    "SMILES": "N([Si](C)(C)C)(C(C)=O)C",
    "meta_data": {
        "InChI": "InChI=1S/C6H15NOSi/c1-6(8)7(2)9(3,4)5/h1-5H3",
        "InChIKey": null,
        "Canonical SMILES": "O=C(N(C)[Si](C)(C)C)C",
        "Molecular Formula": "C<sub>6</sub>H<sub>15</sub>NOSi",
        "Molecular Mass": "145.27",
        "Boiling Point": "48-49 °C @ Press: 11 Torr",
        "Density": "0.9009 g/cm³ @ Temp: 20 °C"
    }
}