{
    "cas_no": "689-11-2",
    "key_name": "<em>sec</em>-Butylurea",
    "cn_name": "仲丁基脲;N-(1-甲基丙基)脲;",
    "alternate_name": "Urea, <em>N</em>-(1-methylpropyl)-;Urea, <em>sec</em>-butyl-;Urea, (1-methylpropyl)-;<em>N</em>-(1-Methylpropyl)urea;<em>sec</em>-Butylurea;<em>N</em>-<em>sec</em>-Butylurea;NSC 27458;(Butan-2-yl)urea",
    "duplicated_cas_no": "116668-60-1",
    "SMILES": "C(NC(N)=O)(CC)C",
    "meta_data": {
        "InChI": "InChI=1S/C5H12N2O/c1-3-4(2)7-5(6)8/h4H,3H2,1-2H3,(H3,6,7,8)",
        "InChIKey": null,
        "Canonical SMILES": "O=C(N)NC(C)CC",
        "Molecular Formula": "C<sub>5</sub>H<sub>12</sub>N<sub>2</sub>O",
        "Molecular Mass": "116.16",
        "Melting Point": "165-166 °C",
        "Density": "1.1256 g/cm³"
    }
}