{
    "cas_no": "4501-31-9",
    "key_name": "<em>cis</em>-<em>p</em>-Coumaric acid",
    "cn_name": "4-羟基肉桂酸;",
    "alternate_name": "2-Propenoic acid, 3-(4-hydroxyphenyl)-, (2<em>Z</em>)-;Cinnamic acid, <em>p</em>-hydroxy-, (<em>Z</em>)-;2-Propenoic acid, 3-(4-hydroxyphenyl)-, (<em>Z</em>)-;(2<em>Z</em>)-3-(4-Hydroxyphenyl)-2-propenoic acid;<em>cis</em>-<em>p</em>-Coumaric acid;<em>cis</em>-<em>p</em>-Hydroxycinnamic acid;<em>cis</em>-4-Hydroxycinnamic acid;(<em>Z</em>)-<em>p</em>-Coumaric acid",
    "duplicated_cas_no": "",
    "SMILES": "C(=C\\C(O)=O)\\C1=CC=C(O)C=C1",
    "meta_data": {
        "InChI": "InChI=1S/C9H8O3/c10-8-4-1-7(2-5-8)3-6-9(11)12/h1-6,10H,(H,11,12)/b6-3-",
        "InChIKey": null,
        "Canonical SMILES": "O=C(O)C=CC1=CC=C(O)C=C1",
        "Molecular Formula": "C<sub>9</sub>H<sub>8</sub>O<sub>3</sub>",
        "Molecular Mass": "164.16",
        "Melting Point": "130-131 °C"
    }
}