{
    "cas_no": "402-64-2",
    "key_name": "1-(Dichloromethyl)-3-fluorobenzene",
    "cn_name": null,
    "alternate_name": "Benzene, 1-(dichloromethyl)-3-fluoro-;Toluene, α,α-dichloro-<em>m</em>-fluoro-;1-(Dichloromethyl)-3-fluorobenzene;<em>m</em>-Fluorobenzal chloride;NSC 60715",
    "duplicated_cas_no": "",
    "SMILES": "C(Cl)(Cl)C1=CC(F)=CC=C1",
    "meta_data": {
        "InChI": "InChI=1S/C7H5Cl2F/c8-7(9)5-2-1-3-6(10)4-5/h1-4,7H",
        "InChIKey": null,
        "Canonical SMILES": "FC1=CC=CC(=C1)C(Cl)Cl",
        "Molecular Formula": "C<sub>7</sub>H<sub>5</sub>Cl<sub>2</sub>F",
        "Molecular Mass": "179.02",
        "Boiling Point": "195-197 °C @ Press: 756 Torr",
        "Density": "1.3441 g/cm³ @ Temp: 20 °C"
    }
}