{
    "cas_no": "18699-02-0",
    "key_name": "Actarit",
    "cn_name": "阿克他利;4-乙酰胺基苯乙酸;",
    "alternate_name": "Benzeneacetic acid, 4-(acetylamino)-;Acetic acid, (<em>p</em>-acetamidophenyl)-;4-(Acetylamino)benzeneacetic acid;4-(<em>N</em>-Acetylamino)phenylacetic acid;<em>p</em>-Acetamidophenylacetic acid;MS 932;4-(Acetylamino)phenylacetic acid;Actarit;(4-Acetamidophenyl)acetic acid;NSC 170317;2-(4-Acetamidophenyl)acetic acid",
    "duplicated_cas_no": "",
    "SMILES": "C(C(O)=O)C1=CC=C(NC(C)=O)C=C1",
    "meta_data": {
        "InChI": "InChI=1S/C10H11NO3/c1-7(12)11-9-4-2-8(3-5-9)6-10(13)14/h2-5H,6H2,1H3,(H,11,12)(H,13,14)",
        "InChIKey": null,
        "Canonical SMILES": "O=C(O)CC1=CC=C(C=C1)NC(=O)C",
        "Molecular Formula": "C<sub>10</sub>H<sub>11</sub>NO<sub>3</sub>",
        "Molecular Mass": "193.20",
        "Melting Point": "173 °C"
    }
}