{
    "cas_no": "18786-24-8",
    "key_name": "(+)-Serpentine",
    "cn_name": null,
    "alternate_name": "Oxayohimbanium, 3,4,5,6,16,17-hexadehydro-16-(methoxycarbonyl)-19-methyl-, (19α)-;Serpentine (alkaloid);Serpentine;Indolo[2,3-<em>a</em>]pyrano[3,4-<em>g</em>]quinolizin-6-ium, oxayohimbanium deriv.;(19α)-3,4,5,6,16,17-Hexadehydro-16-(methoxycarbonyl)-19-methyloxayohimbanium;3,4,5,6-Tetradehydroajmalicine;(+)-Serpentine;NSC 407301",
    "duplicated_cas_no": "",
    "SMILES": "C(OC)(=O)C=1[C@]2(CC=3C4=C(C=5C(N4)=CC=CC5)C=C[N+]3C[C@@]2([C@H](C)OC1)[H])[H]",
    "meta_data": {
        "InChI": "InChI=1S/C21H20N2O3/c1-12-16-10-23-8-7-14-13-5-3-4-6-18(13)22-20(14)19(23)9-15(16)17(11-26-12)21(24)25-2/h3-8,11-12,15-16H,9-10H2,1-2H3/p+1/t12-,15-,16+/m0/s1",
        "InChIKey": null,
        "Canonical SMILES": "O=C(OC)C1=COC(C)C2C[N+]=3C=CC=4C=5C=CC=CC5NC4C3CC12",
        "Molecular Formula": "C<sub>21</sub>H<sub>21</sub>N<sub>2</sub>O<sub>3</sub>",
        "Molecular Mass": "",
        "Melting Point": "156 °C (decomp)"
    }
}