{
    "cas_no": "541-50-4",
    "key_name": "Acetoacetic acid",
    "cn_name": "3-氧丁酸;",
    "alternate_name": "Butanoic acid, 3-oxo-;Acetoacetic acid;3-Oxobutanoic acid;Acetic acid, acetyl-;Acetonecarboxylic acid;Acetylacetic acid;Diacetic acid;3-Oxobutyric acid;3-Ketobutyric acid;3-Acetonedicarboxylic acid",
    "duplicated_cas_no": "161879-89-6",
    "SMILES": "C(C(C)=O)C(O)=O",
    "meta_data": {
        "InChI": "InChI=1S/C4H6O3/c1-3(5)2-4(6)7/h2H2,1H3,(H,6,7)",
        "InChIKey": null,
        "Canonical SMILES": "O=C(O)CC(=O)C",
        "Molecular Formula": "C<sub>4</sub>H<sub>6</sub>O<sub>3</sub>",
        "Molecular Mass": "102.09",
        "Boiling Point": "80 °C @ Press: 20 Torr",
        "Melting Point": "36.5 °C",
        "Density": "1.07 g/cm³ @ Temp: 25 °C"
    }
}