{
    "cas_no": "533-49-3",
    "key_name": "<span class=\"text-smallcaps\">L</span>-Erythrose",
    "cn_name": "L-赤藓糖;",
    "alternate_name": "Butanal, 2,3,4-trihydroxy-, (2<em>S</em>,3<em>S</em>)-;Erythrose, <span class=\"text-smallcaps\">L</span>-;Butanal, 2,3,4-trihydroxy-, [<em>S</em>-(<em>R</em>*,<em>R</em>*)]-;(2<em>S</em>,3<em>S</em>)-2,3,4-Trihydroxybutanal;<span class=\"text-smallcaps\">L</span>-Erythrose;(+)-Erythrose;<span class=\"text-smallcaps\">L</span>-(+)-Erythrose",
    "duplicated_cas_no": "",
    "SMILES": "[C@@H]([C@@H](C=O)O)(CO)O",
    "meta_data": {
        "InChI": "InChI=1S/C4H8O4/c5-1-3(7)4(8)2-6/h1,3-4,6-8H,2H2/t3-,4+/m1/s1",
        "InChIKey": null,
        "Canonical SMILES": "O=CC(O)C(O)CO",
        "Molecular Formula": "C<sub>4</sub>H<sub>8</sub>O<sub>4</sub>",
        "Molecular Mass": "120.10",
        "Melting Point": "&lt;25 °C"
    }
}