{
    "cas_no": "874-90-8",
    "key_name": "4-Methoxybenzonitrile",
    "cn_name": "4-甲氧基氰苯;对甲氧基苯甲腈;4-甲氧基苯甲腈;",
    "alternate_name": "Benzonitrile, 4-methoxy-;<em>p</em>-Anisonitrile;4-Methoxybenzonitrile;<em>p</em>-Cyanoanisole;<em>p</em>-Methoxybenzonitrile;<em>p</em>-Methoxyphenyl cyanide;<em>p</em>-Anisylnitrile;4-Cyanoanisole;4-Cyanomethoxybenzene;<em>p</em>-Cyanophenyl methyl ether;1-Cyano-4-methoxybenzene;<em>p</em>-Methoxycyanobenzene;NSC 3777;NSC 71539;<em>p</em>-Anisolecarbonitrile;Aubepinenitrile;4-Methoxybenzenenitrile",
    "duplicated_cas_no": "721942-48-9",
    "SMILES": "C(#N)C1=CC=C(OC)C=C1",
    "meta_data": {
        "InChI": "InChI=1S/C8H7NO/c1-10-8-4-2-7(6-9)3-5-8/h2-5H,1H3",
        "InChIKey": null,
        "Canonical SMILES": "N#CC1=CC=C(OC)C=C1",
        "Molecular Formula": "C<sub>8</sub>H<sub>7</sub>NO",
        "Molecular Mass": "133.15",
        "Boiling Point": "256.5 °C",
        "Melting Point": "61.5 °C"
    }
}