{
    "cas_no": "2510-23-8",
    "key_name": "3-Ethynylpyridine",
    "cn_name": "3-乙炔基吡啶;3-乙炔基吡啶;",
    "alternate_name": "Pyridine, 3-ethynyl-;3-Ethynylpyridine;3-Pyridylacetylene;3-Pyridylethyne;3-Pyridinylacetylene;3-Pyridinylethyne",
    "duplicated_cas_no": "",
    "SMILES": "C(#C)C=1C=CC=NC1",
    "meta_data": {
        "InChI": "InChI=1S/C7H5N/c1-2-7-4-3-5-8-6-7/h1,3-6H",
        "InChIKey": null,
        "Canonical SMILES": "C#CC=1C=NC=CC1",
        "Molecular Formula": "C<sub>7</sub>H<sub>5</sub>N",
        "Molecular Mass": "103.12",
        "Boiling Point": "87 °C @ Press: 30 Torr",
        "Melting Point": "34-35 °C"
    }
}