{
    "cas_no": "36255-44-4",
    "key_name": "3-Bromo-1,1-dimethoxypropane",
    "cn_name": "3-溴丙醛二甲基乙缩醛;1-溴-3,3-二甲氧基丙烷;",
    "alternate_name": "Propane, 3-bromo-1,1-dimethoxy-;3-Bromo-1,1-dimethoxypropane;3-Bromopropionaldehyde dimethylacetal;1-Bromo-3,3-dimethoxypropane;3-Bromopropanal dimethyl acetal;3,3-Dimethoxypropyl bromide;1,1-Dimethoxy-3-bromopropane",
    "duplicated_cas_no": "",
    "SMILES": "C(CCBr)(OC)OC",
    "meta_data": {
        "InChI": "InChI=1S/C5H11BrO2/c1-7-5(8-2)3-4-6/h5H,3-4H2,1-2H3",
        "InChIKey": null,
        "Canonical SMILES": "BrCCC(OC)OC",
        "Molecular Formula": "C<sub>5</sub>H<sub>11</sub>BrO<sub>2</sub>",
        "Molecular Mass": "183.04",
        "Boiling Point": "58-60 °C @ Press: 17 Torr",
        "Density": "1.341 g/cm³ @ Temp: 18 °C"
    }
}