{
    "cas_no": "145-14-2",
    "key_name": "20α-Dihydroprogesterone",
    "cn_name": "20α-羟基黄体酮;20α-羟基黄体酮;20α-羟基孕甾酮；20α-羟基-4-妊烯-3-酮；4-妊烯-20α-醇-3-酮;",
    "alternate_name": "Pregn-4-en-3-one, 20-hydroxy-, (20<em>S</em>)-;Pregn-4-en-3-one, 20α-hydroxy-;(20<em>S</em>)-20-Hydroxypregn-4-en-3-one;20α-Dihydroprogesterone;20α-Hydroxydihydroprogesterone;20α-Hydroxy-Δ<sup>4</sup>-pregnen-3-one;20α-Hydroxy-4-pregnen-3-one;20α-Hydroxyprogesterone;Pregn-4-ene-20α-ol-3-one;Δ<sup>4</sup>-Pregnene-20α-ol-3-one;Pregn-4-en-20α-ol-3-one;20α-Progerol;20α-Hydroxypregn-4-en-3-one;Progesterol-20α;4-Pregnen-3-one-20α-ol;20(<em>S</em>)-Hydroxyprogesterone;Δ<sup>4</sup>-Pregnen-20α-ol-3-one;NSC 68630;20α-Hydroxy-pregn-4-ene-3-one",
    "duplicated_cas_no": "",
    "SMILES": "C[C@@]12[C@@]3([C@]([C@]4([C@](C)(CC3)[C@@]([C@H](C)O)(CC4)[H])[H])(CCC1=CC(=O)CC2)[H])[H]",
    "meta_data": {
        "InChI": "InChI=1S/C21H32O2/c1-13(22)17-6-7-18-16-5-4-14-12-15(23)8-10-20(14,2)19(16)9-11-21(17,18)3/h12-13,16-19,22H,4-11H2,1-3H3/t13-,16-,17+,18-,19-,20-,21+/m0/s1",
        "InChIKey": null,
        "Canonical SMILES": "O=C1C=C2CCC3C(CCC4(C)C(CCC34)C(O)C)C2(C)CC1",
        "Molecular Formula": "C<sub>21</sub>H<sub>32</sub>O<sub>2</sub>",
        "Molecular Mass": "316.48",
        "Melting Point": "171-172 °C",
        "Density": "1.13 g/cm³"
    }
}