{
    "cas_no": "33404-34-1",
    "key_name": "Cellotriose",
    "cn_name": null,
    "alternate_name": "<span class=\"text-smallcaps\">D</smallcap>-Glucose, <em>O</em>-β-<smallcap>D</smallcap>-glucopyranosyl-(1→4)-<em>O</em>-β-<smallcap>D</span>-glucopyranosyl-(1→4)-;Cellotriose;<em>O</em>-β-<span class=\"text-smallcaps\">D</smallcap>-Glucopyranosyl-(1→4)-<em>O</em>-β-<smallcap>D</smallcap>-glucopyranosyl-(1→4)-<smallcap>D</span>-glucose;<span class=\"text-smallcaps\">D</smallcap>-Glucosyl-β-(1→4)-<smallcap>D</smallcap>-glucosyl-β-(1→4)-<smallcap>D</span>-glucose",
    "duplicated_cas_no": "2640-12-2",
    "SMILES": "O([C@@H]1[C@@H](CO)O[C@@H](O[C@@H]([C@@H]([C@H](C=O)O)O)[C@@H](CO)O)[C@H](O)[C@H]1O)[C@@H]2O[C@H](CO)[C@@H](O)[C@H](O)[C@H]2O",
    "meta_data": {
        "InChI": "InChI=1S/C18H32O16/c19-1-5(23)9(25)15(6(24)2-20)33-18-14(30)12(28)16(8(4-22)32-18)34-17-13(29)11(27)10(26)7(3-21)31-17/h1,5-18,20-30H,2-4H2/t5-,6+,7+,8+,9+,10+,11-,12+,13+,14+,15+,16+,17-,18-/m0/s1",
        "InChIKey": null,
        "Canonical SMILES": "O=CC(O)C(O)C(OC1OC(CO)C(OC2OC(CO)C(O)C(O)C2O)C(O)C1O)C(O)CO",
        "Molecular Formula": "C<sub>18</sub>H<sub>32</sub>O<sub>16</sub>",
        "Molecular Mass": "504.44",
        "Melting Point": "238 °C (decomp)"
    }
}