{
    "cas_no": "7045-71-8",
    "key_name": "2-Methylundecane",
    "cn_name": "2-甲基十一烷;2-甲基十一烷;",
    "alternate_name": "Undecane, 2-methyl-;2-Methylundecane",
    "duplicated_cas_no": "",
    "SMILES": "C(CCCCCC)CCC(C)C",
    "meta_data": {
        "InChI": "InChI=1S/C12H26/c1-4-5-6-7-8-9-10-11-12(2)3/h12H,4-11H2,1-3H3",
        "InChIKey": null,
        "Canonical SMILES": "CCCCCCCCCC(C)C",
        "Molecular Formula": "C<sub>12</sub>H<sub>26</sub>",
        "Molecular Mass": "170.33",
        "Boiling Point": "70-75 °C @ Press: 20 Torr",
        "Density": "0.7473 g/cm³ @ Temp: 20 °C"
    }
}