{
    "cas_no": "547-44-4",
    "key_name": "Sulfacarbamide",
    "cn_name": null,
    "alternate_name": "Benzenesulfonamide, 4-amino-<em>N</em>-(aminocarbonyl)-;Urea, sulfanilyl-;4-Amino-<em>N</em>-(aminocarbonyl)benzenesulfonamide;1-(4-Aminobenzenesulfonyl)urea;Euvernil;Sulfanilcarbamid;<em>N</em>-Sulfanilcarbamide;Sulfanilylurea;Urosulfan;Sulfacarbamide;Sulfaurea;Uramid;Urosulfane;A 435;Urenil;<em>p</em>-Aminobenzenesulfonylurea;Uractyl;Sulphaurea;[(<em>p</em>-Aminophenyl)sulfonyl]urea;Sulphacarbamide;NSC 78438Q;NSC 78438;A 435 (amide);(4-Aminophenyl)sulfonylurea;(4-Aminobenzenesulfonyl)urea",
    "duplicated_cas_no": "804443-71-8",
    "SMILES": "S(NC(N)=O)(=O)(=O)C1=CC=C(N)C=C1",
    "meta_data": {
        "InChI": "InChI=1S/C7H9N3O3S/c8-5-1-3-6(4-2-5)14(12,13)10-7(9)11/h1-4H,8H2,(H3,9,10,11)",
        "InChIKey": null,
        "Canonical SMILES": "O=C(N)NS(=O)(=O)C1=CC=C(N)C=C1",
        "Molecular Formula": "C<sub>7</sub>H<sub>9</sub>N<sub>3</sub>O<sub>3</sub>S",
        "Molecular Mass": "215.23",
        "Melting Point": "147 °C (decomp)"
    }
}