{
    "cas_no": "142-71-2",
    "key_name": "Cupric acetate",
    "cn_name": "醋酸铜;乙酸铜;",
    "alternate_name": "Acetic acid, copper(2+) salt (2:1);Acetic acid, copper(2+) salt;Copper acetate (Cu(OAc)<sub>2</sub>);Acetic acid cupric salt;Copper diacetate;Crystallized verdigris;Crystals of Venus;Cupric acetate;Neutral verdigris;Copper(II) acetate;Copper acetate;Copper(2+) acetate;Copper(2+) diacetate;Cupric diacetate;Copper acetate (Cu(C<sub>2</sub>H<sub>3</sub>O<sub>2</sub>)<sub>2</sub>);Venus copper;Copper acetate (Cu(MeCO2)2);Ploss Blue;Copper, bis(acetato-κ<em>O</em>)-",
    "duplicated_cas_no": "302-07-8;1135443-52-5;1219596-32-3;2113640-19-8;2379410-97-4",
    "SMILES": "C(C)(O)=O.[Cu]",
    "meta_data": {
        "InChI": "InChI=1S/C2H4O2.Cu/c1-2(3)4;/h1H3,(H,3,4);",
        "InChIKey": null,
        "Canonical SMILES": "[Cu].O=C(O)C",
        "Molecular Formula": "C<sub>2</sub>H<sub>4</sub>O<sub>2</sub>.<sup>1</sup>/<sub>2</sub>Cu",
        "Molecular Mass": "",
        "Melting Point": "232 °C"
    }
}