{
    "cas_no": "5122-82-7",
    "key_name": "Adamantyl bromomethyl ketone",
    "cn_name": "1-金刚烷溴甲基酮;1-金刚烷基溴甲基酮;1-金刚烷溴甲基酮;1-金刚烷基溴甲酮;",
    "alternate_name": "Ethanone, 2-bromo-1-tricyclo[3.3.1.1<sup>3,7</sup>]dec-1-yl-;Ketone, 1-adamantyl bromomethyl;2-Bromo-1-tricyclo[3.3.1.1<sup>3,7</sup>]dec-1-ylethanone;1-Adamantyl bromomethyl ketone;1-(Bromoacetyl)adamantane;1-(1-Adamantyl)-2-bromoethanone;Adamantyl bromomethyl ketone;2-Bromo-(1-tricyclo[3.3.1.1<sup>3,7</sup>]dec-1-yl)ethanone;1-(Adamantan-1-yl)-2-bromoethanone;1-(1-Adamantyl)-2-bromoethan-1-one;1-Bromo-2-(1-adamantyl)ethan-2-one;1-(Adamantan-1-yl)-2-bromoethan-1-one",
    "duplicated_cas_no": "",
    "SMILES": "C(CBr)(=O)C12CC3CC(C1)CC(C2)C3",
    "meta_data": {
        "InChI": "InChI=1S/C12H17BrO/c13-7-11(14)12-4-8-1-9(5-12)3-10(2-8)6-12/h8-10H,1-7H2",
        "InChIKey": null,
        "Canonical SMILES": "O=C(CBr)C12CC3CC(CC(C3)C1)C2",
        "Molecular Formula": "C<sub>12</sub>H<sub>17</sub>BrO",
        "Molecular Mass": "257.17",
        "Melting Point": "78-79 °C"
    }
}