{
    "cas_no": "194490-14-7",
    "key_name": "5-Chloro-1<em>H</em>-indole-3-carbonitrile",
    "cn_name": null,
    "alternate_name": "1<em>H</em>-Indole-3-carbonitrile, 5-chloro-;5-Chloro-1<em>H</em>-indole-3-carbonitrile",
    "duplicated_cas_no": "",
    "SMILES": "C(#N)C=1C=2C(NC1)=CC=C(Cl)C2",
    "meta_data": {
        "InChI": "InChI=1S/C9H5ClN2/c10-7-1-2-9-8(3-7)6(4-11)5-12-9/h1-3,5,12H",
        "InChIKey": null,
        "Canonical SMILES": "N#CC1=CNC=2C=CC(Cl)=CC12",
        "Molecular Formula": "C<sub>9</sub>H<sub>5</sub>ClN<sub>2</sub>",
        "Molecular Mass": "176.60",
        "Melting Point": "198-199 °C"
    }
}