{
    "cas_no": "557-58-4",
    "key_name": "Ximenynic acid",
    "cn_name": "西门木炔酸;西门木炔酸;",
    "alternate_name": "11-Octadecen-9-ynoic acid, (11<em>E</em>)-;11-Octadecen-9-ynoic acid, (<em>E</em>)-;Ximenynic acid;11-Octadecen-9-ynoic acid, <em>trans</em>-;(11<em>E</em>)-11-Octadecen-9-ynoic acid;Santalbic acid;<em>trans</em>-11-Octadecen-9-ynoic acid;Ximeninic acid",
    "duplicated_cas_no": "",
    "SMILES": "C(CC#C/C=C/CCCCCC)CCCCCC(O)=O",
    "meta_data": {
        "InChI": "InChI=1S/C18H30O2/c1-2-3-4-5-6-7-8-9-10-11-12-13-14-15-16-17-18(19)20/h7-8H,2-6,11-17H2,1H3,(H,19,20)/b8-7+",
        "InChIKey": null,
        "Canonical SMILES": "O=C(O)CCCCCCCC#CC=CCCCCCC",
        "Molecular Formula": "C<sub>18</sub>H<sub>30</sub>O<sub>2</sub>",
        "Molecular Mass": "278.43",
        "Melting Point": "40-41 °C"
    }
}