{
    "cas_no": "2181-42-2",
    "key_name": "Trimethylsulfonium iodide",
    "cn_name": "三甲基碘化锍;",
    "alternate_name": "Sulfonium, trimethyl-, iodide (1:1);Sulfonium, trimethyl-, iodide;Trimethylsulfonium iodide;Trimethylsulphonium iodide;Trimethyl-λ[3]-sulfane hydroiodide",
    "duplicated_cas_no": "1232233-67-8",
    "SMILES": "[S+](C)(C)C.[I-]",
    "meta_data": {
        "InChI": "InChI=1S/C3H9S.HI/c1-4(2)3;/h1-3H3;1H/q+1;/p-1",
        "InChIKey": null,
        "Canonical SMILES": "[I-].[S+](C)(C)C",
        "Molecular Formula": "C<sub>3</sub>H<sub>9</sub>S.I",
        "Molecular Mass": "",
        "Melting Point": "203-207 °C"
    }
}