{
    "cas_no": "399-31-5",
    "key_name": "2′-Fluoroacetanilide",
    "cn_name": "2-氟乙酰苯胺;2-氟-N-乙酰基苯胺;",
    "alternate_name": "Acetamide, <em>N</em>-(2-fluorophenyl)-;Acetanilide, 2′-fluoro-;<em>N</em>-(2-Fluorophenyl)acetamide;2′-Fluoroacetanilide;<em>o</em>-Fluoroacetanilide;NSC 51783",
    "duplicated_cas_no": "",
    "SMILES": "N(C(C)=O)C1=C(F)C=CC=C1",
    "meta_data": {
        "InChI": "InChI=1S/C8H8FNO/c1-6(11)10-8-5-3-2-4-7(8)9/h2-5H,1H3,(H,10,11)",
        "InChIKey": null,
        "Canonical SMILES": "O=C(NC=1C=CC=CC1F)C",
        "Molecular Formula": "C<sub>8</sub>H<sub>8</sub>FNO",
        "Molecular Mass": "153.15",
        "Boiling Point": "141 °C",
        "Melting Point": "78 °C"
    }
}