{
    "cas_no": "2057-84-3",
    "key_name": "<em>n</em>-Valeraldehyde 2,4-dinitrophenylhydrazone",
    "cn_name": "戊醛2,4-二硝基苯肼;戊醛-DNPH;",
    "alternate_name": "Pentanal, 2-(2,4-dinitrophenyl)hydrazone;Valeraldehyde, (2,4-dinitrophenyl)hydrazone;Pentanal, (2,4-dinitrophenyl)hydrazone;<em>n</em>-Valeraldehyde 2,4-dinitrophenylhydrazone;NSC 403613",
    "duplicated_cas_no": "",
    "SMILES": "N(=O)(=O)C1=C(NN=CCCCC)C=CC(N(=O)=O)=C1",
    "meta_data": {
        "InChI": "InChI=1S/C11H14N4O4/c1-2-3-4-7-12-13-10-6-5-9(14(16)17)8-11(10)15(18)19/h5-8,13H,2-4H2,1H3",
        "InChIKey": null,
        "Canonical SMILES": "O=N(=O)C1=CC=C(NN=CCCCC)C(=C1)N(=O)=O",
        "Molecular Formula": "C<sub>11</sub>H<sub>14</sub>N<sub>4</sub>O<sub>4</sub>",
        "Molecular Mass": "266.25",
        "Melting Point": "105 °C"
    }
}