{
    "cas_no": "13992-26-2",
    "key_name": "β-<span class=\"text-smallcaps\">D</span>-Galactopyranosyl azide, 2,3,4,6-tetraacetate",
    "cn_name": null,
    "alternate_name": "β-<span class=\"text-smallcaps\">D</span>-Galactopyranosyl azide, 2,3,4,6-tetraacetate;Galactopyranosyl azide, 2,3,4,6-tetraacetate, β-<span class=\"text-smallcaps\">D</span>-;2,3,4,6-Tetra-<em>O</em>-acetyl-β-<span class=\"text-smallcaps\">D</span>-galactopyranosyl azide;1-Azido-β-<span class=\"text-smallcaps\">D</span>-galactopyranoside peracetate",
    "duplicated_cas_no": "862160-91-6",
    "SMILES": "O(C(C)=O)[C@H]1[C@@H](OC(C)=O)[C@@H](COC(C)=O)O[C@@H](N=[N+]=[N-])[C@@H]1OC(C)=O",
    "meta_data": {
        "InChI": "InChI=1S/C14H19N3O9/c1-6(18)22-5-10-11(23-7(2)19)12(24-8(3)20)13(25-9(4)21)14(26-10)16-17-15/h10-14H,5H2,1-4H3/t10-,11+,12+,13-,14-/m1/s1",
        "InChIKey": null,
        "Canonical SMILES": "[N-]=[N+]=NC1OC(COC(=O)C)C(OC(=O)C)C(OC(=O)C)C1OC(=O)C",
        "Molecular Formula": "C<sub>14</sub>H<sub>19</sub>N<sub>3</sub>O<sub>9</sub>",
        "Molecular Mass": "",
        "Melting Point": "96 °C"
    }
}