{
    "cas_no": "150321-92-9",
    "key_name": "2,5-Dioxo-1-pyrrolidinyl 7-methoxy-2-oxo-2<em>H</em>-1-benzopyran-3-carboxylate",
    "cn_name": null,
    "alternate_name": "2<em>H</em>-1-Benzopyran-3-carboxylic acid, 7-methoxy-2-oxo-, 2,5-dioxo-1-pyrrolidinyl ester;2,5-Pyrrolidinedione, 1-[[(7-methoxy-2-oxo-2<em>H</em>-1-benzopyran-3-yl)carbonyl]oxy]-;2,5-Dioxo-1-pyrrolidinyl 7-methoxy-2-oxo-2<em>H</em>-1-benzopyran-3-carboxylate;Succinimidyl 7-methoxy-2<em>H</em>-chromene-3-carboxylate;7-Methoxycoumarin-3-carboxylic acid succinimidyl ester;(2,5-Dioxopyrrolidin-1-yl) 7-methoxy-2-oxochromene-3-carboxylate;2,5-Dioxopyrrolidin-1-yl 7-methoxy-2-oxo-2<em>H</em>-chromene-3-carboxylate",
    "duplicated_cas_no": "",
    "SMILES": "C(ON1C(=O)CCC1=O)(=O)C2=CC=3C(OC2=O)=CC(OC)=CC3",
    "meta_data": {
        "InChI": "InChI=1S/C15H11NO7/c1-21-9-3-2-8-6-10(14(19)22-11(8)7-9)15(20)23-16-12(17)4-5-13(16)18/h2-3,6-7H,4-5H2,1H3",
        "InChIKey": null,
        "Canonical SMILES": "O=C1OC=2C=C(OC)C=CC2C=C1C(=O)ON3C(=O)CCC3=O",
        "Molecular Formula": "C<sub>15</sub>H<sub>11</sub>NO<sub>7</sub>",
        "Molecular Mass": "317.25",
        "Melting Point": "182-184 °C"
    }
}