{
    "cas_no": "86393-33-1",
    "key_name": "Fluoroquinolonic acid",
    "cn_name": null,
    "alternate_name": "3-Quinolinecarboxylic acid, 7-chloro-1-cyclopropyl-6-fluoro-1,4-dihydro-4-oxo-;7-Chloro-1-cyclopropyl-6-fluoro-1,4-dihydro-4-oxo-3-quinolinecarboxylic acid;7-Chloro-1-cyclopropyl-6-fluoro-1,4-dihydro-4-oxoquinoline-3-carboxylic acid;1-Cyclopropyl-6-fluoro-7-chloro-1,4-dihydro-4-oxo-3-quinolinecarboxylic acid;7-Chloro-1-cyclopropyl-6-fluoro-3-carboxy-1,4-dihydro-4-oxoquinoline;1-Cyclopropyl-7-chloro-6-fluoro-1,4-dihydro-4-oxoquinoline-3-carboxylic acid;1-Cyclopropyl-1,4-dihydro-4-oxo-6-fluoro-7-chloro-3-quinolinecarboxylic acid;1-Cyclopropyl-6-fluoro-7-chloro-1,4-dihydro-4-oxoquinolin-3-carboxylic acid;7-Chloro-1-cyclopropyl-6-fluoroquinolin-4-one-3-carboxylic acid;Fluoroquinolonic acid;7-Chloro-1-cyclopropyl-6-fluoro-4-oxo-1,4-dihydro-3-quinolinecarboxylic acid",
    "duplicated_cas_no": "94498-72-3;178489-04-8",
    "SMILES": "C(O)(=O)C1=CN(C=2C(C1=O)=CC(F)=C(Cl)C2)C3CC3",
    "meta_data": {
        "InChI": "InChI=1S/C13H9ClFNO3/c14-9-4-11-7(3-10(9)15)12(17)8(13(18)19)5-16(11)6-1-2-6/h3-6H,1-2H2,(H,18,19)",
        "InChIKey": null,
        "Canonical SMILES": "O=C(O)C1=CN(C2=CC(Cl)=C(F)C=C2C1=O)C3CC3",
        "Molecular Formula": "C<sub>13</sub>H<sub>9</sub>ClFNO<sub>3</sub>",
        "Molecular Mass": "281.67",
        "Melting Point": "245-246 °C"
    }
}