{
    "cas_no": "2530-86-1",
    "key_name": "(Dimethylaminopropyl)trimethoxysilane",
    "cn_name": "(N,N-二甲氨基丙基)三甲氧基硅烷;(N,N-二甲基-3-氨丙基)三甲氧基硅烷;",
    "alternate_name": "1-Propanamine, <em>N</em>,<em>N</em>-dimethyl-3-(trimethoxysilyl)-;Propylamine, <em>N</em>,<em>N</em>-dimethyl-3-(trimethoxysilyl)-;<em>N</em>,<em>N</em>-Dimethyl-3-(trimethoxysilyl)-1-propanamine;[3-(Dimethylamino)propyl]trimethoxysilane;<em>N</em>,<em>N</em>-Dimethyl-3-(trimethoxysilyl)propylamine;(<em>N</em>,<em>N</em>-Dimethyl-3-aminopropyl)trimethoxysilane;<em>N</em>,<em>N</em>-Dimethyl-3-(trimethoxysilyl)-1-propylamine;Dimethyl[3-(trimethoxysilyl)propyl]amine;<em>N</em>,<em>N</em>-Dimethylaminopropyltrimethoxysilane;(Dimethylaminopropyl)trimethoxysilane;3-(<em>N</em>,<em>N</em>-Dimethylamino)propyltrimethoxysilane;SID 3547.0;SID 3547",
    "duplicated_cas_no": "",
    "SMILES": "[Si](CCCN(C)C)(OC)(OC)OC",
    "meta_data": {
        "InChI": "InChI=1S/C8H21NO3Si/c1-9(2)7-6-8-13(10-3,11-4)12-5/h6-8H2,1-5H3",
        "InChIKey": null,
        "Canonical SMILES": "O(C)[Si](OC)(OC)CCCN(C)C",
        "Molecular Formula": "C<sub>8</sub>H<sub>21</sub>NO<sub>3</sub>Si",
        "Molecular Mass": "207.34",
        "Boiling Point": "106 °C @ Press: 30 Torr",
        "Density": "0.948 g/cm³ @ Temp: 25 °C"
    }
}