{
    "cas_no": "2494-56-6",
    "key_name": "Butyrylcholine iodide",
    "cn_name": null,
    "alternate_name": "Ethanaminium, <em>N</em>,<em>N</em>,<em>N</em>-trimethyl-2-(1-oxobutoxy)-, iodide (1:1);Choline, iodide, butyrate;Ethanaminium, <em>N</em>,<em>N</em>,<em>N</em>-trimethyl-2-(1-oxobutoxy)-, iodide;Butyric acid, ester with choline iodide;Butyrylcholine iodide;Butyrocholine iodide",
    "duplicated_cas_no": "",
    "SMILES": "C([N+](C)(C)C)COC(CCC)=O.[I-]",
    "meta_data": {
        "InChI": "InChI=1S/C9H20NO2.HI/c1-5-6-9(11)12-8-7-10(2,3)4;/h5-8H2,1-4H3;1H/q+1;/p-1",
        "InChIKey": null,
        "Canonical SMILES": "[I-].O=C(OCC[N+](C)(C)C)CCC",
        "Molecular Formula": "C<sub>9</sub>H<sub>20</sub>NO<sub>2</sub>.I",
        "Molecular Mass": "",
        "Melting Point": "89-90 °C"
    }
}