{
    "cas_no": "103577-66-8",
    "key_name": "3-Methyl-4-(2,2,2-trifluoroethoxy)-2-pyridinemethanol",
    "cn_name": "2-羟甲基-3-甲基-4-(2,2,2-三氟乙氧基)吡啶;",
    "alternate_name": "2-Pyridinemethanol, 3-methyl-4-(2,2,2-trifluoroethoxy)-;3-Methyl-4-(2,2,2-trifluoroethoxy)-2-pyridinemethanol;2-Hydroxymethyl-3-methyl-4-(2,2,2-trifluoroethoxy)pyridine;[3-Methyl-4-(2,2,2-trifluoroethoxy)pyridin-2-yl]methanol;2-Hydroxymethyl-3-methyl-4-trifluoroethoxypyridine",
    "duplicated_cas_no": "",
    "SMILES": "O(CC(F)(F)F)C=1C(C)=C(CO)N=CC1",
    "meta_data": {
        "InChI": "InChI=1S/C9H10F3NO2/c1-6-7(4-14)13-3-2-8(6)15-5-9(10,11)12/h2-3,14H,4-5H2,1H3",
        "InChIKey": null,
        "Canonical SMILES": "FC(F)(F)COC=1C=CN=C(C1C)CO",
        "Molecular Formula": "C<sub>9</sub>H<sub>10</sub>F<sub>3</sub>NO<sub>2</sub>",
        "Molecular Mass": "221.18",
        "Melting Point": "93-94 °C"
    }
}