{
    "cas_no": "97-97-2",
    "key_name": "Chloroacetaldehyde dimethyl acetal",
    "cn_name": "2-氯乙醛缩二甲醇;二甲基氯乙缩醛;",
    "alternate_name": "Ethane, 2-chloro-1,1-dimethoxy-;Acetaldehyde, chloro-, dimethyl acetal;2-Chloro-1,1-dimethoxyethane;Chloroacetaldehyde dimethyl acetal;2-Chloroacetaldehyde dimethyl acetal;1-Chloro-2,2-dimethoxyethane;1,1-Dimethoxy-2-chloroethane;NSC 60388;2,2-Dimethoxyethyl chloride",
    "duplicated_cas_no": "",
    "SMILES": "C(CCl)(OC)OC",
    "meta_data": {
        "InChI": "InChI=1S/C4H9ClO2/c1-6-4(3-5)7-2/h4H,3H2,1-2H3",
        "InChIKey": null,
        "Canonical SMILES": "ClCC(OC)OC",
        "Molecular Formula": "C<sub>4</sub>H<sub>9</sub>ClO<sub>2</sub>",
        "Molecular Mass": "124.57",
        "Boiling Point": "127.5 °C",
        "Density": "1.0980 g/cm³ @ Temp: 20 °C"
    }
}