{
    "cas_no": "6049-54-3",
    "key_name": "β-Amino-4-hydroxybenzenepropanoic acid",
    "cn_name": null,
    "alternate_name": "Benzenepropanoic acid, β-amino-4-hydroxy-;Hydrocinnamic acid, β-amino-<em>p</em>-hydroxy-;β-Amino-4-hydroxybenzenepropanoic acid;β-Tyrosine;3-Amino-3-(4-hydroxyphenyl)propanoic acid;3-Amino-3-(4-hydroxyphenyl)propionic acid",
    "duplicated_cas_no": "152786-26-0",
    "SMILES": "C(CC(O)=O)(N)C1=CC=C(O)C=C1",
    "meta_data": {
        "InChI": "InChI=1S/C9H11NO3/c10-8(5-9(12)13)6-1-3-7(11)4-2-6/h1-4,8,11H,5,10H2,(H,12,13)",
        "InChIKey": null,
        "Canonical SMILES": "O=C(O)CC(N)C1=CC=C(O)C=C1",
        "Molecular Formula": "C<sub>9</sub>H<sub>11</sub>NO<sub>3</sub>",
        "Molecular Mass": "181.19",
        "Melting Point": "173.5-174.5 °C"
    }
}