{
    "cas_no": "4282-32-0",
    "key_name": "2,5-Dimethyl 2,5-furandicarboxylate",
    "cn_name": null,
    "alternate_name": "2,5-Furandicarboxylic acid, 2,5-dimethyl ester;2,5-Furandicarboxylic acid, dimethyl ester;2,5-Dimethyl 2,5-furandicarboxylate;Dimethyl 2,5-furandicarboxylate;NSC 191940;Dimethyl 2,5-furanedicarboxylate;Dimethyl furandicarboxylate;2,5-Furandicarboxylate dimethyl ester;2,5-Dimethyl furan-2,5-dicarboxylate",
    "duplicated_cas_no": "",
    "SMILES": "C(OC)(=O)C=1OC(C(OC)=O)=CC1",
    "meta_data": {
        "InChI": "InChI=1S/C8H8O5/c1-11-7(9)5-3-4-6(13-5)8(10)12-2/h3-4H,1-2H3",
        "InChIKey": null,
        "Canonical SMILES": "O=C(OC)C=1OC(=CC1)C(=O)OC",
        "Molecular Formula": "C<sub>8</sub>H<sub>8</sub>O<sub>5</sub>",
        "Molecular Mass": "184.15",
        "Boiling Point": "140-145 °C @ Press: 10 Torr",
        "Melting Point": "112 °C"
    }
}