{
    "cas_no": "13943-58-3",
    "key_name": "Potassium ferrocyanide",
    "cn_name": "亚铁氰化钾;黄血盐钾;黄血盐;",
    "alternate_name": "Ferrate(4-), hexakis(cyano-κ<em>C</em>)-, potassium (1:4), (<em>OC</em>-6-11)-;Ferrate(4-), hexacyano-, tetrapotassium;Ferrate(4-), hexakis(cyano-<em>C</em>)-, tetrapotassium, (<em>OC</em>-6-11)-;Ferrate(4-), hexakis(cyano-κ<em>C</em>)-, tetrapotassium, (<em>OC</em>-6-11)-;Potassium hexacyanoferrate(II);Tetrapotassium hexacyanoferrate;Potassium ferrocyanate;Tetrapotassium ferrocyanide;Tetrapotassium hexacyanoferrate(4-);Potassium ferrocyanide;Potassium ferrocyanide (K<sub>4</sub>Fe(CN)<sub>6</sub>);Tetrapotassium hexacyanoferrate(II);Potassium hexacyanoferrate (K<sub>4</sub>Fe(CN)<sub>6</sub>);Potassium hexacyanoferrate(4-);Iron potassium cyanide (FeK<sub>4</sub>(CN)<sub>6</sub>);ZJ 15",
    "duplicated_cas_no": "1273-71-8",
    "SMILES": "[Fe+2]([C-]#N)([C-]#N)([C-]#N)([C-]#N)([C-]#N)[C-]#N.[K+]",
    "meta_data": {
        "InChI": "InChI=1S/6CN.Fe.4K/c6*1-2;;;;;/q6*-1;+2;4*+1",
        "InChIKey": null,
        "Canonical SMILES": "[K+].N#[C-][Fe+2]([C-]#N)([C-]#N)([C-]#N)([C-]#N)[C-]#N",
        "Molecular Formula": "C<sub>6</sub>FeN<sub>6</sub>.4K",
        "Molecular Mass": "",
        "Boiling Point": "104.2 °C",
        "Density": "1.886 g/cm³"
    }
}