{
    "cas_no": "6938-68-7",
    "key_name": "1-Methylhydrazinecarbothioamide",
    "cn_name": "2-甲基氨基硫脲;",
    "alternate_name": "Hydrazinecarbothioamide, 1-methyl-;Semicarbazide, 2-methyl-3-thio-;1-Methylhydrazinecarbothioamide;2-Methyl-3-thiosemicarbazide;NSC 53998;<sup>2</sup>N-Methylthiosemicarbazide;1-Amino-1-methylthiourea",
    "duplicated_cas_no": "",
    "SMILES": "C(N(C)N)(N)=S",
    "meta_data": {
        "InChI": "InChI=1S/C2H7N3S/c1-5(4)2(3)6/h4H2,1H3,(H2,3,6)",
        "InChIKey": null,
        "Canonical SMILES": "S=C(N)N(N)C",
        "Molecular Formula": "C<sub>2</sub>H<sub>7</sub>N<sub>3</sub>S",
        "Molecular Mass": "105.16",
        "Melting Point": "183-184 °C"
    }
}