{
    "cas_no": "5018-41-7",
    "key_name": "6-Chloro-5-methoxy-4-pyrimidinamine",
    "cn_name": "4-氨基-6-氯-5-甲氧基嘧啶;",
    "alternate_name": "4-Pyrimidinamine, 6-chloro-5-methoxy-;Pyrimidine, 4-amino-6-chloro-5-methoxy-;6-Chloro-5-methoxy-4-pyrimidinamine;4-Amino-5-methoxy-6-chloropyrimidine;4-Amino-6-chloro-5-methoxypyrimidine;6-Chloro-5-methoxypyrimidin-4-amine",
    "duplicated_cas_no": "",
    "SMILES": "O(C)C=1C(Cl)=NC=NC1N",
    "meta_data": {
        "InChI": "InChI=1S/C5H6ClN3O/c1-10-3-4(6)8-2-9-5(3)7/h2H,1H3,(H2,7,8,9)",
        "InChIKey": null,
        "Canonical SMILES": "ClC1=NC=NC(N)=C1OC",
        "Molecular Formula": "C<sub>5</sub>H<sub>6</sub>ClN<sub>3</sub>O",
        "Molecular Mass": "159.57",
        "Melting Point": "176-178 °C"
    }
}