{
    "cas_no": "3524-32-1",
    "key_name": "1,3-Dimethyl-1<em>H</em>-pyrazol-5-amine",
    "cn_name": null,
    "alternate_name": "1<em>H</em>-Pyrazol-5-amine, 1,3-dimethyl-;Pyrazole, 5-amino-1,3-dimethyl-;1,3-Dimethyl-1<em>H</em>-pyrazol-5-amine;5-Amino-1,3-dimethylpyrazole;5-Amino-1,3-dimethyl-1<em>H</em>-pyrazole;1,3-Dimethyl-5-aminopyrazole;1,3-Dimethyl-5-pyrazolamine;1,3-Dimethyl-5-amino-1<em>H</em>-pyrazole;2,5-Dimethyl-2<em>H</em>-pyrazol-3-ylamine;3-Amino-2,5-dimethyl-2<em>H</em>-pyrazole;(1,3-Dimethyl-1<em>H</em>-pyrazol-5-yl)amine;2,5-Dimethylpyrazol-3-amine",
    "duplicated_cas_no": "56070-20-3",
    "SMILES": "NC=1N(C)N=C(C)C1",
    "meta_data": {
        "InChI": "InChI=1S/C5H9N3/c1-4-3-5(6)8(2)7-4/h3H,6H2,1-2H3",
        "InChIKey": null,
        "Canonical SMILES": "N1=C(C=C(N)N1C)C",
        "Molecular Formula": "C<sub>5</sub>H<sub>9</sub>N<sub>3</sub>",
        "Molecular Mass": "111.15",
        "Boiling Point": "121-123 °C @ Press: 9 Torr",
        "Melting Point": "78-79 °C"
    }
}