{
    "cas_no": "35161-71-8",
    "key_name": "<em>N</em>-Methylpropargylamine",
    "cn_name": null,
    "alternate_name": "2-Propyn-1-amine, <em>N</em>-methyl-;2-Propynylamine, <em>N</em>-methyl-;<em>N</em>-Methylpropargylamine;<em>N</em>-Methyl-<em>N</em>-propargylamine;<em>N</em>-Methyl-2-propynylamine;<em>N</em>-Methyl-<em>N</em>-2-propynylamine;Methyl(propargyl)amine;<em>N</em>-Methyl-2-propyn-1-amine;Methyl(2-propynyl)amine;NSC 56897;3-Methylaminoprop-1-yne;<em>N</em>-(2-Propynyl)methylamine;Methyl(prop-2-yn-1-yl)amine",
    "duplicated_cas_no": "",
    "SMILES": "C(C#C)NC",
    "meta_data": {
        "InChI": "InChI=1S/C4H7N/c1-3-4-5-2/h1,5H,4H2,2H3",
        "InChIKey": null,
        "Canonical SMILES": "C#CCNC",
        "Molecular Formula": "C<sub>4</sub>H<sub>7</sub>N",
        "Molecular Mass": "69.11",
        "Boiling Point": "83 °C",
        "Melting Point": "141 °C"
    }
}