{
    "cas_no": "117671-01-9",
    "key_name": "3-(Ethylsulfonyl)-2-pyridinesulfonamide",
    "cn_name": null,
    "alternate_name": "2-Pyridinesulfonamide, 3-(ethylsulfonyl)-;3-(Ethylsulfonyl)-2-pyridinesulfonamide;2-(Aminosulfonyl)-3-(ethylsulfonyl)pyridine",
    "duplicated_cas_no": "",
    "SMILES": "S(CC)(=O)(=O)C1=C(S(N)(=O)=O)N=CC=C1",
    "meta_data": {
        "InChI": "InChI=1S/C7H10N2O4S2/c1-2-14(10,11)6-4-3-5-9-7(6)15(8,12)13/h3-5H,2H2,1H3,(H2,8,12,13)",
        "InChIKey": null,
        "Canonical SMILES": "O=S(=O)(N)C1=NC=CC=C1S(=O)(=O)CC",
        "Molecular Formula": "C<sub>7</sub>H<sub>10</sub>N<sub>2</sub>O<sub>4</sub>S<sub>2</sub>",
        "Molecular Mass": "250.30",
        "Melting Point": "211-212.5 °C"
    }
}