{
    "cas_no": "3895-92-9",
    "key_name": "Chelerythrine, chloride",
    "cn_name": "盐酸白屈菜红碱;白菜屈红碱氯化物;白屈菜赤碱氯化物;",
    "alternate_name": "[1,3]Benzodioxolo[5,6-<em>c</em>]phenanthridinium, 1,2-dimethoxy-12-methyl-, chloride (1:1);Chelerythrine, chloride;[1,3]Benzodioxolo[5,6-<em>c</em>]phenanthridinium, 1,2-dimethoxy-12-methyl-, chloride;Chelerythrinium chloride;NSC 646662;Broussonpapyrine chloride;Chelerythrine chloride",
    "duplicated_cas_no": "6004-02-0;84282-43-9",
    "SMILES": "C[N+]=1C=2C(C=3C(C1)=C(OC)C(OC)=CC3)=CC=C4C2C=C5C(=C4)OCO5.[Cl-]",
    "meta_data": {
        "InChI": "InChI=1S/C21H18NO4.ClH/c1-22-10-16-13(6-7-17(23-2)21(16)24-3)14-5-4-12-8-18-19(26-11-25-18)9-15(12)20(14)22;/h4-10H,11H2,1-3H3;1H/q+1;/p-1",
        "InChIKey": null,
        "Canonical SMILES": "[Cl-].O(C=1C=CC2=C3C=CC=4C=C5OCOC5=CC4C3=[N+](C=C2C1OC)C)C",
        "Molecular Formula": "C<sub>21</sub>H<sub>18</sub>NO<sub>4</sub>.Cl",
        "Molecular Mass": "",
        "Melting Point": "205-206 °C"
    }
}