{
    "cas_no": "75-68-3",
    "key_name": "1-Chloro-1,1-difluoroethane",
    "cn_name": "1-氯-1,1-二氟乙烷;氟里昂-142b;",
    "alternate_name": "Ethane, 1-chloro-1,1-difluoro-;1-Chloro-1,1-difluoroethane;α-Chloroethylidene fluoride;Genetron 101;Genetron 142b;1,1-Difluoro-1-chloroethane;FC 142b;Freon 142b;R 142b;Dymel 142;F 142b;CFC 142b;FKW 142b;Fron 142b;HCFC 142b;HFA 142b;Daiflon 142b;Solkane 142b;Propellant 142B",
    "duplicated_cas_no": "65762-25-6",
    "SMILES": "C(C)(Cl)(F)F",
    "meta_data": {
        "InChI": "InChI=1S/C2H3ClF2/c1-2(3,4)5/h1H3",
        "InChIKey": null,
        "Canonical SMILES": "FC(F)(Cl)C",
        "Molecular Formula": "C<sub>2</sub>H<sub>3</sub>ClF<sub>2</sub>",
        "Molecular Mass": "100.50",
        "Boiling Point": "-9.7 °C",
        "Melting Point": "-130.8 °C",
        "Density": "1 x 10<sup>-6</sup> g/cm³ @ Temp: 25 °C"
    }
}