{
    "cas_no": "99-04-7",
    "key_name": "3-Methylbenzoic acid",
    "cn_name": "间甲基苯甲酸;",
    "alternate_name": "Benzoic acid, 3-methyl-;<em>m</em>-Toluic acid;3-Methylbenzoic acid;<em>m</em>-Methylbenzoic acid;β-Methylbenzoic acid;m-Toluic acid;NSC 2214",
    "duplicated_cas_no": "",
    "SMILES": "C(O)(=O)C1=CC(C)=CC=C1",
    "meta_data": {
        "InChI": "InChI=1S/C8H8O2/c1-6-3-2-4-7(5-6)8(9)10/h2-5H,1H3,(H,9,10)",
        "InChIKey": null,
        "Canonical SMILES": "O=C(O)C1=CC=CC(=C1)C",
        "Molecular Formula": "C<sub>8</sub>H<sub>8</sub>O<sub>2</sub>",
        "Molecular Mass": "136.15",
        "Boiling Point": "148-150 °C @ Press: 15-16 Torr",
        "Melting Point": "108.7 °C"
    }
}