{
    "cas_no": "587-85-9",
    "key_name": "Diphenylmercury",
    "cn_name": "二苯基汞;",
    "alternate_name": "Mercury, diphenyl-;Diphenylmercury;Benzene, mercuriodi-;NSC 23990",
    "duplicated_cas_no": "1337-09-3",
    "SMILES": "[Hg](C1=CC=CC=C1)C2=CC=CC=C2",
    "meta_data": {
        "InChI": "InChI=1S/2C6H5.Hg/c2*1-2-4-6-5-3-1;/h2*1-5H;",
        "InChIKey": null,
        "Canonical SMILES": "[Hg](C=1C=CC=CC1)C=2C=CC=CC2",
        "Molecular Formula": "C<sub>12</sub>H<sub>10</sub>Hg",
        "Molecular Mass": "",
        "Melting Point": "125 °C",
        "Density": "1.916 g/cm³ @ Temp: 144 °C"
    }
}