{
    "cas_no": "78-40-0",
    "key_name": "Triethyl phosphate",
    "cn_name": "磷酸三乙酯;三乙基磷酸酯;",
    "alternate_name": "Phosphoric acid, triethyl ester;Ethyl phosphate;Triethyl phosphate;TEP;Triethoxyphosphine oxide;Levagard TEP;NSC 2677;Fyrol TEP;Levagard TEP-Z;SP 0724;Tri-<em>n</em>-ethyl phosphate;Disflamoll TEP;FHZ 7265",
    "duplicated_cas_no": "",
    "SMILES": "P(OCC)(OCC)(OCC)=O",
    "meta_data": {
        "InChI": "InChI=1S/C6H15O4P/c1-4-8-11(7,9-5-2)10-6-3/h4-6H2,1-3H3",
        "InChIKey": null,
        "Canonical SMILES": "O=P(OCC)(OCC)OCC",
        "Molecular Formula": "C<sub>6</sub>H<sub>15</sub>O<sub>4</sub>P",
        "Molecular Mass": "182.15",
        "Boiling Point": "215-216 °C",
        "Melting Point": "-56.4 °C",
        "Density": "1.0725 g/cm³ @ Temp: 19 °C"
    }
}