{
    "cas_no": "4490-81-7",
    "key_name": "Hydroxylamine, <em>O</em>-(1-methylethyl)-, hydrochloride (1:1)",
    "cn_name": null,
    "alternate_name": "Hydroxylamine, <em>O</em>-(1-methylethyl)-, hydrochloride (1:1);Hydroxylamine, <em>O</em>-isopropyl-, hydrochloride;Hydroxylamine, <em>O</em>-(1-methylethyl)-, hydrochloride;Isopropoxyamine, hydrochloride;<em>O</em>-Isopropylhydroxylamine hydrochloride;<em>N</em>-Isopropoxyamine hydrochloride;<em>O</em>-(1-Methylethyl)hydroxylamine hydrochloride;2-(Aminooxy)propane hydrochloride;Isopropyloxyamine hydrochloride",
    "duplicated_cas_no": "",
    "SMILES": "C(ON)(C)C.Cl",
    "meta_data": {
        "InChI": "InChI=1S/C3H9NO.ClH/c1-3(2)5-4;/h3H,4H2,1-2H3;1H",
        "InChIKey": null,
        "Canonical SMILES": "Cl.O(N)C(C)C",
        "Molecular Formula": "C<sub>3</sub>H<sub>9</sub>NO.ClH",
        "Molecular Mass": "",
        "Melting Point": "75-76 °C"
    }
}