{
    "cas_no": "54016-70-5",
    "key_name": "3-Ethyl-5-(2-hydroxyethyl)-4-methylthiazolium bromide",
    "cn_name": "3-乙基-5-(2-羟乙基)-4-甲基噻唑溴化物;",
    "alternate_name": "Thiazolium, 3-ethyl-5-(2-hydroxyethyl)-4-methyl-, bromide (1:1);Thiazolium, 3-ethyl-5-(2-hydroxyethyl)-4-methyl-, bromide;3-Ethyl-5-(2-hydroxyethyl)-4-methylthiazolium bromide;3-Ethyl-5-(2-hydroxyethyl)-4-methyl-1,3-thiazol-3-ium bromide",
    "duplicated_cas_no": "",
    "SMILES": "C(CO)C1=C(C)[N+](CC)=CS1.[Br-]",
    "meta_data": {
        "InChI": "InChI=1S/C8H14NOS.BrH/c1-3-9-6-11-8(4-5-10)7(9)2;/h6,10H,3-5H2,1-2H3;1H/q+1;/p-1",
        "InChIKey": null,
        "Canonical SMILES": "[Br-].OCCC=1SC=[N+](C1C)CC",
        "Molecular Formula": "C<sub>8</sub>H<sub>14</sub>NOS.Br",
        "Molecular Mass": "",
        "Melting Point": "85.0-86.5 °C"
    }
}