{
    "cas_no": "243984-11-4",
    "key_name": "Resatorvid",
    "cn_name": null,
    "alternate_name": "1-Cyclohexene-1-carboxylic acid, 6-[[(2-chloro-4-fluorophenyl)amino]sulfonyl]-, ethyl ester, (6<em>R</em>)-;TAK 242;Resatorvid",
    "duplicated_cas_no": "",
    "SMILES": "S(NC1=C(Cl)C=C(F)C=C1)(=O)(=O)[C@H]2C(C(OCC)=O)=CCCC2",
    "meta_data": {
        "InChI": "InChI=1S/C15H17ClFNO4S/c1-2-22-15(19)11-5-3-4-6-14(11)23(20,21)18-13-8-7-10(17)9-12(13)16/h5,7-9,14,18H,2-4,6H2,1H3/t14-/m1/s1",
        "InChIKey": null,
        "Canonical SMILES": "O=C(OCC)C1=CCCCC1S(=O)(=O)NC2=CC=C(F)C=C2Cl",
        "Molecular Formula": "C<sub>15</sub>H<sub>17</sub>ClFNO<sub>4</sub>S",
        "Molecular Mass": "361.82",
        "Melting Point": "54-55 °C"
    }
}