{
    "cas_no": "136-64-1",
    "key_name": "Terephthalic dihydrazide",
    "cn_name": "对二苯甲酸二肼;对苯二酸二肼;",
    "alternate_name": "1,4-Benzenedicarboxylic acid, 1,4-dihydrazide;Terephthalic acid, dihydrazide;1,4-Benzenedicarboxylic acid, dihydrazide;Terephthaloyl dihydrazide;Terephthalic hydrazide;Terephthalic acid bishydrazide;Terephthalic dihydrazide;Terephthalic acid hydrazide;Terephthaloyl hydrazide;NSC 29538;1,4-Dicarbonylphenyldihydrazide",
    "duplicated_cas_no": "",
    "SMILES": "C(NN)(=O)C1=CC=C(C(NN)=O)C=C1",
    "meta_data": {
        "InChI": "InChI=1S/C8H10N4O2/c9-11-7(13)5-1-2-6(4-3-5)8(14)12-10/h1-4H,9-10H2,(H,11,13)(H,12,14)",
        "InChIKey": null,
        "Canonical SMILES": "O=C(NN)C1=CC=C(C=C1)C(=O)NN",
        "Molecular Formula": "C<sub>8</sub>H<sub>10</sub>N<sub>4</sub>O<sub>2</sub>",
        "Molecular Mass": "194.19",
        "Melting Point": "320 °C"
    }
}