{
    "cas_no": "123536-14-1",
    "key_name": "(<em>R</em>)-(+)-3-Aminoquinuclidine dihydrochloride",
    "cn_name": null,
    "alternate_name": "1-Azabicyclo[2.2.2]octan-3-amine, hydrochloride (1:2), (3<em>R</em>)-;1-Azabicyclo[2.2.2]octan-3-amine, dihydrochloride, (<em>R</em>)-;1-Azabicyclo[2.2.2]octan-3-amine, dihydrochloride, (3<em>R</em>)-;(<em>R</em>)-(+)-3-Aminoquinuclidine dihydrochloride;(3<em>R</em>)-3-Aminoquinuclidine dihydrochloride;3-(<em>R</em>)-Aminoquinuclidine dihydrochloride;(<em>R</em>)-3-Aminoquinuclidine dihydrochloride;(R)-Quinuclidin-3-amine dihydrochloride;(3r)-Quinuclidin-3-amine dihydrochloride;(R)-(+)-3-Aminoquinuclidine dihydrochlorid",
    "duplicated_cas_no": "",
    "SMILES": "N[C@@H]1C2CCN(C1)CC2.Cl",
    "meta_data": {
        "InChI": "InChI=1S/C7H14N2.2ClH/c8-7-5-9-3-1-6(7)2-4-9;;/h6-7H,1-5,8H2;2*1H/t7-;;/m0../s1",
        "InChIKey": null,
        "Canonical SMILES": "Cl.NC1CN2CCC1CC2",
        "Molecular Formula": "C<sub>7</sub>H<sub>14</sub>N<sub>2</sub>.2ClH",
        "Molecular Mass": "",
        "Melting Point": "&gt;260 °C"
    }
}