{
    "cas_no": "16966-07-7",
    "key_name": "<span class=\"text-smallcaps\">L</span>-Threonine, <em>O</em>-(1,1-dimethylethyl)-<em>N</em>-[(phenylmethoxy)carbonyl]-, compd. with <em>N</em>-cyclohexylcyclohexanamine (1:1)",
    "cn_name": "N-苄氧羰基-O-叔丁基-L-苏氨酸二环己胺盐;",
    "alternate_name": "<span class=\"text-smallcaps\">L</span>-Threonine, <em>O</em>-(1,1-dimethylethyl)-<em>N</em>-[(phenylmethoxy)carbonyl]-, compd. with <em>N</em>-cyclohexylcyclohexanamine (1:1);Butyric acid, 3-<em>tert</em>-butoxy-2-(carboxyamino)-, 2-benzyl ester, compd. with dicyclohexylamine (1:1), <span class=\"text-smallcaps\">L</span>-;Butyric acid, 3-<em>tert</em>-butoxy-2-(carboxyamino)-, <em>N</em>-benzyl ester, compd, with dicyclohexylamine (1:1)",
    "duplicated_cas_no": "2416214-56-5",
    "SMILES": "[C@H](NC(OCC1=CC=CC=C1)=O)([C@H](OC(C)(C)C)C)C(O)=O.N(C1CCCCC1)C2CCCCC2",
    "meta_data": {
        "InChI": "InChI=1S/C16H23NO5.C12H23N/c1-11(22-16(2,3)4)13(14(18)19)17-15(20)21-10-12-8-6-5-7-9-12;1-3-7-11(8-4-1)13-12-9-5-2-6-10-12/h5-9,11,13H,10H2,1-4H3,(H,17,20)(H,18,19);11-13H,1-10H2/t11-,13+;/m1./s1",
        "InChIKey": null,
        "Canonical SMILES": "O=C(OCC=1C=CC=CC1)NC(C(=O)O)C(OC(C)(C)C)C.N(C1CCCCC1)C2CCCCC2",
        "Molecular Formula": "C<sub>16</sub>H<sub>23</sub>NO<sub>5</sub>.C<sub>12</sub>H<sub>23</sub>N",
        "Molecular Mass": "",
        "Melting Point": "133-134 °C"
    }
}