{
    "cas_no": "2388-74-1",
    "key_name": "3-Methoxythioanisole",
    "cn_name": "3-甲氧基茴香硫醚;间甲氧基茴香硫醚;",
    "alternate_name": "Benzene, 1-methoxy-3-(methylthio)-;Anisole, <em>m</em>-(methylthio)-;1-Methoxy-3-(methylthio)benzene;<em>m</em>-Anisyl methyl sulfide;3-(Methylthio)anisole;<em>m</em>-Methoxyphenyl methyl sulfide;3-Methoxythioanisole;3-(Methylthio)-1-methoxybenzene;Methyl <em>m</em>-methoxyphenyl sulfide;3-Methoxyphenyl methyl sulfide;Methyl 3-methoxyphenyl sulfide;NSC 133794;1-Methoxy-3-methylsulfanylbenzene;1-Methoxy-3-(methylsulfanyl)benzene;1-Methoxy-3-methylsulfanyl-benzene;(3-Methoxyphenyl)(methyl)sulfane",
    "duplicated_cas_no": "",
    "SMILES": "O(C)C1=CC(SC)=CC=C1",
    "meta_data": {
        "InChI": "InChI=1S/C8H10OS/c1-9-7-4-3-5-8(6-7)10-2/h3-6H,1-2H3",
        "InChIKey": null,
        "Canonical SMILES": "O(C1=CC=CC(SC)=C1)C",
        "Molecular Formula": "C<sub>8</sub>H<sub>10</sub>OS",
        "Molecular Mass": "154.23",
        "Boiling Point": "116 °C @ Press: 15 Torr"
    }
}