{
    "cas_no": "3438-52-6",
    "key_name": "5-Bromo-6-methyl-4(3<em>H</em>)-pyrimidinone",
    "cn_name": null,
    "alternate_name": "4(3<em>H</em>)-Pyrimidinone, 5-bromo-6-methyl-;4-Pyrimidinol, 5-bromo-6-methyl-;4(1<em>H</em>)-Pyrimidinone, 5-bromo-6-methyl-;5-Bromo-6-methyl-4(3<em>H</em>)-pyrimidinone",
    "duplicated_cas_no": "",
    "SMILES": "BrC1=C(C)NC=NC1=O",
    "meta_data": {
        "InChI": "InChI=1S/C5H5BrN2O/c1-3-4(6)5(9)8-2-7-3/h2H,1H3,(H,7,8,9)",
        "InChIKey": null,
        "Canonical SMILES": "O=C1N=CNC(=C1Br)C",
        "Molecular Formula": "C<sub>5</sub>H<sub>5</sub>BrN<sub>2</sub>O",
        "Molecular Mass": "189.01",
        "Melting Point": "269 °C"
    }
}