{
    "cas_no": "6304-16-1",
    "key_name": "4-Pyridylacetone",
    "cn_name": "1-(4-吡啶基)丙酮;",
    "alternate_name": "2-Propanone, 1-(4-pyridinyl)-;2-Propanone, 1-(4-pyridyl)-;2-Propanone, (4-pyridyl)-;1-(4-Pyridinyl)-2-propanone;4-Acetonylpyridine;4-Pyridinylacetone;Methyl 4-pyridylmethyl ketone;1-(4-Pyridyl)-2-propanone;4-Pyridylacetone;4-(2-Oxopropyl)pyridine;NSC 42613;1-(Pyridin-4-yl)propan-2-one;1-(4-Pyridyl)-acetone;1-(Pyridin-4-yl)acetone",
    "duplicated_cas_no": "",
    "SMILES": "C(C(C)=O)C=1C=CN=CC1",
    "meta_data": {
        "InChI": "InChI=1S/C8H9NO/c1-7(10)6-8-2-4-9-5-3-8/h2-5H,6H2,1H3",
        "InChIKey": null,
        "Canonical SMILES": "O=C(C)CC=1C=CN=CC1",
        "Molecular Formula": "C<sub>8</sub>H<sub>9</sub>NO",
        "Molecular Mass": "135.16",
        "Boiling Point": "76 °C @ Press: 0.1 Torr"
    }
}