{
    "cas_no": "86-55-5",
    "key_name": "1-Naphthoic acid",
    "cn_name": "1-萘甲酸;",
    "alternate_name": "1-Naphthalenecarboxylic acid;1-Naphthoic acid;Naphthalene-α-carboxylic acid;α-Naphthoic acid;1-Carboxynaphthalene;α-Naphthylcarboxylic acid;1-Naphthylcarboxylic acid;NSC 37569;1-Napthanoic acid;1-Naphthalenoic acid",
    "duplicated_cas_no": "",
    "SMILES": "C(O)(=O)C=1C2=C(C=CC1)C=CC=C2",
    "meta_data": {
        "InChI": "InChI=1S/C11H8O2/c12-11(13)10-7-3-5-8-4-1-2-6-9(8)10/h1-7H,(H,12,13)",
        "InChIKey": null,
        "Canonical SMILES": "O=C(O)C1=CC=CC=2C=CC=CC21",
        "Molecular Formula": "C<sub>11</sub>H<sub>8</sub>O<sub>2</sub>",
        "Molecular Mass": "172.18",
        "Boiling Point": "300 °C",
        "Melting Point": "161 °C"
    }
}