{
    "cas_no": "4790-81-2",
    "key_name": "7-Benzofuranol",
    "cn_name": "7-羟基苯并呋喃;",
    "alternate_name": "7-Benzofuranol;7-Hydroxybenzofuran;1-Benzofuran-7-ol",
    "duplicated_cas_no": "",
    "SMILES": "OC1=C2C(=CC=C1)C=CO2",
    "meta_data": {
        "InChI": "InChI=1S/C8H6O2/c9-7-3-1-2-6-4-5-10-8(6)7/h1-5,9H",
        "InChIKey": null,
        "Canonical SMILES": "OC1=CC=CC=2C=COC12",
        "Molecular Formula": "C<sub>8</sub>H<sub>6</sub>O<sub>2</sub>",
        "Molecular Mass": "134.13",
        "Boiling Point": "68 °C @ Press: 0.4 Torr",
        "Melting Point": "42 °C"
    }
}