{
    "cas_no": "68573-24-0",
    "key_name": "<em>N</em>-(<em>p</em>-Coumaroyl)serotonin",
    "cn_name": null,
    "alternate_name": "2-Propenamide, <em>N</em>-[2-(5-hydroxy-1<em>H</em>-indol-3-yl)ethyl]-3-(4-hydroxyphenyl)-;<em>N</em>-[2-(5-Hydroxy-1<em>H</em>-indol-3-yl)ethyl]-3-(4-hydroxyphenyl)-2-propenamide;<em>N</em>-(<em>p</em>-Coumaroyl)serotonin;NSC 369503",
    "duplicated_cas_no": "",
    "SMILES": "C(CNC(C=CC1=CC=C(O)C=C1)=O)C=2C=3C(NC2)=CC=C(O)C3",
    "meta_data": {
        "InChI": "InChI=1S/C19H18N2O3/c22-15-4-1-13(2-5-15)3-8-19(24)20-10-9-14-12-21-18-7-6-16(23)11-17(14)18/h1-8,11-12,21-23H,9-10H2,(H,20,24)",
        "InChIKey": null,
        "Canonical SMILES": "O=C(C=CC1=CC=C(O)C=C1)NCCC2=CNC=3C=CC(O)=CC32",
        "Molecular Formula": "C<sub>19</sub>H<sub>18</sub>N<sub>2</sub>O<sub>3</sub>",
        "Molecular Mass": "322.36",
        "Melting Point": "192-195 °C"
    }
}