{
    "cas_no": "424-64-6",
    "key_name": "2,2,3,3,4,4,4-Heptafluorobutyl 2-propenoate",
    "cn_name": null,
    "alternate_name": "2-Propenoic acid, 2,2,3,3,4,4,4-heptafluorobutyl ester;Acrylic acid, 2,2,3,3,4,4,4-heptafluorobutyl ester;1-Butanol, 2,2,3,3,4,4,4-heptafluoro-, acrylate;2,2,3,3,4,4,4-Heptafluorobutyl 2-propenoate;1,1-Dihydroheptafluorobutyl acrylate;1,1-Dihydroperfluorobutyl acrylate;1<em>H</em>,1<em>H</em>-Heptafluorobutyl acrylate;BF 1 (ester);α,α-Dihydroperfluorobutyl acrylate;BF 1;2,2,3,3,4,4,4-Heptafluorobutyl acrylate;2,2,3,3,4,4,4-Heptafluorobutyl prop-2-enoate",
    "duplicated_cas_no": "",
    "SMILES": "C(C(COC(C=C)=O)(F)F)(C(F)(F)F)(F)F",
    "meta_data": {
        "InChI": "InChI=1S/C7H5F7O2/c1-2-4(15)16-3-5(8,9)6(10,11)7(12,13)14/h2H,1,3H2",
        "InChIKey": null,
        "Canonical SMILES": "O=C(OCC(F)(F)C(F)(F)C(F)(F)F)C=C",
        "Molecular Formula": "C<sub>7</sub>H<sub>5</sub>F<sub>7</sub>O<sub>2</sub>",
        "Molecular Mass": "254.10",
        "Boiling Point": "43 °C @ Press: 40 Torr",
        "Density": "1.455 g/cm³ @ Temp: 20 °C"
    }
}