{
    "cas_no": "1755-51-7",
    "key_name": "Pentamethoxy Red",
    "cn_name": "五甲氧基红;&alpha;-(2,4-二甲氧基苯基)-2,4-二甲氧基-&alpha;-(2-甲氧基苯基)苯甲醇;2,2\",2,4,4\"-五甲氧基;",
    "alternate_name": "Benzenemethanol, α-(2,4-dimethoxyphenyl)-2,4-dimethoxy-α-(2-methoxyphenyl)-;Methanol, bis(2,4-dimethoxyphenyl)(<em>o</em>-methoxyphenyl)-;α-(2,4-Dimethoxyphenyl)-2,4-dimethoxy-α-(2-methoxyphenyl)benzenemethanol;2,2′,2′′,4,4′-Pentamethoxytriphenylcarbinol;Pentamethoxy Red",
    "duplicated_cas_no": "",
    "SMILES": "C(O)(C1=C(OC)C=C(OC)C=C1)(C2=C(OC)C=C(OC)C=C2)C3=C(OC)C=CC=C3",
    "meta_data": {
        "InChI": "InChI=1S/C24H26O6/c1-26-16-10-12-19(22(14-16)29-4)24(25,18-8-6-7-9-21(18)28-3)20-13-11-17(27-2)15-23(20)30-5/h6-15,25H,1-5H3",
        "InChIKey": null,
        "Canonical SMILES": "OC(C=1C=CC=CC1OC)(C2=CC=C(OC)C=C2OC)C3=CC=C(OC)C=C3OC",
        "Molecular Formula": "C<sub>24</sub>H<sub>26</sub>O<sub>6</sub>",
        "Molecular Mass": "410.46",
        "Melting Point": "146-147 °C"
    }
}