{
    "cas_no": "49609-84-9",
    "key_name": "2-Chloronicotinoyl chloride",
    "cn_name": "2-氯烟酰氯;",
    "alternate_name": "3-Pyridinecarbonyl chloride, 2-chloro-;2-Chloro-3-pyridinecarbonyl chloride;2-Chloronicotinoyl chloride;2-Chloronicotinic chloride;2-Chloronicotinyl chloride;2-Chloropyridine-3-carboxylic acid chloride;2-Chloronictinoyl chloride",
    "duplicated_cas_no": "",
    "SMILES": "C(Cl)(=O)C1=C(Cl)N=CC=C1",
    "meta_data": {
        "InChI": "InChI=1S/C6H3Cl2NO/c7-5-4(6(8)10)2-1-3-9-5/h1-3H",
        "InChIKey": null,
        "Canonical SMILES": "O=C(Cl)C1=CC=CN=C1Cl",
        "Molecular Formula": "C<sub>6</sub>H<sub>3</sub>Cl<sub>2</sub>NO",
        "Molecular Mass": "176.00",
        "Boiling Point": "98-100 °C",
        "Melting Point": "56 °C"
    }
}