{
    "cas_no": "1613-37-2",
    "key_name": "Quinoline <em>N</em>-oxide",
    "cn_name": "喹啉-N-氧化物;",
    "alternate_name": "Quinoline, 1-oxide;Quinoline <em>N</em>-oxide;Quinoline oxide;1-Oxidoquinolin-1-ium",
    "duplicated_cas_no": "",
    "SMILES": "O=N=1C2=C(C=CC1)C=CC=C2",
    "meta_data": {
        "InChI": "InChI=1S/C9H7NO/c11-10-7-3-5-8-4-1-2-6-9(8)10/h1-7H",
        "InChIKey": null,
        "Canonical SMILES": "O=N1=CC=CC=2C=CC=CC21",
        "Molecular Formula": "C<sub>9</sub>H<sub>7</sub>NO",
        "Molecular Mass": "145.16",
        "Boiling Point": "155-160 °C @ Press: 3 Torr",
        "Melting Point": "50-52 °C"
    }
}