{
    "cas_no": "10543-57-4",
    "key_name": "Tetraacetylethylenediamine",
    "cn_name": "四乙酰乙二胺;",
    "alternate_name": "Acetamide, <em>N</em>,<em>N</em>′-1,2-ethanediylbis[<em>N</em>-acetyl-;Diacetamide, <em>N</em>,<em>N</em>′-ethylenebis-;<em>N</em>,<em>N</em>′-1,2-Ethanediylbis[<em>N</em>-acetylacetamide];<em>N</em>,<em>N</em>,<em>N</em>′,<em>N</em>′-Tetraacetylethylenediamine;Tetraacetylethylenediamine;<em>N</em>,<em>N</em>′-Ethylenebis[diacetamide];Mykon ATC;Nikon A;T 0946;TAED 4303;TAED;Peractive AN;<em>N</em>,<em>N</em>′-Ethylenebis[<em>N</em>-acetylacetamide];TAED 4049;Peractive TAED;Peractive P;Warwick B 610;Peractive AP;Peractive AC;Warwick B 637;Mykon B 610;Mikon ATC;Peractive AC Blue;Peractive AC White",
    "duplicated_cas_no": "",
    "SMILES": "N(CCN(C(C)=O)C(C)=O)(C(C)=O)C(C)=O",
    "meta_data": {
        "InChI": "InChI=1S/C10H16N2O4/c1-7(13)11(8(2)14)5-6-12(9(3)15)10(4)16/h5-6H2,1-4H3",
        "InChIKey": null,
        "Canonical SMILES": "O=C(N(C(=O)C)CCN(C(=O)C)C(=O)C)C",
        "Molecular Formula": "C<sub>10</sub>H<sub>16</sub>N<sub>2</sub>O<sub>4</sub>",
        "Molecular Mass": "228.24",
        "Melting Point": "174-176 °C"
    }
}