{
    "cas_no": "93-54-9",
    "key_name": "1-Phenyl-1-propanol",
    "cn_name": "1-苯丙醇;",
    "alternate_name": "Benzenemethanol, α-ethyl-;Benzyl alcohol, α-ethyl-;α-Ethylbenzenemethanol;α-Ethylbenzyl alcohol;Felicur;Phenylchol;1-Phenylpropyl alcohol;Unichol;1-Propanol, 1-phenyl-;1-Phenyl-1-hydroxypropane;1-Phenyl-1-propanol;Phenyl ethyl carbinol;ω-Ethylbenzyl alcohol;SH 261;Ethyl phenyl carbinol;α-Hydroxypropylbenzene;Ejibil;Livonal;Phenylcholon;Fenicol;Felitrope;Bilergon;Carbicol;Choleda;Fepar;Gallenperlen;Epatoxfen;1-Phenyl-<em>n</em>-propanol;(<em>RS</em>)-1-Phenylpropan-1-ol;(±)-1-Phenyl-1-propanol;(±)-α-Ethylbenzyl alcohol;(<em>RS</em>)-1-Phenylpropanol;1-Hydroxy-1-phenylpropane;Phenycholon;Phenychol;NSC 25504;NSC 41708",
    "duplicated_cas_no": "613-86-5",
    "SMILES": "C(CC)(O)C1=CC=CC=C1",
    "meta_data": {
        "InChI": "InChI=1S/C9H12O/c1-2-9(10)8-6-4-3-5-7-8/h3-7,9-10H,2H2,1H3",
        "InChIKey": null,
        "Canonical SMILES": "OC(C=1C=CC=CC1)CC",
        "Molecular Formula": "C<sub>9</sub>H<sub>12</sub>O",
        "Molecular Mass": "136.19",
        "Boiling Point": "219 °C",
        "Density": "0.9938 g/cm³ @ Temp: 23 °C"
    }
}