{
    "cas_no": "2008-75-5",
    "key_name": "1-(2-Chloroethyl)piperidine hydrochloride",
    "cn_name": "1-(2-氯乙基)哌啶盐酸盐;",
    "alternate_name": "Piperidine, 1-(2-chloroethyl)-, hydrochloride (1:1);Piperidine, 1-(2-chloroethyl)-, hydrochloride;<em>N</em>-(β-Chloroethyl)piperidine hydrochloride;1-Chloro-2-piperidinoethane hydrochloride;2-Piperidinoethyl chloride hydrochloride;1-(2-Chloroethyl)piperidine hydrochloride;<em>N</em>-(2-Chloroethyl)piperidine hydrochloride;2-Piperidino-1-chloroethane hydrochloride;2-(Piperidin-1-yl)ethyl chloride hydrochloride;1-(2-Chloroethyl)piperidine monohydrochloride;2-(1-Piperidinyl)-1-chloroethane hydrochloride;1-(2-Chloroethyl)piperidinium chloride;1-Chloro-2-(1-piperidinyl)ethane monohydrochloride",
    "duplicated_cas_no": "",
    "SMILES": "C(CCl)N1CCCCC1.Cl",
    "meta_data": {
        "InChI": "InChI=1S/C7H14ClN.ClH/c8-4-7-9-5-2-1-3-6-9;/h1-7H2;1H",
        "InChIKey": null,
        "Canonical SMILES": "Cl.ClCCN1CCCCC1",
        "Molecular Formula": "C<sub>7</sub>H<sub>14</sub>ClN.ClH",
        "Molecular Mass": "",
        "Boiling Point": "196 °C",
        "Melting Point": "231 °C"
    }
}