{
    "cas_no": "629-14-1",
    "key_name": "Ethylene glycol diethyl ether",
    "cn_name": "乙二醇二乙醚;",
    "alternate_name": "Ethane, 1,2-diethoxy-;1,2-Diethoxyethane;Diethyl cellosolve;Ethylene glycol diethyl ether;2-Ethoxyethyl ethyl ether;Glycol diethyl ether;3,6-Dioxaoctane;DEE;Hisolve EME;Ethylene diethyl ether",
    "duplicated_cas_no": "",
    "SMILES": "C(COCC)OCC",
    "meta_data": {
        "InChI": "InChI=1S/C6H14O2/c1-3-7-5-6-8-4-2/h3-6H2,1-2H3",
        "InChIKey": null,
        "Canonical SMILES": "O(CC)CCOCC",
        "Molecular Formula": "C<sub>6</sub>H<sub>14</sub>O<sub>2</sub>",
        "Molecular Mass": "118.17",
        "Boiling Point": "119.4 °C",
        "Melting Point": "-74 °C",
        "Density": "1 x 10<sup>-6</sup> g/cm³ @ Temp: 20 °C"
    }
}