{
    "cas_no": "638-04-0",
    "key_name": "<em>cis</em>-1,3-Dimethylcyclohexane",
    "cn_name": "顺-1,3-二甲基环己烷;",
    "alternate_name": "Cyclohexane, 1,3-dimethyl-, (1<em>R</em>,3<em>S</em>)-<em>rel</em>-;Cyclohexane, 1,3-dimethyl-, <em>cis</em>-;<em>rel</em>-(1<em>R</em>,3<em>S</em>)-1,3-Dimethylcyclohexane;<em>cis</em>-1,3-Dimethylcyclohexane;1-<em>cis</em>-3-Dimethylcyclohexane;NSC 74159",
    "duplicated_cas_no": "",
    "SMILES": "C[C@H]1C[C@@H](C)CCC1",
    "meta_data": {
        "InChI": "InChI=1/C8H16/c1-7-4-3-5-8(2)6-7/h7-8H,3-6H2,1-2H3/t7-,8+",
        "InChIKey": null,
        "Canonical SMILES": "CC1CCCC(C)C1",
        "Molecular Formula": "C<sub>8</sub>H<sub>16</sub>",
        "Molecular Mass": "112.21",
        "Boiling Point": "120.1 °C",
        "Melting Point": "-75.6 °C",
        "Density": "0.772 g/cm³ @ Temp: 20 °C"
    }
}