{
    "cas_no": "28456-54-4",
    "key_name": "5,6-Dimethyl-2-thiouracil",
    "cn_name": "5,6-二甲基-2-硫代尿苷;",
    "alternate_name": "4(1<em>H</em>)-Pyrimidinone, 2,3-dihydro-5,6-dimethyl-2-thioxo-;Uracil, 5,6-dimethyl-2-thio-;2,3-Dihydro-5,6-dimethyl-2-thioxo-4(1<em>H</em>)-pyrimidinone;5,6-Dimethylthiouracil;NSC 60687;5,6-Dimethyl-2-thioxo-2,3-dihydropyrimidin-4(1<em>H</em>)-one;5,6-Dimethyl-2-thiouracil;2-Mercapto-5,6-dimethyl-pyrimidin-4-ol",
    "duplicated_cas_no": "39641-22-0",
    "SMILES": "CC1=C(C)NC(=S)NC1=O",
    "meta_data": {
        "InChI": "InChI=1S/C6H8N2OS/c1-3-4(2)7-6(10)8-5(3)9/h1-2H3,(H2,7,8,9,10)",
        "InChIKey": null,
        "Canonical SMILES": "O=C1NC(=S)NC(=C1C)C",
        "Molecular Formula": "C<sub>6</sub>H<sub>8</sub>N<sub>2</sub>OS",
        "Molecular Mass": "156.21",
        "Melting Point": "&gt;255 °C"
    }
}