{
    "cas_no": "2043-61-0",
    "key_name": "Cyclohexanecarboxaldehyde",
    "cn_name": "环己烷基甲醛;环己基甲醛;环己烷甲醛;",
    "alternate_name": "Cyclohexanecarboxaldehyde;Cyclohexanealdehyde;Cyclohexylformaldehyde;Cyclohexanal;Formylcyclohexane;Cyclohexanaldehyde;Cyclohexylcarboxaldehyde;1-Formylcyclohexane;Cyclohexanecarbaldehyde;1-Cyclohexanecarboxaldehyde;Hexahydrobenzaldehyde;Cyclohexylcarbaldehyde;Cyclohexane-1-aldehyde;NSC 68509;Cyclohexancarboxaldehyde",
    "duplicated_cas_no": "1610718-03-0",
    "SMILES": "C(=O)C1CCCCC1",
    "meta_data": {
        "InChI": "InChI=1S/C7H12O/c8-6-7-4-2-1-3-5-7/h6-7H,1-5H2",
        "InChIKey": null,
        "Canonical SMILES": "O=CC1CCCCC1",
        "Molecular Formula": "C<sub>7</sub>H<sub>12</sub>O",
        "Molecular Mass": "112.17",
        "Boiling Point": "159.3 °C",
        "Melting Point": "104-107 °C",
        "Density": "0.9235 g/cm³ @ Temp: 25 °C"
    }
}