{
    "cas_no": "2243-06-3",
    "key_name": "Androst-4-ene-3,6,17-trione",
    "cn_name": "4-雄烯三酮;雄甾-4-烯-3,6,17-三酮;",
    "alternate_name": "Androst-4-ene-3,6,17-trione;4-Androstene-3,6,17-trione;6OXO",
    "duplicated_cas_no": "",
    "SMILES": "C[C@@]12[C@@]3([C@]([C@]4([C@](C)(CC3)C(=O)CC4)[H])(CC(=O)C1=CC(=O)CC2)[H])[H]",
    "meta_data": {
        "InChI": "InChI=1S/C19H24O3/c1-18-7-5-11(20)9-15(18)16(21)10-12-13-3-4-17(22)19(13,2)8-6-14(12)18/h9,12-14H,3-8,10H2,1-2H3/t12-,13-,14-,18+,19-/m0/s1",
        "InChIKey": null,
        "Canonical SMILES": "O=C1C=C2C(=O)CC3C4CCC(=O)C4(C)CCC3C2(C)CC1",
        "Molecular Formula": "C<sub>19</sub>H<sub>24</sub>O<sub>3</sub>",
        "Molecular Mass": "300.39",
        "Melting Point": "216-217 °C"
    }
}