{
    "cas_no": "114772-55-3",
    "key_name": "4′-[[2-Butyl-4-chloro-5-(hydroxymethyl)-1<em>H</em>-imidazol-1-yl]methyl][1,1′-biphenyl]-2-carbonitrile",
    "cn_name": null,
    "alternate_name": "[1,1′-Biphenyl]-2-carbonitrile, 4′-[[2-butyl-4-chloro-5-(hydroxymethyl)-1<em>H</em>-imidazol-1-yl]methyl]-;4′-[[2-Butyl-4-chloro-5-(hydroxymethyl)-1<em>H</em>-imidazol-1-yl]methyl][1,1′-biphenyl]-2-carbonitrile;2-Butyl-4-chloro-1-[(2′-cyanobiphenyl-4-yl)methyl]-5-hydroxymethylimidazole;4′-(2-Butyl-4-chloro-5-hydroxymethyl-1<em>H</em>-imidazol-1-yl)-1,1′-biphenyl-2-carbonitrile;2-[4-[[2-Butyl-4-chloro-5-(hydroxymethyl)imidazol-1-yl]methyl]phenyl]benzonitrile",
    "duplicated_cas_no": "929038-13-1",
    "SMILES": "C(N1C(CCCC)=NC(Cl)=C1CO)C2=CC=C(C=C2)C3=C(C#N)C=CC=C3",
    "meta_data": {
        "InChI": "InChI=1S/C22H22ClN3O/c1-2-3-8-21-25-22(23)20(15-27)26(21)14-16-9-11-17(12-10-16)19-7-5-4-6-18(19)13-24/h4-7,9-12,27H,2-3,8,14-15H2,1H3",
        "InChIKey": null,
        "Canonical SMILES": "N#CC=1C=CC=CC1C=2C=CC(=CC2)CN3C(=NC(Cl)=C3CO)CCCC",
        "Molecular Formula": "C<sub>22</sub>H<sub>22</sub>ClN<sub>3</sub>O",
        "Molecular Mass": "379.88",
        "Melting Point": "158-159 °C"
    }
}