{
    "cas_no": "3360-41-6",
    "key_name": "Benzenebutanol",
    "cn_name": "4-苯基丁醇;4-苯基-1-丁醇;",
    "alternate_name": "Benzenebutanol;1-Butanol, 4-phenyl-;4-Phenylbutanol;Phenylbutyl alcohol;4-Phenyl-1-butanol;4-Phenylbutyl alcohol;4-Phenyl-1-butyl alcohol;NSC 71383;Phenbutanol;4-(4-Hydroxybutyl)phenyl acetate",
    "duplicated_cas_no": "",
    "SMILES": "C(CCCO)C1=CC=CC=C1",
    "meta_data": {
        "InChI": "InChI=1S/C10H14O/c11-9-5-4-8-10-6-2-1-3-7-10/h1-3,6-7,11H,4-5,8-9H2",
        "InChIKey": null,
        "Canonical SMILES": "OCCCCC=1C=CC=CC1",
        "Molecular Formula": "C<sub>10</sub>H<sub>14</sub>O",
        "Molecular Mass": "150.22",
        "Boiling Point": "140 °C @ Press: 24 Torr",
        "Density": "1.001 g/cm³ @ Temp: 20 °C"
    }
}