{
    "cas_no": "488-10-8",
    "key_name": "Jasmone",
    "cn_name": "茉莉酮;顺茉莉酮;",
    "alternate_name": "2-Cyclopenten-1-one, 3-methyl-2-(2<em>Z</em>)-2-penten-1-yl-;Jasmone;2-Cyclopenten-1-one, 3-methyl-2-(2-pentenyl)-, (<em>Z</em>)-;2-Cyclopenten-1-one, 3-methyl-2-(2<em>Z</em>)-2-pentenyl-;3-Methyl-2-(2<em>Z</em>)-2-penten-1-yl-2-cyclopenten-1-one;3-Methyl-2-<em>n</em>-penten-2′-ylcyclopenten-2-one;3-Methyl-2-(2-pentenyl)-2-cyclopenten-1-one;<em>cis</em>-Jasmone;(<em>Z</em>)-Jasmone;3-Methyl-2-(2-<em>cis</em>-pentenyl)-2-cyclopenten-1-one;3-Methyl-2-(<em>cis</em>-2-pentenyl)-2-cyclopenten-1-one;(<em>Z</em>)-3-Methyl-2-(pent-2-en-1-yl)cyclopent-2-en-1-one;SS-PD 41104-1;(<em>Z</em>)-3-Methyl-2-(pent-2-en-1-yl)cyclopent-2-enone",
    "duplicated_cas_no": "4907-07-7",
    "SMILES": "C(/C=C\\CC)C1=C(C)CCC1=O",
    "meta_data": {
        "InChI": "InChI=1S/C11H16O/c1-3-4-5-6-10-9(2)7-8-11(10)12/h4-5H,3,6-8H2,1-2H3/b5-4-",
        "InChIKey": null,
        "Canonical SMILES": "O=C1C(=C(C)CC1)CC=CCC",
        "Molecular Formula": "C<sub>11</sub>H<sub>16</sub>O",
        "Molecular Mass": "164.24",
        "Boiling Point": "258 °C",
        "Density": "0.9466 g/cm³ @ Temp: 15 °C"
    }
}