{
    "cas_no": "879-18-5",
    "key_name": "1-Naphthoyl chloride",
    "cn_name": "1-萘甲酰氯;",
    "alternate_name": "1-Naphthalenecarbonyl chloride;1-Naphthoyl chloride;α-Naphthoyl chloride;1-(Chlorocarbonyl)naphthalene;1-Naphthoic acid chloride;1-Naphthalenecarboxylic acid chloride;1-Naphthylcarbonyl chloride;NSC 9841;1-Naphthaloyl chloride",
    "duplicated_cas_no": "",
    "SMILES": "C(Cl)(=O)C=1C2=C(C=CC1)C=CC=C2",
    "meta_data": {
        "InChI": "InChI=1S/C11H7ClO/c12-11(13)10-7-3-5-8-4-1-2-6-9(8)10/h1-7H",
        "InChIKey": null,
        "Canonical SMILES": "O=C(Cl)C1=CC=CC=2C=CC=CC21",
        "Molecular Formula": "C<sub>11</sub>H<sub>7</sub>ClO",
        "Molecular Mass": "190.63",
        "Boiling Point": "295 °C",
        "Melting Point": "26 °C",
        "Density": "1.2694 g/cm³ @ Temp: 20 °C"
    }
}