{
    "cas_no": "115-41-3",
    "key_name": "Pyrocatechol violet",
    "cn_name": "儿茶酚紫;邻苯二酚紫;邻苯二酚磺酞;",
    "alternate_name": "1,2-Benzenediol, 4,4′-(1,1-dioxido-3<em>H</em>-2,1-benzoxathiol-3-ylidene)bis-;Pyrocatechol, 4,4′-(3<em>H</em>-2,1-benzoxathiol-3-ylidene)di-, <em>S</em>,<em>S</em>-dioxide;Pyrocatechol violet;1,2-Benzenediol, 4,4′-(3<em>H</em>-2,1-benzoxathiol-3-ylidene)bis-, <em>S</em>,<em>S</em>-dioxide;3<em>H</em>-2,1-Benzoxathiole, 1,2-benzenediol deriv.;4,4′-(1,1-Dioxido-3<em>H</em>-2,1-benzoxathiol-3-ylidene)bis[1,2-benzenediol];3<em>H</em>-2,1-Benzoxathiole, 3,3-bis(3,4-dihydroxyphenyl)-, 1,1-dioxide;PKF;Catechol violet;Pyrocatechin sulfonephthalein;Pyrocatechol sulfonephthalein;Pyrocatechin violet;NSC 8805;3,3-Bis(3,4-dihydroxyphenyl)-3<em>H</em>-benzo[<em>c</em>][1,2]oxathiole 1,1-dioxide",
    "duplicated_cas_no": "3117-41-7;51433-99-9;68943-33-9;387360-51-2;401599-91-5;682345-39-7;720671-79-4",
    "SMILES": "O=S1(=O)OC(C=2C1=CC=CC2)(C3=CC(O)=C(O)C=C3)C4=CC(O)=C(O)C=C4",
    "meta_data": {
        "InChI": "InChI=1S/C19H14O7S/c20-14-7-5-11(9-16(14)22)19(12-6-8-15(21)17(23)10-12)13-3-1-2-4-18(13)27(24,25)26-19/h1-10,20-23H",
        "InChIKey": null,
        "Canonical SMILES": "O=S1(=O)OC(C2=CC=C(O)C(O)=C2)(C3=CC=C(O)C(O)=C3)C=4C=CC=CC41",
        "Molecular Formula": "C<sub>19</sub>H<sub>14</sub>O<sub>7</sub>S",
        "Molecular Mass": "386.38",
        "Melting Point": "211 °C (decomp)"
    }
}