{
    "cas_no": "897-15-4",
    "key_name": "Dothiepin hydrochloride",
    "cn_name": null,
    "alternate_name": "1-Propanamine, 3-(dibenzo[<em>b</em>,<em>e</em>]thiepin-11(6<em>H</em>)-ylidene)-<em>N</em>,<em>N</em>-dimethyl-, hydrochloride (1:1);Dibenzo[<em>b</em>,<em>e</em>]thiepin-Δ<sup>11(6</sup><em><sup>H</sup></em><sup>),γ</sup>-propylamine, <em>N</em>,<em>N</em>-dimethyl-, hydrochloride;1-Propanamine, 3-dibenzo[<em>b</em>,<em>e</em>]thiepin-11(6<em>H</em>)-ylidene-<em>N</em>,<em>N</em>-dimethyl-, hydrochloride;Dibenzo[<em>b</em>,<em>e</em>]thiepin, 1-propanamine deriv.;11-(3-Dimethylaminopropylidene)-6,11-dihydrodibenzo[<em>b</em>,<em>e</em>]thiepin hydrochloride;Prothiaden hydrochloride;Dosulepin chloride;Dothiepin hydrochloride;Dosulepin hydrochloride;Depresym;Altapin",
    "duplicated_cas_no": "",
    "SMILES": "C(CCN(C)C)=C1C=2C(CSC=3C1=CC=CC3)=CC=CC2.Cl",
    "meta_data": {
        "InChI": "InChI=1S/C19H21NS.ClH/c1-20(2)13-7-11-17-16-9-4-3-8-15(16)14-21-19-12-6-5-10-18(17)19;/h3-6,8-12H,7,13-14H2,1-2H3;1H",
        "InChIKey": null,
        "Canonical SMILES": "Cl.S1C=2C=CC=CC2C(=CCCN(C)C)C=3C=CC=CC3C1",
        "Molecular Formula": "C<sub>19</sub>H<sub>21</sub>NS.ClH",
        "Molecular Mass": "",
        "Melting Point": "218-221 °C"
    }
}