{
    "cas_no": "2203-97-6",
    "key_name": "Hydrocortisone hemisuccinate",
    "cn_name": "氢化可的松琥珀酸酯;",
    "alternate_name": "Pregn-4-ene-3,20-dione, 21-(3-carboxy-1-oxopropoxy)-11,17-dihydroxy-, (11β)-;Cortisol, 21-(hydrogen succinate);Cortisol, hydrogen succinate;(11β)-21-(3-Carboxy-1-oxopropoxy)-11,17-dihydroxypregn-4-ene-3,20-dione;Cortisol 21-hemisuccinate;Hydrocortisone 21-hemisuccinate;Hydrocortisone 21-(hydrogen succinate);Hydrocortisone 21-succinate;Hydrocortisone hemisuccinate;Cortisol hemisuccinate;Hydrocortisone succinate;Cortisol succinate;Hydrocortisone hydrogen succinate;Saxizon;NSC 7576;Hydrocortisone 21-<em>O</em>-β-carbonylpropionic acid",
    "duplicated_cas_no": "30210-46-9;53623-76-0",
    "SMILES": "C[C@@]12[C@]([C@]3([C@]([C@@H](O)C1)([C@]4(C)C(CC3)=CC(=O)CC4)[H])[H])(CC[C@@]2(C(COC(CCC(O)=O)=O)=O)O)[H]",
    "meta_data": {
        "InChI": "InChI=1S/C25H34O8/c1-23-9-7-15(26)11-14(23)3-4-16-17-8-10-25(32,24(17,2)12-18(27)22(16)23)19(28)13-33-21(31)6-5-20(29)30/h11,16-18,22,27,32H,3-10,12-13H2,1-2H3,(H,29,30)/t16-,17-,18-,22+,23-,24-,25-/m0/s1",
        "InChIKey": null,
        "Canonical SMILES": "O=C(O)CCC(=O)OCC(=O)C1(O)CCC2C3CCC4=CC(=O)CCC4(C)C3C(O)CC21C",
        "Molecular Formula": "C<sub>25</sub>H<sub>34</sub>O<sub>8</sub>",
        "Molecular Mass": "462.53",
        "Melting Point": "170-172 °C"
    }
}