{
    "cas_no": "37002-52-1",
    "key_name": "<em>N</em>-Benzoyl-<span class=\"text-smallcaps\">D</span>-phenylalanine",
    "cn_name": null,
    "alternate_name": "<span class=\"text-smallcaps\">D</span>-Phenylalanine, <em>N</em>-benzoyl-;<em>N</em>-Benzoyl-<span class=\"text-smallcaps\">D</span>-phenylalanine;(<em>R</em>)-<em>N</em>-Benzoylphenylalanine;<span class=\"text-smallcaps\">D</span>-<em>N</em>-Benzoylphenylalanine;(<em>R</em>)-2-Benzoylamino-3-phenylpropanoic acid;<span class=\"text-smallcaps\">D</span>-Bz-Phenylalanine;(2R)-2-Benzamido-3-phenylpropanoic acid;(2R)-3-Phenyl-2-(phenylformamido)propanoic acid",
    "duplicated_cas_no": "",
    "SMILES": "[C@@H](NC(=O)C1=CC=CC=C1)(CC2=CC=CC=C2)C(O)=O",
    "meta_data": {
        "InChI": "InChI=1S/C16H15NO3/c18-15(13-9-5-2-6-10-13)17-14(16(19)20)11-12-7-3-1-4-8-12/h1-10,14H,11H2,(H,17,18)(H,19,20)/t14-/m1/s1",
        "InChIKey": null,
        "Canonical SMILES": "O=C(O)C(NC(=O)C=1C=CC=CC1)CC=2C=CC=CC2",
        "Molecular Formula": "C<sub>16</sub>H<sub>15</sub>NO<sub>3</sub>",
        "Molecular Mass": "269.30",
        "Melting Point": "142-143 °C"
    }
}