{
    "cas_no": "50820-65-0",
    "key_name": "Indole-6-carboxylic acid methyl ester",
    "cn_name": "吲哚-6-甲酸甲酯;",
    "alternate_name": "1<em>H</em>-Indole-6-carboxylic acid, methyl ester;Methyl 6-indolecarboxylate;Methyl 1<em>H</em>-indole-6-carboxylate;6-Methoxycarbonylindole;Indole-6-carboxylic acid methyl ester",
    "duplicated_cas_no": "1294514-43-4",
    "SMILES": "C(OC)(=O)C=1C=C2C(=CC1)C=CN2",
    "meta_data": {
        "InChI": "InChI=1S/C10H9NO2/c1-13-10(12)8-3-2-7-4-5-11-9(7)6-8/h2-6,11H,1H3",
        "InChIKey": null,
        "Canonical SMILES": "O=C(OC)C=1C=CC=2C=CNC2C1",
        "Molecular Formula": "C<sub>10</sub>H<sub>9</sub>NO<sub>2</sub>",
        "Molecular Mass": "175.18",
        "Melting Point": "78-79 °C"
    }
}