{
    "cas_no": "638-25-5",
    "key_name": "Pentyl octanoate",
    "cn_name": "辛酸戊酯;",
    "alternate_name": "Octanoic acid, pentyl ester;Amyl octanoate;Amyl caprylate;Pentyl octanoate;<em>n</em>-Amyl caprylate;NSC 23940",
    "duplicated_cas_no": "",
    "SMILES": "C(C(OCCCCC)=O)CCCCCC",
    "meta_data": {
        "InChI": "InChI=1S/C13H26O2/c1-3-5-7-8-9-11-13(14)15-12-10-6-4-2/h3-12H2,1-2H3",
        "InChIKey": null,
        "Canonical SMILES": "O=C(OCCCCC)CCCCCCC",
        "Molecular Formula": "C<sub>13</sub>H<sub>26</sub>O<sub>2</sub>",
        "Molecular Mass": "214.34",
        "Boiling Point": "260.2 °C",
        "Melting Point": "-34.8 °C"
    }
}