{
    "cas_no": "111-83-1",
    "key_name": "1-Bromooctane",
    "cn_name": "1-溴辛烷;",
    "alternate_name": "Octane, 1-bromo-;1-Bromooctane;Octyl bromide;<em>n</em>-Octyl bromide;1-Octylbromide;NSC 9821;8-Bromooctane",
    "duplicated_cas_no": "1465759-06-1",
    "SMILES": "C(CCCBr)CCCC",
    "meta_data": {
        "InChI": "InChI=1S/C8H17Br/c1-2-3-4-5-6-7-8-9/h2-8H2,1H3",
        "InChIKey": null,
        "Canonical SMILES": "BrCCCCCCCC",
        "Molecular Formula": "C<sub>8</sub>H<sub>17</sub>Br",
        "Molecular Mass": "193.12",
        "Boiling Point": "200 °C",
        "Melting Point": "-55 °C",
        "Density": "1.13312 g/cm³ @ Temp: 0 °C"
    }
}