{
    "cas_no": "1115-59-9",
    "key_name": "<span class=\"text-smallcaps\">L</span>-Alanine, ethyl ester, hydrochloride (1:1)",
    "cn_name": "L-丙氨酸乙酯盐酸盐;",
    "alternate_name": "<span class=\"text-smallcaps\">L</span>-Alanine, ethyl ester, hydrochloride (1:1);<span class=\"text-smallcaps\">L</span>-Alanine, ethyl ester, hydrochloride;Alanine, ethyl ester, hydrochloride, <span class=\"text-smallcaps\">L</span>-;(<em>S</em>)-Alanine ethyl ester hydrochloride;Ethyl <span class=\"text-smallcaps\">L</span>-alaninate hydrochloride;Ethyl (<em>S</em>)-alaninate hydrochloride;(<em>S</em>)-2-Aminopropionic acid ethyl ester hydrochloride;(<em>S</em>)-Ethyl 2-aminopropanoate hydrochloride",
    "duplicated_cas_no": "1403677-11-1",
    "SMILES": "C(OCC)([C@H](C)N)=O.Cl",
    "meta_data": {
        "InChI": "InChI=1S/C5H11NO2.ClH/c1-3-8-5(7)4(2)6;/h4H,3,6H2,1-2H3;1H/t4-;/m0./s1",
        "InChIKey": null,
        "Canonical SMILES": "Cl.O=C(OCC)C(N)C",
        "Molecular Formula": "C<sub>5</sub>H<sub>11</sub>NO<sub>2</sub>.ClH",
        "Molecular Mass": "",
        "Melting Point": "76 °C"
    }
}