{
    "cas_no": "351-54-2",
    "key_name": "3-Fluoro-4-methoxybenzaldehyde",
    "cn_name": "3-氟-4-甲氧基苯甲醛;",
    "alternate_name": "Benzaldehyde, 3-fluoro-4-methoxy-;<em>p</em>-Anisaldehyde, 3-fluoro-;3-Fluoro-4-methoxybenzaldehyde;3-Fluoro-<em>p</em>-anisaldehyde;4-Methoxy-3-fluorobenzaldehyde",
    "duplicated_cas_no": "",
    "SMILES": "C(=O)C1=CC(F)=C(OC)C=C1",
    "meta_data": {
        "InChI": "InChI=1S/C8H7FO2/c1-11-8-3-2-6(5-10)4-7(8)9/h2-5H,1H3",
        "InChIKey": null,
        "Canonical SMILES": "O=CC1=CC=C(OC)C(F)=C1",
        "Molecular Formula": "C<sub>8</sub>H<sub>7</sub>FO<sub>2</sub>",
        "Molecular Mass": "154.14",
        "Melting Point": "31 °C"
    }
}