{
    "cas_no": "16870-43-2",
    "key_name": "<span class=\"text-smallcaps\">L</span>-Tyrosine, hydrochloride (1:1)",
    "cn_name": "L-酪氨酸盐酸盐;",
    "alternate_name": "<span class=\"text-smallcaps\">L</span>-Tyrosine, hydrochloride (1:1);Tyrosine, hydrochloride, <span class=\"text-smallcaps\">L</span>-;<span class=\"text-smallcaps\">L</span>-Tyrosine, hydrochloride;Tyrosine hydrochloride;Tyrosine hydrogen chloride;(<em>S</em>)-2-Amino-3-(4-hydroxyphenyl)propanoic acid hydrochloride",
    "duplicated_cas_no": "",
    "SMILES": "C([C@@H](C(O)=O)N)C1=CC=C(O)C=C1.Cl",
    "meta_data": {
        "InChI": "InChI=1S/C9H11NO3.ClH/c10-8(9(12)13)5-6-1-3-7(11)4-2-6;/h1-4,8,11H,5,10H2,(H,12,13);1H/t8-;/m0./s1",
        "InChIKey": null,
        "Canonical SMILES": "Cl.O=C(O)C(N)CC1=CC=C(O)C=C1",
        "Molecular Formula": "C<sub>9</sub>H<sub>11</sub>NO<sub>3</sub>.ClH",
        "Molecular Mass": "",
        "Melting Point": "249 °C (decomp)"
    }
}