{
    "cas_no": "51030-47-8",
    "key_name": "1-Butanol, niobium(5+) salt (5:1)",
    "cn_name": "正丁醇铌;",
    "alternate_name": "1-Butanol, niobium(5+) salt (5:1);1-Butanol, niobium(5+) salt;Niobium butoxide (Nb(OBu)<sub>5</sub>);Niobium pentabutoxide;Niobium(V) butoxide;Pentakisbutoxyniobium;Niobium butoxide",
    "duplicated_cas_no": "",
    "SMILES": "C(CC)CO.[Nb]",
    "meta_data": {
        "InChI": "InChI=1S/C4H10O.Nb/c1-2-3-4-5;/h5H,2-4H2,1H3;",
        "InChIKey": null,
        "Canonical SMILES": "[Nb].OCCCC",
        "Molecular Formula": "C<sub>4</sub>H<sub>10</sub>O.<sup>1</sup>/<sub>5</sub>Nb",
        "Molecular Mass": "",
        "Boiling Point": "197 °C @ Press: 0.15 Torr",
        "Density": "1.090 g/cm³"
    }
}