{
    "cas_no": "6228-47-3",
    "key_name": "Propyltriphenylphosphonium bromide",
    "cn_name": "三苯基丙基溴化鏻;丙基三苯基溴化鏻;",
    "alternate_name": "Phosphonium, triphenylpropyl-, bromide (1:1);Phosphonium, triphenylpropyl-, bromide;Triphenylpropylphosphonium bromide;Propyltriphenylphosphonium bromide;<em>n</em>-Propyltriphenylphosphonium bromide;NSC 50539;Bromo(propyl)triphenylphosphorane",
    "duplicated_cas_no": "59725-00-7;132876-90-5;1445387-09-6;1965266-57-2",
    "SMILES": "[P+](CCC)(C1=CC=CC=C1)(C2=CC=CC=C2)C3=CC=CC=C3.[Br-]",
    "meta_data": {
        "InChI": "InChI=1S/C21H22P.BrH/c1-2-18-22(19-12-6-3-7-13-19,20-14-8-4-9-15-20)21-16-10-5-11-17-21;/h3-17H,2,18H2,1H3;1H/q+1;/p-1",
        "InChIKey": null,
        "Canonical SMILES": "[Br-].C=1C=CC(=CC1)[P+](C=2C=CC=CC2)(C=3C=CC=CC3)CCC",
        "Molecular Formula": "C<sub>21</sub>H<sub>22</sub>P.Br",
        "Molecular Mass": "",
        "Melting Point": "229-230 °C"
    }
}