{
    "cas_no": "21510-43-0",
    "key_name": "2-(4-Bromophenyl)-5-phenyl-1,3,4-oxadiazole",
    "cn_name": "2-(4-溴苯基)-5-苯基-1,3,4-噁二唑;",
    "alternate_name": "1,3,4-Oxadiazole, 2-(4-bromophenyl)-5-phenyl-;1,3,4-Oxadiazole, 2-(<em>p</em>-bromophenyl)-5-phenyl-;2-(4-Bromophenyl)-5-phenyl-1,3,4-oxadiazole;NSC 89572",
    "duplicated_cas_no": "",
    "SMILES": "BrC1=CC=C(C=2OC(=NN2)C3=CC=CC=C3)C=C1",
    "meta_data": {
        "InChI": "InChI=1S/C14H9BrN2O/c15-12-8-6-11(7-9-12)14-17-16-13(18-14)10-4-2-1-3-5-10/h1-9H",
        "InChIKey": null,
        "Canonical SMILES": "BrC=1C=CC(=CC1)C2=NN=C(O2)C=3C=CC=CC3",
        "Molecular Formula": "C<sub>14</sub>H<sub>9</sub>BrN<sub>2</sub>O",
        "Molecular Mass": "301.14",
        "Melting Point": "167 °C"
    }
}