{
    "cas_no": "3118-97-6",
    "key_name": "Sudan Red",
    "cn_name": "苏丹橙Ⅱ;1-[(2,4-二甲苯基)偶氮]-2-萘酚;苏丹II;苏丹红 II;2,4-二甲基苯偶氮-2-萘酚;1-二甲苯基偶氨-2-萘;",
    "alternate_name": "2-Naphthalenol, 1-[2-(2,4-dimethylphenyl)diazenyl]-;C.I. Solvent Orange 7;Sudan Red;2-Naphthalenol, 1-[(2,4-dimethylphenyl)azo]-;1-[2-(2,4-Dimethylphenyl)diazenyl]-2-naphthalenol;C.I. 12140;Brasilazina Oil Scarlet 6G;Ceres Orange RR;Cerisol Scarlet G;Fast Oil Orange II;Fat Scarlet 2G;Grasan Orange 3R;Lacquer Orange VR;Oil Orange R;Oil Orange X;Oil Orange 2R;Oil Orange N Extra;Oil Orange KB;Oil Orange XO;Oil Scarlet;Oil Scarlet 6G;Oil Scarlet 371;Oil Scarlet BL;Oil Scarlet YS;AF Red No. 5;Resin Scarlet 2R;Somalia Orange A 2R;Sudan II;Sudan Orange RPA;Somalia Orange 2R;Sudan Orange RRA;Ext D and C Red No. 14;FD and C Red No. 32;Red No. 5;Oil Red XO;Calco Oil Scarlet BL;Japan Red 505;Sudan orange;Japan Red No.5;Japan Red 5;NSC 10457;Red 505;Sudan 2;Solvent Orange 7;Sudan Red II;Brilliant Oil Scarlet B",
    "duplicated_cas_no": "",
    "SMILES": "N(=NC1=C(C)C=C(C)C=C1)C=2C3=C(C=CC2O)C=CC=C3",
    "meta_data": {
        "InChI": "InChI=1S/C18H16N2O/c1-12-7-9-16(13(2)11-12)19-20-18-15-6-4-3-5-14(15)8-10-17(18)21/h3-11,21H,1-2H3",
        "InChIKey": null,
        "Canonical SMILES": "OC=1C=CC=2C=CC=CC2C1N=NC3=CC=C(C=C3C)C",
        "Molecular Formula": "C<sub>18</sub>H<sub>16</sub>N<sub>2</sub>O",
        "Molecular Mass": "276.33",
        "Melting Point": "166 °C"
    }
}