{
    "cas_no": "159989-64-7",
    "key_name": "Nelfinavir",
    "cn_name": null,
    "alternate_name": "3-Isoquinolinecarboxamide, <em>N</em>-(1,1-dimethylethyl)decahydro-2-[(2<em>R</em>,3<em>R</em>)-2-hydroxy-3-[(3-hydroxy-2-methylbenzoyl)amino]-4-(phenylthio)butyl]-, (3<em>S</em>,4a<em>S</em>,8a<em>S</em>)-;3-Isoquinolinecarboxamide, <em>N</em>-(1,1-dimethylethyl)decahydro-2-[2-hydroxy-3-[(3-hydroxy-2-methylbenzoyl)amino]-4-(phenylthio)butyl]-, [3<em>S</em>-[2(2<em>S</em>*,3<em>S</em>*),3α,4aβ,8aβ]]-;(3<em>S</em>,4a<em>S</em>,8a<em>S</em>)-<em>N</em>-(1,1-Dimethylethyl)decahydro-2-[(2<em>R</em>,3<em>R</em>)-2-hydroxy-3-[(3-hydroxy-2-methylbenzoyl)amino]-4-(phenylthio)butyl]-3-isoquinolinecarboxamide;Nelfinavir;AG 1341;MeSH ID: D019888",
    "duplicated_cas_no": "",
    "SMILES": "C(NC(C)(C)C)(=O)[C@H]1N(C[C@H]([C@@H](NC(=O)C2=C(C)C(O)=CC=C2)CSC3=CC=CC=C3)O)C[C@@]4([C@](C1)(CCCC4)[H])[H]",
    "meta_data": {
        "InChI": "InChI=1S/C32H45N3O4S/c1-21-25(15-10-16-28(21)36)30(38)33-26(20-40-24-13-6-5-7-14-24)29(37)19-35-18-23-12-9-8-11-22(23)17-27(35)31(39)34-32(2,3)4/h5-7,10,13-16,22-23,26-27,29,36-37H,8-9,11-12,17-20H2,1-4H3,(H,33,38)(H,34,39)/t22-,23+,26-,27-,29+/m0/s1",
        "InChIKey": null,
        "Canonical SMILES": "O=C(NC(CSC=1C=CC=CC1)C(O)CN2CC3CCCCC3CC2C(=O)NC(C)(C)C)C=4C=CC=C(O)C4C",
        "Molecular Formula": "C<sub>32</sub>H<sub>45</sub>N<sub>3</sub>O<sub>4</sub>S",
        "Molecular Mass": "567.78",
        "Melting Point": "185-186 °C"
    }
}