{
    "cas_no": "3598-37-6",
    "key_name": "Acepromazine maleate",
    "cn_name": "乙酰丙嗪马来酸酯;",
    "alternate_name": "Ethanone, 1-[10-[3-(dimethylamino)propyl]-10<em>H</em>-phenothiazin-2-yl]-, (2<em>Z</em>)-2-butenedioate (1:1);Ketone, 10-[3-(dimethylamino)propyl]phenothiazin-2-yl methyl, maleate (1:1);Ethanone, 1-[10-[3-(dimethylamino)propyl]-10<em>H</em>-phenothiazin-2-yl]-, (<em>Z</em>)-2-butenedioate (1:1);Ketone, 10-[3-(dimethylamino)propyl]phenothiazin-2-yl methyl, maleate;Maleic acid, compd. with 10-(3-dimethylaminopropyl)phenothiazin-2-yl methyl ketone;Acepromazine maleate;Acepromazine monomaleate;Anatran;Notenzil;Plegicil;Soprontin;Acetylpromazine maleate;Atravet;Sedalin;Calmivet;Notensil;NSC 264522;Acetopromazine maleate salt;Calmo Neosan;Acepran",
    "duplicated_cas_no": "2664-15-5",
    "SMILES": "C(=C\\C(O)=O)\\C(O)=O.C(CCN(C)C)N1C=2C(SC=3C1=CC=CC3)=CC=C(C(C)=O)C2",
    "meta_data": {
        "InChI": "InChI=1S/C19H22N2OS.C4H4O4/c1-14(22)15-9-10-19-17(13-15)21(12-6-11-20(2)3)16-7-4-5-8-18(16)23-19;5-3(6)1-2-4(7)8/h4-5,7-10,13H,6,11-12H2,1-3H3;1-2H,(H,5,6)(H,7,8)/b;2-1-",
        "InChIKey": null,
        "Canonical SMILES": "O=C(O)C=CC(=O)O.O=C(C1=CC=C2SC=3C=CC=CC3N(C2=C1)CCCN(C)C)C",
        "Molecular Formula": "C<sub>19</sub>H<sub>22</sub>N<sub>2</sub>OS.C<sub>4</sub>H<sub>4</sub>O<sub>4</sub>",
        "Molecular Mass": "",
        "Melting Point": "135-136 °C"
    }
}