{
    "cas_no": "484-17-3",
    "key_name": "9-Phenanthrol",
    "cn_name": "9-菲酚;",
    "alternate_name": "9-Phenanthrenol;9-Phenanthrol;9-Hydroxyphenanthrene;NSC 50554",
    "duplicated_cas_no": "",
    "SMILES": "OC1=C2C(=C3C(=C1)C=CC=C3)C=CC=C2",
    "meta_data": {
        "InChI": "InChI=1S/C14H10O/c15-14-9-10-5-1-2-6-11(10)12-7-3-4-8-13(12)14/h1-9,15H",
        "InChIKey": null,
        "Canonical SMILES": "OC1=CC=2C=CC=CC2C=3C=CC=CC13",
        "Molecular Formula": "C<sub>14</sub>H<sub>10</sub>O",
        "Molecular Mass": "194.23",
        "Boiling Point": "220-260 °C",
        "Melting Point": "150-151 °C"
    }
}