{
    "cas_no": "50868-72-9",
    "key_name": "5-Methoxy-2-methylaniline",
    "cn_name": "5-甲氧基-2-甲基苯胺;",
    "alternate_name": "Benzenamine, 5-methoxy-2-methyl-;5-Methoxy-2-methylbenzenamine;5-Methoxy-2-methylaniline;2-Methyl-5-methoxyaniline;3-Amino-4-methylanisole;3-Methoxy-6-methylaniline;NSC 229308",
    "duplicated_cas_no": "",
    "SMILES": "O(C)C1=CC(N)=C(C)C=C1",
    "meta_data": {
        "InChI": "InChI=1S/C8H11NO/c1-6-3-4-7(10-2)5-8(6)9/h3-5H,9H2,1-2H3",
        "InChIKey": null,
        "Canonical SMILES": "O(C1=CC=C(C(N)=C1)C)C",
        "Molecular Formula": "C<sub>8</sub>H<sub>11</sub>NO",
        "Molecular Mass": "137.18",
        "Boiling Point": "253 °C",
        "Melting Point": "47 °C"
    }
}