{
    "cas_no": "577-85-5",
    "key_name": "Flavonol",
    "cn_name": "3-羟基黄酮;3-黄酮醇;黃酮醇;",
    "alternate_name": "4<em>H</em>-1-Benzopyran-4-one, 3-hydroxy-2-phenyl-;Flavone, 3-hydroxy-;3-Hydroxy-2-phenyl-4<em>H</em>-1-benzopyran-4-one;Flavon-3-ol;Flavonol;3-Hydroxyflavone;3-Hydroxy-2-phenylchromone;3-HF;NSC 57653;NSC 58585;NSC 58586;NSC 58587;3-Hydroxy-2-phenyl-4<em>H</em>-chromen-4-one;AF 1;3-Hydroxy-2-phenylchromen-4-one",
    "duplicated_cas_no": "",
    "SMILES": "OC1=C(OC=2C(C1=O)=CC=CC2)C3=CC=CC=C3",
    "meta_data": {
        "InChI": "InChI=1S/C15H10O3/c16-13-11-8-4-5-9-12(11)18-15(14(13)17)10-6-2-1-3-7-10/h1-9,17H",
        "InChIKey": null,
        "Canonical SMILES": "O=C1C(O)=C(OC=2C=CC=CC21)C=3C=CC=CC3",
        "Molecular Formula": "C<sub>15</sub>H<sub>10</sub>O<sub>3</sub>",
        "Molecular Mass": "238.24",
        "Melting Point": "171 °C"
    }
}