{
    "cas_no": "21499-66-1",
    "key_name": "Bruceine D",
    "cn_name": null,
    "alternate_name": "Picras-3-ene-2,16-dione, 13,20-epoxy-1,11,12,14,15-pentahydroxy-, (1β,11β,12α,15β)-;5<em>H</em>-3,11cβ-(Epoxymethano)phenanthro[10,1-<em>bc</em>]pyran-5,10(6aβ<em>H</em>)-dione, 1,2,3,3a,4,7,7aα,11,11a,11bα-decahydro-1β,2α,3aβ,4β,11β-pentahydroxy-3α,8,11aβ-trimethyl-, (-)-;(1β,11β,12α,15β)-13,20-Epoxy-1,11,12,14,15-pentahydroxypicras-3-ene-2,16-dione;Bruceine D;NSC 318801;Brucein D;20-Deoxyyadanziolide A",
    "duplicated_cas_no": "",
    "SMILES": "O[C@]12[C@@]34[C@@]([C@]5(C)[C@@](C[C@]3(OC(=O)[C@@H]1O)[H])(C(C)=CC(=O)[C@H]5O)[H])([C@@H](O)[C@H](O)[C@@]2(C)OC4)[H]",
    "meta_data": {
        "InChI": "InChI=1S/C20H26O9/c1-7-4-9(21)13(23)17(2)8(7)5-10-19-6-28-18(3,14(24)11(22)12(17)19)20(19,27)15(25)16(26)29-10/h4,8,10-15,22-25,27H,5-6H2,1-3H3/t8-,10+,11+,12+,13+,14-,15-,17-,18+,19+,20+/m0/s1",
        "InChIKey": null,
        "Canonical SMILES": "O=C1OC2CC3C(=CC(=O)C(O)C3(C)C4C(O)C(O)C5(OCC24C5(O)C1O)C)C",
        "Molecular Formula": "C<sub>20</sub>H<sub>26</sub>O<sub>9</sub>",
        "Molecular Mass": "410.42",
        "Melting Point": "285-290 °C"
    }
}