{
    "cas_no": "585-79-5",
    "key_name": "1-Bromo-3-nitrobenzene",
    "cn_name": "间溴硝基苯;",
    "alternate_name": "Benzene, 1-bromo-3-nitro-;1-Bromo-3-nitrobenzene;<em>m</em>-Bromonitrobenzene;3-Nitrobromobenzene;<em>m</em>-Nitrobromobenzene;3-Bromonitrobenzene;<em>m</em>-Nitrophenyl bromide;NSC 7084;3-Bromo-1-nitrobenzene;3-Nitro-1-bromobenzene;3-Nitrophenyl bromide",
    "duplicated_cas_no": "",
    "SMILES": "N(=O)(=O)C1=CC(Br)=CC=C1",
    "meta_data": {
        "InChI": "InChI=1S/C6H4BrNO2/c7-5-2-1-3-6(4-5)8(9)10/h1-4H",
        "InChIKey": null,
        "Canonical SMILES": "O=N(=O)C=1C=CC=C(Br)C1",
        "Molecular Formula": "C<sub>6</sub>H<sub>4</sub>BrNO<sub>2</sub>",
        "Molecular Mass": "202.01",
        "Boiling Point": "256 °C",
        "Melting Point": "56 °C"
    }
}