{
    "cas_no": "3228-03-3",
    "key_name": "3-Isopropyl-5-methylphenol",
    "cn_name": "5-异丙基-3-甲基苯酚;5-异丙基-3-甲酚;",
    "alternate_name": "Phenol, 3-methyl-5-(1-methylethyl)-;<em>m</em>-Cymen-5-ol;<em>m</em>-Cresol, 5-isopropyl-;3-Methyl-5-(1-methylethyl)phenol;3-Methyl-5-isopropylphenol;3-Isopropyl-5-methylphenol;5-Isopropyl-3-methylphenol;5-Isopropyl-<em>m</em>-cresol;3-Methyl-5-(propan-2-yl)phenol",
    "duplicated_cas_no": "",
    "SMILES": "C(C)(C)C1=CC(C)=CC(O)=C1",
    "meta_data": {
        "InChI": "InChI=1S/C10H14O/c1-7(2)9-4-8(3)5-10(11)6-9/h4-7,11H,1-3H3",
        "InChIKey": null,
        "Canonical SMILES": "OC=1C=C(C=C(C1)C(C)C)C",
        "Molecular Formula": "C<sub>10</sub>H<sub>14</sub>O",
        "Molecular Mass": "150.22",
        "Boiling Point": "128 °C @ Press: 19 Torr",
        "Melting Point": "49 °C"
    }
}