{
    "cas_no": "2403-61-4",
    "key_name": "1-Chloro-4-(diethoxymethyl)benzene",
    "cn_name": "4-氯苯甲醛二乙基乙缩醛;",
    "alternate_name": "Benzene, 1-chloro-4-(diethoxymethyl)-;Benzaldehyde, <em>p</em>-chloro-, diethyl acetal;1-Chloro-4-(diethoxymethyl)benzene;4-Chlorobenzaldehyde diethyl acetal;<em>p</em>-Chlorobenzaldehyde diethyl acetal;<em>p</em>-(Diethoxymethyl)chlorobenzene;NSC 296500",
    "duplicated_cas_no": "",
    "SMILES": "C(OCC)(OCC)C1=CC=C(Cl)C=C1",
    "meta_data": {
        "InChI": "InChI=1S/C11H15ClO2/c1-3-13-11(14-4-2)9-5-7-10(12)8-6-9/h5-8,11H,3-4H2,1-2H3",
        "InChIKey": null,
        "Canonical SMILES": "ClC1=CC=C(C=C1)C(OCC)OCC",
        "Molecular Formula": "C<sub>11</sub>H<sub>15</sub>ClO<sub>2</sub>",
        "Molecular Mass": "214.69",
        "Boiling Point": "92-93 °C"
    }
}