{
    "cas_no": "27048-04-0",
    "key_name": "2-Amino-6-chloro-3-nitropyridine",
    "cn_name": "2-氨基-3-硝基-6-氯吡啶;2-氨基-6-氯-3-硝基吡啶;",
    "alternate_name": "2-Pyridinamine, 6-chloro-3-nitro-;Pyridine, 2-amino-6-chloro-3-nitro-;6-Chloro-3-nitro-2-pyridinamine;2-Amino-6-chloro-3-nitropyridine;6-Amino-2-chloro-5-nitropyridine;6-Chloro-3-nitro-2-pyridylamine;6-Chloro-3-nitropyridin-2-ylamine;2-Amino-3-nitro-6-chloropyridine",
    "duplicated_cas_no": "",
    "SMILES": "N(=O)(=O)C1=C(N)N=C(Cl)C=C1",
    "meta_data": {
        "InChI": "InChI=1S/C5H4ClN3O2/c6-4-2-1-3(9(10)11)5(7)8-4/h1-2H,(H2,7,8)",
        "InChIKey": null,
        "Canonical SMILES": "O=N(=O)C1=CC=C(Cl)N=C1N",
        "Molecular Formula": "C<sub>5</sub>H<sub>4</sub>ClN<sub>3</sub>O<sub>2</sub>",
        "Molecular Mass": "173.56",
        "Melting Point": "190-192 °C"
    }
}