{
    "cas_no": "354-26-7",
    "key_name": "1-Chloro-1,1,2-trifluoro-2-iodoethane",
    "cn_name": "1-氯-2-碘-1,1,2-三氟乙烷;1-氯-2-碘-1,1,2-三氟乙烷;1-氯-2-碘-1,1;1-氯-2-碘-1,1,2-三氟乙;",
    "alternate_name": "Ethane, 1-chloro-1,1,2-trifluoro-2-iodo-;1-Chloro-1,1,2-trifluoro-2-iodoethane;1-Iodo-2-chloro-1,2,2-trifluoroethane;1-Chloro-2-iodo-1,1,2-trifluoroethane",
    "duplicated_cas_no": "",
    "SMILES": "C(C(F)I)(Cl)(F)F",
    "meta_data": {
        "InChI": "InChI=1S/C2HClF3I/c3-2(5,6)1(4)7/h1H",
        "InChIKey": null,
        "Canonical SMILES": "FC(I)C(F)(F)Cl",
        "Molecular Formula": "C<sub>2</sub>HClF<sub>3</sub>I",
        "Molecular Mass": "244.38",
        "Boiling Point": "77 °C @ Press: 630 Torr",
        "Density": "2.181 g/cm³ @ Temp: 20 °C"
    }
}