{
    "cas_no": "10112-15-9",
    "key_name": "<em>N</em>-Ethyl-2-nitrobenzenamine",
    "cn_name": "N-乙基-2-硝基苯胺;",
    "alternate_name": "Benzenamine, <em>N</em>-ethyl-2-nitro-;Aniline, <em>N</em>-ethyl-<em>o</em>-nitro-;<em>N</em>-Ethyl-2-nitrobenzenamine;<em>o</em>-(Ethylamino)nitrobenzene;<em>N</em>-Ethyl-2-nitroaniline;<em>N</em>-Ethyl-<em>o</em>-nitroaniline;2-Nitro-<em>N</em>-ethylaniline;Ethyl(2-nitrophenyl)amine",
    "duplicated_cas_no": "",
    "SMILES": "N(=O)(=O)C1=C(NCC)C=CC=C1",
    "meta_data": {
        "InChI": "InChI=1S/C8H10N2O2/c1-2-9-7-5-3-4-6-8(7)10(11)12/h3-6,9H,2H2,1H3",
        "InChIKey": null,
        "Canonical SMILES": "O=N(=O)C=1C=CC=CC1NCC",
        "Molecular Formula": "C<sub>8</sub>H<sub>10</sub>N<sub>2</sub>O<sub>2</sub>",
        "Molecular Mass": "166.18",
        "Boiling Point": "70-71 °C @ Press: 0.5 Torr"
    }
}