{
    "cas_no": "32618-85-2",
    "key_name": "6-Nitro-2,4(1<em>H</em>,3<em>H</em>)-quinazolinedione",
    "cn_name": null,
    "alternate_name": "2,4(1<em>H</em>,3<em>H</em>)-Quinazolinedione, 6-nitro-;6-Nitro-2,4(1<em>H</em>,3<em>H</em>)-quinazolinedione;6-Nitro-2,4-quinazolinediol;6-Nitro-2,4-quinazolinedione;6-Nitrobenzoyleneurea",
    "duplicated_cas_no": "",
    "SMILES": "O=C1C=2C(=CC=C(N(=O)=O)C2)NC(=O)N1",
    "meta_data": {
        "InChI": "InChI=1S/C8H5N3O4/c12-7-5-3-4(11(14)15)1-2-6(5)9-8(13)10-7/h1-3H,(H2,9,10,12,13)",
        "InChIKey": null,
        "Canonical SMILES": "O=C1NC(=O)C2=CC(=CC=C2N1)N(=O)=O",
        "Molecular Formula": "C<sub>8</sub>H<sub>5</sub>N<sub>3</sub>O<sub>4</sub>",
        "Molecular Mass": "207.14",
        "Melting Point": "330-331 °C (decomp)"
    }
}