{
    "cas_no": "137-29-1",
    "key_name": "Copper dimethyldithiocarbamate",
    "cn_name": "二甲基二硫代氨基甲酸铜;橡胶促进剂CDD;",
    "alternate_name": "Copper, bis(dimethylcarbamodithioato-κ<em>S</em>,κ<em>S</em>′)-, (<em>SP</em>-4-1)-;Copper, bis(dimethyldithiocarbamato)-;Copper, bis(dimethylcarbamodithioato-<em>S</em>,<em>S</em>′)-, (<em>SP</em>-4-1)-;Carbamodithioic acid, dimethyl-, copper complex;(<em>SP</em>-4-1)-Bis(dimethylcarbamodithioato-κ<em>S</em>,κ<em>S</em>′)copper;Cumate;Wolfen;Carbamodithioic acid, dimethyl-, copper(2+) salt;Copper dimethyldithiocarbamate;Copper(II) dimethyldithiocarbamate;Dimethyldithiocarbamatocopper;Copper bis(dimethyldithiocarbamate);Copper(2+) dimethyldithiocarbamate;Hermat Cu;Bis(dimethyldithiocarbamato)copper;Bis[<em>N</em>,<em>N</em>-dimethyl(dithiocarbamato-<em>S</em>,<em>S</em>′)]copper;Cupric <em>N</em>,<em>N</em>-dimethyldithiocarbamate;Bis(dimethyldithiocarbamato)copper(II);Nocceler TTCU;NSC 32947;Sanceler TT-CU;Accelerator TTCU;CDDC",
    "duplicated_cas_no": "14024-13-6;14876-43-8;83073-98-7",
    "SMILES": "N(C)(C)C=1[S-][Cu+2]2([S-]C(N(C)C)=[S]2)[S]1",
    "meta_data": {
        "InChI": "InChI=1S/2C3H7NS2.Cu/c2*1-4(2)3(5)6;/h2*1-2H3,(H,5,6);/q;;+2/p-2",
        "InChIKey": null,
        "Canonical SMILES": "[S]1=C([S-][Cu+2]12[S]=C([S-]2)N(C)C)N(C)C",
        "Molecular Formula": "C<sub>6</sub>H<sub>12</sub>CuN<sub>2</sub>S<sub>4</sub>",
        "Molecular Mass": "",
        "Melting Point": "260 °C (decomp)",
        "Density": "1.75 g/cm³"
    }
}