{
    "cas_no": "1643-19-2",
    "key_name": "Tetrabutylammonium bromide",
    "cn_name": "四丁基溴化铵;",
    "alternate_name": "1-Butanaminium, <em>N</em>,<em>N</em>,<em>N</em>-tributyl-, bromide (1:1);Ammonium, tetrabutyl-, bromide;Tetrabutylammonium bromide;1-Butanaminium, <em>N</em>,<em>N</em>,<em>N</em>-tributyl-, bromide;Tetra-<em>n</em>-butylammonium bromide;AP 6G;TBAB;Aliquat 100;Actiron 43-65;Mastermix MB 4988;TBAB 50A;TBABr;28296F;28296B;TBAB 100A",
    "duplicated_cas_no": "65129-09-1;65129-13-7;1087380-97-9;1393673-93-2",
    "SMILES": "[N+](CCCC)(CCCC)(CCCC)CCCC.[Br-]",
    "meta_data": {
        "InChI": "InChI=1S/C16H36N.BrH/c1-5-9-13-17(14-10-6-2,15-11-7-3)16-12-8-4;/h5-16H2,1-4H3;1H/q+1;/p-1",
        "InChIKey": null,
        "Canonical SMILES": "[Br-].CCCC[N+](CCCC)(CCCC)CCCC",
        "Molecular Formula": "C<sub>16</sub>H<sub>36</sub>N.Br",
        "Molecular Mass": "",
        "Melting Point": "117-118 °C"
    }
}