{
    "cas_no": "2311-46-8",
    "key_name": "Isopropyl hexanoate",
    "cn_name": "己酸-1-甲乙酯;",
    "alternate_name": "Hexanoic acid, 1-methylethyl ester;Hexanoic acid, isopropyl ester;Isopropyl hexanoate;Isopropyl caproate;Isopropyl <em>n</em>-hexanoate;Isopropyl capronate;1-Methylethyl hexanoate",
    "duplicated_cas_no": "",
    "SMILES": "C(C(OC(C)C)=O)CCCC",
    "meta_data": {
        "InChI": "InChI=1S/C9H18O2/c1-4-5-6-7-9(10)11-8(2)3/h8H,4-7H2,1-3H3",
        "InChIKey": null,
        "Canonical SMILES": "O=C(OC(C)C)CCCCC",
        "Molecular Formula": "C<sub>9</sub>H<sub>18</sub>O<sub>2</sub>",
        "Molecular Mass": "158.24",
        "Boiling Point": "168 °C @ Press: 760 Torr"
    }
}