{
    "cas_no": "1734-79-8",
    "key_name": "4-Nitrocinnamaldehyde",
    "cn_name": "4-硝基肉桂醛;",
    "alternate_name": "2-Propenal, 3-(4-nitrophenyl)-;Cinnamaldehyde, <em>p</em>-nitro-;3-(4-Nitrophenyl)-2-propenal;<em>p</em>-Nitrocinnamaldehyde;4-Nitrocinnamaldehyde;NSC 1318;4-Nitrocinnamic aldehyde;4-Nitrocinnamaldahyde;3-(4-Nitrophenyl)acrolein;3-(4-Nitrophenyl)acrylaldehyde",
    "duplicated_cas_no": "1619932-86-3",
    "SMILES": "N(=O)(=O)C1=CC=C(C=CC=O)C=C1",
    "meta_data": {
        "InChI": "InChI=1S/C9H7NO3/c11-7-1-2-8-3-5-9(6-4-8)10(12)13/h1-7H",
        "InChIKey": null,
        "Canonical SMILES": "O=CC=CC1=CC=C(C=C1)N(=O)=O",
        "Molecular Formula": "C<sub>9</sub>H<sub>7</sub>NO<sub>3</sub>",
        "Molecular Mass": "177.16",
        "Melting Point": "137-140 °C"
    }
}