{
    "cas_no": "2043-43-8",
    "key_name": "Lactamide",
    "cn_name": "乳酰氨;2-羟基丙酰胺;",
    "alternate_name": "Propanamide, 2-hydroxy-;Lactamide;2-Hydroxypropanamide;Lactic amide;α-Hydroxypropionamide;2-Hydroxypropionamide;Lactic acid amide;(±)-Lactamide;<span class=\"text-smallcaps\">D</smallcap><smallcap>L</span>-Lactamide;NSC 61454;NSC 9903",
    "duplicated_cas_no": "65144-02-7",
    "SMILES": "C(C(N)=O)(C)O",
    "meta_data": {
        "InChI": "InChI=1S/C3H7NO2/c1-2(5)3(4)6/h2,5H,1H3,(H2,4,6)",
        "InChIKey": null,
        "Canonical SMILES": "O=C(N)C(O)C",
        "Molecular Formula": "C<sub>3</sub>H<sub>7</sub>NO<sub>2</sub>",
        "Molecular Mass": "89.09",
        "Melting Point": "76.4 °C"
    }
}