{
    "cas_no": "4784-77-4",
    "key_name": "1-Bromo-2-butene",
    "cn_name": null,
    "alternate_name": "2-Butene, 1-bromo-;1-Bromo-2-butene;Crotyl bromide;2-Butenyl bromide;Crotonyl bromide;4-Bromo-2-butene;NSC 20942;1-Bromomethylprop-1-ene",
    "duplicated_cas_no": "",
    "SMILES": "C(CBr)=CC",
    "meta_data": {
        "InChI": "InChI=1S/C4H7Br/c1-2-3-4-5/h2-3H,4H2,1H3",
        "InChIKey": null,
        "Canonical SMILES": "BrCC=CC",
        "Molecular Formula": "C<sub>4</sub>H<sub>7</sub>Br",
        "Molecular Mass": "135.00",
        "Boiling Point": "104.5 °C",
        "Density": "1.3357 g/cm³ @ Temp: 25 °C"
    }
}