{
    "cas_no": "6975-92-4",
    "key_name": "2,5-Dimethyl-1-hexene",
    "cn_name": "2,5-二甲基-1-己烯;2,5-二甲基-1-己烯;",
    "alternate_name": "1-Hexene, 2,5-dimethyl-;2,5-Dimethyl-1-hexene;NSC 20555",
    "duplicated_cas_no": "",
    "SMILES": "C(CC(C)=C)C(C)C",
    "meta_data": {
        "InChI": "InChI=1S/C8H16/c1-7(2)5-6-8(3)4/h8H,1,5-6H2,2-4H3",
        "InChIKey": null,
        "Canonical SMILES": "C=C(C)CCC(C)C",
        "Molecular Formula": "C<sub>8</sub>H<sub>16</sub>",
        "Molecular Mass": "112.21",
        "Boiling Point": "111.6 °C"
    }
}