{
    "cas_no": "14293-44-8",
    "key_name": "Xipamide",
    "cn_name": null,
    "alternate_name": "Benzamide, 5-(aminosulfonyl)-4-chloro-<em>N</em>-(2,6-dimethylphenyl)-2-hydroxy-;2′,6′-Salicyloxylidide, 4-chloro-5-sulfamoyl-;5-(Aminosulfonyl)-4-chloro-<em>N</em>-(2,6-dimethylphenyl)-2-hydroxybenzamide;Xipamide;Aquaphor (diuretic);BE 1293;Aquaphor;BEI 1293;Diurex;Diurex (Lacer);MJF 10938;Lumitens;Diurexan;Chronexan",
    "duplicated_cas_no": "135274-05-4",
    "SMILES": "C(NC1=C(C)C=CC=C1C)(=O)C2=CC(S(N)(=O)=O)=C(Cl)C=C2O",
    "meta_data": {
        "InChI": "InChI=1S/C15H15ClN2O4S/c1-8-4-3-5-9(2)14(8)18-15(20)10-6-13(23(17,21)22)11(16)7-12(10)19/h3-7,19H,1-2H3,(H,18,20)(H2,17,21,22)",
        "InChIKey": null,
        "Canonical SMILES": "O=C(NC=1C(=CC=CC1C)C)C2=CC(=C(Cl)C=C2O)S(=O)(=O)N",
        "Molecular Formula": "C<sub>15</sub>H<sub>15</sub>ClN<sub>2</sub>O<sub>4</sub>S",
        "Molecular Mass": "354.81",
        "Melting Point": "256 °C"
    }
}