{
    "cas_no": "101-10-0",
    "key_name": "(±)-2-(3-Chlorophenoxy)propionic acid",
    "cn_name": "2-(3-氯苯氧基)丙酸;间氯苯氧异丙酸;",
    "alternate_name": "Propanoic acid, 2-(3-chlorophenoxy)-;Propionic acid, 2-(<em>m</em>-chlorophenoxy)-;2-(3-Chlorophenoxy)propanoic acid;2-(<em>m</em>-Chlorophenoxy)propionic acid;2-(3-Chlorophenoxy)propionic acid;Metachlorphenprop;3CP;α-(3-Chlorophenoxy)propionic acid;CP;Cloprop;(±)-2-(3-Chlorophenoxy)propionic acid;Fruitone CPA;Swelpine;(<em>RS</em>)-2-(3-Chlorophenoxy)propionic acid;3-CPPA",
    "duplicated_cas_no": "87860-36-4",
    "SMILES": "O(C(C(O)=O)C)C1=CC(Cl)=CC=C1",
    "meta_data": {
        "InChI": "InChI=1S/C9H9ClO3/c1-6(9(11)12)13-8-4-2-3-7(10)5-8/h2-6H,1H3,(H,11,12)",
        "InChIKey": null,
        "Canonical SMILES": "O=C(O)C(OC=1C=CC=C(Cl)C1)C",
        "Molecular Formula": "C<sub>9</sub>H<sub>9</sub>ClO<sub>3</sub>",
        "Molecular Mass": "200.62",
        "Melting Point": "113-114 °C"
    }
}