{
    "cas_no": "656-53-1",
    "key_name": "5-Thiazoleethanol, 4-methyl-, 5-acetate",
    "cn_name": "4-甲基-5-(2-乙酰氧乙基)噻唑;4-甲基-5-乙酰氧乙基噻唑;",
    "alternate_name": "5-Thiazoleethanol, 4-methyl-, 5-acetate;5-Thiazoleethanol, 4-methyl-, acetate (ester);5-Thiazoleethanol, 4-methyl-, acetate;5-(2-Acetoxyethyl)-4-methylthiazole;4-Methyl-5-(β-acetoxyethyl)thiazole;2-(4-Methylthiazol-5-yl)ethylacetate;2-(4-Methyl-1,3-thiazol-5-yl)ethyl acetate",
    "duplicated_cas_no": "",
    "SMILES": "C(COC(C)=O)C1=C(C)N=CS1",
    "meta_data": {
        "InChI": "InChI=1S/C8H11NO2S/c1-6-8(12-5-9-6)3-4-11-7(2)10/h5H,3-4H2,1-2H3",
        "InChIKey": null,
        "Canonical SMILES": "O=C(OCCC=1SC=NC1C)C",
        "Molecular Formula": "C<sub>8</sub>H<sub>11</sub>NO<sub>2</sub>S",
        "Molecular Mass": "185.24",
        "Boiling Point": "123 °C @ Press: 4 Torr",
        "Melting Point": "112 °C"
    }
}