{
    "cas_no": "2831-60-9",
    "key_name": "2-(2,4-Dinitrophenoxy)ethanol",
    "cn_name": null,
    "alternate_name": "Ethanol, 2-(2,4-dinitrophenoxy)-;2-(2,4-Dinitrophenoxy)ethanol;β-Hydroxyethyl 2,4-dinitrophenyl ether;1-(2-Hydroxyethoxy)-2,4-dinitrobenzene;1-(β-Hydroxyethoxy)-2,4-dinitrobenzene;NSC 28669;2-(2,4-Dinitrophenoxy)ethan-1-ol",
    "duplicated_cas_no": "",
    "SMILES": "N(=O)(=O)C1=C(OCCO)C=CC(N(=O)=O)=C1",
    "meta_data": {
        "InChI": "InChI=1S/C8H8N2O6/c11-3-4-16-8-2-1-6(9(12)13)5-7(8)10(14)15/h1-2,5,11H,3-4H2",
        "InChIKey": null,
        "Canonical SMILES": "O=N(=O)C1=CC=C(OCCO)C(=C1)N(=O)=O",
        "Molecular Formula": "C<sub>8</sub>H<sub>8</sub>N<sub>2</sub>O<sub>6</sub>",
        "Molecular Mass": "228.16",
        "Melting Point": "109 °C"
    }
}