{
    "cas_no": "401-55-8",
    "key_name": "Acetic acid, 2-bromo-2-fluoro-, ethyl ester",
    "cn_name": "溴氟乙酸乙酯;",
    "alternate_name": "Acetic acid, 2-bromo-2-fluoro-, ethyl ester;Acetic acid, bromofluoro-, ethyl ester;Ethyl bromofluoroacetate;Bromofluoroacetic acid ethyl ester;Ethyl 2-bromo-2-fluoroacetate;2-Bromo-2-fluoroacetic acid ethyl ester;Ethyl 2-fluoro-2-bromoacetate",
    "duplicated_cas_no": "126215-61-0",
    "SMILES": "C(OCC)(C(Br)F)=O",
    "meta_data": {
        "InChI": "InChI=1S/C4H6BrFO2/c1-2-8-4(7)3(5)6/h3H,2H2,1H3",
        "InChIKey": null,
        "Canonical SMILES": "O=C(OCC)C(F)Br",
        "Molecular Formula": "C<sub>4</sub>H<sub>6</sub>BrFO<sub>2</sub>",
        "Molecular Mass": "184.99",
        "Boiling Point": "68 °C @ Press: 34 Torr",
        "Density": "1.565 g/cm³"
    }
}