{
    "cas_no": "23560-59-0",
    "key_name": "Heptenophos",
    "cn_name": "庚烯磷;HOE2982；蚜螨磷；OMSl845；AEF002982；7-氯双环-[3，2，0]庚0-，6-二烯-6-基二甲基磷酸酯;",
    "alternate_name": "Phosphoric acid, 7-chlorobicyclo[3.2.0]hepta-2,6-dien-6-yl dimethyl ester;Bicyclo[3.2.0]heptane, phosphoric acid deriv.;4-(<em>O</em>,<em>O</em>-Dimethylphosphoryl)-5-chlorobicyclo[3.2.0]hepta-1,4-diene;Heptenophos;Hostaquick;XOE 2982;Ragadan;Heptenofos",
    "duplicated_cas_no": "77107-77-8",
    "SMILES": "O(P(OC)(OC)=O)C=1C2C(C1Cl)C=CC2",
    "meta_data": {
        "InChI": "InChI=1S/C9H12ClO4P/c1-12-15(11,13-2)14-9-7-5-3-4-6(7)8(9)10/h3-4,6-7H,5H2,1-2H3",
        "InChIKey": null,
        "Canonical SMILES": "O=P(OC1=C(Cl)C2C=CCC12)(OC)OC",
        "Molecular Formula": "C<sub>9</sub>H<sub>12</sub>ClO<sub>4</sub>P",
        "Molecular Mass": "250.62",
        "Boiling Point": "64 °C @ Press: 0.075 Torr",
        "Melting Point": "&lt;25 °C",
        "Density": "1.28 g/cm³ @ Temp: 20 °C"
    }
}