{
    "cas_no": "3010-03-5",
    "key_name": "1-Piperidineacetonitrile",
    "cn_name": "哌啶基乙腈;",
    "alternate_name": "1-Piperidineacetonitrile;Piperidinoacetonitrile;<em>N</em>-(Cyanomethyl)piperidine;NSC 26716;NSC 47261;NSC 62871;2-(Piperidin-1-yl)acetonitrile;2-Piperidinoacetonitrile",
    "duplicated_cas_no": "",
    "SMILES": "C(C#N)N1CCCCC1",
    "meta_data": {
        "InChI": "InChI=1S/C7H12N2/c8-4-7-9-5-2-1-3-6-9/h1-3,5-7H2",
        "InChIKey": null,
        "Canonical SMILES": "N#CCN1CCCCC1",
        "Molecular Formula": "C<sub>7</sub>H<sub>12</sub>N<sub>2</sub>",
        "Molecular Mass": "124.18",
        "Boiling Point": "83 °C @ Press: 9 Torr",
        "Melting Point": "19 °C"
    }
}