{
    "cas_no": "52806-53-8",
    "key_name": "Hydroxyflutamide",
    "cn_name": "羟基氟他胺;",
    "alternate_name": "Propanamide, 2-hydroxy-2-methyl-<em>N</em>-[4-nitro-3-(trifluoromethyl)phenyl]-;2-Hydroxy-2-methyl-<em>N</em>-[4-nitro-3-(trifluoromethyl)phenyl]propanamide;α,α,α-Trifluoro-2-methyl-4′-nitro-<em>m</em>-lactotoluidide;Sch 16423;Hydroxyniphtholide;Hydroxyflutamide;2-Hydroxyflutamide",
    "duplicated_cas_no": "",
    "SMILES": "C(F)(F)(F)C1=C(N(=O)=O)C=CC(NC(C(C)(C)O)=O)=C1",
    "meta_data": {
        "InChI": "InChI=1S/C11H11F3N2O4/c1-10(2,18)9(17)15-6-3-4-8(16(19)20)7(5-6)11(12,13)14/h3-5,18H,1-2H3,(H,15,17)",
        "InChIKey": null,
        "Canonical SMILES": "O=C(NC1=CC=C(C(=C1)C(F)(F)F)N(=O)=O)C(O)(C)C",
        "Molecular Formula": "C<sub>11</sub>H<sub>11</sub>F<sub>3</sub>N<sub>2</sub>O<sub>4</sub>",
        "Molecular Mass": "292.21",
        "Melting Point": "149-151 °C"
    }
}