{
    "cas_no": "154598-52-4",
    "key_name": "Efavirenz",
    "cn_name": null,
    "alternate_name": "2<em>H</em>-3,1-Benzoxazin-2-one, 6-chloro-4-(2-cyclopropylethynyl)-1,4-dihydro-4-(trifluoromethyl)-, (4<em>S</em>)-;2<em>H</em>-3,1-Benzoxazin-2-one, 6-chloro-4-(cyclopropylethynyl)-1,4-dihydro-4-(trifluoromethyl)-, (<em>S</em>)-;2<em>H</em>-3,1-Benzoxazin-2-one, 6-chloro-4-(cyclopropylethynyl)-1,4-dihydro-4-(trifluoromethyl)-, (4<em>S</em>)-;(4<em>S</em>)-6-Chloro-4-(2-cyclopropylethynyl)-1,4-dihydro-4-(trifluoromethyl)-2<em>H</em>-3,1-benzoxazin-2-one;L 743726;DMP 266;Efavirenz;Sustiva;Stocrin;(-)-Efavirenz;EFV;(<em>S</em>)-6-Chloro-4-(2-cyclopropylethynyl)-1,4-dihydro-4-(trifluoromethyl)-2<em>H</em>-3,1-benzoxazin-2-one;(<em>S</em>)-4-(2-Cyclopropylethynyl)-6-chloro-4-(trifluoromethyl)-1,4-dihydro-2<em>H</em>-3,1-benzoxazin-2-one;(<em>S</em>)-4-(Cyclopropylethynyl)-6-chloro-4-(trifluoromethyl)-1,4-dihydro-2<em>H</em>-3,1-benzoxazin-2-one;(<em>S</em>)-Efavirenz;(4S)-6-Chloro-4-(2-cyclopropylethynyl)-4-(trifluoromethyl)-1<em>H</em>-3,1-benzoxazin-2-one",
    "duplicated_cas_no": "",
    "SMILES": "C(#CC1CC1)[C@@]2(C(F)(F)F)C=3C(NC(=O)O2)=CC=C(Cl)C3",
    "meta_data": {
        "InChI": "InChI=1S/C14H9ClF3NO2/c15-9-3-4-11-10(7-9)13(14(16,17)18,21-12(20)19-11)6-5-8-1-2-8/h3-4,7-8H,1-2H2,(H,19,20)/t13-/m0/s1",
        "InChIKey": null,
        "Canonical SMILES": "O=C1OC(C#CC2CC2)(C3=CC(Cl)=CC=C3N1)C(F)(F)F",
        "Molecular Formula": "C<sub>14</sub>H<sub>9</sub>ClF<sub>3</sub>NO<sub>2</sub>",
        "Molecular Mass": "315.67",
        "Melting Point": "139-141 °C",
        "Density": "1.486 g/cm³"
    }
}