{
    "cas_no": "65355-30-8",
    "key_name": "4-(<em>trans</em>-4-Pentylcyclohexyl)benzoic acid",
    "cn_name": "反式-4-戊基环己基苯甲酸;",
    "alternate_name": "Benzoic acid, 4-(<em>trans</em>-4-pentylcyclohexyl)-;Benzoic acid, 4-(4-pentylcyclohexyl)-, <em>trans</em>-;4-(<em>trans</em>-4-Pentylcyclohexyl)benzoic acid;<em>p</em>-(<em>trans</em>-4-Pentylcyclohexyl)benzoic acid;4′-(4-<em>trans</em>-Pentylcyclohexyl)benzoic acid;<em>trans</em>-4-(4-<em>n</em>-Pentylcyclohexyl)benzoic acid",
    "duplicated_cas_no": "",
    "SMILES": "C(CCCC)[C@H]1CC[C@@H](CC1)C2=CC=C(C(O)=O)C=C2",
    "meta_data": {
        "InChI": "InChI=1/C18H26O2/c1-2-3-4-5-14-6-8-15(9-7-14)16-10-12-17(13-11-16)18(19)20/h10-15H,2-9H2,1H3,(H,19,20)/t14-,15-",
        "InChIKey": null,
        "Canonical SMILES": "O=C(O)C1=CC=C(C=C1)C2CCC(CCCCC)CC2",
        "Molecular Formula": "C<sub>18</sub>H<sub>26</sub>O<sub>2</sub>",
        "Molecular Mass": "274.40",
        "Melting Point": "152-155 °C"
    }
}