{
    "cas_no": "100-71-0",
    "key_name": "2-Ethylpyridine",
    "cn_name": "2-乙基吡啶;",
    "alternate_name": "Pyridine, 2-ethyl-;2-Ethylpyridine;α-Ethylpyridine;NSC 964",
    "duplicated_cas_no": "",
    "SMILES": "C(C)C1=CC=CC=N1",
    "meta_data": {
        "InChI": "InChI=1S/C7H9N/c1-2-7-5-3-4-6-8-7/h3-6H,2H2,1H3",
        "InChIKey": null,
        "Canonical SMILES": "N=1C=CC=CC1CC",
        "Molecular Formula": "C<sub>7</sub>H<sub>9</sub>N",
        "Molecular Mass": "107.15",
        "Boiling Point": "148.6 °C",
        "Melting Point": "-63.1 °C",
        "Density": "0.9325 g/cm³ @ Temp: 25 °C"
    }
}