{
    "cas_no": "94201-40-8",
    "key_name": "1-Phenyl-4-piperidinecarboxylic acid",
    "cn_name": null,
    "alternate_name": "4-Piperidinecarboxylic acid, 1-phenyl-;1-Phenyl-4-piperidinecarboxylic acid;1-Phenylpiperidine-4-carboxylic acid",
    "duplicated_cas_no": "",
    "SMILES": "C(O)(=O)C1CCN(CC1)C2=CC=CC=C2",
    "meta_data": {
        "InChI": "InChI=1S/C12H15NO2/c14-12(15)10-6-8-13(9-7-10)11-4-2-1-3-5-11/h1-5,10H,6-9H2,(H,14,15)",
        "InChIKey": null,
        "Canonical SMILES": "O=C(O)C1CCN(C=2C=CC=CC2)CC1",
        "Molecular Formula": "C<sub>12</sub>H<sub>15</sub>NO<sub>2</sub>",
        "Molecular Mass": "205.25",
        "Melting Point": "131 °C"
    }
}