{
    "cas_no": "32503-34-7",
    "key_name": "Tetrahexylammonium hydrogen sulfate",
    "cn_name": "四己基硫酸氢铵;",
    "alternate_name": "1-Hexanaminium, <em>N</em>,<em>N</em>,<em>N</em>-trihexyl-, sulfate (1:1);Ammonium, tetrahexyl-, sulfate (1:1);Hydrogen tetrahexylammonium sulfate;Tetrahexylammonium hydrogen sulfate;Tetrahexylammonium bisulfate;Tetra(<em>n</em>-hexyl)ammonium hydrogen sulfate",
    "duplicated_cas_no": "",
    "SMILES": "[N+](CCCCCC)(CCCCCC)(CCCCCC)CCCCCC.S(=O)(=O)([O-])O",
    "meta_data": {
        "InChI": "InChI=1S/C24H52N.H2O4S/c1-5-9-13-17-21-25(22-18-14-10-6-2,23-19-15-11-7-3)24-20-16-12-8-4;1-5(2,3)4/h5-24H2,1-4H3;(H2,1,2,3,4)/q+1;/p-1",
        "InChIKey": null,
        "Canonical SMILES": "O=S(=O)([O-])O.CCCCCC[N+](CCCCCC)(CCCCCC)CCCCCC",
        "Molecular Formula": "C<sub>24</sub>H<sub>52</sub>N.HO<sub>4</sub>S",
        "Molecular Mass": "",
        "Melting Point": "97-98 °C"
    }
}