{
    "cas_no": "1642-81-5",
    "key_name": "4-(Chloromethyl)benzoic acid",
    "cn_name": null,
    "alternate_name": "Benzoic acid, 4-(chloromethyl)-;<em>p</em>-Toluic acid, α-chloro-;4-(Chloromethyl)benzoic acid;<em>p</em>-(Chloromethyl)benzoic acid;α-Chloro-<em>p</em>-toluic acid;NSC 123935;4-(Chloromethyl)benzenecarboxylic acid",
    "duplicated_cas_no": "",
    "SMILES": "C(O)(=O)C1=CC=C(CCl)C=C1",
    "meta_data": {
        "InChI": "InChI=1S/C8H7ClO2/c9-5-6-1-3-7(4-2-6)8(10)11/h1-4H,5H2,(H,10,11)",
        "InChIKey": null,
        "Canonical SMILES": "O=C(O)C1=CC=C(C=C1)CCl",
        "Molecular Formula": "C<sub>8</sub>H<sub>7</sub>ClO<sub>2</sub>",
        "Molecular Mass": "170.59",
        "Boiling Point": "201-203 °C",
        "Melting Point": "196 °C"
    }
}