{
    "cas_no": "104-66-5",
    "key_name": "1,2-Diphenoxyethane",
    "cn_name": "1,2-二苯氧基乙烷;",
    "alternate_name": "Benzene, 1,1′-[1,2-ethanediylbis(oxy)]bis-;Ethane, 1,2-diphenoxy-;1,1′-[1,2-Ethanediylbis(oxy)]bis[benzene];1,2-Diphenoxyethane;Ethylene glycol diphenyl ether;2-Phenoxyethyl phenyl ether;NSC 6794;(2-Phenoxyethoxy)benzene;2-Phenoxyethoxybenzene",
    "duplicated_cas_no": "",
    "SMILES": "O(CCOC1=CC=CC=C1)C2=CC=CC=C2",
    "meta_data": {
        "InChI": "InChI=1S/C14H14O2/c1-3-7-13(8-4-1)15-11-12-16-14-9-5-2-6-10-14/h1-10H,11-12H2",
        "InChIKey": null,
        "Canonical SMILES": "O(C=1C=CC=CC1)CCOC=2C=CC=CC2",
        "Molecular Formula": "C<sub>14</sub>H<sub>14</sub>O<sub>2</sub>",
        "Molecular Mass": "214.26",
        "Boiling Point": "182 °C",
        "Melting Point": "98 °C"
    }
}