{
    "cas_no": "56430-08-1",
    "key_name": "1,2-Dihydro-1,5-dimethyl-2-(4-methylphenyl)-3<em>H</em>-pyrazol-3-one",
    "cn_name": null,
    "alternate_name": "3<em>H</em>-Pyrazol-3-one, 1,2-dihydro-1,5-dimethyl-2-(4-methylphenyl)-;3-Pyrazolin-5-one, 2,3-dimethyl-1-<em>p</em>-tolyl-;1,2-Dihydro-1,5-dimethyl-2-(4-methylphenyl)-3<em>H</em>-pyrazol-3-one;2,3-Dimethyl-1-(4-methylphenyl)-3-pyrazolin-5-one;1,5-Dimethyl-2-(4-methylphenyl)pyrazol-3-one;1,5-Dimethyl-2-(<em>p</em>-tolyl)-1<em>H</em>-pyrazol-3(2<em>H</em>)-one;2,3-Dimethyl-1-(4-methylphenyl)-3-pyrazoline-5-one",
    "duplicated_cas_no": "",
    "SMILES": "O=C1N(N(C)C(C)=C1)C2=CC=C(C)C=C2",
    "meta_data": {
        "InChI": "InChI=1S/C12H14N2O/c1-9-4-6-11(7-5-9)14-12(15)8-10(2)13(14)3/h4-8H,1-3H3",
        "InChIKey": null,
        "Canonical SMILES": "O=C1C=C(N(N1C2=CC=C(C=C2)C)C)C",
        "Molecular Formula": "C<sub>12</sub>H<sub>14</sub>N<sub>2</sub>O",
        "Molecular Mass": "202.25",
        "Melting Point": "147.8-148.6 °C"
    }
}