{
    "cas_no": "5744-70-7",
    "key_name": "5-Bromo-1,3-dimethyl-1<em>H</em>-pyrazole",
    "cn_name": "5-溴-1,3-二甲基-1H-吡唑;",
    "alternate_name": "1<em>H</em>-Pyrazole, 5-bromo-1,3-dimethyl-;Pyrazole, 5-bromo-1,3-dimethyl-;5-Bromo-1,3-dimethyl-1<em>H</em>-pyrazole;5-Bromo-1,3-dimethylpyrazole",
    "duplicated_cas_no": "",
    "SMILES": "BrC=1N(C)N=C(C)C1",
    "meta_data": {
        "InChI": "InChI=1S/C5H7BrN2/c1-4-3-5(6)8(2)7-4/h3H,1-2H3",
        "InChIKey": null,
        "Canonical SMILES": "BrC1=CC(=NN1C)C",
        "Molecular Formula": "C<sub>5</sub>H<sub>7</sub>BrN<sub>2</sub>",
        "Molecular Mass": "175.03",
        "Boiling Point": "90 °C @ Press: 30 Torr"
    }
}