{
    "cas_no": "94-66-6",
    "key_name": "2-Allylcyclohexanone",
    "cn_name": "2-烯丙基环己酮;",
    "alternate_name": "Cyclohexanone, 2-(2-propen-1-yl)-;Cyclohexanone, 2-allyl-;Cyclohexanone, 2-(2-propenyl)-;2-(2-Propen-1-yl)cyclohexanone;2-Allylcyclohexanone;NSC 128921;2-(2-Propenyl)cyclohexanone;2-Allylcyclohexan-1-one;2-(Prop-2-en-1-yl)cyclohexan-1-one",
    "duplicated_cas_no": "115182-22-4",
    "SMILES": "C(C=C)C1C(=O)CCCC1",
    "meta_data": {
        "InChI": "InChI=1S/C9H14O/c1-2-5-8-6-3-4-7-9(8)10/h2,8H,1,3-7H2",
        "InChIKey": null,
        "Canonical SMILES": "O=C1CCCCC1CC=C",
        "Molecular Formula": "C<sub>9</sub>H<sub>14</sub>O",
        "Molecular Mass": "138.21",
        "Boiling Point": "94 °C @ Press: 16 Torr",
        "Density": "0.927 g/cm³ @ Temp: 22 °C"
    }
}