{
    "cas_no": "23503-68-6",
    "key_name": "2-(Methylsulfonyl)-10<em>H</em>-phenothiazine",
    "cn_name": null,
    "alternate_name": "10<em>H</em>-Phenothiazine, 2-(methylsulfonyl)-;Phenothiazine, 2-(methylsulfonyl)-;2-(Methylsulfonyl)-10<em>H</em>-phenothiazine",
    "duplicated_cas_no": "30887-32-2",
    "SMILES": "S(C)(=O)(=O)C=1C=C2C(SC=3C(N2)=CC=CC3)=CC1",
    "meta_data": {
        "InChI": "InChI=1S/C13H11NO2S2/c1-18(15,16)9-6-7-13-11(8-9)14-10-4-2-3-5-12(10)17-13/h2-8,14H,1H3",
        "InChIKey": null,
        "Canonical SMILES": "O=S(=O)(C1=CC=C2SC=3C=CC=CC3NC2=C1)C",
        "Molecular Formula": "C<sub>13</sub>H<sub>11</sub>NO<sub>2</sub>S<sub>2</sub>",
        "Molecular Mass": "277.36",
        "Melting Point": "156.5-158.0 °C"
    }
}