{
    "cas_no": "486460-32-6",
    "key_name": "Sitagliptin",
    "cn_name": "西他列汀;(3R)-3-氨基-1-[3-(三氟甲基)-5,6,7,8-四氢-1,2,4-三唑并[4,3-a]吡嗪-7-基]-4-(2,4,5-三氟苯基)丁;",
    "alternate_name": "1-Butanone, 3-amino-1-[5,6-dihydro-3-(trifluoromethyl)-1,2,4-triazolo[4,3-<em>a</em>]pyrazin-7(8<em>H</em>)-yl]-4-(2,4,5-trifluorophenyl)-, (3<em>R</em>)-;1,2,4-Triazolo[4,3-<em>a</em>]pyrazine, 7-[(3<em>R</em>)-3-amino-1-oxo-4-(2,4,5-trifluorophenyl)butyl]-5,6,7,8-tetrahydro-3-(trifluoromethyl)-;(3<em>R</em>)-3-Amino-1-[5,6-dihydro-3-(trifluoromethyl)-1,2,4-triazolo[4,3-<em>a</em>]pyrazin-7(8<em>H</em>)-yl]-4-(2,4,5-trifluorophenyl)-1-butanone;(2<em>R</em>)-4-Oxo-4-[3-(trifluoromethyl)-5,6-dihydro-[1,2,4]triazolo[4,3-<em>a</em>]pyrazin-7(8<em>H</em>)-yl]-1-(2,4,5-trifluorophenyl)butan-2-amine;Sitagliptin;3(<em>R</em>)-Amino-1-[3-(trifluoromethyl)-5,6,7,8-tetrahydro-[1,2,4]triazolo[4,3-<em>a</em>]pyrazin-7-yl]-4-(2,4,5-trifluorophenyl)butan-1-one;7-[(3<em>R</em>)-3-Amino-1-oxo-4-(2,4,5-trifluorophenyl)butyl]-5,6,7,8-tetrahydro-3-(trifluoromethyl)-1,2,4-triazolo[4,3-<em>a</em>]pyrazine;(3R)-3-Amino-1-[3-(trifluoromethyl)-5<em>H</em>,6<em>H</em>,7<em>H</em>,8<em>H</em>-[1,2,4]triazolo[4,3-<em>a</em>]pyrazin-7-yl]-4-(2,4,5-trifluorophenyl)butan-1-one;(3R)-3-Amino-1-[3-(trifluoromethyl)-6,8-dihydro-5<em>H</em>-[1,2,4]triazolo[4,3-<em>a</em>]pyrazin-7-yl]-4-(2,4,5-trifluorophenyl)butan-1-one;Xelevia;Tesavel;Ristaben;Januvia FC",
    "duplicated_cas_no": "2755916-94-8",
    "SMILES": "C(F)(F)(F)C=1N2C(CN(C(C[C@@H](CC3=C(F)C=C(F)C(F)=C3)N)=O)CC2)=NN1",
    "meta_data": {
        "InChI": "InChI=1S/C16H15F6N5O/c17-10-6-12(19)11(18)4-8(10)3-9(23)5-14(28)26-1-2-27-13(7-26)24-25-15(27)16(20,21)22/h4,6,9H,1-3,5,7,23H2/t9-/m1/s1",
        "InChIKey": null,
        "Canonical SMILES": "O=C(N1CC2=NN=C(N2CC1)C(F)(F)F)CC(N)CC3=CC(F)=C(F)C=C3F",
        "Molecular Formula": "C<sub>16</sub>H<sub>15</sub>F<sub>6</sub>N<sub>5</sub>O",
        "Molecular Mass": "407.31",
        "Melting Point": "114.1-115.7 °C"
    }
}