{
    "cas_no": "33543-55-4",
    "key_name": "<em>O</em>-(4-Nitrophenyl)hydroxylamine",
    "cn_name": null,
    "alternate_name": "Hydroxylamine, <em>O</em>-(4-nitrophenyl)-;Hydroxylamine, <em>O</em>-(<em>p</em>-nitrophenyl)-;<em>O</em>-(4-Nitrophenyl)hydroxylamine;<em>p</em>-Nitrophenoxyamine;<em>O</em>-(<em>p</em>-Nitrophenyl)hydroxylamine",
    "duplicated_cas_no": "2920064-02-2",
    "SMILES": "N(=O)(=O)C1=CC=C(ON)C=C1",
    "meta_data": {
        "InChI": "InChI=1S/C6H6N2O3/c7-11-6-3-1-5(2-4-6)8(9)10/h1-4H,7H2",
        "InChIKey": null,
        "Canonical SMILES": "O=N(=O)C1=CC=C(ON)C=C1",
        "Molecular Formula": "C<sub>6</sub>H<sub>6</sub>N<sub>2</sub>O<sub>3</sub>",
        "Molecular Mass": "154.12",
        "Melting Point": "122 °C"
    }
}