{
    "cas_no": "14977-61-8",
    "key_name": "(<em>T</em>-4)-Dichlorodioxochromium",
    "cn_name": "二氯二氧化铬;",
    "alternate_name": "Chromium, dichlorodioxo-, (<em>T</em>-4)-;Chromium, dichlorodioxo-;Chromyl chloride;(<em>T</em>-4)-Dichlorodioxochromium;Chromium oxychloride (CrO<sub>2</sub>Cl<sub>2</sub>);Chromium chloride oxide (CrO<sub>2</sub>Cl<sub>2</sub>);Chromyl chloride (CrO<sub>2</sub>Cl<sub>2</sub>);Dichlorodioxochromium;Chromium dioxide dichloride;Chromium oxide chloride (CrO<sub>2</sub>Cl<sub>2</sub>);Chromium dichloride dioxide;Chromium chloride oxide (CrCl<sub>2</sub>O<sub>2</sub>);Chromium oxychloride (CrCl<sub>2</sub>O<sub>2</sub>);Chromyl dichloride;Chromyl chloride (CrCl<sub>2</sub>O<sub>2</sub>);Chromium(VI) dioxychloride",
    "duplicated_cas_no": "7791-14-2;34848-09-4",
    "SMILES": "[Cr](Cl)(Cl)(=O)=O",
    "meta_data": {
        "InChI": "InChI=1S/2ClH.Cr.2O/h2*1H;;;/q;;+2;;/p-2",
        "InChIKey": null,
        "Canonical SMILES": "O=[Cr](=O)(Cl)Cl",
        "Molecular Formula": "Cl<sub>2</sub>CrO<sub>2</sub>",
        "Molecular Mass": "",
        "Boiling Point": "117 °C",
        "Melting Point": "-96.5 °C",
        "Density": "1.91 g/cm³ @ Temp: 25 °C"
    }
}