{
    "cas_no": "501433-06-3",
    "key_name": "2,3-Difluoro-1,4-diiodobenzene",
    "cn_name": null,
    "alternate_name": "Benzene, 2,3-difluoro-1,4-diiodo-;2,3-Difluoro-1,4-diiodobenzene",
    "duplicated_cas_no": "",
    "SMILES": "FC1=C(F)C(I)=CC=C1I",
    "meta_data": {
        "InChI": "InChI=1S/C6H2F2I2/c7-5-3(9)1-2-4(10)6(5)8/h1-2H",
        "InChIKey": null,
        "Canonical SMILES": "FC1=C(F)C(I)=CC=C1I",
        "Molecular Formula": "C<sub>6</sub>H<sub>2</sub>F<sub>2</sub>I<sub>2</sub>",
        "Molecular Mass": "365.89",
        "Melting Point": "52-54 °C"
    }
}