{
    "cas_no": "625-45-6",
    "key_name": "Methoxyacetic acid",
    "cn_name": "甲氧基乙酸;",
    "alternate_name": "Acetic acid, 2-methoxy-;Acetic acid, methoxy-;2-Methoxyacetic acid;Methoxyacetic acid;Methoxyethanoic acid;NSC 7300",
    "duplicated_cas_no": "",
    "SMILES": "C(C(O)=O)OC",
    "meta_data": {
        "InChI": "InChI=1S/C3H6O3/c1-6-2-3(4)5/h2H2,1H3,(H,4,5)",
        "InChIKey": null,
        "Canonical SMILES": "O=C(O)COC",
        "Molecular Formula": "C<sub>3</sub>H<sub>6</sub>O<sub>3</sub>",
        "Molecular Mass": "90.08",
        "Boiling Point": "203.5 °C",
        "Melting Point": "7.7 °C"
    }
}