{
    "cas_no": "831-61-8",
    "key_name": "Ethyl gallate",
    "cn_name": "没食子酸乙酯;3,4,5-三羟基苯甲酸乙酯;",
    "alternate_name": "Benzoic acid, 3,4,5-trihydroxy-, ethyl ester;Gallic acid, ethyl ester;Phyllemblin;Ethyl gallate;Nipagallin A;Nipa No. 48;Progallin A;3,4,5-Trihydroxybenzoic acid ethyl ester;Ethyl 3,4,5-trihydroxybenzoate;NSC 402626",
    "duplicated_cas_no": "52441-13-1",
    "SMILES": "C(OCC)(=O)C1=CC(O)=C(O)C(O)=C1",
    "meta_data": {
        "InChI": "InChI=1S/C9H10O5/c1-2-14-9(13)5-3-6(10)8(12)7(11)4-5/h3-4,10-12H,2H2,1H3",
        "InChIKey": null,
        "Canonical SMILES": "O=C(OCC)C1=CC(O)=C(O)C(O)=C1",
        "Molecular Formula": "C<sub>9</sub>H<sub>10</sub>O<sub>5</sub>",
        "Molecular Mass": "198.17",
        "Melting Point": "154-155 °C"
    }
}