{
    "cas_no": "13865-19-5",
    "key_name": "Methyl 4-oxobutanoate",
    "cn_name": "4-氧丁酸甲基酯;4-氧丁酸甲酯;",
    "alternate_name": "Butanoic acid, 4-oxo-, methyl ester;Succinaldehydic acid, methyl ester;Methyl 4-oxobutanoate;Methyl β-formylpropionate;3-(Methoxycarbonyl)propionaldehyde;Methyl 3-formylpropionate;β-(Methoxycarbonyl)propionaldehyde;Methyl 4-oxobutyrate;3-Carbomethoxypropionaldehyde;β-Carbomethoxypropionaldehyde;3-Formylpropionic acid methyl ester;Methoxycarbonylpropanal;3-(Methoxycarbonyl)propanal;4-Oxobutanoic acid methyl ester;Methyl 3-formylpropanoate;4-Oxobutyric acid methyl ester",
    "duplicated_cas_no": "",
    "SMILES": "C(CCC=O)(OC)=O",
    "meta_data": {
        "InChI": "InChI=1S/C5H8O3/c1-8-5(7)3-2-4-6/h4H,2-3H2,1H3",
        "InChIKey": null,
        "Canonical SMILES": "O=CCCC(=O)OC",
        "Molecular Formula": "C<sub>5</sub>H<sub>8</sub>O<sub>3</sub>",
        "Molecular Mass": "116.12",
        "Boiling Point": "62 °C @ Press: 10 Torr"
    }
}