{
    "cas_no": "542-76-7",
    "key_name": "3-Chloropropanenitrile",
    "cn_name": "3-氯丙腈;",
    "alternate_name": "Propanenitrile, 3-chloro-;Propionitrile, 3-chloro-;3-Chloropropanenitrile;3-Chloropropanonitrile;β-Chloropropionitrile;3-Chloropropionitrile;1-Chloro-2-cyanoethane;2-Cyanoethyl chloride;NSC 2588",
    "duplicated_cas_no": "",
    "SMILES": "C(CCl)C#N",
    "meta_data": {
        "InChI": "InChI=1S/C3H4ClN/c4-2-1-3-5/h1-2H2",
        "InChIKey": null,
        "Canonical SMILES": "N#CCCCl",
        "Molecular Formula": "C<sub>3</sub>H<sub>4</sub>ClN",
        "Molecular Mass": "89.52",
        "Boiling Point": "175-176 °C",
        "Melting Point": "-51 °C",
        "Density": "1.1573 g/cm³ @ Temp: 20 °C"
    }
}