{
    "cas_no": "350-51-6",
    "key_name": "3-Fluorostyrene",
    "cn_name": "3-氟苯乙烯;",
    "alternate_name": "Benzene, 1-ethenyl-3-fluoro-;Styrene, <em>m</em>-fluoro-;1-Ethenyl-3-fluorobenzene;5-Fluorostyrene;<em>m</em>-Fluorostyrene;3-Fluorostyrene;1-Fluoro-3-vinylbenzene",
    "duplicated_cas_no": "",
    "SMILES": "C(=C)C1=CC(F)=CC=C1",
    "meta_data": {
        "InChI": "InChI=1S/C8H7F/c1-2-7-4-3-5-8(9)6-7/h2-6H,1H2",
        "InChIKey": null,
        "Canonical SMILES": "FC1=CC=CC(C=C)=C1",
        "Molecular Formula": "C<sub>8</sub>H<sub>7</sub>F",
        "Molecular Mass": "122.14",
        "Boiling Point": "30-31 °C @ Press: 4 Torr",
        "Density": "1.025 g/cm³ @ Temp: 20 °C"
    }
}