{
    "cas_no": "878-00-2",
    "key_name": "4-(Acetyloxy)benzaldehyde",
    "cn_name": "4-乙酰氧基苯甲醛;",
    "alternate_name": "Benzaldehyde, 4-(acetyloxy)-;Benzaldehyde, <em>p</em>-hydroxy-, acetate;4-(Acetyloxy)benzaldehyde;<em>p</em>-Acetoxybenzaldehyde;4-Acetoxybenzaldehyde;<em>p</em>-Hydroxybenzaldehyde acetate;4-Formylphenyl acetate;NSC 40537;Acetic acid 4-formylphenyl ester",
    "duplicated_cas_no": "",
    "SMILES": "O(C(C)=O)C1=CC=C(C=O)C=C1",
    "meta_data": {
        "InChI": "InChI=1S/C9H8O3/c1-7(11)12-9-4-2-8(6-10)3-5-9/h2-6H,1H3",
        "InChIKey": null,
        "Canonical SMILES": "O=CC1=CC=C(OC(=O)C)C=C1",
        "Molecular Formula": "C<sub>9</sub>H<sub>8</sub>O<sub>3</sub>",
        "Molecular Mass": "164.16",
        "Boiling Point": "138 °C @ Press: 12 Torr",
        "Melting Point": "213 °C"
    }
}