{
    "cas_no": "13395-02-3",
    "key_name": "Aristolactam",
    "cn_name": null,
    "alternate_name": "Benzo[<em>f</em>]-1,3-benzodioxolo[6,5,4-<em>cd</em>]indol-5(6<em>H</em>)-one, 8-methoxy-;8-Methoxybenzo[<em>f</em>]-1,3-benzodioxolo[6,5,4-<em>cd</em>]indol-5(6<em>H</em>)-one;Aristololactam;Aristolactam;Aristolactam I;Aristololactam I;NSC 87406",
    "duplicated_cas_no": "",
    "SMILES": "O=C1C=2C3=C(C=4C(C=C3N1)=C(OC)C=CC4)C5=C(C2)OCO5",
    "meta_data": {
        "InChI": "InChI=1S/C17H11NO4/c1-20-12-4-2-3-8-9(12)5-11-14-10(17(19)18-11)6-13-16(15(8)14)22-7-21-13/h2-6H,7H2,1H3,(H,18,19)",
        "InChIKey": null,
        "Canonical SMILES": "O=C1NC=2C=C3C(OC)=CC=CC3=C4C=5OCOC5C=C1C24",
        "Molecular Formula": "C<sub>17</sub>H<sub>11</sub>NO<sub>4</sub>",
        "Molecular Mass": "293.27",
        "Melting Point": "319 °C"
    }
}