{
    "cas_no": "2216-69-5",
    "key_name": "1-Methoxynaphthalene",
    "cn_name": "1-甲氧基萘;",
    "alternate_name": "Naphthalene, 1-methoxy-;1-Methoxynaphthalene;1-Naphthyl methyl ether;Methyl 1-naphthyl ether;α-Methoxynaphthalene;α-Naphthyl methyl ether;1-Naphthol methyl ether;NSC 5530",
    "duplicated_cas_no": "",
    "SMILES": "O(C)C=1C2=C(C=CC1)C=CC=C2",
    "meta_data": {
        "InChI": "InChI=1S/C11H10O/c1-12-11-8-4-6-9-5-2-3-7-10(9)11/h2-8H,1H3",
        "InChIKey": null,
        "Canonical SMILES": "O(C1=CC=CC=2C=CC=CC12)C",
        "Molecular Formula": "C<sub>11</sub>H<sub>10</sub>O",
        "Molecular Mass": "158.20",
        "Boiling Point": "269 °C",
        "Melting Point": "&lt;-10 °C",
        "Density": "1.097 g/cm³ @ Temp: 20 °C"
    }
}