{
    "cas_no": "5331-91-9",
    "key_name": "5-Chloro-2-mercaptobenzothiazole",
    "cn_name": "2-巯基-5-氯苯并噻唑;",
    "alternate_name": "2(3<em>H</em>)-Benzothiazolethione, 5-chloro-;2-Benzothiazolethiol, 5-chloro-;5-Chloro-2(3<em>H</em>)-benzothiazolethione;5-Chloro-2-mercaptobenzothiazole;SH-Benzothiazole;5-Chloro-2-benzothiazolethiol;2-Mercapto-5-chlorobenzothiazole;5-Chlorobenzothiazoline-2-thione;5-Chloro-1,3-benzothiazole-2-thiol;NSC 3934;5-Chloro-2-mercaptobenzo[<em>d</em>]thiazole",
    "duplicated_cas_no": "39883-82-4",
    "SMILES": "S=C1SC=2C(N1)=CC(Cl)=CC2",
    "meta_data": {
        "InChI": "InChI=1S/C7H4ClNS2/c8-4-1-2-6-5(3-4)9-7(10)11-6/h1-3H,(H,9,10)",
        "InChIKey": null,
        "Canonical SMILES": "S=C1SC2=CC=C(Cl)C=C2N1",
        "Molecular Formula": "C<sub>7</sub>H<sub>4</sub>ClNS<sub>2</sub>",
        "Molecular Mass": "201.70",
        "Melting Point": "201-202 °C"
    }
}