{
    "cas_no": "20196-89-8",
    "key_name": "Kaempferol-7-<em>O</em>-α-<span class=\"text-smallcaps\">L</span>-rhamnoside",
    "cn_name": null,
    "alternate_name": "4<em>H</em>-1-Benzopyran-4-one, 7-[(6-deoxy-α-<span class=\"text-smallcaps\">L</span>-mannopyranosyl)oxy]-3,5-dihydroxy-2-(4-hydroxyphenyl)-;α-Rhamnoisorobin;Kaempferol 7-rhamnoside;7-[(6-Deoxy-α-<span class=\"text-smallcaps\">L</span>-mannopyranosyl)oxy]-3,5-dihydroxy-2-(4-hydroxyphenyl)-4<em>H</em>-1-benzopyran-4-one;Kaempferol 7-<em>O</em>-α-<span class=\"text-smallcaps\">L</span>-rhamnopyranoside;Kaempferol 7-α-<span class=\"text-smallcaps\">L</span>-rhamnoside;Kaempferol 7-<em>O</em>-rhamnoside;Kaempferol-7-<em>O</em>-α-<span class=\"text-smallcaps\">L</span>-rhamnoside;Kampferol-7-<em>O</em>-rhamnoside;7-<em>O</em>-Kaempherol rhamnoside",
    "duplicated_cas_no": "30370-83-3;642474-47-3",
    "SMILES": "O=C1C=2C(OC(=C1O)C3=CC=C(O)C=C3)=CC(O[C@H]4[C@H](O)[C@H](O)[C@@H](O)[C@H](C)O4)=CC2O",
    "meta_data": {
        "InChI": "InChI=1S/C21H20O10/c1-8-15(24)17(26)19(28)21(29-8)30-11-6-12(23)14-13(7-11)31-20(18(27)16(14)25)9-2-4-10(22)5-3-9/h2-8,15,17,19,21-24,26-28H,1H3/t8-,15-,17+,19+,21-/m0/s1",
        "InChIKey": null,
        "Canonical SMILES": "O=C1C(O)=C(OC2=CC(OC3OC(C)C(O)C(O)C3O)=CC(O)=C12)C=4C=CC(O)=CC4",
        "Molecular Formula": "C<sub>21</sub>H<sub>20</sub>O<sub>10</sub>",
        "Molecular Mass": "432.38",
        "Melting Point": "170-173 °C"
    }
}