{
    "cas_no": "2568-34-5",
    "key_name": "<em>N</em>-Benzoyl-<em>N</em>-methylglycine",
    "cn_name": "N-甲基马尿酸;",
    "alternate_name": "Glycine, <em>N</em>-benzoyl-<em>N</em>-methyl-;Hippuric acid, β-methyl-;<em>N</em>-Benzoyl-<em>N</em>-methylglycine;<em>N</em>-Benzoylsarcosine;Benzoylsarcosine;<em>N</em>-Methylhippuric acid;Benzoylmethylglycine;NSC 122438;2-[(Benzoyl)(methyl)amino]ethanoic acid;2-(<em>N</em>-Methylbenzoylamino)acetic acid;2-[Benzoyl(methyl)amino]acetic acid;2-(<em>N</em>-Methyl-1-phenylformamido)acetic acid",
    "duplicated_cas_no": "",
    "SMILES": "C(N(CC(O)=O)C)(=O)C1=CC=CC=C1",
    "meta_data": {
        "InChI": "InChI=1S/C10H11NO3/c1-11(7-9(12)13)10(14)8-5-3-2-4-6-8/h2-6H,7H2,1H3,(H,12,13)",
        "InChIKey": null,
        "Canonical SMILES": "O=C(O)CN(C(=O)C=1C=CC=CC1)C",
        "Molecular Formula": "C<sub>10</sub>H<sub>11</sub>NO<sub>3</sub>",
        "Molecular Mass": "193.20",
        "Melting Point": "103.5-104 °C (decomp)"
    }
}