{
    "cas_no": "79-92-5",
    "key_name": "(±)-Camphene",
    "cn_name": "莰烯;樟脑萜;莰芬;2,2-二甲基-3-亚甲基二环[2,2,1]庚烷;",
    "alternate_name": "Bicyclo[2.2.1]heptane, 2,2-dimethyl-3-methylene-;Camphene;2,2-Dimethyl-3-methylenebicyclo[2.2.1]heptane;2,2-Dimethyl-3-methylenenorbornane;3,3-Dimethyl-2-methylenenorcamphane;3,3-Dimethyl-2-methylenenorbornane;<em>dl</em>-Camphene;(±)-Camphene;<span class=\"text-smallcaps\">DL</span>-Camphene;NSC 4165;2-Methylene-3,3-dimethylbicyclo[2.2.1]heptane;YS Camphene;2,2-Dimethyl-3-methylidenebicyclo[2.2.1]heptane",
    "duplicated_cas_no": "565-00-4",
    "SMILES": "CC1(C)C2CC(C1=C)CC2",
    "meta_data": {
        "InChI": "InChI=1S/C10H16/c1-7-8-4-5-9(6-8)10(7,2)3/h8-9H,1,4-6H2,2-3H3",
        "InChIKey": null,
        "Canonical SMILES": "C=C1C2CCC(C2)C1(C)C",
        "Molecular Formula": "C<sub>10</sub>H<sub>16</sub>",
        "Molecular Mass": "136.23",
        "Boiling Point": "158.5 °C",
        "Melting Point": "51.5 °C",
        "Density": "0.839 g/cm³ @ Temp: 20 °C"
    }
}