{
    "cas_no": "52705-93-8",
    "key_name": "Ginsenoside Rd",
    "cn_name": "人参皂甙Rd;",
    "alternate_name": "β-<span class=\"text-smallcaps\">D</smallcap>-Glucopyranoside, (3β,12β)-20-(β-<smallcap>D</smallcap>-glucopyranosyloxy)-12-hydroxydammar-24-en-3-yl 2-<em>O</em>-β-<smallcap>D</span>-glucopyranosyl-;Dammarane, β-<span class=\"text-smallcaps\">D</span>-glucopyranoside deriv.;(3β,12β)-20-(β-<span class=\"text-smallcaps\">D</smallcap>-Glucopyranosyloxy)-12-hydroxydammar-24-en-3-yl 2-<em>O</em>-β-<smallcap>D</smallcap>-glucopyranosyl-β-<smallcap>D</span>-glucopyranoside;Ginsenoside Rd;Gypenoside VIII;3-<em>O</em>-β-<span class=\"text-smallcaps\">D</smallcap>-Glucopyranosyl-(1→2)-β-<smallcap>D</smallcap>-glucopyranosyl-20-<em>O</em>-β-<smallcap>D</span>-glucopyranosyldammar-24-ene-3β,12β,20<em>S</em>-triol;Chikusetsusaponin FK<sub>7</sub>;Ginsenoside Rd1",
    "duplicated_cas_no": "52286-60-9;87700-08-1;212055-73-7",
    "SMILES": "C[C@]12[C@@]([C@]3(C)[C@@](CC1)(C(C)(C)[C@@H](O[C@H]4[C@H](O[C@@H]5O[C@H](CO)[C@@H](O)[C@H](O)[C@H]5O)[C@@H](O)[C@H](O)[C@@H](CO)O4)CC3)[H])(C[C@@H](O)[C@]6([C@@]2(C)CC[C@@]6([C@@](O[C@@H]7O[C@H](CO)[C@@H](O)[C@H](O)[C@H]7O)(CCC=C(C)C)C)[H])[H])[H]",
    "meta_data": {
        "InChI": "InChI=1S/C48H82O18/c1-22(2)10-9-14-48(8,66-42-39(60)36(57)33(54)26(20-50)62-42)23-11-16-47(7)31(23)24(52)18-29-45(5)15-13-30(44(3,4)28(45)12-17-46(29,47)6)64-43-40(37(58)34(55)27(21-51)63-43)65-41-38(59)35(56)32(53)25(19-49)61-41/h10,23-43,49-60H,9,11-21H2,1-8H3/t23-,24+,25+,26+,27+,28-,29+,30-,31-,32+,33+,34+,35-,36-,37-,38+,39+,40+,41-,42-,43-,45-,46+,47+,48-/m0/s1",
        "InChIKey": null,
        "Canonical SMILES": "OCC1OC(OC2C(O)C(O)C(OC2OC3CCC4(C)C(CCC5(C)C4CC(O)C6C(CCC65C)C(OC7OC(CO)C(O)C(O)C7O)(C)CCC=C(C)C)C3(C)C)CO)C(O)C(O)C1O",
        "Molecular Formula": "C<sub>48</sub>H<sub>82</sub>O<sub>18</sub>",
        "Molecular Mass": "947.15",
        "Melting Point": "204-206 °C"
    }
}