{
    "cas_no": "123-94-4",
    "key_name": "1-Monostearin",
    "cn_name": null,
    "alternate_name": "Octadecanoic acid, 2,3-dihydroxypropyl ester;Stearin, 1-mono-;Aldo 33;Aldo 75;Glycerol α-monostearate;α-Monostearin;1-Monostearin;Stearic acid 1-monoglyceride;Glycerin 1-monostearate;1-Monostearoylglycerol;Glycerol 1-monostearate;Glyceryl 1-monostearate;Sandin EU;Glycerin 1-stearate;1-Glyceryl stearate;Tegin 55G;Emerest 2407;Aldo MSD;Aldo MSLG;Glycerol 1-stearate;Stearic acid α-monoglyceride;3-Stearoyloxy-1,2-propanediol;1-Monooctadecanoylglycerol;2,3-Dihydroxypropyl octadecanoate;(±)-2,3-Dihydroxypropyl octadecanoate;1-monostearoyl-<em>rac</em>-glycerol;Glyceryl 1-octadecanoate;NSC 3875;AS 8 (surfactant);2,3-Dihydroxypropyl stearate;1-Stearoyl-rac-glycerol;1-Monostearoyl-rac-glycerol;GMS 95",
    "duplicated_cas_no": "22610-63-5;342394-34-7;2413191-13-4",
    "SMILES": "C(CC(OCC(CO)O)=O)CCCCCCCCCCCCCCC",
    "meta_data": {
        "InChI": "InChI=1S/C21H42O4/c1-2-3-4-5-6-7-8-9-10-11-12-13-14-15-16-17-21(24)25-19-20(23)18-22/h20,22-23H,2-19H2,1H3",
        "InChIKey": null,
        "Canonical SMILES": "O=C(OCC(O)CO)CCCCCCCCCCCCCCCCC",
        "Molecular Formula": "C<sub>21</sub>H<sub>42</sub>O<sub>4</sub>",
        "Molecular Mass": "358.56",
        "Melting Point": "81-82 °C",
        "Density": "0.9678 g/cm³ @ Temp: 20 °C"
    }
}