{
    "cas_no": "18169-57-8",
    "key_name": "Trichloro(2-methylpropyl)silane",
    "cn_name": "三氯异丁基硅烷;异丁基三氯硅烷(0309禁空运);异丁基三氯硅烷;",
    "alternate_name": "Silane, trichloro(2-methylpropyl)-;Silane, trichloroisobutyl-;Trichloro(2-methylpropyl)silane;Isobutyltrichlorosilane;Trichloroisobutylsilane;(2-Methylpropyl)trichlorosilane",
    "duplicated_cas_no": "",
    "SMILES": "C([Si](Cl)(Cl)Cl)C(C)C",
    "meta_data": {
        "InChI": "InChI=1S/C4H9Cl3Si/c1-4(2)3-8(5,6)7/h4H,3H2,1-2H3",
        "InChIKey": null,
        "Canonical SMILES": "Cl[Si](Cl)(Cl)CC(C)C",
        "Molecular Formula": "C<sub>4</sub>H<sub>9</sub>Cl<sub>3</sub>Si",
        "Molecular Mass": "191.56",
        "Boiling Point": "143.3 °C",
        "Density": "1.162 g/cm³"
    }
}