{
    "cas_no": "369-54-0",
    "key_name": "1,4-Bis(difluoromethyl)benzene",
    "cn_name": "1,4-双(二氟甲基)苯;",
    "alternate_name": "Benzene, 1,4-bis(difluoromethyl)-;<em>p</em>-Xylene, α,α,α′,α′-tetrafluoro-;1,4-Bis(difluoromethyl)benzene;α,α,α′,α′-Tetrafluoro-<em>p</em>-xylene",
    "duplicated_cas_no": "",
    "SMILES": "C(F)(F)C1=CC=C(C(F)F)C=C1",
    "meta_data": {
        "InChI": "InChI=1S/C8H6F4/c9-7(10)5-1-2-6(4-3-5)8(11)12/h1-4,7-8H",
        "InChIKey": null,
        "Canonical SMILES": "FC(F)C1=CC=C(C=C1)C(F)F",
        "Molecular Formula": "C<sub>8</sub>H<sub>6</sub>F<sub>4</sub>",
        "Molecular Mass": "178.13",
        "Boiling Point": "54 °C @ Press: 20 Torr",
        "Density": "1.312 g/cm³ @ Temp: 25 °C"
    }
}