{
    "cas_no": "407-25-0",
    "key_name": "Trifluoroacetic anhydride",
    "cn_name": "三氟乙酸酐;",
    "alternate_name": "Acetic acid, 2,2,2-trifluoro-, 1,1′-anhydride;Acetic acid, trifluoro-, anhydride;Trifluoroacetic anhydride;Perfluoroacetic anhydride;Trifluoroacetic acid anhydride;Hexafluoroacetic anhydride;Trifluoroacetyl anhydride;Bis(trifluoroacetic) anhydride;2,2,2-Trifluoroacetic anhydride;NSC 96965;(2,2,2-Trifluoroacetyl) 2,2,2-trifluoroacetate;Trifluoroacetyl 2,2,2-trifluoroacetate",
    "duplicated_cas_no": "",
    "SMILES": "O(C(C(F)(F)F)=O)C(C(F)(F)F)=O",
    "meta_data": {
        "InChI": "InChI=1S/C4F6O3/c5-3(6,7)1(11)13-2(12)4(8,9)10",
        "InChIKey": null,
        "Canonical SMILES": "O=C(OC(=O)C(F)(F)F)C(F)(F)F",
        "Molecular Formula": "C<sub>4</sub>F<sub>6</sub>O<sub>3</sub>",
        "Molecular Mass": "210.03",
        "Boiling Point": "39.5 °C",
        "Melting Point": "-65 °C",
        "Density": "1.490 g/cm³ @ Temp: 25 °C"
    }
}