{
    "cas_no": "18503-90-7",
    "key_name": "1,1-Dibutoxy-<em>N</em>,<em>N</em>-dimethylmethanamine",
    "cn_name": "1,1-二丁氧基三甲胺;N,N-二甲基甲酰胺缩二正丁醇;N,N-二甲基甲酰胺二丁基乙缩醛;",
    "alternate_name": "Methanamine, 1,1-dibutoxy-<em>N</em>,<em>N</em>-dimethyl-;Trimethylamine, 1,1-dibutoxy-;1,1-Dibutoxy-<em>N</em>,<em>N</em>-dimethylmethanamine;Formamide, <em>N</em>,<em>N</em>-dimethyl-, dibutyl acetal;<em>N</em>,<em>N</em>-Dimethylformamide dibutyl acetal;Dimethylformamide dibutyl acetal;DMF-dibutyl acetal",
    "duplicated_cas_no": "",
    "SMILES": "C(OCCCC)(OCCCC)N(C)C",
    "meta_data": {
        "InChI": "InChI=1S/C11H25NO2/c1-5-7-9-13-11(12(3)4)14-10-8-6-2/h11H,5-10H2,1-4H3",
        "InChIKey": null,
        "Canonical SMILES": "O(CCCC)C(OCCCC)N(C)C",
        "Molecular Formula": "C<sub>11</sub>H<sub>25</sub>NO<sub>2</sub>",
        "Molecular Mass": "203.32",
        "Boiling Point": "96-98 °C @ Press: 16 Torr"
    }
}