{
    "cas_no": "634-55-9",
    "key_name": "Butanoic acid, 2-cyano-3-oxo-, ethyl ester",
    "cn_name": "2-氰基乙酰乙酸乙酯;",
    "alternate_name": "Butanoic acid, 2-cyano-3-oxo-, ethyl ester;Acetoacetic acid, 2-cyano-, ethyl ester;Ethyl α-cyanoacetoacetate;Ethyl 2-cyano-3-oxobutanoate",
    "duplicated_cas_no": "152548-71-5",
    "SMILES": "C(C(OCC)=O)(C(C)=O)C#N",
    "meta_data": {
        "InChI": "InChI=1S/C7H9NO3/c1-3-11-7(10)6(4-8)5(2)9/h6H,3H2,1-2H3",
        "InChIKey": null,
        "Canonical SMILES": "N#CC(C(=O)OCC)C(=O)C",
        "Molecular Formula": "C<sub>7</sub>H<sub>9</sub>NO<sub>3</sub>",
        "Molecular Mass": "155.15",
        "Boiling Point": "115 °C @ Press: 2 Torr"
    }
}