{
    "cas_no": "5497-76-7",
    "key_name": "<span class=\"text-smallcaps\">L</span>-Proline, 1,1-dimethylethyl ester, hydrochloride (1:1)",
    "cn_name": "L-脯氨酸叔丁酯盐酸盐;",
    "alternate_name": "<span class=\"text-smallcaps\">L</span>-Proline, 1,1-dimethylethyl ester, hydrochloride (1:1);Proline, <em>tert</em>-butyl ester, hydrochloride, <span class=\"text-smallcaps\">L</span>-;<span class=\"text-smallcaps\">L</span>-Proline, 1,1-dimethylethyl ester, hydrochloride;Proline, <em>tert</em>-butyl ester, hydrochloride;<em>tert</em>-Butyl <span class=\"text-smallcaps\">L</span>-prolinate hydrochloride;(<em>S</em>)-Proline <em>tert</em>-butyl ester hydrochloride;<span class=\"text-smallcaps\">L</span>-Proline <em>tert</em>-butyl ester hydrochloride;<em>tert</em>-Butyl (<em>S</em>)-pyrrolidine-2-carboxylate hydrochloride",
    "duplicated_cas_no": "",
    "SMILES": "C(OC(C)(C)C)(=O)[C@@H]1CCCN1.Cl",
    "meta_data": {
        "InChI": "InChI=1S/C9H17NO2.ClH/c1-9(2,3)12-8(11)7-5-4-6-10-7;/h7,10H,4-6H2,1-3H3;1H/t7-;/m0./s1",
        "InChIKey": null,
        "Canonical SMILES": "Cl.O=C(OC(C)(C)C)C1NCCC1",
        "Molecular Formula": "C<sub>9</sub>H<sub>17</sub>NO<sub>2</sub>.ClH",
        "Molecular Mass": "",
        "Melting Point": "109-111 °C"
    }
}