{
    "cas_no": "2100-31-4",
    "key_name": "2-Propoxybenzoic acid",
    "cn_name": "邻丙氧基苯甲酸;2-丙氧基苯甲酸;",
    "alternate_name": "Benzoic acid, 2-propoxy-;Benzoic acid, <em>o</em>-propoxy-;2-Propoxybenzoic acid;<em>o</em>-Propoxybenzoic acid;Salicylic acid propyl ether",
    "duplicated_cas_no": "",
    "SMILES": "O(CCC)C1=C(C(O)=O)C=CC=C1",
    "meta_data": {
        "InChI": "InChI=1S/C10H12O3/c1-2-7-13-9-6-4-3-5-8(9)10(11)12/h3-6H,2,7H2,1H3,(H,11,12)",
        "InChIKey": null,
        "Canonical SMILES": "O=C(O)C=1C=CC=CC1OCCC",
        "Molecular Formula": "C<sub>10</sub>H<sub>12</sub>O<sub>3</sub>",
        "Molecular Mass": "180.20",
        "Boiling Point": "215 °C @ Press: 20 Torr",
        "Melting Point": "99-100 °C"
    }
}