{
    "cas_no": "544-01-4",
    "key_name": "Diisoamyl ether",
    "cn_name": "异戊醚;",
    "alternate_name": "Butane, 1,1′-oxybis[3-methyl-;Isopentyl ether;1,1′-Oxybis[3-methylbutane];Diisoamyl ether;Isoamyl ether;Isoamyl oxide;Diisopentyl ether;Di-3-methylbutyl ether;NSC 9281;3-Methyl-1-(3-methylbutoxy)butane",
    "duplicated_cas_no": "",
    "SMILES": "C(CC(C)C)OCCC(C)C",
    "meta_data": {
        "InChI": "InChI=1S/C10H22O/c1-9(2)5-7-11-8-6-10(3)4/h9-10H,5-8H2,1-4H3",
        "InChIKey": null,
        "Canonical SMILES": "O(CCC(C)C)CCC(C)C",
        "Molecular Formula": "C<sub>10</sub>H<sub>22</sub>O",
        "Molecular Mass": "158.28",
        "Boiling Point": "172.5 °C",
        "Density": "0.7777 g/cm³ @ Temp: 12 °C"
    }
}