{
    "cas_no": "771-98-2",
    "key_name": "1-Phenylcyclohexene",
    "cn_name": "1-苯基-1-环己烯;",
    "alternate_name": "Benzene, 1-cyclohexen-1-yl-;Cyclohexene, 1-phenyl-;1-Cyclohexen-1-ylbenzene;1-Phenylcyclohexene;1-Phenyl-1-cyclohexene;2-Phenylcyclohexene;Cyclohex-1-en-1-ylbenzene;NSC 403862;NSC 44834;2,3,4,5-Tetrahydro-1,1′-biphenyl",
    "duplicated_cas_no": "72227-94-2",
    "SMILES": "C=1(CCCCC1)C2=CC=CC=C2",
    "meta_data": {
        "InChI": "InChI=1S/C12H14/c1-3-7-11(8-4-1)12-9-5-2-6-10-12/h1,3-4,7-9H,2,5-6,10H2",
        "InChIKey": null,
        "Canonical SMILES": "C=1C=CC(=CC1)C2=CCCCC2",
        "Molecular Formula": "C<sub>12</sub>H<sub>14</sub>",
        "Molecular Mass": "158.24",
        "Boiling Point": "252 °C",
        "Melting Point": "-11 °C",
        "Density": "0.988 g/cm³ @ Temp: 20 °C"
    }
}