{
    "cas_no": "699-12-7",
    "key_name": "2-(Phenylthio)ethanol",
    "cn_name": "2-苯硫基乙醇;",
    "alternate_name": "Ethanol, 2-(phenylthio)-;2-(Phenylthio)ethanol;2-Hydroxyethyl phenyl sulfide;β-Phenylthioethyl alcohol;2-Phenylsulfanylethanol;NSC 57851;Phenyl 2-hydroxyethyl sulfide;2-(Phenylsulfanyl)ethan-1-ol",
    "duplicated_cas_no": "",
    "SMILES": "S(CCO)C1=CC=CC=C1",
    "meta_data": {
        "InChI": "InChI=1S/C8H10OS/c9-6-7-10-8-4-2-1-3-5-8/h1-5,9H,6-7H2",
        "InChIKey": null,
        "Canonical SMILES": "OCCSC=1C=CC=CC1",
        "Molecular Formula": "C<sub>8</sub>H<sub>10</sub>OS",
        "Molecular Mass": "154.23",
        "Boiling Point": "120-199 °C @ Press: 4 Torr",
        "Density": "1.1145 g/cm³ @ Temp: 24 °C"
    }
}