{
    "cas_no": "36865-41-5",
    "key_name": "1-Bromo-3-methoxypropane",
    "cn_name": "3-溴丙基甲基醚;1-溴-3-甲氧基丙烷;",
    "alternate_name": "Propane, 1-bromo-3-methoxy-;Ether, 3-bromopropyl methyl;1-Bromo-3-methoxypropane;3-Methoxy-1-bromopropane;3-Methoxypropyl bromide;3-Bromopropyl methyl ether;3-Bromo-1-methoxypropane;1-Methoxy-3-bromopropane",
    "duplicated_cas_no": "",
    "SMILES": "C(COC)CBr",
    "meta_data": {
        "InChI": "InChI=1S/C4H9BrO/c1-6-4-2-3-5/h2-4H2,1H3",
        "InChIKey": null,
        "Canonical SMILES": "BrCCCOC",
        "Molecular Formula": "C<sub>4</sub>H<sub>9</sub>BrO",
        "Molecular Mass": "153.02",
        "Boiling Point": "132-133 °C",
        "Density": "1.3592 g/cm³ @ Temp: 20 °C"
    }
}