{
    "cas_no": "303-43-5",
    "key_name": "Cholesteryl oleate",
    "cn_name": "胆固醇油酸酯;",
    "alternate_name": "Cholest-5-en-3-ol (3β)-, 3-[(9<em>Z</em>)-9-octadecenoate];Cholesterol, oleate;Cholest-5-en-3-ol (3β)-, 9-octadecenoate, (<em>Z</em>)-;Cholest-5-en-3-ol (3β)-, (9<em>Z</em>)-9-octadecenoate;Oleic acid, cholesteryl ester;Cholesteryl oleate;Cholesteryl <em>cis</em>-9-octadecenoate;Oleoylcholesterol;Cholesterol 3β-oleate;Cholesteryl oleic ester;NSC 18186;Cholest-5-en-3-β-yl oleate;Yofco LC-CO-D;CE(18:1)",
    "duplicated_cas_no": "1446820-30-9",
    "SMILES": "C[C@@]12[C@@]3([C@]([C@]4([C@](C)(CC3)[C@@]([C@@H](CCCC(C)C)C)(CC4)[H])[H])(CC=C1C[C@@H](OC(CCCCCCC/C=C\\CCCCCCCC)=O)CC2)[H])[H]",
    "meta_data": {
        "InChI": "InChI=1S/C45H78O2/c1-7-8-9-10-11-12-13-14-15-16-17-18-19-20-21-25-43(46)47-38-30-32-44(5)37(34-38)26-27-39-41-29-28-40(36(4)24-22-23-35(2)3)45(41,6)33-31-42(39)44/h14-15,26,35-36,38-42H,7-13,16-25,27-34H2,1-6H3/b15-14-/t36-,38+,39+,40-,41+,42+,44+,45-/m1/s1",
        "InChIKey": null,
        "Canonical SMILES": "O=C(OC1CC2=CCC3C(CCC4(C)C(CCC34)C(C)CCCC(C)C)C2(C)CC1)CCCCCCCC=CCCCCCCCC",
        "Molecular Formula": "C<sub>45</sub>H<sub>78</sub>O<sub>2</sub>",
        "Molecular Mass": "651.10",
        "Melting Point": "46-47 °C"
    }
}