{
    "cas_no": "28983-37-1",
    "key_name": "<em>tert</em>-Tetradecanethiol",
    "cn_name": "tert-十四烷硫醇;",
    "alternate_name": "<em>tert</em>-Tetradecanethiol;<em>tert</em>-Tetradecyl mercaptan",
    "duplicated_cas_no": "",
    "SMILES": "",
    "meta_data": {
        "InChI": "",
        "InChIKey": null,
        "Canonical SMILES": "",
        "Molecular Formula": "C<sub>14</sub>H<sub>30</sub>S",
        "Molecular Mass": "",
        "Boiling Point": "204-232 °C"
    }
}