{
    "cas_no": "345226-20-2",
    "key_name": "<em>B</em>-[2-Chloro-4-(trifluoromethoxy)phenyl]boronic acid",
    "cn_name": null,
    "alternate_name": "Boronic acid, <em>B</em>-[2-chloro-4-(trifluoromethoxy)phenyl]-;Boronic acid, [2-chloro-4-(trifluoromethoxy)phenyl]-;<em>B</em>-[2-Chloro-4-(trifluoromethoxy)phenyl]boronic acid;2-Chloro-4-trifluoromethoxybenzeneboronic acid;(2-Chloro-4-trifluoromethoxyphenyl)boronic acid",
    "duplicated_cas_no": "",
    "SMILES": "B(O)(O)C1=C(Cl)C=C(OC(F)(F)F)C=C1",
    "meta_data": {
        "InChI": "InChI=1S/C7H5BClF3O3/c9-6-3-4(15-7(10,11)12)1-2-5(6)8(13)14/h1-3,13-14H",
        "InChIKey": null,
        "Canonical SMILES": "FC(F)(F)OC1=CC=C(B(O)O)C(Cl)=C1",
        "Molecular Formula": "C<sub>7</sub>H<sub>5</sub>BClF<sub>3</sub>O<sub>3</sub>",
        "Molecular Mass": "240.37",
        "Melting Point": "150-152 °C"
    }
}