{
    "cas_no": "634-43-5",
    "key_name": "<em>N</em>-(4-Methylphenyl)-1-naphthalenamine",
    "cn_name": "N-对甲苯基-1-萘胺;1-(对甲苯胺基)萘;",
    "alternate_name": "1-Naphthalenamine, <em>N</em>-(4-methylphenyl)-;1-Naphthylamine, <em>N</em>-<em>p</em>-tolyl-;<em>N</em>-(4-Methylphenyl)-1-naphthalenamine;NSC 37610;<em>N</em>-(<em>p</em>-Tolyl)-1-naphthylamine;<em>N</em>-4-Tolyl-1-naphthylamine",
    "duplicated_cas_no": "",
    "SMILES": "N(C=1C2=C(C=CC1)C=CC=C2)C3=CC=C(C)C=C3",
    "meta_data": {
        "InChI": "InChI=1S/C17H15N/c1-13-9-11-15(12-10-13)18-17-8-4-6-14-5-2-3-7-16(14)17/h2-12,18H,1H3",
        "InChIKey": null,
        "Canonical SMILES": "C=1C=CC2=C(C1)C=CC=C2NC3=CC=C(C=C3)C",
        "Molecular Formula": "C<sub>17</sub>H<sub>15</sub>N",
        "Molecular Mass": "233.31",
        "Melting Point": "134-136 °C"
    }
}