{
    "cas_no": "995-45-9",
    "key_name": "Tributylchlorosilane",
    "cn_name": "三丁基氯硅烷;",
    "alternate_name": "Silane, tributylchloro-;Tributylchlorosilane;Chlorotributylsilane;Tributylsilyl chloride;Tri-<em>n</em>-butylchlorosilane;NSC 139852",
    "duplicated_cas_no": "",
    "SMILES": "[Si](CCCC)(CCCC)(CCCC)Cl",
    "meta_data": {
        "InChI": "InChI=1S/C12H27ClSi/c1-4-7-10-14(13,11-8-5-2)12-9-6-3/h4-12H2,1-3H3",
        "InChIKey": null,
        "Canonical SMILES": "Cl[Si](CCCC)(CCCC)CCCC",
        "Molecular Formula": "C<sub>12</sub>H<sub>27</sub>ClSi",
        "Molecular Mass": "234.88",
        "Boiling Point": "93-94 °C @ Press: 4 Torr",
        "Density": "0.879 g/cm³"
    }
}