{
    "cas_no": "643-38-9",
    "key_name": "2,3-Quinolinedicarboxylic acid",
    "cn_name": null,
    "alternate_name": "2,3-Quinolinedicarboxylic acid;Acridinic acid;NSC 26342",
    "duplicated_cas_no": "",
    "SMILES": "C(O)(=O)C=1C(C(O)=O)=NC2=C(C1)C=CC=C2",
    "meta_data": {
        "InChI": "InChI=1S/C11H7NO4/c13-10(14)7-5-6-3-1-2-4-8(6)12-9(7)11(15)16/h1-5H,(H,13,14)(H,15,16)",
        "InChIKey": null,
        "Canonical SMILES": "O=C(O)C1=NC=2C=CC=CC2C=C1C(=O)O",
        "Molecular Formula": "C<sub>11</sub>H<sub>7</sub>NO<sub>4</sub>",
        "Molecular Mass": "217.18",
        "Melting Point": "183 °C"
    }
}