{
    "cas_no": "112-69-6",
    "key_name": "Dimethylhexadecylamine",
    "cn_name": "十六烷基二甲基叔胺;",
    "alternate_name": "1-Hexadecanamine, <em>N</em>,<em>N</em>-dimethyl-;Hexadecylamine, <em>N</em>,<em>N</em>-dimethyl-;<em>N</em>,<em>N</em>-Dimethyl-1-hexadecanamine;<em>N</em>,<em>N</em>-Dimethylhexadecylamine;<em>N</em>,<em>N</em>-Dimethylcetylamine;Dimethylhexadecylamine;Cetyldimethylamine;Hexadecyldimethylamine;Dimethylcetylamine;Armeen DM 16D;Palmityldimethylamine;<em>N</em>,<em>N</em>-Dimethyl-<em>n</em>-hexadecylamine;Dimethylpalmitylamine;Bairdcat B 16;Genamin 16R302D;<em>N</em>,<em>N</em>-Dimethylpalmitylamine;IPL 67;<em>N</em>-Hexadecyldimethylamine;Farmin DM 60;Dabco B 16;NSC 404177;NSC 8493;Farmin DM 6098;AT 1695;Barlene 16S;Nissan Tertiary Amine PB;ADMA 16;Armeen 2M16D;Lipomin DM 16D;<em>N</em>-Cetyl-<em>N</em>,<em>N</em>-dimethylamine;DM 6098",
    "duplicated_cas_no": "39322-11-7;157970-55-3",
    "SMILES": "C(CCCCCCCCCCC)CCCCN(C)C",
    "meta_data": {
        "InChI": "InChI=1S/C18H39N/c1-4-5-6-7-8-9-10-11-12-13-14-15-16-17-18-19(2)3/h4-18H2,1-3H3",
        "InChIKey": null,
        "Canonical SMILES": "N(C)(C)CCCCCCCCCCCCCCCC",
        "Molecular Formula": "C<sub>18</sub>H<sub>39</sub>N",
        "Molecular Mass": "269.51",
        "Boiling Point": "203-205 °C @ Press: 17 Torr"
    }
}