{
    "cas_no": "41443-28-1",
    "key_name": "1<em>H</em>-[1,2,4]Oxadiazolo[4,3-<em>a</em>]quinoxalin-1-one",
    "cn_name": "1H-[1,2,4]恶草灵并[4,3-a]喹喔啉-1-酮;",
    "alternate_name": "1<em>H</em>-[1,2,4]Oxadiazolo[4,3-<em>a</em>]quinoxalin-1-one;ODQ;[1,2,4]Oxadiazolo[4,3-<em>a</em>]quinoxalin-1-one",
    "duplicated_cas_no": "",
    "SMILES": "O=C1N2C=3C(N=CC2=NO1)=CC=CC3",
    "meta_data": {
        "InChI": "InChI=1S/C9H5N3O2/c13-9-12-7-4-2-1-3-6(7)10-5-8(12)11-14-9/h1-5H",
        "InChIKey": null,
        "Canonical SMILES": "O=C1ON=C2C=NC=3C=CC=CC3N12",
        "Molecular Formula": "C<sub>9</sub>H<sub>5</sub>N<sub>3</sub>O<sub>2</sub>",
        "Molecular Mass": "187.15",
        "Melting Point": "163-164 °C"
    }
}