{
    "cas_no": "87-52-5",
    "key_name": "Gramine",
    "cn_name": "芦竹碱;格胺;3-二甲氨基甲基吲哚;吲哚-3-基-N,N-二甲基甲胺;",
    "alternate_name": "1<em>H</em>-Indole-3-methanamine, <em>N</em>,<em>N</em>-dimethyl-;Indole, 3-[(dimethylamino)methyl]-;Gramine;<em>N</em>,<em>N</em>-Dimethyl-1<em>H</em>-indole-3-methanamine;β-(Dimethylaminomethyl)indole;Donaxine;Gramin;3-[(Dimethylamino)methyl]indole;Donaxin;<em>N</em>,<em>N</em>-Dimethyl-1<em>H</em>-indole-3-methylamine;3-(<em>N</em>,<em>N</em>-Dimethylaminomethyl)indole;NSC 16892;3-[(Dimethylamino)methyl]-1<em>H</em>-indole;[(1<em>H</em>-Indol-3-yl)methyl]dimethylamine;1-(1<em>H</em>-Indol-3-yl)-<em>N</em>,<em>N</em>-dimethylmethanamine",
    "duplicated_cas_no": "",
    "SMILES": "C(N(C)C)C=1C=2C(NC1)=CC=CC2",
    "meta_data": {
        "InChI": "InChI=1S/C11H14N2/c1-13(2)8-9-7-12-11-6-4-3-5-10(9)11/h3-7,12H,8H2,1-2H3",
        "InChIKey": null,
        "Canonical SMILES": "C=1C=CC2=C(C1)NC=C2CN(C)C",
        "Molecular Formula": "C<sub>11</sub>H<sub>14</sub>N<sub>2</sub>",
        "Molecular Mass": "174.24",
        "Melting Point": "138.5 °C"
    }
}