{
    "cas_no": "554-68-7",
    "key_name": "Triethylamine, hydrochloride",
    "cn_name": "三乙胺盐酸盐;盐酸三乙胺;",
    "alternate_name": "Ethanamine, <em>N</em>,<em>N</em>-diethyl-, hydrochloride (1:1);Triethylamine, hydrochloride;Ethanamine, <em>N</em>,<em>N</em>-diethyl-, hydrochloride;Triethylamine monohydrochloride;Triethylammonium chloride;<em>N</em>,<em>N</em>-Diethylethanamine hydrochloride",
    "duplicated_cas_no": "",
    "SMILES": "N(CC)(CC)CC.Cl",
    "meta_data": {
        "InChI": "InChI=1S/C6H15N.ClH/c1-4-7(5-2)6-3;/h4-6H2,1-3H3;1H",
        "InChIKey": null,
        "Canonical SMILES": "Cl.N(CC)(CC)CC",
        "Molecular Formula": "C<sub>6</sub>H<sub>15</sub>N.ClH",
        "Molecular Mass": "",
        "Boiling Point": "&lt;245 °C",
        "Melting Point": "260 °C (decomp)",
        "Density": "1.0689 g/cm³ @ Temp: 21 °C"
    }
}