{
    "cas_no": "4616-63-1",
    "key_name": "2-(2-Propyn-1-yloxy)-1<em>H</em>-isoindole-1,3(2<em>H</em>)-dione",
    "cn_name": "N-炔丙基氧基酞亚胺;N-炔丙基氧基酞亚胺;",
    "alternate_name": "1<em>H</em>-Isoindole-1,3(2<em>H</em>)-dione, 2-(2-propyn-1-yloxy)-;Phthalimide, <em>N</em>-(2-propynyloxy)-;1<em>H</em>-Isoindole-1,3(2<em>H</em>)-dione, 2-(2-propynyloxy)-;2-(2-Propyn-1-yloxy)-1<em>H</em>-isoindole-1,3(2<em>H</em>)-dione;<em>N</em>-(Propargyloxy)phthalimide;NSC 80674;2-(Prop-2-ynyloxy)-isoindole-1,3-dione;2-(Prop-2-yn-1-yloxy)isoindoline-1,3-dione;2-(Prop-2-yn-1-yloxy)-2,3-dihydro-1<em>H</em>-isoindole-1,3-dione;2-Prop-2-ynoxyisoindole-1,3-dione",
    "duplicated_cas_no": "",
    "SMILES": "O=C1C=2C(C(=O)N1OCC#C)=CC=CC2",
    "meta_data": {
        "InChI": "InChI=1S/C11H7NO3/c1-2-7-15-12-10(13)8-5-3-4-6-9(8)11(12)14/h1,3-6H,7H2",
        "InChIKey": null,
        "Canonical SMILES": "O=C1C=2C=CC=CC2C(=O)N1OCC#C",
        "Molecular Formula": "C<sub>11</sub>H<sub>7</sub>NO<sub>3</sub>",
        "Molecular Mass": "201.18",
        "Melting Point": "149-150 °C"
    }
}