{
    "cas_no": "14631-08-4",
    "key_name": "2-Chloro-4,5-pyrimidinediamine",
    "cn_name": null,
    "alternate_name": "4,5-Pyrimidinediamine, 2-chloro-;Pyrimidine, 4,5-diamino-2-chloro-;2-Chloro-4,5-pyrimidinediamine;2-Chloro-4,5-diaminopyrimidine;4,5-Diamino-2-chloropyrimidine;NSC 45754;2-Chloropyrimidine-4,5-diamine",
    "duplicated_cas_no": "",
    "SMILES": "NC=1C(N)=CN=C(Cl)N1",
    "meta_data": {
        "InChI": "InChI=1S/C4H5ClN4/c5-4-8-1-2(6)3(7)9-4/h1H,6H2,(H2,7,8,9)",
        "InChIKey": null,
        "Canonical SMILES": "ClC1=NC=C(N)C(=N1)N",
        "Molecular Formula": "C<sub>4</sub>H<sub>5</sub>ClN<sub>4</sub>",
        "Molecular Mass": "144.56",
        "Melting Point": "220 °C (decomp)"
    }
}