{
    "cas_no": "33125-97-2",
    "key_name": "Etomidate",
    "cn_name": "依托咪酯;甲苄咪酯;R-(+)-1-(1-苯乙基)-1-氢-咪唑-5-甲酸乙酯;",
    "alternate_name": "1<em>H</em>-Imidazole-5-carboxylic acid, 1-[(1<em>R</em>)-1-phenylethyl]-, ethyl ester;Imidazole-5-carboxylic acid, 1-(α-methylbenzyl)-, ethyl ester, (<em>R</em>)-(+)-;1<em>H</em>-Imidazole-5-carboxylic acid, 1-(1-phenylethyl)-, ethyl ester, (<em>R</em>)-;Etomidate;R 16659;(+)-Etomidate;<em>d</em>-Etomidate;<span class=\"text-smallcaps\">D</span>-Etomidate;Hypnomidate;Amidate;Amidate (pharmaceutical);Radenarcon;Propiscin;Lipuro;R-(+)-Etomidate;1<em>H</em>-Imidazole-5-carboxylic acid 1-[(1R)-1-phenylethyl]-, ethyl ester;(R)-Ethyl 1-(1-phenylethyl)-1<em>H</em>-imidazole-5-carboxylate;MeSH ID: D005045",
    "duplicated_cas_no": "",
    "SMILES": "[C@H](C)(N1C(C(OCC)=O)=CN=C1)C2=CC=CC=C2",
    "meta_data": {
        "InChI": "InChI=1S/C14H16N2O2/c1-3-18-14(17)13-9-15-10-16(13)11(2)12-7-5-4-6-8-12/h4-11H,3H2,1-2H3/t11-/m1/s1",
        "InChIKey": null,
        "Canonical SMILES": "O=C(OCC)C1=CN=CN1C(C=2C=CC=CC2)C",
        "Molecular Formula": "C<sub>14</sub>H<sub>16</sub>N<sub>2</sub>O<sub>2</sub>",
        "Molecular Mass": "244.29",
        "Boiling Point": "160-162 °C @ Press: 1 Torr",
        "Melting Point": "67 °C"
    }
}