{
    "cas_no": "121-82-4",
    "key_name": "RDX",
    "cn_name": null,
    "alternate_name": "1,3,5-Triazine, hexahydro-1,3,5-trinitro-;<em>s</em>-Triazine, hexahydro-1,3,5-trinitro-;Hexahydro-1,3,5-trinitro-1,3,5-triazine;T<sub>4</sub>;Cyclonite;Cyclotrimethylenenitramine;Cyclotrimethylenetrinitramine;Hexahydro-1,3,5-trinitro-<em>s</em>-triazine;Hexogen;RDX;1,3,5-Trinitro-1,3,5-triazacyclohexane;Hexogen (explosive);Trimethylenetrinitramine;Hexogen 5W;1,3,5-Trinitrohexahydro-<em>s</em>-triazine;1,3,5-Triaza-1,3,5-trinitrocyclohexane;1,3,5-Trinitroperhydro-1,3,5-triazine;1,3,5-Trinitrohexahydro-1,3,5-triazine;PBX(AF) 108;PBXW 108(E);PE 4;CX 84A;PE 4 (explosive);PBX-L 3;PBX-L 5;PBX-MC;PBX-MVF;PBXN 107A;Hexahydro-1,3,5-trinitro-1,3,5-<em>s</em>-triazine;V 29;V 29 (propellant);PBX-B 2238;PBXN 108;PBXN(AF) 108;PBX-C 117;CPX 301;Propellant TS 1;PHX 34;PBX-W 108;TS 1 (propellant);PBXN 6;PBXN 107;PBXN 201;PBX 9407;Composition A 3;A 3;A 3 (explosive);PBXN 8;PMW 8;A-IX 1;Giekfol;Heksoflen;NSC 312447;A-IX 2;PBXC 116;CH 6;CH 6 (explosive);Hexomax",
    "duplicated_cas_no": "50579-23-2;53800-53-6;57608-45-4;82030-42-0;204655-61-8;1951403-03-4",
    "SMILES": "N(=O)(=O)N1CN(N(=O)=O)CN(N(=O)=O)C1",
    "meta_data": {
        "InChI": "InChI=1S/C3H6N6O6/c10-7(11)4-1-5(8(12)13)3-6(2-4)9(14)15/h1-3H2",
        "InChIKey": null,
        "Canonical SMILES": "O=N(=O)N1CN(N(=O)=O)CN(N(=O)=O)C1",
        "Molecular Formula": "C<sub>3</sub>H<sub>6</sub>N<sub>6</sub>O<sub>6</sub>",
        "Molecular Mass": "222.12",
        "Melting Point": "205-206 °C",
        "Density": "1.82 g/cm³ @ Temp: 20 °C"
    }
}