{
    "cas_no": "557-30-2",
    "key_name": "Glyoxime",
    "cn_name": null,
    "alternate_name": "Ethanedial, 1,2-dioxime;Glyoxime;Glyoxal, dioxime;Ethanedial, dioxime;Ethanedione dioxime;Pik-off;NSC 18263",
    "duplicated_cas_no": "",
    "SMILES": "C(C=NO)=NO",
    "meta_data": {
        "InChI": "InChI=1S/C2H4N2O2/c5-3-1-2-4-6/h1-2,5-6H",
        "InChIKey": null,
        "Canonical SMILES": "ON=CC=NO",
        "Molecular Formula": "C<sub>2</sub>H<sub>4</sub>N<sub>2</sub>O<sub>2</sub>",
        "Molecular Mass": "88.07",
        "Melting Point": "178 °C (decomp)"
    }
}