{
    "cas_no": "135-79-5",
    "key_name": "6-Isopropylquinoline",
    "cn_name": "6-异丙基喹啉;6-(1-甲基乙基)喹啉;",
    "alternate_name": "Quinoline, 6-(1-methylethyl)-;Quinoline, 6-isopropyl-;6-(1-Methylethyl)quinoline;6-Isopropylquinoline",
    "duplicated_cas_no": "",
    "SMILES": "C(C)(C)C1=CC2=C(C=C1)N=CC=C2",
    "meta_data": {
        "InChI": "InChI=1S/C12H13N/c1-9(2)10-5-6-12-11(8-10)4-3-7-13-12/h3-9H,1-2H3",
        "InChIKey": null,
        "Canonical SMILES": "N1=CC=CC2=CC(=CC=C12)C(C)C",
        "Molecular Formula": "C<sub>12</sub>H<sub>13</sub>N",
        "Molecular Mass": "171.24",
        "Boiling Point": "143 °C @ Press: 12 Torr"
    }
}