{
    "cas_no": "43204-63-3",
    "key_name": "Ethanamine, 2-bromo-<em>N</em>-(2-bromoethyl)-, hydrobromide (1:1)",
    "cn_name": null,
    "alternate_name": "Ethanamine, 2-bromo-<em>N</em>-(2-bromoethyl)-, hydrobromide (1:1);Ethanamine, 2-bromo-<em>N</em>-(2-bromoethyl)-, hydrobromide;Diethylamine, 2,2′-dibromo-, hydrobromide;Bis(2-bromoethyl)amine hydrobromide;Bis(β-bromoethyl)amine hydrobromide;Di(2-bromoethyl)amine hydrobromide",
    "duplicated_cas_no": "",
    "SMILES": "N(CCBr)CCBr.Br",
    "meta_data": {
        "InChI": "InChI=1S/C4H9Br2N.BrH/c5-1-3-7-4-2-6;/h7H,1-4H2;1H",
        "InChIKey": null,
        "Canonical SMILES": "Br.BrCCNCCBr",
        "Molecular Formula": "C<sub>4</sub>H<sub>9</sub>Br<sub>2</sub>N.BrH",
        "Molecular Mass": "",
        "Melting Point": "203-205 °C"
    }
}