{
    "cas_no": "28897-58-7",
    "key_name": "2-Methyl-2-hexenoic acid",
    "cn_name": "2-甲基-2-己烯酸;2-甲基-2-己烯酸,98%;",
    "alternate_name": "2-Hexenoic acid, 2-methyl-;2-Methyl-2-hexenoic acid",
    "duplicated_cas_no": "",
    "SMILES": "C(C(O)=O)(=CCCC)C",
    "meta_data": {
        "InChI": "InChI=1S/C7H12O2/c1-3-4-5-6(2)7(8)9/h5H,3-4H2,1-2H3,(H,8,9)",
        "InChIKey": null,
        "Canonical SMILES": "O=C(O)C(=CCCC)C",
        "Molecular Formula": "C<sub>7</sub>H<sub>12</sub>O<sub>2</sub>",
        "Molecular Mass": "128.17",
        "Boiling Point": "113.5 °C @ Press: 15 Torr",
        "Density": "0.9477 g/cm³ @ Temp: 13.45 °C"
    }
}