{
    "cas_no": "70-54-2",
    "key_name": "(±)-Lysine",
    "cn_name": "DL-赖氨酸;DL-2,6-二氨基己酸;",
    "alternate_name": "Lysine;Lysine, <span class=\"text-smallcaps\">DL</span>-;<span class=\"text-smallcaps\">DL</span>-Lysine;<span class=\"text-smallcaps\">DL</span>-α,ε-Diaminocaproic acid;2,6-Diaminohexanoic acid;(±)-Lysine;(<em>RS</em>)-Lysine;(±)-2,6-Diaminohexanoic acid;AminoShure-L",
    "duplicated_cas_no": "",
    "SMILES": "C(CCCCN)(C(O)=O)N",
    "meta_data": {
        "InChI": "InChI=1S/C6H14N2O2/c7-4-2-1-3-5(8)6(9)10/h5H,1-4,7-8H2,(H,9,10)",
        "InChIKey": null,
        "Canonical SMILES": "O=C(O)C(N)CCCCN",
        "Molecular Formula": "C<sub>6</sub>H<sub>14</sub>N<sub>2</sub>O<sub>2</sub>",
        "Molecular Mass": "146.19",
        "Melting Point": "224 °C"
    }
}