{
    "cas_no": "274-07-7",
    "key_name": "Catecholborane",
    "cn_name": "儿茶酚硼烷;儿萘酚硼烷;儿茶酚硼烷;儿茶素硼烷;邻苯二氧硼烷;",
    "alternate_name": "1,3,2-Benzodioxaborole;Catecholborane;CB;Pyrocatecholborane;Benzcatechinborane;Catecholatoborane;Benzo[<em>d</em>][1,3,2]dioxaborole",
    "duplicated_cas_no": "",
    "SMILES": "C1=2C(OBO1)=CC=CC2",
    "meta_data": {
        "InChI": "InChI=1S/C6H5BO2/c1-2-4-6-5(3-1)8-7-9-6/h1-4,7H",
        "InChIKey": null,
        "Canonical SMILES": "O1BOC=2C=CC=CC12",
        "Molecular Formula": "C<sub>6</sub>H<sub>5</sub>BO<sub>2</sub>",
        "Molecular Mass": "119.91",
        "Boiling Point": "76 °C @ Press: 100 Torr",
        "Melting Point": "12 °C"
    }
}