{
    "cas_no": "6263-83-8",
    "key_name": "1,5-Diphenyl-1,5-pentanedione",
    "cn_name": "1,3-二苯甲酰丙烷;",
    "alternate_name": "1,5-Pentanedione, 1,5-diphenyl-;1,5-Diphenyl-1,5-pentanedione;1,3-Dibenzoylpropane;NSC 46678",
    "duplicated_cas_no": "",
    "SMILES": "C(CCCC(=O)C1=CC=CC=C1)(=O)C2=CC=CC=C2",
    "meta_data": {
        "InChI": "InChI=1S/C17H16O2/c18-16(14-8-3-1-4-9-14)12-7-13-17(19)15-10-5-2-6-11-15/h1-6,8-11H,7,12-13H2",
        "InChIKey": null,
        "Canonical SMILES": "O=C(C=1C=CC=CC1)CCCC(=O)C=2C=CC=CC2",
        "Molecular Formula": "C<sub>17</sub>H<sub>16</sub>O<sub>2</sub>",
        "Molecular Mass": "252.31",
        "Boiling Point": "160-180 °C @ Press: 0.4 Torr",
        "Melting Point": "65 °C"
    }
}