{
    "cas_no": "14199-15-6",
    "key_name": "Methyl (4-hydroxyphenyl)acetate",
    "cn_name": "4-羟基苯乙酸甲酯;",
    "alternate_name": "Benzeneacetic acid, 4-hydroxy-, methyl ester;Acetic acid, (<em>p</em>-hydroxyphenyl)-, methyl ester;Methyl (4-hydroxyphenyl)acetate;Methyl (<em>p</em>-hydroxyphenyl)acetate;4-Hydroxybenzeneacetic acid methyl ester;Methyl 4-hydroxybenzeneacetate;(4-Hydroxyphenyl)acetic acid methyl ester;Methyl 2-(4-hydroxyphenyl)acetate;Methyl 2-(<em>p</em>-hydroxyphenyl)acetate;<em>p</em>-Hydroxyphenylacetic acid methyl ester;Methyl 2-(4′-hydroxyphenyl)acetate",
    "duplicated_cas_no": "1000398-39-9",
    "SMILES": "C(C(OC)=O)C1=CC=C(O)C=C1",
    "meta_data": {
        "InChI": "InChI=1S/C9H10O3/c1-12-9(11)6-7-2-4-8(10)5-3-7/h2-5,10H,6H2,1H3",
        "InChIKey": null,
        "Canonical SMILES": "O=C(OC)CC1=CC=C(O)C=C1",
        "Molecular Formula": "C<sub>9</sub>H<sub>10</sub>O<sub>3</sub>",
        "Molecular Mass": "166.17",
        "Boiling Point": "169-171 °C @ Press: 8.5 Torr",
        "Melting Point": "54-56 °C"
    }
}