{
    "cas_no": "7745-93-9",
    "key_name": "2-Bromo-1-methyl-4-nitrobenzene",
    "cn_name": "2-溴-4-硝基甲苯;",
    "alternate_name": "Benzene, 2-bromo-1-methyl-4-nitro-;Toluene, 2-bromo-4-nitro-;2-Bromo-1-methyl-4-nitrobenzene;2-Bromo-4-nitrotoluene;1-Bromo-2-methyl-5-nitrobenzene;4-Nitro-2-bromotoluene;NSC 402166;3-Bromo-4-methylnitrobenzene;3-Bromo-4-methyl-1-nitrobenzene;<em>o</em>-Bromo-<em>p</em>-nitrotoluene",
    "duplicated_cas_no": "",
    "SMILES": "N(=O)(=O)C1=CC(Br)=C(C)C=C1",
    "meta_data": {
        "InChI": "InChI=1S/C7H6BrNO2/c1-5-2-3-6(9(10)11)4-7(5)8/h2-4H,1H3",
        "InChIKey": null,
        "Canonical SMILES": "O=N(=O)C1=CC=C(C(Br)=C1)C",
        "Molecular Formula": "C<sub>7</sub>H<sub>6</sub>BrNO<sub>2</sub>",
        "Molecular Mass": "216.03",
        "Boiling Point": "175 °C @ Press: 38 Torr",
        "Melting Point": "78 °C"
    }
}