{
    "cas_no": "124-10-7",
    "key_name": "Methyl myristate",
    "cn_name": "十四酸甲酯;十四烷酸甲(基)酯;肉豆蔻酸甲酯;",
    "alternate_name": "Tetradecanoic acid, methyl ester;Myristic acid, methyl ester;Metholeneat 2495;Methyl myristate;Methyl tetradecanoate;Uniphat A50;Methyl <em>n</em>-tetradecanoate;Pastell M 14;NSC 5029;Emery 2214",
    "duplicated_cas_no": "",
    "SMILES": "C(CCC(OC)=O)CCCCCCCCCC",
    "meta_data": {
        "InChI": "InChI=1S/C15H30O2/c1-3-4-5-6-7-8-9-10-11-12-13-14-15(16)17-2/h3-14H2,1-2H3",
        "InChIKey": null,
        "Canonical SMILES": "O=C(OC)CCCCCCCCCCCCC",
        "Molecular Formula": "C<sub>15</sub>H<sub>30</sub>O<sub>2</sub>",
        "Molecular Mass": "242.40",
        "Boiling Point": "295 °C",
        "Melting Point": "19 °C",
        "Density": "0.8671 g/cm³ @ Temp: 20 °C"
    }
}