{
    "cas_no": "144689-94-1",
    "key_name": "1<em>H</em>-Imidazole-4,5-dicarboxylic acid, 2-propyl-, 4,5-diethyl ester",
    "cn_name": "2-丙基-4,5-咪唑二羧酸二乙酯;",
    "alternate_name": "1<em>H</em>-Imidazole-4,5-dicarboxylic acid, 2-propyl-, 4,5-diethyl ester;1<em>H</em>-Imidazole-4,5-dicarboxylic acid, 2-propyl-, diethyl ester;Diethyl 2-propylimidazole-4,5-dicarboxylate;Diethyl 2-propyl-1<em>H</em>-imidazole-4,5-dicarboxylate",
    "duplicated_cas_no": "",
    "SMILES": "C(OCC)(=O)C1=C(C(OCC)=O)N=C(CCC)N1",
    "meta_data": {
        "InChI": "InChI=1S/C12H18N2O4/c1-4-7-8-13-9(11(15)17-5-2)10(14-8)12(16)18-6-3/h4-7H2,1-3H3,(H,13,14)",
        "InChIKey": null,
        "Canonical SMILES": "O=C(OCC)C=1N=C(NC1C(=O)OCC)CCC",
        "Molecular Formula": "C<sub>12</sub>H<sub>18</sub>N<sub>2</sub>O<sub>4</sub>",
        "Molecular Mass": "254.28",
        "Melting Point": "83-85 °C"
    }
}