{
    "cas_no": "5350-57-2",
    "key_name": "Benzophenone hydrazone",
    "cn_name": "二苯甲酮腙;",
    "alternate_name": "Methanone, diphenyl-, hydrazone;Benzophenone, hydrazone;Diphenyl ketone hydrazone;NSC 43;Diphenylmethanone hydrazone;<em>N</em>-(Diphenylmethylene)hydrazine;Benzophenone hydrazone;Diphenylmethylidenehydrazine;Benzophenonhydrazone;(Diphenylmethylene)hydrazine",
    "duplicated_cas_no": "",
    "SMILES": "C(=NN)(C1=CC=CC=C1)C2=CC=CC=C2",
    "meta_data": {
        "InChI": "InChI=1S/C13H12N2/c14-15-13(11-7-3-1-4-8-11)12-9-5-2-6-10-12/h1-10H,14H2",
        "InChIKey": null,
        "Canonical SMILES": "N(N)=C(C=1C=CC=CC1)C=2C=CC=CC2",
        "Molecular Formula": "C<sub>13</sub>H<sub>12</sub>N<sub>2</sub>",
        "Molecular Mass": "196.25",
        "Melting Point": "95-98 °C"
    }
}