{
    "cas_no": "2947-60-6",
    "key_name": "(3-Methylphenyl)acetonitrile",
    "cn_name": "间甲基苯乙腈;3-甲基苯乙腈;",
    "alternate_name": "Benzeneacetonitrile, 3-methyl-;Acetonitrile, <em>m</em>-tolyl-;3-Methylbenzeneacetonitrile;<em>m</em>-Methylbenzyl cyanide;(3-Methylphenyl)acetonitrile;<em>m</em>-Methylphenylacetonitrile;3-Methylbenzyl cyanide;<em>m</em>-Tolylacetonitrile;NSC 20695;2-(<em>m</em>-Tolyl)acetonitrile;2-(3-Methylphenyl)acetonitrile",
    "duplicated_cas_no": "",
    "SMILES": "C(C#N)C1=CC(C)=CC=C1",
    "meta_data": {
        "InChI": "InChI=1S/C9H9N/c1-8-3-2-4-9(7-8)5-6-10/h2-4,7H,5H2,1H3",
        "InChIKey": null,
        "Canonical SMILES": "N#CCC=1C=CC=C(C1)C",
        "Molecular Formula": "C<sub>9</sub>H<sub>9</sub>N",
        "Molecular Mass": "131.17",
        "Boiling Point": "248 °C"
    }
}