{
    "cas_no": "28004-62-8",
    "key_name": "5-(4-Chlorophenyl)-1,3,4-thiadiazol-2-amine",
    "cn_name": null,
    "alternate_name": "1,3,4-Thiadiazol-2-amine, 5-(4-chlorophenyl)-;1,3,4-Thiadiazole, 2-amino-5-(<em>p</em>-chlorophenyl)-;5-(4-Chlorophenyl)-1,3,4-thiadiazol-2-amine;2-(<em>p</em>-Chlorophenyl)-5-amino-1,3,4-thiadiazole;2-Amino-5-(4-chlorophenyl)-1,3,4-thiadiazole",
    "duplicated_cas_no": "",
    "SMILES": "NC=1SC(C2=CC=C(Cl)C=C2)=NN1",
    "meta_data": {
        "InChI": "InChI=1S/C8H6ClN3S/c9-6-3-1-5(2-4-6)7-11-12-8(10)13-7/h1-4H,(H2,10,12)",
        "InChIKey": null,
        "Canonical SMILES": "ClC=1C=CC(=CC1)C2=NN=C(S2)N",
        "Molecular Formula": "C<sub>8</sub>H<sub>6</sub>ClN<sub>3</sub>S",
        "Molecular Mass": "211.67",
        "Melting Point": "230 °C (decomp)"
    }
}