{
    "cas_no": "421-90-9",
    "key_name": "2,2,3-Tribromo-1,1,1-trifluoropropane",
    "cn_name": null,
    "alternate_name": "Propane, 2,2,3-tribromo-1,1,1-trifluoro-;2,2,3-Tribromo-1,1,1-trifluoropropane",
    "duplicated_cas_no": "",
    "SMILES": "C(C(F)(F)F)(CBr)(Br)Br",
    "meta_data": {
        "InChI": "InChI=1S/C3H2Br3F3/c4-1-2(5,6)3(7,8)9/h1H2",
        "InChIKey": null,
        "Canonical SMILES": "FC(F)(F)C(Br)(Br)CBr",
        "Molecular Formula": "C<sub>3</sub>H<sub>2</sub>Br<sub>3</sub>F<sub>3</sub>",
        "Molecular Mass": "334.76",
        "Boiling Point": "79-81 °C @ Press: 46-47 Torr"
    }
}