{
    "cas_no": "34272-65-6",
    "key_name": "2,4-Dimethyl-5-thiazoleacetic acid",
    "cn_name": null,
    "alternate_name": "5-Thiazoleacetic acid, 2,4-dimethyl-;2,4-Dimethyl-5-thiazoleacetic acid;(2,4-Dimethylthiazol-5-yl)acetic acid;2-(2,4-Dimethylthiazol-5-yl)acetic acid;(2,4-Dimethyl-1,3-thiazole-5-yl)acetic acid;2-(Dimethyl-1,3-thiazol-5-yl)acetic acid;2-(2,4-Dimethyl-1,3-thiazol-5-yl)acetic acid",
    "duplicated_cas_no": "",
    "SMILES": "C(C(O)=O)C=1SC(C)=NC1C",
    "meta_data": {
        "InChI": "InChI=1S/C7H9NO2S/c1-4-6(3-7(9)10)11-5(2)8-4/h3H2,1-2H3,(H,9,10)",
        "InChIKey": null,
        "Canonical SMILES": "O=C(O)CC=1SC(=NC1C)C",
        "Molecular Formula": "C<sub>7</sub>H<sub>9</sub>NO<sub>2</sub>S",
        "Molecular Mass": "171.22",
        "Melting Point": "183-184 °C"
    }
}