{
    "cas_no": "620-79-1",
    "key_name": "Ethyl 2-benzylacetoacetate",
    "cn_name": "2-苄基乙酰乙酸乙酯;",
    "alternate_name": "Benzenepropanoic acid, α-acetyl-, ethyl ester;Hydrocinnamic acid, α-acetyl-, ethyl ester;Ethyl 2-acetyl-3-phenylpropionate;Ethyl α-acetylhydrocinnamate;Ethyl 2-benzylacetoacetate;Ethyl α-benzylacetoacetate;Ethyl 2-benzylacetylacetate;Ethyl 2-benzyl-3-oxobutanoate;Ethyl 2-acetyl-3-phenylpropanoate;Ethyl 2-benzyl-3-oxobutyrate;α-Acetylbenzenepropanoic acid ethyl ester;NSC 60581;2-Benzyl-3-oxobutanoic acid ethyl ester;2-Benzyl-3-oxo-butyric acid ethyl ester",
    "duplicated_cas_no": "92207-77-7",
    "SMILES": "C(C(C(OCC)=O)C(C)=O)C1=CC=CC=C1",
    "meta_data": {
        "InChI": "InChI=1S/C13H16O3/c1-3-16-13(15)12(10(2)14)9-11-7-5-4-6-8-11/h4-8,12H,3,9H2,1-2H3",
        "InChIKey": null,
        "Canonical SMILES": "O=C(OCC)C(C(=O)C)CC=1C=CC=CC1",
        "Molecular Formula": "C<sub>13</sub>H<sub>16</sub>O<sub>3</sub>",
        "Molecular Mass": "220.26",
        "Boiling Point": "276 °C"
    }
}