{
    "cas_no": "480-36-4",
    "key_name": "Linarin",
    "cn_name": "蒙花苷;",
    "alternate_name": "4<em>H</em>-1-Benzopyran-4-one, 7-[[6-<em>O</em>-(6-deoxy-α-<span class=\"text-smallcaps\">L</smallcap>-mannopyranosyl)-β-<smallcap>D</span>-glucopyranosyl]oxy]-5-hydroxy-2-(4-methoxyphenyl)-;Linarin;7-[[6-<em>O</em>-(6-Deoxy-α-<span class=\"text-smallcaps\">L</smallcap>-mannopyranosyl)-β-<smallcap>D</span>-glucopyranosyl]oxy]-5-hydroxy-2-(4-methoxyphenyl)-4<em>H</em>-1-benzopyran-4-one;Buddleoflavonoloside;Linarigenin glycoside;Acaciin;Acacetin 7-<em>O</em>-rutinoside;Buddleoside;Acacetin-7-<em>O</em>-β-<span class=\"text-smallcaps\">D</span>-rutinoside;Acacetin 7-<em>O</em>-α-<span class=\"text-smallcaps\">L</smallcap>-rhamnopyranosyl-(1→6)-β-<smallcap>D</span>-glucopyranoside;5-Hydroxy-4′-methoxyflavone-7-<em>O</em>-rutinoside;Acacetin-7-<em>O</em>-(6′′-<em>O</em>-rhamnose)-β-<span class=\"text-smallcaps\">D</span>-glucoside;Linarine",
    "duplicated_cas_no": "1329-58-4;11027-51-3;11030-42-5;181586-39-0;2223047-41-2",
    "SMILES": "O=C1C=2C(OC(=C1)C3=CC=C(OC)C=C3)=CC(O[C@@H]4O[C@H](CO[C@H]5[C@H](O)[C@H](O)[C@@H](O)[C@H](C)O5)[C@@H](O)[C@H](O)[C@H]4O)=CC2O",
    "meta_data": {
        "InChI": "InChI=1S/C28H32O14/c1-11-21(31)23(33)25(35)27(39-11)38-10-19-22(32)24(34)26(36)28(42-19)40-14-7-15(29)20-16(30)9-17(41-18(20)8-14)12-3-5-13(37-2)6-4-12/h3-9,11,19,21-29,31-36H,10H2,1-2H3/t11-,19+,21-,22+,23+,24-,25+,26+,27+,28+/m0/s1",
        "InChIKey": null,
        "Canonical SMILES": "O=C1C=C(OC2=CC(OC3OC(COC4OC(C)C(O)C(O)C4O)C(O)C(O)C3O)=CC(O)=C12)C=5C=CC(OC)=CC5",
        "Molecular Formula": "C<sub>28</sub>H<sub>32</sub>O<sub>14</sub>",
        "Molecular Mass": "592.55",
        "Melting Point": "260 °C (decomp)"
    }
}