{
    "cas_no": "6583-06-8",
    "key_name": "4-Nitro-2,1,3-benzothiadiazole",
    "cn_name": "4-硝基-2,1,3-苯并噻二唑;4-硝基-2,1,3-苯并噻二唑;4-硝基苯并噻二唑;",
    "alternate_name": "2,1,3-Benzothiadiazole, 4-nitro-;4-Nitro-2,1,3-benzothiadiazole;NSC 404747",
    "duplicated_cas_no": "135677-89-3;1007184-25-9",
    "SMILES": "N(=O)(=O)C=1C=2C(=NSN2)C=CC1",
    "meta_data": {
        "InChI": "InChI=1S/C6H3N3O2S/c10-9(11)5-3-1-2-4-6(5)8-12-7-4/h1-3H",
        "InChIKey": null,
        "Canonical SMILES": "O=N(=O)C1=CC=CC2=NSN=C21",
        "Molecular Formula": "C<sub>6</sub>H<sub>3</sub>N<sub>3</sub>O<sub>2</sub>S",
        "Molecular Mass": "181.17",
        "Melting Point": "107-108 °C"
    }
}