{
    "cas_no": "13829-21-5",
    "key_name": "Decyltrichlorosilane",
    "cn_name": "三氯癸基硅烷;",
    "alternate_name": "Silane, trichlorodecyl-;Trichlorodecylsilane;Decyltrichlorosilane;<em>n</em>-Decyltrichlorosilane;Trichloro(decyl)silane",
    "duplicated_cas_no": "",
    "SMILES": "C(CCCCCCCC)C[Si](Cl)(Cl)Cl",
    "meta_data": {
        "InChI": "InChI=1S/C10H21Cl3Si/c1-2-3-4-5-6-7-8-9-10-14(11,12)13/h2-10H2,1H3",
        "InChIKey": null,
        "Canonical SMILES": "Cl[Si](Cl)(Cl)CCCCCCCCCC",
        "Molecular Formula": "C<sub>10</sub>H<sub>21</sub>Cl<sub>3</sub>Si",
        "Molecular Mass": "275.72",
        "Boiling Point": "133-137 °C @ Press: 5 Torr",
        "Density": "1.054 g/cm³"
    }
}