{
    "cas_no": "40101-17-5",
    "key_name": "3,3′-Dimethoxybenzil",
    "cn_name": "3,3\"-二甲氧基苯偶酰;",
    "alternate_name": "1,2-Ethanedione, 1,2-bis(3-methoxyphenyl)-;Ethanedione, bis(3-methoxyphenyl)-;1,2-Bis(3-methoxyphenyl)-1,2-ethanedione;Bis(3-methoxyphenyl)ethanedione;3,3′-Dimethoxybenzil;1,2-Bis(3-methoxyphenyl)-1,2-ethandione",
    "duplicated_cas_no": "",
    "SMILES": "C(C(=O)C1=CC(OC)=CC=C1)(=O)C2=CC(OC)=CC=C2",
    "meta_data": {
        "InChI": "InChI=1S/C16H14O4/c1-19-13-7-3-5-11(9-13)15(17)16(18)12-6-4-8-14(10-12)20-2/h3-10H,1-2H3",
        "InChIKey": null,
        "Canonical SMILES": "O=C(C(=O)C=1C=CC=C(OC)C1)C=2C=CC=C(OC)C2",
        "Molecular Formula": "C<sub>16</sub>H<sub>14</sub>O<sub>4</sub>",
        "Molecular Mass": "270.28",
        "Melting Point": "83 °C"
    }
}