{
    "cas_no": "6154-04-7",
    "key_name": "2-Methyl-2<em>H</em>-tetrazol-5-amine",
    "cn_name": "2-甲基-5-氨基-2H-四氮唑;",
    "alternate_name": "2<em>H</em>-Tetrazol-5-amine, 2-methyl-;2<em>H</em>-Tetrazole, 5-amino-2-methyl-;2-Methyl-2<em>H</em>-tetrazol-5-amine;5-Amino-2-methyltetrazole;2-Methyl-5-aminotetrazole;5-Amino-2-methyl-2<em>H</em>-tetrazole;2-Methyl-5-tetrazolamine;NSC 141015;(2-Methyl-2<em>H</em>-tetrazol-5-yl)amine;2-Methyl-2<em>H</em>-1,2,3,4-tetrazol-5-amine",
    "duplicated_cas_no": "",
    "SMILES": "NC1=NN(C)N=N1",
    "meta_data": {
        "InChI": "InChI=1S/C2H5N5/c1-7-5-2(3)4-6-7/h1H3,(H2,3,5)",
        "InChIKey": null,
        "Canonical SMILES": "N1=NN(N=C1N)C",
        "Molecular Formula": "C<sub>2</sub>H<sub>5</sub>N<sub>5</sub>",
        "Molecular Mass": "99.09",
        "Melting Point": "104.5-105.5 °C"
    }
}