{
    "cas_no": "3247-00-5",
    "key_name": "4-Methyl-α,α-bis(4-methylphenyl)benzenemethanol",
    "cn_name": "4,4\",4\"-三甲基苯甲醇;",
    "alternate_name": "Benzenemethanol, 4-methyl-α,α-bis(4-methylphenyl)-;Methanol, tri-<em>p</em>-tolyl-;4-Methyl-α,α-bis(4-methylphenyl)benzenemethanol;Tris(4-methylphenyl)methanol;Tri(<em>p</em>-tolyl)methanol;4,4′,4′′-Trimethyltriphenylmethanol;Tri-<em>p</em>-tolyl carbinol;NSC 123489",
    "duplicated_cas_no": "",
    "SMILES": "C(O)(C1=CC=C(C)C=C1)(C2=CC=C(C)C=C2)C3=CC=C(C)C=C3",
    "meta_data": {
        "InChI": "InChI=1S/C22H22O/c1-16-4-10-19(11-5-16)22(23,20-12-6-17(2)7-13-20)21-14-8-18(3)9-15-21/h4-15,23H,1-3H3",
        "InChIKey": null,
        "Canonical SMILES": "OC(C1=CC=C(C=C1)C)(C2=CC=C(C=C2)C)C3=CC=C(C=C3)C",
        "Molecular Formula": "C<sub>22</sub>H<sub>22</sub>O",
        "Molecular Mass": "302.41",
        "Melting Point": "94 °C"
    }
}