{
    "cas_no": "480-65-9",
    "key_name": "Isodehydroacetic acid",
    "cn_name": "4,6-二甲基邻吡喃酮;4,6-二甲基邻吡喃酮;4,6-二甲基香豆酸;",
    "alternate_name": "2<em>H</em>-Pyran-5-carboxylic acid, 4,6-dimethyl-2-oxo-;Glutaconic acid, 4-(1-hydroxyethylidene)-3-methyl-, δ-lactone;Coumalic acid, 4,6-dimethyl-;4,6-Dimethyl-2-oxo-2<em>H</em>-pyran-5-carboxylic acid;Acetic acid, isodehydro-;Isodehydracetic acid;Isodehydroacetic acid;2-Pentenedioic acid, 4-(1-hydroxyethylidene)-3-methyl-, δ-lactone;4,6-Dimethylcoumalic acid;NSC 34551;NSC 408066;2,4-Dimethyl-6-oxo-6<em>H</em>-pyran-3-carboxylic acid;2,4-Dimethyl-6-oxopyran-3-carboxylic acid",
    "duplicated_cas_no": "1134020-00-0",
    "SMILES": "C(O)(=O)C=1C(C)=CC(=O)OC1C",
    "meta_data": {
        "InChI": "InChI=1S/C8H8O4/c1-4-3-6(9)12-5(2)7(4)8(10)11/h3H,1-2H3,(H,10,11)",
        "InChIKey": null,
        "Canonical SMILES": "O=C(O)C1=C(OC(=O)C=C1C)C",
        "Molecular Formula": "C<sub>8</sub>H<sub>8</sub>O<sub>4</sub>",
        "Molecular Mass": "168.15",
        "Melting Point": "155 °C"
    }
}