{
    "cas_no": "3937-56-2",
    "key_name": "1,9-Nonanediol",
    "cn_name": "1,9-壬二醇;",
    "alternate_name": "1,9-Nonanediol;α,ω-Nonanediol;1,9-Dihydroxynonane;NSC 5416;Nonamethylene glycol",
    "duplicated_cas_no": "",
    "SMILES": "C(CCCCO)CCCCO",
    "meta_data": {
        "InChI": "InChI=1S/C9H20O2/c10-8-6-4-2-1-3-5-7-9-11/h10-11H,1-9H2",
        "InChIKey": null,
        "Canonical SMILES": "OCCCCCCCCCO",
        "Molecular Formula": "C<sub>9</sub>H<sub>20</sub>O<sub>2</sub>",
        "Molecular Mass": "160.25",
        "Boiling Point": "147-149 °C @ Press: 1 Torr",
        "Melting Point": "45.8 °C"
    }
}