{
    "cas_no": "554-35-8",
    "key_name": "Linamarin",
    "cn_name": "?麻苷;?麻苷;",
    "alternate_name": "Propanenitrile, 2-(β-<span class=\"text-smallcaps\">D</span>-glucopyranosyloxy)-2-methyl-;Linamarin;2-(β-<span class=\"text-smallcaps\">D</span>-Glucopyranosyloxy)-2-methylpropanenitrile;α-Hydroxyisobutyronitrile β-<span class=\"text-smallcaps\">D</span>-glucose;Phaseolunatin;2-(β-<span class=\"text-smallcaps\">D</span>-Glucosyloxy)-2-methylpropionitrile",
    "duplicated_cas_no": "30372-72-6;1194765-62-2",
    "SMILES": "O(C(C#N)(C)C)[C@@H]1O[C@H](CO)[C@@H](O)[C@H](O)[C@H]1O",
    "meta_data": {
        "InChI": "InChI=1S/C10H17NO6/c1-10(2,4-11)17-9-8(15)7(14)6(13)5(3-12)16-9/h5-9,12-15H,3H2,1-2H3/t5-,6-,7+,8-,9+/m1/s1",
        "InChIKey": null,
        "Canonical SMILES": "N#CC(OC1OC(CO)C(O)C(O)C1O)(C)C",
        "Molecular Formula": "C<sub>10</sub>H<sub>17</sub>NO<sub>6</sub>",
        "Molecular Mass": "247.25",
        "Melting Point": "142-143 °C"
    }
}