{
    "cas_no": "399-95-1",
    "key_name": "4-Amino-3-fluorophenol",
    "cn_name": "4-氨基-3-氟苯酚;",
    "alternate_name": "Phenol, 4-amino-3-fluoro-;4-Amino-3-fluorophenol;3-Fluoro-4-aminophenol;2-Fluoro-4-hydroxyaniline;2-Fluoro-4-hydroxylaniline",
    "duplicated_cas_no": "",
    "SMILES": "FC1=C(N)C=CC(O)=C1",
    "meta_data": {
        "InChI": "InChI=1S/C6H6FNO/c7-5-3-4(9)1-2-6(5)8/h1-3,9H,8H2",
        "InChIKey": null,
        "Canonical SMILES": "FC1=CC(O)=CC=C1N",
        "Molecular Formula": "C<sub>6</sub>H<sub>6</sub>FNO",
        "Molecular Mass": "127.12",
        "Melting Point": "139 °C"
    }
}