{
    "cas_no": "94021-22-4",
    "key_name": "Pyrimidine, 2-(1-piperazinyl)-, hydrochloride (1:2)",
    "cn_name": "2-1-哌啶吡啶酮;",
    "alternate_name": "Pyrimidine, 2-(1-piperazinyl)-, hydrochloride (1:2);Pyrimidine, 2-(1-piperazinyl)-, dihydrochloride;1-(2-Pyrimidinyl)piperazine dihydrochloride;2-(1-Piperazinyl)pyrimidine dihydrochloride;1-(2-Pyrimidyl)piperazine dihydrochloride;NIH 10854;<em>N</em>-(2-Pyrimidinyl)piperazine dihydrochloride;4-(Pyrimidin-2-yl)piperazine dihydrochloride",
    "duplicated_cas_no": "",
    "SMILES": "C=1(N=CC=CN1)N2CCNCC2.Cl",
    "meta_data": {
        "InChI": "InChI=1S/C8H12N4.2ClH/c1-2-10-8(11-3-1)12-6-4-9-5-7-12;;/h1-3,9H,4-7H2;2*1H",
        "InChIKey": null,
        "Canonical SMILES": "Cl.N=1C=CC=NC1N2CCNCC2",
        "Molecular Formula": "C<sub>8</sub>H<sub>12</sub>N<sub>4</sub>.2ClH",
        "Molecular Mass": "",
        "Melting Point": "252.5-253 °C"
    }
}