{
    "cas_no": "406192-82-3",
    "key_name": "1<em>H</em>-Indole-5-carboxylic acid, hydrazide",
    "cn_name": null,
    "alternate_name": "1<em>H</em>-Indole-5-carboxylic acid, hydrazide;1<em>H</em>-Indole-5-carboxylic hydrazide;1<em>H</em>-Indole-5-carbohydrazide",
    "duplicated_cas_no": "",
    "SMILES": "C(NN)(=O)C=1C=C2C(=CC1)NC=C2",
    "meta_data": {
        "InChI": "InChI=1S/C9H9N3O/c10-12-9(13)7-1-2-8-6(5-7)3-4-11-8/h1-5,11H,10H2,(H,12,13)",
        "InChIKey": null,
        "Canonical SMILES": "O=C(NN)C=1C=CC=2NC=CC2C1",
        "Molecular Formula": "C<sub>9</sub>H<sub>9</sub>N<sub>3</sub>O",
        "Molecular Mass": "175.19",
        "Melting Point": "188 °C"
    }
}