{
    "cas_no": "945619-74-9",
    "key_name": "Ophiopogonin D",
    "cn_name": null,
    "alternate_name": "β-<span class=\"text-smallcaps\">D</smallcap>-Galactopyranoside, (1β,3β,25<em>R</em>)-3-hydroxyspirost-5-en-1-yl <em>O</em>-6-deoxy-α-<smallcap>L</smallcap>-mannopyranosyl-(1→2)-<em>O</em>-[β-<smallcap>D</span>-xylopyranosyl-(1→3)]-6-deoxy-;(1β,3β,25<em>R</em>)-3-Hydroxyspirost-5-en-1-yl <em>O</em>-6-deoxy-α-<span class=\"text-smallcaps\">L</smallcap>-mannopyranosyl-(1→2)-<em>O</em>-[β-<smallcap>D</smallcap>-xylopyranosyl-(1→3)]-6-deoxy-β-<smallcap>D</span>-galactopyranoside;Ophiopogonin D;Deacetylophiopogonin C;OJV-V;25(<em>R</em>)-Ruscogenin 1-<em>O</em>-[α-<span class=\"text-smallcaps\">L</smallcap>-rhamnopyranosyl-(1→2)][β-<smallcap>D</smallcap>-xylopyranosyl-(1→3)]-β-<smallcap>D</span>-fucopyranoside",
    "duplicated_cas_no": "11054-29-8;11088-12-3;41753-55-3;1868133-32-7",
    "SMILES": "C[C@@]12[C@@]3([C@](C[C@]1([C@]4([C@](CC2)([C@@]5(C)[C@H](O[C@H]6[C@H](O[C@H]7[C@H](O)[C@H](O)[C@@H](O)[C@H](C)O7)[C@@H](O[C@H]8[C@H](O)[C@@H](O)[C@H](O)CO8)[C@@H](O)[C@@H](C)O6)C[C@H](O)CC5=CC4)[H])[H])[H])(O[C@@]9([C@H]3C)CC[C@@H](C)CO9)[H])[H]",
    "meta_data": {
        "InChI": "InChI=1S/C44H70O16/c1-18-9-12-44(54-16-18)19(2)30-28(60-44)15-26-24-8-7-22-13-23(45)14-29(43(22,6)25(24)10-11-42(26,30)5)57-41-38(59-40-36(52)34(50)31(47)20(3)55-40)37(32(48)21(4)56-41)58-39-35(51)33(49)27(46)17-53-39/h7,18-21,23-41,45-52H,8-17H2,1-6H3/t18-,19+,20+,21-,23-,24-,25+,26+,27-,28+,29-,30+,31+,32+,33+,34-,35-,36-,37+,38-,39+,40+,41+,42+,43+,44-/m1/s1",
        "InChIKey": null,
        "Canonical SMILES": "OC1CC2=CCC3C(CCC4(C)C3CC5OC6(OCC(C)CC6)C(C)C54)C2(C)C(OC7OC(C)C(O)C(OC8OCC(O)C(O)C8O)C7OC9OC(C)C(O)C(O)C9O)C1",
        "Molecular Formula": "C<sub>44</sub>H<sub>70</sub>O<sub>16</sub>",
        "Molecular Mass": "855.02",
        "Melting Point": "263-265 °C"
    }
}