{
    "cas_no": "16747-26-5",
    "key_name": "2,2,4-Trimethylhexane",
    "cn_name": null,
    "alternate_name": "Hexane, 2,2,4-trimethyl-;2,2,4-Trimethylhexane;(±)-2,2,4-Trimethylhexane",
    "duplicated_cas_no": "",
    "SMILES": "C(C(C)(C)C)C(CC)C",
    "meta_data": {
        "InChI": "InChI=1S/C9H20/c1-6-8(2)7-9(3,4)5/h8H,6-7H2,1-5H3",
        "InChIKey": null,
        "Canonical SMILES": "CCC(C)CC(C)(C)C",
        "Molecular Formula": "C<sub>9</sub>H<sub>20</sub>",
        "Molecular Mass": "128.26",
        "Boiling Point": "126.5 °C",
        "Melting Point": "-120 °C",
        "Density": "0.711 g/cm³ @ Temp: 4 °C"
    }
}