{
    "cas_no": "14733-77-8",
    "key_name": "5-Amino-2-benzoxazolone",
    "cn_name": null,
    "alternate_name": "2(3<em>H</em>)-Benzoxazolone, 5-amino-;2-Benzoxazolinone, 5-amino-;5-Amino-2(3<em>H</em>)-benzoxazolone;5-Aminobenzoxazolone;5-Amino-2-benzoxazolone;5-Aminobenzoxazolin-2-one;NSC 24965;5-Aminobenzo[<em>d</em>]oxazol-2(3<em>H</em>)-one;5-Amino-2-oxo-2,3-dihydro-1<em>H</em>-benzoxazole",
    "duplicated_cas_no": "",
    "SMILES": "O=C1OC=2C(N1)=CC(N)=CC2",
    "meta_data": {
        "InChI": "InChI=1S/C7H6N2O2/c8-4-1-2-6-5(3-4)9-7(10)11-6/h1-3H,8H2,(H,9,10)",
        "InChIKey": null,
        "Canonical SMILES": "O=C1OC2=CC=C(N)C=C2N1",
        "Molecular Formula": "C<sub>7</sub>H<sub>6</sub>N<sub>2</sub>O<sub>2</sub>",
        "Molecular Mass": "150.13",
        "Melting Point": "206-208 °C"
    }
}