{
    "cas_no": "54711-21-6",
    "key_name": "5-Amino-4-cyano-1<em>H</em>-pyrazole-3-acetonitrile",
    "cn_name": "5-氨基-4-氰基-3-氰甲基吡唑;",
    "alternate_name": "1<em>H</em>-Pyrazole-3-acetonitrile, 5-amino-4-cyano-;Pyrazole-3-acetonitrile, 5-amino-4-cyano-;5-Amino-4-cyano-1<em>H</em>-pyrazole-3-acetonitrile;5-Amino-4-cyano-3-(cyanomethyl)pyrazole;3-Amino-4-cyano-5-cyanomethylpyrazole;NSC 22478;5-Amino-3-cyanomethyl-1<em>H</em>-pyrazole-4-carbonitrile;3-Cyanomethyl-4-cyano-5-amino-1<em>H</em>-pyrazole;3-Amino-5-(cyanomethyl)-1<em>H</em>-pyrazole-4-carbonitrile",
    "duplicated_cas_no": "57695-77-9;74721-23-6;75507-63-0;78710-11-9;142086-47-3;145317-02-8;148725-97-7;167018-33-9;169120-59-6;174891-09-9;380432-39-3;591233-88-4;879440-22-9;2566622-91-9",
    "SMILES": "C(C#N)C=1C(C#N)=C(N)NN1",
    "meta_data": {
        "InChI": "InChI=1S/C6H5N5/c7-2-1-5-4(3-8)6(9)11-10-5/h1H2,(H3,9,10,11)",
        "InChIKey": null,
        "Canonical SMILES": "N#CC1=C(N)NN=C1CC#N",
        "Molecular Formula": "C<sub>6</sub>H<sub>5</sub>N<sub>5</sub>",
        "Molecular Mass": "147.14",
        "Melting Point": "197-198 °C"
    }
}