{
    "cas_no": "60792-79-2",
    "key_name": "Ethanamine, 2,2′-oxybis-, hydrochloride (1:2)",
    "cn_name": "2,2-氧代双乙胺二盐酸盐;",
    "alternate_name": "Ethanamine, 2,2′-oxybis-, hydrochloride (1:2);Ethanamine, 2,2′-oxybis-, dihydrochloride;Ethylamine, 2,2′-oxybis-, dihydrochloride;Bis(2-aminoethyl) ether dihydrochloride;2,2′-Oxybis(ethylamine) dihydrochloride;2-(2-Aminoethoxy)ethanamine dihydrochloride",
    "duplicated_cas_no": "",
    "SMILES": "O(CCN)CCN.Cl",
    "meta_data": {
        "InChI": "InChI=1S/C4H12N2O.2ClH/c5-1-3-7-4-2-6;;/h1-6H2;2*1H",
        "InChIKey": null,
        "Canonical SMILES": "Cl.O(CCN)CCN",
        "Molecular Formula": "C<sub>4</sub>H<sub>12</sub>N<sub>2</sub>O.2ClH",
        "Molecular Mass": "",
        "Melting Point": "220-223 °C"
    }
}