{
    "cas_no": "1646-75-9",
    "key_name": "Propanal, 2-methyl-2-(methylthio)-, oxime",
    "cn_name": null,
    "alternate_name": "Propanal, 2-methyl-2-(methylthio)-, oxime;Propionaldehyde, 2-methyl-2-(methylthio)-, oxime;2-Methyl-2-(methylthio)propionaldoxime;Aldicarb oxime;Temik oxime;2-(Methylthio)-2-methylpropionaldehyde oxime;2-Methyl-2-(methylthio)propionaldehyde oxime;2-Methyl-2-(methylthio)propanal oxime;2-Methyl-2-methylsulfanyl-propionaldehyde oxime",
    "duplicated_cas_no": "",
    "SMILES": "C(C=NO)(SC)(C)C",
    "meta_data": {
        "InChI": "InChI=1S/C5H11NOS/c1-5(2,8-3)4-6-7/h4,7H,1-3H3",
        "InChIKey": null,
        "Canonical SMILES": "ON=CC(SC)(C)C",
        "Molecular Formula": "C<sub>5</sub>H<sub>11</sub>NOS",
        "Molecular Mass": "133.21",
        "Boiling Point": "78-81 °C @ Press: 5 Torr"
    }
}