{
    "cas_no": "4254-29-9",
    "key_name": "2-Indanol",
    "cn_name": "2-茚醇;",
    "alternate_name": "1<em>H</em>-Inden-2-ol, 2,3-dihydro-;2-Indanol;2,3-Dihydro-1<em>H</em>-inden-2-ol;2-Hydroxyindane;NSC 17485;2-Hydroxyhydrindene",
    "duplicated_cas_no": "",
    "SMILES": "OC1CC=2C(C1)=CC=CC2",
    "meta_data": {
        "InChI": "InChI=1S/C9H10O/c10-9-5-7-3-1-2-4-8(7)6-9/h1-4,9-10H,5-6H2",
        "InChIKey": null,
        "Canonical SMILES": "OC1CC=2C=CC=CC2C1",
        "Molecular Formula": "C<sub>9</sub>H<sub>10</sub>O",
        "Molecular Mass": "134.18",
        "Boiling Point": "102 °C @ Press: 13 Torr",
        "Melting Point": "70 °C",
        "Density": "0.97095 g/cm³ @ Temp: 30 °C"
    }
}