{
    "cas_no": "614-61-9",
    "key_name": "<em>o</em>-Chlorophenoxyacetic acid",
    "cn_name": "邻氯苯氧乙酸;2-氯苯氧乙酸;",
    "alternate_name": "Acetic acid, 2-(2-chlorophenoxy)-;Acetic acid, (<em>o</em>-chlorophenoxy)-;Acetic acid, (2-chlorophenoxy)-;2-(2-Chlorophenoxy)acetic acid;<em>o</em>-Chlorophenoxyacetic acid;(2-Chlorophenoxy)acetic acid;NSC 8454;2-(<em>o</em>-Chlorophenoxy)acetic acid;Ortho-chlorophenoxyacetic acid",
    "duplicated_cas_no": "",
    "SMILES": "O(CC(O)=O)C1=C(Cl)C=CC=C1",
    "meta_data": {
        "InChI": "InChI=1S/C8H7ClO3/c9-6-3-1-2-4-7(6)12-5-8(10)11/h1-4H,5H2,(H,10,11)",
        "InChIKey": null,
        "Canonical SMILES": "O=C(O)COC=1C=CC=CC1Cl",
        "Molecular Formula": "C<sub>8</sub>H<sub>7</sub>ClO<sub>3</sub>",
        "Molecular Mass": "186.59",
        "Melting Point": "148-149 °C"
    }
}