{
    "cas_no": "611-73-4",
    "key_name": "Phenylglyoxylic acid",
    "cn_name": "苯甲酰甲酸;苯乙酮酸;",
    "alternate_name": "Benzeneacetic acid, α-oxo-;Glyoxylic acid, phenyl-;α-Oxobenzeneacetic acid;Benzoylformic acid;Formic acid, benzoyl-;Phenylglyoxylic acid;Phenylgloxylic acid;Oxophenylacetic acid;α-Ketophenylacetic acid;2-Oxo-2-phenylacetic acid;Phenyloxoacetic acid;NSC 28293;2-Oxo-2-phenylethanoic acid;CAA 0869;LFC 1849;2-Oxo-2-phenylacetate",
    "duplicated_cas_no": "",
    "SMILES": "C(C(O)=O)(=O)C1=CC=CC=C1",
    "meta_data": {
        "InChI": "InChI=1S/C8H6O3/c9-7(8(10)11)6-4-2-1-3-5-6/h1-5H,(H,10,11)",
        "InChIKey": null,
        "Canonical SMILES": "O=C(O)C(=O)C=1C=CC=CC1",
        "Molecular Formula": "C<sub>8</sub>H<sub>6</sub>O<sub>3</sub>",
        "Molecular Mass": "150.13",
        "Boiling Point": "163 °C",
        "Melting Point": "66 °C"
    }
}