{
    "cas_no": "62476-15-7",
    "key_name": "4-Chloro-<em>N</em><sup>1</sup>-ethyl-1,2-benzenediamine",
    "cn_name": null,
    "alternate_name": "1,2-Benzenediamine, 4-chloro-<em>N</em><sup>1</sup>-ethyl-;<em>o</em>-Phenylenediamine, 4-chloro-<em>N</em><sup>1</sup>-ethyl-;4-Chloro-<em>N</em><sup>1</sup>-ethyl-1,2-benzenediamine;<em>N</em>-Ethyl-4-chloro-1,2-benzenediamine;4-Chloro-N1-ethylbenzene-1,2-diamine",
    "duplicated_cas_no": "",
    "SMILES": "N(CC)C1=C(N)C=C(Cl)C=C1",
    "meta_data": {
        "InChI": "InChI=1S/C8H11ClN2/c1-2-11-8-4-3-6(9)5-7(8)10/h3-5,11H,2,10H2,1H3",
        "InChIKey": null,
        "Canonical SMILES": "ClC1=CC=C(NCC)C(N)=C1",
        "Molecular Formula": "C<sub>8</sub>H<sub>11</sub>ClN<sub>2</sub>",
        "Molecular Mass": "170.64",
        "Melting Point": "61 °C"
    }
}