{
    "cas_no": "2216-51-5",
    "key_name": "(-)-Menthol",
    "cn_name": null,
    "alternate_name": "Cyclohexanol, 5-methyl-2-(1-methylethyl)-, (1<em>R</em>,2<em>S</em>,5<em>R</em>)-;Menthol, (1<em>R</em>,3<em>R</em>,4<em>S</em>)-(-)-;Cyclohexanol, 5-methyl-2-(1-methylethyl)-, [1<em>R</em>-(1α,2β,5α)]-;(1<em>R</em>,2<em>S</em>,5<em>R</em>)-5-Methyl-2-(1-methylethyl)cyclohexanol;<em>l</em>-Menthol;(-)-Menthol;(<em>R</em>)-(-)-Menthol;(-)-Menthyl alcohol;(1<em>R</em>)-(-)-Menthol;(1<em>R</em>,2<em>S</em>,5<em>R</em>)-(-)-Menthol;Levomenthol;<em>l</em>-(-)-Menthol;1<em>R</em>-Menthol;NSC 62788;<span class=\"text-smallcaps\">L</span>-Menthol;(1<em>R</em>,2<em>S</em>,5<em>R</em>)-2-Isopropyl-5-methylcyclohexanol;(1<em>R</em>,2<em>S</em>,5<em>R</em>)-2-Isopropyl-5-methylcyclohexan-1-ol;L-Mentholum;(-)-(1R,3R,4S)-Menthol;Minclea;(1R,2S,5R)-5-Methyl-2-(propan-2-yl)cyclohexanol;A 10474;(1R,2S,5R)-2-Isopropyl-5-methylcyclohexan-1-ol;Hakkano;(1R,2S,5R)-2-Isopropyl-5-methylcyclohexanol;(-)-<em>trans</em>-<em>p</em>-Menthan-<em>cis</em>-3-ol;FEMA 2665",
    "duplicated_cas_no": "98167-53-4;95650-44-5",
    "SMILES": "[C@H](C)(C)[C@H]1[C@H](O)C[C@H](C)CC1",
    "meta_data": {
        "InChI": "InChI=1S/C10H20O/c1-7(2)9-5-4-8(3)6-10(9)11/h7-11H,4-6H2,1-3H3/t8-,9+,10-/m1/s1",
        "InChIKey": null,
        "Canonical SMILES": "OC1CC(C)CCC1C(C)C",
        "Molecular Formula": "C<sub>10</sub>H<sub>20</sub>O",
        "Molecular Mass": "156.27",
        "Boiling Point": "212 °C",
        "Melting Point": "41-43 °C",
        "Density": "0.890 g/cm³"
    }
}