{
    "cas_no": "437-82-1",
    "key_name": "1,3-Difluoro-2-methoxybenzene",
    "cn_name": "2,6-二氟苯甲醚;",
    "alternate_name": "Benzene, 1,3-difluoro-2-methoxy-;Anisole, 2,6-difluoro-;1,3-Difluoro-2-methoxybenzene;2,6-Difluoroanisole",
    "duplicated_cas_no": "",
    "SMILES": "O(C)C1=C(F)C=CC=C1F",
    "meta_data": {
        "InChI": "InChI=1S/C7H6F2O/c1-10-7-5(8)3-2-4-6(7)9/h2-4H,1H3",
        "InChIKey": null,
        "Canonical SMILES": "FC1=CC=CC(F)=C1OC",
        "Molecular Formula": "C<sub>7</sub>H<sub>6</sub>F<sub>2</sub>O",
        "Molecular Mass": "144.12",
        "Boiling Point": "62 °C @ Press: 40 Torr"
    }
}