{
    "cas_no": "17804-35-2",
    "key_name": "Benomyl",
    "cn_name": "苯菌灵;1-正丁胺基甲酰-苯并咪唑-2-氨基甲酸甲酯;",
    "alternate_name": "Carbamic acid, <em>N</em>-[1-[(butylamino)carbonyl]-1<em>H</em>-benzimidazol-2-yl]-, methyl ester;2-Benzimidazolecarbamic acid, 1-(butylcarbamoyl)-, methyl ester;Carbamic acid, [1-[(butylamino)carbonyl]-1<em>H</em>-benzimidazol-2-yl]-, methyl ester;Fungicide D-1991;Methyl 1-(butylcarbamoyl)-2-benzimidazolecarbamate;Methyl 1-(butylcarbamoyl)-2-benzimidazolylcarbamate;Benomyl;Benlate 50W;BBC;Benlate;Du Pont 1991;Benlate 50;Fundazol;NS 02 (fungicide);MBC;Uzgen;Tersan 1991;BC 6597;Fungochrom;Agrocit;NS 02;Benomyl-Imex;Fundazol 50WP;Kribenomyl;Benomil;Zetamil;NSC 263489;Marvel;Safomyl;Benlate WP;Benlate 50WP;Benfungin;Benfungin WP;Minelate 50WG;MeSH ID: D001542",
    "duplicated_cas_no": "39357-40-9;52683-56-4;1135441-25-6",
    "SMILES": "C(NCCCC)(=O)N1C=2C(N=C1NC(OC)=O)=CC=CC2",
    "meta_data": {
        "InChI": "InChI=1S/C14H18N4O3/c1-3-4-9-15-13(19)18-11-8-6-5-7-10(11)16-12(18)17-14(20)21-2/h5-8H,3-4,9H2,1-2H3,(H,15,19)(H,16,17,20)",
        "InChIKey": null,
        "Canonical SMILES": "O=C(OC)NC1=NC=2C=CC=CC2N1C(=O)NCCCC",
        "Molecular Formula": "C<sub>14</sub>H<sub>18</sub>N<sub>4</sub>O<sub>3</sub>",
        "Molecular Mass": "290.32",
        "Melting Point": "140 °C (decomp)"
    }
}