{
    "cas_no": "7478-69-5",
    "key_name": "4,4′-Ethenylidenebis[<em>N</em>,<em>N</em>-dimethylbenzenamine]",
    "cn_name": null,
    "alternate_name": "Benzenamine, 4,4′-ethenylidenebis[<em>N</em>,<em>N</em>-dimethyl-;Aniline, 4,4′-vinylidenebis[<em>N</em>,<em>N</em>-dimethyl-;4,4′-Ethenylidenebis[<em>N</em>,<em>N</em>-dimethylbenzenamine];4,4′-Vinylidenebis(<em>N</em>,<em>N</em>-dimethylaniline);1,1-Bis[<em>p</em>-(dimethylamino)phenyl]ethene;1,1-Bis(4-dimethylaminophenyl)ethylene;1,1-Bis[<em>p</em>-(dimethylamino)phenyl]ethylene;Michler's ethylene;1,1-Bis[4-(dimethylamino)phenyl]ethene;NSC 401519",
    "duplicated_cas_no": "",
    "SMILES": "C(=C)(C1=CC=C(N(C)C)C=C1)C2=CC=C(N(C)C)C=C2",
    "meta_data": {
        "InChI": "InChI=1S/C18H22N2/c1-14(15-6-10-17(11-7-15)19(2)3)16-8-12-18(13-9-16)20(4)5/h6-13H,1H2,2-5H3",
        "InChIKey": null,
        "Canonical SMILES": "C=C(C1=CC=C(C=C1)N(C)C)C2=CC=C(C=C2)N(C)C",
        "Molecular Formula": "C<sub>18</sub>H<sub>22</sub>N<sub>2</sub>",
        "Molecular Mass": "266.38",
        "Melting Point": "121-122 °C"
    }
}