{
    "cas_no": "203866-16-4",
    "key_name": "1-(1,1-Dimethylethyl) 2-methyl (2<em>S</em>,4<em>S</em>)-4-fluoro-1,2-pyrrolidinedicarboxylate",
    "cn_name": null,
    "alternate_name": "1,2-Pyrrolidinedicarboxylic acid, 4-fluoro-, 1-(1,1-dimethylethyl) 2-methyl ester, (2<em>S</em>,4<em>S</em>)-;1,2-Pyrrolidinedicarboxylic acid, 4-fluoro-, 1-(1,1-dimethylethyl) 2-methyl ester, (2<em>S</em>-<em>cis</em>)-;1-(1,1-Dimethylethyl) 2-methyl (2<em>S</em>,4<em>S</em>)-4-fluoro-1,2-pyrrolidinedicarboxylate;1-<em>tert</em>-Butyl 2-methyl (2<em>S</em>,4<em>S</em>)-4-fluoro-1,2-pyrrolidinedicarboxylate;<em>tert</em>-Butyl (2<em>S</em>,4<em>S</em>)-2-(methoxycarbonyl)-4-fluoropyrrolidine-1-carboxylate;Methyl (2S,4S)-<em>N</em>-<em>tert</em>-butoxycarbonyl-4-fluoropyrrolidine-2-carboxylate;(2<em>S</em>,4<em>S</em>)-4-Fluoro-1-(<em>tert</em>-butoxycarbonyl)pyrrolidine-2-carboxylic acid methyl ester;(2S,4S)-1-<em>tert</em>-Butyl 2-methyl 4-fluoropyrrolidine-1,2-dicarboxylate",
    "duplicated_cas_no": "",
    "SMILES": "C(OC(C)(C)C)(=O)N1[C@H](C(OC)=O)C[C@H](F)C1",
    "meta_data": {
        "InChI": "InChI=1S/C11H18FNO4/c1-11(2,3)17-10(15)13-6-7(12)5-8(13)9(14)16-4/h7-8H,5-6H2,1-4H3/t7-,8-/m0/s1",
        "InChIKey": null,
        "Canonical SMILES": "O=C(OC(C)(C)C)N1CC(F)CC1C(=O)OC",
        "Molecular Formula": "C<sub>11</sub>H<sub>18</sub>FNO<sub>4</sub>",
        "Molecular Mass": "247.26",
        "Melting Point": "210 °C"
    }
}