{
    "cas_no": "6264-67-1",
    "key_name": "4-Fluoro-1,3-phenylenediamine",
    "cn_name": "4-氟-1,3-二氨基苯;",
    "alternate_name": "1,3-Benzenediamine, 4-fluoro-;<em>m</em>-Phenylenediamine, 4-fluoro-;4-Fluoro-1,3-benzenediamine;4-Fluoro-<em>m</em>-phenylenediamine;2,4-Diamino-1-fluorobenzene;4-Fluoro-1,3-phenylenediamine;3-Amino-4-fluoroaniline;2,4-Diaminofluorobenzene",
    "duplicated_cas_no": "",
    "SMILES": "NC1=C(F)C=CC(N)=C1",
    "meta_data": {
        "InChI": "InChI=1S/C6H7FN2/c7-5-2-1-4(8)3-6(5)9/h1-3H,8-9H2",
        "InChIKey": null,
        "Canonical SMILES": "FC1=CC=C(N)C=C1N",
        "Molecular Formula": "C<sub>6</sub>H<sub>7</sub>FN<sub>2</sub>",
        "Molecular Mass": "126.13",
        "Boiling Point": "152-153 °C @ Press: 22-23 Torr"
    }
}