{
    "cas_no": "3967-55-3",
    "key_name": "4,5-Dichloro-1,3-dioxolan-2-one",
    "cn_name": "4,5-二氯-1,3-二氧五环-2-酮;二氯代碳酸乙烯酯;",
    "alternate_name": "1,3-Dioxolan-2-one, 4,5-dichloro-;Carbonic acid, cyclic 1,2-dichloroethylene ester;Carbonic acid, 1,2-dichloroethylene ester;4,5-Dichloro-1,3-dioxolan-2-one;1,2-Ethanediol, 1,2-dichloro-, cyclic carbonate;1,2-Dichloroethylene carbonate;Cyclic 1,2-dichloroethylene carbonate;NSC 15913;4,5-Dichloro-1,3-oxolan-2-one",
    "duplicated_cas_no": "",
    "SMILES": "ClC1C(Cl)OC(=O)O1",
    "meta_data": {
        "InChI": "InChI=1S/C3H2Cl2O3/c4-1-2(5)8-3(6)7-1/h1-2H",
        "InChIKey": null,
        "Canonical SMILES": "O=C1OC(Cl)C(Cl)O1",
        "Molecular Formula": "C<sub>3</sub>H<sub>2</sub>Cl<sub>2</sub>O<sub>3</sub>",
        "Molecular Mass": "156.95",
        "Boiling Point": "178 °C @ Press: 739 Torr",
        "Density": "1.585 g/cm³ @ Temp: 25 °C"
    }
}