{
    "cas_no": "98-61-3",
    "key_name": "4-Iodobenzenesulfonyl chloride",
    "cn_name": "4-碘苯磺酰氯;对碘苯磺酰氯;",
    "alternate_name": "Benzenesulfonyl chloride, 4-iodo-;Benzenesulfonyl chloride, <em>p</em>-iodo-;4-Iodobenzenesulfonyl chloride;<em>p</em>-Iodobenzenesulfonyl chloride;<em>p</em>-Iodophenylsulfonyl chloride;Pipsyl chloride;4-Iodophenylsulfonyl chloride;NSC 77079",
    "duplicated_cas_no": "",
    "SMILES": "S(Cl)(=O)(=O)C1=CC=C(I)C=C1",
    "meta_data": {
        "InChI": "InChI=1S/C6H4ClIO2S/c7-11(9,10)6-3-1-5(8)2-4-6/h1-4H",
        "InChIKey": null,
        "Canonical SMILES": "O=S(=O)(Cl)C1=CC=C(I)C=C1",
        "Molecular Formula": "C<sub>6</sub>H<sub>4</sub>ClIO<sub>2</sub>S",
        "Molecular Mass": "302.52",
        "Melting Point": "85 °C"
    }
}