{
    "cas_no": "19337-97-4",
    "key_name": "<em>trans</em>-3-(3-Pyridyl)acrylic acid",
    "cn_name": null,
    "alternate_name": "2-Propenoic acid, 3-(3-pyridinyl)-, (2<em>E</em>)-;3-Pyridineacrylic acid, (<em>E</em>)-;2-Propenoic acid, 3-(3-pyridinyl)-, (<em>E</em>)-;(2<em>E</em>)-3-(3-Pyridinyl)-2-propenoic acid;<em>trans</em>-3-Pyridineacrylic acid;(<em>E</em>)-3-Pyridineacrylic acid;<em>trans</em>-3-(3-Pyridyl)propenoic acid;<em>trans</em>-3-(3-Pyridyl)acrylic acid;<em>trans</em>-3-(3-Pyridinyl)acrylic acid;(2<em>E</em>)-3-(Pyridin-3-yl)prop-2-enoic acid;(<em>E</em>)-3-(Pyridin-3-yl)-2-propenoic acid;(<em>E</em>)-3-(Pyridin-3-yl)acrylic acid;(E)-3-(Pyridin-3-yl)acrylic acid;(E)-3-(Pyridin-3-yl)prop-2-enoic acid;<em>trans</em>-β-(3-Pyridinyl)acrylic acid;<em>trans</em>-3-(3-Pyridyl)-2-propenoic acid;(E)-3-(3-Pyridyl)acrylic acid;(E)-3-(3-Pyridyl)prop-2-enoic acid",
    "duplicated_cas_no": "",
    "SMILES": "C(=C/C(O)=O)\\C=1C=CC=NC1",
    "meta_data": {
        "InChI": "InChI=1S/C8H7NO2/c10-8(11)4-3-7-2-1-5-9-6-7/h1-6H,(H,10,11)/b4-3+",
        "InChIKey": null,
        "Canonical SMILES": "O=C(O)C=CC=1C=NC=CC1",
        "Molecular Formula": "C<sub>8</sub>H<sub>7</sub>NO<sub>2</sub>",
        "Molecular Mass": "149.15",
        "Melting Point": "232-234 °C"
    }
}