{
    "cas_no": "221006-67-3",
    "key_name": "<em>B</em>-(4-Bromo-3-methylphenyl)boronic acid",
    "cn_name": null,
    "alternate_name": "Boronic acid, <em>B</em>-(4-bromo-3-methylphenyl)-;Boronic acid, (4-bromo-3-methylphenyl)-;<em>B</em>-(4-Bromo-3-methylphenyl)boronic acid;4-Bromo-3-methylphenylboronic acid",
    "duplicated_cas_no": "",
    "SMILES": "B(O)(O)C1=CC(C)=C(Br)C=C1",
    "meta_data": {
        "InChI": "InChI=1S/C7H8BBrO2/c1-5-4-6(8(10)11)2-3-7(5)9/h2-4,10-11H,1H3",
        "InChIKey": null,
        "Canonical SMILES": "BrC1=CC=C(C=C1C)B(O)O",
        "Molecular Formula": "C<sub>7</sub>H<sub>8</sub>BBrO<sub>2</sub>",
        "Molecular Mass": "214.85",
        "Melting Point": "&gt;250 °C"
    }
}