{
    "cas_no": "112-55-0",
    "key_name": "1-Dodecanethiol",
    "cn_name": "十二硫醇;正十二硫醇;正十二烷基硫醇;",
    "alternate_name": "1-Dodecanethiol;Dodecyl mercaptan;Lauryl mercaptan;<em>n</em>-Lauryl mercaptan;<em>n</em>-Dodecanethiol;<em>n</em>-Dodecyl mercaptan;1-Mercaptododecane;1-Dodecyl mercaptan;<em>n</em>-Dodecylthiol;NSC 814;1-Dodecylthiol;Thiokalcol 20;NDM;<em>n</em>-Dodecyl thiolate;HS 45220",
    "duplicated_cas_no": "859759-62-9;2022216-73-3",
    "SMILES": "C(CCCCCC)CCCCCS",
    "meta_data": {
        "InChI": "InChI=1S/C12H26S/c1-2-3-4-5-6-7-8-9-10-11-12-13/h13H,2-12H2,1H3",
        "InChIKey": null,
        "Canonical SMILES": "SCCCCCCCCCCCC",
        "Molecular Formula": "C<sub>12</sub>H<sub>26</sub>S",
        "Molecular Mass": "202.40",
        "Boiling Point": "142-145 °C @ Press: 15 Torr",
        "Melting Point": "-7 °C",
        "Density": "0.8450 g/cm³ @ Temp: 20 °C"
    }
}