{
    "cas_no": "642-71-7",
    "key_name": "3,4,5-Trimethoxyphenol",
    "cn_name": "3,4,5-三甲氧基苯酚;",
    "alternate_name": "Phenol, 3,4,5-trimethoxy-;3,4,5-Trimethoxyphenol;Antiarol",
    "duplicated_cas_no": "",
    "SMILES": "O(C)C1=C(OC)C=C(O)C=C1OC",
    "meta_data": {
        "InChI": "InChI=1S/C9H12O4/c1-11-7-4-6(10)5-8(12-2)9(7)13-3/h4-5,10H,1-3H3",
        "InChIKey": null,
        "Canonical SMILES": "OC=1C=C(OC)C(OC)=C(OC)C1",
        "Molecular Formula": "C<sub>9</sub>H<sub>12</sub>O<sub>4</sub>",
        "Molecular Mass": "184.19",
        "Melting Point": "148 °C"
    }
}