{
    "cas_no": "112-95-8",
    "key_name": "Eicosane",
    "cn_name": "二十烷;正二十烷;",
    "alternate_name": "Eicosane;<em>n</em>-Eicosane;NSC 62789;Parafol 20Z;MPCM 37",
    "duplicated_cas_no": "860208-83-9",
    "SMILES": "C(CCCCCCCCCC)CCCCCCCCC",
    "meta_data": {
        "InChI": "InChI=1S/C20H42/c1-3-5-7-9-11-13-15-17-19-20-18-16-14-12-10-8-6-4-2/h3-20H2,1-2H3",
        "InChIKey": null,
        "Canonical SMILES": "CCCCCCCCCCCCCCCCCCCC",
        "Molecular Formula": "C<sub>20</sub>H<sub>42</sub>",
        "Molecular Mass": "282.55",
        "Boiling Point": "343 °C",
        "Melting Point": "36.8 °C",
        "Density": "0.7889 g/cm³ @ Temp: 20 °C"
    }
}