{
    "cas_no": "352535-01-4",
    "key_name": "Ethanamine, <em>N</em>-methyl-, hafnium(4+) salt (4:1)",
    "cn_name": "四双(乙基甲基氨)铪(IV);",
    "alternate_name": "Ethanamine, <em>N</em>-methyl-, hafnium(4+) salt (4:1);Ethanamine, <em>N</em>-methyl-, hafnium(4+) salt;Tetrakis(ethylmethylamido)hafnium;Tetrakis(ethylmethylamino)hafnium;Hafnium tetra(ethylmethylamide);Tetrakis(methylethylamino)hafnium;TEMAH;Tetrakis(ethylmethylamino)hafnium(IV)",
    "duplicated_cas_no": "792942-32-6;897625-79-5;944089-22-9;959124-32-4;1431853-93-8;1519807-53-4;1639338-98-9;2042147-04-4;2254241-25-1;2378649-95-5;2491673-78-8;2519488-01-6;2770660-97-2",
    "SMILES": "C(NC)C.[Hf]",
    "meta_data": {
        "InChI": "InChI=1S/C3H9N.Hf/c1-3-4-2;/h4H,3H2,1-2H3;",
        "InChIKey": null,
        "Canonical SMILES": "[Hf].N(C)CC",
        "Molecular Formula": "C<sub>3</sub>H<sub>9</sub>N.<sup>1</sup>/<sub>4</sub>Hf",
        "Molecular Mass": "",
        "Boiling Point": "79 °C @ Press: 0.1 Torr",
        "Melting Point": "&lt;-70 °C"
    }
}