{
    "cas_no": "2427-71-6",
    "key_name": "6-Chloro-2(1<em>H</em>)-quinoxalinone",
    "cn_name": "2-羟基-6-氯喹喔啉;6-氯-2-羟基喹喔啉;",
    "alternate_name": "2(1<em>H</em>)-Quinoxalinone, 6-chloro-;2-Quinoxalinol, 6-chloro-;6-Chloro-2(1<em>H</em>)-quinoxalinone;6-Chloro-2-hydroxyquinoxaline;6-Chloro-2-quinoxalinol;6-Chloroquinoxalone;6-Chloroquinoxalin-2-one;6-Chloro-1,2-dihydroquinoxalin-2-one;2-Hydroxy-6-chloroquinoxaline",
    "duplicated_cas_no": "39267-06-6",
    "SMILES": "ClC=1C=C2C(NC(=O)C=N2)=CC1",
    "meta_data": {
        "InChI": "InChI=1S/C8H5ClN2O/c9-5-1-2-6-7(3-5)10-4-8(12)11-6/h1-4H,(H,11,12)",
        "InChIKey": null,
        "Canonical SMILES": "O=C1C=NC=2C=C(Cl)C=CC2N1",
        "Molecular Formula": "C<sub>8</sub>H<sub>5</sub>ClN<sub>2</sub>O",
        "Molecular Mass": "180.59",
        "Boiling Point": "160-170 °C @ Press: 10 Torr",
        "Melting Point": "305 °C"
    }
}