{
    "cas_no": "2039-68-1",
    "key_name": "4,4′-Diphenylstilbene",
    "cn_name": "反-4,4\"-二苯基联苯乙烯;",
    "alternate_name": "1,1′-Biphenyl, 4-(2-[1,1′-biphenyl]-4-ylethenyl)-;Stilbene, 4,4′-diphenyl-;1,1′-Biphenyl, 4,4′′-(1,2-ethenediyl)bis-;4-(2-[1,1′-Biphenyl]-4-ylethenyl)-1,1′-biphenyl;1,2-Bis(<em>p</em>-biphenylyl)ethylene;1,2-Bis(4-biphenylyl)ethylene;<em>p</em>,<em>p</em>′-Diphenylstilbene;4,4′-Diphenylstilbene;1,2-Bis(4-diphenylyl)ethylene;BBE;DPS;DPS (fluor);NSC 24862",
    "duplicated_cas_no": "96538-22-6",
    "SMILES": "C(=CC1=CC=C(C=C1)C2=CC=CC=C2)C3=CC=C(C=C3)C4=CC=CC=C4",
    "meta_data": {
        "InChI": "InChI=1S/C26H20/c1-3-7-23(8-4-1)25-17-13-21(14-18-25)11-12-22-15-19-26(20-16-22)24-9-5-2-6-10-24/h1-20H",
        "InChIKey": null,
        "Canonical SMILES": "C=1C=CC(=CC1)C=2C=CC(C=CC=3C=CC(=CC3)C=4C=CC=CC4)=CC2",
        "Molecular Formula": "C<sub>26</sub>H<sub>20</sub>",
        "Molecular Mass": "332.44",
        "Melting Point": "301 °C"
    }
}