{
    "cas_no": "32588-76-4",
    "key_name": "Saytex BT 93",
    "cn_name": "乙撑双四溴邻苯二甲酰亚胺;",
    "alternate_name": "1<em>H</em>-Isoindole-1,3(2<em>H</em>)-dione, 2,2′-(1,2-ethanediyl)bis[4,5,6,7-tetrabromo-;Phthalimide, <em>N</em>,<em>N</em>′-ethylenebis[tetrabromo-;2,2′-(1,2-Ethanediyl)bis[4,5,6,7-tetrabromo-1<em>H</em>-isoindole-1,3(2<em>H</em>)-dione];<em>N</em>,<em>N</em>′-Ethylenebis(tetrabromophthalimide);Citex BT 93;1,2-Bis(tetrabromophthalimido)ethane;Saytex BT 93;BT 93;BT 93W;Saytex BT 93W;BT 93WFG;Chemguard 952;EcoFlame B 951;Saytex BT 93W1;1,2-Bis(tetrabromophthalimide)ethane",
    "duplicated_cas_no": "66797-35-1",
    "SMILES": "O=C1C=2C(C(=O)N1CCN3C(=O)C=4C(C3=O)=C(Br)C(Br)=C(Br)C4Br)=C(Br)C(Br)=C(Br)C2Br",
    "meta_data": {
        "InChI": "InChI=1S/C18H4Br8N2O4/c19-7-3-4(8(20)12(24)11(7)23)16(30)27(15(3)29)1-2-28-17(31)5-6(18(28)32)10(22)14(26)13(25)9(5)21/h1-2H2",
        "InChIKey": null,
        "Canonical SMILES": "O=C1C=2C(Br)=C(Br)C(Br)=C(Br)C2C(=O)N1CCN3C(=O)C=4C(Br)=C(Br)C(Br)=C(Br)C4C3=O",
        "Molecular Formula": "C<sub>18</sub>H<sub>4</sub>Br<sub>8</sub>N<sub>2</sub>O<sub>4</sub>",
        "Molecular Mass": "951.47",
        "Melting Point": "456.0 °C"
    }
}