{
    "cas_no": "3257-18-9",
    "key_name": "<em>N</em>-[(Phenylmethoxy)carbonyl]-<em>S</em>-(phenylmethyl)-<span class=\"text-smallcaps\">L</span>-cysteine",
    "cn_name": "Nα-苄氧羰基-S-苄基-L-半胱氨酸;Nα-苄氧羰基-S-苄基-L-半胱氨酸;Nα-苄酯基-S-苄基-L-半胱氨酸；Nα-苄氧;",
    "alternate_name": "<span class=\"text-smallcaps\">L</span>-Cysteine, <em>N</em>-[(phenylmethoxy)carbonyl]-<em>S</em>-(phenylmethyl)-;Alanine, 3-(benzylthio)-<em>N</em>-carboxy-, <em>N</em>-benzyl ester, <span class=\"text-smallcaps\">L</span>-;Alanine, 3-(benzylthio)-<em>N</em>-carboxy-, benzyl ester;<em>N</em>-[(Phenylmethoxy)carbonyl]-<em>S</em>-(phenylmethyl)-<span class=\"text-smallcaps\">L</span>-cysteine;<em>N</em>-Carbobenzoxy-<em>S</em>-benzyl-<span class=\"text-smallcaps\">L</span>-cysteine;<em>N</em>-(Benzyloxycarbonyl)-<em>S</em>-benzyl-<span class=\"text-smallcaps\">L</span>-cysteine;<em>S</em>-Benzyl-<em>N</em>-carbobenzyloxy-<span class=\"text-smallcaps\">L</span>-cysteine;<em>S</em>-Benzyl-<em>N</em>-(benzyloxycarbonyl)-<span class=\"text-smallcaps\">L</span>-cysteine;NSC 164669;Benzeneacetic acid, [(1<em>S</em>)-1-carboxy-2-[(phenylmethyl)thio]ethyl]azanyl ester",
    "duplicated_cas_no": "1086274-66-9",
    "SMILES": "C(OC(N[C@@H](CSCC1=CC=CC=C1)C(O)=O)=O)C2=CC=CC=C2",
    "meta_data": {
        "InChI": "InChI=1S/C18H19NO4S/c20-17(21)16(13-24-12-15-9-5-2-6-10-15)19-18(22)23-11-14-7-3-1-4-8-14/h1-10,16H,11-13H2,(H,19,22)(H,20,21)/t16-/m0/s1",
        "InChIKey": null,
        "Canonical SMILES": "O=C(OCC=1C=CC=CC1)NC(C(=O)O)CSCC=2C=CC=CC2",
        "Molecular Formula": "C<sub>18</sub>H<sub>19</sub>NO<sub>4</sub>S",
        "Molecular Mass": "345.41",
        "Melting Point": "94-95 °C"
    }
}