{
    "cas_no": "85721-33-1",
    "key_name": "Ciprofloxacin",
    "cn_name": "环丙沙星;1-环丙基-6-氟-1,4-二氢-4-氧代-7(1-哌嗪基)-3-喹啉羧酸;",
    "alternate_name": "3-Quinolinecarboxylic acid, 1-cyclopropyl-6-fluoro-1,4-dihydro-4-oxo-7-(1-piperazinyl)-;1-Cyclopropyl-6-fluoro-1,4-dihydro-4-oxo-7-(1-piperazinyl)-3-quinolinecarboxylic acid;BAY-q 3939;Ciprofloxacin;Cipro IV;Cipropol;Euciprin;Ciprobay 100;1-Cyclopropyl-6-fluoro-1,4-dihydro-7-(1-piperazinyl)-4-oxo-3-quinoline carboxylic acid;Ciprine;Oftacifox;Catex;Ciprofloxacillin;Ciprofloxacine;Ciprolet;Cipromed;Ciprovet;Ciflafin;Ciprolet DS;Procip;Cyclofloxacin;Ciproxim;Ciproxina;Cunesin;Quinox XR;1-Cyclopropyl-6-fluoro-4-oxo-7-(piperazin-1-yl)-1,4-dihydroquinoline-3-carboxylic acid;Novidate;Cinthocip 500;Ciprodac;Cipronex;Urociproxin;Ciprox;Ciproval;Infu-luxacin;Lipoquin;Pulmaquin;Profloxacin;OTO 201;AuriPro;Otiprio;1-Cyclopropyl-6-fluoro-4-oxo-7-(piperazin-1-yl)-quinoline-3-carboxylic acid;1-Cyclopropyl-6-fluoro-4-oxo-7-piperazin-4-ium-1-ylquinoline-3-carboxylate;ARD 3150;Inhaled ciprofloxacin ARD 3150;Phytaflox;MeSH ID: D002939",
    "duplicated_cas_no": "178489-05-9;189257-90-7;1234562-12-9",
    "SMILES": "O=C1C=2C(N(C=C1C(O)=O)C3CC3)=CC(=C(F)C2)N4CCNCC4",
    "meta_data": {
        "InChI": "InChI=1S/C17H18FN3O3/c18-13-7-11-14(8-15(13)20-5-3-19-4-6-20)21(10-1-2-10)9-12(16(11)22)17(23)24/h7-10,19H,1-6H2,(H,23,24)",
        "InChIKey": null,
        "Canonical SMILES": "O=C(O)C1=CN(C2=CC(=C(F)C=C2C1=O)N3CCNCC3)C4CC4",
        "Molecular Formula": "C<sub>17</sub>H<sub>18</sub>FN<sub>3</sub>O<sub>3</sub>",
        "Molecular Mass": "331.34",
        "Melting Point": "225-257 °C (decomp)",
        "Density": "1.5 g/cm³"
    }
}