{
    "cas_no": "2050-23-9",
    "key_name": "Diethyl suberate",
    "cn_name": "辛二酸二乙酯;栓皮酸二乙酯;",
    "alternate_name": "Octanedioic acid, 1,8-diethyl ester;Suberic acid, diethyl ester;Octanedioic acid, diethyl ester;Diethyl suberate;Diethyl octanedioate;NSC 62701",
    "duplicated_cas_no": "",
    "SMILES": "C(CCCCCCC(OCC)=O)(OCC)=O",
    "meta_data": {
        "InChI": "InChI=1S/C12H22O4/c1-3-15-11(13)9-7-5-6-8-10-12(14)16-4-2/h3-10H2,1-2H3",
        "InChIKey": null,
        "Canonical SMILES": "O=C(OCC)CCCCCCC(=O)OCC",
        "Molecular Formula": "C<sub>12</sub>H<sub>22</sub>O<sub>4</sub>",
        "Molecular Mass": "230.30",
        "Boiling Point": "282.6 °C",
        "Melting Point": "5.9 °C"
    }
}