{
    "cas_no": "124-11-8",
    "key_name": "1-Nonene",
    "cn_name": "1-壬烯;香茅烯;",
    "alternate_name": "1-Nonene;<em>n</em>-Non-1-ene;α-Nonene;1-<em>n</em>-Nonene;NSC 73961;1-Nonylene",
    "duplicated_cas_no": "",
    "SMILES": "C(CCCC)CCC=C",
    "meta_data": {
        "InChI": "InChI=1S/C9H18/c1-3-5-7-9-8-6-4-2/h3H,1,4-9H2,2H3",
        "InChIKey": null,
        "Canonical SMILES": "C=CCCCCCCC",
        "Molecular Formula": "C<sub>9</sub>H<sub>18</sub>",
        "Molecular Mass": "126.24",
        "Boiling Point": "146.9 °C",
        "Melting Point": "-81.3 °C",
        "Density": "0.7433 g/cm³"
    }
}