{
    "cas_no": "18368-76-8",
    "key_name": "2-Chloro-3-methylpyridine",
    "cn_name": "2-氯-3-甲基吡啶;",
    "alternate_name": "Pyridine, 2-chloro-3-methyl-;3-Picoline, 2-chloro-;2-Chloro-3-methylpyridine;2-Chloro-3-picoline",
    "duplicated_cas_no": "",
    "SMILES": "CC1=C(Cl)N=CC=C1",
    "meta_data": {
        "InChI": "InChI=1S/C6H6ClN/c1-5-3-2-4-8-6(5)7/h2-4H,1H3",
        "InChIKey": null,
        "Canonical SMILES": "ClC1=NC=CC=C1C",
        "Molecular Formula": "C<sub>6</sub>H<sub>6</sub>ClN",
        "Molecular Mass": "127.57",
        "Boiling Point": "188-191 °C @ Press: 760 Torr",
        "Melting Point": "193 °C"
    }
}