{
    "cas_no": "479413-70-2",
    "key_name": "12-(3-Adamantan-1-yl-ureido)dodecanoic acid",
    "cn_name": null,
    "alternate_name": "Dodecanoic acid, 12-[[(tricyclo[3.3.1.1<sup>3,7</sup>]dec-1-ylamino)carbonyl]amino]-;12-[[(Tricyclo[3.3.1.1<sup>3,7</sup>]dec-1-ylamino)carbonyl]amino]dodecanoic acid;12-(3-Adamantan-1-yl-ureido)dodecanoic acid;A 003564556;AUDA;A003564556",
    "duplicated_cas_no": "",
    "SMILES": "N(C(NCCCCCCCCCCCC(O)=O)=O)C12CC3CC(C1)CC(C2)C3",
    "meta_data": {
        "InChI": "InChI=1S/C23H40N2O3/c26-21(27)10-8-6-4-2-1-3-5-7-9-11-24-22(28)25-23-15-18-12-19(16-23)14-20(13-18)17-23/h18-20H,1-17H2,(H,26,27)(H2,24,25,28)",
        "InChIKey": null,
        "Canonical SMILES": "O=C(NCCCCCCCCCCCC(=O)O)NC12CC3CC(CC(C3)C1)C2",
        "Molecular Formula": "C<sub>23</sub>H<sub>40</sub>N<sub>2</sub>O<sub>3</sub>",
        "Molecular Mass": "392.58",
        "Melting Point": "114 °C"
    }
}