{
    "cas_no": "116539-55-0",
    "key_name": "(α<em>S</em>)-α-[2-(Methylamino)ethyl]-2-thiophenemethanol",
    "cn_name": "3-甲基氨基-1-(2-噻吩基)-1-丙醇;",
    "alternate_name": "2-Thiophenemethanol, α-[2-(methylamino)ethyl]-, (α<em>S</em>)-;2-Thiophenemethanol, α-[2-(methylamino)ethyl]-, (<em>S</em>)-;(α<em>S</em>)-α-[2-(Methylamino)ethyl]-2-thiophenemethanol;(<em>S</em>)-3-Methylamino-1-(2-thienyl)-1-propanol;(<em>S</em>)-(-)-3-(<em>N</em>-Methylamino)-1-(2-thienyl)-1-propanol;<em>N</em>-Methyl-(<em>S</em>)-(-)-3-Hydroxy-3-(2-thiophen)propylamine;(1<em>S</em>)-(-)-3-(Methylamino)-1-(thien-2-yl)propan-1-ol;(<em>S</em>)-(-)-3-Methylamino-1-(2-thienyl)propan-1-ol;(1S)-3-(Methylamino)-1-(thiophen-2-yl)propan-1-ol;(1S)-3-(Methylamino)-1-thiophen-2-ylpropan-1-ol;(<em>S</em>)-3-(Methylamino)-1-(thiophen-2-yl)propan-1-ol",
    "duplicated_cas_no": "",
    "SMILES": "[C@@H](CCNC)(O)C1=CC=CS1",
    "meta_data": {
        "InChI": "InChI=1S/C8H13NOS/c1-9-5-4-7(10)8-3-2-6-11-8/h2-3,6-7,9-10H,4-5H2,1H3/t7-/m0/s1",
        "InChIKey": null,
        "Canonical SMILES": "OC(C=1SC=CC1)CCNC",
        "Molecular Formula": "C<sub>8</sub>H<sub>13</sub>NOS",
        "Molecular Mass": "171.26",
        "Melting Point": "70.5-73.0 °C"
    }
}