{
    "cas_no": "10176-66-6",
    "key_name": "Nevadensin",
    "cn_name": null,
    "alternate_name": "4<em>H</em>-1-Benzopyran-4-one, 5,7-dihydroxy-6,8-dimethoxy-2-(4-methoxyphenyl)-;Flavone, 5,7-dihydroxy-4′,6,8-trimethoxy-;5,7-Dihydroxy-6,8-dimethoxy-2-(4-methoxyphenyl)-4<em>H</em>-1-benzopyran-4-one;Nevadensin;5,7-Dihydroxy-6,8,4′-trimethoxyflavone;Nevadensin A;Pedunculin;Navadensin",
    "duplicated_cas_no": "",
    "SMILES": "O(C)C1=C2C(=C(O)C(OC)=C1O)C(=O)C=C(O2)C3=CC=C(OC)C=C3",
    "meta_data": {
        "InChI": "InChI=1S/C18H16O7/c1-22-10-6-4-9(5-7-10)12-8-11(19)13-14(20)17(23-2)15(21)18(24-3)16(13)25-12/h4-8,20-21H,1-3H3",
        "InChIKey": null,
        "Canonical SMILES": "O=C1C=C(OC=2C(OC)=C(O)C(OC)=C(O)C12)C=3C=CC(OC)=CC3",
        "Molecular Formula": "C<sub>18</sub>H<sub>16</sub>O<sub>7</sub>",
        "Molecular Mass": "344.32",
        "Melting Point": "199-200 °C"
    }
}