{
    "cas_no": "391-02-6",
    "key_name": "4-Hydroxy-7-trifluoromethylquinoline-3-carboxylic acid ethyl ester",
    "cn_name": "4-羟基-7-三氟甲基-3-羧酸乙酯;",
    "alternate_name": "3-Quinolinecarboxylic acid, 4-hydroxy-7-(trifluoromethyl)-, ethyl ester;NSC 96992;Ethyl 4-hydroxy-7-trifluoromethyl-3-quinolinecarboxylate;4-Hydroxy-7-trifluoromethylquinoline-3-carboxylic acid ethyl ester",
    "duplicated_cas_no": "",
    "SMILES": "OC=1C2=C(C=C(C(F)(F)F)C=C2)N=CC1C(OCC)=O",
    "meta_data": {
        "InChI": "InChI=1S/C13H10F3NO3/c1-2-20-12(19)9-6-17-10-5-7(13(14,15)16)3-4-8(10)11(9)18/h3-6H,2H2,1H3,(H,17,18)",
        "InChIKey": null,
        "Canonical SMILES": "O=C(OCC)C1=CN=C2C=C(C=CC2=C1O)C(F)(F)F",
        "Molecular Formula": "C<sub>13</sub>H<sub>10</sub>F<sub>3</sub>NO<sub>3</sub>",
        "Molecular Mass": "285.22",
        "Melting Point": "294-297 °C"
    }
}