{
    "cas_no": "55561-02-9",
    "key_name": "2,2-Dimethylpropanethioic acid",
    "cn_name": null,
    "alternate_name": "Propanethioic acid, 2,2-dimethyl-;2,2-Dimethylpropanethioic acid;Thiopivalic acid;2,2-Dimethylpropanethioic <em>S</em>-acid",
    "duplicated_cas_no": "",
    "SMILES": "C(C(=O)S)(C)(C)C",
    "meta_data": {
        "InChI": "InChI=1S/C5H10OS/c1-5(2,3)4(6)7/h1-3H3,(H,6,7)",
        "InChIKey": null,
        "Canonical SMILES": "O=C(S)C(C)(C)C",
        "Molecular Formula": "C<sub>5</sub>H<sub>10</sub>OS",
        "Molecular Mass": "118.20",
        "Boiling Point": "125-127 °C"
    }
}