{
    "cas_no": "644-36-0",
    "key_name": "(2-Methylphenyl)acetic acid",
    "cn_name": "邻甲基苯乙酸;",
    "alternate_name": "Benzeneacetic acid, 2-methyl-;Acetic acid, <em>o</em>-tolyl-;2-Methylbenzeneacetic acid;(2-Methylphenyl)acetic acid;<em>o</em>-Methylphenylacetic acid;<em>o</em>-Tolylacetic acid;2-(<em>o</em>-Tolyl)acetic acid;2-(2-Tolyl)acetic acid;NSC 16053;2-(2-Methylphenyl)acetic acid;2-(<em>p</em>-Tolyl)acetic acetic",
    "duplicated_cas_no": "",
    "SMILES": "C(C(O)=O)C1=C(C)C=CC=C1",
    "meta_data": {
        "InChI": "InChI=1S/C9H10O2/c1-7-4-2-3-5-8(7)6-9(10)11/h2-5H,6H2,1H3,(H,10,11)",
        "InChIKey": null,
        "Canonical SMILES": "O=C(O)CC=1C=CC=CC1C",
        "Molecular Formula": "C<sub>9</sub>H<sub>10</sub>O<sub>2</sub>",
        "Molecular Mass": "150.17",
        "Melting Point": "86-89 °C"
    }
}