{
    "cas_no": "38565-52-5",
    "key_name": "2-(2,2,3,3,4,4,5,5,6,6,7,7,7-Tridecafluoroheptyl)oxirane",
    "cn_name": "3-(全氟正己基)环氧丙烷;",
    "alternate_name": "Oxirane, 2-(2,2,3,3,4,4,5,5,6,6,7,7,7-tridecafluoroheptyl)-;Oxirane, (2,2,3,3,4,4,5,5,6,6,7,7,7-tridecafluoroheptyl)-;2-(2,2,3,3,4,4,5,5,6,6,7,7,7-Tridecafluoroheptyl)oxirane;3-(Perfluorohexyl)propylene oxide;3-Perfluorohexyl-1,2-epoxypropane;E 1630;2,2,3,3,4,4,5,5,6,6,7,7,7-Tridecafluoroheptyloxirane",
    "duplicated_cas_no": "2113597-84-3",
    "SMILES": "C(C(C(C(F)(F)F)(F)F)(F)F)(C(C(CC1CO1)(F)F)(F)F)(F)F",
    "meta_data": {
        "InChI": "InChI=1S/C9H5F13O/c10-4(11,1-3-2-23-3)5(12,13)6(14,15)7(16,17)8(18,19)9(20,21)22/h3H,1-2H2",
        "InChIKey": null,
        "Canonical SMILES": "FC(F)(F)C(F)(F)C(F)(F)C(F)(F)C(F)(F)C(F)(F)CC1OC1",
        "Molecular Formula": "C<sub>9</sub>H<sub>5</sub>F<sub>13</sub>O",
        "Molecular Mass": "376.11",
        "Boiling Point": "120 °C @ Press: 0.5 Torr"
    }
}