{
    "cas_no": "26184-62-3",
    "key_name": "(+)-2-Pentanol",
    "cn_name": "(S)-(+)-2-戊醇;",
    "alternate_name": "2-Pentanol, (2<em>S</em>)-;2-Pentanol, (<em>S</em>)-;(2<em>S</em>)-2-Pentanol;<em>d</em>-2-Pentanol;(<em>S</em>)-Pentan-2-ol;(2<em>S</em>)-(+)-Pentanol;(+)-2-Pentanol;(2S)-Pentan-2-ol;(<em>S</em>)-(+)-2-Pentanol",
    "duplicated_cas_no": "113301-50-1;79449-65-3",
    "SMILES": "C([C@H](C)O)CC",
    "meta_data": {
        "InChI": "InChI=1S/C5H12O/c1-3-4-5(2)6/h5-6H,3-4H2,1-2H3/t5-/m0/s1",
        "InChIKey": null,
        "Canonical SMILES": "OC(C)CCC",
        "Molecular Formula": "C<sub>5</sub>H<sub>12</sub>O",
        "Molecular Mass": "88.15",
        "Boiling Point": "116-118 °C @ Press: 747 Torr"
    }
}