{
    "cas_no": "646-97-9",
    "key_name": "1,1,1-Trifluoro-2-(trifluoromethyl)-4-penten-2-ol",
    "cn_name": "2-烯丙六氟异丙醇;1,1,1-三氟-2-(三氟甲基)-4-戊烯-2-醇;",
    "alternate_name": "4-Penten-2-ol, 1,1,1-trifluoro-2-(trifluoromethyl)-;1,1,1-Trifluoro-2-(trifluoromethyl)-4-penten-2-ol;4,4-Bis(perfluoromethyl)-4-hydroxy-1-butene;1,1-Bis(trifluoromethyl)-3-buten-1-ol;NSC 309805",
    "duplicated_cas_no": "",
    "SMILES": "C(C(F)(F)F)(C(F)(F)F)(CC=C)O",
    "meta_data": {
        "InChI": "InChI=1S/C6H6F6O/c1-2-3-4(13,5(7,8)9)6(10,11)12/h2,13H,1,3H2",
        "InChIKey": null,
        "Canonical SMILES": "FC(F)(F)C(O)(CC=C)C(F)(F)F",
        "Molecular Formula": "C<sub>6</sub>H<sub>6</sub>F<sub>6</sub>O",
        "Molecular Mass": "208.10",
        "Boiling Point": "42.8-43 °C @ Press: 68 Torr",
        "Density": "1.3345 g/cm³ @ Temp: 20 °C"
    }
}