{
    "cas_no": "129-56-6",
    "key_name": "Anthra[1,9-<em>cd</em>]pyrazol-6(2<em>H</em>)-one",
    "cn_name": null,
    "alternate_name": "Anthra[1,9-<em>cd</em>]pyrazol-6(2<em>H</em>)-one;C.I. 70300;Pyrazoleanthrone;1,9-Pyrazoloanthrone;Pyrazolanthrone;SP 600125;NSC 75890;2<em>H</em>-Dibenzo[<em>cd</em>,<em>g</em>]indazol-6-one;1PMV;JNK inhibitor II;420119 JNK inhibitor II;14,15-Diazatetracyclo[7.6.1.0[2,7].0[13,16]]hexadeca-1(15),2,4,6,9(16),10,12-heptaen-8-one",
    "duplicated_cas_no": "",
    "SMILES": "O=C1C=2C=3C(C=4C1=CC=CC4)=NNC3C=CC2",
    "meta_data": {
        "InChI": "InChI=1S/C14H8N2O/c17-14-9-5-2-1-4-8(9)13-12-10(14)6-3-7-11(12)15-16-13/h1-7H,(H,15,16)",
        "InChIKey": null,
        "Canonical SMILES": "O=C1C=2C=CC=CC2C3=NNC4=CC=CC1=C34",
        "Molecular Formula": "C<sub>14</sub>H<sub>8</sub>N<sub>2</sub>O",
        "Molecular Mass": "220.23",
        "Melting Point": "277-278 °C"
    }
}