{
    "cas_no": "7738-94-5",
    "key_name": "Chromic acid (H<sub>2</sub>CrO<sub>4</sub>)",
    "cn_name": "铬酸;",
    "alternate_name": "Chromic acid (H<sub>2</sub>CrO<sub>4</sub>);Chromic(VI) acid;Chromium hydroxide oxide (Cr(OH)<sub>2</sub>O<sub>2</sub>);Chromium oxide hydroxide (CrO<sub>2</sub>(OH)<sub>2</sub>)",
    "duplicated_cas_no": "9044-10-4;11115-74-5;24934-60-9;199384-58-2;237391-94-5",
    "SMILES": "[Cr](O)(O)(=O)=O",
    "meta_data": {
        "InChI": "InChI=1S/Cr.2H2O.2O/h;2*1H2;;/q+2;;;;/p-2",
        "InChIKey": null,
        "Canonical SMILES": "O=[Cr](=O)(O)O",
        "Molecular Formula": "CrH<sub>2</sub>O<sub>4</sub>",
        "Molecular Mass": "",
        "Melting Point": "196 °C",
        "Density": "1.67-2.82 g/cm³"
    }
}