{
    "cas_no": "102-37-4",
    "key_name": "Ethyl caffeate",
    "cn_name": "咖啡酸乙酯; 3,4-二羟基肉桂酸乙酯;",
    "alternate_name": "2-Propenoic acid, 3-(3,4-dihydroxyphenyl)-, ethyl ester;Cinnamic acid, 3,4-dihydroxy-, ethyl ester;Ethyl caffeate;Ethyl 3,4-dihydroxycinnamate;Caffeic acid ethyl ester;Ethyl caffeoate;NSC 619661",
    "duplicated_cas_no": "",
    "SMILES": "C(=CC(OCC)=O)C1=CC(O)=C(O)C=C1",
    "meta_data": {
        "InChI": "InChI=1S/C11H12O4/c1-2-15-11(14)6-4-8-3-5-9(12)10(13)7-8/h3-7,12-13H,2H2,1H3",
        "InChIKey": null,
        "Canonical SMILES": "O=C(OCC)C=CC1=CC=C(O)C(O)=C1",
        "Molecular Formula": "C<sub>11</sub>H<sub>12</sub>O<sub>4</sub>",
        "Molecular Mass": "208.21",
        "Melting Point": "149.5 °C"
    }
}