{
    "cas_no": "15809-19-5",
    "key_name": "Myramistin",
    "cn_name": null,
    "alternate_name": "Benzenemethanaminium, <em>N</em>,<em>N</em>-dimethyl-<em>N</em>-[3-[(1-oxotetradecyl)amino]propyl]-, chloride (1:1);Ammonium, benzyldimethyl(3-myristamidopropyl)-, chloride;Benzenemethanaminium, <em>N</em>,<em>N</em>-dimethyl-<em>N</em>-[3-[(1-oxotetradecyl)amino]propyl]-, chloride;Benzyldimethyl(3-tetradecamidopropyl)ammonium chloride;DT 2;DT 2 (surfactant);Myramistin;Benzyldimethyl[3-(myristoylamino)propyl]ammonium chloride",
    "duplicated_cas_no": "126338-77-0;1881280-02-9",
    "SMILES": "C([N+](CCCNC(CCCCCCCCCCCCC)=O)(C)C)C1=CC=CC=C1.[Cl-]",
    "meta_data": {
        "InChI": "InChI=1S/C26H46N2O.ClH/c1-4-5-6-7-8-9-10-11-12-13-17-21-26(29)27-22-18-23-28(2,3)24-25-19-15-14-16-20-25;/h14-16,19-20H,4-13,17-18,21-24H2,1-3H3;1H",
        "InChIKey": null,
        "Canonical SMILES": "[Cl-].O=C(NCCC[N+](C)(C)CC=1C=CC=CC1)CCCCCCCCCCCCC",
        "Molecular Formula": "C<sub>26</sub>H<sub>47</sub>N<sub>2</sub>O.Cl",
        "Molecular Mass": "",
        "Melting Point": "54 °C"
    }
}