{
    "cas_no": "14575-84-9",
    "key_name": "Bicyclo[2.2.1]heptane-7-methanesulfonic acid, 2-bromo-4,7-dimethyl-3-oxo-, ammonium salt (1:1), (1<em>S</em>,2<em>S</em>,4<em>R</em>,7<em>R</em>)-",
    "cn_name": "右旋-3-溴樟脑-8-磺酸铵盐;",
    "alternate_name": "Bicyclo[2.2.1]heptane-7-methanesulfonic acid, 2-bromo-4,7-dimethyl-3-oxo-, ammonium salt (1:1), (1<em>S</em>,2<em>S</em>,4<em>R</em>,7<em>R</em>)-;8-Bornanesulfonic acid, 3-bromo-2-oxo-, ammonium salt, (+)-;Bicyclo[2.2.1]heptane-7-methanesulfonic acid, 3-bromo-1,7-dimethyl-2-oxo-, ammonium salt, [1<em>R</em>-(<em>endo</em>,<em>anti</em>)]-;Bicyclo[2.2.1]heptane-7-methanesulfonic acid, 3-bromo-1,7-dimethyl-2-oxo-, ammonium salt, (1<em>R</em>,3<em>S</em>,4<em>S</em>,7<em>R</em>)-;Ammonium <em>d</em>-α-bromocamphor-π-sulfonate;Ammonium (+)-α-bromocamphor-π-sulfonate;Ammonium [(1<em>R</em>)-(<em>endo</em>,<em>anti</em>)]-3-bromo-1,7-dimethyl-2-oxobicyclo[2.2.1]heptane-7-methanesulfonate;Ammonium (1<em>R</em>)-(+)-3-bromocamphor-8-sulfonate;(1<em>R</em>)-(+)-3-Bromocamphor-8-sulfonic acid ammonium salt",
    "duplicated_cas_no": "135244-47-2;52811-63-9",
    "SMILES": "C(S(=O)(=O)O)[C@@]1(C)[C@]2(C)C(=O)[C@@H](Br)[C@]1(CC2)[H].N",
    "meta_data": {
        "InChI": "InChI=1S/C10H15BrO4S.H3N/c1-9-4-3-6(7(11)8(9)12)10(9,2)5-16(13,14)15;/h6-7H,3-5H2,1-2H3,(H,13,14,15);1H3/t6-,7+,9+,10-;/m1./s1",
        "InChIKey": null,
        "Canonical SMILES": "O=C1C(Br)C2CCC1(C)C2(C)CS(=O)(=O)O.N",
        "Molecular Formula": "C<sub>10</sub>H<sub>15</sub>BrO<sub>4</sub>S.H<sub>3</sub>N",
        "Molecular Mass": "",
        "Melting Point": "268-270 °C (decomp)"
    }
}