{
    "cas_no": "133627-46-0",
    "key_name": "2-Chloro-<em>N</em>-(2-chloro-4-methyl-3-pyridinyl)-3-pyridinecarboxamide",
    "cn_name": "2-氯-N-(2-氯-4-甲基吡啶-3-基)烟酰胺;",
    "alternate_name": "3-Pyridinecarboxamide, 2-chloro-<em>N</em>-(2-chloro-4-methyl-3-pyridinyl)-;2-Chloro-<em>N</em>-(2-chloro-4-methyl-3-pyridinyl)-3-pyridinecarboxamide;Picnic;2-Chloro-<em>N</em>-(2-chloro-4-methyl-3-pyridyl)-3-pyridine carboxamide;2-Chloro-<em>N</em>-(2-chloro-4-methylpyridin-3-yl)nicotinamide",
    "duplicated_cas_no": "",
    "SMILES": "N(C(=O)C1=C(Cl)N=CC=C1)C=2C(C)=CC=NC2Cl",
    "meta_data": {
        "InChI": "InChI=1S/C12H9Cl2N3O/c1-7-4-6-16-11(14)9(7)17-12(18)8-3-2-5-15-10(8)13/h2-6H,1H3,(H,17,18)",
        "InChIKey": null,
        "Canonical SMILES": "O=C(NC=1C(Cl)=NC=CC1C)C2=CC=CN=C2Cl",
        "Molecular Formula": "C<sub>12</sub>H<sub>9</sub>Cl<sub>2</sub>N<sub>3</sub>O",
        "Molecular Mass": "282.13",
        "Melting Point": "189-191 °C"
    }
}