{
    "cas_no": "3236-82-6",
    "key_name": "Niobium pentaethoxide",
    "cn_name": "乙醇铌(V);乙氧醇铌;五乙氧基铌;乙醇铌(V);五乙醇铌;",
    "alternate_name": "Ethanol, niobium(5+) salt (5:1);Ethyl alcohol, niobium(5+) salt;Ethanol, niobium(5+) salt;Niobium ethoxide (Nb(OEt)<sub>5</sub>);Niobium pentaethoxide;Niobium(V) ethoxide;Pentaethoxyniobium;Diniobium decaethoxide;Pentakis(ethoxy)niobium;Niobium ethoxide Nb(OC<sub>2</sub>H<sub>5</sub>)<sub>5</sub>;Nb 05;Nb 05 (salt)",
    "duplicated_cas_no": "83228-60-8",
    "SMILES": "C(C)O.[Nb]",
    "meta_data": {
        "InChI": "InChI=1S/C2H6O.Nb/c1-2-3;/h3H,2H2,1H3;",
        "InChIKey": null,
        "Canonical SMILES": "[Nb].OCC",
        "Molecular Formula": "C<sub>2</sub>H<sub>6</sub>O.<sup>1</sup>/<sub>5</sub>Nb",
        "Molecular Mass": "",
        "Boiling Point": "142 °C @ Press: 0.1 Torr",
        "Melting Point": "5-6 °C",
        "Density": "1.258 g/cm³"
    }
}