{
    "cas_no": "524-36-7",
    "key_name": "Pyridoxamine, dihydrochloride",
    "cn_name": "盐酸吡多胺;4-氨基甲基-5-羟基-6-甲基-3-吡啶甲醇二盐酸盐;",
    "alternate_name": "3-Pyridinemethanol, 4-(aminomethyl)-5-hydroxy-6-methyl-, hydrochloride (1:2);Pyridoxamine, dihydrochloride;3-Pyridinemethanol, 4-(aminomethyl)-5-hydroxy-6-methyl-, dihydrochloride;4-(Aminomethyl)-5-hydroxy-6-methyl-3-pyridinemethanol dihydrochloride;2-Methyl-3-hydroxy-4-aminomethyl-5-hydroxymethylpyridine dihydrochloride;Pyridoxamine dichlorohydrate;Pyridoxylamine dihydrochloride;Pyridorin;4-(Aminomethyl)-5-(hydroxymethyl)-2-methylpyridin-3-ol dihydrochloride",
    "duplicated_cas_no": "1801874-02-1",
    "SMILES": "C(N)C=1C(CO)=CN=C(C)C1O.Cl",
    "meta_data": {
        "InChI": "InChI=1S/C8H12N2O2.2ClH/c1-5-8(12)7(2-9)6(4-11)3-10-5;;/h3,11-12H,2,4,9H2,1H3;2*1H",
        "InChIKey": null,
        "Canonical SMILES": "Cl.OC=1C(=NC=C(C1CN)CO)C",
        "Molecular Formula": "C<sub>8</sub>H<sub>12</sub>N<sub>2</sub>O<sub>2</sub>.2ClH",
        "Molecular Mass": "",
        "Melting Point": "226.5 °C (decomp)"
    }
}