{
    "cas_no": "3016-97-5",
    "key_name": "1,4-Dibenzoylbenzene",
    "cn_name": "1,4-联苯酰基苯;1,4-联苯酰基苯;",
    "alternate_name": "Methanone, 1,1′-(1,4-phenylene)bis[1-phenyl-;Benzene, <em>p</em>-dibenzoyl-;Methanone, 1,4-phenylenebis[phenyl-;1,1′-(1,4-Phenylene)bis[1-phenylmethanone];1,4-Dibenzoylbenzene;Terephthalophenone;<em>p</em>-Benzoylbenzophenone;<em>p</em>-Dibenzoylbenzene;4-Benzoylbenzophenone;NSC 631643;1,4-Phenylenebis(phenylmethanone);(4-Benzoylphenyl)-phenylmethanone;(4-Benzoyl-phenyl)-phenyl-methanone",
    "duplicated_cas_no": "",
    "SMILES": "C(=O)(C1=CC=C(C(=O)C2=CC=CC=C2)C=C1)C3=CC=CC=C3",
    "meta_data": {
        "InChI": "InChI=1S/C20H14O2/c21-19(15-7-3-1-4-8-15)17-11-13-18(14-12-17)20(22)16-9-5-2-6-10-16/h1-14H",
        "InChIKey": null,
        "Canonical SMILES": "O=C(C=1C=CC=CC1)C2=CC=C(C=C2)C(=O)C=3C=CC=CC3",
        "Molecular Formula": "C<sub>20</sub>H<sub>14</sub>O<sub>2</sub>",
        "Molecular Mass": "286.32",
        "Melting Point": "160-161 °C"
    }
}