{
    "cas_no": "923-42-2",
    "key_name": "1,2,4-Butanetricarboxylic acid",
    "cn_name": null,
    "alternate_name": "1,2,4-Butanetricarboxylic acid;Hexanedioic acid, 3-carboxy-;Pentanedioic acid, 2-(carboxymethyl)-;1,2,4-Tricarboxybutane;NSC 60127;NSC 8447;3-Carboxyhexanedioic acid",
    "duplicated_cas_no": "81159-15-1",
    "SMILES": "C(CCC(O)=O)(CC(O)=O)C(O)=O",
    "meta_data": {
        "InChI": "InChI=1S/C7H10O6/c8-5(9)2-1-4(7(12)13)3-6(10)11/h4H,1-3H2,(H,8,9)(H,10,11)(H,12,13)",
        "InChIKey": null,
        "Canonical SMILES": "O=C(O)CCC(C(=O)O)CC(=O)O",
        "Molecular Formula": "C<sub>7</sub>H<sub>10</sub>O<sub>6</sub>",
        "Molecular Mass": "190.15",
        "Boiling Point": "116-117 °C @ Press: 1 Torr",
        "Melting Point": "116-118 °C"
    }
}