{
    "cas_no": "25316-59-0",
    "key_name": "Benzyltributylammonium bromide",
    "cn_name": null,
    "alternate_name": "Benzenemethanaminium, <em>N</em>,<em>N</em>,<em>N</em>-tributyl-, bromide (1:1);Ammonium, benzyltributyl-, bromide;Benzenemethanaminium, <em>N</em>,<em>N</em>,<em>N</em>-tributyl-, bromide;Benzyltributylammonium bromide;Tributylbenzylammonium bromide;Benzyltri-<em>n</em>-butylammonium bromide",
    "duplicated_cas_no": "124078-54-2",
    "SMILES": "[N+](CC1=CC=CC=C1)(CCCC)(CCCC)CCCC.[Br-]",
    "meta_data": {
        "InChI": "InChI=1S/C19H34N.BrH/c1-4-7-15-20(16-8-5-2,17-9-6-3)18-19-13-11-10-12-14-19;/h10-14H,4-9,15-18H2,1-3H3;1H/q+1;/p-1",
        "InChIKey": null,
        "Canonical SMILES": "[Br-].C=1C=CC(=CC1)C[N+](CCCC)(CCCC)CCCC",
        "Molecular Formula": "C<sub>19</sub>H<sub>34</sub>N.Br",
        "Molecular Mass": "",
        "Melting Point": "174.5-175 °C"
    }
}