{
    "cas_no": "124-65-2",
    "key_name": "Sodium cacodylate",
    "cn_name": "二甲胂酸钠; 二甲基砷酸钠;",
    "alternate_name": "Arsinic acid, <em>As</em>,<em>As</em>-dimethyl-, sodium salt (1:1);Arsine oxide, hydroxydimethyl-, sodium salt;Arsinic acid, dimethyl-, sodium salt;Sodium, [(dimethylarsino)oxy]-, <em>As</em>-oxide;Arsecodile;Arsicodile;Arsycodile;Hydroxydimethylarsine oxide sodium salt;Sodium cacodylate;Cacodylic acid sodium salt;Sodium dimethylarsinate;Alkarsodyl;Chemaid;Cacodylic acid sodium salt (1:1);Cacodylate sodium",
    "duplicated_cas_no": "63665-22-5",
    "SMILES": "[As](C)(C)(=O)O.[Na]",
    "meta_data": {
        "InChI": "InChI=1S/C2H7AsO2.Na/c1-3(2,4)5;/h1-2H3,(H,4,5);",
        "InChIKey": null,
        "Canonical SMILES": "[Na].O=[As](O)(C)C",
        "Molecular Formula": "C<sub>2</sub>H<sub>7</sub>AsO<sub>2</sub>.Na",
        "Molecular Mass": "",
        "Melting Point": "200 °C"
    }
}