{
    "cas_no": "5437-46-7",
    "key_name": "4-Phenylcyclohexanol",
    "cn_name": "4-苯基环己醇;4-苯基环己醇;",
    "alternate_name": "Cyclohexanol, 4-phenyl-;4-Phenylcyclohexanol;4-Phenyl-1-cyclohexanol;NSC 16118;NSC 17139",
    "duplicated_cas_no": "",
    "SMILES": "OC1CCC(CC1)C2=CC=CC=C2",
    "meta_data": {
        "InChI": "InChI=1S/C12H16O/c13-12-8-6-11(7-9-12)10-4-2-1-3-5-10/h1-5,11-13H,6-9H2",
        "InChIKey": null,
        "Canonical SMILES": "OC1CCC(C=2C=CC=CC2)CC1",
        "Molecular Formula": "C<sub>12</sub>H<sub>16</sub>O",
        "Molecular Mass": "176.25",
        "Melting Point": "100.5-114.1 °C"
    }
}