{
    "cas_no": "2140-69-4",
    "key_name": "3-Methyluridine",
    "cn_name": null,
    "alternate_name": "Uridine, 3-methyl-;3-Methyluridine;<em>N</em><sup>3</sup>-Methyluridine;NSC 246077",
    "duplicated_cas_no": "1294498-35-3",
    "SMILES": "O[C@H]1[C@@H](O[C@H](CO)[C@H]1O)N2C(=O)N(C)C(=O)C=C2",
    "meta_data": {
        "InChI": "InChI=1S/C10H14N2O6/c1-11-6(14)2-3-12(10(11)17)9-8(16)7(15)5(4-13)18-9/h2-3,5,7-9,13,15-16H,4H2,1H3/t5-,7-,8-,9-/m1/s1",
        "InChIKey": null,
        "Canonical SMILES": "O=C1C=CN(C(=O)N1C)C2OC(CO)C(O)C2O",
        "Molecular Formula": "C<sub>10</sub>H<sub>14</sub>N<sub>2</sub>O<sub>6</sub>",
        "Molecular Mass": "258.23",
        "Melting Point": "108-110 °C"
    }
}