{
    "cas_no": "2857-97-8",
    "key_name": "Bromotrimethylsilane",
    "cn_name": "三甲基溴硅烷;",
    "alternate_name": "Silane, bromotrimethyl-;Bromotrimethylsilane;Trimethylsilyl bromide;Trimethylbromosilane;Trimethylsilicon bromide;NSC 139857;TMSBr",
    "duplicated_cas_no": "",
    "SMILES": "[Si](Br)(C)(C)C",
    "meta_data": {
        "InChI": "InChI=1S/C3H9BrSi/c1-5(2,3)4/h1-3H3",
        "InChIKey": null,
        "Canonical SMILES": "Br[Si](C)(C)C",
        "Molecular Formula": "C<sub>3</sub>H<sub>9</sub>BrSi",
        "Molecular Mass": "153.09",
        "Boiling Point": "80 °C",
        "Melting Point": "-44 °C",
        "Density": "1.172 g/cm³"
    }
}