{
    "cas_no": "15827-56-2",
    "key_name": "<em>cis</em>-1,4-Diaminocyclohexane",
    "cn_name": null,
    "alternate_name": "1,4-Cyclohexanediamine, <em>cis</em>-;<em>cis</em>-1,4-Cyclohexanediamine;<em>cis</em>-1,4-Diaminocyclohexane",
    "duplicated_cas_no": "",
    "SMILES": "N[C@H]1CC[C@@H](N)CC1",
    "meta_data": {
        "InChI": "InChI=1/C6H14N2/c7-5-1-2-6(8)4-3-5/h5-6H,1-4,7-8H2/t5-,6+",
        "InChIKey": null,
        "Canonical SMILES": "NC1CCC(N)CC1",
        "Molecular Formula": "C<sub>6</sub>H<sub>14</sub>N<sub>2</sub>",
        "Molecular Mass": "114.19",
        "Boiling Point": "84-88 °C @ Press: 10-12 Torr"
    }
}