{
    "cas_no": "13614-98-7",
    "key_name": "Minocycline hydrochloride",
    "cn_name": "盐酸二甲胺四环素;二甲胺四环素盐酸盐;盐酸米诺环素;4,7-双(二甲氨基)-1,4,4a,5,5a,6,11,12a-八氢-3,10,12,;",
    "alternate_name": "2-Naphthacenecarboxamide, 4,7-bis(dimethylamino)-1,4,4a,5,5a,6,11,12a-octahydro-3,10,12,12a-tetrahydroxy-1,11-dioxo-, hydrochloride (1:1), (4<em>S</em>,4a<em>S</em>,5a<em>R</em>,12a<em>S</em>)-;2-Naphthacenecarboxamide, 4,7-bis(dimethylamino)-1,4,4a,5,5a,6,11,12a-octahydro-3,10,12,12a-tetrahydroxy-1,11-dioxo-, monohydrochloride;2-Naphthacenecarboxamide, 4,7-bis(dimethylamino)-1,4,4a,5,5a,6,11,12a-octahydro-3,10,12,12a-tetrahydroxy-1,11-dioxo-, monohydrochloride, [4<em>S</em>-(4α,4aα,5aα,12aα)]-;2-Naphthacenecarboxamide, 4,7-bis(dimethylamino)-1,4,4a,5,5a,6,11,12a-octahydro-3,10,12,12a-tetrahydroxy-1,11-dioxo-, monohydrochloride, (4<em>S</em>,4a<em>S</em>,5a<em>R</em>,12a<em>S</em>)-;Minocycline hydrochloride;Minocin;Minocycline chloride;Periocline;Klinomycin;Vectrin;Minomycin;NSC 141993;Acnez;Periofeel;Arestin",
    "duplicated_cas_no": "11006-27-2;150231-24-6;1071702-75-4;1236362-29-0",
    "SMILES": "O[C@]12[C@]([C@H](N(C)C)C(O)=C(C(N)=O)C1=O)(C[C@]3(C(=C2O)C(=O)C=4C(C3)=C(N(C)C)C=CC4O)[H])[H].Cl",
    "meta_data": {
        "InChI": "InChI=1S/C23H27N3O7.ClH/c1-25(2)12-5-6-13(27)15-10(12)7-9-8-11-17(26(3)4)19(29)16(22(24)32)21(31)23(11,33)20(30)14(9)18(15)28;/h5-6,9,11,17,27,29-30,33H,7-8H2,1-4H3,(H2,24,32);1H/t9-,11-,17-,23-;/m0./s1",
        "InChIKey": null,
        "Canonical SMILES": "Cl.O=C(N)C=1C(=O)C2(O)C(O)=C3C(=O)C=4C(O)=CC=C(C4CC3CC2C(C1O)N(C)C)N(C)C",
        "Molecular Formula": "C<sub>23</sub>H<sub>27</sub>N<sub>3</sub>O<sub>7</sub>.ClH",
        "Molecular Mass": "",
        "Melting Point": "155-161 °C (decomp)"
    }
}