{
    "cas_no": "12047-27-7",
    "key_name": "Barium titanate",
    "cn_name": "钛酸钡;",
    "alternate_name": "Barium titanium oxide (BaTiO<sub>3</sub>);Barium titanate(IV) (BaTiO<sub>3</sub>);VK 4;Barium titanate;Barium metatitanate (BaTiO<sub>3</sub>);Barium titanium trioxide;VK 4 (oxide);Barium metatitanate;Titanate (TiO<sub>3</sub><sup>2-</sup>) barium (1:1);BT 204;YV 100AN;BT 303;BT 201;HPBT 1;HBT 3;Barium titanium oxide;BT 203;Titanium barium oxide (TiBaO<sub>3</sub>);Titanium barium oxide;Kyorix BT-S;N 220 (titanate);N 220;N 5500;BT 100P;Tamtron X 7R302H;Tamtron X 7R262L;BT 10 (titanate);BT 10;Barium titanate (BaTiO<sub>3</sub>);BT 206;BT 100M;Ticon 5016;Transelco 219-3;BT 05;BT 05 (filler);TB 1;BT 01;BT-HP 8KB2;BT 02;Kyorix BT-HD 9DX;BT-HD 9DX;Nova Chem AB;BT 8;BT 16;BT 03;BT 8 (oxide);Tamtron X 7R412H;BT 04;HPB (titanate);HPB;BT 100PR;BT 325;BT 335;Transtech D 50;BT 325 (titanate);Ticon HBP;BT 100T;BT 5100;K-Plus 16;BT-HP 9DX;SB 05;BT-SA;MBRT 95;BT 07;YT 51;BT-HP 8YF;XJ 4000;CFPI;BTZ 09;HPB 1000;5622ON01;T-BTO 020RF;BT 04A;T-BTO 010RF;BTO 30;BT-HP 100;Nanometer Grade;HBT 3S;467634-100G;TB 0-030R;BTO 150S02;BT-S;NanoAmor 1150XW;BT-HP 3;T-BTO 030R;Palceram BT;BTO 1;BTO 020;Palceram BT 4;HPBT 1B;BT-UP 1;BT 005;Palceram AKBT-S;T-BTO 50RF;DBT 301;BT NB1X04;T BTO 030RF;T BTO 050RF;T BTO 100RF;BT 300;BT-HP 150;BT-TO 020RF;KZM 50;Palceram BT-UP 2;HBT 010;T-BTO 100RK;T-BTO 155RK;T-BTO 200;T-BTO 300;PBT 0.5;BT9DX-400;BTD-UP;BT-UP 2;B PARCELAM BTUP-2;BT 03B;YH 1220;BT-HP 9DH;BTC 4FA;AKBT-M;SBT 050;PBT 03;HW-M 575;HBPT 01;HF 90D;BST 101;BST 111;ZL 9000;XF 117;BT 3003;Palceram BTE-UP;Palceram BTC 4FB;Titanate(2-), trioxo-, barium (1:1);Palceram BTC 4FA;BT 200 (titanate);BTC 5B;BT 200;TFP-NB-E;TFP-NF-E;TFP-NA-E;Bespa BTC 4FB;Bespa BTC 5B;HPBT 1P",
    "duplicated_cas_no": "7787-45-3;12656-53-0;52869-94-0;70699-63-7;160462-52-2;203796-96-7;208713-64-8;225239-81-6;229640-62-4;237755-05-4;358369-13-8;412932-53-7;554402-75-4;683228-79-7;859505-07-0;892125-11-0;928048-64-0;942045-70-7;1028693-40-4;1059108-97-2;1080453-86-6;1183962-04-0;1215857-74-1;1258591-85-3;1260244-95-8;1269219-25-1;1297529-82-8;1313220-99-3;1325234-06-7;1333071-50-3;1337864-79-5;1345468-64-5;1353332-98-5;1354327-81-3;1363176-84-4;1370290-17-7;1370606-12-4;1393740-26-5;1396124-02-9;1401998-97-7;1416453-79-6;1421460-62-9;1429649-57-9;1443982-79-3;1448147-00-9;1449076-06-5;1486550-62-2;1571911-28-8;1610888-18-0;1617523-53-1;1674359-21-7;1688702-49-9;1821306-43-7;1865677-77-5;1883500-48-8;1895854-86-0;1973510-60-9;2031121-15-8;2064204-84-6;2095169-71-2;2242946-53-6;2243284-05-9;2246302-34-9;2369943-32-6;2422030-79-1;2449218-59-9;2460658-07-3;2612132-94-0;2648610-65-3;2699128-29-3;2762085-63-0;2941382-08-5;2989905-95-3",
    "SMILES": "",
    "meta_data": {
        "InChI": "",
        "InChIKey": null,
        "Canonical SMILES": "",
        "Molecular Formula": "BaO<sub>3</sub>Ti",
        "Molecular Mass": "",
        "Melting Point": "1580 °C",
        "Density": "5.98 g/cm³"
    }
}