{
    "cas_no": "10026-17-2",
    "key_name": "Cobalt difluoride",
    "cn_name": "氟化钴;氟化亚钴;二氟化钴;",
    "alternate_name": "Cobalt fluoride (CoF<sub>2</sub>);Cobalt difluoride;Cobalt(II) fluoride;Cobaltous fluoride;Cobalt fluoride",
    "duplicated_cas_no": "2437331-21-8",
    "SMILES": "[Co](F)F",
    "meta_data": {
        "InChI": "InChI=1S/Co.2FH/h;2*1H/q+2;;/p-2",
        "InChIKey": null,
        "Canonical SMILES": "F[Co]F",
        "Molecular Formula": "CoF<sub>2</sub>",
        "Molecular Mass": "",
        "Boiling Point": "1400 °C",
        "Melting Point": "1100-1200 °C",
        "Density": "4.43 g/cm³"
    }
}