{
    "cas_no": "356-18-3",
    "key_name": "1,2-Dichlorohexafluorocyclobutane",
    "cn_name": "1,2-二氯六氟环己烷;",
    "alternate_name": "Cyclobutane, 1,2-dichloro-1,2,3,3,4,4-hexafluoro-;Cyclobutane, 1,2-dichlorohexafluoro-;1,2-Dichloro-1,2,3,3,4,4-hexafluorocyclobutane;1,2-Dichloroperfluorocyclobutane;1,2-Dichlorohexafluorocyclobutane;RC 316",
    "duplicated_cas_no": "",
    "SMILES": "ClC1(F)C(Cl)(F)C(F)(F)C1(F)F",
    "meta_data": {
        "InChI": "InChI=1S/C4Cl2F6/c5-1(7)2(6,8)4(11,12)3(1,9)10",
        "InChIKey": null,
        "Canonical SMILES": "FC1(F)C(F)(F)C(F)(Cl)C1(F)Cl",
        "Molecular Formula": "C<sub>4</sub>Cl<sub>2</sub>F<sub>6</sub>",
        "Molecular Mass": "232.94",
        "Boiling Point": "59.87 °C",
        "Melting Point": "58.5 °C",
        "Density": "1.6441 g/cm³ @ Temp: 20 °C"
    }
}