{
    "cas_no": "629-54-9",
    "key_name": "Hexadecanamide",
    "cn_name": "十六碳酰胺;棕榈酰胺;十六酰胺;",
    "alternate_name": "Hexadecanamide;Palmitamide;Amide 16;Amide HPL;Cetyl amide;Palmitic acid amide;Palmitic amide;<em>n</em>-Hexadecanamide;Amide P;Diamid KP;Palmitoyl amide;NSC 3327;Diamid BP;T 21;T 21 (amide);DY 1698",
    "duplicated_cas_no": "83381-70-8",
    "SMILES": "C(CCCCCCCCCC)CCCCC(N)=O",
    "meta_data": {
        "InChI": "InChI=1S/C16H33NO/c1-2-3-4-5-6-7-8-9-10-11-12-13-14-15-16(17)18/h2-15H2,1H3,(H2,17,18)",
        "InChIKey": null,
        "Canonical SMILES": "O=C(N)CCCCCCCCCCCCCCC",
        "Molecular Formula": "C<sub>16</sub>H<sub>33</sub>NO",
        "Molecular Mass": "255.44",
        "Melting Point": "107 °C"
    }
}