{
    "cas_no": "110-67-8",
    "key_name": "3-Methoxypropionitrile",
    "cn_name": "3-甲氧基丙腈;",
    "alternate_name": "Propanenitrile, 3-methoxy-;Propionitrile, 3-methoxy-;3-Methoxypropanenitrile;3-Methoxypropionitrile;1-Cyano-2-methoxyethane;2-Cyanoethyl methyl ether;β-Methoxypropionitrile;Methyl β-cyanoethyl ether;1-Methoxy-2-cyanoethane;NSC 4090;NSC 61486",
    "duplicated_cas_no": "",
    "SMILES": "C(COC)C#N",
    "meta_data": {
        "InChI": "InChI=1S/C4H7NO/c1-6-4-2-3-5/h2,4H2,1H3",
        "InChIKey": null,
        "Canonical SMILES": "N#CCCOC",
        "Molecular Formula": "C<sub>4</sub>H<sub>7</sub>NO",
        "Molecular Mass": "85.10",
        "Boiling Point": "163 °C",
        "Density": "0.9420 g/cm³ @ Temp: 20 °C"
    }
}