{
    "cas_no": "54731-72-5",
    "key_name": "Dimethyl <em>P</em>-(2-hydroxyethyl)phosphonate",
    "cn_name": "2-羟乙基膦酸二甲酯;",
    "alternate_name": "Phosphonic acid, <em>P</em>-(2-hydroxyethyl)-, dimethyl ester;Phosphonic acid, (2-hydroxyethyl)-, dimethyl ester;Dimethyl <em>P</em>-(2-hydroxyethyl)phosphonate;Dimethyl (2-hydroxyethyl)phosphonate;Dimethyl (β-hydroxyethyl)phosphonate;(2-Hydroxyethyl)phosphonic acid dimethyl ester;Dimethyl 2-phosphonoethanol;2-Dimethoxyphosphorylethanol",
    "duplicated_cas_no": "2892046-11-4",
    "SMILES": "P(CCO)(OC)(OC)=O",
    "meta_data": {
        "InChI": "InChI=1S/C4H11O4P/c1-7-9(6,8-2)4-3-5/h5H,3-4H2,1-2H3",
        "InChIKey": null,
        "Canonical SMILES": "O=P(OC)(OC)CCO",
        "Molecular Formula": "C<sub>4</sub>H<sub>11</sub>O<sub>4</sub>P",
        "Molecular Mass": "154.10",
        "Boiling Point": "95-97 °C @ Press: 6 Torr",
        "Density": "1.1711 g/cm³ @ Temp: 20 °C"
    }
}