{
    "cas_no": "1132-95-2",
    "key_name": "1,1-Bis(1-methylethoxy)cyclohexane",
    "cn_name": "1,1-二异丙醇缩环己酮;",
    "alternate_name": "Cyclohexane, 1,1-bis(1-methylethoxy)-;Cyclohexanone, diisopropyl acetal;1,1-Bis(1-methylethoxy)cyclohexane;1,1-Diisopropoxycyclohexane;Cyclohexanone diisopropyl ketal;1,1-Di(propan-2-yloxy)cyclohexane",
    "duplicated_cas_no": "",
    "SMILES": "O(C(C)C)C1(OC(C)C)CCCCC1",
    "meta_data": {
        "InChI": "InChI=1S/C12H24O2/c1-10(2)13-12(14-11(3)4)8-6-5-7-9-12/h10-11H,5-9H2,1-4H3",
        "InChIKey": null,
        "Canonical SMILES": "O(C(C)C)C1(OC(C)C)CCCCC1",
        "Molecular Formula": "C<sub>12</sub>H<sub>24</sub>O<sub>2</sub>",
        "Molecular Mass": "200.32",
        "Boiling Point": "85 °C @ Press: 8 Torr",
        "Density": "0.9047 g/cm³ @ Temp: 24 °C"
    }
}