{
    "cas_no": "534-00-9",
    "key_name": "(2<em>S</em>)-1-Bromo-2-methylbutane",
    "cn_name": "(S)-1-溴-2-甲基丁烷;",
    "alternate_name": "Butane, 1-bromo-2-methyl-, (2<em>S</em>)-;Butane, 1-bromo-2-methyl-, (<em>S</em>)-(+)-;Butane, 1-bromo-2-methyl-, (<em>S</em>)-;(2<em>S</em>)-1-Bromo-2-methylbutane;(+)-1-Bromo-2-methylbutane;<em>d</em>-Amyl bromide;(+)-(<em>S</em>)-1-Bromo-2-methylbutane;(<em>S</em>)-(+)-1-Bromo-2-methylbutane;(+)-2-Methylbutyl bromide;(+)-2-Methyl-1-bromobutane;(<em>S</em>)-2-Methyl-1-bromobutane;(<em>S</em>)-1-Bromo-2-methylbutane;(<em>S</em>)-(+)-2-Methyl-1-bromobutane;(<em>S</em>)-2-Methylbutyl bromide;S(+)-1-Bromo-2-methylbutane;1-Bromo-2-(<em>S</em>)-methylbutane;(2S)-1-Bromo-2-methylbutane",
    "duplicated_cas_no": "",
    "SMILES": "[C@@H](CBr)(CC)C",
    "meta_data": {
        "InChI": "InChI=1S/C5H11Br/c1-3-5(2)4-6/h5H,3-4H2,1-2H3/t5-/m0/s1",
        "InChIKey": null,
        "Canonical SMILES": "BrCC(C)CC",
        "Molecular Formula": "C<sub>5</sub>H<sub>11</sub>Br",
        "Molecular Mass": "151.04",
        "Boiling Point": "121.6 °C",
        "Density": "1.217 g/cm³ @ Temp: 32 °C"
    }
}