{
    "cas_no": "18479-57-7",
    "key_name": "Tetrahydromyrcenol",
    "cn_name": "3,7-二甲基-辛烯-2-醇;",
    "alternate_name": "2-Octanol, 2,6-dimethyl-;2,6-Dimethyl-2-octanol;Tetrahydromyrcenol",
    "duplicated_cas_no": "",
    "SMILES": "C(CCC(C)(C)O)C(CC)C",
    "meta_data": {
        "InChI": "InChI=1S/C10H22O/c1-5-9(2)7-6-8-10(3,4)11/h9,11H,5-8H2,1-4H3",
        "InChIKey": null,
        "Canonical SMILES": "OC(C)(C)CCCC(C)CC",
        "Molecular Formula": "C<sub>10</sub>H<sub>22</sub>O",
        "Molecular Mass": "158.28",
        "Boiling Point": "80.5 °C @ Press: 10 Torr",
        "Density": "0.8023 g/cm³ @ Temp: 25 °C"
    }
}