{
    "cas_no": "618-94-0",
    "key_name": "3-Nitrobenzohydrazide",
    "cn_name": "3-硝基苯酰肼;",
    "alternate_name": "Benzoic acid, 3-nitro-, hydrazide;Benzoic acid, <em>m</em>-nitro-, hydrazide;<em>m</em>-Nitrobenzoylhydrazine;<em>m</em>-Nitrobenzoic acid hydrazide;3-Nitrobenzhydrazide;3-Nitrobenzoic acid hydrazide;<em>m</em>-Nitrobenzhydrazide;3-Nitrobenzoylhydrazine;<em>m</em>-Nitrobenzoic hydrazide;<em>m</em>-Nitrobenzoylhydrazide;3-Nitrobenzohydrazide;<em>m</em>-Nitrobenzohydrazide;3-Nitrobenzoyl hydrazide;NSC 123864;NSC 3558;INHd 20;Meta-nitrobenzoyl hydrazine",
    "duplicated_cas_no": "",
    "SMILES": "C(NN)(=O)C1=CC(N(=O)=O)=CC=C1",
    "meta_data": {
        "InChI": "InChI=1S/C7H7N3O3/c8-9-7(11)5-2-1-3-6(4-5)10(12)13/h1-4H,8H2,(H,9,11)",
        "InChIKey": null,
        "Canonical SMILES": "O=C(NN)C1=CC=CC(=C1)N(=O)=O",
        "Molecular Formula": "C<sub>7</sub>H<sub>7</sub>N<sub>3</sub>O<sub>3</sub>",
        "Molecular Mass": "181.15",
        "Melting Point": "153-154 °C"
    }
}