{
    "cas_no": "5577-67-3",
    "key_name": "<em>N</em>-(1,1-Dimethylethyl)-1,1,1-trimethylsilanamine",
    "cn_name": "N-叔-丁基三甲基甲硅烷基胺;",
    "alternate_name": "Silanamine, <em>N</em>-(1,1-dimethylethyl)-1,1,1-trimethyl-;Silylamine, <em>N</em>-<em>tert</em>-butyl-1,1,1-trimethyl-;Ethylamine, 1,1-dimethyl-<em>N</em>-(trimethylsilyl)-;<em>N</em>-(1,1-Dimethylethyl)-1,1,1-trimethylsilanamine;<em>tert</em>-Butyl(trimethylsilyl)amine;Trimethylsilyl-<em>tert</em>-butylamine;(<em>tert</em>-Butylamino)trimethylsilane;<em>N</em>-(Trimethylsilyl)-<em>tert</em>-butylamine;<em>N</em>-<em>tert</em>-Butyl(trimethylsilyl)amine;<em>tert</em>-Butylimidotrimethylsilane",
    "duplicated_cas_no": "",
    "SMILES": "N(C(C)(C)C)[Si](C)(C)C",
    "meta_data": {
        "InChI": "InChI=1S/C7H19NSi/c1-7(2,3)8-9(4,5)6/h8H,1-6H3",
        "InChIKey": null,
        "Canonical SMILES": "N(C(C)(C)C)[Si](C)(C)C",
        "Molecular Formula": "C<sub>7</sub>H<sub>19</sub>NSi",
        "Molecular Mass": "145.32",
        "Boiling Point": "56-58 °C @ Press: 12 Torr"
    }
}