{
    "cas_no": "1003-68-5",
    "key_name": "2-Hydroxy-5-methylpyridine",
    "cn_name": "2-羟基-5-甲基吡啶;",
    "alternate_name": "2(1<em>H</em>)-Pyridinone, 5-methyl-;2(1<em>H</em>)-Pyridone, 5-methyl-;5-Methyl-2(1<em>H</em>)-pyridinone;5-Methyl-2-pyridone;5-Methyl-2(1<em>H</em>)-pyridone;5-Methyl-2-pyridinol;2-Hydroxy-5-methylpyridine;3-Methyl-6-hydroxypyridine;5-Methyl-2-oxopyridine;5-Methyl-2-hydroxypyridine",
    "duplicated_cas_no": "1192-99-0",
    "SMILES": "CC=1C=CC(=O)NC1",
    "meta_data": {
        "InChI": "InChI=1S/C6H7NO/c1-5-2-3-6(8)7-4-5/h2-4H,1H3,(H,7,8)",
        "InChIKey": null,
        "Canonical SMILES": "O=C1C=CC(=CN1)C",
        "Molecular Formula": "C<sub>6</sub>H<sub>7</sub>NO",
        "Molecular Mass": "109.13",
        "Melting Point": "182-183 °C"
    }
}