{
    "cas_no": "779-90-8",
    "key_name": "1,1′,1′′-(1,3,5-Benzenetriyl)tris[ethanone]",
    "cn_name": "三乙酰基苯;1,3,5-均三苯乙酮;1,3,5-三乙酰苯;",
    "alternate_name": "Ethanone, 1,1′,1′′-(1,3,5-benzenetriyl)tris-;Benzene, 1,3,5-triacetyl-;1,1′,1′′-(1,3,5-Benzenetriyl)tris[ethanone];1,3,5-Triacetylbenzene;NSC 61943;1-(3,5-Diacetylphenyl)ethan-1-one;1-(3,5-Diacetylphenyl)ethanone",
    "duplicated_cas_no": "1426928-96-2",
    "SMILES": "C(C)(=O)C1=CC(C(C)=O)=CC(C(C)=O)=C1",
    "meta_data": {
        "InChI": "InChI=1S/C12H12O3/c1-7(13)10-4-11(8(2)14)6-12(5-10)9(3)15/h4-6H,1-3H3",
        "InChIKey": null,
        "Canonical SMILES": "O=C(C=1C=C(C=C(C1)C(=O)C)C(=O)C)C",
        "Molecular Formula": "C<sub>12</sub>H<sub>12</sub>O<sub>3</sub>",
        "Molecular Mass": "204.22",
        "Melting Point": "160-162 °C"
    }
}