{
    "cas_no": "74-88-4",
    "key_name": "Methyl iodide",
    "cn_name": "碘甲烷;",
    "alternate_name": "Methane, iodo-;Iodomethane;Methyl iodide;Methyl iodide (CH<sub>3</sub>I);Monoiodomethane;NSC 9366;Ioguard",
    "duplicated_cas_no": "147937-07-3;1173018-72-8;1519044-66-6",
    "SMILES": "CI",
    "meta_data": {
        "InChI": "InChI=1S/CH3I/c1-2/h1H3",
        "InChIKey": null,
        "Canonical SMILES": "IC",
        "Molecular Formula": "CH<sub>3</sub>I",
        "Molecular Mass": "141.94",
        "Boiling Point": "42.5 °C",
        "Melting Point": "-66.5 °C",
        "Density": "2.28 g/cm³ @ Temp: 20 °C"
    }
}