{
    "cas_no": "6627-53-8",
    "key_name": "4-Chloro-2-methoxy-1-nitrobenzene",
    "cn_name": "5-氯-2-硝基甲氧基苯;5-氯-2-硝基苯甲醚;间氯邻硝基苯甲醚;间甲氧基对氯硝基苯;4-氯-3-甲氧基硝基苯;",
    "alternate_name": "Benzene, 4-chloro-2-methoxy-1-nitro-;Anisole, 5-chloro-2-nitro-;4-Chloro-2-methoxy-1-nitrobenzene;2-Nitro-5-chloroanisole;4-Chloro-2-methoxynitrobenzene;5-Chloro-2-nitroanisole;1-Chloro-3-methoxy-4-nitrobenzene;2-Methoxy-4-chloronitrobenzene;5-Chloro-2-nitrophenyl methyl ether;NSC 60112;4-Chloro-2-(methyloxy)-1-nitrobenzene;3-Methoxy-4-nitro-1-chlorobenzene",
    "duplicated_cas_no": "",
    "SMILES": "O(C)C1=C(N(=O)=O)C=CC(Cl)=C1",
    "meta_data": {
        "InChI": "InChI=1S/C7H6ClNO3/c1-12-7-4-5(8)2-3-6(7)9(10)11/h2-4H,1H3",
        "InChIKey": null,
        "Canonical SMILES": "O=N(=O)C1=CC=C(Cl)C=C1OC",
        "Molecular Formula": "C<sub>7</sub>H<sub>6</sub>ClNO<sub>3</sub>",
        "Molecular Mass": "187.58",
        "Melting Point": "70 °C"
    }
}