{
    "cas_no": "1135-23-5",
    "key_name": "Dihydroferulic acid",
    "cn_name": "3-(4-羟基甲基)丙酸;",
    "alternate_name": "Benzenepropanoic acid, 4-hydroxy-3-methoxy-;Hydrocinnamic acid, 4-hydroxy-3-methoxy-;4-Hydroxy-3-methoxybenzenepropanoic acid;3-Methoxyphloretic acid;Ferulic acid, α,β-dihydro-;Hydroferulic acid;β-3-Methoxy-4-hydroxyphenylpropionic acid;(4-Hydroxy-3-methoxyphenyl)propionic acid;β-(4-Hydroxy-3-methoxyphenyl)propionic acid;Dihydroferulic acid;3-Methoxy-4-hydroxyphenylpropionic acid;3-(4-Hydroxy-3-methoxyphenyl)propionic acid;Shorbic acid;Dihydroconiferylic acid;3-(3-Methoxy-4-hydroxyphenyl)propionic acid;3-(3-Methoxy-4-hydroxyphenyl)propanoic acid;3-(4-Hydroxy-3-methoxyphenyl)propanoic acid;3-(3′-Methoxy-4′-hydroxyphenyl)propionic acid",
    "duplicated_cas_no": "",
    "SMILES": "C(CC(O)=O)C1=CC(OC)=C(O)C=C1",
    "meta_data": {
        "InChI": "InChI=1S/C10H12O4/c1-14-9-6-7(2-4-8(9)11)3-5-10(12)13/h2,4,6,11H,3,5H2,1H3,(H,12,13)",
        "InChIKey": null,
        "Canonical SMILES": "O=C(O)CCC1=CC=C(O)C(OC)=C1",
        "Molecular Formula": "C<sub>10</sub>H<sub>12</sub>O<sub>4</sub>",
        "Molecular Mass": "196.20",
        "Boiling Point": "120-130 °C @ Press: 0.5 Torr",
        "Melting Point": "89-90 °C"
    }
}