{
    "cas_no": "123387-51-9",
    "key_name": "1,1-Dimethylethyl 1,4-dioxa-8-azaspiro[4.5]decane-8-carboxylate",
    "cn_name": null,
    "alternate_name": "1,4-Dioxa-8-azaspiro[4.5]decane-8-carboxylic acid, 1,1-dimethylethyl ester;1,1-Dimethylethyl 1,4-dioxa-8-azaspiro[4.5]decane-8-carboxylate;4,4-(Ethylenedioxy)-1-<em>tert</em>-butoxycarbonylpiperidine;8-(<em>tert</em>-Butoxycarbonyl)-1,4-dioxa-8-azaspiro[4.5]decane;1-<em>tert</em>-Butoxycarbonyl-4-piperidone ethylene ketal;<em>tert</em>-Butyl 1,4-dioxa-8-azaspiro[4.5]decane-8-carboxylate",
    "duplicated_cas_no": "",
    "SMILES": "C(OC(C)(C)C)(=O)N1CCC2(CC1)OCCO2",
    "meta_data": {
        "InChI": "InChI=1S/C12H21NO4/c1-11(2,3)17-10(14)13-6-4-12(5-7-13)15-8-9-16-12/h4-9H2,1-3H3",
        "InChIKey": null,
        "Canonical SMILES": "O=C(OC(C)(C)C)N1CCC2(OCCO2)CC1",
        "Molecular Formula": "C<sub>12</sub>H<sub>21</sub>NO<sub>4</sub>",
        "Molecular Mass": "243.30",
        "Boiling Point": "180-190 °C @ Press: 0.4 Torr",
        "Melting Point": "55 °C"
    }
}