{
    "cas_no": "99464-64-9",
    "key_name": "Ampiroxicam",
    "cn_name": null,
    "alternate_name": "Carbonic acid, ethyl 1-[[2-methyl-1,1-dioxido-3-[(2-pyridinylamino)carbonyl]-2<em>H</em>-1,2-benzothiazin-4-yl]oxy]ethyl ester;Carbonic acid, ethyl 1-[[2-methyl-3-[(2-pyridinylamino)carbonyl]-2<em>H</em>-1,2-benzothiazin-4-yl]oxy]ethyl ester, <em>S</em>,<em>S</em>-dioxide;2<em>H</em>-1,2-Benzothiazine, carbonic acid deriv.;Ampiroxicam;CP 65703;Nasil;Flucam",
    "duplicated_cas_no": "",
    "SMILES": "O(C(OC(OCC)=O)C)C=1C=2C(S(=O)(=O)N(C)C1C(NC3=CC=CC=N3)=O)=CC=CC2",
    "meta_data": {
        "InChI": "InChI=1S/C20H21N3O7S/c1-4-28-20(25)30-13(2)29-18-14-9-5-6-10-15(14)31(26,27)23(3)17(18)19(24)22-16-11-7-8-12-21-16/h5-13H,4H2,1-3H3,(H,21,22,24)",
        "InChIKey": null,
        "Canonical SMILES": "O=C(OCC)OC(OC=1C=2C=CC=CC2S(=O)(=O)N(C1C(=O)NC3=NC=CC=C3)C)C",
        "Molecular Formula": "C<sub>20</sub>H<sub>21</sub>N<sub>3</sub>O<sub>7</sub>S",
        "Molecular Mass": "447.46",
        "Melting Point": "159-161 °C"
    }
}