{
    "cas_no": "952616-39-6",
    "key_name": "<em>rel</em>-(1<em>R</em>,3<em>S</em>)-3-[[(Phenylmethoxy)carbonyl]amino]cyclohexanecarboxylic acid",
    "cn_name": null,
    "alternate_name": "Cyclohexanecarboxylic acid, 3-[[(phenylmethoxy)carbonyl]amino]-, (1<em>R</em>,3<em>S</em>)-<em>rel</em>-;<em>rel</em>-(1<em>R</em>,3<em>S</em>)-3-[[(Phenylmethoxy)carbonyl]amino]cyclohexanecarboxylic acid;<em>cis</em>-3-(((Benzyloxy)carbonyl)amino)cyclohexanecarboxylic acid",
    "duplicated_cas_no": "",
    "SMILES": "N(C(OCC1=CC=CC=C1)=O)[C@@H]2C[C@H](C(O)=O)CCC2",
    "meta_data": {
        "InChI": "InChI=1/C15H19NO4/c17-14(18)12-7-4-8-13(9-12)16-15(19)20-10-11-5-2-1-3-6-11/h1-3,5-6,12-13H,4,7-10H2,(H,16,19)(H,17,18)/t12-,13+/s2",
        "InChIKey": null,
        "Canonical SMILES": "O=C(OCC=1C=CC=CC1)NC2CCCC(C(=O)O)C2",
        "Molecular Formula": "C<sub>15</sub>H<sub>19</sub>NO<sub>4</sub>",
        "Molecular Mass": "277.32",
        "Melting Point": "113-114 °C"
    }
}