{
    "cas_no": "3883-86-1",
    "key_name": "2,2′,3,3′,5,5′,6,6′-Octafluoro-1,1′-biphenyl",
    "cn_name": "4H,4H-八氟联苯;",
    "alternate_name": "1,1′-Biphenyl, 2,2′,3,3′,5,5′,6,6′-octafluoro-;Biphenyl, 2,2′,3,3′,5,5′,6,6′-octafluoro-;2,2′,3,3′,5,5′,6,6′-Octafluoro-1,1′-biphenyl;2,2′,3,3′,5,5′,6,6′-Octafluorobiphenyl;NSC 96909;2,3,5,6,2′,3′,5′,6′-Octafluorobiphenyl;1,2,4,5-Tetrafluoro-3-(2,3,5,6-tetrafluorophenyl)benzene",
    "duplicated_cas_no": "",
    "SMILES": "FC1=C(C(F)=C(F)C=C1F)C2=C(F)C(F)=CC(F)=C2F",
    "meta_data": {
        "InChI": "InChI=1S/C12H2F8/c13-3-1-4(14)10(18)7(9(3)17)8-11(19)5(15)2-6(16)12(8)20/h1-2H",
        "InChIKey": null,
        "Canonical SMILES": "FC=1C=C(F)C(F)=C(C1F)C=2C(F)=C(F)C=C(F)C2F",
        "Molecular Formula": "C<sub>12</sub>H<sub>2</sub>F<sub>8</sub>",
        "Molecular Mass": "298.13",
        "Melting Point": "85 °C"
    }
}