{
    "cas_no": "66684-57-9",
    "key_name": "1,2,5-Trifluoro-3-nitrobenzene",
    "cn_name": "2,3,5-三氟硝基苯;",
    "alternate_name": "Benzene, 1,2,5-trifluoro-3-nitro-;1,2,5-Trifluoro-3-nitrobenzene;2,3,5-Trifluoronitrobenzene",
    "duplicated_cas_no": "",
    "SMILES": "N(=O)(=O)C1=C(F)C(F)=CC(F)=C1",
    "meta_data": {
        "InChI": "InChI=1S/C6H2F3NO2/c7-3-1-4(8)6(9)5(2-3)10(11)12/h1-2H",
        "InChIKey": null,
        "Canonical SMILES": "O=N(=O)C=1C=C(F)C=C(F)C1F",
        "Molecular Formula": "C<sub>6</sub>H<sub>2</sub>F<sub>3</sub>NO<sub>2</sub>",
        "Molecular Mass": "177.08",
        "Boiling Point": "187 °C",
        "Melting Point": "~-20 °C (approx)"
    }
}