{
    "cas_no": "773850-91-2",
    "key_name": "1,3,6-Trihydroxy-2,5-dimethoxy-8-methyl-9<em>H</em>-xanthen-9-one",
    "cn_name": null,
    "alternate_name": "9<em>H</em>-Xanthen-9-one, 1,3,6-trihydroxy-2,5-dimethoxy-8-methyl-;1,3,6-Trihydroxy-2,5-dimethoxy-8-methyl-9<em>H</em>-xanthen-9-one;Drimiopsin D;2,5-Dimethoxy-8-methyl-1,3,6-trihydroxyxanthone",
    "duplicated_cas_no": "",
    "SMILES": "O(C)C1=C2C(C(=O)C=3C(O2)=CC(O)=C(OC)C3O)=C(C)C=C1O",
    "meta_data": {
        "InChI": "InChI=1S/C16H14O7/c1-6-4-7(17)15(22-3)16-10(6)12(19)11-9(23-16)5-8(18)14(21-2)13(11)20/h4-5,17-18,20H,1-3H3",
        "InChIKey": null,
        "Canonical SMILES": "O=C1C2=C(O)C(OC)=C(O)C=C2OC=3C(OC)=C(O)C=C(C13)C",
        "Molecular Formula": "C<sub>16</sub>H<sub>14</sub>O<sub>7</sub>",
        "Molecular Mass": "318.28",
        "Melting Point": "205-208 °C"
    }
}