{
    "cas_no": "14965-49-2",
    "key_name": "Methanamine, hydriodide",
    "cn_name": null,
    "alternate_name": "Methanamine, hydriodide;Methylamine, hydriodide;Methylammonium iodide;Methylamine hydroiodide",
    "duplicated_cas_no": "",
    "SMILES": "CN.I",
    "meta_data": {
        "InChI": "InChI=1S/CH5N.HI/c1-2;/h2H2,1H3;1H",
        "InChIKey": null,
        "Canonical SMILES": "I.NC",
        "Molecular Formula": "CH<sub>5</sub>N.HI",
        "Molecular Mass": "",
        "Melting Point": "263-265 °C"
    }
}