{
    "cas_no": "24909-68-0",
    "key_name": "Linoleic anhydride",
    "cn_name": "油酸酸酐;",
    "alternate_name": "9,12-Octadecadienoic acid (9<em>Z</em>,12<em>Z</em>)-, 1,1′-anhydride;9,12-Octadecadienoic acid (<em>Z</em>,<em>Z</em>)-, anhydride;Linoleic anhydride;9,12-Octadecadienoic acid (9<em>Z</em>,12<em>Z</em>)-, anhydride;Linoleic acid anhydride",
    "duplicated_cas_no": "",
    "SMILES": "O(C(CCCCCCC/C=C\\C/C=C\\CCCCC)=O)C(CCCCCCC/C=C\\C/C=C\\CCCCC)=O",
    "meta_data": {
        "InChI": "InChI=1S/C36H62O3/c1-3-5-7-9-11-13-15-17-19-21-23-25-27-29-31-33-35(37)39-36(38)34-32-30-28-26-24-22-20-18-16-14-12-10-8-6-4-2/h11-14,17-20H,3-10,15-16,21-34H2,1-2H3/b13-11-,14-12-,19-17-,20-18-",
        "InChIKey": null,
        "Canonical SMILES": "O=C(OC(=O)CCCCCCCC=CCC=CCCCCC)CCCCCCCC=CCC=CCCCCC",
        "Molecular Formula": "C<sub>36</sub>H<sub>62</sub>O<sub>3</sub>",
        "Molecular Mass": "542.88",
        "Melting Point": "-3--1 °C"
    }
}