{
    "cas_no": "30354-18-8",
    "key_name": "Methanaminium, <em>N</em>-methyl-<em>N</em>-methylene-, chloride",
    "cn_name": "N,N-二甲基氯烯亚胺;",
    "alternate_name": "Methanaminium, <em>N</em>-methyl-<em>N</em>-methylene-, chloride;Ammonium, dimethylmethylene-, chloride;Dimethylmethyleniminium chloride;Dimethylmethyleneammonium chloride;Methylenedimethylammonium chloride;<em>N</em>,<em>N</em>-Dimethylmethyleniminium chloride;Dimethylformiminium chloride;<em>N</em>,<em>N</em>-Dimethylmethyleneammonium chloride;Dimethyl(methylene)iminium chloride;<em>N</em>-Methyl-<em>N</em>-methylenemethaniminium chloride;<em>N</em>,<em>N</em>-Dimethyliminium chloride",
    "duplicated_cas_no": "72140-16-0",
    "SMILES": "[N+](C)(C)=C.[Cl-]",
    "meta_data": {
        "InChI": "InChI=1S/C3H8N.ClH/c1-4(2)3;/h1H2,2-3H3;1H/q+1;/p-1",
        "InChIKey": null,
        "Canonical SMILES": "[Cl-].C=[N+](C)C",
        "Molecular Formula": "C<sub>3</sub>H<sub>8</sub>N.Cl",
        "Molecular Mass": "",
        "Melting Point": "140-145 °C"
    }
}