{
    "cas_no": "338-75-0",
    "key_name": "2,3-Dichloro-1,1,1-trifluoropropane",
    "cn_name": "2,3-二氯-1,1,1-三氟丙烷;",
    "alternate_name": "Propane, 2,3-dichloro-1,1,1-trifluoro-;2,3-Dichloro-1,1,1-trifluoropropane;R 243db;1,2-Dichloro-3,3,3-trifluoropropane;1,1,1-Trifluoro-2,3-dichloropropane;HCFC 243db;HCFO 243db;HFO 1234db;243db;2,3-Dichloro-1,1,1-fluoropropane",
    "duplicated_cas_no": "",
    "SMILES": "C(C(F)(F)F)(CCl)Cl",
    "meta_data": {
        "InChI": "InChI=1S/C3H3Cl2F3/c4-1-2(5)3(6,7)8/h2H,1H2",
        "InChIKey": null,
        "Canonical SMILES": "FC(F)(F)C(Cl)CCl",
        "Molecular Formula": "C<sub>3</sub>H<sub>3</sub>Cl<sub>2</sub>F<sub>3</sub>",
        "Molecular Mass": "166.96",
        "Boiling Point": "76.7 °C",
        "Density": "1.4310 g/cm³ @ Temp: 20 °C"
    }
}