{
    "cas_no": "26820-62-2",
    "key_name": "2-Morpholino-5-nitropyridine",
    "cn_name": "2-吗啉基-5-硝基吡啶;",
    "alternate_name": "Morpholine, 4-(5-nitro-2-pyridinyl)-;Morpholine, 4-(5-nitro-2-pyridyl)-;4-(5-Nitro-2-pyridinyl)morpholine;2-Morpholino-5-nitropyridine;<em>N</em>-(5-Nitro-2-pyridyl)morpholine;NSC 91094;4-(5-Nitropyridin-2-yl)morpholine",
    "duplicated_cas_no": "",
    "SMILES": "N(=O)(=O)C1=CC=C(N=C1)N2CCOCC2",
    "meta_data": {
        "InChI": "InChI=1S/C9H11N3O3/c13-12(14)8-1-2-9(10-7-8)11-3-5-15-6-4-11/h1-2,7H,3-6H2",
        "InChIKey": null,
        "Canonical SMILES": "O=N(=O)C1=CN=C(C=C1)N2CCOCC2",
        "Molecular Formula": "C<sub>9</sub>H<sub>11</sub>N<sub>3</sub>O<sub>3</sub>",
        "Molecular Mass": "209.20",
        "Melting Point": "142.3-143.3 °C"
    }
}