{
    "cas_no": "134-84-9",
    "key_name": "4-Methylbenzophenone",
    "cn_name": "4-甲基二苯甲酮;",
    "alternate_name": "Methanone, (4-methylphenyl)phenyl-;Benzophenone, 4-methyl-;(4-Methylphenyl)phenylmethanone;4-Methylbenzophenone;Phenyl <em>p</em>-tolyl ketone;<em>p</em>-Methylbenzophenone;<em>p</em>-Tolyl phenyl ketone;<em>p</em>-Benzoyltoluene;4-Methylphenyl phenyl ketone;4-Benzoyltoluene;Phenyl(4-tolyl)methanone;<em>p</em>-Methylphenyl phenyl ketone;NSC 4898;(Phenyl)(4-methylphenyl)methanone;UV-Cure PMB;Speedcure MBP;SB-PI 712;JRCure 1024;Phenyl(<em>p</em>-tolyl)methanone;1-<em>p</em>-Tolyl-1-phenylmethanone;Photoinitiator MBZ;Gencure MBZ;Omnirad 4MBZ",
    "duplicated_cas_no": "",
    "SMILES": "C(=O)(C1=CC=C(C)C=C1)C2=CC=CC=C2",
    "meta_data": {
        "InChI": "InChI=1S/C14H12O/c1-11-7-9-13(10-8-11)14(15)12-5-3-2-4-6-12/h2-10H,1H3",
        "InChIKey": null,
        "Canonical SMILES": "O=C(C=1C=CC=CC1)C2=CC=C(C=C2)C",
        "Molecular Formula": "C<sub>14</sub>H<sub>12</sub>O",
        "Molecular Mass": "196.24",
        "Boiling Point": "164-169 °C @ Press: 9 Torr",
        "Melting Point": "59.5 °C",
        "Density": "1.079 g/cm³ @ Temp: 20 °C"
    }
}