{
    "cas_no": "25990-37-8",
    "key_name": "Nimbolide",
    "cn_name": null,
    "alternate_name": "2<em>H</em>,5<em>H</em>-Cyclopenta[<em>d</em>′]naphtho[1,8-<em>bc</em>:2,3-<em>b</em>′]difuran-6-acetic acid, 8-(3-furanyl)-2a,5a,6,6a,8,9,9a,10a,10b,10c-decahydro-2a,5a,6a,7-tetramethyl-2,5-dioxo-, methyl ester, (2a<em>R</em>,5a<em>R</em>,6<em>S</em>,6a<em>R</em>,8<em>R</em>,9a<em>R</em>,10a<em>S</em>,10b<em>R</em>,10c<em>R</em>)-;2<em>H</em>,5<em>H</em>-Cyclopenta[<em>d</em>′]naphtho[1,8-<em>bc</em>:2,3-<em>b</em>′]difuran-6-acetic acid, 8α-(3-furyl)-2a,5a,6,6a,8,9,9a,10a,10b,10c-decahydro-2a,5a,6a,7-tetramethyl-2,5-dioxo-, methyl ester;18,24-Dinor-11,12-secochola-2,13,20,22-tetraene-4,11-dicarboxylic acid, 7,15:21,23-diepoxy-6-hydroxy-4,8-dimethyl-1-oxo-, γ-lactone, methyl ester, (4α,5α,6α,7α,15β,17α)-;2<em>H</em>,5<em>H</em>-Cyclopenta[<em>d</em>′]naphtho[1,8-<em>bc</em>:2,3-<em>b</em>′]difuran, 18,24-dinor-11,12-secochola-2,13,20,22-tetraene-4,11-dicarboxylic acid deriv.;Nimbolide;NSC 309909",
    "duplicated_cas_no": "",
    "SMILES": "C[C@]12[C@]3([C@]([C@@]4([C@](C)([C@@H]1CC(OC)=O)C=5[C@](O4)(C[C@H](C5C)C=6C=COC6)[H])[H])(OC(=O)[C@]3(C)C=CC2=O)[H])[H]",
    "meta_data": {
        "InChI": "InChI=1S/C27H30O7/c1-13-15(14-7-9-32-12-14)10-16-20(13)27(4)17(11-19(29)31-5)26(3)18(28)6-8-25(2)22(26)21(23(27)33-16)34-24(25)30/h6-9,12,15-17,21-23H,10-11H2,1-5H3/t15-,16-,17-,21-,22+,23-,25-,26+,27-/m1/s1",
        "InChIKey": null,
        "Canonical SMILES": "O=C(OC)CC1C2(C(=O)C=CC3(C(=O)OC(C4OC5C(=C(C)C(C6=COC=C6)C5)C41C)C32)C)C",
        "Molecular Formula": "C<sub>27</sub>H<sub>30</sub>O<sub>7</sub>",
        "Molecular Mass": "466.52",
        "Melting Point": "245-247 °C"
    }
}