{
    "cas_no": "100-67-4",
    "key_name": "Potassium phenoxide",
    "cn_name": null,
    "alternate_name": "Phenol, potassium salt (1:1);Potassium phenoxide;Phenol, potassium salt;Potassium carbolate;Potassium phenolate;Potassium phenylate;Potassium phenate;Phenoxypotassium",
    "duplicated_cas_no": "25915-09-7",
    "SMILES": "OC1=CC=CC=C1.[K]",
    "meta_data": {
        "InChI": "InChI=1S/C6H6O.K/c7-6-4-2-1-3-5-6;/h1-5,7H;",
        "InChIKey": null,
        "Canonical SMILES": "[K].OC=1C=CC=CC1",
        "Molecular Formula": "C<sub>6</sub>H<sub>6</sub>O.K",
        "Molecular Mass": "",
        "Melting Point": "103-104 °C"
    }
}