{
    "cas_no": "1008-92-0",
    "key_name": "2,3-Dihydro-1,4-benzodioxin-2-carbonitrile",
    "cn_name": null,
    "alternate_name": "1,4-Benzodioxin-2-carbonitrile, 2,3-dihydro-;1,4-Benzodioxan-2-carbonitrile;2,3-Dihydro-1,4-benzodioxin-2-carbonitrile;2-Cyano-1,4-benzodioxan;2,3-Dihydro-benzo[1,4]dioxine-2-carbonitrile;2,3-Dihydro-1,4-benzodioxine-3-carbonitrile;2,3-Dihydro-1,4-benzodioxine-2-carbonitrile",
    "duplicated_cas_no": "89150-50-5",
    "SMILES": "C(#N)C1OC=2C(OC1)=CC=CC2",
    "meta_data": {
        "InChI": "InChI=1S/C9H7NO2/c10-5-7-6-11-8-3-1-2-4-9(8)12-7/h1-4,7H,6H2",
        "InChIKey": null,
        "Canonical SMILES": "N#CC1OC=2C=CC=CC2OC1",
        "Molecular Formula": "C<sub>9</sub>H<sub>7</sub>NO<sub>2</sub>",
        "Molecular Mass": "161.16",
        "Boiling Point": "116-119 °C @ Press: 0.15 Torr",
        "Melting Point": "54 °C"
    }
}