{
    "cas_no": "94317-64-3",
    "key_name": "<em>N</em>-(<em>n</em>-Butyl)thiophosphoric triamide",
    "cn_name": "正丁基硫代磷酸三胺;",
    "alternate_name": "Phosphorothioic triamide, <em>N</em>-butyl-;Phosphorothioic triamide, butyl-;<em>N</em>-Butylphosphorothioic triamide;<em>N</em>-(<em>n</em>-Butyl)thiophosphoric triamide;<em>N</em>-Butylthiophosphoric triamide;<em>N</em>-(<em>n</em>-Butyl)phosphorothioic triamide;Agrotain;Agrotain Plus;Agrotain DC;ArmU;Agrotain Ultra;Agrotain Prime;<em>N</em>-(<em>n</em>-Butyl)thiophosphoric acid triamide;AGROTAIN DRI-MAXX",
    "duplicated_cas_no": "",
    "SMILES": "N(P(N)(N)=S)CCCC",
    "meta_data": {
        "InChI": "InChI=1S/C4H14N3PS/c1-2-3-4-7-8(5,6)9/h2-4H2,1H3,(H5,5,6,7,9)",
        "InChIKey": null,
        "Canonical SMILES": "S=P(N)(N)NCCCC",
        "Molecular Formula": "C<sub>4</sub>H<sub>14</sub>N<sub>3</sub>PS",
        "Molecular Mass": "167.21",
        "Melting Point": "54 °C"
    }
}