{
    "cas_no": "12024-11-2",
    "key_name": "Gallium selenide (GaSe)",
    "cn_name": null,
    "alternate_name": "Gallium selenide (GaSe);Gallium monoselenide;Gallium selenide;Gallium monoselenide (GaSe)",
    "duplicated_cas_no": "1220118-41-1;1979194-24-5",
    "SMILES": "",
    "meta_data": {
        "InChI": "",
        "InChIKey": null,
        "Canonical SMILES": "",
        "Molecular Formula": "GaSe",
        "Molecular Mass": "",
        "Melting Point": "938 °C",
        "Density": "5.03 g/cm³"
    }
}