{
    "cas_no": "4863-91-6",
    "key_name": "3-Chloro-5-fluorobenzenamine",
    "cn_name": "3-氯-5-氟苯胺;",
    "alternate_name": "Benzenamine, 3-chloro-5-fluoro-;Aniline, 3-chloro-5-fluoro-;3-Chloro-5-fluorobenzenamine;3-Chloro-5-fluoroaniline",
    "duplicated_cas_no": "",
    "SMILES": "ClC1=CC(F)=CC(N)=C1",
    "meta_data": {
        "InChI": "InChI=1S/C6H5ClFN/c7-4-1-5(8)3-6(9)2-4/h1-3H,9H2",
        "InChIKey": null,
        "Canonical SMILES": "FC=1C=C(Cl)C=C(N)C1",
        "Molecular Formula": "C<sub>6</sub>H<sub>5</sub>ClFN",
        "Molecular Mass": "145.56",
        "Boiling Point": "98 °C @ Press: 19 Torr"
    }
}