{
    "cas_no": "1679-53-4",
    "key_name": "10-Hydroxydecanoic acid",
    "cn_name": "10-羟基癸酸;",
    "alternate_name": "Decanoic acid, 10-hydroxy-;10-Hydroxydecanoic acid;NSC 15139",
    "duplicated_cas_no": "",
    "SMILES": "C(CCCCCO)CCCC(O)=O",
    "meta_data": {
        "InChI": "InChI=1S/C10H20O3/c11-9-7-5-3-1-2-4-6-8-10(12)13/h11H,1-9H2,(H,12,13)",
        "InChIKey": null,
        "Canonical SMILES": "O=C(O)CCCCCCCCCO",
        "Molecular Formula": "C<sub>10</sub>H<sub>20</sub>O<sub>3</sub>",
        "Molecular Mass": "188.26",
        "Melting Point": "75.5-76.5 °C"
    }
}