{
    "cas_no": "214360-47-1",
    "key_name": "2-(5,5-Dimethyl-1,3,2-dioxaborinan-2-yl)benzonitrile",
    "cn_name": null,
    "alternate_name": "Benzonitrile, 2-(5,5-dimethyl-1,3,2-dioxaborinan-2-yl)-;2-(5,5-Dimethyl-1,3,2-dioxaborinan-2-yl)benzonitrile;2-(2-Cyanophenyl)-5,5-dimethyl-1,3,2-dioxaborinane;(2-Cyanophenyl)boronic acid 2,2-dimethylpropane-1,3-diol cyclic ester;2,2-Dimethyltrimethylene (2-cyanophenyl)boronate",
    "duplicated_cas_no": "",
    "SMILES": "C(#N)C1=C(C=CC=C1)B2OCC(C)(C)CO2",
    "meta_data": {
        "InChI": "InChI=1S/C12H14BNO2/c1-12(2)8-15-13(16-9-12)11-6-4-3-5-10(11)7-14/h3-6H,8-9H2,1-2H3",
        "InChIKey": null,
        "Canonical SMILES": "N#CC=1C=CC=CC1B2OCC(C)(C)CO2",
        "Molecular Formula": "C<sub>12</sub>H<sub>14</sub>BNO<sub>2</sub>",
        "Molecular Mass": "215.06",
        "Melting Point": "109-111 °C"
    }
}