{
    "cas_no": "622-03-7",
    "key_name": "2,2′-Diphenylcarbonothioic dihydrazide",
    "cn_name": "二苯基硫代卡巴肼;二苯基硫代羰二肼;二苯硫代碳酰二肼;",
    "alternate_name": "Carbonothioic dihydrazide, 2,2′-diphenyl-;Carbohydrazide, 1,5-diphenyl-3-thio-;2,2′-Diphenylcarbonothioic dihydrazide;Diphenylthiocarbazide;1,5-Diphenylthiocarbohydrazide;NSC 688;1,3-Dianilinothiourea",
    "duplicated_cas_no": "24801-83-0",
    "SMILES": "N(NC(NNC1=CC=CC=C1)=S)C2=CC=CC=C2",
    "meta_data": {
        "InChI": "InChI=1S/C13H14N4S/c18-13(16-14-11-7-3-1-4-8-11)17-15-12-9-5-2-6-10-12/h1-10,14-15H,(H2,16,17,18)",
        "InChIKey": null,
        "Canonical SMILES": "S=C(NNC=1C=CC=CC1)NNC=2C=CC=CC2",
        "Molecular Formula": "C<sub>13</sub>H<sub>14</sub>N<sub>4</sub>S",
        "Molecular Mass": "258.34",
        "Melting Point": "&gt;140 °C",
        "Density": "1.27 g/cm³"
    }
}