{
    "cas_no": "22153-71-5",
    "key_name": "4-Nitrophenyl 6-deoxy-β-<span class=\"text-smallcaps\">L</span>-galactopyranoside",
    "cn_name": null,
    "alternate_name": "β-<span class=\"text-smallcaps\">L</span>-Galactopyranoside, 4-nitrophenyl 6-deoxy-;Galactopyranoside, <em>p</em>-nitrophenyl 6-deoxy-, β-<span class=\"text-smallcaps\">L</span>-;4-Nitrophenyl 6-deoxy-β-<span class=\"text-smallcaps\">L</span>-galactopyranoside;<em>p</em>-Nitrophenyl-β-fucopyranoside;<em>p</em>-Nitrophenyl β-<span class=\"text-smallcaps\">L</span>-fucopyranoside;<em>p</em>-Nitrophenyl β-<span class=\"text-smallcaps\">L</span>-fucoside;4-Nitrophenyl-β-<span class=\"text-smallcaps\">L</span>-fucopyranoside",
    "duplicated_cas_no": "",
    "SMILES": "O([C@@H]1[C@@H](O)[C@H](O)[C@H](O)[C@H](C)O1)C2=CC=C(N(=O)=O)C=C2",
    "meta_data": {
        "InChI": "InChI=1S/C12H15NO7/c1-6-9(14)10(15)11(16)12(19-6)20-8-4-2-7(3-5-8)13(17)18/h2-6,9-12,14-16H,1H3/t6-,9+,10+,11-,12+/m0/s1",
        "InChIKey": null,
        "Canonical SMILES": "O=N(=O)C1=CC=C(OC2OC(C)C(O)C(O)C2O)C=C1",
        "Molecular Formula": "C<sub>12</sub>H<sub>15</sub>NO<sub>7</sub>",
        "Molecular Mass": "285.25",
        "Melting Point": "182-184 °C"
    }
}