{
    "cas_no": "614-18-6",
    "key_name": "Ethyl nicotinate",
    "cn_name": "烟酸乙酯;",
    "alternate_name": "3-Pyridinecarboxylic acid, ethyl ester;Nicotinic acid, ethyl ester;Nikithan;Ba 2673;Ethyl nicotinate;3-Carbethoxypyridine;Ethyl 3-pyridinecarboxylate;β-Pyridinecarboxylic acid ethyl ester;3-(Ethoxycarbonyl)pyridine;Ignicut;Ignocut;Mucotherm;Nicaethan;Nikethan;NSC 8872;Ethyl pyridine-3-oate",
    "duplicated_cas_no": "123574-71-0",
    "SMILES": "C(OCC)(=O)C=1C=CC=NC1",
    "meta_data": {
        "InChI": "InChI=1S/C8H9NO2/c1-2-11-8(10)7-4-3-5-9-6-7/h3-6H,2H2,1H3",
        "InChIKey": null,
        "Canonical SMILES": "O=C(OCC)C=1C=NC=CC1",
        "Molecular Formula": "C<sub>8</sub>H<sub>9</sub>NO<sub>2</sub>",
        "Molecular Mass": "151.16",
        "Boiling Point": "224 °C",
        "Melting Point": "8.5 °C",
        "Density": "1.1150 g/cm³ @ Temp: 20 °C"
    }
}