{
    "cas_no": "592-48-3",
    "key_name": "1,3-Hexadiene",
    "cn_name": "1,3-己二烯;",
    "alternate_name": "1,3-Hexadiene;1-Ethyl-1,3-butadiene",
    "duplicated_cas_no": "",
    "SMILES": "C(=CC=C)CC",
    "meta_data": {
        "InChI": "InChI=1S/C6H10/c1-3-5-6-4-2/h3,5-6H,1,4H2,2H3",
        "InChIKey": null,
        "Canonical SMILES": "C=CC=CCC",
        "Molecular Formula": "C<sub>6</sub>H<sub>10</sub>",
        "Molecular Mass": "82.14",
        "Boiling Point": "72-75 °C",
        "Density": "0.7152 g/cm³ @ Temp: 22 °C"
    }
}