{
    "cas_no": "2234-14-2",
    "key_name": "1-[2,4,6-Tris(1-methylethyl)phenyl]ethanone",
    "cn_name": "2\",4\",6\"-三异丙基苯乙酮;2,4,6-三异丙基苯乙酮;",
    "alternate_name": "Ethanone, 1-[2,4,6-tris(1-methylethyl)phenyl]-;Acetophenone, 2′,4′,6′-triisopropyl-;1-[2,4,6-Tris(1-methylethyl)phenyl]ethanone;2′,4′,6′-Triisopropylacetophenone;2,4,6-Triisopropylacetophenone;1-(2,4,6-Triisopropylphenyl)ethanone;NSC 152212;1-[2,4,6-Tri(propan-2-yl)phenyl]ethanone;1-(2,4,6-Triisopropylphenyl)ethan-1-one",
    "duplicated_cas_no": "",
    "SMILES": "C(C)(=O)C1=C(C(C)C)C=C(C(C)C)C=C1C(C)C",
    "meta_data": {
        "InChI": "InChI=1S/C17H26O/c1-10(2)14-8-15(11(3)4)17(13(7)18)16(9-14)12(5)6/h8-12H,1-7H3",
        "InChIKey": null,
        "Canonical SMILES": "O=C(C=1C(=CC(=CC1C(C)C)C(C)C)C(C)C)C",
        "Molecular Formula": "C<sub>17</sub>H<sub>26</sub>O",
        "Molecular Mass": "246.39",
        "Melting Point": "87.5-88 °C"
    }
}