{
    "cas_no": "56973-26-3",
    "key_name": "5-Hydroxy-1<em>H</em>-imidazole-4-carboxamide",
    "cn_name": "5-羟基-1H-咪唑-4-甲酰胺;",
    "alternate_name": "1<em>H</em>-Imidazole-4-carboxamide, 5-hydroxy-;5-Hydroxy-1<em>H</em>-imidazole-4-carboxamide;Bredinin aglycone;4-Carbamoyl-5-hydroxyimidazole;5-Hydroxyimidazole 4-carboxamide;SM 108;SM 108 (antitumor agent);NSC 266026;FF 10501 free base;FF 10501-01 free base",
    "duplicated_cas_no": "66148-55-8",
    "SMILES": "C(N)(=O)C1=C(O)N=CN1",
    "meta_data": {
        "InChI": "InChI=1S/C4H5N3O2/c5-3(8)2-4(9)7-1-6-2/h1,9H,(H2,5,8)(H,6,7)",
        "InChIKey": null,
        "Canonical SMILES": "O=C(N)C=1NC=NC1O",
        "Molecular Formula": "C<sub>4</sub>H<sub>5</sub>N<sub>3</sub>O<sub>2</sub>",
        "Molecular Mass": "127.10",
        "Melting Point": "260 °C"
    }
}