{
    "cas_no": "56092-82-1",
    "key_name": "10,16-Docosadienoic acid, 11,19,21-trihydroxy-4,6,8,12,14,18,20-heptamethyl-22-[(2<em>S</em>,2′<em>R</em>,5<em>S</em>,5′<em>S</em>)-octahydro-5′-[(1<em>R</em>)-1-hydroxyethyl]-2,5′-dimethyl[2,2′-bifuran]-5-yl]-9-oxo-, calcium salt (1:1), (4<em>R</em>,6<em>S</em>,8<em>S</em>,10<em>Z</em>,12<em>R</em>,14<em>R</em>,16<em>E</em>,18<em>R</em>,19<em>R</em>,20<em>S</em>,21<em>S</em>)-",
    "cn_name": null,
    "alternate_name": "10,16-Docosadienoic acid, 11,19,21-trihydroxy-4,6,8,12,14,18,20-heptamethyl-22-[(2<em>S</em>,2′<em>R</em>,5<em>S</em>,5′<em>S</em>)-octahydro-5′-[(1<em>R</em>)-1-hydroxyethyl]-2,5′-dimethyl[2,2′-bifuran]-5-yl]-9-oxo-, calcium salt (1:1), (4<em>R</em>,6<em>S</em>,8<em>S</em>,10<em>Z</em>,12<em>R</em>,14<em>R</em>,16<em>E</em>,18<em>R</em>,19<em>R</em>,20<em>S</em>,21<em>S</em>)-;Ionomycin, calcium salt (1:1);Calcium ionomycin",
    "duplicated_cas_no": "1214981-98-2;1263196-82-2",
    "SMILES": "C[C@@]1(O[C@H](C[C@@H]([C@@H]([C@@H]([C@@H](/C=C/C[C@H](C[C@H](/C(=C/C([C@H](C[C@H](C[C@@H](CCC(O)=O)C)C)C)=O)/O)C)C)C)O)C)O)CC1)[C@@]2(O[C@@]([C@@H](C)O)(C)CC2)[H].[Ca]",
    "meta_data": {
        "InChI": "InChI=1S/C41H72O9.Ca/c1-25(21-29(5)34(43)24-35(44)30(6)22-27(3)20-26(2)14-15-38(46)47)12-11-13-28(4)39(48)31(7)36(45)23-33-16-18-41(10,49-33)37-17-19-40(9,50-37)32(8)42;/h11,13,24-33,36-37,39,42-43,45,48H,12,14-23H2,1-10H3,(H,46,47);/b13-11+,34-24-;/t25-,26-,27+,28-,29-,30+,31+,32-,33+,36+,37-,39-,40+,41+;/m1./s1",
        "InChIKey": null,
        "Canonical SMILES": "[Ca].O=C(O)CCC(C)CC(C)CC(C(=O)C=C(O)C(C)CC(C)CC=CC(C)C(O)C(C)C(O)CC1OC(C)(CC1)C2OC(C)(CC2)C(O)C)C",
        "Molecular Formula": "C<sub>41</sub>H<sub>72</sub>O<sub>9</sub>.Ca",
        "Molecular Mass": "",
        "Melting Point": "199-200 °C"
    }
}