{
    "cas_no": "657-24-9",
    "key_name": "Metformin",
    "cn_name": "甲福明;双甲胍;二甲双胍;",
    "alternate_name": "Imidodicarbonimidic diamide, <em>N</em>,<em>N</em>-dimethyl-;Biguanide, 1,1-dimethyl-;<em>N</em>,<em>N</em>-Dimethylimidodicarbonimidic diamide;<em>N</em>,<em>N</em>-Dimethylbiguanide;<em>N</em><sup>1</sup>,<em>N</em><sup>1</sup>-Dimethylbiguanide;1,1-Dimethylbiguanide;<em>N</em>,<em>N</em>-Dimethyldiguanide;Flumamine;Metformin;NNDG;Dimethylbiguanide;DMGG;Fluamine;Gliguanid;Haurymelin;Metiguanide;Siofor;<em>N</em>′-Dimethylguanylguanidine;Metphage;Ficonax;Emiphage;Cidophage;Glucofine;Glifor;1-[Amino(dimethylamino)methylidene]guanidine;1-Carbamimidamido-<em>N</em>,<em>N</em>-dimethylmethanimidamide;[[Amino(dimethylamino)methylidene]amino]methanimidamide;Okamet;MeSH ID: D008687",
    "duplicated_cas_no": "",
    "SMILES": "C(NC(=N)N)(N(C)C)=N",
    "meta_data": {
        "InChI": "InChI=1S/C4H11N5/c1-9(2)4(7)8-3(5)6/h1-2H3,(H5,5,6,7,8)",
        "InChIKey": null,
        "Canonical SMILES": "N=C(N)NC(=N)N(C)C",
        "Molecular Formula": "C<sub>4</sub>H<sub>11</sub>N<sub>5</sub>",
        "Molecular Mass": "129.16",
        "Melting Point": "232-233 °C"
    }
}