{
    "cas_no": "4051-63-2",
    "key_name": "Pigment Red 177",
    "cn_name": "颜料红177;",
    "alternate_name": "[1,1′-Bianthracene]-9,9′,10,10′-tetrone, 4,4′-diamino-;1,1′-Bianthraquinone, 4,4′-diamino-;4,4′-Diamino[1,1′-bianthracene]-9,9′,10,10′-tetrone;Pigment Red 177;C.I. Pigment Red 177;1,1′-Diamino-4,4′-dianthraquinonyl;4,4′-Diamino-1,1′-dianthraquinone;4,4′-Diamino-1,1′-dianthraquinonyl;Cromophtal Red A 3B;Versal Red A 3B;Cromophtal Red A 2B;Red A 3B;Dianthraquinonyl red;4,4′-Diamino-1,1′-bianthraquinone;Fastogen Super Red ATY 01;Fastogen Super Red ATY;C.I. 65300;Irgazin Red A 2BN;Irgazin Red A 2BX;Oracet Red BG;4,4′-Diamino-1,1′-dianthrquinonyl;4,4′-Diamino[1,1′-bianthracene]-9,9′,10,10′-tetraone;MG Red K-VC;Fastogen Super Red ATY-TR;Red ATY-TR;CF Red EX 109;CAB-LX 471 Red;PR 177;Chromofine Red 6601;Chromofine Red 6605;C.I. PR 177;Chromofine Red 6125EC;Chromofine Red 6128EC;Chromofine Red 6130EC;Fast Red A 3B;Cinilex Red SR 4C;Paliogen Red L 4039;4,4′-Bis(1-aminoanthraquinone);Chromofine Red 6605T;Chromonfine Red 6605T;Paliogen Red L 4045;Cinilex Red SR 3C;Chromofine Red 6121EC;DTXSID2052079",
    "duplicated_cas_no": "12270-62-1;58985-28-7;65742-19-0;167139-80-2;790240-43-6;1037168-88-9;1325210-65-8",
    "SMILES": "O=C1C2=C(C=CC(N)=C2C(=O)C=3C1=CC=CC3)C4=C5C(C(=O)C=6C(C5=O)=CC=CC6)=C(N)C=C4",
    "meta_data": {
        "InChI": "InChI=1S/C28H16N2O4/c29-19-11-9-13(21-23(19)27(33)17-7-3-1-5-15(17)25(21)31)14-10-12-20(30)24-22(14)26(32)16-6-2-4-8-18(16)28(24)34/h1-12H,29-30H2",
        "InChIKey": null,
        "Canonical SMILES": "O=C1C=2C=CC=CC2C(=O)C3=C(C=CC(N)=C13)C4=CC=C(N)C=5C(=O)C=6C=CC=CC6C(=O)C45",
        "Molecular Formula": "C<sub>28</sub>H<sub>16</sub>N<sub>2</sub>O<sub>4</sub>",
        "Molecular Mass": "444.44",
        "Melting Point": "356-358 °C"
    }
}