{
    "cas_no": "127-65-1",
    "key_name": "Chloramine-T",
    "cn_name": "氯胺T;氯亚明T;对甲苯磺酰氯胺钠;",
    "alternate_name": "Benzenesulfonamide, <em>N</em>-chloro-4-methyl-, sodium salt (1:1);<em>p</em>-Toluenesulfonamide, <em>N</em>-chloro-, sodium salt;Benzenesulfonamide, <em>N</em>-chloro-4-methyl-, sodium salt;Aktivin;Chloraseptine;Chlorazone;<em>N</em>-Chloro-<em>p</em>-toluenesulfonamide sodium;Chlorozone;Clorina;Chlorazene;Euclorina;Gansil;Gyneclorina;Mannolite;Mianine;Sodium <em>N</em>-chloro-<em>p</em>-toluenesulfonamide;Sodium <em>p</em>-toluenesulfonchloramide;Sodium <em>p</em>-toluenesulfonylchloramide;Sodium tosylchloramide;Tampules;Tochlorine;Tolamine;Tosylchloramide sodium;Halamid;Chlorazan;Kloramin;Sodium chloramine T;Chlorasan;Kloramine-T;Monochloramine T;<em>N</em>-Chloro-<em>p</em>-toluenesulfonamide sodium salt;Chloramine-T;<em>N</em>-Chlorotoluenesulfonamide sodium salt;Acti-chlore;Clorosan;Anexol;Berkendyl;Heliogen;Chloralone;Cloramine T;Chlorseptol;Sodium <em>p</em>-toluenesulfochloramide;Multichlor;Desinfect;Sodium <em>N</em>-chloro-4-methylbenzenesulfonamide;Aseptoclean;Aktiven;Chlorazene hydrosol;<em>N</em>-Chloro-4-methylbenzenesulfonamide sodium salt;Kloramin B;Asepto-Sol",
    "duplicated_cas_no": "1576-40-5;8045-11-2;72793-59-0;75532-46-6;1071221-06-1;1172849-57-8;1976057-59-6;2143892-53-7",
    "SMILES": "S(NCl)(=O)(=O)C1=CC=C(C)C=C1.[Na]",
    "meta_data": {
        "InChI": "InChI=1S/C7H8ClNO2S.Na/c1-6-2-4-7(5-3-6)12(10,11)9-8;/h2-5,9H,1H3;",
        "InChIKey": null,
        "Canonical SMILES": "[Na].O=S(=O)(NCl)C1=CC=C(C=C1)C",
        "Molecular Formula": "C<sub>7</sub>H<sub>8</sub>ClNO<sub>2</sub>S.Na",
        "Molecular Mass": "",
        "Melting Point": "170-177 °C (decomp)"
    }
}