{
    "cas_no": "76-89-1",
    "key_name": "Methyl benzilate",
    "cn_name": "二苯乙醇酸甲酯;二苯羟基乙酸甲酯;",
    "alternate_name": "Benzeneacetic acid, α-hydroxy-α-phenyl-, methyl ester;Benzilic acid, methyl ester;Methyl benzilate;Methyl diphenylglycolate;Methyl α-phenylmandelate;Methyl 2-hydroxy-2,2-diphenylacetate;Methyl hydroxydiphenylacetate;Methyl α-hydroxydiphenylacetate;NSC 57672;NSC 624;2-Hydroxy-2,2-diphenylacetic acid methyl ester",
    "duplicated_cas_no": "",
    "SMILES": "C(C(OC)=O)(O)(C1=CC=CC=C1)C2=CC=CC=C2",
    "meta_data": {
        "InChI": "InChI=1S/C15H14O3/c1-18-14(16)15(17,12-8-4-2-5-9-12)13-10-6-3-7-11-13/h2-11,17H,1H3",
        "InChIKey": null,
        "Canonical SMILES": "O=C(OC)C(O)(C=1C=CC=CC1)C=2C=CC=CC2",
        "Molecular Formula": "C<sub>15</sub>H<sub>14</sub>O<sub>3</sub>",
        "Molecular Mass": "242.27",
        "Boiling Point": "187 °C @ Press: 13 Torr",
        "Melting Point": "75.8 °C"
    }
}