{
    "cas_no": "53250-83-2",
    "key_name": "2-Chloro-4-(methylsulfonyl)benzoic acid",
    "cn_name": "2-氯-4-甲砜基苯甲酸;2-氯-4-磺酰甲基苯甲酸;",
    "alternate_name": "Benzoic acid, 2-chloro-4-(methylsulfonyl)-;2-Chloro-4-(methylsulfonyl)benzoic acid",
    "duplicated_cas_no": "",
    "SMILES": "S(C)(=O)(=O)C1=CC(Cl)=C(C(O)=O)C=C1",
    "meta_data": {
        "InChI": "InChI=1S/C8H7ClO4S/c1-14(12,13)5-2-3-6(8(10)11)7(9)4-5/h2-4H,1H3,(H,10,11)",
        "InChIKey": null,
        "Canonical SMILES": "O=C(O)C1=CC=C(C=C1Cl)S(=O)(=O)C",
        "Molecular Formula": "C<sub>8</sub>H<sub>7</sub>ClO<sub>4</sub>S",
        "Molecular Mass": "234.66",
        "Melting Point": "193-195 °C"
    }
}