{
    "cas_no": "603-71-4",
    "key_name": "Nitromesitylene",
    "cn_name": "2-硝基均三甲苯;",
    "alternate_name": "Benzene, 1,3,5-trimethyl-2-nitro-;Mesitylene, 2-nitro-;1,3,5-Trimethyl-2-nitrobenzene;Nitromesitylene;2,4,6-Trimethyl-1-nitrobenzene;2-Nitromesitylene;2,4,6-Trimethylnitrobenzene;Mononitromesitylene;2-Nitro-1,3,5-trimethylbenzene;1-Nitro-2,4,6-trimethylbenzene;3,5-Dimethyl-4-nitrotoluene;NSC 5413",
    "duplicated_cas_no": "",
    "SMILES": "N(=O)(=O)C1=C(C)C=C(C)C=C1C",
    "meta_data": {
        "InChI": "InChI=1S/C9H11NO2/c1-6-4-7(2)9(10(11)12)8(3)5-6/h4-5H,1-3H3",
        "InChIKey": null,
        "Canonical SMILES": "O=N(=O)C=1C(=CC(=CC1C)C)C",
        "Molecular Formula": "C<sub>9</sub>H<sub>11</sub>NO<sub>2</sub>",
        "Molecular Mass": "165.19",
        "Boiling Point": "255 °C",
        "Melting Point": "44 °C",
        "Density": "1.176 g/cm³"
    }
}