{
    "cas_no": "710-14-5",
    "key_name": "Tetrahydro-2-[(tetrahydro-2-furanyl)methoxy]-2<em>H</em>-pyran",
    "cn_name": "2(3)-(四氢糠基氧)四氢吡喃;",
    "alternate_name": "2<em>H</em>-Pyran, tetrahydro-2-[(tetrahydro-2-furanyl)methoxy]-;2<em>H</em>-Pyran, tetrahydro-2-[(tetrahydrofurfuryl)oxy]-;Pyran, tetrahydro-2-[(tetrahydrofurfuryl)oxy]-;Tetrahydro-2-[(tetrahydro-2-furanyl)methoxy]-2<em>H</em>-pyran;2-(Tetrahydrofurfuryloxy)tetrahydropyran;2-Tetrahydrofurylmethyl THP ether;Tetrahydrofurfuryl tetrahydropyranyl ether;NSC 65618;3,4,5,6-Tetrahydro-2-(tetrahydrofurfuryloxy)-2<em>H</em>-pyran;2-[(Oxolan-2-yl)methoxy]oxane",
    "duplicated_cas_no": "",
    "SMILES": "O(CC1CCCO1)C2CCCCO2",
    "meta_data": {
        "InChI": "InChI=1S/C10H18O3/c1-2-6-12-10(5-1)13-8-9-4-3-7-11-9/h9-10H,1-8H2",
        "InChIKey": null,
        "Canonical SMILES": "O1CCCCC1OCC2OCCC2",
        "Molecular Formula": "C<sub>10</sub>H<sub>18</sub>O<sub>3</sub>",
        "Molecular Mass": "186.25",
        "Boiling Point": "97 °C @ Press: 6 Torr",
        "Density": "1.058 g/cm³ @ Temp: 11 °C"
    }
}