{
    "cas_no": "19472-74-3",
    "key_name": "(2-Bromophenyl)acetonitrile",
    "cn_name": "邻溴氰苄;邻溴苯乙腈;",
    "alternate_name": "Benzeneacetonitrile, 2-bromo-;Acetonitrile, (<em>o</em>-bromophenyl)-;2-Bromobenzeneacetonitrile;(<em>o</em>-Bromophenyl)acetonitrile;(2-Bromophenyl)acetonitrile;<em>o</em>-Bromobenzyl cyanide;2-Bromobenzyl cyanide;1-Bromo-2-cyanomethylbenzene;NSC 338412;2-Cyanomethylbromobenzene;2-(<em>o</em>-Bromophenyl)acetonitrile;2-(2-Bromophenyl)acetonitrile",
    "duplicated_cas_no": "",
    "SMILES": "C(C#N)C1=C(Br)C=CC=C1",
    "meta_data": {
        "InChI": "InChI=1S/C8H6BrN/c9-8-4-2-1-3-7(8)5-6-10/h1-4H,5H2",
        "InChIKey": null,
        "Canonical SMILES": "N#CCC=1C=CC=CC1Br",
        "Molecular Formula": "C<sub>8</sub>H<sub>6</sub>BrN",
        "Molecular Mass": "196.04",
        "Boiling Point": "145-147 °C @ Press: 13 Torr",
        "Melting Point": "1 °C"
    }
}