{
    "cas_no": "2491-15-8",
    "key_name": "Formylglycine",
    "cn_name": null,
    "alternate_name": "Glycine, <em>N</em>-formyl-;<em>N</em>-Formylglycine;Formylglycine;(Formylamino)acetic acid;NSC 15826;2-Formamidoacetic acid;2-[(Hydroxymethylidene)amino]acetic acid",
    "duplicated_cas_no": "2105932-32-7",
    "SMILES": "C(C(O)=O)NC=O",
    "meta_data": {
        "InChI": "InChI=1S/C3H5NO3/c5-2-4-1-3(6)7/h2H,1H2,(H,4,5)(H,6,7)",
        "InChIKey": null,
        "Canonical SMILES": "O=CNCC(=O)O",
        "Molecular Formula": "C<sub>3</sub>H<sub>5</sub>NO<sub>3</sub>",
        "Molecular Mass": "103.08",
        "Boiling Point": "94 °C @ Press: 10 Torr",
        "Melting Point": "91 °C"
    }
}