{
    "cas_no": "552-82-9",
    "key_name": "<em>N</em>-Methyl-<em>N</em>-phenylbenzenamine",
    "cn_name": "N-甲基二苯胺;",
    "alternate_name": "Benzenamine, <em>N</em>-methyl-<em>N</em>-phenyl-;Diphenylamine, <em>N</em>-methyl-;<em>N</em>-Methyl-<em>N</em>-phenylbenzenamine;Diphenylmethylamine;Methyldiphenylamine;<em>N</em>,<em>N</em>-Diphenylmethylamine;<em>N</em>-Methyldiphenylamine;<em>N</em>-Methyl-<em>N</em>-phenylaniline;Diphenylaminomethane;NSC 3790;<em>N</em>-Methyl-<em>N</em>,<em>N</em>-diphenylamine",
    "duplicated_cas_no": "171745-65-6",
    "SMILES": "N(C)(C1=CC=CC=C1)C2=CC=CC=C2",
    "meta_data": {
        "InChI": "InChI=1S/C13H13N/c1-14(12-8-4-2-5-9-12)13-10-6-3-7-11-13/h2-11H,1H3",
        "InChIKey": null,
        "Canonical SMILES": "C=1C=CC(=CC1)N(C=2C=CC=CC2)C",
        "Molecular Formula": "C<sub>13</sub>H<sub>13</sub>N",
        "Molecular Mass": "183.25",
        "Boiling Point": "293.5 °C",
        "Melting Point": "-7.5 °C",
        "Density": "1.056 g/cm³ @ Temp: 15 °C"
    }
}