{
    "cas_no": "51529-97-6",
    "key_name": "5,6,7,8-Tetrahydro-2-naphthaldehyde",
    "cn_name": null,
    "alternate_name": "2-Naphthalenecarboxaldehyde, 5,6,7,8-tetrahydro-;2-Naphthaldehyde, 5,6,7,8-tetrahydro-;5,6,7,8-Tetrahydro-2-naphthalenecarboxaldehyde;5,6,7,8-Tetrahydro-2-naphthaldehyde;3,4-Tetramethylenebenzaldehyde;1,2,3,4-Tetrahydro-6-naphthaldehyde;5,6,7,8-Tetrahydronaphthalene-2-carboxaldehyde",
    "duplicated_cas_no": "",
    "SMILES": "C(=O)C=1C=C2C(=CC1)CCCC2",
    "meta_data": {
        "InChI": "InChI=1S/C11H12O/c12-8-9-5-6-10-3-1-2-4-11(10)7-9/h5-8H,1-4H2",
        "InChIKey": null,
        "Canonical SMILES": "O=CC1=CC=C2C(=C1)CCCC2",
        "Molecular Formula": "C<sub>11</sub>H<sub>12</sub>O",
        "Molecular Mass": "160.21",
        "Boiling Point": "117-120 °C @ Press: 4 Torr"
    }
}