{
    "cas_no": "40663-68-1",
    "key_name": "4-(Allyloxy)benzaldehyde",
    "cn_name": "4-烯丙氧基苯甲醛;",
    "alternate_name": "Benzaldehyde, 4-(2-propen-1-yloxy)-;Benzaldehyde, 4-(2-propenyloxy)-;Benzaldehyde, <em>p</em>-(allyloxy)-;4-(2-Propen-1-yloxy)benzaldehyde;<em>p</em>-(Allyloxy)benzaldehyde;4-(Allyloxy)benzaldehyde;4-(2-Propenyloxy)benzaldehyde;Allyl 4-formylphenyl ether;NSC 44013;Allyl <em>p</em>-formylphenyl ether;4-(Prop-2-enoxy)benzaldehyde",
    "duplicated_cas_no": "",
    "SMILES": "O(CC=C)C1=CC=C(C=O)C=C1",
    "meta_data": {
        "InChI": "InChI=1S/C10H10O2/c1-2-7-12-10-5-3-9(8-11)4-6-10/h2-6,8H,1,7H2",
        "InChIKey": null,
        "Canonical SMILES": "O=CC1=CC=C(OCC=C)C=C1",
        "Molecular Formula": "C<sub>10</sub>H<sub>10</sub>O<sub>2</sub>",
        "Molecular Mass": "162.19",
        "Boiling Point": "142 °C @ Press: 10 Torr",
        "Melting Point": "179 °C"
    }
}