{
    "cas_no": "59-14-3",
    "key_name": "5-Bromo-2′-deoxyuridine",
    "cn_name": "溴脲苷;5-溴-2\"-脱氧尿苷;",
    "alternate_name": "Uridine, 5-bromo-2′-deoxy-;5-Bromo-2′-deoxyuridine;5-BDU;BDU;Bromodeoxyuridine;5-Bromodeoxyuridine;5-Bromouracil deoxyriboside;BUdR;5-Bromodesoxyuridine;Broxuridine;NSC 38297;BrdUrd;5-Bromo-2′-desoxyuridine;2′-Deoxy-5-bromouridine;BRUDR;5-Bromouracil-2-deoxyriboside;(+)-5-Bromo-1-[(2<em>R</em>,4<em>S</em>,5<em>R</em>)-4-hydroxy-5-(hydroxymethyl)oxolan-2-yl]pyrimidine-2,4-dione;BrdU;5-Bromouracil-2′-deoxyriboside;MeSH ID: D001973",
    "duplicated_cas_no": "723-73-9;3445-26-9;1236362-78-9",
    "SMILES": "O=C1N([C@@H]2O[C@H](CO)[C@@H](O)C2)C=C(Br)C(=O)N1",
    "meta_data": {
        "InChI": "InChI=1S/C9H11BrN2O5/c10-4-2-12(9(16)11-8(4)15)7-1-5(14)6(3-13)17-7/h2,5-7,13-14H,1,3H2,(H,11,15,16)/t5-,6+,7+/m0/s1",
        "InChIKey": null,
        "Canonical SMILES": "O=C1NC(=O)N(C=C1Br)C2OC(CO)C(O)C2",
        "Molecular Formula": "C<sub>9</sub>H<sub>11</sub>BrN<sub>2</sub>O<sub>5</sub>",
        "Molecular Mass": "307.10",
        "Melting Point": "192.5 °C"
    }
}