{
    "cas_no": "5413-85-4",
    "key_name": "5-Amino-4,6-dichloropyrimidine",
    "cn_name": "4,6-二氯-5-氨基嘧啶;",
    "alternate_name": "5-Pyrimidinamine, 4,6-dichloro-;Pyrimidine, 5-amino-4,6-dichloro-;4,6-Dichloro-5-pyrimidinamine;5-Amino-4,6-dichloropyrimidine;4,6-Dichloro-5-aminopyrimidine;4,6-Dichloropyrimidin-5-ylamine;NSC 7851",
    "duplicated_cas_no": "",
    "SMILES": "NC=1C(Cl)=NC=NC1Cl",
    "meta_data": {
        "InChI": "InChI=1S/C4H3Cl2N3/c5-3-2(7)4(6)9-1-8-3/h1H,7H2",
        "InChIKey": null,
        "Canonical SMILES": "ClC1=NC=NC(Cl)=C1N",
        "Molecular Formula": "C<sub>4</sub>H<sub>3</sub>Cl<sub>2</sub>N<sub>3</sub>",
        "Molecular Mass": "163.99",
        "Melting Point": "145 °C"
    }
}