{
    "cas_no": "528-48-3",
    "key_name": "Fisetin",
    "cn_name": "3,3\",4\",7-四羟基黄酮;",
    "alternate_name": "4<em>H</em>-1-Benzopyran-4-one, 2-(3,4-dihydroxyphenyl)-3,7-dihydroxy-;Fisetin;Flavone, 3,3′,4′,7-tetrahydroxy-;2-(3,4-Dihydroxyphenyl)-3,7-dihydroxy-4<em>H</em>-1-benzopyran-4-one;C.I. 75620;Bois Bleu de Honqrie;C.I. Natural Brown 1;Cotinin;5-Desoxyquercetin;Fietin;Fisetholz;Fustel;Fustet;Junger Fustik;Superfustel;Superfustel K;3,3′,4′,7-Tetrahydroxyflavone;Ungarisches Gelbholz;Ventin Sumach;Viset;Young Fustic;Young Fustic Crystals;Zante Fustic;Fiestin;NSC 407010;NSC 656275;2-(3,4-Dihydroxyphenyl)-3,7-dihydroxy-4<em>H</em>-benzopyran-4-one;Fisitin;LDN 0058389;2-(3,4-Dihydroxyphenyl)-3,7-dihydroxychromen-4-one",
    "duplicated_cas_no": "",
    "SMILES": "OC1=C(OC=2C(C1=O)=CC=C(O)C2)C3=CC(O)=C(O)C=C3",
    "meta_data": {
        "InChI": "InChI=1S/C15H10O6/c16-8-2-3-9-12(6-8)21-15(14(20)13(9)19)7-1-4-10(17)11(18)5-7/h1-6,16-18,20H",
        "InChIKey": null,
        "Canonical SMILES": "O=C1C(O)=C(OC2=CC(O)=CC=C12)C=3C=CC(O)=C(O)C3",
        "Molecular Formula": "C<sub>15</sub>H<sub>10</sub>O<sub>6</sub>",
        "Molecular Mass": "286.24",
        "Melting Point": "330 °C"
    }
}