{
    "cas_no": "16078-30-1",
    "key_name": "1-Acetylindoline",
    "cn_name": "1-乙酰二氢吲哚;N-已酰基吲哚啉;1-乙酰基吲哚啉;",
    "alternate_name": "Ethanone, 1-(2,3-dihydro-1<em>H</em>-indol-1-yl)-;Indoline, 1-acetyl-;1<em>H</em>-Indole, 1-acetyl-2,3-dihydro-;1-(2,3-Dihydro-1<em>H</em>-indol-1-yl)ethanone;1-Acetylindoline;<em>N</em>-Acetylindoline;1-Acetyl-2,3-dihydro-1<em>H</em>-indole;1-(2,3-Dihydroindol-1-yl)ethanone;1-(Indolin-1-yl)ethanone;1-(Indolin-1-yl)ethan-1-one;1-(2,3-Dihydro-1<em>H</em>-indol-1-yl)ethan-1-one",
    "duplicated_cas_no": "",
    "SMILES": "C(C)(=O)N1C=2C(CC1)=CC=CC2",
    "meta_data": {
        "InChI": "InChI=1S/C10H11NO/c1-8(12)11-7-6-9-4-2-3-5-10(9)11/h2-5H,6-7H2,1H3",
        "InChIKey": null,
        "Canonical SMILES": "O=C(N1C=2C=CC=CC2CC1)C",
        "Molecular Formula": "C<sub>10</sub>H<sub>11</sub>NO",
        "Molecular Mass": "161.20",
        "Boiling Point": "125-130 °C @ Press: 1 Torr",
        "Melting Point": "102-103 °C"
    }
}