{
    "cas_no": "66898-62-2",
    "key_name": "Talniflumate",
    "cn_name": "他尼氟酯;2-[(3-三氟甲基)苯基]氨基-3-吡啶羧酸苯酞酯;",
    "alternate_name": "3-Pyridinecarboxylic acid, 2-[[3-(trifluoromethyl)phenyl]amino]-, 1,3-dihydro-3-oxo-1-isobenzofuranyl ester;Talniflumate;Somalgen;BA 7602-06;(3-Oxo-1<em>H</em>-2-benzofuran-1-yl) 2-[3-(trifluoromethyl)anilino]pyridine-3-carboxylate;SML 1710;2-(3-Trifluoromethyl-phenylamino)-nicotinic acid 3-oxo-1,3-dihydro-isobenzofuran-1-yl ester",
    "duplicated_cas_no": "",
    "SMILES": "O(C(=O)C1=C(NC2=CC(C(F)(F)F)=CC=C2)N=CC=C1)C3C=4C(C(=O)O3)=CC=CC4",
    "meta_data": {
        "InChI": "InChI=1S/C21H13F3N2O4/c22-21(23,24)12-5-3-6-13(11-12)26-17-16(9-4-10-25-17)19(28)30-20-15-8-2-1-7-14(15)18(27)29-20/h1-11,20H,(H,25,26)",
        "InChIKey": null,
        "Canonical SMILES": "O=C(OC1OC(=O)C=2C=CC=CC21)C3=CC=CN=C3NC4=CC=CC(=C4)C(F)(F)F",
        "Molecular Formula": "C<sub>21</sub>H<sub>13</sub>F<sub>3</sub>N<sub>2</sub>O<sub>4</sub>",
        "Molecular Mass": "414.33",
        "Melting Point": "165-166 °C"
    }
}