{
    "cas_no": "56-54-2",
    "key_name": "Quinidine",
    "cn_name": "奎尼丁;(+)-喹纳定;",
    "alternate_name": "Cinchonan-9-ol, 6′-methoxy-, (9<em>S</em>)-;Quinidine;(9<em>S</em>)-6′-Methoxycinchonan-9-ol;Conquinine;Pitayine;β-Quinine;(+)-Quinidine;Conchinin;Chinidin;(8<em>R</em>,9<em>S</em>)-Quinidine;Pitayin;Cin-quin;Kinidin;Conchinine;β-Quinidine;Quindine;MeSH ID: D011802;Quin-G;Quin Release Quin-G",
    "duplicated_cas_no": "11010-73-4;500225-45-6;845886-64-8;882741-47-1;883881-01-4;898814-00-1;910899-51-3;1528764-92-2;2393956-08-4",
    "SMILES": "[C@H](O)(C=1C2=C(C=CC(OC)=C2)N=CC1)[C@@]3([N@@]4C[C@H](C=C)[C@](C3)(CC4)[H])[H]",
    "meta_data": {
        "InChI": "InChI=1S/C20H24N2O2/c1-3-13-12-22-9-7-14(13)10-19(22)20(23)16-6-8-21-18-5-4-15(24-2)11-17(16)18/h3-6,8,11,13-14,19-20,23H,1,7,9-10,12H2,2H3/t13-,14-,19+,20-/m0/s1",
        "InChIKey": null,
        "Canonical SMILES": "OC(C=1C=CN=C2C=CC(OC)=CC21)C3N4CCC(C3)C(C=C)C4",
        "Molecular Formula": "C<sub>20</sub>H<sub>24</sub>N<sub>2</sub>O<sub>2</sub>",
        "Molecular Mass": "324.42",
        "Melting Point": "174 °C"
    }
}