{
    "cas_no": "1639-09-4",
    "key_name": "1-Heptanethiol",
    "cn_name": "1-庚硫醇;",
    "alternate_name": "1-Heptanethiol;Heptyl mercaptan;<em>n</em>-Heptyl mercaptan;Heptylthiol;1-Mercaptoheptane;<em>n</em>-Heptanethiol;<em>n</em>-Heptylthiol;1-Heptylthiol;NSC 71119",
    "duplicated_cas_no": "",
    "SMILES": "C(CCCS)CCC",
    "meta_data": {
        "InChI": "InChI=1S/C7H16S/c1-2-3-4-5-6-7-8/h8H,2-7H2,1H3",
        "InChIKey": null,
        "Canonical SMILES": "SCCCCCCC",
        "Molecular Formula": "C<sub>7</sub>H<sub>16</sub>S",
        "Molecular Mass": "132.27",
        "Boiling Point": "177 °C",
        "Melting Point": "-43 °C",
        "Density": "0.8399 g/cm³ @ Temp: 25 °C"
    }
}