{
    "cas_no": "81-48-1",
    "key_name": "Solvent Violet 13",
    "cn_name": "溶剂紫13;1-羟基-4-(对甲苯胺基)-蒽醌;分散蓝72;溶剂蓝90;",
    "alternate_name": "9,10-Anthracenedione, 1-hydroxy-4-[(4-methylphenyl)amino]-;Anthraquinone, 1-hydroxy-4-<em>p</em>-toluidino-;1-Hydroxy-4-[(4-methylphenyl)amino]-9,10-anthracenedione;C.I. 60725;Ahcoquinone Blue IR Base;Alizarine Irisol R Base;Alizarine Violet 3B Base;<em>N</em>-(4-Hydroxy-1-anthraquinonyl)-4-methylaniline;Irisol base;Oil Violet IRS;Oil Violet ZIRS;11092 Violet;Waxoline Purple A;Alizurol Purple;C.I. Solvent Violet 13;D and C Violet No. 2;1-Hydroxy-4-(<em>p</em>-toluidino)anthraquinone;1-Hydroxy-4-(4-methylanilino)anthraquinone;Solvent Violet 13;1-Hydroxy-4-<em>p</em>-toluidino-9,10-anthraquinone;C.I. Disperse Blue 72;Duranol Brilliant Violet TG;Sumikaron Violet B;Resolin Blue RRL;Resiren Blue TR;Dispersol Violet B-G;Transetile Violet P 3B;Sumikaron Violet 3BL;Alizarine Violet 3B;1-<em>p</em>-Toluidino-4-hydroxyanthraquinone;Orient Oil Violet 730;Alizarin violet 3B;Macrolex Violet B;1-Hydroxy-4-(<em>p</em>-tolylamino)-9,10-anthraquinone;C.I. Solvent Blue 90;Diaresin Blue G;Lurafix Blue 590;Disperse Blue 72;Solvent Blue 90;Teraprint Blue 6R;Solvaperm Blue B;Calco Oil Violet ZIRS;Pyla-Cert D and C Violet 2;Alizurol Purple SS;Japan Violet 201;Violet No. 201;Japan Violet No. 201;Japan Purple 201;1-Hydroxy-4-[(4-methylphenyl)-9,10-anthracenedione;Thermoplast Blue 684;Kayaset Blue A 2R;Sumiplast Violet B;D&amp;C Violet No. 2;Sandoplast Violet RSB;Oplas Violet 730;D&amp;C Violet 2;NSC 2856;Violet 2;Plast Violet 8840;Quinizarin Blue;Alizarine Purple Lake SS;Purple No. 201;KP Plast Violet 2R;Macrolex Violet 2R;Macrolex Violet B GR;FS Violet 1805;1-Hydroxy-4-[(4-methylphenyl)amino]-9,10-dihydroanthracene-9,10-dione;B 72;1-Hydroxy-4-[(4-methylphenyl)amino]-9,10-anthraquinone;1-Hydroxy-4-(4-methylanilino)anthracene-9,10-dione;1-Hydroxy-4-(<em>p</em>-tolylamino)anthracene-9,10-dione;Keyplast Oil Violet IRS;Keyplast Violet IRS;Oracet Violet 580;Q 0022;Macrolex Violet B Gran;Fluorescent Violet B;Plast Blue D 34",
    "duplicated_cas_no": "1342-19-4;12217-81-1;50922-59-3;54328-11-9;59459-27-7;64925-48-0;70956-28-4;74665-60-4;143928-77-2;666832-51-5",
    "SMILES": "N(C1=C2C(C(=O)C=3C(C2=O)=CC=CC3)=C(O)C=C1)C4=CC=C(C)C=C4",
    "meta_data": {
        "InChI": "InChI=1S/C21H15NO3/c1-12-6-8-13(9-7-12)22-16-10-11-17(23)19-18(16)20(24)14-4-2-3-5-15(14)21(19)25/h2-11,22-23H,1H3",
        "InChIKey": null,
        "Canonical SMILES": "O=C1C=2C=CC=CC2C(=O)C=3C(=CC=C(O)C13)NC4=CC=C(C=C4)C",
        "Molecular Formula": "C<sub>21</sub>H<sub>15</sub>NO<sub>3</sub>",
        "Molecular Mass": "329.35",
        "Melting Point": "186.1 °C"
    }
}