{
    "cas_no": "1159-54-2",
    "key_name": "Tris(4-chlorophenyl)phosphine",
    "cn_name": "三(4-氯苯基)膦;",
    "alternate_name": "Phosphine, tris(4-chlorophenyl)-;Phosphine, tris(<em>p</em>-chlorophenyl)-;Tris(4-chlorophenyl)phosphine;Tris(<em>p</em>-chlorophenyl)phosphine;Tri(<em>p</em>-chlorophenyl)phosphine;Tri(4-chlorophenyl)phosphine;NSC 136459",
    "duplicated_cas_no": "",
    "SMILES": "P(C1=CC=C(Cl)C=C1)(C2=CC=C(Cl)C=C2)C3=CC=C(Cl)C=C3",
    "meta_data": {
        "InChI": "InChI=1S/C18H12Cl3P/c19-13-1-7-16(8-2-13)22(17-9-3-14(20)4-10-17)18-11-5-15(21)6-12-18/h1-12H",
        "InChIKey": null,
        "Canonical SMILES": "ClC1=CC=C(C=C1)P(C2=CC=C(Cl)C=C2)C3=CC=C(Cl)C=C3",
        "Molecular Formula": "C<sub>18</sub>H<sub>12</sub>Cl<sub>3</sub>P",
        "Molecular Mass": "365.62",
        "Melting Point": "103 °C"
    }
}