{
    "cas_no": "335-65-9",
    "key_name": "1,1,1,2,2,3,3,4,4,5,5,6,6,7,7,8,8-Heptadecafluorooctane",
    "cn_name": "1H-全氟辛烷;1H-全氟辛烷;",
    "alternate_name": "Octane, 1,1,1,2,2,3,3,4,4,5,5,6,6,7,7,8,8-heptadecafluoro-;1,1,1,2,2,3,3,4,4,5,5,6,6,7,7,8,8-Heptadecafluorooctane;1<em>H</em>-Perfluorooctane;1-Hydroperfluorooctane",
    "duplicated_cas_no": "",
    "SMILES": "C(C(C(C(C(F)F)(F)F)(F)F)(F)F)(C(C(C(F)(F)F)(F)F)(F)F)(F)F",
    "meta_data": {
        "InChI": "InChI=1S/C8HF17/c9-1(10)2(11,12)3(13,14)4(15,16)5(17,18)6(19,20)7(21,22)8(23,24)25/h1H",
        "InChIKey": null,
        "Canonical SMILES": "FC(F)C(F)(F)C(F)(F)C(F)(F)C(F)(F)C(F)(F)C(F)(F)C(F)(F)F",
        "Molecular Formula": "C<sub>8</sub>HF<sub>17</sub>",
        "Molecular Mass": "420.07",
        "Boiling Point": "118-119 °C",
        "Density": "1.760 g/cm³ @ Temp: 25 °C"
    }
}