{
    "cas_no": "9005-38-3",
    "key_name": "Sodium alginate",
    "cn_name": null,
    "alternate_name": "Alginic acid, sodium salt;Cohasal IH;Kelcosol;Kelgin;Kelgin F;Kelgin LV;Kelgin XL;Kelsize;Lamitex;Manucol;Manutex SA/KP;Minus;Proctin;Protatek;Stipine;Tagat;Sodium alginate;Halltex;Keltex;OG 1;Meypralgin R/LV;Kelset;Snow Algin L;Algin;Manugel F 331;Antimigrant C 45;Manutex F;Manucol SS/LD 2;Amnucol;Darid QH;Kelgin HV;Keltone;Nouralgine;Protacell 8;Cecalgine TBV;Manutex RS;Algipon L 1168;Pectalgine;Tragaya;Algin (polysaccharide);Manutex RS 5;Manutex RS 1;Dariloid QH;Kelco Gel LV;Snow Algin M;Snow Algin H;Manutex SH/LH;Manucol DM;Mosanon;Manucol KMF;Alginate KMF;Manutex FX;Polyalginic acid sodium salt;Manutex RF Extra;Manutex RK Extra;Kelco Gel HV;Kelgin RL;Manucol DF;Manutex RS 92;Snow Algin SSL;Duck Algin NSPL;Manutex RSB;Sodium polyalginate;Lamitex H 845;Manutex RSX;Manutex A 2C515;CHT Alginate MV;CHT Alginate EHV;Dialgin HV;Duck Algin NSPM;Manutex RS 21;Manucol LB;Manutex P 1050;Duck Algin NSPLL;Cecalginate HV/KL 600;Manutex RS 30;EHV;THV 3000;Manugel LH;Seacor;Satialgine SLMA;Manutex RB;Snow Algin SL;Snow Algin CP 300;Lamitex L 10;Protanal LF 10/60;Algogel MVR;Snow Algin SH;Alloid G;NSPLL;Manucol DH;NOA 2158;Sobalg FD;Kelgin QH;Sobalg FD 155;Protanal SF 120;Pronova;Manugel DMB;Keltone LV;A 7C618;Manugel GHB;Sobalg FD 120;Snow Algin TL;Kelgin QM;Kimitsu Algin M 1;Manucol DMF;Protanal SF 200;Duck Algin NSPH;Algin ML;Texamid 778;Satialgine S 1100;Algogel LV;Algogel MV;Algogel HV;Sobalg FD 175;1-3F;WOT-Al Floc;Kimitsu Algin FB-L;Kelgin MV;Keltone HV;Printex R 10;Manutex F 700;Manutex RS 210;Kimitsu Algin L 6;Algitex LL;Manugel GMD;Manucol DMG;Manugel GND;Manugel DM;MV;MV (dye auxiliary);Sobalg PH 125;Manucol RH;Satialgine S 1600;Scotex XL;Duck Algin;Alginate FD 155;Algitex M;Sorugin;Protanal LFR 5/60;Kelp Algin L;Kimitsu Algin 1-3G;Satialgine S 20;Satialgine SG 300;Sobalg FD 156;Manugel A 7B618;Duck Algin EX 30;ULV-L 1G;Kimitsu Algin;ULV-L 5;Nikka Gum AL;Protanol LF;Duck Algin S;Lamitex H;Kimitsu Algin BL 2;Kimitsu Algin ULV-L 3;Kimitsu Algin B 1K2;Kimitsu Algin ULV 20;Alginate TBVV/N 2;Cecalginate HV 600;Protanal LF 20/60;Flavicam;VAN Ascophyllum;Ascophyllum;Keltone HVCR;Super Print;V Algix;Algitex F 5LL;Kelvis;Solgin;Kimica SI-L;Kimica I 1;Kimica I 7;Kimica I 1G;Kimica I 1M;Manugel LBA;Sun Algin MVR;Duck Algin 150M;Duck Algin 150G;Duck Algin 150;Kimitsu Algin I-S;Kimitsu Algin I 1;Protanal;Alloid;Alman;Alto;Duck Algin SL 20;Protanal LF 200;Algin gum;E 401;Protanal LF 120;Kelco LVCR;Algitex L;Algitex H;Kelp Algin SL;Grindsted PH 157;Grindsted PH 155;Grindsted PH 150;Manucol LD;Grindsted PH 170;Grindsted PH 175;Protanal LF 20/40;Kimitsu Algin UVL;Protanal LF 120L;Protanal LF 10L;Protanal H 120L;Manutex RM;Protanal GP 9356;Alginate FD 175;Satialgine SG 150;Satialgine SG 500;Satialgine S 170;Satialgine S 500;Alginate FD 170;Protanal LF 200S;Protanal TA 250;I 5;Algogel MVP;Algogel 3031;Algogel SG 150;1-3F (polysaccharide);GMB;GMB (alginate);Protanal LF 20;Manugel DJX;Kelp Algin ML;Kimitex;LF 10/60;Dialgin LV 100;EcoAlgin MS;LF 10/60LS;Duck Algin NSPH 2;Kimica Algin I 1;Manutex RS 230;Protanal LHS 1;Alginate LBA;Alginate DPB;Alginate KTHV;Cecalgum S 1300;Kimica Algin I 2G;Kimitsu Algin B 3;Kimica Algin I 1G;Kimica Algin I 5;Kimica Algin IL 2G;Kimica Algin IL 6;Kimica Algin ULV-L 3;Kimica Algin I;Kimica Algin I 3;Manucol LF;Algitex I 3G;Texamid 558P;Prime alginate F 200;Protanal RF 6650;Scogin LV;Kimitex α 105;Kimika Algin I 3;SKAT-ULV;Newtex F-M;Satialgine US 20;XPU-LVG 500 506/08;Kimika Algin I 1;FD Algin BL;Algogel 6021;Pronova UP-MVG;Pronova SLG 100;Pronova SLG 20;Pronova UP-LVG;Texamid 558;Protonal LF 10/60L;Sea Matrix;ULV 1;Kelgin LB;Alginat NV 10;Manucol LHF;Manucol LDP;Grindsted PHU 156;Protanal LF 120M;Protanal LF 240D;Protanal LF 200M;Protanal HF 120RBS;Protanal LF;Protanal LF 10/60LS;Keltone LVCR;Duck Algin FF-SL 10;Algitex C-LL;Grindsted Alginate FD 120;ULV-L 3G;A 2158;RENO 7029;RENO 7030;RENO 7035;RENO 7036;Sun Algin;Manugel DH;Duckalgin NSPHH;Protonal LF 120M;Protanal SF 120L;EX 22;Kimika Algin ULV 5;Kimika Algin IL 2;Kimica Algin IL;Kemica Algin IL 1;Kimika Algin IL 1;Kelcosol NF;Pronova UP VLVG;Kimika Algin I 8;Algogel DPG JO;Satialgine DPT JO;Algogel 3001;Manucol HV;Manucol GMB;Kimitsu Algin I 2G;Kimitsu Algin I 5G;Protanal PC 6850;Puretex M 330;Inagel GS 70;Kimica Algin IL 6G;Alroid-G;Protanal GP 1740;Protanal GP 5450;Manugel GP 5450;SKAT-UVL;Kimika Algin ULV 10;Kimika Algin UVL 20;Kimika Algin High·G IL 1;Algogel 6020;Grindsted FD 175;ULV-L 3;LVG;IL 2 (polysaccharide);Kimica Algin;Nalgin MV 120;Satialgine S 550;Instanute DR;SG 300;Algogel 3021;San Support P 82;San Support P 70;San Support P 71;San Support P 72;San Support P 81;Kimika Algin I 3G;Grindsted Alginate FD 170;ProNova MVG;Protanal LF 10/60FT;Kimika Algin I 1G;Protect Clear SA;Kimika Algin I 3K;Kimika Algin IL 6G;San Support P 80;San Support P 73;San Support P 83;Inagel GS 30;Inagel GS 20;Inagel GS 50;Protanal ME 4049;Kimica Algin IL 6M;Kimica Algin ULV 5;Kimica Algin ULV 3;Kimica Algin ULV 1;Kimica Algin B 1;Inagel GP 230;AL 20;AL 100;AL 500;ADS Oligonol;Protanal CR8133;Protanal CR8223;Kimica Algin I 2M;IL 2 (alginate);Kimica Algin 18;Duckalgin NSPMR;Satialgine S 60NS;Scogin MV;LFD 1205;Cecalgum MLG-N 7;Manucol LKX;Kimica Algin I 3K;Inagel GS 80;Kimica GMB;Kimica I 3G;Kimica Algin GMB;FD 125;Alginate Deluxe;Algogel 3541;SLG 20;SLG 100;Algogel 5540;S 100126;Sunalgin 200/80;Protanal LF 200FTS;Manugel GMB;San Support P 181;Grindsted Alginate FD 175;Pronova UP VLVM;Kimika Algin;Kimika Algin I-S;Protanal PH 6160;Kimica Algin I-S;Kimica Algin I 8;Duck Algin NSPLLR;M 16;M 16 (alginate);GOS-LYI;Kimica Algin ULV-L 3G;HF 120RBS;Protanal LF 120LS;PRONOVA SLM100;HF 420RBS;PH 176;W 201502;Algecolloid;Protanal 200S;I 1G;A 2033;HG 80;Scogin LDH Alginate;I 3G;A 9640;IL 6G;S 100128;Vivastar CS 002;Algogel 7041;S 817372;Algogel RCG 6301;Pronova VLVG;Vivapur 120;Vivapur 150;Vivapur FD 127;Manukol LKX;Vivapur FD 150;Kimica Algin B 8;Pronova UP-LG 20;Pronova UPLG 20;San Support P 208;Vivastar CS 052;High-G ALG 300",
    "duplicated_cas_no": "9005-40-7;12772-46-2;32129-82-1;32197-42-5;50643-02-2;56940-21-7;56940-22-8;63278-91-1;75635-14-2;77030-65-0;81989-21-1;107666-56-8;496956-52-6;1262215-37-1",
    "SMILES": "",
    "meta_data": {
        "InChI": "",
        "InChIKey": null,
        "Canonical SMILES": "",
        "Molecular Formula": "Unspecified",
        "Molecular Mass": "",
        "Melting Point": "99 °C",
        "Density": "1.0 g/cm³ @ Temp: 25 °C"
    }
}