{
    "cas_no": "7560-50-1",
    "key_name": "Methyl 3-(4-formylphenyl)-2-propenoate",
    "cn_name": null,
    "alternate_name": "2-Propenoic acid, 3-(4-formylphenyl)-, methyl ester;Cinnamic acid, <em>p</em>-formyl-, methyl ester;Methyl 3-(4-formylphenyl)-2-propenoate;Methyl <em>p</em>-formylcinnamate;Methyl 4-formylcinnamate;3-(4-Formylphenyl)acrylic acid methyl ester;Methyl 3-(4-formylphenyl)acrylate",
    "duplicated_cas_no": "",
    "SMILES": "C(=CC(OC)=O)C1=CC=C(C=O)C=C1",
    "meta_data": {
        "InChI": "InChI=1S/C11H10O3/c1-14-11(13)7-6-9-2-4-10(8-12)5-3-9/h2-8H,1H3",
        "InChIKey": null,
        "Canonical SMILES": "O=CC1=CC=C(C=CC(=O)OC)C=C1",
        "Molecular Formula": "C<sub>11</sub>H<sub>10</sub>O<sub>3</sub>",
        "Molecular Mass": "190.20",
        "Melting Point": "79-81 °C"
    }
}