{
    "cas_no": "619-42-1",
    "key_name": "Methyl 4-bromobenzoate",
    "cn_name": "对溴苯甲酸甲酯;4-溴苯甲酸甲酯;",
    "alternate_name": "Benzoic acid, 4-bromo-, methyl ester;Benzoic acid, <em>p</em>-bromo-, methyl ester;<em>p</em>-Bromobenzoic acid methyl ester;Methyl <em>p</em>-bromobenzoate;Methyl 4-bromobenzoate;1-Bromo-4-(methoxycarbonyl)benzene;4-Bromobenzoic acid methyl ester;NSC 9392;4-Methoxycarbonylphenyl bromide;4-Methoxycarbonyl-1-bromobenzene",
    "duplicated_cas_no": "",
    "SMILES": "C(OC)(=O)C1=CC=C(Br)C=C1",
    "meta_data": {
        "InChI": "InChI=1S/C8H7BrO2/c1-11-8(10)6-2-4-7(9)5-3-6/h2-5H,1H3",
        "InChIKey": null,
        "Canonical SMILES": "O=C(OC)C1=CC=C(Br)C=C1",
        "Molecular Formula": "C<sub>8</sub>H<sub>7</sub>BrO<sub>2</sub>",
        "Molecular Mass": "215.04",
        "Melting Point": "81 °C"
    }
}