{
    "cas_no": "4695-31-2",
    "key_name": "2-Mercapto-2-methylpropanoic acid",
    "cn_name": "2-巯基-2-甲基丙酸;2-巯基-2-甲基丙酸；2-巯基异丁酸;",
    "alternate_name": "Propanoic acid, 2-mercapto-2-methyl-;Propionic acid, 2-mercapto-2-methyl-;2-Mercapto-2-methylpropanoic acid;α-Mercaptoisobutyric acid;2-Mercaptoisobutyric acid;2-Mercapto-2-methylpropionic acid;2-Mercaptoisobutanoic acid;2,2-Dimethyl-2-mercaptoacetic acid;2-Methyl-2-sulfanylpropanoic acid",
    "duplicated_cas_no": "",
    "SMILES": "C(C(O)=O)(C)(C)S",
    "meta_data": {
        "InChI": "InChI=1S/C4H8O2S/c1-4(2,7)3(5)6/h7H,1-2H3,(H,5,6)",
        "InChIKey": null,
        "Canonical SMILES": "O=C(O)C(S)(C)C",
        "Molecular Formula": "C<sub>4</sub>H<sub>8</sub>O<sub>2</sub>S",
        "Molecular Mass": "120.17",
        "Boiling Point": "100-102 °C @ Press: 15 Torr",
        "Melting Point": "47 °C"
    }
}