{
    "cas_no": "1632-83-3",
    "key_name": "1-Methylbenzimidazole",
    "cn_name": "1-甲基苯并咪唑;1-甲基苯并咪唑;N-甲基苯并咪唑;1-甲基苯并咪唑,99%;1-甲基-1H-苯并咪唑;",
    "alternate_name": "1<em>H</em>-Benzimidazole, 1-methyl-;Benzimidazole, 1-methyl-;1-Methyl-1<em>H</em>-benzimidazole;1-Methylbenzimidazole;3-Methylbenzimidazole;<em>N</em>-Methylbenzimidazole;NSC 42115;1-Methyl-1<em>H</em>-benzo[<em>d</em>]imidazole",
    "duplicated_cas_no": "",
    "SMILES": "CN1C=2C(=CC=CC2)N=C1",
    "meta_data": {
        "InChI": "InChI=1S/C8H8N2/c1-10-6-9-7-4-2-3-5-8(7)10/h2-6H,1H3",
        "InChIKey": null,
        "Canonical SMILES": "N1=CN(C=2C=CC=CC12)C",
        "Molecular Formula": "C<sub>8</sub>H<sub>8</sub>N<sub>2</sub>",
        "Molecular Mass": "132.16",
        "Boiling Point": "286 °C @ Press: 746 Torr",
        "Melting Point": "66 °C"
    }
}