{
    "cas_no": "90417-38-2",
    "key_name": "8-Hydroxy-2-methyl-4(3<em>H</em>)-quinazolinone",
    "cn_name": "2-甲基-8-羟基-4-喹唑啉酮;",
    "alternate_name": "4(3<em>H</em>)-Quinazolinone, 8-hydroxy-2-methyl-;4(1<em>H</em>)-Quinazolinone, 8-hydroxy-2-methyl-;8-Hydroxy-2-methyl-4(3<em>H</em>)-quinazolinone;Nu 1025;NSC 696807",
    "duplicated_cas_no": "",
    "SMILES": "O=C1C=2C(NC(C)=N1)=C(O)C=CC2",
    "meta_data": {
        "InChI": "InChI=1S/C9H8N2O2/c1-5-10-8-6(9(13)11-5)3-2-4-7(8)12/h2-4,12H,1H3,(H,10,11,13)",
        "InChIKey": null,
        "Canonical SMILES": "O=C1N=C(NC=2C(O)=CC=CC12)C",
        "Molecular Formula": "C<sub>9</sub>H<sub>8</sub>N<sub>2</sub>O<sub>2</sub>",
        "Molecular Mass": "176.17",
        "Melting Point": "248 °C"
    }
}