{
    "cas_no": "300-84-5",
    "key_name": "Hypotaurine",
    "cn_name": "2-氨基乙烷亚磺酸;2-氨乙基亚磺酸;亚牛磺酸;",
    "alternate_name": "Ethanesulfinic acid, 2-amino-;2-Aminoethanesulfinic acid;Cystaminesulfinic acid;Hypotaurine;2-Aminoethylsulfinic acid;2-Aminoethane-1-sulfinic acid",
    "duplicated_cas_no": "1216888-14-0",
    "SMILES": "C(S(=O)O)CN",
    "meta_data": {
        "InChI": "InChI=1S/C2H7NO2S/c3-1-2-6(4)5/h1-3H2,(H,4,5)",
        "InChIKey": null,
        "Canonical SMILES": "O=S(O)CCN",
        "Molecular Formula": "C<sub>2</sub>H<sub>7</sub>NO<sub>2</sub>S",
        "Molecular Mass": "109.15",
        "Melting Point": "175-177 °C"
    }
}