{
    "cas_no": "144120-54-7",
    "key_name": "1-(2-Propen-1-yl) hydrogen <em>N</em>-[(9<em>H</em>-fluoren-9-ylmethoxy)carbonyl]-<span class=\"text-smallcaps\">L</span>-glutamate",
    "cn_name": "N-芴甲氧羰基-L-谷氨酸 1-烯丙基酯;",
    "alternate_name": "<span class=\"text-smallcaps\">L</span>-Glutamic acid, <em>N</em>-[(9<em>H</em>-fluoren-9-ylmethoxy)carbonyl]-, 1-(2-propen-1-yl) ester;<span class=\"text-smallcaps\">L</span>-Glutamic acid, <em>N</em>-[(9<em>H</em>-fluoren-9-ylmethoxy)carbonyl]-, 1-(2-propenyl) ester;1-(2-Propen-1-yl) hydrogen <em>N</em>-[(9<em>H</em>-fluoren-9-ylmethoxy)carbonyl]-<span class=\"text-smallcaps\">L</span>-glutamate;(4S)-4-(9<em>H</em>-Fluoren-9-ylmethoxycarbonylamino)-5-oxo-5-prop-2-enoxypentanoic acid",
    "duplicated_cas_no": "1132702-84-1",
    "SMILES": "C(OC(N[C@H](C(OCC=C)=O)CCC(O)=O)=O)C1C=2C(C=3C1=CC=CC3)=CC=CC2",
    "meta_data": {
        "InChI": "InChI=1S/C23H23NO6/c1-2-13-29-22(27)20(11-12-21(25)26)24-23(28)30-14-19-17-9-5-3-7-15(17)16-8-4-6-10-18(16)19/h2-10,19-20H,1,11-14H2,(H,24,28)(H,25,26)/t20-/m0/s1",
        "InChIKey": null,
        "Canonical SMILES": "O=C(OCC1C=2C=CC=CC2C=3C=CC=CC31)NC(C(=O)OCC=C)CCC(=O)O",
        "Molecular Formula": "C<sub>23</sub>H<sub>23</sub>NO<sub>6</sub>",
        "Molecular Mass": "409.43",
        "Melting Point": "118-119 °C"
    }
}