{
    "cas_no": "20733-11-3",
    "key_name": "4-Methoxypyridazine",
    "cn_name": null,
    "alternate_name": "Pyridazine, 4-methoxy-;4-Methoxypyridazine",
    "duplicated_cas_no": "",
    "SMILES": "O(C)C=1C=CN=NC1",
    "meta_data": {
        "InChI": "InChI=1S/C5H6N2O/c1-8-5-2-3-6-7-4-5/h2-4H,1H3",
        "InChIKey": null,
        "Canonical SMILES": "N=1N=CC(OC)=CC1",
        "Molecular Formula": "C<sub>5</sub>H<sub>6</sub>N<sub>2</sub>O",
        "Molecular Mass": "110.11",
        "Melting Point": "43-44 °C"
    }
}