{
    "cas_no": "355-49-7",
    "key_name": "1,1,1,2,2,3,3,4,4,5,5,6,6,7,7,8,8,9,9,10,10,11,11,12,12,13,13,14,14,15,15,16,16,16-Tetratriacontafluorohexadecane",
    "cn_name": null,
    "alternate_name": "Hexadecane, 1,1,1,2,2,3,3,4,4,5,5,6,6,7,7,8,8,9,9,10,10,11,11,12,12,13,13,14,14,15,15,16,16,16-tetratriacontafluoro-;Hexadecane, tetratriacontafluoro-;1,1,1,2,2,3,3,4,4,5,5,6,6,7,7,8,8,9,9,10,10,11,11,12,12,13,13,14,14,15,15,16,16,16-Tetratriacontafluorohexadecane;Perfluorohexadecane;Perfluoro-<em>n</em>-hexadecane;DTXSID40188997",
    "duplicated_cas_no": "",
    "SMILES": "C(C(C(C(C(C(C(C(C(F)(F)F)(F)F)(F)F)(F)F)(F)F)(F)F)(F)F)(F)F)(C(C(C(C(C(C(C(F)(F)F)(F)F)(F)F)(F)F)(F)F)(F)F)(F)F)(F)F",
    "meta_data": {
        "InChI": "InChI=1S/C16F34/c17-1(18,3(21,22)5(25,26)7(29,30)9(33,34)11(37,38)13(41,42)15(45,46)47)2(19,20)4(23,24)6(27,28)8(31,32)10(35,36)12(39,40)14(43,44)16(48,49)50",
        "InChIKey": null,
        "Canonical SMILES": "FC(F)(F)C(F)(F)C(F)(F)C(F)(F)C(F)(F)C(F)(F)C(F)(F)C(F)(F)C(F)(F)C(F)(F)C(F)(F)C(F)(F)C(F)(F)C(F)(F)C(F)(F)C(F)(F)F",
        "Molecular Formula": "C<sub>16</sub>F<sub>34</sub>",
        "Molecular Mass": "838.12",
        "Boiling Point": "238-240 °C",
        "Melting Point": "125-126 °C"
    }
}