{
    "cas_no": "540737-29-9",
    "key_name": "Tofacitinib citrate",
    "cn_name": null,
    "alternate_name": "1-Piperidinepropanenitrile, 4-methyl-3-(methyl-7<em>H</em>-pyrrolo[2,3-<em>d</em>]pyrimidin-4-ylamino)-β-oxo-, (3<em>R</em>,4<em>R</em>)-, 2-hydroxy-1,2,3-propanetricarboxylate (1:1);3-Piperidinamine, 1-(cyanoacetyl)-4-methyl-<em>N</em>-methyl-<em>N</em>-1<em>H</em>-pyrrolo[2,3-<em>d</em>]pyrimidin-4-yl-, (3<em>R</em>,4<em>R</em>)-, 2-hydroxy-1,2,3-propanetricarboxylate (1:1);Tasocitinib citrate;CP 690500-10;Tofacitinib citrate;CP 690550-10;Xeljanz;Xeljanz XR",
    "duplicated_cas_no": "",
    "SMILES": "N(C)(C1=C2C(NC=C2)=NC=N1)[C@H]3CN(C(CC#N)=O)CC[C@H]3C.C(CC(O)=O)(CC(O)=O)(C(O)=O)O",
    "meta_data": {
        "InChI": "InChI=1S/C16H20N6O.C6H8O7/c1-11-5-8-22(14(23)3-6-17)9-13(11)21(2)16-12-4-7-18-15(12)19-10-20-16;7-3(8)1-6(13,5(11)12)2-4(9)10/h4,7,10-11,13H,3,5,8-9H2,1-2H3,(H,18,19,20);13H,1-2H2,(H,7,8)(H,9,10)(H,11,12)/t11-,13+;/m1./s1",
        "InChIKey": null,
        "Canonical SMILES": "N#CCC(=O)N1CCC(C)C(N(C=2N=CN=C3NC=CC32)C)C1.O=C(O)CC(O)(C(=O)O)CC(=O)O",
        "Molecular Formula": "C<sub>16</sub>H<sub>20</sub>N<sub>6</sub>O.C<sub>6</sub>H<sub>8</sub>O<sub>7</sub>",
        "Molecular Mass": "",
        "Melting Point": "201 °C (decomp)"
    }
}