{
    "cas_no": "504-24-5",
    "key_name": "4-Aminopyridine",
    "cn_name": "4-氨基吡啶;",
    "alternate_name": "4-Pyridinamine;Pyridine, 4-amino-;4-Aminopyridine;VMI 10-3;Phillips 1861;γ-Aminopyridine;<em>p</em>-Aminopyridine;4-Pyridylamine;Avitrol;EL 970;Fampridine;4-Pyridinylamine;4AP;NSC 15041;Neurelan;Ampyra;Dalfampridine;Pymadin;Fampyra;MeSH ID: D015761",
    "duplicated_cas_no": "",
    "SMILES": "NC=1C=CN=CC1",
    "meta_data": {
        "InChI": "InChI=1S/C5H6N2/c6-5-1-3-7-4-2-5/h1-4H,(H2,6,7)",
        "InChIKey": null,
        "Canonical SMILES": "N=1C=CC(N)=CC1",
        "Molecular Formula": "C<sub>5</sub>H<sub>6</sub>N<sub>2</sub>",
        "Molecular Mass": "94.11",
        "Boiling Point": "273 °C",
        "Melting Point": "158.5 °C"
    }
}