{
    "cas_no": "482-15-5",
    "key_name": "Isothipendyl",
    "cn_name": "氮异丙嗪;氮异丙嗪;",
    "alternate_name": "10<em>H</em>-Pyrido[3,2-<em>b</em>][1,4]benzothiazine-10-ethanamine, <em>N</em>,<em>N</em>,α-trimethyl-;10<em>H</em>-Pyrido[3,2-<em>b</em>][1,4]benzothiazine, 10-[2-(dimethylamino)propyl]-;<em>N</em>,<em>N</em>,α-Trimethyl-10<em>H</em>-pyrido[3,2-<em>b</em>][1,4]benzothiazine-10-ethanamine;D 201;AY 56012;Dimethylaminoisopropylazaphenothiazine;10-[2-(Dimethylamino)propyl]-10<em>H</em>-pyrido[3,2-<em>b</em>][1,4]benzothiazine;10-(2-Dimethylaminopropyl)-9-thia-1,10-diazaanthracene;10-(2-Dimethylaminopropyl)thiophenylpyridylamine;Isothipendyl;10-(2-Dimethylamino-2-methylethyl)-10<em>H</em>-pyrido[3,2-<em>b</em>][1,4]benzothiazine;10-(2-Dimethylaminopropyl)-1-azaphenothiazine;<em>N</em>-Dimethylaminoisopropylthiophenylpyridylamine;Udantol;Odantol;(±)-Isothipendyl",
    "duplicated_cas_no": "",
    "SMILES": "C(C(N(C)C)C)N1C=2C(SC=3C1=NC=CC3)=CC=CC2",
    "meta_data": {
        "InChI": "InChI=1S/C16H19N3S/c1-12(18(2)3)11-19-13-7-4-5-8-14(13)20-15-9-6-10-17-16(15)19/h4-10,12H,11H2,1-3H3",
        "InChIKey": null,
        "Canonical SMILES": "N=1C=CC=C2SC=3C=CC=CC3N(C12)CC(N(C)C)C",
        "Molecular Formula": "C<sub>16</sub>H<sub>19</sub>N<sub>3</sub>S",
        "Molecular Mass": "285.41",
        "Boiling Point": "172.5 °C"
    }
}