{
    "cas_no": "2942-13-4",
    "key_name": "6-Methoxybenzothiazole",
    "cn_name": "6-甲氧基苯并噻唑;",
    "alternate_name": "Benzothiazole, 6-methoxy-;6-Methoxybenzothiazole;NSC 508406;6-Methoxy-1,3-benzothiazole",
    "duplicated_cas_no": "",
    "SMILES": "O(C)C=1C=C2C(=CC1)N=CS2",
    "meta_data": {
        "InChI": "InChI=1S/C8H7NOS/c1-10-6-2-3-7-8(4-6)11-5-9-7/h2-5H,1H3",
        "InChIKey": null,
        "Canonical SMILES": "N1=CSC=2C=C(OC)C=CC12",
        "Molecular Formula": "C<sub>8</sub>H<sub>7</sub>NOS",
        "Molecular Mass": "165.21",
        "Melting Point": "72.5-73 °C"
    }
}