{
    "cas_no": "1885-38-7",
    "key_name": "(2<em>E</em>)-3-Phenyl-2-propenenitrile",
    "cn_name": "肉桂腈;beta-苯基丙烯腈;",
    "alternate_name": "2-Propenenitrile, 3-phenyl-, (2<em>E</em>)-;Cinnamonitrile, (<em>E</em>)-;2-Propenenitrile, 3-phenyl-, (<em>E</em>)-;(2<em>E</em>)-3-Phenyl-2-propenenitrile;<em>trans</em>-β-Phenylacrylonitrile;<em>trans</em>-Cinnamonitrile;<em>trans</em>-3-Phenylpropenonitrile;(<em>E</em>)-Cinnamonitrile;(<em>E</em>)-3-Phenylacrylonitrile;(<em>E</em>)-3-Phenylpropenenitrile;<em>trans</em>-3-Phenyl-2-propenenitrile;(2<em>E</em>)-3-Phenylprop-2-enenitrile;NSC 77496;(2E)-3-Phenylprop-2-enenitrile;3-<em>trans</em>-Phenyl-acrylonitrile;(<em>E</em>)-Cinnamyl nitrile;Cinnamalva",
    "duplicated_cas_no": "",
    "SMILES": "C(=C/C#N)\\C1=CC=CC=C1",
    "meta_data": {
        "InChI": "InChI=1S/C9H7N/c10-8-4-7-9-5-2-1-3-6-9/h1-7H/b7-4+",
        "InChIKey": null,
        "Canonical SMILES": "N#CC=CC=1C=CC=CC1",
        "Molecular Formula": "C<sub>9</sub>H<sub>7</sub>N",
        "Molecular Mass": "129.16",
        "Boiling Point": "263.8 °C",
        "Melting Point": "22 °C",
        "Density": "1.0374 g/cm³ @ Temp: 15.2 °C"
    }
}