{
    "cas_no": "517-60-2",
    "key_name": "Mellitic acid",
    "cn_name": "苯六甲酸;",
    "alternate_name": "1,2,3,4,5,6-Benzenehexacarboxylic acid;Benzenehexacarboxylic acid;Mellitic acid;Mellic acid;Hexacarboxybenzene;NSC 229358",
    "duplicated_cas_no": "",
    "SMILES": "C(O)(=O)C1=C(C(O)=O)C(C(O)=O)=C(C(O)=O)C(C(O)=O)=C1C(O)=O",
    "meta_data": {
        "InChI": "InChI=1S/C12H6O12/c13-7(14)1-2(8(15)16)4(10(19)20)6(12(23)24)5(11(21)22)3(1)9(17)18/h(H,13,14)(H,15,16)(H,17,18)(H,19,20)(H,21,22)(H,23,24)",
        "InChIKey": null,
        "Canonical SMILES": "O=C(O)C=1C(C(=O)O)=C(C(=O)O)C(C(=O)O)=C(C(=O)O)C1C(=O)O",
        "Molecular Formula": "C<sub>12</sub>H<sub>6</sub>O<sub>12</sub>",
        "Molecular Mass": "342.17",
        "Melting Point": "287 °C (decomp)"
    }
}