{
    "cas_no": "51072-36-7",
    "key_name": "1,2,3,4,5,6,7,8-Octahydro-1-[(4-methoxyphenyl)methyl]isoquinoline",
    "cn_name": null,
    "alternate_name": "Isoquinoline, 1,2,3,4,5,6,7,8-octahydro-1-[(4-methoxyphenyl)methyl]-;Isoquinoline, 1,2,3,4,5,6,7,8-octahydro-1-(<em>p</em>-methoxybenzyl)-;1,2,3,4,5,6,7,8-Octahydro-1-[(4-methoxyphenyl)methyl]isoquinoline;1-(<em>p</em>-Methoxybenzyl)-1,2,3,4,5,6,7,8-octahydroisoquinoline;(±)-1-(4-Methoxybenzyl)-1,2,3,4,5,6,7,8-octahydroisoquinoline;1-(4-Methoxybenzyl)-1,2,3,4,5,6,7,8-octahydroisoquinoline;1-[(4-Methoxyphenyl)methyl]-1,2,3,4,5,6,7,8-octahydroisoquinoline",
    "duplicated_cas_no": "57849-23-7",
    "SMILES": "C(C1C2=C(CCN1)CCCC2)C3=CC=C(OC)C=C3",
    "meta_data": {
        "InChI": "InChI=1S/C17H23NO/c1-19-15-8-6-13(7-9-15)12-17-16-5-3-2-4-14(16)10-11-18-17/h6-9,17-18H,2-5,10-12H2,1H3",
        "InChIKey": null,
        "Canonical SMILES": "O(C1=CC=C(C=C1)CC2NCCC3=C2CCCC3)C",
        "Molecular Formula": "C<sub>17</sub>H<sub>23</sub>NO",
        "Molecular Mass": "257.37",
        "Melting Point": "199 °C"
    }
}