{
    "cas_no": "99768-12-4",
    "key_name": "4-(Methoxycarbonyl)phenylboronic acid",
    "cn_name": "4-甲氧羰基苯硼酸;4-羧酸甲酯苯硼酸;",
    "alternate_name": "Benzoic acid, 4-borono-, 1-methyl ester;Benzoic acid, <em>p</em>-borono-, methyl ester;4-Carbomethoxybenzeneboronic acid;4-Methoxycarbonylbenzeneboronic acid;(4-Carbomethoxyphenyl)boronic acid;<em>p</em>-(Methoxycarbonyl)boronic acid;Methyl <em>p</em>-boronobenzoate;<em>p</em>-(Methoxycarbonyl)phenylboronic acid;4-(Methoxycarbonyl)phenylboronic acid;Methyl 4-boronobenzoate;Methyl 4-carboxyphenylboronic acid;4-Dihydroxyborylbenzoic acid methyl ester;4-Methoxycarbonylphenylboric acid",
    "duplicated_cas_no": "1373752-82-9",
    "SMILES": "C(OC)(=O)C1=CC=C(B(O)O)C=C1",
    "meta_data": {
        "InChI": "InChI=1S/C8H9BO4/c1-13-8(10)6-2-4-7(5-3-6)9(11)12/h2-5,11-12H,1H3",
        "InChIKey": null,
        "Canonical SMILES": "O=C(OC)C1=CC=C(C=C1)B(O)O",
        "Molecular Formula": "C<sub>8</sub>H<sub>9</sub>BO<sub>4</sub>",
        "Molecular Mass": "179.97",
        "Melting Point": "230-233 °C"
    }
}