{
    "cas_no": "1273-97-8",
    "key_name": "Ferrocene, 1,1′-diethyl-",
    "cn_name": null,
    "alternate_name": "Ferrocene, 1,1′-diethyl-;Iron, bis(ethylcyclopentadienyl)-;1,1′-Diethylferrocene",
    "duplicated_cas_no": "",
    "SMILES": "C(C)[C-]12[Fe+2]3456789([C-]%10(CC)[CH]3=[CH]4[CH]5=[CH]6%10)[CH]1=[CH]7[CH]8=[CH]92",
    "meta_data": {
        "InChI": "InChI=1S/2C7H9.Fe/c2*1-2-7-5-3-4-6-7;/h2*3-6H,2H2,1H3;/q2*-1;+2",
        "InChIKey": null,
        "Canonical SMILES": "CC[C-]12[CH]3=[CH]4[CH]5=[CH]1[Fe+2]45678932[CH]=%10[CH]9=[CH]8[C-]7(CC)[CH]%106",
        "Molecular Formula": "C<sub>14</sub>H<sub>18</sub>Fe",
        "Molecular Mass": "",
        "Boiling Point": "123-124 °C @ Press: 5.5 Torr",
        "Density": "1.1787 g/cm³ @ Temp: 20 °C"
    }
}