{
    "cas_no": "123-05-7",
    "key_name": "2-Ethylhexanal",
    "cn_name": "2-乙基己醛;2-乙基已基醛;丁基乙基乙醛;",
    "alternate_name": "Hexanal, 2-ethyl-;Caproaldehyde, α-ethyl-;2-Ethylhexanal;Butylethylacetaldehyde;Ethylbutylacetaldehyde;α-Ethylcaproaldehyde;2-Ethylhexaldehyde;2-Ethylhexylaldehyde;3-Formylheptane;α-Ethylhexanal;2-Ethylcaproaldehyde;(±)-2-Ethylhexanal;NSC 42871",
    "duplicated_cas_no": "58712-00-8",
    "SMILES": "C(CCCC)(CC)C=O",
    "meta_data": {
        "InChI": "InChI=1S/C8H16O/c1-3-5-6-8(4-2)7-9/h7-8H,3-6H2,1-2H3",
        "InChIKey": null,
        "Canonical SMILES": "O=CC(CC)CCCC",
        "Molecular Formula": "C<sub>8</sub>H<sub>16</sub>O",
        "Molecular Mass": "128.21",
        "Boiling Point": "163 °C @ Press: 760 Torr",
        "Melting Point": "&lt;-100 °C",
        "Density": "0.8540 g/cm³ @ Temp: 20 °C"
    }
}