{
    "cas_no": "4303-67-7",
    "key_name": "1-Dodecylimidazole",
    "cn_name": "1-十二烷基咪唑;",
    "alternate_name": "1<em>H</em>-Imidazole, 1-dodecyl-;Imidazole, 1-dodecyl-;1-Dodecyl-1<em>H</em>-imidazole;1-Dodecylimidazole;<em>N</em>-Dodecylimidazole;<em>N</em>-Laurylimidazole;1-Laurylimidazole;NSC 307267;1-(1-Dodecyl)-1<em>H</em>-imidazole",
    "duplicated_cas_no": "42935-06-8",
    "SMILES": "C(CCCCCCCCCCC)N1C=CN=C1",
    "meta_data": {
        "InChI": "InChI=1S/C15H28N2/c1-2-3-4-5-6-7-8-9-10-11-13-17-14-12-16-15-17/h12,14-15H,2-11,13H2,1H3",
        "InChIKey": null,
        "Canonical SMILES": "N=1C=CN(C1)CCCCCCCCCCCC",
        "Molecular Formula": "C<sub>15</sub>H<sub>28</sub>N<sub>2</sub>",
        "Molecular Mass": "236.40",
        "Boiling Point": "199-200 °C @ Press: 24 Torr",
        "Melting Point": "69.5-70.5 °C"
    }
}