{
    "cas_no": "1707-67-1",
    "key_name": "2-(<em>o</em>-Chlorophenyl)-4,5-diphenylimidazole",
    "cn_name": "2-(2-氯苯基)-4,5-二苯基咪唑;",
    "alternate_name": "1<em>H</em>-Imidazole, 2-(2-chlorophenyl)-4,5-diphenyl-;Imidazole, 2-(<em>o</em>-chlorophenyl)-4,5-diphenyl-;2-(2-Chlorophenyl)-4,5-diphenyl-1<em>H</em>-imidazole;2-(2-Chlorophenyl)-4,5-diphenylimidazole;2-(<em>o</em>-Chlorophenyl)-4,5-diphenylimidazole",
    "duplicated_cas_no": "",
    "SMILES": "ClC1=C(C=2NC(=C(N2)C3=CC=CC=C3)C4=CC=CC=C4)C=CC=C1",
    "meta_data": {
        "InChI": "InChI=1S/C21H15ClN2/c22-18-14-8-7-13-17(18)21-23-19(15-9-3-1-4-10-15)20(24-21)16-11-5-2-6-12-16/h1-14H,(H,23,24)",
        "InChIKey": null,
        "Canonical SMILES": "ClC=1C=CC=CC1C2=NC(C=3C=CC=CC3)=C(N2)C=4C=CC=CC4",
        "Molecular Formula": "C<sub>21</sub>H<sub>15</sub>ClN<sub>2</sub>",
        "Molecular Mass": "330.81",
        "Melting Point": "188 °C"
    }
}