{
    "cas_no": "1885-14-9",
    "key_name": "Phenyl chloroformate",
    "cn_name": "氯甲酸苯酯;",
    "alternate_name": "Carbonochloridic acid, phenyl ester;Formic acid, chloro-, phenyl ester;Phenyl chloroformate;Chloroformic acid phenyl ester;Phenyl chlorocarbonate;Phenyl carbonochloridate;Phenyloxycarbonyl chloride;Phenylchloroformic acid;NSC 210946;Chlorocarbonic acid phenyl ester",
    "duplicated_cas_no": "180273-50-1;1404060-48-5",
    "SMILES": "O(C(Cl)=O)C1=CC=CC=C1",
    "meta_data": {
        "InChI": "InChI=1S/C7H5ClO2/c8-7(9)10-6-4-2-1-3-5-6/h1-5H",
        "InChIKey": null,
        "Canonical SMILES": "O=C(Cl)OC=1C=CC=CC1",
        "Molecular Formula": "C<sub>7</sub>H<sub>5</sub>ClO<sub>2</sub>",
        "Molecular Mass": "156.57",
        "Boiling Point": "185 °C",
        "Melting Point": "38.0-38.5 °C"
    }
}