{
    "cas_no": "532-03-6",
    "key_name": "Methocarbamol",
    "cn_name": "美索巴莫;3-(2-甲氧苯氧)-1,2-丙二醇氨基甲酸酯;",
    "alternate_name": "1,2-Propanediol, 3-(2-methoxyphenoxy)-, 1-carbamate;1,2-Propanediol, 3-(<em>o</em>-methoxyphenoxy)-, 1-carbamate;Carbamic acid, 2-hydroxy-3-(<em>o</em>-methoxyphenoxy)propyl ester;AHR 85;Glycerylguaiacolate carbamate;Guaiacol glyceryl ether carbamate;2-Hydroxy-3-(<em>o</em>-methoxyphenoxy)propyl carbamate;Lumirelax;Methocarbamol;3-(2-Methoxyphenoxy)-1-glyceryl carbamate;3-(<em>o</em>-Methoxyphenoxy)-2-hydroxypropyl carbamate;3-(<em>o</em>-Methoxyphenoxy)-1,2-propanediol 1-carbamate;Neuraxin;Robaxin;Robinax;Guaiphenesin carbamate;Miolaxene;Avetil;Surquetil;Etroflex;Reflexyn;racemic-Methocarbamol;guaiamar carbamate;Traumacut;Robamol;Delaxin;Tresortil;Relestrid;NSC 170960;1-Carbamoyloxy-3-(2′-methoxyphenoxy)-2-propanol;[2-Hydroxy-3-(2-methoxyphenoxy)propyl] carbamate;2-Hydroxy-3-(2-methoxyphenoxy)propyl carbamate;MeSH ID: D008721",
    "duplicated_cas_no": "145308-03-8",
    "SMILES": "O(CC(COC(N)=O)O)C1=C(OC)C=CC=C1",
    "meta_data": {
        "InChI": "InChI=1S/C11H15NO5/c1-15-9-4-2-3-5-10(9)16-6-8(13)7-17-11(12)14/h2-5,8,13H,6-7H2,1H3,(H2,12,14)",
        "InChIKey": null,
        "Canonical SMILES": "O=C(OCC(O)COC=1C=CC=CC1OC)N",
        "Molecular Formula": "C<sub>11</sub>H<sub>15</sub>NO<sub>5</sub>",
        "Molecular Mass": "241.24",
        "Melting Point": "92-94 °C"
    }
}