{
    "cas_no": "16718-12-0",
    "key_name": "2-(Phenylthio)thiophene",
    "cn_name": "2-硫苯基噻吩;2-硫苯基噻吩;2-(苯基硫代)噻吩;2-(苯基硫代)噻吩, 97+%;",
    "alternate_name": "Thiophene, 2-(phenylthio)-;2-(Phenylthio)thiophene;2-Phenylthiothiophene;Phenyl 2-thienyl sulfide;2-(Phenylsulfanyl)thiophene;2-Phenylsulfanylthiophene",
    "duplicated_cas_no": "",
    "SMILES": "S(C1=CC=CC=C1)C2=CC=CS2",
    "meta_data": {
        "InChI": "InChI=1S/C10H8S2/c1-2-5-9(6-3-1)12-10-7-4-8-11-10/h1-8H",
        "InChIKey": null,
        "Canonical SMILES": "S1C=CC=C1SC=2C=CC=CC2",
        "Molecular Formula": "C<sub>10</sub>H<sub>8</sub>S<sub>2</sub>",
        "Molecular Mass": "192.30",
        "Boiling Point": "155-157 °C @ Press: 15 Torr",
        "Density": "1.2100 g/cm³ @ Temp: 20 °C"
    }
}