{
    "cas_no": "1072-35-1",
    "key_name": "Octadecanoic acid, lead(2+) salt (2:1)",
    "cn_name": "硬脂酸铅;十八酸铅;",
    "alternate_name": "Octadecanoic acid, lead(2+) salt (2:1);Stearic acid, lead(2+) salt;Octadecanoic acid, lead(2+) salt;Lead(II) stearate;Lead(2+) stearate;Lead stearate;Lead distearate;Stabinex NC<sub>18</sub>;Lead(2+) octadecanoate;Lead(II) octadecanoate;SL 1000 (stabilizer);SLG;SL 1000;5002G;Pbst;Listab 28ND;Interstab L 3150",
    "duplicated_cas_no": "11097-78-2;37223-82-8",
    "SMILES": "C(CCCCCCCCCCC)CCCCCC(O)=O.[Pb]",
    "meta_data": {
        "InChI": "InChI=1S/C18H36O2.Pb/c1-2-3-4-5-6-7-8-9-10-11-12-13-14-15-16-17-18(19)20;/h2-17H2,1H3,(H,19,20);",
        "InChIKey": null,
        "Canonical SMILES": "[Pb].O=C(O)CCCCCCCCCCCCCCCCC",
        "Molecular Formula": "C<sub>18</sub>H<sub>36</sub>O<sub>2</sub>.<sup>1</sup>/<sub>2</sub>Pb",
        "Molecular Mass": "",
        "Melting Point": "125 °C"
    }
}