{
    "cas_no": "22172-17-4",
    "key_name": "1,8-Dihydroxy-3,7-dimethoxyxanthone",
    "cn_name": null,
    "alternate_name": "9<em>H</em>-Xanthen-9-one, 1,8-dihydroxy-2,6-dimethoxy-;Xanthen-9-one, 1,8-dihydroxy-2,6-dimethoxy-;1,8-Dihydroxy-2,6-dimethoxy-9<em>H</em>-xanthen-9-one;Methylswertianin;Swertiaperennin;1,3,7,8-Tetrahydroxyxanthone 3,7-dimethyl ether;1,8-Dihydroxy-3,7-dimethoxyxanthone;1,8-Dihydroxy-3,7-dimethoxyxanthen-9-one;1,8-Dihydroxy-2,6-dimethoxyxanthone;Svercyaperenin;Swertiaperenine;1,8-Dihydroxy-2,6-dimethoxyxanthen-9-one",
    "duplicated_cas_no": "",
    "SMILES": "O=C1C=2C(OC=3C1=C(O)C=C(OC)C3)=CC=C(OC)C2O",
    "meta_data": {
        "InChI": "InChI=1S/C15H12O6/c1-19-7-5-8(16)12-11(6-7)21-9-3-4-10(20-2)14(17)13(9)15(12)18/h3-6,16-17H,1-2H3",
        "InChIKey": null,
        "Canonical SMILES": "O=C1C2=C(O)C=C(OC)C=C2OC3=CC=C(OC)C(O)=C13",
        "Molecular Formula": "C<sub>15</sub>H<sub>12</sub>O<sub>6</sub>",
        "Molecular Mass": "288.25",
        "Melting Point": "194-195 °C"
    }
}