{
    "cas_no": "16740-73-1",
    "key_name": "1-(5-Bromo-2-methoxyphenyl)ethanone",
    "cn_name": null,
    "alternate_name": "Ethanone, 1-(5-bromo-2-methoxyphenyl)-;Acetophenone, 5′-bromo-2′-methoxy-;1-(5-Bromo-2-methoxyphenyl)ethanone;5′-Bromo-2′-methoxyacetophenone;1-(3-Bromo-6-methoxyphenyl)ethanone;1-(5-Bromo-2-methoxyphenyl)ethan-1-one",
    "duplicated_cas_no": "",
    "SMILES": "C(C)(=O)C1=C(OC)C=CC(Br)=C1",
    "meta_data": {
        "InChI": "InChI=1S/C9H9BrO2/c1-6(11)8-5-7(10)3-4-9(8)12-2/h3-5H,1-2H3",
        "InChIKey": null,
        "Canonical SMILES": "O=C(C1=CC(Br)=CC=C1OC)C",
        "Molecular Formula": "C<sub>9</sub>H<sub>9</sub>BrO<sub>2</sub>",
        "Molecular Mass": "229.07",
        "Boiling Point": "165 °C",
        "Melting Point": "39 °C"
    }
}