{
    "cas_no": "3373-59-9",
    "key_name": "<span class=\"text-smallcaps\">L</span>-Threonine methyl ester",
    "cn_name": null,
    "alternate_name": "<span class=\"text-smallcaps\">L</span>-Threonine, methyl ester;Threonine, methyl ester, <span class=\"text-smallcaps\">L</span>-;<span class=\"text-smallcaps\">L</span>-Threonine methyl ester;Methyl <span class=\"text-smallcaps\">L</span>-threoninate;Methyl 2(<em>S</em>):3(<em>R</em>)-threoninate;Methyl threoninate;Threonine methyl ester;NSC 287508",
    "duplicated_cas_no": "24425-82-9;59790-72-6;1384421-35-5",
    "SMILES": "[C@@H](C(OC)=O)([C@@H](C)O)N",
    "meta_data": {
        "InChI": "InChI=1S/C5H11NO3/c1-3(7)4(6)5(8)9-2/h3-4,7H,6H2,1-2H3/t3-,4+/m1/s1",
        "InChIKey": null,
        "Canonical SMILES": "O=C(OC)C(N)C(O)C",
        "Molecular Formula": "C<sub>5</sub>H<sub>11</sub>NO<sub>3</sub>",
        "Molecular Mass": "133.15",
        "Melting Point": "213-214 °C"
    }
}