{
    "cas_no": "1072-14-6",
    "key_name": "Hexylsilane",
    "cn_name": null,
    "alternate_name": "Silane, hexyl-;Hexylsilane;<em>n</em>-Hexylsilane;NSC 168691",
    "duplicated_cas_no": "149158-62-3",
    "SMILES": "C(CCC)CC[SiH3]",
    "meta_data": {
        "InChI": "InChI=1S/C6H16Si/c1-2-3-4-5-6-7/h2-6H2,1,7H3",
        "InChIKey": null,
        "Canonical SMILES": "CCCCCC[SiH3]",
        "Molecular Formula": "C<sub>6</sub>H<sub>16</sub>Si",
        "Molecular Mass": "116.28",
        "Boiling Point": "114-115 °C",
        "Density": "0.718 g/cm³"
    }
}