{
    "cas_no": "382-26-3",
    "key_name": "1,1,1,3,3-Pentafluoro-3-methoxy-2-(trifluoromethyl)propane",
    "cn_name": null,
    "alternate_name": "Propane, 1,1,1,3,3-pentafluoro-3-methoxy-2-(trifluoromethyl)-;Ether, methyl 1,1,3,3,3-pentafluoro-2-(trifluoromethyl)propyl;Propane, 2-(difluoromethoxymethyl)-1,1,1,3,3,3-hexafluoro-;1,1,1,3,3-Pentafluoro-3-methoxy-2-(trifluoromethyl)propane;2<em>H</em>-Octafluoroisobutyl methyl ether;1,1,3,3,3-Pentafluoro-1-methoxy-2-(trifluoromethyl)propane;2-(Difluoro(methoxy)methyl)-1,1,1,3,3,3-hexafluoropropane;1,1,3,3,3-Pentafluoro-2-trifluoromethylpropyl methyl ether;1,1,1,3,3-Pentafluoro-2-(trifluoromethyl)-4-oxapentane",
    "duplicated_cas_no": "",
    "SMILES": "C(C(OC)(F)F)(C(F)(F)F)C(F)(F)F",
    "meta_data": {
        "InChI": "InChI=1S/C5H4F8O/c1-14-5(12,13)2(3(6,7)8)4(9,10)11/h2H,1H3",
        "InChIKey": null,
        "Canonical SMILES": "FC(F)(F)C(C(F)(F)F)C(F)(F)OC",
        "Molecular Formula": "C<sub>5</sub>H<sub>4</sub>F<sub>8</sub>O",
        "Molecular Mass": "232.07",
        "Boiling Point": "68.5 °C @ Press: 760 Torr",
        "Density": "1.4931 g/cm³ @ Temp: 25 °C"
    }
}