{
    "cas_no": "121-03-9",
    "key_name": "2-Methyl-5-nitrobenzenesulfonic acid",
    "cn_name": "4-硝基甲苯-2-磺酸;对硝基甲苯邻磺酸;",
    "alternate_name": "Benzenesulfonic acid, 2-methyl-5-nitro-;<em>o</em>-Toluenesulfonic acid, 5-nitro-;2-Methyl-5-nitrobenzenesulfonic acid;<em>p</em>-Nitrotoluene-<em>o</em>-sulfonic acid;PNTOS;4-Nitro-2-toluenesulfonic acid;5-Nitro-<em>o</em>-toluenesulfonic acid;5-Nitro-2-methylbenzenesulfonic acid;NSC 9580",
    "duplicated_cas_no": "",
    "SMILES": "S(=O)(=O)(O)C1=CC(N(=O)=O)=CC=C1C",
    "meta_data": {
        "InChI": "InChI=1S/C7H7NO5S/c1-5-2-3-6(8(9)10)4-7(5)14(11,12)13/h2-4H,1H3,(H,11,12,13)",
        "InChIKey": null,
        "Canonical SMILES": "O=N(=O)C1=CC=C(C(=C1)S(=O)(=O)O)C",
        "Molecular Formula": "C<sub>7</sub>H<sub>7</sub>NO<sub>5</sub>S",
        "Molecular Mass": "217.20",
        "Melting Point": "133.5 °C"
    }
}