{
    "cas_no": "2551-83-9",
    "key_name": "Allyltrimethoxysilane",
    "cn_name": "烯丙基三甲氧基硅烷;",
    "alternate_name": "Silane, trimethoxy-2-propen-1-yl-;Silane, allyltrimethoxy-;Silane, trimethoxy-2-propenyl-;Trimethoxy-2-propen-1-ylsilane;Allyltrimethoxysilane;Z 6825;A 1504;SIA 0540.0;SP 3;SP 3 (silane)",
    "duplicated_cas_no": "935441-46-6;2088315-76-6",
    "SMILES": "[Si](CC=C)(OC)(OC)OC",
    "meta_data": {
        "InChI": "InChI=1S/C6H14O3Si/c1-5-6-10(7-2,8-3)9-4/h5H,1,6H2,2-4H3",
        "InChIKey": null,
        "Canonical SMILES": "O(C)[Si](OC)(OC)CC=C",
        "Molecular Formula": "C<sub>6</sub>H<sub>14</sub>O<sub>3</sub>Si",
        "Molecular Mass": "162.26",
        "Boiling Point": "146-148 °C",
        "Density": "0.963 g/cm³ @ Temp: 25 °C"
    }
}