{
    "cas_no": "13177-41-8",
    "key_name": "<em>N</em>-Octadecyl-<em>N</em>,<em>N</em>-dimethyl-3-ammonio-1-propanesulfonate",
    "cn_name": "N,N-二甲基-N-(3-磺丙基)-1-十八烷铵内盐;",
    "alternate_name": "1-Octadecanaminium, <em>N</em>,<em>N</em>-dimethyl-<em>N</em>-(3-sulfopropyl)-, inner salt;Ammonium, dimethyloctadecyl(3-sulfopropyl)-, hydroxide, inner salt;1-Octadecanaminium, <em>N</em>,<em>N</em>-dimethyl-<em>N</em>-(3-sulfopropyl)-, hydroxide, inner salt;Dimethyloctadecyl(3-sulfopropyl)ammonium hydroxide, inner salt;<em>N</em>-(Stearylamino)sulfobetaine;3-(<em>N</em>-Octadecyl-<em>N</em>,<em>N</em>-dimethylammonio)propane-1-sulfonate;3-(<em>N</em>,<em>N</em>-Dimethyl-<em>N</em>-octadecylammonio)propane-1-sulfonate;3-(Octadecyldimethylammonio)-1-propanesulfonate;<em>N</em>-Stearyl-<em>N</em>,<em>N</em>-dimethyl-<em>N</em>-(3-sulfopropyl)ammonium betaine;<em>N</em>-Octadecyl-<em>N</em>,<em>N</em>-dimethyl-3-ammonio-1-propanesulfonate;SB 3-18;SB<sub>18</sub>;Sulfobetaine 18;3-(<em>N</em>,<em>N</em>-Dimethylstearylammonio)propanesulfonate;3-(Dimethyloctadecylammonio)propanesulfonate;3-(<em>N</em>,<em>N</em>-Dimethyloctadecylammonio)propanesulfonate;Octadecyl 3-hydroxypropyl sulfobetaine;Sulfobetaine 3-18;Stearyldimethylsulfopropylbetaine;3-(N,N-Dimethyloctadecylammonio)propanesulfonate;ASC 18",
    "duplicated_cas_no": "",
    "SMILES": "C([N+](CCCS(=O)(=O)[O-])(C)C)CCCCCCCCCCCCCCCCC",
    "meta_data": {
        "InChI": "InChI=1S/C23H49NO3S/c1-4-5-6-7-8-9-10-11-12-13-14-15-16-17-18-19-21-24(2,3)22-20-23-28(25,26)27/h4-23H2,1-3H3",
        "InChIKey": null,
        "Canonical SMILES": "O=S(=O)([O-])CCC[N+](C)(C)CCCCCCCCCCCCCCCCCC",
        "Molecular Formula": "C<sub>23</sub>H<sub>49</sub>NO<sub>3</sub>S",
        "Molecular Mass": "",
        "Melting Point": "280-285 °C (decomp)"
    }
}