{
    "cas_no": "6339-87-3",
    "key_name": "2-Thiophenesulfonamide",
    "cn_name": "2-噻吩磺酰胺;",
    "alternate_name": "2-Thiophenesulfonamide;2-Thienylsulfonamide;NSC 42521",
    "duplicated_cas_no": "",
    "SMILES": "S(N)(=O)(=O)C1=CC=CS1",
    "meta_data": {
        "InChI": "InChI=1S/C4H5NO2S2/c5-9(6,7)4-2-1-3-8-4/h1-3H,(H2,5,6,7)",
        "InChIKey": null,
        "Canonical SMILES": "O=S(=O)(N)C=1SC=CC1",
        "Molecular Formula": "C<sub>4</sub>H<sub>5</sub>NO<sub>2</sub>S<sub>2</sub>",
        "Molecular Mass": "163.22",
        "Melting Point": "147 °C"
    }
}