{
    "cas_no": "39920-37-1",
    "key_name": "2,6-Dichlorophenyl isocyanate",
    "cn_name": "2,6-二氯苯基异氰酸酯;",
    "alternate_name": "Benzene, 1,3-dichloro-2-isocyanato-;1,3-Dichloro-2-isocyanatobenzene;2,6-Dichlorophenyl isocyanate",
    "duplicated_cas_no": "",
    "SMILES": "N(=C=O)C1=C(Cl)C=CC=C1Cl",
    "meta_data": {
        "InChI": "InChI=1S/C7H3Cl2NO/c8-5-2-1-3-6(9)7(5)10-4-11/h1-3H",
        "InChIKey": null,
        "Canonical SMILES": "O=C=NC=1C(Cl)=CC=CC1Cl",
        "Molecular Formula": "C<sub>7</sub>H<sub>3</sub>Cl<sub>2</sub>NO",
        "Molecular Mass": "188.01",
        "Melting Point": "40-45 °C"
    }
}