{
    "cas_no": "64473-35-4",
    "key_name": "1-(3-Bromopropyl)-4-chlorobenzene",
    "cn_name": null,
    "alternate_name": "Benzene, 1-(3-bromopropyl)-4-chloro-;1-(3-Bromopropyl)-4-chlorobenzene;3-(4-Chlorophenyl)propyl bromide;1-(3-Bromopropyl)4-chlorobenzene;3-(4-Chlorophenyl)-1-bromopropane;1-Chloro-4-(3-bromopropyl)benzene",
    "duplicated_cas_no": "",
    "SMILES": "C(CCBr)C1=CC=C(Cl)C=C1",
    "meta_data": {
        "InChI": "InChI=1S/C9H10BrCl/c10-7-1-2-8-3-5-9(11)6-4-8/h3-6H,1-2,7H2",
        "InChIKey": null,
        "Canonical SMILES": "ClC1=CC=C(C=C1)CCCBr",
        "Molecular Formula": "C<sub>9</sub>H<sub>10</sub>BrCl",
        "Molecular Mass": "233.53",
        "Boiling Point": "92 °C @ Press: 0.3 Torr"
    }
}