{
    "cas_no": "121177-93-3",
    "key_name": "(Methacryloxymethyl)methyldimethoxysilane",
    "cn_name": null,
    "alternate_name": "2-Propenoic acid, 2-methyl-, (dimethoxymethylsilyl)methyl ester;Geniosil XL 32;XL 32;(Dimethoxy)(methacryloyloxymethyl)(methyl)silane;(Methacryloxymethyl)methyldimethoxysilane;Methacryloxymethylenemethyldimethoxysilane;Methacryloyloxymethylmethyldimethoxysilane;[Dimethoxy(methyl)silyl]methyl 2-methylprop-2-enoate;(Dimethoxy(methyl)silyl)methyl methacrylate",
    "duplicated_cas_no": "",
    "SMILES": "[Si](COC(C(C)=C)=O)(OC)(OC)C",
    "meta_data": {
        "InChI": "InChI=1S/C8H16O4Si/c1-7(2)8(9)12-6-13(5,10-3)11-4/h1,6H2,2-5H3",
        "InChIKey": null,
        "Canonical SMILES": "O=C(OC[Si](OC)(OC)C)C(=C)C",
        "Molecular Formula": "C<sub>8</sub>H<sub>16</sub>O<sub>4</sub>Si",
        "Molecular Mass": "204.30",
        "Boiling Point": "205 °C",
        "Density": "1.02 g/cm³"
    }
}