{
    "cas_no": "72755-25-0",
    "key_name": "Senecivernine",
    "cn_name": null,
    "alternate_name": "[1,6]Dioxacyclododecino[2,3,4-<em>gh</em>]pyrrolizine-2,7-dione, 3,4,5,6,9,11,13,14,14a,14b-decahydro-6-hydroxy-4,5,6-trimethyl-3-methylene-, (4<em>R</em>,5<em>R</em>,6<em>R</em>,14a<em>R</em>,14b<em>R</em>)-;21-Norsenecionan-11,16-dione, 12-hydroxy-14-methyl-, (14α)-;(4<em>R</em>,5<em>R</em>,6<em>R</em>,14a<em>R</em>,14b<em>R</em>)-3,4,5,6,9,11,13,14,14a,14b-Decahydro-6-hydroxy-4,5,6-trimethyl-3-methylene[1,6]dioxacyclododecino[2,3,4-<em>gh</em>]pyrrolizine-2,7-dione;Senecivernine;[1,6]Dioxacyclododecino[2,3,4-<em>gh</em>]pyrrolizine-2,7-dione, 3,4,5,6,9,11,13,14,14a,14b-decahydro-6-hydroxy-4,5,6-trimethyl-3-methylene-, [4<em>R</em>-(4<em>R</em>*,5<em>R</em>*,6<em>R</em>*,14a<em>R</em>*,14b<em>R</em>*)]-",
    "duplicated_cas_no": "",
    "SMILES": "O=C1OC2C3N(CC2)CC=C3COC(=O)C(C)(O)C(C)C(C)C1=C",
    "meta_data": {
        "InChI": "InChI=1S/C18H25NO5/c1-10-11(2)16(20)24-14-6-8-19-7-5-13(15(14)19)9-23-17(21)18(4,22)12(10)3/h5,10,12,14-15,22H,2,6-9H2,1,3-4H3",
        "InChIKey": null,
        "Canonical SMILES": "O=C1OC2CCN3CC=C(COC(=O)C(O)(C)C(C)C(C1=C)C)C32",
        "Molecular Formula": "C<sub>18</sub>H<sub>25</sub>NO<sub>5</sub>",
        "Molecular Mass": "335.39",
        "Melting Point": "105-107 °C"
    }
}