{
    "cas_no": "3779-42-8",
    "key_name": "1-Propanaminium, 3-bromo-<em>N</em>,<em>N</em>,<em>N</em>-trimethyl-, bromide (1:1)",
    "cn_name": "(3-溴丙基)三甲基溴化铵;3-溴丙基三甲基溴化铵;",
    "alternate_name": "1-Propanaminium, 3-bromo-<em>N</em>,<em>N</em>,<em>N</em>-trimethyl-, bromide (1:1);Ammonium, (3-bromopropyl)trimethyl-, bromide;1-Propanaminium, 3-bromo-<em>N</em>,<em>N</em>,<em>N</em>-trimethyl-, bromide;(3-Bromopropyl)trimethylammonium bromide;<em>N</em>,<em>N</em>,<em>N</em>-Trimethyl-<em>N</em>-3-bromopropylammonium bromide;3-Bromo-<em>N</em>,<em>N</em>,<em>N</em>-trimethyl-1-propanaminium bromide;(3-Bromopropyl)trimethylazanium bromide",
    "duplicated_cas_no": "201792-27-0",
    "SMILES": "C([N+](C)(C)C)CCBr.[Br-]",
    "meta_data": {
        "InChI": "InChI=1S/C6H15BrN.BrH/c1-8(2,3)6-4-5-7;/h4-6H2,1-3H3;1H/q+1;/p-1",
        "InChIKey": null,
        "Canonical SMILES": "[Br-].BrCCC[N+](C)(C)C",
        "Molecular Formula": "C<sub>6</sub>H<sub>15</sub>BrN.Br",
        "Molecular Mass": "",
        "Melting Point": "208 °C"
    }
}