{
    "cas_no": "120157-96-2",
    "key_name": "Methyl 4-[[[(1,1-dimethylethoxy)carbonyl]amino]methyl]benzoate",
    "cn_name": null,
    "alternate_name": "Benzoic acid, 4-[[[(1,1-dimethylethoxy)carbonyl]amino]methyl]-, methyl ester;Methyl 4-[[[(1,1-dimethylethoxy)carbonyl]amino]methyl]benzoate;Methyl 4-[[<em>N</em>-(<em>tert</em>-butoxycarbonyl)amino]methyl]benzoate;4-[(<em>N</em>-(<em>tert</em>-Butoxycarbonyl)amino)methyl]benzoic acid methyl ester;4-[[(tert-butoxycarbonyl)amino]methyl]benzoic acid methyl ester;Methyl 4-[[(<em>tert</em>-butoxycarbonyl)amino]methyl]benzoate",
    "duplicated_cas_no": "",
    "SMILES": "C(NC(OC(C)(C)C)=O)C1=CC=C(C(OC)=O)C=C1",
    "meta_data": {
        "InChI": "InChI=1S/C14H19NO4/c1-14(2,3)19-13(17)15-9-10-5-7-11(8-6-10)12(16)18-4/h5-8H,9H2,1-4H3,(H,15,17)",
        "InChIKey": null,
        "Canonical SMILES": "O=C(OC(C)(C)C)NCC1=CC=C(C=C1)C(=O)OC",
        "Molecular Formula": "C<sub>14</sub>H<sub>19</sub>NO<sub>4</sub>",
        "Molecular Mass": "265.30",
        "Melting Point": "73.5-74 °C"
    }
}