{
    "cas_no": "4606-65-9",
    "key_name": "3-Piperidinemethanol",
    "cn_name": "3-羟甲基哌啶;3-甲醇哌啶;3-哌啶甲醇;",
    "alternate_name": "3-Piperidinemethanol;3-Pipecolin-α-ol;3-(Hydroxymethyl)piperidine;(3-Piperidinyl)methanol;(Piperidin-3-yl)methanol;(3-Piperidyl)methanol",
    "duplicated_cas_no": "136982-27-9",
    "SMILES": "C(O)C1CCCNC1",
    "meta_data": {
        "InChI": "InChI=1S/C6H13NO/c8-5-6-2-1-3-7-4-6/h6-8H,1-5H2",
        "InChIKey": null,
        "Canonical SMILES": "OCC1CNCCC1",
        "Molecular Formula": "C<sub>6</sub>H<sub>13</sub>NO",
        "Molecular Mass": "115.17",
        "Boiling Point": "106-107 °C @ Press: 3.5 Torr",
        "Melting Point": "61 °C",
        "Density": "1.0263 g/cm³ @ Temp: 20 °C"
    }
}