{
    "cas_no": "2442-10-6",
    "key_name": "1-Octen-3-yl acetate",
    "cn_name": "1-辛烯-3-醇乙酸酯;",
    "alternate_name": "1-Octen-3-ol, 3-acetate;1-Octen-3-ol, acetate;1-Octen-3-yl acetate;1-Pentylallyl acetate;Amylvinylcarbinol acetate;3-Acetoxy-1-octene;1-Octenyl-3-yl acetate",
    "duplicated_cas_no": "74072-82-5;1629672-62-3",
    "SMILES": "C(CCCCC)(OC(C)=O)C=C",
    "meta_data": {
        "InChI": "InChI=1S/C10H18O2/c1-4-6-7-8-10(5-2)12-9(3)11/h5,10H,2,4,6-8H2,1,3H3",
        "InChIKey": null,
        "Canonical SMILES": "O=C(OC(C=C)CCCCC)C",
        "Molecular Formula": "C<sub>10</sub>H<sub>18</sub>O<sub>2</sub>",
        "Molecular Mass": "170.25",
        "Boiling Point": "79-80 °C @ Press: 12 Torr",
        "Density": "0.8733 g/cm³ @ Temp: 20 °C"
    }
}