{
    "cas_no": "71607-31-3",
    "key_name": "Butanedioic acid, 2,3-bis[(4-methylbenzoyl)oxy]-, hydrate (1:1), (2<em>S</em>,3<em>S</em>)-",
    "cn_name": "L-(-)-对甲基二苯甲酰酒石酸(一水物);",
    "alternate_name": "Butanedioic acid, 2,3-bis[(4-methylbenzoyl)oxy]-, hydrate (1:1), (2<em>S</em>,3<em>S</em>)-;Butanedioic acid, 2,3-bis[(4-methylbenzoyl)oxy]-, monohydrate, [<em>S</em>-(<em>R</em>*,<em>R</em>*)]-;Butanedioic acid, 2,3-bis[(4-methylbenzoyl)oxy]-, monohydrate, (2<em>S</em>,3<em>S</em>)-",
    "duplicated_cas_no": "672310-01-9",
    "SMILES": "[C@@H]([C@H](OC(=O)C1=CC=C(C)C=C1)C(O)=O)(OC(=O)C2=CC=C(C)C=C2)C(O)=O.O",
    "meta_data": {
        "InChI": "InChI=1S/C20H18O8.H2O/c1-11-3-7-13(8-4-11)19(25)27-15(17(21)22)16(18(23)24)28-20(26)14-9-5-12(2)6-10-14;/h3-10,15-16H,1-2H3,(H,21,22)(H,23,24);1H2/t15-,16-;/m0./s1",
        "InChIKey": null,
        "Canonical SMILES": "O=C(OC(C(=O)O)C(OC(=O)C1=CC=C(C=C1)C)C(=O)O)C2=CC=C(C=C2)C.O",
        "Molecular Formula": "C<sub>20</sub>H<sub>18</sub>O<sub>8</sub>.H<sub>2</sub>O",
        "Molecular Mass": "",
        "Melting Point": "170 °C"
    }
}