{
    "cas_no": "830-03-5",
    "key_name": "4-Nitrophenyl acetate",
    "cn_name": "4-硝基苯基乙酸酯;",
    "alternate_name": "Acetic acid, 4-nitrophenyl ester;Acetic acid, <em>p</em>-nitrophenyl ester;Phenol, <em>p</em>-nitro-, acetate;<em>p</em>-Nitrophenol acetate;<em>p</em>-Nitrophenyl acetate;4-Nitrophenyl acetate;<em>p</em>-Acetoxynitrobenzene;<em>p</em>-Nitrobenzene acetate;NSC 2633;4-Acetyloxy-1-nitrobenzene",
    "duplicated_cas_no": "",
    "SMILES": "O(C(C)=O)C1=CC=C(N(=O)=O)C=C1",
    "meta_data": {
        "InChI": "InChI=1S/C8H7NO4/c1-6(10)13-8-4-2-7(3-5-8)9(11)12/h2-5H,1H3",
        "InChIKey": null,
        "Canonical SMILES": "O=C(OC1=CC=C(C=C1)N(=O)=O)C",
        "Molecular Formula": "C<sub>8</sub>H<sub>7</sub>NO<sub>4</sub>",
        "Molecular Mass": "181.15",
        "Melting Point": "78 °C"
    }
}