{
    "cas_no": "68278-23-9",
    "key_name": "Eflornithine hydrochloride",
    "cn_name": null,
    "alternate_name": "Ornithine, 2-(difluoromethyl)-, hydrochloride (1:1);<span class=\"text-smallcaps\">DL</span>-Ornithine, 2-(difluoromethyl)-, monohydrochloride;Ornithine, 2-(difluoromethyl)-, monohydrochloride;Eflornithine hydrochloride;Vaniqa;NSC 270295;NSC 337250;DFMO HCl;2,5-Diamino-2-(difluoromethyl)pentanoic acid hydrochloride",
    "duplicated_cas_no": "70050-56-5",
    "SMILES": "C(CCCN)(C(F)F)(C(O)=O)N.Cl",
    "meta_data": {
        "InChI": "InChI=1S/C6H12F2N2O2.ClH/c7-4(8)6(10,5(11)12)2-1-3-9;/h4H,1-3,9-10H2,(H,11,12);1H",
        "InChIKey": null,
        "Canonical SMILES": "Cl.O=C(O)C(N)(CCCN)C(F)F",
        "Molecular Formula": "C<sub>6</sub>H<sub>12</sub>F<sub>2</sub>N<sub>2</sub>O<sub>2</sub>.ClH",
        "Molecular Mass": "",
        "Melting Point": "183 °C"
    }
}