{
    "cas_no": "24347-58-8",
    "key_name": "(2<em>R</em>,3<em>R</em>)-Butanediol",
    "cn_name": null,
    "alternate_name": "2,3-Butanediol, (2<em>R</em>,3<em>R</em>)-;2,3-Butanediol, (2<em>R</em>,3<em>R</em>)-(-)-;2,3-Butanediol, [<em>R</em>-(<em>R</em>*,<em>R</em>*)]-;(2<em>R</em>,3<em>R</em>)-2,3-Butanediol;<em>levo</em>-2,3-Butanediol;(-)-2,3-Butanediol;(<em>R</em>,<em>R</em>)-(-)-2,3-Butanediol;(-)-(2<em>R</em>,3<em>R</em>)-2,3-Butanediol;<span class=\"text-smallcaps\">D</span>-(-)-2,3-Butanediol;(-)-(2<em>R</em>,3<em>R</em>)-Butanediol;<span class=\"text-smallcaps\">D</span>-2,3-Butanediol;(2<em>R</em>,3<em>R</em>)-(-)-2,3-Butanediol;(<em>R</em>,<em>R</em>)-2,3-Butanediol;(2<em>R</em>,3<em>R</em>)-Butanediol",
    "duplicated_cas_no": "7225-57-2",
    "SMILES": "[C@H]([C@@H](C)O)(C)O",
    "meta_data": {
        "InChI": "InChI=1S/C4H10O2/c1-3(5)4(2)6/h3-6H,1-2H3/t3-,4-/m1/s1",
        "InChIKey": null,
        "Canonical SMILES": "OC(C)C(O)C",
        "Molecular Formula": "C<sub>4</sub>H<sub>10</sub>O<sub>2</sub>",
        "Molecular Mass": "90.12",
        "Boiling Point": "77.5-77.6 °C @ Press: 10 Torr",
        "Melting Point": "19.4-19.7 °C",
        "Density": "0.9869 g/cm³ @ Temp: 25 °C"
    }
}