{
    "cas_no": "2476-37-1",
    "key_name": "1-(2,5-Dichlorophenyl)ethanone",
    "cn_name": "2,5-二氯苯乙酮;",
    "alternate_name": "Ethanone, 1-(2,5-dichlorophenyl)-;Acetophenone, 2′,5′-dichloro-;1-(2,5-Dichlorophenyl)ethanone;2′,5′-Dichloroacetophenone;NSC 6308;2,5-Chloroacetophenone;1-(2,5-Dichlorophenyl)ethan-1-one",
    "duplicated_cas_no": "",
    "SMILES": "C(C)(=O)C1=C(Cl)C=CC(Cl)=C1",
    "meta_data": {
        "InChI": "InChI=1S/C8H6Cl2O/c1-5(11)7-4-6(9)2-3-8(7)10/h2-4H,1H3",
        "InChIKey": null,
        "Canonical SMILES": "O=C(C1=CC(Cl)=CC=C1Cl)C",
        "Molecular Formula": "C<sub>8</sub>H<sub>6</sub>Cl<sub>2</sub>O",
        "Molecular Mass": "189.04",
        "Boiling Point": "102-104 °C @ Press: 3 Torr",
        "Melting Point": "12 °C",
        "Density": "1.352 g/cm³ @ Temp: 17.54 °C"
    }
}