{
    "cas_no": "635-41-6",
    "key_name": "Trimetozine",
    "cn_name": "三甲氧啉;三甲氧苯酰吗啉;曲美托嗪;",
    "alternate_name": "Methanone, 4-morpholinyl(3,4,5-trimethoxyphenyl)-;Morpholine, 4-(3,4,5-trimethoxybenzoyl)-;4-Morpholinyl(3,4,5-trimethoxyphenyl)methanone;Trimethoxazine;4-(3,4,5-Trimethoxybenzoyl)morpholine;Trimetozine;Trioxazin;Trioxazine;Sedoxazine;<em>N</em>-(3,4,5-Trimethoxybenzoyl)tetrahydro-1,4-oxazine;Trifenoxazin;Trimetozin;PS 2383;4-(3,4,5-Trimethoxybenzoyl)tetrahydro-1,4-oxazine;Opalene;NSC 62939;V 7;Abbott 22370",
    "duplicated_cas_no": "",
    "SMILES": "C(=O)(C1=CC(OC)=C(OC)C(OC)=C1)N2CCOCC2",
    "meta_data": {
        "InChI": "InChI=1S/C14H19NO5/c1-17-11-8-10(9-12(18-2)13(11)19-3)14(16)15-4-6-20-7-5-15/h8-9H,4-7H2,1-3H3",
        "InChIKey": null,
        "Canonical SMILES": "O=C(C1=CC(OC)=C(OC)C(OC)=C1)N2CCOCC2",
        "Molecular Formula": "C<sub>14</sub>H<sub>19</sub>NO<sub>5</sub>",
        "Molecular Mass": "281.30",
        "Melting Point": "121 °C"
    }
}