{
    "cas_no": "1609-93-4",
    "key_name": "(2<em>Z</em>)-3-Chloro-2-propenoic acid",
    "cn_name": "cis-3-氯丙烯酸;cis-3-氯丙烯酸;顺-3-氯代丙烯酸;顺-3-氯代丙烯酸, 98+%;",
    "alternate_name": "2-Propenoic acid, 3-chloro-, (2<em>Z</em>)-;Acrylic acid, 3-chloro-, (<em>Z</em>)-;2-Propenoic acid, 3-chloro-, (<em>Z</em>)-;Acrylic acid, 3-chloro-, <em>cis</em>-;(2<em>Z</em>)-3-Chloro-2-propenoic acid;<em>cis</em>-3-Chloroacrylic acid;<em>cis</em>-β-Chloroacrylic acid;(<em>Z</em>)-β-Chloroacrylic acid;(<em>Z</em>)-3-Chloroacrylic acid;(Z)-3-Chloroacrylic acid;(<em>Z</em>)-3-Chloro-2-propenoic acid",
    "duplicated_cas_no": "",
    "SMILES": "C(\\C(O)=O)=C\\Cl",
    "meta_data": {
        "InChI": "InChI=1S/C3H3ClO2/c4-2-1-3(5)6/h1-2H,(H,5,6)/b2-1-",
        "InChIKey": null,
        "Canonical SMILES": "O=C(O)C=CCl",
        "Molecular Formula": "C<sub>3</sub>H<sub>3</sub>ClO<sub>2</sub>",
        "Molecular Mass": "106.51",
        "Melting Point": "63-64 °C"
    }
}