{
    "cas_no": "75-72-9",
    "key_name": "Chlorotrifluoromethane",
    "cn_name": "三氟一氯甲烷;氟利昂-13;制冷剂-13;氟里昂-13;三氟氯甲烷;",
    "alternate_name": "Methane, chlorotrifluoro-;Chlorotrifluoromethane;F 13;Freon 13;Arcton 3;Genetron 13;Trifluorochloromethane;Trifluoromonochlorocarbon;R 13 (refrigerant);Trifluoromethyl chloride;Monochlorotrifluoromethane;FC 13;Frigen 13;Refrigerant 13;Freon R 13;CFC 13;FKW 13;Khladon 13;R 13;Refrigerant R 13;F 13 (refrigerant);HFC 13",
    "duplicated_cas_no": "185009-43-2;1519044-52-0",
    "SMILES": "C(Cl)(F)(F)F",
    "meta_data": {
        "InChI": "InChI=1S/CClF3/c2-1(3,4)5",
        "InChIKey": null,
        "Canonical SMILES": "FC(F)(F)Cl",
        "Molecular Formula": "CClF<sub>3</sub>",
        "Molecular Mass": "104.46",
        "Boiling Point": "-81.4 °C @ Press: 760 Torr",
        "Melting Point": "-181 °C",
        "Density": "1.3 g/cm³"
    }
}