{
    "cas_no": "767-16-8",
    "key_name": "6-Amino-2-methyl-4(3<em>H</em>)-pyrimidinone",
    "cn_name": "4-氨基-6-羟基-2-甲基嘧啶;4-氨基-6-羟基-2-甲基嘧啶;",
    "alternate_name": "4(3<em>H</em>)-Pyrimidinone, 6-amino-2-methyl-;4-Pyrimidinol, 6-amino-2-methyl-;4(1<em>H</em>)-Pyrimidinone, 6-amino-2-methyl-;6-Amino-2-methyl-4(3<em>H</em>)-pyrimidinone;2-Methyl-4-amino-6-hydroxypyrimidine;2-Methyl-4-amino-6-oxypyrimidine;4-Amino-6-hydroxy-2-methylpyrimidine;NSC 171558;NSC 26362;6-Amino-2-methylpyrimidin-4-ol",
    "duplicated_cas_no": "",
    "SMILES": "NC1=CC(=O)N=C(C)N1",
    "meta_data": {
        "InChI": "InChI=1S/C5H7N3O/c1-3-7-4(6)2-5(9)8-3/h2H,1H3,(H3,6,7,8,9)",
        "InChIKey": null,
        "Canonical SMILES": "O=C1N=C(NC(N)=C1)C",
        "Molecular Formula": "C<sub>5</sub>H<sub>7</sub>N<sub>3</sub>O",
        "Molecular Mass": "125.13",
        "Melting Point": "290 °C"
    }
}