{
    "cas_no": "1869-24-5",
    "key_name": "2-(Trifluoromethyl)benzenesulfonamide",
    "cn_name": "2-三氟甲基苯磺酰胺;邻三氟甲基苯磺酰胺;",
    "alternate_name": "Benzenesulfonamide, 2-(trifluoromethyl)-;<em>o</em>-Toluenesulfonamide, α,α,α-trifluoro-;2-(Trifluoromethyl)benzenesulfonamide;2-(Trifluoromethyl)benzene-1-sulfonamide",
    "duplicated_cas_no": "",
    "SMILES": "C(F)(F)(F)C1=C(S(N)(=O)=O)C=CC=C1",
    "meta_data": {
        "InChI": "InChI=1S/C7H6F3NO2S/c8-7(9,10)5-3-1-2-4-6(5)14(11,12)13/h1-4H,(H2,11,12,13)",
        "InChIKey": null,
        "Canonical SMILES": "O=S(=O)(N)C=1C=CC=CC1C(F)(F)F",
        "Molecular Formula": "C<sub>7</sub>H<sub>6</sub>F<sub>3</sub>NO<sub>2</sub>S",
        "Molecular Mass": "225.19",
        "Melting Point": "184-185 °C"
    }
}