{
    "cas_no": "2725-81-7",
    "key_name": "6-Nitrocoumarin",
    "cn_name": "6-硝基香豆素;",
    "alternate_name": "2<em>H</em>-1-Benzopyran-2-one, 6-nitro-;Coumarin, 6-nitro-;6-Nitro-2<em>H</em>-1-benzopyran-2-one;6-Nitrocoumarin;NSC 46626;6-Nitro-2<em>H</em>-chromen-2-one",
    "duplicated_cas_no": "",
    "SMILES": "N(=O)(=O)C=1C=C2C(OC(=O)C=C2)=CC1",
    "meta_data": {
        "InChI": "InChI=1S/C9H5NO4/c11-9-4-1-6-5-7(10(12)13)2-3-8(6)14-9/h1-5H",
        "InChIKey": null,
        "Canonical SMILES": "O=C1OC=2C=CC(=CC2C=C1)N(=O)=O",
        "Molecular Formula": "C<sub>9</sub>H<sub>5</sub>NO<sub>4</sub>",
        "Molecular Mass": "191.14",
        "Melting Point": "173 °C"
    }
}