{
    "cas_no": "883-40-9",
    "key_name": "1,1′-(Diazomethylene)bis[benzene]",
    "cn_name": "二苯基重氮甲烷;",
    "alternate_name": "Benzene, 1,1′-(diazomethylene)bis-;Methane, diazodiphenyl-;1,1′-(Diazomethylene)bis[benzene];Diphenyldiazomethane;Diazodiphenylmethane;1,1-Diphenyldiazomethane;Diphenylazomethane;[Diazo(phenyl)methyl]benzene",
    "duplicated_cas_no": "1207-01-8;79602-67-8;96026-08-3;908093-98-1",
    "SMILES": "C(=[N+]=[N-])(C1=CC=CC=C1)C2=CC=CC=C2",
    "meta_data": {
        "InChI": "InChI=1S/C13H10N2/c14-15-13(11-7-3-1-4-8-11)12-9-5-2-6-10-12/h1-10H",
        "InChIKey": null,
        "Canonical SMILES": "[N-]=[N+]=C(C=1C=CC=CC1)C=2C=CC=CC2",
        "Molecular Formula": "C<sub>13</sub>H<sub>10</sub>N<sub>2</sub>",
        "Molecular Mass": "",
        "Boiling Point": "40 °C @ Press: 8 Torr",
        "Melting Point": "29-30 °C"
    }
}