{
    "cas_no": "1570-45-2",
    "key_name": "Ethyl isonicotinate",
    "cn_name": "异烟酸乙酯;",
    "alternate_name": "4-Pyridinecarboxylic acid, ethyl ester;Isonicotinic acid, ethyl ester;Ethyl isonicotinate;4-Carbethoxypyridine;Ethyl 4-pyridinecarboxylate;4-Carboethoxypyridine;γ-Pyridinecarboxylic acid ethyl ester;4-Ethoxycarbonylpyridine;NSC 6854",
    "duplicated_cas_no": "",
    "SMILES": "C(OCC)(=O)C=1C=CN=CC1",
    "meta_data": {
        "InChI": "InChI=1S/C8H9NO2/c1-2-11-8(10)7-3-5-9-6-4-7/h3-6H,2H2,1H3",
        "InChIKey": null,
        "Canonical SMILES": "O=C(OCC)C=1C=CN=CC1",
        "Molecular Formula": "C<sub>8</sub>H<sub>9</sub>NO<sub>2</sub>",
        "Molecular Mass": "151.16",
        "Boiling Point": "219.5 °C",
        "Melting Point": "23 °C",
        "Density": "1.5009 g/cm³ @ Temp: 20 °C"
    }
}