{
    "cas_no": "243128-37-2",
    "key_name": "4-Fluoro-3-methoxybenzonitrile",
    "cn_name": "4-氟-3-甲氧基苯腈;4-氟-3-甲氧基苯甲腈;",
    "alternate_name": "Benzonitrile, 4-fluoro-3-methoxy-;4-Fluoro-3-methoxybenzonitrile;3-Methoxy-4-fluorobenzonitrile",
    "duplicated_cas_no": "",
    "SMILES": "O(C)C1=CC(C#N)=CC=C1F",
    "meta_data": {
        "InChI": "InChI=1S/C8H6FNO/c1-11-8-4-6(5-10)2-3-7(8)9/h2-4H,1H3",
        "InChIKey": null,
        "Canonical SMILES": "N#CC1=CC=C(F)C(OC)=C1",
        "Molecular Formula": "C<sub>8</sub>H<sub>6</sub>FNO",
        "Molecular Mass": "151.14",
        "Melting Point": "108-110 °C"
    }
}