{
    "cas_no": "1445-75-6",
    "key_name": "Diisopropyl methylphosphonate",
    "cn_name": "甲基磷酸二异丙酯;",
    "alternate_name": "Phosphonic acid, <em>P</em>-methyl-, bis(1-methylethyl) ester;Phosphonic acid, methyl-, diisopropyl ester;Phosphonic acid, methyl-, bis(1-methylethyl) ester;Diisopropyl methylphosphonate;DIMP;Diisopropyl methanephosphonate;DIMP (phosphonate);<em>O</em>,<em>O</em>-Diisopropyl methylphosphonate;2-[Methyl(propan-2-yloxy)phosphoryl]oxypropane;2-[Isopropoxy(methyl)phosphoryl]oxypropane",
    "duplicated_cas_no": "169301-54-6",
    "SMILES": "O(P(OC(C)C)(C)=O)C(C)C",
    "meta_data": {
        "InChI": "InChI=1S/C7H17O3P/c1-6(2)9-11(5,8)10-7(3)4/h6-7H,1-5H3",
        "InChIKey": null,
        "Canonical SMILES": "O=P(OC(C)C)(OC(C)C)C",
        "Molecular Formula": "C<sub>7</sub>H<sub>17</sub>O<sub>3</sub>P",
        "Molecular Mass": "180.18",
        "Boiling Point": "121.05 °C @ Press: 10 Torr",
        "Melting Point": "&lt;25 °C",
        "Density": "0.976 g/cm³"
    }
}