{
    "cas_no": "2051-30-1",
    "key_name": "2,6-Dimethyloctane",
    "cn_name": "2,6-二甲基辛烷;",
    "alternate_name": "Octane, 2,6-dimethyl-;2,6-Dimethyloctane;Myrcane;NSC 91459",
    "duplicated_cas_no": "",
    "SMILES": "C(CCCC(C)C)(CC)C",
    "meta_data": {
        "InChI": "InChI=1S/C10H22/c1-5-10(4)8-6-7-9(2)3/h9-10H,5-8H2,1-4H3",
        "InChIKey": null,
        "Canonical SMILES": "CCC(C)CCCC(C)C",
        "Molecular Formula": "C<sub>10</sub>H<sub>22</sub>",
        "Molecular Mass": "142.28",
        "Boiling Point": "160.4 °C",
        "Density": "0.741 g/cm³ @ Temp: 0 °C"
    }
}