{
    "cas_no": "865-44-1",
    "key_name": "Iodine trichloride",
    "cn_name": "三氯化碘;",
    "alternate_name": "Iodine chloride (ICl<sub>3</sub>);Iodine trichloride;Trichloroiodine",
    "duplicated_cas_no": "",
    "SMILES": "I(Cl)(Cl)Cl",
    "meta_data": {
        "InChI": "InChI=1S/Cl3I/c1-4(2)3",
        "InChIKey": null,
        "Canonical SMILES": "ClI(Cl)Cl",
        "Molecular Formula": "Cl<sub>3</sub>I",
        "Molecular Mass": "233.26",
        "Melting Point": "~33 °C (approx)"
    }
}