{
    "cas_no": "57544-34-0",
    "key_name": "6-Chloro-2<em>H</em>-1-benzopyran-3-carboxaldehyde",
    "cn_name": null,
    "alternate_name": "2<em>H</em>-1-Benzopyran-3-carboxaldehyde, 6-chloro-;6-Chloro-2<em>H</em>-1-benzopyran-3-carboxaldehyde",
    "duplicated_cas_no": "",
    "SMILES": "C(=O)C1=CC=2C(OC1)=CC=C(Cl)C2",
    "meta_data": {
        "InChI": "InChI=1S/C10H7ClO2/c11-9-1-2-10-8(4-9)3-7(5-12)6-13-10/h1-5H,6H2",
        "InChIKey": null,
        "Canonical SMILES": "O=CC1=CC=2C=C(Cl)C=CC2OC1",
        "Molecular Formula": "C<sub>10</sub>H<sub>7</sub>ClO<sub>2</sub>",
        "Molecular Mass": "194.61",
        "Melting Point": "91-93 °C"
    }
}