{
    "cas_no": "35511-15-0",
    "key_name": "2<em>H</em>-1,2-Benzothiazine-3-carboxylic acid, 4-hydroxy-2-methyl-, methyl ester, 1,1-dioxide",
    "cn_name": "4-羟基-2-甲基-2H-1,2-苯并噻嗪-3-羧酸甲酯-1,1-二氧化物;2-甲基-4-羟基-2H-1,2-苯并异噻嗪-3-羧酸乙酯-1,1;",
    "alternate_name": "2<em>H</em>-1,2-Benzothiazine-3-carboxylic acid, 4-hydroxy-2-methyl-, methyl ester, 1,1-dioxide;2-Methyl-4-hydroxy-2<em>H</em>-1,2-benzothiazine-3-carboxylic acid methyl ester 1,1-dioxide;4-Hydroxy-2-methyl-2<em>H</em>-1,2-benzothiazine-3-carboxylic acid methyl ester 1,1-dioxide;Methyl 4-hydroxy-2-methyl-2<em>H</em>-1,2-benzothiazine-3-carboxylate 1,1-dioxide",
    "duplicated_cas_no": "439254-63-4",
    "SMILES": "OC=1C=2C(S(=O)(=O)N(C)C1C(OC)=O)=CC=CC2",
    "meta_data": {
        "InChI": "InChI=1S/C11H11NO5S/c1-12-9(11(14)17-2)10(13)7-5-3-4-6-8(7)18(12,15)16/h3-6,13H,1-2H3",
        "InChIKey": null,
        "Canonical SMILES": "O=C(OC)C1=C(O)C=2C=CC=CC2S(=O)(=O)N1C",
        "Molecular Formula": "C<sub>11</sub>H<sub>11</sub>NO<sub>5</sub>S",
        "Molecular Mass": "269.27",
        "Melting Point": "165 °C"
    }
}