{
    "cas_no": "18791-21-4",
    "key_name": "3-Hydroxy-<em>N</em>-[(2<em>Z</em>,5<em>R</em>,6<em>S</em>,9<em>S</em>,10<em>S</em>,11<em>R</em>)-10-hydroxy-5,11-dimethyl-2-(1-methylpropylidene)-3,7,12-trioxo-9-(3-pyridinylmethyl)-1,4-dioxa-8-azacyclododec-6-yl]-2-pyridinecarboxamide",
    "cn_name": null,
    "alternate_name": "2-Pyridinecarboxamide, 3-hydroxy-<em>N</em>-[(2<em>Z</em>,5<em>R</em>,6<em>S</em>,9<em>S</em>,10<em>S</em>,11<em>R</em>)-10-hydroxy-5,11-dimethyl-2-(1-methylpropylidene)-3,7,12-trioxo-9-(3-pyridinylmethyl)-1,4-dioxa-8-azacyclododec-6-yl]-;2-Pyridinecarboxamide, 3-hydroxy-<em>N</em>-[10-hydroxy-5,11-dimethyl-2-(1-methylpropylidene)-3,7,12-trioxo-9-(3-pyridinylmethyl)-1,4-dioxa-8-azacyclododec-6-yl]-, [5<em>R</em>-(2<em>Z</em>,5<em>R</em>*,6<em>S</em>*,9<em>S</em>*,10<em>S</em>*,11<em>R</em>*)]-;Pyridomycin;1,4-Dioxa-8-azacyclododecane, 2-pyridinecarboxamide deriv.;3-Hydroxy-<em>N</em>-[(2<em>Z</em>,5<em>R</em>,6<em>S</em>,9<em>S</em>,10<em>S</em>,11<em>R</em>)-10-hydroxy-5,11-dimethyl-2-(1-methylpropylidene)-3,7,12-trioxo-9-(3-pyridinylmethyl)-1,4-dioxa-8-azacyclododec-6-yl]-2-pyridinecarboxamide;Erizomycin;NSC 246134",
    "duplicated_cas_no": "1401-10-1;11052-02-1",
    "SMILES": "C([C@@H]1NC(=O)[C@@H](NC(=O)C2=C(O)C=CC=N2)[C@@H](C)OC(=O)\\C(=C(\\CC)/C)\\OC(=O)[C@H](C)[C@@H]1O)C=3C=CC=NC3",
    "meta_data": {
        "InChI": "InChI=1S/C27H32N4O8/c1-5-14(2)23-27(37)38-16(4)20(31-25(35)21-19(32)9-7-11-29-21)24(34)30-18(12-17-8-6-10-28-13-17)22(33)15(3)26(36)39-23/h6-11,13,15-16,18,20,22,32-33H,5,12H2,1-4H3,(H,30,34)(H,31,35)/b23-14-/t15-,16-,18+,20+,22+/m1/s1",
        "InChIKey": null,
        "Canonical SMILES": "O=C1OC(C)C(NC(=O)C2=NC=CC=C2O)C(=O)NC(CC=3C=NC=CC3)C(O)C(C(=O)OC1=C(C)CC)C",
        "Molecular Formula": "C<sub>27</sub>H<sub>32</sub>N<sub>4</sub>O<sub>8</sub>",
        "Molecular Mass": "540.57",
        "Melting Point": "218 °C"
    }
}