{
    "cas_no": "609-55-2",
    "key_name": "2-Amino-5-methylbenzenesulfonamide",
    "cn_name": null,
    "alternate_name": "Benzenesulfonamide, 2-amino-5-methyl-;<em>m</em>-Toluenesulfonamide, 6-amino-;2-Amino-5-methylbenzenesulfonamide;NSC 57677;2-Amino-5-methylbenzene-1-sulfonamide",
    "duplicated_cas_no": "",
    "SMILES": "S(N)(=O)(=O)C1=C(N)C=CC(C)=C1",
    "meta_data": {
        "InChI": "InChI=1S/C7H10N2O2S/c1-5-2-3-6(8)7(4-5)12(9,10)11/h2-4H,8H2,1H3,(H2,9,10,11)",
        "InChIKey": null,
        "Canonical SMILES": "O=S(=O)(N)C1=CC(=CC=C1N)C",
        "Molecular Formula": "C<sub>7</sub>H<sub>10</sub>N<sub>2</sub>O<sub>2</sub>S",
        "Molecular Mass": "186.23",
        "Melting Point": "165 °C"
    }
}