{
    "cas_no": "5020-41-7",
    "key_name": "3-Methoxybenzeneethanol",
    "cn_name": "2-(3-甲氧基苯基)乙醇;",
    "alternate_name": "Benzeneethanol, 3-methoxy-;Phenethyl alcohol, <em>m</em>-methoxy-;3-Methoxybenzeneethanol;2-(3-Methoxyphenyl)ethanol;<em>m</em>-Methoxyphenethyl alcohol;1-(2-Hydroxyethyl)-3-methoxybenzene;3-Methoxyphenethyl alcohol;2-(<em>m</em>-Methoxyphenyl)ethanol;2-(3-Methoxyphenyl)-1-ethanol;NSC 55877",
    "duplicated_cas_no": "",
    "SMILES": "C(CO)C1=CC(OC)=CC=C1",
    "meta_data": {
        "InChI": "InChI=1S/C9H12O2/c1-11-9-4-2-3-8(7-9)5-6-10/h2-4,7,10H,5-6H2,1H3",
        "InChIKey": null,
        "Canonical SMILES": "OCCC=1C=CC=C(OC)C1",
        "Molecular Formula": "C<sub>9</sub>H<sub>12</sub>O<sub>2</sub>",
        "Molecular Mass": "152.19",
        "Boiling Point": "135-137 °C @ Press: 12 Torr"
    }
}