{
    "cas_no": "6921-34-2",
    "key_name": "Chloro(phenylmethyl)magnesium",
    "cn_name": "苄基氯化镁;",
    "alternate_name": "Magnesium, chloro(phenylmethyl)-;Magnesium, benzylchloro-;Benzylmagnesium chloride;Benzene, methyl-, magnesium complex;Chloro(phenylmethyl)magnesium;Benzylchloromagnesium;(Phenylmethyl)magnesium chloride",
    "duplicated_cas_no": "",
    "SMILES": "C([Mg]Cl)C1=CC=CC=C1",
    "meta_data": {
        "InChI": "InChI=1S/C7H7.ClH.Mg/c1-7-5-3-2-4-6-7;;/h2-6H,1H2;1H;/q;;+1/p-1",
        "InChIKey": null,
        "Canonical SMILES": "Cl[Mg]CC=1C=CC=CC1",
        "Molecular Formula": "C<sub>7</sub>H<sub>7</sub>ClMg",
        "Molecular Mass": "",
        "Boiling Point": "182 °C @ Press: 16 Torr"
    }
}