{
    "cas_no": "110-94-1",
    "key_name": "Glutaric acid",
    "cn_name": "戊二酸;",
    "alternate_name": "Pentanedioic acid;Glutaric acid;1,5-Pentanedioic acid;1,3-Propanedicarboxylic acid;NSC 9238",
    "duplicated_cas_no": "",
    "SMILES": "C(CC(O)=O)CC(O)=O",
    "meta_data": {
        "InChI": "InChI=1S/C5H8O4/c6-4(7)2-1-3-5(8)9/h1-3H2,(H,6,7)(H,8,9)",
        "InChIKey": null,
        "Canonical SMILES": "O=C(O)CCCC(=O)O",
        "Molecular Formula": "C<sub>5</sub>H<sub>8</sub>O<sub>4</sub>",
        "Molecular Mass": "132.11",
        "Boiling Point": "200 °C @ Press: 20 Torr",
        "Melting Point": "97.5-98 °C",
        "Density": "1.429 g/cm³ @ Temp: 15 °C"
    }
}