{
    "cas_no": "491-11-2",
    "key_name": "3-Chloro-4-nitrophenol",
    "cn_name": null,
    "alternate_name": "Phenol, 3-chloro-4-nitro-;3-Chloro-4-nitrophenol;2-Chloro-4-hydroxynitrobenzene",
    "duplicated_cas_no": "",
    "SMILES": "N(=O)(=O)C1=C(Cl)C=C(O)C=C1",
    "meta_data": {
        "InChI": "InChI=1S/C6H4ClNO3/c7-5-3-4(9)1-2-6(5)8(10)11/h1-3,9H",
        "InChIKey": null,
        "Canonical SMILES": "O=N(=O)C1=CC=C(O)C=C1Cl",
        "Molecular Formula": "C<sub>6</sub>H<sub>4</sub>ClNO<sub>3</sub>",
        "Molecular Mass": "173.55",
        "Melting Point": "120-121 °C"
    }
}