{
    "cas_no": "1228-53-1",
    "key_name": "1,1′-Sulfonylbis[3-nitrobenzene]",
    "cn_name": "3,3\"-二硝基二苯砜;",
    "alternate_name": "Benzene, 1,1′-sulfonylbis[3-nitro-;Sulfone, bis(<em>m</em>-nitrophenyl);1,1′-Sulfonylbis[3-nitrobenzene];Bis(3-nitrophenyl) sulfone;Bis(<em>m</em>-nitrophenyl) sulfone;3,3′-Dinitrodiphenyl sulfone;NSC 20608;1-Nitro-3-(3-nitrophenyl)sulfonylbenzene;3,3′-Sulfonylbis(nitrobenzene)",
    "duplicated_cas_no": "",
    "SMILES": "S(=O)(=O)(C1=CC(N(=O)=O)=CC=C1)C2=CC(N(=O)=O)=CC=C2",
    "meta_data": {
        "InChI": "InChI=1S/C12H8N2O6S/c15-13(16)9-3-1-5-11(7-9)21(19,20)12-6-2-4-10(8-12)14(17)18/h1-8H",
        "InChIKey": null,
        "Canonical SMILES": "O=N(=O)C1=CC=CC(=C1)S(=O)(=O)C=2C=CC=C(C2)N(=O)=O",
        "Molecular Formula": "C<sub>12</sub>H<sub>8</sub>N<sub>2</sub>O<sub>6</sub>S",
        "Molecular Mass": "308.27",
        "Boiling Point": "200-201 °C",
        "Melting Point": "197 °C"
    }
}