{
    "cas_no": "77117-48-7",
    "key_name": "Perfluorooctylethane",
    "cn_name": null,
    "alternate_name": "Decane, 1,1,1,2,2,3,3,4,4,5,5,6,6,7,7,8,8-heptadecafluoro-;1,1,1,2,2,3,3,4,4,5,5,6,6,7,7,8,8-Heptadecafluorodecane;Perfluorooctylethane;(Perfluoro-<em>n</em>-octyl)ethane",
    "duplicated_cas_no": "",
    "SMILES": "C(C(C(C(C(F)(F)F)(F)F)(F)F)(F)F)(C(C(C(CC)(F)F)(F)F)(F)F)(F)F",
    "meta_data": {
        "InChI": "InChI=1S/C10H5F17/c1-2-3(11,12)4(13,14)5(15,16)6(17,18)7(19,20)8(21,22)9(23,24)10(25,26)27/h2H2,1H3",
        "InChIKey": null,
        "Canonical SMILES": "FC(F)(F)C(F)(F)C(F)(F)C(F)(F)C(F)(F)C(F)(F)C(F)(F)C(F)(F)CC",
        "Molecular Formula": "C<sub>10</sub>H<sub>5</sub>F<sub>17</sub>",
        "Molecular Mass": "448.12",
        "Boiling Point": "155 °C",
        "Melting Point": "-37.7 °C"
    }
}