{
    "cas_no": "544-62-7",
    "key_name": "Batyl alcohol",
    "cn_name": "鲨肝醇;3-(十八烷氧基)-1,2-丙二醇;",
    "alternate_name": "1,2-Propanediol, 3-(octadecyloxy)-;3-(Octadecyloxy)-1,2-propanediol;Batilol;Batyl alcohol;Glycerol monooctadecyl ether;1-<em>O</em>-Octadecylglycerol;Glyceryl-1-octadecyl ether;Stearyl monoglyceride;1-Octadecyloxy-2,3-dihydroxypropane;Glycerol 1-octadecyl ether;1-Octadecylglycerol;α-Monostearyl glyceryl ether;<em>rac</em>-1-<em>O</em>-Octadecylglycerol;(±)-1-Octadecylglycerol;(±)-Batyl alcohol;(<em>RS</em>)-Batyl alcohol;(±)-3-(Octadecyloxy)-1,2-propanediol;2,3-Dihydroxypropyl octadecyl ether;3-Stearyloxy-1,2-propylene glycol;Nikkol Batyl Alcohol EX;Octadecyl-α-glycerol ether;NSC 284200;NSC 8716;Nikkol Batyl Alcohol 100;Batil alcohol;Glycerol octadecyl ether;1-Octadecyloxy-2,3-propanediol;3-Octadecoxypropane-1,2-diol",
    "duplicated_cas_no": "10438-95-6",
    "SMILES": "C(CCCCCCCCCCCCCCC)CCOCC(CO)O",
    "meta_data": {
        "InChI": "InChI=1S/C21H44O3/c1-2-3-4-5-6-7-8-9-10-11-12-13-14-15-16-17-18-24-20-21(23)19-22/h21-23H,2-20H2,1H3",
        "InChIKey": null,
        "Canonical SMILES": "OCC(O)COCCCCCCCCCCCCCCCCCC",
        "Molecular Formula": "C<sub>21</sub>H<sub>44</sub>O<sub>3</sub>",
        "Molecular Mass": "344.57",
        "Boiling Point": "215-220 °C @ Press: 2 Torr",
        "Melting Point": "70.5 °C"
    }
}