{
    "cas_no": "4584-49-0",
    "key_name": "1-Propanamine, 2-chloro-<em>N</em>,<em>N</em>-dimethyl-, hydrochloride (1:1)",
    "cn_name": "N,N-二甲氨基-2-氯丙烷盐酸盐;2-氯-1-二甲氨基丙烷盐酸盐;",
    "alternate_name": "1-Propanamine, 2-chloro-<em>N</em>,<em>N</em>-dimethyl-, hydrochloride (1:1);Propylamine, 2-chloro-<em>N</em>,<em>N</em>-dimethyl-, hydrochloride;1-Propanamine, 2-chloro-<em>N</em>,<em>N</em>-dimethyl-, hydrochloride;2-Chloro-<em>N</em>,<em>N</em>-dimethyl-1-propanamine hydrochloride;1-Methyl-2-dimethylaminoethyl chloride hydrochloride;(2-Chloropropyl)dimethylamine monohydrochloride;<em>N</em>,<em>N</em>-Dimethyl-2-chloropropylamine hydrochloride;2-(Dimethylamino)isopropyl chloride hydrochloride;2-(Dimethylamino)-1-methylethyl chloride hydrochloride;2-Chloro-<em>N</em>′,<em>N</em>′-dimethylaminopropane hydrochloride;2-Chloro-<em>N</em>,<em>N</em>-dimethylaminopropane hydrochloride;1-(Dimethylamino)-2-chloropropane hydrochloride;Dimethylaminoisopropyl chloride hydrochloride;1-Dimethylamino-2-propyl chloride hydrochloride;NSC 53532;NSC 5367;1-Dimethylaminopropan-2-yl chloride hydrochloride;(2-Chloropropyl)dimethylamine hydrochloride;2-Chloro-<em>N</em>,<em>N</em>-dimethylpropylamine hydrochloride;(2-Chloropropyl)dimethylazanium chloride",
    "duplicated_cas_no": "26112-49-2",
    "SMILES": "C(C(C)Cl)N(C)C.Cl",
    "meta_data": {
        "InChI": "InChI=1S/C5H12ClN.ClH/c1-5(6)4-7(2)3;/h5H,4H2,1-3H3;1H",
        "InChIKey": null,
        "Canonical SMILES": "Cl.ClC(C)CN(C)C",
        "Molecular Formula": "C<sub>5</sub>H<sub>12</sub>ClN.ClH",
        "Molecular Mass": "",
        "Melting Point": "196 °C"
    }
}