{
    "cas_no": "999-97-3",
    "key_name": "Hexamethyldisilazane",
    "cn_name": "六甲基二硅氮烷;",
    "alternate_name": "Silanamine, 1,1,1-trimethyl-<em>N</em>-(trimethylsilyl)-;Disilazane, 1,1,1,3,3,3-hexamethyl-;1,1,1-Trimethyl-<em>N</em>-(trimethylsilyl)silanamine;1,1,1,3,3,3-Hexamethyldisilazane;Bis(trimethylsilyl)amine;Hexamethyldisilazane;OAP;Di(trimethylsilyl)amine;SZ 6079;HMDS;Hexamethyldisilylamine;HMDS (silazane);TSL 8802;LS 7150;HMDS 3;TSR 8802;SE 31;SE 31 (silazane);NSC 93895;A 166;A 166 (silazane);HMD 3;Z 6079;Dynasylan HMDS;SIH 6110.1;Dow Corning 4-2839;SZ 31;12058-1A;Silazan HMN;H 0089;HMDZ;HMDS 1;[Dimethyl-(trimethylsilylamino)silyl]methane;DN-L 69;R 821S;Xiameter PMS 6079 Fluid;Xiameter PMS 6079;IOTA 011;Xiameter PMX 6079;TU 4546",
    "duplicated_cas_no": "18186-75-9;103737-28-6;116638-29-0;127290-38-4;761458-30-4",
    "SMILES": "N([Si](C)(C)C)[Si](C)(C)C",
    "meta_data": {
        "InChI": "InChI=1S/C6H19NSi2/c1-8(2,3)7-9(4,5)6/h7H,1-6H3",
        "InChIKey": null,
        "Canonical SMILES": "N([Si](C)(C)C)[Si](C)(C)C",
        "Molecular Formula": "C<sub>6</sub>H<sub>19</sub>NSi<sub>2</sub>",
        "Molecular Mass": "161.39",
        "Boiling Point": "125 °C",
        "Density": "0.7741 g/cm³ @ Temp: 25 °C"
    }
}