{
    "cas_no": "37033-95-7",
    "key_name": "Ethyl 5-(phenylmethoxy)-1<em>H</em>-indole-2-carboxylate",
    "cn_name": "5-苄氧基吲哚-2-甲酸乙酯;",
    "alternate_name": "1<em>H</em>-Indole-2-carboxylic acid, 5-(phenylmethoxy)-, ethyl ester;Indole-2-carboxylic acid, 5-(benzyloxy)-, ethyl ester;Ethyl 5-(phenylmethoxy)-1<em>H</em>-indole-2-carboxylate;2-Carbethoxy-5-(benzyloxy)indole;Ethyl 5-(benzyloxy)indole-2-carboxylate;5-(Benzyloxy)-2-carbethoxyindole;Ethyl 5-(benzyloxy)-1<em>H</em>-indole-2-carboxylate;5-(Benzyloxy)indole-2-carboxylic acid ethyl ester;NSC 30931",
    "duplicated_cas_no": "",
    "SMILES": "C(OCC)(=O)C1=CC=2C(N1)=CC=C(OCC3=CC=CC=C3)C2",
    "meta_data": {
        "InChI": "InChI=1S/C18H17NO3/c1-2-21-18(20)17-11-14-10-15(8-9-16(14)19-17)22-12-13-6-4-3-5-7-13/h3-11,19H,2,12H2,1H3",
        "InChIKey": null,
        "Canonical SMILES": "O=C(OCC)C1=CC=2C=C(OCC=3C=CC=CC3)C=CC2N1",
        "Molecular Formula": "C<sub>18</sub>H<sub>17</sub>NO<sub>3</sub>",
        "Molecular Mass": "295.33",
        "Melting Point": "162-164 °C"
    }
}