{
    "cas_no": "7789-61-9",
    "key_name": "Antimony tribromide",
    "cn_name": null,
    "alternate_name": "Stibine, tribromo-;Antimony bromide (SbBr<sub>3</sub>);Tribromostibine;Antimony tribromide;Antimony(III) bromide",
    "duplicated_cas_no": "",
    "SMILES": "[Sb](Br)(Br)Br",
    "meta_data": {
        "InChI": "InChI=1S/3BrH.Sb/h3*1H;/q;;;+3/p-3",
        "InChIKey": null,
        "Canonical SMILES": "Br[Sb](Br)Br",
        "Molecular Formula": "Br<sub>3</sub>Sb",
        "Molecular Mass": "",
        "Boiling Point": "288 °C @ Press: 749 Torr",
        "Melting Point": "96 °C",
        "Density": "4.148 g/cm³ @ Temp: 23 °C"
    }
}