{
    "cas_no": "316-46-1",
    "key_name": "5-Fluorouridine",
    "cn_name": "5-氟尿嘧啶核苷;",
    "alternate_name": "Uridine, 5-fluoro-;5-Fluorouridine;NSC 146604;NSC 519273",
    "duplicated_cas_no": "14807-85-3",
    "SMILES": "O[C@H]1[C@@H](O[C@H](CO)[C@H]1O)N2C(=O)NC(=O)C(F)=C2",
    "meta_data": {
        "InChI": "InChI=1S/C9H11FN2O6/c10-3-1-12(9(17)11-7(3)16)8-6(15)5(14)4(2-13)18-8/h1,4-6,8,13-15H,2H2,(H,11,16,17)/t4-,5-,6-,8-/m1/s1",
        "InChIKey": null,
        "Canonical SMILES": "O=C1NC(=O)N(C=C1F)C2OC(CO)C(O)C2O",
        "Molecular Formula": "C<sub>9</sub>H<sub>11</sub>FN<sub>2</sub>O<sub>6</sub>",
        "Molecular Mass": "262.19",
        "Melting Point": "151-152 °C"
    }
}