{
    "cas_no": "612-05-5",
    "key_name": "Methyl β-<span class=\"text-smallcaps\">D</span>-xylopyranoside",
    "cn_name": "甲基-β-D-吡喃木糖苷;",
    "alternate_name": "β-<span class=\"text-smallcaps\">D</span>-Xylopyranoside, methyl;Xylopyranoside, methyl, β-<span class=\"text-smallcaps\">D</span>-;Methyl β-<span class=\"text-smallcaps\">D</span>-xylopyranoside;Methyl β-<span class=\"text-smallcaps\">D</span>-xyloside;NSC 170227;Methyl xyloside",
    "duplicated_cas_no": "27072-90-8;27937-21-9",
    "SMILES": "O(C)[C@H]1[C@H](O)[C@@H](O)[C@H](O)CO1",
    "meta_data": {
        "InChI": "InChI=1S/C6H12O5/c1-10-6-5(9)4(8)3(7)2-11-6/h3-9H,2H2,1H3/t3-,4+,5-,6-/m1/s1",
        "InChIKey": null,
        "Canonical SMILES": "OC1COC(OC)C(O)C1O",
        "Molecular Formula": "C<sub>6</sub>H<sub>12</sub>O<sub>5</sub>",
        "Molecular Mass": "164.16",
        "Melting Point": "157 °C",
        "Density": "1.40 g/cm³"
    }
}