{
    "cas_no": "2777-58-4",
    "key_name": "Methyl petroselinate",
    "cn_name": null,
    "alternate_name": "6-Octadecenoic acid, methyl ester, (6<em>Z</em>)-;6-Octadecenoic acid, methyl ester, (<em>Z</em>)-;Petroselinic acid, methyl ester;Methyl petroselinate;Methyl <em>cis</em>-6-octadecenoate;Methyl 6(Z)-octadecenoate;Petroselenic acid methyl ester;<em>cis</em>-6-Octadecenoic acid methyl ester",
    "duplicated_cas_no": "",
    "SMILES": "C(=C\\CCCCCCCCCCC)\\CCCCC(OC)=O",
    "meta_data": {
        "InChI": "InChI=1S/C19H36O2/c1-3-4-5-6-7-8-9-10-11-12-13-14-15-16-17-18-19(20)21-2/h13-14H,3-12,15-18H2,1-2H3/b14-13-",
        "InChIKey": null,
        "Canonical SMILES": "O=C(OC)CCCCC=CCCCCCCCCCCC",
        "Molecular Formula": "C<sub>19</sub>H<sub>36</sub>O<sub>2</sub>",
        "Molecular Mass": "296.49",
        "Boiling Point": "208-210 °C @ Press: 10 Torr",
        "Density": "0.8767 g/cm³ @ Temp: 20 °C"
    }
}