{
    "cas_no": "542-32-5",
    "key_name": "α-Aminoadipic acid",
    "cn_name": "DL-2-氨基己二酸;DL-α-氨基己二酸;DL-2-氨基己二酸;DL-a-氨基己二酸;Α-胺己二酸;",
    "alternate_name": "Hexanedioic acid, 2-amino-;2-Aminohexanedioic acid;α-Aminoadipic acid;2-Aminoadipic acid;2-Aminoadipate;<span class=\"text-smallcaps\">DL</span>-α-Aminoadipic acid;<span class=\"text-smallcaps\">DL</span>-2-Aminohexanedioic acid;<span class=\"text-smallcaps\">DL</span>-2-Aminoadipic acid;(±)-2-Aminoadipic acid;NSC 46994;(±)-α-Aminoadipic acid",
    "duplicated_cas_no": "626-71-1;82144-77-2",
    "SMILES": "C(C(C(O)=O)N)CCC(O)=O",
    "meta_data": {
        "InChI": "InChI=1S/C6H11NO4/c7-4(6(10)11)2-1-3-5(8)9/h4H,1-3,7H2,(H,8,9)(H,10,11)",
        "InChIKey": null,
        "Canonical SMILES": "O=C(O)CCCC(N)C(=O)O",
        "Molecular Formula": "C<sub>6</sub>H<sub>11</sub>NO<sub>4</sub>",
        "Molecular Mass": "161.16",
        "Melting Point": "185-189 °C (decomp)"
    }
}