{
    "cas_no": "1826-12-6",
    "key_name": "4-Phenylthiazole",
    "cn_name": "4-苯基噻唑;",
    "alternate_name": "Thiazole, 4-phenyl-;4-Phenylthiazole",
    "duplicated_cas_no": "",
    "SMILES": "C1(=CSC=N1)C2=CC=CC=C2",
    "meta_data": {
        "InChI": "InChI=1S/C9H7NS/c1-2-4-8(5-3-1)9-6-11-7-10-9/h1-7H",
        "InChIKey": null,
        "Canonical SMILES": "N1=CSC=C1C2=CC=CC=C2",
        "Molecular Formula": "C<sub>9</sub>H<sub>7</sub>NS",
        "Molecular Mass": "161.22",
        "Boiling Point": "275 °C",
        "Melting Point": "55 °C"
    }
}