{
    "cas_no": "4501-58-0",
    "key_name": "α-Campholenal",
    "cn_name": "龙脑烯醛;2,2,3-三甲基环戊-3-烯-1-乙醛;",
    "alternate_name": "3-Cyclopentene-1-acetaldehyde, 2,2,3-trimethyl-, (1<em>R</em>)-;3-Cyclopentene-1-acetaldehyde, 2,2,3-trimethyl-, (<em>R</em>)-;α-Campholenaldehyde;(1<em>R</em>)-2,2,3-Trimethyl-3-cyclopentene-1-acetaldehyde;α-Campholenic aldehyde;α-Campholenal;α-Campholene aldehyde;(+)-α-Campholenaldehyde;(<em>R</em>)-α-Campholenic aldehyde;(+)-(<em>R</em>)-Campholenaldehyde;(+)-Campholenal;(+)-α-Campholenic aldehyde;(<em>R</em>)-(+)-Campholenic aldehyde;(+)-Campholenaldehyde;(+)-(<em>R</em>)-α-Campholenic aldehyde;(<em>R</em>)-Campholenal;2-[(1R)-2,2,3-Trimethylcyclopent-3-en-1-yl]acetaldehyde",
    "duplicated_cas_no": "42370-35-4",
    "SMILES": "C(C=O)[C@@H]1C(C)(C)C(C)=CC1",
    "meta_data": {
        "InChI": "InChI=1S/C10H16O/c1-8-4-5-9(6-7-11)10(8,2)3/h4,7,9H,5-6H2,1-3H3/t9-/m1/s1",
        "InChIKey": null,
        "Canonical SMILES": "O=CCC1CC=C(C)C1(C)C",
        "Molecular Formula": "C<sub>10</sub>H<sub>16</sub>O",
        "Molecular Mass": "152.23",
        "Boiling Point": "68-70 °C @ Press: 9 Torr"
    }
}