{
    "cas_no": "292150-20-0",
    "key_name": "(4<em>R</em>)-5-Amino-4-[[(9<em>H</em>-fluoren-9-ylmethoxy)carbonyl]amino]-5-oxopentanoic acid",
    "cn_name": null,
    "alternate_name": "Pentanoic acid, 5-amino-4-[[(9<em>H</em>-fluoren-9-ylmethoxy)carbonyl]amino]-5-oxo-, (4<em>R</em>)-;(4<em>R</em>)-5-Amino-4-[[(9<em>H</em>-fluoren-9-ylmethoxy)carbonyl]amino]-5-oxopentanoic acid",
    "duplicated_cas_no": "",
    "SMILES": "C(OC(N[C@H](CCC(O)=O)C(N)=O)=O)C1C=2C(C=3C1=CC=CC3)=CC=CC2",
    "meta_data": {
        "InChI": "InChI=1S/C20H20N2O5/c21-19(25)17(9-10-18(23)24)22-20(26)27-11-16-14-7-3-1-5-12(14)13-6-2-4-8-15(13)16/h1-8,16-17H,9-11H2,(H2,21,25)(H,22,26)(H,23,24)/t17-/m1/s1",
        "InChIKey": null,
        "Canonical SMILES": "O=C(OCC1C=2C=CC=CC2C=3C=CC=CC31)NC(C(=O)N)CCC(=O)O",
        "Molecular Formula": "C<sub>20</sub>H<sub>20</sub>N<sub>2</sub>O<sub>5</sub>",
        "Molecular Mass": "368.38",
        "Melting Point": "204.3-205.4 °C"
    }
}