{
    "cas_no": "35189-28-7",
    "key_name": "Norgestimate",
    "cn_name": "炔诺肟酯;诺孕酯;",
    "alternate_name": "18,19-Dinorpregn-4-en-20-yn-3-one, 17-(acetyloxy)-13-ethyl-, 3-oxime, (17α)-;Dexnorgestrel acetime;Norgestimate;ORF 10131;RWJ 10131;D 138;<em>d</em>-(17α)-17-Acetoxy-13-ethyl-18,19-dinorpregn-4-en-20-yn-3-one oxime",
    "duplicated_cas_no": "",
    "SMILES": "C(C)[C@@]12[C@](OC(C)=O)(C#C)CC[C@]1([C@]3([C@](CC2)([C@@]4(C(CC3)=CC(=NO)CC4)[H])[H])[H])[H]",
    "meta_data": {
        "InChI": "InChI=1S/C23H31NO3/c1-4-22-12-10-19-18-9-7-17(24-26)14-16(18)6-8-20(19)21(22)11-13-23(22,5-2)27-15(3)25/h2,14,18-21,26H,4,6-13H2,1,3H3/t18-,19+,20+,21-,22-,23-/m0/s1",
        "InChIKey": null,
        "Canonical SMILES": "O=C(OC1(C#C)CCC2C3CCC4=CC(=NO)CCC4C3CCC21CC)C",
        "Molecular Formula": "C<sub>23</sub>H<sub>31</sub>NO<sub>3</sub>",
        "Molecular Mass": "369.50",
        "Melting Point": "216 °C"
    }
}