{
    "cas_no": "35737-15-6",
    "key_name": "Fmoc-<span class=\"text-smallcaps\">L</span>-tryptophan",
    "cn_name": "Fmoc-L-色氨酸;芴甲氧羰基-L-色氨酸;",
    "alternate_name": "<span class=\"text-smallcaps\">L</span>-Tryptophan, <em>N</em>-[(9<em>H</em>-fluoren-9-ylmethoxy)carbonyl]-;<em>N</em>-[(9<em>H</em>-Fluoren-9-ylmethoxy)carbonyl]-<span class=\"text-smallcaps\">L</span>-tryptophan;FMOC-Trp-OH;<em>N</em>-(9-Fluorenylmethoxycarbonyl)tryptophan;Fmoc-tryptophan;Fmoc-<span class=\"text-smallcaps\">L</span>-tryptophan;NSC 334295;(<em>S</em>)-2-[[[(9<em>H</em>-Fluoren-9-yl)methoxy]carbonyl]amino]-3-(1<em>H</em>-indol-3-yl)propionic acid;<em>N</em>-(Fluorenyl-9-methoxycarbonyl)-terminated tryptophan;(2S)-2-(9<em>H</em>-Fluoren-9-ylmethoxycarbonylamino)-3-(1<em>H</em>-indol-3-yl)propanoic acid;(2S)-2-[[(9<em>H</em>-Fluoren-9-ylmethoxy)carbonyl]amino]-3-(1<em>H</em>-indol-3-yl)propanoic acid;(2S)-2-([[(9<em>H</em>-Fluoren-9-yl)methoxy]carbonyl]amino)-3-(1<em>H</em>-indol-3-yl)propanoic acid",
    "duplicated_cas_no": "",
    "SMILES": "C(OC(N[C@@H](CC=1C=2C(NC1)=CC=CC2)C(O)=O)=O)C3C=4C(C=5C3=CC=CC5)=CC=CC4",
    "meta_data": {
        "InChI": "InChI=1S/C26H22N2O4/c29-25(30)24(13-16-14-27-23-12-6-5-7-17(16)23)28-26(31)32-15-22-20-10-3-1-8-18(20)19-9-2-4-11-21(19)22/h1-12,14,22,24,27H,13,15H2,(H,28,31)(H,29,30)/t24-/m0/s1",
        "InChIKey": null,
        "Canonical SMILES": "O=C(OCC1C=2C=CC=CC2C=3C=CC=CC31)NC(C(=O)O)CC4=CNC=5C=CC=CC54",
        "Molecular Formula": "C<sub>26</sub>H<sub>22</sub>N<sub>2</sub>O<sub>4</sub>",
        "Molecular Mass": "426.46",
        "Melting Point": "182-183 °C"
    }
}