{
    "cas_no": "695-99-8",
    "key_name": "Chloro-1,4-benzoquinone",
    "cn_name": null,
    "alternate_name": "2,5-Cyclohexadiene-1,4-dione, 2-chloro-;<em>p</em>-Benzoquinone, 2-chloro-;<em>p</em>-Benzoquinone, chloro-;2-Chloro-2,5-cyclohexadiene-1,4-dione;Monochloro-<em>p</em>-benzoquinone;2-Chloro-<em>p</em>-benzoquinone;2-Chloro-1,4-benzoquinone;Chloro-<em>p</em>-benzoquinone;Monochloroquinone;Chloroquinone;Chloro-1,4-benzoquinone;2-Chloroquinone;NSC 526777",
    "duplicated_cas_no": "58052-13-4",
    "SMILES": "ClC=1C(=O)C=CC(=O)C1",
    "meta_data": {
        "InChI": "InChI=1S/C6H3ClO2/c7-5-3-4(8)1-2-6(5)9/h1-3H",
        "InChIKey": null,
        "Canonical SMILES": "O=C1C=CC(=O)C(Cl)=C1",
        "Molecular Formula": "C<sub>6</sub>H<sub>3</sub>ClO<sub>2</sub>",
        "Molecular Mass": "142.54",
        "Melting Point": "56-56.5 °C"
    }
}