{
    "cas_no": "1078-21-3",
    "key_name": "Phenibut",
    "cn_name": "4-氨基-3-苯基丁酸盐酸盐;",
    "alternate_name": "Benzenepropanoic acid, β-(aminomethyl)-;Hydrocinnamic acid, β-(aminomethyl)-;β-(Aminomethyl)benzenepropanoic acid;Phenigam;Phenygam;β-Phenyl-γ-aminobutyric acid;4-Amino-3-phenylbutyric acid;γ-Amino-β-phenylbutyric acid;Fenibut;Phenybut;β-Phenyl-GABA;Fenigam;Fenigama;PhGABA;Phenibut;P-GABA;<span class=\"text-smallcaps\">DL</span>-β-Phenyl-γ-aminobutyric acid;<span class=\"text-smallcaps\">DL</span>-4-Amino-3-phenylbutanoic acid;(±)-β-Phenyl-GABA;(±)-Fenibut;3-Phenyl-4-aminobutanoic acid;Anvifen;4-Amino-3-phenylbutanoic acid",
    "duplicated_cas_no": "35568-37-7",
    "SMILES": "C(CC(O)=O)(CN)C1=CC=CC=C1",
    "meta_data": {
        "InChI": "InChI=1S/C10H13NO2/c11-7-9(6-10(12)13)8-4-2-1-3-5-8/h1-5,9H,6-7,11H2,(H,12,13)",
        "InChIKey": null,
        "Canonical SMILES": "O=C(O)CC(C=1C=CC=CC1)CN",
        "Molecular Formula": "C<sub>10</sub>H<sub>13</sub>NO<sub>2</sub>",
        "Molecular Mass": "179.22",
        "Melting Point": "253 °C (decomp)"
    }
}