{
    "cas_no": "542-55-2",
    "key_name": "Isobutyl formate",
    "cn_name": "甲酸异丁酯;蚁酸异丁酯;甲酸异丁脂;甲酸-2-甲基丙基酯;",
    "alternate_name": "Formic acid, 2-methylpropyl ester;Formic acid, isobutyl ester;Tetryl formate;2-Methylpropyl formate;Isobutyl formate;NSC 6968;Iso-butyl methanoate",
    "duplicated_cas_no": "",
    "SMILES": "C(C(C)C)OC=O",
    "meta_data": {
        "InChI": "InChI=1S/C5H10O2/c1-5(2)3-7-4-6/h4-5H,3H2,1-2H3",
        "InChIKey": null,
        "Canonical SMILES": "O=COCC(C)C",
        "Molecular Formula": "C<sub>5</sub>H<sub>10</sub>O<sub>2</sub>",
        "Molecular Mass": "102.13",
        "Boiling Point": "98.2 °C",
        "Melting Point": "-95.8 °C",
        "Density": "0.90660 g/cm³ @ Temp: 0 °C"
    }
}