{
    "cas_no": "928-97-2",
    "key_name": "<em>trans</em>-3-Hexen-1-ol",
    "cn_name": null,
    "alternate_name": "3-Hexen-1-ol, (3<em>E</em>)-;3-Hexen-1-ol, (<em>E</em>)-;3-Hexen-1-ol, <em>trans</em>-;(3<em>E</em>)-3-Hexen-1-ol;<em>trans</em>-3-Hexen-1-ol;<em>trans</em>-3-Hexenol;(<em>E</em>)-3-Hexen-1-ol;(<em>E</em>)-3-Hexenol;(3E)-Hexenol;(3<em>E</em>)-Hex-3-en-1-ol;<em>trans</em>-1-Hydroxy-3-hexene",
    "duplicated_cas_no": "",
    "SMILES": "C(=C/CC)\\CCO",
    "meta_data": {
        "InChI": "InChI=1S/C6H12O/c1-2-3-4-5-6-7/h3-4,7H,2,5-6H2,1H3/b4-3+",
        "InChIKey": null,
        "Canonical SMILES": "OCCC=CCC",
        "Molecular Formula": "C<sub>6</sub>H<sub>12</sub>O",
        "Molecular Mass": "100.16",
        "Boiling Point": "51-53 °C @ Press: 9 Torr",
        "Melting Point": "99 °C"
    }
}