{
    "cas_no": "105-84-0",
    "key_name": "<em>N</em><sup>1</sup>,<em>N</em><sup>2</sup>-Dimethyl-<em>N</em><sup>1</sup>-[2-(methylamino)ethyl]-1,2-ethanediamine",
    "cn_name": "1,4,7-三甲基二乙烯三胺; N,N\",N\"\"-三甲基二乙烯三胺;",
    "alternate_name": "1,2-Ethanediamine, <em>N</em><sup>1</sup>,<em>N</em><sup>2</sup>-dimethyl-<em>N</em><sup>1</sup>-[2-(methylamino)ethyl]-;Diethylenetriamine, 1,4,7-trimethyl-;1,2-Ethanediamine, <em>N</em>,<em>N</em>′-dimethyl-<em>N</em>-[2-(methylamino)ethyl]-;<em>N</em><sup>1</sup>,<em>N</em><sup>2</sup>-Dimethyl-<em>N</em><sup>1</sup>-[2-(methylamino)ethyl]-1,2-ethanediamine;1,4,7-Trimethyldiethylenetriamine;<em>N</em>,<em>N</em>′,<em>N</em>′′-Trimethyldiethylenetriamine;<em>N</em>,<em>N</em>′-Dimethyl-<em>N</em>-[2-(methylamino)ethyl]-1,2-ethanediamine;1,4,7-Trimethyl-1,4,7-triazaheptane;NSC 166321;<em>N</em>,<em>N</em>′-Dimethyl-<em>N</em>-[2-(methylamino)ethyl]ethylenediamine;<em>N</em>,<em>N</em>-Bis[2-(methylamino)ethyl]methylamine",
    "duplicated_cas_no": "",
    "SMILES": "N(CCNC)(CCNC)C",
    "meta_data": {
        "InChI": "InChI=1S/C7H19N3/c1-8-4-6-10(3)7-5-9-2/h8-9H,4-7H2,1-3H3",
        "InChIKey": null,
        "Canonical SMILES": "N(C)CCN(C)CCNC",
        "Molecular Formula": "C<sub>7</sub>H<sub>19</sub>N<sub>3</sub>",
        "Molecular Mass": "145.25",
        "Boiling Point": "60 °C @ Press: 1 Torr"
    }
}