{
    "cas_no": "7660-25-5",
    "key_name": "β-<span class=\"text-smallcaps\">D</span>-Fructopyranose",
    "cn_name": "果糖;左旋糖;",
    "alternate_name": "β-<span class=\"text-smallcaps\">D</span>-Fructopyranose;Fructopyranose, β-<span class=\"text-smallcaps\">D</span>-;Frutabs;Laevoral;Laevosan;Levugen",
    "duplicated_cas_no": "",
    "SMILES": "C(O)[C@]1(O)[C@@H](O)[C@H](O)[C@H](O)CO1",
    "meta_data": {
        "InChI": "InChI=1S/C6H12O6/c7-2-6(11)5(10)4(9)3(8)1-12-6/h3-5,7-11H,1-2H2/t3-,4-,5+,6-/m1/s1",
        "InChIKey": null,
        "Canonical SMILES": "OCC1(O)OCC(O)C(O)C1O",
        "Molecular Formula": "C<sub>6</sub>H<sub>12</sub>O<sub>6</sub>",
        "Molecular Mass": "180.16",
        "Melting Point": "103.8 °C"
    }
}