{
    "cas_no": "95-96-5",
    "key_name": "Lactide",
    "cn_name": "丙交酯;3,6-二甲基-1,4-二氧杂环己烷-2,5-二酮;",
    "alternate_name": "1,4-Dioxane-2,5-dione, 3,6-dimethyl-;<em>p</em>-Dioxane-2,5-dione, 3,6-dimethyl-;Lactide;Lactic acid, bimol. cyclic ester;3,6-Dimethyl-1,4-dioxane-2,5-dione;3,6-Diketo-2,5-dimethyl-1,4-dioxane;3,6-Dimethyl-<em>p</em>-dioxane-2,5-dione;2,5-Dioxo-3,6-dimethyl-1,4-dioxane;Propanoic acid, 2-hydroxy-, bimol. cyclic ester;3,6-Dimethyl-2,5-dioxo-1,4-dioxane;2,5-Dimethyl-3,6-dioxo-1,4-dioxane;Dilactide;<span class=\"text-smallcaps\">DL</span>-Lactide;Lactoyl lactic acid;Purasorb DL;NSC 403080;<em>rac</em>-Lactide;Novalact;<em>dl</em>-Dilactide;<span class=\"text-smallcaps\">DL</span>-Dilactide;Dimethylglycolide;<span class=\"text-smallcaps\">D</smallcap>,<smallcap>L</span>-Lactide;Olygos DMR;Ingeo M 700",
    "duplicated_cas_no": "615-95-2;51019-72-8;87760-46-1;116559-43-4;137566-94-0;153381-12-5;219616-64-5;340821-71-8;612845-77-9;1310566-98-3;1351306-95-0;1415890-67-3;2129300-88-3;2324093-62-9;2649110-75-6;2805288-36-0",
    "SMILES": "CC1C(=O)OC(C)C(=O)O1",
    "meta_data": {
        "InChI": "InChI=1S/C6H8O4/c1-3-5(7)10-4(2)6(8)9-3/h3-4H,1-2H3",
        "InChIKey": null,
        "Canonical SMILES": "O=C1OC(C(=O)OC1C)C",
        "Molecular Formula": "C<sub>6</sub>H<sub>8</sub>O<sub>4</sub>",
        "Molecular Mass": "144.13",
        "Melting Point": "129 °C"
    }
}