{
    "cas_no": "99-28-5",
    "key_name": "2,6-Dibromo-4-nitrophenol",
    "cn_name": "2,6-二溴-4-硝基苯酚;",
    "alternate_name": "Phenol, 2,6-dibromo-4-nitro-;2,6-Dibromo-4-nitrophenol;4-Nitro-2,6-dibromophenol;3,5-Dibromo-4-hydroxynitrobenzene;NSC 2585",
    "duplicated_cas_no": "",
    "SMILES": "N(=O)(=O)C1=CC(Br)=C(O)C(Br)=C1",
    "meta_data": {
        "InChI": "InChI=1S/C6H3Br2NO3/c7-4-1-3(9(11)12)2-5(8)6(4)10/h1-2,10H",
        "InChIKey": null,
        "Canonical SMILES": "O=N(=O)C1=CC(Br)=C(O)C(Br)=C1",
        "Molecular Formula": "C<sub>6</sub>H<sub>3</sub>Br<sub>2</sub>NO<sub>3</sub>",
        "Molecular Mass": "296.90",
        "Melting Point": "145 °C (decomp)"
    }
}