{
    "cas_no": "5873-90-5",
    "key_name": "Methyl benzimidate hydrochloride",
    "cn_name": "苯甲亚胺酸甲酯盐酸盐;",
    "alternate_name": "Benzenecarboximidic acid, methyl ester, hydrochloride (1:1);Benzimidic acid, methyl ester, hydrochloride;Benzenecarboximidic acid, methyl ester, hydrochloride;Methyl benzimidate hydrochloride;Methyl benzamidate hydrochloride",
    "duplicated_cas_no": "",
    "SMILES": "C(OC)(=N)C1=CC=CC=C1.Cl",
    "meta_data": {
        "InChI": "InChI=1S/C8H9NO.ClH/c1-10-8(9)7-5-3-2-4-6-7;/h2-6,9H,1H3;1H",
        "InChIKey": null,
        "Canonical SMILES": "Cl.N=C(OC)C=1C=CC=CC1",
        "Molecular Formula": "C<sub>8</sub>H<sub>9</sub>NO.ClH",
        "Molecular Mass": "",
        "Boiling Point": "106 °C @ Press: 24 Torr",
        "Melting Point": "94-96 °C"
    }
}