{
    "cas_no": "6287-40-7",
    "key_name": "1-Butanamine, <em>N</em>-butyl-, hydrochloride (1:1)",
    "cn_name": null,
    "alternate_name": "1-Butanamine, <em>N</em>-butyl-, hydrochloride (1:1);Dibutylamine, hydrochloride;1-Butanamine, <em>N</em>-butyl-, hydrochloride;Dibutylammonium chloride;Di-<em>n</em>-butylammonium chloride;Dibutylamine monohydrochloride;<em>N</em>-Butyl-1-butanamine hydrochloride",
    "duplicated_cas_no": "",
    "SMILES": "N(CCCC)CCCC.Cl",
    "meta_data": {
        "InChI": "InChI=1S/C8H19N.ClH/c1-3-5-7-9-8-6-4-2;/h9H,3-8H2,1-2H3;1H",
        "InChIKey": null,
        "Canonical SMILES": "Cl.N(CCCC)CCCC",
        "Molecular Formula": "C<sub>8</sub>H<sub>19</sub>N.ClH",
        "Molecular Mass": "",
        "Melting Point": "283 °C"
    }
}