{
    "cas_no": "375-62-2",
    "key_name": "2,2,3,3,4,4,5,5,5-Nonafluoropentanoyl fluoride",
    "cn_name": "九氟戊酰氟;九氟戊酰氟;",
    "alternate_name": "Pentanoyl fluoride, 2,2,3,3,4,4,5,5,5-nonafluoro-;Valeryl fluoride, nonafluoro-;Pentanoyl fluoride, nonafluoro-;2,2,3,3,4,4,5,5,5-Nonafluoropentanoyl fluoride;Perfluorovaleryl fluoride;Perfluorovaleroyl fluoride;Perfluoropentanoyl fluoride;Perfluoropentanone",
    "duplicated_cas_no": "",
    "SMILES": "C(C(C(F)(F)F)(F)F)(C(C(F)=O)(F)F)(F)F",
    "meta_data": {
        "InChI": "InChI=1S/C5F10O/c6-1(16)2(7,8)3(9,10)4(11,12)5(13,14)15",
        "InChIKey": null,
        "Canonical SMILES": "O=C(F)C(F)(F)C(F)(F)C(F)(F)C(F)(F)F",
        "Molecular Formula": "C<sub>5</sub>F<sub>10</sub>O",
        "Molecular Mass": "266.04",
        "Boiling Point": "32 °C @ Press: 760 Torr",
        "Density": "1.601 g/cm³ @ Temp: 20 °C"
    }
}