{
    "cas_no": "28788-62-7",
    "key_name": "4-Butylbenzoyl chloride",
    "cn_name": "4-正丁基苯(甲)酰氯;",
    "alternate_name": "Benzoyl chloride, 4-butyl-;Benzoyl chloride, <em>p</em>-butyl-;4-Butylbenzoyl chloride;<em>p</em>-Butylbenzoyl chloride;4-<em>n</em>-Butylbenzoyl chloride;<em>p</em>-<em>n</em>-Butylbenzoyl chloride",
    "duplicated_cas_no": "",
    "SMILES": "C(Cl)(=O)C1=CC=C(CCCC)C=C1",
    "meta_data": {
        "InChI": "InChI=1S/C11H13ClO/c1-2-3-4-9-5-7-10(8-6-9)11(12)13/h5-8H,2-4H2,1H3",
        "InChIKey": null,
        "Canonical SMILES": "O=C(Cl)C1=CC=C(C=C1)CCCC",
        "Molecular Formula": "C<sub>11</sub>H<sub>13</sub>ClO",
        "Molecular Mass": "196.67",
        "Boiling Point": "155-156 °C @ Press: 26 Torr"
    }
}