{
    "cas_no": "36085-73-1",
    "key_name": "Domin",
    "cn_name": null,
    "alternate_name": "4<em>H</em>-Thiazolo[4,5-<em>d</em>]azepin-2-amine, 5,6,7,8-tetrahydro-6-(2-propen-1-yl)-, hydrochloride (1:2);4<em>H</em>-Thiazolo[4,5-<em>d</em>]azepin-2-amine, 5,6,7,8-tetrahydro-6-(2-propenyl)-, dihydrochloride;B-HT 920;Talipexole dihydrochloride;Domin;6-Allyl-2-amino-5,6,7,8-tetrahydro-4<em>H</em>-thiazolo[4,5-<em>d</em>]azepine dihydrochloride",
    "duplicated_cas_no": "",
    "SMILES": "NC1=NC2=C(CCN(CC=C)CC2)S1.Cl",
    "meta_data": {
        "InChI": "InChI=1S/C10H15N3S.2ClH/c1-2-5-13-6-3-8-9(4-7-13)14-10(11)12-8;;/h2H,1,3-7H2,(H2,11,12);2*1H",
        "InChIKey": null,
        "Canonical SMILES": "Cl.N1=C(SC2=C1CCN(CC=C)CC2)N",
        "Molecular Formula": "C<sub>10</sub>H<sub>15</sub>N<sub>3</sub>S.2ClH",
        "Molecular Mass": "",
        "Melting Point": "245 °C (decomp)"
    }
}