{
    "cas_no": "117-02-2",
    "key_name": "Rubiadin",
    "cn_name": "茜根定;茜根定;",
    "alternate_name": "9,10-Anthracenedione, 1,3-dihydroxy-2-methyl-;Rubiadin;Anthraquinone, 1,3-dihydroxy-2-methyl-;1,3-Dihydroxy-2-methyl-9,10-anthracenedione;C.I. 75350;1,3-Dihydroxy-2-methylanthraquinone;Rubiadine;1,3-Dihydroxy-2-methyl-9,10-anthraquinone",
    "duplicated_cas_no": "",
    "SMILES": "O=C1C=2C(C(=O)C=3C1=CC=CC3)=CC(O)=C(C)C2O",
    "meta_data": {
        "InChI": "InChI=1S/C15H10O4/c1-7-11(16)6-10-12(13(7)17)15(19)9-5-3-2-4-8(9)14(10)18/h2-6,16-17H,1H3",
        "InChIKey": null,
        "Canonical SMILES": "O=C1C=2C=CC=CC2C(=O)C3=C(O)C(=C(O)C=C13)C",
        "Molecular Formula": "C<sub>15</sub>H<sub>10</sub>O<sub>4</sub>",
        "Molecular Mass": "254.24",
        "Melting Point": "290 °C"
    }
}