{
    "cas_no": "13997-19-8",
    "key_name": "Nequinate",
    "cn_name": null,
    "alternate_name": "3-Quinolinecarboxylic acid, 6-butyl-1,4-dihydro-4-oxo-7-(phenylmethoxy)-, methyl ester;3-Quinolinecarboxylic acid, 7-(benzyloxy)-6-butyl-1,4-dihydro-4-oxo-, methyl ester;Methyl benzoquate;Methyl 7-(benzyloxy)-6-<em>n</em>-butyl-4-oxo-1,4-dihydroquinoline-3-carboxylate;Nequinate;Neqoinate;Methyl 7-(benzyloxy)-6-butyl-1,4-dihydro-4-oxo-3-quinoline carboxylate;Mequinate;AY 20385;ICI 55052;Statoquate;Statyl;Tranil;Statil;7-Benzyloxy-6-butyl-1,4-dihydro-4-oxo-3-quinolinecarboxylic acid methyl ester",
    "duplicated_cas_no": "55353-14-5",
    "SMILES": "O=C1C=2C(=CC(OCC3=CC=CC=C3)=C(CCCC)C2)NC=C1C(OC)=O",
    "meta_data": {
        "InChI": "InChI=1S/C22H23NO4/c1-3-4-10-16-11-17-19(23-13-18(21(17)24)22(25)26-2)12-20(16)27-14-15-8-6-5-7-9-15/h5-9,11-13H,3-4,10,14H2,1-2H3,(H,23,24)",
        "InChIKey": null,
        "Canonical SMILES": "O=C(OC)C1=CNC2=CC(OCC=3C=CC=CC3)=C(C=C2C1=O)CCCC",
        "Molecular Formula": "C<sub>22</sub>H<sub>23</sub>NO<sub>4</sub>",
        "Molecular Mass": "365.42",
        "Melting Point": "287.5 °C"
    }
}