{
    "cas_no": "2362-62-1",
    "key_name": "4-Methylbenzenecarbothioamide",
    "cn_name": "4-甲基硫代苯甲酰胺;",
    "alternate_name": "Benzenecarbothioamide, 4-methyl-;<em>p</em>-Toluamide, thio-;4-Methylbenzenecarbothioamide;<em>p</em>-Methylthiobenzamide;<em>p</em>-Methylthiobenzoylamide;4-Methylthiobenzamide;<em>p</em>-Methylbenzothiamide;Thio-<em>p</em>-toluamide;<em>p</em>-Methylbenzenecarbothioamide;4-Methylbenzothioamide",
    "duplicated_cas_no": "",
    "SMILES": "C(N)(=S)C1=CC=C(C)C=C1",
    "meta_data": {
        "InChI": "InChI=1S/C8H9NS/c1-6-2-4-7(5-3-6)8(9)10/h2-5H,1H3,(H2,9,10)",
        "InChIKey": null,
        "Canonical SMILES": "S=C(N)C1=CC=C(C=C1)C",
        "Molecular Formula": "C<sub>8</sub>H<sub>9</sub>NS",
        "Molecular Mass": "151.23",
        "Melting Point": "172 °C"
    }
}