{
    "cas_no": "700-58-3",
    "key_name": "Adamantanone",
    "cn_name": "金刚烷酮;2-金刚酮;",
    "alternate_name": "Tricyclo[3.3.1.1<sup>3,7</sup>]decan-2-one;2-Adamantanone;Tricyclo[3.3.1.1<sup>3,7</sup>]decanone;Adamantanone;2-Oxoadamantane;2-Adamantone;NSC 126345;2-Adamantaneone",
    "duplicated_cas_no": "30997-34-3",
    "SMILES": "O=C1C2CC3CC1CC(C2)C3",
    "meta_data": {
        "InChI": "InChI=1S/C10H14O/c11-10-8-2-6-1-7(4-8)5-9(10)3-6/h6-9H,1-5H2",
        "InChIKey": null,
        "Canonical SMILES": "O=C1C2CC3CC1CC(C2)C3",
        "Molecular Formula": "C<sub>10</sub>H<sub>14</sub>O",
        "Molecular Mass": "150.22",
        "Melting Point": "224.0-225.0 °C"
    }
}