{
    "cas_no": "4363-93-3",
    "key_name": "4-Quinolinecarboxaldehyde",
    "cn_name": "4-喹啉甲醛;4-甲醛喹啉;4-醛基喹啉;",
    "alternate_name": "4-Quinolinecarboxaldehyde;Cinchoninaldehyde;4-Formylquinoline;Quinoline-4-carbaldehyde;NSC 1213;4-Quinolinyl aldehyde",
    "duplicated_cas_no": "",
    "SMILES": "C(=O)C=1C2=C(N=CC1)C=CC=C2",
    "meta_data": {
        "InChI": "InChI=1S/C10H7NO/c12-7-8-5-6-11-10-4-2-1-3-9(8)10/h1-7H",
        "InChIKey": null,
        "Canonical SMILES": "O=CC=1C=CN=C2C=CC=CC21",
        "Molecular Formula": "C<sub>10</sub>H<sub>7</sub>NO",
        "Molecular Mass": "157.17",
        "Boiling Point": "122-123 °C",
        "Melting Point": "51 °C"
    }
}