{
    "cas_no": "63675-74-1",
    "key_name": "6-Methoxy-2-(4-methoxyphenyl)benzo[<em>b</em>]thiophene",
    "cn_name": "6-甲氧基-2-(4-甲氧苯基)苯并噻吩;",
    "alternate_name": "Benzo[<em>b</em>]thiophene, 6-methoxy-2-(4-methoxyphenyl)-;6-Methoxy-2-(4-methoxyphenyl)benzo[<em>b</em>]thiophene;2-(4-Methoxyphenyl)-6-methoxybenzo[<em>b</em>]thiophene;2-(4-Methoxyphenyl)-6-methoxybenzothiophene",
    "duplicated_cas_no": "",
    "SMILES": "O(C)C1=CC=C(C=2SC=3C(C2)=CC=C(OC)C3)C=C1",
    "meta_data": {
        "InChI": "InChI=1S/C16H14O2S/c1-17-13-6-3-11(4-7-13)15-9-12-5-8-14(18-2)10-16(12)19-15/h3-10H,1-2H3",
        "InChIKey": null,
        "Canonical SMILES": "O(C=1C=CC(=CC1)C=2SC3=CC(OC)=CC=C3C2)C",
        "Molecular Formula": "C<sub>16</sub>H<sub>14</sub>O<sub>2</sub>S",
        "Molecular Mass": "270.35",
        "Melting Point": "193-195 °C"
    }
}