{
    "cas_no": "628-11-5",
    "key_name": "3-Chloropropyl chloroformate",
    "cn_name": "3-氯-1-丙基氯甲酸酯;",
    "alternate_name": "Carbonochloridic acid, 3-chloropropyl ester;Formic acid, chloro-, 3-chloropropyl ester;(3-Chloropropoxy)carbonyl chloride;3-Chloropropyl chloroformate;γ-Chloropropyl chloroformate;Chloroformic acid 3-chloropropyl ester;3-Chloropropyl carbonochloridate",
    "duplicated_cas_no": "",
    "SMILES": "O(CCCCl)C(Cl)=O",
    "meta_data": {
        "InChI": "InChI=1S/C4H6Cl2O2/c5-2-1-3-8-4(6)7/h1-3H2",
        "InChIKey": null,
        "Canonical SMILES": "O=C(Cl)OCCCCl",
        "Molecular Formula": "C<sub>4</sub>H<sub>6</sub>Cl<sub>2</sub>O<sub>2</sub>",
        "Molecular Mass": "157.00",
        "Boiling Point": "177 °C",
        "Density": "1.2946 g/cm³ @ Temp: 25 °C"
    }
}