{
    "cas_no": "765-09-3",
    "key_name": "1-Bromotridecane",
    "cn_name": "1-溴十三烷;1-溴代十三烷;",
    "alternate_name": "Tridecane, 1-bromo-;1-Bromotridecane;Tridecyl bromide;<em>n</em>-Tridecyl bromide;1-Bromo-<em>n</em>-tridecane;NSC 87870",
    "duplicated_cas_no": "",
    "SMILES": "C(CCCCCCC)CCCCCBr",
    "meta_data": {
        "InChI": "InChI=1S/C13H27Br/c1-2-3-4-5-6-7-8-9-10-11-12-13-14/h2-13H2,1H3",
        "InChIKey": null,
        "Canonical SMILES": "BrCCCCCCCCCCCCC",
        "Molecular Formula": "C<sub>13</sub>H<sub>27</sub>Br",
        "Molecular Mass": "263.26",
        "Boiling Point": "296 °C",
        "Melting Point": "6.2 °C"
    }
}