{
    "cas_no": "5396-30-5",
    "key_name": "9-Chloro-1,2,3,4-tetrahydroacridine",
    "cn_name": null,
    "alternate_name": "Acridine, 9-chloro-1,2,3,4-tetrahydro-;9-Chloro-1,2,3,4-tetrahydroacridine;NSC 1235",
    "duplicated_cas_no": "",
    "SMILES": "ClC1=C2C(=NC=3C1=CC=CC3)CCCC2",
    "meta_data": {
        "InChI": "InChI=1S/C13H12ClN/c14-13-9-5-1-3-7-11(9)15-12-8-4-2-6-10(12)13/h1,3,5,7H,2,4,6,8H2",
        "InChIKey": null,
        "Canonical SMILES": "ClC=1C=2C=CC=CC2N=C3C1CCCC3",
        "Molecular Formula": "C<sub>13</sub>H<sub>12</sub>ClN",
        "Molecular Mass": "217.69",
        "Boiling Point": "220 °C @ Press: 20 Torr",
        "Melting Point": "66-68 °C"
    }
}