{
    "cas_no": "542-88-1",
    "key_name": "Chloromethyl ether",
    "cn_name": "氧代二氯甲烷;双氯甲醚;二氯甲醚;&alpha;,&alpha;\"-二氯甲醚;对称二氯二甲醚;",
    "alternate_name": "Methane, 1,1′-oxybis[1-chloro-;Ether, bis(chloromethyl);Methane, oxybis[chloro-;1,1′-Oxybis[1-chloromethane];Bis(chloromethyl) ether;Chloromethyl ether;<em>sym</em>-Dichloromethyl ether;Dichlorodimethyl ether;α,α′-Dichlorodimethyl ether;Monochloromethyl ether;Oxybis[chloromethane];BCME;MeSH ID: D001725",
    "duplicated_cas_no": "",
    "SMILES": "O(CCl)CCl",
    "meta_data": {
        "InChI": "InChI=1S/C2H4Cl2O/c3-1-5-2-4/h1-2H2",
        "InChIKey": null,
        "Canonical SMILES": "ClCOCCl",
        "Molecular Formula": "C<sub>2</sub>H<sub>4</sub>Cl<sub>2</sub>O",
        "Molecular Mass": "114.96",
        "Boiling Point": "106 °C",
        "Melting Point": "-41.5 °C",
        "Density": "1.323 g/cm³ @ Temp: 15 °C"
    }
}