{
    "cas_no": "4212-49-1",
    "key_name": "5-Ethyl-2,4(1<em>H</em>,3<em>H</em>)-pyrimidinedione",
    "cn_name": "5-乙基尿嘧啶;",
    "alternate_name": "2,4(1<em>H</em>,3<em>H</em>)-Pyrimidinedione, 5-ethyl-;Uracil, 5-ethyl-;5-Ethyl-2,4(1<em>H</em>,3<em>H</em>)-pyrimidinedione;5-Ethyluracil",
    "duplicated_cas_no": "",
    "SMILES": "C(C)C=1C(=O)NC(=O)NC1",
    "meta_data": {
        "InChI": "InChI=1S/C6H8N2O2/c1-2-4-3-7-6(10)8-5(4)9/h3H,2H2,1H3,(H2,7,8,9,10)",
        "InChIKey": null,
        "Canonical SMILES": "O=C1NC=C(C(=O)N1)CC",
        "Molecular Formula": "C<sub>6</sub>H<sub>8</sub>N<sub>2</sub>O<sub>2</sub>",
        "Molecular Mass": "140.14",
        "Melting Point": "303 °C"
    }
}