{
    "cas_no": "40876-94-6",
    "key_name": "1-Ethyl-2-methyl-1<em>H</em>-indole",
    "cn_name": "N-乙基-2-甲基吲哚;",
    "alternate_name": "1<em>H</em>-Indole, 1-ethyl-2-methyl-;Indole, 1-ethyl-2-methyl-;1-Ethyl-2-methyl-1<em>H</em>-indole;1-Ethyl-2-methylindole;<em>N</em>-Ethyl-2-methylindole",
    "duplicated_cas_no": "",
    "SMILES": "C(C)N1C=2C(C=C1C)=CC=CC2",
    "meta_data": {
        "InChI": "InChI=1S/C11H13N/c1-3-12-9(2)8-10-6-4-5-7-11(10)12/h4-8H,3H2,1-2H3",
        "InChIKey": null,
        "Canonical SMILES": "C=1C=CC2=C(C1)C=C(N2CC)C",
        "Molecular Formula": "C<sub>11</sub>H<sub>13</sub>N",
        "Molecular Mass": "159.23",
        "Boiling Point": "85-90 °C @ Press: 0.08 Torr"
    }
}