{
    "cas_no": "775-56-4",
    "key_name": "(Diethoxymethylsilyl)benzene",
    "cn_name": "甲基苯基二乙氧基硅烷;",
    "alternate_name": "Benzene, (diethoxymethylsilyl)-;Silane, diethoxymethylphenyl-;(Diethoxymethylsilyl)benzene;Methylphenyldiethoxysilane;Phenylmethyldiethoxysilane;Diethoxymethylphenylsilane;LS 3970;Diethoxyphenylmethylsilane",
    "duplicated_cas_no": "",
    "SMILES": "[Si](OCC)(OCC)(C)C1=CC=CC=C1",
    "meta_data": {
        "InChI": "InChI=1S/C11H18O2Si/c1-4-12-14(3,13-5-2)11-9-7-6-8-10-11/h6-10H,4-5H2,1-3H3",
        "InChIKey": null,
        "Canonical SMILES": "O(CC)[Si](OCC)(C=1C=CC=CC1)C",
        "Molecular Formula": "C<sub>11</sub>H<sub>18</sub>O<sub>2</sub>Si",
        "Molecular Mass": "210.34",
        "Boiling Point": "218 °C",
        "Density": "0.963 g/cm³"
    }
}