{
    "cas_no": "2942-06-5",
    "key_name": "6-Nitrobenzothiazole",
    "cn_name": "6-硝基苯并噻唑;",
    "alternate_name": "Benzothiazole, 6-nitro-;6-Nitrobenzothiazole;NSC 170646;6-Nitrobenzo[<em>d</em>]thiazole",
    "duplicated_cas_no": "",
    "SMILES": "N(=O)(=O)C=1C=C2C(=CC1)N=CS2",
    "meta_data": {
        "InChI": "InChI=1S/C7H4N2O2S/c10-9(11)5-1-2-6-7(3-5)12-4-8-6/h1-4H",
        "InChIKey": null,
        "Canonical SMILES": "O=N(=O)C=1C=CC=2N=CSC2C1",
        "Molecular Formula": "C<sub>7</sub>H<sub>4</sub>N<sub>2</sub>O<sub>2</sub>S",
        "Molecular Mass": "180.18",
        "Melting Point": "173-174 °C"
    }
}