{
    "cas_no": "1466-82-6",
    "key_name": "Acetylsalicylic anhydride",
    "cn_name": null,
    "alternate_name": "Benzoic acid, 2-(acetyloxy)-, 1,1′-anhydride;Salicylic anhydride, diacetate;Salicylic acid acetate, anhydride;Benzoic acid, 2-(acetyloxy)-, anhydride;Acetylsalicylic anhydride;Aspirin anhydride;Acetylsalicylic acid anhydride;Contraflu;Pircan;Vigal;2-Acetoxybenzoic anhydride;NSC 63848;NSC 80056;2-(Acetyloxy)benzoyl 2-(acetyloxy)benzoate",
    "duplicated_cas_no": "49619-41-2",
    "SMILES": "O(C(C)=O)C1=C(C(OC(=O)C2=C(OC(C)=O)C=CC=C2)=O)C=CC=C1",
    "meta_data": {
        "InChI": "InChI=1S/C18H14O7/c1-11(19)23-15-9-5-3-7-13(15)17(21)25-18(22)14-8-4-6-10-16(14)24-12(2)20/h3-10H,1-2H3",
        "InChIKey": null,
        "Canonical SMILES": "O=C(OC(=O)C=1C=CC=CC1OC(=O)C)C=2C=CC=CC2OC(=O)C",
        "Molecular Formula": "C<sub>18</sub>H<sub>14</sub>O<sub>7</sub>",
        "Molecular Mass": "342.30",
        "Melting Point": "85 °C"
    }
}