{
    "cas_no": "5470-49-5",
    "key_name": "4-(Methylsulfonyl)aniline",
    "cn_name": "4-甲磺酰基苯胺;",
    "alternate_name": "Benzenamine, 4-(methylsulfonyl)-;Aniline, <em>p</em>-(methylsulfonyl)-;4-(Methylsulfonyl)benzenamine;<em>p</em>-Aminophenyl methyl sulfone;<em>p</em>-(Methylsulfonyl)aniline;4-(Methylsulfonyl)aniline;4-Aminophenyl methyl sulfone;<em>p</em>-Mesylaniline;[(4-Aminophenyl)sulfonyl]methane;Methyl 4-aminophenyl sulfone;4-(Methanesulfonyl)aniline;4-Methylsulfonylphenylamine;NSC 229035;NSC 27552;4-Methanesulfonylphenylamine;<em>p</em>-[Methylsulfonyl]phenylamine",
    "duplicated_cas_no": "",
    "SMILES": "S(C)(=O)(=O)C1=CC=C(N)C=C1",
    "meta_data": {
        "InChI": "InChI=1S/C7H9NO2S/c1-11(9,10)7-4-2-6(8)3-5-7/h2-5H,8H2,1H3",
        "InChIKey": null,
        "Canonical SMILES": "O=S(=O)(C1=CC=C(N)C=C1)C",
        "Molecular Formula": "C<sub>7</sub>H<sub>9</sub>NO<sub>2</sub>S",
        "Molecular Mass": "171.22",
        "Melting Point": "133 °C"
    }
}