{
    "cas_no": "20358-01-4",
    "key_name": "7-Chloro-2-benzothiazolamine",
    "cn_name": null,
    "alternate_name": "2-Benzothiazolamine, 7-chloro-;Benzothiazole, 2-amino-7-chloro-;7-Chloro-2-benzothiazolamine;2-Amino-7-chlorobenzothiazole",
    "duplicated_cas_no": "",
    "SMILES": "ClC1=C2C(N=C(N)S2)=CC=C1",
    "meta_data": {
        "InChI": "InChI=1S/C7H5ClN2S/c8-4-2-1-3-5-6(4)11-7(9)10-5/h1-3H,(H2,9,10)",
        "InChIKey": null,
        "Canonical SMILES": "ClC1=CC=CC=2N=C(SC12)N",
        "Molecular Formula": "C<sub>7</sub>H<sub>5</sub>ClN<sub>2</sub>S",
        "Molecular Mass": "184.65",
        "Melting Point": "177-178 °C"
    }
}