{
    "cas_no": "55-55-0",
    "key_name": "Metol",
    "cn_name": null,
    "alternate_name": "Phenol, 4-(methylamino)-, sulfate (2:1);Phenol, <em>p</em>-(methylamino)-, sulfate (2:1) (salt);Phenol, 4-(methylamino)-, sulfate (2:1) (salt);Armol;Elon;Genol;Graphol;<em>p</em>-Methylaminophenol sulphate (2:1);Metol;Photol;Pictol;Planetol;Rhodol;Metatyl;<em>N</em>-Methyl-<em>p</em>-aminophenol sulfate;<em>p</em>-Methylaminophenol sulfate;4-(Methylamino)phenol sulfate (2:1) salt;<em>N</em>-Methyl-4-hydroxyaniline hemisulfate;Elon (developer);<em>N</em>-Methyl-<em>p</em>-aminophenol sulfuric acid salt (2:1);<em>N</em>-Methyl-<em>p</em>-aminophenol sulfuric acid hemisalt;4-(Methylamino)phenol hemisulfate",
    "duplicated_cas_no": "160976-13-6",
    "SMILES": "S(=O)(=O)(O)O.N(C)C1=CC=C(O)C=C1",
    "meta_data": {
        "InChI": "InChI=1S/C7H9NO.H2O4S/c1-8-6-2-4-7(9)5-3-6;1-5(2,3)4/h2-5,8-9H,1H3;(H2,1,2,3,4)",
        "InChIKey": null,
        "Canonical SMILES": "O=S(=O)(O)O.OC1=CC=C(C=C1)NC",
        "Molecular Formula": "C<sub>7</sub>H<sub>9</sub>NO.<sup>1</sup>/<sub>2</sub>H<sub>2</sub>O<sub>4</sub>S",
        "Molecular Mass": "",
        "Melting Point": "260 °C (decomp)"
    }
}