{
    "cas_no": "3153-44-4",
    "key_name": "4-Methoxy-γ-oxobenzenebutanoic acid",
    "cn_name": "3-(4-甲氧基苯甲酰基)丙酸;",
    "alternate_name": "Benzenebutanoic acid, 4-methoxy-γ-oxo-;Propionic acid, 3-<em>p</em>-anisoyl-;4-Methoxy-γ-oxobenzenebutanoic acid;3-<em>p</em>-Anisoylpropionic acid;3-(4-Methoxybenzoyl)propionic acid;3-(<em>p</em>-Methoxybenzoyl)propionic acid;3-(4-Methoxybenzoyl)propanoic acid;4-Oxo-4-(4-methoxyphenyl)butanoic acid;β-(4-Methoxybenzoyl)propionic acid;4-(4-Methoxyphenyl)-4-oxobutyric acid;3-(<em>p</em>-Methoxybenzoyl)propanoic acid;4-(4-Methoxyphenyl)-4-oxobutanoic acid;NSC 12472;4-(4-Methoxybenzoyl)propionic acid",
    "duplicated_cas_no": "",
    "SMILES": "C(CCC(O)=O)(=O)C1=CC=C(OC)C=C1",
    "meta_data": {
        "InChI": "InChI=1S/C11H12O4/c1-15-9-4-2-8(3-5-9)10(12)6-7-11(13)14/h2-5H,6-7H2,1H3,(H,13,14)",
        "InChIKey": null,
        "Canonical SMILES": "O=C(O)CCC(=O)C1=CC=C(OC)C=C1",
        "Molecular Formula": "C<sub>11</sub>H<sub>12</sub>O<sub>4</sub>",
        "Molecular Mass": "208.21",
        "Melting Point": "148-150 °C"
    }
}