{
    "cas_no": "13468-02-5",
    "key_name": "<em>N</em>,<em>N</em>-Dimethyl-2-phenoxyethanamine",
    "cn_name": "N,N-二甲基-2-苯氧基乙胺;N,N-二甲基-2-苯氧基乙胺;",
    "alternate_name": "Ethanamine, <em>N</em>,<em>N</em>-dimethyl-2-phenoxy-;Ethylamine, <em>N</em>,<em>N</em>-dimethyl-2-phenoxy-;<em>N</em>,<em>N</em>-Dimethyl-2-phenoxyethanamine;2-(<em>N</em>,<em>N</em>-Dimethylamino)ethyl phenyl ether;Dimethyl(2-phenoxyethyl)amine;2-(Dimethylamino)ethyl phenyl ether;(2-Dimethylaminoethoxy)benzene;<em>N</em>,<em>N</em>-Dimethyl-2-phenoxyethylamine;<em>N</em>,<em>N</em>-Dimethyl-2-phenoxyethan-1-amine",
    "duplicated_cas_no": "",
    "SMILES": "O(CCN(C)C)C1=CC=CC=C1",
    "meta_data": {
        "InChI": "InChI=1S/C10H15NO/c1-11(2)8-9-12-10-6-4-3-5-7-10/h3-7H,8-9H2,1-2H3",
        "InChIKey": null,
        "Canonical SMILES": "O(C=1C=CC=CC1)CCN(C)C",
        "Molecular Formula": "C<sub>10</sub>H<sub>15</sub>NO",
        "Molecular Mass": "165.23",
        "Boiling Point": "125-127 °C @ Press: 15 Torr",
        "Melting Point": "163-164 °C",
        "Density": "0.9830 g/cm³ @ Temp: 20 °C"
    }
}