{
    "cas_no": "19956-54-8",
    "key_name": "4-Methoxy-2-[(2<em>E</em>)-1-methoxy-3-phenyl-2-propen-1-ylidene]-4-cyclopentene-1,3-dione",
    "cn_name": null,
    "alternate_name": "4-Cyclopentene-1,3-dione, 4-methoxy-2-[(2<em>E</em>)-1-methoxy-3-phenyl-2-propen-1-ylidene]-;4-Cyclopentene-1,3-dione, 4-methoxy-2-(α-methoxycinnamylidene)-;4-Cyclopentene-1,3-dione, 4-methoxy-2-[(2<em>E</em>)-1-methoxy-3-phenyl-2-propenylidene]-;4-Methoxy-2-[(2<em>E</em>)-1-methoxy-3-phenyl-2-propen-1-ylidene]-4-cyclopentene-1,3-dione;Methyllucidone;Lucidone, methyl-",
    "duplicated_cas_no": "",
    "SMILES": "",
    "meta_data": {
        "InChI": "",
        "InChIKey": null,
        "Canonical SMILES": "",
        "Molecular Formula": "C<sub>16</sub>H<sub>14</sub>O<sub>4</sub>",
        "Molecular Mass": "270.28",
        "Melting Point": "115-116 °C"
    }
}