{
    "cas_no": "13678-67-6",
    "key_name": "Difurfuryl sulfide",
    "cn_name": "二糠基硫醚;",
    "alternate_name": "Furan, 2,2′-[thiobis(methylene)]bis-;Furan, 2,2′-(thiodimethylene)di-;2,2′-[Thiobis(methylene)]bis[furan];Difurfuryl sulfide;2-[[(Furan-2-ylmethyl)sulfanyl]methyl]furan;2-(Furan-2-ylmethylsulfanylmethyl)furan",
    "duplicated_cas_no": "",
    "SMILES": "C(SCC1=CC=CO1)C2=CC=CO2",
    "meta_data": {
        "InChI": "InChI=1S/C10H10O2S/c1-3-9(11-5-1)7-13-8-10-4-2-6-12-10/h1-6H,7-8H2",
        "InChIKey": null,
        "Canonical SMILES": "O1C=CC=C1CSCC=2OC=CC2",
        "Molecular Formula": "C<sub>10</sub>H<sub>10</sub>O<sub>2</sub>S",
        "Molecular Mass": "194.25",
        "Boiling Point": "135-143 °C @ Press: 14 Torr"
    }
}