{
    "cas_no": "5334-23-6",
    "key_name": "Tisopurine",
    "cn_name": "巯异嘌呤;4-巯基吡唑并[3,4-d]嘧啶;",
    "alternate_name": "4<em>H</em>-Pyrazolo[3,4-<em>d</em>]pyrimidine-4-thione, 1,5-dihydro-;1<em>H</em>-Pyrazolo[3,4-<em>d</em>]pyrimidine-4(5<em>H</em>)-thione;1,5-Dihydro-4<em>H</em>-pyrazolo[3,4-<em>d</em>]pyrimidine-4-thione;4-Mercaptopyrazolo[3,4-<em>d</em>]pyrimidine;Thiopurinol;MPP (pharmaceutical);Allopurinol, thio-;1<em>H</em>-Pyrazolo[3,4-<em>d</em>]pyrimidine-4-thiol;5<em>H</em>-Pyrazolo[3,4-<em>d</em>]pyrimidine-4-thione;4-Mercapto-1<em>H</em>-pyrazolo[3,4-<em>d</em>]pyrimidine;Tisopurine;MPP;8-Aza-7-deaza-6-thiopurine;NSC 1392;1<em>H</em>,4<em>H</em>,5<em>H</em>-Pyrazolo[3,4-<em>d</em>]pyrimidine-4-thione;1<em>H</em>,4<em>H</em>,7<em>H</em>-Pyrazolo[3,4-<em>d</em>]pyrimidine-4-thione;1,2-Dihydropyrazolo[3,4-<em>d</em>]pyrimidine-4-thione",
    "duplicated_cas_no": "6014-05-7",
    "SMILES": "S=C1C2=C(NC=N1)NN=C2",
    "meta_data": {
        "InChI": "InChI=1S/C5H4N4S/c10-5-3-1-8-9-4(3)6-2-7-5/h1-2H,(H2,6,7,8,9,10)",
        "InChIKey": null,
        "Canonical SMILES": "S=C1N=CNC=2NN=CC12",
        "Molecular Formula": "C<sub>5</sub>H<sub>4</sub>N<sub>4</sub>S",
        "Molecular Mass": "152.18",
        "Melting Point": "&gt;360 °C"
    }
}