{
    "cas_no": "2372-45-4",
    "key_name": "Sodium butoxide",
    "cn_name": "正丁醇钠;",
    "alternate_name": "1-Butanol, sodium salt (1:1);Butyl alcohol, sodium salt;Sodium butoxide;1-Butanol, sodium salt;Sodium butylate;Sodium 1-butoxide;Sodium <em>n</em>-butylate;Sodium <em>n</em>-butoxide;Sodium butanolate",
    "duplicated_cas_no": "",
    "SMILES": "C(CC)CO.[Na]",
    "meta_data": {
        "InChI": "InChI=1S/C4H10O.Na/c1-2-3-4-5;/h5H,2-4H2,1H3;",
        "InChIKey": null,
        "Canonical SMILES": "[Na].OCCCC",
        "Molecular Formula": "C<sub>4</sub>H<sub>10</sub>O.Na",
        "Molecular Mass": "",
        "Melting Point": "-21 °C",
        "Density": "0.861 g/cm³"
    }
}