{
    "cas_no": "506-77-4",
    "key_name": "Cyanogen chloride",
    "cn_name": "氯化氰;",
    "alternate_name": "Cyanogen chloride ((CN)Cl);Cyanogen chloride;Chlorocyanogen;Cyanogen chloride (ClCN);Chlorine cyanide (ClCN);Chlorine cyanide;Chlorocyanide (ClCN);Chlorocyan;Chlorocyanide;Cyanochloride (CNCl);Chloronitrile",
    "duplicated_cas_no": "",
    "SMILES": "C(Cl)#N",
    "meta_data": {
        "InChI": "InChI=1S/CClN/c2-1-3",
        "InChIKey": null,
        "Canonical SMILES": "N#CCl",
        "Molecular Formula": "CClN",
        "Molecular Mass": "61.47",
        "Boiling Point": "12.7 °C @ Press: 760 Torr",
        "Melting Point": "-6 °C",
        "Density": "1.186 g/cm³ @ Temp: 20 °C"
    }
}