{
    "cas_no": "24623-25-4",
    "key_name": "4-Nitro-1-indanone",
    "cn_name": "4-硝基-1-茚酮;",
    "alternate_name": "1<em>H</em>-Inden-1-one, 2,3-dihydro-4-nitro-;1-Indanone, 4-nitro-;2,3-Dihydro-4-nitro-1<em>H</em>-inden-1-one;4-Nitro-1-indanone;4-Nitroindanone;NSC 225091;4-Nitro-2,3-dihydro-1<em>H</em>-inden-1-one",
    "duplicated_cas_no": "",
    "SMILES": "N(=O)(=O)C1=C2C(C(=O)CC2)=CC=C1",
    "meta_data": {
        "InChI": "InChI=1S/C9H7NO3/c11-9-5-4-6-7(9)2-1-3-8(6)10(12)13/h1-3H,4-5H2",
        "InChIKey": null,
        "Canonical SMILES": "O=C1C2=CC=CC(=C2CC1)N(=O)=O",
        "Molecular Formula": "C<sub>9</sub>H<sub>7</sub>NO<sub>3</sub>",
        "Molecular Mass": "177.16",
        "Melting Point": "104-105 °C"
    }
}