{
    "cas_no": "2176-62-7",
    "key_name": "Pentachloropyridine",
    "cn_name": "五氯吡啶;",
    "alternate_name": "Pyridine, 2,3,4,5,6-pentachloro-;Pyridine, pentachloro-;2,3,4,5,6-Pentachloropyridine;Pentachloropyridine;Perchloropyridine;NSC 26286",
    "duplicated_cas_no": "",
    "SMILES": "ClC=1C(Cl)=C(Cl)C(Cl)=NC1Cl",
    "meta_data": {
        "InChI": "InChI=1S/C5Cl5N/c6-1-2(7)4(9)11-5(10)3(1)8",
        "InChIKey": null,
        "Canonical SMILES": "ClC=1N=C(Cl)C(Cl)=C(Cl)C1Cl",
        "Molecular Formula": "C<sub>5</sub>Cl<sub>5</sub>N",
        "Molecular Mass": "251.33",
        "Boiling Point": "280 °C",
        "Melting Point": "125.5 °C"
    }
}