{
    "cas_no": "17355-10-1",
    "key_name": "<span class=\"text-smallcaps\">L</smallcap>-Tyrosyl-<smallcap>L</span>-leucine",
    "cn_name": null,
    "alternate_name": "<span class=\"text-smallcaps\">L</smallcap>-Leucine, <smallcap>L</span>-tyrosyl-;Leucine, <em>N</em>-<span class=\"text-smallcaps\">L</smallcap>-tyrosyl-, <smallcap>L</span>-;<span class=\"text-smallcaps\">L</smallcap>-Leucine, <em>N</em>-<smallcap>L</span>-tyrosyl-;Leucine, <em>N</em>-tyrosyl-;Leucine, <em>N</em>-<span class=\"text-smallcaps\">L</span>-tyrosyl-;<span class=\"text-smallcaps\">L</smallcap>-Tyrosyl-<smallcap>L</span>-leucine;10: PN: EP1374885 SEQID: 10 claimed protein;52: PN: WO2005081628 SEQID: 1052 claimed protein;27: PN: US20090239809 SEQID: 27 claimed protein;68: PN: EP2161028 PAGE: 10 claimed protein;64: PN: WO2020097235 SEQID: 293 claimed protein;9: PN: WO2021191247 SEQID: 9 claimed protein;48: PN: WO2021211467 SEQID: 201 claimed sequence",
    "duplicated_cas_no": "",
    "SMILES": "C([C@@H](C(N[C@@H](CC(C)C)C(O)=O)=O)N)C1=CC=C(O)C=C1",
    "meta_data": {
        "InChI": "InChI=1S/C15H22N2O4/c1-9(2)7-13(15(20)21)17-14(19)12(16)8-10-3-5-11(18)6-4-10/h3-6,9,12-13,18H,7-8,16H2,1-2H3,(H,17,19)(H,20,21)/t12-,13-/m0/s1",
        "InChIKey": null,
        "Canonical SMILES": "O=C(O)C(NC(=O)C(N)CC1=CC=C(O)C=C1)CC(C)C",
        "Molecular Formula": "C<sub>15</sub>H<sub>22</sub>N<sub>2</sub>O<sub>4</sub>",
        "Molecular Mass": "294.35",
        "Melting Point": "280 °C (sublm)"
    }
}