{
    "cas_no": "1134-35-6",
    "key_name": "4,4′-Dimethyl-2,2′-bipyridine",
    "cn_name": "4,4\"-二甲基-2,2\"-联吡啶;",
    "alternate_name": "2,2′-Bipyridine, 4,4′-dimethyl-;2,2′-Bi-4-picoline;4,4′-Dimethyl-2,2′-bipyridine;4,4′-Dimethyl-2,2′-bipyridyl;4,4′-Dimethyl-2,2′-dipyridyl;NSC 3261;4,4′-Dimethyl-2,2′-bipyridinyl;4-Methyl-2-(4-methylpyridin-2-yl)pyridine;4,4′-Dimethyl-2,2′-dipyridine",
    "duplicated_cas_no": "",
    "SMILES": "CC=1C=C(N=CC1)C2=CC(C)=CC=N2",
    "meta_data": {
        "InChI": "InChI=1S/C12H12N2/c1-9-3-5-13-11(7-9)12-8-10(2)4-6-14-12/h3-8H,1-2H3",
        "InChIKey": null,
        "Canonical SMILES": "N=1C=CC(=CC1C=2N=CC=C(C2)C)C",
        "Molecular Formula": "C<sub>12</sub>H<sub>12</sub>N<sub>2</sub>",
        "Molecular Mass": "184.24",
        "Melting Point": "171-172 °C"
    }
}