{
    "cas_no": "3813-27-2",
    "key_name": "3-(Diethylamino)propanamide",
    "cn_name": null,
    "alternate_name": "Propanamide, 3-(diethylamino)-;Propionamide, 3-(diethylamino)-;3-(Diethylamino)propanamide;3-(Diethylamino)propionamide",
    "duplicated_cas_no": "",
    "SMILES": "N(CCC(N)=O)(CC)CC",
    "meta_data": {
        "InChI": "InChI=1S/C7H16N2O/c1-3-9(4-2)6-5-7(8)10/h3-6H2,1-2H3,(H2,8,10)",
        "InChIKey": null,
        "Canonical SMILES": "O=C(N)CCN(CC)CC",
        "Molecular Formula": "C<sub>7</sub>H<sub>16</sub>N<sub>2</sub>O",
        "Molecular Mass": "144.21",
        "Boiling Point": "154-157 °C @ Press: 8 Torr"
    }
}