{
    "cas_no": "7605-30-3",
    "key_name": "Acetic acid, 2-(phenylsulfonyl)-, ethyl ester",
    "cn_name": null,
    "alternate_name": "Acetic acid, 2-(phenylsulfonyl)-, ethyl ester;Acetic acid, (phenylsulfonyl)-, ethyl ester;Ethyl phenylsulfonylacetate;Ethyl benzenesulfonylacetate;(Phenylsulfonyl)acetic acid ethyl ester;Ethyl 2-(phenylsulfonyl)acetate",
    "duplicated_cas_no": "1210972-90-9",
    "SMILES": "S(CC(OCC)=O)(=O)(=O)C1=CC=CC=C1",
    "meta_data": {
        "InChI": "InChI=1S/C10H12O4S/c1-2-14-10(11)8-15(12,13)9-6-4-3-5-7-9/h3-7H,2,8H2,1H3",
        "InChIKey": null,
        "Canonical SMILES": "O=C(OCC)CS(=O)(=O)C=1C=CC=CC1",
        "Molecular Formula": "C<sub>10</sub>H<sub>12</sub>O<sub>4</sub>S",
        "Molecular Mass": "228.26",
        "Melting Point": "42.5-43.5 °C"
    }
}