{
    "cas_no": "37904-72-6",
    "key_name": "2-Bromo-1-[4-(dimethylamino)phenyl]ethanone",
    "cn_name": null,
    "alternate_name": "Ethanone, 2-bromo-1-[4-(dimethylamino)phenyl]-;2-Bromo-1-[4-(dimethylamino)phenyl]ethanone;ω-Bromo-4-(<em>N</em>,<em>N</em>-dimethylamino)acetophenone;2-Bromo-4-(dimethylamino)acetophenone;<em>p</em>-Dimethylaminophenacyl bromide;2-Bromo-4′-(dimethylamino)acetophenone;α-Bromo-4-(dimethylamino)acetophenone;4-(Dimethylamino)phenacyl bromide;2-Bromo-1-[4-(dimethylamino)phenyl]ethan-1-one",
    "duplicated_cas_no": "",
    "SMILES": "C(CBr)(=O)C1=CC=C(N(C)C)C=C1",
    "meta_data": {
        "InChI": "InChI=1S/C10H12BrNO/c1-12(2)9-5-3-8(4-6-9)10(13)7-11/h3-6H,7H2,1-2H3",
        "InChIKey": null,
        "Canonical SMILES": "O=C(C1=CC=C(C=C1)N(C)C)CBr",
        "Molecular Formula": "C<sub>10</sub>H<sub>12</sub>BrNO",
        "Molecular Mass": "242.11",
        "Melting Point": "90-92 °C"
    }
}