{
    "cas_no": "253-82-7",
    "key_name": "Quinazoline",
    "cn_name": "喹唑啉;",
    "alternate_name": "Quinazoline;1,3-Benzodiazine;5,6-Benzopyrimidine;1,3-Diazanaphthalene;Phenmiazine;NSC 72372",
    "duplicated_cas_no": "",
    "SMILES": "C12=C(C=CC=C1)N=CN=C2",
    "meta_data": {
        "InChI": "InChI=1S/C8H6N2/c1-2-4-8-7(3-1)5-9-6-10-8/h1-6H",
        "InChIKey": null,
        "Canonical SMILES": "N=1C=NC=2C=CC=CC2C1",
        "Molecular Formula": "C<sub>8</sub>H<sub>6</sub>N<sub>2</sub>",
        "Molecular Mass": "130.15",
        "Boiling Point": "241 °C",
        "Melting Point": "48 °C"
    }
}