{
    "cas_no": "25451-15-4",
    "key_name": "Felbamate",
    "cn_name": "非氨酯;非吧吗特;2-苯基-1,3-丙二醇二氨基甲酸酯;",
    "alternate_name": "1,3-Propanediol, 2-phenyl-, 1,3-dicarbamate;1,3-Propanediol, 2-phenyl-, dicarbamate;Carbamic acid, 2-phenyltrimethylene ester;W 554;Felbamate;Felbatol;Felbamyl;Taloxa;ADD 03055;1,3-Bis(carbamoyloxy)-2-phenylpropane;2-Phenyl-1,3-propanediol dicarbamate",
    "duplicated_cas_no": "",
    "SMILES": "C(COC(N)=O)(COC(N)=O)C1=CC=CC=C1",
    "meta_data": {
        "InChI": "InChI=1S/C11H14N2O4/c12-10(14)16-6-9(7-17-11(13)15)8-4-2-1-3-5-8/h1-5,9H,6-7H2,(H2,12,14)(H2,13,15)",
        "InChIKey": null,
        "Canonical SMILES": "O=C(OCC(C=1C=CC=CC1)COC(=O)N)N",
        "Molecular Formula": "C<sub>11</sub>H<sub>14</sub>N<sub>2</sub>O<sub>4</sub>",
        "Molecular Mass": "238.24",
        "Melting Point": "151.5 °C"
    }
}