{
    "cas_no": "57149-08-3",
    "key_name": "1-Piperazineethanol, 4-(2-methoxyphenyl)-α-[(1-naphthalenyloxy)methyl]-, hydrochloride (1:2)",
    "cn_name": null,
    "alternate_name": "1-Piperazineethanol, 4-(2-methoxyphenyl)-α-[(1-naphthalenyloxy)methyl]-, hydrochloride (1:2);1-Piperazineethanol, 4-(2-methoxyphenyl)-α-[(1-naphthalenyloxy)methyl]-, dihydrochloride;Naftopidil dihydrochloride",
    "duplicated_cas_no": "",
    "SMILES": "O(CC(CN1CCN(CC1)C2=C(OC)C=CC=C2)O)C=3C4=C(C=CC3)C=CC=C4.Cl",
    "meta_data": {
        "InChI": "InChI=1S/C24H28N2O3.2ClH/c1-28-24-11-5-4-10-22(24)26-15-13-25(14-16-26)17-20(27)18-29-23-12-6-8-19-7-2-3-9-21(19)23;;/h2-12,20,27H,13-18H2,1H3;2*1H",
        "InChIKey": null,
        "Canonical SMILES": "Cl.OC(COC1=CC=CC=2C=CC=CC12)CN3CCN(C=4C=CC=CC4OC)CC3",
        "Molecular Formula": "C<sub>24</sub>H<sub>28</sub>N<sub>2</sub>O<sub>3</sub>.2ClH",
        "Molecular Mass": "",
        "Melting Point": "212-213 °C"
    }
}