{
    "cas_no": "393-38-4",
    "key_name": "1,4-Difluoro-2-(trifluoromethyl)benzene",
    "cn_name": null,
    "alternate_name": "Benzene, 1,4-difluoro-2-(trifluoromethyl)-;Toluene, α,α,α,2,5-pentafluoro-;1,4-Difluoro-2-(trifluoromethyl)benzene;2,5-Difluorobenzotrifluoride",
    "duplicated_cas_no": "",
    "SMILES": "C(F)(F)(F)C1=C(F)C=CC(F)=C1",
    "meta_data": {
        "InChI": "InChI=1S/C7H3F5/c8-4-1-2-6(9)5(3-4)7(10,11)12/h1-3H",
        "InChIKey": null,
        "Canonical SMILES": "FC1=CC=C(F)C(=C1)C(F)(F)F",
        "Molecular Formula": "C<sub>7</sub>H<sub>3</sub>F<sub>5</sub>",
        "Molecular Mass": "182.09",
        "Boiling Point": "107-108 °C",
        "Melting Point": "-14 °C",
        "Density": "1.4244 g/cm³ @ Temp: 15 °C"
    }
}