{
    "cas_no": "614-75-5",
    "key_name": "(2-Hydroxyphenyl)acetic acid",
    "cn_name": "邻羟基苯乙酸;2-羟基苯乙酸;",
    "alternate_name": "Benzeneacetic acid, 2-hydroxy-;Acetic acid, (<em>o</em>-hydroxyphenyl)-;2-Hydroxybenzeneacetic acid;(2-Hydroxyphenyl)acetic acid;(<em>o</em>-Hydroxyphenyl)acetic acid;2-HPAA;NSC 62000;2-(2′-Hydroxyphenyl)acetic acid;2-(2-Hydroxyphenyl)acetic acid",
    "duplicated_cas_no": "",
    "SMILES": "C(C(O)=O)C1=C(O)C=CC=C1",
    "meta_data": {
        "InChI": "InChI=1S/C8H8O3/c9-7-4-2-1-3-6(7)5-8(10)11/h1-4,9H,5H2,(H,10,11)",
        "InChIKey": null,
        "Canonical SMILES": "O=C(O)CC=1C=CC=CC1O",
        "Molecular Formula": "C<sub>8</sub>H<sub>8</sub>O<sub>3</sub>",
        "Molecular Mass": "152.15",
        "Boiling Point": "240 °C",
        "Melting Point": "148 °C"
    }
}