{
    "cas_no": "4892-02-8",
    "key_name": "Methyl thiosalicylate",
    "cn_name": "甲基硫代水杨酸盐;",
    "alternate_name": "Benzoic acid, 2-mercapto-, methyl ester;Benzoic acid, <em>o</em>-mercapto-, methyl ester;Methyl thiosalicylate;Methyl 2-mercaptobenzoate;Methyl <em>o</em>-mercaptobenzoate;2-(Methoxycarbonyl)thiophenol;2-Mercaptobenzoic acid methyl ester;Methyl 2-thiosalicylate;NSC 30156;2-(Methoxycarbonyl)benzenethiol;Thiosalicylic acid methyl ester;Methyl 2-sulfanylbenzoate",
    "duplicated_cas_no": "",
    "SMILES": "C(OC)(=O)C1=C(S)C=CC=C1",
    "meta_data": {
        "InChI": "InChI=1S/C8H8O2S/c1-10-8(9)6-4-2-3-5-7(6)11/h2-5,11H,1H3",
        "InChIKey": null,
        "Canonical SMILES": "O=C(OC)C=1C=CC=CC1S",
        "Molecular Formula": "C<sub>8</sub>H<sub>8</sub>O<sub>2</sub>S",
        "Molecular Mass": "168.21",
        "Boiling Point": "115-119 °C @ Press: 1-2 Torr",
        "Melting Point": "164 °C"
    }
}