{
    "cas_no": "14918-21-9",
    "key_name": "5-Hexynenitrile",
    "cn_name": null,
    "alternate_name": "5-Hexynenitrile;5-Hexynonitrile;5-Cyano-1-pentyne;5-Hexyne-1-nitrile;3-Cyanopropylacetylene",
    "duplicated_cas_no": "",
    "SMILES": "C(CC#C)CC#N",
    "meta_data": {
        "InChI": "InChI=1S/C6H7N/c1-2-3-4-5-6-7/h1H,3-5H2",
        "InChIKey": null,
        "Canonical SMILES": "N#CCCCC#C",
        "Molecular Formula": "C<sub>6</sub>H<sub>7</sub>N",
        "Molecular Mass": "93.13",
        "Boiling Point": "115-117 °C @ Press: 112 Torr",
        "Density": "0.8916 g/cm³ @ Temp: 20 °C"
    }
}