{
    "cas_no": "134575-06-7",
    "key_name": "Ethyl (1α,5α,6α)-2,4-dioxo-3-(phenylmethyl)-3-azabicyclo[3.1.0]hexane-6-carboxylate",
    "cn_name": null,
    "alternate_name": "3-Azabicyclo[3.1.0]hexane-6-carboxylic acid, 2,4-dioxo-3-(phenylmethyl)-, ethyl ester, (1α,5α,6α)-;Ethyl (1α,5α,6α)-2,4-dioxo-3-(phenylmethyl)-3-azabicyclo[3.1.0]hexane-6-carboxylate",
    "duplicated_cas_no": "",
    "SMILES": "C(OCC)(=O)[C@@H]1[C@@]2([C@]1(C(=O)N(CC3=CC=CC=C3)C2=O)[H])[H]",
    "meta_data": {
        "InChI": "InChI=1/C15H15NO4/c1-2-20-15(19)12-10-11(12)14(18)16(13(10)17)8-9-6-4-3-5-7-9/h3-7,10-12H,2,8H2,1H3/t10-,11+,12+",
        "InChIKey": null,
        "Canonical SMILES": "O=C(OCC)C1C2C(=O)N(C(=O)C12)CC=3C=CC=CC3",
        "Molecular Formula": "C<sub>15</sub>H<sub>15</sub>NO<sub>4</sub>",
        "Molecular Mass": "273.28",
        "Melting Point": "105 °C"
    }
}