{
    "cas_no": "3658-95-5",
    "key_name": "1,1-Diethoxybutane",
    "cn_name": "丁醛二乙缩醛;1,1-二乙氧基丁烷;",
    "alternate_name": "Butane, 1,1-diethoxy-;Butyraldehyde, diethyl acetal;1,1-Diethoxybutane;Butylaldehyde diethyl acetal;Butyraldehyde ethyl acetal;Butanal diethyl acetal",
    "duplicated_cas_no": "",
    "SMILES": "C(CCC)(OCC)OCC",
    "meta_data": {
        "InChI": "InChI=1S/C8H18O2/c1-4-7-8(9-5-2)10-6-3/h8H,4-7H2,1-3H3",
        "InChIKey": null,
        "Canonical SMILES": "O(CC)C(OCC)CCC",
        "Molecular Formula": "C<sub>8</sub>H<sub>18</sub>O<sub>2</sub>",
        "Molecular Mass": "146.23",
        "Boiling Point": "143 °C",
        "Density": "0.8285 g/cm³ @ Temp: 20 °C"
    }
}