{
    "cas_no": "112-89-0",
    "key_name": "1-Bromooctadecane",
    "cn_name": "溴代十八烷;硬脂基溴;",
    "alternate_name": "Octadecane, 1-bromo-;1-Bromooctadecane;Octadecyl bromide;<em>n</em>-Octadecyl bromide;Stearyl bromide;NSC 5542",
    "duplicated_cas_no": "1027627-82-2;1465759-08-3",
    "SMILES": "C(CCCCCCCCBr)CCCCCCCCC",
    "meta_data": {
        "InChI": "InChI=1S/C18H37Br/c1-2-3-4-5-6-7-8-9-10-11-12-13-14-15-16-17-18-19/h2-18H2,1H3",
        "InChIKey": null,
        "Canonical SMILES": "BrCCCCCCCCCCCCCCCCCC",
        "Molecular Formula": "C<sub>18</sub>H<sub>37</sub>Br",
        "Molecular Mass": "333.39",
        "Boiling Point": "210 °C",
        "Melting Point": "28.2 °C"
    }
}