{
    "cas_no": "612-96-4",
    "key_name": "2-Phenylquinoline",
    "cn_name": "2-苯基喹啉;",
    "alternate_name": "Quinoline, 2-phenyl-;2-Phenylquinoline;α-Phenylquinoline;NSC 118137",
    "duplicated_cas_no": "",
    "SMILES": "C1(=NC2=C(C=C1)C=CC=C2)C3=CC=CC=C3",
    "meta_data": {
        "InChI": "InChI=1S/C15H11N/c1-2-6-12(7-3-1)15-11-10-13-8-4-5-9-14(13)16-15/h1-11H",
        "InChIKey": null,
        "Canonical SMILES": "N=1C=2C=CC=CC2C=CC1C=3C=CC=CC3",
        "Molecular Formula": "C<sub>15</sub>H<sub>11</sub>N",
        "Molecular Mass": "205.25",
        "Boiling Point": "363 °C",
        "Melting Point": "86 °C"
    }
}