{
    "cas_no": "7763-65-7",
    "key_name": "<span class=\"text-smallcaps\">L</smallcap>-Histidyl-<smallcap>L</span>-leucine",
    "cn_name": "His-Leu;",
    "alternate_name": "<span class=\"text-smallcaps\">L</smallcap>-Leucine, <smallcap>L</span>-histidyl-;Leucine, <em>N</em>-<span class=\"text-smallcaps\">L</smallcap>-histidyl-, <smallcap>L</span>-;<span class=\"text-smallcaps\">L</smallcap>-Leucine, <em>N</em>-<smallcap>L</span>-histidyl-;Leucine, <em>N</em>-histidyl-;<span class=\"text-smallcaps\">L</smallcap>-Histidyl-<smallcap>L</span>-leucine;Histidylleucine;<em>N</em>-Histidylleucine;28: PN: WO2009143133 PAGE: 61 claimed protein;83: PN: EP2161028 PAGE: 10 claimed protein;20: PN: WO2021211467 SEQID: 173 claimed sequence;789: PN: WO2022215055 SEQID: 789 claimed protein",
    "duplicated_cas_no": "",
    "SMILES": "C([C@@H](C(N[C@@H](CC(C)C)C(O)=O)=O)N)C1=CN=CN1",
    "meta_data": {
        "InChI": "InChI=1S/C12H20N4O3/c1-7(2)3-10(12(18)19)16-11(17)9(13)4-8-5-14-6-15-8/h5-7,9-10H,3-4,13H2,1-2H3,(H,14,15)(H,16,17)(H,18,19)/t9-,10-/m0/s1",
        "InChIKey": null,
        "Canonical SMILES": "O=C(O)C(NC(=O)C(N)CC1=CN=CN1)CC(C)C",
        "Molecular Formula": "C<sub>12</sub>H<sub>20</sub>N<sub>4</sub>O<sub>3</sub>",
        "Molecular Mass": "268.31",
        "Melting Point": "214-217 °C (decomp)"
    }
}