{
    "cas_no": "1689-89-0",
    "key_name": "Nitroxynil",
    "cn_name": null,
    "alternate_name": "Benzonitrile, 4-hydroxy-3-iodo-5-nitro-;4-Hydroxy-3-iodo-5-nitrobenzonitrile;M and B 10755;Nitroxynil;Nitroxinil;2-Iodo-4-cyano-6-nitrophenol;4-Cyano-2-iodo-6-nitrophenol;3-Iodo-5-nitro-4-hydroxybenzonitrile;3-Nitro-5-iodo-4-hydroxybenzonitrile;3-Nitro-4-hydroxy-5-iodobenzonitrile",
    "duplicated_cas_no": "",
    "SMILES": "N(=O)(=O)C1=C(O)C(I)=CC(C#N)=C1",
    "meta_data": {
        "InChI": "InChI=1S/C7H3IN2O3/c8-5-1-4(3-9)2-6(7(5)11)10(12)13/h1-2,11H",
        "InChIKey": null,
        "Canonical SMILES": "N#CC1=CC(I)=C(O)C(=C1)N(=O)=O",
        "Molecular Formula": "C<sub>7</sub>H<sub>3</sub>IN<sub>2</sub>O<sub>3</sub>",
        "Molecular Mass": "290.01",
        "Melting Point": "137.5 °C"
    }
}