{
    "cas_no": "67333-70-4",
    "key_name": "1,2-Cyclohexanediamine, (1<em>S</em>,2<em>S</em>)-, (2<em>S</em>,3<em>S</em>)-2,3-dihydroxybutanedioate (1:1)",
    "cn_name": "(1S,2S)-(-)-1,2-环己二胺D-酒石酸盐;",
    "alternate_name": "1,2-Cyclohexanediamine, (1<em>S</em>,2<em>S</em>)-, (2<em>S</em>,3<em>S</em>)-2,3-dihydroxybutanedioate (1:1);1,2-Cyclohexanediamine, (1<em>S</em>-<em>trans</em>)-, [<em>S</em>-(<em>R</em>*,<em>R</em>*)]-2,3-dihydroxybutanedioate (1:1);(1S,2S)-1,2-Diaminocyclohexane <span class=\"text-smallcaps\">D</span>-tartaric acid salt",
    "duplicated_cas_no": "",
    "SMILES": "N[C@@H]1[C@@H](N)CCCC1.[C@H]([C@@H](C(O)=O)O)(C(O)=O)O",
    "meta_data": {
        "InChI": "InChI=1S/C6H14N2.C4H6O6/c7-5-3-1-2-4-6(5)8;5-1(3(7)8)2(6)4(9)10/h5-6H,1-4,7-8H2;1-2,5-6H,(H,7,8)(H,9,10)/t5-,6-;1-,2-/m00/s1",
        "InChIKey": null,
        "Canonical SMILES": "O=C(O)C(O)C(O)C(=O)O.NC1CCCCC1N",
        "Molecular Formula": "C<sub>6</sub>H<sub>14</sub>N<sub>2</sub>.C<sub>4</sub>H<sub>6</sub>O<sub>6</sub>",
        "Molecular Mass": "",
        "Melting Point": "283-284 °C"
    }
}