{
    "cas_no": "138-55-6",
    "key_name": "Picrocrocin",
    "cn_name": "苦番?花素;苦番?花素;",
    "alternate_name": "1-Cyclohexene-1-carboxaldehyde, 4-(β-<span class=\"text-smallcaps\">D</span>-glucopyranosyloxy)-2,6,6-trimethyl-, (4<em>R</em>)-;1-Cyclohexene-1-carboxaldehyde, 4-(β-<span class=\"text-smallcaps\">D</span>-glucopyranosyloxy)-2,6,6-trimethyl-, (<em>R</em>)-;(4<em>R</em>)-4-(β-<span class=\"text-smallcaps\">D</span>-Glucopyranosyloxy)-2,6,6-trimethyl-1-cyclohexene-1-carboxaldehyde;Saffron-bitter;Picrocrocin;Picrocrocine",
    "duplicated_cas_no": "39465-20-8",
    "SMILES": "O([C@@H]1O[C@H](CO)[C@@H](O)[C@H](O)[C@H]1O)[C@H]2CC(C)(C)C(C=O)=C(C)C2",
    "meta_data": {
        "InChI": "InChI=1S/C16H26O7/c1-8-4-9(5-16(2,3)10(8)6-17)22-15-14(21)13(20)12(19)11(7-18)23-15/h6,9,11-15,18-21H,4-5,7H2,1-3H3/t9-,11-,12-,13+,14-,15-/m1/s1",
        "InChIKey": null,
        "Canonical SMILES": "O=CC1=C(C)CC(OC2OC(CO)C(O)C(O)C2O)CC1(C)C",
        "Molecular Formula": "C<sub>16</sub>H<sub>26</sub>O<sub>7</sub>",
        "Molecular Mass": "330.37",
        "Melting Point": "196 °C"
    }
}