{
    "cas_no": "5271-67-0",
    "key_name": "2-Thiophenecarbonyl chloride",
    "cn_name": "2-噻吩甲酰氯;",
    "alternate_name": "2-Thiophenecarbonyl chloride;2-Thenoyl chloride;Thenoyl chloride;2-Thiophenecarboxylic chloride;2-Thienylcarbonyl chloride;2-(Chloroformyl)thiophene;α-Thenoyl chloride;2-Thiophenecarboxylic acid chloride;2-(Chlorocarbonyl)thiophene;2-Thiopheneformyl chloride;Thiophen-2-ylcarbonyl chloride;2-Thiophencarbonyl chloride",
    "duplicated_cas_no": "130536-80-0;2231811-49-5",
    "SMILES": "C(Cl)(=O)C1=CC=CS1",
    "meta_data": {
        "InChI": "InChI=1S/C5H3ClOS/c6-5(7)4-2-1-3-8-4/h1-3H",
        "InChIKey": null,
        "Canonical SMILES": "O=C(Cl)C=1SC=CC1",
        "Molecular Formula": "C<sub>5</sub>H<sub>3</sub>ClOS",
        "Molecular Mass": "146.59",
        "Boiling Point": "205-210 °C"
    }
}