{
    "cas_no": "377-37-7",
    "key_name": "2,2,3,3-Tetrafluorobutanediamide",
    "cn_name": "2,2,3,3-四氟丁二酰胺;",
    "alternate_name": "Butanediamide, 2,2,3,3-tetrafluoro-;Succinamide, 2,2,3,3-tetrafluoro-;2,2,3,3-Tetrafluorobutanediamide;Tetrafluorosuccinamide;NSC 379422;2,2,3,3-Tetrafluorosuccinamide",
    "duplicated_cas_no": "",
    "SMILES": "C(C(C(N)=O)(F)F)(C(N)=O)(F)F",
    "meta_data": {
        "InChI": "InChI=1S/C4H4F4N2O2/c5-3(6,1(9)11)4(7,8)2(10)12/h(H2,9,11)(H2,10,12)",
        "InChIKey": null,
        "Canonical SMILES": "O=C(N)C(F)(F)C(F)(F)C(=O)N",
        "Molecular Formula": "C<sub>4</sub>H<sub>4</sub>F<sub>4</sub>N<sub>2</sub>O<sub>2</sub>",
        "Molecular Mass": "188.08",
        "Melting Point": "255-260 °C (decomp)"
    }
}