{
    "cas_no": "5850-39-5",
    "key_name": "2,7-Naphthalenedisulfonic acid, 4-amino-3-[2-(4-aminophenyl)diazenyl]-5-hydroxy-6-(2-phenyldiazenyl)-, sodium salt (1:2)",
    "cn_name": null,
    "alternate_name": "2,7-Naphthalenedisulfonic acid, 4-amino-3-[2-(4-aminophenyl)diazenyl]-5-hydroxy-6-(2-phenyldiazenyl)-, sodium salt (1:2);C.I. Acid Green 20, disodium salt;2,7-Naphthalenedisulfonic acid, 4-amino-3-[(4-aminophenyl)azo]-5-hydroxy-6-(phenylazo)-, disodium salt;C.I. Acid Green 20;C.I. 20495;Acid Black G;Acid Black HG;Acid Dark Green;Acid Dark Green A;Acid Green O;Acid Leather Dark Green G;Acilan Black Green B;Amido Black Green B;Amido Black Green BD;Azo Dark Green A;Azo Dark Green G;Azo Dark Green S;Azo Dark Green GC;Azo Dermina Green AF;Bucacid Dark Green A;Calcocid Dark Green BI;Colacid Green O;Eniacid Dark Green;Eriosin Dark Green A;Hispacid Dark Green B;Kiton Black G;Naphthalene Dark Green A;Naphthol Black Green;Naphthol Green Black B;Naphtocard Green B;Nitraniline Black;Oxanal Black G;Pontacyl Dark Green B;Pontacyl Dark Green G;Tertracid Dark Green A;Tertracid Green Black B;Vondamol Light Black 8G;Xylene Dark Green B;Acid Green 20;Egacid Black HG;Rifa Acid Dark Green A;Daedo Acid Dark Green A;Dinacid Dark Green B;Acid Green B;Kemacid Green B;Anaracid Dark Green B;Triacid Dark Green B;Multicuer Green B;Simacid Dark Green;Vicoacid Dark Green B;Best Acid Dark Green A;Fabracid Green S-JB;Dark Green B;Multacid Green B;Concorde Leather Green LAD;Libacid Green;Everlan Dark Green A;Covalene Green AD;Indacid Dark Green B;Colocid Dark Green B;Vilmacid Green VA;Rifa Leather Dark Green BL;Victacid Green;Acid Green N",
    "duplicated_cas_no": "84842-82-0",
    "SMILES": "NC=1C2=C(C=C(S(=O)(=O)O)C1N=NC3=CC=C(N)C=C3)C=C(S(=O)(=O)O)C(N=NC4=CC=CC=C4)=C2O.[Na]",
    "meta_data": {
        "InChI": "InChI=1S/C22H18N6O7S2.2Na/c23-13-6-8-15(9-7-13)26-27-20-16(36(30,31)32)10-12-11-17(37(33,34)35)21(22(29)18(12)19(20)24)28-25-14-4-2-1-3-5-14;;/h1-11,29H,23-24H2,(H,30,31,32)(H,33,34,35);;",
        "InChIKey": null,
        "Canonical SMILES": "[Na].O=S(=O)(O)C1=CC2=CC(=C(N=NC3=CC=C(N)C=C3)C(N)=C2C(O)=C1N=NC=4C=CC=CC4)S(=O)(=O)O",
        "Molecular Formula": "C<sub>22</sub>H<sub>18</sub>N<sub>6</sub>O<sub>7</sub>S<sub>2</sub>.2Na",
        "Molecular Mass": "",
        "Melting Point": "&gt;300 °C"
    }
}