{
    "cas_no": "129-74-8",
    "key_name": "Buclizine hydrochloride",
    "cn_name": "盐酸安其敏;",
    "alternate_name": "Piperazine, 1-[(4-chlorophenyl)phenylmethyl]-4-[[4-(1,1-dimethylethyl)phenyl]methyl]-, hydrochloride (1:2);Piperazine, 1-(<em>p</em>-<em>tert</em>-butylbenzyl)-4-(<em>p</em>-chloro-α-phenylbenzyl)-, dihydrochloride;Piperazine, 1-[(4-chlorophenyl)phenylmethyl]-4-[[4-(1,1-dimethylethyl)phenyl]methyl]-, dihydrochloride;UCB 4445;Buclodin;1-(<em>p</em>-<em>tert</em>-Butylbenzyl)-4-(<em>p</em>-chlorodiphenylmethyl)piperazine dihydrochloride;1-(<em>p</em>-Chlorobenzhydryl)-4-(<em>p</em>-<em>tert</em>-butylbenzyl)diethylenediamine hydrochloride;1-<em>p</em>-Chlorobenzhydryl-4-<em>p</em>-(<em>t</em>)-butylbenzylpiperazine dihydrochloride;Histabutyzine hydrochloride;Softran;Vibazine Hydrochloride;Buclizine hydrochloride;Buclizine dihydrochloride;Longifene;Aphilan R;Buclina;Vibazine;Bucladin S;NSC 25141;1-(4-(<em>tert</em>-Butyl)benzyl)-4-((4-chlorophenyl)(phenyl)methyl)piperazine dihydrochloride",
    "duplicated_cas_no": "",
    "SMILES": "C(N1CCN(CC2=CC=C(C(C)(C)C)C=C2)CC1)(C3=CC=C(Cl)C=C3)C4=CC=CC=C4.Cl",
    "meta_data": {
        "InChI": "InChI=1S/C28H33ClN2.2ClH/c1-28(2,3)25-13-9-22(10-14-25)21-30-17-19-31(20-18-30)27(23-7-5-4-6-8-23)24-11-15-26(29)16-12-24;;/h4-16,27H,17-21H2,1-3H3;2*1H",
        "InChIKey": null,
        "Canonical SMILES": "Cl.ClC1=CC=C(C=C1)C(C=2C=CC=CC2)N3CCN(CC4=CC=C(C=C4)C(C)(C)C)CC3",
        "Molecular Formula": "C<sub>28</sub>H<sub>33</sub>ClN<sub>2</sub>.2ClH",
        "Molecular Mass": "",
        "Melting Point": "230-240 °C"
    }
}