{
    "cas_no": "1882-71-9",
    "key_name": "2-Amino-5-methoxybenzamide",
    "cn_name": null,
    "alternate_name": "Benzamide, 2-amino-5-methoxy-;<em>m</em>-Anisamide, 6-amino-;2-Amino-5-methoxybenzamide;2-Amino-5-(methyloxy)benzamide;5-Methoxy-2-aminobenzamide",
    "duplicated_cas_no": "",
    "SMILES": "C(N)(=O)C1=CC(OC)=CC=C1N",
    "meta_data": {
        "InChI": "InChI=1S/C8H10N2O2/c1-12-5-2-3-7(9)6(4-5)8(10)11/h2-4H,9H2,1H3,(H2,10,11)",
        "InChIKey": null,
        "Canonical SMILES": "O=C(N)C1=CC(OC)=CC=C1N",
        "Molecular Formula": "C<sub>8</sub>H<sub>10</sub>N<sub>2</sub>O<sub>2</sub>",
        "Molecular Mass": "166.18",
        "Melting Point": "157-158 °C"
    }
}