{
    "cas_no": "2778-96-3",
    "key_name": "Stearyl stearate",
    "cn_name": "十八酸十八酯;",
    "alternate_name": "Octadecanoic acid, octadecyl ester;Stearic acid, octadecyl ester;Octadecyl octadecanoate;Stearyl stearate;Octadecyl stearate;FE 78-18;Cyclochem SS;Loxiol G 30;Cosmol 1000;Rikaflow SS 50;Rikemal SL 900;Lexol SS;Unister M 9676;Nissan Unister M 9676;NJLUB SS;Rikemal SL 800;1-Octadecyl octadecanoate;Exceparl SS;Nissan Unister 9676M;G 32;Brian DPS 60;M 9676;Rikemal 900A;Emalex CC 18;Amreps SS;Ligalub 36FE;Amleps SS;Radia 7501;VSSE;Nissan Electol WEP 2;WEP 2;Unister M 9796;Nissan Unister M 9796;Aklub K 30",
    "duplicated_cas_no": "8039-01-8;69899-62-3;133976-56-4;908341-07-1;1919025-66-3",
    "SMILES": "O(C(CCCCCCCCCCCCCCCCC)=O)CCCCCCCCCCCCCCCCCC",
    "meta_data": {
        "InChI": "InChI=1S/C36H72O2/c1-3-5-7-9-11-13-15-17-19-21-23-25-27-29-31-33-35-38-36(37)34-32-30-28-26-24-22-20-18-16-14-12-10-8-6-4-2/h3-35H2,1-2H3",
        "InChIKey": null,
        "Canonical SMILES": "O=C(OCCCCCCCCCCCCCCCCCC)CCCCCCCCCCCCCCCCC",
        "Molecular Formula": "C<sub>36</sub>H<sub>72</sub>O<sub>2</sub>",
        "Molecular Mass": "536.96",
        "Melting Point": "62 °C"
    }
}