{
    "cas_no": "119-61-9",
    "key_name": "Benzophenone",
    "cn_name": "二苯甲酮;",
    "alternate_name": "Methanone, diphenyl-;Benzophenone;Diphenylmethanone;Benzene, benzoyl-;Benzoylbenzene;Diphenyl ketone;α-Oxodiphenylmethane;α-Oxoditane;Phenyl ketone;Adjutan 6016;Kayacure BP;Speedcure BP;Darocur BP;Lowlite 24;NSC 8077;Kayacure BP 100;BLS 531;Runtecure 1020;BP;Irgacure BP;Winure BP;JRCure 1020;Daracure 1137;Gencure BP;PI BP;Photoinitiator BP;Hycure Benzophenone;B 0083;Omnirad BP;SB-PI 710;Chemcure BP",
    "duplicated_cas_no": "445389-89-9;852361-03-6;1711678-21-5",
    "SMILES": "C(=O)(C1=CC=CC=C1)C2=CC=CC=C2",
    "meta_data": {
        "InChI": "InChI=1S/C13H10O/c14-13(11-7-3-1-4-8-11)12-9-5-2-6-10-12/h1-10H",
        "InChIKey": null,
        "Canonical SMILES": "O=C(C=1C=CC=CC1)C=2C=CC=CC2",
        "Molecular Formula": "C<sub>13</sub>H<sub>10</sub>O",
        "Molecular Mass": "182.22",
        "Boiling Point": "305.4 °C @ Press: 760 Torr",
        "Melting Point": "48.5 °C",
        "Density": "1.1108 g/cm³ @ Temp: 18 °C"
    }
}