{
    "cas_no": "530-50-7",
    "key_name": "<em>N</em>,<em>N</em>-Diphenylhydrazine",
    "cn_name": "N,N-二苯肼;1,1-二苯肼;N,N-二苯肼;1,1-二苯基联胺;1.2一二苯肼;",
    "alternate_name": "Hydrazine, 1,1-diphenyl-;1,1-Diphenylhydrazine;α,α-Diphenylhydrazine;<em>N</em>,<em>N</em>-Diphenylhydrazine",
    "duplicated_cas_no": "",
    "SMILES": "N(N)(C1=CC=CC=C1)C2=CC=CC=C2",
    "meta_data": {
        "InChI": "InChI=1S/C12H12N2/c13-14(11-7-3-1-4-8-11)12-9-5-2-6-10-12/h1-10H,13H2",
        "InChIKey": null,
        "Canonical SMILES": "NN(C=1C=CC=CC1)C=2C=CC=CC2",
        "Molecular Formula": "C<sub>12</sub>H<sub>12</sub>N<sub>2</sub>",
        "Molecular Mass": "184.24",
        "Boiling Point": "220 °C @ Press: 40 Torr",
        "Melting Point": "50.5 °C",
        "Density": "1.190 g/cm³ @ Temp: 16 °C"
    }
}