{
    "cas_no": "36284-77-2",
    "key_name": "Hederasaponin B",
    "cn_name": null,
    "alternate_name": "Olean-12-en-28-oic acid, 3-[[2-<em>O</em>-(6-deoxy-α-<span class=\"text-smallcaps\">L</smallcap>-mannopyranosyl)-α-<smallcap>L</smallcap>-arabinopyranosyl]oxy]-, <em>O</em>-6-deoxy-α-<smallcap>L</smallcap>-mannopyranosyl-(1→4)-<em>O</em>-β-<smallcap>D</smallcap>-glucopyranosyl-(1→6)-β-<smallcap>D</span>-glucopyranosyl ester, (3β)-;Eleutheroside M;Hederacoside B;Hederasaponin B;Hederacolchiside C;Tauroside G<sub>2</sub>;Tauroside St-G<sub>2</sub>;Glycoside L-G<sub>2</sub>;Saponin Pl<sub>3</sub>;Hederagenin B;3-<em>O</em>-α-<span class=\"text-smallcaps\">L</smallcap>-Rhamnopyranosyl-(1→2)-α-<smallcap>L</smallcap>-arabinopyranosyloleanolic acid 28-<em>O</em>-α-<smallcap>L</smallcap>-rhamnopyranosyl-(1→4)-β-<smallcap>D</smallcap>-glucopyranose-(1→6)-β-<smallcap>D</span>-glucopyranoside",
    "duplicated_cas_no": "27013-77-0;56292-20-7;60213-70-9;1146973-77-4",
    "SMILES": "C(O[C@@H]1O[C@H](CO[C@@H]2O[C@H](CO)[C@@H](O[C@H]3[C@H](O)[C@H](O)[C@@H](O)[C@H](C)O3)[C@H](O)[C@H]2O)[C@@H](O)[C@H](O)[C@H]1O)(=O)[C@]45[C@](C=6[C@@](C)(CC4)[C@@]7(C)[C@](CC6)([C@]8(C)[C@@](CC7)(C(C)(C)[C@@H](O[C@H]9[C@H](O[C@H]%10[C@H](O)[C@H](O)[C@@H](O)[C@H](C)O%10)[C@@H](O)[C@@H](O)CO9)CC8)[H])[H])(CC(C)(C)CC5)[H]",
    "meta_data": {
        "InChI": "InChI=1S/C59H96O25/c1-24-34(62)38(66)42(70)49(77-24)82-46-29(21-60)79-48(45(73)41(46)69)76-23-30-37(65)40(68)44(72)51(80-30)84-53(74)59-18-16-54(3,4)20-27(59)26-10-11-32-56(7)14-13-33(55(5,6)31(56)12-15-58(32,9)57(26,8)17-19-59)81-52-47(36(64)28(61)22-75-52)83-50-43(71)39(67)35(63)25(2)78-50/h10,24-25,27-52,60-73H,11-23H2,1-9H3/t24-,25-,27-,28-,29+,30+,31-,32+,33-,34-,35-,36-,37+,38+,39+,40-,41+,42+,43+,44+,45+,46+,47+,48+,49-,50-,51-,52-,56-,57+,58+,59-/m0/s1",
        "InChIKey": null,
        "Canonical SMILES": "O=C(OC1OC(COC2OC(CO)C(OC3OC(C)C(O)C(O)C3O)C(O)C2O)C(O)C(O)C1O)C45CCC(C)(C)CC5C6=CCC7C8(C)CCC(OC9OCC(O)C(O)C9OC%10OC(C)C(O)C(O)C%10O)C(C)(C)C8CCC7(C)C6(C)CC4",
        "Molecular Formula": "C<sub>59</sub>H<sub>96</sub>O<sub>25</sub>",
        "Molecular Mass": "1205.38",
        "Melting Point": "223-226 °C"
    }
}