{
    "cas_no": "6298-96-0",
    "key_name": "1-(4-Methoxyphenyl)ethylamine",
    "cn_name": null,
    "alternate_name": "Benzenemethanamine, 4-methoxy-α-methyl-;Benzylamine, <em>p</em>-methoxy-α-methyl-;4-Methoxy-α-methylbenzenemethanamine;1-(4-Methoxyphenyl)ethylamine;<em>p</em>-Methoxy-α-phenylethylamine;(±)-<em>p</em>-Methoxy-α-methylbenzylamine;(±)-α-(<em>p</em>-Methoxyphenyl)ethylamine;(±)-<em>p</em>-Methoxy-α-phenylethylamine;α-Methyl-<em>p</em>-methoxybenzylamine;α-(<em>p</em>-Methoxyphenyl)ethylamine;α-Methyl-4-methoxybenzenemethanamine;1-(<em>p</em>-Methoxyphenyl)ethylamine;<em>p</em>-Methoxy-α-methylbenzylamine;NSC 42442;(±)-1-(4-Methoxyphenyl)ethylamine;α-Methyl-4-methoxybenzylamine;1-(4-Methoxyphenyl)ethan-1-amine;1-(4-Methoxyphenyl)ethanamine",
    "duplicated_cas_no": "35600-82-9",
    "SMILES": "C(C)(N)C1=CC=C(OC)C=C1",
    "meta_data": {
        "InChI": "InChI=1S/C9H13NO/c1-7(10)8-3-5-9(11-2)6-4-8/h3-7H,10H2,1-2H3",
        "InChIKey": null,
        "Canonical SMILES": "O(C1=CC=C(C=C1)C(N)C)C",
        "Molecular Formula": "C<sub>9</sub>H<sub>13</sub>NO",
        "Molecular Mass": "151.21",
        "Boiling Point": "125-126 °C @ Press: 16 Torr",
        "Density": "1.0308 g/cm³"
    }
}