{
    "cas_no": "29671-92-9",
    "key_name": "Chloroformamidine hydrochloride",
    "cn_name": "氯甲脒盐酸盐;氯甲脒盐酸盐;",
    "alternate_name": "Carbamimidic chloride, monohydrochloride;Formamidine, 1-chloro-, monohydrochloride;Chloroformamidine hydrochloride;1-Chloroformamidine hydrochloride;Chloroformamidinium chloride;Carbamimidic chloride hydrochloride",
    "duplicated_cas_no": "",
    "SMILES": "C(Cl)(=N)N.Cl",
    "meta_data": {
        "InChI": "InChI=1S/CH3ClN2.ClH/c2-1(3)4;/h(H3,3,4);1H",
        "InChIKey": null,
        "Canonical SMILES": "Cl.ClC(=N)N",
        "Molecular Formula": "CH<sub>3</sub>ClN<sub>2</sub>.ClH",
        "Molecular Mass": "",
        "Melting Point": "130 °C (decomp)"
    }
}