{
    "cas_no": "7731-29-5",
    "key_name": "<em>trans</em>-4-Methylcyclohexanol",
    "cn_name": null,
    "alternate_name": "Cyclohexanol, 4-methyl-, <em>trans</em>-;<em>trans</em>-4-Methylcyclohexanol;<em>trans</em>-4-Methylcyclohexan-1-ol;4-<em>trans</em>-Methylcyclohexanol",
    "duplicated_cas_no": "624-33-9",
    "SMILES": "C[C@H]1CC[C@H](O)CC1",
    "meta_data": {
        "InChI": "InChI=1/C7H14O/c1-6-2-4-7(8)5-3-6/h6-8H,2-5H2,1H3/t6-,7-",
        "InChIKey": null,
        "Canonical SMILES": "OC1CCC(C)CC1",
        "Molecular Formula": "C<sub>7</sub>H<sub>14</sub>O",
        "Molecular Mass": "114.19",
        "Boiling Point": "174 °C",
        "Melting Point": "80-80.5 °C",
        "Density": "0.913 g/cm³ @ Temp: 20 °C"
    }
}