{
    "cas_no": "7650-89-7",
    "key_name": "Tribenzylphosphine",
    "cn_name": "三苄基膦;",
    "alternate_name": "Phosphine, tris(phenylmethyl)-;Phosphine, tribenzyl-;Tris(phenylmethyl)phosphine;Tribenzylphosphine",
    "duplicated_cas_no": "",
    "SMILES": "P(CC1=CC=CC=C1)(CC2=CC=CC=C2)CC3=CC=CC=C3",
    "meta_data": {
        "InChI": "InChI=1S/C21H21P/c1-4-10-19(11-5-1)16-22(17-20-12-6-2-7-13-20)18-21-14-8-3-9-15-21/h1-15H,16-18H2",
        "InChIKey": null,
        "Canonical SMILES": "C=1C=CC(=CC1)CP(CC=2C=CC=CC2)CC=3C=CC=CC3",
        "Molecular Formula": "C<sub>21</sub>H<sub>21</sub>P",
        "Molecular Mass": "304.37",
        "Boiling Point": "203-210 °C @ Press: 0.5 Torr",
        "Melting Point": "92-95 °C (sublm)"
    }
}