{
    "cas_no": "2635-84-9",
    "key_name": "<em>p</em>-Nitrophenyl butyrate",
    "cn_name": "丁酸对硝基苯;",
    "alternate_name": "Butanoic acid, 4-nitrophenyl ester;Butyric acid, <em>p</em>-nitrophenyl ester;<em>p</em>-Nitrophenol butyrate;<em>p</em>-Nitrophenyl butyrate;4-Nitrophenyl butyrate;<em>p</em>-Nitrophenyl butanoate;4-Nitrophenyl butanoate;NSC 6867",
    "duplicated_cas_no": "",
    "SMILES": "O(C(CCC)=O)C1=CC=C(N(=O)=O)C=C1",
    "meta_data": {
        "InChI": "InChI=1S/C10H11NO4/c1-2-3-10(12)15-9-6-4-8(5-7-9)11(13)14/h4-7H,2-3H2,1H3",
        "InChIKey": null,
        "Canonical SMILES": "O=C(OC1=CC=C(C=C1)N(=O)=O)CCC",
        "Molecular Formula": "C<sub>10</sub>H<sub>11</sub>NO<sub>4</sub>",
        "Molecular Mass": "209.20",
        "Boiling Point": "184-185 °C @ Press: 760 Torr"
    }
}