{
    "cas_no": "67-03-8",
    "key_name": "Thiamine hydrochloride",
    "cn_name": "盐酸硫胺;维生素B1盐酸盐;3-[(4-氨基-2-甲基-5-嘧啶基)甲基]-5-(2-羟乙基)-4-甲基噻唑鎓盐酸盐;",
    "alternate_name": "Thiazolium, 3-[(4-amino-2-methyl-5-pyrimidinyl)methyl]-5-(2-hydroxyethyl)-4-methyl-, chloride, hydrochloride (1:1:1);Thiamine, monohydrochloride;Thiazolium, 3-[(4-amino-2-methyl-5-pyrimidinyl)methyl]-5-(2-hydroxyethyl)-4-methyl-, chloride, monohydrochloride;3-(4-Amino-2-methylpyrimidyl-5-methyl)-4-methyl-5,β-hydroxyethylthiazolium chloride hydrochloride;Aneurine hydrochloride;Apate drops;Beatine;Bedome;Begiolan;Benerva;Bequin;Berin;Betabion;Betalin S;Betaxin;Bethiazine;Beuion;Bevitine;Bewon;Biuno;Bivatin;Bivita;Clotiamina;Eskapen;Eskaphen;Lixa-Beta;Metabolin;Slowten;THD;Thiadoxine;Thiaminal;Thiamine chloride hydrochloride;Thiamine dichloride;Thiamine hydrochloride;Thiamin hydrochloride;Thiaminium chloride;Thiaminium chloride hydrochloride;Thiamol;Thiavit;Tiamidon;Tiaminal;Trophite;Vetalin S;Vinothiam;Vitamin B<sub>1</sub> hydrochloride;Vitaneuron;Thiamine chloride;Thiamin chloride;Thiamin dichloride;Biamine;3-[(4-Amino-2-methylpyrimidin-5-yl)methyl]-5-(2-hydroxyethyl)-4-methyl-1,3-thiazol-3-ium hydrochloride chloride",
    "duplicated_cas_no": "63-66-1;70732-86-4;108631-50-1;2173536-98-4;2227489-38-3",
    "SMILES": "C([N+]=1C(C)=C(CCO)SC1)C=2C(N)=NC(C)=NC2.[Cl-].Cl",
    "meta_data": {
        "InChI": "InChI=1S/C12H17N4OS.2ClH/c1-8-11(3-4-17)18-7-16(8)6-10-5-14-9(2)15-12(10)13;;/h5,7,17H,3-4,6H2,1-2H3,(H2,13,14,15);2*1H/q+1;;/p-1",
        "InChIKey": null,
        "Canonical SMILES": "[Cl-].Cl.OCCC=1SC=[N+](C1C)CC2=CN=C(N=C2N)C",
        "Molecular Formula": "C<sub>12</sub>H<sub>17</sub>N<sub>4</sub>OS.ClH.Cl",
        "Molecular Mass": "",
        "Melting Point": "248 °C (decomp)"
    }
}