{
    "cas_no": "42771-79-9",
    "key_name": "1-(2-Fluoro[1,1′-biphenyl]-4-yl)ethanone",
    "cn_name": "4-乙酰基-2-氟联苯;3-氟-4-苯基苯乙酮;1-[2-氟-(1,1\"-联苯)-4-基]乙酮;",
    "alternate_name": "Ethanone, 1-(2-fluoro[1,1′-biphenyl]-4-yl)-;1-(2-Fluoro[1,1′-biphenyl]-4-yl)ethanone;4-Acetyl-2-fluorobiphenyl;3′-Fluoro-4′-phenylacetophenone;1-(3-Fluoro-4-phenylphenyl)ethan-1-one;1-(3-Fluoro-4-phenylphenyl)ethanone",
    "duplicated_cas_no": "",
    "SMILES": "FC1=C(C=CC(C(C)=O)=C1)C2=CC=CC=C2",
    "meta_data": {
        "InChI": "InChI=1S/C14H11FO/c1-10(16)12-7-8-13(14(15)9-12)11-5-3-2-4-6-11/h2-9H,1H3",
        "InChIKey": null,
        "Canonical SMILES": "O=C(C=1C=CC(=C(F)C1)C=2C=CC=CC2)C",
        "Molecular Formula": "C<sub>14</sub>H<sub>11</sub>FO",
        "Molecular Mass": "214.23",
        "Melting Point": "94-95 °C"
    }
}