{
    "cas_no": "63237-88-7",
    "key_name": "Pyrazolo[1,5-<em>a</em>]pyridine-2-carboxylic acid",
    "cn_name": "吡唑并[1,5-a]吡啶-2-羧酸;",
    "alternate_name": "Pyrazolo[1,5-<em>a</em>]pyridine-2-carboxylic acid",
    "duplicated_cas_no": "",
    "SMILES": "C(O)(=O)C=1C=C2N(N1)C=CC=C2",
    "meta_data": {
        "InChI": "InChI=1S/C8H6N2O2/c11-8(12)7-5-6-3-1-2-4-10(6)9-7/h1-5H,(H,11,12)",
        "InChIKey": null,
        "Canonical SMILES": "O=C(O)C1=NN2C=CC=CC2=C1",
        "Molecular Formula": "C<sub>8</sub>H<sub>6</sub>N<sub>2</sub>O<sub>2</sub>",
        "Molecular Mass": "162.15",
        "Melting Point": "194-195 °C"
    }
}