{
    "cas_no": "6533-00-2",
    "key_name": "Norgestrel",
    "cn_name": "炔诺孕酮;DL-甲基炔诺酮;18-甲基炔诺酮;",
    "alternate_name": "18,19-Dinorpregn-4-en-20-yn-3-one, 13-ethyl-17-hydroxy-, (17α)-(±)-;18,19-Dinor-17α-pregn-4-en-20-yn-3-one, 13-ethyl-17-hydroxy-, (±)-;(17α)-(±)-13-Ethyl-17-hydroxy-18,19-dinorpregn-4-en-20-yn-3-one;Norgestrel;Wy 3707;(±)-17α-Ethynyl-13β-ethylgon-4-en-17β-ol-3-one;13-Ethyl-17α-ethynyl-17β-hydroxy-4-gonen-3-one;(±)-Norgestrel;<em>dl</em>-11β-Ethyl-17α-ethynyl-17β-hydroxygon-4-en-3-one;α-Norgestrel;SH 70850;FH 122A;(±)-13-Ethyl-17α-ethynyl-17-hydroxygon-4-en-3-one;<em>dl</em>-13-β-Ethyl-17-α-ethynyl-17-β-hydroxygon-4-en-3-one;(±)-17α-Ethynyl-13-ethyl-17-hydroxygon-4-en-3-one;Monovar;SH 850;Postinor;<em>dl</em>-Norgestrel;<span class=\"text-smallcaps\">DL</span>-Norgestrel;Neogest;Methylnorethindrone;Ovrette;MeSH ID: D009644",
    "duplicated_cas_no": "",
    "SMILES": "C(C)[C@@]12[C@]([C@]3([C@](CC1)([C@@]4(C(CC3)=CC(=O)CC4)[H])[H])[H])(CC[C@]2(C#C)O)[H]",
    "meta_data": {
        "InChI": "InChI=1/C21H28O2/c1-3-20-11-9-17-16-8-6-15(22)13-14(16)5-7-18(17)19(20)10-12-21(20,23)4-2/h2,13,16-19,23H,3,5-12H2,1H3/t16-,17+,18+,19-,20-,21-/s2",
        "InChIKey": null,
        "Canonical SMILES": "O=C1C=C2CCC3C(CCC4(CC)C3CCC4(O)C#C)C2CC1",
        "Molecular Formula": "C<sub>21</sub>H<sub>28</sub>O<sub>2</sub>",
        "Molecular Mass": "312.45",
        "Melting Point": "205-207 °C"
    }
}