{
    "cas_no": "57756-36-2",
    "key_name": "1-(1,2,3,5-Tetrahydro-4<em>H</em>-1,4-benzodiazepin-4-yl)ethanone",
    "cn_name": "4-乙酰基-2,3,4,5-四氢-1H-1,4-苯并二氮杂卓;",
    "alternate_name": "Ethanone, 1-(1,2,3,5-tetrahydro-4<em>H</em>-1,4-benzodiazepin-4-yl)-;1<em>H</em>-1,4-Benzodiazepine, 4-acetyl-2,3,4,5-tetrahydro-;1-(1,2,3,5-Tetrahydro-4<em>H</em>-1,4-benzodiazepin-4-yl)ethanone;4-Acetyl-2,3,4,5-tetrahydro-1<em>H</em>-1,4-benzodiazepine;1-(1,2,3,5-Tetrahydro-1,4-benzodiazepin-4-yl)ethanone;1-(2,3,4,5-Tetrahydro-1<em>H</em>-1,4-benzodiazepin-4-yl)ethan-1-one",
    "duplicated_cas_no": "",
    "SMILES": "C(C)(=O)N1CC=2C(NCC1)=CC=CC2",
    "meta_data": {
        "InChI": "InChI=1S/C11H14N2O/c1-9(14)13-7-6-12-11-5-3-2-4-10(11)8-13/h2-5,12H,6-8H2,1H3",
        "InChIKey": null,
        "Canonical SMILES": "O=C(N1CC=2C=CC=CC2NCC1)C",
        "Molecular Formula": "C<sub>11</sub>H<sub>14</sub>N<sub>2</sub>O",
        "Molecular Mass": "190.24",
        "Melting Point": "85 °C"
    }
}