{
    "cas_no": "583-03-9",
    "key_name": "1-Phenyl-1-pentanol",
    "cn_name": "苯戊醇;1-苯基-1-戊醇;",
    "alternate_name": "Benzenemethanol, α-butyl-;Benzyl alcohol, α-butyl-;α-Butylbenzenemethanol;1-Pentanol, 1-phenyl-;1-Phenylpentanol;1-Phenyl-1-hydroxy-<em>n</em>-pentane;1-Phenyl-1-pentanol;1-Phenyl-1-hydroxy-n-pentane;Fenipentol;α-Butylbenzyl alcohol;Phenylbutylcarbinol;Pancoral;1-Phenyl-1-hydroxypentane;(±)-1-Phenyl-1-pentanol;(±)-α-Butylbenzyl alcohol;Ph BC;PC 1;NSC 8478",
    "duplicated_cas_no": "136264-41-0;21632-19-9",
    "SMILES": "C(CCCC)(O)C1=CC=CC=C1",
    "meta_data": {
        "InChI": "InChI=1S/C11H16O/c1-2-3-9-11(12)10-7-5-4-6-8-10/h4-8,11-12H,2-3,9H2,1H3",
        "InChIKey": null,
        "Canonical SMILES": "OC(C=1C=CC=CC1)CCCC",
        "Molecular Formula": "C<sub>11</sub>H<sub>16</sub>O",
        "Molecular Mass": "164.24",
        "Boiling Point": "123.5 °C",
        "Melting Point": "&lt;25 °C",
        "Density": "0.966 g/cm³ @ Temp: 24 °C"
    }
}