{
    "cas_no": "118-46-7",
    "key_name": "8-Amino-2-naphthol",
    "cn_name": "1-氨基-7-萘酚;",
    "alternate_name": "2-Naphthalenol, 8-amino-;2-Naphthol, 8-amino-;8-Amino-2-naphthalenol;1-Amino-7-hydroxynaphthalene;8-Amino-2-naphthol;1-Amino-7-naphthol;7-Hydroxy-1-naphthylamine;NSC 60277;NSC 7939",
    "duplicated_cas_no": "",
    "SMILES": "NC=1C2=C(C=CC(O)=C2)C=CC1",
    "meta_data": {
        "InChI": "InChI=1S/C10H9NO/c11-10-3-1-2-7-4-5-8(12)6-9(7)10/h1-6,12H,11H2",
        "InChIKey": null,
        "Canonical SMILES": "OC=1C=CC=2C=CC=C(N)C2C1",
        "Molecular Formula": "C<sub>10</sub>H<sub>9</sub>NO",
        "Molecular Mass": "159.18",
        "Melting Point": "206 °C"
    }
}