{
    "cas_no": "52010-98-7",
    "key_name": "3-(Hydroxymethyl)benzaldehyde",
    "cn_name": null,
    "alternate_name": "Benzaldehyde, 3-(hydroxymethyl)-;<em>m</em>-Tolualdehyde, α-hydroxy-;3-(Hydroxymethyl)benzaldehyde;<em>m</em>-(Hydroxymethyl)benzaldehyde",
    "duplicated_cas_no": "",
    "SMILES": "C(O)C1=CC(C=O)=CC=C1",
    "meta_data": {
        "InChI": "InChI=1S/C8H8O2/c9-5-7-2-1-3-8(4-7)6-10/h1-5,10H,6H2",
        "InChIKey": null,
        "Canonical SMILES": "O=CC1=CC=CC(=C1)CO",
        "Molecular Formula": "C<sub>8</sub>H<sub>8</sub>O<sub>2</sub>",
        "Molecular Mass": "136.15",
        "Melting Point": "119.5 °C"
    }
}