{
    "cas_no": "374-01-6",
    "key_name": "1,1,1-Trifluoro-2-propanol",
    "cn_name": "1,1,1-三氟-2-丙醇;1,1,1-三氟异丙醇;1,1,1-三氟-2-丙醇;1,1,1-三氟-2-丙醇, 97+%;",
    "alternate_name": "2-Propanol, 1,1,1-trifluoro-;1,1,1-Trifluoro-2-propanol;1-Methyl-2,2,2-trifluoroethanol;1,1,1-Trifluoropropane-2-ol;NSC 3637;1,1,1-Trifluoroisopropanol;1-(Trifluoromethyl)ethanol",
    "duplicated_cas_no": "17556-48-8",
    "SMILES": "C(C(C)O)(F)(F)F",
    "meta_data": {
        "InChI": "InChI=1S/C3H5F3O/c1-2(7)3(4,5)6/h2,7H,1H3",
        "InChIKey": null,
        "Canonical SMILES": "FC(F)(F)C(O)C",
        "Molecular Formula": "C<sub>3</sub>H<sub>5</sub>F<sub>3</sub>O",
        "Molecular Mass": "114.07",
        "Boiling Point": "75.5 °C",
        "Melting Point": "-52 °C",
        "Density": "1.2709 g/cm³ @ Temp: 16 °C"
    }
}