{
    "cas_no": "2157-52-0",
    "key_name": "Fluorenone oxime",
    "cn_name": "9-芴酮肟;9-芴酮肟;",
    "alternate_name": "9<em>H</em>-Fluoren-9-one, oxime;Fluoren-9-one, oxime;Fluorenone oxime;9-Oximinofluorene;NSC 1988",
    "duplicated_cas_no": "",
    "SMILES": "N(O)=C1C=2C(C=3C1=CC=CC3)=CC=CC2",
    "meta_data": {
        "InChI": "InChI=1S/C13H9NO/c15-14-13-11-7-3-1-5-9(11)10-6-2-4-8-12(10)13/h1-8,15H",
        "InChIKey": null,
        "Canonical SMILES": "ON=C1C=2C=CC=CC2C=3C=CC=CC13",
        "Molecular Formula": "C<sub>13</sub>H<sub>9</sub>NO",
        "Molecular Mass": "195.22",
        "Melting Point": "194 °C"
    }
}