{
    "cas_no": "6314-23-4",
    "key_name": "1<em>H</em>-Pyrazole-1-ethanol",
    "cn_name": null,
    "alternate_name": "1<em>H</em>-Pyrazole-1-ethanol;Pyrazole-1-ethanol;1-(2-Hydroxyethyl)-1<em>H</em>-pyrazole;NSC 40236;1-(2-Hydroxyethyl)pyrazole;2-(1<em>H</em>-Pyrazol-1-yl)ethanol;2-(Pyrazol-1-yl)ethanol;2-(1<em>H</em>-Pyrazol-1-yl)ethan-1-ol",
    "duplicated_cas_no": "",
    "SMILES": "C(CO)N1C=CC=N1",
    "meta_data": {
        "InChI": "InChI=1S/C5H8N2O/c8-5-4-7-3-1-2-6-7/h1-3,8H,4-5H2",
        "InChIKey": null,
        "Canonical SMILES": "OCCN1N=CC=C1",
        "Molecular Formula": "C<sub>5</sub>H<sub>8</sub>N<sub>2</sub>O",
        "Molecular Mass": "112.13",
        "Boiling Point": "129-131 °C @ Press: 28 Torr"
    }
}