{
    "cas_no": "303-07-1",
    "key_name": "2,6-Dihydroxybenzoic acid",
    "cn_name": "2,6-二羟基苯甲酸;",
    "alternate_name": "Benzoic acid, 2,6-dihydroxy-;γ-Resorcylic acid;2,6-Dihydroxybenzoic acid;2-Carboxyresorcinol;6-Hydroxysalicylic acid;2,6-Resorcylic acid;NSC 49172;2-Carboxy-1,3-dihydroxybenzene",
    "duplicated_cas_no": "",
    "SMILES": "C(O)(=O)C1=C(O)C=CC=C1O",
    "meta_data": {
        "InChI": "InChI=1S/C7H6O4/c8-4-2-1-3-5(9)6(4)7(10)11/h1-3,8-9H,(H,10,11)",
        "InChIKey": null,
        "Canonical SMILES": "O=C(O)C=1C(O)=CC=CC1O",
        "Molecular Formula": "C<sub>7</sub>H<sub>6</sub>O<sub>4</sub>",
        "Molecular Mass": "154.12",
        "Melting Point": "165 °C (decomp)"
    }
}