{
    "cas_no": "16068-37-4",
    "key_name": "Bis(triethoxysilyl)ethane",
    "cn_name": "1,2-二(三乙氧基硅基)乙烷;",
    "alternate_name": "3,8-Dioxa-4,7-disiladecane, 4,4,7,7-tetraethoxy-;4,4,7,7-Tetraethoxy-3,8-dioxa-4,7-disiladecane;[(Triethoxysilyl)ethyl]triethoxysilane;Bis(triethoxysilyl)ethane;1,2-Bis(triethoxysilyl)ethane;Ethylenebis(triethoxysilane);Silquest Y 9805;1,2-Bis(3-ethoxysilyl)ethane;KBE 3026;SIB 1817.0;KBM 6026;1,1,1,4,4,4-Hexaethoxy-1,4-disilabutane;LMD 26E;1,2-Di(triethoxysilyl)ethane;Vernetzer ET 13;SIB 1817;Dynasylan BTSE;BTESE;1,2-Di(triethoxylsilyl)ethane;1,2-(Triethoxysilyl)ethane;1,2-Bis(3-(triethoxy)silylpropyl)ethane;NQ 1602",
    "duplicated_cas_no": "",
    "SMILES": "[Si](CC[Si](OCC)(OCC)OCC)(OCC)(OCC)OCC",
    "meta_data": {
        "InChI": "InChI=1S/C14H34O6Si2/c1-7-15-21(16-8-2,17-9-3)13-14-22(18-10-4,19-11-5)20-12-6/h7-14H2,1-6H3",
        "InChIKey": null,
        "Canonical SMILES": "O(CC)[Si](OCC)(OCC)CC[Si](OCC)(OCC)OCC",
        "Molecular Formula": "C<sub>14</sub>H<sub>34</sub>O<sub>6</sub>Si<sub>2</sub>",
        "Molecular Mass": "354.59",
        "Boiling Point": "96 °C @ Press: 0.3 Torr",
        "Density": "0.957 g/cm³"
    }
}