{
    "cas_no": "91-58-7",
    "key_name": "2-Chloronaphthalene",
    "cn_name": "2-氯萘;",
    "alternate_name": "Naphthalene, 2-chloro-;2-Chloronaphthalene;β-Chloronaphthalene;PCN 2",
    "duplicated_cas_no": "",
    "SMILES": "ClC1=CC2=C(C=C1)C=CC=C2",
    "meta_data": {
        "InChI": "InChI=1S/C10H7Cl/c11-10-6-5-8-3-1-2-4-9(8)7-10/h1-7H",
        "InChIKey": null,
        "Canonical SMILES": "ClC=1C=CC=2C=CC=CC2C1",
        "Molecular Formula": "C<sub>10</sub>H<sub>7</sub>Cl",
        "Molecular Mass": "162.62",
        "Boiling Point": "119.7 °C @ Press: 11 Torr",
        "Melting Point": "59.5 °C"
    }
}