{
    "cas_no": "84547-84-2",
    "key_name": "4-Bromo-1-methyl-1<em>H</em>-pyrazole-5-carboxylic acid",
    "cn_name": null,
    "alternate_name": "1<em>H</em>-Pyrazole-5-carboxylic acid, 4-bromo-1-methyl-;Pyrazole-5-carboxylic acid, 4-bromo-1-methyl-;4-Bromo-1-methyl-1<em>H</em>-pyrazole-5-carboxylic acid;4-Bromopyrazole-1-methyl-5-carboxylic acid;1-Methyl-4-bromopyrazole-5-carboxylic acid;4-Bromo-2-methyl-2<em>H</em>-pyrazole-3-carboxylic acid",
    "duplicated_cas_no": "",
    "SMILES": "C(O)(=O)C1=C(Br)C=NN1C",
    "meta_data": {
        "InChI": "InChI=1S/C5H5BrN2O2/c1-8-4(5(9)10)3(6)2-7-8/h2H,1H3,(H,9,10)",
        "InChIKey": null,
        "Canonical SMILES": "O=C(O)C1=C(Br)C=NN1C",
        "Molecular Formula": "C<sub>5</sub>H<sub>5</sub>BrN<sub>2</sub>O<sub>2</sub>",
        "Molecular Mass": "205.01",
        "Melting Point": "235-236 °C"
    }
}