{
    "cas_no": "2959-96-8",
    "key_name": "2-Phenylglutaric anhydride",
    "cn_name": "2-苯基戊二酸酐;2-苯基戊二酸酐;",
    "alternate_name": "2<em>H</em>-Pyran-2,6(3<em>H</em>)-dione, dihydro-3-phenyl-;Glutaric anhydride, 2-phenyl-;Dihydro-3-phenyl-2<em>H</em>-pyran-2,6(3<em>H</em>)-dione;2-Phenylpentanedioic acid anhydride;2-Phenylglutaric anhydride;NSC 65629;3-Phenyloxane-2,6-dione",
    "duplicated_cas_no": "82683-95-2",
    "SMILES": "O=C1C(C2=CC=CC=C2)CCC(=O)O1",
    "meta_data": {
        "InChI": "InChI=1S/C11H10O3/c12-10-7-6-9(11(13)14-10)8-4-2-1-3-5-8/h1-5,9H,6-7H2",
        "InChIKey": null,
        "Canonical SMILES": "O=C1OC(=O)C(C=2C=CC=CC2)CC1",
        "Molecular Formula": "C<sub>11</sub>H<sub>10</sub>O<sub>3</sub>",
        "Molecular Mass": "190.20",
        "Boiling Point": "170-180 °C @ Press: 0.5-0.7 Torr",
        "Melting Point": "95 °C"
    }
}