{
    "cas_no": "481-20-9",
    "key_name": "5β-Cholestane",
    "cn_name": "粪甾烷;",
    "alternate_name": "Cholestane, (5β)-;5β-Cholestane;(5β)-Cholestane;Coprostane;Pseudocholestane;β-Cholestane;(20<em>R</em>)-5β(<em>H</em>),14α(<em>H</em>),17α(<em>H</em>)-Cholestane",
    "duplicated_cas_no": "",
    "SMILES": "C[C@@]12[C@]([C@]3([C@@]([C@]4(C)[C@](CC3)(CCCC4)[H])(CC1)[H])[H])(CC[C@@]2([C@@H](CCCC(C)C)C)[H])[H]",
    "meta_data": {
        "InChI": "InChI=1S/C27H48/c1-19(2)9-8-10-20(3)23-14-15-24-22-13-12-21-11-6-7-17-26(21,4)25(22)16-18-27(23,24)5/h19-25H,6-18H2,1-5H3/t20-,21+,22+,23-,24+,25+,26+,27-/m1/s1",
        "InChIKey": null,
        "Canonical SMILES": "CC(C)CCCC(C)C1CCC2C3CCC4CCCCC4(C)C3CCC12C",
        "Molecular Formula": "C<sub>27</sub>H<sub>48</sub>",
        "Molecular Mass": "372.67",
        "Melting Point": "72 °C",
        "Density": "0.8949 g/cm³ @ Temp: 117.6 °C"
    }
}