{
    "cas_no": "1405-41-0",
    "key_name": "Gentamicin sulfate",
    "cn_name": null,
    "alternate_name": "Gentamicin, sulfate (salt);Gentamycin, sulfate (salt);Gentamycin sulfate;Gentamicin sulfate;Urocydin;Gentamicin sulphate;Geramycin;Genticyn;Gentalin;Garamycin;Refobacin L;Refobacin 10;Refobacin;Sulmycin;Gentacin;Gentocin;Septopal;Alcomicin;Gentak;Nichogencin;Bristagen;Gent-Ophtal;Gentibioptal;Garasol;Duragentam;Cidomycin;Gentamicin C complex sulfate;Genticin;Ophtagram;Gentrasul;Pangram;U-gencin;Genoptic;Gentogram;Lugacin;Gentalyn;Dispagent;Gentamina;Gentacidin;Garasent;Genta Swift;Intragen;Eltacin",
    "duplicated_cas_no": "11121-41-8;12687-65-9;50816-05-2;64438-35-3;126989-70-6;1629030-99-4",
    "SMILES": "",
    "meta_data": {
        "InChI": "",
        "InChIKey": null,
        "Canonical SMILES": "",
        "Molecular Formula": "H<sub>2</sub>O<sub>4</sub>S.xUnspecified",
        "Molecular Mass": "",
        "Melting Point": "218-237 °C"
    }
}