{
    "cas_no": "1823-91-2",
    "key_name": "2-Phenylpropionitrile",
    "cn_name": "α-甲基苯乙腈;",
    "alternate_name": "Benzeneacetonitrile, α-methyl-;Hydratroponitrile;α-Methylbenzeneacetonitrile;α-Phenylpropionitrile;2-Phenylpropionitrile;α-Methylbenzyl cyanide;α-Phenylethyl cyanide;2-Phenylpropanenitrile;α-Cyanoethylbenzene;α-Methylphenylacetonitrile;<em>dl</em>-α-Phenylethyl isocyanide;(±)-2-Phenylpropionitrile;<em>dl</em>-2-Phenylpropionitrile;(±)-α-Methylbenzeneacetonitrile;(±)-α-Methylbenzyl cyanide;NSC 11264;NSC 37485",
    "duplicated_cas_no": "42253-96-3",
    "SMILES": "C(C#N)(C)C1=CC=CC=C1",
    "meta_data": {
        "InChI": "InChI=1S/C9H9N/c1-8(7-10)9-5-3-2-4-6-9/h2-6,8H,1H3",
        "InChIKey": null,
        "Canonical SMILES": "N#CC(C=1C=CC=CC1)C",
        "Molecular Formula": "C<sub>9</sub>H<sub>9</sub>N",
        "Molecular Mass": "131.17",
        "Boiling Point": "231 °C",
        "Melting Point": "210 °C",
        "Density": "0.98542 g/cm³ @ Temp: 20 °C"
    }
}