{
    "cas_no": "334-88-3",
    "key_name": "Diazomethane",
    "cn_name": "重氮甲烷;重氮甲烷;",
    "alternate_name": "Methane, diazo-;Azimethylene;Diazomethane;Diazirine;Diazonium methylide;Diazyne, methylene-;MeSH ID: D003978",
    "duplicated_cas_no": "463-60-5;16835-99-7;62024-16-2;908094-01-9",
    "SMILES": "[N+](=C)=[N-]",
    "meta_data": {
        "InChI": "InChI=1S/CH2N2/c1-3-2/h1H2",
        "InChIKey": null,
        "Canonical SMILES": "[N-]=[N+]=C",
        "Molecular Formula": "CH<sub>2</sub>N<sub>2</sub>",
        "Molecular Mass": "",
        "Boiling Point": "-23 °C",
        "Melting Point": "-145 °C",
        "Density": "1.45 g/cm³"
    }
}