{
    "cas_no": "569-41-5",
    "key_name": "1,8-Dimethylnaphthalene",
    "cn_name": "1,8-二甲基萘;",
    "alternate_name": "Naphthalene, 1,8-dimethyl-;1,8-Dimethylnaphthalene",
    "duplicated_cas_no": "",
    "SMILES": "CC=1C2=C(C=CC=C2C)C=CC1",
    "meta_data": {
        "InChI": "InChI=1S/C12H12/c1-9-5-3-7-11-8-4-6-10(2)12(9)11/h3-8H,1-2H3",
        "InChIKey": null,
        "Canonical SMILES": "C=1C=C2C=CC=C(C2=C(C1)C)C",
        "Molecular Formula": "C<sub>12</sub>H<sub>12</sub>",
        "Molecular Mass": "156.22",
        "Boiling Point": "270 °C",
        "Melting Point": "65 °C"
    }
}