{
    "cas_no": "14451-86-6",
    "key_name": "2-Butyltricyclo[3.3.1.1<sup>3,7</sup>]decan-2-ol",
    "cn_name": "2-丁基-2-金刚烷醇;",
    "alternate_name": "Tricyclo[3.3.1.1<sup>3,7</sup>]decan-2-ol, 2-butyl-;2-Adamantanol, 2-butyl-;2-Butyltricyclo[3.3.1.1<sup>3,7</sup>]decan-2-ol;2-Butyl-2-adamantanol",
    "duplicated_cas_no": "",
    "SMILES": "C(CCC)C1(O)C2CC3CC1CC(C2)C3",
    "meta_data": {
        "InChI": "InChI=1S/C14H24O/c1-2-3-4-14(15)12-6-10-5-11(8-12)9-13(14)7-10/h10-13,15H,2-9H2,1H3",
        "InChIKey": null,
        "Canonical SMILES": "OC1(CCCC)C2CC3CC(C2)CC1C3",
        "Molecular Formula": "C<sub>14</sub>H<sub>24</sub>O",
        "Molecular Mass": "208.34",
        "Melting Point": "70-76 °C"
    }
}