{
    "cas_no": "552-32-9",
    "key_name": "<em>N</em>-(2-Nitrophenyl)acetamide",
    "cn_name": "2-硝基乙酰苯胺;N-(2-硝基苯基)乙酰胺;邻硝基乙酰替苯胺;N-邻硝基苯基乙酰胺;",
    "alternate_name": "Acetamide, <em>N</em>-(2-nitrophenyl)-;Acetanilide, 2′-nitro-;<em>N</em>-(2-Nitrophenyl)acetamide;<em>o</em>-Nitroacetanilide;2′-Nitroacetanilide;<em>N</em>-Acetyl-<em>o</em>-nitroaniline;NSC 1313",
    "duplicated_cas_no": "",
    "SMILES": "N(=O)(=O)C1=C(NC(C)=O)C=CC=C1",
    "meta_data": {
        "InChI": "InChI=1S/C8H8N2O3/c1-6(11)9-7-4-2-3-5-8(7)10(12)13/h2-5H,1H3,(H,9,11)",
        "InChIKey": null,
        "Canonical SMILES": "O=C(NC=1C=CC=CC1N(=O)=O)C",
        "Molecular Formula": "C<sub>8</sub>H<sub>8</sub>N<sub>2</sub>O<sub>3</sub>",
        "Molecular Mass": "180.16",
        "Boiling Point": "100 °C",
        "Melting Point": "94 °C",
        "Density": "1.419 g/cm³ @ Temp: 15 °C"
    }
}