{
    "cas_no": "61-19-8",
    "key_name": "Adenosine monophosphate",
    "cn_name": "5\"-腺嘌呤核苷酸;5\"-腺嘌呤核甙酸;磷酸腺苷;腺苷酸;",
    "alternate_name": "5′-Adenylic acid;5′-AMP;Adenosine 5′-monophosphate;Adenosine-5-monophosphoric acid;Adenosine phosphate;Adenosine 5′-phosphate;Adenosine 5′-phosphoric acid;Lycedan;My-B-Den;Phosaden;Phosphentaside;AMP;Adenosine-5′-monophosphoric acid;Adenylic acid;AMP (nucleotide);Adenovite;Cardiomone;Phosphaden;Adenosine 5′-(dihydrogen phosphate);Adenosine monophosphate;NSC 20264;β-<span class=\"text-smallcaps\">D</span>-Adenosine 5′-phosphate;MeSH ID: D000249",
    "duplicated_cas_no": "47286-65-7;47287-97-8;53624-78-5;67583-85-1;697214-87-2;162756-82-3",
    "SMILES": "O[C@H]1[C@H](N2C=3C(N=C2)=C(N)N=CN3)O[C@H](COP(=O)(O)O)[C@H]1O",
    "meta_data": {
        "InChI": "InChI=1S/C10H14N5O7P/c11-8-5-9(13-2-12-8)15(3-14-5)10-7(17)6(16)4(22-10)1-21-23(18,19)20/h2-4,6-7,10,16-17H,1H2,(H2,11,12,13)(H2,18,19,20)/t4-,6-,7-,10-/m1/s1",
        "InChIKey": null,
        "Canonical SMILES": "O=P(O)(O)OCC1OC(N2C=NC=3C(=NC=NC32)N)C(O)C1O",
        "Molecular Formula": "C<sub>10</sub>H<sub>14</sub>N<sub>5</sub>O<sub>7</sub>P",
        "Molecular Mass": "347.22",
        "Melting Point": "196-200 °C"
    }
}