{
    "cas_no": "81927-55-1",
    "key_name": "Phenylmethyl 2,2,2-trichloroethanimidate",
    "cn_name": null,
    "alternate_name": "Ethanimidic acid, 2,2,2-trichloro-, phenylmethyl ester;Acetimidic acid, 2,2,2-trichloro-, benzyl ester;Phenylmethyl 2,2,2-trichloroethanimidate;Benzyl trichloroacetimidate;Benzyl 2,2,2-trichloroacetimidate;<em>O</em>-Benzyl 2,2,2-trichloroacetimidate;2,2,2-Trichloroacetimidic acid benzyl ester;Benzyl 2,2,2-trichloroethanimidate",
    "duplicated_cas_no": "2304855-28-3",
    "SMILES": "C(OC(C(Cl)(Cl)Cl)=N)C1=CC=CC=C1",
    "meta_data": {
        "InChI": "InChI=1S/C9H8Cl3NO/c10-9(11,12)8(13)14-6-7-4-2-1-3-5-7/h1-5,13H,6H2",
        "InChIKey": null,
        "Canonical SMILES": "ClC(Cl)(Cl)C(=N)OCC=1C=CC=CC1",
        "Molecular Formula": "C<sub>9</sub>H<sub>8</sub>Cl<sub>3</sub>NO",
        "Molecular Mass": "252.52",
        "Boiling Point": "104 °C @ Press: 0.1 Torr",
        "Melting Point": "3 °C"
    }
}