{
    "cas_no": "67676-47-5",
    "key_name": "4-[Ethyl(phenylmethyl)amino]benzaldehyde",
    "cn_name": "N-乙基-N-苄基-4-氨基苯甲醛;",
    "alternate_name": "Benzaldehyde, 4-[ethyl(phenylmethyl)amino]-;4-[Ethyl(phenylmethyl)amino]benzaldehyde;4-(Benzylethylamino)benzaldehyde;NSC 135484",
    "duplicated_cas_no": "",
    "SMILES": "N(CC1=CC=CC=C1)(CC)C2=CC=C(C=O)C=C2",
    "meta_data": {
        "InChI": "InChI=1S/C16H17NO/c1-2-17(12-14-6-4-3-5-7-14)16-10-8-15(13-18)9-11-16/h3-11,13H,2,12H2,1H3",
        "InChIKey": null,
        "Canonical SMILES": "O=CC1=CC=C(C=C1)N(CC=2C=CC=CC2)CC",
        "Molecular Formula": "C<sub>16</sub>H<sub>17</sub>NO",
        "Molecular Mass": "239.31",
        "Melting Point": "296-298 °C"
    }
}