{
    "cas_no": "186953-56-0",
    "key_name": "Pafuramidine",
    "cn_name": "帕呋拉定;4,4\"-(2,5-呋喃基)双[N-甲氧基苯甲脒];",
    "alternate_name": "Benzenecarboximidamide, 4,4′-(2,5-furandiyl)bis[<em>N</em>-methoxy-;4,4′-(2,5-Furandiyl)bis[<em>N</em>-methoxybenzenecarboximidamide];2,5-Bis(4-amidinophenyl)furan-bis-<em>O</em>-methylamidoxime;Pafuramidine",
    "duplicated_cas_no": "",
    "SMILES": "C(NOC)(=N)C1=CC=C(C=2OC(=CC2)C3=CC=C(C(NOC)=N)C=C3)C=C1",
    "meta_data": {
        "InChI": "InChI=1S/C20H20N4O3/c1-25-23-19(21)15-7-3-13(4-8-15)17-11-12-18(27-17)14-5-9-16(10-6-14)20(22)24-26-2/h3-12H,1-2H3,(H2,21,23)(H2,22,24)",
        "InChIKey": null,
        "Canonical SMILES": "N=C(NOC)C=1C=CC(=CC1)C=2OC(=CC2)C=3C=CC(=CC3)C(=N)NOC",
        "Molecular Formula": "C<sub>20</sub>H<sub>20</sub>N<sub>4</sub>O<sub>3</sub>",
        "Molecular Mass": "364.40",
        "Melting Point": "192.5-193 °C"
    }
}