{
    "cas_no": "2217-02-9",
    "key_name": "(+)-Fenchol",
    "cn_name": "(+)-葑醇;(1R)-1,3,3-三甲基双环[2.2.1]庚-2-醇;",
    "alternate_name": "Bicyclo[2.2.1]heptan-2-ol, 1,3,3-trimethyl-, (1<em>R</em>,2<em>R</em>,4<em>S</em>)-;Bicyclo[2.2.1]heptan-2-ol, 1,3,3-trimethyl-, (1<em>R</em>-<em>endo</em>)-;(1<em>R</em>,2<em>R</em>,4<em>S</em>)-1,3,3-Trimethylbicyclo[2.2.1]heptan-2-ol;(+)-α-Fenchol;α-Fenchol, (+)-;<span class=\"text-smallcaps\">D</span>-Fenchol;(+)-Fenchol;α-(+)-Fenchol;(+)-α-Fenchyl alcohol;(1R-<em>endo</em>)-Fenchol;(1<em>R</em>)-<em>endo</em>-(+)-Fenchyl alcohol;(+)-Fenchyl alcohol;<span class=\"text-smallcaps\">D</span>-Fenchyl alcohol;(1<em>R</em>)-<em>endo</em>-(+)-Fenchol;(1<em>R</em>,2<em>R</em>,4<em>S</em>)-<em>endo</em>-Fenchol;(+)-<em>endo</em>-Fenchol",
    "duplicated_cas_no": "",
    "SMILES": "C[C@]12[C@@H](O)C(C)(C)[C@](C1)(CC2)[H]",
    "meta_data": {
        "InChI": "InChI=1S/C10H18O/c1-9(2)7-4-5-10(3,6-7)8(9)11/h7-8,11H,4-6H2,1-3H3/t7-,8-,10+/m0/s1",
        "InChIKey": null,
        "Canonical SMILES": "OC1C(C)(C)C2CCC1(C)C2",
        "Molecular Formula": "C<sub>10</sub>H<sub>18</sub>O",
        "Molecular Mass": "154.25",
        "Melting Point": "43.5 °C"
    }
}