{
    "cas_no": "58086-67-2",
    "key_name": "2-Fluoro-1-methylpyridinium <em>p</em>-toluenesulfonate",
    "cn_name": null,
    "alternate_name": "Pyridinium, 2-fluoro-1-methyl-, 4-methylbenzenesulfonate (1:1);Pyridinium, 2-fluoro-1-methyl-, salt with 4-methylbenzenesulfonic acid (1:1);2-Fluoro-1-methylpyridinium tosylate;2-Fluoro-1-methylpyridinium <em>p</em>-toluenesulfonate;2-Fluoro-<em>N</em>-methylpyridinium tosylate;1-Methyl-2-fluoropyridinium tosylate;2-Fluoro-1-methylpyridinium toluene-4-sulfonate",
    "duplicated_cas_no": "141822-78-8",
    "SMILES": "FC=1[N+](C)=CC=CC1.S(=O)(=O)([O-])C1=CC=C(C)C=C1",
    "meta_data": {
        "InChI": "InChI=1S/C7H8O3S.C6H7FN/c1-6-2-4-7(5-3-6)11(8,9)10;1-8-5-3-2-4-6(8)7/h2-5H,1H3,(H,8,9,10);2-5H,1H3/q;+1/p-1",
        "InChIKey": null,
        "Canonical SMILES": "O=S(=O)([O-])C1=CC=C(C=C1)C.FC=1C=CC=C[N+]1C",
        "Molecular Formula": "C<sub>7</sub>H<sub>7</sub>O<sub>3</sub>S.C<sub>6</sub>H<sub>7</sub>FN",
        "Molecular Mass": "",
        "Melting Point": "130-134 °C"
    }
}