{
    "cas_no": "64-69-7",
    "key_name": "Iodoacetic acid",
    "cn_name": "碘乙酸;",
    "alternate_name": "Acetic acid, 2-iodo-;Acetic acid, iodo-;2-Iodoacetic acid;Iodoacetic acid;MIA;Monoiodoacetic acid;NSC 2125;CH<sub>2</sub>ICOOH;Iodoacetates;MeSH ID: D019807;MeSH ID: D007461",
    "duplicated_cas_no": "",
    "SMILES": "C(CI)(O)=O",
    "meta_data": {
        "InChI": "InChI=1S/C2H3IO2/c3-1-2(4)5/h1H2,(H,4,5)",
        "InChIKey": null,
        "Canonical SMILES": "O=C(O)CI",
        "Molecular Formula": "C<sub>2</sub>H<sub>3</sub>IO<sub>2</sub>",
        "Molecular Mass": "185.95",
        "Melting Point": "82-83 °C"
    }
}