{
    "cas_no": "72-63-9",
    "key_name": "Methandrostenolone",
    "cn_name": null,
    "alternate_name": "Androsta-1,4-dien-3-one, 17-hydroxy-17-methyl-, (17β)-;Androsta-1,4-dien-3-one, 17β-hydroxy-17-methyl-;(17β)-17-Hydroxy-17-methylandrosta-1,4-dien-3-one;Abirol;Anabolin;Ciba 17309-Ba;Compound 17309;Danabol;Dehydromethyltestosterone;1-Dehydro-17α-methyltestosterone;1-Dehydromethyltestosterone;Dianabol;17β-Hydroxy-17α-methylandrosta-1,4-dien-3-one;MA;Methandienone;Methandrostenolone;17-Methylandrosta-1,4-dien-17β-ol-3-one;17α-Methyl-1-dehydrotestosterone;17α-Methyl-17β-hydroxyandrosta-1,4-dien-3-one;Δ<sup>1</sup>-17α-Methyltestosterone;Nerobol;Nerobolettes;Stenolon;Methandrolone;Dianabole;Metandrostenolone;1,2-Dehydro-17-methyltestosterone;Stenolone;Metanabol;17α-Methyl-17β-hydroxyandrost-1,4-dien-3-one;17β-Hydroxy-17-methylandrosta-1,4-dien-3-one;Metandienonum;Metandrostenolon;17α-Methylandrosta-1,4-dien-17β-ol-3-one;Metandienone;Geabol;Protobolin;Metastenol;Crein;NSC-42722;Metandienon;Naposim;17β-Hydroxy-17α-methyl-1,4-androstadiene-3-one;Methandon;1,4-Androstadien-17α-methyl-17β-ol-3-one;Nabolin;Sterolon;NSC 51180;Methylboldenone",
    "duplicated_cas_no": "",
    "SMILES": "C[C@@]12[C@@]3([C@]([C@]4([C@](C)(CC3)[C@@](C)(O)CC4)[H])(CCC1=CC(=O)C=C2)[H])[H]",
    "meta_data": {
        "InChI": "InChI=1S/C20H28O2/c1-18-9-6-14(21)12-13(18)4-5-15-16(18)7-10-19(2)17(15)8-11-20(19,3)22/h6,9,12,15-17,22H,4-5,7-8,10-11H2,1-3H3/t15-,16+,17+,18+,19+,20+/m1/s1",
        "InChIKey": null,
        "Canonical SMILES": "O=C1C=CC2(C(=C1)CCC3C2CCC4(C)C3CCC4(O)C)C",
        "Molecular Formula": "C<sub>20</sub>H<sub>28</sub>O<sub>2</sub>",
        "Molecular Mass": "300.44",
        "Melting Point": "163-164 °C"
    }
}