{
    "cas_no": "577-16-2",
    "key_name": "2′-Methylacetophenone",
    "cn_name": "邻甲基苯乙酮;",
    "alternate_name": "Ethanone, 1-(2-methylphenyl)-;Acetophenone, 2′-methyl-;Acetophenone, <em>o</em>-methyl-;1-(2-Methylphenyl)ethanone;<em>o</em>-Methylacetophenone;2′-Methylacetophenone;<em>o</em>-Acetyltoluene;2-Acetyltoluene;Methyl 2-methylphenyl ketone;2-Methylphenyl methyl ketone;Methyl <em>o</em>-tolyl ketone;1-(2-Tolyl)ethanone;NSC 84233;1-(<em>o</em>-Tolyl)ethanone;1-(2-Methylphenyl)ethan-1-one;(<em>o</em>-Tolyl)ethan-1-one;1-(<em>o</em>-Tolyl)ethan-1-one",
    "duplicated_cas_no": "",
    "SMILES": "C(C)(=O)C1=C(C)C=CC=C1",
    "meta_data": {
        "InChI": "InChI=1S/C9H10O/c1-7-5-3-4-6-9(7)8(2)10/h3-6H,1-2H3",
        "InChIKey": null,
        "Canonical SMILES": "O=C(C=1C=CC=CC1C)C",
        "Molecular Formula": "C<sub>9</sub>H<sub>10</sub>O",
        "Molecular Mass": "134.18",
        "Boiling Point": "214 °C",
        "Melting Point": "107-108 °C"
    }
}