{
    "cas_no": "17704-22-2",
    "key_name": "2,4,6,8,10-Pentaethenyl-2,4,6,8,10-pentamethylcyclopentasiloxane",
    "cn_name": null,
    "alternate_name": "Cyclopentasiloxane, 2,4,6,8,10-pentaethenyl-2,4,6,8,10-pentamethyl-;Cyclopentasiloxane, 2,4,6,8,10-pentamethyl-2,4,6,8,10-pentavinyl-;2,4,6,8,10-Pentaethenyl-2,4,6,8,10-pentamethylcyclopentasiloxane;1,3,5,7,9-Pentamethyl-1,3,5,7,9-pentavinylcyclopentasiloxane;2,4,6,8,10-Pentamethyl-2,4,6,8,10-pentavinylcyclopentasiloxane;1,3,5,7,9-Pentavinyl-1,3,5,7,9-pentamethylcyclopentasiloxane;Pentavinylpentamethylcyclopentasiloxane",
    "duplicated_cas_no": "",
    "SMILES": "C(=C)[Si]1(C)O[Si](C=C)(C)O[Si](C=C)(C)O[Si](C=C)(C)O[Si](C=C)(C)O1",
    "meta_data": {
        "InChI": "InChI=1S/C15H30O5Si5/c1-11-21(6)16-22(7,12-2)18-24(9,14-4)20-25(10,15-5)19-23(8,13-3)17-21/h11-15H,1-5H2,6-10H3",
        "InChIKey": null,
        "Canonical SMILES": "O1[Si](O[Si](O[Si](O[Si](O[Si]1(C=C)C)(C=C)C)(C=C)C)(C=C)C)(C=C)C",
        "Molecular Formula": "C<sub>15</sub>H<sub>30</sub>O<sub>5</sub>Si<sub>5</sub>",
        "Molecular Mass": "430.82",
        "Boiling Point": "261-262 °C",
        "Melting Point": "-140 °C",
        "Density": "0.994 g/cm³"
    }
}