{
    "cas_no": "112-58-3",
    "key_name": "Dihexyl ether",
    "cn_name": "正己醚;二己基醚;己基醚;二己醚;",
    "alternate_name": "Hexane, 1,1′-oxybis-;Hexyl ether;1,1′-Oxybis[hexane];Dihexyl ether;Di-<em>n</em>-hexyl ether;<em>n</em>-Hexyl ether;Bis(1-hexyl) ether;NSC 9286;1-Hexoxyhexane;Nacol ether 6",
    "duplicated_cas_no": "",
    "SMILES": "O(CCCCCC)CCCCCC",
    "meta_data": {
        "InChI": "InChI=1S/C12H26O/c1-3-5-7-9-11-13-12-10-8-6-4-2/h3-12H2,1-2H3",
        "InChIKey": null,
        "Canonical SMILES": "O(CCCCCC)CCCCCC",
        "Molecular Formula": "C<sub>12</sub>H<sub>26</sub>O",
        "Molecular Mass": "186.33",
        "Boiling Point": "223 °C",
        "Density": "0.7936 g/cm³ @ Temp: 20 °C"
    }
}