{
    "cas_no": "78473-00-4",
    "key_name": "4-Amino-3,5-dichlorobenzonitrile",
    "cn_name": "4-氨基-3,5-二氯苯腈;",
    "alternate_name": "Benzonitrile, 4-amino-3,5-dichloro-;4-Amino-3,5-dichlorobenzonitrile;4-Cyano-2,6-dichlorobenzenamine;4-Cyano-2,6-dichloroaniline;3,5-Dichloro-4-aminobenzonitrile;2,6-Dichloro-4-cyanoaniline",
    "duplicated_cas_no": "",
    "SMILES": "C(#N)C1=CC(Cl)=C(N)C(Cl)=C1",
    "meta_data": {
        "InChI": "InChI=1S/C7H4Cl2N2/c8-5-1-4(3-10)2-6(9)7(5)11/h1-2H,11H2",
        "InChIKey": null,
        "Canonical SMILES": "N#CC1=CC(Cl)=C(N)C(Cl)=C1",
        "Molecular Formula": "C<sub>7</sub>H<sub>4</sub>Cl<sub>2</sub>N<sub>2</sub>",
        "Molecular Mass": "187.03",
        "Melting Point": "117-118 °C"
    }
}