{
    "cas_no": "5041-81-6",
    "key_name": "Isoliquiritin",
    "cn_name": "异甘草甙;",
    "alternate_name": "2-Propen-1-one, 1-(2,4-dihydroxyphenyl)-3-[4-(β-<span class=\"text-smallcaps\">D</span>-glucopyranosyloxy)phenyl]-, (2<em>E</em>)-;Chalcone, 2′,4,4′-trihydroxy-, 4-β-<span class=\"text-smallcaps\">D</span>-glucopyranoside;2-Propen-1-one, 1-(2,4-dihydroxyphenyl)-3-[4-(β-<span class=\"text-smallcaps\">D</span>-glucopyranosyloxy)phenyl]-, (<em>E</em>)-;(2<em>E</em>)-1-(2,4-Dihydroxyphenyl)-3-[4-(β-<span class=\"text-smallcaps\">D</span>-glucopyranosyloxy)phenyl]-2-propen-1-one;Isoliquiritin;Isoliquiritoside;2′,4,4′-Trihydroxychalcone 4-(β-<span class=\"text-smallcaps\">D</span>-glucopyranoside)",
    "duplicated_cas_no": "27233-96-1;30372-12-4",
    "SMILES": "O([C@@H]1O[C@H](CO)[C@@H](O)[C@H](O)[C@H]1O)C2=CC=C(/C=C/C(=O)C3=C(O)C=C(O)C=C3)C=C2",
    "meta_data": {
        "InChI": "InChI=1S/C21H22O9/c22-10-17-18(26)19(27)20(28)21(30-17)29-13-5-1-11(2-6-13)3-8-15(24)14-7-4-12(23)9-16(14)25/h1-9,17-23,25-28H,10H2/b8-3+/t17-,18-,19+,20-,21-/m1/s1",
        "InChIKey": null,
        "Canonical SMILES": "O=C(C=CC1=CC=C(OC2OC(CO)C(O)C(O)C2O)C=C1)C3=CC=C(O)C=C3O",
        "Molecular Formula": "C<sub>21</sub>H<sub>22</sub>O<sub>9</sub>",
        "Molecular Mass": "418.39",
        "Melting Point": "185-186 °C (decomp)"
    }
}