{
    "cas_no": "66548-69-4",
    "key_name": "3-Methyl-6-[3-(trifluoromethyl)phenyl]-1,2,4-triazolo[4,3-<em>b</em>]pyridazine",
    "cn_name": null,
    "alternate_name": "1,2,4-Triazolo[4,3-<em>b</em>]pyridazine, 3-methyl-6-[3-(trifluoromethyl)phenyl]-;3-Methyl-6-[3-(trifluoromethyl)phenyl]-1,2,4-triazolo[4,3-<em>b</em>]pyridazine;CL 218872;CI 218872",
    "duplicated_cas_no": "",
    "SMILES": "CC=1N2C(C=CC(=N2)C3=CC(C(F)(F)F)=CC=C3)=NN1",
    "meta_data": {
        "InChI": "InChI=1S/C13H9F3N4/c1-8-17-18-12-6-5-11(19-20(8)12)9-3-2-4-10(7-9)13(14,15)16/h2-7H,1H3",
        "InChIKey": null,
        "Canonical SMILES": "FC(F)(F)C1=CC=CC(=C1)C2=NN3C(=NN=C3C)C=C2",
        "Molecular Formula": "C<sub>13</sub>H<sub>9</sub>F<sub>3</sub>N<sub>4</sub>",
        "Molecular Mass": "278.23",
        "Melting Point": "193-194 °C"
    }
}