{
    "cas_no": "134-04-3",
    "key_name": "Pelargonidin chloride",
    "cn_name": "氯化花葵素;氯化天竺葵色素;天竺葵素PG;",
    "alternate_name": "1-Benzopyrylium, 3,5,7-trihydroxy-2-(4-hydroxyphenyl)-, chloride (1:1);Pelargonidin;Flavylium, 3,4′,5,7-tetrahydroxy-, chloride;1-Benzopyrylium, 3,5,7-trihydroxy-2-(4-hydroxyphenyl)-, chloride;3,4′,5,7-Tetrahydroxyflavylium chloride;Pelargonidin chloride;Pelargonidol chloride",
    "duplicated_cas_no": "",
    "SMILES": "OC=1C2=C([O+]=C(C(O)=C2)C3=CC=C(O)C=C3)C=C(O)C1.[Cl-]",
    "meta_data": {
        "InChI": "InChI=1S/C15H10O5.ClH/c16-9-3-1-8(2-4-9)15-13(19)7-11-12(18)5-10(17)6-14(11)20-15;/h1-7H,(H3-,16,17,18,19);1H",
        "InChIKey": null,
        "Canonical SMILES": "[Cl-].OC=1C=CC(=CC1)C2=[O+]C=3C=C(O)C=C(O)C3C=C2O",
        "Molecular Formula": "C<sub>15</sub>H<sub>11</sub>O<sub>5</sub>.Cl",
        "Molecular Mass": "",
        "Melting Point": "&gt;350 °C"
    }
}