{
    "cas_no": "119793-66-7",
    "key_name": "Dromos",
    "cn_name": "丙酰肉碱盐酸盐;丙酰左旋肉碱盐酸盐;(R)-2-丙酰氧基-3-羧基-N,N,N-三甲基丙铵氯化物;",
    "alternate_name": "1-Propanaminium, 3-carboxy-<em>N</em>,<em>N</em>,<em>N</em>-trimethyl-2-(1-oxopropoxy)-, chloride (1:1), (2<em>R</em>)-;1-Propanaminium, 3-carboxy-<em>N</em>,<em>N</em>,<em>N</em>-trimethyl-2-(1-oxopropoxy)-, chloride, (<em>R</em>)-;1-Propanaminium, 3-carboxy-<em>N</em>,<em>N</em>,<em>N</em>-trimethyl-2-(1-oxopropoxy)-, chloride, (2<em>R</em>)-;ST 261;Dromos;Levocarnitine propionate hydrochloride",
    "duplicated_cas_no": "",
    "SMILES": "[C@H](OC(CC)=O)(C[N+](C)(C)C)CC(O)=O.[Cl-]",
    "meta_data": {
        "InChI": "InChI=1S/C10H19NO4.ClH/c1-5-10(14)15-8(6-9(12)13)7-11(2,3)4;/h8H,5-7H2,1-4H3;1H/t8-;/m1./s1",
        "InChIKey": null,
        "Canonical SMILES": "[Cl-].O=C(O)CC(OC(=O)CC)C[N+](C)(C)C",
        "Molecular Formula": "C<sub>10</sub>H<sub>20</sub>NO<sub>4</sub>.Cl",
        "Molecular Mass": "",
        "Melting Point": "161.0-163.0 °C"
    }
}