{
    "cas_no": "110-03-2",
    "key_name": "2,5-Dimethyl-2,5-hexanediol",
    "cn_name": "2,5-二甲基-2,5-己二醇;",
    "alternate_name": "2,5-Hexanediol, 2,5-dimethyl-;2,5-Dimethyl-2,5-hexanediol;1,1,4,4-Tetramethyl-1,4-butanediol;2,5-Dihydroxy-2,5-dimethylhexane;NSC 5595;2,5-Dimethylhexane-2,5-diol;2,5-Dimethyl-2,5-dihydroxyhexane",
    "duplicated_cas_no": "",
    "SMILES": "C(CC(C)(C)O)C(C)(C)O",
    "meta_data": {
        "InChI": "InChI=1S/C8H18O2/c1-7(2,9)5-6-8(3,4)10/h9-10H,5-6H2,1-4H3",
        "InChIKey": null,
        "Canonical SMILES": "OC(C)(C)CCC(O)(C)C",
        "Molecular Formula": "C<sub>8</sub>H<sub>18</sub>O<sub>2</sub>",
        "Molecular Mass": "146.23",
        "Boiling Point": "118 °C @ Press: 15 Torr",
        "Melting Point": "92 °C",
        "Density": "0.898 g/cm³ @ Temp: 20 °C"
    }
}