{
    "cas_no": "31465-36-8",
    "key_name": "4-(4-Methoxyphenoxy)benzenamine",
    "cn_name": null,
    "alternate_name": "Benzenamine, 4-(4-methoxyphenoxy)-;Aniline, <em>p</em>-(<em>p</em>-methoxyphenoxy)-;4-(4-Methoxyphenoxy)benzenamine;<em>p</em>-Aminophenyl <em>p</em>-methoxyphenyl ether;<em>p</em>-(<em>p</em>-Methoxyphenoxy)aniline;4-Amino-4′-methoxydiphenyl ether;4-(4-Methoxyphenoxy)aniline;NSC 509660;[4-(4-Methoxyphenoxy)phenyl]amine",
    "duplicated_cas_no": "",
    "SMILES": "O(C1=CC=C(OC)C=C1)C2=CC=C(N)C=C2",
    "meta_data": {
        "InChI": "InChI=1S/C13H13NO2/c1-15-11-6-8-13(9-7-11)16-12-4-2-10(14)3-5-12/h2-9H,14H2,1H3",
        "InChIKey": null,
        "Canonical SMILES": "O(C1=CC=C(OC)C=C1)C2=CC=C(N)C=C2",
        "Molecular Formula": "C<sub>13</sub>H<sub>13</sub>NO<sub>2</sub>",
        "Molecular Mass": "215.25",
        "Melting Point": "79 °C"
    }
}