{
    "cas_no": "1197-01-9",
    "key_name": "<em>p</em>-Cymen-8-ol",
    "cn_name": "2-(4-甲基苯基)丙-2-醇;对甲基苯异丙醇;alpha,alpha,4-三甲基苯甲醇;",
    "alternate_name": "Benzenemethanol, α,α,4-trimethyl-;<em>p</em>-Cymen-8-ol;α,α,4-Trimethylbenzenemethanol;1-Methyl-4-(α-hydroxyisopropyl)benzene;1-Methyl-4-(1-hydroxy-1-methylethyl)benzene;8-Hydroxy-<em>p</em>-cymene;2-(4-Methylphenyl)-2-propanol;<em>p</em>-Cymene-8-ol;Dimethyl-<em>p</em>-tolyl carbinol;2-(<em>p</em>-Methylphenyl)-2-propanol;2-(<em>p</em>-Tolyl)-2-propanol;4-Methylcumyl alcohol;α,α,4-Trimethylbenzyl alcohol;NSC 361057",
    "duplicated_cas_no": "",
    "SMILES": "C(C)(C)(O)C1=CC=C(C)C=C1",
    "meta_data": {
        "InChI": "InChI=1S/C10H14O/c1-8-4-6-9(7-5-8)10(2,3)11/h4-7,11H,1-3H3",
        "InChIKey": null,
        "Canonical SMILES": "OC(C1=CC=C(C=C1)C)(C)C",
        "Molecular Formula": "C<sub>10</sub>H<sub>14</sub>O",
        "Molecular Mass": "150.22",
        "Boiling Point": "99 °C @ Press: 7 Torr",
        "Density": "0.9782 g/cm³ @ Temp: 20 °C"
    }
}