{
    "cas_no": "113-92-8",
    "key_name": "Chlorpheniramine maleate",
    "cn_name": "马来酸氯苯那敏;N,N-二甲基-gamma-(4-氯苯基)-2-吡啶丙胺顺丁烯二酸盐;",
    "alternate_name": "2-Pyridinepropanamine, γ-(4-chlorophenyl)-<em>N</em>,<em>N</em>-dimethyl-, (2<em>Z</em>)-2-butenedioate (1:1);Pyridine, 2-[<em>p</em>-chloro-α-[2-(dimethylamino)ethyl]benzyl]-, maleate (1:1);2-Pyridinepropanamine, γ-(4-chlorophenyl)-<em>N</em>,<em>N</em>-dimethyl-, (<em>Z</em>)-2-butenedioate (1:1);1-<em>p</em>-Chlorophenyl-1-(2-pyridyl)-3-dimethylaminopropane maleate;Histadur dura-tabs;Ibioton;1-Parachlorophenyl-1-(2-pyridyl)-3-dimethylaminopropane maleate;Piriex;Synistamin;Teldrin;Chlorpheniramine maleate;Piriton;Chlor-Trimeton;Chloroprophenpyridamine maleate;Chlor-Tripolon;Chlorprophenpyridamine maleate;Carbinoxamide maleate;Neorestamin;Allergin;Chlorphenamine maleate;Puermin;<em>dl</em>-Chlorpheniramine maleate;(±)-Chlorpheniramine maleate;Chlorophenamine;Cloropiril;Allergisan;Histaspan;Antagonate;C-Meton;Chlorphenamine hydrogen maleate;Pyridamal 100;Histadur;Lorphen;Pirafene;Anallerge 4;Calimal;Niramine;Iramine;Histamil;Chlorphenamine",
    "duplicated_cas_no": "7054-11-7",
    "SMILES": "C(CCN(C)C)(C1=CC=C(Cl)C=C1)C2=CC=CC=N2.C(=C\\C(O)=O)\\C(O)=O",
    "meta_data": {
        "InChI": "InChI=1S/C16H19ClN2.C4H4O4/c1-19(2)12-10-15(16-5-3-4-11-18-16)13-6-8-14(17)9-7-13;5-3(6)1-2-4(7)8/h3-9,11,15H,10,12H2,1-2H3;1-2H,(H,5,6)(H,7,8)/b;2-1-",
        "InChIKey": null,
        "Canonical SMILES": "O=C(O)C=CC(=O)O.ClC1=CC=C(C=C1)C(C2=NC=CC=C2)CCN(C)C",
        "Molecular Formula": "C<sub>16</sub>H<sub>19</sub>ClN<sub>2</sub>.C<sub>4</sub>H<sub>4</sub>O<sub>4</sub>",
        "Molecular Mass": "",
        "Melting Point": "130-135 °C"
    }
}