{
    "cas_no": "13171-25-0",
    "key_name": "Trimetazidine dihydrochloride",
    "cn_name": "盐酸曲美他嗪;1-[(2,3,4-三甲氧苯基)甲基]-哌嗪盐酸盐;",
    "alternate_name": "Piperazine, 1-[(2,3,4-trimethoxyphenyl)methyl]-, hydrochloride (1:2);Piperazine, 1-(2,3,4-trimethoxybenzyl)-, dihydrochloride;Piperazine, 1-[(2,3,4-trimethoxyphenyl)methyl]-, dihydrochloride;Trimetazidine dihydrochloride;Vastarel;S 4004;1-(2,3,4-Trimethoxybenzyl)piperazine dihydrochloride;Vastarel F;Yoshimilon;Kyurinett;Trivedon",
    "duplicated_cas_no": "",
    "SMILES": "C(C1=C(OC)C(OC)=C(OC)C=C1)N2CCNCC2.Cl",
    "meta_data": {
        "InChI": "InChI=1S/C14H22N2O3.2ClH/c1-17-12-5-4-11(13(18-2)14(12)19-3)10-16-8-6-15-7-9-16;;/h4-5,15H,6-10H2,1-3H3;2*1H",
        "InChIKey": null,
        "Canonical SMILES": "Cl.O(C1=CC=C(C(OC)=C1OC)CN2CCNCC2)C",
        "Molecular Formula": "C<sub>14</sub>H<sub>22</sub>N<sub>2</sub>O<sub>3</sub>.2ClH",
        "Molecular Mass": "",
        "Melting Point": "225-228 °C"
    }
}