{
    "cas_no": "402-42-6",
    "key_name": "1-Fluoro-4-(trichloromethyl)benzene",
    "cn_name": "4-氟三氯甲苯;对氟三氯苄;4-氟-&alpha;,&alpha;,&alpha;-三氯甲苯;4-氟三氯苄;",
    "alternate_name": "Benzene, 1-fluoro-4-(trichloromethyl)-;Toluene, α,α,α-trichloro-<em>p</em>-fluoro-;1-Fluoro-4-(trichloromethyl)benzene;Trichloro(<em>p</em>-fluorophenyl)methane;4-Fluorophenyltrichloromethane;<em>p</em>-Fluorobenzotrichloride;4-Fluorobenzotrichloride;α,α,α-Trichloro-<em>p</em>-fluorotoluene;NSC 10310",
    "duplicated_cas_no": "",
    "SMILES": "C(Cl)(Cl)(Cl)C1=CC=C(F)C=C1",
    "meta_data": {
        "InChI": "InChI=1S/C7H4Cl3F/c8-7(9,10)5-1-3-6(11)4-2-5/h1-4H",
        "InChIKey": null,
        "Canonical SMILES": "FC1=CC=C(C=C1)C(Cl)(Cl)Cl",
        "Molecular Formula": "C<sub>7</sub>H<sub>4</sub>Cl<sub>3</sub>F",
        "Molecular Mass": "213.46",
        "Boiling Point": "121-125 °C @ Press: 45 Torr"
    }
}