{
    "cas_no": "105-87-3",
    "key_name": "Geranyl acetate",
    "cn_name": "乙酸香叶酯;反-3,7-二甲基-2,6-辛二烯-1-醇乙酸酯;",
    "alternate_name": "2,6-Octadien-1-ol, 3,7-dimethyl-, 1-acetate, (2<em>E</em>)-;Geraniol acetate;2,6-Octadien-1-ol, 3,7-dimethyl-, acetate, (<em>E</em>)-;2,6-Octadien-1-ol, 3,7-dimethyl-, acetate, (2<em>E</em>)-;Acetic acid geraniol ester;<em>trans</em>-3,7-Dimethyl-2,6-octadien-1-yl acetate;Geranyl acetate;Bay pine (oyster) oil;Geranyl ethanoate;<em>trans</em>-Geranyl acetate;β-Geranyl acetate;<em>trans</em>-1-Acetoxy-3,7-dimethyl-2,6-octadiene;(<em>E</em>)-3,7-Dimethyl-2,6-octadienyl acetate;NSC 2584;(<em>E</em>)-3,7-Dimethyl-2,6-octadien-1-ol acetate;Acetic acid (2<em>E</em>)-3,7-dimethyl-2,6-octadienyl ester;3,7-Dimethyl-2,6-octadien-1-ol acetate;Acetic acid geranyl ester",
    "duplicated_cas_no": "130396-84-8;8022-83-1",
    "SMILES": "C(\\CCC=C(C)C)(=C/COC(C)=O)/C",
    "meta_data": {
        "InChI": "InChI=1S/C12H20O2/c1-10(2)6-5-7-11(3)8-9-14-12(4)13/h6,8H,5,7,9H2,1-4H3/b11-8+",
        "InChIKey": null,
        "Canonical SMILES": "O=C(OCC=C(C)CCC=C(C)C)C",
        "Molecular Formula": "C<sub>12</sub>H<sub>20</sub>O<sub>2</sub>",
        "Molecular Mass": "196.29",
        "Boiling Point": "240 °C",
        "Melting Point": "&lt;25 °C",
        "Density": "0.9174 g/cm³ @ Temp: 15 °C"
    }
}