{
    "cas_no": "20485-39-6",
    "key_name": "Ethyl 4-methyloxazole-5-carboxylate",
    "cn_name": "4-甲基-1,3-恶唑-5-甲酸乙酯;",
    "alternate_name": "5-Oxazolecarboxylic acid, 4-methyl-, ethyl ester;Ethyl 4-methyloxazolecarboxylate;4-Methyl-5-carbethoxyoxazole;4-Methyloxazole-5-carboxylic acid ethyl ester;Ethyl 4-methyloxazole-5-carboxylate",
    "duplicated_cas_no": "",
    "SMILES": "C(OCC)(=O)C1=C(C)N=CO1",
    "meta_data": {
        "InChI": "InChI=1S/C7H9NO3/c1-3-10-7(9)6-5(2)8-4-11-6/h4H,3H2,1-2H3",
        "InChIKey": null,
        "Canonical SMILES": "O=C(OCC)C=1OC=NC1C",
        "Molecular Formula": "C<sub>7</sub>H<sub>9</sub>NO<sub>3</sub>",
        "Molecular Mass": "155.15",
        "Boiling Point": "59-62 °C @ Press: 1.5 Torr",
        "Melting Point": "38 °C"
    }
}