{
    "cas_no": "109-08-0",
    "key_name": "Methylpyrazine",
    "cn_name": "2-甲基吡嗪;",
    "alternate_name": "Pyrazine, 2-methyl-;Pyrazine, methyl-;2-Methylpyrazine;Methylpyrazine;2-Methyl-1,4-diazine;NSC 30412;NSC 49138;Monomethylpyrazine",
    "duplicated_cas_no": "",
    "SMILES": "CC=1C=NC=CN1",
    "meta_data": {
        "InChI": "InChI=1S/C5H6N2/c1-5-4-6-2-3-7-5/h2-4H,1H3",
        "InChIKey": null,
        "Canonical SMILES": "N=1C=CN=C(C1)C",
        "Molecular Formula": "C<sub>5</sub>H<sub>6</sub>N<sub>2</sub>",
        "Molecular Mass": "94.11",
        "Boiling Point": "137 °C",
        "Melting Point": "-29 °C",
        "Density": "1.030 g/cm³ @ Temp: 20 °C"
    }
}