{
    "cas_no": "881-07-2",
    "key_name": "2-Methyl-8-nitroquinoline",
    "cn_name": "2-甲基-8-硝基喹啉;8-硝基喹那啉;",
    "alternate_name": "Quinoline, 2-methyl-8-nitro-;Quinaldine, 8-nitro-;2-Methyl-8-nitroquinoline;8-Nitroquinaldine;NSC 163380;8-Nitro-2-methylquinoline",
    "duplicated_cas_no": "",
    "SMILES": "N(=O)(=O)C=1C2=C(C=CC(C)=N2)C=CC1",
    "meta_data": {
        "InChI": "InChI=1S/C10H8N2O2/c1-7-5-6-8-3-2-4-9(12(13)14)10(8)11-7/h2-6H,1H3",
        "InChIKey": null,
        "Canonical SMILES": "O=N(=O)C1=CC=CC2=CC=C(N=C21)C",
        "Molecular Formula": "C<sub>10</sub>H<sub>8</sub>N<sub>2</sub>O<sub>2</sub>",
        "Molecular Mass": "188.18",
        "Melting Point": "139-141 °C"
    }
}