{
    "cas_no": "446-33-3",
    "key_name": "4-Fluoro-2-methyl-1-nitrobenzene",
    "cn_name": "5-氟-2-硝基甲苯;",
    "alternate_name": "Benzene, 4-fluoro-2-methyl-1-nitro-;Toluene, 5-fluoro-2-nitro-;4-Fluoro-2-methyl-1-nitrobenzene;5-Fluoro-2-nitrotoluene;2-Methyl-4-fluoronitrobenzene;3-Fluoro-6-nitrotoluene;3-Methyl-4-nitrofluorobenzene;4-Fluoro-2-methylnitrobenzene;NSC 10334;1-Fluoro-3-methyl-4-nitrobenzene",
    "duplicated_cas_no": "",
    "SMILES": "N(=O)(=O)C1=C(C)C=C(F)C=C1",
    "meta_data": {
        "InChI": "InChI=1S/C7H6FNO2/c1-5-4-6(8)2-3-7(5)9(10)11/h2-4H,1H3",
        "InChIKey": null,
        "Canonical SMILES": "O=N(=O)C1=CC=C(F)C=C1C",
        "Molecular Formula": "C<sub>7</sub>H<sub>6</sub>FNO<sub>2</sub>",
        "Molecular Mass": "155.13",
        "Boiling Point": "50-60 °C @ Press: 11 Torr",
        "Melting Point": "28 °C"
    }
}