{
    "cas_no": "41931-18-4",
    "key_name": "Hydrazine, (4-bromophenyl)-, hydrochloride (1:?)",
    "cn_name": null,
    "alternate_name": "Hydrazine, (4-bromophenyl)-, hydrochloride (1:?);Hydrazine, (4-bromophenyl)-, hydrochloride;Hydrazine, (<em>p</em>-bromophenyl)-, hydrochloride;<em>p</em>-Bromophenylhydrazine hydrochloride",
    "duplicated_cas_no": "",
    "SMILES": "N(N)C1=CC=C(Br)C=C1.Cl",
    "meta_data": {
        "InChI": "InChI=1S/C6H7BrN2.ClH/c7-5-1-3-6(9-8)4-2-5;/h1-4,9H,8H2;1H",
        "InChIKey": null,
        "Canonical SMILES": "Cl.BrC1=CC=C(C=C1)NN",
        "Molecular Formula": "C<sub>6</sub>H<sub>7</sub>BrN<sub>2</sub>.xClH",
        "Molecular Mass": "",
        "Melting Point": "219-221 °C (decomp)"
    }
}