{
    "cas_no": "947-04-6",
    "key_name": "Laurolactam",
    "cn_name": null,
    "alternate_name": "Azacyclotridecan-2-one;Dodecanoic acid, 12-amino-, lactam;Laurolactam;ω-Laurolactam;ω-Dodecalactam;Dodecanolactam;Dodecalactam;2-Oxododecamethylenimine;Cyclododecalactam;Laurinolactam;Lauryl lactam;Laurin lactam;Dodecyllactam;ω-Dodecanolactam;1-Aza-2-cyclotridecanone;12-Aminododecanoic acid lactam;NSC 77100;ω-Laurinactam",
    "duplicated_cas_no": "115296-76-9;125081-69-8;70099-82-0;148308-40-1;161865-23-2",
    "SMILES": "O=C1CCCCCCCCCCCN1",
    "meta_data": {
        "InChI": "InChI=1S/C12H23NO/c14-12-10-8-6-4-2-1-3-5-7-9-11-13-12/h1-11H2,(H,13,14)",
        "InChIKey": null,
        "Canonical SMILES": "O=C1NCCCCCCCCCCC1",
        "Molecular Formula": "C<sub>12</sub>H<sub>23</sub>NO",
        "Molecular Mass": "197.32",
        "Boiling Point": "193 °C @ Press: 0.10 Torr",
        "Melting Point": "150-153 °C"
    }
}