{
    "cas_no": "456-64-4",
    "key_name": "1,1,1-Trifluoro-<em>N</em>-phenylmethanesulfonamide",
    "cn_name": null,
    "alternate_name": "Methanesulfonamide, 1,1,1-trifluoro-<em>N</em>-phenyl-;Methanesulfonanilide, 1,1,1-trifluoro-;1,1,1-Trifluoro-<em>N</em>-phenylmethanesulfonamide;1,1,1-Trifluoromethanesulfonanilide;Trifluoromethanesulfonanilide;<em>N</em>-Phenyltriflamide;<em>N</em>-Phenyltrifluoromethanesulfonamide;Phenyltriflamide;<em>N</em>-Phenyl-1,1,1-trifluoromethanesulfonamide;<em>N</em>-Trifluoromethanesulfonylaniline",
    "duplicated_cas_no": "",
    "SMILES": "N(S(C(F)(F)F)(=O)=O)C1=CC=CC=C1",
    "meta_data": {
        "InChI": "InChI=1S/C7H6F3NO2S/c8-7(9,10)14(12,13)11-6-4-2-1-3-5-6/h1-5,11H",
        "InChIKey": null,
        "Canonical SMILES": "O=S(=O)(NC=1C=CC=CC1)C(F)(F)F",
        "Molecular Formula": "C<sub>7</sub>H<sub>6</sub>F<sub>3</sub>NO<sub>2</sub>S",
        "Molecular Mass": "225.19",
        "Melting Point": "65-66 °C"
    }
}