{
    "cas_no": "4130-42-1",
    "key_name": "2,6-Di-<em>tert</em>-butyl-4-ethylphenol",
    "cn_name": "2,6-二叔丁基-4-乙基苯酚;",
    "alternate_name": "Phenol, 2,6-bis(1,1-dimethylethyl)-4-ethyl-;Phenol, 2,6-di-<em>tert</em>-butyl-4-ethyl-;2,6-Bis(1,1-dimethylethyl)-4-ethylphenol;2,6-Di-<em>tert</em>-butyl-4-ethylphenol;Ionol 2;Yoshinox 250;4-Ethyl-2,6-di-<em>tert</em>-butylphenol;Nocrac M 17;Sandant 425;Noclizer M 17;NSC 14453;BHEB;DBEP;2,6-Di-<em>tert</em>-butyl-<em>p</em>-ethylphenol;2,6-Ditert-butyl-4-ethylphenol;Antioxidant 698",
    "duplicated_cas_no": "",
    "SMILES": "C(C)(C)(C)C1=C(O)C(C(C)(C)C)=CC(CC)=C1",
    "meta_data": {
        "InChI": "InChI=1S/C16H26O/c1-8-11-9-12(15(2,3)4)14(17)13(10-11)16(5,6)7/h9-10,17H,8H2,1-7H3",
        "InChIKey": null,
        "Canonical SMILES": "OC=1C(=CC(=CC1C(C)(C)C)CC)C(C)(C)C",
        "Molecular Formula": "C<sub>16</sub>H<sub>26</sub>O",
        "Molecular Mass": "234.38",
        "Boiling Point": "272 °C",
        "Melting Point": "44 °C"
    }
}