{
    "cas_no": "21913-98-4",
    "key_name": "3′-Methoxydaidzein",
    "cn_name": null,
    "alternate_name": "4<em>H</em>-1-Benzopyran-4-one, 7-hydroxy-3-(4-hydroxy-3-methoxyphenyl)-;Isoflavone, 4′,7-dihydroxy-3′-methoxy-;7-Hydroxy-3-(4-hydroxy-3-methoxyphenyl)-4<em>H</em>-1-benzopyran-4-one;4′,7-Dihydroxy-3′-methoxyisoflavone;3′-Methoxydaidzein;7,4′-Dihydroxy-3′-methoxyisoflavone",
    "duplicated_cas_no": "",
    "SMILES": "O=C1C(=COC=2C1=CC=C(O)C2)C3=CC(OC)=C(O)C=C3",
    "meta_data": {
        "InChI": "InChI=1S/C16H12O5/c1-20-15-6-9(2-5-13(15)18)12-8-21-14-7-10(17)3-4-11(14)16(12)19/h2-8,17-18H,1H3",
        "InChIKey": null,
        "Canonical SMILES": "O=C1C2=CC=C(O)C=C2OC=C1C=3C=CC(O)=C(OC)C3",
        "Molecular Formula": "C<sub>16</sub>H<sub>12</sub>O<sub>5</sub>",
        "Molecular Mass": "284.26",
        "Melting Point": "244-246 °C"
    }
}