{
    "cas_no": "2002-22-4",
    "key_name": "(α<em>S</em>)-α-Amino-2,3-dihydro-2-thioxo-1<em>H</em>-imidazole-4-propanoic acid",
    "cn_name": "2-硫代组氨酸;2-硫代组氨酸;",
    "alternate_name": "1<em>H</em>-Imidazole-4-propanoic acid, α-amino-2,3-dihydro-2-thioxo-, (α<em>S</em>)-;Histidine, 2-mercapto-, <span class=\"text-smallcaps\">L</span>-;1<em>H</em>-Imidazole-4-propanoic acid, α-amino-2,3-dihydro-2-thioxo-, (<em>S</em>)-;(α<em>S</em>)-α-Amino-2,3-dihydro-2-thioxo-1<em>H</em>-imidazole-4-propanoic acid;<span class=\"text-smallcaps\">L</span>-2-Mercaptohistidine;<span class=\"text-smallcaps\">L</span>-Thiohistidine;2-Mercapto-<span class=\"text-smallcaps\">L</span>-histidine;<span class=\"text-smallcaps\">L</span>-2-Thiolhistidine;<span class=\"text-smallcaps\">L</span>-2-Thioxohistidine;(2S)-2-Azaniumyl-3-(2-sulfanylidene-1,3-dihydroimidazol-4-yl)propanoate;(<em>S</em>)-2-Amino-3-(2-thioxo-2,3-dihydro-1<em>H</em>-imidazol-4-yl)propanoic acid;2-Mercaptohistidine",
    "duplicated_cas_no": "",
    "SMILES": "C([C@@H](C(O)=O)N)C1=CNC(=S)N1",
    "meta_data": {
        "InChI": "InChI=1S/C6H9N3O2S/c7-4(5(10)11)1-3-2-8-6(12)9-3/h2,4H,1,7H2,(H,10,11)(H2,8,9,12)/t4-/m0/s1",
        "InChIKey": null,
        "Canonical SMILES": "O=C(O)C(N)CC1=CNC(=S)N1",
        "Molecular Formula": "C<sub>6</sub>H<sub>9</sub>N<sub>3</sub>O<sub>2</sub>S",
        "Molecular Mass": "187.22",
        "Melting Point": "314 °C (decomp)"
    }
}