{
    "cas_no": "10043-52-4",
    "key_name": "Calcium chloride",
    "cn_name": "无水氯化钙;氯化钙;",
    "alternate_name": "Calcium chloride (CaCl<sub>2</sub>);Calcium chloride;Calcium dichloride;Calcosan;Liquidow;Stopit;U-Ramin MC;Calcium(2+) chloride;Daraccel;Dowflake;Peladow;Calol;Calzina oral;Bovikalc;Chrysoxel C 4;Calmate R;CalPlus;Intergravin-orales;Kalgan;Briners Choice;PRGF Endoret;MeSH ID: D002122",
    "duplicated_cas_no": "139468-93-2;2305917-51-3;3030961-88-4",
    "SMILES": "[Ca](Cl)Cl",
    "meta_data": {
        "InChI": "InChI=1S/Ca.2ClH/h;2*1H/q+2;;/p-2",
        "InChIKey": null,
        "Canonical SMILES": "Cl[Ca]Cl",
        "Molecular Formula": "CaCl<sub>2</sub>",
        "Molecular Mass": "",
        "Boiling Point": "1935 °C",
        "Melting Point": "772 °C",
        "Density": "2.152 g/cm³ @ Temp: 15 °C"
    }
}