{
    "cas_no": "5837-73-0",
    "key_name": "3-Butenoic acid, 2-hydroxy-, methyl ester",
    "cn_name": "DL-2-羟基-3-丁烯酸甲酯;",
    "alternate_name": "3-Butenoic acid, 2-hydroxy-, methyl ester;Methyl 2-hydroxy-3-butenoate;2-Hydroxy-3-butenoic acid methyl ester;Methyl vinylglycolate",
    "duplicated_cas_no": "",
    "SMILES": "C(C(OC)=O)(C=C)O",
    "meta_data": {
        "InChI": "InChI=1S/C5H8O3/c1-3-4(6)5(7)8-2/h3-4,6H,1H2,2H3",
        "InChIKey": null,
        "Canonical SMILES": "O=C(OC)C(O)C=C",
        "Molecular Formula": "C<sub>5</sub>H<sub>8</sub>O<sub>3</sub>",
        "Molecular Mass": "116.12",
        "Boiling Point": "82.5 °C @ Press: 15 Torr",
        "Density": "1.091 g/cm³ @ Temp: 20 °C"
    }
}