{
    "cas_no": "7369-69-9",
    "key_name": "4-Chloro-10<em>H</em>-phenothiazine",
    "cn_name": "4–氯吩噻嗪;",
    "alternate_name": "10<em>H</em>-Phenothiazine, 4-chloro-;Phenothiazine, 4-chloro-;4-Chloro-10<em>H</em>-phenothiazine;4-Chlorophenothiazine",
    "duplicated_cas_no": "",
    "SMILES": "ClC1=C2C(NC=3C(S2)=CC=CC3)=CC=C1",
    "meta_data": {
        "InChI": "InChI=1S/C12H8ClNS/c13-8-4-3-6-10-12(8)15-11-7-2-1-5-9(11)14-10/h1-7,14H",
        "InChIKey": null,
        "Canonical SMILES": "ClC1=CC=CC=2NC=3C=CC=CC3SC12",
        "Molecular Formula": "C<sub>12</sub>H<sub>8</sub>ClNS",
        "Molecular Mass": "233.72",
        "Melting Point": "116-117 °C"
    }
}