{
    "cas_no": "17420-30-3",
    "key_name": "2-Cyano-4-nitroaniline",
    "cn_name": "2-氰基-4-硝基苯胺;",
    "alternate_name": "Benzonitrile, 2-amino-5-nitro-;Anthranilonitrile, 5-nitro-;2-Amino-5-nitrobenzonitrile;2-Cyano-4-nitroaniline;5-Nitroanthranilonitrile;2-Cyano-5-nitroaniline;4-Nitro-2-cyanoaniline;<em>o</em>-Cyano-<em>p</em>-nitroaniline;5-Nitro-2-aminobenzonitrile",
    "duplicated_cas_no": "",
    "SMILES": "C(#N)C1=CC(N(=O)=O)=CC=C1N",
    "meta_data": {
        "InChI": "InChI=1S/C7H5N3O2/c8-4-5-3-6(10(11)12)1-2-7(5)9/h1-3H,9H2",
        "InChIKey": null,
        "Canonical SMILES": "N#CC1=CC(=CC=C1N)N(=O)=O",
        "Molecular Formula": "C<sub>7</sub>H<sub>5</sub>N<sub>3</sub>O<sub>2</sub>",
        "Molecular Mass": "163.13",
        "Melting Point": "209 °C"
    }
}