{
    "cas_no": "2245-38-7",
    "key_name": "2,3,5-Trimethylnaphthalene",
    "cn_name": "2,3,5-三甲基萘;",
    "alternate_name": "Naphthalene, 1,6,7-trimethyl-;1,6,7-Trimethylnaphthalene;2,3,5-Trimethylnaphthalene;NSC 89511",
    "duplicated_cas_no": "",
    "SMILES": "CC=1C2=C(C=C(C)C(C)=C2)C=CC1",
    "meta_data": {
        "InChI": "InChI=1S/C13H14/c1-9-5-4-6-12-7-10(2)11(3)8-13(9)12/h4-8H,1-3H3",
        "InChIKey": null,
        "Canonical SMILES": "C1=CC2=CC(=C(C=C2C(=C1)C)C)C",
        "Molecular Formula": "C<sub>13</sub>H<sub>14</sub>",
        "Molecular Mass": "170.25",
        "Boiling Point": "285 °C",
        "Melting Point": "25.3 °C"
    }
}