{
    "cas_no": "13455-00-0",
    "key_name": "Hypodiphosphorous tetraiodide",
    "cn_name": "四碘化二磷;",
    "alternate_name": "Hypodiphosphorous tetraiodide;Phosphorus iodide (P<sub>2</sub>I<sub>4</sub>);Phosphorous diiodide;Diphosphorus tetraiodide;Tetraiododiphosphine",
    "duplicated_cas_no": "",
    "SMILES": "P(P(I)I)(I)I",
    "meta_data": {
        "InChI": "InChI=1S/I4P2/c1-5(2)6(3)4",
        "InChIKey": null,
        "Canonical SMILES": "IP(I)P(I)I",
        "Molecular Formula": "I<sub>4</sub>P<sub>2</sub>",
        "Molecular Mass": "569.57",
        "Melting Point": "123-124 °C"
    }
}