{
    "cas_no": "56392-83-7",
    "key_name": "3-Chloro-6-(1-piperazinyl)pyridazine",
    "cn_name": null,
    "alternate_name": "Pyridazine, 3-chloro-6-(1-piperazinyl)-;3-Chloro-6-(1-piperazinyl)pyridazine;1-(6-Chloro-3-pyridazinyl)piperazine",
    "duplicated_cas_no": "",
    "SMILES": "ClC1=CC=C(N=N1)N2CCNCC2",
    "meta_data": {
        "InChI": "InChI=1S/C8H11ClN4/c9-7-1-2-8(12-11-7)13-5-3-10-4-6-13/h1-2,10H,3-6H2",
        "InChIKey": null,
        "Canonical SMILES": "ClC1=NN=C(C=C1)N2CCNCC2",
        "Molecular Formula": "C<sub>8</sub>H<sub>11</sub>ClN<sub>4</sub>",
        "Molecular Mass": "198.65",
        "Melting Point": "101-103 °C"
    }
}