{
    "cas_no": "10453-86-8",
    "key_name": "Resmethrin",
    "cn_name": null,
    "alternate_name": "Cyclopropanecarboxylic acid, 2,2-dimethyl-3-(2-methyl-1-propen-1-yl)-, [5-(phenylmethyl)-3-furanyl]methyl ester;Cyclopropanecarboxylic acid, 2,2-dimethyl-3-(2-methylpropenyl)-, (5-benzyl-3-furyl)methyl ester;Cyclopropanecarboxylic acid, 2,2-dimethyl-3-(2-methyl-1-propenyl)-, [5-(phenylmethyl)-3-furanyl]methyl ester;3-Furanmethanol, 5-benzyl-, 2,2-dimethyl-3-(2-methylpropenyl)cyclopropanecarboxylate;NIA 17370;NRDC 104;(5-Benzyl-3-furyl)methyl 2,2-dimethyl-3-(2-methylpropenyl)cyclopropanecarboxylate;(5-Benzyl-3-furyl)methyl-<span class=\"text-smallcaps\">DL</span>-<em>cis</em>, <em>trans</em>-chrysanthemate;5-Benzyl-3-furylmethyl (±)-<em>cis</em>-<em>trans</em>-chrysanthemate;Penick 1382;Resmethrin;<em>dl</em>-<em>cis</em>,<em>trans</em>-[(5-Benzyl-3-furyl)methyl]chrysanthemumate;SBP 1382;(5-Benzyl-3-furyl)methyl chrysanthemate;5-Benzylfurfuryl chrysanthemate;Chrysron;Penncapthrin;Pyresthrin;Crossfire;Enforcer;ARI-B;Seco;[5-(Phenylmethyl)-3-furanyl]methyl 2,2-dimethyl-3-(2-methyl-1-propenyl)cyclopropanecarboxylate;SBP 1383;Enforcer (insecticide);2,2-Dimethyl-3-(2-methyl-propenyl)-cyclopropanecarboxylic acid 5-benzyl-furan-3-ylmethyl ester;S 3252",
    "duplicated_cas_no": "24004-07-7",
    "SMILES": "C(=C(C)C)C1C(C(OCC=2C=C(CC3=CC=CC=C3)OC2)=O)C1(C)C",
    "meta_data": {
        "InChI": "InChI=1S/C22H26O3/c1-15(2)10-19-20(22(19,3)4)21(23)25-14-17-12-18(24-13-17)11-16-8-6-5-7-9-16/h5-10,12-13,19-20H,11,14H2,1-4H3",
        "InChIKey": null,
        "Canonical SMILES": "O=C(OCC1=COC(=C1)CC=2C=CC=CC2)C3C(C=C(C)C)C3(C)C",
        "Molecular Formula": "C<sub>22</sub>H<sub>26</sub>O<sub>3</sub>",
        "Molecular Mass": "338.44",
        "Boiling Point": "174 °C",
        "Melting Point": "43-48 °C",
        "Density": "0.958-0.968 g/cm³ @ Temp: 20 °C"
    }
}