{
    "cas_no": "58479-61-1",
    "key_name": "<em>tert</em>-Butyldiphenylsilyl chloride",
    "cn_name": "叔丁基二苯基氯硅烷;",
    "alternate_name": "Benzene, 1,1′-[chloro(1,1-dimethylethyl)silylene]bis-;Silane, chloro(1,1-dimethylethyl)diphenyl-;1,1′-[Chloro(1,1-dimethylethyl)silylene]bis[benzene];<em>tert</em>-Butylchlorodiphenylsilane;<em>tert</em>-Butyldiphenylchlorosilane;<em>tert</em>-Butyldiphenylsilyl chloride;Diphenyl-<em>tert</em>-butylsilyl chloride;<em>t</em>-Butyldiphenylchlorosilane;Chlorodiphenyl-<em>tert</em>-butylsilane;t-Butyldiphenylchlorosilane;Chloro(1,1-dimethylethyl)diphenylsilane;NSC 617386;(1,1-Dimethylethyl)diphenylsilyl chloride;(Chloro)(<em>tert</em>-butyl)diphenylsilane;TBDPSCl;t-Butylchlorodiphenylsilane;TDBPSCl;<em>tert</em>-Butylchlorodiphenyl siliane",
    "duplicated_cas_no": "1401972-84-6;1629388-51-7",
    "SMILES": "[Si](C(C)(C)C)(Cl)(C1=CC=CC=C1)C2=CC=CC=C2",
    "meta_data": {
        "InChI": "InChI=1S/C16H19ClSi/c1-16(2,3)18(17,14-10-6-4-7-11-14)15-12-8-5-9-13-15/h4-13H,1-3H3",
        "InChIKey": null,
        "Canonical SMILES": "Cl[Si](C=1C=CC=CC1)(C=2C=CC=CC2)C(C)(C)C",
        "Molecular Formula": "C<sub>16</sub>H<sub>19</sub>ClSi",
        "Molecular Mass": "274.86",
        "Boiling Point": "90 °C @ Press: 0.015 Torr",
        "Density": "1.074 g/cm³"
    }
}