{
    "cas_no": "481-29-8",
    "key_name": "Epiandrosterone",
    "cn_name": "表雄酮;",
    "alternate_name": "Androstan-17-one, 3-hydroxy-, (3β,5α)-;5α-Androstan-17-one, 3β-hydroxy-;(3β,5α)-3-Hydroxyandrostan-17-one;<em>epi</em>-Androsterone;<em>trans</em>-Androsterone;3β-Androsterone;Epiandrosterone;<em>d</em>-Epiandrosterone;3β-Hydroxy-5α-androstan-17-one;3β-Hydroxyetioallocholan-17-one;3β-Hydroxy-17-oxo-5α-androstane;Isoandrosterone;5α-Androstan-3β-ol-17-one;3-Epiandrosterone;3β-Hydroxy-5α-androstane-17-one;Androsterone, <em>trans</em>-;Androsterone, <em>epi</em>-;<em>iso</em>-Androsterone;3β-OH-5α-Androstane-17-one;5α-Androstane-3β-ol-17-one;3β-Hydroxyandrostan-17-one;NSC 93996;5α-Androstan-17-one-3β-ol",
    "duplicated_cas_no": "3026180-17-3",
    "SMILES": "C[C@@]12[C@@]3([C@]([C@]4([C@](C)(CC3)C(=O)CC4)[H])(CC[C@]1(C[C@@H](O)CC2)[H])[H])[H]",
    "meta_data": {
        "InChI": "InChI=1S/C19H30O2/c1-18-9-7-13(20)11-12(18)3-4-14-15-5-6-17(21)19(15,2)10-8-16(14)18/h12-16,20H,3-11H2,1-2H3/t12-,13-,14-,15-,16-,18-,19-/m0/s1",
        "InChIKey": null,
        "Canonical SMILES": "O=C1CCC2C3CCC4CC(O)CCC4(C)C3CCC12C",
        "Molecular Formula": "C<sub>19</sub>H<sub>30</sub>O<sub>2</sub>",
        "Molecular Mass": "290.44",
        "Melting Point": "178 °C"
    }
}