{
    "cas_no": "636582-62-2",
    "key_name": "Mosapride citrate dihydrate",
    "cn_name": null,
    "alternate_name": "Benzamide, 4-amino-5-chloro-2-ethoxy-<em>N</em>-[[4-[(4-fluorophenyl)methyl]-2-morpholinyl]methyl]-, 2-hydroxy-1,2,3-propanetricarboxylate, hydrate (1:1:2);Benzamide, 4-amino-5-chloro-2-ethoxy-<em>N</em>-[[4-[(4-fluorophenyl)methyl]-2-morpholinyl]methyl]-, 2-hydroxy-1,2,3-propanetricarboxylate (1:1), dihydrate;Mosapride citrate dihydrate",
    "duplicated_cas_no": "",
    "SMILES": "C(NCC1CN(CC2=CC=C(F)C=C2)CCO1)(=O)C3=C(OCC)C=C(N)C(Cl)=C3.C(CC(O)=O)(CC(O)=O)(C(O)=O)O.O",
    "meta_data": {
        "InChI": "InChI=1S/C21H25ClFN3O3.C6H8O7.H2O/c1-2-28-20-10-19(24)18(22)9-17(20)21(27)25-11-16-13-26(7-8-29-16)12-14-3-5-15(23)6-4-14;7-3(8)1-6(13,5(11)12)2-4(9)10;/h3-6,9-10,16H,2,7-8,11-13,24H2,1H3,(H,25,27);13H,1-2H2,(H,7,8)(H,9,10)(H,11,12);1H2",
        "InChIKey": null,
        "Canonical SMILES": "O=C(O)CC(O)(C(=O)O)CC(=O)O.O=C(NCC1OCCN(CC2=CC=C(F)C=C2)C1)C=3C=C(Cl)C(N)=CC3OCC.O",
        "Molecular Formula": "C<sub>21</sub>H<sub>25</sub>ClFN<sub>3</sub>O<sub>3</sub>.C<sub>6</sub>H<sub>8</sub>O<sub>7</sub>.2H<sub>2</sub>O",
        "Molecular Mass": "",
        "Melting Point": "110-113 °C"
    }
}