{
    "cas_no": "97-52-9",
    "key_name": "2-Methoxy-4-nitroaniline",
    "cn_name": "2-甲氧基-4-硝基苯胺;",
    "alternate_name": "Benzenamine, 2-methoxy-4-nitro-;<em>o</em>-Anisidine, 4-nitro-;Fast Red B Base;2-Methoxy-4-nitrobenzenamine;C.I. 37125;Amarthol Fast Red B Base;Azoene Fast Red B Base;Brentamine Fast Red B Base;Dainichi Fast Red B Base;Daito Red Base B;Devol Red E;Diabase Red B;Fast Red Base B;Fast Red 5NA Base;Hiltonil Fast Red B Base;Kako Red B Base;Kayaku Red B Base;Mitsui Red B Base;Naphthanil Red B Base;Naphtoelan Red B Base;PNOA;Red B Base;Red Base Ciba V;Red Base Irga V;Red Base NB;Sanyo Fast Red B Base;Shinnippon Fast Red B Base;Showa Fast Red B Base;Symulon Red B Base;2-Methoxy-4-nitroaniline;4-Amino-3-methoxynitrobenzene;1-Amino-2-methoxy-4-nitrobenzene;2-Amino-5-nitroanisole;4-Nitro-<em>o</em>-anisidine;4-Nitro-6-methoxyaniline;Azoamine Pink O;<em>p</em>-Nitro-<em>o</em>-anisidine;2-Amino-1-methoxy-5-nitrobenzene;Fast Red B-T Base;3-Nitro-6-aminoanisole;3-Methoxy-4-aminonitrobenzene;4-Nitro-2-methoxyaniline;NSC 4130;<em>o</em>-Methoxy-<em>p</em>-nitroaniline",
    "duplicated_cas_no": "",
    "SMILES": "O(C)C1=CC(N(=O)=O)=CC=C1N",
    "meta_data": {
        "InChI": "InChI=1S/C7H8N2O3/c1-12-7-4-5(9(10)11)2-3-6(7)8/h2-4H,8H2,1H3",
        "InChIKey": null,
        "Canonical SMILES": "O=N(=O)C1=CC=C(N)C(OC)=C1",
        "Molecular Formula": "C<sub>7</sub>H<sub>8</sub>N<sub>2</sub>O<sub>3</sub>",
        "Molecular Mass": "168.15",
        "Melting Point": "136-139 °C",
        "Density": "1.454 g/cm³ (solid)"
    }
}