{
    "cas_no": "422-64-0",
    "key_name": "Pentafluoropropionic acid",
    "cn_name": "五氟丙酸;全氟丙酸;",
    "alternate_name": "Propanoic acid, 2,2,3,3,3-pentafluoro-;Propionic acid, pentafluoro-;Propanoic acid, pentafluoro-;2,2,3,3,3-Pentafluoropropanoic acid;Perfluoropropionic acid;Pentafluoropropionic acid;Pentafluoropropanoic acid;Perfluoropropanoic acid;2,2,3,3,3-Pentafluoropropionic acid",
    "duplicated_cas_no": "",
    "SMILES": "C(C(F)(F)F)(C(O)=O)(F)F",
    "meta_data": {
        "InChI": "InChI=1S/C3HF5O2/c4-2(5,1(9)10)3(6,7)8/h(H,9,10)",
        "InChIKey": null,
        "Canonical SMILES": "O=C(O)C(F)(F)C(F)(F)F",
        "Molecular Formula": "C<sub>3</sub>HF<sub>5</sub>O<sub>2</sub>",
        "Molecular Mass": "164.03",
        "Boiling Point": "96.5 °C",
        "Density": "1.561 g/cm³ @ Temp: 20 °C"
    }
}