{
    "cas_no": "20198-19-0",
    "key_name": "2-Amino-4(1<em>H</em>)-quinazolinone",
    "cn_name": null,
    "alternate_name": "4(1<em>H</em>)-Quinazolinone, 2-amino-;4(3<em>H</em>)-Quinazolinone, 2-amino-;4-Quinazolinol, 2-amino-;4(1<em>H</em>)-Quinazolinone, 2,3-dihydro-2-imino-;2-Amino-4(1<em>H</em>)-quinazolinone;2-Amino-4-quinazolinone;2-Amino-4-hydroxyquinazoline;2-Amino-4-quinazolone;2-Amino-4(3<em>H</em>)-quinazolinone;5,8-dideazapterin;NSC 174024;NSC 51782;2-Amino-1<em>H</em>-quinazolin-4-one;2-Amino-3,4-dihydroquinazolin-4-one;2-Amino-3<em>H</em>-quinazolin-4-one;2-Aminoquinazolin-4-ol",
    "duplicated_cas_no": "100643-18-3;1791-46-4",
    "SMILES": "O=C1C=2C(NC(N)=N1)=CC=CC2",
    "meta_data": {
        "InChI": "InChI=1S/C8H7N3O/c9-8-10-6-4-2-1-3-5(6)7(12)11-8/h1-4H,(H3,9,10,11,12)",
        "InChIKey": null,
        "Canonical SMILES": "O=C1N=C(N)NC=2C=CC=CC12",
        "Molecular Formula": "C<sub>8</sub>H<sub>7</sub>N<sub>3</sub>O",
        "Molecular Mass": "161.16",
        "Melting Point": "315 °C (decomp)"
    }
}