{
    "cas_no": "143878-29-9",
    "key_name": "7-Benzofurancarboxylic acid, 4-(acetylamino)-5-chloro-2,3-dihydro-, methyl ester",
    "cn_name": null,
    "alternate_name": "7-Benzofurancarboxylic acid, 4-(acetylamino)-5-chloro-2,3-dihydro-, methyl ester;Methyl 4-(acetylamino)-5-chloro-2,3-dihydrobenzofuran-7-carboxylate",
    "duplicated_cas_no": "",
    "SMILES": "N(C(C)=O)C1=C2C(=C(C(OC)=O)C=C1Cl)OCC2",
    "meta_data": {
        "InChI": "InChI=1S/C12H12ClNO4/c1-6(15)14-10-7-3-4-18-11(7)8(5-9(10)13)12(16)17-2/h5H,3-4H2,1-2H3,(H,14,15)",
        "InChIKey": null,
        "Canonical SMILES": "O=C(OC)C1=CC(Cl)=C(NC(=O)C)C2=C1OCC2",
        "Molecular Formula": "C<sub>12</sub>H<sub>12</sub>ClNO<sub>4</sub>",
        "Molecular Mass": "269.68",
        "Melting Point": "245-247 °C"
    }
}