{
    "cas_no": "7463-31-2",
    "key_name": "<em>N</em>-(3-Acetylphenyl)acetamide",
    "cn_name": "3-乙酰胺基苯乙酮;",
    "alternate_name": "Acetamide, <em>N</em>-(3-acetylphenyl)-;Acetanilide, 3′-acetyl-;<em>N</em>-(3-Acetylphenyl)acetamide;3′-Acetamidoacetophenone;3′-(Acetylamino)acetophenone;1-[3-(Acetylamino)phenyl]ethanone;3′-Acetylacetanilide;<em>m</em>-Acetamidoacetophenone;3-Acetamidoacetophenone;NSC 404340;3-Acetylacetanilide",
    "duplicated_cas_no": "",
    "SMILES": "N(C(C)=O)C1=CC(C(C)=O)=CC=C1",
    "meta_data": {
        "InChI": "InChI=1S/C10H11NO2/c1-7(12)9-4-3-5-10(6-9)11-8(2)13/h3-6H,1-2H3,(H,11,13)",
        "InChIKey": null,
        "Canonical SMILES": "O=C(NC1=CC=CC(=C1)C(=O)C)C",
        "Molecular Formula": "C<sub>10</sub>H<sub>11</sub>NO<sub>2</sub>",
        "Molecular Mass": "177.20",
        "Melting Point": "127-128 °C"
    }
}