{
    "cas_no": "18662-53-8",
    "key_name": "Trisodium nitrilotriacetate monohydrate",
    "cn_name": null,
    "alternate_name": "Glycine, <em>N</em>,<em>N</em>-bis(carboxymethyl)-, sodium salt, hydrate (1:3:1);Acetic acid, nitrilotri-, trisodium salt, monohydrate;Glycine, <em>N</em>,<em>N</em>-bis(carboxymethyl)-, trisodium salt, monohydrate;Trisodium nitrilotriacetate monohydrate;Nitrilotriacetic acid trisodium salt monohydrate",
    "duplicated_cas_no": "",
    "SMILES": "N(CC(O)=O)(CC(O)=O)CC(O)=O.[Na].O",
    "meta_data": {
        "InChI": "InChI=1S/C6H9NO6.3Na.H2O/c8-4(9)1-7(2-5(10)11)3-6(12)13;;;;/h1-3H2,(H,8,9)(H,10,11)(H,12,13);;;;1H2",
        "InChIKey": null,
        "Canonical SMILES": "[Na].O=C(O)CN(CC(=O)O)CC(=O)O.O",
        "Molecular Formula": "C<sub>6</sub>H<sub>9</sub>NO<sub>6</sub>.H<sub>2</sub>O.3Na",
        "Molecular Mass": "",
        "Melting Point": "340 °C (decomp)"
    }
}