{
    "cas_no": "315-72-0",
    "key_name": "Opipramol",
    "cn_name": "奥匹哌醇;息顿;羟乙哌卓;脱氢哔咪嗪;",
    "alternate_name": "1-Piperazineethanol, 4-[3-(5<em>H</em>-dibenz[<em>b</em>,<em>f</em>]azepin-5-yl)propyl]-;4-[3-(5<em>H</em>-Dibenz[<em>b</em>,<em>f</em>]azepin-5-yl)propyl]-1-piperazineethanol;5<em>H</em>-Dibenz[<em>b</em>,<em>f</em>]azepine, 1-piperazineethanol deriv.;G 33040;GR 33040;Endison;Opipramol;Opipramol G;Opramidol;<em>N</em>-[3-[4-(2-Hydroxyethyl)piperazino]propyl]iminostilbene;NSC 169867;MeSH ID: D009888",
    "duplicated_cas_no": "",
    "SMILES": "C(CCN1CCN(CCO)CC1)N2C=3C(C=CC=4C2=CC=CC4)=CC=CC3",
    "meta_data": {
        "InChI": "InChI=1S/C23H29N3O/c27-19-18-25-16-14-24(15-17-25)12-5-13-26-22-8-3-1-6-20(22)10-11-21-7-2-4-9-23(21)26/h1-4,6-11,27H,5,12-19H2",
        "InChIKey": null,
        "Canonical SMILES": "OCCN1CCN(CC1)CCCN2C=3C=CC=CC3C=CC=4C=CC=CC42",
        "Molecular Formula": "C<sub>23</sub>H<sub>29</sub>N<sub>3</sub>O",
        "Molecular Mass": "363.50",
        "Melting Point": "100.5 °C"
    }
}