{
    "cas_no": "27063-48-5",
    "key_name": "Bicyclo[2.2.1]hept-5-ene-2-carbonyl chloride",
    "cn_name": null,
    "alternate_name": "Bicyclo[2.2.1]hept-5-ene-2-carbonyl chloride;5-Norbornene-2-carbonyl chloride;2-Norbornene-5-carbonyl chloride;5-Chloroformylbicyclo[2.2.1]hept-2-ene;5-Chloroformylnorbornene;2-Norbornene-5-carboxylic acid chloride;NSC 91503;(5-Bicyclo[2.2.1]hept-5-en-2-yl)carbonyl chloride;5-Norbornene-2-formyl chloride",
    "duplicated_cas_no": "193277-14-4",
    "SMILES": "C(Cl)(=O)C1C2CC(C1)C=C2",
    "meta_data": {
        "InChI": "InChI=1S/C8H9ClO/c9-8(10)7-4-5-1-2-6(7)3-5/h1-2,5-7H,3-4H2",
        "InChIKey": null,
        "Canonical SMILES": "O=C(Cl)C1CC2C=CC1C2",
        "Molecular Formula": "C<sub>8</sub>H<sub>9</sub>ClO",
        "Molecular Mass": "156.61",
        "Boiling Point": "79-81 °C @ Press: 12 Torr"
    }
}