{
    "cas_no": "77168-63-9",
    "key_name": "4-(4-Pyridinyl)-2(3<em>H</em>)-thiazolethione",
    "cn_name": "2-巯基-4-(4-吡啶基)噻唑;",
    "alternate_name": "2(3<em>H</em>)-Thiazolethione, 4-(4-pyridinyl)-;4-(4-Pyridinyl)-2(3<em>H</em>)-thiazolethione;4-(Pyridin-4-yl)thiazole-2-thiol;4-(Pyridin-4-yl)-1,3-thiazole-2-thiol",
    "duplicated_cas_no": "",
    "SMILES": "S=C1NC(=CS1)C=2C=CN=CC2",
    "meta_data": {
        "InChI": "InChI=1S/C8H6N2S2/c11-8-10-7(5-12-8)6-1-3-9-4-2-6/h1-5H,(H,10,11)",
        "InChIKey": null,
        "Canonical SMILES": "S=C1SC=C(N1)C=2C=CN=CC2",
        "Molecular Formula": "C<sub>8</sub>H<sub>6</sub>N<sub>2</sub>S<sub>2</sub>",
        "Molecular Mass": "194.28",
        "Melting Point": "280 °C"
    }
}