{
    "cas_no": "4333-62-4",
    "key_name": "1,3-Dimethylimidazolium iodide",
    "cn_name": null,
    "alternate_name": "1<em>H</em>-Imidazolium, 1,3-dimethyl-, iodide (1:1);Imidazolium, 1,3-dimethyl-, iodide;1<em>H</em>-Imidazolium, 1,3-dimethyl-, iodide;1,3-Dimethylimidazolium iodide;1-Methylimidazole methiodide;<em>N</em>,<em>N</em>′-Dimethylimidazolium iodide;1,3-Dimethyl-1<em>H</em>-imidazolium iodide;1-Methyl-3-methylimidazolium iodide",
    "duplicated_cas_no": "2100300-81-8",
    "SMILES": "C[N+]1=CN(C)C=C1.[I-]",
    "meta_data": {
        "InChI": "InChI=1S/C5H9N2.HI/c1-6-3-4-7(2)5-6;/h3-5H,1-2H3;1H/q+1;/p-1",
        "InChIKey": null,
        "Canonical SMILES": "[I-].C1=C[N+](=CN1C)C",
        "Molecular Formula": "C<sub>5</sub>H<sub>9</sub>N<sub>2</sub>.I",
        "Molecular Mass": "",
        "Melting Point": "78-80 °C"
    }
}