{
    "cas_no": "54-47-7",
    "key_name": "Pyridoxal 5′-phosphate",
    "cn_name": "磷酸吡哆醛;吡多醛-5-磷酸酯;3-羟基-2-甲基-5-[(磷酰氧基)甲基]-4-吡啶甲醛;",
    "alternate_name": "4-Pyridinecarboxaldehyde, 3-hydroxy-2-methyl-5-[(phosphonooxy)methyl]-;Pyridoxal, 5-(dihydrogen phosphate);Pyridoxal phosphate;3-Hydroxy-2-methyl-5-[(phosphonooxy)methyl]-4-pyridinecarboxaldehyde;Codecarboxylase;2-Methyl-3-hydroxy-4-formyl-5-pyridylmethylphosphoric acid;Phosphopyridoxal;Phosphopyridoxal coenzyme;PLP;Pyridoxal 5-phosphate;Pyridoxal 5′-phosphate;Vitamin B<sub>6</sub> phosphate (ester);Pyridoxaldehyde phosphate;Pyridoxal P;PAL-P;Pyridoxal monophosphate;Pyridoxal 5-monophosphoric acid ester;3-Hydroxy-5-(hydroxymethyl)-2-methylisonicotinaldehyde 5-phosphate;Pyromijin;Sechvitan;Vitazechs;Pyridoxyl phosphate;Apolon B<sub>6</sub>;Hairoxal;Hiadelon;Biosechs;Hi-Pyridoxin;Vitahexin P;Piodel;Pydoxal;Hexermin P;Coenzyme B<sub>6</sub>;Vitamin B<sub>6</sub> phosphate;NSC 82388;[(4-Formyl-5-hydroxy-6-methylpyridin-3-yl)methoxy]phosphonic acid;(4-Formyl-5-hydroxy-6-methylpyridin-3-yl)methyl dihydrogen phosphate;MeSH ID: D011732",
    "duplicated_cas_no": "52064-48-9;52441-27-7;1071665-72-9",
    "SMILES": "C(OP(=O)(O)O)C=1C(C=O)=C(O)C(C)=NC1",
    "meta_data": {
        "InChI": "InChI=1S/C8H10NO6P/c1-5-8(11)7(3-10)6(2-9-5)4-15-16(12,13)14/h2-3,11H,4H2,1H3,(H2,12,13,14)",
        "InChIKey": null,
        "Canonical SMILES": "O=CC1=C(O)C(=NC=C1COP(=O)(O)O)C",
        "Molecular Formula": "C<sub>8</sub>H<sub>10</sub>NO<sub>6</sub>P",
        "Molecular Mass": "247.14",
        "Melting Point": "255 °C"
    }
}