{
    "cas_no": "597-35-3",
    "key_name": "Ethyl sulfone",
    "cn_name": "二乙基砜 [597-35-3];二乙基砜;",
    "alternate_name": "Ethane, 1,1′-sulfonylbis-;Ethyl sulfone;1,1′-Sulfonylbis[ethane];Diethyl sulfone;NSC 145719;(Ethylsulfonyl)ethane;1-Ethylsulfonyl-ethane;(Ethanesulfonyl)ethane",
    "duplicated_cas_no": "",
    "SMILES": "S(CC)(CC)(=O)=O",
    "meta_data": {
        "InChI": "InChI=1S/C4H10O2S/c1-3-7(5,6)4-2/h3-4H2,1-2H3",
        "InChIKey": null,
        "Canonical SMILES": "O=S(=O)(CC)CC",
        "Molecular Formula": "C<sub>4</sub>H<sub>10</sub>O<sub>2</sub>S",
        "Molecular Mass": "122.19",
        "Boiling Point": "248 °C",
        "Melting Point": "73.5 °C",
        "Density": "1.3035 g/cm³ @ Temp: 20 °C"
    }
}