{
    "cas_no": "10397-58-7",
    "key_name": "4-Methoxy-3-nitrobenzamide",
    "cn_name": "4-甲氧基-3-硝基苯甲酰胺;",
    "alternate_name": "Benzamide, 4-methoxy-3-nitro-;<em>p</em>-Anisamide, 3-nitro-;4-Methoxy-3-nitrobenzamide;3-Nitro-<em>p</em>-anisamide",
    "duplicated_cas_no": "",
    "SMILES": "N(=O)(=O)C1=C(OC)C=CC(C(N)=O)=C1",
    "meta_data": {
        "InChI": "InChI=1S/C8H8N2O4/c1-14-7-3-2-5(8(9)11)4-6(7)10(12)13/h2-4H,1H3,(H2,9,11)",
        "InChIKey": null,
        "Canonical SMILES": "O=C(N)C1=CC=C(OC)C(=C1)N(=O)=O",
        "Molecular Formula": "C<sub>8</sub>H<sub>8</sub>N<sub>2</sub>O<sub>4</sub>",
        "Molecular Mass": "196.16",
        "Melting Point": "117 °C"
    }
}