{
    "cas_no": "5471-55-6",
    "key_name": "Cyclohexaneethanamine, hydrochloride (1:1)",
    "cn_name": "1,1,1-三氯乙烷;",
    "alternate_name": "Cyclohexaneethanamine, hydrochloride (1:1);Cyclohexaneethanamine, hydrochloride;Cyclohexaneethylamine, hydrochloride;(2-Aminoethyl)cyclohexane hydrochloride;2-(Cyclohexyl)ethylamine hydrochloride;2-Cyclohexylethanamine hydrochloride;2-Cyclohexylethan-1-amine hydrochloride",
    "duplicated_cas_no": "",
    "SMILES": "C(CN)C1CCCCC1.Cl",
    "meta_data": {
        "InChI": "InChI=1S/C8H17N.ClH/c9-7-6-8-4-2-1-3-5-8;/h8H,1-7,9H2;1H",
        "InChIKey": null,
        "Canonical SMILES": "Cl.NCCC1CCCCC1",
        "Molecular Formula": "C<sub>8</sub>H<sub>17</sub>N.ClH",
        "Molecular Mass": "",
        "Melting Point": "230 °C"
    }
}