{
    "cas_no": "40497-30-1",
    "key_name": "2-Methyl-4,6-pyrimidinedione",
    "cn_name": "4,6-二羟基-2-甲基嘧啶;2-甲基-4,6-二羟基嘧啶;",
    "alternate_name": "4,6(1<em>H</em>,5<em>H</em>)-Pyrimidinedione, 2-methyl-;2-Methyl-4,6(1<em>H</em>,5<em>H</em>)-pyrimidinedione;2-Methyl-4,6-pyrimidinedione;2-Methylpyrimidin-4,6(3<em>H</em>,5<em>H</em>)-dione;2-Methyl-1<em>H</em>-pyrimidine-4,6-dione",
    "duplicated_cas_no": "",
    "SMILES": "O=C1CC(=O)N=C(C)N1",
    "meta_data": {
        "InChI": "InChI=1S/C5H6N2O2/c1-3-6-4(8)2-5(9)7-3/h2H2,1H3,(H,6,7,8,9)",
        "InChIKey": null,
        "Canonical SMILES": "O=C1N=C(NC(=O)C1)C",
        "Molecular Formula": "C<sub>5</sub>H<sub>6</sub>N<sub>2</sub>O<sub>2</sub>",
        "Molecular Mass": "126.11",
        "Melting Point": "46-48 °C"
    }
}