{
    "cas_no": "72826-63-2",
    "key_name": "Deoxyartemisinin",
    "cn_name": null,
    "alternate_name": "10a<em>H</em>-9,10b-Epoxypyrano[4,3,2-<em>jk</em>][2]benzoxepin-2(3<em>H</em>)-one, octahydro-3,6,9-trimethyl-, (3<em>R</em>,3a<em>S</em>,6<em>R</em>,6a<em>S</em>,9<em>S</em>,10a<em>S</em>,10b<em>R</em>)-;10a<em>H</em>-9,10b-Epoxypyrano[4,3,2-<em>jk</em>][2]benzoxepin-2(3<em>H</em>)-one, octahydro-3,6,9-trimethyl-, [3<em>R</em>-(3α,3aβ,6β,6aβ,9β,10aα,10bβ)]-;(3<em>R</em>,3a<em>S</em>,6<em>R</em>,6a<em>S</em>,9<em>S</em>,10a<em>S</em>,10b<em>R</em>)-Octahydro-3,6,9-trimethyl-10a<em>H</em>-9,10b-epoxypyrano[4,3,2-<em>jk</em>][2]benzoxepin-2(3<em>H</em>)-one;Hydroarteannuin;Qing Hau Sau III;Deoxyarteannuin;Deoxyartemisinin;Desoxyartemisinin;Deoxyqinghaosu;Qinghaosu III;2-Deoxyartemisinin;2-Desoxyartemisinin",
    "duplicated_cas_no": "1332644-14-0",
    "SMILES": "C[C@@H]1[C@]2([C@]34[C@@](O[C@](C)(O3)CC[C@]4([C@H](C)CC2)[H])(OC1=O)[H])[H]",
    "meta_data": {
        "InChI": "InChI=1S/C15H22O4/c1-8-4-5-11-9(2)12(16)17-13-15(11)10(8)6-7-14(3,18-13)19-15/h8-11,13H,4-7H2,1-3H3/t8-,9-,10+,11+,13-,14-,15-/m1/s1",
        "InChIKey": null,
        "Canonical SMILES": "O=C1OC2OC3(OC24C(CCC(C)C4CC3)C1C)C",
        "Molecular Formula": "C<sub>15</sub>H<sub>22</sub>O<sub>4</sub>",
        "Molecular Mass": "266.33",
        "Melting Point": "107-108 °C"
    }
}