{
    "cas_no": "25611-78-3",
    "key_name": "1,2-Diphenylethylamine",
    "cn_name": "1-氨基-1,2-二乙基苯;",
    "alternate_name": "Benzeneethanamine, α-phenyl-;Ethylamine, 1,2-diphenyl-;α-Phenylbenzeneethanamine;Ethanamine, 1,2-diphenyl-;1,2-Diphenylethylamine;α-Benzylbenzylamine;1-Amino-1,2-diphenylethane;(±)-α-Phenylphenethylamine;<em>dl</em>-α-Benzylbenzylamine;(±)-α,β-Diphenylethylamine;<span class=\"text-smallcaps\">DL</span>-1,2-Diphenylethylamine;(±)-1,2-Diphenylethylamine;1,2-Diphenethylamine;1,2-Diphenylethanamine;1,2-Diphenylethan-1-amine",
    "duplicated_cas_no": "30275-31-1;35373-59-2",
    "SMILES": "C(CC1=CC=CC=C1)(N)C2=CC=CC=C2",
    "meta_data": {
        "InChI": "InChI=1S/C14H15N/c15-14(13-9-5-2-6-10-13)11-12-7-3-1-4-8-12/h1-10,14H,11,15H2",
        "InChIKey": null,
        "Canonical SMILES": "NC(C=1C=CC=CC1)CC=2C=CC=CC2",
        "Molecular Formula": "C<sub>14</sub>H<sub>15</sub>N",
        "Molecular Mass": "197.28",
        "Boiling Point": "311 °C",
        "Melting Point": "248-250 °C"
    }
}