{
    "cas_no": "835-31-4",
    "key_name": "Naphazoline",
    "cn_name": "萘甲唑林;萘甲唑啉;2-(1-萘甲基)-4,5-二氢-1H-咪唑;",
    "alternate_name": "1<em>H</em>-Imidazole, 4,5-dihydro-2-(1-naphthalenylmethyl)-;Naphazoline;2-Imidazoline, 2-(1-naphthylmethyl)-;4,5-Dihydro-2-(1-naphthalenylmethyl)-1<em>H</em>-imidazole;Antan;Naphthizine;2-(1-Naphthylmethyl)-2-imidazoline;Rhinazine;Imidin;Naphthazoline;Colirio Alfa;Euboral Oftalmico;2-(1-Naphthalenylmethyl)-2-imidazoline;Antigaimorit;Nephazoline;2-(Naphthalen-1-ylmethyl)-4,5-dihydro-1<em>H</em>-imidazole;2-[(Naphthalen-1-yl)methyl]-4,5-dihydro-1<em>H</em>-imidazole;MeSH ID: D009278",
    "duplicated_cas_no": "",
    "SMILES": "C(C=1C2=C(C=CC1)C=CC=C2)C=3NCCN3",
    "meta_data": {
        "InChI": "InChI=1S/C14H14N2/c1-2-7-13-11(4-1)5-3-6-12(13)10-14-15-8-9-16-14/h1-7H,8-10H2,(H,15,16)",
        "InChIKey": null,
        "Canonical SMILES": "N1=C(NCC1)CC2=CC=CC=3C=CC=CC32",
        "Molecular Formula": "C<sub>14</sub>H<sub>14</sub>N<sub>2</sub>",
        "Molecular Mass": "210.27",
        "Boiling Point": "120-140 °C @ Press: 4 Torr",
        "Melting Point": "119 °C"
    }
}