{
    "cas_no": "17722-17-7",
    "key_name": "<em>N</em>-(4-Chlorophenyl)-2-cyanoacetamide",
    "cn_name": "4-氯-2-氰基乙酰苯胺;",
    "alternate_name": "Acetamide, <em>N</em>-(4-chlorophenyl)-2-cyano-;Acetanilide, 4′-chloro-2-cyano-;<em>N</em>-(4-Chlorophenyl)-2-cyanoacetamide;4′-Chloro-2-cyanoacetanilide;Cyanoacetic acid <em>p</em>-chloroanilide;<em>N</em>-(4-Chlorophenyl)-α-cyanoacetamide;<em>p</em>-Chlorocyanoacetanilide;<em>N</em>-(4-Chlorophenyl)cyanoacetamide;2-Cyano-<em>N</em>-(4-chlorophenyl)-acetamide",
    "duplicated_cas_no": "",
    "SMILES": "N(C(CC#N)=O)C1=CC=C(Cl)C=C1",
    "meta_data": {
        "InChI": "InChI=1S/C9H7ClN2O/c10-7-1-3-8(4-2-7)12-9(13)5-6-11/h1-4H,5H2,(H,12,13)",
        "InChIKey": null,
        "Canonical SMILES": "N#CCC(=O)NC1=CC=C(Cl)C=C1",
        "Molecular Formula": "C<sub>9</sub>H<sub>7</sub>ClN<sub>2</sub>O",
        "Molecular Mass": "194.62",
        "Melting Point": "204 °C"
    }
}