{
    "cas_no": "3413-72-7",
    "key_name": "5-(3-Methyltriazen-1-yl)imidazole-4-carboxamide",
    "cn_name": null,
    "alternate_name": "1<em>H</em>-Imidazole-4-carboxamide, 5-[2-(methylimino)hydrazinyl]-;Imidazole-4-carboxamide, 5-(3-methyl-1-triazeno)-;1<em>H</em>-Imidazole-4-carboxamide, 5-(3-methyl-1-triazenyl)-;Imidazole-4(<em>or</em> 5)-carboxamide, 5(<em>or</em> 4)-(3-methyl-1-triazeno)-;5-[2-(Methylimino)hydrazinyl]-1<em>H</em>-imidazole-4-carboxamide;5-(3-Methyl-1-triazeno)imidazole-4-carboxamide;MTIC;NSC 407347;5-(3-Methyltriazen-1-yl)imidazole-4-carboxamide",
    "duplicated_cas_no": "",
    "SMILES": "C(N)(=O)C1=C(N=NNC)N=CN1",
    "meta_data": {
        "InChI": "InChI=1S/C5H8N6O/c1-7-11-10-5-3(4(6)12)8-2-9-5/h2H,1H3,(H2,6,12)(H,7,10)(H,8,9)",
        "InChIKey": null,
        "Canonical SMILES": "O=C(N)C=1NC=NC1N=NNC",
        "Molecular Formula": "C<sub>5</sub>H<sub>8</sub>N<sub>6</sub>O",
        "Molecular Mass": "168.16",
        "Melting Point": "178 °C"
    }
}