{
    "cas_no": "2713-31-7",
    "key_name": "2,5-Difluorophenol",
    "cn_name": "2,5-二氟苯酚;",
    "alternate_name": "Phenol, 2,5-difluoro-;2,5-Difluorophenol;NSC 10288",
    "duplicated_cas_no": "",
    "SMILES": "OC1=C(F)C=CC(F)=C1",
    "meta_data": {
        "InChI": "InChI=1S/C6H4F2O/c7-4-1-2-5(8)6(9)3-4/h1-3,9H",
        "InChIKey": null,
        "Canonical SMILES": "FC1=CC=C(F)C(O)=C1",
        "Molecular Formula": "C<sub>6</sub>H<sub>4</sub>F<sub>2</sub>O",
        "Molecular Mass": "130.09",
        "Melting Point": "41-42.5 °C"
    }
}