{
    "cas_no": "629-64-1",
    "key_name": "1,1′-Oxybis[heptane]",
    "cn_name": "正庚醚;二庚基醚;庚醚;1-庚氧庚烷;",
    "alternate_name": "Heptane, 1,1′-oxybis-;Heptyl ether;1,1′-Oxybis[heptane];Diheptyl ether;Di-<em>n</em>-heptyl ether;Bis(1-heptyl) ether;NSC 97274;1-Heptoxyheptane",
    "duplicated_cas_no": "",
    "SMILES": "O(CCCCCCC)CCCCCCC",
    "meta_data": {
        "InChI": "InChI=1S/C14H30O/c1-3-5-7-9-11-13-15-14-12-10-8-6-4-2/h3-14H2,1-2H3",
        "InChIKey": null,
        "Canonical SMILES": "O(CCCCCCC)CCCCCCC",
        "Molecular Formula": "C<sub>14</sub>H<sub>30</sub>O",
        "Molecular Mass": "214.39",
        "Boiling Point": "258.5 °C"
    }
}