{
    "cas_no": "31551-45-8",
    "key_name": "2,7-Dinitro-9-fluorenone",
    "cn_name": "2,7-二硝基-9-芴酮;",
    "alternate_name": "9<em>H</em>-Fluoren-9-one, 2,7-dinitro-;Fluoren-9-one, 2,7-dinitro-;2,7-Dinitro-9<em>H</em>-fluoren-9-one;2,7-Dinitro-9-fluorenone;2,7-Dinitrofluorenone;9-Oxo-2,7-dinitrofluorene;NSC 86561",
    "duplicated_cas_no": "",
    "SMILES": "O=C1C=2C(C=3C1=CC(N(=O)=O)=CC3)=CC=C(N(=O)=O)C2",
    "meta_data": {
        "InChI": "InChI=1S/C13H6N2O5/c16-13-11-5-7(14(17)18)1-3-9(11)10-4-2-8(15(19)20)6-12(10)13/h1-6H",
        "InChIKey": null,
        "Canonical SMILES": "O=C1C=2C=C(C=CC2C3=CC=C(C=C13)N(=O)=O)N(=O)=O",
        "Molecular Formula": "C<sub>13</sub>H<sub>6</sub>N<sub>2</sub>O<sub>5</sub>",
        "Molecular Mass": "270.20",
        "Melting Point": "292-295 °C"
    }
}