{
    "cas_no": "972-02-1",
    "key_name": "Diphenidol",
    "cn_name": "地芬尼多;二苯哌丁醇;1,1-二苯基-4-(1-哌啶基)-1-丁醇;",
    "alternate_name": "1-Piperidinebutanol, α,α-diphenyl-;α,α-Diphenyl-1-piperidinebutanol;SKF 478;Difenidol;Diphenidol;Nometic;Benzhydrol, α-(3-piperidinopropyl)-;Diphenadol;1,1-Diphenyl-4-piperidino-1-butanol;Diphenyl[3-(1-piperidyl)propyl]carbinol;Cephadol;Avomol;Lansenol",
    "duplicated_cas_no": "",
    "SMILES": "C(CCCN1CCCCC1)(O)(C2=CC=CC=C2)C3=CC=CC=C3",
    "meta_data": {
        "InChI": "InChI=1S/C21H27NO/c23-21(19-11-4-1-5-12-19,20-13-6-2-7-14-20)15-10-18-22-16-8-3-9-17-22/h1-2,4-7,11-14,23H,3,8-10,15-18H2",
        "InChIKey": null,
        "Canonical SMILES": "OC(C=1C=CC=CC1)(C=2C=CC=CC2)CCCN3CCCCC3",
        "Molecular Formula": "C<sub>21</sub>H<sub>27</sub>NO",
        "Molecular Mass": "309.45",
        "Boiling Point": "153-157 °C @ Press: 0.2 Torr",
        "Melting Point": "104-105 °C"
    }
}