{
    "cas_no": "42864-78-8",
    "key_name": "Bevantolol hydrochloride",
    "cn_name": "盐酸贝凡洛尔;1-[[2-(3,4-二甲氧苯基)乙基]氨基]-3-(3-甲基苯氧基)-2-丙醇盐酸盐;",
    "alternate_name": "2-Propanol, 1-[[2-(3,4-dimethoxyphenyl)ethyl]amino]-3-(3-methylphenoxy)-, hydrochloride (1:1);2-Propanol, 1-[[2-(3,4-dimethoxyphenyl)ethyl]amino]-3-(3-methylphenoxy)-, hydrochloride;1-[(3,4-Dimethoxyphenethyl)amino]-3-(<em>m</em>-tolyloxy)-2-propanol hydrochloride;CI 775;Bevantolol hydrochloride;NC 1400;Ranestol;Cl 775;Vantol;Sentiloc",
    "duplicated_cas_no": "107751-99-5",
    "SMILES": "O(C)C1=C(OC)C=C(CCNCC(COC2=CC(C)=CC=C2)O)C=C1.Cl",
    "meta_data": {
        "InChI": "InChI=1S/C20H27NO4.ClH/c1-15-5-4-6-18(11-15)25-14-17(22)13-21-10-9-16-7-8-19(23-2)20(12-16)24-3;/h4-8,11-12,17,21-22H,9-10,13-14H2,1-3H3;1H",
        "InChIKey": null,
        "Canonical SMILES": "Cl.OC(COC1=CC=CC(=C1)C)CNCCC2=CC=C(OC)C(OC)=C2",
        "Molecular Formula": "C<sub>20</sub>H<sub>27</sub>NO<sub>4</sub>.ClH",
        "Molecular Mass": "",
        "Melting Point": "137-138 °C"
    }
}