{
    "cas_no": "32673-41-9",
    "key_name": "4-(Hydroxymethyl)imidazole hydrochloride",
    "cn_name": "4-羟甲基咪唑盐酸盐;",
    "alternate_name": "1<em>H</em>-Imidazole-5-methanol, hydrochloride (1:1);1<em>H</em>-Imidazole-4-methanol, monohydrochloride;Imidazole-4-methanol, monohydrochloride;Imidazole-4(<em>or</em> 5)-methanol, hydrochloride;4-Imidazolylmethanol hydrochloride;4-(Hydroxymethyl)imidazole hydrochloride;1<em>H</em>-Imidazole-4-methanol, hydrochloride;4-(Hydroxymethyl)-1<em>H</em>-imidazole hydrochloride;Imidazole-4-methanol hydrochloride;4-(Hydroxymethyl)imidazole monohydrochloride;1<em>H</em>-Imidazol-4-ylmethanol hydrochloride;1<em>H</em>-Imidazol-5-ylmethanol hydrochloride",
    "duplicated_cas_no": "127607-61-8;29452-13-9",
    "SMILES": "C(O)C1=CN=CN1.Cl",
    "meta_data": {
        "InChI": "InChI=1S/C4H6N2O.ClH/c7-2-4-1-5-3-6-4;/h1,3,7H,2H2,(H,5,6);1H",
        "InChIKey": null,
        "Canonical SMILES": "Cl.OCC1=CN=CN1",
        "Molecular Formula": "C<sub>4</sub>H<sub>6</sub>N<sub>2</sub>O.ClH",
        "Molecular Mass": "",
        "Melting Point": "93 °C"
    }
}