{
    "cas_no": "7787-61-3",
    "key_name": "Bismuth fluoride",
    "cn_name": "三氟化铋;",
    "alternate_name": "Bismuthine, trifluoro-;Bismuth fluoride (BiF<sub>3</sub>);Trifluorobismuthine;Bismuth trifluoride;Bismuth fluoride",
    "duplicated_cas_no": "",
    "SMILES": "[Bi](F)(F)F",
    "meta_data": {
        "InChI": "InChI=1S/Bi.3FH/h;3*1H/q+3;;;/p-3",
        "InChIKey": null,
        "Canonical SMILES": "F[Bi](F)F",
        "Molecular Formula": "BiF<sub>3</sub>",
        "Molecular Mass": "",
        "Melting Point": "757 °C",
        "Density": "7.92 g/cm³"
    }
}