{
    "cas_no": "110-80-5",
    "key_name": "Glycol monoethyl ether",
    "cn_name": null,
    "alternate_name": "Ethanol, 2-ethoxy-;2-Ethoxyethanol;Emkanol;Ethylene glycol monoethyl ether;Glycol monoethyl ether;Oxitol;Poly-Solv EE;Cellosolve;Ethoxyethanol;β-Ethoxyethanol;Ethylene glycol ethyl ether;Ethyl Cellosolve;2-Ethoxyethyl alcohol;Ektasolve EE;Dowanol EE;Bikanol E 1;Solvid;Monoethylene glycol ethyl ether;Ethyl 2-hydroxyethyl ether;Shihozoru MG;NSC 8837;Seahosol MG;2-Ethoxyethan-1-ol",
    "duplicated_cas_no": "96231-36-6",
    "SMILES": "C(OCC)CO",
    "meta_data": {
        "InChI": "InChI=1S/C4H10O2/c1-2-6-4-3-5/h5H,2-4H2,1H3",
        "InChIKey": null,
        "Canonical SMILES": "OCCOCC",
        "Molecular Formula": "C<sub>4</sub>H<sub>10</sub>O<sub>2</sub>",
        "Molecular Mass": "90.12",
        "Boiling Point": "135.6 °C",
        "Melting Point": "-70 °C",
        "Density": "0.931 g/cm³ @ Temp: 20 °C"
    }
}