{
    "cas_no": "21852-80-2",
    "key_name": "(-)-Falcarinol",
    "cn_name": null,
    "alternate_name": "1,9-Heptadecadiene-4,6-diyn-3-ol, (3<em>R</em>,9<em>Z</em>)-;1,9-Heptadecadiene-4,6-diyn-3-ol, (<em>Z</em>)-(-)-;1,9-Heptadecadiene-4,6-diyn-3-ol, [<em>R</em>-(<em>Z</em>)]-;Panaxynol;(3<em>R</em>,9<em>Z</em>)-1,9-Heptadecadiene-4,6-diyn-3-ol;Falcarinol;Carotatoxin;(-)-Panaxynol;(<em>R</em>)-(-)-Falcarinol;(-)-Falcarinol;(<em>cis</em>)-(-)-3-Hydroxy-1,9-heptadecadien-4,6-diyne;(<em>Z</em>)-Falcarinol",
    "duplicated_cas_no": "",
    "SMILES": "C(#CC/C=C\\CCCCCCC)C#C[C@@H](C=C)O",
    "meta_data": {
        "InChI": "InChI=1S/C17H24O/c1-3-5-6-7-8-9-10-11-12-13-14-15-16-17(18)4-2/h4,10-11,17-18H,2-3,5-9,12H2,1H3/b11-10-/t17-/m1/s1",
        "InChIKey": null,
        "Canonical SMILES": "OC(C#CC#CCC=CCCCCCCC)C=C",
        "Molecular Formula": "C<sub>17</sub>H<sub>24</sub>O",
        "Molecular Mass": "244.37",
        "Boiling Point": "115 °C @ Press: 0.02 Torr"
    }
}