{
    "cas_no": "2387-20-4",
    "key_name": "1-(2-Chloroethyl)-2-imidazolidinone",
    "cn_name": "1-(2-氯乙基)-2-咪唑啉酮;N-氯乙基-2-咪唑烷酮;",
    "alternate_name": "2-Imidazolidinone, 1-(2-chloroethyl)-;1-(2-Chloroethyl)-2-imidazolidinone;<em>N</em>-(β-Chloroethyl)-<em>N</em>,<em>N</em>′-ethyleneurea;<em>N</em>-(2-Chloroethyl)imidazolidinone;1-(2-Chloroethyl)imidazolidine-2-one;NSC 76791",
    "duplicated_cas_no": "",
    "SMILES": "C(CCl)N1C(=O)NCC1",
    "meta_data": {
        "InChI": "InChI=1S/C5H9ClN2O/c6-1-3-8-4-2-7-5(8)9/h1-4H2,(H,7,9)",
        "InChIKey": null,
        "Canonical SMILES": "O=C1NCCN1CCCl",
        "Molecular Formula": "C<sub>5</sub>H<sub>9</sub>ClN<sub>2</sub>O",
        "Molecular Mass": "148.59",
        "Melting Point": "85 °C"
    }
}