{
    "cas_no": "1156-51-0",
    "key_name": "Bisphenol A dicyanate",
    "cn_name": "2,2-双(4-氰氧苯基)丙烷;2,2-二(4-氰酰苯基)丙烷;双酚A型氰酸酯;",
    "alternate_name": "Cyanic acid, <em>C</em>,<em>C</em>′-[(1-methylethylidene)di-4,1-phenylene] ester;Cyanic acid, isopropylidenedi-<em>p</em>-phenylene ester;Cyanic acid, (1-methylethylidene)di-4,1-phenylene ester;4,4′-Dicyanatodiphenyldimethylmethane;Bisphenol A dicyanate;Isopropylidenedi-<em>p</em>-phenylene cyanate;2,2-Bis(4-cyanatophenyl)propane;4,4′-Isopropylidenediphenyl dicyanate;Dian dicyanate;2,2-Bis(<em>p</em>-cyanatophenyl)propane;AroCy B 10;Dicyanatobisphenol A;AroCy B 40S;AroCy B 40;Skylex CA 260;B 10;KU 6537;Skylex CA 200;B 40;Primaset BADCY;NSC 646242;BADCY;CX (cyanate ester);CX;B 40S;HF 1;HF 1 (cyanate ester);CA 210;Bandy;HF 10;Bisphenol A cyanate;BA 3000;Lonza BADCY;Primaset BA 3000;4,4′-Isopropylidene diphenylcyanate;Cytester TA;CE 01MO;TA 1500;Bisphenol A dicyanate ester;C 01MO;TA-CN",
    "duplicated_cas_no": "85445-70-1;115810-22-5;205652-76-2;2068009-60-7;2095086-83-0;2640659-20-5;2649773-95-3",
    "SMILES": "C(C)(C)(C1=CC=C(OC#N)C=C1)C2=CC=C(OC#N)C=C2",
    "meta_data": {
        "InChI": "InChI=1S/C17H14N2O2/c1-17(2,13-3-7-15(8-4-13)20-11-18)14-5-9-16(10-6-14)21-12-19/h3-10H,1-2H3",
        "InChIKey": null,
        "Canonical SMILES": "N#COC1=CC=C(C=C1)C(C2=CC=C(OC#N)C=C2)(C)C",
        "Molecular Formula": "C<sub>17</sub>H<sub>14</sub>N<sub>2</sub>O<sub>2</sub>",
        "Molecular Mass": "278.31",
        "Melting Point": "77-80 °C",
        "Density": "1.21 g/cm³"
    }
}