{
    "cas_no": "25617-97-4",
    "key_name": "Gallium nitride",
    "cn_name": "氮化镓;氮化镓;",
    "alternate_name": "Gallium nitride (GaN);Gallium mononitride;Gallium mononitride (GaN);Gallium nitride",
    "duplicated_cas_no": "12024-03-2;1446207-09-5;1448238-33-2;1609630-87-6;2094993-80-1",
    "SMILES": "[Ga]#N",
    "meta_data": {
        "InChI": "InChI=1S/Ga.N",
        "InChIKey": null,
        "Canonical SMILES": "N#[Ga]",
        "Molecular Formula": "GaN",
        "Molecular Mass": "",
        "Melting Point": "&gt;1427 °C",
        "Density": "6.1 g/cm³"
    }
}