{
    "cas_no": "41044-12-6",
    "key_name": "7-(Diethylamino)-3-(1-methyl-2-benzimidazolyl)coumarin",
    "cn_name": "香豆素30;7-二乙基氨基-3-(1-甲基-2-苯并咪唑基)香豆素;",
    "alternate_name": "2<em>H</em>-1-Benzopyran-2-one, 7-(diethylamino)-3-(1-methyl-1<em>H</em>-benzimidazol-2-yl)-;Coumarin, 7-(diethylamino)-3-(1-methyl-2-benzimidazolyl)-;7-(Diethylamino)-3-(1-methyl-1<em>H</em>-benzimidazol-2-yl)-2<em>H</em>-1-benzopyran-2-one;Coumarin 30;Coumarin 515;3-(2′-<em>N</em>-Methylbenzimidazole)-7-(<em>N</em>,<em>N</em>-diethylamino)coumarin;7-(Diethylamino)-3-(1-methyl-2-benzimidazolyl)coumarin;K 30;NSC 290433;7-(Diethylamino)-3-(1-methyl-1<em>H</em>-benzimidazol-2-yl)-2-benzopyrone;3-(1-Methylbenzimidazol-2-yl)-7-diethylamino-2<em>H</em>-benzopyran-2-one",
    "duplicated_cas_no": "137373-68-3;54576-78-2;76363-49-0",
    "SMILES": "CN1C(=NC=2C1=CC=CC2)C3=CC=4C(OC3=O)=CC(N(CC)CC)=CC4",
    "meta_data": {
        "InChI": "InChI=1S/C21H21N3O2/c1-4-24(5-2)15-11-10-14-12-16(21(25)26-19(14)13-15)20-22-17-8-6-7-9-18(17)23(20)3/h6-13H,4-5H2,1-3H3",
        "InChIKey": null,
        "Canonical SMILES": "O=C1OC=2C=C(C=CC2C=C1C3=NC=4C=CC=CC4N3C)N(CC)CC",
        "Molecular Formula": "C<sub>21</sub>H<sub>21</sub>N<sub>3</sub>O<sub>2</sub>",
        "Molecular Mass": "347.41",
        "Melting Point": "224-226 °C"
    }
}