{
    "cas_no": "326-61-4",
    "key_name": "Piperonyl acetate",
    "cn_name": "3,4-亚甲二氧基苯甲醇醋酸酯;胡椒醇醋酸酯;",
    "alternate_name": "1,3-Benzodioxole-5-methanol, 5-acetate;Piperonyl alcohol, acetate;1,3-Benzodioxole-5-methanol, acetate;Heliotropyl acetate;Piperonyl acetate;3,4-Methylenedioxybenzyl acetate;NSC 406725;(2<em>H</em>-1,3-Benzodioxol-5-yl)methyl acetate;1,3-Benzodioxol-5-ylmethyl acetate",
    "duplicated_cas_no": "",
    "SMILES": "C(OC(C)=O)C=1C=C2C(=CC1)OCO2",
    "meta_data": {
        "InChI": "InChI=1S/C10H10O4/c1-7(11)12-5-8-2-3-9-10(4-8)14-6-13-9/h2-4H,5-6H2,1H3",
        "InChIKey": null,
        "Canonical SMILES": "O=C(OCC1=CC=C2OCOC2=C1)C",
        "Molecular Formula": "C<sub>10</sub>H<sub>10</sub>O<sub>4</sub>",
        "Molecular Mass": "194.18",
        "Boiling Point": "150-151 °C @ Press: 10 Torr",
        "Melting Point": "58 °C"
    }
}