{
    "cas_no": "13750-62-4",
    "key_name": "1-Benzyl-2-methylimidazole",
    "cn_name": "1-苄基-2-甲基咪唑;",
    "alternate_name": "1<em>H</em>-Imidazole, 2-methyl-1-(phenylmethyl)-;Imidazole, 1-benzyl-2-methyl-;2-Methyl-1-(phenylmethyl)-1<em>H</em>-imidazole;1-Benzyl-2-methylimidazole;<em>N</em>-Benzyl-2-methylimidazole;Curezol 1B2MZ;1B2MZ;2-Methyl-<em>N</em>-benzylimidazole;Epicure BMI 12;1-Benzyl-2-methyl-1<em>H</em>-imidazole;JER Cure BMI 12;Texnol BEM 12;1-Phenylmethyl-2-methylimidazole;BMI 12",
    "duplicated_cas_no": "125622-54-0",
    "SMILES": "C(N1C(C)=NC=C1)C2=CC=CC=C2",
    "meta_data": {
        "InChI": "InChI=1S/C11H12N2/c1-10-12-7-8-13(10)9-11-5-3-2-4-6-11/h2-8H,9H2,1H3",
        "InChIKey": null,
        "Canonical SMILES": "N=1C=CN(C1C)CC=2C=CC=CC2",
        "Molecular Formula": "C<sub>11</sub>H<sub>12</sub>N<sub>2</sub>",
        "Molecular Mass": "172.23",
        "Boiling Point": "125-127 °C @ Press: 3 Torr"
    }
}