{
    "cas_no": "82-22-4",
    "key_name": "Dianthrimide",
    "cn_name": "1,1-亚氨基二蒽醌;",
    "alternate_name": "9,10-Anthracenedione, 1,1′-iminobis-;Anthraquinone, 1,1′-iminodi-;1,1′-Iminobis[9,10-anthracenedione];Anthrimide;1,1′-Dianthraquinonylamine;1,1′-Dianthrimide;Dianthrimide;Bis(1-anthraquinonyl)amine;NSC 7226;AISE 4;Bis(anthraquinon-1-yl)amino;1-[(9,10-Dioxoanthracen-1-yl)amino]anthracene-9,10-dione",
    "duplicated_cas_no": "",
    "SMILES": "N(C1=C2C(C(=O)C=3C(C2=O)=CC=CC3)=CC=C1)C4=C5C(C(=O)C=6C(C5=O)=CC=CC6)=CC=C4",
    "meta_data": {
        "InChI": "InChI=1S/C28H15NO4/c30-25-15-7-1-3-9-17(15)27(32)23-19(25)11-5-13-21(23)29-22-14-6-12-20-24(22)28(33)18-10-4-2-8-16(18)26(20)31/h1-14,29H",
        "InChIKey": null,
        "Canonical SMILES": "O=C1C=2C=CC=CC2C(=O)C=3C(=CC=CC13)NC4=CC=CC=5C(=O)C=6C=CC=CC6C(=O)C45",
        "Molecular Formula": "C<sub>28</sub>H<sub>15</sub>NO<sub>4</sub>",
        "Molecular Mass": "429.42",
        "Melting Point": "320-324 °C"
    }
}