{
    "cas_no": "94-96-2",
    "key_name": "2-Ethyl-1,3-hexanediol",
    "cn_name": "2-乙基-1,3-己二醇;",
    "alternate_name": "1,3-Hexanediol, 2-ethyl-;2-Ethyl-1,3-hexanediol;6-12;Ethohexadiol;2-Ethyl-3-propyl-1,3-propanediol;3-Hydroxymethyl-<em>n</em>-heptan-4-ol;Octylene glycol;Repellent 612;Rutgers 612;2-Ethyl-1,3-hexylene glycol;2-Ethylhexanediol;Diol-Kyowa 8;NSC 3881;2-Ethyl-1,3-dihydroxyhexane",
    "duplicated_cas_no": "1321-34-2",
    "SMILES": "C(C(CCC)O)(CC)CO",
    "meta_data": {
        "InChI": "InChI=1S/C8H18O2/c1-3-5-8(10)7(4-2)6-9/h7-10H,3-6H2,1-2H3",
        "InChIKey": null,
        "Canonical SMILES": "OCC(CC)C(O)CCC",
        "Molecular Formula": "C<sub>8</sub>H<sub>18</sub>O<sub>2</sub>",
        "Molecular Mass": "146.23",
        "Boiling Point": "244.2 °C @ Press: 760 Torr",
        "Melting Point": "-40 °C",
        "Density": "0.9325 g/cm³ @ Temp: 22 °C"
    }
}