{
    "cas_no": "2210-63-1",
    "key_name": "Mofebutazone",
    "cn_name": null,
    "alternate_name": "3,5-Pyrazolidinedione, 4-butyl-1-phenyl-;4-Butyl-1-phenyl-3,5-pyrazolidinedione;Mofebutazone;1-Phenyl-4-butyl-3,5-pyrazolidinedione;Butazone;Mobutazone;Monazan;Monophenylbutazone;1-Phenyl-4-<em>n</em>-butyl-3,5-dioxopyrazolidine;Mophebutazone;4-Butyl-3,5-dioxo-1-phenyltetrahydropyrazole;4-Butyl-1-phenyl-3,5-dioxopyrazolidine;2-Phenyl-3,5-dihydroxy-4-butylpyrazolidine;Mobutazon;Mobuzon;Reumatox;Monorheumetten;1-Phenyl-4-butylpyrazolidin-3,5-dione;Arcobutine;Monomil;Monozon;Mozol;Monofen;Arcomonol Tablets;Mofesal;Monobutyl;Monazon;NSC 73725;Monofenew",
    "duplicated_cas_no": "29211-39-0",
    "SMILES": "O=C1N(NC(=O)C1CCCC)C2=CC=CC=C2",
    "meta_data": {
        "InChI": "InChI=1S/C13H16N2O2/c1-2-3-9-11-12(16)14-15(13(11)17)10-7-5-4-6-8-10/h4-8,11H,2-3,9H2,1H3,(H,14,16)",
        "InChIKey": null,
        "Canonical SMILES": "O=C1NN(C=2C=CC=CC2)C(=O)C1CCCC",
        "Molecular Formula": "C<sub>13</sub>H<sub>16</sub>N<sub>2</sub>O<sub>2</sub>",
        "Molecular Mass": "232.28",
        "Melting Point": "102.5 °C"
    }
}