{
    "cas_no": "82925-02-8",
    "key_name": "4-[2-(3,4-Dihydro-6,7-dimethoxy-2(1<em>H</em>)-isoquinolinyl)ethyl]benzenamine",
    "cn_name": null,
    "alternate_name": "Benzenamine, 4-[2-(3,4-dihydro-6,7-dimethoxy-2(1<em>H</em>)-isoquinolinyl)ethyl]-;4-[2-(3,4-Dihydro-6,7-dimethoxy-2(1<em>H</em>)-isoquinolinyl)ethyl]benzenamine;[4-[2-(6,7-Dimethoxy-3,4-dihydro-1<em>H</em>-isoquinolin-2-yl)ethyl]phenyl]amine;4-(2-(6,7-Dimethoxy-3,4-dihydroisoquinolin-2(1<em>H</em>)-yl)ethyl)aniline",
    "duplicated_cas_no": "",
    "SMILES": "O(C)C=1C=C2C(=CC1OC)CCN(CCC3=CC=C(N)C=C3)C2",
    "meta_data": {
        "InChI": "InChI=1S/C19H24N2O2/c1-22-18-11-15-8-10-21(13-16(15)12-19(18)23-2)9-7-14-3-5-17(20)6-4-14/h3-6,11-12H,7-10,13,20H2,1-2H3",
        "InChIKey": null,
        "Canonical SMILES": "O(C=1C=C2C(=CC1OC)CCN(C2)CCC3=CC=C(N)C=C3)C",
        "Molecular Formula": "C<sub>19</sub>H<sub>24</sub>N<sub>2</sub>O<sub>2</sub>",
        "Molecular Mass": "312.41",
        "Melting Point": "129 °C"
    }
}