{
    "cas_no": "4629-80-5",
    "key_name": "1,3-Dimethyl-4-piperidone",
    "cn_name": "1,3-二甲基-4-哌啶酮;",
    "alternate_name": "4-Piperidinone, 1,3-dimethyl-;4-Piperidone, 1,3-dimethyl-;1,3-Dimethyl-4-piperidinone;1,3-Dimethyl-4-piperidone",
    "duplicated_cas_no": "123004-50-2",
    "SMILES": "CC1C(=O)CCN(C)C1",
    "meta_data": {
        "InChI": "InChI=1S/C7H13NO/c1-6-5-8(2)4-3-7(6)9/h6H,3-5H2,1-2H3",
        "InChIKey": null,
        "Canonical SMILES": "O=C1CCN(C)CC1C",
        "Molecular Formula": "C<sub>7</sub>H<sub>13</sub>NO",
        "Molecular Mass": "127.18",
        "Boiling Point": "43.0-43.4 °C @ Press: 5.5 Torr"
    }
}