{
    "cas_no": "475110-96-4",
    "key_name": "2-(Difluoromethyl)-1-(4,6-di-4-morpholinyl-1,3,5-triazin-2-yl)-1<em>H</em>-benzimidazole",
    "cn_name": null,
    "alternate_name": "1<em>H</em>-Benzimidazole, 2-(difluoromethyl)-1-(4,6-di-4-morpholinyl-1,3,5-triazin-2-yl)-;2-(Difluoromethyl)-1-(4,6-di-4-morpholinyl-1,3,5-triazin-2-yl)-1<em>H</em>-benzimidazole;2-(2-Difluoromethylbenzimidazol-1-yl)-4,6-bis(morpholino)-1,3,5-triazine;ZSTK 474;4,4′-(6-(2-(Difluoromethyl)-1<em>H</em>-benzo[<em>d</em>]imidazol-1-yl)-1,3,5-triazine-2,4-diyl)dimorpholine",
    "duplicated_cas_no": "",
    "SMILES": "C(F)(F)C=1N(C=2C(N1)=CC=CC2)C=3N=C(N=C(N3)N4CCOCC4)N5CCOCC5",
    "meta_data": {
        "InChI": "InChI=1S/C19H21F2N7O2/c20-15(21)16-22-13-3-1-2-4-14(13)28(16)19-24-17(26-5-9-29-10-6-26)23-18(25-19)27-7-11-30-12-8-27/h1-4,15H,5-12H2",
        "InChIKey": null,
        "Canonical SMILES": "FC(F)C1=NC=2C=CC=CC2N1C=3N=C(N=C(N3)N4CCOCC4)N5CCOCC5",
        "Molecular Formula": "C<sub>19</sub>H<sub>21</sub>F<sub>2</sub>N<sub>7</sub>O<sub>2</sub>",
        "Molecular Mass": "417.41",
        "Melting Point": "217-219 °C"
    }
}