{
    "cas_no": "6379-72-2",
    "key_name": "<em>trans</em>-Methylisoeugenol",
    "cn_name": null,
    "alternate_name": "Benzene, 1,2-dimethoxy-4-(1<em>E</em>)-1-propen-1-yl-;Benzene, 1,2-dimethoxy-4-propenyl-, (<em>E</em>)-;Benzene, 1,2-dimethoxy-4-(1-propenyl)-, (<em>E</em>)-;Benzene, 1,2-dimethoxy-4-(1<em>E</em>)-1-propenyl-;Veratrole, 4-propenyl-, <em>trans</em>-;1,2-Dimethoxy-4-(1<em>E</em>)-1-propen-1-ylbenzene;<em>trans</em>-<em>O</em>-Methylisoeugenol;<em>trans</em>-1,2-Dimethoxy-4-(1-propenyl)benzene;<em>trans</em>-Isoeugenol methyl ether;4-<em>trans</em>-Propenylveratrole;(<em>E</em>)-1-(3,4-Dimethoxyphenyl)propene;(<em>E</em>)-Isoeugenol methyl ether;(<em>E</em>)-<em>O</em>-Methylisoeugenol;Isohomoeugenol;<em>O</em>-Methyl-<em>trans</em>-isoeugenol;(<em>E</em>)-1-Propenyl-3,4-dimethoxybenzene;(<em>E</em>)-1,2-Dimethoxy-4-(1-propenyl)benzene;(<em>E</em>)-Methylisoeugenol;<em>trans</em>-Methylisoeugenol;1,2-Dimethoxy-4-[(1<em>E</em>)-1-propenyl]benzene;(<em>E</em>)-3,4-Dimethoxy-1-propenylbenzene;<em>trans</em>-Isomethyleugenol;(E)-1,2-Dimethoxy-4-(prop-1-en-1-yl)benzene;(<em>E</em>)-1,2-Dimethoxy-4-(prop-1-en-1-yl)benzene",
    "duplicated_cas_no": "",
    "SMILES": "O(C)C1=C(OC)C=CC(/C=C/C)=C1",
    "meta_data": {
        "InChI": "InChI=1S/C11H14O2/c1-4-5-9-6-7-10(12-2)11(8-9)13-3/h4-8H,1-3H3/b5-4+",
        "InChIKey": null,
        "Canonical SMILES": "O(C1=CC=C(C=CC)C=C1OC)C",
        "Molecular Formula": "C<sub>11</sub>H<sub>14</sub>O<sub>2</sub>",
        "Molecular Mass": "178.23",
        "Boiling Point": "260-263 °C"
    }
}