{
    "cas_no": "327-56-0",
    "key_name": "<span class=\"text-smallcaps\">D</span>-Norleucine",
    "cn_name": "D-正亮氨酸;D-2-氨基己酸;",
    "alternate_name": "<span class=\"text-smallcaps\">D</span>-Norleucine;Norleucine, <span class=\"text-smallcaps\">D</span>-;<span class=\"text-smallcaps\">D</span>-(-)-Norleucine;(<em>R</em>)-Norleucine;(<em>R</em>)-2-Aminohexanoic acid;(2R)-2-Aminohexanoic acid",
    "duplicated_cas_no": "",
    "SMILES": "[C@H](C(O)=O)(CCCC)N",
    "meta_data": {
        "InChI": "InChI=1S/C6H13NO2/c1-2-3-4-5(7)6(8)9/h5H,2-4,7H2,1H3,(H,8,9)/t5-/m1/s1",
        "InChIKey": null,
        "Canonical SMILES": "O=C(O)C(N)CCCC",
        "Molecular Formula": "C<sub>6</sub>H<sub>13</sub>NO<sub>2</sub>",
        "Molecular Mass": "131.17",
        "Melting Point": "300 °C"
    }
}