{
    "cas_no": "2547-61-7",
    "key_name": "Trichloromethanesulfonyl chloride",
    "cn_name": "三氯甲基磺酰氯;",
    "alternate_name": "Methanesulfonyl chloride, trichloro-;Trichloromethanesulfonyl chloride;Trichloromethylsulfonyl chloride;Trichloromesyl chloride;NSC 59663",
    "duplicated_cas_no": "",
    "SMILES": "C(S(Cl)(=O)=O)(Cl)(Cl)Cl",
    "meta_data": {
        "InChI": "InChI=1S/CCl4O2S/c2-1(3,4)8(5,6)7",
        "InChIKey": null,
        "Canonical SMILES": "O=S(=O)(Cl)C(Cl)(Cl)Cl",
        "Molecular Formula": "CCl<sub>4</sub>O<sub>2</sub>S",
        "Molecular Mass": "217.89",
        "Boiling Point": "170 °C",
        "Melting Point": "140.5 °C"
    }
}