{
    "cas_no": "17178-11-9",
    "key_name": "Ethanol, 2-ethoxy-, 1-(4-methylbenzenesulfonate)",
    "cn_name": null,
    "alternate_name": "Ethanol, 2-ethoxy-, 1-(4-methylbenzenesulfonate);Ethanol, 2-ethoxy-, <em>p</em>-toluenesulfonate;Ethanol, 2-ethoxy-, 4-methylbenzenesulfonate;<em>p</em>-Toluenesulfonic acid β-ethoxyethyl ester;Ethoxyethyl <em>p</em>-toluenesulfonate;2-Ethoxyethyl <em>p</em>-toluenesulfonate;2-Ethoxyethyl 4-toluenesulfonate;2-Ethoxyethyl tosylate;β-Ethoxyethyl <em>p</em>-toluenesulfonate;Toluene-4-sulfonic acid 2-ethoxyethyl ester;2-Ethoxyethyl 4-methylbenzenesulfonate",
    "duplicated_cas_no": "50869-43-7",
    "SMILES": "S(OCCOCC)(=O)(=O)C1=CC=C(C)C=C1",
    "meta_data": {
        "InChI": "InChI=1S/C11H16O4S/c1-3-14-8-9-15-16(12,13)11-6-4-10(2)5-7-11/h4-7H,3,8-9H2,1-2H3",
        "InChIKey": null,
        "Canonical SMILES": "O=S(=O)(OCCOCC)C1=CC=C(C=C1)C",
        "Molecular Formula": "C<sub>11</sub>H<sub>16</sub>O<sub>4</sub>S",
        "Molecular Mass": "244.31",
        "Boiling Point": "107 °C @ Press: 0.075 Torr"
    }
}