{
    "cas_no": "103-81-1",
    "key_name": "Benzeneacetamide",
    "cn_name": "2-苯乙酰胺;alpha-苯乙酰胺;",
    "alternate_name": "Benzeneacetamide;Acetamide, 2-phenyl-;Benzenediacetamide;2-Phenylacetamide;Phenylacetic acid amide;α-Toluamide;α-Phenylacetamide;α-Toluimidic acid;Phenyl-β-acetylamine;Phenacetamide;NSC 1877",
    "duplicated_cas_no": "4463-20-1",
    "SMILES": "C(C(N)=O)C1=CC=CC=C1",
    "meta_data": {
        "InChI": "InChI=1S/C8H9NO/c9-8(10)6-7-4-2-1-3-5-7/h1-5H,6H2,(H2,9,10)",
        "InChIKey": null,
        "Canonical SMILES": "O=C(N)CC=1C=CC=CC1",
        "Molecular Formula": "C<sub>8</sub>H<sub>9</sub>NO",
        "Molecular Mass": "135.16",
        "Boiling Point": "244-279 °C",
        "Melting Point": "157 °C"
    }
}