{
    "cas_no": "17832-16-5",
    "key_name": "Triallyl trimesate",
    "cn_name": "苯均三酸三烯丙基酯;",
    "alternate_name": "1,3,5-Benzenetricarboxylic acid, 1,3,5-tri-2-propen-1-yl ester;1,3,5-Benzenetricarboxylic acid, triallyl ester;1,3,5-Benzenetricarboxylic acid, tri-2-propenyl ester;Trimesic acid, triallyl ester;Triallyl trimesate;Triallyl 1,3,5-benzenetricarboxylate",
    "duplicated_cas_no": "",
    "SMILES": "C(OCC=C)(=O)C1=CC(C(OCC=C)=O)=CC(C(OCC=C)=O)=C1",
    "meta_data": {
        "InChI": "InChI=1S/C18H18O6/c1-4-7-22-16(19)13-10-14(17(20)23-8-5-2)12-15(11-13)18(21)24-9-6-3/h4-6,10-12H,1-3,7-9H2",
        "InChIKey": null,
        "Canonical SMILES": "O=C(OCC=C)C=1C=C(C=C(C1)C(=O)OCC=C)C(=O)OCC=C",
        "Molecular Formula": "C<sub>18</sub>H<sub>18</sub>O<sub>6</sub>",
        "Molecular Mass": "330.33",
        "Boiling Point": "210-212 °C @ Press: 2 Torr",
        "Density": "1.1629 g/cm³ @ Temp: 20 °C"
    }
}