{
    "cas_no": "194-59-2",
    "key_name": "7<em>H</em>-Dibenzo[<em>c</em>,<em>g</em>]carbazole",
    "cn_name": null,
    "alternate_name": "7<em>H</em>-Dibenzo[<em>c</em>,<em>g</em>]carbazole;7-Aza-7<em>H</em>-dibenzo[<em>c</em>,<em>g</em>]fluorene;3,4:5,6-Dibenzocarbazole;NSC 87519",
    "duplicated_cas_no": "",
    "SMILES": "C=12C=3C=4C(C=CC3NC1C=CC=5C2=CC=CC5)=CC=CC4",
    "meta_data": {
        "InChI": "InChI=1S/C20H13N/c1-3-7-15-13(5-1)9-11-17-19(15)20-16-8-4-2-6-14(16)10-12-18(20)21-17/h1-12,21H",
        "InChIKey": null,
        "Canonical SMILES": "C=1C=CC=2C(C1)=CC=C3NC=4C=CC=5C=CC=CC5C4C32",
        "Molecular Formula": "C<sub>20</sub>H<sub>13</sub>N",
        "Molecular Mass": "267.32",
        "Melting Point": "158 °C"
    }
}