{
    "cas_no": "104615-18-1",
    "key_name": "9-Chloro-2-(2-furanyl)[1,2,4]triazolo[1,5-<em>c</em>]quinazolin-5-amine",
    "cn_name": null,
    "alternate_name": "[1,2,4]Triazolo[1,5-<em>c</em>]quinazolin-5-amine, 9-chloro-2-(2-furanyl)-;9-Chloro-2-(2-furanyl)[1,2,4]triazolo[1,5-<em>c</em>]quinazolin-5-amine;CGS 15943A;CGS 15943",
    "duplicated_cas_no": "",
    "SMILES": "NC=1N2C(C=3C(N1)=CC=C(Cl)C3)=NC(=N2)C4=CC=CO4",
    "meta_data": {
        "InChI": "InChI=1S/C13H8ClN5O/c14-7-3-4-9-8(6-7)12-17-11(10-2-1-5-20-10)18-19(12)13(15)16-9/h1-6H,(H2,15,16)",
        "InChIKey": null,
        "Canonical SMILES": "ClC=1C=CC=2N=C(N)N3N=C(N=C3C2C1)C=4OC=CC4",
        "Molecular Formula": "C<sub>13</sub>H<sub>8</sub>ClN<sub>5</sub>O",
        "Molecular Mass": "285.69",
        "Melting Point": "278-279 °C"
    }
}