{
    "cas_no": "82752-99-6",
    "key_name": "Nefazodone hydrochloride",
    "cn_name": "萘法唑酮盐酸盐;",
    "alternate_name": "3<em>H</em>-1,2,4-Triazol-3-one, 2-[3-[4-(3-chlorophenyl)-1-piperazinyl]propyl]-5-ethyl-2,4-dihydro-4-(2-phenoxyethyl)-, hydrochloride (1:1);3<em>H</em>-1,2,4-Triazol-3-one, 2-[3-[4-(3-chlorophenyl)-1-piperazinyl]propyl]-5-ethyl-2,4-dihydro-4-(2-phenoxyethyl)-, monohydrochloride;Nefazodone hydrochloride;BMY 13754;MJ 13754-1;Serzone;BMY 13754-1;Serazone;Dutonin;1-[3-[4-(3-Chlorophenyl)piperazin-1-yl]propyl]-3-ethyl-4-(2-phenoxyethyl)-4,5-dihydro-1<em>H</em>-1,2,4-triazol-5-one hydrochloride",
    "duplicated_cas_no": "",
    "SMILES": "C(COC1=CC=CC=C1)N2C(CC)=NN(CCCN3CCN(CC3)C4=CC(Cl)=CC=C4)C2=O.Cl",
    "meta_data": {
        "InChI": "InChI=1S/C25H32ClN5O2.ClH/c1-2-24-27-31(25(32)30(24)18-19-33-23-10-4-3-5-11-23)13-7-12-28-14-16-29(17-15-28)22-9-6-8-21(26)20-22;/h3-6,8-11,20H,2,7,12-19H2,1H3;1H",
        "InChIKey": null,
        "Canonical SMILES": "Cl.O=C1N(N=C(N1CCOC=2C=CC=CC2)CC)CCCN3CCN(C=4C=CC=C(Cl)C4)CC3",
        "Molecular Formula": "C<sub>25</sub>H<sub>32</sub>ClN<sub>5</sub>O<sub>2</sub>.ClH",
        "Molecular Mass": "",
        "Melting Point": "186-188 °C"
    }
}