{
    "cas_no": "2136-75-6",
    "key_name": "2-(Triphenylphosphoranylidene)acetaldehyde",
    "cn_name": "甲酰甲撑基三苯基磷;",
    "alternate_name": "Acetaldehyde, 2-(triphenylphosphoranylidene)-;Acetaldehyde, (triphenylphosphoranylidene)-;2-(Triphenylphosphoranylidene)acetaldehyde;(Formylmethylene)triphenylphosphorane;(Triphenylphosphoranylidene)acetaldehyde;(2-Oxoethylidene)triphenylphosphorane;(Triphenylphosphoranylidene)acetaldehye;2-(Triphenyl-λ5-phosphanylidene)acetaldehyde",
    "duplicated_cas_no": "29605-16-1;71276-92-1;28900-91-6",
    "SMILES": "P(=CC=O)(C1=CC=CC=C1)(C2=CC=CC=C2)C3=CC=CC=C3",
    "meta_data": {
        "InChI": "InChI=1S/C20H17OP/c21-16-17-22(18-10-4-1-5-11-18,19-12-6-2-7-13-19)20-14-8-3-9-15-20/h1-17H",
        "InChIKey": null,
        "Canonical SMILES": "O=CC=P(C=1C=CC=CC1)(C=2C=CC=CC2)C=3C=CC=CC3",
        "Molecular Formula": "C<sub>20</sub>H<sub>17</sub>OP",
        "Molecular Mass": "304.32",
        "Melting Point": "187 °C (decomp)"
    }
}