{
    "cas_no": "147081-85-4",
    "key_name": "4-(1<em>H</em>-Imidazol-1-yl)piperidine",
    "cn_name": "4-咪唑哌啶;4-(1H-咪唑-1-基)哌啶;",
    "alternate_name": "Piperidine, 4-(1<em>H</em>-imidazol-1-yl)-;4-(1<em>H</em>-Imidazol-1-yl)piperidine;4-(Imidazol-1-yl)piperidine",
    "duplicated_cas_no": "",
    "SMILES": "N1(C=CN=C1)C2CCNCC2",
    "meta_data": {
        "InChI": "InChI=1S/C8H13N3/c1-3-9-4-2-8(1)11-6-5-10-7-11/h5-9H,1-4H2",
        "InChIKey": null,
        "Canonical SMILES": "N=1C=CN(C1)C2CCNCC2",
        "Molecular Formula": "C<sub>8</sub>H<sub>13</sub>N<sub>3</sub>",
        "Molecular Mass": "151.21",
        "Melting Point": "153-154 °C"
    }
}