{
    "cas_no": "4044-60-4",
    "key_name": "2,5-Dimethylbenzophenone",
    "cn_name": "2,5-二甲基二苯甲酮;",
    "alternate_name": "Methanone, (2,5-dimethylphenyl)phenyl-;Benzophenone, 2,5-dimethyl-;(2,5-Dimethylphenyl)phenylmethanone;2,5-Dimethylbenzophenone;2,5-Dimethylphenyl phenyl ketone;NSC 82305;2-Benzoyl-1,4-dimethylbenzene",
    "duplicated_cas_no": "",
    "SMILES": "C(=O)(C1=C(C)C=CC(C)=C1)C2=CC=CC=C2",
    "meta_data": {
        "InChI": "InChI=1S/C15H14O/c1-11-8-9-12(2)14(10-11)15(16)13-6-4-3-5-7-13/h3-10H,1-2H3",
        "InChIKey": null,
        "Canonical SMILES": "O=C(C=1C=CC=CC1)C2=CC(=CC=C2C)C",
        "Molecular Formula": "C<sub>15</sub>H<sub>14</sub>O",
        "Molecular Mass": "210.27",
        "Boiling Point": "255-258 °C @ Press: 10 Torr",
        "Melting Point": "138.5 °C"
    }
}