{
    "cas_no": "10026-03-6",
    "key_name": "Selenium tetrachloride",
    "cn_name": "四氯化硒;",
    "alternate_name": "Selenium chloride (SeCl<sub>4</sub>), (<em>T</em>-4)-;Selenium chloride (SeCl<sub>4</sub>);Selenium tetrachloride;Tetrachloroselenium;Selenium chloride",
    "duplicated_cas_no": "",
    "SMILES": "[Se](Cl)(Cl)(Cl)Cl",
    "meta_data": {
        "InChI": "InChI=1S/Cl4Se/c1-5(2,3)4",
        "InChIKey": null,
        "Canonical SMILES": "Cl[Se](Cl)(Cl)Cl",
        "Molecular Formula": "Cl<sub>4</sub>Se",
        "Molecular Mass": "220.77",
        "Melting Point": "305 °C"
    }
}