{
    "cas_no": "872-36-6",
    "key_name": "Vinylene carbonate",
    "cn_name": "碳酸亚乙烯酯;",
    "alternate_name": "1,3-Dioxol-2-one;Carbonic acid, cyclic vinylene ester;Vinylene carbonate;NSC 20980;NSC 47201;Vinylidene carbonate;LBG 84922;2<em>H</em>-1,3-Dioxol-2-one",
    "duplicated_cas_no": "",
    "SMILES": "O=C1OC=CO1",
    "meta_data": {
        "InChI": "InChI=1S/C3H2O3/c4-3-5-1-2-6-3/h1-2H",
        "InChIKey": null,
        "Canonical SMILES": "O=C1OC=CO1",
        "Molecular Formula": "C<sub>3</sub>H<sub>2</sub>O<sub>3</sub>",
        "Molecular Mass": "86.05",
        "Boiling Point": "73-74 °C @ Press: 32 Torr",
        "Melting Point": "20.5 °C",
        "Density": "1.35 g/cm³ @ Temp: 25 °C"
    }
}