{
    "cas_no": "41492-05-1",
    "key_name": "1-Bromo-4-butylbenzene",
    "cn_name": "对丁基溴苯;对溴正丁基苯;对溴丁苯;",
    "alternate_name": "Benzene, 1-bromo-4-butyl-;1-Bromo-4-butylbenzene;<em>p</em>-Bromobutylbenzene;<em>p</em>-Butylbromobenzene;4-Butylbromobenzene;4-Butylphenyl bromide;<em>p</em>-Butylphenyl bromide;4-<em>n</em>-Butylbromobenzene;1-Bromo-4-<em>n</em>-butylbenzene;4-Bromo-1-butylbenzene",
    "duplicated_cas_no": "",
    "SMILES": "C(CCC)C1=CC=C(Br)C=C1",
    "meta_data": {
        "InChI": "InChI=1S/C10H13Br/c1-2-3-4-9-5-7-10(11)8-6-9/h5-8H,2-4H2,1H3",
        "InChIKey": null,
        "Canonical SMILES": "BrC1=CC=C(C=C1)CCCC",
        "Molecular Formula": "C<sub>10</sub>H<sub>13</sub>Br",
        "Molecular Mass": "213.11",
        "Boiling Point": "223 °C @ Press: 760 Torr",
        "Melting Point": "-25.65 °C",
        "Density": "1.2347 g/cm³ @ Temp: 20 °C"
    }
}