{
    "cas_no": "6262-42-6",
    "key_name": "1,2,3,3-Tetrachlorocyclopropene",
    "cn_name": "四氯环丙烯;",
    "alternate_name": "Cyclopropene, 1,2,3,3-tetrachloro-;Cyclopropene, tetrachloro-;1,2,3,3-Tetrachlorocyclopropene;Tetrachlorocyclopropene;Perchlorocyclopropene;Tetrachlorocyclopropenone;Tetrachlorocycloproprene",
    "duplicated_cas_no": "",
    "SMILES": "ClC1(Cl)C(Cl)=C1Cl",
    "meta_data": {
        "InChI": "InChI=1S/C3Cl4/c4-1-2(5)3(1,6)7",
        "InChIKey": null,
        "Canonical SMILES": "ClC1=C(Cl)C1(Cl)Cl",
        "Molecular Formula": "C<sub>3</sub>Cl<sub>4</sub>",
        "Molecular Mass": "177.84",
        "Boiling Point": "129.53 °C @ Press: 745 Torr"
    }
}