{
    "cas_no": "104-27-8",
    "key_name": "1-(4-Methoxyphenyl)-1-penten-3-one",
    "cn_name": "1-(4-甲氧苯基)-1-戊烯-3-酮;",
    "alternate_name": "1-Penten-3-one, 1-(4-methoxyphenyl)-;1-Penten-3-one, 1-(<em>p</em>-methoxyphenyl)-;1-(4-Methoxyphenyl)-1-penten-3-one;1-<em>p</em>-Methoxyphenylpent-1-en-3-one;α-Methylanisalacetone;Ethyl <em>p</em>-methoxystyryl ketone;NSC 133448",
    "duplicated_cas_no": "",
    "SMILES": "C(=CC(CC)=O)C1=CC=C(OC)C=C1",
    "meta_data": {
        "InChI": "InChI=1S/C12H14O2/c1-3-11(13)7-4-10-5-8-12(14-2)9-6-10/h4-9H,3H2,1-2H3",
        "InChIKey": null,
        "Canonical SMILES": "O=C(C=CC1=CC=C(OC)C=C1)CC",
        "Molecular Formula": "C<sub>12</sub>H<sub>14</sub>O<sub>2</sub>",
        "Molecular Mass": "190.24",
        "Melting Point": "61 °C"
    }
}