{
    "cas_no": "7789-19-7",
    "key_name": "Copper fluoride (CuF<sub>2</sub>)",
    "cn_name": "氟化铜;二氟化铜;",
    "alternate_name": "Copper fluoride (CuF<sub>2</sub>);Copper difluoride;Cupric fluoride;Copper(2+) fluoride;Copper(II) fluoride",
    "duplicated_cas_no": "",
    "SMILES": "[Cu](F)F",
    "meta_data": {
        "InChI": "InChI=1S/Cu.2FH/h;2*1H/q+2;;/p-2",
        "InChIKey": null,
        "Canonical SMILES": "F[Cu]F",
        "Molecular Formula": "CuF<sub>2</sub>",
        "Molecular Mass": "",
        "Melting Point": "770 °C",
        "Density": "4.85 g/cm³"
    }
}