{
    "cas_no": "600-22-6",
    "key_name": "Methyl pyruvate",
    "cn_name": "丙酮酸甲酯;",
    "alternate_name": "Propanoic acid, 2-oxo-, methyl ester;Pyruvic acid, methyl ester;Methyl pyruvate;Methylglyoxylic acid methyl ester;Methyl 2-oxopropionate;Methyl 2-oxopropanoate;Methyl acetoformate;NSC 65430;2-Oxopropanoic acid methyl ester;2-Oxopropionic acid methyl ester;Pyroracemic acid methyl ester;Methyl pyroracemate;Methyl methoxycarbonyl ketone",
    "duplicated_cas_no": "",
    "SMILES": "C(C(C)=O)(OC)=O",
    "meta_data": {
        "InChI": "InChI=1S/C4H6O3/c1-3(5)4(6)7-2/h1-2H3",
        "InChIKey": null,
        "Canonical SMILES": "O=C(OC)C(=O)C",
        "Molecular Formula": "C<sub>4</sub>H<sub>6</sub>O<sub>3</sub>",
        "Molecular Mass": "102.09",
        "Boiling Point": "135.5 °C",
        "Melting Point": "-22 °C"
    }
}