{
    "cas_no": "593-55-5",
    "key_name": "Ethanamine, hydrobromide (1:1)",
    "cn_name": "乙胺氢溴酸盐;乙胺溴氢酸盐;",
    "alternate_name": "Ethanamine, hydrobromide (1:1);Ethylamine, hydrobromide;Ethanamine, hydrobromide;Ethylamine monohydrobromide;Ethylammonium bromide",
    "duplicated_cas_no": "",
    "SMILES": "C(C)N.Br",
    "meta_data": {
        "InChI": "InChI=1S/C2H7N.BrH/c1-2-3;/h2-3H2,1H3;1H",
        "InChIKey": null,
        "Canonical SMILES": "Br.NCC",
        "Molecular Formula": "C<sub>2</sub>H<sub>7</sub>N.BrH",
        "Molecular Mass": "",
        "Melting Point": "146 °C"
    }
}