{
    "cas_no": "74144-49-3",
    "key_name": "Propanamide, 2-amino-<em>N</em>-2-naphthalenyl-, hydrochloride (1:1)",
    "cn_name": null,
    "alternate_name": "Propanamide, 2-amino-<em>N</em>-2-naphthalenyl-, hydrochloride (1:1);Propanamide, 2-amino-<em>N</em>-2-naphthalenyl-, monohydrochloride, (±)-;Propanamide, 2-amino-<em>N</em>-2-naphthalenyl-, monohydrochloride;2-Amino-<em>N</em>-(naphthalen-2-yl)propanamide hydrochloride",
    "duplicated_cas_no": "96330-68-6",
    "SMILES": "N(C(C(C)N)=O)C1=CC2=C(C=C1)C=CC=C2.Cl",
    "meta_data": {
        "InChI": "InChI=1S/C13H14N2O.ClH/c1-9(14)13(16)15-12-7-6-10-4-2-3-5-11(10)8-12;/h2-9H,14H2,1H3,(H,15,16);1H",
        "InChIKey": null,
        "Canonical SMILES": "Cl.O=C(NC=1C=CC=2C=CC=CC2C1)C(N)C",
        "Molecular Formula": "C<sub>13</sub>H<sub>14</sub>N<sub>2</sub>O.ClH",
        "Molecular Mass": "",
        "Melting Point": "244-245 °C"
    }
}