{
    "cas_no": "56495-82-0",
    "key_name": "Irisquinone",
    "cn_name": null,
    "alternate_name": "2,5-Cyclohexadiene-1,4-dione, 2-(10<em>Z</em>)-10-heptadecen-1-yl-6-methoxy-;2,5-Cyclohexadiene-1,4-dione, 2-(10-heptadecenyl)-6-methoxy-, (<em>Z</em>)-;2,5-Cyclohexadiene-1,4-dione, 2-(10<em>Z</em>)-10-heptadecenyl-6-methoxy-;2-(10<em>Z</em>)-10-Heptadecen-1-yl-6-methoxy-2,5-cyclohexadiene-1,4-dione;Irisquinone A;2-(<em>cis</em>-10-Heptadecenyl)-6-methoxy-<em>p</em>-benzoquinone;Irisquinone",
    "duplicated_cas_no": "",
    "SMILES": "C(CCCCCCCC/C=C\\CCCCCC)C=1C(=O)C(OC)=CC(=O)C1",
    "meta_data": {
        "InChI": "InChI=1S/C24H38O3/c1-3-4-5-6-7-8-9-10-11-12-13-14-15-16-17-18-21-19-22(25)20-23(27-2)24(21)26/h8-9,19-20H,3-7,10-18H2,1-2H3/b9-8-",
        "InChIKey": null,
        "Canonical SMILES": "O=C1C=C(OC)C(=O)C(=C1)CCCCCCCCCC=CCCCCCC",
        "Molecular Formula": "C<sub>24</sub>H<sub>38</sub>O<sub>3</sub>",
        "Molecular Mass": "374.56",
        "Melting Point": "40-43 °C"
    }
}