{
    "cas_no": "73815-21-1",
    "key_name": "2,6-Dimethyl-7-octene-2,3,6-triol",
    "cn_name": null,
    "alternate_name": "7-Octene-2,3,6-triol, 2,6-dimethyl-;2,6-Dimethyl-7-octene-2,3,6-triol;3,7-Dimethyloct-1-ene-3,6,7-triol",
    "duplicated_cas_no": "",
    "SMILES": "C(CC(C(C)(C)O)O)C(C=C)(C)O",
    "meta_data": {
        "InChI": "InChI=1S/C10H20O3/c1-5-10(4,13)7-6-8(11)9(2,3)12/h5,8,11-13H,1,6-7H2,2-4H3",
        "InChIKey": null,
        "Canonical SMILES": "OC(CCC(O)(C=C)C)C(O)(C)C",
        "Molecular Formula": "C<sub>10</sub>H<sub>20</sub>O<sub>3</sub>",
        "Molecular Mass": "188.26",
        "Boiling Point": "53-53.5 °C @ Press: 3.5 Torr",
        "Density": "0.952 g/cm³ @ Temp: 16 °C"
    }
}