{
    "cas_no": "1420-07-1",
    "key_name": "Dinoterb",
    "cn_name": "特乐酚;特乐酚;芸香酸二壬酯;二硝特丁酚;",
    "alternate_name": "Phenol, 2-(1,1-dimethylethyl)-4,6-dinitro-;Phenol, 2-<em>tert</em>-butyl-4,6-dinitro-;2-(1,1-Dimethylethyl)-4,6-dinitrophenol;2-<em>tert</em>-Butyl-4,6-dinitrophenol;Dinoterb;Dinoterbe;Stirpan Forte;2,4-Dinitro-6-<em>tert</em>-butylphenol;Veraline Creme;DNTBP;4,6-Dinitro-2-<em>tert</em>-butylphenol;Herbogil;NSC 166496",
    "duplicated_cas_no": "",
    "SMILES": "C(C)(C)(C)C1=C(O)C(N(=O)=O)=CC(N(=O)=O)=C1",
    "meta_data": {
        "InChI": "InChI=1S/C10H12N2O5/c1-10(2,3)7-4-6(11(14)15)5-8(9(7)13)12(16)17/h4-5,13H,1-3H3",
        "InChIKey": null,
        "Canonical SMILES": "O=N(=O)C=1C=C(C(O)=C(C1)C(C)(C)C)N(=O)=O",
        "Molecular Formula": "C<sub>10</sub>H<sub>12</sub>N<sub>2</sub>O<sub>5</sub>",
        "Molecular Mass": "240.21",
        "Melting Point": "125.5-126.5 °C"
    }
}