{
    "cas_no": "1122-12-9",
    "key_name": "3,4-Dibromo-2,5-furandione",
    "cn_name": null,
    "alternate_name": "2,5-Furandione, 3,4-dibromo-;Maleic anhydride, dibromo-;3,4-Dibromo-2,5-furandione;Dibromomaleic anhydride;2,3-Dibromomaleic anhydride;NSC 94974;3,4-Dibromomaleic anhydride",
    "duplicated_cas_no": "",
    "SMILES": "BrC1=C(Br)C(=O)OC1=O",
    "meta_data": {
        "InChI": "InChI=1S/C4Br2O3/c5-1-2(6)4(8)9-3(1)7",
        "InChIKey": null,
        "Canonical SMILES": "O=C1OC(=O)C(Br)=C1Br",
        "Molecular Formula": "C<sub>4</sub>Br<sub>2</sub>O<sub>3</sub>",
        "Molecular Mass": "255.85",
        "Boiling Point": "117-127 °C @ Press: 19 Torr",
        "Melting Point": "118-119 °C"
    }
}