{
    "cas_no": "21794-55-8",
    "key_name": "(+)-Daunomycinone",
    "cn_name": null,
    "alternate_name": "5,12-Naphthacenedione, 8-acetyl-7,8,9,10-tetrahydro-6,8,10,11-tetrahydroxy-1-methoxy-, (8<em>S</em>,10<em>S</em>)-;Daunomycinone;5,12-Naphthacenedione, 8-acetyl-7,8,9,10-tetrahydro-6,8,10,11-tetrahydroxy-1-methoxy-, (8<em>S</em>-<em>cis</em>)-;(8<em>S</em>,10<em>S</em>)-8-Acetyl-7,8,9,10-tetrahydro-6,8,10,11-tetrahydroxy-1-methoxy-5,12-naphthacenedione;Daunorubicin aglycone;Leukaemomycinone C;Daunomycin aglicone;(+)-Daunomycinone;Daunomycinon;Daunorubicinone;NSC 109351",
    "duplicated_cas_no": "1604798-98-2",
    "SMILES": "O=C1C=2C(=C(O)C3=C(C2O)[C@@H](O)C[C@@](C(C)=O)(O)C3)C(=O)C=4C1=C(OC)C=CC4",
    "meta_data": {
        "InChI": "InChI=1S/C21H18O8/c1-8(22)21(28)6-10-13(11(23)7-21)19(26)16-15(18(10)25)17(24)9-4-3-5-12(29-2)14(9)20(16)27/h3-5,11,23,25-26,28H,6-7H2,1-2H3/t11-,21-/m0/s1",
        "InChIKey": null,
        "Canonical SMILES": "O=C1C=2C=CC=C(OC)C2C(=O)C=3C(O)=C4C(=C(O)C13)CC(O)(C(=O)C)CC4O",
        "Molecular Formula": "C<sub>21</sub>H<sub>18</sub>O<sub>8</sub>",
        "Molecular Mass": "398.36",
        "Melting Point": "213-214 °C"
    }
}