{
    "cas_no": "15893-52-4",
    "key_name": "2,4-Dihydroxy-7-methoxy-1,4-benzoxazin-3-one",
    "cn_name": null,
    "alternate_name": "2<em>H</em>-1,4-Benzoxazin-3(4<em>H</em>)-one, 2,4-dihydroxy-7-methoxy-;2,4-Dihydroxy-7-methoxy-2<em>H</em>-1,4-benzoxazin-3(4<em>H</em>)-one;2,4-Dihydroxy-7-methoxy-1,4-(2<em>H</em>)-benzoxazin-3-one;2,4-Dihydroxy-7-methoxy-1,4-benzoxazin-3-one;2,4-Dihydroxy-3-keto-7-methoxy-1,4-benzoxazine;2,4-Dihydroxy-7-methoxy-4<em>H</em>-1,4-benzoxazin-3(2<em>H</em>)-one;2,3-Dihydro-2,4-dihydroxy-7-methoxy-4<em>H</em>-1,4-benzoxazin-3-one;2,4-Dihydroxy-7-methoxy-1,4-benzoxazine-3-one;DIMBOA;2,4-Dihydroxy-7-methoxy-2<em>H</em>-1,4-benzoxazin-3-one;(±)-DIMBOA;(±)-2,4-Dihydroxy-7-methoxy-2<em>H</em>-1,4-benzoxazin-3(4<em>H</em>)-one;2,4-Dihydroxy-7-methoxy-3,4-dihydro-2<em>H</em>-1,4-benzoxazin-3-one",
    "duplicated_cas_no": "82045-68-9;157194-49-5",
    "SMILES": "ON1C=2C(=CC(OC)=CC2)OC(O)C1=O",
    "meta_data": {
        "InChI": "InChI=1S/C9H9NO5/c1-14-5-2-3-6-7(4-5)15-9(12)8(11)10(6)13/h2-4,9,12-13H,1H3",
        "InChIKey": null,
        "Canonical SMILES": "O=C1N(O)C2=CC=C(OC)C=C2OC1O",
        "Molecular Formula": "C<sub>9</sub>H<sub>9</sub>NO<sub>5</sub>",
        "Molecular Mass": "211.17",
        "Melting Point": "150-155 °C"
    }
}