{
    "cas_no": "92-44-4",
    "key_name": "2,3-Dihydroxynaphthalene",
    "cn_name": "2,3-二羟基萘;",
    "alternate_name": "2,3-Naphthalenediol;2,3-Dihydroxynaphthalene;NSC 8707;D 0593",
    "duplicated_cas_no": "",
    "SMILES": "OC1=CC2=C(C=C1O)C=CC=C2",
    "meta_data": {
        "InChI": "InChI=1S/C10H8O2/c11-9-5-7-3-1-2-4-8(7)6-10(9)12/h1-6,11-12H",
        "InChIKey": null,
        "Canonical SMILES": "OC1=CC=2C=CC=CC2C=C1O",
        "Molecular Formula": "C<sub>10</sub>H<sub>8</sub>O<sub>2</sub>",
        "Molecular Mass": "160.17",
        "Melting Point": "162 °C"
    }
}