{
    "cas_no": "965-52-6",
    "key_name": "Nifuroxazide",
    "cn_name": "硝呋酚酰肼;4-羟基-2\"-(5-硝基呋喃甲叉)-苯酰肼;",
    "alternate_name": "Benzoic acid, 4-hydroxy-, 2-[(5-nitro-2-furanyl)methylene]hydrazide;Benzoic acid, <em>p</em>-hydroxy-, (5-nitrofurfurylidene)hydrazide;Benzoic acid, 4-hydroxy-, [(5-nitro-2-furanyl)methylene]hydrazide;RC 30-109;Nifuroxazide;5-Nitro-2-furfurylidene-4-hydroxybenzhydrazide;(5-Nitro-2-furfurylidene)(4-hydroxybenzoyl)hydrazine;<em>p</em>-Hydroxybenzoic acid (5-nitrofurfurylidene)hydrazide;1-(<em>p</em>-Hydroxybenzoyl)-2-(5-nitrofurfurylidene)hydrazine;5-Nitro-2-furaldehyde <em>p</em>-hydroxybenzoylhydrazone;Diarlidan;Dicoferin;Nifuroxazid;Ercefurol;Ercefuryl;27-109RC;Pentofuryl;Bacifurane;RC 27109;Adral;Enterofuril;Antinal",
    "duplicated_cas_no": "",
    "SMILES": "C(=NNC(=O)C1=CC=C(O)C=C1)C=2OC(N(=O)=O)=CC2",
    "meta_data": {
        "InChI": "InChI=1S/C12H9N3O5/c16-9-3-1-8(2-4-9)12(17)14-13-7-10-5-6-11(20-10)15(18)19/h1-7,16H,(H,14,17)",
        "InChIKey": null,
        "Canonical SMILES": "O=C(NN=CC=1OC(=CC1)N(=O)=O)C2=CC=C(O)C=C2",
        "Molecular Formula": "C<sub>12</sub>H<sub>9</sub>N<sub>3</sub>O<sub>5</sub>",
        "Molecular Mass": "275.22",
        "Melting Point": "298 °C"
    }
}