{
    "cas_no": "103-40-2",
    "key_name": "1-(Phenylmethyl) butanedioate",
    "cn_name": null,
    "alternate_name": "Butanedioic acid, 1-(phenylmethyl) ester;Succinic acid, monobenzyl ester;Butanedioic acid, mono(phenylmethyl) ester;Succinic acid, benzyl ester;1-(Phenylmethyl) butanedioate;Benzyl succinate;Monobenzyl succinate;4-(Benzyloxy)-4-oxobutanoic acid",
    "duplicated_cas_no": "",
    "SMILES": "C(OC(CCC(O)=O)=O)C1=CC=CC=C1",
    "meta_data": {
        "InChI": "InChI=1S/C11H12O4/c12-10(13)6-7-11(14)15-8-9-4-2-1-3-5-9/h1-5H,6-8H2,(H,12,13)",
        "InChIKey": null,
        "Canonical SMILES": "O=C(O)CCC(=O)OCC=1C=CC=CC1",
        "Molecular Formula": "C<sub>11</sub>H<sub>12</sub>O<sub>4</sub>",
        "Molecular Mass": "208.21",
        "Melting Point": "60 °C"
    }
}