{
    "cas_no": "6850-35-7",
    "key_name": "3-Methylcyclohexanamine",
    "cn_name": null,
    "alternate_name": "Cyclohexanamine, 3-methyl-;Cyclohexylamine, 3-methyl-;3-Methylcyclohexanamine;<em>m</em>-Methylcyclohexylamine;1,3-Aminomethylcyclohexane;3-Methylcyclohexylamine;3-Methylcyclohexan-1-amine",
    "duplicated_cas_no": "",
    "SMILES": "CC1CC(N)CCC1",
    "meta_data": {
        "InChI": "InChI=1S/C7H15N/c1-6-3-2-4-7(8)5-6/h6-7H,2-5,8H2,1H3",
        "InChIKey": null,
        "Canonical SMILES": "NC1CCCC(C)C1",
        "Molecular Formula": "C<sub>7</sub>H<sub>15</sub>N",
        "Molecular Mass": "113.20",
        "Boiling Point": "152-153 °C @ Press: 752 Torr",
        "Melting Point": "74-75 °C",
        "Density": "0.8562 g/cm³ @ Temp: 19 °C"
    }
}