{
    "cas_no": "460-35-5",
    "key_name": "3-Chloro-1,1,1-trifluoropropane",
    "cn_name": null,
    "alternate_name": "Propane, 3-chloro-1,1,1-trifluoro-;3-Chloro-1,1,1-trifluoropropane;1-Chloro-3,3,3-trifluoropropane;1,1,1-Trifluoro-3-chloropropane;3,3,3-Trifluoro-1-chloropropane;3,3,3-Trifluorochloropropane;HCFC 253fb;R 253fb;3,3,3-Trifluoropropyl chloride",
    "duplicated_cas_no": "",
    "SMILES": "C(C(F)(F)F)CCl",
    "meta_data": {
        "InChI": "InChI=1S/C3H4ClF3/c4-2-1-3(5,6)7/h1-2H2",
        "InChIKey": null,
        "Canonical SMILES": "FC(F)(F)CCCl",
        "Molecular Formula": "C<sub>3</sub>H<sub>4</sub>ClF<sub>3</sub>",
        "Molecular Mass": "132.51",
        "Boiling Point": "45.1 °C",
        "Melting Point": "-106.5 °C",
        "Density": "1.3253 g/cm³ @ Temp: 20 °C"
    }
}