{
    "cas_no": "19812-93-2",
    "key_name": "4′-Cyano-4-hydroxybiphenyl",
    "cn_name": "氰基联苯酚;4\"-氰基-4-羟基联苯;",
    "alternate_name": "[1,1′-Biphenyl]-4-carbonitrile, 4′-hydroxy-;4-Biphenylcarbonitrile, 4′-hydroxy-;4′-Hydroxy[1,1′-biphenyl]-4-carbonitrile;4′-Hydroxy-4-biphenylcarbonitrile;4-Cyano-4′-hydroxybiphenyl;4′-Cyano-4-hydroxybiphenyl;4-Hydroxy-4′-cyanobiphenyl;4-(4-Hydroxyphenyl)benzonitrile;4-(4-Cyanophenyl)phenol;4-(4′-Cyanophenyl)phenol;4′-Hydroxy-4-biphenylylcarbonitrile;4′-Hydroxy-4-cyanobiphenyl;4′-Cyanobiphenyl-4-ol;4′-Hydroxybiphenyl-4-nitrile;4′-Hydroxy-4-cyano-1,1′-biphenyl;4′-Cyano-4-biphenol;4-Hydro-4′-cyanobiphenyl",
    "duplicated_cas_no": "",
    "SMILES": "C(#N)C1=CC=C(C=C1)C2=CC=C(O)C=C2",
    "meta_data": {
        "InChI": "InChI=1S/C13H9NO/c14-9-10-1-3-11(4-2-10)12-5-7-13(15)8-6-12/h1-8,15H",
        "InChIKey": null,
        "Canonical SMILES": "N#CC1=CC=C(C=C1)C=2C=CC(O)=CC2",
        "Molecular Formula": "C<sub>13</sub>H<sub>9</sub>NO",
        "Molecular Mass": "195.22",
        "Melting Point": "193-194 °C (sublm)"
    }
}