{
    "cas_no": "598-63-0",
    "key_name": "Lead carbonate (PbCO<sub>3</sub>)",
    "cn_name": null,
    "alternate_name": "Carbonic acid, lead(2+) salt (1:1);Lead carbonate (PbCO<sub>3</sub>);Lead carbonate;Dibasic lead carbonate;Lead(2+) carbonate;Plumbous carbonate;Lead(II) carbonate",
    "duplicated_cas_no": "64470-66-2;17398-75-3",
    "SMILES": "C(=O)(O)O.[Pb]",
    "meta_data": {
        "InChI": "InChI=1S/CH2O3.Pb/c2-1(3)4;/h(H2,2,3,4);",
        "InChIKey": null,
        "Canonical SMILES": "[Pb].O=C(O)O",
        "Molecular Formula": "CH<sub>2</sub>O<sub>3</sub>.Pb",
        "Molecular Mass": "",
        "Melting Point": "315 °C (decomp)",
        "Density": "6.6 g/cm³"
    }
}