{
    "cas_no": "37750-29-1",
    "key_name": "2-[(4-Chlorophenyl)thio]benzenamine",
    "cn_name": "2-Amino-4\"\"-chlorodiphenylsulfide;",
    "alternate_name": "Benzenamine, 2-[(4-chlorophenyl)thio]-;Aniline, <em>o</em>-[(<em>p</em>-chlorophenyl)thio]-;2-[(4-Chlorophenyl)thio]benzenamine;2-Aminophenyl 4-chlorophenyl sulfide;<em>o</em>-(<em>p</em>-Chlorophenylthio)aniline;2-[(4-Chlorophenyl)sulfanyl]aniline;2-(4-Chlorophenyl)sulfanylaniline",
    "duplicated_cas_no": "",
    "SMILES": "S(C1=C(N)C=CC=C1)C2=CC=C(Cl)C=C2",
    "meta_data": {
        "InChI": "InChI=1S/C12H10ClNS/c13-9-5-7-10(8-6-9)15-12-4-2-1-3-11(12)14/h1-8H,14H2",
        "InChIKey": null,
        "Canonical SMILES": "ClC1=CC=C(SC=2C=CC=CC2N)C=C1",
        "Molecular Formula": "C<sub>12</sub>H<sub>10</sub>ClNS",
        "Molecular Mass": "235.73",
        "Boiling Point": "164-166 °C @ Press: 0.45 Torr",
        "Melting Point": "32 °C"
    }
}