{
    "cas_no": "62949-76-2",
    "key_name": "Xanthoangelol",
    "cn_name": null,
    "alternate_name": "2-Propen-1-one, 1-[3-[(2<em>E</em>)-3,7-dimethyl-2,6-octadien-1-yl]-2,4-dihydroxyphenyl]-3-(4-hydroxyphenyl)-, (2<em>E</em>)-;2-Propen-1-one, 1-[3-(3,7-dimethyl-2,6-octadienyl)-2,4-dihydroxyphenyl]-3-(4-hydroxyphenyl)-, (<em>E</em>,<em>E</em>)-;2-Propen-1-one, 1-[3-[(2<em>E</em>)-3,7-dimethyl-2,6-octadienyl]-2,4-dihydroxyphenyl]-3-(4-hydroxyphenyl)-, (2<em>E</em>)-;(2<em>E</em>)-1-[3-[(2<em>E</em>)-3,7-Dimethyl-2,6-octadien-1-yl]-2,4-dihydroxyphenyl]-3-(4-hydroxyphenyl)-2-propen-1-one;Xanthoangelol;2′,4′,4-Trihydroxy-3′-geranylchalcone",
    "duplicated_cas_no": "",
    "SMILES": "C(/C=C/C1=CC=C(O)C=C1)(=O)C2=C(O)C(C/C=C(/CCC=C(C)C)\\C)=C(O)C=C2",
    "meta_data": {
        "InChI": "InChI=1S/C25H28O4/c1-17(2)5-4-6-18(3)7-13-21-24(28)16-14-22(25(21)29)23(27)15-10-19-8-11-20(26)12-9-19/h5,7-12,14-16,26,28-29H,4,6,13H2,1-3H3/b15-10+,18-7+",
        "InChIKey": null,
        "Canonical SMILES": "O=C(C=CC1=CC=C(O)C=C1)C2=CC=C(O)C(=C2O)CC=C(C)CCC=C(C)C",
        "Molecular Formula": "C<sub>25</sub>H<sub>28</sub>O<sub>4</sub>",
        "Molecular Mass": "392.49",
        "Melting Point": "141-143 °C"
    }
}