{
    "cas_no": "10387-40-3",
    "key_name": "Potassium thioacetate",
    "cn_name": "硫代乙酸钾;",
    "alternate_name": "Ethanethioic acid, potassium salt (1:1);Acetic acid, thio-, potassium salt;Ethanethioic acid, potassium salt;Potassium thiolacetate;Potassium thioacetate;Potassium thioethanoate;<em>S</em>-Potassium thioacetate;Potassium ethanethioate;MeCOSK;Potassium, (ethanethioato-κ<em>S</em>)-",
    "duplicated_cas_no": "15074-71-2;1261929-34-3;2135750-25-1;3024603-44-6",
    "SMILES": "C(C)(=O)S.[K]",
    "meta_data": {
        "InChI": "InChI=1S/C2H4OS.K/c1-2(3)4;/h1H3,(H,3,4);",
        "InChIKey": null,
        "Canonical SMILES": "[K].O=C(S)C",
        "Molecular Formula": "C<sub>2</sub>H<sub>4</sub>OS.K",
        "Molecular Mass": "",
        "Melting Point": "173-176 °C",
        "Density": "1.58 g/cm³"
    }
}