{
    "cas_no": "878-23-9",
    "key_name": "2-Bromo-1-ethylpyridinium tetrafluoroborate",
    "cn_name": "2-溴-1-乙基吡啶四氟硼酸盐;",
    "alternate_name": "Pyridinium, 2-bromo-1-ethyl-, tetrafluoroborate(1-) (1:1);Pyridinium, 2-bromo-1-ethyl-, tetrafluoroborate;Pyridinium, 2-bromo-1-ethyl-, tetrafluoroborate(1-);2-Bromo-1-ethylpyridinium tetrafluoroborate;Borate(1-), tetrafluoro-, 2-bromo-1-ethylpyridinium;BEP",
    "duplicated_cas_no": "",
    "SMILES": "C(C)[N+]=1C(Br)=CC=CC1.[B+3]([F-])([F-])([F-])[F-]",
    "meta_data": {
        "InChI": "InChI=1S/C7H9BrN.BF4/c1-2-9-6-4-3-5-7(9)8;2-1(3,4)5/h3-6H,2H2,1H3;/q+1;-1",
        "InChIKey": null,
        "Canonical SMILES": "[F-][B+3]([F-])([F-])[F-].BrC=1C=CC=C[N+]1CC",
        "Molecular Formula": "C<sub>7</sub>H<sub>9</sub>BrN.BF<sub>4</sub>",
        "Molecular Mass": "",
        "Melting Point": "102-104 °C"
    }
}