{
    "cas_no": "13726-52-8",
    "key_name": "1,5-Diethyl <em>N</em>-(4-aminobenzoyl)-<span class=\"text-smallcaps\">L</span>-glutamate",
    "cn_name": "N-(4-氨基苯(甲)酰)-L-谷氨酸二乙酯;N-(4-氨基苯(甲)酰)-L-谷氨酸二乙酯;Diethyl N-(4-Aminobenzoyl)-L-glu;",
    "alternate_name": "<span class=\"text-smallcaps\">L</span>-Glutamic acid, <em>N</em>-(4-aminobenzoyl)-, 1,5-diethyl ester;Glutamic acid, <em>N</em>-(<em>p</em>-aminobenzoyl)-, diethyl ester, <span class=\"text-smallcaps\">L</span>-;<span class=\"text-smallcaps\">L</span>-Glutamic acid, <em>N</em>-(4-aminobenzoyl)-, diethyl ester;Glutamic acid, <em>N</em>-(<em>p</em>-aminobenzoyl)-, diethyl ester;1,5-Diethyl <em>N</em>-(4-aminobenzoyl)-<span class=\"text-smallcaps\">L</span>-glutamate;Diethyl <em>p</em>-aminobenzoyl-<span class=\"text-smallcaps\">L</span>-glutamate;4-Aminobenzoyl-<span class=\"text-smallcaps\">L</span>-glutamic acid, diethyl ester;<em>N</em>-(4-Aminobenzoyl)-<span class=\"text-smallcaps\">L</span>-glutamic acid diethyl ester;NSC 82885;(<em>S</em>)-Diethyl 2-(4-aminobenzamido)pentanedioate",
    "duplicated_cas_no": "34136-22-6;51934-20-4;90791-08-5;194423-81-9;1130161-11-3",
    "SMILES": "C(N[C@@H](CCC(OCC)=O)C(OCC)=O)(=O)C1=CC=C(N)C=C1",
    "meta_data": {
        "InChI": "InChI=1S/C16H22N2O5/c1-3-22-14(19)10-9-13(16(21)23-4-2)18-15(20)11-5-7-12(17)8-6-11/h5-8,13H,3-4,9-10,17H2,1-2H3,(H,18,20)/t13-/m0/s1",
        "InChIKey": null,
        "Canonical SMILES": "O=C(OCC)CCC(NC(=O)C1=CC=C(N)C=C1)C(=O)OCC",
        "Molecular Formula": "C<sub>16</sub>H<sub>22</sub>N<sub>2</sub>O<sub>5</sub>",
        "Molecular Mass": "322.36",
        "Melting Point": "143-144 °C"
    }
}