{
    "cas_no": "135-61-5",
    "key_name": "3-Hydroxy-<em>N</em>-(2-methylphenyl)-2-naphthalenecarboxamide",
    "cn_name": "色酚AS-D;冰染偶合组分18;N-(3-羟基-2-萘甲酰基)邻甲苯胺;",
    "alternate_name": "2-Naphthalenecarboxamide, 3-hydroxy-<em>N</em>-(2-methylphenyl)-;2-Naphtho-<em>o</em>-toluidide, 3-hydroxy-;3-Hydroxy-<em>N</em>-(2-methylphenyl)-2-naphthalenecarboxamide;C.I. 37520;Acco Naf-Sol AS-D;Acco Naphthol AS-D;Acna Naphthol E;Amanil Naphthol AS-D;Amarthol AS-D;Anthonaphthol AS-D;Azoground D;Azoic Coupling Component 18;Azonaphtol OT;Brenthol OT;Brentosyn OTN;Celcot RTO;Cibanaphthol RTO;C.I. Azoic Coupling Component 18;Daito Grounder D;Diathol D;Dragonthol D;Hiltonaphthol AS-D;3-Hydroxynaphthalene-2-carboxy-<em>o</em>-toluidide;Mitsui Naphthozol D;Naftolo MD;Naphtanilide D;Naphtanilide D Supra;Naphtazol D;Naphthanil AS-D;Naphthoide AD;Naphthol AS-D Supra;Naphtoelan D;Naphtol AS-D;Naphtol AS-D Supra;Solunaptol OT;<em>N</em>-(<em>o</em>-Tolyl)-3-hydroxy-2-naphthamide;Tulathol AS-D;Ultrazol D;Azotol OT;Naphthol AS-D;3-Hydroxy-2-naphtho-<em>o</em>-toluidide;3-Hydroxy-2-naphth-<em>o</em>-toluidide;1-(2-Hydroxy-3-naphthoylamino)-2-methylbenzene;2-Hydroxy-3-naphtho-<em>o</em>-toluidide;C.I. Developer 21;Miketazol Developer NDF;C.I. Azoic Coupling Component 110;Dianix Developer ND;2-Hydroxy-3-naphthoic <em>o</em>-toluidide;3-Hydroxy-2′-methyl-2-naphthanilide;2-Hydroxynaphthalene-3-carbonyl-2′-methylanilide;2-Hydroxy-<em>N</em>-(2-methylphenyl)-3-naphthamide;2-Hydroxy-3-naphthoic acid <em>o</em>-toluidide;NSC 37188;N-(2-Methylphenyl)-3-hydroxynaphthalene-2-carboxamide;Kiwa Grounder D;Dycosthol AS-D;Azobase Red OT;Conazoic AM;Anarthol AS-D;Napthol AD;Napthol ASD;Naftol AS-D;Naphthol ASBT;Hebeithol AS-D;C.I. Azo Coupling Comp. 18;<em>N</em>-(2-Methylphenyl)-3-hydroxynaphthalene-2-carboxamide;3-Hydroxy-<em>N</em>-(<em>o</em>-tolyl)-2-naphthamide;Agrocer Red 112",
    "duplicated_cas_no": "12221-06-6;12235-62-0",
    "SMILES": "C(NC1=C(C)C=CC=C1)(=O)C2=CC3=C(C=C2O)C=CC=C3",
    "meta_data": {
        "InChI": "InChI=1S/C18H15NO2/c1-12-6-2-5-9-16(12)19-18(21)15-10-13-7-3-4-8-14(13)11-17(15)20/h2-11,20H,1H3,(H,19,21)",
        "InChIKey": null,
        "Canonical SMILES": "O=C(NC=1C=CC=CC1C)C2=CC=3C=CC=CC3C=C2O",
        "Molecular Formula": "C<sub>18</sub>H<sub>15</sub>NO<sub>2</sub>",
        "Molecular Mass": "277.32",
        "Melting Point": "192-193 °C"
    }
}