{
    "cas_no": "6027-21-0",
    "key_name": "<span class=\"text-smallcaps\">D</span>-Homoserine",
    "cn_name": "D-高丝氨酸;(R)-(+)-2-氨基-4-羟基丁酸;",
    "alternate_name": "<span class=\"text-smallcaps\">D</span>-Homoserine;Butyric acid, 2-amino-4-hydroxy-, <span class=\"text-smallcaps\">D</span>-;NSC 206298;(R)-2-Amino-4-hydroxybutanoic acid;(2R)-2-Azaniumyl-4-hydroxybutanoate;(2R)-2-Amino-4-hydroxybutanoic acid",
    "duplicated_cas_no": "",
    "SMILES": "[C@@H](CCO)(C(O)=O)N",
    "meta_data": {
        "InChI": "InChI=1S/C4H9NO3/c5-3(1-2-6)4(7)8/h3,6H,1-2,5H2,(H,7,8)/t3-/m1/s1",
        "InChIKey": null,
        "Canonical SMILES": "O=C(O)C(N)CCO",
        "Molecular Formula": "C<sub>4</sub>H<sub>9</sub>NO<sub>3</sub>",
        "Molecular Mass": "119.12",
        "Melting Point": "203 °C (decomp)"
    }
}