{
    "cas_no": "216854-24-9",
    "key_name": "1,1-Dimethylethyl <em>N</em>-[(3<em>S</em>)-1-(phenylmethyl)-3-piperidinyl]carbamate",
    "cn_name": "R)-1-苄基-3-N-叔丁氧羰基氨基哌啶;",
    "alternate_name": "Carbamic acid, <em>N</em>-[(3<em>S</em>)-1-(phenylmethyl)-3-piperidinyl]-, 1,1-dimethylethyl ester;Carbamic acid, [(3<em>S</em>)-1-(phenylmethyl)-3-piperidinyl]-, 1,1-dimethylethyl ester;1,1-Dimethylethyl <em>N</em>-[(3<em>S</em>)-1-(phenylmethyl)-3-piperidinyl]carbamate;(<em>S</em>)-<em>tert</em>-Butyl(1-benzylpiperidin-3-yl)carbamate",
    "duplicated_cas_no": "",
    "SMILES": "C(N1C[C@@H](NC(OC(C)(C)C)=O)CCC1)C2=CC=CC=C2",
    "meta_data": {
        "InChI": "InChI=1S/C17H26N2O2/c1-17(2,3)21-16(20)18-15-10-7-11-19(13-15)12-14-8-5-4-6-9-14/h4-6,8-9,15H,7,10-13H2,1-3H3,(H,18,20)/t15-/m0/s1",
        "InChIKey": null,
        "Canonical SMILES": "O=C(OC(C)(C)C)NC1CN(CC=2C=CC=CC2)CCC1",
        "Molecular Formula": "C<sub>17</sub>H<sub>26</sub>N<sub>2</sub>O<sub>2</sub>",
        "Molecular Mass": "290.40",
        "Melting Point": "78-80 °C"
    }
}