{
    "cas_no": "4837-20-1",
    "key_name": "4-(Difluoromethoxy)benzoic acid",
    "cn_name": null,
    "alternate_name": "Benzoic acid, 4-(difluoromethoxy)-;<em>p</em>-Anisic acid, α,α-difluoro-;4-(Difluoromethoxy)benzoic acid;4-Difluoromethoxybenzoic acid;α,α-Difluoro-<em>p</em>-anisic acid;<em>p</em>-(Difluoromethoxy)benzoic acid",
    "duplicated_cas_no": "",
    "SMILES": "O(C(F)F)C1=CC=C(C(O)=O)C=C1",
    "meta_data": {
        "InChI": "InChI=1S/C8H6F2O3/c9-8(10)13-6-3-1-5(2-4-6)7(11)12/h1-4,8H,(H,11,12)",
        "InChIKey": null,
        "Canonical SMILES": "O=C(O)C1=CC=C(OC(F)F)C=C1",
        "Molecular Formula": "C<sub>8</sub>H<sub>6</sub>F<sub>2</sub>O<sub>3</sub>",
        "Molecular Mass": "188.13",
        "Melting Point": "170-171 °C"
    }
}