{
    "cas_no": "3162-96-7",
    "key_name": "Methyl 4,6-<em>O</em>-benzylidene-α-<span class=\"text-smallcaps\">D</span>-glucopyranoside",
    "cn_name": "4,6-O-苯亚甲基-α-D-葡萄糖苷;",
    "alternate_name": "α-<span class=\"text-smallcaps\">D</span>-Glucopyranoside, methyl 4,6-<em>O</em>-(phenylmethylene)-;Glucopyranoside, methyl 4,6-<em>O</em>-benzylidene-, α-<span class=\"text-smallcaps\">D</span>-;Pyrano[3,2-<em>d</em>]-1,3-dioxin, α-<span class=\"text-smallcaps\">D</span>-glucopyranoside deriv.;Methyl 4,6-<em>O</em>-(phenylmethylene)-α-<span class=\"text-smallcaps\">D</span>-glucopyranoside;Methyl 4,6-<em>O</em>-benzylidene-α-<span class=\"text-smallcaps\">D</span>-glucopyranoside;NSC 1681",
    "duplicated_cas_no": "",
    "SMILES": "O[C@H]1[C@]2([C@](O[C@H](OC)[C@@H]1O)(COC(O2)C3=CC=CC=C3)[H])[H]",
    "meta_data": {
        "InChI": "InChI=1S/C14H18O6/c1-17-14-11(16)10(15)12-9(19-14)7-18-13(20-12)8-5-3-2-4-6-8/h2-6,9-16H,7H2,1H3/t9-,10-,11-,12-,13?,14+/m1/s1",
        "InChIKey": null,
        "Canonical SMILES": "OC1C(OC)OC2COC(OC2C1O)C=3C=CC=CC3",
        "Molecular Formula": "C<sub>14</sub>H<sub>18</sub>O<sub>6</sub>",
        "Molecular Mass": "282.29",
        "Melting Point": "161-162 °C"
    }
}