{
    "cas_no": "58-93-5",
    "key_name": "Hydrochlorothiazide",
    "cn_name": "双氢氯噻嗪;6-氯-3,4-二氢-2H-1,2,4-苯并噻二嗪-7-磺酰胺-1,1-二氧化物;",
    "alternate_name": "2<em>H</em>-1,2,4-Benzothiadiazine-7-sulfonamide, 6-chloro-3,4-dihydro-, 1,1-dioxide;Su 5879;Aquarius;6-Chloro-3,4-dihydro-2<em>H</em>-1,2,4-benzothiadiazine-7-sulfonamide 1,1-dioxide;6-Chloro-3,4-dihydro-7-sulfamoyl-2<em>H</em>-1,2,4-benzothiadiazine 1,1-dioxide;6-Chloro-7-sulfamoyl-3,4-dihydro-2<em>H</em>-1,2,4-benzothiadiazine 1,1-dioxide;Chlorosulthiadil;Dichlotride;Diclotride;Dihydrochlorothiazide;3,4-Dihydrochlorothiazide;Esidrex;Esidrix;HCTZ;HCZ;Hydril;Hydrochlorothiazide;Hydro-Diuril;Hydrosaluric;Hypothiazid;Hypothiazide;Oretic;Vetidrex;Hypothiazide (C<sub>7</sub>H<sub>8</sub>ClN<sub>3</sub>O<sub>4</sub>S<sub>2</sub>);Nefrix;Hydrochlorthiazide;6-Chloro-7-sulfamoyl-3,4-dihydrobenzo-1,2,4-thiadiazine-1,1-dioxide;Hydrochlorothiazid;Dihydrochlorothiazidum;Dichlotiazid;Disalunil;Hidril;Hidrochlortiazid;Idrotiazide;Drenol;Megadiuril;Hydro-Aquil;Hidrotiazida;Hydrodiuretic;Dihydrochlorurite;Dihydrochlorurit;Microzide;Hidrenox;Nefrol;Neoflumen;Dichlozid;Diuret-P;Newtolide;Hidrosaluretil;Apo-Hydro;Natrimax;Dichlothiazide;Servithiazid;Urirex;Tandiur;Hydro-T;Hydrex-semi;HCT;Didralin;Hydro Par;Carozide;Idrodiuvis;Hydrozide;Hydrochlorzide;Manschitt;Zide;Hydrocot;Diurizid;Aquazide H;Clothia;Maschitt;Disothiazide;Diurex;Hydrex;Pantemon;Chlorsulthiadil;Acuretic;Ziac;Lotensin HCT;Caplaril;HH 25/25;Thiuretic;Unipres;HH 50/50;Timolide;Lopressor HCT;Apresazide;NSC 53477;Aquazide;Clorana;Trilopace H;MeSH ID: D006852",
    "duplicated_cas_no": "125727-50-6;8049-49-8",
    "SMILES": "O=S1(=O)C=2C(=CC(Cl)=C(S(N)(=O)=O)C2)NCN1",
    "meta_data": {
        "InChI": "InChI=1S/C7H8ClN3O4S2/c8-4-1-5-7(2-6(4)16(9,12)13)17(14,15)11-3-10-5/h1-2,10-11H,3H2,(H2,9,12,13)",
        "InChIKey": null,
        "Canonical SMILES": "O=S(=O)(N)C=1C=C2C(=CC1Cl)NCNS2(=O)=O",
        "Molecular Formula": "C<sub>7</sub>H<sub>8</sub>ClN<sub>3</sub>O<sub>4</sub>S<sub>2</sub>",
        "Molecular Mass": "297.74",
        "Melting Point": "273-275 °C",
        "Density": "1.801 g/cm³ (crystalline)"
    }
}