{
    "cas_no": "1481-68-1",
    "key_name": "1-Chloro-2,4-difluoro-5-nitrobenzene",
    "cn_name": "5-氯-2,4-二氟硝基苯;1-氯-2,4-二氟-5-硝基苯;",
    "alternate_name": "Benzene, 1-chloro-2,4-difluoro-5-nitro-;1-Chloro-2,4-difluoro-5-nitrobenzene;5-Chloro-2,4-difluoronitrobenzene;2,4-Difluoro-5-chloronitrobenzene",
    "duplicated_cas_no": "",
    "SMILES": "N(=O)(=O)C1=C(F)C=C(F)C(Cl)=C1",
    "meta_data": {
        "InChI": "InChI=1S/C6H2ClF2NO2/c7-3-1-6(10(11)12)5(9)2-4(3)8/h1-2H",
        "InChIKey": null,
        "Canonical SMILES": "O=N(=O)C1=CC(Cl)=C(F)C=C1F",
        "Molecular Formula": "C<sub>6</sub>H<sub>2</sub>ClF<sub>2</sub>NO<sub>2</sub>",
        "Molecular Mass": "193.54",
        "Boiling Point": "105 °C @ Press: 15 Torr"
    }
}