{
    "cas_no": "123-28-4",
    "key_name": "Dilauryl thiodipropionate",
    "cn_name": "硫代二丙酸双十二烷酯;硫代二丙酸二月桂酯;抗氧剂DLTP;",
    "alternate_name": "Propanoic acid, 3,3′-thiobis-, 1,1′-didodecyl ester;Propionic acid, 3,3′-thiodi-, didodecyl ester;Propanoic acid, 3,3′-thiobis-, didodecyl ester;Dilauryl thiodipropionate;Dilauryl β,β′-thiodipropionate;Dilauryl 3,3′-thiodipropionate;Plastanox LTDP Antioxidant;Thiodipropionic acid didodecyl ester;Tyox B;Antioxidant AS;Thiobis(dodecyl propionate);Didodecyl 3,3′-thiodipropionate;Stabilizer DLT;Bis(dodecyloxycarbonylethyl) sulfide;DLTDP;DLT;Plastanox LTDP;Lauryl 3,3′-thiodipropionate;Advastab 800;DMPTP;DLTP;Ipognox 89;Neganox DLTP;Antioxidant LTDP;Dilauryl β-thiodipropionate;Irganox PS 800;Milban F;Lusmit;Carstab DLTDP;D 1 (antioxidant);PS 800;Arbestab DLTP;D 1;Nonox DLTDP;Antiox L;Rasumitto;Sumilizer TPL;Cyanox LTDP;Hostanox SE 1;Sumilizer TPL-R;TPL;Nocrac 400;Antiox DLTP;Irgafos PS 800;TPL-R;Rasumitto LG;Yoshinox DLTP;NSC 65494;Irganox PS 800FL;KY 800;BNX DLTDP;Naugard DLTDP;Irganox DLTP;Antioxidant 800;Chinox DLTP;Thanox DLTP;3,3′-Thiodipropionic acid di(<em>n</em>-dodecyl) ester;Irganox PS 800FD;PS 800FD;Sonox DLTDP;Songnox DLTDP;Antioxidant DLDP;Antioxidant DLTP;Antioxidant TPL;PS 800FL;Antioxidant DLTDP;Tinogard DA;TF 6693;Gsinox DLTP;BSD-DLTP;KU 65;Irganox PS 8010FL",
    "duplicated_cas_no": "53571-83-8;115628-90-5;914648-48-9;1185856-54-5;1555920-79-0",
    "SMILES": "C(CCSCCC(OCCCCCCCCCCCC)=O)(OCCCCCCCCCCCC)=O",
    "meta_data": {
        "InChI": "InChI=1S/C30H58O4S/c1-3-5-7-9-11-13-15-17-19-21-25-33-29(31)23-27-35-28-24-30(32)34-26-22-20-18-16-14-12-10-8-6-4-2/h3-28H2,1-2H3",
        "InChIKey": null,
        "Canonical SMILES": "O=C(OCCCCCCCCCCCC)CCSCCC(=O)OCCCCCCCCCCCC",
        "Molecular Formula": "C<sub>30</sub>H<sub>58</sub>O<sub>4</sub>S",
        "Molecular Mass": "514.84",
        "Melting Point": "40 °C"
    }
}