{
    "cas_no": "56765-79-8",
    "key_name": "4-Amino-1,2-benzenedicarbonitrile",
    "cn_name": "4-氨基邻苯二甲腈;",
    "alternate_name": "1,2-Benzenedicarbonitrile, 4-amino-;Phthalonitrile, 4-amino-;4-Amino-1,2-benzenedicarbonitrile;4-Aminophthalonitrile;3,4-Dicyanoaniline;4-Amino-1,2-dicyanobenzene;NSC 309814",
    "duplicated_cas_no": "",
    "SMILES": "C(#N)C1=C(C#N)C=C(N)C=C1",
    "meta_data": {
        "InChI": "InChI=1S/C8H5N3/c9-4-6-1-2-8(11)3-7(6)5-10/h1-3H,11H2",
        "InChIKey": null,
        "Canonical SMILES": "N#CC1=CC=C(N)C=C1C#N",
        "Molecular Formula": "C<sub>8</sub>H<sub>5</sub>N<sub>3</sub>",
        "Molecular Mass": "143.15",
        "Melting Point": "185 °C"
    }
}