{
    "cas_no": "629-73-2",
    "key_name": "1-Hexadecene",
    "cn_name": "1-十六烯;1-十六烯;鲸蜡烯;",
    "alternate_name": "1-Hexadecene;1-Cetene;Cetene;<em>n</em>-Hexadec-1-ene;α-Hexadecene;Dialen 16;1-<em>n</em>-Hexadecene;Neodene 16;NeoSolv 6;NSC 60602;Linealene 16;LAO-C 16",
    "duplicated_cas_no": "501012-99-3",
    "SMILES": "C(CCCCCCC=C)CCCCCCC",
    "meta_data": {
        "InChI": "InChI=1S/C16H32/c1-3-5-7-9-11-13-15-16-14-12-10-8-6-4-2/h3H,1,4-16H2,2H3",
        "InChIKey": null,
        "Canonical SMILES": "C=CCCCCCCCCCCCCCC",
        "Molecular Formula": "C<sub>16</sub>H<sub>32</sub>",
        "Molecular Mass": "224.43",
        "Boiling Point": "284.4 °C @ Press: 760 Torr",
        "Melting Point": "4.1 °C",
        "Density": "0.7811 g/cm³ @ Temp: 20 °C"
    }
}