{
    "cas_no": "40032-81-3",
    "key_name": "3-(Bromomethyl)-2-chlorothiophene",
    "cn_name": "2-氯-3-溴甲基噻吩;",
    "alternate_name": "Thiophene, 3-(bromomethyl)-2-chloro-;3-(Bromomethyl)-2-chlorothiophene;2-Chloro-3-thienyl bromide;2-Chloro-3-Bromomethylthiophene",
    "duplicated_cas_no": "",
    "SMILES": "C(Br)C1=C(Cl)SC=C1",
    "meta_data": {
        "InChI": "InChI=1S/C5H4BrClS/c6-3-4-1-2-8-5(4)7/h1-2H,3H2",
        "InChIKey": null,
        "Canonical SMILES": "ClC=1SC=CC1CBr",
        "Molecular Formula": "C<sub>5</sub>H<sub>4</sub>BrClS",
        "Molecular Mass": "211.51",
        "Boiling Point": "88 °C @ Press: 1 Torr"
    }
}