{
    "cas_no": "6712-98-7",
    "key_name": "Diethanolisopropanolamine",
    "cn_name": "二乙醇单异丙醇胺;1-[N,N-双(2-羟乙基)氨基]丙-2-醇;二乙醇单异丙醇胺;",
    "alternate_name": "2-Propanol, 1-[bis(2-hydroxyethyl)amino]-;1-[Bis(2-hydroxyethyl)amino]-2-propanol;Ethanol, 2,2′-[(2-hydroxypropyl)imino]bis-;<em>N</em>,<em>N</em>-Bis(2-hydroxyethyl)-2-propanolamine;<em>N</em>-(2-Hydroxypropyl)diethanolamine;NSC 30493;1-[<em>N</em>,<em>N</em>-Bis(2-hydroxyethyl)amino]-2-propanol;Diethanolisopropanolamine;Diethanol monoisopropanolamine;Dihydroxyethyl-monoisopropanolamine;2,2′-((2-Hydroxypropyl)azanediyl)diethanol",
    "duplicated_cas_no": "",
    "SMILES": "N(CC(C)O)(CCO)CCO",
    "meta_data": {
        "InChI": "InChI=1S/C7H17NO3/c1-7(11)6-8(2-4-9)3-5-10/h7,9-11H,2-6H2,1H3",
        "InChIKey": null,
        "Canonical SMILES": "OCCN(CCO)CC(O)C",
        "Molecular Formula": "C<sub>7</sub>H<sub>17</sub>NO<sub>3</sub>",
        "Molecular Mass": "163.21",
        "Boiling Point": "145 °C @ Press: 0.6 Torr",
        "Melting Point": "30.6 °C",
        "Density": "1.079 g/cm³ @ Temp: 25 °C"
    }
}