{
    "cas_no": "70987-78-9",
    "key_name": "(<em>S</em>)-Glycidyl tosylate",
    "cn_name": "(S)-(+)-对甲苯磺酸缩水甘油酯;",
    "alternate_name": "2-Oxiranemethanol, 2-(4-methylbenzenesulfonate), (2<em>S</em>)-;Oxiranemethanol, 4-methylbenzenesulfonate, (<em>S</em>)-;Oxiranemethanol, 4-methylbenzenesulfonate, (2<em>S</em>)-;(<em>S</em>)-Glycidyl tosylate;(+)-Glycidyl tosylate;(2<em>S</em>)-(+)-Glycidyl tosylate;(<em>S</em>)-Glycidol tosylate;2(<em>S</em>)-Glycidyl tosylate;(2<em>S</em>)-Oxiranemethanol 4-methylbenzenesulfonate;(<em>S</em>)-(+)-Glycidyl 4-methylbenzenesulfonate;Toluene-4-sulfonic acid (<em>S</em>)-oxiranylmethyl ester;(<em>S</em>)-(2,3-Epoxypropan-1-yl) 4-methylbenzenesulfonate;(<em>S</em>)-(+)-Glycidyl tosylate;(<em>S</em>)-Oxiranylmethyl toluene-4-sulfonate;(<em>S</em>)-Toluene-4-sulfonic acid oxiranylmethyl ester;(<em>S</em>)-Glycidyl p-toluenesulfonate;(2S)-Glycidyl toslyate;[(2S)-Oxiran-2-yl]methyl 4-methylbenzenesulfonate;[(2S)-Oxiran-2-yl]methyl 4-methylbenzene-1-sulfonate",
    "duplicated_cas_no": "203991-28-0",
    "SMILES": "S(OC[C@@H]1CO1)(=O)(=O)C2=CC=C(C)C=C2",
    "meta_data": {
        "InChI": "InChI=1S/C10H12O4S/c1-8-2-4-10(5-3-8)15(11,12)14-7-9-6-13-9/h2-5,9H,6-7H2,1H3/t9-/m0/s1",
        "InChIKey": null,
        "Canonical SMILES": "O=S(=O)(OCC1OC1)C2=CC=C(C=C2)C",
        "Molecular Formula": "C<sub>10</sub>H<sub>12</sub>O<sub>4</sub>S",
        "Molecular Mass": "228.26",
        "Melting Point": "46.0-48.5 °C"
    }
}