{
    "cas_no": "34688-71-6",
    "key_name": "2,4,6-Trimethylbenzeneacetonitrile",
    "cn_name": "2,4,6-三甲基苯乙腈;2,4,6-三甲基氰苄;",
    "alternate_name": "Benzeneacetonitrile, 2,4,6-trimethyl-;Acetonitrile, mesityl-;2,4,6-Trimethylbenzeneacetonitrile;2,4,6-Trimethylbenzyl cyanide;(2,4,6-Trimethylphenyl)acetonitrile;Mesitylacetonitrile;2-(2,4,6-Trimethylphenyl)ethanenitrile;2-Mesitylacetonitrile;2-(2,4,6-Trimethylphenyl)acetonitrile",
    "duplicated_cas_no": "",
    "SMILES": "C(C#N)C1=C(C)C=C(C)C=C1C",
    "meta_data": {
        "InChI": "InChI=1S/C11H13N/c1-8-6-9(2)11(4-5-12)10(3)7-8/h6-7H,4H2,1-3H3",
        "InChIKey": null,
        "Canonical SMILES": "N#CCC=1C(=CC(=CC1C)C)C",
        "Molecular Formula": "C<sub>11</sub>H<sub>13</sub>N",
        "Molecular Mass": "159.23",
        "Boiling Point": "150-155 °C @ Press: 15 Torr",
        "Melting Point": "79 °C"
    }
}