{
    "cas_no": "14248-66-9",
    "key_name": "Pyridine, 3,5-dimethyl-4-nitro-, 1-oxide",
    "cn_name": "3,5-二甲基-4-硝基吡啶1-氧化物;",
    "alternate_name": "Pyridine, 3,5-dimethyl-4-nitro-, 1-oxide;3,5-Lutidine, 4-nitro-, 1-oxide;3,5-Dimethyl-4-nitropyridine 1-oxide;3,5-Dimethyl-4-nitropyridine <em>N</em>-oxide;4-Nitro-3,5-dimethylpyridine 1-oxide;NSC 63056;3,5-Dimethyl-4-nitro-1-oxidopyridin-1-ium",
    "duplicated_cas_no": "",
    "SMILES": "N(=O)(=O)C=1C(C)=CN(=O)=CC1C",
    "meta_data": {
        "InChI": "InChI=1S/C7H8N2O3/c1-5-3-8(10)4-6(2)7(5)9(11)12/h3-4H,1-2H3",
        "InChIKey": null,
        "Canonical SMILES": "O=N(=O)C1=C(C=N(=O)C=C1C)C",
        "Molecular Formula": "C<sub>7</sub>H<sub>8</sub>N<sub>2</sub>O<sub>3</sub>",
        "Molecular Mass": "168.15",
        "Melting Point": "174-175 °C"
    }
}