{
    "cas_no": "6969-71-7",
    "key_name": "1,2,4-Triazolo[4,3-<em>a</em>]pyridin-3(2<em>H</em>)-one",
    "cn_name": "吡啶三唑酮;1,2,4-三唑并[4,3-a]吡啶-3(2H)-酮;",
    "alternate_name": "1,2,4-Triazolo[4,3-<em>a</em>]pyridin-3(2<em>H</em>)-one;<em>s</em>-Triazolo[4,3-<em>a</em>]pyridin-3-ol;3-Hydroxytriazolo[4,3-<em>a</em>]pyridine;NSC 68462;[1,2,4]Triazolo[4,3-<em>a</em>]pyridin-3-ol;2<em>H</em>,3<em>H</em>-[1,2,4]Triazolo[4,3-<em>a</em>]pyridin-3-one;2<em>H</em>-[1,2,4]Triazolo[4,3-<em>a</em>]pyridin-3-one",
    "duplicated_cas_no": "42240-05-1",
    "SMILES": "O=C1N2C(C=CC=C2)=NN1",
    "meta_data": {
        "InChI": "InChI=1S/C6H5N3O/c10-6-8-7-5-3-1-2-4-9(5)6/h1-4H,(H,8,10)",
        "InChIKey": null,
        "Canonical SMILES": "O=C1NN=C2C=CC=CN21",
        "Molecular Formula": "C<sub>6</sub>H<sub>5</sub>N<sub>3</sub>O",
        "Molecular Mass": "135.12",
        "Melting Point": "229 °C"
    }
}