{
    "cas_no": "13007-90-4",
    "key_name": "Dicarbonylbis(triphenylphosphine)nickel",
    "cn_name": "双(三苯基膦)二羰基镍;双(三苯基膦)合二羰基镍;二羰基(三苯基膦)镍;",
    "alternate_name": "Nickel, dicarbonylbis(triphenylphosphine)-, (<em>T</em>-4)-;Nickel, dicarbonylbis(triphenylphosphine)-;Bis(triphenylphosphine)nickel dicarbonyl;(<em>T</em>-4)-Dicarbonylbis(triphenylphosphine)nickel;Bis(triphenylphosphine)dicarbonylnickel;Dicarbonyldi(triphenylphosphino)nickel;Dicarbonylbis(triphenylphosphine)nickel;Bis(triphenylphosphine)dicarbonylnickel(0)",
    "duplicated_cas_no": "131959-24-5;14053-88-4",
    "SMILES": "[P]([Ni]([P](C1=CC=CC=C1)(C2=CC=CC=C2)C3=CC=CC=C3)(C#O)C#O)(C4=CC=CC=C4)(C5=CC=CC=C5)C6=CC=CC=C6",
    "meta_data": {
        "InChI": "InChI=1S/2C18H15P.2CO.Ni/c2*1-4-10-16(11-5-1)19(17-12-6-2-7-13-17)18-14-8-3-9-15-18;2*1-2;/h2*1-15H;;;",
        "InChIKey": null,
        "Canonical SMILES": "O#C[Ni](C#O)([P](C=1C=CC=CC1)(C=2C=CC=CC2)C=3C=CC=CC3)[P](C=4C=CC=CC4)(C=5C=CC=CC5)C=6C=CC=CC6",
        "Molecular Formula": "C<sub>38</sub>H<sub>30</sub>NiO<sub>2</sub>P<sub>2</sub>",
        "Molecular Mass": "",
        "Melting Point": "68-70 °C"
    }
}