{
    "cas_no": "1118-46-3",
    "key_name": "Butyltin trichloride",
    "cn_name": "丁基三氯化锡;单丁基三氯化锡;三氯化丁基锡;",
    "alternate_name": "Stannane, butyltrichloro-;Butyltin trichloride;Butyltrichlorostannane;Monobutyltin trichloride;Trichlorobutyltin;Butyltrichlorotin;Trichlorobutylstannane;Butyltin trichloride (BuSnCl<sub>3</sub>);<em>n</em>-Butyltin trichloride;Certincoat TC 100;NSC 67013",
    "duplicated_cas_no": "2243499-55-8",
    "SMILES": "C([Sn](Cl)(Cl)Cl)CCC",
    "meta_data": {
        "InChI": "InChI=1S/C4H9.3ClH.Sn/c1-3-4-2;;;;/h1,3-4H2,2H3;3*1H;/q;;;;+3/p-3",
        "InChIKey": null,
        "Canonical SMILES": "Cl[Sn](Cl)(Cl)CCCC",
        "Molecular Formula": "C<sub>4</sub>H<sub>9</sub>Cl<sub>3</sub>Sn",
        "Molecular Mass": "282.18",
        "Boiling Point": "102 °C @ Press: 12 Torr",
        "Melting Point": "-63 °C",
        "Density": "1.71 g/cm³ @ Temp: 25 °C"
    }
}