{
    "cas_no": "183232-66-8",
    "key_name": "1-(2,4-Dichlorophenyl)-5-(4-iodophenyl)-4-methyl-<em>N</em>-1-piperidinyl-1<em>H</em>-pyrazole-3-carboxamide",
    "cn_name": "AM 251;",
    "alternate_name": "1<em>H</em>-Pyrazole-3-carboxamide, 1-(2,4-dichlorophenyl)-5-(4-iodophenyl)-4-methyl-<em>N</em>-1-piperidinyl-;1-(2,4-Dichlorophenyl)-5-(4-iodophenyl)-4-methyl-<em>N</em>-1-piperidinyl-1<em>H</em>-pyrazole-3-carboxamide;AM 251;AM 251 (pharmaceutical);1-(2,4-Dichlorophenyl)-5-(4-iodophenyl)-4-methyl-<em>N</em>-piperidin-1-ylpyrazole-3-carboxamide",
    "duplicated_cas_no": "",
    "SMILES": "CC1=C(N(N=C1C(NN2CCCCC2)=O)C3=C(Cl)C=C(Cl)C=C3)C4=CC=C(I)C=C4",
    "meta_data": {
        "InChI": "InChI=1S/C22H21Cl2IN4O/c1-14-20(22(30)27-28-11-3-2-4-12-28)26-29(19-10-7-16(23)13-18(19)24)21(14)15-5-8-17(25)9-6-15/h5-10,13H,2-4,11-12H2,1H3,(H,27,30)",
        "InChIKey": null,
        "Canonical SMILES": "O=C(NN1CCCCC1)C2=NN(C3=CC=C(Cl)C=C3Cl)C(C=4C=CC(I)=CC4)=C2C",
        "Molecular Formula": "C<sub>22</sub>H<sub>21</sub>Cl<sub>2</sub>IN<sub>4</sub>O",
        "Molecular Mass": "555.24",
        "Melting Point": "195-196 °C"
    }
}