{
    "cas_no": "5657-64-7",
    "key_name": "1,2-Dihydro-4-hydroxy-2-oxo-3-pyridinecarbonitrile",
    "cn_name": "3-氰基-4-羟基-2(1H)-吡啶酮;3-氰基-4-羟基-2(1H)-吡啶酮;",
    "alternate_name": "3-Pyridinecarbonitrile, 1,2-dihydro-4-hydroxy-2-oxo-;Nicotinonitrile, 2,4-dihydroxy-;Nicotinonitrile, 1,2-dihydro-4-hydroxy-2-oxo-;1,2-Dihydro-4-hydroxy-2-oxo-3-pyridinecarbonitrile;Norricinine;NSC 409910;3-Cyano-1,2-dihydro-4-hydroxy-2-oxopyridine",
    "duplicated_cas_no": "",
    "SMILES": "C(#N)C1=C(O)C=CNC1=O",
    "meta_data": {
        "InChI": "InChI=1S/C6H4N2O2/c7-3-4-5(9)1-2-8-6(4)10/h1-2H,(H2,8,9,10)",
        "InChIKey": null,
        "Canonical SMILES": "N#CC1=C(O)C=CNC1=O",
        "Molecular Formula": "C<sub>6</sub>H<sub>4</sub>N<sub>2</sub>O<sub>2</sub>",
        "Molecular Mass": "136.11",
        "Melting Point": "154-156 °C"
    }
}