{
    "cas_no": "1161-13-3",
    "key_name": "Benzyloxycarbonyl-<span class=\"text-smallcaps\">L</span>-phenylalanine",
    "cn_name": "N-苄氧羰基-L-苯丙氨酸;",
    "alternate_name": "<span class=\"text-smallcaps\">L</span>-Phenylalanine, <em>N</em>-[(phenylmethoxy)carbonyl]-;Alanine, <em>N</em>-carboxy-3-phenyl-, <em>N</em>-benzyl ester, <span class=\"text-smallcaps\">L</span>-;<em>N</em>-[(Phenylmethoxy)carbonyl]-<span class=\"text-smallcaps\">L</span>-phenylalanine;<em>N</em>-Carbobenzoxy-<span class=\"text-smallcaps\">L</span>-phenylalanine;Carbobenzoxy-<span class=\"text-smallcaps\">L</span>-phenylalanine;<em>N</em>-(Benzyloxycarbonyl)-<span class=\"text-smallcaps\">L</span>-phenylalanine;<em>N</em>-Carboxy-3-phenyl-<span class=\"text-smallcaps\">L</span>-alanine <em>N</em>-benzyl ester;Benzyloxycarbonyl-<span class=\"text-smallcaps\">L</span>-phenylalanine;(Benzyloxycarbonyl)phenylalanine;<em>N</em>-(Carbobenzyloxy)-<span class=\"text-smallcaps\">L</span>-phenylalanine;<em>N</em>-[(Benzyloxy)carbonyl]phenylalanine;(Carbobenzoxy)phenylalanine;<em>N</em>-(Carbobenzoxy)phenylalanine;<em>N</em>-Benzyloxycarbonyl-(<em>S</em>)-phenylalanine;<span class=\"text-smallcaps\">L</span>-(Carbobenzoxy)phenylalanine;(<em>S</em>)-<em>N</em>-(Benzyloxycarbonyl)phenylalanine;<span class=\"text-smallcaps\">L</span>-(Carbobenzyloxy)phenylalanine;(2<em>S</em>)-2-((Benzyloxycarbonyl)amino)-3-phenylpropionic acid;<em>N</em>-(Carbobenzyloxy)phenylalanine;<em>N</em>-Cbz-<span class=\"text-smallcaps\">L</span>-phenylalanine;(2<em>S</em>)-2-[(Benzyloxycarbonyl)amino]-3-phenylpropanoic acid;<span class=\"text-smallcaps\">L</span>-Cbz phenylalanine;(<em>S</em>)-2-(Benzyloxycarbonylamino)-3-phenyl-propanoic acid;(2S)-3-Phenyl-2-(phenylmethoxycarbonylamino)propanoic acid;(2S)-2-[[(Benzyloxy)carbonyl]amino]-3-phenylpropanoic acid",
    "duplicated_cas_no": "13094-73-0;24965-57-9;93921-02-9",
    "SMILES": "[C@@H](CC1=CC=CC=C1)(NC(OCC2=CC=CC=C2)=O)C(O)=O",
    "meta_data": {
        "InChI": "InChI=1S/C17H17NO4/c19-16(20)15(11-13-7-3-1-4-8-13)18-17(21)22-12-14-9-5-2-6-10-14/h1-10,15H,11-12H2,(H,18,21)(H,19,20)/t15-/m0/s1",
        "InChIKey": null,
        "Canonical SMILES": "O=C(O)C(NC(=O)OCC=1C=CC=CC1)CC=2C=CC=CC2",
        "Molecular Formula": "C<sub>17</sub>H<sub>17</sub>NO<sub>4</sub>",
        "Molecular Mass": "299.32",
        "Boiling Point": "35-60 °C",
        "Melting Point": "103 °C"
    }
}