{
    "cas_no": "1067-42-1",
    "key_name": "Tetrabutylgermane",
    "cn_name": "四正丁基锗;",
    "alternate_name": "Germane, tetrabutyl-;Tetrabutylgermane;Tetrabutylgermanium;Tetra-<em>n</em>-butylgermane;NSC 65798",
    "duplicated_cas_no": "",
    "SMILES": "[Ge](CCCC)(CCCC)(CCCC)CCCC",
    "meta_data": {
        "InChI": "InChI=1S/C16H36Ge/c1-5-9-13-17(14-10-6-2,15-11-7-3)16-12-8-4/h5-16H2,1-4H3",
        "InChIKey": null,
        "Canonical SMILES": "CCCC[Ge](CCCC)(CCCC)CCCC",
        "Molecular Formula": "C<sub>16</sub>H<sub>36</sub>Ge",
        "Molecular Mass": "301.10",
        "Boiling Point": "274 °C",
        "Density": "0.929 g/cm³"
    }
}