{
    "cas_no": "2808-86-8",
    "key_name": "2,3,4,5-Tetrachloropyridine",
    "cn_name": null,
    "alternate_name": "Pyridine, 2,3,4,5-tetrachloro-;2,3,4,5-Tetrachloropyridine",
    "duplicated_cas_no": "",
    "SMILES": "ClC=1C(Cl)=C(Cl)N=CC1Cl",
    "meta_data": {
        "InChI": "InChI=1S/C5HCl4N/c6-2-1-10-5(9)4(8)3(2)7/h1H",
        "InChIKey": null,
        "Canonical SMILES": "ClC1=NC=C(Cl)C(Cl)=C1Cl",
        "Molecular Formula": "C<sub>5</sub>HCl<sub>4</sub>N",
        "Molecular Mass": "216.88",
        "Boiling Point": "98-100 °C @ Press: 6 Torr",
        "Melting Point": "20-22 °C (sublm)"
    }
}