{
    "cas_no": "126-33-0",
    "key_name": "Sulfolane",
    "cn_name": "环丁砜;四氢噻吩砜;",
    "alternate_name": "Thiophene, tetrahydro-, 1,1-dioxide;Cyclic tetramethylene sulfone;Cyclotetramethylene sulfone;Sulfolan;Sulfolane;Tetrahydrothiophene 1,1-dioxide;Tetramethylene sulfone;1,1-Dioxothiolan;Bondolane A;Thiacyclopentane dioxide;Tetrahydrothiophene dioxide;Sulpholane;Thiophane dioxide;Bondelane A;Thiophane 1,1-dioxide;Thiolane 1,1-dioxide;Tetrahydrothiophene <em>S</em>,<em>S</em>-dioxide;NSC 46443;Sulfolane SG;1λ6-Thiolane-1,1-dione",
    "duplicated_cas_no": "208252-54-4",
    "SMILES": "O=S1(=O)CCCC1",
    "meta_data": {
        "InChI": "InChI=1S/C4H8O2S/c5-7(6)3-1-2-4-7/h1-4H2",
        "InChIKey": null,
        "Canonical SMILES": "O=S1(=O)CCCC1",
        "Molecular Formula": "C<sub>4</sub>H<sub>8</sub>O<sub>2</sub>S",
        "Molecular Mass": "120.17",
        "Boiling Point": "285 °C",
        "Melting Point": "27.4-27.8 °C",
        "Density": "1.2606 g/cm³ @ Temp: 30 °C"
    }
}