{
    "cas_no": "18279-67-9",
    "key_name": "(2-Chloroethyl)triethoxysilane",
    "cn_name": null,
    "alternate_name": "Silane, (2-chloroethyl)triethoxy-;(2-Chloroethyl)triethoxysilane;Triethoxysilylethyl chloride;2-Chloroethyltriethoxysilane;β-Chloroethyltriethoxysilane;C 3281",
    "duplicated_cas_no": "",
    "SMILES": "[Si](CCCl)(OCC)(OCC)OCC",
    "meta_data": {
        "InChI": "InChI=1S/C8H19ClO3Si/c1-4-10-13(8-7-9,11-5-2)12-6-3/h4-8H2,1-3H3",
        "InChIKey": null,
        "Canonical SMILES": "ClCC[Si](OCC)(OCC)OCC",
        "Molecular Formula": "C<sub>8</sub>H<sub>19</sub>ClO<sub>3</sub>Si",
        "Molecular Mass": "226.77",
        "Boiling Point": "88-89 °C @ Press: 9 Torr",
        "Density": "1.009 g/cm³ @ Temp: 25 °C"
    }
}