{
    "cas_no": "328-50-7",
    "key_name": "2-Oxoglutaric acid",
    "cn_name": "alpha-酮戊二酸;2-氧代戊二酸;alpha-羰基戊二酸;",
    "alternate_name": "Pentanedioic acid, 2-oxo-;Glutaric acid, 2-oxo-;2-Oxopentanedioic acid;α-<em>keto</em>-Glutaric acid;α-Oxoglutaric acid;2-Oxoglutaric acid;2-Oxo-1,5-pentanedioic acid;2-Ketoglutaric acid;α-Ketoglutaric acid;α-Oxopentanedioic acid;NSC 17391;Aladdin K 105571",
    "duplicated_cas_no": "27175-99-1",
    "SMILES": "C(CCC(O)=O)(C(O)=O)=O",
    "meta_data": {
        "InChI": "InChI=1S/C5H6O5/c6-3(5(9)10)1-2-4(7)8/h1-2H2,(H,7,8)(H,9,10)",
        "InChIKey": null,
        "Canonical SMILES": "O=C(O)C(=O)CCC(=O)O",
        "Molecular Formula": "C<sub>5</sub>H<sub>6</sub>O<sub>5</sub>",
        "Molecular Mass": "146.10",
        "Melting Point": "115.5 °C",
        "Density": "1.64 g/cm³"
    }
}