{
    "cas_no": "125-12-2",
    "key_name": "Isobornyl acetate",
    "cn_name": "乙酸异龙脑酯;白乙酯;乙酸异冰片酯;1,7,7-三甲基二环[2,2,1]庚-2-醇醋酸酯;",
    "alternate_name": "Bicyclo[2.2.1]heptan-2-ol, 1,7,7-trimethyl-, 2-acetate, (1<em>R</em>,2<em>R</em>,4<em>R</em>)-<em>rel</em>-;Isoborneol, acetate;Bicyclo[2.2.1]heptan-2-ol, 1,7,7-trimethyl-, acetate, <em>exo</em>-;Bicyclo[2.2.1]heptan-2-ol, 1,7,7-trimethyl-, acetate, (1<em>R</em>,2<em>R</em>,4<em>R</em>)-<em>rel</em>-;Isobornyl acetate;Pichtosine;Pichtosin;(±)-Isobornyl acetate;<em>exo</em>-Bornyl acetate;NSC 62486",
    "duplicated_cas_no": "17283-45-3;904815-44-7;910885-10-8;1637437-32-1",
    "SMILES": "C[C@@]12[C@@H](OC(C)=O)C[C@@](C1(C)C)(CC2)[H]",
    "meta_data": {
        "InChI": "InChI=1/C12H20O2/c1-8(13)14-10-7-9-5-6-12(10,4)11(9,2)3/h9-10H,5-7H2,1-4H3/t9-,10-,12+/s2",
        "InChIKey": null,
        "Canonical SMILES": "O=C(OC1CC2CCC1(C)C2(C)C)C",
        "Molecular Formula": "C<sub>12</sub>H<sub>20</sub>O<sub>2</sub>",
        "Molecular Mass": "196.29",
        "Boiling Point": "106-107 °C @ Press: 13 Torr",
        "Melting Point": "211-212 °C"
    }
}