{
    "cas_no": "579-49-7",
    "key_name": "(4-Fluorophenyl)-2-thienylmethanone",
    "cn_name": "4-氟苯基-2-噻吩酮;",
    "alternate_name": "Methanone, (4-fluorophenyl)-2-thienyl-;Ketone, <em>p</em>-fluorophenyl 2-thienyl;(4-Fluorophenyl)-2-thienylmethanone;4-Fluorophenyl 2-thienyl ketone;2-(<em>p</em>-Fluorobenzoyl)thiophene;2-(4-Fluorobenzoyl)thiophene;4-Fluorophenyl thiophene-2-yl ketone;(4-Fluorophenyl)(thiophen-2-yl) methanone",
    "duplicated_cas_no": "",
    "SMILES": "C(=O)(C1=CC=C(F)C=C1)C2=CC=CS2",
    "meta_data": {
        "InChI": "InChI=1S/C11H7FOS/c12-9-5-3-8(4-6-9)11(13)10-2-1-7-14-10/h1-7H",
        "InChIKey": null,
        "Canonical SMILES": "O=C(C=1SC=CC1)C2=CC=C(F)C=C2",
        "Molecular Formula": "C<sub>11</sub>H<sub>7</sub>FOS",
        "Molecular Mass": "206.24",
        "Boiling Point": "142-145 °C @ Press: 4 Torr",
        "Melting Point": "95.5-96 °C"
    }
}