{
    "cas_no": "78-69-3",
    "key_name": "Tetrahydrolinalool",
    "cn_name": "四氢芳樟醇;3,7-二甲基-3-辛醇;",
    "alternate_name": "3-Octanol, 3,7-dimethyl-;3,7-Dimethyl-3-octanol;2,6-Dimethyl-6-octanol;3,7-Dimethyloctan-3-ol;Linalool tetrahydride;Tetrahydrolinalool;NSC 128151",
    "duplicated_cas_no": "57706-88-4",
    "SMILES": "C(CCCC(C)C)(CC)(C)O",
    "meta_data": {
        "InChI": "InChI=1S/C10H22O/c1-5-10(4,11)8-6-7-9(2)3/h9,11H,5-8H2,1-4H3",
        "InChIKey": null,
        "Canonical SMILES": "OC(C)(CC)CCCC(C)C",
        "Molecular Formula": "C<sub>10</sub>H<sub>22</sub>O",
        "Molecular Mass": "158.28",
        "Boiling Point": "88.5-89 °C @ Press: 14 Torr",
        "Density": "0.8341 g/cm³ @ Temp: 15 °C"
    }
}