{
    "cas_no": "82034-46-6",
    "key_name": "Loteprednol etabonate",
    "cn_name": "氯替泼诺;",
    "alternate_name": "Androsta-1,4-diene-17-carboxylic acid, 17-[(ethoxycarbonyl)oxy]-11-hydroxy-3-oxo-, chloromethyl ester, (11β,17α)-;HGP 1;CDDD 5604;P 5604;Loteprednol etabonate;Lenoxin;Alrex;Lotemax",
    "duplicated_cas_no": "",
    "SMILES": "O(C(OCC)=O)[C@@]1(C(OCCl)=O)[C@]2(C)[C@@](CC1)([C@]3([C@]([C@@H](O)C2)([C@]4(C)C(CC3)=CC(=O)C=C4)[H])[H])[H]",
    "meta_data": {
        "InChI": "InChI=1S/C24H31ClO7/c1-4-30-21(29)32-24(20(28)31-13-25)10-8-17-16-6-5-14-11-15(26)7-9-22(14,2)19(16)18(27)12-23(17,24)3/h7,9,11,16-19,27H,4-6,8,10,12-13H2,1-3H3/t16-,17-,18-,19+,22-,23-,24-/m0/s1",
        "InChIKey": null,
        "Canonical SMILES": "O=C(OCC)OC1(C(=O)OCCl)CCC2C3CCC4=CC(=O)C=CC4(C)C3C(O)CC21C",
        "Molecular Formula": "C<sub>24</sub>H<sub>31</sub>ClO<sub>7</sub>",
        "Molecular Mass": "466.95",
        "Melting Point": "220.5-223.5 °C"
    }
}