{
    "cas_no": "764667-65-4",
    "key_name": "1-[5,6-Dihydro-3-(trifluoromethyl)-1,2,4-triazolo[4,3-<em>a</em>]pyrazin-7(8<em>H</em>)-yl]-4-(2,4,5-trifluorophenyl)-1,3-butanedione",
    "cn_name": "(2Z)-4-氧代-4-[3-(三氟甲基)-5,6-二氢-[1,2,4]三唑并[4,3-a]吡嗪-7-(8H)-基]-1-(2,4,5-三氟苯基)丁-2-酮;",
    "alternate_name": "1,3-Butanedione, 1-[5,6-dihydro-3-(trifluoromethyl)-1,2,4-triazolo[4,3-<em>a</em>]pyrazin-7(8<em>H</em>)-yl]-4-(2,4,5-trifluorophenyl)-;1,2,4-Triazolo[4,3-<em>a</em>]pyrazine, 7-[1,3-dioxo-4-(2,4,5-trifluorophenyl)butyl]-5,6,7,8-tetrahydro-3-(trifluoromethyl)-;1-[5,6-Dihydro-3-(trifluoromethyl)-1,2,4-triazolo[4,3-<em>a</em>]pyrazin-7(8<em>H</em>)-yl]-4-(2,4,5-trifluorophenyl)-1,3-butanedione;4-Oxo-4-[3-(trifluoromethyl)-5,6-dihydro-[1,2,4]triazolo[4,3-<em>a</em>]pyrazin-7(8<em>H</em>)-yl]-1-(2,4,5-trifluorophenyl)butan-2-one;7-[1,3-Dioxo-4-(2,4,5-trifluorophenyl)butyl]-3-trifluoromethyl-5,6,7,8-tetrahydro-1,2,4-triazolo[4,3-<em>a</em>]pyrazine;Prositagliptin ketone;1-(3-Trifluoromethyl-5,6-dihydro-8<em>H</em>-[1,2,4]triazolo[4,3-<em>a</em>]pyrazin-7-yl)-4-(2,4,5-trifluoro-phenyl)-butan-1,3-dione;4-Oxo-4-[3-(trifluoromethyl)-5,6-dihydro[1,2,4]triazolo[4,3-<em>a</em>]pyrazin-7(8<em>H</em>)-yl]-1-(2,4,5-trifluorophenyl)butane-2-one;1-[3-(Trifluoromethyl)-6,8-dihydro-5<em>H</em>-[1,2,4]triazolo[4,3-<em>a</em>]pyrazin-7-yl]-4-(2,4,5-trifluorophenyl)butane-1,3-dione",
    "duplicated_cas_no": "",
    "SMILES": "C(F)(F)(F)C=1N2C(CN(C(CC(CC3=C(F)C=C(F)C(F)=C3)=O)=O)CC2)=NN1",
    "meta_data": {
        "InChI": "InChI=1S/C16H12F6N4O2/c17-10-6-12(19)11(18)4-8(10)3-9(27)5-14(28)25-1-2-26-13(7-25)23-24-15(26)16(20,21)22/h4,6H,1-3,5,7H2",
        "InChIKey": null,
        "Canonical SMILES": "O=C(N1CC2=NN=C(N2CC1)C(F)(F)F)CC(=O)CC3=CC(F)=C(F)C=C3F",
        "Molecular Formula": "C<sub>16</sub>H<sub>12</sub>F<sub>6</sub>N<sub>4</sub>O<sub>2</sub>",
        "Molecular Mass": "406.28",
        "Melting Point": "92.5 °C"
    }
}