{
    "cas_no": "75-07-0",
    "key_name": "Acetaldehyde",
    "cn_name": "乙醛;无水乙醛;",
    "alternate_name": "Acetaldehyde;Acetic aldehyde;Ethanal;Ethyl aldehyde;NSC 7594;MeSH ID: D000079",
    "duplicated_cas_no": "",
    "SMILES": "C(C)=O",
    "meta_data": {
        "InChI": "InChI=1S/C2H4O/c1-2-3/h2H,1H3",
        "InChIKey": null,
        "Canonical SMILES": "O=CC",
        "Molecular Formula": "C<sub>2</sub>H<sub>4</sub>O",
        "Molecular Mass": "44.05",
        "Boiling Point": "21 °C",
        "Melting Point": "-123.5 °C",
        "Density": "0.788 g/cm³ @ Temp: 16 °C"
    }
}