{
    "cas_no": "80286-58-4",
    "key_name": "Artemisinic acid",
    "cn_name": "青蒿酸;",
    "alternate_name": "1-Naphthaleneacetic acid, 1,2,3,4,4a,5,6,8a-octahydro-4,7-dimethyl-α-methylene-, (1<em>R</em>,4<em>R</em>,4a<em>S</em>,8a<em>R</em>)-;1-Naphthaleneacetic acid, 1,2,3,4,4a,5,6,8a-octahydro-4,7-dimethyl-α-methylene-, [1<em>R</em>-(1α,4β,4aβ,8aβ)]-;(1<em>R</em>,4<em>R</em>,4a<em>S</em>,8a<em>R</em>)-1,2,3,4,4a,5,6,8a-Octahydro-4,7-dimethyl-α-methylene-1-naphthaleneacetic acid;Artemisic acid;Qing Hau acid;Artemisininic acid;Arteannuic acid;Arteannuinic acid;Artemisinic acid;Qing Hao acid",
    "duplicated_cas_no": "79233-01-5",
    "SMILES": "C(C(O)=O)(=C)[C@H]1[C@@]2([C@]([C@H](C)CC1)(CCC(C)=C2)[H])[H]",
    "meta_data": {
        "InChI": "InChI=1S/C15H22O2/c1-9-4-6-12-10(2)5-7-13(14(12)8-9)11(3)15(16)17/h8,10,12-14H,3-7H2,1-2H3,(H,16,17)/t10-,12+,13+,14+/m1/s1",
        "InChIKey": null,
        "Canonical SMILES": "O=C(O)C(=C)C1CCC(C)C2CCC(=CC12)C",
        "Molecular Formula": "C<sub>15</sub>H<sub>22</sub>O<sub>2</sub>",
        "Molecular Mass": "234.33",
        "Melting Point": "135 °C"
    }
}