{
    "cas_no": "50-00-0",
    "key_name": "Formaldehyde",
    "cn_name": "甲醛;福尔马林;",
    "alternate_name": "Formaldehyde;BFV;Fannoform;Formalin;Formalith;Formic aldehyde;Formol;Fyde;Methanal;Methyl aldehyde;Methylene oxide;Oxomethane;Oxymethylene;Superlysoform;Lysoform;Morbicid;Paraform;Methaldehyde;Floguard 1015;FM 282;F-gen;Fordor;NSC 298885;Formalin LM;Optilyse;Formalin Taisei;Formaldehyde-<sup>12</sup><em>C</em>;FS 850A;Sigma-F 8775;MeSH ID: D005557",
    "duplicated_cas_no": "8005-38-7;8006-07-3;8013-13-6;112068-71-0;1053659-79-2;1156543-56-4;1158237-02-5;1196157-74-0;1227476-28-9;1357848-44-2;1416946-65-0;1609158-91-9;2100305-91-5",
    "SMILES": "C=O",
    "meta_data": {
        "InChI": "InChI=1S/CH2O/c1-2/h1H2",
        "InChIKey": null,
        "Canonical SMILES": "O=C",
        "Molecular Formula": "CH<sub>2</sub>O",
        "Molecular Mass": "30.03",
        "Boiling Point": "-19.5 °C",
        "Melting Point": "-92 °C",
        "Density": "0.8 g/cm³"
    }
}