{
    "cas_no": "3775-29-9",
    "key_name": "1,3-Propanediol, 2-methylene-, 1,3-diacetate",
    "cn_name": null,
    "alternate_name": "1,3-Propanediol, 2-methylene-, 1,3-diacetate;1,3-Propanediol, 2-methylene-, diacetate;1,3-Diacetoxy-2-methylenepropane;2-Methylene-1,3-diacetoxypropane;2-Methylene-1,3-propanediyl diacetate;3-Acetoxy-2-(acetoxymethyl)-1-propene;2-Methylene-1,3-propanediol diacetate;2-[(Acetyloxy)methyl]prop-2-en-1-yl acetate",
    "duplicated_cas_no": "",
    "SMILES": "C(COC(C)=O)(COC(C)=O)=C",
    "meta_data": {
        "InChI": "InChI=1S/C8H12O4/c1-6(4-11-7(2)9)5-12-8(3)10/h1,4-5H2,2-3H3",
        "InChIKey": null,
        "Canonical SMILES": "O=C(OCC(=C)COC(=O)C)C",
        "Molecular Formula": "C<sub>8</sub>H<sub>12</sub>O<sub>4</sub>",
        "Molecular Mass": "172.18",
        "Boiling Point": "100.5-101.0 °C @ Press: 12 Torr",
        "Density": "1.066 g/cm³ @ Temp: 22 °C"
    }
}