{
    "cas_no": "3131-52-0",
    "key_name": "5,6-Dihydroxyindole",
    "cn_name": "二羟吲哚;二羟吲哚;",
    "alternate_name": "1<em>H</em>-Indole-5,6-diol;Indole-5,6-diol;Dopamine lutine;5,6-Dihydroxyindole;Indolylquinol",
    "duplicated_cas_no": "",
    "SMILES": "OC=1C=C2C(=CC1O)NC=C2",
    "meta_data": {
        "InChI": "InChI=1S/C8H7NO2/c10-7-3-5-1-2-9-6(5)4-8(7)11/h1-4,9-11H",
        "InChIKey": null,
        "Canonical SMILES": "OC1=CC=2C=CNC2C=C1O",
        "Molecular Formula": "C<sub>8</sub>H<sub>7</sub>NO<sub>2</sub>",
        "Molecular Mass": "149.15",
        "Melting Point": "140 °C (decomp)"
    }
}