{
    "cas_no": "939-19-5",
    "key_name": "3-Hydroxycoumarin",
    "cn_name": "3-羟基香豆素;3-羟基香豆素;",
    "alternate_name": "2<em>H</em>-1-Benzopyran-2-one, 3-hydroxy-;Coumarin, 3-hydroxy-;3-Hydroxy-2<em>H</em>-1-benzopyran-2-one;3-Hydroxycoumarin;3-Coumarinol;NSC 74691;3-Hydroxy-2<em>H</em>-chromen-2-one;3-Hydroxychromen-2-one;3-Hydroxy-cumarin",
    "duplicated_cas_no": "",
    "SMILES": "OC1=CC=2C(OC1=O)=CC=CC2",
    "meta_data": {
        "InChI": "InChI=1S/C9H6O3/c10-7-5-6-3-1-2-4-8(6)12-9(7)11/h1-5,10H",
        "InChIKey": null,
        "Canonical SMILES": "O=C1OC=2C=CC=CC2C=C1O",
        "Molecular Formula": "C<sub>9</sub>H<sub>6</sub>O<sub>3</sub>",
        "Molecular Mass": "162.14",
        "Melting Point": "151 °C"
    }
}