{
    "cas_no": "2445-78-5",
    "key_name": "2-Methylbutyl 2-methylbutanoate",
    "cn_name": "2-甲基丁酸2-甲基丁酯;",
    "alternate_name": "Butanoic acid, 2-methyl-, 2-methylbutyl ester;Butyric acid, 2-methyl-, 2-methylbutyl ester;2-Methylbutyl 2-methylbutyrate;2-Methylbutyl 2-methylbutanoate;2-Methylbutanoic acid 2-methylbutyl ester;2-Methyl-1-butyl 2-methylbutanoate",
    "duplicated_cas_no": "",
    "SMILES": "C(OCC(CC)C)(C(CC)C)=O",
    "meta_data": {
        "InChI": "InChI=1S/C10H20O2/c1-5-8(3)7-12-10(11)9(4)6-2/h8-9H,5-7H2,1-4H3",
        "InChIKey": null,
        "Canonical SMILES": "O=C(OCC(C)CC)C(C)CC",
        "Molecular Formula": "C<sub>10</sub>H<sub>20</sub>O<sub>2</sub>",
        "Molecular Mass": "172.26",
        "Boiling Point": "184-187 °C"
    }
}