{
    "cas_no": "103597-45-1",
    "key_name": "2,2′-Methylenebis[6-(2<em>H</em>-benzotriazol-2-yl)-4-(1,1,3,3-tetramethylbutyl)phenol]",
    "cn_name": "紫外光吸收剂UV-360;2,2\"-亚甲基双(4-叔辛基-6-苯并三唑苯酚);",
    "alternate_name": "Phenol, 2,2′-methylenebis[6-(2<em>H</em>-benzotriazol-2-yl)-4-(1,1,3,3-tetramethylbutyl)-;2,2′-Methylenebis[6-(2<em>H</em>-benzotriazol-2-yl)-4-(1,1,3,3-tetramethylbutyl)phenol];2,2′-Methylenebis[4-(1,1,3,3-tetramethylbutyl)-6-benzotriazolylphenol];Mark LA 31;Mixxim BB 100;ADK Stab LA 31;LA 31;2,2′-Methylenebis[4-(1,1,3,3-tetramethylbutyl)-6-(2<em>H</em>-benzotriazol-2-yl)phenol];Tinuvin 360;2,2′-Methylenebis[6-(2-benzotriazolyl)-4-(1,1,3,3-tetramethylbutyl)phenol];Bis[2-hydroxy-5-<em>tert</em>-octyl-3-(benzotriazol-2-yl)phenyl]methane;Tinosorb M;Methylenebis(2-hydroxy-3-(benzotriazol-2-yl)-5-<em>tert</em>-octylphenyl);Bisoctyltriazole;Bisoctrizole;MBBT;FAT 75′634;2,2′-Methylenebis[4-(1,1,3,3-tetramethylbutyl)-6-benzotriazol-2-ylphenol];Eversorb 78;Mixxim ADK LA 31;JF 832;UV 360;2,2′-Methylenebis[6-(2<em>H</em>-benzotriazol-2-yl)-4-<em>tert</em>-octylphenol];Chiguard 5431;ADK Stab LA 31RG;LA 31RG;ADK Stab LA 31R;ADK-ARKLS LA 31;ZINC 11677911;2,2′-Methylenebis(4-<em>tert</em>-octyl-6-benzotriazol-2-ylphenol);Kemisorb 279;2,2′-Methylenebis[6-(2<em>H</em>-benzotriazole-2-yl)-4-<em>tert</em>-octylphenol];Bis[2-hydroxy-5-<em>tert</em>-octyl-3-(benzotriazole-2-yl)phenyl]methane;Tinuvin 360ED;Tinuvin 5431;UV 5431;UC 3125;Adeka Nol UC 3125;Chisorb 5431;2,2′-Methylene-bis-(6-(2H-benzotriazol-2-yl)-4-(1,1,3,3-tetramethylbutyl)phenol);T 360;Parsol Max;Adeka Stab LA 31;K 22M40;Riasorb UV 360",
    "duplicated_cas_no": "126269-45-2;165670-11-1;184484-30-8;192209-76-0;215809-89-5;737758-68-8;1202656-45-8;2192337-11-2",
    "SMILES": "OC=1C(N2N=C3C(=N2)C=CC=C3)=CC(C(CC(C)(C)C)(C)C)=CC1CC4=C(O)C(=CC(C(CC(C)(C)C)(C)C)=C4)N5N=C6C(=N5)C=CC=C6",
    "meta_data": {
        "InChI": "InChI=1S/C41H50N6O2/c1-38(2,3)24-40(7,8)28-20-26(36(48)34(22-28)46-42-30-15-11-12-16-31(30)43-46)19-27-21-29(41(9,10)25-39(4,5)6)23-35(37(27)49)47-44-32-17-13-14-18-33(32)45-47/h11-18,20-23,48-49H,19,24-25H2,1-10H3",
        "InChIKey": null,
        "Canonical SMILES": "OC=1C(=CC(=CC1CC=2C=C(C=C(C2O)N3N=C4C=CC=CC4=N3)C(C)(C)CC(C)(C)C)C(C)(C)CC(C)(C)C)N5N=C6C=CC=CC6=N5",
        "Molecular Formula": "C<sub>41</sub>H<sub>50</sub>N<sub>6</sub>O<sub>2</sub>",
        "Molecular Mass": "658.87",
        "Melting Point": "200 °C"
    }
}