{
    "cas_no": "450-95-3",
    "key_name": "2-Fluoro-1-phenylethanone",
    "cn_name": null,
    "alternate_name": "Ethanone, 2-fluoro-1-phenyl-;Acetophenone, 2-fluoro-;2-Fluoro-1-phenylethanone;2-Fluoroacetophenone;α-Fluoroacetophenone;Phenacyl fluoride;ω-Fluoroacetophenone;Monofluoromethyl phenyl ketone;2-Fluoro-1-phenylethan-1-one",
    "duplicated_cas_no": "",
    "SMILES": "C(CF)(=O)C1=CC=CC=C1",
    "meta_data": {
        "InChI": "InChI=1S/C8H7FO/c9-6-8(10)7-4-2-1-3-5-7/h1-5H,6H2",
        "InChIKey": null,
        "Canonical SMILES": "O=C(C=1C=CC=CC1)CF",
        "Molecular Formula": "C<sub>8</sub>H<sub>7</sub>FO",
        "Molecular Mass": "138.14",
        "Boiling Point": "80-85 °C @ Press: 16 Torr",
        "Melting Point": "29 °C",
        "Density": "1.154 g/cm³ @ Temp: 20 °C"
    }
}