{
    "cas_no": "119-68-6",
    "key_name": "<em>N</em>-Methylanthranilic acid",
    "cn_name": "N-甲基氨基苯甲酸;",
    "alternate_name": "Benzoic acid, 2-(methylamino)-;Anthranilic acid, <em>N</em>-methyl-;2-(Methylamino)benzoic acid;<em>N</em>-Methyl-<em>o</em>-aminobenzoic acid;<em>N</em>-Methyl-2-aminobenzoic acid;<em>N</em>-Methylanthranilic acid;<em>o</em>-(Methylamino)benzoic acid;<em>o</em>-<em>N</em>-Methylaminobenzoic acid;NSC 3782",
    "duplicated_cas_no": "730910-17-5",
    "SMILES": "N(C)C1=C(C(O)=O)C=CC=C1",
    "meta_data": {
        "InChI": "InChI=1S/C8H9NO2/c1-9-7-5-3-2-4-6(7)8(10)11/h2-5,9H,1H3,(H,10,11)",
        "InChIKey": null,
        "Canonical SMILES": "O=C(O)C=1C=CC=CC1NC",
        "Molecular Formula": "C<sub>8</sub>H<sub>9</sub>NO<sub>2</sub>",
        "Molecular Mass": "151.16",
        "Boiling Point": "80 °C @ Press: 0.01 Torr",
        "Melting Point": "180.5 °C",
        "Density": "1.307 g/cm³"
    }
}