{
    "cas_no": "16732-65-3",
    "key_name": "6-Bromo-1<em>H</em>-indole-2-carboxylic acid",
    "cn_name": "6-溴吲哚-2-羧酸;",
    "alternate_name": "1<em>H</em>-Indole-2-carboxylic acid, 6-bromo-;Indole-2-carboxylic acid, 6-bromo-;6-Bromo-1<em>H</em>-indole-2-carboxylic acid;6-Bromoindol-2-carboxylic acid;6-Bromoindole-2-carboxylic acid",
    "duplicated_cas_no": "",
    "SMILES": "C(O)(=O)C1=CC=2C(N1)=CC(Br)=CC2",
    "meta_data": {
        "InChI": "InChI=1S/C9H6BrNO2/c10-6-2-1-5-3-8(9(12)13)11-7(5)4-6/h1-4,11H,(H,12,13)",
        "InChIKey": null,
        "Canonical SMILES": "O=C(O)C1=CC=2C=CC(Br)=CC2N1",
        "Molecular Formula": "C<sub>9</sub>H<sub>6</sub>BrNO<sub>2</sub>",
        "Molecular Mass": "240.05",
        "Melting Point": "220-224 °C"
    }
}