{
    "cas_no": "25390-17-4",
    "key_name": "<em>S</em>-(Carboxymethyl)cysteine",
    "cn_name": null,
    "alternate_name": "Cysteine, <em>S</em>-(carboxymethyl)-;Alanine, 3-[(carboxymethyl)thio]-, <span class=\"text-smallcaps\">DL</span>-;<span class=\"text-smallcaps\">DL</span>-Cysteine, <em>S</em>-(carboxymethyl)-;<em>S</em>-(Carboxymethyl)cysteine;<span class=\"text-smallcaps\">DL</span>-3-(Carboxymethylthio)alanine;<em>S</em>-(Carboxymethyl)-(<em>RS</em>)-cysteine;<em>S</em>-(Carboxymethyl)-<span class=\"text-smallcaps\">DL</span>-cysteine;5-Amino-3-thiadihexanoic acid;NSC 68427;1-Carboxy-2-carboxymethylmercaptoethyl amine;2-Amino-3-[(carboxymethyl)sulfanyl]propanoic acid;2-Amino-3-carboxymethylsulfanyl-propionic acid;2-Amino-3-((carboxymethyl)thio)propanoic acid",
    "duplicated_cas_no": "2387-59-9",
    "SMILES": "C(C(C(O)=O)N)SCC(O)=O",
    "meta_data": {
        "InChI": "InChI=1S/C5H9NO4S/c6-3(5(9)10)1-11-2-4(7)8/h3H,1-2,6H2,(H,7,8)(H,9,10)",
        "InChIKey": null,
        "Canonical SMILES": "O=C(O)CSCC(N)C(=O)O",
        "Molecular Formula": "C<sub>5</sub>H<sub>9</sub>NO<sub>4</sub>S",
        "Molecular Mass": "179.19",
        "Melting Point": "175-176 °C"
    }
}