{
    "cas_no": "19145-96-1",
    "key_name": "1,4-Diethyl <em>trans</em>-1,4-cyclohexanedicarboxylate",
    "cn_name": null,
    "alternate_name": "1,4-Cyclohexanedicarboxylic acid, 1,4-diethyl ester, <em>trans</em>-;1,4-Cyclohexanedicarboxylic acid, diethyl ester, <em>trans</em>-;1,4-Diethyl <em>trans</em>-1,4-cyclohexanedicarboxylate;<em>trans</em>-Cyclohexane-1,4-dicarboxylic acid diethyl ester",
    "duplicated_cas_no": "",
    "SMILES": "C(OCC)(=O)[C@H]1CC[C@H](C(OCC)=O)CC1",
    "meta_data": {
        "InChI": "InChI=1/C12H20O4/c1-3-15-11(13)9-5-7-10(8-6-9)12(14)16-4-2/h9-10H,3-8H2,1-2H3/t9-,10-",
        "InChIKey": null,
        "Canonical SMILES": "O=C(OCC)C1CCC(C(=O)OCC)CC1",
        "Molecular Formula": "C<sub>12</sub>H<sub>20</sub>O<sub>4</sub>",
        "Molecular Mass": "228.28",
        "Melting Point": "46-46.8 °C"
    }
}