{
    "cas_no": "90274-24-1",
    "key_name": "Ractopamine hydrochloride",
    "cn_name": null,
    "alternate_name": "Benzenemethanol, 4-hydroxy-α-[[[3-(4-hydroxyphenyl)-1-methylpropyl]amino]methyl]-, hydrochloride (1:1);Benzenemethanol, 4-hydroxy-α-[[[3-(4-hydroxyphenyl)-1-methylpropyl]amino]methyl]-, hydrochloride;Ractopamine hydrochloride;LY 031537;EL 737;Paylean;LY O31537;Optaflexx;Topmax 9",
    "duplicated_cas_no": "99095-19-9;128954-46-1",
    "SMILES": "C(CNC(CCC1=CC=C(O)C=C1)C)(O)C2=CC=C(O)C=C2.Cl",
    "meta_data": {
        "InChI": "InChI=1S/C18H23NO3.ClH/c1-13(2-3-14-4-8-16(20)9-5-14)19-12-18(22)15-6-10-17(21)11-7-15;/h4-11,13,18-22H,2-3,12H2,1H3;1H",
        "InChIKey": null,
        "Canonical SMILES": "Cl.OC1=CC=C(C=C1)CCC(NCC(O)C2=CC=C(O)C=C2)C",
        "Molecular Formula": "C<sub>18</sub>H<sub>23</sub>NO<sub>3</sub>.ClH",
        "Molecular Mass": "",
        "Melting Point": "124-129 °C"
    }
}