{
    "cas_no": "105-67-9",
    "key_name": "2,4-Dimethylphenol",
    "cn_name": "2,4-二甲基苯酚;",
    "alternate_name": "Phenol, 2,4-dimethyl-;2,4-Xylenol;2,4-Dimethylphenol;4,6-Dimethylphenol;1-Hydroxy-2,4-dimethylbenzene;<em>m</em>-Xylenol;4-Hydroxy-1,3-dimethylbenzene;2,4-DMP;NSC 3829",
    "duplicated_cas_no": "",
    "SMILES": "CC1=C(O)C=CC(C)=C1",
    "meta_data": {
        "InChI": "InChI=1S/C8H10O/c1-6-3-4-8(9)7(2)5-6/h3-5,9H,1-2H3",
        "InChIKey": null,
        "Canonical SMILES": "OC1=CC=C(C=C1C)C",
        "Molecular Formula": "C<sub>8</sub>H<sub>10</sub>O",
        "Molecular Mass": "122.16",
        "Boiling Point": "211.5 °C @ Press: 766 Torr",
        "Melting Point": "24.54 °C",
        "Density": "0.9650 g/cm³ @ Temp: 20 °C"
    }
}