{
    "cas_no": "876708-03-1",
    "key_name": "4-Amino-1-(4-<em>C</em>-azido-β-<span class=\"text-smallcaps\">D</span>-arabinofuranosyl)-2(1<em>H</em>)-pyrimidinone",
    "cn_name": null,
    "alternate_name": "2(1<em>H</em>)-Pyrimidinone, 4-amino-1-(4-<em>C</em>-azido-β-<span class=\"text-smallcaps\">D</span>-arabinofuranosyl)-;4-Amino-1-(4-<em>C</em>-azido-β-<span class=\"text-smallcaps\">D</span>-arabinofuranosyl)-2(1<em>H</em>)-pyrimidinone;RO 9187;2′-Deoxy-2′-beta-hydroxy-4′-azidocytidine",
    "duplicated_cas_no": "1094026-96-6",
    "SMILES": "N(=[N+]=[N-])[C@]1(CO)O[C@H]([C@@H](O)[C@@H]1O)N2C(=O)N=C(N)C=C2",
    "meta_data": {
        "InChI": "InChI=1S/C9H12N6O5/c10-4-1-2-15(8(19)12-4)7-5(17)6(18)9(3-16,20-7)13-14-11/h1-2,5-7,16-18H,3H2,(H2,10,12,19)/t5-,6-,7+,9+/m0/s1",
        "InChIKey": null,
        "Canonical SMILES": "[N-]=[N+]=NC1(OC(N2C=CC(=NC2=O)N)C(O)C1O)CO",
        "Molecular Formula": "C<sub>9</sub>H<sub>12</sub>N<sub>6</sub>O<sub>5</sub>",
        "Molecular Mass": "",
        "Melting Point": "188.0-189.0 °C"
    }
}