{
    "cas_no": "103-47-9",
    "key_name": "2-(Cyclohexylamino)ethanesulfonic acid",
    "cn_name": "2-环己胺基乙磺酸;N-环己基-2-氨基乙磺酸;",
    "alternate_name": "Ethanesulfonic acid, 2-(cyclohexylamino)-;Taurine, <em>N</em>-cyclohexyl-;2-(Cyclohexylamino)ethanesulfonic acid;<em>N</em>-Cyclohexyltaurine;CHES;2-[<em>N</em>-Cyclohexylamino]ethanesulfonic acid;<em>N</em>-Cyclohexyl-2-aminoethanesulfonic acid;NSC 120726;2-(Cyclohexylazaniumyl)ethanesulfonate;2-(Cyclohexylamino)ethane-1-sulfonic acid",
    "duplicated_cas_no": "",
    "SMILES": "N(CCS(=O)(=O)O)C1CCCCC1",
    "meta_data": {
        "InChI": "InChI=1S/C8H17NO3S/c10-13(11,12)7-6-9-8-4-2-1-3-5-8/h8-9H,1-7H2,(H,10,11,12)",
        "InChIKey": null,
        "Canonical SMILES": "O=S(=O)(O)CCNC1CCCCC1",
        "Molecular Formula": "C<sub>8</sub>H<sub>17</sub>NO<sub>3</sub>S",
        "Molecular Mass": "207.29",
        "Melting Point": "320 °C"
    }
}