{
    "cas_no": "55837-27-9",
    "key_name": "Piretanide",
    "cn_name": "吡咯他尼;4-苯氧基-3-吡咯烷-1-基-5-氨基磺酰基苯甲酸;",
    "alternate_name": "Benzoic acid, 3-(aminosulfonyl)-4-phenoxy-5-(1-pyrrolidinyl)-;3-(Aminosulfonyl)-4-phenoxy-5-(1-pyrrolidinyl)benzoic acid;Piretanide;HOE 118;Arelix;S 73-4118;Diumax;Tauliz;Eurelix;Arlix",
    "duplicated_cas_no": "",
    "SMILES": "O(C1=C(C=C(C(O)=O)C=C1S(N)(=O)=O)N2CCCC2)C3=CC=CC=C3",
    "meta_data": {
        "InChI": "InChI=1S/C17H18N2O5S/c18-25(22,23)15-11-12(17(20)21)10-14(19-8-4-5-9-19)16(15)24-13-6-2-1-3-7-13/h1-3,6-7,10-11H,4-5,8-9H2,(H,20,21)(H2,18,22,23)",
        "InChIKey": null,
        "Canonical SMILES": "O=C(O)C=1C=C(C(OC=2C=CC=CC2)=C(C1)S(=O)(=O)N)N3CCCC3",
        "Molecular Formula": "C<sub>17</sub>H<sub>18</sub>N<sub>2</sub>O<sub>5</sub>S",
        "Molecular Mass": "362.40",
        "Melting Point": "225-227 °C"
    }
}