{
    "cas_no": "80997-87-1",
    "key_name": "Phenylalanine, β-methyl-, hydrochloride (1:1)",
    "cn_name": "β-甲基-DL-苯丙氨酸盐酸盐;",
    "alternate_name": "Phenylalanine, β-methyl-, hydrochloride (1:1);<span class=\"text-smallcaps\">DL</span>-Phenylalanine, β-methyl-, hydrochloride;Phenylalanine, β-methyl-, hydrochloride;2-Amino-3-phenylbutanoic acid hydrochloride",
    "duplicated_cas_no": "84540-60-3;91012-21-4;354801-58-4",
    "SMILES": "C(C(C(O)=O)N)(C)C1=CC=CC=C1.Cl",
    "meta_data": {
        "InChI": "InChI=1S/C10H13NO2.ClH/c1-7(9(11)10(12)13)8-5-3-2-4-6-8;/h2-7,9H,11H2,1H3,(H,12,13);1H",
        "InChIKey": null,
        "Canonical SMILES": "Cl.O=C(O)C(N)C(C=1C=CC=CC1)C",
        "Molecular Formula": "C<sub>10</sub>H<sub>13</sub>NO<sub>2</sub>.ClH",
        "Molecular Mass": "",
        "Melting Point": "210 °C (decomp)"
    }
}