{
    "cas_no": "7699-41-4",
    "key_name": "Silicic acid (H<sub>2</sub>SiO<sub>3</sub>)",
    "cn_name": null,
    "alternate_name": "Silicic acid (H<sub>2</sub>SiO<sub>3</sub>);Metasilicic acid;Silicon hydroxide oxide (Si(OH)<sub>2</sub>O)",
    "duplicated_cas_no": "20761-29-9;62647-19-2;2138374-66-8;2810035-27-7",
    "SMILES": "[Si](O)(O)=O",
    "meta_data": {
        "InChI": "InChI=1S/H2O3Si/c1-4(2)3/h1-2H",
        "InChIKey": null,
        "Canonical SMILES": "O=[Si](O)O",
        "Molecular Formula": "H<sub>2</sub>O<sub>3</sub>Si",
        "Molecular Mass": "78.10",
        "Melting Point": "203-205 °C"
    }
}