{
    "cas_no": "306-08-1",
    "key_name": "Homovanillic acid",
    "cn_name": "高香草酸;4-羟基-3-甲氧基苯乙酸;",
    "alternate_name": "Benzeneacetic acid, 4-hydroxy-3-methoxy-;Acetic acid, (4-hydroxy-3-methoxyphenyl)-;4-Hydroxy-3-methoxybenzeneacetic acid;HVA;3-Methoxy-4-hydroxyphenylacetic acid;Homovanillic acid;Vanilacetic acid;(4-Hydroxy-3-methoxyphenyl)acetic acid;NSC 16682;3′-Methoxy-4′-hydroxyphenylacetic acid;MeSH ID: D006719",
    "duplicated_cas_no": "",
    "SMILES": "C(C(O)=O)C1=CC(OC)=C(O)C=C1",
    "meta_data": {
        "InChI": "InChI=1S/C9H10O4/c1-13-8-4-6(5-9(11)12)2-3-7(8)10/h2-4,10H,5H2,1H3,(H,11,12)",
        "InChIKey": null,
        "Canonical SMILES": "O=C(O)CC1=CC=C(O)C(OC)=C1",
        "Molecular Formula": "C<sub>9</sub>H<sub>10</sub>O<sub>4</sub>",
        "Molecular Mass": "182.17",
        "Melting Point": "143.5 °C"
    }
}