{
    "cas_no": "168560-79-0",
    "key_name": "1-Aminoindan-1,5-dicarboxylic acid",
    "cn_name": "AIDA;",
    "alternate_name": "1<em>H</em>-Indene-1,5-dicarboxylic acid, 1-amino-2,3-dihydro-;1-Amino-2,3-dihydro-1<em>H</em>-indene-1,5-dicarboxylic acid;1-Aminoindan-1,5-dicarboxylic acid;UPF 523;AIDA",
    "duplicated_cas_no": "",
    "SMILES": "C(O)(=O)C1(N)C=2C(=CC(C(O)=O)=CC2)CC1",
    "meta_data": {
        "InChI": "InChI=1S/C11H11NO4/c12-11(10(15)16)4-3-6-5-7(9(13)14)1-2-8(6)11/h1-2,5H,3-4,12H2,(H,13,14)(H,15,16)",
        "InChIKey": null,
        "Canonical SMILES": "O=C(O)C1=CC=C2C(=C1)CCC2(N)C(=O)O",
        "Molecular Formula": "C<sub>11</sub>H<sub>11</sub>NO<sub>4</sub>",
        "Molecular Mass": "221.21",
        "Melting Point": "&gt;300 °C"
    }
}