{
    "cas_no": "57609-64-0",
    "key_name": "Trimethylene glycol di-<em>p</em>-aminobenzoate",
    "cn_name": "1,3-丙二醇双(4-氨基苯甲酸酯);硬化剂CUA-4;",
    "alternate_name": "1,3-Propanediol, 1,3-bis(4-aminobenzoate);1,3-Propanediol, bis(4-aminobenzoate);1,3-Propanediol di-<em>p</em>-aminobenzoate;Polacure 740M;TMAB;1,3-Propanediyl bis(<em>p</em>-aminobenzoate);Trimethylene glycol di-<em>p</em>-aminobenzoate;Trimethylene glycol bis(4-aminobenzoate);Cuamine CUA 4;Trimethylene glycol di-4-aminobenzoate;1,3-Propanediol bis(<em>p</em>-aminobenzoate);Trimethylene glycol bis(<em>p</em>-aminobenzoate);Polacure 740;CUA 4;Vibracure A 157;Versalink 740M;Versalink 740;1,3-Propylene bis(4-aminobenzoate);Trimethylene di-<em>p</em>-aminobenzoate;Propane-1,3-diyl bis(4-aminobenzoate);Trimethylene bis(4-aminobenzoate);Xylink 740M",
    "duplicated_cas_no": "174405-43-7",
    "SMILES": "C(OCCCOC(=O)C1=CC=C(N)C=C1)(=O)C2=CC=C(N)C=C2",
    "meta_data": {
        "InChI": "InChI=1S/C17H18N2O4/c18-14-6-2-12(3-7-14)16(20)22-10-1-11-23-17(21)13-4-8-15(19)9-5-13/h2-9H,1,10-11,18-19H2",
        "InChIKey": null,
        "Canonical SMILES": "O=C(OCCCOC(=O)C1=CC=C(N)C=C1)C2=CC=C(N)C=C2",
        "Molecular Formula": "C<sub>17</sub>H<sub>18</sub>N<sub>2</sub>O<sub>4</sub>",
        "Molecular Mass": "314.34",
        "Melting Point": "104-106 °C"
    }
}