{
    "cas_no": "52146-35-7",
    "key_name": "1-[(3,4,5-Trimethoxyphenyl)methyl]piperazine",
    "cn_name": null,
    "alternate_name": "Piperazine, 1-[(3,4,5-trimethoxyphenyl)methyl]-;Piperazine, 1-(3,4,5-trimethoxybenzyl)-;1-[(3,4,5-Trimethoxyphenyl)methyl]piperazine;1-(3,4,5-Trimethoxybenzyl)piperazine;<em>N</em>-(3,4,5-Trimethoxybenzyl)piperazine",
    "duplicated_cas_no": "",
    "SMILES": "C(C1=CC(OC)=C(OC)C(OC)=C1)N2CCNCC2",
    "meta_data": {
        "InChI": "InChI=1S/C14H22N2O3/c1-17-12-8-11(9-13(18-2)14(12)19-3)10-16-6-4-15-5-7-16/h8-9,15H,4-7,10H2,1-3H3",
        "InChIKey": null,
        "Canonical SMILES": "O(C=1C=C(C=C(OC)C1OC)CN2CCNCC2)C",
        "Molecular Formula": "C<sub>14</sub>H<sub>22</sub>N<sub>2</sub>O<sub>3</sub>",
        "Molecular Mass": "266.34",
        "Boiling Point": "165-170 °C @ Press: 1 x 10<sup>-3</sup> Torr",
        "Melting Point": "102-105 °C"
    }
}