{
    "cas_no": "1655-64-7",
    "key_name": "<em>N</em>-(2,4-Dinitrophenyl)-<span class=\"text-smallcaps\">L</span>-serine",
    "cn_name": "N-2,4-二硝基苯-L-丝氨酸;N-2,4-DNP-L-丝氨酸;N-2,4-二硝基苯-L-丝氨酸;",
    "alternate_name": "<span class=\"text-smallcaps\">L</span>-Serine, <em>N</em>-(2,4-dinitrophenyl)-;Serine, <em>N</em>-(2,4-dinitrophenyl)-, <span class=\"text-smallcaps\">L</span>-;<em>N</em>-(2,4-Dinitrophenyl)-<span class=\"text-smallcaps\">L</span>-serine;2,4-Dinitrophenyl-<span class=\"text-smallcaps\">L</span>-serine;(2,4-Dinitrophenyl)serine;<em>N</em>-(2,4-Dinitrophenyl)serine;<em>N</em>-2,4-DNP-<span class=\"text-smallcaps\">L</span>-serine;DNP-<span class=\"text-smallcaps\">L</span>-serine;<span class=\"text-smallcaps\">L</span>-DNP-Serine;NSC 89606;(2S)-2-[(2,4-Dinitrophenyl)amino]-3-hydroxypropanoic acid",
    "duplicated_cas_no": "14449-04-8",
    "SMILES": "N([C@H](C(O)=O)CO)C1=C(N(=O)=O)C=C(N(=O)=O)C=C1",
    "meta_data": {
        "InChI": "InChI=1S/C9H9N3O7/c13-4-7(9(14)15)10-6-2-1-5(11(16)17)3-8(6)12(18)19/h1-3,7,10,13H,4H2,(H,14,15)/t7-/m0/s1",
        "InChIKey": null,
        "Canonical SMILES": "O=C(O)C(NC1=CC=C(C=C1N(=O)=O)N(=O)=O)CO",
        "Molecular Formula": "C<sub>9</sub>H<sub>9</sub>N<sub>3</sub>O<sub>7</sub>",
        "Molecular Mass": "271.18",
        "Melting Point": "196-197 °C"
    }
}