{
    "cas_no": "613-93-4",
    "key_name": "<em>N</em>-Methylbenzamide",
    "cn_name": "N-甲基苯甲酰胺;",
    "alternate_name": "Benzamide, <em>N</em>-methyl-;<em>N</em>-Methylbenzamide;<em>N</em>-Methylbenzenecarboxamide;NSC 42944",
    "duplicated_cas_no": "",
    "SMILES": "C(NC)(=O)C1=CC=CC=C1",
    "meta_data": {
        "InChI": "InChI=1S/C8H9NO/c1-9-8(10)7-5-3-2-4-6-7/h2-6H,1H3,(H,9,10)",
        "InChIKey": null,
        "Canonical SMILES": "O=C(NC)C=1C=CC=CC1",
        "Molecular Formula": "C<sub>8</sub>H<sub>9</sub>NO",
        "Molecular Mass": "135.16",
        "Boiling Point": "291 °C",
        "Melting Point": "82 °C"
    }
}