{
    "cas_no": "57-63-6",
    "key_name": "Ethinylestradiol",
    "cn_name": "炔雌醇;",
    "alternate_name": "19-Norpregna-1,3,5(10)-trien-20-yne-3,17-diol, (17α)-;19-Nor-17α-pregna-1,3,5(10)-trien-20-yne-3,17-diol;(17α)-19-Norpregna-1,3,5(10)-trien-20-yne-3,17-diol;Amenoron;Chee-O-Genf;Diogyn E;Dyloform;Esteed;Estigyn;Estinyl;Eston-E;Estorals;Estradiol, 17-ethynyl-;<em>neo</em>-Estrone;Ethidol;Ethinoral;17α-Ethinyl-3,17-dihydroxy-Δ<sup>1,3,5</sup>-estratriene;Ethinylestradiol;17-Ethinyl-3,17-estradiol;17α-Ethinylestradiol;17α-Ethinylestra-1,3,5(10)-triene-3,17β-diol;Ethinyloestradiol;17-Ethynyl-3,17-dihydroxy-1,3,5-oestratriene;Ethynylestradiol;17-Ethynylestradiol;17-Ethynylestra-1,3,5(10)-triene-3,17β-diol;17α-Ethynylestra-1,3,5(10)-triene-3,17β-diol;Eticyclin;Eticyclol;Etinestrol;Etinestryl;Etinoestryl;Ginestrene;Inestra;Linoral;Lynoral;Menolyn;Novestrol;Oradiol;Orestralyn;Palonyl;Perovex;Primogyn;Progynon C;Primogyn C;Primogyn M;17-Ethinylestradiol;17α-Ethinyl-17β-estradiol;17α-Ethinyl-1,3,5(10)-estratriene-3,17-diol;17α-Ethynylestradiol;17-Nor-17α-pregna-1,3,5-(10)-trien-20-yne-3,17-diol;Chee-O-Gen;Estoral;Etistradiol;Spanestrin;Follicoral;Microfollin;19-Nor-17α-pregna-1,3,5(10)-trien-20-yne-3,17β-diol;Ethynyloestradiol;Prosexol;NSC 10973;Gynofen;17α-Ethynylestra-3,17β-diol;Acetylene estradiol;Novinet;17α-Ethinyl estradiol (EE2);MeSH ID: D004997",
    "duplicated_cas_no": "77538-56-8;406932-93-2;1050678-65-3",
    "SMILES": "C[C@@]12[C@]([C@]3([C@](CC1)(C=4C(CC3)=CC(O)=CC4)[H])[H])(CC[C@]2(C#C)O)[H]",
    "meta_data": {
        "InChI": "InChI=1S/C20H24O2/c1-3-20(22)11-9-18-17-6-4-13-12-14(21)5-7-15(13)16(17)8-10-19(18,20)2/h1,5,7,12,16-18,21-22H,4,6,8-11H2,2H3/t16-,17-,18+,19+,20+/m1/s1",
        "InChIKey": null,
        "Canonical SMILES": "C#CC1(O)CCC2C3CCC4=CC(O)=CC=C4C3CCC21C",
        "Molecular Formula": "C<sub>20</sub>H<sub>24</sub>O<sub>2</sub>",
        "Molecular Mass": "296.40",
        "Melting Point": "141-146 °C"
    }
}