{
    "cas_no": "2657-87-6",
    "key_name": "3,4′-Diaminodiphenyl ether",
    "cn_name": "3,4\"-二氨基二苯醚;",
    "alternate_name": "Benzenamine, 3-(4-aminophenoxy)-;3-(4-Aminophenoxy)benzenamine;4,3′-Diaminodiphenyl oxide;3,4′-Diaminodiphenyl ether;3,4′-Oxydianiline;3-Aminophenyl 4-aminophenyl ether;3,4′-DAPE;3,4′-Oxydiphenylamine;CLP 5050;3-Amino-4′-aminodiphenyl ether;3,4′-DPE;3-(4-Aminophenoxy)aniline;3,4′-ODA;<em>m</em>,<em>p</em>′-Oxydianiline",
    "duplicated_cas_no": "",
    "SMILES": "O(C1=CC(N)=CC=C1)C2=CC=C(N)C=C2",
    "meta_data": {
        "InChI": "InChI=1S/C12H12N2O/c13-9-4-6-11(7-5-9)15-12-3-1-2-10(14)8-12/h1-8H,13-14H2",
        "InChIKey": null,
        "Canonical SMILES": "O(C1=CC=C(N)C=C1)C2=CC=CC(N)=C2",
        "Molecular Formula": "C<sub>12</sub>H<sub>12</sub>N<sub>2</sub>O",
        "Molecular Mass": "200.24",
        "Melting Point": "72 °C"
    }
}