{
    "cas_no": "947-19-3",
    "key_name": "1-Hydroxycyclohexyl phenyl ketone",
    "cn_name": "1-羟基环己基苯基甲酮;",
    "alternate_name": "Methanone, (1-hydroxycyclohexyl)phenyl-;Ketone, 1-hydroxycyclohexyl phenyl;(1-Hydroxycyclohexyl)phenylmethanone;1-Benzoyl-1-hydroxycyclohexane;Irgacure G 17-1184;1-Benzoylcyclohexanol;1-Hydroxycyclohexyl phenyl ketone;Irgacure 184;α-Hydroxycyclohexyl phenyl ketone;α-Hydroxy-α-cyclohexyl phenyl ketone;Irgacure 181;Irgacure I 184;I 184;Chivacure 184;SarCure SR 1122;NSC 401908;IRG 184;Darocur 184C;Runtecure 1104;SR 1122;1-Hydroxy-1-cyclohexyl phenyl ketone;IC 184;Irgacure 184D;Esacure KS 300;KS 300;Micure CP 4;Irgacure 183;IHT-PI 184;Additol CPK;CPK;Luna 200;HCPK;Photoinitiator 184;PI 184;Photocure 184;Huatai 184;Doublecure 184;Initiator 1104;184D;Chemcure 481;X-Cure 184;Irgacure 189;I 189;Speedcure 184;Suncure 84;Irgacure 1104;Genocure CPK;Omnirad 481;Ciba 184;JR 184;UV 184;SB-PI 714;JRCure 1104;Irgacure 1841;Boxing 184;Lunacure 200;BASF 184;JRcure 184;Daido UV-Cure 174;Omnirad 184;MV 5001;184S;Ryoji 184;Gencure 184;Darocur 184;OR 184;IGM 184;Omnirad 184D;RG 184;Photoinitiator 1104;Om 184;Rantecure 1104;CP 4 (photoinitiator);CP 4",
    "duplicated_cas_no": "97396-91-3;127546-04-7;150080-97-0;191113-92-5;858356-32-8;910027-96-2;1237753-58-0;1345834-99-2;1467104-17-1;2222661-69-8;2996120-55-7",
    "SMILES": "C(=O)(C1(O)CCCCC1)C2=CC=CC=C2",
    "meta_data": {
        "InChI": "InChI=1S/C13H16O2/c14-12(11-7-3-1-4-8-11)13(15)9-5-2-6-10-13/h1,3-4,7-8,15H,2,5-6,9-10H2",
        "InChIKey": null,
        "Canonical SMILES": "O=C(C=1C=CC=CC1)C2(O)CCCCC2",
        "Molecular Formula": "C<sub>13</sub>H<sub>16</sub>O<sub>2</sub>",
        "Molecular Mass": "204.26",
        "Boiling Point": "140 °C @ Press: 0.1 Torr",
        "Melting Point": "47-49 °C"
    }
}