{
    "cas_no": "5638-76-6",
    "key_name": "Betahistine",
    "cn_name": "抗眩啶;倍他司汀;",
    "alternate_name": "2-Pyridineethanamine, <em>N</em>-methyl-;Pyridine, 2-[2-(methylamino)ethyl]-;<em>N</em>-Methyl-2-pyridineethanamine;Betahistine;<em>N</em>-Methyl-2-pyridineethylamine;[2-(2-Pyridyl)ethyl]methylamine;β-Histine;2-(β-Methylaminoethyl)pyridine;<em>N</em>-Methyl-2-(2-pyridinyl)ethanamine;2-(2-Methylaminoethyl)pyridine;Methyl(2-pyridin-2-ylethyl)amine;<em>N</em>-Methyl-<em>N</em>-[2-(2-pyridinyl)ethyl]amine;<em>N</em>-Methyl-2-(2-pyridyl)ethylamine;NSC 42617;Y-G 14;<em>N</em>-Methyl-<em>N</em>-[2-(pyridin-2-yl)ethyl]amine;OBE 101;<em>N</em>-Methyl[2-(pyridin-2-yl)ethyl]amine;<em>N</em>-[2-(2-Pyridyl)ethyl]-<em>N</em>-methylamine;<em>N</em>-Methyl-2-(pyridin-2-yl)ethan-1-amine;MeSH ID: D001621",
    "duplicated_cas_no": "",
    "SMILES": "C(CNC)C1=CC=CC=N1",
    "meta_data": {
        "InChI": "InChI=1S/C8H12N2/c1-9-7-5-8-4-2-3-6-10-8/h2-4,6,9H,5,7H2,1H3",
        "InChIKey": null,
        "Canonical SMILES": "N=1C=CC=CC1CCNC",
        "Molecular Formula": "C<sub>8</sub>H<sub>12</sub>N<sub>2</sub>",
        "Molecular Mass": "136.19",
        "Boiling Point": "113-114 °C",
        "Density": "0.984 g/cm³"
    }
}