{
    "cas_no": "85-54-1",
    "key_name": "2-(4-Chloro-3-nitrobenzoyl)benzoic acid",
    "cn_name": "2-(4-氯-3-硝基苯甲酰)苯甲酸;",
    "alternate_name": "Benzoic acid, 2-(4-chloro-3-nitrobenzoyl)-;Benzoic acid, <em>o</em>-(4-chloro-3-nitrobenzoyl)-;2-(4-Chloro-3-nitrobenzoyl)benzoic acid;3′-Nitro-4′-chlorobenzoylbenzoic acid;4-Chloro-3-nitrobenzophenone-2′-carboxylic acid;2-(3-Nitro-4-chlorobenzoyl)benzoic acid;2-[(4-Chloro-3-nitrophenyl)carbonyl]benzoic acid;NSC 15366;2-(4′-Chloro-3′-nitrobenzoyl)benzoic acid",
    "duplicated_cas_no": "",
    "SMILES": "C(=O)(C1=C(C(O)=O)C=CC=C1)C2=CC(N(=O)=O)=C(Cl)C=C2",
    "meta_data": {
        "InChI": "InChI=1S/C14H8ClNO5/c15-11-6-5-8(7-12(11)16(20)21)13(17)9-3-1-2-4-10(9)14(18)19/h1-7H,(H,18,19)",
        "InChIKey": null,
        "Canonical SMILES": "O=C(O)C=1C=CC=CC1C(=O)C2=CC=C(Cl)C(=C2)N(=O)=O",
        "Molecular Formula": "C<sub>14</sub>H<sub>8</sub>ClNO<sub>5</sub>",
        "Molecular Mass": "305.67",
        "Melting Point": "200.5-201 °C"
    }
}