{
    "cas_no": "1750-42-1",
    "key_name": "3-Isoxazolamine",
    "cn_name": null,
    "alternate_name": "3-Isoxazolamine;Isoxazole, 3-amino-;3-Aminoisoxazole;3-Isoxazolylamine;1,2-Oxazol-3-amine;3-Amino-1,2-oxazole",
    "duplicated_cas_no": "",
    "SMILES": "NC=1C=CON1",
    "meta_data": {
        "InChI": "InChI=1S/C3H4N2O/c4-3-1-2-6-5-3/h1-2H,(H2,4,5)",
        "InChIKey": null,
        "Canonical SMILES": "N=1OC=CC1N",
        "Molecular Formula": "C<sub>3</sub>H<sub>4</sub>N<sub>2</sub>O",
        "Molecular Mass": "84.08",
        "Boiling Point": "101 °C @ Press: 10 Torr",
        "Melting Point": "148-150 °C"
    }
}