{
    "cas_no": "585-71-7",
    "key_name": "(1-Bromoethyl)benzene",
    "cn_name": "(1-溴乙基)苯;alpha-溴乙基苯;",
    "alternate_name": "Benzene, (1-bromoethyl)-;(1-Bromoethyl)benzene;α-Phenylethyl bromide;1-Phenylethyl bromide;(α-Bromoethyl)benzene;1-Bromo-1-phenylethane;1-Phenyl-1-bromoethane;α-Methylbenzyl bromide;1-Phenethyl bromide;α-Phenethyl bromide;1-Phenylbromoethane;(±)-(1-Bromoethyl)benzene;(±)-1-Phenylethyl bromide;(±)-1-Bromo-1-phenylethane;NSC 8052;1-(1-Bromoethyl)benzene",
    "duplicated_cas_no": "38661-81-3",
    "SMILES": "C(Br)(C)C1=CC=CC=C1",
    "meta_data": {
        "InChI": "InChI=1S/C8H9Br/c1-7(9)8-5-3-2-4-6-8/h2-7H,1H3",
        "InChIKey": null,
        "Canonical SMILES": "BrC(C=1C=CC=CC1)C",
        "Molecular Formula": "C<sub>8</sub>H<sub>9</sub>Br",
        "Molecular Mass": "185.06",
        "Boiling Point": "94 °C @ Press: 16 Torr",
        "Melting Point": "-65 °C",
        "Density": "1.356 g/cm³"
    }
}