{
    "cas_no": "19752-57-9",
    "key_name": "1,3-Dibromo-5-iodobenzene",
    "cn_name": "1,3-二溴-5-碘苯;",
    "alternate_name": "Benzene, 1,3-dibromo-5-iodo-;1,3-Dibromo-5-iodobenzene;3,5-Dibromoiodobenzene;3,5-Dibromophenyl iodide;1-Iodo-3,5-dibromobenzene",
    "duplicated_cas_no": "",
    "SMILES": "BrC1=CC(Br)=CC(I)=C1",
    "meta_data": {
        "InChI": "InChI=1S/C6H3Br2I/c7-4-1-5(8)3-6(9)2-4/h1-3H",
        "InChIKey": null,
        "Canonical SMILES": "BrC=1C=C(Br)C=C(I)C1",
        "Molecular Formula": "C<sub>6</sub>H<sub>3</sub>Br<sub>2</sub>I",
        "Molecular Mass": "361.80",
        "Melting Point": "122.5-123.5 °C"
    }
}