{
    "cas_no": "591-21-9",
    "key_name": "1,3-Dimethylcyclohexane",
    "cn_name": "间二甲基环己烷;1,3-二甲基环己烷;",
    "alternate_name": "Cyclohexane, 1,3-dimethyl-;1,3-Dimethylcyclohexane;<em>m</em>-Dimethylcyclohexane",
    "duplicated_cas_no": "",
    "SMILES": "CC1CC(C)CCC1",
    "meta_data": {
        "InChI": "InChI=1S/C8H16/c1-7-4-3-5-8(2)6-7/h7-8H,3-6H2,1-2H3",
        "InChIKey": null,
        "Canonical SMILES": "CC1CCCC(C)C1",
        "Molecular Formula": "C<sub>8</sub>H<sub>16</sub>",
        "Molecular Mass": "112.21",
        "Boiling Point": "122.5 °C",
        "Density": "0.7707 g/cm³ @ Temp: 20.75 °C"
    }
}