{
    "cas_no": "1563-66-2",
    "key_name": "Carbofuran",
    "cn_name": "克百威;呋喃丹;虫螨威;2,3-二氢-2,2-二甲基-7-苯并呋喃基甲氨基甲酸酯;",
    "alternate_name": "7-Benzofuranol, 2,3-dihydro-2,2-dimethyl-, 7-(<em>N</em>-methylcarbamate);Carbamic acid, methyl-, 2,3-dihydro-2,2-dimethyl-7-benzofuranyl ester;7-Benzofuranol, 2,3-dihydro-2,2-dimethyl-, methylcarbamate;NIA 10242;2,3-Dihydro-2,2-dimethyl-7-benzofuranyl methylcarbamate;Furadan;Niagara 10242;Carbofuran;2,3-Dihydro-2,2-dimethyl-7-benzofuranyl <em>N</em>-methylcarbamate;BAY 70143;OMS 864;2,2-Dimethyl-2,3-dihydro-7-benzofuranyl <em>N</em>-methylcarbamate;Curaterr;2,2-Dimethyl-7-coumaranyl <em>N</em>-methylcarbamate;Furadan 3G;Chinufur;Furadan 75WP;Furadan 4F;Furadan SP 50;Yaltox;Diafuran;Diafuran 5G;Curaterr 5;Terafuran;Sunfuran;Adifur;NSC 167822;Furadan 350S;Furadan F;Furadan G;Brifer;2,3-Dihydro-2,2-dimethyl-7-benzofuranol methylcarbamate;Furadan 350SC;2,2-Dimethyl-2,3-dihydro-1-benzofuran-7-yl methylcarbamate;396carbofuran;MeSH ID: D002235",
    "duplicated_cas_no": "",
    "SMILES": "O(C(NC)=O)C1=C2C(CC(C)(C)O2)=CC=C1",
    "meta_data": {
        "InChI": "InChI=1S/C12H15NO3/c1-12(2)7-8-5-4-6-9(10(8)16-12)15-11(14)13-3/h4-6H,7H2,1-3H3,(H,13,14)",
        "InChIKey": null,
        "Canonical SMILES": "O=C(OC1=CC=CC2=C1OC(C)(C)C2)NC",
        "Molecular Formula": "C<sub>12</sub>H<sub>15</sub>NO<sub>3</sub>",
        "Molecular Mass": "221.25",
        "Melting Point": "151 °C",
        "Density": "1.180 g/cm³ @ Temp: 20 °C"
    }
}