{
    "cas_no": "6299-02-1",
    "key_name": "1-(4-Chlorophenyl)ethylamine",
    "cn_name": "1-(4-氯苯基)乙胺;",
    "alternate_name": "Benzenemethanamine, 4-chloro-α-methyl-;Benzylamine, <em>p</em>-chloro-α-methyl-;4-Chloro-α-methylbenzenemethanamine;<em>p</em>-Chloro-α-methylbenzylamine;4-Chloro-α-methylbenzylamine;1-(4-Chlorophenyl)ethylamine;1-(<em>p</em>-Chlorophenyl)ethylamine;(±)-4-Chloro-α-methylbenzenemethanamine;(±)-α-(<em>p</em>-Chlorophenyl)ethylamine;(±)-1-(4-Chlorophenyl)ethylamine;α-(<em>p</em>-Chlorophenyl)ethylamine;α-Methyl-4-chlorobenzenemethanamine;NSC 42452;1-(4-Chlorophenyl)ethanamine;(RS)-1-(<em>p</em>-chlorophenyl)ethylamine",
    "duplicated_cas_no": "35588-60-4",
    "SMILES": "C(C)(N)C1=CC=C(Cl)C=C1",
    "meta_data": {
        "InChI": "InChI=1S/C8H10ClN/c1-6(10)7-2-4-8(9)5-3-7/h2-6H,10H2,1H3",
        "InChIKey": null,
        "Canonical SMILES": "ClC1=CC=C(C=C1)C(N)C",
        "Molecular Formula": "C<sub>8</sub>H<sub>10</sub>ClN",
        "Molecular Mass": "155.62",
        "Boiling Point": "105 °C @ Press: 10 Torr",
        "Melting Point": "140-141 °C",
        "Density": "1.1178 g/cm³ @ Temp: 20 °C"
    }
}