{
    "cas_no": "3856-25-5",
    "key_name": "Copaene",
    "cn_name": "(?)-α-蒎烯;ALPHA-蒎烯;",
    "alternate_name": "Tricyclo[4.4.0.0<sup>2,7</sup>]dec-3-ene, 1,3-dimethyl-8-(1-methylethyl)-, (1<em>R</em>,2<em>S</em>,6<em>S</em>,7<em>S</em>,8<em>S</em>)-;Copaene;Tricyclo[4.4.0.0<sup>2,7</sup>]dec-3-ene, 8-isopropyl-1,3-dimethyl-, (1<em>R</em>,2<em>S</em>,6<em>S</em>,7<em>S</em>,8<em>S</em>)-(-)-;Tricyclo[4.4.0.0<sup>2,7</sup>]dec-3-ene, 1,3-dimethyl-8-(1-methylethyl)-, stereoisomer;Tricyclo[4.4.0.0<sup>2,7</sup>]dec-3-ene, 8-isopropyl-1,3-dimethyl-;(1<em>R</em>,2<em>S</em>,6<em>S</em>,7<em>S</em>,8<em>S</em>)-1,3-Dimethyl-8-(1-methylethyl)tricyclo[4.4.0.0<sup>2,7</sup>]dec-3-ene;α-Copaene;(-)-α-Copaene;(1<em>R</em>,2<em>S</em>,6<em>S</em>,7<em>S</em>,8<em>S</em>)-(-)-8-Isopropyl-1,3-dimethyltricyclo[4.4.0.0<sup>2,7</sup>]dec-3-ene;(-)-Copaene;Aglaiene;alpha-Copaene",
    "duplicated_cas_no": "18252-43-2;26917-81-7",
    "SMILES": "C[C@]12[C@]3([C@]([C@@]1(CC=C3C)[H])([C@H]([C@@H](C)C)CC2)[H])[H]",
    "meta_data": {
        "InChI": "InChI=1S/C15H24/c1-9(2)11-7-8-15(4)12-6-5-10(3)14(15)13(11)12/h5,9,11-14H,6-8H2,1-4H3/t11-,12-,13-,14+,15+/m0/s1",
        "InChIKey": null,
        "Canonical SMILES": "C1=C(C)C2C3C(CCC2(C)C3C1)C(C)C",
        "Molecular Formula": "C<sub>15</sub>H<sub>24</sub>",
        "Molecular Mass": "204.35",
        "Boiling Point": "248.5 °C",
        "Melting Point": "74 °C",
        "Density": "0.8996 g/cm³ @ Temp: 20 °C"
    }
}