{
    "cas_no": "84-15-1",
    "key_name": "<em>o</em>-Terphenyl",
    "cn_name": "1,2-三联苯;",
    "alternate_name": "1,1′:2′,1′′-Terphenyl;<em>o</em>-Terphenyl;1,1′-Biphenyl, 2-phenyl-;1,2-Diphenylbenzene;NSC 6809;2-Phenyl-1,1′-biphenyl",
    "duplicated_cas_no": "",
    "SMILES": "C1(=C(C=CC=C1)C2=CC=CC=C2)C3=CC=CC=C3",
    "meta_data": {
        "InChI": "InChI=1S/C18H14/c1-3-9-15(10-4-1)17-13-7-8-14-18(17)16-11-5-2-6-12-16/h1-14H",
        "InChIKey": null,
        "Canonical SMILES": "C=1C=CC(=CC1)C=2C=CC=CC2C=3C=CC=CC3",
        "Molecular Formula": "C<sub>18</sub>H<sub>14</sub>",
        "Molecular Mass": "230.30",
        "Boiling Point": "332 °C @ Press: 760 Torr",
        "Melting Point": "56.2 °C",
        "Density": "1.1 g/cm³"
    }
}