{
    "cas_no": "622-42-4",
    "key_name": "Phenylnitromethane",
    "cn_name": null,
    "alternate_name": "Benzene, (nitromethyl)-;Toluene, α-nitro-;(Nitromethyl)benzene;Phenylnitromethane;Nitrophenylmethane;α-Nitrotoluene;NSC 3439",
    "duplicated_cas_no": "",
    "SMILES": "C(N(=O)=O)C1=CC=CC=C1",
    "meta_data": {
        "InChI": "InChI=1S/C7H7NO2/c9-8(10)6-7-4-2-1-3-5-7/h1-5H,6H2",
        "InChIKey": null,
        "Canonical SMILES": "O=N(=O)CC=1C=CC=CC1",
        "Molecular Formula": "C<sub>7</sub>H<sub>7</sub>NO<sub>2</sub>",
        "Molecular Mass": "137.14",
        "Boiling Point": "226 °C",
        "Melting Point": "80.7 °C",
        "Density": "1.654 g/cm³"
    }
}