{
    "cas_no": "2050-14-8",
    "key_name": "2,2′-Dihydroxyazobenzene",
    "cn_name": "2,2-二羟基偶氮苯;2,2-羟基偶氮苯;",
    "alternate_name": "Phenol, 2,2′-(1,2-diazenediyl)bis-;Phenol, 2,2′-azodi-;Phenol, 2,2′-azobis-;Phenol, <em>o</em>,<em>o</em>′-azodi-;Phenol, <em>o</em>,<em>o</em>′-azobis-;2,2′-(1,2-Diazenediyl)bis[phenol];<em>o</em>-Azophenol;<em>o</em>,<em>o</em>′-Dihydroxyazobenzene;2,2′-Dihydroxyazobenzene;2,2′-Azodiphenol;2,2′-Azophenol;Azobenzene-2,2′-diol;Azobis(2-hydroxyphenyl);2,2′-Diazenediyldiphenol",
    "duplicated_cas_no": "",
    "SMILES": "N(=NC1=C(O)C=CC=C1)C2=C(O)C=CC=C2",
    "meta_data": {
        "InChI": "InChI=1S/C12H10N2O2/c15-11-7-3-1-5-9(11)13-14-10-6-2-4-8-12(10)16/h1-8,15-16H",
        "InChIKey": null,
        "Canonical SMILES": "OC=1C=CC=CC1N=NC=2C=CC=CC2O",
        "Molecular Formula": "C<sub>12</sub>H<sub>10</sub>N<sub>2</sub>O<sub>2</sub>",
        "Molecular Mass": "214.22",
        "Melting Point": "173 °C"
    }
}