{
    "cas_no": "1077-27-6",
    "key_name": "(<em>S</em>)-Thioctic acid",
    "cn_name": "5-[(3S)-二硫环戊-3-基]戊酸;",
    "alternate_name": "1,2-Dithiolane-3-pentanoic acid, (3<em>S</em>)-;1,2-Dithiolane-3-pentanoic acid, (<em>S</em>)-;(3<em>S</em>)-1,2-Dithiolane-3-pentanoic acid;<em>l</em>-Thioctic acid;(-)-Thioctic acid;(<em>S</em>)-Thioctic acid;<em>S</em>-(-)-α-Lipoic acid;(<em>S</em>)-Lipoic acid;(<em>S</em>)-(-)-Lipoic acid;1,2-Dithiolane-3-pentanoic acid (3S)-",
    "duplicated_cas_no": "127254-35-7",
    "SMILES": "C(CCCC(O)=O)[C@H]1CCSS1",
    "meta_data": {
        "InChI": "InChI=1S/C8H14O2S2/c9-8(10)4-2-1-3-7-5-6-11-12-7/h7H,1-6H2,(H,9,10)/t7-/m0/s1",
        "InChIKey": null,
        "Canonical SMILES": "O=C(O)CCCCC1SSCC1",
        "Molecular Formula": "C<sub>8</sub>H<sub>14</sub>O<sub>2</sub>S<sub>2</sub>",
        "Molecular Mass": "206.33",
        "Melting Point": "45-47.5 °C"
    }
}