{
    "cas_no": "2198-54-1",
    "key_name": "<em>N</em>-(3,4-Dimethylphenyl)acetamide",
    "cn_name": "3,4-二甲基乙酰苯胺;",
    "alternate_name": "Acetamide, <em>N</em>-(3,4-dimethylphenyl)-;3′,4′-Acetoxylidide;<em>N</em>-(3,4-Dimethylphenyl)acetamide;3′,4′-Dimethylacetanilide;NSC 25232",
    "duplicated_cas_no": "",
    "SMILES": "N(C(C)=O)C1=CC(C)=C(C)C=C1",
    "meta_data": {
        "InChI": "InChI=1S/C10H13NO/c1-7-4-5-10(6-8(7)2)11-9(3)12/h4-6H,1-3H3,(H,11,12)",
        "InChIKey": null,
        "Canonical SMILES": "O=C(NC1=CC=C(C(=C1)C)C)C",
        "Molecular Formula": "C<sub>10</sub>H<sub>13</sub>NO",
        "Molecular Mass": "163.22",
        "Melting Point": "96.5 °C"
    }
}