{
    "cas_no": "405-66-3",
    "key_name": "4-Fluoro-<em>N</em>-methylbenzenemethanamine",
    "cn_name": "N-甲基-4-氟苄胺;",
    "alternate_name": "Benzenemethanamine, 4-fluoro-<em>N</em>-methyl-;Benzylamine, <em>p</em>-fluoro-<em>N</em>-methyl-;4-Fluoro-<em>N</em>-methylbenzenemethanamine;4-Fluoro-<em>N</em>-methylbenzylamine;<em>N</em>-(4-Fluorobenzyl)-<em>N</em>-methylamine;(4-Fluorobenzyl)methylamine;<em>N</em>-Methyl-4-fluorobenzylamine;<em>N</em>-(4-Fluorobenzyl)methylamine;<em>N</em>-[(4-Fluorophenyl)methyl]-<em>N</em>-methylamine;(4-Fluorophenyl)-<em>N</em>-methylmethanamine;1-(4-Fluorophenyl)-<em>N</em>-methylmethanamine;[(4-Fluorophenyl)methyl](methyl)amine;1-(4-Fuorophenyl)-<em>N</em>-methylmethanamine",
    "duplicated_cas_no": "",
    "SMILES": "C(NC)C1=CC=C(F)C=C1",
    "meta_data": {
        "InChI": "InChI=1S/C8H10FN/c1-10-6-7-2-4-8(9)5-3-7/h2-5,10H,6H2,1H3",
        "InChIKey": null,
        "Canonical SMILES": "FC1=CC=C(C=C1)CNC",
        "Molecular Formula": "C<sub>8</sub>H<sub>10</sub>FN",
        "Molecular Mass": "139.17",
        "Boiling Point": "80-82 °C @ Press: 14 Torr"
    }
}