{
    "cas_no": "2536-31-4",
    "key_name": "Chlorflurenol methyl",
    "cn_name": "整形素;2-氯-9-羟基芴-9-甲酸甲酯;",
    "alternate_name": "9<em>H</em>-Fluorene-9-carboxylic acid, 2-chloro-9-hydroxy-, methyl ester;Fluorene-9-carboxylic acid, 2-chloro-9-hydroxy-, methyl ester;IT 3456;2-Chloro-9-fluorenol-9-carboxylic acid methyl ester;Methyl 2-chloro-9-fluorenol-9-carboxylate;Methyl 2-chloro-9-hydroxyfluorene-9-carboxylate;Methyl morphactin;Methyl-2-chloro-9-hydroxyfluorene-9-carboxylic acid;Morphactin IT 3456;TH 417-H;Chlorflurecol-methyl;2-Chloro-9-hydroxyfluorene-9-carboxylic acid methyl ester;Chlorfluorenolmethyl;Maintain;Maintain A;Chlorfluorenol IT 3456;2-Chloro-9-hydroxy-9<em>H</em>-fluorene-9-carboxylic acid methyl ester;Chloroflurenol methyl ester;EMD 7301;EMD 7301W;Chlorflurenol methyl;EMD-IT 3456;CME 74050;Chlorflurenol methyl ester;CF 125;CME 74050P;Chlorflurecol methyl ester",
    "duplicated_cas_no": "102819-75-0;12764-76-0;88026-16-8",
    "SMILES": "C(OC)(=O)C1(O)C=2C(C=3C1=CC=CC3)=CC=C(Cl)C2",
    "meta_data": {
        "InChI": "InChI=1S/C15H11ClO3/c1-19-14(17)15(18)12-5-3-2-4-10(12)11-7-6-9(16)8-13(11)15/h2-8,18H,1H3",
        "InChIKey": null,
        "Canonical SMILES": "O=C(OC)C1(O)C=2C=CC=CC2C3=CC=C(Cl)C=C31",
        "Molecular Formula": "C<sub>15</sub>H<sub>11</sub>ClO<sub>3</sub>",
        "Molecular Mass": "274.70",
        "Melting Point": "136-142 °C"
    }
}