{
    "cas_no": "1087-02-1",
    "key_name": "1,4-Dicyclohexylbenzene",
    "cn_name": "1,4-二环己基苯;",
    "alternate_name": "Benzene, 1,4-dicyclohexyl-;Benzene, <em>p</em>-dicyclohexyl-;1,4-Dicyclohexylbenzene;<em>p</em>-Dicyclohexylbenzene;NSC 6353",
    "duplicated_cas_no": "",
    "SMILES": "C1(=CC=C(C=C1)C2CCCCC2)C3CCCCC3",
    "meta_data": {
        "InChI": "InChI=1S/C18H26/c1-3-7-15(8-4-1)17-11-13-18(14-12-17)16-9-5-2-6-10-16/h11-16H,1-10H2",
        "InChIKey": null,
        "Canonical SMILES": "C=1C=C(C=CC1C2CCCCC2)C3CCCCC3",
        "Molecular Formula": "C<sub>18</sub>H<sub>26</sub>",
        "Molecular Mass": "242.40",
        "Boiling Point": "192-195 °C @ Press: 13 Torr",
        "Melting Point": "100 °C"
    }
}