{
    "cas_no": "3485-62-9",
    "key_name": "Clidinium bromide",
    "cn_name": "克利溴铵;可立啶;(1-甲基-1-氮杂双环[2.2.2]辛-8-基)2-羟基-2,2-二苯基乙酸酯溴化物;",
    "alternate_name": "1-Azoniabicyclo[2.2.2]octane, 3-[(2-hydroxy-2,2-diphenylacetyl)oxy]-1-methyl-, bromide (1:1);Quinuclidinium, 3-hydroxy-1-methyl-, bromide, benzilate;1-Azoniabicyclo[2.2.2]octane, 3-[(hydroxydiphenylacetyl)oxy]-1-methyl-, bromide;3-Hydroxy-1-methylquinuclidinium bromide, benzilate;Ro 2-3773;3-(Benziloyloxy)-1-methylquinuclidinium bromide;Clidinium bromide;1-Methyl-3-(benziloyloxy)quinuclidinium bromide;Quarzan;Quarzan bromide",
    "duplicated_cas_no": "",
    "SMILES": "C(C(OC1C2CC[N+](C)(C1)CC2)=O)(O)(C3=CC=CC=C3)C4=CC=CC=C4.[Br-]",
    "meta_data": {
        "InChI": "InChI=1S/C22H26NO3.BrH/c1-23-14-12-17(13-15-23)20(16-23)26-21(24)22(25,18-8-4-2-5-9-18)19-10-6-3-7-11-19;/h2-11,17,20,25H,12-16H2,1H3;1H/q+1;/p-1",
        "InChIKey": null,
        "Canonical SMILES": "[Br-].O=C(OC1C[N+]2(C)CCC1CC2)C(O)(C=3C=CC=CC3)C=4C=CC=CC4",
        "Molecular Formula": "C<sub>22</sub>H<sub>26</sub>NO<sub>3</sub>.Br",
        "Molecular Mass": "",
        "Melting Point": "240.5 °C"
    }
}