{
    "cas_no": "67-48-1",
    "key_name": "Choline chloride",
    "cn_name": "氯化胆碱;2-羟乙基三甲基氯化铵;",
    "alternate_name": "Ethanaminium, 2-hydroxy-<em>N</em>,<em>N</em>,<em>N</em>-trimethyl-, chloride (1:1);Choline, chloride;Ethanaminium, 2-hydroxy-<em>N</em>,<em>N</em>,<em>N</em>-trimethyl-, chloride;Biocolina;Hepacholine;(2-Hydroxyethyl)trimethylammonium chloride;Lipotril;Cholinium chloride;(β-Hydroxyethyl)trimethylammonium chloride;Bilineurin chloride;Luridin chloride;Biocoline;Hormocline;Neocolina;Paresan;Trimethyl(2-hydroxyethyl)ammonium chloride;Actiron CC 6;Choline chloride;Norcol 25;COL 24;ReaShure Choline;Claytreat;(2-Hydroxyethyl)trimethylazanium chloride;2-Hydroxy-<em>N</em>,<em>N</em>,<em>N</em>-trimethylethanaminium chloride",
    "duplicated_cas_no": "1643859-93-1;2028303-08-2;2690420-71-2",
    "SMILES": "C([N+](C)(C)C)CO.[Cl-]",
    "meta_data": {
        "InChI": "InChI=1S/C5H14NO.ClH/c1-6(2,3)4-5-7;/h7H,4-5H2,1-3H3;1H/q+1;/p-1",
        "InChIKey": null,
        "Canonical SMILES": "[Cl-].OCC[N+](C)(C)C",
        "Molecular Formula": "C<sub>5</sub>H<sub>14</sub>NO.Cl",
        "Molecular Mass": "",
        "Melting Point": "305 °C (decomp)",
        "Density": "1.151 x 10⁻³ g/cm³ @ Temp: 25 °C; Press: 750 Torr"
    }
}