{
    "cas_no": "5340-48-7",
    "key_name": "2,2-Dipropylpentanenitrile",
    "cn_name": null,
    "alternate_name": "Pentanenitrile, 2,2-dipropyl-;Valeronitrile, 2,2-dipropyl-;2,2-Dipropylpentanenitrile;Tripropylacetonitrile;2,2-Dipropylvaleronitrile;4-Cyano-4-propylheptane;NSC 915",
    "duplicated_cas_no": "",
    "SMILES": "C(CCC)(CCC)(CCC)C#N",
    "meta_data": {
        "InChI": "InChI=1S/C11H21N/c1-4-7-11(10-12,8-5-2)9-6-3/h4-9H2,1-3H3",
        "InChIKey": null,
        "Canonical SMILES": "N#CC(CCC)(CCC)CCC",
        "Molecular Formula": "C<sub>11</sub>H<sub>21</sub>N",
        "Molecular Mass": "167.29",
        "Boiling Point": "70 °C @ Press: 2 Torr"
    }
}