{
    "cas_no": "85-83-6",
    "key_name": "Solvent Red 24",
    "cn_name": "溶剂红24;苏丹红四号;1-(2-甲基-4-(2-甲基苯基偶氮)苯基偶氮)-2-萘酚;苏丹红4号;",
    "alternate_name": "2-Naphthalenol, 1-[2-[2-methyl-4-[2-(2-methylphenyl)diazenyl]phenyl]diazenyl]-;C.I. Solvent Red 24;2-Naphthalenol, 1-[[2-methyl-4-[(2-methylphenyl)azo]phenyl]azo]-;2-Naphthol, 1-(4-<em>o</em>-tolylazo-<em>o</em>-tolylazo)-;1-[2-[2-Methyl-4-[2-(2-methylphenyl)diazenyl]phenyl]diazenyl]-2-naphthalenol;C.I. 26105;Biebrich Scarlet BPC;Biebrich Scarlet Red;Brasilazina Oil Red B;Candle Scarlet B;Candle Scarlet G;Candle Scarlet 2B;Ceres Red BB;Dispersol Red PP;Enial Red IV;Fast Oil Red B;Fast Red BB;Fat Ponceau R;Fat Red B;Fat Red 2B;Fat Red BB;Fat Red BS;Fat Red TS;Grasal Brilliant Red B;Grasan Brilliant Red B;Hidaco Oil Red;Lacquer Red V;Lacquer Red VS;Oil Red A;Oil Red D;Oil Red F;Oil Red S;Oil Red 2B;Oil Red 3;Oil Red 3B;Oil Red 7;Oil Red 47;Oil Red 282;Oil Red APT;Oil Red BB;Oil Red BS;Oil Red ED;Oil Red GO;Orient Oil Red RR;Oil Red TAX;Oil Red ZD;Oil Scarlet;Oil Scarlet 48;Oleal Red BB;Organol Red B;Oil Red RR;Plastoresin Red F;Red 3R Soluble in Grease;Resinol Red 2B;Silotras Red T 3B;Somalia Red IV;Stearix Red 4B;Stearix Red 4S;Sudan P;Sudan IV;Sudan Red BB;Sudan Red BBA;Sudan Red IV;Tertrogras Red N;<em>o</em>-Tolylazo-<em>o</em>-tolylazo-2-naphthol;<em>o</em>-Tolylazo-<em>o</em>-tolylazo-β-naphthol;Toyo Oil Red BB;Waxoline Red O;Waxoline Red OM;Waxoline Red OS;Oil Red RC;<em>o</em>-Tolueneazo-<em>o</em>-toluene-β-naphthol;1-[4-(<em>o</em>-Tolylazo)-<em>o</em>-tolylazo]-2-naphthol;2′,3-Dimethyl-4-(2-hydroxynaphthylazo)azobenzene;Scarlet red;Fat Soluble Dark Red;Scarlet oil;Sudan Red 4BA;Oil Red;1-(2′-Methyl-4′-(2′′-methylphenylazo)phenylazo)-2-naphthol;Japan Red 501;Solvent Red 24;Atlasol Red 4B;SOT Red 1;Aizen SOT Red 1;Sudan (IV) dye;Scarlet R (solvent dye);Scarlet R;Oleosol Red BB;Sudan Red 380;Oil Red B;Oil Red SST Extra;NSC 10472;TU 6-14-8780;Sudan 4;Orcosolve Red 4B;Permalex Red 2B;Medical Scarlet;Red No. 501;1-(2-Methyl-4-<em>o</em>-tolylazo-phenylazo)-naphthalen-2-ol",
    "duplicated_cas_no": "96510-86-0;104270-03-3;8023-29-8;12000-52-1;86702-99-0;208266-18-6",
    "SMILES": "N(=NC1=C(C)C=C(N=NC2=C(C)C=CC=C2)C=C1)C=3C4=C(C=CC3O)C=CC=C4",
    "meta_data": {
        "InChI": "InChI=1S/C24H20N4O/c1-16-7-3-6-10-21(16)26-25-19-12-13-22(17(2)15-19)27-28-24-20-9-5-4-8-18(20)11-14-23(24)29/h3-15,29H,1-2H3",
        "InChIKey": null,
        "Canonical SMILES": "OC=1C=CC=2C=CC=CC2C1N=NC3=CC=C(N=NC=4C=CC=CC4C)C=C3C",
        "Molecular Formula": "C<sub>24</sub>H<sub>20</sub>N<sub>4</sub>O",
        "Molecular Mass": "380.44",
        "Melting Point": "186 °C (decomp)"
    }
}