{
    "cas_no": "2359-09-3",
    "key_name": "5-<em>tert</em>-Butylisophthalic acid",
    "cn_name": "5-叔丁基间苯二羧酸;5-(1,1-二甲基乙基)-1,3-苯二羧酸;5-叔丁基-1,3-苯二羧酸;",
    "alternate_name": "1,3-Benzenedicarboxylic acid, 5-(1,1-dimethylethyl)-;Isophthalic acid, 5-<em>tert</em>-butyl-;5-(1,1-Dimethylethyl)-1,3-benzenedicarboxylic acid;5-<em>tert</em>-Butylisophthalic acid;5-<em>tert</em>-Butyl-1,3-benzenedicarboxylic acid;5-<em>tert</em>-Butyl-<em>m</em>-phthalic acid",
    "duplicated_cas_no": "339064-16-3",
    "SMILES": "C(C)(C)(C)C1=CC(C(O)=O)=CC(C(O)=O)=C1",
    "meta_data": {
        "InChI": "InChI=1S/C12H14O4/c1-12(2,3)9-5-7(10(13)14)4-8(6-9)11(15)16/h4-6H,1-3H3,(H,13,14)(H,15,16)",
        "InChIKey": null,
        "Canonical SMILES": "O=C(O)C=1C=C(C=C(C1)C(C)(C)C)C(=O)O",
        "Molecular Formula": "C<sub>12</sub>H<sub>14</sub>O<sub>4</sub>",
        "Molecular Mass": "222.24",
        "Melting Point": "343 °C"
    }
}