{
    "cas_no": "23564-06-9",
    "key_name": "Thiophanate",
    "cn_name": "硫菌灵;硫菌灵标准品;托布津;统扑净;",
    "alternate_name": "Carbamic acid, <em>N</em>,<em>N</em>′-[1,2-phenylenebis(iminocarbonothioyl)]bis-, <em>C</em>,<em>C</em>′-diethyl ester;Allophanic acid, 4,4′-<em>o</em>-phenylenebis[3-thio-, diethyl ester;Carbamic acid, [1,2-phenylenebis(iminocarbonothioyl)]bis-, diethyl ester;Thiofanate;1,2-Bis(3-ethoxycarbonyl-2-thioureido)benzene;Thiophanate;Ethyl thiophanate;BAS 3220;Enovit;Topsin;Cercobin;NF 35;NF 35 (fungicide);Topsin NF 35;Thiophanate ethyl;Thiophanat;1,2-Bis[3-(ethoxycarbonyl)thioureido]benzene;NBF 35;Topsin E;NSC 170810;Quali-Pro TM 85WDG;Systec 1998WDG;MeSH ID: D013875",
    "duplicated_cas_no": "37233-54-8;37359-51-6;39300-54-4",
    "SMILES": "N(C(NC(OCC)=O)=S)C1=C(NC(NC(OCC)=O)=S)C=CC=C1",
    "meta_data": {
        "InChI": "InChI=1S/C14H18N4O4S2/c1-3-21-13(19)17-11(23)15-9-7-5-6-8-10(9)16-12(24)18-14(20)22-4-2/h5-8H,3-4H2,1-2H3,(H2,15,17,19,23)(H2,16,18,20,24)",
        "InChIKey": null,
        "Canonical SMILES": "O=C(OCC)NC(=S)NC=1C=CC=CC1NC(=S)NC(=O)OCC",
        "Molecular Formula": "C<sub>14</sub>H<sub>18</sub>N<sub>4</sub>O<sub>4</sub>S<sub>2</sub>",
        "Molecular Mass": "370.45",
        "Melting Point": "194 °C (decomp)"
    }
}