{
    "cas_no": "1448-36-8",
    "key_name": "Methyl cholate",
    "cn_name": "胆酸甲酯;",
    "alternate_name": "Cholan-24-oic acid, 3,7,12-trihydroxy-, methyl ester, (3α,5β,7α,12α)-;Cholic acid, methyl ester;Methyl cholate;Methyl 3α,7α,12α-trihydroxy-5β-cholanoate;Methyl 3α,7α,12α-trihydroxy-5β-cholan-24-oate;NSC 126794;Methyl 3α,7α,12α-trihydroxy-5β-cholan-24-ate",
    "duplicated_cas_no": "120909-93-5;2599839-21-9",
    "SMILES": "O[C@H]1[C@]2([C@]3([C@@](C)([C@@]([C@@H](CCC(OC)=O)C)(CC3)[H])[C@@H](O)C[C@@]2([C@]4(C)[C@](C1)(C[C@H](O)CC4)[H])[H])[H])[H]",
    "meta_data": {
        "InChI": "InChI=1S/C25H42O5/c1-14(5-8-22(29)30-4)17-6-7-18-23-19(13-21(28)25(17,18)3)24(2)10-9-16(26)11-15(24)12-20(23)27/h14-21,23,26-28H,5-13H2,1-4H3/t14-,15+,16-,17-,18+,19+,20-,21+,23+,24+,25-/m1/s1",
        "InChIKey": null,
        "Canonical SMILES": "O=C(OC)CCC(C)C1CCC2C3C(O)CC4CC(O)CCC4(C)C3CC(O)C12C",
        "Molecular Formula": "C<sub>25</sub>H<sub>42</sub>O<sub>5</sub>",
        "Molecular Mass": "422.60",
        "Melting Point": "155 °C"
    }
}