{
    "cas_no": "68377-92-4",
    "key_name": "Arotinolol",
    "cn_name": "阿罗洛尔;阿尔马乐;",
    "alternate_name": "2-Thiophenecarboxamide, 5-[2-[[3-[(1,1-dimethylethyl)amino]-2-hydroxypropyl]thio]-4-thiazolyl]-;2-Thiophenecarboxamide, 5-[2-[[3-[(1,1-dimethylethyl)amino]-2-hydroxypropyl]thio]-4-thiazolyl]-, (±)-;5-[2-[[3-[(1,1-Dimethylethyl)amino]-2-hydroxypropyl]thio]-4-thiazolyl]-2-thiophenecarboxamide;Arotinolol;(±)-Arotinolol;2-(3-<em>tert</em>-Butylamino-2-hydroxypropylthio)-4-(5-carbamoyl-2-thienyl)thiazole;NSC 317940",
    "duplicated_cas_no": "52560-77-7",
    "SMILES": "C(N)(=O)C=1SC(=CC1)C=2N=C(SCC(CNC(C)(C)C)O)SC2",
    "meta_data": {
        "InChI": "InChI=1S/C15H21N3O2S3/c1-15(2,3)17-6-9(19)7-21-14-18-10(8-22-14)11-4-5-12(23-11)13(16)20/h4-5,8-9,17,19H,6-7H2,1-3H3,(H2,16,20)",
        "InChIKey": null,
        "Canonical SMILES": "O=C(N)C=1SC(=CC1)C=2N=C(SC2)SCC(O)CNC(C)(C)C",
        "Molecular Formula": "C<sub>15</sub>H<sub>21</sub>N<sub>3</sub>O<sub>2</sub>S<sub>3</sub>",
        "Molecular Mass": "371.54",
        "Melting Point": "148-149 °C"
    }
}