{
    "cas_no": "354-34-7",
    "key_name": "Trifluoroacetyl fluoride",
    "cn_name": "三氟乙酰氟;",
    "alternate_name": "Acetyl fluoride, 2,2,2-trifluoro-;Acetyl fluoride, trifluoro-;2,2,2-Trifluoroacetyl fluoride;Perfluoroacetyl fluoride;Trifluoroacetyl fluoride",
    "duplicated_cas_no": "",
    "SMILES": "C(C(F)=O)(F)(F)F",
    "meta_data": {
        "InChI": "InChI=1S/C2F4O/c3-1(7)2(4,5)6",
        "InChIKey": null,
        "Canonical SMILES": "O=C(F)C(F)(F)F",
        "Molecular Formula": "C<sub>2</sub>F<sub>4</sub>O",
        "Molecular Mass": "116.01",
        "Boiling Point": "-59 °C"
    }
}