{
    "cas_no": "537-39-3",
    "key_name": "Trielaidin",
    "cn_name": "三反油酸甘油酯;",
    "alternate_name": "9-Octadecenoic acid, 1,1′,1′′-(1,2,3-propanetriyl) ester, (9<em>E</em>,9′<em>E</em>,9′′<em>E</em>)-;Elaidin, tri-;9-Octadecenoic acid, 1,2,3-propanetriyl ester, (<em>E</em>,<em>E</em>,<em>E</em>)-;9-Octadecenoic acid, 1,2,3-propanetriyl ester, (9<em>E</em>,9′<em>E</em>,9′′<em>E</em>)-;Trielaidin;Glycerol trielaidate;Trielaidoylglycerol;Glyceryl trielaidate",
    "duplicated_cas_no": "124330-01-4",
    "SMILES": "C(OC(CCCCCCC/C=C/CCCCCCCC)=O)(COC(CCCCCCC/C=C/CCCCCCCC)=O)COC(CCCCCCC/C=C/CCCCCCCC)=O",
    "meta_data": {
        "InChI": "InChI=1S/C57H104O6/c1-4-7-10-13-16-19-22-25-28-31-34-37-40-43-46-49-55(58)61-52-54(63-57(60)51-48-45-42-39-36-33-30-27-24-21-18-15-12-9-6-3)53-62-56(59)50-47-44-41-38-35-32-29-26-23-20-17-14-11-8-5-2/h25-30,54H,4-24,31-53H2,1-3H3/b28-25+,29-26+,30-27+",
        "InChIKey": null,
        "Canonical SMILES": "O=C(OCC(OC(=O)CCCCCCCC=CCCCCCCCC)COC(=O)CCCCCCCC=CCCCCCCCC)CCCCCCCC=CCCCCCCCC",
        "Molecular Formula": "C<sub>57</sub>H<sub>104</sub>O<sub>6</sub>",
        "Molecular Mass": "885.43",
        "Melting Point": "40.7 °C"
    }
}