{
    "cas_no": "142-96-1",
    "key_name": "Butyl ether",
    "cn_name": "二丁醚;丁醚;正丁醚;",
    "alternate_name": "Butane, 1,1′-oxybis-;Butyl ether;1,1′-Oxybis[butane];Di-<em>n</em>-butyl ether;Dibutyl oxide;<em>n</em>-Butyl ether;Dibutyl ether;Butyl oxide;NSC 8459;1-Butoxybutane",
    "duplicated_cas_no": "",
    "SMILES": "O(CCCC)CCCC",
    "meta_data": {
        "InChI": "InChI=1S/C8H18O/c1-3-5-7-9-8-6-4-2/h3-8H2,1-2H3",
        "InChIKey": null,
        "Canonical SMILES": "O(CCCC)CCCC",
        "Molecular Formula": "C<sub>8</sub>H<sub>18</sub>O",
        "Molecular Mass": "130.23",
        "Boiling Point": "140.2 °C",
        "Melting Point": "-95.2 °C",
        "Density": "0.7684 g/cm³ @ Temp: 20 °C"
    }
}