{
    "cas_no": "27798-60-3",
    "key_name": "Methyl 2-methoxybenzeneacetate",
    "cn_name": "2-甲氧基苯乙酸甲酯;",
    "alternate_name": "Benzeneacetic acid, 2-methoxy-, methyl ester;Acetic acid, (<em>o</em>-methoxyphenyl)-, methyl ester;Methyl 2-methoxybenzeneacetate;Methyl <em>o</em>-methoxyphenylacetate;Methyl (2-methoxyphenyl)acetate;NSC 245109;2-Methoxyphenylacetic acid methyl ester",
    "duplicated_cas_no": "",
    "SMILES": "C(C(OC)=O)C1=C(OC)C=CC=C1",
    "meta_data": {
        "InChI": "InChI=1S/C10H12O3/c1-12-9-6-4-3-5-8(9)7-10(11)13-2/h3-6H,7H2,1-2H3",
        "InChIKey": null,
        "Canonical SMILES": "O=C(OC)CC=1C=CC=CC1OC",
        "Molecular Formula": "C<sub>10</sub>H<sub>12</sub>O<sub>3</sub>",
        "Molecular Mass": "180.20",
        "Melting Point": "70.3-71.0 °C"
    }
}