{
    "cas_no": "219911-35-0",
    "key_name": "Pyridine, 2-methyl-6-(2-phenylethynyl)-, hydrochloride (1:1)",
    "cn_name": null,
    "alternate_name": "Pyridine, 2-methyl-6-(2-phenylethynyl)-, hydrochloride (1:1);Pyridine, 2-methyl-6-(phenylethynyl)-, hydrochloride;MPEP hydrochloride;2-Methyl-6-(phenylethynyl)pyridine hydrochloride",
    "duplicated_cas_no": "",
    "SMILES": "C(#CC1=CC=CC=C1)C=2N=C(C)C=CC2.Cl",
    "meta_data": {
        "InChI": "InChI=1S/C14H11N.ClH/c1-12-6-5-9-14(15-12)11-10-13-7-3-2-4-8-13;/h2-9H,1H3;1H",
        "InChIKey": null,
        "Canonical SMILES": "Cl.C(#CC=1C=CC=CC1)C=2N=C(C=CC2)C",
        "Molecular Formula": "C<sub>14</sub>H<sub>11</sub>N.ClH",
        "Molecular Mass": "",
        "Melting Point": "145-146 °C"
    }
}