{
    "cas_no": "100-07-2",
    "key_name": "4-Methoxybenzoyl chloride",
    "cn_name": "对甲氧基苯甲酰氯;",
    "alternate_name": "Benzoyl chloride, 4-methoxy-;<em>p</em>-Anisoyl chloride;4-Methoxybenzoyl chloride;<em>p</em>-Methoxybenzoyl chloride;Anisoyl chloride;<em>p</em>-Methoxybenzoic acid chloride;4-Methoxybenzoic acid chloride;4-Anisoyl chloride;Para-anisoyl chloride;NSC 86125;4-Methoxyphenylchloroform",
    "duplicated_cas_no": "",
    "SMILES": "C(Cl)(=O)C1=CC=C(OC)C=C1",
    "meta_data": {
        "InChI": "InChI=1S/C8H7ClO2/c1-11-7-4-2-6(3-5-7)8(9)10/h2-5H,1H3",
        "InChIKey": null,
        "Canonical SMILES": "O=C(Cl)C1=CC=C(OC)C=C1",
        "Molecular Formula": "C<sub>8</sub>H<sub>7</sub>ClO<sub>2</sub>",
        "Molecular Mass": "170.59",
        "Boiling Point": "262-263 °C",
        "Melting Point": "24-25 °C",
        "Density": "1.261 g/cm³ @ Temp: 20 °C"
    }
}