{
    "cas_no": "1464-42-2",
    "key_name": "Selenomethionine",
    "cn_name": "DL-硒代蛋氨酸;",
    "alternate_name": "Butanoic acid, 2-amino-4-(methylseleno)-;Butyric acid, 2-amino-4-(methylselenyl)-;2-Amino-4-(methylseleno)butanoic acid;2-Amino-4-(methylselenyl)butyric acid;Selenomethionine;Selenium methionine;2-Amino-4-(methylseleno)butyric acid;<span class=\"text-smallcaps\">DL</span>-Selenomethionine;<em>dl</em>-Selenomethionine;Seleno-<span class=\"text-smallcaps\">DL</span>-methionine;(±)-Selenomethionine;2-Azaniumyl-4-methylselanylbutanoate",
    "duplicated_cas_no": "2578-28-1",
    "SMILES": "C(C(O)=O)(CC[Se]C)N",
    "meta_data": {
        "InChI": "InChI=1S/C5H11NO2Se/c1-9-3-2-4(6)5(7)8/h4H,2-3,6H2,1H3,(H,7,8)",
        "InChIKey": null,
        "Canonical SMILES": "O=C(O)C(N)CC[Se]C",
        "Molecular Formula": "C<sub>5</sub>H<sub>11</sub>NO<sub>2</sub>Se",
        "Molecular Mass": "196.11",
        "Melting Point": "265 °C (decomp)"
    }
}