{
    "cas_no": "82575-69-7",
    "key_name": "4-(<em>trans</em>-4-Pentylcyclohexyl)phenol",
    "cn_name": null,
    "alternate_name": "Phenol, 4-(<em>trans</em>-4-pentylcyclohexyl)-;Phenol, 4-(4-pentylcyclohexyl)-, <em>trans</em>-;4-(<em>trans</em>-4-Pentylcyclohexyl)phenol;<em>p</em>-(<em>trans</em>-4-Pentylcyclohexyl)phenol;<em>trans</em>-(4-Pentylcyclohexyl)phenol;<em>p</em>-(<em>trans</em>-4-<em>n</em>-Pentylcyclohexyl)phenol;PCH 500;4-(<em>trans</em>-4-<em>n</em>-Pentylcyclohexyl)phenol;<em>trans</em>-4-(4-Pentylcyclohexyl)phenol;<em>p</em>-(<em>trans</em>-4-<em>n</em>-Propylcyclohexyl)phenol",
    "duplicated_cas_no": "",
    "SMILES": "C(CCCC)[C@H]1CC[C@@H](CC1)C2=CC=C(O)C=C2",
    "meta_data": {
        "InChI": "InChI=1/C17H26O/c1-2-3-4-5-14-6-8-15(9-7-14)16-10-12-17(18)13-11-16/h10-15,18H,2-9H2,1H3/t14-,15-",
        "InChIKey": null,
        "Canonical SMILES": "OC1=CC=C(C=C1)C2CCC(CCCCC)CC2",
        "Molecular Formula": "C<sub>17</sub>H<sub>26</sub>O",
        "Molecular Mass": "246.39",
        "Melting Point": "133-135 °C"
    }
}