{
    "cas_no": "107-16-4",
    "key_name": "Hydroxyacetonitrile",
    "cn_name": "羟基乙腈;乙醇氰;",
    "alternate_name": "Acetonitrile, 2-hydroxy-;Glycolonitrile;Acetonitrile, hydroxy-;2-Hydroxyacetonitrile;Glycolic nitrile;Glyconitrile;Formaldehyde, cyanohydrin;Hydroxyacetonitrile;Cyanomethanol;Hydroxymethylnitrile;Hydroxymethyl cyanide;Cyanomethyl alcohol;NSC 1790;Formalcyanohydrin",
    "duplicated_cas_no": "",
    "SMILES": "C(CO)#N",
    "meta_data": {
        "InChI": "InChI=1S/C2H3NO/c3-1-2-4/h4H,2H2",
        "InChIKey": null,
        "Canonical SMILES": "N#CCO",
        "Molecular Formula": "C<sub>2</sub>H<sub>3</sub>NO",
        "Molecular Mass": "57.05",
        "Boiling Point": "183 °C",
        "Melting Point": "&lt;-72 °C",
        "Density": "1.10 g/cm³"
    }
}