{
    "cas_no": "67468-65-9",
    "key_name": "4-(Phenylmethyl)benzaldehyde",
    "cn_name": null,
    "alternate_name": "Benzaldehyde, 4-(phenylmethyl)-;<em>p</em>-Tolualdehyde, α-phenyl-;4-(Phenylmethyl)benzaldehyde;<em>p</em>-Benzylbenzaldehyde;4-Formyldiphenylmethane;4-Benzylbenzaldehyde;α-Phenyl-<em>p</em>-tolualdehyde",
    "duplicated_cas_no": "",
    "SMILES": "C(C1=CC=C(C=O)C=C1)C2=CC=CC=C2",
    "meta_data": {
        "InChI": "InChI=1S/C14H12O/c15-11-14-8-6-13(7-9-14)10-12-4-2-1-3-5-12/h1-9,11H,10H2",
        "InChIKey": null,
        "Canonical SMILES": "O=CC1=CC=C(C=C1)CC=2C=CC=CC2",
        "Molecular Formula": "C<sub>14</sub>H<sub>12</sub>O",
        "Molecular Mass": "196.24",
        "Boiling Point": "130-131 °C @ Press: 0.5 Torr",
        "Melting Point": "131-139 °C"
    }
}