{
    "cas_no": "2651-46-9",
    "key_name": "(4-Chlorobutoxy)benzene",
    "cn_name": "4-氯丁基苯基醚;4-苯氧基丁基氯;1-氯-4-苯氧基丁烷;4-氯丁氧基苯;",
    "alternate_name": "Benzene, (4-chlorobutoxy)-;Ether, 4-chlorobutyl phenyl;(4-Chlorobutoxy)benzene;4-Phenoxybutyl chloride;1-Chloro-4-phenoxybutane;NSC 78903;4-Phenoxy-1-chlorobutane",
    "duplicated_cas_no": "",
    "SMILES": "O(CCCCCl)C1=CC=CC=C1",
    "meta_data": {
        "InChI": "InChI=1S/C10H13ClO/c11-8-4-5-9-12-10-6-2-1-3-7-10/h1-3,6-7H,4-5,8-9H2",
        "InChIKey": null,
        "Canonical SMILES": "ClCCCCOC=1C=CC=CC1",
        "Molecular Formula": "C<sub>10</sub>H<sub>13</sub>ClO",
        "Molecular Mass": "184.66",
        "Boiling Point": "135-138 °C @ Press: 12 Torr"
    }
}