{
    "cas_no": "231291-22-8",
    "key_name": "6-Trifluoromethylnicotinic acid",
    "cn_name": "6-三氟甲基烟酸;",
    "alternate_name": "3-Pyridinecarboxylic acid, 6-(trifluoromethyl)-;6-(Trifluoromethyl)-3-pyridinecarboxylic acid;6-Trifluoromethylnicotinic acid;2-Trifluoromethyl-5-pyridinecarboxylic acid",
    "duplicated_cas_no": "",
    "SMILES": "C(F)(F)(F)C1=CC=C(C(O)=O)C=N1",
    "meta_data": {
        "InChI": "InChI=1S/C7H4F3NO2/c8-7(9,10)5-2-1-4(3-11-5)6(12)13/h1-3H,(H,12,13)",
        "InChIKey": null,
        "Canonical SMILES": "O=C(O)C1=CN=C(C=C1)C(F)(F)F",
        "Molecular Formula": "C<sub>7</sub>H<sub>4</sub>F<sub>3</sub>NO<sub>2</sub>",
        "Molecular Mass": "191.11",
        "Melting Point": "188-189 °C"
    }
}