{
    "cas_no": "1435-44-5",
    "key_name": "1-Chloro-2,4-difluorobenzene",
    "cn_name": "2,4-二氟氯苯;1-氯-2,4-二氟苯;",
    "alternate_name": "Benzene, 1-chloro-2,4-difluoro-;1-Chloro-2,4-difluorobenzene;2,4-Difluorochlorobenzene;NSC 10254;2,4-Difluorophenyl chloride;2,4-Difluoro-1-chlorobenzene",
    "duplicated_cas_no": "",
    "SMILES": "FC1=C(Cl)C=CC(F)=C1",
    "meta_data": {
        "InChI": "InChI=1S/C6H3ClF2/c7-5-2-1-4(8)3-6(5)9/h1-3H",
        "InChIKey": null,
        "Canonical SMILES": "FC1=CC=C(Cl)C(F)=C1",
        "Molecular Formula": "C<sub>6</sub>H<sub>3</sub>ClF<sub>2</sub>",
        "Molecular Mass": "148.54",
        "Melting Point": "127 °C",
        "Density": "1.353 g/cm³ @ Temp: 20 °C"
    }
}