{
    "cas_no": "17630-75-0",
    "key_name": "5-Chlorooxindole",
    "cn_name": null,
    "alternate_name": "2<em>H</em>-Indol-2-one, 5-chloro-1,3-dihydro-;2-Indolinone, 5-chloro-;Oxindole, 5-chloro-;5-Chloro-1,3-dihydro-2<em>H</em>-indol-2-one;5-Chlorooxindole;5-Chloro-2-oxoindoline;5-Chloro-2-indolinone;5-Chloro-1,3-dihydroindol-2-one",
    "duplicated_cas_no": "",
    "SMILES": "O=C1NC=2C(C1)=CC(Cl)=CC2",
    "meta_data": {
        "InChI": "InChI=1S/C8H6ClNO/c9-6-1-2-7-5(3-6)4-8(11)10-7/h1-3H,4H2,(H,10,11)",
        "InChIKey": null,
        "Canonical SMILES": "O=C1NC2=CC=C(Cl)C=C2C1",
        "Molecular Formula": "C<sub>8</sub>H<sub>6</sub>ClNO",
        "Molecular Mass": "167.59",
        "Melting Point": "192-195 °C"
    }
}