{
    "cas_no": "16245-79-7",
    "key_name": "4-Octylbenzenamine",
    "cn_name": "4-辛基苯胺;",
    "alternate_name": "Benzenamine, 4-octyl-;Aniline, <em>p</em>-octyl-;4-Octylbenzenamine;<em>p</em>-<em>n</em>-Octylaniline;<em>p</em>-Octylaniline;4-<em>n</em>-Octylaniline;4-Octylaniline;4-Octylphenylamine",
    "duplicated_cas_no": "",
    "SMILES": "C(CCCCCCC)C1=CC=C(N)C=C1",
    "meta_data": {
        "InChI": "InChI=1S/C14H23N/c1-2-3-4-5-6-7-8-13-9-11-14(15)12-10-13/h9-12H,2-8,15H2,1H3",
        "InChIKey": null,
        "Canonical SMILES": "NC1=CC=C(C=C1)CCCCCCCC",
        "Molecular Formula": "C<sub>14</sub>H<sub>23</sub>N",
        "Molecular Mass": "205.34",
        "Boiling Point": "310 °C",
        "Melting Point": "20 °C"
    }
}