{
    "cas_no": "371-40-4",
    "key_name": "4-Fluoroaniline",
    "cn_name": "4-氟苯胺;对氟苯胺;",
    "alternate_name": "Benzenamine, 4-fluoro-;Aniline, <em>p</em>-fluoro-;4-Fluorobenzenamine;<em>p</em>-Fluoroaniline;4-Fluoroaniline;<em>p</em>-Fluorophenylamine;1-Amino-4-fluorobenzene;4-Fluorophenylamine;NSC 579;4-Fluoro-1-benzenamine",
    "duplicated_cas_no": "",
    "SMILES": "FC1=CC=C(N)C=C1",
    "meta_data": {
        "InChI": "InChI=1S/C6H6FN/c7-5-1-3-6(8)4-2-5/h1-4H,8H2",
        "InChIKey": null,
        "Canonical SMILES": "FC1=CC=C(N)C=C1",
        "Molecular Formula": "C<sub>6</sub>H<sub>6</sub>FN",
        "Molecular Mass": "111.12",
        "Boiling Point": "188 °C",
        "Melting Point": "-1.9 °C",
        "Density": "1.1725 g/cm³ @ Temp: 20 °C"
    }
}