{
    "cas_no": "33797-51-2",
    "key_name": "Methanaminium, <em>N</em>-methyl-<em>N</em>-methylene-, iodide",
    "cn_name": "二甲基亚甲基碘化铵;",
    "alternate_name": "Methanaminium, <em>N</em>-methyl-<em>N</em>-methylene-, iodide;Ammonium, dimethylmethylene-, iodide;Dimethyl(methylene)ammonium iodide;Methylenedimethylammonium iodide;Eschenmoser's salt;Eschenmoser's reagent;<em>N</em>,<em>N</em>-Dimethylmethyleneiminium iodide;<em>N</em>,<em>N</em>-Dimethylaminomethyleneammonium iodide;Dimethylmethylideneiminium iodide;<em>N</em>-Methyl-<em>N</em>-methylenemethanaminium iodide",
    "duplicated_cas_no": "",
    "SMILES": "[N+](C)(C)=C.[I-]",
    "meta_data": {
        "InChI": "InChI=1S/C3H8N.HI/c1-4(2)3;/h1H2,2-3H3;1H/q+1;/p-1",
        "InChIKey": null,
        "Canonical SMILES": "[I-].C=[N+](C)C",
        "Molecular Formula": "C<sub>3</sub>H<sub>8</sub>N.I",
        "Molecular Mass": "",
        "Melting Point": "238 °C"
    }
}