{
    "cas_no": "10040-95-6",
    "key_name": "1-(4-Methoxyphenyl)-1<em>H</em>-imidazole",
    "cn_name": "1-(4-甲氧基苯基)-1H-咪唑;",
    "alternate_name": "1<em>H</em>-Imidazole, 1-(4-methoxyphenyl)-;Imidazole, 1-(<em>p</em>-methoxyphenyl)-;1-(4-Methoxyphenyl)-1<em>H</em>-imidazole;1-(4-Methoxyphenyl)imidazole;1-(<em>p</em>-Methoxyphenyl)imidazole;<em>N</em>-(4-Methoxyphenyl)imidazole;(4-Methoxyphenyl)-1<em>H</em>-imidazole",
    "duplicated_cas_no": "",
    "SMILES": "O(C)C1=CC=C(C=C1)N2C=CN=C2",
    "meta_data": {
        "InChI": "InChI=1S/C10H10N2O/c1-13-10-4-2-9(3-5-10)12-7-6-11-8-12/h2-8H,1H3",
        "InChIKey": null,
        "Canonical SMILES": "N=1C=CN(C1)C2=CC=C(OC)C=C2",
        "Molecular Formula": "C<sub>10</sub>H<sub>10</sub>N<sub>2</sub>O",
        "Molecular Mass": "174.20",
        "Melting Point": "60-61 °C"
    }
}