{
    "cas_no": "607-24-9",
    "key_name": "2-Nitro-1-naphthalenol",
    "cn_name": "2-硝基-1-萘酚;",
    "alternate_name": "1-Naphthalenol, 2-nitro-;1-Naphthol, 2-nitro-;2-Nitro-1-naphthalenol;2-Nitro-1-naphthol;1-Hydroxy-2-nitronaphthalene;NSC 43140",
    "duplicated_cas_no": "",
    "SMILES": "OC=1C2=C(C=CC1N(=O)=O)C=CC=C2",
    "meta_data": {
        "InChI": "InChI=1S/C10H7NO3/c12-10-8-4-2-1-3-7(8)5-6-9(10)11(13)14/h1-6,12H",
        "InChIKey": null,
        "Canonical SMILES": "O=N(=O)C=1C=CC=2C=CC=CC2C1O",
        "Molecular Formula": "C<sub>10</sub>H<sub>7</sub>NO<sub>3</sub>",
        "Molecular Mass": "189.17",
        "Melting Point": "127-128 °C"
    }
}