{
    "cas_no": "23068-44-2",
    "key_name": "2,5-Dimethylbenzeneethanamine",
    "cn_name": "2,5-二甲基苯乙基胺;",
    "alternate_name": "Benzeneethanamine, 2,5-dimethyl-;Phenethylamine, 2,5-dimethyl-;2,5-Dimethylbenzeneethanamine;2,5-Dimethylphenethylamine;2-(2,5-Dimethylphenyl)ethanamine;2-(2,5-Dimethylphenyl)ethylamine;2-(2,5-Dimethylphenyl)ethan-1-amine",
    "duplicated_cas_no": "",
    "SMILES": "C(CN)C1=C(C)C=CC(C)=C1",
    "meta_data": {
        "InChI": "InChI=1S/C10H15N/c1-8-3-4-9(2)10(7-8)5-6-11/h3-4,7H,5-6,11H2,1-2H3",
        "InChIKey": null,
        "Canonical SMILES": "NCCC1=CC(=CC=C1C)C",
        "Molecular Formula": "C<sub>10</sub>H<sub>15</sub>N",
        "Molecular Mass": "149.23",
        "Boiling Point": "110-112 °C @ Press: 13 Torr"
    }
}