{
    "cas_no": "1435-49-0",
    "key_name": "1,2-Dichloro-4-fluorobenzene",
    "cn_name": "1,2-二氯-4-氟苯;3,4-二氯氟苯;",
    "alternate_name": "Benzene, 1,2-dichloro-4-fluoro-;1,2-Dichloro-4-fluorobenzene;3,4-Dichlorofluorobenzene;3,4-Dichloro-1-fluorobenzene;1-Fluoro-3,4-dichlorobenzene;NSC 82300",
    "duplicated_cas_no": "",
    "SMILES": "ClC1=C(Cl)C=CC(F)=C1",
    "meta_data": {
        "InChI": "InChI=1S/C6H3Cl2F/c7-5-2-1-4(9)3-6(5)8/h1-3H",
        "InChIKey": null,
        "Canonical SMILES": "FC1=CC=C(Cl)C(Cl)=C1",
        "Molecular Formula": "C<sub>6</sub>H<sub>3</sub>Cl<sub>2</sub>F",
        "Molecular Mass": "164.99",
        "Boiling Point": "171 °C"
    }
}