{
    "cas_no": "6665-86-7",
    "key_name": "7-Hydroxyflavone",
    "cn_name": "7-羟基黄酮;7-羟基黄酮;",
    "alternate_name": "4<em>H</em>-1-Benzopyran-4-one, 7-hydroxy-2-phenyl-;Flavone, 7-hydroxy-;7-Hydroxy-2-phenyl-4<em>H</em>-1-benzopyran-4-one;7-Hydroxyflavone;NSC 94258;7-Hydroxy-2-phenyl-4<em>H</em>-chromen-4-one;7-Hydroxy-2-phenylchromone",
    "duplicated_cas_no": "",
    "SMILES": "O=C1C=2C(OC(=C1)C3=CC=CC=C3)=CC(O)=CC2",
    "meta_data": {
        "InChI": "InChI=1S/C15H10O3/c16-11-6-7-12-13(17)9-14(18-15(12)8-11)10-4-2-1-3-5-10/h1-9,16H",
        "InChIKey": null,
        "Canonical SMILES": "O=C1C=C(OC2=CC(O)=CC=C12)C=3C=CC=CC3",
        "Molecular Formula": "C<sub>15</sub>H<sub>10</sub>O<sub>3</sub>",
        "Molecular Mass": "238.24",
        "Melting Point": "245-247 °C"
    }
}