{
    "cas_no": "75-39-8",
    "key_name": "Ethanol, 1-amino-",
    "cn_name": "1-氨基乙醇;1-氨基乙醇;",
    "alternate_name": "Ethanol, 1-amino-;Acetaldehyde ammonia;1-Aminoethanol;α-Aminoethyl alcohol;Aldehyde ammonia;Accelerator AA;Acetaldehyde, monoammoniate;Acetaldehyde, compd. with NH<sub>3</sub>;1-Aminoethan-1-ol",
    "duplicated_cas_no": "29650-57-5;1641802-94-9",
    "SMILES": "C(C)(N)O",
    "meta_data": {
        "InChI": "InChI=1S/C2H7NO/c1-2(3)4/h2,4H,3H2,1H3",
        "InChIKey": null,
        "Canonical SMILES": "OC(N)C",
        "Molecular Formula": "C<sub>2</sub>H<sub>7</sub>NO",
        "Molecular Mass": "61.08",
        "Melting Point": "97 °C"
    }
}