{
    "cas_no": "105816-04-4",
    "key_name": "Nateglinide",
    "cn_name": "那格列奈;N-(反式-4-异丙基环己基甲酰)-D-苯丙氨酸;",
    "alternate_name": "<span class=\"text-smallcaps\">D</span>-Phenylalanine, <em>N</em>-[[<em>trans</em>-4-(1-methylethyl)cyclohexyl]carbonyl]-;<span class=\"text-smallcaps\">D</span>-Phenylalanine, <em>N</em>-[[4-(1-methylethyl)cyclohexyl]carbonyl]-, <em>trans</em>-;<em>N</em>-[[<em>trans</em>-4-(1-Methylethyl)cyclohexyl]carbonyl]-<span class=\"text-smallcaps\">D</span>-phenylalanine;A 4166;AY 4166;SDZ-DJN 608;(-)-<em>N</em>-[(<em>trans</em>-4-Isopropylcyclohexyl)carbonyl]-<span class=\"text-smallcaps\">D</span>-phenylalanine;Nateglinide;Starlix;Fastic;Starsis;DJN 608;Senaglinide;<span class=\"text-smallcaps\">D</span>-Nateglinide;Starlix DS;Glinate;Natelide;Glunate;Pastic;Trazec",
    "duplicated_cas_no": "418766-62-8",
    "SMILES": "C(N[C@H](CC1=CC=CC=C1)C(O)=O)(=O)[C@H]2CC[C@H](C(C)C)CC2",
    "meta_data": {
        "InChI": "InChI=1S/C19H27NO3/c1-13(2)15-8-10-16(11-9-15)18(21)20-17(19(22)23)12-14-6-4-3-5-7-14/h3-7,13,15-17H,8-12H2,1-2H3,(H,20,21)(H,22,23)/t15-,16-,17-/m1/s1",
        "InChIKey": null,
        "Canonical SMILES": "O=C(O)C(NC(=O)C1CCC(CC1)C(C)C)CC=2C=CC=CC2",
        "Molecular Formula": "C<sub>19</sub>H<sub>27</sub>NO<sub>3</sub>",
        "Molecular Mass": "317.42",
        "Melting Point": "140 °C"
    }
}