{
    "cas_no": "1150-62-5",
    "key_name": "9-Phenylcarbazole",
    "cn_name": "N-苯基咔唑;",
    "alternate_name": "9<em>H</em>-Carbazole, 9-phenyl-;Carbazole, 9-phenyl-;9-Phenyl-9<em>H</em>-carbazole;<em>N</em>-Phenylcarbazole;9-Phenylcarbazole;NSC 10416;<em>N</em>-Phenyl-9<em>H</em>-carbazole",
    "duplicated_cas_no": "",
    "SMILES": "N1(C=2C(C=3C1=CC=CC3)=CC=CC2)C4=CC=CC=C4",
    "meta_data": {
        "InChI": "InChI=1S/C18H13N/c1-2-8-14(9-3-1)19-17-12-6-4-10-15(17)16-11-5-7-13-18(16)19/h1-13H",
        "InChIKey": null,
        "Canonical SMILES": "C=1C=CC(=CC1)N2C=3C=CC=CC3C=4C=CC=CC42",
        "Molecular Formula": "C<sub>18</sub>H<sub>13</sub>N",
        "Molecular Mass": "243.30",
        "Boiling Point": "140 °C @ Press: 10 Torr",
        "Melting Point": "91-95 °C"
    }
}