{
    "cas_no": "2432-12-4",
    "key_name": "2,6-Dichloro-4-methylphenol",
    "cn_name": "2,6-二氯对甲酚;2,6-二氯-4-甲基苯酚;2,6-二氯对甲基苯酚;",
    "alternate_name": "Phenol, 2,6-dichloro-4-methyl-;<em>p</em>-Cresol, 2,6-dichloro-;2,6-Dichloro-4-methylphenol;4-Methyl-2,6-dichlorophenol;2,6-Dichloro-<em>p</em>-cresol;NSC 407750",
    "duplicated_cas_no": "",
    "SMILES": "OC1=C(Cl)C=C(C)C=C1Cl",
    "meta_data": {
        "InChI": "InChI=1S/C7H6Cl2O/c1-4-2-5(8)7(10)6(9)3-4/h2-3,10H,1H3",
        "InChIKey": null,
        "Canonical SMILES": "ClC=1C=C(C=C(Cl)C1O)C",
        "Molecular Formula": "C<sub>7</sub>H<sub>6</sub>Cl<sub>2</sub>O",
        "Molecular Mass": "177.03",
        "Boiling Point": "231 °C",
        "Melting Point": "39 °C"
    }
}