{
    "cas_no": "42399-41-7",
    "key_name": "Diltiazem",
    "cn_name": "地尔硫卓;5-[2-(二甲基氨基)乙基]-2-(4-甲氧基苯基)-4-氧代-2,3,4,5-四氢-1,5-苯并硫氮杂卓-3-基乙酸酯;",
    "alternate_name": "1,5-Benzothiazepin-4(5<em>H</em>)-one, 3-(acetyloxy)-5-[2-(dimethylamino)ethyl]-2,3-dihydro-2-(4-methoxyphenyl)-, (2<em>S</em>,3<em>S</em>)-;1,5-Benzothiazepin-4(5<em>H</em>)-one, 3-(acetyloxy)-5-[2-(dimethylamino)ethyl]-2,3-dihydro-2-(4-methoxyphenyl)-, (2<em>S</em>-<em>cis</em>)-;(2<em>S</em>,3<em>S</em>)-3-(Acetyloxy)-5-[2-(dimethylamino)ethyl]-2,3-dihydro-2-(4-methoxyphenyl)-1,5-benzothiazepin-4(5<em>H</em>)-one;Diltiazem;<em>d</em>-<em>cis</em>-Diltiazem;(+)-<em>cis</em>-Diltiazem;(+)-Diltiazem;<em>d</em>-Diltiazem;Dilzem;Coras;Adizem XL;Cartia XT;Balcor;Dilzem retard;Diltia XT;MeSH ID: D004110",
    "duplicated_cas_no": "",
    "SMILES": "O(C(C)=O)[C@@H]1[C@@H](SC=2C(N(CCN(C)C)C1=O)=CC=CC2)C3=CC=C(OC)C=C3",
    "meta_data": {
        "InChI": "InChI=1S/C22H26N2O4S/c1-15(25)28-20-21(16-9-11-17(27-4)12-10-16)29-19-8-6-5-7-18(19)24(22(20)26)14-13-23(2)3/h5-12,20-21H,13-14H2,1-4H3/t20-,21+/m1/s1",
        "InChIKey": null,
        "Canonical SMILES": "O=C(OC1C(=O)N(C=2C=CC=CC2SC1C3=CC=C(OC)C=C3)CCN(C)C)C",
        "Molecular Formula": "C<sub>22</sub>H<sub>26</sub>N<sub>2</sub>O<sub>4</sub>S",
        "Molecular Mass": "414.52",
        "Melting Point": "212 °C (decomp)"
    }
}