{
    "cas_no": "82-07-5",
    "key_name": "Xanthene-9-carboxylic acid",
    "cn_name": "呫吨酸;呫吨-9-羧酸;",
    "alternate_name": "9<em>H</em>-Xanthene-9-carboxylic acid;Xanthene-9-carboxylic acid;Xanthenecarboxylic acid;Xanthanoic acid;9-Carboxyxanthene;Xanthine-9-carboxylic acid;NSC 66208;RH 00001",
    "duplicated_cas_no": "",
    "SMILES": "C(O)(=O)C1C=2C(OC=3C1=CC=CC3)=CC=CC2",
    "meta_data": {
        "InChI": "InChI=1S/C14H10O3/c15-14(16)13-9-5-1-3-7-11(9)17-12-8-4-2-6-10(12)13/h1-8,13H,(H,15,16)",
        "InChIKey": null,
        "Canonical SMILES": "O=C(O)C1C=2C=CC=CC2OC=3C=CC=CC31",
        "Molecular Formula": "C<sub>14</sub>H<sub>10</sub>O<sub>3</sub>",
        "Molecular Mass": "226.23",
        "Melting Point": "217 °C (decomp)"
    }
}