{
    "cas_no": "14513-34-9",
    "key_name": "3-Methacryloxypropylmethyldimethoxysilane",
    "cn_name": "3-甲基丙烯酰氧基丙基甲基二甲氧基硅烷;",
    "alternate_name": "2-Propenoic acid, 2-methyl-, 3-(dimethoxymethylsilyl)propyl ester;Methacrylic acid, 3-(dimethoxymethylsilyl)propyl ester;1-Propanol, 3-(dimethoxymethylsilyl)-, methacrylate;(γ-Methacryloxypropyl)dimethoxymethylsilane;KBM 502;(γ-Methacryloyloxypropyl)methyldimethoxysilane;3-(Dimethoxymethylsilyl)propyl methacrylate;(3-Methacryloyloxypropyl)dimethoxymethylsilane;(γ-Methacryloxypropyl)methyldimethoxysilane;(3-Methacryloxypropyl)dimethoxymethylsilane;[γ-(Methacryloyloxy)propyl]dimethoxymethylsilane;SS 1550;AY 43-060;γ-(Dimethoxymethylsilyl)propyl methacrylate;3-Methacryloxypropylmethyldimethoxysilane;(Methacryloxypropyl)methyldimethoxysilane;Y 9910;LS 3375;Z 6033;Dimethoxy[3-(methacryloyloxy)propyl]methylsilane;(3-Methacryloyloxypropyl)methyldimethoxysilane;KH 571;Methacryloxypropyldimethoxymethylsilane;ZH 571;DB 571;Dimethoxymethylsilylpropyl methacrylate;Dowsil Z 6033",
    "duplicated_cas_no": "",
    "SMILES": "[Si](CCCOC(C(C)=C)=O)(OC)(OC)C",
    "meta_data": {
        "InChI": "InChI=1S/C10H20O4Si/c1-9(2)10(11)14-7-6-8-15(5,12-3)13-4/h1,6-8H2,2-5H3",
        "InChIKey": null,
        "Canonical SMILES": "O=C(OCCC[Si](OC)(OC)C)C(=C)C",
        "Molecular Formula": "C<sub>10</sub>H<sub>20</sub>O<sub>4</sub>Si",
        "Molecular Mass": "232.35",
        "Boiling Point": "65 °C @ Press: 0.35 Torr",
        "Density": "1 g/cm³"
    }
}