{
    "cas_no": "7040-23-5",
    "key_name": "1,1′-Dimethyl 2,2′-oxybis[acetate]",
    "cn_name": null,
    "alternate_name": "Acetic acid, 2,2′-oxybis-, 1,1′-dimethyl ester;Acetic acid, oxydi-, dimethyl ester;Acetic acid, 2,2′-oxybis-, dimethyl ester;Diglycolic acid, dimethyl ester;1,1′-Dimethyl 2,2′-oxybis[acetate];Dimethyl diglycolate;Dimethyl 2,2′-oxydiacetate;Dimethyl oxydiacetate;Dimethyl 2,2′-oxybisacetate",
    "duplicated_cas_no": "",
    "SMILES": "C(OCC(OC)=O)C(OC)=O",
    "meta_data": {
        "InChI": "InChI=1S/C6H10O5/c1-9-5(7)3-11-4-6(8)10-2/h3-4H2,1-2H3",
        "InChIKey": null,
        "Canonical SMILES": "O=C(OC)COCC(=O)OC",
        "Molecular Formula": "C<sub>6</sub>H<sub>10</sub>O<sub>5</sub>",
        "Molecular Mass": "162.14",
        "Boiling Point": "130 °C @ Press: 13 Torr",
        "Melting Point": "36 °C"
    }
}