{
    "cas_no": "52867-42-2",
    "key_name": "Methyl 2,5-dihydro-2-methyl-5-oxo-1<em>H</em>-pyrazole-3-carboxylate",
    "cn_name": null,
    "alternate_name": "1<em>H</em>-Pyrazole-3-carboxylic acid, 2,5-dihydro-2-methyl-5-oxo-, methyl ester;Methyl 2,5-dihydro-2-methyl-5-oxo-1<em>H</em>-pyrazole-3-carboxylate;Methyl 3-hydroxy-1-methylpyrazole-5-carboxylate;NSC 196605",
    "duplicated_cas_no": "",
    "SMILES": "C(OC)(=O)C1=CC(=O)NN1C",
    "meta_data": {
        "InChI": "InChI=1S/C6H8N2O3/c1-8-4(6(10)11-2)3-5(9)7-8/h3H,1-2H3,(H,7,9)",
        "InChIKey": null,
        "Canonical SMILES": "O=C(OC)C1=CC(=O)NN1C",
        "Molecular Formula": "C<sub>6</sub>H<sub>8</sub>N<sub>2</sub>O<sub>3</sub>",
        "Molecular Mass": "156.14",
        "Melting Point": "197 °C"
    }
}