{
    "cas_no": "992-98-3",
    "key_name": "Formic acid, thallium(1+) salt (1:1)",
    "cn_name": "甲酸亚铊盐;甲酸亚铊;蚁酸亚铊;甲酸铊;蚁酸铊;",
    "alternate_name": "Formic acid, thallium(1+) salt (1:1);Formic acid, thallium(1+) salt;Thallium formate;Thallous formate;Thallium(1+) formate",
    "duplicated_cas_no": "",
    "SMILES": "C(O)=O.[Tl]",
    "meta_data": {
        "InChI": "InChI=1S/CH2O2.Tl/c2-1-3;/h1H,(H,2,3);",
        "InChIKey": null,
        "Canonical SMILES": "[Tl].O=CO",
        "Molecular Formula": "CH<sub>2</sub>O<sub>2</sub>.Tl",
        "Molecular Mass": "",
        "Melting Point": "101 °C",
        "Density": "4.970 g/cm³ @ Temp: 104 °C"
    }
}