{
    "cas_no": "833-50-1",
    "key_name": "2-Phenylbenzoxazole",
    "cn_name": "2-苯基苯并恶唑;2-苯基苯并噁唑;",
    "alternate_name": "Benzoxazole, 2-phenyl-;2-Phenylbenzoxazole;BOP;NSC 29105;NSC 406946;2-Phenylbenzo[<em>d</em>]oxazole;2-Phenyl-1,3-benzoxazole;2-Phenyl-benzooxazole",
    "duplicated_cas_no": "69932-15-6",
    "SMILES": "C1(=NC=2C(O1)=CC=CC2)C3=CC=CC=C3",
    "meta_data": {
        "InChI": "InChI=1S/C13H9NO/c1-2-6-10(7-3-1)13-14-11-8-4-5-9-12(11)15-13/h1-9H",
        "InChIKey": null,
        "Canonical SMILES": "N1=C(OC=2C=CC=CC12)C=3C=CC=CC3",
        "Molecular Formula": "C<sub>13</sub>H<sub>9</sub>NO",
        "Molecular Mass": "195.22",
        "Melting Point": "102-104 °C",
        "Density": "1.267 g/cm³"
    }
}