{
    "cas_no": "38939-88-7",
    "key_name": "2-Chloro-4-methyl-1-nitrobenzene",
    "cn_name": null,
    "alternate_name": "Benzene, 2-chloro-4-methyl-1-nitro-;Toluene, 3-chloro-4-nitro-;2-Chloro-4-methyl-1-nitrobenzene;3-Chloro-4-nitrotoluene;5-Methyl-2-nitrochlorobenzene;1-Chloro-5-methyl-2-nitrobenzene;1-Methyl-3-chloro-4-nitrobenzene;2-Chloro-4-methylnitrobenzene",
    "duplicated_cas_no": "",
    "SMILES": "N(=O)(=O)C1=C(Cl)C=C(C)C=C1",
    "meta_data": {
        "InChI": "InChI=1S/C7H6ClNO2/c1-5-2-3-7(9(10)11)6(8)4-5/h2-4H,1H3",
        "InChIKey": null,
        "Canonical SMILES": "O=N(=O)C1=CC=C(C=C1Cl)C",
        "Molecular Formula": "C<sub>7</sub>H<sub>6</sub>ClNO<sub>2</sub>",
        "Molecular Mass": "171.58",
        "Boiling Point": "108 °C @ Press: 3 Torr",
        "Melting Point": "24 °C"
    }
}