{
    "cas_no": "32543-38-7",
    "key_name": "Carnitine orotate",
    "cn_name": null,
    "alternate_name": "1-Propanaminium, 3-carboxy-2-hydroxy-<em>N</em>,<em>N</em>,<em>N</em>-trimethyl-, 1,2,3,6-tetrahydro-2,6-dioxo-4-pyrimidinecarboxylate (1:1);Ammonium, (3-carboxy-2-hydroxypropyl)trimethyl-, orotate;(3-Carboxy-2-hydroxypropyl)trimethylammonium orotate;1-Propanaminium, 3-carboxy-2-hydroxy-<em>N</em>,<em>N</em>,<em>N</em>-trimethyl-, salt with 1,2,3,6-tetrahydro-2,6-dioxo-4-pyrimidinecarboxylic acid (1:1);Carnitine orotate",
    "duplicated_cas_no": "",
    "SMILES": "C([N+](C)(C)C)C(CC(O)=O)O.C([O-])(=O)C1=CC(=O)NC(=O)N1",
    "meta_data": {
        "InChI": "InChI=1S/C7H15NO3.C5H4N2O4/c1-8(2,3)5-6(9)4-7(10)11;8-3-1-2(4(9)10)6-5(11)7-3/h6,9H,4-5H2,1-3H3;1H,(H,9,10)(H2,6,7,8,11)",
        "InChIKey": null,
        "Canonical SMILES": "O=C([O-])C1=CC(=O)NC(=O)N1.O=C(O)CC(O)C[N+](C)(C)C",
        "Molecular Formula": "C<sub>7</sub>H<sub>16</sub>NO<sub>3</sub>.C<sub>5</sub>H<sub>3</sub>N<sub>2</sub>O<sub>4</sub>",
        "Molecular Mass": "",
        "Melting Point": "191 °C"
    }
}