{
    "cas_no": "3699-54-5",
    "key_name": "1-(2-Hydroxyethyl)-2-imidazolidinone",
    "cn_name": "1-(2-羟乙基)-2-咪唑啉酮;N-羟乙基-2-咪唑烷酮;",
    "alternate_name": "2-Imidazolidinone, 1-(2-hydroxyethyl)-;1-(2-Hydroxyethyl)-2-imidazolidinone;<em>N</em>-(2-Hydroxyethyl)imidazolidone;1-(Hydroxyethyl)ethyleneurea;<em>N</em>-(β-Hydroxyethyl)-<em>N</em>,<em>N</em>′-ethylene urea;Ucar RD 65-2;<em>N</em>-(2-Hydroxyethyl)ethyleneurea;SR 511;Sartomer SR 511;SR 511A;NSC 5775;Norsocryl 101;<em>N</em>-(2-Hydroxyethyl)imidazolidin-2-one;3-(2-Hydroxyethyl)-2-imidazolidinone",
    "duplicated_cas_no": "",
    "SMILES": "C(CO)N1C(=O)NCC1",
    "meta_data": {
        "InChI": "InChI=1S/C5H10N2O2/c8-4-3-7-2-1-6-5(7)9/h8H,1-4H2,(H,6,9)",
        "InChIKey": null,
        "Canonical SMILES": "O=C1NCCN1CCO",
        "Molecular Formula": "C<sub>5</sub>H<sub>10</sub>N<sub>2</sub>O<sub>2</sub>",
        "Molecular Mass": "130.15",
        "Boiling Point": "220-240 °C @ Press: 20 Torr",
        "Melting Point": "50-51 °C"
    }
}