{
    "cas_no": "91-17-8",
    "key_name": "Decalin",
    "cn_name": "萘烷;十氢化萘;十氢萘;",
    "alternate_name": "Naphthalene, decahydro-;Decahydronaphthalene;Bicyclo[4.4.0]decane;Dec;Naphthan;Perhydronaphthalene;Decalin;Dekalin;Decaline;NSC 406139",
    "duplicated_cas_no": "",
    "SMILES": "C12C(CCCC1)CCCC2",
    "meta_data": {
        "InChI": "InChI=1S/C10H18/c1-2-6-10-8-4-3-7-9(10)5-1/h9-10H,1-8H2",
        "InChIKey": null,
        "Canonical SMILES": "C1CCC2CCCCC2C1",
        "Molecular Formula": "C<sub>10</sub>H<sub>18</sub>",
        "Molecular Mass": "138.25",
        "Boiling Point": "189-191 °C",
        "Melting Point": "-43 °C",
        "Density": "0.8965 g/cm³ @ Temp: 22 °C"
    }
}