{
    "cas_no": "6877-32-3",
    "key_name": "Corynoxine",
    "cn_name": null,
    "alternate_name": "Spiro[3<em>H</em>-indole-3,1′(5′<em>H</em>)-indolizine]-7′-acetic acid, 6′-ethyl-1,2,2′,3′,6′,7′,8′,8′a-octahydro-α-(methoxymethylene)-2-oxo-, methyl ester, (α<em>E</em>,1′<em>S</em>,6′<em>S</em>,7′<em>S</em>,8′a<em>S</em>)-;Corynoxine;Corynoxan-16-carboxylic acid, 16,17-didehydro-17-methoxy-2-oxo-, methyl ester, (16<em>E</em>)-;Spiro[3<em>H</em>-indole-3,1′(5′<em>H</em>)-indolizine]-7′-acetic acid, 6′-ethyl-1,2,2′,3′,6′,7′,8′,8′a-octahydro-α-(methoxymethylene)-2-oxo-, methyl ester, [1′<em>S</em>-[1′α,6′β,7′β(<em>E</em>),8′aα]]-",
    "duplicated_cas_no": "28645-82-1",
    "SMILES": "O=C1[C@]2([C@]3(N(CC2)C[C@@H](CC)[C@@H](\\C(\\C(OC)=O)=C/OC)C3)[H])C=4C(N1)=CC=CC4",
    "meta_data": {
        "InChI": "InChI=1S/C22H28N2O4/c1-4-14-12-24-10-9-22(17-7-5-6-8-18(17)23-21(22)26)19(24)11-15(14)16(13-27-2)20(25)28-3/h5-8,13-15,19H,4,9-12H2,1-3H3,(H,23,26)/b16-13+/t14-,15+,19+,22+/m1/s1",
        "InChIKey": null,
        "Canonical SMILES": "O=C(OC)C(=COC)C1CC2N(CCC32C(=O)NC=4C=CC=CC43)CC1CC",
        "Molecular Formula": "C<sub>22</sub>H<sub>28</sub>N<sub>2</sub>O<sub>4</sub>",
        "Molecular Mass": "384.47",
        "Melting Point": "166-168 °C"
    }
}