{
    "cas_no": "5394-23-0",
    "key_name": "4,7-Dichloro-1,10-phenanthroline",
    "cn_name": null,
    "alternate_name": "1,10-Phenanthroline, 4,7-dichloro-;4,7-Dichloro-1,10-phenanthroline;4,7-Dichloro-<em>o</em>-phenanthroline;NSC 626",
    "duplicated_cas_no": "",
    "SMILES": "ClC=1C=2C(=C3C(=CC2)C(Cl)=CC=N3)N=CC1",
    "meta_data": {
        "InChI": "InChI=1S/C12H6Cl2N2/c13-9-3-5-15-11-7(9)1-2-8-10(14)4-6-16-12(8)11/h1-6H",
        "InChIKey": null,
        "Canonical SMILES": "ClC=1C=CN=C2C=3N=CC=C(Cl)C3C=CC12",
        "Molecular Formula": "C<sub>12</sub>H<sub>6</sub>Cl<sub>2</sub>N<sub>2</sub>",
        "Molecular Mass": "249.10",
        "Melting Point": "249-250 °C"
    }
}