{
    "cas_no": "100-79-8",
    "key_name": "Solketal",
    "cn_name": "丙酮缩甘油;异亚丙基甘油;",
    "alternate_name": "1,3-Dioxolane-4-methanol, 2,2-dimethyl-;2,2-Dimethyl-1,3-dioxolane-4-methanol;2,2-Dimethyl-5-hydroxymethyl-1,3-dioxolane;2-Dimethyl-4-oxymethyl-1,3-dioxolane;GIE;Glycerolacetone;Glycerol dimethylketal;Isopropylidene glycerol;Solketal;2,2-Dimethyl-4-hydroxymethyl-1,3-dioxolane;Glycerol acetonide;α,β-Isopropylideneglycerol;2,3-Isopropylideneglycerol;2,3-<em>O</em>-Isopropylideneglycerol;1,2-<em>O</em>-Isopropylideneglycerol;2,2-Dimethyl-4-hydroxymethyldioxolane;2,3-(Isopropylidenedioxy)propanol;2,2-Dimethyl-1,3-dioxolan-4-methanol;1,2-Isopropylideneglycerin;1,2-<em>O</em>,<em>O</em>-Isopropylideneglycerin;Glycerin isopropylidene ether;Acetone monoglycerol ketal;2,2-Dimethyl-1,3-dioxolan-4-ylmethanol;Glycerol α,β-isopropylidene ether;2,2-Dimethyl-1,3-dioxolane-5-methanol;Acetone glycerin ketal;1,2-Isopropylideneglycerol;<span class=\"text-smallcaps\">DL</span>-Isopropylideneglycerol;(±)-Glycerol 1,2-acetonide;(±)-2,2-Dimethyl-1,3-dioxolane-4-methanol;(4<em>RS</em>)-2,2-Dimethyl-1,3-dioxolane-4-methanol;(<em>RS</em>)-Solketal;(±)-1,2-<em>O</em>-Isopropylideneglycerol;Racemic solketal;NSC 59720;Acetone glyceryl acetal;Glycerin acetone ketal;2,2-Dimethyl-4-hydroxymethyl-1,3-dioxolan;4-(Hydroxymethyl)-2,2-dimethyl-1,3-dioxolane;1,2-<em>O</em>-Isopropylidene-<em>rac</em>-glycerol;Augeo SL 191;Isopropylideneglycerin;(2,2-Dimethyl-[1,3]-dioxolan-4-yl)methanol;Augeo 191;2,2-Dimethyldioxolane-4-methanol;Augeo Clean Multi;Solketol;<span class=\"text-smallcaps\">D</smallcap><smallcap>L</span>-1,2-Isopropylideneglycerol;<span class=\"text-smallcaps\">D</smallcap><smallcap>L</span>-1,2-Isopropylidene glycerol;Augeo MC",
    "duplicated_cas_no": "22323-83-7;36543-79-0;2263936-21-4",
    "SMILES": "C(O)C1OC(C)(C)OC1",
    "meta_data": {
        "InChI": "InChI=1S/C6H12O3/c1-6(2)8-4-5(3-7)9-6/h5,7H,3-4H2,1-2H3",
        "InChIKey": null,
        "Canonical SMILES": "OCC1OC(OC1)(C)C",
        "Molecular Formula": "C<sub>6</sub>H<sub>12</sub>O<sub>3</sub>",
        "Molecular Mass": "132.16",
        "Boiling Point": "188 °C",
        "Melting Point": "-26.4 °C",
        "Density": "1.06 g/cm³"
    }
}