{
    "cas_no": "2307-68-8",
    "key_name": "Pentanochlor",
    "cn_name": "戊酰苯草胺;N-(3-氯-4-甲基苯基)-2-甲基戊酰按;",
    "alternate_name": "Pentanamide, <em>N</em>-(3-chloro-4-methylphenyl)-2-methyl-;<em>p</em>-Valerotoluidide, 3′-chloro-2-methyl-;<em>N</em>-(3-Chloro-4-methylphenyl)-2-methylpentanamide;3′-Chloro-2-methyl-<em>p</em>-valerotoluidide;Dutom;Niagara 4512;Solan;CMMP;Chlorpentan;Hortox;Solan (herbicide);Solane;Pentanochlor;CMA;3′-Chloro-2,4′-dimethylvaleranilide;CMMP (herbicide);2-Methyl-pentanoic acid (3-chloro-4-methyl-phenyl)-amide",
    "duplicated_cas_no": "12738-30-6",
    "SMILES": "N(C(C(CCC)C)=O)C1=CC(Cl)=C(C)C=C1",
    "meta_data": {
        "InChI": "InChI=1S/C13H18ClNO/c1-4-5-10(3)13(16)15-11-7-6-9(2)12(14)8-11/h6-8,10H,4-5H2,1-3H3,(H,15,16)",
        "InChIKey": null,
        "Canonical SMILES": "O=C(NC1=CC=C(C(Cl)=C1)C)C(C)CCC",
        "Molecular Formula": "C<sub>13</sub>H<sub>18</sub>ClNO",
        "Molecular Mass": "239.74",
        "Melting Point": "85 °C"
    }
}