{
    "cas_no": "95-78-3",
    "key_name": "2,5-Dimethylaniline",
    "cn_name": "2,5-二甲基苯胺;",
    "alternate_name": "Benzenamine, 2,5-dimethyl-;2,5-Xylidine;2,5-Dimethylbenzenamine;1-Amino-2,5-dimethylbenzene;<em>p</em>-Xylidine;2,5-Dimethylaniline;3-Amino-1,4-dimethylbenzene;2-Amino-1,4-xylene;5-Amino-1,4-dimethylbenzene;2,5-Dimethylphenylamine;NSC 7639",
    "duplicated_cas_no": "",
    "SMILES": "NC1=C(C)C=CC(C)=C1",
    "meta_data": {
        "InChI": "InChI=1S/C8H11N/c1-6-3-4-7(2)8(9)5-6/h3-5H,9H2,1-2H3",
        "InChIKey": null,
        "Canonical SMILES": "NC1=CC(=CC=C1C)C",
        "Molecular Formula": "C<sub>8</sub>H<sub>11</sub>N",
        "Molecular Mass": "121.18",
        "Boiling Point": "214 °C @ Press: 760 Torr",
        "Melting Point": "15.5 °C",
        "Density": "0.9790 g/cm³ @ Temp: 21 °C"
    }
}