{
    "cas_no": "2114-39-8",
    "key_name": "2-Bromo-1-phenylpropane",
    "cn_name": "2-溴-1-苯丙烷;",
    "alternate_name": "Benzene, (2-bromopropyl)-;(2-Bromopropyl)benzene;1-Phenyl-2-bromopropane;2-Bromo-1-phenylpropane;1-Bromo-1-methyl-2-phenylethane;(±)-2-Bromo-1-phenylpropane",
    "duplicated_cas_no": "14367-52-3",
    "SMILES": "C(C(Br)C)C1=CC=CC=C1",
    "meta_data": {
        "InChI": "InChI=1S/C9H11Br/c1-8(10)7-9-5-3-2-4-6-9/h2-6,8H,7H2,1H3",
        "InChIKey": null,
        "Canonical SMILES": "BrC(C)CC=1C=CC=CC1",
        "Molecular Formula": "C<sub>9</sub>H<sub>11</sub>Br",
        "Molecular Mass": "199.09",
        "Boiling Point": "92-93 °C @ Press: 10 Torr"
    }
}