{
    "cas_no": "402-45-9",
    "key_name": "4-(Trifluoromethyl)phenol",
    "cn_name": "对三氟甲基苯酚;",
    "alternate_name": "Phenol, 4-(trifluoromethyl)-;<em>p</em>-Cresol, α,α,α-trifluoro-;4-(Trifluoromethyl)phenol;<em>p</em>-Trifluoromethylphenol;<em>p</em>-Hydroxybenzotrifluoride;α,α,α-Trifluoro-<em>p</em>-cresol;α,α,α-Trifluoro-4-cresol;4-Hydroxybenzotrifluoride;NSC 88303",
    "duplicated_cas_no": "",
    "SMILES": "C(F)(F)(F)C1=CC=C(O)C=C1",
    "meta_data": {
        "InChI": "InChI=1S/C7H5F3O/c8-7(9,10)5-1-3-6(11)4-2-5/h1-4,11H",
        "InChIKey": null,
        "Canonical SMILES": "FC(F)(F)C1=CC=C(O)C=C1",
        "Molecular Formula": "C<sub>7</sub>H<sub>5</sub>F<sub>3</sub>O",
        "Molecular Mass": "162.11",
        "Boiling Point": "50 °C @ Press: 2 Torr",
        "Melting Point": "46 °C"
    }
}