{
    "cas_no": "17496-08-1",
    "key_name": "Ammonium propionate",
    "cn_name": "丙酸铵盐;",
    "alternate_name": "Propanoic acid, ammonium salt (1:1);Propionic acid, ammonium salt;Propanoic acid, ammonium salt;Ammonium propionate;Luprosil NC",
    "duplicated_cas_no": "",
    "SMILES": "C(CC)(O)=O.N",
    "meta_data": {
        "InChI": "InChI=1S/C3H6O2.H3N/c1-2-3(4)5;/h2H2,1H3,(H,4,5);1H3",
        "InChIKey": null,
        "Canonical SMILES": "O=C(O)CC.N",
        "Molecular Formula": "C<sub>3</sub>H<sub>6</sub>O<sub>2</sub>.H<sub>3</sub>N",
        "Molecular Mass": "",
        "Melting Point": "73 °C"
    }
}