{
    "cas_no": "4105-38-8",
    "key_name": "2′,3′,5′-Tri-<em>O</em>-acetyluridine",
    "cn_name": "2\",3\",5\"-三乙酰尿苷;",
    "alternate_name": "Uridine, 2′,3′,5′-triacetate;2′,3′,5′-Tri-<em>O</em>-acetyluridine;2′,3′,5′-Triacetyluridine;Tri-<em>O</em>-acetyl uridine;Uridine triacetate;PN 401;RG 2133;Vistonuridine;Xuriden;Triacetyluridine;Vistogard;Chembridge 5106522",
    "duplicated_cas_no": "293738-13-3;1606159-79-8",
    "SMILES": "O(C(C)=O)[C@H]1[C@@H](O[C@H](COC(C)=O)[C@H]1OC(C)=O)N2C(=O)NC(=O)C=C2",
    "meta_data": {
        "InChI": "InChI=1S/C15H18N2O9/c1-7(18)23-6-10-12(24-8(2)19)13(25-9(3)20)14(26-10)17-5-4-11(21)16-15(17)22/h4-5,10,12-14H,6H2,1-3H3,(H,16,21,22)/t10-,12-,13-,14-/m1/s1",
        "InChIKey": null,
        "Canonical SMILES": "O=C(OCC1OC(N2C=CC(=O)NC2=O)C(OC(=O)C)C1OC(=O)C)C",
        "Molecular Formula": "C<sub>15</sub>H<sub>18</sub>N<sub>2</sub>O<sub>9</sub>",
        "Molecular Mass": "370.31",
        "Melting Point": "130-132 °C"
    }
}