{
    "cas_no": "6027-91-4",
    "key_name": "3-Pyridinecarboxylic acid, 1,2,5,6-tetrahydro-, hydrochloride (1:1)",
    "cn_name": null,
    "alternate_name": "3-Pyridinecarboxylic acid, 1,2,5,6-tetrahydro-, hydrochloride (1:1);Nicotinic acid, 1,2,5,6-tetrahydro-, hydrochloride;Guvacine, hydrochloride;3-Pyridinecarboxylic acid, 1,2,5,6-tetrahydro-, hydrochloride;1,2,5,6-Tetrahydropyridine-3-carboxylic acid hydrochloride",
    "duplicated_cas_no": "",
    "SMILES": "C(O)(=O)C1=CCCNC1.Cl",
    "meta_data": {
        "InChI": "InChI=1S/C6H9NO2.ClH/c8-6(9)5-2-1-3-7-4-5;/h2,7H,1,3-4H2,(H,8,9);1H",
        "InChIKey": null,
        "Canonical SMILES": "Cl.O=C(O)C1=CCCNC1",
        "Molecular Formula": "C<sub>6</sub>H<sub>9</sub>NO<sub>2</sub>.ClH",
        "Molecular Mass": "",
        "Melting Point": "316 °C (decomp)"
    }
}