{
    "cas_no": "13327-32-7",
    "key_name": "Beryllium hydroxide",
    "cn_name": "氢氧化铍;",
    "alternate_name": "Beryllium hydroxide (Be(OH)<sub>2</sub>);Beryllium hydroxide;Beryllium dihydroxide",
    "duplicated_cas_no": "1304-49-0",
    "SMILES": "[Be](O)O",
    "meta_data": {
        "InChI": "InChI=1S/Be.2H2O/h;2*1H2/q+2;;/p-2",
        "InChIKey": null,
        "Canonical SMILES": "O[Be]O",
        "Molecular Formula": "BeH<sub>2</sub>O<sub>2</sub>",
        "Molecular Mass": "",
        "Melting Point": "105 °C (decomp)",
        "Density": "1.92 g/cm³"
    }
}