{
    "cas_no": "5575-21-3",
    "key_name": "Cefalonium",
    "cn_name": "头孢洛宁;(6R,7R)-3-[(4-氨基甲酰吡啶-1-鎓-1-基)甲基]-8-氧代-7-[(2-噻吩-2-基乙酰)氨基]-5-硫杂-1-氮杂双;",
    "alternate_name": "Pyridinium, 4-(aminocarbonyl)-1-[[(6<em>R</em>,7<em>R</em>)-2-carboxy-8-oxo-7-[[2-(2-thienyl)acetyl]amino]-5-thia-1-azabicyclo[4.2.0]oct-2-en-3-yl]methyl]-, inner salt;Pyridinium, 4-carbamoyl-1-[[2-carboxy-8-oxo-7-[2-(2-thienyl)acetamido]-5-thia-1-azabicyclo[4.2.0]oct-2-en-3-yl]methyl]-, hydroxide, inner salt;Pyridinium, 4-(aminocarbonyl)-1-[[2-carboxy-8-oxo-7-[(2-thienylacetyl)amino]-5-thia-1-azabicyclo[4.2.0]oct-2-en-3-yl]methyl]-, hydroxide, inner salt, (6<em>R</em>-<em>trans</em>)-;4-Carbamoyl-1-[[2-carboxy-8-oxo-7-[2-(2-thienyl)acetamido]-5-thia-1-azabicyclo[4.2.0]oct-2-en-3-yl]methyl]pyridinium hydroxide, inner salt;Pyridinium, 4-(aminocarbonyl)-1-[[(6<em>R</em>,7<em>R</em>)-2-carboxy-8-oxo-7-[(2-thienylacetyl)amino]-5-thia-1-azabicyclo[4.2.0]oct-2-en-3-yl]methyl]-, inner salt;Cephalonium;7-(α-Thienylacetamido)-3-(4-carbamoylpyridinomethyl)-3-cephem-4-carboxylic acid;Cefalonium;Pyridinium, 4-(aminocarbonyl)-1-[[2-carboxy-8-oxo-7-[(2-thienylacetyl)amino]-5-thia-1-azabicyclo[4.2.0]oct-2-en-3-yl]methyl]-, inner salt, (6<em>R</em>-<em>trans</em>)-;3-(4-Carbamoylpyridylmethyl)-8-oxo-7-[α-(thien-2-yl)acetamido]-5-thia-1-azabicyclo[4.2.0]oct-2-ene-2-carboxylic acid;Cepalonium;Cepravin DC;Cepravin Dry Cow",
    "duplicated_cas_no": "12182-47-7",
    "SMILES": "C([O-])(=O)C=1N2[C@@]([C@H](NC(CC3=CC=CS3)=O)C2=O)(SCC1C[N+]=4C=CC(C(N)=O)=CC4)[H]",
    "meta_data": {
        "InChI": "InChI=1S/C20H18N4O5S2/c21-17(26)11-3-5-23(6-4-11)9-12-10-31-19-15(18(27)24(19)16(12)20(28)29)22-14(25)8-13-2-1-7-30-13/h1-7,15,19H,8-10H2,(H3-,21,22,25,26,28,29)/t15-,19-/m1/s1",
        "InChIKey": null,
        "Canonical SMILES": "O=C([O-])C1=C(CSC2N1C(=O)C2NC(=O)CC=3SC=CC3)C[N+]4=CC=C(C=C4)C(=O)N",
        "Molecular Formula": "C<sub>20</sub>H<sub>18</sub>N<sub>4</sub>O<sub>5</sub>S<sub>2</sub>",
        "Molecular Mass": "",
        "Melting Point": "147-150 °C"
    }
}