{
    "cas_no": "4342-03-4",
    "key_name": "Dacarbazine",
    "cn_name": "达卡巴嗪;5-(3,3-二甲基-1-三氮烯)咪唑-4-羧酰胺;氮烯咪胺;",
    "alternate_name": "1<em>H</em>-Imidazole-4-carboxamide, 5-(3,3-dimethyl-1-triazen-1-yl)-;Imidazole-4-carboxamide, 5-(3,3-dimethyl-1-triazeno)-;1<em>H</em>-Imidazole-4-carboxamide, 5-(3,3-dimethyl-1-triazenyl)-;Imidazole-4(<em>or</em> 5)-carboxamide, 5(<em>or</em> 4)-(3,3-dimethyl-1-triazeno)-;5-(3,3-Dimethyl-1-triazen-1-yl)-1<em>H</em>-imidazole-4-carboxamide;4-(Dimethyltriazeno)imidazole-5-carboxamide;5-(3,3-Dimethyl-1-triazeno)imidazole-4-carboxamide;5-(Dimethyltriazeno)imidazole-4-carboxamide;5(<em>or</em> 4)-(3,3-Dimethyl-1-triazeno)imidazole-4(<em>or</em> 5)carboxamide;5(4)-(3,3-Dimethyl-1-triazeno)imidazole-4(5)-carboxamide;4(<em>or</em> 5)-(3,3-Dimethyl-1-triazeno)imidazole-5(<em>or</em> 4)-carboxamide;5-(3,3-Dimethyltriazeno)imidazole-4-carboxamide;Dacarbazine;NSC 45388;5-(3,3-Dimethyl-1-triazenyl)-1<em>H</em>-imidazole-4-carboxamide;(Dimethyltriazeno)imidazolecarboxamide;DTIC;5-(3,3-Dimethyl-1-triazenyl)imidazole-4-carboxamide;Biocarbazine R;Deticene;5-(3,3′-Dimethyl-1-triazeno)imidazole-4-carboxamide;Dacarbasine;DTIE;DTIC-Dome;NCI C04717;ICDT;ICDMT;DIC;Detimedac;MeSH ID: D003606",
    "duplicated_cas_no": "37626-23-6",
    "SMILES": "N(=NN(C)C)C1=C(C(N)=O)N=CN1",
    "meta_data": {
        "InChI": "InChI=1S/C6H10N6O/c1-12(2)11-10-6-4(5(7)13)8-3-9-6/h3H,1-2H3,(H2,7,13)(H,8,9)",
        "InChIKey": null,
        "Canonical SMILES": "O=C(N)C=1N=CNC1N=NN(C)C",
        "Molecular Formula": "C<sub>6</sub>H<sub>10</sub>N<sub>6</sub>O",
        "Molecular Mass": "182.18",
        "Melting Point": "205 °C"
    }
}