{
    "cas_no": "111-26-2",
    "key_name": "Hexylamine",
    "cn_name": "正己胺;1-氨基己烷;",
    "alternate_name": "1-Hexanamine;Hexylamine;1-Aminohexane;<em>n</em>-Hexylamine;Mono-<em>n</em>-hexylamine;1-Hexylamine;ENT 16554;NSC 2590;1-Hexaneamine",
    "duplicated_cas_no": "85404-23-5",
    "SMILES": "C(CCC)CCN",
    "meta_data": {
        "InChI": "InChI=1S/C6H15N/c1-2-3-4-5-6-7/h2-7H2,1H3",
        "InChIKey": null,
        "Canonical SMILES": "NCCCCCC",
        "Molecular Formula": "C<sub>6</sub>H<sub>15</sub>N",
        "Molecular Mass": "101.19",
        "Boiling Point": "131-132 °C",
        "Melting Point": "-22.9 °C",
        "Density": "0.77 g/cm³"
    }
}