{
    "cas_no": "1635-84-3",
    "key_name": "2,4-Dimethyl-6-nitroaniline",
    "cn_name": "4,6-二甲基-2-硝基苯胺;",
    "alternate_name": "Benzenamine, 2,4-dimethyl-6-nitro-;2,4-Xylidine, 6-nitro-;2,4-Dimethyl-6-nitrobenzenamine;2-Nitro-4,6-dimethylaniline;4,6-Dimethyl-2-nitroaniline;4-Amino-5-nitro-<em>m</em>-xylene;2,4-Dimethyl-6-nitroaniline;6-Nitro-2,4-xylidine;NSC 9816;2,4-Dimethyl-6-nitro-phenylamine",
    "duplicated_cas_no": "",
    "SMILES": "N(=O)(=O)C1=C(N)C(C)=CC(C)=C1",
    "meta_data": {
        "InChI": "InChI=1S/C8H10N2O2/c1-5-3-6(2)8(9)7(4-5)10(11)12/h3-4H,9H2,1-2H3",
        "InChIKey": null,
        "Canonical SMILES": "O=N(=O)C1=CC(=CC(=C1N)C)C",
        "Molecular Formula": "C<sub>8</sub>H<sub>10</sub>N<sub>2</sub>O<sub>2</sub>",
        "Molecular Mass": "166.18",
        "Melting Point": "68 °C"
    }
}