{
    "cas_no": "1758-46-9",
    "key_name": "Phenoxyethylamine",
    "cn_name": "2-苯氧基乙胺;",
    "alternate_name": "Ethanamine, 2-phenoxy-;Ethylamine, 2-phenoxy-;2-Phenoxyethanamine;Phenetole, β-amino-;2-Phenoxyethylamine;Phenoxyethylamine;(2-Aminoethoxy)benzene;2-Phenoxyethan-1-amine;2-Phenoxylethylamine",
    "duplicated_cas_no": "1353633-60-9",
    "SMILES": "O(CCN)C1=CC=CC=C1",
    "meta_data": {
        "InChI": "InChI=1S/C8H11NO/c9-6-7-10-8-4-2-1-3-5-8/h1-5H,6-7,9H2",
        "InChIKey": null,
        "Canonical SMILES": "O(C=1C=CC=CC1)CCN",
        "Molecular Formula": "C<sub>8</sub>H<sub>11</sub>NO",
        "Molecular Mass": "137.18",
        "Boiling Point": "104 °C @ Press: 12 Torr"
    }
}