{
    "cas_no": "99-27-4",
    "key_name": "1,3-Benzenedicarboxylic acid, 5-amino-, 1,3-dimethyl ester",
    "cn_name": "5-氨基间苯二甲酸二甲酯;5-氨基异酞酸二甲酯;",
    "alternate_name": "1,3-Benzenedicarboxylic acid, 5-amino-, 1,3-dimethyl ester;Isophthalic acid, 5-amino-, dimethyl ester;1,3-Benzenedicarboxylic acid, 5-amino-, dimethyl ester;3,5-Dicarbomethoxyaniline;5-Aminoisophthalic acid dimethyl ester;Dimethyl 5-aminoisophthalate;Dimethyl 5-aminobenzene-1,3-dicarboxylate;5-Aminobenzene-1,3-dicarboxylic acid dimethyl ester;Methyl 5-amino-3-(methoxycarbonyl)benzoate;NSC 34721;3,5-Dimethoxycarbonylaniline;3,5-Bis(methoxycarbonyl)aniline;5-Aminoisophthalic acid methyl ester;1,3-Dimethyl 5-aminobenzene-1,3-dicarboxylate",
    "duplicated_cas_no": "50891-97-9;942063-56-1",
    "SMILES": "C(OC)(=O)C1=CC(C(OC)=O)=CC(N)=C1",
    "meta_data": {
        "InChI": "InChI=1S/C10H11NO4/c1-14-9(12)6-3-7(10(13)15-2)5-8(11)4-6/h3-5H,11H2,1-2H3",
        "InChIKey": null,
        "Canonical SMILES": "O=C(OC)C1=CC(N)=CC(=C1)C(=O)OC",
        "Molecular Formula": "C<sub>10</sub>H<sub>11</sub>NO<sub>4</sub>",
        "Molecular Mass": "209.20",
        "Boiling Point": "178-180 °C",
        "Melting Point": "176-178 °C"
    }
}