{
    "cas_no": "2892-29-7",
    "key_name": "1-(3-Chloro-4-hydroxyphenyl)ethanone",
    "cn_name": null,
    "alternate_name": "Ethanone, 1-(3-chloro-4-hydroxyphenyl)-;Acetophenone, 3′-chloro-4′-hydroxy-;1-(3-Chloro-4-hydroxyphenyl)ethanone;3′-Chloro-4′-hydroxyacetophenone;1-(3-Chloro-4-hydroxyphenyl)-1-ethanone",
    "duplicated_cas_no": "",
    "SMILES": "C(C)(=O)C1=CC(Cl)=C(O)C=C1",
    "meta_data": {
        "InChI": "InChI=1S/C8H7ClO2/c1-5(10)6-2-3-8(11)7(9)4-6/h2-4,11H,1H3",
        "InChIKey": null,
        "Canonical SMILES": "O=C(C1=CC=C(O)C(Cl)=C1)C",
        "Molecular Formula": "C<sub>8</sub>H<sub>7</sub>ClO<sub>2</sub>",
        "Molecular Mass": "170.59",
        "Melting Point": "95 °C"
    }
}