{
    "cas_no": "3861-47-0",
    "key_name": "Ioxynil octanoate",
    "cn_name": "辛酰碘苯腈;3,5-二碘代-4-辛酰碘苯腈;辛酰碘苯腈;碘苯腈辛酸酯;",
    "alternate_name": "Octanoic acid, 4-cyano-2,6-diiodophenyl ester;Octanoic acid, ester with 4-hydroxy-3,5-diiodobenzonitrile;Ioxynil octanoate;3,5-Diiodo-4-<em>n</em>-octanoyloxybenzonitrile;MB 11641;3,5-Diiodo-4-octanoyloxybenzonitrile;Totril;Bentrol L",
    "duplicated_cas_no": "33964-25-9",
    "SMILES": "O(C(CCCCCCC)=O)C1=C(I)C=C(C#N)C=C1I",
    "meta_data": {
        "InChI": "InChI=1S/C15H17I2NO2/c1-2-3-4-5-6-7-14(19)20-15-12(16)8-11(10-18)9-13(15)17/h8-9H,2-7H2,1H3",
        "InChIKey": null,
        "Canonical SMILES": "N#CC1=CC(I)=C(OC(=O)CCCCCCC)C(I)=C1",
        "Molecular Formula": "C<sub>15</sub>H<sub>17</sub>I<sub>2</sub>NO<sub>2</sub>",
        "Molecular Mass": "497.11",
        "Melting Point": "59.5 °C"
    }
}