{
    "cas_no": "79-69-6",
    "key_name": "α-Irone",
    "cn_name": "4-(2,5,6,6-四甲基-2-环己烯-1-基)-3-丁烯-2-酮;",
    "alternate_name": "3-Buten-2-one, 4-(2,5,6,6-tetramethyl-2-cyclohexen-1-yl)-;α-Ionone, methyl-;4-(2,5,6,6-Tetramethyl-2-cyclohexen-1-yl)-3-buten-2-one;α-Irone;α-Ionone, 6-methyl-;6-Methyl-α-ionone;4-(2,5,6,6-Tetramethyl-2-cyclohexen-1-yl)-3-butene-2-one;Methyl-α-ionone",
    "duplicated_cas_no": "54082-69-8",
    "SMILES": "C(=CC(C)=O)C1C(C)(C)C(C)CC=C1C",
    "meta_data": {
        "InChI": "InChI=1S/C14H22O/c1-10-6-7-11(2)14(4,5)13(10)9-8-12(3)15/h6,8-9,11,13H,7H2,1-5H3",
        "InChIKey": null,
        "Canonical SMILES": "O=C(C=CC1C(=CCC(C)C1(C)C)C)C",
        "Molecular Formula": "C<sub>14</sub>H<sub>22</sub>O",
        "Molecular Mass": "206.32",
        "Boiling Point": "89 °C @ Press: 0.5 Torr",
        "Melting Point": "&lt;25 °C",
        "Density": "0.9353 g/cm³ @ Temp: 21 °C"
    }
}