{
    "cas_no": "50847-11-5",
    "key_name": "Ibudilast",
    "cn_name": "异丁司特;2-甲基-1-[2-(1-甲基乙基)吡唑啉[1,5-a]吡啶-3-基]-1-丙酮;",
    "alternate_name": "1-Propanone, 2-methyl-1-[2-(1-methylethyl)pyrazolo[1,5-<em>a</em>]pyridin-3-yl]-;Pyrazolo[1,5-<em>a</em>]pyridine, 1-propanone deriv.;2-Methyl-1-[2-(1-methylethyl)pyrazolo[1,5-<em>a</em>]pyridin-3-yl]-1-propanone;2-Isopropyl-3-isobutyrylpyrazolo[1,5-<em>a</em>]pyridine;KC 404;Ibudilast;Ketas;3-Isobutyryl-2-isopropylpyrazolo[1,5-a]pyridine;1-(2-Isopropylpyrazolo[1,5-<em>a</em>]pyridin-3-yl)-2-methylpropan-1-one;AV 411;Pinatos;2-Methyl-1-(2-propan-2-ylpyrazolo[1,5-<em>a</em>]pyridin-3-yl)propan-1-one;MN-166;MN 166",
    "duplicated_cas_no": "",
    "SMILES": "C(C(C)C)(=O)C1=C2N(N=C1C(C)C)C=CC=C2",
    "meta_data": {
        "InChI": "InChI=1S/C14H18N2O/c1-9(2)13-12(14(17)10(3)4)11-7-5-6-8-16(11)15-13/h5-10H,1-4H3",
        "InChIKey": null,
        "Canonical SMILES": "O=C(C1=C2C=CC=CN2N=C1C(C)C)C(C)C",
        "Molecular Formula": "C<sub>14</sub>H<sub>18</sub>N<sub>2</sub>O",
        "Molecular Mass": "230.31",
        "Melting Point": "53.5-54 °C"
    }
}