{
    "cas_no": "7133-90-6",
    "key_name": "2-Hydroxybenzenecarbothioamide",
    "cn_name": null,
    "alternate_name": "Benzenecarbothioamide, 2-hydroxy-;Salicylamide, thio-;2-Hydroxybenzenecarbothioamide;2-Hydroxythiobenzamide;Thiosalicylamide;2-Hydroxybenzothiamide;Salicylthioamide;2-Hydroxybenzene-1-carbothioamide",
    "duplicated_cas_no": "",
    "SMILES": "C(N)(=S)C1=C(O)C=CC=C1",
    "meta_data": {
        "InChI": "InChI=1S/C7H7NOS/c8-7(10)5-3-1-2-4-6(5)9/h1-4,9H,(H2,8,10)",
        "InChIKey": null,
        "Canonical SMILES": "S=C(N)C=1C=CC=CC1O",
        "Molecular Formula": "C<sub>7</sub>H<sub>7</sub>NOS",
        "Molecular Mass": "153.20",
        "Melting Point": "118-120 °C"
    }
}