{
    "cas_no": "5466-88-6",
    "key_name": "2<em>H</em>-1,4-Benzoxazin-3(4<em>H</em>)-one",
    "cn_name": "2H-1,4-苯并恶嗪-3(4H)-酮;",
    "alternate_name": "2<em>H</em>-1,4-Benzoxazin-3(4<em>H</em>)-one;2<em>H</em>-1,4-Benzoxazin-3-one;2,3-Dihydro-3-oxo-4<em>H</em>-1,4-benzoxazine;4<em>H</em>-Benzo[1,4]oxazin-3-one;3-Oxo-3,4-dihydro-2<em>H</em>-benzo[<em>b</em>][1,4]oxazine;NSC 26354;2<em>H</em>-Benzo[<em>b</em>][1,4]oxazin-3(4<em>H</em>)-one;3,4-Dihydro-1<em>H</em>-benzo[<em>b</em>][1,4]oxazine-3-one;4<em>H</em>-1,4-Benzoxazin-3-one;3,4-Dihydro-2<em>H</em>-1,4-benzoxazin-3-one;2<em>H</em>-1,4-Benzoxazin-3-ol",
    "duplicated_cas_no": "",
    "SMILES": "O=C1NC=2C(OC1)=CC=CC2",
    "meta_data": {
        "InChI": "InChI=1S/C8H7NO2/c10-8-5-11-7-4-2-1-3-6(7)9-8/h1-4H,5H2,(H,9,10)",
        "InChIKey": null,
        "Canonical SMILES": "O=C1NC=2C=CC=CC2OC1",
        "Molecular Formula": "C<sub>8</sub>H<sub>7</sub>NO<sub>2</sub>",
        "Molecular Mass": "149.15",
        "Melting Point": "172-173 °C"
    }
}