{
    "cas_no": "69082-76-4",
    "key_name": "Hexaethylguanidinium chloride",
    "cn_name": null,
    "alternate_name": "Ethanaminium, <em>N</em>-[bis(diethylamino)methylene]-<em>N</em>-ethyl-, chloride (1:1);Ethanaminium, <em>N</em>-[bis(diethylamino)methylene]-<em>N</em>-ethyl-, chloride;Hexaethylguanidinium chloride",
    "duplicated_cas_no": "",
    "SMILES": "C(N(CC)CC)(N(CC)CC)=[N+](CC)CC.[Cl-]",
    "meta_data": {
        "InChI": "InChI=1S/C13H30N3.ClH/c1-7-14(8-2)13(15(9-3)10-4)16(11-5)12-6;/h7-12H2,1-6H3;1H/q+1;/p-1",
        "InChIKey": null,
        "Canonical SMILES": "[Cl-].C(N(CC)CC)(N(CC)CC)=[N+](CC)CC",
        "Molecular Formula": "C<sub>13</sub>H<sub>30</sub>N<sub>3</sub>.Cl",
        "Molecular Mass": "",
        "Melting Point": "134 °C"
    }
}