{
    "cas_no": "92-93-3",
    "key_name": "4-Nitro-1,1′-biphenyl",
    "cn_name": "4-硝基联苯;对硝基联苯;",
    "alternate_name": "1,1′-Biphenyl, 4-nitro-;Biphenyl, 4-nitro-;4-Nitro-1,1′-biphenyl;4-Nitrobiphenyl;Ba 2794;<em>p</em>-Nitrobiphenyl;<em>p</em>-Nitrodiphenyl;4-Nitrodiphenyl;1-Nitro-4-phenylbenzene;<em>p</em>-Phenylnitrobenzene;4-Phenylnitrobenzene;NSC 1324;4-(4-Nitrophenyl)benzene",
    "duplicated_cas_no": "",
    "SMILES": "N(=O)(=O)C1=CC=C(C=C1)C2=CC=CC=C2",
    "meta_data": {
        "InChI": "InChI=1S/C12H9NO2/c14-13(15)12-8-6-11(7-9-12)10-4-2-1-3-5-10/h1-9H",
        "InChIKey": null,
        "Canonical SMILES": "O=N(=O)C=1C=CC(=CC1)C=2C=CC=CC2",
        "Molecular Formula": "C<sub>12</sub>H<sub>9</sub>NO<sub>2</sub>",
        "Molecular Mass": "199.21",
        "Boiling Point": "340 °C @ Press: 760 Torr",
        "Melting Point": "114 °C"
    }
}