{
    "cas_no": "1451-83-8",
    "key_name": "2-Bromo-1-(3-methylphenyl)-1-propanone",
    "cn_name": null,
    "alternate_name": "1-Propanone, 2-bromo-1-(3-methylphenyl)-;Propiophenone, 2-bromo-3′-methyl-;2-Bromo-1-(3-methylphenyl)-1-propanone;2-Bromo-1-(3-methylphenyl)propan-1-one;2-Bromo-3′-methylpropiophenone;2-Bromo-1-(<em>m</em>-tolyl)propan-1-one",
    "duplicated_cas_no": "",
    "SMILES": "C(C(Br)C)(=O)C1=CC(C)=CC=C1",
    "meta_data": {
        "InChI": "InChI=1S/C10H11BrO/c1-7-4-3-5-9(6-7)10(12)8(2)11/h3-6,8H,1-2H3",
        "InChIKey": null,
        "Canonical SMILES": "O=C(C1=CC=CC(=C1)C)C(Br)C",
        "Molecular Formula": "C<sub>10</sub>H<sub>11</sub>BrO",
        "Molecular Mass": "227.10",
        "Boiling Point": "134-135 °C @ Press: 8 Torr"
    }
}