{
    "cas_no": "934240-31-0",
    "key_name": "2-Pyrrolidinecarboxamide, 5-[4-[(2-fluorophenyl)methoxy]phenyl]-, hydrochloride (1:1), (2<em>S</em>,5<em>R</em>)-",
    "cn_name": null,
    "alternate_name": "2-Pyrrolidinecarboxamide, 5-[4-[(2-fluorophenyl)methoxy]phenyl]-, hydrochloride (1:1), (2<em>S</em>,5<em>R</em>)-;Raxatrigine hydrochloride;GSK 1014802A;CNV 1014802A;Vixotrigine hydrochloride;(2S,5R)-5-(4-((2-Fluorobenzyl)oxy)phenyl)pyrrolidine-2-carboxamide hydrochloride",
    "duplicated_cas_no": "",
    "SMILES": "C(N)(=O)[C@H]1N[C@H](CC1)C2=CC=C(OCC3=C(F)C=CC=C3)C=C2.Cl",
    "meta_data": {
        "InChI": "InChI=1S/C18H19FN2O2.ClH/c19-15-4-2-1-3-13(15)11-23-14-7-5-12(6-8-14)16-9-10-17(21-16)18(20)22;/h1-8,16-17,21H,9-11H2,(H2,20,22);1H/t16-,17+;/m1./s1",
        "InChIKey": null,
        "Canonical SMILES": "Cl.O=C(N)C1NC(C2=CC=C(OCC=3C=CC=CC3F)C=C2)CC1",
        "Molecular Formula": "C<sub>18</sub>H<sub>19</sub>FN<sub>2</sub>O<sub>2</sub>.ClH",
        "Molecular Mass": "",
        "Melting Point": "233-234 °C"
    }
}