{
    "cas_no": "51731-17-0",
    "key_name": "(3<em>E</em>)-4-Methoxy-3-buten-2-one",
    "cn_name": null,
    "alternate_name": "3-Buten-2-one, 4-methoxy-, (3<em>E</em>)-;3-Buten-2-one, 4-methoxy-, (<em>E</em>)-;(3<em>E</em>)-4-Methoxy-3-buten-2-one;<em>trans</em>-4-Methoxy-3-buten-2-one;(<em>E</em>)-4-Methoxy-3-buten-2-one;(3<em>E</em>)-4-Methoxybut-3-en-2-one",
    "duplicated_cas_no": "328926-74-5",
    "SMILES": "C(\\C(C)=O)=C/OC",
    "meta_data": {
        "InChI": "InChI=1S/C5H8O2/c1-5(6)3-4-7-2/h3-4H,1-2H3/b4-3+",
        "InChIKey": null,
        "Canonical SMILES": "O=C(C=COC)C",
        "Molecular Formula": "C<sub>5</sub>H<sub>8</sub>O<sub>2</sub>",
        "Molecular Mass": "100.12",
        "Boiling Point": "52 °C @ Press: 2 Torr",
        "Melting Point": "0 °C"
    }
}