{
    "cas_no": "188813-07-2",
    "key_name": "Methyl 3-bromo-5-iodobenzoate",
    "cn_name": null,
    "alternate_name": "Benzoic acid, 3-bromo-5-iodo-, methyl ester;Methyl 3-bromo-5-iodobenzoate;3-Bromo-5-iodobenzoic acid methyl ester;Methyl 5-bromo-3-iodobenzoate",
    "duplicated_cas_no": "",
    "SMILES": "C(OC)(=O)C1=CC(Br)=CC(I)=C1",
    "meta_data": {
        "InChI": "InChI=1S/C8H6BrIO2/c1-12-8(11)5-2-6(9)4-7(10)3-5/h2-4H,1H3",
        "InChIKey": null,
        "Canonical SMILES": "O=C(OC)C=1C=C(Br)C=C(I)C1",
        "Molecular Formula": "C<sub>8</sub>H<sub>6</sub>BrIO<sub>2</sub>",
        "Molecular Mass": "340.94",
        "Melting Point": "62.0-63.0 °C"
    }
}