{
    "cas_no": "5794-88-7",
    "key_name": "2-Amino-5-bromobenzoic acid",
    "cn_name": "2-氨基-5-溴苯甲酸;",
    "alternate_name": "Benzoic acid, 2-amino-5-bromo-;Anthranilic acid, 5-bromo-;2-Amino-5-bromobenzoic acid;5-Bromo-2-aminobenzoic acid;5-Bromoanthranilic acid;NSC 97201;4-Bromo-2-carboxyaniline",
    "duplicated_cas_no": "",
    "SMILES": "C(O)(=O)C1=C(N)C=CC(Br)=C1",
    "meta_data": {
        "InChI": "InChI=1S/C7H6BrNO2/c8-4-1-2-6(9)5(3-4)7(10)11/h1-3H,9H2,(H,10,11)",
        "InChIKey": null,
        "Canonical SMILES": "O=C(O)C1=CC(Br)=CC=C1N",
        "Molecular Formula": "C<sub>7</sub>H<sub>6</sub>BrNO<sub>2</sub>",
        "Molecular Mass": "216.03",
        "Melting Point": "219.5 °C"
    }
}