{
    "cas_no": "1083-57-4",
    "key_name": "Bucetin",
    "cn_name": "N-(3-羟丁酰)-对氨基苯乙醚;",
    "alternate_name": "Butanamide, <em>N</em>-(4-ethoxyphenyl)-3-hydroxy-;<em>p</em>-Butyrophenetidide, 3-hydroxy-;<em>N</em>-(4-Ethoxyphenyl)-3-hydroxybutanamide;Bucetin;3-Hydroxy-<em>p</em>-butyrophenetidide;β-Hydroxybutyric acid <em>p</em>-phenetidide;<em>p</em>-Ethoxy-<em>N</em>-(β-hydroxybutyryl)aniline;Betadid;<em>N</em>-(β-Hydroxybutyryl)-<em>p</em>-phenetidine;(±)-Bucetin",
    "duplicated_cas_no": "156674-12-3",
    "SMILES": "N(C(CC(C)O)=O)C1=CC=C(OCC)C=C1",
    "meta_data": {
        "InChI": "InChI=1S/C12H17NO3/c1-3-16-11-6-4-10(5-7-11)13-12(15)8-9(2)14/h4-7,9,14H,3,8H2,1-2H3,(H,13,15)",
        "InChIKey": null,
        "Canonical SMILES": "O=C(NC1=CC=C(OCC)C=C1)CC(O)C",
        "Molecular Formula": "C<sub>12</sub>H<sub>17</sub>NO<sub>3</sub>",
        "Molecular Mass": "223.27",
        "Melting Point": "160 °C"
    }
}