{
    "cas_no": "1453-82-3",
    "key_name": "Isonicotinamide",
    "cn_name": "4-吡啶甲酰胺;异烟酰胺;",
    "alternate_name": "4-Pyridinecarboxamide;Isonicotinamide;Isonicotinic acid amide;γ-Pyridinecarboxamide;4-Carbamoylpyridine;4-(Aminocarbonyl)pyridine;Isoniacinamide;4-Amidopyridine;NSC 82353;Pyridine-4-carbamide;4-Pyridinecarboxylic acid amide",
    "duplicated_cas_no": "",
    "SMILES": "C(N)(=O)C=1C=CN=CC1",
    "meta_data": {
        "InChI": "InChI=1S/C6H6N2O/c7-6(9)5-1-3-8-4-2-5/h1-4H,(H2,7,9)",
        "InChIKey": null,
        "Canonical SMILES": "O=C(N)C=1C=CN=CC1",
        "Molecular Formula": "C<sub>6</sub>H<sub>6</sub>N<sub>2</sub>O",
        "Molecular Mass": "122.12",
        "Melting Point": "155-157 °C",
        "Density": "1.347 g/cm³ (crystal)"
    }
}