{
    "cas_no": "1730-91-2",
    "key_name": "(+)-2-Methylbutanoic acid",
    "cn_name": "(S)-(+)-2-甲基丁酸;",
    "alternate_name": "Butanoic acid, 2-methyl-, (2<em>S</em>)-;Butyric acid, 2-methyl-, (<em>S</em>)-;Butanoic acid, 2-methyl-, (<em>S</em>)-;Butyric acid, 2-methyl-, <em>l</em>-;(2<em>S</em>)-2-Methylbutanoic acid;(+)-2-Methylbutyric acid;<em>S</em>-(+)-2-Methylbutanoic acid;(<em>S</em>)-2-Methylbutanoic acid;(<em>S</em>)-(+)-2-Methylbutyric acid;(+)-(<em>S</em>)-2-Methylbutanoic acid;(<em>S</em>)-2-Methylbutyric acid;(+)-2-Methylbutanoic acid;(+)-α-Methylbutyric acid;(2S)-2-Methylbutyric acid;(2S)-2-Methylbutanoic acid",
    "duplicated_cas_no": "",
    "SMILES": "[C@@H](C(O)=O)(CC)C",
    "meta_data": {
        "InChI": "InChI=1S/C5H10O2/c1-3-4(2)5(6)7/h4H,3H2,1-2H3,(H,6,7)/t4-/m0/s1",
        "InChIKey": null,
        "Canonical SMILES": "O=C(O)C(C)CC",
        "Molecular Formula": "C<sub>5</sub>H<sub>10</sub>O<sub>2</sub>",
        "Molecular Mass": "102.13",
        "Boiling Point": "172-174 °C",
        "Density": "0.9332 g/cm³ @ Temp: 25 °C"
    }
}