{
    "cas_no": "519-32-4",
    "key_name": "Isocaffeine",
    "cn_name": "1,3,9-四甲基黄嘌呤;",
    "alternate_name": "1<em>H</em>-Purine-2,6-dione, 3,9-dihydro-1,3,9-trimethyl-;Isocaffeine;3,9-Dihydro-1,3,9-trimethyl-1<em>H</em>-purine-2,6-dione;1,3,9-Trimethylxanthine;9-Methyltheophylline;NSC 28332;1,3,9-Trimethyl-2,3,6,9-tetrahydro-1<em>H</em>-purine-2,6-dione;1,3,9-Trimethyl-3,9-dihydro-1<em>H</em>-purine-2,6-dione;1,3,9-Trimethylpurine-2,6-dione;1,3,9-Trimethyl-1<em>H</em>-purine-2,6(3<em>H</em>,9<em>H</em>)-dione",
    "duplicated_cas_no": "",
    "SMILES": "CN1C2=C(C(=O)N(C)C1=O)N=CN2C",
    "meta_data": {
        "InChI": "InChI=1S/C8H10N4O2/c1-10-4-9-5-6(10)11(2)8(14)12(3)7(5)13/h4H,1-3H3",
        "InChIKey": null,
        "Canonical SMILES": "O=C1C=2N=CN(C2N(C(=O)N1C)C)C",
        "Molecular Formula": "C<sub>8</sub>H<sub>10</sub>N<sub>4</sub>O<sub>2</sub>",
        "Molecular Mass": "194.19",
        "Melting Point": "285-287 °C (sublm)"
    }
}