{
    "cas_no": "57749-43-6",
    "key_name": "Equisetin",
    "cn_name": null,
    "alternate_name": "2,4-Pyrrolidinedione, 5-(hydroxymethyl)-3-[hydroxy[(1<em>S</em>,2<em>R</em>,4a<em>S</em>,6<em>R</em>,8a<em>R</em>)-1,2,4a,5,6,7,8,8a-octahydro-1,6-dimethyl-2-(1<em>E</em>)-1-propen-1-yl-1-naphthalenyl]methylene]-1-methyl-, (3<em>E</em>,5<em>S</em>)-;2,4-Pyrrolidinedione, 5-(hydroxymethyl)-3-[hydroxy[1,2,4a,5,6,7,8,8a-octahydro-1,6-dimethyl-2-(1-propenyl)-1-naphthalenyl]methylene]-1-methyl-, [1<em>S</em>-[1α[<em>E</em>(<em>R</em>*)],2α(<em>E</em>),4aβ,6α,8aα]]-;2,4-Pyrrolidinedione, 5-(hydroxymethyl)-3-[hydroxy[(1<em>S</em>,2<em>R</em>,4a<em>S</em>,6<em>R</em>,8a<em>R</em>)-1,2,4a,5,6,7,8,8a-octahydro-1,6-dimethyl-2-(1<em>E</em>)-1-propenyl-1-naphthalenyl]methylene]-1-methyl-, (3<em>E</em>,5<em>S</em>)-;(3<em>E</em>,5<em>S</em>)-5-(Hydroxymethyl)-3-[hydroxy[(1<em>S</em>,2<em>R</em>,4a<em>S</em>,6<em>R</em>,8a<em>R</em>)-1,2,4a,5,6,7,8,8a-octahydro-1,6-dimethyl-2-(1<em>E</em>)-1-propen-1-yl-1-naphthalenyl]methylene]-1-methyl-2,4-pyrrolidinedione;Equisetin;(-)-Equisetin",
    "duplicated_cas_no": "",
    "SMILES": "C(\\O)(/[C@@]1(C)[C@]2([C@](C=C[C@H]1/C=C/C)(C[C@H](C)CC2)[H])[H])=C/3\\C(=O)[C@H](CO)N(C)C3=O",
    "meta_data": {
        "InChI": "InChI=1S/C22H31NO4/c1-5-6-15-9-8-14-11-13(2)7-10-16(14)22(15,3)20(26)18-19(25)17(12-24)23(4)21(18)27/h5-6,8-9,13-17,24,26H,7,10-12H2,1-4H3/b6-5+,20-18+/t13-,14-,15-,16-,17+,22-/m1/s1",
        "InChIKey": null,
        "Canonical SMILES": "O=C1C(C(=O)C(N1C)CO)=C(O)C2(C)C(C=CC)C=CC3CC(C)CCC32",
        "Molecular Formula": "C<sub>22</sub>H<sub>31</sub>NO<sub>4</sub>",
        "Molecular Mass": "373.49",
        "Melting Point": "117-118 °C"
    }
}