{
    "cas_no": "89992-70-1",
    "key_name": "2-Cyanoethyl <em>N</em>,<em>N</em>-diisopropylchlorophosphoramidite",
    "cn_name": "2-氰乙基N,N-二异丙基氯代亚磷酰胺;",
    "alternate_name": "Phosphoramidochloridous acid, <em>N</em>,<em>N</em>-bis(1-methylethyl)-, 2-cyanoethyl ester;Phosphoramidochloridous acid, bis(1-methylethyl)-, 2-cyanoethyl ester;Chloro(β-cyanoethoxy)(diisopropylamino)phosphine;2-Cyanoethyl <em>N</em>,<em>N</em>-diisopropylchlorophosphoramidite;β-Cyanoethyl <em>N</em>,<em>N</em>-diisopropylamidochlorophosphite;Chloro(2-cyanoethoxy)(diisopropylamino)phosphine;Chloro(diisopropylamino)-β-cyanoethoxyphosphine;(2-Cyanoethoxy)(diisopropylamino)chlorophosphane;2-Cyanoethyl diisopropylchlorophosphoramidite;2-Cyanoethyl <em>N</em>,<em>N</em>-diisopropylchlorophosphoroamidite;(2-Cyanoethoxy)(<em>N</em>,<em>N</em>-diisopropylamino)chlorophosphine;(2-Cyanoethoxy)(Diisopropylamino)chlorophosphine;2-Cyanoethyl diisopropylphosphoramidochloridite;Amidite reagent;(2-<em>O</em>-Cyanoethyl)(<em>N</em>,<em>N</em>-diisopropylamino)chlorophosphine;2-Cyanoethyl <em>N</em>,<em>N</em>-diisopropylphosphoramidochloridite;3-[[(Chloro)(diisopropylamino)phosphanyl]oxy]propanenitrile;Cyanoethyl-<em>N</em>,<em>N</em>-diisopropylchlorophosphoramidite;<em>N</em>,<em>N</em>-Diisopropylamino-2-cyanoethoxychlorophosphine;3-((Chloro(diisopropylamino)phosphino)oxy)propanenitrile",
    "duplicated_cas_no": "124482-92-4;146026-68-8;179468-61-2;1148007-06-0;1305318-66-4",
    "SMILES": "N(P(OCCC#N)Cl)(C(C)C)C(C)C",
    "meta_data": {
        "InChI": "InChI=1S/C9H18ClN2OP/c1-8(2)12(9(3)4)14(10)13-7-5-6-11/h8-9H,5,7H2,1-4H3",
        "InChIKey": null,
        "Canonical SMILES": "N#CCCOP(Cl)N(C(C)C)C(C)C",
        "Molecular Formula": "C<sub>9</sub>H<sub>18</sub>ClN<sub>2</sub>OP",
        "Molecular Mass": "236.68",
        "Boiling Point": "86-90 °C @ Press: 0.05 Torr",
        "Density": "1.06 g/cm³"
    }
}