{
    "cas_no": "87-19-4",
    "key_name": "Isobutyl salicylate",
    "cn_name": "水杨酸异丁酯;邻羟基苯甲酸异丁酯;",
    "alternate_name": "Benzoic acid, 2-hydroxy-, 2-methylpropyl ester;Salicylic acid, isobutyl ester;Isobutyl <em>o</em>-hydroxybenzoate;Isobutyl salicylate;2-Isobutoxycarbonylphenol;NSC 62140;Isobutyl 2-hydroxybenzoate;2-Methylpropyl 2-hydroxybenzoate",
    "duplicated_cas_no": "",
    "SMILES": "C(OCC(C)C)(=O)C1=C(O)C=CC=C1",
    "meta_data": {
        "InChI": "InChI=1S/C11H14O3/c1-8(2)7-14-11(13)9-5-3-4-6-10(9)12/h3-6,8,12H,7H2,1-2H3",
        "InChIKey": null,
        "Canonical SMILES": "O=C(OCC(C)C)C=1C=CC=CC1O",
        "Molecular Formula": "C<sub>11</sub>H<sub>14</sub>O<sub>3</sub>",
        "Molecular Mass": "194.23",
        "Boiling Point": "261 °C",
        "Melting Point": "5.9 °C"
    }
}