{
    "cas_no": "19819-95-5",
    "key_name": "2-Chlorobenzeneethanol",
    "cn_name": "邻氯苯基乙醇;2-氯苯基乙醇;",
    "alternate_name": "Benzeneethanol, 2-chloro-;Phenethyl alcohol, <em>o</em>-chloro-;2-Chlorobenzeneethanol;2-(2-Chlorophenyl)ethanol;2-Chlorophenethyl alcohol;2-Chlorophenethanol;2-(2-Chlorophenyl)ethan-1-ol",
    "duplicated_cas_no": "",
    "SMILES": "C(CO)C1=C(Cl)C=CC=C1",
    "meta_data": {
        "InChI": "InChI=1S/C8H9ClO/c9-8-4-2-1-3-7(8)5-6-10/h1-4,10H,5-6H2",
        "InChIKey": null,
        "Canonical SMILES": "ClC=1C=CC=CC1CCO",
        "Molecular Formula": "C<sub>8</sub>H<sub>9</sub>ClO",
        "Molecular Mass": "156.61",
        "Boiling Point": "58-61 °C @ Press: 0.08 Torr"
    }
}