{
    "cas_no": "115-96-8",
    "key_name": "Tris(2-chloroethyl) phosphate",
    "cn_name": "磷酸三(2-氯乙基)酯;",
    "alternate_name": "Ethanol, 2-chloro-, 1,1′,1′′-phosphate;Ethanol, 2-chloro-, phosphate (3:1);Celluflex CEF;Tris(β-chloroethyl) phosphate;Tris(2-chloroethyl) phosphate;Tris(chloroethyl) phosphate;Tri(β-chloroethyl) phosphate;Tri(2-chloroethyl) phosphate;Tris(2-chloroethyl) orthophosphate;Niax Flame Retardant 3CF;3CF;Niax 3CF;Disflamoll TCA;Fyrol CEF;Genomoll P;TCEP;Tri(chloroethyl) phosphate;Fyrol CF;CLP;Amgard TCEP;CEF;NSC 3213;Phosphoric acid tris(2-chloroethyl) ester;Roflam E",
    "duplicated_cas_no": "21343-84-0",
    "SMILES": "P(OCCCl)(OCCCl)(OCCCl)=O",
    "meta_data": {
        "InChI": "InChI=1S/C6H12Cl3O4P/c7-1-4-11-14(10,12-5-2-8)13-6-3-9/h1-6H2",
        "InChIKey": null,
        "Canonical SMILES": "O=P(OCCCl)(OCCCl)OCCCl",
        "Molecular Formula": "C<sub>6</sub>H<sub>12</sub>Cl<sub>3</sub>O<sub>4</sub>P",
        "Molecular Mass": "285.49",
        "Boiling Point": "330 °C @ Press: 800 Torr",
        "Melting Point": "-55 °C",
        "Density": "1.425 g/cm³ @ Temp: 20 °C"
    }
}