{
    "cas_no": "51-18-3",
    "key_name": "Triethylenemelamine",
    "cn_name": null,
    "alternate_name": "1,3,5-Triazine, 2,4,6-tris(1-aziridinyl)-;<em>s</em>-Triazine, 2,4,6-tris(1-aziridinyl)-;2,4,6-Tris(1-aziridinyl)-1,3,5-triazine;ENT 25296;Persistol Ho 1/193;Tretamine;Triaziridinyl triazine;Triethylenemelamine;2,4,6-Triethylenimino-<em>s</em>-triazine;2,4,6-Tris(1-aziridinyl)-<em>s</em>-triazine;2,4,6-Tris(ethylenimino)-<em>s</em>-triazine;Tris(ethyleneimino)triazine;2,4,6-Tris(ethyleneimino)-<em>s</em>-triazine;Trisaziridinyltriazine;TEM;Tretamin;Triamelin;NSC 9706;Persistol Hoe 1/193;SK 1133;Tem-Simes;TEM (cytostatic);DRP 859025;M 9500;R 246;TAT;TET;Triethanomelamine;Persistol;2,4,6-Tri(aziridin-1-yl)-1,3,5-triazine;MeSH ID: D014265",
    "duplicated_cas_no": "39301-20-7",
    "SMILES": "C=1(N=C(N=C(N1)N2CC2)N3CC3)N4CC4",
    "meta_data": {
        "InChI": "InChI=1S/C9H12N6/c1-2-13(1)7-10-8(14-3-4-14)12-9(11-7)15-5-6-15/h1-6H2",
        "InChIKey": null,
        "Canonical SMILES": "N=1C(=NC(=NC1N2CC2)N3CC3)N4CC4",
        "Molecular Formula": "C<sub>9</sub>H<sub>12</sub>N<sub>6</sub>",
        "Molecular Mass": "204.23",
        "Melting Point": "39 °C (decomp)"
    }
}