{
    "cas_no": "78-67-1",
    "key_name": "Azobisisobutyronitrile",
    "cn_name": "偶氮二异丁腈;",
    "alternate_name": "Propanenitrile, 2,2′-(1,2-diazenediyl)bis[2-methyl-;Propionitrile, 2,2′-azobis[2-methyl-;Propanenitrile, 2,2′-azobis[2-methyl-;2,2′-(1,2-Diazenediyl)bis[2-methylpropanenitrile];Aceto AZIB;α,α′-Azobis(isobutyronitrile);2,2′-Azobis[isobutyronitrile];α,α′-Azodiisobutyronitrile;2,2′-Azodiisobutyronitrile;Azobisisobutyronitrile;Azodiisobutyronitrile;α,α′-Azodiisobutyric acid dinitrile;AIBN;AZDH;2,2′-Azobis(2-methylpropionitrile);Porofor N;Pianofor An;Vazo 64;2,2′-Dimethyl-2,2′-azodipropionitrile;ChKhZ 57;<em>N</em>,<em>N</em>′-Bis(2-cyano-2-propyl)diazene;Genitron AZDN-FF;2,2′-Azobis[2-methylpropanenitrile];Genitron AZDN;AZDN;ChKhE 57;<em>N</em>,<em>N</em>′-Azobis(isobutyronitrile);V 60 (polymerization catalyst);V 60;Porofor ChKhZ 57;Perkadox AIBN;KB-P 13;2,2′-Azobis(2-cyanopropane);KE-P 13;ME 800;NSC 1496;NSC 68042;ABN-R;Peroxan AZDN;α,α′-Azoisobutyronitrile;ABIN;Vazo 64G;Macklin A 800354;A 800353",
    "duplicated_cas_no": "95210-41-6;39322-24-2;58449-80-2;67035-64-7;76012-28-7;80748-81-8;161755-85-7",
    "SMILES": "C(N=NC(C#N)(C)C)(C#N)(C)C",
    "meta_data": {
        "InChI": "InChI=1S/C8H12N4/c1-7(2,5-9)11-12-8(3,4)6-10/h1-4H3",
        "InChIKey": null,
        "Canonical SMILES": "N#CC(N=NC(C#N)(C)C)(C)C",
        "Molecular Formula": "C<sub>8</sub>H<sub>12</sub>N<sub>4</sub>",
        "Molecular Mass": "164.21",
        "Boiling Point": "&gt;260 °C",
        "Melting Point": "105 °C",
        "Density": "0.8003 g/cm³ @ Temp: 20 °C"
    }
}