{
    "cas_no": "495-69-2",
    "key_name": "Hippuric acid",
    "cn_name": "N-苯甲酰基甘氨酸;马尿酸;苯甲酰氨基乙酸;苯甲酰甘氨酸;",
    "alternate_name": "Glycine, <em>N</em>-benzoyl-;Hippuric acid;<em>N</em>-Benzoylglycine;Benzoylglycine;Acetic acid, (benzoylamino)-;Benzamidoacetic acid;Phenylcarbonylaminoacetic acid;2-Benzamidoacetic acid;NSC 9982;2-(Benzoylamino)acetic acid;Benzoyl Glycocoll;<em>N</em>-(Phenylcarbonyl)glycine;2-(Phenylformamido)acetic acid",
    "duplicated_cas_no": "21251-67-2;66407-11-2;140480-84-8;892119-18-5;892119-19-6;1361329-72-7",
    "SMILES": "C(NCC(O)=O)(=O)C1=CC=CC=C1",
    "meta_data": {
        "InChI": "InChI=1S/C9H9NO3/c11-8(12)6-10-9(13)7-4-2-1-3-5-7/h1-5H,6H2,(H,10,13)(H,11,12)",
        "InChIKey": null,
        "Canonical SMILES": "O=C(O)CNC(=O)C=1C=CC=CC1",
        "Molecular Formula": "C<sub>9</sub>H<sub>9</sub>NO<sub>3</sub>",
        "Molecular Mass": "179.17",
        "Melting Point": "191.5 °C",
        "Density": "1.371 g/cm³"
    }
}