{
    "cas_no": "51-42-3",
    "key_name": "(-)-Epinephrine (+)-bitartrate",
    "cn_name": "酒石酸肾上腺素;L-3,4-二羟基-alpha-((甲氨基)甲基)苄醇D-酒石酸氢盐;",
    "alternate_name": "1,2-Benzenediol, 4-[(1<em>R</em>)-1-hydroxy-2-(methylamino)ethyl]-, (2<em>R</em>,3<em>R</em>)-2,3-dihydroxybutanedioate (1:1);Benzyl alcohol, 3,4-dihydroxy-α-[(methylamino)methyl]-, (-)-, (+)-tartrate (1:1) (salt);1,2-Benzenediol, 4-[1-hydroxy-2-(methylamino)ethyl]-, (<em>R</em>)-, [<em>R</em>-(<em>R</em>*,<em>R</em>*)]-2,3-dihydroxybutanedioate (1:1) (salt);Adrenaline, tartrate (1:1);1,2-Benzenediol, 4-[(1<em>R</em>)-1-hydroxy-2-(methylamino)ethyl]-, (2<em>R</em>,3<em>R</em>)-2,3-dihydroxybutanedioate (1:1) (salt);Tartaric acid, compd. with adrenaline;<em>l</em>-Adrenaline <em>d</em>-bitartrate;Epinephrine bitartrate;<em>l</em>-Adrenaline tartrate;<em>l</em>-Adrenaline bitartrate;Adrenaline bitartrate;Adrenaline hydrogen tartrate;(-)-Epinephrine bitartrate;Epinephrine <em>d</em>-bitartrate;Epinephrine tartrate;(-)-Adrenaline bitartrate;(-)-Adrenaline tartrate;<em>l</em>-Adrenaline hydrogen tartrate;Adrenalin bitartrate;(-)-Adrenaline acid tartrate;(-)-Adrenaline hydrogen tartrate;(-)-Epinephrine (+)-bitartrate;<em>l</em>-Epinephrine <em>d</em>-bitartrate;Epinephrine hydrogen tartrate;Adrenaline acid tartrate;<em>R</em>-(-)-Epinephrine bitartrate;<span class=\"text-smallcaps\">L</span>-Adrenaline bitartrate;<em>l</em>-Epinephrine bitartrate;Asmatane Mist;Bronitin Mist;Bronkaid Mist Suspension;Asthmahaler Epitrate;Medihaler-Epi;Primatene Mist Suspension;Epitrate;Adrenatab",
    "duplicated_cas_no": "3506-10-3;5502-52-3;8028-06-6;16536-89-3",
    "SMILES": "[C@@H]([C@H](C(O)=O)O)(C(O)=O)O.[C@@H](CNC)(O)C1=CC(O)=C(O)C=C1",
    "meta_data": {
        "InChI": "InChI=1S/C9H13NO3.C4H6O6/c1-10-5-9(13)6-2-3-7(11)8(12)4-6;5-1(3(7)8)2(6)4(9)10/h2-4,9-13H,5H2,1H3;1-2,5-6H,(H,7,8)(H,9,10)/t9-;1-,2-/m01/s1",
        "InChIKey": null,
        "Canonical SMILES": "O=C(O)C(O)C(O)C(=O)O.OC1=CC=C(C=C1O)C(O)CNC",
        "Molecular Formula": "C<sub>9</sub>H<sub>13</sub>NO<sub>3</sub>.C<sub>4</sub>H<sub>6</sub>O<sub>6</sub>",
        "Molecular Mass": "",
        "Melting Point": "147-154 °C"
    }
}