{
    "cas_no": "2224-10-4",
    "key_name": "Carboxytolbutamide",
    "cn_name": null,
    "alternate_name": "Benzoic acid, 4-[[[(butylamino)carbonyl]amino]sulfonyl]-;Benzoic acid, <em>p</em>-[(butylcarbamoyl)sulfamoyl]-;4-[[[(Butylamino)carbonyl]amino]sulfonyl]benzoic acid;Carboxytolbutamide;Carboxycarbutamide;Tolbutamide carboxylic acid;1-Butyl-3-(<em>p</em>-carboxyphenyl)sulfonylurea",
    "duplicated_cas_no": "",
    "SMILES": "S(NC(NCCCC)=O)(=O)(=O)C1=CC=C(C(O)=O)C=C1",
    "meta_data": {
        "InChI": "InChI=1S/C12H16N2O5S/c1-2-3-8-13-12(17)14-20(18,19)10-6-4-9(5-7-10)11(15)16/h4-7H,2-3,8H2,1H3,(H,15,16)(H2,13,14,17)",
        "InChIKey": null,
        "Canonical SMILES": "O=C(O)C1=CC=C(C=C1)S(=O)(=O)NC(=O)NCCCC",
        "Molecular Formula": "C<sub>12</sub>H<sub>16</sub>N<sub>2</sub>O<sub>5</sub>S",
        "Molecular Mass": "300.33",
        "Melting Point": "211 °C"
    }
}