{
    "cas_no": "35065-86-2",
    "key_name": "Phenol, 3-bromo-, 1-acetate",
    "cn_name": null,
    "alternate_name": "Phenol, 3-bromo-, 1-acetate;Phenol, 3-bromo-, acetate;Phenol, <em>m</em>-bromo-, acetate;<em>m</em>-Acetoxybromobenzene;<em>m</em>-Bromophenyl acetate;3-Bromophenyl acetate",
    "duplicated_cas_no": "",
    "SMILES": "O(C(C)=O)C1=CC(Br)=CC=C1",
    "meta_data": {
        "InChI": "InChI=1S/C8H7BrO2/c1-6(10)11-8-4-2-3-7(9)5-8/h2-5H,1H3",
        "InChIKey": null,
        "Canonical SMILES": "O=C(OC=1C=CC=C(Br)C1)C",
        "Molecular Formula": "C<sub>8</sub>H<sub>7</sub>BrO<sub>2</sub>",
        "Molecular Mass": "215.04",
        "Boiling Point": "149 °C @ Press: 40 Torr",
        "Density": "1.5478 g/cm³ @ Temp: 20 °C"
    }
}