{
    "cas_no": "486-73-7",
    "key_name": "1-Isoquinolinecarboxylic acid",
    "cn_name": "异喹啉羧酸;异喹诺林甲酸;",
    "alternate_name": "1-Isoquinolinecarboxylic acid;Isoquinaldic acid;1-Carboxyisoquinoline;NSC 218351",
    "duplicated_cas_no": "",
    "SMILES": "C(O)(=O)C=1C2=C(C=CN1)C=CC=C2",
    "meta_data": {
        "InChI": "InChI=1S/C10H7NO2/c12-10(13)9-8-4-2-1-3-7(8)5-6-11-9/h1-6H,(H,12,13)",
        "InChIKey": null,
        "Canonical SMILES": "O=C(O)C1=NC=CC=2C=CC=CC21",
        "Molecular Formula": "C<sub>10</sub>H<sub>7</sub>NO<sub>2</sub>",
        "Molecular Mass": "173.17",
        "Melting Point": "246-248 °C"
    }
}