{
    "cas_no": "2364-54-7",
    "key_name": "5-Methyl-2-(1-methylethyl)-4-nitrosophenol",
    "cn_name": "6-?硝瑞香[草]酚;6-?硝瑞香[草]酚;",
    "alternate_name": "Phenol, 5-methyl-2-(1-methylethyl)-4-nitroso-;Thymol, 6-nitroso-;5-Methyl-2-(1-methylethyl)-4-nitrosophenol;6-Nitrosothymol;<em>p</em>-Nitrosothymol;5-Methyl-2-isopropyl-4-nitrosophenol;2-Isopropyl-5-methyl-4-nitrosophenol;Nitrosothymol;4-Nitrosothymol;NSC 32670;NSC 406196;NSC 5054",
    "duplicated_cas_no": "29592-18-5;36898-81-4",
    "SMILES": "C(C)(C)C1=C(O)C=C(C)C(N=O)=C1",
    "meta_data": {
        "InChI": "InChI=1S/C10H13NO2/c1-6(2)8-5-9(11-13)7(3)4-10(8)12/h4-6,12H,1-3H3",
        "InChIKey": null,
        "Canonical SMILES": "O=NC1=CC(=C(O)C=C1C)C(C)C",
        "Molecular Formula": "C<sub>10</sub>H<sub>13</sub>NO<sub>2</sub>",
        "Molecular Mass": "179.22",
        "Melting Point": "175 °C"
    }
}