{
    "cas_no": "791-69-5",
    "key_name": "9,11-Dehydroestradiol",
    "cn_name": null,
    "alternate_name": "Estra-1,3,5(10),9(11)-tetraene-3,17-diol, (17β)-;Estra-1,3,5(10),9(11)-tetraene-3,17β-diol;(17β)-Estra-1,3,5(10),9(11)-tetraene-3,17-diol;Δ<sup>9,11</sup>-Estradiol;J 1213;ZYC 1;9,11-Dehydroestradiol",
    "duplicated_cas_no": "",
    "SMILES": "C[C@@]12[C@]([C@]3(C(C=4C(CC3)=CC(O)=CC4)=CC1)[H])(CC[C@@H]2O)[H]",
    "meta_data": {
        "InChI": "InChI=1S/C18H22O2/c1-18-9-8-14-13-5-3-12(19)10-11(13)2-4-15(14)16(18)6-7-17(18)20/h3,5,8,10,15-17,19-20H,2,4,6-7,9H2,1H3/t15-,16+,17+,18+/m1/s1",
        "InChIKey": null,
        "Canonical SMILES": "OC=1C=CC2=C(C1)CCC3C2=CCC4(C)C(O)CCC34",
        "Molecular Formula": "C<sub>18</sub>H<sub>22</sub>O<sub>2</sub>",
        "Molecular Mass": "270.37",
        "Melting Point": "174-175 °C"
    }
}