{
    "cas_no": "503-38-8",
    "key_name": "Diphosgene",
    "cn_name": "氯甲酸三氯甲酯;双光气;",
    "alternate_name": "Carbonochloridic acid, trichloromethyl ester;Formic acid, chloro-, trichloromethyl ester;Methanol, trichloro-, chloroformate;Diphosgene;Trichloromethyl chloroformate;Diphosgen;Trichloromethyl chlorocarbonate;Trichloromethyl carbonochloridate;Chloroformic acid trichloromethyl ester",
    "duplicated_cas_no": "",
    "SMILES": "O(C(Cl)(Cl)Cl)C(Cl)=O",
    "meta_data": {
        "InChI": "InChI=1S/C2Cl4O2/c3-1(7)8-2(4,5)6",
        "InChIKey": null,
        "Canonical SMILES": "O=C(Cl)OC(Cl)(Cl)Cl",
        "Molecular Formula": "C<sub>2</sub>Cl<sub>4</sub>O<sub>2</sub>",
        "Molecular Mass": "197.83",
        "Boiling Point": "128 °C @ Press: 760 Torr",
        "Melting Point": "-57 °C",
        "Density": "1.6525 g/cm³ @ Temp: 14 °C"
    }
}