{
    "cas_no": "109-42-2",
    "key_name": "Butyl 10-undecenoate",
    "cn_name": "10-十一烯酸丁酯;10-十一烯酸丁酯;",
    "alternate_name": "10-Undecenoic acid, butyl ester;Butyl 10-undecenoate;Butyl 10-undecylenate;NSC 2395;<em>n</em>-Butyl 10-undecenoate",
    "duplicated_cas_no": "",
    "SMILES": "C(C(OCCCC)=O)CCCCCCCC=C",
    "meta_data": {
        "InChI": "InChI=1S/C15H28O2/c1-3-5-7-8-9-10-11-12-13-15(16)17-14-6-4-2/h3H,1,4-14H2,2H3",
        "InChIKey": null,
        "Canonical SMILES": "O=C(OCCCC)CCCCCCCCC=C",
        "Molecular Formula": "C<sub>15</sub>H<sub>28</sub>O<sub>2</sub>",
        "Molecular Mass": "240.38",
        "Boiling Point": "116 °C"
    }
}