{
    "cas_no": "4168-73-4",
    "key_name": "Trihexylphosphine",
    "cn_name": "三己基膦;三己基膦;",
    "alternate_name": "Phosphine, trihexyl-;Trihexylphosphine;Tri-<em>n</em>-hexylphosphine;Cytop 360",
    "duplicated_cas_no": "",
    "SMILES": "P(CCCCCC)(CCCCCC)CCCCCC",
    "meta_data": {
        "InChI": "InChI=1S/C18H39P/c1-4-7-10-13-16-19(17-14-11-8-5-2)18-15-12-9-6-3/h4-18H2,1-3H3",
        "InChIKey": null,
        "Canonical SMILES": "P(CCCCCC)(CCCCCC)CCCCCC",
        "Molecular Formula": "C<sub>18</sub>H<sub>39</sub>P",
        "Molecular Mass": "286.48",
        "Boiling Point": "227 °C",
        "Melting Point": "20 °C"
    }
}