{
    "cas_no": "27012-22-2",
    "key_name": "5-Methyl-2-phenylpyridine",
    "cn_name": null,
    "alternate_name": "Pyridine, 5-methyl-2-phenyl-;3-Picoline, 6-phenyl-;5-Methyl-2-phenylpyridine;2-Phenyl-5-methylpyridine;6-Phenyl-3-picoline",
    "duplicated_cas_no": "",
    "SMILES": "CC1=CC=C(N=C1)C2=CC=CC=C2",
    "meta_data": {
        "InChI": "InChI=1S/C12H11N/c1-10-7-8-12(13-9-10)11-5-3-2-4-6-11/h2-9H,1H3",
        "InChIKey": null,
        "Canonical SMILES": "N=1C=C(C=CC1C=2C=CC=CC2)C",
        "Molecular Formula": "C<sub>12</sub>H<sub>11</sub>N",
        "Molecular Mass": "169.22",
        "Boiling Point": "241-245 °C @ Press: 2.0 Torr",
        "Melting Point": "280 °C (decomp)"
    }
}