{
    "cas_no": "5094-12-2",
    "key_name": "2-Methyl-2,3,4,5-tetrahydro-1<em>H</em>-pyrido[4,3-<em>b</em>]indole",
    "cn_name": null,
    "alternate_name": "1<em>H</em>-Pyrido[4,3-<em>b</em>]indole, 2,3,4,5-tetrahydro-2-methyl-;2<em>H</em>-Pyrido[4,3-<em>b</em>]indole, 1,3,4,5-tetrahydro-2-methyl-;2,3,4,5-Tetrahydro-2-methyl-1<em>H</em>-pyrido[4,3-<em>b</em>]indole;NSC 122300;2-Methyl-2,3,4,5-tetrahydro-1<em>H</em>-pyrido[4,3-<em>b</em>]indole;2-Methyl-1,3,4,5-tetrahydropyrido[4,3-<em>b</em>]indole;2-Methyl-1<em>H</em>,2<em>H</em>,3<em>H</em>,4<em>H</em>,5<em>H</em>-pyrido[4,3-<em>b</em>]indole",
    "duplicated_cas_no": "",
    "SMILES": "CN1CC=2C=3C(NC2CC1)=CC=CC3",
    "meta_data": {
        "InChI": "InChI=1S/C12H14N2/c1-14-7-6-12-10(8-14)9-4-2-3-5-11(9)13-12/h2-5,13H,6-8H2,1H3",
        "InChIKey": null,
        "Canonical SMILES": "C=1C=CC2=C(C1)NC3=C2CN(C)CC3",
        "Molecular Formula": "C<sub>12</sub>H<sub>14</sub>N<sub>2</sub>",
        "Molecular Mass": "186.25",
        "Melting Point": "169-170 °C"
    }
}