{
    "cas_no": "825-51-4",
    "key_name": "Decahydro-2-naphthalenol",
    "cn_name": "十氢化-2-萘酚;十氢-β-萘酚;",
    "alternate_name": "2-Naphthalenol, decahydro-;2-Naphthol, decahydro-;Decahydro-2-naphthalenol;2-Decalol;2-Hydroxydecalin;β-Decalol;Decahydro-2-naphthol;NSC 2332;NSC 71562;NSC 84186;Decahydronaphthalen-2-ol;Decahydro-β-naphthol;2-Hydroxydecahydronaphthalene",
    "duplicated_cas_no": "119-83-5",
    "SMILES": "OC1CC2C(CC1)CCCC2",
    "meta_data": {
        "InChI": "InChI=1S/C10H18O/c11-10-6-5-8-3-1-2-4-9(8)7-10/h8-11H,1-7H2",
        "InChIKey": null,
        "Canonical SMILES": "OC1CCC2CCCCC2C1",
        "Molecular Formula": "C<sub>10</sub>H<sub>18</sub>O",
        "Molecular Mass": "154.25",
        "Boiling Point": "242-244 °C",
        "Melting Point": "99-100 °C",
        "Density": "0.9889 g/cm³ @ Temp: 20 °C"
    }
}