{
    "cas_no": "623-03-0",
    "key_name": "4-Chlorobenzonitrile",
    "cn_name": "对氯苯甲腈;对氯苄腈;4-氯苄腈;",
    "alternate_name": "Benzonitrile, 4-chloro-;Benzonitrile, <em>p</em>-chloro-;4-Chlorobenzonitrile;<em>p</em>-Chlorobenzonitrile;<em>p</em>-Cyanochlorobenzene;<em>p</em>-Chlorocyanobenzene;1-Cyano-4-chlorobenzene;4-Chlorocyanobenzene;1-Chloro-4-cyanobenzene;4-Chlorobenzonitril;4-Cyanochlorobenzene;4-Cyanophenyl chloride;NSC 6111;4-Chlorophenyl cyanide;1-Chloro-4-benzonitrile;4-Chlorobenzenitrile",
    "duplicated_cas_no": "",
    "SMILES": "C(#N)C1=CC=C(Cl)C=C1",
    "meta_data": {
        "InChI": "InChI=1S/C7H4ClN/c8-7-3-1-6(5-9)2-4-7/h1-4H",
        "InChIKey": null,
        "Canonical SMILES": "N#CC1=CC=C(Cl)C=C1",
        "Molecular Formula": "C<sub>7</sub>H<sub>4</sub>ClN",
        "Molecular Mass": "137.57",
        "Boiling Point": "223 °C",
        "Melting Point": "95 °C"
    }
}