{
    "cas_no": "124-17-4",
    "key_name": "Diethylene glycol monobutyl ether acetate",
    "cn_name": "二乙二醇丁醚醋酸酯;丁基卡必醇乙酸酯;",
    "alternate_name": "Ethanol, 2-(2-butoxyethoxy)-, 1-acetate;Ethanol, 2-(2-butoxyethoxy)-, acetate;2-(2-Butoxyethoxy)ethyl acetate;Butyl carbitol acetate;Diethylene glycol monobutyl ether acetate;Diglycol monobutyl ether acetate;Diethylene glycol butyl ether acetate;Butyl diethylene glycol acetate;Butoxyethoxyethyl acetate;Hykleen 340;DE Acetate;2-(2-<em>n</em>-Butoxyethoxy)ethyl acetate;Butyl diglycol acetate;Butasol V;NSC 5175;NSC 6570;Diethylene glycol monobutyl acetate;2-(2-Butoxyethoxy)ethanol acetate;ABG;Diethylene glycol mono-<em>n</em>-butyl ether acetate;Diethylene glycol <em>n</em>-butyl ether acetate;CELTOL BDGAC;Butysenol 20 acetate",
    "duplicated_cas_no": "98100-70-0",
    "SMILES": "C(OCCOCCCC)COC(C)=O",
    "meta_data": {
        "InChI": "InChI=1S/C10H20O4/c1-3-4-5-12-6-7-13-8-9-14-10(2)11/h3-9H2,1-2H3",
        "InChIKey": null,
        "Canonical SMILES": "O=C(OCCOCCOCCCC)C",
        "Molecular Formula": "C<sub>10</sub>H<sub>20</sub>O<sub>4</sub>",
        "Molecular Mass": "204.26",
        "Boiling Point": "245 °C @ Press: 760 Torr",
        "Melting Point": "-32 °C",
        "Density": "0.985 g/cm³ @ Temp: 20 °C"
    }
}