{
    "cas_no": "14807-96-6",
    "key_name": "Talc (Mg<sub>3</sub>H<sub>2</sub>(SiO<sub>3</sub>)<sub>4</sub>)",
    "cn_name": "滑石粉;水合硅酸镁超细粉;一水硅酸镁(Talc);",
    "alternate_name": "Talc (Mg<sub>3</sub>H<sub>2</sub>(SiO<sub>3</sub>)<sub>4</sub>);Talc;Agalite;Asbestine;Desertalc 57;Mistron Vapor;Talcum;Mistron RCS;Mistron STAR;Supreme;Supreme Dense;Fibrene C 400;Steawhite;Mistron 2SC;Mistron Super Frost;Mistron Frost P;Emtal 596;MP 45-26;MP 25-38;MP 12-50;MP 40-27;CP 38-33;Nytal 400;Emtal 599;Mussolinite;Microtalc IT Extra;Emtal 549;Nytal 200;Micron White 5000S;Emtal 500;Polytal 4641;Polytal 4725;Talcron CP 44-31;Beaver White 200;Crystalite CRS 6002;Talcan PK-P;Micro Ace K 1;LMR 100;CP 10-40;IT Extra;FW-XO;EX-II;Mistron 139;Micron White 5000A;Finntalc P 40;B 13 (mineral);B 9;B 13;PK-C (talc);PK-N;MST;Micron White 5000P;TY 80;Micro Ace L 1;P 3;Finntalc M 05;Finntalc M 15;Finntalc PF;Finntalc C 10;D 35 (mineral);D 35;LMS 100;MS (mineral);MS;LMS 200;LMP 100;MMR (mineral);MMR;PK-P (mineral);MS 1 (mineral);MS 1;LMP;H 1-5000PJ;EMS 100;CRS 6002;MP 100;Mistron Cyprubond;Micropflex MP 1250;Vertal;Micron White 5000B;Mistron Vapor RP 6;Mistron Vapor 3P;Mistron Vapor RP 6D;Luganec 1445;JA 13R;Micro Ace P 4;Hi-Filler 12;Crown P 2;S Talc;Beaver White 325;Mistron 600;Mistron 444;High Toron;JA 46R;SW 5;SW-E;10MO-OS;5000S;Microtalc AT 1;Cubic Master;Micron White 5000;TT Talc;Mistron Mist;Mistron Monomix;CTA 1 (talc);LPM 100;Talcan PK;Low Talc;Crown Talc Z;Crown PP;Circron MP 9825;Talcron MP 45-26;Talc FFR;LMR (mineral);SP 40;LMR;CHC 13P;Vantalc 6H;Translink 5000A;High Toron A;Micro Ace P 2;Crown Talc W 83;Mistron 850JS;Micro Ace P 3;Hi-Filler 17;Mistron 850FC;Magsil 2628;FF-R;Supra Talc;GT 40 (mineral);LMS 300;GT 40;RF-B;SP 50A;SP 40 (mineral);CT 8 (talc);Himicron C;15MOO;20MOOS;ET-K 5;Hi-Filler;Talcan PKN;KLM 100;KLM 200;KLM 300;Microtalc MP 10-52;K 1;PKP 80;PKNN;US 150S;CT 8 (mineral);MT 7;PS;PK-P;Talc SW;SWA (mineral);SWA;Mistron CB;Mistron Ultramix;Cimflex 606;Steamic OOS;MS-P;ABT 2500;TechFil C 117;MS-P (talc);Microtalc AT Extra;NK 64;Super Talc SG 95;Micron White CHC 13P03;MST (mineral);Jetfil 700C;Jetfil 350;Micron White;CHC 13S10;Hi-Filler 7;Enstalc;Talcan PK-C;ND Talc;Fit Powder CT 35;T 45B;LU 1445;Soapstone P;HS-T 0.5;HS-T 0.8;S 2 (talc);S 2;PS (mineral);PH Talc;NK;FVS;NK (filler);Talmag P 50;Westmin 8E;Westmin 20E;Westmin 30E;SWB;FK 300S;NK 48;JA 68RC;Crown Talc P 2;US 150;Shuuen;JR 37;LMK 100;P 4;Luzenac 10MOOS;ET 5;ET 5 (talc);PKD;PKD (talc);Micel-Tone;Siesu Talc;Tc 100;Finntalc M 03;Tc 100 (mineral);Ultra Talc 609;MS-A;MS-A (mineral);Polytalc 262;Vertal 710;MT 7 (mineral);850JS;Polybloc;PolyTalc AG 609;PS-IC;Hi-Filler 5000PJ;MP 100 (talc);JM 156;LMP (mineral);Talcan Hayashi;SC 15;PNA 400;TM 30;RF;X 50;Magsil Osmanthus;SC 15 (talc);TM 30 (talc);RF (talc);X 50 (talc);Micron White 5000SA;5000SA;Polyfil MT 5000;LSM 300;B 9 (talc);Westmin D 30E;Westmin D 50E;Westmin D 100;LMR 400;XP 961;SP 44;SP 38;Cimpact 600;Steasilk 5AE;Steasilk 5FL;Micron White 500S;JR 47;DN 2;RX 3441;NTX-A 174;DN 2 (filler);JET 46R;MT 6;MT 6 (talc);Himicron HE 5;AT 164;Microtalc MP 12-50;H 880;BT 2202;Stellar 400;Stellar 500;K 5;Talc MS;SK-A;SK-A (talc);Vertal 92;Talcron MP 10-52;Talcron MP 44-26;Nytal 300;Secupur Nucleating;Optibloc;Nonseru;A 7;A 7 (talc);Vertal 360;Microtuff AG 609;Microtuff AG 609D;Microtuff AG 121;Microtuff AG 121D;Microtuff AG 445;KT 300;Yellowstone 140;R 2C100;Goepfers green;EC 75 (talc);Victorylight SK-C;Victorylight SK-BB;SP-GBSS;5000PJ;Soapstone A;TN 1;TN 1 (talc);HE 5;SWG;PKP 53S;LVT 600;NKK-F;F 2;Crown Talc DR;F 2 (filler);SG 2000;LMR 200;Victorylight HR-B;Hi-Filler 10;KP;PKP 02;LM 200;KP (talc);Microtalc MP 15-38;JA 68R;Himicron G;Himicron HE 5C;TM 2;DR Talc;TM 2 (talc);Prever M 8;Micron White 406;YT 1000;Vantalc F 2003;Luzenac 1445;Prever M 10;Jetfil 575C;Crown Talc P;LG 445;Cimpact 699;Nicron 403;Talc 21;HK 9;Talc P 3;HK 9 (talc);T-PA 25;PKP 53;VLBB;TPM-V;MT 2;MT 2 (talc);SP-GB;LMP 90;P 6;Vertal 1000;Kunimine GTA;Kunimine TA;Finntalc M 05SL;Finntalc M 20SL;Finntalc M 30SL;A 3;Crown Talc JSCI;Suprafino A;Talc PK;PK;A 3 (talc);PK (mineral);Victorylight R;Talkum AT 1;CS 2 (talc);MB 96-67;Talc 399;Naintsch A 60;SW;P 2;SW (talc);P 2 (talc);BST;LMS 400;Talcan PK-NN;CHC 13P03;JA 24A;Cimpact 710;Cimpact 610;Nicron 674;BST (talc);MSKY;MS-Z;Crown Talc SC;5000A;PS-Hi Cera;PolyTalc AG 445;Micron A;SG 1000;HiTalc HTP Ultra 5C;Victorylight TK-RC;Finntalc M 40;WCD 2610;SK-BB;T-M 70Y;Microtuff AG 101;AG 101;SG 1000 (talc);Mistron G 7C;SK 2;Super Talc SG 2000;SK 2 (talc);P Talc;JET-S FFR;J 68R;R 00058;MX 70TSN;HTP-Ultra 10C;Micro Ace P 132;Talc K 1;Cylatherm;Enstalc 56;T 20A;Mistron Vapor Talc;Proman MR 90;SK-C 2 (talc);Talc MS-Z;Soapstone C;Micron White 5000R;ST 100;PK 50;ST 100 (talc);PK 50 (mineral);AG 445;X 31;X 31 (talc);Jetfil 575;TK Talc;JR 46;Crown Talc PP;SP Talc;UPN-HS-T;Westmin 30;Micro Ace LG;Cimpact 610C;Hi-Filler K 5;Pigmolight MSA;Victorylight SK 2BB;Micro Ace L;Naintsch A 3;Westmin 8;FVM;Hitalc Ultra 5C;Talcan PK-S;Micro Ace S 3;HJ Talc;Talc 300;Finntalc M 10E;Finntalc F 10;Finntalc M 15E;Finntalc F 15;Finntalc F 40;Westmin 680;Luzenac 20M00S0;JM 209 (talc);JM 209;MP 10-52;PKP 81;BST 100;Nicron 604;Micro Ace SG 2000;SP 40N;SP 40N (talc);Victorylight SG-A;Talc L 1;SMT;Micro Ace P 6;Talc MV;SG 100;SG 200;SG 100 (talc);SG 200 talc;Microtuff 121;SG 95;Talc 3A;Mistron RP 6;RP 6;Talc M;Hipro Compacted Ultra 5C;Nicron 302;HTP Ultra 5C;FU 51;Talc S;SK-CS 30;PK-NX;Luzenac 20MO;P 8;M 30;JA 80R;HS-T 0.5T;Talc ND;SW-D;SW-D (talc);Talkon M 20;Talkon M 30;KCM 6300;Cimpact CB 7;Hi-Filler 5000JP;T 1;T 1 (mineral);Hipro HTP 1C;Vertal UA 40;Talc TT;Mistron Monomix E;Luzenac 0;TPM 1;NK-PUC (talc);Microcontrol II;Talc C;NYA;Hi-Lac SS;Hi-Filler 5000PJT7;PA 25;Talcron MP 12-25;TEP BP-AB 1;MW-HS-T;JM 210;Hi-Filler 15;A 1 (talc);A 1;Heliocote X;XE 71;M 15;T 2 (talc);FRR;FRR (mineral);Nytal 100;Talc D;Naintsch A 20;A 20;Talcron MP 138;JA 24R;T 2;TTK Talc;SMT 4K;SMT 3K;SMT 2K;SMT 1K;Talc MB;Talc H;PMK 27;HP 325;Talc 83;HP 325 (talc);Antimyst;MP 0609;PK-N (talc);L 1;Luzenac OOS;TP 25F8;Talc Kup;LMS 350;C 3 (talc);DS 34;Talc DS 34;Clearbloc 80;Fit Powder FK 400;Mistron 353;TP-A 25F;Rhapsody 3R;KK 500S;MT 13;Hi-Filler 11;LMP 350;PK-S;MP-A 25;Hi-Filler 5000P;Fabi HTP Ultra 5C;HM 05;A 10XC (talc);SM-M 30;Silverline 002;Hydrogloss LV;RX 4620-3;MTB 12;MTB 11;KSTW;Talc SS;Talc 9102;Jetfine 3CA;Micron White 5000SMA;UF 520;Ultra Talc 3000;Finntalc PO 5;PKP 63;Micro Ace;Stealene B;Nicron 353;Talcron MP 30-36;Talc 20M2;Luzenac 20M2;Talkon MM 20;Mistron Vapor R;HWST;Mistron Vapor R 10C;Mistrofil P 403;P 403;HTP 05;Mistron Vapor RC 10;Mistron 400C;Cimpact 550;V 3837;Jetfine 700C;HTP-Ultra 5;OK 4707-70N;Vertal MB;Talc 9107;Mistron;HAR 3420;Luzenac America Silverline 403;Silverline 403;Talcan PK-Z;Tancal PK-Z;Mital 15-90;Mital 15-96;HTP Ultra 1C;Luzenac A 3C;K 1B;HST 05;LMP 200;Steatite 2050;Micro Ace C 3;Talc NTH;Talc SG;NTL;FM 77;ST 200;Luzenac 2;T-GM 10;PKP 76;Microcontrol;Talc 1500;Talc 3500;IN;UG;KH;HiTalc Premium HTP Ultra 5C;UG (mineral);KH (silicate);SK 9900;Steamic S;SW 5 (talc);NK-KCL (talc);MW 5000S;Yellowstone 325;C 31 (talc);Micro Ace P 30;Viatalc 30;Jetfil 7C;Talc MG;NTP 2;BT 2004;Finntalc P 05;RKP 80;Tital 10;HTP 1C;Ultra 5C;Stellar EX;High Filler 12;MO 60;GTB 40;UPN-HS-T 0.5;TZ 1;TZ 1 (talc);MW-UPN-TT 08;MW-UPN-TT;XD 25;JM 300;Oxo MM;NNR;J 800TD40;Jetfil 150;NanoTalc;Talc 9103;Talc 9110;Talcan Powder PK-Z;Tital 15;FlexTalc 610;TA 1250;RB 1250;Luzenac 10M2;SK-C (talc);Micron 406;JA 46A;SP 75;Hi-Con Talc C 12;D 600;Microlight;Nicron 503;D 600 (talc);NK-H 80;Hi-Filler 100-95;SW-AC (talc);NK-PCW;HAR-W 92;Luzenac A 3;Hydragloss E;Mistron 002;FlexTalc 610D;Microtuff 9103;WF 90-20-99Q/LGH;ZZ 80-45-96GB;MS-K;Mital 03-99KT;Mital 03-97KT;Mital 05-96KT;Mital 03-96KT;Mital 03-99N6;Talc CS;MK 48;Cimpact CB 710;Nytal 7700;Luzenac OXO;FS 2500;M 10-52;MT 10 Super;MT-GShM;TP 325A;SK 2BB;JR 63;PKP 53ZS;Talek ST 30;Magsil Diamond Talc;Talcan Powder PK-S;MP-A 25C;D 800;D 1250H;D 2000H;D 3000H;SM-P;Alpha CT 15P;Mistron Monomix G;Z-Talc 1090;LPM 90;SMA 01;IRK 085;Talc 1250;Talc 2000;Talc B;Cercron MP 50-60;Talcan Powder PK-C;Omyacarb HP 320;HT 7050;HT 7000;Mistron HAR;LMS 200F;SP 9900;NK 49;RT 2;CC 7209 (talc);PR 8218;HP 320;Hi-Filler 15DS;JF 700C;MS 600;MS 600 (talc);Hi-Filler KA 1;Polar 9603;Micro Touch;Jetfine 1A;NTX 174A;MS-ZC (talc);A 50;KR 8500;Rcnap 400;A 50 (talc);Mistron R 10;Nano Ace D 1000;HTP 30;Steamic 00SF;Mistron Vapor RE;KT 300 (mineral);Micro Ace SG 200;Finntalc P 60SL;Finnatlc M 05N;Cotalc 2000;Cimpact 550C;Cimpact 710C;B 10;Crown Talc R;BH 1250C;IT 3X;TP 1250;DH 600A;B 10 (talc);Micro Ace SG 95;Micro Ace P 8;KR 9500;Micro Ace P 3RC5;Finntalc 30;Finntalc 15;Luzenac A 20;Flex 405D;Nytal 3300;KCM 2000;Mistron Vapor Talc A;Mistron Vapor A;Steamic OOS-DG;RF-B (talc);DG 5000;Nano Ace D 600;D 1000;Luzenac 2S;EB 10-90;Micro Ace FG 15;3000N1;A 60H;FG 15;AH 3000N1;AH 3000N9;AH 1250;Talc MA;T Talc;KC 2000;KC 6300;FC 8 (talc);FC CG (talc);SF 310;FK 500S;P 10Ctd;GTSW 103;GSS 5;HMO 5C;Micro Ace C 31;T 1250;T 3000;T 5000;HS 1250;Jetfill 700C;Neotalc UNI;Neotalc UN 105;T 38A;Fit Powder FK 300S;Hi-Filler 12C;Jetfine 0.7CA;Talc KP;HAR-T 84;SG-A;BT 9103;RB 510;Nano Ace D 800;Talkon T 20;Cantal 400;Finntalc M 05N;Talmag GM 20;Vantalc 2500;Jetfine 3CC;Nicron 554;Luzenac HAR-T 84;Plustalc H 15;LMRA 200;RB 510H;Finntalc M 03SQ;Nano Ace K 1;Jetfil 700;TMK 28;CMS 777A;CHT 5 (talc);CHT 5 Talc;DH 1250;Imperial 500;Crown Talc KD-O;Crown Talc AB;Plustalc D 30SQ;Plustalc D 30AW;JSH 777;D 3;GG 60;JSH 60;Plustalc D 40;D 3 (talc);Luzenac A 20C;Talkon MM 30;Mital 10-96;Mital 10-99;Mital 15-97;Mital 15-99;Mital 10-97;CMS 777;Talkum IT Extra;Plustalc N 625;YF 1250;MSG;AH 3000N;AH 1250N;AH 1250N1;AG 609;S 1418;Finntalc M 05SLC;Jetfine 8CF;Simgon M;EX 15;Talcan Powder PK;SK 6500P;Talc 45SW;HTP 1;FC 1 (talc);Steamic T 1CA;Nano Ace KS 873N1000;ST 2000;PG 600;SX-F;Crown Talc SC-S;PG 600 (talc);RGE 250;LT 102;A 27678;A 90;TA 800;HK-A;MG 400;SWA-A Talc;A 90 (talc);LD 5000T;3S;NAP 400;WF 90-10-95;HTP 4;Talcron MP 12-50;LMS 100F;XN 12A;Talcum IT Extra;TP-A 20;GAT 40;PS Talc;HMP 460-1;D 600F;RG 85;CMS 888;Mistron 85;ETA 400;Talc SG 95;Steamic T 1CF;Stellar 510;Finntalc M 05SL-AW;PC 25RC;Luzenac A 7C;A 10;SJ 10;GM 10;Neotalc UNI 05;CMS 666;A 10 (talc);GM 10 (talc);GHL 10;ABR 24;ST Talc;MM 1250;OX 999C1;YK-T;SD 600A;PS 85H;FlexTalc 310;LMS 110;Plustalc H 05;MP 480;HTP 2;Crown Talc 250M;China talc HP 325;MS 1250;TP 308A;TP 1500;TP 1500 (talc);SW-H;BT 2207;K 3;LS 402;T 63A;KCM 7500;MS 2000;MS 2000 (talc);HTP 05L;FinnTalc M 30SQ;LH 667;TM 1250;Crown Talc JS;Nano Ace SG 2000;M 15AW;Mistron 950JSA;CTH 125H;HT 4HP;KC 3000;SDC-F 7;AH 51210;P 5-05F;TP 8533;HF-CT 2;TH 108;HM 2;Luzenac E 15;Tital 4591;AH 51105;HTP 1L;BHS 818;RS 888A;BT 2203;GM 209;Kobo AJM;CT 250 (talc);Mistron Ultramix Talc;Vapor Mistron R 10E;Crown Talc 3S;Finntalc M 10;Finntalc M 30;GH 7;KCNA 400B;YK-C (talc);NS 90;HS 218;MH 10000;LS 408;POS 75;D 400 (talc);R 10;C 12 (talc);BHS 818A;MAX 6060FTN;MAX 0707N;DS 34N;SP 42;Migal 03-99;Micro Ace MS-KY;BZ 1250;Naintsch A 3C;Plustalc H 15AW;GD 25;Talc 800;CZ 6800;PDSJ 150;Jetfine T 1CA;Microtalc M 05F;TL 3;TL 3 (talc);LC 88-2;Hi-Filler 16;Talcum GM 404;Steamic OOSD;GM 404;HAR-T 77;Stellar 410;UPN-HS-T 0.8;Jetfine 1H;TL 75-45-98GB;868A;BH 1500C;Talc RA;BHS 934071;UPN-HD-T 0.8;MS 412;KB 2 (talc);TY 80 (talc);SW-A Talc;Nicron 402;Nicron 665;JLH 5106;KHP 400B;MS 2500 (talc);MS 2500;Silverline 202;Microtalc IT Extra AW;SR 15-4000;Luzenac 00;GSL 50;GH 50;AH 1250N6;WF-D 6.5;VE-TT;KC 5000;Vertal 77;Talc TY;Imperial 250USP;CMS 555;LH 669;KC 400;Talc LCW;Mistron 75-6A;KCM 6300C;PDSJ 325;YHT 4000;TPM 1823;SK 6500;FH 104;HM 4;ML 110;TL 5;TL 5 (talc);Jetfil P 500;Hi-Filler P 7PK;TYT 335;W 2800;808A;Talc SF 15;SZ 20;NTT 05;PAOG 10;Talc 156;Talc 1N;Mistron R 10C;AX 001;HV 4;ST 6019;Persitalc 20SW;Mistrocell;JF 500;Cimtuff 9102;KCNAP 400;Micron G-SS 10CTD0;Luzenac HAR-W 92;N 80;MT 1080;MT 96;TLH 902;KS 1250;Pharma M;FH 108;S 800;H 30;LP 30 (mineral);Steamic T 1DF;LP 30 (pigment);BHS 503;H 30 (talc);MG 115;RL 119;S 800 (talc);Rose K;KB 10;Finntalc C 15B;SA 400;KB 10 (talc);Mital 01-96/99;Jetfine T 1C;NS 1250;MV Talc;BHX 505;Micro Ace MS-K;818AS;A 325;ISM-A 325;FH 105;FG 105;Cimtuff 9110;Fintalc M 40;Talc MG 400;Talc A 325;Silverline 303;Luzenac 10M0;T-Light 83;GAHC (talc);Nano Ace D 603;KHP 125B;WF 2500;TP 3000;HTP Ultra 5L;MS 425;T 7;T 7 (talc);HYT 04C;FH 106;AHM 80;MJ-SL 1250;HYT 05;GH 202TS;HTP 03;Xinxin D 1250;D 1250;MY 4000;JM 209P;Luzenac HAR-WR 92;Magsil D 2500;KFP 125B;SG 137U;Asada Talc JA 46R;N 70;Finntalc P 60;RL 217;Amtal C 95;Talc S 1;UNI 05;Microtuff AGD 111;Steamic T 1;BHS 1250;SD 700;86;TYT 777A;PHSH;MW 5000SMA;RT 25RC;TS 399;TY 86;SD 9689;Crown Talc K 20;Plustalc H 10;TYT 8875B;Talcron MP 15-38;Microtuff AG 191;Micron White HS-T;HS-T;AY 305;S 1250;1250A;Finntalc M 20SL AW;FK 300S (N);Talc IT Extra;Finntalc C 15;MJ-HT 12;RS 515;SP 3000;STF 400;ISNP 2000;Talc extra 10;AHCP 250;Performa Flex D;GY 915;MSK 1B;BHS 8760;MJ-TCHS;Talc LMR;M 2000;L 00S;L 8218;M 90;M-HAR;E 5936;Talmag PR 2;KB 13-1;Parteck LUB Talc;Naao 1055;TTA 27;Naao 1048;M 90 (talc);M 2000 (talc);HT 6HP;KC 5000C;MS 800;Guangfu MS 800;T 400;Guangfu T 400;T 590;BHS 808A;L 1C;KB 15-1;LHX 888;K 1250;ML 511T6;ECO 9900;Luzenac ST 30;KHP 25B;TYT 666;RA 1250A;Micro Ace MSZ-C;YW 1250;Hengchang Z 11;Z 11;BH 10;YF 750;BT 2213;Jetfil 290;MJ-HS 2000;ML 115;AT 1;HTP Ultra C;HVT Extra;LP 30;HSK 238A;1886L;H 7000W;HTP 2L;HTP 3;Minstron 353;WF 90-10-98Q/TZB;BHTM-C 2080;HS 638;W 4000;BHS 718A;JLH 60H;Cereplast ECA 023;MAT 725TP;BHS 1250A;Finntalc M 50;BHS 1250C;AH 50215;HS 318;LH 3000;HYST 1259M;CP 250;ML 112;Talc 5000S;FlexTalc 815D;J 209P;ST 6016;KCP 04;CP 250 (talc);HM 2L;BHTMH 1080;BHTMSE-W 2585;Zhuxin 800B;ILF-BAH;Luzenac 00C;Imerys 00SF;Talc 80;BT 2210;ABT 2510;SD 8042;RS 415;Luzenac H 1;NLC 92RC;Granic 1081;GHL 7;DMS 98;TA 400;BHS 5.5-94;JM 500;HYST 1250T;HAR 3G77;PY 555;TYT 717;Mistrocell M 90;DS 63D;PY 555 (talc);TY 05D;KB 10-2;1250H;3000H;325H;M 05SCL (talc);MP 15-38;SA 20;Fuji FS 404;FS 404;Talc 6300;Talc 3CA;Koch 3000C;RG 319;Nanotalc D 600;Finntalc M 03C;Mital 10-80;777A;SWK;HAR 3G77L;JTL-F 30;YF 818;FlexTalc 815;268A;Xufeng 955A;SG 200N15;Talkron CL 40;955A;YH 25B;KHP 125;800B;CMS 444;CP 250L;MT-GSM;HST 0.8;Belcatalc;Magsil D 200;Magsil 2628C;EX-MF 20;SK 98;GY 950;YF 1011;AHCO 250;T 300;HS 768;T 300 (talc);Mital MT-KShS;Mital MT-EGS;BHS 2000;W 85P;HTP 02L;KM 10TC;Nano Ace D 1000F;FG 15F;TX 1447MBN;HAR Talc;Micro Ace P 3RC51;Crys-Talc 7C;TYT 899;FQ 5C (talc);TYT 3000A;Talc 3000;A 7C (talc);Microtuff 325F;GH 3;AH 300N1;Jetfine 0.7C;Steaplus HAR-T 77;PT 560;MP 1250;JH 103T;TYT 999;Talcum EL 10;Finntalc M 15AW;KHP 255;EL 10;KHP 400;HY 8006;Cimbar 610D;RGD 125;HAR 3G84L;AH 51210L;CM 3 (talc);ST 30;T 109494;TYY 777A;SQ 1250;Finntalc M 03N;AH 51205L;Luzenac A 10HC;ABT 1000;SP 1250;3CA (talc);Talkron Pure 40;DN 37;KFJM 20;SD 400;Cimtuff 9103D;HAR H 92;Nicron 674C;Nicron 674DT;Vertal 97;EFC 70365;FH104A;E 553b;HAR-T 64;AH 3000N8;PAOG 2;AH 250CL;KHP 25;HTP Ultra 05L;YHT 50C (talc);SJ 42;HT 4 (talc);SD 8078;HT 4;Clay 5528;V 90 (talc);V 90;Talkum HB-M 20B;PX 9600;FQ 88A;CT 76 (talc);H 1250;SD 900 (talc);JetFil V 390;JetFil V 625C;HY-TA 10;HS 738;AH 5000 (talc);AH 5000;AIHAI-IMI;HYT 55;JLD 5050;Mistrocell L 88;PT 20;Talkum OOC;610LD;DH 600B;HYZ 200;Mistron 20G;HTP 05W;AH 3000N2;AH 1000N1;AH 8000N1;AH 500N1;AH 10000N1;MWUPN-TT-H;Vertal 15;HY-TA 12;JM 620P;HY-TA 08;HT 15 (mineral);TD 50 (mineral);HT 15;TD 50;SL 5000;PL 932S;HT 15 (talc);TD 50 (talc);TMC 300 (talc);TMC 300;SD 333;TY 80-13C;TY 9013C;T 01 (talc);T 01;Micro Ace P-S;HS 338;HS 538;T 90 (talc);T 90;SDC 9489;AH 1250Y;WT 5000 (talc);WT 5000;RF 119;TPB 1000;GY 900;SH 6085;GT 10 (talc);GT 10;R 7 (talc);TY 9013A;R 7;CP 5000;Crown Talc PK-MMB;HS 918;SL 1250;RA 510H;HSA 666;THC 7P (talc);Minstron HAR;PT 559;KCKA 400;KCP 2000;KAP 400;Finntalc C 15B2;PAOG 3;RH 215;Talcron CL 40;818F1;MR 400A;LAmax C 05;JLH 60;HN 30;HN 8;Microtalc FC 8;HYT 05C;TR 400;ZL 6;SKCE 26P;AH 51205;TY 88-20C;T 6 (mineral);T 6;H 10 (talc);H 10;Mital 05-99;XFM 669;BHS 503B;FG 19F;Plustalc H 05C;AH 10 (mineral);AH 10;Micro Ace P 3RC;WF 5000;MeSH ID: D013627;HY 9246;MW 500S;WX 2 (mineral);WX 2;GY 925;Talcor HM 04;DH 400;LNX 222B;FT 96;Ptalc;BT 5012;Sericron 2M;FC 2 (talc);FC 2;Crown Talc ID;TYT 777;WF 90-13-97QLGH;Superiore M 10;Talc MS-KY;Talc KA 9;KLTC 100INT;TY 90-7C;TY 90-8A;SH 200 (talc);SH 200;TYT 8005;YM-T 160;MuTalc MB 27;Micro Ace MS-P;WT 3000 (mineral);WT 3000;Micro Ace MS;MV 603;Cimtuff 9130;TA 3000 (talc);TA 3000;HDR-T 88;GF 888;TC 400 (talc);TC 400;QD 679;SD 9488;Omya A 450;Plustalc H 30;Ppexp 069;KCM 2000C;AH 1250N8;JH 251F;HY-TA 06;BHS 305;Nicron S 503;Nano Ace FG 15;Micron White TT-H;Finntalc C 10B;PR 07 (talc);PR 07;TM 212;BH 818T;BHS 150;Luzenac HAR 92;PAOG-R;CHX 05L;CHXultra L;Luzenac A 60H;NLC 92RC09;CHX Ultra L",
    "duplicated_cas_no": "8043-56-9;11119-41-8;12420-12-1;37232-12-5;99638-63-8;110540-41-5;184973-42-0;1170673-66-1;1308319-75-6;1385633-70-4;2403462-24-6;2640599-87-5",
    "SMILES": "[Si](O)(O)=O.[Mg]",
    "meta_data": {
        "InChI": "InChI=1S/Mg.H2O3Si/c;1-4(2)3/h;1-2H",
        "InChIKey": null,
        "Canonical SMILES": "[Mg].O=[Si](O)O",
        "Molecular Formula": "H<sub>2</sub>O<sub>3</sub>Si.<sup>3</sup>/<sub>4</sub>Mg",
        "Molecular Mass": "",
        "Melting Point": "900-1000 °C",
        "Density": "2.7-2.8 g/cm³"
    }
}