{
    "cas_no": "79-15-2",
    "key_name": "<em>N</em>-Bromoacetamide",
    "cn_name": "N-溴乙酰胺;",
    "alternate_name": "Acetamide, <em>N</em>-bromo-;<em>N</em>-Bromoacetamide;Acetobromamide;NBA",
    "duplicated_cas_no": "",
    "SMILES": "C(NBr)(C)=O",
    "meta_data": {
        "InChI": "InChI=1S/C2H4BrNO/c1-2(5)4-3/h1H3,(H,4,5)",
        "InChIKey": null,
        "Canonical SMILES": "O=C(NBr)C",
        "Molecular Formula": "C<sub>2</sub>H<sub>4</sub>BrNO",
        "Molecular Mass": "137.96",
        "Boiling Point": "127-130 °C @ Press: 16 Torr",
        "Melting Point": "103.5 °C"
    }
}