{
    "cas_no": "219580-11-7",
    "key_name": "<em>N</em>-[2-[[4-(Diethylamino)butyl]amino]-6-(3,5-dimethoxyphenyl)pyrido[2,3-<em>d</em>]pyrimidin-7-yl]-<em>N</em>′-(1,1-dimethylethyl)urea",
    "cn_name": null,
    "alternate_name": "Urea, <em>N</em>-[2-[[4-(diethylamino)butyl]amino]-6-(3,5-dimethoxyphenyl)pyrido[2,3-<em>d</em>]pyrimidin-7-yl]-<em>N</em>′-(1,1-dimethylethyl)-;<em>N</em>-[2-[[4-(Diethylamino)butyl]amino]-6-(3,5-dimethoxyphenyl)pyrido[2,3-<em>d</em>]pyrimidin-7-yl]-<em>N</em>′-(1,1-dimethylethyl)urea;PD 173074;1-<em>tert</em>-Butyl-3-[2-[4-(diethylamino)butylamino]-6-(3,5-dimethoxyphenyl)pyrido[2,3-<em>d</em>]pyrimidin-7-yl]urea",
    "duplicated_cas_no": "",
    "SMILES": "N(C(NC(C)(C)C)=O)C=1C(=CC2=C(N1)N=C(NCCCCN(CC)CC)N=C2)C3=CC(OC)=CC(OC)=C3",
    "meta_data": {
        "InChI": "InChI=1S/C28H41N7O3/c1-8-35(9-2)13-11-10-12-29-26-30-18-20-16-23(19-14-21(37-6)17-22(15-19)38-7)25(31-24(20)32-26)33-27(36)34-28(3,4)5/h14-18H,8-13H2,1-7H3,(H3,29,30,31,32,33,34,36)",
        "InChIKey": null,
        "Canonical SMILES": "O=C(NC=1N=C2N=C(N=CC2=CC1C3=CC(OC)=CC(OC)=C3)NCCCCN(CC)CC)NC(C)(C)C",
        "Molecular Formula": "C<sub>28</sub>H<sub>41</sub>N<sub>7</sub>O<sub>3</sub>",
        "Molecular Mass": "523.67",
        "Melting Point": "82-86 °C"
    }
}