{
    "cas_no": "2062-98-8",
    "key_name": "2,3,3,3-Tetrafluoro-2-(1,1,2,2,3,3,3-heptafluoropropoxy)propanoyl fluoride",
    "cn_name": "全氟(2-甲基-3-氧杂己基)氟化物;",
    "alternate_name": "Propanoyl fluoride, 2,3,3,3-tetrafluoro-2-(1,1,2,2,3,3,3-heptafluoropropoxy)-;Propionyl fluoride, tetrafluoro-2-(heptafluoropropoxy)-;Propanoyl fluoride, 2,3,3,3-tetrafluoro-2-(heptafluoropropoxy)-;Propionyl fluoride, 2,3,3,3-tetrafluoro-2-(heptafluoropropoxy)-;2,3,3,3-Tetrafluoro-2-(1,1,2,2,3,3,3-heptafluoropropoxy)propanoyl fluoride;2-(Heptafluoropropoxy)tetrafluoropropionyl fluoride;2,3,3,3-Tetrafluoro-2-(heptafluoropropoxy)propanoyl fluoride;Hexafluoropropene oxide dimer;Perfluoro-2-propoxypropanoyl fluoride;Perfluoro-2-(trifluoromethyl)-3-oxahexanoyl fluoride;Perfluoro(2-methyl-3-oxahexanoyl) fluoride;2-(Perfluoropropoxy)perfluoropropanoyl fluoride;2-Heptafluoropropoxy-2,3,3,3-tetrafluoropropanoyl fluoride;2-(Heptafluoropropoxy)-2,3,3,3-tetrafluoropropionyl fluoride;Perfluoro-2-methyl-3-oxa-hexanacid fluoride;Perfluoro-2-methyl-3-oxa-hexanoic acid fluoride;2,3,3,3-Tetrafluoro-2-(perfluoropropoxy)propanoyl fluoride;2-(Perfluoropropyloxy)perfluoropropanoyl fluoride",
    "duplicated_cas_no": "75566-60-8",
    "SMILES": "C(OC(C(C(F)(F)F)(F)F)(F)F)(C(F)(F)F)(C(F)=O)F",
    "meta_data": {
        "InChI": "InChI=1S/C6F12O2/c7-1(19)2(8,4(11,12)13)20-6(17,18)3(9,10)5(14,15)16",
        "InChIKey": null,
        "Canonical SMILES": "O=C(F)C(F)(OC(F)(F)C(F)(F)C(F)(F)F)C(F)(F)F",
        "Molecular Formula": "C<sub>6</sub>F<sub>12</sub>O<sub>2</sub>",
        "Molecular Mass": "332.04",
        "Boiling Point": "55-57 °C"
    }
}