{
    "cas_no": "26586-55-0",
    "key_name": "1-[4-(4-Methyl-1-piperazinyl)phenyl]ethanone",
    "cn_name": "4-(4-甲基哌嗪基)苯乙酮;",
    "alternate_name": "Ethanone, 1-[4-(4-methyl-1-piperazinyl)phenyl]-;1-[4-(4-Methyl-1-piperazinyl)phenyl]ethanone;4-(4-Methyl-1-piperazinyl)acetophenone;NSC 102840;1-[4-(4-Methylpiperazino)phenyl]-1-ethanone;1-[4-(4-Methylpiperazin-1-yl)phenyl]ethanone;1-(4-(4-Methylpiperazin-1-yl)phenyl)ethan-1-one",
    "duplicated_cas_no": "36924-61-5",
    "SMILES": "C(C)(=O)C1=CC=C(C=C1)N2CCN(C)CC2",
    "meta_data": {
        "InChI": "InChI=1S/C13H18N2O/c1-11(16)12-3-5-13(6-4-12)15-9-7-14(2)8-10-15/h3-6H,7-10H2,1-2H3",
        "InChIKey": null,
        "Canonical SMILES": "O=C(C1=CC=C(C=C1)N2CCN(C)CC2)C",
        "Molecular Formula": "C<sub>13</sub>H<sub>18</sub>N<sub>2</sub>O",
        "Molecular Mass": "218.29",
        "Melting Point": "81-84 °C"
    }
}