{
    "cas_no": "506-50-3",
    "key_name": "Triacontanoic acid",
    "cn_name": "蜂花酸;",
    "alternate_name": "Triacontanoic acid;Melissic acid;<em>n</em>-Triacontanoic acid;Myricic acid;NSC 53832",
    "duplicated_cas_no": "",
    "SMILES": "C(CCCCCCCCCCCCCCCCCCC)CCCCCCCCCC(O)=O",
    "meta_data": {
        "InChI": "InChI=1S/C30H60O2/c1-2-3-4-5-6-7-8-9-10-11-12-13-14-15-16-17-18-19-20-21-22-23-24-25-26-27-28-29-30(31)32/h2-29H2,1H3,(H,31,32)",
        "InChIKey": null,
        "Canonical SMILES": "O=C(O)CCCCCCCCCCCCCCCCCCCCCCCCCCCCC",
        "Molecular Formula": "C<sub>30</sub>H<sub>60</sub>O<sub>2</sub>",
        "Molecular Mass": "452.80",
        "Melting Point": "93.6 °C"
    }
}