{
    "cas_no": "769-92-6",
    "key_name": "4-<em>tert</em>-Butylaniline",
    "cn_name": "4-叔丁基苯胺;对叔丁基苯胺;",
    "alternate_name": "Benzenamine, 4-(1,1-dimethylethyl)-;Aniline, <em>p</em>-<em>tert</em>-butyl-;4-(1,1-Dimethylethyl)benzenamine;4-<em>tert</em>-Butylaniline;<em>p</em>-<em>tert</em>-Butylaniline;4-Amino-<em>tert</em>-butylbenzene;4-<em>tert</em>-Butylbenzenamine;4-<em>tert</em>-Butylphenylamine;4-(1,1-Dimethylethyl)aniline;<em>p</em>-(<em>tert</em>-Butyl)phenylamine;4-<em>t</em>-Butylphenylamine",
    "duplicated_cas_no": "",
    "SMILES": "C(C)(C)(C)C1=CC=C(N)C=C1",
    "meta_data": {
        "InChI": "InChI=1S/C10H15N/c1-10(2,3)8-4-6-9(11)7-5-8/h4-7H,11H2,1-3H3",
        "InChIKey": null,
        "Canonical SMILES": "NC1=CC=C(C=C1)C(C)(C)C",
        "Molecular Formula": "C<sub>10</sub>H<sub>15</sub>N",
        "Molecular Mass": "149.23",
        "Boiling Point": "241 °C",
        "Melting Point": "17 °C",
        "Density": "0.9414 g/cm³ @ Temp: 25 °C"
    }
}