{
    "cas_no": "60706-63-0",
    "key_name": "2,3,5,6-Tetramethylbenzenesulfonyl chloride",
    "cn_name": "2,3,5,6-四甲基苯磺酰氯;",
    "alternate_name": "Benzenesulfonyl chloride, 2,3,5,6-tetramethyl-;2,3,5,6-Tetramethylbenzenesulfonyl chloride;2,3,5,6-Tetramethylbenzene-1-sulfonyl chloride",
    "duplicated_cas_no": "",
    "SMILES": "S(Cl)(=O)(=O)C1=C(C)C(C)=CC(C)=C1C",
    "meta_data": {
        "InChI": "InChI=1S/C10H13ClO2S/c1-6-5-7(2)9(4)10(8(6)3)14(11,12)13/h5H,1-4H3",
        "InChIKey": null,
        "Canonical SMILES": "O=S(=O)(Cl)C=1C(=C(C=C(C1C)C)C)C",
        "Molecular Formula": "C<sub>10</sub>H<sub>13</sub>ClO<sub>2</sub>S",
        "Molecular Mass": "232.73",
        "Melting Point": "98-99 °C"
    }
}