{
    "cas_no": "173101-54-7",
    "key_name": "(2a<em>R</em>,4<em>S</em>,4a<em>S</em>,6<em>R</em>,9<em>S</em>,11<em>S</em>,12<em>S</em>,12a<em>R</em>,12b<em>S</em>)-6,12b-Bis(acetyloxy)-2a,3,4,4a,5,6,9,10,11,12,12a,12b-dodecahydro-4,11-dihydroxy-4a,8,13,13-tetramethyl-12-[[(2<em>E</em>)-2-methyl-1-oxo-2-buten-1-yl]oxy]-5-oxo-7,11-methano-1<em>H</em>-cyclodeca[3,4]benz[1,2-<em>b</em>]oxet-9-yl (α<em>R</em>,β<em>S</em>)-β-(benzoylamino)-α-hydroxybenzenepropanoate",
    "cn_name": null,
    "alternate_name": "Benzenepropanoic acid, β-(benzoylamino)-α-hydroxy-, (2a<em>R</em>,4<em>S</em>,4a<em>S</em>,6<em>R</em>,9<em>S</em>,11<em>S</em>,12<em>S</em>,12a<em>R</em>,12b<em>S</em>)-6,12b-bis(acetyloxy)-2a,3,4,4a,5,6,9,10,11,12,12a,12b-dodecahydro-4,11-dihydroxy-4a,8,13,13-tetramethyl-12-[[(2<em>E</em>)-2-methyl-1-oxo-2-buten-1-yl]oxy]-5-oxo-7,11-methano-1<em>H</em>-cyclodeca[3,4]benz[1,2-<em>b</em>]oxet-9-yl ester, (α<em>R</em>,β<em>S</em>)-;Benzenepropanoic acid, β-(benzoylamino)-α-hydroxy-, 6,12b-bis(acetyloxy)-2a,3,4,4a,5,6,9,10,11,12,12a,12b-dodecahydro-4,11-dihydroxy-4a,8,13,13-tetramethyl-12-[(2-methyl-1-oxo-2-butenyl)oxy]-5-oxo-7,11-methano-1<em>H</em>-cyclodeca[3,4]benz[1,2-<em>b</em>]oxet-9-yl ester, [2a<em>R</em>-[2aα,4β,4aβ,6β,9α(α<em>R</em>*,β<em>S</em>*),11α,12α(<em>E</em>),12aα,12bα]]-;Benzenepropanoic acid, β-(benzoylamino)-α-hydroxy-, (2a<em>R</em>,4<em>S</em>,4a<em>S</em>,6<em>R</em>,9<em>S</em>,11<em>S</em>,12<em>S</em>,12a<em>R</em>,12b<em>S</em>)-6,12b-bis(acetyloxy)-2a,3,4,4a,5,6,9,10,11,12,12a,12b-dodecahydro-4,11-dihydroxy-4a,8,13,13-tetramethyl-12-[[(2<em>E</em>)-2-methyl-1-oxo-2-butenyl]oxy]-5-oxo-7,11-methano-1<em>H</em>-cyclodeca[3,4]benz[1,2-<em>b</em>]oxet-9-yl ester, (α<em>R</em>,β<em>S</em>)-;(2a<em>R</em>,4<em>S</em>,4a<em>S</em>,6<em>R</em>,9<em>S</em>,11<em>S</em>,12<em>S</em>,12a<em>R</em>,12b<em>S</em>)-6,12b-Bis(acetyloxy)-2a,3,4,4a,5,6,9,10,11,12,12a,12b-dodecahydro-4,11-dihydroxy-4a,8,13,13-tetramethyl-12-[[(2<em>E</em>)-2-methyl-1-oxo-2-buten-1-yl]oxy]-5-oxo-7,11-methano-1<em>H</em>-cyclodeca[3,4]benz[1,2-<em>b</em>]oxet-9-yl (α<em>R</em>,β<em>S</em>)-β-(benzoylamino)-α-hydroxybenzenepropanoate;Isocephalomannine;2-Debenzoyl-2-tigloylpaclitaxel",
    "duplicated_cas_no": "",
    "SMILES": "O(C(C)=O)[C@]12[C@]3([C@H](OC(/C(=C/C)/C)=O)[C@@]4(O)C(C)(C)C([C@@H](OC(C)=O)C(=O)[C@]3(C)[C@@H](O)C[C@]1(OC2)[H])=C(C)[C@@H](OC([C@@H]([C@@H](NC(=O)C5=CC=CC=C5)C6=CC=CC=C6)O)=O)C4)[H]",
    "meta_data": {
        "InChI": "InChI=1S/C45H53NO14/c1-9-23(2)40(53)59-38-36-43(8,30(49)20-31-44(36,22-56-31)60-26(5)48)37(51)35(57-25(4)47)32-24(3)29(21-45(38,55)42(32,6)7)58-41(54)34(50)33(27-16-12-10-13-17-27)46-39(52)28-18-14-11-15-19-28/h9-19,29-31,33-36,38,49-50,55H,20-22H2,1-8H3,(H,46,52)/b23-9+/t29-,30-,31+,33-,34+,35+,36-,38-,43+,44-,45+/m0/s1",
        "InChIKey": null,
        "Canonical SMILES": "O=C(OC1C2C3(OC(=O)C)COC3CC(O)C2(C(=O)C(OC(=O)C)C4=C(C)C(OC(=O)C(O)C(NC(=O)C=5C=CC=CC5)C=6C=CC=CC6)CC1(O)C4(C)C)C)C(=CC)C",
        "Molecular Formula": "C<sub>45</sub>H<sub>53</sub>NO<sub>14</sub>",
        "Molecular Mass": "831.90",
        "Melting Point": "232 °C (decomp)"
    }
}