{
    "cas_no": "623-98-3",
    "key_name": "Sulfurous acid, dipropyl ester",
    "cn_name": "亚硫酸二正丙酯;亚硫酸二丙酯;二丙基硫醚;",
    "alternate_name": "Sulfurous acid, dipropyl ester;Propyl sulfite;Dipropyl sulfite",
    "duplicated_cas_no": "",
    "SMILES": "S(OCCC)(OCCC)=O",
    "meta_data": {
        "InChI": "InChI=1S/C6H14O3S/c1-3-5-8-10(7)9-6-4-2/h3-6H2,1-2H3",
        "InChIKey": null,
        "Canonical SMILES": "O=S(OCCC)OCCC",
        "Molecular Formula": "C<sub>6</sub>H<sub>14</sub>O<sub>3</sub>S",
        "Molecular Mass": "166.24",
        "Boiling Point": "74 °C @ Press: 12 Torr"
    }
}