{
    "cas_no": "2050-51-3",
    "key_name": "3-(Dibutylamino)-1-propanol",
    "cn_name": null,
    "alternate_name": "1-Propanol, 3-(dibutylamino)-;3-(Dibutylamino)-1-propanol;3-(Dibutylamino)propyl alcohol;3-Di-<em>n</em>-butylamino-1-propanol;<em>N</em>,<em>N</em>-Dibutylpropanolamine;NSC 6332",
    "duplicated_cas_no": "",
    "SMILES": "N(CCCC)(CCCC)CCCO",
    "meta_data": {
        "InChI": "InChI=1S/C11H25NO/c1-3-5-8-12(9-6-4-2)10-7-11-13/h13H,3-11H2,1-2H3",
        "InChIKey": null,
        "Canonical SMILES": "OCCCN(CCCC)CCCC",
        "Molecular Formula": "C<sub>11</sub>H<sub>25</sub>NO",
        "Molecular Mass": "187.32",
        "Boiling Point": "247-248 °C @ Press: 749 Torr",
        "Density": "0.8663 g/cm³ @ Temp: 20 °C"
    }
}