{
    "cas_no": "330942-05-7",
    "key_name": "Betrixaban",
    "cn_name": null,
    "alternate_name": "Benzamide, <em>N</em>-(5-chloro-2-pyridinyl)-2-[[4-[(dimethylamino)iminomethyl]benzoyl]amino]-5-methoxy-;<em>N</em>-(5-Chloro-2-pyridinyl)-2-[[4-[(dimethylamino)iminomethyl]benzoyl]amino]-5-methoxybenzamide;Betrixaban;PRT 054021;Bevyxxa",
    "duplicated_cas_no": "",
    "SMILES": "N(C(=O)C1=CC=C(C(N(C)C)=N)C=C1)C2=C(C(NC3=CC=C(Cl)C=N3)=O)C=C(OC)C=C2",
    "meta_data": {
        "InChI": "InChI=1S/C23H22ClN5O3/c1-29(2)21(25)14-4-6-15(7-5-14)22(30)27-19-10-9-17(32-3)12-18(19)23(31)28-20-11-8-16(24)13-26-20/h4-13,25H,1-3H3,(H,27,30)(H,26,28,31)",
        "InChIKey": null,
        "Canonical SMILES": "O=C(NC1=CC=C(OC)C=C1C(=O)NC2=NC=C(Cl)C=C2)C3=CC=C(C=C3)C(=N)N(C)C",
        "Molecular Formula": "C<sub>23</sub>H<sub>22</sub>ClN<sub>5</sub>O<sub>3</sub>",
        "Molecular Mass": "451.91",
        "Melting Point": "214.5-215.5 °C"
    }
}