{
    "cas_no": "102-28-3",
    "key_name": "<em>N</em>-(3-Aminophenyl)acetamide",
    "cn_name": "N-乙酰基-1,3-苯二胺;间氨基乙酰苯胺;",
    "alternate_name": "Acetamide, <em>N</em>-(3-aminophenyl)-;Acetanilide, 3′-amino-;<em>N</em>-(3-Aminophenyl)acetamide;3′-Aminoacetanilide;1-Amino-3-(acetylamino)benzene;3-(Acetylamino)aniline;<em>m</em>-(Acetylamino)aniline;<em>m</em>-Aminoacetanilide;3-Amino-<em>N</em>-acetylaniline;<em>N</em>-Acetyl-<em>m</em>-phenylenediamine;<em>m</em>-Acetamidoaniline;<em>N</em>-Acetyl-1,3-diaminobenzene;3-Acetamidoaniline;1-Acetylamino-3-aminobenzene;NSC 165576;3-Acetylaminobenzeneamine;3-(Methylcarbonylamino)aniline",
    "duplicated_cas_no": "",
    "SMILES": "N(C(C)=O)C1=CC(N)=CC=C1",
    "meta_data": {
        "InChI": "InChI=1S/C8H10N2O/c1-6(11)10-8-4-2-3-7(9)5-8/h2-5H,9H2,1H3,(H,10,11)",
        "InChIKey": null,
        "Canonical SMILES": "O=C(NC=1C=CC=C(N)C1)C",
        "Molecular Formula": "C<sub>8</sub>H<sub>10</sub>N<sub>2</sub>O",
        "Molecular Mass": "150.18",
        "Melting Point": "70 °C"
    }
}