{
    "cas_no": "120-43-4",
    "key_name": "Ethyl 1-piperazinecarboxylate",
    "cn_name": "N-哌嗪甲酸乙酯;哌嗪-1-甲酸乙酯;N-乙氧羰基哌嗪;",
    "alternate_name": "1-Piperazinecarboxylic acid, ethyl ester;<em>N</em>-(Ethoxycarbonyl)piperazine;1-Carbethoxypiperazine;1-(Ethoxycarbonyl)piperazine;Ethyl 1-piperazinecarboxylate;<em>N</em>-Carbethoxypiperazine;Ethyl <em>N</em>-piperazinecarboxylate;1-Carboethoxypiperazine;<em>N</em>-Carboethoxypiperazine;4-Carbethoxypiperazine;NSC 21060;NSC 22134;NSC 280827;N-Ethoxylcarbonylpiperazine;N-Ethoxycarbonylpiperazine;Ethoxycarbonylpiperazine",
    "duplicated_cas_no": "",
    "SMILES": "C(OCC)(=O)N1CCNCC1",
    "meta_data": {
        "InChI": "InChI=1S/C7H14N2O2/c1-2-11-7(10)9-5-3-8-4-6-9/h8H,2-6H2,1H3",
        "InChIKey": null,
        "Canonical SMILES": "O=C(OCC)N1CCNCC1",
        "Molecular Formula": "C<sub>7</sub>H<sub>14</sub>N<sub>2</sub>O<sub>2</sub>",
        "Molecular Mass": "158.20",
        "Boiling Point": "237 °C",
        "Melting Point": "163-164 °C"
    }
}