{
    "cas_no": "3414-63-9",
    "key_name": "1,2-Benzenediol, 4-(2-amino-1-hydroxyethyl)-, (2<em>R</em>,3<em>R</em>)-2,3-dihydroxybutanedioate (1:1)",
    "cn_name": "酒石酸去甲肾上腺素;",
    "alternate_name": "1,2-Benzenediol, 4-(2-amino-1-hydroxyethyl)-, (2<em>R</em>,3<em>R</em>)-2,3-dihydroxybutanedioate (1:1);Benzyl alcohol, α-(aminomethyl)-3,4-dihydroxy-, (±)-, tartrate (1:1) (salt);1,2-Benzenediol, 4-(2-amino-1-hydroxyethyl)-, [<em>R</em>-(<em>R</em>*,<em>R</em>*)]-2,3-dihydroxybutanedioate (1:1) (salt);1,2-Benzenediol, 4-(2-amino-1-hydroxyethyl)-, (2<em>R</em>,3<em>R</em>)-2,3-dihydroxybutanedioate (1:1) (salt);<em>dl</em>-Noradrenaline bitartrate;<em>dl</em>-Norepinephrine bitartrate;(±)-Norepinephrine bitartrate;(±)-Noradrenaline bitartrate;<span class=\"text-smallcaps\">DL</smallcap>-Noradrenaline <smallcap>L</span>-bitartrate",
    "duplicated_cas_no": "34535-69-8",
    "SMILES": "C(CN)(O)C1=CC(O)=C(O)C=C1.[C@@H]([C@H](C(O)=O)O)(C(O)=O)O",
    "meta_data": {
        "InChI": "InChI=1S/C8H11NO3.C4H6O6/c9-4-8(12)5-1-2-6(10)7(11)3-5;5-1(3(7)8)2(6)4(9)10/h1-3,8,10-12H,4,9H2;1-2,5-6H,(H,7,8)(H,9,10)/t;1-,2-/m.1/s1",
        "InChIKey": null,
        "Canonical SMILES": "O=C(O)C(O)C(O)C(=O)O.OC1=CC=C(C=C1O)C(O)CN",
        "Molecular Formula": "C<sub>8</sub>H<sub>11</sub>NO<sub>3</sub>.C<sub>4</sub>H<sub>6</sub>O<sub>6</sub>",
        "Molecular Mass": "",
        "Melting Point": "163-165 °C"
    }
}