{
    "cas_no": "12030-85-2",
    "key_name": "Niobium potassium oxide (NbKO<sub>3</sub>)",
    "cn_name": "铌酸钾;",
    "alternate_name": "Niobium potassium oxide (NbKO<sub>3</sub>);Niobium potassium oxide (KNbO<sub>3</sub>);Niobate (NbO<sub>3</sub><sup>1-</sup>), potassium;Potassium niobate(V) (KNbO<sub>3</sub>);Potassium niobium oxide (KNbO<sub>3</sub>);Potassium niobate (KNbO<sub>3</sub>);Potassium niobium trioxide;Potassium metaniobate (KNbO<sub>3</sub>)",
    "duplicated_cas_no": "",
    "SMILES": "[O].[K].[Nb]",
    "meta_data": {
        "InChI": "InChI=1S/K.Nb.O",
        "InChIKey": null,
        "Canonical SMILES": "[O].[K].[Nb]",
        "Molecular Formula": "K.Nb.O",
        "Molecular Mass": "",
        "Melting Point": "1100 °C",
        "Density": "4.61 g/cm³"
    }
}