{
    "uri": "substance/pt/12030852",
    "rn": "12030-85-2",
    "name": "Niobium potassium oxide (NbKO<sub>3</sub>)",
    "images": [],
    "inchi": "InChI=1S/K.Nb.O",
    "inchiKey": "InChIKey=KNSFBWQKSUCTTO-UHFFFAOYSA-N",
    "smile": "[O].[K].[Nb]",
    "canonicalSmile": "[O].[K].[Nb]",
    "molecularFormula": "K.Nb.O",
    "molecularMass": "",
    "experimentalProperties": [
        {
            "name": "Melting Point",
            "property": "1100 °C",
            "sourceNumber": 1
        },
        {
            "name": "Density",
            "property": "4.61 g/cm³",
            "sourceNumber": 2
        }
    ],
    "propertyCitations": [
        {
            "docUri": "document/pt/document/28474034",
            "sourceNumber": 1,
            "source": "Brooks, David J.; Advanced Materials (Weinheim, Germany), (2005), 17(20), 2474-2477, CAplus"
        },
        {
            "docUri": "document/pt/document/47425557",
            "sourceNumber": 2,
            "source": "Lombardi, Julien; Journal of Materials Chemistry C: Materials for Optical and Electronic Devices, (2016), 4(34), 7989-7998, CAplus"
        }
    ],
    "synonyms": [
        "Niobium potassium oxide (NbKO<sub>3</sub>)",
        "Niobium potassium oxide (KNbO<sub>3</sub>)",
        "Niobate (NbO<sub>3</sub><sup>1-</sup>), potassium",
        "Potassium niobate(V) (KNbO<sub>3</sub>)",
        "Potassium niobium oxide (KNbO<sub>3</sub>)",
        "Potassium niobate (KNbO<sub>3</sub>)",
        "Potassium niobium trioxide",
        "Potassium metaniobate (KNbO<sub>3</sub>)"
    ],
    "replacedRns": [],
    "hasMolfile": true,
    "source": "https://commonchemistry.cas.org/detail?cas_rn=12030-85-2"
}