{
    "cas_no": "22948-94-3",
    "key_name": "1-Acetylindole-3-carboxaldehyde",
    "cn_name": "N-乙酰基吲哚-3-甲醛;",
    "alternate_name": "1<em>H</em>-Indole-3-carboxaldehyde, 1-acetyl-;Indole-3-carboxaldehyde, 1-acetyl-;1-Acetyl-1<em>H</em>-indole-3-carboxaldehyde;1-Acetylindole-3-carboxaldehyde;<em>N</em>-Acetyl-1<em>H</em>-indole-3-carboxaldehyde;<em>N</em>-Acetylindol-3-carboxaldehyde;NSC 61289;<em>N</em>-Acetyl-3-indolecarboxaldehyde;1-Acetyl-3-formyl-1<em>H</em>-indole;1-Acetyl-3-formylindole;1-Acetyl-1<em>H</em>-indole-3-carbaldehyde;1-Acetylindole-3-carbaldehyde",
    "duplicated_cas_no": "",
    "SMILES": "C(C)(=O)N1C=2C(C(C=O)=C1)=CC=CC2",
    "meta_data": {
        "InChI": "InChI=1S/C11H9NO2/c1-8(14)12-6-9(7-13)10-4-2-3-5-11(10)12/h2-7H,1H3",
        "InChIKey": null,
        "Canonical SMILES": "O=CC1=CN(C(=O)C)C=2C=CC=CC12",
        "Molecular Formula": "C<sub>11</sub>H<sub>9</sub>NO<sub>2</sub>",
        "Molecular Mass": "187.19",
        "Melting Point": "159-162 °C"
    }
}