{
    "cas_no": "208-96-8",
    "key_name": "Acenaphthylene",
    "cn_name": "苊;",
    "alternate_name": "Acenaphthylene;Cyclopenta[<em>de</em>]naphthalene;NSC 59821",
    "duplicated_cas_no": "",
    "SMILES": "C12=C3C=CC1=CC=CC2=CC=C3",
    "meta_data": {
        "InChI": "InChI=1S/C12H8/c1-3-9-4-2-6-11-8-7-10(5-1)12(9)11/h1-8H",
        "InChIKey": null,
        "Canonical SMILES": "C=1C=C2C=CC=C3C=CC(C1)=C23",
        "Molecular Formula": "C<sub>12</sub>H<sub>8</sub>",
        "Molecular Mass": "152.19",
        "Boiling Point": "265-275 °C",
        "Melting Point": "92-93 °C",
        "Density": "0.8988 g/cm³ @ Temp: 16 °C"
    }
}