{
    "cas_no": "23627-87-4",
    "key_name": "Kaempferol 3-<em>O</em>-galactoside",
    "cn_name": null,
    "alternate_name": "4<em>H</em>-1-Benzopyran-4-one, 3-(β-<span class=\"text-smallcaps\">D</span>-galactopyranosyloxy)-5,7-dihydroxy-2-(4-hydroxyphenyl)-;Trifolin;Kaempferol 3-galactoside;3-(β-<span class=\"text-smallcaps\">D</span>-Galactopyranosyloxy)-5,7-dihydroxy-2-(4-hydroxyphenyl)-4<em>H</em>-1-benzopyran-4-one;Kaempferol 3-β-<span class=\"text-smallcaps\">D</span>-galactopyranoside;Kaempferol 3-<em>O</em>-β-<span class=\"text-smallcaps\">D</span>-galactopyranoside;Trifolin (glycoside);Trifoliin;Kaempferol 3-β-<span class=\"text-smallcaps\">D</span>-galactoside;Kaempferol 3-<em>O</em>-galactoside;Kaempferol 3-<em>O</em>-<span class=\"text-smallcaps\">D</span>-galactoside;Kaempferol 3-<em>O</em>-β-galactoside;Kaempferol 3-<em>O</em>-galactopyranoside;Kaempferol-3-<em>O</em>-<span class=\"text-smallcaps\">D</span>-galactopyranoside",
    "duplicated_cas_no": "123049-37-6;1401-67-8;11049-67-5;25103-16-6;38725-10-9;178358-54-8",
    "SMILES": "O=C1C=2C(OC(=C1O[C@@H]3O[C@H](CO)[C@H](O)[C@H](O)[C@H]3O)C4=CC=C(O)C=C4)=CC(O)=CC2O",
    "meta_data": {
        "InChI": "InChI=1S/C21H20O11/c22-7-13-15(26)17(28)18(29)21(31-13)32-20-16(27)14-11(25)5-10(24)6-12(14)30-19(20)8-1-3-9(23)4-2-8/h1-6,13,15,17-18,21-26,28-29H,7H2/t13-,15+,17+,18-,21+/m1/s1",
        "InChIKey": null,
        "Canonical SMILES": "O=C1C(OC2OC(CO)C(O)C(O)C2O)=C(OC=3C=C(O)C=C(O)C13)C=4C=CC(O)=CC4",
        "Molecular Formula": "C<sub>21</sub>H<sub>20</sub>O<sub>11</sub>",
        "Molecular Mass": "448.38",
        "Melting Point": "236 °C"
    }
}