{
    "cas_no": "6940-50-7",
    "key_name": "4-Bromomandelic acid",
    "cn_name": "对溴扁桃酸;4-溴扁桃酸;",
    "alternate_name": "Benzeneacetic acid, 4-bromo-α-hydroxy-;Mandelic acid, <em>p</em>-bromo-;4-Bromo-α-hydroxybenzeneacetic acid;<em>p</em>-Bromomandelic acid;2-Hydroxy-2-(4-bromophenyl)acetic acid;4-Bromomandelic acid;<em>DL</em>-<em>p</em>-Bromomandelic acid;NSC 60138;<span class=\"text-smallcaps\">DL</span>-4-Bromomandelic acid;4-Bromo-<span class=\"text-smallcaps\">D</smallcap><smallcap>L</span>-mandelic acid;2-(4-Bromophenyl)-2-hydroxyacetic acid",
    "duplicated_cas_no": "7021-04-7",
    "SMILES": "C(C(O)=O)(O)C1=CC=C(Br)C=C1",
    "meta_data": {
        "InChI": "InChI=1S/C8H7BrO3/c9-6-3-1-5(2-4-6)7(10)8(11)12/h1-4,7,10H,(H,11,12)",
        "InChIKey": null,
        "Canonical SMILES": "O=C(O)C(O)C1=CC=C(Br)C=C1",
        "Molecular Formula": "C<sub>8</sub>H<sub>7</sub>BrO<sub>3</sub>",
        "Molecular Mass": "231.04",
        "Melting Point": "117.5 °C"
    }
}