{
    "cas_no": "1124-16-9",
    "key_name": "3-Methyl-1-(1-methylethyl)-1<em>H</em>-pyrazol-5-amine",
    "cn_name": null,
    "alternate_name": "1<em>H</em>-Pyrazol-5-amine, 3-methyl-1-(1-methylethyl)-;Pyrazole, 5-amino-1-isopropyl-3-methyl-;3-Methyl-1-(1-methylethyl)-1<em>H</em>-pyrazol-5-amine;1-Isopropyl-3-methyl-5-aminopyrazole;5-Amino-1-isopropyl-3-methylpyrazole;1-Isopropyl-3-methyl-5-pyrazolamine;5-Methyl-2-isopropyl-2<em>H</em>-pyrazol-3-ylamine;1-Isopropyl-3-methyl-1<em>H</em>-pyrazol-5-amine;3-Methyl-1-(propan-2-yl)-1<em>H</em>-pyrazol-5-amine",
    "duplicated_cas_no": "",
    "SMILES": "C(C)(C)N1N=C(C)C=C1N",
    "meta_data": {
        "InChI": "InChI=1S/C7H13N3/c1-5(2)10-7(8)4-6(3)9-10/h4-5H,8H2,1-3H3",
        "InChIKey": null,
        "Canonical SMILES": "N1=C(C=C(N)N1C(C)C)C",
        "Molecular Formula": "C<sub>7</sub>H<sub>13</sub>N<sub>3</sub>",
        "Molecular Mass": "139.20",
        "Melting Point": "110-112 °C"
    }
}