{
    "cas_no": "104-90-5",
    "key_name": "5-Ethyl-2-methylpyridine",
    "cn_name": "5-乙基-2-甲基-吡啶;",
    "alternate_name": "Pyridine, 5-ethyl-2-methyl-;2-Picoline, 5-ethyl-;5-Ethyl-2-methylpyridine;Aldehydine;5-Ethyl-α-picoline;5-Ethyl-2-picoline;2-Methyl-5-ethylpyridine;6-Methyl-3-ethylpyridine;3-Ethyl-6-methylpyridine;Aldehydecollidine;Collidine, aldehydecollidine;NSC 1984",
    "duplicated_cas_no": "",
    "SMILES": "C(C)C=1C=CC(C)=NC1",
    "meta_data": {
        "InChI": "InChI=1S/C8H11N/c1-3-8-5-4-7(2)9-6-8/h4-6H,3H2,1-2H3",
        "InChIKey": null,
        "Canonical SMILES": "N=1C=C(C=CC1C)CC",
        "Molecular Formula": "C<sub>8</sub>H<sub>11</sub>N",
        "Molecular Mass": "121.18",
        "Boiling Point": "177.8 °C @ Press: 747 Torr",
        "Melting Point": "-70.9 °C",
        "Density": "0.9184 g/cm³ @ Temp: 23 °C"
    }
}