{
    "cas_no": "16887-00-6",
    "key_name": "Chloride",
    "cn_name": null,
    "alternate_name": "Chloride;Chlorine, ion (Cl<sup>1-</sup>);Perchloride;Chloride ion;Hydrochloric acid, ion(1-);Chlorine ion(1-);Chloride anion;Chlorine(1-);Chlorine ion;Chloride ion (1-);Chloride(1-);Chloride (Cl<sup>-</sup>);Cl",
    "duplicated_cas_no": "405267-46-1",
    "SMILES": "[Cl-]",
    "meta_data": {
        "InChI": "InChI=1S/ClH/h1H/p-1",
        "InChIKey": null,
        "Canonical SMILES": "[Cl-]",
        "Molecular Formula": "Cl",
        "Molecular Mass": "",
        "Melting Point": "247-248 °C (decomp)"
    }
}