{
    "cas_no": "28469-92-3",
    "key_name": "2,6-Dichlorostyrene",
    "cn_name": "2,6-二氯苯乙烯;",
    "alternate_name": "Benzene, 1,3-dichloro-2-ethenyl-;Styrene, 2,6-dichloro-;1,3-Dichloro-2-ethenylbenzene;2,6-Dichlorostyrene;1,3-Dichloro-2-vinylbenzene;NSC 89716",
    "duplicated_cas_no": "",
    "SMILES": "C(=C)C1=C(Cl)C=CC=C1Cl",
    "meta_data": {
        "InChI": "InChI=1S/C8H6Cl2/c1-2-6-7(9)4-3-5-8(6)10/h2-5H,1H2",
        "InChIKey": null,
        "Canonical SMILES": "ClC1=CC=CC(Cl)=C1C=C",
        "Molecular Formula": "C<sub>8</sub>H<sub>6</sub>Cl<sub>2</sub>",
        "Molecular Mass": "173.04",
        "Boiling Point": "57-60 °C @ Press: 3.0 Torr",
        "Melting Point": "89 °C",
        "Density": "1.28 g/cm³ @ Temp: 25 °C"
    }
}