{
    "cas_no": "20850-43-5",
    "key_name": "Piperonyl chloride",
    "cn_name": "胡椒基氯;5-氯甲基-1,3-苯并二氧杂环戊烯;3,4-亚甲二氧基氯苄;",
    "alternate_name": "1,3-Benzodioxole, 5-(chloromethyl)-;Toluene, α-chloro-3,4-(methylenedioxy)-;5-(Chloromethyl)-1,3-benzodioxole;Piperonyl chloride;3,4-(Methylenedioxy)benzyl chloride;4-Chloromethyl-1,2-methylenedioxybenzene;Benzo[1,3]dioxol-5-ylmethyl chloride;NSC 127686;5-(Chloromethyl)benzodioxole",
    "duplicated_cas_no": "",
    "SMILES": "C(Cl)C=1C=C2C(=CC1)OCO2",
    "meta_data": {
        "InChI": "InChI=1S/C8H7ClO2/c9-4-6-1-2-7-8(3-6)11-5-10-7/h1-3H,4-5H2",
        "InChIKey": null,
        "Canonical SMILES": "ClCC1=CC=C2OCOC2=C1",
        "Molecular Formula": "C<sub>8</sub>H<sub>7</sub>ClO<sub>2</sub>",
        "Molecular Mass": "170.59",
        "Boiling Point": "134-135 °C @ Press: 14 Torr",
        "Melting Point": "20.5 °C"
    }
}