{
    "cas_no": "75011-65-3",
    "key_name": "Ibopamine hydrochloride",
    "cn_name": null,
    "alternate_name": "Propanoic acid, 2-methyl-, 1,1′-[4-[2-(methylamino)ethyl]-1,2-phenylene] ester, hydrochloride (1:1);Propanoic acid, 2-methyl-, 4-[2-(methylamino)ethyl]-1,2-phenylene ester, hydrochloride;3,4-Di-<em>O</em>-isobutyrylepinine hydrochloride;Ibopamine hydrochloride;Inopamil;Scandine",
    "duplicated_cas_no": "",
    "SMILES": "O(C(C(C)C)=O)C1=C(OC(C(C)C)=O)C=C(CCNC)C=C1.Cl",
    "meta_data": {
        "InChI": "InChI=1S/C17H25NO4.ClH/c1-11(2)16(19)21-14-7-6-13(8-9-18-5)10-15(14)22-17(20)12(3)4;/h6-7,10-12,18H,8-9H2,1-5H3;1H",
        "InChIKey": null,
        "Canonical SMILES": "Cl.O=C(OC1=CC=C(C=C1OC(=O)C(C)C)CCNC)C(C)C",
        "Molecular Formula": "C<sub>17</sub>H<sub>25</sub>NO<sub>4</sub>.ClH",
        "Molecular Mass": "",
        "Melting Point": "132 °C"
    }
}