{
    "cas_no": "913835-73-1",
    "key_name": "3-Borono-5-bromobenzoic acid",
    "cn_name": null,
    "alternate_name": "Benzoic acid, 3-borono-5-bromo-;3-Borono-5-bromobenzoic acid;3-Bromo-5-carboxyphenylboronic acid;3-Bromo-5-(dihydroxyboranyl)benzoic acid",
    "duplicated_cas_no": "",
    "SMILES": "B(O)(O)C1=CC(C(O)=O)=CC(Br)=C1",
    "meta_data": {
        "InChI": "InChI=1S/C7H6BBrO4/c9-6-2-4(7(10)11)1-5(3-6)8(12)13/h1-3,12-13H,(H,10,11)",
        "InChIKey": null,
        "Canonical SMILES": "O=C(O)C=1C=C(Br)C=C(C1)B(O)O",
        "Molecular Formula": "C<sub>7</sub>H<sub>6</sub>BBrO<sub>4</sub>",
        "Molecular Mass": "244.84",
        "Melting Point": "260-263 °C"
    }
}