{
    "cas_no": "2361-96-8",
    "key_name": "Acetyl-<span class=\"text-smallcaps\">L</span>-phenylalanine ethyl ester",
    "cn_name": null,
    "alternate_name": "<span class=\"text-smallcaps\">L</span>-Phenylalanine, <em>N</em>-acetyl-, ethyl ester;Alanine, <em>N</em>-acetyl-3-phenyl-, ethyl ester, <span class=\"text-smallcaps\">L</span>-;Acetyl-<span class=\"text-smallcaps\">L</span>-phenylalanine ethyl ester;<em>N</em>-Acetyl-<span class=\"text-smallcaps\">L</span>-phenylalanine ethyl ester;<em>N</em>-Acetylphenylalanine ethyl ester;Acetylphenylalanine ethyl ester;Ethyl <em>N</em>-acetyl-<span class=\"text-smallcaps\">L</span>-phenylalaninate;<span class=\"text-smallcaps\">L</span>-<em>N</em>-Acetylphenylalanine ethyl ester;APEE",
    "duplicated_cas_no": "5746-47-4",
    "SMILES": "[C@H](CC1=CC=CC=C1)(C(OCC)=O)NC(C)=O",
    "meta_data": {
        "InChI": "InChI=1S/C13H17NO3/c1-3-17-13(16)12(14-10(2)15)9-11-7-5-4-6-8-11/h4-8,12H,3,9H2,1-2H3,(H,14,15)/t12-/m0/s1",
        "InChIKey": null,
        "Canonical SMILES": "O=C(OCC)C(NC(=O)C)CC=1C=CC=CC1",
        "Molecular Formula": "C<sub>13</sub>H<sub>17</sub>NO<sub>3</sub>",
        "Molecular Mass": "235.28",
        "Melting Point": "66-67 °C"
    }
}