{
    "cas_no": "57031-66-0",
    "key_name": "1<em>H</em>-1,2,4-Triazole-3-carboxylic acid, 1-methyl-, methyl ester",
    "cn_name": null,
    "alternate_name": "1<em>H</em>-1,2,4-Triazole-3-carboxylic acid, 1-methyl-, methyl ester;Methyl 1-methyl-1<em>H</em>-1,2,4-triazole-3-carboxylate",
    "duplicated_cas_no": "",
    "SMILES": "C(OC)(=O)C1=NN(C)C=N1",
    "meta_data": {
        "InChI": "InChI=1S/C5H7N3O2/c1-8-3-6-4(7-8)5(9)10-2/h3H,1-2H3",
        "InChIKey": null,
        "Canonical SMILES": "O=C(OC)C=1N=CN(N1)C",
        "Molecular Formula": "C<sub>5</sub>H<sub>7</sub>N<sub>3</sub>O<sub>2</sub>",
        "Molecular Mass": "141.13",
        "Melting Point": "117 °C"
    }
}