{
    "cas_no": "79-78-7",
    "key_name": "Allyl-α-ionone",
    "cn_name": null,
    "alternate_name": "1,6-Heptadien-3-one, 1-(2,6,6-trimethyl-2-cyclohexen-1-yl)-;1-(2,6,6-Trimethyl-2-cyclohexen-1-yl)-1,6-heptadien-3-one;Allyl-α-ionone;Cetone V;Hexalon (fragrance);Hexalon;1-(2,6,6-Trimethylcyclohex-2-enyl)hepta-1,6-dien-3-one",
    "duplicated_cas_no": "",
    "SMILES": "C(=CC(CCC=C)=O)C1C(C)(C)CCC=C1C",
    "meta_data": {
        "InChI": "InChI=1S/C16H24O/c1-5-6-9-14(17)10-11-15-13(2)8-7-12-16(15,3)4/h5,8,10-11,15H,1,6-7,9,12H2,2-4H3",
        "InChIKey": null,
        "Canonical SMILES": "O=C(C=CC1C(=CCCC1(C)C)C)CCC=C",
        "Molecular Formula": "C<sub>16</sub>H<sub>24</sub>O",
        "Molecular Mass": "232.36",
        "Boiling Point": "109-111 °C @ Press: 1 Torr"
    }
}