{
    "cas_no": "3171-46-8",
    "key_name": "3,5-Dimethyl-1,2-benzenediamine",
    "cn_name": "3,5-二甲基-1,2-苯二胺;",
    "alternate_name": "1,2-Benzenediamine, 3,5-dimethyl-;<em>o</em>-Phenylenediamine, 3,5-dimethyl-;3,5-Dimethyl-1,2-benzenediamine;3,5-Dimethyl-<em>o</em>-phenylenediamine;3,5-Dimethyl-1,2-phenylenediamine;4,6-Dimethyl-<em>o</em>-phenylenediamine;2-Amino-3,5-dimethylphenylamine;3,5-Dimethylbenzene-1,2-diamine;1,2-Diamino-3,5-dimethylbenzene",
    "duplicated_cas_no": "",
    "SMILES": "NC1=C(C)C=C(C)C=C1N",
    "meta_data": {
        "InChI": "InChI=1S/C8H12N2/c1-5-3-6(2)8(10)7(9)4-5/h3-4H,9-10H2,1-2H3",
        "InChIKey": null,
        "Canonical SMILES": "NC=1C=C(C=C(C1N)C)C",
        "Molecular Formula": "C<sub>8</sub>H<sub>12</sub>N<sub>2</sub>",
        "Molecular Mass": "136.19",
        "Melting Point": "136-137 °C"
    }
}