{
    "cas_no": "2367-80-8",
    "key_name": "1,3-Dichloro-2,5-difluorobenzene",
    "cn_name": "1,3-二氯-2,5-二氟苯;",
    "alternate_name": "Benzene, 1,3-dichloro-2,5-difluoro-;1,3-Dichloro-2,5-difluorobenzene;2,6-Dichloro-1,4-difluorobenzene",
    "duplicated_cas_no": "",
    "SMILES": "FC1=C(Cl)C=C(F)C=C1Cl",
    "meta_data": {
        "InChI": "InChI=1S/C6H2Cl2F2/c7-4-1-3(9)2-5(8)6(4)10/h1-2H",
        "InChIKey": null,
        "Canonical SMILES": "FC=1C=C(Cl)C(F)=C(Cl)C1",
        "Molecular Formula": "C<sub>6</sub>H<sub>2</sub>Cl<sub>2</sub>F<sub>2</sub>",
        "Molecular Mass": "182.98",
        "Boiling Point": "65-66 °C @ Press: 20 Torr",
        "Melting Point": "-10-3.5 °C"
    }
}