{
    "cas_no": "556-99-0",
    "key_name": "Triuret",
    "cn_name": null,
    "alternate_name": "Diimidotricarbonic diamide;Triuret;Carbonyldiurea;Dicarbamylurea;Urea, <em>N</em>,<em>N</em>′′-carbonylbis-;Urea, <em>N</em>,<em>N</em>′-bis(aminocarbonyl)-;NSC 29081;[(Carbamoylamino)carbonyl]urea",
    "duplicated_cas_no": "",
    "SMILES": "N(C(NC(N)=O)=O)C(N)=O",
    "meta_data": {
        "InChI": "InChI=1S/C3H6N4O3/c4-1(8)6-3(10)7-2(5)9/h(H6,4,5,6,7,8,9,10)",
        "InChIKey": null,
        "Canonical SMILES": "O=C(N)NC(=O)NC(=O)N",
        "Molecular Formula": "C<sub>3</sub>H<sub>6</sub>N<sub>4</sub>O<sub>3</sub>",
        "Molecular Mass": "146.10",
        "Melting Point": "227 °C (decomp)",
        "Density": "1.5237 g/cm³"
    }
}