{
    "cas_no": "90-03-9",
    "key_name": "Mercufenol chloride",
    "cn_name": "2-氯汞苯酚;氯化邻羟基苯汞;",
    "alternate_name": "Mercury, chloro(2-hydroxyphenyl)-;Mercury, chloro(<em>o</em>-hydroxyphenyl)-;Phenol, <em>o</em>-(chloromercuri)-;Chloro(2-hydroxyphenyl)mercury;(<em>o</em>-Hydroxyphenyl)mercuric chloride;<em>o</em>-Mercurihydroxyphenyl chloride;(<em>o</em>-Hydroxyphenyl)mercury chloride;<em>o</em>-(Chloromercurio)phenol;<em>o</em>-(Chloromercuri)phenol;NP-27;(2-Hydroxyphenyl)mercuric chloride;Mercufenol chloride;(2-Hydroxyphenyl)mercury chloride;2-(Chloromercurio)phenol;Salicresin Fluid;Myringacaine Drops;U 7743;NSC 5579",
    "duplicated_cas_no": "",
    "SMILES": "[Hg](Cl)C1=C(O)C=CC=C1",
    "meta_data": {
        "InChI": "InChI=1S/C6H5O.ClH.Hg/c7-6-4-2-1-3-5-6;;/h1-4,7H;1H;/q;;+1/p-1",
        "InChIKey": null,
        "Canonical SMILES": "Cl[Hg]C=1C=CC=CC1O",
        "Molecular Formula": "C<sub>6</sub>H<sub>5</sub>ClHgO",
        "Molecular Mass": "",
        "Melting Point": "151 °C"
    }
}