{
    "cas_no": "7144-05-0",
    "key_name": "4-(Aminomethyl)piperidine",
    "cn_name": "4-氨甲基哌啶;",
    "alternate_name": "4-Piperidinemethanamine;Piperidine, 4-(aminomethyl)-;4-(Aminomethyl)piperidine;NSC 194294;NSC 62826;1-(Piperidin-4-yl)methanamine;(Piperidin-4-ylmethyl)amine;Piperidin-4-ylmethanamine",
    "duplicated_cas_no": "",
    "SMILES": "C(N)C1CCNCC1",
    "meta_data": {
        "InChI": "InChI=1S/C6H14N2/c7-5-6-1-3-8-4-2-6/h6,8H,1-5,7H2",
        "InChIKey": null,
        "Canonical SMILES": "NCC1CCNCC1",
        "Molecular Formula": "C<sub>6</sub>H<sub>14</sub>N<sub>2</sub>",
        "Molecular Mass": "114.19",
        "Boiling Point": "200 °C",
        "Melting Point": "25 °C"
    }
}