{
    "cas_no": "134-52-1",
    "key_name": "4-Phenylresorcinol",
    "cn_name": null,
    "alternate_name": "[1,1′-Biphenyl]-2,4-diol;Resorcinol, 4-phenyl-;4-Phenylresorcinol;1,3-Benzenediol, 4-phenyl-;2,4-Biphenyldiol;2,4-Dihydroxybiphenyl;4-Phenyl-1,3-benzenediol",
    "duplicated_cas_no": "",
    "SMILES": "OC1=C(C2=CC=CC=C2)C=CC(O)=C1",
    "meta_data": {
        "InChI": "InChI=1S/C12H10O2/c13-10-6-7-11(12(14)8-10)9-4-2-1-3-5-9/h1-8,13-14H",
        "InChIKey": null,
        "Canonical SMILES": "OC=1C=CC(=C(O)C1)C=2C=CC=CC2",
        "Molecular Formula": "C<sub>12</sub>H<sub>10</sub>O<sub>2</sub>",
        "Molecular Mass": "186.21",
        "Melting Point": "145 °C"
    }
}