{
    "cas_no": "88-68-6",
    "key_name": "Anthranilamide",
    "cn_name": "2-氨基苯甲酰胺;邻氨基苯甲酰胺;",
    "alternate_name": "Benzamide, 2-amino-;Benzamide, <em>o</em>-amino-;2-Aminobenzamide;<em>o</em>-Aminobenzamide;Anthranilamide;Anthranilimidic acid;2-Carbamoylaniline;SR 4327;<em>o</em>-Carbamoylaniline;2-Aminobenzenecarboxamide;NSC 38768;2-Aminobenzene-1-carboximidic acid",
    "duplicated_cas_no": "",
    "SMILES": "C(N)(=O)C1=C(N)C=CC=C1",
    "meta_data": {
        "InChI": "InChI=1S/C7H8N2O/c8-6-4-2-1-3-5(6)7(9)10/h1-4H,8H2,(H2,9,10)",
        "InChIKey": null,
        "Canonical SMILES": "O=C(N)C=1C=CC=CC1N",
        "Molecular Formula": "C<sub>7</sub>H<sub>8</sub>N<sub>2</sub>O",
        "Molecular Mass": "136.15",
        "Boiling Point": "300 °C",
        "Melting Point": "110-115 °C"
    }
}