{
    "cas_no": "106-68-3",
    "key_name": "3-Octanone",
    "cn_name": "3-辛酮;",
    "alternate_name": "3-Octanone;Amyl ethyl ketone;EAK;Ethyl amyl ketone;<em>n</em>-Octanone-3;Ethyl pentyl ketone;Ethyl <em>n</em>-amyl ketone;Ethyl <em>n</em>-pentyl ketone;<em>n</em>-Amyl ethyl ketone;3-Oxooctane;NSC 60161;3-Octanal",
    "duplicated_cas_no": "",
    "SMILES": "C(CCCCC)(CC)=O",
    "meta_data": {
        "InChI": "InChI=1S/C8H16O/c1-3-5-6-7-8(9)4-2/h3-7H2,1-2H3",
        "InChIKey": null,
        "Canonical SMILES": "O=C(CC)CCCCC",
        "Molecular Formula": "C<sub>8</sub>H<sub>16</sub>O",
        "Molecular Mass": "128.21",
        "Boiling Point": "167.5 °C @ Press: 760 Torr",
        "Density": "0.820 g/cm³ @ Temp: 24 °C"
    }
}