{
    "cas_no": "71310-21-9",
    "key_name": "11-Mercaptoundecanoic acid",
    "cn_name": "11-巯基十一烷酸;巯基十一酸;",
    "alternate_name": "Undecanoic acid, 11-mercapto-;11-Mercaptoundecanoic acid;ω-Mercaptoundecanoic acid;11-Thioundecanoic acid;11-Mercaptoundecylic acid",
    "duplicated_cas_no": "",
    "SMILES": "C(CCCCCCCS)CCC(O)=O",
    "meta_data": {
        "InChI": "InChI=1S/C11H22O2S/c12-11(13)9-7-5-3-1-2-4-6-8-10-14/h14H,1-10H2,(H,12,13)",
        "InChIKey": null,
        "Canonical SMILES": "O=C(O)CCCCCCCCCCS",
        "Molecular Formula": "C<sub>11</sub>H<sub>22</sub>O<sub>2</sub>S",
        "Molecular Mass": "218.36",
        "Boiling Point": "159 °C @ Press: 1 Torr",
        "Melting Point": "94-95 °C"
    }
}