{
    "cas_no": "3913-23-3",
    "key_name": "2-(Bromomethyl)-1-methoxy-4-nitrobenzene",
    "cn_name": "2-甲氧基-5-硝基溴化苄;",
    "alternate_name": "Benzene, 2-(bromomethyl)-1-methoxy-4-nitro-;Anisole, 2-(bromomethyl)-4-nitro-;2-(Bromomethyl)-1-methoxy-4-nitrobenzene;2-Methoxy-5-nitrobenzyl bromide;2-(Bromomethyl)-4-nitroanisole;Koshland reagent No. 2;Koshland reagent 2;Koshland reagent number 2",
    "duplicated_cas_no": "",
    "SMILES": "C(Br)C1=C(OC)C=CC(N(=O)=O)=C1",
    "meta_data": {
        "InChI": "InChI=1S/C8H8BrNO3/c1-13-8-3-2-7(10(11)12)4-6(8)5-9/h2-4H,5H2,1H3",
        "InChIKey": null,
        "Canonical SMILES": "O=N(=O)C1=CC=C(OC)C(=C1)CBr",
        "Molecular Formula": "C<sub>8</sub>H<sub>8</sub>BrNO<sub>3</sub>",
        "Molecular Mass": "246.06",
        "Melting Point": "76-78 °C"
    }
}