{
    "cas_no": "19431-84-6",
    "key_name": "Curcumenol",
    "cn_name": "莪术醇;",
    "alternate_name": "6<em>H</em>-3a,6-Epoxyazulen-6-ol, 1,2,3,4,5,8a-hexahydro-3,8-dimethyl-5-(1-methylethylidene)-, (3<em>S</em>,3a<em>S</em>,6<em>R</em>,8a<em>S</em>)-;5β-Guaia-7(11),9-dien-8α-ol, 5,8-epoxy-;6<em>H</em>-3a,6-Epoxyazulen-6-ol, 1,2,3,4,5,8a-hexahydro-3,8-dimethyl-5-(1-methylethylidene)-, [3<em>S</em>-(3α,3aα,6α,8aβ)]-;(3<em>S</em>,3a<em>S</em>,6<em>R</em>,8a<em>S</em>)-1,2,3,4,5,8a-Hexahydro-3,8-dimethyl-5-(1-methylethylidene)-6<em>H</em>-3a,6-epoxyazulen-6-ol;(+)-Curcumenol;Curcumenol;Curcumenol, (+)-",
    "duplicated_cas_no": "",
    "SMILES": "C[C@@H]1[C@@]23[C@](C(C)=C[C@@](O)(O2)C(=C(C)C)C3)(CC1)[H]",
    "meta_data": {
        "InChI": "InChI=1S/C15H22O2/c1-9(2)13-8-14-11(4)5-6-12(14)10(3)7-15(13,16)17-14/h7,11-12,16H,5-6,8H2,1-4H3/t11-,12-,14-,15+/m0/s1",
        "InChIKey": null,
        "Canonical SMILES": "OC12OC3(CC1=C(C)C)C(C(=C2)C)CCC3C",
        "Molecular Formula": "C<sub>15</sub>H<sub>22</sub>O<sub>2</sub>",
        "Molecular Mass": "234.33",
        "Melting Point": "113-115 °C"
    }
}