{
    "cas_no": "976-71-6",
    "key_name": "Canrenone",
    "cn_name": "坎利酮;刊利酮;",
    "alternate_name": "Pregna-4,6-diene-21-carboxylic acid, 17-hydroxy-3-oxo-, γ-lactone, (17α)-;17α-Pregna-4,6-diene-21-carboxylic acid, 17-hydroxy-3-oxo-, γ-lactone;Spiro[17<em>H</em>-cyclopenta[<em>a</em>]phenanthrene-17,2′(5′<em>H</em>)-furan], pregna-4,6-diene-21-carboxylic acid deriv.;Canrenone;17α-(2-Carboxyethyl)-17β-hydroxyandrosta-4,6-dien-3-one lactone;17-Hydroxy-3-oxo-17α-pregna-4,6-diene-21-carboxylic acid γ-lactone;3-(17β-Hydroxy-3-oxoandrosta-4,6-dien-17α-yl)propionic acid γ-lactone;Phanurane;Aldadiene;SC 9376;3′-(3-Oxo-17β-hydroxyandrosta-4,6-dien-17α-yl)-propionic acid lactone;Spirolactone SC 14266;3-(17β-Hydroxy-3-oxoandrosta-4,6-dien-17α-yl)propionic acid lactone;17-Hydroxy-3-oxo-17α-pregna-4,6-diene-21-carboxylic acid lactone;3-(3-Oxo-17β-hydroxy-4,6-androstadien-17α-yl)propionic acid γ-lactone;11614 R.P.;20-Spiroxa-4,6-diene-3,21-dione;17β-Hydroxy-3-oxopregna-4,6-diene-21-carboxylic acid;NSC 261713",
    "duplicated_cas_no": "31030-96-3",
    "SMILES": "C[C@@]12[C@]3(CC[C@]1([C@]4([C@](CC2)([C@]5(C)C(C=C4)=CC(=O)CC5)[H])[H])[H])OC(=O)CC3",
    "meta_data": {
        "InChI": "InChI=1S/C22H28O3/c1-20-9-5-15(23)13-14(20)3-4-16-17(20)6-10-21(2)18(16)7-11-22(21)12-8-19(24)25-22/h3-4,13,16-18H,5-12H2,1-2H3/t16-,17+,18+,20+,21+,22-/m1/s1",
        "InChIKey": null,
        "Canonical SMILES": "O=C1OC2(CC1)CCC3C4C=CC5=CC(=O)CCC5(C)C4CCC32C",
        "Molecular Formula": "C<sub>22</sub>H<sub>28</sub>O<sub>3</sub>",
        "Molecular Mass": "340.46",
        "Melting Point": "150 °C"
    }
}