{
    "cas_no": "1758-25-4",
    "key_name": "2,5-Dimethoxyphenylacetic acid",
    "cn_name": "2,5-二甲氧基苯基乙酸;",
    "alternate_name": "Benzeneacetic acid, 2,5-dimethoxy-;Acetic acid, (2,5-dimethoxyphenyl)-;2,5-Dimethoxybenzeneacetic acid;2,5-Dimethoxyphenylacetic acid;NSC 74696;2-(2,5-Dimethoxyphenyl)acetic acid",
    "duplicated_cas_no": "",
    "SMILES": "C(C(O)=O)C1=C(OC)C=CC(OC)=C1",
    "meta_data": {
        "InChI": "InChI=1S/C10H12O4/c1-13-8-3-4-9(14-2)7(5-8)6-10(11)12/h3-5H,6H2,1-2H3,(H,11,12)",
        "InChIKey": null,
        "Canonical SMILES": "O=C(O)CC1=CC(OC)=CC=C1OC",
        "Molecular Formula": "C<sub>10</sub>H<sub>12</sub>O<sub>4</sub>",
        "Molecular Mass": "196.20",
        "Melting Point": "125 °C"
    }
}