{
    "cas_no": "3331-46-2",
    "key_name": "9,10-Dihydrobenzo[<em>a</em>]pyren-7(8<em>H</em>)-one",
    "cn_name": "9,10-二氢苯并[a]芘-7(8H)-酮;",
    "alternate_name": "Benzo[<em>a</em>]pyren-7(8<em>H</em>)-one, 9,10-dihydro-;9,10-Dihydrobenzo[<em>a</em>]pyren-7(8<em>H</em>)-one;7-Oxo-7,8,9,10-tetrahydrobenzo[<em>a</em>]pyrene;NSC 30830",
    "duplicated_cas_no": "",
    "SMILES": "O=C1C2=C(C=3C4=C5C(=CC3)C=CC=C5C=CC4=C2)CCC1",
    "meta_data": {
        "InChI": "InChI=1S/C20H14O/c21-18-6-2-5-15-16-10-9-13-4-1-3-12-7-8-14(11-17(15)18)20(16)19(12)13/h1,3-4,7-11H,2,5-6H2",
        "InChIKey": null,
        "Canonical SMILES": "O=C1C=2C=C3C=CC4=CC=CC=5C=CC(=C3C45)C2CCC1",
        "Molecular Formula": "C<sub>20</sub>H<sub>14</sub>O",
        "Molecular Mass": "270.32",
        "Melting Point": "178 °C"
    }
}