{
    "cas_no": "63042-18-2",
    "key_name": "Estra-1,3,5(10)-triene-3,17-diol (17β)-, 3-benzoate 17-butanoate",
    "cn_name": "雌二醇-3-苯甲酸-17-丁酸酯;雌甾-1,3,5(10)-三烯-3,17b-二醇3-苯甲酸-17-丁酸酯;",
    "alternate_name": "Estra-1,3,5(10)-triene-3,17-diol (17β)-, 3-benzoate 17-butanoate",
    "duplicated_cas_no": "",
    "SMILES": "C[C@@]12[C@]([C@]3([C@@](C=4C(CC3)=CC(OC(=O)C5=CC=CC=C5)=CC4)(CC1)[H])[H])(CC[C@@H]2OC(CCC)=O)[H]",
    "meta_data": {
        "InChI": "InChI=1S/C29H34O4/c1-3-7-27(30)33-26-15-14-25-24-12-10-20-18-21(32-28(31)19-8-5-4-6-9-19)11-13-22(20)23(24)16-17-29(25,26)2/h4-6,8-9,11,13,18,23-26H,3,7,10,12,14-17H2,1-2H3/t23-,24-,25+,26+,29+/m1/s1",
        "InChIKey": null,
        "Canonical SMILES": "O=C(OC1=CC=C2C(=C1)CCC3C2CCC4(C)C(OC(=O)CCC)CCC34)C=5C=CC=CC5",
        "Molecular Formula": "C<sub>29</sub>H<sub>34</sub>O<sub>4</sub>",
        "Molecular Mass": "446.58",
        "Melting Point": "128.5-129.0 °C"
    }
}