{
    "cas_no": "101-79-1",
    "key_name": "4-(4-Chlorophenoxy)benzenamine",
    "cn_name": "4\"-氯-4-氨基二苯醚;",
    "alternate_name": "Benzenamine, 4-(4-chlorophenoxy)-;Aniline, <em>p</em>-(<em>p</em>-chlorophenoxy)-;4-(4-Chlorophenoxy)benzenamine;<em>p</em>-(<em>p</em>-Chlorophenoxy)aniline;4-Amino-4′-chlorodiphenyl ether;4-Chloro-4′-aminodiphenyl ether;4-(4-Chlorophenoxy)aniline;NSC 75571;[4-(4-Chlorophenoxy)phenyl]amine",
    "duplicated_cas_no": "",
    "SMILES": "O(C1=CC=C(Cl)C=C1)C2=CC=C(N)C=C2",
    "meta_data": {
        "InChI": "InChI=1S/C12H10ClNO/c13-9-1-5-11(6-2-9)15-12-7-3-10(14)4-8-12/h1-8H,14H2",
        "InChIKey": null,
        "Canonical SMILES": "ClC1=CC=C(OC2=CC=C(N)C=C2)C=C1",
        "Molecular Formula": "C<sub>12</sub>H<sub>10</sub>ClNO",
        "Molecular Mass": "219.67",
        "Melting Point": "100 °C"
    }
}