{
    "cas_no": "5337-72-4",
    "key_name": "2,6-Dimethylcyclohexanol",
    "cn_name": null,
    "alternate_name": "Cyclohexanol, 2,6-dimethyl-;2,6-Dimethylcyclohexanol;2,6-Dimethyl-1-cyclohexanol;NSC 821;2,6-Dimethylcyclohexyl alcohol",
    "duplicated_cas_no": "",
    "SMILES": "OC1C(C)CCCC1C",
    "meta_data": {
        "InChI": "InChI=1S/C8H16O/c1-6-4-3-5-7(2)8(6)9/h6-9H,3-5H2,1-2H3",
        "InChIKey": null,
        "Canonical SMILES": "OC1C(C)CCCC1C",
        "Molecular Formula": "C<sub>8</sub>H<sub>16</sub>O",
        "Molecular Mass": "128.21",
        "Boiling Point": "176 °C",
        "Melting Point": "32.5 °C",
        "Density": "0.9231 g/cm³ @ Temp: 20 °C"
    }
}