{
    "cas_no": "60687-36-7",
    "key_name": "(<em>R</em>)-(-)-(1-Aminoethyl)phosphonic acid",
    "cn_name": "(R)-(?)-1-氨基乙基膦酸;",
    "alternate_name": "Phosphonic acid, <em>P</em>-[(1<em>R</em>)-1-aminoethyl]-;Phosphonic acid, (1-aminoethyl)-, (<em>R</em>)-;Phosphonic acid, [(1<em>R</em>)-1-aminoethyl]-;<em>P</em>-[(1<em>R</em>)-1-Aminoethyl]phosphonic acid;(<em>R</em>)-(1-Aminoethyl)phosphonic acid;(1<em>R</em>)-1-Aminoethylphosphonic acid;<span class=\"text-smallcaps\">L</span>-(1-Aminoethyl)phosphonate;(<em>R</em>)-(-)-(1-Aminoethyl)phosphonic acid;<span class=\"text-smallcaps\">L</span>-1-Aminoethylphosphonic acid;<span class=\"text-smallcaps\">L</span>-Fosfalin;[(1R)-1-Aminoethyl]phosphonic acid;(R)-(1-Aminoethyl)phosphonic acid",
    "duplicated_cas_no": "",
    "SMILES": "P([C@H](C)N)(=O)(O)O",
    "meta_data": {
        "InChI": "InChI=1S/C2H8NO3P/c1-2(3)7(4,5)6/h2H,3H2,1H3,(H2,4,5,6)/t2-/m1/s1",
        "InChIKey": null,
        "Canonical SMILES": "O=P(O)(O)C(N)C",
        "Molecular Formula": "C<sub>2</sub>H<sub>8</sub>NO<sub>3</sub>P",
        "Molecular Mass": "125.06",
        "Melting Point": "277-278 °C"
    }
}