{
    "cas_no": "488-17-5",
    "key_name": "3-Methylcatechol",
    "cn_name": "3-甲基苯邻二酚;",
    "alternate_name": "1,2-Benzenediol, 3-methyl-;Pyrocatechol, 3-methyl-;3-Methyl-1,2-benzenediol;3-Methylcatechol;3-Methylpyrocatechol;3-Methyl-1,2-dihydroxybenzene;2,3-Dihydroxytoluene;1,2-Dihydroxy-3-methylbenzene;2,3-Toluenediol;2-Hydroxy-3-methylphenol;2-Hydroxy-6-methylphenol;NSC 66523",
    "duplicated_cas_no": "",
    "SMILES": "OC1=C(C)C=CC=C1O",
    "meta_data": {
        "InChI": "InChI=1S/C7H8O2/c1-5-3-2-4-6(8)7(5)9/h2-4,8-9H,1H3",
        "InChIKey": null,
        "Canonical SMILES": "OC1=CC=CC(=C1O)C",
        "Molecular Formula": "C<sub>7</sub>H<sub>8</sub>O<sub>2</sub>",
        "Molecular Mass": "124.14",
        "Boiling Point": "241 °C",
        "Melting Point": "68 °C"
    }
}