{
    "cas_no": "112529-15-4",
    "key_name": "Pioglitazone hydrochloride",
    "cn_name": "盐酸吡格列酮;5-{4-[2-(5-乙基-2-吡啶)-乙氧基]-苯基}-2,4-噻唑烷二酮盐酸盐;",
    "alternate_name": "2,4-Thiazolidinedione, 5-[[4-[2-(5-ethyl-2-pyridinyl)ethoxy]phenyl]methyl]-, hydrochloride (1:1);2,4-Thiazolidinedione, 5-[[4-[2-(5-ethyl-2-pyridinyl)ethoxy]phenyl]methyl]-, monohydrochloride, (±)-;2,4-Thiazolidinedione, 5-[[4-[2-(5-ethyl-2-pyridinyl)ethoxy]phenyl]methyl]-, monohydrochloride;U 72107A;Pioglitazone hydrochloride;AD 4833;Actos;5-[4-[2-(5-Ethyl-2-pyridyl)ethoxy]benzyl]thiazolidine-2,4-dione hydrochloride;Poze;Piomed;Glutazone;Sepioglin;Paglitaz;Glidipion;Glustin",
    "duplicated_cas_no": "127676-30-6",
    "SMILES": "C(C1C(=O)NC(=O)S1)C2=CC=C(OCCC3=CC=C(CC)C=N3)C=C2.Cl",
    "meta_data": {
        "InChI": "InChI=1S/C19H20N2O3S.ClH/c1-2-13-3-6-15(20-12-13)9-10-24-16-7-4-14(5-8-16)11-17-18(22)21-19(23)25-17;/h3-8,12,17H,2,9-11H2,1H3,(H,21,22,23);1H",
        "InChIKey": null,
        "Canonical SMILES": "Cl.O=C1SC(C(=O)N1)CC2=CC=C(OCCC3=NC=C(C=C3)CC)C=C2",
        "Molecular Formula": "C<sub>19</sub>H<sub>20</sub>N<sub>2</sub>O<sub>3</sub>S.ClH",
        "Molecular Mass": "",
        "Melting Point": "193-194 °C"
    }
}