{
    "cas_no": "4444-27-3",
    "key_name": "4,4′,6,6′-Tetramethyl-2,2′-bipyridine",
    "cn_name": null,
    "alternate_name": "2,2′-Bipyridine, 4,4′,6,6′-tetramethyl-;6,6′-Bi-2,4-lutidine;4,4′,6,6′-Tetramethyl-2,2′-bipyridine",
    "duplicated_cas_no": "",
    "SMILES": "CC=1C=C(N=C(C)C1)C2=CC(C)=CC(C)=N2",
    "meta_data": {
        "InChI": "InChI=1S/C14H16N2/c1-9-5-11(3)15-13(7-9)14-8-10(2)6-12(4)16-14/h5-8H,1-4H3",
        "InChIKey": null,
        "Canonical SMILES": "N=1C(=CC(=CC1C)C)C=2N=C(C=C(C2)C)C",
        "Molecular Formula": "C<sub>14</sub>H<sub>16</sub>N<sub>2</sub>",
        "Molecular Mass": "212.29",
        "Melting Point": "142.5-143.0 °C"
    }
}