{
    "cas_no": "3952-78-1",
    "key_name": "Alizarin complexone",
    "cn_name": "茜素络合指示剂;茜素氨羧络合剂;氟试剂;3-氨基甲基茜素-N,N-二乙酸;",
    "alternate_name": "Glycine, <em>N</em>-(carboxymethyl)-<em>N</em>-[(9,10-dihydro-3,4-dihydroxy-9,10-dioxo-2-anthracenyl)methyl]-;Acetic acid, [[(3,4-dihydroxy-2-anthraquinonyl)methyl]imino]di-;<em>N</em>-(Carboxymethyl)-<em>N</em>-[(9,10-dihydro-3,4-dihydroxy-9,10-dioxo-2-anthracenyl)methyl]glycine;Alizarin complexon;Alizarin Fluorine Blue;Alizarine Complexone;1,2-Dihydroxyanthraquinone-3-methylamine-<em>N</em>,<em>N</em>-diacetic acid;3-Aminomethylalizarin-<em>N</em>,<em>N</em>-diacetic acid;Alizarin complexone;Alizarine complexon;Alizarine Fluorine Blue;Alizarin complexan;Alizarine complexan;NSC 293056;<em>N</em>-(3,4-Dihydroxy-2-anthraquinonylmethyl)iminodiacetic acid;2,2′-(((3,4-Dihydroxy-9,10-dioxo-9,10-dihydroanthracen-2-yl)methyl)azanediyl)diacetic acid;2,2′-[[(3,4-Dihydroxy-9,10-dioxo-9,10-dihydroanthracen-2-yl)methyl]imino]diacetic acid;2-[Carboxymethyl-[(3,4-dihydroxy-9,10-dioxoanthracen-2-yl)methyl]amino]acetic acid;Alizarin-3-methyliminodiacetic acid",
    "duplicated_cas_no": "31034-02-3",
    "SMILES": "O=C1C=2C(C(=O)C=3C1=CC=CC3)=CC(CN(CC(O)=O)CC(O)=O)=C(O)C2O",
    "meta_data": {
        "InChI": "InChI=1S/C19H15NO8/c21-13(22)7-20(8-14(23)24)6-9-5-12-15(19(28)16(9)25)18(27)11-4-2-1-3-10(11)17(12)26/h1-5,25,28H,6-8H2,(H,21,22)(H,23,24)",
        "InChIKey": null,
        "Canonical SMILES": "O=C(O)CN(CC(=O)O)CC1=CC=2C(=O)C=3C=CC=CC3C(=O)C2C(O)=C1O",
        "Molecular Formula": "C<sub>19</sub>H<sub>15</sub>NO<sub>8</sub>",
        "Molecular Mass": "385.32",
        "Melting Point": "184 °C"
    }
}