{
    "cas_no": "5405-41-4",
    "key_name": "Ethyl 3-hydroxybutyrate",
    "cn_name": "3-羟基丁酸乙酯;",
    "alternate_name": "Butanoic acid, 3-hydroxy-, ethyl ester;Butyric acid, 3-hydroxy-, ethyl ester;Butyric acid, β-hydroxy-, ethyl ester;Ethyl 3-hydroxybutyrate;Ethyl 3-hydroxybutanoate;Ethyl β-hydroxybutyrate;3-Hydroxybutanoic acid ethyl ester;3-Hydroxybutyric acid ethyl ester;Ethyl <span class=\"text-smallcaps\">DL</span>-3-hydroxybutyrate;(±)-3-Hydroxybutanoic acid ethyl ester;(±)-Ethyl 3-hydroxybutyrate;Ethyl (±)-3-hydroxybutanoate;NSC 42916;NSC 8115;<span class=\"text-smallcaps\">D</smallcap><smallcap>L</span>-3-Hydroxy-<em>n</em>-butyrate ethyl ester",
    "duplicated_cas_no": "35608-64-1",
    "SMILES": "C(C(OCC)=O)C(C)O",
    "meta_data": {
        "InChI": "InChI=1S/C6H12O3/c1-3-9-6(8)4-5(2)7/h5,7H,3-4H2,1-2H3",
        "InChIKey": null,
        "Canonical SMILES": "O=C(OCC)CC(O)C",
        "Molecular Formula": "C<sub>6</sub>H<sub>12</sub>O<sub>3</sub>",
        "Molecular Mass": "132.16",
        "Boiling Point": "185 °C",
        "Density": "1.017 g/cm³ @ Temp: 20 °C"
    }
}