{
    "cas_no": "299-86-5",
    "key_name": "Crufomate",
    "cn_name": "育畜磷;育畜磷[含量＞90%];育畜磷乳剂[含量＞20%];育畜磷;克芦磷酯;育畜胺磷;",
    "alternate_name": "Phosphoramidic acid, <em>N</em>-methyl-, 2-chloro-4-(1,1-dimethylethyl)phenyl methyl ester;Phosphoramidic acid, methyl-, 4-<em>tert</em>-butyl-2-chlorophenyl methyl ester;Phosphoramidic acid, methyl-, 2-chloro-4-(1,1-dimethylethyl)phenyl methyl ester;Dowco 132;4-<em>tert</em>-Butyl-2-chlorophenyl methyl <em>N</em>-methylphosphoramidate;4-<em>tert</em>-Butyl-2-chlorophenyl methyl methylphosphoramidate;Crufomate;Montrel;Ruelene;Ruelene drench;Amidophos;Amidofos;4-<em>tert</em>-Butyl-2-chlorophenyl <em>N</em>-methyl <em>O</em>-methylphosphoramidate;Crufomat;NSC 253463",
    "duplicated_cas_no": "12676-14-1;150402-57-6",
    "SMILES": "O(P(NC)(OC)=O)C1=C(Cl)C=C(C(C)(C)C)C=C1",
    "meta_data": {
        "InChI": "InChI=1S/C12H19ClNO3P/c1-12(2,3)9-6-7-11(10(13)8-9)17-18(15,14-4)16-5/h6-8H,1-5H3,(H,14,15)",
        "InChIKey": null,
        "Canonical SMILES": "O=P(OC1=CC=C(C=C1Cl)C(C)(C)C)(OC)NC",
        "Molecular Formula": "C<sub>12</sub>H<sub>19</sub>ClNO<sub>3</sub>P",
        "Molecular Mass": "291.71",
        "Boiling Point": "117-118 °C @ Press: 0.01 Torr",
        "Melting Point": "60-60.5 °C",
        "Density": "1.1618 g/cm³ @ Temp: 70 °C"
    }
}