{
    "cas_no": "14794-31-1",
    "key_name": "Ethyl succinyl chloride",
    "cn_name": "丁二酸单乙酯酰氯;",
    "alternate_name": "Butanoic acid, 4-chloro-4-oxo-, ethyl ester;Propionic acid, 3-(chloroformyl)-, ethyl ester;β-Carbethoxypropionyl chloride;Ethyl succinoyl chloride;Ethyl succinyl chloride;Ethyl 3-(chloroformyl)propionate;β-Ethoxycarbonylpropionyl chloride;3-Carbethoxypropionyl chloride;Ethyl 3-(chlorocarbonyl)propanoate;3-(Ethoxycarbonyl)propanoyl chloride;Ethyl 4-chloro-4-oxobutanoate;Succinic acid ethyl ester chloride;3-(Ethoxycarbonyl)propionyl chloride;Monoethyl succinoyl chloride;Ethyl succinoyl monochloride;Ethyl 4-chloro-4-oxobutyrate;4-Ethoxy-4-oxobutanoic acid chloride;3-Chlorocarbonylpropionic acid ethyl ester;Ethyl 3-chlorocarbonylpropionate;Succinic acid monoethyl chloride;4-Chloro-4-oxobutanoic acid ethyl ester;Succinic acid chloride monoethyl ester",
    "duplicated_cas_no": "97900-84-0;473694-30-3",
    "SMILES": "C(CCC(Cl)=O)(OCC)=O",
    "meta_data": {
        "InChI": "InChI=1S/C6H9ClO3/c1-2-10-6(9)4-3-5(7)8/h2-4H2,1H3",
        "InChIKey": null,
        "Canonical SMILES": "O=C(Cl)CCC(=O)OCC",
        "Molecular Formula": "C<sub>6</sub>H<sub>9</sub>ClO<sub>3</sub>",
        "Molecular Mass": "164.59",
        "Boiling Point": "94-95 °C @ Press: 14 Torr"
    }
}