{
    "cas_no": "15486-34-7",
    "key_name": "5-Hydroxy-3,7,4′-trimethoxyflavone",
    "cn_name": null,
    "alternate_name": "4<em>H</em>-1-Benzopyran-4-one, 5-hydroxy-3,7-dimethoxy-2-(4-methoxyphenyl)-;Flavone, 5-hydroxy-3,4′,7-trimethoxy-;5-Hydroxy-3,7-dimethoxy-2-(4-methoxyphenyl)-4<em>H</em>-1-benzopyran-4-one;Kaempferol 3,4′,7-trimethyl ether;3,4′,7-Tri-<em>O</em>-methylkaempferol;5-Hydroxy-3,4′,7-trimethoxyflavone;5-Hydroxy-3,7,4′-trimethoxyflavone;3,4′,7-Trimethylkaempferol;3,7,4′-Tri-<em>O</em>-methylkaempferol;Kaempferol 3,7,4′-trimethyl ether;3,7,4′-Trimethylkaempferol;NSC 675951;5-Hydroxy-3,7-dimethoxy-2-(4-methoxyphenyl)-4<em>H</em>-chromen-4-one",
    "duplicated_cas_no": "98006-99-6",
    "SMILES": "O(C)C1=C(OC=2C(C1=O)=C(O)C=C(OC)C2)C3=CC=C(OC)C=C3",
    "meta_data": {
        "InChI": "InChI=1S/C18H16O6/c1-21-11-6-4-10(5-7-11)17-18(23-3)16(20)15-13(19)8-12(22-2)9-14(15)24-17/h4-9,19H,1-3H3",
        "InChIKey": null,
        "Canonical SMILES": "O=C1C(OC)=C(OC=2C=C(OC)C=C(O)C12)C=3C=CC(OC)=CC3",
        "Molecular Formula": "C<sub>18</sub>H<sub>16</sub>O<sub>6</sub>",
        "Molecular Mass": "328.32",
        "Melting Point": "145-146 °C"
    }
}