{
    "cas_no": "29621-88-3",
    "key_name": "<span class=\"text-smallcaps\">L</span>-Selenocystine",
    "cn_name": "硒代胱氨酸;",
    "alternate_name": "<span class=\"text-smallcaps\">L</span>-Alanine, 3,3′-diselenobis-;Alanine, 3,3′-diselenodi-, <span class=\"text-smallcaps\">L</span>-;3,3′-Diselenobis[<span class=\"text-smallcaps\">L</span>-alanine];<span class=\"text-smallcaps\">L</span>-Selenocystine;Selenocystine",
    "duplicated_cas_no": "5034-33-3",
    "SMILES": "[C@H](C[Se][Se]C[C@@H](C(O)=O)N)(C(O)=O)N",
    "meta_data": {
        "InChI": "InChI=1S/C6H12N2O4Se2/c7-3(5(9)10)1-13-14-2-4(8)6(11)12/h3-4H,1-2,7-8H2,(H,9,10)(H,11,12)/t3-,4-/m0/s1",
        "InChIKey": null,
        "Canonical SMILES": "O=C(O)C(N)C[Se][Se]CC(N)C(=O)O",
        "Molecular Formula": "C<sub>6</sub>H<sub>12</sub>N<sub>2</sub>O<sub>4</sub>Se<sub>2</sub>",
        "Molecular Mass": "334.09",
        "Melting Point": "222 °C (decomp)"
    }
}