{
    "cas_no": "4775-98-8",
    "key_name": "6-Methyl-2-piperidone",
    "cn_name": null,
    "alternate_name": "2-Piperidinone, 6-methyl-;2-Piperidone, 6-methyl-;2-Piperidinone, 6-methyl-, (±)-;6-Methyl-2-piperidinone;Hexanoic acid, 5-amino-, lactam;2-Pipecolin-6-one;6-Methyl-2-piperidone;6-Methyl-δ-valerolactam;(±)-6-Methyl-2-piperidone;(±)-6-Methyl-2-piperidinone",
    "duplicated_cas_no": "65337-38-4",
    "SMILES": "CC1NC(=O)CCC1",
    "meta_data": {
        "InChI": "InChI=1S/C6H11NO/c1-5-3-2-4-6(8)7-5/h5H,2-4H2,1H3,(H,7,8)",
        "InChIKey": null,
        "Canonical SMILES": "O=C1NC(C)CCC1",
        "Molecular Formula": "C<sub>6</sub>H<sub>11</sub>NO",
        "Molecular Mass": "113.16",
        "Boiling Point": "140-148 °C",
        "Melting Point": "87.2-88 °C"
    }
}