{
    "cas_no": "330-54-1",
    "key_name": "Diuron",
    "cn_name": "敌草隆;3-(3,4-二氯苯基)-1,1-二甲基脲;",
    "alternate_name": "Urea, <em>N</em>′-(3,4-dichlorophenyl)-<em>N</em>,<em>N</em>-dimethyl-;Urea, 3-(3,4-dichlorophenyl)-1,1-dimethyl-;<em>N</em>′-(3,4-Dichlorophenyl)-<em>N</em>,<em>N</em>-dimethylurea;DCMU;<em>N</em>-(3,4-Dichlorophenyl)-<em>N</em>′,<em>N</em>′-dimethylurea;3-(3,4-Dichlorophenyl)-1,1-dimethylurea;1,1-Dimethyl-3-(3,4-dichlorophenyl)urea;Diuron;Duran;Karmex;Karmex Diuron Herbicide;Karmex DW;Marmer;Telvar Diuron Weed Killer;1-(3,4-Dichlorophenyl)-3,3-dimethylurea;DMU;Herbatox;HW 920;Karmex D;DP Hardener 95;Lucenit;DCMC;DCMU 99;Dyhard UR 200;<em>N</em>,<em>N</em>-Dimethyl-<em>N</em>′-(3,4-dichlorophenyl)urea;Preventol A 6;HRT Dinron;Diuron Nortox;Karmax;NSC 8950;Dairon;DCMU 9;Dironzol;Dironet;Direx;SM 400;SM 400 (curing agent);Cardi;101S;Dyhard 200;Diurex;UR 200;Biocut DC 100;Epiclon B 605IM;DCMUH;B 605IM;Dichlorfenidim;MeSH ID: D004237",
    "duplicated_cas_no": "56449-18-4;102962-29-8;127641-75-2;150825-44-8;201749-62-4;2097333-87-2",
    "SMILES": "N(C(N(C)C)=O)C1=CC(Cl)=C(Cl)C=C1",
    "meta_data": {
        "InChI": "InChI=1S/C9H10Cl2N2O/c1-13(2)9(14)12-6-3-4-7(10)8(11)5-6/h3-5H,1-2H3,(H,12,14)",
        "InChIKey": null,
        "Canonical SMILES": "O=C(NC1=CC=C(Cl)C(Cl)=C1)N(C)C",
        "Molecular Formula": "C<sub>9</sub>H<sub>10</sub>Cl<sub>2</sub>N<sub>2</sub>O",
        "Molecular Mass": "233.09",
        "Melting Point": "158-159 °C",
        "Density": "1.1786 g/cm³"
    }
}