{
    "cas_no": "14316-06-4",
    "key_name": "<span class=\"text-smallcaps\">D</span>-Alanine, methyl ester, hydrochloride",
    "cn_name": "D-丙氨酸甲酯盐酸盐;",
    "alternate_name": "<span class=\"text-smallcaps\">D</span>-Alanine, methyl ester, hydrochloride (1:1);Alanine, methyl ester, hydrochloride, <span class=\"text-smallcaps\">D</span>-;<span class=\"text-smallcaps\">D</span>-Alanine, methyl ester, hydrochloride;Methyl <span class=\"text-smallcaps\">D</span>-alaninate hydrochloride;(<em>R</em>)-2-Aminopropionic acid methyl ester hydrochloride;(<em>R</em>)-Alanine methyl ester hydrochloride;NSC 523192;(R)-1-(Methoxycarbonyl)ethylamine hydrochloride;Methyl (<em>R</em>)-2-aminopropanoate hydrochloride;(R)-Methyl 2-aminopropanoate hydrochloride",
    "duplicated_cas_no": "",
    "SMILES": "C([C@@H](C)N)(OC)=O.Cl",
    "meta_data": {
        "InChI": "InChI=1S/C4H9NO2.ClH/c1-3(5)4(6)7-2;/h3H,5H2,1-2H3;1H/t3-;/m1./s1",
        "InChIKey": null,
        "Canonical SMILES": "Cl.O=C(OC)C(N)C",
        "Molecular Formula": "C<sub>4</sub>H<sub>9</sub>NO<sub>2</sub>.ClH",
        "Molecular Mass": "",
        "Melting Point": "95-97 °C"
    }
}