{
    "cas_no": "126-30-7",
    "key_name": "Neopentyl glycol",
    "cn_name": "2,2-二甲基-1,3-丙二醇;新戊二醇;",
    "alternate_name": "1,3-Propanediol, 2,2-dimethyl-;2,2-Dimethyl-1,3-propanediol;Dimethylolpropane;Neopentylene glycol;Neopentyl glycol;Neopentanediol;Hydroxypivalyl alcohol;1,3-Dihydroxy-2,2-dimethylpropane;2,2-Dimethyl-1,3-dihydroxypropane;2,2-Dimethyltrimethylene glycol;2,2-Bis(hydroxymethyl)propane;2,2-Dimethylpropan-1,3-diol;Nexcoat 600;NSC 55836;NSC 6366;2,2-Dimethylolpropane;2,2-Dimethyl-1,3-propylene glycol;2,2-Dimethylpropanediol monoacrylate monomethacrylate;3-Hydroxy-2,2-dimethylpropanol;R 2490;Neeture N 40;G 259",
    "duplicated_cas_no": "111109-35-4",
    "SMILES": "C(CO)(CO)(C)C",
    "meta_data": {
        "InChI": "InChI=1S/C5H12O2/c1-5(2,3-6)4-7/h6-7H,3-4H2,1-2H3",
        "InChIKey": null,
        "Canonical SMILES": "OCC(C)(C)CO",
        "Molecular Formula": "C<sub>5</sub>H<sub>12</sub>O<sub>2</sub>",
        "Molecular Mass": "104.15",
        "Boiling Point": "210 °C",
        "Melting Point": "127 °C",
        "Density": "1.1 g/cm³"
    }
}