{
    "cas_no": "16251-77-7",
    "key_name": "3-Phenylbutanal",
    "cn_name": null,
    "alternate_name": "Benzenepropanal, β-methyl-;Hydrocinnamaldehyde, β-methyl-;β-Methylbenzenepropanal;3-Phenylbutanal;3-Phenylbutyraldehyde;(<em>RS</em>)-3-Phenylbutanal;(±)-3-Phenylbutyraldehyde;Trifernal;3-Methyl-3-phenylpropionaldehyde;3-Phenylbutylaldehyde;3-Phenyl-1-butanal",
    "duplicated_cas_no": "108211-22-9;65885-41-8",
    "SMILES": "C(CC=O)(C)C1=CC=CC=C1",
    "meta_data": {
        "InChI": "InChI=1S/C10H12O/c1-9(7-8-11)10-5-3-2-4-6-10/h2-6,8-9H,7H2,1H3",
        "InChIKey": null,
        "Canonical SMILES": "O=CCC(C=1C=CC=CC1)C",
        "Molecular Formula": "C<sub>10</sub>H<sub>12</sub>O",
        "Molecular Mass": "148.20",
        "Boiling Point": "110 °C @ Press: 9 Torr",
        "Density": "1.059 g/cm³ @ Temp: 20 °C"
    }
}