{
    "cas_no": "1438-30-8",
    "key_name": "Netropsin",
    "cn_name": null,
    "alternate_name": "1<em>H</em>-Pyrrole-2-carboxamide, 4-[[2-[(aminoiminomethyl)amino]acetyl]amino]-<em>N</em>-[5-[[(3-amino-3-iminopropyl)amino]carbonyl]-1-methyl-1<em>H</em>-pyrrol-3-yl]-1-methyl-;<em>N</em>,4′-Bi[pyrrole-2-carboxamide], <em>N</em>′-(2-amidinoethyl)-4-(2-guanidinoacetamido)-1,1′-dimethyl-;1<em>H</em>-Pyrrole-2-carboxamide, 4-[[[(aminoiminomethyl)amino]acetyl]amino]-<em>N</em>-[5-[[(3-amino-3-iminopropyl)amino]carbonyl]-1-methyl-1<em>H</em>-pyrrol-3-yl]-1-methyl-;Congocidine;4-[[2-[(Aminoiminomethyl)amino]acetyl]amino]-<em>N</em>-[5-[[(3-amino-3-iminopropyl)amino]carbonyl]-1-methyl-1<em>H</em>-pyrrol-3-yl]-1-methyl-1<em>H</em>-pyrrole-2-carboxamide;IA 887;Congocidin;Sinanomycin;T 1384;Netropsin;NSC 3067;NCI 3067;MeSH ID: D009429",
    "duplicated_cas_no": "554-32-5;1403-42-5;47686-02-2",
    "SMILES": "C(NC=1C=C(C(NCCC(=N)N)=O)N(C)C1)(=O)C2=CC(NC(CNC(=N)N)=O)=CN2C",
    "meta_data": {
        "InChI": "InChI=1S/C18H26N10O3/c1-27-9-11(6-12(27)16(30)23-4-3-14(19)20)26-17(31)13-5-10(8-28(13)2)25-15(29)7-24-18(21)22/h5-6,8-9H,3-4,7H2,1-2H3,(H3,19,20)(H,23,30)(H,25,29)(H,26,31)(H4,21,22,24)",
        "InChIKey": null,
        "Canonical SMILES": "O=C(NC=1C=C(C(=O)NCCC(=N)N)N(C1)C)C2=CC(=CN2C)NC(=O)CNC(=N)N",
        "Molecular Formula": "C<sub>18</sub>H<sub>26</sub>N<sub>10</sub>O<sub>3</sub>",
        "Molecular Mass": "430.46",
        "Melting Point": "171-173 °C"
    }
}