{
    "cas_no": "3025-96-5",
    "key_name": "4-Acetamidobutyric acid",
    "cn_name": "4-乙酰氨基丁酸;",
    "alternate_name": "Butanoic acid, 4-(acetylamino)-;Butyric acid, 4-acetamido-;4-(Acetylamino)butanoic acid;<em>N</em>-Acetyl-4-aminobutyric acid;4-Acetamidobutyric acid;<em>N</em>-Acetyl-4-aminobutanoic acid;4-Acetylaminobutyric acid;<em>N</em>-Acetyl-γ-aminobutyric acid;<em>N</em>-acetyl GABA;NSC 27423;4-Acetamidobutanoic acid",
    "duplicated_cas_no": "125078-66-2",
    "SMILES": "C(CNC(C)=O)CC(O)=O",
    "meta_data": {
        "InChI": "InChI=1S/C6H11NO3/c1-5(8)7-4-2-3-6(9)10/h2-4H2,1H3,(H,7,8)(H,9,10)",
        "InChIKey": null,
        "Canonical SMILES": "O=C(O)CCCNC(=O)C",
        "Molecular Formula": "C<sub>6</sub>H<sub>11</sub>NO<sub>3</sub>",
        "Molecular Mass": "145.16",
        "Melting Point": "126-128 °C"
    }
}