{
    "cas_no": "3216-48-6",
    "key_name": "Benzo[<em>b</em>]thiophene-3-acetonitrile",
    "cn_name": "苯并[b]噻吩-3-乙腈;",
    "alternate_name": "Benzo[<em>b</em>]thiophene-3-acetonitrile;3-Benzothienylacetonitrile;3-Benzothiopheneacetonitrile;3-(Cyanomethyl)benzo[<em>b</em>]thiophene;NSC 332302;(Benzo[<em>b</em>]thiophen-3-yl)acetonitrile;Thianaphthene-3-acetonirile;2-(Benzo[<em>b</em>]thien-3-yl)acetonitrile;2-(1-Benzothiophen-3-yl)acetonitrile",
    "duplicated_cas_no": "",
    "SMILES": "C(C#N)C=1C=2C(SC1)=CC=CC2",
    "meta_data": {
        "InChI": "InChI=1S/C10H7NS/c11-6-5-8-7-12-10-4-2-1-3-9(8)10/h1-4,7H,5H2",
        "InChIKey": null,
        "Canonical SMILES": "N#CCC1=CSC=2C=CC=CC21",
        "Molecular Formula": "C<sub>10</sub>H<sub>7</sub>NS",
        "Molecular Mass": "173.23",
        "Boiling Point": "138-140 °C @ Press: 2 Torr",
        "Melting Point": "66-67 °C"
    }
}