{
    "cas_no": "5875-24-1",
    "key_name": "3-Chloropropanamide",
    "cn_name": "3-氯丙酰胺;",
    "alternate_name": "Propanamide, 3-chloro-;Propionamide, 3-chloro-;3-Chloropropanamide;3-Chloropropionamide;β-Chloropropionamide;NSC 401789",
    "duplicated_cas_no": "",
    "SMILES": "C(C(N)=O)CCl",
    "meta_data": {
        "InChI": "InChI=1S/C3H6ClNO/c4-2-1-3(5)6/h1-2H2,(H2,5,6)",
        "InChIKey": null,
        "Canonical SMILES": "O=C(N)CCCl",
        "Molecular Formula": "C<sub>3</sub>H<sub>6</sub>ClNO",
        "Molecular Mass": "107.54",
        "Melting Point": "102 °C"
    }
}