{
    "cas_no": "621-01-2",
    "key_name": "<em>N</em>,<em>N</em>′-Bis(4-methylphenyl)thiourea",
    "cn_name": "1,3-二对甲苯基-2-硫脲;4,4-二甲苯硫脲;4,4-二甲基对二苯硫脲;",
    "alternate_name": "Thiourea, <em>N</em>,<em>N</em>′-bis(4-methylphenyl)-;Carbanilide, 4,4′-dimethylthio-;<em>N</em>,<em>N</em>′-Bis(4-methylphenyl)thiourea;<em>N</em>,<em>N</em>′-Di-<em>p</em>-tolylthiourea;1,3-Di-<em>p</em>-tolylthiourea;1,3-Di-<em>p</em>-tolylthiocarbamide;<em>N</em>,<em>N</em>′-Bis(<em>p</em>-tolyl)thiourea;1,3-Bis(<em>p</em>-tolyl)thiourea;1,3-Di-<em>p</em>-tolyl-2-thiourea;1,3-Bis(4-methylphenyl)thiourea;NSC 687;<em>sym</em>-Di-<em>p</em>-tolylthiourea",
    "duplicated_cas_no": "",
    "SMILES": "N(C(NC1=CC=C(C)C=C1)=S)C2=CC=C(C)C=C2",
    "meta_data": {
        "InChI": "InChI=1S/C15H16N2S/c1-11-3-7-13(8-4-11)16-15(18)17-14-9-5-12(2)6-10-14/h3-10H,1-2H3,(H2,16,17,18)",
        "InChIKey": null,
        "Canonical SMILES": "S=C(NC1=CC=C(C=C1)C)NC2=CC=C(C=C2)C",
        "Molecular Formula": "C<sub>15</sub>H<sub>16</sub>N<sub>2</sub>S",
        "Molecular Mass": "256.37",
        "Melting Point": "183 °C"
    }
}