{
    "cas_no": "226561-02-0",
    "key_name": "(-)-2-[(3,5-Dihydroxy-4-methoxyphenyl)methyl]-2,4,6-trihydroxy-3(2<em>H</em>)-benzofuranone",
    "cn_name": null,
    "alternate_name": "3(2<em>H</em>)-Benzofuranone, 2-[(3,5-dihydroxy-4-methoxyphenyl)methyl]-2,4,6-trihydroxy-, (-)-;(-)-2-[(3,5-Dihydroxy-4-methoxyphenyl)methyl]-2,4,6-trihydroxy-3(2<em>H</em>)-benzofuranone;Amaronol B;2-[(3,5-Dihydroxy-4-methoxyphenyl)methyl]-2,4,6-trihydroxy-1-benzofuran-3-one",
    "duplicated_cas_no": "",
    "SMILES": "C(C1(O)C(=O)C=2C(O1)=CC(O)=CC2O)C3=CC(O)=C(OC)C(O)=C3",
    "meta_data": {
        "InChI": "InChI=1S/C16H14O8/c1-23-14-10(19)2-7(3-11(14)20)6-16(22)15(21)13-9(18)4-8(17)5-12(13)24-16/h2-5,17-20,22H,6H2,1H3",
        "InChIKey": null,
        "Canonical SMILES": "O=C1C=2C(O)=CC(O)=CC2OC1(O)CC3=CC(O)=C(OC)C(O)=C3",
        "Molecular Formula": "C<sub>16</sub>H<sub>14</sub>O<sub>8</sub>",
        "Molecular Mass": "334.28",
        "Melting Point": "94-96 °C"
    }
}