{
    "cas_no": "1535-67-7",
    "key_name": "[(Difluoromethyl)thio]benzene",
    "cn_name": null,
    "alternate_name": "Benzene, [(difluoromethyl)thio]-;Sulfide, difluoromethyl phenyl;[(Difluoromethyl)thio]benzene;Difluoromethyl phenyl sulfide;(Difluoromethylthio)benzene;Phenyl difluoromethyl sulfide;Difluoro(phenylsulfanyl)methane;[(Difluoromethyl)sulfanyl]benzene;(Difluoromethyl)(phenyl)sulfane",
    "duplicated_cas_no": "",
    "SMILES": "S(C(F)F)C1=CC=CC=C1",
    "meta_data": {
        "InChI": "InChI=1S/C7H6F2S/c8-7(9)10-6-4-2-1-3-5-6/h1-5,7H",
        "InChIKey": null,
        "Canonical SMILES": "FC(F)SC=1C=CC=CC1",
        "Molecular Formula": "C<sub>7</sub>H<sub>6</sub>F<sub>2</sub>S",
        "Molecular Mass": "160.18",
        "Boiling Point": "62-63 °C @ Press: 7 Torr"
    }
}