{
    "cas_no": "4448-75-3",
    "key_name": "Cycloheptanemethanol",
    "cn_name": null,
    "alternate_name": "Cycloheptanemethanol;Cycloheptylmethanol;(Hydroxymethyl)cycloheptane",
    "duplicated_cas_no": "",
    "SMILES": "C(O)C1CCCCCC1",
    "meta_data": {
        "InChI": "InChI=1S/C8H16O/c9-7-8-5-3-1-2-4-6-8/h8-9H,1-7H2",
        "InChIKey": null,
        "Canonical SMILES": "OCC1CCCCCC1",
        "Molecular Formula": "C<sub>8</sub>H<sub>16</sub>O",
        "Molecular Mass": "128.21",
        "Boiling Point": "80-90 °C @ Press: 15 Torr",
        "Density": "0.9315 g/cm³ @ Temp: 20 °C"
    }
}