{
    "cas_no": "76185-65-4",
    "key_name": "<em>N</em>,<em>N</em>,<em>N</em>′,<em>N</em>′-Tetra(4-methylphenyl)-1,1′-biphenyl-4,4′-diamine",
    "cn_name": "N,N,N\",N\"-四(4-甲苯基)-1,1\"-联苯-4,4\"-二胺;",
    "alternate_name": "[1,1′-Biphenyl]-4,4′-diamine, <em>N</em><sup>4</sup>,<em>N</em><sup>4</sup>,<em>N</em><sup>4′</sup>,<em>N</em><sup>4′</sup>-tetrakis(4-methylphenyl)-;[1,1′-Biphenyl]-4,4′-diamine, <em>N</em>,<em>N</em>,<em>N</em>′,<em>N</em>′-tetrakis(4-methylphenyl)-;Benzidine, <em>N</em>,<em>N</em>,<em>N</em>′,<em>N</em>′-tetra-<em>p</em>-tolyl-;<em>N</em>,<em>N</em>′,<em>N</em>′′,<em>N</em>′′′-Tetrakis(4-methylphenyl)-(1,1′-biphenyl)-4,4′-diamine;<em>N</em>,<em>N</em>,<em>N</em>′,<em>N</em>′-Tetra-<em>p</em>-tolyl-(1,1′-biphenyl)-4,4′-diamine;TTB;<em>N</em>,<em>N</em>,<em>N</em>′,<em>N</em>′-Tetrakis(4-methylphenyl)benzidine;OSA 6140;<em>N</em>,<em>N</em>,<em>N</em>′,<em>N</em>′-Tetra(4-methylphenyl)-1,1′-biphenyl-4,4′-diamine;Tetra-<em>p</em>-tolylbiphenyl-4,4′-diamine;T 2269",
    "duplicated_cas_no": "",
    "SMILES": "N(C1=CC=C(C=C1)C2=CC=C(N(C3=CC=C(C)C=C3)C4=CC=C(C)C=C4)C=C2)(C5=CC=C(C)C=C5)C6=CC=C(C)C=C6",
    "meta_data": {
        "InChI": "InChI=1S/C40H36N2/c1-29-5-17-35(18-6-29)41(36-19-7-30(2)8-20-36)39-25-13-33(14-26-39)34-15-27-40(28-16-34)42(37-21-9-31(3)10-22-37)38-23-11-32(4)12-24-38/h5-28H,1-4H3",
        "InChIKey": null,
        "Canonical SMILES": "C=1C=C(C=CC1C=2C=CC(=CC2)N(C3=CC=C(C=C3)C)C4=CC=C(C=C4)C)N(C5=CC=C(C=C5)C)C6=CC=C(C=C6)C",
        "Molecular Formula": "C<sub>40</sub>H<sub>36</sub>N<sub>2</sub>",
        "Molecular Mass": "544.73",
        "Melting Point": "210 °C"
    }
}