{
    "cas_no": "139756-01-7",
    "key_name": "1-Methyl-4-nitro-3-propyl-1<em>H</em>-pyrazole-5-carboxamide",
    "cn_name": "1-甲基-4-硝基-3-丙基-(1H)-吡唑-5-甲酰胺;",
    "alternate_name": "1<em>H</em>-Pyrazole-5-carboxamide, 1-methyl-4-nitro-3-propyl-;1-Methyl-4-nitro-3-propyl-1<em>H</em>-pyrazole-5-carboxamide;1-Methyl-4-nitro-3-propylpyrazole-5-carboxamide;2-Methyl-4-nitro-5-propylpyrazole-3-carboxamide",
    "duplicated_cas_no": "",
    "SMILES": "N(=O)(=O)C1=C(C(N)=O)N(C)N=C1CCC",
    "meta_data": {
        "InChI": "InChI=1S/C8H12N4O3/c1-3-4-5-6(12(14)15)7(8(9)13)11(2)10-5/h3-4H2,1-2H3,(H2,9,13)",
        "InChIKey": null,
        "Canonical SMILES": "O=C(N)C1=C(C(=NN1C)CCC)N(=O)=O",
        "Molecular Formula": "C<sub>8</sub>H<sub>12</sub>N<sub>4</sub>O<sub>3</sub>",
        "Molecular Mass": "212.21",
        "Melting Point": "141-143 °C"
    }
}