{
    "cas_no": "601-87-6",
    "key_name": "3-Methyl-2-nitrobenzenamine",
    "cn_name": "3-甲基-2-硝基苯胺;",
    "alternate_name": "Benzenamine, 3-methyl-2-nitro-;<em>m</em>-Toluidine, 2-nitro-;3-Methyl-2-nitrobenzenamine;2-Nitro-3-methylaniline;3-Methyl-2-nitroaniline;3-Amino-2-nitrotoluene",
    "duplicated_cas_no": "",
    "SMILES": "N(=O)(=O)C1=C(C)C=CC=C1N",
    "meta_data": {
        "InChI": "InChI=1S/C7H8N2O2/c1-5-3-2-4-6(8)7(5)9(10)11/h2-4H,8H2,1H3",
        "InChIKey": null,
        "Canonical SMILES": "O=N(=O)C=1C(N)=CC=CC1C",
        "Molecular Formula": "C<sub>7</sub>H<sub>8</sub>N<sub>2</sub>O<sub>2</sub>",
        "Molecular Mass": "152.15",
        "Melting Point": "107-108 °C"
    }
}