{
    "cas_no": "1719-53-5",
    "key_name": "Dichlorodiethylsilane",
    "cn_name": "二氯二乙基硅烷;二乙基二氯硅烷;",
    "alternate_name": "Silane, dichlorodiethyl-;Dichlorodiethylsilane;Diethyldichlorosilane;Diethyldichlorosilicon",
    "duplicated_cas_no": "",
    "SMILES": "[Si](CC)(CC)(Cl)Cl",
    "meta_data": {
        "InChI": "InChI=1S/C4H10Cl2Si/c1-3-7(5,6)4-2/h3-4H2,1-2H3",
        "InChIKey": null,
        "Canonical SMILES": "Cl[Si](Cl)(CC)CC",
        "Molecular Formula": "C<sub>4</sub>H<sub>10</sub>Cl<sub>2</sub>Si",
        "Molecular Mass": "157.11",
        "Boiling Point": "130 °C",
        "Melting Point": "-96.5 °C",
        "Density": "1.0504 g/cm³ @ Temp: 20 °C"
    }
}