{
    "cas_no": "17241-59-7",
    "key_name": "2-(Hydroxymethyl)anthraquinone",
    "cn_name": "2-羟甲基蒽醌;",
    "alternate_name": "9,10-Anthracenedione, 2-(hydroxymethyl)-;Anthraquinone, 2-(hydroxymethyl)-;2-(Hydroxymethyl)-9,10-anthracenedione;2-(Hydroxymethyl)anthraquinone;2-(Hydroxymethyl)-9,10-anthraquinone",
    "duplicated_cas_no": "",
    "SMILES": "O=C1C=2C(C(=O)C=3C1=CC=CC3)=CC=C(CO)C2",
    "meta_data": {
        "InChI": "InChI=1S/C15H10O3/c16-8-9-5-6-12-13(7-9)15(18)11-4-2-1-3-10(11)14(12)17/h1-7,16H,8H2",
        "InChIKey": null,
        "Canonical SMILES": "O=C1C=2C=CC=CC2C(=O)C3=CC(=CC=C13)CO",
        "Molecular Formula": "C<sub>15</sub>H<sub>10</sub>O<sub>3</sub>",
        "Molecular Mass": "238.24",
        "Melting Point": "183 °C"
    }
}