{
    "cas_no": "58994-96-0",
    "key_name": "Ranimustine",
    "cn_name": "雷莫司汀;1-(2-氯乙基)-1-亚硝基-3-[[(2R,3S,4S,5R,6S)-3,4,5-三羟基-6-甲氧基-氧杂己环-2-基]甲基]脲;",
    "alternate_name": "α-<span class=\"text-smallcaps\">D</span>-Glucopyranoside, methyl 6-[[[(2-chloroethyl)nitrosoamino]carbonyl]amino]-6-deoxy-;Methyl 6-[[[(2-chloroethyl)nitrosoamino]carbonyl]amino]-6-deoxy-α-<span class=\"text-smallcaps\">D</span>-glucopyranoside;MCNU;Cymerin;Cymerine;Ranimustine;NSC 270516;Ramustine",
    "duplicated_cas_no": "",
    "SMILES": "C(NC(N(CCCl)N=O)=O)[C@H]1O[C@H](OC)[C@H](O)[C@@H](O)[C@@H]1O",
    "meta_data": {
        "InChI": "InChI=1S/C10H18ClN3O7/c1-20-9-8(17)7(16)6(15)5(21-9)4-12-10(18)14(13-19)3-2-11/h5-9,15-17H,2-4H2,1H3,(H,12,18)/t5-,6-,7+,8-,9+/m1/s1",
        "InChIKey": null,
        "Canonical SMILES": "O=NN(C(=O)NCC1OC(OC)C(O)C(O)C1O)CCCl",
        "Molecular Formula": "C<sub>10</sub>H<sub>18</sub>ClN<sub>3</sub>O<sub>7</sub>",
        "Molecular Mass": "327.72",
        "Melting Point": "111 °C"
    }
}