{
    "cas_no": "16213-85-7",
    "key_name": "2,5-Dimethylbenzeneacetonitrile",
    "cn_name": "2,5-二甲基苯乙腈;2,5-二甲基氰苄;",
    "alternate_name": "Benzeneacetonitrile, 2,5-dimethyl-;Acetonitrile, (2,5-xylyl)-;2,5-Dimethylbenzeneacetonitrile;2,5-Dimethylphenylacetonitrile;2,5-Dimethylbenzyl cyanide;NSC 85352;2-(2,5-Dimethylphenyl)acetonitrile",
    "duplicated_cas_no": "",
    "SMILES": "C(C#N)C1=C(C)C=CC(C)=C1",
    "meta_data": {
        "InChI": "InChI=1S/C10H11N/c1-8-3-4-9(2)10(7-8)5-6-11/h3-4,7H,5H2,1-2H3",
        "InChIKey": null,
        "Canonical SMILES": "N#CCC1=CC(=CC=C1C)C",
        "Molecular Formula": "C<sub>10</sub>H<sub>11</sub>N",
        "Molecular Mass": "145.20",
        "Boiling Point": "88-90 °C @ Press: 1.7 Torr"
    }
}