{
    "cas_no": "37493-70-2",
    "key_name": "5-Undecanol",
    "cn_name": "5-十一醇;",
    "alternate_name": "5-Undecanol;1-Butylheptyl alcohol;(±)-5-Undecanol;NSC 158512",
    "duplicated_cas_no": "138256-83-4",
    "SMILES": "C(C(CCCC)O)CCCCC",
    "meta_data": {
        "InChI": "InChI=1S/C11H24O/c1-3-5-7-8-10-11(12)9-6-4-2/h11-12H,3-10H2,1-2H3",
        "InChIKey": null,
        "Canonical SMILES": "OC(CCCC)CCCCCC",
        "Molecular Formula": "C<sub>11</sub>H<sub>24</sub>O",
        "Molecular Mass": "172.31",
        "Boiling Point": "229 °C",
        "Melting Point": "-3.5 °C",
        "Density": "0.8378 g/cm³ @ Temp: 0 °C"
    }
}