{
    "cas_no": "8050-09-7",
    "key_name": "Rosin",
    "cn_name": null,
    "alternate_name": "Rosin;Disproportionated rosin;Yellow resin;Rosin WW;Hongkong Rosin WW;Gum rosin;Pine resin;Naval stores, rosin;Resins, rosin;Colophony;EM 3;Bandis G 100;Resins, pine;Highrosin;Pine, rosin;KE 709;Shiragiku Rosin;Colophonium;BALS 3A;Inktac 103;Inktac 128;Inktac TX;SN-EX 7337;SN-Tack 750;RR-CHX;Pexite WG;WW Rosin;Optika;Gum Rosin WW;Recoldis A;D 101 (rosin);CG-WW;Gum Rosin CG-WW;Rondis FR-K 15;RX 0170;NeuSize 770;Haritac AQ 110;Chinese Rosin WW;Sylvatac 96;Haritac F 90;Neotall C;Colopearl E 5H;WW 550;D 101;EM 3 (rosin);Sylvatac 4100;Kenomic C 35;Deipurojin A 100;NeuSize 3;AR 06;Hariester DS 70;AR 06 (rosin);Unitol HYR;Pentrex 28;L 750;NES 405;NT 85;Sizepine NT 85;CC 167;Harsize L 850;Sizepine G;RF Size E 50A;Sizepine N 773;Kenomic A 35;Dynakoll SI 100;Ester Gum EK 1002;Portuguese WW;Stafor 50;Hariester G 7;Sizepine NT 87;SPNT 87;Gum Rosin M;Gum Rosin N;SPN 771;Composize 1718;NeuSize 730;NeuSize 745;NeuSize 650;Composize M 1718;AL 104;NT 83;AL 104 (rosin);Resarim B 300;RF Size 880L50;Pinecrystal KE 356;KE 610;KE 356;G 7;Dermulsene RA 405;HRS 50;HRS 50 (rosin);G 100F;Pinecrystal KR 614;Rikatac F 805;Sizepine 775;DC 35Y01;Hariester SK 90D55;YT 102AX;Deep Rosin A 100;SK 501;Resin 95;Shiragiku Rosin 1;KR 604;Gum Rosin X;Highrosin S;AL 1200;SPN 775;TMVS 2N;AL 1300;Wood rosin;Wood Rosin WG;CG-X;Bandis T 100H;NeuSize 737;Sizepine NT 76;Rosin substitutes;FR 1900;Highrosin B;Pinecrystal KM 5000;Setalin P 7000;Hariester 508H;Harosin X;NS 74;KR 614;Foralyn 5020;AL 1302;KSU 007;AAL;Sizepine N 775;GR 90S;Chinese Rosin X;Colophane;P 90;P 90 (rosin);Pinecrystal KR 612;Harsize L 50;DS 896;XH 800;Harsize NES 555;R 515W;Peroza E 3670;Sizepine OK 3;Sizepine G-F;Hariphenol P 900;TSF 25;R 1600;Pinecrystal KR 604;HBR 509;RE 802;ER 110;TAC 3008;MHK 37BZ;100F;Aquatac XR 4343;Pinecrystal KR 65;Solros;YserGum 115;YserGum 116;YserGum 122;YserGum 212;Sizepine N 817;Flygo;Wanan WA;SPN 111;Sizepine N 776;Pinecrystal KE 612;CY-RL 90;Lytor 100;Abieta DR 836A;Sylvatraxx 1001;Fennosize RN 31/42;Aquatac XR 4317;High Rosin S;Liquid rosin;Liquid rosins;Fennosize G 516/9M;Harsize NES 405;KL 1000W;FS 1;FS 1 (rosin);GA 100F;TX 90;RE 1892C;Y 501;SB 919;Neocite F 896;DR 881;DR 2HEA;Haritac AQ 100B;DS 300T;AT 880;GR 90;Pinerez 1278STD;NS 77P;SW 50;SW 50 (rosin);JJSX 04;Procol ST;SX 705;Pinerez 2210;Pinerez 2402;Pinerez 2314;GEM-SPE 1;C 832364;AP 9125;Gresinox 578M;DTO 40;AS 1050 (rosin);PCJ 2000;Tyreon 160;AP 9080;AS 1050;TR 80 (rosin);AR 650SX;MX 1519;NS 75P;Bremapal 2035;R 115 (rosin);R 115;Hercat 27JP4;TJ 60 (rosin);TJ 60;RT 175 (rosin);RT 175;N 850P",
    "duplicated_cas_no": "8050-10-0;8050-14-4;8052-47-9;37271-91-3;39390-87-9;68153-42-4;118817-23-5;136108-87-7;1481684-92-7;2415627-68-6;2701526-14-7;2999727-63-6;3000478-35-0",
    "SMILES": "",
    "meta_data": {
        "InChI": "",
        "InChIKey": null,
        "Canonical SMILES": "",
        "Molecular Formula": "Unspecified",
        "Molecular Mass": "",
        "Melting Point": "100-150 °C",
        "Density": "1.1 g/cm³"
    }
}