{
    "cas_no": "32316-92-0",
    "key_name": "2-Naphthylboronic acid",
    "cn_name": "2-萘硼酸;",
    "alternate_name": "Boronic acid, <em>B</em>-2-naphthalenyl-;2-Naphthaleneboronic acid;Boronic acid, 2-naphthalenyl-;<em>B</em>-2-Naphthalenylboronic acid;2-Naphthylboronic acid;2-Naphthylboric acid;(2-Naphthalenyl)boronic acid;Naphthalen-2-ylboronic acid;(Naphthalene-2-yl)boronic acid;(Naphthalen-2-yl)boronic acid",
    "duplicated_cas_no": "1314427-21-8",
    "SMILES": "B(O)(O)C1=CC2=C(C=C1)C=CC=C2",
    "meta_data": {
        "InChI": "InChI=1S/C10H9BO2/c12-11(13)10-6-5-8-3-1-2-4-9(8)7-10/h1-7,12-13H",
        "InChIKey": null,
        "Canonical SMILES": "OB(O)C=1C=CC=2C=CC=CC2C1",
        "Molecular Formula": "C<sub>10</sub>H<sub>9</sub>BO<sub>2</sub>",
        "Molecular Mass": "171.99",
        "Melting Point": "233-245 °C"
    }
}