{
    "cas_no": "1948-33-0",
    "key_name": "<em>tert</em>-Butylhydroquinone",
    "cn_name": "叔丁基氢醌;特丁基对苯二酚;",
    "alternate_name": "1,4-Benzenediol, 2-(1,1-dimethylethyl)-;Hydroquinone, <em>tert</em>-butyl-;2-(1,1-Dimethylethyl)-1,4-benzenediol;<em>tert</em>-Butylhydroquinone;2-<em>tert</em>-Butylhydroquinone;Mono-<em>tert</em>-butylhydroquinone;<em>tert</em>-Butyl-1,4-benzenediol;TBHQ;MTBHQ;Mono-tertiarybutylhydroquinone;<em>t</em>-Butylhydroquinone;2-<em>tert</em>-Butyl-1,4-benzenediol;2-(1,1-Dimethylethyl)hydroquinone;2-(<em>tert</em>-Butyl)-<em>p</em>-hydroquinone;Banox 20BA;Tenox TBHQ;2-<em>tert</em>-Butyl-1,4-hydroquinone;2-<em>tert</em>-Butyl-1,4-dihydroxybenzene;t-Butylhydroquinone;Tenox 20;NSC 4972;Keniox 20;<em>tert</em>-Butyldihydroxybenzene;2-<em>t</em>-Butylhydroquinone;MC-TB 20;Grindox 450;Grindox 204;<em>tert</em>-Butyl-1,4-dihydroxybenzene;2-<em>tert</em>-Butyl-4-hydroxyphenol;Stearer TBH;PI 172;TBHQ 400B;Yantq TBHQ",
    "duplicated_cas_no": "123477-69-0;140627-33-4;29863-17-0;68816-56-8",
    "SMILES": "C(C)(C)(C)C1=C(O)C=CC(O)=C1",
    "meta_data": {
        "InChI": "InChI=1S/C10H14O2/c1-10(2,3)8-6-7(11)4-5-9(8)12/h4-6,11-12H,1-3H3",
        "InChIKey": null,
        "Canonical SMILES": "OC1=CC=C(O)C(=C1)C(C)(C)C",
        "Molecular Formula": "C<sub>10</sub>H<sub>14</sub>O<sub>2</sub>",
        "Molecular Mass": "166.22",
        "Melting Point": "126.5-128.5 °C"
    }
}