{
    "cas_no": "24629-25-2",
    "key_name": "(2<em>S</em>,3<em>S</em>)-2-Amino-3-methyl-1-pentanol",
    "cn_name": "L-异亮氨醇;(2S,3S)-2-氨基-3-甲基-1-戊醇;",
    "alternate_name": "1-Pentanol, 2-amino-3-methyl-, (2<em>S</em>,3<em>S</em>)-;1-Pentanol, 2-amino-3-methyl-, <span class=\"text-smallcaps\">L</span>-<em>erythro</em>-;1-Pentanol, 2-amino-3-methyl-, [<em>S</em>-(<em>R</em>*,<em>R</em>*)]-;(2<em>S</em>,3<em>S</em>)-2-Amino-3-methyl-1-pentanol;<span class=\"text-smallcaps\">L</span>-Isoleucinol;(<em>S</em>)-Isoleucinol;(<em>S</em>)-<em>sec</em>-Leucinol;(2<em>S</em>,3<em>S</em>)-2-Amino-3-methylpentan-1-ol;[(<em>S</em>,<em>S</em>)-1-(Hydroxymethyl)-2-methylbutyl]amine;(2<em>S</em>,3<em>S</em>)-Isoleucinol;[(1<em>S</em>,2<em>S</em>)-1-(Hydroxymethyl)-2-methylbutyl]amine;[(2<em>S</em>,3<em>S</em>)-1-Hydroxy-3-methylpentan-2-yl]amine",
    "duplicated_cas_no": "2868328-43-0",
    "SMILES": "[C@@H]([C@@H](CO)N)(CC)C",
    "meta_data": {
        "InChI": "InChI=1S/C6H15NO/c1-3-5(2)6(7)4-8/h5-6,8H,3-4,7H2,1-2H3/t5-,6+/m0/s1",
        "InChIKey": null,
        "Canonical SMILES": "OCC(N)C(C)CC",
        "Molecular Formula": "C<sub>6</sub>H<sub>15</sub>NO",
        "Molecular Mass": "117.19",
        "Boiling Point": "87-89 °C @ Press: 10 Torr",
        "Melting Point": "32.5-37.3 °C"
    }
}