{
    "cas_no": "7761-72-0",
    "key_name": "Benzenecarboximidamide, 4-amino-, hydrochloride (1:1)",
    "cn_name": "4-氨基苄脒盐酸盐;",
    "alternate_name": "Benzenecarboximidamide, 4-amino-, hydrochloride (1:1);Benzamidine, <em>p</em>-amino-, monohydrochloride;Benzenecarboximidamide, 4-amino-, monohydrochloride;<em>p</em>-Aminobenzamidine hydrochloride;4-Aminobenzamidine monohydrochloride;4-Aminobenzamidine hydrochloride",
    "duplicated_cas_no": "",
    "SMILES": "C(=N)(N)C1=CC=C(N)C=C1.Cl",
    "meta_data": {
        "InChI": "InChI=1S/C7H9N3.ClH/c8-6-3-1-5(2-4-6)7(9)10;/h1-4H,8H2,(H3,9,10);1H",
        "InChIKey": null,
        "Canonical SMILES": "Cl.N=C(N)C1=CC=C(N)C=C1",
        "Molecular Formula": "C<sub>7</sub>H<sub>9</sub>N<sub>3</sub>.ClH",
        "Molecular Mass": "",
        "Melting Point": "225-226 °C"
    }
}