{
    "cas_no": "2835-77-0",
    "key_name": "2-Aminobenzophenone",
    "cn_name": "2-氨基二苯甲酮;",
    "alternate_name": "Methanone, (2-aminophenyl)phenyl-;Benzophenone, 2-amino-;(2-Aminophenyl)phenylmethanone;2-Aminobenzophenone;<em>o</em>-Benzoylaniline;<em>o</em>-Aminobenzophenone;2-Benzoylaniline;2-Benzoylbenzenamine;<em>o</em>-Aminophenyl phenyl ketone;NSC 9422;2-(Phenylcarbonyl)aniline;2-Aminophenyl phenyl ketone",
    "duplicated_cas_no": "853942-40-2",
    "SMILES": "C(=O)(C1=C(N)C=CC=C1)C2=CC=CC=C2",
    "meta_data": {
        "InChI": "InChI=1S/C13H11NO/c14-12-9-5-4-8-11(12)13(15)10-6-2-1-3-7-10/h1-9H,14H2",
        "InChIKey": null,
        "Canonical SMILES": "O=C(C=1C=CC=CC1)C=2C=CC=CC2N",
        "Molecular Formula": "C<sub>13</sub>H<sub>11</sub>NO",
        "Molecular Mass": "197.23",
        "Melting Point": "110-111 °C"
    }
}