{
    "cas_no": "328968-36-1",
    "key_name": "4-[4-[[5-(4,5-Dimethyl-2-nitrophenyl)-2-furanyl]methylene]-4,5-dihydro-3-methyl-5-oxo-1<em>H</em>-pyrazol-1-yl]benzoic acid",
    "cn_name": null,
    "alternate_name": "Benzoic acid, 4-[4-[[5-(4,5-dimethyl-2-nitrophenyl)-2-furanyl]methylene]-4,5-dihydro-3-methyl-5-oxo-1<em>H</em>-pyrazol-1-yl]-;4-[4-[[5-(4,5-Dimethyl-2-nitrophenyl)-2-furanyl]methylene]-4,5-dihydro-3-methyl-5-oxo-1<em>H</em>-pyrazol-1-yl]benzoic acid;C 646",
    "duplicated_cas_no": "",
    "SMILES": "N(=O)(=O)C1=C(C=C(C)C(C)=C1)C=2OC(C=C3C(=O)N(N=C3C)C4=CC=C(C(O)=O)C=C4)=CC2",
    "meta_data": {
        "InChI": "InChI=1S/C24H19N3O6/c1-13-10-20(21(27(31)32)11-14(13)2)22-9-8-18(33-22)12-19-15(3)25-26(23(19)28)17-6-4-16(5-7-17)24(29)30/h4-12H,1-3H3,(H,29,30)",
        "InChIKey": null,
        "Canonical SMILES": "O=C(O)C1=CC=C(C=C1)N2N=C(C(=CC=3OC(=CC3)C=4C=C(C(=CC4N(=O)=O)C)C)C2=O)C",
        "Molecular Formula": "C<sub>24</sub>H<sub>19</sub>N<sub>3</sub>O<sub>6</sub>",
        "Molecular Mass": "445.42",
        "Melting Point": "224-226 °C"
    }
}