{
    "cas_no": "89100-78-7",
    "key_name": "4-(<em>trans</em>-4-Ethylcyclohexyl)phenol",
    "cn_name": "4-(反式-4-乙基环己基)苯酚;",
    "alternate_name": "Phenol, 4-(<em>trans</em>-4-ethylcyclohexyl)-;Phenol, 4-(4-ethylcyclohexyl)-, <em>trans</em>-;4-(<em>trans</em>-4-Ethylcyclohexyl)phenol",
    "duplicated_cas_no": "",
    "SMILES": "C(C)[C@H]1CC[C@@H](CC1)C2=CC=C(O)C=C2",
    "meta_data": {
        "InChI": "InChI=1/C14H20O/c1-2-11-3-5-12(6-4-11)13-7-9-14(15)10-8-13/h7-12,15H,2-6H2,1H3/t11-,12-",
        "InChIKey": null,
        "Canonical SMILES": "OC1=CC=C(C=C1)C2CCC(CC)CC2",
        "Molecular Formula": "C<sub>14</sub>H<sub>20</sub>O",
        "Molecular Mass": "204.31",
        "Melting Point": "127-129 °C"
    }
}