{
    "cas_no": "93-45-8",
    "key_name": "4-(2-Naphthalenylamino)phenol",
    "cn_name": "硫化还原黑CLG;4-(2-萘氨基)苯酚;N-(对羟基苯基)-2-萘胺;硫化还原黑CLG;应得元CLG;应得元;",
    "alternate_name": "Phenol, 4-(2-naphthalenylamino)-;Phenol, <em>p</em>-(2-naphthylamino)-;4-(2-Naphthalenylamino)phenol;<em>p</em>-Hydroxyphenyl-β-naphthylamine;<em>p</em>-Hydroxyphenyl-2-naphthylamine;<em>p</em>-Hydroxyneozon;<em>N</em>-(<em>p</em>-Hydroxyphenyl)-β-naphthylamine;<em>p</em>-(β-Naphthylamino)phenol;<em>p</em>-Hydroxyneozone;<em>p</em>-(2-Naphthylamino)phenol;Paraoxyneozone;4-Hydroxyphenyl-β-naphthylamine;<em>N</em>-(<em>p</em>-Hydroxyphenyl)-2-naphthylamine;4-(2-Naphthylamino)phenol;<em>N</em>-(4-Hydroxyphenyl)-2-naphthylamine;NSC 15372;NSC 21065;2-(4-Hydroxyphenylamino)-naphthalene",
    "duplicated_cas_no": "",
    "SMILES": "N(C1=CC2=C(C=C1)C=CC=C2)C3=CC=C(O)C=C3",
    "meta_data": {
        "InChI": "InChI=1S/C16H13NO/c18-16-9-7-14(8-10-16)17-15-6-5-12-3-1-2-4-13(12)11-15/h1-11,17-18H",
        "InChIKey": null,
        "Canonical SMILES": "OC1=CC=C(C=C1)NC=2C=CC=3C=CC=CC3C2",
        "Molecular Formula": "C<sub>16</sub>H<sub>13</sub>NO",
        "Molecular Mass": "235.28",
        "Boiling Point": "250 °C @ Press: 4 Torr",
        "Melting Point": "140 °C"
    }
}