{
    "cas_no": "77-25-8",
    "key_name": "Propanedioic acid, 2,2-diethyl-, 1,3-diethyl ester",
    "cn_name": "二乙基丙二酸二乙酯;二乙基丙二酸乙酯;Ethyl Diethylmalonate;Diethylmalonic ester;Diethylylmalonic Acid;",
    "alternate_name": "Propanedioic acid, 2,2-diethyl-, 1,3-diethyl ester;Malonic acid, diethyl-, diethyl ester;Propanedioic acid, diethyl-, diethyl ester;Diethylmalonic acid diethyl ester;Diethyl diethylmalonate;Diethyl 3,3-pentanedicarboxylate;Diethyl 2,2-diethylmalonate;NSC 8710;1,3-Diethyl 2,2-diethylpropanedioate",
    "duplicated_cas_no": "",
    "SMILES": "C(C(OCC)=O)(C(OCC)=O)(CC)CC",
    "meta_data": {
        "InChI": "InChI=1S/C11H20O4/c1-5-11(6-2,9(12)14-7-3)10(13)15-8-4/h5-8H2,1-4H3",
        "InChIKey": null,
        "Canonical SMILES": "O=C(OCC)C(C(=O)OCC)(CC)CC",
        "Molecular Formula": "C<sub>11</sub>H<sub>20</sub>O<sub>4</sub>",
        "Molecular Mass": "216.27",
        "Boiling Point": "230 °C",
        "Melting Point": "128-130 °C",
        "Density": "0.989 g/cm³ @ Temp: 20 °C"
    }
}