{
    "cas_no": "2525-62-4",
    "key_name": "Hexyl isocyanate",
    "cn_name": "异氰酸己酯;",
    "alternate_name": "Hexane, 1-isocyanato-;Isocyanic acid, hexyl ester;1-Isocyanatohexane;Hexyl isocyanate;1-Hexyl isocyanate;<em>n</em>-Hexyl isocyanate",
    "duplicated_cas_no": "409316-51-4",
    "SMILES": "C(CCCC)CN=C=O",
    "meta_data": {
        "InChI": "InChI=1S/C7H13NO/c1-2-3-4-5-6-8-7-9/h2-6H2,1H3",
        "InChIKey": null,
        "Canonical SMILES": "O=C=NCCCCCC",
        "Molecular Formula": "C<sub>7</sub>H<sub>13</sub>NO",
        "Molecular Mass": "127.18",
        "Boiling Point": "162.5-164 °C"
    }
}