{
    "cas_no": "620-71-3",
    "key_name": "<em>N</em>-Phenylpropanamide",
    "cn_name": "N-苯基丙酰胺;N-苯基丙酰胺;N-丙酰苯胺;",
    "alternate_name": "Propanamide, <em>N</em>-phenyl-;Propionanilide;<em>N</em>-Phenylpropanamide;<em>N</em>-Phenylpropionamide;R 50977;NSC 58952",
    "duplicated_cas_no": "",
    "SMILES": "N(C(CC)=O)C1=CC=CC=C1",
    "meta_data": {
        "InChI": "InChI=1S/C9H11NO/c1-2-9(11)10-8-6-4-3-5-7-8/h3-7H,2H2,1H3,(H,10,11)",
        "InChIKey": null,
        "Canonical SMILES": "O=C(NC=1C=CC=CC1)CC",
        "Molecular Formula": "C<sub>9</sub>H<sub>11</sub>NO",
        "Molecular Mass": "149.19",
        "Boiling Point": "222.2 °C",
        "Melting Point": "105.5 °C"
    }
}