{
    "cas_no": "60289-67-0",
    "key_name": "α-Ethyl-3-pyridinemethanamine",
    "cn_name": null,
    "alternate_name": "3-Pyridinemethanamine, α-ethyl-;Pyridine, 3-(1-aminopropyl)-;α-Ethyl-3-pyridinemethanamine;1-Pyridin-3-ylpropylamine;1-(3-Pyridyl)propan-1-amine;1-(Pyridin-3-yl)propan-1-amine;1-(3-Pyridyl)-1-propylamine;1-Pyridin-3-ylpropan-1-amine",
    "duplicated_cas_no": "",
    "SMILES": "C(CC)(N)C=1C=CC=NC1",
    "meta_data": {
        "InChI": "InChI=1S/C8H12N2/c1-2-8(9)7-4-3-5-10-6-7/h3-6,8H,2,9H2,1H3",
        "InChIKey": null,
        "Canonical SMILES": "N=1C=CC=C(C1)C(N)CC",
        "Molecular Formula": "C<sub>8</sub>H<sub>12</sub>N<sub>2</sub>",
        "Molecular Mass": "136.19",
        "Boiling Point": "105-108 °C @ Press: 12 Torr"
    }
}