{
    "cas_no": "480-11-5",
    "key_name": "Oroxylin A",
    "cn_name": "千层纸素A;",
    "alternate_name": "4<em>H</em>-1-Benzopyran-4-one, 5,7-dihydroxy-6-methoxy-2-phenyl-;Flavone, 5,7-dihydroxy-6-methoxy-;Oroxylin;5,7-Dihydroxy-6-methoxy-2-phenyl-4<em>H</em>-1-benzopyran-4-one;Oroxylin A;6-Methoxybaicalein;5,7-Dihydroxy-6-methoxyflavone;Baicalein 6-methyl ether",
    "duplicated_cas_no": "",
    "SMILES": "OC1=C2C(OC(=CC2=O)C3=CC=CC=C3)=CC(O)=C1OC",
    "meta_data": {
        "InChI": "InChI=1S/C16H12O5/c1-20-16-11(18)8-13-14(15(16)19)10(17)7-12(21-13)9-5-3-2-4-6-9/h2-8,18-19H,1H3",
        "InChIKey": null,
        "Canonical SMILES": "O=C1C=C(OC2=CC(O)=C(OC)C(O)=C12)C=3C=CC=CC3",
        "Molecular Formula": "C<sub>16</sub>H<sub>12</sub>O<sub>5</sub>",
        "Molecular Mass": "284.26",
        "Melting Point": "203-204 °C"
    }
}