{
    "cas_no": "34209-69-3",
    "key_name": "(-)-Trachelogenin",
    "cn_name": null,
    "alternate_name": "2(3<em>H</em>)-Furanone, 4-[(3,4-dimethoxyphenyl)methyl]dihydro-3-hydroxy-3-[(4-hydroxy-3-methoxyphenyl)methyl]-, (3<em>S</em>,4<em>S</em>)-;Trachelogenin;2(3<em>H</em>)-Furanone, 4-[(3,4-dimethoxyphenyl)methyl]dihydro-3-hydroxy-3-[(4-hydroxy-3-methoxyphenyl)methyl]-, (3<em>S</em>-<em>cis</em>)-;2(3<em>H</em>)-Furanone, dihydro-3-hydroxy-3-vanillyl-4-veratryl-;(3<em>S</em>,4<em>S</em>)-4-[(3,4-Dimethoxyphenyl)methyl]dihydro-3-hydroxy-3-[(4-hydroxy-3-methoxyphenyl)methyl]-2(3<em>H</em>)-furanone;(-)-Trachelogenin",
    "duplicated_cas_no": "33464-72-1",
    "SMILES": "C([C@@H]1[C@](CC2=CC(OC)=C(O)C=C2)(O)C(=O)OC1)C3=CC(OC)=C(OC)C=C3",
    "meta_data": {
        "InChI": "InChI=1S/C21H24O7/c1-25-17-7-5-13(9-19(17)27-3)8-15-12-28-20(23)21(15,24)11-14-4-6-16(22)18(10-14)26-2/h4-7,9-10,15,22,24H,8,11-12H2,1-3H3/t15-,21-/m0/s1",
        "InChIKey": null,
        "Canonical SMILES": "O=C1OCC(CC2=CC=C(OC)C(OC)=C2)C1(O)CC3=CC=C(O)C(OC)=C3",
        "Molecular Formula": "C<sub>21</sub>H<sub>24</sub>O<sub>7</sub>",
        "Molecular Mass": "388.41",
        "Melting Point": "144 °C"
    }
}