{
    "cas_no": "4160-52-5",
    "key_name": "1-(4-Methylphenyl)-1-butanone",
    "cn_name": "4-甲基苯丁酮;4-甲基苯丁酮;",
    "alternate_name": "1-Butanone, 1-(4-methylphenyl)-;Butyrophenone, 4′-methyl-;1-(4-Methylphenyl)-1-butanone;<em>p</em>-Methylbutyrophenone;4′-Methylbutyrophenone;<em>p</em>-Tolyl propyl ketone;NSC 163487;1-Butyryl-4-methylbenzene;1-(<em>p</em>-Tolyl)butan-1-one;4-Methylbutyrophenone",
    "duplicated_cas_no": "",
    "SMILES": "C(CCC)(=O)C1=CC=C(C)C=C1",
    "meta_data": {
        "InChI": "InChI=1S/C11H14O/c1-3-4-11(12)10-7-5-9(2)6-8-10/h5-8H,3-4H2,1-2H3",
        "InChIKey": null,
        "Canonical SMILES": "O=C(C1=CC=C(C=C1)C)CCC",
        "Molecular Formula": "C<sub>11</sub>H<sub>14</sub>O",
        "Molecular Mass": "162.23",
        "Boiling Point": "251.5 °C",
        "Melting Point": "12 °C",
        "Density": "0.9745 g/cm³ @ Temp: 20 °C"
    }
}