{
    "cas_no": "20795-53-3",
    "key_name": "3-Phenylcyclohexanone",
    "cn_name": null,
    "alternate_name": "Cyclohexanone, 3-phenyl-;3-Phenylcyclohexanone;(±)-3-Phenylcyclohexanone;NSC 119037",
    "duplicated_cas_no": "113829-97-3",
    "SMILES": "O=C1CC(CCC1)C2=CC=CC=C2",
    "meta_data": {
        "InChI": "InChI=1S/C12H14O/c13-12-8-4-7-11(9-12)10-5-2-1-3-6-10/h1-3,5-6,11H,4,7-9H2",
        "InChIKey": null,
        "Canonical SMILES": "O=C1CCCC(C=2C=CC=CC2)C1",
        "Molecular Formula": "C<sub>12</sub>H<sub>14</sub>O",
        "Molecular Mass": "174.24",
        "Boiling Point": "169-169.5 °C @ Press: 18 Torr",
        "Melting Point": "64 °C"
    }
}