{
    "cas_no": "3056-17-5",
    "key_name": "Stavudine",
    "cn_name": "司他夫定;3\"-脱氧-2\",3\"-双脱氢胸苷;3\"-脱氧-2\",3\"-双脱氢胸甙;",
    "alternate_name": "Thymidine, 2′,3′-didehydro-3′-deoxy-;Thymine, 1-(2,3-dideoxy-β-<span class=\"text-smallcaps\">D</span>-<em>glycero</em>-pent-2-enofuranosyl)-;2,4(1<em>H</em>,3<em>H</em>)-Pyrimidinedione, 1-[(2<em>R</em>,5<em>S</em>)-2,5-dihydro-5-(hydroxymethyl)-2-furanyl]-5-methyl-;2′-Thymidinene, 3′-deoxy-;2′,3′-Didehydro-3′-deoxythymidine;d4T;3′-Deoxy-2′,3′-didehydrothymidine;BMY 27857;D 4T (nucleoside);Stavudine;Sanilvudine;Zerit;NSC 163661;Stavir;Virostav;Stag;Avostav;Staduvine;Melxicap;2′,3′-Didehydro-2′,3′-dideoxythymidine;MeSH ID: D018119",
    "duplicated_cas_no": "132425-31-1;1348378-24-4",
    "SMILES": "O=C1N([C@@H]2O[C@H](CO)C=C2)C=C(C)C(=O)N1",
    "meta_data": {
        "InChI": "InChI=1S/C10H12N2O4/c1-6-4-12(10(15)11-9(6)14)8-3-2-7(5-13)16-8/h2-4,7-8,13H,5H2,1H3,(H,11,14,15)/t7-,8+/m0/s1",
        "InChIKey": null,
        "Canonical SMILES": "O=C1NC(=O)N(C=C1C)C2OC(C=C2)CO",
        "Molecular Formula": "C<sub>10</sub>H<sub>12</sub>N<sub>2</sub>O<sub>4</sub>",
        "Molecular Mass": "224.21",
        "Melting Point": "165-166 °C"
    }
}