{
    "cas_no": "13616-83-6",
    "key_name": "Bis(2,4-dimethylphenyl) disulfide",
    "cn_name": null,
    "alternate_name": "Disulfide, bis(2,4-dimethylphenyl);2,4-Xylyl disulfide;Bis(2,4-dimethylphenyl) disulfide;1,2-Bis(2,4-dimethylphenyl)disulfane",
    "duplicated_cas_no": "",
    "SMILES": "S(SC1=C(C)C=C(C)C=C1)C2=C(C)C=C(C)C=C2",
    "meta_data": {
        "InChI": "InChI=1S/C16H18S2/c1-11-5-7-15(13(3)9-11)17-18-16-8-6-12(2)10-14(16)4/h5-10H,1-4H3",
        "InChIKey": null,
        "Canonical SMILES": "S(SC1=CC=C(C=C1C)C)C2=CC=C(C=C2C)C",
        "Molecular Formula": "C<sub>16</sub>H<sub>18</sub>S<sub>2</sub>",
        "Molecular Mass": "274.44",
        "Boiling Point": "170-172 °C @ Press: 3.5 Torr",
        "Melting Point": "265 °C"
    }
}