{
    "cas_no": "120-66-1",
    "key_name": "<em>N</em>-(2-Methylphenyl)acetamide",
    "cn_name": "2\"-甲基乙酰苯胺;",
    "alternate_name": "Acetamide, <em>N</em>-(2-methylphenyl)-;<em>o</em>-Acetotoluidide;<em>N</em>-(2-Methylphenyl)acetamide;<em>N</em>-Acetyl-<em>o</em>-toluidine;<em>o</em>-Methylacetanilide;<em>o</em>-Acetyltoluidide;2′-Methylacetanilide;<em>N</em>-<em>o</em>-Tolylacetamide;<em>o</em>-Acetamidotoluene;<em>N</em>-(<em>o</em>-Methylphenyl)acetamide;NSC 3365;<em>N</em>-Acetyl-2-toluidine;<em>N</em>-Acetyl-2-methylaniline",
    "duplicated_cas_no": "",
    "SMILES": "N(C(C)=O)C1=C(C)C=CC=C1",
    "meta_data": {
        "InChI": "InChI=1S/C9H11NO/c1-7-5-3-4-6-9(7)10-8(2)11/h3-6H,1-2H3,(H,10,11)",
        "InChIKey": null,
        "Canonical SMILES": "O=C(NC=1C=CC=CC1C)C",
        "Molecular Formula": "C<sub>9</sub>H<sub>11</sub>NO",
        "Molecular Mass": "149.19",
        "Boiling Point": "296 °C",
        "Melting Point": "110 °C",
        "Density": "1.168 g/cm³ @ Temp: 15 °C"
    }
}