{
    "cas_no": "14062-23-8",
    "key_name": "Ethyl [1,1′-biphenyl]-4-acetate",
    "cn_name": null,
    "alternate_name": "[1,1′-Biphenyl]-4-acetic acid, ethyl ester;4-Biphenylacetic acid, ethyl ester;Acetic acid, (4-biphenylyl)-, ethyl ester;Ethyl [1,1′-biphenyl]-4-acetate;Ethyl <em>p</em>-biphenylylacetate;LM 001;Ethyl 4-biphenylylacetate;Diatec;Felbinac ethyl ester",
    "duplicated_cas_no": "868071-58-3",
    "SMILES": "C(C(OCC)=O)C1=CC=C(C=C1)C2=CC=CC=C2",
    "meta_data": {
        "InChI": "InChI=1S/C16H16O2/c1-2-18-16(17)12-13-8-10-15(11-9-13)14-6-4-3-5-7-14/h3-11H,2,12H2,1H3",
        "InChIKey": null,
        "Canonical SMILES": "O=C(OCC)CC=1C=CC(=CC1)C=2C=CC=CC2",
        "Molecular Formula": "C<sub>16</sub>H<sub>16</sub>O<sub>2</sub>",
        "Molecular Mass": "240.30",
        "Boiling Point": "145-154 °C @ Press: 0.2 Torr"
    }
}