{
    "cas_no": "1499-17-8",
    "key_name": "1,3,2-Benzodioxaphosphole, 2-chloro-, 2-oxide",
    "cn_name": "邻亚苯基氯膦酸;",
    "alternate_name": "1,3,2-Benzodioxaphosphole, 2-chloro-, 2-oxide;Phosphorochloridic acid, cyclic <em>o</em>-phenylene ester;<em>o</em>-Phenylene phosphorochloridate;Pyrocatechol, cyclic phosphorochloridate;1,2-Phenylene phosphorochloridate ((C<sub>6</sub>H<sub>4</sub>O<sub>2</sub>)ClPO);Catechol cyclophosphorochloridate;<em>O</em>,<em>O</em>-(<em>o</em>-Phenylene) chlorophosphate;2-Chloro-1,3-dioxa-2-phosphaindan 2-oxide;<em>o</em>-Phenylene chlorophosphate;1,2-Phenylene phosphorochloridate;2-Chloro-2-oxobenzo-1,3,2-dioxaphosphole;2-Chloro-1,3,2-benzodioxaphosphole 2-oxide;2-Chloro-2<em>H</em>-1,3,2λ5-benzodioxaphosphol-2-one;2-Chlorobenzo[<em>d</em>][1,3,2]dioxaphosphole 2-oxide",
    "duplicated_cas_no": "",
    "SMILES": "ClP1(=O)OC=2C(O1)=CC=CC2",
    "meta_data": {
        "InChI": "InChI=1S/C6H4ClO3P/c7-11(8)9-5-3-1-2-4-6(5)10-11/h1-4H",
        "InChIKey": null,
        "Canonical SMILES": "O=P1(Cl)OC=2C=CC=CC2O1",
        "Molecular Formula": "C<sub>6</sub>H<sub>4</sub>ClO<sub>3</sub>P",
        "Molecular Mass": "190.52",
        "Boiling Point": "73-75 °C @ Press: 0.02 Torr",
        "Melting Point": "58-59 °C"
    }
}