{
    "cas_no": "1071-27-8",
    "key_name": "3-Cyanopropyltrichlorosilane",
    "cn_name": null,
    "alternate_name": "Butanenitrile, 4-(trichlorosilyl)-;Butyronitrile, 4-(trichlorosilyl)-;4-(Trichlorosilyl)butanenitrile;γ-Cyanopropyltrichlorosilane;3-Cyanopropyltrichlorosilane;4-(Trichlorosilyl)butyronitrile;(3-Cyanoporopropyl)trichlorosilane",
    "duplicated_cas_no": "",
    "SMILES": "C([Si](Cl)(Cl)Cl)CCC#N",
    "meta_data": {
        "InChI": "InChI=1S/C4H6Cl3NSi/c5-9(6,7)4-2-1-3-8/h1-2,4H2",
        "InChIKey": null,
        "Canonical SMILES": "N#CCCC[Si](Cl)(Cl)Cl",
        "Molecular Formula": "C<sub>4</sub>H<sub>6</sub>Cl<sub>3</sub>NSi",
        "Molecular Mass": "202.54",
        "Boiling Point": "93-94 °C @ Press: 8 Torr",
        "Density": "1.302 g/cm³"
    }
}