{
    "cas_no": "1318-00-9",
    "key_name": "Vermiculite (Mg<sub>0.33</sub>[Mg<sub>2-3</sub>(Al<sub>0-1</sub>Fe<sub>0-1</sub>)<sub>0-1</sub>](Si<sub>2.33-3.33</sub>Al<sub>0.67-1.67</sub>)(OH)<sub>2</sub>O<sub>10</sub>.4H<sub>2</sub>O)",
    "cn_name": null,
    "alternate_name": "Vermiculite (Mg<sub>0.33</sub>[Mg<sub>2-3</sub>(Al<sub>0-1</sub>Fe<sub>0-1</sub>)<sub>0-1</sub>](Si<sub>2.33-3.33</sub>Al<sub>0.67-1.67</sub>)(OH)<sub>2</sub>O<sub>10</sub>.4H<sub>2</sub>O);Vermiculite;Zonolite;Verxite;Vermex F;Siplast;M 729;Microlite 903;Grace 3;Microlite HTS-XE;FR-MH;JISA 5009;Palabora;Microlite 963 Plus;Microlite 963+;Microlite 963++;Microlite 963 Plus Plus;Hilcon S 80;Hilcon S;Hilcon S 1-600;Hilcon S 3;Hilcon S 2;Hilcon S 0;Hilcon S 1;Shawa Super Fain;G 1;G 1 (mineral);Verxspand;AV-I;AV-I (mineral);Thermiculite 815;Vermiculite Fine;OPV 1;FPSV;Microlite 963;PCEV;HTS;Grace FPSV;OPV 1 (mineral);Vermex SF;Bamikuraito G 20;Dupre DM651;Dupre DM338S;Microlite 963HS;Microlite HTS;Agrolite;DM 217",
    "duplicated_cas_no": "57249-14-6;639464-34-9",
    "SMILES": "[O].[Si]([O-])([O-])=O.[OH-].[Mg].[Fe].[Al].O",
    "meta_data": {
        "InChI": "InChI=1S/Al.Fe.Mg.O3Si.2H2O.O/c;;;1-4(2)3;;;/h;;;;2*1H2;/q;;;-2;;;/p-1",
        "InChIKey": null,
        "Canonical SMILES": "[O].[Mg].[Al].[Fe].[OH-].O=[Si]([O-])[O-].O",
        "Molecular Formula": "Al.Fe.4H<sub>2</sub>O.HO.Mg.O<sub>3</sub>Si.O",
        "Molecular Mass": "",
        "Melting Point": "1350 °C",
        "Density": "0.128 g/cm³ (solid)"
    }
}