{
    "cas_no": "31796-57-3",
    "key_name": "Alanylasparagine",
    "cn_name": null,
    "alternate_name": "<span class=\"text-smallcaps\">L</smallcap>-Asparagine, <smallcap>L</span>-alanyl-;Asparagine, <em>N</em><sup>2</sup>-<span class=\"text-smallcaps\">L</smallcap>-alanyl-, <smallcap>L</span>-;<span class=\"text-smallcaps\">L</smallcap>-Asparagine, <em>N</em><sup>2</sup>-<smallcap>L</span>-alanyl-;Asparagine, <em>N</em><sup>2</sup>-alanyl-;<span class=\"text-smallcaps\">L</smallcap>-Alanyl-<smallcap>L</span>-asparagine;<em>N</em><sup>2</sup>-<span class=\"text-smallcaps\">L</span>-Alanylasparagine;Alanylasparagine;NSC 186899;69: PN: US20070066537 PAGE: 17 claimed protein;2: PN: US20090239809 SEQID: 2 claimed protein;49: PN: EP2161028 PAGE: 10 claimed protein;75: PN: WO2014170713 SEQID: 181 claimed protein",
    "duplicated_cas_no": "24667-35-4",
    "SMILES": "[C@H](NC([C@H](C)N)=O)(CC(N)=O)C(O)=O",
    "meta_data": {
        "InChI": "InChI=1S/C7H13N3O4/c1-3(8)6(12)10-4(7(13)14)2-5(9)11/h3-4H,2,8H2,1H3,(H2,9,11)(H,10,12)(H,13,14)/t3-,4-/m0/s1",
        "InChIKey": null,
        "Canonical SMILES": "O=C(O)C(NC(=O)C(N)C)CC(=O)N",
        "Molecular Formula": "C<sub>7</sub>H<sub>13</sub>N<sub>3</sub>O<sub>4</sub>",
        "Molecular Mass": "203.20",
        "Melting Point": "201-202 °C"
    }
}