{
    "cas_no": "153-94-6",
    "key_name": "<span class=\"text-smallcaps\">D</span>-Tryptophan",
    "cn_name": "D-色氨酸;",
    "alternate_name": "<span class=\"text-smallcaps\">D</span>-Tryptophan;Tryptophan, <span class=\"text-smallcaps\">D</span>-;<span class=\"text-smallcaps\">D</span>-Tryptophane;(+)-Tryptophan;(<em>R</em>)-Tryptophan;(<em>R</em>)-α-Aminoindole-3-propanoic acid;(<em>R</em>)-α-Amino-3-indolepropionic acid;NSC 97942;(2R)-2-Amino-3-(1<em>H</em>-indol-3-yl)propanoic acid;(2R)-2-Azaniumyl-3-(1<em>H</em>-indol-3-yl)propanoate",
    "duplicated_cas_no": "",
    "SMILES": "C([C@H](C(O)=O)N)C=1C=2C(NC1)=CC=CC2",
    "meta_data": {
        "InChI": "InChI=1S/C11H12N2O2/c12-9(11(14)15)5-7-6-13-10-4-2-1-3-8(7)10/h1-4,6,9,13H,5,12H2,(H,14,15)/t9-/m1/s1",
        "InChIKey": null,
        "Canonical SMILES": "O=C(O)C(N)CC1=CNC=2C=CC=CC21",
        "Molecular Formula": "C<sub>11</sub>H<sub>12</sub>N<sub>2</sub>O<sub>2</sub>",
        "Molecular Mass": "204.23",
        "Melting Point": "274 °C",
        "Density": "1.35 g/cm³"
    }
}