{
    "cas_no": "19438-61-0",
    "key_name": "4-Methylphthalic anhydride",
    "cn_name": null,
    "alternate_name": "1,3-Isobenzofurandione, 5-methyl-;Phthalic anhydride, 4-methyl-;5-Methyl-1,3-isobenzofurandione;4-Methylphthalic anhydride;4-Methylphthalic acid anhydride;5-Methylisobenzofuran-1,3-dione;5-Methyl-2-benzofuran-1,3-dione",
    "duplicated_cas_no": "",
    "SMILES": "O=C1C=2C(C(=O)O1)=CC=C(C)C2",
    "meta_data": {
        "InChI": "InChI=1S/C9H6O3/c1-5-2-3-6-7(4-5)9(11)12-8(6)10/h2-4H,1H3",
        "InChIKey": null,
        "Canonical SMILES": "O=C1OC(=O)C2=CC(=CC=C12)C",
        "Molecular Formula": "C<sub>9</sub>H<sub>6</sub>O<sub>3</sub>",
        "Molecular Mass": "162.14",
        "Boiling Point": "299 °C",
        "Melting Point": "93 °C"
    }
}