{
    "cas_no": "372-46-3",
    "key_name": "Fluorocyclohexane",
    "cn_name": null,
    "alternate_name": "Cyclohexane, fluoro-;Fluorocyclohexane;Cyclohexyl fluoride",
    "duplicated_cas_no": "",
    "SMILES": "FC1CCCCC1",
    "meta_data": {
        "InChI": "InChI=1S/C6H11F/c7-6-4-2-1-3-5-6/h6H,1-5H2",
        "InChIKey": null,
        "Canonical SMILES": "FC1CCCCC1",
        "Molecular Formula": "C<sub>6</sub>H<sub>11</sub>F",
        "Molecular Mass": "102.15",
        "Boiling Point": "101 °C",
        "Melting Point": "13 °C",
        "Density": "0.9296 g/cm³ @ Temp: 20 °C"
    }
}