{
    "cas_no": "187949-02-6",
    "key_name": "Albaconazole",
    "cn_name": "阿巴康唑;7-氯-3-[(2R,3R)-3-(2,4-二氟苯基)-3-羟基-4-(1,2,4-三唑-1-基)丁-2-基]喹唑啉-4-酮;",
    "alternate_name": "4(3<em>H</em>)-Quinazolinone, 7-chloro-3-[(1<em>R</em>,2<em>R</em>)-2-(2,4-difluorophenyl)-2-hydroxy-1-methyl-3-(1<em>H</em>-1,2,4-triazol-1-yl)propyl]-;4(3<em>H</em>)-Quinazolinone, 7-chloro-3-[2-(2,4-difluorophenyl)-2-hydroxy-1-methyl-3-(1<em>H</em>-1,2,4-triazol-1-yl)propyl]-, [<em>R</em>-(<em>R</em>*,<em>R</em>*)]-;7-Chloro-3-[(1<em>R</em>,2<em>R</em>)-2-(2,4-difluorophenyl)-2-hydroxy-1-methyl-3-(1<em>H</em>-1,2,4-triazol-1-yl)propyl]-4(3<em>H</em>)-quinazolinone;UR 9825;(1<em>R</em>,2<em>R</em>)-7-Chloro-3-[2-(2,4-difluorophenyl)-2-hydroxy-1-methyl-3-(1<em>H</em>-1,2,4-triazol-1-yl)propyl]quinazolin-4(3<em>H</em>)-one;Albaconazole;UR 9625",
    "duplicated_cas_no": "",
    "SMILES": "[C@@]([C@@H](C)N1C(=O)C=2C(N=C1)=CC(Cl)=CC2)(CN3C=NC=N3)(O)C4=C(F)C=C(F)C=C4",
    "meta_data": {
        "InChI": "InChI=1S/C20H16ClF2N5O2/c1-12(28-11-25-18-6-13(21)2-4-15(18)19(28)29)20(30,8-27-10-24-9-26-27)16-5-3-14(22)7-17(16)23/h2-7,9-12,30H,8H2,1H3/t12-,20-/m1/s1",
        "InChIKey": null,
        "Canonical SMILES": "O=C1C=2C=CC(Cl)=CC2N=CN1C(C)C(O)(C3=CC=C(F)C=C3F)CN4N=CN=C4",
        "Molecular Formula": "C<sub>20</sub>H<sub>16</sub>ClF<sub>2</sub>N<sub>5</sub>O<sub>2</sub>",
        "Molecular Mass": "431.82",
        "Melting Point": "93-110 °C"
    }
}