{
    "cas_no": "184587-72-2",
    "key_name": "Mangostanol",
    "cn_name": null,
    "alternate_name": "2<em>H</em>,6<em>H</em>-Pyrano[3,2-<em>b</em>]xanthen-6-one, 3,4-dihydro-3,5,9-trihydroxy-8-methoxy-2,2-dimethyl-7-(3-methyl-2-buten-1-yl)-, (+)-;2<em>H</em>,6<em>H</em>-Pyrano[3,2-<em>b</em>]xanthen-6-one, 3,4-dihydro-3,5,9-trihydroxy-8-methoxy-2,2-dimethyl-7-(3-methyl-2-butenyl)-, (+)-;(+)-3,4-Dihydro-3,5,9-trihydroxy-8-methoxy-2,2-dimethyl-7-(3-methyl-2-buten-1-yl)-2<em>H</em>,6<em>H</em>-pyrano[3,2-<em>b</em>]xanthen-6-one;Mangostanol;(+)-Mangostanol;3,5,9-Trihydroxy-8-methoxy-2,2-dimethyl-7-(3-methylbut-2-en-1-yl)-3,4-dihydropyrano[3,2-<em>b</em>]xanthen-6(2<em>H</em>)-one",
    "duplicated_cas_no": "1242167-31-2",
    "SMILES": "C(C=C(C)C)C1=C2C(OC=3C(C2=O)=C(O)C4=C(C3)OC(C)(C)C(O)C4)=CC(O)=C1OC",
    "meta_data": {
        "InChI": "InChI=1/C24H26O7/c1-11(2)6-7-12-19-16(9-14(25)23(12)29-5)30-17-10-15-13(21(27)20(17)22(19)28)8-18(26)24(3,4)31-15/h6,9-10,18,25-27H,7-8H2,1-5H3",
        "InChIKey": null,
        "Canonical SMILES": "O=C1C=2C(O)=C3C(OC(C)(C)C(O)C3)=CC2OC4=CC(O)=C(OC)C(=C14)CC=C(C)C",
        "Molecular Formula": "C<sub>24</sub>H<sub>26</sub>O<sub>7</sub>",
        "Molecular Mass": "426.46",
        "Melting Point": "164-166 °C"
    }
}