{
    "cas_no": "15600-01-8",
    "key_name": "1,1,2,2,3,3-Hexachloropropane",
    "cn_name": null,
    "alternate_name": "Propane, 1,1,2,2,3,3-hexachloro-;1,1,2,2,3,3-Hexachloropropane",
    "duplicated_cas_no": "",
    "SMILES": "C(C(Cl)Cl)(C(Cl)Cl)(Cl)Cl",
    "meta_data": {
        "InChI": "InChI=1S/C3H2Cl6/c4-1(5)3(8,9)2(6)7/h1-2H",
        "InChIKey": null,
        "Canonical SMILES": "ClC(Cl)C(Cl)(Cl)C(Cl)Cl",
        "Molecular Formula": "C<sub>3</sub>H<sub>2</sub>Cl<sub>6</sub>",
        "Molecular Mass": "250.77",
        "Boiling Point": "218.5 °C",
        "Density": "1.7137 g/cm³ @ Temp: 34 °C"
    }
}