{
    "cas_no": "2136-89-2",
    "key_name": "<em>o</em>-Chlorobenzotrichloride",
    "cn_name": "2-氯三氯甲苯;邻氯三氯甲苯;",
    "alternate_name": "Benzene, 1-chloro-2-(trichloromethyl)-;Toluene, <em>o</em>,α,α,α-tetrachloro-;1-Chloro-2-(trichloromethyl)benzene;<em>o</em>-Chlorophenyltrichloromethane;<em>o</em>-Chlorobenzotrichloride;2-Chlorobenzotrichloride;<em>o</em>-Chlorobenzylidyne chloride;α,α,α,2-Tetrachlorotoluene;NSC 59736",
    "duplicated_cas_no": "",
    "SMILES": "C(Cl)(Cl)(Cl)C1=C(Cl)C=CC=C1",
    "meta_data": {
        "InChI": "InChI=1S/C7H4Cl4/c8-6-4-2-1-3-5(6)7(9,10)11/h1-4H",
        "InChIKey": null,
        "Canonical SMILES": "ClC=1C=CC=CC1C(Cl)(Cl)Cl",
        "Molecular Formula": "C<sub>7</sub>H<sub>4</sub>Cl<sub>4</sub>",
        "Molecular Mass": "229.92",
        "Boiling Point": "264.3 °C",
        "Melting Point": "29.4 °C"
    }
}