{
    "cas_no": "6258-60-2",
    "key_name": "4-Methoxy-α-toluenethiol",
    "cn_name": "4-甲氧基苄硫醇;",
    "alternate_name": "Benzenemethanethiol, 4-methoxy-;α-Toluenethiol, <em>p</em>-methoxy-;4-Methoxybenzenemethanethiol;(<em>p</em>-Methoxyphenyl)methanethiol;<em>p</em>-Methoxybenzyl mercaptan;<em>p</em>-Methoxybenzenemethanethiol;4-Methoxybenzyl mercaptan;4-Methoxy-α-toluenethiol;(4-Methoxyphenyl)methanethiol;(4-Methoxyphenyl)methylthiol;4-Methoxybenzylthiol;<em>p</em>-Methoxy-α-toluenethiol;<em>p</em>-Methoxybenzylthiol;[4-(Methyloxy)phenyl]methanethiol;4-Methoxytoluenethiol;4-Methoxy-alpha-toluenethiol",
    "duplicated_cas_no": "",
    "SMILES": "C(S)C1=CC=C(OC)C=C1",
    "meta_data": {
        "InChI": "InChI=1S/C8H10OS/c1-9-8-4-2-7(6-10)3-5-8/h2-5,10H,6H2,1H3",
        "InChIKey": null,
        "Canonical SMILES": "SCC1=CC=C(OC)C=C1",
        "Molecular Formula": "C<sub>8</sub>H<sub>10</sub>OS",
        "Molecular Mass": "154.23",
        "Boiling Point": "89-94 °C @ Press: 2.5 Torr"
    }
}