{
    "cas_no": "625-50-3",
    "key_name": "Ethylacetamide",
    "cn_name": "N-乙基乙酰胺;",
    "alternate_name": "Acetamide, <em>N</em>-ethyl-;<em>N</em>-Ethylacetamide;Ethylacetamide;Acetamidoethane;<em>N</em>-Acetylethylamine;NSC 406307",
    "duplicated_cas_no": "",
    "SMILES": "N(C(C)=O)CC",
    "meta_data": {
        "InChI": "InChI=1S/C4H9NO/c1-3-5-4(2)6/h3H2,1-2H3,(H,5,6)",
        "InChIKey": null,
        "Canonical SMILES": "O=C(NCC)C",
        "Molecular Formula": "C<sub>4</sub>H<sub>9</sub>NO",
        "Molecular Mass": "87.12",
        "Boiling Point": "205 °C",
        "Melting Point": "79-80 °C",
        "Density": "0.9237 g/cm³ @ Temp: 20 °C"
    }
}