{
    "cas_no": "2245-53-6",
    "key_name": "2,2′-[1,4-Phenylenebis(oxy)]bis[acetic acid]",
    "cn_name": "氢醌-O,O\"-二乙酸;",
    "alternate_name": "Acetic acid, 2,2′-[1,4-phenylenebis(oxy)]bis-;Acetic acid, (<em>p</em>-phenylenedioxy)di-;2,2′-[1,4-Phenylenebis(oxy)]bis[acetic acid];Hydroquinone-<em>O</em>,<em>O</em>-diacetic acid;1,4-Dicarboxymethoxybenzene;1,4-Phenylenedioxydiacetic acid;1,4-Bis(carboxymethoxy)benzene;NSC 163333;(<em>p</em>-Phenylenedioxy)diacetic acid;Benzene-1,4-bis(oxydiacetic acid);Hydroquinone-<em>O</em>,<em>O</em>′-diacetic acid;Benzene-1,4-dioxydiacetic acid;(4-Carboxymethoxyphenoxy)acetic acid;2,2′-(1,4-Phenylenebis(oxy))diacetic acid;2-[4-(Carboxymethoxy)phenoxy]acetic acid",
    "duplicated_cas_no": "",
    "SMILES": "O(CC(O)=O)C1=CC=C(OCC(O)=O)C=C1",
    "meta_data": {
        "InChI": "InChI=1S/C10H10O6/c11-9(12)5-15-7-1-2-8(4-3-7)16-6-10(13)14/h1-4H,5-6H2,(H,11,12)(H,13,14)",
        "InChIKey": null,
        "Canonical SMILES": "O=C(O)COC1=CC=C(OCC(=O)O)C=C1",
        "Molecular Formula": "C<sub>10</sub>H<sub>10</sub>O<sub>6</sub>",
        "Molecular Mass": "226.18",
        "Melting Point": "251 °C"
    }
}