{
    "cas_no": "467-55-0",
    "key_name": "(+)-Hecogenin",
    "cn_name": "海柯吉宁;海柯皂苷元;海柯皂甙元;",
    "alternate_name": "Spirostan-12-one, 3-hydroxy-, (3β,5α,25<em>R</em>)-;5α-Spirostan-12-one, 3β-hydroxy-, (25<em>R</em>)-;5α,25<span class=\"text-smallcaps\">D</span>-Spirostan-12-one, 3β-hydroxy-;(3β,5α,25<em>R</em>)-3-Hydroxyspirostan-12-one;Hecogenin;Hocogenin;(25<em>R</em>)-3β-Hydroxy-5α-spirostan-12-one;12-Oxotigogenin;Gekogenin;(+)-Hecogenin;NSC 115921;Hekogenin;25(<em>R</em>)-3β-Hydroxyspirostan-12-one;3β-Hydroxy-5α-hecogenin;(25R)-3b-Hydroxy-5a-spirostan-12-one",
    "duplicated_cas_no": "1368-00-9;27067-83-0",
    "SMILES": "C[C@@]12[C@@]3([C@](C[C@]1([C@]4([C@](CC2=O)([C@]5(C)[C@@](CC4)(C[C@@H](O)CC5)[H])[H])[H])[H])(O[C@@]6([C@H]3C)CC[C@@H](C)CO6)[H])[H]",
    "meta_data": {
        "InChI": "InChI=1S/C27H42O4/c1-15-7-10-27(30-14-15)16(2)24-22(31-27)12-21-19-6-5-17-11-18(28)8-9-25(17,3)20(19)13-23(29)26(21,24)4/h15-22,24,28H,5-14H2,1-4H3/t15-,16+,17+,18+,19-,20+,21+,22+,24+,25+,26-,27-/m1/s1",
        "InChIKey": null,
        "Canonical SMILES": "O=C1CC2C(CCC3CC(O)CCC32C)C4CC5OC6(OCC(C)CC6)C(C)C5C14C",
        "Molecular Formula": "C<sub>27</sub>H<sub>42</sub>O<sub>4</sub>",
        "Molecular Mass": "430.62",
        "Melting Point": "266.5 °C"
    }
}