{
    "cas_no": "2034-69-7",
    "key_name": "Daphnoretin",
    "cn_name": null,
    "alternate_name": "2<em>H</em>-1-Benzopyran-2-one, 7-hydroxy-6-methoxy-3-[(2-oxo-2<em>H</em>-1-benzopyran-7-yl)oxy]-;Coumarin, 7-hydroxy-6-methoxy-3,7′-oxydi-;7-Hydroxy-6-methoxy-3-[(2-oxo-2<em>H</em>-1-benzopyran-7-yl)oxy]-2<em>H</em>-1-benzopyran-2-one;Daphnoretin;Thymelol;NSC 291852",
    "duplicated_cas_no": "",
    "SMILES": "O(C1=CC=2C(OC1=O)=CC(O)=C(OC)C2)C=3C=C4C(=CC3)C=CC(=O)O4",
    "meta_data": {
        "InChI": "InChI=1S/C19H12O7/c1-23-16-6-11-7-17(19(22)26-15(11)9-13(16)20)24-12-4-2-10-3-5-18(21)25-14(10)8-12/h2-9,20H,1H3",
        "InChIKey": null,
        "Canonical SMILES": "O=C1OC=2C=C(OC3=CC=4C=C(OC)C(O)=CC4OC3=O)C=CC2C=C1",
        "Molecular Formula": "C<sub>19</sub>H<sub>12</sub>O<sub>7</sub>",
        "Molecular Mass": "352.29",
        "Melting Point": "249-250 °C"
    }
}