{
    "cas_no": "77-41-8",
    "key_name": "Methsuximide",
    "cn_name": null,
    "alternate_name": "2,5-Pyrrolidinedione, 1,3-dimethyl-3-phenyl-;Succinimide, <em>N</em>,2-dimethyl-2-phenyl-;1,3-Dimethyl-3-phenyl-2,5-pyrrolidinedione;PM 396;Celontin;<em>N</em>,2-Dimethyl-2-phenylsuccinimide;Mesuximide;Methsuximide;Petinutin;Mesuximidum;Methsuximid;1,3-Dimethyl-3-phenylsuccinimide;(±)-Mesuximide;Racemic methsuximide;1,3-Dimethyl-3-phenylpyrrolidine-2,5-dione",
    "duplicated_cas_no": "39122-21-9",
    "SMILES": "CC1(C(=O)N(C)C(=O)C1)C2=CC=CC=C2",
    "meta_data": {
        "InChI": "InChI=1S/C12H13NO2/c1-12(9-6-4-3-5-7-9)8-10(14)13(2)11(12)15/h3-7H,8H2,1-2H3",
        "InChIKey": null,
        "Canonical SMILES": "O=C1N(C(=O)C(C=2C=CC=CC2)(C)C1)C",
        "Molecular Formula": "C<sub>12</sub>H<sub>13</sub>NO<sub>2</sub>",
        "Molecular Mass": "203.24",
        "Boiling Point": "121-122 °C @ Press: 0.1 Torr",
        "Melting Point": "52-53 °C"
    }
}