{
    "cas_no": "21419-48-7",
    "key_name": "6-Bromo-4-quinazolinamine",
    "cn_name": null,
    "alternate_name": "4-Quinazolinamine, 6-bromo-;Quinazoline, 4-amino-6-bromo-;6-Bromo-4-quinazolinamine;4-Amino-6-bromoquinazoline;6-Bromoquinazolin-4-amine",
    "duplicated_cas_no": "",
    "SMILES": "NC=1C2=C(C=CC(Br)=C2)N=CN1",
    "meta_data": {
        "InChI": "InChI=1S/C8H6BrN3/c9-5-1-2-7-6(3-5)8(10)12-4-11-7/h1-4H,(H2,10,11,12)",
        "InChIKey": null,
        "Canonical SMILES": "BrC=1C=CC=2N=CN=C(N)C2C1",
        "Molecular Formula": "C<sub>8</sub>H<sub>6</sub>BrN<sub>3</sub>",
        "Molecular Mass": "224.06",
        "Melting Point": "&gt;350 °C"
    }
}