{
    "cas_no": "446292-10-0",
    "key_name": "4-[4-[(5S)-5-(Aminomethyl)-2-oxo-1,3-oxazolidin-3-yl]phenyl]-morpholin-3-one",
    "cn_name": null,
    "alternate_name": "3-Morpholinone, 4-[4-[(5<em>S</em>)-5-(aminomethyl)-2-oxo-3-oxazolidinyl]phenyl]-;4-[4-[(5<em>S</em>)-5-(Aminomethyl)-2-oxo-3-oxazolidinyl]phenyl]-3-morpholinone;4-[4-[(5<em>S</em>)-5-(Aminomethyl)-2-oxo-1,3-oxazolidin-3-yl]phenyl]morpholin-3-one;4-[4-[(5S)-5-(Aminomethyl)-2-oxo-1,3-oxazolidin-3-yl]phenyl]-morpholin-3-one;(<em>S</em>)-4-[4-(5-Aminomethyl-2-oxooxazolidin-3-yl)phenyl]morpholin-3-one;4-[4-((<em>S</em>)-5-[Aminomethyl]-2-oxooxazolidin-3-yl)phenyl]morpholine-3-one",
    "duplicated_cas_no": "2409680-77-7",
    "SMILES": "O=C1N(C[C@H](CN)O1)C2=CC=C(C=C2)N3C(=O)COCC3",
    "meta_data": {
        "InChI": "InChI=1S/C14H17N3O4/c15-7-12-8-17(14(19)21-12)11-3-1-10(2-4-11)16-5-6-20-9-13(16)18/h1-4,12H,5-9,15H2/t12-/m0/s1",
        "InChIKey": null,
        "Canonical SMILES": "O=C1OC(CN)CN1C2=CC=C(C=C2)N3C(=O)COCC3",
        "Molecular Formula": "C<sub>14</sub>H<sub>17</sub>N<sub>3</sub>O<sub>4</sub>",
        "Molecular Mass": "291.30",
        "Melting Point": "148.3-149.8 °C"
    }
}