{
    "cas_no": "73771-04-7",
    "key_name": "Prednicarbate",
    "cn_name": "泼尼卡酯;",
    "alternate_name": "Pregna-1,4-diene-3,20-dione, 17-[(ethoxycarbonyl)oxy]-11-hydroxy-21-(1-oxopropoxy)-, (11β)-;(11β)-17-[(Ethoxycarbonyl)oxy]-11-hydroxy-21-(1-oxopropoxy)pregna-1,4-diene-3,20-dione;Prednicarbate;HOE 777;Regenit;EsCort;S 77-0777;Dermatop;Prednitop;Prednisolone 17-(ethyl carbonate) 21-propionate;BRD-K46137903",
    "duplicated_cas_no": "",
    "SMILES": "C(COC(CC)=O)(=O)[C@]1(OC(OCC)=O)[C@]2(C)[C@@](CC1)([C@]3([C@]([C@@H](O)C2)([C@]4(C)C(CC3)=CC(=O)C=C4)[H])[H])[H]",
    "meta_data": {
        "InChI": "InChI=1S/C27H36O8/c1-5-22(31)34-15-21(30)27(35-24(32)33-6-2)12-10-19-18-8-7-16-13-17(28)9-11-25(16,3)23(18)20(29)14-26(19,27)4/h9,11,13,18-20,23,29H,5-8,10,12,14-15H2,1-4H3/t18-,19-,20-,23+,25-,26-,27-/m0/s1",
        "InChIKey": null,
        "Canonical SMILES": "O=C(OCC)OC1(C(=O)COC(=O)CC)CCC2C3CCC4=CC(=O)C=CC4(C)C3C(O)CC21C",
        "Molecular Formula": "C<sub>27</sub>H<sub>36</sub>O<sub>8</sub>",
        "Molecular Mass": "488.57",
        "Melting Point": "110-112 °C"
    }
}