{
    "cas_no": "58546-56-8",
    "key_name": "Schisantherin A",
    "cn_name": "五味子酯甲;",
    "alternate_name": "Benzo[3,4]cycloocta[1,2-<em>f</em>][1,3]benzodioxole-5,6-diol, 5,6,7,8-tetrahydro-1,2,3,13-tetramethoxy-6,7-dimethyl-, 5-benzoate, (5<em>S</em>,6<em>S</em>,7<em>S</em>,13a<em>S</em>)-;Benzo[3,4]cycloocta[1,2-<em>f</em>][1,3]benzodioxole-5,6-diol, 5,6,7,8-tetrahydro-1,2,3,13-tetramethoxy-6,7-dimethyl-, 5-benzoate, stereoisomer;Gomisin C;Wuweizi ester A;Schisantherin A;Schizantherin A",
    "duplicated_cas_no": "58546-35-3",
    "SMILES": "O(C)C1=C2C=3C(=CC4=C(C3OC)OCO4)CC(C)C(C)(O)C(OC(=O)C5=CC=CC=C5)C2=CC(OC)=C1OC",
    "meta_data": {
        "InChI": "InChI=1S/C30H32O9/c1-16-12-18-13-21-25(38-15-37-21)26(35-5)22(18)23-19(14-20(33-3)24(34-4)27(23)36-6)28(30(16,2)32)39-29(31)17-10-8-7-9-11-17/h7-11,13-14,16,28,32H,12,15H2,1-6H3",
        "InChIKey": null,
        "Canonical SMILES": "O=C(OC1C=2C=C(OC)C(OC)=C(OC)C2C3=C(OC)C=4OCOC4C=C3CC(C)C1(O)C)C=5C=CC=CC5",
        "Molecular Formula": "C<sub>30</sub>H<sub>32</sub>O<sub>9</sub>",
        "Molecular Mass": "536.57",
        "Melting Point": "120-123 °C"
    }
}