{
    "cas_no": "86-42-0",
    "key_name": "Amodiaquine",
    "cn_name": "阿莫地喹;氨酚喹;",
    "alternate_name": "Phenol, 4-[(7-chloro-4-quinolinyl)amino]-2-[(diethylamino)methyl]-;<em>o</em>-Cresol, 4-[(7-chloro-4-quinolyl)amino]-α-(diethylamino)-;4-[(7-Chloro-4-quinolinyl)amino]-2-[(diethylamino)methyl]phenol;Amodiaquin;Amodiaquine;CAM-AQ 1;Camoquin;Camoquinal;7-Chloro-4-(3-diethylaminomethyl-4-hydroxyanilino)quinoline;Flavoquine;Miaquin;Quinoline, 7-chloro-4-[[3-[(diethylamino)methyl]-4-hydroxyphenyl]amino]-;SN 10,751;CAM-AQI;Camochin;Camoquine;SN 10751;NSC 13453;Sunoquine;Amobin;MeSH ID: D000655",
    "duplicated_cas_no": "",
    "SMILES": "N(C=1C2=C(C=C(Cl)C=C2)N=CC1)C3=CC(CN(CC)CC)=C(O)C=C3",
    "meta_data": {
        "InChI": "InChI=1S/C20H22ClN3O/c1-3-24(4-2)13-14-11-16(6-8-20(14)25)23-18-9-10-22-19-12-15(21)5-7-17(18)19/h5-12,25H,3-4,13H2,1-2H3,(H,22,23)",
        "InChIKey": null,
        "Canonical SMILES": "ClC=1C=CC=2C(=NC=CC2NC3=CC=C(O)C(=C3)CN(CC)CC)C1",
        "Molecular Formula": "C<sub>20</sub>H<sub>22</sub>ClN<sub>3</sub>O",
        "Molecular Mass": "355.86",
        "Melting Point": "208 °C (decomp)"
    }
}