{
    "cas_no": "778-28-9",
    "key_name": "Butyl <em>p</em>-toluenesulfonate",
    "cn_name": "正丁基对甲苯磺酸;",
    "alternate_name": "Benzenesulfonic acid, 4-methyl-, butyl ester;<em>p</em>-Toluenesulfonic acid, butyl ester;Butyl <em>p</em>-toluenesulfonate;Butyl <em>p</em>-methylbenzenesulfonate;Butyl 4-toluenesulfonate;<em>n</em>-Butyl tosylate;<em>n</em>-Butyl <em>p</em>-toluenesulfonate;NSC 6190;4-Methylbenzenesulfonic acid butyl ester;Toluene-4-sulfonic acid butyl ester;Butyl 4-methylbenzenesulfonate;Butyl <em>p</em>-tosylate",
    "duplicated_cas_no": "",
    "SMILES": "S(OCCCC)(=O)(=O)C1=CC=C(C)C=C1",
    "meta_data": {
        "InChI": "InChI=1S/C11H16O3S/c1-3-4-9-14-15(12,13)11-7-5-10(2)6-8-11/h5-8H,3-4,9H2,1-2H3",
        "InChIKey": null,
        "Canonical SMILES": "O=S(=O)(OCCCC)C1=CC=C(C=C1)C",
        "Molecular Formula": "C<sub>11</sub>H<sub>16</sub>O<sub>3</sub>S",
        "Molecular Mass": "228.31",
        "Boiling Point": "170-171 °C @ Press: 10 Torr",
        "Density": "1.1319 g/cm³ @ Temp: 20 °C"
    }
}