{
    "cas_no": "138165-77-2",
    "key_name": "Benzenebutanoic acid, β-amino-, hydrochloride (1:1), (β<em>S</em>)-",
    "cn_name": "(S)-3-氨基-4-苯基丁酸盐酸盐;",
    "alternate_name": "Benzenebutanoic acid, β-amino-, hydrochloride (1:1), (β<em>S</em>)-;Benzenebutanoic acid, β-amino-, hydrochloride, (<em>S</em>)-;Benzenebutanoic acid, β-amino-, hydrochloride, (β<em>S</em>)-;(<em>S</em>)-3-Amino-4-phenylbutyric acid hydrochloride;(<em>S</em>)-β-Aminobenzenebutanoic acid hydrochloride;(<em>S</em>)-3-Amino-4-phenylbutanoic acid hydrochloride",
    "duplicated_cas_no": "",
    "SMILES": "C([C@@H](CC(O)=O)N)C1=CC=CC=C1.Cl",
    "meta_data": {
        "InChI": "InChI=1S/C10H13NO2.ClH/c11-9(7-10(12)13)6-8-4-2-1-3-5-8;/h1-5,9H,6-7,11H2,(H,12,13);1H/t9-;/m0./s1",
        "InChIKey": null,
        "Canonical SMILES": "Cl.O=C(O)CC(N)CC=1C=CC=CC1",
        "Molecular Formula": "C<sub>10</sub>H<sub>13</sub>NO<sub>2</sub>.ClH",
        "Molecular Mass": "",
        "Melting Point": "176-178 °C"
    }
}