{
    "cas_no": "14486-05-6",
    "key_name": "<span class=\"text-smallcaps\">L</smallcap>-Alanyl-<smallcap>L</span>-methionine",
    "cn_name": null,
    "alternate_name": "<span class=\"text-smallcaps\">L</smallcap>-Methionine, <smallcap>L</span>-alanyl-;Methionine, <em>N</em>-<span class=\"text-smallcaps\">L</smallcap>-alanyl-, <smallcap>L</span>-;<span class=\"text-smallcaps\">L</smallcap>-Methionine, <em>N</em>-<smallcap>L</span>-alanyl-;<span class=\"text-smallcaps\">L</smallcap>-Alanyl-<smallcap>L</span>-methionine;Alanylmethionine;Ala-Met;35: PN: WO2005081628 SEQID: 1035 claimed protein;46: PN: EP2161028 PAGE: 10 claimed protein;171: PN: WO2012174480 SEQID: 180 unclaimed protein;170: PN: WO2012174478 SEQID: 180 unclaimed protein;79: PN: WO2014170713 SEQID: 185 claimed protein;4: PN: WO2019107057 SEQID: 4 claimed protein;4: PN: JP2019099488 SEQID: 4 claimed protein;122: PN: WO2023161197 SEQID: 124 claimed sequence",
    "duplicated_cas_no": "",
    "SMILES": "[C@H](NC([C@H](C)N)=O)(CCSC)C(O)=O",
    "meta_data": {
        "InChI": "InChI=1S/C8H16N2O3S/c1-5(9)7(11)10-6(8(12)13)3-4-14-2/h5-6H,3-4,9H2,1-2H3,(H,10,11)(H,12,13)/t5-,6-/m0/s1",
        "InChIKey": null,
        "Canonical SMILES": "O=C(O)C(NC(=O)C(N)C)CCSC",
        "Molecular Formula": "C<sub>8</sub>H<sub>16</sub>N<sub>2</sub>O<sub>3</sub>S",
        "Molecular Mass": "220.29",
        "Melting Point": "82-88 °C"
    }
}