{
    "cas_no": "53902-12-8",
    "key_name": "Tranilast",
    "cn_name": "曲尼司特;N-3,4-二甲基氧基肉桂酰-邻氨基苯甲酸;",
    "alternate_name": "Benzoic acid, 2-[[3-(3,4-dimethoxyphenyl)-1-oxo-2-propen-1-yl]amino]-;Benzoic acid, 2-[[3-(3,4-dimethoxyphenyl)-1-oxo-2-propenyl]amino]-;2-[[3-(3,4-Dimethoxyphenyl)-1-oxo-2-propen-1-yl]amino]benzoic acid;N 5′;<em>N</em>-(3′,4′-Dimethoxycinnamoyl)anthranilic acid;<em>N</em>-(3,4-Dimethoxycinnamoyl)anthranilic acid;Tranilast;Rizaben;2-(3,4-Dimethoxycinnamoylamino)benzoic acid;MK 341;Tranpro;3,4-DAA;2-[3-(3,4-Dimethoxyphenyl)prop-2-enoylamino]benzoic acid",
    "duplicated_cas_no": "",
    "SMILES": "N(C(C=CC1=CC(OC)=C(OC)C=C1)=O)C2=C(C(O)=O)C=CC=C2",
    "meta_data": {
        "InChI": "InChI=1S/C18H17NO5/c1-23-15-9-7-12(11-16(15)24-2)8-10-17(20)19-14-6-4-3-5-13(14)18(21)22/h3-11H,1-2H3,(H,19,20)(H,21,22)",
        "InChIKey": null,
        "Canonical SMILES": "O=C(O)C=1C=CC=CC1NC(=O)C=CC2=CC=C(OC)C(OC)=C2",
        "Molecular Formula": "C<sub>18</sub>H<sub>17</sub>NO<sub>5</sub>",
        "Molecular Mass": "327.33",
        "Melting Point": "212 °C",
        "Density": "1.305 g/cm³"
    }
}