{
    "cas_no": "14074-80-7",
    "key_name": "Zinc tetraphenylporphyrin",
    "cn_name": "四苯基卟啉锌;四苯基菲洛啉锌;",
    "alternate_name": "Zinc, [5,10,15,20-tetraphenyl-21<em>H</em>,23<em>H</em>-porphinato(2-)-κ<em>N</em><sup>21</sup>,κ<em>N</em><sup>22</sup>,κ<em>N</em><sup>23</sup>,κ<em>N</em><sup>24</sup>]-, (<em>SP</em>-4-1)-;Zinc, [5,10,15,20-tetraphenylporphinato(2-)]-;Zinc, [5,10,15,20-tetraphenyl-21<em>H</em>,23<em>H</em>-porphinato(2-)-<em>N</em><sup>21</sup>,<em>N</em><sup>22</sup>,<em>N</em><sup>23</sup>,<em>N</em><sup>24</sup>]-, (<em>SP</em>-4-1)-;Zinc, [α,β,γ,δ-tetraphenylporphinato(2-)]-;Porphine, α,β,γ,δ-tetraphenyl-, Zn deriv.;21<em>H</em>,23<em>H</em>-Porphine, 5,10,15,20-tetraphenyl-, zinc complex;(<em>SP</em>-4-1)-[5,10,15,20-Tetraphenyl-21<em>H</em>,23<em>H</em>-porphinato(2-)-κ<em>N</em><sup>21</sup>,κ<em>N</em><sup>22</sup>,κ<em>N</em><sup>23</sup>,κ<em>N</em><sup>24</sup>]zinc;Tetraphenylporphine zinc chelate;Zinc tetraphenylporphyrin;Tetraphenylporphyrin zinc complex;[5,10,15,20-Tetraphenylporphinato(2-)]zinc;Zinc tetraphenylporphine;Tetraphenylporphinatozinc(II);Zinc(II)tetraphenylporphyrin;Tetraphenylporphyrinzinc(II);5,10,15,20-Tetraphenylporphinatozinc;(5,10,15,20-Tetraphenylporphyrinato)zinc;Tetraphenylporphinato zinc;(<em>meso</em>-Tetraphenylporphinato)zinc;(5,10,15,20-Tetraphenyl-21<em>H</em>,23<em>H</em>-porphinato)zinc;<em>meso</em>-(Tetraphenylporphyrinato)zinc;Zinc meso-tetraphenylporphyrin;(Tetraphenylporphyrinato)zinc;Zinc, 5,10,15,20-tetraphenyl-21<em>H</em>,23<em>H</em>-porphine;(5,10,15,20-Tetraphenylporphyrinato)zinc(II);(5,10,15,20-Tetraphenylporphine)zinc;ZnTPP;5,10,15,20-Tetraphenyl-21<em>H</em>,23<em>H</em>-porphine zinc(II);5,10,15,20-Tetraphenyl-21<em>H</em>,23<em>H</em>-porphine zinc",
    "duplicated_cas_no": "25447-11-4",
    "SMILES": "[Zn+2]123[N-]4C5=C(C6=[N]1C(=C(C=7[N-]2C(C(=C8[N]3=C(C(=C4C=C5)C9=CC=CC=C9)C=C8)C%10=CC=CC=C%10)=CC7)C%11=CC=CC=C%11)C=C6)C%12=CC=CC=C%12",
    "meta_data": {
        "InChI": "InChI=1S/C44H28N4.Zn/c1-5-13-29(14-6-1)41-33-21-23-35(45-33)42(30-15-7-2-8-16-30)37-25-27-39(47-37)44(32-19-11-4-12-20-32)40-28-26-38(48-40)43(31-17-9-3-10-18-31)36-24-22-34(41)46-36;/h1-28H;/q-2;+2/b41-33-,41-34?,42-35-,42-37?,43-36-,43-38?,44-39-,44-40?;",
        "InChIKey": null,
        "Canonical SMILES": "C=1C=CC(=CC1)C=2C=3C=CC4=C(C=5C=CC=CC5)C6=CC=C7C(C=8C=CC=CC8)=C9C=CC=%10C(C=%11C=CC=CC%11)=C%12C=CC2[N-]%12[Zn+2]([N]34)([N]%109)[N-]67",
        "Molecular Formula": "C<sub>44</sub>H<sub>28</sub>N<sub>4</sub>Zn",
        "Molecular Mass": "",
        "Melting Point": "&gt;350 °C (decomp)"
    }
}