{
    "cas_no": "82-66-6",
    "key_name": "Diphacinone",
    "cn_name": "敌鼠;2-(2,2-二苯基乙酰基)-1,3-茚满二酮;敌鼠钠;鼠敌;2-(二苯基乙酰基)-1,3-茚满二酮;双苯东鼠酮;",
    "alternate_name": "1<em>H</em>-Indene-1,3(2<em>H</em>)-dione, 2-(2,2-diphenylacetyl)-;1,3-Indandione, 2-(diphenylacetyl)-;1<em>H</em>-Indene-1,3(2<em>H</em>)-dione, 2-(diphenylacetyl)-;2-(2,2-Diphenylacetyl)-1<em>H</em>-indene-1,3(2<em>H</em>)-dione;U 1363;Didandin;Dipaxin;Diphacin;Diphacinone;Diphenacin;Diphenadione;2-(Diphenylacetyl)indan-1,3-dione;Ratindan 1;Diphenadion;Didion;Oragulant;Solvan;Ratindan;Diphacinon;NSC 9138;Pestoff ferret paste;NCI 9138;Diphenylacetylindandione;2-(Diphenylacetyl)-1<em>H</em>-indene-1,3(2<em>H</em>)-dione",
    "duplicated_cas_no": "",
    "SMILES": "C(C(=O)C1C(=O)C=2C(C1=O)=CC=CC2)(C3=CC=CC=C3)C4=CC=CC=C4",
    "meta_data": {
        "InChI": "InChI=1S/C23H16O3/c24-21-17-13-7-8-14-18(17)22(25)20(21)23(26)19(15-9-3-1-4-10-15)16-11-5-2-6-12-16/h1-14,19-20H",
        "InChIKey": null,
        "Canonical SMILES": "O=C1C=2C=CC=CC2C(=O)C1C(=O)C(C=3C=CC=CC3)C=4C=CC=CC4",
        "Molecular Formula": "C<sub>23</sub>H<sub>16</sub>O<sub>3</sub>",
        "Molecular Mass": "340.37",
        "Melting Point": "141-145 °C"
    }
}