{
    "cas_no": "96-10-6",
    "key_name": "Diethylaluminum chloride",
    "cn_name": "一氯二乙基铝;",
    "alternate_name": "Aluminum, chlorodiethyl-;Diethylaluminum chloride;Aluminum, dichlorotetraethyldi-;Chlorodiethylaluminum;Diethylaluminum monochloride;Diethylchloroaluminum;Diethylaluminium chloride",
    "duplicated_cas_no": "12080-90-9",
    "SMILES": "[Al](CC)(CC)Cl",
    "meta_data": {
        "InChI": "InChI=1S/2C2H5.Al.ClH/c2*1-2;;/h2*1H2,2H3;;1H/q;;+1;/p-1",
        "InChIKey": null,
        "Canonical SMILES": "Cl[Al](CC)CC",
        "Molecular Formula": "C<sub>4</sub>H<sub>10</sub>AlCl",
        "Molecular Mass": "",
        "Boiling Point": "208 °C",
        "Melting Point": "-74 °C",
        "Density": "0.9709 g/cm³ @ Temp: 25 °C"
    }
}