{
    "cas_no": "135410-20-7",
    "key_name": "Acetamiprid",
    "cn_name": "啶虫脒;E-N-[(6-氯-3-吡啶基)]-N2-氰基-N-甲基乙酰胺;",
    "alternate_name": "Ethanimidamide, <em>N</em>-[(6-chloro-3-pyridinyl)methyl]-<em>N</em>′-cyano-<em>N</em>-methyl-, (1<em>E</em>)-;(1<em>E</em>)-<em>N</em>-[(6-Chloro-3-pyridinyl)methyl]-<em>N</em>′-cyano-<em>N</em>-methylethanimidamide;Acetamiprid;Mospilan;NI 25;NI 25 (pesticide);Pristine;Assail;Piorun;Stonkat;Intruder;TD 2472-01;TD 2472;TD 2480;ADA 06200;NFK 17;Prize;Prize (insecticide);BY 102960;Pristine (insecticide);Gazelle SG;Mospilan 20SP;Assail 30SG;Supreme;Epik 20 SG;Quasar 8.5SL;Mukhnet A;Mospilan 20SG;Mospilan SG;Acelan 20;Acelan 20SL;Acelan 20SP;Azomar",
    "duplicated_cas_no": "152949-80-9;468644-47-5",
    "SMILES": "C(N(/C(=N/C#N)/C)C)C=1C=CC(Cl)=NC1",
    "meta_data": {
        "InChI": "InChI=1S/C10H11ClN4/c1-8(14-7-12)15(2)6-9-3-4-10(11)13-5-9/h3-5H,6H2,1-2H3/b14-8+",
        "InChIKey": null,
        "Canonical SMILES": "N#CN=C(N(C)CC1=CN=C(Cl)C=C1)C",
        "Molecular Formula": "C<sub>10</sub>H<sub>11</sub>ClN<sub>4</sub>",
        "Molecular Mass": "222.67",
        "Melting Point": "98.9 °C"
    }
}