{
    "cas_no": "36070-80-1",
    "key_name": "5-Chloro-2-pyrazinecarboxylic acid",
    "cn_name": "5-氯吡嗪-2-羧酸;",
    "alternate_name": "2-Pyrazinecarboxylic acid, 5-chloro-;Pyrazinecarboxylic acid, 5-chloro-;5-Chloro-2-pyrazinecarboxylic acid;5-Chloropyrazinoic acid",
    "duplicated_cas_no": "",
    "SMILES": "C(O)(=O)C=1C=NC(Cl)=CN1",
    "meta_data": {
        "InChI": "InChI=1S/C5H3ClN2O2/c6-4-2-7-3(1-8-4)5(9)10/h1-2H,(H,9,10)",
        "InChIKey": null,
        "Canonical SMILES": "O=C(O)C=1N=CC(Cl)=NC1",
        "Molecular Formula": "C<sub>5</sub>H<sub>3</sub>ClN<sub>2</sub>O<sub>2</sub>",
        "Molecular Mass": "158.54",
        "Melting Point": "153 °C (decomp)"
    }
}