{
    "cas_no": "405-31-2",
    "key_name": "Disulfide, bis(4-fluorophenyl)",
    "cn_name": null,
    "alternate_name": "Disulfide, bis(4-fluorophenyl);Disulfide, bis(<em>p</em>-fluorophenyl);Bis(<em>p</em>-fluorophenyl) disulfide;Bis(4-fluorophenyl) disulfide;Di-4-fluorophenyl disulfide;1,2-Bis(4-fluorophenyl)disulfane;1-Fluoro-4-[(4-fluorophenyl)disulfanyl]benzene",
    "duplicated_cas_no": "1623131-00-9",
    "SMILES": "S(SC1=CC=C(F)C=C1)C2=CC=C(F)C=C2",
    "meta_data": {
        "InChI": "InChI=1S/C12H8F2S2/c13-9-1-5-11(6-2-9)15-16-12-7-3-10(14)4-8-12/h1-8H",
        "InChIKey": null,
        "Canonical SMILES": "FC1=CC=C(SSC2=CC=C(F)C=C2)C=C1",
        "Molecular Formula": "C<sub>12</sub>H<sub>8</sub>F<sub>2</sub>S<sub>2</sub>",
        "Molecular Mass": "254.32",
        "Boiling Point": "149-151 °C @ Press: 3.5 Torr",
        "Melting Point": "49-51 °C"
    }
}