{
    "cas_no": "373-14-8",
    "key_name": "1-Fluorohexane",
    "cn_name": "舒巴坦酸;舒巴坦;青霉砜;青霉烷砜;青霉烷砜酸;",
    "alternate_name": "Hexane, 1-fluoro-;1-Fluorohexane;Hexyl fluoride;1-Hexylfluoride;1-Hexyl fluoride",
    "duplicated_cas_no": "",
    "SMILES": "C(CCC)CCF",
    "meta_data": {
        "InChI": "InChI=1S/C6H13F/c1-2-3-4-5-6-7/h2-6H2,1H3",
        "InChIKey": null,
        "Canonical SMILES": "FCCCCCC",
        "Molecular Formula": "C<sub>6</sub>H<sub>13</sub>F",
        "Molecular Mass": "104.17",
        "Boiling Point": "91.5 °C",
        "Melting Point": "-103 °C",
        "Density": "0.819 g/cm³ @ Temp: 0 °C"
    }
}