{
    "cas_no": "81403-80-7",
    "key_name": "Alfuzosin",
    "cn_name": null,
    "alternate_name": "2-Furancarboxamide, <em>N</em>-[3-[(4-amino-6,7-dimethoxy-2-quinazolinyl)methylamino]propyl]tetrahydro-;<em>N</em>-[3-[(4-Amino-6,7-dimethoxy-2-quinazolinyl)methylamino]propyl]tetrahydro-2-furancarboxamide;Alfuzosin;SL 77499;<em>N</em>-[3-[<em>N</em>-(4-Amino-6,7-dimethoxyquinazolin-2-yl)-<em>N</em>-(methyl)amino]propyl]tetrahydrofuran-2-carboxamide",
    "duplicated_cas_no": "128707-53-9;86163-78-2",
    "SMILES": "NC=1C2=C(N=C(N(CCCNC(=O)C3CCCO3)C)N1)C=C(OC)C(OC)=C2",
    "meta_data": {
        "InChI": "InChI=1S/C19H27N5O4/c1-24(8-5-7-21-18(25)14-6-4-9-28-14)19-22-13-11-16(27-3)15(26-2)10-12(13)17(20)23-19/h10-11,14H,4-9H2,1-3H3,(H,21,25)(H2,20,22,23)",
        "InChIKey": null,
        "Canonical SMILES": "O=C(NCCCN(C=1N=C(N)C=2C=C(OC)C(OC)=CC2N1)C)C3OCCC3",
        "Molecular Formula": "C<sub>19</sub>H<sub>27</sub>N<sub>5</sub>O<sub>4</sub>",
        "Molecular Mass": "389.45",
        "Melting Point": "178-180 °C"
    }
}