{
    "cas_no": "1327-50-0",
    "key_name": "Antimony telluride (Sb<sub>2</sub>Te<sub>3</sub>)",
    "cn_name": "碲化锑;",
    "alternate_name": "Antimony telluride (Sb<sub>2</sub>Te<sub>3</sub>);Antimony tritelluride;Antimony sesquitelluride;Diantimony tritelluride;Antimony(3+) telluride;Antimony telluride;Antimony 95-100, tellurium 0-5 (atomic)",
    "duplicated_cas_no": "73508-20-0",
    "SMILES": "[Te].[Sb]",
    "meta_data": {
        "InChI": "InChI=1S/Sb.Te",
        "InChIKey": null,
        "Canonical SMILES": "[Sb].[Te]",
        "Molecular Formula": "Sb.Te",
        "Molecular Mass": "",
        "Boiling Point": "1173.8 °C",
        "Melting Point": "600 °C",
        "Density": "6.09 g/cm³"
    }
}