{
    "uri": "substance/pt/1327500",
    "rn": "1327-50-0",
    "name": "Antimony telluride (Sb<sub>2</sub>Te<sub>3</sub>)",
    "images": [],
    "inchi": "InChI=1S/Sb.Te",
    "inchiKey": "InChIKey=DDJAGKOCVFYQOV-UHFFFAOYSA-N",
    "smile": "[Te].[Sb]",
    "canonicalSmile": "[Sb].[Te]",
    "molecularFormula": "Sb.Te",
    "molecularMass": "",
    "experimentalProperties": [
        {
            "name": "Boiling Point",
            "property": "1173.8 °C",
            "sourceNumber": 1
        },
        {
            "name": "Melting Point",
            "property": "600 °C",
            "sourceNumber": 2
        },
        {
            "name": "Density",
            "property": "6.09 g/cm³",
            "sourceNumber": 3
        }
    ],
    "propertyCitations": [
        {
            "docUri": "document/pt/document/21172827",
            "sourceNumber": 1,
            "source": "Ustyugov, G. P.; Izvestiya Akademii Nauk SSSR, Neorganicheskie Materialy, (1969), 5(3), 589-90, CAplus"
        },
        {
            "docUri": "document/pt/document/23527272",
            "sourceNumber": 2,
            "source": "Helabon, P.; Annales de Chimie et de Physique, (1910), 17, 526-66, CAplus"
        },
        {
            "docUri": "document/pt/document/21754433",
            "sourceNumber": 3,
            "source": "Glazov, V. M.; Izvestiya Akademii Nauk SSSR, Neorganicheskie Materialy, (1966), 2(8), 1477-82, CAplus"
        }
    ],
    "synonyms": [
        "Antimony telluride (Sb<sub>2</sub>Te<sub>3</sub>)",
        "Antimony tritelluride",
        "Antimony sesquitelluride",
        "Diantimony tritelluride",
        "Antimony(3+) telluride",
        "Antimony telluride",
        "Antimony 95-100, tellurium 0-5 (atomic)"
    ],
    "replacedRns": [
        "73508-20-0"
    ],
    "hasMolfile": true,
    "source": "https://commonchemistry.cas.org/detail?cas_rn=1327-50-0"
}