{
    "cas_no": "13361-64-3",
    "key_name": "Trimethyl-2-propyn-1-ylsilane",
    "cn_name": "炔丙基三甲基硅烷;",
    "alternate_name": "Silane, trimethyl-2-propyn-1-yl-;Silane, trimethyl-2-propynyl-;Trimethyl-2-propyn-1-ylsilane;Trimethyl-2-propynylsilane;3-(Trimethylsilyl)propyne;Propargyltrimethylsilane;Trimethylpropargylsilane;3-(Trimethylsilyl)-1-propyne;[(Trimethylsilyl)methyl]acetylene;1-(Trimethylsilyl)-2-propyne",
    "duplicated_cas_no": "",
    "SMILES": "C([Si](C)(C)C)C#C",
    "meta_data": {
        "InChI": "InChI=1S/C6H12Si/c1-5-6-7(2,3)4/h1H,6H2,2-4H3",
        "InChIKey": null,
        "Canonical SMILES": "C#CC[Si](C)(C)C",
        "Molecular Formula": "C<sub>6</sub>H<sub>12</sub>Si",
        "Molecular Mass": "112.25",
        "Boiling Point": "97 °C @ Press: 752 Torr",
        "Density": "0.8020 g/cm³ @ Temp: 20 °C"
    }
}