{
    "cas_no": "111025-46-8",
    "key_name": "Pioglitazone",
    "cn_name": "匹格列酮;5-[[4-[2-(5-乙基吡啶-2-基)乙氧基]苯基]甲基]-1,3-噻唑烷-2,4-二酮;",
    "alternate_name": "2,4-Thiazolidinedione, 5-[[4-[2-(5-ethyl-2-pyridinyl)ethoxy]phenyl]methyl]-;2,4-Thiazolidinedione, 5-[[4-[2-(5-ethyl-2-pyridinyl)ethoxy]phenyl]methyl]-, (±)-;5-[[4-[2-(5-Ethyl-2-pyridinyl)ethoxy]phenyl]methyl]-2,4-thiazolidinedione;Pioglitazone;U 72107;5-[4-[2-(5-Ethyl-2-pyridyl)ethoxy]benzyl]thiazolidine-2,4-dione;Zactos;5-[4-[2-(5-Ethylpyridin-2-yl)ethoxy]benzyl]thiazolidine-2,4-dione",
    "duplicated_cas_no": "105355-27-9;198077-89-3",
    "SMILES": "C(C1C(=O)NC(=O)S1)C2=CC=C(OCCC3=CC=C(CC)C=N3)C=C2",
    "meta_data": {
        "InChI": "InChI=1S/C19H20N2O3S/c1-2-13-3-6-15(20-12-13)9-10-24-16-7-4-14(5-8-16)11-17-18(22)21-19(23)25-17/h3-8,12,17H,2,9-11H2,1H3,(H,21,22,23)",
        "InChIKey": null,
        "Canonical SMILES": "O=C1SC(C(=O)N1)CC2=CC=C(OCCC3=NC=C(C=C3)CC)C=C2",
        "Molecular Formula": "C<sub>19</sub>H<sub>20</sub>N<sub>2</sub>O<sub>3</sub>S",
        "Molecular Mass": "356.44",
        "Melting Point": "183-184 °C"
    }
}