{
    "cas_no": "7730-87-2",
    "key_name": "1-Methyl-2-piperidinecarboxylic acid",
    "cn_name": null,
    "alternate_name": "2-Piperidinecarboxylic acid, 1-methyl-;Pipecolic acid, 1-methyl-;1-Methyl-2-piperidinecarboxylic acid;<em>N</em>-Methyl-2-piperidinecarboxylic acid;2-Piperidinecarboxylic acid, 1-methyl-, (±)-;1-Methylpipecolinic acid",
    "duplicated_cas_no": "35677-86-2",
    "SMILES": "C(O)(=O)C1N(C)CCCC1",
    "meta_data": {
        "InChI": "InChI=1S/C7H13NO2/c1-8-5-3-2-4-6(8)7(9)10/h6H,2-5H2,1H3,(H,9,10)",
        "InChIKey": null,
        "Canonical SMILES": "O=C(O)C1N(C)CCCC1",
        "Molecular Formula": "C<sub>7</sub>H<sub>13</sub>NO<sub>2</sub>",
        "Molecular Mass": "143.18",
        "Melting Point": "207 °C"
    }
}