{
    "cas_no": "106308-44-5",
    "key_name": "Rufinamide",
    "cn_name": "卢非酰胺;1-(2,6-二氟苄基)-1H-1,2,3-三氮唑-4-甲酰胺;",
    "alternate_name": "1<em>H</em>-1,2,3-Triazole-4-carboxamide, 1-[(2,6-difluorophenyl)methyl]-;1-[(2,6-Difluorophenyl)methyl]-1<em>H</em>-1,2,3-triazole-4-carboxamide;CGP 33101;Rufinamide;RUF 331;Inovelon;E 2080;1-[(2,6-Difiuorophenyl)methyl]-1H-1,2,3-triazole-4 carboxamide;Banzel;1-(2,6-Difluorobenzyl)-1<em>H</em>-1,2,3-triazole-4-carboxamide",
    "duplicated_cas_no": "",
    "SMILES": "C(N1C=C(C(N)=O)N=N1)C2=C(F)C=CC=C2F",
    "meta_data": {
        "InChI": "InChI=1S/C10H8F2N4O/c11-7-2-1-3-8(12)6(7)4-16-5-9(10(13)17)14-15-16/h1-3,5H,4H2,(H2,13,17)",
        "InChIKey": null,
        "Canonical SMILES": "O=C(N)C=1N=NN(C1)CC=2C(F)=CC=CC2F",
        "Molecular Formula": "C<sub>10</sub>H<sub>8</sub>F<sub>2</sub>N<sub>4</sub>O",
        "Molecular Mass": "238.19",
        "Melting Point": "236-237 °C",
        "Density": "0.1724 g/cm³ (solid)"
    }
}