{
    "cas_no": "867-13-0",
    "key_name": "Triethyl phosphonoacetate",
    "cn_name": "磷酰基乙酸三乙酯;",
    "alternate_name": "Acetic acid, 2-(diethoxyphosphinyl)-, ethyl ester;Acetic acid, phosphono-, triethyl ester;Acetic acid, (diethoxyphosphinyl)-, ethyl ester;Phosphonoacetic acid triethyl ester;Diethyl carbethoxymethylphosphonate;Diethyl ethoxycarbonylmethanephosphonate;Ethyl diethoxyphosphoryl acetate;Ethyl (diethoxyphosphinyl)acetate;Ethyl (diethylphosphono)acetate;Triethyl phosphonoacetate;(Ethoxycarbonylmethyl)diethoxyphosphine oxide;Diethyl phosphonoacetic acid ethyl ester;Carbethoxymethyldiethyl phosphonate;Ethyl α-diethylphosphonoacetate;Triethyl phosphonacetate;(Diethoxyphosphinyl)acetic acid ethyl ester;JC 224;2-Phosphonoacetic acid triethyl ester;NSC 13898;NSC 16128;Ethyl 2-(diethoxyphosphinyl)acetate;(Diethoxyphosphoryl)acetic acid ethyl ester;Ethyl 2-(diethylphosphono)acetate;Triethyl 2-phosphonoacetate;Ethyl 2-(diethoxyphosphoryl)acetate;Ethyl 2-(diethoxylphosphoryl)acetate;Diethyl 2-ethoxy-2-oxoethylphosphonate;2-(Diethoxyphosphinyl)acetic acid ethyl ester",
    "duplicated_cas_no": "874204-68-9",
    "SMILES": "P(CC(OCC)=O)(OCC)(OCC)=O",
    "meta_data": {
        "InChI": "InChI=1S/C8H17O5P/c1-4-11-8(9)7-14(10,12-5-2)13-6-3/h4-7H2,1-3H3",
        "InChIKey": null,
        "Canonical SMILES": "O=C(OCC)CP(=O)(OCC)OCC",
        "Molecular Formula": "C<sub>8</sub>H<sub>17</sub>O<sub>5</sub>P",
        "Molecular Mass": "224.19",
        "Boiling Point": "140-141 °C @ Press: 9-10 Torr",
        "Melting Point": "92-93 °C",
        "Density": "1.0917 g/cm³ @ Temp: 20 °C"
    }
}