{
    "cas_no": "16919-58-7",
    "key_name": "Ammonium hexachloroplatinate",
    "cn_name": null,
    "alternate_name": "Platinate(2-), hexachloro-, ammonium (1:2), (<em>OC</em>-6-11)-;Platinate(2-), hexachloro-, diammonium, (<em>OC</em>-6-11)-;Platinate(2-), hexachloro-, diammonium;Ammonium hexachloroplatinate(IV);Ammonium chloroplatinate(IV);Diammonium hexachloroplatinate(2-);Diammonium platinum hexachloride;Diammonium hexachloroplatinate;Ammonium hexachloroplatinate;Ammonium chloroplatinate ((NH<sub>4</sub>)<sub>2</sub>PtCl<sub>6</sub>);NSC 119874;NSC 240453",
    "duplicated_cas_no": "1332-76-9;174494-25-8",
    "SMILES": "[Pt+4]([Cl-])([Cl-])([Cl-])([Cl-])([Cl-])[Cl-].[NH4+]",
    "meta_data": {
        "InChI": "InChI=1S/6ClH.2H3N.Pt/h6*1H;2*1H3;/q;;;;;;;;+4/p-4",
        "InChIKey": null,
        "Canonical SMILES": "[Cl-][Pt+4]([Cl-])([Cl-])([Cl-])([Cl-])[Cl-].[NH4+]",
        "Molecular Formula": "Cl<sub>6</sub>Pt.2H<sub>4</sub>N",
        "Molecular Mass": "",
        "Melting Point": "380 °C (decomp)",
        "Density": "3.06 g/cm³"
    }
}