{
    "cas_no": "620-23-5",
    "key_name": "3-Methylbenzaldehyde",
    "cn_name": "3-甲基苯甲醛;间甲基苯甲醛;",
    "alternate_name": "Benzaldehyde, 3-methyl-;<em>m</em>-Tolualdehyde;3-Methylbenzaldehyde;<em>m</em>-Methylbenzaldehyde;<em>m</em>-Formyltoluene;3-Tolualdehyde;NSC 1244;NSC 89859;3-Methylphenylcarboxaldehyde",
    "duplicated_cas_no": "",
    "SMILES": "C(=O)C1=CC(C)=CC=C1",
    "meta_data": {
        "InChI": "InChI=1S/C8H8O/c1-7-3-2-4-8(5-7)6-9/h2-6H,1H3",
        "InChIKey": null,
        "Canonical SMILES": "O=CC1=CC=CC(=C1)C",
        "Molecular Formula": "C<sub>8</sub>H<sub>8</sub>O",
        "Molecular Mass": "120.15",
        "Boiling Point": "199 °C",
        "Melting Point": "&lt;25 °C"
    }
}