{
    "cas_no": "14815-87-3",
    "key_name": "Benzoic acid, 4-(trichloromethyl)-, methyl ester",
    "cn_name": null,
    "alternate_name": "Benzoic acid, 4-(trichloromethyl)-, methyl ester;<em>p</em>-Toluic acid, α,α,α-trichloro-, methyl ester;4-(Trichloromethyl)benzoic acid methyl ester;Methyl <em>p</em>-(trichloromethyl)benzoate;<em>p</em>-(Methoxycarbonyl)benzotrichloride;Methyl 4-trichloromethylbenzoate",
    "duplicated_cas_no": "",
    "SMILES": "C(Cl)(Cl)(Cl)C1=CC=C(C(OC)=O)C=C1",
    "meta_data": {
        "InChI": "InChI=1S/C9H7Cl3O2/c1-14-8(13)6-2-4-7(5-3-6)9(10,11)12/h2-5H,1H3",
        "InChIKey": null,
        "Canonical SMILES": "O=C(OC)C1=CC=C(C=C1)C(Cl)(Cl)Cl",
        "Molecular Formula": "C<sub>9</sub>H<sub>7</sub>Cl<sub>3</sub>O<sub>2</sub>",
        "Molecular Mass": "253.51",
        "Melting Point": "49.5 °C"
    }
}