{
    "cas_no": "3188-13-4",
    "key_name": "(Chloromethoxy)ethane",
    "cn_name": "氯甲基乙醚;1-氯甲基乙基醚;",
    "alternate_name": "Ethane, (chloromethoxy)-;Ether, chloromethyl ethyl;(Chloromethoxy)ethane;Chloromethyl ethyl ether;Ethoxymethyl chloride;Ethyl chloromethyl ether;Ethoxychloromethane",
    "duplicated_cas_no": "",
    "SMILES": "O(CC)CCl",
    "meta_data": {
        "InChI": "InChI=1S/C3H7ClO/c1-2-5-3-4/h2-3H2,1H3",
        "InChIKey": null,
        "Canonical SMILES": "ClCOCC",
        "Molecular Formula": "C<sub>3</sub>H<sub>7</sub>ClO",
        "Molecular Mass": "94.54",
        "Boiling Point": "83 °C",
        "Density": "1.0188 g/cm³ @ Temp: 15 °C"
    }
}