{
    "cas_no": "1882-82-2",
    "key_name": "21-Deoxycortisone",
    "cn_name": "17&alpha;-羟基孕甾-4-烯-3,11,20-三酮;孕甾-4-烯-17&alpha;-醇-3,11,20-三酮;",
    "alternate_name": "Pregn-4-ene-3,11,20-trione, 17-hydroxy-;17-Hydroxypregn-4-ene-3,11,20-trione;6-Pregn-4-en-17α-ol-3,11,20-trione;4-Pregnene-17α-ol-3,11,20-trione;17α-Hydroxypregn-4-ene-3,11,20-trione;21-Deoxycortisone;21-Desoxycortisone;17α-Hydroxy-11-oxoprogesterone;NSC 38722",
    "duplicated_cas_no": "",
    "SMILES": "C[C@@]12[C@]([C@]3([C@@]([C@]4(C)C(CC3)=CC(=O)CC4)(C(=O)C1)[H])[H])(CC[C@@]2(C(C)=O)O)[H]",
    "meta_data": {
        "InChI": "InChI=1S/C21H28O4/c1-12(22)21(25)9-7-16-15-5-4-13-10-14(23)6-8-19(13,2)18(15)17(24)11-20(16,21)3/h10,15-16,18,25H,4-9,11H2,1-3H3/t15-,16-,18+,19-,20-,21-/m0/s1",
        "InChIKey": null,
        "Canonical SMILES": "O=C1C=C2CCC3C(C(=O)CC4(C)C3CCC4(O)C(=O)C)C2(C)CC1",
        "Molecular Formula": "C<sub>21</sub>H<sub>28</sub>O<sub>4</sub>",
        "Molecular Mass": "344.44",
        "Melting Point": "236-239 °C",
        "Density": "1.25 g/cm³"
    }
}