{
    "cas_no": "13361-32-5",
    "key_name": "2-Propen-1-yl 2-cyanoacetate",
    "cn_name": "氰乙酸烯丙酯;",
    "alternate_name": "Acetic acid, 2-cyano-, 2-propen-1-yl ester;Acetic acid, cyano-, allyl ester;Acetic acid, cyano-, 2-propenyl ester;2-Propen-1-yl 2-cyanoacetate;Cyanoacetic acid allyl ester;Allyl cyanoacetate;Allyl 2-cyanoacetate",
    "duplicated_cas_no": "",
    "SMILES": "C(OCC=C)(CC#N)=O",
    "meta_data": {
        "InChI": "InChI=1S/C6H7NO2/c1-2-5-9-6(8)3-4-7/h2H,1,3,5H2",
        "InChIKey": null,
        "Canonical SMILES": "N#CCC(=O)OCC=C",
        "Molecular Formula": "C<sub>6</sub>H<sub>7</sub>NO<sub>2</sub>",
        "Molecular Mass": "125.13",
        "Boiling Point": "89-90 °C @ Press: 3.8 Torr"
    }
}