{
    "cas_no": "27262-40-4",
    "key_name": "2′,6′-Pipecoloxylidide, (+)-",
    "cn_name": "(S)-N-(2\",6\"-二甲苯基)-2-哌啶甲酰胺;",
    "alternate_name": "2-Piperidinecarboxamide, <em>N</em>-(2,6-dimethylphenyl)-, (2<em>S</em>)-;2′,6′-Pipecoloxylidide, (+)-;2-Piperidinecarboxamide, <em>N</em>-(2,6-dimethylphenyl)-, (<em>S</em>)-;(2<em>S</em>)-<em>N</em>-(2,6-Dimethylphenyl)-2-piperidinecarboxamide;<span class=\"text-smallcaps\">L</span>-Pipecolic acid 2,6-xylidide;(<em>S</em>)-<em>N</em>-(2,6-Dimethylphenyl)-2-piperidinecarboxamide;(2S)-<em>N</em>-(2,6-Dimethylphenyl)piperidine-2-carboxamide;2-Piperidinecarboxamide <em>N</em>-(2,6-dimethylphenyl)-, (2S)-",
    "duplicated_cas_no": "",
    "SMILES": "N(C(=O)[C@@H]1CCCCN1)C2=C(C)C=CC=C2C",
    "meta_data": {
        "InChI": "InChI=1S/C14H20N2O/c1-10-6-5-7-11(2)13(10)16-14(17)12-8-3-4-9-15-12/h5-7,12,15H,3-4,8-9H2,1-2H3,(H,16,17)/t12-/m0/s1",
        "InChIKey": null,
        "Canonical SMILES": "O=C(NC=1C(=CC=CC1C)C)C2NCCCC2",
        "Molecular Formula": "C<sub>14</sub>H<sub>20</sub>N<sub>2</sub>O",
        "Molecular Mass": "232.32",
        "Melting Point": "129-130 °C"
    }
}