{
    "cas_no": "836-43-1",
    "key_name": "4-(Benzyloxy)benzyl alcohol",
    "cn_name": "4-苄氧基苯甲醇;",
    "alternate_name": "Benzenemethanol, 4-(phenylmethoxy)-;Benzyl alcohol, <em>p</em>-(benzyloxy)-;4-(Phenylmethoxy)benzenemethanol;<em>p</em>-Benzyloxybenzyl alcohol;4-(Benzyloxy)benzyl alcohol;(4-Benzyloxyphenyl)methanol;NSC 131675;4-Benzyloxybenzenemethanol",
    "duplicated_cas_no": "",
    "SMILES": "O(CC1=CC=CC=C1)C2=CC=C(CO)C=C2",
    "meta_data": {
        "InChI": "InChI=1S/C14H14O2/c15-10-12-6-8-14(9-7-12)16-11-13-4-2-1-3-5-13/h1-9,15H,10-11H2",
        "InChIKey": null,
        "Canonical SMILES": "OCC1=CC=C(OCC=2C=CC=CC2)C=C1",
        "Molecular Formula": "C<sub>14</sub>H<sub>14</sub>O<sub>2</sub>",
        "Molecular Mass": "214.26",
        "Melting Point": "84-86 °C"
    }
}