{
    "cas_no": "4487-59-6",
    "key_name": "2-Bromo-5-nitropyridine",
    "cn_name": "2-溴-5-硝基吡啶;5-硝基-2-溴吡啶;",
    "alternate_name": "Pyridine, 2-bromo-5-nitro-;2-Bromo-5-nitropyridine;5-Nitro-2-bromopyridine;NSC 73702",
    "duplicated_cas_no": "",
    "SMILES": "N(=O)(=O)C=1C=CC(Br)=NC1",
    "meta_data": {
        "InChI": "InChI=1S/C5H3BrN2O2/c6-5-2-1-4(3-7-5)8(9)10/h1-3H",
        "InChIKey": null,
        "Canonical SMILES": "O=N(=O)C1=CN=C(Br)C=C1",
        "Molecular Formula": "C<sub>5</sub>H<sub>3</sub>BrN<sub>2</sub>O<sub>2</sub>",
        "Molecular Mass": "202.99",
        "Boiling Point": "145-147 °C @ Press: 10 Torr",
        "Melting Point": "138 °C"
    }
}