{
    "cas_no": "15574-49-9",
    "key_name": "Mecarbinate",
    "cn_name": "美卡比酯;1,2-二甲基-5-羟基-3-吲哚甲酸乙酯;",
    "alternate_name": "1<em>H</em>-Indole-3-carboxylic acid, 5-hydroxy-1,2-dimethyl-, ethyl ester;Indole-3-carboxylic acid, 5-hydroxy-1,2-dimethyl-, ethyl ester;Ethyl 5-hydroxy-1,2-dimethylindole-3-carboxylate;Mecarbinate;Dimecarbine;1,2-Dimethyl-3-carbethoxy-5-hydroxyindole;Ba 2676;Dimecarbin;3-(Ethoxycarbonyl)-5-hydroxy-1,2-dimethylindole;Ethyl 5-hydroxy-1,2-dimethyl-1<em>H</em>-indole-3-carboxylate;Dimekarbin;1,2-Dimethyl-3-carbethoxy-5-oxyindole",
    "duplicated_cas_no": "1420181-02-7",
    "SMILES": "C(OCC)(=O)C=1C=2C(N(C)C1C)=CC=C(O)C2",
    "meta_data": {
        "InChI": "InChI=1S/C13H15NO3/c1-4-17-13(16)12-8(2)14(3)11-6-5-9(15)7-10(11)12/h5-7,15H,4H2,1-3H3",
        "InChIKey": null,
        "Canonical SMILES": "O=C(OCC)C=1C=2C=C(O)C=CC2N(C1C)C",
        "Molecular Formula": "C<sub>13</sub>H<sub>15</sub>NO<sub>3</sub>",
        "Molecular Mass": "233.26",
        "Melting Point": "207-208 °C"
    }
}