{
    "cas_no": "33421-39-5",
    "key_name": "2-Phenyl-3-pyridinecarboxylic acid",
    "cn_name": null,
    "alternate_name": "3-Pyridinecarboxylic acid, 2-phenyl-;Nicotinic acid, 2-phenyl-;2-Phenyl-3-pyridinecarboxylic acid;2-Phenylnicotinic acid;NSC 127178;NSC 127179",
    "duplicated_cas_no": "",
    "SMILES": "C(O)(=O)C1=C(N=CC=C1)C2=CC=CC=C2",
    "meta_data": {
        "InChI": "InChI=1S/C12H9NO2/c14-12(15)10-7-4-8-13-11(10)9-5-2-1-3-6-9/h1-8H,(H,14,15)",
        "InChIKey": null,
        "Canonical SMILES": "O=C(O)C1=CC=CN=C1C=2C=CC=CC2",
        "Molecular Formula": "C<sub>12</sub>H<sub>9</sub>NO<sub>2</sub>",
        "Molecular Mass": "199.21",
        "Melting Point": "168-169 °C"
    }
}