{
    "cas_no": "29558-77-8",
    "key_name": "4-Bromo-4′-hydroxybiphenyl",
    "cn_name": "4-羟基-4\"-溴联苯;",
    "alternate_name": "[1,1′-Biphenyl]-4-ol, 4′-bromo-;4-Biphenylol, 4′-bromo-;Phenol, <em>p</em>-(<em>p</em>-bromophenyl)-;4′-Bromo[1,1′-biphenyl]-4-ol;4′-Bromo-4-biphenylol;4-(4-Bromophenyl)phenol;4-Hydroxy-4′-bromobiphenyl;4-Bromo-4′-hydroxybiphenyl;4-(4′-Bromophenyl)phenol;NSC 130468;NSC 17284;4-(4-Hydroxyphenyl)bromobenzene;4′-Bromo-4-hydroxybiphenyl;4-Bromo-4′-hydroxy-1,1′-biphenyl",
    "duplicated_cas_no": "",
    "SMILES": "BrC1=CC=C(C=C1)C2=CC=C(O)C=C2",
    "meta_data": {
        "InChI": "InChI=1S/C12H9BrO/c13-11-5-1-9(2-6-11)10-3-7-12(14)8-4-10/h1-8,14H",
        "InChIKey": null,
        "Canonical SMILES": "BrC=1C=CC(=CC1)C2=CC=C(O)C=C2",
        "Molecular Formula": "C<sub>12</sub>H<sub>9</sub>BrO",
        "Molecular Mass": "249.10",
        "Melting Point": "164-166 °C"
    }
}