{
    "cas_no": "70500-72-0",
    "key_name": "7-Hydroxy-2(1<em>H</em>)-quinolinone",
    "cn_name": "7-羟基-2-喹诺酮;7-羟基-2(1H)-喹啉酮;",
    "alternate_name": "2(1<em>H</em>)-Quinolinone, 7-hydroxy-;7-Hydroxy-2(1<em>H</em>)-quinolinone;7-Hydroxycarbostyril;7-Hydroxy-1<em>H</em>-quinolin-2-one;2,7-Dihydroxyquinoline;Quinoline-2,7-diol",
    "duplicated_cas_no": "",
    "SMILES": "OC=1C=C2C(C=CC(=O)N2)=CC1",
    "meta_data": {
        "InChI": "InChI=1S/C9H7NO2/c11-7-3-1-6-2-4-9(12)10-8(6)5-7/h1-5,11H,(H,10,12)",
        "InChIKey": null,
        "Canonical SMILES": "O=C1C=CC=2C=CC(O)=CC2N1",
        "Molecular Formula": "C<sub>9</sub>H<sub>7</sub>NO<sub>2</sub>",
        "Molecular Mass": "161.16",
        "Melting Point": "308-315 °C (decomp)"
    }
}