{
    "cas_no": "17965-78-5",
    "key_name": "3-Bromo-1,8-naphthyridine",
    "cn_name": "3-溴-1,8-萘啶;",
    "alternate_name": "1,8-Naphthyridine, 3-bromo-;3-Bromo-1,8-naphthyridine",
    "duplicated_cas_no": "52626-36-5",
    "SMILES": "BrC1=CC2=C(N=C1)N=CC=C2",
    "meta_data": {
        "InChI": "InChI=1S/C8H5BrN2/c9-7-4-6-2-1-3-10-8(6)11-5-7/h1-5H",
        "InChIKey": null,
        "Canonical SMILES": "BrC=1C=NC2=NC=CC=C2C1",
        "Molecular Formula": "C<sub>8</sub>H<sub>5</sub>BrN<sub>2</sub>",
        "Molecular Mass": "209.04",
        "Melting Point": "164-166 °C"
    }
}