{
    "cas_no": "58567-11-6",
    "key_name": "Boisambrene forte",
    "cn_name": null,
    "alternate_name": "Cyclododecane, (ethoxymethoxy)-;(Ethoxymethoxy)cyclododecane;Formaldehyde cyclododecyl ethyl acetal;Ethoxymethyl cyclododecyl ether;Boisambrene forte;Buazambren;Amberwood F",
    "duplicated_cas_no": "",
    "SMILES": "O(COCC)C1CCCCCCCCCCC1",
    "meta_data": {
        "InChI": "InChI=1S/C15H30O2/c1-2-16-14-17-15-12-10-8-6-4-3-5-7-9-11-13-15/h15H,2-14H2,1H3",
        "InChIKey": null,
        "Canonical SMILES": "O(COC1CCCCCCCCCCC1)CC",
        "Molecular Formula": "C<sub>15</sub>H<sub>30</sub>O<sub>2</sub>",
        "Molecular Mass": "242.40",
        "Boiling Point": "111 °C @ Press: 0.5 Torr"
    }
}