{
    "cas_no": "23012-17-1",
    "key_name": "2-Methyloxazole-4-carboxylic acid",
    "cn_name": null,
    "alternate_name": "4-Oxazolecarboxylic acid, 2-methyl-;2-Methyl-4-oxazolecarboxylic acid;2-Methyloxazole-4-carboxylic acid;2-Methyl-1,3-oxazole-4-carboxylic acid;2-Methyl-1,3-oxazol-4-carboxylic acid",
    "duplicated_cas_no": "",
    "SMILES": "C(O)(=O)C=1N=C(C)OC1",
    "meta_data": {
        "InChI": "InChI=1S/C5H5NO3/c1-3-6-4(2-9-3)5(7)8/h2H,1H3,(H,7,8)",
        "InChIKey": null,
        "Canonical SMILES": "O=C(O)C=1N=C(OC1)C",
        "Molecular Formula": "C<sub>5</sub>H<sub>5</sub>NO<sub>3</sub>",
        "Molecular Mass": "127.10",
        "Melting Point": "183-184 °C (decomp)"
    }
}