{
    "cas_no": "399-54-2",
    "key_name": "4-Fluoro-1-methoxy-2-methylbenzene",
    "cn_name": null,
    "alternate_name": "Benzene, 4-fluoro-1-methoxy-2-methyl-;4-Fluoro-1-methoxy-2-methylbenzene;2-Methyl-4-fluoroanisole;4-Fluoro-2-methylanisole",
    "duplicated_cas_no": "",
    "SMILES": "O(C)C1=C(C)C=C(F)C=C1",
    "meta_data": {
        "InChI": "InChI=1S/C8H9FO/c1-6-5-7(9)3-4-8(6)10-2/h3-5H,1-2H3",
        "InChIKey": null,
        "Canonical SMILES": "FC1=CC=C(OC)C(=C1)C",
        "Molecular Formula": "C<sub>8</sub>H<sub>9</sub>FO",
        "Molecular Mass": "140.15",
        "Boiling Point": "62.5-63 °C @ Press: 11 Torr"
    }
}