{
    "cas_no": "29976-56-5",
    "key_name": "3,5-Dibromo-2,4,6-trimethylpyridine",
    "cn_name": null,
    "alternate_name": "Pyridine, 3,5-dibromo-2,4,6-trimethyl-;3,5-Dibromo-2,4,6-trimethylpyridine;3,5-Dibromo-2,4,6-collidine;2,4,6-Trimethyl-3,5-dibromopyridine",
    "duplicated_cas_no": "",
    "SMILES": "BrC=1C(C)=C(Br)C(C)=NC1C",
    "meta_data": {
        "InChI": "InChI=1S/C8H9Br2N/c1-4-7(9)5(2)11-6(3)8(4)10/h1-3H3",
        "InChIKey": null,
        "Canonical SMILES": "BrC1=C(N=C(C(Br)=C1C)C)C",
        "Molecular Formula": "C<sub>8</sub>H<sub>9</sub>Br<sub>2</sub>N",
        "Molecular Mass": "278.97",
        "Melting Point": "80.5-81 °C"
    }
}