{
    "cas_no": "1166-34-3",
    "key_name": "Cinanserin",
    "cn_name": "辛那色林;辛那色林;",
    "alternate_name": "2-Propenamide, <em>N</em>-[2-[[3-(dimethylamino)propyl]thio]phenyl]-3-phenyl-;Cinnamanilide, 2′-[[3-(dimethylamino)propyl]thio]-;<em>N</em>-[2-[[3-(Dimethylamino)propyl]thio]phenyl]-3-phenyl-2-propenamide;Cinanserin;2′-[[3-(Dimethylamino)propyl]thio]cinnamanilide;Cinanserine",
    "duplicated_cas_no": "",
    "SMILES": "S(CCCN(C)C)C1=C(NC(C=CC2=CC=CC=C2)=O)C=CC=C1",
    "meta_data": {
        "InChI": "InChI=1S/C20H24N2OS/c1-22(2)15-8-16-24-19-12-7-6-11-18(19)21-20(23)14-13-17-9-4-3-5-10-17/h3-7,9-14H,8,15-16H2,1-2H3,(H,21,23)",
        "InChIKey": null,
        "Canonical SMILES": "O=C(C=CC=1C=CC=CC1)NC=2C=CC=CC2SCCCN(C)C",
        "Molecular Formula": "C<sub>20</sub>H<sub>24</sub>N<sub>2</sub>OS",
        "Molecular Mass": "340.48",
        "Melting Point": "82-83 °C"
    }
}