{
    "cas_no": "579-21-5",
    "key_name": "Lobelanine",
    "cn_name": null,
    "alternate_name": "Ethanone, 2,2′-(1-methyl-2,6-piperidinediyl)bis[1-phenyl-, (2<em>R</em>,6<em>S</em>)-<em>rel</em>-;Lobelanine;Ethanone, 2,2′-(1-methyl-2,6-piperidinediyl)bis[1-phenyl-, <em>cis</em>-;<em>rel</em>-(2<em>R</em>,6<em>S</em>)-2,2′-(1-Methyl-2,6-piperidinediyl)bis[1-phenylethanone];8,10-Diphenyllobelidione;<em>meso</em>-Lobelanine;Shangengwantong",
    "duplicated_cas_no": "47453-44-1;156238-76-5",
    "SMILES": "C(C(=O)C1=CC=CC=C1)[C@H]2N(C)[C@@H](CC(=O)C3=CC=CC=C3)CCC2",
    "meta_data": {
        "InChI": "InChI=1/C22H25NO2/c1-23-19(15-21(24)17-9-4-2-5-10-17)13-8-14-20(23)16-22(25)18-11-6-3-7-12-18/h2-7,9-12,19-20H,8,13-16H2,1H3/t19-,20+",
        "InChIKey": null,
        "Canonical SMILES": "O=C(C=1C=CC=CC1)CC2N(C)C(CC(=O)C=3C=CC=CC3)CCC2",
        "Molecular Formula": "C<sub>22</sub>H<sub>25</sub>NO<sub>2</sub>",
        "Molecular Mass": "335.44",
        "Melting Point": "99 °C"
    }
}