{
    "cas_no": "7098-22-8",
    "key_name": "Tetratetracontane",
    "cn_name": "四十四烷;四十四烷;正四十四烷;",
    "alternate_name": "Tetratetracontane;<em>n</em>-Tetratetracontane;NSC 102262",
    "duplicated_cas_no": "",
    "SMILES": "C(CCCCCCCCCCCCCCCCCCCCCC)CCCCCCCCCCCCCCCCCCCCC",
    "meta_data": {
        "InChI": "InChI=1S/C44H90/c1-3-5-7-9-11-13-15-17-19-21-23-25-27-29-31-33-35-37-39-41-43-44-42-40-38-36-34-32-30-28-26-24-22-20-18-16-14-12-10-8-6-4-2/h3-44H2,1-2H3",
        "InChIKey": null,
        "Canonical SMILES": "CCCCCCCCCCCCCCCCCCCCCCCCCCCCCCCCCCCCCCCCCCCC",
        "Molecular Formula": "C<sub>44</sub>H<sub>90</sub>",
        "Molecular Mass": "619.19",
        "Boiling Point": "548 °C",
        "Melting Point": "87-88 °C"
    }
}