{
    "cas_no": "6596-40-3",
    "key_name": "Pentacontane",
    "cn_name": null,
    "alternate_name": "Pentacontane;<em>n</em>-Pentacontane",
    "duplicated_cas_no": "",
    "SMILES": "C(CCCCCCCCCCCCCCCCCCCCCCCCC)CCCCCCCCCCCCCCCCCCCCCCCC",
    "meta_data": {
        "InChI": "InChI=1S/C50H102/c1-3-5-7-9-11-13-15-17-19-21-23-25-27-29-31-33-35-37-39-41-43-45-47-49-50-48-46-44-42-40-38-36-34-32-30-28-26-24-22-20-18-16-14-12-10-8-6-4-2/h3-50H2,1-2H3",
        "InChIKey": null,
        "Canonical SMILES": "CCCCCCCCCCCCCCCCCCCCCCCCCCCCCCCCCCCCCCCCCCCCCCCCCC",
        "Molecular Formula": "C<sub>50</sub>H<sub>102</sub>",
        "Molecular Mass": "703.34",
        "Boiling Point": "420-422 °C @ Press: 15 Torr",
        "Melting Point": "93.0 °C",
        "Density": "0.7940 g/cm³ @ Temp: 93.0 °C"
    }
}