{
    "cas_no": "15217-53-5",
    "key_name": "1-Ethyl-1,2-dihydro-5<em>H</em>-tetrazole-5-thione",
    "cn_name": "1-乙基-5-巯基-1,2,3,4-四氮唑;",
    "alternate_name": "5<em>H</em>-Tetrazole-5-thione, 1-ethyl-1,2-dihydro-;1<em>H</em>-Tetrazole-5-thiol, 1-ethyl-;2-Tetrazoline-5-thione, 1-ethyl-;1-Ethyl-1,2-dihydro-5<em>H</em>-tetrazole-5-thione;1-Ethyl-5-mercapto-1,2,3,4-tetrazole;1-Ethyl-2-tetrazoline-5-thione;1-Ethyl-1<em>H</em>-tetrazole-5-thiol;1-Ethyl-5-tetrazolethiol;1-Ethyl-5-mercaptotetrazole;1-Ethyltetrazole-5-thione;1-Ethyl-1<em>H</em>-1,2,3,4-tetrazole-5-thiol",
    "duplicated_cas_no": "",
    "SMILES": "C(C)N1C(=S)NN=N1",
    "meta_data": {
        "InChI": "InChI=1S/C3H6N4S/c1-2-7-3(8)4-5-6-7/h2H2,1H3,(H,4,6,8)",
        "InChIKey": null,
        "Canonical SMILES": "S=C1NN=NN1CC",
        "Molecular Formula": "C<sub>3</sub>H<sub>6</sub>N<sub>4</sub>S",
        "Molecular Mass": "130.17",
        "Boiling Point": "109 °C @ Press: 1 Torr"
    }
}