{
    "cas_no": "480-66-0",
    "key_name": "2′,4′,6′-Trihydroxyacetophenone",
    "cn_name": "2,4,6-三羟基苯乙酮;",
    "alternate_name": "Ethanone, 1-(2,4,6-trihydroxyphenyl)-;Phloroacetophenone;Acetophenone, 2′,4′,6′-trihydroxy-;1-(2,4,6-Trihydroxyphenyl)ethanone;Phloracetophenone;Acetophloroglucine;2′,4′,6′-Trihydroxyacetophenone;Acetylphloroglucinol;Phloracetophene;2-Acetyl-1,3,5-trihydroxybenzene;NSC 54927;1-(2,4,6-Trihydroxyphenyl)ethan-1-one;2-Acetyl-1,3,5-benzenetriol;2-Acetylphloroglucinol",
    "duplicated_cas_no": "",
    "SMILES": "C(C)(=O)C1=C(O)C=C(O)C=C1O",
    "meta_data": {
        "InChI": "InChI=1S/C8H8O4/c1-4(9)8-6(11)2-5(10)3-7(8)12/h2-3,10-12H,1H3",
        "InChIKey": null,
        "Canonical SMILES": "O=C(C=1C(O)=CC(O)=CC1O)C",
        "Molecular Formula": "C<sub>8</sub>H<sub>8</sub>O<sub>4</sub>",
        "Molecular Mass": "168.15",
        "Melting Point": "218 °C"
    }
}