{
    "cas_no": "329689-23-8",
    "key_name": "(±)-Monastrol",
    "cn_name": null,
    "alternate_name": "5-Pyrimidinecarboxylic acid, 1,2,3,4-tetrahydro-4-(3-hydroxyphenyl)-6-methyl-2-thioxo-, ethyl ester;Ethyl 1,2,3,4-tetrahydro-4-(3-hydroxyphenyl)-6-methyl-2-thioxo-5-pyrimidinecarboxylate;6-Methyl-4-(3-hydroxyphenyl)-2-thioxo-1,2,3,4-tetrahydropyrimidine-5-carboxylic acid ethyl ester;(±)-Monastrol;Ethyl 4-(3-hydroxyphenyl)-6-methyl-2-thioxo-1,2,3,4-tetrahydropyrimidine-5-carboxylate",
    "duplicated_cas_no": "",
    "SMILES": "C(OCC)(=O)C=1C(NC(=S)NC1C)C2=CC(O)=CC=C2",
    "meta_data": {
        "InChI": "InChI=1S/C14H16N2O3S/c1-3-19-13(18)11-8(2)15-14(20)16-12(11)9-5-4-6-10(17)7-9/h4-7,12,17H,3H2,1-2H3,(H2,15,16,20)",
        "InChIKey": null,
        "Canonical SMILES": "O=C(OCC)C1=C(NC(=S)NC1C=2C=CC=C(O)C2)C",
        "Molecular Formula": "C<sub>14</sub>H<sub>16</sub>N<sub>2</sub>O<sub>3</sub>S",
        "Molecular Mass": "292.35",
        "Melting Point": "184-186 °C"
    }
}