{
    "cas_no": "1136-89-6",
    "key_name": "1-Naphthyl phosphate",
    "cn_name": "1-磷酸萘基酯;1-萘磷酸钠盐，一水;",
    "alternate_name": "1-Naphthalenol, 1-(dihydrogen phosphate);1-Naphthol, dihydrogen phosphate;1-Naphthalenol, dihydrogen phosphate;1-Naphthyl phosphate;α-Naphthyl phosphate;Naphthol 1-phosphate;α-Naphthol phosphate;Phosphoric acid α-naphthyl ester;1-Naphthyl dihydrogen phosphate;α-Naphthyl acid phosphate;Naphthyl dihydrogen phosphate",
    "duplicated_cas_no": "",
    "SMILES": "O(P(=O)(O)O)C=1C2=C(C=CC1)C=CC=C2",
    "meta_data": {
        "InChI": "InChI=1S/C10H9O4P/c11-15(12,13)14-10-7-3-5-8-4-1-2-6-9(8)10/h1-7H,(H2,11,12,13)",
        "InChIKey": null,
        "Canonical SMILES": "O=P(O)(O)OC1=CC=CC=2C=CC=CC12",
        "Molecular Formula": "C<sub>10</sub>H<sub>9</sub>O<sub>4</sub>P",
        "Molecular Mass": "224.15",
        "Melting Point": "155-157 °C"
    }
}