{
    "cas_no": "4946-13-8",
    "key_name": "4-Ethylbenzenethiol",
    "cn_name": "4-乙基苯硫酚;对乙基苯硫酚;",
    "alternate_name": "Benzenethiol, 4-ethyl-;Benzenethiol, <em>p</em>-ethyl-;4-Ethylbenzenethiol;<em>p</em>-Ethylbenzenethiol;<em>p</em>-Ethylthiophenol;<em>p</em>-Ethylphenylmercaptan;4-Ethylthiophenol",
    "duplicated_cas_no": "",
    "SMILES": "C(C)C1=CC=C(S)C=C1",
    "meta_data": {
        "InChI": "InChI=1S/C8H10S/c1-2-7-3-5-8(9)6-4-7/h3-6,9H,2H2,1H3",
        "InChIKey": null,
        "Canonical SMILES": "SC1=CC=C(C=C1)CC",
        "Molecular Formula": "C<sub>8</sub>H<sub>10</sub>S",
        "Molecular Mass": "138.23",
        "Boiling Point": "207-209 °C @ Press: 730 Torr"
    }
}