{
    "cas_no": "57-48-7",
    "key_name": "Fructose",
    "cn_name": "D-果糖;D-(-)-果糖;",
    "alternate_name": "<span class=\"text-smallcaps\">D</span>-Fructose;Fructose, <span class=\"text-smallcaps\">D</span>-;<span class=\"text-smallcaps\">D</span>-<em>arabino</em>-2-Hexulose;Levulose;<span class=\"text-smallcaps\">D</span>-(-)-Levulose;Fructose;Sugar, fruit;Fruit sugar;Furucton;<span class=\"text-smallcaps\">D</span>-(-)-Fructose;Nevulose;Hi-Fructo 970;Krystar 300;Krystar;Fujifructo L 95;Advantose FS 95;Hi-Fructo M 75;Hi-Fructo F;NF 55;HFD 95;FF 95;FF 100 (sugar);FF 100",
    "duplicated_cas_no": "69-67-0;3812-57-5;10597-68-9;196419-06-4;149014-33-5",
    "SMILES": "[C@H]([C@@H](C(CO)=O)O)([C@@H](CO)O)O",
    "meta_data": {
        "InChI": "InChI=1S/C6H12O6/c7-1-3(9)5(11)6(12)4(10)2-8/h3,5-9,11-12H,1-2H2/t3-,5-,6-/m1/s1",
        "InChIKey": null,
        "Canonical SMILES": "O=C(CO)C(O)C(O)C(O)CO",
        "Molecular Formula": "C<sub>6</sub>H<sub>12</sub>O<sub>6</sub>",
        "Molecular Mass": "180.16",
        "Melting Point": "91-95 °C",
        "Density": "1.580 g/cm³ @ Temp: -5 °C"
    }
}