{
    "cas_no": "2035-15-6",
    "key_name": "(-)-Maackiain",
    "cn_name": null,
    "alternate_name": "6<em>H</em>-[1,3]Dioxolo[5,6]benzofuro[3,2-<em>c</em>][1]benzopyran-3-ol, 6a,12a-dihydro-, (6a<em>R</em>,12a<em>R</em>)-;Maackiain;6<em>H</em>-[1,3]Dioxolo[5,6]benzofuro[3,2-<em>c</em>][1]benzopyran-3-ol, 6aα,12aα-dihydro-, (-)-;6<em>H</em>-[1,3]Dioxolo[5,6]benzofuro[3,2-<em>c</em>][1]benzopyran-3-ol, 6a,12a-dihydro-, (6a<em>R</em>-<em>cis</em>)-;(6a<em>R</em>,12a<em>R</em>)-6a,12a-Dihydro-6<em>H</em>-[1,3]dioxolo[5,6]benzofuro[3,2-<em>c</em>][1]benzopyran-3-ol;Inermin;(-)-Maackiain;Trifolirhizin aglycone;Maackiaine;Inermine;<em>l</em>-Maackiain;(-)-(6a<em>R</em>,12a<em>R</em>)-maackiain",
    "duplicated_cas_no": "20288-22-6;22091-18-5;22973-29-1",
    "SMILES": "OC=1C=C2C([C@]3([C@](C=4C(O3)=CC5=C(C4)OCO5)(CO2)[H])[H])=CC1",
    "meta_data": {
        "InChI": "InChI=1S/C16H12O5/c17-8-1-2-9-12(3-8)18-6-11-10-4-14-15(20-7-19-14)5-13(10)21-16(9)11/h1-5,11,16-17H,6-7H2/t11-,16-/m0/s1",
        "InChIKey": null,
        "Canonical SMILES": "OC1=CC=C2C(OCC3C4=CC=5OCOC5C=C4OC23)=C1",
        "Molecular Formula": "C<sub>16</sub>H<sub>12</sub>O<sub>5</sub>",
        "Molecular Mass": "284.26",
        "Melting Point": "178.5-179.0 °C"
    }
}