{
    "cas_no": "17135-78-3",
    "key_name": "2-Chloroanthracene",
    "cn_name": "2-氯蒽;",
    "alternate_name": "Anthracene, 2-chloro-;2-Chloroanthracene;NSC 408454;2-Chloroanthrancene",
    "duplicated_cas_no": "",
    "SMILES": "ClC1=CC2=C(C=C3C(=C2)C=CC=C3)C=C1",
    "meta_data": {
        "InChI": "InChI=1S/C14H9Cl/c15-14-6-5-12-7-10-3-1-2-4-11(10)8-13(12)9-14/h1-9H",
        "InChIKey": null,
        "Canonical SMILES": "ClC=1C=CC2=CC=3C=CC=CC3C=C2C1",
        "Molecular Formula": "C<sub>14</sub>H<sub>9</sub>Cl",
        "Molecular Mass": "212.67",
        "Melting Point": "217-218 °C"
    }
}