{
    "cas_no": "3133-01-5",
    "key_name": "1-Tricosanol",
    "cn_name": "1-二十三烷醇;二十三烷醇;二十三醇;",
    "alternate_name": "1-Tricosanol;Tricosanol;Tricosyl alcohol;<em>n</em>-Tricosanol",
    "duplicated_cas_no": "",
    "SMILES": "C(CCCCCCCCCCCO)CCCCCCCCCCC",
    "meta_data": {
        "InChI": "InChI=1S/C23H48O/c1-2-3-4-5-6-7-8-9-10-11-12-13-14-15-16-17-18-19-20-21-22-23-24/h24H,2-23H2,1H3",
        "InChIKey": null,
        "Canonical SMILES": "OCCCCCCCCCCCCCCCCCCCCCCC",
        "Molecular Formula": "C<sub>23</sub>H<sub>48</sub>O",
        "Molecular Mass": "340.63",
        "Melting Point": "73.5-74.5 °C"
    }
}