{
    "cas_no": "107-59-5",
    "key_name": "<em>tert</em>-Butyl chloroacetate",
    "cn_name": "氯乙酸叔丁酯;",
    "alternate_name": "Acetic acid, 2-chloro-, 1,1-dimethylethyl ester;Acetic acid, chloro-, <em>tert</em>-butyl ester;Acetic acid, chloro-, 1,1-dimethylethyl ester;<em>tert</em>-Butyl chloroacetate;1,1-Dimethylethyl chloroacetate;Chloroacetic acid 1,1-dimethylethyl ester;Chloroacetic acid <em>tert</em>-butyl ester;NSC 87891;<em>tert</em>-Butyl 2-chloroacetate;Chloroacetic acid tert-butyl ester",
    "duplicated_cas_no": "",
    "SMILES": "O(C(C)(C)C)C(CCl)=O",
    "meta_data": {
        "InChI": "InChI=1S/C6H11ClO2/c1-6(2,3)9-5(8)4-7/h4H2,1-3H3",
        "InChIKey": null,
        "Canonical SMILES": "O=C(OC(C)(C)C)CCl",
        "Molecular Formula": "C<sub>6</sub>H<sub>11</sub>ClO<sub>2</sub>",
        "Molecular Mass": "150.60",
        "Boiling Point": "150 °C"
    }
}