{
    "cas_no": "6974-12-5",
    "key_name": "1,4-Dibromo-2-butene",
    "cn_name": "1,4-二溴丁烯-2;1,4-二溴-2-丁烯;",
    "alternate_name": "2-Butene, 1,4-dibromo-;1,4-Dibromo-2-butene;NSC 23187",
    "duplicated_cas_no": "",
    "SMILES": "C(=CCBr)CBr",
    "meta_data": {
        "InChI": "InChI=1S/C4H6Br2/c5-3-1-2-4-6/h1-2H,3-4H2",
        "InChIKey": null,
        "Canonical SMILES": "BrCC=CCBr",
        "Molecular Formula": "C<sub>4</sub>H<sub>6</sub>Br<sub>2</sub>",
        "Molecular Mass": "213.90",
        "Boiling Point": "47-48.2 °C",
        "Melting Point": "53-54 °C",
        "Density": "1.3777 g/cm³ @ Temp: 20 °C"
    }
}