{
    "cas_no": "89-60-1",
    "key_name": "4-Chloro-3-nitrotoluene",
    "cn_name": "3-硝基-4-氯甲苯;",
    "alternate_name": "Benzene, 1-chloro-4-methyl-2-nitro-;Toluene, 4-chloro-3-nitro-;1-Chloro-4-methyl-2-nitrobenzene;4-Chloro-3-nitrotoluene;3-Nitro-4-chlorotoluene;2-Chloro-5-methylnitrobenzene;1-Chloro-2-nitro-4-methylbenzene;2-Chloro-5-methyl-1-nitrobenzene;NSC 60721",
    "duplicated_cas_no": "",
    "SMILES": "N(=O)(=O)C1=C(Cl)C=CC(C)=C1",
    "meta_data": {
        "InChI": "InChI=1S/C7H6ClNO2/c1-5-2-3-6(8)7(4-5)9(10)11/h2-4H,1H3",
        "InChIKey": null,
        "Canonical SMILES": "O=N(=O)C1=CC(=CC=C1Cl)C",
        "Molecular Formula": "C<sub>7</sub>H<sub>6</sub>ClNO<sub>2</sub>",
        "Molecular Mass": "171.58",
        "Boiling Point": "261 °C",
        "Melting Point": "7 °C"
    }
}