{
    "cas_no": "52315-07-8",
    "key_name": "Cypermethrin",
    "cn_name": "氯氰菊酯;(RS)-alpha-氰基-3-苯氧基苄基(SR)-3-(2,2-二氯乙烯基)-2,2-二甲基环丙烷羧酸酯;",
    "alternate_name": "Cyclopropanecarboxylic acid, 3-(2,2-dichloroethenyl)-2,2-dimethyl-, cyano(3-phenoxyphenyl)methyl ester;NRDC 149;Cypermethrin;WL 43467;α-Cyano-<em>m</em>-phenoxybenzyl 3-(2,2-dichlorovinyl)-2,2-dimethylcyclopropanecarboxylate;NRDC 166;Ripcord;Ardap;CCN 52;FMC 30980;JF 5705F;Cymbush;FMC 45497;NRDC 160;FMC 45806;WL 8517;Ammo (pesticide);Ammo;EXP 5598;Antiborer 3767;Nurele;RU 27998;Cyperkill;Agrothrin;Cyperil;Sherpa;SF 06646;Ambush CY;Ectomin;Cypor;Polytrin;Colt;Ambush C;Basathrin;Barricade 10EC;YT 305;Barricade;Cymperator;Supercypermethrin;Vucht 424;Kordon;Ectopor;Hilcyperin;Barricade (insecticide);Demon;Prevail;Demon TC;PYR-VU-TO 2;Supermethrin;Asymmethrin;Supercypermethrin forte;Prevail FT;Cympa-Ti;Neramethrin EC 50;Neramethrin;Ripcord 10;Peststop B;Peststop B 5SC;Cyperco;Fenom (pesticide);Summerin;Ralothrin;Supersect;Nurse Green;Robust;Arrivo;Drago;Ustaad;Kreokhin;Creokhin;Fenom;Excis;Trofy;Prevail (pesticide);Ecofleece Sheep Dip (Non-OP);Ronatak;Luseweilei;Leptocide;LW 1;Cybil;Cymet;Kral;Almetrin;Agrometrin;Cilcord;Dimcyp;Barrage;Flytick;Battery (insecticide);FMC 6113;Kinmix;Bandit;Toppel;Taran;Holster;Colt (pyrethrinoid insecticide);Assist 25CS;Cymtop;Cynoff EC;Cynoff WP;Cipkord;Sniper;Sniper (pyrethroid insecticide);Cyperfor S;Auzar 25 EC;Cypermethrin 25EC;Challenger 25EC;Challenger;Dudu Cyper;Cyper Lacer;Cyper Lacer 5EC;Tsifoks;Tianlongbao;CYPER PLUS;Green Weilei;Nortox 250EC",
    "duplicated_cas_no": "97955-44-7;137497-61-1;139203-31-9;142443-95-6;69865-47-0;86752-99-0;86753-92-6;88161-75-5;146909-55-9;159940-28-0;186554-45-0;727730-89-4;886997-17-7",
    "SMILES": "C(OC(C#N)C1=CC(OC2=CC=CC=C2)=CC=C1)(=O)C3C(C=C(Cl)Cl)C3(C)C",
    "meta_data": {
        "InChI": "InChI=1S/C22H19Cl2NO3/c1-22(2)17(12-19(23)24)20(22)21(26)28-18(13-25)14-7-6-10-16(11-14)27-15-8-4-3-5-9-15/h3-12,17-18,20H,1-2H3",
        "InChIKey": null,
        "Canonical SMILES": "N#CC(OC(=O)C1C(C=C(Cl)Cl)C1(C)C)C=2C=CC=C(OC=3C=CC=CC3)C2",
        "Molecular Formula": "C<sub>22</sub>H<sub>19</sub>Cl<sub>2</sub>NO<sub>3</sub>",
        "Molecular Mass": "416.30",
        "Melting Point": "80.5 °C",
        "Density": "1.25 g/cm³ @ Temp: 20 °C"
    }
}