{
    "cas_no": "13242-53-0",
    "key_name": "α-<span class=\"text-smallcaps\">D</span>-Mannopyranosyl bromide, 2,3,4,6-tetraacetate",
    "cn_name": null,
    "alternate_name": "α-<span class=\"text-smallcaps\">D</span>-Mannopyranosyl bromide, 2,3,4,6-tetraacetate;Mannopyranosyl bromide, tetraacetate, α-<span class=\"text-smallcaps\">D</span>-;α-<span class=\"text-smallcaps\">D</span>-Mannopyranosyl bromide, tetraacetate;Mannopyranosyl bromide, tetraacetate;2,3,4,6-Tetra-<em>O</em>-acetyl-α-<span class=\"text-smallcaps\">D</span>-mannopyranosyl bromide;Tetra-<em>O</em>-acetyl-α-<span class=\"text-smallcaps\">D</span>-mannopyranosyl bromide;Acetobromomannose;Tetra-<em>O</em>-acetyl-α-<span class=\"text-smallcaps\">D</span>-mannosyl bromide;1-Bromo-2,3,4,6-tetra-<em>O</em>-acetyl-α-<span class=\"text-smallcaps\">D</span>-mannopyranose",
    "duplicated_cas_no": "",
    "SMILES": "O(C(C)=O)[C@H]1[C@H](OC(C)=O)[C@@H](COC(C)=O)O[C@H](Br)[C@H]1OC(C)=O",
    "meta_data": {
        "InChI": "InChI=1S/C14H19BrO9/c1-6(16)20-5-10-11(21-7(2)17)12(22-8(3)18)13(14(15)24-10)23-9(4)19/h10-14H,5H2,1-4H3/t10-,11-,12+,13+,14+/m1/s1",
        "InChIKey": null,
        "Canonical SMILES": "O=C(OCC1OC(Br)C(OC(=O)C)C(OC(=O)C)C1OC(=O)C)C",
        "Molecular Formula": "C<sub>14</sub>H<sub>19</sub>BrO<sub>9</sub>",
        "Molecular Mass": "411.20",
        "Melting Point": "60-61 °C"
    }
}