{
    "cas_no": "2567-83-1",
    "key_name": "Tetraethylammonium perchlorate",
    "cn_name": "四乙基高氯酸铵;高氯酸四乙基铵;",
    "alternate_name": "Ethanaminium, <em>N</em>,<em>N</em>,<em>N</em>-triethyl-, perchlorate (1:1);Ammonium, tetraethyl-, perchlorate;Tetraethylammonium perchlorate;Ethanaminium, <em>N</em>,<em>N</em>,<em>N</em>-triethyl-, perchlorate;NSC 220061;TEAP",
    "duplicated_cas_no": "",
    "SMILES": "Cl(=O)(=O)(=O)[O-].[N+](CC)(CC)(CC)CC",
    "meta_data": {
        "InChI": "InChI=1S/C8H20N.ClHO4/c1-5-9(6-2,7-3)8-4;2-1(3,4)5/h5-8H2,1-4H3;(H,2,3,4,5)/q+1;/p-1",
        "InChIKey": null,
        "Canonical SMILES": "O=Cl(=O)(=O)[O-].CC[N+](CC)(CC)CC",
        "Molecular Formula": "C<sub>8</sub>H<sub>20</sub>N.ClO<sub>4</sub>",
        "Molecular Mass": "",
        "Melting Point": "&gt;300 °C"
    }
}