{
    "cas_no": "10022-31-8",
    "key_name": "Barium nitrate",
    "cn_name": "硝酸钡;",
    "alternate_name": "Nitric acid, barium salt (2:1);Nitric acid, barium salt;Barium nitrate;Barium dinitrate;Barium nitrate (Ba(NO<sub>3</sub>)<sub>2</sub>);Barium(II) nitrate",
    "duplicated_cas_no": "2952711-59-8",
    "SMILES": "N(=O)(=O)O.[Ba]",
    "meta_data": {
        "InChI": "InChI=1S/Ba.HNO3/c;2-1(3)4/h;(H,2,3,4)",
        "InChIKey": null,
        "Canonical SMILES": "[Ba].O=N(=O)O",
        "Molecular Formula": "Ba.2HNO<sub>3</sub>",
        "Molecular Mass": "",
        "Melting Point": "590 °C",
        "Density": "3.24 g/cm³ @ Temp: 23 °C"
    }
}