{
    "cas_no": "3179-63-3",
    "key_name": "3-(Dimethylamino)-1-propanol",
    "cn_name": "3-二甲氨基-1-丙醇;",
    "alternate_name": "1-Propanol, 3-(dimethylamino)-;3-(Dimethylamino)-1-propanol;<em>N</em>,<em>N</em>-Dimethyl-γ-aminopropanol;γ-(Dimethylamino)propanol;1-Dimethylamino-3-propanol;3-(Dimethylamino)propanol;3-(<em>N</em>,<em>N</em>-Dimethylamino)propanol;<em>N</em>,<em>N</em>-Dimethyl-3-amino-1-propanol;3-(<em>N</em>,<em>N</em>-Dimethylamino)-1-propanol;<em>N</em>,<em>N</em>-Dimethyl-3-hydroxypropylamine;<em>N</em>,<em>N</em>-Dimethylpropanolamine;Dimethylpropanolamine;<em>N</em>,<em>N</em>-Dimethyl-3-aminopropanol;NSC 62086;3-(Dimethylamino)propyl alcohol",
    "duplicated_cas_no": "",
    "SMILES": "C(N(C)C)CCO",
    "meta_data": {
        "InChI": "InChI=1S/C5H13NO/c1-6(2)4-3-5-7/h7H,3-5H2,1-2H3",
        "InChIKey": null,
        "Canonical SMILES": "OCCCN(C)C",
        "Molecular Formula": "C<sub>5</sub>H<sub>13</sub>NO",
        "Molecular Mass": "103.16",
        "Boiling Point": "163.5 °C",
        "Melting Point": "145-147 °C",
        "Density": "0.8816 g/cm³ @ Temp: 21 °C"
    }
}