{
    "cas_no": "101-41-7",
    "key_name": "Methyl phenylacetate",
    "cn_name": "苯乙酸甲酯;",
    "alternate_name": "Benzeneacetic acid, methyl ester;Acetic acid, phenyl-, methyl ester;Methyl phenylacetate;Methyl α-toluate;Phenylacetic acid methyl ester;Methyl benzeneacetate;Methyl benzeneethanoate;Methyl phenylethanoate;Methyl α-phenylacetate;2-Methoxy-1-phenyl-2-oxoethane;NSC 401667;NSC 9405",
    "duplicated_cas_no": "",
    "SMILES": "C(C(OC)=O)C1=CC=CC=C1",
    "meta_data": {
        "InChI": "InChI=1S/C9H10O2/c1-11-9(10)7-8-5-3-2-4-6-8/h2-6H,7H2,1H3",
        "InChIKey": null,
        "Canonical SMILES": "O=C(OC)CC=1C=CC=CC1",
        "Molecular Formula": "C<sub>9</sub>H<sub>10</sub>O<sub>2</sub>",
        "Molecular Mass": "150.17",
        "Boiling Point": "216.5 °C",
        "Melting Point": "107-115 °C",
        "Density": "0.9896 g/cm³ @ Temp: 14 °C"
    }
}