{
    "cas_no": "98298-66-9",
    "key_name": "1-Chloroethyl 1-methylethyl carbonate",
    "cn_name": "1-氯乙基异丙基碳酸酯;",
    "alternate_name": "Carbonic acid, 1-chloroethyl 1-methylethyl ester;1-Chloroethyl 1-methylethyl carbonate;1-Chloroethyl isopropyl carbonate;α-Chloroethyl isopropyl carbonate;Isopropyl 1-chloroethyl carbonate;1-(Isopropyloxycarbonyloxy)ethyl chloride;Carbonic acid 1-chloroethyl isopropyl ester",
    "duplicated_cas_no": "69711-73-5",
    "SMILES": "O(C(OC(C)Cl)=O)C(C)C",
    "meta_data": {
        "InChI": "InChI=1S/C6H11ClO3/c1-4(2)9-6(8)10-5(3)7/h4-5H,1-3H3",
        "InChIKey": null,
        "Canonical SMILES": "O=C(OC(Cl)C)OC(C)C",
        "Molecular Formula": "C<sub>6</sub>H<sub>11</sub>ClO<sub>3</sub>",
        "Molecular Mass": "166.60",
        "Boiling Point": "92-94 °C @ Press: 55 Torr"
    }
}