{
    "cas_no": "4016-85-7",
    "key_name": "2-Chloroacetamido-5-chlorobenzophenone",
    "cn_name": null,
    "alternate_name": "Acetamide, <em>N</em>-(2-benzoyl-4-chlorophenyl)-2-chloro-;Acetanilide, 2′-benzoyl-2,4′-dichloro-;<em>N</em>-(2-Benzoyl-4-chlorophenyl)-2-chloroacetamide;5-Chloro-2-(chloroacetamido)benzophenone;5-Chloro-2-chloracetylaminobenzophenone;2-(2-Chloroacetamido)-5-chlorobenzophenone;2-Chloroacetamido-5-chlorobenzophenone;NSC 270127",
    "duplicated_cas_no": "",
    "SMILES": "C(=O)(C1=C(NC(CCl)=O)C=CC(Cl)=C1)C2=CC=CC=C2",
    "meta_data": {
        "InChI": "InChI=1S/C15H11Cl2NO2/c16-9-14(19)18-13-7-6-11(17)8-12(13)15(20)10-4-2-1-3-5-10/h1-8H,9H2,(H,18,19)",
        "InChIKey": null,
        "Canonical SMILES": "O=C(C=1C=CC=CC1)C2=CC(Cl)=CC=C2NC(=O)CCl",
        "Molecular Formula": "C<sub>15</sub>H<sub>11</sub>Cl<sub>2</sub>NO<sub>2</sub>",
        "Molecular Mass": "308.16",
        "Melting Point": "119-121 °C"
    }
}