{
    "cas_no": "1798-04-5",
    "key_name": "2-[4-(1,1-Dimethylethyl)phenoxy]acetic acid",
    "cn_name": "4-叔-丁基苯氧基乙酸;",
    "alternate_name": "Acetic acid, 2-[4-(1,1-dimethylethyl)phenoxy]-;Acetic acid, (<em>p</em>-<em>tert</em>-butylphenoxy)-;Acetic acid, [4-(1,1-dimethylethyl)phenoxy]-;2-[4-(1,1-Dimethylethyl)phenoxy]acetic acid;4-<em>tert</em>-Butylphenoxyacetic acid;(<em>p</em>-<em>tert</em>-Butylphenoxy)acetic acid;NSC 8481;[(4-<em>tert</em>-Butylphenyl)oxy]acetic acid;2-(4-(<em>tert</em>-Butyl)phenoxy)acetic acid;2-(4-<em>tert</em>-Butylphenoxy)acetic acid",
    "duplicated_cas_no": "",
    "SMILES": "C(C)(C)(C)C1=CC=C(OCC(O)=O)C=C1",
    "meta_data": {
        "InChI": "InChI=1S/C12H16O3/c1-12(2,3)9-4-6-10(7-5-9)15-8-11(13)14/h4-7H,8H2,1-3H3,(H,13,14)",
        "InChIKey": null,
        "Canonical SMILES": "O=C(O)COC1=CC=C(C=C1)C(C)(C)C",
        "Molecular Formula": "C<sub>12</sub>H<sub>16</sub>O<sub>3</sub>",
        "Molecular Mass": "208.25",
        "Melting Point": "80 °C"
    }
}