{
    "cas_no": "104-67-6",
    "key_name": "γ-Undecalactone",
    "cn_name": "桃醛;alpha-庚基-gama-丁内酯;",
    "alternate_name": "2(3<em>H</em>)-Furanone, 5-heptyldihydro-;Undecanoic acid, 4-hydroxy-, γ-lactone;5-Heptyldihydro-2(3<em>H</em>)-furanone;γ-<em>n</em>-Heptylbutyrolactone;Peach lactone;Persicol;γ-Undecalactone;γ-Undecanolide;γ-Heptylbutyrolactone;4-Hydroxyundecanoic acid lactone;γ-Undecanolactone;γ-Heptyl-γ-butyrolactone;4-Undecanolide;γ-(<em>n</em>-Heptyl)-γ-butyrolactone;(<em>RS</em>)-γ-Undecalactone;(±)-γ-Undecalactone;Peche Pure;NSC 406421;NSC 46118;NSC 76413;5-Heptyltetrahydro-2-furanone;Neutralizing agent 350120-1;Peach Pure;Aldehyde C<sub>14</sub> peach;5-Heptyldihydrofuran-2(3<em>H</em>)-one;Peach aldehyde",
    "duplicated_cas_no": "57084-17-0;176201-25-5",
    "SMILES": "C(CCCCCC)C1OC(=O)CC1",
    "meta_data": {
        "InChI": "InChI=1S/C11H20O2/c1-2-3-4-5-6-7-10-8-9-11(12)13-10/h10H,2-9H2,1H3",
        "InChIKey": null,
        "Canonical SMILES": "O=C1OC(CC1)CCCCCCC",
        "Molecular Formula": "C<sub>11</sub>H<sub>20</sub>O<sub>2</sub>",
        "Molecular Mass": "184.28",
        "Boiling Point": "286 °C",
        "Density": "0.9494 g/cm³ @ Temp: 20 °C"
    }
}