{
    "cas_no": "79-91-4",
    "key_name": "Terebic acid",
    "cn_name": "氧化松节油酸;2,2-二甲副分解烏頭酸;",
    "alternate_name": "3-Furancarboxylic acid, tetrahydro-2,2-dimethyl-5-oxo-;3-Furoic acid, tetrahydro-2,2-dimethyl-5-oxo-;Terebic acid;Succinic acid, (1-hydroxy-1-methylethyl)-, γ-lactone;Tetrahydro-2,2-dimethyl-5-oxo-3-furancarboxylic acid;Terebinic acid;γ,γ-Dimethylparaconic acid;γ,γ-Dimethyldihydroaconic acid;2,2-Dimethyl-5-oxotetrahydrofuran-3-carboxylic acid;2,2-Dimethyl-5-oxooxolane-3-carboxylic acid",
    "duplicated_cas_no": "97416-85-8",
    "SMILES": "C(O)(=O)C1C(C)(C)OC(=O)C1",
    "meta_data": {
        "InChI": "InChI=1S/C7H10O4/c1-7(2)4(6(9)10)3-5(8)11-7/h4H,3H2,1-2H3,(H,9,10)",
        "InChIKey": null,
        "Canonical SMILES": "O=C(O)C1CC(=O)OC1(C)C",
        "Molecular Formula": "C<sub>7</sub>H<sub>10</sub>O<sub>4</sub>",
        "Molecular Mass": "158.15",
        "Melting Point": "174.5 °C"
    }
}