{
    "cas_no": "3006-86-8",
    "key_name": "1,1-Bis(<em>tert</em>-butylperoxy)cyclohexane",
    "cn_name": "1,1-二叔丁基过氧化环己烷;",
    "alternate_name": "Peroxide, 1,1′-cyclohexylidenebis[2-(1,1-dimethylethyl);Peroxide, cyclohexylidenebis[<em>tert</em>-butyl;Peroxide, cyclohexylidenebis[(1,1-dimethylethyl);1,1′-Cyclohexylidenebis[2-(1,1-dimethylethyl) peroxide];1,1-Bis(<em>tert</em>-butylperoxy)cyclohexane;Lupersol 331-80B;1,1-di(<em>tert</em>-Butylperoxy)cyclohexane;Chaloxyd P 1250AL;Trigonox 22B50;Lupersol 331;Lupersol 321;Trigonox 22B75;1,1-Bis(<em>tert</em>-butyldioxy)cyclohexane;USP 400;Luperco 331XL;Trigonox 22;1,1-Di(<em>t</em>-butylperoxy)cyclohexane;Perhexa C;Luperox 331M50;CH 50-AL;USP 400P;Trigonox 22C50;Luperox 331;L 331;DP 275B;Perhexa C 40;Trigonox 22E70;Luperox 331M80;Perhexa CS;Perhexa C 75;Trigonox 22E50;Peroxan PK 122W;Tx 22E50;Luperox 331M70;CH 80;CH 80 (vulcanizer);1,1-Bis(1,1-dimethylethylperoxy)cyclohexane;Perhexa C 80;1,1-Bis(t-butylperoxy)cyclohexane;Luperox 331XL;Luperox 331P80;PHC 40;Trigonox 22-70E;Perhexa C 79S;Trigonox 22-40D;Perhexa C 40MB;CH 80MO;D 118378;CT 50 (initiator);CT 50",
    "duplicated_cas_no": "",
    "SMILES": "O(OC(C)(C)C)C1(OOC(C)(C)C)CCCCC1",
    "meta_data": {
        "InChI": "InChI=1S/C14H28O4/c1-12(2,3)15-17-14(10-8-7-9-11-14)18-16-13(4,5)6/h7-11H2,1-6H3",
        "InChIKey": null,
        "Canonical SMILES": "O(OC1(OOC(C)(C)C)CCCCC1)C(C)(C)C",
        "Molecular Formula": "C<sub>14</sub>H<sub>28</sub>O<sub>4</sub>",
        "Molecular Mass": "260.37",
        "Boiling Point": "52-54 °C @ Press: 0.15 Torr",
        "Density": "0.941 g/cm³ @ Temp: 20 °C"
    }
}