{
    "cas_no": "56-91-7",
    "key_name": "4-(Aminomethyl)benzoic acid",
    "cn_name": "4-氨甲基苯甲酸;对氨甲基苯甲酸;",
    "alternate_name": "Benzoic acid, 4-(aminomethyl)-;<em>p</em>-Toluic acid, α-amino-;4-(Aminomethyl)benzoic acid;<em>p</em>-(Aminomethyl)benzoic acid;Benzylamine-4-carboxylic acid;PAMBA;α-Amino-<em>p</em>-toluic acid;4-Carboxybenzylamine;Gumbix;Styptopur;<em>p</em>-Carboxybenzylamine;NSC 41629",
    "duplicated_cas_no": "",
    "SMILES": "C(O)(=O)C1=CC=C(CN)C=C1",
    "meta_data": {
        "InChI": "InChI=1S/C8H9NO2/c9-5-6-1-3-7(4-2-6)8(10)11/h1-4H,5,9H2,(H,10,11)",
        "InChIKey": null,
        "Canonical SMILES": "O=C(O)C1=CC=C(C=C1)CN",
        "Molecular Formula": "C<sub>8</sub>H<sub>9</sub>NO<sub>2</sub>",
        "Molecular Mass": "151.16",
        "Melting Point": "346 °C"
    }
}