{
    "cas_no": "52516-37-7",
    "key_name": "3,5-Dichlorobenzeneacetonitrile",
    "cn_name": null,
    "alternate_name": "Benzeneacetonitrile, 3,5-dichloro-;Acetonitrile, (3,5-dichlorophenyl)-;3,5-Dichlorobenzeneacetonitrile;3,5-Dichlorobenzyl cyanide;(3,5-Dichlorophenyl)acetonitrile;2-(3,5-Dichlorophenyl)acetonitrile",
    "duplicated_cas_no": "",
    "SMILES": "C(C#N)C1=CC(Cl)=CC(Cl)=C1",
    "meta_data": {
        "InChI": "InChI=1S/C8H5Cl2N/c9-7-3-6(1-2-11)4-8(10)5-7/h3-5H,1H2",
        "InChIKey": null,
        "Canonical SMILES": "N#CCC=1C=C(Cl)C=C(Cl)C1",
        "Molecular Formula": "C<sub>8</sub>H<sub>5</sub>Cl<sub>2</sub>N",
        "Molecular Mass": "186.04",
        "Boiling Point": "165-168 °C @ Press: 17 Torr"
    }
}