{
    "cas_no": "127785-96-0",
    "key_name": "5<em>H</em>-Dibenz[<em>b</em>,<em>e</em>]azepine-6-methanamine, 6,11-dihydro-, (2<em>E</em>)-2-butenedioate (1:1)",
    "cn_name": "6-氨甲基-6,11-二氢-5H-二苯并[b,e]氮杂卓富马酸盐;",
    "alternate_name": "5<em>H</em>-Dibenz[<em>b</em>,<em>e</em>]azepine-6-methanamine, 6,11-dihydro-, (2<em>E</em>)-2-butenedioate (1:1);5<em>H</em>-Dibenz[<em>b</em>,<em>e</em>]azepine-6-methanamine, 6,11-dihydro-, (<em>E</em>)-2-butenedioate (1:1)",
    "duplicated_cas_no": "",
    "SMILES": "C(N)C1C=2C(CC=3C(N1)=CC=CC3)=CC=CC2.C(=C/C(O)=O)\\C(O)=O",
    "meta_data": {
        "InChI": "InChI=1S/C15H16N2.C4H4O4/c16-10-15-13-7-3-1-5-11(13)9-12-6-2-4-8-14(12)17-15;5-3(6)1-2-4(7)8/h1-8,15,17H,9-10,16H2;1-2H,(H,5,6)(H,7,8)/b;2-1+",
        "InChIKey": null,
        "Canonical SMILES": "O=C(O)C=CC(=O)O.NCC1NC=2C=CC=CC2CC=3C=CC=CC31",
        "Molecular Formula": "C<sub>15</sub>H<sub>16</sub>N<sub>2</sub>.C<sub>4</sub>H<sub>4</sub>O<sub>4</sub>",
        "Molecular Mass": "",
        "Melting Point": "194-195 °C (decomp)"
    }
}