{
    "cas_no": "16883-16-2",
    "key_name": "5-Methyl-3-phenylisoxazole-4-carbonyl chloride",
    "cn_name": "5-甲基-3-苯基-4-异噁唑甲酰氯;5-甲基-3-苯基-1,2-恶唑-4-甲酰氯;",
    "alternate_name": "4-Isoxazolecarbonyl chloride, 5-methyl-3-phenyl-;5-Methyl-3-phenyl-4-isoxazolecarbonyl chloride;5-Methyl-3-phenyl-4-isoxazolylcarbonyl chloride;5-Methyl-3-phenylisoxazole-4-carbonyl chloride;3-Phenyl-5-methyl-4-isoxazolecarbonyl chloride;3-Phenyl-5-methylisoxazol-4-carboxyl chloride",
    "duplicated_cas_no": "",
    "SMILES": "C(Cl)(=O)C=1C(=NOC1C)C2=CC=CC=C2",
    "meta_data": {
        "InChI": "InChI=1S/C11H8ClNO2/c1-7-9(11(12)14)10(13-15-7)8-5-3-2-4-6-8/h2-6H,1H3",
        "InChIKey": null,
        "Canonical SMILES": "O=C(Cl)C=1C(=NOC1C)C=2C=CC=CC2",
        "Molecular Formula": "C<sub>11</sub>H<sub>8</sub>ClNO<sub>2</sub>",
        "Molecular Mass": "221.64",
        "Boiling Point": "115-117 °C @ Press: 3 Torr"
    }
}