{
    "cas_no": "1450-14-2",
    "key_name": "Hexamethyldisilane",
    "cn_name": "六甲基二硅烷;",
    "alternate_name": "Disilane, 1,1,1,2,2,2-hexamethyl-;Disilane, hexamethyl-;1,1,1,2,2,2-Hexamethyldisilane;Hexamethyldisilane;Permethyldisilane;NSC 294211",
    "duplicated_cas_no": "",
    "SMILES": "[Si]([Si](C)(C)C)(C)(C)C",
    "meta_data": {
        "InChI": "InChI=1S/C6H18Si2/c1-7(2,3)8(4,5)6/h1-6H3",
        "InChIKey": null,
        "Canonical SMILES": "C[Si](C)(C)[Si](C)(C)C",
        "Molecular Formula": "C<sub>6</sub>H<sub>18</sub>Si<sub>2</sub>",
        "Molecular Mass": "146.38",
        "Boiling Point": "113.5 °C",
        "Melting Point": "13.5 °C",
        "Density": "0.729 g/cm³"
    }
}