{
    "cas_no": "52562-19-3",
    "key_name": "2-Isopropenylaniline",
    "cn_name": "2-异丙烯苯基苯胺;",
    "alternate_name": "Benzenamine, 2-(1-methylethenyl)-;2-(1-Methylethenyl)benzenamine;2-Isopropenylaniline;<em>o</em>-Isopropenylaniline;2-(1-Methylethenyl)aniline;NSC 76548;2-(Prop-1-en-2-yl)benzenamine;2-(Prop-1-en-2-yl)aniline",
    "duplicated_cas_no": "",
    "SMILES": "C(C)(=C)C1=C(N)C=CC=C1",
    "meta_data": {
        "InChI": "InChI=1S/C9H11N/c1-7(2)8-5-3-4-6-9(8)10/h3-6H,1,10H2,2H3",
        "InChIKey": null,
        "Canonical SMILES": "C=C(C=1C=CC=CC1N)C",
        "Molecular Formula": "C<sub>9</sub>H<sub>11</sub>N",
        "Molecular Mass": "133.19",
        "Boiling Point": "83.5-87.5 °C @ Press: 1-2 Torr",
        "Density": "0.9781 g/cm³ @ Temp: 25 °C"
    }
}