{
    "cas_no": "95-21-6",
    "key_name": "2-Methylbenzoxazole",
    "cn_name": "2-甲基苯并噁唑;",
    "alternate_name": "Benzoxazole, 2-methyl-;2-Methylbenzoxazole;2-Methyl-1,3-benzoxazole;NSC 3824;2-Methylbenzo[<em>d</em>]oxazole",
    "duplicated_cas_no": "",
    "SMILES": "CC1=NC=2C(O1)=CC=CC2",
    "meta_data": {
        "InChI": "InChI=1S/C8H7NO/c1-6-9-7-4-2-3-5-8(7)10-6/h2-5H,1H3",
        "InChIKey": null,
        "Canonical SMILES": "N=1C=2C=CC=CC2OC1C",
        "Molecular Formula": "C<sub>8</sub>H<sub>7</sub>NO",
        "Molecular Mass": "133.15",
        "Boiling Point": "200.5 °C",
        "Melting Point": "9.5 °C",
        "Density": "1.1294 g/cm³ @ Temp: 20 °C"
    }
}