{
    "cas_no": "139-33-3",
    "key_name": "Disodium ethylenediaminetetraacetate",
    "cn_name": "乙二胺四乙酸二钠;乙底酸二钠;乙二胺四乙酸钠;",
    "alternate_name": "Glycine, <em>N</em>,<em>N</em>′-1,2-ethanediylbis[<em>N</em>-(carboxymethyl)-, sodium salt (1:2);Acetic acid, (ethylenedinitrilo)tetra-, disodium salt;Glycine, <em>N</em>,<em>N</em>′-1,2-ethanediylbis[<em>N</em>-(carboxymethyl)-, disodium salt;Complexon III;Disodium diacid ethylenediaminetetraacetate;Disodium dihydrogen ethylenediaminetetraacetate;Disodium edetate;Disodium EDTA;Disodium ethylenediaminetetraacetate;Disodium (ethylenedinitrilo)tetraacetate;Disodium sequestrene;Disodium versene;Edathamil disodium;Edetate Disodium;Endrate disodium;Metaquest B;Triplex III;Chelaplex III;Ethylenediaminetetraacetic acid disodium salt;Disodium versenate;Disodium tetracemate;F 1 (complexon);Selekton B<sub>2</sub>;Sodium versenate;F 1;Titriplex III;Perma Kleer Di Crystals;Versene NA;Versene Na<sub>2</sub>;Sequestrene Na<sub>2</sub>;Disodium ethylenediamine-<em>N</em>,<em>N</em>,<em>N</em>′,<em>N</em>′-tetraacetate;Trilon BD;Chelest B;Chelaton III;Chelaplex;Zonon D;Disodium ethylenediaminetetraacetic acid salt;Dotite 2NA;Khelaton 3;EDTA disodium salt;Komplexon III;Mavacid ED 4;Chelest 200;Clewat N;Versonol 120;Tetracemate disodium;Versene disodium salt;Disodium edathamil;Clewat N 2;Salina;Dissolvine Na2;Chelest 2BS;TW 204;Idranal III;Nervanaid Ba2;Edeta BD;Dissolvine Na2S;Dissolvine Na 2T;Dissolvine Na 2x;VRP 1034;Ethylenedinitrilotetraacetate disodium;Chelest 2B-SD;EDTA&amp;bull;Na<sub>2</sub>;Protachem NA 2P;Krewat N",
    "duplicated_cas_no": "1892-64-4;37341-71-2;42615-28-1;69772-70-9;104244-09-9;1236140-51-4",
    "SMILES": "N(CCN(CC(O)=O)CC(O)=O)(CC(O)=O)CC(O)=O.[Na]",
    "meta_data": {
        "InChI": "InChI=1S/C10H16N2O8.2Na/c13-7(14)3-11(4-8(15)16)1-2-12(5-9(17)18)6-10(19)20;;/h1-6H2,(H,13,14)(H,15,16)(H,17,18)(H,19,20);;",
        "InChIKey": null,
        "Canonical SMILES": "[Na].O=C(O)CN(CC(=O)O)CCN(CC(=O)O)CC(=O)O",
        "Molecular Formula": "C<sub>10</sub>H<sub>16</sub>N<sub>2</sub>O<sub>8</sub>.2Na",
        "Molecular Mass": "",
        "Melting Point": "252 °C (decomp)"
    }
}