{
    "cas_no": "76619-89-1",
    "key_name": "3-Amino-5-methylphenol",
    "cn_name": "3-氨基-5-甲基苯酚;",
    "alternate_name": "Phenol, 3-amino-5-methyl-;<em>m</em>-Cresol, 5-amino-;3-Amino-5-methylphenol;3-Hydroxy-5-methylaniline;5-Methyl-3-aminophenol",
    "duplicated_cas_no": "",
    "SMILES": "CC1=CC(N)=CC(O)=C1",
    "meta_data": {
        "InChI": "InChI=1S/C7H9NO/c1-5-2-6(8)4-7(9)3-5/h2-4,9H,8H2,1H3",
        "InChIKey": null,
        "Canonical SMILES": "OC=1C=C(N)C=C(C1)C",
        "Molecular Formula": "C<sub>7</sub>H<sub>9</sub>NO",
        "Molecular Mass": "123.15",
        "Melting Point": "137-138 °C"
    }
}