{
    "cas_no": "4497-05-6",
    "key_name": "1-Phenyl-1-tetradecanone",
    "cn_name": "十四烷苯酮;苯基三烷基酮;",
    "alternate_name": "1-Tetradecanone, 1-phenyl-;Myristophenone;1-Phenyl-1-tetradecanone;Phenyl tridecyl ketone;Tetradecanophenone;Tridecyl phenyl ketone;NSC 18795",
    "duplicated_cas_no": "",
    "SMILES": "C(CCCCCCCCCCCCC)(=O)C1=CC=CC=C1",
    "meta_data": {
        "InChI": "InChI=1S/C20H32O/c1-2-3-4-5-6-7-8-9-10-11-15-18-20(21)19-16-13-12-14-17-19/h12-14,16-17H,2-11,15,18H2,1H3",
        "InChIKey": null,
        "Canonical SMILES": "O=C(C=1C=CC=CC1)CCCCCCCCCCCCC",
        "Molecular Formula": "C<sub>20</sub>H<sub>32</sub>O",
        "Molecular Mass": "288.47",
        "Boiling Point": "212 °C @ Press: 12 Torr",
        "Melting Point": "55.5 °C"
    }
}