{
    "cas_no": "24345-02-6",
    "key_name": "Benzenesulfinic acid, 4-methyl-, zinc salt (2:1)",
    "cn_name": "4-甲基苯亚磺酸锌盐;",
    "alternate_name": "Benzenesulfinic acid, 4-methyl-, zinc salt (2:1);<em>p</em>-Toluenesulfinic acid, zinc salt;Benzenesulfinic acid, 4-methyl-, zinc salt;Zinc <em>p</em>-toluenesulfinate;Unicell TM;Cellpaste P;Zinc 4-methylbenzenesulfinate",
    "duplicated_cas_no": "",
    "SMILES": "S(=O)(O)C1=CC=C(C)C=C1.[Zn]",
    "meta_data": {
        "InChI": "InChI=1S/C7H8O2S.Zn/c1-6-2-4-7(5-3-6)10(8)9;/h2-5H,1H3,(H,8,9);",
        "InChIKey": null,
        "Canonical SMILES": "[Zn].O=S(O)C1=CC=C(C=C1)C",
        "Molecular Formula": "C<sub>7</sub>H<sub>8</sub>O<sub>2</sub>S.<sup>1</sup>/<sub>2</sub>Zn",
        "Molecular Mass": "",
        "Melting Point": "251 °C (decomp)"
    }
}