{
    "cas_no": "769-10-8",
    "key_name": "1-Fluoro-2-methyl-3-nitrobenzene",
    "cn_name": "2-氟-6-硝基甲苯;",
    "alternate_name": "Benzene, 1-fluoro-2-methyl-3-nitro-;Toluene, 2-fluoro-6-nitro-;1-Fluoro-2-methyl-3-nitrobenzene;6-Fluoro-2-nitrotoluene;6-Nitro-2-fluorotoluene;2-Fluoro-6-nitrotoluene;2-Methyl-3-fluoronitrobenzene;NSC 10333",
    "duplicated_cas_no": "",
    "SMILES": "N(=O)(=O)C1=C(C)C(F)=CC=C1",
    "meta_data": {
        "InChI": "InChI=1S/C7H6FNO2/c1-5-6(8)3-2-4-7(5)9(10)11/h2-4H,1H3",
        "InChIKey": null,
        "Canonical SMILES": "O=N(=O)C=1C=CC=C(F)C1C",
        "Molecular Formula": "C<sub>7</sub>H<sub>6</sub>FNO<sub>2</sub>",
        "Molecular Mass": "155.13",
        "Boiling Point": "91-92 °C @ Press: 8 Torr"
    }
}