{
    "cas_no": "114744-51-3",
    "key_name": "7-Bromo-1,2,3,4-tetrahydroquinoline",
    "cn_name": null,
    "alternate_name": "Quinoline, 7-bromo-1,2,3,4-tetrahydro-;7-Bromo-1,2,3,4-tetrahydroquinoline",
    "duplicated_cas_no": "",
    "SMILES": "BrC=1C=C2C(=CC1)CCCN2",
    "meta_data": {
        "InChI": "InChI=1S/C9H10BrN/c10-8-4-3-7-2-1-5-11-9(7)6-8/h3-4,6,11H,1-2,5H2",
        "InChIKey": null,
        "Canonical SMILES": "BrC1=CC=C2C(=C1)NCCC2",
        "Molecular Formula": "C<sub>9</sub>H<sub>10</sub>BrN",
        "Molecular Mass": "212.09",
        "Melting Point": "68-69 °C"
    }
}