{
    "cas_no": "67747-09-5",
    "key_name": "Prochloraz",
    "cn_name": null,
    "alternate_name": "1<em>H</em>-Imidazole-1-carboxamide, <em>N</em>-propyl-<em>N</em>-[2-(2,4,6-trichlorophenoxy)ethyl]-;<em>N</em>-Propyl-<em>N</em>-[2-(2,4,6-trichlorophenoxy)ethyl]-1<em>H</em>-imidazole-1-carboxamide;BTS 40542;Prochloraz;BTS 40542-7877;Sportak;KI 835;Prelude;DMI;Sportake;Mirage;Mirage (pesticide);Plocloraz;<em>N</em>-Propyl-<em>N</em>-[2-(2,4,6-trichlorophenoxy)ethyl]imidazole-1-carboxamide",
    "duplicated_cas_no": "68444-81-5;1135441-21-2",
    "SMILES": "C(N(CCOC1=C(Cl)C=C(Cl)C=C1Cl)CCC)(=O)N2C=CN=C2",
    "meta_data": {
        "InChI": "InChI=1S/C15H16Cl3N3O2/c1-2-4-20(15(22)21-5-3-19-10-21)6-7-23-14-12(17)8-11(16)9-13(14)18/h3,5,8-10H,2,4,6-7H2,1H3",
        "InChIKey": null,
        "Canonical SMILES": "O=C(N1C=NC=C1)N(CCOC=2C(Cl)=CC(Cl)=CC2Cl)CCC",
        "Molecular Formula": "C<sub>15</sub>H<sub>16</sub>Cl<sub>3</sub>N<sub>3</sub>O<sub>2</sub>",
        "Molecular Mass": "376.67",
        "Boiling Point": "209 °C",
        "Melting Point": "48 °C"
    }
}