{
    "cas_no": "5089-28-1",
    "key_name": "1,1′-(1,8-Octanediyl)bis[1-chloro-1,1-dimethylsilane]",
    "cn_name": null,
    "alternate_name": "Silane, 1,1′-(1,8-octanediyl)bis[1-chloro-1,1-dimethyl-;2,11-Disiladodecane, 2,11-dichloro-2,11-dimethyl-;Silane, 1,8-octanediylbis[chlorodimethyl-;1,1′-(1,8-Octanediyl)bis[1-chloro-1,1-dimethylsilane];1,8-Di(chlorodimethylsilyl)octane;1,8-Bis(chlorodimethylsilyl)octane",
    "duplicated_cas_no": "",
    "SMILES": "C([Si](C)(C)Cl)CCCCCCC[Si](C)(C)Cl",
    "meta_data": {
        "InChI": "InChI=1S/C12H28Cl2Si2/c1-15(2,13)11-9-7-5-6-8-10-12-16(3,4)14/h5-12H2,1-4H3",
        "InChIKey": null,
        "Canonical SMILES": "Cl[Si](C)(C)CCCCCCCC[Si](Cl)(C)C",
        "Molecular Formula": "C<sub>12</sub>H<sub>28</sub>Cl<sub>2</sub>Si<sub>2</sub>",
        "Molecular Mass": "299.43",
        "Boiling Point": "106-107 °C @ Press: 0.4 Torr",
        "Density": "0.946 g/cm³"
    }
}