{
    "cas_no": "3733-63-9",
    "key_name": "2-[2-[4-(Diphenylmethyl)-1-piperazinyl]ethoxy]ethanol",
    "cn_name": "去氯羟嗪;1-二苯甲基-4-(2-(2-羟基乙氧基)乙基)哌嗪;",
    "alternate_name": "Ethanol, 2-[2-[4-(diphenylmethyl)-1-piperazinyl]ethoxy]-;2-[2-[4-(Diphenylmethyl)-1-piperazinyl]ethoxy]ethanol;UCB 1402;Decloxizine;NSC 289116;2-[2-(4-Benzhydrylpiperazin-1-yl)ethoxy]ethanol",
    "duplicated_cas_no": "",
    "SMILES": "C(N1CCN(CCOCCO)CC1)(C2=CC=CC=C2)C3=CC=CC=C3",
    "meta_data": {
        "InChI": "InChI=1S/C21H28N2O2/c24-16-18-25-17-15-22-11-13-23(14-12-22)21(19-7-3-1-4-8-19)20-9-5-2-6-10-20/h1-10,21,24H,11-18H2",
        "InChIKey": null,
        "Canonical SMILES": "OCCOCCN1CCN(CC1)C(C=2C=CC=CC2)C=3C=CC=CC3",
        "Molecular Formula": "C<sub>21</sub>H<sub>28</sub>N<sub>2</sub>O<sub>2</sub>",
        "Molecular Mass": "340.46",
        "Boiling Point": "185 °C @ Press: 5 x 10<sup>-3</sup> Torr"
    }
}