{
    "cas_no": "4122-57-0",
    "key_name": "3-Methoxyphthalide",
    "cn_name": "3-甲氧基苯酞;",
    "alternate_name": "1(3<em>H</em>)-Isobenzofuranone, 3-methoxy-;Phthalide, 3-methoxy-;3-Methoxy-1(3<em>H</em>)-isobenzofuranone;3-Methoxyphthalide;3-Methoxy-3<em>H</em>-isobenzofuran-1-one;NSC 408564;3-Methoxy-2-benzofuran-1(3<em>H</em>)-one;3-Methoxy-3<em>H</em>-2-benzofuran-1-one;3-Methoxy-1,3-dihydro-2-benzofuran-1-one",
    "duplicated_cas_no": "",
    "SMILES": "O(C)C1C=2C(C(=O)O1)=CC=CC2",
    "meta_data": {
        "InChI": "InChI=1S/C9H8O3/c1-11-9-7-5-3-2-4-6(7)8(10)12-9/h2-5,9H,1H3",
        "InChIKey": null,
        "Canonical SMILES": "O=C1OC(OC)C=2C=CC=CC12",
        "Molecular Formula": "C<sub>9</sub>H<sub>8</sub>O<sub>3</sub>",
        "Molecular Mass": "164.16",
        "Melting Point": "44-45 °C"
    }
}