{
    "cas_no": "108-49-6",
    "key_name": "2,6-Dimethylpiperazine",
    "cn_name": "2,6-二甲基哌嗪;顺式-2,6-二甲基哌嗪;",
    "alternate_name": "Piperazine, 2,6-dimethyl-;2,6-Dimethylpiperazine;NSC 49197;3,5-Dimethylpiperazine",
    "duplicated_cas_no": "",
    "SMILES": "CC1NC(C)CNC1",
    "meta_data": {
        "InChI": "InChI=1S/C6H14N2/c1-5-3-7-4-6(2)8-5/h5-8H,3-4H2,1-2H3",
        "InChIKey": null,
        "Canonical SMILES": "N1CC(NC(C)C1)C",
        "Molecular Formula": "C<sub>6</sub>H<sub>14</sub>N<sub>2</sub>",
        "Molecular Mass": "114.19",
        "Boiling Point": "157-165 °C",
        "Melting Point": "110-113 °C"
    }
}