{
    "cas_no": "46112-46-3",
    "key_name": "4-(2-Hydroxyethyl)benzoic acid",
    "cn_name": null,
    "alternate_name": "Benzoic acid, 4-(2-hydroxyethyl)-;Benzoic acid, <em>p</em>-2-hydroxyethyl-;4-(2-Hydroxyethyl)benzoic acid",
    "duplicated_cas_no": "",
    "SMILES": "C(O)(=O)C1=CC=C(CCO)C=C1",
    "meta_data": {
        "InChI": "InChI=1S/C9H10O3/c10-6-5-7-1-3-8(4-2-7)9(11)12/h1-4,10H,5-6H2,(H,11,12)",
        "InChIKey": null,
        "Canonical SMILES": "O=C(O)C1=CC=C(C=C1)CCO",
        "Molecular Formula": "C<sub>9</sub>H<sub>10</sub>O<sub>3</sub>",
        "Molecular Mass": "166.17",
        "Melting Point": "127-128 °C"
    }
}