{
    "cas_no": "175135-07-6",
    "key_name": "Benzo[<em>b</em>]thiophene-2-carboxylic acid, hydrazide",
    "cn_name": "苯并[b]噻吩-2-羧酰肼;",
    "alternate_name": "Benzo[<em>b</em>]thiophene-2-carboxylic acid, hydrazide;Benzo[<em>b</em>]thiophene-2-carboxylic hydrazide;1-Benzothiophene-2-carbohydrazide",
    "duplicated_cas_no": "",
    "SMILES": "C(NN)(=O)C1=CC=2C(S1)=CC=CC2",
    "meta_data": {
        "InChI": "InChI=1S/C9H8N2OS/c10-11-9(12)8-5-6-3-1-2-4-7(6)13-8/h1-5H,10H2,(H,11,12)",
        "InChIKey": null,
        "Canonical SMILES": "O=C(NN)C=1SC=2C=CC=CC2C1",
        "Molecular Formula": "C<sub>9</sub>H<sub>8</sub>N<sub>2</sub>OS",
        "Molecular Mass": "192.24",
        "Melting Point": "192-195 °C"
    }
}