{
    "cas_no": "10041-06-2",
    "key_name": "1-[4-(1<em>H</em>-Imidazol-1-yl)phenyl]ethanone",
    "cn_name": null,
    "alternate_name": "Ethanone, 1-[4-(1<em>H</em>-imidazol-1-yl)phenyl]-;Acetophenone, 4′-imidazol-1-yl-;1-[4-(1<em>H</em>-Imidazol-1-yl)phenyl]ethanone;Ro 22-3581;4′-Imidazolylacetophenone;<em>N</em>-(4-Acetylphenyl)imidazole;<em>p</em>-Imidazol-1-ylacetophenone;1-[4-(1-Imidazolyl)phenyl]ethan-1-one;4-(1-Imidazolyl)acetophenone;4-(1<em>H</em>-Imidazol-1-yl)acetophenone;1-(4-Imidazol-1-yl-phenyl)ethanone;1-(4-Acetylphenyl)-1<em>H</em>-imidazole;1-(4-(1<em>H</em>-Imidazol-1-yl)phenyl)ethan-1-one",
    "duplicated_cas_no": "",
    "SMILES": "C(C)(=O)C1=CC=C(C=C1)N2C=CN=C2",
    "meta_data": {
        "InChI": "InChI=1S/C11H10N2O/c1-9(14)10-2-4-11(5-3-10)13-7-6-12-8-13/h2-8H,1H3",
        "InChIKey": null,
        "Canonical SMILES": "O=C(C1=CC=C(C=C1)N2C=NC=C2)C",
        "Molecular Formula": "C<sub>11</sub>H<sub>10</sub>N<sub>2</sub>O",
        "Molecular Mass": "186.21",
        "Melting Point": "112-114 °C"
    }
}