{
    "cas_no": "150691-04-6",
    "key_name": "2-<em>tert</em>-Butylaminosulfonylphenylboronic acid",
    "cn_name": "2-(叔丁基氨基)磺酰基苯硼酸;",
    "alternate_name": "Boronic acid, <em>B</em>-[2-[[(1,1-dimethylethyl)amino]sulfonyl]phenyl]-;Boronic acid, [2-[[(1,1-dimethylethyl)amino]sulfonyl]phenyl]-;<em>B</em>-[2-[[(1,1-Dimethylethyl)amino]sulfonyl]phenyl]boronic acid;2-(<em>N</em>-<em>tert</em>-Butylsulfamoyl)phenylboronic acid;2-<em>tert</em>-Butylaminosulfonylphenylboronic acid;2-[(t-Butylamino)sulfonyl]phenylboronic acid;2-(<em>tert</em>-Butylaminosulfonyl)benzeneboronic acid;2-<em>N</em>-<em>tert</em>-Butylaminosulfonylphenylboronic acid;2-(<em>tert</em>-Butylsulfamoyl)phenylboronic acid;2-<em>tert</em>-Butylaminobenzenesulfonyl chloride;2-(<em>tert</em>-Butylsulfamoyl)benzeneboronic acid",
    "duplicated_cas_no": "477739-55-2",
    "SMILES": "S(NC(C)(C)C)(=O)(=O)C1=C(B(O)O)C=CC=C1",
    "meta_data": {
        "InChI": "InChI=1S/C10H16BNO4S/c1-10(2,3)12-17(15,16)9-7-5-4-6-8(9)11(13)14/h4-7,12-14H,1-3H3",
        "InChIKey": null,
        "Canonical SMILES": "O=S(=O)(NC(C)(C)C)C=1C=CC=CC1B(O)O",
        "Molecular Formula": "C<sub>10</sub>H<sub>16</sub>BNO<sub>4</sub>S",
        "Molecular Mass": "257.11",
        "Melting Point": "118-119 °C"
    }
}