{
    "cas_no": "19597-07-0",
    "key_name": "1,3-Dimethyl-2-pyrrolidinone",
    "cn_name": null,
    "alternate_name": "2-Pyrrolidinone, 1,3-dimethyl-;1,3-Dimethyl-2-pyrrolidinone;1,3-Dimethylpyrrolidone",
    "duplicated_cas_no": "",
    "SMILES": "O=C1C(C)CCN1C",
    "meta_data": {
        "InChI": "InChI=1S/C6H11NO/c1-5-3-4-7(2)6(5)8/h5H,3-4H2,1-2H3",
        "InChIKey": null,
        "Canonical SMILES": "O=C1N(C)CCC1C",
        "Molecular Formula": "C<sub>6</sub>H<sub>11</sub>NO",
        "Molecular Mass": "113.16",
        "Boiling Point": "105-106 °C @ Press: 30 Torr",
        "Density": "0.792 g/cm³ @ Temp: 15 °C"
    }
}