{
    "cas_no": "4335-77-7",
    "key_name": "(±)-Cyclohexylphenylglycolic acid",
    "cn_name": "2-环己基-2-羟基苯乙酸;2-环己基扁桃酸;",
    "alternate_name": "Benzeneacetic acid, α-cyclohexyl-α-hydroxy-;Cyclohexaneglycolic acid, α-phenyl-;α-Cyclohexyl-α-hydroxybenzeneacetic acid;α-Phenylcyclohexylglycolic acid;α-Cyclohexyl-α-phenylglycolic acid;Hexahydrobenzilic acid;2-Cyclohexyl-2-hydroxy-2-phenylacetic acid;RCC 32;(±)-Cyclohexylphenylglycolic acid;Cyclohexylphenylglycolic acid;NSC 28945;NSC 93969;(Cyclohexyl)(hydroxy)-2-(phenyl)acetic acid;α-Cyclohexyl-<span class=\"text-smallcaps\">D</smallcap><smallcap>L</span>-mandelic acid;CPGA;Cyclohexylhydroxyphenylacetic acid;α-Cyclohexylmandelic acid",
    "duplicated_cas_no": "50896-04-3",
    "SMILES": "C(C(O)=O)(O)(C1CCCCC1)C2=CC=CC=C2",
    "meta_data": {
        "InChI": "InChI=1S/C14H18O3/c15-13(16)14(17,11-7-3-1-4-8-11)12-9-5-2-6-10-12/h1,3-4,7-8,12,17H,2,5-6,9-10H2,(H,15,16)",
        "InChIKey": null,
        "Canonical SMILES": "O=C(O)C(O)(C=1C=CC=CC1)C2CCCCC2",
        "Molecular Formula": "C<sub>14</sub>H<sub>18</sub>O<sub>3</sub>",
        "Molecular Mass": "234.29",
        "Melting Point": "161-163 °C"
    }
}