{
    "cas_no": "1016-05-3",
    "key_name": "Dibenzothiophene sulfone",
    "cn_name": "二苯基二氧化噻吩;",
    "alternate_name": "Dibenzothiophene, 5,5-dioxide;Dibenzothiophene sulfone;Diphenylene sulfone;Dibenzothiophene <em>S</em>,<em>S</em>-dioxide;Dibenzothiophene dioxide;Dibenzosulfolane;NSC 406519;NSC 627707;Dibenzo[<em>b</em>,<em>d</em>]thiophene 5,5-dioxide",
    "duplicated_cas_no": "",
    "SMILES": "O=S1(=O)C=2C(C=3C1=CC=CC3)=CC=CC2",
    "meta_data": {
        "InChI": "InChI=1S/C12H8O2S/c13-15(14)11-7-3-1-5-9(11)10-6-2-4-8-12(10)15/h1-8H",
        "InChIKey": null,
        "Canonical SMILES": "O=S1(=O)C=2C=CC=CC2C=3C=CC=CC31",
        "Molecular Formula": "C<sub>12</sub>H<sub>8</sub>O<sub>2</sub>S",
        "Molecular Mass": "216.26",
        "Melting Point": "229-230 °C",
        "Density": "1.396 g/cm³"
    }
}