{
    "cas_no": "6090-09-1",
    "key_name": "4-Acetyl-1-methylcyclohexene",
    "cn_name": null,
    "alternate_name": "Ethanone, 1-(4-methyl-3-cyclohexen-1-yl)-;Ketone, methyl 4-methyl-3-cyclohexen-1-yl;1-(4-Methyl-3-cyclohexen-1-yl)ethanone;1-Methyl-4-acetyl-1-cyclohexene;Methyl 4-methyl-3-cyclohexen-1-yl ketone;4-Methyl-3-cyclohexen-1-yl methyl ketone;4-Acetyl-1-methyl-1-cyclohexene;4-Acetyl-1-methylcyclohexene;Limona ketone;1-(4-Methylcyclohex-3-enyl)ethanone;(+-)-4-Acetyl-1-methylcyclohexene",
    "duplicated_cas_no": "70286-20-3;1353039-22-1",
    "SMILES": "C(C)(=O)C1CCC(C)=CC1",
    "meta_data": {
        "InChI": "InChI=1S/C9H14O/c1-7-3-5-9(6-4-7)8(2)10/h3,9H,4-6H2,1-2H3",
        "InChIKey": null,
        "Canonical SMILES": "O=C(C)C1CC=C(C)CC1",
        "Molecular Formula": "C<sub>9</sub>H<sub>14</sub>O",
        "Molecular Mass": "138.21",
        "Boiling Point": "88-89 °C",
        "Density": "0.9385 g/cm³ @ Temp: 20 °C"
    }
}