{
    "cas_no": "4591-55-3",
    "key_name": "3,5-Pyridinedicarboxylic acid, 3,5-dimethyl ester",
    "cn_name": null,
    "alternate_name": "3,5-Pyridinedicarboxylic acid, 3,5-dimethyl ester;3,5-Pyridinedicarboxylic acid, dimethyl ester;Dimethyl 3,5-pyridinedicarboxylate;3,5-Bismethoxycarbonylpyridine;3,5-Di(methoxycarbonyl)pyridine;NSC 403260;3,5-Dimethyl pyridine-3,5-dicarboxylate",
    "duplicated_cas_no": "26471-68-1",
    "SMILES": "C(OC)(=O)C=1C=C(C(OC)=O)C=NC1",
    "meta_data": {
        "InChI": "InChI=1S/C9H9NO4/c1-13-8(11)6-3-7(5-10-4-6)9(12)14-2/h3-5H,1-2H3",
        "InChIKey": null,
        "Canonical SMILES": "O=C(OC)C1=CN=CC(=C1)C(=O)OC",
        "Molecular Formula": "C<sub>9</sub>H<sub>9</sub>NO<sub>4</sub>",
        "Molecular Mass": "195.17",
        "Melting Point": "84-85 °C"
    }
}