{
    "cas_no": "7698-93-3",
    "key_name": "Estradiol hemisuccinate",
    "cn_name": "beta-雌二醇17-半琥珀酸酯;雌甾-1,3,5(10)-三烯-3,17b-二醇17-半琥珀酸酯;",
    "alternate_name": "Estra-1,3,5(10)-triene-3,17-diol (17β)-, 17-(hydrogen butanedioate);Estradiol, 17-(hydrogen succinate);Succinic acid, 17-monoester with estradiol;Estradiol 17β-hemisuccinate;Estra-1,3,5(10)-triene-3,17β-diol 17-(hydrogen succinate);17β-Estradiol 17-hemisuccinate;Estradiol-17-hemisuccinate;17β-Estradiol succinate;Estradiol hemisuccinate",
    "duplicated_cas_no": "847232-88-6",
    "SMILES": "C[C@@]12[C@]([C@]3([C@@](C=4C(CC3)=CC(O)=CC4)(CC1)[H])[H])(CC[C@@H]2OC(CCC(O)=O)=O)[H]",
    "meta_data": {
        "InChI": "InChI=1S/C22H28O5/c1-22-11-10-16-15-5-3-14(23)12-13(15)2-4-17(16)18(22)6-7-19(22)27-21(26)9-8-20(24)25/h3,5,12,16-19,23H,2,4,6-11H2,1H3,(H,24,25)/t16-,17-,18+,19+,22+/m1/s1",
        "InChIKey": null,
        "Canonical SMILES": "O=C(O)CCC(=O)OC1CCC2C3CCC4=CC(O)=CC=C4C3CCC12C",
        "Molecular Formula": "C<sub>22</sub>H<sub>28</sub>O<sub>5</sub>",
        "Molecular Mass": "372.45",
        "Melting Point": "150-155 °C"
    }
}