{
    "cas_no": "490-83-5",
    "key_name": "Dehydroascorbic acid",
    "cn_name": "脱氢抗坏血酸;去氢抗坏血酸;",
    "alternate_name": "<span class=\"text-smallcaps\">L</span>-<em>threo</em>-2,3-Hexodiulosonic acid, γ-lactone;Dehydroascorbic acid, <span class=\"text-smallcaps\">L</span>-;DHAA;Oxidized ascorbic acid;<span class=\"text-smallcaps\">L</span>-Ascorbic acid, dehydro-;<span class=\"text-smallcaps\">L</span>-Dehydroascorbic acid;Dehydroascorbic acid;<span class=\"text-smallcaps\">L</span>-<em>threo</em>-Dehydroascorbic acid;Dehydro-<span class=\"text-smallcaps\">L</span>-ascorbic acid;<span class=\"text-smallcaps\">L</span>-Ascorbic acid, oxidized;Oxidized vitamin C;Dehydro-<span class=\"text-smallcaps\">L</span>-ascorbate",
    "duplicated_cas_no": "2365-07-3;19455-06-2;21090-23-3;882741-16-4",
    "SMILES": "[C@@H](CO)(O)[C@@]1(C(=O)C(=O)C(=O)O1)[H]",
    "meta_data": {
        "InChI": "InChI=1S/C6H6O6/c7-1-2(8)5-3(9)4(10)6(11)12-5/h2,5,7-8H,1H2/t2-,5+/m0/s1",
        "InChIKey": null,
        "Canonical SMILES": "O=C1OC(C(=O)C1=O)C(O)CO",
        "Molecular Formula": "C<sub>6</sub>H<sub>6</sub>O<sub>6</sub>",
        "Molecular Mass": "174.11",
        "Melting Point": "204-205 °C (decomp)"
    }
}