{
    "cas_no": "606-59-7",
    "key_name": "Cinnabarinic acid",
    "cn_name": null,
    "alternate_name": "3<em>H</em>-Phenoxazine-1,9-dicarboxylic acid, 2-amino-3-oxo-;2-Amino-3-oxo-3<em>H</em>-phenoxazine-1,9-dicarboxylic acid;Cinnabarinic acid;Cinnabaric acid;Cinnavalininic acid",
    "duplicated_cas_no": "11129-24-1",
    "SMILES": "C(O)(=O)C=1C=2C(OC=3C(N2)=C(C(O)=O)C=CC3)=CC(=O)C1N",
    "meta_data": {
        "InChI": "InChI=1S/C14H8N2O6/c15-10-6(17)4-8-12(9(10)14(20)21)16-11-5(13(18)19)2-1-3-7(11)22-8/h1-4H,15H2,(H,18,19)(H,20,21)",
        "InChIKey": null,
        "Canonical SMILES": "O=C(O)C=1C=CC=C2OC3=CC(=O)C(N)=C(C(=O)O)C3=NC21",
        "Molecular Formula": "C<sub>14</sub>H<sub>8</sub>N<sub>2</sub>O<sub>6</sub>",
        "Molecular Mass": "300.22",
        "Melting Point": "&gt;300 °C"
    }
}