{
    "cas_no": "24386-93-4",
    "key_name": "5-Iodotubercidin",
    "cn_name": "5-碘代杀结核菌素;",
    "alternate_name": "7<em>H</em>-Pyrrolo[2,3-<em>d</em>]pyrimidin-4-amine, 5-iodo-7-β-<span class=\"text-smallcaps\">D</span>-ribofuranosyl-;7<em>H</em>-Pyrrolo[2,3-<em>d</em>]pyrimidine, 4-amino-5-iodo-7-β-<span class=\"text-smallcaps\">D</span>-ribofuranosyl-;5-Iodo-7-β-<span class=\"text-smallcaps\">D</span>-ribofuranosyl-7<em>H</em>-pyrrolo[2,3-<em>d</em>]pyrimidin-4-amine;4-Amino-5-iodo-7-β-<span class=\"text-smallcaps\">D</span>-ribofuranosyl-7<em>H</em>-pyrrolo[2,3-<em>d</em>]pyrimidine;NSC 113939;4-Amino-5-iodo-7-β-<span class=\"text-smallcaps\">D</span>-ribofuranosylpyrrolo[2,3-<em>d</em>]pyrimidine;5-Iodotubercidin;7-Iodotubercidin;7-Iodo-7-deazaadenosine;NQZ-020",
    "duplicated_cas_no": "1638545-07-9",
    "SMILES": "O[C@H]1[C@H](N2C=3C(C(I)=C2)=C(N)N=CN3)O[C@H](CO)[C@H]1O",
    "meta_data": {
        "InChI": "InChI=1S/C11H13IN4O4/c12-4-1-16(10-6(4)9(13)14-3-15-10)11-8(19)7(18)5(2-17)20-11/h1,3,5,7-8,11,17-19H,2H2,(H2,13,14,15)/t5-,7-,8-,11-/m1/s1",
        "InChIKey": null,
        "Canonical SMILES": "IC1=CN(C=2N=CN=C(N)C12)C3OC(CO)C(O)C3O",
        "Molecular Formula": "C<sub>11</sub>H<sub>13</sub>IN<sub>4</sub>O<sub>4</sub>",
        "Molecular Mass": "392.15",
        "Melting Point": "215 °C"
    }
}