{
    "cas_no": "515-13-9",
    "key_name": "(-)-β-Elemene",
    "cn_name": null,
    "alternate_name": "Cyclohexane, 1-ethenyl-1-methyl-2,4-bis(1-methylethenyl)-, (1<em>S</em>,2<em>S</em>,4<em>R</em>)-;β-Elemene;Cyclohexane, 2,4-diisopropenyl-1-methyl-1-vinyl-, (1<em>S</em>,2<em>S</em>,4<em>R</em>)-(-)-;Cyclohexane, 1-ethenyl-1-methyl-2,4-bis(1-methylethenyl)-, [1<em>S</em>-(1α,2β,4β)]-;(1<em>S</em>,2<em>S</em>,4<em>R</em>)-1-Ethenyl-1-methyl-2,4-bis(1-methylethenyl)cyclohexane;(-)-β-Elemene;Levo-β-elemene;β-Elemene, (-)-;β-Elemen",
    "duplicated_cas_no": "11033-44-6;20296-36-0;154028-29-2",
    "SMILES": "C(C)(=C)[C@H]1[C@@](C=C)(C)CC[C@@H](C(C)=C)C1",
    "meta_data": {
        "InChI": "InChI=1S/C15H24/c1-7-15(6)9-8-13(11(2)3)10-14(15)12(4)5/h7,13-14H,1-2,4,8-10H2,3,5-6H3/t13-,14+,15-/m1/s1",
        "InChIKey": null,
        "Canonical SMILES": "C=CC1(C)CCC(C(=C)C)CC1C(=C)C",
        "Molecular Formula": "C<sub>15</sub>H<sub>24</sub>",
        "Molecular Mass": "204.35",
        "Boiling Point": "119 °C @ Press: 15 Torr",
        "Density": "0.8881 g/cm³ @ Temp: 20 °C"
    }
}