{
    "cas_no": "423-62-1",
    "key_name": "Perfluorodecyl iodide",
    "cn_name": "1-碘全氟癸烷;全氟癸基碘;全氟碘代癸烷;",
    "alternate_name": "Decane, 1,1,1,2,2,3,3,4,4,5,5,6,6,7,7,8,8,9,9,10,10-heneicosafluoro-10-iodo-;Decane, heneicosafluoro-1-iodo-;1,1,1,2,2,3,3,4,4,5,5,6,6,7,7,8,8,9,9,10,10-Heneicosafluoro-10-iododecane;Heneicosafluoro-1-iododecane;Perfluorodecyl iodide;1-Iodoperfluorodecane;Perfluoro-1-iododecane;1-Iodoheneicosafluorodecane;1,1,1,2,2,3,3,4,4,5,5,6,6,7,7,8,8,9,9,10,10-Henicosafluoro-10-iododecane",
    "duplicated_cas_no": "",
    "SMILES": "C(C(C(C(C(C(F)(F)I)(F)F)(F)F)(F)F)(F)F)(C(C(C(C(F)(F)F)(F)F)(F)F)(F)F)(F)F",
    "meta_data": {
        "InChI": "InChI=1S/C10F21I/c11-1(12,3(15,16)5(19,20)7(23,24)9(27,28)29)2(13,14)4(17,18)6(21,22)8(25,26)10(30,31)32",
        "InChIKey": null,
        "Canonical SMILES": "FC(F)(F)C(F)(F)C(F)(F)C(F)(F)C(F)(F)C(F)(F)C(F)(F)C(F)(F)C(F)(F)C(F)(F)I",
        "Molecular Formula": "C<sub>10</sub>F<sub>21</sub>I",
        "Molecular Mass": "645.98",
        "Boiling Point": "195 °C",
        "Melting Point": "65.5 °C"
    }
}