{
    "cas_no": "80-54-6",
    "key_name": "Lilial",
    "cn_name": "铃兰醛;2-(4-叔丁基苄基)丙醛;",
    "alternate_name": "Benzenepropanal, 4-(1,1-dimethylethyl)-α-methyl-;Hydrocinnamaldehyde, <em>p</em>-<em>tert</em>-butyl-α-methyl-;4-(1,1-Dimethylethyl)-α-methylbenzenepropanal;<em>p</em>-<em>tert</em>-Butyl-α-methylhydrocinnamaldehyde;Lilial;α-Methyl-<em>p</em>-<em>tert</em>-butylhydrocinnamaldehyde;3-(4-<em>tert</em>-Butylphenyl)-2-methylpropanal;3-(<em>p</em>-<em>tert</em>-Butylphenyl)isobutylaldehyde;3-(<em>p</em>-<em>tert</em>-Butylphenyl)-2-methylpropionaldehyde;<em>p</em>-<em>tert</em>-Butyl-α-methylhydrocinnamic aldehyde;4-<em>tert</em>-Butyl-α-methylhydrocinnamic aldehyde;(±)-2-Methyl-3-(4-<em>tert</em>-butylphenyl)propanal;PT-Bucinal;NSC 22275;Lilestralis;2-Methyl-3-(4-<em>tert</em>-butylphenyl)propanal;2-[(4-<em>tert</em>-Butylphenyl)methyl]propanal;β-Lilial;Lysmeral;lilestral;Lysmeral Extra;<em>p</em>-<em>tert</em>-Butyl-α-methyldihydrocinnamaldehyde;2-Methyl-3-(<em>p</em>-<em>tert</em>-butylphenyl)propanal;2-(4-<em>tert</em>-Butylbenzyl)propanal;2-(4-<em>tert</em>-Butylbenzyl)propionaldehyde;P-T-Bucinal;Butylphenyl methylpropional",
    "duplicated_cas_no": "39390-70-0;75166-25-5",
    "SMILES": "C(C)(C)(C)C1=CC=C(CC(C=O)C)C=C1",
    "meta_data": {
        "InChI": "InChI=1S/C14H20O/c1-11(10-15)9-12-5-7-13(8-6-12)14(2,3)4/h5-8,10-11H,9H2,1-4H3",
        "InChIKey": null,
        "Canonical SMILES": "O=CC(C)CC1=CC=C(C=C1)C(C)(C)C",
        "Molecular Formula": "C<sub>14</sub>H<sub>20</sub>O",
        "Molecular Mass": "204.31",
        "Boiling Point": "95-96 °C @ Press: 1 Torr",
        "Melting Point": "106-109 °C",
        "Density": "0.942 g/cm³ @ Temp: 25 °C"
    }
}