{
    "cas_no": "348-61-8",
    "key_name": "1-Bromo-3,4-difluorobenzene",
    "cn_name": "3,4-二氟溴苯;",
    "alternate_name": "Benzene, 4-bromo-1,2-difluoro-;4-Bromo-1,2-difluorobenzene;3,4-Difluorobromobenzene;1-Bromo-3,4-difluorobenzene;NSC 10251;3,4-Difluoro-1-bromobenzene",
    "duplicated_cas_no": "",
    "SMILES": "FC1=C(F)C=CC(Br)=C1",
    "meta_data": {
        "InChI": "InChI=1S/C6H3BrF2/c7-4-1-2-5(8)6(9)3-4/h1-3H",
        "InChIKey": null,
        "Canonical SMILES": "FC1=CC=C(Br)C=C1F",
        "Molecular Formula": "C<sub>6</sub>H<sub>3</sub>BrF<sub>2</sub>",
        "Molecular Mass": "192.99",
        "Boiling Point": "151.5-152.5 °C"
    }
}