{
    "cas_no": "117-34-0",
    "key_name": "Diphenylacetic acid",
    "cn_name": "2,2-二苯基乙酸;二苯乙酸;",
    "alternate_name": "Benzeneacetic acid, α-phenyl-;Acetic acid, diphenyl-;α-Phenylbenzeneacetic acid;Diphenylacetic acid;α,α-Diphenylacetic acid;2,2-Diphenylacetic acid;Diphenylethanoic acid;NSC 120417;NSC 8742",
    "duplicated_cas_no": "",
    "SMILES": "C(C(O)=O)(C1=CC=CC=C1)C2=CC=CC=C2",
    "meta_data": {
        "InChI": "InChI=1S/C14H12O2/c15-14(16)13(11-7-3-1-4-8-11)12-9-5-2-6-10-12/h1-10,13H,(H,15,16)",
        "InChIKey": null,
        "Canonical SMILES": "O=C(O)C(C=1C=CC=CC1)C=2C=CC=CC2",
        "Molecular Formula": "C<sub>14</sub>H<sub>12</sub>O<sub>2</sub>",
        "Molecular Mass": "212.24",
        "Boiling Point": "114 °C @ Press: 0.05 Torr",
        "Melting Point": "147 °C"
    }
}