{
    "cas_no": "529-34-0",
    "key_name": "1-Tetralone",
    "cn_name": "1-四氢萘酮;1-萘满酮;",
    "alternate_name": "1(2<em>H</em>)-Naphthalenone, 3,4-dihydro-;3,4-Dihydro-1(2<em>H</em>)-naphthalenone;α-Tetralone;1-Tetralone;1,2,3,4-Tetrahydronaphthalen-1-one;3,4-Dihydro-2<em>H</em>-naphthalen-1-one;1-Oxotetralin;1,2,3,4-Tetrahydro-1-oxonaphthalene;1-Oxo-1,2,3,4-tetrahydronaphthalene;NSC 5171;3,4-Dihydronaphthalen-1(2<em>H</em>)-one;Benzocyclohexan-1-one;3,4-Dihydronaphthalen-1-one",
    "duplicated_cas_no": "2647912-81-8",
    "SMILES": "O=C1C=2C(CCC1)=CC=CC2",
    "meta_data": {
        "InChI": "InChI=1S/C10H10O/c11-10-7-3-5-8-4-1-2-6-9(8)10/h1-2,4,6H,3,5,7H2",
        "InChIKey": null,
        "Canonical SMILES": "O=C1C=2C=CC=CC2CCC1",
        "Molecular Formula": "C<sub>10</sub>H<sub>10</sub>O",
        "Molecular Mass": "146.19",
        "Boiling Point": "255-257 °C @ Press: 760 Torr",
        "Melting Point": "8 °C",
        "Density": "1.0988 g/cm³ @ Temp: 16 °C"
    }
}