{
    "cas_no": "4858-85-9",
    "key_name": "2,3-Dichloropyrazine",
    "cn_name": "2,3-二氯吡嗪;",
    "alternate_name": "Pyrazine, 2,3-dichloro-;2,3-Dichloropyrazine;5,6-Dichloropyrazine",
    "duplicated_cas_no": "",
    "SMILES": "ClC=1C(Cl)=NC=CN1",
    "meta_data": {
        "InChI": "InChI=1S/C4H2Cl2N2/c5-3-4(6)8-2-1-7-3/h1-2H",
        "InChIKey": null,
        "Canonical SMILES": "ClC1=NC=CN=C1Cl",
        "Molecular Formula": "C<sub>4</sub>H<sub>2</sub>Cl<sub>2</sub>N<sub>2</sub>",
        "Molecular Mass": "148.98",
        "Boiling Point": "125-130 °C @ Press: 30 Torr",
        "Melting Point": "22-24 °C"
    }
}