{
    "cas_no": "7651-02-7",
    "key_name": "Stearamidopropyl dimethylamine",
    "cn_name": "N-[3-(二甲基氨基)丙基]十八烷酰胺;N-[3-(二甲基氨基)丙基]十八烷酰胺;",
    "alternate_name": "Octadecanamide, <em>N</em>-[3-(dimethylamino)propyl]-;<em>N</em>-[3-(Dimethylamino)propyl]octadecanamide;<em>N</em>,<em>N</em>-Dimethyl-3-(octadecanoylamino)propylamine;<em>N</em>-[3-(Dimethylamino)propyl]stearamide;Tegamine S 13;Lexamine S 13;<em>N</em>,<em>N</em>-Dimethyl-<em>N</em>′-stearoyl-1,3-propanediamine;<em>N</em>-[3-(Dimethylamino)-1-propyl]octadecanamide;Stearic acid 3-(dimethylaminopropyl)amide;Adogen S 18V;<em>N</em>′,<em>N</em>′-Dimethyl-<em>N</em>-octadecanoyl-1,3-diaminopropane;Catinal MPAS;SAPDMA;Stearamidopropyl dimethylamine;NSC 86167;Stearic acid dimethylaminopropylamide;Incromine SB;Armeen APA 168E;Stearylamidopropyldimethylamine;Tego Amid S 18;Stepan SAA;Armeen APA 168-65E;Nikkol Amidoamine MPS;Catiogen SPA;ASCO-SAPDA;Palner SDPA;<em>N</em>-(3-Stearoylaminopropyl)-<em>N</em>,<em>N</em>-dimethylamine;Chemidex S;Lipomin APA 168-65E;Incromine SD;Incromine SD-PA-MH;Chamide PKO-S;SP Polawax NF-MBAL-PA-RB;Dehyquart S 18;Genamin SPA",
    "duplicated_cas_no": "",
    "SMILES": "C(C(NCCCN(C)C)=O)CCCCCCCCCCCCCCCC",
    "meta_data": {
        "InChI": "InChI=1S/C23H48N2O/c1-4-5-6-7-8-9-10-11-12-13-14-15-16-17-18-20-23(26)24-21-19-22-25(2)3/h4-22H2,1-3H3,(H,24,26)",
        "InChIKey": null,
        "Canonical SMILES": "O=C(NCCCN(C)C)CCCCCCCCCCCCCCCCC",
        "Molecular Formula": "C<sub>23</sub>H<sub>48</sub>N<sub>2</sub>O",
        "Molecular Mass": "368.64",
        "Boiling Point": "208-215 °C @ Press: 1-2 Torr",
        "Melting Point": "49-50 °C"
    }
}