{
    "cas_no": "404951-53-7",
    "key_name": "Dacinostat",
    "cn_name": null,
    "alternate_name": "2-Propenamide, <em>N</em>-hydroxy-3-[4-[[(2-hydroxyethyl)[2-(1<em>H</em>-indol-3-yl)ethyl]amino]methyl]phenyl]-, (2<em>E</em>)-;(2<em>E</em>)-<em>N</em>-Hydroxy-3-[4-[[(2-hydroxyethyl)[2-(1<em>H</em>-indol-3-yl)ethyl]amino]methyl]phenyl]-2-propenamide;Dacinostat;NVP-LAQ 824",
    "duplicated_cas_no": "",
    "SMILES": "C(CN(CC1=CC=C(/C=C/C(NO)=O)C=C1)CCO)C=2C=3C(NC2)=CC=CC3",
    "meta_data": {
        "InChI": "InChI=1S/C22H25N3O3/c26-14-13-25(12-11-19-15-23-21-4-2-1-3-20(19)21)16-18-7-5-17(6-8-18)9-10-22(27)24-28/h1-10,15,23,26,28H,11-14,16H2,(H,24,27)/b10-9+",
        "InChIKey": null,
        "Canonical SMILES": "O=C(C=CC1=CC=C(C=C1)CN(CCO)CCC2=CNC=3C=CC=CC32)NO",
        "Molecular Formula": "C<sub>22</sub>H<sub>25</sub>N<sub>3</sub>O<sub>3</sub>",
        "Molecular Mass": "379.45",
        "Melting Point": "100-103 °C"
    }
}