{
    "cas_no": "21800-83-9",
    "key_name": "13-Ethylgon-4-ene-3,17-dione",
    "cn_name": "左旋乙基甾烯二酮;18-甲基-4-雌烯-3,17-二酮;",
    "alternate_name": "Gon-4-ene-3,17-dione, 13-ethyl-;13-Ethylgon-4-ene-3,17-dione;13β-Ethylgon-4-en-3,17-dione;(+)-13-Ethylgon-4-ene-3,17-dione;13β-Ethylgon-4-ene-3,17-dione;18-Methyl-19-norandrost-4-ene-3,17-dione;(+)-13β-Ethylgon-4-ene-3,17-dione;18-Methylestr-4-ene-3,17-dione;18a-Homo-19-norandrost-4-ene-3,17-dione",
    "duplicated_cas_no": "",
    "SMILES": "C(C)[C@@]12[C@]([C@]3([C@](CC1)([C@@]4(C(CC3)=CC(=O)CC4)[H])[H])[H])(CCC2=O)[H]",
    "meta_data": {
        "InChI": "InChI=1S/C19H26O2/c1-2-19-10-9-15-14-6-4-13(20)11-12(14)3-5-16(15)17(19)7-8-18(19)21/h11,14-17H,2-10H2,1H3/t14-,15+,16+,17-,19-/m0/s1",
        "InChIKey": null,
        "Canonical SMILES": "O=C1C=C2CCC3C(CCC4(C(=O)CCC34)CC)C2CC1",
        "Molecular Formula": "C<sub>19</sub>H<sub>26</sub>O<sub>2</sub>",
        "Molecular Mass": "286.41",
        "Melting Point": "175-176 °C"
    }
}