{
    "cas_no": "1120-36-1",
    "key_name": "1-Tetradecene",
    "cn_name": null,
    "alternate_name": "1-Tetradecene;<em>n</em>-Tetradec-1-ene;α-Tetradecene;1-Butadecene;Dialen 14;Neodene 14;NeoSolv 4;NSC 66434;Linealene 14",
    "duplicated_cas_no": "",
    "SMILES": "C(CCCCCC=C)CCCCCC",
    "meta_data": {
        "InChI": "InChI=1S/C14H28/c1-3-5-7-9-11-13-14-12-10-8-6-4-2/h3H,1,4-14H2,2H3",
        "InChIKey": null,
        "Canonical SMILES": "C=CCCCCCCCCCCCC",
        "Molecular Formula": "C<sub>14</sub>H<sub>28</sub>",
        "Molecular Mass": "196.37",
        "Boiling Point": "232-234 °C @ Press: 760 Torr",
        "Melting Point": "-12 °C",
        "Density": "0.7745 g/cm³ @ Temp: 20 °C"
    }
}