{
    "cas_no": "2504-55-4",
    "key_name": "3′-Amino-3′-deoxyadenosine",
    "cn_name": null,
    "alternate_name": "Adenosine, 3′-amino-3′-deoxy-;3′-Amino-3′-deoxyadenosine;NSC 18192;2: PN: WO2005024018 PAGE: 53 claimed sequence",
    "duplicated_cas_no": "",
    "SMILES": "O[C@H]1[C@H](N2C=3C(N=C2)=C(N)N=CN3)O[C@H](CO)[C@H]1N",
    "meta_data": {
        "InChI": "InChI=1S/C10H14N6O3/c11-5-4(1-17)19-10(7(5)18)16-3-15-6-8(12)13-2-14-9(6)16/h2-5,7,10,17-18H,1,11H2,(H2,12,13,14)/t4-,5-,7-,10-/m1/s1",
        "InChIKey": null,
        "Canonical SMILES": "OCC1OC(N2C=NC=3C(=NC=NC32)N)C(O)C1N",
        "Molecular Formula": "C<sub>10</sub>H<sub>14</sub>N<sub>6</sub>O<sub>3</sub>",
        "Molecular Mass": "266.26",
        "Melting Point": "260-261 °C"
    }
}