{
    "cas_no": "601-88-7",
    "key_name": "1,3-Dichloro-2-nitrobenzene",
    "cn_name": "2,6-二氯硝基苯;1,3-二氯-2-硝基苯;",
    "alternate_name": "Benzene, 1,3-dichloro-2-nitro-;1,3-Dichloro-2-nitrobenzene;2,6-Dichloronitrobenzene;2,6-Dichloro-1-nitrobenzene",
    "duplicated_cas_no": "",
    "SMILES": "N(=O)(=O)C1=C(Cl)C=CC=C1Cl",
    "meta_data": {
        "InChI": "InChI=1S/C6H3Cl2NO2/c7-4-2-1-3-5(8)6(4)9(10)11/h1-3H",
        "InChIKey": null,
        "Canonical SMILES": "O=N(=O)C=1C(Cl)=CC=CC1Cl",
        "Molecular Formula": "C<sub>6</sub>H<sub>3</sub>Cl<sub>2</sub>NO<sub>2</sub>",
        "Molecular Mass": "192.00",
        "Boiling Point": "130 °C @ Press: 8.3 Torr",
        "Melting Point": "72.5 °C",
        "Density": "1.6 g/cm³"
    }
}