{
    "cas_no": "84793-24-8",
    "key_name": "Ethyl (α<em>S</em>,4<em>S</em>)-4-methyl-2,5-dioxo-α-(2-phenylethyl)-3-oxazolidineacetate",
    "cn_name": "N-[1-(S)-乙氧羰基-3-苯丙基]-L-丙氨酸-N-羧基酸酐;",
    "alternate_name": "3-Oxazolidineacetic acid, 4-methyl-2,5-dioxo-α-(2-phenylethyl)-, ethyl ester, (α<em>S</em>,4<em>S</em>)-;3-Oxazolidineacetic acid, 4-methyl-2,5-dioxo-α-(2-phenylethyl)-, ethyl ester, [<em>S</em>-(<em>R</em>*,<em>R</em>*)]-;Ethyl (α<em>S</em>,4<em>S</em>)-4-methyl-2,5-dioxo-α-(2-phenylethyl)-3-oxazolidineacetate;<em>N</em>-[1(<em>S</em>)-Ethoxycarbonyl-3-phenylpropyl]-<span class=\"text-smallcaps\">L</span>-alanine <em>N</em>-carboxyanhydride;<em>N</em>-((<em>S</em>)-1-Ethoxycarbonyl-3-phenylpropyl)-<span class=\"text-smallcaps\">L</span>-alanine-<em>N</em>-carboxylic anhydride",
    "duplicated_cas_no": "",
    "SMILES": "[C@@H](C(OCC)=O)(CCC1=CC=CC=C1)N2[C@@H](C)C(=O)OC2=O",
    "meta_data": {
        "InChI": "InChI=1S/C16H19NO5/c1-3-21-15(19)13(10-9-12-7-5-4-6-8-12)17-11(2)14(18)22-16(17)20/h4-8,11,13H,3,9-10H2,1-2H3/t11-,13-/m0/s1",
        "InChIKey": null,
        "Canonical SMILES": "O=C1OC(=O)C(N1C(C(=O)OCC)CCC=2C=CC=CC2)C",
        "Molecular Formula": "C<sub>16</sub>H<sub>19</sub>NO<sub>5</sub>",
        "Molecular Mass": "305.33",
        "Melting Point": "70-72 °C"
    }
}