{
    "cas_no": "2362-64-3",
    "key_name": "4-Methoxybenzenecarbothioamide",
    "cn_name": null,
    "alternate_name": "Benzenecarbothioamide, 4-methoxy-;<em>p</em>-Anisamide, thio-;4-Methoxybenzenecarbothioamide;<em>p</em>-Methoxythiobenzamide;4-Methoxythiobenzamide;<em>p</em>-Methoxybenzothiamide;Thio-<em>p</em>-anisamide;4-Methoxybenzothioamide",
    "duplicated_cas_no": "",
    "SMILES": "C(N)(=S)C1=CC=C(OC)C=C1",
    "meta_data": {
        "InChI": "InChI=1S/C8H9NOS/c1-10-7-4-2-6(3-5-7)8(9)11/h2-5H,1H3,(H2,9,11)",
        "InChIKey": null,
        "Canonical SMILES": "S=C(N)C1=CC=C(OC)C=C1",
        "Molecular Formula": "C<sub>8</sub>H<sub>9</sub>NOS",
        "Molecular Mass": "167.23",
        "Melting Point": "154 °C"
    }
}