{
    "cas_no": "62435-71-6",
    "key_name": "2-(Ethoxymethyl)tetrahydrofuran",
    "cn_name": "2-(乙氧甲基)四氢呋喃;乙基四氢糠基醚;",
    "alternate_name": "Furan, 2-(ethoxymethyl)tetrahydro-;2-(Ethoxymethyl)tetrahydrofuran;Ethyl tetrahydrofurfuryl ether;NSC 93907;Ethyl tetrahydrofurfury ether;2-(Ethoxymethyl)oxolane",
    "duplicated_cas_no": "",
    "SMILES": "C(OCC)C1CCCO1",
    "meta_data": {
        "InChI": "InChI=1S/C7H14O2/c1-2-8-6-7-4-3-5-9-7/h7H,2-6H2,1H3",
        "InChIKey": null,
        "Canonical SMILES": "O(CC)CC1OCCC1",
        "Molecular Formula": "C<sub>7</sub>H<sub>14</sub>O<sub>2</sub>",
        "Molecular Mass": "130.18",
        "Boiling Point": "152-154 °C @ Press: 723 Torr",
        "Density": "0.9386 g/cm³ @ Temp: 20 °C"
    }
}