{
    "cas_no": "45644-21-1",
    "key_name": "6-Chloro-2-pyridinamine",
    "cn_name": "2-氨基-6-氯吡啶;",
    "alternate_name": "2-Pyridinamine, 6-chloro-;Pyridine, 2-amino-6-chloro-;6-Chloro-2-pyridinamine;2-Amino-6-chloropyridine;2-Chloro-6-aminopyridine;6-Amino-2-chloropyridine;(6-Chloropyridin-2-yl)amine;6-Chloro-2-aminopyridine",
    "duplicated_cas_no": "",
    "SMILES": "ClC=1N=C(N)C=CC1",
    "meta_data": {
        "InChI": "InChI=1S/C5H5ClN2/c6-4-2-1-3-5(7)8-4/h1-3H,(H2,7,8)",
        "InChIKey": null,
        "Canonical SMILES": "ClC=1N=C(N)C=CC1",
        "Molecular Formula": "C<sub>5</sub>H<sub>5</sub>ClN<sub>2</sub>",
        "Molecular Mass": "128.56",
        "Melting Point": "75 °C"
    }
}