{
    "cas_no": "10085-81-1",
    "key_name": "Benzoctamine hydrochloride",
    "cn_name": null,
    "alternate_name": "9,10-Ethanoanthracene-9(10<em>H</em>)-methanamine, <em>N</em>-methyl-, hydrochloride (1:1);9,10-Ethanoanthracene-9(10<em>H</em>)-methylamine, <em>N</em>-methyl-, hydrochloride;9,10-Ethanoanthracene-9(10<em>H</em>)-methanamine, <em>N</em>-methyl-, hydrochloride;Benzoctamine hydrochloride;Tacitin;9-(Methylaminomethyl)-9,10-dihydro-9,10-ethanoanthracene hydrochloride;Ba-30803;Tracitin",
    "duplicated_cas_no": "5055-00-5",
    "SMILES": "C(NC)C12C=3C(C(C=4C1=CC=CC4)CC2)=CC=CC3.Cl",
    "meta_data": {
        "InChI": "InChI=1S/C18H19N.ClH/c1-19-12-18-11-10-13(14-6-2-4-8-16(14)18)15-7-3-5-9-17(15)18;/h2-9,13,19H,10-12H2,1H3;1H",
        "InChIKey": null,
        "Canonical SMILES": "Cl.C=1C=CC2=C(C1)C3C=4C=CC=CC4C2(CNC)CC3",
        "Molecular Formula": "C<sub>18</sub>H<sub>19</sub>N.ClH",
        "Molecular Mass": "",
        "Melting Point": "320-322 °C"
    }
}