{
    "cas_no": "88398-53-2",
    "key_name": "1,3-Dimethyl-1<em>H</em>-pyrazole-4-sulfonamide",
    "cn_name": null,
    "alternate_name": "1<em>H</em>-Pyrazole-4-sulfonamide, 1,3-dimethyl-;1,3-Dimethyl-1<em>H</em>-pyrazole-4-sulfonamide;1,3-Dimethylpyrazole-4-sulfonamide",
    "duplicated_cas_no": "",
    "SMILES": "S(N)(=O)(=O)C=1C(C)=NN(C)C1",
    "meta_data": {
        "InChI": "InChI=1S/C5H9N3O2S/c1-4-5(11(6,9)10)3-8(2)7-4/h3H,1-2H3,(H2,6,9,10)",
        "InChIKey": null,
        "Canonical SMILES": "O=S(=O)(N)C1=CN(N=C1C)C",
        "Molecular Formula": "C<sub>5</sub>H<sub>9</sub>N<sub>3</sub>O<sub>2</sub>S",
        "Molecular Mass": "175.21",
        "Melting Point": "97-105 °C"
    }
}