{
    "cas_no": "3457-46-3",
    "key_name": "4,4′-Dichlorobenzil",
    "cn_name": "4,4\"-二氯苯偶酰;1,2-双(4-氯苯)-1,2-乙二酮;",
    "alternate_name": "1,2-Ethanedione, 1,2-bis(4-chlorophenyl)-;Benzil, 4,4′-dichloro-;Ethanedione, bis(4-chlorophenyl)-;1,2-Bis(4-chlorophenyl)-1,2-ethanedione;4,4′-Dichlorobenzil;4,4′-Dichlorodibenzoyl;Bis(<em>p</em>-chlorophenyl)ethanedione;<em>p</em>,<em>p</em>′-Dichlorobenzil;NSC 274;Bis(4-chlorophenyl)ethanedione;1,2-Bis(4-chlorophenyl)ethane-1,2-dione;1,2-Bis(4-chlorophenyl)ethanedione;1,2-Bis(4-chlorophenyl)ethandione",
    "duplicated_cas_no": "",
    "SMILES": "C(C(=O)C1=CC=C(Cl)C=C1)(=O)C2=CC=C(Cl)C=C2",
    "meta_data": {
        "InChI": "InChI=1S/C14H8Cl2O2/c15-11-5-1-9(2-6-11)13(17)14(18)10-3-7-12(16)8-4-10/h1-8H",
        "InChIKey": null,
        "Canonical SMILES": "O=C(C(=O)C1=CC=C(Cl)C=C1)C2=CC=C(Cl)C=C2",
        "Molecular Formula": "C<sub>14</sub>H<sub>8</sub>Cl<sub>2</sub>O<sub>2</sub>",
        "Molecular Mass": "279.12",
        "Melting Point": "196-197 °C"
    }
}