{
    "cas_no": "443914-95-2",
    "key_name": "2-Bromo-1-(4-fluoro-3-methoxyphenyl)ethanone",
    "cn_name": null,
    "alternate_name": "Ethanone, 2-bromo-1-(4-fluoro-3-methoxyphenyl)-;2-Bromo-1-(4-fluoro-3-methoxyphenyl)ethanone;2-Bromo-4′-fluoro-3′-methoxyacetophenone;2-Bromo-1-(4-fluoro-3-methoxyphenyl)ethan-1-one",
    "duplicated_cas_no": "",
    "SMILES": "C(CBr)(=O)C1=CC(OC)=C(F)C=C1",
    "meta_data": {
        "InChI": "InChI=1S/C9H8BrFO2/c1-13-9-4-6(8(12)5-10)2-3-7(9)11/h2-4H,5H2,1H3",
        "InChIKey": null,
        "Canonical SMILES": "O=C(C1=CC=C(F)C(OC)=C1)CBr",
        "Molecular Formula": "C<sub>9</sub>H<sub>8</sub>BrFO<sub>2</sub>",
        "Molecular Mass": "247.06",
        "Melting Point": "76 °C"
    }
}