{
    "cas_no": "558-96-3",
    "key_name": "1-Bromo-1,1,2,2,3,3,4,4,5,5,6,6,7,7,8,8,9,9,9-nonadecafluorononane",
    "cn_name": "1-溴全氟壬烷;",
    "alternate_name": "Nonane, 1-bromo-1,1,2,2,3,3,4,4,5,5,6,6,7,7,8,8,9,9,9-nonadecafluoro-;Nonane, 1-bromononadecafluoro-;1-Bromo-1,1,2,2,3,3,4,4,5,5,6,6,7,7,8,8,9,9,9-nonadecafluorononane;Perfluorononyl bromide;1-Bromoperfluorononane",
    "duplicated_cas_no": "",
    "SMILES": "C(C(C(C(C(Br)(F)F)(F)F)(F)F)(F)F)(C(C(C(C(F)(F)F)(F)F)(F)F)(F)F)(F)F",
    "meta_data": {
        "InChI": "InChI=1S/C9BrF19/c10-8(25,26)6(21,22)4(17,18)2(13,14)1(11,12)3(15,16)5(19,20)7(23,24)9(27,28)29",
        "InChIKey": null,
        "Canonical SMILES": "FC(F)(F)C(F)(F)C(F)(F)C(F)(F)C(F)(F)C(F)(F)C(F)(F)C(F)(F)C(F)(F)Br",
        "Molecular Formula": "C<sub>9</sub>BrF<sub>19</sub>",
        "Molecular Mass": "548.97",
        "Boiling Point": "159 °C"
    }
}