{
    "cas_no": "41078-70-0",
    "key_name": "3-(2-Chloroethyl)-2-methyl-4<em>H</em>-pyrido[1,2-<em>a</em>]pyrimidin-4-one",
    "cn_name": "3-(2-氯乙基)-2-甲基吡啶并[1,2-a]嘧啶-4-酮;",
    "alternate_name": "4<em>H</em>-Pyrido[1,2-<em>a</em>]pyrimidin-4-one, 3-(2-chloroethyl)-2-methyl-;3-(2-Chloroethyl)-2-methyl-4<em>H</em>-pyrido[1,2-<em>a</em>]pyrimidin-4-one;3-(2-Chloroethyl)-2-methylpyrido[1,2-<em>a</em>]pyrimidin-4-one",
    "duplicated_cas_no": "",
    "SMILES": "O=C1N2C(=NC(C)=C1CCCl)C=CC=C2",
    "meta_data": {
        "InChI": "InChI=1S/C11H11ClN2O/c1-8-9(5-6-12)11(15)14-7-3-2-4-10(14)13-8/h2-4,7H,5-6H2,1H3",
        "InChIKey": null,
        "Canonical SMILES": "O=C1C(=C(N=C2C=CC=CN12)C)CCCl",
        "Molecular Formula": "C<sub>11</sub>H<sub>11</sub>ClN<sub>2</sub>O",
        "Molecular Mass": "222.67",
        "Melting Point": "140-142 °C"
    }
}