{
    "cas_no": "139-02-6",
    "key_name": "Sodium phenoxide",
    "cn_name": "苯酚钠;苯氧基钠;",
    "alternate_name": "Phenol, sodium salt (1:1);Sodium phenoxide;Phenol, sodium salt;Phenol sodium;Sodium carbolate;Sodium phenate;Sodium phenolate;Sodium phenylate",
    "duplicated_cas_no": "860383-26-2;2097263-74-4",
    "SMILES": "OC1=CC=CC=C1.[Na]",
    "meta_data": {
        "InChI": "InChI=1S/C6H6O.Na/c7-6-4-2-1-3-5-6;/h1-5,7H;",
        "InChIKey": null,
        "Canonical SMILES": "[Na].OC=1C=CC=CC1",
        "Molecular Formula": "C<sub>6</sub>H<sub>6</sub>O.Na",
        "Molecular Mass": "",
        "Melting Point": "59-60 °C",
        "Density": "0.898 g/cm³"
    }
}