{
    "cas_no": "18595-14-7",
    "key_name": "Methyl 4-amino-3-methylbenzoate",
    "cn_name": "4-氨基-3-甲基苯甲酸甲酯;",
    "alternate_name": "Benzoic acid, 4-amino-3-methyl-, methyl ester;<em>m</em>-Toluic acid, 4-amino-, methyl ester;Methyl 4-amino-3-methylbenzoate;(4-(Methoxycarbonyl)-2-methylphenyl)amine;Methyl 3-methyl-4-aminobenzoate;4-Amino-3-methylbenzoic acid methyl ester",
    "duplicated_cas_no": "",
    "SMILES": "C(OC)(=O)C1=CC(C)=C(N)C=C1",
    "meta_data": {
        "InChI": "InChI=1S/C9H11NO2/c1-6-5-7(9(11)12-2)3-4-8(6)10/h3-5H,10H2,1-2H3",
        "InChIKey": null,
        "Canonical SMILES": "O=C(OC)C1=CC=C(N)C(=C1)C",
        "Molecular Formula": "C<sub>9</sub>H<sub>11</sub>NO<sub>2</sub>",
        "Molecular Mass": "165.19",
        "Melting Point": "62-62.5 °C"
    }
}