{
    "cas_no": "654-42-2",
    "key_name": "2,6-Dimethylhydroquinone",
    "cn_name": "2,6-二甲基对苯二酚;2,6-二甲基对苯二酚;",
    "alternate_name": "1,4-Benzenediol, 2,6-dimethyl-;Hydroquinone, 2,6-dimethyl-;2,6-Dimethyl-1,4-benzenediol;<em>m</em>-XHQ;<em>m</em>-Xylohydroquinone;<em>m</em>-Xylene-2,5-diol;2,6-Dimethylhydroquinone;2,6-Xylohydroquinone;2,6-Dimethyl-<em>p</em>-benzohydroquinone;2,6-Xyloquinol;3,5-Dimethylhydroquinone;1,4-Dihydroxy-2,6-dimethylbenzene;2,6-Dimethyl-1,4-hydroquinone;NSC 36868;2,6-Dimethyl-4-hydroxyphenol",
    "duplicated_cas_no": "1924667-57-1",
    "SMILES": "OC1=C(C)C=C(O)C=C1C",
    "meta_data": {
        "InChI": "InChI=1S/C8H10O2/c1-5-3-7(9)4-6(2)8(5)10/h3-4,9-10H,1-2H3",
        "InChIKey": null,
        "Canonical SMILES": "OC=1C=C(C(O)=C(C1)C)C",
        "Molecular Formula": "C<sub>8</sub>H<sub>10</sub>O<sub>2</sub>",
        "Molecular Mass": "138.16",
        "Melting Point": "144-147.5 °C"
    }
}