{
    "cas_no": "765-13-9",
    "key_name": "1-Pentadecyne",
    "cn_name": "1-十五炔;",
    "alternate_name": "1-Pentadecyne",
    "duplicated_cas_no": "",
    "SMILES": "C(CCCCCCC)CCCCCC#C",
    "meta_data": {
        "InChI": "InChI=1S/C15H28/c1-3-5-7-9-11-13-15-14-12-10-8-6-4-2/h1H,4-15H2,2H3",
        "InChIKey": null,
        "Canonical SMILES": "C#CCCCCCCCCCCCCC",
        "Molecular Formula": "C<sub>15</sub>H<sub>28</sub>",
        "Molecular Mass": "208.38",
        "Boiling Point": "268 °C",
        "Melting Point": "10 °C"
    }
}