{
    "cas_no": "53-60-1",
    "key_name": "Promazine hydrochloride",
    "cn_name": "盐酸丙嗪;N,N-二甲基-10H-吩噻嗪-10-丙胺盐酸盐;",
    "alternate_name": "10<em>H</em>-Phenothiazine-10-propanamine, <em>N</em>,<em>N</em>-dimethyl-, hydrochloride (1:1);Phenothiazine, 10-[3-(dimethylamino)propyl]-, monohydrochloride;10<em>H</em>-Phenothiazine-10-propanamine, <em>N</em>,<em>N</em>-dimethyl-, monohydrochloride;10-(γ-Dimethylamino-<em>n</em>-propyl)phenothiazine hydrochloride;Promazine hydrochloride;Esparinal;Sparine;Promazine monohydrochloride;Propazin (pharmaceutical);Propazine;Propazin;Promwill;Talofen;Liranol;Prolactyl;Prozine",
    "duplicated_cas_no": "",
    "SMILES": "C(CCN(C)C)N1C=2C(SC=3C1=CC=CC3)=CC=CC2.Cl",
    "meta_data": {
        "InChI": "InChI=1S/C17H20N2S.ClH/c1-18(2)12-7-13-19-14-8-3-5-10-16(14)20-17-11-6-4-9-15(17)19;/h3-6,8-11H,7,12-13H2,1-2H3;1H",
        "InChIKey": null,
        "Canonical SMILES": "Cl.S1C=2C=CC=CC2N(C=3C=CC=CC13)CCCN(C)C",
        "Molecular Formula": "C<sub>17</sub>H<sub>20</sub>N<sub>2</sub>S.ClH",
        "Molecular Mass": "",
        "Melting Point": "181 °C (decomp)"
    }
}