{
    "cas_no": "7789-17-5",
    "key_name": "Cesium iodide",
    "cn_name": null,
    "alternate_name": "Cesium iodide (CsI);Cesium monoiodide;Cesium iodide;NSC 15199",
    "duplicated_cas_no": "12285-55-1;12527-22-9;186348-85-6;1200479-98-6;1655512-25-6",
    "SMILES": "[Cs]I",
    "meta_data": {
        "InChI": "InChI=1S/Cs.HI/h;1H/q+1;/p-1",
        "InChIKey": null,
        "Canonical SMILES": "I[Cs]",
        "Molecular Formula": "CsI",
        "Molecular Mass": "",
        "Boiling Point": "1300 °C",
        "Melting Point": "621 °C",
        "Density": "3.2 g/cm³ (liquid) @ Temp: ~621 °C"
    }
}