{
    "cas_no": "10191-41-0",
    "key_name": "<span class=\"text-smallcaps\">D</smallcap><smallcap>L</span>-α-Tocopherol",
    "cn_name": "维生素E;DL-alpha-生育酚;3,4-二氢-2,5,7,8-四甲基-2-(4,8,12-三甲基十三烷基)-6-色满醇;",
    "alternate_name": "2<em>H</em>-1-Benzopyran-6-ol, 3,4-dihydro-2,5,7,8-tetramethyl-2-(4,8,12-trimethyltridecyl)-;6-Chromanol, 2,5,7,8-tetramethyl-2-(4,8,12-trimethyltridecyl)-;3,4-Dihydro-2,5,7,8-tetramethyl-2-(4,8,12-trimethyltridecyl)-2<em>H</em>-1-benzopyran-6-ol;<em>dl</em>-α-Tocopherol;(±)-α-Tocopherol;Ephanyl;<span class=\"text-smallcaps\">D</smallcap><smallcap>L</span>-α-Tocopherol;<em>all</em>-<em>rac</em>-α-Tocopherol;Ronotec DF 120;Ronotec 201;Rac-α-Tocopherol;Ronotec 202;3,4-Dihydro-2,5,7,8-tetramethyl-2-(4,8,12-trimethyltridecyl)-2<em>H</em>-benzopyran-6-ol;Uvinul 2000AO;Elementol B;Elementol R;Elementol Basic;Irganox E 210;2,5,7,8-Tetramethyl-2-(4′,8′,12′-trimethyltridecyl)chroman-6-ol;2,5,7,8-Tetramethyl-2-(4,8,12-trimethyltridecyl)chroman-6-ol;Irganox LE 307",
    "duplicated_cas_no": "364-50-1;4072-33-7;16826-11-2;25094-97-7;181591-70-8",
    "SMILES": "CC1=C2C(CCC(CCCC(CCCC(CCCC(C)C)C)C)(C)O2)=C(C)C(O)=C1C",
    "meta_data": {
        "InChI": "InChI=1S/C29H50O2/c1-20(2)12-9-13-21(3)14-10-15-22(4)16-11-18-29(8)19-17-26-25(7)27(30)23(5)24(6)28(26)31-29/h20-22,30H,9-19H2,1-8H3",
        "InChIKey": null,
        "Canonical SMILES": "OC=1C(=C(C=2OC(C)(CCC2C1C)CCCC(C)CCCC(C)CCCC(C)C)C)C",
        "Molecular Formula": "C<sub>29</sub>H<sub>50</sub>O<sub>2</sub>",
        "Molecular Mass": "430.71",
        "Boiling Point": "205-210 °C @ Press: 0.02 Torr",
        "Melting Point": "94-94.5 °C"
    }
}