{
    "cas_no": "59608-97-8",
    "key_name": "2-Thiazolamine, 4-(chloromethyl)-, hydrochloride (1:1)",
    "cn_name": "2-氨基-4-氯甲基噻唑盐酸盐;",
    "alternate_name": "2-Thiazolamine, 4-(chloromethyl)-, hydrochloride (1:1);2-Thiazolamine, 4-(chloromethyl)-, monohydrochloride;4-(Chloromethyl)-2-thiazolamine hydrochloride;4-(Chloromethyl)-1,3-thiazol-2-ylamine hydrochloride;4-(Chloromethyl)thiazol-2-ylamine hydrochloride;2-Amino-4-chloromethylthiazole monohydrochloride",
    "duplicated_cas_no": "",
    "SMILES": "C(Cl)C=1N=C(N)SC1.Cl",
    "meta_data": {
        "InChI": "InChI=1S/C4H5ClN2S.ClH/c5-1-3-2-8-4(6)7-3;/h2H,1H2,(H2,6,7);1H",
        "InChIKey": null,
        "Canonical SMILES": "Cl.ClCC=1N=C(SC1)N",
        "Molecular Formula": "C<sub>4</sub>H<sub>5</sub>ClN<sub>2</sub>S.ClH",
        "Molecular Mass": "",
        "Melting Point": "141-143 °C"
    }
}