{
    "cas_no": "4704-77-2",
    "key_name": "3-Bromo-1,2-propanediol",
    "cn_name": "3-溴-1,2-丙二醇;3-溴-1,2-并二酚;3-溴-1,2-丙烷二醇;",
    "alternate_name": "1,2-Propanediol, 3-bromo-;3-Bromo-1,2-propanediol;Glycerol α-bromohydrin;1-Bromo-2,3-propanediol;1-Bromo-2,3-dihydroxypropane;α-Bromohydrin;Glycerol bromohydrin;1-Bromo-1-deoxyglycerol;2,3-Dihydroxy-1-bromopropane;<span class=\"text-smallcaps\">DL</span>-Glycerol 1-bromohydrin;3-Bromo-1,2-dihydroxypropane;(±)-Glycerol 1-bromohydrin;3-Bromo-1,2-propandiol",
    "duplicated_cas_no": "34637-21-3",
    "SMILES": "C(CBr)(CO)O",
    "meta_data": {
        "InChI": "InChI=1S/C3H7BrO2/c4-1-3(6)2-5/h3,5-6H,1-2H2",
        "InChIKey": null,
        "Canonical SMILES": "BrCC(O)CO",
        "Molecular Formula": "C<sub>3</sub>H<sub>7</sub>BrO<sub>2</sub>",
        "Molecular Mass": "154.99",
        "Boiling Point": "134 °C @ Press: 16 Torr",
        "Density": "1.7591 g/cm³ @ Temp: 25 °C"
    }
}