{
    "cas_no": "613-12-7",
    "key_name": "2-Methylanthracene",
    "cn_name": null,
    "alternate_name": "Anthracene, 2-methyl-;2-Methylanthracene;NSC 87376",
    "duplicated_cas_no": "",
    "SMILES": "CC1=CC2=C(C=C3C(=C2)C=CC=C3)C=C1",
    "meta_data": {
        "InChI": "InChI=1S/C15H12/c1-11-6-7-14-9-12-4-2-3-5-13(12)10-15(14)8-11/h2-10H,1H3",
        "InChIKey": null,
        "Canonical SMILES": "C=1C=CC=2C=C3C=C(C=CC3=CC2C1)C",
        "Molecular Formula": "C<sub>15</sub>H<sub>12</sub>",
        "Molecular Mass": "192.26",
        "Boiling Point": "344.4 °C",
        "Melting Point": "209 °C"
    }
}