{
    "cas_no": "59189-51-4",
    "key_name": "(2,6-Difluorophenyl)phenylmethanone",
    "cn_name": "2,6-二氟苯甲酮;2,6-二氟二苯甲酮;2,6-二氟苯甲酮;",
    "alternate_name": "Methanone, (2,6-difluorophenyl)phenyl-;(2,6-Difluorophenyl)phenylmethanone;2,6-Difluorobenzophenone;(2,6-Difluorophenyl)(phenyl)methanone",
    "duplicated_cas_no": "",
    "SMILES": "C(=O)(C1=C(F)C=CC=C1F)C2=CC=CC=C2",
    "meta_data": {
        "InChI": "InChI=1S/C13H8F2O/c14-10-7-4-8-11(15)12(10)13(16)9-5-2-1-3-6-9/h1-8H",
        "InChIKey": null,
        "Canonical SMILES": "O=C(C=1C=CC=CC1)C=2C(F)=CC=CC2F",
        "Molecular Formula": "C<sub>13</sub>H<sub>8</sub>F<sub>2</sub>O",
        "Molecular Mass": "218.20",
        "Melting Point": "134-136 °C"
    }
}