{
    "cas_no": "2485-71-4",
    "key_name": "13-Methyltetradecanoic acid",
    "cn_name": "13-甲基十四烷酸;13-甲基十四烷酸;",
    "alternate_name": "Tetradecanoic acid, 13-methyl-;13-Methyltetradecanoic acid;Subtilopentadecanoic acid;Isopentadecanoic acid;13-Methylmyristic acid",
    "duplicated_cas_no": "1083246-07-4",
    "SMILES": "C(CC(C)C)CCCCCCCCCC(O)=O",
    "meta_data": {
        "InChI": "InChI=1S/C15H30O2/c1-14(2)12-10-8-6-4-3-5-7-9-11-13-15(16)17/h14H,3-13H2,1-2H3,(H,16,17)",
        "InChIKey": null,
        "Canonical SMILES": "O=C(O)CCCCCCCCCCCC(C)C",
        "Molecular Formula": "C<sub>15</sub>H<sub>30</sub>O<sub>2</sub>",
        "Molecular Mass": "242.40",
        "Boiling Point": "189 °C @ Press: 12 Torr",
        "Melting Point": "50.2 °C"
    }
}