{
    "cas_no": "62265-68-3",
    "key_name": "Quinfamide",
    "cn_name": "喹法米特;1-(二氯乙酰基)-6-(2-呋喃甲酰氧基)-1,2,3,4-四氢喹啉;",
    "alternate_name": "2-Furancarboxylic acid, 1-(2,2-dichloroacetyl)-1,2,3,4-tetrahydro-6-quinolinyl ester;2-Furancarboxylic acid, 1-(dichloroacetyl)-1,2,3,4-tetrahydro-6-quinolinyl ester;Quinfamide;Win 40014;Amenide;Amenox;1-(2,2-Dichloroacetyl)-1,2,3,4-tetrahydroquinolin-6-yl furan-2-carboxylate",
    "duplicated_cas_no": "",
    "SMILES": "C(C(Cl)Cl)(=O)N1C=2C(=CC(OC(=O)C3=CC=CO3)=CC2)CCC1",
    "meta_data": {
        "InChI": "InChI=1S/C16H13Cl2NO4/c17-14(18)15(20)19-7-1-3-10-9-11(5-6-12(10)19)23-16(21)13-4-2-8-22-13/h2,4-6,8-9,14H,1,3,7H2",
        "InChIKey": null,
        "Canonical SMILES": "O=C(OC1=CC=C2C(=C1)CCCN2C(=O)C(Cl)Cl)C=3OC=CC3",
        "Molecular Formula": "C<sub>16</sub>H<sub>13</sub>Cl<sub>2</sub>NO<sub>4</sub>",
        "Molecular Mass": "354.18",
        "Melting Point": "150.5-151 °C"
    }
}