{
    "cas_no": "107-50-6",
    "key_name": "Tetradecamethylcycloheptasiloxane",
    "cn_name": null,
    "alternate_name": "Cycloheptasiloxane, 2,2,4,4,6,6,8,8,10,10,12,12,14,14-tetradecamethyl-;Cycloheptasiloxane, tetradecamethyl-;2,2,4,4,6,6,8,8,10,10,12,12,14,14-Tetradecamethylcycloheptasiloxane;Tetradecamethylcycloheptasiloxane",
    "duplicated_cas_no": "",
    "SMILES": "C[Si]1(C)O[Si](C)(C)O[Si](C)(C)O[Si](C)(C)O[Si](C)(C)O[Si](C)(C)O[Si](C)(C)O1",
    "meta_data": {
        "InChI": "InChI=1S/C14H42O7Si7/c1-22(2)15-23(3,4)17-25(7,8)19-27(11,12)21-28(13,14)20-26(9,10)18-24(5,6)16-22/h1-14H3",
        "InChIKey": null,
        "Canonical SMILES": "O1[Si](O[Si](O[Si](O[Si](O[Si](O[Si](O[Si]1(C)C)(C)C)(C)C)(C)C)(C)C)(C)C)(C)C",
        "Molecular Formula": "C<sub>14</sub>H<sub>42</sub>O<sub>7</sub>Si<sub>7</sub>",
        "Molecular Mass": "519.08",
        "Boiling Point": "154 °C",
        "Melting Point": "-26 °C",
        "Density": "0.9664 g/cm³ @ Temp: 25 °C"
    }
}