{
    "cas_no": "25339-17-7",
    "key_name": "Isodecanol",
    "cn_name": "异癸醇;",
    "alternate_name": "Isodecanol;Isodecyl alcohol;Exxal 10",
    "duplicated_cas_no": "12758-52-0;50973-08-5",
    "SMILES": "",
    "meta_data": {
        "InChI": "",
        "InChIKey": null,
        "Canonical SMILES": "",
        "Molecular Formula": "C<sub>10</sub>H<sub>22</sub>O",
        "Molecular Mass": "",
        "Boiling Point": "220 °C @ Press: 800 Torr",
        "Melting Point": "7 °C",
        "Density": "0.841 g/cm³ @ Temp: 20 °C"
    }
}