{
    "cas_no": "14986-21-1",
    "key_name": "Hexachlorodisiloxane",
    "cn_name": "六氯二硅氧烷;",
    "alternate_name": "Disiloxane, 1,1,1,3,3,3-hexachloro-;Disiloxane, hexachloro-;1,1,1,3,3,3-Hexachlorodisiloxane;Hexachlorodisiloxane;Silicon chloride oxide (Si<sub>2</sub>OCl<sub>6</sub>);Silicon oxychloride (Si<sub>2</sub>OCl<sub>6</sub>);Trichloro(trichlorosiloxo)silane;Bis(trichlorosilyl) oxide;Bis(trichlorosilyl) ether;Perchlorodisiloxane",
    "duplicated_cas_no": "246228-72-8",
    "SMILES": "O([Si](Cl)(Cl)Cl)[Si](Cl)(Cl)Cl",
    "meta_data": {
        "InChI": "InChI=1S/Cl6OSi2/c1-8(2,3)7-9(4,5)6",
        "InChIKey": null,
        "Canonical SMILES": "Cl[Si](Cl)(Cl)O[Si](Cl)(Cl)Cl",
        "Molecular Formula": "Cl<sub>6</sub>OSi<sub>2</sub>",
        "Molecular Mass": "284.89",
        "Boiling Point": "137 °C",
        "Melting Point": "-33 °C",
        "Density": "1.575 g/cm³"
    }
}