{
    "cas_no": "1119-94-4",
    "key_name": "Dodecyltrimethylammonium bromide",
    "cn_name": "月桂基三甲基溴化铵;十二烷基三甲基溴化铵;乳化剂1232;",
    "alternate_name": "1-Dodecanaminium, <em>N</em>,<em>N</em>,<em>N</em>-trimethyl-, bromide (1:1);Ammonium, dodecyltrimethyl-, bromide;1-Dodecanaminium, <em>N</em>,<em>N</em>,<em>N</em>-trimethyl-, bromide;Dodecyltrimethylammonium bromide;<em>n</em>-Dodecyltrimethylammonium bromide;Lauryltrimethylammonium bromide;Morpan D;Trimethyldodecylammonium bromide;Trimethyllaurylammonium bromide;<em>N</em>,<em>N</em>,<em>N</em>-Trimethyl-1-dodecanaminium bromide;<em>N</em>-Lauryl-<em>N</em>,<em>N</em>,<em>N</em>-trimethylammonium bromide;Dctab;DTAB;DTAB (surfactant);FSM 23;<em>N</em>,<em>N</em>,<em>N</em>-Trimethyldodecan-1-ammonium bromide;LTAB;<em>N</em>-Dodecyl-<em>N</em>,<em>N</em>,<em>N</em>-trimethylammonium bromide;DDTMA;C 12TAB;C12TAB;Laurtrimonium bromide;TM 120 (quaternary compound);TM 120",
    "duplicated_cas_no": "157929-06-1;881682-61-7",
    "SMILES": "C(CCCCCCCCC)CC[N+](C)(C)C.[Br-]",
    "meta_data": {
        "InChI": "InChI=1S/C15H34N.BrH/c1-5-6-7-8-9-10-11-12-13-14-15-16(2,3)4;/h5-15H2,1-4H3;1H/q+1;/p-1",
        "InChIKey": null,
        "Canonical SMILES": "[Br-].CCCCCCCCCCCC[N+](C)(C)C",
        "Molecular Formula": "C<sub>15</sub>H<sub>34</sub>N.Br",
        "Molecular Mass": "",
        "Melting Point": "228-230 °C"
    }
}