{
    "cas_no": "6946-29-8",
    "key_name": "<em>p</em>-Aminosalicylic acid hydrazide",
    "cn_name": "4-氨基水杨酰肼;4-氨基-2-羟基苯甲酰肼;",
    "alternate_name": "Benzoic acid, 4-amino-2-hydroxy-, hydrazide;Salicylic acid, 4-amino-, hydrazide;<em>p</em>-Aminosalicylic acid hydrazide;4-Aminosalicylic acid hydrazide;Apacizin;Pasdrazide;PAS-Hydrazid;Apacizina;NSC 57125;4-Amino-2-hydroxybenzohydrazide",
    "duplicated_cas_no": "",
    "SMILES": "C(NN)(=O)C1=C(O)C=C(N)C=C1",
    "meta_data": {
        "InChI": "InChI=1S/C7H9N3O2/c8-4-1-2-5(6(11)3-4)7(12)10-9/h1-3,11H,8-9H2,(H,10,12)",
        "InChIKey": null,
        "Canonical SMILES": "O=C(NN)C1=CC=C(N)C=C1O",
        "Molecular Formula": "C<sub>7</sub>H<sub>9</sub>N<sub>3</sub>O<sub>2</sub>",
        "Molecular Mass": "167.17",
        "Melting Point": "195 °C"
    }
}