{
    "cas_no": "5762-56-1",
    "key_name": "<em>N</em>,<em>N</em>,<em>N</em>′,<em>N</em>′,<em>N</em>′′,<em>N</em>′′-Hexamethylmethanetriamine",
    "cn_name": "三(二甲氨基)甲烷;",
    "alternate_name": "Methanetriamine, <em>N</em>,<em>N</em>,<em>N</em>′,<em>N</em>′,<em>N</em>′′,<em>N</em>′′-hexamethyl-;<em>N</em>,<em>N</em>,<em>N</em>′,<em>N</em>′,<em>N</em>′′,<em>N</em>′′-Hexamethylmethanetriamine;Tris(dimethylamino)methane;Tris(<em>N</em>,<em>N</em>-dimethylamino)methane;[Bis(dimethylamino)methyl]dimethylamine",
    "duplicated_cas_no": "",
    "SMILES": "C(N(C)C)(N(C)C)N(C)C",
    "meta_data": {
        "InChI": "InChI=1S/C7H19N3/c1-8(2)7(9(3)4)10(5)6/h7H,1-6H3",
        "InChIKey": null,
        "Canonical SMILES": "N(C)(C)C(N(C)C)N(C)C",
        "Molecular Formula": "C<sub>7</sub>H<sub>19</sub>N<sub>3</sub>",
        "Molecular Mass": "145.25",
        "Boiling Point": "40-43 °C @ Press: 12 Torr"
    }
}