{
    "cas_no": "18282-59-2",
    "key_name": "4-Bromo-1,2-dichlorobenzene",
    "cn_name": "3,4-二氯溴苯;",
    "alternate_name": "Benzene, 4-bromo-1,2-dichloro-;4-Bromo-1,2-dichlorobenzene;3,4-Dichlorobromobenzene;1-Bromo-3,4-dichlorobenzene;3,4-Dichloro-1-bromobenzene;3,4-Dichlorophenyl bromide;1,2-Dichloro-4-bromobenzene;1-Bromo-3,4-chlorobenzene",
    "duplicated_cas_no": "",
    "SMILES": "ClC1=C(Cl)C=CC(Br)=C1",
    "meta_data": {
        "InChI": "InChI=1S/C6H3BrCl2/c7-4-1-2-5(8)6(9)3-4/h1-3H",
        "InChIKey": null,
        "Canonical SMILES": "ClC1=CC=C(Br)C=C1Cl",
        "Molecular Formula": "C<sub>6</sub>H<sub>3</sub>BrCl<sub>2</sub>",
        "Molecular Mass": "225.90",
        "Boiling Point": "237 °C",
        "Melting Point": "25 °C"
    }
}