{
    "cas_no": "55304-73-9",
    "key_name": "2,6-Dichloro-3-pyridinecarboxaldehyde",
    "cn_name": "2,6-二氯-3-吡啶甲醛;",
    "alternate_name": "3-Pyridinecarboxaldehyde, 2,6-dichloro-;2,6-Dichloro-3-pyridinecarboxaldehyde;2,6-Dichloro-3-formylpyridine;2,6-Dichloropyridyl-3-carboxaldehyde;2,6-Dichloronicotinaldehyde;2,6-Dichloropyridine-3-carbaldehyde",
    "duplicated_cas_no": "",
    "SMILES": "C(=O)C1=C(Cl)N=C(Cl)C=C1",
    "meta_data": {
        "InChI": "InChI=1S/C6H3Cl2NO/c7-5-2-1-4(3-10)6(8)9-5/h1-3H",
        "InChIKey": null,
        "Canonical SMILES": "O=CC1=CC=C(Cl)N=C1Cl",
        "Molecular Formula": "C<sub>6</sub>H<sub>3</sub>Cl<sub>2</sub>NO",
        "Molecular Mass": "176.00",
        "Boiling Point": "95 °C @ Press: 3 Torr",
        "Melting Point": "80-83 °C"
    }
}