{
    "cas_no": "108-57-6",
    "key_name": "<em>m</em>-Divinylbenzene",
    "cn_name": "1,3-二乙烯苯;",
    "alternate_name": "Benzene, 1,3-diethenyl-;Benzene, <em>m</em>-divinyl-;1,3-Diethenylbenzene;<em>m</em>-Divinylbenzene;<em>m</em>-Vinylstyrene;1,3-Divinylbenzene;3-Vinylstyrene;1,3-Bis(ethenyl)benzene",
    "duplicated_cas_no": "",
    "SMILES": "C(=C)C1=CC(C=C)=CC=C1",
    "meta_data": {
        "InChI": "InChI=1S/C10H10/c1-3-9-6-5-7-10(4-2)8-9/h3-8H,1-2H2",
        "InChIKey": null,
        "Canonical SMILES": "C=CC1=CC=CC(C=C)=C1",
        "Molecular Formula": "C<sub>10</sub>H<sub>10</sub>",
        "Molecular Mass": "130.19",
        "Boiling Point": "121 °C",
        "Melting Point": "-52.3 °C",
        "Density": "0.926 g/cm³ @ Temp: 22 °C"
    }
}