{
    "cas_no": "21898-59-9",
    "key_name": "1-Methyl-1<em>H</em>-pyrrole-2-acetic acid",
    "cn_name": "1-甲基吡咯-2-乙酸;",
    "alternate_name": "1<em>H</em>-Pyrrole-2-acetic acid, 1-methyl-;Pyrrole-2-acetic acid, 1-methyl-;1-Methyl-1<em>H</em>-pyrrole-2-acetic acid;1-Methyl-2-pyrroleacetic acid;<em>N</em>-Methylpyrrole-2-acetic acid;(1-Methylpyrrol-2-yl)acetic acid;(1-Methyl-1<em>H</em>-pyrrol-2-yl)acetic acid;2-(1-Methyl-1<em>H</em>-pyrrol-2-yl)acetic acid",
    "duplicated_cas_no": "",
    "SMILES": "C(C(O)=O)C=1N(C)C=CC1",
    "meta_data": {
        "InChI": "InChI=1S/C7H9NO2/c1-8-4-2-3-6(8)5-7(9)10/h2-4H,5H2,1H3,(H,9,10)",
        "InChIKey": null,
        "Canonical SMILES": "O=C(O)CC1=CC=CN1C",
        "Molecular Formula": "C<sub>7</sub>H<sub>9</sub>NO<sub>2</sub>",
        "Molecular Mass": "139.15",
        "Melting Point": "113 °C"
    }
}