{
    "cas_no": "26973-24-0",
    "key_name": "Ceftezole",
    "cn_name": "头孢替唑;(6R,7R)-3-[(1,3,4-噻二唑-2-基)硫代甲基]-8-氧代-7-[2-(1H-四唑-1-基)乙酰氨基]-5-硫杂-1-氮杂双;",
    "alternate_name": "5-Thia-1-azabicyclo[4.2.0]oct-2-ene-2-carboxylic acid, 8-oxo-7-[[2-(1<em>H</em>-tetrazol-1-yl)acetyl]amino]-3-[(1,3,4-thiadiazol-2-ylthio)methyl]-, (6<em>R</em>,7<em>R</em>)-;5-Thia-1-azabicyclo[4.2.0]oct-2-ene-2-carboxylic acid, 8-oxo-7-[2-(1<em>H</em>-tetrazol-1-yl)acetamido]-3-[(1,3,4-thiadiazol-2-ylthio)methyl]-;5-Thia-1-azabicyclo[4.2.0]oct-2-ene-2-carboxylic acid, 8-oxo-7-[(1<em>H</em>-tetrazol-1-ylacetyl)amino]-3-[(1,3,4-thiadiazol-2-ylthio)methyl]-, (6<em>R</em>-<em>trans</em>)-;5-Thia-1-azabicyclo[4.2.0]oct-2-ene-2-carboxylic acid, 8-oxo-7-[(1<em>H</em>-tetrazol-1-ylacetyl)amino]-3-[(1,3,4-thiadiazol-2-ylthio)methyl]-, (6<em>R</em>,7<em>R</em>)-;(6<em>R</em>,7<em>R</em>)-8-Oxo-7-[[2-(1<em>H</em>-tetrazol-1-yl)acetyl]amino]-3-[(1,3,4-thiadiazol-2-ylthio)methyl]-5-thia-1-azabicyclo[4.2.0]oct-2-ene-2-carboxylic acid;FR 10123;Ceftezole;Ceftezol;CG-B 3Q;CTZ",
    "duplicated_cas_no": "",
    "SMILES": "C(O)(=O)C=1N2[C@@]([C@H](NC(CN3C=NN=N3)=O)C2=O)(SCC1CSC4=NN=CS4)[H]",
    "meta_data": {
        "InChI": "InChI=1S/C13H12N8O4S3/c22-7(1-20-4-14-18-19-20)16-8-10(23)21-9(12(24)25)6(2-26-11(8)21)3-27-13-17-15-5-28-13/h4-5,8,11H,1-3H2,(H,16,22)(H,24,25)/t8-,11-/m1/s1",
        "InChIKey": null,
        "Canonical SMILES": "O=C(O)C1=C(CSC2=NN=CS2)CSC3N1C(=O)C3NC(=O)CN4N=NN=C4",
        "Molecular Formula": "C<sub>13</sub>H<sub>12</sub>N<sub>8</sub>O<sub>4</sub>S<sub>3</sub>",
        "Molecular Mass": "440.48",
        "Melting Point": "155 °C (decomp)"
    }
}