{
    "cas_no": "119-53-9",
    "key_name": "(±)-Benzoin",
    "cn_name": "安息香;苯偶姻;二苯乙醇酮;2-羟基-2-苯基苯乙酮;",
    "alternate_name": "Ethanone, 2-hydroxy-1,2-diphenyl-;Benzoin;2-Hydroxy-1,2-diphenylethanone;Benzoylphenylcarbinol;α-Hydroxy-α-phenylacetophenone;2-Hydroxy-2-phenylacetophenone;α-Hydroxybenzyl phenyl ketone;2-Hydroxy-1,2-diphenyl-1-ethanone;Wy 42956;Desyl alcohol;1,2-Diphenyl-1-hydroxy-2-ethanone;<em>dl</em>-Benzoin;(±)-Benzoin;<span class=\"text-smallcaps\">DL</span>-Benzoin;(±)-2-Hydroxy-1,2-diphenylethanone;(±)-2-Hydroxy-2-phenylacetophenone;(<em>RS</em>)-Benzoin;Nisso Cure MB;NSC 8082;1,2-Diphenyl-2-hydroxyethanone;1,2-Diphenyl-2-oxoethanol;α-Benzoylbenzenemethanol;S 19;S 19 (benzoin);Esacure EB 3;2-Hydroxy-1-phenyl-2-phenylethanone;Seikuol Z;2-Hydroxyl-1,2-phenylethanone;2-Phenyl-2-hydroxyacetophenone;F 297;Jiqi GK 19;GK 19;L 307;LC Benzoin;AW 63;AHA 4100;ZR-A 401;KV 203;KG 300;R 401;SY 702;MeSH ID: D001573",
    "duplicated_cas_no": "579-44-2",
    "SMILES": "C(C(=O)C1=CC=CC=C1)(O)C2=CC=CC=C2",
    "meta_data": {
        "InChI": "InChI=1S/C14H12O2/c15-13(11-7-3-1-4-8-11)14(16)12-9-5-2-6-10-12/h1-10,13,15H",
        "InChIKey": null,
        "Canonical SMILES": "O=C(C=1C=CC=CC1)C(O)C=2C=CC=CC2",
        "Molecular Formula": "C<sub>14</sub>H<sub>12</sub>O<sub>2</sub>",
        "Molecular Mass": "212.24",
        "Boiling Point": "344 °C @ Press: 760.0 Torr",
        "Melting Point": "137 °C",
        "Density": "1.310 g/cm³"
    }
}