{
    "cas_no": "55482-89-8",
    "key_name": "Guacetisal",
    "cn_name": null,
    "alternate_name": "Benzoic acid, 2-(acetyloxy)-, 2-methoxyphenyl ester;Acetylsalicylic acid guaiacol ester;Broncaspin;Guacetisal;Guacetisalum;2-Methoxyphenyl <em>O</em>-acetylsalicylate;Guaiaspir;2-Methoxyphenyl 2-acetoxybenzoate",
    "duplicated_cas_no": "",
    "SMILES": "C(OC1=C(OC)C=CC=C1)(=O)C2=C(OC(C)=O)C=CC=C2",
    "meta_data": {
        "InChI": "InChI=1S/C16H14O5/c1-11(17)20-13-8-4-3-7-12(13)16(18)21-15-10-6-5-9-14(15)19-2/h3-10H,1-2H3",
        "InChIKey": null,
        "Canonical SMILES": "O=C(OC=1C=CC=CC1OC)C=2C=CC=CC2OC(=O)C",
        "Molecular Formula": "C<sub>16</sub>H<sub>14</sub>O<sub>5</sub>",
        "Molecular Mass": "286.28",
        "Melting Point": "71-73 °C"
    }
}