{
    "cas_no": "2338-76-3",
    "key_name": "[3-(Trifluoromethyl)phenyl]acetonitrile",
    "cn_name": "间三氟甲基苯乙腈;3-三氟甲基苯乙腈;",
    "alternate_name": "Benzeneacetonitrile, 3-(trifluoromethyl)-;Acetonitrile, (α,α,α-trifluoro-<em>m</em>-tolyl)-;3-(Trifluoromethyl)benzeneacetonitrile;(α,α,α-Trifluoro-<em>m</em>-tolyl)acetonitrile;<em>m</em>-Trifluoromethylphenylacetonitrile;3-(Trifluoromethyl)benzyl cyanide;[3-(Trifluoromethyl)phenyl]acetonitrile;<em>m</em>-Trifluoromethylbenzyl cyanide;1-[3-(Trifluoromethyl)phenyl]acetonitrile;2-[3-(Trifluoromethyl)phenyl]acetonitrile",
    "duplicated_cas_no": "",
    "SMILES": "C(F)(F)(F)C1=CC(CC#N)=CC=C1",
    "meta_data": {
        "InChI": "InChI=1S/C9H6F3N/c10-9(11,12)8-3-1-2-7(6-8)4-5-13/h1-3,6H,4H2",
        "InChIKey": null,
        "Canonical SMILES": "N#CCC1=CC=CC(=C1)C(F)(F)F",
        "Molecular Formula": "C<sub>9</sub>H<sub>6</sub>F<sub>3</sub>N",
        "Molecular Mass": "185.15",
        "Boiling Point": "92-93 °C @ Press: 4 Torr"
    }
}