{
    "cas_no": "445-28-3",
    "key_name": "2-Fluorobenzamide",
    "cn_name": "2-氟苯甲酰胺;邻氟苯甲酰胺;",
    "alternate_name": "Benzamide, 2-fluoro-;Benzamide, <em>o</em>-fluoro-;2-Fluorobenzamide;<em>o</em>-Fluorobenzamide;<em>o</em>-Fluorobenzoic acid amide;2-Carbamoyl-1-fluorobenzene",
    "duplicated_cas_no": "",
    "SMILES": "C(N)(=O)C1=C(F)C=CC=C1",
    "meta_data": {
        "InChI": "InChI=1S/C7H6FNO/c8-6-4-2-1-3-5(6)7(9)10/h1-4H,(H2,9,10)",
        "InChIKey": null,
        "Canonical SMILES": "O=C(N)C=1C=CC=CC1F",
        "Molecular Formula": "C<sub>7</sub>H<sub>6</sub>FNO",
        "Molecular Mass": "139.13",
        "Melting Point": "118 °C"
    }
}