{
    "cas_no": "555-10-2",
    "key_name": "β-Phellandrene",
    "cn_name": "3-亚甲基-6-(1-甲基乙基)环己烯;",
    "alternate_name": "Cyclohexene, 3-methylene-6-(1-methylethyl)-;<em>p</em>-Mentha-1(7),2-diene;3-Methylene-6-(1-methylethyl)cyclohexene;3-Isopropyl-6-methylene-1-cyclohexene;4-Isopropyl-1-methylene-2-cyclohexene;β-Phellandrene;(±)-β-Phellandrene;NSC 53044;beta-Phellandrene",
    "duplicated_cas_no": "51941-36-7",
    "SMILES": "C(C)(C)C1CCC(=C)C=C1",
    "meta_data": {
        "InChI": "InChI=1S/C10H16/c1-8(2)10-6-4-9(3)5-7-10/h4,6,8,10H,3,5,7H2,1-2H3",
        "InChIKey": null,
        "Canonical SMILES": "C=C1C=CC(CC1)C(C)C",
        "Molecular Formula": "C<sub>10</sub>H<sub>16</sub>",
        "Molecular Mass": "136.23",
        "Boiling Point": "171.5 °C",
        "Density": "0.8517 g/cm³"
    }
}