{
    "cas_no": "108-42-9",
    "key_name": "3-Chloroaniline",
    "cn_name": "3-氯苯胺;间氯苯胺;间氨基氯苯;",
    "alternate_name": "Benzenamine, 3-chloro-;Aniline, <em>m</em>-chloro-;3-Chlorobenzenamine;<em>m</em>-Chloroaniline;Fast Orange GC Base;3-Chloroaniline;<em>m</em>-Aminochlorobenzene;<em>m</em>-Chlorophenylamine;Orange GC base;1-Amino-3-chlorobenzene;3-Chlorophenylamine;3-Amino-1-chlorobenzene;3-Chloro-1-aminobenzene;NSC 17581;5-Chloroaniline",
    "duplicated_cas_no": "1083238-51-0",
    "SMILES": "ClC1=CC(N)=CC=C1",
    "meta_data": {
        "InChI": "InChI=1S/C6H6ClN/c7-5-2-1-3-6(8)4-5/h1-4H,8H2",
        "InChIKey": null,
        "Canonical SMILES": "ClC1=CC=CC(N)=C1",
        "Molecular Formula": "C<sub>6</sub>H<sub>6</sub>ClN",
        "Molecular Mass": "127.57",
        "Boiling Point": "230.5 °C",
        "Melting Point": "-10.4 °C",
        "Density": "1.2150 g/cm³ @ Temp: 22 °C"
    }
}