{
    "cas_no": "17343-07-6",
    "key_name": "Glycylglycyl-<span class=\"text-smallcaps\">L</span>-tyrosine",
    "cn_name": null,
    "alternate_name": "<span class=\"text-smallcaps\">L</span>-Tyrosine, glycylglycyl-;Tyrosine, <em>N</em>-(<em>N</em>-glycylglycyl)-, <span class=\"text-smallcaps\">L</span>-;<span class=\"text-smallcaps\">L</span>-Tyrosine, <em>N</em>-(<em>N</em>-glycylglycyl)-;Tyrosine, <em>N</em>-(<em>N</em>-glycylglycyl)-;Glycylglycyl-<span class=\"text-smallcaps\">L</span>-tyrosine;Glycylglycyltyrosine;NSC 334194;2: PN: WO2014062134 PAGE: 50 claimed sequence;3: PN: WO2019011306 SEQID: 6 claimed protein;(2S)-2-[[2-[(2-Aminoacetyl)amino]acetyl]amino]-3-(4-hydroxyphenyl)propanoic acid;(2S)-2-[2-(2-Aminoacetamido)acetamido]-3-(4-hydroxyphenyl)propanoic acid;47: PN: WO2022190009 SEQID: 264 claimed protein",
    "duplicated_cas_no": "",
    "SMILES": "C([C@H](NC(CNC(CN)=O)=O)C(O)=O)C1=CC=C(O)C=C1",
    "meta_data": {
        "InChI": "InChI=1S/C13H17N3O5/c14-6-11(18)15-7-12(19)16-10(13(20)21)5-8-1-3-9(17)4-2-8/h1-4,10,17H,5-7,14H2,(H,15,18)(H,16,19)(H,20,21)/t10-/m0/s1",
        "InChIKey": null,
        "Canonical SMILES": "O=C(O)C(NC(=O)CNC(=O)CN)CC1=CC=C(O)C=C1",
        "Molecular Formula": "C<sub>13</sub>H<sub>17</sub>N<sub>3</sub>O<sub>5</sub>",
        "Molecular Mass": "295.29",
        "Melting Point": "218-220 °C"
    }
}