{
    "cas_no": "3197-25-9",
    "key_name": "2-(4-Oxopentyl)-1<em>H</em>-isoindole-1,3(2<em>H</em>)-dione",
    "cn_name": null,
    "alternate_name": "1<em>H</em>-Isoindole-1,3(2<em>H</em>)-dione, 2-(4-oxopentyl)-;Phthalimide, <em>N</em>-(4-oxopentyl)-;2-(4-Oxopentyl)-1<em>H</em>-isoindole-1,3(2<em>H</em>)-dione;1-Phthalimidopentan-4-one;5-Phthalimido-2-pentanone;1-<em>N</em>-Phthalimidopentan-4-one;NSC 38564;<em>N</em>-(4-Oxopentyl)phthalimide;2-(4-Oxopentyl)isoindoline-1,3-dione;2-(4-Oxopentyl)-2,3-dihydro-1<em>H</em>-isoindole-1,3-dione;2-(4-Oxopentyl)isoindole-1,3-dione",
    "duplicated_cas_no": "",
    "SMILES": "O=C1C=2C(C(=O)N1CCCC(C)=O)=CC=CC2",
    "meta_data": {
        "InChI": "InChI=1S/C13H13NO3/c1-9(15)5-4-8-14-12(16)10-6-2-3-7-11(10)13(14)17/h2-3,6-7H,4-5,8H2,1H3",
        "InChIKey": null,
        "Canonical SMILES": "O=C1C=2C=CC=CC2C(=O)N1CCCC(=O)C",
        "Molecular Formula": "C<sub>13</sub>H<sub>13</sub>NO<sub>3</sub>",
        "Molecular Mass": "231.25",
        "Boiling Point": "168-170 °C @ Press: 0.2 Torr",
        "Melting Point": "75-76 °C"
    }
}