{
    "cas_no": "83-26-1",
    "key_name": "Pindone",
    "cn_name": "杀鼠酮;2-特戊酰-1,3-茚满二酮;鼠完;杀鼠酮;品酮;",
    "alternate_name": "1<em>H</em>-Indene-1,3(2<em>H</em>)-dione, 2-(2,2-dimethyl-1-oxopropyl)-;1,3-Indandione, 2-pivaloyl-;2-(2,2-Dimethyl-1-oxopropyl)-1<em>H</em>-indene-1,3(2<em>H</em>)-dione;Pindone;2-Pivaloyl-1,3-indandione;2-Pivaloylindane-1,3-dione;2-Pivalyl-1,3-indandione;Pivalylindandione;Pivalyl Valone;Pivalyl;Pival;2-(Trimethylacetyl)-1,3-indandione;Pivalylindan-1,3-dione;NSC 31211;NSC 6281;Pivaldione",
    "duplicated_cas_no": "",
    "SMILES": "C(C(C)(C)C)(=O)C1C(=O)C=2C(C1=O)=CC=CC2",
    "meta_data": {
        "InChI": "InChI=1S/C14H14O3/c1-14(2,3)13(17)10-11(15)8-6-4-5-7-9(8)12(10)16/h4-7,10H,1-3H3",
        "InChIKey": null,
        "Canonical SMILES": "O=C1C=2C=CC=CC2C(=O)C1C(=O)C(C)(C)C",
        "Molecular Formula": "C<sub>14</sub>H<sub>14</sub>O<sub>3</sub>",
        "Molecular Mass": "230.26",
        "Boiling Point": "180 °C @ Press: 1 Torr",
        "Melting Point": "108.5-110.5 °C",
        "Density": "1.06 g/cm³"
    }
}