{
    "cas_no": "104-65-4",
    "key_name": "Cinnamyl formate",
    "cn_name": "甲酸肉桂酯;3-苯基-2-丙烯-1-醇甲酸盐;甲酸桂酯;",
    "alternate_name": "2-Propen-1-ol, 3-phenyl-, 1-formate;Cinnamyl alcohol, formate;2-Propen-1-ol, 3-phenyl-, formate;Cinnamyl formate;Cinnamyl methanoate;γ-Phenylallyl formate;3-Phenyl-2-propen-1-yl formate;NSC 21737;3-Phenyl-2-propen-1-ol formate",
    "duplicated_cas_no": "",
    "SMILES": "C(=CCOC=O)C1=CC=CC=C1",
    "meta_data": {
        "InChI": "InChI=1S/C10H10O2/c11-9-12-8-4-7-10-5-2-1-3-6-10/h1-7,9H,8H2",
        "InChIKey": null,
        "Canonical SMILES": "O=COCC=CC=1C=CC=CC1",
        "Molecular Formula": "C<sub>10</sub>H<sub>10</sub>O<sub>2</sub>",
        "Molecular Mass": "162.19",
        "Boiling Point": "138 °C @ Press: 23 Torr"
    }
}