{
    "cas_no": "23468-31-7",
    "key_name": "5-Chloro-6-(chloromethyl)-1,3-benzodioxole",
    "cn_name": null,
    "alternate_name": "1,3-Benzodioxole, 5-chloro-6-(chloromethyl)-;Toluene, α,2-dichloro-4,5-(methylenedioxy)-;5-Chloro-6-(chloromethyl)-1,3-benzodioxole;6-Chloropiperonyl chloride;5-Chloro-6-(chloromethyl)benzodioxole;NSC 31302;5-Chloro-6-(chloromethyl)benzo[<em>d</em>][1,3]dioxole",
    "duplicated_cas_no": "",
    "SMILES": "C(Cl)C=1C=C2C(=CC1Cl)OCO2",
    "meta_data": {
        "InChI": "InChI=1S/C8H6Cl2O2/c9-3-5-1-7-8(2-6(5)10)12-4-11-7/h1-2H,3-4H2",
        "InChIKey": null,
        "Canonical SMILES": "ClC=1C=C2OCOC2=CC1CCl",
        "Molecular Formula": "C<sub>8</sub>H<sub>6</sub>Cl<sub>2</sub>O<sub>2</sub>",
        "Molecular Mass": "205.04",
        "Melting Point": "65 °C"
    }
}