{
    "cas_no": "4089-07-0",
    "key_name": "<span class=\"text-smallcaps\">L</span>-Tyrosine, ethyl ester, hydrochloride (1:1)",
    "cn_name": "L-酪氨酸乙酯盐酸盐;",
    "alternate_name": "<span class=\"text-smallcaps\">L</span>-Tyrosine, ethyl ester, hydrochloride (1:1);Tyrosine, ethyl ester, hydrochloride, <span class=\"text-smallcaps\">L</span>-;<span class=\"text-smallcaps\">L</span>-Tyrosine, ethyl ester, hydrochloride;Ethyl <span class=\"text-smallcaps\">L</span>-tyrosinate hydrochloride;(<em>S</em>)-Tyrosine ethyl ester hydrochloride;NSC 17141;(2S)-1-Ethoxy-3-(4-hydroxyphenyl)-1-oxopropan-2-aminium chloride",
    "duplicated_cas_no": "",
    "SMILES": "C([C@@H](C(OCC)=O)N)C1=CC=C(O)C=C1.Cl",
    "meta_data": {
        "InChI": "InChI=1S/C11H15NO3.ClH/c1-2-15-11(14)10(12)7-8-3-5-9(13)6-4-8;/h3-6,10,13H,2,7,12H2,1H3;1H/t10-;/m0./s1",
        "InChIKey": null,
        "Canonical SMILES": "Cl.O=C(OCC)C(N)CC1=CC=C(O)C=C1",
        "Molecular Formula": "C<sub>11</sub>H<sub>15</sub>NO<sub>3</sub>.ClH",
        "Molecular Mass": "",
        "Melting Point": "167-170 °C"
    }
}