{
    "cas_no": "67123-97-1",
    "key_name": "1,2,3,4-Tetrahydroisoquinoline-3-carboxylic acid",
    "cn_name": null,
    "alternate_name": "3-Isoquinolinecarboxylic acid, 1,2,3,4-tetrahydro-;3-Isoquinolinecarboxylic acid, 1,2,3,4-tetrahydro-, (±)-;1,2,3,4-Tetrahydro-3-isoquinolinecarboxylic acid;<span class=\"text-smallcaps\">DL</span>-3-Carboxy-1,2,3,4-tetrahydroisoquinoline;<span class=\"text-smallcaps\">DL</span>-1,2,3,4-Tetrahydroisoquinoline-3-carboxylic acid;3-Carboxy-1,2,3,4-tetrahydroisoquinoline;1,2,3,4-Tetrahydroisoquinoline-3-carboxylic acid;NSC 14794",
    "duplicated_cas_no": "35186-99-3",
    "SMILES": "C(O)(=O)C1CC=2C(CN1)=CC=CC2",
    "meta_data": {
        "InChI": "InChI=1S/C10H11NO2/c12-10(13)9-5-7-3-1-2-4-8(7)6-11-9/h1-4,9,11H,5-6H2,(H,12,13)",
        "InChIKey": null,
        "Canonical SMILES": "O=C(O)C1NCC=2C=CC=CC2C1",
        "Molecular Formula": "C<sub>10</sub>H<sub>11</sub>NO<sub>2</sub>",
        "Molecular Mass": "177.20",
        "Melting Point": "311 °C"
    }
}