{
    "cas_no": "1128-56-9",
    "key_name": "1-Phenyl-1<em>H</em>-pyrazol-3-amine",
    "cn_name": "1-苯基-3-氨基吡唑;",
    "alternate_name": "1<em>H</em>-Pyrazol-3-amine, 1-phenyl-;Pyrazole, 3-amino-1-phenyl-;1-Phenyl-1<em>H</em>-pyrazol-3-amine;1-Phenyl-3-aminopyrazole;3-Amino-1-phenylpyrazole;1-Phenyl-3-pyrazolamine;1-Phenyl-1<em>H</em>-pyrazole-3-amine;1-Phenyl-1<em>H</em>-pyrazol-3-ylamine;3-Amino-1-phenyl-1<em>H</em>-pyrazole",
    "duplicated_cas_no": "",
    "SMILES": "NC1=NN(C=C1)C2=CC=CC=C2",
    "meta_data": {
        "InChI": "InChI=1S/C9H9N3/c10-9-6-7-12(11-9)8-4-2-1-3-5-8/h1-7H,(H2,10,11)",
        "InChIKey": null,
        "Canonical SMILES": "N1=C(N)C=CN1C=2C=CC=CC2",
        "Molecular Formula": "C<sub>9</sub>H<sub>9</sub>N<sub>3</sub>",
        "Molecular Mass": "159.19",
        "Boiling Point": "167-170 °C @ Press: 8 Torr",
        "Melting Point": "101 °C"
    }
}