{
    "cas_no": "25852-47-5",
    "key_name": "Polyethylene glycol dimethacrylate",
    "cn_name": null,
    "alternate_name": "Poly(oxy-1,2-ethanediyl), α-(2-methyl-1-oxo-2-propen-1-yl)-ω-[(2-methyl-1-oxo-2-propen-1-yl)oxy]-;Glycols, polyethylene, dimethacrylate;Poly(oxy-1,2-ethanediyl), α-(2-methyl-1-oxo-2-propenyl)-ω-[(2-methyl-1-oxo-2-propenyl)oxy]-;Methacrylic acid, diester with polyethylene glycol;Fimoweld;Polyethylene glycol methacrylate;Polyethylene glycol dimethacrylate;NK 14G;NK 23G;PEGMA 14G;PEGMA 23G;PEGMA 9G;NK Ester 23G;NK Ester 14G;TGM 13;ENT 110;Hydrogel IV;Hydrogel VI;Hydrogel II;Oligoethylene glycol dimethacrylate;Chemlink CL 600;A 4EG;NK Ester 9G;NK Ester 14KG;SR 210;Polyoxyethylene dimethacrylate;SR 252;Heneicosaethylene glycol dimethacrylate;Blemmer PDE 600;Light Ester 9EG;Sartomer 210;Light Ester 14EG;Blemmer 100;Bisomer P 10W;Blemmer PDE 200;Blemmer PDE 400;Bisomer PEM 200;PDE 400;Blemmer PDE 1000;Light Ester 4EG;Light Acrylate P 303;Chemlink 600;NK 9G;Poly(ethylene oxide) dimethacrylate;PU 280;Graset T 30D;Graset T 303;Blemmer PDE 6000;NK 1G;Sartomer 603;SR 603;Mhoromer D 1120;Mhoromer MFM 409;Mhoromer D 1133;PEG 4000DMA;PDE 1000;Blemmer PDE 50R;EG 2500;PEG-DMA;SR 740;PDE 600;Sartomer SR 210;Sartomer SR 252;SR 6030;SR 603OP;Newfrontier NF Bisomer PEM 200;NK Ester 35E;FA 2200M;SR 210A;Photomer 2050;PEM 1000;FA 220M;Fancryl FA 220M;SR 740A;M 281;Miramer M 281T;FA 260M;FA 280M;PDE 6000;PEGDMA 575;EM 327;Miramer M 281;SR 211;POLYEGDMA 875;PEGDMA 750;SR 210CG;14G-DMA;Komerate D 608M;P 400 (dimethacrylate);P 400;SR 252NS;Sartomer SR 210HH;PEG 600DMA;Blemmer PDE 450;D 208M;LBW 4654;Blemmer AD 400",
    "duplicated_cas_no": "62886-53-7;73212-53-0;92308-31-1;93358-12-4;141104-76-9;156168-97-7;156932-37-5;170006-96-9;203945-04-4;216753-70-7;328250-61-9;851393-53-8;1035552-53-4;1474090-97-5;2784709-54-0",
    "SMILES": "",
    "meta_data": {
        "InChI": "",
        "InChIKey": null,
        "Canonical SMILES": "",
        "Molecular Formula": "(C<sub>2</sub>H<sub>4</sub>O)<sub>n</sub>C<sub>8</sub>H<sub>10</sub>O<sub>3</sub>",
        "Molecular Mass": "",
        "Melting Point": "61-63 °C",
        "Density": "1.12 g/cm³"
    }
}