{
    "cas_no": "24787-89-1",
    "key_name": "<em>N</em>-[(Phenylmethoxy)carbonyl]-<span class=\"text-smallcaps\">L</smallcap>-valyl-<smallcap>L</span>-alanine",
    "cn_name": null,
    "alternate_name": "<span class=\"text-smallcaps\">L</smallcap>-Alanine, <em>N</em>-[(phenylmethoxy)carbonyl]-<smallcap>L</span>-valyl-;Alanine, <em>N</em>-(<em>N</em>-carboxy-<span class=\"text-smallcaps\">L</smallcap>-valyl)-, <em>N</em>-benzyl ester, <smallcap>L</span>-;<span class=\"text-smallcaps\">L</smallcap>-Alanine, <em>N</em>-[<em>N</em>-[(phenylmethoxy)carbonyl]-<smallcap>L</span>-valyl]-;Alanine, <em>N</em>-(<em>N</em>-carboxy-<span class=\"text-smallcaps\">L</span>-valyl)-, <em>N</em>-benzyl ester;<em>N</em>-[(Phenylmethoxy)carbonyl]-<span class=\"text-smallcaps\">L</smallcap>-valyl-<smallcap>L</span>-alanine;<em>N</em>-(Benzyloxycarbonyl)-<span class=\"text-smallcaps\">L</smallcap>-valyl-<smallcap>L</span>-alanine;Carbobenzoxy-<span class=\"text-smallcaps\">L</smallcap>-valyl-<smallcap>L</span>-alanine",
    "duplicated_cas_no": "2807-68-3",
    "SMILES": "[C@H](C(N[C@H](C(O)=O)C)=O)(NC(OCC1=CC=CC=C1)=O)C(C)C",
    "meta_data": {
        "InChI": "InChI=1S/C16H22N2O5/c1-10(2)13(14(19)17-11(3)15(20)21)18-16(22)23-9-12-7-5-4-6-8-12/h4-8,10-11,13H,9H2,1-3H3,(H,17,19)(H,18,22)(H,20,21)/t11-,13-/m0/s1",
        "InChIKey": null,
        "Canonical SMILES": "O=C(OCC=1C=CC=CC1)NC(C(=O)NC(C(=O)O)C)C(C)C",
        "Molecular Formula": "C<sub>16</sub>H<sub>22</sub>N<sub>2</sub>O<sub>5</sub>",
        "Molecular Mass": "322.36",
        "Melting Point": "165 °C"
    }
}