{
    "cas_no": "1229-55-6",
    "key_name": "Solvent Red 1",
    "cn_name": "溶剂红1;1-[(2-甲氧基苯基)偶氮]-2-萘酚;",
    "alternate_name": "2-Naphthalenol, 1-[2-(2-methoxyphenyl)diazenyl]-;Sudan Red G;C.I. Solvent Red 1;2-Naphthalenol, 1-[(2-methoxyphenyl)azo]-;2-Naphthol, 1-(<em>o</em>-methoxyphenylazo)-;1-[2-(2-Methoxyphenyl)diazenyl]-2-naphthalenol;C.I. 12150;Brilliant Fat Scarlet R;Ceres Red G;Fat Red G;Fat Red BG;Fat Red RS;Lacquer Red V 2G;Oil Pink;Oil Scarlet 389;Oil Vermilion;Oil Vermilion LP;Oleal Red G;Organol Vermilion;Plastoresin Red FR;Resinol Red G;Silotras Red TG;Somalia Red PG;Sudan R;Ceres Red G 102;C.I. Food Red 16;Anisole-2-azo-β-naphthol;Fat Soluble Red S;1-(<em>o</em>-Anisylazo)-2-naphthol;1-[(2-Methoxyphenyl)azo]-2-naphthol;Oil Soluble Red S;Oil Red 113;Oil Red OG;Sico Fat Red BG New;Solvent Red 1;Orient Oil Red OG;C Red 2;Oil Red;Food Red 16;Sudan Red 290;NSC 11232;NSC 45194;1-((2-Methoxyphenyl)diazenyl)naphthalen-2-ol",
    "duplicated_cas_no": "69772-40-3",
    "SMILES": "N(=NC1=C(OC)C=CC=C1)C=2C3=C(C=CC2O)C=CC=C3",
    "meta_data": {
        "InChI": "InChI=1S/C17H14N2O2/c1-21-16-9-5-4-8-14(16)18-19-17-13-7-3-2-6-12(13)10-11-15(17)20/h2-11,20H,1H3",
        "InChIKey": null,
        "Canonical SMILES": "OC=1C=CC=2C=CC=CC2C1N=NC=3C=CC=CC3OC",
        "Molecular Formula": "C<sub>17</sub>H<sub>14</sub>N<sub>2</sub>O<sub>2</sub>",
        "Molecular Mass": "278.31",
        "Melting Point": "183 °C"
    }
}