{
    "cas_no": "283173-84-2",
    "key_name": "4-(8-Fluoro-3,4,5,6-tetrahydro-6-oxo-1<em>H</em>-pyrrolo[4,3,2-<em>ef</em>][2]benzazepin-2-yl)benzaldehyde",
    "cn_name": null,
    "alternate_name": "Benzaldehyde, 4-(8-fluoro-3,4,5,6-tetrahydro-6-oxo-1<em>H</em>-pyrrolo[4,3,2-<em>ef</em>][2]benzazepin-2-yl)-;Benzaldehyde, 4-(8-fluoro-3,4,5,6-tetrahydro-6-oxo-1<em>H</em>-azepino[5,4,3-<em>cd</em>]indol-2-yl)-;4-(8-Fluoro-3,4,5,6-tetrahydro-6-oxo-1<em>H</em>-pyrrolo[4,3,2-<em>ef</em>][2]benzazepin-2-yl)benzaldehyde;4-(8-Fluoro-6-oxo-3,4,5,6-tetrahydro-1<em>H</em>-azepino[5,4,3-<em>cd</em>]indol-2-yl)benzaldehyde",
    "duplicated_cas_no": "",
    "SMILES": "O=C1C2=C3C(=C(NC3=CC(F)=C2)C4=CC=C(C=O)C=C4)CCN1",
    "meta_data": {
        "InChI": "InChI=1S/C18H13FN2O2/c19-12-7-14-16-13(5-6-20-18(14)23)17(21-15(16)8-12)11-3-1-10(9-22)2-4-11/h1-4,7-9,21H,5-6H2,(H,20,23)",
        "InChIKey": null,
        "Canonical SMILES": "O=CC=1C=CC(=CC1)C=2NC=3C=C(F)C=C4C(=O)NCCC2C34",
        "Molecular Formula": "C<sub>18</sub>H<sub>13</sub>FN<sub>2</sub>O<sub>2</sub>",
        "Molecular Mass": "308.31",
        "Melting Point": "219 °C (decomp)"
    }
}