{
    "cas_no": "933-90-4",
    "key_name": "3-Hydroxypicolinamide",
    "cn_name": "3-羟基吡啶酰胺;",
    "alternate_name": "2-Pyridinecarboxamide, 3-hydroxy-;Picolinamide, 3-hydroxy-;3-Hydroxy-2-pyridinecarboxamide;3-Hydroxy-2-picolinamide;3-Hydroxypicolinamide;2-Carboxamide-3-hydroxypyridine;3-Hydroxy-pyridine-2-carboxylic acid amide",
    "duplicated_cas_no": "",
    "SMILES": "C(N)(=O)C1=C(O)C=CC=N1",
    "meta_data": {
        "InChI": "InChI=1S/C6H6N2O2/c7-6(10)5-4(9)2-1-3-8-5/h1-3,9H,(H2,7,10)",
        "InChIKey": null,
        "Canonical SMILES": "O=C(N)C1=NC=CC=C1O",
        "Molecular Formula": "C<sub>6</sub>H<sub>6</sub>N<sub>2</sub>O<sub>2</sub>",
        "Molecular Mass": "138.12",
        "Melting Point": "194-196 °C"
    }
}