{
    "cas_no": "67669-19-6",
    "key_name": "<em>N</em>-(2,4-Dichloro-5-hydroxyphenyl)acetamide",
    "cn_name": null,
    "alternate_name": "Acetamide, <em>N</em>-(2,4-dichloro-5-hydroxyphenyl)-;<em>N</em>-(2,4-Dichloro-5-hydroxyphenyl)acetamide",
    "duplicated_cas_no": "",
    "SMILES": "N(C(C)=O)C1=C(Cl)C=C(Cl)C(O)=C1",
    "meta_data": {
        "InChI": "InChI=1S/C8H7Cl2NO2/c1-4(12)11-7-3-8(13)6(10)2-5(7)9/h2-3,13H,1H3,(H,11,12)",
        "InChIKey": null,
        "Canonical SMILES": "O=C(NC1=CC(O)=C(Cl)C=C1Cl)C",
        "Molecular Formula": "C<sub>8</sub>H<sub>7</sub>Cl<sub>2</sub>NO<sub>2</sub>",
        "Molecular Mass": "220.05",
        "Melting Point": "226-228 °C"
    }
}