{
    "cas_no": "6343-93-7",
    "key_name": "(4-Methoxyphenyl)acetamide",
    "cn_name": "4-甲氧基苯乙酰胺;",
    "alternate_name": "Benzeneacetamide, 4-methoxy-;Acetamide, 2-(<em>p</em>-methoxyphenyl)-;4-Methoxybenzeneacetamide;(<em>p</em>-Methoxyphenyl)acetamide;(4-Methoxyphenyl)acetamide;2-(4-Methoxyphenyl)acetamide;NSC 49779",
    "duplicated_cas_no": "",
    "SMILES": "C(C(N)=O)C1=CC=C(OC)C=C1",
    "meta_data": {
        "InChI": "InChI=1S/C9H11NO2/c1-12-8-4-2-7(3-5-8)6-9(10)11/h2-5H,6H2,1H3,(H2,10,11)",
        "InChIKey": null,
        "Canonical SMILES": "O=C(N)CC1=CC=C(OC)C=C1",
        "Molecular Formula": "C<sub>9</sub>H<sub>11</sub>NO<sub>2</sub>",
        "Molecular Mass": "165.19",
        "Melting Point": "188-189 °C"
    }
}