{
    "cas_no": "884507-19-1",
    "key_name": "1-Methyl-6-(4,4,5,5-tetramethyl-1,3,2-dioxaborolan-2-yl)-1<em>H</em>-indole",
    "cn_name": null,
    "alternate_name": "1<em>H</em>-Indole, 1-methyl-6-(4,4,5,5-tetramethyl-1,3,2-dioxaborolan-2-yl)-;1-Methyl-6-(4,4,5,5-tetramethyl-1,3,2-dioxaborolan-2-yl)-1<em>H</em>-indole;1-Methyl-6-(4,4,5,5-tetramethyl-1,3,2-dioxaborolan-2-yl)indole",
    "duplicated_cas_no": "",
    "SMILES": "CC1(C)OB(C=2C=C3C(=CC2)C=CN3C)OC1(C)C",
    "meta_data": {
        "InChI": "InChI=1S/C15H20BNO2/c1-14(2)15(3,4)19-16(18-14)12-7-6-11-8-9-17(5)13(11)10-12/h6-10H,1-5H3",
        "InChIKey": null,
        "Canonical SMILES": "O1B(OC(C)(C)C1(C)C)C=2C=CC=3C=CN(C3C2)C",
        "Molecular Formula": "C<sub>15</sub>H<sub>20</sub>BNO<sub>2</sub>",
        "Molecular Mass": "257.14",
        "Melting Point": "98 °C"
    }
}