{
    "cas_no": "17865-07-5",
    "key_name": "Silanetriol, 1-propyl-, 1,1,1-triacetate",
    "cn_name": "三乙酸酯丙基硅烷三醇;",
    "alternate_name": "Silanetriol, 1-propyl-, 1,1,1-triacetate;Silanetriol, propyl-, triacetate;Propyltriacetoxysilane",
    "duplicated_cas_no": "",
    "SMILES": "[Si](OC(C)=O)(OC(C)=O)(OC(C)=O)CCC",
    "meta_data": {
        "InChI": "InChI=1S/C9H16O6Si/c1-5-6-16(13-7(2)10,14-8(3)11)15-9(4)12/h5-6H2,1-4H3",
        "InChIKey": null,
        "Canonical SMILES": "O=C(O[Si](OC(=O)C)(OC(=O)C)CCC)C",
        "Molecular Formula": "C<sub>9</sub>H<sub>16</sub>O<sub>6</sub>Si",
        "Molecular Mass": "248.31",
        "Boiling Point": "127-131 °C @ Press: 20 Torr",
        "Density": "1.119 g/cm³ @ Temp: 20 °C"
    }
}