{
    "cas_no": "14433-76-2",
    "key_name": "<em>N</em>,<em>N</em>-Dimethyldecanamide",
    "cn_name": "N,N-二甲基癸酰胺;",
    "alternate_name": "Decanamide, <em>N</em>,<em>N</em>-dimethyl-;<em>N</em>,<em>N</em>-Dimethyldecanamide;<em>N</em>,<em>N</em>-Dimethylcapramide;NSC 131411;Spectrasolv DMDA;Hallcomid M 10;Agnique AMD 10;Agnique KE 3308;Armid DM 10;S 42710;Halcomid M 10",
    "duplicated_cas_no": "881838-40-0",
    "SMILES": "C(C(N(C)C)=O)CCCCCCCC",
    "meta_data": {
        "InChI": "InChI=1S/C12H25NO/c1-4-5-6-7-8-9-10-11-12(14)13(2)3/h4-11H2,1-3H3",
        "InChIKey": null,
        "Canonical SMILES": "O=C(N(C)C)CCCCCCCCC",
        "Molecular Formula": "C<sub>12</sub>H<sub>25</sub>NO",
        "Molecular Mass": "199.33",
        "Boiling Point": "123 °C @ Press: 25 Torr"
    }
}