{
    "cas_no": "40018-26-6",
    "key_name": "1,4-Dithiane-2,5-diol",
    "cn_name": "1,4-二硫-2,5-二醇;2,5-二羟基噻二烷;2,5-二羟基-1,4-二噻烷;",
    "alternate_name": "1,4-Dithiane-2,5-diol;2,5-Dihydroxy-1,4-dithiane;Mercaptoacetaldehyde dimer;<em>p</em>-Dithiane-2,5-diol;1,4-Dithian-2,5-diol;NSC 106280",
    "duplicated_cas_no": "",
    "SMILES": "OC1CSC(O)CS1",
    "meta_data": {
        "InChI": "InChI=1S/C4H8O2S2/c5-3-1-7-4(6)2-8-3/h3-6H,1-2H2",
        "InChIKey": null,
        "Canonical SMILES": "OC1SCC(O)SC1",
        "Molecular Formula": "C<sub>4</sub>H<sub>8</sub>O<sub>2</sub>S<sub>2</sub>",
        "Molecular Mass": "152.24",
        "Melting Point": "138-143 °C"
    }
}