{
    "cas_no": "6830-78-0",
    "key_name": "3,6-Diphenyl-1,2,4,5-tetrazine",
    "cn_name": "3,6-二苯基-1,2,4,5-四嗪;3,6-二苯基-1,2,4,5-四嗪,9 8%;",
    "alternate_name": "1,2,4,5-Tetrazine, 3,6-diphenyl-;<em>s</em>-Tetrazine, 3,6-diphenyl-;<em>s</em>-Tetrazine, diphenyl-;3,6-Diphenyl-1,2,4,5-tetrazine;3,6-Diphenyl-<em>s</em>-tetrazine;Diphenyl-<em>s</em>-tetrazine;3,6-Diphenyl-<em>sym</em>-tetrazine;NSC 73054",
    "duplicated_cas_no": "",
    "SMILES": "C=1(N=NC(=NN1)C2=CC=CC=C2)C3=CC=CC=C3",
    "meta_data": {
        "InChI": "InChI=1S/C14H10N4/c1-3-7-11(8-4-1)13-15-17-14(18-16-13)12-9-5-2-6-10-12/h1-10H",
        "InChIKey": null,
        "Canonical SMILES": "N1=NC(=NN=C1C=2C=CC=CC2)C3=CC=CC=C3",
        "Molecular Formula": "C<sub>14</sub>H<sub>10</sub>N<sub>4</sub>",
        "Molecular Mass": "234.26",
        "Melting Point": "192 °C"
    }
}