{
    "cas_no": "2061-64-5",
    "key_name": "Ergosterol peroxide",
    "cn_name": "5Α,8Α-表二氧-(22E,24R)-麦角甾-6,22-二烯-3Β-醇;5Α,8Α-表二氧-(22E,24R)-麦角甾-6,22-二烯-3Β-醇;",
    "alternate_name": "Ergosta-6,22-dien-3-ol, 5,8-epidioxy-, (3β,5α,8α,22<em>E</em>)-;5α,8α-Ergosta-6,22-dien-3β-ol, 5,8-epidioxy-;5,8-Epidioxy-2<em>H</em>-cyclopenta[<em>a</em>]phenanthrene, ergosta-6,22-dien-3-ol deriv.;(3β,5α,8α,22<em>E</em>)-5,8-Epidioxyergosta-6,22-dien-3-ol;Ergosterol peroxide;Ergosterol endoperoxide;Ergosteryl peroxide;Peroxyergosterol;5,8α-Epidioxy-5α-ergosta-6,22-dien-3β-ol;Ergosterol 5α,8α-epidioxide;5α,8α-Epidioxyergosta-6,22-dien-3β-ol;(22<em>E</em>,24<em>R</em>)-5α,8α-Epidioxyergosta-6,22-dien-3β-ol;(22<em>E</em>)-5α,8α-Epidioxyergosta-6,22-dien-3β-ol;(24<em>R</em>)-Ergost-5α,8α-epidioxy-6,22-dien-3β-ol;5α,8α-Epidioxy-(22<em>E</em>,24<em>R</em>)-ergosta-6,22-dien-3β-ol;3β-Hydroxy-5α,8α-epidioxyergosta-6,22-diene;5α,8α-Epodioxy-(22<em>E</em>,24<em>R</em>)-ergosta-6,22-dien-3β-ol;NSC 31324;5,8-Epidioxy-5α,8α-ergosta-6,22-dien-3β-ol;5α,8α-Epidioxyergosterol;Ergosterol 5,8-peroxide;5α,8α-Epidioxy-22<em>E</em>-ergosta-6,22-dien-3β-ol;(3β,5α,22<em>E</em>,24<em>R</em>)-5,8-Epidioxyergosta-6,22-dien-3-ol;5α,8α-Epidoxy-(22<em>E</em>,24<em>R</em>)-ergosta-6,22-dien-3β-ol;5α,8α-Epidioxy-24-methyl-ergosta-6,22-dien-3β-ol;Ergosterol 5α,8α-peroxide;5α,8α-Epidioxyergosta-6,22-diene-3β-ol;(22E,24R)-Ergosta-5,7,22-trien-3β-olb",
    "duplicated_cas_no": "22321-17-1;49759-24-2;64907-19-3;122406-63-7;132008-50-5;256942-55-9;2044999-96-2;2131091-11-5;2135874-28-9;2170259-78-4",
    "SMILES": "C[C@@]12[C@@]3([C@@]4([C@]5([C@](C)(CC3)[C@@]([C@@H](/C=C/[C@@H](C(C)C)C)C)(CC5)[H])[H])C=C[C@@]1(OO4)C[C@@H](O)CC2)[H]",
    "meta_data": {
        "InChI": "InChI=1S/C28H44O3/c1-18(2)19(3)7-8-20(4)22-9-10-23-25(22,5)13-12-24-26(6)14-11-21(29)17-27(26)15-16-28(23,24)31-30-27/h7-8,15-16,18-24,29H,9-14,17H2,1-6H3/b8-7+/t19-,20+,21-,22+,23+,24+,25+,26+,27+,28-/m0/s1",
        "InChIKey": null,
        "Canonical SMILES": "OC1CCC2(C)C3CCC4(C)C(CCC4C53OOC2(C=C5)C1)C(C=CC(C)C(C)C)C",
        "Molecular Formula": "C<sub>28</sub>H<sub>44</sub>O<sub>3</sub>",
        "Molecular Mass": "428.65",
        "Melting Point": "178 °C"
    }
}