{
    "cas_no": "138564-60-0",
    "key_name": "10<em>H</em>-Thieno[2,3-<em>b</em>][1,5]benzodiazepin-4-amine, 2-methyl-, hydrochloride (1:1)",
    "cn_name": "4-氨基-2-甲基-10H-噻吩[2,3-b][1,5]苯并二氮杂卓盐酸盐;",
    "alternate_name": "10<em>H</em>-Thieno[2,3-<em>b</em>][1,5]benzodiazepin-4-amine, 2-methyl-, hydrochloride (1:1);10<em>H</em>-Thieno[2,3-<em>b</em>][1,5]benzodiazepin-4-amine, 2-methyl-, monohydrochloride;4-Amino-2-methyl-10<em>H</em>-thieno[2,3-<em>b</em>][1,5]benzodiazepine monohydrochloride;4-Amino-2-methyl-10<em>H</em>-thieno[2,3-<em>b</em>][1,5]benzodiazepine hydrochloride;Olanzamine",
    "duplicated_cas_no": "",
    "SMILES": "NC=1C2=C(NC=3C(N1)=CC=CC3)SC(C)=C2.Cl",
    "meta_data": {
        "InChI": "InChI=1S/C12H11N3S.ClH/c1-7-6-8-11(13)14-9-4-2-3-5-10(9)15-12(8)16-7;/h2-6,15H,1H3,(H2,13,14);1H",
        "InChIKey": null,
        "Canonical SMILES": "Cl.N1=C(N)C=2C=C(SC2NC=3C=CC=CC13)C",
        "Molecular Formula": "C<sub>12</sub>H<sub>11</sub>N<sub>3</sub>S.ClH",
        "Molecular Mass": "",
        "Melting Point": "&gt;250 °C"
    }
}