{
    "cas_no": "21249-59-2",
    "key_name": "Butanoic acid, 3-bromo-, methyl ester",
    "cn_name": "3-溴丁酸甲酯;",
    "alternate_name": "Butanoic acid, 3-bromo-, methyl ester;Butyric acid, 3-bromo-, methyl ester;Methyl 3-bromobutanoate;Methyl 3-bromobutyrate",
    "duplicated_cas_no": "",
    "SMILES": "C(CC(Br)C)(OC)=O",
    "meta_data": {
        "InChI": "InChI=1S/C5H9BrO2/c1-4(6)3-5(7)8-2/h4H,3H2,1-2H3",
        "InChIKey": null,
        "Canonical SMILES": "O=C(OC)CC(Br)C",
        "Molecular Formula": "C<sub>5</sub>H<sub>9</sub>BrO<sub>2</sub>",
        "Molecular Mass": "181.03",
        "Boiling Point": "71 °C @ Press: 15 Torr",
        "Density": "1.3858 g/cm³ @ Temp: 25 °C"
    }
}