{
    "cas_no": "573-20-6",
    "key_name": "Vitamin K<sub>4</sub>",
    "cn_name": "维生素K4;2-甲基-1,4-萘二酚双醋酸酯;",
    "alternate_name": "1,4-Naphthalenediol, 2-methyl-, 1,4-diacetate;1,4-Naphthalenediol, 2-methyl-, diacetate;Vitamin K<sub>4</sub>;Davitamon-K;1,4-Diacetoxy-2-methylnaphthalene;Kapilin;Kapilon;Kappaxan;Kativ powder;Kayvite;Menadiol diacetate;2-Methyl-1,4-naphthohydroquinone diacetate;Prokayvit Oral;Vitamin K diacetate;Vitavel K;Acetomenaphthone;Adaprin;Pafavit;Davitamon-K-oral;Kapathrom;2-Methyl-1,4-naphthoquinol diacetate;NSC 403062;Acetomenaphtone",
    "duplicated_cas_no": "",
    "SMILES": "O(C(C)=O)C=1C2=C(C(OC(C)=O)=C(C)C1)C=CC=C2",
    "meta_data": {
        "InChI": "InChI=1S/C15H14O4/c1-9-8-14(18-10(2)16)12-6-4-5-7-13(12)15(9)19-11(3)17/h4-8H,1-3H3",
        "InChIKey": null,
        "Canonical SMILES": "O=C(OC1=CC(=C(OC(=O)C)C=2C=CC=CC12)C)C",
        "Molecular Formula": "C<sub>15</sub>H<sub>14</sub>O<sub>4</sub>",
        "Molecular Mass": "258.27",
        "Melting Point": "113 °C"
    }
}