{
    "cas_no": "605-23-2",
    "key_name": "1-β-<span class=\"text-smallcaps\">D</span>-Arabinofuranosyl-5-methyl-2,4(1<em>H</em>,3<em>H</em>)-pyrimidinedione",
    "cn_name": "1-β-D-阿拉伯呋喃糖苷胸腺嘧啶;",
    "alternate_name": "2,4(1<em>H</em>,3<em>H</em>)-Pyrimidinedione, 1-β-<span class=\"text-smallcaps\">D</span>-arabinofuranosyl-5-methyl-;Thymine, 1-β-<span class=\"text-smallcaps\">D</span>-arabinofuranosyl-;1-β-<span class=\"text-smallcaps\">D</span>-Arabinofuranosyl-5-methyl-2,4(1<em>H</em>,3<em>H</em>)-pyrimidinedione;Spongothymidine;Spongothymidin;Thymine arabinoside;1-β-<span class=\"text-smallcaps\">D</span>-Arabinofuranosylthymine;Arabinosylthymine;Ara-T;5-Methylarabinosyluracil;NSC 68929;1-β-D Arabinofuranosylthymine;Chembridge 5141213",
    "duplicated_cas_no": "2946-29-4",
    "SMILES": "O[C@@H]1[C@@H](O[C@H](CO)[C@H]1O)N2C(=O)NC(=O)C(C)=C2",
    "meta_data": {
        "InChI": "InChI=1S/C10H14N2O6/c1-4-2-12(10(17)11-8(4)16)9-7(15)6(14)5(3-13)18-9/h2,5-7,9,13-15H,3H2,1H3,(H,11,16,17)/t5-,6-,7+,9-/m1/s1",
        "InChIKey": null,
        "Canonical SMILES": "O=C1NC(=O)N(C=C1C)C2OC(CO)C(O)C2O",
        "Molecular Formula": "C<sub>10</sub>H<sub>14</sub>N<sub>2</sub>O<sub>6</sub>",
        "Molecular Mass": "258.23",
        "Melting Point": "246-247 °C"
    }
}