{
    "cas_no": "2683-43-4",
    "key_name": "2,4-Dichloro-6-nitroaniline",
    "cn_name": "2,4-二氯-6-硝基苯胺;",
    "alternate_name": "Benzenamine, 2,4-dichloro-6-nitro-;Aniline, 2,4-dichloro-6-nitro-;2,4-Dichloro-6-nitrobenzenamine;2,4-Dichloro-6-nitroaniline;4,6-Dichloro-2-nitroaniline;2-Nitro-4,6-dichloroaniline;NSC 28582;1-Nitro-2-amine-3,5-dichlorobenzene;2,4-Dichloro-6-nitro-phenylamine",
    "duplicated_cas_no": "",
    "SMILES": "N(=O)(=O)C1=C(N)C(Cl)=CC(Cl)=C1",
    "meta_data": {
        "InChI": "InChI=1S/C6H4Cl2N2O2/c7-3-1-4(8)6(9)5(2-3)10(11)12/h1-2H,9H2",
        "InChIKey": null,
        "Canonical SMILES": "O=N(=O)C=1C=C(Cl)C=C(Cl)C1N",
        "Molecular Formula": "C<sub>6</sub>H<sub>4</sub>Cl<sub>2</sub>N<sub>2</sub>O<sub>2</sub>",
        "Molecular Mass": "207.01",
        "Melting Point": "102 °C"
    }
}