{
    "cas_no": "57625-74-8",
    "key_name": "Methyl α,α-dimethylbenzeneacetate",
    "cn_name": "2,2-二甲基苯乙酸甲酯;二甲基苯乙酸甲酯;",
    "alternate_name": "Benzeneacetic acid, α,α-dimethyl-, methyl ester;Hydratropic acid, α-methyl-, methyl ester;Methyl α,α-dimethylbenzeneacetate;Methyl 2-methyl-2-phenylpropionate;Methyl 2,2-dimethyl-2-phenylacetate;2-Methyl-2-phenylpropanoic acid methyl ester;Methyl 2-methyl-2-phenylpropanoate;2-Methyl-2-phenylpropionic acid methyl ester;Methyl α,α-dimethylphenylacetate",
    "duplicated_cas_no": "",
    "SMILES": "C(C(OC)=O)(C)(C)C1=CC=CC=C1",
    "meta_data": {
        "InChI": "InChI=1S/C11H14O2/c1-11(2,10(12)13-3)9-7-5-4-6-8-9/h4-8H,1-3H3",
        "InChIKey": null,
        "Canonical SMILES": "O=C(OC)C(C=1C=CC=CC1)(C)C",
        "Molecular Formula": "C<sub>11</sub>H<sub>14</sub>O<sub>2</sub>",
        "Molecular Mass": "178.23",
        "Boiling Point": "70 °C @ Press: 1.5 Torr"
    }
}