{
    "cas_no": "18282-40-1",
    "key_name": "1-Ethyl-2-iodobenzene",
    "cn_name": "1-乙基-2-碘苯;",
    "alternate_name": "Benzene, 1-ethyl-2-iodo-;1-Ethyl-2-iodobenzene;<em>o</em>-Ethyliodobenzene;1-Iodo-2-ethylbenzene;2-Ethyliodobenzene",
    "duplicated_cas_no": "",
    "SMILES": "C(C)C1=C(I)C=CC=C1",
    "meta_data": {
        "InChI": "InChI=1S/C8H9I/c1-2-7-5-3-4-6-8(7)9/h3-6H,2H2,1H3",
        "InChIKey": null,
        "Canonical SMILES": "IC=1C=CC=CC1CC",
        "Molecular Formula": "C<sub>8</sub>H<sub>9</sub>I",
        "Molecular Mass": "232.06",
        "Boiling Point": "220-221 °C"
    }
}