{
    "cas_no": "823-57-4",
    "key_name": "2-Bromo-5-chlorobenzenamine",
    "cn_name": "2-Bromo-5-chloroaniline;",
    "alternate_name": "Benzenamine, 2-bromo-5-chloro-;Aniline, 2-bromo-5-chloro-;2-Bromo-5-chlorobenzenamine;2-Bromo-5-chloroaniline;2-Bromo-5-chloro-phenylamine",
    "duplicated_cas_no": "",
    "SMILES": "NC1=C(Br)C=CC(Cl)=C1",
    "meta_data": {
        "InChI": "InChI=1S/C6H5BrClN/c7-5-2-1-4(8)3-6(5)9/h1-3H,9H2",
        "InChIKey": null,
        "Canonical SMILES": "ClC1=CC=C(Br)C(N)=C1",
        "Molecular Formula": "C<sub>6</sub>H<sub>5</sub>BrClN",
        "Molecular Mass": "206.47",
        "Boiling Point": "127-128 °C @ Press: 7 Torr",
        "Melting Point": "59 °C"
    }
}