{
    "cas_no": "696-60-6",
    "key_name": "4-Hydroxybenzylamine",
    "cn_name": null,
    "alternate_name": "Phenol, 4-(aminomethyl)-;<em>p</em>-Cresol, α-amino-;4-(Aminomethyl)phenol;4-Hydroxybenzylamine;<em>p</em>-Hydroxybenzylamine;<em>p</em>-(Aminomethyl)phenol;4-Hydroxybenzenemethanamine;<em>p</em>-Hydroxybenzenemethanamine;NSC 125720;[(4-Hydroxyphenyl)methyl]amine;(4-Hydroxyphenyl)methanamine",
    "duplicated_cas_no": "",
    "SMILES": "C(N)C1=CC=C(O)C=C1",
    "meta_data": {
        "InChI": "InChI=1S/C7H9NO/c8-5-6-1-3-7(9)4-2-6/h1-4,9H,5,8H2",
        "InChIKey": null,
        "Canonical SMILES": "OC1=CC=C(C=C1)CN",
        "Molecular Formula": "C<sub>7</sub>H<sub>9</sub>NO",
        "Molecular Mass": "123.15",
        "Melting Point": "114-115 °C"
    }
}