{
    "cas_no": "4036-30-0",
    "key_name": "(+)-Phenylsuccinic acid",
    "cn_name": "(S)-(+)-苯基丁二酸;(S)-(+)-苯基琥珀酸;",
    "alternate_name": "Butanedioic acid, 2-phenyl-, (2<em>S</em>)-;Succinic acid, phenyl-, <span class=\"text-smallcaps\">D</span>-(+)-;Butanedioic acid, phenyl-, (<em>S</em>)-;Butanedioic acid, phenyl-, (2<em>S</em>)-;(2<em>S</em>)-2-Phenylbutanedioic acid;(+)-Phenylsuccinic acid;(<em>S</em>)-Phenylsuccinic acid;(+)-2-Phenylsuccinic acid;(<em>S</em>)-2-Phenylsuccinic acid;(<em>S</em>)-(+)-Phenylsuccinic acid;(2S)-2-Phenylbutanedioic acid",
    "duplicated_cas_no": "",
    "SMILES": "[C@@H](CC(O)=O)(C(O)=O)C1=CC=CC=C1",
    "meta_data": {
        "InChI": "InChI=1S/C10H10O4/c11-9(12)6-8(10(13)14)7-4-2-1-3-5-7/h1-5,8H,6H2,(H,11,12)(H,13,14)/t8-/m0/s1",
        "InChIKey": null,
        "Canonical SMILES": "O=C(O)CC(C(=O)O)C=1C=CC=CC1",
        "Molecular Formula": "C<sub>10</sub>H<sub>10</sub>O<sub>4</sub>",
        "Molecular Mass": "194.18",
        "Melting Point": "138-140 °C"
    }
}