{
    "cas_no": "4368-28-9",
    "key_name": "Tetrodotoxin",
    "cn_name": null,
    "alternate_name": "5,9:7,10a-Dimethano-10a<em>H</em>-[1,3]dioxocino[6,5-<em>d</em>]pyrimidine-4,7,10,11,12-pentol, 2-amino-1,4,4a,5,9,10-hexahydro-12-(hydroxymethyl)-, (4<em>R</em>,4a<em>R</em>,5<em>R</em>,7<em>S</em>,9<em>S</em>,10<em>S</em>,10a<em>R</em>,11<em>S</em>,12<em>S</em>)-;Tetrodotoxin;8a(1<em>H</em>)-Quinazolineorthoglycolic acid, octahydro-4,5,6,7,8-pentahydroxy-6-(hydroxymethyl)-2-imino-, cyclic 8a,5:8a,7-ester;(4<em>R</em>,4a<em>R</em>,5<em>R</em>,7<em>S</em>,9<em>S</em>,10<em>S</em>,10a<em>R</em>,11<em>S</em>,12<em>S</em>)-2-Amino-1,4,4a,5,9,10-hexahydro-12-(hydroxymethyl)-5,9:7,10a-dimethano-10a<em>H</em>-[1,3]dioxocino[6,5-<em>d</em>]pyrimidine-4,7,10,11,12-pentol;Tarichatoxin;Spheroidine;5,9:7,10a-Dimethano-10a<em>H</em>-[1,3]dioxocino[6,5-<em>d</em>]pyrimidine-4,7,10,11,12-pentol, octahydro-12-(hydroxymethyl)-2-imino-, [4<em>R</em>-(4α,4aα,5α,7α,9α,10α,10aβ,11<em>S</em>*,12<em>S</em>*)]-;Maculotoxin;Tetrodotoxine;[4<em>R</em>-(4α,4aα,5α,7α,9α,10α,10aβ,11<em>S</em>*,12<em>S</em>*)]-Octahydro-12-(hydroxymethyl)-2-imino-5,9:7,10a-dimethano-10a<em>H</em>-[1,3]dioxocino[6,5-<em>d</em>]pyrimidine-4,7,10,11,12-pentol;BJT 1;<em>Babylonia</em><em>japonica</em> toxin 1;Araregai toxin;TTX;(-)-Tetrodotoxin;PFT-1 Toxin;Tectin;MeSH ID: D013779",
    "duplicated_cas_no": "2229-61-0;9014-39-5;11005-69-9;11026-09-8;12626-86-7;17289-88-2;954370-68-4;2244057-51-8",
    "SMILES": "O[C@H]1[C@]23[C@]([C@@]4([C@](CO)(O)[C@]1(O[C@](O)([C@H]2O)O4)[H])[H])([C@@H](O)N=C(N)N3)[H]",
    "meta_data": {
        "InChI": "InChI=1S/C11H17N3O8/c12-8-13-6(17)2-4-9(19,1-15)5-3(16)10(2,14-8)7(18)11(20,21-4)22-5/h2-7,15-20H,1H2,(H3,12,13,14)/t2-,3-,4-,5+,6-,7+,9+,10-,11+/m1/s1",
        "InChIKey": null,
        "Canonical SMILES": "OCC1(O)C2OC3(O)OC1C4C(O)N=C(N)NC4(C2O)C3O",
        "Molecular Formula": "C<sub>11</sub>H<sub>17</sub>N<sub>3</sub>O<sub>8</sub>",
        "Molecular Mass": "319.27",
        "Melting Point": "280 °C (decomp)"
    }
}