{
    "cas_no": "371-62-0",
    "key_name": "2-Fluoroethanol",
    "cn_name": "2-氟乙醇;",
    "alternate_name": "Ethanol, 2-fluoro-;2-Fluoroethanol;Ethylene fluorohydrin;Flutritex 2;1-Fluoroethan-2-ol;β-Fluoroethanol;NSC 158283",
    "duplicated_cas_no": "",
    "SMILES": "C(CO)F",
    "meta_data": {
        "InChI": "InChI=1S/C2H5FO/c3-1-2-4/h4H,1-2H2",
        "InChIKey": null,
        "Canonical SMILES": "FCCO",
        "Molecular Formula": "C<sub>2</sub>H<sub>5</sub>FO",
        "Molecular Mass": "64.06",
        "Boiling Point": "103.5 °C",
        "Melting Point": "-26.4 °C",
        "Density": "1.1040 g/cm³ @ Temp: 20 °C"
    }
}