{
    "cas_no": "57455-06-8",
    "key_name": "(3-Iodophenyl)methanol",
    "cn_name": "3-碘苯甲醇;",
    "alternate_name": "Benzenemethanol, 3-iodo-;Benzyl alcohol, <em>m</em>-iodo-;3-Iodobenzenemethanol;<em>m</em>-Iodobenzyl alcohol;(3-Iodophenyl)methanol;3-Iodobenzyl alcohol;3-(Hydroxymethyl)iodobenzene;3-(Hydroxymethyl)phenyl iodide;3-Hydroxymethyl-1-iodobenzene;1-Iodo-3-(hydroxymethyl)benzene",
    "duplicated_cas_no": "185532-91-6",
    "SMILES": "C(O)C1=CC(I)=CC=C1",
    "meta_data": {
        "InChI": "InChI=1S/C7H7IO/c8-7-3-1-2-6(4-7)5-9/h1-4,9H,5H2",
        "InChIKey": null,
        "Canonical SMILES": "IC1=CC=CC(=C1)CO",
        "Molecular Formula": "C<sub>7</sub>H<sub>7</sub>IO",
        "Molecular Mass": "234.03",
        "Boiling Point": "165 °C @ Press: 16 Torr"
    }
}