{
    "cas_no": "12040-02-7",
    "key_name": "Tin telluride (SnTe)",
    "cn_name": "碲化锡(II);",
    "alternate_name": "Tin telluride (SnTe);Stannous telluride;Tin monotelluride;Tin telluride;Tin(2+) telluride",
    "duplicated_cas_no": "1802633-49-3;1832621-77-8;2138405-58-8;2294933-18-7;2323616-68-6;2418620-46-7;2490670-77-2",
    "SMILES": "[Sn]=[Te]",
    "meta_data": {
        "InChI": "InChI=1S/Sn.Te",
        "InChIKey": null,
        "Canonical SMILES": "[Sn]=[Te]",
        "Molecular Formula": "SnTe",
        "Molecular Mass": "",
        "Melting Point": "780 °C",
        "Density": "6.02 g/cm³"
    }
}