{
    "cas_no": "29968-78-3",
    "key_name": "Benzeneethanamine, 4-nitro-, hydrochloride (1:1)",
    "cn_name": "4-硝基苯乙胺盐酸盐;",
    "alternate_name": "Benzeneethanamine, 4-nitro-, hydrochloride (1:1);Benzeneethanamine, 4-nitro-, monohydrochloride;Phenethylamine, <em>p</em>-nitro-, monohydrochloride;2-(4-Nitrophenyl)ethylamine hydrochloride;<em>p</em>-Nitrophenethylamine hydrochloride;4-Nitrophenethylamine hydrochloride;β-(<em>p</em>-Nitrophenyl)ethylamine hydrochloride;4-Nitrobenzeneethanamine monohydrochloride;2-(4-Nitrophenyl)ethanamine hydrochloride;<em>p</em>-Nitrophenylethylamine hydrochloride;2-(4-Nitrophenyl)ethan-1-amine hydrochloride",
    "duplicated_cas_no": "",
    "SMILES": "N(=O)(=O)C1=CC=C(CCN)C=C1.Cl",
    "meta_data": {
        "InChI": "InChI=1S/C8H10N2O2.ClH/c9-6-5-7-1-3-8(4-2-7)10(11)12;/h1-4H,5-6,9H2;1H",
        "InChIKey": null,
        "Canonical SMILES": "Cl.O=N(=O)C1=CC=C(C=C1)CCN",
        "Molecular Formula": "C<sub>8</sub>H<sub>10</sub>N<sub>2</sub>O<sub>2</sub>.ClH",
        "Molecular Mass": "",
        "Melting Point": "209-210 °C"
    }
}