{
    "cas_no": "115388-32-4",
    "key_name": "5,5′-Diethoxy-3,3′,4,4′-tetrahydro-8,8′-dimethoxy-1,1′-binaphthalene",
    "cn_name": null,
    "alternate_name": "1,1′-Binaphthalene, 5,5′-diethoxy-3,3′,4,4′-tetrahydro-8,8′-dimethoxy-;1,1′-Binaphthyl, 5,5′-diethoxy-3,3′,4,4′-tetrahydro-8,8′-dimethoxy-;5,5′-Diethoxy-3,3′,4,4′-tetrahydro-8,8′-dimethoxy-1,1′-binaphthalene",
    "duplicated_cas_no": "",
    "SMILES": "O(C)C1=C2C(=CCCC2=C(OCC)C=C1)C=3C=4C(=C(OCC)C=CC4OC)CCC3",
    "meta_data": {
        "InChI": "InChI=1S/C26H30O4/c1-5-29-21-13-15-23(27-3)25-17(9-7-11-19(21)25)18-10-8-12-20-22(30-6-2)14-16-24(28-4)26(18)20/h9-10,13-16H,5-8,11-12H2,1-4H3",
        "InChIKey": null,
        "Canonical SMILES": "O(C1=CC=C(OCC)C2=C1C(=CCC2)C3=CCCC4=C(OCC)C=CC(OC)=C34)C",
        "Molecular Formula": "C<sub>26</sub>H<sub>30</sub>O<sub>4</sub>",
        "Molecular Mass": "406.51",
        "Melting Point": "224-225 °C"
    }
}