{
    "cas_no": "6738-23-4",
    "key_name": "2,4-Dimethylanisole",
    "cn_name": "2,4-二甲基苯甲醚;",
    "alternate_name": "Benzene, 1-methoxy-2,4-dimethyl-;Anisole, 2,4-dimethyl-;1-Methoxy-2,4-dimethylbenzene;2,4-Dimethylanisole;4-Methoxy-<em>m</em>-xylene;4-Methoxy-1,3-dimethylbenzene;NSC 137834;2,4-Dimethylphenyl methyl ether",
    "duplicated_cas_no": "",
    "SMILES": "O(C)C1=C(C)C=C(C)C=C1",
    "meta_data": {
        "InChI": "InChI=1S/C9H12O/c1-7-4-5-9(10-3)8(2)6-7/h4-6H,1-3H3",
        "InChIKey": null,
        "Canonical SMILES": "O(C1=CC=C(C=C1C)C)C",
        "Molecular Formula": "C<sub>9</sub>H<sub>12</sub>O",
        "Molecular Mass": "136.19",
        "Boiling Point": "192 °C",
        "Melting Point": "165 °C",
        "Density": "0.974 g/cm³ @ Temp: 16 °C"
    }
}