{
    "cas_no": "879-72-1",
    "key_name": "1-Propanone, 3-(dimethylamino)-1-phenyl-, hydrochloride (1:1)",
    "cn_name": "5-氨基-2-甲基-N-苯基苯磺酰胺;3-二甲基氨基苯丙酮盐酸;",
    "alternate_name": "1-Propanone, 3-(dimethylamino)-1-phenyl-, hydrochloride (1:1);Propiophenone, 3-(dimethylamino)-, hydrochloride;1-Propanone, 3-(dimethylamino)-1-phenyl-, hydrochloride;β-Dimethylaminopropiophenone hydrochloride;3-(Dimethylamino)propiophenone hydrochloride;Dimethylaminopropiophenone hydrochloride;3-(Dimethylamino)-1-phenyl-1-propanone hydrochloride;Dimethyl(3-oxo-3-phenylpropyl)ammonium chloride;NSC 629913",
    "duplicated_cas_no": "",
    "SMILES": "C(CCN(C)C)(=O)C1=CC=CC=C1.Cl",
    "meta_data": {
        "InChI": "InChI=1S/C11H15NO.ClH/c1-12(2)9-8-11(13)10-6-4-3-5-7-10;/h3-7H,8-9H2,1-2H3;1H",
        "InChIKey": null,
        "Canonical SMILES": "Cl.O=C(C=1C=CC=CC1)CCN(C)C",
        "Molecular Formula": "C<sub>11</sub>H<sub>15</sub>NO.ClH",
        "Molecular Mass": "",
        "Boiling Point": "150.6 °C",
        "Melting Point": "153-156 °C"
    }
}