{
    "cas_no": "2624-43-3",
    "key_name": "Cyclofenil",
    "cn_name": "环芬尼;环己基亚甲基二苯酚二乙酸酯;",
    "alternate_name": "Phenol, 4,4′-(cyclohexylidenemethylene)bis-, 1,1′-diacetate;<em>p</em>-Cresol, α-cyclohexylidene-α-(<em>p</em>-hydroxyphenyl)-, diacetate;Phenol, 4-[[4-(acetyloxy)phenyl]cyclohexylidenemethyl]-, acetate;Phenol, 4,4′-(cyclohexylidenemethylene)bis-, diacetate;4,4′-(Cyclohexylidenemethylene)diphenol diacetate ester;Bis(<em>p</em>-acetoxyphenyl)cyclohexylidenemethane;F 6066;Cyclofenyl;Cyclopenil;Sexovid;Cyclofenil;Bis(<em>p</em>-hydroxyphenyl)cyclohexyldienemethane diacetate;α-Cyclohexylidene-α-(<em>p</em>-hydroxyphenyl)-<em>p</em>-cresol diacetate;Cyclophenyl;α-(<em>p</em>-Hydroxyphenyl)-α-cyclohexylidene-<em>p</em>-cresol diacetate;Sanocrisin;Ondogyne;H 3452;Ondonid;Fertodur;ICI 48213;Oginex;Sexadieno;Sexovar;Cyclophenil;Neoclym;Rehibin;NSC 86464;(Cyclohexylidenemethylene)bis(4,1-phenylene) diacetate",
    "duplicated_cas_no": "",
    "SMILES": "C(C1=CC=C(OC(C)=O)C=C1)(C2=CC=C(OC(C)=O)C=C2)=C3CCCCC3",
    "meta_data": {
        "InChI": "InChI=1S/C23H24O4/c1-16(24)26-21-12-8-19(9-13-21)23(18-6-4-3-5-7-18)20-10-14-22(15-11-20)27-17(2)25/h8-15H,3-7H2,1-2H3",
        "InChIKey": null,
        "Canonical SMILES": "O=C(OC1=CC=C(C=C1)C(C2=CC=C(OC(=O)C)C=C2)=C3CCCCC3)C",
        "Molecular Formula": "C<sub>23</sub>H<sub>24</sub>O<sub>4</sub>",
        "Molecular Mass": "364.43",
        "Melting Point": "135.5 °C"
    }
}