{
    "cas_no": "14452-30-3",
    "key_name": "3-Iodoacetophenone",
    "cn_name": null,
    "alternate_name": "Ethanone, 1-(3-iodophenyl)-;Acetophenone, 3′-iodo-;1-(3-Iodophenyl)ethanone;<em>m</em>-Iodoacetophenone;3-Iodoacetophenone;3′-Iodoacetophenone;3-Acetyl-1-iodobenzene;1-(3-Iodophenyl)ethan-1-one",
    "duplicated_cas_no": "",
    "SMILES": "C(C)(=O)C1=CC(I)=CC=C1",
    "meta_data": {
        "InChI": "InChI=1S/C8H7IO/c1-6(10)7-3-2-4-8(9)5-7/h2-5H,1H3",
        "InChIKey": null,
        "Canonical SMILES": "O=C(C=1C=CC=C(I)C1)C",
        "Molecular Formula": "C<sub>8</sub>H<sub>7</sub>IO",
        "Molecular Mass": "246.05",
        "Boiling Point": "117 °C @ Press: 4 Torr"
    }
}