{
    "cas_no": "591-24-2",
    "key_name": "(<em>RS</em>)-3-Methylcyclohexanone",
    "cn_name": "3-甲基环己酮;",
    "alternate_name": "Cyclohexanone, 3-methyl-;3-Methylcyclohexanone;3-Methyl-1-cyclohexanone;(±)-3-Methylcyclohexanone;(<em>RS</em>)-3-Methylcyclohexanone;NSC 3709",
    "duplicated_cas_no": "625-96-7",
    "SMILES": "CC1CC(=O)CCC1",
    "meta_data": {
        "InChI": "InChI=1S/C7H12O/c1-6-3-2-4-7(8)5-6/h6H,2-5H2,1H3",
        "InChIKey": null,
        "Canonical SMILES": "O=C1CCCC(C)C1",
        "Molecular Formula": "C<sub>7</sub>H<sub>12</sub>O",
        "Molecular Mass": "112.17",
        "Boiling Point": "169.5 °C",
        "Melting Point": "178 °C",
        "Density": "0.9406 g/cm³ @ Temp: 0 °C"
    }
}