{
    "cas_no": "53348-04-2",
    "key_name": "9,10-Diaminophenanthrene",
    "cn_name": null,
    "alternate_name": "9,10-Phenanthrenediamine;9,10-Diaminophenanthrene;NSC 80191",
    "duplicated_cas_no": "",
    "SMILES": "NC1=C2C(=C3C(=C1N)C=CC=C3)C=CC=C2",
    "meta_data": {
        "InChI": "InChI=1S/C14H12N2/c15-13-11-7-3-1-5-9(11)10-6-2-4-8-12(10)14(13)16/h1-8H,15-16H2",
        "InChIKey": null,
        "Canonical SMILES": "NC1=C(N)C=2C=CC=CC2C=3C=CC=CC13",
        "Molecular Formula": "C<sub>14</sub>H<sub>12</sub>N<sub>2</sub>",
        "Molecular Mass": "208.26",
        "Melting Point": "160 °C"
    }
}