{
    "cas_no": "18172-33-3",
    "key_name": "Cyclopiazonic acid",
    "cn_name": null,
    "alternate_name": "9<em>H</em>-Pyrrolo[1′,2′:2,3]isoindolo[4,5,6-<em>cd</em>]indol-9-one, 10-acetyl-2,6,6a,7,11a,11b-hexahydro-11-hydroxy-7,7-dimethyl-, (6a<em>R</em>,11a<em>S</em>,11b<em>R</em>)-;9<em>H</em>-Pyrrolo[1′,2′:2,3]isoindolo[4,5,6-<em>cd</em>]indol-9-one, 10-acetyl-2,6,6a,7,11a,11b-hexahydro-11-hydroxy-7,7-dimethyl-, (6aα,11aβ,11bα)-;(6a<em>R</em>,11a<em>S</em>,11b<em>R</em>)-10-Acetyl-2,6,6a,7,11a,11b-hexahydro-11-hydroxy-7,7-dimethyl-9<em>H</em>-pyrrolo[1′,2′:2,3]isoindolo[4,5,6-<em>cd</em>]indol-9-one;α-Cyclopiazonic acid;Cyclopiazonic acid;NSC 117181",
    "duplicated_cas_no": "",
    "SMILES": "OC=1[C@@]2([C@]3(C=4C=5C(C[C@]3(C(C)(C)N2C(=O)C1C(C)=O)[H])=CC=CC5NC4)[H])[H]",
    "meta_data": {
        "InChI": "InChI=1S/C20H20N2O3/c1-9(23)14-18(24)17-16-11-8-21-13-6-4-5-10(15(11)13)7-12(16)20(2,3)22(17)19(14)25/h4-6,8,12,16-17,21,24H,7H2,1-3H3/t12-,16+,17+/m1/s1",
        "InChIKey": null,
        "Canonical SMILES": "O=C1C(C(=O)C)=C(O)C2N1C(C)(C)C3CC=4C=CC=C5NC=C(C54)C23",
        "Molecular Formula": "C<sub>20</sub>H<sub>20</sub>N<sub>2</sub>O<sub>3</sub>",
        "Molecular Mass": "336.38",
        "Melting Point": "245-246 °C"
    }
}