{
    "cas_no": "16088-62-3",
    "key_name": "(2<em>S</em>)-2-Methyloxirane",
    "cn_name": "S-环氧丙烷;(S)-(-)-1,2-环氧丙烷;",
    "alternate_name": "Oxirane, 2-methyl-, (2<em>S</em>)-;Oxirane, methyl-, (<em>S</em>)-;Propylene oxide, (<em>S</em>)-(-)-;Oxirane, methyl-, (2<em>S</em>)-;(2<em>S</em>)-2-Methyloxirane;(-)-Propylene oxide;<em>l</em>-Propylene oxide;(<em>S</em>)-Propylene oxide;(<em>S</em>)-2-Methyloxirane;(<em>S</em>)-(-)-Propylene oxide;(-)-Methyloxirane;(<em>S</em>)-(-)-Methyloxirane;(<em>S</em>)-Methyloxirane;<em>S</em>-(-)-1,2-Epoxypropane;(<em>S</em>)-Propene oxide;(<em>S</em>)-(-)-Propene oxide;(2<em>S</em>)-Methyloxirane;(<em>S</em>)-1,2-Epoxypropane;(2S)-2-Methyloxirane",
    "duplicated_cas_no": "",
    "SMILES": "C[C@H]1CO1",
    "meta_data": {
        "InChI": "InChI=1S/C3H6O/c1-3-2-4-3/h3H,2H2,1H3/t3-/m0/s1",
        "InChIKey": null,
        "Canonical SMILES": "O1CC1C",
        "Molecular Formula": "C<sub>3</sub>H<sub>6</sub>O",
        "Molecular Mass": "58.08",
        "Boiling Point": "37 °C"
    }
}