{
    "cas_no": "19956-53-7",
    "key_name": "Lucidone",
    "cn_name": null,
    "alternate_name": "4-Cyclopentene-1,3-dione, 2-[(2<em>E</em>)-1-hydroxy-3-phenyl-2-propenylidene]-4-methoxy-, (2<em>Z</em>)-;4-Cyclopentene-1,3-dione, 2-(α-hydroxycinnamylidene)-4-methoxy-;4-Cyclopentene-1,3-dione, 2-(1-hydroxy-3-phenyl-2-propenylidene)-4-methoxy-, (<em>Z</em>,<em>E</em>)-;(2<em>Z</em>)-2-[(2<em>E</em>)-1-Hydroxy-3-phenyl-2-propenylidene]-4-methoxy-4-cyclopentene-1,3-dione;Lucidone",
    "duplicated_cas_no": "",
    "SMILES": "C(\\C=C\\C1=CC=CC=C1)(/O)=C\\2/C(=O)C(OC)=CC2=O",
    "meta_data": {
        "InChI": "InChI=1S/C15H12O4/c1-19-13-9-12(17)14(15(13)18)11(16)8-7-10-5-3-2-4-6-10/h2-9,16H,1H3/b8-7+,14-11-",
        "InChIKey": null,
        "Canonical SMILES": "O=C1C=C(OC)C(=O)C1=C(O)C=CC=2C=CC=CC2",
        "Molecular Formula": "C<sub>15</sub>H<sub>12</sub>O<sub>4</sub>",
        "Molecular Mass": "256.25",
        "Melting Point": "166.5-168.5 °C"
    }
}