{
    "cas_no": "6248-20-0",
    "key_name": "2,4-Dihydroxy-3-methylbenzaldehyde",
    "cn_name": "2,4-二羟基-3-甲基苯甲醛;",
    "alternate_name": "Benzaldehyde, 2,4-dihydroxy-3-methyl-;β-Resorcylaldehyde, 3-methyl-;2,4-Dihydroxy-3-methylbenzaldehyde;2,4-Dihydroxy-<em>m</em>-tolualdehyde;4-Formyl-2-methylresorcinol;3-Methyl-2,4-dihydroxybenzaldehyde",
    "duplicated_cas_no": "",
    "SMILES": "C(=O)C1=C(O)C(C)=C(O)C=C1",
    "meta_data": {
        "InChI": "InChI=1S/C8H8O3/c1-5-7(10)3-2-6(4-9)8(5)11/h2-4,10-11H,1H3",
        "InChIKey": null,
        "Canonical SMILES": "O=CC1=CC=C(O)C(=C1O)C",
        "Molecular Formula": "C<sub>8</sub>H<sub>8</sub>O<sub>3</sub>",
        "Molecular Mass": "152.15",
        "Melting Point": "150 °C"
    }
}