{
    "cas_no": "168828-90-8",
    "key_name": "(5<em>S</em>)-5-(Aminomethyl)-3-[3-fluoro-4-(4-morpholinyl)phenyl]-2-oxazolidinone",
    "cn_name": null,
    "alternate_name": "2-Oxazolidinone, 5-(aminomethyl)-3-[3-fluoro-4-(4-morpholinyl)phenyl]-, (5<em>S</em>)-;2-Oxazolidinone, 5-(aminomethyl)-3-[3-fluoro-4-(4-morpholinyl)phenyl]-, (<em>S</em>)-;(5<em>S</em>)-5-(Aminomethyl)-3-[3-fluoro-4-(4-morpholinyl)phenyl]-2-oxazolidinone;PNU 105868;(5<em>S</em>)-5-(Aminomethyl)-3-(3-fluoro-4-morpholinophenyl)-1,3-oxazolidin-2-one;(<em>S</em>)-<em>N</em>-[[3-[3-Fluoro-4-(4-morpholinyl)phenyl]-2-oxo-5-oxazolidinyl]methyl]amine;(<em>S</em>)-5-Aminomethyl-3-(3-fluoro-4-morpholinophenyl)-1,3-oxazolidin-2-one;(-)-(<em>S</em>)-5-(Aminomethyl)-3-(3-fluoro-4-morpholinophenyl)oxazolidin-2-one;(<em>S</em>)-5-Aminomethyl-3-[3-fluoro-4-(morpholin-4-yl)phenyl]oxazolidin-2-one;(5<em>S</em>)-5-(Aminomethyl)-3-[3-fluoro-4-(morpholin-4-yl)phenyl]-1,3-oxazolidin-2-one;(5S)-5-(Aminomethyl)-3-[3-fluoro-4-(morpholin-4-yl)phenyl]-1,3-oxazolidin-2-one;(5S)-5-(Aminomethyl)-3-(3-fluoro-4-morpholinophenyl)-1,3-oxazolidin-2-one;(<em>S</em>)-5-(Aminomethyl)-3-(3-fluoro-4-morpholinophenyl)oxazolidin-2-one",
    "duplicated_cas_no": "",
    "SMILES": "O=C1N(C[C@H](CN)O1)C2=CC(F)=C(C=C2)N3CCOCC3",
    "meta_data": {
        "InChI": "InChI=1S/C14H18FN3O3/c15-12-7-10(18-9-11(8-16)21-14(18)19)1-2-13(12)17-3-5-20-6-4-17/h1-2,7,11H,3-6,8-9,16H2/t11-/m0/s1",
        "InChIKey": null,
        "Canonical SMILES": "O=C1OC(CN)CN1C2=CC=C(C(F)=C2)N3CCOCC3",
        "Molecular Formula": "C<sub>14</sub>H<sub>18</sub>FN<sub>3</sub>O<sub>3</sub>",
        "Molecular Mass": "295.31",
        "Melting Point": "95-97.7 °C"
    }
}