{
    "cas_no": "149647-78-9",
    "key_name": "Vorinostat",
    "cn_name": "伏立诺他;N-羟基-N\"-苯基辛二酰胺;",
    "alternate_name": "Octanediamide, <em>N</em><sup>1</sup>-hydroxy-<em>N</em><sup>8</sup>-phenyl-;Octanediamide, <em>N</em>-hydroxy-<em>N</em>′-phenyl-;<em>N</em><sup>1</sup>-Hydroxy-<em>N</em><sup>8</sup>-phenyloctanediamide;SAHA;Suberoylanilide hydroxamic acid;Vorinostat;Zolinza;<em>N</em>-Hydroxy-<em>N</em>′-phenyloctanediamide;Suberoyl anilide bishydroxamide;WT 171",
    "duplicated_cas_no": "",
    "SMILES": "N(C(CCCCCCC(NO)=O)=O)C1=CC=CC=C1",
    "meta_data": {
        "InChI": "InChI=1S/C14H20N2O3/c17-13(15-12-8-4-3-5-9-12)10-6-1-2-7-11-14(18)16-19/h3-5,8-9,19H,1-2,6-7,10-11H2,(H,15,17)(H,16,18)",
        "InChIKey": null,
        "Canonical SMILES": "O=C(NO)CCCCCCC(=O)NC=1C=CC=CC1",
        "Molecular Formula": "C<sub>14</sub>H<sub>20</sub>N<sub>2</sub>O<sub>3</sub>",
        "Molecular Mass": "264.32",
        "Melting Point": "159-160.5 °C"
    }
}