{
    "cas_no": "6332-56-5",
    "key_name": "3-Nitro-2(1<em>H</em>)-pyridinone",
    "cn_name": "2-羟基-3-硝基吡啶;",
    "alternate_name": "2(1<em>H</em>)-Pyridinone, 3-nitro-;2-Pyridinol, 3-nitro-;2(1<em>H</em>)-Pyridone, 3-nitro-;3-Nitro-2(1<em>H</em>)-pyridinone;3-Nitro-2-pyridinol;3-Nitro-2-hydroxypyridine;2-Hydroxy-3-nitropyridine;3-Nitro-2-pyridone;3-Nitropyridin-2(1<em>H</em>)-one;3-Nitro-2-pyridinone;NSC 26281;3-Nitro-1,2-dihydropyridin-2-one",
    "duplicated_cas_no": "",
    "SMILES": "N(=O)(=O)C=1C(=O)NC=CC1",
    "meta_data": {
        "InChI": "InChI=1S/C5H4N2O3/c8-5-4(7(9)10)2-1-3-6-5/h1-3H,(H,6,8)",
        "InChIKey": null,
        "Canonical SMILES": "O=C1NC=CC=C1N(=O)=O",
        "Molecular Formula": "C<sub>5</sub>H<sub>4</sub>N<sub>2</sub>O<sub>3</sub>",
        "Molecular Mass": "140.10",
        "Melting Point": "224 °C"
    }
}