{
    "cas_no": "4377-33-7",
    "key_name": "Picolyl chloride",
    "cn_name": "2-氯甲基吡啶;",
    "alternate_name": "Pyridine, 2-(chloromethyl)-;2-(Chloromethyl)pyridine;2-Picolyl chloride;2-Pyridinemethyl chloride;2-Pyridylmethyl chloride;2-Pyridinylmethyl chloride;α-Picolyl chloride;Picolyl chloride;2-Picolinyl chloride",
    "duplicated_cas_no": "",
    "SMILES": "C(Cl)C1=CC=CC=N1",
    "meta_data": {
        "InChI": "InChI=1S/C6H6ClN/c7-5-6-3-1-2-4-8-6/h1-4H,5H2",
        "InChIKey": null,
        "Canonical SMILES": "ClCC1=NC=CC=C1",
        "Molecular Formula": "C<sub>6</sub>H<sub>6</sub>ClN",
        "Molecular Mass": "127.57",
        "Boiling Point": "73-76 °C @ Press: 10 Torr",
        "Melting Point": "79 °C"
    }
}