{
    "cas_no": "28466-26-4",
    "key_name": "1<em>H</em>-Pyrazol-4-amine",
    "cn_name": null,
    "alternate_name": "1<em>H</em>-Pyrazol-4-amine;Pyrazole, 4-amino-;4-Aminopyrazole;4-Amino-1<em>H</em>-pyrazole;1<em>H</em>-Pyrazol-4-ylamine;1<em>H</em>-Pyrazole-4-amine",
    "duplicated_cas_no": "",
    "SMILES": "NC=1C=NNC1",
    "meta_data": {
        "InChI": "InChI=1S/C3H5N3/c4-3-1-5-6-2-3/h1-2H,4H2,(H,5,6)",
        "InChIKey": null,
        "Canonical SMILES": "N1=CC(N)=CN1",
        "Molecular Formula": "C<sub>3</sub>H<sub>5</sub>N<sub>3</sub>",
        "Molecular Mass": "83.09",
        "Melting Point": "81 °C"
    }
}