{
    "cas_no": "423-54-1",
    "key_name": "2,2,3,3,4,4,5,5,6,6,7,7,8,8,8-Pentadecafluorooctanamide",
    "cn_name": "二氯异氰尿酸纳;二氯异氰尿酸纳;",
    "alternate_name": "Octanamide, 2,2,3,3,4,4,5,5,6,6,7,7,8,8,8-pentadecafluoro-;2,2,3,3,4,4,5,5,6,6,7,7,8,8,8-Pentadecafluorooctanamide;Perfluorocaprylamide;Perfluorooctanamide;Perfluorooctylamide;Pentadecafluorooctanamide;Perfluorooctanoic acid amide",
    "duplicated_cas_no": "",
    "SMILES": "C(C(C(C(C(N)=O)(F)F)(F)F)(F)F)(C(C(C(F)(F)F)(F)F)(F)F)(F)F",
    "meta_data": {
        "InChI": "InChI=1S/C8H2F15NO/c9-2(10,1(24)25)3(11,12)4(13,14)5(15,16)6(17,18)7(19,20)8(21,22)23/h(H2,24,25)",
        "InChIKey": null,
        "Canonical SMILES": "O=C(N)C(F)(F)C(F)(F)C(F)(F)C(F)(F)C(F)(F)C(F)(F)C(F)(F)F",
        "Molecular Formula": "C<sub>8</sub>H<sub>2</sub>F<sub>15</sub>NO",
        "Molecular Mass": "413.08",
        "Melting Point": "137 °C"
    }
}