{
    "cas_no": "4759-48-2",
    "key_name": "Isotretinoin",
    "cn_name": null,
    "alternate_name": "Retinoic acid, 13-<em>cis</em>-;13-<em>cis</em>-Retinoic acid;Neovitamin A acid;13-<em>cis</em>-Vitamin A acid;Ro 4-3780;13-<em>cis</em>-β-Retinoic acid;Isotretinoin;(13<em>Z</em>)-Retinoic acid;Accutane;Roaccutane;AGN 190013;Roaccutan;Accure;13-RA;Isotrex;IsotrexGel;<em>cis</em>-Retinoic acid;Absorica;Amnesteem;Claravis;Roacutan;MeSH ID: D015474",
    "duplicated_cas_no": "",
    "SMILES": "C(=C/C(=C/C=C/C(=C\\C(O)=O)/C)/C)\\C=1C(C)(C)CCCC1C",
    "meta_data": {
        "InChI": "InChI=1S/C20H28O2/c1-15(8-6-9-16(2)14-19(21)22)11-12-18-17(3)10-7-13-20(18,4)5/h6,8-9,11-12,14H,7,10,13H2,1-5H3,(H,21,22)/b9-6+,12-11+,15-8+,16-14-",
        "InChIKey": null,
        "Canonical SMILES": "O=C(O)C=C(C=CC=C(C=CC1=C(C)CCCC1(C)C)C)C",
        "Molecular Formula": "C<sub>20</sub>H<sub>28</sub>O<sub>2</sub>",
        "Molecular Mass": "300.44",
        "Melting Point": "174-175 °C"
    }
}