{
    "cas_no": "58625-96-0",
    "key_name": "Ethyl 2-methyl-2-pentenoate",
    "cn_name": null,
    "alternate_name": "2-Pentenoic acid, 2-methyl-, ethyl ester;Ethyl 2-methyl-2-pentenoate",
    "duplicated_cas_no": "",
    "SMILES": "C(C(OCC)=O)(=CCC)C",
    "meta_data": {
        "InChI": "InChI=1S/C8H14O2/c1-4-6-7(3)8(9)10-5-2/h6H,4-5H2,1-3H3",
        "InChIKey": null,
        "Canonical SMILES": "O=C(OCC)C(=CCC)C",
        "Molecular Formula": "C<sub>8</sub>H<sub>14</sub>O<sub>2</sub>",
        "Molecular Mass": "142.20",
        "Boiling Point": "66 °C @ Press: 15 Torr"
    }
}