{
    "cas_no": "2437-29-8",
    "key_name": "Malachite green oxalate",
    "cn_name": "碱性绿4;孔雀石绿;",
    "alternate_name": "Methanaminium, <em>N</em>-[4-[[4-(dimethylamino)phenyl]phenylmethylene]-2,5-cyclohexadien-1-ylidene]-<em>N</em>-methyl-, ethanedioate, ethanedioate (2:2:1);Malachite green oxalate;Ammonium, [4-[<em>p</em>-(dimethylamino)-α-phenylbenzylidene]-2,5-cyclohexadien-1-ylidene]dimethyl-, oxalate (1:1), oxalate (1:1);Ethanedioic acid, ion(1-), <em>N</em>-[4-[[4-(dimethylamino)phenyl]phenylmethylene]-2,5-cyclohexadien-1-ylidene]-<em>N</em>-methylmethanaminium, ethanedioate (2:1);Malachite green oxalate salt;C. I. Basic Green",
    "duplicated_cas_no": "150854-09-4;1313818-54-0",
    "SMILES": "C(C(O)=O)(O)=O.C(C1=CC=C(N(C)C)C=C1)(=C2C=CC(=[N+](C)C)C=C2)C3=CC=CC=C3.C(C(O)=O)([O-])=O",
    "meta_data": {
        "InChI": "InChI=1S/C23H25N2.2C2H2O4/c1-24(2)21-14-10-19(11-15-21)23(18-8-6-5-7-9-18)20-12-16-22(17-13-20)25(3)4;2*3-1(4)2(5)6/h5-17H,1-4H3;2*(H,3,4)(H,5,6)/q+1;;/p-1",
        "InChIKey": null,
        "Canonical SMILES": "O=C([O-])C(=O)O.O=C(O)C(=O)O.C=1C=CC(=CC1)C(C2=CC=C(C=C2)N(C)C)=C3C=CC(C=C3)=[N+](C)C",
        "Molecular Formula": "C<sub>23</sub>H<sub>25</sub>N<sub>2</sub>.<sup>1</sup>/<sub>2</sub>C<sub>2</sub>H<sub>2</sub>O<sub>4</sub>.C<sub>2</sub>HO<sub>4</sub>",
        "Molecular Mass": "",
        "Melting Point": "137-139 °C"
    }
}