{
    "cas_no": "42826-42-6",
    "key_name": "2,2-Dimethylpropanoic acid hydrazide",
    "cn_name": "2,2-二甲基丙酰肼;",
    "alternate_name": "Propanoic acid, 2,2-dimethyl-, hydrazide;Pivalic acid, hydrazide;2,2-Dimethylpropanoic acid hydrazide;2,2-Dimethylpropionic acid hydrazide;Pivaloylhydrazine;Pivalohydrazide;<em>tert</em>-Pentanoic acid hydrazide;2,2-Dimethylpropanoylhydrazine;2,2-Dimethylpropanehydrazide;<em>N</em>-(<em>tert</em>-Butylcarbonyl)hydrazine",
    "duplicated_cas_no": "",
    "SMILES": "C(C(C)(C)C)(NN)=O",
    "meta_data": {
        "InChI": "InChI=1S/C5H12N2O/c1-5(2,3)4(8)7-6/h6H2,1-3H3,(H,7,8)",
        "InChIKey": null,
        "Canonical SMILES": "O=C(NN)C(C)(C)C",
        "Molecular Formula": "C<sub>5</sub>H<sub>12</sub>N<sub>2</sub>O",
        "Molecular Mass": "116.16",
        "Boiling Point": "113 °C @ Press: 12 Torr",
        "Melting Point": "65 °C"
    }
}