{
    "cas_no": "159275-17-9",
    "key_name": "1-Piperidinecarboxylic acid, 4-(bromomethyl)-, phenylmethyl ester",
    "cn_name": null,
    "alternate_name": "1-Piperidinecarboxylic acid, 4-(bromomethyl)-, phenylmethyl ester;<em>N</em>-Benzyloxycarbonyl-4-bromomethylpiperidine;4-Bromomethylpiperidine-1-carboxylic acid benzyl ester;1-Benzyloxycarbonyl-4-bromomethylpiperidine;Benzyl 4-(bromomethyl)piperidine-1-carboxylate;Phenylmethyl 4-(bromomethyl)-1-piperidinecarboxylate",
    "duplicated_cas_no": "",
    "SMILES": "C(OCC1=CC=CC=C1)(=O)N2CCC(CBr)CC2",
    "meta_data": {
        "InChI": "InChI=1S/C14H18BrNO2/c15-10-12-6-8-16(9-7-12)14(17)18-11-13-4-2-1-3-5-13/h1-5,12H,6-11H2",
        "InChIKey": null,
        "Canonical SMILES": "O=C(OCC=1C=CC=CC1)N2CCC(CBr)CC2",
        "Molecular Formula": "C<sub>14</sub>H<sub>18</sub>BrNO<sub>2</sub>",
        "Molecular Mass": "312.20",
        "Melting Point": "64 °C"
    }
}