{
    "cas_no": "58632-95-4",
    "key_name": "2-(<em>tert</em>-Butoxycarbonyloxyimino)-2-phenylacetonitrile",
    "cn_name": "2-(叔丁氧羰基氧亚氨基)-2-苯乙腈;叔丁基苯乙腈肟碳酸酯;",
    "alternate_name": "Carbonic acid, (cyanophenylmethylene)azanyl 1,1-dimethylethyl ester;Benzeneacetonitrile, α-[[[(1,1-dimethylethoxy)carbonyl]oxy]imino]-;2-(<em>tert</em>-Butoxycarbonyloxyimino)-2-phenylacetonitrile;2-(<em>tert</em>-Butyloxycarbonyloxyimino)-2-phenylacetonitrile;Boc-ON;NSC 328381;2-(<em>tert</em>.-Butoxycarbonyloxyimino)phenylacetonitrile;2-(<em>tert</em>-Butoxycarbonyloximino)-2-phenylacetonitrile;2-(Boc-oxyimino)-2-phenylacetonitrile",
    "duplicated_cas_no": "103919-55-7;115721-57-8;154920-47-5",
    "SMILES": "C(=NOC(OC(C)(C)C)=O)(C#N)C1=CC=CC=C1",
    "meta_data": {
        "InChI": "InChI=1S/C13H14N2O3/c1-13(2,3)17-12(16)18-15-11(9-14)10-7-5-4-6-8-10/h4-8H,1-3H3",
        "InChIKey": null,
        "Canonical SMILES": "N#CC(=NOC(=O)OC(C)(C)C)C=1C=CC=CC1",
        "Molecular Formula": "C<sub>13</sub>H<sub>14</sub>N<sub>2</sub>O<sub>3</sub>",
        "Molecular Mass": "246.26",
        "Melting Point": "82-84 °C"
    }
}