{
    "cas_no": "1576-95-0",
    "key_name": "<em>cis</em>-2-Penten-1-ol",
    "cn_name": "顺-2-戊烯-1-醇;",
    "alternate_name": "2-Penten-1-ol, (2<em>Z</em>)-;2-Penten-1-ol, (<em>Z</em>)-;(2<em>Z</em>)-2-Penten-1-ol;<em>cis</em>-2-Penten-1-ol;<em>cis</em>-2-Pentenol;(<em>Z</em>)-2-Penten-1-ol;Nor leaf alcohol;(2<em>Z</em>)-Pent-2-en-1-ol",
    "duplicated_cas_no": "",
    "SMILES": "C(=C\\CO)\\CC",
    "meta_data": {
        "InChI": "InChI=1S/C5H10O/c1-2-3-4-5-6/h3-4,6H,2,5H2,1H3/b4-3-",
        "InChIKey": null,
        "Canonical SMILES": "OCC=CCC",
        "Molecular Formula": "C<sub>5</sub>H<sub>10</sub>O",
        "Molecular Mass": "86.13",
        "Boiling Point": "138 °C",
        "Density": "0.8529 g/cm³ @ Temp: 20 °C"
    }
}