{
    "cas_no": "22264-50-2",
    "key_name": "1-Aminocyclobutanecarboxylic acid",
    "cn_name": "1-氨基环丁甲酸;",
    "alternate_name": "Cyclobutanecarboxylic acid, 1-amino-;1-Aminocyclobutanecarboxylic acid;1-Aminocyclobutane-1-carboxylic acid;NSC 403362;NSC 403363",
    "duplicated_cas_no": "",
    "SMILES": "C(O)(=O)C1(N)CCC1",
    "meta_data": {
        "InChI": "InChI=1S/C5H9NO2/c6-5(4(7)8)2-1-3-5/h1-3,6H2,(H,7,8)",
        "InChIKey": null,
        "Canonical SMILES": "O=C(O)C1(N)CCC1",
        "Molecular Formula": "C<sub>5</sub>H<sub>9</sub>NO<sub>2</sub>",
        "Molecular Mass": "115.13",
        "Melting Point": "290 °C (decomp)"
    }
}