{
    "cas_no": "90-17-5",
    "key_name": "Rosephenone",
    "cn_name": "alpha-(三氯甲基)苄基醇乙酸酯;乙酸三氯甲基苯甲酯;",
    "alternate_name": "Benzenemethanol, α-(trichloromethyl)-, 1-acetate;Benzyl alcohol, α-(trichloromethyl)-, acetate;Benzenemethanol, α-(trichloromethyl)-, acetate;Rosacetol;(Trichloromethyl)phenylcarbinyl acetate;Rosetone;(±)-α-(Trichloromethyl)benzyl acetate;Rosone;α-(Trichloromethyl)benzyl acetate;Rosephenone;2,2,2-Trichloro-1-phenylethyl acetate;NSC 165582;2-Acetoxy-1,1,1-trichloro-2-phenylethane;Crystal rose;Rosacetate;Rosinol Cryst",
    "duplicated_cas_no": "126753-06-8;39347-18-7",
    "SMILES": "C(OC(C)=O)(C(Cl)(Cl)Cl)C1=CC=CC=C1",
    "meta_data": {
        "InChI": "InChI=1S/C10H9Cl3O2/c1-7(14)15-9(10(11,12)13)8-5-3-2-4-6-8/h2-6,9H,1H3",
        "InChIKey": null,
        "Canonical SMILES": "O=C(OC(C=1C=CC=CC1)C(Cl)(Cl)Cl)C",
        "Molecular Formula": "C<sub>10</sub>H<sub>9</sub>Cl<sub>3</sub>O<sub>2</sub>",
        "Molecular Mass": "267.54",
        "Melting Point": "89 °C"
    }
}