{
    "cas_no": "5856-62-2",
    "key_name": "(+)-2-Amino-1-butanol",
    "cn_name": "2-氨基-1-丁醇;",
    "alternate_name": "1-Butanol, 2-amino-, (2<em>S</em>)-;1-Butanol, 2-amino-, (<em>S</em>)-(+)-;1-Butanol, 2-amino-, (<em>S</em>)-;1-Butanol, 2-amino-, (+)-;1-Butanol, 2-amino-, <em>d</em>-;(2<em>S</em>)-2-Amino-1-butanol;<span class=\"text-smallcaps\">L</span>-2-Amino-1-butanol;<span class=\"text-smallcaps\">L</span>-(+)-2-Aminobutanol;(+)-2-Amino-1-butanol;(+)-2-Aminobutanol;<em>d</em>-2-Amino-1-butanol;(<em>S</em>)-2-Amino-1-butanol;<em>S</em>-(+)-2-Amino-1-butanol;<span class=\"text-smallcaps\">L</span>-2-Aminobutanol;(+)-2-Aminobutyl alcohol;<span class=\"text-smallcaps\">L</span>-(+)-2-Amino-1-butanol;(<em>S</em>)-2-Aminobutanol;(2<em>S</em>)-2-Aminobutan-1-ol;2<em>S</em>-Aminobutanol;(2S)-2-Aminobutan-1-ol",
    "duplicated_cas_no": "104076-02-0",
    "SMILES": "[C@H](CC)(CO)N",
    "meta_data": {
        "InChI": "InChI=1S/C4H11NO/c1-2-4(5)3-6/h4,6H,2-3,5H2,1H3/t4-/m0/s1",
        "InChIKey": null,
        "Canonical SMILES": "OCC(N)CC",
        "Molecular Formula": "C<sub>4</sub>H<sub>11</sub>NO",
        "Molecular Mass": "89.14",
        "Boiling Point": "80 °C @ Press: 11 Torr",
        "Melting Point": "171-174 °C",
        "Density": "0.947 g/cm³ @ Temp: 20 °C"
    }
}