{
    "cas_no": "30364-38-6",
    "key_name": "1,1,6-Trimethyl-1,2-dihydronaphthalene",
    "cn_name": null,
    "alternate_name": "Naphthalene, 1,2-dihydro-1,1,6-trimethyl-;1,2-Dihydro-1,1,6-trimethylnaphthalene;1,1,6-Trimethyl-1,2-dihydronaphthalene;Dehydro-<em>ar</em>-ionene;1,1,6-Trimethyl-2<em>H</em>-naphthalene",
    "duplicated_cas_no": "",
    "SMILES": "CC1(C)C=2C(=CC(C)=CC2)C=CC1",
    "meta_data": {
        "InChI": "InChI=1S/C13H16/c1-10-6-7-12-11(9-10)5-4-8-13(12,2)3/h4-7,9H,8H2,1-3H3",
        "InChIKey": null,
        "Canonical SMILES": "C1=CC2=C(C=CCC2(C)C)C=C1C",
        "Molecular Formula": "C<sub>13</sub>H<sub>16</sub>",
        "Molecular Mass": "172.27",
        "Boiling Point": "75 °C @ Press: 0.01 Torr",
        "Density": "0.9454 g/cm³ @ Temp: 25 °C"
    }
}