{
    "cas_no": "620-02-0",
    "key_name": "5-Methylfurfural",
    "cn_name": "5-甲基呋喃醛;",
    "alternate_name": "2-Furancarboxaldehyde, 5-methyl-;2-Furaldehyde, 5-methyl-;5-Methyl-2-furancarboxaldehyde;5-Methylfurfural;5-Methylfurfuraldehyde;5-Methyl-2-furfural;2-Methyl-5-formylfuran;5-Methyl-2-furaldehyde;2-Formyl-5-methylfuran;5-Methylfuran-2-carbaldehyde;5-Methyl-2-furfuraldehyde;5-Methylfuran-2-al;5-Methylfuran-2-aldehyde;5-Methyl-2-furfurylaldehyde;2-Methyl-5-furaldehyde;2-Formyl-5-methyltetrahydrofuran",
    "duplicated_cas_no": "",
    "SMILES": "C(=O)C=1OC(C)=CC1",
    "meta_data": {
        "InChI": "InChI=1S/C6H6O2/c1-5-2-3-6(4-7)8-5/h2-4H,1H3",
        "InChIKey": null,
        "Canonical SMILES": "O=CC=1OC(=CC1)C",
        "Molecular Formula": "C<sub>6</sub>H<sub>6</sub>O<sub>2</sub>",
        "Molecular Mass": "110.11",
        "Boiling Point": "187 °C",
        "Melting Point": "171 °C",
        "Density": "1.1012 g/cm³ @ Temp: 20 °C"
    }
}