{
    "cas_no": "19879-30-2",
    "key_name": "Bavachinin",
    "cn_name": null,
    "alternate_name": "4<em>H</em>-1-Benzopyran-4-one, 2,3-dihydro-2-(4-hydroxyphenyl)-7-methoxy-6-(3-methyl-2-buten-1-yl)-, (2<em>S</em>)-;Flavanone, 4′-hydroxy-7-methoxy-6-(3-methyl-2-butenyl)-;4<em>H</em>-1-Benzopyran-4-one, 2,3-dihydro-2-(4-hydroxyphenyl)-7-methoxy-6-(3-methyl-2-butenyl)-, (<em>S</em>)-;4<em>H</em>-1-Benzopyran-4-one, 2,3-dihydro-2-(4-hydroxyphenyl)-7-methoxy-6-(3-methyl-2-butenyl)-, (2<em>S</em>)-;(2<em>S</em>)-2,3-Dihydro-2-(4-hydroxyphenyl)-7-methoxy-6-(3-methyl-2-buten-1-yl)-4<em>H</em>-1-benzopyran-4-one;Bavachinin;7-<em>O</em>-Methylbavachin;Bavachinin A",
    "duplicated_cas_no": "",
    "SMILES": "O=C1C=2C(O[C@@H](C1)C3=CC=C(O)C=C3)=CC(OC)=C(CC=C(C)C)C2",
    "meta_data": {
        "InChI": "InChI=1S/C21H22O4/c1-13(2)4-5-15-10-17-18(23)11-20(14-6-8-16(22)9-7-14)25-21(17)12-19(15)24-3/h4,6-10,12,20,22H,5,11H2,1-3H3/t20-/m0/s1",
        "InChIKey": null,
        "Canonical SMILES": "O=C1C2=CC(=C(OC)C=C2OC(C3=CC=C(O)C=C3)C1)CC=C(C)C",
        "Molecular Formula": "C<sub>21</sub>H<sub>22</sub>O<sub>4</sub>",
        "Molecular Mass": "338.40",
        "Melting Point": "154-155 °C"
    }
}