{
    "cas_no": "454-14-8",
    "key_name": "Cuscohygrine",
    "cn_name": "红古豆碱;1,3-双(1-甲基-2-吡咯烷基)丙酮;",
    "alternate_name": "2-Propanone, 1-[(2<em>R</em>)-1-methyl-2-pyrrolidinyl]-3-[(2<em>S</em>)-1-methyl-2-pyrrolidinyl]-, <em>rel</em>-;Cuscohygrine;2-Propanone, 1,3-bis(1-methyl-2-pyrrolidinyl)-, (<em>R</em>*,<em>S</em>*)-;<em>rel</em>-1-[(2<em>R</em>)-1-Methyl-2-pyrrolidinyl]-3-[(2<em>S</em>)-1-methyl-2-pyrrolidinyl]-2-propanone;Cuskhygrine;Bellaradine;Bellaradin;Cuskhygrin;Cuscohygrine, <em>meso</em>-;<em>meso</em>-Cuscohygrine",
    "duplicated_cas_no": "11032-93-2",
    "SMILES": "C(C(C[C@@H]1N(C)CCC1)=O)[C@H]2N(C)CCC2",
    "meta_data": {
        "InChI": "InChI=1/C13H24N2O/c1-14-7-3-5-11(14)9-13(16)10-12-6-4-8-15(12)2/h11-12H,3-10H2,1-2H3/t11-,12+",
        "InChIKey": null,
        "Canonical SMILES": "O=C(CC1N(C)CCC1)CC2N(C)CCC2",
        "Molecular Formula": "C<sub>13</sub>H<sub>24</sub>N<sub>2</sub>O",
        "Molecular Mass": "224.34",
        "Boiling Point": "152 °C @ Press: 14 Torr",
        "Density": "0.9782 g/cm³ @ Temp: 16 °C"
    }
}