{
    "cas_no": "2696-84-6",
    "key_name": "4-Propylaniline",
    "cn_name": "4-正丙基苯胺;",
    "alternate_name": "Benzenamine, 4-propyl-;Aniline, <em>p</em>-propyl-;4-Propylbenzenamine;<em>p</em>-<em>n</em>-Propylaniline;<em>p</em>-Propylaniline;4-<em>n</em>-Propylaniline;4-Propylaniline;<em>p</em>-Aminopropylbenzene;<em>p</em>-Propylaminobenzene;(4-Propylphenyl)amine;NSC 13208",
    "duplicated_cas_no": "",
    "SMILES": "C(CC)C1=CC=C(N)C=C1",
    "meta_data": {
        "InChI": "InChI=1S/C9H13N/c1-2-3-8-4-6-9(10)7-5-8/h4-7H,2-3,10H2,1H3",
        "InChIKey": null,
        "Canonical SMILES": "NC1=CC=C(C=C1)CCC",
        "Molecular Formula": "C<sub>9</sub>H<sub>13</sub>N",
        "Molecular Mass": "135.21",
        "Boiling Point": "225 °C",
        "Melting Point": "114.0-114.5 °C",
        "Density": "0.940 g/cm³ @ Temp: 20 °C"
    }
}