{
    "cas_no": "17088-28-7",
    "key_name": "1,1′-Diethyl 3,3′-(1,4-phenylene)bis[2-propenoate]",
    "cn_name": "1,4-聚苯二丙烯酸二乙酯;",
    "alternate_name": "2-Propenoic acid, 3,3′-(1,4-phenylene)bis-, 1,1′-diethyl ester;<em>p</em>-Benzenediacrylic acid, diethyl ester;2-Propenoic acid, 3,3′-(1,4-phenylene)bis-, diethyl ester;1,1′-Diethyl 3,3′-(1,4-phenylene)bis[2-propenoate];Diethyl <em>p</em>-phenylenediacrylate;1,4-Bis(2-ethoxycarbonylethenyl)benzene;<em>p</em>-Bis(ethoxycarbonylvinyl)benzene;<em>p</em>-Phenylenediacrylic acid diethyl ester;Diethyl 3,3′-(1,4-phenylene)diacrylate;1,4-Phenylenediacrylic acid diethyl ester",
    "duplicated_cas_no": "",
    "SMILES": "C(=CC(OCC)=O)C1=CC=C(C=CC(OCC)=O)C=C1",
    "meta_data": {
        "InChI": "InChI=1S/C16H18O4/c1-3-19-15(17)11-9-13-5-7-14(8-6-13)10-12-16(18)20-4-2/h5-12H,3-4H2,1-2H3",
        "InChIKey": null,
        "Canonical SMILES": "O=C(OCC)C=CC1=CC=C(C=CC(=O)OCC)C=C1",
        "Molecular Formula": "C<sub>16</sub>H<sub>18</sub>O<sub>4</sub>",
        "Molecular Mass": "274.31",
        "Melting Point": "93-94 °C"
    }
}