{
    "cas_no": "502-97-6",
    "key_name": "Glycolide",
    "cn_name": "1,4-二氧杂环-2,5-己二酮;",
    "alternate_name": "1,4-Dioxane-2,5-dione;Glycolide;<em>p</em>-Dioxane-2,5-dione;Acetic acid, hydroxy-, bimol. cyclic ester;Glycollide;Diglycolide;Glycolide S;NSC 403079;Purasorb G",
    "duplicated_cas_no": "162682-01-1",
    "SMILES": "O=C1COC(=O)CO1",
    "meta_data": {
        "InChI": "InChI=1S/C4H4O4/c5-3-1-7-4(6)2-8-3/h1-2H2",
        "InChIKey": null,
        "Canonical SMILES": "O=C1OCC(=O)OC1",
        "Molecular Formula": "C<sub>4</sub>H<sub>4</sub>O<sub>4</sub>",
        "Molecular Mass": "116.07",
        "Melting Point": "82 °C"
    }
}