{
    "cas_no": "3740-52-1",
    "key_name": "(2-Nitrophenyl)acetic acid",
    "cn_name": "2-硝基苯乙酸;邻硝基苯乙酸;",
    "alternate_name": "Benzeneacetic acid, 2-nitro-;Acetic acid, (<em>o</em>-nitrophenyl)-;2-Nitrobenzeneacetic acid;<em>o</em>-Nitrophenylacetic acid;2-(<em>o</em>-Nitrophenyl)acetic acid;(2-Nitrophenyl)acetic acid;2-(2-Nitrophenyl)acetic acid;NSC 16624",
    "duplicated_cas_no": "",
    "SMILES": "N(=O)(=O)C1=C(CC(O)=O)C=CC=C1",
    "meta_data": {
        "InChI": "InChI=1S/C8H7NO4/c10-8(11)5-6-3-1-2-4-7(6)9(12)13/h1-4H,5H2,(H,10,11)",
        "InChIKey": null,
        "Canonical SMILES": "O=C(O)CC=1C=CC=CC1N(=O)=O",
        "Molecular Formula": "C<sub>8</sub>H<sub>7</sub>NO<sub>4</sub>",
        "Molecular Mass": "181.15",
        "Melting Point": "141 °C"
    }
}