{
    "cas_no": "75143-89-4",
    "key_name": "3-Isobutylglutaric acid",
    "cn_name": null,
    "alternate_name": "Pentanedioic acid, 3-(2-methylpropyl)-;3-(2-Methylpropyl)pentanedioic acid;3-Isobutylglutaric acid",
    "duplicated_cas_no": "",
    "SMILES": "C(CC(C)C)(CC(O)=O)CC(O)=O",
    "meta_data": {
        "InChI": "InChI=1S/C9H16O4/c1-6(2)3-7(4-8(10)11)5-9(12)13/h6-7H,3-5H2,1-2H3,(H,10,11)(H,12,13)",
        "InChIKey": null,
        "Canonical SMILES": "O=C(O)CC(CC(=O)O)CC(C)C",
        "Molecular Formula": "C<sub>9</sub>H<sub>16</sub>O<sub>4</sub>",
        "Molecular Mass": "188.22",
        "Melting Point": "47 °C"
    }
}