{
    "cas_no": "17869-77-1",
    "key_name": "[(1,1-Dimethyl-2-propyn-1-yl)oxy]trimethylsilane",
    "cn_name": null,
    "alternate_name": "Silane, [(1,1-dimethyl-2-propyn-1-yl)oxy]trimethyl-;Silane, [(1,1-dimethyl-2-propynyl)oxy]trimethyl-;[(1,1-Dimethyl-2-propyn-1-yl)oxy]trimethylsilane;3-Methyl-3-(trimethylsiloxy)-1-butyne;Trimethyl(1,1-dimethyl-2-propynyloxy)silane;(1,1-Dimethyl-2-propynyloxy)trimethylsilane;3-Methyl-3-trimethylsilyloxy-1-butyne;3-Methyl-1-butyn-3-yl trimethylsilyl ether;1,1-Dimethylpropargyl trimethylsilyl ether;Trimethyl(2-methyl-3-butyn-2-yloxy)silane;(2-Methyl-3-butyn-2-yloxy)trimethylsilane",
    "duplicated_cas_no": "",
    "SMILES": "O(C(C#C)(C)C)[Si](C)(C)C",
    "meta_data": {
        "InChI": "InChI=1S/C8H16OSi/c1-7-8(2,3)9-10(4,5)6/h1H,2-6H3",
        "InChIKey": null,
        "Canonical SMILES": "C#CC(O[Si](C)(C)C)(C)C",
        "Molecular Formula": "C<sub>8</sub>H<sub>16</sub>OSi",
        "Molecular Mass": "156.30",
        "Boiling Point": "94-96 °C @ Press: 54 Torr",
        "Melting Point": "42-42.5 °C",
        "Density": "0.8079 g/cm³ @ Temp: 20 °C"
    }
}