{
    "cas_no": "2611-61-2",
    "key_name": "Thiamphenicol glycinate hydrochloride",
    "cn_name": "甲砜霉素甘氨酸酯盐酸盐;",
    "alternate_name": "Glycine, (2<em>R</em>,3<em>R</em>)-2-[(2,2-dichloroacetyl)amino]-3-hydroxy-3-[4-(methylsulfonyl)phenyl]propyl ester, hydrochloride (1:1);Glycine, α-ester with 2,2-dichloro-<em>N</em>-[β-hydroxy-α-(hydroxymethyl)-<em>p</em>-(methylsulfonyl)phenethyl]acetamide, monohydrochloride, <span class=\"text-smallcaps\">D</span>-<em>threo</em>-(+)-;Glycine, 2-[(dichloroacetyl)amino]-3-hydroxy-3-[4-(methylsulfonyl)phenyl]propyl ester, monohydrochloride, [<em>R</em>-(<em>R</em>*,<em>R</em>*)]-;Glycine, (2<em>R</em>,3<em>R</em>)-2-[(dichloroacetyl)amino]-3-hydroxy-3-[4-(methylsulfonyl)phenyl]propyl ester, monohydrochloride;Thiamphenicol glycinate hydrochloride;Glycine, α-ester with <span class=\"text-smallcaps\">D</span>-<em>threo</em>-(+)-2,2-dichloro-<em>N</em>-[β-hydroxy-α-(hydroxymethyl)-<em>p</em>-(methylsulfonyl)phenethyl]acetamide, monohydrochloride;Thiophenicol glycinate;Neomyson G",
    "duplicated_cas_no": "10030-22-5;17340-18-0;31096-03-4",
    "SMILES": "[C@@H]([C@H](O)C1=CC=C(S(C)(=O)=O)C=C1)(NC(C(Cl)Cl)=O)COC(CN)=O.Cl",
    "meta_data": {
        "InChI": "InChI=1S/C14H18Cl2N2O6S.ClH/c1-25(22,23)9-4-2-8(3-5-9)12(20)10(7-24-11(19)6-17)18-14(21)13(15)16;/h2-5,10,12-13,20H,6-7,17H2,1H3,(H,18,21);1H/t10-,12-;/m1./s1",
        "InChIKey": null,
        "Canonical SMILES": "Cl.O=C(OCC(NC(=O)C(Cl)Cl)C(O)C1=CC=C(C=C1)S(=O)(=O)C)CN",
        "Molecular Formula": "C<sub>14</sub>H<sub>18</sub>Cl<sub>2</sub>N<sub>2</sub>O<sub>6</sub>S.ClH",
        "Molecular Mass": "",
        "Melting Point": "184-185 °C"
    }
}