{
    "cas_no": "33083-83-9",
    "key_name": "5-Undecanone",
    "cn_name": "5-十一酮;5-十一烷酮;丁基己基甲酮;",
    "alternate_name": "5-Undecanone;Di-<em>n</em>-Pentyl ketone;NSC 158513",
    "duplicated_cas_no": "",
    "SMILES": "C(C(CCCC)=O)CCCCC",
    "meta_data": {
        "InChI": "InChI=1S/C11H22O/c1-3-5-7-8-10-11(12)9-6-4-2/h3-10H2,1-2H3",
        "InChIKey": null,
        "Canonical SMILES": "O=C(CCCC)CCCCCC",
        "Molecular Formula": "C<sub>11</sub>H<sub>22</sub>O",
        "Molecular Mass": "170.29",
        "Boiling Point": "227 °C",
        "Melting Point": "2 °C",
        "Density": "0.8320 g/cm³ @ Temp: 25 °C"
    }
}