{
    "cas_no": "29797-40-8",
    "key_name": "Dichloromethylbenzene",
    "cn_name": null,
    "alternate_name": "Benzene, dichloromethyl-;Toluene, <em>ar</em>,<em>ar</em>′-dichloro-;Dichloromethylbenzene;Dichlorotoluene",
    "duplicated_cas_no": "37808-21-2",
    "SMILES": "",
    "meta_data": {
        "InChI": "",
        "InChIKey": null,
        "Canonical SMILES": "",
        "Molecular Formula": "C<sub>7</sub>H<sub>6</sub>Cl<sub>2</sub>",
        "Molecular Mass": "",
        "Boiling Point": "194-195 °C"
    }
}