{
    "cas_no": "6214-46-6",
    "key_name": "Ethyl 3,4-dihydro-4-oxo-5-pyrimidineacetate",
    "cn_name": null,
    "alternate_name": "5-Pyrimidineacetic acid, 3,4-dihydro-4-oxo-, ethyl ester;5-Pyrimidineacetic acid, 4-hydroxy-, ethyl ester;Ethyl 3,4-dihydro-4-oxo-5-pyrimidineacetate",
    "duplicated_cas_no": "",
    "SMILES": "C(C(OCC)=O)C=1C(=O)NC=NC1",
    "meta_data": {
        "InChI": "InChI=1S/C8H10N2O3/c1-2-13-7(11)3-6-4-9-5-10-8(6)12/h4-5H,2-3H2,1H3,(H,9,10,12)",
        "InChIKey": null,
        "Canonical SMILES": "O=C1NC=NC=C1CC(=O)OCC",
        "Molecular Formula": "C<sub>8</sub>H<sub>10</sub>N<sub>2</sub>O<sub>3</sub>",
        "Molecular Mass": "182.18",
        "Melting Point": "155-156 °C"
    }
}