{
    "cas_no": "75-38-7",
    "key_name": "Vinylidene fluoride",
    "cn_name": "5,8-二羟基-1,4-萘醌;1,1-二氟乙烯；偏二氟乙烯；制冷剂R-1132a;",
    "alternate_name": "Ethene, 1,1-difluoro-;Ethylene, 1,1-difluoro-;1,1-Difluoroethene;1,1-Difluoroethylene;Genetron 1132a;Vinylidene fluoride;Vinylidene difluoride;HFC 1132a;R 1132a;CA 16;FC 1132a;Fluorovinylidene;HFO 1132A",
    "duplicated_cas_no": "1272398-81-8;2253988-69-9",
    "SMILES": "C(=C)(F)F",
    "meta_data": {
        "InChI": "InChI=1S/C2H2F2/c1-2(3)4/h1H2",
        "InChIKey": null,
        "Canonical SMILES": "FC(F)=C",
        "Molecular Formula": "C<sub>2</sub>H<sub>2</sub>F<sub>2</sub>",
        "Molecular Mass": "64.03",
        "Boiling Point": "-83 °C",
        "Melting Point": "-144 °C",
        "Density": "0.6 g/cm³"
    }
}