{
    "cas_no": "13139-17-8",
    "key_name": "<em>N</em>-(Benzyloxycarbonyloxy)succinimide",
    "cn_name": "苯甲氧羰酰琥珀酰亚胺;",
    "alternate_name": "Carbonic acid, 2,5-dioxo-1-pyrrolidinyl phenylmethyl ester;Succinimide, <em>N</em>-(carboxyoxy)-, benzyl ester;2,5-Pyrrolidinedione, 1-[[(phenylmethoxy)carbonyl]oxy]-;Carbonic acid, monobenzyl ester, succinimido deriv.;<em>N</em>-(Benzyloxycarbonyloxy)succinimide;Benzyloxycarbonyloxysuccinimide;Benzyl 2,5-dioxopyrrolid-1-yl carbonate;<em>N</em>-(<em>N</em>-Benzyloxycarbonyloxy)succinimide;Benzyl <em>N</em>-succinimidyl carbonate;Benzyl succinimidyl carbonate;Cbz-OSu;1-[[(Benzyloxy)carbonyl]oxy]-2,5-pyrrolidinedione;1-[[(Phenylmethoxy)carbonyl]oxy]-2,5-pyrrolidinedione;Benzyl 2,5-dioxopyrrolidin-1-yl carbonate;1-[[[(Phenylmethyl)oxy]carbonyl]oxy]-2,5-pyrrolidinedione",
    "duplicated_cas_no": "",
    "SMILES": "O(C(OCC1=CC=CC=C1)=O)N2C(=O)CCC2=O",
    "meta_data": {
        "InChI": "InChI=1S/C12H11NO5/c14-10-6-7-11(15)13(10)18-12(16)17-8-9-4-2-1-3-5-9/h1-5H,6-8H2",
        "InChIKey": null,
        "Canonical SMILES": "O=C(ON1C(=O)CCC1=O)OCC=2C=CC=CC2",
        "Molecular Formula": "C<sub>12</sub>H<sub>11</sub>NO<sub>5</sub>",
        "Molecular Mass": "249.22",
        "Melting Point": "78-80 °C"
    }
}