{
    "cas_no": "19550-08-4",
    "key_name": "3,4-Dimethyl-3-hexanol",
    "cn_name": "3,4-二甲基-3-己醇;",
    "alternate_name": "3-Hexanol, 3,4-dimethyl-;3,4-Dimethyl-3-hexanol;NSC 97526",
    "duplicated_cas_no": "",
    "SMILES": "C(C(CC)C)(CC)(C)O",
    "meta_data": {
        "InChI": "InChI=1S/C8H18O/c1-5-7(3)8(4,9)6-2/h7,9H,5-6H2,1-4H3",
        "InChIKey": null,
        "Canonical SMILES": "OC(C)(CC)C(C)CC",
        "Molecular Formula": "C<sub>8</sub>H<sub>18</sub>O",
        "Molecular Mass": "130.23",
        "Boiling Point": "150-152 °C @ Press: 740 Torr",
        "Density": "0.8345 g/cm³ @ Temp: 25 °C"
    }
}