{
    "cas_no": "3530-56-1",
    "key_name": "1-(β-<span class=\"text-smallcaps\">D</span>-Xylofuranosyl)cytosine",
    "cn_name": null,
    "alternate_name": "2(1<em>H</em>)-Pyrimidinone, 4-amino-1-β-<span class=\"text-smallcaps\">D</span>-xylofuranosyl-;Cytosine, 1-β-<span class=\"text-smallcaps\">D</span>-xylofuranosyl-;4-Amino-1-β-<span class=\"text-smallcaps\">D</span>-xylofuranosyl-2(1<em>H</em>)-pyrimidinone;1-(β-<span class=\"text-smallcaps\">D</span>-Xylofuranosyl)cytosine",
    "duplicated_cas_no": "",
    "SMILES": "O[C@H]1[C@@H](O[C@H](CO)[C@@H]1O)N2C(=O)N=C(N)C=C2",
    "meta_data": {
        "InChI": "InChI=1S/C9H13N3O5/c10-5-1-2-12(9(16)11-5)8-7(15)6(14)4(3-13)17-8/h1-2,4,6-8,13-15H,3H2,(H2,10,11,16)/t4-,6+,7-,8-/m1/s1",
        "InChIKey": null,
        "Canonical SMILES": "O=C1N=C(N)C=CN1C2OC(CO)C(O)C2O",
        "Molecular Formula": "C<sub>9</sub>H<sub>13</sub>N<sub>3</sub>O<sub>5</sub>",
        "Molecular Mass": "243.22",
        "Melting Point": "237-238 °C"
    }
}