{
    "cas_no": "4392-54-5",
    "key_name": "4-Hydrazinobenzenesulfonamide",
    "cn_name": "4-肼基苯磺酰胺;4-磺酰胺基苯肼;",
    "alternate_name": "Benzenesulfonamide, 4-hydrazinyl-;Benzenesulfonamide, <em>p</em>-hydrazino-;Benzenesulfonamide, 4-hydrazino-;4-Hydrazinylbenzenesulfonamide;(<em>p</em>-Sulfamoylphenyl)hydrazine;(4-Sulfamoylphenyl)hydrazine;4-(Aminosulfonyl)phenylhydrazine;<em>p</em>-Hydrazinobenzenesulfonamide;4-Hydrazinobenzenesulfonamide;NSC 73246;<em>N</em>-(4-Aminosulfonylphenyl)hydrazine;Resist H",
    "duplicated_cas_no": "1296940-15-2",
    "SMILES": "S(N)(=O)(=O)C1=CC=C(NN)C=C1",
    "meta_data": {
        "InChI": "InChI=1S/C6H9N3O2S/c7-9-5-1-3-6(4-2-5)12(8,10)11/h1-4,9H,7H2,(H2,8,10,11)",
        "InChIKey": null,
        "Canonical SMILES": "O=S(=O)(N)C1=CC=C(C=C1)NN",
        "Molecular Formula": "C<sub>6</sub>H<sub>9</sub>N<sub>3</sub>O<sub>2</sub>S",
        "Molecular Mass": "187.22",
        "Melting Point": "155 °C"
    }
}