{
    "cas_no": "506-48-9",
    "key_name": "Octacosanoic acid",
    "cn_name": "正二十八酸;二十八烷酸;二十八酸;Montanic acid;CH3(CH2)26CO2H;",
    "alternate_name": "Octacosanoic acid;Montanic acid;<em>n</em>-Octacosanoic acid;Licowax S;NSC 407311;HW-SW;Licowax SFL",
    "duplicated_cas_no": "860496-36-2",
    "SMILES": "C(CCCCCCCCCCCCCCCCCC)CCCCCCCCC(O)=O",
    "meta_data": {
        "InChI": "InChI=1S/C28H56O2/c1-2-3-4-5-6-7-8-9-10-11-12-13-14-15-16-17-18-19-20-21-22-23-24-25-26-27-28(29)30/h2-27H2,1H3,(H,29,30)",
        "InChIKey": null,
        "Canonical SMILES": "O=C(O)CCCCCCCCCCCCCCCCCCCCCCCCCCC",
        "Molecular Formula": "C<sub>28</sub>H<sub>56</sub>O<sub>2</sub>",
        "Molecular Mass": "424.74",
        "Melting Point": "90.9 °C"
    }
}