{
    "cas_no": "43043-74-9",
    "key_name": "Deoxyshikonin",
    "cn_name": "去氧紫草素;去氧紫根素;",
    "alternate_name": "1,4-Naphthalenedione, 5,8-dihydroxy-2-(4-methyl-3-penten-1-yl)-;1,4-Naphthalenedione, 5,8-dihydroxy-2-(4-methyl-3-pentenyl)-;5,8-Dihydroxy-2-(4-methyl-3-penten-1-yl)-1,4-naphthalenedione;Arnebin 7;Deoxyshikonin;Arnebin VII;Shikonin, deoxy-;Deoxyalkannin;Alkannin, deoxy-;NSC 179184;11-Deoxyalkannin;Anhydroalkanin",
    "duplicated_cas_no": "",
    "SMILES": "O=C1C=2C(C(=O)C=C1CCC=C(C)C)=C(O)C=CC2O",
    "meta_data": {
        "InChI": "InChI=1S/C16H16O4/c1-9(2)4-3-5-10-8-13(19)14-11(17)6-7-12(18)15(14)16(10)20/h4,6-8,17-18H,3,5H2,1-2H3",
        "InChIKey": null,
        "Canonical SMILES": "O=C1C=C(C(=O)C=2C(O)=CC=C(O)C12)CCC=C(C)C",
        "Molecular Formula": "C<sub>16</sub>H<sub>16</sub>O<sub>4</sub>",
        "Molecular Mass": "272.30",
        "Melting Point": "94-95 °C"
    }
}