{
    "cas_no": "96-43-5",
    "key_name": "2-Chlorothiophene",
    "cn_name": "2-氯噻吩;",
    "alternate_name": "Thiophene, 2-chloro-;2-Chlorothiophene;2-Thienyl chloride;NSC 8747;2-Thiophene chloride",
    "duplicated_cas_no": "",
    "SMILES": "ClC1=CC=CS1",
    "meta_data": {
        "InChI": "InChI=1S/C4H3ClS/c5-4-2-1-3-6-4/h1-3H",
        "InChIKey": null,
        "Canonical SMILES": "ClC=1SC=CC1",
        "Molecular Formula": "C<sub>4</sub>H<sub>3</sub>ClS",
        "Molecular Mass": "118.58",
        "Boiling Point": "128.3 °C",
        "Melting Point": "-71.9 °C"
    }
}