{
    "cas_no": "2034-74-4",
    "key_name": "7-Ketositosterol",
    "cn_name": null,
    "alternate_name": "Stigmast-5-en-7-one, 3-hydroxy-, (3β)-;Stigmast-5-en-7-one, 3β-hydroxy-;(3β)-3-Hydroxystigmast-5-en-7-one;Stigmast-5-en-3β-ol-7-one;7-Oxo-β-sitosterol;7-Oxositosterol;7-Keto-β-sitosterol;3β-Hydroxystigmast-5-en-7-one;(24R)-3β-Hydroxystigmast-5-en-7-one;3-Hydroxy-24-ethyl-5-cholestene-7-one;7-Ketositosterol;(24<em>R</em>)-3β-Hydroxy-24-ethylcholest-5-en-7-one;(24<em>R</em>)-Ethylcholest-5-en-3β-ol-7-one;7-<em>keto</em>-Sitosterol;7-Oxysitosterol",
    "duplicated_cas_no": "4795-35-1;191410-79-4",
    "SMILES": "C[C@@]12[C@]([C@]3([C@@]([C@]4(C)C(=CC3=O)C[C@@H](O)CC4)(CC1)[H])[H])(CC[C@@]2([C@@H](CC[C@H](C(C)C)CC)C)[H])[H]",
    "meta_data": {
        "InChI": "InChI=1S/C29H48O2/c1-7-20(18(2)3)9-8-19(4)23-10-11-24-27-25(13-15-29(23,24)6)28(5)14-12-22(30)16-21(28)17-26(27)31/h17-20,22-25,27,30H,7-16H2,1-6H3/t19-,20-,22+,23-,24+,25+,27+,28+,29-/m1/s1",
        "InChIKey": null,
        "Canonical SMILES": "O=C1C=C2CC(O)CCC2(C)C3CCC4(C)C(CCC4C13)C(C)CCC(CC)C(C)C",
        "Molecular Formula": "C<sub>29</sub>H<sub>48</sub>O<sub>2</sub>",
        "Molecular Mass": "428.69",
        "Melting Point": "120-123 °C"
    }
}