{
    "cas_no": "5470-34-8",
    "key_name": "<em>N</em>-(4-Methoxyphenyl)formamide",
    "cn_name": "4-甲氧基甲酰苯胺;",
    "alternate_name": "Formamide, <em>N</em>-(4-methoxyphenyl)-;<em>p</em>-Formanisidide;<em>N</em>-(4-Methoxyphenyl)formamide;<em>N</em>-(<em>p</em>-Methoxyphenyl)formamide;4′-Methoxyformanilide;<em>N</em>-Formyl-<em>p</em>-anisidine;4-Methoxy-1-formanilide;NSC 26220;<em>p</em>-Methoxyformanilide;<em>N</em>-Formyl-4-methoxyaniline",
    "duplicated_cas_no": "",
    "SMILES": "N(C=O)C1=CC=C(OC)C=C1",
    "meta_data": {
        "InChI": "InChI=1S/C8H9NO2/c1-11-8-4-2-7(3-5-8)9-6-10/h2-6H,1H3,(H,9,10)",
        "InChIKey": null,
        "Canonical SMILES": "O=CNC1=CC=C(OC)C=C1",
        "Molecular Formula": "C<sub>8</sub>H<sub>9</sub>NO<sub>2</sub>",
        "Molecular Mass": "151.16",
        "Melting Point": "80-81 °C"
    }
}