{
    "cas_no": "51-43-4",
    "key_name": "(-)-Epinephrine",
    "cn_name": "肾上腺素;L-3,4-二羟基-alpha-((甲氨基)甲基)苄醇;",
    "alternate_name": "1,2-Benzenediol, 4-[(1<em>R</em>)-1-hydroxy-2-(methylamino)ethyl]-;Benzyl alcohol, 3,4-dihydroxy-α-[(methylamino)methyl]-, (-)-;1,2-Benzenediol, 4-[1-hydroxy-2-(methylamino)ethyl]-, (<em>R</em>)-;4-[(1<em>R</em>)-1-Hydroxy-2-(methylamino)ethyl]-1,2-benzenediol;Adnephrine;Adrenal;Adrenalin;(-)-Adrenaline;Adrenaline;<em>l</em>-Adrenaline;Adrenine;Chelafrin;Adrin;<em>l</em>-1-(3,4-Dihydroxyphenyl)-2-methylaminoethanol;Epinefrina;Epinephran;(-)-Epinephrine;Epinephrine;<em>l</em>-Epirenamine;Epirenan;Exadrin;Hemisine;Hemostasin;Hemostatin;Hypernephrin;Levorenin;Levorenine;Methylarterenol;Mucidrina;Nephridine;Nieraline;Paranephrin;Renaglandin;Renaleptine;Renalina;Renoform;Renostypticin;Renostyptin;Scurenaline;Styptirenal;Supracapsulin;Supranephrane;Suprarenaline;Suprarenin;Surrenine;Takamina;Vasoconstrictine;Vasotonin;<em>l</em>-Epinephrine;(-)-3,4-Dihydroxy-α-[2-(methylamino)ethyl]benzyl alcohol;Sus-phrine;(<em>R</em>)-Epinephrine;<em>R</em>-(-)-Epinephrine;Levoreninum;<span class=\"text-smallcaps\">L</span>-Adrenaline;Lyodrin;Levoepinephrine;Epifrin;Bosmin;(<em>R</em>)-Adrenaline;(-)-(<em>R</em>)-Epinephrine;Isoptoepinal;Primatene Mist;Epipen;Ana-Kit;<span class=\"text-smallcaps\">L</span>-Methylaminoethanolcatechol;Bronkaid Mist;Glauposine;Levorenen;Eppy;Simplene;Epiglaufrin;NSC 62786;<em>N</em>-[(2<em>R</em>)-2-(3,4-Dihydroxyphenyl)-2-hydroxyethyl]-<em>N</em>-methylamine;(<em>R</em>)-4-[1-Hydroxy-2-(methylamino)ethyl]benzene-1,2-diol;MeSH ID: D004837",
    "duplicated_cas_no": "51028-73-0",
    "SMILES": "[C@@H](CNC)(O)C1=CC(O)=C(O)C=C1",
    "meta_data": {
        "InChI": "InChI=1S/C9H13NO3/c1-10-5-9(13)6-2-3-7(11)8(12)4-6/h2-4,9-13H,5H2,1H3/t9-/m0/s1",
        "InChIKey": null,
        "Canonical SMILES": "OC1=CC=C(C=C1O)C(O)CNC",
        "Molecular Formula": "C<sub>9</sub>H<sub>13</sub>NO<sub>3</sub>",
        "Molecular Mass": "183.20",
        "Melting Point": "211-212 °C"
    }
}