{
    "cas_no": "15572-56-2",
    "key_name": "2-Propanamine, hydrochloride (1:1)",
    "cn_name": null,
    "alternate_name": "2-Propanamine, hydrochloride (1:1);Isopropylamine, hydrochloride;2-Propanamine, hydrochloride;Monoisopropylammonium chloride;Isopropylammonium chloride;<em>iso</em>-Propylamine hydrochloride",
    "duplicated_cas_no": "",
    "SMILES": "C(C)(C)N.Cl",
    "meta_data": {
        "InChI": "InChI=1S/C3H9N.ClH/c1-3(2)4;/h3H,4H2,1-2H3;1H",
        "InChIKey": null,
        "Canonical SMILES": "Cl.NC(C)C",
        "Molecular Formula": "C<sub>3</sub>H<sub>9</sub>N.ClH",
        "Molecular Mass": "",
        "Melting Point": "139-140 °C"
    }
}