{
    "cas_no": "17629-30-0",
    "key_name": "Raffinose, pentahydrate",
    "cn_name": "D(+)-五水棉子糖;",
    "alternate_name": "α-<span class=\"text-smallcaps\">D</smallcap>-Glucopyranoside, β-<smallcap>D</smallcap>-fructofuranosyl <em>O</em>-α-<smallcap>D</span>-galactopyranosyl-(1→6)-, hydrate (1:5);Raffinose, pentahydrate;α-<span class=\"text-smallcaps\">D</smallcap>-Glucopyranoside, β-<smallcap>D</smallcap>-fructofuranosyl <em>O</em>-α-<smallcap>D</span>-galactopyranosyl-(1→6)-, pentahydrate;<span class=\"text-smallcaps\">D</span>-Raffinose pentahydrate;<span class=\"text-smallcaps\">D</span>-(+)-Raffinose pentahydrate",
    "duplicated_cas_no": "",
    "SMILES": "O([C@]1(CO)O[C@H](CO)[C@@H](O)[C@@H]1O)[C@H]2O[C@H](CO[C@H]3O[C@H](CO)[C@H](O)[C@H](O)[C@H]3O)[C@@H](O)[C@H](O)[C@H]2O.O",
    "meta_data": {
        "InChI": "InChI=1S/C18H32O16.5H2O/c19-1-5-8(22)11(25)13(27)16(31-5)30-3-7-9(23)12(26)14(28)17(32-7)34-18(4-21)15(29)10(24)6(2-20)33-18;;;;;/h5-17,19-29H,1-4H2;5*1H2/t5-,6-,7-,8+,9-,10-,11+,12+,13-,14-,15+,16+,17-,18+;;;;;/m1...../s1",
        "InChIKey": null,
        "Canonical SMILES": "O.OCC1OC(OCC2OC(OC3(OC(CO)C(O)C3O)CO)C(O)C(O)C2O)C(O)C(O)C1O",
        "Molecular Formula": "C<sub>18</sub>H<sub>32</sub>O<sub>16</sub>.5H<sub>2</sub>O",
        "Molecular Mass": "",
        "Melting Point": "135 °C"
    }
}