{
    "cas_no": "17025-47-7",
    "key_name": "Tribromomethyl phenyl sulfone",
    "cn_name": "三溴甲基苯砜;",
    "alternate_name": "Benzene, [(tribromomethyl)sulfonyl]-;Sulfone, phenyl tribromomethyl;[(Tribromomethyl)sulfonyl]benzene;Tribromomethyl phenyl sulfone;Phenyl tribromomethyl sulfone;α,α,α-Tribromomethyl phenyl sulfone;BMPS;BMPS (sulfone);TPS",
    "duplicated_cas_no": "",
    "SMILES": "S(C(Br)(Br)Br)(=O)(=O)C1=CC=CC=C1",
    "meta_data": {
        "InChI": "InChI=1S/C7H5Br3O2S/c8-7(9,10)13(11,12)6-4-2-1-3-5-6/h1-5H",
        "InChIKey": null,
        "Canonical SMILES": "O=S(=O)(C=1C=CC=CC1)C(Br)(Br)Br",
        "Molecular Formula": "C<sub>7</sub>H<sub>5</sub>Br<sub>3</sub>O<sub>2</sub>S",
        "Molecular Mass": "392.89",
        "Melting Point": "147 °C"
    }
}