{
    "cas_no": "33924-49-1",
    "key_name": "5-Chloro-2-methoxy-<em>N</em>-(2-phenylethyl)benzamide",
    "cn_name": null,
    "alternate_name": "Benzamide, 5-chloro-2-methoxy-<em>N</em>-(2-phenylethyl)-;<em>o</em>-Anisamide, 5-chloro-<em>N</em>-phenethyl-;5-Chloro-2-methoxy-<em>N</em>-(2-phenylethyl)benzamide;<em>N</em>-Phenethyl-5-chloro-2-methoxybenzamide;5-Chloro-2-methoxy-<em>N</em>-phenethylbenzamide",
    "duplicated_cas_no": "",
    "SMILES": "C(NCCC1=CC=CC=C1)(=O)C2=C(OC)C=CC(Cl)=C2",
    "meta_data": {
        "InChI": "InChI=1S/C16H16ClNO2/c1-20-15-8-7-13(17)11-14(15)16(19)18-10-9-12-5-3-2-4-6-12/h2-8,11H,9-10H2,1H3,(H,18,19)",
        "InChIKey": null,
        "Canonical SMILES": "O=C(NCCC=1C=CC=CC1)C2=CC(Cl)=CC=C2OC",
        "Molecular Formula": "C<sub>16</sub>H<sub>16</sub>ClNO<sub>2</sub>",
        "Molecular Mass": "289.76",
        "Melting Point": "62 °C"
    }
}