{
    "cas_no": "12007-89-5",
    "key_name": "Ammonium boron oxide ((NH<sub>4</sub>)B<sub>5</sub>O<sub>8</sub>)",
    "cn_name": null,
    "alternate_name": "Ammonium boron oxide ((NH<sub>4</sub>)B<sub>5</sub>O<sub>8</sub>);Boric acid (HB<sub>5</sub>O<sub>8</sub>), ammonium salt;Ammonium pentaborate (NH<sub>4</sub>B<sub>5</sub>O<sub>8</sub>);Ammonium borate (NH<sub>4</sub>B<sub>5</sub>O<sub>8</sub>);Ammonium borate ((NH<sub>4</sub>)<sub>2</sub>B<sub>10</sub>O<sub>16</sub>);Ammonium pentaborate",
    "duplicated_cas_no": "154855-73-9;1315338-39-6",
    "SMILES": "[O].[NH4+].[B]",
    "meta_data": {
        "InChI": "InChI=1S/B.H3N.O/h;1H3;/p+1",
        "InChIKey": null,
        "Canonical SMILES": "[B].[O].[NH4+]",
        "Molecular Formula": "B.H<sub>4</sub>N.O",
        "Molecular Mass": "",
        "Melting Point": "175 °C",
        "Density": "1.56 g/cm³"
    }
}