{
    "uri": "substance/pt/12007895",
    "rn": "12007-89-5",
    "name": "Ammonium boron oxide ((NH<sub>4</sub>)B<sub>5</sub>O<sub>8</sub>)",
    "images": [],
    "inchi": "InChI=1S/B.H3N.O/h;1H3;/p+1",
    "inchiKey": "InChIKey=UVRJJIXFDOUXJS-UHFFFAOYSA-O",
    "smile": "[O].[NH4+].[B]",
    "canonicalSmile": "[B].[O].[NH4+]",
    "molecularFormula": "B.H<sub>4</sub>N.O",
    "molecularMass": "",
    "experimentalProperties": [
        {
            "name": "Melting Point",
            "property": "175 °C",
            "sourceNumber": 1
        },
        {
            "name": "Density",
            "property": "1.56 g/cm³",
            "sourceNumber": 1
        }
    ],
    "propertyCitations": [
        {
            "docUri": "document/pt/document/33002466",
            "sourceNumber": 1,
            "source": "Balakrishnan, T.; Spectrochimica Acta, Part A: Molecular and Biomolecular Spectroscopy, (2008), 71A(2), 578-583, CAplus"
        }
    ],
    "synonyms": [
        "Ammonium boron oxide ((NH<sub>4</sub>)B<sub>5</sub>O<sub>8</sub>)",
        "Boric acid (HB<sub>5</sub>O<sub>8</sub>), ammonium salt",
        "Ammonium pentaborate (NH<sub>4</sub>B<sub>5</sub>O<sub>8</sub>)",
        "Ammonium borate (NH<sub>4</sub>B<sub>5</sub>O<sub>8</sub>)",
        "Ammonium borate ((NH<sub>4</sub>)<sub>2</sub>B<sub>10</sub>O<sub>16</sub>)",
        "Ammonium pentaborate"
    ],
    "replacedRns": [
        "154855-73-9",
        "1315338-39-6"
    ],
    "hasMolfile": true,
    "source": "https://commonchemistry.cas.org/detail?cas_rn=12007-89-5"
}