{
    "cas_no": "587-63-3",
    "key_name": "Dihydrokavain",
    "cn_name": "二氢醉椒素;",
    "alternate_name": "2<em>H</em>-Pyran-2-one, 5,6-dihydro-4-methoxy-6-(2-phenylethyl)-, (6<em>S</em>)-;2<em>H</em>-Pyran-2-one, 5,6-dihydro-4-methoxy-6-phenethyl-;2<em>H</em>-Pyran-2-one, 5,6-dihydro-4-methoxy-6-(2-phenylethyl)-, (<em>S</em>)-;(6<em>S</em>)-5,6-Dihydro-4-methoxy-6-(2-phenylethyl)-2<em>H</em>-pyran-2-one;Dihydrokavain;Dihydrokawain;7,8-Dihydrokawain;Kawain, dihydro-;(+)-Dihydrokawain;7,8-Dihydrokavain;Marindinin;NSC 112163;(+)-7,8-Dihydrokavain;(<em>S</em>)-(+)-Dihydrokawain;(+)-Dihydrokavain;(+)-(<em>S</em>)-Dihydrokavain;(6<em>S</em>)-4-Methoxy-6-(2-phenylethyl)-5,6-dihydro-2<em>H</em>-pyran-2-one;(2S)-4-Methoxy-2-(2-phenylethyl)-2,3-dihydropyran-6-one",
    "duplicated_cas_no": "19451-52-6;19902-90-0;24576-85-0",
    "SMILES": "C(CC1=CC=CC=C1)[C@H]2CC(OC)=CC(=O)O2",
    "meta_data": {
        "InChI": "InChI=1S/C14H16O3/c1-16-13-9-12(17-14(15)10-13)8-7-11-5-3-2-4-6-11/h2-6,10,12H,7-9H2,1H3/t12-/m0/s1",
        "InChIKey": null,
        "Canonical SMILES": "O=C1OC(CC(OC)=C1)CCC=2C=CC=CC2",
        "Molecular Formula": "C<sub>14</sub>H<sub>16</sub>O<sub>3</sub>",
        "Molecular Mass": "232.27",
        "Melting Point": "58-60 °C"
    }
}