{
    "cas_no": "1013-76-9",
    "key_name": "1-(2,4-Dimethylphenyl)piperazine",
    "cn_name": "1-(2,4-二甲基苯基)哌嗪;",
    "alternate_name": "Piperazine, 1-(2,4-dimethylphenyl)-;Piperazine, 1-(2,4-xylyl)-;1-(2,4-Dimethylphenyl)piperazine;1-(2,4-Xylyl)piperazine;<em>N</em>-(2,4-Xylyl)piperazine;<em>N</em>-(2,4-Dimethylphenyl)piperazine;4-(2,4-Dimethylphenyl)piperazine",
    "duplicated_cas_no": "",
    "SMILES": "CC1=C(N2CCNCC2)C=CC(C)=C1",
    "meta_data": {
        "InChI": "InChI=1S/C12H18N2/c1-10-3-4-12(11(2)9-10)14-7-5-13-6-8-14/h3-4,9,13H,5-8H2,1-2H3",
        "InChIKey": null,
        "Canonical SMILES": "C=1C=C(C(=CC1C)C)N2CCNCC2",
        "Molecular Formula": "C<sub>12</sub>H<sub>18</sub>N<sub>2</sub>",
        "Molecular Mass": "190.28",
        "Boiling Point": "153 °C @ Press: 10 Torr",
        "Melting Point": "29-34 °C"
    }
}