{
    "cas_no": "26472-41-3",
    "key_name": "Humulone",
    "cn_name": null,
    "alternate_name": "2,4-Cyclohexadien-1-one, 3,5,6-trihydroxy-4,6-bis(3-methyl-2-buten-1-yl)-2-(3-methyl-1-oxobutyl)-, (6<em>R</em>)-;2,4-Cyclohexadien-1-one, 3,5,6-trihydroxy-2-isovaleryl-4,6-bis(3-methyl-2-butenyl)-, (<em>R</em>)-(-)-;2,4-Cyclohexadien-1-one, 3,5,6-trihydroxy-4,6-bis(3-methyl-2-butenyl)-2-(3-methyl-1-oxobutyl)-, (<em>R</em>)-;2,4-Cyclohexadien-1-one, 3,5,6-trihydroxy-4,6-bis(3-methyl-2-butenyl)-2-(3-methyl-1-oxobutyl)-, (6<em>R</em>)-;(6<em>R</em>)-3,5,6-Trihydroxy-4,6-bis(3-methyl-2-buten-1-yl)-2-(3-methyl-1-oxobutyl)-2,4-cyclohexadien-1-one;Humulone;Humulon;(-)-(<em>R</em>)-Humulone;(-)-Humulone;Humulone α-acid;α-Acid;α-Lupulic acid;(6R)-3,5,6-Trihydroxy-2-(3-methylbutanoyl)-4,6-bis(3-methylbut-2-enyl)cyclohexa-2,4-dien-1-one",
    "duplicated_cas_no": "32452-59-8",
    "SMILES": "C(C=C(C)C)[C@]1(O)C(=O)C(C(CC(C)C)=O)=C(O)C(CC=C(C)C)=C1O",
    "meta_data": {
        "InChI": "InChI=1S/C21H30O5/c1-12(2)7-8-15-18(23)17(16(22)11-14(5)6)20(25)21(26,19(15)24)10-9-13(3)4/h7,9,14,23-24,26H,8,10-11H2,1-6H3/t21-/m1/s1",
        "InChIKey": null,
        "Canonical SMILES": "O=C(C1=C(O)C(=C(O)C(O)(C1=O)CC=C(C)C)CC=C(C)C)CC(C)C",
        "Molecular Formula": "C<sub>21</sub>H<sub>30</sub>O<sub>5</sub>",
        "Molecular Mass": "362.46",
        "Melting Point": "65-66.5 °C"
    }
}