{
    "cas_no": "459-05-2",
    "key_name": "<em>N</em>-(4-Fluorophenyl)thiourea",
    "cn_name": "1-(4-氟苯基)-2-硫脲;4-氟苯硫脲;",
    "alternate_name": "Thiourea, <em>N</em>-(4-fluorophenyl)-;Urea, 1-(<em>p</em>-fluorophenyl)-2-thio-;Thiourea, (4-fluorophenyl)-;<em>N</em>-(4-Fluorophenyl)thiourea;<em>p</em>-Fluorophenylthiourea;(4-Fluorophenyl)thiourea;1-(4-Fluorophenyl)thiourea",
    "duplicated_cas_no": "",
    "SMILES": "N(C(N)=S)C1=CC=C(F)C=C1",
    "meta_data": {
        "InChI": "InChI=1S/C7H7FN2S/c8-5-1-3-6(4-2-5)10-7(9)11/h1-4H,(H3,9,10,11)",
        "InChIKey": null,
        "Canonical SMILES": "FC1=CC=C(C=C1)NC(=S)N",
        "Molecular Formula": "C<sub>7</sub>H<sub>7</sub>FN<sub>2</sub>S",
        "Molecular Mass": "170.21",
        "Melting Point": "164 °C"
    }
}