{
    "cas_no": "464-07-3",
    "key_name": "3,3-Dimethyl-2-butanol",
    "cn_name": null,
    "alternate_name": "2-Butanol, 3,3-dimethyl-;Pinacolyl alcohol;3,3-Dimethyl-2-butanol;<em>tert</em>-Butyl methyl carbinol;2,2-Dimethyl-3-butanol;1-Methyl-2,2-dimethylpropanol;<span class=\"text-smallcaps\">DL</span>-3,3-Dimethylbutan-2-ol;(±)-Pinacolyl alcohol;(±)-3,3-Dimethyl-2-butanol;NSC 939;1,2,2-Trimethyl-1-propanol;1-<em>tert</em>-Butylethanol",
    "duplicated_cas_no": "20281-91-8",
    "SMILES": "C(C(C)O)(C)(C)C",
    "meta_data": {
        "InChI": "InChI=1S/C6H14O/c1-5(7)6(2,3)4/h5,7H,1-4H3",
        "InChIKey": null,
        "Canonical SMILES": "OC(C)C(C)(C)C",
        "Molecular Formula": "C<sub>6</sub>H<sub>14</sub>O",
        "Molecular Mass": "102.17",
        "Boiling Point": "120 °C",
        "Melting Point": "4.8 °C",
        "Density": "0.810 g/cm³ @ Temp: 25 °C"
    }
}