{
    "cas_no": "10538-51-9",
    "key_name": "3-(2,5-Dimethoxyphenyl)-2-propenoic acid",
    "cn_name": "2,5-二甲氧基肉桂酸;",
    "alternate_name": "2-Propenoic acid, 3-(2,5-dimethoxyphenyl)-;Cinnamic acid, 2,5-dimethoxy-;3-(2,5-Dimethoxyphenyl)-2-propenoic acid;2,5-Dimethoxycinnamic acid;3-(2,5-Dimethoxyphenyl)acrylic acid",
    "duplicated_cas_no": "",
    "SMILES": "C(=CC(O)=O)C1=C(OC)C=CC(OC)=C1",
    "meta_data": {
        "InChI": "InChI=1S/C11H12O4/c1-14-9-4-5-10(15-2)8(7-9)3-6-11(12)13/h3-7H,1-2H3,(H,12,13)",
        "InChIKey": null,
        "Canonical SMILES": "O=C(O)C=CC1=CC(OC)=CC=C1OC",
        "Molecular Formula": "C<sub>11</sub>H<sub>12</sub>O<sub>4</sub>",
        "Molecular Mass": "208.21",
        "Melting Point": "147 °C"
    }
}