{
    "cas_no": "331-25-9",
    "key_name": "3-Fluorophenylacetic acid",
    "cn_name": "3-氟苯乙酸;间氟苯乙酸;",
    "alternate_name": "Benzeneacetic acid, 3-fluoro-;Acetic acid, (<em>m</em>-fluorophenyl)-;3-Fluorobenzeneacetic acid;3-Fluorophenylacetic acid;(<em>m</em>-Fluorophenyl)acetic acid;m-Fluorophenylacetic acid;NSC 88344;2-(3-Fluorophenyl)acetic acid;<em>m</em>-Fluorobenzeneacetic acid",
    "duplicated_cas_no": "",
    "SMILES": "C(C(O)=O)C1=CC(F)=CC=C1",
    "meta_data": {
        "InChI": "InChI=1S/C8H7FO2/c9-7-3-1-2-6(4-7)5-8(10)11/h1-4H,5H2,(H,10,11)",
        "InChIKey": null,
        "Canonical SMILES": "O=C(O)CC=1C=CC=C(F)C1",
        "Molecular Formula": "C<sub>8</sub>H<sub>7</sub>FO<sub>2</sub>",
        "Molecular Mass": "154.14",
        "Melting Point": "43 °C"
    }
}