{
    "cas_no": "34552-83-5",
    "key_name": "Loperamide hydrochloride",
    "cn_name": "盐酸洛哌丁胺;4-(对氯苯基)-4-羟基-N,N-二甲基-alpha,alpha-二苯基-1-哌啶丁酰胺盐酸盐;",
    "alternate_name": "1-Piperidinebutanamide, 4-(4-chlorophenyl)-4-hydroxy-<em>N</em>,<em>N</em>-dimethyl-α,α-diphenyl-, hydrochloride (1:1);1-Piperidinebutanamide, 4-(4-chlorophenyl)-4-hydroxy-<em>N</em>,<em>N</em>-dimethyl-α,α-diphenyl-, monohydrochloride;4-(<em>p</em>-Chlorophenyl)-4-hydroxy-<em>N</em>,<em>N</em>-dimethyl-α,α-diphenyl-1-piperidinobutyramide hydrochloride;Loperamide hydrochloride;R 18553;Lopemin;Imodium;Loperazine;Lopodium;PJ 185;Arret;Imosec;Fortasec;Maalox Antidiarrheal;Imossel;Blox;Tebloc;Dissenten;Suprasec;Loperyl;Brek;Lopemid;Imodium A-D;NSC 696356",
    "duplicated_cas_no": "",
    "SMILES": "C(CCN1CCC(O)(CC1)C2=CC=C(Cl)C=C2)(C(N(C)C)=O)(C3=CC=CC=C3)C4=CC=CC=C4.Cl",
    "meta_data": {
        "InChI": "InChI=1S/C29H33ClN2O2.ClH/c1-31(2)27(33)29(24-9-5-3-6-10-24,25-11-7-4-8-12-25)19-22-32-20-17-28(34,18-21-32)23-13-15-26(30)16-14-23;/h3-16,34H,17-22H2,1-2H3;1H",
        "InChIKey": null,
        "Canonical SMILES": "Cl.O=C(N(C)C)C(C=1C=CC=CC1)(C=2C=CC=CC2)CCN3CCC(O)(C4=CC=C(Cl)C=C4)CC3",
        "Molecular Formula": "C<sub>29</sub>H<sub>33</sub>ClN<sub>2</sub>O<sub>2</sub>.ClH",
        "Molecular Mass": "",
        "Melting Point": "222-223 °C"
    }
}