{
    "cas_no": "109-65-9",
    "key_name": "Butyl bromide",
    "cn_name": "溴丁烷;正溴丁烷;",
    "alternate_name": "Butane, 1-bromo-;1-Bromobutane;Butyl bromide;<em>n</em>-Butyl bromide;1-Butyl bromide",
    "duplicated_cas_no": "2092429-10-0",
    "SMILES": "C(CBr)CC",
    "meta_data": {
        "InChI": "InChI=1S/C4H9Br/c1-2-3-4-5/h2-4H2,1H3",
        "InChIKey": null,
        "Canonical SMILES": "BrCCCC",
        "Molecular Formula": "C<sub>4</sub>H<sub>9</sub>Br",
        "Molecular Mass": "137.02",
        "Boiling Point": "101.3 °C @ Press: 760 Torr",
        "Melting Point": "-112 °C",
        "Density": "1.2686 g/cm³ @ Temp: 25 °C"
    }
}