{
    "cas_no": "933-76-6",
    "key_name": "4,5-Dichloro-2-methyl-3(2<em>H</em>)-pyridazinone",
    "cn_name": "4,5-二氯-2-甲基-3(2H)-哌啶酮;4,5-二氯-2-甲基哒嗪-3-酮;",
    "alternate_name": "3(2<em>H</em>)-Pyridazinone, 4,5-dichloro-2-methyl-;4,5-Dichloro-2-methyl-3(2<em>H</em>)-pyridazinone;2-Methyl-4,5-dichloro-3-pyridazinone;2-Methyl-4,5-dichloro-3(2<em>H</em>)-pyridazinone;4,5-Dichloro-2-methyl-2<em>H</em>-pyridazin-3-one",
    "duplicated_cas_no": "",
    "SMILES": "ClC=1C(=O)N(C)N=CC1Cl",
    "meta_data": {
        "InChI": "InChI=1S/C5H4Cl2N2O/c1-9-5(10)4(7)3(6)2-8-9/h2H,1H3",
        "InChIKey": null,
        "Canonical SMILES": "O=C1C(Cl)=C(Cl)C=NN1C",
        "Molecular Formula": "C<sub>5</sub>H<sub>4</sub>Cl<sub>2</sub>N<sub>2</sub>O",
        "Molecular Mass": "179.00",
        "Melting Point": "90-91 °C"
    }
}