{
    "cas_no": "482-48-4",
    "key_name": "Isobergapten",
    "cn_name": null,
    "alternate_name": "2<em>H</em>-Furo[2,3-<em>h</em>]-1-benzopyran-2-one, 5-methoxy-;Isobergapten;5-Benzofuranacrylic acid, 4-hydroxy-6-methoxy-, δ-lactone;5-Methoxy-2<em>H</em>-furo[2,3-<em>h</em>]-1-benzopyran-2-one;Isobergaptene;5-Methoxyangelicin",
    "duplicated_cas_no": "",
    "SMILES": "O(C)C=1C2=C(C3=C(C1)OC=C3)OC(=O)C=C2",
    "meta_data": {
        "InChI": "InChI=1S/C12H8O4/c1-14-9-6-10-8(4-5-15-10)12-7(9)2-3-11(13)16-12/h2-6H,1H3",
        "InChIKey": null,
        "Canonical SMILES": "O=C1OC2=C3C=COC3=CC(OC)=C2C=C1",
        "Molecular Formula": "C<sub>12</sub>H<sub>8</sub>O<sub>4</sub>",
        "Molecular Mass": "216.19",
        "Melting Point": "222 °C"
    }
}