{
    "cas_no": "951-77-9",
    "key_name": "Deoxycytidine",
    "cn_name": "2\"-脱氧胞嘧啶核苷一水合物;2\"-脱氧胞嘧啶核甙一水合物;2\"-脱氧胞苷一水合物;",
    "alternate_name": "Cytidine, 2′-deoxy-;Cytidine, deoxy-;2′-Deoxycytidine;Cytosine deoxyribonucleoside;Cytosine deoxyriboside;Deoxycytidine;Deoxyribose cytidine;2(1<em>H</em>)-Pyrimidinone, 4-amino-1-(2-deoxy-β-<span class=\"text-smallcaps\">D</span>-<em>erythro</em>-pentofuranosyl)-;4-Amino-1-(2-deoxy-β-<span class=\"text-smallcaps\">D</span>-<em>erythro</em>-pentofuranosyl)-2(1<em>H</em>)-pyrimidinone;1-(2-Deoxy-β-<span class=\"text-smallcaps\">D</span>-ribofuranosyl)cytosine;Doxecitine;39: PN: WO2022263569 PAGE: 208 claimed sequence;MeSH ID: D003841;2: PN: WO2024041641 PAGE: 23 claimed sequence",
    "duplicated_cas_no": "1236362-96-1",
    "SMILES": "O=C1N([C@@H]2O[C@H](CO)[C@@H](O)C2)C=CC(N)=N1",
    "meta_data": {
        "InChI": "InChI=1S/C9H13N3O4/c10-7-1-2-12(9(15)11-7)8-3-5(14)6(4-13)16-8/h1-2,5-6,8,13-14H,3-4H2,(H2,10,11,15)/t5-,6+,8+/m0/s1",
        "InChIKey": null,
        "Canonical SMILES": "O=C1N=C(N)C=CN1C2OC(CO)C(O)C2",
        "Molecular Formula": "C<sub>9</sub>H<sub>13</sub>N<sub>3</sub>O<sub>4</sub>",
        "Molecular Mass": "227.22",
        "Melting Point": "201-203 °C"
    }
}