{
    "cas_no": "3685-27-6",
    "key_name": "<em>trans</em>-4-Hydroxycyclohexanemethanol",
    "cn_name": null,
    "alternate_name": "Cyclohexanemethanol, 4-hydroxy-, <em>trans</em>-;<em>trans</em>-4-Hydroxycyclohexanemethanol;<em>trans</em>-4-(Hydroxymethyl)cyclohexanol",
    "duplicated_cas_no": "",
    "SMILES": "C(O)[C@H]1CC[C@H](O)CC1",
    "meta_data": {
        "InChI": "InChI=1/C7H14O2/c8-5-6-1-3-7(9)4-2-6/h6-9H,1-5H2/t6-,7-",
        "InChIKey": null,
        "Canonical SMILES": "OCC1CCC(O)CC1",
        "Molecular Formula": "C<sub>7</sub>H<sub>14</sub>O<sub>2</sub>",
        "Molecular Mass": "130.18",
        "Melting Point": "103 °C"
    }
}