{
    "cas_no": "80945-86-4",
    "key_name": "6-Bromo-2-chlorobenzothiazole",
    "cn_name": "6-溴-2-氯苯并噻唑;",
    "alternate_name": "Benzothiazole, 6-bromo-2-chloro-;6-Bromo-2-chlorobenzothiazole;2-Chloro-6-bromobenzothiazole;6-Bromo-2-chlorobenzo[<em>d</em>]thiazole;6-Bromo-2-chloro-1,3-benzothiazole;2-Chloro-6-bromobenzo[<em>d</em>]thiazole",
    "duplicated_cas_no": "",
    "SMILES": "ClC1=NC=2C(S1)=CC(Br)=CC2",
    "meta_data": {
        "InChI": "InChI=1S/C7H3BrClNS/c8-4-1-2-5-6(3-4)11-7(9)10-5/h1-3H",
        "InChIKey": null,
        "Canonical SMILES": "ClC1=NC=2C=CC(Br)=CC2S1",
        "Molecular Formula": "C<sub>7</sub>H<sub>3</sub>BrClNS",
        "Molecular Mass": "248.53",
        "Melting Point": "100-101 °C"
    }
}