{
    "cas_no": "503-74-2",
    "key_name": "Isovaleric acid",
    "cn_name": "异戊酸;3-甲基丁酸;",
    "alternate_name": "Butanoic acid, 3-methyl-;Isovaleric acid;3-Methylbutanoic acid;Acetic acid, isopropyl-;Delphinic acid;Isopropylacetic acid;β-Methylbutyric acid;Isopentanoic acid;3-Methylbutyric acid;3-Methylbutyrate;3-Methyl-<em>n</em>-butyric acid;Isovalerianic acid;NSC 62783;3-Methyl-1-butanoic acid",
    "duplicated_cas_no": "",
    "SMILES": "C(C(C)C)C(O)=O",
    "meta_data": {
        "InChI": "InChI=1S/C5H10O2/c1-4(2)3-5(6)7/h4H,3H2,1-2H3,(H,6,7)",
        "InChIKey": null,
        "Canonical SMILES": "O=C(O)CC(C)C",
        "Molecular Formula": "C<sub>5</sub>H<sub>10</sub>O<sub>2</sub>",
        "Molecular Mass": "102.13",
        "Boiling Point": "176.5 °C @ Press: 760 Torr",
        "Melting Point": "-29.3 °C",
        "Density": "0.931 g/cm³ @ Temp: 20 °C"
    }
}