{
    "cas_no": "1074-68-6",
    "key_name": "2-(Methylthio)-4-pyrimidinecarboxaldehyde",
    "cn_name": "2-甲硫基-嘧啶-4-甲醛;2-甲硫基-嘧啶-4-甲醛;",
    "alternate_name": "4-Pyrimidinecarboxaldehyde, 2-(methylthio)-;2-(Methylthio)-4-pyrimidinecarboxaldehyde;2-Methylthiopyrimidine-4-carboxaldehyde;4-Formyl-2-methylthiopyrimidine;2-Methylsulfanylpyrimidine-4-carboxaldehyde;2-Methylsulfanylpyrimidine-4-carbaldehyde;2-(Methylsulfanyl)pyrimidine-4-carbaldehyde;2-(Methylthio)pyrimidine-4-carbaldehyde",
    "duplicated_cas_no": "219770-41-9",
    "SMILES": "C(=O)C1=NC(SC)=NC=C1",
    "meta_data": {
        "InChI": "InChI=1S/C6H6N2OS/c1-10-6-7-3-2-5(4-9)8-6/h2-4H,1H3",
        "InChIKey": null,
        "Canonical SMILES": "O=CC1=NC(=NC=C1)SC",
        "Molecular Formula": "C<sub>6</sub>H<sub>6</sub>N<sub>2</sub>OS",
        "Molecular Mass": "154.19",
        "Boiling Point": "110-112 °C @ Press: 1 x 10<sup>-3</sup> Torr",
        "Melting Point": "68 °C"
    }
}