{
    "cas_no": "36822-11-4",
    "key_name": "6-Phenyl-2-thiouracil",
    "cn_name": null,
    "alternate_name": "4(1<em>H</em>)-Pyrimidinone, 2,3-dihydro-6-phenyl-2-thioxo-;Uracil, 6-phenyl-2-thio-;2,3-Dihydro-6-phenyl-2-thioxo-4(1<em>H</em>)-pyrimidinone;6-Phenyl-2-thiouracil;6-Phenylthiouracil;2-Mercapto-6-phenylpyrimidin-4-ol;Fenucil;NSC 163991;NSC 42600;2-Mercapto-6-phenyl-1<em>H</em>-pyrimidin-4-one",
    "duplicated_cas_no": "5590-94-3;39190-04-0",
    "SMILES": "O=C1C=C(NC(=S)N1)C2=CC=CC=C2",
    "meta_data": {
        "InChI": "InChI=1S/C10H8N2OS/c13-9-6-8(11-10(14)12-9)7-4-2-1-3-5-7/h1-6H,(H2,11,12,13,14)",
        "InChIKey": null,
        "Canonical SMILES": "O=C1C=C(NC(=S)N1)C=2C=CC=CC2",
        "Molecular Formula": "C<sub>10</sub>H<sub>8</sub>N<sub>2</sub>OS",
        "Molecular Mass": "204.25",
        "Melting Point": "263-264.5 °C"
    }
}