{
    "cas_no": "18368-58-6",
    "key_name": "5-Methyl-2(1<em>H</em>)-pyridinethione",
    "cn_name": null,
    "alternate_name": "2(1<em>H</em>)-Pyridinethione, 5-methyl-;5-Methyl-2(1<em>H</em>)-pyridinethione;5-Methyl-2-pyridthione;5-Methylpyridine-2-thiol;5-Methyl-2-thiopyridine",
    "duplicated_cas_no": "",
    "SMILES": "CC=1C=CC(=S)NC1",
    "meta_data": {
        "InChI": "InChI=1S/C6H7NS/c1-5-2-3-6(8)7-4-5/h2-4H,1H3,(H,7,8)",
        "InChIKey": null,
        "Canonical SMILES": "S=C1C=CC(=CN1)C",
        "Molecular Formula": "C<sub>6</sub>H<sub>7</sub>NS",
        "Molecular Mass": "125.19",
        "Melting Point": "126-128 °C"
    }
}