{
    "cas_no": "120-61-6",
    "key_name": "Dimethyl terephthalate",
    "cn_name": null,
    "alternate_name": "1,4-Benzenedicarboxylic acid, 1,4-dimethyl ester;Terephthalic acid, dimethyl ester;1,4-Benzenedicarboxylic acid, dimethyl ester;Dimethyl <em>p</em>-phthalate;Dimethyl 1,4-benzenedicarboxylate;Methyl 4-(carbomethoxy)benzoate;Dimethyl <em>p</em>-benzenedicarboxylate;Methyl <em>p</em>-(methoxycarbonyl)benzoate;DMT;Dimethyl terephthalate;NSC 3503;1,4-Dimethyl benzene-1,4-dicarboxylate",
    "duplicated_cas_no": "63143-14-6;202644-54-0",
    "SMILES": "C(OC)(=O)C1=CC=C(C(OC)=O)C=C1",
    "meta_data": {
        "InChI": "InChI=1S/C10H10O4/c1-13-9(11)7-3-5-8(6-4-7)10(12)14-2/h3-6H,1-2H3",
        "InChIKey": null,
        "Canonical SMILES": "O=C(OC)C1=CC=C(C=C1)C(=O)OC",
        "Molecular Formula": "C<sub>10</sub>H<sub>10</sub>O<sub>4</sub>",
        "Molecular Mass": "194.18",
        "Boiling Point": "288 °C",
        "Melting Point": "140 °C",
        "Density": "1.2 g/cm³"
    }
}