{
    "cas_no": "100-40-3",
    "key_name": "Vinylcyclohexene",
    "cn_name": null,
    "alternate_name": "Cyclohexene, 4-ethenyl-;Cyclohexene, 4-vinyl-;4-Ethenylcyclohexene;4-Vinylcyclohexene;4-Vinyl-1-cyclohexene;1-Vinyl-3-cyclohexene;Vinylcyclohexene;NSC 15760;4-VCH;4-Ethenyl-1-cyclohexene;5-Vinyl-2-cyclohexene",
    "duplicated_cas_no": "92619-43-7",
    "SMILES": "C(=C)C1CCC=CC1",
    "meta_data": {
        "InChI": "InChI=1S/C8H12/c1-2-8-6-4-3-5-7-8/h2-4,8H,1,5-7H2",
        "InChIKey": null,
        "Canonical SMILES": "C=CC1CC=CCC1",
        "Molecular Formula": "C<sub>8</sub>H<sub>12</sub>",
        "Molecular Mass": "108.18",
        "Boiling Point": "128 °C @ Press: 760 Torr",
        "Melting Point": "-108.9 °C",
        "Density": "0.8299 g/cm³ @ Temp: 20 °C"
    }
}