{
    "cas_no": "54197-66-9",
    "key_name": "6-Hydroxy-3,4-dihydro-2(1<em>H</em>)-quinolinone",
    "cn_name": "6-羟基-3,4-二氢-2(1H)-喹诺酮;",
    "alternate_name": "2(1<em>H</em>)-Quinolinone, 3,4-dihydro-6-hydroxy-;Carbostyril, 3,4-dihydro-6-hydroxy-;Hydrocarbostyril, 6-hydroxy-;3,4-Dihydro-6-hydroxy-2(1<em>H</em>)-quinolinone;6-Hydroxy-3,4-dihydrocarbostyril;6-Hydroxy-1,2,3,4-tetrahydro-2-quinolinone;3,4-Dihydro-6-hydroxycarbostyril;6-Hydroxy-2-oxo-1,2,3,4-tetrahydroquinoline;6-Hydroxy-3,4-dihydro-2(1<em>H</em>)-quinolinone;6-Hydroxy-3,4-dihydro-1<em>H</em>-quinolin-2-one;2-Oxo-1,2,3,4-tetrahydroquinolin-6-ol;3,4-Dihydroquinoline-2,6-diol",
    "duplicated_cas_no": "",
    "SMILES": "OC=1C=C2C(NC(=O)CC2)=CC1",
    "meta_data": {
        "InChI": "InChI=1S/C9H9NO2/c11-7-2-3-8-6(5-7)1-4-9(12)10-8/h2-3,5,11H,1,4H2,(H,10,12)",
        "InChIKey": null,
        "Canonical SMILES": "O=C1NC2=CC=C(O)C=C2CC1",
        "Molecular Formula": "C<sub>9</sub>H<sub>9</sub>NO<sub>2</sub>",
        "Molecular Mass": "163.17",
        "Melting Point": "230 °C"
    }
}