{
    "cas_no": "26487-67-2",
    "key_name": "1<em>H</em>-Azepine, 1-(2-chloroethyl)hexahydro-, hydrochloride (1:1)",
    "cn_name": "2-(环己亚氨基)乙基氯盐酸盐;2-(环己亚氨基)乙基氯;2-(环己亚氨基)乙基氯盐酸盐;",
    "alternate_name": "1<em>H</em>-Azepine, 1-(2-chloroethyl)hexahydro-, hydrochloride (1:1);1<em>H</em>-Azepine, 1-(2-chloroethyl)hexahydro-, hydrochloride;Hexamethylenimine, 1-(2-chloroethyl)-, hydrochloride;β-(Hexahydro-1<em>H</em>-azepin-1-yl)ethyl chloride hydrochloride;1-(2-Chloroethyl)hexahydro-1<em>H</em>-azepine hydrochloride;2-(Hexamethyleneimino)ethyl chloride hydrochloride;1-(2-Chloroethyl)hexamethyleneimine hydrochloride;1-(2-Chloroethyl)azepane hydrochloride;1-(2-Chloroethyl)-azacycloheptane hydrochloride;<em>N</em>-(2-Chloroethyl)hexahydro-1<em>H</em>-azepine hydrochloride",
    "duplicated_cas_no": "83028-42-6",
    "SMILES": "C(CCl)N1CCCCCC1.Cl",
    "meta_data": {
        "InChI": "InChI=1S/C8H16ClN.ClH/c9-5-8-10-6-3-1-2-4-7-10;/h1-8H2;1H",
        "InChIKey": null,
        "Canonical SMILES": "Cl.ClCCN1CCCCCC1",
        "Molecular Formula": "C<sub>8</sub>H<sub>16</sub>ClN.ClH",
        "Molecular Mass": "",
        "Melting Point": "208 °C (decomp)"
    }
}