{
    "cas_no": "13398-94-2",
    "key_name": "3-Hydroxybenzeneethanol",
    "cn_name": "2-(3-羟基苯基)乙醇;",
    "alternate_name": "Benzeneethanol, 3-hydroxy-;Phenethyl alcohol, <em>m</em>-hydroxy-;3-Hydroxybenzeneethanol;<em>m</em>-Hydroxyphenethyl alcohol;<em>m</em>-Tyrosol;2-(<em>m</em>-Hydroxyphenyl)ethanol;3-(β-Hydroxyethyl)phenol;2-(3-Hydroxyphenyl)ethanol;1,3-Tyrosol;2-(3-Hydroxyphenyl)ethyl alcohol;3-Hydroxyphenethyl alcohol;NSC 101846;3-(2-Hydroxyethyl)phenol;<em>m</em>-Hydroxyphenylethyl alcohol",
    "duplicated_cas_no": "",
    "SMILES": "C(CO)C1=CC(O)=CC=C1",
    "meta_data": {
        "InChI": "InChI=1S/C8H10O2/c9-5-4-7-2-1-3-8(10)6-7/h1-3,6,9-10H,4-5H2",
        "InChIKey": null,
        "Canonical SMILES": "OC1=CC=CC(=C1)CCO",
        "Molecular Formula": "C<sub>8</sub>H<sub>10</sub>O<sub>2</sub>",
        "Molecular Mass": "138.16",
        "Boiling Point": "168-173 °C @ Press: 4 Torr"
    }
}