{
    "cas_no": "615-57-6",
    "key_name": "2,4-Dibromoaniline",
    "cn_name": "2,4-二溴苯胺;",
    "alternate_name": "Benzenamine, 2,4-dibromo-;Aniline, 2,4-dibromo-;2,4-Dibromobenzenamine;2,4-Dibromoaniline;NSC 88324;(2,4-Dibromophenyl)amine",
    "duplicated_cas_no": "",
    "SMILES": "BrC1=C(N)C=CC(Br)=C1",
    "meta_data": {
        "InChI": "InChI=1S/C6H5Br2N/c7-4-1-2-6(9)5(8)3-4/h1-3H,9H2",
        "InChIKey": null,
        "Canonical SMILES": "BrC1=CC=C(N)C(Br)=C1",
        "Molecular Formula": "C<sub>6</sub>H<sub>5</sub>Br<sub>2</sub>N",
        "Molecular Mass": "250.92",
        "Boiling Point": "156 °C",
        "Melting Point": "79.5 °C",
        "Density": "2.260 g/cm³"
    }
}