{
    "cas_no": "319-88-0",
    "key_name": "1,3,5-Trichloro-2,4,6-trifluorobenzene",
    "cn_name": null,
    "alternate_name": "Benzene, 1,3,5-trichloro-2,4,6-trifluoro-;1,3,5-Trichloro-2,4,6-trifluorobenzene;<em>sym</em>-Trichlorotrifluorobenzene;1,3,5-Trichlorotrifluorobenzene;<em>sym</em>-Trifluorotrichlorobenzene;2,4,6-Trifluorotrichlorobenzene;1,3,5-Trifluorotrichlorobenzene;NSC 109622",
    "duplicated_cas_no": "",
    "SMILES": "ClC1=C(F)C(Cl)=C(F)C(Cl)=C1F",
    "meta_data": {
        "InChI": "InChI=1S/C6Cl3F3/c7-1-4(10)2(8)6(12)3(9)5(1)11",
        "InChIKey": null,
        "Canonical SMILES": "FC=1C(Cl)=C(F)C(Cl)=C(F)C1Cl",
        "Molecular Formula": "C<sub>6</sub>Cl<sub>3</sub>F<sub>3</sub>",
        "Molecular Mass": "235.42",
        "Boiling Point": "198.4 °C",
        "Melting Point": "63 °C"
    }
}