{
    "cas_no": "41114-00-5",
    "key_name": "Ethyl pentadecanoate",
    "cn_name": "十五酸乙酯;",
    "alternate_name": "Pentadecanoic acid, ethyl ester;Ethyl pentadecanoate;NSC 137833",
    "duplicated_cas_no": "",
    "SMILES": "C(CCCCCCCCCCCC)CC(OCC)=O",
    "meta_data": {
        "InChI": "InChI=1S/C17H34O2/c1-3-5-6-7-8-9-10-11-12-13-14-15-16-17(18)19-4-2/h3-16H2,1-2H3",
        "InChIKey": null,
        "Canonical SMILES": "O=C(OCC)CCCCCCCCCCCCCC",
        "Molecular Formula": "C<sub>17</sub>H<sub>34</sub>O<sub>2</sub>",
        "Molecular Mass": "270.45",
        "Boiling Point": "172-174 °C @ Press: 16 Torr"
    }
}