{
    "cas_no": "563-68-8",
    "key_name": "Thallium(I) acetate",
    "cn_name": "醋酸铊(I);醋酸铊;乙酸亚铊;乙酸亚铊盐;",
    "alternate_name": "Acetic acid, thallium(1+) salt (1:1);Acetic acid, thallium(1+) salt;Thallium acetate (TlOAc);Thallium acetate;Thallous acetate;Thallium(1+) acetate;Thallium monoacetate;Thallium(I) acetate",
    "duplicated_cas_no": "",
    "SMILES": "C(C)(O)=O.[Tl]",
    "meta_data": {
        "InChI": "InChI=1S/C2H4O2.Tl/c1-2(3)4;/h1H3,(H,3,4);",
        "InChIKey": null,
        "Canonical SMILES": "[Tl].O=C(O)C",
        "Molecular Formula": "C<sub>2</sub>H<sub>4</sub>O<sub>2</sub>.Tl",
        "Molecular Mass": "",
        "Melting Point": "131 °C",
        "Density": "3.68 g/cm³"
    }
}