{
    "cas_no": "594-09-2",
    "key_name": "Trimethylphosphine",
    "cn_name": null,
    "alternate_name": "Phosphine, trimethyl-;Trimethylphosphine;Trimethylphosphorus",
    "duplicated_cas_no": "",
    "SMILES": "P(C)(C)C",
    "meta_data": {
        "InChI": "InChI=1S/C3H9P/c1-4(2)3/h1-3H3",
        "InChIKey": null,
        "Canonical SMILES": "P(C)(C)C",
        "Molecular Formula": "C<sub>3</sub>H<sub>9</sub>P",
        "Molecular Mass": "76.08",
        "Boiling Point": "37.5 °C",
        "Melting Point": "-85 °C"
    }
}