{
    "cas_no": "42471-28-3",
    "key_name": "Nimustine",
    "cn_name": "尼莫司汀;1-[(4-氨基-2-甲基-5-嘧啶基)甲基]-3-(2-氯乙基)-3-亚硝基脲;",
    "alternate_name": "Urea, <em>N</em>′-[(4-amino-2-methyl-5-pyrimidinyl)methyl]-<em>N</em>-(2-chloroethyl)-<em>N</em>-nitroso-;<em>N</em>′-[(4-Amino-2-methyl-5-pyrimidinyl)methyl]-<em>N</em>-(2-chloroethyl)-<em>N</em>-nitrosourea;Nimustine;NSC 245382;1-(4-Amino-2-methyl-5-pyrimidinyl)methyl-3-(2-chloroethyl)-3-nitrosourea",
    "duplicated_cas_no": "",
    "SMILES": "C(NC(N(CCCl)N=O)=O)C=1C(N)=NC(C)=NC1",
    "meta_data": {
        "InChI": "InChI=1S/C9H13ClN6O2/c1-6-12-4-7(8(11)14-6)5-13-9(17)16(15-18)3-2-10/h4H,2-3,5H2,1H3,(H,13,17)(H2,11,12,14)",
        "InChIKey": null,
        "Canonical SMILES": "O=NN(C(=O)NCC1=CN=C(N=C1N)C)CCCl",
        "Molecular Formula": "C<sub>9</sub>H<sub>13</sub>ClN<sub>6</sub>O<sub>2</sub>",
        "Molecular Mass": "272.69",
        "Melting Point": "125 °C (decomp)"
    }
}