{
    "cas_no": "194798-83-9",
    "key_name": "Fosfluconazole",
    "cn_name": "2-(2,4-二氟苯基)-1,3-二(1H-1,2,4-三氮唑-1-基)丙基二氢磷酸酯;",
    "alternate_name": "1<em>H</em>-1,2,4-Triazole-1-ethanol, α-(2,4-difluorophenyl)-α-(1<em>H</em>-1,2,4-triazol-1-ylmethyl)-, 1-(dihydrogen phosphate);1<em>H</em>-1,2,4-Triazole-1-ethanol, α-(2,4-difluorophenyl)-α-(1<em>H</em>-1,2,4-triazol-1-ylmethyl)-, dihydrogen phosphate (ester);Fosfluconazole;Prodif;2-(2,4-Difluorophenyl)-1,3-di(1<em>H</em>-1,2,4-triazol-1-yl)propan-2-yl dihydrogen phosphate",
    "duplicated_cas_no": "",
    "SMILES": "C(CN1C=NC=N1)(CN2C=NC=N2)(OP(=O)(O)O)C3=C(F)C=C(F)C=C3",
    "meta_data": {
        "InChI": "InChI=1S/C13H13F2N6O4P/c14-10-1-2-11(12(15)3-10)13(25-26(22,23)24,4-20-8-16-6-18-20)5-21-9-17-7-19-21/h1-3,6-9H,4-5H2,(H2,22,23,24)",
        "InChIKey": null,
        "Canonical SMILES": "O=P(O)(O)OC(C1=CC=C(F)C=C1F)(CN2N=CN=C2)CN3N=CN=C3",
        "Molecular Formula": "C<sub>13</sub>H<sub>13</sub>F<sub>2</sub>N<sub>6</sub>O<sub>4</sub>P",
        "Molecular Mass": "386.25",
        "Melting Point": "223-224 °C"
    }
}