{
    "cas_no": "78-48-8",
    "key_name": "Tribufos",
    "cn_name": "1,2,4-三丁基三硫磷酸酯;S,S,S-三丁基三硫代磷酸酯;三丁磷;脱叶磷;",
    "alternate_name": "Phosphorotrithioic acid, <em>S</em>,<em>S</em>,<em>S</em>-tributyl ester;Butyl phosphorotrithioate;B 1,776;Butiphos;Chemagro B 1776;DEF;DEF (defoliant);De-Green;Fosfall;Fos-Fall A;<em>S</em>,<em>S</em>,<em>S</em>-Tributyl phosphorotrithioate;<em>S</em>,<em>S</em>,<em>S</em>-Tributyl trithiophosphate;Butyl phosphorotrithioate ((BuS)<sub>3</sub>PO);TBTP;TBPT;Tribufos;DEF 6;Tuoyelin",
    "duplicated_cas_no": "",
    "SMILES": "P(SCCCC)(SCCCC)(SCCCC)=O",
    "meta_data": {
        "InChI": "InChI=1S/C12H27OPS3/c1-4-7-10-15-14(13,16-11-8-5-2)17-12-9-6-3/h4-12H2,1-3H3",
        "InChIKey": null,
        "Canonical SMILES": "O=P(SCCCC)(SCCCC)SCCCC",
        "Molecular Formula": "C<sub>12</sub>H<sub>27</sub>OPS<sub>3</sub>",
        "Molecular Mass": "314.51",
        "Boiling Point": "150 °C @ Press: 0.3 Torr",
        "Melting Point": "&lt;-25 °C",
        "Density": "1.06 g/cm³ @ Temp: 20 °C"
    }
}