{
    "cas_no": "21296-94-6",
    "key_name": "2,3-Dimethyl-5-nitro-1<em>H</em>-indole",
    "cn_name": "2,3-二甲基-5-硝基吲哚;",
    "alternate_name": "1<em>H</em>-Indole, 2,3-dimethyl-5-nitro-;Indole, 2,3-dimethyl-5-nitro-;2,3-Dimethyl-5-nitro-1<em>H</em>-indole;5-Nitro-2,3-dimethylindole;2,3-Dimethyl-5-nitroindole;INF 2;NSC 84204",
    "duplicated_cas_no": "",
    "SMILES": "CC=1C=2C(NC1C)=CC=C(N(=O)=O)C2",
    "meta_data": {
        "InChI": "InChI=1S/C10H10N2O2/c1-6-7(2)11-10-4-3-8(12(13)14)5-9(6)10/h3-5,11H,1-2H3",
        "InChIKey": null,
        "Canonical SMILES": "O=N(=O)C=1C=CC=2NC(=C(C2C1)C)C",
        "Molecular Formula": "C<sub>10</sub>H<sub>10</sub>N<sub>2</sub>O<sub>2</sub>",
        "Molecular Mass": "190.20",
        "Melting Point": "186 °C"
    }
}