{
    "cas_no": "2611-00-9",
    "key_name": "3-Cyclohexene-1-carboxylic acid, 3-cyclohexen-1-ylmethyl ester",
    "cn_name": "3-环己烯-1-羧酸-3-环己烯-1-基甲酯;四氢苯甲酸-四氢苄酯;",
    "alternate_name": "3-Cyclohexene-1-carboxylic acid, 3-cyclohexen-1-ylmethyl ester;3-Cyclohexenylmethyl 3-cyclohexenecarboxylate;Diene 221;3-Cyclohexen-1-ylmethyl 3-cyclohexenecarboxylate;1,2,5,6-Tetrahydrobenzyl 1,2,5,6-tetrahydrobenzoate;NSC 49615;3-Cyclohexenylmethyl 3′-cyclohexene-1-carboxylate;3-Cyclohexenylmethyl 3-cyclohexene-1-carboxylate;3-Cyclohexene-1-carboxylic acid 3-cyclohexenylmethyl ester;(Cyclohex-3-en-1-yl)methyl cyclohex-3-ene-1-carboxylate",
    "duplicated_cas_no": "",
    "SMILES": "C(OCC1CCC=CC1)(=O)C2CCC=CC2",
    "meta_data": {
        "InChI": "InChI=1S/C14H20O2/c15-14(13-9-5-2-6-10-13)16-11-12-7-3-1-4-8-12/h1-3,5,12-13H,4,6-11H2",
        "InChIKey": null,
        "Canonical SMILES": "O=C(OCC1CC=CCC1)C2CC=CCC2",
        "Molecular Formula": "C<sub>14</sub>H<sub>20</sub>O<sub>2</sub>",
        "Molecular Mass": "220.31",
        "Boiling Point": "152-153 °C @ Press: 7 Torr"
    }
}