{
    "cas_no": "115-11-7",
    "key_name": "Isobutylene",
    "cn_name": "异丁烯;2-甲基-1-丙烯;2-甲基丙烯;2-甲基丙烯;",
    "alternate_name": "1-Propene, 2-methyl-;Propene, 2-methyl-;2-Methyl-1-propene;γ-Butylene;Isobutene;Isobutylene;2-Methylpropene;<em>iso</em>-Butene;Isopropylidenemethylene;1,1-Dimethylethylene;2-Methylpropylene;1,1-Dimethylethene;i-Butene;2-Methyl-2-propene",
    "duplicated_cas_no": "",
    "SMILES": "C(C)(C)=C",
    "meta_data": {
        "InChI": "InChI=1S/C4H8/c1-4(2)3/h1H2,2-3H3",
        "InChIKey": null,
        "Canonical SMILES": "C=C(C)C",
        "Molecular Formula": "C<sub>4</sub>H<sub>8</sub>",
        "Molecular Mass": "56.11",
        "Boiling Point": "-6.9 °C",
        "Melting Point": "-140.4 °C",
        "Density": "0.589 g/cm³ @ Temp: 25 °C"
    }
}