{
    "cas_no": "23947-60-6",
    "key_name": "Ethirimol",
    "cn_name": "乙嘧酚;乙嘧醇；不霉定；乙氨哒酮；胺嘧啶；5－丁基－2－乙氨基－4－羟基－6－甲基嘧啶；乙菌定;",
    "alternate_name": "4(3<em>H</em>)-Pyrimidinone, 5-butyl-2-(ethylamino)-6-methyl-;4(1<em>H</em>)-Pyrimidinone, 5-butyl-2-(ethylamino)-6-methyl-;5-Butyl-2-(ethylamino)-6-methyl-4(3<em>H</em>)-pyrimidinone;Milstem;PP 149;Ethirimol;Milgo;5-Butyl-2-ethylamino-6-hydroxy-4-methylpyrimidine;Milgo E;Milstem Seed Dressing;ETH 560;NSC 263491",
    "duplicated_cas_no": "19810-56-1;1135443-57-0",
    "SMILES": "C(CCC)C1=C(C)NC(NCC)=NC1=O",
    "meta_data": {
        "InChI": "InChI=1S/C11H19N3O/c1-4-6-7-9-8(3)13-11(12-5-2)14-10(9)15/h4-7H2,1-3H3,(H2,12,13,14,15)",
        "InChIKey": null,
        "Canonical SMILES": "O=C1N=C(NC(=C1CCCC)C)NCC",
        "Molecular Formula": "C<sub>11</sub>H<sub>19</sub>N<sub>3</sub>O",
        "Molecular Mass": "209.29",
        "Melting Point": "160 °C"
    }
}