{
    "cas_no": "43218-56-0",
    "key_name": "Midodrine hydrochloride",
    "cn_name": null,
    "alternate_name": "Acetamide, 2-amino-<em>N</em>-[2-(2,5-dimethoxyphenyl)-2-hydroxyethyl]-, hydrochloride (1:1);Acetamide, 2-amino-<em>N</em>-[2-(2,5-dimethoxyphenyl)-2-hydroxyethyl]-, monohydrochloride;Acetamide, 2-amino-<em>N</em>-(β-hydroxy-2,5-dimethoxyphenethyl)-, hydrochloride;Midodrine hydrochloride;TS 701;St 1085;Gutron;(±)-Midodrine hydrochloride;(±)-Midodrin hydrochloride;ProAmatine;Hipertan;Alphamine;A 4020 Linz;Amatine;St. Peter 224;Midamine;Metligene;2-Amino-<em>N</em>-(2-(2,5-dimethoxyphenyl)-2-hydroxyethyl)acetamide hydrochloride",
    "duplicated_cas_no": "3092-17-9",
    "SMILES": "C(CNC(CN)=O)(O)C1=C(OC)C=CC(OC)=C1.Cl",
    "meta_data": {
        "InChI": "InChI=1S/C12H18N2O4.ClH/c1-17-8-3-4-11(18-2)9(5-8)10(15)7-14-12(16)6-13;/h3-5,10,15H,6-7,13H2,1-2H3,(H,14,16);1H",
        "InChIKey": null,
        "Canonical SMILES": "Cl.O=C(NCC(O)C1=CC(OC)=CC=C1OC)CN",
        "Molecular Formula": "C<sub>12</sub>H<sub>18</sub>N<sub>2</sub>O<sub>4</sub>.ClH",
        "Molecular Mass": "",
        "Melting Point": "192-193 °C",
        "Density": "1.371 g/cm³"
    }
}