{
    "cas_no": "54474-50-9",
    "key_name": "2,4-Dimethyl-1<em>H</em>-pyrrole-3-propanoic acid",
    "cn_name": null,
    "alternate_name": "1<em>H</em>-Pyrrole-3-propanoic acid, 2,4-dimethyl-;Pyrrole-3-propionic acid, 2,4-dimethyl-;2,4-Dimethyl-1<em>H</em>-pyrrole-3-propanoic acid;3-(2,4-Dimethyl-1<em>H</em>-pyrrol-3-yl)propionic acid",
    "duplicated_cas_no": "",
    "SMILES": "C(CC(O)=O)C=1C(C)=CNC1C",
    "meta_data": {
        "InChI": "InChI=1S/C9H13NO2/c1-6-5-10-7(2)8(6)3-4-9(11)12/h5,10H,3-4H2,1-2H3,(H,11,12)",
        "InChIKey": null,
        "Canonical SMILES": "O=C(O)CCC=1C(=CNC1C)C",
        "Molecular Formula": "C<sub>9</sub>H<sub>13</sub>NO<sub>2</sub>",
        "Molecular Mass": "167.21",
        "Melting Point": "140-141 °C"
    }
}