{
    "cas_no": "100-00-5",
    "key_name": "1-Chloro-4-nitrobenzene",
    "cn_name": "4-硝基氯苯;对氯硝基苯;对硝基氯苯;",
    "alternate_name": "Benzene, 1-chloro-4-nitro-;1-Chloro-4-nitrobenzene;<em>p</em>-Chloronitrobenzene;4-Chloro-1-nitrobenzene;<em>p</em>-Nitrochlorobenzene;PNCB;<em>p</em>-Nitrophenyl chloride;4-Chloronitrobenzene;4-Nitrochlorobenzene;4-Nitro-1-chlorobenzene;1-Nitro-4-chlorobenzene;4-Nitrophenyl chloride;NSC 9792",
    "duplicated_cas_no": "",
    "SMILES": "N(=O)(=O)C1=CC=C(Cl)C=C1",
    "meta_data": {
        "InChI": "InChI=1S/C6H4ClNO2/c7-5-1-3-6(4-2-5)8(9)10/h1-4H",
        "InChIKey": null,
        "Canonical SMILES": "O=N(=O)C1=CC=C(Cl)C=C1",
        "Molecular Formula": "C<sub>6</sub>H<sub>4</sub>ClNO<sub>2</sub>",
        "Molecular Mass": "157.55",
        "Boiling Point": "242 °C @ Press: 760 Torr",
        "Melting Point": "82-84 °C",
        "Density": "1.520 g/cm³"
    }
}