{
    "cas_no": "19152-36-4",
    "key_name": "2′-Hydroxy-3,4-dimethoxychalcone",
    "cn_name": null,
    "alternate_name": "2-Propen-1-one, 3-(3,4-dimethoxyphenyl)-1-(2-hydroxyphenyl)-;Chalcone, 2′-hydroxy-3,4-dimethoxy-;3-(3,4-Dimethoxyphenyl)-1-(2-hydroxyphenyl)-2-propen-1-one;2′-Hydroxy-3,4-dimethoxychalcone;2-[3-(3,4-Dimethoxyphenyl)-2-propenoyl]phenol;3-(3,4-Dimethoxyphenyl)-1-(2′-hydroxyphenyl)-2-propene-1-one;3,4-Dimethoxy-2′-hydroxychalcone",
    "duplicated_cas_no": "",
    "SMILES": "O(C)C1=C(OC)C=CC(C=CC(=O)C2=C(O)C=CC=C2)=C1",
    "meta_data": {
        "InChI": "InChI=1S/C17H16O4/c1-20-16-10-8-12(11-17(16)21-2)7-9-15(19)13-5-3-4-6-14(13)18/h3-11,18H,1-2H3",
        "InChIKey": null,
        "Canonical SMILES": "O=C(C=CC1=CC=C(OC)C(OC)=C1)C=2C=CC=CC2O",
        "Molecular Formula": "C<sub>17</sub>H<sub>16</sub>O<sub>4</sub>",
        "Molecular Mass": "284.31",
        "Melting Point": "114-115 °C"
    }
}