{
    "cas_no": "2131-59-1",
    "key_name": "3-Bromophenyl isothiocyanate",
    "cn_name": "3-溴异硫氰酸苯酯;",
    "alternate_name": "Benzene, 1-bromo-3-isothiocyanato-;Isothiocyanic acid, <em>m</em>-bromophenyl ester;1-Bromo-3-isothiocyanatobenzene;<em>m</em>-Bromophenyl isothiocyanate;3-Bromophenyl isothiocyanate;m-Bromophenyl isothiocyanate",
    "duplicated_cas_no": "",
    "SMILES": "N(=C=S)C1=CC(Br)=CC=C1",
    "meta_data": {
        "InChI": "InChI=1S/C7H4BrNS/c8-6-2-1-3-7(4-6)9-5-10/h1-4H",
        "InChIKey": null,
        "Canonical SMILES": "S=C=NC=1C=CC=C(Br)C1",
        "Molecular Formula": "C<sub>7</sub>H<sub>4</sub>BrNS",
        "Molecular Mass": "214.08",
        "Boiling Point": "256 °C"
    }
}