{
    "cas_no": "16052-42-9",
    "key_name": "(-)-Menthyl chloride",
    "cn_name": "氯代薄荷脑;",
    "alternate_name": "Cyclohexane, 2-chloro-4-methyl-1-(1-methylethyl)-, (1<em>S</em>,2<em>R</em>,4<em>R</em>)-;<em>p</em>-Menthane, 3-chloro-, (1<em>R</em>,3<em>R</em>,4<em>S</em>)-(-)-;Cyclohexane, 2-chloro-4-methyl-1-(1-methylethyl)-, [1<em>S</em>-(1α,2β,4β)]-;(1<em>S</em>,2<em>R</em>,4<em>R</em>)-2-Chloro-4-methyl-1-(1-methylethyl)cyclohexane;Menthyl chloride;<em>l</em>-Menthyl chloride;(-)-Menthyl chloride;(1<em>R</em>,2<em>S</em>,5<em>R</em>)-Menthyl chloride;NSC 55430",
    "duplicated_cas_no": "25164-15-2",
    "SMILES": "[C@H](C)(C)[C@H]1[C@H](Cl)C[C@H](C)CC1",
    "meta_data": {
        "InChI": "InChI=1S/C10H19Cl/c1-7(2)9-5-4-8(3)6-10(9)11/h7-10H,4-6H2,1-3H3/t8-,9+,10-/m1/s1",
        "InChIKey": null,
        "Canonical SMILES": "ClC1CC(C)CCC1C(C)C",
        "Molecular Formula": "C<sub>10</sub>H<sub>19</sub>Cl",
        "Molecular Mass": "174.71",
        "Boiling Point": "101.0-101.5 °C @ Press: 21 Torr",
        "Melting Point": "-20.1-16.5 °C",
        "Density": "0.936 g/cm³ @ Temp: 420 °C"
    }
}