{
    "cas_no": "25584-83-2",
    "key_name": "Hydroxypropyl acrylate",
    "cn_name": "丙烯酸羟丙酯;",
    "alternate_name": "2-Propenoic acid, monoester with 1,2-propanediol;Acrylic acid, monoester with 1,2-propanediol;1,2-Propanediol, monoacrylate;Hydroxypropyl acrylate;Propylene glycol acrylate;Viscoat HPA;1,2-Propylene glycol acrylate;JBEM 213",
    "duplicated_cas_no": "108114-39-2;110608-37-2;27985-80-4;50984-64-0;50985-29-0;56084-03-8;71551-14-9;79896-87-0;91313-64-3;457899-96-6;177564-71-5;198351-78-9;204013-22-9;1202865-35-7",
    "SMILES": "",
    "meta_data": {
        "InChI": "",
        "InChIKey": null,
        "Canonical SMILES": "",
        "Molecular Formula": "C<sub>6</sub>H<sub>10</sub>O<sub>3</sub>",
        "Molecular Mass": "",
        "Boiling Point": "77 °C @ Press: 5 Torr",
        "Melting Point": "-30 °C",
        "Density": "105 g/cm³ @ Temp: 25 °C"
    }
}