{
    "cas_no": "32980-26-0",
    "key_name": "1-Methyl 2,2-dimethylbutanedioate",
    "cn_name": "2,2-二甲基琥珀酸1-甲酯;2,2-二甲基丁二酸1-甲酯;",
    "alternate_name": "Butanedioic acid, 2,2-dimethyl-, 1-methyl ester;Succinic acid, 2,2-dimethyl-, 1-methyl ester;1-Methyl 2,2-dimethylbutanedioate;3-Carbomethoxy-3-methylbutanoic acid;1-Methyl 2,2-dimethylsuccinate;2,2-Dimethylbutanedioic acid 1-methyl ester;4-Methoxy-3,3-dimethyl-4-oxobutanoic acid",
    "duplicated_cas_no": "",
    "SMILES": "C(C(OC)=O)(CC(O)=O)(C)C",
    "meta_data": {
        "InChI": "InChI=1S/C7H12O4/c1-7(2,4-5(8)9)6(10)11-3/h4H2,1-3H3,(H,8,9)",
        "InChIKey": null,
        "Canonical SMILES": "O=C(O)CC(C(=O)OC)(C)C",
        "Molecular Formula": "C<sub>7</sub>H<sub>12</sub>O<sub>4</sub>",
        "Molecular Mass": "160.17",
        "Boiling Point": "104 °C @ Press: 1.5 Torr",
        "Melting Point": "37-41 °C"
    }
}