{
    "cas_no": "440-60-8",
    "key_name": "Pentafluorobenzyl alcohol",
    "cn_name": "五氟苯甲醇;五氟苄醇;",
    "alternate_name": "Benzenemethanol, 2,3,4,5,6-pentafluoro-;Benzyl alcohol, 2,3,4,5,6-pentafluoro-;2,3,4,5,6-Pentafluorobenzenemethanol;2,3,4,5,6-Pentafluorobenzyl alcohol;(Pentafluorophenyl)methanol;(Hydroxymethyl)pentafluorobenzene;Pentafluorobenzyl alcohol;NSC 97003;(Perfluorophenyl)methanol;(2,3,4,5,6-Pentafluorophenyl)methanol",
    "duplicated_cas_no": "",
    "SMILES": "C(O)C1=C(F)C(F)=C(F)C(F)=C1F",
    "meta_data": {
        "InChI": "InChI=1S/C7H3F5O/c8-3-2(1-13)4(9)6(11)7(12)5(3)10/h13H,1H2",
        "InChIKey": null,
        "Canonical SMILES": "FC=1C(F)=C(F)C(=C(F)C1F)CO",
        "Molecular Formula": "C<sub>7</sub>H<sub>3</sub>F<sub>5</sub>O",
        "Molecular Mass": "198.09",
        "Boiling Point": "114.5 °C",
        "Melting Point": "37.5 °C"
    }
}