{
    "cas_no": "483-34-1",
    "key_name": "(-)-Tetrahydrocolumbamine",
    "cn_name": null,
    "alternate_name": "6<em>H</em>-Dibenzo[<em>a</em>,<em>g</em>]quinolizin-2-ol, 5,8,13,13a-tetrahydro-3,9,10-trimethoxy-, (13a<em>S</em>)-;13aα-Berbin-2-ol, 3,9,10-trimethoxy-;6<em>H</em>-Dibenzo[<em>a</em>,<em>g</em>]quinolizin-2-ol, 5,8,13,13a-tetrahydro-3,9,10-trimethoxy-, (<em>S</em>)-;Isocorypalmine;Columbamine, tetrahydro-;(13a<em>S</em>)-5,8,13,13a-Tetrahydro-3,9,10-trimethoxy-6<em>H</em>-dibenzo[<em>a</em>,<em>g</em>]quinolizin-2-ol;Isocorypalmine, (-)-;(-)-Isocorypalmine;Columbamine, tetrahydro-, (-)-;<em>l</em>-Isocorypalmine;(-)-Tetrahydrocolumbamine;<em>l</em>-Tetrahydrocolumbamine;Alkaloid L, from <em>Corydalis</em>;<em>O</em><sup>10</sup>-Methylstepholidine;Corydalis L;Tetrahydrocolumbamine;(<em>S</em>)-Tetrahydrocolumbamine;2-O-Desmethyl-<span class=\"text-smallcaps\">L</span>-THP;(13AS)-3,9,10-trimethoxy-6,8,13,13a-tetrahydro-5<em>H</em>-isoquinolino[2,1-<em>b</em>]isoquinolin-2-ol",
    "duplicated_cas_no": "483-33-0;1356-03-2;20504-94-3",
    "SMILES": "OC=1C=C2[C@]3(N(CC=4C(C3)=CC=C(OC)C4OC)CCC2=CC1OC)[H]",
    "meta_data": {
        "InChI": "InChI=1S/C20H23NO4/c1-23-18-5-4-12-8-16-14-10-17(22)19(24-2)9-13(14)6-7-21(16)11-15(12)20(18)25-3/h4-5,9-10,16,22H,6-8,11H2,1-3H3/t16-/m0/s1",
        "InChIKey": null,
        "Canonical SMILES": "OC=1C=C2C(=CC1OC)CCN3CC4=C(OC)C(OC)=CC=C4CC23",
        "Molecular Formula": "C<sub>20</sub>H<sub>23</sub>NO<sub>4</sub>",
        "Molecular Mass": "341.40",
        "Melting Point": "223-224 °C"
    }
}