{
    "cas_no": "180916-16-9",
    "key_name": "Lasofoxifene",
    "cn_name": "拉索昔芬;(5R,6S)-5,6,7,8-四氢-6-苯基-5-(4-(2-(1-吡咯烷基)乙氧基)苯基)-2-萘酚;",
    "alternate_name": "2-Naphthalenol, 5,6,7,8-tetrahydro-6-phenyl-5-[4-[2-(1-pyrrolidinyl)ethoxy]phenyl]-, (5<em>R</em>,6<em>S</em>)-;2-Naphthalenol, 5,6,7,8-tetrahydro-6-phenyl-5-[4-[2-(1-pyrrolidinyl)ethoxy]phenyl]-, (5<em>R</em>-<em>cis</em>)-;(5<em>R</em>,6<em>S</em>)-5,6,7,8-Tetrahydro-6-phenyl-5-[4-[2-(1-pyrrolidinyl)ethoxy]phenyl]-2-naphthalenol;Lasofoxifene;(-)-<em>cis</em>-6(<em>S</em>)-Phenyl-5(R)-[4-(2-pyrrolidin-1-ylethoxy)phenyl]-5,6,7,8-tetrahydronaphthalen-2-ol",
    "duplicated_cas_no": "",
    "SMILES": "OC=1C=C2C([C@H]([C@H](CC2)C3=CC=CC=C3)C4=CC=C(OCCN5CCCC5)C=C4)=CC1",
    "meta_data": {
        "InChI": "InChI=1S/C28H31NO2/c30-24-11-15-27-23(20-24)10-14-26(21-6-2-1-3-7-21)28(27)22-8-12-25(13-9-22)31-19-18-29-16-4-5-17-29/h1-3,6-9,11-13,15,20,26,28,30H,4-5,10,14,16-19H2/t26-,28+/m1/s1",
        "InChIKey": null,
        "Canonical SMILES": "OC1=CC=C2C(=C1)CCC(C=3C=CC=CC3)C2C4=CC=C(OCCN5CCCC5)C=C4",
        "Molecular Formula": "C<sub>28</sub>H<sub>31</sub>NO<sub>2</sub>",
        "Molecular Mass": "413.55",
        "Melting Point": "132-134.3 °C"
    }
}