{
    "cas_no": "13510-35-5",
    "key_name": "Indium triiodide",
    "cn_name": "碘化铟;三碘化铟;碘化铟无水;",
    "alternate_name": "Indium iodide (InI<sub>3</sub>);Indium triiodide;Indium iodide;Indium(III) iodide;Triiodoindium",
    "duplicated_cas_no": "",
    "SMILES": "[In](I)(I)I",
    "meta_data": {
        "InChI": "InChI=1S/3HI.In/h3*1H;/q;;;+3/p-3",
        "InChIKey": null,
        "Canonical SMILES": "I[In](I)I",
        "Molecular Formula": "I<sub>3</sub>In",
        "Molecular Mass": "",
        "Melting Point": "198 °C",
        "Density": "4.66 g/cm³ @ Temp: 25 °C"
    }
}