{
    "cas_no": "590-21-6",
    "key_name": "1-Chloro-1-propene",
    "cn_name": "1-氯-1-丙烯;1-氯-1-丙烯;",
    "alternate_name": "1-Propene, 1-chloro-;Propene, 1-chloro-;1-Chloro-1-propene;1-Chloropropene;Propenyl chloride;1-Chloropropylene;NSC 6155",
    "duplicated_cas_no": "",
    "SMILES": "C(=CCl)C",
    "meta_data": {
        "InChI": "InChI=1S/C3H5Cl/c1-2-3-4/h2-3H,1H3",
        "InChIKey": null,
        "Canonical SMILES": "ClC=CC",
        "Molecular Formula": "C<sub>3</sub>H<sub>5</sub>Cl",
        "Molecular Mass": "76.52",
        "Boiling Point": "35-36 °C"
    }
}