{
    "cas_no": "142-84-7",
    "key_name": "Dipropylamine",
    "cn_name": "二正丙胺;二丙胺;",
    "alternate_name": "1-Propanamine, <em>N</em>-propyl-;Dipropylamine;<em>N</em>-Propyl-1-propanamine;Di-<em>n</em>-propylamine;<em>n</em>-Dipropylamine;Dipropanamine;<em>N</em>,<em>N</em>-Dipropylamine;<em>N</em>,<em>N</em>-Di(<em>n</em>-propyl)amine",
    "duplicated_cas_no": "",
    "SMILES": "N(CCC)CCC",
    "meta_data": {
        "InChI": "InChI=1S/C6H15N/c1-3-5-7-6-4-2/h7H,3-6H2,1-2H3",
        "InChIKey": null,
        "Canonical SMILES": "N(CCC)CCC",
        "Molecular Formula": "C<sub>6</sub>H<sub>15</sub>N",
        "Molecular Mass": "101.19",
        "Boiling Point": "109.3 °C",
        "Melting Point": "-63 °C",
        "Density": "0.738 g/cm³ @ Temp: 20 °C"
    }
}