{
    "cas_no": "57-10-3",
    "key_name": "Palmitic acid",
    "cn_name": "棕榈酸;十六酸;软脂酸;鲸蜡酸;十六烷酸;",
    "alternate_name": "Hexadecanoic acid;Palmitic acid;<em>n</em>-Hexadecoic acid;1-Pentadecanecarboxylic acid;Pentadecanecarboxylic acid;<em>n</em>-Hexadecanoic acid;Palmitinic acid;Prifac 2960;Hydrofol Acid 1690;PA 900;Neo-Fat 16;Lunac P 95KC;Emersol 143;Cetylic acid;Hystrene 9016;NAA 160;Kortacid 1698;Lunac P 95;Loxiol EP 278;FA 1695;NSC 5030;Edenor C16;Pristerene 4934;Lunac P 98;V 1695;Kortacid 1695;A 1600;Edenor C 16-98-100;Palmac 98-16;Imex C 1498;Palmitates;Cetostearic acid;(E)-[<em>p</em>-((1,2-Dihydroxypropyloxy)-<em>p</em>′-(propargyloxy)] azobenzene;Edenor C16-98MY;PS 1618;Vetec;Palmera A 9816;LR 012;MeSH ID: D019308;Wilfarin PA 1698",
    "duplicated_cas_no": "116860-99-2;60605-23-4;66321-94-6;212625-86-0",
    "SMILES": "C(CCCCCCCCCC)CCCCC(O)=O",
    "meta_data": {
        "InChI": "InChI=1S/C16H32O2/c1-2-3-4-5-6-7-8-9-10-11-12-13-14-15-16(17)18/h2-15H2,1H3,(H,17,18)",
        "InChIKey": null,
        "Canonical SMILES": "O=C(O)CCCCCCCCCCCCCCC",
        "Molecular Formula": "C<sub>16</sub>H<sub>32</sub>O<sub>2</sub>",
        "Molecular Mass": "256.42",
        "Boiling Point": "351.5 °C",
        "Melting Point": "61.8 °C",
        "Density": "0.8527 g/cm³ @ Temp: 62 °C"
    }
}