{
    "cas_no": "6324-10-3",
    "key_name": "4,5-Dibromo-2-thiophenecarboxylic acid",
    "cn_name": "4,5-二溴噻吩-2-甲酸;",
    "alternate_name": "2-Thiophenecarboxylic acid, 4,5-dibromo-;4,5-Dibromo-2-thiophenecarboxylic acid;2,3-Dibromo-5-thiophenecarboxylic acid;NSC 30091",
    "duplicated_cas_no": "",
    "SMILES": "C(O)(=O)C1=CC(Br)=C(Br)S1",
    "meta_data": {
        "InChI": "InChI=1S/C5H2Br2O2S/c6-2-1-3(5(8)9)10-4(2)7/h1H,(H,8,9)",
        "InChIKey": null,
        "Canonical SMILES": "O=C(O)C=1SC(Br)=C(Br)C1",
        "Molecular Formula": "C<sub>5</sub>H<sub>2</sub>Br<sub>2</sub>O<sub>2</sub>S",
        "Molecular Mass": "285.94",
        "Melting Point": "227-228 °C"
    }
}