{
    "cas_no": "6639-62-9",
    "key_name": "1,2-Benzisothiazole-2(3<em>H</em>)-acetic acid, 3-oxo-, methyl ester, 1,1-dioxide",
    "cn_name": "2,3-二氢-3-氧代-1,2-苯并异噻唑-2-乙酸甲酯1,1-二氧化物;3-氧代-1,2-苯并异噻唑-2(3H)乙酸甲酯-1,1-二氧化;",
    "alternate_name": "1,2-Benzisothiazole-2(3<em>H</em>)-acetic acid, 3-oxo-, methyl ester, 1,1-dioxide;1,2-Benzisothiazoline-2-acetic acid, 3-oxo-, methyl ester, 1,1-dioxide;NSC 49216;Methyl 3-oxo-2,3-dihydro-1,2-benzothiazole-2-acetate 1,1-dioxide;Methyl 2-[1,1-dioxido-3-oxobenzo[<em>d</em>]isothiazol-2(3<em>H</em>)-yl]acetate;3-Oxo-1,2-benzoisothiazoline-2-acetic acid methyl ester 1,1-dioxide",
    "duplicated_cas_no": "",
    "SMILES": "O=C1C=2C(S(=O)(=O)N1CC(OC)=O)=CC=CC2",
    "meta_data": {
        "InChI": "InChI=1S/C10H9NO5S/c1-16-9(12)6-11-10(13)7-4-2-3-5-8(7)17(11,14)15/h2-5H,6H2,1H3",
        "InChIKey": null,
        "Canonical SMILES": "O=C(OC)CN1C(=O)C=2C=CC=CC2S1(=O)=O",
        "Molecular Formula": "C<sub>10</sub>H<sub>9</sub>NO<sub>5</sub>S",
        "Molecular Mass": "255.25",
        "Melting Point": "116-117 °C"
    }
}