{
    "cas_no": "537-45-1",
    "key_name": "2,6-Dibromoquinone-4-chloroimide",
    "cn_name": "2,6-二溴苯醌氯亚胺;2,6-二溴-4-(氯亚氨基)-2,5-环己二烯-1-酮;2,6-二溴醌-4-氯亚胺;",
    "alternate_name": "2,5-Cyclohexadien-1-one, 2,6-dibromo-4-(chloroimino)-;<em>p</em>-Benzoquinone imine, 2,6-dibromo-<em>N</em>-chloro-;2,6-Dibromo-4-(chloroimino)-2,5-cyclohexadien-1-one;BQC reagent;4-(Chloroimino)-2,6-dibromo-2,5-cyclohexadien-1-one;2,6-Dibromo-1,4-benzoquinone-4-chlorimide;2,6-Dibromo-<em>N</em>-chloro-<em>p</em>-benzoquinoneimine;2,6-Dibromoquinone chloroimine;<em>N</em>-Chloro-2,6-dibromoquinoneimine;2,6-Dibromoquinone chlorimide;2,6-Dibromoquinone-4-chlorimide;2,6-Dibromoquinone chloroimide;2,6-Dibromoquinone-4-chloroimide;2,6-Dibromoquinone-4-chloroimine;NSC 528;2,6-Dibromo-4-(chloroimino)cyclohexa-2,5-dienone",
    "duplicated_cas_no": "",
    "SMILES": "N(Cl)=C1C=C(Br)C(=O)C(Br)=C1",
    "meta_data": {
        "InChI": "InChI=1S/C6H2Br2ClNO/c7-4-1-3(10-9)2-5(8)6(4)11/h1-2H",
        "InChIKey": null,
        "Canonical SMILES": "O=C1C(Br)=CC(=NCl)C=C1Br",
        "Molecular Formula": "C<sub>6</sub>H<sub>2</sub>Br<sub>2</sub>ClNO",
        "Molecular Mass": "299.35",
        "Melting Point": "83 °C"
    }
}