{
    "cas_no": "455-87-8",
    "key_name": "4-Amino-3-fluorobenzoic acid",
    "cn_name": null,
    "alternate_name": "Benzoic acid, 4-amino-3-fluoro-;4-Amino-3-fluorobenzoic acid;NSC 25758;3-Fluoro-4-aminobenzoic acid",
    "duplicated_cas_no": "",
    "SMILES": "C(O)(=O)C1=CC(F)=C(N)C=C1",
    "meta_data": {
        "InChI": "InChI=1S/C7H6FNO2/c8-5-3-4(7(10)11)1-2-6(5)9/h1-3H,9H2,(H,10,11)",
        "InChIKey": null,
        "Canonical SMILES": "O=C(O)C1=CC=C(N)C(F)=C1",
        "Molecular Formula": "C<sub>7</sub>H<sub>6</sub>FNO<sub>2</sub>",
        "Molecular Mass": "155.13",
        "Melting Point": "215-216 °C"
    }
}