{
    "cas_no": "3693-22-9",
    "key_name": "2-Dibenzofuranamine",
    "cn_name": null,
    "alternate_name": "2-Dibenzofuranamine;2-Aminodibenzofuran;NSC 402280;Dibenzo[<em>b</em>,<em>d</em>]furan-2-amine",
    "duplicated_cas_no": "",
    "SMILES": "NC=1C=C2C=3C(OC2=CC1)=CC=CC3",
    "meta_data": {
        "InChI": "InChI=1S/C12H9NO/c13-8-5-6-12-10(7-8)9-3-1-2-4-11(9)14-12/h1-7H,13H2",
        "InChIKey": null,
        "Canonical SMILES": "O1C=2C=CC=CC2C=3C=C(N)C=CC13",
        "Molecular Formula": "C<sub>12</sub>H<sub>9</sub>NO",
        "Molecular Mass": "183.21",
        "Melting Point": "125 °C"
    }
}