{
    "cas_no": "80-52-4",
    "key_name": "1,8-Diamino-<em>p</em>-menthane",
    "cn_name": null,
    "alternate_name": "Cyclohexanemethanamine, 4-amino-α,α,4-trimethyl-;<em>p</em>-Menthane-1,8-diamine;4-Amino-α,α,4-trimethylcyclohexanemethanamine;1,8-Diamino-<em>p</em>-menthane;1-Amino-1-methyl-4-(2-amino-2-propyl)cyclohexane;1-Methyl-4-(1-amino-1-methylethyl)cyclohexylamine;Menthanediamine;1,8-Menthanediamine;1,8-<em>p</em>-Menthanediamine;Primene MD;NSC 5612",
    "duplicated_cas_no": "14720-04-8",
    "SMILES": "C(C)(C)(N)C1CCC(C)(N)CC1",
    "meta_data": {
        "InChI": "InChI=1S/C10H22N2/c1-9(2,11)8-4-6-10(3,12)7-5-8/h8H,4-7,11-12H2,1-3H3",
        "InChIKey": null,
        "Canonical SMILES": "NC(C)(C)C1CCC(N)(C)CC1",
        "Molecular Formula": "C<sub>10</sub>H<sub>22</sub>N<sub>2</sub>",
        "Molecular Mass": "170.30",
        "Boiling Point": "115-120 °C @ Press: 10 Torr",
        "Density": "0.91 g/cm³"
    }
}