{
    "cas_no": "1115-08-8",
    "key_name": "3-Methyl-1,4-pentadiene",
    "cn_name": "3-甲基-1,4-戊二烯;3-甲基-1，4-戊二烯;",
    "alternate_name": "1,4-Pentadiene, 3-methyl-;3-Methyl-1,4-pentadiene",
    "duplicated_cas_no": "",
    "SMILES": "C(C=C)(C=C)C",
    "meta_data": {
        "InChI": "InChI=1S/C6H10/c1-4-6(3)5-2/h4-6H,1-2H2,3H3",
        "InChIKey": null,
        "Canonical SMILES": "C=CC(C=C)C",
        "Molecular Formula": "C<sub>6</sub>H<sub>10</sub>",
        "Molecular Mass": "82.14",
        "Boiling Point": "52 °C"
    }
}