{
    "cas_no": "5216-36-4",
    "key_name": "4,4′-(1,2-Ethynediyl)bis[benzonitrile]",
    "cn_name": null,
    "alternate_name": "Benzonitrile, 4,4′-(1,2-ethynediyl)bis-;Benzonitrile, 4,4′-ethynylenedi-;4,4′-(1,2-Ethynediyl)bis[benzonitrile];<em>p</em>,<em>p</em>′-Dicyanotolan;4,4′-Dicyanodiphenylacetylene;Bis(4-cyanophenyl)acetylene;1,2-Bis(4-cyanophenyl)ethyne;4,4′-(Ethyne-1,2-diyl)dibenzonitrile",
    "duplicated_cas_no": "",
    "SMILES": "C(#CC1=CC=C(C#N)C=C1)C2=CC=C(C#N)C=C2",
    "meta_data": {
        "InChI": "InChI=1S/C16H8N2/c17-11-15-7-3-13(4-8-15)1-2-14-5-9-16(12-18)10-6-14/h3-10H",
        "InChIKey": null,
        "Canonical SMILES": "N#CC1=CC=C(C#CC2=CC=C(C#N)C=C2)C=C1",
        "Molecular Formula": "C<sub>16</sub>H<sub>8</sub>N<sub>2</sub>",
        "Molecular Mass": "228.25",
        "Melting Point": "252-255 °C"
    }
}