{
    "cas_no": "58-55-9",
    "key_name": "Theophylline",
    "cn_name": "茶碱;无水茶碱;1,3-二甲基-3,7-二氢-1H-嘌呤-2,6-二酮;二氧二甲基嘌呤;1,3-二甲基黄嘌呤;",
    "alternate_name": "1<em>H</em>-Purine-2,6-dione, 3,9-dihydro-1,3-dimethyl-;Theophylline;1<em>H</em>-Purine-2,6-dione, 3,7-dihydro-1,3-dimethyl-;3,9-Dihydro-1,3-dimethyl-1<em>H</em>-purine-2,6-dione;1,3-Dimethylxanthine;Elixophylline;Pseudotheophylline;Theophyllin;Elixophyllin;Theograd;Solosin;Lanophyllin;Liquophylline;Optiphyllin;Parkophyllin;Theofol;Theolair;Slo-Phyllin;Nuelin;Theo-Dur;Theona P;Quibron T/SR;Theodel;Uniphyllin;Euphylong;Armophylline;Theotard;Teonova;Elan;Spophyllin retard;Austyn;Asmax;Duraphyl;Egifilin;Quibron T;Uniphyl;Theodrip;Theopek;Pulmo-Timelets;Sustaire;Bilordyl;Somophyllin CRT;Theostat;Afonilm;Bronkodyl;Unifyl;Etheophyl;Cetraphylline;Theon;Slo-Bid;Theo-Sav;Theovent;Xanthium;Theo 24;Theobid;Theoclear;Talotren;Constant T;Aerolate;Theophyl;Lasma;Brochoretard;Theobid Duracap;Theochron;Duraphyllin;LaBID;Theoplus;Aerobin;Tesona;Physpan;PulmiDur;Pro-Vent;Accurbron;Diffumal;Somophyllin T;Respbid;Teocen 200;NSC 2066;Unilong;Chronophyllin;Theo-Nite;Respicur;Telb-DS;Theo-DS;Theodur Dry Syrup;Telbans Dry Syrup;Insanovin;Unicontin CR;Telbans;Controfilina 200;phylobid;Apnecut;Throphylline;GM 501 SpermMobil;Teotard;Teotard 350;1,3-Dimethyl-1<em>H</em>-purine-2,6(3<em>H</em>,7<em>H</em>)-dione;1,3-Dimethyl-2,3,6,7-tetrahydro-1<em>H</em>-purine-2,6-dione;1,3-Dimethyl-3,7-dihydro-purine-2,6-dione;1,3-Dimethyl-2,3,6,9-tetrahydro-1<em>H</em>-purine-2,6-dione;1,3-Dimethyl-3,7-dihydro-1<em>H</em>-purine-2,6-dione;MeSH ID: D013806",
    "duplicated_cas_no": "46157-00-0;56645-32-0;75448-53-2;111079-49-3;1024160-72-2",
    "SMILES": "O=C1C2=C(N(C)C(=O)N1C)N=CN2",
    "meta_data": {
        "InChI": "InChI=1S/C7H8N4O2/c1-10-5-4(8-3-9-5)6(12)11(2)7(10)13/h3H,1-2H3,(H,8,9)",
        "InChIKey": null,
        "Canonical SMILES": "O=C1C=2NC=NC2N(C(=O)N1C)C",
        "Molecular Formula": "C<sub>7</sub>H<sub>8</sub>N<sub>4</sub>O<sub>2</sub>",
        "Molecular Mass": "180.16",
        "Melting Point": "270 °C",
        "Density": "1.45 g/cm³ (Solid)"
    }
}