{
    "cas_no": "2121-12-2",
    "key_name": "Ungeremine",
    "cn_name": null,
    "alternate_name": "[1,3]Dioxolo[4,5-<em>j</em>]pyrrolo[3,2,1-<em>de</em>]phenanthridinium, 4,5-dihydro-2-hydroxy-;Lycoranium, 1,2,3,3a,6,7,12b,12c-octadehydro-2-hydroxy-;4,5-Dihydro-2-hydroxy[1,3]dioxolo[4,5-<em>j</em>]pyrrolo[3,2,1-<em>de</em>]phenanthridinium;Ungeremine;Lycobetaine;Ungerimine",
    "duplicated_cas_no": "6883-38-1;72510-04-4",
    "SMILES": "OC1=CC2=C3[N+](=CC=4C2=CC5=C(C4)OCO5)CCC3=C1",
    "meta_data": {
        "InChI": "InChI=1S/C16H11NO3/c18-11-3-9-1-2-17-7-10-4-14-15(20-8-19-14)6-12(10)13(5-11)16(9)17/h3-7H,1-2,8H2/p+1",
        "InChIKey": null,
        "Canonical SMILES": "OC1=CC=2C=3C=C4OCOC4=CC3C=[N+]5C2C(=C1)CC5",
        "Molecular Formula": "C<sub>16</sub>H<sub>12</sub>NO<sub>3</sub>",
        "Molecular Mass": "",
        "Melting Point": "270-272 °C (decomp)"
    }
}