{
    "cas_no": "435-97-2",
    "key_name": "Phenprocoumon",
    "cn_name": null,
    "alternate_name": "2<em>H</em>-1-Benzopyran-2-one, 4-hydroxy-3-(1-phenylpropyl)-;Coumarin, 3-(α-ethylbenzyl)-4-hydroxy-;4-Hydroxy-3-(1-phenylpropyl)-2<em>H</em>-1-benzopyran-2-one;3-(α-Ethylbenzyl)-4-hydroxycoumarin;Falithrom;Liquamar;Marcoumar;Marcumar;Phenprocoumarol;Phenprocoumon;3-(1-Phenylpropyl)-4-hydroxycoumarin;Phenprocoumarole;3-(α-Phenylpropyl)-4-hydroxycoumarin;4-Hydroxy-2-oxo-3-(1-phenylpropyl)-2<em>H</em>-chromene;Fencumar;Ro 1-4849;(±)-Phenprocoumon;<span class=\"text-smallcaps\">DL</span>-3-(α-Ethylbenzyl)-4-hydroxycoumarin;BS 7565;MeSH ID: D010644",
    "duplicated_cas_no": "5999-41-7",
    "SMILES": "C(CC)(C1=C(O)C=2C(OC1=O)=CC=CC2)C3=CC=CC=C3",
    "meta_data": {
        "InChI": "InChI=1S/C18H16O3/c1-2-13(12-8-4-3-5-9-12)16-17(19)14-10-6-7-11-15(14)21-18(16)20/h3-11,13,19H,2H2,1H3",
        "InChIKey": null,
        "Canonical SMILES": "O=C1OC=2C=CC=CC2C(O)=C1C(C=3C=CC=CC3)CC",
        "Molecular Formula": "C<sub>18</sub>H<sub>16</sub>O<sub>3</sub>",
        "Molecular Mass": "280.32",
        "Melting Point": "179-180 °C"
    }
}