{
    "cas_no": "312-30-1",
    "key_name": "1,1′-Sulfonylbis[4-fluoro-3-nitrobenzene]",
    "cn_name": "4,4ˊ-二氟-3,3ˊ-二硝基二苯砜;",
    "alternate_name": "Benzene, 1,1′-sulfonylbis[4-fluoro-3-nitro-;Sulfone, bis(4-fluoro-3-nitrophenyl);1,1′-Sulfonylbis[4-fluoro-3-nitrobenzene];<em>p</em>,<em>p</em>′-Difluoro-<em>m</em>,<em>m</em>′-dinitrodiphenyl sulfone;DNDS;4,4′-Difluoro-3,3′-dinitrodiphenyl sulfone;Bis(4-fluoro-3-nitrophenyl) sulfone;3,3′-Dinitro-4,4′-difluorodiphenyl sulfone;4-Fluoro-3-nitrophenyl sulfone;Bis(<em>p</em>-fluoro-<em>m</em>-nitrophenyl) sulfone;NSC 14153;Bis(4-fluoro-3-nitrobenzene)sulfone;1-Fluoro-4-(4-fluoro-3-nitrobenzenesulfonyl)-2-nitrobenzene;1-Fluoro-4-(4-fluoro-3-nitrophenyl)sulfonyl-2-nitrobenzene",
    "duplicated_cas_no": "",
    "SMILES": "S(=O)(=O)(C1=CC(N(=O)=O)=C(F)C=C1)C2=CC(N(=O)=O)=C(F)C=C2",
    "meta_data": {
        "InChI": "InChI=1S/C12H6F2N2O6S/c13-9-3-1-7(5-11(9)15(17)18)23(21,22)8-2-4-10(14)12(6-8)16(19)20/h1-6H",
        "InChIKey": null,
        "Canonical SMILES": "O=N(=O)C1=CC(=CC=C1F)S(=O)(=O)C2=CC=C(F)C(=C2)N(=O)=O",
        "Molecular Formula": "C<sub>12</sub>H<sub>6</sub>F<sub>2</sub>N<sub>2</sub>O<sub>6</sub>S",
        "Molecular Mass": "344.25",
        "Melting Point": "193-194 °C"
    }
}