{
    "cas_no": "112-29-8",
    "key_name": "1-Bromodecane",
    "cn_name": "1-溴癸烷;癸基溴;",
    "alternate_name": "Decane, 1-bromo-;1-Bromodecane;Decyl bromide;<em>n</em>-Decyl bromide;1-Decyl bromide;NSC 8780;10-Bromodecane",
    "duplicated_cas_no": "2127404-17-3",
    "SMILES": "C(CCCCBr)CCCCC",
    "meta_data": {
        "InChI": "InChI=1S/C10H21Br/c1-2-3-4-5-6-7-8-9-10-11/h2-10H2,1H3",
        "InChIKey": null,
        "Canonical SMILES": "BrCCCCCCCCCC",
        "Molecular Formula": "C<sub>10</sub>H<sub>21</sub>Br",
        "Molecular Mass": "221.18",
        "Boiling Point": "240.6 °C",
        "Melting Point": "-29.2 °C",
        "Density": "1.0683 g/cm³ @ Temp: 20 °C"
    }
}