{
    "cas_no": "13472-30-5",
    "key_name": "Sodium silicate (Na<sub>4</sub>SiO<sub>4</sub>)",
    "cn_name": null,
    "alternate_name": "Silicic acid (H<sub>4</sub>SiO<sub>4</sub>), sodium salt (1:4);Silicic acid (H<sub>4</sub>SiO<sub>4</sub>), tetrasodium salt;Sodium silicate (Na<sub>4</sub>SiO<sub>4</sub>);Sodium orthosilicate (Na<sub>4</sub>SiO<sub>4</sub>);Tetrasodium orthosilicate;Metso 200;Tetrasodium silicate (Na<sub>4</sub>SiO<sub>4</sub>);Dryorth;Neoortho 80;Sodium silicate (Na<sub>2</sub>(SiO<sub>4</sub>)<sub>0.5</sub>);Sodium silicon oxide (SiNa<sub>4</sub>O<sub>4</sub>);Sodium silicate (Na<sub>8</sub>(SiO<sub>4</sub>)<sub>2</sub>)",
    "duplicated_cas_no": "349666-80-4;1609329-03-4;3037393-71-5",
    "SMILES": "[Si](O)(O)(O)O.[Na]",
    "meta_data": {
        "InChI": "InChI=1S/4Na.H4O4Si/c;;;;1-5(2,3)4/h;;;;1-4H",
        "InChIKey": null,
        "Canonical SMILES": "[Na].O[Si](O)(O)O",
        "Molecular Formula": "H<sub>4</sub>O<sub>4</sub>Si.4Na",
        "Molecular Mass": "",
        "Melting Point": "1018 °C"
    }
}