{
    "cas_no": "75-90-1",
    "key_name": "Trifluoroacetaldehyde",
    "cn_name": null,
    "alternate_name": "Acetaldehyde, 2,2,2-trifluoro-;Acetaldehyde, trifluoro-;Fluoral;2,2,2-Trifluoroacetaldehyde;Fluoral (aldehyde);Trifluoroacetaldehyde;Trifluoroethanal;Trifluoromethyl aldehyde;NSC 9446",
    "duplicated_cas_no": "",
    "SMILES": "C(C=O)(F)(F)F",
    "meta_data": {
        "InChI": "InChI=1S/C2HF3O/c3-2(4,5)1-6/h1H",
        "InChIKey": null,
        "Canonical SMILES": "O=CC(F)(F)F",
        "Molecular Formula": "C<sub>2</sub>HF<sub>3</sub>O",
        "Molecular Mass": "98.02",
        "Boiling Point": "-20 °C"
    }
}