{
    "cas_no": "820-10-0",
    "key_name": "(±)-Methionine sulfone",
    "cn_name": "DL-蛋氨酸砜;DL-氮氨酸砜;",
    "alternate_name": "Methionine, <em>S</em>,<em>S</em>-dioxide;Butyric acid, 2-amino-4-(methylsulfonyl)-, <span class=\"text-smallcaps\">DL</span>-;Butanoic acid, 2-amino-4-(methylsulfonyl)-;<span class=\"text-smallcaps\">DL</span>-Methionine sulfone;(±)-Methionine sulfone;<span class=\"text-smallcaps\">D</smallcap><smallcap>L</span>-Methionine <em>S</em>,<em>S</em>-dioxide;Methionine sulfone;NSC 62968;2-Amino-4-(methylsulfonyl)butanoic acid;2-Amino-4-methanesulfonylbutanoic acid",
    "duplicated_cas_no": "1118-85-0",
    "SMILES": "C(C(C(O)=O)N)CS(C)(=O)=O",
    "meta_data": {
        "InChI": "InChI=1S/C5H11NO4S/c1-11(9,10)3-2-4(6)5(7)8/h4H,2-3,6H2,1H3,(H,7,8)",
        "InChIKey": null,
        "Canonical SMILES": "O=C(O)C(N)CCS(=O)(=O)C",
        "Molecular Formula": "C<sub>5</sub>H<sub>11</sub>NO<sub>4</sub>S",
        "Molecular Mass": "181.21",
        "Melting Point": "254 °C (decomp)"
    }
}