{
    "cas_no": "527-21-9",
    "key_name": "Fluoranil",
    "cn_name": "四氟对苯醌;对四氟苯喹啉;",
    "alternate_name": "2,5-Cyclohexadiene-1,4-dione, 2,3,5,6-tetrafluoro-;<em>p</em>-Benzoquinone, 2,3,5,6-tetrafluoro-;<em>p</em>-Benzoquinone, tetrafluoro-;2,3,5,6-Tetrafluoro-2,5-cyclohexadiene-1,4-dione;Fluoranil;Tetrafluoro-<em>p</em>-benzoquinone;Fluoroanil;<em>p</em>-Fluoranil;2,3,5,6-Tetrafluoro-<em>p</em>-benzoquinone;Tetrafluoro-1,4-benzoquinone;Perfluoro-<em>p</em>-benzoquinone;2,3,5,6-Tetrafluoro-1,4-benzoquinone;Tetrafluorobenzoquinone;NSC 264881;Tetrafluoro-<em>p</em>-quinone;2,3,5,6-Tetrafluoroquinone",
    "duplicated_cas_no": "",
    "SMILES": "FC1=C(F)C(=O)C(F)=C(F)C1=O",
    "meta_data": {
        "InChI": "InChI=1S/C6F4O2/c7-1-2(8)6(12)4(10)3(9)5(1)11",
        "InChIKey": null,
        "Canonical SMILES": "O=C1C(F)=C(F)C(=O)C(F)=C1F",
        "Molecular Formula": "C<sub>6</sub>F<sub>4</sub>O<sub>2</sub>",
        "Molecular Mass": "180.06",
        "Melting Point": "184 °C"
    }
}