{
    "cas_no": "188425-85-6",
    "key_name": "Boscalid",
    "cn_name": "啶酰菌胺;2-氯-N-(4\"-氯联苯-2-基)烟酰胺;",
    "alternate_name": "3-Pyridinecarboxamide, 2-chloro-<em>N</em>-(4′-chloro[1,1′-biphenyl]-2-yl)-;2-Chloro-<em>N</em>-(4′-chloro[1,1′-biphenyl]-2-yl)-3-pyridinecarboxamide;Boscalid;Nicobifen;BAS 510F;Filan;Cantus;Endura;F 510;2-Chloro-<em>N</em>-(4′-chlorobiphenyl-2-yl)nicotinamide;Emerald (fungicide);Emerald;2-Chloro-<em>N</em>-[2-(4-chlorophenyl)phenyl]pyridine-3-carboxamide",
    "duplicated_cas_no": "",
    "SMILES": "N(C(=O)C1=C(Cl)N=CC=C1)C2=C(C=CC=C2)C3=CC=C(Cl)C=C3",
    "meta_data": {
        "InChI": "InChI=1S/C18H12Cl2N2O/c19-13-9-7-12(8-10-13)14-4-1-2-6-16(14)22-18(23)15-5-3-11-21-17(15)20/h1-11H,(H,22,23)",
        "InChIKey": null,
        "Canonical SMILES": "O=C(NC=1C=CC=CC1C=2C=CC(Cl)=CC2)C3=CC=CN=C3Cl",
        "Molecular Formula": "C<sub>18</sub>H<sub>12</sub>Cl<sub>2</sub>N<sub>2</sub>O",
        "Molecular Mass": "343.21",
        "Melting Point": "143 °C"
    }
}