{
    "cas_no": "12070-14-3",
    "key_name": "Zirconium monocarbide",
    "cn_name": null,
    "alternate_name": "Zirconium carbide (ZrC);Zirconium monocarbide;Zirconium carbide;Zirconium monocarbide (ZrC);Z 1034;ZrC-CLF;OV 25",
    "duplicated_cas_no": "11130-32-8;11130-31-7;203191-29-1",
    "SMILES": "",
    "meta_data": {
        "InChI": "",
        "InChIKey": null,
        "Canonical SMILES": "",
        "Molecular Formula": "CZr",
        "Molecular Mass": "",
        "Melting Point": "3805 °C",
        "Density": "6.74 g/cm³"
    }
}