{
    "uri": "substance/pt/12070143",
    "rn": "12070-14-3",
    "name": "Zirconium monocarbide",
    "images": [],
    "inchi": "",
    "inchiKey": "",
    "smile": "",
    "canonicalSmile": "",
    "molecularFormula": "CZr",
    "molecularMass": "",
    "experimentalProperties": [
        {
            "name": "Melting Point",
            "property": "3805 °C",
            "sourceNumber": 1
        },
        {
            "name": "Density",
            "property": "6.74 g/cm³",
            "sourceNumber": 2
        }
    ],
    "propertyCitations": [
        {
            "docUri": "document/pt/document/23106267",
            "sourceNumber": 1,
            "source": "Agte, C.; Zeitschrift fuer Technische Physik, (1930), 11, 182-91, CAplus"
        },
        {
            "docUri": "document/pt/document/32511255",
            "sourceNumber": 2,
            "source": "Qu, Qiang; Materials Science & Engineering, A: Structural Materials: Properties, Microstructure and Processing, (2008), A491(1-2), 117-123, CAplus"
        }
    ],
    "synonyms": [
        "Zirconium carbide (ZrC)",
        "Zirconium monocarbide",
        "Zirconium carbide",
        "Zirconium monocarbide (ZrC)",
        "Z 1034",
        "ZrC-CLF",
        "OV 25"
    ],
    "replacedRns": [
        "11130-32-8",
        "11130-31-7",
        "203191-29-1"
    ],
    "hasMolfile": false,
    "source": "https://commonchemistry.cas.org/detail?cas_rn=12070-14-3"
}