{
    "cas_no": "1208-52-2",
    "key_name": "2-[(4-Aminophenyl)methyl]benzenamine",
    "cn_name": "2,4\"-亚甲基苯胺;2,4-亚甲基苯胺;2-[(4-氨基苯)甲基]苯胺;",
    "alternate_name": "Benzenamine, 2-[(4-aminophenyl)methyl]-;Aniline, 2,4′-methylenedi-;2-[(4-Aminophenyl)methyl]benzenamine;2,4′-Diaminodiphenylmethane;2′,4-Bis(aminophenyl)methane;2,4′-Methylenebis(aniline);2,4′-Methylenedianiline;<em>o</em>,<em>p</em>′-Diaminodiphenylmethane;2,4′-Diphenylmethanediamine;2,4′-Methylenediphenylamine;2-(4-Aminobenzyl)aniline;2-[(4-Aminophenyl)methyl]aniline",
    "duplicated_cas_no": "",
    "SMILES": "C(C1=C(N)C=CC=C1)C2=CC=C(N)C=C2",
    "meta_data": {
        "InChI": "InChI=1S/C13H14N2/c14-12-7-5-10(6-8-12)9-11-3-1-2-4-13(11)15/h1-8H,9,14-15H2",
        "InChIKey": null,
        "Canonical SMILES": "NC1=CC=C(C=C1)CC=2C=CC=CC2N",
        "Molecular Formula": "C<sub>13</sub>H<sub>14</sub>N<sub>2</sub>",
        "Molecular Mass": "198.26",
        "Boiling Point": "22 °C @ Press: 9 Torr",
        "Melting Point": "88 °C"
    }
}