{
    "cas_no": "88-24-4",
    "key_name": "2,2′-Methylenebis[4-ethyl-6-<em>tert</em>-butylphenol]",
    "cn_name": null,
    "alternate_name": "Phenol, 2,2′-methylenebis[6-(1,1-dimethylethyl)-4-ethyl-;Phenol, 2,2′-methylenebis[6-<em>tert</em>-butyl-4-ethyl-;2,2′-Methylenebis[6-(1,1-dimethylethyl)-4-ethylphenol];Bis(2-hydroxy-3-<em>tert</em>-butyl-5-ethylphenyl)methane;Antioxidant 425;2,2′-Methylenebis(6-<em>tert</em>-butyl-4-ethylphenol);Bis(3-<em>tert</em>-butyl-5-ethyl-2-hydroxyphenyl)methane;AO 425;2,2-Methylenebis(4-ethyl-6-<em>tert</em>-butylphenol);Chemanox 22;Plastanox 425;Yoshinox 425;Nocrac NS 5;Antage W 500;Cyanox 425;Agidol 7;2,2-Methylenebis(4-ethyl-<em>6</em>-<em>t</em>-butylphenol);2,2′-Methylenebis[4-ethyl-6-<em>tert</em>-butylphenol];NS 5;Nonflex EBP;Swanox 425;NSC 7782;2,2′-Methylidene bis-4-ethyl-6-<em>tert</em>-butylphenol);MEB;AW 500;2-<em>tert</em>-Butyl-6-[(3-<em>tert</em>-butyl-5-ethyl-2-hydroxyphenyl)methyl]-4-ethylphenol",
    "duplicated_cas_no": "76723-54-1",
    "SMILES": "C(C)(C)(C)C1=C(O)C(CC2=C(O)C(C(C)(C)C)=CC(CC)=C2)=CC(CC)=C1",
    "meta_data": {
        "InChI": "InChI=1S/C25H36O2/c1-9-16-11-18(22(26)20(13-16)24(3,4)5)15-19-12-17(10-2)14-21(23(19)27)25(6,7)8/h11-14,26-27H,9-10,15H2,1-8H3",
        "InChIKey": null,
        "Canonical SMILES": "OC=1C(=CC(=CC1C(C)(C)C)CC)CC2=CC(=CC(=C2O)C(C)(C)C)CC",
        "Molecular Formula": "C<sub>25</sub>H<sub>36</sub>O<sub>2</sub>",
        "Molecular Mass": "368.55",
        "Melting Point": "123 °C"
    }
}