{
    "cas_no": "138164-12-2",
    "key_name": "Butroxydim",
    "cn_name": null,
    "alternate_name": "2-Cyclohexen-1-one, 2-[1-(ethoxyimino)propyl]-3-hydroxy-5-[2,4,6-trimethyl-3-(1-oxobutyl)phenyl]-;2-[1-(Ethoxyimino)propyl]-3-hydroxy-5-[2,4,6-trimethyl-3-(1-oxobutyl)phenyl]-2-cyclohexen-1-one;Fenoxydim;Butroxydim;5-(3-Butyryl-2,4,6-trimethylphenyl)-2-(1-ethoxyiminopropyl)-3-hydroxycyclohex-2-enone",
    "duplicated_cas_no": "",
    "SMILES": "CC1=C(C(C)=CC(C)=C1C(CCC)=O)C2CC(=O)C(C(=NOCC)CC)=C(O)C2",
    "meta_data": {
        "InChI": "InChI=1S/C24H33NO4/c1-7-10-19(26)23-15(5)11-14(4)22(16(23)6)17-12-20(27)24(21(28)13-17)18(8-2)25-29-9-3/h11,17,27H,7-10,12-13H2,1-6H3",
        "InChIKey": null,
        "Canonical SMILES": "O=C(C1=C(C=C(C(=C1C)C2CC(=O)C(=C(O)C2)C(=NOCC)CC)C)C)CCC",
        "Molecular Formula": "C<sub>24</sub>H<sub>33</sub>NO<sub>4</sub>",
        "Molecular Mass": "399.52",
        "Melting Point": "80.8 °C"
    }
}