{
    "cas_no": "17696-62-7",
    "key_name": "Phenyl 4-hydroxybenzoate",
    "cn_name": "羟苯甲酸苯酯;",
    "alternate_name": "Benzoic acid, 4-hydroxy-, phenyl ester;Benzoic acid, <em>p</em>-hydroxy-, phenyl ester;Phenyl <em>p</em>-hydroxybenzoate;4-(Phenoxycarbonyl)phenol;<em>p</em>-Hydroxybenzoic acid phenyl ester;Phenyl 4-hydroxybenzoate;4-Hydroxybenzoic acid phenyl ester",
    "duplicated_cas_no": "",
    "SMILES": "C(OC1=CC=CC=C1)(=O)C2=CC=C(O)C=C2",
    "meta_data": {
        "InChI": "InChI=1S/C13H10O3/c14-11-8-6-10(7-9-11)13(15)16-12-4-2-1-3-5-12/h1-9,14H",
        "InChIKey": null,
        "Canonical SMILES": "O=C(OC=1C=CC=CC1)C2=CC=C(O)C=C2",
        "Molecular Formula": "C<sub>13</sub>H<sub>10</sub>O<sub>3</sub>",
        "Molecular Mass": "214.22",
        "Melting Point": "170-174 °C"
    }
}