{
    "cas_no": "57-85-2",
    "key_name": "Testosterone, propionate",
    "cn_name": "丙酸睾丸素;丙酸睾酮;",
    "alternate_name": "Androst-4-en-3-one, 17-(1-oxopropoxy)-, (17β)-;Testosterone, propionate;(17β)-17-(1-Oxopropoxy)androst-4-en-3-one;NSC 9166;Agovirin;Androtest P;Androteston;Anertan;Aquaviron;Bio-testiculina;Enarmon;Homandren;Hormoteston;17β-Hydroxyandrost-4-en-3-one propionate;Masenate;Nasdol;neo-Hombreol;Okasa-Mascul;Orchiol;Orchistin;Oreton;Pantestin;Propiokan;Recthormone testosterone;Sterandryl;Synerone;Telipex;Testaform;Testex;Testodet;Testodrin;Testogen;Testonique;Testormol;Testoviron;Testoxyl;Testrex;Tostrin;TP;Uniteston;Testosterone-17β propionate;Testosterone-17-propionate;17β-Hydroxyandrost-4-en-3-one-17β-propionate;17β-(Propionyloxy)androst-4-en-3-one;Testosteron propionate;Solvotest;Androlon;Testosid;Testolets;Enarmon-oil;Testoviron (ampule);Primotestone;Textes Depot;17β-Hydroxy-4-androsten-3-one 17-propionate;Orchisterone;Synandrol;Virormone;NRB 03689;MeSH ID: D043343",
    "duplicated_cas_no": "1050678-75-5",
    "SMILES": "C[C@@]12[C@@]3([C@]([C@]4([C@](C)(CC3)[C@@H](OC(CC)=O)CC4)[H])(CCC1=CC(=O)CC2)[H])[H]",
    "meta_data": {
        "InChI": "InChI=1S/C22H32O3/c1-4-20(24)25-19-8-7-17-16-6-5-14-13-15(23)9-11-21(14,2)18(16)10-12-22(17,19)3/h13,16-19H,4-12H2,1-3H3/t16-,17-,18-,19-,21-,22-/m0/s1",
        "InChIKey": null,
        "Canonical SMILES": "O=C(OC1CCC2C3CCC4=CC(=O)CCC4(C)C3CCC12C)CC",
        "Molecular Formula": "C<sub>22</sub>H<sub>32</sub>O<sub>3</sub>",
        "Molecular Mass": "344.49",
        "Melting Point": "120 °C"
    }
}