{
    "cas_no": "12354-84-6",
    "key_name": "Iridium, di-μ-chlorodichlorobis[(1,2,3,4,5-η)-1,2,3,4,5-pentamethyl-2,4-cyclopentadien-1-yl]di-",
    "cn_name": "二氯(五甲基环戊二烯基)合铱(III)二聚体;",
    "alternate_name": "Iridium, di-μ-chlorodichlorobis[(1,2,3,4,5-η)-1,2,3,4,5-pentamethyl-2,4-cyclopentadien-1-yl]di-;1,3-Cyclopentadiene, 1,2,3,4,5-pentamethyl-, iridium complex;Bis[dichloro(pentamethylcyclopentadienyl)iridium];(Pentamethylcyclopentadienyl)iridium dichloride dimer;Di-μ-chlorodichlorobis(pentamethylcyclopentadienyl)diiridium;Tetrachlorobis(pentamethylcyclopentadienyl)diiridium;Bis((μ-chloro)chloro(η<sup>5</sup>-pentamethylcyclopentadienyl)iridium);Bis(dichloro(η<sup>5</sup>-pentamethylcyclopentadienyl)iridium);Bis(dichloro(η<sup>5</sup>-η-pentamethylcyclopentadienyl)iridium);Tetrachlorobis(η<sup>5</sup>-pentamethylcyclopentadienyl)diiridium;Dichlorobis(μ<sub>2</sub>-chloro)bis(η<sup>5</sup>-pentamethylcyclopentadienyl)diiridium;(η<sup>5</sup>-Pentamethylcyclopentadienyl)iridium dichloride dimer;Bis(chloro(μ<sub>2</sub>-chloro)(η<sup>5</sup>-pentamethylcyclopentadienyl)iridium);Dichlorodi-μ-chlorobis(η<sup>5</sup>-pentamethylcyclopentadienyl)diiridium;Bis(pentamethylcyclopentadienyliridium dichloride);Di-μ-chlorobis(chloro(η<sup>5</sup>-pentamethylcyclopentadienyl)iridium);Bis(μ-chloro)bis[chloro(η<sup>5</sup>-pentamethylcyclopentadienyl)iridium];Dichloro(pentamethylcyclopentadienyl)iridium dimer;Dichloro(pentamethylcyclopentadienyl)iridium(III) dimer;Bis(pentamethylcyclopentadiene)tetrachlorodiiridium;(Ir(Cp*)Cl<sub>2</sub>)<sub>2</sub>;Pentamethylcyclopentadienyliridium(III) dichloride dimer;[Cp*IrCl<sub>2</sub>]<sub>2</sub>",
    "duplicated_cas_no": "51472-06-1;60867-01-8;96097-00-6;154723-76-9;272792-28-6;1809295-87-1;2249844-07-1",
    "SMILES": "[Cl-][Ir+3]12345(C=6(C)C1(C)=C2(C)[C-]3(C)C46C)[Cl-][Ir+3]789%10([Cl-])([Cl-]5)[C-]%11(C)C7(C)=C8(C)C9(C)=C%10%11C",
    "meta_data": {
        "InChI": "InChI=1S/2C10H15.4ClH.2Ir/c2*1-6-7(2)9(4)10(5)8(6)3;;;;;;/h2*1-5H3;4*1H;;/q2*-1;;;;;2*+3/p-4",
        "InChIKey": null,
        "Canonical SMILES": "[Cl-][Ir+3]12345([Cl-][Ir+3]6789([Cl-])([Cl-]1)C=%10(C)C9(C)=C8(C)[C-]7(C)C%106C)C=%11(C)C5(C)=C4(C)[C-]3(C)C%112C",
        "Molecular Formula": "C<sub>20</sub>H<sub>30</sub>Cl<sub>4</sub>Ir<sub>2</sub>",
        "Molecular Mass": "",
        "Melting Point": "245 °C (decomp)"
    }
}