{
    "cas_no": "609-12-1",
    "key_name": "Ethyl 2-bromo-3-methylbutanoate",
    "cn_name": "2-溴代异戊酸乙酯;",
    "alternate_name": "Butanoic acid, 2-bromo-3-methyl-, ethyl ester;Butyric acid, 2-bromo-3-methyl-, ethyl ester;Ethyl 2-bromo-3-methylbutyrate;Ethyl 2-bromoisovalerate;Ethyl 2-bromo-3-methylbutanoate;α-Bromoisovaleric acid ethyl ester;Ethyl α-bromoisovalerate;Ethyl 2-bromo-2-isopropylacetate;NSC 8866;2-Bromo-3-methylbutyric acid ethyl ester;2-Bromo-3-methylbutanoic acid ethyl ester",
    "duplicated_cas_no": "84984-05-4",
    "SMILES": "C(C(OCC)=O)(C(C)C)Br",
    "meta_data": {
        "InChI": "InChI=1S/C7H13BrO2/c1-4-10-7(9)6(8)5(2)3/h5-6H,4H2,1-3H3",
        "InChIKey": null,
        "Canonical SMILES": "O=C(OCC)C(Br)C(C)C",
        "Molecular Formula": "C<sub>7</sub>H<sub>13</sub>BrO<sub>2</sub>",
        "Molecular Mass": "209.08",
        "Boiling Point": "186 °C"
    }
}