{
    "cas_no": "488-59-5",
    "key_name": "<em>scyllo</em>-Inositol",
    "cn_name": null,
    "alternate_name": "<em>scyllo</em>-Inositol;Inositol, <em>scyllo</em>-;Scyllitol;Cocositol;Quercinitol;<em>scyllo</em>-Cyclohexanehexol;AZD 103;ELND 005;AZD103;AZD-103",
    "duplicated_cas_no": "887751-76-0",
    "SMILES": "O[C@@H]1[C@@H](O)[C@H](O)[C@@H](O)[C@H](O)[C@H]1O",
    "meta_data": {
        "InChI": "InChI=1/C6H12O6/c7-1-2(8)4(10)6(12)5(11)3(1)9/h1-12H/t1-,2-,3+,4+,5-,6-",
        "InChIKey": null,
        "Canonical SMILES": "OC1C(O)C(O)C(O)C(O)C1O",
        "Molecular Formula": "C<sub>6</sub>H<sub>12</sub>O<sub>6</sub>",
        "Molecular Mass": "180.16",
        "Melting Point": "353 °C (decomp)"
    }
}