{
    "cas_no": "1208-88-4",
    "key_name": "4-(Phenylthio)benzaldehyde",
    "cn_name": "4-苯硫基苯甲醛;",
    "alternate_name": "Benzaldehyde, 4-(phenylthio)-;Benzaldehyde, <em>p</em>-(phenylthio)-;4-(Phenylthio)benzaldehyde;4-Formyldiphenyl sulfide;4-Phenylsulfanylbenzaldehyde",
    "duplicated_cas_no": "",
    "SMILES": "S(C1=CC=C(C=O)C=C1)C2=CC=CC=C2",
    "meta_data": {
        "InChI": "InChI=1S/C13H10OS/c14-10-11-6-8-13(9-7-11)15-12-4-2-1-3-5-12/h1-10H",
        "InChIKey": null,
        "Canonical SMILES": "O=CC1=CC=C(SC=2C=CC=CC2)C=C1",
        "Molecular Formula": "C<sub>13</sub>H<sub>10</sub>OS",
        "Molecular Mass": "214.28",
        "Boiling Point": "136-138 °C @ Press: 0.1 Torr",
        "Melting Point": "53-54 °C"
    }
}