{
    "cas_no": "52062-92-7",
    "key_name": "4-(2-Bromoethyl)benzoic acid",
    "cn_name": "4-(2-溴乙基)苯甲酸;",
    "alternate_name": "Benzoic acid, 4-(2-bromoethyl)-;Benzoic acid, <em>p</em>-(2-bromoethyl)-;4-(2-Bromoethyl)benzoic acid;<em>p</em>-(2-Bromoethyl)benzoic acid;2-[4-Carboxyphenyl]ethyl bromide",
    "duplicated_cas_no": "",
    "SMILES": "C(O)(=O)C1=CC=C(CCBr)C=C1",
    "meta_data": {
        "InChI": "InChI=1S/C9H9BrO2/c10-6-5-7-1-3-8(4-2-7)9(11)12/h1-4H,5-6H2,(H,11,12)",
        "InChIKey": null,
        "Canonical SMILES": "O=C(O)C1=CC=C(C=C1)CCBr",
        "Molecular Formula": "C<sub>9</sub>H<sub>9</sub>BrO<sub>2</sub>",
        "Molecular Mass": "229.07",
        "Melting Point": "209-210 °C"
    }
}