{
    "cas_no": "19910-33-9",
    "key_name": "2-(4-Nitrophenyl)propionic acid",
    "cn_name": "α-甲基-4-硝基苯乙酸;",
    "alternate_name": "Benzeneacetic acid, α-methyl-4-nitro-;Hydratropic acid, <em>p</em>-nitro-;α-Methyl-4-nitrobenzeneacetic acid;2-(4-Nitrophenyl)propionic acid;2-(<em>p</em>-Nitrophenyl)propionic acid;2-(4-Nitrophenyl)propanoic acid;(±)-2-(4-Nitrophenyl)propionic acid",
    "duplicated_cas_no": "138514-67-7",
    "SMILES": "C(C(O)=O)(C)C1=CC=C(N(=O)=O)C=C1",
    "meta_data": {
        "InChI": "InChI=1S/C9H9NO4/c1-6(9(11)12)7-2-4-8(5-3-7)10(13)14/h2-6H,1H3,(H,11,12)",
        "InChIKey": null,
        "Canonical SMILES": "O=C(O)C(C1=CC=C(C=C1)N(=O)=O)C",
        "Molecular Formula": "C<sub>9</sub>H<sub>9</sub>NO<sub>4</sub>",
        "Molecular Mass": "195.17",
        "Melting Point": "100.0-100.5 °C"
    }
}