{
    "cas_no": "87-85-4",
    "key_name": "Hexamethylbenzene",
    "cn_name": "六甲苯;六甲基苯;",
    "alternate_name": "Benzene, 1,2,3,4,5,6-hexamethyl-;Benzene, hexamethyl-;1,2,3,4,5,6-Hexamethylbenzene;Hexamethylbenzene;Mellitene;NSC 3838",
    "duplicated_cas_no": "46010-49-5",
    "SMILES": "CC1=C(C)C(C)=C(C)C(C)=C1C",
    "meta_data": {
        "InChI": "InChI=1S/C12H18/c1-7-8(2)10(4)12(6)11(5)9(7)3/h1-6H3",
        "InChIKey": null,
        "Canonical SMILES": "C=1(C(=C(C(=C(C1C)C)C)C)C)C",
        "Molecular Formula": "C<sub>12</sub>H<sub>18</sub>",
        "Molecular Mass": "162.27",
        "Boiling Point": "263.4 °C",
        "Melting Point": "166.5 °C",
        "Density": "1.042 g/cm³"
    }
}