{
    "cas_no": "537-42-8",
    "key_name": "Pterostilbene",
    "cn_name": "紫檀茋;3,5-二甲氧基-4\"-羟基二苯乙烯;",
    "alternate_name": "Phenol, 4-[(1<em>E</em>)-2-(3,5-dimethoxyphenyl)ethenyl]-;4-Stilbenol, 3′,5′-dimethoxy-, (<em>E</em>)-;Phenol, 4-[2-(3,5-dimethoxyphenyl)ethenyl]-, (<em>E</em>)-;4-[(1<em>E</em>)-2-(3,5-Dimethoxyphenyl)ethenyl]phenol;Pterostilbene;3,5-Dimethoxy-4′-hydroxy-<em>trans</em>-stilbene;<em>trans</em>-3,5-Dimethoxy-4′-hydroxystilbene;<em>trans</em>-Pterostilbene;(<em>E</em>)-2-(3,5-Dimethoxyphenyl)-1-(4-hydroxyphenyl)ethene;(<em>E</em>)-4-Hydroxy-3′,5′-dimethoxystilbene;(E)-4-(3,5-Dimethoxystyryl)phenol;<em>E</em>-Pterostilbene;P 1499",
    "duplicated_cas_no": "2227028-61-5",
    "SMILES": "C(=C/C1=CC=C(O)C=C1)\\C2=CC(OC)=CC(OC)=C2",
    "meta_data": {
        "InChI": "InChI=1S/C16H16O3/c1-18-15-9-13(10-16(11-15)19-2)4-3-12-5-7-14(17)8-6-12/h3-11,17H,1-2H3/b4-3+",
        "InChIKey": null,
        "Canonical SMILES": "OC1=CC=C(C=C1)C=CC=2C=C(OC)C=C(OC)C2",
        "Molecular Formula": "C<sub>16</sub>H<sub>16</sub>O<sub>3</sub>",
        "Molecular Mass": "256.30",
        "Melting Point": "88-89 °C"
    }
}