{
    "cas_no": "2170-13-0",
    "key_name": "[1,1′-Biphenyl]-4-ol, 4-benzoate",
    "cn_name": null,
    "alternate_name": "[1,1′-Biphenyl]-4-ol, 4-benzoate;4-Biphenylol, benzoate;[1,1′-Biphenyl]-4-ol, benzoate;Phenol, <em>p</em>-phenyl-, benzoate;Benzoic acid, 4-biphenylyl ester;<em>p</em>-Biphenylyl benzoate;4-(Benzoyloxy)biphenyl;NSC 28435;Biphenyl-4-yl benzoate;1,1′-Biphenyl-4-yl benzoate;(4-Phenylphenyl) benzoate",
    "duplicated_cas_no": "",
    "SMILES": "O(C(=O)C1=CC=CC=C1)C2=CC=C(C=C2)C3=CC=CC=C3",
    "meta_data": {
        "InChI": "InChI=1S/C19H14O2/c20-19(17-9-5-2-6-10-17)21-18-13-11-16(12-14-18)15-7-3-1-4-8-15/h1-14H",
        "InChIKey": null,
        "Canonical SMILES": "O=C(OC=1C=CC(=CC1)C=2C=CC=CC2)C=3C=CC=CC3",
        "Molecular Formula": "C<sub>19</sub>H<sub>14</sub>O<sub>2</sub>",
        "Molecular Mass": "274.31",
        "Melting Point": "148.5-149.5 °C"
    }
}