{
    "cas_no": "2835-06-5",
    "key_name": "<span class=\"text-smallcaps\">DL</span>-Phenylglycine",
    "cn_name": "2-氨基-2-苯基乙酸;DL-苯甘氨酸;DL-alpha-氨基苯乙酸;",
    "alternate_name": "Benzeneacetic acid, α-amino-;Glycine, 2-phenyl-, <span class=\"text-smallcaps\">DL</span>-;Benzeneacetic acid, α-amino-, (±)-;α-Aminobenzeneacetic acid;<span class=\"text-smallcaps\">DL</span>-α-Aminophenylacetic acid;<span class=\"text-smallcaps\">DL</span>-2-Phenylglycine;<span class=\"text-smallcaps\">DL</span>-α-Phenylglycine;(±)-α-Phenylglycine;(±)-Phenylglycine;(<em>RS</em>)-2-Phenylglycine;<span class=\"text-smallcaps\">DL</span>-Phenylglycine;α-Aminophenylacetic acid;α-Phenylglycine;2-Phenylglycine;2-Amino-2-phenylacetic acid;<em>C</em>-Phenylglycine;2-Amino-2-phenylethanoic acid;NSC 24619;NSC 32070;NSC 7928",
    "duplicated_cas_no": "69-91-0",
    "SMILES": "C(C(O)=O)(N)C1=CC=CC=C1",
    "meta_data": {
        "InChI": "InChI=1S/C8H9NO2/c9-7(8(10)11)6-4-2-1-3-5-6/h1-5,7H,9H2,(H,10,11)",
        "InChIKey": null,
        "Canonical SMILES": "O=C(O)C(N)C=1C=CC=CC1",
        "Molecular Formula": "C<sub>8</sub>H<sub>9</sub>NO<sub>2</sub>",
        "Molecular Mass": "151.16",
        "Melting Point": "290 °C"
    }
}