{
    "cas_no": "1408075-90-0",
    "key_name": "1,1-Dimethylethyl 7-oxo-5-oxa-2-azaspiro[3.4]octane-2-carboxylate",
    "cn_name": null,
    "alternate_name": "5-Oxa-2-azaspiro[3.4]octane-2-carboxylic acid, 7-oxo-, 1,1-dimethylethyl ester;1,1-Dimethylethyl 7-oxo-5-oxa-2-azaspiro[3.4]octane-2-carboxylate;2-Boc-5-oxa-7-oxo-2-azaspiro[3.4]octane",
    "duplicated_cas_no": "",
    "SMILES": "C(OC(C)(C)C)(=O)N1CC2(C1)OCC(=O)C2",
    "meta_data": {
        "InChI": "InChI=1S/C11H17NO4/c1-10(2,3)16-9(14)12-6-11(7-12)4-8(13)5-15-11/h4-7H2,1-3H3",
        "InChIKey": null,
        "Canonical SMILES": "O=C(OC(C)(C)C)N1CC2(OCC(=O)C2)C1",
        "Molecular Formula": "C<sub>11</sub>H<sub>17</sub>NO<sub>4</sub>",
        "Molecular Mass": "227.26",
        "Melting Point": "70.6-80.5 °C"
    }
}