{
    "cas_no": "3814-30-0",
    "key_name": "(Bromomethyl)cyclopentane",
    "cn_name": "溴甲基环戊烷;",
    "alternate_name": "Cyclopentane, (bromomethyl)-;(Bromomethyl)cyclopentane;Cyclopentylmethyl bromide;Bromocyclopentylmethane",
    "duplicated_cas_no": "",
    "SMILES": "C(Br)C1CCCC1",
    "meta_data": {
        "InChI": "InChI=1S/C6H11Br/c7-5-6-3-1-2-4-6/h6H,1-5H2",
        "InChIKey": null,
        "Canonical SMILES": "BrCC1CCCC1",
        "Molecular Formula": "C<sub>6</sub>H<sub>11</sub>Br",
        "Molecular Mass": "163.06",
        "Boiling Point": "58-60 °C @ Press: 15 Torr",
        "Density": "1.271 g/cm³ @ Temp: 20 °C"
    }
}