{
    "cas_no": "285-69-8",
    "key_name": "3,6-Dioxabicyclo[3.1.0]hexane",
    "cn_name": "3,4-环氧四氢呋喃;",
    "alternate_name": "3,6-Dioxabicyclo[3.1.0]hexane;Furan, 3,4-epoxytetrahydro-;3,4-Epoxytetrahydrofuran;NSC 196231",
    "duplicated_cas_no": "1671061-32-7",
    "SMILES": "C12C(O1)COC2",
    "meta_data": {
        "InChI": "InChI=1S/C4H6O2/c1-3-4(6-3)2-5-1/h3-4H,1-2H2",
        "InChIKey": null,
        "Canonical SMILES": "O1CC2OC2C1",
        "Molecular Formula": "C<sub>4</sub>H<sub>6</sub>O<sub>2</sub>",
        "Molecular Mass": "86.09",
        "Boiling Point": "143-144 °C"
    }
}