{
    "cas_no": "462-43-1",
    "key_name": "1-Propanol, 3-fluoro-",
    "cn_name": "3-氟丙醇;",
    "alternate_name": "1-Propanol, 3-fluoro-;3-Hydroxypropyl fluoride;3-Fluoro-1-propanol;3-Fluoropropanol",
    "duplicated_cas_no": "",
    "SMILES": "C(CF)CO",
    "meta_data": {
        "InChI": "InChI=1S/C3H7FO/c4-2-1-3-5/h5H,1-3H2",
        "InChIKey": null,
        "Canonical SMILES": "FCCCO",
        "Molecular Formula": "C<sub>3</sub>H<sub>7</sub>FO",
        "Molecular Mass": "78.09",
        "Boiling Point": "127.8 °C",
        "Density": "1.0390 g/cm³ @ Temp: 25 °C"
    }
}