{
    "cas_no": "7148-74-5",
    "key_name": "2-Bromopropanoyl chloride",
    "cn_name": "2-溴丙酰氯;",
    "alternate_name": "Propanoyl chloride, 2-bromo-;Propionyl chloride, 2-bromo-;2-Bromopropanoyl chloride;α-Bromopropionyl chloride;2-Bromopropionyl chloride;α-Bromopropionic acid chloride;α-Bromopropanoyl chloride;2-Bromopropionic acid chloride;(±)-2-Bromopropionyl chloride;NSC 64455",
    "duplicated_cas_no": "71425-59-7",
    "SMILES": "C(C(Cl)=O)(Br)C",
    "meta_data": {
        "InChI": "InChI=1S/C3H4BrClO/c1-2(4)3(5)6/h2H,1H3",
        "InChIKey": null,
        "Canonical SMILES": "O=C(Cl)C(Br)C",
        "Molecular Formula": "C<sub>3</sub>H<sub>4</sub>BrClO",
        "Molecular Mass": "171.42",
        "Boiling Point": "132 °C"
    }
}