{
    "cas_no": "5397-64-8",
    "key_name": "4-Chloro-6-hydroxy-3(2<em>H</em>)-pyridazinone",
    "cn_name": null,
    "alternate_name": "3(2<em>H</em>)-Pyridazinone, 4-chloro-6-hydroxy-;3,6-Pyridazinedione, 4-chloro-1,2-dihydro-;3(2<em>H</em>)-Pyridazinone, 5-chloro-6-hydroxy-;4-Chloro-6-hydroxy-3(2<em>H</em>)-pyridazinone;4-Chloropyridazine-3,6-diol;Chloromaleic hydrazide;NSC 114056;NSC 163128;NSC 4243;4-Chloro-1,2-dihydropyridazine-3,6-dione;3,6-Dihydroxy-4-chloropyridazine",
    "duplicated_cas_no": "20744-36-9;29354-94-7",
    "SMILES": "ClC=1C(=O)NNC(=O)C1",
    "meta_data": {
        "InChI": "InChI=1S/C4H3ClN2O2/c5-2-1-3(8)6-7-4(2)9/h1H,(H,6,8)(H,7,9)",
        "InChIKey": null,
        "Canonical SMILES": "O=C1C=C(Cl)C(=O)NN1",
        "Molecular Formula": "C<sub>4</sub>H<sub>3</sub>ClN<sub>2</sub>O<sub>2</sub>",
        "Molecular Mass": "146.53",
        "Melting Point": "285-288 °C (decomp)"
    }
}