{
    "cas_no": "3739-30-8",
    "key_name": "(±)-2-Hydroxy-2-methylbutyric acid",
    "cn_name": "2-羟基-2-甲基丁酸;",
    "alternate_name": "Butanoic acid, 2-hydroxy-2-methyl-;Butyric acid, 2-hydroxy-2-methyl-;Butyric acid, α-hydroxy-α-methyl-;2-Hydroxy-2-methylbutanoic acid;α-Hydroxy-α-methylbutyric acid;2-Hydroxy-2-methylbutyric acid;2-Methyl-2-hydroxybutyric acid;(±)-α-Hydroxy-α-methylbutyric acid;(±)-2-Hydroxy-2-methylbutyric acid;(±)-2-Hydroxy-2-methylbutanoic acid;NSC 9458",
    "duplicated_cas_no": "37505-03-6",
    "SMILES": "C(C(O)=O)(CC)(C)O",
    "meta_data": {
        "InChI": "InChI=1S/C5H10O3/c1-3-5(2,8)4(6)7/h8H,3H2,1-2H3,(H,6,7)",
        "InChIKey": null,
        "Canonical SMILES": "O=C(O)C(O)(C)CC",
        "Molecular Formula": "C<sub>5</sub>H<sub>10</sub>O<sub>3</sub>",
        "Molecular Mass": "118.13",
        "Boiling Point": "133-134 °C @ Press: 16 Torr",
        "Melting Point": "74 °C"
    }
}