{
    "cas_no": "14657-64-8",
    "key_name": "2-Carboxyethyl(phenyl)phosphinic acid",
    "cn_name": "3-羟基苯基磷酰丙酸;",
    "alternate_name": "Propanoic acid, 3-(hydroxyphenylphosphinyl)-;Propionic acid, 3-(hydroxyphenylphosphinyl)-;3-(Hydroxyphenylphosphinyl)propanoic acid;2-Carboxyethyl(phenyl)phosphinic acid;3-(Phenylphosphinyl)propionic acid;3-(Hydroxyphenylphosphinyl)propionic acid;H 205 (flame retardant);H 205;Hiretar 205;2-Carboxylethyl(phenyl)phosphinic acid;Phosgard PF 100;PZ 1201;IDB 3HPP",
    "duplicated_cas_no": "",
    "SMILES": "P(CCC(O)=O)(=O)(O)C1=CC=CC=C1",
    "meta_data": {
        "InChI": "InChI=1S/C9H11O4P/c10-9(11)6-7-14(12,13)8-4-2-1-3-5-8/h1-5H,6-7H2,(H,10,11)(H,12,13)",
        "InChIKey": null,
        "Canonical SMILES": "O=C(O)CCP(=O)(O)C=1C=CC=CC1",
        "Molecular Formula": "C<sub>9</sub>H<sub>11</sub>O<sub>4</sub>P",
        "Molecular Mass": "214.15",
        "Melting Point": "156-157 °C"
    }
}