{
    "cas_no": "27918-14-5",
    "key_name": "2-Aminoacridone",
    "cn_name": "AMAC;",
    "alternate_name": "9(10<em>H</em>)-Acridinone, 2-amino-;9-Acridanone, 2-amino-;2-Amino-9(10<em>H</em>)-acridinone;2-Aminoacridone;2-Amino-9-acridone;2-Amino-9,10-dihydroacridin-9-one;2-Amino-10<em>H</em>-acridin-9-one",
    "duplicated_cas_no": "",
    "SMILES": "O=C1C=2C(NC=3C1=CC=CC3)=CC=C(N)C2",
    "meta_data": {
        "InChI": "InChI=1S/C13H10N2O/c14-8-5-6-12-10(7-8)13(16)9-3-1-2-4-11(9)15-12/h1-7H,14H2,(H,15,16)",
        "InChIKey": null,
        "Canonical SMILES": "O=C1C=2C=CC=CC2NC3=CC=C(N)C=C13",
        "Molecular Formula": "C<sub>13</sub>H<sub>10</sub>N<sub>2</sub>O",
        "Molecular Mass": "210.23",
        "Melting Point": "301-303 °C"
    }
}