{
    "cas_no": "96886-56-5",
    "key_name": "(2<em>R</em>)-2-Amino-2-methyl-4-pentenoic acid",
    "cn_name": "(S)-2-氨基-2-甲基-4-戊烯酸;L-alpha-烯丙基丙氨酸;",
    "alternate_name": "4-Pentenoic acid, 2-amino-2-methyl-, (2<em>R</em>)-;4-Pentenoic acid, 2-amino-2-methyl-, (<em>R</em>)-;(2<em>R</em>)-2-Amino-2-methyl-4-pentenoic acid;(<em>R</em>)-α-Allylalanine;(<em>R</em>)-(+)-α-Allylalanine;(2R)-2-Azaniumyl-2-methylpent-4-enoate",
    "duplicated_cas_no": "",
    "SMILES": "[C@@](CC=C)(C(O)=O)(C)N",
    "meta_data": {
        "InChI": "InChI=1S/C6H11NO2/c1-3-4-6(2,7)5(8)9/h3H,1,4,7H2,2H3,(H,8,9)/t6-/m1/s1",
        "InChIKey": null,
        "Canonical SMILES": "O=C(O)C(N)(C)CC=C",
        "Molecular Formula": "C<sub>6</sub>H<sub>11</sub>NO<sub>2</sub>",
        "Molecular Mass": "129.16",
        "Melting Point": "296-299 °C"
    }
}