{
    "cas_no": "619-14-7",
    "key_name": "3-Hydroxy-4-nitrobenzoic acid",
    "cn_name": "3-羟基-4-硝基苯甲酸;",
    "alternate_name": "Benzoic acid, 3-hydroxy-4-nitro-;3-Hydroxy-4-nitrobenzoic acid;4-Nitro-3-hydroxybenzoic acid;3-Carboxy-6-nitrophenol;NSC 46823",
    "duplicated_cas_no": "",
    "SMILES": "C(O)(=O)C1=CC(O)=C(N(=O)=O)C=C1",
    "meta_data": {
        "InChI": "InChI=1S/C7H5NO5/c9-6-3-4(7(10)11)1-2-5(6)8(12)13/h1-3,9H,(H,10,11)",
        "InChIKey": null,
        "Canonical SMILES": "O=C(O)C1=CC=C(C(O)=C1)N(=O)=O",
        "Molecular Formula": "C<sub>7</sub>H<sub>5</sub>NO<sub>5</sub>",
        "Molecular Mass": "183.12",
        "Melting Point": "229-231 °C"
    }
}