{
    "cas_no": "821-99-8",
    "key_name": "1,9-Dichlorononane",
    "cn_name": "1,9-二氯壬烷;",
    "alternate_name": "Nonane, 1,9-dichloro-;1,9-Dichlorononane;NSC 9477",
    "duplicated_cas_no": "",
    "SMILES": "C(CCCCCl)CCCCCl",
    "meta_data": {
        "InChI": "InChI=1S/C9H18Cl2/c10-8-6-4-2-1-3-5-7-9-11/h1-9H2",
        "InChIKey": null,
        "Canonical SMILES": "ClCCCCCCCCCCl",
        "Molecular Formula": "C<sub>9</sub>H<sub>18</sub>Cl<sub>2</sub>",
        "Molecular Mass": "197.15",
        "Boiling Point": "260 °C"
    }
}