{
    "cas_no": "905579-51-3",
    "key_name": "Pevonedistat",
    "cn_name": null,
    "alternate_name": "Sulfamic acid, [(1<em>S</em>,2<em>S</em>,4<em>R</em>)-4-[4-[[(1<em>S</em>)-2,3-dihydro-1<em>H</em>-inden-1-yl]amino]-7<em>H</em>-pyrrolo[2,3-<em>d</em>]pyrimidin-7-yl]-2-hydroxycyclopentyl]methyl ester;MLN 4924;Pevonedistat",
    "duplicated_cas_no": "",
    "SMILES": "N(C1=C2C(N(C=C2)[C@@H]3C[C@@H](COS(N)(=O)=O)[C@@H](O)C3)=NC=N1)[C@@H]4C=5C(CC4)=CC=CC5",
    "meta_data": {
        "InChI": "InChI=1S/C21H25N5O4S/c22-31(28,29)30-11-14-9-15(10-19(14)27)26-8-7-17-20(23-12-24-21(17)26)25-18-6-5-13-3-1-2-4-16(13)18/h1-4,7-8,12,14-15,18-19,27H,5-6,9-11H2,(H2,22,28,29)(H,23,24,25)/t14-,15+,18-,19-/m0/s1",
        "InChIKey": null,
        "Canonical SMILES": "O=S(=O)(OCC1CC(N2C=CC=3C(=NC=NC32)NC4C=5C=CC=CC5CC4)CC1O)N",
        "Molecular Formula": "C<sub>21</sub>H<sub>25</sub>N<sub>5</sub>O<sub>4</sub>S",
        "Molecular Mass": "443.52",
        "Melting Point": "164-166 °C"
    }
}