{
    "cas_no": "13865-50-4",
    "key_name": "[(Methoxymethyl)thio]benzene",
    "cn_name": null,
    "alternate_name": "Benzene, [(methoxymethyl)thio]-;Ether, methyl (phenylthio)methyl;[(Methoxymethyl)thio]benzene;Methoxymethyl phenyl sulfide;Methoxy(phenylthio)methane;[(Methoxymethyl)sulfanyl]benzene",
    "duplicated_cas_no": "",
    "SMILES": "S(COC)C1=CC=CC=C1",
    "meta_data": {
        "InChI": "InChI=1S/C8H10OS/c1-9-7-10-8-5-3-2-4-6-8/h2-6H,7H2,1H3",
        "InChIKey": null,
        "Canonical SMILES": "O(C)CSC=1C=CC=CC1",
        "Molecular Formula": "C<sub>8</sub>H<sub>10</sub>OS",
        "Molecular Mass": "154.23",
        "Boiling Point": "112-113 °C @ Press: 18 Torr",
        "Density": "1.1047 g/cm³ @ Temp: 16 °C"
    }
}