{
    "cas_no": "101-25-7",
    "key_name": "Dinitrosopentamethylenetetramine",
    "cn_name": "3,7-二亚硝基-1,3,5,7-四氮杂双环[3.3.1]壬烷;发泡剂H;N,N\"-二亚硝基五亚甲基四胺;发泡剂BN;发泡剂DPT;N,N\";",
    "alternate_name": "1,3,5,7-Tetraazabicyclo[3.3.1]nonane, 3,7-dinitroso-;3,7-Dinitroso-1,3,5,7-tetraazabicyclo[3.3.1]nonane;Aceto DNPT 40;Aceto DNPT 80;Aceto DNPT 100;3,7-Di-<em>N</em>-nitroso(pentamethylene)tetramine;Dinitrosopentamethylenetetramine;DNPT;Opex;Pentamethylenetetramine, dinitroso-;Unicel ND;Unicel NDX;Vulcacel B 40;Vulcacel BN;<em>N</em>,<em>N</em>′-Dinitrosopentamethylenetetramine;Mikrofor N;ChKhZ 18;<em>N</em>,<em>N</em>-Dinitrosopentamethylenetetramine;Dinitrosopentamethenetetramine;Di-<em>N</em>-Nitrosopentamethylenetetramine;1,5-Methylene-3,7-dinitroso-1,3,5,7-tetraazacyclooctane;<em>N</em><sup>1</sup>,<em>N</em><sup>3</sup>-Dinitrosopentamethylenetetramine;Micropor;Dipentax;Porofor DNO/F;Opex 93;Unicel 100;Chempor N 90;Chempor PC 65;Vulcacel BN 94;Cellmic A 80;Cellmic A;DNPMT;PU 55;Kempore N 90;1,5-Endomethylene-3,7-dinitroso-1,3,5,7-tetraazacyclooctane;Cellular D;DNO/F;Cellmic AN;Cellular GX;Chempor PC 55;1,5-Methano-3,7-dinitroso-1,3,5,7-tetraazacyclooctane;Porex F;Cellular C;Unicell GP 9;GP 9;NSC 73599;Cellular L 85;3,7-Dinitroso-1,3,5,7-tetrabicyclo[3.3.1]nonane;PTs 55;Cellular L 70;Cellular GX-N;DPT;Foaming Agent H;Foamer H;Cellular Z-K;Blowing Agent H;KZ 110;500A (blowing agent);500A",
    "duplicated_cas_no": "42617-17-4;42617-18-5;50337-90-1;52229-98-8;85605-18-1;1234867-32-3;1392275-60-3",
    "SMILES": "N(=O)N1CN2CN(N=O)CN(C2)C1",
    "meta_data": {
        "InChI": "InChI=1S/C5H10N6O2/c12-6-10-2-8-1-9(4-10)5-11(3-8)7-13/h1-5H2",
        "InChIKey": null,
        "Canonical SMILES": "O=NN1CN2CN(N=O)CN(C1)C2",
        "Molecular Formula": "C<sub>5</sub>H<sub>10</sub>N<sub>6</sub>O<sub>2</sub>",
        "Molecular Mass": "186.17",
        "Melting Point": "198 °C"
    }
}