{
    "cas_no": "2065-70-5",
    "key_name": "2,6-Dichloronaphthalene",
    "cn_name": "2,6-二氯萘;2,6-二氯萘;",
    "alternate_name": "Naphthalene, 2,6-dichloro-;2,6-Dichloronaphthalene;PCN 11",
    "duplicated_cas_no": "",
    "SMILES": "ClC1=CC2=C(C=C(Cl)C=C2)C=C1",
    "meta_data": {
        "InChI": "InChI=1S/C10H6Cl2/c11-9-3-1-7-5-10(12)4-2-8(7)6-9/h1-6H",
        "InChIKey": null,
        "Canonical SMILES": "ClC=1C=CC2=CC(Cl)=CC=C2C1",
        "Molecular Formula": "C<sub>10</sub>H<sub>6</sub>Cl<sub>2</sub>",
        "Molecular Mass": "197.06",
        "Boiling Point": "285 °C",
        "Melting Point": "140.5 °C"
    }
}