{
    "cas_no": "107-40-4",
    "key_name": "2,4,4-Trimethyl-2-pentene",
    "cn_name": "2,4,4-三甲基-2-戊烯;二异丁烯;",
    "alternate_name": "2-Pentene, 2,4,4-trimethyl-;2,4,4-Trimethyl-2-pentene;Propene, 1-<em>tert</em>-butyl-2-methyl-;2,2,4-Trimethyl-3-pentene",
    "duplicated_cas_no": "",
    "SMILES": "C(C(C)(C)C)=C(C)C",
    "meta_data": {
        "InChI": "InChI=1S/C8H16/c1-7(2)6-8(3,4)5/h6H,1-5H3",
        "InChIKey": null,
        "Canonical SMILES": "C(=C(C)C)C(C)(C)C",
        "Molecular Formula": "C<sub>8</sub>H<sub>16</sub>",
        "Molecular Mass": "112.21",
        "Boiling Point": "104.9 °C",
        "Melting Point": "-106.3 °C",
        "Density": "0.7218 g/cm³ @ Temp: 20 °C"
    }
}