{
    "cas_no": "51072-34-5",
    "key_name": "<em>N</em>-[2-(1-Cyclohexen-1-yl)ethyl]-4-methoxybenzeneacetamide",
    "cn_name": null,
    "alternate_name": "Benzeneacetamide, <em>N</em>-[2-(1-cyclohexen-1-yl)ethyl]-4-methoxy-;Acetamide, <em>N</em>-[2-(1-cyclohexen-1-yl)ethyl]-2-(<em>p</em>-methoxyphenyl)-;<em>N</em>-[2-(1-Cyclohexen-1-yl)ethyl]-4-methoxybenzeneacetamide",
    "duplicated_cas_no": "",
    "SMILES": "C(C(NCCC=1CCCCC1)=O)C2=CC=C(OC)C=C2",
    "meta_data": {
        "InChI": "InChI=1S/C17H23NO2/c1-20-16-9-7-15(8-10-16)13-17(19)18-12-11-14-5-3-2-4-6-14/h5,7-10H,2-4,6,11-13H2,1H3,(H,18,19)",
        "InChIKey": null,
        "Canonical SMILES": "O=C(NCCC1=CCCCC1)CC2=CC=C(OC)C=C2",
        "Molecular Formula": "C<sub>17</sub>H<sub>23</sub>NO<sub>2</sub>",
        "Molecular Mass": "273.37",
        "Melting Point": "88-90 °C"
    }
}