{
    "cas_no": "3493-12-7",
    "key_name": "<span class=\"text-smallcaps\">DL</span>-Methionine methylsulfonium chloride",
    "cn_name": "维生素U;维他命 U;",
    "alternate_name": "Sulfonium, (3-amino-3-carboxypropyl)dimethyl-, chloride (1:1);Sulfonium, (3-amino-3-carboxypropyl)dimethyl-, chloride, <span class=\"text-smallcaps\">DL</span>-;Sulfonium, (3-amino-3-carboxypropyl)dimethyl-, chloride, (±)-;Sulfonium, (3-amino-3-carboxypropyl)dimethyl-, chloride;<em>dl</em>-Methionine methylsulphonium chloride;<span class=\"text-smallcaps\">DL</span>-Methionine methylsulfonium chloride;γ-Dimethylsulfonium-α-aminobutyric acid chloride;(3-Amino-3-carboxypropyl)dimethylsulfonium chloride;(3-Amino-3-carboxypropyl)dimethylsulfanium chloride",
    "duplicated_cas_no": "41844-44-4;1086685-49-5",
    "SMILES": "C(CC[S+](C)C)(C(O)=O)N.[Cl-]",
    "meta_data": {
        "InChI": "InChI=1S/C6H13NO2S.ClH/c1-10(2)4-3-5(7)6(8)9;/h5H,3-4,7H2,1-2H3;1H",
        "InChIKey": null,
        "Canonical SMILES": "[Cl-].O=C(O)C(N)CC[S+](C)C",
        "Molecular Formula": "C<sub>6</sub>H<sub>14</sub>NO<sub>2</sub>S.Cl",
        "Molecular Mass": "",
        "Melting Point": "137-138 °C (decomp)"
    }
}