{
    "cas_no": "120-29-6",
    "key_name": "Tropine",
    "cn_name": "托品醇;endo-8-甲基-8-氮杂双环[3.2.1]辛-3-醇;",
    "alternate_name": "8-Azabicyclo[3.2.1]octan-3-ol, 8-methyl-, (3-<em>endo</em>)-;1α<span class=\"text-smallcaps\">H</smallcap>,5α<smallcap>H</span>-Tropan-3α-ol;8-Azabicyclo[3.2.1]octan-3-ol, 8-methyl-, <em>endo</em>-;Tropanol;(3-<em>endo</em>)-8-Methyl-8-azabicyclo[3.2.1]octan-3-ol;Tropine;3α-Tropanol;2,3-Dihydro-3α-hydroxy-8-methylnortropidine;2,3-Dihydro-3α-hydroxytropidine;NSC 43870;α-Tropine",
    "duplicated_cas_no": "28390-68-3;1195569-72-2",
    "SMILES": "CN1[C@]2(C[C@H](O)C[C@@]1(CC2)[H])[H]",
    "meta_data": {
        "InChI": "InChI=1/C8H15NO/c1-9-6-2-3-7(9)5-8(10)4-6/h6-8,10H,2-5H2,1H3/t6-,7+,8+",
        "InChIKey": null,
        "Canonical SMILES": "OC1CC2N(C)C(CC2)C1",
        "Molecular Formula": "C<sub>8</sub>H<sub>15</sub>NO",
        "Molecular Mass": "141.21",
        "Boiling Point": "233 °C",
        "Melting Point": "64 °C",
        "Density": "1.001 g/cm³ @ Temp: 116 °C"
    }
}