{
    "cas_no": "625-36-5",
    "key_name": "3-Chloropropionyl chloride",
    "cn_name": "3-氯代丙酰氯;3-氯丙酰氯;",
    "alternate_name": "Propanoyl chloride, 3-chloro-;Propionyl chloride, 3-chloro-;3-Chloropropanoyl chloride;β-Chloropropanoyl chloride;3-Chloropropionyl chloride;β-Chloropropionyl chloride;β-Chloropropionic acid chloride;ω-Chloropropanoyl chloride;ω-Chloropropionyl chloride;3-Chloropropionic acid chloride;NSC 84180;(Chloromethyl)acetyl chloride",
    "duplicated_cas_no": "118261-34-0",
    "SMILES": "C(C(Cl)=O)CCl",
    "meta_data": {
        "InChI": "InChI=1S/C3H4Cl2O/c4-2-1-3(5)6/h1-2H2",
        "InChIKey": null,
        "Canonical SMILES": "O=C(Cl)CCCl",
        "Molecular Formula": "C<sub>3</sub>H<sub>4</sub>Cl<sub>2</sub>O",
        "Molecular Mass": "126.97",
        "Boiling Point": "144 °C",
        "Density": "1.3192 g/cm³ @ Temp: 20 °C"
    }
}