{
    "cas_no": "6325-93-5",
    "key_name": "4-Nitrobenzenesulfonamide",
    "cn_name": "4-硝基苯磺酰胺;",
    "alternate_name": "Benzenesulfonamide, 4-nitro-;Benzenesulfonamide, <em>p</em>-nitro-;4-Nitrobenzenesulfonamide;<em>p</em>-Nitrobenzenesulfonamide;4-Nitrobenzolsulfonamide;<em>p</em>-Nitrophenylsulfonamide;Nosylamide;NSC 31148",
    "duplicated_cas_no": "",
    "SMILES": "S(N)(=O)(=O)C1=CC=C(N(=O)=O)C=C1",
    "meta_data": {
        "InChI": "InChI=1S/C6H6N2O4S/c7-13(11,12)6-3-1-5(2-4-6)8(9)10/h1-4H,(H2,7,11,12)",
        "InChIKey": null,
        "Canonical SMILES": "O=N(=O)C1=CC=C(C=C1)S(=O)(=O)N",
        "Molecular Formula": "C<sub>6</sub>H<sub>6</sub>N<sub>2</sub>O<sub>4</sub>S",
        "Molecular Mass": "202.19",
        "Melting Point": "178-180 °C"
    }
}