{
    "cas_no": "757-44-8",
    "key_name": "Diethyl <em>P</em>-[2-(triethoxysilyl)ethyl]phosphonate",
    "cn_name": "二乙基磷酰乙基三乙氧基硅烷;",
    "alternate_name": "Phosphonic acid, <em>P</em>-[2-(triethoxysilyl)ethyl]-, diethyl ester;Phosphonic acid, [2-(triethoxysilyl)ethyl]-, diethyl ester;Diethyl <em>P</em>-[2-(triethoxysilyl)ethyl]phosphonate;Diethyl [2-(triethoxysilyl)ethane]phosphonate;Diethoxyphosphorylethyltriethoxysilane;Diethyl [β-(triethoxysilyl)ethyl]phosphonate;(2-Diethylphosphonatoethyl)triethoxylsilane;Diethyl [2-(triethoxysilyl)ethyl]phosphonate;2-Diethoxyphosphorylethyl(triethoxy)silane",
    "duplicated_cas_no": "",
    "SMILES": "[Si](CCP(OCC)(OCC)=O)(OCC)(OCC)OCC",
    "meta_data": {
        "InChI": "InChI=1S/C12H29O6PSi/c1-6-14-19(13,15-7-2)11-12-20(16-8-3,17-9-4)18-10-5/h6-12H2,1-5H3",
        "InChIKey": null,
        "Canonical SMILES": "O=P(OCC)(OCC)CC[Si](OCC)(OCC)OCC",
        "Molecular Formula": "C<sub>12</sub>H<sub>29</sub>O<sub>6</sub>PSi",
        "Molecular Mass": "328.41",
        "Boiling Point": "141 °C @ Press: 2 Torr",
        "Density": "1.03125 g/cm³ @ Temp: 25 °C"
    }
}