{
    "cas_no": "104344-23-2",
    "key_name": "Bisoprolol fumarate",
    "cn_name": "富马酸比索洛尔;1-[4-[[2-(1-甲基乙氧基)乙氧基]甲基]-苯氧基]-3-[(1-甲基乙基)氨基]-2-丙醇富马酸盐;",
    "alternate_name": "2-Propanol, 1-[4-[[2-(1-methylethoxy)ethoxy]methyl]phenoxy]-3-[(1-methylethyl)amino]-, (2<em>E</em>)-2-butenedioate (2:1);2-Propanol, 1-[4-[[2-(1-methylethoxy)ethoxy]methyl]phenoxy]-3-[(1-methylethyl)amino]-, (±)-, (<em>E</em>)-2-butenedioate (2:1) (salt);2-Propanol, 1-[4-[[2-(1-methylethoxy)ethoxy]methyl]phenoxy]-3-[(1-methylethyl)amino]-, (<em>E</em>)-2-butenedioate (2:1) (salt);2-Propanol, 1-[4-[[2-(1-methylethoxy)ethoxy]methyl]phenoxy]-3-[(1-methylethyl)amino]-, (2<em>E</em>)-2-butenedioate (2:1) (salt);Bisoprolol fumarate;EMD 33512;Concor;Bisoprolol hemifumarate;Zebeta;Eurtadal;Monocor;Detensiel;Emvoncor;Soprol;Isoten;Emcor;Maintate;1-(4-((2-Isopropoxyethoxy)methyl)phenoxy)-3-(isopropylamino)propan-2-ol hemifumarate",
    "duplicated_cas_no": "112945-47-8",
    "SMILES": "O(CC(CNC(C)C)O)C1=CC=C(COCCOC(C)C)C=C1.C(=C/C(O)=O)\\C(O)=O",
    "meta_data": {
        "InChI": "InChI=1S/C18H31NO4.C4H4O4/c1-14(2)19-11-17(20)13-23-18-7-5-16(6-8-18)12-21-9-10-22-15(3)4;5-3(6)1-2-4(7)8/h5-8,14-15,17,19-20H,9-13H2,1-4H3;1-2H,(H,5,6)(H,7,8)/b;2-1+",
        "InChIKey": null,
        "Canonical SMILES": "O=C(O)C=CC(=O)O.OC(COC1=CC=C(C=C1)COCCOC(C)C)CNC(C)C",
        "Molecular Formula": "C<sub>18</sub>H<sub>31</sub>NO<sub>4</sub>.<sup>1</sup>/<sub>2</sub>C<sub>4</sub>H<sub>4</sub>O<sub>4</sub>",
        "Molecular Mass": "",
        "Melting Point": "100 °C"
    }
}