{
    "cas_no": "18291-80-0",
    "key_name": "Acetic acid, 2-bromo-, trimethylsilyl ester",
    "cn_name": "三甲硅基溴代乙酸酯;甲硅烷基溴代乙酸三甲酯;三甲硅基溴代乙酸酯, 98+%;三甲硅基溴代乙酸酯;溴乙酸三甲基硅;",
    "alternate_name": "Acetic acid, 2-bromo-, trimethylsilyl ester;Acetic acid, bromo-, trimethylsilyl ester;Silanol, trimethyl-, bromoacetate;Trimethylsilyl bromoacetate;Bromoacetic acid trimethylsilyl ester",
    "duplicated_cas_no": "",
    "SMILES": "O([Si](C)(C)C)C(CBr)=O",
    "meta_data": {
        "InChI": "InChI=1S/C5H11BrO2Si/c1-9(2,3)8-5(7)4-6/h4H2,1-3H3",
        "InChIKey": null,
        "Canonical SMILES": "O=C(O[Si](C)(C)C)CBr",
        "Molecular Formula": "C<sub>5</sub>H<sub>11</sub>BrO<sub>2</sub>Si",
        "Molecular Mass": "211.13",
        "Boiling Point": "57 °C @ Press: 9 Torr",
        "Density": "1.299 g/cm³"
    }
}