{
    "cas_no": "54660-00-3",
    "key_name": "Pigment Red 255",
    "cn_name": "2,5-二氢-3,6-二苯基吡咯并[3,4-C]吡咯-1,4-二酮;",
    "alternate_name": "Pyrrolo[3,4-<em>c</em>]pyrrole-1,4-dione, 2,5-dihydro-3,6-diphenyl-;2,5-Dihydro-3,6-diphenylpyrrolo[3,4-<em>c</em>]pyrrole-1,4-dione;3,6-Diphenyl-1,4-pyrrolo[3,4-<em>c</em>]pyrroledione;1,4-Diketo-3,6-diphenylpyrrolo[3,4-<em>c</em>]pyrrole;3,6-Diphenyl-1,4-diketopyrrolo[3,4-<em>c</em>]pyrrole;2,5-Dihydro-3,6-diphenyl-1,4-diketopyrrolo[3,4-<em>c</em>]pyrrole;3,6-Diphenyl-2,5-dihydropyrrolo[3,4-<em>c</em>]pyrrole-1,4-dione;1,4-Dioxo-3,6-diphenylpyrrolo[3,4-<em>c</em>]pyrrole;Irgazin DPP Scarlet EK;Irgazin DPP Red 5G;C.I. Pigment Red 255;C.I. 561050;Pigment Red 255;Cromophtal Coral Red C;1,4-Diketo-3,6-diphenyl-pyrrolo-[3,4-c]-pyrrole;Irgazin Scarlet EK;PR 255;Cromophtal DPP Coral Red C;C.I. PR 255;Irgazin Scarlet L 3550HD;Irgazin Red L 3551HD;1,4-Diphenyl-2,5-dihydropyrrolo[3,4-<em>c</em>]pyrrole-3,6-dione;3,6-Diphenylpyrrolo[3,4-<em>c</em>]pyrrole-1,4(2<em>H</em>,5<em>H</em>)-dione;DPP Scarlet 5G",
    "duplicated_cas_no": "120500-90-5;790240-37-8",
    "SMILES": "O=C1C=2C(=C(N1)C3=CC=CC=C3)C(=O)NC2C4=CC=CC=C4",
    "meta_data": {
        "InChI": "InChI=1S/C18H12N2O2/c21-17-13-14(16(20-17)12-9-5-2-6-10-12)18(22)19-15(13)11-7-3-1-4-8-11/h1-10H,(H,19,22)(H,20,21)",
        "InChIKey": null,
        "Canonical SMILES": "O=C1NC(C=2C=CC=CC2)=C3C(=O)NC(C=4C=CC=CC4)=C13",
        "Molecular Formula": "C<sub>18</sub>H<sub>12</sub>N<sub>2</sub>O<sub>2</sub>",
        "Molecular Mass": "288.30",
        "Melting Point": "372 °C"
    }
}