{
    "cas_no": "123343-16-8",
    "key_name": "Pyrithiobac sodium",
    "cn_name": "嘧草硫醚;嘧硫草醚;2-氯-6-(4,6-二甲氧基嘧啶-2-基硫)苯甲酸钠;",
    "alternate_name": "Benzoic acid, 2-chloro-6-[(4,6-dimethoxy-2-pyrimidinyl)thio]-, sodium salt (1:1);Benzoic acid, 2-chloro-6-[(4,6-dimethoxy-2-pyrimidinyl)thio]-, sodium salt;KIH 2031;DPX-PE 350;Pyrithiobac sodium salt;Staple;Staple 85SP;Pyrithiobac sodium;Staple LX",
    "duplicated_cas_no": "",
    "SMILES": "C(O)(=O)C1=C(SC=2N=C(OC)C=C(OC)N2)C=CC=C1Cl.[Na]",
    "meta_data": {
        "InChI": "InChI=1S/C13H11ClN2O4S.Na/c1-19-9-6-10(20-2)16-13(15-9)21-8-5-3-4-7(14)11(8)12(17)18;/h3-6H,1-2H3,(H,17,18);",
        "InChIKey": null,
        "Canonical SMILES": "[Na].O=C(O)C=1C(Cl)=CC=CC1SC=2N=C(OC)C=C(N2)OC",
        "Molecular Formula": "C<sub>13</sub>H<sub>11</sub>ClN<sub>2</sub>O<sub>4</sub>S.Na",
        "Molecular Mass": "",
        "Melting Point": "248 °C"
    }
}