{
    "cas_no": "33332-28-4",
    "key_name": "6-Chloro-2-pyrazinamine",
    "cn_name": "2-氨基-6-氯吡嗪;6-氯吡嗪-2-胺;",
    "alternate_name": "2-Pyrazinamine, 6-chloro-;Pyrazinamine, 6-chloro-;Pyrazine, 2-amino-6-chloro-;6-Chloro-2-pyrazinamine;2-Amino-6-chloropyrazine;6-Amino-2-chloropyrazine;2-Chloro-6-aminopyrazine;6-Chloro-2-pyrazinylamine;6-Chloro-2-aminopyrazine;2-Amino-6-chloro-1,4-pyrazine",
    "duplicated_cas_no": "",
    "SMILES": "ClC1=NC(N)=CN=C1",
    "meta_data": {
        "InChI": "InChI=1S/C4H4ClN3/c5-3-1-7-2-4(6)8-3/h1-2H,(H2,6,8)",
        "InChIKey": null,
        "Canonical SMILES": "ClC=1N=C(N)C=NC1",
        "Molecular Formula": "C<sub>4</sub>H<sub>4</sub>ClN<sub>3</sub>",
        "Molecular Mass": "129.55",
        "Melting Point": "152-154 °C"
    }
}