{
    "cas_no": "136117-73-2",
    "key_name": "Imidazo[1,2-<em>a</em>]pyridine-7-carboxaldehyde",
    "cn_name": null,
    "alternate_name": "Imidazo[1,2-<em>a</em>]pyridine-7-carboxaldehyde",
    "duplicated_cas_no": "",
    "SMILES": "C(=O)C1=CC=2N(C=C1)C=CN2",
    "meta_data": {
        "InChI": "InChI=1S/C8H6N2O/c11-6-7-1-3-10-4-2-9-8(10)5-7/h1-6H",
        "InChIKey": null,
        "Canonical SMILES": "O=CC=1C=CN2C=CN=C2C1",
        "Molecular Formula": "C<sub>8</sub>H<sub>6</sub>N<sub>2</sub>O",
        "Molecular Mass": "146.15",
        "Melting Point": "137-139 °C"
    }
}