{
    "cas_no": "70810-24-1",
    "key_name": "1,7-Dichloroisoquinoline",
    "cn_name": "1,7-二氯异喹啉;",
    "alternate_name": "Isoquinoline, 1,7-dichloro-;1,7-Dichloroisoquinoline",
    "duplicated_cas_no": "",
    "SMILES": "ClC=1C2=C(C=CC(Cl)=C2)C=CN1",
    "meta_data": {
        "InChI": "InChI=1S/C9H5Cl2N/c10-7-2-1-6-3-4-12-9(11)8(6)5-7/h1-5H",
        "InChIKey": null,
        "Canonical SMILES": "ClC=1C=CC=2C=CN=C(Cl)C2C1",
        "Molecular Formula": "C<sub>9</sub>H<sub>5</sub>Cl<sub>2</sub>N",
        "Molecular Mass": "198.05",
        "Melting Point": "138 °C"
    }
}