{
    "cas_no": "19962-37-9",
    "key_name": "<em>N</em><sup>2</sup>-Acetylguanine",
    "cn_name": "N-2-乙酰鸟嘌呤;N-(6-氧代-3,7-二氢嘌呤-2-基)乙酰胺;",
    "alternate_name": "Acetamide, <em>N</em>-(6,9-dihydro-6-oxo-1<em>H</em>-purin-2-yl)-;Acetamide, <em>N</em>-(1,6-dihydro-6-oxopurin-2-yl)-;Acetamide, <em>N</em>-(6,7-dihydro-6-oxo-1<em>H</em>-purin-2-yl)-;Guanine, <em>N</em>-acetyl-;<em>N</em>-(6,9-Dihydro-6-oxo-1<em>H</em>-purin-2-yl)acetamide;<em>N</em><sup>2</sup>-Acetylguanine;2-<em>N</em>-Acetylguanine;<em>N</em>-Acetylguanine;2-Acetylamino-6-hydroxypurine;2-Acetamido-6-hydroxypurine",
    "duplicated_cas_no": "1844866-92-7",
    "SMILES": "O=C1C2=C(NC(NC(C)=O)=N1)N=CN2",
    "meta_data": {
        "InChI": "InChI=1S/C7H7N5O2/c1-3(13)10-7-11-5-4(6(14)12-7)8-2-9-5/h2H,1H3,(H3,8,9,10,11,12,13,14)",
        "InChIKey": null,
        "Canonical SMILES": "O=C1N=C(NC(=O)C)NC=2N=CNC12",
        "Molecular Formula": "C<sub>7</sub>H<sub>7</sub>N<sub>5</sub>O<sub>2</sub>",
        "Molecular Mass": "193.16",
        "Melting Point": "324 °C"
    }
}