{
    "cas_no": "5756-24-1",
    "key_name": "Dimethyl tetrasulfide",
    "cn_name": null,
    "alternate_name": "Tetrasulfide, dimethyl;Methyl tetrasulfide;Dimethyl tetrasulfide;2,3,4,5-Tetrathiahexane;(Methyltetrasulfanyl)methane;1,4-Dimethyltetrasulfane",
    "duplicated_cas_no": "85931-55-1",
    "SMILES": "S(SSC)SC",
    "meta_data": {
        "InChI": "InChI=1S/C2H6S4/c1-3-5-6-4-2/h1-2H3",
        "InChIKey": null,
        "Canonical SMILES": "S(SSC)SC",
        "Molecular Formula": "C<sub>2</sub>H<sub>6</sub>S<sub>4</sub>",
        "Molecular Mass": "158.33",
        "Boiling Point": "70 °C @ Press: 0.07 Torr"
    }
}