{
    "cas_no": "710-11-2",
    "key_name": "α-Oxobenzenebutanoic acid",
    "cn_name": "2-氧代-4-苯基丁酸;",
    "alternate_name": "Benzenebutanoic acid, α-oxo-;Butyric acid, 2-oxo-4-phenyl-;α-Oxobenzenebutanoic acid;Benzylpyruvic acid;2-Oxo-4-phenylbutanoic acid;2-Oxo-4-phenylbutyric acid;4-Phenyl-2-oxobutyric acid;4-Phenyl-2-oxobutanoic acid",
    "duplicated_cas_no": "",
    "SMILES": "C(CC(C(O)=O)=O)C1=CC=CC=C1",
    "meta_data": {
        "InChI": "InChI=1S/C10H10O3/c11-9(10(12)13)7-6-8-4-2-1-3-5-8/h1-5H,6-7H2,(H,12,13)",
        "InChIKey": null,
        "Canonical SMILES": "O=C(O)C(=O)CCC=1C=CC=CC1",
        "Molecular Formula": "C<sub>10</sub>H<sub>10</sub>O<sub>3</sub>",
        "Molecular Mass": "178.18",
        "Melting Point": "45 °C"
    }
}