{
    "cas_no": "1345-25-1",
    "key_name": "Ferrous oxide",
    "cn_name": "氧化亚铁;",
    "alternate_name": "Iron oxide (FeO);C.I. 77489;Ferrous oxide;Iron monoxide;Iron monooxide;Iron(II) oxide;Iron oxide",
    "duplicated_cas_no": "",
    "SMILES": "[Fe]=O",
    "meta_data": {
        "InChI": "InChI=1S/Fe.O",
        "InChIKey": null,
        "Canonical SMILES": "O=[Fe]",
        "Molecular Formula": "FeO",
        "Molecular Mass": "",
        "Melting Point": "1360 °C",
        "Density": "5.7 g/cm³"
    }
}