{
    "cas_no": "1535-75-7",
    "key_name": "2-Trifluoromethoxyaniline",
    "cn_name": "邻氨基三氟甲氧基苯;邻三氟甲氧基苯胺;",
    "alternate_name": "Benzenamine, 2-(trifluoromethoxy)-;<em>o</em>-Anisidine, α,α,α-trifluoro-;2-(Trifluoromethoxy)benzenamine;<em>o</em>-(Trifluoromethoxy)aniline;2-Trifluoromethoxyaniline;2-Trifluoromethoxyphenylamine;<em>o</em>-(Trifluoromethoxy)phenylamine;2-(Trifluoromethyloxy)aniline",
    "duplicated_cas_no": "",
    "SMILES": "O(C(F)(F)F)C1=C(N)C=CC=C1",
    "meta_data": {
        "InChI": "InChI=1S/C7H6F3NO/c8-7(9,10)12-6-4-2-1-3-5(6)11/h1-4H,11H2",
        "InChIKey": null,
        "Canonical SMILES": "FC(F)(F)OC=1C=CC=CC1N",
        "Molecular Formula": "C<sub>7</sub>H<sub>6</sub>F<sub>3</sub>NO",
        "Molecular Mass": "177.12",
        "Boiling Point": "56 °C @ Press: 11 Torr"
    }
}