{
    "cas_no": "1461-97-8",
    "key_name": "<em>trans</em>-1,2-Cyclopentanedicarboxylic acid",
    "cn_name": "1,2-环戊烷二甲酸;",
    "alternate_name": "1,2-Cyclopentanedicarboxylic acid, (1<em>R</em>,2<em>R</em>)-<em>rel</em>-;1,2-Cyclopentanedicarboxylic acid, <em>trans</em>-;<em>rel</em>-(1<em>R</em>,2<em>R</em>)-1,2-Cyclopentanedicarboxylic acid;<em>trans</em>-1,2-Cyclopentanedicarboxylic acid;<em>trans</em>-1,2-Cyclopentanedioic acid",
    "duplicated_cas_no": "80656-14-0",
    "SMILES": "C(O)(=O)[C@H]1[C@H](C(O)=O)CCC1",
    "meta_data": {
        "InChI": "InChI=1/C7H10O4/c8-6(9)4-2-1-3-5(4)7(10)11/h4-5H,1-3H2,(H,8,9)(H,10,11)/t4-,5-/s2",
        "InChIKey": null,
        "Canonical SMILES": "O=C(O)C1CCCC1C(=O)O",
        "Molecular Formula": "C<sub>7</sub>H<sub>10</sub>O<sub>4</sub>",
        "Molecular Mass": "158.15",
        "Boiling Point": "46-49 °C @ Press: 110 Torr",
        "Melting Point": "160-161 °C"
    }
}