{
    "cas_no": "610-57-1",
    "key_name": "2,4-Dinitrobenzyl chloride",
    "cn_name": "2,4-二硝基苯甲酰氯;",
    "alternate_name": "Benzene, 1-(chloromethyl)-2,4-dinitro-;Toluene, α-chloro-2,4-dinitro-;1-(Chloromethyl)-2,4-dinitrobenzene;2,4-Dinitrobenzyl chloride;<em>o</em>,<em>p</em>-Dinitrobenzyl chloride",
    "duplicated_cas_no": "",
    "SMILES": "N(=O)(=O)C1=C(CCl)C=CC(N(=O)=O)=C1",
    "meta_data": {
        "InChI": "InChI=1S/C7H5ClN2O4/c8-4-5-1-2-6(9(11)12)3-7(5)10(13)14/h1-3H,4H2",
        "InChIKey": null,
        "Canonical SMILES": "O=N(=O)C1=CC=C(C(=C1)N(=O)=O)CCl",
        "Molecular Formula": "C<sub>7</sub>H<sub>5</sub>ClN<sub>2</sub>O<sub>4</sub>",
        "Molecular Mass": "216.58",
        "Melting Point": "97-98 °C"
    }
}