{
    "cas_no": "824958-12-5",
    "key_name": "1-Piperazinehexanamide, 4-[2-(methylthio)phenyl]-<em>N</em>-(1,2,3,4-tetrahydro-1-naphthalenyl)-, hydrochloride (1:1)",
    "cn_name": null,
    "alternate_name": "1-Piperazinehexanamide, 4-[2-(methylthio)phenyl]-<em>N</em>-(1,2,3,4-tetrahydro-1-naphthalenyl)-, hydrochloride (1:1);1-Piperazinehexanamide, 4-[2-(methylthio)phenyl]-<em>N</em>-(1,2,3,4-tetrahydro-1-naphthalenyl)-, monohydrochloride",
    "duplicated_cas_no": "",
    "SMILES": "N(C(CCCCCN1CCN(CC1)C2=C(SC)C=CC=C2)=O)C3C=4C(CCC3)=CC=CC4.Cl",
    "meta_data": {
        "InChI": "InChI=1S/C27H37N3OS.ClH/c1-32-26-15-7-6-14-25(26)30-20-18-29(19-21-30)17-8-2-3-16-27(31)28-24-13-9-11-22-10-4-5-12-23(22)24;/h4-7,10,12,14-15,24H,2-3,8-9,11,13,16-21H2,1H3,(H,28,31);1H",
        "InChIKey": null,
        "Canonical SMILES": "Cl.O=C(NC1C=2C=CC=CC2CCC1)CCCCCN3CCN(C=4C=CC=CC4SC)CC3",
        "Molecular Formula": "C<sub>27</sub>H<sub>37</sub>N<sub>3</sub>OS.ClH",
        "Molecular Mass": "",
        "Melting Point": "181-182 °C"
    }
}