{
    "cas_no": "1471-94-9",
    "key_name": "<em>N</em>,<em>N</em>′-1,2-Ethanediylbis[3-oxobutanamide]",
    "cn_name": null,
    "alternate_name": "Butanamide, <em>N</em>,<em>N</em>′-1,2-ethanediylbis[3-oxo-;Acetoacetamide, <em>N</em>,<em>N</em>′-ethylenebis-;<em>N</em>,<em>N</em>′-1,2-Ethanediylbis[3-oxobutanamide];Ethylenediamine-<em>N</em>,<em>N</em>′-bis(acetoacetamide);Diacetoacetylethylenediamine;<em>N</em>,<em>N</em>′-Bis(acetoacetyl)ethylenediamine;Ethylenediaminebisacetoacetamide;NSC 71996;3-Oxo-<em>N</em>-[2-(3-oxobutanamido)ethyl]butanamide;3-Oxo-<em>N</em>-[2-(3-oxobutanoylamino)ethyl]butanamide",
    "duplicated_cas_no": "",
    "SMILES": "C(C(NCCNC(CC(C)=O)=O)=O)C(C)=O",
    "meta_data": {
        "InChI": "InChI=1S/C10H16N2O4/c1-7(13)5-9(15)11-3-4-12-10(16)6-8(2)14/h3-6H2,1-2H3,(H,11,15)(H,12,16)",
        "InChIKey": null,
        "Canonical SMILES": "O=C(NCCNC(=O)CC(=O)C)CC(=O)C",
        "Molecular Formula": "C<sub>10</sub>H<sub>16</sub>N<sub>2</sub>O<sub>4</sub>",
        "Molecular Mass": "228.24",
        "Melting Point": "169-170 °C"
    }
}