{
    "cas_no": "709-63-7",
    "key_name": "4-(Trifluoromethyl)acetophenone",
    "cn_name": "4\"-三氟甲基苯乙酮;对三氟甲基苯乙酮;",
    "alternate_name": "Ethanone, 1-[4-(trifluoromethyl)phenyl]-;Acetophenone, 4′-(trifluoromethyl)-;1-[4-(Trifluoromethyl)phenyl]ethanone;4-(Trifluoromethyl)acetophenone;<em>p</em>-(Trifluoromethyl)acetophenone;4′-(Trifluoromethyl)acetophenone;(4-Trifluoromethylphenyl) methyl ketone;1-[4-(Trifluoromethyl)phenyl]-1-ethanone;NSC 88346;1-Acetyl-4-(trifluoromethyl)benzene;Methyl 4-trifluoromethylphenyl ketone;4-Acetylbenzotrifluoride",
    "duplicated_cas_no": "",
    "SMILES": "C(F)(F)(F)C1=CC=C(C(C)=O)C=C1",
    "meta_data": {
        "InChI": "InChI=1S/C9H7F3O/c1-6(13)7-2-4-8(5-3-7)9(10,11)12/h2-5H,1H3",
        "InChIKey": null,
        "Canonical SMILES": "O=C(C1=CC=C(C=C1)C(F)(F)F)C",
        "Molecular Formula": "C<sub>9</sub>H<sub>7</sub>F<sub>3</sub>O",
        "Molecular Mass": "188.15",
        "Boiling Point": "79.5 °C",
        "Melting Point": "31 °C"
    }
}