{
    "cas_no": "51200-87-4",
    "key_name": "4,4-Dimethyloxazolidine",
    "cn_name": "4,4-二甲基恶唑啉;",
    "alternate_name": "Oxazolidine, 4,4-dimethyl-;4,4-Dimethyloxazolidine;4,4-Dimethyl-1,3-oxazolidine;Oxazolidine A;Oxadine A;Zoldine ZA;Oxaban A;Nuosept 101;Nuospet 101;4,4-Dimethyl-1-oxa-3-azacyclopentane;Truptan OX-I;Nuosept 166;Mergal 186;Mergal 192",
    "duplicated_cas_no": "1200630-61-0",
    "SMILES": "CC1(C)COCN1",
    "meta_data": {
        "InChI": "InChI=1S/C5H11NO/c1-5(2)3-7-4-6-5/h6H,3-4H2,1-2H3",
        "InChIKey": null,
        "Canonical SMILES": "O1CNC(C)(C)C1",
        "Molecular Formula": "C<sub>5</sub>H<sub>11</sub>NO",
        "Molecular Mass": "101.15",
        "Boiling Point": "126-130 °C"
    }
}