{
    "cas_no": "73364-10-0",
    "key_name": "Bis(butylcyclopentadienyl)zirconium dichloride",
    "cn_name": null,
    "alternate_name": "Zirconium, bis[(1,2,3,4,5-η)-1-butyl-2,4-cyclopentadien-1-yl]dichloro-;1,3-Cyclopentadiene, 1-butyl-, zirconium complex;Bis[(1,2,3,4,5-η)-1-butyl-2,4-cyclopentadien-1-yl]dichlorozirconium;Bis(butylcyclopentadienyl)zirconium dichloride;Bis(butylcyclopentadienyl)dichlorozirconium;Bis(<em>n</em>-butylcyclopentadienyl)zirconium dichloride;1,1′-Dibutylzirconocene dichloride;Eurecen 5031;Bis(η<sup>5</sup>-butylcyclopentadienyl)dichlorozirconium;Eurocene 5031;Dibutylzirconocene dichloride;Dichlorobis(<em>n</em>-butylcyclopentadienyl)zirconium;Bis(butylcyclopentadienyl) zirconium (IV) dichloride;Bis(<em>n</em>-butylcyclopentadienyl)zirconium(IV) dichloride;H 27576",
    "duplicated_cas_no": "2373333-64-1",
    "SMILES": "[Cl-][Zr+4]12345678([Cl-])([C-]9(CCCC)[CH]1=[CH]2[CH]3=[CH]49)[C-]%10(CCCC)[CH]5=[CH]6[CH]7=[CH]8%10",
    "meta_data": {
        "InChI": "InChI=1S/2C9H13.2ClH.Zr/c2*1-2-3-6-9-7-4-5-8-9;;;/h2*4-5,7-8H,2-3,6H2,1H3;2*1H;/q2*-1;;;+4/p-2",
        "InChIKey": null,
        "Canonical SMILES": "[Cl-][Zr+4]12345678([Cl-])([CH]=9[CH]4=[CH]3[C-]2(CCCC)[CH]91)[CH]=%10[CH]8=[CH]7[C-]6(CCCC)[CH]%105",
        "Molecular Formula": "C<sub>18</sub>H<sub>26</sub>Cl<sub>2</sub>Zr",
        "Molecular Mass": "",
        "Melting Point": "98-99 °C"
    }
}