{
    "cas_no": "116-11-0",
    "key_name": "2-Methoxypropene",
    "cn_name": "2-甲氧基丙烯;",
    "alternate_name": "1-Propene, 2-methoxy-;Ether, isopropenyl methyl;2-Methoxy-1-propene;Isopropenyl methyl ether;2-Methoxypropene;Methyl isopropenyl ether;2-Methoxyprop-1-ene;Methyl 1-methylvinyl ether",
    "duplicated_cas_no": "172702-76-0",
    "SMILES": "C(OC)(C)=C",
    "meta_data": {
        "InChI": "InChI=1S/C4H8O/c1-4(2)5-3/h1H2,2-3H3",
        "InChIKey": null,
        "Canonical SMILES": "O(C(=C)C)C",
        "Molecular Formula": "C<sub>4</sub>H<sub>8</sub>O",
        "Molecular Mass": "72.11",
        "Boiling Point": "35 °C",
        "Melting Point": "&lt;25 °C",
        "Density": "0.7372 g/cm³ @ Temp: 20 °C"
    }
}