{
    "cas_no": "1489-69-6",
    "key_name": "Cyclopropanecarboxaldehyde",
    "cn_name": "环丙甲醛;",
    "alternate_name": "Cyclopropanecarboxaldehyde;Formylcyclopropane;Cyclopropylcarboxaldehyde;1-(Formyl)cyclopropane;2-Cyclopropanecarboxaldehyde;Cyclopropanecarbaldehyde",
    "duplicated_cas_no": "",
    "SMILES": "C(=O)C1CC1",
    "meta_data": {
        "InChI": "InChI=1S/C4H6O/c5-3-4-1-2-4/h3-4H,1-2H2",
        "InChIKey": null,
        "Canonical SMILES": "O=CC1CC1",
        "Molecular Formula": "C<sub>4</sub>H<sub>6</sub>O",
        "Molecular Mass": "70.09",
        "Boiling Point": "98-101 °C"
    }
}