{
    "cas_no": "141-23-1",
    "key_name": "Methyl 12-hydroxystearate",
    "cn_name": "12-羟基十八烷酸甲酯;",
    "alternate_name": "Octadecanoic acid, 12-hydroxy-, methyl ester;Methyl 12-hydroxystearate;Kemester 1288;Methyl 12-hydroxyoctadecanoate;12-Hydroxyoctadecanoic acid methyl ester;Methyl <span class=\"text-smallcaps\">DL</span>-12-hydroxyoctadecanoate;NSC 2392;CW-FA Methyl Ester;Itohwax E 210;Paracin 1;Cenwax ME",
    "duplicated_cas_no": "82008-61-5;1037310-42-1",
    "SMILES": "C(CCCCCCCCCCC(OC)=O)(CCCCCC)O",
    "meta_data": {
        "InChI": "InChI=1S/C19H38O3/c1-3-4-5-12-15-18(20)16-13-10-8-6-7-9-11-14-17-19(21)22-2/h18,20H,3-17H2,1-2H3",
        "InChIKey": null,
        "Canonical SMILES": "O=C(OC)CCCCCCCCCCC(O)CCCCCC",
        "Molecular Formula": "C<sub>19</sub>H<sub>38</sub>O<sub>3</sub>",
        "Molecular Mass": "314.50",
        "Melting Point": "48 °C"
    }
}