{
    "cas_no": "1943-84-6",
    "key_name": "Hexadecyl isocyanate",
    "cn_name": "1-异氰酸十六酯;",
    "alternate_name": "Hexadecane, 1-isocyanato-;Isocyanic acid, hexadecyl ester;1-Hexadecanol, isocyanate;1-Isocyanatohexadecane;Hexadecyl isocyanate",
    "duplicated_cas_no": "",
    "SMILES": "C(CCCCCCCCC)CCCCCCN=C=O",
    "meta_data": {
        "InChI": "InChI=1S/C17H33NO/c1-2-3-4-5-6-7-8-9-10-11-12-13-14-15-16-18-17-19/h2-16H2,1H3",
        "InChIKey": null,
        "Canonical SMILES": "O=C=NCCCCCCCCCCCCCCCC",
        "Molecular Formula": "C<sub>17</sub>H<sub>33</sub>NO",
        "Molecular Mass": "267.45",
        "Boiling Point": "200-207 °C @ Press: 12 Torr"
    }
}