{
    "cas_no": "2235-15-6",
    "key_name": "1(2<em>H</em>)-Acenaphthylenone",
    "cn_name": "1-苊酮;",
    "alternate_name": "1(2<em>H</em>)-Acenaphthylenone;1-Acenaphthenone;2-Acenaphthone;Acenaphthenone;Acenaphthylen-1-one;NSC 18756;NSC 22341;1-Acenaphthone;1,2-Dihydroacenaphthylen-1-one;2<em>H</em>-Acenaphthylen-1-one",
    "duplicated_cas_no": "",
    "SMILES": "O=C1C=2C3=C(C1)C=CC=C3C=CC2",
    "meta_data": {
        "InChI": "InChI=1S/C12H8O/c13-11-7-9-5-1-3-8-4-2-6-10(11)12(8)9/h1-6H,7H2",
        "InChIKey": null,
        "Canonical SMILES": "O=C1C=2C=CC=C3C=CC=C(C32)C1",
        "Molecular Formula": "C<sub>12</sub>H<sub>8</sub>O",
        "Molecular Mass": "168.19",
        "Melting Point": "121-123 °C"
    }
}