{
    "cas_no": "1190-16-5",
    "key_name": "(3-Cyanopropyl)methyldichlorosilane",
    "cn_name": "(3-氰基丙基)甲基氯代硅烷;",
    "alternate_name": "Butanenitrile, 4-(dichloromethylsilyl)-;Butyronitrile, 4-(dichloromethylsilyl)-;4-(Dichloromethylsilyl)butanenitrile;(3-Cyanopropyl)dichloromethylsilane;(γ-Cyanopropyl)methyldichlorosilane;Dichloro(3-cyanopropyl)methylsilane;4-(Dichloromethylsilyl)butyronitrile;(3-Cyanopropyl)methyldichlorosilane",
    "duplicated_cas_no": "",
    "SMILES": "C([Si](C)(Cl)Cl)CCC#N",
    "meta_data": {
        "InChI": "InChI=1S/C5H9Cl2NSi/c1-9(6,7)5-3-2-4-8/h2-3,5H2,1H3",
        "InChIKey": null,
        "Canonical SMILES": "N#CCCC[Si](Cl)(Cl)C",
        "Molecular Formula": "C<sub>5</sub>H<sub>9</sub>Cl<sub>2</sub>NSi",
        "Molecular Mass": "182.12",
        "Boiling Point": "79-82 °C @ Press: 1 Torr",
        "Density": "1.145 g/cm³ @ Temp: 25 °C"
    }
}