{
    "cas_no": "516-06-3",
    "key_name": "<span class=\"text-smallcaps\">DL</span>-Valine",
    "cn_name": "DL-缬氨酸;DL-2-氨基-3-甲基丁酸;",
    "alternate_name": "Valine;Valine, <span class=\"text-smallcaps\">DL</span>-;<span class=\"text-smallcaps\">DL</span>-Valine;<span class=\"text-smallcaps\">DL</span>-α-Aminoisovaleric acid;(±)-Valine;<span class=\"text-smallcaps\">DL</span>-Val;(<em>RS</em>)-Valine;NSC 9755;(±)-2-Amino-3-methylbutyric acid",
    "duplicated_cas_no": "186023-77-8;1105707-15-0",
    "SMILES": "C(C(C)C)(C(O)=O)N",
    "meta_data": {
        "InChI": "InChI=1S/C5H11NO2/c1-3(2)4(6)5(7)8/h3-4H,6H2,1-2H3,(H,7,8)",
        "InChIKey": null,
        "Canonical SMILES": "O=C(O)C(N)C(C)C",
        "Molecular Formula": "C<sub>5</sub>H<sub>11</sub>NO<sub>2</sub>",
        "Molecular Mass": "117.15",
        "Melting Point": "298 °C (decomp)"
    }
}