{
    "cas_no": "610-94-6",
    "key_name": "Methyl 2-bromobenzoate",
    "cn_name": "邻溴苯甲酸甲酯;",
    "alternate_name": "Benzoic acid, 2-bromo-, methyl ester;Benzoic acid, <em>o</em>-bromo-, methyl ester;Methyl <em>o</em>-bromobenzoate;Methyl 2-bromobenzoate;2-Bromobenzoic acid methyl ester;NSC 7318;4-Bromo-3-benzoic acid methyl ester",
    "duplicated_cas_no": "",
    "SMILES": "C(OC)(=O)C1=C(Br)C=CC=C1",
    "meta_data": {
        "InChI": "InChI=1S/C8H7BrO2/c1-11-8(10)6-4-2-3-5-7(6)9/h2-5H,1H3",
        "InChIKey": null,
        "Canonical SMILES": "O=C(OC)C=1C=CC=CC1Br",
        "Molecular Formula": "C<sub>8</sub>H<sub>7</sub>BrO<sub>2</sub>",
        "Molecular Mass": "215.04",
        "Boiling Point": "252 °C"
    }
}