{
    "cas_no": "15268-07-2",
    "key_name": "3,3′-Diaminodiphenyl ether",
    "cn_name": null,
    "alternate_name": "Benzenamine, 3,3′-oxybis-;Aniline, 3,3′-oxydi-;3,3′-Oxybis[benzenamine];3,3′-Oxydianiline;Bis(3-Aminophenyl) ether;3-(3-Aminophenoxy)aniline;3,3′-Diaminodiphenyl ether;3,3′-Oxydiphenylamine;3-(3-Aminophenoxy)benzenamine",
    "duplicated_cas_no": "",
    "SMILES": "O(C1=CC(N)=CC=C1)C2=CC(N)=CC=C2",
    "meta_data": {
        "InChI": "InChI=1S/C12H12N2O/c13-9-3-1-5-11(7-9)15-12-6-2-4-10(14)8-12/h1-8H,13-14H2",
        "InChIKey": null,
        "Canonical SMILES": "O(C1=CC=CC(N)=C1)C2=CC=CC(N)=C2",
        "Molecular Formula": "C<sub>12</sub>H<sub>12</sub>N<sub>2</sub>O",
        "Molecular Mass": "200.24",
        "Boiling Point": "190-191 °C @ Press: 14 Torr",
        "Melting Point": "37 °C"
    }
}