{
    "cas_no": "66-99-9",
    "key_name": "2-Naphthalenecarboxaldehyde",
    "cn_name": "2-萘甲醛;",
    "alternate_name": "2-Naphthalenecarboxaldehyde;2-Naphthaldehyde;β-Naphthaldehyde;β-Naphthylcarboxaldehyde;2-Formylnaphthalene;β-Formylnaphthalene;2-Naphthylcarboxaldehyde;2-Naphthylaldehyde;β-Naphthoaldehyde;NCR 1 (aldehyde);NCR 1;Naphthalene-2-carbaldehyde;2-Naphthalenealdehyde;NSC 8557;2-Napthaldehyde",
    "duplicated_cas_no": "",
    "SMILES": "C(=O)C1=CC2=C(C=C1)C=CC=C2",
    "meta_data": {
        "InChI": "InChI=1S/C11H8O/c12-8-9-5-6-10-3-1-2-4-11(10)7-9/h1-8H",
        "InChIKey": null,
        "Canonical SMILES": "O=CC=1C=CC=2C=CC=CC2C1",
        "Molecular Formula": "C<sub>11</sub>H<sub>8</sub>O",
        "Molecular Mass": "156.18",
        "Boiling Point": "95-96 °C @ Press: 3 Torr",
        "Melting Point": "62 °C"
    }
}