{
    "cas_no": "108-83-8",
    "key_name": "Isobutyl ketone",
    "cn_name": "二异丁基酮;",
    "alternate_name": "4-Heptanone, 2,6-dimethyl-;2,6-Dimethyl-4-heptanone;DIBK;Diisobutyl ketone;<em>s</em>-Diisopropylacetone;Isobutyl ketone;Isovalerone;DIBC;NSC 15136;NSC 406913",
    "duplicated_cas_no": "958635-42-2",
    "SMILES": "C(C(CC(C)C)=O)C(C)C",
    "meta_data": {
        "InChI": "InChI=1S/C9H18O/c1-7(2)5-9(10)6-8(3)4/h7-8H,5-6H2,1-4H3",
        "InChIKey": null,
        "Canonical SMILES": "O=C(CC(C)C)CC(C)C",
        "Molecular Formula": "C<sub>9</sub>H<sub>18</sub>O",
        "Molecular Mass": "142.24",
        "Boiling Point": "168 °C",
        "Melting Point": "-41.5 °C",
        "Density": "0.8062 g/cm³ @ Temp: 20 °C"
    }
}