{
    "cas_no": "2613-27-6",
    "key_name": "(<em>OC</em>-6-21)-Pentafluoro(4-nitrophenyl)sulfur",
    "cn_name": "4-硝基苯五氟化硫;五氟化(4-硝基苯基)硫;4-硝基苯五氟化硫;4-硝基苯硫基邻苯二甲酰氟化物;4-硝基苯基五氟化;",
    "alternate_name": "Sulfur, pentafluoro(4-nitrophenyl)-, (<em>OC</em>-6-21)-;(<em>p</em>-Nitrophenyl)sulfur pentafluoride;Sulfur, pentafluoro(<em>p</em>-nitrophenyl)-;(<em>OC</em>-6-21)-Pentafluoro(4-nitrophenyl)sulfur;4-Nitrophenylsulfur pentafluoride;4-Nitrobenzenesulfur pentafluoride;Pentafluoro(4-nitrophenyl)sulfur;4-Nitro(pentafluorosulfanyl)benzene;4-(Pentafluorosulfanyl)-1-nitrobenzene;1-Nitro-4-(pentafluorosulfanyl)benzene",
    "duplicated_cas_no": "",
    "SMILES": "S(F)(F)(F)(F)(F)C1=CC=C(N(=O)=O)C=C1",
    "meta_data": {
        "InChI": "InChI=1S/C6H4F5NO2S/c7-15(8,9,10,11)6-3-1-5(2-4-6)12(13)14/h1-4H",
        "InChIKey": null,
        "Canonical SMILES": "O=N(=O)C1=CC=C(C=C1)S(F)(F)(F)(F)F",
        "Molecular Formula": "C<sub>6</sub>H<sub>4</sub>F<sub>5</sub>NO<sub>2</sub>S",
        "Molecular Mass": "249.16",
        "Boiling Point": "89.2 °C @ Press: 3.8 Torr",
        "Melting Point": "37-38 °C"
    }
}