{
    "cas_no": "67622-86-0",
    "key_name": "2-Methyl-1-(methylamino)-2-propanol",
    "cn_name": null,
    "alternate_name": "2-Propanol, 2-methyl-1-(methylamino)-;2-Methyl-1-(methylamino)-2-propanol;2-Methyl-1-(methylamino)propan-2-ol",
    "duplicated_cas_no": "",
    "SMILES": "C(C(C)(C)O)NC",
    "meta_data": {
        "InChI": "InChI=1S/C5H13NO/c1-5(2,7)4-6-3/h6-7H,4H2,1-3H3",
        "InChIKey": null,
        "Canonical SMILES": "OC(C)(C)CNC",
        "Molecular Formula": "C<sub>5</sub>H<sub>13</sub>NO",
        "Molecular Mass": "103.16",
        "Boiling Point": "142-143 °C",
        "Density": "0.8875 g/cm³ @ Temp: 23 °C"
    }
}