{
    "cas_no": "4741-99-5",
    "key_name": "<em>N</em>,<em>N</em>′-Bis(2-aminoethyl)-1,3-propanediamine",
    "cn_name": "N,N\"-二(2-氨乙基)-1,3-丙二胺;",
    "alternate_name": "1,3-Propanediamine, <em>N</em><sup>1</sup>,<em>N</em><sup>3</sup>-bis(2-aminoethyl)-;1,3-Propanediamine, <em>N</em>,<em>N</em>′-bis(2-aminoethyl)-;<em>N</em><sup>1</sup>,<em>N</em><sup>3</sup>-Bis(2-aminoethyl)-1,3-propanediamine;3,7-Diazanonane-1,9-diamine;Ethylene(trimethylene)ethylenetetramine;<em>N</em>,<em>N</em>′-Bis(2-aminoethyl)propane-1,3-diamine;1,9-Diamino-3,7-diazanonane;1,4,8,11-Tetraazaundecane;3,7-Diaza-1,9-diaminononane;1,3-Bis[(2′-aminoethyl)amino]propane;2,3,2-Tet;NSC 19173;<em>N</em>,<em>N</em>′-Bis(2-aminoethyl)-1,3-propanediamine;1,3-Bis(2-aminoethylamino)propane;Triethylene 2,3,2 tetramine;2,3,2-Tetramine",
    "duplicated_cas_no": "96760-19-9",
    "SMILES": "C(CNCCN)CNCCN",
    "meta_data": {
        "InChI": "InChI=1S/C7H20N4/c8-2-6-10-4-1-5-11-7-3-9/h10-11H,1-9H2",
        "InChIKey": null,
        "Canonical SMILES": "NCCNCCCNCCN",
        "Molecular Formula": "C<sub>7</sub>H<sub>20</sub>N<sub>4</sub>",
        "Molecular Mass": "160.26",
        "Boiling Point": "185-186 °C @ Press: 35 Torr",
        "Density": "0.9501 g/cm³ @ Temp: 20 °C"
    }
}