{
    "cas_no": "28286-88-6",
    "key_name": "4-Dicyanomethylene-2,6-dimethyl-4<em>H</em>-pyran",
    "cn_name": "2,6-二甲基-4-吡喃亚基丙二腈;",
    "alternate_name": "Propanedinitrile, 2-(2,6-dimethyl-4<em>H</em>-pyran-4-ylidene)-;4<em>H</em>-Pyran-Δ<sup>4,α</sup>-malononitrile, 2,6-dimethyl-;Propanedinitrile, (2,6-dimethyl-4<em>H</em>-pyran-4-ylidene)-;2-(2,6-Dimethyl-4<em>H</em>-pyran-4-ylidene)propanedinitrile;2,6-Dimethyl-4<em>H</em>-pyran-Δ<sup>4,α</sup>-malononitrile;4-Dicyanomethylene-2,6-dimethyl-4<em>H</em>-pyran;2,6-Dimethyl-4-dicyanomethylene-4<em>H</em>-pyran;(2,6-Dimethyl-4<em>H</em>-pyran-4-ylidene)propanedinitrile;(2,6-Dimethyl-pyran-4-ylidene)propanedinitrile;2-(2,6-Dimethyl-4<em>H</em>-pyran-4-ylidene)malononitrile;(2,6-Dimethyl-4<em>H</em>-pyran-4-ylidene)malononitrile;2-(2,6-Dimethylpyran-4-ylidene)propanedinitrile;2-(2,6-Dimethyl-pyran-4-ylidene)-malononitrile",
    "duplicated_cas_no": "",
    "SMILES": "C(C#N)(C#N)=C1C=C(C)OC(C)=C1",
    "meta_data": {
        "InChI": "InChI=1S/C10H8N2O/c1-7-3-9(4-8(2)13-7)10(5-11)6-12/h3-4H,1-2H3",
        "InChIKey": null,
        "Canonical SMILES": "N#CC(C#N)=C1C=C(OC(=C1)C)C",
        "Molecular Formula": "C<sub>10</sub>H<sub>8</sub>N<sub>2</sub>O",
        "Molecular Mass": "172.18",
        "Melting Point": "198-199 °C"
    }
}