{
    "cas_no": "96-98-0",
    "key_name": "4-Methyl-3-nitrobenzoic acid",
    "cn_name": "4-甲基-3-硝基苯甲酸;3-硝基-4-甲基苯甲酸;",
    "alternate_name": "Benzoic acid, 4-methyl-3-nitro-;<em>p</em>-Toluic acid, 3-nitro-;4-Methyl-3-nitrobenzoic acid;3-Nitro-4-methylbenzoic acid;3-Nitro-<em>p</em>-toluic acid;NSC 50659",
    "duplicated_cas_no": "",
    "SMILES": "N(=O)(=O)C1=CC(C(O)=O)=CC=C1C",
    "meta_data": {
        "InChI": "InChI=1S/C8H7NO4/c1-5-2-3-6(8(10)11)4-7(5)9(12)13/h2-4H,1H3,(H,10,11)",
        "InChIKey": null,
        "Canonical SMILES": "O=C(O)C1=CC=C(C(=C1)N(=O)=O)C",
        "Molecular Formula": "C<sub>8</sub>H<sub>7</sub>NO<sub>4</sub>",
        "Molecular Mass": "181.15",
        "Melting Point": "164-165 °C",
        "Density": "1.479 g/cm³ (solid)"
    }
}