{
    "cas_no": "2459-25-8",
    "key_name": "Methyl 2-naphthoate",
    "cn_name": "2-萘甲酸甲酯;2-甲基萘甲酸甲酯;",
    "alternate_name": "2-Naphthalenecarboxylic acid, methyl ester;2-Naphthoic acid, methyl ester;Methyl 2-naphthoate;Methyl 2-naphthalenecarboxylate;2-Carbomethoxynaphthalene;NSC 17493;Methyl 2-naphthylcarboxylate",
    "duplicated_cas_no": "",
    "SMILES": "C(OC)(=O)C1=CC2=C(C=C1)C=CC=C2",
    "meta_data": {
        "InChI": "InChI=1S/C12H10O2/c1-14-12(13)11-7-6-9-4-2-3-5-10(9)8-11/h2-8H,1H3",
        "InChIKey": null,
        "Canonical SMILES": "O=C(OC)C=1C=CC=2C=CC=CC2C1",
        "Molecular Formula": "C<sub>12</sub>H<sub>10</sub>O<sub>2</sub>",
        "Molecular Mass": "186.21",
        "Boiling Point": "290 °C",
        "Melting Point": "77 °C"
    }
}