{
    "cas_no": "84-72-0",
    "key_name": "Ethyl phthalyl ethyl glycolate",
    "cn_name": "邻苯二甲酸单乙二醇酯;",
    "alternate_name": "1,2-Benzenedicarboxylic acid, 1-(2-ethoxy-2-oxoethyl) 2-ethyl ester;Phthalic acid, ethyl ester, ester with ethyl glycolate;1,2-Benzenedicarboxylic acid, 2-ethoxy-2-oxoethyl ethyl ester;Glycolic acid, ethyl ester, ethyl phthalate;Diethyl <em>o</em>-carboxybenzoyloxyacetate;Santicizer E-15;Ethyl phthalyl ethyl glycolate;Carbethoxymethyl ethyl phthalate;Ethyl carbethoxymethyl phthalate;Ethoxycarbonylmethyl ethyl phthalate;Ethyl ethoxycarbonylmethyl phthalate;Ethyl 2-ethoxy-2-oxoethyl phthalate;2-<em>O</em>-(2-Ethoxy-2-oxoethyl) 1-<em>O</em>-ethyl benzene-1,2-dicarboxylate",
    "duplicated_cas_no": "80264-49-9",
    "SMILES": "C(OCC(OCC)=O)(=O)C1=C(C(OCC)=O)C=CC=C1",
    "meta_data": {
        "InChI": "InChI=1S/C14H16O6/c1-3-18-12(15)9-20-14(17)11-8-6-5-7-10(11)13(16)19-4-2/h5-8H,3-4,9H2,1-2H3",
        "InChIKey": null,
        "Canonical SMILES": "O=C(OCC(=O)OCC)C=1C=CC=CC1C(=O)OCC",
        "Molecular Formula": "C<sub>14</sub>H<sub>16</sub>O<sub>6</sub>",
        "Molecular Mass": "280.27",
        "Boiling Point": "160-170 °C @ Press: 0.1 Torr"
    }
}