{
    "cas_no": "5851-46-7",
    "key_name": "2-Pentyl-1<em>H</em>-benzimidazole",
    "cn_name": null,
    "alternate_name": "1<em>H</em>-Benzimidazole, 2-pentyl-;Benzimidazole, 2-pentyl-;2-Pentyl-1<em>H</em>-benzimidazole;2-Pentylbenzimidazole;2-Amylbenzimidazole;2-Pentyl-1<em>H</em>-benzo[<em>d</em>]imidazole;2-Pentyl-1<em>H</em>-1,3-benzodiazole",
    "duplicated_cas_no": "",
    "SMILES": "C(CCCC)C=1NC=2C(N1)=CC=CC2",
    "meta_data": {
        "InChI": "InChI=1S/C12H16N2/c1-2-3-4-9-12-13-10-7-5-6-8-11(10)14-12/h5-8H,2-4,9H2,1H3,(H,13,14)",
        "InChIKey": null,
        "Canonical SMILES": "N=1C=2C=CC=CC2NC1CCCCC",
        "Molecular Formula": "C<sub>12</sub>H<sub>16</sub>N<sub>2</sub>",
        "Molecular Mass": "188.27",
        "Boiling Point": "250 °C",
        "Melting Point": "155-156 °C"
    }
}