{
    "cas_no": "968-21-8",
    "key_name": "Leucyltyrosine",
    "cn_name": "L-亮氨酰-L-酪氨酸;",
    "alternate_name": "<span class=\"text-smallcaps\">L</smallcap>-Tyrosine, <smallcap>L</span>-leucyl-;Tyrosine, <em>N</em>-<span class=\"text-smallcaps\">L</smallcap>-leucyl-, <smallcap>L</span>-;<span class=\"text-smallcaps\">L</smallcap>-Tyrosine, <em>N</em>-<smallcap>L</span>-leucyl-;<span class=\"text-smallcaps\">L</smallcap>-Leucyl-<smallcap>L</span>-tyrosine;Leucyltyrosine;<em>N</em>-<span class=\"text-smallcaps\">L</smallcap>-Leucyl-<smallcap>L</span>-tyrosine;81: PN: US20070066537 PAGE: 17 claimed protein;26: PN: US20090239809 SEQID: 26 claimed protein;75: PN: EP2161028 PAGE: 10 claimed protein;3501: PN: WO2014063098 TABLE: 36 claimed protein;76: PN: WO2012112690 SEQID: 76 claimed protein;3462: PN: US20130123467 SEQID: 5050 claimed protein;3: PN: KR20130113996 SEQID: 3 claimed protein;1: PN: JP2014003971 PAGE: 23 claimed protein;3: PN: WO2014097648 SEQID: 6 claimed protein;4: PN: WO2014145242 PAGE: 31 claimed sequence;10: PN: CN104593319 PAGE: 2 claimed sequence;3: PN: WO2015170480 SEQID: 6 claimed protein;12: PN: WO2017159699 SEQID: 36 claimed protein;16: PN: WO2019059411 SEQID: 36 claimed protein;47: PN: WO2021211467 SEQID: 200 claimed sequence;23: PN: WO2022236049 SEQID: 23 claimed protein",
    "duplicated_cas_no": "3922-68-7",
    "SMILES": "C([C@H](NC([C@H](CC(C)C)N)=O)C(O)=O)C1=CC=C(O)C=C1",
    "meta_data": {
        "InChI": "InChI=1S/C15H22N2O4/c1-9(2)7-12(16)14(19)17-13(15(20)21)8-10-3-5-11(18)6-4-10/h3-6,9,12-13,18H,7-8,16H2,1-2H3,(H,17,19)(H,20,21)/t12-,13-/m0/s1",
        "InChIKey": null,
        "Canonical SMILES": "O=C(O)C(NC(=O)C(N)CC(C)C)CC1=CC=C(O)C=C1",
        "Molecular Formula": "C<sub>15</sub>H<sub>22</sub>N<sub>2</sub>O<sub>4</sub>",
        "Molecular Mass": "294.35",
        "Melting Point": "268.7-269.7 °C"
    }
}