{
    "cas_no": "3401-47-6",
    "key_name": "1-Bromo-2-methoxynaphthalene",
    "cn_name": "1-溴-2-甲氧基萘;1-溴-2-甲氧基萘酚;",
    "alternate_name": "Naphthalene, 1-bromo-2-methoxy-;1-Bromo-2-methoxynaphthalene;1-Bromo-2-naphthyl methyl ether;NSC 110660;2-Methoxy-1-bromonaphthalene",
    "duplicated_cas_no": "",
    "SMILES": "BrC=1C2=C(C=CC1OC)C=CC=C2",
    "meta_data": {
        "InChI": "InChI=1S/C11H9BrO/c1-13-10-7-6-8-4-2-3-5-9(8)11(10)12/h2-7H,1H3",
        "InChIKey": null,
        "Canonical SMILES": "BrC1=C(OC)C=CC=2C=CC=CC21",
        "Molecular Formula": "C<sub>11</sub>H<sub>9</sub>BrO",
        "Molecular Mass": "237.09",
        "Boiling Point": "190-192 °C @ Press: 22 Torr",
        "Melting Point": "85 °C"
    }
}