{
    "cas_no": "93-65-2",
    "key_name": "Mecoprop",
    "cn_name": "2-(4-氯-2-甲基苯氧基)丙酸;",
    "alternate_name": "Propanoic acid, 2-(4-chloro-2-methylphenoxy)-;Propionic acid, 2-[(4-chloro-<em>o</em>-tolyl)oxy]-;2-(4-Chloro-2-methylphenoxy)propanoic acid;α-(2-Methyl-4-chlorophenoxy)propionic acid;2-(2-Methyl-4-chlorophenoxy)propionic acid;2-(4-Chloro-2-methylphenoxy)propionic acid;2-(<em>p</em>-Chloro-<em>o</em>-tolyloxy)propionic acid;2-(2-Methyl-4-chlorophenoxy)propanoic acid;2M4KhP;Anicon B;2-(4-Chloro-<em>o</em>-tolyloxy)propionic acid;(±)-2-(4-Chloro-2-methylphenoxy)propionic acid;Mecoprop;Isocarnox;MCPP;CMPP;Mechlorprop;Rankotex;Compitox;Anicon P;Celatox CMPP;Okultin MP;(±)-2-(4-Chloro-2-methylphenoxy)propanoic acid;SYS 67 Mecmin;U 46 KV Fluid;Morogal;(±)-Mecoprop;NSC 60282;MCPP (herbicide)",
    "duplicated_cas_no": "7085-19-0",
    "SMILES": "O(C(C(O)=O)C)C1=C(C)C=C(Cl)C=C1",
    "meta_data": {
        "InChI": "InChI=1S/C10H11ClO3/c1-6-5-8(11)3-4-9(6)14-7(2)10(12)13/h3-5,7H,1-2H3,(H,12,13)",
        "InChIKey": null,
        "Canonical SMILES": "O=C(O)C(OC1=CC=C(Cl)C=C1C)C",
        "Molecular Formula": "C<sub>10</sub>H<sub>11</sub>ClO<sub>3</sub>",
        "Molecular Mass": "214.65",
        "Boiling Point": "298 °C",
        "Melting Point": "94-95 °C"
    }
}