{
    "cas_no": "4940-39-0",
    "key_name": "4-Oxo-4<em>H</em>-1-benzopyran-2-carboxylic acid",
    "cn_name": "4-苯并吡喃酮-2-羧酸;色酮-2-甲酸;",
    "alternate_name": "4<em>H</em>-1-Benzopyran-2-carboxylic acid, 4-oxo-;4-Oxo-4<em>H</em>-1-benzopyran-2-carboxylic acid;2-Chromonecarboxylic acid;Chromocarb;4-Oxochromene-2-carboxylic acid;Atremon;LP 1;4-Oxo-4<em>H</em>-benzopyran-2-carboxylic acid;4-Oxo-4<em>H</em>-chromene-2-carboxylic acid;Campel",
    "duplicated_cas_no": "918124-20-6",
    "SMILES": "O=C1C=2C(OC(C(O)=O)=C1)=CC=CC2",
    "meta_data": {
        "InChI": "InChI=1S/C10H6O4/c11-7-5-9(10(12)13)14-8-4-2-1-3-6(7)8/h1-5H,(H,12,13)",
        "InChIKey": null,
        "Canonical SMILES": "O=C(O)C=1OC=2C=CC=CC2C(=O)C1",
        "Molecular Formula": "C<sub>10</sub>H<sub>6</sub>O<sub>4</sub>",
        "Molecular Mass": "190.15",
        "Melting Point": "260 °C (decomp)"
    }
}