{
    "cas_no": "1016-58-6",
    "key_name": "4,5-Dimethoxy-2-nitrobenzenemethanol",
    "cn_name": "4,5-二甲氧基-2-硝基苯甲醇;",
    "alternate_name": "Benzenemethanol, 4,5-dimethoxy-2-nitro-;Veratryl alcohol, 6-nitro-;4,5-Dimethoxy-2-nitrobenzenemethanol;6-Nitroveratryl alcohol;2-Nitro-4,5-dimethoxybenzyl alcohol;4,5-Dimethoxy-2-nitrobenzyl alcohol;1-(Hydroxymethyl)-4,5-dimethoxy-2-nitrobenzene;(4,5-Dimethoxy-2-nitrophenyl)methanol",
    "duplicated_cas_no": "",
    "SMILES": "N(=O)(=O)C1=C(CO)C=C(OC)C(OC)=C1",
    "meta_data": {
        "InChI": "InChI=1S/C9H11NO5/c1-14-8-3-6(5-11)7(10(12)13)4-9(8)15-2/h3-4,11H,5H2,1-2H3",
        "InChIKey": null,
        "Canonical SMILES": "O=N(=O)C1=CC(OC)=C(OC)C=C1CO",
        "Molecular Formula": "C<sub>9</sub>H<sub>11</sub>NO<sub>5</sub>",
        "Molecular Mass": "213.19",
        "Melting Point": "145-146 °C"
    }
}