{
    "cas_no": "78-71-7",
    "key_name": "3,3-Bis(chloromethyl)oxetane",
    "cn_name": "3,3-双(氯甲基)氧杂环丁烷;",
    "alternate_name": "Oxetane, 3,3-bis(chloromethyl)-;3,3-Bis(chloromethyl)oxetane;3,3-Bis(chloromethyl)oxacyclobutane;3,3-Bis(chloromethyl)-1-oxacyclobutane;NSC 650608",
    "duplicated_cas_no": "",
    "SMILES": "C(Cl)C1(CCl)COC1",
    "meta_data": {
        "InChI": "InChI=1S/C5H8Cl2O/c6-1-5(2-7)3-8-4-5/h1-4H2",
        "InChIKey": null,
        "Canonical SMILES": "ClCC1(CCl)COC1",
        "Molecular Formula": "C<sub>5</sub>H<sub>8</sub>Cl<sub>2</sub>O",
        "Molecular Mass": "155.02",
        "Boiling Point": "80 °C @ Press: 10 Torr",
        "Melting Point": "18.7 °C",
        "Density": "1.4 g/cm³"
    }
}