{
    "cas_no": "65473-14-5",
    "key_name": "Naftifine hydrochloride",
    "cn_name": "盐酸萘替芬;萘替芬盐酸盐;3-苯基-2-丙烯-N-甲基-1-萘甲胺盐酸盐;",
    "alternate_name": "1-Naphthalenemethanamine, <em>N</em>-methyl-<em>N</em>-[(2<em>E</em>)-3-phenyl-2-propen-1-yl]-, hydrochloride (1:1);1-Naphthalenemethanamine, <em>N</em>-methyl-<em>N</em>-(3-phenyl-2-propenyl)-, hydrochloride, (<em>E</em>)-;1-Naphthalenemethanamine, <em>N</em>-methyl-<em>N</em>-[(2<em>E</em>)-3-phenyl-2-propenyl]-, hydrochloride;Naftifine hydrochloride;Exoderil;Naftin;AW 105-843;SN 105-843;Naphthypine hydrochloride",
    "duplicated_cas_no": "",
    "SMILES": "C(N(C/C=C/C1=CC=CC=C1)C)C=2C3=C(C=CC2)C=CC=C3.Cl",
    "meta_data": {
        "InChI": "InChI=1S/C21H21N.ClH/c1-22(16-8-11-18-9-3-2-4-10-18)17-20-14-7-13-19-12-5-6-15-21(19)20;/h2-15H,16-17H2,1H3;1H/b11-8+;",
        "InChIKey": null,
        "Canonical SMILES": "Cl.C=1C=CC(=CC1)C=CCN(C)CC2=CC=CC=3C=CC=CC32",
        "Molecular Formula": "C<sub>21</sub>H<sub>21</sub>N.ClH",
        "Molecular Mass": "",
        "Melting Point": "177 °C"
    }
}