{
    "cas_no": "583-48-2",
    "key_name": "3,4-Dimethylhexane",
    "cn_name": "3,4-二甲基己烷;",
    "alternate_name": "Hexane, 3,4-dimethyl-;3,4-Dimethylhexane;NSC 74173",
    "duplicated_cas_no": "",
    "SMILES": "C(C(CC)C)(CC)C",
    "meta_data": {
        "InChI": "InChI=1S/C8H18/c1-5-7(3)8(4)6-2/h7-8H,5-6H2,1-4H3",
        "InChIKey": null,
        "Canonical SMILES": "CCC(C)C(C)CC",
        "Molecular Formula": "C<sub>8</sub>H<sub>18</sub>",
        "Molecular Mass": "114.23",
        "Boiling Point": "117.7 °C",
        "Density": "0.7270 g/cm³ @ Temp: 15 °C"
    }
}