{
    "cas_no": "71690-05-6",
    "key_name": "5,6-Dichloronicotinaldehyde",
    "cn_name": null,
    "alternate_name": "3-Pyridinecarboxaldehyde, 5,6-dichloro-;5,6-Dichloro-3-pyridinecarboxaldehyde;5,6-Dichloronicotinaldehyde;5,6-Dichloropyridyl-3-carboxaldehyde;2,3-Dichloropyridine-5-carboxaldehyde;2,3-Dichloro-5-formylpyridine",
    "duplicated_cas_no": "",
    "SMILES": "C(=O)C=1C=C(Cl)C(Cl)=NC1",
    "meta_data": {
        "InChI": "InChI=1S/C6H3Cl2NO/c7-5-1-4(3-10)2-9-6(5)8/h1-3H",
        "InChIKey": null,
        "Canonical SMILES": "O=CC1=CN=C(Cl)C(Cl)=C1",
        "Molecular Formula": "C<sub>6</sub>H<sub>3</sub>Cl<sub>2</sub>NO",
        "Molecular Mass": "176.00",
        "Melting Point": "69-70 °C"
    }
}