{
    "cas_no": "123524-52-7",
    "key_name": "Azelnidipine",
    "cn_name": null,
    "alternate_name": "3,5-Pyridinedicarboxylic acid, 2-amino-1,4-dihydro-6-methyl-4-(3-nitrophenyl)-, 3-[1-(diphenylmethyl)-3-azetidinyl] 5-(1-methylethyl) ester;3,5-Pyridinedicarboxylic acid, 2-amino-1,4-dihydro-6-methyl-4-(3-nitrophenyl)-, 3-[1-(diphenylmethyl)-3-azetidinyl] 5-(1-methylethyl) ester, (±)-;CS 905;3-[1-(Diphenylmethyl)-3-azetidinyl] 5-isopropyl (±)-2-amino-1,4-dihydro-6-methyl-4-(<em>m</em>-nitrophenyl)-3,5-pyridinedicarboxylate;Azelnidipine;Calblock;2-Amino-1,4-dihydro-6-methyl-4-(3-nitrophenyl)-3,5-pyridinedicarboxylic acid 3-(1-diphenylmethylazetidin-3-yl) 5-isopropyl ester;3-<em>O</em>-(1-Benzhydrylazetidin-3-yl) 5-<em>O</em>-propan-2-yl 2-amino-6-methyl-4-(3-nitrophenyl)-1,4-dihydropyridine-3,5-dicarboxylate",
    "duplicated_cas_no": "116573-93-4",
    "SMILES": "C(OC1CN(C(C2=CC=CC=C2)C3=CC=CC=C3)C1)(=O)C=4C(C(C(OC(C)C)=O)=C(C)NC4N)C5=CC(N(=O)=O)=CC=C5",
    "meta_data": {
        "InChI": "InChI=1S/C33H34N4O6/c1-20(2)42-32(38)27-21(3)35-31(34)29(28(27)24-15-10-16-25(17-24)37(40)41)33(39)43-26-18-36(19-26)30(22-11-6-4-7-12-22)23-13-8-5-9-14-23/h4-17,20,26,28,30,35H,18-19,34H2,1-3H3",
        "InChIKey": null,
        "Canonical SMILES": "O=C(OC(C)C)C1=C(NC(N)=C(C(=O)OC2CN(C2)C(C=3C=CC=CC3)C=4C=CC=CC4)C1C=5C=CC=C(C5)N(=O)=O)C",
        "Molecular Formula": "C<sub>33</sub>H<sub>34</sub>N<sub>4</sub>O<sub>6</sub>",
        "Molecular Mass": "582.65",
        "Melting Point": "95-98 °C"
    }
}