{
    "cas_no": "32222-06-3",
    "key_name": "Calcitriol",
    "cn_name": "骨化三醇;钙三醇;二羟胆钙化醇;(5Z,7E)-(1S,3R)-9,10-开环胆甾-5,7,10(19)-三烯-1,3,25-三醇;",
    "alternate_name": "1,3-Cyclohexanediol, 4-methylene-5-[(2<em>E</em>)-2-[(1<em>R</em>,3a<em>S</em>,7a<em>R</em>)-octahydro-1-[(1<em>R</em>)-5-hydroxy-1,5-dimethylhexyl]-7a-methyl-4<em>H</em>-inden-4-ylidene]ethylidene]-, (1<em>R</em>,3<em>S</em>,5<em>Z</em>)-;9,10-Secocholesta-5,7,10(19)-triene-1,3,25-triol, (1α,3β,5<em>Z</em>,7<em>E</em>)-;(1<em>R</em>,3<em>S</em>,5<em>Z</em>)-4-Methylene-5-[(2<em>E</em>)-2-[(1<em>R</em>,3a<em>S</em>,7a<em>R</em>)-octahydro-1-[(1<em>R</em>)-5-hydroxy-1,5-dimethylhexyl]-7a-methyl-4<em>H</em>-inden-4-ylidene]ethylidene]-1,3-cyclohexanediol;1,25-Dihydroxycholecalciferol;1α,25-Dihydroxycholecalciferol;1α,25-Dihydroxyvitamin D<sub>3</sub>;1,25-Dihydroxyvitamin D<sub>3</sub>;Calcitriol;1,25-Dihydroxyvitamin D;Ro 21-5535;Soltriol;Calcijex;Rocaltrol;1α,25-(OH)<sub>2</sub>D<sub>3</sub>;Topitriol;Silkis;Toptriol;Dihydroxyvitamin D<sub>3</sub>;(3β,5<em>Z</em>,7<em>E</em>)-9,10-Secocholesta-5,7,10(19)-trienetriol;Panbonis;Solbone P;DN 101;1α,25-Hydroxyl-vitamin D<sub>3</sub>;1a,25-Dihydroxyvitamin D3;1α,25(OH)<sub>2</sub> vitamin D<sub>3</sub>",
    "duplicated_cas_no": "125338-24-1;69878-52-0;1000873-74-4",
    "SMILES": "C[C@@]12[C@](\\C(=C\\C=C\\3/C(=C)[C@@H](O)C[C@H](O)C3)\\CCC1)(CC[C@@]2([C@@H](CCCC(C)(C)O)C)[H])[H]",
    "meta_data": {
        "InChI": "InChI=1S/C27H44O3/c1-18(8-6-14-26(3,4)30)23-12-13-24-20(9-7-15-27(23,24)5)10-11-21-16-22(28)17-25(29)19(21)2/h10-11,18,22-25,28-30H,2,6-9,12-17H2,1,3-5H3/b20-10+,21-11-/t18-,22-,23-,24+,25+,27-/m1/s1",
        "InChIKey": null,
        "Canonical SMILES": "OC1C(=C)C(=CC=C2CCCC3(C)C2CCC3C(C)CCCC(O)(C)C)CC(O)C1",
        "Molecular Formula": "C<sub>27</sub>H<sub>44</sub>O<sub>3</sub>",
        "Molecular Mass": "416.64",
        "Melting Point": "113 °C"
    }
}