{
    "cas_no": "54897-59-5",
    "key_name": "Alanine, 3-amino-, hydrochloride (1:1)",
    "cn_name": "DL-2,3-二胺基丙酸盐酸盐;",
    "alternate_name": "Alanine, 3-amino-, hydrochloride (1:1);<span class=\"text-smallcaps\">DL</span>-Alanine, 3-amino-, monohydrochloride;Alanine, 3-amino-, monohydrochloride;<span class=\"text-smallcaps\">DL</span>-2,3-Diaminopropionic acid hydrochloride;2,3-Diaminopropionic acid hydrochloride;2,3-Diaminopropionic acid monohydrochloride;α,β-Diaminopropionic acid monohydrochloride;<span class=\"text-smallcaps\">DL</span>-2,3-Diaminopropionic acid monohydrochloride;2,3-Diaminopropanoic acid hydrochloride;NSC 90287;2,3-Diaminopropanoic acid monohydrochloride",
    "duplicated_cas_no": "6018-55-9",
    "SMILES": "C(C(O)=O)(CN)N.Cl",
    "meta_data": {
        "InChI": "InChI=1S/C3H8N2O2.ClH/c4-1-2(5)3(6)7;/h2H,1,4-5H2,(H,6,7);1H",
        "InChIKey": null,
        "Canonical SMILES": "Cl.O=C(O)C(N)CN",
        "Molecular Formula": "C<sub>3</sub>H<sub>8</sub>N<sub>2</sub>O<sub>2</sub>.ClH",
        "Molecular Mass": "",
        "Melting Point": "245 °C (decomp)"
    }
}