{
    "cas_no": "71989-96-3",
    "key_name": "2,3,4-Trimethoxybenzyl alcohol",
    "cn_name": "2,3,4-三甲氧基苯甲醇;",
    "alternate_name": "Benzenemethanol, 2,3,4-trimethoxy-;2,3,4-Trimethoxybenzenemethanol;1-Hydroxymethyl-2,3,4-trimethoxybenzene;2,3,4-Trimethoxybenzyl alcohol;(2,3,4-Trimethoxyphenyl)methanol",
    "duplicated_cas_no": "",
    "SMILES": "O(C)C1=C(OC)C(OC)=CC=C1CO",
    "meta_data": {
        "InChI": "InChI=1S/C10H14O4/c1-12-8-5-4-7(6-11)9(13-2)10(8)14-3/h4-5,11H,6H2,1-3H3",
        "InChIKey": null,
        "Canonical SMILES": "OCC1=CC=C(OC)C(OC)=C1OC",
        "Molecular Formula": "C<sub>10</sub>H<sub>14</sub>O<sub>4</sub>",
        "Molecular Mass": "198.22",
        "Boiling Point": "105 °C @ Press: 0.25 Torr"
    }
}