{
    "cas_no": "24636-31-5",
    "key_name": "(Methacryloxypropyl)dimethylchlorosilane",
    "cn_name": null,
    "alternate_name": "2-Propenoic acid, 2-methyl-, 3-(chlorodimethylsilyl)propyl ester;Methacrylic acid, 3-(chlorodimethylsilyl)propyl ester;1-Propanol, 3-(chlorodimethylsilyl)-, methacrylate;[3-(Methacryloyloxy)propyl]dimethylchlorosilane;(Methacryloxypropyl)dimethylchlorosilane;Chloro[3-(methacryloyloxy)propyl]dimethylsilane;[3-(Methacryloxy)propyl]dimethylchlorosilane;(Methacryloxypropyl)dimethylsilyl chloride;γ-Methacryloxypropyldimethylchlorosilane;3-(Dimethylchlorosilyl)propyl methacrylate;3-[Chlorodimethylsilyl]propyl methacrylate",
    "duplicated_cas_no": "",
    "SMILES": "O(CCC[Si](C)(C)Cl)C(C(C)=C)=O",
    "meta_data": {
        "InChI": "InChI=1S/C9H17ClO2Si/c1-8(2)9(11)12-6-5-7-13(3,4)10/h1,5-7H2,2-4H3",
        "InChIKey": null,
        "Canonical SMILES": "O=C(OCCC[Si](Cl)(C)C)C(=C)C",
        "Molecular Formula": "C<sub>9</sub>H<sub>17</sub>ClO<sub>2</sub>Si",
        "Molecular Mass": "220.77",
        "Boiling Point": "78 °C @ Press: 1 Torr",
        "Density": "1.012 g/cm³"
    }
}