{
    "cas_no": "1693-86-3",
    "key_name": "3-Hexylthiophene",
    "cn_name": "3-己基噻吩;",
    "alternate_name": "Thiophene, 3-hexyl-;3-Hexylthiophene",
    "duplicated_cas_no": "1132649-28-5",
    "SMILES": "C(CCCCC)C=1C=CSC1",
    "meta_data": {
        "InChI": "InChI=1S/C10H16S/c1-2-3-4-5-6-10-7-8-11-9-10/h7-9H,2-6H2,1H3",
        "InChIKey": null,
        "Canonical SMILES": "S1C=CC(=C1)CCCCCC",
        "Molecular Formula": "C<sub>10</sub>H<sub>16</sub>S",
        "Molecular Mass": "168.30",
        "Boiling Point": "229.64 °C @ Press: 760 Torr",
        "Melting Point": "-55.54 °C",
        "Density": "0.93728 g/cm³ @ Temp: 20 °C"
    }
}