{
    "cas_no": "67914-97-0",
    "key_name": "4-[4-(1-Methylethyl)-1-piperazinyl]phenol",
    "cn_name": "4-(4-异丙基-1-哌嗪基)苯酚;4-(4-羟基苯基)-1-异丙基哌嗪;",
    "alternate_name": "Phenol, 4-[4-(1-methylethyl)-1-piperazinyl]-;4-[4-(1-Methylethyl)-1-piperazinyl]phenol;4-(4-Isopropylpiperazin-1-yl)phenol",
    "duplicated_cas_no": "",
    "SMILES": "C(C)(C)N1CCN(CC1)C2=CC=C(O)C=C2",
    "meta_data": {
        "InChI": "InChI=1S/C13H20N2O/c1-11(2)14-7-9-15(10-8-14)12-3-5-13(16)6-4-12/h3-6,11,16H,7-10H2,1-2H3",
        "InChIKey": null,
        "Canonical SMILES": "OC1=CC=C(C=C1)N2CCN(CC2)C(C)C",
        "Molecular Formula": "C<sub>13</sub>H<sub>20</sub>N<sub>2</sub>O",
        "Molecular Mass": "220.31",
        "Melting Point": "274.4 °C"
    }
}