{
    "cas_no": "3449-26-1",
    "key_name": "<em>N</em>-(Dimethylphenylsilyl)-1,1-dimethyl-1-phenylsilanamine",
    "cn_name": "1，3-联苯基四甲基二硅氮烷;",
    "alternate_name": "Silanamine, <em>N</em>-(dimethylphenylsilyl)-1,1-dimethyl-1-phenyl-;Disilazane, 1,1,3,3-tetramethyl-1,3-diphenyl-;<em>N</em>-(Dimethylphenylsilyl)-1,1-dimethyl-1-phenylsilanamine;1,1,3,3-Tetramethyl-1,3-diphenyldisilazane;1,3-Diphenyl-1,1,3,3-tetramethyldisilazane;Bis(dimethylphenylsilyl)amine;1,3-Diphenyltetramethyldisilazane;Bis(phenyldimethylsilyl)amine;[[[Dimethyl(phenyl)silyl]amino]-dimethylsilyl]benzene",
    "duplicated_cas_no": "",
    "SMILES": "[Si](N[Si](C)(C)C1=CC=CC=C1)(C)(C)C2=CC=CC=C2",
    "meta_data": {
        "InChI": "InChI=1S/C16H23NSi2/c1-18(2,15-11-7-5-8-12-15)17-19(3,4)16-13-9-6-10-14-16/h5-14,17H,1-4H3",
        "InChIKey": null,
        "Canonical SMILES": "C=1C=CC(=CC1)[Si](N[Si](C=2C=CC=CC2)(C)C)(C)C",
        "Molecular Formula": "C<sub>16</sub>H<sub>23</sub>NSi<sub>2</sub>",
        "Molecular Mass": "285.53",
        "Boiling Point": "96-99 °C @ Press: 0.1 Torr",
        "Density": "0.985 g/cm³"
    }
}