{
    "cas_no": "66270-36-8",
    "key_name": "2,2,2-Trichloro-1,1-dimethylethyl carbonochloridate",
    "cn_name": null,
    "alternate_name": "Carbonochloridic acid, 2,2,2-trichloro-1,1-dimethylethyl ester;2,2,2-Trichloro-1,1-dimethylethyl carbonochloridate;2,2,2-Trichloro-1,1-dimethylethyl chloroformate;2,2,2-Trichloro-1,1-dimethylethoxycarbonyl chloride;1,1-Dimethyl-2,2,2-trichloroethyl chloroformate;2,2,2-Trichloro-<em>tert</em>-butyl chloroformate;1,1,1-Trichloro-2-methylpropan-2-yl carbonochloridate;1,1,1-Trichloro-2-methylpropan-2-yl chloroformate",
    "duplicated_cas_no": "94388-24-6;1657004-08-4",
    "SMILES": "C(OC(Cl)=O)(C(Cl)(Cl)Cl)(C)C",
    "meta_data": {
        "InChI": "InChI=1S/C5H6Cl4O2/c1-4(2,5(7,8)9)11-3(6)10/h1-2H3",
        "InChIKey": null,
        "Canonical SMILES": "O=C(Cl)OC(C)(C)C(Cl)(Cl)Cl",
        "Molecular Formula": "C<sub>5</sub>H<sub>6</sub>Cl<sub>4</sub>O<sub>2</sub>",
        "Molecular Mass": "239.91",
        "Melting Point": "62-64 °C"
    }
}