{
    "cas_no": "626-95-9",
    "key_name": "1,4-Pentanediol",
    "cn_name": "1,4-戊二醇;",
    "alternate_name": "1,4-Pentanediol;1,4-Dihydroxy-1-methylbutane;4-Hydroxy-1-pentanol;2,5-Pentanediol;1,4-Dihydroxypentane;(±)-1,4-Pentanediol",
    "duplicated_cas_no": "94799-25-4",
    "SMILES": "C(C(C)O)CCO",
    "meta_data": {
        "InChI": "InChI=1S/C5H12O2/c1-5(7)3-2-4-6/h5-7H,2-4H2,1H3",
        "InChIKey": null,
        "Canonical SMILES": "OCCCC(O)C",
        "Molecular Formula": "C<sub>5</sub>H<sub>12</sub>O<sub>2</sub>",
        "Molecular Mass": "104.15",
        "Boiling Point": "202 °C",
        "Density": "0.9857 g/cm³ @ Temp: 25 °C"
    }
}