{
    "cas_no": "2047-91-8",
    "key_name": "1,2,3,4-Tetrahydrocyclopent[<em>b</em>]indole",
    "cn_name": "1,2,3,4-四氢环戊二烯并[b]吲哚;",
    "alternate_name": "Cyclopent[<em>b</em>]indole, 1,2,3,4-tetrahydro-;1,2,3,4-Tetrahydrocyclopent[<em>b</em>]indole;2,3-Trimethyleneindole;1<em>H</em>-Indole, 2,3-(1,3-propanediyl)-;NSC 112674;1,2,3,4-Tetrahydrocyclopenta[<em>b</em>]indole;1<em>H</em>,2<em>H</em>,3<em>H</em>,4<em>H</em>-Cyclopenta[<em>b</em>]indole",
    "duplicated_cas_no": "",
    "SMILES": "C=12C=3C(NC1CCC2)=CC=CC3",
    "meta_data": {
        "InChI": "InChI=1S/C11H11N/c1-2-6-10-8(4-1)9-5-3-7-11(9)12-10/h1-2,4,6,12H,3,5,7H2",
        "InChIKey": null,
        "Canonical SMILES": "C=1C=CC2=C(C1)NC3=C2CCC3",
        "Molecular Formula": "C<sub>11</sub>H<sub>11</sub>N",
        "Molecular Mass": "157.21",
        "Boiling Point": "160-162 °C @ Press: 1 Torr",
        "Melting Point": "109 °C"
    }
}