{
    "cas_no": "402-31-3",
    "key_name": "3,5-Bis(trifluoromethyl)benzene",
    "cn_name": "间二三氟甲苯;1,3-二(三氟甲基)苯;",
    "alternate_name": "Benzene, 1,3-bis(trifluoromethyl)-;<em>m</em>-Xylene, α,α,α,α′,α′,α′-hexafluoro-;1,3-Bis(trifluoromethyl)benzene;3-(Trifluoromethyl)benzotrifluoride;α,α,α,α′,α′,α′-Hexafluoro-<em>m</em>-xylene;<em>m</em>-Bis(trifluoromethyl)benzene;<em>m</em>-(Trifluoromethyl)benzotrifluoride;1,3-Di(trifluoromethyl)benzene;SRS 500;3,5-Bis(trifluoromethyl)benzene;NSC 10342;H 0585;RS 90",
    "duplicated_cas_no": "",
    "SMILES": "C(F)(F)(F)C1=CC(C(F)(F)F)=CC=C1",
    "meta_data": {
        "InChI": "InChI=1S/C8H4F6/c9-7(10,11)5-2-1-3-6(4-5)8(12,13)14/h1-4H",
        "InChIKey": null,
        "Canonical SMILES": "FC(F)(F)C1=CC=CC(=C1)C(F)(F)F",
        "Molecular Formula": "C<sub>8</sub>H<sub>4</sub>F<sub>6</sub>",
        "Molecular Mass": "214.11",
        "Boiling Point": "116 °C"
    }
}