{
    "cas_no": "5369-19-7",
    "key_name": "3-(1,1-Dimethylethyl)benzenamine",
    "cn_name": null,
    "alternate_name": "Benzenamine, 3-(1,1-dimethylethyl)-;Aniline, <em>m</em>-<em>tert</em>-butyl-;3-(1,1-Dimethylethyl)benzenamine;3-<em>tert</em>-Butylaniline;<em>m</em>-<em>tert</em>-Butylaniline;3-<em>tert</em>-Butylphenylamine;3-(1,1-Dimethylethyl)aniline",
    "duplicated_cas_no": "",
    "SMILES": "C(C)(C)(C)C1=CC(N)=CC=C1",
    "meta_data": {
        "InChI": "InChI=1S/C10H15N/c1-10(2,3)8-5-4-6-9(11)7-8/h4-7H,11H2,1-3H3",
        "InChIKey": null,
        "Canonical SMILES": "NC1=CC=CC(=C1)C(C)(C)C",
        "Molecular Formula": "C<sub>10</sub>H<sub>15</sub>N",
        "Molecular Mass": "149.23",
        "Boiling Point": "83-84 °C @ Press: 2 Torr"
    }
}