{
    "cas_no": "3696-23-9",
    "key_name": "<em>N</em>-(4-Chlorophenyl)thiourea",
    "cn_name": "4-氯苯基硫脲;4-氯苯硫脲;",
    "alternate_name": "Thiourea, <em>N</em>-(4-chlorophenyl)-;Urea, 1-(<em>p</em>-chlorophenyl)-2-thio-;Thiourea, (4-chlorophenyl)-;<em>N</em>-(4-Chlorophenyl)thiourea;<em>p</em>-Chlorophenylthiourea;<em>N</em>-(<em>p</em>-Chlorophenyl)thiourea;1-(<em>p</em>-Chlorophenyl)thiourea;1-(<em>p</em>-Chlorophenyl)-2-thiourea;4-Chlorophenylthiourea;1-(4-Chlorophenyl)thiourea;NSC 72217;<em>N</em>′-(4-Chlorophenyl)carbamimidothioic acid",
    "duplicated_cas_no": "",
    "SMILES": "N(C(N)=S)C1=CC=C(Cl)C=C1",
    "meta_data": {
        "InChI": "InChI=1S/C7H7ClN2S/c8-5-1-3-6(4-2-5)10-7(9)11/h1-4H,(H3,9,10,11)",
        "InChIKey": null,
        "Canonical SMILES": "S=C(N)NC1=CC=C(Cl)C=C1",
        "Molecular Formula": "C<sub>7</sub>H<sub>7</sub>ClN<sub>2</sub>S",
        "Molecular Mass": "186.66",
        "Melting Point": "183 °C"
    }
}