{
    "cas_no": "529-28-2",
    "key_name": "2-Iodoanisole",
    "cn_name": "2-碘苯甲醚;",
    "alternate_name": "Benzene, 1-iodo-2-methoxy-;Anisole, <em>o</em>-iodo-;1-Iodo-2-methoxybenzene;<em>o</em>-Iodoanisole;2-Iodoanisole;<em>o</em>-Anisyl iodide;<em>o</em>-Methoxyiodobenzene;2-Methoxyphenyl iodide;2-Methoxyiodobenzene;<em>o</em>-Iodomethoxybenzene;<em>o</em>-Methoxyphenyl iodide;2-Iodophenyl methyl ether;NSC 9259;2-Methoxy-1-iodobenzene",
    "duplicated_cas_no": "",
    "SMILES": "O(C)C1=C(I)C=CC=C1",
    "meta_data": {
        "InChI": "InChI=1S/C7H7IO/c1-9-7-5-3-2-4-6(7)8/h2-5H,1H3",
        "InChIKey": null,
        "Canonical SMILES": "IC=1C=CC=CC1OC",
        "Molecular Formula": "C<sub>7</sub>H<sub>7</sub>IO",
        "Molecular Mass": "234.03",
        "Boiling Point": "241 °C"
    }
}