{
    "cas_no": "4928-87-4",
    "key_name": "1,2,4-Triazole-3-carboxylic acid",
    "cn_name": "1H-1,2,4-三氮唑-3-羧酸;",
    "alternate_name": "1<em>H</em>-1,2,4-Triazole-5-carboxylic acid;<em>s</em>-Triazole-3-carboxylic acid;1<em>H</em>-1,2,4-Triazole-3-carboxylic acid;1,2,4-Triazole-3-carboxylic acid;NSC 165527;NSC 202574;4<em>H</em>-1,2,4-Triazole-3-carboxylic acid",
    "duplicated_cas_no": "",
    "SMILES": "C(O)(=O)C=1NC=NN1",
    "meta_data": {
        "InChI": "InChI=1S/C3H3N3O2/c7-3(8)2-4-1-5-6-2/h1H,(H,7,8)(H,4,5,6)",
        "InChIKey": null,
        "Canonical SMILES": "O=C(O)C1=NN=CN1",
        "Molecular Formula": "C<sub>3</sub>H<sub>3</sub>N<sub>3</sub>O<sub>2</sub>",
        "Molecular Mass": "113.07",
        "Melting Point": "135-137 °C"
    }
}