{
    "cas_no": "482-38-2",
    "key_name": "Kaempferitrin",
    "cn_name": "山奈苷;山奈苷;",
    "alternate_name": "4<em>H</em>-1-Benzopyran-4-one, 3,7-bis[(6-deoxy-α-<span class=\"text-smallcaps\">L</span>-mannopyranosyl)oxy]-5-hydroxy-2-(4-hydroxyphenyl)-;Kaempferitrin;3,7-Bis[(6-deoxy-α-<span class=\"text-smallcaps\">L</span>-mannopyranosyl)oxy]-5-hydroxy-2-(4-hydroxyphenyl)-4<em>H</em>-1-benzopyran-4-one;3,4′,5,7-Tetrahydroxyflavone 3,7-dirhamnoside;Kaempferol 3,7-dirhamnoside;Kaempferol 3,7-di-α-<span class=\"text-smallcaps\">L</span>-rhamnoside;Lespedin;Kaempferol 3,7-bisrhamnoside;Kaempferol 3,7-di-<em>O</em>-rhamnoside;Lespenephryl;Kaempferol 3,7-di-<em>O</em>-α-<span class=\"text-smallcaps\">L</span>-rhamnopyranoside;Kaempferol 3-<em>O</em>-α-<span class=\"text-smallcaps\">L</smallcap>-rhamnopyranoside 7-<em>O</em>-α-<smallcap>L</span>-rhamnopyranoside;Kaempferol 3-<em>O</em>-rhamnoside 7-<em>O</em>-rhamnoside;Kaempferol 3,7-di-α-<span class=\"text-smallcaps\">L</span>-rhamnopyranoside;Kaempferol 3,7-<em>O</em>-α-<span class=\"text-smallcaps\">L</span>-dirhamnoside;Kaempferol 3,7-di-<em>O</em>-rhamnopyranoside;Kaempferol-3,7-<em>O</em>-dirhamnose;Grosvenorine II;Kaempferol-3,7-<em>O</em>-bis-α-<span class=\"text-smallcaps\">L</span>-rhamnopyranoside;Kaempferitin",
    "duplicated_cas_no": "25242-92-6;27938-38-1;28553-22-2;50818-96-7;138079-61-5;156780-61-9;642474-46-2;1575285-42-5;1616617-92-5",
    "SMILES": "O(C1=C(OC=2C(C1=O)=C(O)C=C(O[C@H]3[C@H](O)[C@H](O)[C@@H](O)[C@H](C)O3)C2)C4=CC=C(O)C=C4)[C@H]5[C@H](O)[C@H](O)[C@@H](O)[C@H](C)O5",
    "meta_data": {
        "InChI": "InChI=1S/C27H30O14/c1-9-17(30)20(33)22(35)26(37-9)39-13-7-14(29)16-15(8-13)40-24(11-3-5-12(28)6-4-11)25(19(16)32)41-27-23(36)21(34)18(31)10(2)38-27/h3-10,17-18,20-23,26-31,33-36H,1-2H3/t9-,10-,17-,18-,20+,21+,22+,23+,26-,27-/m0/s1",
        "InChIKey": null,
        "Canonical SMILES": "O=C1C(OC2OC(C)C(O)C(O)C2O)=C(OC3=CC(OC4OC(C)C(O)C(O)C4O)=CC(O)=C13)C=5C=CC(O)=CC5",
        "Molecular Formula": "C<sub>27</sub>H<sub>30</sub>O<sub>14</sub>",
        "Molecular Mass": "578.52",
        "Melting Point": "190-195 °C",
        "Density": "1.56 g/cm³ @ Temp: 20 °C"
    }
}