{
    "cas_no": "4921-82-8",
    "key_name": "<em>N</em>-[(Phenylamino)thioxomethyl]benzamide",
    "cn_name": null,
    "alternate_name": "Benzamide, <em>N</em>-[(phenylamino)thioxomethyl]-;Urea, 1-benzoyl-3-phenyl-2-thio-;<em>N</em>-[(Phenylamino)thioxomethyl]benzamide;1-Benzoyl-3-phenylthiourea;<em>N</em>-Benzoyl-<em>N</em>′-phenylthiourea;1-Phenyl-3-benzoylthiocarbamide;1-Benzoyl-3-phenylthiocarbamide;<em>N</em>-Phenyl-<em>N</em>′-benzoylthiourea;<em>N</em>′-Phenyl-<em>N</em>-benzoylthiourea;NSC 5817;TM 2-51;1-Benzoyl-3-phenyl-2-thiourea;3-Benzoyl-1-phenylthiourea",
    "duplicated_cas_no": "",
    "SMILES": "N(C(NC(=O)C1=CC=CC=C1)=S)C2=CC=CC=C2",
    "meta_data": {
        "InChI": "InChI=1S/C14H12N2OS/c17-13(11-7-3-1-4-8-11)16-14(18)15-12-9-5-2-6-10-12/h1-10H,(H2,15,16,17,18)",
        "InChIKey": null,
        "Canonical SMILES": "O=C(NC(=S)NC=1C=CC=CC1)C=2C=CC=CC2",
        "Molecular Formula": "C<sub>14</sub>H<sub>12</sub>N<sub>2</sub>OS",
        "Molecular Mass": "256.32",
        "Melting Point": "147-149 °C"
    }
}