{
    "cas_no": "29334-67-6",
    "key_name": "3-Chloro-6-(3,5-dimethylpyrazol-1-yl)pyridazine",
    "cn_name": null,
    "alternate_name": "Pyridazine, 3-chloro-6-(3,5-dimethyl-1<em>H</em>-pyrazol-1-yl)-;Pyridazine, 3-chloro-6-(3,5-dimethylpyrazol-1-yl)-;3-Chloro-6-(3,5-dimethyl-1<em>H</em>-pyrazol-1-yl)pyridazine;3-(3,5-Dimethylpyrazol-1-yl)-6-chloropyridazine;3-Chloro-6-(3,5-dimethylpyrazol-1-yl)pyridazine;NSC 270405",
    "duplicated_cas_no": "",
    "SMILES": "CC=1N(N=C(C)C1)C2=CC=C(Cl)N=N2",
    "meta_data": {
        "InChI": "InChI=1S/C9H9ClN4/c1-6-5-7(2)14(13-6)9-4-3-8(10)11-12-9/h3-5H,1-2H3",
        "InChIKey": null,
        "Canonical SMILES": "ClC1=NN=C(C=C1)N2N=C(C=C2C)C",
        "Molecular Formula": "C<sub>9</sub>H<sub>9</sub>ClN<sub>4</sub>",
        "Molecular Mass": "208.65",
        "Melting Point": "115 °C"
    }
}