{
    "cas_no": "107-85-7",
    "key_name": "Isoamylamine",
    "cn_name": null,
    "alternate_name": "1-Butanamine, 3-methyl-;Isopentylamine;Propylamine, 3,3-dimethyl-;3-Methyl-1-butanamine;Isoamylamine;Leucamine;3-Methylbutylamine;γ-Isoamylamine;Monoisoamylamine;1-Amino-3-methylbutane;3-Methylbutanamine;Isovalerylamine;Monoisopentylamine;3-Methyl-<em>n</em>-butylamine;NSC 7907;2-(2-Isopropyl)ethylamine;3-Methyl-1-aminobutane",
    "duplicated_cas_no": "",
    "SMILES": "C(C(C)C)CN",
    "meta_data": {
        "InChI": "InChI=1S/C5H13N/c1-5(2)3-4-6/h5H,3-4,6H2,1-2H3",
        "InChIKey": null,
        "Canonical SMILES": "NCCC(C)C",
        "Molecular Formula": "C<sub>5</sub>H<sub>13</sub>N",
        "Molecular Mass": "87.16",
        "Boiling Point": "96 °C",
        "Density": "0.740 g/cm³ @ Temp: 15 °C"
    }
}