{
    "cas_no": "947-62-6",
    "key_name": "2-Methoxy-1-naphthalenecarboxylic acid",
    "cn_name": null,
    "alternate_name": "1-Naphthalenecarboxylic acid, 2-methoxy-;1-Naphthoic acid, 2-methoxy-;2-Methoxy-1-naphthalenecarboxylic acid;2-Methoxy-1-naphthoic acid",
    "duplicated_cas_no": "",
    "SMILES": "C(O)(=O)C=1C2=C(C=CC1OC)C=CC=C2",
    "meta_data": {
        "InChI": "InChI=1S/C12H10O3/c1-15-10-7-6-8-4-2-3-5-9(8)11(10)12(13)14/h2-7H,1H3,(H,13,14)",
        "InChIKey": null,
        "Canonical SMILES": "O=C(O)C1=C(OC)C=CC=2C=CC=CC21",
        "Molecular Formula": "C<sub>12</sub>H<sub>10</sub>O<sub>3</sub>",
        "Molecular Mass": "202.21",
        "Melting Point": "176 °C"
    }
}