{
    "cas_no": "493-05-0",
    "key_name": "Isochroman",
    "cn_name": "异色满;3,4-二氢-1H-2-苯并吡喃;",
    "alternate_name": "1<em>H</em>-2-Benzopyran, 3,4-dihydro-;Isochroman;3,4-Dihydro-1<em>H</em>-2-benzopyran;NSC 63362;1,2,3,4-Tetrahydrobenzo[<em>c</em>]pyran;3,4-Dihydro-1<em>H</em>-isochromene;3,4-Dihydro-1<em>H</em>-benzo[<em>c</em>]pyran;Isochromane",
    "duplicated_cas_no": "",
    "SMILES": "C=12C(=CC=CC1)COCC2",
    "meta_data": {
        "InChI": "InChI=1S/C9H10O/c1-2-4-9-7-10-6-5-8(9)3-1/h1-4H,5-7H2",
        "InChIKey": null,
        "Canonical SMILES": "O1CC=2C=CC=CC2CC1",
        "Molecular Formula": "C<sub>9</sub>H<sub>10</sub>O",
        "Molecular Mass": "134.18",
        "Boiling Point": "67-69 °C @ Press: 2 Torr",
        "Density": "1.068 g/cm³ @ Temp: 17.5 °C"
    }
}