{
    "cas_no": "589-06-0",
    "key_name": "4-(4-Fluorophenyl)butanoic acid",
    "cn_name": "4-(4-氟苯基)丁酸;",
    "alternate_name": "Benzenebutanoic acid, 4-fluoro-;Butyric acid, 4-(<em>p</em>-fluorophenyl)-;4-Fluorobenzenebutanoic acid;4-(<em>p</em>-Fluorophenyl)butyric acid;4-(4-Fluorophenyl)butyric acid;4-(4-Fluorophenyl)butanoic acid;NSC 409583",
    "duplicated_cas_no": "",
    "SMILES": "C(CCC(O)=O)C1=CC=C(F)C=C1",
    "meta_data": {
        "InChI": "InChI=1S/C10H11FO2/c11-9-6-4-8(5-7-9)2-1-3-10(12)13/h4-7H,1-3H2,(H,12,13)",
        "InChIKey": null,
        "Canonical SMILES": "O=C(O)CCCC1=CC=C(F)C=C1",
        "Molecular Formula": "C<sub>10</sub>H<sub>11</sub>FO<sub>2</sub>",
        "Molecular Mass": "182.19",
        "Boiling Point": "161-164 °C @ Press: 4 Torr",
        "Melting Point": "~30 °C (approx)"
    }
}