{
    "cas_no": "513-74-6",
    "key_name": "Ammonium dithiocarbamate",
    "cn_name": "二硫代氨基甲酸铵;",
    "alternate_name": "Carbamodithioic acid, ammonium salt (1:1);Carbamic acid, dithio-, monoammonium salt;Ammonium dithiocarbamate;Carbamodithioic acid, monoammonium salt",
    "duplicated_cas_no": "101204-31-3",
    "SMILES": "C(N)(=S)S.N",
    "meta_data": {
        "InChI": "InChI=1S/CH3NS2.H3N/c2-1(3)4;/h(H3,2,3,4);1H3",
        "InChIKey": null,
        "Canonical SMILES": "S=C(S)N.N",
        "Molecular Formula": "CH<sub>3</sub>NS<sub>2</sub>.H<sub>3</sub>N",
        "Molecular Mass": "",
        "Boiling Point": "40-60 °C",
        "Melting Point": "99 °C",
        "Density": "1.451 g/cm³ @ Temp: 20 °C"
    }
}