{
    "cas_no": "460-08-2",
    "key_name": "Ethanamine, 2-fluoro-, hydrochloride",
    "cn_name": "异亚丙基丙酮乙酸乙酯;",
    "alternate_name": "Ethanamine, 2-fluoro-, hydrochloride;Ethylamine, 2-fluoro-, hydrochloride;β-Fluoroethylamine hydrochloride;2-Fluoroethylamine hydrochloride;2-Fluoroethylammonium chloride;2-Fluoro-1-ethanamine hydrochloride;2-Fluoroethanamine hydrochloride",
    "duplicated_cas_no": "",
    "SMILES": "C(CN)F.Cl",
    "meta_data": {
        "InChI": "InChI=1S/C2H6FN.ClH/c3-1-2-4;/h1-2,4H2;1H",
        "InChIKey": null,
        "Canonical SMILES": "Cl.FCCN",
        "Molecular Formula": "C<sub>2</sub>H<sub>6</sub>FN.ClH",
        "Molecular Mass": "",
        "Melting Point": "88 °C"
    }
}