{
    "cas_no": "5445-44-3",
    "key_name": "<em>O</em>-(Phenylmethyl)serine",
    "cn_name": "O-苄基-DL-丝氨酸;",
    "alternate_name": "Serine, <em>O</em>-(phenylmethyl)-;Alanine, 3-(benzyloxy)-, <span class=\"text-smallcaps\">DL</span>-;<span class=\"text-smallcaps\">DL</span>-Serine, <em>O</em>-(phenylmethyl)-;<em>O</em>-(Phenylmethyl)serine;Benzyl-<span class=\"text-smallcaps\">DL</span>-serine;Alanine, 3-(phenylmethoxy)-;NSC 22028;2-Amino-3-(benzyloxy)propanoic acid;2-Amino-3-benzyloxy-propionic acid;3-Benzyloxy-<span class=\"text-smallcaps\">D</smallcap><smallcap>L</span>-alanine;2-Amino-3-phenylmethoxypropanoic acid",
    "duplicated_cas_no": "32520-12-0",
    "SMILES": "C(OCC(C(O)=O)N)C1=CC=CC=C1",
    "meta_data": {
        "InChI": "InChI=1S/C10H13NO3/c11-9(10(12)13)7-14-6-8-4-2-1-3-5-8/h1-5,9H,6-7,11H2,(H,12,13)",
        "InChIKey": null,
        "Canonical SMILES": "O=C(O)C(N)COCC=1C=CC=CC1",
        "Molecular Formula": "C<sub>10</sub>H<sub>13</sub>NO<sub>3</sub>",
        "Molecular Mass": "195.22",
        "Melting Point": "213 °C (decomp)"
    }
}