{
    "cas_no": "99010-64-7",
    "key_name": "4-Chloro-1-isobutyl-1<em>H</em>-imidazo[4,5-<em>c</em>]quinoline",
    "cn_name": "1-(2-甲基丙基)-4-氯-1H-咪唑并[4,5-c]喹啉;",
    "alternate_name": "1<em>H</em>-Imidazo[4,5-<em>c</em>]quinoline, 4-chloro-1-(2-methylpropyl)-;4-Chloro-1-(2-methylpropyl)-1<em>H</em>-imidazo[4,5-<em>c</em>]quinoline;NSC 672965;4-Chloro-1-isobutyl-1<em>H</em>-imidazo[4,5-<em>c</em>]quinoline",
    "duplicated_cas_no": "",
    "SMILES": "C(C(C)C)N1C=2C=3C(N=C(Cl)C2N=C1)=CC=CC3",
    "meta_data": {
        "InChI": "InChI=1S/C14H14ClN3/c1-9(2)7-18-8-16-12-13(18)10-5-3-4-6-11(10)17-14(12)15/h3-6,8-9H,7H2,1-2H3",
        "InChIKey": null,
        "Canonical SMILES": "ClC1=NC=2C=CC=CC2C3=C1N=CN3CC(C)C",
        "Molecular Formula": "C<sub>14</sub>H<sub>14</sub>ClN<sub>3</sub>",
        "Molecular Mass": "259.73",
        "Melting Point": "139-140 °C"
    }
}