{
    "cas_no": "32899-41-5",
    "key_name": "1-Palmitoyl-<em>sn</em>-glycerol",
    "cn_name": null,
    "alternate_name": "Hexadecanoic acid, (2<em>S</em>)-2,3-dihydroxypropyl ester;Hexadecanoic acid, 2,3-dihydroxypropyl ester, (<em>S</em>)-;Palmitin, 1-mono-, <span class=\"text-smallcaps\">L</span>-;1-Palmitoyl-<em>sn</em>-glycerol;(-)-α-Palmitin;1-Palmitoyl-sn-glycerol;1-Glyceryl palmitate",
    "duplicated_cas_no": "305847-08-9",
    "SMILES": "C(C(OC[C@H](CO)O)=O)CCCCCCCCCCCCCC",
    "meta_data": {
        "InChI": "InChI=1S/C19H38O4/c1-2-3-4-5-6-7-8-9-10-11-12-13-14-15-19(22)23-17-18(21)16-20/h18,20-21H,2-17H2,1H3/t18-/m0/s1",
        "InChIKey": null,
        "Canonical SMILES": "O=C(OCC(O)CO)CCCCCCCCCCCCCCC",
        "Molecular Formula": "C<sub>19</sub>H<sub>38</sub>O<sub>4</sub>",
        "Molecular Mass": "",
        "Melting Point": "68-70 °C"
    }
}