{
    "cas_no": "70097-45-9",
    "key_name": "7-Chlorophthalide",
    "cn_name": "7-氯苯酞;",
    "alternate_name": "1(3<em>H</em>)-Isobenzofuranone, 7-chloro-;Phthalide, 7-chloro-;7-Chloro-1(3<em>H</em>)-isobenzofuranone;7-Chlorophthalide;NSC 171642",
    "duplicated_cas_no": "75990-96-4",
    "SMILES": "ClC1=C2C(=CC=C1)COC2=O",
    "meta_data": {
        "InChI": "InChI=1S/C8H5ClO2/c9-6-3-1-2-5-4-11-8(10)7(5)6/h1-3H,4H2",
        "InChIKey": null,
        "Canonical SMILES": "O=C1OCC=2C=CC=C(Cl)C12",
        "Molecular Formula": "C<sub>8</sub>H<sub>5</sub>ClO<sub>2</sub>",
        "Molecular Mass": "168.58",
        "Melting Point": "149 °C"
    }
}