{
    "cas_no": "5317-32-8",
    "key_name": "1-Piperazinepropanol",
    "cn_name": "1-哌嗪基丙醇;1-(3-羟基丙基)哌嗪;",
    "alternate_name": "1-Piperazinepropanol;3-(1-Piperazinyl)-1-propanol;<em>N</em>-(3-Hydroxypropyl)piperazine;1-(3-Hydroxypropyl)piperazine;1-(3-Hydroxy-1-propyl)piperazine;3-(1-Piperazinyl)propanol;4-(3-Hydroxypropyl)piperazine;1-(3-Hydroxypropyl)-4-piperazine;3-(Piperazin-1-yl)propan-1-ol",
    "duplicated_cas_no": "850360-38-2",
    "SMILES": "C(CCO)N1CCNCC1",
    "meta_data": {
        "InChI": "InChI=1S/C7H16N2O/c10-7-1-4-9-5-2-8-3-6-9/h8,10H,1-7H2",
        "InChIKey": null,
        "Canonical SMILES": "OCCCN1CCNCC1",
        "Molecular Formula": "C<sub>7</sub>H<sub>16</sub>N<sub>2</sub>O",
        "Molecular Mass": "144.21",
        "Boiling Point": "115-120 °C @ Press: 0.7 Torr",
        "Melting Point": "200-215 °C"
    }
}