{
    "cas_no": "10097-09-3",
    "key_name": "<em>N</em>,<em>N</em>′′-(Methylenedi-4,1-phenylene)bis[<em>N</em>′,<em>N</em>′-dimethylurea]",
    "cn_name": "N,N\"\"-(亚甲基二-4,1-亚苯基)二(N\",N\"-二甲基脲);",
    "alternate_name": "Urea, <em>N</em>,<em>N</em>′′-(methylenedi-4,1-phenylene)bis[<em>N</em>′,<em>N</em>′-dimethyl-;Urea, 1,1′-(methylenedi-<em>p</em>-phenylene)bis[3,3-dimethyl-;<em>N</em>,<em>N</em>′′-(Methylenedi-4,1-phenylene)bis[<em>N</em>′,<em>N</em>′-dimethylurea];Bis[4-(<em>N</em>,<em>N</em>-dimethylureido)phenyl]methane;Bis[<em>p</em>-(<em>N</em>,<em>N</em>-dimethylurea)phenyl]methane;4,4′-Bis(<em>N</em>,<em>N</em>-dimethylureido)diphenylmethane;Bis[4-(dimethylaminocarbonylamino)phenyl]methane;4,4′-Methylenediphenylene bis(dimethylurea);4,4′-Methylenebis(phenyldimethylurea);Omicure 52;Omicure U 52;NSC 202633;3-[4-[[4-(Dimethylcarbamoylamino)phenyl]methyl]phenyl]-1,1-dimethylurea;U 52M;Omicure U 52M;1,1′-(Methylenedi-p-phenylene)bis(3,3-dimethylurea);U 415M;Omicure U 415M;Technicure MDU 11;Dyhard UR 700;UR 700;U 52;UA 23;1,1′-(Methylenedi-<em>p</em>-phenylene)bis(3,3-dimethylurea);Amicure UR-M",
    "duplicated_cas_no": "133556-65-7;1314357-46-4;1314357-47-5",
    "SMILES": "C(C1=CC=C(NC(N(C)C)=O)C=C1)C2=CC=C(NC(N(C)C)=O)C=C2",
    "meta_data": {
        "InChI": "InChI=1S/C19H24N4O2/c1-22(2)18(24)20-16-9-5-14(6-10-16)13-15-7-11-17(12-8-15)21-19(25)23(3)4/h5-12H,13H2,1-4H3,(H,20,24)(H,21,25)",
        "InChIKey": null,
        "Canonical SMILES": "O=C(NC1=CC=C(C=C1)CC2=CC=C(C=C2)NC(=O)N(C)C)N(C)C",
        "Molecular Formula": "C<sub>19</sub>H<sub>24</sub>N<sub>4</sub>O<sub>2</sub>",
        "Molecular Mass": "340.42",
        "Melting Point": "345 °C"
    }
}