{
    "cas_no": "5437-45-6",
    "key_name": "Benzyl bromoacetate",
    "cn_name": "2-溴乙酸苄酯;",
    "alternate_name": "Acetic acid, 2-bromo-, phenylmethyl ester;Acetic acid, bromo-, benzyl ester;Acetic acid, bromo-, phenylmethyl ester;Benzyl bromoacetate;Merbac 35;Benzyl 2-bromoacetate;Bromoacetic acid benzyl ester;Phenylmethyl bromoacetate;NSC 16114;NSC 23980;2-Bromoacetic acid benzyl ester",
    "duplicated_cas_no": "",
    "SMILES": "C(OC(CBr)=O)C1=CC=CC=C1",
    "meta_data": {
        "InChI": "InChI=1S/C9H9BrO2/c10-6-9(11)12-7-8-4-2-1-3-5-8/h1-5H,6-7H2",
        "InChIKey": null,
        "Canonical SMILES": "O=C(OCC=1C=CC=CC1)CBr",
        "Molecular Formula": "C<sub>9</sub>H<sub>9</sub>BrO<sub>2</sub>",
        "Molecular Mass": "229.07",
        "Boiling Point": "143 °C @ Press: 10 Torr"
    }
}