{
    "cas_no": "7240-90-6",
    "key_name": "X-gal",
    "cn_name": null,
    "alternate_name": "β-<span class=\"text-smallcaps\">D</span>-Galactopyranoside, 5-bromo-4-chloro-1<em>H</em>-indol-3-yl;Galactopyranoside, 5-bromo-4-chloroindol-3-yl, β-<span class=\"text-smallcaps\">D</span>-;Indole, 5-bromo-4-chloro-3-(β-<span class=\"text-smallcaps\">D</span>-galactopyranosyloxy)-;5-Bromo-4-chloro-1<em>H</em>-indol-3-yl β-<span class=\"text-smallcaps\">D</span>-galactopyranoside;5-Bromo-4-chloroindol-3-yl β-<span class=\"text-smallcaps\">D</span>-galactopyranoside;5-Bromo-4-chloroindol-3-yl β-<span class=\"text-smallcaps\">D</span>-galactoside;X-gal;5-Bromo-4-chloro-3-<em>C</em>-indolyl-β-<span class=\"text-smallcaps\">D</span>-galactopyranose;5-Bromo-4-chloro-3-indoyl-β-galactopyranoside",
    "duplicated_cas_no": "98048-68-1;30551-60-1;69106-99-6;69105-99-3",
    "SMILES": "O(C=1C=2C(NC1)=CC=C(Br)C2Cl)[C@@H]3O[C@H](CO)[C@H](O)[C@H](O)[C@H]3O",
    "meta_data": {
        "InChI": "InChI=1S/C14H15BrClNO6/c15-5-1-2-6-9(10(5)16)7(3-17-6)22-14-13(21)12(20)11(19)8(4-18)23-14/h1-3,8,11-14,17-21H,4H2/t8-,11+,12+,13-,14-/m1/s1",
        "InChIKey": null,
        "Canonical SMILES": "ClC1=C(Br)C=CC=2NC=C(OC3OC(CO)C(O)C(O)C3O)C12",
        "Molecular Formula": "C<sub>14</sub>H<sub>15</sub>BrClNO<sub>6</sub>",
        "Molecular Mass": "408.63",
        "Melting Point": "178-179 °C (decomp)"
    }
}