{
    "cas_no": "1888-75-1",
    "key_name": "Isopropyllithium",
    "cn_name": null,
    "alternate_name": "Lithium, (1-methylethyl)-;Lithium, isopropyl-;Isopropyllithium;2-Propyllithium;2-Lithiopropane",
    "duplicated_cas_no": "",
    "SMILES": "C(C)(C)[Li]",
    "meta_data": {
        "InChI": "InChI=1S/C3H7.Li/c1-3-2;/h3H,1-2H3;",
        "InChIKey": null,
        "Canonical SMILES": "[Li]C(C)C",
        "Molecular Formula": "C<sub>3</sub>H<sub>7</sub>Li",
        "Molecular Mass": "",
        "Melting Point": "99-100 °C"
    }
}