{
    "cas_no": "77-85-0",
    "key_name": "Trimethylolethane",
    "cn_name": "1,1,1-三(羟甲基)乙烷;2-羟甲基-2-甲基-1,3-丙二醇;三羟甲基乙烷;",
    "alternate_name": "1,3-Propanediol, 2-(hydroxymethyl)-2-methyl-;2-(Hydroxymethyl)-2-methyl-1,3-propanediol;Ethane, 1,1,1-tris(hydroxymethyl)-;Methyltrimethanolmethane;Metriol;TME;Trimet;Trimethylolethane;1,1,1-Trimethylolethane;1,1,1-Tris(hydroxymethyl)ethane;2-Methyl-2-hydroxymethyl-1,3-propanediol;1,1,1-Tris(methylol)ethane;1,1,1-Trimethanolethane;Methriol;2,2-Di(hydroxymethyl)propanol;Pentaglycerine;2,2-Bis(hydroxymethyl)-1-propanol;NSC 65581;1,1,1-Tris(hydroxylmethyl)ethane;2-Hydroxymethylene-2-methyl-1,3-propanediol;2-Hydroxymethyl-2-methylpropan-1,3-diol;Isopentanetriol;2-(Hydroxymethyl)-2-methyl-propanediol;Lullaby DMK 030;Ethane, (hydroxymethyl)-",
    "duplicated_cas_no": "2014337-54-1;2182590-62-9;2300127-30-2",
    "SMILES": "C(CO)(CO)(CO)C",
    "meta_data": {
        "InChI": "InChI=1S/C5H12O3/c1-5(2-6,3-7)4-8/h6-8H,2-4H2,1H3",
        "InChIKey": null,
        "Canonical SMILES": "OCC(C)(CO)CO",
        "Molecular Formula": "C<sub>5</sub>H<sub>12</sub>O<sub>3</sub>",
        "Molecular Mass": "120.15",
        "Boiling Point": "137 °C @ Press: 15 Torr",
        "Melting Point": "204 °C",
        "Density": "1.498 g/cm³ @ Temp: 25 °C"
    }
}