{
    "cas_no": "3460-18-2",
    "key_name": "2,5-Dibromonitrobenzene",
    "cn_name": "2,5-二溴硝基苯;1,4-二溴-2-硝基苯;",
    "alternate_name": "Benzene, 1,4-dibromo-2-nitro-;1,4-Dibromo-2-nitrobenzene;2,5-Dibromonitrobenzene;2,5-Dibromo-1-nitrobenzene;2-Nitro-4-bromobenzene bromide;2-Nitro-1,4-dibromobenzene",
    "duplicated_cas_no": "919522-58-0",
    "SMILES": "N(=O)(=O)C1=C(Br)C=CC(Br)=C1",
    "meta_data": {
        "InChI": "InChI=1S/C6H3Br2NO2/c7-4-1-2-5(8)6(3-4)9(10)11/h1-3H",
        "InChIKey": null,
        "Canonical SMILES": "O=N(=O)C1=CC(Br)=CC=C1Br",
        "Molecular Formula": "C<sub>6</sub>H<sub>3</sub>Br<sub>2</sub>NO<sub>2</sub>",
        "Molecular Mass": "280.90",
        "Melting Point": "85.5 °C",
        "Density": "2.374 g/cm³ @ Temp: 16 °C"
    }
}