{
    "cas_no": "1546-79-8",
    "key_name": "1-(Trifluoroacetyl)imidazole",
    "cn_name": "1-(三氟乙酰)咪唑;",
    "alternate_name": "Ethanone, 2,2,2-trifluoro-1-(1<em>H</em>-imidazol-1-yl)-;Imidazole, 1-(trifluoroacetyl)-;1<em>H</em>-Imidazole, 1-(trifluoroacetyl)-;2,2,2-Trifluoro-1-(1<em>H</em>-imidazol-1-yl)ethanone;<em>N</em>-(Trifluoroacetyl)imidazole;1-(Trifluoroacetyl)imidazole;NSC 151965;1-Trifluoroacetylimidazolium;2,2,2-Trifluoro-1-imidazol-1-ylethanone;2,2,2-Trifluoro-1-(1<em>H</em>-imidazol-1-yl)ethan-1-one",
    "duplicated_cas_no": "",
    "SMILES": "C(C(F)(F)F)(=O)N1C=CN=C1",
    "meta_data": {
        "InChI": "InChI=1S/C5H3F3N2O/c6-5(7,8)4(11)10-2-1-9-3-10/h1-3H",
        "InChIKey": null,
        "Canonical SMILES": "O=C(N1C=NC=C1)C(F)(F)F",
        "Molecular Formula": "C<sub>5</sub>H<sub>3</sub>F<sub>3</sub>N<sub>2</sub>O",
        "Molecular Mass": "164.09",
        "Boiling Point": "137-138 °C"
    }
}