{
    "cas_no": "15641-58-4",
    "key_name": "2,2,3,3-Tetramethylcyclopropanecarboxylic acid",
    "cn_name": "2,2,3,3-四甲基环丙烷羧酸;菊酸;甲氰菊酸;",
    "alternate_name": "Cyclopropanecarboxylic acid, 2,2,3,3-tetramethyl-;2,2,3,3-Tetramethylcyclopropanecarboxylic acid;2,2,3,3-Tetramethylcyclopropane-1-carboxylic acid;2,2,3,3-Tetramethylcyclopropylcarboxylic acid",
    "duplicated_cas_no": "",
    "SMILES": "C(O)(=O)C1C(C)(C)C1(C)C",
    "meta_data": {
        "InChI": "InChI=1S/C8H14O2/c1-7(2)5(6(9)10)8(7,3)4/h5H,1-4H3,(H,9,10)",
        "InChIKey": null,
        "Canonical SMILES": "O=C(O)C1C(C)(C)C1(C)C",
        "Molecular Formula": "C<sub>8</sub>H<sub>14</sub>O<sub>2</sub>",
        "Molecular Mass": "142.20",
        "Melting Point": "121 °C"
    }
}