{
    "cas_no": "609-06-3",
    "key_name": "<span class=\"text-smallcaps\">L</span>-Xylose",
    "cn_name": "L-木糖;L-(-)木糖;L(-)-木质醛糖;L-戊醛糖;",
    "alternate_name": "<span class=\"text-smallcaps\">L</span>-Xylose;Xylose, <span class=\"text-smallcaps\">L</span>-;NSC 26213",
    "duplicated_cas_no": "141492-12-8",
    "SMILES": "[C@@H]([C@H](CO)O)([C@@H](C=O)O)O",
    "meta_data": {
        "InChI": "InChI=1S/C5H10O5/c6-1-3(8)5(10)4(9)2-7/h1,3-5,7-10H,2H2/t3-,4+,5+/m1/s1",
        "InChIKey": null,
        "Canonical SMILES": "O=CC(O)C(O)C(O)CO",
        "Molecular Formula": "C<sub>5</sub>H<sub>10</sub>O<sub>5</sub>",
        "Molecular Mass": "150.13",
        "Melting Point": "144 °C"
    }
}