{
    "cas_no": "3891-59-6",
    "key_name": "2,3,4,5,6-Penta-<em>O</em>-acetyl-<span class=\"text-smallcaps\">D</span>-glucose",
    "cn_name": "2,3,4,5,6-alpha-D-葡萄糖五乙酸酯;",
    "alternate_name": "<span class=\"text-smallcaps\">D</span>-Glucose, 2,3,4,5,6-pentaacetate;Penta-<em>O</em>-acetyl-<em>aldehydo</em>-<span class=\"text-smallcaps\">D</span>-glucose;2,3,4,5,6-Penta-<em>O</em>-acetyl-<span class=\"text-smallcaps\">D</span>-glucose",
    "duplicated_cas_no": "1287261-74-8;1314116-25-0",
    "SMILES": "[C@H]([C@@H]([C@@H](OC(C)=O)C=O)OC(C)=O)([C@@H](COC(C)=O)OC(C)=O)OC(C)=O",
    "meta_data": {
        "InChI": "InChI=1S/C16H22O11/c1-8(18)23-7-14(25-10(3)20)16(27-12(5)22)15(26-11(4)21)13(6-17)24-9(2)19/h6,13-16H,7H2,1-5H3/t13-,14+,15+,16+/m0/s1",
        "InChIKey": null,
        "Canonical SMILES": "O=CC(OC(=O)C)C(OC(=O)C)C(OC(=O)C)C(OC(=O)C)COC(=O)C",
        "Molecular Formula": "C<sub>16</sub>H<sub>22</sub>O<sub>11</sub>",
        "Molecular Mass": "390.34",
        "Melting Point": "130-131 °C"
    }
}