{
    "cas_no": "5334-31-6",
    "key_name": "3-Amino-1<em>H</em>-pyrazole-4-carboxamide",
    "cn_name": null,
    "alternate_name": "1<em>H</em>-Pyrazole-4-carboxamide, 3-amino-;3-Amino-1<em>H</em>-pyrazole-4-carboxamide;5-Amino-4-pyrazolecarboxamide;3-Amino-4-pyrazolecarboxamide;NSC 1402;3-Amino-4-carbamoylpyrazole",
    "duplicated_cas_no": "22407-19-8;52906-16-8;139954-60-2;145370-90-7;145864-64-8;916792-65-9;1092683-98-1;1393709-18-6;1429226-31-2;1438836-40-8",
    "SMILES": "C(N)(=O)C=1C(N)=NNC1",
    "meta_data": {
        "InChI": "InChI=1S/C4H6N4O/c5-3-2(4(6)9)1-7-8-3/h1H,(H2,6,9)(H3,5,7,8)",
        "InChIKey": null,
        "Canonical SMILES": "O=C(N)C1=CNN=C1N",
        "Molecular Formula": "C<sub>4</sub>H<sub>6</sub>N<sub>4</sub>O",
        "Molecular Mass": "126.12",
        "Melting Point": "187-189 °C"
    }
}