{
    "cas_no": "32795-84-9",
    "key_name": "7-Bromobenz[<em>a</em>]anthracene",
    "cn_name": "溴苯基蒽;",
    "alternate_name": "Benz[<em>a</em>]anthracene, 7-bromo-;7-Bromobenz[<em>a</em>]anthracene;NSC 30995;7-Bromobenzo[<em>a</em>]anthracene;7-Bromotetraphene",
    "duplicated_cas_no": "",
    "SMILES": "BrC=1C=2C(=C3C(=CC2)C=CC=C3)C=C4C1C=CC=C4",
    "meta_data": {
        "InChI": "InChI=1S/C18H11Br/c19-18-15-8-4-2-6-13(15)11-17-14-7-3-1-5-12(14)9-10-16(17)18/h1-11H",
        "InChIKey": null,
        "Canonical SMILES": "BrC1=C2C=CC=CC2=CC=3C=4C=CC=CC4C=CC13",
        "Molecular Formula": "C<sub>18</sub>H<sub>11</sub>Br",
        "Molecular Mass": "307.18",
        "Melting Point": "151-152 °C"
    }
}