{
    "cas_no": "538-41-0",
    "key_name": "4,4′-Diaminoazobenzene",
    "cn_name": "4,4\"-偶氮二苯胺;",
    "alternate_name": "Benzenamine, 4,4′-(1,2-diazenediyl)bis-;Aniline, 4,4′-azodi-;Benzenamine, 4,4′-azobis-;4,4′-(1,2-Diazenediyl)bis[benzenamine];<em>p</em>-Azoaniline;4,4′-Azodianiline;<em>p</em>-Diaminoazobenzene;4,4′-Diaminoazobenzene;<em>p</em>′-Amino-<em>p</em>-aminoazobenzene;<em>p</em>,<em>p</em>′-Diaminoazobenzene;NSC 17103;4-(4-Aminophenyl)azoaniline",
    "duplicated_cas_no": "",
    "SMILES": "N(=NC1=CC=C(N)C=C1)C2=CC=C(N)C=C2",
    "meta_data": {
        "InChI": "InChI=1S/C12H12N4/c13-9-1-5-11(6-2-9)15-16-12-7-3-10(14)4-8-12/h1-8H,13-14H2",
        "InChIKey": null,
        "Canonical SMILES": "N(=NC1=CC=C(N)C=C1)C2=CC=C(N)C=C2",
        "Molecular Formula": "C<sub>12</sub>H<sub>12</sub>N<sub>4</sub>",
        "Molecular Mass": "212.25",
        "Melting Point": "250.5 °C"
    }
}