{
    "cas_no": "104934-50-1",
    "key_name": "Poly(3-hexylthiophene)",
    "cn_name": "3-己基取代聚噻吩;",
    "alternate_name": "Thiophene, 3-hexyl-, homopolymer;Poly(3-hexylthiophene);Poly(3-<em>n</em>-hexylthiophene);3-Hexylthiophene homopolymer;PAT 6;4002E;Poly(hexylthiophene);3-Hexylthiophene polymer",
    "duplicated_cas_no": "442554-19-0;568598-95-8;1084894-00-7;1256383-71-7",
    "SMILES": "C(CCCCC)C=1C=CSC1",
    "meta_data": {
        "InChI": "InChI=1S/C10H16S/c1-2-3-4-5-6-10-7-8-11-9-10/h7-9H,2-6H2,1H3",
        "InChIKey": null,
        "Canonical SMILES": "S1C=CC(=C1)CCCCCC",
        "Molecular Formula": "(C<sub>10</sub>H<sub>16</sub>S)<sub>x</sub>",
        "Molecular Mass": "",
        "Melting Point": "170-190 °C",
        "Density": "1.02 g/cm³"
    }
}