{
    "cas_no": "158876-82-5",
    "key_name": "Rupatadine",
    "cn_name": "卢帕他定;8-氯-6,11-二氢-11-[1-[(5-甲基-3-吡啶基)甲基]-4-哌啶亚基]-5H-苯并[5,6]环庚烷并[1,2-b]吡啶;",
    "alternate_name": "5<em>H</em>-Benzo[5,6]cyclohepta[1,2-<em>b</em>]pyridine, 8-chloro-6,11-dihydro-11-[1-[(5-methyl-3-pyridinyl)methyl]-4-piperidinylidene]-;8-Chloro-6,11-dihydro-11-[1-[(5-methyl-3-pyridinyl)methyl]-4-piperidinylidene]-5<em>H</em>-benzo[5,6]cyclohepta[1,2-<em>b</em>]pyridine;Rupatadine;Rupafin;Rinialer;Rupax;Alergoliber;Pafinur",
    "duplicated_cas_no": "",
    "SMILES": "ClC=1C=C2C(C(C=3C(CC2)=CC=CN3)=C4CCN(CC=5C=C(C)C=NC5)CC4)=CC1",
    "meta_data": {
        "InChI": "InChI=1S/C26H26ClN3/c1-18-13-19(16-28-15-18)17-30-11-8-20(9-12-30)25-24-7-6-23(27)14-22(24)5-4-21-3-2-10-29-26(21)25/h2-3,6-7,10,13-16H,4-5,8-9,11-12,17H2,1H3",
        "InChIKey": null,
        "Canonical SMILES": "ClC=1C=CC2=C(C1)CCC=3C=CC=NC3C2=C4CCN(CC=5C=NC=C(C5)C)CC4",
        "Molecular Formula": "C<sub>26</sub>H<sub>26</sub>ClN<sub>3</sub>",
        "Molecular Mass": "415.96",
        "Melting Point": "136-137 °C"
    }
}