{
    "cas_no": "2031-23-4",
    "key_name": "Piperazine, 1-(3-chloropropyl)-4-methyl-, hydrochloride (1:2)",
    "cn_name": "1-(3-氯丙基)-4-甲基哌嗪二盐酸盐;",
    "alternate_name": "Piperazine, 1-(3-chloropropyl)-4-methyl-, hydrochloride (1:2);Piperazine, 1-(3-chloropropyl)-4-methyl-, dihydrochloride;3-(4-Methyl-1-piperazinyl)propyl chloride dihydrochloride;1-(3-Chloropropyl)-4-methylpiperazine dihydrochloride;4-(3-Chloropropyl)-1-methylpiperazine dihydrochloride",
    "duplicated_cas_no": "",
    "SMILES": "C(CCCl)N1CCN(C)CC1.Cl",
    "meta_data": {
        "InChI": "InChI=1S/C8H17ClN2.2ClH/c1-10-5-7-11(8-6-10)4-2-3-9;;/h2-8H2,1H3;2*1H",
        "InChIKey": null,
        "Canonical SMILES": "Cl.ClCCCN1CCN(C)CC1",
        "Molecular Formula": "C<sub>8</sub>H<sub>17</sub>ClN<sub>2</sub>.2ClH",
        "Molecular Mass": "",
        "Melting Point": "255-257 °C (decomp)"
    }
}