{
    "cas_no": "29124-57-0",
    "key_name": "2-Amino-5-bromobenzaldehyde",
    "cn_name": "2-氨基-5-溴苯甲醛;",
    "alternate_name": "Benzaldehyde, 2-amino-5-bromo-;Anthranilaldehyde, 5-bromo-;2-Amino-5-bromobenzaldehyde;4-Bromo-2-formylaniline",
    "duplicated_cas_no": "",
    "SMILES": "C(=O)C1=C(N)C=CC(Br)=C1",
    "meta_data": {
        "InChI": "InChI=1S/C7H6BrNO/c8-6-1-2-7(9)5(3-6)4-10/h1-4H,9H2",
        "InChIKey": null,
        "Canonical SMILES": "O=CC1=CC(Br)=CC=C1N",
        "Molecular Formula": "C<sub>7</sub>H<sub>6</sub>BrNO",
        "Molecular Mass": "200.03",
        "Melting Point": "74-76 °C"
    }
}