{
    "cas_no": "91367-05-4",
    "key_name": "Benzoic acid, 4-chloro-3-methyl-, methyl ester",
    "cn_name": "3-甲基-4-氯苯甲酸甲酯;4-氯-3-甲基苯甲酸甲酯;",
    "alternate_name": "Benzoic acid, 4-chloro-3-methyl-, methyl ester;<em>m</em>-Toluic acid, 4-chloro-, methyl ester;4-Chloro-3-methylbenzoic acid methyl ester;Methyl 4-chloro-3-methylbenzoate",
    "duplicated_cas_no": "",
    "SMILES": "C(OC)(=O)C1=CC(C)=C(Cl)C=C1",
    "meta_data": {
        "InChI": "InChI=1S/C9H9ClO2/c1-6-5-7(9(11)12-2)3-4-8(6)10/h3-5H,1-2H3",
        "InChIKey": null,
        "Canonical SMILES": "O=C(OC)C1=CC=C(Cl)C(=C1)C",
        "Molecular Formula": "C<sub>9</sub>H<sub>9</sub>ClO<sub>2</sub>",
        "Molecular Mass": "184.62",
        "Melting Point": "76-78 °C"
    }
}