{
    "cas_no": "26227-54-3",
    "key_name": "Cyclohexanamine, hydrobromide (1:1)",
    "cn_name": "环己胺氢溴酸盐;环己胺溴氢酸盐;",
    "alternate_name": "Cyclohexanamine, hydrobromide (1:1);Cyclohexylamine, hydrobromide;Cyclohexanamine, hydrobromide;Cyclohexylammonium bromide;NSC 613661",
    "duplicated_cas_no": "",
    "SMILES": "NC1CCCCC1.Br",
    "meta_data": {
        "InChI": "InChI=1S/C6H13N.BrH/c7-6-4-2-1-3-5-6;/h6H,1-5,7H2;1H",
        "InChIKey": null,
        "Canonical SMILES": "Br.NC1CCCCC1",
        "Molecular Formula": "C<sub>6</sub>H<sub>13</sub>N.BrH",
        "Molecular Mass": "",
        "Melting Point": "196-197 °C"
    }
}