{
    "cas_no": "73069-13-3",
    "key_name": "Atractylenolide I",
    "cn_name": null,
    "alternate_name": "Naphtho[2,3-<em>b</em>]furan-2(4<em>H</em>)-one, 4a,5,6,7,8,8a-hexahydro-3,8a-dimethyl-5-methylene-, (4a<em>S</em>,8a<em>S</em>)-;Naphtho[2,3-<em>b</em>]furan-2(4<em>H</em>)-one, 4a,5,6,7,8,8a-hexahydro-3,8a-dimethyl-5-methylene-, (4a<em>S</em>-<em>trans</em>)-;(4a<em>S</em>,8a<em>S</em>)-4a,5,6,7,8,8a-Hexahydro-3,8a-dimethyl-5-methylenenaphtho[2,3-<em>b</em>]furan-2(4<em>H</em>)-one;Atractylenolide I",
    "duplicated_cas_no": "",
    "SMILES": "C[C@]12[C@@](CC=3C(=C1)OC(=O)C3C)(C(=C)CCC2)[H]",
    "meta_data": {
        "InChI": "InChI=1S/C15H18O2/c1-9-5-4-6-15(3)8-13-11(7-12(9)15)10(2)14(16)17-13/h8,12H,1,4-7H2,2-3H3/t12-,15+/m0/s1",
        "InChIKey": null,
        "Canonical SMILES": "O=C1OC2=CC3(C)CCCC(=C)C3CC2=C1C",
        "Molecular Formula": "C<sub>15</sub>H<sub>18</sub>O<sub>2</sub>",
        "Molecular Mass": "230.30",
        "Melting Point": "121-123 °C"
    }
}