{
    "cas_no": "1809-19-4",
    "key_name": "Dibutyl phosphite",
    "cn_name": "亚磷酸二丁酯;亚磷酸二正丁酯;",
    "alternate_name": "Phosphonic acid, dibutyl ester;Butyl phosphite ((C<sub>4</sub>H<sub>9</sub>O)<sub>2</sub>(HO)P);Butyl phosphonate ((BuO)<sub>2</sub>HPO);Dibutyl phosphite;Dibutyl phosphonate;Di-<em>n</em>-butyl hydrogen phosphite;Phosphorous acid, dibutyl ester;Dibutyl hydrogen phosphite;Butyl alcohol, hydrogen phosphite;Dibutoxyphosphine oxide;Butyl phosphonate ((C<sub>4</sub>H<sub>9</sub>O)<sub>2</sub>HPO);DBP 1;Di-<em>n</em>-butyl phosphite;NSC 2668;Duraphos DBHP;T 304",
    "duplicated_cas_no": "1936453-03-0;2014388-38-4",
    "SMILES": "O(P(OCCCC)=O)CCCC",
    "meta_data": {
        "InChI": "InChI=1S/C8H19O3P/c1-3-5-7-10-12(9)11-8-6-4-2/h12H,3-8H2,1-2H3",
        "InChIKey": null,
        "Canonical SMILES": "O=P(OCCCC)OCCCC",
        "Molecular Formula": "C<sub>8</sub>H<sub>19</sub>O<sub>3</sub>P",
        "Molecular Mass": "194.21",
        "Boiling Point": "95 °C @ Press: 1 Torr",
        "Melting Point": "70.5 °C",
        "Density": "0.9860 g/cm³ @ Temp: 25 °C"
    }
}