{
    "cas_no": "555-89-5",
    "key_name": "Bis(<em>p</em>-chlorophenoxy)methane",
    "cn_name": "杀螨醚;",
    "alternate_name": "Benzene, 1,1′-[methylenebis(oxy)]bis[4-chloro-;Methane, bis(<em>p</em>-chlorophenoxy)-;1,1′-[Methylenebis(oxy)]bis[4-chlorobenzene];K 1875;Bis(<em>p</em>-chlorophenoxy)methane;DCPM;Oxythane;Neotran;Bis(4-chlorophenoxy)methane;NSC 6172;Mikazine",
    "duplicated_cas_no": "620973-17-3",
    "SMILES": "O(COC1=CC=C(Cl)C=C1)C2=CC=C(Cl)C=C2",
    "meta_data": {
        "InChI": "InChI=1S/C13H10Cl2O2/c14-10-1-5-12(6-2-10)16-9-17-13-7-3-11(15)4-8-13/h1-8H,9H2",
        "InChIKey": null,
        "Canonical SMILES": "ClC1=CC=C(OCOC2=CC=C(Cl)C=C2)C=C1",
        "Molecular Formula": "C<sub>13</sub>H<sub>10</sub>Cl<sub>2</sub>O<sub>2</sub>",
        "Molecular Mass": "269.12",
        "Boiling Point": "189-194 °C",
        "Melting Point": "70.5 °C"
    }
}