{
    "cas_no": "37535-50-5",
    "key_name": "(α<em>R</em>)-α-Amino-4-pyridinepropanoic acid",
    "cn_name": null,
    "alternate_name": "4-Pyridinepropanoic acid, α-amino-, (α<em>R</em>)-;4-Pyridinepropanoic acid, α-amino-, (<em>R</em>)-;(α<em>R</em>)-α-Amino-4-pyridinepropanoic acid;3-(4-Pyridyl)-<span class=\"text-smallcaps\">D</span>-alanine;β-4-Pyridyl-<span class=\"text-smallcaps\">D</span>-alanine;(2R)-2-Amino-3-(pyridin-4-yl)propanoic acid;(R)-2-Amino-3-(pyridin-4-yl)propanoicacid;(R)-2-Amino-3-(pyridin-4-yl)propanoic acid",
    "duplicated_cas_no": "",
    "SMILES": "C([C@H](C(O)=O)N)C=1C=CN=CC1",
    "meta_data": {
        "InChI": "InChI=1S/C8H10N2O2/c9-7(8(11)12)5-6-1-3-10-4-2-6/h1-4,7H,5,9H2,(H,11,12)/t7-/m1/s1",
        "InChIKey": null,
        "Canonical SMILES": "O=C(O)C(N)CC=1C=CN=CC1",
        "Molecular Formula": "C<sub>8</sub>H<sub>10</sub>N<sub>2</sub>O<sub>2</sub>",
        "Molecular Mass": "166.18",
        "Melting Point": "280 °C (decomp)"
    }
}