{
    "cas_no": "64241-34-5",
    "key_name": "Cadralazine",
    "cn_name": "卡屈嗪;卡浊拉嗪;卡屈嗪;卡柔比星;2-[6-[乙基(2-羟丙基)氨基]-3-哒嗪基]肼羧酸乙酯;卡屈拉嗪;",
    "alternate_name": "Hydrazinecarboxylic acid, 2-[6-[ethyl(2-hydroxypropyl)amino]-3-pyridazinyl]-, ethyl ester;ISF 2469;Cadralazine;DC 826;CGP 18684E;Presmode;Cadral;Cadraten;Cadrilan",
    "duplicated_cas_no": "",
    "SMILES": "N(CC(C)O)(CC)C1=CC=C(NNC(OCC)=O)N=N1",
    "meta_data": {
        "InChI": "InChI=1S/C12H21N5O3/c1-4-17(8-9(3)18)11-7-6-10(13-15-11)14-16-12(19)20-5-2/h6-7,9,18H,4-5,8H2,1-3H3,(H,13,14)(H,16,19)",
        "InChIKey": null,
        "Canonical SMILES": "O=C(OCC)NNC1=NN=C(C=C1)N(CC)CC(O)C",
        "Molecular Formula": "C<sub>12</sub>H<sub>21</sub>N<sub>5</sub>O<sub>3</sub>",
        "Molecular Mass": "283.33",
        "Melting Point": "160-162 °C"
    }
}