{
    "cas_no": "12030-24-9",
    "key_name": "Indium sulfide (In<sub>2</sub>S<sub>3</sub>)",
    "cn_name": null,
    "alternate_name": "Indium sulfide (In<sub>2</sub>S<sub>3</sub>);Indium sesquisulfide;Indium(3+) sulfide;Indium sulfide (2:3)",
    "duplicated_cas_no": "2996842-19-2",
    "SMILES": "",
    "meta_data": {
        "InChI": "",
        "InChIKey": null,
        "Canonical SMILES": "",
        "Molecular Formula": "In<sub>2</sub>S<sub>3</sub>",
        "Molecular Mass": "",
        "Melting Point": "1050 °C"
    }
}