{
    "uri": "substance/pt/12030249",
    "rn": "12030-24-9",
    "name": "Indium sulfide (In<sub>2</sub>S<sub>3</sub>)",
    "images": [],
    "inchi": "",
    "inchiKey": "",
    "smile": "",
    "canonicalSmile": "",
    "molecularFormula": "In<sub>2</sub>S<sub>3</sub>",
    "molecularMass": "",
    "experimentalProperties": [
        {
            "name": "Melting Point",
            "property": "1050 °C",
            "sourceNumber": 1
        }
    ],
    "propertyCitations": [
        {
            "docUri": "document/pt/document/23271558",
            "sourceNumber": 1,
            "source": "Thiel, A.; Zeitschrift fuer Anorganische und Allgemeine Chemie, (1928), 172, 353-71, CAplus"
        }
    ],
    "synonyms": [
        "Indium sulfide (In<sub>2</sub>S<sub>3</sub>)",
        "Indium sesquisulfide",
        "Indium(3+) sulfide",
        "Indium sulfide (2:3)"
    ],
    "replacedRns": [
        "2996842-19-2"
    ],
    "hasMolfile": false,
    "source": "https://commonchemistry.cas.org/detail?cas_rn=12030-24-9"
}