{
    "cas_no": "599-94-0",
    "key_name": "1,1′-[1,2-Ethanediylbis(sulfonyl)]bis[benzene]",
    "cn_name": null,
    "alternate_name": "Benzene, 1,1′-[1,2-ethanediylbis(sulfonyl)]bis-;Ethane, 1,2-bis(phenylsulfonyl)-;1,1′-[1,2-Ethanediylbis(sulfonyl)]bis[benzene];1,2-Bis(phenylsulfonyl)ethane;Ethylenebis[phenyl sulfone];1,2-Bis(benzenesulfonyl)ethane;NSC 2716;2-(Benzenesulfonyl)ethylsulfonylbenzene",
    "duplicated_cas_no": "",
    "SMILES": "S(CCS(=O)(=O)C1=CC=CC=C1)(=O)(=O)C2=CC=CC=C2",
    "meta_data": {
        "InChI": "InChI=1S/C14H14O4S2/c15-19(16,13-7-3-1-4-8-13)11-12-20(17,18)14-9-5-2-6-10-14/h1-10H,11-12H2",
        "InChIKey": null,
        "Canonical SMILES": "O=S(=O)(C=1C=CC=CC1)CCS(=O)(=O)C=2C=CC=CC2",
        "Molecular Formula": "C<sub>14</sub>H<sub>14</sub>O<sub>4</sub>S<sub>2</sub>",
        "Molecular Mass": "310.39",
        "Melting Point": "179-180 °C"
    }
}