{
    "cas_no": "98-71-5",
    "key_name": "4-Hydrazinobenzenesulfonic acid",
    "cn_name": "4-肼基苯磺酸;苯肼-4-磺酸;对磺酸基苯肼;",
    "alternate_name": "Benzenesulfonic acid, 4-hydrazinyl-;Benzenesulfonic acid, <em>p</em>-hydrazino-;Benzenesulfonic acid, 4-hydrazino-;4-Hydrazinylbenzenesulfonic acid;<em>p</em>-Hydrazinobenzenesulfonic acid;<em>p</em>-Sulfophenylhydrazine;Phenylhydrazine-<em>p</em>-sulfonic acid;4-Sulfophenylhydrazine;Phenylhydrazine-4-sulfonic acid;4-Hydrazinobenzenesulfonic acid;<em>p</em>-Hydrazinophenylsulfonic acid;NSC 1608;Sulfanilic acid hydrazine",
    "duplicated_cas_no": "1171310-21-6",
    "SMILES": "S(=O)(=O)(O)C1=CC=C(NN)C=C1",
    "meta_data": {
        "InChI": "InChI=1S/C6H8N2O3S/c7-8-5-1-3-6(4-2-5)12(9,10)11/h1-4,8H,7H2,(H,9,10,11)",
        "InChIKey": null,
        "Canonical SMILES": "O=S(=O)(O)C1=CC=C(C=C1)NN",
        "Molecular Formula": "C<sub>6</sub>H<sub>8</sub>N<sub>2</sub>O<sub>3</sub>S",
        "Molecular Mass": "188.20",
        "Melting Point": "286 °C"
    }
}