{
    "cas_no": "2689-69-2",
    "key_name": "2-Thiophenecarboxylic acid, tetrahydro-3-oxo-, methyl ester",
    "cn_name": "3-氧基四氢噻吩-2-羧酸甲酯;3-氧基四氢噻吩-2-羧酸甲酯;",
    "alternate_name": "2-Thiophenecarboxylic acid, tetrahydro-3-oxo-, methyl ester;Methyl tetrahydro-3-oxo-2-thiophenecarboxylate;Methyl 3-oxo-2,3,4,5-tetrahydrothiophene-2-carboxylate;Methyl 3-oxotetrahydrothiophene-2-carboxylate",
    "duplicated_cas_no": "92630-01-8",
    "SMILES": "C(OC)(=O)C1C(=O)CCS1",
    "meta_data": {
        "InChI": "InChI=1S/C6H8O3S/c1-9-6(8)5-4(7)2-3-10-5/h5H,2-3H2,1H3",
        "InChIKey": null,
        "Canonical SMILES": "O=C(OC)C1SCCC1=O",
        "Molecular Formula": "C<sub>6</sub>H<sub>8</sub>O<sub>3</sub>S",
        "Molecular Mass": "160.19",
        "Boiling Point": "122-124 °C @ Press: 2.4 Torr"
    }
}