{
    "cas_no": "71985-81-4",
    "key_name": "3-Piperidineacetic acid, hydrochloride (1:1)",
    "cn_name": "3-哌啶乙酸盐酸盐;",
    "alternate_name": "3-Piperidineacetic acid, hydrochloride (1:1);3-Piperidineacetic acid, hydrochloride;3-Piperidylacetic Acid Hydrochloride;2-(Piperidin-3-yl)acetic acid hydrochloride",
    "duplicated_cas_no": "",
    "SMILES": "C(C(O)=O)C1CCCNC1.Cl",
    "meta_data": {
        "InChI": "InChI=1S/C7H13NO2.ClH/c9-7(10)4-6-2-1-3-8-5-6;/h6,8H,1-5H2,(H,9,10);1H",
        "InChIKey": null,
        "Canonical SMILES": "Cl.O=C(O)CC1CNCCC1",
        "Molecular Formula": "C<sub>7</sub>H<sub>13</sub>NO<sub>2</sub>.ClH",
        "Molecular Mass": "",
        "Melting Point": "202-204 °C"
    }
}