{
    "cas_no": "2595-05-3",
    "key_name": "1,2:5,6-Bis-<em>O</em>-(1-methylethylidene)-α-<span class=\"text-smallcaps\">D</span>-allofuranose",
    "cn_name": null,
    "alternate_name": "α-<span class=\"text-smallcaps\">D</span>-Allofuranose, 1,2:5,6-bis-<em>O</em>-(1-methylethylidene)-;Allofuranose, 1,2:5,6-di-<em>O</em>-isopropylidene-, α-<span class=\"text-smallcaps\">D</span>-;Furo[2,3-<em>d</em>]-1,3-dioxole, α-<span class=\"text-smallcaps\">D</span>-allofuranose deriv.;1,2:5,6-Bis-<em>O</em>-(1-methylethylidene)-α-<span class=\"text-smallcaps\">D</span>-allofuranose;1,2:5,6-Di-<em>O</em>-isopropylidene-α-<span class=\"text-smallcaps\">D</span>-allofuranose;Diacetone-<span class=\"text-smallcaps\">D</span>-allofuranose;1,2:5,6-Diacetone-<span class=\"text-smallcaps\">D</span>-allofuranose",
    "duplicated_cas_no": "76960-63-9;108146-38-9;1608456-07-0",
    "SMILES": "O[C@H]1[C@@]2([C@](O[C@@]1([C@]3(COC(C)(C)O3)[H])[H])(OC(C)(C)O2)[H])[H]",
    "meta_data": {
        "InChI": "InChI=1S/C12H20O6/c1-11(2)14-5-6(16-11)8-7(13)9-10(15-8)18-12(3,4)17-9/h6-10,13H,5H2,1-4H3/t6-,7-,8-,9-,10-/m1/s1",
        "InChIKey": null,
        "Canonical SMILES": "OC1C(OC2OC(OC21)(C)C)C3OC(OC3)(C)C",
        "Molecular Formula": "C<sub>12</sub>H<sub>20</sub>O<sub>6</sub>",
        "Molecular Mass": "260.28",
        "Melting Point": "75-76 °C"
    }
}