{
    "cas_no": "2528-16-7",
    "key_name": "Monobenzyl phthalate",
    "cn_name": "邻苯二甲酸单苄酯;邻苯二甲酸单苄酯;",
    "alternate_name": "1,2-Benzenedicarboxylic acid, 1-(phenylmethyl) ester;Phthalic acid, benzyl ester;1,2-Benzenedicarboxylic acid, mono(phenylmethyl) ester;Monobenzyl phthalate;2-[(Benzyloxy)carbonyl]benzoic acid;Benzyl hydrogen phthalate;NSC 402008;2-Phenylmethoxycarbonylbenzoic acid",
    "duplicated_cas_no": "",
    "SMILES": "C(OCC1=CC=CC=C1)(=O)C2=C(C(O)=O)C=CC=C2",
    "meta_data": {
        "InChI": "InChI=1S/C15H12O4/c16-14(17)12-8-4-5-9-13(12)15(18)19-10-11-6-2-1-3-7-11/h1-9H,10H2,(H,16,17)",
        "InChIKey": null,
        "Canonical SMILES": "O=C(O)C=1C=CC=CC1C(=O)OCC=2C=CC=CC2",
        "Molecular Formula": "C<sub>15</sub>H<sub>12</sub>O<sub>4</sub>",
        "Molecular Mass": "256.25",
        "Melting Point": "104-105.5 °C"
    }
}