{
    "cas_no": "33265-61-1",
    "key_name": "1-(2-Nitrophenyl)-1<em>H</em>-pyrrole-2-carboxaldehyde",
    "cn_name": null,
    "alternate_name": "1<em>H</em>-Pyrrole-2-carboxaldehyde, 1-(2-nitrophenyl)-;Pyrrole-2-carboxaldehyde, 1-(<em>o</em>-nitrophenyl)-;1-(2-Nitrophenyl)-1<em>H</em>-pyrrole-2-carboxaldehyde;1-(2-Nitrophenyl)pyrrole-2-carboxaldehyde;1-(2-Nitrophenyl)pyrrole-2-carbaldehyde",
    "duplicated_cas_no": "",
    "SMILES": "N(=O)(=O)C1=C(C=CC=C1)N2C(C=O)=CC=C2",
    "meta_data": {
        "InChI": "InChI=1S/C11H8N2O3/c14-8-9-4-3-7-12(9)10-5-1-2-6-11(10)13(15)16/h1-8H",
        "InChIKey": null,
        "Canonical SMILES": "O=CC1=CC=CN1C=2C=CC=CC2N(=O)=O",
        "Molecular Formula": "C<sub>11</sub>H<sub>8</sub>N<sub>2</sub>O<sub>3</sub>",
        "Molecular Mass": "216.19",
        "Melting Point": "128-130 °C"
    }
}