{
    "cas_no": "20207-16-3",
    "key_name": "Butanoic acid, 2-amino-3-oxo-, ethyl ester, hydrochloride (1:1)",
    "cn_name": null,
    "alternate_name": "Butanoic acid, 2-amino-3-oxo-, ethyl ester, hydrochloride (1:1);Acetoacetic acid, 2-amino-, ethyl ester, hydrochloride;Butanoic acid, 2-amino-3-oxo-, ethyl ester, hydrochloride;α-Acetylglycine ethyl ester hydrochloride;Ethyl 2-amino-3-oxobutanoate hydrochloride;Ethyl α-aminoacetoacetate hydrochloride;Ethyl 2-aminoacetoacetate hydrochloride;2-Amino-3-oxobutanoic acid ethyl ester hydrochloride",
    "duplicated_cas_no": "62282-17-1",
    "SMILES": "C(C(OCC)=O)(C(C)=O)N.Cl",
    "meta_data": {
        "InChI": "InChI=1S/C6H11NO3.ClH/c1-3-10-6(9)5(7)4(2)8;/h5H,3,7H2,1-2H3;1H",
        "InChIKey": null,
        "Canonical SMILES": "Cl.O=C(OCC)C(N)C(=O)C",
        "Molecular Formula": "C<sub>6</sub>H<sub>11</sub>NO<sub>3</sub>.ClH",
        "Molecular Mass": "",
        "Melting Point": "113.5-114.5 °C"
    }
}