{
    "cas_no": "1003-73-2",
    "key_name": "3-Methylpyridine <em>N</em>-oxide",
    "cn_name": "3-甲基吡啶氧化物;",
    "alternate_name": "Pyridine, 3-methyl-, 1-oxide;3-Picoline, 1-oxide;3-Methylpyridine 1-oxide;3-Picoline <em>N</em>-oxide;β-Picoline <em>N</em>-oxide;β-Picoline 1-oxide;β-Picoline oxide;3-Methylpyridine <em>N</em>-oxide;NSC 18254;3-Methylpyridin-1-ium-1-olate",
    "duplicated_cas_no": "",
    "SMILES": "CC1=CN(=O)=CC=C1",
    "meta_data": {
        "InChI": "InChI=1S/C6H7NO/c1-6-3-2-4-7(8)5-6/h2-5H,1H3",
        "InChIKey": null,
        "Canonical SMILES": "O=N=1C=CC=C(C1)C",
        "Molecular Formula": "C<sub>6</sub>H<sub>7</sub>NO",
        "Molecular Mass": "109.13",
        "Boiling Point": "148 °C",
        "Melting Point": "39 °C"
    }
}