{
    "cas_no": "26615-21-4",
    "key_name": "Zotepine",
    "cn_name": "佐替平;唑替平;2-[(8-氯二苯并[b,f]硫杂卓-10-基)氧基]-N,N-二甲基乙胺;",
    "alternate_name": "Ethanamine, 2-[(8-chlorodibenzo[<em>b</em>,<em>f</em>]thiepin-10-yl)oxy]-<em>N</em>,<em>N</em>-dimethyl-;Ethylamine, 2-[(8-chlorodibenzo[<em>b</em>,<em>f</em>]thiepin-10-yl)oxy]-<em>N</em>,<em>N</em>-dimethyl-;Dibenzo[<em>b</em>,<em>f</em>]thiepin, ethanamine deriv.;2-[(8-Chlorodibenzo[<em>b</em>,<em>f</em>]thiepin-10-yl)oxy]-<em>N</em>,<em>N</em>-dimethylethanamine;Zotepine;Lodopin;Nipolept;Setous;Losizopilon;Zoleptil",
    "duplicated_cas_no": "",
    "SMILES": "O(CCN(C)C)C=1C=2C(SC=3C(C1)=CC=CC3)=CC=C(Cl)C2",
    "meta_data": {
        "InChI": "InChI=1S/C18H18ClNOS/c1-20(2)9-10-21-16-11-13-5-3-4-6-17(13)22-18-8-7-14(19)12-15(16)18/h3-8,11-12H,9-10H2,1-2H3",
        "InChIKey": null,
        "Canonical SMILES": "ClC=1C=CC=2SC=3C=CC=CC3C=C(OCCN(C)C)C2C1",
        "Molecular Formula": "C<sub>18</sub>H<sub>18</sub>ClNOS",
        "Molecular Mass": "331.86",
        "Melting Point": "90-91 °C"
    }
}