{
    "cas_no": "1530-03-6",
    "key_name": "1,1-Diphenylpropane",
    "cn_name": "1,1-二苯基丙烷;",
    "alternate_name": "Benzene, 1,1′-propylidenebis-;Propane, 1,1-diphenyl-;1,1′-Propylidenebis[benzene];1,1-Diphenylpropane;Propan-1,1-diyldibenzene",
    "duplicated_cas_no": "",
    "SMILES": "C(CC)(C1=CC=CC=C1)C2=CC=CC=C2",
    "meta_data": {
        "InChI": "InChI=1S/C15H16/c1-2-15(13-9-5-3-6-10-13)14-11-7-4-8-12-14/h3-12,15H,2H2,1H3",
        "InChIKey": null,
        "Canonical SMILES": "C=1C=CC(=CC1)C(C=2C=CC=CC2)CC",
        "Molecular Formula": "C<sub>15</sub>H<sub>16</sub>",
        "Molecular Mass": "196.29",
        "Boiling Point": "281.6 °C",
        "Melting Point": "13.3 °C",
        "Density": "0.9881 g/cm³ @ Temp: 24 °C"
    }
}