{
    "cas_no": "503615-07-4",
    "key_name": "Ethyl 6-(4-aminophenyl)-4,5,6,7-tetrahydro-1-(4-methoxyphenyl)-7-oxo-1<em>H</em>-pyrazolo[3,4-<em>c</em>]pyridine-3-carboxylate",
    "cn_name": null,
    "alternate_name": "1<em>H</em>-Pyrazolo[3,4-<em>c</em>]pyridine-3-carboxylic acid, 6-(4-aminophenyl)-4,5,6,7-tetrahydro-1-(4-methoxyphenyl)-7-oxo-, ethyl ester;Ethyl 6-(4-aminophenyl)-4,5,6,7-tetrahydro-1-(4-methoxyphenyl)-7-oxo-1<em>H</em>-pyrazolo[3,4-<em>c</em>]pyridine-3-carboxylate;6-(4-Aminophenyl)-1-(4-methoxyphenyl)-7-oxo-4,5,6,7-tetrahydro-1<em>H</em>-pyrazolo[3,4-<em>c</em>]pyridine-3-carboxylic acid ethyl ester",
    "duplicated_cas_no": "",
    "SMILES": "O=C1C=2N(N=C(C(OCC)=O)C2CCN1C3=CC=C(N)C=C3)C4=CC=C(OC)C=C4",
    "meta_data": {
        "InChI": "InChI=1S/C22H22N4O4/c1-3-30-22(28)19-18-12-13-25(15-6-4-14(23)5-7-15)21(27)20(18)26(24-19)16-8-10-17(29-2)11-9-16/h4-11H,3,12-13,23H2,1-2H3",
        "InChIKey": null,
        "Canonical SMILES": "O=C(OCC)C1=NN(C2=CC=C(OC)C=C2)C=3C(=O)N(C4=CC=C(N)C=C4)CCC13",
        "Molecular Formula": "C<sub>22</sub>H<sub>22</sub>N<sub>4</sub>O<sub>4</sub>",
        "Molecular Mass": "406.43",
        "Melting Point": "150.6-152.3 °C"
    }
}