{
    "cas_no": "2452-01-9",
    "key_name": "Zinc laurate",
    "cn_name": "月桂酸锌;月桂酸锌;",
    "alternate_name": "Dodecanoic acid, zinc salt (2:1);Zinc laurate;Lauric acid, zinc salt;Dodecanoic acid, zinc salt;Zinc dilaurate;Zinc dodecanoate;Z 12;Zinc bis(dodecanoate);Z 12 (salt);LZ-P;Zinc Laurate GP;ZS 3;Powder Base L;EZ 303;ZN 3",
    "duplicated_cas_no": "",
    "SMILES": "C(CCCCCCCC)CCC(O)=O.[Zn]",
    "meta_data": {
        "InChI": "InChI=1S/C12H24O2.Zn/c1-2-3-4-5-6-7-8-9-10-11-12(13)14;/h2-11H2,1H3,(H,13,14);",
        "InChIKey": null,
        "Canonical SMILES": "[Zn].O=C(O)CCCCCCCCCCC",
        "Molecular Formula": "C<sub>12</sub>H<sub>24</sub>O<sub>2</sub>.<sup>1</sup>/<sub>2</sub>Zn",
        "Molecular Mass": "",
        "Melting Point": "130 °C",
        "Density": "1.09 g/cm³"
    }
}