{
    "cas_no": "107-00-6",
    "key_name": "1-Butyne",
    "cn_name": "1-丁炔;乙基乙炔;",
    "alternate_name": "1-Butyne;Ethylacetylene;Ethylethyne",
    "duplicated_cas_no": "",
    "SMILES": "C(C#C)C",
    "meta_data": {
        "InChI": "InChI=1S/C4H6/c1-3-4-2/h1H,4H2,2H3",
        "InChIKey": null,
        "Canonical SMILES": "C#CCC",
        "Molecular Formula": "C<sub>4</sub>H<sub>6</sub>",
        "Molecular Mass": "54.09",
        "Boiling Point": "8 °C",
        "Melting Point": "-125.7 °C",
        "Density": "0.668 g/cm³ @ Temp: 0 °C"
    }
}