{
    "cas_no": "496-15-1",
    "key_name": "Indoline",
    "cn_name": "吲哚啉;2,3-二氢-1H-吲哚;",
    "alternate_name": "1<em>H</em>-Indole, 2,3-dihydro-;Indoline;2,3-Dihydro-1<em>H</em>-indole;1-Azaindan;2,3-Dihydroindole;1<em>H</em>-Indoline",
    "duplicated_cas_no": "",
    "SMILES": "C1=2C(NCC1)=CC=CC2",
    "meta_data": {
        "InChI": "InChI=1S/C8H9N/c1-2-4-8-7(3-1)5-6-9-8/h1-4,9H,5-6H2",
        "InChIKey": null,
        "Canonical SMILES": "C=1C=CC2=C(C1)NCC2",
        "Molecular Formula": "C<sub>8</sub>H<sub>9</sub>N",
        "Molecular Mass": "119.16",
        "Boiling Point": "229 °C",
        "Density": "1.0672 g/cm³ @ Temp: 20 °C"
    }
}