{
    "cas_no": "4333-20-4",
    "key_name": "5-(1-Methylethyl)-3-phenyl-2-thioxo-4-imidazolidinone",
    "cn_name": null,
    "alternate_name": "4-Imidazolidinone, 5-(1-methylethyl)-3-phenyl-2-thioxo-;Hydantoin, 5-isopropyl-3-phenyl-2-thio-;5-(1-Methylethyl)-3-phenyl-2-thioxo-4-imidazolidinone;Valine phenylthiohydantoin;Valine 3-phenyl-2-thiohydantoin;Valyl phenylthiohydantoin;<span class=\"text-smallcaps\">DL</span>-Valine phenylthiohydantoin;Phenylthiohydantoin-<span class=\"text-smallcaps\">DL</span>-valine;<span class=\"text-smallcaps\">DL</span>-PTH-valine;3-Phenyl-5-propan-2-yl-2-sulfanylideneimidazolidin-4-one",
    "duplicated_cas_no": "31364-83-7",
    "SMILES": "O=C1N(C(=S)NC1C(C)C)C2=CC=CC=C2",
    "meta_data": {
        "InChI": "InChI=1S/C12H14N2OS/c1-8(2)10-11(15)14(12(16)13-10)9-6-4-3-5-7-9/h3-8,10H,1-2H3,(H,13,16)",
        "InChIKey": null,
        "Canonical SMILES": "O=C1N(C=2C=CC=CC2)C(=S)NC1C(C)C",
        "Molecular Formula": "C<sub>12</sub>H<sub>14</sub>N<sub>2</sub>OS",
        "Molecular Mass": "234.32",
        "Melting Point": "210-212 °C"
    }
}