{
    "cas_no": "4360-47-8",
    "key_name": "Cinnamonitrile",
    "cn_name": "(肉)桂腈;3-苯基-2-丙烯腈;肉桂腈, CIS + TRANS;肉桂腈,CIS+TRANS,97%;",
    "alternate_name": "2-Propenenitrile, 3-phenyl-;Cinnamonitrile;3-Phenyl-2-propenenitrile;Styryl cyanide;β-Cyanostyrene;3-Phenylacrylonitrile;1-Cyano-2-phenylethene;1-Cyano-2-phenylethylene;β-Phenylacrylonitrile;3-Phenylpropenenitrile;NSC 42118;NSC 49137;Cinnamyl nitrile",
    "duplicated_cas_no": "132721-34-7",
    "SMILES": "C(=CC#N)C1=CC=CC=C1",
    "meta_data": {
        "InChI": "InChI=1S/C9H7N/c10-8-4-7-9-5-2-1-3-6-9/h1-7H",
        "InChIKey": null,
        "Canonical SMILES": "N#CC=CC=1C=CC=CC1",
        "Molecular Formula": "C<sub>9</sub>H<sub>7</sub>N",
        "Molecular Mass": "129.16",
        "Boiling Point": "134-136 °C @ Press: 12 Torr",
        "Melting Point": "20.5 °C",
        "Density": "1.031 g/cm³ @ Temp: 20 °C"
    }
}