{
    "cas_no": "863-57-0",
    "key_name": "Sodium glycocholate",
    "cn_name": "甘氨胆酸钠; N-(3a,7a,12a-三羟基-24-羰基胆烷-24-基)甘氨酸钠盐; 甘胆酸钠;",
    "alternate_name": "Glycine, <em>N</em>-[(3α,5β,7α,12α)-3,7,12-trihydroxy-24-oxocholan-24-yl]-, sodium salt (1:1);Glycine, <em>N</em>-choloyl-, monosodium salt;Glycine, <em>N</em>-[(3α,5β,7α,12α)-3,7,12-trihydroxy-24-oxocholan-24-yl]-, monosodium salt;Cholane, glycine deriv.;Sodium glycocholate;Glycocholic acid sodium salt;Monosodium glycocholate;Sodium cholylglycinate;NSC 35609",
    "duplicated_cas_no": "165048-46-4",
    "SMILES": "O[C@H]1[C@]2([C@]3([C@@](C)([C@@]([C@@H](CCC(NCC(O)=O)=O)C)(CC3)[H])[C@@H](O)C[C@@]2([C@]4(C)[C@](C1)(C[C@H](O)CC4)[H])[H])[H])[H].[Na]",
    "meta_data": {
        "InChI": "InChI=1S/C26H43NO6.Na/c1-14(4-7-22(31)27-13-23(32)33)17-5-6-18-24-19(12-21(30)26(17,18)3)25(2)9-8-16(28)10-15(25)11-20(24)29;/h14-21,24,28-30H,4-13H2,1-3H3,(H,27,31)(H,32,33);/t14-,15+,16-,17-,18+,19+,20-,21+,24+,25+,26-;/m1./s1",
        "InChIKey": null,
        "Canonical SMILES": "[Na].O=C(O)CNC(=O)CCC(C)C1CCC2C3C(O)CC4CC(O)CCC4(C)C3CC(O)C12C",
        "Molecular Formula": "C<sub>26</sub>H<sub>43</sub>NO<sub>6</sub>.Na",
        "Molecular Mass": "",
        "Melting Point": "230-240 °C"
    }
}