{
    "cas_no": "5906-35-4",
    "key_name": "1-Aminohomopiperidine",
    "cn_name": "1-氨基哌啶;",
    "alternate_name": "1<em>H</em>-Azepin-1-amine, hexahydro-;1<em>H</em>-Azepine, 1-aminohexahydro-;Hexahydro-1<em>H</em>-azepin-1-amine;<em>N</em>-Aminohomopiperidine;<em>N</em>-Aminohexamethylenimine;1-Aminoperhydroazepine;1-Aminohexahydro-1<em>H</em>-azepine;1-Aminohexamethyleneimine;1,1-Hexamethylenehydrazine;1-Aminohexahydroazepine;<em>N</em>-Aminohexamethyleneimine;1-Aminohomopiperidine;<em>N</em>-Aminoazacycloheptane;<em>N</em>-Aminohexahydroazepine;NSC 221198;NSC 82329;<em>N</em>-Aminoperhydroazepine;(Azepan-1-yl)amine;1-Aminoazepane",
    "duplicated_cas_no": "",
    "SMILES": "NN1CCCCCC1",
    "meta_data": {
        "InChI": "InChI=1S/C6H14N2/c7-8-5-3-1-2-4-6-8/h1-7H2",
        "InChIKey": null,
        "Canonical SMILES": "NN1CCCCCC1",
        "Molecular Formula": "C<sub>6</sub>H<sub>14</sub>N<sub>2</sub>",
        "Molecular Mass": "114.19",
        "Boiling Point": "94-96 °C @ Press: 55 Torr",
        "Melting Point": "86.0-86.5 °C"
    }
}