{
    "cas_no": "769-28-8",
    "key_name": "3-Cyano-4,6-dimethyl-2-hydroxypyridine",
    "cn_name": "3-氰基-4,6-二甲基-2-羟基吡啶;2-羟基-3-氰基-4,6-二甲基吡啶;",
    "alternate_name": "3-Pyridinecarbonitrile, 1,2-dihydro-4,6-dimethyl-2-oxo-;Nicotinonitrile, 1,2-dihydro-4,6-dimethyl-2-oxo-;1,2-Dihydro-4,6-dimethyl-2-oxo-3-pyridinecarbonitrile;3-Cyano-4,6-dimethyl-2(1<em>H</em>)-pyridone;3-Cyano-4,6-dimethyl-2-hydroxypyridine;3-Cyano-4,6-dimethyl-2(1<em>H</em>)-pyridinone;3-Cyano-4,6-dimethyl-2-pyridone;NSC 52066;NSC 54161;2-Hydroxy-4,6-dimethylpyridine-3-carbonitrile;4,6-Dimethyl-2-oxo-1,2-dihydropyridine-3-carbonitrile",
    "duplicated_cas_no": "6220-75-3",
    "SMILES": "C(#N)C1=C(C)C=C(C)NC1=O",
    "meta_data": {
        "InChI": "InChI=1S/C8H8N2O/c1-5-3-6(2)10-8(11)7(5)4-9/h3H,1-2H3,(H,10,11)",
        "InChIKey": null,
        "Canonical SMILES": "N#CC=1C(=O)NC(=CC1C)C",
        "Molecular Formula": "C<sub>8</sub>H<sub>8</sub>N<sub>2</sub>O",
        "Molecular Mass": "148.16",
        "Melting Point": "286 °C"
    }
}