{
    "cas_no": "324-74-3",
    "key_name": "4-Fluorobiphenyl",
    "cn_name": "4-氟联苯;",
    "alternate_name": "1,1′-Biphenyl, 4-fluoro-;Biphenyl, 4-fluoro-;4-Fluoro-1,1′-biphenyl;4-Fluorobiphenyl;4′-Fluorobiphenyl;<em>p</em>-Fluorodiphenyl;<em>p</em>-Fluorobiphenyl;(4-Fluorophenyl)benzene;NSC 56686;4′-Fluoro-1,1′-biphenyl;4-Fluorbiphenyl;1-Fluoro-4-phenylbenzene",
    "duplicated_cas_no": "",
    "SMILES": "FC1=CC=C(C=C1)C2=CC=CC=C2",
    "meta_data": {
        "InChI": "InChI=1S/C12H9F/c13-12-8-6-11(7-9-12)10-4-2-1-3-5-10/h1-9H",
        "InChIKey": null,
        "Canonical SMILES": "FC=1C=CC(=CC1)C=2C=CC=CC2",
        "Molecular Formula": "C<sub>12</sub>H<sub>9</sub>F",
        "Molecular Mass": "172.20",
        "Boiling Point": "253 °C",
        "Melting Point": "74.2 °C"
    }
}