{
    "cas_no": "4502-10-7",
    "key_name": "2′-Amino-3′-hydroxyacetophenone",
    "cn_name": "2-氨基-3-羟基苯乙酮;",
    "alternate_name": "Ethanone, 1-(2-amino-3-hydroxyphenyl)-;Acetophenone, 2′-amino-3′-hydroxy-;1-(2-Amino-3-hydroxyphenyl)ethanone;2-Amino-3-hydroxyphenyl methyl ketone;2′-Amino-3′-hydroxyacetophenone;1-(2-Amino-3-hydroxyphenyl)ethan-1-one",
    "duplicated_cas_no": "",
    "SMILES": "C(C)(=O)C1=C(N)C(O)=CC=C1",
    "meta_data": {
        "InChI": "InChI=1S/C8H9NO2/c1-5(10)6-3-2-4-7(11)8(6)9/h2-4,11H,9H2,1H3",
        "InChIKey": null,
        "Canonical SMILES": "O=C(C=1C=CC=C(O)C1N)C",
        "Molecular Formula": "C<sub>8</sub>H<sub>9</sub>NO<sub>2</sub>",
        "Molecular Mass": "151.16",
        "Melting Point": "179-181 °C"
    }
}