{
    "cas_no": "62571-86-2",
    "key_name": "Captopril",
    "cn_name": "卡托普利;巯甲丙脯酸;甲巯丙脯酸;1-((2S)-2-甲基-3-巯基-1-氧代丙基)-L-脯氨酸;",
    "alternate_name": "<span class=\"text-smallcaps\">L</span>-Proline, 1-[(2<em>S</em>)-3-mercapto-2-methyl-1-oxopropyl]-;<span class=\"text-smallcaps\">L</span>-Proline, 1-(3-mercapto-2-methyl-1-oxopropyl)-, (<em>S</em>)-;1-[(2<em>S</em>)-3-Mercapto-2-methyl-1-oxopropyl]-<span class=\"text-smallcaps\">L</span>-proline;SQ 14225;Captopril;Capoten;SA 333;(-)-Captopril;<span class=\"text-smallcaps\">L</span>-Captopril;Tensiomin;<em>S</em>-Captopril;Novocaptopril;Lopril;Captoril;Tensobon;Acepress;Acepril;Tensoprel;Captolane;Cesplon;Acediur;Aceplus;Hipertil;Alopresin;Garranil;Dilabar;Lopirin;(-)-1-[(2<em>S</em>)-3-Mercapto-2-methyl-1-oxopropyl]-<span class=\"text-smallcaps\">L</span>-proline;Angiopril;Capotril;Farcopril;Hypopress;Captotec;CaptoHexal;Zapto;Captomax;Facopril;Lotensine;Captopril Generis;Captopril Mepha;Captopril GP;Captopril ratiopharm;Capton;Aceten 25;Aceten;MeSH ID: D002216",
    "duplicated_cas_no": "70903-77-4;138452-88-7;225661-74-5;1620516-90-6",
    "SMILES": "C([C@@H](CS)C)(=O)N1[C@H](C(O)=O)CCC1",
    "meta_data": {
        "InChI": "InChI=1S/C9H15NO3S/c1-6(5-14)8(11)10-4-2-3-7(10)9(12)13/h6-7,14H,2-5H2,1H3,(H,12,13)/t6-,7+/m1/s1",
        "InChIKey": null,
        "Canonical SMILES": "O=C(O)C1N(C(=O)C(C)CS)CCC1",
        "Molecular Formula": "C<sub>9</sub>H<sub>15</sub>NO<sub>3</sub>S",
        "Molecular Mass": "217.29",
        "Melting Point": "103-104 °C"
    }
}