{
    "cas_no": "196601-69-1",
    "key_name": "(<em>R</em>)-2-Amino-<em>N</em>-benzyl-3-methoxypropionamide",
    "cn_name": null,
    "alternate_name": "Propanamide, 2-amino-3-methoxy-<em>N</em>-(phenylmethyl)-, (2<em>R</em>)-;Propanamide, 2-amino-3-methoxy-<em>N</em>-(phenylmethyl)-, (<em>R</em>)-;(2<em>R</em>)-2-Amino-3-methoxy-<em>N</em>-(phenylmethyl)propanamide;(2R)-2-Amino-3-methoxy-<em>N</em>-(phenylmethyl)propanamide;(<em>R</em>)-2-Amino-<em>N</em>-benzyl-3-methoxypropionamide;(2<em>R</em>)-2-Amino-<em>N</em>-benzyl-3-methoxypropanamide;(2R)-2-Amino-<em>N</em>-benzyl-3-methoxypropanamide",
    "duplicated_cas_no": "",
    "SMILES": "C(NC([C@@H](COC)N)=O)C1=CC=CC=C1",
    "meta_data": {
        "InChI": "InChI=1S/C11H16N2O2/c1-15-8-10(12)11(14)13-7-9-5-3-2-4-6-9/h2-6,10H,7-8,12H2,1H3,(H,13,14)/t10-/m1/s1",
        "InChIKey": null,
        "Canonical SMILES": "O=C(NCC=1C=CC=CC1)C(N)COC",
        "Molecular Formula": "C<sub>11</sub>H<sub>16</sub>N<sub>2</sub>O<sub>2</sub>",
        "Molecular Mass": "208.26",
        "Melting Point": "39-40 °C"
    }
}