{
    "cas_no": "631-01-6",
    "key_name": "Quillaic acid",
    "cn_name": null,
    "alternate_name": "Olean-12-en-28-oic acid, 3,16-dihydroxy-23-oxo-, (3β,4α,16α)-;Olean-12-en-28-oic acid, 3β,16α-dihydroxy-23-oxo-;(3β,4α,16α)-3,16-Dihydroxy-23-oxoolean-12-en-28-oic acid;Quillaic acid;Quillaja sapogenin",
    "duplicated_cas_no": "",
    "SMILES": "C(O)(=O)[C@]12[C@](C=3[C@@](C)(C[C@H]1O)[C@@]4(C)[C@](CC3)([C@]5(C)[C@@](CC4)([C@@](C=O)(C)[C@@H](O)CC5)[H])[H])(CC(C)(C)CC2)[H]",
    "meta_data": {
        "InChI": "InChI=1S/C30H46O5/c1-25(2)13-14-30(24(34)35)19(15-25)18-7-8-21-26(3)11-10-22(32)27(4,17-31)20(26)9-12-28(21,5)29(18,6)16-23(30)33/h7,17,19-23,32-33H,8-16H2,1-6H3,(H,34,35)/t19-,20+,21+,22-,23+,26-,27-,28+,29+,30+/m0/s1",
        "InChIKey": null,
        "Canonical SMILES": "O=CC1(C)C(O)CCC2(C)C1CCC3(C)C2CC=C4C5CC(C)(C)CCC5(C(=O)O)C(O)CC43C",
        "Molecular Formula": "C<sub>30</sub>H<sub>46</sub>O<sub>5</sub>",
        "Molecular Mass": "486.68",
        "Melting Point": "294 °C"
    }
}