{
    "cas_no": "488-44-8",
    "key_name": "Allitol",
    "cn_name": "阿洛醇;",
    "alternate_name": "Allitol;Allodulcitol;Allit;Allodulcit",
    "duplicated_cas_no": "74281-93-9;887772-16-9;1394295-23-8",
    "SMILES": "[C@@H]([C@@H]([C@@H](CO)O)O)([C@H](CO)O)O",
    "meta_data": {
        "InChI": "InChI=1/C6H14O6/c7-1-3(9)5(11)6(12)4(10)2-8/h3-12H,1-2H2/t3-,4+,5-,6+",
        "InChIKey": null,
        "Canonical SMILES": "OCC(O)C(O)C(O)C(O)CO",
        "Molecular Formula": "C<sub>6</sub>H<sub>14</sub>O<sub>6</sub>",
        "Molecular Mass": "182.17",
        "Melting Point": "144-146 °C"
    }
}