{
    "cas_no": "1664-40-0",
    "key_name": "<em>N</em>-Phenylethylenediamine",
    "cn_name": "N-苯乙烯二胺;N=苯基-1,2-二胺;N-苯基乙二胺;N-苯乙烯二胺;N-(2-氨基乙基)苯胺;N-苯基乙二胺,99%;N-苯基次;",
    "alternate_name": "1,2-Ethanediamine, <em>N</em><sup>1</sup>-phenyl-;Ethylenediamine, <em>N</em>-phenyl-;1,2-Ethanediamine, <em>N</em>-phenyl-;<em>N</em><sup>1</sup>-Phenyl-1,2-ethanediamine;Benzenamine, <em>N</em>-(2-aminoethyl)-;<em>N</em>-Phenylethylenediamine;<em>N</em>-Phenyl-1,2-ethanediamine;2-(Phenylamino)ethylamine;<em>N</em>-Phenyl-1,2-ethylenediamine;<em>N</em>-(2-Aminoethyl)-<em>N</em>-phenylamine;NSC 84247;(2-Anilinoethyl)amine;<em>N</em>-Phenyl-1,2-diaminoethane;N1-Phenylethane-1,2-diamine",
    "duplicated_cas_no": "",
    "SMILES": "N(CCN)C1=CC=CC=C1",
    "meta_data": {
        "InChI": "InChI=1S/C8H12N2/c9-6-7-10-8-4-2-1-3-5-8/h1-5,10H,6-7,9H2",
        "InChIKey": null,
        "Canonical SMILES": "NCCNC=1C=CC=CC1",
        "Molecular Formula": "C<sub>8</sub>H<sub>12</sub>N<sub>2</sub>",
        "Molecular Mass": "136.19",
        "Boiling Point": "134-137 °C @ Press: 10 Torr",
        "Melting Point": "183-186 °C"
    }
}