{
    "cas_no": "67-63-0",
    "key_name": "Isopropanol",
    "cn_name": "异丙醇;2-丙醇;2-羟基丙烷;",
    "alternate_name": "2-Propanol;Isopropyl alcohol;Avantine;Dimethylcarbinol;Isohol;Isopropanol;Lutosol;PRO;Petrohol;<em>sec</em>-Propyl alcohol;Alcosolve 2;<em>iso</em>-Propanol;1-Methylethyl alcohol;Imsol A;Combi-Schutz;Alcojel;Avantin;Hartosol;Propol;Takineocol;<em>n</em>-Propan-2-ol;2-Hydroxypropane;2-Propyl alcohol;Sterisol Hand Disinfectant;1-Methylethanol;<em>iso</em>-Propyl alcohol;<em>sec</em>-Propanol;IPA;Autosept;IPS 1 (alcohol);IPS 1;Virahol;Tokuso IPA;NSC 135801;Steri-Fab;isopropanol;MeSH ID: D019840;T 877",
    "duplicated_cas_no": "8013-70-5",
    "SMILES": "C(C)(C)O",
    "meta_data": {
        "InChI": "InChI=1S/C3H8O/c1-3(2)4/h3-4H,1-2H3",
        "InChIKey": null,
        "Canonical SMILES": "OC(C)C",
        "Molecular Formula": "C<sub>3</sub>H<sub>8</sub>O",
        "Molecular Mass": "60.10",
        "Boiling Point": "82.5 °C @ Press: 760 Torr",
        "Melting Point": "-88.5 °C",
        "Density": "0.78505 g/cm³ @ Temp: 20 °C"
    }
}