{
    "cas_no": "623-04-1",
    "key_name": "4-Aminobenzyl alcohol",
    "cn_name": "对氨基苯甲醇;",
    "alternate_name": "Benzenemethanol, 4-amino-;Benzyl alcohol, <em>p</em>-amino-;4-Aminobenzenemethanol;<em>p</em>-Aminobenzyl alcohol;4-Aminobenzyl alcohol;4-(Hydroxymethyl)aniline;(4-Aminophenyl)methanol;(<em>p</em>-Aminophenyl)methanol;1-(<em>p</em>-Aminophenyl)methanol;4-Hydroxymethylphenylamine;2: PN: WO2023061224 PAGE: 35 claimed sequence",
    "duplicated_cas_no": "185532-72-3",
    "SMILES": "C(O)C1=CC=C(N)C=C1",
    "meta_data": {
        "InChI": "InChI=1S/C7H9NO/c8-7-3-1-6(5-9)2-4-7/h1-4,9H,5,8H2",
        "InChIKey": null,
        "Canonical SMILES": "OCC1=CC=C(N)C=C1",
        "Molecular Formula": "C<sub>7</sub>H<sub>9</sub>NO",
        "Molecular Mass": "123.15",
        "Melting Point": "63-64 °C"
    }
}