{
    "cas_no": "2840-04-2",
    "key_name": "5-Amino-2-methylbenzoic acid",
    "cn_name": "5-氨基-2-甲基苯甲酸;2-甲基-5-氨基苯甲酸;",
    "alternate_name": "Benzoic acid, 5-amino-2-methyl-;<em>o</em>-Toluic acid, 5-amino-;5-Amino-2-methylbenzoic acid;3-Amino-6-methylbenzoic acid",
    "duplicated_cas_no": "",
    "SMILES": "C(O)(=O)C1=C(C)C=CC(N)=C1",
    "meta_data": {
        "InChI": "InChI=1S/C8H9NO2/c1-5-2-3-6(9)4-7(5)8(10)11/h2-4H,9H2,1H3,(H,10,11)",
        "InChIKey": null,
        "Canonical SMILES": "O=C(O)C1=CC(N)=CC=C1C",
        "Molecular Formula": "C<sub>8</sub>H<sub>9</sub>NO<sub>2</sub>",
        "Molecular Mass": "151.16",
        "Melting Point": "196 °C"
    }
}