{
    "cas_no": "3845-76-9",
    "key_name": "<em>N</em>-[3-(Dimethylamino)propyl]acrylamide",
    "cn_name": "二甲胺基丙基丙烯酰胺;DMAPAA;",
    "alternate_name": "2-Propenamide, <em>N</em>-[3-(dimethylamino)propyl]-;Acrylamide, <em>N</em>-[3-(dimethylamino)propyl]-;<em>N</em>-[3-(Dimethylamino)propyl]-2-propenamide;3-(<em>N</em>,<em>N</em>-Dimethylaminopropyl)acrylamide;<em>N</em>-[3-(Dimethylamino)propyl]acrylamide;Dimethyl(3-acrylamidopropyl)amine;Acrylamidopropyldimethylamine;[3-(Acryloylamino)propyl]dimethylamine;Acrylamido-3-<em>N</em>,<em>N</em>-dimethylpropylamine;DMAPAA;<em>N</em>-[3-(<em>N</em>,<em>N</em>-Dimethylamino)propyl]acrylamide;DMAPAA-MHQ;Kohshylmer DMAPAA",
    "duplicated_cas_no": "258329-83-8",
    "SMILES": "N(CCCN(C)C)C(C=C)=O",
    "meta_data": {
        "InChI": "InChI=1S/C8H16N2O/c1-4-8(11)9-6-5-7-10(2)3/h4H,1,5-7H2,2-3H3,(H,9,11)",
        "InChIKey": null,
        "Canonical SMILES": "O=C(C=C)NCCCN(C)C",
        "Molecular Formula": "C<sub>8</sub>H<sub>16</sub>N<sub>2</sub>O",
        "Molecular Mass": "156.23",
        "Boiling Point": "106-108 °C @ Press: 1 Torr"
    }
}