{
    "cas_no": "34425-25-7",
    "key_name": "Lyoniside",
    "cn_name": null,
    "alternate_name": "β-<span class=\"text-smallcaps\">D</span>-Xylopyranoside, [(1<em>S</em>,2<em>R</em>,3<em>R</em>)-1,2,3,4-tetrahydro-7-hydroxy-1-(4-hydroxy-3,5-dimethoxyphenyl)-3-(hydroxymethyl)-6,8-dimethoxy-2-naphthalenyl]methyl;Lyoniside;β-<span class=\"text-smallcaps\">D</span>-Xylopyranoside, [1,2,3,4-tetrahydro-7-hydroxy-1-(4-hydroxy-3,5-dimethoxyphenyl)-3-(hydroxymethyl)-6,8-dimethoxy-2-naphthalenyl]methyl, [1<em>S</em>-(1α,2β,3α)]-;Lyoniresinol, β-<span class=\"text-smallcaps\">D</span>-xyloside;[(1<em>S</em>,2<em>R</em>,3<em>R</em>)-1,2,3,4-Tetrahydro-7-hydroxy-1-(4-hydroxy-3,5-dimethoxyphenyl)-3-(hydroxymethyl)-6,8-dimethoxy-2-naphthalenyl]methyl β-<span class=\"text-smallcaps\">D</span>-xylopyranoside;(+)-Lyoniside",
    "duplicated_cas_no": "126372-83-6;50867-28-2",
    "SMILES": "C(O[C@H]1[C@H](O)[C@@H](O)[C@H](O)CO1)[C@@H]2[C@H](C=3C(C[C@H]2CO)=CC(OC)=C(O)C3OC)C4=CC(OC)=C(O)C(OC)=C4",
    "meta_data": {
        "InChI": "InChI=1S/C27H36O12/c1-34-17-7-13(8-18(35-2)23(17)31)20-15(10-38-27-25(33)22(30)16(29)11-39-27)14(9-28)5-12-6-19(36-3)24(32)26(37-4)21(12)20/h6-8,14-16,20,22,25,27-33H,5,9-11H2,1-4H3/t14-,15-,16+,20+,22-,25+,27+/m0/s1",
        "InChIKey": null,
        "Canonical SMILES": "OC1=C(OC)C=C(C=C1OC)C2C3=C(OC)C(O)=C(OC)C=C3CC(CO)C2COC4OCC(O)C(O)C4O",
        "Molecular Formula": "C<sub>27</sub>H<sub>36</sub>O<sub>12</sub>",
        "Molecular Mass": "552.57",
        "Melting Point": "123.5 °C"
    }
}