{
    "cas_no": "1606-96-8",
    "key_name": "Tris(2-methylpropyl) phosphite",
    "cn_name": "三异丁基磷酸;",
    "alternate_name": "Phosphorous acid, tris(2-methylpropyl) ester;Phosphorous acid, triisobutyl ester;Isobutyl phosphite ((C<sub>4</sub>H<sub>9</sub>O)<sub>3</sub>P);Tris(2-methylpropyl) phosphite;Triisobutyl phosphite",
    "duplicated_cas_no": "",
    "SMILES": "P(OCC(C)C)(OCC(C)C)OCC(C)C",
    "meta_data": {
        "InChI": "InChI=1S/C12H27O3P/c1-10(2)7-13-16(14-8-11(3)4)15-9-12(5)6/h10-12H,7-9H2,1-6H3",
        "InChIKey": null,
        "Canonical SMILES": "O(P(OCC(C)C)OCC(C)C)CC(C)C",
        "Molecular Formula": "C<sub>12</sub>H<sub>27</sub>O<sub>3</sub>P",
        "Molecular Mass": "250.31",
        "Boiling Point": "110 °C @ Press: 10 Torr",
        "Density": "0.906 g/cm³ @ Temp: 20 °C"
    }
}