{
    "cas_no": "6556-12-3",
    "key_name": "<span class=\"text-smallcaps\">D</span>-Glucuronic acid",
    "cn_name": null,
    "alternate_name": "<span class=\"text-smallcaps\">D</span>-Glucuronic acid;Glucuronic acid, <span class=\"text-smallcaps\">D</span>-;Glucuronic acid;<span class=\"text-smallcaps\">D</span>-(+)-Glucuronic acid;Glucosiduronic acid",
    "duplicated_cas_no": "12758-41-7;36116-79-7;87090-89-9;87246-82-0",
    "SMILES": "[C@H]([C@@H]([C@H](C=O)O)O)([C@@H](C(O)=O)O)O",
    "meta_data": {
        "InChI": "InChI=1S/C6H10O7/c7-1-2(8)3(9)4(10)5(11)6(12)13/h1-5,8-11H,(H,12,13)/t2-,3+,4-,5-/m0/s1",
        "InChIKey": null,
        "Canonical SMILES": "O=CC(O)C(O)C(O)C(O)C(=O)O",
        "Molecular Formula": "C<sub>6</sub>H<sub>10</sub>O<sub>7</sub>",
        "Molecular Mass": "194.14",
        "Melting Point": "165 °C"
    }
}