{
    "cas_no": "23256-50-0",
    "key_name": "Guanabenz acetate",
    "cn_name": null,
    "alternate_name": "Hydrazinecarboximidamide, 2-[(2,6-dichlorophenyl)methylene]-, acetate (1:1);Guanidine, [(2,6-dichlorobenzylidene)amino]-, monoacetate;Hydrazinecarboximidamide, 2-[(2,6-dichlorophenyl)methylene]-, monoacetate;[(2,6-Dichlorobenzylidene)amino]guanidine acetate;Wy 8678 acetate;1-(2,6-Dichlorobenzylideneamino)guanidine acetate;BR 750;Guanabenz acetate;Wytensin;Guanabenz monoacetate;Rexitene;Tenelid;Wytens",
    "duplicated_cas_no": "",
    "SMILES": "C(=NNC(=N)N)C1=C(Cl)C=CC=C1Cl.C(C)(O)=O",
    "meta_data": {
        "InChI": "InChI=1S/C8H8Cl2N4.C2H4O2/c9-6-2-1-3-7(10)5(6)4-13-14-8(11)12;1-2(3)4/h1-4H,(H4,11,12,14);1H3,(H,3,4)",
        "InChIKey": null,
        "Canonical SMILES": "O=C(O)C.ClC1=CC=CC(Cl)=C1C=NNC(=N)N",
        "Molecular Formula": "C<sub>8</sub>H<sub>8</sub>Cl<sub>2</sub>N<sub>4</sub>.C<sub>2</sub>H<sub>4</sub>O<sub>2</sub>",
        "Molecular Mass": "",
        "Melting Point": "227-229 °C (decomp)"
    }
}