{
    "cas_no": "615-21-4",
    "key_name": "2-Benzothiazolinone, hydrazone",
    "cn_name": "2－肼基苯并噻唑;2－肼基苯骈噻唑;",
    "alternate_name": "Benzothiazole, 2-hydrazinyl-;Benzothiazole, 2-hydrazino-;2(3<em>H</em>)-Benzothiazolone, hydrazone;2-Benzothiazolinone, hydrazone;2-Hydrazinylbenzothiazole;2-Hydrazinobenzothiazole;(2-Benzothiazolyl)hydrazine;2-Hydrazonobenzothiazole;NSC 315248;NSC 3271;Hydrazinobenzothiazole;2-Hydrazinyl-1,3-benzothiazole;2-Hydrazinylbenzo[<em>d</em>]thiazole;1,3-Benzothiazol-2-ylhydrazine",
    "duplicated_cas_no": "",
    "SMILES": "N(N)=C1NC=2C(S1)=CC=CC2",
    "meta_data": {
        "InChI": "InChI=1S/C7H7N3S/c8-10-7-9-5-3-1-2-4-6(5)11-7/h1-4H,8H2,(H,9,10)",
        "InChIKey": null,
        "Canonical SMILES": "N(N)=C1SC=2C=CC=CC2N1",
        "Molecular Formula": "C<sub>7</sub>H<sub>7</sub>N<sub>3</sub>S",
        "Molecular Mass": "165.22",
        "Melting Point": "205 °C"
    }
}