{
    "cas_no": "1191-95-3",
    "key_name": "Cyclobutanone",
    "cn_name": "环丁酮;",
    "alternate_name": "Cyclobutanone;NSC 87632",
    "duplicated_cas_no": "2010999-65-0",
    "SMILES": "O=C1CCC1",
    "meta_data": {
        "InChI": "InChI=1S/C4H6O/c5-4-2-1-3-4/h1-3H2",
        "InChIKey": null,
        "Canonical SMILES": "O=C1CCC1",
        "Molecular Formula": "C<sub>4</sub>H<sub>6</sub>O",
        "Molecular Mass": "70.09",
        "Boiling Point": "99 °C",
        "Melting Point": "-50.9 °C",
        "Density": "0.9322 g/cm³ @ Temp: 20 °C"
    }
}