{
    "cas_no": "1072-71-5",
    "key_name": "2,5-Dimercapto-1,3,4-thiadiazole",
    "cn_name": "2,5-二巯基噻二唑;",
    "alternate_name": "1,3,4-Thiadiazolidine-2,5-dithione;Δ<sup>2</sup>-1,3,4-Thiadiazoline-5-thione, 2-mercapto-;2,5-Dimercaptothiadiazole;Bismuthiol I;PY 61H;2,5-Dimercapto-1,3,4-thiadiazole;Dimercaptothiadiazole;Vanchem DMTD;1,3,4-Thiadiazole-2,5-dithiol;D 2;D 2 (Chinese flotation agent);Bismuthiol;MTD;NSC 4645;2,5-Dithiol-1,3,4-thiadiazole;2,5-Dimercapto-1,3,4-thiazole;2,5-Mercapto-1,3,4-thiadiazole",
    "duplicated_cas_no": "10472-91-0;10502-35-9;66057-67-8",
    "SMILES": "S=C1SC(=S)NN1",
    "meta_data": {
        "InChI": "InChI=1S/C2H2N2S3/c5-1-3-4-2(6)7-1/h(H,3,5)(H,4,6)",
        "InChIKey": null,
        "Canonical SMILES": "S=C1SC(=S)NN1",
        "Molecular Formula": "C<sub>2</sub>H<sub>2</sub>N<sub>2</sub>S<sub>3</sub>",
        "Molecular Mass": "150.25",
        "Melting Point": "170 °C"
    }
}