{
    "cas_no": "22668-01-5",
    "key_name": "Etanidazole",
    "cn_name": null,
    "alternate_name": "1<em>H</em>-Imidazole-1-acetamide, <em>N</em>-(2-hydroxyethyl)-2-nitro-;Imidazole-1-acetamide, <em>N</em>-(2-hydroxyethyl)-2-nitro-;<em>N</em>-(2-Hydroxyethyl)-2-nitro-1<em>H</em>-imidazole-1-acetamide;SR 2508;NSC 301-467;Etanidazole;Radinyl;<em>N</em>-(2-Hydroxyethyl)-2-(2-nitro-1<em>H</em>-imidazol-1-yl)acetamide;MeSH ID: D017341",
    "duplicated_cas_no": "74083-16-2",
    "SMILES": "N(=O)(=O)C=1N(CC(NCCO)=O)C=CN1",
    "meta_data": {
        "InChI": "InChI=1S/C7H10N4O4/c12-4-2-8-6(13)5-10-3-1-9-7(10)11(14)15/h1,3,12H,2,4-5H2,(H,8,13)",
        "InChIKey": null,
        "Canonical SMILES": "O=C(NCCO)CN1C=CN=C1N(=O)=O",
        "Molecular Formula": "C<sub>7</sub>H<sub>10</sub>N<sub>4</sub>O<sub>4</sub>",
        "Molecular Mass": "214.18",
        "Melting Point": "163.5-164.7 °C"
    }
}