{
    "cas_no": "35824-91-0",
    "key_name": "1,3-Dicyclohexyl-2,4,6(1<em>H</em>,3<em>H</em>,5<em>H</em>)-pyrimidinetrione",
    "cn_name": "1,3-二环己基巴比妥酸;1,3-二环己基l嘧啶-2,4,6(1H,3H,5H)-三酮;",
    "alternate_name": "2,4,6(1<em>H</em>,3<em>H</em>,5<em>H</em>)-Pyrimidinetrione, 1,3-dicyclohexyl-;Barbituric acid, 1,3-dicyclohexyl-;1,3-Dicyclohexyl-2,4,6(1<em>H</em>,3<em>H</em>,5<em>H</em>)-pyrimidinetrione;1,3-Dicyclohexylbarbituric acid;<em>N</em>,<em>N</em>′-Dicyclohexylbarbituric acid;1,3-Dicyclohexyl-1,3-diazinane-2,4,6-trione",
    "duplicated_cas_no": "72820-30-5",
    "SMILES": "O=C1N(C(=O)CC(=O)N1C2CCCCC2)C3CCCCC3",
    "meta_data": {
        "InChI": "InChI=1S/C16H24N2O3/c19-14-11-15(20)18(13-9-5-2-6-10-13)16(21)17(14)12-7-3-1-4-8-12/h12-13H,1-11H2",
        "InChIKey": null,
        "Canonical SMILES": "O=C1N(C(=O)CC(=O)N1C2CCCCC2)C3CCCCC3",
        "Molecular Formula": "C<sub>16</sub>H<sub>24</sub>N<sub>2</sub>O<sub>3</sub>",
        "Molecular Mass": "292.37",
        "Melting Point": "200-201 °C"
    }
}