{
    "cas_no": "1268810-09-8",
    "key_name": "1,1-Dimethylethyl <em>N</em>-(1-ethynylcyclopropyl)carbamate",
    "cn_name": null,
    "alternate_name": "Carbamic acid, <em>N</em>-(1-ethynylcyclopropyl)-, 1,1-dimethylethyl ester;1,1-Dimethylethyl <em>N</em>-(1-ethynylcyclopropyl)carbamate;<em>tert</em>-Butyl (1-ethynylcyclopropyl)carbamate;<em>tert</em>-Butyl <em>N</em>-(1-ethynylcyclopropyl)carbamate",
    "duplicated_cas_no": "",
    "SMILES": "N(C(OC(C)(C)C)=O)C1(C#C)CC1",
    "meta_data": {
        "InChI": "InChI=1S/C10H15NO2/c1-5-10(6-7-10)11-8(12)13-9(2,3)4/h1H,6-7H2,2-4H3,(H,11,12)",
        "InChIKey": null,
        "Canonical SMILES": "O=C(OC(C)(C)C)NC1(C#C)CC1",
        "Molecular Formula": "C<sub>10</sub>H<sub>15</sub>NO<sub>2</sub>",
        "Molecular Mass": "181.23",
        "Melting Point": "68-70 °C"
    }
}