{
    "cas_no": "645-45-4",
    "key_name": "Benzenepropanoyl chloride",
    "cn_name": "氢化肉桂酰氯;",
    "alternate_name": "Benzenepropanoyl chloride;Hydrocinnamoyl chloride;β-Phenylpropionyl chloride;3-Phenylpropionyl chloride;β-Phenylpropanoyl chloride;3-Phenylpropanoyl chloride;Dihydrocinnamoyl chloride;Hydrocinnamyl chloride;3-Phenylpropionic acid chloride;NSC 2854;3-Phenylpropanoic acid chloride;3-Phenylpropionoyl chloride",
    "duplicated_cas_no": "",
    "SMILES": "C(CC(Cl)=O)C1=CC=CC=C1",
    "meta_data": {
        "InChI": "InChI=1S/C9H9ClO/c10-9(11)7-6-8-4-2-1-3-5-8/h1-5H,6-7H2",
        "InChIKey": null,
        "Canonical SMILES": "O=C(Cl)CCC=1C=CC=CC1",
        "Molecular Formula": "C<sub>9</sub>H<sub>9</sub>ClO",
        "Molecular Mass": "168.62",
        "Boiling Point": "112 °C @ Press: 5 Torr",
        "Melting Point": "102-104 °C"
    }
}