{
    "cas_no": "112-04-9",
    "key_name": "Trichlorooctadecylsilane",
    "cn_name": "十八烷基三氯硅烷;正十八烷基三氯硅烷;",
    "alternate_name": "Silane, trichlorooctadecyl-;Trichlorooctadecylsilane;Octadecyltrichlorosilane;<em>n</em>-Octadecyltrichlorosilane;OTS;Stearyltrichlorosilane;NSC 96644;OTS (silane derivative);LS 6495",
    "duplicated_cas_no": "",
    "SMILES": "C(CCCCCCCCCCCCCCC)CC[Si](Cl)(Cl)Cl",
    "meta_data": {
        "InChI": "InChI=1S/C18H37Cl3Si/c1-2-3-4-5-6-7-8-9-10-11-12-13-14-15-16-17-18-22(19,20)21/h2-18H2,1H3",
        "InChIKey": null,
        "Canonical SMILES": "Cl[Si](Cl)(Cl)CCCCCCCCCCCCCCCCCC",
        "Molecular Formula": "C<sub>18</sub>H<sub>37</sub>Cl<sub>3</sub>Si",
        "Molecular Mass": "387.93",
        "Boiling Point": "160-162 °C @ Press: 3 Torr",
        "Melting Point": "22 °C",
        "Density": "0.950 g/cm³ @ Temp: 22 °C"
    }
}