{
    "cas_no": "27193-28-8",
    "key_name": "Octylphenol",
    "cn_name": null,
    "alternate_name": "Phenol, (1,1,3,3-tetramethylbutyl)-;Phenol, octyl-;(1,1,3,3-Tetramethylbutyl)phenol;Octylphenol;<em>tert</em>-Octylphenol",
    "duplicated_cas_no": "1322-69-6;29932-96-5;30105-54-5;62744-41-6;209859-96-1",
    "SMILES": "",
    "meta_data": {
        "InChI": "",
        "InChIKey": null,
        "Canonical SMILES": "",
        "Molecular Formula": "C<sub>14</sub>H<sub>22</sub>O",
        "Molecular Mass": "",
        "Boiling Point": "305-309 °C",
        "Melting Point": "44-44.5 °C",
        "Density": "0.9392 g/cm³ @ Temp: 20 °C"
    }
}