{
    "cas_no": "69788-75-6",
    "key_name": "4-Chlorobutyl 3,4-dimethoxybenzoate",
    "cn_name": null,
    "alternate_name": "Benzoic acid, 3,4-dimethoxy-, 4-chlorobutyl ester;Veratric acid, 4-chlorobutyl ester;4-Chlorobutyl 3,4-dimethoxybenzoate",
    "duplicated_cas_no": "",
    "SMILES": "C(OCCCCCl)(=O)C1=CC(OC)=C(OC)C=C1",
    "meta_data": {
        "InChI": "InChI=1S/C13H17ClO4/c1-16-11-6-5-10(9-12(11)17-2)13(15)18-8-4-3-7-14/h5-6,9H,3-4,7-8H2,1-2H3",
        "InChIKey": null,
        "Canonical SMILES": "O=C(OCCCCCl)C1=CC=C(OC)C(OC)=C1",
        "Molecular Formula": "C<sub>13</sub>H<sub>17</sub>ClO<sub>4</sub>",
        "Molecular Mass": "272.72",
        "Boiling Point": "175-184 °C @ Press: 0.5 Torr"
    }
}