{
    "cas_no": "151-56-4",
    "key_name": "Aziridine",
    "cn_name": "氮丙啶;乙撑亚胺;氮丙环;次乙亚胺;",
    "alternate_name": "Aziridine;Ethylenimine;Azacyclopropane;Dimethylenimine;EI;Ethyleneimine;Aziran;Fast MEG;Q 043 (amine);Soluol XC 100;Q 043;Binary Ethyleneimine;E 100;CS 100 (crosslinking agent);CS 100;SC 100;HS 100;Hongsui HS 100;MX 100;CF 100;RX 90;SRG 301;ET 150",
    "duplicated_cas_no": "99932-76-0",
    "SMILES": "C1CN1",
    "meta_data": {
        "InChI": "InChI=1S/C2H5N/c1-2-3-1/h3H,1-2H2",
        "InChIKey": null,
        "Canonical SMILES": "N1CC1",
        "Molecular Formula": "C<sub>2</sub>H<sub>5</sub>N",
        "Molecular Mass": "43.07",
        "Boiling Point": "56-57 °C @ Press: 760 Torr",
        "Melting Point": "-74 °C",
        "Density": "0.8321 g/cm³ @ Temp: 24 °C"
    }
}