{
    "cas_no": "87-64-9",
    "key_name": "2-Chloro-6-methylphenol",
    "cn_name": "2-氯-6-甲酚;2-氯-6-甲基苯酚;",
    "alternate_name": "Phenol, 2-chloro-6-methyl-;<em>o</em>-Cresol, 6-chloro-;2-Chloro-6-methylphenol;6-Chloro-<em>o</em>-cresol;2-Methyl-6-chlorophenol;6-Chloro-2-methylphenol;3-Chloro-2-hydroxytoluene;NSC 2878",
    "duplicated_cas_no": "28177-55-1",
    "SMILES": "OC1=C(C)C=CC=C1Cl",
    "meta_data": {
        "InChI": "InChI=1S/C7H7ClO/c1-5-3-2-4-6(8)7(5)9/h2-4,9H,1H3",
        "InChIKey": null,
        "Canonical SMILES": "ClC1=CC=CC(=C1O)C",
        "Molecular Formula": "C<sub>7</sub>H<sub>7</sub>ClO",
        "Molecular Mass": "142.58",
        "Boiling Point": "189 °C",
        "Melting Point": "130 °C",
        "Density": "1.1950 g/cm³ @ Temp: 25 °C"
    }
}