{
    "cas_no": "256431-72-8",
    "key_name": "(2<em>E</em>)-3-[2-Cyclopropyl-4-(4-fluorophenyl)-3-quinolinyl]-2-propenenitrile",
    "cn_name": "(E)-3-[2-环丙基-4-(4-氟苯基)-3-喹啉基]-2-丙烯腈;",
    "alternate_name": "2-Propenenitrile, 3-[2-cyclopropyl-4-(4-fluorophenyl)-3-quinolinyl]-, (2<em>E</em>)-;(2<em>E</em>)-3-[2-Cyclopropyl-4-(4-fluorophenyl)-3-quinolinyl]-2-propenenitrile",
    "duplicated_cas_no": "",
    "SMILES": "C(=C/C#N)\\C1=C(C2=C(N=C1C3CC3)C=CC=C2)C4=CC=C(F)C=C4",
    "meta_data": {
        "InChI": "InChI=1S/C21H15FN2/c22-16-11-9-14(10-12-16)20-17-4-1-2-6-19(17)24-21(15-7-8-15)18(20)5-3-13-23/h1-6,9-12,15H,7-8H2/b5-3+",
        "InChIKey": null,
        "Canonical SMILES": "N#CC=CC=1C(=NC=2C=CC=CC2C1C=3C=CC(F)=CC3)C4CC4",
        "Molecular Formula": "C<sub>21</sub>H<sub>15</sub>FN<sub>2</sub>",
        "Molecular Mass": "314.36",
        "Melting Point": "169-172 °C"
    }
}