{
    "cas_no": "2216-32-2",
    "key_name": "4-Ethylheptane",
    "cn_name": null,
    "alternate_name": "Heptane, 4-ethyl-;4-Ethylheptane",
    "duplicated_cas_no": "",
    "SMILES": "C(CCC)(CCC)CC",
    "meta_data": {
        "InChI": "InChI=1S/C9H20/c1-4-7-9(6-3)8-5-2/h9H,4-8H2,1-3H3",
        "InChIKey": null,
        "Canonical SMILES": "CCCC(CC)CCC",
        "Molecular Formula": "C<sub>9</sub>H<sub>20</sub>",
        "Molecular Mass": "128.26",
        "Boiling Point": "141.2 °C"
    }
}