{
    "cas_no": "3055-96-7",
    "key_name": "3,6,9,12,15,18-Hexaoxatriacontan-1-ol",
    "cn_name": "六甘醇单十二醚;六乙二醇单十二醚;六聚乙二醇单十二醚;月桂醇聚醚-6;",
    "alternate_name": "3,6,9,12,15,18-Hexaoxatriacontan-1-ol;Dodecyl hexaoxyethylene glycol monoether;Ethanol, 2-[2-[2-[2-[2-[2-(dodecyloxy)ethoxy]ethoxy]ethoxy]ethoxy]ethoxy]-;Hexaoxyethylene glycol monododecyl ether;Hexaethylene glycol, monododecyl ether;Dodecyl hexaoxyethylene monoether;Hexaoxyethylene glycol dodecyl monoether;Hexaethylene glycol dodecyl ether;Hexaethylene glycol lauryl ether;α-Hydroxy-ω-decylheptakis(oxyethylene);Hexaoxyethylene dodecyl monoether;Hexaethylene glycol <em>n</em>-dodecyl ether;Lauryl hexaethoxylate;Hexaoxyethylene monododecyl ether;Dodecyl hexaethylene glycol monoether;DP 6;Dodecyl hexaoxyethylene ether;α-Dodecyl-ω-hydroxyhexakis(oxyethylene);Hexaethylene glycol mono-<em>n</em>-dodecyl ether;Hexaoxyethylene dodecyl ether;C<sub>12</sub>E<sub>6</sub>;C<sub>12</sub>EO<sub>6</sub>;Hexakis(oxyethylene) monododecyl ether;<em>n</em>-Dodecyl hexaoxyethylene glycol monoether;DP 6 (alcohol);Nikkol BL 6SY;Hexaethylene glycol monododecyl ether;2-[2-[2-[2-[2-(2-Dodecoxyethoxy)ethoxy]ethoxy]ethoxy]ethoxy]ethanol",
    "duplicated_cas_no": "137694-57-6;90429-15-5",
    "SMILES": "O(CCOCCCCCCCCCCCC)CCOCCOCCOCCOCCO",
    "meta_data": {
        "InChI": "InChI=1S/C24H50O7/c1-2-3-4-5-6-7-8-9-10-11-13-26-15-17-28-19-21-30-23-24-31-22-20-29-18-16-27-14-12-25/h25H,2-24H2,1H3",
        "InChIKey": null,
        "Canonical SMILES": "OCCOCCOCCOCCOCCOCCOCCCCCCCCCCCC",
        "Molecular Formula": "C<sub>24</sub>H<sub>50</sub>O<sub>7</sub>",
        "Molecular Mass": "450.65",
        "Boiling Point": "210-215 °C @ Press: 0.05 Torr",
        "Melting Point": "24.8-25.1 °C"
    }
}