{
    "cas_no": "6893-26-1",
    "key_name": "(-)-Glutamic acid",
    "cn_name": "D-谷氨酸;",
    "alternate_name": "<span class=\"text-smallcaps\">D</span>-Glutamic acid;Glutamic acid, <span class=\"text-smallcaps\">D</span>-;(<em>R</em>)-(-)-Glutamic acid;(<em>R</em>)-Glutamic acid;(2<em>R</em>)-2-Aminopentanedioic acid;(-)-Glutamic acid;<span class=\"text-smallcaps\">D</span>-(-)-Glutamic acid;(2<em>R</em>)-Glutamic acid;NSC 77686;(2R)-2-Aminopentanedioic acid",
    "duplicated_cas_no": "",
    "SMILES": "[C@@H](CCC(O)=O)(C(O)=O)N",
    "meta_data": {
        "InChI": "InChI=1S/C5H9NO4/c6-3(5(9)10)1-2-4(7)8/h3H,1-2,6H2,(H,7,8)(H,9,10)/t3-/m1/s1",
        "InChIKey": null,
        "Canonical SMILES": "O=C(O)CCC(N)C(=O)O",
        "Molecular Formula": "C<sub>5</sub>H<sub>9</sub>NO<sub>4</sub>",
        "Molecular Mass": "147.13",
        "Melting Point": "201 °C"
    }
}