{
    "cas_no": "20795-51-1",
    "key_name": "1-Phenyl-3-pentanone",
    "cn_name": "1-苯基戊-3-酮;",
    "alternate_name": "3-Pentanone, 1-phenyl-;1-Phenyl-3-pentanone;Ethyl phenethyl ketone",
    "duplicated_cas_no": "",
    "SMILES": "C(CC(CC)=O)C1=CC=CC=C1",
    "meta_data": {
        "InChI": "InChI=1S/C11H14O/c1-2-11(12)9-8-10-6-4-3-5-7-10/h3-7H,2,8-9H2,1H3",
        "InChIKey": null,
        "Canonical SMILES": "O=C(CC)CCC=1C=CC=CC1",
        "Molecular Formula": "C<sub>11</sub>H<sub>14</sub>O",
        "Molecular Mass": "162.23",
        "Boiling Point": "124 °C @ Press: 14 Torr"
    }
}