{
    "cas_no": "3622-84-2",
    "key_name": "<em>N</em>-Butylbenzenesulfonamide",
    "cn_name": "N-丁基苯磺酰胺;",
    "alternate_name": "Benzenesulfonamide, <em>N</em>-butyl-;<em>N</em>-Butylbenzenesulfonamide;Plastomoll BMB;BM 4;Uniplex 214;Plasthall BSA;Cetamoll BMB;Dellatol BBS;BM 4 (sulfonamide);<em>N</em>-(<em>n</em>-Butyl)benzenesulfonamide;BBSA;NSC 3536;AK 551;Topcizer 7;Benzenesulfonic acid butylamide;Butylbenzenesulfonamide;Proviplast 024",
    "duplicated_cas_no": "1028684-14-1;2102595-95-7",
    "SMILES": "S(NCCCC)(=O)(=O)C1=CC=CC=C1",
    "meta_data": {
        "InChI": "InChI=1S/C10H15NO2S/c1-2-3-9-11-14(12,13)10-7-5-4-6-8-10/h4-8,11H,2-3,9H2,1H3",
        "InChIKey": null,
        "Canonical SMILES": "O=S(=O)(NCCCC)C=1C=CC=CC1",
        "Molecular Formula": "C<sub>10</sub>H<sub>15</sub>NO<sub>2</sub>S",
        "Molecular Mass": "213.30",
        "Melting Point": "83 °C"
    }
}