{
    "cas_no": "877-42-9",
    "key_name": "6-Bromo-2-methylquinoline",
    "cn_name": "6-溴-2-甲基喹啉;",
    "alternate_name": "Quinoline, 6-bromo-2-methyl-;Quinaldine, 6-bromo-;6-Bromo-2-methylquinoline;6-Bromoquinaldine;2-Methyl-6-bromoquinoline",
    "duplicated_cas_no": "",
    "SMILES": "BrC1=CC2=C(N=C(C)C=C2)C=C1",
    "meta_data": {
        "InChI": "InChI=1S/C10H8BrN/c1-7-2-3-8-6-9(11)4-5-10(8)12-7/h2-6H,1H3",
        "InChIKey": null,
        "Canonical SMILES": "BrC=1C=CC=2N=C(C=CC2C1)C",
        "Molecular Formula": "C<sub>10</sub>H<sub>8</sub>BrN",
        "Molecular Mass": "222.08",
        "Melting Point": "97 °C"
    }
}