{
    "cas_no": "620-88-2",
    "key_name": "1-Nitro-4-phenoxybenzene",
    "cn_name": "对硝基二苯醚;4-硝基二苯醚;",
    "alternate_name": "Benzene, 1-nitro-4-phenoxy-;Ether, <em>p</em>-nitrophenyl phenyl;1-Nitro-4-phenoxybenzene;<em>p</em>-Nitrodiphenyl ether;<em>p</em>-Nitrophenyl phenyl ether;4-Nitrodiphenyl ether;4-Nitrophenyl phenyl ether;4-Phenoxynitrobenzene;RH 0211;NSC 5420;NSC 57080;4-Phenoxy-1-nitrobenzene;1-Phenoxy-4-nitrobenzene",
    "duplicated_cas_no": "",
    "SMILES": "O(C1=CC=C(N(=O)=O)C=C1)C2=CC=CC=C2",
    "meta_data": {
        "InChI": "InChI=1S/C12H9NO3/c14-13(15)10-6-8-12(9-7-10)16-11-4-2-1-3-5-11/h1-9H",
        "InChIKey": null,
        "Canonical SMILES": "O=N(=O)C1=CC=C(OC=2C=CC=CC2)C=C1",
        "Molecular Formula": "C<sub>12</sub>H<sub>9</sub>NO<sub>3</sub>",
        "Molecular Mass": "215.20",
        "Boiling Point": "320 °C",
        "Melting Point": "61 °C"
    }
}