{
    "cas_no": "87239-81-4",
    "key_name": "Cefpodoxime proxetil",
    "cn_name": "头孢泊肟酯;(6R,7R)-7-[2-(2-氨基噻唑-4-基)-2-(Z)-(甲氧亚氨基)-乙酰胺基]-3-甲氧甲基-8-氧代-5-硫-1-氮杂;",
    "alternate_name": "5-Thia-1-azabicyclo[4.2.0]oct-2-ene-2-carboxylic acid, 7-[[(2<em>Z</em>)-2-(2-amino-4-thiazolyl)-2-(methoxyimino)acetyl]amino]-3-(methoxymethyl)-8-oxo-, 1-[[(1-methylethoxy)carbonyl]oxy]ethyl ester, (6<em>R</em>,7<em>R</em>)-;5-Thia-1-azabicyclo[4.2.0]oct-2-ene-2-carboxylic acid, 7-[[(2-amino-4-thiazolyl)(methoxyimino)acetyl]amino]-3-(methoxymethyl)-8-oxo-, 1-[[(1-methylethoxy)carbonyl]oxy]ethyl ester, [6<em>R</em>-[6α,7β(<em>Z</em>)]]-;5-Thia-1-azabicyclo[4.2.0]oct-2-ene-2-carboxylic acid, 7-[[(2<em>Z</em>)-(2-amino-4-thiazolyl)(methoxyimino)acetyl]amino]-3-(methoxymethyl)-8-oxo-, 1-[[(1-methylethoxy)carbonyl]oxy]ethyl ester, (6<em>R</em>,7<em>R</em>)-;CS 807 (pharmaceutical);CS 807;Cefpodoxime proxetil;U 76252;Antibiotic CS 807;RU 51807;Banan;(<em>RS</em>)-1-(Isopropoxycarbonyloxy)ethyl (+)-(6<em>R</em>,7<em>R</em>)-7-[2-(2-amino-4-thiazolyl)-2-[(<em>Z</em>)-(methoxyimino]acetamido]-3-methoxymethyl-8-oxo-5-thia-1-azabicyclo[4.2.0]oct-2-ene-2-carboxylate;Orelox;Vantin;Otreon;Cefodox;Cephpodoxime proxetil;Cepodem;Cefoprox;Cefoflam;Simplicef",
    "duplicated_cas_no": "95242-58-3",
    "SMILES": "C(OC(OC(OC(C)C)=O)C)(=O)C=1N2[C@@]([C@H](NC(/C(=N\\OC)/C=3N=C(N)SC3)=O)C2=O)(SCC1COC)[H]",
    "meta_data": {
        "InChI": "InChI=1S/C21H27N5O9S2/c1-9(2)33-21(30)35-10(3)34-19(29)15-11(6-31-4)7-36-18-14(17(28)26(15)18)24-16(27)13(25-32-5)12-8-37-20(22)23-12/h8-10,14,18H,6-7H2,1-5H3,(H2,22,23)(H,24,27)/b25-13-/t10?,14-,18-/m1/s1",
        "InChIKey": null,
        "Canonical SMILES": "O=C(OC(OC(=O)C1=C(COC)CSC2N1C(=O)C2NC(=O)C(=NOC)C=3N=C(SC3)N)C)OC(C)C",
        "Molecular Formula": "C<sub>21</sub>H<sub>27</sub>N<sub>5</sub>O<sub>9</sub>S<sub>2</sub>",
        "Molecular Mass": "557.60",
        "Melting Point": "98-103 °C"
    }
}