{
    "cas_no": "3355-28-0",
    "key_name": "1-Bromo-2-butyne",
    "cn_name": "1-溴-2-丁炔;1-溴-2-丁炔;",
    "alternate_name": "2-Butyne, 1-bromo-;2-Butyne, bromo-;1-Bromo-2-butyne;2-Butynyl bromide;4-Bromobut-2-yne;2-Butyn-1-yl bromide;1-(Bromomethyl)-2-methylacetylene",
    "duplicated_cas_no": "1009031-44-0",
    "SMILES": "C(CBr)#CC",
    "meta_data": {
        "InChI": "InChI=1S/C4H5Br/c1-2-3-4-5/h4H2,1H3",
        "InChIKey": null,
        "Canonical SMILES": "BrCC#CC",
        "Molecular Formula": "C<sub>4</sub>H<sub>5</sub>Br",
        "Molecular Mass": "132.99",
        "Boiling Point": "68 °C @ Press: 78 Torr",
        "Density": "1.4828 g/cm³ @ Temp: 20 °C"
    }
}