{
    "cas_no": "3031-68-3",
    "key_name": "2,4-Hexadiyne-1,6-diol",
    "cn_name": "2,4-己二炔-1,6-二醇;",
    "alternate_name": "2,4-Hexadiyne-1,6-diol;2,4-Hexadiynediol;Diacetylene glycol;1,6-Dihydroxy-2,4-hexadiyne;NSC 11686;Carbow 2257;Carbon rainbow 2257",
    "duplicated_cas_no": "",
    "SMILES": "C(C#CCO)#CCO",
    "meta_data": {
        "InChI": "InChI=1S/C6H6O2/c7-5-3-1-2-4-6-8/h7-8H,5-6H2",
        "InChIKey": null,
        "Canonical SMILES": "OCC#CC#CCO",
        "Molecular Formula": "C<sub>6</sub>H<sub>6</sub>O<sub>2</sub>",
        "Molecular Mass": "110.11",
        "Melting Point": "112 °C"
    }
}