{
    "cas_no": "2381-85-3",
    "key_name": "Nile Blue",
    "cn_name": "碱性蓝12;",
    "alternate_name": "Benzo[<em>a</em>]phenoxazin-7-ium, 5-amino-9-(diethylamino)-, chloride (1:1);Nile Blue;C.I. Basic Blue 12;Benzo[<em>a</em>]phenoxazin-7-ium, 5-amino-9-(diethylamino)-, chloride;C.I. 51180;Nile blue base;Nile blue chloride;Nile Blue AX;Cresol Fast Violet;Cresyl Fast Violet;Nile Blue BX;LC 6900;9-<em>N</em>,<em>N</em>-Diethylamino-5-iminobenzo[<em>a</em>]phenoxazine monohydrochloride;TG 18",
    "duplicated_cas_no": "20517-93-5;89168-53-6;105480-57-7;114567-73-6;298209-62-8;299426-03-2;348637-62-7;415902-65-7;832733-89-8;874358-59-5;898282-92-3;927191-06-8;1026018-39-2;1026232-05-2;1063750-19-5",
    "SMILES": "NC1=C2C(=C3C([O+]=C4C(=N3)C=CC(N(CC)CC)=C4)=C1)C=CC=C2.[Cl-]",
    "meta_data": {
        "InChI": "InChI=1S/C20H20N3O.ClH/c1-3-23(4-2)13-9-10-17-18(11-13)24-19-12-16(21)14-7-5-6-8-15(14)20(19)22-17;/h5-12H,3-4,21H2,1-2H3;1H/q+1;/p-1",
        "InChIKey": null,
        "Canonical SMILES": "[Cl-].N=1C=2C=CC(=CC2[O+]=C3C=C(N)C=4C=CC=CC4C13)N(CC)CC",
        "Molecular Formula": "C<sub>20</sub>H<sub>20</sub>N<sub>3</sub>O.Cl",
        "Molecular Mass": "",
        "Melting Point": "&gt;300 °C"
    }
}