{
    "cas_no": "78-85-3",
    "key_name": "Methacrolein",
    "cn_name": "2-甲基丙烯醛;异丁烯醛;",
    "alternate_name": "2-Propenal, 2-methyl-;Methacrylaldehyde;2-Methyl-2-propenal;Isobutenal;Methacrolein;Methacrylic aldehyde;α-Methylacrolein;2-Methylacrolein;Methylacrylaldehyde;Methylacrolein;2-Methylpropenal;2-Methyl-2-propen-1-al;2-Methylenepropanal;α-Methacrolein;α-Methylacrylaldehyde;2-Formyl-1-propene;2-Methacrolein;NSC 8260",
    "duplicated_cas_no": "",
    "SMILES": "C(C=O)(C)=C",
    "meta_data": {
        "InChI": "InChI=1S/C4H6O/c1-4(2)3-5/h3H,1H2,2H3",
        "InChIKey": null,
        "Canonical SMILES": "O=CC(=C)C",
        "Molecular Formula": "C<sub>4</sub>H<sub>6</sub>O",
        "Molecular Mass": "70.09",
        "Boiling Point": "68.4 °C",
        "Melting Point": "-81 °C",
        "Density": "0.849 g/cm³ @ Temp: 25 °C"
    }
}