{
    "cas_no": "14318-66-2",
    "key_name": "3-Methoxy-<em>N</em>-methylbenzenamine",
    "cn_name": null,
    "alternate_name": "Benzenamine, 3-methoxy-<em>N</em>-methyl-;<em>m</em>-Anisidine, <em>N</em>-methyl-;3-Methoxy-<em>N</em>-methylbenzenamine;<em>m</em>-Methoxy-<em>N</em>-methylaniline;<em>N</em>-Methyl-3-methoxyaniline;<em>m</em>-<em>N</em>-Methylanisidine;<em>N</em>-Methyl-<em>m</em>-anisidine;3-Methoxy-<em>N</em>-methylaniline",
    "duplicated_cas_no": "",
    "SMILES": "N(C)C1=CC(OC)=CC=C1",
    "meta_data": {
        "InChI": "InChI=1S/C8H11NO/c1-9-7-4-3-5-8(6-7)10-2/h3-6,9H,1-2H3",
        "InChIKey": null,
        "Canonical SMILES": "O(C1=CC=CC(=C1)NC)C",
        "Molecular Formula": "C<sub>8</sub>H<sub>11</sub>NO",
        "Molecular Mass": "137.18",
        "Boiling Point": "138-140 °C @ Press: 15 Torr"
    }
}