{
    "cas_no": "20347-65-3",
    "key_name": "(+)-Borneol acetate",
    "cn_name": null,
    "alternate_name": "Bicyclo[2.2.1]heptan-2-ol, 1,7,7-trimethyl-, 2-acetate, (1<em>R</em>,2<em>S</em>,4<em>R</em>)-;Bicyclo[2.2.1]heptan-2-ol, 1,7,7-trimethyl-, acetate, (1<em>R</em>-<em>endo</em>)-;2-Bornanol, acetate, (1<em>R</em>,2<em>S</em>,4<em>R</em>)-(+)-;Bicyclo[2.2.1]heptan-2-ol, 1,7,7-trimethyl-, acetate, (1<em>R</em>,2<em>S</em>,4<em>R</em>)-;Borneol, <em>d</em>-, acetate;<em>d</em>-Bornyl acetate;(+)-Bornyl, acetate;(+)-Borneol acetate",
    "duplicated_cas_no": "1195141-69-5;1933735-02-4;2180110-06-7",
    "SMILES": "C[C@]12[C@@H](OC(C)=O)C[C@](C1(C)C)(CC2)[H]",
    "meta_data": {
        "InChI": "InChI=1S/C12H20O2/c1-8(13)14-10-7-9-5-6-12(10,4)11(9,2)3/h9-10H,5-7H2,1-4H3/t9-,10+,12+/m1/s1",
        "InChIKey": null,
        "Canonical SMILES": "O=C(OC1CC2CCC1(C)C2(C)C)C",
        "Molecular Formula": "C<sub>12</sub>H<sub>20</sub>O<sub>2</sub>",
        "Molecular Mass": "196.29",
        "Boiling Point": "105-107 °C @ Press: 15 Torr"
    }
}