{
    "cas_no": "71939-51-0",
    "key_name": "α-Artemether",
    "cn_name": null,
    "alternate_name": "3,12-Epoxy-12<em>H</em>-pyrano[4,3-<em>j</em>]-1,2-benzodioxepin, decahydro-10-methoxy-3,6,9-trimethyl-, (3<em>R</em>,5a<em>S</em>,6<em>R</em>,8a<em>S</em>,9<em>R</em>,10<em>R</em>,12<em>R</em>,12a<em>R</em>)-;3,12-Epoxy-12<em>H</em>-pyrano[4,3-<em>j</em>]-1,2-benzodioxepin, decahydro-10-methoxy-3,6,9-trimethyl-, [3<em>R</em>-(3α,5aβ,6β,8aβ,9α,10β,12β,12a<em>R</em>*)]-;(3<em>R</em>,5a<em>S</em>,6<em>R</em>,8a<em>S</em>,9<em>R</em>,10<em>R</em>,12<em>R</em>,12a<em>R</em>)-Decahydro-10-methoxy-3,6,9-trimethyl-3,12-epoxy-12<em>H</em>-pyrano[4,3-<em>j</em>]-1,2-benzodioxepin;SM 229;α-Artemether;(+)-α-Artemether;α-Dihydroartemisinin methyl ether",
    "duplicated_cas_no": "81451-22-1;159510-57-3",
    "SMILES": "C[C@@H]1[C@]2([C@]34[C@](O[C@H]1OC)(O[C@](C)(OO3)CC[C@]4([C@H](C)CC2)[H])[H])[H]",
    "meta_data": {
        "InChI": "InChI=1S/C16H26O5/c1-9-5-6-12-10(2)13(17-4)18-14-16(12)11(9)7-8-15(3,19-14)20-21-16/h9-14H,5-8H2,1-4H3/t9-,10-,11+,12+,13-,14-,15-,16-/m1/s1",
        "InChIKey": null,
        "Canonical SMILES": "O1OC23C4OC(OC)C(C)C3CCC(C)C2CCC1(O4)C",
        "Molecular Formula": "C<sub>16</sub>H<sub>26</sub>O<sub>5</sub>",
        "Molecular Mass": "298.37",
        "Melting Point": "88 °C"
    }
}