{
    "cas_no": "601-79-6",
    "key_name": "2-(1-Methylethyl)propanedioic acid",
    "cn_name": "异丙基丙二酸;",
    "alternate_name": "Propanedioic acid, 2-(1-methylethyl)-;Malonic acid, isopropyl-;Propanedioic acid, (1-methylethyl)-;2-(1-Methylethyl)propanedioic acid;Isopropylmalonic acid;α-Carboxyisovaleric acid;NSC 1168;NSC 120711;2-Isopropylmalonic acid;2-Propan-2-ylpropanedioic acid;2-(Propan-2-yl)propanedioic acid",
    "duplicated_cas_no": "",
    "SMILES": "C(C(C)C)(C(O)=O)C(O)=O",
    "meta_data": {
        "InChI": "InChI=1S/C6H10O4/c1-3(2)4(5(7)8)6(9)10/h3-4H,1-2H3,(H,7,8)(H,9,10)",
        "InChIKey": null,
        "Canonical SMILES": "O=C(O)C(C(=O)O)C(C)C",
        "Molecular Formula": "C<sub>6</sub>H<sub>10</sub>O<sub>4</sub>",
        "Molecular Mass": "146.14",
        "Melting Point": "87-88 °C"
    }
}