{
    "cas_no": "57709-62-3",
    "key_name": "1,10-Phenanthroline-2,9-dicarboxaldehyde",
    "cn_name": null,
    "alternate_name": "1,10-Phenanthroline-2,9-dicarboxaldehyde;2,9-Diformyl-1,10-phenanthroline;1,10-Phenanthroline-2,9-dicarbaldehyde",
    "duplicated_cas_no": "",
    "SMILES": "C(=O)C1=NC2=C3C(=CC=C2C=C1)C=CC(C=O)=N3",
    "meta_data": {
        "InChI": "InChI=1S/C14H8N2O2/c17-7-11-5-3-9-1-2-10-4-6-12(8-18)16-14(10)13(9)15-11/h1-8H",
        "InChIKey": null,
        "Canonical SMILES": "O=CC=1N=C2C(=CC1)C=CC=3C=CC(=NC32)C=O",
        "Molecular Formula": "C<sub>14</sub>H<sub>8</sub>N<sub>2</sub>O<sub>2</sub>",
        "Molecular Mass": "236.23",
        "Melting Point": "230 °C"
    }
}