{
    "cas_no": "54-12-6",
    "key_name": "(±)-Tryptophan",
    "cn_name": "DL-色氨酸;(+/-)-2-氨基-3-(3-吲哚基)丙酸;",
    "alternate_name": "Tryptophan;Tryptophan, <span class=\"text-smallcaps\">D</smallcap><smallcap>L</span>-;<span class=\"text-smallcaps\">D</smallcap><smallcap>L</span>-Tryptophan;<span class=\"text-smallcaps\">D</smallcap><smallcap>L</span>-α-Amino-3-indolepropionic acid;(±)-Tryptophan;(<em>RS</em>)-Tryptophan;1<em>H</em>-Indole-3-alanine;NSC 13118;<span class=\"text-smallcaps\">DL</span>-Tryptophan;2-Amino-3-(1<em>H</em>-indol-3-yl)propanoic acid;2-Amino-3-(1<em>H</em>-indol-3-yl)-propionic acid",
    "duplicated_cas_no": "",
    "SMILES": "C(C(C(O)=O)N)C=1C=2C(NC1)=CC=CC2",
    "meta_data": {
        "InChI": "InChI=1S/C11H12N2O2/c12-9(11(14)15)5-7-6-13-10-4-2-1-3-8(7)10/h1-4,6,9,13H,5,12H2,(H,14,15)",
        "InChIKey": null,
        "Canonical SMILES": "O=C(O)C(N)CC1=CNC=2C=CC=CC21",
        "Molecular Formula": "C<sub>11</sub>H<sub>12</sub>N<sub>2</sub>O<sub>2</sub>",
        "Molecular Mass": "204.23",
        "Melting Point": "230 °C (decomp)"
    }
}