{
    "cas_no": "118-00-3",
    "key_name": "Guanosine",
    "cn_name": "鸟嘌呤核苷;鸟嘌呤核甙;鸟苷;9-beta-D-呋喃核苷鸟嘌呤;",
    "alternate_name": "Guanosine;Guanine, 9-β-<span class=\"text-smallcaps\">D</span>-ribofuranosyl-;Inosine, 2-amino-;Vernine;β-<span class=\"text-smallcaps\">D</span>-Ribofuranoside, guanine-9;6<em>H</em>-Purin-6-one, 2-amino-1,9-dihydro-9-β-<span class=\"text-smallcaps\">D</span>-ribofuranosyl-;2-Amino-1,9-dihydro-9-β-<span class=\"text-smallcaps\">D</span>-ribofuranosyl-6<em>H</em>-purin-6-one;Guanine ribonucleoside;NSC 19994;<span class=\"text-smallcaps\">DL</span>-Guanosine;7: PN: WO2013104540 PAGE: 124 claimed sequence;MeSH ID: D006151",
    "duplicated_cas_no": "85-30-3;484-80-0;685891-87-6;1022900-70-4",
    "SMILES": "O=C1C2=C(N(C=N2)[C@@H]3O[C@H](CO)[C@@H](O)[C@H]3O)NC(N)=N1",
    "meta_data": {
        "InChI": "InChI=1S/C10H13N5O5/c11-10-13-7-4(8(19)14-10)12-2-15(7)9-6(18)5(17)3(1-16)20-9/h2-3,5-6,9,16-18H,1H2,(H3,11,13,14,19)/t3-,5-,6-,9-/m1/s1",
        "InChIKey": null,
        "Canonical SMILES": "O=C1N=C(N)NC2=C1N=CN2C3OC(CO)C(O)C3O",
        "Molecular Formula": "C<sub>10</sub>H<sub>13</sub>N<sub>5</sub>O<sub>5</sub>",
        "Molecular Mass": "283.24",
        "Melting Point": "239 °C (decomp)"
    }
}