{
    "cas_no": "2480-96-8",
    "key_name": "<span class=\"text-smallcaps\">L</span>-Ornithine, <em>N</em><sup>5</sup>-[(1,1-dimethylethoxy)carbonyl]-, methyl ester, hydrochloride (1:1)",
    "cn_name": null,
    "alternate_name": "<span class=\"text-smallcaps\">L</span>-Ornithine, <em>N</em><sup>5</sup>-[(1,1-dimethylethoxy)carbonyl]-, methyl ester, hydrochloride (1:1);Ornithine, N<sup>5</sup>-carboxy-, <em>N</em>-<em>tert</em>-butyl methyl ester, hydrochloride;Ornithine, <em>N</em><sup>5</sup>-carboxy-, <em>N</em>-<em>tert</em>-butyl methyl ester, hydrochloride;<span class=\"text-smallcaps\">L</span>-Ornithine, <em>N</em><sup>5</sup>-[(1,1-dimethylethoxy)carbonyl]-, methyl ester, monohydrochloride;(2<em>S</em>)-2-Amino-5-[(<em>tert</em>-butoxycarbonyl)amino]pentanoic acid methyl ester hydrochloride;Methyl (2<em>S</em>)-2-amino-5-[(<em>tert</em>-butoxycarbonyl)amino]pentanoate hydrochloride;<em>N</em><sup>5</sup>-(<em>tert</em>-Butoxycarbonyl)-<span class=\"text-smallcaps\">L</span>-ornithine methyl ester hydrochloride",
    "duplicated_cas_no": "1693717-59-7",
    "SMILES": "C(NCCC[C@@H](C(OC)=O)N)(OC(C)(C)C)=O.Cl",
    "meta_data": {
        "InChI": "InChI=1S/C11H22N2O4.ClH/c1-11(2,3)17-10(15)13-7-5-6-8(12)9(14)16-4;/h8H,5-7,12H2,1-4H3,(H,13,15);1H/t8-;/m0./s1",
        "InChIKey": null,
        "Canonical SMILES": "Cl.O=C(OC(C)(C)C)NCCCC(N)C(=O)OC",
        "Molecular Formula": "C<sub>11</sub>H<sub>22</sub>N<sub>2</sub>O<sub>4</sub>.ClH",
        "Molecular Mass": "",
        "Melting Point": "154-155 °C"
    }
}