{
    "cas_no": "1560-54-9",
    "key_name": "Phosphonium, triphenyl-2-propen-1-yl-, bromide (1:1)",
    "cn_name": "烯丙基三苯基溴化膦;",
    "alternate_name": "Phosphonium, triphenyl-2-propen-1-yl-, bromide (1:1);Phosphonium, allyltriphenyl-, bromide;Phosphonium, triphenyl-2-propenyl-, bromide;Allyltriphenylphosphonium bromide;Triphenylallylphosphonium bromide;2-Propenyltriphenylphosphonium bromide;Triphenyl(2-propenyl)phosphonium bromide;NSC 110609;NSC 59815;A 1007;Hishicolin PX 4B",
    "duplicated_cas_no": "161150-68-1",
    "SMILES": "[P+](CC=C)(C1=CC=CC=C1)(C2=CC=CC=C2)C3=CC=CC=C3.[Br-]",
    "meta_data": {
        "InChI": "InChI=1S/C21H20P.BrH/c1-2-18-22(19-12-6-3-7-13-19,20-14-8-4-9-15-20)21-16-10-5-11-17-21;/h2-17H,1,18H2;1H/q+1;/p-1",
        "InChIKey": null,
        "Canonical SMILES": "[Br-].C=CC[P+](C=1C=CC=CC1)(C=2C=CC=CC2)C=3C=CC=CC3",
        "Molecular Formula": "C<sub>21</sub>H<sub>20</sub>P.Br",
        "Molecular Mass": "",
        "Melting Point": "209 °C",
        "Density": "1.32 g/cm³ @ Temp: 25.000 °C"
    }
}