{
    "cas_no": "399-73-5",
    "key_name": "6-Fluoro-2-methylbenzothiazole",
    "cn_name": null,
    "alternate_name": "Benzothiazole, 6-fluoro-2-methyl-;6-Fluoro-2-methylbenzothiazole;2-Methyl-6-fluorobenzothiazole",
    "duplicated_cas_no": "",
    "SMILES": "CC1=NC=2C(S1)=CC(F)=CC2",
    "meta_data": {
        "InChI": "InChI=1S/C8H6FNS/c1-5-10-7-3-2-6(9)4-8(7)11-5/h2-4H,1H3",
        "InChIKey": null,
        "Canonical SMILES": "FC=1C=CC=2N=C(SC2C1)C",
        "Molecular Formula": "C<sub>8</sub>H<sub>6</sub>FNS",
        "Molecular Mass": "167.20",
        "Melting Point": "112-114 °C"
    }
}