{
    "cas_no": "120-00-3",
    "key_name": "Fast Blue BB",
    "cn_name": "固蓝BB;N-(4-氨基-2,5-二乙氧基苯基)苯甲酰胺;",
    "alternate_name": "Benzamide, <em>N</em>-(4-amino-2,5-diethoxyphenyl)-;Benzanilide, 4′-amino-2′,5′-diethoxy-;<em>N</em>-(4-Amino-2,5-diethoxyphenyl)benzamide;Blue Salt NBB;Brentamine Fast Blue 2B Base;Brentamine Fast Blue BB Base;Fast Blue EB Base;Spectrolene Blue BB;4-Amino-1-(benzoylamino)-3,6-diethoxybenzene;1-Amino-4-(benzoylamino)-2,5-diethoxybenzene;2,5-Diethoxy-4-benzamidoaniline;Fast Blue BB;4-Benzamido-2,5-diethoxyaniline;NSC 37184",
    "duplicated_cas_no": "",
    "SMILES": "N(C(=O)C1=CC=CC=C1)C2=C(OCC)C=C(N)C(OCC)=C2",
    "meta_data": {
        "InChI": "InChI=1S/C17H20N2O3/c1-3-21-15-11-14(16(22-4-2)10-13(15)18)19-17(20)12-8-6-5-7-9-12/h5-11H,3-4,18H2,1-2H3,(H,19,20)",
        "InChIKey": null,
        "Canonical SMILES": "O=C(NC=1C=C(OCC)C(N)=CC1OCC)C=2C=CC=CC2",
        "Molecular Formula": "C<sub>17</sub>H<sub>20</sub>N<sub>2</sub>O<sub>3</sub>",
        "Molecular Mass": "300.35",
        "Melting Point": "101 °C"
    }
}