{
    "cas_no": "1314-23-4",
    "key_name": "Zirconium dioxide",
    "cn_name": "氧化锆;二氧化锆;颜料白16;",
    "alternate_name": "Zirconium oxide (ZrO<sub>2</sub>);C.I. 77990;Zirconic anhydride;Zirconium dioxide;Zirconium White;Zirconia;Zirconium oxide;C.I. Pigment White 12;Zirox Zt 35;Zirconotrast;Zirconium(IV) oxide;Zirox 250;Zirbeads;Mel-S;Pigment White 12;Zr 150/20;Nissan Zirconia Sol NZS 20A;ZP 2;ZP-S;BR 90G;9MG (oxide);9MG;NZS 20A;Zircopel SS;SPZ (oxide);SPZ;ZP-A;TZ 0;CC 10;PD 39;NZS 30B;AZS-A;NZS 20A3Y;Zircosol NZS 30A;ZR 200;ZR 200 (oxide);Fianit;Dynazircon F 5Y;AZS-NB;Zircoa 5027;Torayceram Sol ZS-OA;TZ 3YTSK;Nyacol Zr 50/20;Nyacol Zr 100/20;AZS-B;Nyacol ZR 10/20;CAP;CF Super HM;CAP (oxide);E 101;E 101 (oxide);RZ 8C325F;PCS;PCS (filler);Zirconia NZ-A;NZ-A;NZ-A (oxide);Z 999-1;Z 999-2;ZD 100;NZS 30;KZ-OY-LF;Nyacol Zr;Mel E 101;XZ 16052;Norton 9839;Slurry 9839;Zirox 180;Prozyr;OZC 12CEB;NZS 30A;SAZ;OZC 0;Bacote 20T2;DK 2 (oxide);ZSL 20N;DK 2;NSC 12958;ZP 2 (oxide);3YA;ZR 11;Nanotek ZrO<sub>2</sub>;H 0907;HSY 3B;Nanotek Zr;RSC-H;FZCA;NSZ 30A;RC 100P;OOSS 008;OZC 3YF;FZR 325;3Y-TZ;Aerosil VPH;XZ 16075;RC 100;RC 100 (oxide);UEP 100;ZOX-PG;AL 7;ZSL 10T;Digest T 90;MZR;ZR 50/20;MZR (oxide);AE 7592;SZ 31108;SZ 39114;XZO 892/03;XZO 857/03;TZ-SX 17;ZirChrom-PHASE;NNC 100;HXU 110JC;JRC-ZRO 4;TZ-B 125;KZ-OY;HZ 307W6;PCS 60;XZO 631101;NZD 8J61;N-PC;SDK 001P;NZD 8E61;XZO 881/04;ZR 40BL;ZR 30BS;BOP 3M;NZD 3007;NZD 8007;Nanouse OZ 30M;Zr 30AH;TYZ 67H01;Nanouse ZR 40BL;Nanouse ZR 30BS;NZD 8E61-01;Torayceram Grinding Media;NZD 3005;KZ-OY-LSF;Nanouse ZR 30AL;Ecostage RB-SEC 1;TZ 6YS;Nanouse ZR 30A;BR 3QZ;NZD 3JF95E;VP Zirconium Oxide PH;W 0.1V;ZRMEK 25WT%-F 47;NobelProcera;Elcom JX 1022ZRV;UEP 50;RSC-HP;Nalco OOSSOO 8;NZD 3007NDO;Plasma Beads PB ZrO<sub>2</sub>:Y;Nalco 00SS008;ZR-AL;ZR-AL 30;OZ-S 30K;DSC-HP;KZ OY-L;KaVo;JRC-ZRO 2;JRC-ZRO 3;Z 1628;Biral Zr-C 20;ZR 010-09;HSY 3F-J;ZR 010-08;Alfa Aesar 043815;Nanouse ZR 30AR;ZRMEK25WT;Nanouse ZR 30AH;RSC 100;Elcom HK 1002ZRV;Nanouse ZR 30BF;BR-QZ;Micro Hyca;DK 3CH;ZRT-E 30;Nanouse OZ-S 30K;Optolake TR 554;ID 191;MZ 230X;HXU 120JC;SZR;ZSL 10A;Nanouse ZR 20AS;ZR 010-02;VK-G 50;Nanouse OZ-S 30K-AC;UFP 100;Zircox 15;HST 3F;ZRW-E 15;F 75;F 75 (oxide);TZ 0Y;OZ-S 30K-AC;ZRDMA 30WT%M 22;SZR-W;SZR-K;XZO 1247;XZO 1501;Z 10074;HZ 407MH;SZR-CW;ZL 30AL;ZR 002PA;Nanouse OZ-S 20K-AC;ZRT 15WT-E30;ZRT 15WT-E28;ZRT-E 28;Z 2087;Nanon 5ZR010;TZ Black;SZ 31163;YTZ 0.6;VK-R 50W;OZ-S 30M;WZ 220;PCS 90;BR 12QZ;ZR 30AL;OZ 30M;ZRPA 30WT%E 11;TMZ;Tecnadis ZR 210;VA-RH 80;ZR 010;KZ 0Y-LSF;3YS20A;ZB 350;ZB 480;YND-ZR;Tecnadis ZR 205;ZC 3000;ZRMEK 25%-F 47;Inmafeed K 1012;BQ-PZ 1;Ceraflex A;Tecnadis ZR 220;PP 8835;Tecnadis ZR 220 1KG;TZ-B 53;ZRPA 30WT%E25;SG;UEP;NZD 4001;MEL-FZ 0-1501/06;MEL-FZ 0-1501/09;Zircosol 20A;NUA 446LZK;Nyacol ZR 10/15;TZ-B 30;DCX 1057ZRC;Z 315;ZR 30BFN;Tecnapow ZrO2;OZ-S 40K-AC;Nanouse OZ-S 30M;MELcat XZO 1501;Zircostar ZP 153A;D 9-89;Tecnapow ZrO2 100G;Optolake 256Z1;Nanouse OZ-S 40K-AC;Z 0Y;VK-R 30C;ZRPMA 20WTE05;ZRPMIBK 20WTP02;ZRPGM 20WTF57;AX-ZP 153A;HZ 400M7;CY-R 30;Z-NX;ZRMIBK 15WT-F85;BF 20FS;Shofu Disc ZR-SS Lucent;ZA 14;SZR-T;TZ-PX 430;Zircostar ZP 153;TGP-M 100;Matsukaze Disk ZR Lucent FA;Zpex SMILE;SZR-CM;NO-O 006;PCPG 50TOL;SCZ 101;Z 99(3-5);SZR-GM;TZP 108;SZK330A;MHI-FM 215M;JRC-ZRO 6;Zirconeo Ck;ZR-20AS;HR 101;B 943M;XS 91;ZRMIBK 15WT-E41;Tecnapow ZNO;Lava Plus;Katana Zirconia UTML;TZ 8YE;Nanon 5ZR020;3YZ-E;ZSL 00014;VK-RJ 80;DK-ZrO<sub>2</sub> 001;VK-R 30;DK 417-35;Zr 01;Zircostar HR 101;VK-R 30F;Zirconeo Cp;NZr 2Y3-40;SZ-Fresh;Noritake Katana Zirconia STML;ZP 153;3 YI-R;ZSL 00120;Z-Tech 5050-3HM;Z-Tech 4958-3HM;PGT-D 30;DK-ZrO<sub>2</sub> 002;VK-R 30W;JRC-ZRO-7;ZSL 00120A;KD 511G;TZ-Y 3E;SZ 31164;zirconia;Z 3103;Z 3100;Z 3100 (oxide);HN-R 50Y3;ZSL 00120B;Ecostage RT-HRU 1;ZRMIBK 15WT-P01;HN-R 30D;VK-R 50;SZR-GCW;PSZ 200;CP 836 (oxide);CP 836;OZ-P;HN-R 30;Nanouse OZ 630M;XZ-ZR 601;KYZ 8;UZY 8;XFI 01;TPG-M 560;VK-R 30Y8;SP 40C;HN-RJ 80;UPE 50;Nyacol ZR 70/20;SZ 6 (oxide);SZ 6;UPE 100;Nanon ZR 010;Zirconea RP;VK-R 50Y1",
    "duplicated_cas_no": "10377-99-8;12627-76-8;73649-21-5;112414-85-4;129774-17-0;869287-83-2;943230-04-4;943895-94-1;949569-08-8;1134791-55-1;1255709-69-3;1349696-92-9;1381839-91-3;1403239-99-5;1570062-08-6;1604798-57-3;1617532-81-6;2250057-81-7;2918778-29-5",
    "SMILES": "[Zr](=O)=O",
    "meta_data": {
        "InChI": "InChI=1S/2O.Zr",
        "InChIKey": null,
        "Canonical SMILES": "O=[Zr]=O",
        "Molecular Formula": "O<sub>2</sub>Zr",
        "Molecular Mass": "",
        "Melting Point": "2600 °C",
        "Density": "6.13 g/cm³"
    }
}