{
    "cas_no": "63-25-2",
    "key_name": "Carbaryl",
    "cn_name": "甲萘威;1-萘基-N-甲基氨基甲酸酯;",
    "alternate_name": "1-Naphthalenol, 1-(<em>N</em>-methylcarbamate);Carbamic acid, methyl-, 1-naphthyl ester;1-Naphthalenol, methylcarbamate;Carbaryl;Compound 7744;Experimental Insecticide 7744;1-Naphthol <em>N</em>-methylcarbamate;1-Naphthyl methylcarbamate;1-Naphthyl <em>N</em>-methylcarbamate;Sevin;Union Carbide 7744;Atoxan;Panam;Denapon;Karbosep;Carbatox 75;Germain's;Dicarbam;ENT 23969;NAC;Carbatox;Carbatox 60;Karbatox;Sevin 4;α-Naphthalenyl methylcarbamate;Arylam;Seffein;Sevimol;Monsur;Vioxan;α-Naphthyl methylcarbamate;Karbatox 75;Pomex;NMC 50;Menaphtam;Sewin;Murvin;Carbaril;Dyna-carbyl;Carbavur;Arilate;Arilat;Mugan;Ravyon;Carbomate;Oltitox;Prosevor 85;Hexavin;Vetox;Karbatox zawiesinowy;Caprolin;Thinsec;NAC (insecticide);Carvin;Sevin 50WP;XLR-Plus;Sevin 4L;Laivin;Suvamil;Suvavil L;Agrex S;Laivin 85;Suvamil 50;Dicarbam 50;Sevin 75;Sevin S 50;Prosevor;Slam;Clean Crop Sevin 5 Bait;Sanol 50;Carylderm;OMS 29;Derbac;UC 7744;Clinicide;NSC 27311;Vetox 85;Savite;Sevin-4-Oil;Sevin bait;Sevin XLR;Sevin XLR plus;Adios;Sevnol;SA 50 Mole Cricket Bait;Garden Tech Sevin Lawn Insecticide;Garden Tech Sevin Lawn Insect Granules;Garden Tech Sevin Concentrate Bug Killer;Carbaryl 4L;Bugmaster;MeSH ID: D012721",
    "duplicated_cas_no": "11095-11-7;11130-47-5;51274-03-4;52001-89-5;1392204-77-1",
    "SMILES": "O(C(NC)=O)C=1C2=C(C=CC1)C=CC=C2",
    "meta_data": {
        "InChI": "InChI=1S/C12H11NO2/c1-13-12(14)15-11-8-4-6-9-5-2-3-7-10(9)11/h2-8H,1H3,(H,13,14)",
        "InChIKey": null,
        "Canonical SMILES": "O=C(OC1=CC=CC=2C=CC=CC12)NC",
        "Molecular Formula": "C<sub>12</sub>H<sub>11</sub>NO<sub>2</sub>",
        "Molecular Mass": "201.22",
        "Boiling Point": "315 °C",
        "Melting Point": "145 °C",
        "Density": "1.232 g/cm³ @ Temp: 20 °C"
    }
}