{
    "cas_no": "1493-27-2",
    "key_name": "1-Fluoro-2-nitrobenzene",
    "cn_name": "1-氟-2-硝基苯;2-氟硝基苯;邻氟硝基苯;",
    "alternate_name": "Benzene, 1-fluoro-2-nitro-;1-Fluoro-2-nitrobenzene;<em>o</em>-Nitrofluorobenzene;<em>o</em>-Fluoronitrobenzene;2-Fluoronitrobenzene;2-Nitrofluorobenzene;2-Fluoro-1-nitrobenzene;2-Nitro-1-fluorobenzene;NSC 51869;4-Fluoro-3-nitrobenzene;3-Fluoro-2-nitrobenzene",
    "duplicated_cas_no": "",
    "SMILES": "N(=O)(=O)C1=C(F)C=CC=C1",
    "meta_data": {
        "InChI": "InChI=1S/C6H4FNO2/c7-5-3-1-2-4-6(5)8(9)10/h1-4H",
        "InChIKey": null,
        "Canonical SMILES": "O=N(=O)C=1C=CC=CC1F",
        "Molecular Formula": "C<sub>6</sub>H<sub>4</sub>FNO<sub>2</sub>",
        "Molecular Mass": "141.10",
        "Boiling Point": "86-87 °C @ Press: 11 Torr",
        "Melting Point": "-6 °C",
        "Density": "1.3291 g/cm³ @ Temp: 25.00 °C"
    }
}