{
    "cas_no": "20440-95-3",
    "key_name": "4-Methyl-<em>N</em>-(4-methylphenyl)-<em>N</em>-phenylbenzenamine",
    "cn_name": "4,4\"-二甲基三苯胺;",
    "alternate_name": "Benzenamine, 4-methyl-<em>N</em>-(4-methylphenyl)-<em>N</em>-phenyl-;Di-<em>p</em>-tolylamine, <em>N</em>-phenyl-;4-Methyl-<em>N</em>-(4-methylphenyl)-<em>N</em>-phenylbenzenamine;<em>N</em>,<em>N</em>-Di-<em>p</em>-tolylaniline;<em>N</em>-Phenyl-di-<em>p</em>-tolylamine;<em>N</em>,<em>N</em>-Bis(4-methylphenyl)aniline;Phenylbis(<em>p</em>-tolyl)amine;Phenyl-di-<em>p</em>-tolylamine;4,4′-Dimethyltriphenylamine;<em>N</em>,<em>N</em>-Bis(<em>p</em>-tolyl)aniline;<em>N</em>,<em>N</em>-Di(4-methylphenyl)phenylamine",
    "duplicated_cas_no": "",
    "SMILES": "N(C1=CC=C(C)C=C1)(C2=CC=C(C)C=C2)C3=CC=CC=C3",
    "meta_data": {
        "InChI": "InChI=1S/C20H19N/c1-16-8-12-19(13-9-16)21(18-6-4-3-5-7-18)20-14-10-17(2)11-15-20/h3-15H,1-2H3",
        "InChIKey": null,
        "Canonical SMILES": "C=1C=CC(=CC1)N(C2=CC=C(C=C2)C)C3=CC=C(C=C3)C",
        "Molecular Formula": "C<sub>20</sub>H<sub>19</sub>N",
        "Molecular Mass": "273.37",
        "Boiling Point": "289.3 °C",
        "Melting Point": "109 °C"
    }
}