{
    "cas_no": "28478-46-8",
    "key_name": "Benzoic acid, 4-hydroxy-2-methoxy-, methyl ester",
    "cn_name": null,
    "alternate_name": "Benzoic acid, 4-hydroxy-2-methoxy-, methyl ester;<em>o</em>-Anisic acid, 4-hydroxy-, methyl ester;4-Hydroxy-2-methoxybenzoic acid methyl ester;Methyl 4-hydroxy-2-methoxybenzoate;Methyl 4-hydroxy-<em>o</em>-anisate",
    "duplicated_cas_no": "",
    "SMILES": "C(OC)(=O)C1=C(OC)C=C(O)C=C1",
    "meta_data": {
        "InChI": "InChI=1S/C9H10O4/c1-12-8-5-6(10)3-4-7(8)9(11)13-2/h3-5,10H,1-2H3",
        "InChIKey": null,
        "Canonical SMILES": "O=C(OC)C1=CC=C(O)C=C1OC",
        "Molecular Formula": "C<sub>9</sub>H<sub>10</sub>O<sub>4</sub>",
        "Molecular Mass": "182.17",
        "Melting Point": "110 °C"
    }
}