{
    "cas_no": "124-13-0",
    "key_name": "Octanal",
    "cn_name": "正辛醛;辛醛;羊脂醛;",
    "alternate_name": "Octanal;Antifoam LF;Caprylaldehyde;Caprylic aldehyde;Octaldehyde;<em>n</em>-Octanal;<em>n</em>-Octylal;<em>n</em>-Caprylaldehyde;<em>n</em>-Octaldehyde;Octanoic aldehyde;Octanaldehyde;Octylaldehyde;<em>n</em>-Octyl aldehyde;Aldehyde C 8;NSC 1508;NSC 8969",
    "duplicated_cas_no": "",
    "SMILES": "C(CCCC)CCC=O",
    "meta_data": {
        "InChI": "InChI=1S/C8H16O/c1-2-3-4-5-6-7-8-9/h8H,2-7H2,1H3",
        "InChIKey": null,
        "Canonical SMILES": "O=CCCCCCCC",
        "Molecular Formula": "C<sub>8</sub>H<sub>16</sub>O",
        "Molecular Mass": "128.21",
        "Boiling Point": "163.4 °C @ Press: 760 Torr",
        "Melting Point": "-23 °C",
        "Density": "0.821 g/cm³ @ Temp: 20 °C"
    }
}