{
    "cas_no": "84-19-5",
    "key_name": "Phenol, 4,4′-(1,2-diethylidene-1,2-ethanediyl)bis-, 1,1′-diacetate",
    "cn_name": "醋酸双烯雌酚;醋酸双烯雌酚;3,4-双(对羟基苯基)-2,4-己二烯二乙酸酯;二乙酸双烯雌酚酯;",
    "alternate_name": "Phenol, 4,4′-(1,2-diethylidene-1,2-ethanediyl)bis-, 1,1′-diacetate;Phenol, 4,4′-(diethylideneethylene)di-, diacetate;Phenol, 4,4′-(1,2-diethylidene-1,2-ethanediyl)bis-, diacetate;3,4-Bis(<em>p</em>-acetoxyphenyl)-2,4-hexadiene;Dienestrol diacetate;Farmacyrol;Retalon-Oral;Lipamone;NSC 81279",
    "duplicated_cas_no": "316-24-5;8028-17-9",
    "SMILES": "C(C(=CC)C1=CC=C(OC(C)=O)C=C1)(=CC)C2=CC=C(OC(C)=O)C=C2",
    "meta_data": {
        "InChI": "InChI=1S/C22H22O4/c1-5-21(17-7-11-19(12-8-17)25-15(3)23)22(6-2)18-9-13-20(14-10-18)26-16(4)24/h5-14H,1-4H3",
        "InChIKey": null,
        "Canonical SMILES": "O=C(OC1=CC=C(C=C1)C(=CC)C(=CC)C2=CC=C(OC(=O)C)C=C2)C",
        "Molecular Formula": "C<sub>22</sub>H<sub>22</sub>O<sub>4</sub>",
        "Molecular Mass": "350.41",
        "Melting Point": "119-120 °C"
    }
}