{
    "cas_no": "26364-65-8",
    "key_name": "<em>N</em>-(4,5-Dihydro-2-thiazolyl)cyanamide",
    "cn_name": "2-氰基亚胺基-1,3-噻唑烷;",
    "alternate_name": "Cyanamide, <em>N</em>-(4,5-dihydro-2-thiazolyl)-;Δ<sup>2,</sup><em><sup>N</sup></em>-Thiazolidinecarbamonitrile;Cyanamide, (4,5-dihydro-2-thiazolyl)-;<em>N</em>-(4,5-Dihydro-2-thiazolyl)cyanamide;2-Thiazolidinylidenecyanamide;2-(Cyanoimino)thiazolidine;2-Cyanoimino-1,3-thiazolidine;<em>N</em>-Cyanoiminothiazolidine;[(4,5-Dihydro-1,3-thiazol-2-yl)amino]formonitrile",
    "duplicated_cas_no": "",
    "SMILES": "N(C#N)C1=NCCS1",
    "meta_data": {
        "InChI": "InChI=1S/C4H5N3S/c5-3-7-4-6-1-2-8-4/h1-2H2,(H,6,7)",
        "InChIKey": null,
        "Canonical SMILES": "N#CNC1=NCCS1",
        "Molecular Formula": "C<sub>4</sub>H<sub>5</sub>N<sub>3</sub>S",
        "Molecular Mass": "127.17",
        "Melting Point": "156-157 °C"
    }
}