{
    "cas_no": "2338-75-2",
    "key_name": "4-(Trifluoromethyl)benzeneacetonitrile",
    "cn_name": null,
    "alternate_name": "Benzeneacetonitrile, 4-(trifluoromethyl)-;Acetonitrile, (α,α,α-trifluoro-<em>p</em>-tolyl)-;4-(Trifluoromethyl)benzeneacetonitrile;(α,α,α-Trifluoro-<em>p</em>-tolyl)acetonitrile;<em>p</em>-(Trifluoromethyl)phenylacetonitrile;4-(Trifluoromethyl)phenylacetonitrile;4-Trifluoromethylbenzeneacetonitrile;4-Trifluoromethylbenzyl cyanide;<em>p</em>-Trifluoromethylbenzyl cyanide;2-[4-(Trifluoromethyl)phenyl]acetonitrile",
    "duplicated_cas_no": "",
    "SMILES": "C(F)(F)(F)C1=CC=C(CC#N)C=C1",
    "meta_data": {
        "InChI": "InChI=1S/C9H6F3N/c10-9(11,12)8-3-1-7(2-4-8)5-6-13/h1-4H,5H2",
        "InChIKey": null,
        "Canonical SMILES": "N#CCC1=CC=C(C=C1)C(F)(F)F",
        "Molecular Formula": "C<sub>9</sub>H<sub>6</sub>F<sub>3</sub>N",
        "Molecular Mass": "185.15",
        "Boiling Point": "131.5 °C",
        "Melting Point": "48 °C"
    }
}