{
    "cas_no": "110284-79-2",
    "key_name": "2-[(4,6-Dimethoxy-2-pyrimidinyl)thio]benzoic acid",
    "cn_name": null,
    "alternate_name": "Benzoic acid, 2-[(4,6-dimethoxy-2-pyrimidinyl)thio]-;2-[(4,6-Dimethoxy-2-pyrimidinyl)thio]benzoic acid;2-(4,6-Dimethoxypyrimidin-2-ylsulfanyl)benzoic acid",
    "duplicated_cas_no": "",
    "SMILES": "S(C1=C(C(O)=O)C=CC=C1)C=2N=C(OC)C=C(OC)N2",
    "meta_data": {
        "InChI": "InChI=1S/C13H12N2O4S/c1-18-10-7-11(19-2)15-13(14-10)20-9-6-4-3-5-8(9)12(16)17/h3-7H,1-2H3,(H,16,17)",
        "InChIKey": null,
        "Canonical SMILES": "O=C(O)C=1C=CC=CC1SC=2N=C(OC)C=C(N2)OC",
        "Molecular Formula": "C<sub>13</sub>H<sub>12</sub>N<sub>2</sub>O<sub>4</sub>S",
        "Molecular Mass": "292.31",
        "Melting Point": "127-130 °C"
    }
}