{
    "cas_no": "1314-20-1",
    "key_name": "Thorium oxide (ThO<sub>2</sub>)",
    "cn_name": null,
    "alternate_name": "Thorium oxide (ThO<sub>2</sub>);Thoria;Thorium dioxide;Thorotrast;Umbrathor;Thorium oxide;Thorium(IV) oxide",
    "duplicated_cas_no": "8006-33-5;34321-99-8",
    "SMILES": "[Th](=O)=O",
    "meta_data": {
        "InChI": "InChI=1S/2O.Th",
        "InChIKey": null,
        "Canonical SMILES": "O=[Th]=O",
        "Molecular Formula": "O<sub>2</sub>Th",
        "Molecular Mass": "",
        "Boiling Point": "4400 °C",
        "Melting Point": "3390 °C",
        "Density": "10.0 g/cm³"
    }
}