{
    "cas_no": "80-25-1",
    "key_name": "Dihydro-α-terpinyl acetate",
    "cn_name": "&alpha;,&alpha;-4-三甲基-环己基甲醇乙酸酯;",
    "alternate_name": "Cyclohexanemethanol, α,α,4-trimethyl-, 1-acetate;<em>p</em>-Menthan-8-ol, acetate;Cyclohexanemethanol, α,α,4-trimethyl-, acetate;Dihydro-α-terpinyl acetate;2-(4-Methylcyclohexyl)propan-2-yl acetate",
    "duplicated_cas_no": "1384165-34-7",
    "SMILES": "C(OC(C)=O)(C)(C)C1CCC(C)CC1",
    "meta_data": {
        "InChI": "InChI=1S/C12H22O2/c1-9-5-7-11(8-6-9)12(3,4)14-10(2)13/h9,11H,5-8H2,1-4H3",
        "InChIKey": null,
        "Canonical SMILES": "O=C(OC(C)(C)C1CCC(C)CC1)C",
        "Molecular Formula": "C<sub>12</sub>H<sub>22</sub>O<sub>2</sub>",
        "Molecular Mass": "198.30",
        "Boiling Point": "134 °C @ Press: 14 Torr"
    }
}