{
    "cas_no": "520-11-6",
    "key_name": "Nepetin",
    "cn_name": "6-甲氧基藤黄菌素;6-甲氧基藤黄菌素;",
    "alternate_name": "4<em>H</em>-1-Benzopyran-4-one, 2-(3,4-dihydroxyphenyl)-5,7-dihydroxy-6-methoxy-;Flavone, 3′,4′,5,7-tetrahydroxy-6-methoxy-;2-(3,4-Dihydroxyphenyl)-5,7-dihydroxy-6-methoxy-4<em>H</em>-1-benzopyran-4-one;Eupafolin;Nepetin;6-Methoxyluteolin;3′,4′,5,7-Tetrahydroxy-6-methoxyflavone;NSC 122416;2-(3,4-Dihydroxyphenyl)-5,7-dihydroxy-6-methoxychromen-4-one;2-(3,4-Dihydroxyphenyl)-5,7-dihydroxy-6-methoxy-4<em>H</em>-chromen-4-one",
    "duplicated_cas_no": "",
    "SMILES": "OC1=C2C(OC(=CC2=O)C3=CC(O)=C(O)C=C3)=CC(O)=C1OC",
    "meta_data": {
        "InChI": "InChI=1S/C16H12O7/c1-22-16-11(20)6-13-14(15(16)21)10(19)5-12(23-13)7-2-3-8(17)9(18)4-7/h2-6,17-18,20-21H,1H3",
        "InChIKey": null,
        "Canonical SMILES": "O=C1C=C(OC2=CC(O)=C(OC)C(O)=C12)C=3C=CC(O)=C(O)C3",
        "Molecular Formula": "C<sub>16</sub>H<sub>12</sub>O<sub>7</sub>",
        "Molecular Mass": "316.26",
        "Melting Point": "262-264 °C"
    }
}