{
    "cas_no": "2816-12-8",
    "key_name": "<span class=\"text-smallcaps\">DL</span>-Valine <em>N</em>-carboxy anhydride",
    "cn_name": null,
    "alternate_name": "2,5-Oxazolidinedione, 4-(1-methylethyl)-;2,5-Oxazolidinedione, 4-isopropyl-;4-(1-Methylethyl)-2,5-oxazolidinedione;Valine, <em>N</em>-carboxy-, cyclic anhydride;<span class=\"text-smallcaps\">DL</span>-Valine <em>N</em>-carboxy anhydride",
    "duplicated_cas_no": "1676-85-3",
    "SMILES": "C(C)(C)C1NC(=O)OC1=O",
    "meta_data": {
        "InChI": "InChI=1S/C6H9NO3/c1-3(2)4-5(8)10-6(9)7-4/h3-4H,1-2H3,(H,7,9)",
        "InChIKey": null,
        "Canonical SMILES": "O=C1OC(=O)C(N1)C(C)C",
        "Molecular Formula": "C<sub>6</sub>H<sub>9</sub>NO<sub>3</sub>",
        "Molecular Mass": "143.14",
        "Melting Point": "79 °C"
    }
}