{
    "cas_no": "1615-94-7",
    "key_name": "Simiarenol",
    "cn_name": null,
    "alternate_name": "<em>A</em>′-Neo-25,26,28-trinorgammacer-5-en-3-ol, 9,13,17-trimethyl-, (3β,8β,9α,10α,13β,14α,17α,18β)-;Simiarenol;<em>D</em>:<em>B</em>-Friedo-<em>B</em>′:<em>A</em>′-neogammacer-5-en-3β-ol;<em>D</em>:<em>B</em>-Friedo-<em>B</em>′:<em>A</em>′-neogammacer-5-en-3-ol, (3β)-;(3β,8β,9α,10α,13β,14α,17α,18β)-9,13,17-Trimethyl-<em>A</em>′-neo-25,26,28-trinorgammacer-5-en-3-ol;<em>E</em>:<em>B</em>-Friedohop-5-en-3β-ol;β-Simiarenol;Simiaren-3β-ol;Adian-5-en-3β-ol",
    "duplicated_cas_no": "",
    "SMILES": "C[C@@]12[C@@]3([C@](C)([C@]4(C(=CC3)C(C)(C)[C@@H](O)CC4)[H])CC[C@@]1(C)[C@]5([C@](C)(CC2)[C@@H]([C@@H](C)C)CC5)[H])[H]",
    "meta_data": {
        "InChI": "InChI=1S/C30H50O/c1-19(2)20-9-12-23-27(20,5)15-17-30(8)24-13-10-21-22(11-14-25(31)26(21,3)4)28(24,6)16-18-29(23,30)7/h10,19-20,22-25,31H,9,11-18H2,1-8H3/t20-,22-,23-,24+,25+,27-,28+,29+,30-/m1/s1",
        "InChIKey": null,
        "Canonical SMILES": "OC1CCC2C(=CCC3C2(C)CCC4(C)C5CCC(C(C)C)C5(C)CCC34C)C1(C)C",
        "Molecular Formula": "C<sub>30</sub>H<sub>50</sub>O",
        "Molecular Mass": "426.72",
        "Melting Point": "209-210 °C"
    }
}