{
    "cas_no": "5619-07-8",
    "key_name": "Phenylalanine, methyl ester, hydrochloride (1:1)",
    "cn_name": "DL-苯基丙氨酸甲酯盐酸盐;DL-苯基丙氨酸甲酯盐酸盐;",
    "alternate_name": "Phenylalanine, methyl ester, hydrochloride (1:1);Alanine, phenyl-, methyl ester, hydrochloride, <span class=\"text-smallcaps\">DL</span>-;<span class=\"text-smallcaps\">DL</span>-Phenylalanine, methyl ester, hydrochloride;Phenylalanine, methyl ester, hydrochloride;(±)-Phenylalanine methyl ester hydrochloride;Methyl <span class=\"text-smallcaps\">D</smallcap><smallcap>L</span>-phenylalaninate hydrochloride;Methyl 2-amino-3-phenylpropanoate hydrochloride",
    "duplicated_cas_no": "",
    "SMILES": "C(C(C(OC)=O)N)C1=CC=CC=C1.Cl",
    "meta_data": {
        "InChI": "InChI=1S/C10H13NO2.ClH/c1-13-10(12)9(11)7-8-5-3-2-4-6-8;/h2-6,9H,7,11H2,1H3;1H",
        "InChIKey": null,
        "Canonical SMILES": "Cl.O=C(OC)C(N)CC=1C=CC=CC1",
        "Molecular Formula": "C<sub>10</sub>H<sub>13</sub>NO<sub>2</sub>.ClH",
        "Molecular Mass": "",
        "Melting Point": "159-160 °C"
    }
}