{
    "cas_no": "612-24-8",
    "key_name": "2-Nitrobenzonitrile",
    "cn_name": "2-硝基苯甲腈;邻硝基氰苯;",
    "alternate_name": "Benzonitrile, 2-nitro-;Benzonitrile, <em>o</em>-nitro-;2-Nitrobenzonitrile;<em>o</em>-Nitrobenzonitrile;<em>o</em>-Cyanonitrobenzene;2-Cyanonitrobenzene;2-Cyano-1-nitrobenzene;NSC 1994",
    "duplicated_cas_no": "",
    "SMILES": "C(#N)C1=C(N(=O)=O)C=CC=C1",
    "meta_data": {
        "InChI": "InChI=1S/C7H4N2O2/c8-5-6-3-1-2-4-7(6)9(10)11/h1-4H",
        "InChIKey": null,
        "Canonical SMILES": "N#CC=1C=CC=CC1N(=O)=O",
        "Molecular Formula": "C<sub>7</sub>H<sub>4</sub>N<sub>2</sub>O<sub>2</sub>",
        "Molecular Mass": "148.12",
        "Boiling Point": "135 °C @ Press: 0.5 Torr",
        "Melting Point": "108 °C"
    }
}