{
    "cas_no": "23008-56-2",
    "key_name": "<em>N</em>-(4-Chlorophenyl)-2-nitrobenzenamine",
    "cn_name": "2-硝基-4-氯二苯基胺;",
    "alternate_name": "Benzenamine, <em>N</em>-(4-chlorophenyl)-2-nitro-;Diphenylamine, 4′-chloro-2-nitro-;Diphenylamine, 4-chloro-2′-nitro-;<em>N</em>-(4-Chlorophenyl)-2-nitrobenzenamine;4′-Chloro-2-nitrodiphenylamine;4-Chloro-2′-nitrodiphenylamine;4-Chloro-<em>N</em>-(2-nitrophenyl)benzenamine;2-(4-Chlorophenylamino)-1-nitrobenzene;C.I. Disperse Yellow 22;Disperse Yellow 22;C.I. 10336;<em>N</em>-(4-Chlorophenyl)-2-nitroaniline;2-(4-Chlorophenylamino)nitrobenzene",
    "duplicated_cas_no": "",
    "SMILES": "N(C1=C(N(=O)=O)C=CC=C1)C2=CC=C(Cl)C=C2",
    "meta_data": {
        "InChI": "InChI=1S/C12H9ClN2O2/c13-9-5-7-10(8-6-9)14-11-3-1-2-4-12(11)15(16)17/h1-8,14H",
        "InChIKey": null,
        "Canonical SMILES": "O=N(=O)C=1C=CC=CC1NC2=CC=C(Cl)C=C2",
        "Molecular Formula": "C<sub>12</sub>H<sub>9</sub>ClN<sub>2</sub>O<sub>2</sub>",
        "Molecular Mass": "248.67",
        "Melting Point": "145-146 °C"
    }
}