{
    "cas_no": "153-18-4",
    "key_name": "Rutin",
    "cn_name": "芦丁;维生素P;芸香甙;",
    "alternate_name": "4<em>H</em>-1-Benzopyran-4-one, 3-[[6-<em>O</em>-(6-deoxy-α-<span class=\"text-smallcaps\">L</smallcap>-mannopyranosyl)-β-<smallcap>D</span>-glucopyranosyl]oxy]-2-(3,4-dihydroxyphenyl)-5,7-dihydroxy-;Rutin;Ilixanthin;Flavone, 3,3′,4′,5,5′,7-hexahydroxy-, (6-<em>O</em>-α-<span class=\"text-smallcaps\">L</smallcap>-rhamnosyl-β-<smallcap>D</span>-glucoside);3-[[6-<em>O</em>-(6-Deoxy-α-<span class=\"text-smallcaps\">L</smallcap>-mannopyranosyl)-β-<smallcap>D</span>-glucopyranosyl]oxy]-2-(3,4-dihydroxyphenyl)-5,7-dihydroxy-4<em>H</em>-1-benzopyran-4-one;C.I. 75730;Birutan;Eldrin;Globulariacitrin;Melin;Myrticalorin;Myrticolorin;Myticolorin;Osyritin;Osyritrin;Oxyritin;3,3′,4′,5,7-Pentahydroxyflavone 3-rutinoside;Phytomelin;Quercetin 3-rutinoside;Rutabion;Rutinic acid;Rutoside;Sophorin;Tanrutin;Violaquercitrin;3-Rutinosylquercetin;Quercetin 3-β-rutinoside;Quercetin 3-<em>O</em>-β-<span class=\"text-smallcaps\">D</span>-rutinoside;Globularicitrin;Paliuroside;Rutosid;Quercetin 3-<em>O</em>-rutinoside;5,7,3′,4′-Tetrahydroxyflavonol-3-<em>O</em>-rutinoside;3,3′,4′,5,7-Pentahydroxyflavone 3-<em>O</em>-rutinoside;Quercetin 3-<em>O</em>-β-rutinoside;Quercetin 3-rhamnoglucoside;Violaquercetrin;Ilixathin;NSC 9220;Quercetin 3-<em>O</em>-α-<span class=\"text-smallcaps\">L</smallcap>-rhamnopyranosyl-(1→6)-β-<smallcap>D</span>-glucopyranoside;Rutozid;3-<em>O</em>-Rutinosylquercetin;Novarrutina;Quercetin 3-<em>O</em>-α-rhamnopyranosyl(1→6)-β-glucopyranoside;Yunxianggan;Quercetin 3-<em>O</em>-α-rhamnopyranosyl(1′′→6′)-β-<span class=\"text-smallcaps\">D</span>-glucopyranoside;Rutine;Quercetin 3-<em>O</em>-β-<span class=\"text-smallcaps\">D</smallcap>-(6′′-<em>O</em>-α-<smallcap>L</span>-rhamnopyranosyl)glucopyranoside;Quercetin 3-<em>O</em>-α-<span class=\"text-smallcaps\">L</smallcap>-rhamnopyranosyl-β-<smallcap>D</span>-glucopyranoside;Quercetin rutinoside;Quercetin 3-<em>O</em>-α-rhamnopyranosyl-(1′′′→6′′)-β-glucopyranoside;Quercetin 6-<em>O</em>-α-<span class=\"text-smallcaps\">L</smallcap>-rhamnosyl-β-<smallcap>D</span>-glucoside;Quercetin 3-(6-O-α-<span class=\"text-smallcaps\">L</smallcap>-rhamnopyranosyl-β-<smallcap>D</span>-glucopyranoside);TCI-R 0035;TCM 5280805;MeSH ID: D012431",
    "duplicated_cas_no": "1416-01-9;18449-50-8;48197-72-4;56764-99-9;115888-40-9;146525-66-8;158560-09-9;164535-43-7;523994-24-3;1296849-98-3",
    "SMILES": "O(C1=C(OC=2C(C1=O)=C(O)C=C(O)C2)C3=CC(O)=C(O)C=C3)[C@@H]4O[C@H](CO[C@H]5[C@H](O)[C@H](O)[C@@H](O)[C@H](C)O5)[C@@H](O)[C@H](O)[C@H]4O",
    "meta_data": {
        "InChI": "InChI=1S/C27H30O16/c1-8-17(32)20(35)22(37)26(40-8)39-7-15-18(33)21(36)23(38)27(42-15)43-25-19(34)16-13(31)5-10(28)6-14(16)41-24(25)9-2-3-11(29)12(30)4-9/h2-6,8,15,17-18,20-23,26-33,35-38H,7H2,1H3/t8-,15+,17-,18+,20+,21-,22+,23+,26+,27-/m0/s1",
        "InChIKey": null,
        "Canonical SMILES": "O=C1C(OC2OC(COC3OC(C)C(O)C(O)C3O)C(O)C(O)C2O)=C(OC=4C=C(O)C=C(O)C14)C=5C=CC(O)=C(O)C5",
        "Molecular Formula": "C<sub>27</sub>H<sub>30</sub>O<sub>16</sub>",
        "Molecular Mass": "610.52",
        "Melting Point": "125 °C"
    }
}