{
    "cas_no": "80149-80-0",
    "key_name": "4-Nitrophenyl 2-(trimethylsilyl)ethyl carbonate",
    "cn_name": "4-硝基苯基2-(三甲基甲硅烷基)碳酸乙酯;",
    "alternate_name": "Carbonic acid, 4-nitrophenyl 2-(trimethylsilyl)ethyl ester;4-Nitrophenyl 2-(trimethylsilyl)ethyl carbonate;2-(Trimethylsilyl)ethyl <em>p</em>-nitrophenyl carbonate;2-(Trimethylsilyl)ethyl 4-nitrophenyl carbonate;4-Nitrophenyl 2-trimethylsilylethyl carbonate;2-(Trimethylsilanyl)ethyl 4-nitrophenyl carbonate",
    "duplicated_cas_no": "",
    "SMILES": "O(C(OCC[Si](C)(C)C)=O)C1=CC=C(N(=O)=O)C=C1",
    "meta_data": {
        "InChI": "InChI=1S/C12H17NO5Si/c1-19(2,3)9-8-17-12(14)18-11-6-4-10(5-7-11)13(15)16/h4-7H,8-9H2,1-3H3",
        "InChIKey": null,
        "Canonical SMILES": "O=C(OC1=CC=C(C=C1)N(=O)=O)OCC[Si](C)(C)C",
        "Molecular Formula": "C<sub>12</sub>H<sub>17</sub>NO<sub>5</sub>Si",
        "Molecular Mass": "283.35",
        "Melting Point": "35 °C"
    }
}