{
    "cas_no": "58584-86-4",
    "key_name": "3-Pyridinecarboxylic acid, 2,6-dichloro-, ethyl ester",
    "cn_name": null,
    "alternate_name": "3-Pyridinecarboxylic acid, 2,6-dichloro-, ethyl ester;2,6-Dichloronicotinic acid ethyl ester;Ethyl 2,6-dichloropyridine-3-carboxylate;Ethyl 2,6-dichloronicotinate",
    "duplicated_cas_no": "",
    "SMILES": "C(OCC)(=O)C1=C(Cl)N=C(Cl)C=C1",
    "meta_data": {
        "InChI": "InChI=1S/C8H7Cl2NO2/c1-2-13-8(12)5-3-4-6(9)11-7(5)10/h3-4H,2H2,1H3",
        "InChIKey": null,
        "Canonical SMILES": "O=C(OCC)C1=CC=C(Cl)N=C1Cl",
        "Molecular Formula": "C<sub>8</sub>H<sub>7</sub>Cl<sub>2</sub>NO<sub>2</sub>",
        "Molecular Mass": "220.05",
        "Melting Point": "49-50 °C"
    }
}