{
    "cas_no": "54897-62-0",
    "key_name": "4-(Ethylnitrosoamino)-1-butanol",
    "cn_name": "N-乙基-N-(4-羟丁基)亚硝胺;",
    "alternate_name": "1-Butanol, 4-(ethylnitrosoamino)-;4-(Ethylnitrosoamino)-1-butanol;<em>N</em>-Ethyl-<em>N</em>-(4-hydroxybutyl)nitrosoamine;<em>N</em>-Ethyl-<em>N</em>-(4-hydroxybutyl)nitrosamine;4-(<em>N</em>-Ethyl-<em>N</em>-nitrosoamino)-1-butanol",
    "duplicated_cas_no": "",
    "SMILES": "N(CCCCO)(CC)N=O",
    "meta_data": {
        "InChI": "InChI=1S/C6H14N2O2/c1-2-8(7-10)5-3-4-6-9/h9H,2-6H2,1H3",
        "InChIKey": null,
        "Canonical SMILES": "O=NN(CC)CCCCO",
        "Molecular Formula": "C<sub>6</sub>H<sub>14</sub>N<sub>2</sub>O<sub>2</sub>",
        "Molecular Mass": "146.19",
        "Boiling Point": "139-140 °C @ Press: 4 Torr"
    }
}