{
    "cas_no": "959-23-9",
    "key_name": "4′-Methoxychalcone",
    "cn_name": "4’-甲氧基查耳酮;4\"-甲氧基查耳酮;",
    "alternate_name": "2-Propen-1-one, 1-(4-methoxyphenyl)-3-phenyl-;Chalcone, 4′-methoxy-;1-(4-Methoxyphenyl)-3-phenyl-2-propen-1-one;4′-Methoxychalcone;1-(<em>p</em>-Methoxyphenyl)-3-phenyl-2-propen-1-one;4-Methoxyphenyl styryl ketone;NSC 37157;1-(4-Methoxyphenyl)-3-phenylpropenone",
    "duplicated_cas_no": "",
    "SMILES": "C(C=CC1=CC=CC=C1)(=O)C2=CC=C(OC)C=C2",
    "meta_data": {
        "InChI": "InChI=1S/C16H14O2/c1-18-15-10-8-14(9-11-15)16(17)12-7-13-5-3-2-4-6-13/h2-12H,1H3",
        "InChIKey": null,
        "Canonical SMILES": "O=C(C=CC=1C=CC=CC1)C2=CC=C(OC)C=C2",
        "Molecular Formula": "C<sub>16</sub>H<sub>14</sub>O<sub>2</sub>",
        "Molecular Mass": "238.28",
        "Melting Point": "105-107 °C"
    }
}