{
    "cas_no": "683-08-9",
    "key_name": "Diethyl methylphosphonate",
    "cn_name": null,
    "alternate_name": "Phosphonic acid, <em>P</em>-methyl-, diethyl ester;Phosphonic acid, methyl-, diethyl ester;Diethyl methylphosphonate;Diethyl methanephosphonate;<em>O</em>,<em>O</em>-Diethyl methylphosphonate;DEMP;Diethoxymethylphosphine oxide;Bis(diethoxyphosphinyl)methane;1-[Ethoxy(methyl)phosphoryl]oxyethane",
    "duplicated_cas_no": "",
    "SMILES": "P(OCC)(OCC)(C)=O",
    "meta_data": {
        "InChI": "InChI=1S/C5H13O3P/c1-4-7-9(3,6)8-5-2/h4-5H2,1-3H3",
        "InChIKey": null,
        "Canonical SMILES": "O=P(OCC)(OCC)C",
        "Molecular Formula": "C<sub>5</sub>H<sub>13</sub>O<sub>3</sub>P",
        "Molecular Mass": "152.13",
        "Boiling Point": "194 °C",
        "Density": "1.0726 g/cm³ @ Temp: 0 °C"
    }
}