{
    "cas_no": "20731-74-2",
    "key_name": "3-(Methylthio)thiophene",
    "cn_name": null,
    "alternate_name": "Thiophene, 3-(methylthio)-;3-(Methylthio)thiophene;3-Methylsulfanylthiophene",
    "duplicated_cas_no": "",
    "SMILES": "S(C)C=1C=CSC1",
    "meta_data": {
        "InChI": "InChI=1S/C5H6S2/c1-6-5-2-3-7-4-5/h2-4H,1H3",
        "InChIKey": null,
        "Canonical SMILES": "S1C=CC(SC)=C1",
        "Molecular Formula": "C<sub>5</sub>H<sub>6</sub>S<sub>2</sub>",
        "Molecular Mass": "130.23",
        "Boiling Point": "93-94 °C @ Press: 30 Torr"
    }
}