{
    "cas_no": "68654-25-1",
    "key_name": "Dibromobimane",
    "cn_name": null,
    "alternate_name": "1<em>H</em>,7<em>H</em>-Pyrazolo[1,2-<em>a</em>]pyrazole-1,7-dione, 3,5-bis(bromomethyl)-2,6-dimethyl-;3,5-Bis(bromomethyl)-2,6-dimethyl-1<em>H</em>,7<em>H</em>-pyrazolo[1,2-<em>a</em>]pyrazole-1,7-dione;Thiolyte BB;Dibromobimane;NSC 608550;1,7-Bis(bromomethyl)-2,6-dimethylpyrazolo[1,2-<em>a</em>]pyrazole-3,5-dione;3,5-Bis(bromomethyl)-2,6-dimethyl-1<em>H</em>,7<em>H</em>-[1,2]diazolo[1,2-<em>a</em>]pyrazole-1,7-dione",
    "duplicated_cas_no": "",
    "SMILES": "C(Br)C=1N2N(C(=O)C(C)=C2CBr)C(=O)C1C",
    "meta_data": {
        "InChI": "InChI=1S/C10H10Br2N2O2/c1-5-7(3-11)13-8(4-12)6(2)10(16)14(13)9(5)15/h3-4H2,1-2H3",
        "InChIKey": null,
        "Canonical SMILES": "O=C1C(=C(N2C(=C(C(=O)N12)C)CBr)CBr)C",
        "Molecular Formula": "C<sub>10</sub>H<sub>10</sub>Br<sub>2</sub>N<sub>2</sub>O<sub>2</sub>",
        "Molecular Mass": "350.01",
        "Melting Point": "176-177 °C"
    }
}