{
    "cas_no": "115-10-6",
    "key_name": "Methyl ether",
    "cn_name": "二甲醚;甲醚;",
    "alternate_name": "Methane, 1,1′-oxybis-;Dimethyl ether;Methyl ether;Methane, oxybis-;Ether, dimethyl;1,1′-Oxybis[methane];Wood ether;Methoxymethane;Dimethyl oxide;Dymel A;DME;Demeon D;RE 170;RE 170 (refrigerant);LPG",
    "duplicated_cas_no": "157621-61-9;451449-67-5",
    "SMILES": "O(C)C",
    "meta_data": {
        "InChI": "InChI=1S/C2H6O/c1-3-2/h1-2H3",
        "InChIKey": null,
        "Canonical SMILES": "O(C)C",
        "Molecular Formula": "C<sub>2</sub>H<sub>6</sub>O",
        "Molecular Mass": "46.07",
        "Boiling Point": "-24.8 °C",
        "Melting Point": "-141.5 °C",
        "Density": "0.61 g/cm³"
    }
}