{
    "cas_no": "1932-92-9",
    "key_name": "2-Propyn-1-ol, 1-propanoate",
    "cn_name": null,
    "alternate_name": "2-Propyn-1-ol, 1-propanoate;2-Propyn-1-ol, propionate;2-Propyn-1-ol, propanoate;Propionic acid, 2-propynyl ester;2-Propynyl propanoate;Propargyl propionate;Prop-2-ynyl propionate",
    "duplicated_cas_no": "",
    "SMILES": "C(OCC#C)(CC)=O",
    "meta_data": {
        "InChI": "InChI=1S/C6H8O2/c1-3-5-8-6(7)4-2/h1H,4-5H2,2H3",
        "InChIKey": null,
        "Canonical SMILES": "O=C(OCC#C)CC",
        "Molecular Formula": "C<sub>6</sub>H<sub>8</sub>O<sub>2</sub>",
        "Molecular Mass": "112.13",
        "Boiling Point": "137-138 °C",
        "Density": "0.969 g/cm³ @ Temp: 20 °C"
    }
}