{
    "cas_no": "1202-04-6",
    "key_name": "Methyl 1<em>H</em>-indole-2-carboxylate",
    "cn_name": "吲哚-2-羧酸甲酯;吲哚-2-甲酸甲酯;",
    "alternate_name": "1<em>H</em>-Indole-2-carboxylic acid, methyl ester;Indole-2-carboxylic acid, methyl ester;Methyl 2-indolecarboxylate;2-(Methoxycarbonyl)indole;Methyl 1<em>H</em>-indole-2-carboxylate;NSC 78006",
    "duplicated_cas_no": "",
    "SMILES": "C(OC)(=O)C1=CC=2C(N1)=CC=CC2",
    "meta_data": {
        "InChI": "InChI=1S/C10H9NO2/c1-13-10(12)9-6-7-4-2-3-5-8(7)11-9/h2-6,11H,1H3",
        "InChIKey": null,
        "Canonical SMILES": "O=C(OC)C1=CC=2C=CC=CC2N1",
        "Molecular Formula": "C<sub>10</sub>H<sub>9</sub>NO<sub>2</sub>",
        "Molecular Mass": "175.18",
        "Melting Point": "150.0-151.3 °C"
    }
}