{
    "cas_no": "608-27-5",
    "key_name": "2,3-Dichloroaniline",
    "cn_name": "2,3-二氯苯胺;",
    "alternate_name": "Benzenamine, 2,3-dichloro-;Aniline, 2,3-dichloro-;2,3-Dichlorobenzenamine;2,3-Dichloroaniline;3-Amino-1,2-dichlorobenzene;2,3-Dichlorophenylamine;NSC 60683",
    "duplicated_cas_no": "",
    "SMILES": "ClC1=C(Cl)C=CC=C1N",
    "meta_data": {
        "InChI": "InChI=1S/C6H5Cl2N/c7-4-2-1-3-5(9)6(4)8/h1-3H,9H2",
        "InChIKey": null,
        "Canonical SMILES": "ClC1=CC=CC(N)=C1Cl",
        "Molecular Formula": "C<sub>6</sub>H<sub>5</sub>Cl<sub>2</sub>N",
        "Molecular Mass": "162.02",
        "Boiling Point": "252 °C",
        "Melting Point": "24 °C",
        "Density": "1.383 g/cm³ @ Temp: 25 °C"
    }
}