{
    "cas_no": "5174-90-3",
    "key_name": "Ethyl 2-hydroxy-1,8-naphthyridine-3-carboxylate",
    "cn_name": null,
    "alternate_name": "1,8-Naphthyridine-3-carboxylic acid, 1,2-dihydro-2-oxo-, ethyl ester;1,8-Naphthyridine-3-carboxylic acid, 2-hydroxy-, ethyl ester;1,2-Dihydro-2-oxo-1,8-Naphthyridine-3-carboxylic acid ethyl ester;Ethyl 2-hydroxy-1,8-naphthyridine-3-carboxylate;Ethyl 2-oxo-1,2-dihydro-1,8-naphthyridine-3-carboxylate;2-Oxo-1,2-dihydro-[1,8]naphthyridine-3-carboxylic acid ethyl ester;Ethyl 2-oxo-1<em>H</em>-1,8-naphthyridine-3-carboxylate",
    "duplicated_cas_no": "1607841-64-4",
    "SMILES": "C(OCC)(=O)C1=CC=2C(=NC1=O)NC=CC2",
    "meta_data": {
        "InChI": "InChI=1S/C11H10N2O3/c1-2-16-11(15)8-6-7-4-3-5-12-9(7)13-10(8)14/h3-6H,2H2,1H3,(H,12,13,14)",
        "InChIKey": null,
        "Canonical SMILES": "O=C1N=C2NC=CC=C2C=C1C(=O)OCC",
        "Molecular Formula": "C<sub>11</sub>H<sub>10</sub>N<sub>2</sub>O<sub>3</sub>",
        "Molecular Mass": "218.21",
        "Melting Point": "205-207 °C"
    }
}