{
    "cas_no": "17301-94-9",
    "key_name": "(±)-4-Methylnonane",
    "cn_name": "4-甲基壬烷;对甲基壬烷;",
    "alternate_name": "Nonane, 4-methyl-;4-Methylnonane;4-<em>n</em>-Methylnonane;(±)-4-Methylnonane",
    "duplicated_cas_no": "132958-74-8",
    "SMILES": "C(C(CCC)C)CCCC",
    "meta_data": {
        "InChI": "InChI=1S/C10H22/c1-4-6-7-9-10(3)8-5-2/h10H,4-9H2,1-3H3",
        "InChIKey": null,
        "Canonical SMILES": "CCCCCC(C)CCC",
        "Molecular Formula": "C<sub>10</sub>H<sub>22</sub>",
        "Molecular Mass": "142.28",
        "Boiling Point": "165.7 °C",
        "Melting Point": "-99 °C",
        "Density": "0.726 g/cm³ @ Temp: 27 °C"
    }
}