{
    "cas_no": "13170-43-9",
    "key_name": "Magnesium, chloro[(trimethylsilyl)methyl]-",
    "cn_name": null,
    "alternate_name": "Magnesium, chloro[(trimethylsilyl)methyl]-;[(Trimethylsilyl)methyl]magnesium chloride;Chloro(trimethylsilylmethyl)magnesium",
    "duplicated_cas_no": "",
    "SMILES": "C([Si](C)(C)C)[Mg]Cl",
    "meta_data": {
        "InChI": "InChI=1S/C4H11Si.ClH.Mg/c1-5(2,3)4;;/h1H2,2-4H3;1H;/q;;+1/p-1",
        "InChIKey": null,
        "Canonical SMILES": "Cl[Mg]C[Si](C)(C)C",
        "Molecular Formula": "C<sub>4</sub>H<sub>11</sub>ClMgSi",
        "Molecular Mass": "",
        "Melting Point": "105.8-106.4 °C",
        "Density": "0.777 g/cm³"
    }
}