{
    "cas_no": "1011-50-3",
    "key_name": "2-(Quinolin-2-yl)ethanol",
    "cn_name": "2-(2-羟基甲基)喹啉;2-(2-羟基甲基)喹啉;",
    "alternate_name": "2-Quinolineethanol;2-(2-Hydroxyethyl)quinoline;NSC 409400;2-(Quinolin-2-yl)ethanol;2-(Quinolin-2-yl)ethan-1-ol",
    "duplicated_cas_no": "",
    "SMILES": "C(CO)C1=NC2=C(C=C1)C=CC=C2",
    "meta_data": {
        "InChI": "InChI=1S/C11H11NO/c13-8-7-10-6-5-9-3-1-2-4-11(9)12-10/h1-6,13H,7-8H2",
        "InChIKey": null,
        "Canonical SMILES": "OCCC1=NC=2C=CC=CC2C=C1",
        "Molecular Formula": "C<sub>11</sub>H<sub>11</sub>NO",
        "Molecular Mass": "173.21",
        "Boiling Point": "140-160 °C @ Press: 0.5 Torr",
        "Melting Point": "104 °C"
    }
}