{
    "cas_no": "764-13-6",
    "key_name": "2,5-Dimethyl-2,4-hexadiene",
    "cn_name": "2,5-二甲基-2,4-己二烯;",
    "alternate_name": "2,4-Hexadiene, 2,5-dimethyl-;2,5-Dimethyl-2,4-hexadiene;Biisobutenyl;Biisocrotyl;Diisocrotyl;NSC 10812;1,1,4,4-Tetramethylbuta-1,3-diene",
    "duplicated_cas_no": "",
    "SMILES": "C(C=C(C)C)=C(C)C",
    "meta_data": {
        "InChI": "InChI=1S/C8H14/c1-7(2)5-6-8(3)4/h5-6H,1-4H3",
        "InChIKey": null,
        "Canonical SMILES": "C(C=C(C)C)=C(C)C",
        "Molecular Formula": "C<sub>8</sub>H<sub>14</sub>",
        "Molecular Mass": "110.20",
        "Boiling Point": "134.5 °C",
        "Melting Point": "14 °C",
        "Density": "0.7646 g/cm³ @ Temp: 17.8 °C"
    }
}