{
    "cas_no": "51756-08-2",
    "key_name": "Butanoic acid, 2-ethyl-3-oxo-, methyl ester",
    "cn_name": "2-乙基乙酰乙酸甲酯;",
    "alternate_name": "Butanoic acid, 2-ethyl-3-oxo-, methyl ester;Methyl 2-ethyl-3-oxobutyrate;Methyl 2-ethyl-3-oxobutanoate;Methyl α-ethylacetoacetate;Methyl 2-ethylacetoacetate",
    "duplicated_cas_no": "123325-70-2",
    "SMILES": "C(C(OC)=O)(C(C)=O)CC",
    "meta_data": {
        "InChI": "InChI=1S/C7H12O3/c1-4-6(5(2)8)7(9)10-3/h6H,4H2,1-3H3",
        "InChIKey": null,
        "Canonical SMILES": "O=C(OC)C(C(=O)C)CC",
        "Molecular Formula": "C<sub>7</sub>H<sub>12</sub>O<sub>3</sub>",
        "Molecular Mass": "144.17",
        "Boiling Point": "182 °C"
    }
}