{
    "cas_no": "20133-21-5",
    "key_name": "1,2,4,5-Benzenetetrathiol",
    "cn_name": null,
    "alternate_name": "1,2,4,5-Benzenetetrathiol;1,2,4,5-Tetramercaptobenzene",
    "duplicated_cas_no": "",
    "SMILES": "SC1=C(S)C=C(S)C(S)=C1",
    "meta_data": {
        "InChI": "InChI=1S/C6H6S4/c7-3-1-4(8)6(10)2-5(3)9/h1-2,7-10H",
        "InChIKey": null,
        "Canonical SMILES": "SC=1C=C(S)C(S)=CC1S",
        "Molecular Formula": "C<sub>6</sub>H<sub>6</sub>S<sub>4</sub>",
        "Molecular Mass": "206.37",
        "Melting Point": "139-141 °C"
    }
}