{
    "cas_no": "938-09-0",
    "key_name": "[(2-Chloroethyl)sulfonyl]benzene",
    "cn_name": "2-氯乙基苯基砜;",
    "alternate_name": "Benzene, [(2-chloroethyl)sulfonyl]-;Sulfone, 2-chloroethyl phenyl;[(2-Chloroethyl)sulfonyl]benzene;2-(Phenylsulfonyl)ethyl chloride;2-Chloroethyl phenyl sulfone;Phenyl β-chloroethyl sulfone;β-Chloroethyl phenyl sulfone;2-Chloro-1-(phenylsulfonyl)ethane;1-Chloro-2-(phenylsulfonyl)ethane;(2-Chloroethanesulfonyl)benzene;NSC 145234;NSC 207409;NSC 236821;(2-Chloroethylsulfonyl)benzene",
    "duplicated_cas_no": "",
    "SMILES": "S(CCCl)(=O)(=O)C1=CC=CC=C1",
    "meta_data": {
        "InChI": "InChI=1S/C8H9ClO2S/c9-6-7-12(10,11)8-4-2-1-3-5-8/h1-5H,6-7H2",
        "InChIKey": null,
        "Canonical SMILES": "O=S(=O)(C=1C=CC=CC1)CCCl",
        "Molecular Formula": "C<sub>8</sub>H<sub>9</sub>ClO<sub>2</sub>S",
        "Molecular Mass": "204.67",
        "Boiling Point": "168-174 °C @ Press: 7 Torr",
        "Melting Point": "52 °C"
    }
}