{
    "cas_no": "5847-59-6",
    "key_name": "2-Bromo-4-nitrophenol",
    "cn_name": "2-溴-4-硝基苯酚;",
    "alternate_name": "Phenol, 2-bromo-4-nitro-;2-Bromo-4-nitrophenol;NSC 212120",
    "duplicated_cas_no": "",
    "SMILES": "N(=O)(=O)C1=CC(Br)=C(O)C=C1",
    "meta_data": {
        "InChI": "InChI=1S/C6H4BrNO3/c7-5-3-4(8(10)11)1-2-6(5)9/h1-3,9H",
        "InChIKey": null,
        "Canonical SMILES": "O=N(=O)C1=CC=C(O)C(Br)=C1",
        "Molecular Formula": "C<sub>6</sub>H<sub>4</sub>BrNO<sub>3</sub>",
        "Molecular Mass": "218.00",
        "Melting Point": "112.25 °C"
    }
}