{
    "cas_no": "4572-03-6",
    "key_name": "1-(3-Aminopropyl)-4-methylpiperazine",
    "cn_name": "1-(3-氨丙基)-4-甲基哌嗪;1-(3-氨丙基)-4-甲基哌嗪;",
    "alternate_name": "1-Piperazinepropanamine, 4-methyl-;Piperazine, 1-(3-aminopropyl)-4-methyl-;4-Methyl-1-piperazinepropanamine;1-(3-Aminopropyl)-4-methylpiperazine;<em>N</em>-Methyl-<em>N</em>′-(γ-aminopropyl)piperazine;3-(4-Methyl-1-piperazinyl)propylamine;<em>N</em>-Methyl-<em>N</em>′-(3-aminopropyl)piperazine;4-(3-Aminopropyl)-1-methylpiperazine;3-(4-Methylpiperazino)propylamine;NSC 60215;3-(4-Methylpiperazin-1-yl)propan-1-amine;<em>N</em>-[3-(4-Methyl-1-piperazinyl)propyl]amine;1-Methyl-4-(3-aminopropyl)piperazine;3-(4-Methylpiperazin-1-yl)propanamine",
    "duplicated_cas_no": "",
    "SMILES": "C(CCN)N1CCN(C)CC1",
    "meta_data": {
        "InChI": "InChI=1S/C8H19N3/c1-10-5-7-11(8-6-10)4-2-3-9/h2-9H2,1H3",
        "InChIKey": null,
        "Canonical SMILES": "NCCCN1CCN(C)CC1",
        "Molecular Formula": "C<sub>8</sub>H<sub>19</sub>N<sub>3</sub>",
        "Molecular Mass": "157.26",
        "Boiling Point": "52 °C @ Press: 0.3 Torr"
    }
}