{
    "cas_no": "18598-63-5",
    "key_name": "<span class=\"text-smallcaps\">L</span>-Cysteine, methyl ester, hydrochloride",
    "cn_name": "L-半胱氨酸甲酯盐酸盐;",
    "alternate_name": "<span class=\"text-smallcaps\">L</span>-Cysteine, methyl ester, hydrochloride (1:1);Cysteine, methyl ester, hydrochloride, <span class=\"text-smallcaps\">L</span>-;<span class=\"text-smallcaps\">L</span>-Cysteine, methyl ester, hydrochloride;Cysteine methyl ester hydrochloride;Methyl cysteine hydrochloride;Methyl β-mercaptoalanine hydrochloride;Methyl α-amino-β-mercaptopropionate hydrochloride;Acdrile;Visclair;Mecysteine hydrochloride;Methyl 2-amino-3-mercaptopropionate hydrochloride;Pectite;Zeotin;Actiol;(<em>R</em>)-Cysteine methyl ester hydrochloride;Methyl cysteinate hydrochloride;Methyl (<em>R</em>)-2-amino-3-mercaptopropanoate hydrochloride;Methyl <span class=\"text-smallcaps\">L</span>-cysteinate hydrochloride;LJ 48;NSC 161611;(R)-Methyl 2-amino-3-mercaptopropanoate hydrochloride",
    "duplicated_cas_no": "7319-35-9;12767-12-3",
    "SMILES": "[C@@H](C(OC)=O)(CS)N.Cl",
    "meta_data": {
        "InChI": "InChI=1S/C4H9NO2S.ClH/c1-7-4(6)3(5)2-8;/h3,8H,2,5H2,1H3;1H/t3-;/m0./s1",
        "InChIKey": null,
        "Canonical SMILES": "Cl.O=C(OC)C(N)CS",
        "Molecular Formula": "C<sub>4</sub>H<sub>9</sub>NO<sub>2</sub>S.ClH",
        "Molecular Mass": "",
        "Melting Point": "140.5 °C"
    }
}