{
    "cas_no": "4156-16-5",
    "key_name": "Woodward's Reagent K",
    "cn_name": "2-乙基-5-苯基异恶唑-3\"-磺酸盐;伍德沃德氏试剂K;",
    "alternate_name": "Isoxazolium, 2-ethyl-5-(3-sulfophenyl)-, inner salt;Isoxazolium, 2-ethyl-5-(<em>m</em>-sulfophenyl)-, hydroxide, inner salt;Isoxazolium, 2-ethyl-5-(3-sulfophenyl)-, hydroxide, inner salt;2-Ethyl-5-(<em>m</em>-sulfophenyl)isoxazolium hydroxide, inner salt;Woodward's Reagent K;<em>N</em>-Ethyl-5-phenylisoxazolium-3′-sulfonate;Reagents, Woodward's K;NSC 82643",
    "duplicated_cas_no": "",
    "SMILES": "S(=O)(=O)([O-])C=1C=C(C=CC1)C=2O[N+](CC)=CC2",
    "meta_data": {
        "InChI": "InChI=1S/C11H11NO4S/c1-2-12-7-6-11(16-12)9-4-3-5-10(8-9)17(13,14)15/h3-8H,2H2,1H3",
        "InChIKey": null,
        "Canonical SMILES": "O=S(=O)([O-])C1=CC=CC(=C1)C=2O[N+](=CC2)CC",
        "Molecular Formula": "C<sub>11</sub>H<sub>11</sub>NO<sub>4</sub>S",
        "Molecular Mass": "",
        "Melting Point": "207 °C (decomp)"
    }
}