{
    "cas_no": "135-87-5",
    "key_name": "Piperidine, 1-[(2,3-dihydro-1,4-benzodioxin-2-yl)methyl]-, hydrochloride (1:1)",
    "cn_name": null,
    "alternate_name": "Piperidine, 1-[(2,3-dihydro-1,4-benzodioxin-2-yl)methyl]-, hydrochloride (1:1);Piperidine, 1-(1,4-benzodioxan-2-ylmethyl)-, hydrochloride;Piperoxan hydrochloride;Piperidine, 1-[(2,3-dihydro-1,4-benzodioxin-2-yl)methyl]-, hydrochloride;1,4-Benzodioxin, piperidine deriv.;933F hydrochloride;F 933 hydrochloride;Benodaine hydrochloride;Benzodioxane hydrochloride;Fourneau 933 hydrochloride;2-Piperidinomethyl-1,4-benzodioxan hydrochloride;2-(1-Piperidylmethyl)-1,4-benzodioxan hydrochloride;Piperoxane hydrochloride;<em>dl</em>-Piperoxan hydrochloride;Compd. 933F",
    "duplicated_cas_no": "6211-27-4",
    "SMILES": "C(C1OC=2C(OC1)=CC=CC2)N3CCCCC3.Cl",
    "meta_data": {
        "InChI": "InChI=1S/C14H19NO2.ClH/c1-4-8-15(9-5-1)10-12-11-16-13-6-2-3-7-14(13)17-12;/h2-3,6-7,12H,1,4-5,8-11H2;1H",
        "InChIKey": null,
        "Canonical SMILES": "Cl.O1C=2C=CC=CC2OC(C1)CN3CCCCC3",
        "Molecular Formula": "C<sub>14</sub>H<sub>19</sub>NO<sub>2</sub>.ClH",
        "Molecular Mass": "",
        "Melting Point": "229-231 °C"
    }
}