{
    "cas_no": "55304-80-8",
    "key_name": "2,6-Dibromo-3-nitropyridine",
    "cn_name": "2,6-二溴-3-硝基吡啶;",
    "alternate_name": "Pyridine, 2,6-dibromo-3-nitro-;2,6-Dibromo-3-nitropyridine",
    "duplicated_cas_no": "",
    "SMILES": "N(=O)(=O)C1=C(Br)N=C(Br)C=C1",
    "meta_data": {
        "InChI": "InChI=1S/C5H2Br2N2O2/c6-4-2-1-3(9(10)11)5(7)8-4/h1-2H",
        "InChIKey": null,
        "Canonical SMILES": "O=N(=O)C1=CC=C(Br)N=C1Br",
        "Molecular Formula": "C<sub>5</sub>H<sub>2</sub>Br<sub>2</sub>N<sub>2</sub>O<sub>2</sub>",
        "Molecular Mass": "281.89",
        "Melting Point": "78 °C"
    }
}