{
    "cas_no": "23996-53-4",
    "key_name": "1<em>H</em>-Imidazole-1-propanenitrile",
    "cn_name": null,
    "alternate_name": "1<em>H</em>-Imidazole-1-propanenitrile;Imidazole-1-propionitrile;1-Cyanoethylimidazole;1-(2-Cyanoethyl)imidazole;3-(Imidazol-1-yl)propionitrile;3-Imidazol-1-ylpropanenitrile",
    "duplicated_cas_no": "",
    "SMILES": "C(CC#N)N1C=CN=C1",
    "meta_data": {
        "InChI": "InChI=1S/C6H7N3/c7-2-1-4-9-5-3-8-6-9/h3,5-6H,1,4H2",
        "InChIKey": null,
        "Canonical SMILES": "N#CCCN1C=NC=C1",
        "Molecular Formula": "C<sub>6</sub>H<sub>7</sub>N<sub>3</sub>",
        "Molecular Mass": "121.14",
        "Boiling Point": "145 °C @ Press: 0.5 Torr",
        "Melting Point": "35-36 °C"
    }
}