{
    "cas_no": "883-94-3",
    "key_name": "2-Chloro-7-(trifluoromethyl)quinoxaline",
    "cn_name": null,
    "alternate_name": "Quinoxaline, 2-chloro-7-(trifluoromethyl)-;2-Chloro-7-(trifluoromethyl)quinoxaline;2-Chloro-7-trifluoromethylquinoxaline",
    "duplicated_cas_no": "",
    "SMILES": "C(F)(F)(F)C1=CC2=C(C=C1)N=CC(Cl)=N2",
    "meta_data": {
        "InChI": "InChI=1S/C9H4ClF3N2/c10-8-4-14-6-2-1-5(9(11,12)13)3-7(6)15-8/h1-4H",
        "InChIKey": null,
        "Canonical SMILES": "FC(F)(F)C1=CC=C2N=CC(Cl)=NC2=C1",
        "Molecular Formula": "C<sub>9</sub>H<sub>4</sub>ClF<sub>3</sub>N<sub>2</sub>",
        "Molecular Mass": "232.59",
        "Melting Point": "117-118 °C"
    }
}