{
    "cas_no": "292-46-6",
    "key_name": "Lenthionine",
    "cn_name": "香菇素;1,2,3,5,6-五硫杂环庚烷;",
    "alternate_name": "1,2,3,5,6-Pentathiepane;Lenthionine;Lenthionin;NSC 291119",
    "duplicated_cas_no": "",
    "SMILES": "C1SSCSSS1",
    "meta_data": {
        "InChI": "InChI=1S/C2H4S5/c1-3-4-2-6-7-5-1/h1-2H2",
        "InChIKey": null,
        "Canonical SMILES": "S1SCSSCS1",
        "Molecular Formula": "C<sub>2</sub>H<sub>4</sub>S<sub>5</sub>",
        "Molecular Mass": "188.38",
        "Melting Point": "60.5 °C"
    }
}