{
    "cas_no": "654-76-2",
    "key_name": "1-Methoxy-4-nitro-2-(trifluoromethyl)benzene",
    "cn_name": "2-甲氧基-5硝基三氟甲苯;",
    "alternate_name": "Benzene, 1-methoxy-4-nitro-2-(trifluoromethyl)-;Anisole, 4-nitro-2-(trifluoromethyl)-;1-Methoxy-4-nitro-2-(trifluoromethyl)benzene;2-Methoxy-5-nitrobenzotrifluoride;NSC 88331;2-Trifluoromethyl-4-nitroanisole",
    "duplicated_cas_no": "",
    "SMILES": "C(F)(F)(F)C1=C(OC)C=CC(N(=O)=O)=C1",
    "meta_data": {
        "InChI": "InChI=1S/C8H6F3NO3/c1-15-7-3-2-5(12(13)14)4-6(7)8(9,10)11/h2-4H,1H3",
        "InChIKey": null,
        "Canonical SMILES": "O=N(=O)C1=CC=C(OC)C(=C1)C(F)(F)F",
        "Molecular Formula": "C<sub>8</sub>H<sub>6</sub>F<sub>3</sub>NO<sub>3</sub>",
        "Molecular Mass": "221.13",
        "Melting Point": "79-79.5 °C"
    }
}