{
    "cas_no": "161265-03-8",
    "key_name": "1,1′-(9,9-Dimethyl-9<em>H</em>-xanthene-4,5-diyl)bis[1,1-diphenylphosphine]",
    "cn_name": null,
    "alternate_name": "Phosphine, 1,1′-(9,9-dimethyl-9<em>H</em>-xanthene-4,5-diyl)bis[1,1-diphenyl-;Phosphine, (9,9-dimethyl-9<em>H</em>-xanthene-4,5-diyl)bis[diphenyl-;1,1′-(9,9-Dimethyl-9<em>H</em>-xanthene-4,5-diyl)bis[1,1-diphenylphosphine];Xantphos;(9,9-Dimethyl-9<em>H</em>-xanthene-4,5-diyl)bis[diphenylphosphine];4,5-Bis(diphenylphosphino)-9,9-dimethylxanthene;9,9-Dimethyl-4,5-bis(diphenylphosphino)xanthene;4,5-Bis(diphenylphosphino)-9,9-dimethyl-9<em>H</em>-xanthene;9,9-Dimethyl-4,5-bis(diphenylphosphino)-9<em>H</em>-xanthene;(9,9-dimethyl-9H-xanthene-4,5-diyl)bis(diphenylphosphane);(5-Diphenylphosphanyl-9,9-dimethylxanthen-4-yl)-diphenylphosphane;(9,9-Dimethyl-9H-xanthene-4,5-diyl)bis(diphenylphosphine)",
    "duplicated_cas_no": "",
    "SMILES": "P(C1=C2C(C(C)(C)C=3C(O2)=C(P(C4=CC=CC=C4)C5=CC=CC=C5)C=CC3)=CC=C1)(C6=CC=CC=C6)C7=CC=CC=C7",
    "meta_data": {
        "InChI": "InChI=1S/C39H32OP2/c1-39(2)33-25-15-27-35(41(29-17-7-3-8-18-29)30-19-9-4-10-20-30)37(33)40-38-34(39)26-16-28-36(38)42(31-21-11-5-12-22-31)32-23-13-6-14-24-32/h3-28H,1-2H3",
        "InChIKey": null,
        "Canonical SMILES": "O1C=2C(=CC=CC2C(C=3C=CC=C(C13)P(C=4C=CC=CC4)C=5C=CC=CC5)(C)C)P(C=6C=CC=CC6)C=7C=CC=CC7",
        "Molecular Formula": "C<sub>39</sub>H<sub>32</sub>OP<sub>2</sub>",
        "Molecular Mass": "578.62",
        "Melting Point": "229-230 °C"
    }
}