{
    "cas_no": "5367-32-8",
    "key_name": "3-Methyl-4-nitroanisole",
    "cn_name": "3-甲基-4-硝基苯甲醚;5-甲氧基-2-硝基甲苯;",
    "alternate_name": "Benzene, 4-methoxy-2-methyl-1-nitro-;Anisole, 3-methyl-4-nitro-;4-Methoxy-2-methyl-1-nitrobenzene;3-Methyl-4-nitroanisole;5-Methoxy-2-nitrotoluene;3-Methyl-4-nitrophenol methyl ether;2-Nitro-5-methoxytoluene;2-Methyl-4-methoxynitrobenzene;NSC 37985",
    "duplicated_cas_no": "",
    "SMILES": "N(=O)(=O)C1=C(C)C=C(OC)C=C1",
    "meta_data": {
        "InChI": "InChI=1S/C8H9NO3/c1-6-5-7(12-2)3-4-8(6)9(10)11/h3-5H,1-2H3",
        "InChIKey": null,
        "Canonical SMILES": "O=N(=O)C1=CC=C(OC)C=C1C",
        "Molecular Formula": "C<sub>8</sub>H<sub>9</sub>NO<sub>3</sub>",
        "Molecular Mass": "167.16",
        "Boiling Point": "16-20 °C @ Press: 4 Torr",
        "Melting Point": "55 °C"
    }
}