{
    "cas_no": "90141-22-3",
    "key_name": "(-)-Gossypol",
    "cn_name": null,
    "alternate_name": "[2,2′-Binaphthalene]-8,8′-dicarboxaldehyde, 1,1′,6,6′,7,7′-hexahydroxy-3,3′-dimethyl-5,5′-bis(1-methylethyl)-, (2<em>R</em>)-;[2,2′-Binaphthalene]-8,8′-dicarboxaldehyde, 1,1′,6,6′,7,7′-hexahydroxy-3,3′-dimethyl-5,5′-bis(1-methylethyl)-, (<em>R</em>)-;(2<em>R</em>)-1,1′,6,6′,7,7′-Hexahydroxy-3,3′-dimethyl-5,5′-bis(1-methylethyl)[2,2′-binaphthalene]-8,8′-dicarboxaldehyde;(-)-Gossypol;(<em>R</em>)-Gossypol;(<em>R</em>)-(-)-Gossypol;AT 101;SML 0433",
    "duplicated_cas_no": "",
    "SMILES": "C(C)(C)C=1C2=C(C(C=O)=C(O)C1O)C(O)=C(C(C)=C2)C3=C(O)C4=C(C=C3C)C(C(C)C)=C(O)C(O)=C4C=O",
    "meta_data": {
        "InChI": "InChI=1S/C30H30O8/c1-11(2)19-15-7-13(5)21(27(35)23(15)17(9-31)25(33)29(19)37)22-14(6)8-16-20(12(3)4)30(38)26(34)18(10-32)24(16)28(22)36/h7-12,33-38H,1-6H3",
        "InChIKey": null,
        "Canonical SMILES": "O=CC1=C(O)C(O)=C(C2=CC(=C(C(O)=C12)C3=C(O)C4=C(C=O)C(O)=C(O)C(=C4C=C3C)C(C)C)C)C(C)C",
        "Molecular Formula": "C<sub>30</sub>H<sub>30</sub>O<sub>8</sub>",
        "Molecular Mass": "518.55",
        "Melting Point": "166-167 °C"
    }
}