{
    "cas_no": "65799-47-5",
    "key_name": "(3-Glycidoxypropyl)methyldimethoxysilane",
    "cn_name": "3-[(2,3)-环氧丙氧]丙基甲基二甲氧基硅烷;gamma-缩水甘油基丙基甲基二甲氧基硅烷;",
    "alternate_name": "Oxirane, 2-[[3-(dimethoxymethylsilyl)propoxy]methyl]-;Silane, dimethoxymethyl[3-(oxiranylmethoxy)propyl]-;2-[[3-(Dimethoxymethylsilyl)propoxy]methyl]oxirane;(γ-Glycidoxypropyl)methyldimethoxysilane;Sila-Ace S 520;SH 6023;(3-Glycidoxypropyl)methyldimethoxysilane;(3-Glycidyloxypropyl)dimethoxymethylsilane;S 520;γ-Glycidoxypropyldimethoxymethylsilane;AY 43-026;3-Glycidyloxypropylmethyldimethoxysilane;γ-Glycidyloxypropyldimethoxymethylsilane;TSL 8355;AZ 6137;AP Silane 55;GOPS MDM;Z 6044;WD 61;SIG 5836.0;3-Glycidoxypropyldimethoxymethylsilane;Dimethoxy[3-(2-oxiranylmethoxy)propyl]methylsilane;LMD 61;DB 561;GC 561;KBM 402;γ-Glycidyloxypropylmethyldimethoxysilane;AC 661;KH 562;KH 564;CG 561;KH 781;USi 2311;KH 1872",
    "duplicated_cas_no": "75705-45-2;352320-35-5;1352510-80-5;1427863-53-3;2865147-20-0",
    "SMILES": "C(OCCC[Si](OC)(OC)C)C1CO1",
    "meta_data": {
        "InChI": "InChI=1S/C9H20O4Si/c1-10-14(3,11-2)6-4-5-12-7-9-8-13-9/h9H,4-8H2,1-3H3",
        "InChIKey": null,
        "Canonical SMILES": "O(CCC[Si](OC)(OC)C)CC1OC1",
        "Molecular Formula": "C<sub>9</sub>H<sub>20</sub>O<sub>4</sub>Si",
        "Molecular Mass": "220.34",
        "Boiling Point": "100 °C @ Press: 4 Torr",
        "Density": "1.020 g/cm³"
    }
}