{
    "cas_no": "127-52-6",
    "key_name": "Chloramine B",
    "cn_name": "氯胺B;苯磺酰氯胺钠盐;",
    "alternate_name": "Benzenesulfonamide, <em>N</em>-chloro-, sodium salt (1:1);Benzenesulfonamide, <em>N</em>-chloro-, sodium salt;Chloramine-B;Sodium, (<em>N</em>-chlorobenzenesulfonamido)-;Annogen;Benzene chloramine;Benzenesulfochloramide sodium;Sodium benzosulfochloramide;Sodium, [chloro(phenylsulfonyl)amino]-;Monochloramine B;Sodium <em>N</em>-chlorobenzenesulfonamide;<em>N</em>-Chlorobenzenesulfonamide sodium salt;Chlorogen;Neomagnol;<em>N</em>-Chloro-<em>N</em>-sodiobenzenesulfonamide;Sodium (phenylsulfonyl)chloramide;Sodium <em>N</em>-chlorobenzenesulfonamidate;Khloramin B;Chlordetal;Sodium benzenesulfochloramine;Chloramine B",
    "duplicated_cas_no": "136687-81-5;67973-18-6;72793-58-9",
    "SMILES": "S(NCl)(=O)(=O)C1=CC=CC=C1.[Na]",
    "meta_data": {
        "InChI": "InChI=1S/C6H6ClNO2S.Na/c7-8-11(9,10)6-4-2-1-3-5-6;/h1-5,8H;",
        "InChIKey": null,
        "Canonical SMILES": "[Na].O=S(=O)(NCl)C=1C=CC=CC1",
        "Molecular Formula": "C<sub>6</sub>H<sub>6</sub>ClNO<sub>2</sub>S.Na",
        "Molecular Mass": "",
        "Melting Point": "170-173 °C"
    }
}