{
    "cas_no": "7787-36-2",
    "key_name": "Permanganic acid (HMnO<sub>4</sub>), barium salt",
    "cn_name": "高锰酸钡;过锰酸钡;",
    "alternate_name": "Permanganic acid (HMnO<sub>4</sub>), barium salt;Barium permanganate;Barium manganate (Ba(MnO<sub>4</sub>)<sub>2</sub>)",
    "duplicated_cas_no": "",
    "SMILES": "[Mn](O)(=O)(=O)=O.[Ba]",
    "meta_data": {
        "InChI": "InChI=1S/Ba.Mn.H2O.3O/h;;1H2;;;/q;+1;;;;/p-1",
        "InChIKey": null,
        "Canonical SMILES": "[Ba].O=[Mn](=O)(=O)O",
        "Molecular Formula": "Ba.2HMnO<sub>4</sub>",
        "Molecular Mass": "",
        "Melting Point": "200 °C (decomp)",
        "Density": "3.77 g/cm³"
    }
}