{
    "uri": "substance/pt/12033895",
    "rn": "12033-89-5",
    "name": "Trisilicon tetranitride",
    "images": [],
    "inchi": "",
    "inchiKey": "",
    "smile": "",
    "canonicalSmile": "",
    "molecularFormula": "N<sub>4</sub>Si<sub>3</sub>",
    "molecularMass": "",
    "experimentalProperties": [
        {
            "name": "Melting Point",
            "property": "1900 °C",
            "sourceNumber": 1
        },
        {
            "name": "Density",
            "property": "3.440 g/cm³",
            "sourceNumber": 1
        }
    ],
    "propertyCitations": [
        {
            "docUri": "",
            "sourceNumber": 1,
            "source": "Metal-Organics Catalog physical property data were obtained from Gelest, Inc. of Morrisville, Pennsylvania (US)"
        }
    ],
    "synonyms": [
        "Silicon nitride (Si<sub>3</sub>N<sub>4</sub>)",
        "Roydazide",
        "Silicon nitride",
        "Trisilicon tetranitride",
        "LC 12",
        "SN 9FW",
        "SN 9S",
        "SN-B (filler)",
        "SN-B",
        "SN 220",
        "SNW 1",
        "SN-BL",
        "KSN 10",
        "Denka SN-BS",
        "E 05 (nitride)",
        "E 10 (nitride)",
        "E 05",
        "E 10",
        "SN-P 21",
        "Silicon nitride (SiN<sub>1.33</sub>)",
        "SN-E 10",
        "Silicon nitride (Si<sub>0.75</sub>N)",
        "SN-COA",
        "Ekasin S",
        "ASN 2",
        "SN-WB 20",
        "LC 12S",
        "SN-P 21B",
        "SN-P 21C",
        "SN-P 21C3",
        "SN-G 2",
        "Widianit N 2000",
        "Ekasin D",
        "NC 132 (ceramic)",
        "NCX 34",
        "NBD 200",
        "NT 154",
        "NCX 5102",
        "EC 141",
        "SNW 1000",
        "KBI",
        "NC 350",
        "NC 132",
        "SSN-M 49",
        "SNE 3",
        "SNF 1",
        "KSN 10SP-DW",
        "M 11",
        "M 11 (abrasive)",
        "Silzot 7038",
        "Silzot HQ",
        "NU 30",
        "Silzot 7038-2",
        "Silzot 7038-1",
        "GS 44",
        "SN-P 21FC",
        "Ube SN-E 10",
        "Baysinid ST",
        "NC 350 (nitride)",
        "GC 5A",
        "P 21FC",
        "LC 12 (nitride)",
        "SN-F 2",
        "SN 7",
        "SN 7 (nitride)",
        "SN 252",
        "ST 2 (ceramic)",
        "UBE-E 10",
        "ST 2",
        "Needlelok",
        "Ceralloy 147-31N",
        "SN 73K",
        "SN 88 (nitride)",
        "SN 88",
        "Siconide P 95",
        "SiNova",
        "SN-ESP",
        "HP 2W",
        "AS 800",
        "Siconide P 95L",
        "ASN 30",
        "SUN 11",
        "Poreceram",
        "CS 500",
        "CS 500 (nitride)",
        "Ceralloy 147-3N",
        "SN 9 (nitride)",
        "SN 9",
        "SN-F (nitride)",
        "9SN-F1",
        "UH 44",
        "SN-E 03",
        "Denka Silicon Nitride SN-F 2",
        "Ceradyne Ceralloy 147-31N",
        "Norton NC 132",
        "Denka SN Plate",
        "SN 9FWS",
        "SN 9FM",
        "HM 5",
        "SN-E 100",
        "KN 101",
        "NP 200 (nitride)",
        "NP 400",
        "NP 200",
        "SN 9FWK",
        "SiciNide",
        "FD 3N",
        "Ceralloy 147-31E",
        "Ceralloy 147-1E",
        "Ceralloy 147-1",
        "M 11A",
        "Nano 70",
        "NP 600",
        "SolarEtch",
        "GC 5A (nitride)",
        "HM 5MF",
        "SN-F 1",
        "SN-E 03M",
        "SN-A 00",
        "SN-XLF",
        "CW-SICN 001",
        "Kaishefeng NS 1",
        "Kaishefeng NS 3",
        "NS 3 (nitride)",
        "NS 1",
        "VF-TG 16",
        "CW-Si3N4 001",
        "SSN-β 1",
        "AM Si3N4W2",
        "TS 118",
        "H 1500",
        "TSN 90",
        "ZH 01 (ceramic)",
        "ZH 01",
        "SN 1040"
    ],
    "replacedRns": [
        "11113-86-3",
        "37248-41-2",
        "53095-88-8",
        "115950-29-3",
        "254906-02-0",
        "274915-53-6",
        "329042-21-9",
        "331285-12-2",
        "478270-75-6",
        "817163-71-6",
        "882528-57-6",
        "890090-52-5",
        "916792-35-3",
        "1342889-65-9",
        "1609456-82-7",
        "1640113-09-2"
    ],
    "hasMolfile": false,
    "source": "https://commonchemistry.cas.org/detail?cas_rn=12033-89-5"
}