{
    "cas_no": "548-75-4",
    "key_name": "Quercetagitrin",
    "cn_name": null,
    "alternate_name": "4<em>H</em>-1-Benzopyran-4-one, 2-(3,4-dihydroxyphenyl)-7-(β-<span class=\"text-smallcaps\">D</span>-glucopyranosyloxy)-3,5,6-trihydroxy-;Quercetagitrin;Quercetagetin 7-glucoside;2-(3,4-Dihydroxyphenyl)-7-(β-<span class=\"text-smallcaps\">D</span>-glucopyranosyloxy)-3,5,6-trihydroxy-4<em>H</em>-1-benzopyran-4-one;Quercetagetin, 7-β-<span class=\"text-smallcaps\">D</span>-glucopyranoside;Quercetagetin 7-<span class=\"text-smallcaps\">D</span>-glucoside;Quercetagetin 7-β-<span class=\"text-smallcaps\">D</span>-glucoside;Quercetagetin 7-<em>O</em>-glucoside;Quercetagetin 7-<em>O</em>-β-<span class=\"text-smallcaps\">D</span>-glucoside",
    "duplicated_cas_no": "31071-19-9;1333260-37-9",
    "SMILES": "O=C1C=2C(OC(=C1O)C3=CC(O)=C(O)C=C3)=CC(O[C@@H]4O[C@H](CO)[C@@H](O)[C@H](O)[C@H]4O)=C(O)C2O",
    "meta_data": {
        "InChI": "InChI=1S/C21H20O13/c22-5-11-14(26)17(29)19(31)21(34-11)33-10-4-9-12(15(27)13(10)25)16(28)18(30)20(32-9)6-1-2-7(23)8(24)3-6/h1-4,11,14,17,19,21-27,29-31H,5H2/t11-,14-,17+,19-,21-/m1/s1",
        "InChIKey": null,
        "Canonical SMILES": "O=C1C(O)=C(OC2=CC(OC3OC(CO)C(O)C(O)C3O)=C(O)C(O)=C12)C=4C=CC(O)=C(O)C4",
        "Molecular Formula": "C<sub>21</sub>H<sub>20</sub>O<sub>13</sub>",
        "Molecular Mass": "480.38",
        "Melting Point": "236-238 °C (decomp)"
    }
}