{
    "cas_no": "15438-71-8",
    "key_name": "<em>N</em>-(Hydroxymethyl)-2-pyrrolidone",
    "cn_name": null,
    "alternate_name": "2-Pyrrolidinone, 1-(hydroxymethyl)-;1-(Hydroxymethyl)-2-pyrrolidinone;<em>N</em>-Methylolpyrrolidone;<em>N</em>-Methylol-2-pyrrolidinone;<em>N</em>-Methylolpyrrolidinone;<em>N</em>-Methylol-2-pyrrolidone;<em>N</em>-(Hydroxymethyl)-2-pyrrolidinone;1-Hydroxymethyl-2-pyrrolidinone;1-(Hydroxymethyl)-2-pyrrolidone;<em>N</em>-(Hydroxymethyl)-2-pyrrolidone;NSC 84227;<em>N</em>-Hydroxymethylpyrrolidone",
    "duplicated_cas_no": "",
    "SMILES": "C(O)N1C(=O)CCC1",
    "meta_data": {
        "InChI": "InChI=1S/C5H9NO2/c7-4-6-3-1-2-5(6)8/h7H,1-4H2",
        "InChIKey": null,
        "Canonical SMILES": "O=C1N(CO)CCC1",
        "Molecular Formula": "C<sub>5</sub>H<sub>9</sub>NO<sub>2</sub>",
        "Molecular Mass": "115.13",
        "Boiling Point": "185-188 °C @ Press: 4 Torr",
        "Melting Point": "77-79.5 °C"
    }
}