{
    "cas_no": "10031-93-3",
    "key_name": "Ethyl 4-phenylbutanoate",
    "cn_name": "4-苯丁酸乙酯;",
    "alternate_name": "Benzenebutanoic acid, ethyl ester;Butyric acid, 4-phenyl-, ethyl ester;Ethyl 4-phenylbutyrate;Ethyl 4-phenylbutanoate;NSC 163318",
    "duplicated_cas_no": "",
    "SMILES": "C(CCC(OCC)=O)C1=CC=CC=C1",
    "meta_data": {
        "InChI": "InChI=1S/C12H16O2/c1-2-14-12(13)10-6-9-11-7-4-3-5-8-11/h3-5,7-8H,2,6,9-10H2,1H3",
        "InChIKey": null,
        "Canonical SMILES": "O=C(OCC)CCCC=1C=CC=CC1",
        "Molecular Formula": "C<sub>12</sub>H<sub>16</sub>O<sub>2</sub>",
        "Molecular Mass": "192.25",
        "Boiling Point": "130-131 °C @ Press: 10 Torr",
        "Density": "1.001 g/cm³ @ Temp: 20 °C"
    }
}