{
    "cas_no": "26305-13-5",
    "key_name": "5,6-Dimethyluracil",
    "cn_name": "5,6-二甲基尿嘧啶;",
    "alternate_name": "2,4(1<em>H</em>,3<em>H</em>)-Pyrimidinedione, 5,6-dimethyl-;Uracil, 5,6-dimethyl-;5,6-Dimethyl-2,4(1<em>H</em>,3<em>H</em>)-pyrimidinedione;5,6-Dimethyluracil;6-Methylthymine;NSC 163903;NSC 49017;2,4-Dihydroxy-5,6-dimethylpyrimidine",
    "duplicated_cas_no": "1194-72-5",
    "SMILES": "CC1=C(C)NC(=O)NC1=O",
    "meta_data": {
        "InChI": "InChI=1S/C6H8N2O2/c1-3-4(2)7-6(10)8-5(3)9/h1-2H3,(H2,7,8,9,10)",
        "InChIKey": null,
        "Canonical SMILES": "O=C1NC(=O)C(=C(N1)C)C",
        "Molecular Formula": "C<sub>6</sub>H<sub>8</sub>N<sub>2</sub>O<sub>2</sub>",
        "Molecular Mass": "140.14",
        "Melting Point": "294-296 °C",
        "Density": "1.20 g/cm³ @ Temp: 19.9 °C"
    }
}