{
    "cas_no": "5041-82-7",
    "key_name": "Isorhamnetin 3-<em>O</em>-glucoside",
    "cn_name": "异鼠李素-3-O-葡萄糖苷; 异鼠李素-3-O-beta-D-吡喃葡萄糖苷;异鼠李素-3-O-葡萄糖苷黄色粉末HPL;",
    "alternate_name": "4<em>H</em>-1-Benzopyran-4-one, 3-(β-<span class=\"text-smallcaps\">D</span>-glucopyranosyloxy)-5,7-dihydroxy-2-(4-hydroxy-3-methoxyphenyl)-;Isorhamnetin 3-glucoside;Flavone, 3,4′,5,7-tetrahydroxy-3′-methoxy-, 3-β-<span class=\"text-smallcaps\">D</span>-glucopyranoside;Glucopyranoside, isorhamnetin-3, β-<span class=\"text-smallcaps\">D</span>-;3-(β-<span class=\"text-smallcaps\">D</span>-Glucopyranosyloxy)-5,7-dihydroxy-2-(4-hydroxy-3-methoxyphenyl)-4<em>H</em>-1-benzopyran-4-one;Isorhamnetin 3-β-<span class=\"text-smallcaps\">D</span>-glucoside;Isorhamnetin 3-β-<span class=\"text-smallcaps\">D</span>-glucopyranoside;Isorhamnetin 3-<em>O</em>-β-<span class=\"text-smallcaps\">D</span>-glucopyranoside;Isorhamnetin 3-<em>O</em>-β-<span class=\"text-smallcaps\">D</span>-glucoside;Isorhamnetin 3-<span class=\"text-smallcaps\">D</span>-glucoside;3,4′,5,7-Tetrahydroxy-3′-methoxyflavone 3-β-<span class=\"text-smallcaps\">D</span>-glucopyranoside;3′-<em>O</em>-Methylquercetin 3-glucoside;3,5,7,4′-Tetrahydroxy-3′-methoxyflavone 3-β-<span class=\"text-smallcaps\">D</span>-glucoside;Isorhamnetin 3-<em>O</em>-β-glucoside;Isorhamnetin 3-<em>O</em>-glucoside;5,7,4′-Trihydroxy-3′-methoxyflavone 3-<em>O</em>-β-glucopyranoside",
    "duplicated_cas_no": "30324-66-4;30329-35-2;31712-50-2;61247-98-1;158560-08-8;885458-68-4;959676-92-7;2416257-93-5",
    "SMILES": "O(C1=C(OC=2C(C1=O)=C(O)C=C(O)C2)C3=CC(OC)=C(O)C=C3)[C@@H]4O[C@H](CO)[C@@H](O)[C@H](O)[C@H]4O",
    "meta_data": {
        "InChI": "InChI=1S/C22H22O12/c1-31-12-4-8(2-3-10(12)25)20-21(17(28)15-11(26)5-9(24)6-13(15)32-20)34-22-19(30)18(29)16(27)14(7-23)33-22/h2-6,14,16,18-19,22-27,29-30H,7H2,1H3/t14-,16-,18+,19-,22+/m1/s1",
        "InChIKey": null,
        "Canonical SMILES": "O=C1C(OC2OC(CO)C(O)C(O)C2O)=C(OC=3C=C(O)C=C(O)C13)C=4C=CC(O)=C(OC)C4",
        "Molecular Formula": "C<sub>22</sub>H<sub>22</sub>O<sub>12</sub>",
        "Molecular Mass": "478.40",
        "Melting Point": "165-167 °C"
    }
}