{
    "cas_no": "1185-39-3",
    "key_name": "2,2-Dimethylpentanoic acid",
    "cn_name": "2,2-二甲基戊酸;",
    "alternate_name": "Pentanoic acid, 2,2-dimethyl-;Valeric acid, 2,2-dimethyl-;2,2-Dimethylpentanoic acid;2,2-Dimethylvaleric acid;α,α-Dimethylvaleric acid;NSC 61983",
    "duplicated_cas_no": "",
    "SMILES": "C(CCC)(C(O)=O)(C)C",
    "meta_data": {
        "InChI": "InChI=1S/C7H14O2/c1-4-5-7(2,3)6(8)9/h4-5H2,1-3H3,(H,8,9)",
        "InChIKey": null,
        "Canonical SMILES": "O=C(O)C(C)(C)CCC",
        "Molecular Formula": "C<sub>7</sub>H<sub>14</sub>O<sub>2</sub>",
        "Molecular Mass": "130.18",
        "Boiling Point": "101-102 °C @ Press: 11 Torr",
        "Melting Point": "71 °C",
        "Density": "0.8833 g/cm³ @ Temp: 20 °C"
    }
}