{
    "cas_no": "124-19-6",
    "key_name": "Nonanal",
    "cn_name": "壬醛;",
    "alternate_name": "Nonanal;Nonanaldehyde;Nonaldehyde;Nonylic aldehyde;Pelargonaldehyde;Pelargonic aldehyde;<em>n</em>-Nonanal;<em>n</em>-Nonylaldehyde;Nonanoic aldehyde;Nonylaldehyde;Aldehyde C 9;NSC 5518;Aldehyde C 09",
    "duplicated_cas_no": "918959-88-3",
    "SMILES": "C(CCCC=O)CCCC",
    "meta_data": {
        "InChI": "InChI=1S/C9H18O/c1-2-3-4-5-6-7-8-9-10/h9H,2-8H2,1H3",
        "InChIKey": null,
        "Canonical SMILES": "O=CCCCCCCCC",
        "Molecular Formula": "C<sub>9</sub>H<sub>18</sub>O",
        "Molecular Mass": "142.24",
        "Boiling Point": "191 °C",
        "Melting Point": "94-95 °C",
        "Density": "0.8264 g/cm³ @ Temp: 22 °C"
    }
}