{
    "cas_no": "2576-47-8",
    "key_name": "2-Bromoethylamine hydrobromide",
    "cn_name": null,
    "alternate_name": "Ethanamine, 2-bromo-, hydrobromide (1:1);Ethylamine, 2-bromo-, hydrobromide;Ethanamine, 2-bromo-, hydrobromide;2-Bromoethylamine hydrobromide;β-Bromoethylamine hydrobromide;2-Aminoethyl bromide hydrobromide;2-Bromoethylammonium bromide;1-Amino-2-bromoethane hydrobromide;2-Bromoethanamine hydrobromide;2-Bromoethan-1-amine hydrobromide;2-Bromoethan-1-aminium bromide",
    "duplicated_cas_no": "",
    "SMILES": "C(CN)Br.Br",
    "meta_data": {
        "InChI": "InChI=1S/C2H6BrN.BrH/c3-1-2-4;/h1-2,4H2;1H",
        "InChIKey": null,
        "Canonical SMILES": "Br.BrCCN",
        "Molecular Formula": "C<sub>2</sub>H<sub>6</sub>BrN.BrH",
        "Molecular Mass": "",
        "Melting Point": "168 °C"
    }
}