{
    "cas_no": "142-61-0",
    "key_name": "Hexanoyl chloride",
    "cn_name": "己酰氯;",
    "alternate_name": "Hexanoyl chloride;Caproyl chloride;<em>n</em>-Caproyl chloride;Caproic chloride;<em>n</em>-Hexanoyl chloride;Caproic acid chloride;Hexanoic acid chloride;1-Pentanecarbonyl chloride",
    "duplicated_cas_no": "",
    "SMILES": "C(CCCC)C(Cl)=O",
    "meta_data": {
        "InChI": "InChI=1S/C6H11ClO/c1-2-3-4-5-6(7)8/h2-5H2,1H3",
        "InChIKey": null,
        "Canonical SMILES": "O=C(Cl)CCCCC",
        "Molecular Formula": "C<sub>6</sub>H<sub>11</sub>ClO",
        "Molecular Mass": "134.60",
        "Boiling Point": "153 °C",
        "Melting Point": "-87 °C",
        "Density": "0.98017 g/cm³ @ Temp: 15 °C"
    }
}