{
    "cas_no": "5833-47-6",
    "key_name": "2,2-Dimethyl-1-oxa-2-silacyclohexane",
    "cn_name": null,
    "alternate_name": "1-Oxa-2-silacyclohexane, 2,2-dimethyl-;2,2-Dimethyl-1-oxa-2-silacyclohexane;1-Oxa-2,2-dimethyl-2-silacyclohexane;1,1-Dimethyl-1-sila-2-oxacyclohexane;1,1-Dimethyl-2-oxy-1-silacyclohexane;2,2-Dimethyloxasilinane;2,2-Dimethyl-1,2-oxasilinane",
    "duplicated_cas_no": "",
    "SMILES": "C[Si]1(C)CCCCO1",
    "meta_data": {
        "InChI": "InChI=1S/C6H14OSi/c1-8(2)6-4-3-5-7-8/h3-6H2,1-2H3",
        "InChIKey": null,
        "Canonical SMILES": "O1CCCC[Si]1(C)C",
        "Molecular Formula": "C<sub>6</sub>H<sub>14</sub>OSi",
        "Molecular Mass": "130.26",
        "Boiling Point": "122-125 °C",
        "Melting Point": "122-125 °C",
        "Density": "0.8820 g/cm³ @ Temp: 20 °C"
    }
}