{
    "cas_no": "491-54-3",
    "key_name": "Kaempferide",
    "cn_name": "山奈素;山奈素;",
    "alternate_name": "4<em>H</em>-1-Benzopyran-4-one, 3,5,7-trihydroxy-2-(4-methoxyphenyl)-;Kaempferide;Flavone, 3,5,7-trihydroxy-4′-methoxy-;3,5,7-Trihydroxy-2-(4-methoxyphenyl)-4<em>H</em>-1-benzopyran-4-one;3,5,7-Trihydroxy-4′-methoxyflavone;Kaempferol 4′-methyl ether;Kaempferid;4′-<em>O</em>-Methylkaempferol;4′-Methylkaempferol;4′-Methoxykaempferol;5,7-Dihydroxy-4′-methoxyflavonol;NSC 407294;Kaempferol 4′-<em>O</em>-methyl ether;Kaempherol 4′-<em>O</em>-methyl ether;4′-O-Methylkaempherol;3,5,7-Trihydroxy-2-(4-methoxyphenyl)chromen-4-one;3,5,7-Trihydroxy-2-(4-methoxyphenyl)-4<em>H</em>-chromen-4-one",
    "duplicated_cas_no": "",
    "SMILES": "O=C1C=2C(OC(=C1O)C3=CC=C(OC)C=C3)=CC(O)=CC2O",
    "meta_data": {
        "InChI": "InChI=1S/C16H12O6/c1-21-10-4-2-8(3-5-10)16-15(20)14(19)13-11(18)6-9(17)7-12(13)22-16/h2-7,17-18,20H,1H3",
        "InChIKey": null,
        "Canonical SMILES": "O=C1C(O)=C(OC=2C=C(O)C=C(O)C12)C=3C=CC(OC)=CC3",
        "Molecular Formula": "C<sub>16</sub>H<sub>12</sub>O<sub>6</sub>",
        "Molecular Mass": "300.26",
        "Melting Point": "227-229 °C"
    }
}