{
    "cas_no": "1884-68-0",
    "key_name": "2,3,4,5-Tetraphenylthiophene",
    "cn_name": "四苯基噻吩;2,3,4,5-四苯基噻吩;",
    "alternate_name": "Thiophene, 2,3,4,5-tetraphenyl-;Thiophene, tetraphenyl-;2,3,4,5-Tetraphenylthiophene;Thionessal;Tetraphenylthiophene;NSC 56485",
    "duplicated_cas_no": "",
    "SMILES": "C=1(C(=C(SC1C2=CC=CC=C2)C3=CC=CC=C3)C4=CC=CC=C4)C5=CC=CC=C5",
    "meta_data": {
        "InChI": "InChI=1S/C28H20S/c1-5-13-21(14-6-1)25-26(22-15-7-2-8-16-22)28(24-19-11-4-12-20-24)29-27(25)23-17-9-3-10-18-23/h1-20H",
        "InChIKey": null,
        "Canonical SMILES": "S1C(C=2C=CC=CC2)=C(C=3C=CC=CC3)C(C=4C=CC=CC4)=C1C=5C=CC=CC5",
        "Molecular Formula": "C<sub>28</sub>H<sub>20</sub>S",
        "Molecular Mass": "388.52",
        "Melting Point": "164 °C"
    }
}