{
    "cas_no": "3055-95-6",
    "key_name": "3,6,9,12,15-Pentaoxaheptacosan-1-ol",
    "cn_name": "月桂醇聚醚-5;碳十二E5;聚戊乙二醇单十二醚;",
    "alternate_name": "3,6,9,12,15-Pentaoxaheptacosan-1-ol;Ethanol, 2-[2-[2-[2-[2-(dodecyloxy)ethoxy]ethoxy]ethoxy]ethoxy]-;Pentaethylene glycol monododecyl ether;Pentaethylene glycol dodecyl ether;Pentaoxyethylene monododecyl ether;α-Dodecyl-ω-hydroxypentakis(oxyethylene);<em>n</em>-Dodecyl pentaoxyethylene glycol ether;Pentaethylene glycol monolauryl ether;<em>n</em>-Dodecyl pentaoxyethylene monoether;C<sub>12</sub>E<sub>5</sub>;Penta(ethylene oxide) dodecyl ether;Pentaethylene glycol mono-<em>n</em>-dodecyl ether;Pentaethylene glycol lauryl ether;C<sub>12</sub>EO<sub>5</sub>;<em>n</em>-Dodecyl pentaethylene glycol ether;Monododecyl pentaethylene glycol;Pentaoxyethylene glycol mono-<em>n</em>-dodecyl ether;Dodecyl penta(ethylene oxide);2-[2-[2-[2-(2-Dodecoxyethoxy)ethoxy]ethoxy]ethoxy]ethanol",
    "duplicated_cas_no": "136561-93-8",
    "SMILES": "C(COCCOCCOCCOCCO)OCCCCCCCCCCCC",
    "meta_data": {
        "InChI": "InChI=1S/C22H46O6/c1-2-3-4-5-6-7-8-9-10-11-13-24-15-17-26-19-21-28-22-20-27-18-16-25-14-12-23/h23H,2-22H2,1H3",
        "InChIKey": null,
        "Canonical SMILES": "OCCOCCOCCOCCOCCOCCCCCCCCCCCC",
        "Molecular Formula": "C<sub>22</sub>H<sub>46</sub>O<sub>6</sub>",
        "Molecular Mass": "406.60",
        "Boiling Point": "207-210 °C @ Press: 0.8 Torr",
        "Melting Point": "14.5-15.0 °C",
        "Density": "0.992 g/cm³ @ Temp: 40 °C"
    }
}