{
    "cas_no": "37002-45-2",
    "key_name": "1,3-Dioxolane-4,5-dimethanol, 2,2-dimethyl-, 4,5-bis(4-methylbenzenesulfonate), (4<em>S</em>,5<em>S</em>)-",
    "cn_name": null,
    "alternate_name": "1,3-Dioxolane-4,5-dimethanol, 2,2-dimethyl-, 4,5-bis(4-methylbenzenesulfonate), (4<em>S</em>,5<em>S</em>)-;1,3-Dioxolane-4,5-dimethanol, 2,2-dimethyl-, bis(4-methylbenzenesulfonate), (4<em>S</em>-<em>trans</em>)-;1,3-Dioxolane-4,5-dimethanol, 2,2-dimethyl-, bis(4-methylbenzenesulfonate), (4<em>S</em>,5<em>S</em>)-;1,4-Di-<em>O</em>-tosyl-2,3-<em>O</em>-isopropylidene-<span class=\"text-smallcaps\">L</span>-threitol;(2<em>S</em>,3<em>S</em>)-(-)-2,3-<em>O</em>-Isopropylidene-1,4-di-<em>O</em>-tosyl-<span class=\"text-smallcaps\">L</span>-threitol;(<em>S</em>,<em>S</em>)-(-)-1,4-Di-<em>O</em>-tosyl-2,3-<em>O</em>-isopropylidene-<span class=\"text-smallcaps\">L</span>-threitol;(4<em>S</em>-<em>trans</em>)-2,2-Dimethyl-4,5-bis[(4-methylphenylsulfonyloxy)methyl]-1,3-dioxolane;(4<em>S</em>,5<em>S</em>)-2,2-Dimethyl-4,5-bis[(4-toluenesulfonyloxy)methyl]-1,3-dioxolane;(<em>S</em>,<em>S</em>)-(-)-2,3-<em>O</em>-Isopropylidenethreitol 1,4-ditosylate;4-Methylbenzenesulfonic acid [(4<em>S</em>,5<em>S</em>)-2,2-dimethyl-1,3-dioxolane-4,5-diyl]bis(methylene) ester",
    "duplicated_cas_no": "",
    "SMILES": "C(OS(=O)(=O)C1=CC=C(C)C=C1)[C@H]2[C@H](COS(=O)(=O)C3=CC=C(C)C=C3)OC(C)(C)O2",
    "meta_data": {
        "InChI": "InChI=1S/C21H26O8S2/c1-15-5-9-17(10-6-15)30(22,23)26-13-19-20(29-21(3,4)28-19)14-27-31(24,25)18-11-7-16(2)8-12-18/h5-12,19-20H,13-14H2,1-4H3/t19-,20-/m0/s1",
        "InChIKey": null,
        "Canonical SMILES": "O=S(=O)(OCC1OC(OC1COS(=O)(=O)C2=CC=C(C=C2)C)(C)C)C3=CC=C(C=C3)C",
        "Molecular Formula": "C<sub>21</sub>H<sub>26</sub>O<sub>8</sub>S<sub>2</sub>",
        "Molecular Mass": "470.56",
        "Melting Point": "90-92 °C"
    }
}