{
    "cas_no": "58401-43-7",
    "key_name": "4-Chloro-3-quinolinamine",
    "cn_name": null,
    "alternate_name": "3-Quinolinamine, 4-chloro-;4-Chloro-3-quinolinamine;3-Amino-4-chloroquinoline;4-Chloroquinolin-3-ylamine",
    "duplicated_cas_no": "",
    "SMILES": "ClC=1C2=C(N=CC1N)C=CC=C2",
    "meta_data": {
        "InChI": "InChI=1S/C9H7ClN2/c10-9-6-3-1-2-4-8(6)12-5-7(9)11/h1-5H,11H2",
        "InChIKey": null,
        "Canonical SMILES": "ClC=1C(N)=CN=C2C=CC=CC21",
        "Molecular Formula": "C<sub>9</sub>H<sub>7</sub>ClN<sub>2</sub>",
        "Molecular Mass": "178.62",
        "Melting Point": "142-143 °C"
    }
}