{
    "cas_no": "144-68-3",
    "key_name": "Zeaxanthin",
    "cn_name": "玉米黄质;",
    "alternate_name": "β,β-Carotene-3,3′-diol, (3<em>R</em>,3′<em>R</em>)-;β-Carotene-3,3′-diol, (3<em>R</em>,3′<em>R</em>)-<em>all</em>-<em>trans</em>-;Zeaxanthin;(3<em>R</em>,3′<em>R</em>)-β,β-Carotene-3,3′-diol;Zeaxanthin, <em>all</em>-<em>trans</em>-;Xanthophyll 3;Anchovyxanthin;Zeaxanthol;Anchovyxanthin, <em>all</em>-<em>trans</em>-;<em>all</em>-<em>trans</em>-Anchovyxanthin;<em>all</em>-<em>trans</em>-Zeaxanthin;(3<em>R</em>,3′<em>R</em>)-Zeaxanthin;ZeaGold;E 161H;Optisharp;<em>all</em>-<em>trans</em>-3R,3′R-Zeaxanthin;Luteinofta;<em>all</em>-<em>E</em>-Zeaxanthin;(3R,3′R)-Dihydroxy-β-carotene;(3<em>R</em>,3′<em>R</em>)-Dihydroxy-β-carotene",
    "duplicated_cas_no": "32638-35-0;34182-33-7",
    "SMILES": "C(=C/C(=C/C=C/C(=C/C=C/C=C(/C=C/C=C(/C=C/C=1C(C)(C)C[C@H](O)CC1C)\\C)\\C)/C)/C)\\C=2C(C)(C)C[C@H](O)CC2C",
    "meta_data": {
        "InChI": "InChI=1S/C40H56O2/c1-29(17-13-19-31(3)21-23-37-33(5)25-35(41)27-39(37,7)8)15-11-12-16-30(2)18-14-20-32(4)22-24-38-34(6)26-36(42)28-40(38,9)10/h11-24,35-36,41-42H,25-28H2,1-10H3/b12-11+,17-13+,18-14+,23-21+,24-22+,29-15+,30-16+,31-19+,32-20+/t35-,36-/m1/s1",
        "InChIKey": null,
        "Canonical SMILES": "OC1CC(=C(C=CC(=CC=CC(=CC=CC=C(C=CC=C(C=CC2=C(C)CC(O)CC2(C)C)C)C)C)C)C(C)(C)C1)C",
        "Molecular Formula": "C<sub>40</sub>H<sub>56</sub>O<sub>2</sub>",
        "Molecular Mass": "568.87",
        "Melting Point": "215.5 °C"
    }
}