{
    "cas_no": "754-05-2",
    "key_name": "Vinyltrimethylsilane",
    "cn_name": "乙烯基三甲基硅烷;",
    "alternate_name": "Silane, ethenyltrimethyl-;Silane, trimethylvinyl-;Ethenyltrimethylsilane;Vinyltrimethylsilane;Trimethylvinylsilane;(Trimethylsilyl)ethylene;(Trimethylsilyl)ethene;NSC 93553;W 139",
    "duplicated_cas_no": "",
    "SMILES": "[Si](C=C)(C)(C)C",
    "meta_data": {
        "InChI": "InChI=1S/C5H12Si/c1-5-6(2,3)4/h5H,1H2,2-4H3",
        "InChIKey": null,
        "Canonical SMILES": "C=C[Si](C)(C)C",
        "Molecular Formula": "C<sub>5</sub>H<sub>12</sub>Si",
        "Molecular Mass": "100.23",
        "Boiling Point": "55 °C",
        "Melting Point": "-132 °C",
        "Density": "0.690 g/cm³"
    }
}