{
    "cas_no": "4075-59-6",
    "key_name": "2-Thiopheneglyoxylic acid",
    "cn_name": "2-噻吩乙醛酸;",
    "alternate_name": "2-Thiopheneacetic acid, α-oxo-;2-Thiopheneglyoxylic acid;α-Oxo-2-thiopheneacetic acid;2-Thienylglyoxylic acid;2-Thienylglyoxalic acid;(2-Thienyl)oxoacetic acid;α-Thienylglyoxalic acid;2-(2-Thienyl)-2-oxoacetic acid;Oxo(thien-2-yl)acetic acid;2-Oxo-2-(thiophen-2-yl)acetic acid;2-Oxo-2-(2-thienyl)acetic acid",
    "duplicated_cas_no": "",
    "SMILES": "C(C(O)=O)(=O)C1=CC=CS1",
    "meta_data": {
        "InChI": "InChI=1S/C6H4O3S/c7-5(6(8)9)4-2-1-3-10-4/h1-3H,(H,8,9)",
        "InChIKey": null,
        "Canonical SMILES": "O=C(O)C(=O)C=1SC=CC1",
        "Molecular Formula": "C<sub>6</sub>H<sub>4</sub>O<sub>3</sub>S",
        "Molecular Mass": "156.16",
        "Melting Point": "91.5 °C"
    }
}