{
    "cas_no": "2182-66-3",
    "key_name": "Silanediol, 1,1-dimethyl-, 1,1-diacetate",
    "cn_name": "二甲基二乙酰氧基硅烷;二甲基硅烷二醇二乙酸酯;",
    "alternate_name": "Silanediol, 1,1-dimethyl-, 1,1-diacetate;Silanediol, dimethyl-, diacetate;Dimethyldiacetoxysilane;Diacetoxydimethylsilane;Bis(acetyloxy)dimethylsilane;[Acetyloxy(dimethyl)silyl] acetate;(Acetyloxy)dimethylsilyl acetate",
    "duplicated_cas_no": "",
    "SMILES": "O([Si](OC(C)=O)(C)C)C(C)=O",
    "meta_data": {
        "InChI": "InChI=1S/C6H12O4Si/c1-5(7)9-11(3,4)10-6(2)8/h1-4H3",
        "InChIKey": null,
        "Canonical SMILES": "O=C(O[Si](OC(=O)C)(C)C)C",
        "Molecular Formula": "C<sub>6</sub>H<sub>12</sub>O<sub>4</sub>Si",
        "Molecular Mass": "176.24",
        "Boiling Point": "165 °C",
        "Melting Point": "-12.5 °C",
        "Density": "1.054 g/cm³"
    }
}