{
    "cas_no": "4559-96-0",
    "key_name": "1-(4-Bromophenyl)-4-chloro-1-butanone",
    "cn_name": "4\"-溴-4-氯苯丁酮;4\"-溴-4-氯苯丁酮;",
    "alternate_name": "1-Butanone, 1-(4-bromophenyl)-4-chloro-;Butyrophenone, 4′-bromo-4-chloro-;1-(4-Bromophenyl)-4-chloro-1-butanone;4′-Bromo-4-chlorobutyrophenone;4-Chloro-<em>p</em>-bromobutyrophenone;4-Bromophenyl 3-chloropropyl ketone;3-Chloropropyl 4-bromophenyl ketone;1-(4-Bromophenyl)-4-chlorobutanone",
    "duplicated_cas_no": "",
    "SMILES": "C(CCCCl)(=O)C1=CC=C(Br)C=C1",
    "meta_data": {
        "InChI": "InChI=1S/C10H10BrClO/c11-9-5-3-8(4-6-9)10(13)2-1-7-12/h3-6H,1-2,7H2",
        "InChIKey": null,
        "Canonical SMILES": "O=C(C1=CC=C(Br)C=C1)CCCCl",
        "Molecular Formula": "C<sub>10</sub>H<sub>10</sub>BrClO",
        "Molecular Mass": "261.54",
        "Boiling Point": "150-157 °C @ Press: 6.5 Torr",
        "Melting Point": "30 °C",
        "Density": "1.4808 g/cm³ @ Temp: 20 °C"
    }
}