{
    "cas_no": "327-92-4",
    "key_name": "1,5-Difluoro-2,4-dinitrobenzene",
    "cn_name": "1,5-二氟-2,4-二硝基苯;",
    "alternate_name": "Benzene, 1,5-difluoro-2,4-dinitro-;1,5-Difluoro-2,4-dinitrobenzene;4,6-Difluoro-1,3-dinitrobenzene;1,3-Difluoro-4,6-dinitrobenzene;2,4-Dinitro-1,5-difluorobenzene;2,6-Dinitro-3,5-difluorobenzene;NSC 10246;2,4-Difluoro-1,5-dinitrobenzene;1,5-Difluoro-2,4-nitrobenzene;DFDNB",
    "duplicated_cas_no": "",
    "SMILES": "N(=O)(=O)C1=CC(N(=O)=O)=C(F)C=C1F",
    "meta_data": {
        "InChI": "InChI=1S/C6H2F2N2O4/c7-3-1-4(8)6(10(13)14)2-5(3)9(11)12/h1-2H",
        "InChIKey": null,
        "Canonical SMILES": "O=N(=O)C=1C=C(C(F)=CC1F)N(=O)=O",
        "Molecular Formula": "C<sub>6</sub>H<sub>2</sub>F<sub>2</sub>N<sub>2</sub>O<sub>4</sub>",
        "Molecular Mass": "204.09",
        "Melting Point": "74 °C"
    }
}