{
    "cas_no": "69975-86-6",
    "key_name": "Doxofylline",
    "cn_name": "多索茶碱;1,3-二甲基-7-(1,3-二氧环戊基-2-基)甲基-3,7-二氢-1H-嘌呤-2,6-二酮;",
    "alternate_name": "1<em>H</em>-Purine-2,6-dione, 7-(1,3-dioxolan-2-ylmethyl)-3,7-dihydro-1,3-dimethyl-;Theophylline, 7-(1,3-dioxolan-2-ylmethyl)-;7-(1,3-Dioxolan-2-ylmethyl)-3,7-dihydro-1,3-dimethyl-1<em>H</em>-purine-2,6-dione;2-(7′-Theophyllinemethyl)-1,3-dioxolane;ABC 1213;Dioxyfilline;Doxophylline;Doxofylline;Ansimar;Maxivent;ABC 12/3;Ventax;Synasma",
    "duplicated_cas_no": "",
    "SMILES": "C(N1C2=C(N(C)C(=O)N(C)C2=O)N=C1)C3OCCO3",
    "meta_data": {
        "InChI": "InChI=1S/C11H14N4O4/c1-13-9-8(10(16)14(2)11(13)17)15(6-12-9)5-7-18-3-4-19-7/h6-7H,3-5H2,1-2H3",
        "InChIKey": null,
        "Canonical SMILES": "O=C1C2=C(N=CN2CC3OCCO3)N(C(=O)N1C)C",
        "Molecular Formula": "C<sub>11</sub>H<sub>14</sub>N<sub>4</sub>O<sub>4</sub>",
        "Molecular Mass": "266.25",
        "Melting Point": "144-145.5 °C"
    }
}