{
    "cas_no": "546-06-5",
    "key_name": "(+)-Conessine",
    "cn_name": "止泻木碱;地麻素;康丝碱;康里新;可内新;",
    "alternate_name": "Con-5-enin-3-amine, <em>N</em>,<em>N</em>-dimethyl-, (3β)-;Conessine;Con-5-enine, 3β-(dimethylamino)-;Conkurchine, <em>N</em>,18-dihydrotrimethyl-;1<em>H</em>-Naphth[2′,1′:4,5]indeno[1,7a-<em>c</em>]pyrrole, con-5-enin-3-amine deriv.;(3β)-<em>N</em>,<em>N</em>-Dimethylcon-5-enin-3-amine;Neriine;Roquessine;Wrightine;Conessin;<em>N</em>′,18-Dihydro-<em>N</em>,<em>N</em>,<em>N</em>′-trimethylconkurchine;(+)-Conessine;NSC 119994",
    "duplicated_cas_no": "",
    "SMILES": "C[C@H]1[C@@]2([C@@]3([C@]([C@]4([C@](CC3)([C@]5(C)C(=CC4)C[C@@H](N(C)C)CC5)[H])[H])(CC2)[H])CN1C)[H]",
    "meta_data": {
        "InChI": "InChI=1S/C24H40N2/c1-16-20-8-9-22-19-7-6-17-14-18(25(3)4)10-12-23(17,2)21(19)11-13-24(20,22)15-26(16)5/h6,16,18-22H,7-15H2,1-5H3/t16-,18-,19+,20+,21-,22-,23-,24-/m0/s1",
        "InChIKey": null,
        "Canonical SMILES": "C1=C2CC(N(C)C)CCC2(C)C3CCC45CN(C)C(C)C5CCC4C3C1",
        "Molecular Formula": "C<sub>24</sub>H<sub>40</sub>N<sub>2</sub>",
        "Molecular Mass": "356.59",
        "Melting Point": "125.5 °C"
    }
}