{
    "cas_no": "23013-84-5",
    "key_name": "Glycyrol",
    "cn_name": null,
    "alternate_name": "6<em>H</em>-Benzofuro[3,2-<em>c</em>][1]benzopyran-6-one, 3,9-dihydroxy-1-methoxy-2-(3-methyl-2-buten-1-yl)-;6<em>H</em>-Benzofuro[3,2-<em>c</em>][1]benzopyran-6-one, 3,9-dihydroxy-1-methoxy-2-(3-methyl-2-butenyl)-;3,9-Dihydroxy-1-methoxy-2-(3-methyl-2-buten-1-yl)-6<em>H</em>-benzofuro[3,2-<em>c</em>][1]benzopyran-6-one;Glycyrol;Neoglycyrol;Neoglycerol",
    "duplicated_cas_no": "",
    "SMILES": "O(C)C1=C2C3=C(C=4C(O3)=CC(O)=CC4)C(=O)OC2=CC(O)=C1CC=C(C)C",
    "meta_data": {
        "InChI": "InChI=1S/C21H18O6/c1-10(2)4-6-12-14(23)9-16-18(19(12)25-3)20-17(21(24)27-16)13-7-5-11(22)8-15(13)26-20/h4-5,7-9,22-23H,6H2,1-3H3",
        "InChIKey": null,
        "Canonical SMILES": "O=C1OC=2C=C(O)C(=C(OC)C2C=3OC=4C=C(O)C=CC4C13)CC=C(C)C",
        "Molecular Formula": "C<sub>21</sub>H<sub>18</sub>O<sub>6</sub>",
        "Molecular Mass": "366.36",
        "Melting Point": "263.5-265 °C"
    }
}