{
    "cas_no": "4432-31-9",
    "key_name": "4-Morpholineethanesulfonic acid",
    "cn_name": "2-吗啉乙磺酸;",
    "alternate_name": "4-Morpholineethanesulfonic acid;MES;2-Morpholinoethanesulfonic acid;2-(<em>N</em>-Morpholino)ethanesulfonic acid;MES (buffering agent);2-(4-Morpholinyl)ethanesulfonic acid;Morpholinoethanesulfonic acid;2-(4-Morpholino)ethanesulfonic acid;NSC 157116;MES buffer;2-(Morpholin-4-yl)ethane-1-sulfonic acid;2-Morpholin-4-ium-4-ylethanesulfonate",
    "duplicated_cas_no": "",
    "SMILES": "C(CS(=O)(=O)O)N1CCOCC1",
    "meta_data": {
        "InChI": "InChI=1S/C6H13NO4S/c8-12(9,10)6-3-7-1-4-11-5-2-7/h1-6H2,(H,8,9,10)",
        "InChIKey": null,
        "Canonical SMILES": "O=S(=O)(O)CCN1CCOCC1",
        "Molecular Formula": "C<sub>6</sub>H<sub>13</sub>NO<sub>4</sub>S",
        "Molecular Mass": "195.24",
        "Melting Point": "277-280 °C (decomp)"
    }
}