{
    "cas_no": "4292-19-7",
    "key_name": "1-Iodododecane",
    "cn_name": "1-碘十二烷;",
    "alternate_name": "Dodecane, 1-iodo-;1-Iodododecane;Dodecyl iodide;Lauryl iodide;<em>n</em>-Dodecyl iodide;1-Dodecyl iodide;NSC 9285;Iodododecane",
    "duplicated_cas_no": "",
    "SMILES": "C(CCCCCC)CCCCCI",
    "meta_data": {
        "InChI": "InChI=1S/C12H25I/c1-2-3-4-5-6-7-8-9-10-11-12-13/h2-12H2,1H3",
        "InChIKey": null,
        "Canonical SMILES": "ICCCCCCCCCCCC",
        "Molecular Formula": "C<sub>12</sub>H<sub>25</sub>I",
        "Molecular Mass": "296.23",
        "Boiling Point": "298.2 °C",
        "Melting Point": "0.3 °C"
    }
}