{
    "cas_no": "621-82-9",
    "key_name": "Cinnamic acid",
    "cn_name": "肉桂酸;桂皮酸;beta-苯基丙烯酸;3-苯基丙烯酸;",
    "alternate_name": "2-Propenoic acid, 3-phenyl-;Cinnamic acid;3-Phenyl-2-propenoic acid;Phenylacrylic acid;3-Phenylacrylic acid;β-Phenylacrylic acid;NSC 623441;NSC 9189",
    "duplicated_cas_no": "",
    "SMILES": "C(=CC(O)=O)C1=CC=CC=C1",
    "meta_data": {
        "InChI": "InChI=1S/C9H8O2/c10-9(11)7-6-8-4-2-1-3-5-8/h1-7H,(H,10,11)",
        "InChIKey": null,
        "Canonical SMILES": "O=C(O)C=CC=1C=CC=CC1",
        "Molecular Formula": "C<sub>9</sub>H<sub>8</sub>O<sub>2</sub>",
        "Molecular Mass": "148.16",
        "Boiling Point": "300 °C",
        "Melting Point": "133 °C"
    }
}