{
    "cas_no": "3652-32-2",
    "key_name": "4-Methyl-5-(pyridin-4-yl)-4<em>H</em>-[1,2,4]triazole-3-thiol",
    "cn_name": null,
    "alternate_name": "3<em>H</em>-1,2,4-Triazole-3-thione, 2,4-dihydro-4-methyl-5-(4-pyridinyl)-;4<em>H</em>-1,2,4-Triazole-3-thiol, 4-methyl-5-(4-pyridyl)-;2,4-Dihydro-4-methyl-5-(4-pyridinyl)-3<em>H</em>-1,2,4-triazole-3-thione;4-Methyl-3-γ-pyridyl-1,2,4-triazoline-5-thione;4-Methyl-5-(pyridin-4-yl)-4<em>H</em>-[1,2,4]triazole-3-thiol",
    "duplicated_cas_no": "",
    "SMILES": "CN1C(=NNC1=S)C=2C=CN=CC2",
    "meta_data": {
        "InChI": "InChI=1S/C8H8N4S/c1-12-7(10-11-8(12)13)6-2-4-9-5-3-6/h2-5H,1H3,(H,11,13)",
        "InChIKey": null,
        "Canonical SMILES": "S=C1NN=C(C=2C=CN=CC2)N1C",
        "Molecular Formula": "C<sub>8</sub>H<sub>8</sub>N<sub>4</sub>S",
        "Molecular Mass": "192.24",
        "Melting Point": "287 °C"
    }
}