{
    "cas_no": "17376-04-4",
    "key_name": "Phenethyl iodide",
    "cn_name": "2-碘代乙基苯;",
    "alternate_name": "Benzene, (2-iodoethyl)-;(2-Iodoethyl)benzene;Phenethyl iodide;β-Phenethyl iodide;2-Phenylethyl iodide;β-Phenylethyl iodide;1-Iodo-2-phenylethane;4-(2-Iodoethyl)benzene;2-Phenyl-1-iodoethane",
    "duplicated_cas_no": "",
    "SMILES": "C(CI)C1=CC=CC=C1",
    "meta_data": {
        "InChI": "InChI=1S/C8H9I/c9-7-6-8-4-2-1-3-5-8/h1-5H,6-7H2",
        "InChIKey": null,
        "Canonical SMILES": "ICCC=1C=CC=CC1",
        "Molecular Formula": "C<sub>8</sub>H<sub>9</sub>I",
        "Molecular Mass": "232.06",
        "Boiling Point": "221-222 °C",
        "Density": "1.632 g/cm³ @ Temp: 20 °C"
    }
}