{
    "cas_no": "1010-95-3",
    "key_name": "1<em>H</em>-Indole-3-ethanamine, 5-methyl-, hydrochloride (1:1)",
    "cn_name": "5-甲基色胺盐酸盐;3-(2-氨乙基)-5-甲基吲哚盐酸盐;",
    "alternate_name": "1<em>H</em>-Indole-3-ethanamine, 5-methyl-, hydrochloride (1:1);Indole, 3-(2-aminoethyl)-5-methyl-, monohydrochloride;1<em>H</em>-Indole-3-ethanamine, 5-methyl-, monohydrochloride;5-Methyltryptamine hydrochloride;5-Methyl-1<em>H</em>-indole-3-ethylamine monohydrochloride;2-(5-Methyl-1<em>H</em>-indol-3-yl)-ethylamine; hydrochloride;2-(5-Methyl-1<em>H</em>-indol-3-yl)ethanamine hydrochloride;2-(5-Methyl-1<em>H</em>-indol-3-yl)ethan-1-amine hydrochloride;5-methyltryptammonium chloride",
    "duplicated_cas_no": "",
    "SMILES": "C(CN)C=1C=2C(NC1)=CC=C(C)C2.Cl",
    "meta_data": {
        "InChI": "InChI=1S/C11H14N2.ClH/c1-8-2-3-11-10(6-8)9(4-5-12)7-13-11;/h2-3,6-7,13H,4-5,12H2,1H3;1H",
        "InChIKey": null,
        "Canonical SMILES": "Cl.NCCC1=CNC=2C=CC(=CC21)C",
        "Molecular Formula": "C<sub>11</sub>H<sub>14</sub>N<sub>2</sub>.ClH",
        "Molecular Mass": "",
        "Melting Point": "292-295 °C"
    }
}