{
    "cas_no": "556-68-3",
    "key_name": "Hexadecamethylcyclooctasiloxane",
    "cn_name": null,
    "alternate_name": "Cyclooctasiloxane, 2,2,4,4,6,6,8,8,10,10,12,12,14,14,16,16-hexadecamethyl-;Cyclooctasiloxane, hexadecamethyl-;2,2,4,4,6,6,8,8,10,10,12,12,14,14,16,16-Hexadecamethylcyclooctasiloxane;Hexadecamethylcyclooctasiloxane",
    "duplicated_cas_no": "",
    "SMILES": "C[Si]1(C)O[Si](C)(C)O[Si](C)(C)O[Si](C)(C)O[Si](C)(C)O[Si](C)(C)O[Si](C)(C)O[Si](C)(C)O1",
    "meta_data": {
        "InChI": "InChI=1S/C16H48O8Si8/c1-25(2)17-26(3,4)19-28(7,8)21-30(11,12)23-32(15,16)24-31(13,14)22-29(9,10)20-27(5,6)18-25/h1-16H3",
        "InChIKey": null,
        "Canonical SMILES": "O1[Si](O[Si](O[Si](O[Si](O[Si](O[Si](O[Si](O[Si]1(C)C)(C)C)(C)C)(C)C)(C)C)(C)C)(C)C)(C)C",
        "Molecular Formula": "C<sub>16</sub>H<sub>48</sub>O<sub>8</sub>Si<sub>8</sub>",
        "Molecular Mass": "593.23",
        "Boiling Point": "290 °C",
        "Melting Point": "31.5 °C",
        "Density": "1.177 g/cm³ @ Temp: 25 °C"
    }
}