{
    "cas_no": "1468-26-4",
    "key_name": "3<em>H</em>-1,2,3-Triazolo[4,5-<em>d</em>]pyrimidine-5,7(4<em>H</em>,6<em>H</em>)-dione",
    "cn_name": "8-氮杂黄嘌呤;8-唑黄嘌呤;8-氮-2，6-二羟基嘌呤;",
    "alternate_name": "3<em>H</em>-1,2,3-Triazolo[4,5-<em>d</em>]pyrimidine-5,7(4<em>H</em>,6<em>H</em>)-dione;1<em>H</em>-<em>v</em>-Triazolo[4,5-<em>d</em>]pyrimidine-5,7(4<em>H</em>,6<em>H</em>)-dione;1<em>H</em>-1,2,3-Triazolo[4,5-<em>d</em>]pyrimidine-5,7(4<em>H</em>,6<em>H</em>)-dione;<em>v</em>-Triazolo[4,5-<em>d</em>]pyrimidine-5,7(4<em>H</em>,6<em>H</em>)-dione;8-Azaxanthine;<em>v</em>-Triazolo[4,5-<em>d</em>]pyrimidine-5,7-diol;Xanthazol;[1,2,3]Triazolo[4,5-<em>d</em>]pyrimidine-5,7-diol;NSC 756;1<em>H</em>,4<em>H</em>,5<em>H</em>,6<em>H</em>,7<em>H</em>-[1,2,3]Triazolo[4,5-<em>d</em>]pyrimidine-5,7-dione;1<em>H</em>-[1,2,3]Triazolo[4,5-<em>d</em>]pyrimidine-5,7-diol",
    "duplicated_cas_no": "27857-77-8;801175-53-1",
    "SMILES": "O=C1C2=C(NC(=O)N1)N=NN2",
    "meta_data": {
        "InChI": "InChI=1S/C4H3N5O2/c10-3-1-2(8-9-7-1)5-4(11)6-3/h(H3,5,6,7,8,9,10,11)",
        "InChIKey": null,
        "Canonical SMILES": "O=C1NC(=O)C=2NN=NC2N1",
        "Molecular Formula": "C<sub>4</sub>H<sub>3</sub>N<sub>5</sub>O<sub>2</sub>",
        "Molecular Mass": "153.10",
        "Melting Point": "&gt;270 °C (decomp)"
    }
}