{
    "cas_no": "77-91-8",
    "key_name": "Choline dihydrogen citrate",
    "cn_name": null,
    "alternate_name": "Ethanaminium, 2-hydroxy-<em>N</em>,<em>N</em>,<em>N</em>-trimethyl-, 2-hydroxy-1,2,3-propanetricarboxylate (1:1);Choline, citrate (1:1) (salt);Ethanaminium, 2-hydroxy-<em>N</em>,<em>N</em>,<em>N</em>-trimethyl-, salt with 2-hydroxy-1,2,3-propanetricarboxylic acid (1:1);Choline, citrate;Citric acid, ion(1-), choline;1,2,3-Propanetricarboxylic acid, 2-hydroxy-, ion(1-), 2-hydroxy-<em>N</em>,<em>N</em>,<em>N</em>-trimethylethanaminium;Cholex;Choline dihydrogen citrate;Chothyn;Cirrocolina;Citracholine;Citrocholine;Neurotropan;2-Hydroxyethyltrimethylammonium dihydrogen citrate;Delichol;Cholinvel;Citracholin;Citrocol;Colicitrin",
    "duplicated_cas_no": "53457-65-1;53626-40-7;87774-72-9;147584-41-6;147754-38-9",
    "SMILES": "C(CC([O-])=O)(CC(O)=O)(C(O)=O)O.C([N+](C)(C)C)CO",
    "meta_data": {
        "InChI": "InChI=1S/C6H8O7.C5H14NO/c7-3(8)1-6(13,5(11)12)2-4(9)10;1-6(2,3)4-5-7/h13H,1-2H2,(H,7,8)(H,9,10)(H,11,12);7H,4-5H2,1-3H3/q;+1/p-1",
        "InChIKey": null,
        "Canonical SMILES": "O=C([O-])CC(O)(C(=O)O)CC(=O)O.OCC[N+](C)(C)C",
        "Molecular Formula": "C<sub>6</sub>H<sub>7</sub>O<sub>7</sub>.C<sub>5</sub>H<sub>14</sub>NO",
        "Molecular Mass": "",
        "Melting Point": "106 °C"
    }
}