{
    "cas_no": "150-60-7",
    "key_name": "Dibenzyl disulfide",
    "cn_name": "二苄基二硫;二苄基二硫醚;",
    "alternate_name": "Disulfide, bis(phenylmethyl);Benzyl disulfide;Bis(phenylmethyl) disulfide;Benzyl bisulfide;α-(Benzyldithio)toluene;Dibenzyl disulfide;Di(phenylmethyl)disulfide;1,4-Diphenyl-2,3-dithiabutane;BDS;Dibenzyl disulphide;Dailube S 700;S 700;NSC 677465;NSC 6841;T 322;1,2-Dibenzyldisulfane;(Benzyldisulfanyl)methylbenzene",
    "duplicated_cas_no": "325737-14-2",
    "SMILES": "C(SSCC1=CC=CC=C1)C2=CC=CC=C2",
    "meta_data": {
        "InChI": "InChI=1S/C14H14S2/c1-3-7-13(8-4-1)11-15-16-12-14-9-5-2-6-10-14/h1-10H,11-12H2",
        "InChIKey": null,
        "Canonical SMILES": "S(SCC=1C=CC=CC1)CC=2C=CC=CC2",
        "Molecular Formula": "C<sub>14</sub>H<sub>14</sub>S<sub>2</sub>",
        "Molecular Mass": "246.39",
        "Boiling Point": "142-148 °C @ Press: 0.05-0.1 Torr",
        "Melting Point": "71.5 °C",
        "Density": "1.085 g/cm³ @ Temp: 100.2 °C"
    }
}