{
    "cas_no": "13431-41-9",
    "key_name": "4-Benzylthiosemicarbazide",
    "cn_name": "3-苄基-1-氨基硫脲;",
    "alternate_name": "Hydrazinecarbothioamide, <em>N</em>-(phenylmethyl)-;Semicarbazide, 4-benzyl-3-thio-;<em>N</em>-(Phenylmethyl)hydrazinecarbothioamide;B 1308;4-Benzylthiosemicarbazide;4-Benzyl-3-thiosemicarbazide;NSC 263514;4-Benzylhydrazinethiocarbamide;<em>N</em>-Benzylthiosemicarbazide;1-Amino-3-benzylthiourea;3-Amino-1-benzylthiourea",
    "duplicated_cas_no": "1258459-71-0",
    "SMILES": "C(NC(NN)=S)C1=CC=CC=C1",
    "meta_data": {
        "InChI": "InChI=1S/C8H11N3S/c9-11-8(12)10-6-7-4-2-1-3-5-7/h1-5H,6,9H2,(H2,10,11,12)",
        "InChIKey": null,
        "Canonical SMILES": "S=C(NN)NCC=1C=CC=CC1",
        "Molecular Formula": "C<sub>8</sub>H<sub>11</sub>N<sub>3</sub>S",
        "Molecular Mass": "181.26",
        "Melting Point": "130 °C"
    }
}