{
    "cas_no": "2012-81-9",
    "key_name": "4-Chloro-α-(1-methylethyl)benzeneacetonitrile",
    "cn_name": "2-对氯苯基-3-甲基丁腈;",
    "alternate_name": "Benzeneacetonitrile, 4-chloro-α-(1-methylethyl)-;Butyronitrile, 2-(<em>p</em>-chlorophenyl)-3-methyl-;4-Chloro-α-(1-methylethyl)benzeneacetonitrile;2-(<em>p</em>-Chlorophenyl)-3-methylbutyronitrile;4-Chloro-α-isopropylbenzyl cyanide;2-(4-Chlorophenyl)-3-methylbutyronitrile;3-Methyl-2-(4′-chlorophenyl)-butyronitrile;2-(4-Chlorophenyl)-3-methylbutanenitrile;3-Methyl-2-(4-chlorophenyl)butyronitrile",
    "duplicated_cas_no": "81951-76-0",
    "SMILES": "C(C(C)C)(C#N)C1=CC=C(Cl)C=C1",
    "meta_data": {
        "InChI": "InChI=1S/C11H12ClN/c1-8(2)11(7-13)9-3-5-10(12)6-4-9/h3-6,8,11H,1-2H3",
        "InChIKey": null,
        "Canonical SMILES": "N#CC(C1=CC=C(Cl)C=C1)C(C)C",
        "Molecular Formula": "C<sub>11</sub>H<sub>12</sub>ClN",
        "Molecular Mass": "193.67",
        "Boiling Point": "109 °C @ Press: 0.8 Torr"
    }
}