{
    "cas_no": "480-63-7",
    "key_name": "2,4,6-Trimethylbenzoic acid",
    "cn_name": "2,4,6-三甲基苯甲酸;",
    "alternate_name": "Benzoic acid, 2,4,6-trimethyl-;2,4,6-Trimethylbenzoic acid;β-Isodurylic acid;Mesitoic acid;Mesitylenecarboxylic acid;NSC 1119;NSC 203160;NSC 407983",
    "duplicated_cas_no": "",
    "SMILES": "C(O)(=O)C1=C(C)C=C(C)C=C1C",
    "meta_data": {
        "InChI": "InChI=1S/C10H12O2/c1-6-4-7(2)9(10(11)12)8(3)5-6/h4-5H,1-3H3,(H,11,12)",
        "InChIKey": null,
        "Canonical SMILES": "O=C(O)C=1C(=CC(=CC1C)C)C",
        "Molecular Formula": "C<sub>10</sub>H<sub>12</sub>O<sub>2</sub>",
        "Molecular Mass": "164.20",
        "Melting Point": "154 °C",
        "Density": "1.16 g/cm³"
    }
}