{
    "cas_no": "4224-69-5",
    "key_name": "Methyl 2-(bromomethyl)-2-propenoate",
    "cn_name": "2-(溴甲基)丙烯酸甲酯;",
    "alternate_name": "2-Propenoic acid, 2-(bromomethyl)-, methyl ester;Acrylic acid, 2-(bromomethyl)-, methyl ester;Methyl 2-(bromomethyl)-2-propenoate;Methyl α-(bromomethyl)acrylate;Methyl 2-(bromomethyl)acrylate;Methyl 2-(bromomethyl)propenoate;2-(Bromomethyl)acrylic acid methyl ester;Methyl 3-bromo-2-methylenepropanoate;3-Bromo-2-(methylene)-1-oxo-1-methoxypropane;3-Bromo-2-methylenepropionic acid methyl ester",
    "duplicated_cas_no": "",
    "SMILES": "C(C(OC)=O)(CBr)=C",
    "meta_data": {
        "InChI": "InChI=1S/C5H7BrO2/c1-4(3-6)5(7)8-2/h1,3H2,2H3",
        "InChIKey": null,
        "Canonical SMILES": "O=C(OC)C(=C)CBr",
        "Molecular Formula": "C<sub>5</sub>H<sub>7</sub>BrO<sub>2</sub>",
        "Molecular Mass": "179.01",
        "Boiling Point": "65 °C @ Press: 16 Torr"
    }
}