{
    "cas_no": "505-32-8",
    "key_name": "Isophytol",
    "cn_name": "异植物醇;3,7,11,15-四甲基-1-十六碳烯-3-醇;",
    "alternate_name": "1-Hexadecen-3-ol, 3,7,11,15-tetramethyl-;3,7,11,15-Tetramethyl-1-hexadecen-3-ol;Isophytol;NSC 93744;Isovegetable alcohol",
    "duplicated_cas_no": "",
    "SMILES": "C(CC(C=C)(C)O)CC(CCCC(CCCC(C)C)C)C",
    "meta_data": {
        "InChI": "InChI=1S/C20H40O/c1-7-20(6,21)16-10-15-19(5)14-9-13-18(4)12-8-11-17(2)3/h7,17-19,21H,1,8-16H2,2-6H3",
        "InChIKey": null,
        "Canonical SMILES": "OC(C=C)(C)CCCC(C)CCCC(C)CCCC(C)C",
        "Molecular Formula": "C<sub>20</sub>H<sub>40</sub>O",
        "Molecular Mass": "296.53",
        "Boiling Point": "107-110 °C @ Press: 0.01 Torr",
        "Melting Point": "&lt;25 °C",
        "Density": "0.8519 g/cm³ @ Temp: 20 °C"
    }
}