{
    "cas_no": "86541-78-8",
    "key_name": "Benazeprilat",
    "cn_name": null,
    "alternate_name": "1<em>H</em>-1-Benzazepine-1-acetic acid, 3-[[(1<em>S</em>)-1-carboxy-3-phenylpropyl]amino]-2,3,4,5-tetrahydro-2-oxo-, (3<em>S</em>)-;1<em>H</em>-1-Benzazepine-1-acetic acid, 3-[(1-carboxy-3-phenylpropyl)amino]-2,3,4,5-tetrahydro-2-oxo-, [<em>S</em>-(<em>R</em>*,<em>R</em>*)]-;(3<em>S</em>)-3-[[(1<em>S</em>)-1-Carboxy-3-phenylpropyl]amino]-2,3,4,5-tetrahydro-2-oxo-1<em>H</em>-1-benzazepine-1-acetic acid;CGS 14831;Benazeprilat;Benazeprilate",
    "duplicated_cas_no": "107397-09-1;89747-91-1",
    "SMILES": "C(C(O)=O)N1C=2C(CC[C@H](N[C@@H](CCC3=CC=CC=C3)C(O)=O)C1=O)=CC=CC2",
    "meta_data": {
        "InChI": "InChI=1S/C22H24N2O5/c25-20(26)14-24-19-9-5-4-8-16(19)11-13-17(21(24)27)23-18(22(28)29)12-10-15-6-2-1-3-7-15/h1-9,17-18,23H,10-14H2,(H,25,26)(H,28,29)/t17-,18-/m0/s1",
        "InChIKey": null,
        "Canonical SMILES": "O=C(O)CN1C(=O)C(NC(C(=O)O)CCC=2C=CC=CC2)CCC=3C=CC=CC31",
        "Molecular Formula": "C<sub>22</sub>H<sub>24</sub>N<sub>2</sub>O<sub>5</sub>",
        "Molecular Mass": "396.44",
        "Melting Point": "270-272 °C"
    }
}