{
    "cas_no": "375-03-1",
    "key_name": "Methyl perfluoropropyl ether",
    "cn_name": "1,1,1,2,2,3,3-七氟代-3-甲氧基丙烷;",
    "alternate_name": "Propane, 1,1,1,2,2,3,3-heptafluoro-3-methoxy-;Ether, heptafluoropropyl methyl;1,1,1,2,2,3,3-Heptafluoro-3-methoxypropane;HFE 347;Perfluoropropyl methyl ether;Methyl perfluoropropyl ether;1-Methoxyperfluoropropane;Heptafluoropropyl methyl ether;1-Methoxy-1,1,2,2,3,3,3-heptafluoropropane;E 347;1,1,2,2,3,3,3-Heptafluoro-1-methoxypropane;HFE 301;HFE 7000;R-E 347mcc1;HFE 347mcc;Methyl heptafluoropropyl ether;Novec HFE 7000;1-Methoxyheptafluoropropane;Novec 7000;HFE 347MCC1;RE 347mcc",
    "duplicated_cas_no": "214051-29-3;1610350-01-0",
    "SMILES": "C(C(OC)(F)F)(C(F)(F)F)(F)F",
    "meta_data": {
        "InChI": "InChI=1S/C4H3F7O/c1-12-4(10,11)2(5,6)3(7,8)9/h1H3",
        "InChIKey": null,
        "Canonical SMILES": "FC(F)(F)C(F)(F)C(F)(F)OC",
        "Molecular Formula": "C<sub>4</sub>H<sub>3</sub>F<sub>7</sub>O",
        "Molecular Mass": "200.05",
        "Boiling Point": "33-35 °C",
        "Density": "1.386 g/cm³ (liquid) @ Press: 751 Torr"
    }
}