{
    "cas_no": "7669-54-7",
    "key_name": "2-Nitrobenzenesulfenyl chloride",
    "cn_name": "2-硝基苯硫氯;邻硝基苯硫氯;",
    "alternate_name": "Benzenesulfenyl chloride, 2-nitro-;Benzenesulfenyl chloride, <em>o</em>-nitro-;2-Nitrobenzenesulfenyl chloride;2-Nitrophenylsulfenyl chloride;<em>o</em>-Nitrophenylsulfenyl chloride;<em>o</em>-Nitrobenzenesulfenyl chloride;<em>o</em>-Nitrobenzenesulphenyl chloride;2-Nitrophenylsulphenyl chloride;2-Nitrobenzenesulfenic acid chloride;NSC 16179;1-(Chlorosulfanyl)-2-nitrobenzene;(2-Nitrophenyl) thiohypochlorite",
    "duplicated_cas_no": "",
    "SMILES": "S(Cl)C1=C(N(=O)=O)C=CC=C1",
    "meta_data": {
        "InChI": "InChI=1S/C6H4ClNO2S/c7-11-6-4-2-1-3-5(6)8(9)10/h1-4H",
        "InChIKey": null,
        "Canonical SMILES": "O=N(=O)C=1C=CC=CC1SCl",
        "Molecular Formula": "C<sub>6</sub>H<sub>4</sub>ClNO<sub>2</sub>S",
        "Molecular Mass": "189.62",
        "Melting Point": "75 °C"
    }
}