{
    "cas_no": "933-75-5",
    "key_name": "2,3,6-Trichlorophenol",
    "cn_name": "2,3,6-三氯苯酚;2,3,6-三氯酚;",
    "alternate_name": "Phenol, 2,3,6-trichloro-;2,3,6-Trichlorophenol",
    "duplicated_cas_no": "",
    "SMILES": "ClC1=C(O)C(Cl)=CC=C1Cl",
    "meta_data": {
        "InChI": "InChI=1S/C6H3Cl3O/c7-3-1-2-4(8)6(10)5(3)9/h1-2,10H",
        "InChIKey": null,
        "Canonical SMILES": "ClC1=CC=C(Cl)C(O)=C1Cl",
        "Molecular Formula": "C<sub>6</sub>H<sub>3</sub>Cl<sub>3</sub>O",
        "Molecular Mass": "197.45",
        "Boiling Point": "272 °C",
        "Melting Point": "58 °C",
        "Density": "1.5 g/cm³"
    }
}