{
    "cas_no": "25115-74-6",
    "key_name": "4-Oxo-1-phenylcyclohexanecarbonitrile",
    "cn_name": "4-氰-4-苯基环己酮;",
    "alternate_name": "Cyclohexanecarbonitrile, 4-oxo-1-phenyl-;4-Oxo-1-phenylcyclohexanecarbonitrile;4-Cyano-4-phenylcyclohexanone;4-Phenyl-4-cyanocyclohexanone;4-Phenyl-4-cyanocyclohexan-1-one;4-Oxo-1-phenylcyclohexane-1-carbonitrile",
    "duplicated_cas_no": "",
    "SMILES": "C(#N)C1(CCC(=O)CC1)C2=CC=CC=C2",
    "meta_data": {
        "InChI": "InChI=1S/C13H13NO/c14-10-13(8-6-12(15)7-9-13)11-4-2-1-3-5-11/h1-5H,6-9H2",
        "InChIKey": null,
        "Canonical SMILES": "N#CC1(C=2C=CC=CC2)CCC(=O)CC1",
        "Molecular Formula": "C<sub>13</sub>H<sub>13</sub>NO",
        "Molecular Mass": "199.25",
        "Boiling Point": "148-150 °C @ Press: 0.4 Torr",
        "Melting Point": "114-115 °C"
    }
}