{
    "cas_no": "605-48-1",
    "key_name": "9,10-Dichloroanthracene",
    "cn_name": "9,10-二氯蒽;",
    "alternate_name": "Anthracene, 9,10-dichloro-;9,10-Dichloroanthracene;NSC 42963",
    "duplicated_cas_no": "",
    "SMILES": "ClC=1C2=C(C(Cl)=C3C1C=CC=C3)C=CC=C2",
    "meta_data": {
        "InChI": "InChI=1S/C14H8Cl2/c15-13-9-5-1-2-6-10(9)14(16)12-8-4-3-7-11(12)13/h1-8H",
        "InChIKey": null,
        "Canonical SMILES": "ClC=1C=2C=CC=CC2C(Cl)=C3C=CC=CC13",
        "Molecular Formula": "C<sub>14</sub>H<sub>8</sub>Cl<sub>2</sub>",
        "Molecular Mass": "247.12",
        "Melting Point": "208-209 °C"
    }
}