{
    "cas_no": "78238-14-9",
    "key_name": "3-Hydroxy-5-nitrobenzoic acid",
    "cn_name": "3-羟基-5-硝基苯甲酸;",
    "alternate_name": "Benzoic acid, 3-hydroxy-5-nitro-;3-Hydroxy-5-nitrobenzoic acid;5-Hydroxy-3-nitrobenzoic acid;3-Nitro-5-hydroxybenzoic acid",
    "duplicated_cas_no": "",
    "SMILES": "C(O)(=O)C1=CC(N(=O)=O)=CC(O)=C1",
    "meta_data": {
        "InChI": "InChI=1S/C7H5NO5/c9-6-2-4(7(10)11)1-5(3-6)8(12)13/h1-3,9H,(H,10,11)",
        "InChIKey": null,
        "Canonical SMILES": "O=C(O)C1=CC(O)=CC(=C1)N(=O)=O",
        "Molecular Formula": "C<sub>7</sub>H<sub>5</sub>NO<sub>5</sub>",
        "Molecular Mass": "183.12",
        "Melting Point": "194-195 °C"
    }
}