{
    "cas_no": "593-79-3",
    "key_name": "Dimethyl selenide",
    "cn_name": "二甲基硒;",
    "alternate_name": "Methane, selenobis-;Methyl selenide;Selenobismethane;Methyl selenium;Dimethyl selenide;Dimethylselenium;(Methylselanyl)methane",
    "duplicated_cas_no": "",
    "SMILES": "[Se](C)C",
    "meta_data": {
        "InChI": "InChI=1S/C2H6Se/c1-3-2/h1-2H3",
        "InChIKey": null,
        "Canonical SMILES": "[Se](C)C",
        "Molecular Formula": "C<sub>2</sub>H<sub>6</sub>Se",
        "Molecular Mass": "109.03",
        "Boiling Point": "55 °C",
        "Melting Point": "-87.2 °C",
        "Density": "1.4077 g/cm³ @ Temp: 14.6 °C"
    }
}