{
    "cas_no": "16652-64-5",
    "key_name": "<em>O</em>-Benzyl-<span class=\"text-smallcaps\">L</span>-tyrosine",
    "cn_name": "O-苄基-L-酪氨酸;",
    "alternate_name": "<span class=\"text-smallcaps\">L</span>-Tyrosine, <em>O</em>-(phenylmethyl)-;Alanine, 3-[<em>p</em>-(benzyloxy)phenyl]-, <span class=\"text-smallcaps\">L</span>-;<em>O</em>-(Phenylmethyl)-<span class=\"text-smallcaps\">L</span>-tyrosine;<em>O</em>-Benzyltyrosine;<em>O</em>-Benzyl-<span class=\"text-smallcaps\">L</span>-tyrosine;Tyrosine benzyl ether;NSC 163630;(<em>S</em>)-2-Amino-3-[4-(benzyloxy)phenyl]propanoic acid;(2S)-2-Amino-3-[4-(benzyloxy)phenyl]propanoic acid;(2S)-2-Amino-3-(4-phenylmethoxyphenyl)propanoic acid",
    "duplicated_cas_no": "1681057-92-0;1881273-61-5",
    "SMILES": "O(CC1=CC=CC=C1)C2=CC=C(C[C@@H](C(O)=O)N)C=C2",
    "meta_data": {
        "InChI": "InChI=1S/C16H17NO3/c17-15(16(18)19)10-12-6-8-14(9-7-12)20-11-13-4-2-1-3-5-13/h1-9,15H,10-11,17H2,(H,18,19)/t15-/m0/s1",
        "InChIKey": null,
        "Canonical SMILES": "O=C(O)C(N)CC1=CC=C(OCC=2C=CC=CC2)C=C1",
        "Molecular Formula": "C<sub>16</sub>H<sub>17</sub>NO<sub>3</sub>",
        "Molecular Mass": "271.31",
        "Melting Point": "223 °C"
    }
}