{
    "cas_no": "403-20-3",
    "key_name": "3-Fluoro-4-methoxybenzoic acid",
    "cn_name": "3-氟-4-甲氧基苯甲酸;",
    "alternate_name": "Benzoic acid, 3-fluoro-4-methoxy-;<em>p</em>-Anisic acid, 3-fluoro-;3-Fluoro-4-methoxybenzoic acid;4-Methoxy-3-fluorobenzoic acid",
    "duplicated_cas_no": "",
    "SMILES": "C(O)(=O)C1=CC(F)=C(OC)C=C1",
    "meta_data": {
        "InChI": "InChI=1S/C8H7FO3/c1-12-7-3-2-5(8(10)11)4-6(7)9/h2-4H,1H3,(H,10,11)",
        "InChIKey": null,
        "Canonical SMILES": "O=C(O)C1=CC=C(OC)C(F)=C1",
        "Molecular Formula": "C<sub>8</sub>H<sub>7</sub>FO<sub>3</sub>",
        "Molecular Mass": "170.14",
        "Melting Point": "208-210 °C"
    }
}