{
    "cas_no": "85-32-5",
    "key_name": "Guanosine monophosphate",
    "cn_name": "鸟苷酸;鸟苷-5\"-磷酸;单磷酸鸟苷;鸟嘌呤核苷酸;",
    "alternate_name": "5′-Guanylic acid;GMP;Guanosine 5′-(dihydrogen phosphate);Guanylic acid;5′-GMP;Guanosine monophosphate;Guanosine 5′-phosphate;Guanidine monophosphate;Guanosine 5′-monophosphate;Guanosine 5′-phosphoric acid;E 626;Guanosine, mono(dihydrogen phosphate) (ester);MeSH ID: D006157",
    "duplicated_cas_no": "69-28-3;573-48-8;642-41-1",
    "SMILES": "O=C1C2=C(N(C=N2)[C@@H]3O[C@H](COP(=O)(O)O)[C@@H](O)[C@H]3O)NC(N)=N1",
    "meta_data": {
        "InChI": "InChI=1S/C10H14N5O8P/c11-10-13-7-4(8(18)14-10)12-2-15(7)9-6(17)5(16)3(23-9)1-22-24(19,20)21/h2-3,5-6,9,16-17H,1H2,(H2,19,20,21)(H3,11,13,14,18)/t3-,5-,6-,9-/m1/s1",
        "InChIKey": null,
        "Canonical SMILES": "O=C1N=C(N)NC2=C1N=CN2C3OC(COP(=O)(O)O)C(O)C3O",
        "Molecular Formula": "C<sub>10</sub>H<sub>14</sub>N<sub>5</sub>O<sub>8</sub>P",
        "Molecular Mass": "363.22",
        "Boiling Point": "64 °C @ Press: 0.05 Torr"
    }
}