{
    "cas_no": "23519-77-9",
    "key_name": "Zirconium <em>n</em>-propoxide",
    "cn_name": "正丙醇锆(IV);",
    "alternate_name": "1-Propanol, zirconium(4+) salt (4:1);Propyl alcohol, zirconium(4+) salt;1-Propanol, zirconium(4+) salt;Zirconium propoxide;Zirconium tetrapropoxide;Tetrapropoxyzirconium;Zirconium tetrapropylate;Tetrapropyl zirconate;Propyl zirconate;Zirconic acid propyl ester;Tetrapropyl zirconate (Zr(OC<sub>3</sub>H<sub>7</sub>)<sub>4</sub>);Zirconium <em>n</em>-propoxide;Zirconium(4+) propoxide;Zirconium(4+) propanolate;Zirconium(IV) <em>n</em>-propoxide;Tilcom NPZ;Orgatix ZA 40;Zirconium tetrakis(1-propoxide);Zirconium(IV) propoxide;Tetra-<em>n</em>-propyl zirconate;Tetra-<em>n</em>-propoxyzirconium;Vertec NPZ;Zirconium tetrapropanolate;Tyzor NPZ;Zirconium propoxide (Zr(OPr)<sub>4</sub>);Z 0017;Orgatix ZA 45;Zr 801;DN 801;ZA 45;1-Propyl zirconate;KBR 33;Hydrogen zirconium carbide hydroxide (H<sub>24</sub>ZrC<sub>12</sub>(OH)<sub>4</sub>)",
    "duplicated_cas_no": "104814-64-4;873376-07-9;2101976-74-1;2767341-08-0",
    "SMILES": "C(CO)C.[Zr]",
    "meta_data": {
        "InChI": "InChI=1S/C3H8O.Zr/c1-2-3-4;/h4H,2-3H2,1H3;",
        "InChIKey": null,
        "Canonical SMILES": "[Zr].OCCC",
        "Molecular Formula": "C<sub>3</sub>H<sub>8</sub>O.<sup>1</sup>/<sub>4</sub>Zr",
        "Molecular Mass": "",
        "Boiling Point": "208 °C @ Press: 0.1 Torr",
        "Density": "1.050 g/cm³"
    }
}