{
    "cas_no": "1539-06-6",
    "key_name": "4-(Acetylamino)-3-nitrobenzoic acid",
    "cn_name": null,
    "alternate_name": "Benzoic acid, 4-(acetylamino)-3-nitro-;Benzoic acid, 4-acetamido-3-nitro-;4-(Acetylamino)-3-nitrobenzoic acid;4-Acetamido-3-nitrobenzoic acid;NSC 190738;3-Nitro-4-acetamidobenzoic acid",
    "duplicated_cas_no": "",
    "SMILES": "N(=O)(=O)C1=C(NC(C)=O)C=CC(C(O)=O)=C1",
    "meta_data": {
        "InChI": "InChI=1S/C9H8N2O5/c1-5(12)10-7-3-2-6(9(13)14)4-8(7)11(15)16/h2-4H,1H3,(H,10,12)(H,13,14)",
        "InChIKey": null,
        "Canonical SMILES": "O=C(O)C1=CC=C(NC(=O)C)C(=C1)N(=O)=O",
        "Molecular Formula": "C<sub>9</sub>H<sub>8</sub>N<sub>2</sub>O<sub>5</sub>",
        "Molecular Mass": "224.17",
        "Melting Point": "219 °C"
    }
}