{
    "cas_no": "1835-14-9",
    "key_name": "Propiovanillone",
    "cn_name": "3-甲氧基-4-羟基苯丙酮;",
    "alternate_name": "1-Propanone, 1-(4-hydroxy-3-methoxyphenyl)-;Propiophenone, 4′-hydroxy-3′-methoxy-;1-(4-Hydroxy-3-methoxyphenyl)-1-propanone;Propioguaiacone;Propiovanillone;Guaiacyl-1-propanone;Ethyl guaiacyl ketone;Propioguaiacol;4′-Hydroxy-3′-methoxypropiophenone;α-Guaiacyl ethyl ketone;α-Guaiacylpropanone;1-(3-Methoxy-4-hydroxyphenyl)-1-propanone;1-Propiovanillone;1-(4-Hydroxy-3-methoxyphenyl)propan-1-one;NSC 16691;1-(4-Hydroxy-3-methoxyphenyl)propanone;1-Hydroxy-2-methoxy-4-propionylbenzene;1-(4′-Hydroxy-3′-methoxyphenyl)propan-1-one;4-Hydroxy-3-methoxyphenylpropanone",
    "duplicated_cas_no": "",
    "SMILES": "C(CC)(=O)C1=CC(OC)=C(O)C=C1",
    "meta_data": {
        "InChI": "InChI=1S/C10H12O3/c1-3-8(11)7-4-5-9(12)10(6-7)13-2/h4-6,12H,3H2,1-2H3",
        "InChIKey": null,
        "Canonical SMILES": "O=C(C1=CC=C(O)C(OC)=C1)CC",
        "Molecular Formula": "C<sub>10</sub>H<sub>12</sub>O<sub>3</sub>",
        "Molecular Mass": "180.20",
        "Boiling Point": "180-185 °C @ Press: 15 Torr",
        "Melting Point": "61-62 °C"
    }
}