{
    "cas_no": "619-82-9",
    "key_name": "<em>trans</em>-1,4-Cyclohexanedicarboxylic acid",
    "cn_name": null,
    "alternate_name": "1,4-Cyclohexanedicarboxylic acid, <em>trans</em>-;<em>trans</em>-1,4-Cyclohexanedicarboxylic acid;<em>trans</em>-Hexahydroterephthalic acid;<em>trans</em>-1,4-Cyclohexyldicarboxylic acid;<em>trans</em>-4-Carboxycyclohexanecarboxylic acid;<em>trans</em>-1,4-Cyclohexane-1,4-dicarboxylic acid",
    "duplicated_cas_no": "",
    "SMILES": "C(O)(=O)[C@H]1CC[C@H](C(O)=O)CC1",
    "meta_data": {
        "InChI": "InChI=1/C8H12O4/c9-7(10)5-1-2-6(4-3-5)8(11)12/h5-6H,1-4H2,(H,9,10)(H,11,12)/t5-,6-",
        "InChIKey": null,
        "Canonical SMILES": "O=C(O)C1CCC(C(=O)O)CC1",
        "Molecular Formula": "C<sub>8</sub>H<sub>12</sub>O<sub>4</sub>",
        "Molecular Mass": "172.18",
        "Melting Point": "312.5 °C"
    }
}