{
    "cas_no": "65182-98-1",
    "key_name": "<em>N</em>-(2,4-Dichloro-5-methoxyphenyl)acetamide",
    "cn_name": null,
    "alternate_name": "Acetamide, <em>N</em>-(2,4-dichloro-5-methoxyphenyl)-;<em>m</em>-Acetanisidide, 4′,6′-dichloro-;<em>N</em>-(2,4-Dichloro-5-methoxyphenyl)acetamide",
    "duplicated_cas_no": "",
    "SMILES": "N(C(C)=O)C1=CC(OC)=C(Cl)C=C1Cl",
    "meta_data": {
        "InChI": "InChI=1S/C9H9Cl2NO2/c1-5(13)12-8-4-9(14-2)7(11)3-6(8)10/h3-4H,1-2H3,(H,12,13)",
        "InChIKey": null,
        "Canonical SMILES": "O=C(NC1=CC(OC)=C(Cl)C=C1Cl)C",
        "Molecular Formula": "C<sub>9</sub>H<sub>9</sub>Cl<sub>2</sub>NO<sub>2</sub>",
        "Molecular Mass": "234.08",
        "Melting Point": "154 °C"
    }
}