{
    "cas_no": "446-08-2",
    "key_name": "2-Amino-5-fluorobenzoic acid",
    "cn_name": "2-氨基-5-氟苯甲酸;",
    "alternate_name": "Benzoic acid, 2-amino-5-fluoro-;Anthranilic acid, 5-fluoro-;2-Amino-5-fluorobenzoic acid;5-Fluoroanthranilic acid;5-Fluoro-2-aminobenzoic acid;NSC 513308;2-Amino-5-(fluoromethyl)benzoic acid",
    "duplicated_cas_no": "675575-38-9;1891087-22-1",
    "SMILES": "C(O)(=O)C1=C(N)C=CC(F)=C1",
    "meta_data": {
        "InChI": "InChI=1S/C7H6FNO2/c8-4-1-2-6(9)5(3-4)7(10)11/h1-3H,9H2,(H,10,11)",
        "InChIKey": null,
        "Canonical SMILES": "O=C(O)C1=CC(F)=CC=C1N",
        "Molecular Formula": "C<sub>7</sub>H<sub>6</sub>FNO<sub>2</sub>",
        "Molecular Mass": "155.13",
        "Melting Point": "180 °C"
    }
}