{
    "cas_no": "1984-06-1",
    "key_name": "Sodium octanoate",
    "cn_name": "辛酸钠;",
    "alternate_name": "Octanoic acid, sodium salt (1:1);Octanoic acid, sodium salt;Sodium caprylate;Sodium octanoate;Caprylic acid sodium salt;Sodium <em>n</em>-octanoate;Sodium octoate",
    "duplicated_cas_no": "",
    "SMILES": "C(CCCCC)CC(O)=O.[Na]",
    "meta_data": {
        "InChI": "InChI=1S/C8H16O2.Na/c1-2-3-4-5-6-7-8(9)10;/h2-7H2,1H3,(H,9,10);",
        "InChIKey": null,
        "Canonical SMILES": "[Na].O=C(O)CCCCCCC",
        "Molecular Formula": "C<sub>8</sub>H<sub>16</sub>O<sub>2</sub>.Na",
        "Molecular Mass": "",
        "Melting Point": "243-245 °C"
    }
}