{
    "cas_no": "14660-52-7",
    "key_name": "Ethyl 5-bromovalerate",
    "cn_name": "5-溴戊酸乙酯;",
    "alternate_name": "Pentanoic acid, 5-bromo-, ethyl ester;Valeric acid, 5-bromo-, ethyl ester;Ethyl 5-bromovalerate;Ethyl 5-bromopentanoate;Ethyl δ-bromovalerate;5-Bromovaleric acid ethyl ester;5-Bromopentanoate ethyl ester;NSC 310169;5-Bromopentanoic acid ethyl ester",
    "duplicated_cas_no": "",
    "SMILES": "C(C(OCC)=O)CCCBr",
    "meta_data": {
        "InChI": "InChI=1S/C7H13BrO2/c1-2-10-7(9)5-3-4-6-8/h2-6H2,1H3",
        "InChIKey": null,
        "Canonical SMILES": "O=C(OCC)CCCCBr",
        "Molecular Formula": "C<sub>7</sub>H<sub>13</sub>BrO<sub>2</sub>",
        "Molecular Mass": "209.08",
        "Boiling Point": "102-103 °C @ Press: 12 Torr",
        "Density": "1.2967 g/cm³ @ Temp: 20 °C"
    }
}