{
    "cas_no": "16466-97-0",
    "key_name": "Magnesium, bromo-1-propynyl-",
    "cn_name": "1-炔丙基溴化镁;1-炔丙溴化镁溶液;CH3C≡CMgBr;",
    "alternate_name": "Magnesium, bromo-1-propynyl-;1-Propynylmagnesium bromide;Bromo-1-propynylmagnesium;1-Propyn-1-ylmagnesium bromide;Bromo(prop-1-yn-1-yl)magnesium",
    "duplicated_cas_no": "",
    "SMILES": "C(#CC)[Mg]Br",
    "meta_data": {
        "InChI": "InChI=1S/C3H3.BrH.Mg/c1-3-2;;/h1H3;1H;/q;;+1/p-1",
        "InChIKey": null,
        "Canonical SMILES": "Br[Mg]C#CC",
        "Molecular Formula": "C<sub>3</sub>H<sub>3</sub>BrMg",
        "Molecular Mass": "",
        "Melting Point": "53.5 °C"
    }
}