{
    "cas_no": "772-03-2",
    "key_name": "2-Ethenylquinoline",
    "cn_name": "2-乙烯基喹啉;2-乙烯基喹啉;",
    "alternate_name": "Quinoline, 2-ethenyl-;Quinoline, 2-vinyl-;2-Ethenylquinoline;2-Vinylquinoline;NSC 99356",
    "duplicated_cas_no": "",
    "SMILES": "C(=C)C1=NC2=C(C=C1)C=CC=C2",
    "meta_data": {
        "InChI": "InChI=1S/C11H9N/c1-2-10-8-7-9-5-3-4-6-11(9)12-10/h2-8H,1H2",
        "InChIKey": null,
        "Canonical SMILES": "N=1C(C=C)=CC=C2C=CC=CC12",
        "Molecular Formula": "C<sub>11</sub>H<sub>9</sub>N",
        "Molecular Mass": "155.20",
        "Boiling Point": "120-125 °C @ Press: 7 Torr",
        "Melting Point": "284-285 °C",
        "Density": "1.0692 g/cm³ @ Temp: 25 °C"
    }
}