{
    "cas_no": "2810-04-0",
    "key_name": "Ethyl 2-thiophenecarboxylate",
    "cn_name": "2-噻吩羧酸乙酯;",
    "alternate_name": "2-Thiophenecarboxylic acid, ethyl ester;Ethyl 2-thiophenecarboxylate;Ethyl 2-thenoate;2-(Ethoxycarbonyl)thiophene;2-Thienylcarboxylic acid ethyl ester;NSC 39455;Ethyl thiophen-2-carboxylate",
    "duplicated_cas_no": "",
    "SMILES": "C(OCC)(=O)C1=CC=CS1",
    "meta_data": {
        "InChI": "InChI=1S/C7H8O2S/c1-2-9-7(8)6-4-3-5-10-6/h3-5H,2H2,1H3",
        "InChIKey": null,
        "Canonical SMILES": "O=C(OCC)C=1SC=CC1",
        "Molecular Formula": "C<sub>7</sub>H<sub>8</sub>O<sub>2</sub>S",
        "Molecular Mass": "156.20",
        "Boiling Point": "218 °C",
        "Density": "1.162 g/cm³"
    }
}