{
    "cas_no": "87686-86-0",
    "key_name": "2-Methyl-1,3,6-trihydroxy-9,10-anthraquinone",
    "cn_name": null,
    "alternate_name": "9,10-Anthracenedione, 1,3,6-trihydroxy-2-methyl-;1,3,6-Trihydroxy-2-methyl-9,10-anthracenedione;2-Methyl-1,3,6-trihydroxy-9,10-anthraquinone;6-Hydroxyrubiadin;1,3,6-Trihydroxy-2-methylanthraquinone;2-Methyl-1,3,6-trihydroxyanthraquinone",
    "duplicated_cas_no": "",
    "SMILES": "O=C1C=2C(C(=O)C=3C1=CC=C(O)C3)=CC(O)=C(C)C2O",
    "meta_data": {
        "InChI": "InChI=1S/C15H10O5/c1-6-11(17)5-10-12(13(6)18)15(20)8-3-2-7(16)4-9(8)14(10)19/h2-5,16-18H,1H3",
        "InChIKey": null,
        "Canonical SMILES": "O=C1C2=CC(O)=CC=C2C(=O)C3=C(O)C(=C(O)C=C13)C",
        "Molecular Formula": "C<sub>15</sub>H<sub>10</sub>O<sub>5</sub>",
        "Molecular Mass": "270.24",
        "Melting Point": "238-240 °C"
    }
}