{
    "cas_no": "486-25-9",
    "key_name": "Fluorenone",
    "cn_name": "9-芴酮;",
    "alternate_name": "9<em>H</em>-Fluoren-9-one;Fluoren-9-one;Fluorenone;NSC 5181;9<em>H</em>-Fluorene-9-one",
    "duplicated_cas_no": "",
    "SMILES": "O=C1C=2C(C=3C1=CC=CC3)=CC=CC2",
    "meta_data": {
        "InChI": "InChI=1S/C13H8O/c14-13-11-7-3-1-5-9(11)10-6-2-4-8-12(10)13/h1-8H",
        "InChIKey": null,
        "Canonical SMILES": "O=C1C=2C=CC=CC2C=3C=CC=CC13",
        "Molecular Formula": "C<sub>13</sub>H<sub>8</sub>O",
        "Molecular Mass": "180.20",
        "Boiling Point": "341.5 °C @ Press: 760 Torr",
        "Melting Point": "84 °C",
        "Density": "1.1300 g/cm³ @ Temp: 99 °C"
    }
}