{
    "cas_no": "563-78-0",
    "key_name": "2,3-Dimethyl-1-butene",
    "cn_name": "2,3-二甲基-1-丁烯;",
    "alternate_name": "1-Butene, 2,3-dimethyl-;2,3-Dimethyl-1-butene;2-Isopropylpropene;1-Isopropyl-1-methylethylene;NSC 73906;2,3-Dimethyl-1-butylene",
    "duplicated_cas_no": "",
    "SMILES": "C(C(C)=C)(C)C",
    "meta_data": {
        "InChI": "InChI=1S/C6H12/c1-5(2)6(3)4/h6H,1H2,2-4H3",
        "InChIKey": null,
        "Canonical SMILES": "C=C(C)C(C)C",
        "Molecular Formula": "C<sub>6</sub>H<sub>12</sub>",
        "Molecular Mass": "84.16",
        "Boiling Point": "55.6 °C",
        "Melting Point": "-157.3 °C",
        "Density": "0.6695 g/cm³ @ Temp: 20 °C"
    }
}