{
    "cas_no": "6940-58-5",
    "key_name": "1,3,5-Pentanetricarboxylic acid",
    "cn_name": "1,3,5-戊三羧酸;1,3,5-戊三羧酸;",
    "alternate_name": "1,3,5-Pentanetricarboxylic acid;Octric acid;1,3,5-Tricarboxypentane;4-Carboxypimelic acid;Pentric acid;4-Carboxyheptanedioic acid;NSC 60156;1,3,5-Pentanecarboxylic acid",
    "duplicated_cas_no": "",
    "SMILES": "C(CCC(O)=O)(CCC(O)=O)C(O)=O",
    "meta_data": {
        "InChI": "InChI=1S/C8H12O6/c9-6(10)3-1-5(8(13)14)2-4-7(11)12/h5H,1-4H2,(H,9,10)(H,11,12)(H,13,14)",
        "InChIKey": null,
        "Canonical SMILES": "O=C(O)CCC(C(=O)O)CCC(=O)O",
        "Molecular Formula": "C<sub>8</sub>H<sub>12</sub>O<sub>6</sub>",
        "Molecular Mass": "204.18",
        "Melting Point": "111-115 °C"
    }
}