{
    "cas_no": "110-00-9",
    "key_name": "Furan",
    "cn_name": "呋喃;",
    "alternate_name": "Furan;Divinylene oxide;Oxole;Tetrole;Furfuran;Oxacyclopentadiene;1,4-Epoxybuta-1,3-diene",
    "duplicated_cas_no": "",
    "SMILES": "C=1C=COC1",
    "meta_data": {
        "InChI": "InChI=1S/C4H4O/c1-2-4-5-3-1/h1-4H",
        "InChIKey": null,
        "Canonical SMILES": "O1C=CC=C1",
        "Molecular Formula": "C<sub>4</sub>H<sub>4</sub>O",
        "Molecular Mass": "68.07",
        "Boiling Point": "31.36 °C @ Press: 760 Torr",
        "Melting Point": "-85.6 °C",
        "Density": "0.9371 g/cm³ @ Temp: 19.4 °C"
    }
}