{
    "cas_no": "95-52-3",
    "key_name": "2-Fluorotoluene",
    "cn_name": "2-氟甲苯;邻氟甲苯;",
    "alternate_name": "Benzene, 1-fluoro-2-methyl-;Toluene, <em>o</em>-fluoro-;1-Fluoro-2-methylbenzene;<em>o</em>-Fluorotoluene;2-Fluorotoluene;NSC 8859",
    "duplicated_cas_no": "",
    "SMILES": "CC1=C(F)C=CC=C1",
    "meta_data": {
        "InChI": "InChI=1S/C7H7F/c1-6-4-2-3-5-7(6)8/h2-5H,1H3",
        "InChIKey": null,
        "Canonical SMILES": "FC=1C=CC=CC1C",
        "Molecular Formula": "C<sub>7</sub>H<sub>7</sub>F",
        "Molecular Mass": "110.13",
        "Boiling Point": "115 °C",
        "Melting Point": "-62 °C",
        "Density": "1.0041 g/cm³ @ Temp: 13.2 °C"
    }
}