{
    "cas_no": "1207-69-8",
    "key_name": "9-Chloroacridine",
    "cn_name": "9-氯吖啶;",
    "alternate_name": "Acridine, 9-chloro-;9-Chloroacridine;NSC 51950",
    "duplicated_cas_no": "",
    "SMILES": "ClC=1C2=C(N=C3C1C=CC=C3)C=CC=C2",
    "meta_data": {
        "InChI": "InChI=1S/C13H8ClN/c14-13-9-5-1-3-7-11(9)15-12-8-4-2-6-10(12)13/h1-8H",
        "InChIKey": null,
        "Canonical SMILES": "ClC=1C=2C=CC=CC2N=C3C=CC=CC31",
        "Molecular Formula": "C<sub>13</sub>H<sub>8</sub>ClN",
        "Molecular Mass": "213.66",
        "Melting Point": "121 °C"
    }
}