{
    "cas_no": "99-92-3",
    "key_name": "<em>p</em>-Aminoacetophenone",
    "cn_name": "4-氨基苯乙酮;",
    "alternate_name": "Ethanone, 1-(4-aminophenyl)-;Acetophenone, 4′-amino-;Acetophenone, <em>p</em>-amino-;1-(4-Aminophenyl)ethanone;<em>p</em>-Aminoacetylbenzene;4-Acetylaniline;<em>p</em>-Acetylaniline;4′-Aminoacetophenone;1-Acetyl-4-aminobenzene;<em>p</em>-Aminophenyl methyl ketone;4-Aminophenyl methyl ketone;4-Acetylphenylamine;<em>p</em>-Aminoacetophenone;<em>p</em>-Acetylphenylamine;NSC 3242;T 3788;1-(4-Aminophenyl)ethan-1-one",
    "duplicated_cas_no": "",
    "SMILES": "C(C)(=O)C1=CC=C(N)C=C1",
    "meta_data": {
        "InChI": "InChI=1S/C8H9NO/c1-6(10)7-2-4-8(9)5-3-7/h2-5H,9H2,1H3",
        "InChIKey": null,
        "Canonical SMILES": "O=C(C1=CC=C(N)C=C1)C",
        "Molecular Formula": "C<sub>8</sub>H<sub>9</sub>NO",
        "Molecular Mass": "135.16",
        "Boiling Point": "293-295 °C",
        "Melting Point": "106 °C",
        "Density": "1.20 g/cm³"
    }
}