{
    "cas_no": "73231-34-2",
    "key_name": "Florfenicol",
    "cn_name": "氟洛芬;氟苯尼考;氟甲砜霉素;",
    "alternate_name": "Acetamide, 2,2-dichloro-<em>N</em>-[(1<em>S</em>,2<em>R</em>)-1-(fluoromethyl)-2-hydroxy-2-[4-(methylsulfonyl)phenyl]ethyl]-;Acetamide, 2,2-dichloro-<em>N</em>-[1-(fluoromethyl)-2-hydroxy-2-[4-(methylsulfonyl)phenyl]ethyl]-, [<em>R</em>-(<em>R</em>*,<em>S</em>*)]-;2,2-Dichloro-<em>N</em>-[(1<em>S</em>,2<em>R</em>)-1-(fluoromethyl)-2-hydroxy-2-[4-(methylsulfonyl)phenyl]ethyl]acetamide;Sch 25298;Florfenicol;(-)-Florfenicol;Nuflor;Aquafen;Aquaflor;Floron;Flonicol;Topazone;Florgane;Selectan",
    "duplicated_cas_no": "76639-94-6;81588-76-3;173008-78-1",
    "SMILES": "[C@@H]([C@H](NC(C(Cl)Cl)=O)CF)(O)C1=CC=C(S(C)(=O)=O)C=C1",
    "meta_data": {
        "InChI": "InChI=1S/C12H14Cl2FNO4S/c1-21(19,20)8-4-2-7(3-5-8)10(17)9(6-15)16-12(18)11(13)14/h2-5,9-11,17H,6H2,1H3,(H,16,18)/t9-,10-/m1/s1",
        "InChIKey": null,
        "Canonical SMILES": "O=C(NC(CF)C(O)C1=CC=C(C=C1)S(=O)(=O)C)C(Cl)Cl",
        "Molecular Formula": "C<sub>12</sub>H<sub>14</sub>Cl<sub>2</sub>FNO<sub>4</sub>S",
        "Molecular Mass": "358.21",
        "Melting Point": "153-154 °C"
    }
}