{
    "cas_no": "82211-24-3",
    "key_name": "Inabenfide",
    "cn_name": "抗倒胺;N-[4-氯-2-(羟基苄基)苯基]吡啶-4-甲酰胺;",
    "alternate_name": "4-Pyridinecarboxamide, <em>N</em>-[4-chloro-2-(hydroxyphenylmethyl)phenyl]-;<em>N</em>-[4-Chloro-2-(hydroxyphenylmethyl)phenyl]-4-pyridinecarboxamide;Inabenfide;Seritard;CGR 811",
    "duplicated_cas_no": "121036-55-3;127126-51-6",
    "SMILES": "C(O)(C1=C(NC(=O)C=2C=CN=CC2)C=CC(Cl)=C1)C3=CC=CC=C3",
    "meta_data": {
        "InChI": "InChI=1S/C19H15ClN2O2/c20-15-6-7-17(22-19(24)14-8-10-21-11-9-14)16(12-15)18(23)13-4-2-1-3-5-13/h1-12,18,23H,(H,22,24)",
        "InChIKey": null,
        "Canonical SMILES": "O=C(NC1=CC=C(Cl)C=C1C(O)C=2C=CC=CC2)C=3C=CN=CC3",
        "Molecular Formula": "C<sub>19</sub>H<sub>15</sub>ClN<sub>2</sub>O<sub>2</sub>",
        "Molecular Mass": "338.79",
        "Melting Point": "211 °C"
    }
}