{
    "cas_no": "13799-90-1",
    "key_name": "2,5-Dichloro-1,4-benzenedicarboxylic acid",
    "cn_name": "2,5-二氯对二苯甲酸;",
    "alternate_name": "1,4-Benzenedicarboxylic acid, 2,5-dichloro-;Terephthalic acid, 2,5-dichloro-;2,5-Dichloro-1,4-benzenedicarboxylic acid;2,5-Dichloroterephthalic acid;NSC 59392;2,5-Dichloro-4-carboxybenzoic acid",
    "duplicated_cas_no": "",
    "SMILES": "C(O)(=O)C1=C(Cl)C=C(C(O)=O)C(Cl)=C1",
    "meta_data": {
        "InChI": "InChI=1S/C8H4Cl2O4/c9-5-1-3(7(11)12)6(10)2-4(5)8(13)14/h1-2H,(H,11,12)(H,13,14)",
        "InChIKey": null,
        "Canonical SMILES": "O=C(O)C1=CC(Cl)=C(C=C1Cl)C(=O)O",
        "Molecular Formula": "C<sub>8</sub>H<sub>4</sub>Cl<sub>2</sub>O<sub>4</sub>",
        "Molecular Mass": "235.02",
        "Melting Point": "306 °C"
    }
}