{
    "cas_no": "1759-28-0",
    "key_name": "4-Methyl-5-vinylthiazole",
    "cn_name": null,
    "alternate_name": "Thiazole, 5-ethenyl-4-methyl-;Thiazole, 4-methyl-5-vinyl-;5-Ethenyl-4-methylthiazole;4-Methyl-5-vinylthiazole;5-Vinyl-4-methylthiazole;4-Methyl-5-ethenylthiazole",
    "duplicated_cas_no": "",
    "SMILES": "C(=C)C1=C(C)N=CS1",
    "meta_data": {
        "InChI": "InChI=1S/C6H7NS/c1-3-6-5(2)7-4-8-6/h3-4H,1H2,2H3",
        "InChIKey": null,
        "Canonical SMILES": "N1=CSC(C=C)=C1C",
        "Molecular Formula": "C<sub>6</sub>H<sub>7</sub>NS",
        "Molecular Mass": "125.19",
        "Boiling Point": "76-78 °C @ Press: 21 Torr",
        "Density": "1.090 g/cm³ @ Temp: 22 °C"
    }
}