{
    "cas_no": "626-20-0",
    "key_name": "1-Ethenyl-3-methoxybenzene",
    "cn_name": null,
    "alternate_name": "Benzene, 1-ethenyl-3-methoxy-;Anisole, <em>m</em>-vinyl-;1-Ethenyl-3-methoxybenzene;<em>m</em>-Methoxystyrene;3-Methoxystyrene;<em>m</em>-Vinylanisole;3-Vinylanisole;1-Methoxy-3-vinylbenzene",
    "duplicated_cas_no": "",
    "SMILES": "C(=C)C1=CC(OC)=CC=C1",
    "meta_data": {
        "InChI": "InChI=1S/C9H10O/c1-3-8-5-4-6-9(7-8)10-2/h3-7H,1H2,2H3",
        "InChIKey": null,
        "Canonical SMILES": "O(C1=CC=CC(C=C)=C1)C",
        "Molecular Formula": "C<sub>9</sub>H<sub>10</sub>O",
        "Molecular Mass": "134.18",
        "Boiling Point": "67 °C @ Press: 5 Torr",
        "Density": "0.9894 g/cm³ @ Temp: 23 °C"
    }
}