{
    "cas_no": "592-13-2",
    "key_name": "2,5-Dimethylhexane",
    "cn_name": "2,5-二甲基己烷;2,5-二甲基己烷;",
    "alternate_name": "Hexane, 2,5-dimethyl-;2,5-Dimethylhexane;Biisobutyl;NSC 74172;1,1,4,4-Tetramethylbutane",
    "duplicated_cas_no": "",
    "SMILES": "C(CC(C)C)C(C)C",
    "meta_data": {
        "InChI": "InChI=1S/C8H18/c1-7(2)5-6-8(3)4/h7-8H,5-6H2,1-4H3",
        "InChIKey": null,
        "Canonical SMILES": "CC(C)CCC(C)C",
        "Molecular Formula": "C<sub>8</sub>H<sub>18</sub>",
        "Molecular Mass": "114.23",
        "Boiling Point": "109.1 °C",
        "Melting Point": "-91 °C",
        "Density": "0.6989 g/cm³ @ Temp: 15 °C"
    }
}