{
    "cas_no": "814-49-3",
    "key_name": "Diethyl chlorophosphate",
    "cn_name": "氯磷酸二乙酯;氯代磷酸二乙酯;氯化磷酸二乙酯;",
    "alternate_name": "Phosphorochloridic acid, diethyl ester;Ethyl phosphorochloridate;Diethyl chlorophosphate;Ethyl phosphorochloridate (EtO)<sub>2</sub>ClPO;Ethyl phosphorochloridate (Cl(EtO)<sub>2</sub>PO);Diethoxyphosphorus oxychloride;Diethyl phosphorochloridate;Diethylphosphoryl chloride;<em>O</em>,<em>O</em>-Diethyl chlorophosphate;<em>O</em>,<em>O</em>-Diethyl chlorophosphonate;<em>O</em>,<em>O</em>-Diethyl phosphorochloridate;<em>O</em>,<em>O</em>-Diethylphosphoryl chloride;Diethyl phosphorochloride;Chlorodiethoxyphosphine oxide;Diethylphosphoric acid chloride;Diethoxyphosphoryl chloride;<em>O</em>,<em>O</em>-Diethyl chloridophosphate;Diethyl chlorophosphonate;Phosphoric acid chloride diethyl ester;Chlorodiethylphosphate;Phosphoric acid diethyl ester chloride;Diethyl phosphoric chloride;Diethyl phosphochloridate;NSC 43770;1-[Chloro(ethoxy)phosphoryl]oxyethane",
    "duplicated_cas_no": "125675-81-2;1629339-96-3",
    "SMILES": "P(OCC)(OCC)(Cl)=O",
    "meta_data": {
        "InChI": "InChI=1S/C4H10ClO3P/c1-3-7-9(5,6)8-4-2/h3-4H2,1-2H3",
        "InChIKey": null,
        "Canonical SMILES": "O=P(Cl)(OCC)OCC",
        "Molecular Formula": "C<sub>4</sub>H<sub>10</sub>ClO<sub>3</sub>P",
        "Molecular Mass": "172.55",
        "Boiling Point": "60 °C @ Press: 2 Torr",
        "Melting Point": "95-96 °C",
        "Density": "1.1915 g/cm³ @ Temp: 25 °C"
    }
}