{
    "cas_no": "1417456-04-2",
    "key_name": "2-Amino-6-fluoro-<em>N</em>-phenylbenzamide",
    "cn_name": null,
    "alternate_name": "Benzamide, 2-amino-6-fluoro-<em>N</em>-phenyl-;2-Amino-6-fluoro-<em>N</em>-phenylbenzamide;2-Fluoro-6-amino-<em>N</em>-phenylbenzamide",
    "duplicated_cas_no": "",
    "SMILES": "C(NC1=CC=CC=C1)(=O)C2=C(F)C=CC=C2N",
    "meta_data": {
        "InChI": "InChI=1S/C13H11FN2O/c14-10-7-4-8-11(15)12(10)13(17)16-9-5-2-1-3-6-9/h1-8H,15H2,(H,16,17)",
        "InChIKey": null,
        "Canonical SMILES": "O=C(NC=1C=CC=CC1)C=2C(F)=CC=CC2N",
        "Molecular Formula": "C<sub>13</sub>H<sub>11</sub>FN<sub>2</sub>O",
        "Molecular Mass": "230.24",
        "Melting Point": "114-115 °C"
    }
}