{
    "cas_no": "3739-64-8",
    "key_name": "1-(2-Propen-1-yloxy)butane",
    "cn_name": "烯丙基丁基醚;",
    "alternate_name": "Butane, 1-(2-propen-1-yloxy)-;Ether, allyl butyl;Butane, 1-(2-propenyloxy)-;1-(2-Propen-1-yloxy)butane;Allyl butyl ether;Butyl allyl ether;<em>n</em>-Butyl allyl ether;1-(Allyloxy)butane;(Allyloxy) butane",
    "duplicated_cas_no": "",
    "SMILES": "C(OCC=C)CCC",
    "meta_data": {
        "InChI": "InChI=1S/C7H14O/c1-3-5-7-8-6-4-2/h4H,2-3,5-7H2,1H3",
        "InChIKey": null,
        "Canonical SMILES": "O(CC=C)CCCC",
        "Molecular Formula": "C<sub>7</sub>H<sub>14</sub>O",
        "Molecular Mass": "114.19",
        "Boiling Point": "114-118 °C",
        "Density": "0.8161 g/cm³ @ Temp: 20 °C"
    }
}