{
    "cas_no": "52914-23-5",
    "key_name": "4-Iodobenzeneethanol",
    "cn_name": null,
    "alternate_name": "Benzeneethanol, 4-iodo-;Phenethyl alcohol, <em>p</em>-iodo-;4-Iodobenzeneethanol;<em>p</em>-Iodophenethyl alcohol;4-Iodophenethyl alcohol;4-Iodophenylethyl alcohol;2-(4-Iodophenyl)ethanol;2-(4-Iodophenyl)ethan-1-ol",
    "duplicated_cas_no": "",
    "SMILES": "C(CO)C1=CC=C(I)C=C1",
    "meta_data": {
        "InChI": "InChI=1S/C8H9IO/c9-8-3-1-7(2-4-8)5-6-10/h1-4,10H,5-6H2",
        "InChIKey": null,
        "Canonical SMILES": "IC1=CC=C(C=C1)CCO",
        "Molecular Formula": "C<sub>8</sub>H<sub>9</sub>IO",
        "Molecular Mass": "248.06",
        "Boiling Point": "110-120 °C @ Press: 0.5 Torr",
        "Melting Point": "46-47 °C"
    }
}