{
    "cas_no": "5392-67-6",
    "key_name": "Cadion",
    "cn_name": "镉试剂;试镉灵;对硝基苯重氮氨基偶氮苯;",
    "alternate_name": "1-Triazene, 1-(4-nitrophenyl)-3-[4-(2-phenyldiazenyl)phenyl]-;1-Triazene, 1-(4-nitrophenyl)-3-[4-(phenylazo)phenyl]-;Triazene, 1-(<em>p</em>-nitrophenyl)-3-[<em>p</em>-(phenylazo)phenyl]-;1-(4-Nitrophenyl)-3-[4-(2-phenyldiazenyl)phenyl]-1-triazene;3-(<em>p</em>-Nitrophenyl)-1-[<em>p</em>-(phenylazo)phenyl]triazene;Cadion;Cadion A;1-(<em>p</em>-Nitrophenyl)-3-(<em>p</em>′-azobenzene)triazene;1-(4-Nitrophenyl)-3-(4-phenylazophenyl)triazene;NSC 6282;NSC 66456;<em>p</em>-Nitrophenyldiazoaminoazobenzene;1-(4-Nitrophenyl)-3-(4-(phenyldiazenyl)phenyl)triaz-1-ene",
    "duplicated_cas_no": "39405-26-0",
    "SMILES": "N(=NNC1=CC=C(N=NC2=CC=CC=C2)C=C1)C3=CC=C(N(=O)=O)C=C3",
    "meta_data": {
        "InChI": "InChI=1S/C18H14N6O2/c25-24(26)18-12-10-17(11-13-18)22-23-21-16-8-6-15(7-9-16)20-19-14-4-2-1-3-5-14/h1-13H,(H,21,22)",
        "InChIKey": null,
        "Canonical SMILES": "O=N(=O)C1=CC=C(N=NNC2=CC=C(N=NC=3C=CC=CC3)C=C2)C=C1",
        "Molecular Formula": "C<sub>18</sub>H<sub>14</sub>N<sub>6</sub>O<sub>2</sub>",
        "Molecular Mass": "346.34",
        "Melting Point": "197 °C"
    }
}