{
    "cas_no": "6953-60-2",
    "key_name": "<em>S</em>-Acetylmercaptosuccinic anhydride",
    "cn_name": null,
    "alternate_name": "Ethanethioic acid, <em>S</em>-(tetrahydro-2,5-dioxo-3-furanyl) ester;Succinic anhydride, mercapto-, acetate;Acetic acid, thio-, <em>S</em>-ester with mercaptosuccinic anhydride;Acetylthiosuccinic anhydride;<em>S</em>-Acetylmercaptosuccinic acid anhydride;<em>S</em>-Acetylmercaptosuccinic anhydride;NSC 57456;2-(Acetylthio)succinic anhydride",
    "duplicated_cas_no": "103526-91-6",
    "SMILES": "S(C(C)=O)C1CC(=O)OC1=O",
    "meta_data": {
        "InChI": "InChI=1S/C6H6O4S/c1-3(7)11-4-2-5(8)10-6(4)9/h4H,2H2,1H3",
        "InChIKey": null,
        "Canonical SMILES": "O=C1OC(=O)C(SC(=O)C)C1",
        "Molecular Formula": "C<sub>6</sub>H<sub>6</sub>O<sub>4</sub>S",
        "Molecular Mass": "174.17",
        "Melting Point": "84-86 °C"
    }
}