{
    "cas_no": "1612-76-6",
    "key_name": "2-Amino-5-phenyl-1,3,4-oxadiazole",
    "cn_name": null,
    "alternate_name": "1,3,4-Oxadiazol-2-amine, 5-phenyl-;1,3,4-Oxadiazole, 2-amino-5-phenyl-;5-Phenyl-1,3,4-oxadiazol-2-amine;2-Amino-5-phenyl-1,3,4-oxadiazole;5-Phenyl-1,3,4-oxadiazol-2-ylamine;NSC 116132",
    "duplicated_cas_no": "7658-73-3",
    "SMILES": "NC=1OC(=NN1)C2=CC=CC=C2",
    "meta_data": {
        "InChI": "InChI=1S/C8H7N3O/c9-8-11-10-7(12-8)6-4-2-1-3-5-6/h1-5H,(H2,9,11)",
        "InChIKey": null,
        "Canonical SMILES": "N=1N=C(OC1N)C=2C=CC=CC2",
        "Molecular Formula": "C<sub>8</sub>H<sub>7</sub>N<sub>3</sub>O",
        "Molecular Mass": "161.16",
        "Melting Point": "242 °C"
    }
}