{
    "cas_no": "55701-03-6",
    "key_name": "(1<em>R</em>,3<em>S</em>)-3-(2,2-Dichloroethenyl)-2,2-dimethylcyclopropanecarboxylic acid",
    "cn_name": null,
    "alternate_name": "Cyclopropanecarboxylic acid, 3-(2,2-dichloroethenyl)-2,2-dimethyl-, (1<em>R</em>,3<em>S</em>)-;Cyclopropanecarboxylic acid, 3-(2,2-dichloroethenyl)-2,2-dimethyl-, (1<em>R</em>-<em>trans</em>)-;(1<em>R</em>,3<em>S</em>)-3-(2,2-Dichloroethenyl)-2,2-dimethylcyclopropanecarboxylic acid;1<em>R</em>-<em>trans</em>-Permethric acid;1<em>R</em>-<em>trans</em>-Permethrinic acid;(1<em>R</em>)-(+)-<em>trans</em>-Permethrinic acid;(1<em>R</em>)-<em>trans</em>-3-(2,2-Dichloroethenyl)-2,2-dimethylcyclopropanecarboxylic acid;(1R)-<em>trans</em>-3-(2,2-Dichloro-1-ethenyl)-2,2-dimethylcyclopropanecarboxylic acid",
    "duplicated_cas_no": "",
    "SMILES": "C(O)(=O)[C@@H]1[C@@H](C=C(Cl)Cl)C1(C)C",
    "meta_data": {
        "InChI": "InChI=1S/C8H10Cl2O2/c1-8(2)4(3-5(9)10)6(8)7(11)12/h3-4,6H,1-2H3,(H,11,12)/t4-,6+/m1/s1",
        "InChIKey": null,
        "Canonical SMILES": "O=C(O)C1C(C=C(Cl)Cl)C1(C)C",
        "Molecular Formula": "C<sub>8</sub>H<sub>10</sub>Cl<sub>2</sub>O<sub>2</sub>",
        "Molecular Mass": "209.07",
        "Melting Point": "70-71 °C"
    }
}