{
    "cas_no": "400-93-1",
    "key_name": "1-(4-Fluoro-3-nitrophenyl)ethanone",
    "cn_name": "4\"-氟-3\"-硝基苯乙酮;",
    "alternate_name": "Ethanone, 1-(4-fluoro-3-nitrophenyl)-;Acetophenone, 4′-fluoro-3′-nitro-;1-(4-Fluoro-3-nitrophenyl)ethanone;4′-Fluoro-3′-nitroacetophenone;4-Acetyl-1-fluoro-2-nitrobenzene;3-Nitro-4-fluoroacetophenone;1-(3-Nitro-4-fluorophenyl)ethan-1-one",
    "duplicated_cas_no": "",
    "SMILES": "N(=O)(=O)C1=CC(C(C)=O)=CC=C1F",
    "meta_data": {
        "InChI": "InChI=1S/C8H6FNO3/c1-5(11)6-2-3-7(9)8(4-6)10(12)13/h2-4H,1H3",
        "InChIKey": null,
        "Canonical SMILES": "O=C(C1=CC=C(F)C(=C1)N(=O)=O)C",
        "Molecular Formula": "C<sub>8</sub>H<sub>6</sub>FNO<sub>3</sub>",
        "Molecular Mass": "183.14",
        "Melting Point": "49-50 °C"
    }
}