{
    "cas_no": "76-44-8",
    "key_name": "Heptachlor",
    "cn_name": "七氯化茚;1,4,5,6,7,8,8-七氯-3A,4,7,7A-四氢-4,7-亚甲基-1-茚;",
    "alternate_name": "4,7-Methano-1<em>H</em>-indene, 1,4,5,6,7,8,8-heptachloro-3a,4,7,7a-tetrahydro-;4,7-Methanoindene, 1,4,5,6,7,8,8-heptachloro-3a,4,7,7a-tetrahydro-;1,4,5,6,7,8,8-Heptachloro-3a,4,7,7a-tetrahydro-4,7-methano-1<em>H</em>-indene;E 3314;ENT 15,152;Heptachlor;1,4,5,6,7,8,8-Heptachloro-3a,4,7,7a-tetrahydro-4,7-methanoindene;1,4,5,6,7,10,10-Heptachloro-4,7,8,9-tetrahydro-4,7-methyleneindene;Velsicol 104;Agroceres;Heptachlorane;Rhodiachlor;3-Chlorochlordene;1,4,5,6,7,8,8-Heptachloro-3α,4,7,7α-tetrahydro-4,7-<em>endo</em>-methanoindene;Aahepta;GPKh;Hepta;Arbinex 30TN;Heptox;NSC 8930;MeSH ID: D006533",
    "duplicated_cas_no": "23720-59-4;37229-06-4",
    "SMILES": "ClC12C3C(C(Cl)(C1(Cl)Cl)C(Cl)=C2Cl)C=CC3Cl",
    "meta_data": {
        "InChI": "InChI=1S/C10H5Cl7/c11-4-2-1-3-5(4)9(15)7(13)6(12)8(3,14)10(9,16)17/h1-5H",
        "InChIKey": null,
        "Canonical SMILES": "ClC1=C(Cl)C2(Cl)C3C(Cl)C=CC3C1(Cl)C2(Cl)Cl",
        "Molecular Formula": "C<sub>10</sub>H<sub>5</sub>Cl<sub>7</sub>",
        "Molecular Mass": "373.32",
        "Boiling Point": "145 °C @ Press: 1.5 Torr",
        "Melting Point": "95-96 °C",
        "Density": "1.57 g/cm³ @ Temp: 9 °C"
    }
}