{
    "cas_no": "5709-98-8",
    "key_name": "(1<em>R</em>)-3-Cyclohexene-1-carboxylic acid",
    "cn_name": "(R)-3-环己烯甲酸;",
    "alternate_name": "3-Cyclohexene-1-carboxylic acid, (1<em>R</em>)-;3-Cyclohexene-1-carboxylic acid, (<em>R</em>)-;3-Cyclohexene-1-carboxylic acid, (<em>R</em>)-(+)-;(1<em>R</em>)-3-Cyclohexene-1-carboxylic acid;(<em>R</em>)-(+)-3-Cyclohexene-1-carboxylic acid;(<em>R</em>)-3-Cyclohexenecarboxylic acid;(<em>R</em>)-3-Cyclohexene-1-carboxylic acid;(R)-Cyclohex-3-enecarboxylicacid;(R)-3-Cyclohexene-1-carboxylic acid;(R)-Cyclohex-3-enecarboxylic acid;3-Cyclohexene-1-carboxylic acid (1R)-",
    "duplicated_cas_no": "",
    "SMILES": "C(O)(=O)[C@@H]1CCC=CC1",
    "meta_data": {
        "InChI": "InChI=1S/C7H10O2/c8-7(9)6-4-2-1-3-5-6/h1-2,6H,3-5H2,(H,8,9)/t6-/m0/s1",
        "InChIKey": null,
        "Canonical SMILES": "O=C(O)C1CC=CCC1",
        "Molecular Formula": "C<sub>7</sub>H<sub>10</sub>O<sub>2</sub>",
        "Molecular Mass": "126.15",
        "Boiling Point": "90 °C @ Press: 0.2 Torr"
    }
}