{
    "cas_no": "24050-16-6",
    "key_name": "2-Methylthiazolidine",
    "cn_name": "2-甲基噻唑烷;",
    "alternate_name": "Thiazolidine, 2-methyl-;2-Methylthiazolidine;2-Methyl-1,3-thiazolidine;2-Methyltetrahydrothiazole",
    "duplicated_cas_no": "",
    "SMILES": "CC1NCCS1",
    "meta_data": {
        "InChI": "InChI=1S/C4H9NS/c1-4-5-2-3-6-4/h4-5H,2-3H2,1H3",
        "InChIKey": null,
        "Canonical SMILES": "S1CCNC1C",
        "Molecular Formula": "C<sub>4</sub>H<sub>9</sub>NS",
        "Molecular Mass": "103.19",
        "Boiling Point": "76-77 °C @ Press: 36 Torr"
    }
}