{
    "cas_no": "865-86-1",
    "key_name": "2-(Perfluorodecyl)ethanol",
    "cn_name": "1,1,2,2-四氢全氟十二醇;",
    "alternate_name": "1-Dodecanol, 3,3,4,4,5,5,6,6,7,7,8,8,9,9,10,10,11,11,12,12,12-heneicosafluoro-;3,3,4,4,5,5,6,6,7,7,8,8,9,9,10,10,11,11,12,12,12-Heneicosafluoro-1-dodecanol;2-(Perfluorodecyl)ethanol;PFA 10;1,1,2,2-Tetrahydroperfluorododecanol;1<em>H</em>,1<em>H</em>,2<em>H</em>,2<em>H</em>-Perfluorododecanol;1,1,2,2-Tetrahydrohenicosafluorododecanol;1<em>H</em>,1<em>H</em>,2<em>H</em>,2<em>H</em>-Perfluorododecan-1-ol;A 2020;A 2020 (fluoro compound);2-(Perfluorodecyl)ethyl alcohol;3-(Perfluorodecyl)ethanol;10:2 FTOH;3,3,4,4,5,5,6,6,7,7,8,8,9,9,10,10,11,11,12, 12,12-Heneicosafluorododecan-1-ol;10:2 Fluorotelomer alcohol;3,3,4,4,5,5,6,6,7,7,8,8,9,9,10,10,11,11,12,12,12-Henicosafluorododecan-1-ol",
    "duplicated_cas_no": "",
    "SMILES": "C(C(C(C(C(C(F)(F)F)(F)F)(F)F)(F)F)(F)F)(C(C(C(C(CCO)(F)F)(F)F)(F)F)(F)F)(F)F",
    "meta_data": {
        "InChI": "InChI=1S/C12H5F21O/c13-3(14,1-2-34)4(15,16)5(17,18)6(19,20)7(21,22)8(23,24)9(25,26)10(27,28)11(29,30)12(31,32)33/h34H,1-2H2",
        "InChIKey": null,
        "Canonical SMILES": "FC(F)(F)C(F)(F)C(F)(F)C(F)(F)C(F)(F)C(F)(F)C(F)(F)C(F)(F)C(F)(F)C(F)(F)CCO",
        "Molecular Formula": "C<sub>12</sub>H<sub>5</sub>F<sub>21</sub>O",
        "Molecular Mass": "564.13",
        "Boiling Point": "111-111.5 °C @ Press: 10 Torr",
        "Melting Point": "92-93 °C"
    }
}