{
    "cas_no": "1333-82-0",
    "key_name": "Chromium trioxide",
    "cn_name": "三氧化铬;铬酸酐;",
    "alternate_name": "Chromium oxide (CrO<sub>3</sub>);Chromic anhydride;Chromic trioxide;Chromium trioxide;Chromium(VI) oxide;Monochromium trioxide;Chromium oxide (Cr<sub>4</sub>O<sub>12</sub>);Chromia (CrO<sub>3</sub>);Chromium(VI) trioxide;Chromium oxide (Cr<sub>0.25</sub>O<sub>0.75</sub>)",
    "duplicated_cas_no": "12324-05-9;12324-08-2;1362947-20-3",
    "SMILES": "[Cr](=O)(=O)=O",
    "meta_data": {
        "InChI": "InChI=1S/Cr.3O",
        "InChIKey": null,
        "Canonical SMILES": "O=[Cr](=O)=O",
        "Molecular Formula": "CrO<sub>3</sub>",
        "Molecular Mass": "",
        "Melting Point": "197 °C",
        "Density": "2.70 g/cm³"
    }
}