{
    "cas_no": "13096-31-6",
    "key_name": "5-Hydroxypipecolic acid",
    "cn_name": null,
    "alternate_name": "2-Piperidinecarboxylic acid, 5-hydroxy-;Pipecolic acid, 5-hydroxy-;5-Hydroxy-2-piperidinecarboxylic acid;5-Hydroxypipecolic acid",
    "duplicated_cas_no": "15574-64-8",
    "SMILES": "C(O)(=O)C1CCC(O)CN1",
    "meta_data": {
        "InChI": "InChI=1S/C6H11NO3/c8-4-1-2-5(6(9)10)7-3-4/h4-5,7-8H,1-3H2,(H,9,10)",
        "InChIKey": null,
        "Canonical SMILES": "O=C(O)C1NCC(O)CC1",
        "Molecular Formula": "C<sub>6</sub>H<sub>11</sub>NO<sub>3</sub>",
        "Molecular Mass": "145.16",
        "Melting Point": "240-246 °C"
    }
}