{
    "cas_no": "1139-52-2",
    "key_name": "4-Bromo-2,6-di-<em>tert</em>-butylphenol",
    "cn_name": "4-溴-2,6-二叔丁基苯酚;",
    "alternate_name": "Phenol, 4-bromo-2,6-bis(1,1-dimethylethyl)-;Phenol, 4-bromo-2,6-di-<em>tert</em>-butyl-;4-Bromo-2,6-bis(1,1-dimethylethyl)phenol;4-Bromo-2,6-di-<em>tert</em>-butylphenol;2,6-Di-<em>tert</em>-butyl-4-bromophenol;NSC 169952;NSC 98406;4-Hydroxy-3,5-di(<em>tert</em>-butyl)bromobenzene",
    "duplicated_cas_no": "",
    "SMILES": "C(C)(C)(C)C1=C(O)C(C(C)(C)C)=CC(Br)=C1",
    "meta_data": {
        "InChI": "InChI=1S/C14H21BrO/c1-13(2,3)10-7-9(15)8-11(12(10)16)14(4,5)6/h7-8,16H,1-6H3",
        "InChIKey": null,
        "Canonical SMILES": "BrC=1C=C(C(O)=C(C1)C(C)(C)C)C(C)(C)C",
        "Molecular Formula": "C<sub>14</sub>H<sub>21</sub>BrO",
        "Molecular Mass": "285.22",
        "Boiling Point": "126-128 °C @ Press: 4 Torr",
        "Melting Point": "81 °C"
    }
}