{
    "cas_no": "14112-98-2",
    "key_name": "7-Oxooctanoic acid",
    "cn_name": "7-羰基辛酸;",
    "alternate_name": "Octanoic acid, 7-oxo-;7-Oxooctanoic acid;7-Ketooctanoic acid",
    "duplicated_cas_no": "",
    "SMILES": "C(CC(C)=O)CCCC(O)=O",
    "meta_data": {
        "InChI": "InChI=1S/C8H14O3/c1-7(9)5-3-2-4-6-8(10)11/h2-6H2,1H3,(H,10,11)",
        "InChIKey": null,
        "Canonical SMILES": "O=C(O)CCCCCC(=O)C",
        "Molecular Formula": "C<sub>8</sub>H<sub>14</sub>O<sub>3</sub>",
        "Molecular Mass": "158.20",
        "Boiling Point": "186-187 °C @ Press: 20 Torr",
        "Melting Point": "29-30 °C"
    }
}