{
    "cas_no": "1550-50-1",
    "key_name": "1,1,2,2-Tetrafluoro-<em>N</em>,<em>N</em>-dimethylethanamine",
    "cn_name": "N,N-二甲基四氟乙胺;1,1,2,2-四氟-N,N-二甲基乙胺;",
    "alternate_name": "Ethanamine, 1,1,2,2-tetrafluoro-<em>N</em>,<em>N</em>-dimethyl-;Ethylamine, 1,1,2,2-tetrafluoro-<em>N</em>,<em>N</em>-dimethyl-;1,1,2,2-Tetrafluoro-<em>N</em>,<em>N</em>-dimethylethanamine;<em>N</em>-(1,1,2,2-Tetrafluoroethyl)dimethylamine;<em>N</em>,<em>N</em>-Dimethyl-1,1,2,2-tetrafluoroethanamine;1,1,2,2-Tetrafluoro-<em>N</em>,<em>N</em>-dimethylethan-1-amine;1,1,2,2-Tetrafluoro-<em>N</em>,<em>N</em>-dimethylethylamine",
    "duplicated_cas_no": "",
    "SMILES": "C(C(F)F)(N(C)C)(F)F",
    "meta_data": {
        "InChI": "InChI=1S/C4H7F4N/c1-9(2)4(7,8)3(5)6/h3H,1-2H3",
        "InChIKey": null,
        "Canonical SMILES": "FC(F)C(F)(F)N(C)C",
        "Molecular Formula": "C<sub>4</sub>H<sub>7</sub>F<sub>4</sub>N",
        "Molecular Mass": "145.10",
        "Boiling Point": "32 °C @ Press: 127 Torr"
    }
}