{
    "cas_no": "496-78-6",
    "key_name": "Pseudocumenol",
    "cn_name": "2,4,5-三甲酚;2,4,5-三甲基苯酚;",
    "alternate_name": "Phenol, 2,4,5-trimethyl-;2,4,5-Trimethylphenol;Pseudocumenol;1-Hydroxy-2,4,5-trimethylbenzene;5-Hydroxypseudocumene;NSC 38776",
    "duplicated_cas_no": "",
    "SMILES": "CC1=C(C)C=C(O)C(C)=C1",
    "meta_data": {
        "InChI": "InChI=1S/C9H12O/c1-6-4-8(3)9(10)5-7(6)2/h4-5,10H,1-3H3",
        "InChIKey": null,
        "Canonical SMILES": "OC=1C=C(C(=CC1C)C)C",
        "Molecular Formula": "C<sub>9</sub>H<sub>12</sub>O",
        "Molecular Mass": "136.19",
        "Boiling Point": "232 °C",
        "Melting Point": "72 °C"
    }
}