{
    "cas_no": "598-10-7",
    "key_name": "1,1-Cyclopropanedicarboxylic acid",
    "cn_name": "1,1-环丙基二羧酸;",
    "alternate_name": "1,1-Cyclopropanedicarboxylic acid;Ethylenemalonic acid;1-Carboxycyclopropanecarboxylic acid;NSC 626865;Cyclopropan-1,1-dicarboxylic acid",
    "duplicated_cas_no": "",
    "SMILES": "C(O)(=O)C1(C(O)=O)CC1",
    "meta_data": {
        "InChI": "InChI=1S/C5H6O4/c6-3(7)5(1-2-5)4(8)9/h1-2H2,(H,6,7)(H,8,9)",
        "InChIKey": null,
        "Canonical SMILES": "O=C(O)C1(C(=O)O)CC1",
        "Molecular Formula": "C<sub>5</sub>H<sub>6</sub>O<sub>4</sub>",
        "Molecular Mass": "130.10",
        "Melting Point": "136-138 °C"
    }
}