{
    "cas_no": "72721-10-9",
    "key_name": "Methylvinyldi(methylethylketoxime)silane",
    "cn_name": "甲基乙烯基二(丁酮肟基)硅烷;",
    "alternate_name": "2-Butanone, <em>O</em>,<em>O</em>′-(ethenylmethylsilylene)dioxime;Methylvinyldi(methylethylketoxime)silane;Methylvinyldibutanoximesilane",
    "duplicated_cas_no": "",
    "SMILES": "[Si](ON=C(CC)C)(ON=C(CC)C)(C=C)C",
    "meta_data": {
        "InChI": "InChI=1S/C11H22N2O2Si/c1-7-10(4)12-14-16(6,9-3)15-13-11(5)8-2/h9H,3,7-8H2,1-2,4-6H3",
        "InChIKey": null,
        "Canonical SMILES": "N(O[Si](ON=C(C)CC)(C=C)C)=C(C)CC",
        "Molecular Formula": "C<sub>11</sub>H<sub>22</sub>N<sub>2</sub>O<sub>2</sub>Si",
        "Molecular Mass": "242.39",
        "Melting Point": "-40 °C",
        "Density": "0.920 g/cm³"
    }
}