{
    "cas_no": "5470-17-7",
    "key_name": "3-Bromo-2-chloro-5-nitropyridine",
    "cn_name": "2-氯-3-溴-5-硝基吡啶;",
    "alternate_name": "Pyridine, 3-bromo-2-chloro-5-nitro-;3-Bromo-2-chloro-5-nitropyridine;NSC 26278",
    "duplicated_cas_no": "",
    "SMILES": "N(=O)(=O)C=1C=C(Br)C(Cl)=NC1",
    "meta_data": {
        "InChI": "InChI=1S/C5H2BrClN2O2/c6-4-1-3(9(10)11)2-8-5(4)7/h1-2H",
        "InChIKey": null,
        "Canonical SMILES": "O=N(=O)C1=CN=C(Cl)C(Br)=C1",
        "Molecular Formula": "C<sub>5</sub>H<sub>2</sub>BrClN<sub>2</sub>O<sub>2</sub>",
        "Molecular Mass": "237.44",
        "Melting Point": "69.5 °C"
    }
}