{
    "cas_no": "2510-27-2",
    "key_name": "(3,5-Dimethylisoxazol-4-yl)acetic acid",
    "cn_name": null,
    "alternate_name": "4-Isoxazoleacetic acid, 3,5-dimethyl-;3,5-Dimethyl-4-isoxazoleacetic acid;3,5-Dimethylisoxazole-4-acetic acid;(3,5-Dimethylisoxazol-4-yl)acetic acid;2-(3,5-Dimethylisoxazol-4-yl)acetic acid;2-(3,5-Dimethyl-1,2-oxazol-4-yl)acetic acid;2-(Dimethyl-1,2-oxazol-4-yl)acetic acid",
    "duplicated_cas_no": "",
    "SMILES": "C(C(O)=O)C=1C(C)=NOC1C",
    "meta_data": {
        "InChI": "InChI=1S/C7H9NO3/c1-4-6(3-7(9)10)5(2)11-8-4/h3H2,1-2H3,(H,9,10)",
        "InChIKey": null,
        "Canonical SMILES": "O=C(O)CC=1C(=NOC1C)C",
        "Molecular Formula": "C<sub>7</sub>H<sub>9</sub>NO<sub>3</sub>",
        "Molecular Mass": "155.15",
        "Melting Point": "120-121 °C"
    }
}