{
    "cas_no": "6310-19-6",
    "key_name": "4-(1,1-Dimethylethyl)-2-nitrobenzenamine",
    "cn_name": "4-叔丁基-2-硝基-苯胺;4-(叔丁基)-2-硝基苯胺;",
    "alternate_name": "Benzenamine, 4-(1,1-dimethylethyl)-2-nitro-;Aniline, 4-<em>tert</em>-butyl-2-nitro-;4-(1,1-Dimethylethyl)-2-nitrobenzenamine;4-<em>tert</em>-Butyl-2-Nitroaniline;2-Nitro-4-<em>tert</em>-butylaniline;NSC 43042",
    "duplicated_cas_no": "",
    "SMILES": "N(=O)(=O)C1=CC(C(C)(C)C)=CC=C1N",
    "meta_data": {
        "InChI": "InChI=1S/C10H14N2O2/c1-10(2,3)7-4-5-8(11)9(6-7)12(13)14/h4-6H,11H2,1-3H3",
        "InChIKey": null,
        "Canonical SMILES": "O=N(=O)C1=CC(=CC=C1N)C(C)(C)C",
        "Molecular Formula": "C<sub>10</sub>H<sub>14</sub>N<sub>2</sub>O<sub>2</sub>",
        "Molecular Mass": "194.23",
        "Melting Point": "102.5-105.5 °C"
    }
}