{
    "cas_no": "3198-15-0",
    "key_name": "Benzenemethanol, α-[(1<em>S</em>)-1-aminoethyl]-, hydrochloride (1:1), (α<em>R</em>)-",
    "cn_name": null,
    "alternate_name": "Benzenemethanol, α-[(1<em>S</em>)-1-aminoethyl]-, hydrochloride (1:1), (α<em>R</em>)-;Norephedrine, hydrochloride, (-)-;Benzenemethanol, α-(1-aminoethyl)-, hydrochloride, [<em>R</em>-(<em>R</em>*,<em>S</em>*)]-;Benzenemethanol, α-[(1<em>S</em>)-1-aminoethyl]-, hydrochloride, (α<em>R</em>)-;<span class=\"text-smallcaps\">D</span>-(-)-Norephedrine hydrochloride;<em>l</em>-Norephedrine hydrochloride;<em>l</em>-Phenylpropanolamine hydrochloride;(-)-Norephedrine hydrochloride;(1<em>R</em>,2<em>S</em>)-(-)-Norephedrine hydrochloride;(1<em>R</em>,2<em>S</em>)-Norephedrine hydrochloride;NSC 24522",
    "duplicated_cas_no": "35231-34-6",
    "SMILES": "[C@@H]([C@H](C)N)(O)C1=CC=CC=C1.Cl",
    "meta_data": {
        "InChI": "InChI=1S/C9H13NO.ClH/c1-7(10)9(11)8-5-3-2-4-6-8;/h2-7,9,11H,10H2,1H3;1H/t7-,9-;/m0./s1",
        "InChIKey": null,
        "Canonical SMILES": "Cl.OC(C=1C=CC=CC1)C(N)C",
        "Molecular Formula": "C<sub>9</sub>H<sub>13</sub>NO.ClH",
        "Molecular Mass": "",
        "Melting Point": "170-172 °C"
    }
}