{
    "cas_no": "52818-63-0",
    "key_name": "<em>N</em>-[(4-Methoxyphenyl)methyl]-2-pyridinamine",
    "cn_name": "甲氧基苄胺基吡啶;",
    "alternate_name": "2-Pyridinamine, <em>N</em>-[(4-methoxyphenyl)methyl]-;Pyridine, 2-(<em>p</em>-methoxybenzylamino)-;<em>N</em>-[(4-Methoxyphenyl)methyl]-2-pyridinamine;2-(<em>p</em>-Methoxybenzylamino)pyridine;SKF 47437;NSC 124138;<em>N</em>-(4-Methoxybenzyl)pyridin-2-amine;2-(4-Methoxybenzylamino)pyridine",
    "duplicated_cas_no": "",
    "SMILES": "C(NC1=CC=CC=N1)C2=CC=C(OC)C=C2",
    "meta_data": {
        "InChI": "InChI=1S/C13H14N2O/c1-16-12-7-5-11(6-8-12)10-15-13-4-2-3-9-14-13/h2-9H,10H2,1H3,(H,14,15)",
        "InChIKey": null,
        "Canonical SMILES": "N=1C=CC=CC1NCC2=CC=C(OC)C=C2",
        "Molecular Formula": "C<sub>13</sub>H<sub>14</sub>N<sub>2</sub>O",
        "Molecular Mass": "214.26",
        "Melting Point": "128 °C"
    }
}