{
    "cas_no": "19735-89-8",
    "key_name": "3-Methyl-1-phenylpyrazolone",
    "cn_name": null,
    "alternate_name": "3<em>H</em>-Pyrazol-3-one, 1,2-dihydro-5-methyl-2-phenyl-;3-Pyrazolin-5-one, 3-methyl-1-phenyl-;1,2-Dihydro-5-methyl-2-phenyl-3<em>H</em>-pyrazol-3-one;3-Methyl-1-phenylpyrazolone;<em>N</em>-Desmethylantipyrine;<em>N</em>-Demethylantipyrine;1-Phenyl-3-methyl-Δ<sup>3</sup>-pyrazol-5-one;1-Phenyl-3-methyl-5-pyrazolone;5-Methyl-2-phenyl-1,2-dihydropyrazol-3-one;2,3-Dihydro-5-methyl-2-phenyl-1<em>H</em>-pyrazol-3-one",
    "duplicated_cas_no": "",
    "SMILES": "O=C1N(NC(C)=C1)C2=CC=CC=C2",
    "meta_data": {
        "InChI": "InChI=1S/C10H10N2O/c1-8-7-10(13)12(11-8)9-5-3-2-4-6-9/h2-7,11H,1H3",
        "InChIKey": null,
        "Canonical SMILES": "O=C1C=C(NN1C=2C=CC=CC2)C",
        "Molecular Formula": "C<sub>10</sub>H<sub>10</sub>N<sub>2</sub>O",
        "Molecular Mass": "174.20",
        "Melting Point": "128 °C"
    }
}