{
    "cas_no": "108-16-7",
    "key_name": "1-(Dimethylamino)-2-propanol",
    "cn_name": "N,N-二甲基异丙醇胺;二甲氨基异丙醇;1-二甲氨基-2-丙醇;",
    "alternate_name": "2-Propanol, 1-(dimethylamino)-;1-(Dimethylamino)-2-propanol;Dimethylisopropanolamine;Dimethyl(2-hydroxypropyl)amine;<em>N</em>,<em>N</em>-Dimethylisopropanolamine;3-(Dimethylamino)-2-propanol;<em>N</em>,<em>N</em>-Dimethyl-2-hydroxypropylamine;<em>N</em>,<em>N</em>-Dimethylamino-2-propanol;(±)-1-(Dimethylamino)-2-propanol;(±)-1-(<em>N</em>,<em>N</em>-Dimethylamino)-2-propanol;<span class=\"text-smallcaps\">DL</span>-1-(Dimethylamino)-2-propanol;Dimepranol;2-(Dimethylamino)-1-methylethanol;Bisomer Amine D 700;<em>N</em>,<em>N</em>-Dimethyl-2-hydroxy-1-propanamine;NSC 3163;1-Methyl-2-(dimethylamino)ethanol;2-(Dimethylamino)-1-methyl-1-ethanol;DMA 2P",
    "duplicated_cas_no": "53657-16-2",
    "SMILES": "C(C(C)O)N(C)C",
    "meta_data": {
        "InChI": "InChI=1S/C5H13NO/c1-5(7)4-6(2)3/h5,7H,4H2,1-3H3",
        "InChIKey": null,
        "Canonical SMILES": "OC(C)CN(C)C",
        "Molecular Formula": "C<sub>5</sub>H<sub>13</sub>NO",
        "Molecular Mass": "103.16",
        "Boiling Point": "124.5 °C",
        "Melting Point": "124 °C",
        "Density": "0.855 g/cm³ @ Temp: 26 °C"
    }
}