{
    "cas_no": "37067-27-9",
    "key_name": "1,4-Benzenediol, 1-(hydrogen sulfate), potassium salt (1:1)",
    "cn_name": "对苯二酚一硫酸钾;",
    "alternate_name": "1,4-Benzenediol, 1-(hydrogen sulfate), potassium salt (1:1);1,4-Benzenediol, mono(hydrogen sulfate), monopotassium salt;Hydroquinone, hydrogen sulfate, potassium salt;Potassium 4-hydroxyphenyl sulfate",
    "duplicated_cas_no": "",
    "SMILES": "O(S(=O)(=O)O)C1=CC=C(O)C=C1.[K]",
    "meta_data": {
        "InChI": "InChI=1S/C6H6O5S.K/c7-5-1-3-6(4-2-5)11-12(8,9)10;/h1-4,7H,(H,8,9,10);",
        "InChIKey": null,
        "Canonical SMILES": "[K].O=S(=O)(O)OC1=CC=C(O)C=C1",
        "Molecular Formula": "C<sub>6</sub>H<sub>6</sub>O<sub>5</sub>S.K",
        "Molecular Mass": "",
        "Melting Point": "220 °C"
    }
}