{
    "cas_no": "448193-94-0",
    "key_name": "5,7-Dichloro-2,3-dihydro-1<em>H</em>-inden-1-one",
    "cn_name": null,
    "alternate_name": "1<em>H</em>-Inden-1-one, 5,7-dichloro-2,3-dihydro-;5,7-Dichloro-2,3-dihydro-1<em>H</em>-inden-1-one;5,7-Dichloro-1-indanone",
    "duplicated_cas_no": "",
    "SMILES": "ClC1=C2C(=CC(Cl)=C1)CCC2=O",
    "meta_data": {
        "InChI": "InChI=1S/C9H6Cl2O/c10-6-3-5-1-2-8(12)9(5)7(11)4-6/h3-4H,1-2H2",
        "InChIKey": null,
        "Canonical SMILES": "O=C1C=2C(Cl)=CC(Cl)=CC2CC1",
        "Molecular Formula": "C<sub>9</sub>H<sub>6</sub>Cl<sub>2</sub>O",
        "Molecular Mass": "201.05",
        "Melting Point": "97-99 °C"
    }
}