{
    "cas_no": "122-35-0",
    "key_name": "2-Phenoxypropanoyl chloride",
    "cn_name": "2-苯氧基丙酰氯;",
    "alternate_name": "Propanoyl chloride, 2-phenoxy-;Propionyl chloride, 2-phenoxy-;2-Phenoxypropanoyl chloride;2-Phenoxypropionic acid chloride;α-Phenoxypropionyl chloride;2-Phenoxypropionyl chloride;NSC 9825;2-Phenoxypropionoyl chloride",
    "duplicated_cas_no": "84771-76-6",
    "SMILES": "O(C(C(Cl)=O)C)C1=CC=CC=C1",
    "meta_data": {
        "InChI": "InChI=1S/C9H9ClO2/c1-7(9(10)11)12-8-5-3-2-4-6-8/h2-7H,1H3",
        "InChIKey": null,
        "Canonical SMILES": "O=C(Cl)C(OC=1C=CC=CC1)C",
        "Molecular Formula": "C<sub>9</sub>H<sub>9</sub>ClO<sub>2</sub>",
        "Molecular Mass": "184.62",
        "Boiling Point": "147 °C",
        "Density": "1.1865 g/cm³ @ Temp: 20 °C"
    }
}