{
    "cas_no": "10500-34-2",
    "key_name": "3-(2-Hexen-1-yl)dihydro-2,5-furandione",
    "cn_name": "2-己烯-1-琥珀酸酐;",
    "alternate_name": "2,5-Furandione, 3-(2-hexen-1-yl)dihydro-;Succinic anhydride, (2-hexenyl)-;2,5-Furandione, 3-(2-hexenyl)dihydro-;3-(2-Hexen-1-yl)dihydro-2,5-furandione;(2-Hexenyl)succinic anhydride;3-(Hex-2-enyl)dihydrofuran-2,5-dione;2-Hexen-1-yl succinic anhydride",
    "duplicated_cas_no": "",
    "SMILES": "C(C=CCCC)C1CC(=O)OC1=O",
    "meta_data": {
        "InChI": "InChI=1S/C10H14O3/c1-2-3-4-5-6-8-7-9(11)13-10(8)12/h4-5,8H,2-3,6-7H2,1H3",
        "InChIKey": null,
        "Canonical SMILES": "O=C1OC(=O)C(CC=CCCC)C1",
        "Molecular Formula": "C<sub>10</sub>H<sub>14</sub>O<sub>3</sub>",
        "Molecular Mass": "182.22",
        "Boiling Point": "166-169 °C @ Press: 15 Torr",
        "Density": "1.0060 g/cm³ @ Temp: 20 °C"
    }
}