{
    "cas_no": "114772-53-1",
    "key_name": "2-Cyano-4′-methylbiphenyl",
    "cn_name": "2-氰基-4\"-甲基联苯;4-甲基-2-氰基联苯;",
    "alternate_name": "[1,1′-Biphenyl]-2-carbonitrile, 4′-methyl-;4′-Methyl[1,1′-biphenyl]-2-carbonitrile;2-Cyano-4′-methylbiphenyl;4′-Methylbiphenyl-2-carbonitrile;4-Methyl-2′-cyanobiphenyl;4′-Methyl-2-cyanobiphenyl;2′-Cyano-4-methylbiphenyl;2-Cyano-4′-methyl-1,1′-biphenyl;2-(4-Methylphenyl)benzonitrile;2-(<em>p</em>-Tolyl)benzonitrile;4′-Methyl-1,1′-biphenyl-2-ylcarbonitrile",
    "duplicated_cas_no": "",
    "SMILES": "C(#N)C1=C(C=CC=C1)C2=CC=C(C)C=C2",
    "meta_data": {
        "InChI": "InChI=1S/C14H11N/c1-11-6-8-12(9-7-11)14-5-3-2-4-13(14)10-15/h2-9H,1H3",
        "InChIKey": null,
        "Canonical SMILES": "N#CC=1C=CC=CC1C=2C=CC(=CC2)C",
        "Molecular Formula": "C<sub>14</sub>H<sub>11</sub>N",
        "Molecular Mass": "193.24",
        "Melting Point": "47-48 °C"
    }
}