{
    "cas_no": "621-71-6",
    "key_name": "Tricaprin",
    "cn_name": "癸酸丙三醇酯;三癸酸甘油酯;甘油三癸酸酯;癸酸甘油三酯;三癸精;",
    "alternate_name": "Decanoic acid, 1,1′,1′′-(1,2,3-propanetriyl) ester;Decanoin, tri-;Decanoic acid, 1,2,3-propanetriyl ester;Caprin, tri-;Tricaprin;Glycerol tridecanoate;Tricapric glyceride;Glycerol tricaprin;Tridecanoin;Capric acid triglyceride;Dynasan 110;Glyceryl tricaprate;Glycerol tricaprate;Glycerin tridecanoate;Panacet 1000;Tri(decanoyl)glycerol;Triglyceride DDD;Glycerin tricaprate;Actor M 2;Captex 1000;NSC 147475;Capric triglyceride;Decanoic acid triglyceride;Tricapryl glyceride;Glyceryl tridecanoate;2,3-Di(decanoyloxy)propyl decanoate;Trisdecanoin",
    "duplicated_cas_no": "17263-37-5",
    "SMILES": "C(COC(CCCCCCCCC)=O)(COC(CCCCCCCCC)=O)OC(CCCCCCCCC)=O",
    "meta_data": {
        "InChI": "InChI=1S/C33H62O6/c1-4-7-10-13-16-19-22-25-31(34)37-28-30(39-33(36)27-24-21-18-15-12-9-6-3)29-38-32(35)26-23-20-17-14-11-8-5-2/h30H,4-29H2,1-3H3",
        "InChIKey": null,
        "Canonical SMILES": "O=C(OCC(OC(=O)CCCCCCCCC)COC(=O)CCCCCCCCC)CCCCCCCCC",
        "Molecular Formula": "C<sub>33</sub>H<sub>62</sub>O<sub>6</sub>",
        "Molecular Mass": "554.84",
        "Melting Point": "25 °C"
    }
}