{
    "cas_no": "1122-43-6",
    "key_name": "2,6-Dimethyl-3-pyridinol",
    "cn_name": "2,6-二甲基-3-羟基吡啶;",
    "alternate_name": "3-Pyridinol, 2,6-dimethyl-;2,6-Dimethyl-3-pyridinol;3-Hydroxy-2,6-dimethylpyridine;2,6-Dimethyl-3-hydroxypyridine;3-Hydroxy-2,6-lutidine;NSC 164026",
    "duplicated_cas_no": "",
    "SMILES": "CC1=C(O)C=CC(C)=N1",
    "meta_data": {
        "InChI": "InChI=1S/C7H9NO/c1-5-3-4-7(9)6(2)8-5/h3-4,9H,1-2H3",
        "InChIKey": null,
        "Canonical SMILES": "OC1=CC=C(N=C1C)C",
        "Molecular Formula": "C<sub>7</sub>H<sub>9</sub>NO",
        "Molecular Mass": "123.15",
        "Melting Point": "202.5-204 °C"
    }
}