{
    "cas_no": "42252-34-6",
    "key_name": "<em>N</em>-Ethyl-<em>N</em>-methylcarbamic chloride",
    "cn_name": "N-乙基-N-甲基氨基甲酰氯;N-甲基-N-乙基氨基甲酰氯;N-乙基甲基氨基甲酰氯;",
    "alternate_name": "Carbamic chloride, <em>N</em>-ethyl-<em>N</em>-methyl-;Carbamic chloride, ethylmethyl-;<em>N</em>-Ethyl-<em>N</em>-methylcarbamic chloride;<em>N</em>-Ethyl-<em>N</em>-methylcarbamoyl chloride;<em>N</em>-Methyl-<em>N</em>-ethylcarbamyl chloride;Ethylmethylcarbamoyl chloride;Ethyl(methyl)carbamic chloride",
    "duplicated_cas_no": "",
    "SMILES": "N(C(Cl)=O)(CC)C",
    "meta_data": {
        "InChI": "InChI=1S/C4H8ClNO/c1-3-6(2)4(5)7/h3H2,1-2H3",
        "InChIKey": null,
        "Canonical SMILES": "O=C(Cl)N(C)CC",
        "Molecular Formula": "C<sub>4</sub>H<sub>8</sub>ClNO",
        "Molecular Mass": "121.57",
        "Boiling Point": "88-89 °C @ Press: 40 Torr"
    }
}