{
    "cas_no": "61500-87-6",
    "key_name": "Methyl 2-amino-4-(trifluoromethyl)benzoate",
    "cn_name": null,
    "alternate_name": "Benzoic acid, 2-amino-4-(trifluoromethyl)-, methyl ester;Methyl 2-amino-4-(trifluoromethyl)benzoate;2-Amino-4-trifluoromethylbenzoic acid methyl ester",
    "duplicated_cas_no": "",
    "SMILES": "C(OC)(=O)C1=C(N)C=C(C(F)(F)F)C=C1",
    "meta_data": {
        "InChI": "InChI=1S/C9H8F3NO2/c1-15-8(14)6-3-2-5(4-7(6)13)9(10,11)12/h2-4H,13H2,1H3",
        "InChIKey": null,
        "Canonical SMILES": "O=C(OC)C1=CC=C(C=C1N)C(F)(F)F",
        "Molecular Formula": "C<sub>9</sub>H<sub>8</sub>F<sub>3</sub>NO<sub>2</sub>",
        "Molecular Mass": "219.16",
        "Melting Point": "65-68 °C"
    }
}