{
    "cas_no": "7554-65-6",
    "key_name": "4-Methylpyrazole",
    "cn_name": "4-甲基吡唑;",
    "alternate_name": "1<em>H</em>-Pyrazole, 4-methyl-;Pyrazole, 4-methyl-;4-Methyl-1<em>H</em>-pyrazole;4-Methylpyrazole;4-MP;Fomepizole;Antizol",
    "duplicated_cas_no": "",
    "SMILES": "CC=1C=NNC1",
    "meta_data": {
        "InChI": "InChI=1S/C4H6N2/c1-4-2-5-6-3-4/h2-3H,1H3,(H,5,6)",
        "InChIKey": null,
        "Canonical SMILES": "N1=CC(=CN1)C",
        "Molecular Formula": "C<sub>4</sub>H<sub>6</sub>N<sub>2</sub>",
        "Molecular Mass": "82.10",
        "Boiling Point": "206 °C",
        "Melting Point": "15.5-18.5 °C"
    }
}