{
    "cas_no": "141-22-0",
    "key_name": "Ricinoleic acid",
    "cn_name": null,
    "alternate_name": "9-Octadecenoic acid, 12-hydroxy-, (9<em>Z</em>,12<em>R</em>)-;Ricinoleic acid;9-Octadecenoic acid, 12-hydroxy-, [<em>R</em>-(<em>Z</em>)]-;(9<em>Z</em>,12<em>R</em>)-12-Hydroxy-9-octadecenoic acid;12-Hydroxy-<em>cis</em>-9-octadecenoic acid;Ricinic acid;Ricinolic acid;12-<span class=\"text-smallcaps\">D</span>-Hydroxy-9-<em>cis</em>-octadecenoic acid;Nouracid CS 80;12-Hydroxyoctadeca-9-enoic acid;Edenor Ri 90;(<em>R</em>)-12-Hydroxyoleic acid;NSC 281242;Cenwax C;CS 80;H 1657;(9Z,12R)-12-Hydroxyoctadec-9-enoic acid;(<em>R</em>)-Ricinoleic acid;Nouracid CZ 80;9-Nonadecenoic acid, 12-hydroxy-, (9<em>Z</em>,12<em>R</em>)-",
    "duplicated_cas_no": "8040-35-5;17026-54-9;25607-48-1;45260-83-1;2226968-94-9;2408423-15-2",
    "SMILES": "[C@H](C/C=C\\CCCCCCCC(O)=O)(CCCCCC)O",
    "meta_data": {
        "InChI": "InChI=1S/C18H34O3/c1-2-3-4-11-14-17(19)15-12-9-7-5-6-8-10-13-16-18(20)21/h9,12,17,19H,2-8,10-11,13-16H2,1H3,(H,20,21)/b12-9-/t17-/m1/s1",
        "InChIKey": null,
        "Canonical SMILES": "O=C(O)CCCCCCCC=CCC(O)CCCCCC",
        "Molecular Formula": "C<sub>18</sub>H<sub>34</sub>O<sub>3</sub>",
        "Molecular Mass": "298.46",
        "Boiling Point": "245 °C @ Press: 10 Torr",
        "Melting Point": "5.5 °C",
        "Density": "0.940 g/cm³ @ Temp: 27.4 °C"
    }
}