{
    "cas_no": "43182-10-1",
    "key_name": "2-Amino-1-benzylbenzimidazole",
    "cn_name": null,
    "alternate_name": "1<em>H</em>-Benzimidazol-2-amine, 1-(phenylmethyl)-;Benzimidazole, 2-amino-1-benzyl-;1-(Phenylmethyl)-1<em>H</em>-benzimidazol-2-amine;1-Benzyl-2-aminobenzimidazole;2-Amino-1-benzylbenzimidazole;2-Imino-1-benzyl-1,3-dihydrobenzimidazole;1-Benzyl-1<em>H</em>-benzoimidazol-2-ylamine;1-Benzyl-1<em>H</em>-1,3-benzodiazol-2-amine;1-Benzylbenzimidazol-2-amine;1-Benzyl-1<em>H</em>-benzimidazol-2-amine;1-Benzyl-1<em>H</em>-benzo[<em>d</em>]imidazol-2-amine",
    "duplicated_cas_no": "",
    "SMILES": "C(N1C=2C(N=C1N)=CC=CC2)C3=CC=CC=C3",
    "meta_data": {
        "InChI": "InChI=1S/C14H13N3/c15-14-16-12-8-4-5-9-13(12)17(14)10-11-6-2-1-3-7-11/h1-9H,10H2,(H2,15,16)",
        "InChIKey": null,
        "Canonical SMILES": "N=1C=2C=CC=CC2N(C1N)CC=3C=CC=CC3",
        "Molecular Formula": "C<sub>14</sub>H<sub>13</sub>N<sub>3</sub>",
        "Molecular Mass": "223.27",
        "Melting Point": "192-193 °C"
    }
}