{
    "cas_no": "99-97-8",
    "key_name": "Dimethyl-<em>p</em>-toluidine",
    "cn_name": null,
    "alternate_name": "Benzenamine, <em>N</em>,<em>N</em>,4-trimethyl-;<em>p</em>-Toluidine, <em>N</em>,<em>N</em>-dimethyl-;<em>N</em>,<em>N</em>,4-Trimethylbenzenamine;<em>N</em>,<em>N</em>-Dimethyl-<em>p</em>-toluidine;<em>p</em>-Methyl-<em>N</em>,<em>N</em>-dimethylaniline;Dimethyl-<em>p</em>-toluidine;<em>N</em>,<em>N</em>-Dimethyl-<em>p</em>-tolylamine;<em>N</em>,<em>N</em>-Dimethyl-4-methylaniline;<em>p</em>,<em>N</em>,<em>N</em>-Trimethylaniline;<em>N</em>,<em>N</em>,4-Trimethylaniline;<em>p</em>-(Dimethylamino)toluene;<em>N</em>,<em>N</em>-Dimethyl-<em>p</em>-methylphenylamine;<em>N</em>,<em>N</em>-Dimethyl-1,4-toluidine;<em>N</em>,<em>N</em>-Dimethyl-<em>p</em>-toluidene;1-(Dimethylamino)-4-methylbenzene;NSC 1785;NL 65-100;4-Dimethylamino-1-methylbenzene;<em>N</em>,<em>N</em>-Dimethyl-<em>p</em>-methylaniline;4-(Dimethylamino)toluene;FirstCure DMPT;AC 103 (amine);AC 103",
    "duplicated_cas_no": "129899-34-9",
    "SMILES": "N(C)(C)C1=CC=C(C)C=C1",
    "meta_data": {
        "InChI": "InChI=1S/C9H13N/c1-8-4-6-9(7-5-8)10(2)3/h4-7H,1-3H3",
        "InChIKey": null,
        "Canonical SMILES": "C=1C=C(C=CC1N(C)C)C",
        "Molecular Formula": "C<sub>9</sub>H<sub>13</sub>N",
        "Molecular Mass": "135.21",
        "Boiling Point": "215 °C",
        "Melting Point": "113-115 °C",
        "Density": "0.9 g/cm³"
    }
}