{
    "cas_no": "5689-59-8",
    "key_name": "<em>N</em>-1-Adamantyl-2-chloroacetamide",
    "cn_name": null,
    "alternate_name": "Acetamide, 2-chloro-<em>N</em>-tricyclo[3.3.1.1<sup>3,7</sup>]dec-1-yl-;Acetamide, <em>N</em>-1-adamantyl-2-chloro-;2-Chloro-<em>N</em>-tricyclo[3.3.1.1<sup>3,7</sup>]dec-1-ylacetamide;<em>N</em>-Chloroacetyl-1-aminoadamantane;1-Chloroacetylaminoadamantane;<em>N</em>-1-Adamantyl-2-chloroacetamide;<em>N</em>-(Adamantan-1-yl)-2-chloroacetamide",
    "duplicated_cas_no": "57277-30-2",
    "SMILES": "N(C(CCl)=O)C12CC3CC(C1)CC(C2)C3",
    "meta_data": {
        "InChI": "InChI=1S/C12H18ClNO/c13-7-11(15)14-12-4-8-1-9(5-12)3-10(2-8)6-12/h8-10H,1-7H2,(H,14,15)",
        "InChIKey": null,
        "Canonical SMILES": "O=C(NC12CC3CC(CC(C3)C1)C2)CCl",
        "Molecular Formula": "C<sub>12</sub>H<sub>18</sub>ClNO",
        "Molecular Mass": "227.73",
        "Melting Point": "113-115 °C"
    }
}