{
    "cas_no": "107-95-9",
    "key_name": "β-Alanine",
    "cn_name": "beta-氨基丙酸;",
    "alternate_name": "β-Alanine;3-Aminopropanoic acid;β-Aminopropionic acid;Propanoic acid, 3-amino-;3-Aminopropionic acid;Abufene;ω-Aminopropionic acid;2-Carboxyethylamine;β-Aminopropanoic acid;NSC 7603;3-Azaniumylpropanoate;MeSH ID: D015091",
    "duplicated_cas_no": "87867-95-6",
    "SMILES": "C(C(O)=O)CN",
    "meta_data": {
        "InChI": "InChI=1S/C3H7NO2/c4-2-1-3(5)6/h1-2,4H2,(H,5,6)",
        "InChIKey": null,
        "Canonical SMILES": "O=C(O)CCN",
        "Molecular Formula": "C<sub>3</sub>H<sub>7</sub>NO<sub>2</sub>",
        "Molecular Mass": "89.09",
        "Melting Point": "200 °C (decomp)",
        "Density": "1.437 g/cm³ @ Temp: -5 °C"
    }
}