{
    "cas_no": "1633-84-7",
    "key_name": "4-Chloro-1-butanesulfonyl chloride",
    "cn_name": null,
    "alternate_name": "1-Butanesulfonyl chloride, 4-chloro-;4-Chloro-1-butanesulfonyl chloride;4-Chlorobutanesulfonyl chloride;1-Chloro-4-butanesulfonyl chloride",
    "duplicated_cas_no": "",
    "SMILES": "C(S(Cl)(=O)=O)CCCCl",
    "meta_data": {
        "InChI": "InChI=1S/C4H8Cl2O2S/c5-3-1-2-4-9(6,7)8/h1-4H2",
        "InChIKey": null,
        "Canonical SMILES": "O=S(=O)(Cl)CCCCCl",
        "Molecular Formula": "C<sub>4</sub>H<sub>8</sub>Cl<sub>2</sub>O<sub>2</sub>S",
        "Molecular Mass": "191.08",
        "Boiling Point": "123 °C @ Press: 12 Torr"
    }
}