{
    "cas_no": "28664-35-9",
    "key_name": "Sotolone",
    "cn_name": "葫芦巴内酯;3-羟基-4,5-二甲基-2(5H)呋喃酮;",
    "alternate_name": "2(5<em>H</em>)-Furanone, 3-hydroxy-4,5-dimethyl-;3-Hydroxy-4,5-dimethyl-2(5<em>H</em>)-furanone;3,4-Dimethyl-2-hydroxy-2-butan-1,4-olide;Sotolone;4,5-Dimethyl-3-hydroxy-2(5<em>H</em>)-furanone;Sautalone;4,5-Dimethyl-3-hydroxy-2,5-dihydrofuran-2-one;Sotolon",
    "duplicated_cas_no": "87021-36-1",
    "SMILES": "CC1=C(O)C(=O)OC1C",
    "meta_data": {
        "InChI": "InChI=1S/C6H8O3/c1-3-4(2)9-6(8)5(3)7/h4,7H,1-2H3",
        "InChIKey": null,
        "Canonical SMILES": "O=C1OC(C(=C1O)C)C",
        "Molecular Formula": "C<sub>6</sub>H<sub>8</sub>O<sub>3</sub>",
        "Molecular Mass": "128.13",
        "Boiling Point": "82-84 °C @ Press: 0.02 Torr"
    }
}