{
    "cas_no": "617-83-4",
    "key_name": "Diethylcyanamide",
    "cn_name": "二乙基氨腈;二乙氨基氰;氰化二乙胺;N-氰基二乙基胺;二乙(基)氨基氰;二乙氨基腈;二乙基氰胺;N-氰基二乙胺;N-;",
    "alternate_name": "Cyanamide, <em>N</em>,<em>N</em>-diethyl-;Cyanamide, diethyl-;<em>N</em>,<em>N</em>-Diethylcyanamide;Diethylcyanamide;(Diethylamino)carbonitrile;<em>N</em>-Cyanodiethylamine;NSC 7768",
    "duplicated_cas_no": "",
    "SMILES": "N(CC)(CC)C#N",
    "meta_data": {
        "InChI": "InChI=1S/C5H10N2/c1-3-7(4-2)5-6/h3-4H2,1-2H3",
        "InChIKey": null,
        "Canonical SMILES": "N#CN(CC)CC",
        "Molecular Formula": "C<sub>5</sub>H<sub>10</sub>N<sub>2</sub>",
        "Molecular Mass": "98.15",
        "Boiling Point": "188 °C",
        "Melting Point": "-80.6 °C",
        "Density": "0.8540 g/cm³ @ Temp: 20 °C"
    }
}