{
    "cas_no": "20031-21-4",
    "key_name": "1,2-<em>O</em>-Isopropylidene-α-<span class=\"text-smallcaps\">D</span>-xylofuranose",
    "cn_name": "1,2-O-异亚丙基-alpha-D-呋喃木糖; 单丙酮-D-木糖;",
    "alternate_name": "α-<span class=\"text-smallcaps\">D</span>-Xylofuranose, 1,2-<em>O</em>-(1-methylethylidene)-;Xylofuranose, 1,2-<em>O</em>-isopropylidene-, α-<span class=\"text-smallcaps\">D</span>-;Xylofuranose, 1,2-<em>O</em>-isopropylidene-;Furo[2,3-<em>d</em>]-1,3-dioxole, α-<span class=\"text-smallcaps\">D</span>-xylofuranose deriv.;1,2-<em>O</em>-(1-Methylethylidene)-α-<span class=\"text-smallcaps\">D</span>-xylofuranose;1,2-<em>O</em>-Isopropylidene-α-<span class=\"text-smallcaps\">D</span>-xylofuranose;1,2-<em>O</em>-Isopropylidene-<span class=\"text-smallcaps\">D</span>-xylofuranose;1,2-Di-<em>O</em>-isopropylidene-α-<span class=\"text-smallcaps\">D</span>-xylofuranose",
    "duplicated_cas_no": "",
    "SMILES": "O[C@@H]1[C@@]2([C@](O[C@@H]1CO)(OC(C)(C)O2)[H])[H]",
    "meta_data": {
        "InChI": "InChI=1S/C8H14O5/c1-8(2)12-6-5(10)4(3-9)11-7(6)13-8/h4-7,9-10H,3H2,1-2H3/t4-,5+,6-,7-/m1/s1",
        "InChIKey": null,
        "Canonical SMILES": "OCC1OC2OC(OC2C1O)(C)C",
        "Molecular Formula": "C<sub>8</sub>H<sub>14</sub>O<sub>5</sub>",
        "Molecular Mass": "190.19",
        "Boiling Point": "150-151 °C @ Press: 760 Torr",
        "Melting Point": "40-41 °C"
    }
}