{
    "cas_no": "22368-21-4",
    "key_name": "Eupatilin",
    "cn_name": "异泽兰黄素; 2-(3,4-二甲氧基苯基)-5,7-二羟基-6-甲氧基苯并吡喃-4-酮;",
    "alternate_name": "4<em>H</em>-1-Benzopyran-4-one, 2-(3,4-dimethoxyphenyl)-5,7-dihydroxy-6-methoxy-;Flavone, 5,7-dihydroxy-3′,4′,6-trimethoxy-;2-(3,4-Dimethoxyphenyl)-5,7-dihydroxy-6-methoxy-4<em>H</em>-1-benzopyran-4-one;Eupatilin;5,7-Dihydroxy-3′,4′,6-trimethoxyflavone;NSC 122413;Stillen;5,7-Dihydroxy-6,3′,4′-trimethoxyflavone;2-(3,4-Dimethoxyphenyl)-5,7-dihydroxy-6-methoxychromen-4-one",
    "duplicated_cas_no": "794588-24-2",
    "SMILES": "OC1=C2C(OC(=CC2=O)C3=CC(OC)=C(OC)C=C3)=CC(O)=C1OC",
    "meta_data": {
        "InChI": "InChI=1S/C18H16O7/c1-22-12-5-4-9(6-14(12)23-2)13-7-10(19)16-15(25-13)8-11(20)18(24-3)17(16)21/h4-8,20-21H,1-3H3",
        "InChIKey": null,
        "Canonical SMILES": "O=C1C=C(OC2=CC(O)=C(OC)C(O)=C12)C=3C=CC(OC)=C(OC)C3",
        "Molecular Formula": "C<sub>18</sub>H<sub>16</sub>O<sub>7</sub>",
        "Molecular Mass": "344.32",
        "Melting Point": "236-238 °C"
    }
}