{
    "cas_no": "1460-02-2",
    "key_name": "1,3,5-Tri-<em>tert</em>-butylbenzene",
    "cn_name": "1,3,5-三叔丁基苯;",
    "alternate_name": "Benzene, 1,3,5-tris(1,1-dimethylethyl)-;Benzene, 1,3,5-tri-<em>tert</em>-butyl-;1,3,5-Tris(1,1-dimethylethyl)benzene;1,3,5-Tri-<em>tert</em>-butylbenzene;1,3,5-Tri-<em>t</em>-butylbenzene;1,3,5-Tris(<em>tert</em>-butyl)benzene;1,3,5-Tritert-butylbenzene",
    "duplicated_cas_no": "",
    "SMILES": "C(C)(C)(C)C1=CC(C(C)(C)C)=CC(C(C)(C)C)=C1",
    "meta_data": {
        "InChI": "InChI=1S/C18H30/c1-16(2,3)13-10-14(17(4,5)6)12-15(11-13)18(7,8)9/h10-12H,1-9H3",
        "InChIKey": null,
        "Canonical SMILES": "C=1C(=CC(=CC1C(C)(C)C)C(C)(C)C)C(C)(C)C",
        "Molecular Formula": "C<sub>18</sub>H<sub>30</sub>",
        "Molecular Mass": "246.43",
        "Boiling Point": "115-130 °C @ Press: 10 Torr",
        "Melting Point": "73 °C",
        "Density": "0.851 g/cm³ @ Temp: 25 °C; Press: 750 Torr"
    }
}