{
    "cas_no": "6665-83-4",
    "key_name": "6-Hydroxyflavone",
    "cn_name": "6-羟基黄酮;6-羟基黄酮;",
    "alternate_name": "4<em>H</em>-1-Benzopyran-4-one, 6-hydroxy-2-phenyl-;Flavone, 6-hydroxy-;6-Hydroxy-2-phenyl-4<em>H</em>-1-benzopyran-4-one;6-Hydroxyflavone;NSC 26744;6-Hydroxy-2-phenyl-4<em>H</em>-chromen-4-one;6-Flavonol",
    "duplicated_cas_no": "",
    "SMILES": "O=C1C=2C(OC(=C1)C3=CC=CC=C3)=CC=C(O)C2",
    "meta_data": {
        "InChI": "InChI=1S/C15H10O3/c16-11-6-7-14-12(8-11)13(17)9-15(18-14)10-4-2-1-3-5-10/h1-9,16H",
        "InChIKey": null,
        "Canonical SMILES": "O=C1C=C(OC2=CC=C(O)C=C12)C=3C=CC=CC3",
        "Molecular Formula": "C<sub>15</sub>H<sub>10</sub>O<sub>3</sub>",
        "Molecular Mass": "238.24",
        "Melting Point": "239 °C",
        "Density": "1.411 g/cm³"
    }
}