{
    "cas_no": "142-19-8",
    "key_name": "Allyl heptanoate",
    "cn_name": "庚酸烯丙酯;庚酸-2-丙烯酯;",
    "alternate_name": "Heptanoic acid, 2-propen-1-yl ester;Heptanoic acid, allyl ester;Heptanoic acid, 2-propenyl ester;Allyl enanthate;Allyl heptanoate;Allyl heptoate;Allyl heptylate;2-Propenyl heptanoate;NSC 20969",
    "duplicated_cas_no": "",
    "SMILES": "C(C(OCC=C)=O)CCCCC",
    "meta_data": {
        "InChI": "InChI=1S/C10H18O2/c1-3-5-6-7-8-10(11)12-9-4-2/h4H,2-3,5-9H2,1H3",
        "InChIKey": null,
        "Canonical SMILES": "O=C(OCC=C)CCCCCC",
        "Molecular Formula": "C<sub>10</sub>H<sub>18</sub>O<sub>2</sub>",
        "Molecular Mass": "170.25",
        "Boiling Point": "209-210 °C @ Press: 760 Torr"
    }
}