{
    "cas_no": "16721-80-5",
    "key_name": "Sodium hydrosulfide",
    "cn_name": "硫氢化钠;",
    "alternate_name": "Sodium sulfide (Na(SH));Sodium sulfide (Na(HS));Sodium bisulfide;Sodium hydrosulfide;Sodium hydrogen sulfide;Sodium mercaptide;Sodium hydrosulfide (Na(HS));Sodium sulfhydrate;Sodium mercaptan;Hydrogen sodium sulfide;Sodium hydrogen sulfide (NaHS);Hydrogen sodium sulfide (HNaS);NSC 158264;Sodium sulfide",
    "duplicated_cas_no": "1310-76-5;64568-18-9;111883-06-8;2267987-01-7",
    "SMILES": "[Na]S",
    "meta_data": {
        "InChI": "InChI=1S/Na.H2S/h;1H2/q+1;/p-1",
        "InChIKey": null,
        "Canonical SMILES": "[Na]S",
        "Molecular Formula": "HNaS",
        "Molecular Mass": "",
        "Melting Point": "350 °C",
        "Density": "1.79 g/cm³"
    }
}