{
    "cas_no": "20559-55-1",
    "key_name": "Oxibendazole",
    "cn_name": "奥苯达唑;丙氧咪唑;",
    "alternate_name": "Carbamic acid, <em>N</em>-(6-propoxy-1<em>H</em>-benzimidazol-2-yl)-, methyl ester;2-Benzimidazolecarbamic acid, 5-propoxy-, methyl ester;Carbamic acid, (5-propoxy-1<em>H</em>-benzimidazol-2-yl)-, methyl ester;5-Propoxy-2-(carbomethoxyamino)benzimidazole;Methyl 5-propoxybenzimidazole-2-carbamate;Oxibendazole;Methyl (5-<em>n</em>-propoxy-2-benzimidazolyl)carbamate;Loditac;Anthelcide EQ",
    "duplicated_cas_no": "67049-95-0",
    "SMILES": "N(C(OC)=O)C=1NC=2C(N1)=CC(OCCC)=CC2",
    "meta_data": {
        "InChI": "InChI=1S/C12H15N3O3/c1-3-6-18-8-4-5-9-10(7-8)14-11(13-9)15-12(16)17-2/h4-5,7H,3,6H2,1-2H3,(H2,13,14,15,16)",
        "InChIKey": null,
        "Canonical SMILES": "O=C(OC)NC1=NC=2C=C(OCCC)C=CC2N1",
        "Molecular Formula": "C<sub>12</sub>H<sub>15</sub>N<sub>3</sub>O<sub>3</sub>",
        "Molecular Mass": "249.27",
        "Melting Point": "230 °C"
    }
}