{
    "cas_no": "5910-89-4",
    "key_name": "2,3-Dimethylpyrazine",
    "cn_name": "2,3-二甲基吡嗪;",
    "alternate_name": "Pyrazine, 2,3-dimethyl-;2,3-Dimethylpyrazine",
    "duplicated_cas_no": "",
    "SMILES": "CC=1C(C)=NC=CN1",
    "meta_data": {
        "InChI": "InChI=1S/C6H8N2/c1-5-6(2)8-4-3-7-5/h3-4H,1-2H3",
        "InChIKey": null,
        "Canonical SMILES": "N=1C=CN=C(C1C)C",
        "Molecular Formula": "C<sub>6</sub>H<sub>8</sub>N<sub>2</sub>",
        "Molecular Mass": "108.14",
        "Boiling Point": "156 °C",
        "Density": "1.005 g/cm³"
    }
}