{
    "cas_no": "699-18-3",
    "key_name": "2-(2-Nitroethenyl)furan",
    "cn_name": "1-(2-糠酰)-2-硝基乙烯;",
    "alternate_name": "Furan, 2-(2-nitroethenyl)-;Furan, 2-(2-nitrovinyl)-;2-(2-Nitroethenyl)furan;2-(2-Nitrovinyl)furan;2-Furylnitroethylene;1-(α-Furyl)-2-nitroethylene;1-(2-Furyl)-2-nitroethene;NSC 5650;G 0;2-(Furan-2-yl)nitroethylene",
    "duplicated_cas_no": "",
    "SMILES": "C(=CN(=O)=O)C1=CC=CO1",
    "meta_data": {
        "InChI": "InChI=1S/C6H5NO3/c8-7(9)4-3-6-2-1-5-10-6/h1-5H",
        "InChIKey": null,
        "Canonical SMILES": "O=N(=O)C=CC=1OC=CC1",
        "Molecular Formula": "C<sub>6</sub>H<sub>5</sub>NO<sub>3</sub>",
        "Molecular Mass": "139.11",
        "Melting Point": "74-75 °C"
    }
}