{
    "cas_no": "120-33-2",
    "key_name": "Ethyl 3-methylbenzoate",
    "cn_name": "3-甲基苯甲酸乙酯;间甲基苯甲酸乙酯;",
    "alternate_name": "Benzoic acid, 3-methyl-, ethyl ester;<em>m</em>-Toluic acid, ethyl ester;Ethyl 3-methylbenzoate;Ethyl <em>m</em>-toluate;Ethyl <em>m</em>-methylbenzoate;3-Methylbenzoic acid ethyl ester;NSC 20009",
    "duplicated_cas_no": "",
    "SMILES": "C(OCC)(=O)C1=CC(C)=CC=C1",
    "meta_data": {
        "InChI": "InChI=1S/C10H12O2/c1-3-12-10(11)9-6-4-5-8(2)7-9/h4-7H,3H2,1-2H3",
        "InChIKey": null,
        "Canonical SMILES": "O=C(OCC)C1=CC=CC(=C1)C",
        "Molecular Formula": "C<sub>10</sub>H<sub>12</sub>O<sub>2</sub>",
        "Molecular Mass": "164.20",
        "Boiling Point": "234 °C"
    }
}