{
    "cas_no": "598-56-1",
    "key_name": "Dimethylethylamine",
    "cn_name": "N,N-二甲基乙胺;N,N-二甲基乙基胺;",
    "alternate_name": "Ethanamine, <em>N</em>,<em>N</em>-dimethyl-;Ethylamine, <em>N</em>,<em>N</em>-dimethyl-;<em>N</em>,<em>N</em>-Dimethylethanamine;Dimethylethylamine;<em>N</em>,<em>N</em>-Dimethylethylamine;Methanamine, <em>N</em>-ethyl-<em>N</em>-methyl-;<em>N</em>-Ethyldimethylamine;<em>N</em>,<em>N</em>-Dimethylaminoethane;DMEA",
    "duplicated_cas_no": "",
    "SMILES": "N(CC)(C)C",
    "meta_data": {
        "InChI": "InChI=1S/C4H11N/c1-4-5(2)3/h4H2,1-3H3",
        "InChIKey": null,
        "Canonical SMILES": "N(C)(C)CC",
        "Molecular Formula": "C<sub>4</sub>H<sub>11</sub>N",
        "Molecular Mass": "73.14",
        "Boiling Point": "36.5 °C",
        "Melting Point": "-140 °C"
    }
}