{
    "cas_no": "26628-22-8",
    "key_name": "Sodium azide",
    "cn_name": "叠氮化钠;迭氮化钠;叠氮钠;",
    "alternate_name": "Sodium azide (Na(N<sub>3</sub>));Sodium azide;Hydrazoic acid, sodium salt;Nemazyd;NSC 3072;SEP 100;Agrizide;Micro-<em>O</em>-Protect;MeSH ID: D019810",
    "duplicated_cas_no": "108592-00-3;12136-89-9;20828-18-6;503002-54-8;575502-02-2;157302-08-4",
    "SMILES": "[N+](=N[Na])=[N-]",
    "meta_data": {
        "InChI": "InChI=1S/N3.Na/c1-3-2;/q-1;+1",
        "InChIKey": null,
        "Canonical SMILES": "[N-]=[N+]=N[Na]",
        "Molecular Formula": "N<sub>3</sub>Na",
        "Molecular Mass": "",
        "Melting Point": "275 °C (decomp)",
        "Density": "1.846 g/cm³ @ Temp: 20 °C"
    }
}