{
    "cas_no": "487-03-6",
    "key_name": "Harmol",
    "cn_name": "哈尔酚;",
    "alternate_name": "9<em>H</em>-Pyrido[3,4-<em>b</em>]indol-7-ol, 1-methyl-;Harmol;1-Methyl-9<em>H</em>-pyrido[3,4-<em>b</em>]indol-7-ol;NSC 72292",
    "duplicated_cas_no": "50674-97-0",
    "SMILES": "CC1=C2C(C=3C(N2)=CC(O)=CC3)=CC=N1",
    "meta_data": {
        "InChI": "InChI=1S/C12H10N2O/c1-7-12-10(4-5-13-7)9-3-2-8(15)6-11(9)14-12/h2-6,14-15H,1H3",
        "InChIKey": null,
        "Canonical SMILES": "OC=1C=CC2=C(C1)NC3=C2C=CN=C3C",
        "Molecular Formula": "C<sub>12</sub>H<sub>10</sub>N<sub>2</sub>O",
        "Molecular Mass": "198.22",
        "Melting Point": "304-307 °C"
    }
}