{
    "cas_no": "5350-41-4",
    "key_name": "Benzyltrimethylammonium bromide",
    "cn_name": "苄基三甲基溴化铵;",
    "alternate_name": "Benzenemethanaminium, <em>N</em>,<em>N</em>,<em>N</em>-trimethyl-, bromide (1:1);Ammonium, benzyltrimethyl-, bromide;Benzyltrimethylammonium bromide;Benzenemethanaminium, <em>N</em>,<em>N</em>,<em>N</em>-trimethyl-, bromide;Trimethylbenzylammonium bromide;<em>N</em>-Benzyl-<em>N</em>,<em>N</em>,<em>N</em>-trimethylammonium bromide;<em>N</em>,<em>N</em>,<em>N</em>-Trimethyl-<em>N</em>-benzylammonium bromide",
    "duplicated_cas_no": "",
    "SMILES": "C([N+](C)(C)C)C1=CC=CC=C1.[Br-]",
    "meta_data": {
        "InChI": "InChI=1S/C10H16N.BrH/c1-11(2,3)9-10-7-5-4-6-8-10;/h4-8H,9H2,1-3H3;1H/q+1;/p-1",
        "InChIKey": null,
        "Canonical SMILES": "[Br-].C=1C=CC(=CC1)C[N+](C)(C)C",
        "Molecular Formula": "C<sub>10</sub>H<sub>16</sub>N.Br",
        "Molecular Mass": "",
        "Melting Point": "230-232 °C"
    }
}