{
    "cas_no": "1165-91-9",
    "key_name": "Bis(2,4,6-trichlorophenyl) oxalate",
    "cn_name": "双(2,4,6-三氯苯基)草酸酯;双三氯苯基草酸酯;",
    "alternate_name": "Ethanedioic acid, 1,2-bis(2,4,6-trichlorophenyl) ester;Oxalic acid, bis(2,4,6-trichlorophenyl) ester;Ethanedioic acid, bis(2,4,6-trichlorophenyl) ester;Phenol, 2,4,6-trichloro-, oxalate (2:1);Bis(2,4,6-trichlorophenyl) oxalate;TCPO;Bis(2,4,6-trichlorophenyl) oxalic acid ester;TCPO (oxalate)",
    "duplicated_cas_no": "",
    "SMILES": "O(C(C(OC1=C(Cl)C=C(Cl)C=C1Cl)=O)=O)C2=C(Cl)C=C(Cl)C=C2Cl",
    "meta_data": {
        "InChI": "InChI=1S/C14H4Cl6O4/c15-5-1-7(17)11(8(18)2-5)23-13(21)14(22)24-12-9(19)3-6(16)4-10(12)20/h1-4H",
        "InChIKey": null,
        "Canonical SMILES": "O=C(OC=1C(Cl)=CC(Cl)=CC1Cl)C(=O)OC=2C(Cl)=CC(Cl)=CC2Cl",
        "Molecular Formula": "C<sub>14</sub>H<sub>4</sub>Cl<sub>6</sub>O<sub>4</sub>",
        "Molecular Mass": "448.90",
        "Melting Point": "187-189 °C"
    }
}