{
    "cas_no": "96-99-1",
    "key_name": "4-Chloro-3-nitrobenzoic acid",
    "cn_name": "4-氯-3-硝基苯甲酸;",
    "alternate_name": "Benzoic acid, 4-chloro-3-nitro-;4-Chloro-3-nitrobenzoic acid;3-Nitro-4-chlorobenzoic acid;6-Chloro-3-carboxynitrobenzene;NSC 8440",
    "duplicated_cas_no": "",
    "SMILES": "N(=O)(=O)C1=CC(C(O)=O)=CC=C1Cl",
    "meta_data": {
        "InChI": "InChI=1S/C7H4ClNO4/c8-5-2-1-4(7(10)11)3-6(5)9(12)13/h1-3H,(H,10,11)",
        "InChIKey": null,
        "Canonical SMILES": "O=C(O)C1=CC=C(Cl)C(=C1)N(=O)=O",
        "Molecular Formula": "C<sub>7</sub>H<sub>4</sub>ClNO<sub>4</sub>",
        "Molecular Mass": "201.56",
        "Melting Point": "182.8 °C",
        "Density": "1.687 g/cm³"
    }
}