{
    "cas_no": "123-99-9",
    "key_name": "Azelaic acid",
    "cn_name": "壬二酸;杜鹃花酸;",
    "alternate_name": "Nonanedioic acid;Azelaic acid;Anchoic acid;1,7-Heptanedicarboxylic acid;Lepargylic acid;Emerox 1144;1,9-Nonanedioic acid;1,7-Dicarboxyheptane;<em>n</em>-Nonanedioic acid;Emery 1110;ZK 62498;Skinoren;Empol 1144;NSC 19493;Finacea;Emery 1144;Azelic acid;α,ω-Nonanedioic acid;Aziderm;Azelex;Crodacid DC 1195",
    "duplicated_cas_no": "1219811-33-2",
    "SMILES": "C(CC(O)=O)CCCCCC(O)=O",
    "meta_data": {
        "InChI": "InChI=1S/C9H16O4/c10-8(11)6-4-2-1-3-5-7-9(12)13/h1-7H2,(H,10,11)(H,12,13)",
        "InChIKey": null,
        "Canonical SMILES": "O=C(O)CCCCCCCC(=O)O",
        "Molecular Formula": "C<sub>9</sub>H<sub>16</sub>O<sub>4</sub>",
        "Molecular Mass": "188.22",
        "Boiling Point": "286.5 °C",
        "Melting Point": "106.5 °C",
        "Density": "1.251 g/cm³"
    }
}