{
    "cas_no": "5874-90-8",
    "key_name": "Trialanine",
    "cn_name": null,
    "alternate_name": "<span class=\"text-smallcaps\">L</smallcap>-Alanine, <smallcap>L</smallcap>-alanyl-<smallcap>L</span>-alanyl-;Alanine, <em>N</em>-(<em>N</em>-<span class=\"text-smallcaps\">L</smallcap>-alanyl-<smallcap>L</smallcap>-alanyl)-, <smallcap>L</span>-;<span class=\"text-smallcaps\">L</smallcap>-Alanine, <em>N</em>-(<em>N</em>-<smallcap>L</smallcap>-alanyl-<smallcap>L</span>-alanyl)-;Alanine, <em>N</em>-(<em>N</em>-alanylalanyl)-;<span class=\"text-smallcaps\">L</smallcap>-Alanyl-<smallcap>L</smallcap>-alanyl-<smallcap>L</span>-alanine;Tri-<span class=\"text-smallcaps\">L</span>-alanine;<span class=\"text-smallcaps\">L</smallcap>-Ala-<smallcap>L</smallcap>-ala-<smallcap>L</span>-ala;Trialanine;<span class=\"text-smallcaps\">L</span>-Alanine trimer;<span class=\"text-smallcaps\">L</smallcap>-Alanine-<smallcap>L</smallcap>-alanine-<smallcap>L</span>-alanine;Alanylalanylalanine;8: PN: WO02053172 SEQID: 9 claimed protein;125: PN: WO2006024694 SEQID: 125 claimed protein;8: PN: WO2008030988 SEQID: 18 claimed protein;40: PN: WO2010080836 SEQID: 41 claimed protein;2188: PN: WO2010080819 SEQID: 3215 claimed protein;971: PN: WO2010091294 SEQID: 1936 claimed protein;134: PN: WO2010139808 SEQID: 134 unclaimed protein;7: PN: JP2011046637 PAGE: 2 claimed sequence;65: PN: WO2011064382 SEQID: 65 unclaimed protein;51: PN: JP2012017281 PAGE: 3 claimed sequence;170: PN: WO2012013326 SEQID: 173 unclaimed sequence;1: PN: WO2012089814 SEQID: 29 claimed protein;54: PN: WO2013041722 SEQID: 55 unclaimed protein;245: PN: US20130224224 SEQID: 248 unclaimed protein;1: PN: US20130273027 SEQID: 65 claimed sequence;26: PN: WO2013156148 SEQID: 27 unclaimed protein;1: PN: WO2015097268 PAGE: 44 claimed sequence;4: PN: WO2016096741 SEQID: 27 claimed protein;677: PN: WO2016110584 SEQID: 677 claimed protein;28: PN: US20160367463 SEQID: 29 claimed protein;28: PN: WO2016204841 SEQID: 29 claimed protein;157: PN: US20170096483 SEQID: 158 claimed protein;150: PN: WO2017068186 SEQID: 247 claimed protein;39: PN: WO2017089618 SEQID: 77 claimed protein;3241: PN: WO2017120222 SEQID: 3401 claimed protein;11: PN: WO2018022936 SEQID: 146 claimed sequence;58: PN: WO2018050833 SEQID: 102 claimed protein;12: PN: WO2018085400 TABLE: 4 claimed sequence;202: PN: WO2018091606 SEQID: 336 claimed protein;79: PN: WO2018102597 SEQID: 158 claimed protein;25: PN: WO2018217564 SEQID: 54 claimed protein;57: PN: WO2019056023 SEQID: 57 claimed protein;2: PN: JP2019112401 FIGURE: 3 claimed sequence;4: PN: IN2015MU00116 PAGE: 28 claimed sequence;6: PN: WO2020056127 SEQID: 38 claimed sequence;14: PN: WO2020072390 SEQID: 22 claimed protein;29: PN: WO2020142103 SEQID: 29 claimed protein;5: PN: CN111647081 SEQID: 5 claimed sequence;53: PN: WO2020191344 SEQID: 57 claimed protein;95: PN: WO2021062361 SEQID: 102 claimed protein;47: PN: WO2021202908 SEQID: 47 claimed protein;15: PN: WO2021213421 SEQID: 27 claimed protein;43: PN: WO2022026358 SEQID: 52 claimed protein;690: PN: WO2022033419 SEQID: 718 claimed protein;49: PN: WO2022035793 SEQID: 51 claimed protein;524: PN: WO2022056313 SEQID: 540 claimed protein;166: PN: WO2022076898 SEQID: 275 claimed protein;369: PN: US20220128567 SEQID: 540 claimed protein;369: PN: US20220178935 SEQID: 540 claimed protein;99: PN: WO2022129560 SEQID: 99 claimed protein;47: PN: US20220218813 SEQID: 48 claimed protein;39: PN: WO2022192281 SEQID: 102 claimed protein;25: PN: WO2023086336 SEQID: 194 claimed sequence;59: PN: WO2023081266 SEQID: 163 claimed sequence;1: PN: WO2023089191 SEQID: 1 claimed sequence;228: PN: WO2023091949 PAGE: 358 claimed sequence;1: PN: WO2023114176 SEQID: 102 claimed sequence;1: PN: WO2023172741 SEQID: 72 claimed sequence;1: PN: CA3160388 PAGE: 37 claimed sequence;4: PN: WO2024081929 PAGE: 122 claimed sequence;3: PN: WO2024081871 PAGE: 168 claimed sequence",
    "duplicated_cas_no": "2609-76-9",
    "SMILES": "[C@H](C(N[C@H](C(O)=O)C)=O)(NC([C@H](C)N)=O)C",
    "meta_data": {
        "InChI": "InChI=1S/C9H17N3O4/c1-4(10)7(13)11-5(2)8(14)12-6(3)9(15)16/h4-6H,10H2,1-3H3,(H,11,13)(H,12,14)(H,15,16)/t4-,5-,6-/m0/s1",
        "InChIKey": null,
        "Canonical SMILES": "O=C(O)C(NC(=O)C(NC(=O)C(N)C)C)C",
        "Molecular Formula": "C<sub>9</sub>H<sub>17</sub>N<sub>3</sub>O<sub>4</sub>",
        "Molecular Mass": "231.25",
        "Melting Point": "250-253 °C (decomp)"
    }
}