{
    "cas_no": "1198-63-6",
    "key_name": "2,4,5,6-Tetrafluoro-1,3-benzenediamine",
    "cn_name": "2,4,5,6-四氟-1,3-苯二胺;1,3二氨-2,4,5,6-四苯氟;",
    "alternate_name": "1,3-Benzenediamine, 2,4,5,6-tetrafluoro-;<em>m</em>-Phenylenediamine, 2,4,5,6-tetrafluoro-;2,4,5,6-Tetrafluoro-1,3-benzenediamine;Tetrafluoro-<em>m</em>-phenylenediamine;1,3-Diaminotetrafluorobenzene;2,4,5,6-Tetrafluorophenylene-1,3-diamine;1,3-Diamino-2,4,5,6-tetrafluorobenzene;NSC 114705",
    "duplicated_cas_no": "",
    "SMILES": "FC1=C(F)C(N)=C(F)C(N)=C1F",
    "meta_data": {
        "InChI": "InChI=1S/C6H4F4N2/c7-1-2(8)5(11)4(10)6(12)3(1)9/h11-12H2",
        "InChIKey": null,
        "Canonical SMILES": "FC=1C(F)=C(N)C(F)=C(N)C1F",
        "Molecular Formula": "C<sub>6</sub>H<sub>4</sub>F<sub>4</sub>N<sub>2</sub>",
        "Molecular Mass": "180.10",
        "Melting Point": "128-129 °C"
    }
}