{
    "cas_no": "84605-18-5",
    "key_name": "Cyclogalegenin",
    "cn_name": null,
    "alternate_name": "9,19-Cyclolanostane-3,6,16,25-tetrol, 20,24-epoxy-, (3β,6α,16β,24<em>R</em>)-;1<em>H</em>,19<em>H</em>-Cyclopropa[9,10]cyclopenta[<em>a</em>]phenanthrene, 9,19-cyclolanostane-3,6,16,25-tetrol deriv.;(3β,6α,16β,24<em>R</em>)-20,24-Epoxy-9,19-cyclolanostane-3,6,16,25-tetrol;Cyclogalegenin;Cyclogalagenin;Cyclogalegigenin",
    "duplicated_cas_no": "",
    "SMILES": "C[C@]12[C@]3([C@]4([C@]5(C4)[C@@]([C@@H](O)C3)(C(C)(C)[C@@H](O)CC5)[H])CC[C@]1(C)[C@]([C@@H](O)C2)([C@@]6(C)O[C@@H]([C@@](C)(C)O)CC6)[H])[H]",
    "meta_data": {
        "InChI": "InChI=1S/C30H50O5/c1-24(2)20(33)8-11-30-16-29(30)13-12-26(5)23(28(7)10-9-21(35-28)25(3,4)34)18(32)15-27(26,6)19(29)14-17(31)22(24)30/h17-23,31-34H,8-16H2,1-7H3/t17-,18-,19-,20-,21+,22-,23-,26+,27-,28-,29-,30+/m0/s1",
        "InChIKey": null,
        "Canonical SMILES": "OC1CC2C3(C)CC(O)C(C4(OC(CC4)C(O)(C)C)C)C3(C)CCC52CC65CCC(O)C(C)(C)C16",
        "Molecular Formula": "C<sub>30</sub>H<sub>50</sub>O<sub>5</sub>",
        "Molecular Mass": "490.71",
        "Melting Point": "196-197 °C"
    }
}