{
    "cas_no": "594-20-7",
    "key_name": "2,2-Dichloropropane",
    "cn_name": "2,2-二氯丙烷;异亚丙基二氯;",
    "alternate_name": "Propane, 2,2-dichloro-;2,2-Dichloropropane;Dimethyldichloromethane;Dichlorodimethylmethane;R 270aa",
    "duplicated_cas_no": "",
    "SMILES": "C(C)(C)(Cl)Cl",
    "meta_data": {
        "InChI": "InChI=1S/C3H6Cl2/c1-3(2,4)5/h1-2H3",
        "InChIKey": null,
        "Canonical SMILES": "ClC(Cl)(C)C",
        "Molecular Formula": "C<sub>3</sub>H<sub>6</sub>Cl<sub>2</sub>",
        "Molecular Mass": "112.99",
        "Boiling Point": "69.3 °C",
        "Melting Point": "-33.8 °C"
    }
}