{
    "cas_no": "59907-13-0",
    "key_name": "2-Bromo-1-fluoro-3-methylbenzene",
    "cn_name": "2-溴-3-氟甲苯;",
    "alternate_name": "Benzene, 2-bromo-1-fluoro-3-methyl-;2-Bromo-1-fluoro-3-methylbenzene;2-Bromo-3-fluorotoluene",
    "duplicated_cas_no": "",
    "SMILES": "BrC1=C(C)C=CC=C1F",
    "meta_data": {
        "InChI": "InChI=1S/C7H6BrF/c1-5-3-2-4-6(9)7(5)8/h2-4H,1H3",
        "InChIKey": null,
        "Canonical SMILES": "FC1=CC=CC(=C1Br)C",
        "Molecular Formula": "C<sub>7</sub>H<sub>6</sub>BrF",
        "Molecular Mass": "189.02",
        "Boiling Point": "187 °C @ Press: 760 Torr"
    }
}