{
    "cas_no": "110-71-4",
    "key_name": "1,2-Dimethoxyethane",
    "cn_name": "乙二醇二甲醚;",
    "alternate_name": "Ethane, 1,2-dimethoxy-;1,2-Dimethoxyethane;α,β-Dimethoxyethane;Dimethyl Cellosolve;Ethylene dimethyl ether;Ethylene glycol dimethyl ether;Glycol dimethyl ether;Monoglyme;Glyme;Monoethylene glycol dimethyl ether;2,5-Dioxahexane;DME;1,2-Ethanediol, dimethyl ether;DME (glycol ether);Hisolve MMM;NSC 60542;Methyl Monoglyme",
    "duplicated_cas_no": "173201-80-4",
    "SMILES": "C(COC)OC",
    "meta_data": {
        "InChI": "InChI=1S/C4H10O2/c1-5-3-4-6-2/h3-4H2,1-2H3",
        "InChIKey": null,
        "Canonical SMILES": "O(C)CCOC",
        "Molecular Formula": "C<sub>4</sub>H<sub>10</sub>O<sub>2</sub>",
        "Molecular Mass": "90.12",
        "Boiling Point": "82-83 °C @ Press: 760 Torr",
        "Melting Point": "-58 °C",
        "Density": "0.86285 g/cm³ @ Temp: 20 °C"
    }
}