{
    "cas_no": "5312-97-0",
    "key_name": "2,5-Dimethoxybenzonitrile",
    "cn_name": "2,5-二甲氧基苯甲腈;",
    "alternate_name": "Benzonitrile, 2,5-dimethoxy-;2,5-Dimethoxybenzonitrile;2-Cyano-4-methoxyanisole;NSC 27019;2,5-Dimethoxyphenyl cyanide",
    "duplicated_cas_no": "",
    "SMILES": "C(#N)C1=C(OC)C=CC(OC)=C1",
    "meta_data": {
        "InChI": "InChI=1S/C9H9NO2/c1-11-8-3-4-9(12-2)7(5-8)6-10/h3-5H,1-2H3",
        "InChIKey": null,
        "Canonical SMILES": "N#CC1=CC(OC)=CC=C1OC",
        "Molecular Formula": "C<sub>9</sub>H<sub>9</sub>NO<sub>2</sub>",
        "Molecular Mass": "163.17",
        "Melting Point": "64-65 °C"
    }
}