{
    "cas_no": "1217-45-4",
    "key_name": "9,10-Dicyanoanthracene",
    "cn_name": "9,10-二氰基蒽;9,10-二氰基蒽;",
    "alternate_name": "9,10-Anthracenedicarbonitrile;9,10-Dicyanoanthracene;DCA (sensitizer);DCA;NSC 17556",
    "duplicated_cas_no": "",
    "SMILES": "C(#N)C=1C2=C(C(C#N)=C3C1C=CC=C3)C=CC=C2",
    "meta_data": {
        "InChI": "InChI=1S/C16H8N2/c17-9-15-11-5-1-2-6-12(11)16(10-18)14-8-4-3-7-13(14)15/h1-8H",
        "InChIKey": null,
        "Canonical SMILES": "N#CC=1C=2C=CC=CC2C(C#N)=C3C=CC=CC13",
        "Molecular Formula": "C<sub>16</sub>H<sub>8</sub>N<sub>2</sub>",
        "Molecular Mass": "228.25",
        "Melting Point": "328-330 °C"
    }
}