{
    "cas_no": "104830-08-2",
    "key_name": "Ethyl 3-(2-chloro-3-pyridinyl)-2-propenoate",
    "cn_name": "3-(2-氯吡啶-3-基)丙烯酸乙酯;3-(2-氯-3-吡啶基)丙烯酸乙酯;",
    "alternate_name": "2-Propenoic acid, 3-(2-chloro-3-pyridinyl)-, ethyl ester;Ethyl 3-(2-chloro-3-pyridinyl)-2-propenoate;Ethyl 2-chloro-3-pyridineacrylate",
    "duplicated_cas_no": "",
    "SMILES": "C(=CC(OCC)=O)C1=C(Cl)N=CC=C1",
    "meta_data": {
        "InChI": "InChI=1S/C10H10ClNO2/c1-2-14-9(13)6-5-8-4-3-7-12-10(8)11/h3-7H,2H2,1H3",
        "InChIKey": null,
        "Canonical SMILES": "O=C(OCC)C=CC1=CC=CN=C1Cl",
        "Molecular Formula": "C<sub>10</sub>H<sub>10</sub>ClNO<sub>2</sub>",
        "Molecular Mass": "211.64",
        "Boiling Point": "132-136 °C @ Press: 3 Torr"
    }
}