{
    "cas_no": "637-39-8",
    "key_name": "Triethanolamine hydrochloride",
    "cn_name": null,
    "alternate_name": "Ethanol, 2,2′,2′′-nitrilotris-, hydrochloride (1:1);Ethanol, 2,2′,2′′-nitrilotri-, hydrochloride;Ethanol, 2,2′,2′′-nitrilotris-, hydrochloride;Triethanolamine hydrochloride;Triethanolammonium chloride;2-[Bis(2-hydroxyethyl)amino]ethanol hydrochloride;Tris(2-hydroxyethyl)amine hydrochloride;Triethanolamine hydrochloric acid salt;Tris(2-hydroxyethyl)ammonium chloride",
    "duplicated_cas_no": "24271-46-3",
    "SMILES": "N(CCO)(CCO)CCO.Cl",
    "meta_data": {
        "InChI": "InChI=1S/C6H15NO3.ClH/c8-4-1-7(2-5-9)3-6-10;/h8-10H,1-6H2;1H",
        "InChIKey": null,
        "Canonical SMILES": "Cl.OCCN(CCO)CCO",
        "Molecular Formula": "C<sub>6</sub>H<sub>15</sub>NO<sub>3</sub>.ClH",
        "Molecular Mass": "",
        "Melting Point": "177 °C"
    }
}