{
    "cas_no": "59-31-4",
    "key_name": "2-Hydroxyquinoline",
    "cn_name": "2-羟基喹啉;",
    "alternate_name": "2(1<em>H</em>)-Quinolinone;Carbostyril;2-Quinolinol;α-Hydroxyquinoline;2-Hydroxyquinoline;<em>o</em>-Aminocinnamic acid lactam;2(1<em>H</em>)-Quinolone;α-Quinolone;2-Quinolone;2-Quinolinone;2-Oxo-1,2-dihydroquinoline;1,2-Dihydro-2-oxoquinoline;1<em>H</em>-Quinolin-2-one;NSC 156783;NSC 554;NSC 97217;A 13286",
    "duplicated_cas_no": "493-62-9",
    "SMILES": "O=C1NC=2C(C=C1)=CC=CC2",
    "meta_data": {
        "InChI": "InChI=1S/C9H7NO/c11-9-6-5-7-3-1-2-4-8(7)10-9/h1-6H,(H,10,11)",
        "InChIKey": null,
        "Canonical SMILES": "O=C1C=CC=2C=CC=CC2N1",
        "Molecular Formula": "C<sub>9</sub>H<sub>7</sub>NO",
        "Molecular Mass": "145.16",
        "Melting Point": "199.5 °C"
    }
}