{
    "cas_no": "62096-63-3",
    "key_name": "6-Ethoxy-<em>N</em><sup>2</sup>-methyl-1,3,5-triazine-2,4-diamine",
    "cn_name": "2-氨基-4-甲氨基-6-乙氧基-1,3,5-三嗪;",
    "alternate_name": "1,3,5-Triazine-2,4-diamine, 6-ethoxy-<em>N</em><sup>2</sup>-methyl-;1,3,5-Triazine-2,4-diamine, 6-ethoxy-<em>N</em>-methyl-;6-Ethoxy-<em>N</em><sup>2</sup>-methyl-1,3,5-triazine-2,4-diamine;2-Amino-4-ethoxy-6-(methylamino)-1,3,5-triazine",
    "duplicated_cas_no": "",
    "SMILES": "O(CC)C=1N=C(NC)N=C(N)N1",
    "meta_data": {
        "InChI": "InChI=1S/C6H11N5O/c1-3-12-6-10-4(7)9-5(8-2)11-6/h3H2,1-2H3,(H3,7,8,9,10,11)",
        "InChIKey": null,
        "Canonical SMILES": "N=1C(=NC(=NC1N)NC)OCC",
        "Molecular Formula": "C<sub>6</sub>H<sub>11</sub>N<sub>5</sub>O",
        "Molecular Mass": "169.18",
        "Melting Point": "171-172 °C"
    }
}