{
    "cas_no": "89943-12-4",
    "key_name": "2-Ethoxy-4-pyridinamine",
    "cn_name": "2-乙氧基-4-氨基吡啶;",
    "alternate_name": "4-Pyridinamine, 2-ethoxy-;Pyridine, 4-amino-2-ethoxy-;2-Ethoxy-4-pyridinamine;2-Ethoxy-4-aminopyridine;4-Amino-2-ethoxypyridine",
    "duplicated_cas_no": "",
    "SMILES": "O(CC)C1=CC(N)=CC=N1",
    "meta_data": {
        "InChI": "InChI=1S/C7H10N2O/c1-2-10-7-5-6(8)3-4-9-7/h3-5H,2H2,1H3,(H2,8,9)",
        "InChIKey": null,
        "Canonical SMILES": "N=1C=CC(N)=CC1OCC",
        "Molecular Formula": "C<sub>7</sub>H<sub>10</sub>N<sub>2</sub>O",
        "Molecular Mass": "138.17",
        "Melting Point": "88-89 °C"
    }
}