{
    "cas_no": "34619-12-0",
    "key_name": "4-Mercapto-2-butanone",
    "cn_name": "4-巯基-2-丁酮;",
    "alternate_name": "2-Butanone, 4-mercapto-;4-Mercapto-2-butanone;2-<em>keto</em>-4-Butanethiol",
    "duplicated_cas_no": "",
    "SMILES": "C(C(C)=O)CS",
    "meta_data": {
        "InChI": "InChI=1S/C4H8OS/c1-4(5)2-3-6/h6H,2-3H2,1H3",
        "InChIKey": null,
        "Canonical SMILES": "O=C(C)CCS",
        "Molecular Formula": "C<sub>4</sub>H<sub>8</sub>OS",
        "Molecular Mass": "104.17",
        "Boiling Point": "137-139 °C @ Press: 15 Torr"
    }
}