{
    "cas_no": "1150114-50-3",
    "key_name": "<em>B</em>-(6-Propoxy-3-pyridinyl)boronic acid",
    "cn_name": null,
    "alternate_name": "Boronic acid, <em>B</em>-(6-propoxy-3-pyridinyl)-;<em>B</em>-(6-Propoxy-3-pyridinyl)boronic acid;(6-Propyloxypyridin-3-yl)boronic acid;(6-Propoxypyridin-3-yl)boronicacid;(6-Propoxypyridin-3-yl)boronic acid;2-Propoxypyridine-5-boronic acid",
    "duplicated_cas_no": "",
    "SMILES": "B(O)(O)C=1C=CC(OCCC)=NC1",
    "meta_data": {
        "InChI": "InChI=1S/C8H12BNO3/c1-2-5-13-8-4-3-7(6-10-8)9(11)12/h3-4,6,11-12H,2,5H2,1H3",
        "InChIKey": null,
        "Canonical SMILES": "OB(O)C1=CN=C(OCCC)C=C1",
        "Molecular Formula": "C<sub>8</sub>H<sub>12</sub>BNO<sub>3</sub>",
        "Molecular Mass": "181.00",
        "Melting Point": "118-120 °C"
    }
}