{
    "cas_no": "3483-12-3",
    "key_name": "Dithiothreitol",
    "cn_name": "DL-1,4-二硫代苏糖醇;1,4-二巯基苏糖醇;",
    "alternate_name": "2,3-Butanediol, 1,4-dimercapto-, (2<em>R</em>,3<em>R</em>)-<em>rel</em>-;Threitol, 1,4-dithio-;2,3-Butanediol, 1,4-dimercapto-, (<em>R</em>*,<em>R</em>*)-;<em>rel</em>-(2<em>R</em>,3<em>R</em>)-1,4-Dimercapto-2,3-butanediol;1,4-Dithiothreitol;Dithiothreitol;<em>threo</em>-2,3-Dihydroxy-1,4-butanedithiol;Cleland's reagent;Sputolysin;DTT;<em>threo</em>-1,4-Dimercapto-2,3-butanediol;WR 34678;<span class=\"text-smallcaps\">DL</span>-Dithiothreitol;<em>rac</em>-Dithiothreitol;<span class=\"text-smallcaps\">DL</span>-1,4-Dithiothreitol;(±)-Dithiothreitol;1,4-Dithio-<span class=\"text-smallcaps\">DL</span>-threitol;<span class=\"text-smallcaps\">DL</span>-1,4-Dimercapto-2,3-dihydroxybutane;(±)-1,4-Dimercapto-2,3-butanediol;Reagents, Cleland's;DTT (threitol derivative);<em>threo</em>-2,3-Dihydroxy-1,4-dithiolbutane;Mucolyse;MeSH ID: D004229",
    "duplicated_cas_no": "27565-41-9;28823-08-7;214119-27-4;1377983-58-8",
    "SMILES": "[C@H]([C@@H](CS)O)(CS)O",
    "meta_data": {
        "InChI": "InChI=1/C4H10O2S2/c5-3(1-7)4(6)2-8/h3-8H,1-2H2/t3-,4-/s2",
        "InChIKey": null,
        "Canonical SMILES": "OC(CS)C(O)CS",
        "Molecular Formula": "C<sub>4</sub>H<sub>10</sub>O<sub>2</sub>S<sub>2</sub>",
        "Molecular Mass": "154.25",
        "Boiling Point": "127.5 °C",
        "Melting Point": "42.5 °C"
    }
}