{
    "cas_no": "6452-73-9",
    "key_name": "Oxprenolol hydrochloride",
    "cn_name": "盐酸氧烯咯尔;盐酸氧烯洛尔;",
    "alternate_name": "2-Propanol, 1-[(1-methylethyl)amino]-3-[2-(2-propen-1-yloxy)phenoxy]-, hydrochloride (1:1);2-Propanol, 1-[<em>o</em>-(allyloxy)phenoxy]-3-(isopropylamino)-, hydrochloride;2-Propanol, 1-[(1-methylethyl)amino]-3-[2-(2-propenyloxy)phenoxy]-, hydrochloride;1-(<em>o</em>-Allyloxyphenoxy)-3-isopropylamino-2-propanol hydrochloride;Ba 39089;CIBA 39089Ba;1-Isopropyl-amino-2-hydroxy-3-(<em>O</em>-allyloxyphenoxy)propane hydrochloride;Oxprenolol hydrochloride;1-Isopropylamino-3-(<em>o</em>-allyloxyphenoxy)-2-propanol hydrochloride;1-(2′-Allyloxyphenoxy)-2-hydroxy-3-isopropylaminopropane hydrochloride;1-(<em>o</em>-Allyloxyphenoxy)-3-isopropylamino-2-propranol-hydrochloride;1-(2-Allyloxyphenoxy)-2-hydroxy-3-isopropylaminopropane hydrochloride;Slow-Trasicor;(±)-1-[<em>o</em>-(Allyloxy)phenoxy]-3-isopropylamino-2-propanol hydrochloride;<em>dl</em>-Oxprenolol hydrochloride;(±)-Ba 39089;Trasicor;(±)-Oxprenolol hydrochloride;<em>dl</em>-Alprenolol hydrochloride;Oxiprenolol hydrochloride;Trasicor 80;Laracor;Paritane;Trasacor;Slow-Pren",
    "duplicated_cas_no": "22972-97-0",
    "SMILES": "O(CC(CNC(C)C)O)C1=C(OCC=C)C=CC=C1.Cl",
    "meta_data": {
        "InChI": "InChI=1S/C15H23NO3.ClH/c1-4-9-18-14-7-5-6-8-15(14)19-11-13(17)10-16-12(2)3;/h4-8,12-13,16-17H,1,9-11H2,2-3H3;1H",
        "InChIKey": null,
        "Canonical SMILES": "Cl.OC(COC=1C=CC=CC1OCC=C)CNC(C)C",
        "Molecular Formula": "C<sub>15</sub>H<sub>23</sub>NO<sub>3</sub>.ClH",
        "Molecular Mass": "",
        "Melting Point": "107-109 °C"
    }
}