{
    "cas_no": "925434-55-5",
    "key_name": "<em>N</em>-[2-[3-(1-Piperazinylmethyl)imidazo[2,1-<em>b</em>]thiazol-6-yl]phenyl]-2-quinoxalinecarboxamide",
    "cn_name": null,
    "alternate_name": "2-Quinoxalinecarboxamide, <em>N</em>-[2-[3-(1-piperazinylmethyl)imidazo[2,1-<em>b</em>]thiazol-6-yl]phenyl]-;<em>N</em>-[2-[3-(1-Piperazinylmethyl)imidazo[2,1-<em>b</em>]thiazol-6-yl]phenyl]-2-quinoxalinecarboxamide;SRT 1720",
    "duplicated_cas_no": "",
    "SMILES": "C(C=1N2C(=NC(=C2)C3=C(NC(=O)C4=NC5=C(N=C4)C=CC=C5)C=CC=C3)SC1)N6CCNCC6",
    "meta_data": {
        "InChI": "InChI=1S/C25H23N7OS/c33-24(22-13-27-20-7-3-4-8-21(20)28-22)29-19-6-2-1-5-18(19)23-15-32-17(16-34-25(32)30-23)14-31-11-9-26-10-12-31/h1-8,13,15-16,26H,9-12,14H2,(H,29,33)",
        "InChIKey": null,
        "Canonical SMILES": "O=C(NC=1C=CC=CC1C=2N=C3SC=C(N3C2)CN4CCNCC4)C5=NC6=CC=CC=C6N=C5",
        "Molecular Formula": "C<sub>25</sub>H<sub>23</sub>N<sub>7</sub>OS",
        "Molecular Mass": "469.56",
        "Melting Point": "221.4 °C"
    }
}