{
    "cas_no": "15664-29-6",
    "key_name": "Pheophorbide a",
    "cn_name": "脱镁叶绿酸盐A;",
    "alternate_name": "3-Phorbinepropanoic acid, 9-ethenyl-14-ethyl-21-(methoxycarbonyl)-4,8,13,18-tetramethyl-20-oxo-, (3<em>S</em>,4<em>S</em>,21<em>R</em>)-;Pheophorbide a;3-Phorbinepropionic acid, 21-carboxy-14-ethyl-4,8,13,18-tetramethyl-20-oxo-9-vinyl-, 21-methyl ester;3-Phorbinepropanoic acid, 9-ethenyl-14-ethyl-21-(methoxycarbonyl)-4,8,13,18-tetramethyl-20-oxo-, [3<em>S</em>-(3α,4β,21β)]-;(3<em>S</em>,4<em>S</em>,21<em>R</em>)-9-Ethenyl-14-ethyl-21-(methoxycarbonyl)-4,8,13,18-tetramethyl-20-oxo-3-phorbinepropanoic acid;Pheophorbide a<sub>5</sub>;2-Deacetyl-2-vinylbacteriopheophorbide;Phaeophorbide a",
    "duplicated_cas_no": "28979-78-4;29702-69-0",
    "SMILES": "C(OC)(=O)[C@@H]1C=2C3=C(C1=O)C(C)=C(N3)C=C4C(CC)=C(C)C(=N4)C=C5NC(=CC6=NC2[C@@H](CCC(O)=O)[C@@H]6C)C(C)=C5C=C",
    "meta_data": {
        "InChI": "InChI=1S/C35H36N4O5/c1-8-19-15(3)22-12-24-17(5)21(10-11-28(40)41)32(38-24)30-31(35(43)44-7)34(42)29-18(6)25(39-33(29)30)14-27-20(9-2)16(4)23(37-27)13-26(19)36-22/h8,12-14,17,21,31,36,39H,1,9-11H2,2-7H3,(H,40,41)/b22-12?,23-13-,24-12-,25-14-,26-13?,27-14?,32-30?/t17-,21-,31+/m0/s1",
        "InChIKey": null,
        "Canonical SMILES": "O=C(O)CCC1C2=NC(=CC=3NC(C=C4N=C(C=C5NC=6C(C(=O)C(C(=O)OC)C62)=C5C)C(=C4C)CC)=C(C=C)C3C)C1C",
        "Molecular Formula": "C<sub>35</sub>H<sub>36</sub>N<sub>4</sub>O<sub>5</sub>",
        "Molecular Mass": "592.68",
        "Melting Point": "191-195 °C"
    }
}