{
    "cas_no": "7524-52-9",
    "key_name": "<span class=\"text-smallcaps\">L</span>-Tryptophan, methyl ester, hydrochloride (1:1)",
    "cn_name": "L-色氨酸甲酯盐酸盐;",
    "alternate_name": "<span class=\"text-smallcaps\">L</span>-Tryptophan, methyl ester, hydrochloride (1:1);Tryptophan, methyl ester, monohydrochloride, <span class=\"text-smallcaps\">L</span>-;<span class=\"text-smallcaps\">L</span>-Tryptophan, methyl ester, monohydrochloride;Tryptophan methyl ester hydrochloride;<span class=\"text-smallcaps\">L</span>-Tryptophan methyl ester hydrochloride;Methyl <span class=\"text-smallcaps\">L</span>-tryptophanate hydrochloride;Tryptophan methyl ester monohydrochloride;<span class=\"text-smallcaps\">L</span>-(-)-Tryptophan methyl ester hydrochloride;(<em>S</em>)-Tryptophan methyl ester monohydrochloride;(<em>S</em>)-Tryptophan methyl ester hydrochloride;H-(<span class=\"text-smallcaps\">L</span>)-Trp-OMe hydrochloride;Methyl-<span class=\"text-smallcaps\">L</span>-tryptophan hydrochloride;(<em>S</em>)-Methyl 2-amino-3-(1<em>H</em>-indol-3-yl)propanoate hydrochloride",
    "duplicated_cas_no": "1369682-64-3",
    "SMILES": "C([C@@H](C(OC)=O)N)C=1C=2C(NC1)=CC=CC2.Cl",
    "meta_data": {
        "InChI": "InChI=1S/C12H14N2O2.ClH/c1-16-12(15)10(13)6-8-7-14-11-5-3-2-4-9(8)11;/h2-5,7,10,14H,6,13H2,1H3;1H/t10-;/m0./s1",
        "InChIKey": null,
        "Canonical SMILES": "Cl.O=C(OC)C(N)CC1=CNC=2C=CC=CC21",
        "Molecular Formula": "C<sub>12</sub>H<sub>14</sub>N<sub>2</sub>O<sub>2</sub>.ClH",
        "Molecular Mass": "",
        "Melting Point": "220-223 °C"
    }
}