{
    "cas_no": "766-40-5",
    "key_name": "3,4-Dichloro-5-hydroxy-2(5<em>H</em>)-furanone",
    "cn_name": null,
    "alternate_name": "2(5<em>H</em>)-Furanone, 3,4-dichloro-5-hydroxy-;Crotonic acid, 2,3-dichloro-4,4-dihydroxy-, γ-lactone;3,4-Dichloro-5-hydroxy-2(5<em>H</em>)-furanone;Mucochloric acid lactone;NSC 179787;5-Hydroxy-3,4-dichloro-2-(5<em>H</em>)-furanone;3,4-Dichloro-5-hydroxy-5<em>H</em>-furan-2-one;3,4-Dichloro-2-hydroxy-2<em>H</em>-furan-5-one;3,4-Dichloro-5-hydroxy-2,5-dihydrofuran-2-one",
    "duplicated_cas_no": "88405-86-1",
    "SMILES": "ClC1=C(Cl)C(=O)OC1O",
    "meta_data": {
        "InChI": "InChI=1S/C4H2Cl2O3/c5-1-2(6)4(8)9-3(1)7/h3,7H",
        "InChIKey": null,
        "Canonical SMILES": "O=C1OC(O)C(Cl)=C1Cl",
        "Molecular Formula": "C<sub>4</sub>H<sub>2</sub>Cl<sub>2</sub>O<sub>3</sub>",
        "Molecular Mass": "168.96",
        "Melting Point": "127 °C"
    }
}