{
    "cas_no": "143-13-5",
    "key_name": "Nonyl acetate",
    "cn_name": "乙酸壬酯;乙酸正壬酯;",
    "alternate_name": "Acetic acid, nonyl ester;Nonyl alcohol, acetate;Acetic acid <em>n</em>-nonyl ester;Nonanol acetate;<em>n</em>-Nonanyl acetate;Nonyl acetate;<em>n</em>-Nonyl acetate;<em>n</em>-Nonyl ethanoate;Pelargonyl acetate;1-Nonyl acetate;1-Acetoxynonane;NSC 82356",
    "duplicated_cas_no": "",
    "SMILES": "C(CCCCCC)CCOC(C)=O",
    "meta_data": {
        "InChI": "InChI=1S/C11H22O2/c1-3-4-5-6-7-8-9-10-13-11(2)12/h3-10H2,1-2H3",
        "InChIKey": null,
        "Canonical SMILES": "O=C(OCCCCCCCCC)C",
        "Molecular Formula": "C<sub>11</sub>H<sub>22</sub>O<sub>2</sub>",
        "Molecular Mass": "186.29",
        "Boiling Point": "210 °C",
        "Melting Point": "-26 °C",
        "Density": "0.868 g/cm³ @ Temp: 20 °C"
    }
}