{
    "uri": "substance/pt/9005805",
    "rn": "9005-80-5",
    "name": "Inulin",
    "images": [],
    "inchi": "",
    "inchiKey": "",
    "smile": "",
    "canonicalSmile": "",
    "molecularFormula": "Unspecified",
    "molecularMass": "",
    "experimentalProperties": [
        {
            "name": "Melting Point",
            "property": "182-203 °C",
            "sourceNumber": 1
        },
        {
            "name": "Density",
            "property": "1.31 g/cm³",
            "sourceNumber": 2
        }
    ],
    "propertyCitations": [
        {
            "docUri": "document/pt/document/21429320",
            "sourceNumber": 1,
            "source": "Akacic, Branka; Farmaceutski Glasnik, (1967), 23(11), 489-93, CAplus"
        },
        {
            "docUri": "document/pt/document/47935676",
            "sourceNumber": 2,
            "source": "Aidoo, Roger Philip; International Journal of Food Science and Technology, (2017), 52(1), 282-290, CAplus"
        }
    ],
    "synonyms": [
        "Inulin",
        "Alantin",
        "Alant starch",
        "Dahlin",
        "Synantherin",
        "Synantrin",
        "Sinantrin",
        "Synanthrin",
        "Raftiline LS",
        "Frutafit",
        "Frutafit IQ",
        "Raftiline HP",
        "Raftiline ST",
        "Fibruline",
        "Frutafit HD",
        "Inutec N 10GR",
        "Inulin IQ",
        "Raftiline",
        "Raftiline GR",
        "Fibruline Instant",
        "Fibruline Long Chain",
        "Fibruline LC",
        "Inulin HD",
        "Inutec N 25",
        "Frutafit EXL",
        "Frutafit TEX",
        "Fibrulose",
        "Fuji FF",
        "Raftifeed IPS",
        "Beneo HP",
        "Frutagave PR 95",
        "Frutagave SP 70",
        "Ticaloid LC-CSR 2",
        "LV 110",
        "Beneo ST",
        "Oliggo-Fiber F 97",
        "Beneo GR",
        "Oliggo-Fiber XL",
        "Beneo",
        "Inutec N 10",
        "Fuji SS",
        "Orafti Synergy",
        "Fibrulose F 97",
        "Orafti HPX",
        "Frutafit CLR",
        "Advax",
        "Advax D",
        "Beneo IPS",
        "FruTEX",
        "Fibruline XL",
        "ORAFTI Synergy 1",
        "Orafti HP",
        "Prebiofeed",
        "Orafti GR",
        "Raftiline HPX",
        "Raftifeed IPE",
        "Fructo-fiber",
        "Fuji FFSC",
        "P95 FOS",
        "Orafti L 95",
        "Agave Inulin",
        "Inulin HP",
        "Inulin Instant",
        "Inulin Fib97",
        "Inutec HSI",
        "Inulin LC",
        "Prebiulin FOS",
        "Prebiulin AGA",
        "Biolin P",
        "CBP Inulin",
        "MeSH ID: D007444",
        "Frutafit HD/IQ"
    ],
    "replacedRns": [
        "189444-25-5",
        "380230-05-7",
        "887747-94-6",
        "1252047-46-3",
        "2417296-06-9"
    ],
    "hasMolfile": false,
    "source": "https://commonchemistry.cas.org/detail?cas_rn=9005-80-5"
}