{
    "cas_no": "85068-36-6",
    "key_name": "(2,5-Difluorophenyl)phenylmethanone",
    "cn_name": "2,5-二氟苯甲酮;",
    "alternate_name": "Methanone, (2,5-difluorophenyl)phenyl-;(2,5-Difluorophenyl)phenylmethanone;2,5-Difluorobenzophenone",
    "duplicated_cas_no": "",
    "SMILES": "C(=O)(C1=C(F)C=CC(F)=C1)C2=CC=CC=C2",
    "meta_data": {
        "InChI": "InChI=1S/C13H8F2O/c14-10-6-7-12(15)11(8-10)13(16)9-4-2-1-3-5-9/h1-8H",
        "InChIKey": null,
        "Canonical SMILES": "O=C(C=1C=CC=CC1)C2=CC(F)=CC=C2F",
        "Molecular Formula": "C<sub>13</sub>H<sub>8</sub>F<sub>2</sub>O",
        "Molecular Mass": "218.20",
        "Boiling Point": "120-123 °C @ Press: 0.35 Torr"
    }
}