{
    "cas_no": "59-48-3",
    "key_name": "Oxindole",
    "cn_name": "2-吲哚酮;1,3-二氢-吲哚-2-酮;",
    "alternate_name": "2<em>H</em>-Indol-2-one, 1,3-dihydro-;Oxindole;2-Indolinone;1,3-Dihydro-2<em>H</em>-indol-2-one;Oxindol;2-Oxoindoline;2-Oxindole;Indol-2(3<em>H</em>)-one;1,3-Dihydroindol-2-one;2-Indolone;Indoline-2-one;2-Oxoindole;NSC 274863;2-Oxo-2,3-dihydroindole;2,3-Dihydro-1<em>H</em>-indol-2-one",
    "duplicated_cas_no": "",
    "SMILES": "O=C1CC=2C(N1)=CC=CC2",
    "meta_data": {
        "InChI": "InChI=1S/C8H7NO/c10-8-5-6-3-1-2-4-7(6)9-8/h1-4H,5H2,(H,9,10)",
        "InChIKey": null,
        "Canonical SMILES": "O=C1NC=2C=CC=CC2C1",
        "Molecular Formula": "C<sub>8</sub>H<sub>7</sub>NO",
        "Molecular Mass": "133.15",
        "Boiling Point": "227 °C",
        "Melting Point": "128 °C"
    }
}