{
    "cas_no": "382-28-5",
    "key_name": "Perfluoro-<em>N</em>-methylmorpholine",
    "cn_name": "2,2,3,3,5,5,6,6-八氟-4-三氟甲基吗啉;4-三氟甲基全氟吗啉;全氟-N-甲基吗啉;",
    "alternate_name": "Morpholine, 2,2,3,3,5,5,6,6-octafluoro-4-(trifluoromethyl)-;2,2,3,3,5,5,6,6-Octafluoro-4-(trifluoromethyl)morpholine;4-(Trifluoromethyl)perfluoromorpholine;Perfluoro-<em>N</em>-methylmorpholine;L 12422;PF 5052;Fluorinert PF 5052;Perfluoro(4-methylmorpholine);PFC 5052",
    "duplicated_cas_no": "173717-78-7",
    "SMILES": "C(F)(F)(F)N1C(F)(F)C(F)(F)OC(F)(F)C1(F)F",
    "meta_data": {
        "InChI": "InChI=1S/C5F11NO/c6-1(7)3(10,11)18-4(12,13)2(8,9)17(1)5(14,15)16",
        "InChIKey": null,
        "Canonical SMILES": "FC(F)(F)N1C(F)(F)C(F)(F)OC(F)(F)C1(F)F",
        "Molecular Formula": "C<sub>5</sub>F<sub>11</sub>NO",
        "Molecular Mass": "299.04",
        "Boiling Point": "51 °C",
        "Melting Point": "-80 °C"
    }
}