{
    "cas_no": "579-66-8",
    "key_name": "2,6-Diethylaniline",
    "cn_name": "2,6-二乙基苯胺;DEA;",
    "alternate_name": "Benzenamine, 2,6-diethyl-;Aniline, 2,6-diethyl-;2,6-Diethylbenzenamine;2,6-Diethylaniline;2,6-Diethylphenylamine",
    "duplicated_cas_no": "1123533-25-4",
    "SMILES": "C(C)C1=C(N)C(CC)=CC=C1",
    "meta_data": {
        "InChI": "InChI=1S/C10H15N/c1-3-8-6-5-7-9(4-2)10(8)11/h5-7H,3-4,11H2,1-2H3",
        "InChIKey": null,
        "Canonical SMILES": "NC=1C(=CC=CC1CC)CC",
        "Molecular Formula": "C<sub>10</sub>H<sub>15</sub>N",
        "Molecular Mass": "149.23",
        "Boiling Point": "235.5 °C",
        "Melting Point": "3.5 °C",
        "Density": "0.906 g/cm³"
    }
}