{
    "cas_no": "59-02-9",
    "key_name": "(+)-α-Tocopherol",
    "cn_name": "天然维生素E;生育酚;维他命E;[2R-[2R*(4R*,8R*)]]-3,4-二氢-2,5,7,8-四甲基-2-(4,8,12-三甲基十三烷基)-6-;",
    "alternate_name": "2<em>H</em>-1-Benzopyran-6-ol, 3,4-dihydro-2,5,7,8-tetramethyl-2-[(4<em>R</em>,8<em>R</em>)-4,8,12-trimethyltridecyl]-, (2<em>R</em>)-;2<em>H</em>-1-Benzopyran-6-ol, 3,4-dihydro-2,5,7,8-tetramethyl-2-(4,8,12-trimethyltridecyl)-, [2<em>R</em>-[2<em>R</em>*(4<em>R</em>*,8<em>R</em>*)]]-;(2<em>R</em>)-3,4-Dihydro-2,5,7,8-tetramethyl-2-[(4<em>R</em>,8<em>R</em>)-4,8,12-trimethyltridecyl]-2<em>H</em>-1-benzopyran-6-ol;Almefrol;Denamone;Emipherol;Eprolin;Eprolin S;Epsilan;Esorb;Etavit;Phytogermin;Profecundin;Syntopherol;α-Tocopherol;Tokopharm;5,7,8-Trimethyltocol;Vascuals;Verrol;Viteolin;(<em>all</em>-<em>R</em>)-α-Tocopherol;Vitaplex E;Etamican;Vitayonon;Spavit E;Endo E;Evitaminum;Ilitia;(<em>R</em>,<em>R</em>,<em>R</em>)-α-Tocopherol;Vitamin Eα;(+)-α-Tocopherol;<span class=\"text-smallcaps\">D</span>-α-Tocopherol;(2<em>R</em>,4′<em>R</em>,8′<em>R</em>)-α-Tocopherol;Covitol F 1000;Tenox GT 1;Rhenogran Ronotec 50;<em>d</em>-α-Tocopherol;E-Oil 1000;E 307;E 307 (tocopherol);Ronotec 2001;EMF 1490;α-<span class=\"text-smallcaps\">D</span>-Tocopherol;Covitol F 1000-2;NSC 20812;Irganox E 201;Cardi-E;Biopass E 20;E 5-87;NatAlc;Natur-E micelle;Covitol F 1300;Covitol IK 00069;α-Vitamin E;Covitol F 1370;Copherol F 1300C;Cadvion;3,4-Dihydro-2,5,7,8-tetramethyl-2-[(4<em>R</em>,8<em>R</em>)-4,8,12-trimethyltridecyl]-(2<em>R</em>)-2<em>H</em>-1-benzopyran-6-ol;(R)-2,5,7,8-Tetramethyl-2-((4R,8R)-4,8,12-trimethyltridecyl)chroman-6-ol;<em>d</em>-Vitamin E;(+)-(2R,4′R,8′R)-α-Tocopherol;MeSH ID: D024502",
    "duplicated_cas_no": "364-49-8;18920-62-2;121854-78-2;2484908-93-0",
    "SMILES": "CC1=C2C(CC[C@](CCC[C@@H](CCC[C@@H](CCCC(C)C)C)C)(C)O2)=C(C)C(O)=C1C",
    "meta_data": {
        "InChI": "InChI=1S/C29H50O2/c1-20(2)12-9-13-21(3)14-10-15-22(4)16-11-18-29(8)19-17-26-25(7)27(30)23(5)24(6)28(26)31-29/h20-22,30H,9-19H2,1-8H3/t21-,22-,29-/m1/s1",
        "InChIKey": null,
        "Canonical SMILES": "OC=1C(=C(C=2OC(C)(CCC2C1C)CCCC(C)CCCC(C)CCCC(C)C)C)C",
        "Molecular Formula": "C<sub>29</sub>H<sub>50</sub>O<sub>2</sub>",
        "Molecular Mass": "430.71",
        "Boiling Point": "210 °C @ Press: 0.1 Torr",
        "Melting Point": "2-3 °C"
    }
}