{
    "cas_no": "96-80-0",
    "key_name": "2-(Diisopropylamino)ethanol",
    "cn_name": "N,N-二异丙基乙醇胺;",
    "alternate_name": "Ethanol, 2-[bis(1-methylethyl)amino]-;Ethanol, 2-(diisopropylamino)-;2-[Bis(1-methylethyl)amino]ethanol;Diisopropylethanolamine;2-(Diisopropylamino)ethanol;(Diisopropylamino)ethanol;(<em>N</em>,<em>N</em>-Diisopropylamino)ethanol;2-(Diisopropylamino)ethyl alcohol;<em>N</em>,<em>N</em>-Diisopropylethanolamine;<em>N</em>,<em>N</em>-Diisopropyl-2-aminoethanol;NSC 45475;2-(<em>N</em>,<em>N</em>-Diisopropylamino)ethanol;DIPAE;Monoethanoldiisopropylamine;2-[Bis(propan-2-yl)amino]ethan-1-ol",
    "duplicated_cas_no": "",
    "SMILES": "N(CCO)(C(C)C)C(C)C",
    "meta_data": {
        "InChI": "InChI=1S/C8H19NO/c1-7(2)9(5-6-10)8(3)4/h7-8,10H,5-6H2,1-4H3",
        "InChIKey": null,
        "Canonical SMILES": "OCCN(C(C)C)C(C)C",
        "Molecular Formula": "C<sub>8</sub>H<sub>19</sub>NO",
        "Molecular Mass": "145.24",
        "Boiling Point": "190 °C",
        "Melting Point": "-39 °C"
    }
}