{
    "cas_no": "4457-32-3",
    "key_name": "4-Nitrobenzyl chloroformate",
    "cn_name": "氯甲酸对硝基苄酯;",
    "alternate_name": "Carbonochloridic acid, (4-nitrophenyl)methyl ester;Formic acid, chloro-, <em>p</em>-nitrobenzyl ester;<em>p</em>-Nitrobenzyl chloroformate;<em>p</em>-Nitrocarbobenzoxy chloride;<em>p</em>-Nitrobenzyloxycarbonyl chloride;4-Nitrobenzyl chloroformate;4-Nitrobenzyloxycarbonyl chloride;(4-Nitrophenyl)methyl chloroformate;(4-Nitrophenyl)methyl carbonochloridate",
    "duplicated_cas_no": "",
    "SMILES": "N(=O)(=O)C1=CC=C(COC(Cl)=O)C=C1",
    "meta_data": {
        "InChI": "InChI=1S/C8H6ClNO4/c9-8(11)14-5-6-1-3-7(4-2-6)10(12)13/h1-4H,5H2",
        "InChIKey": null,
        "Canonical SMILES": "O=C(Cl)OCC1=CC=C(C=C1)N(=O)=O",
        "Molecular Formula": "C<sub>8</sub>H<sub>6</sub>ClNO<sub>4</sub>",
        "Molecular Mass": "215.59",
        "Melting Point": "33.5-34 °C"
    }
}