{
    "cas_no": "2724-58-5",
    "key_name": "Isostearic acid",
    "cn_name": null,
    "alternate_name": "Heptadecanoic acid, 16-methyl-;16-Methylheptadecanoic acid;Isooctadecanoic acid;Isostearic acid;Emersol 873;Prisorine 3509;Ar Prisorine 3505;16-Methylmargaric acid",
    "duplicated_cas_no": "",
    "SMILES": "C(CC(C)C)CCCCCCCCCCCCC(O)=O",
    "meta_data": {
        "InChI": "InChI=1S/C18H36O2/c1-17(2)15-13-11-9-7-5-3-4-6-8-10-12-14-16-18(19)20/h17H,3-16H2,1-2H3,(H,19,20)",
        "InChIKey": null,
        "Canonical SMILES": "O=C(O)CCCCCCCCCCCCCCC(C)C",
        "Molecular Formula": "C<sub>18</sub>H<sub>36</sub>O<sub>2</sub>",
        "Molecular Mass": "284.48",
        "Melting Point": "67.8-68.5 °C"
    }
}