{
    "cas_no": "6623-81-0",
    "key_name": "5-Methoxyuracil",
    "cn_name": "5-甲氧基-2,4-二羟基嘧啶;5-甲氧基尿嘧啶;",
    "alternate_name": "2,4(1<em>H</em>,3<em>H</em>)-Pyrimidinedione, 5-methoxy-;Uracil, 5-methoxy-;5-Methoxy-2,4(1<em>H</em>,3<em>H</em>)-pyrimidinedione;5-Methoxyuracil;NSC 55452;5-Methoxypyrimidine-2,4-diol",
    "duplicated_cas_no": "",
    "SMILES": "O(C)C=1C(=O)NC(=O)NC1",
    "meta_data": {
        "InChI": "InChI=1S/C5H6N2O3/c1-10-3-2-6-5(9)7-4(3)8/h2H,1H3,(H2,6,7,8,9)",
        "InChIKey": null,
        "Canonical SMILES": "O=C1NC=C(OC)C(=O)N1",
        "Molecular Formula": "C<sub>5</sub>H<sub>6</sub>N<sub>2</sub>O<sub>3</sub>",
        "Molecular Mass": "142.11",
        "Melting Point": "336-337 °C (decomp)"
    }
}