{
    "cas_no": "3122-88-1",
    "key_name": "Eucalyptin",
    "cn_name": "桉树素;桉树素;",
    "alternate_name": "4<em>H</em>-1-Benzopyran-4-one, 5-hydroxy-7-methoxy-2-(4-methoxyphenyl)-6,8-dimethyl-;Flavone, 5-hydroxy-4′,7-dimethoxy-6,8-dimethyl-;5-Hydroxy-7-methoxy-2-(4-methoxyphenyl)-6,8-dimethyl-4<em>H</em>-1-benzopyran-4-one;Eucalyptin;4′,7-Dimethoxy-6,8-dimethyl-5-hydroxyflavone",
    "duplicated_cas_no": "",
    "SMILES": "CC1=C2C(=C(O)C(C)=C1OC)C(=O)C=C(O2)C3=CC=C(OC)C=C3",
    "meta_data": {
        "InChI": "InChI=1S/C19H18O5/c1-10-17(21)16-14(20)9-15(12-5-7-13(22-3)8-6-12)24-19(16)11(2)18(10)23-4/h5-9,21H,1-4H3",
        "InChIKey": null,
        "Canonical SMILES": "O=C1C=C(OC2=C1C(O)=C(C(OC)=C2C)C)C=3C=CC(OC)=CC3",
        "Molecular Formula": "C<sub>19</sub>H<sub>18</sub>O<sub>5</sub>",
        "Molecular Mass": "326.34",
        "Melting Point": "184-185 °C"
    }
}