{
    "cas_no": "74367-78-5",
    "key_name": "3,5-Dinitrobenzyl chloride",
    "cn_name": "3,5-二硝基苄氯;",
    "alternate_name": "Benzene, 1-(chloromethyl)-3,5-dinitro-;Toluene, α-chloro-3,5-dinitro-;1-(Chloromethyl)-3,5-dinitrobenzene;3,5-Dinitrobenzyl chloride;1-Chloromethyl-3,5-dinitrobenzene",
    "duplicated_cas_no": "",
    "SMILES": "N(=O)(=O)C1=CC(N(=O)=O)=CC(CCl)=C1",
    "meta_data": {
        "InChI": "InChI=1S/C7H5ClN2O4/c8-4-5-1-6(9(11)12)3-7(2-5)10(13)14/h1-3H,4H2",
        "InChIKey": null,
        "Canonical SMILES": "O=N(=O)C=1C=C(C=C(C1)CCl)N(=O)=O",
        "Molecular Formula": "C<sub>7</sub>H<sub>5</sub>ClN<sub>2</sub>O<sub>4</sub>",
        "Molecular Mass": "216.58",
        "Melting Point": "46-47 °C"
    }
}