{
    "cas_no": "2784-89-6",
    "key_name": "HC Red 1",
    "cn_name": "2-硝基-4-氨基二苯胺;HC红1号;",
    "alternate_name": "1,4-Benzenediamine, 2-nitro-<em>N</em><sup>1</sup>-phenyl-;<em>p</em>-Phenylenediamine, 2-nitro-<em>N</em><sup>1</sup>-phenyl-;2-Nitro-<em>N</em><sup>1</sup>-phenyl-1,4-benzenediamine;2-Nitro-4-amino-<em>N</em>-phenylaniline;1-Anilino-4-amino-2-nitrobenzene;4-Amino-2-nitrodiphenylamine;HC Red No. 1;HC Red 1;2-Nitro-1-<em>N</em>-phenylbenzene-1,4-diamine",
    "duplicated_cas_no": "",
    "SMILES": "N(C1=C(N(=O)=O)C=C(N)C=C1)C2=CC=CC=C2",
    "meta_data": {
        "InChI": "InChI=1S/C12H11N3O2/c13-9-6-7-11(12(8-9)15(16)17)14-10-4-2-1-3-5-10/h1-8,14H,13H2",
        "InChIKey": null,
        "Canonical SMILES": "O=N(=O)C1=CC(N)=CC=C1NC=2C=CC=CC2",
        "Molecular Formula": "C<sub>12</sub>H<sub>11</sub>N<sub>3</sub>O<sub>2</sub>",
        "Molecular Mass": "229.23",
        "Melting Point": "228-231 °C"
    }
}