{
    "cas_no": "83647-42-1",
    "key_name": "3-Amino-2-methylbenzyl alcohol",
    "cn_name": "3-氨基-2-甲基苯甲醇;",
    "alternate_name": "Benzenemethanol, 3-amino-2-methyl-;Benzyl alcohol, 3-amino-2-methyl-;3-Amino-2-methylbenzenemethanol;3-Amino-2-methylbenzyl alcohol;2-Methyl-3-hydroxymethylaniline;(3-Amino-2-methylphenyl)methanol",
    "duplicated_cas_no": "",
    "SMILES": "C(O)C1=C(C)C(N)=CC=C1",
    "meta_data": {
        "InChI": "InChI=1S/C8H11NO/c1-6-7(5-10)3-2-4-8(6)9/h2-4,10H,5,9H2,1H3",
        "InChIKey": null,
        "Canonical SMILES": "OCC=1C=CC=C(N)C1C",
        "Molecular Formula": "C<sub>8</sub>H<sub>11</sub>NO",
        "Molecular Mass": "137.18",
        "Melting Point": "106-107 °C"
    }
}