{
    "cas_no": "6311-37-1",
    "key_name": "4-Amino-3-bromobenzoic acid",
    "cn_name": "4-氨基-3-溴苯甲酸;",
    "alternate_name": "Benzoic acid, 4-amino-3-bromo-;4-Amino-3-bromobenzoic acid;NSC 43549",
    "duplicated_cas_no": "",
    "SMILES": "C(O)(=O)C1=CC(Br)=C(N)C=C1",
    "meta_data": {
        "InChI": "InChI=1S/C7H6BrNO2/c8-5-3-4(7(10)11)1-2-6(5)9/h1-3H,9H2,(H,10,11)",
        "InChIKey": null,
        "Canonical SMILES": "O=C(O)C1=CC=C(N)C(Br)=C1",
        "Molecular Formula": "C<sub>7</sub>H<sub>6</sub>BrNO<sub>2</sub>",
        "Molecular Mass": "216.03",
        "Melting Point": "204 °C"
    }
}