{
    "cas_no": "2198-66-5",
    "key_name": "2-Bromo-4-<em>tert</em>-butylphenol",
    "cn_name": null,
    "alternate_name": "Phenol, 2-bromo-4-(1,1-dimethylethyl)-;Phenol, 2-bromo-4-<em>tert</em>-butyl-;2-Bromo-4-(1,1-dimethylethyl)phenol;2-Bromo-4-<em>tert</em>-butylphenol;4-<em>tert</em>-Butyl-2-bromophenol;NSC 2360;2-Bromo-<em>4</em>-<em>t</em>ert-butylphenol",
    "duplicated_cas_no": "",
    "SMILES": "C(C)(C)(C)C1=CC(Br)=C(O)C=C1",
    "meta_data": {
        "InChI": "InChI=1S/C10H13BrO/c1-10(2,3)7-4-5-9(12)8(11)6-7/h4-6,12H,1-3H3",
        "InChIKey": null,
        "Canonical SMILES": "BrC1=CC(=CC=C1O)C(C)(C)C",
        "Molecular Formula": "C<sub>10</sub>H<sub>13</sub>BrO",
        "Molecular Mass": "229.11",
        "Boiling Point": "113 °C @ Press: 9 Torr",
        "Melting Point": "52 °C"
    }
}