{
    "cas_no": "57334-36-8",
    "key_name": "4-Chloro-8-hydroxyquinoline",
    "cn_name": null,
    "alternate_name": "8-Quinolinol, 4-chloro-;4-Chloro-8-quinolinol;NSC 673455;4-Chloro-8-hydroxyquinoline",
    "duplicated_cas_no": "",
    "SMILES": "ClC=1C2=C(C(O)=CC=C2)N=CC1",
    "meta_data": {
        "InChI": "InChI=1S/C9H6ClNO/c10-7-4-5-11-9-6(7)2-1-3-8(9)12/h1-5,12H",
        "InChIKey": null,
        "Canonical SMILES": "ClC=1C=CN=C2C(O)=CC=CC12",
        "Molecular Formula": "C<sub>9</sub>H<sub>6</sub>ClNO",
        "Molecular Mass": "179.60",
        "Melting Point": "142-143 °C"
    }
}