{
    "cas_no": "20967-96-8",
    "key_name": "3-(Phenylmethoxy)benzeneacetonitrile",
    "cn_name": "3-苯甲氧基苯乙腈;",
    "alternate_name": "Benzeneacetonitrile, 3-(phenylmethoxy)-;Acetonitrile, [<em>m</em>-(benzyloxy)phenyl]-;3-(Phenylmethoxy)benzeneacetonitrile;[<em>m</em>-(Benzyloxy)phenyl]acetonitrile;[3-(Benzyloxy)phenyl]acetonitrile;3′-Benzyloxyphenylacetonitrile;2-[3-(Benzyloxy)phenyl]acetonitrile;2-(3-Phenylmethoxyphenyl)acetonitrile",
    "duplicated_cas_no": "",
    "SMILES": "O(CC1=CC=CC=C1)C2=CC(CC#N)=CC=C2",
    "meta_data": {
        "InChI": "InChI=1S/C15H13NO/c16-10-9-13-7-4-8-15(11-13)17-12-14-5-2-1-3-6-14/h1-8,11H,9,12H2",
        "InChIKey": null,
        "Canonical SMILES": "N#CCC=1C=CC=C(OCC=2C=CC=CC2)C1",
        "Molecular Formula": "C<sub>15</sub>H<sub>13</sub>NO",
        "Molecular Mass": "223.27",
        "Boiling Point": "162-166 °C @ Press: 0.55 Torr"
    }
}