{
    "cas_no": "7531-52-4",
    "key_name": "<span class=\"text-smallcaps\">L</span>-Prolinamide",
    "cn_name": "L-脯氨酰胺;",
    "alternate_name": "2-Pyrrolidinecarboxamide, (2<em>S</em>)-;Prolinamide, <span class=\"text-smallcaps\">L</span>-;2-Pyrrolidinecarboxamide, (<em>S</em>)-;(2<em>S</em>)-2-Pyrrolidinecarboxamide;<span class=\"text-smallcaps\">L</span>-Proline amide;<span class=\"text-smallcaps\">L</span>-Prolinamide;(-)-Prolinamide;(<em>S</em>)-Prolinamide;(<em>S</em>)-Pyrrolidine-2-carboxamide;(<em>S</em>)-Proline amide;(<em>S</em>)-2-(Aminocarbonyl)pyrrolidine;(2<em>S</em>)-Pyrrolidine-2-carboxylic acid amide;(2<em>S</em>)-2-Carbamoylpyrrolidine;(<em>S</em>)-Pyrrolidine-2-carboxylic acid amide;(2S)-Pyrrolidine-2-carboxamide",
    "duplicated_cas_no": "",
    "SMILES": "C(N)(=O)[C@@H]1CCCN1",
    "meta_data": {
        "InChI": "InChI=1S/C5H10N2O/c6-5(8)4-2-1-3-7-4/h4,7H,1-3H2,(H2,6,8)/t4-/m0/s1",
        "InChIKey": null,
        "Canonical SMILES": "O=C(N)C1NCCC1",
        "Molecular Formula": "C<sub>5</sub>H<sub>10</sub>N<sub>2</sub>O",
        "Molecular Mass": "114.15",
        "Melting Point": "93 °C"
    }
}