{
    "cas_no": "128625-52-5",
    "key_name": "PyBOP",
    "cn_name": "PyBOP;六氟磷酸苯并三唑-1-基-氧基三吡咯烷基磷;",
    "alternate_name": "Phosphorus(1+), [1-(hydroxy-κ<em>O</em>)-1<em>H</em>-benzotriazolato]tri-1-pyrrolidinyl-, (<em>T</em>-4)-, hexafluorophosphate(1-) (1:1);Pyrrolidine, phosphorus complex;1<em>H</em>-Benzotriazole, 1-hydroxy-, phosphorus complex;PyBOP;Benzotriazol-1-yloxytripyrrolidinophosphonium hexafluorophosphate;1-Benzotriazolyloxytripyrrolidinylphosphonium hexafluorophosphate;(1-Hydroxy-1<em>H</em>-benzotriazolato-<em>O</em>)tri-1-pyrrolidinylphosphorus(1+) hexafluorophosphate(1-);1<em>H</em>-Benzotriazol-1-yloxytripyrrolidinophosphonium hexafluorophosphate",
    "duplicated_cas_no": "1006589-06-5",
    "SMILES": "[P+](ON1C=2C(N=N1)=CC=CC2)(N3CCCC3)(N4CCCC4)N5CCCC5.[P+5]([F-])([F-])([F-])([F-])([F-])[F-]",
    "meta_data": {
        "InChI": "InChI=1S/C18H28N6OP.F6P/c1-2-10-18-17(9-1)19-20-24(18)25-26(21-11-3-4-12-21,22-13-5-6-14-22)23-15-7-8-16-23;1-7(2,3,4,5)6/h1-2,9-10H,3-8,11-16H2;/q+1;-1",
        "InChIKey": null,
        "Canonical SMILES": "[F-][P+5]([F-])([F-])([F-])([F-])[F-].N1=NN(O[P+](N2CCCC2)(N3CCCC3)N4CCCC4)C=5C=CC=CC15",
        "Molecular Formula": "C<sub>18</sub>H<sub>28</sub>N<sub>6</sub>OP.F<sub>6</sub>P",
        "Molecular Mass": "",
        "Melting Point": "156-157 °C"
    }
}