{
    "cas_no": "98071-16-0",
    "key_name": "Cyclobutanecarboxylic acid, 1-amino-, hydrochloride (1:1)",
    "cn_name": "环丁氨酸盐酸盐;1-氨基环丁烷羧酸盐酸盐;",
    "alternate_name": "Cyclobutanecarboxylic acid, 1-amino-, hydrochloride (1:1);Cyclobutanecarboxylic acid, 1-amino-, hydrochloride;1-Aminocyclobutanecarboxylic acid hydrochloride;1-Aminocyclobutane-1-carboxylic acid hydrochloride",
    "duplicated_cas_no": "",
    "SMILES": "C(O)(=O)C1(N)CCC1.Cl",
    "meta_data": {
        "InChI": "InChI=1S/C5H9NO2.ClH/c6-5(4(7)8)2-1-3-5;/h1-3,6H2,(H,7,8);1H",
        "InChIKey": null,
        "Canonical SMILES": "Cl.O=C(O)C1(N)CCC1",
        "Molecular Formula": "C<sub>5</sub>H<sub>9</sub>NO<sub>2</sub>.ClH",
        "Molecular Mass": "",
        "Melting Point": "260-265 °C"
    }
}