{
    "cas_no": "1745-36-4",
    "key_name": "Spinasterol 3-<em>O</em>-β-<span class=\"text-smallcaps\">D</span>-glucopyranoside",
    "cn_name": null,
    "alternate_name": "β-<span class=\"text-smallcaps\">D</span>-Glucopyranoside, (3β,5α,22<em>E</em>)-stigmasta-7,22-dien-3-yl;5α-Stigmasta-7,22-diene, 3β-(β-<span class=\"text-smallcaps\">D</span>-glucopyranosyloxy)-;5α-Stigmasta-7,22-dien-3β-ol, <span class=\"text-smallcaps\">D</span>-glucoside;(3β,5α,22<em>E</em>)-Stigmasta-7,22-dien-3-yl β-<span class=\"text-smallcaps\">D</span>-glucopyranoside;α-Spinasterol glucoside;α-Spinasterol β-<span class=\"text-smallcaps\">D</span>-glucoside;α-Spinasteryl glucoside;α-Spinasterol 3-glucoside;α-Spinasteryl β-<span class=\"text-smallcaps\">D</span>-glucoside;α-Spinasteryl <span class=\"text-smallcaps\">D</span>-glucoside;Spinasteryl β-<span class=\"text-smallcaps\">D</span>-glucopyranoside;α-Spinasterol β-<span class=\"text-smallcaps\">D</span>-glucopyranoside;α-Spinasterol-3-<em>O</em>-β-<span class=\"text-smallcaps\">D</span>-glucopyranoside;Spinasterol-3-<em>O</em>-β-<span class=\"text-smallcaps\">D</span>-glucoside;3-<em>O</em>-β-<span class=\"text-smallcaps\">D</span>-Glucopyranosylspinasterol;α-Spinasteryl 3-<em>O</em>-β-<span class=\"text-smallcaps\">D</span>-glucoside;Spinasterol β-<span class=\"text-smallcaps\">D</span>-glucopyranoside;Spinasterol 3-<em>O</em>-β-<span class=\"text-smallcaps\">D</span>-glucopyranoside;3α-Spinasterol glucoside",
    "duplicated_cas_no": "",
    "SMILES": "C[C@@]12[C@](C=3[C@@]([C@]4(C)[C@@](CC3)(C[C@@H](O[C@@H]5O[C@H](CO)[C@@H](O)[C@H](O)[C@H]5O)CC4)[H])(CC1)[H])(CC[C@@]2([C@@H](/C=C/[C@H](C(C)C)CC)C)[H])[H]",
    "meta_data": {
        "InChI": "InChI=1S/C35H58O6/c1-7-22(20(2)3)9-8-21(4)26-12-13-27-25-11-10-23-18-24(14-16-34(23,5)28(25)15-17-35(26,27)6)40-33-32(39)31(38)30(37)29(19-36)41-33/h8-9,11,20-24,26-33,36-39H,7,10,12-19H2,1-6H3/b9-8+/t21-,22-,23+,24+,26-,27+,28+,29-,30-,31+,32-,33-,34+,35-/m1/s1",
        "InChIKey": null,
        "Canonical SMILES": "OCC1OC(OC2CCC3(C)C4C(=CCC3C2)C5CCC(C(C=CC(CC)C(C)C)C)C5(C)CC4)C(O)C(O)C1O",
        "Molecular Formula": "C<sub>35</sub>H<sub>58</sub>O<sub>6</sub>",
        "Molecular Mass": "574.83",
        "Melting Point": "292 °C"
    }
}