{
    "cas_no": "1096-38-4",
    "key_name": "Pregna-4,16-diene-3,20-dione",
    "cn_name": "16-去氢黄体酮;孕甾-4,16-二烯-3,20-二酮;",
    "alternate_name": "Pregna-4,16-diene-3,20-dione;16-Dehydroprogesterone;NSC 11037;16,17-Didehydroprogesterone;Δ<sup>16</sup>-Progesterone;Δ<sup>4,16</sup>-Pregnadiene-3,20-dione;3,20-Dioxopregna-4,16-diene;NSC 9785",
    "duplicated_cas_no": "",
    "SMILES": "C[C@@]12[C@@]3([C@]([C@]4([C@](C)(CC3)C(C(C)=O)=CC4)[H])(CCC1=CC(=O)CC2)[H])[H]",
    "meta_data": {
        "InChI": "InChI=1S/C21H28O2/c1-13(22)17-6-7-18-16-5-4-14-12-15(23)8-10-20(14,2)19(16)9-11-21(17,18)3/h6,12,16,18-19H,4-5,7-11H2,1-3H3/t16-,18-,19-,20-,21+/m0/s1",
        "InChIKey": null,
        "Canonical SMILES": "O=C1C=C2CCC3C4CC=C(C(=O)C)C4(C)CCC3C2(C)CC1",
        "Molecular Formula": "C<sub>21</sub>H<sub>28</sub>O<sub>2</sub>",
        "Molecular Mass": "312.45",
        "Melting Point": "186 °C"
    }
}