{
    "cas_no": "5588-16-9",
    "key_name": "Althiazide",
    "cn_name": null,
    "alternate_name": "2<em>H</em>-1,2,4-Benzothiadiazine-7-sulfonamide, 6-chloro-3,4-dihydro-3-[(2-propen-1-ylthio)methyl]-, 1,1-dioxide;2<em>H</em>-1,2,4-Benzothiadiazine-7-sulfonamide, 3-[(allylthio)methyl]-6-chloro-3,4-dihydro-, 1,1-dioxide;2<em>H</em>-1,2,4-Benzothiadiazine-7-sulfonamide, 6-chloro-3,4-dihydro-3-[(2-propenylthio)methyl]-, 1,1-dioxide;P-1779;3-[(Allylthio)methyl]-6-chloro-3,4-dihydro-2<em>H</em>-1,2,4-benzothiadiazine-7-sulfonamide 1,1-dioxide;Althizide;Althiazide;Altizide;Altizid;Racemic althiazide;Aldactazine",
    "duplicated_cas_no": "133562-91-1",
    "SMILES": "O=S1(=O)C=2C(NC(CSCC=C)N1)=CC(Cl)=C(S(N)(=O)=O)C2",
    "meta_data": {
        "InChI": "InChI=1S/C11H14ClN3O4S3/c1-2-3-20-6-11-14-8-4-7(12)9(21(13,16)17)5-10(8)22(18,19)15-11/h2,4-5,11,14-15H,1,3,6H2,(H2,13,16,17)",
        "InChIKey": null,
        "Canonical SMILES": "O=S(=O)(N)C=1C=C2C(=CC1Cl)NC(NS2(=O)=O)CSCC=C",
        "Molecular Formula": "C<sub>11</sub>H<sub>14</sub>ClN<sub>3</sub>O<sub>4</sub>S<sub>3</sub>",
        "Molecular Mass": "383.89",
        "Melting Point": "206-207 °C"
    }
}