{
    "cas_no": "7305-71-7",
    "key_name": "2-Amino-5-methylthiazole",
    "cn_name": "2-氨基-5-甲基噻唑;",
    "alternate_name": "2-Thiazolamine, 5-methyl-;Thiazole, 2-amino-5-methyl-;5-Methyl-2-thiazolamine;2-Amino-5-methylthiazole;5-Methyl-2-aminothiazole;5-Methyl-1,3-thiazol-2-ylamine;NSC 523150;(5-Methylthiazol-2-yl)amine;5-Methyl-1,3-thiazol-2-amine",
    "duplicated_cas_no": "",
    "SMILES": "CC=1SC(N)=NC1",
    "meta_data": {
        "InChI": "InChI=1S/C4H6N2S/c1-3-2-6-4(5)7-3/h2H,1H3,(H2,5,6)",
        "InChIKey": null,
        "Canonical SMILES": "N=1C=C(SC1N)C",
        "Molecular Formula": "C<sub>4</sub>H<sub>6</sub>N<sub>2</sub>S",
        "Molecular Mass": "114.17",
        "Melting Point": "95-96.5 °C"
    }
}