{
    "cas_no": "26018-73-5",
    "key_name": "6-Chlorobenzo[<em>b</em>]thiophene-2-carboxylic acid",
    "cn_name": null,
    "alternate_name": "Benzo[<em>b</em>]thiophene-2-carboxylic acid, 6-chloro-;6-Chlorobenzo[<em>b</em>]thiophene-2-carboxylic acid;2-Carboxy-6-chlorobenzo[<em>b</em>]thiophene;6-Chlorobenzothiophene-2-carboxylic acid",
    "duplicated_cas_no": "",
    "SMILES": "C(O)(=O)C1=CC=2C(S1)=CC(Cl)=CC2",
    "meta_data": {
        "InChI": "InChI=1S/C9H5ClO2S/c10-6-2-1-5-3-8(9(11)12)13-7(5)4-6/h1-4H,(H,11,12)",
        "InChIKey": null,
        "Canonical SMILES": "O=C(O)C=1SC=2C=C(Cl)C=CC2C1",
        "Molecular Formula": "C<sub>9</sub>H<sub>5</sub>ClO<sub>2</sub>S",
        "Molecular Mass": "212.65",
        "Melting Point": "283 °C"
    }
}