{
    "cas_no": "627-44-1",
    "key_name": "Diethylmercury",
    "cn_name": null,
    "alternate_name": "Mercury, diethyl-;Diethylmercury",
    "duplicated_cas_no": "",
    "SMILES": "[Hg](CC)CC",
    "meta_data": {
        "InChI": "InChI=1S/2C2H5.Hg/c2*1-2;/h2*1H2,2H3;",
        "InChIKey": null,
        "Canonical SMILES": "[Hg](CC)CC",
        "Molecular Formula": "C<sub>4</sub>H<sub>10</sub>Hg",
        "Molecular Mass": "",
        "Boiling Point": "159 °C",
        "Melting Point": "&lt;25 °C",
        "Density": "2.4268 g/cm³ @ Temp: 20 °C"
    }
}