{
    "cas_no": "699-04-7",
    "key_name": "<em>N</em>,4-Dimethylbenzylamine",
    "cn_name": "N-甲基-N-(4-甲基苄基)胺;",
    "alternate_name": "Benzenemethanamine, <em>N</em>,4-dimethyl-;Benzylamine, <em>N</em>,<em>p</em>-dimethyl-;<em>N</em>,4-Dimethylbenzenemethanamine;<em>N</em>,4-Dimethylbenzylamine;<em>N</em>-Methyl-<em>N</em>-(4-methylbenzyl)amine;<em>N</em>-Methyl-4-methylbenzylamine;<em>N</em>-(4-Methylbenzyl)-<em>N</em>-methylamine;4-Methyl-<em>N</em>-methylbenzylamine;1-(4-Methylphenyl)-<em>N</em>-methylmethanamine",
    "duplicated_cas_no": "",
    "SMILES": "C(NC)C1=CC=C(C)C=C1",
    "meta_data": {
        "InChI": "InChI=1S/C9H13N/c1-8-3-5-9(6-4-8)7-10-2/h3-6,10H,7H2,1-2H3",
        "InChIKey": null,
        "Canonical SMILES": "C=1C=C(C=CC1C)CNC",
        "Molecular Formula": "C<sub>9</sub>H<sub>13</sub>N",
        "Molecular Mass": "135.21",
        "Boiling Point": "83 °C @ Press: 11 Torr"
    }
}