{
    "cas_no": "13697-89-7",
    "key_name": "1,3-Difluoro-2-iodobenzene",
    "cn_name": "2,6-二氟碘苯;",
    "alternate_name": "Benzene, 1,3-difluoro-2-iodo-;1,3-Difluoro-2-iodobenzene;2,6-Difluoroiodobenzene;1-Iodo-2,6-difluorobenzene",
    "duplicated_cas_no": "",
    "SMILES": "IC1=C(F)C=CC=C1F",
    "meta_data": {
        "InChI": "InChI=1S/C6H3F2I/c7-4-2-1-3-5(8)6(4)9/h1-3H",
        "InChIKey": null,
        "Canonical SMILES": "FC1=CC=CC(F)=C1I",
        "Molecular Formula": "C<sub>6</sub>H<sub>3</sub>F<sub>2</sub>I",
        "Molecular Mass": "239.99",
        "Boiling Point": "55-56 °C @ Press: 8 Torr",
        "Melting Point": "24.5-26.5 °C"
    }
}