{
    "cas_no": "91-85-0",
    "key_name": "Thonzylamine",
    "cn_name": "松齐拉敏;松齐拉敏;",
    "alternate_name": "1,2-Ethanediamine, <em>N</em><sup>1</sup>-[(4-methoxyphenyl)methyl]-<em>N</em><sup>2</sup>,<em>N</em><sup>2</sup>-dimethyl-<em>N</em><sup>1</sup>-2-pyrimidinyl-;Pyrimidine, 2-[[2-(dimethylamino)ethyl](<em>p</em>-methoxybenzyl)amino]-;1,2-Ethanediamine, <em>N</em>-[(4-methoxyphenyl)methyl]-<em>N</em>′,<em>N</em>′-dimethyl-<em>N</em>-2-pyrimidinyl-;<em>N</em><sup>1</sup>-[(4-Methoxyphenyl)methyl]-<em>N</em><sup>2</sup>,<em>N</em><sup>2</sup>-dimethyl-<em>N</em><sup>1</sup>-2-pyrimidinyl-1,2-ethanediamine;Neohetramine;Thonzylamine;2-[<em>p</em>-Methoxybenzyl-(2-dimethylaminoethyl)amino]pyrimidine;1,2-Ethanediamine N1-[(4-methoxyphenyl)methyl]-N2,N2-dimethyl-N1-2-pyrimidinyl-",
    "duplicated_cas_no": "64296-62-4",
    "SMILES": "N(CC1=CC=C(OC)C=C1)(CCN(C)C)C=2N=CC=CN2",
    "meta_data": {
        "InChI": "InChI=1S/C16H22N4O/c1-19(2)11-12-20(16-17-9-4-10-18-16)13-14-5-7-15(21-3)8-6-14/h4-10H,11-13H2,1-3H3",
        "InChIKey": null,
        "Canonical SMILES": "N=1C=CC=NC1N(CC2=CC=C(OC)C=C2)CCN(C)C",
        "Molecular Formula": "C<sub>16</sub>H<sub>22</sub>N<sub>4</sub>O",
        "Molecular Mass": "286.37",
        "Boiling Point": "185-187 °C @ Press: 2.2 Torr"
    }
}