{
    "cas_no": "7170-38-9",
    "key_name": "3-Phenoxypropionic acid",
    "cn_name": null,
    "alternate_name": "Propanoic acid, 3-phenoxy-;Propionic acid, 3-phenoxy-;3-Phenoxypropanoic acid;β-Phenoxypropionic acid;3-Phenoxypropionic acid",
    "duplicated_cas_no": "",
    "SMILES": "O(CCC(O)=O)C1=CC=CC=C1",
    "meta_data": {
        "InChI": "InChI=1S/C9H10O3/c10-9(11)6-7-12-8-4-2-1-3-5-8/h1-5H,6-7H2,(H,10,11)",
        "InChIKey": null,
        "Canonical SMILES": "O=C(O)CCOC=1C=CC=CC1",
        "Molecular Formula": "C<sub>9</sub>H<sub>10</sub>O<sub>3</sub>",
        "Molecular Mass": "166.17",
        "Boiling Point": "240 °C",
        "Melting Point": "97.5 °C"
    }
}