{
    "cas_no": "156897-06-2",
    "key_name": "Licofelone",
    "cn_name": "利克飞龙;2-[2-(4-氯苯基)-6,6-二甲基-1-苯基-5,7-二氢吡咯烷嗪-3-基]乙酸;",
    "alternate_name": "1<em>H</em>-Pyrrolizine-5-acetic acid, 6-(4-chlorophenyl)-2,3-dihydro-2,2-dimethyl-7-phenyl-;6-(4-Chlorophenyl)-2,3-dihydro-2,2-dimethyl-7-phenyl-1<em>H</em>-pyrrolizine-5-acetic acid;ML 3000;Licofelone;[2,2-Dimethyl-6-(4-chlorophenyl)-7-phenyl-2,3-dihydro-1<em>H</em>-pyrrolizin-5-yl]acetic acid",
    "duplicated_cas_no": "",
    "SMILES": "C(C(O)=O)C1=C(C(=C2N1CC(C)(C)C2)C3=CC=CC=C3)C4=CC=C(Cl)C=C4",
    "meta_data": {
        "InChI": "InChI=1S/C23H22ClNO2/c1-23(2)13-19-22(15-6-4-3-5-7-15)21(16-8-10-17(24)11-9-16)18(12-20(26)27)25(19)14-23/h3-11H,12-14H2,1-2H3,(H,26,27)",
        "InChIKey": null,
        "Canonical SMILES": "O=C(O)CC1=C(C=2C=CC(Cl)=CC2)C(C=3C=CC=CC3)=C4N1CC(C)(C)C4",
        "Molecular Formula": "C<sub>23</sub>H<sub>22</sub>ClNO<sub>2</sub>",
        "Molecular Mass": "379.88",
        "Melting Point": "156-157 °C"
    }
}