{
    "cas_no": "7251-52-7",
    "key_name": "α-Phenyl-2-pyridineacetamide",
    "cn_name": "苯基-(2-吡啶基)乙酰胺;",
    "alternate_name": "2-Pyridineacetamide, α-phenyl-;α-Phenyl-2-pyridineacetamide;2-Phenyl-2-(2-pyridyl)acetamide;SC 16571;α-(2-Pyridyl)benzeneacetamide;NSC 62572;2-Phenyl-2-pyridin-2-yl-acetamide;2-Phenyl-2-pyridin-2-ylacetamide;2-Phenyl-2-(pyridin-2-yl)acetamide",
    "duplicated_cas_no": "82993-78-0",
    "SMILES": "C(C(N)=O)(C1=CC=CC=C1)C2=CC=CC=N2",
    "meta_data": {
        "InChI": "InChI=1S/C13H12N2O/c14-13(16)12(10-6-2-1-3-7-10)11-8-4-5-9-15-11/h1-9,12H,(H2,14,16)",
        "InChIKey": null,
        "Canonical SMILES": "O=C(N)C(C1=NC=CC=C1)C=2C=CC=CC2",
        "Molecular Formula": "C<sub>13</sub>H<sub>12</sub>N<sub>2</sub>O",
        "Molecular Mass": "212.25",
        "Melting Point": "134 °C"
    }
}