{
    "cas_no": "774-07-2",
    "key_name": "Ethyl 6-amino-1,2-dihydro-2-thioxo-5-pyrimidinecarboxylate",
    "cn_name": "4-氨基-2-巯基嘧啶-5-羧酸乙酯;",
    "alternate_name": "5-Pyrimidinecarboxylic acid, 6-amino-1,2-dihydro-2-thioxo-, ethyl ester;5-Pyrimidinecarboxylic acid, 4-amino-2-mercapto-, ethyl ester;5-Pyrimidinecarboxylic acid, 4-amino-1,2-dihydro-2-thioxo-, ethyl ester;Ethyl 6-amino-1,2-dihydro-2-thioxo-5-pyrimidinecarboxylate;NSC 9308",
    "duplicated_cas_no": "",
    "SMILES": "C(OCC)(=O)C1=C(N)NC(=S)N=C1",
    "meta_data": {
        "InChI": "InChI=1S/C7H9N3O2S/c1-2-12-6(11)4-3-9-7(13)10-5(4)8/h3H,2H2,1H3,(H3,8,9,10,13)",
        "InChIKey": null,
        "Canonical SMILES": "O=C(OCC)C=1C=NC(=S)NC1N",
        "Molecular Formula": "C<sub>7</sub>H<sub>9</sub>N<sub>3</sub>O<sub>2</sub>S",
        "Molecular Mass": "199.23",
        "Melting Point": "260-265 °C"
    }
}