{
    "cas_no": "614-45-9",
    "key_name": "<em>tert</em>-Butyl peroxybenzoate",
    "cn_name": "过氧化苯甲酸叔丁酯;叔丁基过苯甲酸酯;过苯甲酸特丁酯;",
    "alternate_name": "Benzenecarboperoxoic acid, 1,1-dimethylethyl ester;Peroxybenzoic acid, <em>tert</em>-butyl ester;<em>tert</em>-Butyl alcohol, peroxybenzoate;<em>tert</em>-Butyl perbenzoate;<em>tert</em>-Butyl peroxybenzoate;<em>tert</em>-Butyl benzoyl peroxide;Benzoyl <em>tert</em>-butyl peroxide;Perbutyl Z;Esperox 10;Chaloxyd TBPB;Kayabutyl B;Luperox P;Trigonox C;Interox TBPB-HA-M 1;TC 5 (vulcanizer);TC 5;CP 02;CP 02 (catalyst);Chaloxyd TBPB-HA-M 1;TBPB-HA-M 1;NSC 674;Link-Cup TBPB;<em>t</em>-Butyl peroxybenzoate;Trigonox C 50D;Norox TBPB;Trigonox 93;Luperox PXL;V 73;LQ-TBPB;TBPB;TBPB-HA-M 3;B 802799;Peroxan PB;<em>tert</em>-Butyl benzoperoxoate;LA 9T;DN 2062;T 39170",
    "duplicated_cas_no": "66745-94-6",
    "SMILES": "C(OOC(C)(C)C)(=O)C1=CC=CC=C1",
    "meta_data": {
        "InChI": "InChI=1S/C11H14O3/c1-11(2,3)14-13-10(12)9-7-5-4-6-8-9/h4-8H,1-3H3",
        "InChIKey": null,
        "Canonical SMILES": "O=C(OOC(C)(C)C)C=1C=CC=CC1",
        "Molecular Formula": "C<sub>11</sub>H<sub>14</sub>O<sub>3</sub>",
        "Molecular Mass": "194.23",
        "Boiling Point": "75-76 °C @ Press: 0.2 Torr",
        "Melting Point": "8 °C",
        "Density": "1.021 g/cm³ @ Temp: 25 °C"
    }
}