{
    "cas_no": "291775-59-2",
    "key_name": "2-(1,1-Dimethylethyl) (1<em>R</em>,3<em>S</em>,4<em>S</em>)-2-azabicyclo[2.2.1]heptane-2,3-dicarboxylate",
    "cn_name": null,
    "alternate_name": "2-Azabicyclo[2.2.1]heptane-2,3-dicarboxylic acid, 2-(1,1-dimethylethyl) ester, (1<em>R</em>,3<em>S</em>,4<em>S</em>)-;2-(1,1-Dimethylethyl) (1<em>R</em>,3<em>S</em>,4<em>S</em>)-2-azabicyclo[2.2.1]heptane-2,3-dicarboxylate;(1<em>R</em>,3<em>S</em>,4<em>S</em>)-2-(<em>tert</em>-Butoxycarbonyl)-2-azabicyclo[2.2.1]heptane-3-carboxylic acid",
    "duplicated_cas_no": "",
    "SMILES": "C(OC(C)(C)C)(=O)N1[C@]2(C[C@@]([C@H]1C(O)=O)(CC2)[H])[H]",
    "meta_data": {
        "InChI": "InChI=1S/C12H19NO4/c1-12(2,3)17-11(16)13-8-5-4-7(6-8)9(13)10(14)15/h7-9H,4-6H2,1-3H3,(H,14,15)/t7-,8+,9-/m0/s1",
        "InChIKey": null,
        "Canonical SMILES": "O=C(OC(C)(C)C)N1C(C(=O)O)C2CCC1C2",
        "Molecular Formula": "C<sub>12</sub>H<sub>19</sub>NO<sub>4</sub>",
        "Molecular Mass": "241.28",
        "Melting Point": "147-150 °C"
    }
}