{
    "cas_no": "58654-67-4",
    "key_name": "5-Methyl-2-octanone",
    "cn_name": "5-甲基-2-辛酮;",
    "alternate_name": "2-Octanone, 5-methyl-;5-Methyl-2-octanone",
    "duplicated_cas_no": "",
    "SMILES": "C(CCC(C)=O)(CCC)C",
    "meta_data": {
        "InChI": "InChI=1S/C9H18O/c1-4-5-8(2)6-7-9(3)10/h8H,4-7H2,1-3H3",
        "InChIKey": null,
        "Canonical SMILES": "O=C(C)CCC(C)CCC",
        "Molecular Formula": "C<sub>9</sub>H<sub>18</sub>O",
        "Molecular Mass": "142.24",
        "Boiling Point": "100-102 °C @ Press: 50 Torr"
    }
}