{
    "cas_no": "50-07-7",
    "key_name": "Mitomycin C",
    "cn_name": "丝裂霉素C;嘧吡霉素;",
    "alternate_name": "Azirino[2′,3′:3,4]pyrrolo[1,2-<em>a</em>]indole-4,7-dione, 6-amino-8-[[(aminocarbonyl)oxy]methyl]-1,1a,2,8,8a,8b-hexahydro-8a-methoxy-5-methyl-, (1a<em>S</em>,8<em>S</em>,8a<em>R</em>,8b<em>S</em>)-;Mitomycin C;Azirino[2′,3′:3,4]pyrrolo[1,2-<em>a</em>]indole-4,7-dione, 6-amino-1,1a,2,8,8a,8b-hexahydro-8-(hydroxymethyl)-8a-methoxy-5-methyl-, carbamate (ester);Azirino[2′,3′:3,4]pyrrolo[1,2-<em>a</em>]indole-4,7-dione, 6-amino-8-[[(aminocarbonyl)oxy]methyl]-1,1a,2,8,8a,8b-hexahydro-8a-methoxy-5-methyl-, [1a<em>S</em>-(1aα,8β,8aα,8bα)]-;(1a<em>S</em>,8<em>S</em>,8a<em>R</em>,8b<em>S</em>)-6-Amino-8-[[(aminocarbonyl)oxy]methyl]-1,1a,2,8,8a,8b-hexahydro-8a-methoxy-5-methylazirino[2′,3′:3,4]pyrrolo[1,2-<em>a</em>]indole-4,7-dione;Ametycine;NSC 26980;Mitomycin;MitoExtra;Mitonco;Mitoplus;MMC;Mitocin C;Mutamycin;Mytomycin Kyowa S;Mitozytrex;MeSH ID: D016685",
    "duplicated_cas_no": "7481-68-7;74349-48-7;144085-53-0",
    "SMILES": "O(C)[C@]12N(C3=C([C@H]1COC(N)=O)C(=O)C(N)=C(C)C3=O)C[C@]4([C@@]2(N4)[H])[H]",
    "meta_data": {
        "InChI": "InChI=1S/C15H18N4O5/c1-5-9(16)12(21)8-6(4-24-14(17)22)15(23-2)13-7(18-13)3-19(15)10(8)11(5)20/h6-7,13,18H,3-4,16H2,1-2H3,(H2,17,22)/t6-,7+,13+,15-/m1/s1",
        "InChIKey": null,
        "Canonical SMILES": "O=C(OCC1C=2C(=O)C(N)=C(C(=O)C2N3CC4NC4C31OC)C)N",
        "Molecular Formula": "C<sub>15</sub>H<sub>18</sub>N<sub>4</sub>O<sub>5</sub>",
        "Molecular Mass": "334.33",
        "Boiling Point": "534 °C",
        "Melting Point": "&gt;360 °C"
    }
}