{
    "cas_no": "93-11-8",
    "key_name": "2-Naphthalenesulfonyl chloride",
    "cn_name": "2-萘磺酰氯;",
    "alternate_name": "2-Naphthalenesulfonyl chloride;β-Naphthalenesulfochloride;2-Naphthylsulfonyl chloride;β-Naphthalenesulfonyl chloride;Naphthalene-2-sulfonic acid chloride;β-Naphthylsulfonyl chloride;2-Naphthalenylsulfonyl chloride;NSC 133893",
    "duplicated_cas_no": "",
    "SMILES": "S(Cl)(=O)(=O)C1=CC2=C(C=C1)C=CC=C2",
    "meta_data": {
        "InChI": "InChI=1S/C10H7ClO2S/c11-14(12,13)10-6-5-8-3-1-2-4-9(8)7-10/h1-7H",
        "InChIKey": null,
        "Canonical SMILES": "O=S(=O)(Cl)C=1C=CC=2C=CC=CC2C1",
        "Molecular Formula": "C<sub>10</sub>H<sub>7</sub>ClO<sub>2</sub>S",
        "Molecular Mass": "226.68",
        "Melting Point": "81 °C"
    }
}