{
    "cas_no": "2905-26-2",
    "key_name": "3-(1,1-Dimethylethyl)benzenesulfonyl chloride",
    "cn_name": null,
    "alternate_name": "Benzenesulfonyl chloride, 3-(1,1-dimethylethyl)-;Benzenesulfonyl chloride, <em>m</em>-<em>tert</em>-butyl-;3-(1,1-Dimethylethyl)benzenesulfonyl chloride;3-<em>tert</em>-Butylphenylsulfonyl chloride;3-<em>tert</em>-Butylbenzenesulfonyl chloride;3-<em>tert</em>-Butylbenzene-1-sulfonyl chloride",
    "duplicated_cas_no": "",
    "SMILES": "C(C)(C)(C)C1=CC(S(Cl)(=O)=O)=CC=C1",
    "meta_data": {
        "InChI": "InChI=1S/C10H13ClO2S/c1-10(2,3)8-5-4-6-9(7-8)14(11,12)13/h4-7H,1-3H3",
        "InChIKey": null,
        "Canonical SMILES": "O=S(=O)(Cl)C=1C=CC=C(C1)C(C)(C)C",
        "Molecular Formula": "C<sub>10</sub>H<sub>13</sub>ClO<sub>2</sub>S",
        "Molecular Mass": "232.73",
        "Boiling Point": "93-94 °C @ Press: 0.6 Torr"
    }
}