{
    "cas_no": "33588-54-4",
    "key_name": "1-[3-(Acetyloxy)-5-bromo-1<em>H</em>-indol-1-yl]ethanone",
    "cn_name": null,
    "alternate_name": "Ethanone, 1-[3-(acetyloxy)-5-bromo-1<em>H</em>-indol-1-yl]-;Indol-3-ol, 1-acetyl-5-bromo-, acetate (ester);1<em>H</em>-Indol-3-ol, 1-acetyl-5-bromo-, acetate (ester);Indoxyl, 1-acetyl-5-bromo-, acetate;1-[3-(Acetyloxy)-5-bromo-1<em>H</em>-indol-1-yl]ethanone;(1-Acetyl-5-bromoindol-3-yl) acetate;1-Acetyl-5-bromo-1<em>H</em>-indol-3-yl acetate",
    "duplicated_cas_no": "",
    "SMILES": "O(C(C)=O)C=1C=2C(N(C(C)=O)C1)=CC=C(Br)C2",
    "meta_data": {
        "InChI": "InChI=1S/C12H10BrNO3/c1-7(15)14-6-12(17-8(2)16)10-5-9(13)3-4-11(10)14/h3-6H,1-2H3",
        "InChIKey": null,
        "Canonical SMILES": "O=C(OC1=CN(C(=O)C)C=2C=CC(Br)=CC12)C",
        "Molecular Formula": "C<sub>12</sub>H<sub>10</sub>BrNO<sub>3</sub>",
        "Molecular Mass": "296.12",
        "Melting Point": "124-124.5 °C"
    }
}