{
    "cas_no": "6240-11-5",
    "key_name": "Tricyclo[3.3.1.1<sup>3,7</sup>]decane-1-ethanol",
    "cn_name": "1-羟乙基金刚烷;",
    "alternate_name": "Tricyclo[3.3.1.1<sup>3,7</sup>]decane-1-ethanol;1-Adamantaneethanol;1-(2-Hydroxyethyl)adamantane;2-(1-Adamantyl)ethanol;1-Adamantylethanol;2-(1-Adamantyl)ethyl alcohol;2-(1-Adamantyl)-1-ethanol;2-(Adamantan-1-yl)ethanol;2-(Adamantan-1-yl)ethan-1-ol",
    "duplicated_cas_no": "",
    "SMILES": "C(CO)C12CC3CC(C1)CC(C2)C3",
    "meta_data": {
        "InChI": "InChI=1S/C12H20O/c13-2-1-12-6-9-3-10(7-12)5-11(4-9)8-12/h9-11,13H,1-8H2",
        "InChIKey": null,
        "Canonical SMILES": "OCCC12CC3CC(CC(C3)C1)C2",
        "Molecular Formula": "C<sub>12</sub>H<sub>20</sub>O",
        "Molecular Mass": "180.29",
        "Melting Point": "76 °C"
    }
}