{
    "cas_no": "51-41-2",
    "key_name": "Noradrenaline",
    "cn_name": "去甲肾上腺素;(R)-4-(2-氨基-1-羟基乙基)-1,2-苯二酚;",
    "alternate_name": "1,2-Benzenediol, 4-[(1<em>R</em>)-2-amino-1-hydroxyethyl]-;Benzyl alcohol, α-(aminomethyl)-3,4-dihydroxy-, (-)-;1,2-Benzenediol, 4-(2-amino-1-hydroxyethyl)-, (<em>R</em>)-;Arterenol, <em>l</em>-;4-[(1<em>R</em>)-2-Amino-1-hydroxyethyl]-1,2-benzenediol;Adrenor;Aktamin;<em>l</em>-2-Amino-1-(3,4-dihydroxyphenyl)ethanol;<em>l</em>-α-(Aminomethyl)-3,4-dihydroxybenzyl alcohol;(-)-α-(Aminomethyl)protocatechuyl alcohol;Arterenol;<em>l</em>-Arterenol;<em>l</em>-1-(3,4-Dihydroxyphenyl)-2-aminoethanol;<em>l</em>-3,4-Dihydroxyphenylethanolamine;Levarterenol;Levoarterenol;Levonorepinephrine;Noradrenaline;<em>l</em>-Noradrenaline;(-)-Noradrenaline;(-)-Norepinephrine;Norepirenamine;Sympathin E;<em>l</em>-Norepinephrine;Norepinephrine;Levophed;Levonoradrenaline;Noradrenalin;Norartrinal;(<em>R</em>)-(-)-Norepinephrine;Nor-Epirenan;Levonor;<span class=\"text-smallcaps\">L</span>-Noradrenaline;(-)-Arterenol;(<em>R</em>)-Noradrenaline;(<em>R</em>)-Norepinephrine;(R)-4-(2-Amino-1-hydroxyethyl)-1,2-benzenediol;MeSH ID: D009638",
    "duplicated_cas_no": "4899-05-2;66197-73-7",
    "SMILES": "[C@@H](CN)(O)C1=CC(O)=C(O)C=C1",
    "meta_data": {
        "InChI": "InChI=1S/C8H11NO3/c9-4-8(12)5-1-2-6(10)7(11)3-5/h1-3,8,10-12H,4,9H2/t8-/m0/s1",
        "InChIKey": null,
        "Canonical SMILES": "OC1=CC=C(C=C1O)C(O)CN",
        "Molecular Formula": "C<sub>8</sub>H<sub>11</sub>NO<sub>3</sub>",
        "Molecular Mass": "169.18",
        "Melting Point": "217 °C (decomp)"
    }
}