{
    "cas_no": "124-03-8",
    "key_name": "Cetyldimethylethylammonium bromide",
    "cn_name": "十六烷基二甲基乙基溴化铵;",
    "alternate_name": "1-Hexadecanaminium, <em>N</em>-ethyl-<em>N</em>,<em>N</em>-dimethyl-, bromide (1:1);Ammonium, ethylhexadecyldimethyl-, bromide;Ethylhexadecyldimethylammonium bromide;1-Hexadecanaminium, <em>N</em>-ethyl-<em>N</em>,<em>N</em>-dimethyl-, bromide;Ammonyx DME;Bretol;CDA;Cetyldimethylethylammonium bromide;Cetylethyldimethylammonium bromide;Dimethylethylhexadecylammonium bromide;Ethyl cetab;Radiol germicidal solution;Quaternium 17;<em>N</em>-Ethyl-<em>N</em>,<em>N</em>-dimethyl-<em>N</em>-hexadecylammonium bromide;Cetethyldimonium bromide;Zap-Oglobin II",
    "duplicated_cas_no": "",
    "SMILES": "C(CCCCCCCCCCCCCC)C[N+](CC)(C)C.[Br-]",
    "meta_data": {
        "InChI": "InChI=1S/C20H44N.BrH/c1-5-7-8-9-10-11-12-13-14-15-16-17-18-19-20-21(3,4)6-2;/h5-20H2,1-4H3;1H/q+1;/p-1",
        "InChIKey": null,
        "Canonical SMILES": "[Br-].CCCCCCCCCCCCCCCC[N+](C)(C)CC",
        "Molecular Formula": "C<sub>20</sub>H<sub>44</sub>N.Br",
        "Molecular Mass": "",
        "Melting Point": "182 °C"
    }
}