{
    "cas_no": "58810-48-3",
    "key_name": "Ofurace",
    "cn_name": "呋酰胺;N-(2,6-二甲基苯基)-N-(四氢-2-氧代-3-呋喃基)-2-氯乙酰胺;",
    "alternate_name": "Acetamide, 2-chloro-<em>N</em>-(2,6-dimethylphenyl)-<em>N</em>-(tetrahydro-2-oxo-3-furanyl)-;2-Chloro-<em>N</em>-(2,6-dimethylphenyl)-<em>N</em>-(tetrahydro-2-oxo-3-furanyl)acetamide;Ortho 20615;RE 20615;Milfuram;Ofurace;3-(<em>N</em>-Chloracetyl-<em>N</em>-2,6-dimethylphenylamino)-γ-butyrolactone;Ofurase",
    "duplicated_cas_no": "75789-32-1;78209-61-7;1135441-64-3",
    "SMILES": "N(C(CCl)=O)(C1=C(C)C=CC=C1C)C2C(=O)OCC2",
    "meta_data": {
        "InChI": "InChI=1S/C14H16ClNO3/c1-9-4-3-5-10(2)13(9)16(12(17)8-15)11-6-7-19-14(11)18/h3-5,11H,6-8H2,1-2H3",
        "InChIKey": null,
        "Canonical SMILES": "O=C1OCCC1N(C(=O)CCl)C=2C(=CC=CC2C)C",
        "Molecular Formula": "C<sub>14</sub>H<sub>16</sub>ClNO<sub>3</sub>",
        "Molecular Mass": "281.73",
        "Melting Point": "145.5 °C"
    }
}