{
    "cas_no": "896-33-3",
    "key_name": "Ethyltriphenylphosphonium chloride",
    "cn_name": "乙基三苯基氯化鏻;三苯基乙基氯化鏻;",
    "alternate_name": "Phosphonium, ethyltriphenyl-, chloride (1:1);Phosphonium, ethyltriphenyl-, chloride;Ethyltriphenylphosphonium chloride;Triphenylethylphosphonium chloride",
    "duplicated_cas_no": "",
    "SMILES": "[P+](CC)(C1=CC=CC=C1)(C2=CC=CC=C2)C3=CC=CC=C3.[Cl-]",
    "meta_data": {
        "InChI": "InChI=1S/C20H20P.ClH/c1-2-21(18-12-6-3-7-13-18,19-14-8-4-9-15-19)20-16-10-5-11-17-20;/h3-17H,2H2,1H3;1H/q+1;/p-1",
        "InChIKey": null,
        "Canonical SMILES": "[Cl-].C=1C=CC(=CC1)[P+](C=2C=CC=CC2)(C=3C=CC=CC3)CC",
        "Molecular Formula": "C<sub>20</sub>H<sub>20</sub>P.Cl",
        "Molecular Mass": "",
        "Melting Point": "234-236 °C"
    }
}