{
    "cas_no": "38819-01-1",
    "key_name": "Cellotetraose",
    "cn_name": "D-(+)-纤维四糖;",
    "alternate_name": "<span class=\"text-smallcaps\">D</smallcap>-Glucose, <em>O</em>-β-<smallcap>D</smallcap>-glucopyranosyl-(1→4)-<em>O</em>-β-<smallcap>D</smallcap>-glucopyranosyl-(1→4)-<em>O</em>-β-<smallcap>D</span>-glucopyranosyl-(1→4)-;Cellotetraose;<em>O</em>-β-<span class=\"text-smallcaps\">D</smallcap>-Glucopyranosyl-(1→4)-<em>O</em>-β-<smallcap>D</smallcap>-glucopyranosyl-(1→4)-<em>O</em>-β-<smallcap>D</smallcap>-glucopyranosyl-(1→4)-<smallcap>D</span>-glucose;Cellotetrose",
    "duplicated_cas_no": "2478-34-4;146598-61-0;1349248-44-7",
    "SMILES": "O([C@@H]1[C@@H](CO)O[C@@H](O[C@@H]([C@@H]([C@H](C=O)O)O)[C@@H](CO)O)[C@H](O)[C@H]1O)[C@@H]2O[C@H](CO)[C@@H](O[C@@H]3O[C@H](CO)[C@@H](O)[C@H](O)[C@H]3O)[C@H](O)[C@H]2O",
    "meta_data": {
        "InChI": "InChI=1S/C24H42O21/c25-1-6(30)11(32)19(7(31)2-26)43-23-17(38)14(35)21(9(4-28)41-23)45-24-18(39)15(36)20(10(5-29)42-24)44-22-16(37)13(34)12(33)8(3-27)40-22/h1,6-24,26-39H,2-5H2/t6-,7+,8+,9+,10+,11+,12+,13-,14+,15+,16+,17+,18+,19+,20+,21+,22-,23-,24-/m0/s1",
        "InChIKey": null,
        "Canonical SMILES": "O=CC(O)C(O)C(OC1OC(CO)C(OC2OC(CO)C(OC3OC(CO)C(O)C(O)C3O)C(O)C2O)C(O)C1O)C(O)CO",
        "Molecular Formula": "C<sub>24</sub>H<sub>42</sub>O<sub>21</sub>",
        "Molecular Mass": "666.58",
        "Melting Point": "251 °C (decomp)"
    }
}