{
    "cas_no": "66183-71-9",
    "key_name": "5-Oxoproline ethyl ester",
    "cn_name": null,
    "alternate_name": "Proline, 5-oxo-, ethyl ester;Pyroglutamic acid, ethyl ester, <span class=\"text-smallcaps\">DL</span>-;<span class=\"text-smallcaps\">DL</span>-Proline, 5-oxo-, ethyl ester;5-Oxoproline ethyl ester;5-Oxopyrrolidine-2-carboxylic acid ethyl ester;Ethyl 5-oxopyrrolidine-2-carboxylate",
    "duplicated_cas_no": "",
    "SMILES": "C(OCC)(=O)C1CCC(=O)N1",
    "meta_data": {
        "InChI": "InChI=1S/C7H11NO3/c1-2-11-7(10)5-3-4-6(9)8-5/h5H,2-4H2,1H3,(H,8,9)",
        "InChIKey": null,
        "Canonical SMILES": "O=C1NC(C(=O)OCC)CC1",
        "Molecular Formula": "C<sub>7</sub>H<sub>11</sub>NO<sub>3</sub>",
        "Molecular Mass": "157.17",
        "Boiling Point": "137-140 °C @ Press: 0.45 Torr",
        "Melting Point": "54 °C"
    }
}