{
    "cas_no": "598-22-1",
    "key_name": "Propanoyl bromide",
    "cn_name": "丙酰溴;",
    "alternate_name": "Propanoyl bromide;Propionyl bromide;Propionic acid bromide",
    "duplicated_cas_no": "",
    "SMILES": "C(CC)(Br)=O",
    "meta_data": {
        "InChI": "InChI=1S/C3H5BrO/c1-2-3(4)5/h2H2,1H3",
        "InChIKey": null,
        "Canonical SMILES": "O=C(Br)CC",
        "Molecular Formula": "C<sub>3</sub>H<sub>5</sub>BrO",
        "Molecular Mass": "136.98",
        "Boiling Point": "102 °C"
    }
}