{
    "cas_no": "7321-55-3",
    "key_name": "2,2-Dimethylpropanedinitrile",
    "cn_name": "2,2-二甲基丙二腈;",
    "alternate_name": "Propanedinitrile, 2,2-dimethyl-;Malononitrile, dimethyl-;Propanedinitrile, dimethyl-;2,2-Dimethylpropanedinitrile;Dimethylmalononitrile;2,2-Dicyanopropane;Dimethylpropanedinitrile;NSC 86109;Dimethyldicyanomethane;2,2-Dimethylmalononitrile",
    "duplicated_cas_no": "",
    "SMILES": "C(C#N)(C#N)(C)C",
    "meta_data": {
        "InChI": "InChI=1S/C5H6N2/c1-5(2,3-6)4-7/h1-2H3",
        "InChIKey": null,
        "Canonical SMILES": "N#CC(C#N)(C)C",
        "Molecular Formula": "C<sub>5</sub>H<sub>6</sub>N<sub>2</sub>",
        "Molecular Mass": "94.11",
        "Boiling Point": "169.5 °C",
        "Melting Point": "31.5 °C"
    }
}