{
    "cas_no": "100366-75-4",
    "key_name": "2-Iodo-5-(trifluoromethyl)pyridine",
    "cn_name": "2-碘-5-三氟甲基吡啶;",
    "alternate_name": "Pyridine, 2-iodo-5-(trifluoromethyl)-;2-Iodo-5-(trifluoromethyl)pyridine;2-Iodo-5-trifluoromethylpyridine",
    "duplicated_cas_no": "",
    "SMILES": "C(F)(F)(F)C=1C=CC(I)=NC1",
    "meta_data": {
        "InChI": "InChI=1S/C6H3F3IN/c7-6(8,9)4-1-2-5(10)11-3-4/h1-3H",
        "InChIKey": null,
        "Canonical SMILES": "FC(F)(F)C1=CN=C(I)C=C1",
        "Molecular Formula": "C<sub>6</sub>H<sub>3</sub>F<sub>3</sub>IN",
        "Molecular Mass": "272.99",
        "Melting Point": "82-83 °C"
    }
}