{
    "cas_no": "506-89-8",
    "key_name": "Urea hydrochloride",
    "cn_name": null,
    "alternate_name": "Urea, hydrochloride (1:1);Urea, monohydrochloride;Urea hydrochloride;Carbamide chloride",
    "duplicated_cas_no": "24926-13-4",
    "SMILES": "C(N)(N)=O.Cl",
    "meta_data": {
        "InChI": "InChI=1S/CH4N2O.ClH/c2-1(3)4;/h(H4,2,3,4);1H",
        "InChIKey": null,
        "Canonical SMILES": "Cl.O=C(N)N",
        "Molecular Formula": "CH<sub>4</sub>N<sub>2</sub>O.ClH",
        "Molecular Mass": "",
        "Melting Point": "145 °C (decomp)",
        "Density": "1.336-1.341 g/cm³"
    }
}