{
    "cas_no": "629-38-9",
    "key_name": "Diethylene glycol monomethyl ether acetate",
    "cn_name": "二乙二醇单甲基醚醋酸酯;",
    "alternate_name": "Ethanol, 2-(2-methoxyethoxy)-, 1-acetate;Ethanol, 2-(2-methoxyethoxy)-, acetate;Diethylene glycol monomethyl ether acetate;Methyl carbitol acetate;Diethylene glycol methyl ether acetate;2-(2-Methoxyethoxy)ethyl acetate",
    "duplicated_cas_no": "",
    "SMILES": "C(OCCOC)COC(C)=O",
    "meta_data": {
        "InChI": "InChI=1S/C7H14O4/c1-7(8)11-6-5-10-4-3-9-2/h3-6H2,1-2H3",
        "InChIKey": null,
        "Canonical SMILES": "O=C(OCCOCCOC)C",
        "Molecular Formula": "C<sub>7</sub>H<sub>14</sub>O<sub>4</sub>",
        "Molecular Mass": "162.18",
        "Boiling Point": "85-95 °C @ Press: 0.2 Torr"
    }
}