{
    "cas_no": "72291-30-6",
    "key_name": "Propanoic acid, 2-cyano-2-methyl-, methyl ester",
    "cn_name": null,
    "alternate_name": "Propanoic acid, 2-cyano-2-methyl-, methyl ester;Propionic acid, 2-cyano-2-methyl-, methyl ester;Methyl 2,2-dimethylcyanoacetate;2,2-Dimethyl-2-cyanoacetic acid methyl ester;2-Cyano-2,2-dimethylacetic acid methyl ester;Methyl 2-cyano-2-methylpropanoate;Methyl 2-cyano-2,2-dimethylacetate",
    "duplicated_cas_no": "",
    "SMILES": "C(C(OC)=O)(C#N)(C)C",
    "meta_data": {
        "InChI": "InChI=1S/C6H9NO2/c1-6(2,4-7)5(8)9-3/h1-3H3",
        "InChIKey": null,
        "Canonical SMILES": "N#CC(C(=O)OC)(C)C",
        "Molecular Formula": "C<sub>6</sub>H<sub>9</sub>NO<sub>2</sub>",
        "Molecular Mass": "127.14",
        "Boiling Point": "70-72 °C @ Press: 17 Torr"
    }
}