{
    "cas_no": "5953-76-4",
    "key_name": "Methyl (2<em>Z</em>)-2-methyl-2-butenoate",
    "cn_name": "顺式2-甲基-2-丁烯酸甲酯;",
    "alternate_name": "2-Butenoic acid, 2-methyl-, methyl ester, (2<em>Z</em>)-;Crotonic acid, 2-methyl-, methyl ester, (<em>Z</em>)-;2-Butenoic acid, 2-methyl-, methyl ester, (<em>Z</em>)-;Angelic acid, methyl ester;Methyl (2<em>Z</em>)-2-methyl-2-butenoate;Methyl angelate;Methyl <em>cis</em>-2-methylcrotonate;Methyl (<em>Z</em>)-2-methyl-2-butenoate",
    "duplicated_cas_no": "",
    "SMILES": "C(\\C(OC)=O)(=C\\C)/C",
    "meta_data": {
        "InChI": "InChI=1S/C6H10O2/c1-4-5(2)6(7)8-3/h4H,1-3H3/b5-4-",
        "InChIKey": null,
        "Canonical SMILES": "O=C(OC)C(=CC)C",
        "Molecular Formula": "C<sub>6</sub>H<sub>10</sub>O<sub>2</sub>",
        "Molecular Mass": "114.14",
        "Boiling Point": "127.6-127.8 °C",
        "Density": "0.94130 g/cm³ @ Temp: 20 °C"
    }
}