{
    "cas_no": "4498-68-4",
    "key_name": "1<em>H</em>-Indazole-3-carboxylic acid, ethyl ester",
    "cn_name": "1H-Indazole-3-carboxylicacidethylester;",
    "alternate_name": "1<em>H</em>-Indazole-3-carboxylic acid, ethyl ester;Ethyl 3-indazolecarboxylate;NSC 179807;3-Ethoxycarbonylindazole;Ethyl 1<em>H</em>-indazole-3-carboxylate",
    "duplicated_cas_no": "",
    "SMILES": "C(OCC)(=O)C=1C=2C(NN1)=CC=CC2",
    "meta_data": {
        "InChI": "InChI=1S/C10H10N2O2/c1-2-14-10(13)9-7-5-3-4-6-8(7)11-12-9/h3-6H,2H2,1H3,(H,11,12)",
        "InChIKey": null,
        "Canonical SMILES": "O=C(OCC)C1=NNC=2C=CC=CC12",
        "Molecular Formula": "C<sub>10</sub>H<sub>10</sub>N<sub>2</sub>O<sub>2</sub>",
        "Molecular Mass": "190.20",
        "Melting Point": "136-137 °C"
    }
}