{
    "cas_no": "623-25-6",
    "key_name": "α,α′-Dichloro-<em>p</em>-xylene",
    "cn_name": "1,4-对二氯苄;1,4-双(氯甲基)苯;",
    "alternate_name": "Benzene, 1,4-bis(chloromethyl)-;<em>p</em>-Xylene, α,α′-dichloro-;1,4-Bis(chloromethyl)benzene;<em>p</em>-Bis(chloromethyl)benzene;<em>p</em>-Xylylene dichloride;α,α′-Dichloro-<em>p</em>-xylene;<em>p</em>-Xylene-α,α′-dichloride;<em>p</em>-Dichloroxylylene;<em>p</em>-Chloromethylbenzyl chloride;4-(Chloromethyl)benzyl chloride;α,α′-Dichloro-<em>p</em>-xylol;NSC 36976;1,4-Di(chloromethyl)benzene;<em>p</em>-Di(chloromethyl)benzene",
    "duplicated_cas_no": "1802015-24-2",
    "SMILES": "C(Cl)C1=CC=C(CCl)C=C1",
    "meta_data": {
        "InChI": "InChI=1S/C8H8Cl2/c9-5-7-1-2-8(6-10)4-3-7/h1-4H,5-6H2",
        "InChIKey": null,
        "Canonical SMILES": "ClCC1=CC=C(C=C1)CCl",
        "Molecular Formula": "C<sub>8</sub>H<sub>8</sub>Cl<sub>2</sub>",
        "Molecular Mass": "175.06",
        "Boiling Point": "254 °C",
        "Melting Point": "100 °C",
        "Density": "1.42 g/cm³"
    }
}