{
    "cas_no": "3416-26-0",
    "key_name": "Lidoflazine",
    "cn_name": "利多氟嗪;利多福心;立得安;",
    "alternate_name": "1-Piperazineacetamide, 4-[4,4-bis(4-fluorophenyl)butyl]-<em>N</em>-(2,6-dimethylphenyl)-;1-Piperazineaceto-2′,6′-xylidide, 4-[4,4-bis(<em>p</em>-fluorophenyl)butyl]-;4-[4,4-Bis(4-fluorophenyl)butyl]-<em>N</em>-(2,6-dimethylphenyl)-1-piperazineacetamide;McN-JR 7904;R 7904;Clinium;1-[4,4-Di(4-fluorophenyl)butyl]-4-[(2,6-dimethylanilinocarbonyl)methyl]piperazine;Klinium;Lidoflazine;1-[4,4-Bis(4-fluorophenyl)butyl]-4-(2,6-dimethylphenylcarbamoylmethyl)piperazine;4-[4,4-Bis(<em>p</em>-fluorophenyl)butyl]-1-piperazineaceto-2′,6′-xylidide;Ordiflazine;Corflazine;1-[4,4-Bis(fluorophenyl)butyl]-4-(2,6-dimethylanilinocarbonylmethyl)piperazine;Lidoflazinum;Lidoflazin;McN-JR 7094;Angex;2-(4-(4,4-Bis(4-fluorophenyl)butyl)piperazin-1-yl)-<em>N</em>-(2,6-dimethylphenyl)acetamide",
    "duplicated_cas_no": "31032-48-1",
    "SMILES": "C(CCCN1CCN(CC(NC2=C(C)C=CC=C2C)=O)CC1)(C3=CC=C(F)C=C3)C4=CC=C(F)C=C4",
    "meta_data": {
        "InChI": "InChI=1S/C30H35F2N3O/c1-22-5-3-6-23(2)30(22)33-29(36)21-35-19-17-34(18-20-35)16-4-7-28(24-8-12-26(31)13-9-24)25-10-14-27(32)15-11-25/h3,5-6,8-15,28H,4,7,16-21H2,1-2H3,(H,33,36)",
        "InChIKey": null,
        "Canonical SMILES": "O=C(NC=1C(=CC=CC1C)C)CN2CCN(CC2)CCCC(C3=CC=C(F)C=C3)C4=CC=C(F)C=C4",
        "Molecular Formula": "C<sub>30</sub>H<sub>35</sub>F<sub>2</sub>N<sub>3</sub>O",
        "Molecular Mass": "491.62",
        "Melting Point": "159-161 °C"
    }
}