{
    "cas_no": "14861-17-7",
    "key_name": "4-(2,4-Dichlorophenoxy)aniline",
    "cn_name": "2,4-二氯-4\"-氨基二苯醚;4-(2,4-二氯苯氧基)苯胺;",
    "alternate_name": "Benzenamine, 4-(2,4-dichlorophenoxy)-;Aniline, <em>p</em>-(2,4-dichlorophenoxy)-;4-(2,4-Dichlorophenoxy)benzenamine;2,4-Dichloro-4′-aminodiphenyl ether;4-(2,4-Dichlorophenoxy)aniline;2,4-Dichlorophenyl <em>p</em>-aminophenyl ether;2,4-Dichloro-1-(4-aminophenoxy)benzene;4-Amino-2′,4′-dichlorodiphenyl ether;4-(2′,4′-Dichlorophenoxy)aniline",
    "duplicated_cas_no": "",
    "SMILES": "O(C1=C(Cl)C=C(Cl)C=C1)C2=CC=C(N)C=C2",
    "meta_data": {
        "InChI": "InChI=1S/C12H9Cl2NO/c13-8-1-6-12(11(14)7-8)16-10-4-2-9(15)3-5-10/h1-7H,15H2",
        "InChIKey": null,
        "Canonical SMILES": "ClC1=CC=C(OC2=CC=C(N)C=C2)C(Cl)=C1",
        "Molecular Formula": "C<sub>12</sub>H<sub>9</sub>Cl<sub>2</sub>NO",
        "Molecular Mass": "254.11",
        "Melting Point": "184-185 °C"
    }
}