{
    "cas_no": "6786-36-3",
    "key_name": "Octadecanophenone",
    "cn_name": null,
    "alternate_name": "1-Octadecanone, 1-phenyl-;Stearophenone;1-Phenyl-1-octadecanone;Octadecanophenone;1-Phenyloctadecanone;NSC 57587",
    "duplicated_cas_no": "",
    "SMILES": "C(CCCCCCCCCCCCCCCCC)(=O)C1=CC=CC=C1",
    "meta_data": {
        "InChI": "InChI=1S/C24H40O/c1-2-3-4-5-6-7-8-9-10-11-12-13-14-15-19-22-24(25)23-20-17-16-18-21-23/h16-18,20-21H,2-15,19,22H2,1H3",
        "InChIKey": null,
        "Canonical SMILES": "O=C(C=1C=CC=CC1)CCCCCCCCCCCCCCCCC",
        "Molecular Formula": "C<sub>24</sub>H<sub>40</sub>O",
        "Molecular Mass": "344.57",
        "Boiling Point": "266 °C @ Press: 13 Torr",
        "Melting Point": "63.5-64.5 °C"
    }
}