{
    "cas_no": "1634-78-2",
    "key_name": "Malaoxon",
    "cn_name": "马拉代氧气磷;",
    "alternate_name": "Butanedioic acid, 2-[(dimethoxyphosphinyl)thio]-, 1,4-diethyl ester;Succinic acid, mercapto-, diethyl ester, <em>S</em>-ester with <em>O</em>,<em>O</em>-dimethyl phosphorothioate;Butanedioic acid, [(dimethoxyphosphinyl)thio]-, diethyl ester;Succinic acid, mercapto-, diethyl ester, dimethyl phosphate;Phosphorothioic acid, <em>O</em>,<em>O</em>-dimethyl ester, <em>S</em>-ester with diethyl mercaptosuccinate;Diethyl mercaptosuccinate <em>S</em>-ester with <em>O</em>,<em>O</em>-dimethyl phosphorothioate;Liromat;Malaoxon;Malathion-<em>O</em>-analog;<em>O</em>,<em>O</em>-Dimethyl <em>S</em>-1,2-bis(ethoxycarbonyl)ethyl phosphorothioate;Malaoxone;Oxycarbophos;Diethyl [(dimethoxyphosphino)thio]butanedioate;Malathion oxon;Maloxon;<span class=\"text-smallcaps\">DL</span>-Malaoxon;Malaoxan",
    "duplicated_cas_no": "35805-20-0",
    "SMILES": "C(SP(OC)(OC)=O)(CC(OCC)=O)C(OCC)=O",
    "meta_data": {
        "InChI": "InChI=1S/C10H19O7PS/c1-5-16-9(11)7-8(10(12)17-6-2)19-18(13,14-3)15-4/h8H,5-7H2,1-4H3",
        "InChIKey": null,
        "Canonical SMILES": "O=C(OCC)CC(SP(=O)(OC)OC)C(=O)OCC",
        "Molecular Formula": "C<sub>10</sub>H<sub>19</sub>O<sub>7</sub>PS",
        "Molecular Mass": "314.29",
        "Boiling Point": "114 °C",
        "Melting Point": "&lt;20 °C"
    }
}