{
    "cas_no": "4198-90-7",
    "key_name": "4-Hydroxy-3,5-dimethylbenzonitrile",
    "cn_name": "3,5-二甲基-4-羟基苯甲腈;",
    "alternate_name": "Benzonitrile, 4-hydroxy-3,5-dimethyl-;4-Hydroxy-3,5-dimethylbenzonitrile;2,6-Dimethyl-4-cyanophenol;3,5-Dimethyl-4-hydroxybenzonitrile;4-Cyano-2,6-dimethylphenol",
    "duplicated_cas_no": "",
    "SMILES": "C(#N)C1=CC(C)=C(O)C(C)=C1",
    "meta_data": {
        "InChI": "InChI=1S/C9H9NO/c1-6-3-8(5-10)4-7(2)9(6)11/h3-4,11H,1-2H3",
        "InChIKey": null,
        "Canonical SMILES": "N#CC=1C=C(C(O)=C(C1)C)C",
        "Molecular Formula": "C<sub>9</sub>H<sub>9</sub>NO",
        "Molecular Mass": "147.17",
        "Melting Point": "105 °C"
    }
}