{
    "cas_no": "223437-11-4",
    "key_name": "1-Butyl-1-methylpyrrolidinium bis(trifluoromethylsulfonyl)imide",
    "cn_name": "1-正丁基-1-甲基吡咯烷二(三氟甲基磺酰)酰亚胺;",
    "alternate_name": "Pyrrolidinium, 1-butyl-1-methyl-, salt with 1,1,1-trifluoro-<em>N</em>-[(trifluoromethyl)sulfonyl]methanesulfonamide (1:1);Methanesulfonamide, 1,1,1-trifluoro-<em>N</em>-[(trifluoromethyl)sulfonyl]-, ion(1-), 1-butyl-1-methylpyrrolidinium;<em>N</em>,<em>N</em>-Butylmethylpyrrolidinium trifluoromethanesulfonimide;<em>N</em>,<em>N</em>-Butylmethylpyrrolidinium bis(trifluoromethanesulfonyl)imide;1-Butyl-1-methylpyrrolidinium bis(trifluoromethanesulfonyl)imide;1-Butyl-1-methylpyrrolidinium bis(trifluoromethylsulfonyl)imide;<em>N</em>,<em>N</em>-Butylmethylpyrrolidinium bis(trifluoromethanesulfonyl)amide;<em>N</em>-Butyl-<em>N</em>-methylpyrrolidinium bis(trifluoromethylsulfonyl)imide;1-Butyl-1-methylpyrrolidinium bis(trifluoromethanesulfonyl)amide;<em>N</em>-Butyl-<em>N</em>-methylpyrrolidinium bis(trifluoromethane sulfone)imide;1-Butyl-1-methylpyrrolidinium bistriflimide;1-Butyl-1-methylpyrrolidinium <em>N</em>,<em>N</em>-bis[(trifluoromethyl)sulfonyl]amide;<em>N</em>-Butyl-<em>N</em>-methylpyrrolidinium bistriflimide;1-Butyl-1-methylpyrrolidinium bis(trifluoromethylsulfonyl)amide;Butylmethylpyrrolidinium bis(trifluoromethylsulfonyl)imide;Butylmethylpyrrolidinium bis(trifluoromethanesulfonyl)imide;<em>N</em>-Methyl-<em>N</em>-butyl-pyrrolidinium bis(trifluoromethanesulfonyl)imide;<em>N</em>-Butyl-<em>N</em>-methylpyrrolidinium bis(trifluoromethansulfonyl)imide;<em>N</em>-Butyl-<em>N</em>-methylpyrrolidinium bis(trifluoromethanesulfonyl)amide;1-Butyl-1-methylpyrrolidinium (trifluoromethanesulfonyl)imide;<em>N</em>-Methyl-<em>N</em>-butylpyrrolidinium bis(trifluoromethylsulfonyl)imide;[Bmpyrr][NTf<sub>2</sub>];PYR14-TFSI;<em>N</em>-Butyl-<em>N</em>-methylpyrrolidinium bis(fluoromethanesulfonyl)imide;B 2851;[c4Mpyr][tf2N]",
    "duplicated_cas_no": "1397700-79-6",
    "SMILES": "C(CCC)[N+]1(C)CCCC1.S([N-]S(C(F)(F)F)(=O)=O)(C(F)(F)F)(=O)=O",
    "meta_data": {
        "InChI": "InChI=1S/C9H20N.C2F6NO4S2/c1-3-4-7-10(2)8-5-6-9-10;3-1(4,5)14(10,11)9-15(12,13)2(6,7)8/h3-9H2,1-2H3;/q+1;-1",
        "InChIKey": null,
        "Canonical SMILES": "O=S(=O)([N-]S(=O)(=O)C(F)(F)F)C(F)(F)F.CCCC[N+]1(C)CCCC1",
        "Molecular Formula": "C<sub>9</sub>H<sub>20</sub>N.C<sub>2</sub>F<sub>6</sub>NO<sub>4</sub>S<sub>2</sub>",
        "Molecular Mass": "",
        "Melting Point": "-15 °C",
        "Density": "1.40 g/cm³ @ Temp: 25 °C"
    }
}