{
    "cas_no": "20662-53-7",
    "key_name": "1,3-Dihydro-1-(4-piperidinyl)-2<em>H</em>-benzimidazol-2-one",
    "cn_name": "4-(2-酮酸-1-苯并咪唑)哌啶;",
    "alternate_name": "2<em>H</em>-Benzimidazol-2-one, 1,3-dihydro-1-(4-piperidinyl)-;2-Benzimidazolinone, 1-(4-piperidyl)-;1,3-Dihydro-1-(4-piperidinyl)-2<em>H</em>-benzimidazol-2-one;1-(4-Piperidinyl)-2-benzimidazolinone;1-(4-Piperidyl)-2-benzimidazolinone;1-(4-Piperidyl)-2-oxobenzimidazoline;4-(2-Oxo-1-benzimidazolinyl)piperidine;1-(4-Piperidinyl)-1<em>H</em>-benzimidazol-2(3<em>H</em>)-one;R 30507;4-(2-Oxo-1-benzimidazoly)piperidine;1-(4-Piperidinyl)-1,3-dihydrobenzimidazol-2-one;1-(4-Piperidinyl)-2-benzimidazolone;4-(2-Oxo-1-benzimidazolyl)piperidine;4-(2-Oxo-2,3-dihydrobenzimidazol-1-yl)piperidine;4-(2-Oxo-1,3-dihydro-2<em>H</em>-benzimidazol-1-yl)piperidine;1-(4-Piperidyl)-3-hydrobenzimidazol-2-one;4-(2-<em>keto</em>-1-Benzimidazolinyl)piperidine;1-(4-Piperidinyl)-1,3-dihydro-2<em>H</em>-benzimidazol-2-one;4-(2,3-Dihydro-2-oxobenzimidazol-1-yl)piperidine;4-(2-Oxo-1,3-dihydrobenzimidazol-1-yl)piperidine;1-(Piperidin-4-yl)-1,3-dihydro-benzoimidazol-2-one;1,3-Dihydro-1-(4-piperidinyl)benzimidazol-2-one;1-(Piperidin-4-yl)-1<em>H</em>-benzo[<em>d</em>]imidazol-2(3<em>H</em>)-one;1-(Piperidin-4-yl)-1<em>H</em>-1,3-benzodiazol-2-ol;1-Piperidin-4-yl-1<em>H</em>-benzoimidazol-2-ol;1-(Piperidin-4-yl)-1<em>H</em>-benzo[<em>d</em>]imidazol-2-ol;1-(Piperidin-4-yl)-2,3-dihydro-1<em>H</em>-1,3-benzodiazol-2-one;3-Piperidin-4-yl-1<em>H</em>-benzimidazol-2-one",
    "duplicated_cas_no": "132764-71-7;53434-99-4",
    "SMILES": "O=C1N(C=2C(N1)=CC=CC2)C3CCNCC3",
    "meta_data": {
        "InChI": "InChI=1S/C12H15N3O/c16-12-14-10-3-1-2-4-11(10)15(12)9-5-7-13-8-6-9/h1-4,9,13H,5-8H2,(H,14,16)",
        "InChIKey": null,
        "Canonical SMILES": "O=C1NC=2C=CC=CC2N1C3CCNCC3",
        "Molecular Formula": "C<sub>12</sub>H<sub>15</sub>N<sub>3</sub>O",
        "Molecular Mass": "217.27",
        "Melting Point": "178-180 °C"
    }
}