{
    "cas_no": "501-24-6",
    "key_name": "Hydrogenated cardanol",
    "cn_name": "间十五烷基酚;",
    "alternate_name": "Phenol, 3-pentadecyl-;Phenol, <em>m</em>-pentadecyl-;3-Pentadecylphenol;Cyclogallipharaol;Hydrocardanol;Hydroginkgol;3-<em>n</em>-Pentadecylphenol;Tetrahydroanacardol;<em>m</em>-Pentadecylphenol;Cardolite NC 510;NSC 9781;Hydrogenated cardanol;Cardanol <em>C</em><sub>15:0</sub>;NC 510",
    "duplicated_cas_no": "",
    "SMILES": "C(CCCCCCCCCCCCCC)C1=CC(O)=CC=C1",
    "meta_data": {
        "InChI": "InChI=1S/C21H36O/c1-2-3-4-5-6-7-8-9-10-11-12-13-14-16-20-17-15-18-21(22)19-20/h15,17-19,22H,2-14,16H2,1H3",
        "InChIKey": null,
        "Canonical SMILES": "OC1=CC=CC(=C1)CCCCCCCCCCCCCCC",
        "Molecular Formula": "C<sub>21</sub>H<sub>36</sub>O",
        "Molecular Mass": "304.51",
        "Melting Point": "53.5 °C"
    }
}