{
    "cas_no": "13360-65-1",
    "key_name": "3-Ethyl-2,5-dimethylpyrazine",
    "cn_name": null,
    "alternate_name": "Pyrazine, 3-ethyl-2,5-dimethyl-;3-Ethyl-2,5-dimethylpyrazine;2,5-Dimethyl-3-ethylpyrazine;2-Ethyl-3,6-dimethylpyrazine;3,6-Dimethyl-2-ethylpyrazine",
    "duplicated_cas_no": "",
    "SMILES": "C(C)C=1C(C)=NC=C(C)N1",
    "meta_data": {
        "InChI": "InChI=1S/C8H12N2/c1-4-8-7(3)9-5-6(2)10-8/h5H,4H2,1-3H3",
        "InChIKey": null,
        "Canonical SMILES": "N=1C=C(N=C(C1C)CC)C",
        "Molecular Formula": "C<sub>8</sub>H<sub>12</sub>N<sub>2</sub>",
        "Molecular Mass": "136.19",
        "Boiling Point": "180.5 °C",
        "Density": "0.973 g/cm³ @ Temp: 24 °C"
    }
}