{
    "cas_no": "6317-37-9",
    "key_name": "5-Nitro-2-thiophenecarboxylic acid",
    "cn_name": "5-硝基噻吩-2-甲酸;",
    "alternate_name": "2-Thiophenecarboxylic acid, 5-nitro-;5-Nitro-2-thiophenecarboxylic acid;2-Carboxy-5-nitrothiophene;5-Nitro-2-thienylcarboxylic acid;5-NTCA;NSC 41707",
    "duplicated_cas_no": "",
    "SMILES": "C(O)(=O)C=1SC(N(=O)=O)=CC1",
    "meta_data": {
        "InChI": "InChI=1S/C5H3NO4S/c7-5(8)3-1-2-4(11-3)6(9)10/h1-2H,(H,7,8)",
        "InChIKey": null,
        "Canonical SMILES": "O=C(O)C=1SC(=CC1)N(=O)=O",
        "Molecular Formula": "C<sub>5</sub>H<sub>3</sub>NO<sub>4</sub>S",
        "Molecular Mass": "173.15",
        "Melting Point": "156-157 °C"
    }
}