{
    "cas_no": "605-39-0",
    "key_name": "2,2′-Dimethylbiphenyl",
    "cn_name": "2,2-二甲基联苯;",
    "alternate_name": "1,1′-Biphenyl, 2,2′-dimethyl-;<em>o</em>,<em>o</em>′-Bitolyl;2,2′-Dimethyl-1,1′-biphenyl;2,2′-Dimethylbiphenyl;2,2′-Ditolyl;2,2′-Bitolyl;<em>o</em>,<em>o</em>′-Bitoluene;NSC 90724;1-Methyl-2-(2-methylphenyl)benzene",
    "duplicated_cas_no": "",
    "SMILES": "CC1=C(C=CC=C1)C2=C(C)C=CC=C2",
    "meta_data": {
        "InChI": "InChI=1S/C14H14/c1-11-7-3-5-9-13(11)14-10-6-4-8-12(14)2/h3-10H,1-2H3",
        "InChIKey": null,
        "Canonical SMILES": "C=1C=CC(=C(C1)C=2C=CC=CC2C)C",
        "Molecular Formula": "C<sub>14</sub>H<sub>14</sub>",
        "Molecular Mass": "182.26",
        "Boiling Point": "256 °C",
        "Melting Point": "19.5 °C",
        "Density": "0.9906 g/cm³ @ Temp: 20 °C"
    }
}