{
    "cas_no": "75824-03-2",
    "key_name": "1,2,4-Triazine-6-carboxylic acid, 5-chloro-3-(methylthio)-, ethyl ester",
    "cn_name": null,
    "alternate_name": "1,2,4-Triazine-6-carboxylic acid, 5-chloro-3-(methylthio)-, ethyl ester;Ethyl 5-chloro-3-(methylthio)-1,2,4-triazine-6-carboxylate;5-Chloro-3-(methylthio)-1,2,4-triazine-6-carboxylic acid ethyl ester;Ethyl 5-chloro-3-methylsulfanyl-1,2,4-triazine-6-carboxylate",
    "duplicated_cas_no": "716338-69-1",
    "SMILES": "C(OCC)(=O)C=1C(Cl)=NC(SC)=NN1",
    "meta_data": {
        "InChI": "InChI=1S/C7H8ClN3O2S/c1-3-13-6(12)4-5(8)9-7(14-2)11-10-4/h3H2,1-2H3",
        "InChIKey": null,
        "Canonical SMILES": "O=C(OCC)C1=NN=C(N=C1Cl)SC",
        "Molecular Formula": "C<sub>7</sub>H<sub>8</sub>ClN<sub>3</sub>O<sub>2</sub>S",
        "Molecular Mass": "233.68",
        "Melting Point": "65 °C"
    }
}