{
    "cas_no": "263717-53-9",
    "key_name": "Propyl pyrazole triol",
    "cn_name": "PPT;",
    "alternate_name": "Phenol, 4,4′,4′′-(4-propyl-1<em>H</em>-pyrazole-1,3,5-triyl)tris-;4,4′,4′′-(4-Propyl-1<em>H</em>-pyrazole-1,3,5-triyl)tris[phenol];PPT;Propyl pyrazole triol",
    "duplicated_cas_no": "",
    "SMILES": "C(CC)C1=C(N(N=C1C2=CC=C(O)C=C2)C3=CC=C(O)C=C3)C4=CC=C(O)C=C4",
    "meta_data": {
        "InChI": "InChI=1S/C24H22N2O3/c1-2-3-22-23(16-4-10-19(27)11-5-16)25-26(18-8-14-21(29)15-9-18)24(22)17-6-12-20(28)13-7-17/h4-15,27-29H,2-3H2,1H3",
        "InChIKey": null,
        "Canonical SMILES": "OC=1C=CC(=CC1)C2=NN(C3=CC=C(O)C=C3)C(C=4C=CC(O)=CC4)=C2CCC",
        "Molecular Formula": "C<sub>24</sub>H<sub>22</sub>N<sub>2</sub>O<sub>3</sub>",
        "Molecular Mass": "386.44",
        "Melting Point": "230 °C (decomp)"
    }
}