{
    "cas_no": "950-37-8",
    "key_name": "Methidathion",
    "cn_name": "杀扑磷;S-2,3-二氢-5-甲氧基-2-氧代-1,3,4-硫二氮茂-3-基甲基-O,O-二甲基二硫代磷酸酯;",
    "alternate_name": "Phosphorodithioic acid, <em>S</em>-[(5-methoxy-2-oxo-1,3,4-thiadiazol-3(2<em>H</em>)-yl)methyl] <em>O</em>,<em>O</em>-dimethyl ester;Phosphorodithioic acid, <em>O</em>,<em>O</em>-dimethyl ester, <em>S</em>-ester with 4-(mercaptomethyl)-2-methoxy-Δ<sup>2</sup>-1,3,4-thiadiazolin-5-one;Geigy 13005;GS 13005;<em>O</em>,<em>O</em>-Dimethyl-<em>S</em>-(2-methoxy-Δ<sup>2</sup>-1,3,4-thiadiazolin-5-on-4-ylmethyl)dithiophosphate;<em>O</em>,<em>O</em>-Dimethyl-<em>S</em>-(2-methoxy-1,3,4-thiadiazol-5(4<em>H</em>)-onyl-4-methyl) dithiophosphate;<em>O</em>,<em>O</em>-Dimethylphosphorodithioate <em>S</em>-ester with 4-(mercaptomethyl)-2-methoxy-Δ<sup>2</sup>-1,3,4-thiadiazolin-5-one;Methidathion;Supracide;<em>O</em>,<em>O</em>-Dimethyl <em>S</em>-[2-methoxy-1,3,4-thiadiazol-5(4<em>H</em>)-on-4-ylmethyl] phosphorodithioate;<em>O</em>,<em>O</em>-Dimethyl-<em>S</em>-2-methyloxy-1,3,4-thiodiazol-5-(4<em>H</em>)-onyl-(4)-methyldithiophosphate;Ultracid;<em>S</em>-((2-Methoxy-5-oxo-Δ<sup>2</sup>-1,3,4-thiadiazolin-4-yl)methyl) <em>O</em>,<em>O</em>-dimethylphosphorodithioate;<em>O</em>,<em>O</em>-Dimethyl phosphorodithioate <em>S</em>-ester with 4-(mercaptomethyl)-2-methoxy-1,3,4-thiadizaolin-5-one;<em>O</em>,<em>O</em>-Dimethyl <em>S</em>-(5-methoxy-1,3,4-thiadiazole-2 (3<em>H</em>)-on-3-ylmethyl) dithiophosphate;<em>O</em>,<em>O</em>-Dimethyl-<em>S</em>-(5-methoxy-1,3,4-thiadiazol-2(3<em>H</em>)-on-3-ylmethyl)dithiophosphate;Geigy GS 13005;<em>O</em>,<em>O</em>-Dimethyl-<em>S</em>-[2-methoxy-1,3,4-thiadiazol-5(4<em>H</em>)-onylmethyl] dithiophosphate;Phosphorodithioic acid <em>O</em>,<em>O</em>′-dimethyl ester <em>S</em>-ester with 4-(mercaptomethyl)-2-methoxy-Δ<sup>2</sup>-1,3,4-thiadiazolin-5-one;Dithiophosphoric acid <em>O</em>,<em>O</em>′-dimethyl-<em>S</em>-[(2-methoxy-1,3,4-thiadiazol-5(4<em>H</em>)-on-4-yl)methyl] ester;Dithiophosphoric acid <em>O</em>,<em>O</em>′-dimethyl-<em>S</em>-[(5-methoxy-1,3,4-thiadiazol-2(3<em>H</em>)-on-3-yl)methyl] ester;<em>O</em>,<em>O</em>′-Dimethyl-<em>S</em>-[(2-methoxy-1,3,4-thiadiazole-5(4<em>H</em>)-one-4-yl)methyl]dithiophosphate;Supracid;Ultracid 40;DMTP;DMTP (insecticide);Ultracid EC 40;Methidation;Suprathion;Shapulin",
    "duplicated_cas_no": "11114-31-1;80210-09-9;160219-68-1",
    "SMILES": "P(SCN1C(=O)SC(OC)=N1)(OC)(OC)=S",
    "meta_data": {
        "InChI": "InChI=1S/C6H11N2O4PS3/c1-10-5-7-8(6(9)16-5)4-15-13(14,11-2)12-3/h4H2,1-3H3",
        "InChIKey": null,
        "Canonical SMILES": "O=C1SC(=NN1CSP(=S)(OC)OC)OC",
        "Molecular Formula": "C<sub>6</sub>H<sub>11</sub>N<sub>2</sub>O<sub>4</sub>PS<sub>3</sub>",
        "Molecular Mass": "302.33",
        "Melting Point": "39-40 °C",
        "Density": "1.51 g/cm³ @ Temp: 20 °C"
    }
}