{
    "cas_no": "3468-63-1",
    "key_name": "Fast Orange",
    "cn_name": "颜料橙5;1-[(2,4-二硝基苯基)偶氮]-2-萘酚;",
    "alternate_name": "2-Naphthalenol, 1-[2-(2,4-dinitrophenyl)diazenyl]-;C.I. Pigment Orange 5;2-Naphthalenol, 1-[(2,4-dinitrophenyl)azo]-;2-Naphthol, 1-(2,4-dinitrophenylazo)-;1-[2-(2,4-Dinitrophenyl)diazenyl]-2-naphthalenol;C.I. 12075;Brilliant Tangerine 13030;Calcotone Orange 2R;Carnelio Red 2G;Chromatex Orange R;Dainichi Permanent Red GG;Dinitroaniline Orange ND 204;Dinitroaniline Red;1-(2,4-Dinitrophenylazo)-2-naphthol;Fastona Red 2G;Graphtol Red 2GL;Hansa Orange RN;Helio Fast Orange 3RN;Helio Fast Orange 3RT;Helio Fast Orange RN;Helio Fast Orange RT;Irgalite Fast Red 2GL;Irgalite Red 2G;Irgalite Red 2GW;Irgalite Red PV8;Isol Fast Red 2G;Lake Red 2GL;Light Orange R;Lutetia Fast Orange R;Monolite Fast Orange 2R;Monolite Fast Paper Orange 2R;Monolite Fast Red 2G;Nippon Orange X 881;Oralith Red 2GL;11048 Orange;Orange Pigment X;Permanent Orange DN Toner;Permanent Orange GG;Permanent Orange HD;Permanent Orange Toner RA 5650;Permanent Red GG;Permansa Orange;Permaton Orange XL 45-3015;Segnale Light Orange RN;Segnale Light Orange RNG;Siegle Orange 2S;Signal Orange Y 17;Silopol Orange R;Silosol Orange RN;Siloton Orange RL;Syton Fast Red 2G;Tertropigment Orange LRN;Tertropigment Red P2G;Versal Orange RNL;Pigment Orange 5;D and C Orange No. 17;Orange No. 203;Permanent Orange;Dinitraniline orange;Pigment Fast Orange;Dinitroaniline Orange;Permanent Orange Toner;Japan Orange 203;Japan Orange No. 203;Permaton Orange;Fast Orange;Pigment Orange Fast VCO;Pigment Fast Orange VCO;Dutch Vermilion;EB Orange R 7305;Sico Orange L 3051;Lutetia Orange RN;Seikafast Orange 3044;Hansa Red GG;NSC 15975;Monolite Red 2G;D&amp;C Orange No. 17;Pigment organge 5;Permanent Orange RN;Monolite Orange 200504;P 0587;Permanent Red 24",
    "duplicated_cas_no": "",
    "SMILES": "N(=NC1=C(N(=O)=O)C=C(N(=O)=O)C=C1)C=2C3=C(C=CC2O)C=CC=C3",
    "meta_data": {
        "InChI": "InChI=1S/C16H10N4O5/c21-15-8-5-10-3-1-2-4-12(10)16(15)18-17-13-7-6-11(19(22)23)9-14(13)20(24)25/h1-9,21H",
        "InChIKey": null,
        "Canonical SMILES": "O=N(=O)C1=CC=C(N=NC2=C(O)C=CC=3C=CC=CC32)C(=C1)N(=O)=O",
        "Molecular Formula": "C<sub>16</sub>H<sub>10</sub>N<sub>4</sub>O<sub>5</sub>",
        "Molecular Mass": "338.27",
        "Melting Point": "298-300 °C"
    }
}