{
    "cas_no": "38869-37-3",
    "key_name": "Phenol, 4-(1-piperazinyl)-, hydrobromide (1:2)",
    "cn_name": "1-(4-羟苯基)哌嗪二氰溴化物;",
    "alternate_name": "Phenol, 4-(1-piperazinyl)-, hydrobromide (1:2);Phenol, 4-(1-piperazinyl)-, dihydrobromide;4-(1-Piperazinyl)phenol dihydrobromide;1-(4-Hydroxyphenyl)piperazine dihydrobromide",
    "duplicated_cas_no": "",
    "SMILES": "OC1=CC=C(C=C1)N2CCNCC2.Br",
    "meta_data": {
        "InChI": "InChI=1S/C10H14N2O.2BrH/c13-10-3-1-9(2-4-10)12-7-5-11-6-8-12;;/h1-4,11,13H,5-8H2;2*1H",
        "InChIKey": null,
        "Canonical SMILES": "Br.OC1=CC=C(C=C1)N2CCNCC2",
        "Molecular Formula": "C<sub>10</sub>H<sub>14</sub>N<sub>2</sub>O.2BrH",
        "Molecular Mass": "",
        "Melting Point": "275 °C (decomp)"
    }
}