{
    "cas_no": "73590-85-9",
    "key_name": "Omeprazole sulfide",
    "cn_name": "优菲那唑;5-甲氧基-2-(4-甲氧基-3,5-二甲基-2-吡啶基)甲基硫代-1H-苯并咪唑;",
    "alternate_name": "1<em>H</em>-Benzimidazole, 6-methoxy-2-[[(4-methoxy-3,5-dimethyl-2-pyridinyl)methyl]thio]-;1<em>H</em>-Benzimidazole, 5-methoxy-2-[[(4-methoxy-3,5-dimethyl-2-pyridinyl)methyl]thio]-;6-Methoxy-2-[[(4-methoxy-3,5-dimethyl-2-pyridinyl)methyl]thio]-1<em>H</em>-benzimidazole;Omeprazole sulfide;H 168/22;Ufiprazole;2-[[(3,5-Dimethyl-4-methoxy-2-pyridyl)methyl]thio]-5-methoxybenzimidazole;Pyrmetazole;2-[[(3,5-Dimethyl-4-methoxy-2-pyridyl)methyl]thio]-5-methoxy-1<em>H</em>-benzimidazole;5-Methoxy-2-[[(4-methoxy-3,5-dimethyl-2-pyridinyl)methyl]thio]-1<em>H</em>-benzimidazole;5-Methoxy-2-[[(4-methoxy-3,5-dimethyl-2-pyridyl)methyl]thio]-1<em>H</em>-benzimidazole;2-[(4-Methoxy-3,5-dimethylpyridin-2-ylmethyl)thio]-5-methoxybenzimidazole",
    "duplicated_cas_no": "",
    "SMILES": "S(CC1=C(C)C(OC)=C(C)C=N1)C=2NC=3C(N2)=CC=C(OC)C3",
    "meta_data": {
        "InChI": "InChI=1S/C17H19N3O2S/c1-10-8-18-15(11(2)16(10)22-4)9-23-17-19-13-6-5-12(21-3)7-14(13)20-17/h5-8H,9H2,1-4H3,(H,19,20)",
        "InChIKey": null,
        "Canonical SMILES": "N=1C=C(C(OC)=C(C1CSC2=NC=3C=CC(OC)=CC3N2)C)C",
        "Molecular Formula": "C<sub>17</sub>H<sub>19</sub>N<sub>3</sub>O<sub>2</sub>S",
        "Molecular Mass": "329.42",
        "Melting Point": "120-121.8 °C"
    }
}