{
    "cas_no": "89466-39-7",
    "key_name": "4-Chloro-6-methoxy-2-methylpyrimidine",
    "cn_name": null,
    "alternate_name": "Pyrimidine, 4-chloro-6-methoxy-2-methyl-;4-Chloro-6-methoxy-2-methylpyrimidine",
    "duplicated_cas_no": "",
    "SMILES": "O(C)C=1C=C(Cl)N=C(C)N1",
    "meta_data": {
        "InChI": "InChI=1S/C6H7ClN2O/c1-4-8-5(7)3-6(9-4)10-2/h3H,1-2H3",
        "InChIKey": null,
        "Canonical SMILES": "ClC=1N=C(N=C(OC)C1)C",
        "Molecular Formula": "C<sub>6</sub>H<sub>7</sub>ClN<sub>2</sub>O",
        "Molecular Mass": "158.59",
        "Boiling Point": "77-78 °C @ Press: 8 Torr"
    }
}