{
    "cas_no": "583-59-5",
    "key_name": "2-Methylcyclohexanol",
    "cn_name": "2-甲基环己醇;",
    "alternate_name": "Cyclohexanol, 2-methyl-;2-Methylcyclohexanol;1-Methyl-2-cyclohexanol;2-Methyl-1-cyclohexanol;2-Methylcyclohexyl alcohol;NSC 75845",
    "duplicated_cas_no": "",
    "SMILES": "CC1C(O)CCCC1",
    "meta_data": {
        "InChI": "InChI=1S/C7H14O/c1-6-4-2-3-5-7(6)8/h6-8H,2-5H2,1H3",
        "InChIKey": null,
        "Canonical SMILES": "OC1CCCCC1C",
        "Molecular Formula": "C<sub>7</sub>H<sub>14</sub>O",
        "Molecular Mass": "114.19",
        "Boiling Point": "165-166 °C",
        "Melting Point": "-9.5 °C",
        "Density": "0.93 g/cm³"
    }
}