{
    "cas_no": "93718-83-3",
    "key_name": "2,3-Bis(2-hydroxyethylthio)-1,4-naphthalenedione",
    "cn_name": null,
    "alternate_name": "1,4-Naphthalenedione, 2,3-bis[(2-hydroxyethyl)thio]-;1,4-Naphthoquinone, 2,3-bis[(2-hydroxyethyl)thio]-;2,3-Bis[(2-hydroxyethyl)thio]-1,4-naphthalenedione;NSC 95397;2,3-Bis(2-hydroxyethylthio)-1,4-naphthalenedione;2,3-Bis(2-hydroxyethylsulfanyl)naphthalene-1,4-dione",
    "duplicated_cas_no": "",
    "SMILES": "O=C1C=2C(C(=O)C(SCCO)=C1SCCO)=CC=CC2",
    "meta_data": {
        "InChI": "InChI=1S/C14H14O4S2/c15-5-7-19-13-11(17)9-3-1-2-4-10(9)12(18)14(13)20-8-6-16/h1-4,15-16H,5-8H2",
        "InChIKey": null,
        "Canonical SMILES": "O=C1C(SCCO)=C(SCCO)C(=O)C=2C=CC=CC12",
        "Molecular Formula": "C<sub>14</sub>H<sub>14</sub>O<sub>4</sub>S<sub>2</sub>",
        "Molecular Mass": "310.39",
        "Melting Point": "117-119 °C"
    }
}