{
    "cas_no": "64630-63-3",
    "key_name": "7-Oxabicyclo[4.1.0]hept-3-ylmethyl 2-propenoate",
    "cn_name": null,
    "alternate_name": "2-Propenoic acid, 7-oxabicyclo[4.1.0]hept-3-ylmethyl ester;Acrylic acid, 7-oxabicyclo[4.1.0]hept-3-ylmethyl ester;7-Oxabicyclo[4.1.0]heptane, 2-propenoic acid deriv.;7-Oxabicyclo[4.1.0]hept-3-ylmethyl 2-propenoate;(3,4-Epoxycyclohexyl)methyl acrylate;AETHB;3,4-Epoxyhexahydrobenzyl acrylate;Cyclomer A 100;Epolead GK 200;Cyclomer A 200;Epolead A 200;Cyclomer A 400;A 100;[7-Oxabicyclo[4.1.0]heptan-3-yl]methyl prop-2-enoate;TTA 16;4-Acryloyloxymethyl-1,2-epoxycyclohexane",
    "duplicated_cas_no": "159605-25-1;166441-88-9;936615-48-4",
    "SMILES": "C(OC(C=C)=O)C1CC2C(O2)CC1",
    "meta_data": {
        "InChI": "InChI=1S/C10H14O3/c1-2-10(11)12-6-7-3-4-8-9(5-7)13-8/h2,7-9H,1,3-6H2",
        "InChIKey": null,
        "Canonical SMILES": "O=C(OCC1CCC2OC2C1)C=C",
        "Molecular Formula": "C<sub>10</sub>H<sub>14</sub>O<sub>3</sub>",
        "Molecular Mass": "182.22",
        "Boiling Point": "104 °C @ Press: 2.4 Torr"
    }
}