{
    "cas_no": "17913-18-7",
    "key_name": "1-Chloro-4-methoxybutane",
    "cn_name": "4-氯丁基甲基醚;4-甲氧基氯丁烷;",
    "alternate_name": "Butane, 1-chloro-4-methoxy-;Ether, 4-chlorobutyl methyl;1-Chloro-4-methoxybutane;4-Chlorobutyl methyl ether;4-Methoxy-1-chlorobutane;δ-Chlorobutyl methyl ether;4-Methoxybutyl chloride;Methyl 4-chlorobutyl ether;NSC 83550",
    "duplicated_cas_no": "",
    "SMILES": "C(CCCl)COC",
    "meta_data": {
        "InChI": "InChI=1S/C5H11ClO/c1-7-5-3-2-4-6/h2-5H2,1H3",
        "InChIKey": null,
        "Canonical SMILES": "ClCCCCOC",
        "Molecular Formula": "C<sub>5</sub>H<sub>11</sub>ClO",
        "Molecular Mass": "122.59",
        "Boiling Point": "142.5-142.8 °C",
        "Density": "0.9875 g/cm³ @ Temp: 20 °C"
    }
}