{
    "cas_no": "528-71-2",
    "key_name": "1-Phenazinol",
    "cn_name": "1-羟基吩嗪;",
    "alternate_name": "1-Phenazinol;Hemipyocyanine;α-Hydroxyphenazine;Pyoxanthose;1-Hydroxyphenazine;1-Hydroxy-9,10-diazaanthracene;Hemipyocyanin;NSC 88882",
    "duplicated_cas_no": "",
    "SMILES": "OC=1C2=C(N=C3C(=N2)C=CC=C3)C=CC1",
    "meta_data": {
        "InChI": "InChI=1S/C12H8N2O/c15-11-7-3-6-10-12(11)14-9-5-2-1-4-8(9)13-10/h1-7,15H",
        "InChIKey": null,
        "Canonical SMILES": "OC=1C=CC=C2N=C3C=CC=CC3=NC12",
        "Molecular Formula": "C<sub>12</sub>H<sub>8</sub>N<sub>2</sub>O",
        "Molecular Mass": "196.20",
        "Melting Point": "158 °C"
    }
}