{
    "cas_no": "10399-13-0",
    "key_name": "Methyl α-cyclohexyl-α-hydroxybenzeneacetate",
    "cn_name": "2-环己基-2-羟基苯乙酸甲酯;",
    "alternate_name": "Benzeneacetic acid, α-cyclohexyl-α-hydroxy-, methyl ester;Cyclohexaneglycolic acid, α-phenyl-, methyl ester;Methyl α-cyclohexyl-α-hydroxybenzeneacetate;Methyl α-cyclohexyl-α-phenylglycolate;Methyl cyclohexylphenylglycolate;Methyl α-cyclohexylmandelate;Methyl 2-hydroxy-2-cyclohexyl-2-phenylacetate",
    "duplicated_cas_no": "158850-83-0",
    "SMILES": "C(C(OC)=O)(O)(C1CCCCC1)C2=CC=CC=C2",
    "meta_data": {
        "InChI": "InChI=1S/C15H20O3/c1-18-14(16)15(17,12-8-4-2-5-9-12)13-10-6-3-7-11-13/h2,4-5,8-9,13,17H,3,6-7,10-11H2,1H3",
        "InChIKey": null,
        "Canonical SMILES": "O=C(OC)C(O)(C=1C=CC=CC1)C2CCCCC2",
        "Molecular Formula": "C<sub>15</sub>H<sub>20</sub>O<sub>3</sub>",
        "Molecular Mass": "248.32",
        "Boiling Point": "170-175 °C @ Press: 9 Torr",
        "Melting Point": "40 °C"
    }
}