{
    "cas_no": "77811-44-0",
    "key_name": "4-Bromo-2-methyl-6-nitrobenzenamine",
    "cn_name": "4-溴-2-甲基-6-硝基苯胺;",
    "alternate_name": "Benzenamine, 4-bromo-2-methyl-6-nitro-;4-Bromo-2-methyl-6-nitrobenzenamine;4-Bromo-2-methyl-6-nitroaniline;4-Bromo-2-methyl-6-nitrophenylamine;4-Bromo-6-methyl-2-nitroaniline",
    "duplicated_cas_no": "",
    "SMILES": "N(=O)(=O)C1=C(N)C(C)=CC(Br)=C1",
    "meta_data": {
        "InChI": "InChI=1S/C7H7BrN2O2/c1-4-2-5(8)3-6(7(4)9)10(11)12/h2-3H,9H2,1H3",
        "InChIKey": null,
        "Canonical SMILES": "O=N(=O)C1=CC(Br)=CC(=C1N)C",
        "Molecular Formula": "C<sub>7</sub>H<sub>7</sub>BrN<sub>2</sub>O<sub>2</sub>",
        "Molecular Mass": "231.05",
        "Melting Point": "143-145 °C"
    }
}