{
    "cas_no": "766-15-4",
    "key_name": "4,4-Dimethyl-1,3-dioxane",
    "cn_name": "二甲基二恶烷;",
    "alternate_name": "1,3-Dioxane, 4,4-dimethyl-;<em>m</em>-Dioxane, 4,4-dimethyl-;4,4-Dimethyl-1,3-dioxane;4,4-Dimethyl-<em>m</em>-dioxane",
    "duplicated_cas_no": "",
    "SMILES": "CC1(C)CCOCO1",
    "meta_data": {
        "InChI": "InChI=1S/C6H12O2/c1-6(2)3-4-7-5-8-6/h3-5H2,1-2H3",
        "InChIKey": null,
        "Canonical SMILES": "O1COC(C)(C)CC1",
        "Molecular Formula": "C<sub>6</sub>H<sub>12</sub>O<sub>2</sub>",
        "Molecular Mass": "116.16",
        "Boiling Point": "131.0-132.5 °C",
        "Density": "0.9634 g/cm³ @ Temp: 20 °C"
    }
}