{
    "cas_no": "63-92-3",
    "key_name": "Phenoxybenzamine hydrochloride",
    "cn_name": "盐酸酚苄明;盐酸苯氧苄胺;N-(1-甲基-2-苯氧乙基)-N-(2-氯乙基)苯甲胺盐酸盐;",
    "alternate_name": "Benzenemethanamine, <em>N</em>-(2-chloroethyl)-<em>N</em>-(1-methyl-2-phenoxyethyl)-, hydrochloride (1:1);Benzylamine, <em>N</em>-(2-chloroethyl)-<em>N</em>-(1-methyl-2-phenoxyethyl)-, hydrochloride;Benzenemethanamine, <em>N</em>-(2-chloroethyl)-<em>N</em>-(1-methyl-2-phenoxyethyl)-, hydrochloride;2-(<em>N</em>-Benzyl-2-chloroethylamino)-1-phenoxypropane hydrochloride;<em>N</em>-(2-Chloroethyl)-<em>N</em>-(1-methyl-2-phenoxyethyl)benzylamine, hydrochloride;Dibenzyline hydrochloride;Phenoxybenzamine chloride;Phenoxybenzamine hydrochloride;<em>N</em>-2-Phenoxyisopropyl-<em>N</em>-benzyl-β-chloroethylamine hydrochloride;Dibenzyline chloride;Dibenzylin;Dibenzyran;NSC 37448",
    "duplicated_cas_no": "34238-85-2",
    "SMILES": "C(N(C(COC1=CC=CC=C1)C)CCCl)C2=CC=CC=C2.Cl",
    "meta_data": {
        "InChI": "InChI=1S/C18H22ClNO.ClH/c1-16(15-21-18-10-6-3-7-11-18)20(13-12-19)14-17-8-4-2-5-9-17;/h2-11,16H,12-15H2,1H3;1H",
        "InChIKey": null,
        "Canonical SMILES": "Cl.ClCCN(CC=1C=CC=CC1)C(C)COC=2C=CC=CC2",
        "Molecular Formula": "C<sub>18</sub>H<sub>22</sub>ClNO.ClH",
        "Molecular Mass": "",
        "Melting Point": "137.5-140 °C"
    }
}