{
    "cas_no": "368-43-4",
    "key_name": "Benzenesulfonyl fluoride",
    "cn_name": "苯磺酰氟化物;",
    "alternate_name": "Benzenesulfonyl fluoride;Phenylsulfonyl fluoride;NSC 8543",
    "duplicated_cas_no": "",
    "SMILES": "S(F)(=O)(=O)C1=CC=CC=C1",
    "meta_data": {
        "InChI": "InChI=1S/C6H5FO2S/c7-10(8,9)6-4-2-1-3-5-6/h1-5H",
        "InChIKey": null,
        "Canonical SMILES": "O=S(=O)(F)C=1C=CC=CC1",
        "Molecular Formula": "C<sub>6</sub>H<sub>5</sub>FO<sub>2</sub>S",
        "Molecular Mass": "160.17",
        "Boiling Point": "203.5 °C",
        "Melting Point": "87 °C",
        "Density": "1.3286 g/cm³ @ Temp: 20 °C"
    }
}