{
    "cas_no": "2756-87-8",
    "key_name": "Monomethyl fumarate",
    "cn_name": "富马酸单甲酯;",
    "alternate_name": "2-Butenedioic acid (2<em>E</em>)-, 1-methyl ester;Fumaric acid, monomethyl ester;Fumaric acid, methyl ester;2-Butenedioic acid (<em>E</em>)-, monomethyl ester;2-Butenedioic acid (2<em>E</em>)-, monomethyl ester;Monomethyl fumarate;Methyl hydrogen fumarate;(<em>E</em>)-4-Methoxy-4-oxobut-2-enoic acid;(E)-4-Methoxy-4-oxo-but-2-enoic acid;Bafiertam",
    "duplicated_cas_no": "",
    "SMILES": "C(/C=C/C(O)=O)(OC)=O",
    "meta_data": {
        "InChI": "InChI=1S/C5H6O4/c1-9-5(8)3-2-4(6)7/h2-3H,1H3,(H,6,7)/b3-2+",
        "InChIKey": null,
        "Canonical SMILES": "O=C(O)C=CC(=O)OC",
        "Molecular Formula": "C<sub>5</sub>H<sub>6</sub>O<sub>4</sub>",
        "Molecular Mass": "130.10",
        "Melting Point": "143 °C",
        "Density": "1.37 g/cm³ @ Temp: 20 °C"
    }
}