{
    "cas_no": "33704-61-9",
    "key_name": "(±)-Cashmeran",
    "cn_name": "1,2,3,5,6,7-六氢-1,1,2,3,3-五甲基-4H-茚-4-酮;",
    "alternate_name": "4<em>H</em>-Inden-4-one, 1,2,3,5,6,7-hexahydro-1,1,2,3,3-pentamethyl-;4(5<em>H</em>)-Indanone, 6,7-dihydro-1,1,2,3,3-pentamethyl-;1,2,3,5,6,7-Hexahydro-1,1,2,3,3-pentamethyl-4<em>H</em>-inden-4-one;Cashmeran;(±)-Cashmeran;DPMI;6,7-Dihydro-1,1,2,3,3-pentamethyl-4(5<em>H</em>)-indanone;Musk indanone;1,1,2,3,3-Pentamethyl-1,2,3,5,6,7-hexahydro-4<em>H</em>-inden-4-one;1,1,2,3,3-Pentamethyl-2,3,4,5,6,7-hexahydro-1<em>H</em>-inden-4-one;1,1,2,3,3-Pentamethyl-2,5,6,7-tetrahydroinden-4-one;1,1,2,3,3-Pentamethyl-2,3,6,7-tetrahydro-1<em>H</em>-inden-4(5<em>H</em>)-one",
    "duplicated_cas_no": "155667-06-4;178603-97-9",
    "SMILES": "CC1(C)C2=C(C(C)(C)C1C)CCCC2=O",
    "meta_data": {
        "InChI": "InChI=1S/C14H22O/c1-9-13(2,3)10-7-6-8-11(15)12(10)14(9,4)5/h9H,6-8H2,1-5H3",
        "InChIKey": null,
        "Canonical SMILES": "O=C1C2=C(CCC1)C(C)(C)C(C)C2(C)C",
        "Molecular Formula": "C<sub>14</sub>H<sub>22</sub>O",
        "Molecular Mass": "206.32",
        "Boiling Point": "286.1 °C"
    }
}