{
    "cas_no": "49624-66-0",
    "key_name": "Norcimifugin",
    "cn_name": null,
    "alternate_name": "5<em>H</em>-Furo[3,2-<em>g</em>][1]benzopyran-5-one, 2,3-dihydro-4-hydroxy-7-(hydroxymethyl)-2-(1-hydroxy-1-methylethyl)-, (2<em>S</em>)-;5<em>H</em>-Furo[3,2-<em>g</em>][1]benzopyran-5-one, 2,3-dihydro-4-hydroxy-7-(hydroxymethyl)-2-(1-hydroxy-1-methylethyl)-, (<em>S</em>)-;Angelicain;(2<em>S</em>)-2,3-Dihydro-4-hydroxy-7-(hydroxymethyl)-2-(1-hydroxy-1-methylethyl)-5<em>H</em>-furo[3,2-<em>g</em>][1]benzopyran-5-one;Norcimifugin;NSC 246120",
    "duplicated_cas_no": "11053-47-7;52589-21-6",
    "SMILES": "OC1=C2C(=CC3=C1C(=O)C=C(CO)O3)O[C@H](C(C)(C)O)C2",
    "meta_data": {
        "InChI": "InChI=1S/C15H16O6/c1-15(2,19)12-4-8-10(21-12)5-11-13(14(8)18)9(17)3-7(6-16)20-11/h3,5,12,16,18-19H,4,6H2,1-2H3/t12-/m0/s1",
        "InChIKey": null,
        "Canonical SMILES": "O=C1C=C(OC=2C=C3OC(CC3=C(O)C12)C(O)(C)C)CO",
        "Molecular Formula": "C<sub>15</sub>H<sub>16</sub>O<sub>6</sub>",
        "Molecular Mass": "292.28",
        "Melting Point": "194 °C"
    }
}