{
    "cas_no": "64862-96-0",
    "key_name": "Ametantrone",
    "cn_name": null,
    "alternate_name": "9,10-Anthracenedione, 1,4-bis[[2-[(2-hydroxyethyl)amino]ethyl]amino]-;1,4-Bis[[2-[(2-hydroxyethyl)amino]ethyl]amino]-9,10-anthracenedione;Ametantrone;NSC 196473;1,4-Bis[2-(2-hydroxyethylamino)ethylamino]anthraquinone;NSC 290813",
    "duplicated_cas_no": "",
    "SMILES": "N(CCNCCO)C1=C2C(=C(NCCNCCO)C=C1)C(=O)C=3C(C2=O)=CC=CC3",
    "meta_data": {
        "InChI": "InChI=1S/C22H28N4O4/c27-13-11-23-7-9-25-17-5-6-18(26-10-8-24-12-14-28)20-19(17)21(29)15-3-1-2-4-16(15)22(20)30/h1-6,23-28H,7-14H2",
        "InChIKey": null,
        "Canonical SMILES": "O=C1C=2C=CC=CC2C(=O)C=3C(=CC=C(NCCNCCO)C13)NCCNCCO",
        "Molecular Formula": "C<sub>22</sub>H<sub>28</sub>N<sub>4</sub>O<sub>4</sub>",
        "Molecular Mass": "412.48",
        "Melting Point": "156-158 °C"
    }
}