{
    "cas_no": "32434-44-9",
    "key_name": "3-[[(2<em>S</em>,3a<em>S</em>,7a<em>S</em>)-Octahydro-2-hydroxyfuro[3,2-<em>b</em>]pyridin-2-yl]methyl]-4(3<em>H</em>)-quinazolinone",
    "cn_name": null,
    "alternate_name": "4(3<em>H</em>)-Quinazolinone, 3-[[(2<em>S</em>,3a<em>S</em>,7a<em>S</em>)-octahydro-2-hydroxyfuro[3,2-<em>b</em>]pyridin-2-yl]methyl]-;Isofebrifugine;Furo[3,2-<em>b</em>]pyridine, 4(3<em>H</em>)-quinazolinone deriv.;3-[[(2<em>S</em>,3a<em>S</em>,7a<em>S</em>)-Octahydro-2-hydroxyfuro[3,2-<em>b</em>]pyridin-2-yl]methyl]-4(3<em>H</em>)-quinazolinone;(+)-Isofebrifugine;NSC 290495;α-Dichroine",
    "duplicated_cas_no": "",
    "SMILES": "C([C@]1(O)C[C@]2([C@@](O1)(CCCN2)[H])[H])N3C(=O)C=4C(N=C3)=CC=CC4",
    "meta_data": {
        "InChI": "InChI=1S/C16H19N3O3/c20-15-11-4-1-2-5-12(11)18-10-19(15)9-16(21)8-13-14(22-16)6-3-7-17-13/h1-2,4-5,10,13-14,17,21H,3,6-9H2/t13-,14-,16-/m0/s1",
        "InChIKey": null,
        "Canonical SMILES": "O=C1C=2C=CC=CC2N=CN1CC3(O)OC4CCCNC4C3",
        "Molecular Formula": "C<sub>16</sub>H<sub>19</sub>N<sub>3</sub>O<sub>3</sub>",
        "Molecular Mass": "301.34",
        "Melting Point": "129-130 °C"
    }
}