{
    "cas_no": "52159-67-8",
    "key_name": "Methyl 3-chloro-2-hydroxybenzoate",
    "cn_name": null,
    "alternate_name": "Benzoic acid, 3-chloro-2-hydroxy-, methyl ester;Methyl 3-chloro-2-hydroxybenzoate;Methyl 3-chlorosalicylate;Methyl <em>m</em>-chlorosalicylate;3-Chloro-2-hydroxybenzoic acid methyl ester",
    "duplicated_cas_no": "",
    "SMILES": "C(OC)(=O)C1=C(O)C(Cl)=CC=C1",
    "meta_data": {
        "InChI": "InChI=1S/C8H7ClO3/c1-12-8(11)5-3-2-4-6(9)7(5)10/h2-4,10H,1H3",
        "InChIKey": null,
        "Canonical SMILES": "O=C(OC)C=1C=CC=C(Cl)C1O",
        "Molecular Formula": "C<sub>8</sub>H<sub>7</sub>ClO<sub>3</sub>",
        "Molecular Mass": "186.59",
        "Melting Point": "29-32 °C"
    }
}