{
    "cas_no": "931-19-1",
    "key_name": "Pyridine, 2-methyl-, 1-oxide",
    "cn_name": "2-甲基吡啶氧化物;",
    "alternate_name": "Pyridine, 2-methyl-, 1-oxide;2-Picoline, 1-oxide;2-Methylpyridine 1-oxide;α-Picoline <em>N</em>-oxide;2-Methylpyridine <em>N</em>-oxide;α-Picoline 1-oxide;NSC 18253;2-Methyl-1-oxidopyridin-1-ium;2-Methylpyridin-1-ium-1-olate",
    "duplicated_cas_no": "64687-66-7;91114-19-1",
    "SMILES": "CC=1N(=O)=CC=CC1",
    "meta_data": {
        "InChI": "InChI=1S/C6H7NO/c1-6-4-2-3-5-7(6)8/h2-5H,1H3",
        "InChIKey": null,
        "Canonical SMILES": "O=N=1C=CC=CC1C",
        "Molecular Formula": "C<sub>6</sub>H<sub>7</sub>NO",
        "Molecular Mass": "109.13",
        "Boiling Point": "123 °C @ Press: 9 Torr",
        "Melting Point": "48-50 °C"
    }
}