{
    "cas_no": "103-41-3",
    "key_name": "Benzyl cinnamate",
    "cn_name": "肉桂酸苄酯;3-苯基丙烯酸苄酯;beta-苯基丙烯酸苄酯;",
    "alternate_name": "2-Propenoic acid, 3-phenyl-, phenylmethyl ester;Cinnamic acid, benzyl ester;Benzyl cinnamate;Benzyl γ-phenylacrylate;Cinnamein;Benzyl 3-phenylpropenoate;3-Phenyl-2-propenoic acid benzyl ester;NSC 11780;NSC 44403;NCCF 1500;NCCF 300;NCCF 100;NCCF 4000",
    "duplicated_cas_no": "8014-16-2",
    "SMILES": "C(=CC(OCC1=CC=CC=C1)=O)C2=CC=CC=C2",
    "meta_data": {
        "InChI": "InChI=1S/C16H14O2/c17-16(12-11-14-7-3-1-4-8-14)18-13-15-9-5-2-6-10-15/h1-12H,13H2",
        "InChIKey": null,
        "Canonical SMILES": "O=C(OCC=1C=CC=CC1)C=CC=2C=CC=CC2",
        "Molecular Formula": "C<sub>16</sub>H<sub>14</sub>O<sub>2</sub>",
        "Molecular Mass": "238.28",
        "Boiling Point": "228-230 °C @ Press: 22 Torr",
        "Melting Point": "39 °C",
        "Density": "1.109 g/cm³ @ Temp: 15 °C"
    }
}