{
    "cas_no": "22735-07-5",
    "key_name": "<span class=\"text-smallcaps\">L</span>-Cystine, 1,1′-diethyl ester, hydrochloride (1:2)",
    "cn_name": null,
    "alternate_name": "<span class=\"text-smallcaps\">L</span>-Cystine, 1,1′-diethyl ester, hydrochloride (1:2);Cystine, diethyl ester, dihydrochloride, <span class=\"text-smallcaps\">L</span>-;<span class=\"text-smallcaps\">L</span>-Cystine, diethyl ester, dihydrochloride;NSC 519836",
    "duplicated_cas_no": "",
    "SMILES": "[C@@H](C(OCC)=O)(CSSC[C@@H](C(OCC)=O)N)N.Cl",
    "meta_data": {
        "InChI": "InChI=1S/C10H20N2O4S2.2ClH/c1-3-15-9(13)7(11)5-17-18-6-8(12)10(14)16-4-2;;/h7-8H,3-6,11-12H2,1-2H3;2*1H/t7-,8-;;/m0../s1",
        "InChIKey": null,
        "Canonical SMILES": "Cl.O=C(OCC)C(N)CSSCC(N)C(=O)OCC",
        "Molecular Formula": "C<sub>10</sub>H<sub>20</sub>N<sub>2</sub>O<sub>4</sub>S<sub>2</sub>.2ClH",
        "Molecular Mass": "",
        "Melting Point": "186-189 °C"
    }
}