{
    "cas_no": "5329-14-6",
    "key_name": "Sulfamic acid",
    "cn_name": "氨基磺酸;",
    "alternate_name": "Sulfamic acid;Amidosulfuric acid;Aminosulfonic acid;Sulfamidic acid;Sulphamic acid;Amidosulfonic acid;Aminosulfuric acid;Jumbo;Aminesulfonic acid;Sulfaminic acid;Scale Cleen;Alprojet W;NSC 1871;Steradent Active Plus",
    "duplicated_cas_no": "1266250-83-2",
    "SMILES": "S(N)(=O)(=O)O",
    "meta_data": {
        "InChI": "InChI=1S/H3NO3S/c1-5(2,3)4/h(H3,1,2,3,4)",
        "InChIKey": null,
        "Canonical SMILES": "O=S(=O)(O)N",
        "Molecular Formula": "H<sub>3</sub>NO<sub>3</sub>S",
        "Molecular Mass": "97.09",
        "Melting Point": "205 °C",
        "Density": "2.15 g/cm³"
    }
}