{
    "cas_no": "629-03-8",
    "key_name": "1,6-Dibromohexane",
    "cn_name": "1,6-二溴己烷;",
    "alternate_name": "Hexane, 1,6-dibromo-;1,6-Dibromohexane;1,6-Dibromo-<em>n</em>-hexane;Hexamethylene dibromide;α,ω-Dibromohexane;NSC 7306;Hexane, 1,6-dibromo-, hydrate (1:1)",
    "duplicated_cas_no": "625084-40-4;2387715-75-3",
    "SMILES": "C(CCCBr)CCBr",
    "meta_data": {
        "InChI": "InChI=1S/C6H12Br2/c7-5-3-1-2-4-6-8/h1-6H2",
        "InChIKey": null,
        "Canonical SMILES": "BrCCCCCCBr",
        "Molecular Formula": "C<sub>6</sub>H<sub>12</sub>Br<sub>2</sub>",
        "Molecular Mass": "243.97",
        "Boiling Point": "245.5 °C",
        "Melting Point": "-2.3 °C",
        "Density": "1.6041 g/cm³ @ Temp: 20 °C"
    }
}