{
    "cas_no": "14611-51-9",
    "key_name": "Selegiline",
    "cn_name": null,
    "alternate_name": "Benzeneethanamine, <em>N</em>,α-dimethyl-<em>N</em>-2-propyn-1-yl-, (α<em>R</em>)-;Phenethylamine, <em>N</em>,α-dimethyl-<em>N</em>-2-propynyl-, <span class=\"text-smallcaps\">L</span>-(-)-;Benzeneethanamine, <em>N</em>,α-dimethyl-<em>N</em>-2-propynyl-, (<em>R</em>)-;Benzeneethanamine, <em>N</em>,α-dimethyl-<em>N</em>-2-propynyl-, (α<em>R</em>)-;(α<em>R</em>)-<em>N</em>,α-Dimethyl-<em>N</em>-2-propyn-1-ylbenzeneethanamine;(-)-Deprenyl;(-)-Deprenil;Selegiline;(<em>R</em>)-(-)-Deprenyl;<em>l</em>-Deprenyl;(-)-Selegiline;Anipryl;Selgene;(<em>R</em>)-Selegiline;Zelapar;Emsam TTS;Selegina;Emsam;(<em>R</em>)-Deprenyl;MeSH ID: D012642",
    "duplicated_cas_no": "172964-89-5",
    "SMILES": "C([C@H](N(CC#C)C)C)C1=CC=CC=C1",
    "meta_data": {
        "InChI": "InChI=1S/C13H17N/c1-4-10-14(3)12(2)11-13-8-6-5-7-9-13/h1,5-9,12H,10-11H2,2-3H3/t12-/m1/s1",
        "InChIKey": null,
        "Canonical SMILES": "C#CCN(C)C(C)CC=1C=CC=CC1",
        "Molecular Formula": "C<sub>13</sub>H<sub>17</sub>N",
        "Molecular Mass": "187.28",
        "Boiling Point": "92-93 °C @ Press: 0.8 Torr",
        "Melting Point": "137.5-139 °C"
    }
}