{
    "cas_no": "112-63-0",
    "key_name": "Methyl linoleate",
    "cn_name": "亚油酸甲酯;(Z,Z)-9,12-十八烷二烯酸甲酯;9,12-十八烷二烯酸甲酯;顺-9,12-十八碳二烯酸甲酯;",
    "alternate_name": "9,12-Octadecadienoic acid (9<em>Z</em>,12<em>Z</em>)-, methyl ester;Linoleic acid, methyl ester;9,12-Octadecadienoic acid (<em>Z</em>,<em>Z</em>)-, methyl ester;Methyl linoleate;Methyl <em>cis</em>,<em>cis</em>-9,12-octadecadienoate;Methyl <em>cis</em>-9,<em>cis</em>-12 linoleate;Methyl 9-<em>cis</em>,12-<em>cis</em>-octadecadienoate;Methyl (<em>Z</em>,<em>Z</em>)-9,12-octadecadienoate;Methyl <em>cis</em>-9,<em>cis</em>-12-octadecadienoate;Methyl (9<em>Z</em>,12<em>Z</em>)-octadecadienoate;(9<em>Z</em>,12<em>Z</em>)-Octadecadienoic acid methyl ester;Methyl octadec-9,12-dienoate;(9<em>Z</em>,12<em>Z</em>)-9,12-Octadecadienoic acid methyl ester;Radia 7062;Methyl (9Z,12Z)-octadeca-9,12-dienoate;(Z,Z)-9,12-Octadecadienoic acid methyl ester",
    "duplicated_cas_no": "1198018-53-9",
    "SMILES": "C(CC/C=C\\C/C=C\\CCCCC)CCCCC(OC)=O",
    "meta_data": {
        "InChI": "InChI=1S/C19H34O2/c1-3-4-5-6-7-8-9-10-11-12-13-14-15-16-17-18-19(20)21-2/h7-8,10-11H,3-6,9,12-18H2,1-2H3/b8-7-,11-10-",
        "InChIKey": null,
        "Canonical SMILES": "O=C(OC)CCCCCCCC=CCC=CCCCCC",
        "Molecular Formula": "C<sub>19</sub>H<sub>34</sub>O<sub>2</sub>",
        "Molecular Mass": "294.47",
        "Boiling Point": "185-186 °C @ Press: 5-6 Torr",
        "Melting Point": "-35 °C",
        "Density": "0.9043 g/cm³ @ Temp: 15 °C"
    }
}