{
    "cas_no": "405-39-0",
    "key_name": "<em>N</em><sup>2</sup>,<em>N</em><sup>6</sup>-Bis[(phenylmethoxy)carbonyl]-<span class=\"text-smallcaps\">L</span>-lysine",
    "cn_name": "N,N\"-双苄氧羰基-L-赖氨酸;",
    "alternate_name": "<span class=\"text-smallcaps\">L</span>-Lysine, <em>N</em><sup>2</sup>,<em>N</em><sup>6</sup>-bis[(phenylmethoxy)carbonyl]-;Lysine, <em>N</em><sup>2</sup>,<em>N</em><sup>6</sup>-dicarboxy-, <em>N</em><sup>2</sup>,<em>N</em><sup>6</sup>-dibenzyl ester, <span class=\"text-smallcaps\">L</span>-;<em>N</em><sup>2</sup>,<em>N</em><sup>6</sup>-Bis[(phenylmethoxy)carbonyl]-<span class=\"text-smallcaps\">L</span>-lysine;<em>N</em>,<em>N</em>′-Dicarbobenzoxy-<span class=\"text-smallcaps\">L</span>-lysine;<em>N</em><sup>2</sup>,<em>N</em><sup>6</sup>-Dicarbobenzoxy-<span class=\"text-smallcaps\">L</span>-lysine;α,ε-Dicarbobenzoxy-<span class=\"text-smallcaps\">L</span>-lysine;<em>N</em><sup>α</sup>,<em>N</em><sup>ε</sup>-Bis(carbobenzyloxy)-<span class=\"text-smallcaps\">L</span>-lysine;<em>N</em>,<em>N</em>′-Bis(benzyloxycarbonyl)lysine;<em>N</em><sup>2</sup>,<em>N</em><sup>6</sup>-Bis(benzyloxycarbonyl)-<span class=\"text-smallcaps\">L</span>-lysine;<em>N</em><sup>α</sup>,<em>N</em><sup>ε</sup>-Bis(benzyloxycarbonyl)lysine;<em>N</em>,<em>N</em>′-Bis(benzyloxycarbonyl)-<span class=\"text-smallcaps\">L</span>-lysine;NSC 88474;124: PN: WO2004099237 PAGE: 36 claimed protein;<em>N</em><sup>α</sup>,<em>N</em><sup>ω</sup>-Bis(benzyloxycarbonyl)-<span class=\"text-smallcaps\">L</span>-lysine;<em>N</em>,<em>N</em>′-Di-Z-<span class=\"text-smallcaps\">L</span>-lysine;Z-Lyz(Z)-OH",
    "duplicated_cas_no": "",
    "SMILES": "C(OC(N[C@@H](CCCCNC(OCC1=CC=CC=C1)=O)C(O)=O)=O)C2=CC=CC=C2",
    "meta_data": {
        "InChI": "InChI=1S/C22H26N2O6/c25-20(26)19(24-22(28)30-16-18-11-5-2-6-12-18)13-7-8-14-23-21(27)29-15-17-9-3-1-4-10-17/h1-6,9-12,19H,7-8,13-16H2,(H,23,27)(H,24,28)(H,25,26)/t19-/m0/s1",
        "InChIKey": null,
        "Canonical SMILES": "O=C(OCC=1C=CC=CC1)NCCCCC(NC(=O)OCC=2C=CC=CC2)C(=O)O",
        "Molecular Formula": "C<sub>22</sub>H<sub>26</sub>N<sub>2</sub>O<sub>6</sub>",
        "Molecular Mass": "414.45",
        "Melting Point": "55-69 °C"
    }
}