{
    "cas_no": "108-73-6",
    "key_name": "Phloroglucinol",
    "cn_name": "间苯三酚;",
    "alternate_name": "1,3,5-Benzenetriol;Phloroglucinol;Benzene-<em>s</em>-triol;Phloroglucin;<em>sym</em>-Trihydroxybenzene;1,3,5-Trihydroxybenzene;Phloroglucine;Dilospan S;Spasfon-Lyoc;NSC 1572;3,5-Dihydroxyphenol;2,4,6-Benzenetriol;MeSH ID: D010696",
    "duplicated_cas_no": "",
    "SMILES": "OC1=CC(O)=CC(O)=C1",
    "meta_data": {
        "InChI": "InChI=1S/C6H6O3/c7-4-1-5(8)3-6(9)2-4/h1-3,7-9H",
        "InChIKey": null,
        "Canonical SMILES": "OC=1C=C(O)C=C(O)C1",
        "Molecular Formula": "C<sub>6</sub>H<sub>6</sub>O<sub>3</sub>",
        "Molecular Mass": "126.11",
        "Melting Point": "218.5 °C"
    }
}