{
    "cas_no": "53484-17-6",
    "key_name": "1-Methyl-1<em>H</em>-benzimidazole-5-carboxylic acid",
    "cn_name": null,
    "alternate_name": "1<em>H</em>-Benzimidazole-5-carboxylic acid, 1-methyl-;5-Benzimidazolecarboxylic acid, 1-methyl-;1-Methyl-1<em>H</em>-benzimidazole-5-carboxylic acid;1-Methyl-1<em>H</em>-benzoimidazole-5-carboxylic acid;1-Methylbenzimidazole-5-carboxylic acid;1-Methyl-1<em>H</em>-1,3-benzodiazole-5-carboxylic acid",
    "duplicated_cas_no": "",
    "SMILES": "CN1C=2C(=CC(C(O)=O)=CC2)N=C1",
    "meta_data": {
        "InChI": "InChI=1S/C9H8N2O2/c1-11-5-10-7-4-6(9(12)13)2-3-8(7)11/h2-5H,1H3,(H,12,13)",
        "InChIKey": null,
        "Canonical SMILES": "O=C(O)C=1C=CC2=C(N=CN2C)C1",
        "Molecular Formula": "C<sub>9</sub>H<sub>8</sub>N<sub>2</sub>O<sub>2</sub>",
        "Molecular Mass": "176.17",
        "Melting Point": "308-310 °C"
    }
}