{
    "cas_no": "7298-65-9",
    "key_name": "Butanoic acid, 1,1′-(3-oxospiro[isobenzofuran-1(3<em>H</em>),9′-[9<em>H</em>]xanthene]-3′,6′-diyl) ester",
    "cn_name": null,
    "alternate_name": "Butanoic acid, 1,1′-(3-oxospiro[isobenzofuran-1(3<em>H</em>),9′-[9<em>H</em>]xanthene]-3′,6′-diyl) ester;Butanoic acid, 3-oxospiro[isobenzofuran-1(3<em>H</em>),9′-[9<em>H</em>]xanthene]-3′,6′-diyl ester;Fluorescein, dibutyrate;Butyric acid, diester with fluorescein;Spiro[isobenzofuran-1(3<em>H</em>),9′-[9<em>H</em>]xanthene], butanoic acid deriv.;NSC 83608",
    "duplicated_cas_no": "",
    "SMILES": "O=C1OC2(C=3C(OC=4C2=CC=C(OC(CCC)=O)C4)=CC(OC(CCC)=O)=CC3)C=5C1=CC=CC5",
    "meta_data": {
        "InChI": "InChI=1S/C28H24O7/c1-3-7-25(29)32-17-11-13-21-23(15-17)34-24-16-18(33-26(30)8-4-2)12-14-22(24)28(21)20-10-6-5-9-19(20)27(31)35-28/h5-6,9-16H,3-4,7-8H2,1-2H3",
        "InChIKey": null,
        "Canonical SMILES": "O=C1OC2(C3=CC=C(OC(=O)CCC)C=C3OC4=CC(OC(=O)CCC)=CC=C42)C=5C=CC=CC15",
        "Molecular Formula": "C<sub>28</sub>H<sub>24</sub>O<sub>7</sub>",
        "Molecular Mass": "472.49",
        "Melting Point": "123 °C"
    }
}