{
    "cas_no": "548-93-6",
    "key_name": "3-Hydroxyanthranilic acid",
    "cn_name": "3-羟基-2-氨基苯甲酸;",
    "alternate_name": "Benzoic acid, 2-amino-3-hydroxy-;Anthranilic acid, 3-hydroxy-;2-Amino-3-hydroxybenzoic acid;3-Hydroxyanthranilic acid;NSC 522891;MeSH ID: D015095",
    "duplicated_cas_no": "",
    "SMILES": "C(O)(=O)C1=C(N)C(O)=CC=C1",
    "meta_data": {
        "InChI": "InChI=1S/C7H7NO3/c8-6-4(7(10)11)2-1-3-5(6)9/h1-3,9H,8H2,(H,10,11)",
        "InChIKey": null,
        "Canonical SMILES": "O=C(O)C=1C=CC=C(O)C1N",
        "Molecular Formula": "C<sub>7</sub>H<sub>7</sub>NO<sub>3</sub>",
        "Molecular Mass": "153.14",
        "Melting Point": "164 °C"
    }
}