{
    "cas_no": "1824-81-3",
    "key_name": "2-Amino-6-methylpyridine",
    "cn_name": "2-氨基–6-甲基吡啶;",
    "alternate_name": "2-Pyridinamine, 6-methyl-;2-Picoline, 6-amino-;6-Methyl-2-pyridinamine;2-Amino-6-picoline;6-Amino-2-picoline;2-Amino-6-methylpyridine;6-Amino-2-methylpyridine;6-Methyl-2-pyridylamine;6-Methyl-2-aminopyridine;6-Methylpyridin-2-ylamine;NSC 1488;NSC 176163;NSC 6971;6-Methylpyridin-2-amine",
    "duplicated_cas_no": "",
    "SMILES": "CC=1N=C(N)C=CC1",
    "meta_data": {
        "InChI": "InChI=1S/C6H8N2/c1-5-3-2-4-6(7)8-5/h2-4H,1H3,(H2,7,8)",
        "InChIKey": null,
        "Canonical SMILES": "N=1C(N)=CC=CC1C",
        "Molecular Formula": "C<sub>6</sub>H<sub>8</sub>N<sub>2</sub>",
        "Molecular Mass": "108.14",
        "Boiling Point": "208.5 °C",
        "Melting Point": "41 °C"
    }
}