{
    "cas_no": "7536-58-5",
    "key_name": "<em>N</em>-<em>tert</em>-Butoxycarbonyl-<span class=\"text-smallcaps\">L</span>-aspartic acid β-benzyl ester",
    "cn_name": "Boc-L-天冬氨酸4-苄酯;N-叔丁氧羰基-L-天冬氨酸4-苄酯;",
    "alternate_name": "<span class=\"text-smallcaps\">L</span>-Aspartic acid, <em>N</em>-[(1,1-dimethylethoxy)carbonyl]-, 4-(phenylmethyl) ester;Aspartic acid, <em>N</em>-carboxy-, 4-benzyl <em>N</em>-<em>tert</em>-butyl ester, <span class=\"text-smallcaps\">L</span>-;<em>N</em>-(<em>tert</em>-Butyloxycarbonyl)-β-benzyl-<span class=\"text-smallcaps\">L</span>-aspartic acid;<em>N</em>-(<em>tert</em>-Butyloxycarbonyl)-<span class=\"text-smallcaps\">L</span>-aspartic acid β-benzyl ester;<em>N</em>-<em>tert</em>-Butoxycarbonyl-<span class=\"text-smallcaps\">L</span>-aspartic acid 4-benzyl ester;<em>N</em>-<em>tert</em>-Butoxycarbonyl-<span class=\"text-smallcaps\">L</span>-aspartic acid β-benzyl ester;<em>N</em>-(<em>tert</em>-Butoxycarbonyl)aspartic acid β-benzyl ester;β-Benzyl <em>N</em>-<em>tert</em>-butoxycarbonylaspartate;(<em>S</em>)-2-<em>tert</em>-Butoxycarbonylaminosuccinic acid 4-benzyl ester;<em>N</em>-[(1,1-Dimethylethoxy)carbonyl]-<span class=\"text-smallcaps\">L</span>-aspartic acid 4-(phenylmethyl) ester;(2S)-4-(Benzyloxy)-2-[(<em>tert</em>-butoxycarbonyl)amino]-4-oxobutanoic acid;<em>N</em>-<em>tert</em>.-Butoxycarbonyl-<span class=\"text-smallcaps\">L</span>-aspartic acid 4-phenylmethyl ester;(<em>S</em>)-4-(Benzyloxy)-2-[(<em>tert</em>-butoxycarbonyl)amino]-4-oxobutanoic acid;Boc-<span class=\"text-smallcaps\">L</span>-Asp(OBn)-OH;(2S)-2-[(2-Methylpropan-2-yl)oxycarbonylamino]-4-oxo-4-phenylmethoxybutanoic acid",
    "duplicated_cas_no": "98482-77-0;115815-47-9;117515-23-8;135962-85-5;144334-23-6;155180-45-3;178327-05-4;1092971-83-9",
    "SMILES": "C(OC(C[C@H](NC(OC(C)(C)C)=O)C(O)=O)=O)C1=CC=CC=C1",
    "meta_data": {
        "InChI": "InChI=1S/C16H21NO6/c1-16(2,3)23-15(21)17-12(14(19)20)9-13(18)22-10-11-7-5-4-6-8-11/h4-8,12H,9-10H2,1-3H3,(H,17,21)(H,19,20)/t12-/m0/s1",
        "InChIKey": null,
        "Canonical SMILES": "O=C(OC(C)(C)C)NC(C(=O)O)CC(=O)OCC=1C=CC=CC1",
        "Molecular Formula": "C<sub>16</sub>H<sub>21</sub>NO<sub>6</sub>",
        "Molecular Mass": "323.34",
        "Melting Point": "98-101 °C"
    }
}