{
    "cas_no": "84449-90-1",
    "key_name": "Raloxifene",
    "cn_name": null,
    "alternate_name": "Methanone, [6-hydroxy-2-(4-hydroxyphenyl)benzo[<em>b</em>]thien-3-yl][4-[2-(1-piperidinyl)ethoxy]phenyl]-;[6-Hydroxy-2-(4-hydroxyphenyl)benzo[<em>b</em>]thien-3-yl][4-[2-(1-piperidinyl)ethoxy]phenyl]methanone;LY 139481;Keoxifene;Raloxifene;[2-(4-Hydroxyphenyl)-6-hydroxybenzo[<em>b</em>]thien-3-yl][4-(2-(1-piperidinyl)ethoxy)phenyl]methanone;[6-Hydroxy-2-(4-hydroxyphenyl)-1-benzothiophen-3-yl]-[4-(2-piperidin-1-ylethoxy)phenyl]methanone;2-(4-Hydroxyphenyl)-3-[4-[2-(piperidin-1-yl)ethoxy]benzoyl]-1-benzothiophen-6-ol;NSC 747974;MeSH ID: D020849",
    "duplicated_cas_no": "",
    "SMILES": "C(=O)(C1=C(SC=2C1=CC=C(O)C2)C3=CC=C(O)C=C3)C4=CC=C(OCCN5CCCCC5)C=C4",
    "meta_data": {
        "InChI": "InChI=1S/C28H27NO4S/c30-21-8-4-20(5-9-21)28-26(24-13-10-22(31)18-25(24)34-28)27(32)19-6-11-23(12-7-19)33-17-16-29-14-2-1-3-15-29/h4-13,18,30-31H,1-3,14-17H2",
        "InChIKey": null,
        "Canonical SMILES": "O=C(C1=CC=C(OCCN2CCCCC2)C=C1)C3=C(SC4=CC(O)=CC=C43)C=5C=CC(O)=CC5",
        "Molecular Formula": "C<sub>28</sub>H<sub>27</sub>NO<sub>4</sub>S",
        "Molecular Mass": "473.58",
        "Melting Point": "143-147 °C"
    }
}