{
    "cas_no": "22346-75-4",
    "key_name": "4-Pyridinemethanol, 1-oxide",
    "cn_name": "4-吡啶甲醇N-氧化物;",
    "alternate_name": "4-Pyridinemethanol, 1-oxide;4-Pyridylcarbinol <em>N</em>-oxide;4-(Hydroxymethyl)pyridine <em>N</em>-oxide;4-Pyridinemethanol <em>N</em>-oxide;(1-Oxopyridin-4-yl)methanol;4-(Hydroxymethyl)pyridine 1-oxide",
    "duplicated_cas_no": "131331-09-4",
    "SMILES": "C(O)C=1C=CN(=O)=CC1",
    "meta_data": {
        "InChI": "InChI=1S/C6H7NO2/c8-5-6-1-3-7(9)4-2-6/h1-4,8H,5H2",
        "InChIKey": null,
        "Canonical SMILES": "O=N1=CC=C(C=C1)CO",
        "Molecular Formula": "C<sub>6</sub>H<sub>7</sub>NO<sub>2</sub>",
        "Molecular Mass": "125.13",
        "Melting Point": "125 °C"
    }
}