{
    "cas_no": "10425-11-3",
    "key_name": "3,4-Dihydroxybenzophenone",
    "cn_name": "3,4-二羟基二苯甲酮;",
    "alternate_name": "Methanone, (3,4-dihydroxyphenyl)phenyl-;Benzophenone, 3,4-dihydroxy-;(3,4-Dihydroxyphenyl)phenylmethanone;3,4-Dihydroxybenzophenone",
    "duplicated_cas_no": "",
    "SMILES": "C(=O)(C1=CC(O)=C(O)C=C1)C2=CC=CC=C2",
    "meta_data": {
        "InChI": "InChI=1S/C13H10O3/c14-11-7-6-10(8-12(11)15)13(16)9-4-2-1-3-5-9/h1-8,14-15H",
        "InChIKey": null,
        "Canonical SMILES": "O=C(C=1C=CC=CC1)C2=CC=C(O)C(O)=C2",
        "Molecular Formula": "C<sub>13</sub>H<sub>10</sub>O<sub>3</sub>",
        "Molecular Mass": "214.22",
        "Melting Point": "134 °C"
    }
}