{
    "cas_no": "592-31-4",
    "key_name": "Butylurea",
    "cn_name": "N-丁基脲;",
    "alternate_name": "Urea, <em>N</em>-butyl-;Urea, butyl-;<em>N</em>-Butylurea;Butylurea;1-Butylurea;NSC 2597",
    "duplicated_cas_no": "",
    "SMILES": "N(CCCC)C(N)=O",
    "meta_data": {
        "InChI": "InChI=1S/C5H12N2O/c1-2-3-4-7-5(6)8/h2-4H2,1H3,(H3,6,7,8)",
        "InChIKey": null,
        "Canonical SMILES": "O=C(N)NCCCC",
        "Molecular Formula": "C<sub>5</sub>H<sub>12</sub>N<sub>2</sub>O",
        "Molecular Mass": "116.16",
        "Melting Point": "96 °C",
        "Density": "1.1210 g/cm³"
    }
}