{
    "cas_no": "42978-66-5",
    "key_name": "Tripropylene glycol diacrylate",
    "cn_name": "二缩三丙二醇二丙烯酸酯;",
    "alternate_name": "2-Propenoic acid, 1,1′-[(1-methyl-1,2-ethanediyl)bis[oxy(methyl-2,1-ethanediyl)]] ester;2-Propenoic acid, (1-methyl-1,2-ethanediyl)bis[oxy(methyl-2,1-ethanediyl)] ester;Tripropylene glycol diacrylate;Photomer 4061;Chemlink 51;SR 306;Aronix M 220;Setacure AM 553;Kayarad TPGDA;Sartomer 306;NK Ester APG 200;MAX 2101;TPGDA;Viscoat 310HP;310HP;M 220;Laromer TPGDA;Actilane 424;SR 3069;TRPGDA;Ebecryl TRPGDA-DEO;Ultraglide UV 701;Everglide UV 636;APG 200;Viscoat 310HG;KS-TPGDA;Genomer 1234;SR 306HP;Ph 4061F;Ebecryl TPGDA;Sartomer SR 306;Viscoat 310;Miramer M 220;SR 306H;Etermer EM 223;EM 223;AgiSyn 2815;EB 1110;V 310HP;SR 306F;SM 623;Tri(propene oxide) dipropenoate;EvergGlide UV 636;Sartomer 306HP;SR 306NS;LM 259;Doublemer TPGDA;Cognis 4061;(1-Methyl-1,2-ethanediyl)bis[oxy(methyl-2,1-ethanediyl)] diacrylate;GM 62A00;EM 223TF;LM 259H;Viscoat 30HP;EM 233 (diacrylate);EM 233",
    "duplicated_cas_no": "83045-02-7;89190-98-7;106912-45-2;108137-10-6;123233-05-6;126968-23-8;131455-28-2;153316-73-5;160995-24-4;193898-52-1;203514-07-2;1557040-15-9",
    "SMILES": "",
    "meta_data": {
        "InChI": "",
        "InChIKey": null,
        "Canonical SMILES": "",
        "Molecular Formula": "C<sub>15</sub>H<sub>24</sub>O<sub>6</sub>",
        "Molecular Mass": "",
        "Boiling Point": "&gt;100 °C"
    }
}