{
    "cas_no": "652-67-5",
    "key_name": "Isosorbide",
    "cn_name": "异山梨醇;1,4:3,6-二脱水-D-葡萄糖醇;",
    "alternate_name": "<span class=\"text-smallcaps\">D</span>-Glucitol, 1,4:3,6-dianhydro-;Glucitol, 1,4:3,6-dianhydro-, <span class=\"text-smallcaps\">D</span>-;Sorbitol, 1,4:3,6-dianhydro-;1,4:3,6-Dianhydro-<span class=\"text-smallcaps\">D</span>-glucitol;Furo[3,2-<em>b</em>]furan, <span class=\"text-smallcaps\">D</span>-glucitol deriv.;AT 101;Hydronol;Isosorbide;1,4:3,6-Dianhydro-<span class=\"text-smallcaps\">D</span>-sorbitol;(+)-<span class=\"text-smallcaps\">D</span>-Isosorbide;1,4:3,6-Dianhydrosorbitol;Isobide;Devicoran;NSC 40725;Ismotic;Polysorb P;Polysorb PS;Addolink 0312;Polysorb B;Polysorb PB;Isosorbitol;Polysorb;Polysorb PBA;Novosorb P;Novasorb;Polysorb PS A;I 0407;Polysorb PA;MeSH ID: D007547",
    "duplicated_cas_no": "7241-88-5;42750-75-4;49871-92-3;50974-60-2;151380-60-8;152881-21-5;2088100-88-1",
    "SMILES": "O[C@@H]1[C@@]2([C@@]([C@H](O)CO2)(OC1)[H])[H]",
    "meta_data": {
        "InChI": "InChI=1S/C6H10O4/c7-3-1-9-6-4(8)2-10-5(3)6/h3-8H,1-2H2/t3-,4+,5-,6-/m1/s1",
        "InChIKey": null,
        "Canonical SMILES": "OC1COC2C(O)COC12",
        "Molecular Formula": "C<sub>6</sub>H<sub>10</sub>O<sub>4</sub>",
        "Molecular Mass": "146.14",
        "Boiling Point": "160-165 °C @ Press: 10 Torr",
        "Melting Point": "61-64 °C",
        "Density": "1.3777 g/cm³ @ Temp: 25 °C"
    }
}