{
    "cas_no": "25311-71-1",
    "key_name": "Isofenphos",
    "cn_name": "乙基异柳磷;",
    "alternate_name": "Benzoic acid, 2-[[ethoxy[(1-methylethyl)amino]phosphinothioyl]oxy]-, 1-methylethyl ester;Salicylic acid, isopropyl ester, <em>O</em>-ester with <em>O</em>-ethyl isopropylphosphoramidothioate;Phosphoramidothioic acid, isopropyl-, <em>O</em>-ethyl ester, <em>O</em>-ester with isopropyl salicylate;BAY 92114;Isophenphos;Isofenphos;SRA 12869;Oftanol;Bayer 92114;Amaze;Pryfon 6;Pyfron 6",
    "duplicated_cas_no": "117176-66-6;52907-24-1;61711-63-5",
    "SMILES": "C(OC(C)C)(=O)C1=C(OP(NC(C)C)(OCC)=S)C=CC=C1",
    "meta_data": {
        "InChI": "InChI=1S/C15H24NO4PS/c1-6-18-21(22,16-11(2)3)20-14-10-8-7-9-13(14)15(17)19-12(4)5/h7-12H,6H2,1-5H3,(H,16,22)",
        "InChIKey": null,
        "Canonical SMILES": "O=C(OC(C)C)C=1C=CC=CC1OP(=S)(OCC)NC(C)C",
        "Molecular Formula": "C<sub>15</sub>H<sub>24</sub>NO<sub>4</sub>PS",
        "Molecular Mass": "345.39",
        "Boiling Point": "120 °C @ Press: 0.01 Torr",
        "Melting Point": "&lt;-12 °C",
        "Density": "1.131 g/cm³ @ Temp: 20 °C"
    }
}