{
    "cas_no": "65079-19-8",
    "key_name": "6-Amino-2-methylquinoline",
    "cn_name": "6-氨基-2-甲基喹啉;",
    "alternate_name": "6-Quinolinamine, 2-methyl-;Quinaldine, 6-amino-;2-Methyl-6-quinolinamine;2-Methyl-6-aminoquinoline;6-Aminoquinaldine;6-Amino-2-methylquinoline;2-Methylquinolin-6-amine;(2-Methylquinolin-6-yl)amine",
    "duplicated_cas_no": "",
    "SMILES": "NC1=CC2=C(N=C(C)C=C2)C=C1",
    "meta_data": {
        "InChI": "InChI=1S/C10H10N2/c1-7-2-3-8-6-9(11)4-5-10(8)12-7/h2-6H,11H2,1H3",
        "InChIKey": null,
        "Canonical SMILES": "N=1C=2C=CC(N)=CC2C=CC1C",
        "Molecular Formula": "C<sub>10</sub>H<sub>10</sub>N<sub>2</sub>",
        "Molecular Mass": "158.20",
        "Melting Point": "185-187 °C"
    }
}