{
    "cas_no": "421-70-5",
    "key_name": "1-Bromo-1,1,2,2-tetrafluoro-2-iodoethane",
    "cn_name": "1-溴-2-碘四氟乙烷;1-溴-2-碘四氟乙烷,;1-溴-2-碘四氟乙烷, 97%, STAB. WITH COPPER;",
    "alternate_name": "Ethane, 1-bromo-1,1,2,2-tetrafluoro-2-iodo-;1-Bromo-1,1,2,2-tetrafluoro-2-iodoethane;2-Iodo-1-bromotetrafluoroethane;1-Bromotetrafluoro-2-iodoethane;1-Bromo-2-iodotetrafluoroethane;1-Iodo-2-bromotetrafluoroethane;1-Bromo-2-iodo-1,1,2,2-tetrafluoroethane;1-Bromo-2-iodoperfluoroethane",
    "duplicated_cas_no": "",
    "SMILES": "C(C(F)(F)I)(Br)(F)F",
    "meta_data": {
        "InChI": "InChI=1S/C2BrF4I/c3-1(4,5)2(6,7)8",
        "InChIKey": null,
        "Canonical SMILES": "FC(F)(Br)C(F)(F)I",
        "Molecular Formula": "C<sub>2</sub>BrF<sub>4</sub>I",
        "Molecular Mass": "306.82",
        "Boiling Point": "80.5-81.0 °C"
    }
}