{
    "cas_no": "626-16-4",
    "key_name": "1,3-Bis(chloromethyl)benzene",
    "cn_name": "间二氯苄;1,3-二(氯甲基)苯;",
    "alternate_name": "Benzene, 1,3-bis(chloromethyl)-;<em>m</em>-Xylene, α,α′-dichloro-;1,3-Bis(chloromethyl)benzene;<em>m</em>-Xylylene dichloride;α,α′-Dichloro-<em>m</em>-xylene;<em>m</em>-Bis(chloromethyl)benzene;<em>m</em>-Xylene dichloride;NSC 96971;3-(Chloromethyl)benzyl chloride;α′,α′-Dichloro-<em>m</em>-xylene",
    "duplicated_cas_no": "",
    "SMILES": "C(Cl)C1=CC(CCl)=CC=C1",
    "meta_data": {
        "InChI": "InChI=1S/C8H8Cl2/c9-5-7-2-1-3-8(4-7)6-10/h1-4H,5-6H2",
        "InChIKey": null,
        "Canonical SMILES": "ClCC1=CC=CC(=C1)CCl",
        "Molecular Formula": "C<sub>8</sub>H<sub>8</sub>Cl<sub>2</sub>",
        "Molecular Mass": "175.06",
        "Boiling Point": "251.5 °C",
        "Melting Point": "34.2 °C"
    }
}