{
    "cas_no": "768-52-5",
    "key_name": "<em>N</em>-Isopropylaniline",
    "cn_name": "N-异丙基苯胺;",
    "alternate_name": "Benzenamine, <em>N</em>-(1-methylethyl)-;Aniline, <em>N</em>-isopropyl-;<em>N</em>-(1-Methylethyl)benzenamine;<em>N</em>-Isopropylaniline;<em>N</em>-Phenylisopropylamine;<em>N</em>-Isopropylbenzenamine;Isopropylphenylamine;<em>N</em>-Phenyl-<em>N</em>-(1-methylethyl)amine;<em>N</em>-(1-Methylethyl)phenylamine",
    "duplicated_cas_no": "",
    "SMILES": "N(C(C)C)C1=CC=CC=C1",
    "meta_data": {
        "InChI": "InChI=1S/C9H13N/c1-8(2)10-9-6-4-3-5-7-9/h3-8,10H,1-2H3",
        "InChIKey": null,
        "Canonical SMILES": "C=1C=CC(=CC1)NC(C)C",
        "Molecular Formula": "C<sub>9</sub>H<sub>13</sub>N",
        "Molecular Mass": "135.21",
        "Boiling Point": "203 °C @ Press: 760 Torr",
        "Melting Point": "-10 °C",
        "Density": "0.9526 g/cm³"
    }
}