{
    "cas_no": "101-00-8",
    "key_name": "Triisopropanolamine borate",
    "cn_name": "三异丙醇胺环硼酸酯;",
    "alternate_name": "2,8,9-Trioxa-5-aza-1-borabicyclo[3.3.3]undecane, 3,7,10-trimethyl-;2-Propanol, 1,1′,1′′-nitrilotri-, cyclic ester with boric acid (H<sub>3</sub>BO<sub>3</sub>) (1:1);2-Propanol, 1,1′,1′′-nitrilotri-, cyclic borate;2-Propanol, 1,1′,1′′-nitrilotri-, borate;3,7,10-Trimethyl-2,8,9-trioxa-5-aza-1-borabicyclo[3.3.3]undecane;Borester 21;Triisopropanolamine cyclic borate;Triisopropanolamine borate;NSC 15099;3,7,10-Trimethyl-4,6,11-trioxa-1-aza-5-borabicyclo[3.3.3]undecane",
    "duplicated_cas_no": "895567-57-4",
    "SMILES": "CC1OB2OC(C)CN(C1)CC(C)O2",
    "meta_data": {
        "InChI": "InChI=1S/C9H18BNO3/c1-7-4-11-5-8(2)13-10(12-7)14-9(3)6-11/h7-9H,4-6H2,1-3H3",
        "InChIKey": null,
        "Canonical SMILES": "O1B2OC(C)CN(CC1C)CC(O2)C",
        "Molecular Formula": "C<sub>9</sub>H<sub>18</sub>BNO<sub>3</sub>",
        "Molecular Mass": "199.06",
        "Melting Point": "153-156 °C"
    }
}