{
    "cas_no": "94-85-9",
    "key_name": "2,5-Diethoxyaniline",
    "cn_name": "2,5-二乙氧基苯胺;",
    "alternate_name": "Benzenamine, 2,5-diethoxy-;Aniline, 2,5-diethoxy-;2,5-Diethoxybenzenamine;2,5-Diethoxyaniline;NSC 7486",
    "duplicated_cas_no": "",
    "SMILES": "O(CC)C1=C(N)C=C(OCC)C=C1",
    "meta_data": {
        "InChI": "InChI=1S/C10H15NO2/c1-3-12-8-5-6-10(13-4-2)9(11)7-8/h5-7H,3-4,11H2,1-2H3",
        "InChIKey": null,
        "Canonical SMILES": "O(C1=CC=C(OCC)C(N)=C1)CC",
        "Molecular Formula": "C<sub>10</sub>H<sub>15</sub>NO<sub>2</sub>",
        "Molecular Mass": "181.23",
        "Melting Point": "220-222 °C"
    }
}