{
    "cas_no": "4724-89-4",
    "key_name": "1,3,5,5-Tetramethyl-1,3-cyclohexadiene",
    "cn_name": "1,3,5,5-四甲基-1,3-环己二烯;1,3,5,5-四甲基-1,3-环己二烯;",
    "alternate_name": "1,3-Cyclohexadiene, 1,3,5,5-tetramethyl-;1,3,5,5-Tetramethyl-1,3-cyclohexadiene;NSC 123453",
    "duplicated_cas_no": "",
    "SMILES": "CC1(C)CC(C)=CC(C)=C1",
    "meta_data": {
        "InChI": "InChI=1S/C10H16/c1-8-5-9(2)7-10(3,4)6-8/h5-6H,7H2,1-4H3",
        "InChIKey": null,
        "Canonical SMILES": "C=1C(=CC(C)(C)CC1C)C",
        "Molecular Formula": "C<sub>10</sub>H<sub>16</sub>",
        "Molecular Mass": "136.23",
        "Boiling Point": "151-155 °C @ Press: 760 Torr",
        "Density": "0.9075 g/cm³ @ Temp: 20 °C"
    }
}