{
    "cas_no": "31001-77-1",
    "key_name": "(3-Mercaptopropyl)methyldimethoxysilane",
    "cn_name": "巯丙基甲基二甲氧基硅烷;甲基巯丙基二甲氧基硅烷;",
    "alternate_name": "1-Propanethiol, 3-(dimethoxymethylsilyl)-;3-(Dimethoxymethylsilyl)-1-propanethiol;(3-Mercaptopropyl)methyldimethoxysilane;(γ-Mercaptopropyl)dimethoxymethylsilane;Dimethoxy(γ-mercaptopropyl)methylsilane;Dimethoxymethyl(3-mercaptopropyl)silane;(γ-Mercaptopropyl)methyldimethoxysilane;Methyl(3-mercaptopropyl)dimethoxysilane;KBM 802;(3-Mercaptopropyl)dimethoxymethylsilane;AY 43-062;Dimethoxy(3-mercaptopropyl)methylsilane;Dimethoxymercaptopropylmethylsilane;KBE 802;SiSiB PC 2320;KEM 802;KH 970;DB 591;LM 582",
    "duplicated_cas_no": "101706-92-7",
    "SMILES": "[Si](CCCS)(OC)(OC)C",
    "meta_data": {
        "InChI": "InChI=1S/C6H16O2SSi/c1-7-10(3,8-2)6-4-5-9/h9H,4-6H2,1-3H3",
        "InChIKey": null,
        "Canonical SMILES": "SCCC[Si](OC)(OC)C",
        "Molecular Formula": "C<sub>6</sub>H<sub>16</sub>O<sub>2</sub>SSi",
        "Molecular Mass": "180.34",
        "Boiling Point": "96 °C @ Press: 30 Torr",
        "Density": "1 g/cm³"
    }
}