{
    "cas_no": "1143-38-0",
    "key_name": "Dithranol",
    "cn_name": "地蒽酚;蒽林;二羟蒽酚;去甲苛桠素;1,8,9-三羟基蒽;",
    "alternate_name": "9(10<em>H</em>)-Anthracenone, 1,8-dihydroxy-;Anthrone, 1,8-dihydroxy-;1,8-Dihydroxy-9(10<em>H</em>)-anthracenone;1,8-Dihydroxyanthrone;1,8-Dihydroxy-9-anthrone;Anthra-Derm;Anthralin;Chrysodermol;Cigthranol;Dithranol;Psoriacid-Stift;Cignolin;Batridol;Lasan;Batidrol;DrithoCreme;Drithoscalp;Psodadrate;Psoriacide;NSC 43970;NSC 629313;Derobin;1,8-Dihydroxy-10<em>H</em>-anthracen-9-one;1,8-Dihydroxy-9,10-dihydroanthracen-9-one",
    "duplicated_cas_no": "",
    "SMILES": "O=C1C=2C(CC=3C1=C(O)C=CC3)=CC=CC2O",
    "meta_data": {
        "InChI": "InChI=1S/C14H10O3/c15-10-5-1-3-8-7-9-4-2-6-11(16)13(9)14(17)12(8)10/h1-6,15-16H,7H2",
        "InChIKey": null,
        "Canonical SMILES": "O=C1C=2C(O)=CC=CC2CC=3C=CC=C(O)C13",
        "Molecular Formula": "C<sub>14</sub>H<sub>10</sub>O<sub>3</sub>",
        "Molecular Mass": "226.23",
        "Melting Point": "179 °C"
    }
}