{
    "cas_no": "762-62-9",
    "key_name": "4,4-Dimethyl-1-pentene",
    "cn_name": "4,4-二甲基-1-戊烯;3-叔丁基丙烯;4,4,4-三甲基-1-丁烯;4,4-二甲基-1-戊烯;",
    "alternate_name": "1-Pentene, 4,4-dimethyl-;4,4-Dimethyl-1-pentene;2,2-Dimethyl-4-pentene;Neopentylethylene;4,4-Dimethylpentene-1;4,4′-Dimethylpentene;NSC 73923",
    "duplicated_cas_no": "",
    "SMILES": "C(C(C)(C)C)C=C",
    "meta_data": {
        "InChI": "InChI=1S/C7H14/c1-5-6-7(2,3)4/h5H,1,6H2,2-4H3",
        "InChIKey": null,
        "Canonical SMILES": "C=CCC(C)(C)C",
        "Molecular Formula": "C<sub>7</sub>H<sub>14</sub>",
        "Molecular Mass": "98.19",
        "Boiling Point": "72.5 °C",
        "Melting Point": "-136.6 °C",
        "Density": "0.6827 g/cm³ @ Temp: 20 °C"
    }
}