{
    "cas_no": "29782-68-1",
    "key_name": "Silydianin",
    "cn_name": "水飞蓟宁;",
    "alternate_name": "3,6-Methanobenzofuran-7(6<em>H</em>)-one, 4-[(2<em>R</em>,3<em>R</em>)-3,4-dihydro-3,5,7-trihydroxy-4-oxo-2<em>H</em>-1-benzopyran-2-yl]-2,3,3a,7a-tetrahydro-7a-hydroxy-8-(4-hydroxy-3-methoxyphenyl)-, (3<em>R</em>,3a<em>R</em>,6<em>R</em>,7a<em>R</em>,8<em>R</em>)-;3,6-Methanobenzofuran-7(6α<em>H</em>)-one, 2,3α,3aα,7a-tetrahydro-7aα-hydroxy-8-(4-hydroxy-3-methoxyphenyl)-4-(3α,5,7-trihydroxy-4-oxo-2β-chromanyl)-, (+)-;3,6-Methanobenzofuran-7(6<em>H</em>)-one, 4-(3,4-dihydro-3,5,7-trihydroxy-4-oxo-2<em>H</em>-1-benzopyran-2-yl)-2,3,3a,7a-tetrahydro-7a-hydroxy-8-(4-hydroxy-3-methoxyphenyl)-, [3<em>R</em>-[3α,3aβ,4(2<em>R</em>*,3<em>R</em>*),6α,7aβ,8<em>R</em>*]]-;(3<em>R</em>,3a<em>R</em>,6<em>R</em>,7a<em>R</em>,8<em>R</em>)-4-[(2<em>R</em>,3<em>R</em>)-3,4-Dihydro-3,5,7-trihydroxy-4-oxo-2<em>H</em>-1-benzopyran-2-yl]-2,3,3a,7a-tetrahydro-7a-hydroxy-8-(4-hydroxy-3-methoxyphenyl)-3,6-methanobenzofuran-7(6<em>H</em>)-one;Silydianin;Silidianine;Silidianin",
    "duplicated_cas_no": "",
    "SMILES": "O[C@@]12[C@@]3([C@@]([C@H]([C@@](C=C3[C@H]4OC=5C(C(=O)[C@@H]4O)=C(O)C=C(O)C5)(C1=O)[H])C6=CC(OC)=C(O)C=C6)(CO2)[H])[H]",
    "meta_data": {
        "InChI": "InChI=1S/C25H22O10/c1-33-16-4-9(2-3-14(16)27)18-11-7-12(20-13(18)8-34-25(20,32)24(11)31)23-22(30)21(29)19-15(28)5-10(26)6-17(19)35-23/h2-7,11,13,18,20,22-23,26-28,30,32H,8H2,1H3/t11-,13-,18+,20+,22+,23-,25-/m1/s1",
        "InChIKey": null,
        "Canonical SMILES": "O=C1C=2C(O)=CC(O)=CC2OC(C3=CC4C(=O)C5(O)OCC(C4C6=CC=C(O)C(OC)=C6)C35)C1O",
        "Molecular Formula": "C<sub>25</sub>H<sub>22</sub>O<sub>10</sub>",
        "Molecular Mass": "482.44",
        "Melting Point": "185-187 °C"
    }
}