{
    "cas_no": "43200-82-4",
    "key_name": "6-(5-Chloro-2-pyridinyl)-5<em>H</em>-pyrrolo[3,4-<em>b</em>]pyrazine-5,7(6<em>H</em>)-dione",
    "cn_name": "6-(5-氯-2-吡啶基)-5H-吡咯并[3,4-b]吡嗪-5,7(6H)-二酮;",
    "alternate_name": "5<em>H</em>-Pyrrolo[3,4-<em>b</em>]pyrazine-5,7(6<em>H</em>)-dione, 6-(5-chloro-2-pyridinyl)-;6-(5-Chloro-2-pyridinyl)-5<em>H</em>-pyrrolo[3,4-<em>b</em>]pyrazine-5,7(6<em>H</em>)-dione;6-(5-Chloro-2-pyridinyl)-5,7-dioxo-6,7-dihydro-5<em>H</em>-pyrrolo[3,4-<em>b</em>]pyrazine",
    "duplicated_cas_no": "",
    "SMILES": "O=C1N(C(=O)C=2C1=NC=CN2)C3=CC=C(Cl)C=N3",
    "meta_data": {
        "InChI": "InChI=1S/C11H5ClN4O2/c12-6-1-2-7(15-5-6)16-10(17)8-9(11(16)18)14-4-3-13-8/h1-5H",
        "InChIKey": null,
        "Canonical SMILES": "O=C1C2=NC=CN=C2C(=O)N1C3=NC=C(Cl)C=C3",
        "Molecular Formula": "C<sub>11</sub>H<sub>5</sub>ClN<sub>4</sub>O<sub>2</sub>",
        "Molecular Mass": "260.64",
        "Melting Point": "238 °C"
    }
}