{
    "cas_no": "934369-14-9",
    "key_name": "<em>N</em>-(4-Chlorophenyl)-3,3-dimethyl-2-oxobutanimidic acid 2-(4-chlorophenyl)hydrazide",
    "cn_name": null,
    "alternate_name": "Butanimidic acid, <em>N</em>-(4-chlorophenyl)-3,3-dimethyl-2-oxo-, 2-(4-chlorophenyl)hydrazide;<em>N</em>-(4-Chlorophenyl)-3,3-dimethyl-2-oxobutanimidic acid 2-(4-chlorophenyl)hydrazide;TY 52156",
    "duplicated_cas_no": "",
    "SMILES": "C(=NC1=CC=C(Cl)C=C1)(NNC2=CC=C(Cl)C=C2)C(C(C)(C)C)=O",
    "meta_data": {
        "InChI": "InChI=1S/C18H19Cl2N3O/c1-18(2,3)16(24)17(21-14-8-4-12(19)5-9-14)23-22-15-10-6-13(20)7-11-15/h4-11,22H,1-3H3,(H,21,23)",
        "InChIKey": null,
        "Canonical SMILES": "O=C(C(=NC1=CC=C(Cl)C=C1)NNC2=CC=C(Cl)C=C2)C(C)(C)C",
        "Molecular Formula": "C<sub>18</sub>H<sub>19</sub>Cl<sub>2</sub>N<sub>3</sub>O",
        "Molecular Mass": "364.27",
        "Boiling Point": "62-69 °C @ Press: 20 Torr",
        "Melting Point": "90-91 °C"
    }
}