{
    "cas_no": "6283-25-6",
    "key_name": "2-Chloro-5-nitroaniline",
    "cn_name": "2-氯-5-硝基苯胺;5-硝基-2-氯苯胺;",
    "alternate_name": "Benzenamine, 2-chloro-5-nitro-;Aniline, 2-chloro-5-nitro-;2-Chloro-5-nitrobenzenamine;2-Chloro-5-nitroaniline;6-Chloro-3-nitroaniline;5-Nitro-2-chloroaniline;NSC 7791;2-Chloro-5-nitrophenylamine;1-Amino-2-chloro-5-nitrobenzene",
    "duplicated_cas_no": "",
    "SMILES": "N(=O)(=O)C1=CC(N)=C(Cl)C=C1",
    "meta_data": {
        "InChI": "InChI=1S/C6H5ClN2O2/c7-5-2-1-4(9(10)11)3-6(5)8/h1-3H,8H2",
        "InChIKey": null,
        "Canonical SMILES": "O=N(=O)C1=CC=C(Cl)C(N)=C1",
        "Molecular Formula": "C<sub>6</sub>H<sub>5</sub>ClN<sub>2</sub>O<sub>2</sub>",
        "Molecular Mass": "172.57",
        "Melting Point": "121 °C"
    }
}