{
    "cas_no": "6919-61-5",
    "key_name": "<em>N</em>-Methoxy-<em>N</em>-methylbenzamide",
    "cn_name": null,
    "alternate_name": "Benzamide, <em>N</em>-methoxy-<em>N</em>-methyl-;<em>N</em>-Methoxy-<em>N</em>-methylbenzamide;<em>N</em>-Methoxy-<em>N</em>-methylbenzenecarboxamide;<em>N</em>-Benzoyl-<em>N</em>-methyl-<em>O</em>-methylhydroxylamine",
    "duplicated_cas_no": "",
    "SMILES": "C(N(OC)C)(=O)C1=CC=CC=C1",
    "meta_data": {
        "InChI": "InChI=1S/C9H11NO2/c1-10(12-2)9(11)8-6-4-3-5-7-8/h3-7H,1-2H3",
        "InChIKey": null,
        "Canonical SMILES": "O=C(C=1C=CC=CC1)N(OC)C",
        "Molecular Formula": "C<sub>9</sub>H<sub>11</sub>NO<sub>2</sub>",
        "Molecular Mass": "165.19",
        "Boiling Point": "95 °C @ Press: 1 Torr"
    }
}