{
    "cas_no": "35454-39-8",
    "key_name": "1<em>H</em>-Imidazole-4-acetic acid, 1-methyl-, hydrochloride (1:1)",
    "cn_name": null,
    "alternate_name": "1<em>H</em>-Imidazole-4-acetic acid, 1-methyl-, hydrochloride (1:1);1<em>H</em>-Imidazole-4-acetic acid, 1-methyl-, monohydrochloride;1-Methyl-4-imidazoleacetic acid hydrochloride;2-(1-Methyl-1<em>H</em>-imidazol-4-yl)ethanoic acid hydrochloride;2-(1-Methyl-1<em>H</em>-imidazol-4-yl)acetic acid hydrochloride",
    "duplicated_cas_no": "51943-25-0",
    "SMILES": "C(C(O)=O)C1=CN(C)C=N1.Cl",
    "meta_data": {
        "InChI": "InChI=1S/C6H8N2O2.ClH/c1-8-3-5(7-4-8)2-6(9)10;/h3-4H,2H2,1H3,(H,9,10);1H",
        "InChIKey": null,
        "Canonical SMILES": "Cl.O=C(O)CC=1N=CN(C1)C",
        "Molecular Formula": "C<sub>6</sub>H<sub>8</sub>N<sub>2</sub>O<sub>2</sub>.ClH",
        "Molecular Mass": "",
        "Melting Point": "204-206 °C"
    }
}