{
    "cas_no": "59981-63-4",
    "key_name": "(6<em>S</em>)-4,5,6,7-Tetrahydro-3<em>H</em>-imidazo[4,5-<em>c</em>]pyridine-6-carboxylic acid",
    "cn_name": "L-4,5,6,7-四氢-1H-咪唑[4,5-c]并吡啶-6-羧酸;",
    "alternate_name": "3<em>H</em>-Imidazo[4,5-<em>c</em>]pyridine-6-carboxylic acid, 4,5,6,7-tetrahydro-, (6<em>S</em>)-;Spinacine;1<em>H</em>-Imidazo[4,5-<em>c</em>]pyridine-6-carboxylic acid, 4,5,6,7-tetrahydro-, (<em>S</em>)-;(6<em>S</em>)-4,5,6,7-Tetrahydro-3<em>H</em>-imidazo[4,5-<em>c</em>]pyridine-6-carboxylic acid;Spinacin;(-)-Spinacine;<span class=\"text-smallcaps\">L</span>-Spinacine;(<em>S</em>)-4,5,6,7-Tetrahydro-1<em>H</em>-imidazo[4,5-<em>d</em>]pyridine-6-carboxylic acid;(6S)-4,5,6,7-Tetrahydro-3<em>H</em>-imidazo[4,5-<em>c</em>]pyridine-6-carboxylic acid;(6S)-3<em>H</em>,4<em>H</em>,5<em>H</em>,6<em>H</em>,7<em>H</em>-Imidazo[4,5-<em>c</em>]pyridine-6-carboxylic acid;(6S)-1<em>H</em>,4<em>H</em>,5<em>H</em>,6<em>H</em>,7<em>H</em>-Imidazo[4,5-<em>c</em>]pyridine-6-carboxylic acid",
    "duplicated_cas_no": "",
    "SMILES": "C(O)(=O)[C@@H]1CC2=C(CN1)N=CN2",
    "meta_data": {
        "InChI": "InChI=1S/C7H9N3O2/c11-7(12)5-1-4-6(2-8-5)10-3-9-4/h3,5,8H,1-2H2,(H,9,10)(H,11,12)/t5-/m0/s1",
        "InChIKey": null,
        "Canonical SMILES": "O=C(O)C1NCC=2N=CNC2C1",
        "Molecular Formula": "C<sub>7</sub>H<sub>9</sub>N<sub>3</sub>O<sub>2</sub>",
        "Molecular Mass": "167.17",
        "Melting Point": "264 °C"
    }
}