{
    "cas_no": "943-89-5",
    "key_name": "<em>trans</em>-4-Methoxycinnamic acid",
    "cn_name": null,
    "alternate_name": "2-Propenoic acid, 3-(4-methoxyphenyl)-, (2<em>E</em>)-;Cinnamic acid, <em>p</em>-methoxy-, (<em>E</em>)-;2-Propenoic acid, 3-(4-methoxyphenyl)-, (<em>E</em>)-;(2<em>E</em>)-3-(4-Methoxyphenyl)-2-propenoic acid;<em>trans</em>-<em>p</em>-Methoxycinnamic acid;(<em>E</em>)-<em>p</em>-Methoxycinnamic acid;<em>trans</em>-4-Methoxycinnamic acid;(<em>E</em>)-4-Methoxycinnamic acid;(<em>E</em>)-3-(4-Methoxyphenyl)acrylic acid;<em>trans</em>-3-(4-Methoxyphenyl)-2-propenoic acid;(<em>E</em>)-3-(4-Methoxyphenyl)-2-propenoic acid;(E)-3-(4-Methoxyphenyl)acrylic acid",
    "duplicated_cas_no": "",
    "SMILES": "C(=C/C(O)=O)\\C1=CC=C(OC)C=C1",
    "meta_data": {
        "InChI": "InChI=1S/C10H10O3/c1-13-9-5-2-8(3-6-9)4-7-10(11)12/h2-7H,1H3,(H,11,12)/b7-4+",
        "InChIKey": null,
        "Canonical SMILES": "O=C(O)C=CC1=CC=C(OC)C=C1",
        "Molecular Formula": "C<sub>10</sub>H<sub>10</sub>O<sub>3</sub>",
        "Molecular Mass": "178.18",
        "Melting Point": "188 °C"
    }
}