{
    "cas_no": "827-94-1",
    "key_name": "2,6-Dibromo-4-nitroaniline",
    "cn_name": "2,6-二溴-4-硝基苯胺;",
    "alternate_name": "Benzenamine, 2,6-dibromo-4-nitro-;Aniline, 2,6-dibromo-4-nitro-;2,6-Dibromo-4-nitrobenzenamine;2,6-Dibromo-4-nitroaniline;2,6-Dibromo-<em>p</em>-nitroaniline;NSC 38765;2,6-Dibromo-4-nitro-phenylamine;4-Nitro-2,6-dibromoaniline",
    "duplicated_cas_no": "",
    "SMILES": "N(=O)(=O)C1=CC(Br)=C(N)C(Br)=C1",
    "meta_data": {
        "InChI": "InChI=1S/C6H4Br2N2O2/c7-4-1-3(10(11)12)2-5(8)6(4)9/h1-2H,9H2",
        "InChIKey": null,
        "Canonical SMILES": "O=N(=O)C1=CC(Br)=C(N)C(Br)=C1",
        "Molecular Formula": "C<sub>6</sub>H<sub>4</sub>Br<sub>2</sub>N<sub>2</sub>O<sub>2</sub>",
        "Molecular Mass": "295.92",
        "Boiling Point": "207 °C",
        "Melting Point": "202.5 °C"
    }
}