{
    "cas_no": "603-34-9",
    "key_name": "Triphenylamine",
    "cn_name": "三苯胺;",
    "alternate_name": "Benzenamine, <em>N</em>,<em>N</em>-diphenyl-;Triphenylamine;<em>N</em>,<em>N</em>-Diphenylbenzenamine;<em>N</em>,<em>N</em>-Diphenylaniline;NSC 66458",
    "duplicated_cas_no": "149006-34-8",
    "SMILES": "N(C1=CC=CC=C1)(C2=CC=CC=C2)C3=CC=CC=C3",
    "meta_data": {
        "InChI": "InChI=1S/C18H15N/c1-4-10-16(11-5-1)19(17-12-6-2-7-13-17)18-14-8-3-9-15-18/h1-15H",
        "InChIKey": null,
        "Canonical SMILES": "C=1C=CC(=CC1)N(C=2C=CC=CC2)C=3C=CC=CC3",
        "Molecular Formula": "C<sub>18</sub>H<sub>15</sub>N",
        "Molecular Mass": "245.32",
        "Boiling Point": "365 °C",
        "Melting Point": "127 °C",
        "Density": "0.774 g/cm³ @ Temp: 0 °C"
    }
}