{
    "cas_no": "31872-62-5",
    "key_name": "4-Methoxy-3-nitropyridine",
    "cn_name": null,
    "alternate_name": "Pyridine, 4-methoxy-3-nitro-;4-Methoxy-3-nitropyridine;3-Nitro-4-methoxypyridine",
    "duplicated_cas_no": "",
    "SMILES": "O(C)C=1C(N(=O)=O)=CN=CC1",
    "meta_data": {
        "InChI": "InChI=1S/C6H6N2O3/c1-11-6-2-3-7-4-5(6)8(9)10/h2-4H,1H3",
        "InChIKey": null,
        "Canonical SMILES": "O=N(=O)C=1C=NC=CC1OC",
        "Molecular Formula": "C<sub>6</sub>H<sub>6</sub>N<sub>2</sub>O<sub>3</sub>",
        "Molecular Mass": "154.12",
        "Boiling Point": "127 °C @ Press: 1 Torr",
        "Melting Point": "73 °C"
    }
}