{
    "cas_no": "118430-73-2",
    "key_name": "3-(1,1-Dimethylethyl)-1-methyl-1<em>H</em>-pyrazol-5-amine",
    "cn_name": "5-氨基-3-叔丁基-1-甲基吡唑;",
    "alternate_name": "1<em>H</em>-Pyrazol-5-amine, 3-(1,1-dimethylethyl)-1-methyl-;3-(1,1-Dimethylethyl)-1-methyl-1<em>H</em>-pyrazol-5-amine;5-Amino-3-<em>tert</em>-butyl-1-methylpyrazole;3-Amino-5-<em>tert</em>-butyl-1-methylisoxazole;5-Amino-1-methyl-3-<em>tert</em>-butylpyrazole;(5-<em>tert</em>-Butyl-2-methyl-2<em>H</em>-pyrazol-3-yl)amine;3-<em>tert</em>-Butyl-1-methyl-1<em>H</em>-pyrazol-5-amine",
    "duplicated_cas_no": "",
    "SMILES": "C(C)(C)(C)C=1C=C(N)N(C)N1",
    "meta_data": {
        "InChI": "InChI=1S/C8H15N3/c1-8(2,3)6-5-7(9)11(4)10-6/h5H,9H2,1-4H3",
        "InChIKey": null,
        "Canonical SMILES": "N1=C(C=C(N)N1C)C(C)(C)C",
        "Molecular Formula": "C<sub>8</sub>H<sub>15</sub>N<sub>3</sub>",
        "Molecular Mass": "153.22",
        "Melting Point": "156-157 °C"
    }
}