{
    "cas_no": "244-63-3",
    "key_name": "β-Carboline",
    "cn_name": "9H-吡啶(3,4-b)吲哚;9H-吡啶[3,4-b]吲哚;咔唑啉;六氫咔唑;2-azacarbazole;9H-β-Carboline;",
    "alternate_name": "9<em>H</em>-Pyrido[3,4-<em>b</em>]indole;Carbazoline;β-Carboline;2,9-Diazafluorene;Norharman;Norharmane;2-Azacarbazole;NSC 84417",
    "duplicated_cas_no": "",
    "SMILES": "C1=2C=3C(NC1=CC=CC2)=CN=CC3",
    "meta_data": {
        "InChI": "InChI=1S/C11H8N2/c1-2-4-10-8(3-1)9-5-6-12-7-11(9)13-10/h1-7,13H",
        "InChIKey": null,
        "Canonical SMILES": "N=1C=CC2=C(C1)NC=3C=CC=CC32",
        "Molecular Formula": "C<sub>11</sub>H<sub>8</sub>N<sub>2</sub>",
        "Molecular Mass": "168.19",
        "Melting Point": "199 °C"
    }
}