{
    "cas_no": "7791-07-3",
    "key_name": "Sodium perchlorate monohydrate",
    "cn_name": "一水高氯酸钠;一水合高氯酸钠;高氯酸钠一水化合物;",
    "alternate_name": "Perchloric acid, sodium salt, monohydrate;Sodium perchlorate monohydrate;Sodium perchlorate (NaClO<sub>4</sub>) monohydrate",
    "duplicated_cas_no": "",
    "SMILES": "Cl(=O)(=O)(=O)O.[Na].O",
    "meta_data": {
        "InChI": "InChI=1S/ClHO4.Na.H2O/c2-1(3,4)5;;/h(H,2,3,4,5);;1H2",
        "InChIKey": null,
        "Canonical SMILES": "[Na].O=Cl(=O)(=O)O.O",
        "Molecular Formula": "ClHO<sub>4</sub>.H<sub>2</sub>O.Na",
        "Molecular Mass": "",
        "Melting Point": "472 °C"
    }
}