{
    "cas_no": "112-31-2",
    "key_name": "Decanal",
    "cn_name": "癸醛;",
    "alternate_name": "Decanal;Capraldehyde;Capric aldehyde;Caprinaldehyde;Caprinic aldehyde;Decaldehyde;<em>n</em>-Decanal;Decyl aldehyde;<em>n</em>-Decyl aldehyde;Decylic aldehyde;<em>n</em>-Decaldehyde;Decanaldehyde;NSC 6087",
    "duplicated_cas_no": "",
    "SMILES": "C(CCCCC)CCCC=O",
    "meta_data": {
        "InChI": "InChI=1S/C10H20O/c1-2-3-4-5-6-7-8-9-10-11/h10H,2-9H2,1H3",
        "InChIKey": null,
        "Canonical SMILES": "O=CCCCCCCCCC",
        "Molecular Formula": "C<sub>10</sub>H<sub>20</sub>O",
        "Molecular Mass": "156.27",
        "Boiling Point": "208.5 °C",
        "Melting Point": "-5 °C",
        "Density": "0.830 g/cm³ @ Temp: 15 °C"
    }
}