{
    "cas_no": "4067-01-0",
    "key_name": "<em>N</em>-(2-Methylphenyl)maleimide",
    "cn_name": null,
    "alternate_name": "1<em>H</em>-Pyrrole-2,5-dione, 1-(2-methylphenyl)-;Maleimide, <em>N</em>-<em>o</em>-tolyl-;1-(2-Methylphenyl)-1<em>H</em>-pyrrole-2,5-dione;<em>N</em>-<em>o</em>-Tolylmaleimide;<em>N</em>-(<em>o</em>-Methylphenyl)maleimide;<em>N</em>-(2-Methylphenyl)maleimide;<em>N</em>-2-Tolylmaleimide;NSC 39640;NSC 52611;NSC 56115;1-(2-Methylphenyl)-2,5-dihydro-1<em>H</em>-pyrrole-2,5-dione",
    "duplicated_cas_no": "",
    "SMILES": "O=C1N(C(=O)C=C1)C2=C(C)C=CC=C2",
    "meta_data": {
        "InChI": "InChI=1S/C11H9NO2/c1-8-4-2-3-5-9(8)12-10(13)6-7-11(12)14/h2-7H,1H3",
        "InChIKey": null,
        "Canonical SMILES": "O=C1C=CC(=O)N1C=2C=CC=CC2C",
        "Molecular Formula": "C<sub>11</sub>H<sub>9</sub>NO<sub>2</sub>",
        "Molecular Mass": "187.19",
        "Melting Point": "70-71 °C"
    }
}