{
    "cas_no": "22438-39-7",
    "key_name": "1-(Methylthio)decane",
    "cn_name": "正癸基硫化甲基;",
    "alternate_name": "Decane, 1-(methylthio)-;Sulfide, decyl methyl;1-(Methylthio)decane;Methyl decyl sulfide;Decyl methyl sulfide;2-Thiadodecane;<em>n</em>-Decyl methyl sulfide;1-Methylsulfanyldecane",
    "duplicated_cas_no": "",
    "SMILES": "C(CCCCSC)CCCCC",
    "meta_data": {
        "InChI": "InChI=1S/C11H24S/c1-3-4-5-6-7-8-9-10-11-12-2/h3-11H2,1-2H3",
        "InChIKey": null,
        "Canonical SMILES": "S(C)CCCCCCCCCC",
        "Molecular Formula": "C<sub>11</sub>H<sub>24</sub>S",
        "Molecular Mass": "188.37",
        "Boiling Point": "125 °C @ Press: 12 Torr"
    }
}