{
    "cas_no": "76-77-7",
    "key_name": "Neoquassin",
    "cn_name": "新苦木苷;新苦木苷;",
    "alternate_name": "Picrasa-2,12-diene-1,11-dione, 16-hydroxy-2,12-dimethoxy-;Neoquassin;Phenanthro[10,1-<em>bc</em>]pyran-1,11-dione, 3a,4,5,6a,7,7a,8,11a,11b,11c-decahydro-5-hydroxy-2,10-dimethoxy-3,8,11a,11c-tetramethyl-;Phenanthro[10,1-<em>bc</em>]pyran, picrasa-2,12-diene-1,11-dione deriv.;16-Hydroxy-2,12-dimethoxypicrasa-2,12-diene-1,11-dione;Nigakihemiacetal B;Simalikahemiacetal A;Neoquassine;NSC 139168",
    "duplicated_cas_no": "32727-23-4",
    "SMILES": "CC12C3C4(C)C(CC1OC(O)CC2C(C)=C(OC)C3=O)C(C)C=C(OC)C4=O",
    "meta_data": {
        "InChI": "InChI=1S/C22H30O6/c1-10-7-14(26-5)20(25)22(4)12(10)8-15-21(3)13(9-16(23)28-15)11(2)18(27-6)17(24)19(21)22/h7,10,12-13,15-16,19,23H,8-9H2,1-6H3",
        "InChIKey": null,
        "Canonical SMILES": "O=C1C(OC)=C(C)C2CC(O)OC3CC4C(C=C(OC)C(=O)C4(C)C1C32C)C",
        "Molecular Formula": "C<sub>22</sub>H<sub>30</sub>O<sub>6</sub>",
        "Molecular Mass": "390.47",
        "Melting Point": "227 °C"
    }
}