{
    "cas_no": "50-42-0",
    "key_name": "Adiphenine hydrochloride",
    "cn_name": "盐酸阿地芬宁;盐酸阿地芬尼;二苯乙酸2-(二乙基氨基)乙基酯盐酸盐;",
    "alternate_name": "Benzeneacetic acid, α-phenyl-, 2-(diethylamino)ethyl ester, hydrochloride (1:1);Acetic acid, diphenyl-, 2-(diethylamino)ethyl ester hydrochloride;Benzeneacetic acid, α-phenyl-, 2-(diethylamino)ethyl ester, hydrochloride;Adiphenine hydrochloride;2-Diethylaminoethyl diphenylacetate hydrochloride;Difacil hydrochloride;Diphacil hydrochloride;Patrovina;Sentiv;Spasnil;Trasentine hydrochloride;Spasmolytin hydrochloride;Adifenin hydrochloride;Adiphen hydrochloride;Spasmolytin;Trasentin hydrochloride;Vegantin;β-Diethylaminoethyl diphenylacetate hydrochloride;NSC 129224",
    "duplicated_cas_no": "",
    "SMILES": "C(C(OCCN(CC)CC)=O)(C1=CC=CC=C1)C2=CC=CC=C2.Cl",
    "meta_data": {
        "InChI": "InChI=1S/C20H25NO2.ClH/c1-3-21(4-2)15-16-23-20(22)19(17-11-7-5-8-12-17)18-13-9-6-10-14-18;/h5-14,19H,3-4,15-16H2,1-2H3;1H",
        "InChIKey": null,
        "Canonical SMILES": "Cl.O=C(OCCN(CC)CC)C(C=1C=CC=CC1)C=2C=CC=CC2",
        "Molecular Formula": "C<sub>20</sub>H<sub>25</sub>NO<sub>2</sub>.ClH",
        "Molecular Mass": "",
        "Melting Point": "113.5 °C"
    }
}