{
    "cas_no": "119895-68-0",
    "key_name": "2,2-Difluoro-1,3-benzodioxole-4-carboxaldehyde",
    "cn_name": "2,2-二氟-1,3-苯并二恶茂-4-甲醛;",
    "alternate_name": "1,3-Benzodioxole-4-carboxaldehyde, 2,2-difluoro-;2,2-Difluoro-1,3-benzodioxole-4-carboxaldehyde;2,2-Difluoro-4-formylbenzodioxole;2,2-Difluorobenzodioxole-4-carboxaldehyde;2,2-Difluoro-1,3-benzodioxol-4-aldehyde;2,2-Difluorobenz[1,3]dioxol-4-carboxaldehyde;2,2-Difluoro-2<em>H</em>-1,3-benzodioxole-4-carbaldehyde;2,2-Difluoro-1,3-dioxaindane-4-carbaldehyde",
    "duplicated_cas_no": "",
    "SMILES": "C(=O)C1=C2C(OC(F)(F)O2)=CC=C1",
    "meta_data": {
        "InChI": "InChI=1S/C8H4F2O3/c9-8(10)12-6-3-1-2-5(4-11)7(6)13-8/h1-4H",
        "InChIKey": null,
        "Canonical SMILES": "O=CC=1C=CC=C2OC(F)(F)OC21",
        "Molecular Formula": "C<sub>8</sub>H<sub>4</sub>F<sub>2</sub>O<sub>3</sub>",
        "Molecular Mass": "186.11",
        "Boiling Point": "99-101 °C @ Press: 14 Torr"
    }
}