{
    "cas_no": "885275-14-9",
    "key_name": "1,1-Dimethylethyl <em>N</em>-(4-bromo-3-pyridinyl)carbamate",
    "cn_name": null,
    "alternate_name": "Carbamic acid, <em>N</em>-(4-bromo-3-pyridinyl)-, 1,1-dimethylethyl ester;Carbamic acid, (4-bromo-3-pyridinyl)-, 1,1-dimethylethyl ester;1,1-Dimethylethyl <em>N</em>-(4-bromo-3-pyridinyl)carbamate;(4-Bromo-pyridin-3-yl)-carbamic acid tert-butyl ester",
    "duplicated_cas_no": "",
    "SMILES": "N(C(OC(C)(C)C)=O)C=1C(Br)=CC=NC1",
    "meta_data": {
        "InChI": "InChI=1S/C10H13BrN2O2/c1-10(2,3)15-9(14)13-8-6-12-5-4-7(8)11/h4-6H,1-3H3,(H,13,14)",
        "InChIKey": null,
        "Canonical SMILES": "O=C(OC(C)(C)C)NC=1C=NC=CC1Br",
        "Molecular Formula": "C<sub>10</sub>H<sub>13</sub>BrN<sub>2</sub>O<sub>2</sub>",
        "Molecular Mass": "273.13",
        "Melting Point": "108-109 °C"
    }
}