{
    "cas_no": "70458-96-7",
    "key_name": "Norfloxacin",
    "cn_name": null,
    "alternate_name": "3-Quinolinecarboxylic acid, 1-ethyl-6-fluoro-1,4-dihydro-4-oxo-7-(1-piperazinyl)-;1-Ethyl-6-fluoro-1,4-dihydro-4-oxo-7-(1-piperazinyl)-3-quinolinecarboxylic acid;AM 715;Mk 0366;Norfloxacin;4803P;<em>N</em>-Demethylpefloxacin;Baccidal;<em>N</em>-Desmethylpefloxacin;Norphloxacine;Chibroxin;Noroxin;Norfloxacine;Floxacin 400;Noflo;Spectrama;Noroxine;Barazan;Floxacin;Utinor;Fulgram;Gonorcin;Sebercim;Chibroxine;Noraxin;Norxacin;Chibroxol;Lexinor;Zoroxin;Uroxacin;Norocin;Noracin;Nolicin;1-Ethyl-6-fluoro-1,4-dihydro-7-(1-piperazinyl)-4-oxo-3-quinolinecarboxylic acid;Norflox 400;Norbid;Uroflox;Esclebin;Amicrobin;Neofloxacin;Utin;Norfloxin;Neofloxin;Urekacin;Barotham;Renosept;Nofocin;Norfloxacin Bayvit;Norfloxacine Teva;Norfloxacine Ratiopharm;Norfloxacine EG;Noroxacine;Norflox;Uriflox;Normax;Norilet;Urotrobel;1-Ethyl-6-fluoro-4-oxo-7-(piperazin-1-yl)-1,4-dihydroquinoline-3-carboxylic acid;1-Ethyl-6-fluoro-4-oxo-7-piperazin-1-yl-1,4-dihydro-quinoline-3-carboxylic acid;1-Ethyl-6-fluoro-4-oxo-7-piperazin-1-ylquinoline-3-carboxylic acid;MeSH ID: D009643",
    "duplicated_cas_no": "",
    "SMILES": "C(C)N1C=2C(C(=O)C(C(O)=O)=C1)=CC(F)=C(C2)N3CCNCC3",
    "meta_data": {
        "InChI": "InChI=1S/C16H18FN3O3/c1-2-19-9-11(16(22)23)15(21)10-7-12(17)14(8-13(10)19)20-5-3-18-4-6-20/h7-9,18H,2-6H2,1H3,(H,22,23)",
        "InChIKey": null,
        "Canonical SMILES": "O=C(O)C1=CN(C2=CC(=C(F)C=C2C1=O)N3CCNCC3)CC",
        "Molecular Formula": "C<sub>16</sub>H<sub>18</sub>FN<sub>3</sub>O<sub>3</sub>",
        "Molecular Mass": "319.33",
        "Melting Point": "227-228 °C"
    }
}