{
    "cas_no": "10102-44-0",
    "key_name": "Nitrogen dioxide",
    "cn_name": "二氧化氮;过氧化氮;",
    "alternate_name": "Nitrogen oxide (NO<sub>2</sub>);Nitrogen dioxide;Nitrito;Nitro;Nitrogen dioxide (NO<sub>2</sub>);Nitrogen peroxide;Nitrite radical;MeSH ID: D009585",
    "duplicated_cas_no": "50443-93-1;56003-83-9;66252-28-6;78246-05-6;119990-11-3;127999-62-6;2332895-81-3",
    "SMILES": "",
    "meta_data": {
        "InChI": "",
        "InChIKey": null,
        "Canonical SMILES": "",
        "Molecular Formula": "NO<sub>2</sub>",
        "Molecular Mass": "",
        "Boiling Point": "21.15 °C",
        "Melting Point": "-9.3 °C",
        "Density": "1.45 g/cm³"
    }
}