{
    "cas_no": "86604-75-3",
    "key_name": "2-(Chloromethyl)-4-methoxy-3,5-dimethylpyridine hydrochloride",
    "cn_name": "2-氯甲基-3,5-二甲基-4-甲氧基吡啶盐酸盐;",
    "alternate_name": "Pyridine, 2-(chloromethyl)-4-methoxy-3,5-dimethyl-, hydrochloride (1:1);Pyridine, 2-(chloromethyl)-4-methoxy-3,5-dimethyl-, hydrochloride;2-(Chloromethyl)-4-methoxy-3,5-dimethylpyridine hydrochloride;2-(Chloromethyl)-3,5-dimethyl-4-methoxypyridine hydrochloride;CC-993;3,5-Dimethyl-2-chloromethyl-4-methoxypyridine hydrochloride;2-(Chloromethyl)-4-methoxy-3,5-dimethyl-1-pyridinium chloride;3,5-Dimethyl-4-methoxy-2-chloromethyl pyridine hydrochloride",
    "duplicated_cas_no": "",
    "SMILES": "O(C)C=1C(C)=C(CCl)N=CC1C.Cl",
    "meta_data": {
        "InChI": "InChI=1S/C9H12ClNO.ClH/c1-6-5-11-8(4-10)7(2)9(6)12-3;/h5H,4H2,1-3H3;1H",
        "InChIKey": null,
        "Canonical SMILES": "Cl.ClCC1=NC=C(C(OC)=C1C)C",
        "Molecular Formula": "C<sub>9</sub>H<sub>12</sub>ClNO.ClH",
        "Molecular Mass": "",
        "Melting Point": "127-128 °C"
    }
}