{
    "cas_no": "92-81-9",
    "key_name": "Acridan",
    "cn_name": null,
    "alternate_name": "Acridine, 9,10-dihydro-;Acridan;9,10-Dihydroacridine;Carbazine;Acridane;9-Aza-9,10-dihydroanthracene;NSC 41239",
    "duplicated_cas_no": "",
    "SMILES": "C1=2C(NC=3C(C1)=CC=CC3)=CC=CC2",
    "meta_data": {
        "InChI": "InChI=1S/C13H11N/c1-3-7-12-10(5-1)9-11-6-2-4-8-13(11)14-12/h1-8,14H,9H2",
        "InChIKey": null,
        "Canonical SMILES": "C=1C=CC2=C(C1)NC=3C=CC=CC3C2",
        "Molecular Formula": "C<sub>13</sub>H<sub>11</sub>N",
        "Molecular Mass": "181.23",
        "Boiling Point": "348 °C @ Press: 764 Torr",
        "Melting Point": "169-170 °C"
    }
}