{
    "cas_no": "607-28-3",
    "key_name": "Isatin β-oxime",
    "cn_name": "靛红-3-肟;β-靛红肟;二氢吲哚-2,3-二酮-3-肟;菘蓝-3-肟;依托肟;吲哚醌-3-肟;",
    "alternate_name": "1<em>H</em>-Indole-2,3-dione, 3-oxime;Indole-2,3-dione, 3-oxime;Isatin, 3-oxime;Isatin β-oxime;NSC 9355;3-(Hydroxyimino)indolin-2-one;3-Hydroxyimino-2-indolone",
    "duplicated_cas_no": "",
    "SMILES": "N(O)=C1C=2C(NC1=O)=CC=CC2",
    "meta_data": {
        "InChI": "InChI=1S/C8H6N2O2/c11-8-7(10-12)5-3-1-2-4-6(5)9-8/h1-4,12H,(H,9,10,11)",
        "InChIKey": null,
        "Canonical SMILES": "O=C1NC=2C=CC=CC2C1=NO",
        "Molecular Formula": "C<sub>8</sub>H<sub>6</sub>N<sub>2</sub>O<sub>2</sub>",
        "Molecular Mass": "162.15",
        "Melting Point": "217 °C"
    }
}