{
    "cas_no": "133-08-4",
    "key_name": "1,3-Diethyl 2-butylpropanedioate",
    "cn_name": "正丁基丙二酸二乙酯;",
    "alternate_name": "Propanedioic acid, 2-butyl-, 1,3-diethyl ester;Malonic acid, butyl-, diethyl ester;Propanedioic acid, butyl-, diethyl ester;1,3-Diethyl 2-butylpropanedioate;Diethyl butylmalonate;Diethyl <em>n</em>-butylmalonate;Butylmalonic acid diethyl ester;Ethyl butylmalonate;Diethyl α-butylmalonate;Diethyl 2-butylmalonate;Butylpropanedioic acid diethyl ester;NSC 4565;Diethyl 2-<em>n</em>-butylmalonate",
    "duplicated_cas_no": "",
    "SMILES": "C(C(OCC)=O)(C(OCC)=O)CCCC",
    "meta_data": {
        "InChI": "InChI=1S/C11H20O4/c1-4-7-8-9(10(12)14-5-2)11(13)15-6-3/h9H,4-8H2,1-3H3",
        "InChIKey": null,
        "Canonical SMILES": "O=C(OCC)C(C(=O)OCC)CCCC",
        "Molecular Formula": "C<sub>11</sub>H<sub>20</sub>O<sub>4</sub>",
        "Molecular Mass": "216.27",
        "Boiling Point": "237.5 °C",
        "Melting Point": "238 °C",
        "Density": "0.9745 g/cm³ @ Temp: 20 °C"
    }
}