{
    "cas_no": "1776-53-0",
    "key_name": "4-Aminocyclohexanecarboxylic acid",
    "cn_name": null,
    "alternate_name": "Cyclohexanecarboxylic acid, 4-amino-;4-Aminocyclohexanecarboxylic acid;4-Aminocyclohexylcarboxylic acid;4-Amino-1-cyclohexanecarboxylic acid",
    "duplicated_cas_no": "",
    "SMILES": "C(O)(=O)C1CCC(N)CC1",
    "meta_data": {
        "InChI": "InChI=1S/C7H13NO2/c8-6-3-1-5(2-4-6)7(9)10/h5-6H,1-4,8H2,(H,9,10)",
        "InChIKey": null,
        "Canonical SMILES": "O=C(O)C1CCC(N)CC1",
        "Molecular Formula": "C<sub>7</sub>H<sub>13</sub>NO<sub>2</sub>",
        "Molecular Mass": "143.18",
        "Melting Point": "260 °C"
    }
}