{
    "cas_no": "77175-51-0",
    "key_name": "Croconazole",
    "cn_name": null,
    "alternate_name": "1<em>H</em>-Imidazole, 1-[1-[2-[(3-chlorophenyl)methoxy]phenyl]ethenyl]-;1-[1-[2-[(3-Chlorophenyl)methoxy]phenyl]ethenyl]-1<em>H</em>-imidazole;Croconazole;Viniconazole;1-(1-(2-((3-Chlorobenzyl)oxy)phenyl)vinyl)-1<em>H</em>-imidazole",
    "duplicated_cas_no": "",
    "SMILES": "C(=C)(C1=C(OCC2=CC(Cl)=CC=C2)C=CC=C1)N3C=CN=C3",
    "meta_data": {
        "InChI": "InChI=1S/C18H15ClN2O/c1-14(21-10-9-20-13-21)17-7-2-3-8-18(17)22-12-15-5-4-6-16(19)11-15/h2-11,13H,1,12H2",
        "InChIKey": null,
        "Canonical SMILES": "ClC1=CC=CC(=C1)COC=2C=CC=CC2C(=C)N3C=NC=C3",
        "Molecular Formula": "C<sub>18</sub>H<sub>15</sub>ClN<sub>2</sub>O",
        "Molecular Mass": "310.78",
        "Melting Point": "72-73 °C"
    }
}