{
    "cas_no": "789-02-6",
    "key_name": "<em>o</em>,<em>p</em>′-DDT",
    "cn_name": null,
    "alternate_name": "Benzene, 1-chloro-2-[2,2,2-trichloro-1-(4-chlorophenyl)ethyl]-;Ethane, 1,1,1-trichloro-2-(<em>o</em>-chlorophenyl)-2-(<em>p</em>-chlorophenyl)-;1-Chloro-2-[2,2,2-trichloro-1-(4-chlorophenyl)ethyl]benzene;<em>o</em>,<em>p</em>′-DDT;1,1,1-Trichloro-2-(<em>o</em>-chlorophenyl)-2-(<em>p</em>-chlorophenyl)ethane;2,4′-DDT;1-(<em>o</em>-Chlorophenyl)-1-(<em>p</em>-chlorophenyl)-2,2,2-trichloroethane;2-(2-Chlorophenyl)-2-(4-chlorophenyl)-1,1,1-trichloroethane;(±)-<em>o</em>,<em>p</em>′-DDT;(±)-1-(<em>o</em>-Chlorophenyl)-1-(<em>p</em>-chlorophenyl)-2,2,2-trichloroethane;2,4′-Dichlorodiphenyltrichloroethane;(±)-o,p′-DDT;NSC 33446;NSC 57644;<em>o</em>,<em>p</em>′-Chlorophenothane;1-(2-Chlorophenyl)-1-(4-chlorophenyl)-2,2,2-trichloroethane;2-<em>o</em>-Chlorophenyl-2-<em>p</em>-chlorophenyl-1,1,1-trichloroethane;<em>o</em>,<em>p</em>′-Dichlorodiphenyltrichloroethane",
    "duplicated_cas_no": "58633-17-3",
    "SMILES": "C(C(Cl)(Cl)Cl)(C1=C(Cl)C=CC=C1)C2=CC=C(Cl)C=C2",
    "meta_data": {
        "InChI": "InChI=1S/C14H9Cl5/c15-10-7-5-9(6-8-10)13(14(17,18)19)11-3-1-2-4-12(11)16/h1-8,13H",
        "InChIKey": null,
        "Canonical SMILES": "ClC1=CC=C(C=C1)C(C=2C=CC=CC2Cl)C(Cl)(Cl)Cl",
        "Molecular Formula": "C<sub>14</sub>H<sub>9</sub>Cl<sub>5</sub>",
        "Molecular Mass": "354.49",
        "Boiling Point": "190-191 °C @ Press: 1 Torr",
        "Melting Point": "74-74.5 °C",
        "Density": "0.99 g/cm³"
    }
}