{
    "cas_no": "2082-76-0",
    "key_name": "Decanoic anhydride",
    "cn_name": "正癸酸酐;",
    "alternate_name": "Decanoic acid, 1,1′-anhydride;Decanoic anhydride;Decanoic acid, anhydride;Capric anhydride;Caprinic anhydride",
    "duplicated_cas_no": "",
    "SMILES": "O(C(CCCCCCCCC)=O)C(CCCCCCCCC)=O",
    "meta_data": {
        "InChI": "InChI=1S/C20H38O3/c1-3-5-7-9-11-13-15-17-19(21)23-20(22)18-16-14-12-10-8-6-4-2/h3-18H2,1-2H3",
        "InChIKey": null,
        "Canonical SMILES": "O=C(OC(=O)CCCCCCCCC)CCCCCCCCC",
        "Molecular Formula": "C<sub>20</sub>H<sub>38</sub>O<sub>3</sub>",
        "Molecular Mass": "326.51",
        "Boiling Point": "125-140 °C",
        "Melting Point": "24.7 °C",
        "Density": "0.8596 g/cm³ @ Temp: 70 °C"
    }
}