{
    "cas_no": "2488-95-1",
    "key_name": "2,2′-(1,2-Hydrazinediyl)bis[ethanol]",
    "cn_name": null,
    "alternate_name": "Ethanol, 2,2′-(1,2-hydrazinediyl)bis-;Ethanol, 2,2′-hydrazodi-;Ethanol, 2,2′-hydrazobis-;2,2′-(1,2-Hydrazinediyl)bis[ethanol];1,2-Bis(2-hydroxyethyl)hydrazine;2,2′-Hydrazodiethanol;2,2′-Hydrazobis[ethanol];NSC 38256;2,2′-(Hydrazine-1,2-diyl)diethanol;2-[2-(2-Hydroxyethyl)hydrazinyl]ethanol;2-[2-(2-Hydroxyethyl)hydrazin-1-yl]ethan-1-ol",
    "duplicated_cas_no": "",
    "SMILES": "N(NCCO)CCO",
    "meta_data": {
        "InChI": "InChI=1S/C4H12N2O2/c7-3-1-5-6-2-4-8/h5-8H,1-4H2",
        "InChIKey": null,
        "Canonical SMILES": "OCCNNCCO",
        "Molecular Formula": "C<sub>4</sub>H<sub>12</sub>N<sub>2</sub>O<sub>2</sub>",
        "Molecular Mass": "120.15",
        "Boiling Point": "171 °C",
        "Melting Point": "58-60 °C"
    }
}