{
    "cas_no": "20086-06-0",
    "key_name": "Diosbulbin B",
    "cn_name": null,
    "alternate_name": "4<em>H</em>-3a,6:7,10-Dimethanofuro[2,3-<em>c</em>]oxepino[4,5-<em>e</em>]oxepin-4,8(6<em>H</em>)-dione, 2-(3-furanyl)octahydro-11b-methyl-, (2<em>R</em>,3a<em>S</em>,6<em>S</em>,6a<em>S</em>,7<em>R</em>,10<em>R</em>,11a<em>R</em>,11b<em>S</em>)-;4<em>H</em>-3a,6:7,10-Dimethanofuro[2,3-<em>c</em>]oxepino[4,5-<em>e</em>]oxepin-4,8(6<em>H</em>)-dione, 2-(3-furanyl)octahydro-11b-methyl-, [2<em>R</em>-(2α,3aβ,6β,6aβ,7β,10β,11aα,11bβ)]-;Diosbulbin B;(2<em>R</em>,3a<em>S</em>,6<em>S</em>,6a<em>S</em>,7<em>R</em>,10<em>R</em>,11a<em>R</em>,11b<em>S</em>)-2-(3-Furanyl)octahydro-11b-methyl-4<em>H</em>-3a,6:7,10-dimethanofuro[2,3-<em>c</em>]oxepino[4,5-<em>e</em>]oxepin-4,8(6<em>H</em>)-dione",
    "duplicated_cas_no": "",
    "SMILES": "CC12C3(CC(OC3=O)C4C1CC5CC4C(=O)O5)OC(C2)C=6C=COC6",
    "meta_data": {
        "InChI": "InChI=1S/C19H20O6/c1-18-6-13(9-2-3-22-8-9)25-19(18)7-14(24-17(19)21)15-11-4-10(5-12(15)18)23-16(11)20/h2-3,8,10-15H,4-7H2,1H3",
        "InChIKey": null,
        "Canonical SMILES": "O=C1OC2CC1C3C4OC(=O)C5(OC(C6=COC=C6)CC5(C)C3C2)C4",
        "Molecular Formula": "C<sub>19</sub>H<sub>20</sub>O<sub>6</sub>",
        "Molecular Mass": "344.36",
        "Melting Point": "285 °C"
    }
}