{
    "cas_no": "13679-74-8",
    "key_name": "2-Acetyl-5-methylthiophene",
    "cn_name": "2-乙酰-5-甲基噻吩;",
    "alternate_name": "Ethanone, 1-(5-methyl-2-thienyl)-;Ketone, methyl 5-methyl-2-thienyl;1-(5-Methyl-2-thienyl)ethanone;Methyl 5-methyl-2-thienyl ketone;2-Acetyl-5-methylthiophene;2-Methyl-5-acetylthiophene;5-Methyl-2-thienyl methyl ketone;1-(5-Methylthiophen-2-yl)ethanone;1-(5-Methylthiophen-2-yl)ethan-1-one",
    "duplicated_cas_no": "",
    "SMILES": "C(C)(=O)C=1SC(C)=CC1",
    "meta_data": {
        "InChI": "InChI=1S/C7H8OS/c1-5-3-4-7(9-5)6(2)8/h3-4H,1-2H3",
        "InChIKey": null,
        "Canonical SMILES": "O=C(C=1SC(=CC1)C)C",
        "Molecular Formula": "C<sub>7</sub>H<sub>8</sub>OS",
        "Molecular Mass": "140.20",
        "Boiling Point": "232.5 °C",
        "Melting Point": "27.5 °C",
        "Density": "1.12 g/cm³ @ Temp: 25 °C"
    }
}