{
    "cas_no": "9003-42-3",
    "key_name": "Poly(ethyl methacrylate)",
    "cn_name": null,
    "alternate_name": "2-Propenoic acid, 2-methyl-, ethyl ester, homopolymer;Methacrylic acid, ethyl ester, polymers;Plexigum N;Poly(ethyl methacrylate);Ethyl methacrylate polymer;Lucite 2042;Acrylbase MH 105;Elvacite 2042;Elvacite 2043;Dianal BR 90;BR 90;PEMA;Elvacite 2028;Ethyl methacrylate homopolymer;Hipearl D 100;NeoCryl B 813;Hipearl D 250E;Poly(ethyl 2-methyl-2-propenoate);Super-soft;Super-soft (new);D 100E;D 350E;EMA 35;Hipearl D 250EL;Trim-PEMA;AKG 1.2;Techpolymer EMA 35;Hipearl M 5001;Colacryl TS 1364/1",
    "duplicated_cas_no": "128440-92-6;133775-64-1;137431-11-9;138128-38-8;61584-93-8;179799-95-2;187170-02-1",
    "SMILES": "C(OCC)(C(C)=C)=O",
    "meta_data": {
        "InChI": "InChI=1S/C6H10O2/c1-4-8-6(7)5(2)3/h2,4H2,1,3H3",
        "InChIKey": null,
        "Canonical SMILES": "O=C(OCC)C(=C)C",
        "Molecular Formula": "(C<sub>6</sub>H<sub>10</sub>O<sub>2</sub>)<sub>x</sub>",
        "Molecular Mass": "",
        "Melting Point": "245 °C (decomp)",
        "Density": "1.1 g/cm³"
    }
}