{
    "cas_no": "58274-56-9",
    "key_name": "Kakkalide",
    "cn_name": null,
    "alternate_name": "4<em>H</em>-1-Benzopyran-4-one, 5-hydroxy-6-methoxy-3-(4-methoxyphenyl)-7-[(6-<em>O</em>-β-<span class=\"text-smallcaps\">D</smallcap>-xylopyranosyl-β-<smallcap>D</span>-glucopyranosyl)oxy]-;5-Hydroxy-6-methoxy-3-(4-methoxyphenyl)-7-[(6-<em>O</em>-β-<span class=\"text-smallcaps\">D</smallcap>-xylopyranosyl-β-<smallcap>D</span>-glucopyranosyl)oxy]-4<em>H</em>-1-benzopyran-4-one;Kakkalide",
    "duplicated_cas_no": "",
    "SMILES": "O=C1C=2C(=CC(O[C@@H]3O[C@H](CO[C@H]4[C@H](O)[C@@H](O)[C@H](O)CO4)[C@@H](O)[C@H](O)[C@H]3O)=C(OC)C2O)OC=C1C5=CC=C(OC)C=C5",
    "meta_data": {
        "InChI": "InChI=1S/C28H32O15/c1-37-12-5-3-11(4-6-12)13-8-39-15-7-16(26(38-2)22(33)18(15)19(13)30)42-28-25(36)23(34)21(32)17(43-28)10-41-27-24(35)20(31)14(29)9-40-27/h3-8,14,17,20-21,23-25,27-29,31-36H,9-10H2,1-2H3/t14-,17-,20+,21-,23+,24-,25-,27+,28-/m1/s1",
        "InChIKey": null,
        "Canonical SMILES": "O=C1C(=COC=2C=C(OC3OC(COC4OCC(O)C(O)C4O)C(O)C(O)C3O)C(OC)=C(O)C12)C=5C=CC(OC)=CC5",
        "Molecular Formula": "C<sub>28</sub>H<sub>32</sub>O<sub>15</sub>",
        "Molecular Mass": "608.54",
        "Melting Point": "250-252 °C"
    }
}