{
    "cas_no": "7439-97-6",
    "key_name": "Mercury",
    "cn_name": "汞;水银;",
    "alternate_name": "Mercury;Quicksilver;Mercury element;Hydrargyrum;Blue ointment;Diluted mercurial ointment;Mercurius vivus;Mercurius;Mercurius solubilis;MeSH ID: D008628",
    "duplicated_cas_no": "8030-64-6;8031-27-4;51887-47-9;92355-34-5;92786-62-4;123720-03-6;149038-91-5",
    "SMILES": "[Hg]",
    "meta_data": {
        "InChI": "InChI=1S/Hg",
        "InChIKey": null,
        "Canonical SMILES": "[Hg]",
        "Molecular Formula": "Hg",
        "Molecular Mass": "",
        "Boiling Point": "356.73 °C",
        "Melting Point": "-38.87 °C",
        "Density": "13.534 g/cm³ @ Temp: 25 °C"
    }
}