{
    "cas_no": "76008-73-6",
    "key_name": "Ethyl 5-bromo-2-chlorobenzoate",
    "cn_name": "5-溴-2-氯苯甲酸乙酯;",
    "alternate_name": "Benzoic acid, 5-bromo-2-chloro-, ethyl ester;Ethyl 5-bromo-2-chlorobenzoate;5-Bromo-2-chlorobenzoic acid ethyl ester",
    "duplicated_cas_no": "",
    "SMILES": "C(OCC)(=O)C1=C(Cl)C=CC(Br)=C1",
    "meta_data": {
        "InChI": "InChI=1S/C9H8BrClO2/c1-2-13-9(12)7-5-6(10)3-4-8(7)11/h3-5H,2H2,1H3",
        "InChIKey": null,
        "Canonical SMILES": "O=C(OCC)C1=CC(Br)=CC=C1Cl",
        "Molecular Formula": "C<sub>9</sub>H<sub>8</sub>BrClO<sub>2</sub>",
        "Molecular Mass": "263.52",
        "Boiling Point": "128-130 °C @ Press: 1 Torr"
    }
}