{
    "cas_no": "59004-18-1",
    "key_name": "1-Propanol, 3-(trimethoxysilyl)-, 1-acetate",
    "cn_name": "乙酰氧基丙基三甲氧基硅烷;",
    "alternate_name": "1-Propanol, 3-(trimethoxysilyl)-, 1-acetate;1-Propanol, 3-(trimethoxysilyl)-, acetate;Acetoxypropyltrimethoxysilane;3-Acetoxypropyltrimethoxysilane;3-Trimethoxysilylpropyl acetate;SIA 0100.0;SCA-R 75M;KH 5775",
    "duplicated_cas_no": "1208260-16-5",
    "SMILES": "[Si](CCCOC(C)=O)(OC)(OC)OC",
    "meta_data": {
        "InChI": "InChI=1S/C8H18O5Si/c1-8(9)13-6-5-7-14(10-2,11-3)12-4/h5-7H2,1-4H3",
        "InChIKey": null,
        "Canonical SMILES": "O=C(OCCC[Si](OC)(OC)OC)C",
        "Molecular Formula": "C<sub>8</sub>H<sub>18</sub>O<sub>5</sub>Si",
        "Molecular Mass": "222.31",
        "Boiling Point": "92 °C @ Press: 2 Torr",
        "Density": "1.062 g/cm³"
    }
}