{
    "cas_no": "1149-24-2",
    "key_name": "2,6-Dimethyl-3,5-pyridinedicarboxylic acid diethyl ester",
    "cn_name": "2,6-二甲基嘧啶-3,5-二羧酸二乙酯;2,6-二甲基吡啶-3,5-二甲酸二乙酯;",
    "alternate_name": "3,5-Pyridinedicarboxylic acid, 2,6-dimethyl-, 3,5-diethyl ester;3,5-Pyridinedicarboxylic acid, 2,6-dimethyl-, diethyl ester;Diethyl 2,6-dimethyl-3,5-pyridinedicarboxylate;2,6-Dimethyl-3,5-pyridinedicarboxylic acid diethyl ester;3,5-Di(ethoxycarbonyl)-2,6-dimethylpyridine;2,6-Dimethyl-3,5-dicarbethoxypyridine;3,5-Bis(ethoxycarbonyl)-2,6-dimethylpyridine;2,6-Dimethyl-3,5-di(ethoxycarbonyl)pyridine;3,5-Dicarboethoxy-2,6-dimethylpyridine;3,5-Dicarbethoxy-2,6-dimethylpyridine;NSC 58515;Diethyl 2,6-dimethyl-3,5-dicarboxylate;3,5-Diethyl 2,6-dimethylpyridine-3,5-dicarboxylate",
    "duplicated_cas_no": "",
    "SMILES": "C(OCC)(=O)C=1C=C(C(OCC)=O)C(C)=NC1C",
    "meta_data": {
        "InChI": "InChI=1S/C13H17NO4/c1-5-17-12(15)10-7-11(13(16)18-6-2)9(4)14-8(10)3/h7H,5-6H2,1-4H3",
        "InChIKey": null,
        "Canonical SMILES": "O=C(OCC)C=1C=C(C(=O)OCC)C(=NC1C)C",
        "Molecular Formula": "C<sub>13</sub>H<sub>17</sub>NO<sub>4</sub>",
        "Molecular Mass": "251.28",
        "Melting Point": "70-72 °C"
    }
}