{
    "cas_no": "1783-81-9",
    "key_name": "3-(Methylthio)benzenamine",
    "cn_name": "3-氨基茴香硫醚;间氨基茴香硫醚;",
    "alternate_name": "Benzenamine, 3-(methylthio)-;Aniline, <em>m</em>-(methylthio)-;3-(Methylthio)benzenamine;<em>m</em>-Aminophenyl methyl sulfide;<em>m</em>-(Methylthio)aniline;<em>m</em>-Aminothioanisole;3-(Methylthio)aniline;3-Methylmercaptoaniline;3-Aminothioanisole;NSC 66274;3-(Methylsulfanyl)phenylamine;3-(Methylsulfanyl)aniline;3-Aminophenyl methyl sulfide",
    "duplicated_cas_no": "",
    "SMILES": "S(C)C1=CC(N)=CC=C1",
    "meta_data": {
        "InChI": "InChI=1S/C7H9NS/c1-9-7-4-2-3-6(8)5-7/h2-5H,8H2,1H3",
        "InChIKey": null,
        "Canonical SMILES": "S(C1=CC=CC(N)=C1)C",
        "Molecular Formula": "C<sub>7</sub>H<sub>9</sub>NS",
        "Molecular Mass": "139.22",
        "Boiling Point": "163-165 °C"
    }
}