{
    "cas_no": "1195-52-4",
    "key_name": "3-(3-Thienyl)acrylic acid",
    "cn_name": "3-(3-噻吩基)丙烯酸;3-(3-噻吩基)丙烯酸;",
    "alternate_name": "2-Propenoic acid, 3-(3-thienyl)-;3-Thiopheneacrylic acid;3-(3-Thienyl)-2-propenoic acid;3-(3-Thienyl)acrylic acid;3-(Thiophene-3-yl)propenoic acid;3-(Thiophene-3-yl)acrylic acid;3-(3-Thienyl)propenoic acid;3-(Thien-3-yl)acrylic acid",
    "duplicated_cas_no": "",
    "SMILES": "C(=CC(O)=O)C=1C=CSC1",
    "meta_data": {
        "InChI": "InChI=1S/C7H6O2S/c8-7(9)2-1-6-3-4-10-5-6/h1-5H,(H,8,9)",
        "InChIKey": null,
        "Canonical SMILES": "O=C(O)C=CC1=CSC=C1",
        "Molecular Formula": "C<sub>7</sub>H<sub>6</sub>O<sub>2</sub>S",
        "Molecular Mass": "154.19",
        "Melting Point": "149-150 °C"
    }
}