{
    "cas_no": "7681-65-4",
    "key_name": "Cuprous iodide",
    "cn_name": "碘化亚铜;",
    "alternate_name": "Copper iodide (CuI);Cuprous iodide;Copper monoiodide;Copper(I) iodide;Cuprous iodide (CuI);Copper(1+) iodide;TH-V;Copper iodide (Cu<sub>0.5</sub>I<sub>0.5</sub>);C 20150",
    "duplicated_cas_no": "12527-63-8;40452-11-7;265669-02-1;2490708-39-7",
    "SMILES": "[Cu]I",
    "meta_data": {
        "InChI": "InChI=1S/Cu.HI/h;1H/q+1;/p-1",
        "InChIKey": null,
        "Canonical SMILES": "[Cu]I",
        "Molecular Formula": "CuI",
        "Molecular Mass": "",
        "Boiling Point": "~1290 °C (approx)",
        "Melting Point": "606 °C",
        "Density": "5.67 g/cm³"
    }
}