{
    "cas_no": "925-15-5",
    "key_name": "Dipropyl succinate",
    "cn_name": "丁二酸二丙酯;",
    "alternate_name": "Butanedioic acid, 1,4-dipropyl ester;Succinic acid, dipropyl ester;Butanedioic acid, dipropyl ester;Di-<em>n</em>-propyl succinate;Dipropyl succinate",
    "duplicated_cas_no": "",
    "SMILES": "C(CCC(OCCC)=O)(OCCC)=O",
    "meta_data": {
        "InChI": "InChI=1S/C10H18O4/c1-3-7-13-9(11)5-6-10(12)14-8-4-2/h3-8H2,1-2H3",
        "InChIKey": null,
        "Canonical SMILES": "O=C(OCCC)CCC(=O)OCCC",
        "Molecular Formula": "C<sub>10</sub>H<sub>18</sub>O<sub>4</sub>",
        "Molecular Mass": "202.25",
        "Boiling Point": "250.8 °C",
        "Melting Point": "-5.9 °C"
    }
}