{
    "cas_no": "7774-74-5",
    "key_name": "2-Thiophenethiol",
    "cn_name": "2-噻吩硫醇;",
    "alternate_name": "2-Thiophenethiol;2-Mercaptothiophene;α-Thienyl mercaptan;2-Thienylmercaptan;2-Thienylthiol",
    "duplicated_cas_no": "",
    "SMILES": "SC1=CC=CS1",
    "meta_data": {
        "InChI": "InChI=1S/C4H4S2/c5-4-2-1-3-6-4/h1-3,5H",
        "InChIKey": null,
        "Canonical SMILES": "SC=1SC=CC1",
        "Molecular Formula": "C<sub>4</sub>H<sub>4</sub>S<sub>2</sub>",
        "Molecular Mass": "116.20",
        "Boiling Point": "171.1 °C",
        "Density": "1.2454 g/cm³ @ Temp: 20 °C"
    }
}