{
    "cas_no": "2018-61-3",
    "key_name": "<em>N</em>-Acetyl-<span class=\"text-smallcaps\">L</span>-phenylalanine",
    "cn_name": "N-乙酰-L-苯丙氨酸;",
    "alternate_name": "<span class=\"text-smallcaps\">L</span>-Phenylalanine, <em>N</em>-acetyl-;Alanine, <em>N</em>-acetyl-3-phenyl-, <span class=\"text-smallcaps\">L</span>-;<em>N</em>-Acetyl-<span class=\"text-smallcaps\">L</span>-phenylalanine;<span class=\"text-smallcaps\">L</span>-<em>N</em>-Acetylphenylalanine;Acetyl-<span class=\"text-smallcaps\">L</span>-phenylalanine;<em>N</em>-Acetylphenylalanine;Acetylphenylalanine;<em>N</em>-Acetyl-(<em>S</em>)-phenylalanine;(+)-<em>N</em>-Acetylphenylalanine;<span class=\"text-smallcaps\">L</span>-(+)-<em>N</em>-Acetylphenylalanine;(<em>S</em>)-2-(Acetylamino)-3-phenylpropanoic acid;(+)-<em>N</em>-Acetyl-<span class=\"text-smallcaps\">L</span>-phenylalanine;NSC 45699;(2<em>S</em>)-2-(Acetylamino)-3-phenylpropanoic acid;(2S)-2-Acetamido-3-phenylpropanoic acid;(<em>S</em>)-2-Acetamido-3-phenylpropanoic acid",
    "duplicated_cas_no": "",
    "SMILES": "[C@@H](CC1=CC=CC=C1)(NC(C)=O)C(O)=O",
    "meta_data": {
        "InChI": "InChI=1S/C11H13NO3/c1-8(13)12-10(11(14)15)7-9-5-3-2-4-6-9/h2-6,10H,7H2,1H3,(H,12,13)(H,14,15)/t10-/m0/s1",
        "InChIKey": null,
        "Canonical SMILES": "O=C(O)C(NC(=O)C)CC=1C=CC=CC1",
        "Molecular Formula": "C<sub>11</sub>H<sub>13</sub>NO<sub>3</sub>",
        "Molecular Mass": "207.23",
        "Melting Point": "171-173 °C"
    }
}