{
    "cas_no": "75-83-2",
    "key_name": "2,2-Dimethylbutane",
    "cn_name": "2,2-二甲基丁烷;新己烷;",
    "alternate_name": "Butane, 2,2-dimethyl-;2,2-Dimethylbutane;Neohexane;3,3-Dimethylbutane;NSC 74126;<em>tert</em>-Butylethane",
    "duplicated_cas_no": "",
    "SMILES": "C(CC)(C)(C)C",
    "meta_data": {
        "InChI": "InChI=1S/C6H14/c1-5-6(2,3)4/h5H2,1-4H3",
        "InChIKey": null,
        "Canonical SMILES": "CCC(C)(C)C",
        "Molecular Formula": "C<sub>6</sub>H<sub>14</sub>",
        "Molecular Mass": "86.18",
        "Boiling Point": "49.7 °C @ Press: 760 Torr",
        "Melting Point": "-99.9 °C",
        "Density": "0.6485 g/cm³ @ Temp: 20 °C"
    }
}