{
    "cas_no": "518048-05-0",
    "key_name": "Raltegravir",
    "cn_name": "雷特格韦;N-(2-(4-(4-氟苄基氨基甲酰基)-5-羟基-1-甲基-6-氧代-1,6-二氢嘧啶-2-基)丙-2-基)-5-甲基-1,3,4-;",
    "alternate_name": "4-Pyrimidinecarboxamide, <em>N</em>-[(4-fluorophenyl)methyl]-1,6-dihydro-5-hydroxy-1-methyl-2-[1-methyl-1-[[(5-methyl-1,3,4-oxadiazol-2-yl)carbonyl]amino]ethyl]-6-oxo-;<em>N</em>-[(4-Fluorophenyl)methyl]-1,6-dihydro-5-hydroxy-1-methyl-2-[1-methyl-1-[[(5-methyl-1,3,4-oxadiazol-2-yl)carbonyl]amino]ethyl]-6-oxo-4-pyrimidinecarboxamide;<em>N</em>-(4-Fluorobenzyl)-5-hydroxy-1-methyl-2-[1-methyl-1-[[(5-methyl-1,3,4-oxadiazol-2-yl)carbonyl]amino]ethyl]-6-oxo-1,6-dihydropyrimidine-4-carboxamide;Raltegravir;5-Hydroxy-2-[1-[[(5-Methyl-1,3,4-oxadiazol-2-yl)carbonyl]amino]-1-methylethyl]-<em>N</em>-(4-fluorobenzyl)-1-methyl-6-oxo-1,6-dihydropyrimidine-4-carboxamide;RAL",
    "duplicated_cas_no": "",
    "SMILES": "C(NC(=O)C1=NN=C(C)O1)(C)(C)C2=NC(C(NCC3=CC=C(F)C=C3)=O)=C(O)C(=O)N2C",
    "meta_data": {
        "InChI": "InChI=1S/C20H21FN6O5/c1-10-25-26-17(32-10)16(30)24-20(2,3)19-23-13(14(28)18(31)27(19)4)15(29)22-9-11-5-7-12(21)8-6-11/h5-8,28H,9H2,1-4H3,(H,22,29)(H,24,30)",
        "InChIKey": null,
        "Canonical SMILES": "O=C(NC(C1=NC(C(=O)NCC2=CC=C(F)C=C2)=C(O)C(=O)N1C)(C)C)C3=NN=C(O3)C",
        "Molecular Formula": "C<sub>20</sub>H<sub>21</sub>FN<sub>6</sub>O<sub>5</sub>",
        "Molecular Mass": "444.42",
        "Melting Point": "216 °C"
    }
}