{
    "cas_no": "10471-28-0",
    "key_name": "Dodecanedioic acid, 1,12-diethyl ester",
    "cn_name": "十二烷酸二乙酯;",
    "alternate_name": "Dodecanedioic acid, 1,12-diethyl ester;Dodecanedioic acid, diethyl ester;Diethyl dodecanedioate;Diethyl 1,10-decanedicarboxylate;Diethyl 1,12-dodecanedioate;NSC 137161",
    "duplicated_cas_no": "",
    "SMILES": "C(CCCCCCCCCCC(OCC)=O)(OCC)=O",
    "meta_data": {
        "InChI": "InChI=1S/C16H30O4/c1-3-19-15(17)13-11-9-7-5-6-8-10-12-14-16(18)20-4-2/h3-14H2,1-2H3",
        "InChIKey": null,
        "Canonical SMILES": "O=C(OCC)CCCCCCCCCCC(=O)OCC",
        "Molecular Formula": "C<sub>16</sub>H<sub>30</sub>O<sub>4</sub>",
        "Molecular Mass": "286.41",
        "Boiling Point": "160-165 °C @ Press: 1.5 Torr",
        "Melting Point": "15.5-16.5 °C"
    }
}