{
    "cas_no": "834-28-6",
    "key_name": "Phenformin hydrochloride",
    "cn_name": "盐酸苯乙福明;盐酸苯乙双胍;",
    "alternate_name": "Imidodicarbonimidic diamide, <em>N</em>-(2-phenylethyl)-, hydrochloride (1:1);Biguanide, 1-phenethyl-, monohydrochloride;Imidodicarbonimidic diamide, <em>N</em>-(2-phenylethyl)-, monohydrochloride;Phenethylbiguanide hydrochloride;1-Phenethylbiguanide hydrochloride;Phenformin hydrochloride;<em>N</em>′-β-Phenylethylbiguanide-hydrochloride;α-Phenethylbiguanide hydrochloride;1-β-Phenylethylbiguanide hydrochloride;<em>N</em>-Phenethylbiguanide hydrochloride;Dipar;1-(2-Phenylethyl)biguanide hydrochloride;Dibein;Lentobetic;Azucaps;Debinyl;Feguanide;Glucopostin;Debeone DT;DBI-TD;Meltrol;Insoral;Normoglucina",
    "duplicated_cas_no": "21228-47-7",
    "SMILES": "C(CNC(NC(=N)N)=N)C1=CC=CC=C1.Cl",
    "meta_data": {
        "InChI": "InChI=1S/C10H15N5.ClH/c11-9(12)15-10(13)14-7-6-8-4-2-1-3-5-8;/h1-5H,6-7H2,(H6,11,12,13,14,15);1H",
        "InChIKey": null,
        "Canonical SMILES": "Cl.N=C(N)NC(=N)NCCC=1C=CC=CC1",
        "Molecular Formula": "C<sub>10</sub>H<sub>15</sub>N<sub>5</sub>.ClH",
        "Molecular Mass": "",
        "Melting Point": "175-178 °C"
    }
}