{
    "cas_no": "22980-09-2",
    "key_name": "α-Oxo-1<em>H</em>-indole-3-acetyl chloride",
    "cn_name": "吲哚-3-乙醛酰氯;",
    "alternate_name": "1<em>H</em>-Indole-3-acetyl chloride, α-oxo-;Indole-3-glyoxyloyl chloride;α-Oxo-1<em>H</em>-indole-3-acetyl chloride;3-Indoleglyoxylyl chloride;2-(3-Indolyl)-2-oxoacetyl chloride;NSC 128332;(1<em>H</em>-Indol-3-yl)oxoacetyl chloride;2-(1<em>H</em>-Indol-3-yl)-2-oxoacetyl chloride;3-Indolylglyoxylyl chloride",
    "duplicated_cas_no": "",
    "SMILES": "C(C(Cl)=O)(=O)C=1C=2C(NC1)=CC=CC2",
    "meta_data": {
        "InChI": "InChI=1S/C10H6ClNO2/c11-10(14)9(13)7-5-12-8-4-2-1-3-6(7)8/h1-5,12H",
        "InChIKey": null,
        "Canonical SMILES": "O=C(Cl)C(=O)C1=CNC=2C=CC=CC21",
        "Molecular Formula": "C<sub>10</sub>H<sub>6</sub>ClNO<sub>2</sub>",
        "Molecular Mass": "207.61",
        "Melting Point": "129 °C"
    }
}