{
    "cas_no": "103788-61-0",
    "key_name": "4-(Chloromethyl)-5-methyl-2-phenyl-1,3-oxazole",
    "cn_name": null,
    "alternate_name": "Oxazole, 4-(chloromethyl)-5-methyl-2-phenyl-;4-(Chloromethyl)-5-methyl-2-phenyloxazole;4-Chloromethyl-5-methyl-2-phenyloxazole;4-(Chloromethyl)-5-methyl-2-phenyl-1,3-oxazole;5-Methyl-2-phenyl-4-(chloromethyl)oxazole;4-Chloromethyl-2-phenyl-5-methyloxazole;[5-Methyl-2-phenyloxazol-4-yl]methyl chloride",
    "duplicated_cas_no": "",
    "SMILES": "C(Cl)C=1N=C(OC1C)C2=CC=CC=C2",
    "meta_data": {
        "InChI": "InChI=1S/C11H10ClNO/c1-8-10(7-12)13-11(14-8)9-5-3-2-4-6-9/h2-6H,7H2,1H3",
        "InChIKey": null,
        "Canonical SMILES": "ClCC=1N=C(OC1C)C=2C=CC=CC2",
        "Molecular Formula": "C<sub>11</sub>H<sub>10</sub>ClNO",
        "Molecular Mass": "207.66",
        "Melting Point": "81-83 °C"
    }
}