{
    "cas_no": "931-40-8",
    "key_name": "Glycerol carbonate",
    "cn_name": null,
    "alternate_name": "1,3-Dioxolan-2-one, 4-(hydroxymethyl)-;Carbonic acid, cyclic (hydroxymethyl)ethylene ester;Carbonic acid, (hydroxymethyl)ethylene ester;4-(Hydroxymethyl)-1,3-dioxolan-2-one;Glycerol cyclic 1,2-carbonate;Glycerol carbonate;3-Hydroxypropylene carbonate;Racemic glycerol 1,2-carbonate;Glycerin carbonate;NSC 60535;Jeffsol GC;Glycerol 1,2-carbonate;(2-Oxo-1,3-dioxolan-4-yl)methanol;2-Oxo-1,3-dioxolane-4-methanol;4-Methylolethylene carbonate;Glycerine carbonate;4-Hydroxymethyl-1,3-dioxolane-2-one;3-Hydroxypropene carbonate",
    "duplicated_cas_no": "63121-19-7",
    "SMILES": "C(O)C1OC(=O)OC1",
    "meta_data": {
        "InChI": "InChI=1S/C4H6O4/c5-1-3-2-7-4(6)8-3/h3,5H,1-2H2",
        "InChIKey": null,
        "Canonical SMILES": "O=C1OCC(O1)CO",
        "Molecular Formula": "C<sub>4</sub>H<sub>6</sub>O<sub>4</sub>",
        "Molecular Mass": "118.09",
        "Boiling Point": "130 °C @ Press: 0.08 Torr",
        "Density": "1.42 g/cm³"
    }
}