{
    "cas_no": "6780-49-0",
    "key_name": "Ethyl <em>N</em>-phenylmethanimidate",
    "cn_name": "N-苯基亚胺甲基乙基醚;",
    "alternate_name": "Methanimidic acid, <em>N</em>-phenyl-, ethyl ester;Formimidic acid, <em>N</em>-phenyl-, ethyl ester;Ethyl <em>N</em>-phenylmethanimidate;Ethyl <em>N</em>-phenylformimidate;Ethyl isoformanilide;<em>N</em>-(Ethoxymethylene)aniline;<em>N</em>-Phenylformimidic acid ethyl ester",
    "duplicated_cas_no": "",
    "SMILES": "N(=COCC)C1=CC=CC=C1",
    "meta_data": {
        "InChI": "InChI=1S/C9H11NO/c1-2-11-8-10-9-6-4-3-5-7-9/h3-8H,2H2,1H3",
        "InChIKey": null,
        "Canonical SMILES": "N(=COCC)C=1C=CC=CC1",
        "Molecular Formula": "C<sub>9</sub>H<sub>11</sub>NO",
        "Molecular Mass": "149.19",
        "Boiling Point": "214 °C"
    }
}