{
    "cas_no": "113100-53-1",
    "key_name": "1-Methyl-3-(trifluoromethyl)-1<em>H</em>-pyrazole-4-carboxylic acid",
    "cn_name": null,
    "alternate_name": "1<em>H</em>-Pyrazole-4-carboxylic acid, 1-methyl-3-(trifluoromethyl)-;1-Methyl-3-(trifluoromethyl)-1<em>H</em>-pyrazole-4-carboxylic acid;1-Methyl-3-(trifluoromethyl)pyrazole-4-carboxylic acid;3-(Trifluoromethyl)-1-methyl-1<em>H</em>-pyrazole-4-carboxylic acid",
    "duplicated_cas_no": "",
    "SMILES": "C(O)(=O)C=1C(C(F)(F)F)=NN(C)C1",
    "meta_data": {
        "InChI": "InChI=1S/C6H5F3N2O2/c1-11-2-3(5(12)13)4(10-11)6(7,8)9/h2H,1H3,(H,12,13)",
        "InChIKey": null,
        "Canonical SMILES": "O=C(O)C1=CN(N=C1C(F)(F)F)C",
        "Molecular Formula": "C<sub>6</sub>H<sub>5</sub>F<sub>3</sub>N<sub>2</sub>O<sub>2</sub>",
        "Molecular Mass": "194.11",
        "Melting Point": "200-201 °C"
    }
}