{
    "cas_no": "101-01-9",
    "key_name": "<em>N</em>,N′,<em>N</em>′′-Triphenylguanidine",
    "cn_name": "N,N\",N\"\"-三苯基胍;三苯基胍;N,N\",N\"\"-三苯基胍;Α-三苯胍;",
    "alternate_name": "Guanidine, <em>N</em>,<em>N</em>′,<em>N</em>′′-triphenyl-;Guanidine, 1,2,3-triphenyl-;<em>N</em>,<em>N</em>′,<em>N</em>′′-Triphenylguanidine;1,2,3-Triphenylguanidine;<em>N</em>,N′,<em>N</em>′′-Triphenylguanidine;<em>sym</em>-Triphenylguanidine;NSC 4051;Accelerator TPG",
    "duplicated_cas_no": "1323-16-6;51096-04-9",
    "SMILES": "C(=NC1=CC=CC=C1)(NC2=CC=CC=C2)NC3=CC=CC=C3",
    "meta_data": {
        "InChI": "InChI=1S/C19H17N3/c1-4-10-16(11-5-1)20-19(21-17-12-6-2-7-13-17)22-18-14-8-3-9-15-18/h1-15H,(H2,20,21,22)",
        "InChIKey": null,
        "Canonical SMILES": "N(C=1C=CC=CC1)=C(NC=2C=CC=CC2)NC=3C=CC=CC3",
        "Molecular Formula": "C<sub>19</sub>H<sub>17</sub>N<sub>3</sub>",
        "Molecular Mass": "287.36",
        "Melting Point": "146.5 °C"
    }
}