{
    "cas_no": "1121-76-2",
    "key_name": "Pyridine, 4-chloro-, 1-oxide",
    "cn_name": "4-氯吡啶N-氧化物;",
    "alternate_name": "Pyridine, 4-chloro-, 1-oxide;Pyridine, 4-chloro-, oxide;4-Chloropyridine <em>N</em>-oxide;TH 285N;4-Chloropyridine 1-oxide;4-Chloropyridine oxide;NSC 5074",
    "duplicated_cas_no": "",
    "SMILES": "ClC=1C=CN(=O)=CC1",
    "meta_data": {
        "InChI": "InChI=1S/C5H4ClNO/c6-5-1-3-7(8)4-2-5/h1-4H",
        "InChIKey": null,
        "Canonical SMILES": "O=N1=CC=C(Cl)C=C1",
        "Molecular Formula": "C<sub>5</sub>H<sub>4</sub>ClNO",
        "Molecular Mass": "129.54",
        "Melting Point": "187-189 °C"
    }
}