{
    "cas_no": "78-74-0",
    "key_name": "1,1,2-Tribromoethane",
    "cn_name": "1,1,2-三溴丁烷;三溴化乙烯;1,1,2-tribromo-ethan;ethane,1,1,2-tribromo-;Tribromoethane;",
    "alternate_name": "Ethane, 1,1,2-tribromo-;1,1,2-Tribromoethane",
    "duplicated_cas_no": "",
    "SMILES": "C(CBr)(Br)Br",
    "meta_data": {
        "InChI": "InChI=1S/C2H3Br3/c3-1-2(4)5/h2H,1H2",
        "InChIKey": null,
        "Canonical SMILES": "BrCC(Br)Br",
        "Molecular Formula": "C<sub>2</sub>H<sub>3</sub>Br<sub>3</sub>",
        "Molecular Mass": "266.76",
        "Boiling Point": "188.93 °C",
        "Melting Point": "-29.3 °C",
        "Density": "2.62205 g/cm³ @ Temp: 20 °C"
    }
}