{
    "cas_no": "23110-15-8",
    "key_name": "Fumagillin",
    "cn_name": null,
    "alternate_name": "2,4,6,8-Decatetraenedioic acid, 1-[(3<em>R</em>,4<em>S</em>,5<em>S</em>,6<em>R</em>)-5-methoxy-4-[(2<em>R</em>,3<em>R</em>)-2-methyl-3-(3-methyl-2-buten-1-yl)-2-oxiranyl]-1-oxaspiro[2.5]oct-6-yl] ester, (2<em>E</em>,4<em>E</em>,6<em>E</em>,8<em>E</em>)-;2,4,6,8-Decatetraenedioic acid, mono[4-(1,2-epoxy-1,5-dimethyl-4-hexenyl)-5-methoxy-1-oxaspiro[2.5]oct-6-yl] ester;2,4,6,8-Decatetraenedioic acid, mono[5-methoxy-4-[2-methyl-3-(3-methyl-2-butenyl)oxiranyl]-1-oxaspiro[2.5]oct-6-yl] ester, [3<em>R</em>-[3α,4α(2<em>R</em>*,3<em>R</em>*),5β,6β(2<em>E</em>,4<em>E</em>,6<em>E</em>,8<em>E</em>)]]-;2,4,6,8-Decatetraenedioic acid 4-(1,2-epoxy-1,5-dimethyl-4-hexenyl)-5-methoxy-1-oxaspiro[2.5]oct-6-yl ester;2,4,6,8-Decatetraenedioic acid, mono[(3<em>R</em>,4<em>S</em>,5<em>S</em>,6<em>R</em>)-5-methoxy-4-[(2<em>R</em>,3<em>R</em>)-2-methyl-3-(3-methyl-2-butenyl)oxiranyl]-1-oxaspiro[2.5]oct-6-yl] ester, (2<em>E</em>,4<em>E</em>,6<em>E</em>,8<em>E</em>)-;1-Oxaspiro[2.5]octane, 2,4,6,8-decatetraenedioic acid deriv.;Fumidil;Fumagillin;Fumagillin DCH;Amebacilin;Fugillin;Fumadil B;(-)-Fumagillin;NSC 9168;ZGN 201",
    "duplicated_cas_no": "106215-84-3;297-95-0;47721-00-6;47721-01-7;746540-00-1",
    "SMILES": "C[C@@]1([C@@]2([C@@]3(CO3)CC[C@@H](OC(/C=C/C=C/C=C/C=C/C(O)=O)=O)[C@H]2OC)[H])[C@@H](CC=C(C)C)O1",
    "meta_data": {
        "InChI": "InChI=1S/C26H34O7/c1-18(2)13-14-20-25(3,33-20)24-23(30-4)19(15-16-26(24)17-31-26)32-22(29)12-10-8-6-5-7-9-11-21(27)28/h5-13,19-20,23-24H,14-17H2,1-4H3,(H,27,28)/b7-5+,8-6+,11-9+,12-10+/t19-,20-,23-,24-,25+,26+/m1/s1",
        "InChIKey": null,
        "Canonical SMILES": "O=C(O)C=CC=CC=CC=CC(=O)OC1CCC2(OC2)C(C1OC)C3(OC3CC=C(C)C)C",
        "Molecular Formula": "C<sub>26</sub>H<sub>34</sub>O<sub>7</sub>",
        "Molecular Mass": "458.54",
        "Melting Point": "194.5 °C",
        "Density": "1.172 g/cm³"
    }
}