{
    "cas_no": "41999-70-6",
    "key_name": "2-[(3-Aminopropyl)methylamino]ethanol",
    "cn_name": "N-甲基-N-(2-羟乙基)-1,3-丙二胺;",
    "alternate_name": "Ethanol, 2-[(3-aminopropyl)methylamino]-;2-[(3-Aminopropyl)methylamino]ethanol;<em>N</em>-(2-Hydroxyethyl)-<em>N</em>-methyl-1,3-propanediamine;<em>N</em>-Methyl-<em>N</em>-(3-aminopropyl)ethanolamine;<em>N</em>-(2-Hydroxyethyl)-<em>N</em>-methyl-1,3-propylenediamine;N-(2-hydroxyethyl)-N-methyl-1,3-propylenediamine;<em>N</em>-(3-Aminopropyl)-<em>N</em>-(2-hydroxyethyl)methylamine;<em>N</em>-Aminopropyl-<em>N</em>-(2-hydroxyethyl)-<em>N</em>-methylamine;<em>N</em>-Methyl-<em>N</em>-(2-hydroxyethyl)propanediamine;(3-Aminopropyl)(2-hydroxyethyl)methylamine;<em>N</em>-(3-Aminopropyl)-<em>N</em>-methylethanolamine;<em>N</em>-(3-Aminopropyl)-<em>N</em>-(2-hydroxyethyl)-<em>N</em>-methylamine;<em>N</em>-Hydroxyethyl-<em>N</em>-methyl-1,3-propanediamine;<em>N</em>-Methyl-<em>N</em>-(2-hydroxyethyl)-<em>N</em>-(3-aminopropyl)amine;<em>N</em>-(2-Hydroxyethyl)-<em>N</em>-(3-aminopropyl)-<em>N</em>-methylamine;<em>N</em>-Methyl-<em>N</em>-(2-hydroxyethyl)-1,3-propanediamine;2-[(3-Aminopropyl)(methyl)amino]ethan-1-ol",
    "duplicated_cas_no": "",
    "SMILES": "N(CCCN)(CCO)C",
    "meta_data": {
        "InChI": "InChI=1S/C6H16N2O/c1-8(5-6-9)4-2-3-7/h9H,2-7H2,1H3",
        "InChIKey": null,
        "Canonical SMILES": "OCCN(C)CCCN",
        "Molecular Formula": "C<sub>6</sub>H<sub>16</sub>N<sub>2</sub>O",
        "Molecular Mass": "132.20",
        "Boiling Point": "123-125 °C @ Press: 15 Torr",
        "Density": "0.9793 g/cm³ @ Temp: 25 °C"
    }
}