{
    "cas_no": "64-47-1",
    "key_name": "Pyrrolo[2,3-<em>b</em>]indol-5-ol, 1,2,3,3a,8,8a-hexahydro-1,3a,8-trimethyl-, 5-(<em>N</em>-methylcarbamate), (3a<em>S</em>,8a<em>R</em>)-, sulfate (2:1)",
    "cn_name": "硫酸依色林;",
    "alternate_name": "Pyrrolo[2,3-<em>b</em>]indol-5-ol, 1,2,3,3a,8,8a-hexahydro-1,3a,8-trimethyl-, 5-(<em>N</em>-methylcarbamate), (3a<em>S</em>,8a<em>R</em>)-, sulfate (2:1);Physostigmine, sulfate (2:1);Pyrrolo[2,3-<em>b</em>]indol-5-ol, 1,2,3,3a,8,8a-hexahydro-1,3a,8-trimethyl-, methylcarbamate (ester), (3a<em>S</em>-<em>cis</em>)-, sulfate (2:1) (salt);Pyrrolo[2,3-<em>b</em>]indol-5-ol, 1,2,3,3a,8,8a-hexahydro-1,3a,8-trimethyl-, methylcarbamate (ester), (3a<em>S</em>,8a<em>R</em>)-, sulfate (2:1) (salt);Eserine sulfate;Eserine sulphate;Physostigmine sulfate;Physostigmine sulphate;Physostigmine hemisulfate",
    "duplicated_cas_no": "11036-67-2;11041-29-5",
    "SMILES": "S(=O)(=O)(O)O.C[C@]12C=3C(N(C)[C@]1(N(C)CC2)[H])=CC=C(OC(NC)=O)C3",
    "meta_data": {
        "InChI": "InChI=1S/C15H21N3O2.H2O4S/c1-15-7-8-17(3)13(15)18(4)12-6-5-10(9-11(12)15)20-14(19)16-2;1-5(2,3)4/h5-6,9,13H,7-8H2,1-4H3,(H,16,19);(H2,1,2,3,4)/t13-,15+;/m1./s1",
        "InChIKey": null,
        "Canonical SMILES": "O=C(OC1=CC=C2C(=C1)C3(C)CCN(C)C3N2C)NC.O=S(=O)(O)O",
        "Molecular Formula": "C<sub>15</sub>H<sub>21</sub>N<sub>3</sub>O<sub>2</sub>.<sup>1</sup>/<sub>2</sub>H<sub>2</sub>O<sub>4</sub>S",
        "Molecular Mass": "",
        "Melting Point": "105-106 °C"
    }
}