{
    "cas_no": "3987-92-6",
    "key_name": "Methyl 4-amino-3-nitrobenzoate",
    "cn_name": null,
    "alternate_name": "Benzoic acid, 4-amino-3-nitro-, methyl ester;4-Methoxycarbonyl-2-nitroaniline;Methyl 4-amino-3-nitrobenzoate;4-Amino-3-nitrobenzoic acid methyl ester;Methyl 3-nitro-4-aminobenzoate;1-Amino-2-nitro-4-(methoxycarbonyl)benzene;2-Nitro-4-carbomethoxyaniline",
    "duplicated_cas_no": "",
    "SMILES": "C(OC)(=O)C1=CC(N(=O)=O)=C(N)C=C1",
    "meta_data": {
        "InChI": "InChI=1S/C8H8N2O4/c1-14-8(11)5-2-3-6(9)7(4-5)10(12)13/h2-4H,9H2,1H3",
        "InChIKey": null,
        "Canonical SMILES": "O=C(OC)C1=CC=C(N)C(=C1)N(=O)=O",
        "Molecular Formula": "C<sub>8</sub>H<sub>8</sub>N<sub>2</sub>O<sub>4</sub>",
        "Molecular Mass": "196.16",
        "Melting Point": "204-207 °C"
    }
}