{
    "cas_no": "9010-98-4",
    "key_name": "Polychloroprene",
    "cn_name": null,
    "alternate_name": "1,3-Butadiene, 2-chloro-, homopolymer;1,3-Butadiene, 2-chloro-, polymers;Polychloroprene;Poly(2-chloro-1,3-butadiene);Poly(2-chlorobutadiene);Chloroprene polymer;2-Chloro-1,3-butadiene polymer;Plastifix PC;Chlorobutadiene polymer;1,4-<em>cis</em> Poly(chloropene);<em>trans</em>-1,4-Polychloroprene;Vulkolep RS 3;Politrans 1219;Denkalac M 30;FS 651;Bostik 1410;Chloroprene homopolymer;Hibon 5300;Dispercoll C 200A;LCR-H 050;Convulfix;Telcopren 3.003;Dispercoll C-VPLS 2325;Dispercoll C-VPLS 2372H;Telcopren 3003;Neobond R;Dispercoll C-XP 2694;Neolon 2G;Dispercoll C-VPLS 2372/1;2-Chloro-1,3-butadiene homopolymer;Dispercoll C 2325",
    "duplicated_cas_no": "28430-71-9;129541-83-9;2055836-56-9",
    "SMILES": "C(C=C)(=C)Cl",
    "meta_data": {
        "InChI": "InChI=1S/C4H5Cl/c1-3-4(2)5/h3H,1-2H2",
        "InChIKey": null,
        "Canonical SMILES": "ClC(=C)C=C",
        "Molecular Formula": "(C<sub>4</sub>H<sub>5</sub>Cl)<sub>x</sub>",
        "Molecular Mass": "",
        "Melting Point": "&gt;260 °C",
        "Density": "1.23 g/cm³"
    }
}