{
    "cas_no": "49562-28-9",
    "key_name": "Fenofibrate",
    "cn_name": "非诺贝特;2-甲基-2-(4-(4-氯苯甲酰基)苯氧基)丙酸异丙酯;",
    "alternate_name": "Propanoic acid, 2-[4-(4-chlorobenzoyl)phenoxy]-2-methyl-, 1-methylethyl ester;Isopropyl 2-[<em>p</em>-(<em>p</em>-chlorobenzoyl)phenoxy]-2-methylpropionate;LF 178;Lipanthyl;Procetofen;Fenofibrate;TriCor;Lipantil;Lipirex;Fenogal;Lipofene;Lipoclar;Lipidil;Secalip;Lipsin;Elasterin;Ankebin;Protolipan;Liposit;Procetofene;Nolipax;Procetoken;Fenobrate;Fenotard;NSC 281319;Lipidil Supra;Clorofibrate;Antara;MeltDose;Lipicard;Lipivim;Fenorate;Isopropyl 2-[4-(4-chlorobenzoyl)phenoxy]-2-methylpropanoate;Lipanthylnano;Triglide;Lipanthyl supra;Fenobrat;Fenoglide;Lipofen;MeSH ID: D011345",
    "duplicated_cas_no": "",
    "SMILES": "C(=O)(C1=CC=C(OC(C(OC(C)C)=O)(C)C)C=C1)C2=CC=C(Cl)C=C2",
    "meta_data": {
        "InChI": "InChI=1S/C20H21ClO4/c1-13(2)24-19(23)20(3,4)25-17-11-7-15(8-12-17)18(22)14-5-9-16(21)10-6-14/h5-13H,1-4H3",
        "InChIKey": null,
        "Canonical SMILES": "O=C(OC(C)C)C(OC1=CC=C(C=C1)C(=O)C2=CC=C(Cl)C=C2)(C)C",
        "Molecular Formula": "C<sub>20</sub>H<sub>21</sub>ClO<sub>4</sub>",
        "Molecular Mass": "360.83",
        "Melting Point": "80.5 °C"
    }
}