{
    "cas_no": "2577-48-2",
    "key_name": "(-)-<span class=\"text-smallcaps\">L</span>-Proline methyl ester",
    "cn_name": null,
    "alternate_name": "<span class=\"text-smallcaps\">L</span>-Proline, methyl ester;Proline, methyl ester, <span class=\"text-smallcaps\">L</span>-;(-)-<span class=\"text-smallcaps\">L</span>-Proline methyl ester;Methyl (<em>S</em>)-pyrrolidine-2-carboxylate;Methyl <span class=\"text-smallcaps\">L</span>-prolinate;(<em>S</em>)-Proline methyl ester;Methyl (<em>S</em>)-prolinate;Methyl prolinate;Methyl (2<em>S</em>)-2-pyrrolidinecarboxylate;(<em>S</em>)-Pyrrolidine-2-carboxylic acid methyl ester;Methyl (2S)-pyrrolidine-2-carboxylate",
    "duplicated_cas_no": "50703-25-8",
    "SMILES": "C(OC)(=O)[C@@H]1CCCN1",
    "meta_data": {
        "InChI": "InChI=1S/C6H11NO2/c1-9-6(8)5-3-2-4-7-5/h5,7H,2-4H2,1H3/t5-/m0/s1",
        "InChIKey": null,
        "Canonical SMILES": "O=C(OC)C1NCCC1",
        "Molecular Formula": "C<sub>6</sub>H<sub>11</sub>NO<sub>2</sub>",
        "Molecular Mass": "129.16",
        "Boiling Point": "70 °C @ Press: 10 Torr",
        "Melting Point": "151-152 °C"
    }
}