{
    "cas_no": "67-64-1",
    "key_name": "Acetone",
    "cn_name": "丙酮;",
    "alternate_name": "2-Propanone;Methyl ketone;Acetone;Dimethyl ketone;β-Ketopropane;Pyroacetic ether;Propanone;Dimethylformaldehyde;NSC 135802;Taimax;A 1060;A 0140;MeSH ID: D000096",
    "duplicated_cas_no": "",
    "SMILES": "C(C)(C)=O",
    "meta_data": {
        "InChI": "InChI=1S/C3H6O/c1-3(2)4/h1-2H3",
        "InChIKey": null,
        "Canonical SMILES": "O=C(C)C",
        "Molecular Formula": "C<sub>3</sub>H<sub>6</sub>O",
        "Molecular Mass": "58.08",
        "Boiling Point": "56.0 °C @ Press: 760 Torr",
        "Melting Point": "-94.8 °C",
        "Density": "0.7899 g/cm³ @ Temp: 20 °C"
    }
}