{
    "cas_no": "4774-34-9",
    "key_name": "1,6-Dihydro-6-oxo-5-pyrimidinecarbonitrile",
    "cn_name": "4-羟基-5-氰基嘧啶;4-羟基-5-氰基嘧啶;",
    "alternate_name": "5-Pyrimidinecarbonitrile, 1,6-dihydro-6-oxo-;5-Pyrimidinecarbonitrile, 4-hydroxy-;5-Pyrimidinecarbonitrile, 1,4-dihydro-4-oxo-;1,6-Dihydro-6-oxo-5-pyrimidinecarbonitrile",
    "duplicated_cas_no": "",
    "SMILES": "C(#N)C=1C(=O)NC=NC1",
    "meta_data": {
        "InChI": "InChI=1S/C5H3N3O/c6-1-4-2-7-3-8-5(4)9/h2-3H,(H,7,8,9)",
        "InChIKey": null,
        "Canonical SMILES": "N#CC1=CN=CNC1=O",
        "Molecular Formula": "C<sub>5</sub>H<sub>3</sub>N<sub>3</sub>O",
        "Molecular Mass": "121.10",
        "Melting Point": "244-245 °C"
    }
}