{
    "cas_no": "2409-55-4",
    "key_name": "2-<em>tert</em>-Butyl-4-methylphenol",
    "cn_name": "2-叔丁基对甲苯酚;",
    "alternate_name": "Phenol, 2-(1,1-dimethylethyl)-4-methyl-;<em>p</em>-Cresol, 2-<em>tert</em>-butyl-;2-(1,1-Dimethylethyl)-4-methylphenol;4-Methyl-2-<em>tert</em>-butylphenol;2-<em>tert</em>-Butyl-4-methylphenol;2-<em>tert</em>-Butyl-<em>p</em>-cresol;<em>o</em>-<em>tert</em>-Butyl-<em>p</em>-cresol;4-Methyl-2-(1,1-dimethylethyl)phenol;4-Methyl-6-<em>tert</em>-butylphenol;2-<em>tert</em>-Butyl-4-cresol;NSC 60301;6-<em>tert</em>-Butyl-4-methylphenol",
    "duplicated_cas_no": "",
    "SMILES": "C(C)(C)(C)C1=C(O)C=CC(C)=C1",
    "meta_data": {
        "InChI": "InChI=1S/C11H16O/c1-8-5-6-10(12)9(7-8)11(2,3)4/h5-7,12H,1-4H3",
        "InChIKey": null,
        "Canonical SMILES": "OC1=CC=C(C=C1C(C)(C)C)C",
        "Molecular Formula": "C<sub>11</sub>H<sub>16</sub>O",
        "Molecular Mass": "164.24",
        "Boiling Point": "237 °C",
        "Melting Point": "55 °C",
        "Density": "0.9247 g/cm³ @ Temp: 75 °C"
    }
}