{
    "cas_no": "886-35-1",
    "key_name": "[3,5-Bis(trifluoromethyl)phenyl]hydrazine",
    "cn_name": "3,5-二(三氟甲基)苯肼;3,5-双(三氟甲基)苯肼;",
    "alternate_name": "Hydrazine, [3,5-bis(trifluoromethyl)phenyl]-;Hydrazine, (α,α,α,α′,α′,α′-hexafluoro-3,5-xylyl)-;[3,5-Bis(trifluoromethyl)phenyl]hydrazine;3,5-Bis(trifluoromethyl)phenyl hydrazine",
    "duplicated_cas_no": "",
    "SMILES": "C(F)(F)(F)C1=CC(C(F)(F)F)=CC(NN)=C1",
    "meta_data": {
        "InChI": "InChI=1S/C8H6F6N2/c9-7(10,11)4-1-5(8(12,13)14)3-6(2-4)16-15/h1-3,16H,15H2",
        "InChIKey": null,
        "Canonical SMILES": "FC(F)(F)C1=CC(=CC(=C1)C(F)(F)F)NN",
        "Molecular Formula": "C<sub>8</sub>H<sub>6</sub>F<sub>6</sub>N<sub>2</sub>",
        "Molecular Mass": "244.14",
        "Melting Point": "81-83 °C"
    }
}