{
    "cas_no": "7064-38-2",
    "key_name": "4-Iodo-5-methylisoxazole",
    "cn_name": "4-碘-5-甲基异恶唑;4-碘-5-甲基异恶唑;",
    "alternate_name": "Isoxazole, 4-iodo-5-methyl-;4-Iodo-5-methylisoxazole;4-Iodo-5-methyl-1,2-oxazole",
    "duplicated_cas_no": "",
    "SMILES": "IC1=C(C)ON=C1",
    "meta_data": {
        "InChI": "InChI=1S/C4H4INO/c1-3-4(5)2-6-7-3/h2H,1H3",
        "InChIKey": null,
        "Canonical SMILES": "IC=1C=NOC1C",
        "Molecular Formula": "C<sub>4</sub>H<sub>4</sub>INO",
        "Molecular Mass": "208.99",
        "Melting Point": "28-29 °C"
    }
}