{
    "cas_no": "89-82-7",
    "key_name": "(+)-Pulegone",
    "cn_name": "胡薄荷酮;",
    "alternate_name": "Cyclohexanone, 5-methyl-2-(1-methylethylidene)-, (5<em>R</em>)-;<em>p</em>-Menth-4(8)-en-3-one, (<em>R</em>)-(+)-;Cyclohexanone, 5-methyl-2-(1-methylethylidene)-, (<em>R</em>)-;(5<em>R</em>)-5-Methyl-2-(1-methylethylidene)cyclohexanone;Pulegone;(+)-Pulegone;<em>d</em>-Pulegone;(+)-(<em>R</em>)-Pulegone;Pulegon;(1<em>R</em>)-(+)-<em>p</em>-Menth-4(8)-en-3-one;(<em>R</em>)-Pulegone;(<em>R</em>)-(+)-Pulegone;(<em>R</em>)-(+)-<em>p</em>-Menth-4(8)-en-3-one;(1<em>R</em>)-Pulegone;NSC 15334;<span class=\"text-smallcaps\">L</span>-Pulegone;(5R)-5-Methyl-2-propan-2-ylidenecyclohexan-1-one",
    "duplicated_cas_no": "90449-51-7",
    "SMILES": "C(C)(C)=C1C(=O)C[C@H](C)CC1",
    "meta_data": {
        "InChI": "InChI=1S/C10H16O/c1-7(2)9-5-4-8(3)6-10(9)11/h8H,4-6H2,1-3H3/t8-/m1/s1",
        "InChIKey": null,
        "Canonical SMILES": "O=C1C(=C(C)C)CCC(C)C1",
        "Molecular Formula": "C<sub>10</sub>H<sub>16</sub>O",
        "Molecular Mass": "152.23",
        "Boiling Point": "224 °C",
        "Melting Point": "&lt;25 °C",
        "Density": "0.93808 g/cm³ @ Temp: 16.9 °C"
    }
}