{
    "cas_no": "524-42-5",
    "key_name": "1,2-Naphthoquinone",
    "cn_name": "1,2-萘醌;",
    "alternate_name": "1,2-Naphthalenedione;1,2-Naphthoquinone;β-Naphthoquinone;<em>o</em>-Naphthoquinone;NSC 9831;SID 8139964;1,2-Dihydronaphthalene-1,2-dione",
    "duplicated_cas_no": "",
    "SMILES": "O=C1C=2C(C=CC1=O)=CC=CC2",
    "meta_data": {
        "InChI": "InChI=1S/C10H6O2/c11-9-6-5-7-3-1-2-4-8(7)10(9)12/h1-6H",
        "InChIKey": null,
        "Canonical SMILES": "O=C1C=CC=2C=CC=CC2C1=O",
        "Molecular Formula": "C<sub>10</sub>H<sub>6</sub>O<sub>2</sub>",
        "Molecular Mass": "158.15",
        "Melting Point": "7-145 °C (decomp)",
        "Density": "1.450 g/cm³ @ Temp: 25 °C"
    }
}