{
    "cas_no": "744-59-2",
    "key_name": "<em>N</em>-Benzoylglycyl-<span class=\"text-smallcaps\">L</span>-phenylalanine",
    "cn_name": "马尿酰-L-苯丙氨酸;",
    "alternate_name": "<span class=\"text-smallcaps\">L</span>-Phenylalanine, <em>N</em>-benzoylglycyl-;Alanine, <em>N</em>-hippuroyl-3-phenyl-, <span class=\"text-smallcaps\">L</span>-;<span class=\"text-smallcaps\">L</span>-Phenylalanine, <em>N</em>-(<em>N</em>-benzoylglycyl)-;Alanine, <em>N</em>-hippuroyl-3-phenyl-;<em>N</em>-Benzoylglycyl-<span class=\"text-smallcaps\">L</span>-phenylalanine;Hippuryl-<span class=\"text-smallcaps\">L</span>-phenylalanine;Benzoylglycyl-<span class=\"text-smallcaps\">L</span>-phenylalanine;<em>N</em>-(<em>N</em>-Benzoylglycyl)-<span class=\"text-smallcaps\">L</span>-phenylalanine;NSC 83250;(2S)-2-[(2-Benzamidoacetyl)amino]-3-phenylpropanoic acid;(<em>S</em>)-2-(2-Benzamidoacetamido)-3-phenylpropanoicacid",
    "duplicated_cas_no": "22138-24-5",
    "SMILES": "C([C@H](NC(CNC(=O)C1=CC=CC=C1)=O)C(O)=O)C2=CC=CC=C2",
    "meta_data": {
        "InChI": "InChI=1S/C18H18N2O4/c21-16(12-19-17(22)14-9-5-2-6-10-14)20-15(18(23)24)11-13-7-3-1-4-8-13/h1-10,15H,11-12H2,(H,19,22)(H,20,21)(H,23,24)/t15-/m0/s1",
        "InChIKey": null,
        "Canonical SMILES": "O=C(O)C(NC(=O)CNC(=O)C=1C=CC=CC1)CC=2C=CC=CC2",
        "Molecular Formula": "C<sub>18</sub>H<sub>18</sub>N<sub>2</sub>O<sub>4</sub>",
        "Molecular Mass": "326.35",
        "Melting Point": "174 °C"
    }
}