{
    "cas_no": "2011-67-8",
    "key_name": "Nimetazepam",
    "cn_name": "甲硝西泮;1,3-二氢-1-甲基-7-硝基-5-苯基-2H-1,4-苯并二氮杂卓-2-酮;",
    "alternate_name": "2<em>H</em>-1,4-Benzodiazepin-2-one, 1,3-dihydro-1-methyl-7-nitro-5-phenyl-;1,3-Dihydro-1-methyl-7-nitro-5-phenyl-2<em>H</em>-1,4-benzodiazepin-2-one;Nimetazepam;S 1530;1-Methyl-5-phenyl-7-nitro-1,3-dihydro-2<em>H</em>-1,4-benzodiazepin-2-one;Ro 5-3453;<em>N</em>-Methylmogadon;Methylnitrazepam;Elimin;<em>N</em>-Methylnitrazepam;Erimin;1-Methylnitrazepam;Nimetazam;Hypnon;1-Methyl-7-nitro-5-phenyl-1<em>H</em>-1,4-benzodiazepin-2(3<em>H</em>)-one;1-Methyl-7-nitro-5-phenyl-3<em>H</em>-1,4-benzodiazepin-2-one",
    "duplicated_cas_no": "",
    "SMILES": "CN1C=2C(C(=NCC1=O)C3=CC=CC=C3)=CC(N(=O)=O)=CC2",
    "meta_data": {
        "InChI": "InChI=1S/C16H13N3O3/c1-18-14-8-7-12(19(21)22)9-13(14)16(17-10-15(18)20)11-5-3-2-4-6-11/h2-9H,10H2,1H3",
        "InChIKey": null,
        "Canonical SMILES": "O=C1N(C=2C=CC(=CC2C(=NC1)C=3C=CC=CC3)N(=O)=O)C",
        "Molecular Formula": "C<sub>16</sub>H<sub>13</sub>N<sub>3</sub>O<sub>3</sub>",
        "Molecular Mass": "295.29",
        "Melting Point": "7.5-156.5 °C"
    }
}