{
    "cas_no": "99-31-0",
    "key_name": "3,5-Dicarboxyaniline",
    "cn_name": "5-氨基间苯二甲酸;5-氨基异酞酸;",
    "alternate_name": "1,3-Benzenedicarboxylic acid, 5-amino-;Isophthalic acid, 5-amino-;5-Amino-1,3-benzenedicarboxylic acid;5-Aminoisophthalic acid;3,5-Dicarboxyaniline;5-Aminoisophthalate;NSC 60141;Aniline-3,5-dicarboxylic acid;3-Aminoisophthalic acid;5-Amino-<em>m</em>-phthalic acid",
    "duplicated_cas_no": "",
    "SMILES": "C(O)(=O)C1=CC(C(O)=O)=CC(N)=C1",
    "meta_data": {
        "InChI": "InChI=1S/C8H7NO4/c9-6-2-4(7(10)11)1-5(3-6)8(12)13/h1-3H,9H2,(H,10,11)(H,12,13)",
        "InChIKey": null,
        "Canonical SMILES": "O=C(O)C1=CC(N)=CC(=C1)C(=O)O",
        "Molecular Formula": "C<sub>8</sub>H<sub>7</sub>NO<sub>4</sub>",
        "Molecular Mass": "181.15",
        "Melting Point": "360 °C"
    }
}