{
    "cas_no": "13880-05-2",
    "key_name": "<em>N</em>-[Tris(hydroxymethyl)methyl]acrylamide",
    "cn_name": null,
    "alternate_name": "2-Propenamide, <em>N</em>-[2-hydroxy-1,1-bis(hydroxymethyl)ethyl]-;Acrylamide, <em>N</em>-[2-hydroxy-1,1-bis(hydroxymethyl)ethyl]-;<em>N</em>-[2-Hydroxy-1,1-bis(hydroxymethyl)ethyl]-2-propenamide;2-Acrylamido-2-(hydroxymethyl)-1,3-propanediol;Tris(hydroxymethyl)acrylamidomethane;<em>N</em>-[Tris(hydroxymethyl)methyl]acrylamide;<em>N</em>-[1,3-Dihydroxy-2-(hydroxymethyl)propan-2-yl]acrylamide;<em>N</em>-[2-Hydroxy-1,1-bis(hydroxymethyl)ethyl]propenamide",
    "duplicated_cas_no": "229983-51-1;1202384-80-2",
    "SMILES": "C(NC(C=C)=O)(CO)(CO)CO",
    "meta_data": {
        "InChI": "InChI=1S/C7H13NO4/c1-2-6(12)8-7(3-9,4-10)5-11/h2,9-11H,1,3-5H2,(H,8,12)",
        "InChIKey": null,
        "Canonical SMILES": "O=C(C=C)NC(CO)(CO)CO",
        "Molecular Formula": "C<sub>7</sub>H<sub>13</sub>NO<sub>4</sub>",
        "Molecular Mass": "175.18",
        "Melting Point": "131-133 °C"
    }
}