{
    "cas_no": "121-87-9",
    "key_name": "2-Chloro-4-nitroaniline",
    "cn_name": "2-氯-4-硝基苯胺;",
    "alternate_name": "Benzenamine, 2-chloro-4-nitro-;Aniline, 2-chloro-4-nitro-;2-Chloro-4-nitrobenzenamine;<em>o</em>-Chloro-<em>p</em>-nitroaniline;2-Chloro-4-nitroaniline;OCPNA;1-Amino-2-chloro-4-nitrobenzene;2-Chloro-4-nitrophenylamine;4-Nitro-2-chloroaniline;NSC 3548",
    "duplicated_cas_no": "",
    "SMILES": "N(=O)(=O)C1=CC(Cl)=C(N)C=C1",
    "meta_data": {
        "InChI": "InChI=1S/C6H5ClN2O2/c7-5-3-4(9(10)11)1-2-6(5)8/h1-3H,8H2",
        "InChIKey": null,
        "Canonical SMILES": "O=N(=O)C1=CC=C(N)C(Cl)=C1",
        "Molecular Formula": "C<sub>6</sub>H<sub>5</sub>ClN<sub>2</sub>O<sub>2</sub>",
        "Molecular Mass": "172.57",
        "Boiling Point": "&gt;200 °C",
        "Melting Point": "108 °C",
        "Density": "&lt;1 g/cm³"
    }
}