{
    "cas_no": "18720-35-9",
    "key_name": "1-Methyl bicyclo[2.2.2]octane-1,4-dicarboxylate",
    "cn_name": "4-(甲氧羰基)双环[2.2.2]辛烷-1-羧酸; 双环[2.2.2]辛烷-1,4-二羧酸单甲酯;",
    "alternate_name": "Bicyclo[2.2.2]octane-1,4-dicarboxylic acid, 1-methyl ester;Bicyclo[2.2.2]octane-1,4-dicarboxylic acid, monomethyl ester;1-Methyl bicyclo[2.2.2]octane-1,4-dicarboxylate;4-(Methoxycarbonyl)bicyclo[2.2.2]octane-1-carboxylic acid;4-(Methoxycarbonyl)bicyclo[2.2.2]octan-1-carboxylic acid;Bicyclo[2.2.2]octane-1,3-dicarboxylic acid, 1-methyl ester;1-Methyl bicyclo[2.2.2]octane-1,3-dicarboxylate",
    "duplicated_cas_no": "2599177-12-3",
    "SMILES": "C(OC)(=O)C12CCC(C(O)=O)(CC1)CC2",
    "meta_data": {
        "InChI": "InChI=1S/C11H16O4/c1-15-9(14)11-5-2-10(3-6-11,4-7-11)8(12)13/h2-7H2,1H3,(H,12,13)",
        "InChIKey": null,
        "Canonical SMILES": "O=C(O)C12CCC(C(=O)OC)(CC1)CC2",
        "Molecular Formula": "C<sub>11</sub>H<sub>16</sub>O<sub>4</sub>",
        "Molecular Mass": "212.24",
        "Melting Point": "173-176 °C"
    }
}