{
    "cas_no": "3363-56-2",
    "key_name": "2,5,6-Trimethylbenzimidazole",
    "cn_name": "2,5,6-三甲基苯并咪唑;",
    "alternate_name": "1<em>H</em>-Benzimidazole, 2,5,6-trimethyl-;Benzimidazole, 2,5,6-trimethyl-;2,5,6-Trimethyl-1<em>H</em>-benzimidazole;2,5,6-Trimethylbenzimidazole;NSC 401569;2,5,6-Trimethyl-1<em>H</em>-benzoimidazole;2,5,6-Trimethyl-1<em>H</em>-1,3-benzodiazole",
    "duplicated_cas_no": "",
    "SMILES": "CC=1C=C2C(=CC1C)N=C(C)N2",
    "meta_data": {
        "InChI": "InChI=1S/C10H12N2/c1-6-4-9-10(5-7(6)2)12-8(3)11-9/h4-5H,1-3H3,(H,11,12)",
        "InChIKey": null,
        "Canonical SMILES": "N=1C=2C=C(C(=CC2NC1C)C)C",
        "Molecular Formula": "C<sub>10</sub>H<sub>12</sub>N<sub>2</sub>",
        "Molecular Mass": "160.22",
        "Melting Point": "233-234 °C"
    }
}