{
    "cas_no": "107-58-4",
    "key_name": "<em>tert</em>-Butylacrylamide",
    "cn_name": "N-叔丁基丙烯酰胺;N-(1,1-二甲基乙基)-2-丙烯酰胺;",
    "alternate_name": "2-Propenamide, <em>N</em>-(1,1-dimethylethyl)-;Acrylamide, <em>N</em>-<em>tert</em>-butyl-;<em>N</em>-(1,1-Dimethylethyl)-2-propenamide;<em>N</em>-<em>tert</em>-Butylacrylamide;<em>tert</em>-Butylacrylamide;NSC 5287;<em>N</em>-<em>tert</em>-Butyl-2-propenamide;<em>N</em>-<em>t</em>-Butylacrylamide",
    "duplicated_cas_no": "30030-21-8",
    "SMILES": "N(C(C)(C)C)C(C=C)=O",
    "meta_data": {
        "InChI": "InChI=1S/C7H13NO/c1-5-6(9)8-7(2,3)4/h5H,1H2,2-4H3,(H,8,9)",
        "InChIKey": null,
        "Canonical SMILES": "O=C(C=C)NC(C)(C)C",
        "Molecular Formula": "C<sub>7</sub>H<sub>13</sub>NO",
        "Molecular Mass": "127.18",
        "Melting Point": "126 °C",
        "Density": "0.977 g/cm³"
    }
}