{
    "cas_no": "114420-56-3",
    "key_name": "Clodinafop",
    "cn_name": null,
    "alternate_name": "Propanoic acid, 2-[4-[(5-chloro-3-fluoro-2-pyridinyl)oxy]phenoxy]-, (2<em>R</em>)-;Propanoic acid, 2-[4-[(5-chloro-3-fluoro-2-pyridinyl)oxy]phenoxy]-, (<em>R</em>)-;(2<em>R</em>)-2-[4-[(5-Chloro-3-fluoro-2-pyridinyl)oxy]phenoxy]propanoic acid;Clodinafop;CGA 193469;(R)-2-(4-((5-Chloro-3-fluoropyridin-2-yl)oxy)phenoxy)propanoic acid",
    "duplicated_cas_no": "",
    "SMILES": "O(C1=C(F)C=C(Cl)C=N1)C2=CC=C(O[C@@H](C(O)=O)C)C=C2",
    "meta_data": {
        "InChI": "InChI=1S/C14H11ClFNO4/c1-8(14(18)19)20-10-2-4-11(5-3-10)21-13-12(16)6-9(15)7-17-13/h2-8H,1H3,(H,18,19)/t8-/m1/s1",
        "InChIKey": null,
        "Canonical SMILES": "O=C(O)C(OC1=CC=C(OC2=NC=C(Cl)C=C2F)C=C1)C",
        "Molecular Formula": "C<sub>14</sub>H<sub>11</sub>ClFNO<sub>4</sub>",
        "Molecular Mass": "311.69",
        "Melting Point": "211-212 °C"
    }
}