{
    "cas_no": "80-20-6",
    "key_name": "3-Amino-4-hydroxy-<em>N</em>-phenylbenzenesulfonamide",
    "cn_name": "2-氨基苯酚-4-磺酰苯胺;",
    "alternate_name": "Benzenesulfonamide, 3-amino-4-hydroxy-<em>N</em>-phenyl-;Metanilanilide, 4-hydroxy-;1-Phenol-4-sulfonanilide, 2-amino-;3-Amino-4-hydroxy-<em>N</em>-phenylbenzenesulfonamide;4-Hydroxymetanilanilide;3-Amino-4-hydroxybenzenesulfonanilide;NSC 315543;3-Amino-4-hydroxy-<em>N</em>-phenylbenzene-1-sulfonamide",
    "duplicated_cas_no": "",
    "SMILES": "S(NC1=CC=CC=C1)(=O)(=O)C2=CC(N)=C(O)C=C2",
    "meta_data": {
        "InChI": "InChI=1S/C12H12N2O3S/c13-11-8-10(6-7-12(11)15)18(16,17)14-9-4-2-1-3-5-9/h1-8,14-15H,13H2",
        "InChIKey": null,
        "Canonical SMILES": "O=S(=O)(NC=1C=CC=CC1)C2=CC=C(O)C(N)=C2",
        "Molecular Formula": "C<sub>12</sub>H<sub>12</sub>N<sub>2</sub>O<sub>3</sub>S",
        "Molecular Mass": "264.30",
        "Melting Point": "172 °C"
    }
}