{
    "cas_no": "14377-68-5",
    "key_name": "1-Phenylcyclobutanecarbonitrile",
    "cn_name": "1-苯基环丁烷甲腈;1-苯基环丁腈;",
    "alternate_name": "Cyclobutanecarbonitrile, 1-phenyl-;1-Phenylcyclobutanecarbonitrile;1-Phenyl-1-cyclobutanecarbonitrile;NSC 125697",
    "duplicated_cas_no": "",
    "SMILES": "C(#N)C1(CCC1)C2=CC=CC=C2",
    "meta_data": {
        "InChI": "InChI=1S/C11H11N/c12-9-11(7-4-8-11)10-5-2-1-3-6-10/h1-3,5-6H,4,7-8H2",
        "InChIKey": null,
        "Canonical SMILES": "N#CC1(C=2C=CC=CC2)CCC1",
        "Molecular Formula": "C<sub>11</sub>H<sub>11</sub>N",
        "Molecular Mass": "157.21",
        "Boiling Point": "107 °C @ Press: 8 Torr"
    }
}