{
    "cas_no": "606-45-1",
    "key_name": "Methyl 2-methoxybenzoate",
    "cn_name": "2-甲氧基苯甲酸甲酯;邻甲氧基苯甲酸甲酯;",
    "alternate_name": "Benzoic acid, 2-methoxy-, methyl ester;<em>o</em>-Anisic acid, methyl ester;Benzoic acid, <em>o</em>-methoxy-, methyl ester;Methyl <em>o</em>-methoxybenzoate;<em>o</em>-Methoxybenzoic acid methyl ester;Methyl 2-methoxybenzoate;Methyl <em>o</em>-anisate;2-Methoxybenzoic acid methyl ester;NSC 406256;Methyl 2-anisate",
    "duplicated_cas_no": "",
    "SMILES": "C(OC)(=O)C1=C(OC)C=CC=C1",
    "meta_data": {
        "InChI": "InChI=1S/C9H10O3/c1-11-8-6-4-3-5-7(8)9(10)12-2/h3-6H,1-2H3",
        "InChIKey": null,
        "Canonical SMILES": "O=C(OC)C=1C=CC=CC1OC",
        "Molecular Formula": "C<sub>9</sub>H<sub>10</sub>O<sub>3</sub>",
        "Molecular Mass": "166.17",
        "Boiling Point": "246.5 °C",
        "Density": "1.1467 g/cm³ @ Temp: 20 °C"
    }
}