{
    "cas_no": "12067-57-1",
    "key_name": "Titanium silicide (Ti<sub>5</sub>Si<sub>3</sub>)",
    "cn_name": null,
    "alternate_name": "Titanium silicide (Ti<sub>5</sub>Si<sub>3</sub>);Pentatitanium trisilicon;Pentatitanium trisilicide;Titanium silicide (TiSi0.6)",
    "duplicated_cas_no": "12138-29-3;156840-86-7;163044-71-1;196197-61-2;264124-88-1;2280028-68-2;2629940-81-2",
    "SMILES": "",
    "meta_data": {
        "InChI": "",
        "InChIKey": null,
        "Canonical SMILES": "",
        "Molecular Formula": "Si<sub>3</sub>Ti<sub>5</sub>",
        "Molecular Mass": "",
        "Melting Point": "2130 °C",
        "Density": "4.3 g/cm³ @ Temp: Room temp"
    }
}