{
    "uri": "substance/pt/12067571",
    "rn": "12067-57-1",
    "name": "Titanium silicide (Ti<sub>5</sub>Si<sub>3</sub>)",
    "images": [],
    "inchi": "",
    "inchiKey": "",
    "smile": "",
    "canonicalSmile": "",
    "molecularFormula": "Si<sub>3</sub>Ti<sub>5</sub>",
    "molecularMass": "",
    "experimentalProperties": [
        {
            "name": "Melting Point",
            "property": "2130 °C",
            "sourceNumber": 1
        },
        {
            "name": "Density",
            "property": "4.3 g/cm³ @ Temp: Room temp",
            "sourceNumber": 2
        }
    ],
    "propertyCitations": [
        {
            "docUri": "document/pt/document/20773382",
            "sourceNumber": 1,
            "source": "Svechnikov, V. N.; Doklady Akademii Nauk SSSR, (1970), 193(2), 393-6 [Chem Technol], CAplus"
        },
        {
            "docUri": "document/pt/document/26265392",
            "sourceNumber": 2,
            "source": "Ito, K.; Intermetallics, (2004), 12(4), 443-450, CAplus"
        }
    ],
    "synonyms": [
        "Titanium silicide (Ti<sub>5</sub>Si<sub>3</sub>)",
        "Pentatitanium trisilicon",
        "Pentatitanium trisilicide",
        "Titanium silicide (TiSi0.6)"
    ],
    "replacedRns": [
        "12138-29-3",
        "156840-86-7",
        "163044-71-1",
        "196197-61-2",
        "264124-88-1",
        "2280028-68-2",
        "2629940-81-2"
    ],
    "hasMolfile": false,
    "source": "https://commonchemistry.cas.org/detail?cas_rn=12067-57-1"
}