{
    "cas_no": "73907-95-6",
    "key_name": "6-Amino-1<em>H</em>-indazole-7-carboxylic acid",
    "cn_name": null,
    "alternate_name": "1<em>H</em>-Indazole-7-carboxylic acid, 6-amino-;6-Amino-1<em>H</em>-indazole-7-carboxylic acid",
    "duplicated_cas_no": "",
    "SMILES": "C(O)(=O)C1=C2C(=CC=C1N)C=NN2",
    "meta_data": {
        "InChI": "InChI=1S/C8H7N3O2/c9-5-2-1-4-3-10-11-7(4)6(5)8(12)13/h1-3H,9H2,(H,10,11)(H,12,13)",
        "InChIKey": null,
        "Canonical SMILES": "O=C(O)C1=C(N)C=CC=2C=NNC21",
        "Molecular Formula": "C<sub>8</sub>H<sub>7</sub>N<sub>3</sub>O<sub>2</sub>",
        "Molecular Mass": "177.16",
        "Melting Point": "177 °C (decomp)"
    }
}