{
    "cas_no": "610-40-2",
    "key_name": "4-Chloro-1,2-dinitrobenzene",
    "cn_name": "3,4-二硝基氯苯;1-氯-3,4-二硝基苯;4-氯-1,2-二硝基苯;",
    "alternate_name": "Benzene, 4-chloro-1,2-dinitro-;4-Chloro-1,2-dinitrobenzene;1-Chloro-3,4-dinitrobenzene;3,4-Dinitrochlorobenzene;1,2-Dinitro-4-chlorobenzene;NSC 119343",
    "duplicated_cas_no": "",
    "SMILES": "N(=O)(=O)C1=C(N(=O)=O)C=C(Cl)C=C1",
    "meta_data": {
        "InChI": "InChI=1S/C6H3ClN2O4/c7-4-1-2-5(8(10)11)6(3-4)9(12)13/h1-3H",
        "InChIKey": null,
        "Canonical SMILES": "O=N(=O)C1=CC=C(Cl)C=C1N(=O)=O",
        "Molecular Formula": "C<sub>6</sub>H<sub>3</sub>ClN<sub>2</sub>O<sub>4</sub>",
        "Molecular Mass": "202.55",
        "Melting Point": "40 °C",
        "Density": "1.687 g/cm³"
    }
}