{
    "cas_no": "34031-32-8",
    "key_name": "Auranofin",
    "cn_name": "金诺芬;醋硫葡金;2,3,4,6-四乙酰氧基-1-硫代-beta-D-吡喃葡萄糖(三乙基磷)金盐;",
    "alternate_name": "Gold, [1-(thio-κ<em>S</em>)-β-<span class=\"text-smallcaps\">D</span>-glucopyranose 2,3,4,6-tetraacetato](triethylphosphine)-;Gold, (1-thio-β-<span class=\"text-smallcaps\">D</span>-glucopyranose 2,3,4,6-tetraacetato-<em>S</em>)(triethylphosphine)-;Gold, (1-thio-β-<span class=\"text-smallcaps\">D</span>-glucopyranosato)(triethylphosphine)-, 2,3,4,6-tetraacetate;β-<span class=\"text-smallcaps\">D</span>-Glucopyranose, 1-thio-, 2,3,4,6-tetraacetate, gold complex;[1-(Thio-κ<em>S</em>)-β-<span class=\"text-smallcaps\">D</span>-glucopyranose 2,3,4,6-tetraacetato](triethylphosphine)gold;[(Tetra-<em>O</em>-acetyl-β-<span class=\"text-smallcaps\">D</span>-glucopyranosyl)thio](triethylphosphine)gold;SKF 39162D;Auranofin;Ridaura;SKF 39162;Crisofin;Crisinor;Aktil;Ridauran;NSC 321521;Gold Salt;MeSH ID: D001310",
    "duplicated_cas_no": "",
    "SMILES": "O(C(C)=O)[C@@H]1[C@@H](OC(C)=O)[C@H]([S-][Au+][P](CC)(CC)CC)O[C@H](COC(C)=O)[C@H]1OC(C)=O",
    "meta_data": {
        "InChI": "InChI=1S/C14H20O9S.C6H15P.Au/c1-6(15)19-5-10-11(20-7(2)16)12(21-8(3)17)13(14(24)23-10)22-9(4)18;1-4-7(5-2)6-3;/h10-14,24H,5H2,1-4H3;4-6H2,1-3H3;/q;;+1/p-1/t10-,11-,12+,13-,14+;;/m1../s1",
        "InChIKey": null,
        "Canonical SMILES": "O=C(OCC1OC([S-][Au+][P](CC)(CC)CC)C(OC(=O)C)C(OC(=O)C)C1OC(=O)C)C",
        "Molecular Formula": "C<sub>20</sub>H<sub>34</sub>AuO<sub>9</sub>PS",
        "Molecular Mass": "",
        "Melting Point": "112-115 °C"
    }
}