{
    "cas_no": "3741-77-3",
    "key_name": "2,4,6-Tribromophenyl acrylate",
    "cn_name": "2,4,6-三溴苯丙烯酸酯;2,4,6-丙烯酸三溴苯酯;",
    "alternate_name": "2-Propenoic acid, 2,4,6-tribromophenyl ester;Acrylic acid, 2,4,6-tribromophenyl ester;Phenol, 2,4,6-tribromo-, acrylate;2,4,6-Tribromophenyl acrylate;Fire Lord A;SR 803;Newfrontier BR 30;BR 30;2,4,6-Tribromophenyl prop-2-enoate;(2,4,6-Tribromophenyl) prop-2-enoate",
    "duplicated_cas_no": "",
    "SMILES": "O(C(C=C)=O)C1=C(Br)C=C(Br)C=C1Br",
    "meta_data": {
        "InChI": "InChI=1S/C9H5Br3O2/c1-2-8(13)14-9-6(11)3-5(10)4-7(9)12/h2-4H,1H2",
        "InChIKey": null,
        "Canonical SMILES": "O=C(OC=1C(Br)=CC(Br)=CC1Br)C=C",
        "Molecular Formula": "C<sub>9</sub>H<sub>5</sub>Br<sub>3</sub>O<sub>2</sub>",
        "Molecular Mass": "384.85",
        "Melting Point": "78-79 °C"
    }
}