{
    "cas_no": "994-28-5",
    "key_name": "Chlorotriethylgermane",
    "cn_name": "三乙基氯化锗;",
    "alternate_name": "Germane, chlorotriethyl-;Triethylgermanium chloride;Chlorotriethylgermane;Triethylgermyl chloride;Triethylchlorogermane;NSC 158926",
    "duplicated_cas_no": "",
    "SMILES": "[Ge](CC)(CC)(CC)Cl",
    "meta_data": {
        "InChI": "InChI=1S/C6H15ClGe/c1-4-8(7,5-2)6-3/h4-6H2,1-3H3",
        "InChIKey": null,
        "Canonical SMILES": "Cl[Ge](CC)(CC)CC",
        "Molecular Formula": "C<sub>6</sub>H<sub>15</sub>ClGe",
        "Molecular Mass": "195.28",
        "Boiling Point": "176 °C",
        "Density": "1.175 g/cm³"
    }
}