{
    "cas_no": "13254-33-6",
    "key_name": "Carpronium chloride",
    "cn_name": "卡普氯铵;(3-甲氧羰基丙基)氯化三甲铵;",
    "alternate_name": "1-Butanaminium, 4-methoxy-<em>N</em>,<em>N</em>,<em>N</em>-trimethyl-4-oxo-, chloride (1:1);Ammonium, (3-carboxypropyl)trimethyl-, chloride, methyl ester;1-Butanaminium, 4-methoxy-<em>N</em>,<em>N</em>,<em>N</em>-trimethyl-4-oxo-, chloride;(3-Carboxypropyl)trimethylammonium chloride, methyl ester;Methyl <em>N</em>-trimethyl-γ-aminobutyrate chloride;Methyl trimethyl-γ-aminobutyrate chloride;Carpronium chloride;3-Carboxy-<em>N</em>,<em>N</em>,<em>N</em>-trimethyl-1-propanaminium chloride methyl ester;γ-Butyrobetaine chloride methyl ester;Actinamin;Furozin;Actinomin",
    "duplicated_cas_no": "",
    "SMILES": "C(CC[N+](C)(C)C)C(OC)=O.[Cl-]",
    "meta_data": {
        "InChI": "InChI=1S/C8H18NO2.ClH/c1-9(2,3)7-5-6-8(10)11-4;/h5-7H2,1-4H3;1H/q+1;/p-1",
        "InChIKey": null,
        "Canonical SMILES": "[Cl-].O=C(OC)CCC[N+](C)(C)C",
        "Molecular Formula": "C<sub>8</sub>H<sub>18</sub>NO<sub>2</sub>.Cl",
        "Molecular Mass": "",
        "Melting Point": "126 °C"
    }
}