{
    "cas_no": "22996-18-5",
    "key_name": "4-Chloro-2-nitrobenzenemethanol",
    "cn_name": "4-氯-2-硝基苯苄醇;",
    "alternate_name": "Benzenemethanol, 4-chloro-2-nitro-;Benzyl alcohol, 4-chloro-2-nitro-;4-Chloro-2-nitrobenzenemethanol;4-Chloro-2-nitrobenzyl alcohol;(4-Chloro-2-nitrophenyl)methanol",
    "duplicated_cas_no": "",
    "SMILES": "N(=O)(=O)C1=C(CO)C=CC(Cl)=C1",
    "meta_data": {
        "InChI": "InChI=1S/C7H6ClNO3/c8-6-2-1-5(4-10)7(3-6)9(11)12/h1-3,10H,4H2",
        "InChIKey": null,
        "Canonical SMILES": "O=N(=O)C1=CC(Cl)=CC=C1CO",
        "Molecular Formula": "C<sub>7</sub>H<sub>6</sub>ClNO<sub>3</sub>",
        "Molecular Mass": "187.58",
        "Melting Point": "72 °C"
    }
}