{
    "cas_no": "98-07-7",
    "key_name": "Benzotrichloride",
    "cn_name": "三氯化苄;三氯甲苯;苄川三氯;",
    "alternate_name": "Benzene, (trichloromethyl)-;Toluene, α,α,α-trichloro-;(Trichloromethyl)benzene;Benzenyl trichloride;Benzotrichloride;Benzylidyne chloride;Phenylchloroform;Toluene trichloride;α,α,α-Trichlorotoluene;ω,ω,ω-Trichlorotoluene;Benzenyl chloride;Benzyl trichloride;Phenyltrichloromethane;1-(Trichloromethyl)benzene;Trichlorophenylmethane;NSC 14663",
    "duplicated_cas_no": "",
    "SMILES": "C(Cl)(Cl)(Cl)C1=CC=CC=C1",
    "meta_data": {
        "InChI": "InChI=1S/C7H5Cl3/c8-7(9,10)6-4-2-1-3-5-6/h1-5H",
        "InChIKey": null,
        "Canonical SMILES": "ClC(Cl)(Cl)C=1C=CC=CC1",
        "Molecular Formula": "C<sub>7</sub>H<sub>5</sub>Cl<sub>3</sub>",
        "Molecular Mass": "195.47",
        "Boiling Point": "105 °C @ Press: 25 Torr",
        "Melting Point": "-5.0 °C",
        "Density": "1.3756 g/cm³ @ Temp: 20 °C"
    }
}