{
    "cas_no": "58-96-8",
    "key_name": "Uridine",
    "cn_name": "尿苷;尿甙;尿嘧啶核苷;",
    "alternate_name": "Uridine;Uracil, 1-β-<span class=\"text-smallcaps\">D</span>-ribofuranosyl-;β-<span class=\"text-smallcaps\">D</span>-Ribofuranoside, 2,4(1<em>H</em>,3<em>H</em>)-pyrimidinedione-1;β-Uridine;1-β-<span class=\"text-smallcaps\">D</span>-Ribofuranosyluracil;Uridin;1-β-<span class=\"text-smallcaps\">D</span>-Ribofuranosyl-2,4(1<em>H</em>,3<em>H</em>)-pyrimidinedione;NSC 20256;22: PN: EP3882361 SEQID: 22 claimed sequence;10: PN: WO2022247943 SEQID: 62 claimed sequence;MeSH ID: D014529",
    "duplicated_cas_no": "12693-39-9;68184-15-6",
    "SMILES": "O[C@H]1[C@@H](O[C@H](CO)[C@H]1O)N2C(=O)NC(=O)C=C2",
    "meta_data": {
        "InChI": "InChI=1S/C9H12N2O6/c12-3-4-6(14)7(15)8(17-4)11-2-1-5(13)10-9(11)16/h1-2,4,6-8,12,14-15H,3H2,(H,10,13,16)/t4-,6-,7-,8-/m1/s1",
        "InChIKey": null,
        "Canonical SMILES": "O=C1C=CN(C(=O)N1)C2OC(CO)C(O)C2O",
        "Molecular Formula": "C<sub>9</sub>H<sub>12</sub>N<sub>2</sub>O<sub>6</sub>",
        "Molecular Mass": "244.20",
        "Melting Point": "165 °C"
    }
}