{
    "cas_no": "661-36-9",
    "key_name": "Tetramethylammonium tetrafluoroborate",
    "cn_name": null,
    "alternate_name": "Methanaminium, <em>N</em>,<em>N</em>,<em>N</em>-trimethyl-, tetrafluoroborate(1-) (1:1);Ammonium, tetramethyl-, tetrafluoroborate(1-);Methanaminium, <em>N</em>,<em>N</em>,<em>N</em>-trimethyl-, tetrafluoroborate(1-);Tetramethylammonium fluoroborate;Ammonium compounds, substituted, tetramethyl-, tetrafluoroborate;Borate(1-), tetrafluoro-, tetramethylammonium;Borate(1-), tetrafluoro-, <em>N</em>,<em>N</em>,<em>N</em>-trimethylmethanaminium;Tetramethylammonium tetrafluoroborate;Tetramethylammonium tetrafluoroborate(1-);[Me<sub>4</sub>N][BF<sub>4</sub>]",
    "duplicated_cas_no": "15621-50-8;52868-31-2;89179-43-1",
    "SMILES": "[B+3]([F-])([F-])([F-])[F-].[N+](C)(C)(C)C",
    "meta_data": {
        "InChI": "InChI=1S/C4H12N.BF4/c1-5(2,3)4;2-1(3,4)5/h1-4H3;/q+1;-1",
        "InChIKey": null,
        "Canonical SMILES": "[F-][B+3]([F-])([F-])[F-].C[N+](C)(C)C",
        "Molecular Formula": "C<sub>4</sub>H<sub>12</sub>N.BF<sub>4</sub>",
        "Molecular Mass": "",
        "Melting Point": "310 °C"
    }
}