{
    "cas_no": "21740-23-8",
    "key_name": "α-<span class=\"text-smallcaps\">D</span>-<em>erythro</em>-Pentofuranosyl chloride, 2-deoxy-, 3,5-bis(4-chlorobenzoate)",
    "cn_name": "1-氯-2-脱氧-3,5-二-O-对氯苯甲酰基-D-核糖;",
    "alternate_name": "α-<span class=\"text-smallcaps\">D</span>-<em>erythro</em>-Pentofuranosyl chloride, 2-deoxy-, 3,5-bis(4-chlorobenzoate);<span class=\"text-smallcaps\">D</span>-<em>erythro</em>-Pentofuranosyl chloride, 2-deoxy-, bis(<em>p</em>-chlorobenzoate), α-;α-<span class=\"text-smallcaps\">D</span>-<em>erythro</em>-Pentofuranosyl chloride, 2-deoxy-, bis(4-chlorobenzoate);Benzoic acid, <em>p</em>-chloro-, diester with 2-deoxy-α-<span class=\"text-smallcaps\">D</span>-<em>erythro</em>-pentofuranosyl chloride;2-Deoxy-3,5-di-<em>O</em>-(<em>p</em>-chlorobenzoyl)-α-<span class=\"text-smallcaps\">D</span>-<em>erythro</em>-pentofuranosyl chloride;2-Deoxy-3,5-di-<em>O</em>-(<em>p</em>-chlorobenzoyl)-α-<span class=\"text-smallcaps\">D</span>-ribofuranosyl chloride;1-Chloro-2-deoxy-3,5-<em>O</em>-bis(<em>p</em>-chlorobenzoyl)-α-<span class=\"text-smallcaps\">D</span>-<em>erythro</em>-pentofuranose;3,5-<em>O</em>-Bis(<em>p</em>-chlorobenzoyl)-2-deoxy-α-<span class=\"text-smallcaps\">D</span>-ribofuranosyl chloride;3,5-Bis(4-chlorobenzoyl)-2-deoxy-α-<span class=\"text-smallcaps\">D</span>-ribofuranosyl chloride;3,5-Di-<em>O</em>-(<em>p</em>-chlorobenzoyl)-2-deoxy-α-<span class=\"text-smallcaps\">D</span>-<em>erythro</em>-pentofuranosyl chloride;NSC 140594",
    "duplicated_cas_no": "",
    "SMILES": "C(OC(=O)C1=CC=C(Cl)C=C1)[C@@H]2[C@@H](OC(=O)C3=CC=C(Cl)C=C3)C[C@@H](Cl)O2",
    "meta_data": {
        "InChI": "InChI=1S/C19H15Cl3O5/c20-13-5-1-11(2-6-13)18(23)25-10-16-15(9-17(22)26-16)27-19(24)12-3-7-14(21)8-4-12/h1-8,15-17H,9-10H2/t15-,16+,17-/m0/s1",
        "InChIKey": null,
        "Canonical SMILES": "O=C(OCC1OC(Cl)CC1OC(=O)C2=CC=C(Cl)C=C2)C3=CC=C(Cl)C=C3",
        "Molecular Formula": "C<sub>19</sub>H<sub>15</sub>Cl<sub>3</sub>O<sub>5</sub>",
        "Molecular Mass": "429.68",
        "Melting Point": "130-131 °C"
    }
}