{
    "cas_no": "1951-26-4",
    "key_name": "(2-Butyl-3-benzofuranyl)(4-hydroxy-3,5-diiodophenyl)methanone",
    "cn_name": "2-丁基-3-(3,5-二碘-4-羟基苯甲酰)苯并呋喃;",
    "alternate_name": "Methanone, (2-butyl-3-benzofuranyl)(4-hydroxy-3,5-diiodophenyl)-;Ketone, 2-butyl-3-benzofuranyl 4-hydroxy-3,5-diiodophenyl;(2-Butyl-3-benzofuranyl)(4-hydroxy-3,5-diiodophenyl)methanone;S 1086;L 3373;NSC 85437;(2-Butyl-1-benzofuran-3-yl)-(4-hydroxy-3,5-diiodophenyl)methanone;2-Butyl-3-(3,5-diiodo-4-hydroxybenzoyl)benzofuran;(2-Butylbenzofuran-3-yl)(3,5-diiodo-4-hydroxyphenyl)methanone",
    "duplicated_cas_no": "",
    "SMILES": "C(=O)(C=1C=2C(OC1CCCC)=CC=CC2)C3=CC(I)=C(O)C(I)=C3",
    "meta_data": {
        "InChI": "InChI=1S/C19H16I2O3/c1-2-3-7-16-17(12-6-4-5-8-15(12)24-16)18(22)11-9-13(20)19(23)14(21)10-11/h4-6,8-10,23H,2-3,7H2,1H3",
        "InChIKey": null,
        "Canonical SMILES": "O=C(C1=CC(I)=C(O)C(I)=C1)C=2C=3C=CC=CC3OC2CCCC",
        "Molecular Formula": "C<sub>19</sub>H<sub>16</sub>I<sub>2</sub>O<sub>3</sub>",
        "Molecular Mass": "546.14",
        "Melting Point": "146.4-146.9 °C"
    }
}