{
    "cas_no": "98266-33-2",
    "key_name": "(α<em>R</em>)-α-[[(1,1-Dimethylethoxy)carbonyl]amino]-3-pyridinepropanoic acid",
    "cn_name": "Boc-3-(3-吡啶基)-D-丙氨酸;N-叔丁氧羰基-3-pyridyl-D-丙氨酸;",
    "alternate_name": "3-Pyridinepropanoic acid, α-[[(1,1-dimethylethoxy)carbonyl]amino]-, (α<em>R</em>)-;3-Pyridinepropanoic acid, α-[[(1,1-dimethylethoxy)carbonyl]amino]-, (<em>R</em>)-;(α<em>R</em>)-α-[[(1,1-Dimethylethoxy)carbonyl]amino]-3-pyridinepropanoic acid;3-Pyridinepropanoic acid α-[[(1,1-dimethylethoxy)carbonyl]amino]-, (αR)-",
    "duplicated_cas_no": "",
    "SMILES": "[C@H](CC=1C=CC=NC1)(NC(OC(C)(C)C)=O)C(O)=O",
    "meta_data": {
        "InChI": "InChI=1S/C13H18N2O4/c1-13(2,3)19-12(18)15-10(11(16)17)7-9-5-4-6-14-8-9/h4-6,8,10H,7H2,1-3H3,(H,15,18)(H,16,17)/t10-/m1/s1",
        "InChIKey": null,
        "Canonical SMILES": "O=C(OC(C)(C)C)NC(C(=O)O)CC=1C=NC=CC1",
        "Molecular Formula": "C<sub>13</sub>H<sub>18</sub>N<sub>2</sub>O<sub>4</sub>",
        "Molecular Mass": "266.29",
        "Melting Point": "113-115 °C"
    }
}