{
    "cas_no": "520-31-0",
    "key_name": "Tricetin",
    "cn_name": "5,7,3\",4\",5\"-五羟基黄酮;",
    "alternate_name": "4<em>H</em>-1-Benzopyran-4-one, 5,7-dihydroxy-2-(3,4,5-trihydroxyphenyl)-;Flavone, 3′,4′,5,5′,7-pentahydroxy-;5,7-Dihydroxy-2-(3,4,5-trihydroxyphenyl)-4<em>H</em>-1-benzopyran-4-one;5,7,3′,4′,5′-Pentahydroxyflavone;Tricetin",
    "duplicated_cas_no": "",
    "SMILES": "O=C1C=2C(OC(=C1)C3=CC(O)=C(O)C(O)=C3)=CC(O)=CC2O",
    "meta_data": {
        "InChI": "InChI=1S/C15H10O7/c16-7-3-8(17)14-9(18)5-12(22-13(14)4-7)6-1-10(19)15(21)11(20)2-6/h1-5,16-17,19-21H",
        "InChIKey": null,
        "Canonical SMILES": "O=C1C=C(OC=2C=C(O)C=C(O)C12)C=3C=C(O)C(O)=C(O)C3",
        "Molecular Formula": "C<sub>15</sub>H<sub>10</sub>O<sub>7</sub>",
        "Molecular Mass": "302.24",
        "Melting Point": "&gt;330 °C (decomp)"
    }
}