{
    "cas_no": "574-92-5",
    "key_name": "4-Hydroxy-7-(trifluoromethyl)-3-quinolinecarboxylic acid",
    "cn_name": "4-羟基-7-三氟甲基-3-喹啉羧酸;",
    "alternate_name": "3-Quinolinecarboxylic acid, 4-hydroxy-7-(trifluoromethyl)-;4-Hydroxy-7-(trifluoromethyl)-3-quinolinecarboxylic acid;3-Carboxy-4-hydroxy-7-trifluoromethylquinoline;7-Trifluoromethyl-4-hydroxyquinoline-3-carboxylic acid",
    "duplicated_cas_no": "",
    "SMILES": "OC=1C2=C(C=C(C(F)(F)F)C=C2)N=CC1C(O)=O",
    "meta_data": {
        "InChI": "InChI=1S/C11H6F3NO3/c12-11(13,14)5-1-2-6-8(3-5)15-4-7(9(6)16)10(17)18/h1-4H,(H,15,16)(H,17,18)",
        "InChIKey": null,
        "Canonical SMILES": "O=C(O)C1=CN=C2C=C(C=CC2=C1O)C(F)(F)F",
        "Molecular Formula": "C<sub>11</sub>H<sub>6</sub>F<sub>3</sub>NO<sub>3</sub>",
        "Molecular Mass": "257.17",
        "Melting Point": "250 °C (decomp)"
    }
}