{
    "cas_no": "33135-50-1",
    "key_name": "<span class=\"text-smallcaps\">L</span>-Lactide homopolymer",
    "cn_name": null,
    "alternate_name": "1,4-Dioxane-2,5-dione, 3,6-dimethyl-, (3<em>S</em>,6<em>S</em>)-, homopolymer;1,4-Dioxane-2,5-dione, 3,6-dimethyl-, (3<em>S</em>-<em>cis</em>)-, homopolymer;<em>p</em>-Dioxane-2,5-dione, 3,6-dimethyl-, (<em>S</em>,<em>S</em>)-, polyesters;Poly-<span class=\"text-smallcaps\">L</span>-lactide;<span class=\"text-smallcaps\">L</span>-Lactide polymer;<span class=\"text-smallcaps\">L</span>-Polylactide;(<em>S</em>)-Lactide homopolymer;<span class=\"text-smallcaps\">L</span>-Lactide homopolymer;<span class=\"text-smallcaps\">L</span>-Dilactide homopolymer;Isotactic polylactide;l-Lactide polymer;Purasorb L homopolymer;<span class=\"text-smallcaps\">L</smallcap>,<smallcap>L</span>-Dilactide homopolymer;<span class=\"text-smallcaps\">L</smallcap><smallcap>L</span>-Lactide homopolymer;Resomer L 210S;Poly(L-lactide);Resomer L 214S;<span class=\"text-smallcaps\">L</span>-Lactide isotactic homopolymer",
    "duplicated_cas_no": "27306-31-6;31015-49-3;122405-28-1;749900-73-0;1801862-68-9;2750031-62-8",
    "SMILES": "C[C@H]1C(=O)O[C@@H](C)C(=O)O1",
    "meta_data": {
        "InChI": "InChI=1S/C6H8O4/c1-3-5(7)10-4(2)6(8)9-3/h3-4H,1-2H3/t3-,4-/m0/s1",
        "InChIKey": null,
        "Canonical SMILES": "O=C1OC(C(=O)OC1C)C",
        "Molecular Formula": "(C<sub>6</sub>H<sub>8</sub>O<sub>4</sub>)<sub>x</sub>",
        "Molecular Mass": "",
        "Melting Point": "153 °C",
        "Density": "1.27 g/cm³"
    }
}