{
    "cas_no": "302-23-8",
    "key_name": "Progesterone acetate",
    "cn_name": "醋酸羟孕酮;羟孕酮醋酸酯;醋酸孕酮;",
    "alternate_name": "Pregn-4-ene-3,20-dione, 17-(acetyloxy)-;Pregn-4-ene-3,20-dione, 17-hydroxy-, acetate;Progesterone, 17-hydroxy-, acetate;17-(Acetyloxy)pregn-4-ene-3,20-dione;17-Acetoxyprogesterone;17α-Hydroxypregn-4-ene-3,20-dione acetate;U 5533;17-Hydroxyprogesterone acetate;17α-Hydroxy-4-pregnene-3,20-dione 17α-acetate;17α-Acetoxypregn-4-ene-3,20-dione;Acetoxyprogesterone;17-Acetoxypregn-4-ene-3,20-dione;17-(Acetyloxy)progesterone;Progesterone acetate;Hydroxyprogesterone acetate;NSC 12191",
    "duplicated_cas_no": "89202-93-7",
    "SMILES": "O(C(C)=O)[C@@]1(C(C)=O)[C@]2(C)[C@@](CC1)([C@]3([C@](CC2)([C@]4(C)C(CC3)=CC(=O)CC4)[H])[H])[H]",
    "meta_data": {
        "InChI": "InChI=1S/C23H32O4/c1-14(24)23(27-15(2)25)12-9-20-18-6-5-16-13-17(26)7-10-21(16,3)19(18)8-11-22(20,23)4/h13,18-20H,5-12H2,1-4H3/t18-,19+,20+,21+,22+,23+/m1/s1",
        "InChIKey": null,
        "Canonical SMILES": "O=C(OC1(C(=O)C)CCC2C3CCC4=CC(=O)CCC4(C)C3CCC21C)C",
        "Molecular Formula": "C<sub>23</sub>H<sub>32</sub>O<sub>4</sub>",
        "Molecular Mass": "372.50",
        "Melting Point": "243-244.5 °C"
    }
}