{
    "cas_no": "67984-81-0",
    "key_name": "2,3-Dihydroxybenzonitrile",
    "cn_name": "2,3-二羟基苯甲腈;",
    "alternate_name": "Benzonitrile, 2,3-dihydroxy-;<em>o</em>-Pyrocatechunitrile;2,3-Dihydroxybenzonitrile",
    "duplicated_cas_no": "",
    "SMILES": "C(#N)C1=C(O)C(O)=CC=C1",
    "meta_data": {
        "InChI": "InChI=1S/C7H5NO2/c8-4-5-2-1-3-6(9)7(5)10/h1-3,9-10H",
        "InChIKey": null,
        "Canonical SMILES": "N#CC=1C=CC=C(O)C1O",
        "Molecular Formula": "C<sub>7</sub>H<sub>5</sub>NO<sub>2</sub>",
        "Molecular Mass": "135.12",
        "Melting Point": "192-193 °C"
    }
}