{
    "cas_no": "598-39-0",
    "key_name": "Ethane, 1,1-difluoro-2-iodo-",
    "cn_name": null,
    "alternate_name": "Ethane, 1,1-difluoro-2-iodo-;1,1-Difluoro-2-iodoethane;2,2-Difluoroethyl iodide;1-Iodo-2,2-difluoroethane;2-Iodo-1,1-difluoroethane",
    "duplicated_cas_no": "",
    "SMILES": "C(CI)(F)F",
    "meta_data": {
        "InChI": "InChI=1S/C2H3F2I/c3-2(4)1-5/h2H,1H2",
        "InChIKey": null,
        "Canonical SMILES": "FC(F)CI",
        "Molecular Formula": "C<sub>2</sub>H<sub>3</sub>F<sub>2</sub>I",
        "Molecular Mass": "191.95",
        "Boiling Point": "86.8-87.1 °C @ Press: 740 Torr",
        "Density": "2.18 g/cm³ @ Temp: 25 °C"
    }
}