{
    "cas_no": "5751-20-2",
    "key_name": "2-(Methylthio)-4(3<em>H</em>)-pyrimidinone",
    "cn_name": "2-甲硫基-4-嘧啶酮;",
    "alternate_name": "4(3<em>H</em>)-Pyrimidinone, 2-(methylthio)-;4(1<em>H</em>)-Pyrimidinone, 2-(methylthio)-;4-Pyrimidinol, 2-(methylthio)-;2-(Methylthio)-4(3<em>H</em>)-pyrimidinone;2-Methylthiouracil;2-(Methylthio)-4-pyrimidone;4-Hydroxy-2-(methylthio)pyrimidine;2-(Methylthio)-4(1<em>H</em>)-pyrimidinone;2-(Methylthio)-4-pyrimidinone;2-(Methylthio)-4-pyrimidinol;2-Methylthio-4-hydroxypyrimidine;NSC 125339;NSC 165518;2-Methylsulfanylpyrimidin-4-ol;2-Methylthio-3<em>H</em>-pyrimidin-4-one;2-Methylsulfanyl-3<em>H</em>-pyrimidin-4-one;2-(Methylthio)pyrimidine-4(3<em>H</em>)-one;2-Methylsulfanyl-1<em>H</em>-pyrimidin-6-one",
    "duplicated_cas_no": "20651-23-4;124700-69-2",
    "SMILES": "S(C)C=1NC(=O)C=CN1",
    "meta_data": {
        "InChI": "InChI=1S/C5H6N2OS/c1-9-5-6-3-2-4(8)7-5/h2-3H,1H3,(H,6,7,8)",
        "InChIKey": null,
        "Canonical SMILES": "O=C1C=CN=C(SC)N1",
        "Molecular Formula": "C<sub>5</sub>H<sub>6</sub>N<sub>2</sub>OS",
        "Molecular Mass": "142.18",
        "Melting Point": "199 °C"
    }
}