{
    "cas_no": "871332-81-9",
    "key_name": "<em>B</em>-[3-Nitro-5-(1-pyrrolidinylcarbonyl)phenyl]boronic acid",
    "cn_name": null,
    "alternate_name": "Boronic acid, <em>B</em>-[3-nitro-5-(1-pyrrolidinylcarbonyl)phenyl]-;Boronic acid, [3-nitro-5-(1-pyrrolidinylcarbonyl)phenyl]-;<em>B</em>-[3-Nitro-5-(1-pyrrolidinylcarbonyl)phenyl]boronic acid;(3-Nitro-5-(pyrrolidine-1-carbonyl)phenyl)boronicacid;(3-Nitro-5-(pyrrolidine-1-carbonyl)phenyl)boronic acid",
    "duplicated_cas_no": "",
    "SMILES": "C(=O)(C1=CC(B(O)O)=CC(N(=O)=O)=C1)N2CCCC2",
    "meta_data": {
        "InChI": "InChI=1S/C11H13BN2O5/c15-11(13-3-1-2-4-13)8-5-9(12(16)17)7-10(6-8)14(18)19/h5-7,16-17H,1-4H2",
        "InChIKey": null,
        "Canonical SMILES": "O=C(C1=CC(=CC(=C1)N(=O)=O)B(O)O)N2CCCC2",
        "Molecular Formula": "C<sub>11</sub>H<sub>13</sub>BN<sub>2</sub>O<sub>5</sub>",
        "Molecular Mass": "264.04",
        "Melting Point": "177.2 °C"
    }
}