{
    "cas_no": "24358-43-8",
    "key_name": "3-Chloro-α-methylbenzenemethanamine",
    "cn_name": null,
    "alternate_name": "Benzenemethanamine, 3-chloro-α-methyl-;Benzylamine, <em>m</em>-chloro-α-methyl-;3-Chloro-α-methylbenzenemethanamine;1-(3-Chlorophenyl)ethanamine;1-(3-Chlorophenyl)-1-ethanamine;1-(3-Chlorophenyl)ethylamine",
    "duplicated_cas_no": "147200-14-4",
    "SMILES": "C(C)(N)C1=CC(Cl)=CC=C1",
    "meta_data": {
        "InChI": "InChI=1S/C8H10ClN/c1-6(10)7-3-2-4-8(9)5-7/h2-6H,10H2,1H3",
        "InChIKey": null,
        "Canonical SMILES": "ClC1=CC=CC(=C1)C(N)C",
        "Molecular Formula": "C<sub>8</sub>H<sub>10</sub>ClN",
        "Molecular Mass": "155.62",
        "Boiling Point": "95-97 °C @ Press: 8 Torr"
    }
}