{
    "cas_no": "69-33-0",
    "key_name": "Tubercidin",
    "cn_name": "杀结核菌素;",
    "alternate_name": "7<em>H</em>-Pyrrolo[2,3-<em>d</em>]pyrimidin-4-amine, 7-β-<span class=\"text-smallcaps\">D</span>-ribofuranosyl-;Tubercidin;7<em>H</em>-Pyrrolo[2,3-<em>d</em>]pyrimidine, 4-amino-7-β-<span class=\"text-smallcaps\">D</span>-ribofuranosyl-;7-β-<span class=\"text-smallcaps\">D</span>-Ribofuranosyl-7<em>H</em>-pyrrolo[2,3-<em>d</em>]pyrimidin-4-amine;Adenosine, 7-deaza-;7-Deazaadenosine;Sparsomycin A;Tubercidine;U 10071;6-Amino-9-<span class=\"text-smallcaps\">D</span>-ribofuranosyl-7-desazapurine;NSC 56408;4-Amino-7-(β-<span class=\"text-smallcaps\">D</span>-ribofuranosyl)pyrrolo[2,3-<em>d</em>]pyrimidine;Antibiotic XK 101-1;<em>N</em><sup>7</sup>-Deazaadenosine;Sparsamycin A;NQZ-003;MeSH ID: D014372",
    "duplicated_cas_no": "",
    "SMILES": "O[C@H]1[C@H](N2C=3C(C=C2)=C(N)N=CN3)O[C@H](CO)[C@H]1O",
    "meta_data": {
        "InChI": "InChI=1S/C11H14N4O4/c12-9-5-1-2-15(10(5)14-4-13-9)11-8(18)7(17)6(3-16)19-11/h1-2,4,6-8,11,16-18H,3H2,(H2,12,13,14)/t6-,7-,8-,11-/m1/s1",
        "InChIKey": null,
        "Canonical SMILES": "OCC1OC(N2C=CC=3C(=NC=NC32)N)C(O)C1O",
        "Molecular Formula": "C<sub>11</sub>H<sub>14</sub>N<sub>4</sub>O<sub>4</sub>",
        "Molecular Mass": "266.25",
        "Melting Point": "247-248 °C (decomp)"
    }
}