{
    "cas_no": "4578-58-9",
    "key_name": "4,5-Dihydro-6-methyl-2-phenyl-3(2<em>H</em>)-pyridazinone",
    "cn_name": null,
    "alternate_name": "3(2<em>H</em>)-Pyridazinone, 4,5-dihydro-6-methyl-2-phenyl-;4,5-Dihydro-6-methyl-2-phenyl-3(2<em>H</em>)-pyridazinone;3(2<em>H</em>)-Pyridazin-3-one, 4,5-dihydro-6-methyl-2-phenyl-;NSC 50989;NSC 634580",
    "duplicated_cas_no": "",
    "SMILES": "O=C1N(N=C(C)CC1)C2=CC=CC=C2",
    "meta_data": {
        "InChI": "InChI=1S/C11H12N2O/c1-9-7-8-11(14)13(12-9)10-5-3-2-4-6-10/h2-6H,7-8H2,1H3",
        "InChIKey": null,
        "Canonical SMILES": "O=C1N(N=C(C)CC1)C=2C=CC=CC2",
        "Molecular Formula": "C<sub>11</sub>H<sub>12</sub>N<sub>2</sub>O",
        "Molecular Mass": "188.23",
        "Melting Point": "105-106 °C"
    }
}