{
    "cas_no": "2986-19-8",
    "key_name": "Methylisothiourea",
    "cn_name": null,
    "alternate_name": "Carbamimidothioic acid, methyl ester;Pseudourea, 2-methyl-2-thio-;2-Methyl-2-thiopseudourea;Methylisothiourea;<em>S</em>-Methylisothiourea;<em>S</em>-Methylthiopseudourea;2-Methylpseudothiourea;2-Methylisothiourea;Methylisothiuronium;Methylthiopseudourea;<em>S</em>-Methylthiourea;<em>S</em>-Methylpseudothiourea;2-Methyl-2-pseudothiourea;2-Methylthiourea;Methyl carbamimidothioate;(Methylsulfanyl)methanimidamide",
    "duplicated_cas_no": "53212-69-4;72046-62-9",
    "SMILES": "C(SC)(=N)N",
    "meta_data": {
        "InChI": "InChI=1S/C2H6N2S/c1-5-2(3)4/h1H3,(H3,3,4)",
        "InChIKey": null,
        "Canonical SMILES": "N=C(SC)N",
        "Molecular Formula": "C<sub>2</sub>H<sub>6</sub>N<sub>2</sub>S",
        "Molecular Mass": "90.15",
        "Melting Point": "244 °C (decomp)"
    }
}