{
    "cas_no": "2051-78-7",
    "key_name": "Allyl butyrate",
    "cn_name": "丁酸烯丙酯;",
    "alternate_name": "Butanoic acid, 2-propen-1-yl ester;Butyric acid, allyl ester;Butanoic acid, 2-propenyl ester;Allyl butyrate;2-Propenyl butanoate;NSC 18600;Allyl butanoate",
    "duplicated_cas_no": "",
    "SMILES": "C(OCC=C)(CCC)=O",
    "meta_data": {
        "InChI": "InChI=1S/C7H12O2/c1-3-5-7(8)9-6-4-2/h4H,2-3,5-6H2,1H3",
        "InChIKey": null,
        "Canonical SMILES": "O=C(OCC=C)CCC",
        "Molecular Formula": "C<sub>7</sub>H<sub>12</sub>O<sub>2</sub>",
        "Molecular Mass": "128.17",
        "Boiling Point": "142 °C",
        "Melting Point": "-80 °C",
        "Density": "0.894 g/cm³ @ Temp: 25 °C"
    }
}