{
    "cas_no": "29216-28-2",
    "key_name": "Mequitazine",
    "cn_name": "美喹他嗪;10-(1-氮杂双环[2.2.2]辛烷-3-基甲基)-10H-吩噻嗪;",
    "alternate_name": "10<em>H</em>-Phenothiazine, 10-(1-azabicyclo[2.2.2]oct-3-ylmethyl)-;Phenothiazine, 10-(3-quinuclidinylmethyl)-;10-(1-Azabicyclo[2.2.2]oct-3-ylmethyl)-10<em>H</em>-phenothiazine;LM 209;Mequitazine;Nipolazin;Mircol;Metaplexan;Zesulan;Primalan;Butix;NSC 303612;Quitadrill;10-(1-Azabicyclo[2.2.2]octan-3-ylmethyl)phenothiazine;10-(Quinuclidin-3-ylmethyl)phenothiazine",
    "duplicated_cas_no": "",
    "SMILES": "C(N1C=2C(SC=3C1=CC=CC3)=CC=CC2)C4C5CCN(C4)CC5",
    "meta_data": {
        "InChI": "InChI=1S/C20H22N2S/c1-3-7-19-17(5-1)22(18-6-2-4-8-20(18)23-19)14-16-13-21-11-9-15(16)10-12-21/h1-8,15-16H,9-14H2",
        "InChIKey": null,
        "Canonical SMILES": "S1C=2C=CC=CC2N(C=3C=CC=CC13)CC4CN5CCC4CC5",
        "Molecular Formula": "C<sub>20</sub>H<sub>22</sub>N<sub>2</sub>S",
        "Molecular Mass": "322.47",
        "Melting Point": "130.5 °C"
    }
}