{
    "cas_no": "7659-29-2",
    "key_name": "3,5-Dinitrocatechol",
    "cn_name": "3,5-二硝兒茶酚;",
    "alternate_name": "1,2-Benzenediol, 3,5-dinitro-;Pyrocatechol, 3,5-dinitro-;3,5-Dinitro-1,2-benzenediol;3,5-Dinitropyrocatechol;3,5-Dinitrocatechol;1,2-Dihydroxy-3,5-dinitrobenzene;OR 486",
    "duplicated_cas_no": "",
    "SMILES": "N(=O)(=O)C1=CC(N(=O)=O)=CC(O)=C1O",
    "meta_data": {
        "InChI": "InChI=1S/C6H4N2O6/c9-5-2-3(7(11)12)1-4(6(5)10)8(13)14/h1-2,9-10H",
        "InChIKey": null,
        "Canonical SMILES": "O=N(=O)C1=CC(O)=C(O)C(=C1)N(=O)=O",
        "Molecular Formula": "C<sub>6</sub>H<sub>4</sub>N<sub>2</sub>O<sub>6</sub>",
        "Molecular Mass": "200.11",
        "Melting Point": "166-166.5 °C"
    }
}