{
    "cas_no": "592-51-8",
    "key_name": "4-Pentenenitrile",
    "cn_name": "4-戊烯腈;",
    "alternate_name": "4-Pentenenitrile;4-Cyano-1-butene;3-Butenyl cyanide;4-Pentenonitrile",
    "duplicated_cas_no": "",
    "SMILES": "C(CC#N)C=C",
    "meta_data": {
        "InChI": "InChI=1S/C5H7N/c1-2-3-4-5-6/h2H,1,3-4H2",
        "InChIKey": null,
        "Canonical SMILES": "N#CCCC=C",
        "Molecular Formula": "C<sub>5</sub>H<sub>7</sub>N",
        "Molecular Mass": "81.12",
        "Boiling Point": "140 °C",
        "Melting Point": "138-139 °C",
        "Density": "0.8239 g/cm³ @ Temp: 24 °C"
    }
}