{
    "cas_no": "496864-16-5",
    "key_name": "Aloisine A",
    "cn_name": null,
    "alternate_name": "Phenol, 4-(7-butyl-5<em>H</em>-pyrrolo[2,3-<em>b</em>]pyrazin-6-yl)-;Phenol, 4-(7-butyl-4<em>H</em>-pyrrolo[2,3-<em>b</em>]pyrazin-6-yl)-;4-(7-Butyl-5<em>H</em>-pyrrolo[2,3-<em>b</em>]pyrazin-6-yl)phenol;7-butyl-6-(4-hydroxyphenyl)-5H-pyrrolo[2,3-b]pyrazine;Aloisine A",
    "duplicated_cas_no": "",
    "SMILES": "C(CCC)C1=C(NC=2C1=NC=CN2)C3=CC=C(O)C=C3",
    "meta_data": {
        "InChI": "InChI=1S/C16H17N3O/c1-2-3-4-13-14(11-5-7-12(20)8-6-11)19-16-15(13)17-9-10-18-16/h5-10,20H,2-4H2,1H3,(H,18,19)",
        "InChIKey": null,
        "Canonical SMILES": "OC1=CC=C(C=C1)C=2NC=3N=CC=NC3C2CCCC",
        "Molecular Formula": "C<sub>16</sub>H<sub>17</sub>N<sub>3</sub>O",
        "Molecular Mass": "267.33",
        "Melting Point": "281.4 °C"
    }
}