{
    "cas_no": "4510-08-1",
    "key_name": "<span class=\"text-smallcaps\">L</span>-Methioninamide",
    "cn_name": null,
    "alternate_name": "Butanamide, 2-amino-4-(methylthio)-, (2<em>S</em>)-;Methioninamide, <span class=\"text-smallcaps\">L</span>-;Butanamide, 2-amino-4-(methylthio)-, (<em>S</em>)-;(2<em>S</em>)-2-Amino-4-(methylthio)butanamide;<span class=\"text-smallcaps\">L</span>-Methioninamide;<span class=\"text-smallcaps\">L</span>-Methionine amide;Methioninamide;(2S)-2-Amino-4-methylsulfanylbutanamide;(2S)-2-Amino-4-(methylsulfanyl)butanamide",
    "duplicated_cas_no": "",
    "SMILES": "[C@@H](C(N)=O)(CCSC)N",
    "meta_data": {
        "InChI": "InChI=1S/C5H12N2OS/c1-9-3-2-4(6)5(7)8/h4H,2-3,6H2,1H3,(H2,7,8)/t4-/m0/s1",
        "InChIKey": null,
        "Canonical SMILES": "O=C(N)C(N)CCSC",
        "Molecular Formula": "C<sub>5</sub>H<sub>12</sub>N<sub>2</sub>OS",
        "Molecular Mass": "148.23",
        "Melting Point": "234 °C"
    }
}