{
    "cas_no": "556-22-9",
    "key_name": "Glyodin",
    "cn_name": null,
    "alternate_name": "1<em>H</em>-Imidazole, 2-heptadecyl-4,5-dihydro-, acetate (1:1);2-Imidazoline, 2-heptadecyl-, monoacetate;1<em>H</em>-Imidazole, 2-heptadecyl-4,5-dihydro-, monoacetate;Crag Fruit Fungicide 341;Experimental Fungicide 341;Glyodin;Glyodin acetate;Glyoxide Dry;2-Heptadecyl-2-imidazoline acetate;Crag 341;NSC 48529",
    "duplicated_cas_no": "100016-60-2;137955-72-7",
    "SMILES": "C(CCCCCCCCCCCCCCCC)C=1NCCN1.C(C)(O)=O",
    "meta_data": {
        "InChI": "InChI=1S/C20H40N2.C2H4O2/c1-2-3-4-5-6-7-8-9-10-11-12-13-14-15-16-17-20-21-18-19-22-20;1-2(3)4/h2-19H2,1H3,(H,21,22);1H3,(H,3,4)",
        "InChIKey": null,
        "Canonical SMILES": "O=C(O)C.N1=C(NCC1)CCCCCCCCCCCCCCCCC",
        "Molecular Formula": "C<sub>20</sub>H<sub>40</sub>N<sub>2</sub>.C<sub>2</sub>H<sub>4</sub>O<sub>2</sub>",
        "Molecular Mass": "",
        "Melting Point": "65 °C"
    }
}