{
    "cas_no": "623-84-7",
    "key_name": "Propylene glycol diacetate",
    "cn_name": "1,2-丙二醇二乙酸酯;",
    "alternate_name": "1,2-Propanediol, 1,2-diacetate;1,2-Propanediol, diacetate;Propylene glycol diacetate;α-Propylene glycol diacetate;1,2-Propylene diacetate;Methylethylene acetate;Methylethylene diacetate;1,2-Diacetoxypropane;1,2-Propylene glycol diacetate;Propylene acetate;Propylene diacetate;Dowanol PGDA;(±)-1,2-Diacetoxypropane;NSC 75843;PGDA (solvent);PDGA;2-Acetyloxypropyl acetate",
    "duplicated_cas_no": "134236-23-0;1432741-27-9",
    "SMILES": "C(COC(C)=O)(OC(C)=O)C",
    "meta_data": {
        "InChI": "InChI=1S/C7H12O4/c1-5(11-7(3)9)4-10-6(2)8/h5H,4H2,1-3H3",
        "InChIKey": null,
        "Canonical SMILES": "O=C(OCC(OC(=O)C)C)C",
        "Molecular Formula": "C<sub>7</sub>H<sub>12</sub>O<sub>4</sub>",
        "Molecular Mass": "160.17",
        "Boiling Point": "190 °C @ Press: 762 Torr",
        "Density": "1.059 g/cm³ @ Temp: 20 °C"
    }
}