{
    "cas_no": "2265-94-3",
    "key_name": "1,3-Difluoro-5-nitrobenzene",
    "cn_name": "3,5-二氟硝基苯;",
    "alternate_name": "Benzene, 1,3-difluoro-5-nitro-;1,3-Difluoro-5-nitrobenzene;3,5-Difluoronitrobenzene;3,5-Difluoro-1-nitrobenzene;NSC 10260",
    "duplicated_cas_no": "",
    "SMILES": "N(=O)(=O)C1=CC(F)=CC(F)=C1",
    "meta_data": {
        "InChI": "InChI=1S/C6H3F2NO2/c7-4-1-5(8)3-6(2-4)9(10)11/h1-3H",
        "InChIKey": null,
        "Canonical SMILES": "O=N(=O)C=1C=C(F)C=C(F)C1",
        "Molecular Formula": "C<sub>6</sub>H<sub>3</sub>F<sub>2</sub>NO<sub>2</sub>",
        "Molecular Mass": "159.09",
        "Boiling Point": "176.5 °C",
        "Melting Point": "17 °C"
    }
}