{
    "cas_no": "25103-87-1",
    "key_name": "Adipic acid-1,4-butanediol copolymer",
    "cn_name": null,
    "alternate_name": "Hexanedioic acid, polymer with 1,4-butanediol;Adipic acid, polyester with 1,4-butanediol;Adipic acid, esters (poly-) with 1,4-butanediol;1,4-Butanediol, polyester with adipic acid;1,4-Butanediol, polymer with hexanedioic acid;Poly(tetramethylene adipate);Poly(1,4-butylene adipate);Poly(butylene adipate);Adipic acid-1,4-butanediol copolymer;Poly(1,4-butanediol adipate);Adipic acid-butanediol polymer;Adipic acid-1,4-butanediol polymer;Butylene adipate polymer;Butylene glycol-adipic acid copolymer;PBAG;Adipic acid-1,4-butylene glycol polymer;Adipic acid-tetramethylene glycol polymer;Adipic acid-1,4-butanediol polyester;Adipic acid-butylene glycol polymer;Adipic acid-tetramethylene glycol copolymer;Adipic acid-1,4-butanediol copolymers;Adipic acid-butylene glycol copolymer;Adipic acid-butanediol copolymer;Adipic acid-1,4-butylene glycol copolymer;1,4-Butanediol-hexanedioic acid copolymer;S 102250;1,4-Butanediol-adipic acid copolymer;Polybutylene adipate glycol copolymer;1,4-Butylene-adipate glycol copolymer;1,4-Butanediol-1,6-hexanedioic acid copolymer;Butanediol-adipic acid copolymer",
    "duplicated_cas_no": "105866-32-8;1401923-69-0",
    "SMILES": "C(CCC(O)=O)CC(O)=O.C(CCO)CO",
    "meta_data": {
        "InChI": "InChI=1S/C6H10O4.C4H10O2/c7-5(8)3-1-2-4-6(9)10;5-3-1-2-4-6/h1-4H2,(H,7,8)(H,9,10);5-6H,1-4H2",
        "InChIKey": null,
        "Canonical SMILES": "O=C(O)CCCCC(=O)O.OCCCCO",
        "Molecular Formula": "(C<sub>6</sub>H<sub>10</sub>O<sub>4</sub>.C<sub>4</sub>H<sub>10</sub>O<sub>2</sub>)<sub>x</sub>",
        "Molecular Mass": "",
        "Melting Point": "58 °C"
    }
}