{
    "cas_no": "501-98-4",
    "key_name": "<em>trans</em>-4-Hydroxycinnamic acid",
    "cn_name": "4-羟基肉桂酸;对羟基肉桂酸;对羟基苯基丙烯酸;对香豆酸;",
    "alternate_name": "2-Propenoic acid, 3-(4-hydroxyphenyl)-, (2<em>E</em>)-;Cinnamic acid, <em>p</em>-hydroxy-, (<em>E</em>)-;2-Propenoic acid, 3-(4-hydroxyphenyl)-, (<em>E</em>)-;(2<em>E</em>)-3-(4-Hydroxyphenyl)-2-propenoic acid;Naringeninic acid;<em>trans</em>-<em>p</em>-Coumaric acid;(<em>E</em>)-<em>p</em>-Coumaric acid;<em>trans</em>-<em>p</em>-Hydroxycinnamic acid;(<em>E</em>)-<em>p</em>-Hydroxycinnamic acid;<em>trans</em>-4-Hydroxycinnamic acid;<em>p</em>-Hydroxy-<em>trans</em>-cinnamic acid;(<em>E</em>)-3-(4-Hydroxyphenyl)-2-propenoic acid;<em>trans</em>-4-Coumaric acid;<em>p</em>-<em>trans</em>-Coumaric acid;(<em>E</em>)-4-Hydroxycinnamic acid;<em>trans</em>-3-(4-Hydroxyphenyl)-2-propenoic acid;(<em>E</em>)-3-(4-Hydroxyphenyl)acrylic acid;<em>trans</em>-<em>p</em>-Coumarinic acid;(2<em>E</em>)-3-(4-Hydroxyphenyl)prop-2-enoic acid;(E)-3-(4-Hydroxyphenyl)acrylic acid;(E)-<em>p</em>-Coumaric acid",
    "duplicated_cas_no": "",
    "SMILES": "C(=C/C(O)=O)\\C1=CC=C(O)C=C1",
    "meta_data": {
        "InChI": "InChI=1S/C9H8O3/c10-8-4-1-7(2-5-8)3-6-9(11)12/h1-6,10H,(H,11,12)/b6-3+",
        "InChIKey": null,
        "Canonical SMILES": "O=C(O)C=CC1=CC=C(O)C=C1",
        "Molecular Formula": "C<sub>9</sub>H<sub>8</sub>O<sub>3</sub>",
        "Molecular Mass": "164.16",
        "Melting Point": "214 °C (decomp)"
    }
}