{
    "cas_no": "5925-75-7",
    "key_name": "<em>S</em>-Methyl thiopropionate",
    "cn_name": null,
    "alternate_name": "Propanethioic acid, <em>S</em>-methyl ester;Propionic acid, thio-, <em>S</em>-methyl ester;<em>S</em>-Methyl thiopropionate;<em>S</em>-Methyl propanethioate",
    "duplicated_cas_no": "",
    "SMILES": "C(CC)(SC)=O",
    "meta_data": {
        "InChI": "InChI=1S/C4H8OS/c1-3-4(5)6-2/h3H2,1-2H3",
        "InChIKey": null,
        "Canonical SMILES": "O=C(SC)CC",
        "Molecular Formula": "C<sub>4</sub>H<sub>8</sub>OS",
        "Molecular Mass": "104.17",
        "Boiling Point": "120-121 °C @ Press: 760 Torr"
    }
}