{
    "cas_no": "4617-33-8",
    "key_name": "15-Hydroxypentadecanoic acid",
    "cn_name": "15-羟基十酸;15-羟基十酸;",
    "alternate_name": "Pentadecanoic acid, 15-hydroxy-;15-Hydroxypentadecanoic acid;14-Hydroxy-1-tetradecanecarboxylic acid;ω-Hydroxypentadecanoic acid",
    "duplicated_cas_no": "",
    "SMILES": "C(CCCCCCCCCO)CCCCC(O)=O",
    "meta_data": {
        "InChI": "InChI=1S/C15H30O3/c16-14-12-10-8-6-4-2-1-3-5-7-9-11-13-15(17)18/h16H,1-14H2,(H,17,18)",
        "InChIKey": null,
        "Canonical SMILES": "O=C(O)CCCCCCCCCCCCCCO",
        "Molecular Formula": "C<sub>15</sub>H<sub>30</sub>O<sub>3</sub>",
        "Molecular Mass": "258.40",
        "Boiling Point": "174-220 °C @ Press: 4 Torr",
        "Melting Point": "81-82 °C"
    }
}