{
    "cas_no": "514-73-8",
    "key_name": "Dithiazine",
    "cn_name": "碘化噻唑青胺;",
    "alternate_name": "Benzothiazolium, 3-ethyl-2-[5-(3-ethyl-2(3<em>H</em>)-benzothiazolylidene)-1,3-pentadien-1-yl]-, iodide (1:1);3-Ethyl-2-[5-(3-ethyl-2-benzothiazolinylidene)-1,3-pentadienyl]benzothiazolium iodide;Benzothiazolium, 3-ethyl-2-[5-(3-ethyl-2(3<em>H</em>)-benzothiazolylidene)-1,3-pentadienyl]-, iodide;Benzothiazolium, 3-ethyl-2-[5-(3-ethyl-2-benzothiazolinylidene)-1,3-pentadienyl]-, iodide;Abminthic;Anelmid;[2-Bis(3-ethylbenzothiazolyl)]pentamethine cyanine iodide;Compound 01748;Delvex;3,3′-Diethylthiadicarbocyanine iodide;Dilombrin;Dilombrine;Dithiazanine iodide;Netocyd;Partel;Telmid;Telmide;Dithiazanin iodide;3,3′-Diethyl-2,2′-thiadicarbocyanine iodide;3,3′-Diethyldithiacarbodicyanine iodide;NK 136;Dithiazine;Anguifugan;Telmicid;Dejo;Omni-Passin;Diethylthiadicarbocyanine iodide;Eastman 7663;Dithiazine (dye);DTDC;Di-S-C<sub>2</sub>(5);DTDCI;3-Ethyl-2-[5-[3-ethyl-2(3H)-benzothiazolylidene]-1,3-pentadienyl]benzothiazolium iodide;SI 1964;3,3′-Diethylthiadicarbocyanine iodine",
    "duplicated_cas_no": "120103-39-1;1186-69-2;1986-69-2;51895-78-4",
    "SMILES": "C(C)N1C=2C(SC1=CC=CC=CC3=[N+](CC)C=4C(S3)=CC=CC4)=CC=CC2.[I-]",
    "meta_data": {
        "InChI": "InChI=1S/C23H23N2S2.HI/c1-3-24-18-12-8-10-14-20(18)26-22(24)16-6-5-7-17-23-25(4-2)19-13-9-11-15-21(19)27-23;/h5-17H,3-4H2,1-2H3;1H/q+1;/p-1",
        "InChIKey": null,
        "Canonical SMILES": "[I-].S1C=2C=CC=CC2N(C1=CC=CC=CC=3SC=4C=CC=CC4[N+]3CC)CC",
        "Molecular Formula": "C<sub>23</sub>H<sub>23</sub>N<sub>2</sub>S<sub>2</sub>.I",
        "Molecular Mass": "",
        "Melting Point": "248 °C (decomp)"
    }
}