{
    "cas_no": "24085-05-0",
    "key_name": "1-[3-(Chloromethyl)-4-hydroxyphenyl]ethanone",
    "cn_name": null,
    "alternate_name": "Ethanone, 1-[3-(chloromethyl)-4-hydroxyphenyl]-;Acetophenone, 3′-(chloromethyl)-4′-hydroxy-;1-[3-(Chloromethyl)-4-hydroxyphenyl]ethanone;3-(Chloromethyl)-4-hydroxyacetophenone;3′-Chloromethyl-4′-hydroxyacetophenone;3-Chloromethyl-4-hydroxyphenyl methyl ketone;1-[3-(Chloromethyl)-4-hydroxyphenyl]ethan-1-one",
    "duplicated_cas_no": "",
    "SMILES": "C(Cl)C1=CC(C(C)=O)=CC=C1O",
    "meta_data": {
        "InChI": "InChI=1S/C9H9ClO2/c1-6(11)7-2-3-9(12)8(4-7)5-10/h2-4,12H,5H2,1H3",
        "InChIKey": null,
        "Canonical SMILES": "O=C(C1=CC=C(O)C(=C1)CCl)C",
        "Molecular Formula": "C<sub>9</sub>H<sub>9</sub>ClO<sub>2</sub>",
        "Molecular Mass": "184.62",
        "Melting Point": "160 °C (decomp)"
    }
}