{
    "cas_no": "4187-87-5",
    "key_name": "α-Ethynylbenzenemethanol",
    "cn_name": null,
    "alternate_name": "Benzenemethanol, α-ethynyl-;Benzyl alcohol, α-ethynyl-;α-Ethynylbenzenemethanol;1-Phenyl-2-propyn-1-ol;2-Propyn-1-ol, 1-phenyl-;1-Phenylpropargyl alcohol;α-Ethynylbenzyl alcohol;Phenylethynylcarbinol;α-Phenylpropargyl alcohol;Ethynylphenylcarbinol;3-Hydroxy-3-phenylprop-1-yne;1-Phenyl-2-propynol;3-Phenyl-1-propyn-3-ol;(±)-α-Ethynylbenzenemethanol;(±)-1-Phenyl-2-propyn-1-ol;α-Hydroxybenzylacetylene;[(Hydroxy)(phenyl)methyl]acetylene;NSC 4326;3-Hydroxy-3-phenylpropyne;1-Phenyl-1-propargyl alcohol",
    "duplicated_cas_no": "64937-86-6",
    "SMILES": "C(C#C)(O)C1=CC=CC=C1",
    "meta_data": {
        "InChI": "InChI=1S/C9H8O/c1-2-9(10)8-6-4-3-5-7-8/h1,3-7,9-10H",
        "InChIKey": null,
        "Canonical SMILES": "C#CC(O)C=1C=CC=CC1",
        "Molecular Formula": "C<sub>9</sub>H<sub>8</sub>O",
        "Molecular Mass": "132.16",
        "Boiling Point": "114-115 °C @ Press: 18 Torr",
        "Melting Point": "22 °C",
        "Density": "1.053 g/cm³ @ Temp: 12.5 °C"
    }
}