{
    "cas_no": "6038-19-3",
    "key_name": "Homocysteine thiolactone hydrochloride",
    "cn_name": "DL-高半胱氨酸硫内酯盐酸盐;",
    "alternate_name": "2(3<em>H</em>)-Thiophenone, 3-aminodihydro-, hydrochloride (1:1);2(3<em>H</em>)-Thiophenone, 3-aminodihydro-, hydrochloride, (±)-;2(3<em>H</em>)-Thiophenone, 3-aminodihydro-, hydrochloride;<span class=\"text-smallcaps\">DL</span>-Homocysteine thiolactone hydrochloride;Homocysteine thiolactone hydrochloride;HCTL hydrochloride;ADT;NSC 22879;3-Aminodihydrothiophen-2(3<em>H</em>)-one hydrochloride;2-Oxothiolan-3-aminium chloride",
    "duplicated_cas_no": "3622-59-1",
    "SMILES": "NC1C(=O)SCC1.Cl",
    "meta_data": {
        "InChI": "InChI=1S/C4H7NOS.ClH/c5-3-1-2-7-4(3)6;/h3H,1-2,5H2;1H",
        "InChIKey": null,
        "Canonical SMILES": "Cl.O=C1SCCC1N",
        "Molecular Formula": "C<sub>4</sub>H<sub>7</sub>NOS.ClH",
        "Molecular Mass": "",
        "Melting Point": "200 °C (decomp)"
    }
}