{
    "cas_no": "2243-80-3",
    "key_name": "3-Nitrobenzophenone",
    "cn_name": "3-硝基苯甲酮;",
    "alternate_name": "Methanone, (3-nitrophenyl)phenyl-;Benzophenone, 3-nitro-;(3-Nitrophenyl)phenylmethanone;<em>m</em>-Nitrobenzophenone;3-Nitrobenzophenone;NSC 37083",
    "duplicated_cas_no": "",
    "SMILES": "C(=O)(C1=CC(N(=O)=O)=CC=C1)C2=CC=CC=C2",
    "meta_data": {
        "InChI": "InChI=1S/C13H9NO3/c15-13(10-5-2-1-3-6-10)11-7-4-8-12(9-11)14(16)17/h1-9H",
        "InChIKey": null,
        "Canonical SMILES": "O=C(C=1C=CC=CC1)C2=CC=CC(=C2)N(=O)=O",
        "Molecular Formula": "C<sub>13</sub>H<sub>9</sub>NO<sub>3</sub>",
        "Molecular Mass": "227.22",
        "Boiling Point": "234 °C @ Press: 18 Torr",
        "Melting Point": "95 °C"
    }
}