{
    "cas_no": "1517-68-6",
    "key_name": "(<em>S</em>)-1-Phenyl-2-propanol",
    "cn_name": "(S)-(+)-1-苯基-2-戊醇;",
    "alternate_name": "Benzeneethanol, α-methyl-, (α<em>S</em>)-;Phenethyl alcohol, α-methyl-, (<em>S</em>)-(+)-;Benzeneethanol, α-methyl-, (<em>S</em>)-;(α<em>S</em>)-α-Methylbenzeneethanol;(<em>S</em>)-(+)-Benzylmethylcarbinol;(+)-(<em>S</em>)-1-Phenyl-2-propanol;(<em>S</em>)-(+)-1-Phenyl-2-propanol;(<em>S</em>)-1-Phenyl-2-propanol;(+)-1-Phenyl-2-propanol;(+)-α-Methylbenzeneethanol;(+)-α-Methylphenethyl alcohol;(<em>S</em>)-3-Phenyl-2-propanol;(<em>S</em>)-1-Phenylpropan-2-ol;(2S)-1-Phenylpropan-2-ol",
    "duplicated_cas_no": "",
    "SMILES": "C([C@H](C)O)C1=CC=CC=C1",
    "meta_data": {
        "InChI": "InChI=1S/C9H12O/c1-8(10)7-9-5-3-2-4-6-9/h2-6,8,10H,7H2,1H3/t8-/m0/s1",
        "InChIKey": null,
        "Canonical SMILES": "OC(C)CC=1C=CC=CC1",
        "Molecular Formula": "C<sub>9</sub>H<sub>12</sub>O",
        "Molecular Mass": "136.19",
        "Boiling Point": "170 °C @ Press: 15 Torr"
    }
}