{
    "cas_no": "90-26-6",
    "key_name": "2-Phenylbutanamide",
    "cn_name": "2-苯基丁酰胺;",
    "alternate_name": "Benzeneacetamide, α-ethyl-;Butyramide, 2-phenyl-;α-Ethylbenzeneacetamide;TH 4128;Geriapan;Geristerol;Hyposterol;Phenetamid;Phenetamide;2-Phenylbutanamide;α-Phenylbutyramide;2-Phenylbutyramide;α-Phenyl-α-ethylacetamide;Redusterol;α-Ethyl-α-toluamide;Substerina;Nivonorm;Eusterol;Normosterolo;Phenexan;Lipilisol;NSC 1861;(±)-2-Phenylbutyramide;α-Ethylphenylacetamide",
    "duplicated_cas_no": "117957-06-9",
    "SMILES": "C(C(N)=O)(CC)C1=CC=CC=C1",
    "meta_data": {
        "InChI": "InChI=1S/C10H13NO/c1-2-9(10(11)12)8-6-4-3-5-7-8/h3-7,9H,2H2,1H3,(H2,11,12)",
        "InChIKey": null,
        "Canonical SMILES": "O=C(N)C(C=1C=CC=CC1)CC",
        "Molecular Formula": "C<sub>10</sub>H<sub>13</sub>NO",
        "Molecular Mass": "163.22",
        "Boiling Point": "185 °C @ Press: 16 Torr",
        "Melting Point": "86 °C"
    }
}