{
    "cas_no": "18978-78-4",
    "key_name": "8-Aminoquinaldine",
    "cn_name": "8-氨基喹哪啶;8-氨基-2-甲基喹啉;",
    "alternate_name": "8-Quinolinamine, 2-methyl-;Quinaldine, 8-amino-;2-Methyl-8-quinolinamine;8-Amino-2-methylquinoline;8-Aminoquinaldine;NSC 7944;(2-Methylquinolin-8-yl)amine;2-Methyl-8-aminoquinoline",
    "duplicated_cas_no": "",
    "SMILES": "NC=1C2=C(C=CC(C)=N2)C=CC1",
    "meta_data": {
        "InChI": "InChI=1S/C10H10N2/c1-7-5-6-8-3-2-4-9(11)10(8)12-7/h2-6H,11H2,1H3",
        "InChIKey": null,
        "Canonical SMILES": "N=1C(=CC=C2C=CC=C(N)C12)C",
        "Molecular Formula": "C<sub>10</sub>H<sub>10</sub>N<sub>2</sub>",
        "Molecular Mass": "158.20",
        "Melting Point": "56 °C"
    }
}