{
    "cas_no": "14174-09-5",
    "key_name": "Dibenzo-24-crown-8",
    "cn_name": "二苯并-24-冠醚-8;",
    "alternate_name": "Dibenz[<em>b</em>,<em>n</em>][1,4,7,10,13,16,19,22]octaoxacyclotetracosin, 6,7,9,10,12,13,20,21,23,24,26,27-dodecahydro-;6,7,9,10,12,13,20,21,23,24,26,27-Dodecahydrodibenz[<em>b</em>,<em>n</em>][1,4,7,10,13,16,19,22]octaoxacyclotetracosin;Dibenzo-24-crown-8;Dibenzo24C8;NSC 244972;Dibenzo-24-crown-8 ether",
    "duplicated_cas_no": "415714-97-5",
    "SMILES": "C=12C(=CC=CC1)OCCOCCOCCOC=3C(OCCOCCOCCO2)=CC=CC3",
    "meta_data": {
        "InChI": "InChI=1S/C24H32O8/c1-2-6-22-21(5-1)29-17-13-25-9-10-27-15-19-31-23-7-3-4-8-24(23)32-20-16-28-12-11-26-14-18-30-22/h1-8H,9-20H2",
        "InChIKey": null,
        "Canonical SMILES": "O1C=2C=CC=CC2OCCOCCOCCOC=3C=CC=CC3OCCOCCOCC1",
        "Molecular Formula": "C<sub>24</sub>H<sub>32</sub>O<sub>8</sub>",
        "Molecular Mass": "448.51",
        "Melting Point": "103-105 °C"
    }
}