{
    "cas_no": "16673-34-0",
    "key_name": "<em>N</em>-[2-[4-(Aminosulfonyl)phenyl]ethyl]-5-chloro-2-methoxybenzamide",
    "cn_name": "4-[2-(5-氯-2-甲氧基苯甲酰氨基)乙基]苯磺酰胺;",
    "alternate_name": "Benzamide, <em>N</em>-[2-[4-(aminosulfonyl)phenyl]ethyl]-5-chloro-2-methoxy-;<em>o</em>-Anisamide, 5-chloro-<em>N</em>-(<em>p</em>-sulfamoylphenethyl)-;<em>N</em>-[2-[4-(Aminosulfonyl)phenyl]ethyl]-5-chloro-2-methoxybenzamide;4-[2-(5-Chloro-2-methoxybenzamido)ethyl]phenylsulfonamide;4-[2-(2-Methoxy-5-chlorobenzene-1-carboxamido)ethyl]benzenesulfonamide;5-Chloro-2-methoxy-<em>N</em>-(4-sulfamoylphenethyl)benzamide;JC 121",
    "duplicated_cas_no": "",
    "SMILES": "C(NCCC1=CC=C(S(N)(=O)=O)C=C1)(=O)C2=C(OC)C=CC(Cl)=C2",
    "meta_data": {
        "InChI": "InChI=1S/C16H17ClN2O4S/c1-23-15-7-4-12(17)10-14(15)16(20)19-9-8-11-2-5-13(6-3-11)24(18,21)22/h2-7,10H,8-9H2,1H3,(H,19,20)(H2,18,21,22)",
        "InChIKey": null,
        "Canonical SMILES": "O=C(NCCC1=CC=C(C=C1)S(=O)(=O)N)C2=CC(Cl)=CC=C2OC",
        "Molecular Formula": "C<sub>16</sub>H<sub>17</sub>ClN<sub>2</sub>O<sub>4</sub>S",
        "Molecular Mass": "368.84",
        "Melting Point": "213-215 °C"
    }
}