{
    "cas_no": "120013-57-2",
    "key_name": "5-<em>O</em>-Desmethyl donepezil",
    "cn_name": null,
    "alternate_name": "1<em>H</em>-Inden-1-one, 2,3-dihydro-5-hydroxy-6-methoxy-2-[[1-(phenylmethyl)-4-piperidinyl]methyl]-;2,3-Dihydro-5-hydroxy-6-methoxy-2-[[1-(phenylmethyl)-4-piperidinyl]methyl]-1<em>H</em>-inden-1-one;1-Benzyl-4-[(5-hydroxy-6-methoxy-1-oxo-indan-2-yl)methyl]piperidine;5-<em>O</em>-Desmethyl donepezil;2-[(1-Benzylpiperidin-4-yl)methyl]-5-hydroxy-6-methoxy-2,3-dihydroinden-1-one",
    "duplicated_cas_no": "147451-82-9",
    "SMILES": "O=C1C=2C(CC1CC3CCN(CC4=CC=CC=C4)CC3)=CC(O)=C(OC)C2",
    "meta_data": {
        "InChI": "InChI=1S/C23H27NO3/c1-27-22-14-20-18(13-21(22)25)12-19(23(20)26)11-16-7-9-24(10-8-16)15-17-5-3-2-4-6-17/h2-6,13-14,16,19,25H,7-12,15H2,1H3",
        "InChIKey": null,
        "Canonical SMILES": "O=C1C2=CC(OC)=C(O)C=C2CC1CC3CCN(CC=4C=CC=CC4)CC3",
        "Molecular Formula": "C<sub>23</sub>H<sub>27</sub>NO<sub>3</sub>",
        "Molecular Mass": "365.47",
        "Melting Point": "170-171 °C (decomp)"
    }
}