{
    "cas_no": "6310-09-4",
    "key_name": "2-Acetyl-5-chlorothiophene",
    "cn_name": "5-氯-2-乙酰基噻吩;2-乙酰基-5-氯噻吩;",
    "alternate_name": "Ethanone, 1-(5-chloro-2-thienyl)-;Ketone, 5-chloro-2-thienyl methyl;1-(5-Chloro-2-thienyl)ethanone;2-Acetyl-5-chlorothiophene;5-Chloro-2-acetylthiophene;2-Chloro-5-acetylthiophene;NSC 43020;1-(5-Chlorothiophen-2-yl)ethanone;1-(5-Chlorothiophen-2-yl)ethan-1-one;1-(5-Chlorothien-2-yl)-1-ethanone",
    "duplicated_cas_no": "",
    "SMILES": "C(C)(=O)C=1SC(Cl)=CC1",
    "meta_data": {
        "InChI": "InChI=1S/C6H5ClOS/c1-4(8)5-2-3-6(7)9-5/h2-3H,1H3",
        "InChIKey": null,
        "Canonical SMILES": "O=C(C=1SC(Cl)=CC1)C",
        "Molecular Formula": "C<sub>6</sub>H<sub>5</sub>ClOS",
        "Molecular Mass": "160.62",
        "Boiling Point": "95-96 °C @ Press: 7 Torr",
        "Melting Point": "52 °C"
    }
}