{
    "cas_no": "5382-23-0",
    "key_name": "Piperidine, 4-chloro-1-methyl-, hydrochloride (1:1)",
    "cn_name": "1-甲基-4-氯哌啶盐酸盐;",
    "alternate_name": "Piperidine, 4-chloro-1-methyl-, hydrochloride (1:1);Piperidine, 4-chloro-1-methyl-, hydrochloride;<em>N</em>-Methyl-4-chloropiperidine hydrochloride;4-Chloro-<em>N</em>-methylpiperidine hydrochloride;4-Chloro-1-methylpiperidine hydrochloride;1-Methyl-4-chloropiperidine hydrochloride",
    "duplicated_cas_no": "",
    "SMILES": "ClC1CCN(C)CC1.Cl",
    "meta_data": {
        "InChI": "InChI=1S/C6H12ClN.ClH/c1-8-4-2-6(7)3-5-8;/h6H,2-5H2,1H3;1H",
        "InChIKey": null,
        "Canonical SMILES": "Cl.ClC1CCN(C)CC1",
        "Molecular Formula": "C<sub>6</sub>H<sub>12</sub>ClN.ClH",
        "Molecular Mass": "",
        "Boiling Point": "47-48 °C @ Press: 10 Torr",
        "Melting Point": "163-165 °C"
    }
}