{
    "cas_no": "49642-07-1",
    "key_name": "Statine",
    "cn_name": "(3S,4S)-(-)-他汀;",
    "alternate_name": "Heptanoic acid, 4-amino-3-hydroxy-6-methyl-, (3<em>S</em>,4<em>S</em>)-;Heptanoic acid, 4-amino-3-hydroxy-6-methyl-, [<em>S</em>-(<em>R</em>*,<em>R</em>*)]-;(3<em>S</em>,4<em>S</em>)-4-Amino-3-hydroxy-6-methylheptanoic acid;(-)-(3<em>S</em>,4<em>S</em>)-4-Amino-3-hydroxy-6-methylheptanoic acid;Statine;(3<em>S</em>,4<em>S</em>)-Statine;(<em>S</em>,<em>S</em>)-Statine",
    "duplicated_cas_no": "",
    "SMILES": "[C@@H]([C@H](CC(O)=O)O)(CC(C)C)N",
    "meta_data": {
        "InChI": "InChI=1S/C8H17NO3/c1-5(2)3-6(9)7(10)4-8(11)12/h5-7,10H,3-4,9H2,1-2H3,(H,11,12)/t6-,7-/m0/s1",
        "InChIKey": null,
        "Canonical SMILES": "O=C(O)CC(O)C(N)CC(C)C",
        "Molecular Formula": "C<sub>8</sub>H<sub>17</sub>NO<sub>3</sub>",
        "Molecular Mass": "175.23",
        "Melting Point": "211 °C (decomp)"
    }
}