{
    "cas_no": "3652-90-2",
    "key_name": "2-Bromocarbazole",
    "cn_name": null,
    "alternate_name": "9<em>H</em>-Carbazole, 2-bromo-;Carbazole, 2-bromo-;2-Bromo-9<em>H</em>-carbazole;2-Bromocarbazole",
    "duplicated_cas_no": "",
    "SMILES": "BrC=1C=C2C(C=3C(N2)=CC=CC3)=CC1",
    "meta_data": {
        "InChI": "InChI=1S/C12H8BrN/c13-8-5-6-10-9-3-1-2-4-11(9)14-12(10)7-8/h1-7,14H",
        "InChIKey": null,
        "Canonical SMILES": "BrC=1C=CC2=C(C1)NC=3C=CC=CC32",
        "Molecular Formula": "C<sub>12</sub>H<sub>8</sub>BrN",
        "Molecular Mass": "246.10",
        "Melting Point": "250-251 °C"
    }
}