{
    "cas_no": "16064-24-7",
    "key_name": "7-Methoxy-4(3<em>H</em>)-quinazolinone",
    "cn_name": null,
    "alternate_name": "4(3<em>H</em>)-Quinazolinone, 7-methoxy-;4(1<em>H</em>)-Quinazolinone, 7-methoxy-;7-Methoxy-4(3<em>H</em>)-quinazolinone",
    "duplicated_cas_no": "",
    "SMILES": "O=C1C=2C(=CC(OC)=CC2)NC=N1",
    "meta_data": {
        "InChI": "InChI=1S/C9H8N2O2/c1-13-6-2-3-7-8(4-6)10-5-11-9(7)12/h2-5H,1H3,(H,10,11,12)",
        "InChIKey": null,
        "Canonical SMILES": "O=C1N=CNC2=CC(OC)=CC=C12",
        "Molecular Formula": "C<sub>9</sub>H<sub>8</sub>N<sub>2</sub>O<sub>2</sub>",
        "Molecular Mass": "176.17",
        "Melting Point": "257-258 °C"
    }
}