{
    "cas_no": "18546-37-7",
    "key_name": "2-Deoxy-<span class=\"text-smallcaps\">L</span>-ribose",
    "cn_name": null,
    "alternate_name": "<span class=\"text-smallcaps\">L</span>-<em>erythro</em>-Pentose, 2-deoxy-;2-Deoxy-<span class=\"text-smallcaps\">L</span>-<em>erythro</em>-pentose;2-Deoxy-<span class=\"text-smallcaps\">L</span>-ribose;<span class=\"text-smallcaps\">L</span>-2-Deoxyribose;2-Deoxy-l-ribose",
    "duplicated_cas_no": "29780-54-9",
    "SMILES": "[C@H]([C@H](CO)O)(CC=O)O",
    "meta_data": {
        "InChI": "InChI=1S/C5H10O4/c6-2-1-4(8)5(9)3-7/h2,4-5,7-9H,1,3H2/t4-,5+/m1/s1",
        "InChIKey": null,
        "Canonical SMILES": "O=CCC(O)C(O)CO",
        "Molecular Formula": "C<sub>5</sub>H<sub>10</sub>O<sub>4</sub>",
        "Molecular Mass": "134.13",
        "Melting Point": "80-83 °C"
    }
}