{
    "cas_no": "1631-25-0",
    "key_name": "<em>N</em>-Cyclohexylmaleimide",
    "cn_name": "N-环己基马来酰亚胺;",
    "alternate_name": "1<em>H</em>-Pyrrole-2,5-dione, 1-cyclohexyl-;Maleimide, <em>N</em>-cyclohexyl-;1-Cyclohexyl-1<em>H</em>-pyrrole-2,5-dione;<em>N</em>-Cyclohexylmaleimide;Imilex C;NSC 524431;CHMI-FS;Cyclohexyl maleimide;1-Cyclohexylpyrrole-2,5-dione;1-Cyclohexyl-2,5-dihydro-1<em>H</em>-pyrrole-2,5-dione;<em>N</em>-Cyclohexyl maleic imide",
    "duplicated_cas_no": "",
    "SMILES": "O=C1N(C(=O)C=C1)C2CCCCC2",
    "meta_data": {
        "InChI": "InChI=1S/C10H13NO2/c12-9-6-7-10(13)11(9)8-4-2-1-3-5-8/h6-8H,1-5H2",
        "InChIKey": null,
        "Canonical SMILES": "O=C1C=CC(=O)N1C2CCCCC2",
        "Molecular Formula": "C<sub>10</sub>H<sub>13</sub>NO<sub>2</sub>",
        "Molecular Mass": "179.22",
        "Boiling Point": "132 °C @ Press: 17 Torr",
        "Melting Point": "83-85 °C"
    }
}