{
    "cas_no": "41720-98-3",
    "key_name": "(2<em>R</em>)-2-Methylpyrrolidine",
    "cn_name": "(R)-2-甲基吡咯烷;(R)-(-)-2-甲基四氢吡咯;",
    "alternate_name": "Pyrrolidine, 2-methyl-, (2<em>R</em>)-;Pyrrolidine, 2-methyl-, (<em>R</em>)-;(2<em>R</em>)-2-Methylpyrrolidine;<span class=\"text-smallcaps\">L</span>-2-Methylpyrrolidine;(<em>R</em>)-(-)-2-Methylpyrrolidine;2-(<em>R</em>)-Methylpyrrolidine;(<em>R</em>)-2-Methylpyrrolidine;(R)-(-)-2-Methylpyrrolidine",
    "duplicated_cas_no": "",
    "SMILES": "C[C@@H]1CCCN1",
    "meta_data": {
        "InChI": "InChI=1S/C5H11N/c1-5-3-2-4-6-5/h5-6H,2-4H2,1H3/t5-/m1/s1",
        "InChIKey": null,
        "Canonical SMILES": "N1CCCC1C",
        "Molecular Formula": "C<sub>5</sub>H<sub>11</sub>N",
        "Molecular Mass": "85.15",
        "Boiling Point": "94 °C @ Press: 728 Torr"
    }
}