{
    "cas_no": "113276-94-1",
    "key_name": "H 8 dihydrochloride",
    "cn_name": "H-8 二氢氯化物;",
    "alternate_name": "5-Isoquinolinesulfonamide, <em>N</em>-[2-(methylamino)ethyl]-, hydrochloride (1:2);5-Isoquinolinesulfonamide, <em>N</em>-[2-(methylamino)ethyl]-, dihydrochloride;H 8;H 8 dihydrochloride;<em>N</em>-[2-(Methylamino)ethyl]isoquinoline-5-sulfonamide dihydrochloride",
    "duplicated_cas_no": "",
    "SMILES": "S(NCCNC)(=O)(=O)C=1C2=C(C=CC1)C=NC=C2.Cl",
    "meta_data": {
        "InChI": "InChI=1S/C12H15N3O2S.2ClH/c1-13-7-8-15-18(16,17)12-4-2-3-10-9-14-6-5-11(10)12;;/h2-6,9,13,15H,7-8H2,1H3;2*1H",
        "InChIKey": null,
        "Canonical SMILES": "Cl.O=S(=O)(NCCNC)C1=CC=CC=2C=NC=CC21",
        "Molecular Formula": "C<sub>12</sub>H<sub>15</sub>N<sub>3</sub>O<sub>2</sub>S.2ClH",
        "Molecular Mass": "",
        "Melting Point": "221-222 °C"
    }
}