{
    "cas_no": "2033-89-8",
    "key_name": "3,4-Dimethoxyphenol",
    "cn_name": "3,4-二甲氧基苯酚;",
    "alternate_name": "Phenol, 3,4-dimethoxy-;3,4-Dimethoxyphenol;NSC 140927;3,4-Bis(methyloxy)phenol",
    "duplicated_cas_no": "",
    "SMILES": "O(C)C1=C(OC)C=C(O)C=C1",
    "meta_data": {
        "InChI": "InChI=1S/C8H10O3/c1-10-7-4-3-6(9)5-8(7)11-2/h3-5,9H,1-2H3",
        "InChIKey": null,
        "Canonical SMILES": "OC1=CC=C(OC)C(OC)=C1",
        "Molecular Formula": "C<sub>8</sub>H<sub>10</sub>O<sub>3</sub>",
        "Molecular Mass": "154.16",
        "Boiling Point": "168-170 °C",
        "Melting Point": "79-80 °C"
    }
}