{
    "cas_no": "779331-49-6",
    "key_name": "4-Fluoro-2-(4,4,5,5-tetramethyl-1,3,2-dioxaborolan-2-yl)phenol",
    "cn_name": null,
    "alternate_name": "Phenol, 4-fluoro-2-(4,4,5,5-tetramethyl-1,3,2-dioxaborolan-2-yl)-;4-Fluoro-2-(4,4,5,5-tetramethyl-1,3,2-dioxaborolan-2-yl)phenol",
    "duplicated_cas_no": "",
    "SMILES": "OC1=C(B2OC(C)(C)C(C)(C)O2)C=C(F)C=C1",
    "meta_data": {
        "InChI": "InChI=1S/C12H16BFO3/c1-11(2)12(3,4)17-13(16-11)9-7-8(14)5-6-10(9)15/h5-7,15H,1-4H3",
        "InChIKey": null,
        "Canonical SMILES": "FC1=CC=C(O)C(=C1)B2OC(C)(C)C(O2)(C)C",
        "Molecular Formula": "C<sub>12</sub>H<sub>16</sub>BFO<sub>3</sub>",
        "Molecular Mass": "238.06",
        "Melting Point": "27-28 °C"
    }
}