{
    "cas_no": "591-76-4",
    "key_name": "2-Methylhexane",
    "cn_name": null,
    "alternate_name": "Hexane, 2-methyl-;2-Methylhexane;NSC 24840",
    "duplicated_cas_no": "",
    "SMILES": "C(C(C)C)CCC",
    "meta_data": {
        "InChI": "InChI=1S/C7H16/c1-4-5-6-7(2)3/h7H,4-6H2,1-3H3",
        "InChIKey": null,
        "Canonical SMILES": "CCCCC(C)C",
        "Molecular Formula": "C<sub>7</sub>H<sub>16</sub>",
        "Molecular Mass": "100.20",
        "Boiling Point": "90 °C",
        "Melting Point": "-118 °C",
        "Density": "0.68 g/cm³"
    }
}