{
    "cas_no": "623-19-8",
    "key_name": "Furfuryl propanoate",
    "cn_name": null,
    "alternate_name": "2-Furanmethanol, 2-propanoate;Furfuryl alcohol, propionate;2-Furanmethanol, propanoate;Furfuryl propionate;2-Furanmethanol propionate;Furfuryl propanoate;NSC 35556;(Furan-2-yl)methyl propanoate",
    "duplicated_cas_no": "",
    "SMILES": "C(OC(CC)=O)C1=CC=CO1",
    "meta_data": {
        "InChI": "InChI=1S/C8H10O3/c1-2-8(9)11-6-7-4-3-5-10-7/h3-5H,2,6H2,1H3",
        "InChIKey": null,
        "Canonical SMILES": "O=C(OCC=1OC=CC1)CC",
        "Molecular Formula": "C<sub>8</sub>H<sub>10</sub>O<sub>3</sub>",
        "Molecular Mass": "154.16",
        "Boiling Point": "195 °C"
    }
}