{
    "cas_no": "33708-72-4",
    "key_name": "Pachypodol",
    "cn_name": null,
    "alternate_name": "4<em>H</em>-1-Benzopyran-4-one, 5-hydroxy-2-(4-hydroxy-3-methoxyphenyl)-3,7-dimethoxy-;Flavone, 4′,5-dihydroxy-3,3′,7-trimethoxy-;5-Hydroxy-2-(4-hydroxy-3-methoxyphenyl)-3,7-dimethoxy-4<em>H</em>-1-benzopyran-4-one;3,3′,7-Trimethylquercetin;Pachypodol;Quercetin-3,7,3′-trimethyl ether;CMF 1;Quercetin 3,3′,7-trimethyl ether;Ro 09-0179;Isorhamnetin 3,7-dimethyl ether;5,4′-Dihydroxy-3,7,3′-trimethoxyflavone;NSC 168805;3,7,3′-Tri-<em>O</em>-methylquercetin;4′,5-Dihydroxy-3,3′,7-trimethoxyflavone",
    "duplicated_cas_no": "53164-00-4",
    "SMILES": "O(C)C1=C(OC=2C(C1=O)=C(O)C=C(OC)C2)C3=CC(OC)=C(O)C=C3",
    "meta_data": {
        "InChI": "InChI=1S/C18H16O7/c1-22-10-7-12(20)15-14(8-10)25-17(18(24-3)16(15)21)9-4-5-11(19)13(6-9)23-2/h4-8,19-20H,1-3H3",
        "InChIKey": null,
        "Canonical SMILES": "O=C1C(OC)=C(OC2=CC(OC)=CC(O)=C12)C=3C=CC(O)=C(OC)C3",
        "Molecular Formula": "C<sub>18</sub>H<sub>16</sub>O<sub>7</sub>",
        "Molecular Mass": "344.32",
        "Melting Point": "171-172 °C"
    }
}