{
    "cas_no": "26009-03-0",
    "key_name": "Poly[oxy(1-oxo-1,2-ethanediyl)]",
    "cn_name": null,
    "alternate_name": "Poly[oxy(1-oxo-1,2-ethanediyl)];Poly(oxycarbonylmethylene);Poly(glycolic acid polyester);Poly(<em>p</em>-dioxane-2,5-dione);Glycolic acid polymer, SRU;Polyglycolide;Polyglycolide, SRU;Poly(glycolic acid), SRU;Glycolic acid homopolymer, SRU;Hydroxyacetic acid polymer, SRU;Polyglycolic acid;Glycolide homopolymer, sru;Bromoacetic acid homopolymer, sru;Hydroxyacetic acid homopolymer, SRU;Poly(<span class=\"text-smallcaps\">L</span>-glycolic acid), sru;Ethyl glycolate homopolymer, sru;Sodium bromoacetate homopolymer, SRU;Dexon TC 33;Methyl glycolate homopolymer, sru;Monochloroacetic acid sodium salt homopolymer, SRU;PHO 3836;Biofix;Bondek;Surgisorb SV 013;SV 013;SyntheSorb;PGA-P;TLF 6267;Poly(glycolide), SRU;Kuredux;Kuredux 100R60;Purasorb PG 20;Kureha PGA 100E35;PGA Resorba;Kuredux 100E35;Trisorb USP 7-0;Kuraray 100R35;Kuredux S 35;Kuredux 100R35;Kuredux 100R90;PGA;PGA 20;PGA 201-1412;PGA 08;PGA 05;PGA 101;Kuredux 100R50;HXKJ 2023",
    "duplicated_cas_no": "32168-63-1",
    "SMILES": "",
    "meta_data": {
        "InChI": "",
        "InChIKey": null,
        "Canonical SMILES": "",
        "Molecular Formula": "(C<sub>2</sub>H<sub>2</sub>O<sub>2</sub>)<sub>n</sub>",
        "Molecular Mass": "",
        "Melting Point": "229 °C",
        "Density": "1.50 g/cm³"
    }
}