{
    "cas_no": "2166-31-6",
    "key_name": "6-Phenyl-3(2<em>H</em>)-pyridazinone",
    "cn_name": "6-苯基-3(2H)-哒嗪酮;",
    "alternate_name": "3(2<em>H</em>)-Pyridazinone, 6-phenyl-;6-Phenyl-3(2<em>H</em>)-pyridazinone;3-Pyridazinol, 6-phenyl-;3-Phenyl-6-pyridazone;6-Phenyl-3-pyridazone;3-Phenyl-6-pyridazinone;6-Phenyl-3-pyridazinone;6-Phenylpyridazin-3-ol;NSC 13399;6-Phenyl-2<em>H</em>-pyridazin-3-one;3-Phenyl-1<em>H</em>-pyridazin-6-one",
    "duplicated_cas_no": "5431-45-8",
    "SMILES": "O=C1C=CC(=NN1)C2=CC=CC=C2",
    "meta_data": {
        "InChI": "InChI=1S/C10H8N2O/c13-10-7-6-9(11-12-10)8-4-2-1-3-5-8/h1-7H,(H,12,13)",
        "InChIKey": null,
        "Canonical SMILES": "O=C1C=CC(=NN1)C=2C=CC=CC2",
        "Molecular Formula": "C<sub>10</sub>H<sub>8</sub>N<sub>2</sub>O",
        "Molecular Mass": "172.18",
        "Melting Point": "151 °C"
    }
}