{
    "cas_no": "480-47-7",
    "key_name": "3,4-Dihydro-8-hydroxy-3-(4-hydroxyphenyl)-1<em>H</em>-2-benzopyran-1-one",
    "cn_name": null,
    "alternate_name": "1<em>H</em>-2-Benzopyran-1-one, 3,4-dihydro-8-hydroxy-3-(4-hydroxyphenyl)-;Isocoumarin, 3,4-dihydro-8-hydroxy-3-(<em>p</em>-hydroxyphenyl)-;3,4-Dihydro-8-hydroxy-3-(4-hydroxyphenyl)-1<em>H</em>-2-benzopyran-1-one;Hydrangenol;(±)-Hydrangenol",
    "duplicated_cas_no": "80394-92-9",
    "SMILES": "O=C1C=2C(CC(O1)C3=CC=C(O)C=C3)=CC=CC2O",
    "meta_data": {
        "InChI": "InChI=1S/C15H12O4/c16-11-6-4-9(5-7-11)13-8-10-2-1-3-12(17)14(10)15(18)19-13/h1-7,13,16-17H,8H2",
        "InChIKey": null,
        "Canonical SMILES": "O=C1OC(C2=CC=C(O)C=C2)CC=3C=CC=C(O)C13",
        "Molecular Formula": "C<sub>15</sub>H<sub>12</sub>O<sub>4</sub>",
        "Molecular Mass": "256.25",
        "Melting Point": "181-182 °C"
    }
}