{
    "cas_no": "21259-20-1",
    "key_name": "T 2 Toxin",
    "cn_name": "T-2毒素;",
    "alternate_name": "Trichothec-9-ene-3,4,8,15-tetrol, 12,13-epoxy-, 4,15-diacetate 8-(3-methylbutanoate), (3α,4β,8α)-;Trichothec-9-ene-3α,4β,8α,15-tetrol, 12,13-epoxy-, 4,15-diacetate 8-isovalerate;Spiro[2,5-methano-1-benzoxepin-10,2′-oxirane], trichothec-9-ene-3,4,8,15-tetrol deriv.;8α-(3-Methylbutyryloxy)-4β,15-diacetoxyscirp-9-en-3α-ol;4β,15-Diacetoxy-8α-(3-methylbutyryloxy)-12,13-epoxytrichothec-9-en-3α-ol;T 2 Toxin;Fusariotoxin T 2;Toxin T 2;Insariotoxin;T 2 mycotoxin;NSC 138780;Mycotoxin T 2;T 2;T-2 Lienomycin;MeSH ID: D013605",
    "duplicated_cas_no": "116163-69-0;9061-58-9;11051-21-1;22916-10-5;22916-18-3;25152-34-5;26400-47-5;27640-92-2;36653-66-4;60119-99-5;145427-93-6",
    "SMILES": "C[C@@]12[C@@]3([C@@]([C@H](O)[C@H]1OC(C)=O)(O[C@]4([C@]2(COC(C)=O)C[C@H](OC(CC(C)C)=O)C(C)=C4)[H])[H])CO3",
    "meta_data": {
        "InChI": "InChI=1S/C24H34O9/c1-12(2)7-18(27)32-16-9-23(10-29-14(4)25)17(8-13(16)3)33-21-19(28)20(31-15(5)26)22(23,6)24(21)11-30-24/h8,12,16-17,19-21,28H,7,9-11H2,1-6H3/t16-,17+,19+,20+,21+,22+,23+,24-/m0/s1",
        "InChIKey": null,
        "Canonical SMILES": "O=C(OCC12CC(OC(=O)CC(C)C)C(=CC2OC3C(O)C(OC(=O)C)C1(C)C43OC4)C)C",
        "Molecular Formula": "C<sub>24</sub>H<sub>34</sub>O<sub>9</sub>",
        "Molecular Mass": "466.52",
        "Melting Point": "151-152 °C"
    }
}