{
    "cas_no": "51-20-7",
    "key_name": "5-Bromouracil",
    "cn_name": "5-溴尿嘧啶;",
    "alternate_name": "2,4(1<em>H</em>,3<em>H</em>)-Pyrimidinedione, 5-bromo-;Uracil, 5-bromo-;5-Bromo-2,4(1<em>H</em>,3<em>H</em>)-pyrimidinedione;Bromouracil;5-Bromouracil;5-Bromo-2,4-dihydroxypyrimidine;5-Bromo-2,4-pyrimidinedione;NSC 19940;MeSH ID: D001976",
    "duplicated_cas_no": "5909-23-9",
    "SMILES": "O=C1C(Br)=CNC(=O)N1",
    "meta_data": {
        "InChI": "InChI=1S/C4H3BrN2O2/c5-2-1-6-4(9)7-3(2)8/h1H,(H2,6,7,8,9)",
        "InChIKey": null,
        "Canonical SMILES": "O=C1NC=C(Br)C(=O)N1",
        "Molecular Formula": "C<sub>4</sub>H<sub>3</sub>BrN<sub>2</sub>O<sub>2</sub>",
        "Molecular Mass": "190.98",
        "Melting Point": "310 °C"
    }
}