{
    "cas_no": "615-43-0",
    "key_name": "2-Iodoaniline",
    "cn_name": "2-碘苯胺;间碘苯胺;",
    "alternate_name": "Benzenamine, 2-iodo-;Aniline, <em>o</em>-iodo-;2-Iodobenzenamine;<em>o</em>-Aminoiodobenzene;2-Iodoaniline;<em>o</em>-Iodoaniline;2-Aminophenyl iodide;NSC 34544;1-Amino-2-iodobenzene;2-Iodophenylamine;2-Aminoiodobenzene",
    "duplicated_cas_no": "1619933-03-7",
    "SMILES": "IC1=C(N)C=CC=C1",
    "meta_data": {
        "InChI": "InChI=1S/C6H6IN/c7-5-3-1-2-4-6(5)8/h1-4H,8H2",
        "InChIKey": null,
        "Canonical SMILES": "IC=1C=CC=CC1N",
        "Molecular Formula": "C<sub>6</sub>H<sub>6</sub>IN",
        "Molecular Mass": "219.02",
        "Melting Point": "56.5 °C",
        "Density": "1.73 g/cm³"
    }
}