{
    "cas_no": "314084-61-2",
    "key_name": "2-Bromo-1,3-diethyl-5-methylbenzene",
    "cn_name": null,
    "alternate_name": "Benzene, 2-bromo-1,3-diethyl-5-methyl-;2-Bromo-1,3-diethyl-5-methylbenzene;2,6-Diethyl-4-methyl-1-bromobenzene;2,6-Diethyl-4-methylphenyl bromide;1-Bromo-2,6-diethyl-4-methylbenzene",
    "duplicated_cas_no": "",
    "SMILES": "C(C)C1=C(Br)C(CC)=CC(C)=C1",
    "meta_data": {
        "InChI": "InChI=1S/C11H15Br/c1-4-9-6-8(3)7-10(5-2)11(9)12/h6-7H,4-5H2,1-3H3",
        "InChIKey": null,
        "Canonical SMILES": "BrC=1C(=CC(=CC1CC)C)CC",
        "Molecular Formula": "C<sub>11</sub>H<sub>15</sub>Br",
        "Molecular Mass": "227.14",
        "Boiling Point": "102-104 °C"
    }
}