{
    "cas_no": "19428-14-9",
    "key_name": "Benproperine phosphate",
    "cn_name": null,
    "alternate_name": "Piperidine, 1-[1-methyl-2-[2-(phenylmethyl)phenoxy]ethyl]-, phosphate (1:1);Piperidine, 1-[1-methyl-2-[(α-phenyl-<em>o</em>-tolyl)oxy]ethyl]-, phosphate (1:1);Pirexyl;1-(2-Benzylphenoxy)-2-piperidinopropane phosphate;1-[2-(2-Benzylphenoxy)-1-methylethyl]piperidine monophosphate;ASA 158-5;Blascorid;Benproperine phosphate;1-[2-(2-Benzylphenoxy)-1-methylethyl]piperidinium dihydrogen phosphate",
    "duplicated_cas_no": "",
    "SMILES": "P(=O)(O)(O)O.C(C1=C(OCC(C)N2CCCCC2)C=CC=C1)C3=CC=CC=C3",
    "meta_data": {
        "InChI": "InChI=1S/C21H27NO.H3O4P/c1-18(22-14-8-3-9-15-22)17-23-21-13-7-6-12-20(21)16-19-10-4-2-5-11-19;1-5(2,3)4/h2,4-7,10-13,18H,3,8-9,14-17H2,1H3;(H3,1,2,3,4)",
        "InChIKey": null,
        "Canonical SMILES": "O=P(O)(O)O.O(C=1C=CC=CC1CC=2C=CC=CC2)CC(N3CCCCC3)C",
        "Molecular Formula": "C<sub>21</sub>H<sub>27</sub>NO.H<sub>3</sub>O<sub>4</sub>P",
        "Molecular Mass": "",
        "Melting Point": "150-152 °C"
    }
}