{
    "cas_no": "2279-76-7",
    "key_name": "Tripropyltin chloride",
    "cn_name": "三正丙基氯化锡;氯丙锡;氯化三丙锡;",
    "alternate_name": "Stannane, chlorotripropyl-;Tripropyltin chloride;Tin, chlorotripropyl-;Chlorotripropylstannane;Tripropylstannyl chloride;Tri-<em>n</em>-propyltin chloride;Tripropylchlorostannane;Chlorotripropyltin",
    "duplicated_cas_no": "306-16-1",
    "SMILES": "[Sn](CCC)(CCC)(CCC)Cl",
    "meta_data": {
        "InChI": "InChI=1S/3C3H7.ClH.Sn/c3*1-3-2;;/h3*1,3H2,2H3;1H;/q;;;;+1/p-1",
        "InChIKey": null,
        "Canonical SMILES": "Cl[Sn](CCC)(CCC)CCC",
        "Molecular Formula": "C<sub>9</sub>H<sub>21</sub>ClSn",
        "Molecular Mass": "283.43",
        "Boiling Point": "122-123 °C @ Press: 10 Torr",
        "Melting Point": "-23.5 °C",
        "Density": "1.2740 g/cm³ @ Temp: 20 °C"
    }
}