{
    "cas_no": "82121-06-0",
    "key_name": "7-Bromo-4-hydroxyquinoline",
    "cn_name": null,
    "alternate_name": "4-Quinolinol, 7-bromo-;7-Bromo-4-quinolinol;7-Bromo-4-hydroxyquinoline",
    "duplicated_cas_no": "",
    "SMILES": "OC=1C2=C(C=C(Br)C=C2)N=CC1",
    "meta_data": {
        "InChI": "InChI=1S/C9H6BrNO/c10-6-1-2-7-8(5-6)11-4-3-9(7)12/h1-5H,(H,11,12)",
        "InChIKey": null,
        "Canonical SMILES": "BrC=1C=CC2=C(O)C=CN=C2C1",
        "Molecular Formula": "C<sub>9</sub>H<sub>6</sub>BrNO",
        "Molecular Mass": "224.05",
        "Melting Point": "279-281 °C"
    }
}