{
    "cas_no": "73-63-2",
    "key_name": "1-Phenyl-3-(1-piperidinyl)-1-propanone",
    "cn_name": null,
    "alternate_name": "1-Propanone, 1-phenyl-3-(1-piperidinyl)-;Propiophenone, 3-piperidino-;1-Phenyl-3-(1-piperidinyl)-1-propanone;NA 65;3-Piperidinopropiophenone;β-Piperidinopropiophenone;<em>N</em>-(β-Benzoylethyl)piperidine;3-Piperidino-1-phenylpropan-1-one;1-Phenyl-3-piperidinopropan-1-one;NSC 5755",
    "duplicated_cas_no": "",
    "SMILES": "C(CCN1CCCCC1)(=O)C2=CC=CC=C2",
    "meta_data": {
        "InChI": "InChI=1S/C14H19NO/c16-14(13-7-3-1-4-8-13)9-12-15-10-5-2-6-11-15/h1,3-4,7-8H,2,5-6,9-12H2",
        "InChIKey": null,
        "Canonical SMILES": "O=C(C=1C=CC=CC1)CCN2CCCCC2",
        "Molecular Formula": "C<sub>14</sub>H<sub>19</sub>NO",
        "Molecular Mass": "217.31",
        "Boiling Point": "135-136 °C @ Press: 1.0 Torr",
        "Melting Point": "192-193 °C"
    }
}