{
    "cas_no": "2899-29-8",
    "key_name": "<span class=\"text-smallcaps\">L</span>-Tryptophanol",
    "cn_name": null,
    "alternate_name": "1<em>H</em>-Indole-3-propanol, β-amino-, (β<em>S</em>)-;Indole-3-propanol, β-amino-, <span class=\"text-smallcaps\">L</span>-;1<em>H</em>-Indole-3-propanol, β-amino-, (<em>S</em>)-;(β<em>S</em>)-β-Amino-1<em>H</em>-indole-3-propanol;<span class=\"text-smallcaps\">L</span>-Tryptophanol;[(<em>S</em>)-2-Hydroxy-1-[(1<em>H</em>-indol-3-yl)methyl]ethyl]amine;(<em>S</em>)-2-Amino-3-(1<em>H</em>-indol-3-yl)propan-1-ol;(2S)-2-Amino-3-(1<em>H</em>-indol-3-yl)propan-1-ol;(<em>S</em>)-Tryptophanol;1<em>H</em>-Indole-3-propanol β-amino-, (βS)-",
    "duplicated_cas_no": "1052209-70-7",
    "SMILES": "C([C@@H](CO)N)C=1C=2C(NC1)=CC=CC2",
    "meta_data": {
        "InChI": "InChI=1S/C11H14N2O/c12-9(7-14)5-8-6-13-11-4-2-1-3-10(8)11/h1-4,6,9,13-14H,5,7,12H2/t9-/m0/s1",
        "InChIKey": null,
        "Canonical SMILES": "OCC(N)CC1=CNC=2C=CC=CC21",
        "Molecular Formula": "C<sub>11</sub>H<sub>14</sub>N<sub>2</sub>O",
        "Molecular Mass": "190.24",
        "Melting Point": "288-290 °C"
    }
}