{
    "cas_no": "566-26-7",
    "key_name": "7α-Hydroxycholesterol",
    "cn_name": null,
    "alternate_name": "Cholest-5-ene-3,7-diol, (3β,7α)-;Cholest-5-ene-3β,7α-diol;(3β,7α)-Cholest-5-ene-3,7-diol;7α-Hydroxycholesterol;7α-Hydroxycholest-5-en-3β-ol",
    "duplicated_cas_no": "2052987-26-3",
    "SMILES": "C[C@@]12[C@]([C@]3([C@@]([C@]4(C)C(=C[C@H]3O)C[C@@H](O)CC4)(CC1)[H])[H])(CC[C@@]2([C@@H](CCCC(C)C)C)[H])[H]",
    "meta_data": {
        "InChI": "InChI=1S/C27H46O2/c1-17(2)7-6-8-18(3)21-9-10-22-25-23(12-14-27(21,22)5)26(4)13-11-20(28)15-19(26)16-24(25)29/h16-18,20-25,28-29H,6-15H2,1-5H3/t18-,20+,21-,22+,23+,24-,25+,26+,27-/m1/s1",
        "InChIKey": null,
        "Canonical SMILES": "OC1C=C2CC(O)CCC2(C)C3CCC4(C)C(CCC4C13)C(C)CCCC(C)C",
        "Molecular Formula": "C<sub>27</sub>H<sub>46</sub>O<sub>2</sub>",
        "Molecular Mass": "402.65",
        "Melting Point": "174-176 °C"
    }
}