{
    "cas_no": "1404-04-2",
    "key_name": "Neomycin",
    "cn_name": "新霉素;",
    "alternate_name": "Neomycin;Myacyne;Fradiomycin;Bycomycin;Jernadex;Vonamycin Powder V;Neomin;Pimavecort;Neomas;MeSH ID: D009355",
    "duplicated_cas_no": "11013-50-6",
    "SMILES": "",
    "meta_data": {
        "InChI": "",
        "InChIKey": null,
        "Canonical SMILES": "",
        "Molecular Formula": "Unspecified",
        "Molecular Mass": "",
        "Melting Point": "250 °C (decomp)"
    }
}