{
    "uri": "substance/pt/1404042",
    "rn": "1404-04-2",
    "name": "Neomycin",
    "images": [],
    "inchi": "",
    "inchiKey": "",
    "smile": "",
    "canonicalSmile": "",
    "molecularFormula": "Unspecified",
    "molecularMass": "",
    "experimentalProperties": [
        {
            "name": "Melting Point",
            "property": "250 °C (decomp)",
            "sourceNumber": 1
        }
    ],
    "propertyCitations": [
        {
            "docUri": "document/pt/document/15588607",
            "sourceNumber": 1,
            "source": "Cosar, Charles; DE1008284, 1957, CAplus"
        }
    ],
    "synonyms": [
        "Neomycin",
        "Myacyne",
        "Fradiomycin",
        "Bycomycin",
        "Jernadex",
        "Vonamycin Powder V",
        "Neomin",
        "Pimavecort",
        "Neomas",
        "MeSH ID: D009355"
    ],
    "replacedRns": [
        "11013-50-6"
    ],
    "hasMolfile": false,
    "source": "https://commonchemistry.cas.org/detail?cas_rn=1404-04-2"
}