{
    "cas_no": "21282-97-3",
    "key_name": "2-(Acetoacetoxy)ethyl methacrylate",
    "cn_name": "乙酰乙酸甲基丙烯酸乙二醇酯;",
    "alternate_name": "Butanoic acid, 3-oxo-, 2-[(2-methyl-1-oxo-2-propen-1-yl)oxy]ethyl ester;Acetoacetic acid, 2-hydroxyethyl ester methacrylate;Butanoic acid, 3-oxo-, 2-[(2-methyl-1-oxo-2-propenyl)oxy]ethyl ester;2-Hydroxyethyl methacrylate acetoacetate;2-(Methacryloyloxy)ethyl acetoacetate;Lonzamon AAEMA;Ethylene glycol acetoacetate methacrylate;2-(Acetoacetoxy)ethyl methacrylate;Eastman AAEM;AAEM;3-Oxo-butyric acid 2-(2-methylacryloyloxy)ethyl ester;Ethylene glycol acetylacetate methacrylate;2-(Acetylacetoxy)ethyl methacrylate;Ethylene glycol monoacetoacetate monomethacrylate;2-[(2-Methylprop-2-enoyl)oxy]ethyl 3-oxobutanoate;2-(Methacryloyloxy)ethyl3-oxobutanoate;2-(2-Methylprop-2-enoyloxy)ethyl 3-oxobutanoate;M 10571;AAEMA",
    "duplicated_cas_no": "135623-38-0;50981-32-3",
    "SMILES": "O(CCOC(C(C)=C)=O)C(CC(C)=O)=O",
    "meta_data": {
        "InChI": "InChI=1S/C10H14O5/c1-7(2)10(13)15-5-4-14-9(12)6-8(3)11/h1,4-6H2,2-3H3",
        "InChIKey": null,
        "Canonical SMILES": "O=C(OCCOC(=O)CC(=O)C)C(=C)C",
        "Molecular Formula": "C<sub>10</sub>H<sub>14</sub>O<sub>5</sub>",
        "Molecular Mass": "214.22",
        "Melting Point": "&lt;25 °C"
    }
}