{
    "cas_no": "79383-44-1",
    "key_name": "Benzoic acid, 2-methoxy-6-methyl-, methyl ester",
    "cn_name": null,
    "alternate_name": "Benzoic acid, 2-methoxy-6-methyl-, methyl ester;<em>o</em>-Anisic acid, 6-methyl-, methyl ester;Methyl 2-methoxy-6-methylbenzoate",
    "duplicated_cas_no": "",
    "SMILES": "C(OC)(=O)C1=C(OC)C=CC=C1C",
    "meta_data": {
        "InChI": "InChI=1S/C10H12O3/c1-7-5-4-6-8(12-2)9(7)10(11)13-3/h4-6H,1-3H3",
        "InChIKey": null,
        "Canonical SMILES": "O=C(OC)C=1C(OC)=CC=CC1C",
        "Molecular Formula": "C<sub>10</sub>H<sub>12</sub>O<sub>3</sub>",
        "Molecular Mass": "180.20",
        "Boiling Point": "95-96 °C @ Press: 0.5 Torr"
    }
}