{
    "cas_no": "7499-06-1",
    "key_name": "5-Chloro-2-methylbenzoic acid",
    "cn_name": "5-氯-2-甲基苯甲酸;",
    "alternate_name": "Benzoic acid, 5-chloro-2-methyl-;<em>o</em>-Toluic acid, 5-chloro-;5-Chloro-2-methylbenzoic acid;5-Chloro-<em>o</em>-toluic acid;NSC 407520;3-Chloro-6-methylbenzoic acid",
    "duplicated_cas_no": "",
    "SMILES": "C(O)(=O)C1=C(C)C=CC(Cl)=C1",
    "meta_data": {
        "InChI": "InChI=1S/C8H7ClO2/c1-5-2-3-6(9)4-7(5)8(10)11/h2-4H,1H3,(H,10,11)",
        "InChIKey": null,
        "Canonical SMILES": "O=C(O)C1=CC(Cl)=CC=C1C",
        "Molecular Formula": "C<sub>8</sub>H<sub>7</sub>ClO<sub>2</sub>",
        "Molecular Mass": "170.59",
        "Melting Point": "169.5-171.0 °C"
    }
}