{
    "cas_no": "1304-56-9",
    "key_name": "Beryllium oxide",
    "cn_name": "氧化铍;",
    "alternate_name": "Beryllium oxide (BeO);Beryllium oxide;Beryllia;Beryllium monoxide;Thermalox 995",
    "duplicated_cas_no": "61279-73-0;61279-74-1;61279-75-2;61279-76-3;2519747-41-0",
    "SMILES": "[Be]=O",
    "meta_data": {
        "InChI": "InChI=1S/Be.O",
        "InChIKey": null,
        "Canonical SMILES": "[Be]=O",
        "Molecular Formula": "BeO",
        "Molecular Mass": "",
        "Boiling Point": "~3900 °C (approx)",
        "Melting Point": "2530 °C",
        "Density": "3.01 g/cm³"
    }
}