{
    "cas_no": "107-27-7",
    "key_name": "Ethylmercury chloride",
    "cn_name": "氯化乙基汞;西力生;氯化汞乙酯;乙基氯化汞;",
    "alternate_name": "Mercury, chloroethyl-;Ethylmercury chloride;Ceresan;Chloroethylmercury;Ethylmercuric chloride;Granosan;Cryptodine;Emcon D;Cryptodin;Criptodin;Monoethylmercury chloride;Ceresan (fungicide);NSC 1203;NSC 60515;MeSH ID: D005034",
    "duplicated_cas_no": "12679-77-5;39408-93-0",
    "SMILES": "C([Hg]Cl)C",
    "meta_data": {
        "InChI": "InChI=1S/C2H5.ClH.Hg/c1-2;;/h1H2,2H3;1H;/q;;+1/p-1",
        "InChIKey": null,
        "Canonical SMILES": "Cl[Hg]CC",
        "Molecular Formula": "C<sub>2</sub>H<sub>5</sub>ClHg",
        "Molecular Mass": "",
        "Melting Point": "192 °C"
    }
}