{
    "cas_no": "492-86-4",
    "key_name": "4-Chloromandelic acid",
    "cn_name": "对氯扁桃酸;",
    "alternate_name": "Benzeneacetic acid, 4-chloro-α-hydroxy-;Mandelic acid, <em>p</em>-chloro-;4-Chloro-α-hydroxybenzeneacetic acid;<em>p</em>-Chloromandelic acid;4-Chloromandelic acid;(<em>p</em>-Chlorophenyl)hydroxyacetic acid;2-Hydroxy-2-(4-chlorophenyl)acetic acid;4-Chloro-<span class=\"text-smallcaps\">D</smallcap><smallcap>L</span>-mandelic acid;<span class=\"text-smallcaps\">D</smallcap><smallcap>L</span>-<em>p</em>-Chloromandelic acid;(±)-<em>p</em>-Chloromandelic acid;(±)-4-Chloromandelic acid;NSC 31400;NSC 8112;2-(4-Chlorophenyl)-2-hydroxyacetic acid;(4-Chlorophenyl)hydroxyacetic acid;<span class=\"text-smallcaps\">D</smallcap><smallcap>L</span>-4-Chloromandelic acid",
    "duplicated_cas_no": "7138-34-3",
    "SMILES": "C(C(O)=O)(O)C1=CC=C(Cl)C=C1",
    "meta_data": {
        "InChI": "InChI=1S/C8H7ClO3/c9-6-3-1-5(2-4-6)7(10)8(11)12/h1-4,7,10H,(H,11,12)",
        "InChIKey": null,
        "Canonical SMILES": "O=C(O)C(O)C1=CC=C(Cl)C=C1",
        "Molecular Formula": "C<sub>8</sub>H<sub>7</sub>ClO<sub>3</sub>",
        "Molecular Mass": "186.59",
        "Melting Point": "119-120 °C"
    }
}