{
    "cas_no": "112-45-8",
    "key_name": "10-Undecenal",
    "cn_name": "10-十一烯醛;",
    "alternate_name": "10-Undecenal;10-Hendecenal;Undecylenic aldehyde;Undecylene aldehyde;10-Undecen-1-al;ω-Undecenyl aldehyde;NSC 44900;Intreleven aldehyde;10-Undecylenic aldehyde;10-Undecenyl aldehyde;Aldehyde C 111LEN;Undec-10-enal",
    "duplicated_cas_no": "",
    "SMILES": "C(CCCCC=O)CCCC=C",
    "meta_data": {
        "InChI": "InChI=1S/C11H20O/c1-2-3-4-5-6-7-8-9-10-11-12/h2,11H,1,3-10H2",
        "InChIKey": null,
        "Canonical SMILES": "O=CCCCCCCCCC=C",
        "Molecular Formula": "C<sub>11</sub>H<sub>20</sub>O",
        "Molecular Mass": "168.28",
        "Boiling Point": "130-140 °C @ Press: 30 Torr"
    }
}