{
    "cas_no": "1765-40-8",
    "key_name": "Pentafluorobenzyl bromide",
    "cn_name": "2,3,4,5,6-五氟溴化苄;",
    "alternate_name": "Benzene, 1-(bromomethyl)-2,3,4,5,6-pentafluoro-;Toluene, α-bromo-2,3,4,5,6-pentafluoro-;Benzene, (bromomethyl)pentafluoro-;1-(Bromomethyl)-2,3,4,5,6-pentafluorobenzene;α-Bromo-2,3,4,5,6-pentafluorotoluene;Pentafluorobenzyl bromide;(Bromomethyl)pentafluorobenzene;(Pentafluorophenyl)methyl bromide;2,3,4,5,6-Pentafluorobenzyl bromide;1-(Bromomethyl)pentafluorobenzene;2,3,4,5,6-Pentafluoro-α-bromotoluene;NSC 96888;α-Bromo-pentafluorotoluene;2,3,4,5,6-Pentafluorophenylmethyl bromide",
    "duplicated_cas_no": "160977-29-7",
    "SMILES": "C(Br)C1=C(F)C(F)=C(F)C(F)=C1F",
    "meta_data": {
        "InChI": "InChI=1S/C7H2BrF5/c8-1-2-3(9)5(11)7(13)6(12)4(2)10/h1H2",
        "InChIKey": null,
        "Canonical SMILES": "FC=1C(F)=C(F)C(=C(F)C1F)CBr",
        "Molecular Formula": "C<sub>7</sub>H<sub>2</sub>BrF<sub>5</sub>",
        "Molecular Mass": "260.99",
        "Boiling Point": "174.5 °C",
        "Melting Point": "87-89 °C"
    }
}