{
    "cas_no": "75-20-7",
    "key_name": "Calcium carbide",
    "cn_name": null,
    "alternate_name": "Calcium carbide (Ca(C<sub>2</sub>));Acetylenogen;Calcium acetylide (Ca(C<sub>2</sub>));Calcium dicarbide;Calcium carbide;Calcium acetylide;Ethyne, calcium deriv.",
    "duplicated_cas_no": "12192-35-7;761337-30-8;195068-68-9;261780-86-3",
    "SMILES": "C1#C[Ca]1",
    "meta_data": {
        "InChI": "InChI=1S/C2.Ca/c1-2;",
        "InChIKey": null,
        "Canonical SMILES": "C1#C[Ca]1",
        "Molecular Formula": "C<sub>2</sub>Ca",
        "Molecular Mass": "",
        "Boiling Point": "138-140 °C @ Press: 3 Torr",
        "Melting Point": "2300 °C",
        "Density": "2.22 g/cm³"
    }
}