{
    "cas_no": "893736-72-6",
    "key_name": "2′-Hydroxy[1,1′-biphenyl]-3-carboxylic acid",
    "cn_name": null,
    "alternate_name": "[1,1′-Biphenyl]-3-carboxylic acid, 2′-hydroxy-;2′-Hydroxy[1,1′-biphenyl]-3-carboxylic acid",
    "duplicated_cas_no": "",
    "SMILES": "OC1=C(C2=CC(C(O)=O)=CC=C2)C=CC=C1",
    "meta_data": {
        "InChI": "InChI=1S/C13H10O3/c14-12-7-2-1-6-11(12)9-4-3-5-10(8-9)13(15)16/h1-8,14H,(H,15,16)",
        "InChIKey": null,
        "Canonical SMILES": "O=C(O)C1=CC=CC(=C1)C=2C=CC=CC2O",
        "Molecular Formula": "C<sub>13</sub>H<sub>10</sub>O<sub>3</sub>",
        "Molecular Mass": "214.22",
        "Melting Point": "290-291 °C"
    }
}