{
    "cas_no": "1833-51-8",
    "key_name": "[(Chloromethyl)dimethylsilyl]benzene",
    "cn_name": "氯甲基二甲基苯基硅烷;",
    "alternate_name": "Benzene, [(chloromethyl)dimethylsilyl]-;Silane, (chloromethyl)dimethylphenyl-;[(Chloromethyl)dimethylsilyl]benzene;(Chloromethyl)dimethylphenylsilane;Phenyldimethyl(chloromethyl)silane;Chloromethylphenyldimethylsilane;Dimethylphenylsilylmethyl chloride;Dimethyl(chloromethyl)phenylsilane;NSC 155366",
    "duplicated_cas_no": "",
    "SMILES": "[Si](CCl)(C)(C)C1=CC=CC=C1",
    "meta_data": {
        "InChI": "InChI=1S/C9H13ClSi/c1-11(2,8-10)9-6-4-3-5-7-9/h3-7H,8H2,1-2H3",
        "InChIKey": null,
        "Canonical SMILES": "ClC[Si](C=1C=CC=CC1)(C)C",
        "Molecular Formula": "C<sub>9</sub>H<sub>13</sub>ClSi",
        "Molecular Mass": "184.74",
        "Boiling Point": "225 °C",
        "Density": "1.031 g/cm³"
    }
}