{
    "cas_no": "958-60-1",
    "key_name": "2-Butanone, 2-(2,4-dinitrophenyl)hydrazone",
    "cn_name": null,
    "alternate_name": "2-Butanone, 2-(2,4-dinitrophenyl)hydrazone;2-Butanone, (2,4-dinitrophenyl)hydrazone;Ethyl methyl ketone (2,4-dinitrophenyl)hydrazone;Butanone 2,4-dinitrophenylhydrazone;Methyl ethyl ketone 2,4-dinitrophenylhydrazone;NSC 109807;NSC 404126",
    "duplicated_cas_no": "",
    "SMILES": "N(=O)(=O)C1=C(NN=C(CC)C)C=CC(N(=O)=O)=C1",
    "meta_data": {
        "InChI": "InChI=1S/C10H12N4O4/c1-3-7(2)11-12-9-5-4-8(13(15)16)6-10(9)14(17)18/h4-6,12H,3H2,1-2H3",
        "InChIKey": null,
        "Canonical SMILES": "O=N(=O)C1=CC=C(NN=C(C)CC)C(=C1)N(=O)=O",
        "Molecular Formula": "C<sub>10</sub>H<sub>12</sub>N<sub>4</sub>O<sub>4</sub>",
        "Molecular Mass": "252.23",
        "Melting Point": "115-115.5 °C"
    }
}