{
    "cas_no": "94-64-4",
    "key_name": "2-Chloro-<em>N</em>-methylbenzenemethanamine",
    "cn_name": "N-甲基-2-氯苄胺;",
    "alternate_name": "Benzenemethanamine, 2-chloro-<em>N</em>-methyl-;Benzylamine, <em>o</em>-chloro-<em>N</em>-methyl-;2-Chloro-<em>N</em>-methylbenzenemethanamine;<em>o</em>-Chloro-<em>N</em>-methylbenzylamine;2-Chloro-<em>N</em>-methylbenzylamine;<em>N</em>-Methyl-<em>o</em>-chlorobenzylamine;Methyl((2-chlorophenyl)methyl)amine;(2-Chlorobenzyl)methylamine;<em>N</em>-2-Chlorobenzylmethylamine;1-(2-Chlorophenyl)-<em>N</em>-methylmethanamine;<em>N</em>-Methyl-2-chlorobenzylamine;<em>N</em>-(2-Chlorobenzyl)-<em>N</em>-methylamine;[(2-Chlorophenyl)methyl](methyl)amine",
    "duplicated_cas_no": "",
    "SMILES": "C(NC)C1=C(Cl)C=CC=C1",
    "meta_data": {
        "InChI": "InChI=1S/C8H10ClN/c1-10-6-7-4-2-3-5-8(7)9/h2-5,10H,6H2,1H3",
        "InChIKey": null,
        "Canonical SMILES": "ClC=1C=CC=CC1CNC",
        "Molecular Formula": "C<sub>8</sub>H<sub>10</sub>ClN",
        "Molecular Mass": "155.62",
        "Boiling Point": "83-84 °C @ Press: 2 Torr"
    }
}