{
    "cas_no": "50-03-3",
    "key_name": "Hydrocortisone acetate",
    "cn_name": "醋酸氢化可的松;乙酸氢化可的松;",
    "alternate_name": "Pregn-4-ene-3,20-dione, 21-(acetyloxy)-11,17-dihydroxy-, (11β)-;Cortisol acetate;Cortisol, 21-acetate;(11β)-21-(Acetyloxy)-11,17-dihydroxypregn-4-ene-3,20-dione;21-Acetoxy-11β,17α-dihydroxypregn-4-ene-3,20-dione;Cortef acetate;Cortril acetate;HA;Hycortole acetate;Hydrin 2;Hydrocortisat;Hydrocortisone 21-acetate;Hydrocortisone acetate;Hydrocortone acetate;17-Hydroxycorticosterone 21-acetate;Isopto-Hydrocortisone;Pabracort;11β,17α,21-Trihydroxypregn-4-ene-3,20-dione 21-acetate;Hydroxycorticosterone acetate;21-Acetoxy-11β,17-dihydroxypregn-4-ene-3,20-dione;21-Acetoxy-11β,17-dihydroxypregn-4-en-3,20-dione;Hydrocortistab;17α-Hydroxycorticosterone acetate;Abbocort;Bambicort;Berlison F;Biocortar;Chemysone;Cortacream;Cortell;Wycort;Proctocort;Velopural;Hc 45;Lenirit;Sigmacort;Cortaid;Sintotrat;Colifoam;Cortril acetate AS;Colofoam;Efcolin;CaldeCort;Hydrocal;Anusol HC;Cordes;Cortifoam;Lanacort;NSC 741;Corticaine;Hydrocort acetate;4-Pregnene-11β,17,21-triol-3,20-dione 21-acetate",
    "duplicated_cas_no": "42016-02-4;60620-33-9;403815-62-3;1082515-29-4;2488831-62-3",
    "SMILES": "C[C@@]12[C@]([C@]3([C@]([C@@H](O)C1)([C@]4(C)C(CC3)=CC(=O)CC4)[H])[H])(CC[C@@]2(C(COC(C)=O)=O)O)[H]",
    "meta_data": {
        "InChI": "InChI=1S/C23H32O6/c1-13(24)29-12-19(27)23(28)9-7-17-16-5-4-14-10-15(25)6-8-21(14,2)20(16)18(26)11-22(17,23)3/h10,16-18,20,26,28H,4-9,11-12H2,1-3H3/t16-,17-,18-,20+,21-,22-,23-/m0/s1",
        "InChIKey": null,
        "Canonical SMILES": "O=C(OCC(=O)C1(O)CCC2C3CCC4=CC(=O)CCC4(C)C3C(O)CC21C)C",
        "Molecular Formula": "C<sub>23</sub>H<sub>32</sub>O<sub>6</sub>",
        "Molecular Mass": "404.50",
        "Melting Point": "223 °C (decomp)"
    }
}