{
    "cas_no": "19500-02-8",
    "key_name": "3-Methoxy-2-methylaniline",
    "cn_name": "2-甲基-3-甲氧基苯胺;",
    "alternate_name": "Benzenamine, 3-methoxy-2-methyl-;<em>m</em>-Anisidine, 2-methyl-;3-Methoxy-2-methylbenzenamine;2-Methyl-3-methoxyaniline;3-Methoxy-2-methylaniline;3-Methoxy-2-methylphenylamine;2-Methoxy-6-aminotoluene;3-Amino-1-methoxy-2-methylbenzene;1-Methoxy-2-methyl-3-aminobenzene",
    "duplicated_cas_no": "",
    "SMILES": "O(C)C1=C(C)C(N)=CC=C1",
    "meta_data": {
        "InChI": "InChI=1S/C8H11NO/c1-6-7(9)4-3-5-8(6)10-2/h3-5H,9H2,1-2H3",
        "InChIKey": null,
        "Canonical SMILES": "O(C1=CC=CC(N)=C1C)C",
        "Molecular Formula": "C<sub>8</sub>H<sub>11</sub>NO",
        "Molecular Mass": "137.18",
        "Melting Point": "31 °C"
    }
}