{
    "cas_no": "61451-78-3",
    "key_name": "<em>P</em>-(Hydroxymethyl)-<em>P</em>-phenylphosphinic acid",
    "cn_name": null,
    "alternate_name": "Phosphinic acid, <em>P</em>-(hydroxymethyl)-<em>P</em>-phenyl-;Phosphinic acid, (hydroxymethyl)phenyl-;<em>P</em>-(Hydroxymethyl)-<em>P</em>-phenylphosphinic acid;Hydroxymethyl(phenyl)phosphinic acid;(Hydroxymethyl)phenyl phosphinate;HMPPA",
    "duplicated_cas_no": "",
    "SMILES": "P(CO)(=O)(O)C1=CC=CC=C1",
    "meta_data": {
        "InChI": "InChI=1S/C7H9O3P/c8-6-11(9,10)7-4-2-1-3-5-7/h1-5,8H,6H2,(H,9,10)",
        "InChIKey": null,
        "Canonical SMILES": "O=P(O)(C=1C=CC=CC1)CO",
        "Molecular Formula": "C<sub>7</sub>H<sub>9</sub>O<sub>3</sub>P",
        "Molecular Mass": "172.12",
        "Melting Point": "138-139 °C"
    }
}