{
    "cas_no": "5296-64-0",
    "key_name": "(2-Propen-1-ylthio)benzene",
    "cn_name": "烯丙基苯硫化物;",
    "alternate_name": "Benzene, (2-propen-1-ylthio)-;Sulfide, allyl phenyl;Benzene, (2-propenylthio)-;(2-Propen-1-ylthio)benzene;Allyl phenyl sulfide;Allyl phenyl thioether;Phenyl allyl thioether;Phenyl allyl sulfide;(2-Propenylthio)benzene;Allyl(phenyl)sulfane;3-(Phenylthio)-1-propene;Phenyl 2-propenyl sulfide;Prop-2-enylthiobenzene;(Prop-2-en-1-ylsulfanyl)benzene;Allylthiobenzene",
    "duplicated_cas_no": "",
    "SMILES": "S(CC=C)C1=CC=CC=C1",
    "meta_data": {
        "InChI": "InChI=1S/C9H10S/c1-2-8-10-9-6-4-3-5-7-9/h2-7H,1,8H2",
        "InChIKey": null,
        "Canonical SMILES": "S(C=1C=CC=CC1)CC=C",
        "Molecular Formula": "C<sub>9</sub>H<sub>10</sub>S",
        "Molecular Mass": "150.24",
        "Boiling Point": "48-49 °C @ Press: 0.43 Torr",
        "Melting Point": "-48--46.5 °C",
        "Density": "1.0220 g/cm³ @ Temp: 25 °C"
    }
}