{
    "cas_no": "703-59-3",
    "key_name": "Homophthalic anhydride",
    "cn_name": "高酞酸酐;邻苯二价酸酐;單鄰苯二甲酐;高酞酸酐;高邻苯二甲酸酐;",
    "alternate_name": "1<em>H</em>-2-Benzopyran-1,3(4<em>H</em>)-dione;<em>o</em>-Toluic acid, α-carboxy-, cyclic anhydride;1,3-Isochromandione;Benzeneacetic acid, 2-carboxy-, cyclic anhydride;Homophthalic acid anhydride;Homophthalic anhydride;NSC 2825;NSC 401693;1<em>H</em>-Isochromene-1,3(4<em>H</em>)-dione;Homophtalic anhydride;3,4-Dihydro-1<em>H</em>-2-benzopyran-1,3-dione;Isochromene-1,3-dione",
    "duplicated_cas_no": "",
    "SMILES": "O=C1C=2C(CC(=O)O1)=CC=CC2",
    "meta_data": {
        "InChI": "InChI=1S/C9H6O3/c10-8-5-6-3-1-2-4-7(6)9(11)12-8/h1-4H,5H2",
        "InChIKey": null,
        "Canonical SMILES": "O=C1OC(=O)CC=2C=CC=CC12",
        "Molecular Formula": "C<sub>9</sub>H<sub>6</sub>O<sub>3</sub>",
        "Molecular Mass": "162.14",
        "Boiling Point": "100-134 °C @ Press: 0.25 Torr",
        "Melting Point": "189 °C"
    }
}