{
    "cas_no": "89488-30-2",
    "key_name": "5-Bromo-3-methyl-2(1<em>H</em>)-pyridinone",
    "cn_name": "2-羟基-3-甲基-5-溴吡啶;",
    "alternate_name": "2(1<em>H</em>)-Pyridinone, 5-bromo-3-methyl-;2(1<em>H</em>)-Pyridone, 5-bromo-3-methyl-;5-Bromo-3-methyl-2(1<em>H</em>)-pyridinone;5-Bromo-2-hydroxy-3-methylpyridine;NSC 142314;5-Bromo-3-methylpyridin-2-ol;5-Bromo-3-methyl-2-hydroxypyridine;5-Bromo-3-methylpyridin-2(1<em>H</em>)-one;5-Bromo-3-methyl-1<em>H</em>-pyridin-2-one",
    "duplicated_cas_no": "98042-75-2",
    "SMILES": "CC=1C(=O)NC=C(Br)C1",
    "meta_data": {
        "InChI": "InChI=1S/C6H6BrNO/c1-4-2-5(7)3-8-6(4)9/h2-3H,1H3,(H,8,9)",
        "InChIKey": null,
        "Canonical SMILES": "O=C1NC=C(Br)C=C1C",
        "Molecular Formula": "C<sub>6</sub>H<sub>6</sub>BrNO",
        "Molecular Mass": "188.02",
        "Melting Point": "166-167 °C"
    }
}