{
    "cas_no": "2946-39-6",
    "key_name": "8-Bromoadenosine",
    "cn_name": "8-溴腺苷;",
    "alternate_name": "Adenosine, 8-bromo-;8-Bromoadenosine;NSC 79213",
    "duplicated_cas_no": "",
    "SMILES": "BrC=1N(C=2C(N1)=C(N)N=CN2)[C@@H]3O[C@H](CO)[C@@H](O)[C@H]3O",
    "meta_data": {
        "InChI": "InChI=1S/C10H12BrN5O4/c11-10-15-4-7(12)13-2-14-8(4)16(10)9-6(19)5(18)3(1-17)20-9/h2-3,5-6,9,17-19H,1H2,(H2,12,13,14)/t3-,5-,6-,9-/m1/s1",
        "InChIKey": null,
        "Canonical SMILES": "BrC1=NC=2C(=NC=NC2N1C3OC(CO)C(O)C3O)N",
        "Molecular Formula": "C<sub>10</sub>H<sub>12</sub>BrN<sub>5</sub>O<sub>4</sub>",
        "Molecular Mass": "346.14",
        "Melting Point": "210 °C"
    }
}