{
    "cas_no": "23550-40-5",
    "key_name": "4-(Methylthio)-4-methyl-2-pentanone",
    "cn_name": "4-甲硫基-4-甲基-2-戊酮;4-甲基-4-甲硫基-2-戊酮;",
    "alternate_name": "2-Pentanone, 4-methyl-4-(methylthio)-;4-Methyl-4-(methylthio)-2-pentanone;4-Methylmercapto-4-methylpentan-2-one;4-(Methylthio)-4-methyl-2-pentanone",
    "duplicated_cas_no": "",
    "SMILES": "C(C(SC)(C)C)C(C)=O",
    "meta_data": {
        "InChI": "InChI=1S/C7H14OS/c1-6(8)5-7(2,3)9-4/h5H2,1-4H3",
        "InChIKey": null,
        "Canonical SMILES": "O=C(C)CC(SC)(C)C",
        "Molecular Formula": "C<sub>7</sub>H<sub>14</sub>OS",
        "Molecular Mass": "146.25",
        "Boiling Point": "84 °C @ Press: 12 Torr"
    }
}