{
    "cas_no": "2873-18-9",
    "key_name": "2-Bromo-5-chlorothiophene",
    "cn_name": null,
    "alternate_name": "Thiophene, 2-bromo-5-chloro-;2-Bromo-5-chlorothiophene;5-Bromo-2-chlorothiophene;2-Chloro-5-bromothiophene",
    "duplicated_cas_no": "",
    "SMILES": "BrC=1SC(Cl)=CC1",
    "meta_data": {
        "InChI": "InChI=1S/C4H2BrClS/c5-3-1-2-4(6)7-3/h1-2H",
        "InChIKey": null,
        "Canonical SMILES": "ClC=1SC(Br)=CC1",
        "Molecular Formula": "C<sub>4</sub>H<sub>2</sub>BrClS",
        "Molecular Mass": "197.48",
        "Boiling Point": "69.5-70.0 °C @ Press: 18 Torr",
        "Melting Point": "-20 °C",
        "Density": "1.803 g/cm³ @ Temp: 25 °C"
    }
}