{
    "cas_no": "81-49-2",
    "key_name": "1-Amino-2,4-dibromo-9,10-anthracenedione",
    "cn_name": "1-氨基-2,4-二溴蒽醌;",
    "alternate_name": "9,10-Anthracenedione, 1-amino-2,4-dibromo-;Anthraquinone, 1-amino-2,4-dibromo-;1-Amino-2,4-dibromo-9,10-anthracenedione;2,4-Dibromo-1-anthraquinonylamine;1-Amino-2,4-dibromo-9,10-anthraquinone;1-Amino-2,4-dibromoanthraquinone;NSC 3529;1-Amino-2,4-dibromo-9,10-dihydroanthracene-9,10-dione",
    "duplicated_cas_no": "",
    "SMILES": "O=C1C=2C(C(=O)C=3C1=CC=CC3)=C(Br)C=C(Br)C2N",
    "meta_data": {
        "InChI": "InChI=1S/C14H7Br2NO2/c15-8-5-9(16)12(17)11-10(8)13(18)6-3-1-2-4-7(6)14(11)19/h1-5H,17H2",
        "InChIKey": null,
        "Canonical SMILES": "O=C1C=2C=CC=CC2C(=O)C=3C(N)=C(Br)C=C(Br)C13",
        "Molecular Formula": "C<sub>14</sub>H<sub>7</sub>Br<sub>2</sub>NO<sub>2</sub>",
        "Molecular Mass": "381.02",
        "Melting Point": "221 °C"
    }
}