{
    "cas_no": "4238-71-5",
    "key_name": "1-Benzylimidazole",
    "cn_name": "N-苄基咪唑;",
    "alternate_name": "1<em>H</em>-Imidazole, 1-(phenylmethyl)-;Imidazole, 1-benzyl-;1-(Phenylmethyl)-1<em>H</em>-imidazole;1-Benzylimidazole;<em>N</em>-Benzylimidazole;1-Benzyl-1<em>H</em>-imidazole;CDD 3500;NSC 126828;NSC 217337",
    "duplicated_cas_no": "114783-66-3;546113-13-7",
    "SMILES": "C(C1=CC=CC=C1)N2C=CN=C2",
    "meta_data": {
        "InChI": "InChI=1S/C10H10N2/c1-2-4-10(5-3-1)8-12-7-6-11-9-12/h1-7,9H,8H2",
        "InChIKey": null,
        "Canonical SMILES": "N=1C=CN(C1)CC=2C=CC=CC2",
        "Molecular Formula": "C<sub>10</sub>H<sub>10</sub>N<sub>2</sub>",
        "Molecular Mass": "158.20",
        "Boiling Point": "310 °C",
        "Melting Point": "68-70 °C"
    }
}