{
    "cas_no": "20739-58-6",
    "key_name": "2-Octyn-1-ol",
    "cn_name": "2-辛炔-1-醇;",
    "alternate_name": "2-Octyn-1-ol;2-Octynol;NSC 203012",
    "duplicated_cas_no": "",
    "SMILES": "C(CCCC)C#CCO",
    "meta_data": {
        "InChI": "InChI=1S/C8H14O/c1-2-3-4-5-6-7-8-9/h9H,2-5,8H2,1H3",
        "InChIKey": null,
        "Canonical SMILES": "OCC#CCCCCC",
        "Molecular Formula": "C<sub>8</sub>H<sub>14</sub>O",
        "Molecular Mass": "126.20",
        "Boiling Point": "95.0-95.2 °C @ Press: 10 Torr",
        "Melting Point": "-18 °C",
        "Density": "0.8805 g/cm³ @ Temp: 20 °C"
    }
}