{
    "cas_no": "34433-31-3",
    "key_name": "HI 6 chloride",
    "cn_name": null,
    "alternate_name": "Pyridinium, 1-[[[4-(aminocarbonyl)pyridinio]methoxy]methyl]-2-[(hydroxyimino)methyl]-, chloride (1:2);Pyridinium, 1-[[[4-(aminocarbonyl)pyridinio]methoxy]methyl]-2-[(hydroxyimino)methyl]-, dichloride;Pyridinium, 4′-carbamoyl-2-formyl-1,1′-(oxydimethylene)di-, dichloride, 2-oxime;HI 6;HJ 6;HI-6 dichloride;Asoxime chloride;HI 6 chloride;Transant",
    "duplicated_cas_no": "144252-48-2",
    "SMILES": "C(OC[N+]=1C=CC(C(N)=O)=CC1)[N+]=2C(C=NO)=CC=CC2.[Cl-]",
    "meta_data": {
        "InChI": "InChI=1S/C14H14N4O3.2ClH/c15-14(19)12-4-7-17(8-5-12)10-21-11-18-6-2-1-3-13(18)9-16-20;;/h1-9H,10-11H2,(H-,15,19);2*1H",
        "InChIKey": null,
        "Canonical SMILES": "[Cl-].O=C(N)C1=CC=[N+](C=C1)COC[N+]=2C=CC=CC2C=NO",
        "Molecular Formula": "C<sub>14</sub>H<sub>16</sub>N<sub>4</sub>O<sub>3</sub>.2Cl",
        "Molecular Mass": "",
        "Melting Point": "150-152 °C"
    }
}