{
    "cas_no": "17688-68-5",
    "key_name": "Thiomorpholine, 4-phenyl-, 1,1-dioxide",
    "cn_name": "4-Phenylthiomorpholine 1,1-Dioxide;",
    "alternate_name": "Thiomorpholine, 4-phenyl-, 1,1-dioxide;<em>N</em>-(Phenyl)thiomorpholine 1,1-dioxide;NSC 261427;<em>N</em>-Phenylthiomorpholine <em>S</em>,<em>S</em>-dioxide",
    "duplicated_cas_no": "",
    "SMILES": "O=S1(=O)CCN(CC1)C2=CC=CC=C2",
    "meta_data": {
        "InChI": "InChI=1S/C10H13NO2S/c12-14(13)8-6-11(7-9-14)10-4-2-1-3-5-10/h1-5H,6-9H2",
        "InChIKey": null,
        "Canonical SMILES": "O=S1(=O)CCN(C=2C=CC=CC2)CC1",
        "Molecular Formula": "C<sub>10</sub>H<sub>13</sub>NO<sub>2</sub>S",
        "Molecular Mass": "211.28",
        "Melting Point": "122 °C"
    }
}