{
    "cas_no": "3236-48-4",
    "key_name": "<em>trans</em>-1,4-Cyclohexanedimethanol",
    "cn_name": null,
    "alternate_name": "1,4-Cyclohexanedimethanol, <em>trans</em>-;<em>trans</em>-1,4-Cyclohexanedimethanol;<em>trans</em>-1,4-Bis(hydroxymethyl)cyclohexane;(<em>trans</em>-4-Hydroxymethylcyclohexyl)methanol;(<em>trans</em>-Cyclohexane-1,4-diyl)dimethanol",
    "duplicated_cas_no": "",
    "SMILES": "C(O)[C@H]1CC[C@H](CO)CC1",
    "meta_data": {
        "InChI": "InChI=1/C8H16O2/c9-5-7-1-2-8(6-10)4-3-7/h7-10H,1-6H2/t7-,8-",
        "InChIKey": null,
        "Canonical SMILES": "OCC1CCC(CO)CC1",
        "Molecular Formula": "C<sub>8</sub>H<sub>16</sub>O<sub>2</sub>",
        "Molecular Mass": "144.21",
        "Melting Point": "100-330 °C"
    }
}