{
    "cas_no": "97-89-2",
    "key_name": "Citronellyl isobutyrate",
    "cn_name": null,
    "alternate_name": "Propanoic acid, 2-methyl-, 3,7-dimethyl-6-octen-1-yl ester;Isobutyric acid, 3,7-dimethyl-6-octenyl ester;Propanoic acid, 2-methyl-, 3,7-dimethyl-6-octenyl ester;Isobutyric acid, ester with citronellol;Citronellyl isobutyrate;2,6-Dimethyl-2-octen-8-yl isobutyrate;NSC 46148;3,7-Dimethyloct-6-en-1-yl isobutyrate",
    "duplicated_cas_no": "76444-25-2",
    "SMILES": "C(OCCC(CCC=C(C)C)C)(C(C)C)=O",
    "meta_data": {
        "InChI": "InChI=1S/C14H26O2/c1-11(2)7-6-8-13(5)9-10-16-14(15)12(3)4/h7,12-13H,6,8-10H2,1-5H3",
        "InChIKey": null,
        "Canonical SMILES": "O=C(OCCC(C)CCC=C(C)C)C(C)C",
        "Molecular Formula": "C<sub>14</sub>H<sub>26</sub>O<sub>2</sub>",
        "Molecular Mass": "226.35",
        "Boiling Point": "175-180 °C @ Press: 15 Torr"
    }
}