{
    "cas_no": "4265-25-2",
    "key_name": "2-Methylbenzofuran",
    "cn_name": null,
    "alternate_name": "Benzofuran, 2-methyl-;2-Methylbenzofuran;2-Methylcumarone;2-Methylbenzo[<em>b</em>]furan;2-Methyl-1-benzofuran",
    "duplicated_cas_no": "",
    "SMILES": "CC1=CC=2C(O1)=CC=CC2",
    "meta_data": {
        "InChI": "InChI=1S/C9H8O/c1-7-6-8-4-2-3-5-9(8)10-7/h2-6H,1H3",
        "InChIKey": null,
        "Canonical SMILES": "O1C=2C=CC=CC2C=C1C",
        "Molecular Formula": "C<sub>9</sub>H<sub>8</sub>O",
        "Molecular Mass": "132.16",
        "Boiling Point": "197.5 °C",
        "Melting Point": "154-155 °C",
        "Density": "1.051 g/cm³ @ Temp: 22 °C"
    }
}