{
    "cas_no": "35138-22-8",
    "key_name": "Rhodium(1+), bis[(1,2,5,6-η)-1,5-cyclooctadiene]-, tetrafluoroborate(1-) (1:1)",
    "cn_name": "二(1,5-环辛二烯)四氟硼酸铑(I);",
    "alternate_name": "Rhodium(1+), bis[(1,2,5,6-η)-1,5-cyclooctadiene]-, tetrafluoroborate(1-) (1:1);Rhodium(1+), bis[(1,2,5,6-η)-1,5-cyclooctadiene]-, tetrafluoroborate(1-);Rhodium(1+), bis(1,5-cyclooctadiene)-, tetrafluoroborate(1-);Borate(1-), tetrafluoro-, bis[(1,2,5,6-η)-1,5-cyclooctadiene]rhodium(1+);1,5-Cyclooctadiene, rhodium complex;Bis(1,5-cyclooctadienyl)rhodium tetrafluoroborate;Bis(cyclooctadiene)rhodium tetrafluoroborate;Bis(1,5-cyclooctadiene)rhodium(I) tetrafluoroborate;Bis(1,5-cyclooctadiene)rhodium(1+) tetrafluoroborate;Bis(1,5-cyclooctadiene)rhodium tetrafluoroborate;Bis(<em>cis</em>,<em>cis</em>-1,5-cyclooctadiene)rhodium tetrafluoroborate;Bis(cyclooctadiene)rhodium(1+) tetrafluoroborate(1-);Bis[(1,2,5,6-η)-1,5-cyclooctadiene]rhodium tetrafluoroborate(1-)-;Bis[(1,2,5,6-η)-1,5-cyclooctadiene]rhodium(1+) tetrafluoroborate(1-);Bis(1,5-cyclooctadiene)rhodium(1+) tetrafluoroborate(1-);Bis(cyclooctadiene)rhodium(1+) tetrafluoroborate;Rh(COD)<sub>2</sub>BF<sub>4</sub>;Dicyclooctadienerhodium tetrafluoroborate;Bis(1,5-cyclooctadiene)(tetrafluoroborato)rhodium",
    "duplicated_cas_no": "11067-08-6;36620-12-9",
    "SMILES": "[Rh+]123456([CH]7=[CH]1CC[CH]2=[CH]3CC7)[CH]8=[CH]4CC[CH]5=[CH]6CC8.[B+3]([F-])([F-])([F-])[F-]",
    "meta_data": {
        "InChI": "InChI=1S/2C8H12.BF4.Rh/c2*1-2-4-6-8-7-5-3-1;2-1(3,4)5;/h2*1-2,7-8H,3-6H2;;/q;;-1;+1",
        "InChIKey": null,
        "Canonical SMILES": "[F-][B+3]([F-])([F-])[F-].C1C[CH]2=[CH]3CC[CH]4=[CH]1[Rh+]243567[CH]=8CC[CH]7=[CH]6CC[CH]85",
        "Molecular Formula": "C<sub>16</sub>H<sub>24</sub>Rh.BF<sub>4</sub>",
        "Molecular Mass": "",
        "Melting Point": "206-208 °C"
    }
}