{
    "cas_no": "1989-33-9",
    "key_name": "Fluorene-9-carboxylic acid",
    "cn_name": "9-芴甲酸;",
    "alternate_name": "9<em>H</em>-Fluorene-9-carboxylic acid;Fluorene-9-carboxylic acid;9-Carboxyfluorene;NSC 5322;Fluorine-9-carbocylic acid",
    "duplicated_cas_no": "",
    "SMILES": "C(O)(=O)C1C=2C(C=3C1=CC=CC3)=CC=CC2",
    "meta_data": {
        "InChI": "InChI=1S/C14H10O2/c15-14(16)13-11-7-3-1-5-9(11)10-6-2-4-8-12(10)13/h1-8,13H,(H,15,16)",
        "InChIKey": null,
        "Canonical SMILES": "O=C(O)C1C=2C=CC=CC2C=3C=CC=CC31",
        "Molecular Formula": "C<sub>14</sub>H<sub>10</sub>O<sub>2</sub>",
        "Molecular Mass": "210.23",
        "Melting Point": "228-231 °C"
    }
}