{
    "cas_no": "14178-15-5",
    "key_name": "2-Phenoxy-3-pyridinecarbonitrile",
    "cn_name": "3-氰基-2-苯氧基吡啶;3-腈基-2-苯氧基吡啶;",
    "alternate_name": "3-Pyridinecarbonitrile, 2-phenoxy-;Nicotinonitrile, 2-phenoxy-;2-Phenoxy-3-pyridinecarbonitrile;2-Phenoxynicotinonitrile;2-Phenoxy-3-cyanopyridine",
    "duplicated_cas_no": "",
    "SMILES": "O(C1=C(C#N)C=CC=N1)C2=CC=CC=C2",
    "meta_data": {
        "InChI": "InChI=1S/C12H8N2O/c13-9-10-5-4-8-14-12(10)15-11-6-2-1-3-7-11/h1-8H",
        "InChIKey": null,
        "Canonical SMILES": "N#CC1=CC=CN=C1OC=2C=CC=CC2",
        "Molecular Formula": "C<sub>12</sub>H<sub>8</sub>N<sub>2</sub>O",
        "Molecular Mass": "196.20",
        "Melting Point": "109-110 °C"
    }
}