{
    "cas_no": "1540-36-9",
    "key_name": "3-Butyl-2,4-pentanedione",
    "cn_name": null,
    "alternate_name": "2,4-Pentanedione, 3-butyl-;3-Butyl-2,4-pentanedione;3-Butylacetylacetone;3-Acetyl-2-heptanone;NSC 2249;3-<em>n</em>-Butyl-2,4-pentanedione;3-Butylpentan-2,4-dione;3-(1-Butyl)-pentane-2,4-dione",
    "duplicated_cas_no": "",
    "SMILES": "C(CCCC)(C(C)=O)C(C)=O",
    "meta_data": {
        "InChI": "InChI=1S/C9H16O2/c1-4-5-6-9(7(2)10)8(3)11/h9H,4-6H2,1-3H3",
        "InChIKey": null,
        "Canonical SMILES": "O=C(C)C(C(=O)C)CCCC",
        "Molecular Formula": "C<sub>9</sub>H<sub>16</sub>O<sub>2</sub>",
        "Molecular Mass": "156.22",
        "Boiling Point": "210-212 °C @ Press: 750 Torr",
        "Melting Point": "42.5-43.5 °C"
    }
}