{
    "cas_no": "3449-28-3",
    "key_name": "Dibutyldichlorosilane",
    "cn_name": "二丁基二氯化硅;",
    "alternate_name": "Silane, dibutyldichloro-;Dibutyldichlorosilane;LS 2250",
    "duplicated_cas_no": "",
    "SMILES": "[Si](CCCC)(CCCC)(Cl)Cl",
    "meta_data": {
        "InChI": "InChI=1S/C8H18Cl2Si/c1-3-5-7-11(9,10)8-6-4-2/h3-8H2,1-2H3",
        "InChIKey": null,
        "Canonical SMILES": "Cl[Si](Cl)(CCCC)CCCC",
        "Molecular Formula": "C<sub>8</sub>H<sub>18</sub>Cl<sub>2</sub>Si",
        "Molecular Mass": "213.22",
        "Boiling Point": "62-63.5 °C @ Press: 4.5 Torr",
        "Density": "0.9915 g/cm³ @ Temp: 20 °C"
    }
}