{
    "cas_no": "91832-40-5",
    "key_name": "Cefdinir",
    "cn_name": "头孢地尼;(6R,7R)-7-[(Z)-2-(2-氨基-4-噻唑基)-2-羟基亚胺基乙酰氨基]-8-氧代-3-乙烯基-5-硫杂-1-氮杂双环[;",
    "alternate_name": "5-Thia-1-azabicyclo[4.2.0]oct-2-ene-2-carboxylic acid, 7-[[(2<em>Z</em>)-2-(2-amino-4-thiazolyl)-2-(hydroxyimino)acetyl]amino]-3-ethenyl-8-oxo-, (6<em>R</em>,7<em>R</em>)-;5-Thia-1-azabicyclo[4.2.0]oct-2-ene-2-carboxylic acid, 7-[[(2-amino-4-thiazolyl)(hydroxyimino)acetyl]amino]-3-ethenyl-8-oxo-, [6<em>R</em>-[6α,7β(<em>Z</em>)]]-;5-Thia-1-azabicyclo[4.2.0]oct-2-ene-2-carboxylic acid, 7-[[(2<em>Z</em>)-(2-amino-4-thiazolyl)(hydroxyimino)acetyl]amino]-3-ethenyl-8-oxo-, (6<em>R</em>,7<em>R</em>)-;(6<em>R</em>,7<em>R</em>)-7-[[(2<em>Z</em>)-2-(2-Amino-4-thiazolyl)-2-(hydroxyimino)acetyl]amino]-3-ethenyl-8-oxo-5-thia-1-azabicyclo[4.2.0]oct-2-ene-2-carboxylic acid;FK 482;BMY 28488;Cefdinir;CI 983;Cefzon;CFDN;Adcef;Omnicef;Cefnil;Cefdiel;Kefnir;Zinir",
    "duplicated_cas_no": "",
    "SMILES": "C(O)(=O)C=1N2[C@@]([C@H](NC(/C(=N\\O)/C3=CSC(N)=N3)=O)C2=O)(SCC1C=C)[H]",
    "meta_data": {
        "InChI": "InChI=1S/C14H13N5O5S2/c1-2-5-3-25-12-8(11(21)19(12)9(5)13(22)23)17-10(20)7(18-24)6-4-26-14(15)16-6/h2,4,8,12,24H,1,3H2,(H2,15,16)(H,17,20)(H,22,23)/b18-7-/t8-,12-/m1/s1",
        "InChIKey": null,
        "Canonical SMILES": "O=C(O)C1=C(C=C)CSC2N1C(=O)C2NC(=O)C(=NO)C=3N=C(SC3)N",
        "Molecular Formula": "C<sub>14</sub>H<sub>13</sub>N<sub>5</sub>O<sub>5</sub>S<sub>2</sub>",
        "Molecular Mass": "395.41",
        "Melting Point": "170 °C (decomp)"
    }
}