{
    "cas_no": "50930-79-5",
    "key_name": "Aniline phthalate",
    "cn_name": "苯胺邻苯二甲酸酯,检测碳水化合物和糖类用TLC高效喷显剂;",
    "alternate_name": "1,2-Benzenedicarboxylic acid, compd. with benzenamine (1:1);Phthalic acid, compd. with PhNH<sub>2</sub>;Phthalic acid, aniline salt;Benzenamine, 1,2-benzenedicarboxylate (1:1);Aniline hydrogen phthalate;Aniline phthalate",
    "duplicated_cas_no": "",
    "SMILES": "C(O)(=O)C1=C(C(O)=O)C=CC=C1.NC1=CC=CC=C1",
    "meta_data": {
        "InChI": "InChI=1S/C8H6O4.C6H7N/c9-7(10)5-3-1-2-4-6(5)8(11)12;7-6-4-2-1-3-5-6/h1-4H,(H,9,10)(H,11,12);1-5H,7H2",
        "InChIKey": null,
        "Canonical SMILES": "O=C(O)C=1C=CC=CC1C(=O)O.NC=1C=CC=CC1",
        "Molecular Formula": "C<sub>8</sub>H<sub>6</sub>O<sub>4</sub>.C<sub>6</sub>H<sub>7</sub>N",
        "Molecular Mass": "",
        "Melting Point": "158 °C (decomp)"
    }
}