{
    "cas_no": "821-76-1",
    "key_name": "1,7-Dichloroheptane",
    "cn_name": null,
    "alternate_name": "Heptane, 1,7-dichloro-;1,7-Dichloroheptane;NSC 18516",
    "duplicated_cas_no": "",
    "SMILES": "C(CCCCl)CCCCl",
    "meta_data": {
        "InChI": "InChI=1S/C7H14Cl2/c8-6-4-2-1-3-5-7-9/h1-7H2",
        "InChIKey": null,
        "Canonical SMILES": "ClCCCCCCCCl",
        "Molecular Formula": "C<sub>7</sub>H<sub>14</sub>Cl<sub>2</sub>",
        "Molecular Mass": "169.09",
        "Boiling Point": "106-110 °C @ Press: 15 Torr"
    }
}