{
    "cas_no": "704-15-4",
    "key_name": "Glycyl-<span class=\"text-smallcaps\">L</span>-proline",
    "cn_name": "甘油-L-脯氨酸;甘油-L-脯氨酸;N-氨基乙酰-2-羧基吡咯啶;N-氨基乙酰吡咯啶-2-羧酸;甘氨酸缩-L-普啉;甘氨酰-L;",
    "alternate_name": "<span class=\"text-smallcaps\">L</span>-Proline, glycyl-;Proline, 1-glycyl-, <span class=\"text-smallcaps\">L</span>-;<span class=\"text-smallcaps\">L</span>-Proline, 1-glycyl-;Glycyl-<span class=\"text-smallcaps\">L</span>-proline;<em>N</em>-Glycyl-<span class=\"text-smallcaps\">L</span>-proline;<em>N</em>-Glycylproline;1-Glycylproline;7: PN: WO03052099 PAGE: 83 claimed protein;NSC 97929;(<em>S</em>)-1-(2-Aminoacetyl)pyrrolidine-2-carboxylic acid;152: PN: EP2161028 PAGE: 10 claimed protein;11: PN: CN101988058 SEQID: 11 claimed sequence;12: PN: WO2014063098 TABLE: 5 claimed sequence;81: PN: WO2011146121 PAGE: 115 claimed sequence;2: PN: WO2011150133 PAGE: 63 claimed sequence;132: PN: US20130123467 SEQID: 158 claimed protein;2: PN: TWI417385 SEQID: 11 claimed sequence;15: PN: WO2015153838 PAGE: 89 claimed sequence;4: PN: WO2016023974 PAGE: 31 claimed sequence;1: PN: WO2017060857 PAGE: 93 claimed sequence;GP (peptide);1: PN: JP2018145111 PAGE: 3 claimed sequence;19: PN: WO2020009548 SEQID: 19 claimed protein;3: PN: WO2020023418 PAGE: 66 claimed sequence;5: PN: WO2021055880 SEQID: 5 claimed protein;2: PN: WO2022051536 PAGE: 64 claimed sequence;514: PN: WO2022056313 SEQID: 530 claimed protein;35: PN: WO2022087255 SEQID: 35 claimed protein;360: PN: US20220128567 SEQID: 530 claimed protein;360: PN: US20220178935 SEQID: 530 claimed protein;2: PN: WO2023122257 SEQID: 35 claimed sequence",
    "duplicated_cas_no": "3790-57-6",
    "SMILES": "C(CN)(=O)N1[C@H](C(O)=O)CCC1",
    "meta_data": {
        "InChI": "InChI=1S/C7H12N2O3/c8-4-6(10)9-3-1-2-5(9)7(11)12/h5H,1-4,8H2,(H,11,12)/t5-/m0/s1",
        "InChIKey": null,
        "Canonical SMILES": "O=C(O)C1N(C(=O)CN)CCC1",
        "Molecular Formula": "C<sub>7</sub>H<sub>12</sub>N<sub>2</sub>O<sub>3</sub>",
        "Molecular Mass": "172.18",
        "Melting Point": "185 °C"
    }
}