{
    "cas_no": "3132-64-7",
    "key_name": "2-(Bromomethyl)oxirane",
    "cn_name": "环氧溴丙烷;1-溴-2,3-环氧丙烷;溴甲基环氧乙烷;表溴醇;",
    "alternate_name": "Oxirane, 2-(bromomethyl)-;Epibromohydrin;Propane, 1-bromo-2,3-epoxy-;Oxirane, (bromomethyl)-;2-(Bromomethyl)oxirane;(Bromomethyl)ethylene oxide;1-Bromo-2,3-epoxypropane;Epibromhydrin;1,2-Epoxy-3-bromopropane;Bromohydrin;3-Bromo-1,2-epoxypropane;2,3-Epoxypropyl bromide;(Bromomethyl)oxirane;(±)-3-Bromo-1,2-epoxypropane;(±)-(Bromomethyl)oxirane;(±)-Epibromohydrin;NSC 630;Oxiranylmethyl bromide;Epoxy bromopropane;Glycidyl bromide",
    "duplicated_cas_no": "82584-73-4",
    "SMILES": "C(Br)C1CO1",
    "meta_data": {
        "InChI": "InChI=1S/C3H5BrO/c4-1-3-2-5-3/h3H,1-2H2",
        "InChIKey": null,
        "Canonical SMILES": "BrCC1OC1",
        "Molecular Formula": "C<sub>3</sub>H<sub>5</sub>BrO",
        "Molecular Mass": "136.98",
        "Boiling Point": "134.6 °C",
        "Melting Point": "-40 °C",
        "Density": "1.601 g/cm³"
    }
}