{
    "cas_no": "1821-36-9",
    "key_name": "<em>N</em>-Cyclohexylbenzenamine",
    "cn_name": null,
    "alternate_name": "Benzenamine, <em>N</em>-cyclohexyl-;Cyclohexylamine, <em>N</em>-phenyl-;<em>N</em>-Cyclohexylbenzenamine;Cyclohexanamine, <em>N</em>-phenyl-;<em>N</em>-Phenylcyclohexylamine;<em>N</em>-Cyclohexylaniline;Cyclohexylphenylamine;Phenylcyclohexylamine;NSC 27510;<em>N</em>-Cyclohexyl-<em>N</em>-phenylamine;<em>N</em>-Cyclohexylphenylamine",
    "duplicated_cas_no": "",
    "SMILES": "N(C1CCCCC1)C2=CC=CC=C2",
    "meta_data": {
        "InChI": "InChI=1S/C12H17N/c1-3-7-11(8-4-1)13-12-9-5-2-6-10-12/h1,3-4,7-8,12-13H,2,5-6,9-10H2",
        "InChIKey": null,
        "Canonical SMILES": "C=1C=CC(=CC1)NC2CCCCC2",
        "Molecular Formula": "C<sub>12</sub>H<sub>17</sub>N",
        "Molecular Mass": "175.27",
        "Boiling Point": "279 °C",
        "Melting Point": "16 °C",
        "Density": "1.003 g/cm³ @ Temp: 12 °C"
    }
}