{
    "cas_no": "4054-38-0",
    "key_name": "1,3-Cycloheptadiene",
    "cn_name": "1,3-环庚二烯;",
    "alternate_name": "1,3-Cycloheptadiene",
    "duplicated_cas_no": "30159-11-6",
    "SMILES": "C1CC=CC=CC1",
    "meta_data": {
        "InChI": "InChI=1S/C7H10/c1-2-4-6-7-5-3-1/h1-4H,5-7H2",
        "InChIKey": null,
        "Canonical SMILES": "C=1C=CCCCC1",
        "Molecular Formula": "C<sub>7</sub>H<sub>10</sub>",
        "Molecular Mass": "94.15",
        "Boiling Point": "120.5 °C",
        "Melting Point": "-110.4 °C",
        "Density": "0.8650 g/cm³ @ Temp: 20 °C"
    }
}