{
    "cas_no": "1123-98-4",
    "key_name": "2-Fluorobenzothiazole",
    "cn_name": "2-氟苯并噻唑;",
    "alternate_name": "Benzothiazole, 2-fluoro-;2-Fluorobenzothiazole;2-Fluoro-1,3-benzothiazole;2-Fluorobenzo[<em>d</em>]thiazole",
    "duplicated_cas_no": "",
    "SMILES": "FC1=NC=2C(S1)=CC=CC2",
    "meta_data": {
        "InChI": "InChI=1S/C7H4FNS/c8-7-9-5-3-1-2-4-6(5)10-7/h1-4H",
        "InChIKey": null,
        "Canonical SMILES": "FC1=NC=2C=CC=CC2S1",
        "Molecular Formula": "C<sub>7</sub>H<sub>4</sub>FNS",
        "Molecular Mass": "153.18",
        "Boiling Point": "97-98 °C @ Press: 16 Torr"
    }
}