{
    "cas_no": "76272-34-9",
    "key_name": "8-Benzyl-8-azabicyclo[3.2.1]octan-3-one oxime",
    "cn_name": null,
    "alternate_name": "8-Azabicyclo[3.2.1]octan-3-one, 8-(phenylmethyl)-, oxime;8-Benzyl-3-nortropanone oxime;8-Benzyl-8-azabicyclo[3.2.1]octan-3-one oxime;<em>N</em>-Benzyltropinone oxime",
    "duplicated_cas_no": "",
    "SMILES": "C(N1C2CC(=NO)CC1CC2)C3=CC=CC=C3",
    "meta_data": {
        "InChI": "InChI=1S/C14H18N2O/c17-15-12-8-13-6-7-14(9-12)16(13)10-11-4-2-1-3-5-11/h1-5,13-14,17H,6-10H2",
        "InChIKey": null,
        "Canonical SMILES": "ON=C1CC2N(CC=3C=CC=CC3)C(C1)CC2",
        "Molecular Formula": "C<sub>14</sub>H<sub>18</sub>N<sub>2</sub>O",
        "Molecular Mass": "230.31",
        "Melting Point": "124 °C"
    }
}