{
    "cas_no": "50892-23-4",
    "key_name": "Pirinixic acid",
    "cn_name": "匹立尼酸;",
    "alternate_name": "Acetic acid, 2-[[4-chloro-6-[(2,3-dimethylphenyl)amino]-2-pyrimidinyl]thio]-;Acetic acid, [[4-chloro-6-[(2,3-dimethylphenyl)amino]-2-pyrimidinyl]thio]-;2-[[4-Chloro-6-[(2,3-dimethylphenyl)amino]-2-pyrimidinyl]thio]acetic acid;Wy 14643;[4-Chloro-6-(2,3-xylidino)-2-pyrimidinylthio]acetic acid;Pirinixic acid;Pirnixic acid;NSC 310038;2-[4-Chloro-6-(2,3-dimethylanilino)pyrimidin-2-yl]sulfanylacetic acid",
    "duplicated_cas_no": "",
    "SMILES": "N(C1=NC(SCC(O)=O)=NC(Cl)=C1)C2=C(C)C(C)=CC=C2",
    "meta_data": {
        "InChI": "InChI=1S/C14H14ClN3O2S/c1-8-4-3-5-10(9(8)2)16-12-6-11(15)17-14(18-12)21-7-13(19)20/h3-6H,7H2,1-2H3,(H,19,20)(H,16,17,18)",
        "InChIKey": null,
        "Canonical SMILES": "O=C(O)CSC1=NC(Cl)=CC(=N1)NC2=CC=CC(=C2C)C",
        "Molecular Formula": "C<sub>14</sub>H<sub>14</sub>ClN<sub>3</sub>O<sub>2</sub>S",
        "Molecular Mass": "323.80",
        "Melting Point": "151-153 °C"
    }
}