{
    "cas_no": "586-78-7",
    "key_name": "1-Bromo-4-nitrobenzene",
    "cn_name": "1-溴-4-硝基苯;4-溴硝基苯;对溴硝基苯;",
    "alternate_name": "Benzene, 1-bromo-4-nitro-;1-Bromo-4-nitrobenzene;<em>p</em>-Nitrobromobenzene;4-Bromonitrobenzene;4-Nitrobromobenzene;<em>p</em>-Bromonitrobenzene;<em>p</em>-Nitrophenyl bromide;4-Nitrophenyl bromide;4-Bromo-1-nitrobenzene;NSC 3526;4-Nitro-1-bromobenzene;1-Nitro-4-bromobenzene",
    "duplicated_cas_no": "1425113-44-5",
    "SMILES": "N(=O)(=O)C1=CC=C(Br)C=C1",
    "meta_data": {
        "InChI": "InChI=1S/C6H4BrNO2/c7-5-1-3-6(4-2-5)8(9)10/h1-4H",
        "InChIKey": null,
        "Canonical SMILES": "O=N(=O)C1=CC=C(Br)C=C1",
        "Molecular Formula": "C<sub>6</sub>H<sub>4</sub>BrNO<sub>2</sub>",
        "Molecular Mass": "202.01",
        "Boiling Point": "256 °C",
        "Melting Point": "127 °C"
    }
}