{
    "cas_no": "60-24-2",
    "key_name": "2-Mercaptoethanol",
    "cn_name": "2-巯基乙醇;beta-巯基乙醇;硫代乙二醇;",
    "alternate_name": "Ethanol, 2-mercapto-;2-Mercaptoethanol;2-ME;Ethylene glycol, monothio-;2-Hydroxyethyl mercaptan;Mercaptoethanol;β-Mercaptoethanol;Thiomonoglycol;2-Mercaptoethyl alcohol;β-Hydroxyethanethiol;β-Hydroxyethylmercaptan;Monothioethylene glycol;Monothioglycol;2-Hydroxy-1-ethanethiol;2-Hydroxyethanethiol;Thioethylene glycol;1-Hydroxy-2-mercaptoethane;1-Mercapto-2-hydroxyethane;2-Mercapto-1-ethanol;Hydroxyethyl mercaptan;NSC 3723;2-Sulfanylethanol;2-Sulfanylethan-1-ol;β-Mercapto;Beta-mercaptoethanol;Beta-mercapto;BME;2BME;β-met;MeSH ID: D008623",
    "duplicated_cas_no": "99748-78-4",
    "SMILES": "C(CS)O",
    "meta_data": {
        "InChI": "InChI=1S/C2H6OS/c3-1-2-4/h3-4H,1-2H2",
        "InChIKey": null,
        "Canonical SMILES": "OCCS",
        "Molecular Formula": "C<sub>2</sub>H<sub>6</sub>OS",
        "Molecular Mass": "78.13",
        "Boiling Point": "157 °C",
        "Melting Point": "-100 °C",
        "Density": "1.1143 g/cm³ @ Temp: 20 °C"
    }
}