{
    "cas_no": "542-50-7",
    "key_name": "14-Heptacosanone",
    "cn_name": "14-二十七酮;二(十三基)酮;肉豆蔻酮;",
    "alternate_name": "14-Heptacosanone;Ditridecyl ketone;Myristone;Myriston;Tridecyl ketone;NSC 15184",
    "duplicated_cas_no": "",
    "SMILES": "C(C(CCCCCCCCCCCCC)=O)CCCCCCCCCCCC",
    "meta_data": {
        "InChI": "InChI=1S/C27H54O/c1-3-5-7-9-11-13-15-17-19-21-23-25-27(28)26-24-22-20-18-16-14-12-10-8-6-4-2/h3-26H2,1-2H3",
        "InChIKey": null,
        "Canonical SMILES": "O=C(CCCCCCCCCCCCC)CCCCCCCCCCCCC",
        "Molecular Formula": "C<sub>27</sub>H<sub>54</sub>O",
        "Molecular Mass": "394.72",
        "Melting Point": "77.5 °C"
    }
}