{
    "cas_no": "236739-03-0",
    "key_name": "1,4-Difluoro-2-(methylsulfonyl)benzene",
    "cn_name": "1,4-二氟-2-甲砜基苯;",
    "alternate_name": "Benzene, 1,4-difluoro-2-(methylsulfonyl)-;1,4-Difluoro-2-(methylsulfonyl)benzene;2,5-Difluorophenyl methyl sulfone;1,4-Difluoro-2-methanesulfonylbenzene",
    "duplicated_cas_no": "",
    "SMILES": "S(C)(=O)(=O)C1=C(F)C=CC(F)=C1",
    "meta_data": {
        "InChI": "InChI=1S/C7H6F2O2S/c1-12(10,11)7-4-5(8)2-3-6(7)9/h2-4H,1H3",
        "InChIKey": null,
        "Canonical SMILES": "O=S(=O)(C1=CC(F)=CC=C1F)C",
        "Molecular Formula": "C<sub>7</sub>H<sub>6</sub>F<sub>2</sub>O<sub>2</sub>S",
        "Molecular Mass": "192.18",
        "Melting Point": "56-57 °C"
    }
}