{
    "cas_no": "24683-21-4",
    "key_name": "2<em>H</em>-1,2-Benzothiazine-3-carboxylic acid, 4-hydroxy-, ethyl ester, 1,1-dioxide",
    "cn_name": null,
    "alternate_name": "2<em>H</em>-1,2-Benzothiazine-3-carboxylic acid, 4-hydroxy-, ethyl ester, 1,1-dioxide",
    "duplicated_cas_no": "",
    "SMILES": "OC=1C=2C(S(=O)(=O)NC1C(OCC)=O)=CC=CC2",
    "meta_data": {
        "InChI": "InChI=1S/C11H11NO5S/c1-2-17-11(14)9-10(13)7-5-3-4-6-8(7)18(15,16)12-9/h3-6,12-13H,2H2,1H3",
        "InChIKey": null,
        "Canonical SMILES": "O=C(OCC)C=1NS(=O)(=O)C=2C=CC=CC2C1O",
        "Molecular Formula": "C<sub>11</sub>H<sub>11</sub>NO<sub>5</sub>S",
        "Molecular Mass": "269.27",
        "Melting Point": "139.5-141.5 °C"
    }
}