{
    "cas_no": "116412-83-0",
    "key_name": "(4-Chlorophenyl)(3,4-dimethoxyphenyl)methanone",
    "cn_name": null,
    "alternate_name": "Methanone, (4-chlorophenyl)(3,4-dimethoxyphenyl)-;(4-Chlorophenyl)(3,4-dimethoxyphenyl)methanone;3,4-Dimethoxy-4′-chloro-benzophenone;(3,4-Dimethoxyphenyl)(4-chlorophenyl)methanone",
    "duplicated_cas_no": "",
    "SMILES": "C(=O)(C1=CC(OC)=C(OC)C=C1)C2=CC=C(Cl)C=C2",
    "meta_data": {
        "InChI": "InChI=1S/C15H13ClO3/c1-18-13-8-5-11(9-14(13)19-2)15(17)10-3-6-12(16)7-4-10/h3-9H,1-2H3",
        "InChIKey": null,
        "Canonical SMILES": "O=C(C1=CC=C(Cl)C=C1)C2=CC=C(OC)C(OC)=C2",
        "Molecular Formula": "C<sub>15</sub>H<sub>13</sub>ClO<sub>3</sub>",
        "Molecular Mass": "276.71",
        "Melting Point": "111-112 °C"
    }
}