{
    "cas_no": "7789-79-9",
    "key_name": "Calcium hypophosphite",
    "cn_name": "次磷酸钙;",
    "alternate_name": "Phosphinic acid, calcium salt (2:1);Phosphinic acid, calcium salt;Calcium hypophosphite (Ca(H<sub>2</sub>PO<sub>2</sub>)<sub>2</sub>);Calcium dihydrogen hypophosphite;Calcium phosphinate (Ca(H<sub>2</sub>PO<sub>2</sub>)<sub>2</sub>);Calcium hypophosphite;Phoslite IP-C;IP-C;Phoslite B 85CX;Calcium phosphinate;CaHP",
    "duplicated_cas_no": "6298-64-2",
    "SMILES": "[PH2](=O)O.[Ca]",
    "meta_data": {
        "InChI": "InChI=1S/Ca.H3O2P/c;1-3-2/h;3H2,(H,1,2)",
        "InChIKey": null,
        "Canonical SMILES": "[Ca].O=[PH2]O",
        "Molecular Formula": "Ca.2H<sub>3</sub>O<sub>2</sub>P",
        "Molecular Mass": "",
        "Melting Point": "200 °C (decomp)"
    }
}