{
    "cas_no": "13730-98-8",
    "key_name": "Sodium <em>p</em>-chlorophenoxyacetate",
    "cn_name": "4-氯苯氧乙酸钠;对氯苯氧乙酸钠;",
    "alternate_name": "Acetic acid, 2-(4-chlorophenoxy)-, sodium salt (1:1);Acetic acid, (<em>p</em>-chlorophenoxy)-, sodium salt;Acetic acid, (4-chlorophenoxy)-, sodium salt;Parafen;Sodium <em>p</em>-chlorophenoxyacetate;<em>p</em>-Chlorophenoxyacetic acid sodium salt;Sodium 4-chlorophenoxyacetate;4-CPA sodium salt",
    "duplicated_cas_no": "",
    "SMILES": "O(CC(O)=O)C1=CC=C(Cl)C=C1.[Na]",
    "meta_data": {
        "InChI": "InChI=1S/C8H7ClO3.Na/c9-6-1-3-7(4-2-6)12-5-8(10)11;/h1-4H,5H2,(H,10,11);",
        "InChIKey": null,
        "Canonical SMILES": "[Na].O=C(O)COC1=CC=C(Cl)C=C1",
        "Molecular Formula": "C<sub>8</sub>H<sub>7</sub>ClO<sub>3</sub>.Na",
        "Molecular Mass": "",
        "Melting Point": "164 °C"
    }
}