{
    "cas_no": "632-22-4",
    "key_name": "Tetramethylurea",
    "cn_name": "四甲基脲;1,1,3,3-四甲基脲;",
    "alternate_name": "Urea, <em>N</em>,<em>N</em>,<em>N</em>′,<em>N</em>′-tetramethyl-;Urea, tetramethyl-;Urea, 1,1,3,3-tetramethyl-;<em>N</em>,<em>N</em>,<em>N</em>′,<em>N</em>′-Tetramethylurea;Tetramethylurea;Temur;TMU;Tetramethylcarbamide;NSC 91488",
    "duplicated_cas_no": "",
    "SMILES": "C(N(C)C)(N(C)C)=O",
    "meta_data": {
        "InChI": "InChI=1S/C5H12N2O/c1-6(2)5(8)7(3)4/h1-4H3",
        "InChIKey": null,
        "Canonical SMILES": "O=C(N(C)C)N(C)C",
        "Molecular Formula": "C<sub>5</sub>H<sub>12</sub>N<sub>2</sub>O",
        "Molecular Mass": "116.16",
        "Boiling Point": "176.5 °C",
        "Melting Point": "-1.2 °C",
        "Density": "0.9687 g/cm³ @ Temp: 20 °C"
    }
}