{
    "cas_no": "41995-30-6",
    "key_name": "3,5-Dimethyl-2-pyridinamine",
    "cn_name": null,
    "alternate_name": "2-Pyridinamine, 3,5-dimethyl-;3,5-Dimethyl-2-pyridinamine;2-Amino-3,5-dimethylpyridine",
    "duplicated_cas_no": "",
    "SMILES": "CC1=C(N)N=CC(C)=C1",
    "meta_data": {
        "InChI": "InChI=1S/C7H10N2/c1-5-3-6(2)7(8)9-4-5/h3-4H,1-2H3,(H2,8,9)",
        "InChIKey": null,
        "Canonical SMILES": "N=1C=C(C=C(C1N)C)C",
        "Molecular Formula": "C<sub>7</sub>H<sub>10</sub>N<sub>2</sub>",
        "Molecular Mass": "122.17",
        "Boiling Point": "110 °C @ Press: 10 Torr"
    }
}