{
    "cas_no": "614-31-3",
    "key_name": "1-Phenyl-1-(phenylmethyl)hydrazine",
    "cn_name": "α-苄基苯基肼;1-苄基-1-苯基肼;",
    "alternate_name": "Hydrazine, 1-phenyl-1-(phenylmethyl)-;Hydrazine, 1-benzyl-1-phenyl-;1-Phenyl-1-(phenylmethyl)hydrazine;α-Benzylphenylhydrazine;1-Benzyl-1-phenylhydrazine;1-Benzylphenylhydrazine;<em>N</em>-Benzyl-<em>N</em>-phenylhydrazine;NSC 7145",
    "duplicated_cas_no": "",
    "SMILES": "N(CC1=CC=CC=C1)(N)C2=CC=CC=C2",
    "meta_data": {
        "InChI": "InChI=1S/C13H14N2/c14-15(13-9-5-2-6-10-13)11-12-7-3-1-4-8-12/h1-10H,11,14H2",
        "InChIKey": null,
        "Canonical SMILES": "NN(C=1C=CC=CC1)CC=2C=CC=CC2",
        "Molecular Formula": "C<sub>13</sub>H<sub>14</sub>N<sub>2</sub>",
        "Molecular Mass": "198.26",
        "Boiling Point": "124-127 °C @ Press: 0.55 Torr",
        "Melting Point": "164-166 °C"
    }
}