{
    "cas_no": "1170-76-9",
    "key_name": "<em>N</em>-[(Phenylmethoxy)carbonyl]glycyl-<span class=\"text-smallcaps\">L</span>-phenylalanine",
    "cn_name": "N-苄氧羰基甘氨酰-L-苯丙氨酸;N-苄氧羰基甘氨酰-L-苯丙氨酸;",
    "alternate_name": "<span class=\"text-smallcaps\">L</span>-Phenylalanine, <em>N</em>-[(phenylmethoxy)carbonyl]glycyl-;Alanine, <em>N</em>-(<em>N</em>-carboxyglycyl)-3-phenyl-, <em>N</em>-benzyl ester, <span class=\"text-smallcaps\">L</span>-;<span class=\"text-smallcaps\">L</span>-Phenylalanine, <em>N</em>-[<em>N</em>-[(phenylmethoxy)carbonyl]glycyl]-;<span class=\"text-smallcaps\">L</span>-Alanine, <em>N</em>-(<em>N</em>-carboxyglycyl)-3-phenyl-, <em>N</em>-benzyl ester;<em>N</em>-[(Phenylmethoxy)carbonyl]glycyl-<span class=\"text-smallcaps\">L</span>-phenylalanine;(Carbobenzoxy)glycyl-<span class=\"text-smallcaps\">L</span>-phenylalanine;<em>N</em>-(Benzyloxycarbonyl)glycyl-<span class=\"text-smallcaps\">L</span>-phenylalanine;(Carbobenzyloxy)glycyl-<span class=\"text-smallcaps\">L</span>-phenylalanine;<em>N</em>-(Carbobenzoxy)glycyl-<span class=\"text-smallcaps\">L</span>-phenylalanine;<em>N</em>-(Carbobenzyloxy)glycyl-<span class=\"text-smallcaps\">L</span>-phenylalanine;(Carbobenzoxy)glycylphenylalanine;<em>N</em>-(Benzyloxycarbonyl)glycylphenylalanine;NSC 89642;(2S)-2-[[2-(Benzyloxycarbonylamino)acetyl]amino]-3-phenyl-propanoic acid;(2S)-3-Phenyl-2-[[2-(phenylmethoxycarbonylamino)acetyl]amino]propanoic acid",
    "duplicated_cas_no": "746-00-9;81308-88-5;87784-10-9",
    "SMILES": "C([C@H](NC(CNC(OCC1=CC=CC=C1)=O)=O)C(O)=O)C2=CC=CC=C2",
    "meta_data": {
        "InChI": "InChI=1S/C19H20N2O5/c22-17(12-20-19(25)26-13-15-9-5-2-6-10-15)21-16(18(23)24)11-14-7-3-1-4-8-14/h1-10,16H,11-13H2,(H,20,25)(H,21,22)(H,23,24)/t16-/m0/s1",
        "InChIKey": null,
        "Canonical SMILES": "O=C(OCC=1C=CC=CC1)NCC(=O)NC(C(=O)O)CC=2C=CC=CC2",
        "Molecular Formula": "C<sub>19</sub>H<sub>20</sub>N<sub>2</sub>O<sub>5</sub>",
        "Molecular Mass": "356.37",
        "Melting Point": "125-126 °C"
    }
}