{
    "cas_no": "5018-45-1",
    "key_name": "4-Amino-5,6-dimethoxypyrimidine",
    "cn_name": "4-氨基-5,6-二甲氧基嘧啶;",
    "alternate_name": "4-Pyrimidinamine, 5,6-dimethoxy-;Pyrimidine, 4-amino-5,6-dimethoxy-;5,6-Dimethoxy-4-pyrimidinamine;4-Amino-5,6-dimethoxypyrimidine",
    "duplicated_cas_no": "",
    "SMILES": "O(C)C=1C(OC)=C(N)N=CN1",
    "meta_data": {
        "InChI": "InChI=1S/C6H9N3O2/c1-10-4-5(7)8-3-9-6(4)11-2/h3H,1-2H3,(H2,7,8,9)",
        "InChIKey": null,
        "Canonical SMILES": "N=1C=NC(N)=C(OC)C1OC",
        "Molecular Formula": "C<sub>6</sub>H<sub>9</sub>N<sub>3</sub>O<sub>2</sub>",
        "Molecular Mass": "155.15",
        "Melting Point": "88-89 °C"
    }
}