{
    "cas_no": "476-32-4",
    "key_name": "(+)-Chelidonine",
    "cn_name": "白屈菜碱;",
    "alternate_name": "[1,3]Benzodioxolo[5,6-<em>c</em>]-1,3-dioxolo[4,5-<em>i</em>]phenanthridin-6-ol, 5b,6,7,12b,13,14-hexahydro-13-methyl-, (5b<em>R</em>,6<em>S</em>,12b<em>S</em>)-;Chelidonine;[1,3]Benzodioxolo[5,6-<em>c</em>]-1,3-dioxolo[4,5-<em>i</em>]phenanthridin-6-ol, 5b,6,7,12b,13,14-hexahydro-13-methyl-, [5b<em>R</em>-(5bα,6β,12bα)]-;(5b<em>R</em>,6<em>S</em>,12b<em>S</em>)-5b,6,7,12b,13,14-Hexahydro-13-methyl[1,3]benzodioxolo[5,6-<em>c</em>]-1,3-dioxolo[4,5-<em>i</em>]phenanthridin-6-ol;Stylophorine;[5b<em>R</em>-(5bα,6β,12bα)]-5b,6,7,12b,13,14-Hexahydro-13-methyl[1,3]benzodioxolo[5,6-<em>c</em>]-1,3-dioxolo[4,5-<em>i</em>]phenanthridin-6-ol;Chelidonin;(+)-Chelidonine",
    "duplicated_cas_no": "5907-33-5;10367-14-3;47476-03-9;52503-79-4;855174-41-3",
    "SMILES": "CN1[C@]2([C@@](C=3C(C1)=C4C(=CC3)OCO4)([C@@H](O)CC=5C2=CC6=C(C5)OCO6)[H])[H]",
    "meta_data": {
        "InChI": "InChI=1S/C20H19NO5/c1-21-7-13-11(2-3-15-20(13)26-9-23-15)18-14(22)4-10-5-16-17(25-8-24-16)6-12(10)19(18)21/h2-3,5-6,14,18-19,22H,4,7-9H2,1H3/t14-,18-,19+/m0/s1",
        "InChIKey": null,
        "Canonical SMILES": "OC1CC2=CC=3OCOC3C=C2C4N(C)CC5=C6OCOC6=CC=C5C14",
        "Molecular Formula": "C<sub>20</sub>H<sub>19</sub>NO<sub>5</sub>",
        "Molecular Mass": "353.37",
        "Melting Point": "135.5 °C"
    }
}