{
    "cas_no": "58306-30-2",
    "key_name": "Febantel",
    "cn_name": "非班太尔;苯硫胍;N-{2-[2,3-双(甲氧基甲酰)-胍基]-5-(苯硫基)-苯基}-2-甲氧基乙酰胺;",
    "alternate_name": "Carbamic acid, <em>N</em>,<em>N</em>′-[[2-[(2-methoxyacetyl)amino]-4-(phenylthio)phenyl]carbonimidoyl]bis-, <em>C</em>,<em>C</em>′-dimethyl ester;Carbamic acid, [[2-[(methoxyacetyl)amino]-4-(phenylthio)phenyl]carbonimidoyl]bis-, dimethyl ester;Febantel;Rintal;<em>N</em>-([[2-(2-Methoxyacetamido)-4-(phenylsulfanyl)phenyl]amino][(methoxycarbonyl)imino]methyl)carbamate",
    "duplicated_cas_no": "",
    "SMILES": "N(C(COC)=O)C1=C(N=C(NC(OC)=O)NC(OC)=O)C=CC(SC2=CC=CC=C2)=C1",
    "meta_data": {
        "InChI": "InChI=1S/C20H22N4O6S/c1-28-12-17(25)21-16-11-14(31-13-7-5-4-6-8-13)9-10-15(16)22-18(23-19(26)29-2)24-20(27)30-3/h4-11H,12H2,1-3H3,(H,21,25)(H2,22,23,24,26,27)",
        "InChIKey": null,
        "Canonical SMILES": "O=C(OC)NC(=NC1=CC=C(SC=2C=CC=CC2)C=C1NC(=O)COC)NC(=O)OC",
        "Molecular Formula": "C<sub>20</sub>H<sub>22</sub>N<sub>4</sub>O<sub>6</sub>S",
        "Molecular Mass": "446.48",
        "Melting Point": "129.5 °C"
    }
}