{
    "cas_no": "459-57-4",
    "key_name": "4-Fluorobenzaldehyde",
    "cn_name": "对氟苯甲醛;4-氟苯甲醛;",
    "alternate_name": "Benzaldehyde, 4-fluoro-;Benzaldehyde, <em>p</em>-fluoro-;4-Fluorobenzaldehyde;<em>p</em>-Fluorobenzaldehyde;<em>p</em>-Fluorobenzenecarboxaldehyde;NSC 68095",
    "duplicated_cas_no": "2324861-00-7",
    "SMILES": "C(=O)C1=CC=C(F)C=C1",
    "meta_data": {
        "InChI": "InChI=1S/C7H5FO/c8-7-3-1-6(5-9)2-4-7/h1-5H",
        "InChIKey": null,
        "Canonical SMILES": "O=CC1=CC=C(F)C=C1",
        "Molecular Formula": "C<sub>7</sub>H<sub>5</sub>FO",
        "Molecular Mass": "124.11",
        "Boiling Point": "181.5 °C",
        "Melting Point": "-10 °C"
    }
}