{
    "cas_no": "7779-30-8",
    "key_name": "5-(2,6,6-Trimethyl-2-cyclohexen-1-yl)-4-penten-3-one",
    "cn_name": "甲基紫罗兰酮;1-(2,6,6-三甲基-2-环己烯-1-基)-1-戊烯-3-酮;",
    "alternate_name": "1-Penten-3-one, 1-(2,6,6-trimethyl-2-cyclohexen-1-yl)-;1-(2,6,6-Trimethyl-2-cyclohexen-1-yl)-1-penten-3-one;5-(2,6,6-Trimethyl-2-cyclohexen-1-yl)-4-penten-3-one;NSC 163996;1-(2,2,6-Trimethylcyclohex-2-en-1-yl)-1-penten-3-one",
    "duplicated_cas_no": "",
    "SMILES": "C(=CC(CC)=O)C1C(C)(C)CCC=C1C",
    "meta_data": {
        "InChI": "InChI=1S/C14H22O/c1-5-12(15)8-9-13-11(2)7-6-10-14(13,3)4/h7-9,13H,5-6,10H2,1-4H3",
        "InChIKey": null,
        "Canonical SMILES": "O=C(C=CC1C(=CCCC1(C)C)C)CC",
        "Molecular Formula": "C<sub>14</sub>H<sub>22</sub>O",
        "Molecular Mass": "206.32",
        "Boiling Point": "115 °C @ Press: 3.8 Torr",
        "Density": "0.9210 g/cm³ @ Temp: 25 °C"
    }
}