{
    "cas_no": "570-22-9",
    "key_name": "Imidazole-4,5-dicarboxylic acid",
    "cn_name": "咪唑-4,5-二羧酸;4,5-咪唑二羧酸;",
    "alternate_name": "1<em>H</em>-Imidazole-4,5-dicarboxylic acid;Imidazole-4,5-dicarboxylic acid;4,5-Glyoxalinedicarboxylic acid;4,5-Dicarboxyimidazole;α,β-Imidazoledicarboxylic acid;NSC 9236;4,5-Imidazoledicarboxylic acid",
    "duplicated_cas_no": "",
    "SMILES": "C(O)(=O)C1=C(C(O)=O)N=CN1",
    "meta_data": {
        "InChI": "InChI=1S/C5H4N2O4/c8-4(9)2-3(5(10)11)7-1-6-2/h1H,(H,6,7)(H,8,9)(H,10,11)",
        "InChIKey": null,
        "Canonical SMILES": "O=C(O)C=1N=CNC1C(=O)O",
        "Molecular Formula": "C<sub>5</sub>H<sub>4</sub>N<sub>2</sub>O<sub>4</sub>",
        "Molecular Mass": "156.10",
        "Melting Point": "288 °C",
        "Density": "0.2 g/cm³"
    }
}