{
    "cas_no": "6284-80-6",
    "key_name": "Fluorene-9-acetic acid",
    "cn_name": "9-芴乙酸;",
    "alternate_name": "9<em>H</em>-Fluorene-9-acetic acid;Fluorene-9-acetic acid;9-Fluorenylacetic acid;NSC 5255;(9<em>H</em>-Fluoren-9-yl)acetic acid;2-(9<em>H</em>-Fluoren-9-yl)acetic acid",
    "duplicated_cas_no": "",
    "SMILES": "C(C(O)=O)C1C=2C(C=3C1=CC=CC3)=CC=CC2",
    "meta_data": {
        "InChI": "InChI=1S/C15H12O2/c16-15(17)9-14-12-7-3-1-5-10(12)11-6-2-4-8-13(11)14/h1-8,14H,9H2,(H,16,17)",
        "InChIKey": null,
        "Canonical SMILES": "O=C(O)CC1C=2C=CC=CC2C=3C=CC=CC31",
        "Molecular Formula": "C<sub>15</sub>H<sub>12</sub>O<sub>2</sub>",
        "Molecular Mass": "224.25",
        "Melting Point": "138-139 °C"
    }
}