{
    "cas_no": "112-18-5",
    "key_name": "Lauryldimethylamine",
    "cn_name": "十二烷基二甲基叔胺;月桂基二甲基叔胺;",
    "alternate_name": "1-Dodecanamine, <em>N</em>,<em>N</em>-dimethyl-;Dodecylamine, <em>N</em>,<em>N</em>-dimethyl-;<em>N</em>,<em>N</em>-Dimethyl-1-dodecanamine;RC 5629;<em>N</em>,<em>N</em>-Dimethyldodecylamine;Dodecyldimethylamine;DDA;<em>N</em>,<em>N</em>-Dimethyllaurylamine;Monolauryl dimethylamine;Lauryldimethylamine;<em>N</em>-Lauryldimethylamine;<em>N</em>-Dodecyldimethylamine;Armeen DM 12D;<em>N</em>,<em>N</em>-Dimethyl-<em>n</em>-dodecylamine;DDA (corrosion inhibitor);Antioxidant DDA;<em>N</em>-Dodecyl-<em>N</em>,<em>N</em>-dimethylamine;Farmin DM 20;(Dimethylamino)dodecane;IPL 12;Empigen AB;Adma 12;Genamin LA 302D;Farmin DM 2098;NSC 7332;Barlene 12S;Toyocat D 60;Nissan Tertiary Amine BB;DM 2098;1-Dimethylaminododecane;Lipomin DM 12D;Tert Nissan Amine BB",
    "duplicated_cas_no": "52622-54-5;83855-86-1;352546-19-1",
    "SMILES": "C(CCCCCCCCC)CCN(C)C",
    "meta_data": {
        "InChI": "InChI=1S/C14H31N/c1-4-5-6-7-8-9-10-11-12-13-14-15(2)3/h4-14H2,1-3H3",
        "InChIKey": null,
        "Canonical SMILES": "N(C)(C)CCCCCCCCCCCC",
        "Molecular Formula": "C<sub>14</sub>H<sub>31</sub>N",
        "Molecular Mass": "213.40",
        "Boiling Point": "144-149 °C @ Press: 15 Torr",
        "Melting Point": "22 °C"
    }
}