{
    "cas_no": "2898-76-2",
    "key_name": "Benzamil",
    "cn_name": "Benzamil  hydrochloride;",
    "alternate_name": "2-Pyrazinecarboxamide, 3,5-diamino-6-chloro-<em>N</em>-[imino[(phenylmethyl)amino]methyl]-;Pyrazinecarboxamide, 3,5-diamino-<em>N</em>-(benzylamidino)-6-chloro-;Pyrazinecarboxamide, 3,5-diamino-6-chloro-<em>N</em>-[imino[(phenylmethyl)amino]methyl]-;3,5-Diamino-6-chloro-<em>N</em>-[imino[(phenylmethyl)amino]methyl]-2-pyrazinecarboxamide;Benzamil;Benzylamiloride",
    "duplicated_cas_no": "",
    "SMILES": "C(NC(NCC1=CC=CC=C1)=N)(=O)C=2C(N)=NC(N)=C(Cl)N2",
    "meta_data": {
        "InChI": "InChI=1S/C13H14ClN7O/c14-9-11(16)20-10(15)8(19-9)12(22)21-13(17)18-6-7-4-2-1-3-5-7/h1-5H,6H2,(H4,15,16,20)(H3,17,18,21,22)",
        "InChIKey": null,
        "Canonical SMILES": "O=C(NC(=N)NCC=1C=CC=CC1)C2=NC(Cl)=C(N=C2N)N",
        "Molecular Formula": "C<sub>13</sub>H<sub>14</sub>ClN<sub>7</sub>O",
        "Molecular Mass": "319.75",
        "Melting Point": "215-216 °C (decomp)"
    }
}