{
    "cas_no": "1635-31-0",
    "key_name": "3-Aminocoumarin",
    "cn_name": "3-氨基香豆素;3-氨基香豆素;3-氨基香豆素,97%;",
    "alternate_name": "2<em>H</em>-1-Benzopyran-2-one, 3-amino-;Coumarin, 3-amino-;3-Amino-2<em>H</em>-1-benzopyran-2-one;3-Aminocoumarin;3-Amino-2<em>H</em>-chromen-2-one;3-Amino-chromen-2-one;3-Aminochromen-2-one",
    "duplicated_cas_no": "",
    "SMILES": "NC1=CC=2C(OC1=O)=CC=CC2",
    "meta_data": {
        "InChI": "InChI=1S/C9H7NO2/c10-7-5-6-3-1-2-4-8(6)12-9(7)11/h1-5H,10H2",
        "InChIKey": null,
        "Canonical SMILES": "O=C1OC=2C=CC=CC2C=C1N",
        "Molecular Formula": "C<sub>9</sub>H<sub>7</sub>NO<sub>2</sub>",
        "Molecular Mass": "161.16",
        "Melting Point": "130 °C"
    }
}