{
    "cas_no": "754-91-6",
    "key_name": "Perfluorooctanesulfonamide",
    "cn_name": "全氟辛基磺酰胺;",
    "alternate_name": "1-Octanesulfonamide, 1,1,2,2,3,3,4,4,5,5,6,6,7,7,8,8,8-heptadecafluoro-;1,1,2,2,3,3,4,4,5,5,6,6,7,7,8,8,8-Heptadecafluoro-1-octanesulfonamide;Perfluorooctanesulfonic acid amide;Perfluorooctanesulfonamide;Perfluoroctylsulfonamide;AI 3-29759;Desethylsulfluramid;Perfluorooctylsulfonamide;PFOSA;1,1,2,2,3,3,4,4,5,5,6,6,7,7,8,8,8-Heptadecafluorooctan-1-sulfonamide;Perfluoro-1-octanesulfonamide",
    "duplicated_cas_no": "",
    "SMILES": "C(C(C(C(C(F)(F)F)(F)F)(F)F)(F)F)(C(C(C(S(N)(=O)=O)(F)F)(F)F)(F)F)(F)F",
    "meta_data": {
        "InChI": "InChI=1S/C8H2F17NO2S/c9-1(10,3(13,14)5(17,18)7(21,22)23)2(11,12)4(15,16)6(19,20)8(24,25)29(26,27)28/h(H2,26,27,28)",
        "InChIKey": null,
        "Canonical SMILES": "O=S(=O)(N)C(F)(F)C(F)(F)C(F)(F)C(F)(F)C(F)(F)C(F)(F)C(F)(F)C(F)(F)F",
        "Molecular Formula": "C<sub>8</sub>H<sub>2</sub>F<sub>17</sub>NO<sub>2</sub>S",
        "Molecular Mass": "499.14",
        "Melting Point": "151-152 °C"
    }
}