{
    "cas_no": "382-10-5",
    "key_name": "3,3,3-Trifluoro-2-(trifluoromethyl)-1-propene",
    "cn_name": null,
    "alternate_name": "1-Propene, 3,3,3-trifluoro-2-(trifluoromethyl)-;Propene, 3,3,3-trifluoro-2-(trifluoromethyl)-;3,3,3-Trifluoro-2-(trifluoromethyl)-1-propene;3,3,3-Trifluoro-2-(trifluoromethyl)propene;1,1-Bis(trifluoromethyl)ethene;2-Trifluoromethyl-3,3,3-trifluoro-1-propene;2-Trifluoromethyl-3,3,3-trifluoropropene;1,1,1-Trifluoro-2-(trifluoromethyl)-2-propene;HFO 1336mcfq;HFO 1336ft",
    "duplicated_cas_no": "",
    "SMILES": "C(C(F)(F)F)(C(F)(F)F)=C",
    "meta_data": {
        "InChI": "InChI=1S/C4H2F6/c1-2(3(5,6)7)4(8,9)10/h1H2",
        "InChIKey": null,
        "Canonical SMILES": "FC(F)(F)C(=C)C(F)(F)F",
        "Molecular Formula": "C<sub>4</sub>H<sub>2</sub>F<sub>6</sub>",
        "Molecular Mass": "164.05",
        "Boiling Point": "11-13 °C"
    }
}