{
    "cas_no": "1529-17-5",
    "key_name": "Trimethylphenoxysilane",
    "cn_name": "三甲基苯氧基硅;",
    "alternate_name": "Benzene, [(trimethylsilyl)oxy]-;Silane, trimethylphenoxy-;[(Trimethylsilyl)oxy]benzene;Trimethylphenoxysilane;<em>O</em>-(Trimethylsilyl)phenol;Phenoxytrimethylsilane;(Trimethylsiloxy)benzene;Trimethylsilyl phenyl ether;Phenyl trimethylsilyl ether;Phenol trimethylsilyl ether;Trimethylsilicon phenoxide;Dow Corning TMSP;TMSP",
    "duplicated_cas_no": "",
    "SMILES": "O([Si](C)(C)C)C1=CC=CC=C1",
    "meta_data": {
        "InChI": "InChI=1S/C9H14OSi/c1-11(2,3)10-9-7-5-4-6-8-9/h4-8H,1-3H3",
        "InChIKey": null,
        "Canonical SMILES": "O(C=1C=CC=CC1)[Si](C)(C)C",
        "Molecular Formula": "C<sub>9</sub>H<sub>14</sub>OSi",
        "Molecular Mass": "166.29",
        "Boiling Point": "119 °C",
        "Melting Point": "-55 °C",
        "Density": "0.920 g/cm³"
    }
}