{
    "cas_no": "3245-38-3",
    "key_name": "Methyl deoxycholate",
    "cn_name": null,
    "alternate_name": "Cholan-24-oic acid, 3,12-dihydroxy-, methyl ester, (3α,5β,12α)-;5β-Cholan-24-oic acid, 3α,12α-dihydroxy-, methyl ester;Deoxycholic acid, methyl ester;Desoxycholic acid, methyl ester;Methyl 3α,12α-dihydroxy-5β-cholanoate;Methyl deoxycholate;Methyl 3α,12α-dihydroxy-5β-cholan-24-oate;Methyl 7-deoxycholate;NSC 22957",
    "duplicated_cas_no": "",
    "SMILES": "C[C@@]12[C@]([C@]3([C@@]([C@]4(C)[C@](CC3)(C[C@H](O)CC4)[H])(C[C@@H]1O)[H])[H])(CC[C@@]2([C@@H](CCC(OC)=O)C)[H])[H]",
    "meta_data": {
        "InChI": "InChI=1S/C25H42O4/c1-15(5-10-23(28)29-4)19-8-9-20-18-7-6-16-13-17(26)11-12-24(16,2)21(18)14-22(27)25(19,20)3/h15-22,26-27H,5-14H2,1-4H3/t15-,16-,17-,18+,19-,20+,21+,22+,24+,25-/m1/s1",
        "InChIKey": null,
        "Canonical SMILES": "O=C(OC)CCC(C)C1CCC2C3CCC4CC(O)CCC4(C)C3CC(O)C12C",
        "Molecular Formula": "C<sub>25</sub>H<sub>42</sub>O<sub>4</sub>",
        "Molecular Mass": "406.60",
        "Melting Point": "92-93 °C"
    }
}