{
    "cas_no": "59748-90-2",
    "key_name": "4-Bromo-2-chlorobenzoic acid",
    "cn_name": "4-溴-2-氯苯甲酸;",
    "alternate_name": "Benzoic acid, 4-bromo-2-chloro-;4-Bromo-2-chlorobenzoic acid;2-Chloro-4-bromobenzoic acid",
    "duplicated_cas_no": "",
    "SMILES": "C(O)(=O)C1=C(Cl)C=C(Br)C=C1",
    "meta_data": {
        "InChI": "InChI=1S/C7H4BrClO2/c8-4-1-2-5(7(10)11)6(9)3-4/h1-3H,(H,10,11)",
        "InChIKey": null,
        "Canonical SMILES": "O=C(O)C1=CC=C(Br)C=C1Cl",
        "Molecular Formula": "C<sub>7</sub>H<sub>4</sub>BrClO<sub>2</sub>",
        "Molecular Mass": "235.46",
        "Melting Point": "166-167 °C"
    }
}