{
    "cas_no": "36011-19-5",
    "key_name": "Cytochalasin E",
    "cn_name": "细胞松驰素 E;",
    "alternate_name": "[1,3]Dioxacyclotridecino[4,5-<em>d</em>]oxireno[<em>f</em>]isoindole-5,10,12(4<em>H</em>,6<em>H</em>)-trione, 3,13,14,14a,15,15a,16a,16b-octahydro-6-hydroxy-4,6,15,15a-tetramethyl-14-(phenylmethyl)-, (1<em>E</em>,4<em>S</em>,6<em>R</em>,7<em>E</em>,11a<em>S</em>,14<em>S</em>,14a<em>S</em>,15<em>S</em>,15a<em>R</em>,16a<em>S</em>,16b<em>S</em>)-;21,23-Dioxa[13]cytochalasa-13,19-diene-1,17,22-trione, 6,7-epoxy-18-hydroxy-16,18-dimethyl-10-phenyl-, (7<em>S</em>,13<em>E</em>,16<em>S</em>,18<em>R</em>,19<em>E</em>)-;(1<em>E</em>,4<em>S</em>,6<em>R</em>,7<em>E</em>,11a<em>S</em>,14<em>S</em>,14a<em>S</em>,15<em>S</em>,15a<em>R</em>,16a<em>S</em>,16b<em>S</em>)-3,13,14,14a,15,15a,16a,16b-Octahydro-6-hydroxy-4,6,15,15a-tetramethyl-14-(phenylmethyl)[1,3]dioxacyclotridecino[4,5-<em>d</em>]oxireno[<em>f</em>]isoindole-5,10,12(4<em>H</em>,6<em>H</em>)-trione;Cytochalasin E;[1,3]Dioxacyclotridecino[4,5-<em>d</em>]oxireno[<em>f</em>]isoindole-5,10,12(4<em>H</em>,6<em>H</em>)-trione, 3,13,14,14a,15,15a,16a,16b-octahydro-6-hydroxy-4,6,15,15a-tetramethyl-14-(phenylmethyl)-, [4<em>S</em>-(1<em>E</em>,4<em>R</em>*,6<em>S</em>*,7<em>E</em>,11a<em>R</em>*,14<em>R</em>*,14a<em>R</em>*,15<em>R</em>*,15a<em>S</em>*,16a<em>R</em>*,16b<em>R</em>*)]-;NSC 175151",
    "duplicated_cas_no": "12623-99-3",
    "SMILES": "",
    "meta_data": {
        "InChI": "",
        "InChIKey": null,
        "Canonical SMILES": "",
        "Molecular Formula": "C<sub>28</sub>H<sub>33</sub>NO<sub>7</sub>",
        "Molecular Mass": "495.56",
        "Melting Point": "206-208 °C (decomp)"
    }
}