{
    "cas_no": "422-77-5",
    "key_name": "2-Bromo-1,1,1,2,3,3,3-heptafluoropropane",
    "cn_name": "2-溴七氟丙烷;",
    "alternate_name": "Propane, 2-bromo-1,1,1,2,3,3,3-heptafluoro-;Propane, 2-bromoheptafluoro-;2-Bromo-1,1,1,2,3,3,3-heptafluoropropane;Perfluoroisopropyl bromide;Heptafluoroisopropyl bromide;2-Bromoheptafluoropropane",
    "duplicated_cas_no": "",
    "SMILES": "C(C(F)(F)F)(C(F)(F)F)(Br)F",
    "meta_data": {
        "InChI": "InChI=1S/C3BrF7/c4-1(5,2(6,7)8)3(9,10)11",
        "InChIKey": null,
        "Canonical SMILES": "FC(F)(F)C(F)(Br)C(F)(F)F",
        "Molecular Formula": "C<sub>3</sub>BrF<sub>7</sub>",
        "Molecular Mass": "248.92",
        "Boiling Point": "15-16 °C"
    }
}