{
    "cas_no": "69386-35-2",
    "key_name": "2,7-Bis(1,1-dimethylethyl)-9<em>H</em>-carbazole",
    "cn_name": null,
    "alternate_name": "9<em>H</em>-Carbazole, 2,7-bis(1,1-dimethylethyl)-;2,7-Bis(1,1-dimethylethyl)-9<em>H</em>-carbazole;2,7-Di-<em>tert</em>-butylcarbazole;2,7-Di-<em>tert</em>-butyl-9<em>H</em>-carbazole",
    "duplicated_cas_no": "",
    "SMILES": "C(C)(C)(C)C=1C=C2C(C=3C(N2)=CC(C(C)(C)C)=CC3)=CC1",
    "meta_data": {
        "InChI": "InChI=1S/C20H25N/c1-19(2,3)13-7-9-15-16-10-8-14(20(4,5)6)12-18(16)21-17(15)11-13/h7-12,21H,1-6H3",
        "InChIKey": null,
        "Canonical SMILES": "C1=CC2=C(C=C1C(C)(C)C)NC3=CC(=CC=C32)C(C)(C)C",
        "Molecular Formula": "C<sub>20</sub>H<sub>25</sub>N",
        "Molecular Mass": "279.42",
        "Melting Point": "155-156 °C"
    }
}