{
    "cas_no": "40751-89-1",
    "key_name": "2-Methoxy-5-nitrobenzoic acid",
    "cn_name": "2-甲氧基-5-硝基苯甲酸;",
    "alternate_name": "Benzoic acid, 2-methoxy-5-nitro-;<em>o</em>-Anisic acid, 5-nitro-;2-Methoxy-5-nitrobenzoic acid;NSC 139931",
    "duplicated_cas_no": "",
    "SMILES": "C(O)(=O)C1=C(OC)C=CC(N(=O)=O)=C1",
    "meta_data": {
        "InChI": "InChI=1S/C8H7NO5/c1-14-7-3-2-5(9(12)13)4-6(7)8(10)11/h2-4H,1H3,(H,10,11)",
        "InChIKey": null,
        "Canonical SMILES": "O=C(O)C1=CC(=CC=C1OC)N(=O)=O",
        "Molecular Formula": "C<sub>8</sub>H<sub>7</sub>NO<sub>5</sub>",
        "Molecular Mass": "197.14",
        "Melting Point": "160-161 °C"
    }
}