{
    "cas_no": "325152-98-5",
    "key_name": "(β<em>S</em>)-β-Amino-3-fluorobenzeneethanol",
    "cn_name": null,
    "alternate_name": "Benzeneethanol, β-amino-3-fluoro-, (β<em>S</em>)-;(β<em>S</em>)-β-Amino-3-fluorobenzeneethanol;(2S)-2-Amino-2-(3-fluorophenyl)ethanol;(<em>S</em>)-2-Amino-2-(3-fluorophenyl)ethanol",
    "duplicated_cas_no": "",
    "SMILES": "[C@H](CO)(N)C1=CC(F)=CC=C1",
    "meta_data": {
        "InChI": "InChI=1S/C8H10FNO/c9-7-3-1-2-6(4-7)8(10)5-11/h1-4,8,11H,5,10H2/t8-/m1/s1",
        "InChIKey": null,
        "Canonical SMILES": "FC1=CC=CC(=C1)C(N)CO",
        "Molecular Formula": "C<sub>8</sub>H<sub>10</sub>FNO",
        "Molecular Mass": "155.17",
        "Melting Point": "96-98 °C"
    }
}