{
    "cas_no": "89-84-9",
    "key_name": "2′,4′-Dihydroxyacetophenone",
    "cn_name": "2,4-二羟基苯乙酮;雷镜乙酰苯;2\",4\"-二羟基苯乙酮;",
    "alternate_name": "Ethanone, 1-(2,4-dihydroxyphenyl)-;Acetophenone, 2′,4′-dihydroxy-;1-(2,4-Dihydroxyphenyl)ethanone;Resacetophenone;Resoacetophenone;2′,4′-Dihydroxyacetophenone;β-Resacetophenone;4-Acetylresorcinol;1-Acetylbenzene-2,4-diol;4-Acetyl-1,3-benzenediol;NSC 10883;NSC 37559;2′,4′-Dihydroxyphenyl methyl ketone",
    "duplicated_cas_no": "",
    "SMILES": "C(C)(=O)C1=C(O)C=C(O)C=C1",
    "meta_data": {
        "InChI": "InChI=1S/C8H8O3/c1-5(9)7-3-2-6(10)4-8(7)11/h2-4,10-11H,1H3",
        "InChIKey": null,
        "Canonical SMILES": "O=C(C1=CC=C(O)C=C1O)C",
        "Molecular Formula": "C<sub>8</sub>H<sub>8</sub>O<sub>3</sub>",
        "Molecular Mass": "152.15",
        "Melting Point": "146 °C"
    }
}