{
    "cas_no": "17347-32-9",
    "key_name": "6-Bromobenzo[<em>b</em>]thiophene",
    "cn_name": "6-溴苯并噻酚;",
    "alternate_name": "Benzo[<em>b</em>]thiophene, 6-bromo-;6-Bromobenzo[<em>b</em>]thiophene;6-Bromobenzothiophene;6-Bromo-1-benzothiophene",
    "duplicated_cas_no": "",
    "SMILES": "BrC=1C=C2C(=CC1)C=CS2",
    "meta_data": {
        "InChI": "InChI=1S/C8H5BrS/c9-7-2-1-6-3-4-10-8(6)5-7/h1-5H",
        "InChIKey": null,
        "Canonical SMILES": "BrC=1C=CC=2C=CSC2C1",
        "Molecular Formula": "C<sub>8</sub>H<sub>5</sub>BrS",
        "Molecular Mass": "213.09",
        "Boiling Point": "139-140 °C @ Press: 30 Torr",
        "Melting Point": "56 °C"
    }
}