{
    "cas_no": "13361-30-3",
    "key_name": "1-Methylethyl 2-cyanoacetate",
    "cn_name": "氰乙酸异丙酯;",
    "alternate_name": "Acetic acid, 2-cyano-, 1-methylethyl ester;Acetic acid, cyano-, isopropyl ester;Acetic acid, cyano-, 1-methylethyl ester;1-Methylethyl 2-cyanoacetate;Isopropyl cyanoacetate;Isopropyl 2-cyanoacetate;Cyanoacetic acid isopropyl ester;NSC 1071",
    "duplicated_cas_no": "",
    "SMILES": "O(C(CC#N)=O)C(C)C",
    "meta_data": {
        "InChI": "InChI=1S/C6H9NO2/c1-5(2)9-6(8)3-4-7/h5H,3H2,1-2H3",
        "InChIKey": null,
        "Canonical SMILES": "N#CCC(=O)OC(C)C",
        "Molecular Formula": "C<sub>6</sub>H<sub>9</sub>NO<sub>2</sub>",
        "Molecular Mass": "127.14",
        "Boiling Point": "205.5 °C @ Press: 754 Torr",
        "Density": "1.0114 g/cm³ @ Temp: 20 °C"
    }
}