{
    "cas_no": "998-91-4",
    "key_name": "2-Butenoic acid, 3-ethoxy-, ethyl ester",
    "cn_name": null,
    "alternate_name": "2-Butenoic acid, 3-ethoxy-, ethyl ester;Crotonic acid, 3-ethoxy-, ethyl ester;Ethyl 3-ethoxycrotonate;Ethyl 3-ethoxy-2-butenoate;3-Ethoxycrotonic acid ethyl ester;Ethyl β-ethoxycrotonate;NSC 224119;NSC 2321;3-Ethoxy-2-butenoic acid ethyl ester",
    "duplicated_cas_no": "",
    "SMILES": "C(=CC(OCC)=O)(OCC)C",
    "meta_data": {
        "InChI": "InChI=1S/C8H14O3/c1-4-10-7(3)6-8(9)11-5-2/h6H,4-5H2,1-3H3",
        "InChIKey": null,
        "Canonical SMILES": "O=C(OCC)C=C(OCC)C",
        "Molecular Formula": "C<sub>8</sub>H<sub>14</sub>O<sub>3</sub>",
        "Molecular Mass": "158.20",
        "Boiling Point": "60 °C @ Press: 10 Torr",
        "Melting Point": "31 °C",
        "Density": "0.9565 g/cm³ @ Temp: 49.1000390625 °C"
    }
}