{
    "cas_no": "6950-88-5",
    "key_name": "4-(3-Methoxy-4-nitrophenyl)morpholine",
    "cn_name": null,
    "alternate_name": "Morpholine, 4-(3-methoxy-4-nitrophenyl)-;4-(3-Methoxy-4-nitrophenyl)morpholine;NSC 65635",
    "duplicated_cas_no": "",
    "SMILES": "O(C)C=1C=C(C=CC1N(=O)=O)N2CCOCC2",
    "meta_data": {
        "InChI": "InChI=1S/C11H14N2O4/c1-16-11-8-9(2-3-10(11)13(14)15)12-4-6-17-7-5-12/h2-3,8H,4-7H2,1H3",
        "InChIKey": null,
        "Canonical SMILES": "O=N(=O)C1=CC=C(C=C1OC)N2CCOCC2",
        "Molecular Formula": "C<sub>11</sub>H<sub>14</sub>N<sub>2</sub>O<sub>4</sub>",
        "Molecular Mass": "238.24",
        "Melting Point": "158.9-160.2 °C"
    }
}