{
    "cas_no": "509-09-1",
    "key_name": "Silver pentafluoropropionate",
    "cn_name": null,
    "alternate_name": "Propanoic acid, 2,2,3,3,3-pentafluoro-, silver(1+) salt (1:1);Propionic acid, pentafluoro-, silver(1+) salt;Propanoic acid, pentafluoro-, silver(1+) salt;Silver pentafluoropropionate;Silver perfluoropropanoate;Silver perfluoropropionate;Silver(I) pentafluoropropanoate;Silver(1+) pentafluoropropanoate;Silver(I) pentafluoropropionate;Silver(1+) perfluoropropionate;Silver(I) perfluoropropanoate;Silver pentafluoropropanoate",
    "duplicated_cas_no": "",
    "SMILES": "C(C(F)(F)F)(C(O)=O)(F)F.[Ag]",
    "meta_data": {
        "InChI": "InChI=1S/C3HF5O2.Ag/c4-2(5,1(9)10)3(6,7)8;/h(H,9,10);",
        "InChIKey": null,
        "Canonical SMILES": "[Ag].O=C(O)C(F)(F)C(F)(F)F",
        "Molecular Formula": "C<sub>3</sub>HF<sub>5</sub>O<sub>2</sub>.Ag",
        "Molecular Mass": "",
        "Melting Point": "242-244 °C"
    }
}