{
    "cas_no": "3349-63-1",
    "key_name": "2-Indanone, oxime",
    "cn_name": "2-茚酮肟;",
    "alternate_name": "2<em>H</em>-Inden-2-one, 1,3-dihydro-, oxime;2-Indanone, oxime;NSC 54456;NSC 62556;1<em>H</em>-Inden-2(3<em>H</em>)-one oxime",
    "duplicated_cas_no": "",
    "SMILES": "N(O)=C1CC=2C(C1)=CC=CC2",
    "meta_data": {
        "InChI": "InChI=1S/C9H9NO/c11-10-9-5-7-3-1-2-4-8(7)6-9/h1-4,11H,5-6H2",
        "InChIKey": null,
        "Canonical SMILES": "ON=C1CC=2C=CC=CC2C1",
        "Molecular Formula": "C<sub>9</sub>H<sub>9</sub>NO",
        "Molecular Mass": "147.17",
        "Melting Point": "153-154 °C"
    }
}