{
    "cas_no": "175205-81-9",
    "key_name": "2-Bromo-4-(trifluoromethyl)pyridine",
    "cn_name": "2-溴-4-(三氟甲基)吡啶;",
    "alternate_name": "Pyridine, 2-bromo-4-(trifluoromethyl)-;2-Bromo-4-(trifluoromethyl)pyridine;2-Bromo-4-trifluoromethylpyridine;4-Trifluoromethyl-2-bromopyridine",
    "duplicated_cas_no": "",
    "SMILES": "C(F)(F)(F)C=1C=C(Br)N=CC1",
    "meta_data": {
        "InChI": "InChI=1S/C6H3BrF3N/c7-5-3-4(1-2-11-5)6(8,9)10/h1-3H",
        "InChIKey": null,
        "Canonical SMILES": "FC(F)(F)C=1C=CN=C(Br)C1",
        "Molecular Formula": "C<sub>6</sub>H<sub>3</sub>BrF<sub>3</sub>N",
        "Molecular Mass": "225.99",
        "Boiling Point": "161-162 °C",
        "Melting Point": "-21--20 °C"
    }
}