{
    "cas_no": "120-55-8",
    "key_name": "Di-<em>O</em>-benzoyldiethylene glycol",
    "cn_name": "二甘醇二苯甲酸酯;二苯甲酸二甘醇酯;",
    "alternate_name": "Ethanol, 2,2′-oxybis-, 1,1′-dibenzoate;Diethylene glycol, dibenzoate;Ethanol, 2,2′-oxybis-, dibenzoate;Di-<em>O</em>-benzoyldiethylene glycol;2-[2-(Benzoyloxy)ethoxy]ethyl benzoate;Benzoflex S 45;Benzoflex 2-45;Benzoflex 2-42;K-Flex DE;Flexol 2GB;Monocizer PB 3;PB 3;Velsicol 2-45;PB 3A;Monocizer PB 3A;DEDB;BF 50",
    "duplicated_cas_no": "773104-50-0",
    "SMILES": "C(OCCOCCOC(=O)C1=CC=CC=C1)(=O)C2=CC=CC=C2",
    "meta_data": {
        "InChI": "InChI=1S/C18H18O5/c19-17(15-7-3-1-4-8-15)22-13-11-21-12-14-23-18(20)16-9-5-2-6-10-16/h1-10H,11-14H2",
        "InChIKey": null,
        "Canonical SMILES": "O=C(OCCOCCOC(=O)C=1C=CC=CC1)C=2C=CC=CC2",
        "Molecular Formula": "C<sub>18</sub>H<sub>18</sub>O<sub>5</sub>",
        "Molecular Mass": "314.33",
        "Boiling Point": "225-227 °C @ Press: 3 Torr",
        "Melting Point": "28 °C",
        "Density": "1.2 g/cm³"
    }
}