{
    "cas_no": "2786-31-4",
    "key_name": "Benzothiazolium, 3-methyl-, iodide (1:1)",
    "cn_name": "3-甲基苯并噻唑翁碘化物;",
    "alternate_name": "Benzothiazolium, 3-methyl-, iodide (1:1);Benzothiazolium, 3-methyl-, iodide;3-Methylbenzothiazolium iodide;Methylbenzothiazolium iodide;Benzothiazole methiodide;2-Methylbenzothiazolium iodide",
    "duplicated_cas_no": "",
    "SMILES": "C[N+]=1C=2C(=CC=CC2)SC1.[I-]",
    "meta_data": {
        "InChI": "InChI=1S/C8H8NS.HI/c1-9-6-10-8-5-3-2-4-7(8)9;/h2-6H,1H3;1H/q+1;/p-1",
        "InChIKey": null,
        "Canonical SMILES": "[I-].S1C=[N+](C=2C=CC=CC12)C",
        "Molecular Formula": "C<sub>8</sub>H<sub>8</sub>NS.I",
        "Molecular Mass": "",
        "Melting Point": "220 °C"
    }
}