{
    "cas_no": "136-35-6",
    "key_name": "Diazoaminobenzene",
    "cn_name": null,
    "alternate_name": "1-Triazene, 1,3-diphenyl-;Triazene, 1,3-diphenyl-;1,3-Diphenyl-1-triazene;Diazoaminobenzene;Aniline, <em>N</em>-(phenylazo)-;1,3-Diphenyltriazene;NSC 2077;<em>N</em><sup>1</sup>,<em>N</em><sup>3</sup>-Diphenyltriazene;DAB",
    "duplicated_cas_no": "",
    "SMILES": "N(=NNC1=CC=CC=C1)C2=CC=CC=C2",
    "meta_data": {
        "InChI": "InChI=1S/C12H11N3/c1-3-7-11(8-4-1)13-15-14-12-9-5-2-6-10-12/h1-10H,(H,13,14)",
        "InChIKey": null,
        "Canonical SMILES": "N(=NC=1C=CC=CC1)NC=2C=CC=CC2",
        "Molecular Formula": "C<sub>12</sub>H<sub>11</sub>N<sub>3</sub>",
        "Molecular Mass": "197.24",
        "Boiling Point": "38 °C @ Press: 50 Torr",
        "Melting Point": "98 °C"
    }
}