{
    "cas_no": "93-16-3",
    "key_name": "Methylisoeugenol",
    "cn_name": "异丁香酚甲醚;",
    "alternate_name": "Benzene, 1,2-dimethoxy-4-(1-propen-1-yl)-;Benzene, 1,2-dimethoxy-4-propenyl-;Benzene, 1,2-dimethoxy-4-(1-propenyl)-;Veratrole, 4-propenyl-;1,2-Dimethoxy-4-(1-propen-1-yl)benzene;Isoeugenol methyl ether;Isoeugenyl methyl ether;Isohomogenol;4-Propenylveratrole;Methylisoeugenol;<em>O</em>-Methylisoeugenol;1-(3,4-Dimethoxyphenyl)-1-propene;3,4-Dimethoxypropenylbenzene;4-Propenyl-1,2-dimethoxybenzene;1-Veratryl-1-propene;1,2-Dimethoxy-4-(1-propenyl)benzene;3-(3,4-Dimethoxyphenyl)-2-propene;4-(1-Propenyl)-1,2-dimethoxybenzene;NSC 46111;3,4-Dimethoxy-β-methylstyrene;1,2-Dimethoxy-4-propeneylbenzene",
    "duplicated_cas_no": "",
    "SMILES": "O(C)C1=C(OC)C=CC(C=CC)=C1",
    "meta_data": {
        "InChI": "InChI=1S/C11H14O2/c1-4-5-9-6-7-10(12-2)11(8-9)13-3/h4-8H,1-3H3",
        "InChIKey": null,
        "Canonical SMILES": "O(C1=CC=C(C=CC)C=C1OC)C",
        "Molecular Formula": "C<sub>11</sub>H<sub>14</sub>O<sub>2</sub>",
        "Molecular Mass": "178.23",
        "Boiling Point": "270.5 °C",
        "Melting Point": "18 °C",
        "Density": "1.0504 g/cm³ @ Temp: 25 °C"
    }
}