{
    "cas_no": "2050-85-3",
    "key_name": "<em>N</em>,<em>N</em>′-1,2-Phenylenebis[acetamide]",
    "cn_name": null,
    "alternate_name": "Acetamide, <em>N</em>,<em>N</em>′-1,2-phenylenebis-;Acetamide, <em>N</em>,<em>N</em>′-<em>o</em>-phenylenebis-;<em>N</em>,<em>N</em>′-1,2-Phenylenebis[acetamide];<em>N</em>,<em>N</em>′-Diacetyl-<em>o</em>-phenylenediamine;<em>o</em>-Diacetamidophenylene;1,2-Di(acetylamino)benzene;NSC 70132;<em>N</em>-[2-(Acetylamino)phenyl]acetamide;<em>o</em>-Phenylenediacetamide;1,2-Bis(acetylamino)benzene",
    "duplicated_cas_no": "",
    "SMILES": "N(C(C)=O)C1=C(NC(C)=O)C=CC=C1",
    "meta_data": {
        "InChI": "InChI=1S/C10H12N2O2/c1-7(13)11-9-5-3-4-6-10(9)12-8(2)14/h3-6H,1-2H3,(H,11,13)(H,12,14)",
        "InChIKey": null,
        "Canonical SMILES": "O=C(NC=1C=CC=CC1NC(=O)C)C",
        "Molecular Formula": "C<sub>10</sub>H<sub>12</sub>N<sub>2</sub>O<sub>2</sub>",
        "Molecular Mass": "192.21",
        "Melting Point": "188.2-188.7 °C"
    }
}