{
    "cas_no": "42787-75-7",
    "key_name": "5<em>H</em>-Dibenz[<em>b</em>,<em>f</em>]azepine-5-carbonitrile",
    "cn_name": "5-氰基-5H-二苯并[b,f]氮杂卓;",
    "alternate_name": "5<em>H</em>-Dibenz[<em>b</em>,<em>f</em>]azepine-5-carbonitrile",
    "duplicated_cas_no": "",
    "SMILES": "C(#N)N1C=2C(C=CC=3C1=CC=CC3)=CC=CC2",
    "meta_data": {
        "InChI": "InChI=1S/C15H10N2/c16-11-17-14-7-3-1-5-12(14)9-10-13-6-2-4-8-15(13)17/h1-10H",
        "InChIKey": null,
        "Canonical SMILES": "N#CN1C=2C=CC=CC2C=CC=3C=CC=CC31",
        "Molecular Formula": "C<sub>15</sub>H<sub>10</sub>N<sub>2</sub>",
        "Molecular Mass": "218.25",
        "Melting Point": "109-110 °C"
    }
}