{
    "cas_no": "7775-19-1",
    "key_name": "Sodium metaborate",
    "cn_name": "偏硼酸钠;",
    "alternate_name": "Boric acid (HBO<sub>2</sub>), sodium salt (1:1);Boric acid (HBO<sub>2</sub>), sodium salt;Sodium borate (NaBO<sub>2</sub>);Borosoap;Sodium metaborate;Kodalk;Sodium metaborate (NaBO<sub>2</sub>);Monosodium metaborate;Sodium borate (Na<sub>2</sub>(BO<sub>2</sub>)<sub>2</sub>)",
    "duplicated_cas_no": "37354-60-2;161374-81-8;950582-56-6;1437319-05-5;1449469-60-6;1853278-50-8;2820230-31-5",
    "SMILES": "B(O)=O.[Na]",
    "meta_data": {
        "InChI": "InChI=1S/BHO2.Na/c2-1-3;/h2H;",
        "InChIKey": null,
        "Canonical SMILES": "[Na].O=BO",
        "Molecular Formula": "BHO<sub>2</sub>.Na",
        "Molecular Mass": "",
        "Boiling Point": "1434 °C",
        "Melting Point": "966 °C",
        "Density": "2.464 g/cm³"
    }
}