{
    "cas_no": "4532-96-1",
    "key_name": "1-(1-Methylethyl)-1<em>H</em>-imidazole",
    "cn_name": "1-异丙基咪唑;",
    "alternate_name": "1<em>H</em>-Imidazole, 1-(1-methylethyl)-;Imidazole, 1-isopropyl-;1-(1-Methylethyl)-1<em>H</em>-imidazole;1-Isopropylimidazole;1-Isopropyl-1<em>H</em>-imidazole;<em>N</em>-Isopropylimidazole;1-(Propan-2-yl)-1<em>H</em>-imidazole;1-Propan-2-ylimidazole",
    "duplicated_cas_no": "",
    "SMILES": "C(C)(C)N1C=CN=C1",
    "meta_data": {
        "InChI": "InChI=1S/C6H10N2/c1-6(2)8-4-3-7-5-8/h3-6H,1-2H3",
        "InChIKey": null,
        "Canonical SMILES": "N=1C=CN(C1)C(C)C",
        "Molecular Formula": "C<sub>6</sub>H<sub>10</sub>N<sub>2</sub>",
        "Molecular Mass": "110.16",
        "Boiling Point": "62 °C @ Press: 1 Torr"
    }
}