{
    "cas_no": "23945-44-0",
    "key_name": "1,2,3,4-Tetrahydro-2,4-dioxo-5-pyrimidinecarboxylic acid",
    "cn_name": "脲嘧啶-5-羧酸;2,4-二羟基嘧啶-5-羧酸;",
    "alternate_name": "5-Pyrimidinecarboxylic acid, 1,2,3,4-tetrahydro-2,4-dioxo-;5-Pyrimidinecarboxylic acid, 2,4-dihydroxy-;1,2,3,4-Tetrahydro-2,4-dioxo-5-pyrimidinecarboxylic acid;2,4-Dihydroxy-5-pyrimidinecarboxylic acid;5-Uracilcarboxylic acid;Isoorotic acid;5-Carboxyuracil;5-Carboxy-2,4-dihydroxypyrimidine;2,4-Dioxo-1,2,3,4-tetrahydropyrimidine-5-carboxylic acid;NSC 1589;NSC 79561;2,4-Dioxo-1<em>H</em>-pyrimidine-5-carboxylic acid",
    "duplicated_cas_no": "394-40-1",
    "SMILES": "C(O)(=O)C=1C(=O)NC(=O)NC1",
    "meta_data": {
        "InChI": "InChI=1S/C5H4N2O4/c8-3-2(4(9)10)1-6-5(11)7-3/h1H,(H,9,10)(H2,6,7,8,11)",
        "InChIKey": null,
        "Canonical SMILES": "O=C(O)C1=CNC(=O)NC1=O",
        "Molecular Formula": "C<sub>5</sub>H<sub>4</sub>N<sub>2</sub>O<sub>4</sub>",
        "Molecular Mass": "156.10",
        "Melting Point": "283 °C"
    }
}