{
    "cas_no": "35061-50-8",
    "key_name": "<em>N</em>,<em>N</em>′-Diacetylchitobiose",
    "cn_name": null,
    "alternate_name": "<span class=\"text-smallcaps\">D</smallcap>-Glucose, 2-(acetylamino)-4-<em>O</em>-[2-(acetylamino)-2-deoxy-β-<smallcap>D</span>-glucopyranosyl]-2-deoxy-;Glucopyranose, 2-acetamido-4-<em>O</em>-(2-acetamido-2-deoxy-β-<span class=\"text-smallcaps\">D</smallcap>-glucopyranosyl)-2-deoxy-, <smallcap>D</span>-;<span class=\"text-smallcaps\">D</smallcap>-Glucose, 2-acetamido-4-<em>O</em>-(2-acetamido-2-deoxy-β-<smallcap>D</span>-glucopyranosyl)-2-deoxy-;<span class=\"text-smallcaps\">D</smallcap>-Glucosamine, 4-<em>O</em>-(2-acetamido-2-deoxy-β-<smallcap>D</span>-glucopyranosyl)-<em>N</em>-acetyl-;2-(Acetylamino)-4-<em>O</em>-[2-(acetylamino)-2-deoxy-β-<span class=\"text-smallcaps\">D</smallcap>-glucopyranosyl]-2-deoxy-<smallcap>D</span>-glucose;<em>N</em>,<em>N</em>′-Diacetylchitobiose;Chitobiose, <em>N</em>,<em>N</em>′-diacetyl-;Bis(<em>N</em>-acetyl)chitobiose;Di-<em>N</em>-acetylchitobiose;<em>N</em>,<em>N</em>′-Diacetyl-<span class=\"text-smallcaps\">D</span>-chitobiose;Di-<em>N</em>-acetyl-<span class=\"text-smallcaps\">D</span>-chitobiose;Chitobiose diacetate;N-acetylchitobiose;<em>N</em>′,<em>N</em>′′-Diacetylchitobiose",
    "duplicated_cas_no": "2706-64-1;13088-78-3;21950-31-2;24870-43-7;29657-56-5;99787-76-5;99881-19-3;123815-03-2;1400222-26-5",
    "SMILES": "O([C@@H]([C@@H]([C@@H](NC(C)=O)C=O)O)[C@@H](CO)O)[C@H]1[C@H](NC(C)=O)[C@@H](O)[C@H](O)[C@@H](CO)O1",
    "meta_data": {
        "InChI": "InChI=1S/C16H28N2O11/c1-6(22)17-8(3-19)12(25)15(9(24)4-20)29-16-11(18-7(2)23)14(27)13(26)10(5-21)28-16/h3,8-16,20-21,24-27H,4-5H2,1-2H3,(H,17,22)(H,18,23)/t8-,9+,10+,11+,12+,13+,14+,15+,16-/m0/s1",
        "InChIKey": null,
        "Canonical SMILES": "O=CC(NC(=O)C)C(O)C(OC1OC(CO)C(O)C(O)C1NC(=O)C)C(O)CO",
        "Molecular Formula": "C<sub>16</sub>H<sub>28</sub>N<sub>2</sub>O<sub>11</sub>",
        "Molecular Mass": "424.40",
        "Melting Point": "&gt;185 °C (decomp)"
    }
}