{
    "cas_no": "776-75-0",
    "key_name": "Benzoylpiperidine",
    "cn_name": "N-苯甲酰哌啶;N-苯甲酰哌哔啶;苯酰氮苯烷;",
    "alternate_name": "Methanone, phenyl-1-piperidinyl-;Piperidine, 1-benzoyl-;Phenyl-1-piperidinylmethanone;<em>N</em>-Benzoylpiperidine;Protectine I;α-Repellin;Benzoic acid, piperidide;P 162;Benzoylpiperidine;1-Benzoylpiperidine;Benzoic acid <em>N</em>-piperidide;NSC 1992;NSC 26344;Phenyl(piperidin-1-yl)methanone",
    "duplicated_cas_no": "",
    "SMILES": "C(=O)(C1=CC=CC=C1)N2CCCCC2",
    "meta_data": {
        "InChI": "InChI=1S/C12H15NO/c14-12(11-7-3-1-4-8-11)13-9-5-2-6-10-13/h1,3-4,7-8H,2,5-6,9-10H2",
        "InChIKey": null,
        "Canonical SMILES": "O=C(C=1C=CC=CC1)N2CCCCC2",
        "Molecular Formula": "C<sub>12</sub>H<sub>15</sub>NO",
        "Molecular Mass": "189.25",
        "Boiling Point": "320.5 °C",
        "Melting Point": "49 °C"
    }
}