{
    "cas_no": "4344-55-2",
    "key_name": "4-Butoxybenzenamine",
    "cn_name": "对氨基苯丁醚;4-氨基苯丁醚;4-丁氧基苯胺;",
    "alternate_name": "Benzenamine, 4-butoxy-;Aniline, <em>p</em>-butoxy-;4-Butoxybenzenamine;<em>p</em>-Butoxyaniline;4-Butoxyaniline;<em>p</em>-Butyloxyaniline;<em>p</em>-<em>n</em>-Butoxyaniline;(4-Butoxyphenyl)amine;4-Amino-1-butoxybenzene;NSC 5443",
    "duplicated_cas_no": "",
    "SMILES": "O(CCCC)C1=CC=C(N)C=C1",
    "meta_data": {
        "InChI": "InChI=1S/C10H15NO/c1-2-3-8-12-10-6-4-9(11)5-7-10/h4-7H,2-3,8,11H2,1H3",
        "InChIKey": null,
        "Canonical SMILES": "O(C1=CC=C(N)C=C1)CCCC",
        "Molecular Formula": "C<sub>10</sub>H<sub>15</sub>NO",
        "Molecular Mass": "165.23",
        "Boiling Point": "143-144 °C @ Press: 12 Torr",
        "Melting Point": "130-132 °C"
    }
}