{
    "cas_no": "938-73-8",
    "key_name": "2-Ethoxybenzamide",
    "cn_name": "2-乙氧基苯甲酰胺;邻乙氧基苯甲酰胺;乙柳酰胺;",
    "alternate_name": "Benzamide, 2-ethoxy-;Benzamide, <em>o</em>-ethoxy-;2-Ethoxybenzamide;Ethenzamide;Ethosalicyl;<em>o</em>-Ethoxybenzamide;Etosalicyl;Ethbenzamide;Lucamide;Protopyrin;Trancalgyl;Etamide;Pirosolvina;Ethenzamid;Etocil;Etosalicil;Eusal;Katagrippe;NSC 28787;Etenzamide",
    "duplicated_cas_no": "",
    "SMILES": "C(N)(=O)C1=C(OCC)C=CC=C1",
    "meta_data": {
        "InChI": "InChI=1S/C9H11NO2/c1-2-12-8-6-4-3-5-7(8)9(10)11/h3-6H,2H2,1H3,(H2,10,11)",
        "InChIKey": null,
        "Canonical SMILES": "O=C(N)C=1C=CC=CC1OCC",
        "Molecular Formula": "C<sub>9</sub>H<sub>11</sub>NO<sub>2</sub>",
        "Molecular Mass": "165.19",
        "Melting Point": "133 °C"
    }
}