{
    "cas_no": "2234-20-0",
    "key_name": "2,4-Dimethylstyrene",
    "cn_name": "2,4-二甲基苯乙烯;",
    "alternate_name": "Benzene, 1-ethenyl-2,4-dimethyl-;Styrene, 2,4-dimethyl-;1-Ethenyl-2,4-dimethylbenzene;2,4-Dimethylstyrene;1-Vinyl-2,4-dimethylbenzene;1,3-Dimethyl-4-vinylbenzene;4-Vinyl-<em>m</em>-xylene;2,4-Dimethyl-1-vinylbenzene;NSC 62089;2,4-Dimethyl-1-ethenylbenzene",
    "duplicated_cas_no": "",
    "SMILES": "C(=C)C1=C(C)C=C(C)C=C1",
    "meta_data": {
        "InChI": "InChI=1S/C10H12/c1-4-10-6-5-8(2)7-9(10)3/h4-7H,1H2,2-3H3",
        "InChIKey": null,
        "Canonical SMILES": "C=CC1=CC=C(C=C1C)C",
        "Molecular Formula": "C<sub>10</sub>H<sub>12</sub>",
        "Molecular Mass": "132.20",
        "Boiling Point": "81-85 °C @ Press: 14 Torr",
        "Melting Point": "-64.5--62 °C",
        "Density": "0.905 g/cm³ @ Temp: 20 °C"
    }
}