{
    "cas_no": "13047-04-6",
    "key_name": "4-Aminocatechol",
    "cn_name": null,
    "alternate_name": "1,2-Benzenediol, 4-amino-;Pyrocatechol, 4-amino-;4-Amino-1,2-benzenediol;3,4-Dihydroxyphenylamine;4-Aminocatechol;3,4-Dihydroxyaniline;1-Amino-3,4-dihydroxybenzene;A 3253;A 3253 (pharmaceutical);KYJ 3-018",
    "duplicated_cas_no": "",
    "SMILES": "OC1=C(O)C=CC(N)=C1",
    "meta_data": {
        "InChI": "InChI=1S/C6H7NO2/c7-4-1-2-5(8)6(9)3-4/h1-3,8-9H,7H2",
        "InChIKey": null,
        "Canonical SMILES": "OC1=CC=C(N)C=C1O",
        "Molecular Formula": "C<sub>6</sub>H<sub>7</sub>NO<sub>2</sub>",
        "Molecular Mass": "125.13",
        "Melting Point": "124-125 °C"
    }
}