{
    "cas_no": "117-18-0",
    "key_name": "1,2,4,5-Tetrachloro-3-nitrobenzene",
    "cn_name": "四氯硝基苯;",
    "alternate_name": "Benzene, 1,2,4,5-tetrachloro-3-nitro-;1,2,4,5-Tetrachloro-3-nitrobenzene;Chipman 3142;Folosan DB 905;Fusarex;TCNB;Tecnazene;2,3,5,6-Tetrachloronitrobenzene;2,3,5,6-Tetrachloro-1-nitrobenzene;Folosan;Tecnazen;Myfusan;Tetrachloronitrobenzene;Napotate;Nebulin;1-Nitro-2,3,5,6-tetrachlorobenzene;TCNB (pesticide);NSC 10235",
    "duplicated_cas_no": "1135443-71-8",
    "SMILES": "N(=O)(=O)C1=C(Cl)C(Cl)=CC(Cl)=C1Cl",
    "meta_data": {
        "InChI": "InChI=1S/C6HCl4NO2/c7-2-1-3(8)5(10)6(4(2)9)11(12)13/h1H",
        "InChIKey": null,
        "Canonical SMILES": "O=N(=O)C=1C(Cl)=C(Cl)C=C(Cl)C1Cl",
        "Molecular Formula": "C<sub>6</sub>HCl<sub>4</sub>NO<sub>2</sub>",
        "Molecular Mass": "260.89",
        "Boiling Point": "304 °C",
        "Melting Point": "99-100 °C",
        "Density": "1.744 g/cm³ @ Temp: 25 °C"
    }
}