{
    "cas_no": "22508-64-1",
    "key_name": "4-Methyl-4-penten-1-ol",
    "cn_name": null,
    "alternate_name": "4-Penten-1-ol, 4-methyl-;4-Methyl-4-penten-1-ol",
    "duplicated_cas_no": "",
    "SMILES": "C(C(C)=C)CCO",
    "meta_data": {
        "InChI": "InChI=1S/C6H12O/c1-6(2)4-3-5-7/h7H,1,3-5H2,2H3",
        "InChIKey": null,
        "Canonical SMILES": "OCCCC(=C)C",
        "Molecular Formula": "C<sub>6</sub>H<sub>12</sub>O",
        "Molecular Mass": "100.16",
        "Boiling Point": "60 °C @ Press: 17 Torr"
    }
}