{
    "cas_no": "2425-41-4",
    "key_name": "2-Phenyl-1,3-dioxane-5,5-dimethanol",
    "cn_name": "5,5-双(羟甲基)-2-苯基-1,3-二氧己环;单苯甲醛缩季戊四醇;",
    "alternate_name": "1,3-Dioxane-5,5-dimethanol, 2-phenyl-;<em>m</em>-Dioxane-5,5-dimethanol, 2-phenyl-;2-Phenyl-1,3-dioxane-5,5-dimethanol;Benzaldehyde monopentaerythritol acetal;5,5-Bis(hydroxymethyl)-2-phenyl-1,3-dioxane;NSC 48280;(5-Hydroxymethyl-2-phenyl-[1,3]dioxan-5-yl)methanol;Mono-<em>O</em>-benzylidinepentaerythritol;(2-Phenyl-1,3-dioxane-5,5-diyl)dimethanol",
    "duplicated_cas_no": "",
    "SMILES": "C(O)C1(CO)COC(OC1)C2=CC=CC=C2",
    "meta_data": {
        "InChI": "InChI=1S/C12H16O4/c13-6-12(7-14)8-15-11(16-9-12)10-4-2-1-3-5-10/h1-5,11,13-14H,6-9H2",
        "InChIKey": null,
        "Canonical SMILES": "OCC1(CO)COC(OC1)C=2C=CC=CC2",
        "Molecular Formula": "C<sub>12</sub>H<sub>16</sub>O<sub>4</sub>",
        "Molecular Mass": "224.25",
        "Melting Point": "133 °C"
    }
}