{
    "cas_no": "19485-38-2",
    "key_name": "1-Methyl-1<em>H</em>-imidazole-4,5-dicarboxylic acid",
    "cn_name": null,
    "alternate_name": "1<em>H</em>-Imidazole-4,5-dicarboxylic acid, 1-methyl-;Imidazole-4,5-dicarboxylic acid, 1-methyl-;1-Methyl-1<em>H</em>-imidazole-4,5-dicarboxylic acid;1-Methylimidazole-4,5-dicarboxylic acid;1-Methyl-4,5-dicarboxyimidazole;IEM 1573;4,5-Dicarboxy-<em>N</em>-methylimidazole;1-Methy-4,5-imidazoledicarboxylic acid",
    "duplicated_cas_no": "",
    "SMILES": "C(O)(=O)C1=C(C(O)=O)N(C)C=N1",
    "meta_data": {
        "InChI": "InChI=1S/C6H6N2O4/c1-8-2-7-3(5(9)10)4(8)6(11)12/h2H,1H3,(H,9,10)(H,11,12)",
        "InChIKey": null,
        "Canonical SMILES": "O=C(O)C=1N=CN(C1C(=O)O)C",
        "Molecular Formula": "C<sub>6</sub>H<sub>6</sub>N<sub>2</sub>O<sub>4</sub>",
        "Molecular Mass": "170.12",
        "Melting Point": "262-263 °C"
    }
}