{
    "cas_no": "20350-15-6",
    "key_name": "Brefeldin A",
    "cn_name": "布雷非德菌素A;布雷菲德菌素A;",
    "alternate_name": "4<em>H</em>-Cyclopent[<em>f</em>]oxacyclotridecin-4-one, 1,6,7,8,9,11a,12,13,14,14a-decahydro-1,13-dihydroxy-6-methyl-, (1<em>R</em>,2<em>E</em>,6<em>S</em>,10<em>E</em>,11a<em>S</em>,13<em>S</em>,14a<em>R</em>)-;4<em>H</em>-Cyclopent[<em>f</em>]oxacyclotridecin-4-one, 1,6,7,8,9,11aβ,12,13,14,14aα-decahydro-1β,13α-dihydroxy-6β-methyl-;4<em>H</em>-Cyclopent[<em>f</em>]oxacyclotridecin-4-one, 1,6,7,8,9,11a,12,13,14,14a-decahydro-1,13-dihydroxy-6-methyl-, [1<em>R</em>-(1<em>R</em>*,2<em>E</em>,6<em>S</em>*,10<em>E</em>,11a<em>S</em>*,13<em>S</em>*,14a<em>R</em>*)]-;(1<em>R</em>,2<em>E</em>,6<em>S</em>,10<em>E</em>,11a<em>S</em>,13<em>S</em>,14a<em>R</em>)-1,6,7,8,9,11a,12,13,14,14a-Decahydro-1,13-dihydroxy-6-methyl-4<em>H</em>-cyclopent[<em>f</em>]oxacyclotridecin-4-one;Brefeldin A;Ascotoxin;Cyanein;Decumbin;Cyanaein;Nectrolide;Synergisidin;(+)-Brefeldin A;Brefeldin;NSC 107456;NSC 244390;NSC 56310;NSC 89671;MeSH ID: D020126",
    "duplicated_cas_no": "3459-16-3;11006-23-8;11039-44-4;19022-59-4;27740-36-9;31874-13-2;60132-23-2;78206-62-9",
    "SMILES": "O[C@H]/1[C@]2([C@@](C[C@H](O)C2)(/C=C/CCC[C@H](C)OC(=O)\\C=C1)[H])[H]",
    "meta_data": {
        "InChI": "InChI=1S/C16H24O4/c1-11-5-3-2-4-6-12-9-13(17)10-14(12)15(18)7-8-16(19)20-11/h4,6-8,11-15,17-18H,2-3,5,9-10H2,1H3/b6-4+,8-7+/t11-,12+,13-,14+,15+/m0/s1",
        "InChIKey": null,
        "Canonical SMILES": "O=C1OC(C)CCCC=CC2CC(O)CC2C(O)C=C1",
        "Molecular Formula": "C<sub>16</sub>H<sub>24</sub>O<sub>4</sub>",
        "Molecular Mass": "280.36",
        "Melting Point": "190 °C"
    }
}