{
    "cas_no": "2077-46-5",
    "key_name": "2,3,6-Trichlorotoluene",
    "cn_name": "2,3,6-三氯甲苯;",
    "alternate_name": "Benzene, 1,2,4-trichloro-3-methyl-;Toluene, 2,3,6-trichloro-;1,2,4-Trichloro-3-methylbenzene;2,3,6-Trichlorotoluene",
    "duplicated_cas_no": "",
    "SMILES": "CC1=C(Cl)C(Cl)=CC=C1Cl",
    "meta_data": {
        "InChI": "InChI=1S/C7H5Cl3/c1-4-5(8)2-3-6(9)7(4)10/h2-3H,1H3",
        "InChIKey": null,
        "Canonical SMILES": "ClC1=CC=C(Cl)C(=C1Cl)C",
        "Molecular Formula": "C<sub>7</sub>H<sub>5</sub>Cl<sub>3</sub>",
        "Molecular Mass": "195.47",
        "Boiling Point": "118 °C @ Press: 18 Torr",
        "Melting Point": "43-44 °C"
    }
}