{
    "cas_no": "609-09-6",
    "key_name": "1,3-Diethyl 2-oxopropanedioate",
    "cn_name": "酮基丙二酸二乙酯;羰基丙二酸二乙酯;",
    "alternate_name": "Propanedioic acid, 2-oxo-, 1,3-diethyl ester;Mesoxalic acid, diethyl ester;Propanedioic acid, oxo-, diethyl ester;1,3-Diethyl 2-oxopropanedioate;Ethyl mesoxalate;Diethyl oxomalonate;Diethyl ketomalonate;Diethyl mesoxalate;Ethyl oxomalonate;Ethyl ketomalonate;Diethyl 2-oxopropane-1,3-dioate;Diethyl oxopropanedioate;Diethyl 2-oxomalonate;2-Oxomalonic acid diethyl ester;Oxopropanedioic acid diethyl ester;NSC 53478;Carbonyl diethyl malonate;Ethoxycarbonyl ethoxycarbonyl ketone",
    "duplicated_cas_no": "105459-20-9",
    "SMILES": "C(C(OCC)=O)(C(OCC)=O)=O",
    "meta_data": {
        "InChI": "InChI=1S/C7H10O5/c1-3-11-6(9)5(8)7(10)12-4-2/h3-4H2,1-2H3",
        "InChIKey": null,
        "Canonical SMILES": "O=C(OCC)C(=O)C(=O)OCC",
        "Molecular Formula": "C<sub>7</sub>H<sub>10</sub>O<sub>5</sub>",
        "Molecular Mass": "174.15",
        "Boiling Point": "210 °C",
        "Melting Point": "-30 °C",
        "Density": "1.119 g/cm³ @ Temp: 20 °C"
    }
}