{
    "cas_no": "6223-78-5",
    "key_name": "2,5-Dichloro-2,5-dimethylhexane",
    "cn_name": "2,5-二氯-2,5-二甲基己烷;",
    "alternate_name": "Hexane, 2,5-dichloro-2,5-dimethyl-;2,5-Dichloro-2,5-dimethylhexane;2,5-Dimethyl-2,5-dichlorohexane;NSC 408418",
    "duplicated_cas_no": "306272-22-0",
    "SMILES": "C(CC(C)(C)Cl)C(C)(C)Cl",
    "meta_data": {
        "InChI": "InChI=1S/C8H16Cl2/c1-7(2,9)5-6-8(3,4)10/h5-6H2,1-4H3",
        "InChIKey": null,
        "Canonical SMILES": "ClC(C)(C)CCC(Cl)(C)C",
        "Molecular Formula": "C<sub>8</sub>H<sub>16</sub>Cl<sub>2</sub>",
        "Molecular Mass": "183.12",
        "Boiling Point": "72-82 °C @ Press: 12 Torr",
        "Melting Point": "67.5 °C"
    }
}