{
    "cas_no": "1918-00-9",
    "key_name": "Dicamba",
    "cn_name": "麦草畏;麦草威;百草敌;3,6-二氯-2-甲氧基苯甲酸;",
    "alternate_name": "Benzoic acid, 3,6-dichloro-2-methoxy-;<em>o</em>-Anisic acid, 3,6-dichloro-;3,6-Dichloro-2-methoxybenzoic acid;Dicamba;3,6-Dichloro-<em>o</em>-anisic acid;2,5-Dichloro-6-methoxybenzoic acid;Mediben;2-Methoxy-3,6-dichlorobenzoic acid;Velsicol Compound R;Velsicol 58CS11;Dianat;MDBA;Banvel;Banvel SGF;Vanquish;Banvel 70WP;DC;Aviator;Celebrity B;Mais Banvel WG;MeSH ID: D003996",
    "duplicated_cas_no": "62610-39-3;856565-78-1",
    "SMILES": "C(O)(=O)C1=C(OC)C(Cl)=CC=C1Cl",
    "meta_data": {
        "InChI": "InChI=1S/C8H6Cl2O3/c1-13-7-5(10)3-2-4(9)6(7)8(11)12/h2-3H,1H3,(H,11,12)",
        "InChIKey": null,
        "Canonical SMILES": "O=C(O)C=1C(Cl)=CC=C(Cl)C1OC",
        "Molecular Formula": "C<sub>8</sub>H<sub>6</sub>Cl<sub>2</sub>O<sub>3</sub>",
        "Molecular Mass": "221.04",
        "Melting Point": "114-116 °C",
        "Density": "1.57 g/cm³ @ Temp: 25 °C"
    }
}