{
    "cas_no": "130848-06-5",
    "key_name": "Decursinol angelate",
    "cn_name": null,
    "alternate_name": "2-Butenoic acid, 2-methyl-, (7<em>S</em>)-7,8-dihydro-8,8-dimethyl-2-oxo-2<em>H</em>,6<em>H</em>-benzo[1,2-<em>b</em>:5,4-<em>b</em>′]dipyran-7-yl ester, (2<em>Z</em>)-;2-Butenoic acid, 2-methyl-, 7,8-dihydro-8,8-dimethyl-2-oxo-2<em>H</em>,6<em>H</em>-benzo[1,2-<em>b</em>:5,4-<em>b</em>′]dipyran-7-yl ester, [<em>S</em>-(<em>Z</em>)]-;2<em>H</em>,6<em>H</em>-Benzo[1,2-<em>b</em>:5,4-<em>b</em>′]dipyran, 2-butenoic acid deriv.;Decursinol angelate;Acutilobin",
    "duplicated_cas_no": "",
    "SMILES": "CC1(C)OC=2C(C[C@@H]1OC(/C(=C\\C)/C)=O)=CC3=C(C2)OC(=O)C=C3",
    "meta_data": {
        "InChI": "InChI=1S/C19H20O5/c1-5-11(2)18(21)23-16-9-13-8-12-6-7-17(20)22-14(12)10-15(13)24-19(16,3)4/h5-8,10,16H,9H2,1-4H3/b11-5-/t16-/m0/s1",
        "InChIKey": null,
        "Canonical SMILES": "O=C1OC=2C=C3OC(C)(C)C(OC(=O)C(=CC)C)CC3=CC2C=C1",
        "Molecular Formula": "C<sub>19</sub>H<sub>20</sub>O<sub>5</sub>",
        "Molecular Mass": "328.36",
        "Melting Point": "93-94 °C"
    }
}