{
    "cas_no": "624-13-5",
    "key_name": "Propyl octanoate",
    "cn_name": "辛酸丙酯;",
    "alternate_name": "Octanoic acid, propyl ester;Propyl caprylate;Propyl octanoate;NSC 23736",
    "duplicated_cas_no": "",
    "SMILES": "C(CCCCCCC)(OCCC)=O",
    "meta_data": {
        "InChI": "InChI=1S/C11H22O2/c1-3-5-6-7-8-9-11(12)13-10-4-2/h3-10H2,1-2H3",
        "InChIKey": null,
        "Canonical SMILES": "O=C(OCCC)CCCCCCC",
        "Molecular Formula": "C<sub>11</sub>H<sub>22</sub>O<sub>2</sub>",
        "Molecular Mass": "186.29",
        "Boiling Point": "226.4 °C",
        "Melting Point": "-46.2 °C",
        "Density": "0.8616 g/cm³ @ Temp: 25 °C"
    }
}