{
    "cas_no": "1514-87-0",
    "key_name": "Methyl 2-chloro-2,2-difluoroacetate",
    "cn_name": "氯代二氟乙酸甲酯;2-氯-2,2-二氟乙酸甲酯;氯代二氟乙酸甲酯;氯二氟乙酸甲酯;氯代二氟乙酸甲酯,98%;",
    "alternate_name": "Acetic acid, 2-chloro-2,2-difluoro-, methyl ester;Acetic acid, chlorodifluoro-, methyl ester;Methyl 2-chloro-2,2-difluoroacetate;Methyl chlorodifluoroacetate;Chlorodifluoroacetic acid methyl ester",
    "duplicated_cas_no": "",
    "SMILES": "C(C(Cl)(F)F)(OC)=O",
    "meta_data": {
        "InChI": "InChI=1S/C3H3ClF2O2/c1-8-2(7)3(4,5)6/h1H3",
        "InChIKey": null,
        "Canonical SMILES": "O=C(OC)C(F)(F)Cl",
        "Molecular Formula": "C<sub>3</sub>H<sub>3</sub>ClF<sub>2</sub>O<sub>2</sub>",
        "Molecular Mass": "144.50",
        "Boiling Point": "79-81 °C",
        "Density": "1.3701 g/cm³ @ Temp: 18 °C"
    }
}