{
    "cas_no": "7526-26-3",
    "key_name": "Diphenyl methylphosphonate",
    "cn_name": "二苯甲基膦酸;",
    "alternate_name": "Phosphonic acid, <em>P</em>-methyl-, diphenyl ester;Phosphonic acid, methyl-, diphenyl ester;Diphenyl methylphosphonate;Diphenyl methanephosphonate;[Methyl(phenoxy)phosphoryl]oxybenzene",
    "duplicated_cas_no": "",
    "SMILES": "O(P(OC1=CC=CC=C1)(C)=O)C2=CC=CC=C2",
    "meta_data": {
        "InChI": "InChI=1S/C13H13O3P/c1-17(14,15-12-8-4-2-5-9-12)16-13-10-6-3-7-11-13/h2-11H,1H3",
        "InChIKey": null,
        "Canonical SMILES": "O=P(OC=1C=CC=CC1)(OC=2C=CC=CC2)C",
        "Molecular Formula": "C<sub>13</sub>H<sub>13</sub>O<sub>3</sub>P",
        "Molecular Mass": "248.21",
        "Boiling Point": "151 °C @ Press: 0.8 Torr",
        "Melting Point": "35 °C",
        "Density": "1.2058 g/cm³ @ Temp: 20 °C"
    }
}