{
    "cas_no": "703-95-7",
    "key_name": "Fluoroorotic acid",
    "cn_name": "5-氟乳清酸;",
    "alternate_name": "4-Pyrimidinecarboxylic acid, 5-fluoro-1,2,3,6-tetrahydro-2,6-dioxo-;Orotic acid, 5-fluoro-;5-Fluoro-1,2,3,6-tetrahydro-2,6-dioxo-4-pyrimidinecarboxylic acid;5-Fluoroorotic acid;Fluoroorotic acid;ENT 26398;NSC 31712;WR 152520;5-Fluoroorotate;NSC 143130;5-Fluoro-2,6-dihydroxypyrimidine-4-carboxylic acid",
    "duplicated_cas_no": "827-26-9",
    "SMILES": "C(O)(=O)C1=C(F)C(=O)NC(=O)N1",
    "meta_data": {
        "InChI": "InChI=1S/C5H3FN2O4/c6-1-2(4(10)11)7-5(12)8-3(1)9/h(H,10,11)(H2,7,8,9,12)",
        "InChIKey": null,
        "Canonical SMILES": "O=C1NC(=O)C(F)=C(N1)C(=O)O",
        "Molecular Formula": "C<sub>5</sub>H<sub>3</sub>FN<sub>2</sub>O<sub>4</sub>",
        "Molecular Mass": "174.09",
        "Melting Point": "255 °C (decomp)"
    }
}