{
    "cas_no": "74011-58-8",
    "key_name": "Enoxacin",
    "cn_name": "依诺沙星;1-乙基-6-氟-1,4-二氢-4-氧代-7-(-哌嗪基)-1,8-萘啶-3-羧酸;",
    "alternate_name": "1,8-Naphthyridine-3-carboxylic acid, 1-ethyl-6-fluoro-1,4-dihydro-4-oxo-7-(1-piperazinyl)-;1-Ethyl-6-fluoro-1,4-dihydro-4-oxo-7-(1-piperazinyl)-1,8-naphthyridine-3-carboxylic acid;AT 2266;Enoxacin;Enoxacine;Flumark;Penetrex;Penetrex (pharmaceutical);Enoksetin;PD 107779;CI 919;NSC 629661;Enofloxacin;ENOXOR;Enofloxacine;1-Ethyl-6-fluoro-4-oxo-7-piperazin-4-ium-1-yl-1,8-naphthyridine-3-carboxylate;1-Ethyl-6-fluoro-4-oxo-7-(piperazin-1-yl)-1,4-dihydro-1,8-naphthyridine-3-carboxylic acid;MeSH ID: D015365",
    "duplicated_cas_no": "",
    "SMILES": "C(C)N1C=2C(C(=O)C(C(O)=O)=C1)=CC(F)=C(N2)N3CCNCC3",
    "meta_data": {
        "InChI": "InChI=1S/C15H17FN4O3/c1-2-19-8-10(15(22)23)12(21)9-7-11(16)14(18-13(9)19)20-5-3-17-4-6-20/h7-8,17H,2-6H2,1H3,(H,22,23)",
        "InChIKey": null,
        "Canonical SMILES": "O=C(O)C1=CN(C2=NC(=C(F)C=C2C1=O)N3CCNCC3)CC",
        "Molecular Formula": "C<sub>15</sub>H<sub>17</sub>FN<sub>4</sub>O<sub>3</sub>",
        "Molecular Mass": "320.32",
        "Melting Point": "220-224 °C"
    }
}