{
    "cas_no": "1190-24-5",
    "key_name": "Formylurea",
    "cn_name": "N-甲酸基脲;甲酰尿素;",
    "alternate_name": "Urea, <em>N</em>-formyl-;Urea, formyl-;<em>N</em>-Formylurea;Formamide, <em>N</em>-(aminocarbonyl)-;Allophanaldehyde;Formylurea;NSC 60514;<em>N</em>-Formamidoformamide",
    "duplicated_cas_no": "",
    "SMILES": "N(C(N)=O)C=O",
    "meta_data": {
        "InChI": "InChI=1S/C2H4N2O2/c3-2(6)4-1-5/h1H,(H3,3,4,5,6)",
        "InChIKey": null,
        "Canonical SMILES": "O=CNC(=O)N",
        "Molecular Formula": "C<sub>2</sub>H<sub>4</sub>N<sub>2</sub>O<sub>2</sub>",
        "Molecular Mass": "88.07",
        "Melting Point": "168-169 °C"
    }
}