{
    "cas_no": "103-33-3",
    "key_name": "Azobenzene",
    "cn_name": null,
    "alternate_name": "Diazene, 1,2-diphenyl-;Azobenzene;Diazene, diphenyl-;Benzene, azo-;1,2-Diphenyldiazene;Azobenzide;Azobenzol;Benzeneazobenzene;Diphenyldiimide;Benzene, azobis-;Diphenyldiazene;Phenylazobenzene;A 15073;NSC 2102",
    "duplicated_cas_no": "",
    "SMILES": "N(=NC1=CC=CC=C1)C2=CC=CC=C2",
    "meta_data": {
        "InChI": "InChI=1S/C12H10N2/c1-3-7-11(8-4-1)13-14-12-9-5-2-6-10-12/h1-10H",
        "InChIKey": null,
        "Canonical SMILES": "N(=NC=1C=CC=CC1)C=2C=CC=CC2",
        "Molecular Formula": "C<sub>12</sub>H<sub>10</sub>N<sub>2</sub>",
        "Molecular Mass": "182.22",
        "Boiling Point": "293 °C",
        "Melting Point": "68 °C",
        "Density": "1.203 g/cm³ @ Temp: 20 °C"
    }
}