{
    "cas_no": "63-98-9",
    "key_name": "Phenacemide",
    "cn_name": "苯乙酰脲;",
    "alternate_name": "Benzeneacetamide, <em>N</em>-(aminocarbonyl)-;Urea, (phenylacetyl)-;<em>N</em>-(Aminocarbonyl)benzeneacetamide;Epiclase;Phacetur;Phenacemide;Phenacetylcarbamide;Phenacetylurea;(Phenylacetyl)urea;α-Phenylacetylurea;Cetylureum;Phenacetur;Phenicarb;Fenacemid;Phenutal;Phenacalum;Neophedan;Phetylureum;NSC 39458;(2-Phenylacetyl)urea",
    "duplicated_cas_no": "",
    "SMILES": "C(C(NC(N)=O)=O)C1=CC=CC=C1",
    "meta_data": {
        "InChI": "InChI=1S/C9H10N2O2/c10-9(13)11-8(12)6-7-4-2-1-3-5-7/h1-5H,6H2,(H3,10,11,12,13)",
        "InChIKey": null,
        "Canonical SMILES": "O=C(N)NC(=O)CC=1C=CC=CC1",
        "Molecular Formula": "C<sub>9</sub>H<sub>10</sub>N<sub>2</sub>O<sub>2</sub>",
        "Molecular Mass": "178.19",
        "Boiling Point": "208 °C",
        "Melting Point": "212-216 °C"
    }
}