{
    "cas_no": "2040-89-3",
    "key_name": "2-Bromo-6-fluorophenol",
    "cn_name": "2-溴-6-氟苯酚;",
    "alternate_name": "Phenol, 2-bromo-6-fluoro-;2-Bromo-6-fluorophenol",
    "duplicated_cas_no": "",
    "SMILES": "OC1=C(Br)C=CC=C1F",
    "meta_data": {
        "InChI": "InChI=1S/C6H4BrFO/c7-4-2-1-3-5(8)6(4)9/h1-3,9H",
        "InChIKey": null,
        "Canonical SMILES": "FC1=CC=CC(Br)=C1O",
        "Molecular Formula": "C<sub>6</sub>H<sub>4</sub>BrFO",
        "Molecular Mass": "191.00",
        "Melting Point": "50 °C"
    }
}