{
    "cas_no": "1204-60-0",
    "key_name": "[1,1′-Biphenyl]-3-carboxaldehyde",
    "cn_name": "3-苯基苯甲醛;1,1\"-联苯-3-甲醛;",
    "alternate_name": "[1,1′-Biphenyl]-3-carboxaldehyde;3-Biphenylcarboxaldehyde;3-Phenylbenzaldehyde;3-Formylbiphenyl;<em>m</em>-Formylphenyl benzene;Biphenyl-3-carbaldehyde;3-Formyl-1,1′-biphenyl",
    "duplicated_cas_no": "2750419-47-5",
    "SMILES": "C(=O)C=1C=C(C=CC1)C2=CC=CC=C2",
    "meta_data": {
        "InChI": "InChI=1S/C13H10O/c14-10-11-5-4-8-13(9-11)12-6-2-1-3-7-12/h1-10H",
        "InChIKey": null,
        "Canonical SMILES": "O=CC1=CC=CC(=C1)C=2C=CC=CC2",
        "Molecular Formula": "C<sub>13</sub>H<sub>10</sub>O",
        "Molecular Mass": "182.22",
        "Boiling Point": "187-188 °C @ Press: 21 Torr",
        "Melting Point": "167-168 °C"
    }
}