{
    "cas_no": "465529-57-1",
    "key_name": "5-Bromo-1-methyl-1<em>H</em>-indazole",
    "cn_name": null,
    "alternate_name": "1<em>H</em>-Indazole, 5-bromo-1-methyl-;5-Bromo-1-methyl-1<em>H</em>-indazole;1-Methyl-5-bromo-1<em>H</em>-indazole",
    "duplicated_cas_no": "",
    "SMILES": "CN1C=2C(C=N1)=CC(Br)=CC2",
    "meta_data": {
        "InChI": "InChI=1S/C8H7BrN2/c1-11-8-3-2-7(9)4-6(8)5-10-11/h2-5H,1H3",
        "InChIKey": null,
        "Canonical SMILES": "BrC=1C=CC2=C(C=NN2C)C1",
        "Molecular Formula": "C<sub>8</sub>H<sub>7</sub>BrN<sub>2</sub>",
        "Molecular Mass": "211.06",
        "Melting Point": "111-112 °C"
    }
}