{
    "cas_no": "5574-24-3",
    "key_name": "Oxoglaucine",
    "cn_name": null,
    "alternate_name": "7<em>H</em>-Dibenzo[<em>de</em>,<em>g</em>]quinolin-7-one, 1,2,9,10-tetramethoxy-;Noraporphin-7-one, 4,5,6,6a-tetradehydro-1,2,9,10-tetramethoxy-;1,2,9,10-Tetramethoxy-7<em>H</em>-dibenzo[<em>de</em>,<em>g</em>]quinolin-7-one;<em>O</em>-Methylatheroline;Oxoglaucine;1,2,9,10-Tetramethoxyoxoaporphine;NSC 141543",
    "duplicated_cas_no": "1363-95-7",
    "SMILES": "O(C)C=1C2=C3C(C(=O)C=4C2=CC(OC)=C(OC)C4)=NC=CC3=CC1OC",
    "meta_data": {
        "InChI": "InChI=1S/C20H17NO5/c1-23-13-8-11-12(9-14(13)24-2)19(22)18-16-10(5-6-21-18)7-15(25-3)20(26-4)17(11)16/h5-9H,1-4H3",
        "InChIKey": null,
        "Canonical SMILES": "O=C1C2=NC=CC3=CC(OC)=C(OC)C(C=4C=C(OC)C(OC)=CC14)=C23",
        "Molecular Formula": "C<sub>20</sub>H<sub>17</sub>NO<sub>5</sub>",
        "Molecular Mass": "351.35",
        "Melting Point": "227-229 °C"
    }
}