{
    "cas_no": "52217-52-4",
    "key_name": "7-Octenyltrichlorosilane",
    "cn_name": "7-辛烯基三氯硅烷;",
    "alternate_name": "Silane, trichloro-7-octen-1-yl-;Silane, trichloro-7-octenyl-;Trichloro-7-octen-1-ylsilane;Trichloro-7-octenylsilane;7-Octenyltrichlorosilane;Trichloro-7-oct-1-enylsilane;7-Oct-1-enyltrichlorosilane",
    "duplicated_cas_no": "",
    "SMILES": "C(CCCCCC=C)[Si](Cl)(Cl)Cl",
    "meta_data": {
        "InChI": "InChI=1S/C8H15Cl3Si/c1-2-3-4-5-6-7-8-12(9,10)11/h2H,1,3-8H2",
        "InChIKey": null,
        "Canonical SMILES": "Cl[Si](Cl)(Cl)CCCCCCC=C",
        "Molecular Formula": "C<sub>8</sub>H<sub>15</sub>Cl<sub>3</sub>Si",
        "Molecular Mass": "245.65",
        "Boiling Point": "223-224 °C",
        "Density": "1.070 g/cm³"
    }
}