{
    "cas_no": "5438-36-8",
    "key_name": "4-Hydroxy-3-iodo-5-methoxybenzaldehyde",
    "cn_name": null,
    "alternate_name": "Benzaldehyde, 4-hydroxy-3-iodo-5-methoxy-;Vanillin, 5-iodo-;4-Hydroxy-3-iodo-5-methoxybenzaldehyde;5-Iodovanillin;4-Hydroxy-5-iodo-3-methoxybenzaldehyde;5-Iodo-3-methoxy-4-hydroxybenzaldehyde;3-Iodo-5-methoxy-4-hydroxybenzaldehyde;NSC 16678;3-Iodo-4-hydroxy-5-methoxybenzaldehyde",
    "duplicated_cas_no": "",
    "SMILES": "O(C)C1=C(O)C(I)=CC(C=O)=C1",
    "meta_data": {
        "InChI": "InChI=1S/C8H7IO3/c1-12-7-3-5(4-10)2-6(9)8(7)11/h2-4,11H,1H3",
        "InChIKey": null,
        "Canonical SMILES": "O=CC1=CC(I)=C(O)C(OC)=C1",
        "Molecular Formula": "C<sub>8</sub>H<sub>7</sub>IO<sub>3</sub>",
        "Molecular Mass": "278.04",
        "Melting Point": "180 °C"
    }
}