{
    "cas_no": "1597-82-6",
    "key_name": "Paramethasone acetate",
    "cn_name": "帕拉米松乙酸酯;帕拉米松乙酸酯;",
    "alternate_name": "Pregna-1,4-diene-3,20-dione, 21-(acetyloxy)-6-fluoro-11,17-dihydroxy-16-methyl-, (6α,11β,16α)-;Pregna-1,4-diene-3,20-dione, 6α-fluoro-11β,17,21-trihydroxy-16α-methyl-, 21-acetate;(6α,11β,16α)-21-(Acetyloxy)-6-fluoro-11,17-dihydroxy-16-methylpregna-1,4-diene-3,20-dione;6α-Fluoro-16α-methylprednisolone 21-acetate;6α-Fluoro-11β,17,21-trihydroxy-16α-methylpregna-1,4-diene-3,20-dione 21-acetate;Haldrone;16α-Methyl-6α-fluoroprednisolone 21-acetate;Monocortin;Paramethasone 21-acetate;Paramethasone acetate;21-Acetyl-6α-fluoro-16α-methylprednisolone;21-Acetoxy-6α-fluoro-11β,17-dihydroxy-16α-methylpregna-1,4-diene-3,20-dione;Alondra;Cortidene;Stemex;Dilar;Dillar;Flumethone;Haldrate;Syntecort;Paramezone;Metilar",
    "duplicated_cas_no": "25466-29-9",
    "SMILES": "C[C@@]12[C@]([C@]3([C@]([C@@H](O)C1)([C@]4(C)C([C@@H](F)C3)=CC(=O)C=C4)[H])[H])(C[C@@H](C)[C@@]2(C(COC(C)=O)=O)O)[H]",
    "meta_data": {
        "InChI": "InChI=1S/C24H31FO6/c1-12-7-16-15-9-18(25)17-8-14(27)5-6-22(17,3)21(15)19(28)10-23(16,4)24(12,30)20(29)11-31-13(2)26/h5-6,8,12,15-16,18-19,21,28,30H,7,9-11H2,1-4H3/t12-,15+,16+,18+,19+,21-,22+,23+,24+/m1/s1",
        "InChIKey": null,
        "Canonical SMILES": "O=C1C=CC2(C(=C1)C(F)CC3C4CC(C)C(O)(C(=O)COC(=O)C)C4(C)CC(O)C32)C",
        "Molecular Formula": "C<sub>24</sub>H<sub>31</sub>FO<sub>6</sub>",
        "Molecular Mass": "434.50",
        "Melting Point": "228-241 °C (decomp)"
    }
}