{
    "cas_no": "3158-56-3",
    "key_name": "5-Pentadecylresorcinol",
    "cn_name": null,
    "alternate_name": "1,3-Benzenediol, 5-pentadecyl-;Resorcinol, 5-pentadecyl-;5-Pentadecyl-1,3-benzenediol;5-Pentadecylresorcinol;5-(<em>n</em>-Pentadecyl)resorcinol;Adipostatin A;3-<em>n</em>-Pentadecyl-5-hydroxyphenol;NSC 776;Hydrogenated cardol;T 80585",
    "duplicated_cas_no": "",
    "SMILES": "C(CCCCCCCCCCCCCC)C1=CC(O)=CC(O)=C1",
    "meta_data": {
        "InChI": "InChI=1S/C21H36O2/c1-2-3-4-5-6-7-8-9-10-11-12-13-14-15-19-16-20(22)18-21(23)17-19/h16-18,22-23H,2-15H2,1H3",
        "InChIKey": null,
        "Canonical SMILES": "OC=1C=C(O)C=C(C1)CCCCCCCCCCCCCCC",
        "Molecular Formula": "C<sub>21</sub>H<sub>36</sub>O<sub>2</sub>",
        "Molecular Mass": "320.51",
        "Melting Point": "89-90 °C"
    }
}