{
    "cas_no": "355-43-1",
    "key_name": "Perfluorohexyl iodide",
    "cn_name": "全氟己基碘烷;",
    "alternate_name": "Hexane, 1,1,1,2,2,3,3,4,4,5,5,6,6-tridecafluoro-6-iodo-;Hexane, tridecafluoro-1-iodo-;1,1,1,2,2,3,3,4,4,5,5,6,6-Tridecafluoro-6-iodohexane;Tridecafluoro-1-iodohexane;Perfluorohexyl iodide;1-Iodoperfluorohexane;Perfluoro-1-iodohexane;Tridecafluoro-6-iodohexane;Tridecafluorohexyl iodide;1-Iodotridecafluorohexane;<em>n</em>-Perfluorohexyl iodide;1-Iodo-1,1,2,2,3,3,4,4,5,5,6,6,6-tridecafluorohexane;1,1,2,2,3,3,4,4,5,5,6,6,6-Tridecafluoro-1-iodohexane;6-Iodoperfluorohexane;1-Iodofluorohexane;1,1,2,2,3,3,4,4,5,5,6,6,6-Tridecafluorohexyl iodide",
    "duplicated_cas_no": "",
    "SMILES": "C(C(C(C(F)(F)I)(F)F)(F)F)(C(C(F)(F)F)(F)F)(F)F",
    "meta_data": {
        "InChI": "InChI=1S/C6F13I/c7-1(8,3(11,12)5(15,16)17)2(9,10)4(13,14)6(18,19)20",
        "InChIKey": null,
        "Canonical SMILES": "FC(F)(F)C(F)(F)C(F)(F)C(F)(F)C(F)(F)C(F)(F)I",
        "Molecular Formula": "C<sub>6</sub>F<sub>13</sub>I",
        "Molecular Mass": "445.95",
        "Boiling Point": "118 °C",
        "Melting Point": "-46 °C"
    }
}