{
    "cas_no": "35966-84-8",
    "key_name": "5-Chloro-<em>N</em>-methyl-2-nitrobenzenamine",
    "cn_name": "5-氯-N-甲基-2-硝基苯胺;",
    "alternate_name": "Benzenamine, 5-chloro-<em>N</em>-methyl-2-nitro-;Aniline, 5-chloro-<em>N</em>-methyl-2-nitro-;5-Chloro-<em>N</em>-methyl-2-nitrobenzenamine;<em>N</em>-Methyl-5-chloro-2-nitroaniline;5-Chloro-<em>N</em>-methyl-2-nitroaniline;4-Chloro-2-(methylamino)nitrobenzene;NSC 86687",
    "duplicated_cas_no": "",
    "SMILES": "N(C)C1=C(N(=O)=O)C=CC(Cl)=C1",
    "meta_data": {
        "InChI": "InChI=1S/C7H7ClN2O2/c1-9-6-4-5(8)2-3-7(6)10(11)12/h2-4,9H,1H3",
        "InChIKey": null,
        "Canonical SMILES": "O=N(=O)C1=CC=C(Cl)C=C1NC",
        "Molecular Formula": "C<sub>7</sub>H<sub>7</sub>ClN<sub>2</sub>O<sub>2</sub>",
        "Molecular Mass": "186.60",
        "Melting Point": "100-102 °C"
    }
}