{
    "cas_no": "10351-06-1",
    "key_name": "2,3,5,6-Tetrachloro-4-pyridinethiol",
    "cn_name": "2,3,5,6-四氯-4-吡啶硫醇;",
    "alternate_name": "4-Pyridinethiol, 2,3,5,6-tetrachloro-;2,3,5,6-Tetrachloro-4-pyridinethiol;2,3,5,6-Tetrachloro-4-mercaptopyridine;2,3,5,6-Tetrachloro-4-pyridyl mercaptan;Tetrachloropyridine-4-thiol;2,3,5,6-Tetrachloro-1<em>H</em>-pyridine-4-thione",
    "duplicated_cas_no": "",
    "SMILES": "ClC=1C(S)=C(Cl)C(Cl)=NC1Cl",
    "meta_data": {
        "InChI": "InChI=1S/C5HCl4NS/c6-1-3(11)2(7)5(9)10-4(1)8/h(H,10,11)",
        "InChIKey": null,
        "Canonical SMILES": "ClC=1N=C(Cl)C(Cl)=C(S)C1Cl",
        "Molecular Formula": "C<sub>5</sub>HCl<sub>4</sub>NS",
        "Molecular Mass": "248.95",
        "Melting Point": "164-165 °C"
    }
}