{
    "cas_no": "485-35-8",
    "key_name": "Cytisine",
    "cn_name": "金雀花碱;",
    "alternate_name": "1,5-Methano-8<em>H</em>-pyrido[1,2-<em>a</em>][1,5]diazocin-8-one, 1,2,3,4,5,6-hexahydro-, (1<em>R</em>,5<em>S</em>)-;Cytisine;1,5-Methano-8<em>H</em>-pyrido[1,2-<em>a</em>][1,5]diazocin-8-one, 1,2,3,4,5,6-hexahydro-, (1<em>R</em>)-;(1<em>R</em>,5<em>S</em>)-1,2,3,4,5,6-Hexahydro-1,5-methano-8<em>H</em>-pyrido[1,2-<em>a</em>][1,5]diazocin-8-one;Baptitoxin;Baptitoxine;Cytiton;Cytitone;Sophorine;Ulexine;Tabex;Ulexin;Laburnin;Sophorin;(-)-Cytisine;Cytisin;Tsitafat;Cytisinicline",
    "duplicated_cas_no": "3728-36-7;1267572-93-9;1932311-41-5;1933793-08-8;2308481-87-8;2566622-22-6;2816810-04-3;2991483-22-6",
    "SMILES": "O=C1N2C([C@@]3(C[C@](C2)(CNC3)[H])[H])=CC=C1",
    "meta_data": {
        "InChI": "InChI=1S/C11H14N2O/c14-11-3-1-2-10-9-4-8(5-12-6-9)7-13(10)11/h1-3,8-9,12H,4-7H2/t8-,9+/m0/s1",
        "InChIKey": null,
        "Canonical SMILES": "O=C1C=CC=C2N1CC3CNCC2C3",
        "Molecular Formula": "C<sub>11</sub>H<sub>14</sub>N<sub>2</sub>O",
        "Molecular Mass": "190.24",
        "Boiling Point": "218 °C @ Press: 2 Torr",
        "Melting Point": "152-153 °C"
    }
}