{
    "cas_no": "130-24-5",
    "key_name": "4-Amino-2-methyl-1-naphthol hydrochloride",
    "cn_name": "维生素K5;维生素K5;",
    "alternate_name": "1-Naphthalenol, 4-amino-2-methyl-, hydrochloride (1:1);1-Naphthol, 4-amino-2-methyl-, hydrochloride;1-Naphthalenol, 4-amino-2-methyl-, hydrochloride;4-Amino-2-methylnaphthol hydrochloride;Synkamin hydrochloride;2-Methyl-4-amino-1-naphthol hydrochloride;4-Amino-2-methyl-1-naphthol hydrochloride;Kayvisyn",
    "duplicated_cas_no": "",
    "SMILES": "OC=1C2=C(C(N)=CC1C)C=CC=C2.Cl",
    "meta_data": {
        "InChI": "InChI=1S/C11H11NO.ClH/c1-7-6-10(12)8-4-2-3-5-9(8)11(7)13;/h2-6,13H,12H2,1H3;1H",
        "InChIKey": null,
        "Canonical SMILES": "Cl.OC=1C=2C=CC=CC2C(N)=CC1C",
        "Molecular Formula": "C<sub>11</sub>H<sub>11</sub>NO.ClH",
        "Molecular Mass": "",
        "Melting Point": "280 °C (decomp)"
    }
}