{
    "cas_no": "5805-39-0",
    "key_name": "2-(2-Aminophenyl)benzimidazole",
    "cn_name": "2-(2-氨基苯基)苯并咪唑;",
    "alternate_name": "Benzenamine, 2-(1<em>H</em>-benzimidazol-2-yl)-;Benzimidazole, 2-(<em>o</em>-aminophenyl)-;2-(1<em>H</em>-Benzimidazol-2-yl)benzenamine;2-(<em>o</em>-Aminophenyl)benzimidazole;2-(2-Aminophenyl)benzimidazole;G 620;G 620 (amine);2-(2-Aminophenyl)-1<em>H</em>-benzimidazole;2-[Benzimidazol-2-yl]benzenamine;2-(1<em>H</em>-Benzimidazol-2-yl)aniline;2-(1<em>H</em>-1,3-Benzodiazol-2-yl)aniline;2-(1<em>H</em>-Benzoimidazol-2-yl)-phenylamine",
    "duplicated_cas_no": "943743-98-4;2760331-15-3",
    "SMILES": "NC1=C(C=2NC=3C(N2)=CC=CC3)C=CC=C1",
    "meta_data": {
        "InChI": "InChI=1S/C13H11N3/c14-10-6-2-1-5-9(10)13-15-11-7-3-4-8-12(11)16-13/h1-8H,14H2,(H,15,16)",
        "InChIKey": null,
        "Canonical SMILES": "N=1C=2C=CC=CC2NC1C=3C=CC=CC3N",
        "Molecular Formula": "C<sub>13</sub>H<sub>11</sub>N<sub>3</sub>",
        "Molecular Mass": "209.25",
        "Melting Point": "213-214 °C"
    }
}