{
    "cas_no": "956-90-1",
    "key_name": "Phencyclidine hydrochloride",
    "cn_name": null,
    "alternate_name": "Piperidine, 1-(1-phenylcyclohexyl)-, hydrochloride (1:1);Piperidine, 1-(1-phenylcyclohexyl)-, hydrochloride;GP 121;CI 395;Elysion;Phencyclidine hydrochloride;Phenylcyclidine hydrochloride;1-(1-Phenylcyclohexyl)piperidine hydrochloride;Sernyl hydrochloride;Sernyl;Sernylan;NIH 9580;MCV 4158;Phencyclidine monohydrochloride;PCP hydrochloride;NSC 40902",
    "duplicated_cas_no": "",
    "SMILES": "C1(CCCCC1)(C2=CC=CC=C2)N3CCCCC3.Cl",
    "meta_data": {
        "InChI": "InChI=1S/C17H25N.ClH/c1-4-10-16(11-5-1)17(12-6-2-7-13-17)18-14-8-3-9-15-18;/h1,4-5,10-11H,2-3,6-9,12-15H2;1H",
        "InChIKey": null,
        "Canonical SMILES": "Cl.C=1C=CC(=CC1)C2(N3CCCCC3)CCCCC2",
        "Molecular Formula": "C<sub>17</sub>H<sub>25</sub>N.ClH",
        "Molecular Mass": "",
        "Melting Point": "233-235 °C"
    }
}