{
    "cas_no": "3386-33-2",
    "key_name": "1-Chlorooctadecane",
    "cn_name": "氯代十八烷;",
    "alternate_name": "Octadecane, 1-chloro-;1-Chlorooctadecane;Octadecyl chloride;<em>n</em>-Octadecyl chloride;NSC 5543;1-Octadecyl chloride;C 18Cl",
    "duplicated_cas_no": "",
    "SMILES": "C(CCCCCCCCC)CCCCCCCCCl",
    "meta_data": {
        "InChI": "InChI=1S/C18H37Cl/c1-2-3-4-5-6-7-8-9-10-11-12-13-14-15-16-17-18-19/h2-18H2,1H3",
        "InChIKey": null,
        "Canonical SMILES": "ClCCCCCCCCCCCCCCCCCC",
        "Molecular Formula": "C<sub>18</sub>H<sub>37</sub>Cl",
        "Molecular Mass": "288.94",
        "Boiling Point": "348 °C",
        "Melting Point": "28.6 °C",
        "Density": "0.8289 g/cm³ @ Temp: 20 °C"
    }
}