{
    "cas_no": "272-49-1",
    "key_name": "1<em>H</em>-Pyrrolo[3,2-<em>b</em>]pyridine",
    "cn_name": "4-氮杂吲哚;",
    "alternate_name": "1<em>H</em>-Pyrrolo[3,2-<em>b</em>]pyridine;1,4-Diazaindene;4-Azaindole",
    "duplicated_cas_no": "",
    "SMILES": "C1=2C(NC=C1)=CC=CN2",
    "meta_data": {
        "InChI": "InChI=1S/C7H6N2/c1-2-6-7(8-4-1)3-5-9-6/h1-5,9H",
        "InChIKey": null,
        "Canonical SMILES": "N1=CC=CC=2NC=CC12",
        "Molecular Formula": "C<sub>7</sub>H<sub>6</sub>N<sub>2</sub>",
        "Molecular Mass": "118.14",
        "Melting Point": "127-128 °C"
    }
}