{
    "cas_no": "102268-15-5",
    "key_name": "5-Ethyl-2,3-pyridinedicarboxylic acid",
    "cn_name": null,
    "alternate_name": "2,3-Pyridinedicarboxylic acid, 5-ethyl-;5-Ethyl-2,3-pyridinedicarboxylic acid;5-Ethylquinolinic acid",
    "duplicated_cas_no": "",
    "SMILES": "C(O)(=O)C1=C(C(O)=O)N=CC(CC)=C1",
    "meta_data": {
        "InChI": "InChI=1S/C9H9NO4/c1-2-5-3-6(8(11)12)7(9(13)14)10-4-5/h3-4H,2H2,1H3,(H,11,12)(H,13,14)",
        "InChIKey": null,
        "Canonical SMILES": "O=C(O)C1=NC=C(C=C1C(=O)O)CC",
        "Molecular Formula": "C<sub>9</sub>H<sub>9</sub>NO<sub>4</sub>",
        "Molecular Mass": "195.17",
        "Melting Point": "148-151 °C"
    }
}