{
    "cas_no": "20324-33-8",
    "key_name": "1-[2-(2-Methoxy-1-methylethoxy)-1-methylethoxy]-2-propanol",
    "cn_name": null,
    "alternate_name": "2-Propanol, 1-[2-(2-methoxy-1-methylethoxy)-1-methylethoxy]-;1-[2-(2-Methoxy-1-methylethoxy)-1-methylethoxy]-2-propanol;Dowanol 62B;2-[2-(2-Methoxy-1-methylethoxy)-1-methylethoxy]-1-methylethanol;1-[1-(1-Methoxypropan-2-yloxy)propan-2-yloxy]propan-2-ol;1-((1-((1-Methoxypropan-2-yl)oxy)propan-2-yl)oxy)propan-2-ol;Celtol TPM",
    "duplicated_cas_no": "109201-64-1;1335-22-4",
    "SMILES": "C(COC(COC)C)(OCC(C)O)C",
    "meta_data": {
        "InChI": "InChI=1S/C10H22O4/c1-8(11)5-13-10(3)7-14-9(2)6-12-4/h8-11H,5-7H2,1-4H3",
        "InChIKey": null,
        "Canonical SMILES": "OC(C)COC(C)COC(C)COC",
        "Molecular Formula": "C<sub>10</sub>H<sub>22</sub>O<sub>4</sub>",
        "Molecular Mass": "206.28",
        "Boiling Point": "250 °C",
        "Melting Point": "&lt;25 °C",
        "Density": "1.0192 g/cm³ @ Temp: 20 °C"
    }
}