{
    "cas_no": "3930-83-4",
    "key_name": "2-Iodobenzamide",
    "cn_name": null,
    "alternate_name": "Benzamide, 2-iodo-;Benzamide, <em>o</em>-iodo-;2-Iodobenzamide;<em>o</em>-Iodobenzamide;NSC 136970",
    "duplicated_cas_no": "",
    "SMILES": "C(N)(=O)C1=C(I)C=CC=C1",
    "meta_data": {
        "InChI": "InChI=1S/C7H6INO/c8-6-4-2-1-3-5(6)7(9)10/h1-4H,(H2,9,10)",
        "InChIKey": null,
        "Canonical SMILES": "O=C(N)C=1C=CC=CC1I",
        "Molecular Formula": "C<sub>7</sub>H<sub>6</sub>INO",
        "Molecular Mass": "247.03",
        "Melting Point": "186-187 °C"
    }
}