{
    "cas_no": "72420-38-3",
    "key_name": "Acifran",
    "cn_name": null,
    "alternate_name": "2-Furancarboxylic acid, 4,5-dihydro-5-methyl-4-oxo-5-phenyl-;4,5-Dihydro-5-methyl-4-oxo-5-phenyl-2-furancarboxylic acid;AY 25712;Acifran;(±)-Acifran;Reductol",
    "duplicated_cas_no": "82720-24-9",
    "SMILES": "CC1(OC(C(O)=O)=CC1=O)C2=CC=CC=C2",
    "meta_data": {
        "InChI": "InChI=1S/C12H10O4/c1-12(8-5-3-2-4-6-8)10(13)7-9(16-12)11(14)15/h2-7H,1H3,(H,14,15)",
        "InChIKey": null,
        "Canonical SMILES": "O=C(O)C=1OC(C(=O)C1)(C=2C=CC=CC2)C",
        "Molecular Formula": "C<sub>12</sub>H<sub>10</sub>O<sub>4</sub>",
        "Molecular Mass": "218.21",
        "Melting Point": "176 °C"
    }
}