{
    "cas_no": "26952-21-6",
    "key_name": "Isooctanol",
    "cn_name": null,
    "alternate_name": "Isooctanol;Isooctyl alcohol;Exxal 8",
    "duplicated_cas_no": "1341-41-9;8031-46-7",
    "SMILES": "",
    "meta_data": {
        "InChI": "",
        "InChIKey": null,
        "Canonical SMILES": "",
        "Molecular Formula": "C<sub>8</sub>H<sub>18</sub>O",
        "Molecular Mass": "",
        "Boiling Point": "186 °C @ Press: 800 Torr",
        "Melting Point": "&lt;100 °C",
        "Density": "0.832 g/cm³ @ Temp: 20 °C"
    }
}