{
    "cas_no": "33676-00-5",
    "key_name": "Hypophyllanthin",
    "cn_name": null,
    "alternate_name": "Naphtho[1,2-<em>d</em>]-1,3-dioxole, 9-(3,4-dimethoxyphenyl)-6,7,8,9-tetrahydro-4-methoxy-7,8-bis(methoxymethyl)-, (7<em>S</em>,8<em>S</em>,9<em>R</em>)-;Hypophyllanthin;Naphthalene, 1α-(3,4-dimethoxyphenyl)-1,2,3,4-tetrahydro-6-methoxy-2β,3α-bis(methoxymethyl)-7,8-(methylenedioxy)-;Naphtho[1,2-<em>d</em>]-1,3-dioxole, 9-(3,4-dimethoxyphenyl)-6,7,8,9-tetrahydro-4-methoxy-7,8-bis(methoxymethyl)-, (7α,8β,9α)-;Naphtho[1,2-<em>d</em>]-1,3-dioxole, 9-(3,4-dimethoxyphenyl)-6,7,8,9-tetrahydro-4-methoxy-7,8-bis(methoxymethyl)-, (7<em>R</em>,8<em>R</em>,9<em>S</em>)-<em>rel</em>-;(7<em>S</em>,8<em>S</em>,9<em>R</em>)-9-(3,4-Dimethoxyphenyl)-6,7,8,9-tetrahydro-4-methoxy-7,8-bis(methoxymethyl)naphtho[1,2-<em>d</em>]-1,3-dioxole;NSC 619044",
    "duplicated_cas_no": "",
    "SMILES": "C(OC)[C@H]1[C@@H](C=2C3=C(C(OC)=CC2C[C@@H]1COC)OCO3)C4=CC(OC)=C(OC)C=C4",
    "meta_data": {
        "InChI": "InChI=1S/C24H30O7/c1-25-11-16-8-15-10-20(29-5)23-24(31-13-30-23)22(15)21(17(16)12-26-2)14-6-7-18(27-3)19(9-14)28-4/h6-7,9-10,16-17,21H,8,11-13H2,1-5H3/t16-,17-,21+/m1/s1",
        "InChIKey": null,
        "Canonical SMILES": "O(C1=CC=C(C=C1OC)C2C3=C4OCOC4=C(OC)C=C3CC(COC)C2COC)C",
        "Molecular Formula": "C<sub>24</sub>H<sub>30</sub>O<sub>7</sub>",
        "Molecular Mass": "430.49",
        "Melting Point": "129-130 °C"
    }
}