{
    "cas_no": "10272-06-7",
    "key_name": "3-Chloro-5-methoxybenzenamine",
    "cn_name": null,
    "alternate_name": "Benzenamine, 3-chloro-5-methoxy-;<em>m</em>-Anisidine, 5-chloro-;3-Chloro-5-methoxybenzenamine;3-Chloro-5-methoxyaniline",
    "duplicated_cas_no": "",
    "SMILES": "O(C)C1=CC(Cl)=CC(N)=C1",
    "meta_data": {
        "InChI": "InChI=1S/C7H8ClNO/c1-10-7-3-5(8)2-6(9)4-7/h2-4H,9H2,1H3",
        "InChIKey": null,
        "Canonical SMILES": "ClC=1C=C(OC)C=C(N)C1",
        "Molecular Formula": "C<sub>7</sub>H<sub>8</sub>ClNO",
        "Molecular Mass": "157.60",
        "Melting Point": "33 °C"
    }
}