{
    "cas_no": "6362-80-7",
    "key_name": "2,4-Diphenyl-4-methyl-1-pentene",
    "cn_name": "2,4-二苯基-4-甲基-1-戊烯;4,4-二甲基-2,4-二苯基-1-丁烯;甲基苯乙烯二聚物;",
    "alternate_name": "Benzene, 1,1′-(1,1-dimethyl-3-methylene-1,3-propanediyl)bis-;1-Pentene, 4-methyl-2,4-diphenyl-;1,1′-(1,1-Dimethyl-3-methylene-1,3-propanediyl)bis[benzene];4-Methyl-2,4-diphenyl-1-pentene;2,4-Diphenyl-4-methyl-1-pentene;α-(2-Methyl-2-phenylpropyl)styrene;Nofmer MSD;4,4-Dimethyl-2,4-diphenyl-1-butene;DK 81;DK 80;DK 86;(2-Methyl-4-phenylpent-4-en-2-yl)benzene;α-MSD",
    "duplicated_cas_no": "",
    "SMILES": "C(CC(=C)C1=CC=CC=C1)(C)(C)C2=CC=CC=C2",
    "meta_data": {
        "InChI": "InChI=1S/C18H20/c1-15(16-10-6-4-7-11-16)14-18(2,3)17-12-8-5-9-13-17/h4-13H,1,14H2,2-3H3",
        "InChIKey": null,
        "Canonical SMILES": "C=C(C=1C=CC=CC1)CC(C=2C=CC=CC2)(C)C",
        "Molecular Formula": "C<sub>18</sub>H<sub>20</sub>",
        "Molecular Mass": "236.35",
        "Boiling Point": "75-82 °C @ Press: 1 x 10<sup>-4</sup> Torr",
        "Density": "0.9752 g/cm³ @ Temp: 20 °C"
    }
}