{
    "cas_no": "15480-00-9",
    "key_name": "2-(2-Chlorophenoxy)ethanol",
    "cn_name": "2-(2-氯苯氧基)乙醇;",
    "alternate_name": "Ethanol, 2-(2-chlorophenoxy)-;Ethanol, 2-(<em>o</em>-chlorophenoxy)-;2-(2-Chlorophenoxy)ethanol;2-(<em>o</em>-Chlorophenoxy)ethanol;2-Chlorophenoxyethanol;β-(<em>o</em>-Chlorophenoxy)ethanol;2-(2-Chlorophenoxy)ethan-1-ol",
    "duplicated_cas_no": "",
    "SMILES": "O(CCO)C1=C(Cl)C=CC=C1",
    "meta_data": {
        "InChI": "InChI=1S/C8H9ClO2/c9-7-3-1-2-4-8(7)11-6-5-10/h1-4,10H,5-6H2",
        "InChIKey": null,
        "Canonical SMILES": "ClC=1C=CC=CC1OCCO",
        "Molecular Formula": "C<sub>8</sub>H<sub>9</sub>ClO<sub>2</sub>",
        "Molecular Mass": "172.61",
        "Boiling Point": "159-161 °C @ Press: 22 Torr",
        "Melting Point": "107-108 °C"
    }
}