{
    "cas_no": "818-38-2",
    "key_name": "Diethyl glutarate",
    "cn_name": "戊二酸二乙酯;",
    "alternate_name": "Pentanedioic acid, 1,5-diethyl ester;Glutaric acid, diethyl ester;Pentanedioic acid, diethyl ester;Diethyl glutarate;Ethyl glutarate;Diethyl pentanedioate;NSC 8890",
    "duplicated_cas_no": "",
    "SMILES": "C(CCCC(OCC)=O)(OCC)=O",
    "meta_data": {
        "InChI": "InChI=1S/C9H16O4/c1-3-12-8(10)6-5-7-9(11)13-4-2/h3-7H2,1-2H3",
        "InChIKey": null,
        "Canonical SMILES": "O=C(OCC)CCCC(=O)OCC",
        "Molecular Formula": "C<sub>9</sub>H<sub>16</sub>O<sub>4</sub>",
        "Molecular Mass": "188.22",
        "Boiling Point": "236.5 °C",
        "Melting Point": "-24.1 °C",
        "Density": "1.02704 g/cm³ @ Temp: 15 °C"
    }
}