{
    "cas_no": "4783-86-2",
    "key_name": "4-Phenoxypyridine",
    "cn_name": "4-苯氧基吡啶;",
    "alternate_name": "Pyridine, 4-phenoxy-;4-Phenoxypyridine;NSC 68195",
    "duplicated_cas_no": "",
    "SMILES": "O(C1=CC=CC=C1)C=2C=CN=CC2",
    "meta_data": {
        "InChI": "InChI=1S/C11H9NO/c1-2-4-10(5-3-1)13-11-6-8-12-9-7-11/h1-9H",
        "InChIKey": null,
        "Canonical SMILES": "N=1C=CC(OC=2C=CC=CC2)=CC1",
        "Molecular Formula": "C<sub>11</sub>H<sub>9</sub>NO",
        "Molecular Mass": "171.20",
        "Boiling Point": "141-142 °C @ Press: 14 Torr",
        "Melting Point": "45.5-46.5 °C"
    }
}