{
    "cas_no": "1967-16-4",
    "key_name": "Chlorbufam",
    "cn_name": null,
    "alternate_name": "Carbamic acid, <em>N</em>-(3-chlorophenyl)-, 1-methyl-2-propyn-1-yl ester;Carbanilic acid, <em>m</em>-chloro-, 1-methyl-2-propynyl ester;Carbamic acid, (3-chlorophenyl)-, 1-methyl-2-propynyl ester;1-Butyn-3-yl <em>m</em>-chlorophenylcarbamate;3-Chlorophenylcarbamic acid 1-methylpropynyl ester;BIPC;Chlorbufam;Chlorobufam;Grisemin;3-Butyn-2-yl <em>m</em>-chlorocarbanilate;Chlorbupham;1-Methyl-2-propynyl <em>N</em>-(3-chlorophenyl)carbamate",
    "duplicated_cas_no": "",
    "SMILES": "N(C(OC(C#C)C)=O)C1=CC(Cl)=CC=C1",
    "meta_data": {
        "InChI": "InChI=1S/C11H10ClNO2/c1-3-8(2)15-11(14)13-10-6-4-5-9(12)7-10/h1,4-8H,2H3,(H,13,14)",
        "InChIKey": null,
        "Canonical SMILES": "O=C(OC(C#C)C)NC=1C=CC=C(Cl)C1",
        "Molecular Formula": "C<sub>11</sub>H<sub>10</sub>ClNO<sub>2</sub>",
        "Molecular Mass": "223.66",
        "Melting Point": "45-46 °C",
        "Density": "1.22 g/cm³"
    }
}