{
    "cas_no": "480-41-1",
    "key_name": "Naringenin",
    "cn_name": "柚皮素;4\",5,7-三羟基黄酮;",
    "alternate_name": "4<em>H</em>-1-Benzopyran-4-one, 2,3-dihydro-5,7-dihydroxy-2-(4-hydroxyphenyl)-, (2<em>S</em>)-;Naringenin;Flavanone, 4′,5,7-trihydroxy-;4<em>H</em>-1-Benzopyran-4-one, 2,3-dihydro-5,7-dihydroxy-2-(4-hydroxyphenyl)-, (<em>S</em>)-;(2<em>S</em>)-2,3-Dihydro-5,7-dihydroxy-2-(4-hydroxyphenyl)-4<em>H</em>-1-benzopyran-4-one;Naringetol;Salipurol;Salipurpol;Naringenine;(-)-Naringenin;(<em>S</em>)-Naringenin;(2<em>S</em>)-Naringenin;(-)-(2<em>S</em>)-Naringenin;NSC 11855;NSC 34875;(2<em>S</em>)-4′,5,7-Trihydroxy-flavanone;TCI-N 0072;(2S)-5,7-Dihydroxy-2-(4-hydroxyphenyl)-3,4-dihydro-2<em>H</em>-1-benzopyran-4-one;(<em>S</em>)-5,7-Dihydroxy-2-(4-hydroxyphenyl)chroman-4-one;(2S)-5,7-Dihydroxy-2-(4-hydroxyphenyl)-2,3-dihydrochromen-4-one",
    "duplicated_cas_no": "13308-00-4;15912-71-7",
    "SMILES": "O=C1C=2C(O[C@@H](C1)C3=CC=C(O)C=C3)=CC(O)=CC2O",
    "meta_data": {
        "InChI": "InChI=1S/C15H12O5/c16-9-3-1-8(2-4-9)13-7-12(19)15-11(18)5-10(17)6-14(15)20-13/h1-6,13,16-18H,7H2/t13-/m0/s1",
        "InChIKey": null,
        "Canonical SMILES": "O=C1C=2C(O)=CC(O)=CC2OC(C3=CC=C(O)C=C3)C1",
        "Molecular Formula": "C<sub>15</sub>H<sub>12</sub>O<sub>5</sub>",
        "Molecular Mass": "272.25",
        "Melting Point": "251 °C"
    }
}