{
    "cas_no": "865-21-4",
    "key_name": "Vinblastine",
    "cn_name": "长春质碱;长春花碱;长春碱;",
    "alternate_name": "Vincaleukoblastine;Vinblastine;1<em>H</em>-Indolizino[8,1-<em>cd</em>]carbazole, vincaleukoblastine deriv.;2<em>H</em>-3,7-Methanoazacycloundecino[5,4-<em>b</em>]indole, vincaleukoblastine deriv.;Vinblastin;VLB;Vincaleucoblastine;Vincaleucoblastin;1<em>H</em>-Indolizino[8,1-<em>cd</em>]carbazole-5-carboxylic acid, 4-(acetyloxy)-3a-ethyl-9-[5-ethyl-1,4,5,6,7,8,9,10-octahydro-5-hydroxy-9-(methoxycarbonyl)-2<em>H</em>-3,7-methanoazacycloundecino[5,4-<em>b</em>]indol-9-yl]-3a,4,5,5a,6,11,12,13a-octahydro-5-hydroxy-8-methoxy-6-methyl-, methyl ester, [3a<em>R</em>-[3aα,4β,5β,5aβ,9(3<em>R</em>*,5<em>S</em>*,7<em>R</em>*,9<em>S</em>*),10b<em>R</em>*,13aα]]-;[3a<em>R</em>-[3aα,4β,5β,5aβ,9(3<em>R</em>*,5<em>S</em>*,7<em>R</em>*,9<em>S</em>*),10b<em>R</em>*,13aα]]-Methyl 4-(acetyloxy)-3a-ethyl-9-[5-ethyl-1,4,5,6,7,8,9,10-octahydro-5-hydroxy-9-(methoxycarbonyl)-2<em>H</em>-3,7-methanoazacycloundecino[5,4-<em>b</em>]indol-9-yl]-3a,4,5,5a,6,11,12,13a-octahydro-5-hydroxy-8-methoxy-6-methyl-1<em>H</em>-indolizino[8,1-<em>cd</em>]carbazole-5-carboxylate;Rozevin;(+)-Vinblastine;Valban;Dimethyl(2β,3β,4β,5α,12β,19α)-15-[(5S,9S)-5-ethyl-5-hydroxy-9-(methoxycarbonyl)-1,4,5,6,7,8,9,10-octahydro-2<em>H</em>-3,7-methanoazacycloundecino[5,4-<em>b</em>]indol-9-yl]-3-hydroxy-16-methoxy-1-methyl-6,7-didehydroaspidospermidine-3,4-dicarboxylate;MeSH ID: D014747",
    "duplicated_cas_no": "57-23-8;7060-58-4;906333-70-8;1151994-97-6;2103647-64-7",
    "SMILES": "C(C)[C@@]12[C@]3([C@@]4([C@]([C@](C(OC)=O)(O)[C@@H]1OC(C)=O)(N(C)C=5C4=CC(=C(OC)C5)[C@]6(C(OC)=O)C7=C(C=8C(N7)=CC=CC8)CC[N@@]9C[C@](C6)(C[C@](CC)(O)C9)[H])[H])CCN3CC=C2)[H]",
    "meta_data": {
        "InChI": "InChI=1S/C46H58N4O9/c1-8-42(54)23-28-24-45(40(52)57-6,36-30(15-19-49(25-28)26-42)29-13-10-11-14-33(29)47-36)32-21-31-34(22-35(32)56-5)48(4)38-44(31)17-20-50-18-12-16-43(9-2,37(44)50)39(59-27(3)51)46(38,55)41(53)58-7/h10-14,16,21-22,28,37-39,47,54-55H,8-9,15,17-20,23-26H2,1-7H3/t28-,37-,38+,39+,42-,43+,44+,45-,46-/m0/s1",
        "InChIKey": null,
        "Canonical SMILES": "O=C(OC1C(O)(C(=O)OC)C2N(C3=CC(OC)=C(C=C3C42CCN5CC=CC1(CC)C54)C6(C(=O)OC)C=7NC=8C=CC=CC8C7CCN9CC(CC(O)(C9)CC)C6)C)C",
        "Molecular Formula": "C<sub>46</sub>H<sub>58</sub>N<sub>4</sub>O<sub>9</sub>",
        "Molecular Mass": "810.97",
        "Melting Point": "211-216 °C"
    }
}