{
    "cas_no": "1125-27-5",
    "key_name": "(Dichloroethylsilyl)benzene",
    "cn_name": null,
    "alternate_name": "Benzene, (dichloroethylsilyl)-;Silane, dichloroethylphenyl-;(Dichloroethylsilyl)benzene;Dichloroethylphenylsilane",
    "duplicated_cas_no": "",
    "SMILES": "[Si](CC)(Cl)(Cl)C1=CC=CC=C1",
    "meta_data": {
        "InChI": "InChI=1S/C8H10Cl2Si/c1-2-11(9,10)8-6-4-3-5-7-8/h3-7H,2H2,1H3",
        "InChIKey": null,
        "Canonical SMILES": "Cl[Si](Cl)(C=1C=CC=CC1)CC",
        "Molecular Formula": "C<sub>8</sub>H<sub>10</sub>Cl<sub>2</sub>Si",
        "Molecular Mass": "205.16",
        "Boiling Point": "225-226 °C",
        "Density": "1.184 g/cm³"
    }
}