{
    "cas_no": "110-88-3",
    "key_name": "1,3,5-Trioxane",
    "cn_name": "三聚甲醛;三噁烷;三氧杂环己烷;",
    "alternate_name": "1,3,5-Trioxane;<em>s</em>-Trioxane;Trioxane;Triformol;Trioxan;<em>sym</em>-Trioxane;Trioxymethylene;Formaldehyde, trimer;NSC 26347;T 0505",
    "duplicated_cas_no": "113783-48-5",
    "SMILES": "C1OCOCO1",
    "meta_data": {
        "InChI": "InChI=1S/C3H6O3/c1-4-2-6-3-5-1/h1-3H2",
        "InChIKey": null,
        "Canonical SMILES": "O1COCOC1",
        "Molecular Formula": "C<sub>3</sub>H<sub>6</sub>O<sub>3</sub>",
        "Molecular Mass": "90.08",
        "Boiling Point": "114.5 °C @ Press: 759 Torr",
        "Melting Point": "64 °C",
        "Density": "1.17 g/cm³ @ Temp: 65 °C"
    }
}