{
    "cas_no": "25639-42-3",
    "key_name": "Methylcyclohexanol",
    "cn_name": null,
    "alternate_name": "Cyclohexanol, methyl-;Methylcyclohexanol;Hexahydrocresol;Hexahydromethylphenol;Methylhexalin",
    "duplicated_cas_no": "1331-23-3",
    "SMILES": "",
    "meta_data": {
        "InChI": "",
        "InChIKey": null,
        "Canonical SMILES": "",
        "Molecular Formula": "C<sub>7</sub>H<sub>14</sub>O",
        "Molecular Mass": "",
        "Boiling Point": "155-180 °C",
        "Melting Point": "-50 °C",
        "Density": "0.918-0.925 g/cm³ @ Temp: 20 °C"
    }
}