{
    "cas_no": "5400-94-2",
    "key_name": "Benzenemethanaminium, <em>N</em>,<em>N</em>,<em>N</em>-triethyl-, iodide (1:1)",
    "cn_name": "三乙基苄基碘化铵;",
    "alternate_name": "Benzenemethanaminium, <em>N</em>,<em>N</em>,<em>N</em>-triethyl-, iodide (1:1);Ammonium, benzyltriethyl-, iodide;Benzyltriethylammonium iodide;Benzenemethanaminium, <em>N</em>,<em>N</em>,<em>N</em>-triethyl-, iodide;Triethyl(benzyl)ammonium iodide",
    "duplicated_cas_no": "",
    "SMILES": "[N+](CC1=CC=CC=C1)(CC)(CC)CC.[I-]",
    "meta_data": {
        "InChI": "InChI=1S/C13H22N.HI/c1-4-14(5-2,6-3)12-13-10-8-7-9-11-13;/h7-11H,4-6,12H2,1-3H3;1H/q+1;/p-1",
        "InChIKey": null,
        "Canonical SMILES": "[I-].C=1C=CC(=CC1)C[N+](CC)(CC)CC",
        "Molecular Formula": "C<sub>13</sub>H<sub>22</sub>N.I",
        "Molecular Mass": "",
        "Melting Point": "168.5 °C"
    }
}