{
    "cas_no": "21608-06-0",
    "key_name": "<em>N</em>-Ethyl-<em>N</em>-phenyl-β-alanine methyl ester",
    "cn_name": "N-乙基-N-苯基-&beta;-丙氨酸甲酯;",
    "alternate_name": "β-Alanine, <em>N</em>-ethyl-<em>N</em>-phenyl-, methyl ester;<em>N</em>-Ethyl-<em>N</em>-phenyl-β-alanine methyl ester;<em>N</em>-Ethyl-<em>N</em>-β-methoxycarbonylethylaniline;<em>N</em>-β-Carbomethoxyethyl-<em>N</em>-ethylaminobenzene;<em>N</em>-Ethyl-<em>N</em>-2-(methoxycarbonyl)ethylaniline",
    "duplicated_cas_no": "",
    "SMILES": "N(CCC(OC)=O)(CC)C1=CC=CC=C1",
    "meta_data": {
        "InChI": "InChI=1S/C12H17NO2/c1-3-13(10-9-12(14)15-2)11-7-5-4-6-8-11/h4-8H,3,9-10H2,1-2H3",
        "InChIKey": null,
        "Canonical SMILES": "O=C(OC)CCN(C=1C=CC=CC1)CC",
        "Molecular Formula": "C<sub>12</sub>H<sub>17</sub>NO<sub>2</sub>",
        "Molecular Mass": "207.27",
        "Boiling Point": "122-126 °C @ Press: 3 Torr"
    }
}