{
    "cas_no": "65813-55-0",
    "key_name": "2-(4-Isobutyrylphenyl)propionic acid",
    "cn_name": null,
    "alternate_name": "Benzeneacetic acid, α-methyl-4-(2-methyl-1-oxopropyl)-;α-Methyl-4-(2-methyl-1-oxopropyl)benzeneacetic acid;2-(4-Isobutyrylphenyl)propionic acid;(2Rs)-2-(4-isobutyrylphenyl)propanoic acid;2-(4-Isobutyrylphenyl)propanoic acid;2-[4-(2-Methylpropanoyl)phenyl]propanoic acid",
    "duplicated_cas_no": "",
    "SMILES": "C(C(O)=O)(C)C1=CC=C(C(C(C)C)=O)C=C1",
    "meta_data": {
        "InChI": "InChI=1S/C13H16O3/c1-8(2)12(14)11-6-4-10(5-7-11)9(3)13(15)16/h4-9H,1-3H3,(H,15,16)",
        "InChIKey": null,
        "Canonical SMILES": "O=C(O)C(C1=CC=C(C=C1)C(=O)C(C)C)C",
        "Molecular Formula": "C<sub>13</sub>H<sub>16</sub>O<sub>3</sub>",
        "Molecular Mass": "220.26",
        "Melting Point": "82-84 °C"
    }
}