{
    "cas_no": "105-38-4",
    "key_name": "Vinyl propionate",
    "cn_name": "丙酸乙烯酯;丙酸乙烯基酯;乙烯基;丙酸乙烯酯;",
    "alternate_name": "Propanoic acid, ethenyl ester;Propionic acid, vinyl ester;Vinyl propionate;Vinyl propanoate;NSC 5275",
    "duplicated_cas_no": "170016-12-3",
    "SMILES": "C(OC=C)(CC)=O",
    "meta_data": {
        "InChI": "InChI=1S/C5H8O2/c1-3-5(6)7-4-2/h4H,2-3H2,1H3",
        "InChIKey": null,
        "Canonical SMILES": "O=C(OC=C)CC",
        "Molecular Formula": "C<sub>5</sub>H<sub>8</sub>O<sub>2</sub>",
        "Molecular Mass": "100.12",
        "Boiling Point": "91.2 °C",
        "Melting Point": "-80 °C",
        "Density": "0.9101 g/cm³ @ Temp: 20 °C"
    }
}