{
    "cas_no": "243990-54-7",
    "key_name": "<em>B</em>-[4-Methoxy-3-(phenylmethoxy)phenyl]boronic acid",
    "cn_name": null,
    "alternate_name": "Boronic acid, <em>B</em>-[4-methoxy-3-(phenylmethoxy)phenyl]-;Boronic acid, [4-methoxy-3-(phenylmethoxy)phenyl]-;<em>B</em>-[4-Methoxy-3-(phenylmethoxy)phenyl]boronic acid;3-Benzyloxy-4-methoxyphenylboronic acid",
    "duplicated_cas_no": "",
    "SMILES": "O(CC1=CC=CC=C1)C2=C(OC)C=CC(B(O)O)=C2",
    "meta_data": {
        "InChI": "InChI=1S/C14H15BO4/c1-18-13-8-7-12(15(16)17)9-14(13)19-10-11-5-3-2-4-6-11/h2-9,16-17H,10H2,1H3",
        "InChIKey": null,
        "Canonical SMILES": "OB(O)C1=CC=C(OC)C(OCC=2C=CC=CC2)=C1",
        "Molecular Formula": "C<sub>14</sub>H<sub>15</sub>BO<sub>4</sub>",
        "Molecular Mass": "258.08",
        "Melting Point": "135-155 °C"
    }
}