{
    "cas_no": "16484-86-9",
    "key_name": "1,2-Diethoxyethene",
    "cn_name": "乙二醇二乙醚;",
    "alternate_name": "Ethene, 1,2-diethoxy-;Ethylene, 1,2-diethoxy-;1,2-Diethoxyethene;1,2-Diethoxyethylene",
    "duplicated_cas_no": "",
    "SMILES": "C(=COCC)OCC",
    "meta_data": {
        "InChI": "InChI=1S/C6H12O2/c1-3-7-5-6-8-4-2/h5-6H,3-4H2,1-2H3",
        "InChIKey": null,
        "Canonical SMILES": "O(C=COCC)CC",
        "Molecular Formula": "C<sub>6</sub>H<sub>12</sub>O<sub>2</sub>",
        "Molecular Mass": "116.16",
        "Boiling Point": "133-134 °C @ Press: 737 Torr",
        "Density": "0.8838 g/cm³ @ Temp: 25 °C"
    }
}