{
    "cas_no": "89694-47-3",
    "key_name": "<em>B</em>-(4-Chloro-3-methoxyphenyl)boronic acid",
    "cn_name": null,
    "alternate_name": "Boronic acid, <em>B</em>-(4-chloro-3-methoxyphenyl)-;Benzeneboronic acid, 4-chloro-3-methoxy-;Boronic acid, (4-chloro-3-methoxyphenyl)-;<em>B</em>-(4-Chloro-3-methoxyphenyl)boronic acid;4-Chloro-3-methoxyphenylboronic acid",
    "duplicated_cas_no": "",
    "SMILES": "O(C)C1=CC(B(O)O)=CC=C1Cl",
    "meta_data": {
        "InChI": "InChI=1S/C7H8BClO3/c1-12-7-4-5(8(10)11)2-3-6(7)9/h2-4,10-11H,1H3",
        "InChIKey": null,
        "Canonical SMILES": "ClC1=CC=C(C=C1OC)B(O)O",
        "Molecular Formula": "C<sub>7</sub>H<sub>8</sub>BClO<sub>3</sub>",
        "Molecular Mass": "186.40",
        "Melting Point": "146-151 °C"
    }
}