{
    "cas_no": "6628-77-9",
    "key_name": "5-Amino-2-methoxypyridine",
    "cn_name": "5-氨基-2-甲氧基吡啶;2-甲氧基-5-氨基吡啶;",
    "alternate_name": "3-Pyridinamine, 6-methoxy-;Pyridine, 5-amino-2-methoxy-;6-Methoxy-3-pyridinamine;5-Amino-2-methoxypyridine;3-Amino-6-methoxypyridine;2-Methoxy-5-aminopyridine;6-Methoxy-3-pyridinylamine;NSC 59708;6-Methoxy-3-aminopyridine;(2-Methoxypyridin-5-yl)amine;2-Methoxypyridin-5-amine",
    "duplicated_cas_no": "",
    "SMILES": "O(C)C1=CC=C(N)C=N1",
    "meta_data": {
        "InChI": "InChI=1S/C6H8N2O/c1-9-6-3-2-5(7)4-8-6/h2-4H,7H2,1H3",
        "InChIKey": null,
        "Canonical SMILES": "N=1C=C(N)C=CC1OC",
        "Molecular Formula": "C<sub>6</sub>H<sub>8</sub>N<sub>2</sub>O",
        "Molecular Mass": "124.14",
        "Boiling Point": "125-126 °C @ Press: 10 Torr",
        "Melting Point": "30 °C"
    }
}