{
    "cas_no": "14024-61-4",
    "key_name": "Palladium acetylacetonate",
    "cn_name": null,
    "alternate_name": "Palladium, bis(2,4-pentanedionato-κ<em>O</em><sup>2</sup>,κ<em>O</em><sup>4</sup>)-, (<em>SP</em>-4-1)-;Palladium, bis(2,4-pentanedionato)-;Palladium, bis(2,4-pentanedionato-<em>O</em>,<em>O</em>′)-, (<em>SP</em>-4-1)-;Palladium, bis(2,4-pentanedionato-κ<em>O</em>,κ<em>O</em>′)-, (<em>SP</em>-4-1)-;(<em>SP</em>-4-1)-Bis(2,4-pentanedionato-κ<em>O</em><sup>2</sup>,κ<em>O</em><sup>4</sup>)palladium;Palladium bis(acetylacetonate);Bis(2,4-pentanedionato)palladium;Palladium(II) acetylacetonate;Palladium bis(acetoacetonate);Bis(acetylacetonato)palladium;Palladium bis(2,4-pentanedionate);Bis(acetylacetonato)palladium(II);Palladium acetylacetonate;Bis(2,4-pentanedionato-κ<em>O</em>,κ<em>O</em>′)palladium;NSC 187660;Pd (II) diacetylacetonate",
    "duplicated_cas_no": "38420-73-4",
    "SMILES": "CC1=O[Pd+2]2(O=C(C)[CH-]C(C)=O2)O=C(C)[CH-]1",
    "meta_data": {
        "InChI": "InChI=1S/2C5H7O2.Pd/c2*1-4(6)3-5(2)7;/h2*3H,1-2H3;/q2*-1;+2",
        "InChIKey": null,
        "Canonical SMILES": "O1=C([CH-]C(=O[Pd+2]12O=C([CH-]C(=O2)C)C)C)C",
        "Molecular Formula": "C<sub>10</sub>H<sub>14</sub>O<sub>4</sub>Pd",
        "Molecular Mass": "",
        "Melting Point": "205-210 °C (decomp)"
    }
}