{
    "cas_no": "146-80-5",
    "key_name": "Xanthosine",
    "cn_name": "黄嘌呤核苷; 9-呋喃核糖-3,9-二氢-1H-嘌呤-2,6-二酮;",
    "alternate_name": "Xanthosine;9-β-<span class=\"text-smallcaps\">D</span>-Ribofuranosylxanthine;β-<span class=\"text-smallcaps\">D</span>-Ribofuranoside, xanthine-9;1<em>H</em>-Purine-2,6-dione, 3,9-dihydro-9-β-<span class=\"text-smallcaps\">D</span>-ribofuranosyl-;3,9-Dihydro-9-β-<span class=\"text-smallcaps\">D</span>-ribofuranosyl-1<em>H</em>-purine-2,6-dione;NSC 18930;2,3-Dihydro-2-oxoinosine;Inosine, 2,3-dihydro-2-oxo-",
    "duplicated_cas_no": "550-26-5",
    "SMILES": "O=C1C2=C(N(C=N2)[C@@H]3O[C@H](CO)[C@@H](O)[C@H]3O)NC(=O)N1",
    "meta_data": {
        "InChI": "InChI=1S/C10H12N4O6/c15-1-3-5(16)6(17)9(20-3)14-2-11-4-7(14)12-10(19)13-8(4)18/h2-3,5-6,9,15-17H,1H2,(H2,12,13,18,19)/t3-,5-,6-,9-/m1/s1",
        "InChIKey": null,
        "Canonical SMILES": "O=C1NC(=O)C=2N=CN(C2N1)C3OC(CO)C(O)C3O",
        "Molecular Formula": "C<sub>10</sub>H<sub>12</sub>N<sub>4</sub>O<sub>6</sub>",
        "Molecular Mass": "284.23",
        "Melting Point": "144-147 °C"
    }
}