{
    "cas_no": "134-63-4",
    "key_name": "(-)-Lobeline hydrochloride",
    "cn_name": "盐酸洛贝林;2-[1-甲基-6-(beta-羟基苯乙基)-2-哌啶基]苯乙酮盐酸盐;",
    "alternate_name": "Ethanone, 2-[(2<em>R</em>,6<em>S</em>)-6-[(2<em>S</em>)-2-hydroxy-2-phenylethyl]-1-methyl-2-piperidinyl]-1-phenyl-, hydrochloride (1:1);Lobeline, hydrochloride;Ethanone, 2-[6-(2-hydroxy-2-phenylethyl)-1-methyl-2-piperidinyl]-1-phenyl-, hydrochloride, [2<em>R</em>-[2α,6α(<em>S</em>*)]]-;Ethanone, 2-[(2<em>R</em>,6<em>S</em>)-6-[(2<em>S</em>)-2-hydroxy-2-phenylethyl]-1-methyl-2-piperidinyl]-1-phenyl-, hydrochloride;(-)-Lobeline hydrochloride;Lobelin hydrochloride;(-)-α-Lobeline hydrochloride;Zoolobelin;Lobron;VUF 10751",
    "duplicated_cas_no": "",
    "SMILES": "C([C@H](O)C1=CC=CC=C1)[C@H]2N(C)[C@@H](CC(=O)C3=CC=CC=C3)CCC2.Cl",
    "meta_data": {
        "InChI": "InChI=1S/C22H27NO2.ClH/c1-23-19(15-21(24)17-9-4-2-5-10-17)13-8-14-20(23)16-22(25)18-11-6-3-7-12-18;/h2-7,9-12,19-21,24H,8,13-16H2,1H3;1H/t19-,20+,21-;/m0./s1",
        "InChIKey": null,
        "Canonical SMILES": "Cl.O=C(C=1C=CC=CC1)CC2N(C)C(CCC2)CC(O)C=3C=CC=CC3",
        "Molecular Formula": "C<sub>22</sub>H<sub>27</sub>NO<sub>2</sub>.ClH",
        "Molecular Mass": "",
        "Melting Point": "178-180 °C"
    }
}