{
    "cas_no": "6109-70-2",
    "key_name": "1-Azabicyclo[2.2.2]octan-3-ol, 3-acetate, hydrochloride (1:1)",
    "cn_name": null,
    "alternate_name": "1-Azabicyclo[2.2.2]octan-3-ol, 3-acetate, hydrochloride (1:1);3-Quinuclidinol, acetate (ester), hydrochloride;3-Quinuclidinol, acetate, hydrochloride;1-Azabicyclo[2.2.2]octan-3-ol, acetate (ester), hydrochloride;Aceclidine hydrochloride;Glaucostat;(±)-3-Acetoxyquinuclidine hydrochloride;3-Acetoxyquinuclidine hydrochloride;1-Azabicyclo[2.2.2]oct-3-yl acetate hydrochloride",
    "duplicated_cas_no": "57539-23-8",
    "SMILES": "O(C(C)=O)C1C2CCN(C1)CC2.Cl",
    "meta_data": {
        "InChI": "InChI=1S/C9H15NO2.ClH/c1-7(11)12-9-6-10-4-2-8(9)3-5-10;/h8-9H,2-6H2,1H3;1H",
        "InChIKey": null,
        "Canonical SMILES": "Cl.O=C(OC1CN2CCC1CC2)C",
        "Molecular Formula": "C<sub>9</sub>H<sub>15</sub>NO<sub>2</sub>.ClH",
        "Molecular Mass": "",
        "Melting Point": "165-167 °C"
    }
}