{
    "cas_no": "4985-85-7",
    "key_name": "(3-Aminopropyl)diethanolamine",
    "cn_name": "N-(3-氨丙基)二乙醇胺;N-(3-氨基丙基)二乙醇胺;",
    "alternate_name": "Ethanol, 2,2′-[(3-aminopropyl)imino]bis-;Ethanol, 2,2′-[(3-aminopropyl)imino]di-;2,2′-[(3-Aminopropyl)imino]bis[ethanol];<em>N</em>-(3-Aminopropyl)diethanolamine;<em>N</em>,<em>N</em>-Bis(2-hydroxyethyl)-1,3-propanediamine;<em>N</em>,<em>N</em>-Di(2-hydroxyethyl)-1,3-propanediamine;2,2′-[(3-Aminopropyl)imino]diethanol;(3-Aminopropyl)diethanolamine;3-[Bis(2-hydroxyethyl)amino]propylamine;<em>N</em>,<em>N</em>-Bis(2-hydroxyethyl)-1,3-diaminopropane;<em>N</em>-(3-Aminopropyl)-<em>N</em>,<em>N</em>-bis(2-hydroxyethyl)amine;<em>N</em>,<em>N</em>-Bis(2-hydroxyethyl)-3-aminopropylamine;<em>N</em>-3-Aminopropyl-<em>N</em>,<em>N</em>-di(2-hydroxyethyl)amine;NSC 8172;2-[(3-Aminopropyl)(2-hydroxyethyl)amino]ethanol;(3-Aminopropyl)bis(2-hydroxyethyl)amine;[3-(Diethanolamino)propyl]amine;<em>N</em>-(3-Aminopropyl)-<em>N</em>,<em>N</em>-diethanolamine.;3-[<em>N</em>,<em>N</em>-(Diethanol)amino]propylamine;<em>N</em>-(3-Aminopropyl)-3-azapentane-1,5-diol;2-[(3-Aminopropyl)(2-hydroxyethyl)amino]ethan-1-ol;2,2′-[(3-aminopropyl)azanediyl]bis(ethanol)",
    "duplicated_cas_no": "",
    "SMILES": "N(CCCN)(CCO)CCO",
    "meta_data": {
        "InChI": "InChI=1S/C7H18N2O2/c8-2-1-3-9(4-6-10)5-7-11/h10-11H,1-8H2",
        "InChIKey": null,
        "Canonical SMILES": "OCCN(CCO)CCCN",
        "Molecular Formula": "C<sub>7</sub>H<sub>18</sub>N<sub>2</sub>O<sub>2</sub>",
        "Molecular Mass": "162.23",
        "Boiling Point": "158 °C @ Press: 2 Torr"
    }
}