{
    "cas_no": "110-40-7",
    "key_name": "Diethyl sebacate",
    "cn_name": "癸二酸二乙酯;",
    "alternate_name": "Decanedioic acid, 1,10-diethyl ester;Sebacic acid, diethyl ester;Decanedioic acid, diethyl ester;Bisoflex DES;Diethyl decanedioate;Diethyl 1,10-decanedioate;Diethyl sebacate;Ethyl sebacate;SDE;NSC 8911;Nikkol DES-SP",
    "duplicated_cas_no": "",
    "SMILES": "C(CCCCCCCC(OCC)=O)C(OCC)=O",
    "meta_data": {
        "InChI": "InChI=1S/C14H26O4/c1-3-17-13(15)11-9-7-5-6-8-10-12-14(16)18-4-2/h3-12H2,1-2H3",
        "InChIKey": null,
        "Canonical SMILES": "O=C(OCC)CCCCCCCCC(=O)OCC",
        "Molecular Formula": "C<sub>14</sub>H<sub>26</sub>O<sub>4</sub>",
        "Molecular Mass": "258.35",
        "Boiling Point": "305 °C",
        "Melting Point": "5 °C",
        "Density": "0.95913 g/cm³ @ Temp: 25.05 °C; Press: 759.8 Torr"
    }
}