{
    "cas_no": "2386-52-9",
    "key_name": "Silver methanesulfonate",
    "cn_name": "甲烷磺酸银;",
    "alternate_name": "Methanesulfonic acid, silver(1+) salt (1:1);Methanesulfonic acid, silver(1+) salt;Silver methylsulfonate;Silver methanesulfonate;Silver(I) methanesulfonate;Silver mesylate;Dain Silver MEC",
    "duplicated_cas_no": "1092363-14-8",
    "SMILES": "S(C)(=O)(=O)O.[Ag]",
    "meta_data": {
        "InChI": "InChI=1S/CH4O3S.Ag/c1-5(2,3)4;/h1H3,(H,2,3,4);",
        "InChIKey": null,
        "Canonical SMILES": "[Ag].O=S(=O)(O)C",
        "Molecular Formula": "CH<sub>4</sub>O<sub>3</sub>S.Ag",
        "Molecular Mass": "",
        "Melting Point": "263 °C"
    }
}