{
    "cas_no": "18962-07-7",
    "key_name": "4-(2-Methylpropoxy)benzaldehyde",
    "cn_name": null,
    "alternate_name": "Benzaldehyde, 4-(2-methylpropoxy)-;Benzaldehyde, <em>p</em>-isobutoxy-;4-(2-Methylpropoxy)benzaldehyde;<em>p</em>-Isobutoxybenzaldehyde;4-(2-Methylpropyloxy)benzaldehyde;NSC 68517;4-Isobutoxybenzaldehyde;4-(Isobutyloxy)benzaldehyde",
    "duplicated_cas_no": "",
    "SMILES": "O(CC(C)C)C1=CC=C(C=O)C=C1",
    "meta_data": {
        "InChI": "InChI=1S/C11H14O2/c1-9(2)8-13-11-5-3-10(7-12)4-6-11/h3-7,9H,8H2,1-2H3",
        "InChIKey": null,
        "Canonical SMILES": "O=CC1=CC=C(OCC(C)C)C=C1",
        "Molecular Formula": "C<sub>11</sub>H<sub>14</sub>O<sub>2</sub>",
        "Molecular Mass": "178.23",
        "Boiling Point": "152 °C @ Press: 16 Torr",
        "Melting Point": "155 °C"
    }
}