{
    "cas_no": "63149-33-7",
    "key_name": "8-Hydroxyjulolidine-9-carboxaldehyde",
    "cn_name": "8-羟基久洛尼定-9-甲醛;",
    "alternate_name": "1<em>H</em>,5<em>H</em>-Benzo[<em>ij</em>]quinolizine-9-carboxaldehyde, 2,3,6,7-tetrahydro-8-hydroxy-;2,3,6,7-Tetrahydro-8-hydroxy-1<em>H</em>,5<em>H</em>-benzo[<em>ij</em>]quinolizine-9-carboxaldehyde;9-Formyl-8-hydroxyjulolidine;9-Formyl-8-julolidinol;8-Hydroxyjulolidine-9-carboxaldehyde;9-Formyl-8-hydroxy-2,3,6,7-tetrahydro-1<em>H</em>,5<em>H</em>-benzo[<em>ij</em>]quinolizine",
    "duplicated_cas_no": "",
    "SMILES": "OC1=C2C3=C(C=C1C=O)CCCN3CCC2",
    "meta_data": {
        "InChI": "InChI=1S/C13H15NO2/c15-8-10-7-9-3-1-5-14-6-2-4-11(12(9)14)13(10)16/h7-8,16H,1-6H2",
        "InChIKey": null,
        "Canonical SMILES": "O=CC=1C=C2C3=C(C1O)CCCN3CCC2",
        "Molecular Formula": "C<sub>13</sub>H<sub>15</sub>NO<sub>2</sub>",
        "Molecular Mass": "217.26",
        "Melting Point": "70-72 °C"
    }
}