{
    "cas_no": "4651-81-4",
    "key_name": "Methyl 2-amino-3-thiophenecarboxylate",
    "cn_name": "2-氨基噻吩-3-羧酸甲酯;",
    "alternate_name": "3-Thiophenecarboxylic acid, 2-amino-, methyl ester;Methyl 2-amino-3-thiophenecarboxylate;2-Amino-3-methoxycarbonylthiophene;2-Amino-3-carbomethoxythiophene;2-Amino-3-thiophenecarboxylic acid methyl ester;NSC 523742",
    "duplicated_cas_no": "",
    "SMILES": "C(OC)(=O)C1=C(N)SC=C1",
    "meta_data": {
        "InChI": "InChI=1S/C6H7NO2S/c1-9-6(8)4-2-3-10-5(4)7/h2-3H,7H2,1H3",
        "InChIKey": null,
        "Canonical SMILES": "O=C(OC)C=1C=CSC1N",
        "Molecular Formula": "C<sub>6</sub>H<sub>7</sub>NO<sub>2</sub>S",
        "Molecular Mass": "157.19",
        "Melting Point": "77-78 °C"
    }
}