{
    "cas_no": "138-39-6",
    "key_name": "Mafenide",
    "cn_name": "磺胺米隆;",
    "alternate_name": "Benzenesulfonamide, 4-(aminomethyl)-;<em>p</em>-Toluenesulfonamide, α-amino-;4-(Aminomethyl)benzenesulfonamide;α-Amino-<em>p</em>-toluenesulfonamide;Homosulfanilamide;Mafenide;Sulfamylon;Benzamsulfonamide;Homosul;Maphenide;<em>p</em>-(Aminomethyl)benzenesulfonamide;4-Homosulfanilamide;Mesudrin;Mesudin;Ambamide;Neofamid;Septicid;Emilene;Paramenyl;Homonal;Malfamin;Maphenid;Marprontil;4-Sulfamoylbenzylamine;<em>p</em>-Sulfamoylbenzylamine;NSC 34632;4-(Aminosulfonyl)benzylamine;4-(Aminomethyl)benzene-1-sulfonamide;Chembl 419",
    "duplicated_cas_no": "",
    "SMILES": "S(N)(=O)(=O)C1=CC=C(CN)C=C1",
    "meta_data": {
        "InChI": "InChI=1S/C7H10N2O2S/c8-5-6-1-3-7(4-2-6)12(9,10)11/h1-4H,5,8H2,(H2,9,10,11)",
        "InChIKey": null,
        "Canonical SMILES": "O=S(=O)(N)C1=CC=C(C=C1)CN",
        "Molecular Formula": "C<sub>7</sub>H<sub>10</sub>N<sub>2</sub>O<sub>2</sub>S",
        "Molecular Mass": "186.23",
        "Melting Point": "151-152 °C"
    }
}