{
    "cas_no": "73-70-1",
    "key_name": "2,5-Dimethyl-4-pyrimidinamine",
    "cn_name": null,
    "alternate_name": "4-Pyrimidinamine, 2,5-dimethyl-;Pyrimidine, 4-amino-2,5-dimethyl-;2,5-Dimethyl-4-pyrimidinamine;4-Amino-2,5-dimethylpyrimidine;2,5-Dimethyl-4-aminopyrimidine;2,5-Dimethylpyrimidin-4-amine",
    "duplicated_cas_no": "",
    "SMILES": "NC=1C(C)=CN=C(C)N1",
    "meta_data": {
        "InChI": "InChI=1S/C6H9N3/c1-4-3-8-5(2)9-6(4)7/h3H,1-2H3,(H2,7,8,9)",
        "InChIKey": null,
        "Canonical SMILES": "N=1C=C(C(=NC1C)N)C",
        "Molecular Formula": "C<sub>6</sub>H<sub>9</sub>N<sub>3</sub>",
        "Molecular Mass": "123.16",
        "Melting Point": "201-202 °C"
    }
}