{
    "cas_no": "19438-60-9",
    "key_name": "Rikacid MH",
    "cn_name": "4-甲基六氢苯酐;",
    "alternate_name": "1,3-Isobenzofurandione, hexahydro-5-methyl-;1,2-Cyclohexanedicarboxylic anhydride, 4-methyl-;Hexahydro-5-methyl-1,3-isobenzofurandione;4-Methyl-1,2-cyclohexanedicarboxylic anhydride;Hexahydro-4-methylphthalic anhydride;4-Methylhexahydrophthalic acid anhydride;4-Methylhexahydrophthalic anhydride;Rikacid MH;WH 700;NSC 128883;HN 7000;Quinhard HH 400;Rikacid MH-T;Lindride 52;1-Methylcyclohexane-4,5-Dicarboxylic anhydride;EDK-X 52;Lindride 52D",
    "duplicated_cas_no": "15433-45-1;129574-07-8;636588-30-2;1262424-73-6;2377923-08-3",
    "SMILES": "O=C1C2C(C(=O)O1)CCC(C)C2",
    "meta_data": {
        "InChI": "InChI=1S/C9H12O3/c1-5-2-3-6-7(4-5)9(11)12-8(6)10/h5-7H,2-4H2,1H3",
        "InChIKey": null,
        "Canonical SMILES": "O=C1OC(=O)C2CC(C)CCC12",
        "Molecular Formula": "C<sub>9</sub>H<sub>12</sub>O<sub>3</sub>",
        "Molecular Mass": "168.19",
        "Melting Point": "-29 °C",
        "Density": "1.16 g/cm³"
    }
}