{
    "cas_no": "13477-00-4",
    "key_name": "Barium chlorate",
    "cn_name": "氯酸钡;",
    "alternate_name": "Chloric acid, barium salt (2:1);Chloric acid, barium salt;Barium chlorate;Barium chlorate (Ba(ClO<sub>3</sub>)<sub>2</sub>)",
    "duplicated_cas_no": "",
    "SMILES": "Cl(=O)(=O)O.[Ba]",
    "meta_data": {
        "InChI": "InChI=1S/Ba.ClHO3/c;2-1(3)4/h;(H,2,3,4)",
        "InChIKey": null,
        "Canonical SMILES": "[Ba].O=Cl(=O)O",
        "Molecular Formula": "Ba.2ClHO<sub>3</sub>",
        "Molecular Mass": "",
        "Melting Point": "414 °C",
        "Density": "3.179 g/cm³"
    }
}