{
    "cas_no": "118-88-7",
    "key_name": "5-Amino-2-methylbenzenesulfonic acid",
    "cn_name": "4-氨基甲苯-2-磺酸;",
    "alternate_name": "Benzenesulfonic acid, 5-amino-2-methyl-;<em>o</em>-Toluenesulfonic acid, 5-amino-;5-Amino-2-methylbenzenesulfonic acid;5-Amino-2-methyl-1-sulfobenzene;4-Amino-2-sulfotoluene;5-Amino-<em>o</em>-toluenesulfonic acid;4-Methyl-3-sulfoaniline;<em>p</em>-Toluidine-<em>o</em>-sulfonic acid;3-Amino-6-methylbenzenesulfonic acid;3-Sulfo-4-methylaniline;4-Aminotoluene-2-sulfonic acid;4-Toluidine-3-sulfonic acid;1-Amino-4-methylbenzene-3-sulfonic acid;NSC 22958;NSC 5586;4-Methylaniline-3-sulfonic acid;2-Methyl-5-amino benzene sulfonic acid",
    "duplicated_cas_no": "83156-57-4",
    "SMILES": "S(=O)(=O)(O)C1=C(C)C=CC(N)=C1",
    "meta_data": {
        "InChI": "InChI=1S/C7H9NO3S/c1-5-2-3-6(8)4-7(5)12(9,10)11/h2-4H,8H2,1H3,(H,9,10,11)",
        "InChIKey": null,
        "Canonical SMILES": "O=S(=O)(O)C1=CC(N)=CC=C1C",
        "Molecular Formula": "C<sub>7</sub>H<sub>9</sub>NO<sub>3</sub>S",
        "Molecular Mass": "187.22",
        "Melting Point": "&gt;300 °C"
    }
}