{
    "cas_no": "40546-94-9",
    "key_name": "3,4-Dihydro-6-methyl-4-phenyl-2<em>H</em>-1-benzopyran-2-one",
    "cn_name": "6-甲基-4-苯基色满-2-酮;3,4-二氢-6-甲基-4-苯基-2H-1-苯并吡喃-2-酮;",
    "alternate_name": "2<em>H</em>-1-Benzopyran-2-one, 3,4-dihydro-6-methyl-4-phenyl-;Hydrocoumarin, 6-methyl-4-phenyl-;3,4-Dihydro-6-methyl-4-phenyl-2<em>H</em>-1-benzopyran-2-one;6-Methyl-4-phenyl-3,4-dihydrocoumarin;3,4-Dihydro-6-methyl-4-phenyl-2<em>H</em>-benzopyran-2-one;6-Methyl-4-phenylchroman-2-one;6-Methyl-4-phenyl-3,4-dihydro-1-benzopyran-2-one",
    "duplicated_cas_no": "",
    "SMILES": "CC=1C=C2C(CC(=O)OC2=CC1)C3=CC=CC=C3",
    "meta_data": {
        "InChI": "InChI=1S/C16H14O2/c1-11-7-8-15-14(9-11)13(10-16(17)18-15)12-5-3-2-4-6-12/h2-9,13H,10H2,1H3",
        "InChIKey": null,
        "Canonical SMILES": "O=C1OC2=CC=C(C=C2C(C=3C=CC=CC3)C1)C",
        "Molecular Formula": "C<sub>16</sub>H<sub>14</sub>O<sub>2</sub>",
        "Molecular Mass": "238.28",
        "Boiling Point": "166-170 °C @ Press: 2.5 Torr",
        "Melting Point": "80-81 °C"
    }
}