{
    "cas_no": "4151-50-2",
    "key_name": "Volcano",
    "cn_name": "氟虫胺;N-乙基全氟辛烷磺酰胺;N-乙基全氟辛基磺酰胺;",
    "alternate_name": "1-Octanesulfonamide, <em>N</em>-ethyl-1,1,2,2,3,3,4,4,5,5,6,6,7,7,8,8,8-heptadecafluoro-;<em>N</em>-Ethyl-1,1,2,2,3,3,4,4,5,5,6,6,7,7,8,8,8-heptadecafluoro-1-octanesulfonamide;GX 071;AI 3-29757;Sulfluramid;FiniTron;<em>N</em>-Ethylperfluorooctanesulfonamide;Alstar;Alstar (pesticide);<em>N</em>-Ethylperfluorooctylsulfonamide;Mirex S;Volcano;Volcano (insecticide);FX 12;<em>N</em>-Ethyl-1,1,2,2,3,3,4,4,5,5,6,6,7,7,8,8,8-heptadecafluorooctane-1-sulfonamide;Sulfluramide;<em>N</em>-Ethylperfluoro-1-octanesulfonamide",
    "duplicated_cas_no": "",
    "SMILES": "C(C(C(C(S(NCC)(=O)=O)(F)F)(F)F)(F)F)(C(C(C(C(F)(F)F)(F)F)(F)F)(F)F)(F)F",
    "meta_data": {
        "InChI": "InChI=1S/C10H6F17NO2S/c1-2-28-31(29,30)10(26,27)8(21,22)6(17,18)4(13,14)3(11,12)5(15,16)7(19,20)9(23,24)25/h28H,2H2,1H3",
        "InChIKey": null,
        "Canonical SMILES": "O=S(=O)(NCC)C(F)(F)C(F)(F)C(F)(F)C(F)(F)C(F)(F)C(F)(F)C(F)(F)C(F)(F)F",
        "Molecular Formula": "C<sub>10</sub>H<sub>6</sub>F<sub>17</sub>NO<sub>2</sub>S",
        "Molecular Mass": "527.20",
        "Boiling Point": "196 °C",
        "Melting Point": "96 °C"
    }
}