{
    "cas_no": "925-06-4",
    "key_name": "Diisobutyl succinate",
    "cn_name": "丁二酸二异丁酯;",
    "alternate_name": "Butanedioic acid, 1,4-bis(2-methylpropyl) ester;Succinic acid, diisobutyl ester;Butanedioic acid, bis(2-methylpropyl) ester;Diisobutyl succinate",
    "duplicated_cas_no": "",
    "SMILES": "C(CCC(OCC(C)C)=O)(OCC(C)C)=O",
    "meta_data": {
        "InChI": "InChI=1S/C12H22O4/c1-9(2)7-15-11(13)5-6-12(14)16-8-10(3)4/h9-10H,5-8H2,1-4H3",
        "InChIKey": null,
        "Canonical SMILES": "O=C(OCC(C)C)CCC(=O)OCC(C)C",
        "Molecular Formula": "C<sub>12</sub>H<sub>22</sub>O<sub>4</sub>",
        "Molecular Mass": "230.30",
        "Boiling Point": "216 °C",
        "Density": "0.967 g/cm³"
    }
}