{
    "cas_no": "28177-69-7",
    "key_name": "2′-Hydroxy-3′-nitroacetophenone",
    "cn_name": null,
    "alternate_name": "Ethanone, 1-(2-hydroxy-3-nitrophenyl)-;Acetophenone, 2′-hydroxy-3′-nitro-;1-(2-Hydroxy-3-nitrophenyl)ethanone;3′-Nitro-2′-hydroxyacetophenone;2′-Hydroxy-3′-nitroacetophenone;2-Acetyl-6-nitrophenol;NSC 111935;1-(2-Hydroxy-3-nitrophenyl)ethan-1-one",
    "duplicated_cas_no": "",
    "SMILES": "C(C)(=O)C1=C(O)C(N(=O)=O)=CC=C1",
    "meta_data": {
        "InChI": "InChI=1S/C8H7NO4/c1-5(10)6-3-2-4-7(8(6)11)9(12)13/h2-4,11H,1H3",
        "InChIKey": null,
        "Canonical SMILES": "O=C(C1=CC=CC(=C1O)N(=O)=O)C",
        "Molecular Formula": "C<sub>8</sub>H<sub>7</sub>NO<sub>4</sub>",
        "Molecular Mass": "181.15",
        "Melting Point": "98.5-99.5 °C"
    }
}