{
    "cas_no": "649735-63-7",
    "key_name": "Brivanib alaninate",
    "cn_name": null,
    "alternate_name": "<span class=\"text-smallcaps\">L</span>-Alanine, (1<em>R</em>)-2-[[4-[(4-fluoro-2-methyl-1<em>H</em>-indol-5-yl)oxy]-5-methylpyrrolo[2,1-<em>f</em>][1,2,4]triazin-6-yl]oxy]-1-methylethyl ester;BMS 582664;Brivanib alaninate",
    "duplicated_cas_no": "924262-84-0",
    "SMILES": "O(C=1C=2N(C=C(OC[C@H](OC([C@H](C)N)=O)C)C2C)N=CN1)C=3C(F)=C4C(=CC3)NC(C)=C4",
    "meta_data": {
        "InChI": "InChI=1S/C22H24FN5O4/c1-11-7-15-16(27-11)5-6-17(19(15)23)32-21-20-13(3)18(8-28(20)26-10-25-21)30-9-12(2)31-22(29)14(4)24/h5-8,10,12,14,27H,9,24H2,1-4H3/t12-,14+/m1/s1",
        "InChIKey": null,
        "Canonical SMILES": "O=C(OC(C)COC1=CN2N=CN=C(OC=3C=CC=4NC(=CC4C3F)C)C2=C1C)C(N)C",
        "Molecular Formula": "C<sub>22</sub>H<sub>24</sub>FN<sub>5</sub>O<sub>4</sub>",
        "Molecular Mass": "441.46",
        "Melting Point": "136-142 °C"
    }
}