{
    "cas_no": "1459754-32-5",
    "key_name": "4-[(2-Chloro-5-iodophenyl)methyl]phenol",
    "cn_name": null,
    "alternate_name": "Phenol, 4-[(2-chloro-5-iodophenyl)methyl]-;4-[(2-Chloro-5-iodophenyl)methyl]phenol;4-(2-Chloro-5-iodobenzyl)phenol",
    "duplicated_cas_no": "",
    "SMILES": "C(C1=C(Cl)C=CC(I)=C1)C2=CC=C(O)C=C2",
    "meta_data": {
        "InChI": "InChI=1S/C13H10ClIO/c14-13-6-3-11(15)8-10(13)7-9-1-4-12(16)5-2-9/h1-6,8,16H,7H2",
        "InChIKey": null,
        "Canonical SMILES": "ClC1=CC=C(I)C=C1CC2=CC=C(O)C=C2",
        "Molecular Formula": "C<sub>13</sub>H<sub>10</sub>ClIO",
        "Molecular Mass": "344.58",
        "Melting Point": "101-102 °C"
    }
}