{
    "cas_no": "2943-73-9",
    "key_name": "Decyltriethoxysilane",
    "cn_name": "正癸基三乙氧基硅烷;正癸基三乙氧基硅烷,98%;",
    "alternate_name": "Silane, decyltriethoxy-;Decyltriethoxysilane;1-(Triethoxysilyl)decane;Triethoxydecylsilane;Tri(ethoxo)(decyl)silane;SID 2265.0;<em>n</em>-Decyltriethoxysilane;KBE 3103",
    "duplicated_cas_no": "",
    "SMILES": "[Si](CCCCCCCCCC)(OCC)(OCC)OCC",
    "meta_data": {
        "InChI": "InChI=1S/C16H36O3Si/c1-5-9-10-11-12-13-14-15-16-20(17-6-2,18-7-3)19-8-4/h5-16H2,1-4H3",
        "InChIKey": null,
        "Canonical SMILES": "O(CC)[Si](OCC)(OCC)CCCCCCCCCC",
        "Molecular Formula": "C<sub>16</sub>H<sub>36</sub>O<sub>3</sub>Si",
        "Molecular Mass": "304.54",
        "Boiling Point": "150 °C @ Press: 8 Torr",
        "Density": "0.879 g/cm³"
    }
}