{
    "cas_no": "52-85-7",
    "key_name": "Famphur",
    "cn_name": null,
    "alternate_name": "Phosphorothioic acid, <em>O</em>-[4-[(dimethylamino)sulfonyl]phenyl] <em>O</em>,<em>O</em>-dimethyl ester;Phosphorothioic acid, <em>O</em>,<em>O</em>-dimethyl ester, <em>O</em>-ester with <em>p</em>-hydroxy-<em>N</em>,<em>N</em>-dimethylbenzenesulfonamide;Phosphorothioic acid, <em>O</em>-[<em>p</em>-(dimethylsulfamoyl)phenyl] <em>O</em>,<em>O</em>-dimethyl ester;ENT 25,644;CL 38023;<em>O</em>,<em>O</em>-Dimethyl <em>O</em>-[<em>p</em>-(dimethylsulfamoyl)phenyl] phosphorothioate;<em>O</em>,<em>O</em>-Dimethyl phosphorothioate <em>O</em>-ester with <em>p</em>-hydroxy-<em>N</em>,<em>N</em>-dimethylbenzenesulfonamide;Famophos;Famphur;Warbex;Famfur;Benzenesulfonamide, <em>p</em>-hydroxy-<em>N</em>,<em>N</em>-dimethyl-, <em>O</em>-ester with <em>O</em>,<em>O</em>-dimethyl phosphorothioate;Famphos;Dovip",
    "duplicated_cas_no": "",
    "SMILES": "P(OC1=CC=C(S(N(C)C)(=O)=O)C=C1)(OC)(OC)=S",
    "meta_data": {
        "InChI": "InChI=1S/C10H16NO5PS2/c1-11(2)19(12,13)10-7-5-9(6-8-10)16-17(18,14-3)15-4/h5-8H,1-4H3",
        "InChIKey": null,
        "Canonical SMILES": "O=S(=O)(C1=CC=C(OP(=S)(OC)OC)C=C1)N(C)C",
        "Molecular Formula": "C<sub>10</sub>H<sub>16</sub>NO<sub>5</sub>PS<sub>2</sub>",
        "Molecular Mass": "325.34",
        "Melting Point": "52.5-53.5 °C"
    }
}