{
    "cas_no": "60524-15-4",
    "key_name": "2-Chloro-5-nitro-3-pyridinecarboxamide",
    "cn_name": null,
    "alternate_name": "3-Pyridinecarboxamide, 2-chloro-5-nitro-;2-Chloro-5-nitro-3-pyridinecarboxamide;2-Chloro-5-nitronicotinamide",
    "duplicated_cas_no": "",
    "SMILES": "C(N)(=O)C=1C=C(N(=O)=O)C=NC1Cl",
    "meta_data": {
        "InChI": "InChI=1S/C6H4ClN3O3/c7-5-4(6(8)11)1-3(2-9-5)10(12)13/h1-2H,(H2,8,11)",
        "InChIKey": null,
        "Canonical SMILES": "O=C(N)C1=CC(=CN=C1Cl)N(=O)=O",
        "Molecular Formula": "C<sub>6</sub>H<sub>4</sub>ClN<sub>3</sub>O<sub>3</sub>",
        "Molecular Mass": "201.57",
        "Melting Point": "181-183 °C"
    }
}