{
    "cas_no": "142-77-8",
    "key_name": "Butyl oleate",
    "cn_name": "油酸丁酯;(Z)-9-十八烯酸丁酯;9-十八烯酸丁酯;十八烯酸丁酯;",
    "alternate_name": "9-Octadecenoic acid (9<em>Z</em>)-, butyl ester;Oleic acid, butyl ester;9-Octadecenoic acid (<em>Z</em>)-, butyl ester;Butyl oleate;Hallco C 503;Kessco 554;Kesscoflex BO;Wilmar Butyl Oleate;Witcizer 100;Witcizer 101;Advaplast 42;<em>n</em>-Butyl oleate;Butyl <em>cis</em>-9-octadecenoate;Plasthall 914;Kemester 4000;Butyl (<em>Z</em>)-9-octadecenoate;Kaolube 804",
    "duplicated_cas_no": "",
    "SMILES": "C(CC(OCCCC)=O)CCCCC/C=C\\CCCCCCCC",
    "meta_data": {
        "InChI": "InChI=1S/C22H42O2/c1-3-5-7-8-9-10-11-12-13-14-15-16-17-18-19-20-22(23)24-21-6-4-2/h12-13H,3-11,14-21H2,1-2H3/b13-12-",
        "InChIKey": null,
        "Canonical SMILES": "O=C(OCCCC)CCCCCCCC=CCCCCCCCC",
        "Molecular Formula": "C<sub>22</sub>H<sub>42</sub>O<sub>2</sub>",
        "Molecular Mass": "338.57",
        "Boiling Point": "228 °C @ Press: 15 Torr",
        "Melting Point": "-26.4 °C",
        "Density": "0.8704 g/cm³ @ Temp: 15 °C"
    }
}