{
    "cas_no": "940-64-7",
    "key_name": "(4-Methylphenoxy)acetic acid",
    "cn_name": "4-甲基苯氧基乙酸;",
    "alternate_name": "Acetic acid, 2-(4-methylphenoxy)-;Acetic acid, (<em>p</em>-tolyloxy)-;Acetic acid, (4-methylphenoxy)-;2-(4-Methylphenoxy)acetic acid;(4-Methylphenoxy)acetic acid;<em>p</em>-Methylphenoxyacetic acid;<em>p</em>-(Tolyloxy)acetic acid;NSC 38176;2-<em>p</em>-Tolyloxyacetic acid",
    "duplicated_cas_no": "",
    "SMILES": "O(CC(O)=O)C1=CC=C(C)C=C1",
    "meta_data": {
        "InChI": "InChI=1S/C9H10O3/c1-7-2-4-8(5-3-7)12-6-9(10)11/h2-5H,6H2,1H3,(H,10,11)",
        "InChIKey": null,
        "Canonical SMILES": "O=C(O)COC1=CC=C(C=C1)C",
        "Molecular Formula": "C<sub>9</sub>H<sub>10</sub>O<sub>3</sub>",
        "Molecular Mass": "166.17",
        "Melting Point": "140-142 °C"
    }
}