{
    "cas_no": "93-39-0",
    "key_name": "Skimmin",
    "cn_name": "茵芋苷;茵芋苷;",
    "alternate_name": "2<em>H</em>-1-Benzopyran-2-one, 7-(β-<span class=\"text-smallcaps\">D</span>-glucopyranosyloxy)-;Skimmin;7-(β-<span class=\"text-smallcaps\">D</span>-Glucopyranosyloxy)-2<em>H</em>-1-benzopyran-2-one;7-Hydroxycoumarin 7-glucoside;Skimmine;Umbelliferone glucoside;Umbelliferone β-<span class=\"text-smallcaps\">D</span>-glucopyranoside;Umbelliferone 7-<em>O</em>-β-<span class=\"text-smallcaps\">D</span>-glucopyranoside;Umbelliferone 7-β-<span class=\"text-smallcaps\">D</span>-glucoside;Skimin;7-(β-<span class=\"text-smallcaps\">D</span>-Glucosyloxy)coumarin;NSC 267696;Umbelliferone 7-<em>O</em>-β-<span class=\"text-smallcaps\">D</span>-glucoside;Coumarin 7-<em>O</em>-β-<span class=\"text-smallcaps\">D</span>-glucoside;7-<em>O</em>-β-<span class=\"text-smallcaps\">D</span>-Glucopyranosyl-umbelliferone",
    "duplicated_cas_no": "27073-00-3;53701-43-2",
    "SMILES": "O(C=1C=C2C(=CC1)C=CC(=O)O2)[C@@H]3O[C@H](CO)[C@@H](O)[C@H](O)[C@H]3O",
    "meta_data": {
        "InChI": "InChI=1S/C15H16O8/c16-6-10-12(18)13(19)14(20)15(23-10)21-8-3-1-7-2-4-11(17)22-9(7)5-8/h1-5,10,12-16,18-20H,6H2/t10-,12-,13+,14-,15-/m1/s1",
        "InChIKey": null,
        "Canonical SMILES": "O=C1OC=2C=C(OC3OC(CO)C(O)C(O)C3O)C=CC2C=C1",
        "Molecular Formula": "C<sub>15</sub>H<sub>16</sub>O<sub>8</sub>",
        "Molecular Mass": "324.28",
        "Melting Point": "220 °C"
    }
}