{
    "cas_no": "1272-44-2",
    "key_name": "Benzoylferrocene",
    "cn_name": "苯甲酰基二茂铁;",
    "alternate_name": "Ferrocene, benzoyl-;Ketone, ferrocenyl phenyl;Iron, (benzoylcyclopentadienyl)cyclopentadienyl-;Benzoylferrocene;Monobenzoylferrocene;Methanone, ferrocenylphenyl-;Ferrecenophenone;Benzoyldicyclopentadienyliron;Ferrocenyl phenyl ketone;1-Benzoylferrocene;Ferrocenyl(phenyl)methanone;NSC 54800;Phenyl ferrocenyl ketone",
    "duplicated_cas_no": "36344-08-8;38960-44-0",
    "SMILES": "C(=O)([C-]12[Fe+2]3456789([CH]1=[CH]3[CH]4=[CH]52)[CH-]%10[CH]6=[CH]7[CH]8=[CH]9%10)C%11=CC=CC=C%11",
    "meta_data": {
        "InChI": "InChI=1S/C12H9O.C5H5.Fe/c13-12(11-8-4-5-9-11)10-6-2-1-3-7-10;1-2-4-5-3-1;/h1-9H;1-5H;/q2*-1;+2",
        "InChIKey": null,
        "Canonical SMILES": "O=C(C=1C=CC=CC1)[C-]23[CH]4=[CH]5[CH]6=[CH]2[Fe+2]789%105643[CH]=%11[CH]%10=[CH]9[CH-]8[CH]%117",
        "Molecular Formula": "C<sub>17</sub>H<sub>14</sub>FeO",
        "Molecular Mass": "",
        "Melting Point": "108-109 °C",
        "Density": "1.507 g/cm³"
    }
}