{
    "cas_no": "474-25-9",
    "key_name": "Chenodeoxycholic acid",
    "cn_name": "鹅去氧胆酸;鹅脱氧胆酸;3alpha,7alpha-二羟基-5beta-胆烷酸;",
    "alternate_name": "Cholan-24-oic acid, 3,7-dihydroxy-, (3α,5β,7α)-;5β-Cholan-24-oic acid, 3α,7α-dihydroxy-;5β-Cholanic acid, 3α,7α-dihydroxy-;(3α,5β,7α)-3,7-Dihydroxycholan-24-oic acid;Anthropodeoxycholic acid;Anthropodesoxycholic acid;Chenodeoxycholic acid;Chenodesoxycholic acid;3α,7α-Dihydroxycholanic acid;Gallodesoxycholic acid;17β-(1-Methyl-3-carboxypropyl)etiocholane-3α,7α-diol;3α,7α-Dihydroxy-5β-cholanic acid;3α,7α-Dihydroxy-5β-cholanoic acid;Anthropododesoxycholic acid;CDC;3α,7α-Dihydroxy-5β-cholan-24-oic acid;Chenic acid;Chendol;Chenodiol;7α-Hydroxylithocholic acid;Chenofalk;Chenix;Chenocol;Chenodex;Hekbilin;Ulmenide;Cholanorm;Fluibil;Chenocedon;Kebilis;Chenossil;(+)-Chenodeoxycholic acid;MeSH ID: D002635",
    "duplicated_cas_no": "",
    "SMILES": "C[C@@]12[C@]([C@]3([C@@]([C@]4(C)[C@](C[C@H]3O)(C[C@H](O)CC4)[H])(CC1)[H])[H])(CC[C@@]2([C@@H](CCC(O)=O)C)[H])[H]",
    "meta_data": {
        "InChI": "InChI=1S/C24H40O4/c1-14(4-7-21(27)28)17-5-6-18-22-19(9-11-24(17,18)3)23(2)10-8-16(25)12-15(23)13-20(22)26/h14-20,22,25-26H,4-13H2,1-3H3,(H,27,28)/t14-,15+,16-,17-,18+,19+,20-,22+,23+,24-/m1/s1",
        "InChIKey": null,
        "Canonical SMILES": "O=C(O)CCC(C)C1CCC2C3C(O)CC4CC(O)CCC4(C)C3CCC12C",
        "Molecular Formula": "C<sub>24</sub>H<sub>40</sub>O<sub>4</sub>",
        "Molecular Mass": "392.57",
        "Melting Point": "119 °C",
        "Density": "1 g/cm³ (approx) (solid)"
    }
}