{
    "cas_no": "10436-39-2",
    "key_name": "1,1,2,3-Tetrachloro-1-propene",
    "cn_name": "四氯丙烯;1,1,2,3-四氯丙烯;",
    "alternate_name": "1-Propene, 1,1,2,3-tetrachloro-;Propene, 1,1,2,3-tetrachloro-;1,1,2,3-Tetrachloro-1-propene;1,1,2,3-Tetrachloropropene;2,3,3-Trichloroallyl chloride;HCO 1230xa;HCO 1230;HCC 1230xa;1230xa;Genetron 123;HCC-1230xa",
    "duplicated_cas_no": "",
    "SMILES": "C(=C(Cl)Cl)(CCl)Cl",
    "meta_data": {
        "InChI": "InChI=1S/C3H2Cl4/c4-1-2(5)3(6)7/h1H2",
        "InChIKey": null,
        "Canonical SMILES": "ClC(Cl)=C(Cl)CCl",
        "Molecular Formula": "C<sub>3</sub>H<sub>2</sub>Cl<sub>4</sub>",
        "Molecular Mass": "179.86",
        "Boiling Point": "68-69 °C @ Press: 30 Torr",
        "Density": "1.5409 g/cm³ @ Temp: 20 °C"
    }
}