{
    "cas_no": "108-54-3",
    "key_name": "5,6-Dihydro-6-methyl-2<em>H</em>-pyran-2-one",
    "cn_name": null,
    "alternate_name": "2<em>H</em>-Pyran-2-one, 5,6-dihydro-6-methyl-;2-Hexenoic acid, 5-hydroxy-, δ-lactone;2-Hexenoic acid, 5-hydroxy-, lactone;5,6-Dihydro-6-methyl-2<em>H</em>-pyran-2-one;5-Hydroxy-2-hexenoic acid lactone;5-Hydroxyhex-2-enoic acid δ-lactone;6-Methyl-5,6-dihydropyran-2-one;<span class=\"text-smallcaps\">D</smallcap><smallcap>L</span>-Parasorbic acid;(±)-Parasorbic acid;NSC 24508;2-Hexen-5-olide",
    "duplicated_cas_no": "10385-75-8",
    "SMILES": "CC1OC(=O)C=CC1",
    "meta_data": {
        "InChI": "InChI=1S/C6H8O2/c1-5-3-2-4-6(7)8-5/h2,4-5H,3H2,1H3",
        "InChIKey": null,
        "Canonical SMILES": "O=C1OC(C)CC=C1",
        "Molecular Formula": "C<sub>6</sub>H<sub>8</sub>O<sub>2</sub>",
        "Molecular Mass": "112.13",
        "Boiling Point": "110 °C @ Press: 15 Torr"
    }
}