{
    "cas_no": "536-75-4",
    "key_name": "4-Ethylpyridine",
    "cn_name": "4-乙基吡啶;",
    "alternate_name": "Pyridine, 4-ethyl-;4-Ethylpyridine;γ-Ethylpyridine;NSC 822;NSC 965",
    "duplicated_cas_no": "82005-10-5",
    "SMILES": "C(C)C=1C=CN=CC1",
    "meta_data": {
        "InChI": "InChI=1S/C7H9N/c1-2-7-3-5-8-6-4-7/h3-6H,2H2,1H3",
        "InChIKey": null,
        "Canonical SMILES": "N=1C=CC(=CC1)CC",
        "Molecular Formula": "C<sub>7</sub>H<sub>9</sub>N",
        "Molecular Mass": "107.15",
        "Boiling Point": "168.3 °C",
        "Melting Point": "-90.5 °C",
        "Density": "0.9404 g/cm³ @ Temp: 22 °C"
    }
}