{
    "cas_no": "1950-68-1",
    "key_name": "4-Methoxybenzenesulfonic acid hydrazide",
    "cn_name": "4-甲氧苯磺酰肼;",
    "alternate_name": "Benzenesulfonic acid, 4-methoxy-, hydrazide;Benzenesulfonic acid, <em>p</em>-methoxy-, hydrazide;4-Methoxybenzenesulfonic acid hydrazide;<em>p</em>-Methoxybenzenesulfonic acid hydrazide;<em>p</em>-Methoxyphenylsulfonyl hydrazide;(<em>p</em>-Methoxyphenylsulfonyl)hydrazine;(<em>p</em>-Methoxybenzenesulfonyl)hydrazine;<em>p</em>-Methoxybenzenesulfonic hydrazide;4-Methoxybenzenesulfonylhydrazide;<em>p</em>-Methoxybenzenesulfonyl hydrazide;(4-Methoxybenzenesulfonyl)hydrazine;NSC 267215;((4-Methoxyphenyl)sulfonyl)hydrazine;4-Methoxybenzenesulfonohydrazide",
    "duplicated_cas_no": "",
    "SMILES": "S(NN)(=O)(=O)C1=CC=C(OC)C=C1",
    "meta_data": {
        "InChI": "InChI=1S/C7H10N2O3S/c1-12-6-2-4-7(5-3-6)13(10,11)9-8/h2-5,9H,8H2,1H3",
        "InChIKey": null,
        "Canonical SMILES": "O=S(=O)(NN)C1=CC=C(OC)C=C1",
        "Molecular Formula": "C<sub>7</sub>H<sub>10</sub>N<sub>2</sub>O<sub>3</sub>S",
        "Molecular Mass": "202.23",
        "Melting Point": "99 °C"
    }
}