{
    "cas_no": "29334-66-5",
    "key_name": "3-Chloro-6-(1<em>H</em>-pyrazol-1-yl)pyridazine",
    "cn_name": null,
    "alternate_name": "Pyridazine, 3-chloro-6-(1<em>H</em>-pyrazol-1-yl)-;Pyridazine, 3-chloro-6-pyrazol-1-yl-;3-Chloro-6-(1<em>H</em>-pyrazol-1-yl)pyridazine;3-Chloro-6-(1-pyrazolyl)pyridazine",
    "duplicated_cas_no": "",
    "SMILES": "ClC1=CC=C(N=N1)N2C=CC=N2",
    "meta_data": {
        "InChI": "InChI=1S/C7H5ClN4/c8-6-2-3-7(11-10-6)12-5-1-4-9-12/h1-5H",
        "InChIKey": null,
        "Canonical SMILES": "ClC1=NN=C(C=C1)N2N=CC=C2",
        "Molecular Formula": "C<sub>7</sub>H<sub>5</sub>ClN<sub>4</sub>",
        "Molecular Mass": "180.59",
        "Melting Point": "143-144 °C"
    }
}