{
    "cas_no": "84-58-2",
    "key_name": "2,3-Dichloro-5,6-dicyano-1,4-benzoquinone",
    "cn_name": "2,3-二氯-5,6-二氰基-1,4-苯醌;二氯二氰基苯醌;DDQ;",
    "alternate_name": "1,4-Cyclohexadiene-1,2-dicarbonitrile, 4,5-dichloro-3,6-dioxo-;4,5-Dichloro-3,6-dioxo-1,4-cyclohexadiene-1,2-dicarbonitrile;DDQ (oxidizing agent);2,3-Dichloro-5,6-dicyanoquinone;2,3-Dichloro-5,6-dicyanobenzoquinone;2,3-Dichloro-5,6-dicyano-<em>p</em>-quinone;2,3-Dichloro-5,6-dicyano-<em>p</em>-benzoquinone;4,5-Dichloro-3,6-dioxo-1,2-benzenedicarbonitrile;Dichlorodicyanoquinone;Dichlorodicyanobenzoquinone;2,3-Dicyano-5,6-dichloro-1,4-benzoquinone;5,6-Dicyano-2,3-dichloro-<em>p</em>-benzoquinone;1,2-Dichloro-4,5-dicyano-<em>p</em>-benzoquinone;Dichlorodicyano-<em>p</em>-benzoquinone;2,3-Dicyano-5,6-dichlorobenzoquinone;2,3-Chloro-5,6-dicyanoquinone;2,3-Dichlorodicyano-<em>p</em>-benzoquinone;DDQ;2,3-Dichloro-5,6-cyano-1,4-benzoquinone;Dicyanodichloroquinone;5,6-Dichloro-2,3-dicyano-<em>p</em>-benzoquinone;2,3-Dichloro-5,6-dicyano-1,4-benzoquinone;NSC 401087;Dichloro-5,6-dicyano-1,4-benzoquinone",
    "duplicated_cas_no": "",
    "SMILES": "C(#N)C1=C(C#N)C(=O)C(Cl)=C(Cl)C1=O",
    "meta_data": {
        "InChI": "InChI=1S/C8Cl2N2O2/c9-5-6(10)8(14)4(2-12)3(1-11)7(5)13",
        "InChIKey": null,
        "Canonical SMILES": "N#CC=1C(=O)C(Cl)=C(Cl)C(=O)C1C#N",
        "Molecular Formula": "C<sub>8</sub>Cl<sub>2</sub>N<sub>2</sub>O<sub>2</sub>",
        "Molecular Mass": "227.00",
        "Melting Point": "214.5 °C"
    }
}