{
    "cas_no": "50893-53-3",
    "key_name": "1-Chloroethyl chloroformate",
    "cn_name": "1-氯乙基氯甲酸酯;氯甲酸-1-氯乙酯;",
    "alternate_name": "Carbonochloridic acid, 1-chloroethyl ester;1-Chloroethyl chloroformate;α-Chloroethyl chloroformate;1-Chloroethyl carbonochloridate;α-Chloroethoxycarbonyl chloride;Chloroformic acid 1-chloroethyl ester;1-Chlorocarbonyloxy-1-chloroethane;Chloro(1-chloroethoxy)methanone",
    "duplicated_cas_no": "95597-56-1",
    "SMILES": "O(C(C)Cl)C(Cl)=O",
    "meta_data": {
        "InChI": "InChI=1S/C3H4Cl2O2/c1-2(4)7-3(5)6/h2H,1H3",
        "InChIKey": null,
        "Canonical SMILES": "O=C(Cl)OC(Cl)C",
        "Molecular Formula": "C<sub>3</sub>H<sub>4</sub>Cl<sub>2</sub>O<sub>2</sub>",
        "Molecular Mass": "142.97",
        "Boiling Point": "118-119 °C @ Press: 760 Torr",
        "Melting Point": "55-56 °C"
    }
}