{
    "cas_no": "4913-13-7",
    "key_name": "<em>N</em>,<em>N</em>,3,5-Tetramethylaniline",
    "cn_name": "N,N,3,5-四甲基苯胺;",
    "alternate_name": "Benzenamine, <em>N</em>,<em>N</em>,3,5-tetramethyl-;3,5-Xylidine, <em>N</em>,<em>N</em>-dimethyl-;<em>N</em>,<em>N</em>,3,5-Tetramethylbenzenamine;<em>N</em>,<em>N</em>,3,5-Tetramethylaniline;3,5-Dimethyl-<em>N</em>,<em>N</em>-dimethylaniline;3,5,<em>N</em>,<em>N</em>-Tetramethylaniline;(3,5-Dimethylphenyl)dimethylamine;D 7924;<em>N</em>,<em>N</em>-Dimethyl-3,5-xylidine",
    "duplicated_cas_no": "72622-58-3",
    "SMILES": "N(C)(C)C1=CC(C)=CC(C)=C1",
    "meta_data": {
        "InChI": "InChI=1S/C10H15N/c1-8-5-9(2)7-10(6-8)11(3)4/h5-7H,1-4H3",
        "InChIKey": null,
        "Canonical SMILES": "C=1C(=CC(=CC1C)C)N(C)C",
        "Molecular Formula": "C<sub>10</sub>H<sub>15</sub>N",
        "Molecular Mass": "149.23",
        "Boiling Point": "101-103 °C @ Press: 18 Torr"
    }
}