{
    "cas_no": "7648-01-3",
    "key_name": "3-Ethylrhodanine",
    "cn_name": "3-乙基-2-硫代-4-噻唑烷二酮;",
    "alternate_name": "4-Thiazolidinone, 3-ethyl-2-thioxo-;Rhodanine, 3-ethyl-;3-Ethyl-2-thioxo-4-thiazolidinone;3-Ethylrhodanine;<em>N</em>-Ethylrhodanine;3-Ethylrhodamine;3-Ethyl-2-thioxothiazolidin-4-one;3-Ethylthiazolidin-4-one-2-thione;NSC 81656;3-Ethyl-2-thioxo-1,3-thiazolidin-4-one;3-Ethyl-2-sulfanylidene-1,3-thiazolidin-4-one;2-(1,1-Dicyanomethylene)rhodamine",
    "duplicated_cas_no": "",
    "SMILES": "C(C)N1C(=O)CSC1=S",
    "meta_data": {
        "InChI": "InChI=1S/C5H7NOS2/c1-2-6-4(7)3-9-5(6)8/h2-3H2,1H3",
        "InChIKey": null,
        "Canonical SMILES": "O=C1N(C(=S)SC1)CC",
        "Molecular Formula": "C<sub>5</sub>H<sub>7</sub>NOS<sub>2</sub>",
        "Molecular Mass": "161.25",
        "Melting Point": "68 °C"
    }
}