{
    "cas_no": "75-69-4",
    "key_name": "Trichlorofluoromethane",
    "cn_name": "三氯氟甲烷;三氯一氟甲烷;氟利昂-11;",
    "alternate_name": "Methane, trichlorofluoro-;Trichlorofluoromethane;Algofrene Type 1;Electro CF 11;Fluorotrichloromethane;Frigen 11;Genetron 11;Isceon 131;Ledon 11;Monofluorotrichloromethane;Isotron 11;Trichloromonofluoromethane;Freon MF;Freon 11;Frigen 11A;Propellant 11;R 11;Trichlorofluorocarbon;FC 11 (halocarbon);FKW 11;Fluorochloroform;R 11 (refrigerant);FC 11;Kaltron 11;Khladon 11;F 11 (halocarbon);F 11;Halon 11;Refrigerant 11;Daiflon S 1;Daiflon 11;Arcton 11;Frigen S 11;Refrigerant R 11;Fron 11;CFC 11;Genetron 11SBA;Asahifron 11;Trichloromethyl fluoride;R 11SS;Dymel 11;Freon 11A;Fluon 11;Chladone 11;F 211",
    "duplicated_cas_no": "62185-70-0;79620-41-0;83589-40-6;91315-61-6",
    "SMILES": "C(Cl)(Cl)(Cl)F",
    "meta_data": {
        "InChI": "InChI=1S/CCl3F/c2-1(3,4)5",
        "InChIKey": null,
        "Canonical SMILES": "FC(Cl)(Cl)Cl",
        "Molecular Formula": "CCl<sub>3</sub>F",
        "Molecular Mass": "137.37",
        "Boiling Point": "23.7 °C @ Press: 760 Torr",
        "Melting Point": "-111 °C",
        "Density": "1.494 g/cm³ @ Temp: 17.2 °C"
    }
}