{
    "cas_no": "6282-02-6",
    "key_name": "<em>N</em>-(Hydroxymethyl)benzamide",
    "cn_name": "N-羟甲基苯甲酰胺;",
    "alternate_name": "Benzamide, <em>N</em>-(hydroxymethyl)-;<em>N</em>-(Hydroxymethyl)benzamide;<em>N</em>-Methylolbenzamide;<em>N</em>-Monomethylolbenzamide;Monomethylolbenzamide;Benzamidomethanol;NSC 5946",
    "duplicated_cas_no": "",
    "SMILES": "C(NCO)(=O)C1=CC=CC=C1",
    "meta_data": {
        "InChI": "InChI=1S/C8H9NO2/c10-6-9-8(11)7-4-2-1-3-5-7/h1-5,10H,6H2,(H,9,11)",
        "InChIKey": null,
        "Canonical SMILES": "O=C(NCO)C=1C=CC=CC1",
        "Molecular Formula": "C<sub>8</sub>H<sub>9</sub>NO<sub>2</sub>",
        "Molecular Mass": "151.16",
        "Melting Point": "104-106 °C"
    }
}