{
    "cas_no": "1836-62-0",
    "key_name": "2-(2-Methoxyphenoxy)ethanamine",
    "cn_name": "2-甲氧基苯氧基乙胺;",
    "alternate_name": "Ethanamine, 2-(2-methoxyphenoxy)-;Ethylamine, 2-(<em>o</em>-methoxyphenoxy)-;2-(2-Methoxyphenoxy)ethanamine;2-(2-Methoxyphenoxy)ethylamine;2-(<em>o</em>-Methoxyphenoxy)ethylamine;Guaiacoxyethylamine;2-(2-Methoxyphenoxy)ethan-1-amine",
    "duplicated_cas_no": "",
    "SMILES": "O(CCN)C1=C(OC)C=CC=C1",
    "meta_data": {
        "InChI": "InChI=1S/C9H13NO2/c1-11-8-4-2-3-5-9(8)12-7-6-10/h2-5H,6-7,10H2,1H3",
        "InChIKey": null,
        "Canonical SMILES": "O(C=1C=CC=CC1OCCN)C",
        "Molecular Formula": "C<sub>9</sub>H<sub>13</sub>NO<sub>2</sub>",
        "Molecular Mass": "167.21",
        "Boiling Point": "139-141 °C @ Press: 11 Torr"
    }
}