{
    "cas_no": "2941-29-9",
    "key_name": "2-Oxocyclopentanecarbonitrile",
    "cn_name": "2-氰基环戊酮;",
    "alternate_name": "Cyclopentanecarbonitrile, 2-oxo-;2-Oxocyclopentanecarbonitrile;2-Cyanocyclopentanone;NSC 146861;2-Cyano-1-cyclopentanone;2-Oxocyclopentane-1-carbonitrile",
    "duplicated_cas_no": "138260-51-2",
    "SMILES": "C(#N)C1C(=O)CCC1",
    "meta_data": {
        "InChI": "InChI=1S/C6H7NO/c7-4-5-2-1-3-6(5)8/h5H,1-3H2",
        "InChIKey": null,
        "Canonical SMILES": "N#CC1C(=O)CCC1",
        "Molecular Formula": "C<sub>6</sub>H<sub>7</sub>NO",
        "Molecular Mass": "109.13",
        "Boiling Point": "229-230 °C",
        "Density": "1.089 g/cm³ @ Temp: 414 °C"
    }
}