{
    "cas_no": "755037-03-7",
    "key_name": "Regorafenib",
    "cn_name": null,
    "alternate_name": "2-Pyridinecarboxamide, 4-[4-[[[[4-chloro-3-(trifluoromethyl)phenyl]amino]carbonyl]amino]-3-fluorophenoxy]-<em>N</em>-methyl-;4-[4-[[[[4-Chloro-3-(trifluoromethyl)phenyl]amino]carbonyl]amino]-3-fluorophenoxy]-<em>N</em>-methyl-2-pyridinecarboxamide;4-[4-[<em>N</em>′-(4-Chloro-3-trifluoromethylphenyl)ureido]-3-fluorophenoxy]pyridine-2-carboxylic acid methylamide;Regorafenib;BAY 73-4506;Stivarga;Stivargo",
    "duplicated_cas_no": "1219951-07-1;1370461-45-2",
    "SMILES": "O(C=1C=C(C(NC)=O)N=CC1)C2=CC(F)=C(NC(NC3=CC(C(F)(F)F)=C(Cl)C=C3)=O)C=C2",
    "meta_data": {
        "InChI": "InChI=1S/C21H15ClF4N4O3/c1-27-19(31)18-10-13(6-7-28-18)33-12-3-5-17(16(23)9-12)30-20(32)29-11-2-4-15(22)14(8-11)21(24,25)26/h2-10H,1H3,(H,27,31)(H2,29,30,32)",
        "InChIKey": null,
        "Canonical SMILES": "O=C(NC1=CC=C(Cl)C(=C1)C(F)(F)F)NC2=CC=C(OC=3C=CN=C(C3)C(=O)NC)C=C2F",
        "Molecular Formula": "C<sub>21</sub>H<sub>15</sub>ClF<sub>4</sub>N<sub>4</sub>O<sub>3</sub>",
        "Molecular Mass": "482.82",
        "Melting Point": "206-207 °C"
    }
}