{
    "cas_no": "262450-65-7",
    "key_name": "3-Bromo-5-methoxybenzaldehyde",
    "cn_name": null,
    "alternate_name": "Benzaldehyde, 3-bromo-5-methoxy-;3-Bromo-5-methoxybenzaldehyde;5-Bromo-3-methoxybenzaldehyde",
    "duplicated_cas_no": "",
    "SMILES": "C(=O)C1=CC(OC)=CC(Br)=C1",
    "meta_data": {
        "InChI": "InChI=1S/C8H7BrO2/c1-11-8-3-6(5-10)2-7(9)4-8/h2-5H,1H3",
        "InChIKey": null,
        "Canonical SMILES": "O=CC=1C=C(Br)C=C(OC)C1",
        "Molecular Formula": "C<sub>8</sub>H<sub>7</sub>BrO<sub>2</sub>",
        "Molecular Mass": "215.04",
        "Melting Point": "45-46 °C"
    }
}