{
    "cas_no": "563-16-6",
    "key_name": "3,3-Dimethylhexane",
    "cn_name": "3,3-二甲基已烷;",
    "alternate_name": "Hexane, 3,3-dimethyl-;3,3-Dimethylhexane;NSC 74174",
    "duplicated_cas_no": "",
    "SMILES": "C(CCC)(CC)(C)C",
    "meta_data": {
        "InChI": "InChI=1S/C8H18/c1-5-7-8(3,4)6-2/h5-7H2,1-4H3",
        "InChIKey": null,
        "Canonical SMILES": "CCCC(C)(C)CC",
        "Molecular Formula": "C<sub>8</sub>H<sub>18</sub>",
        "Molecular Mass": "114.23",
        "Boiling Point": "111.9 °C",
        "Melting Point": "-126.1 °C",
        "Density": "0.7116 g/cm³ @ Temp: 20 °C"
    }
}