{
    "cas_no": "90-47-1",
    "key_name": "Xanthone",
    "cn_name": "占吨酮;氧蒽酮;",
    "alternate_name": "9<em>H</em>-Xanthen-9-one;Xanthen-9-one;Benzophenone oxide;Dibenzo-γ-pyrone;Diphenylene ketone oxide;Genicide;9-Oxoxanthene;Xanthone;9<em>H</em>-Xanthene, 9-oxo-;Xanthenone;9-Xanthone;NSC 14978;Dibenzo[<em>b</em>,<em>e</em>]pyran-10-one",
    "duplicated_cas_no": "",
    "SMILES": "O=C1C=2C(OC=3C1=CC=CC3)=CC=CC2",
    "meta_data": {
        "InChI": "InChI=1S/C13H8O2/c14-13-9-5-1-3-7-11(9)15-12-8-4-2-6-10(12)13/h1-8H",
        "InChIKey": null,
        "Canonical SMILES": "O=C1C=2C=CC=CC2OC=3C=CC=CC31",
        "Molecular Formula": "C<sub>13</sub>H<sub>8</sub>O<sub>2</sub>",
        "Molecular Mass": "196.20",
        "Boiling Point": "351 °C",
        "Melting Point": "174 °C",
        "Density": "1.391 g/cm³"
    }
}