{
    "cas_no": "26159-35-3",
    "key_name": "(+)-Naproxen methyl ester",
    "cn_name": null,
    "alternate_name": "2-Naphthaleneacetic acid, 6-methoxy-α-methyl-, methyl ester, (α<em>S</em>)-;2-Naphthaleneacetic acid, 6-methoxy-α-methyl-, methyl ester, (<em>S</em>)-;Naproxen methyl ester;(<em>S</em>)-Naproxen methyl ester;(+)-Naproxen methyl ester;Methyl (<em>S</em>)-2-(6-methoxynaphthalen-2-yl)propanoate;2-Naphthaleneacetic acid 6-methoxy-α-methyl-, methyl ester (αS)-",
    "duplicated_cas_no": "",
    "SMILES": "[C@H](C(OC)=O)(C)C1=CC2=C(C=C(OC)C=C2)C=C1",
    "meta_data": {
        "InChI": "InChI=1S/C15H16O3/c1-10(15(16)18-3)11-4-5-13-9-14(17-2)7-6-12(13)8-11/h4-10H,1-3H3/t10-/m0/s1",
        "InChIKey": null,
        "Canonical SMILES": "O=C(OC)C(C1=CC=C2C=C(OC)C=CC2=C1)C",
        "Molecular Formula": "C<sub>15</sub>H<sub>16</sub>O<sub>3</sub>",
        "Molecular Mass": "244.29",
        "Melting Point": "87 °C"
    }
}