{
    "cas_no": "6213-94-1",
    "key_name": "(Ethenyloxy)trimethylsilane",
    "cn_name": "乙烯氧基三甲基硅烷;三甲基乙烯氧基硅烷;乙烯氧基三甲基硅烷;",
    "alternate_name": "Silane, (ethenyloxy)trimethyl-;Silane, trimethyl(vinyloxy)-;(Ethenyloxy)trimethylsilane;Trimethylsilyl vinyl ether;Trimethyl(vinyloxy)silane;Vinyl trimethylsilyl ether;(Trimethylsiloxy)ethylene;[(Trimethylsilyl)oxy]ethene;(Trimethylsilyloxy)ethylene;Trimethylsiloxyethene;(Vinyloxy)trimethylsilane;Trimethyl(ethenoxy)silane",
    "duplicated_cas_no": "",
    "SMILES": "O([Si](C)(C)C)C=C",
    "meta_data": {
        "InChI": "InChI=1S/C5H12OSi/c1-5-6-7(2,3)4/h5H,1H2,2-4H3",
        "InChIKey": null,
        "Canonical SMILES": "O(C=C)[Si](C)(C)C",
        "Molecular Formula": "C<sub>5</sub>H<sub>12</sub>OSi",
        "Molecular Mass": "116.23",
        "Boiling Point": "74-75 °C",
        "Density": "0.770 g/cm³"
    }
}