{
    "cas_no": "55290-64-7",
    "key_name": "Dimethipin",
    "cn_name": "噻节因;噻节因标准品；N252;",
    "alternate_name": "1,4-Dithiin, 2,3-dihydro-5,6-dimethyl-, 1,1,4,4-tetraoxide;N 252;2,3-Dihydro-5,6-dimethyl-1,4-dithiine 1,1,4,4-tetroxide;UBI-N 252;Harvade;2,3-Dihydro-5,6-dimethyl-1,4-dithiin 1,1,4,4-tetroxide;Tetrathiin (desiccant);Oxidimethiin;Tetrathiin;Dimethipin;Harvade 25F;Harveyd F-25;Harvade F 25",
    "duplicated_cas_no": "",
    "SMILES": "CC1=C(C)S(=O)(=O)CCS1(=O)=O",
    "meta_data": {
        "InChI": "InChI=1S/C6H10O4S2/c1-5-6(2)12(9,10)4-3-11(5,7)8/h3-4H2,1-2H3",
        "InChIKey": null,
        "Canonical SMILES": "O=S1(=O)C(=C(C)S(=O)(=O)CC1)C",
        "Molecular Formula": "C<sub>6</sub>H<sub>10</sub>O<sub>4</sub>S<sub>2</sub>",
        "Molecular Mass": "210.27",
        "Melting Point": "167-169 °C",
        "Density": "1.59 g/cm³ @ Temp: 23 °C"
    }
}