{
    "cas_no": "2934-05-6",
    "key_name": "2,4-Diisopropylphenol",
    "cn_name": "2,4-二异丙基苯酚;2,4-二异丙基苯酚;",
    "alternate_name": "Phenol, 2,4-bis(1-methylethyl)-;Phenol, 2,4-diisopropyl-;2,4-Bis(1-methylethyl)phenol;2,4-Diisopropylphenol;2,4-Di(propan-2-yl)phenol;2,4-Bis(propan-2-yl)phenol",
    "duplicated_cas_no": "",
    "SMILES": "C(C)(C)C1=CC(C(C)C)=CC=C1O",
    "meta_data": {
        "InChI": "InChI=1S/C12H18O/c1-8(2)10-5-6-12(13)11(7-10)9(3)4/h5-9,13H,1-4H3",
        "InChIKey": null,
        "Canonical SMILES": "OC1=CC=C(C=C1C(C)C)C(C)C",
        "Molecular Formula": "C<sub>12</sub>H<sub>18</sub>O",
        "Molecular Mass": "178.27",
        "Boiling Point": "228-230 °C",
        "Density": "0.9825 g/cm³ @ Temp: 25 °C"
    }
}