{
    "cas_no": "5274-70-4",
    "key_name": "2-Hydroxy-3-nitrobenzaldehyde",
    "cn_name": "3-硝基水杨醛;2-羟基-3-硝基苯甲醛;",
    "alternate_name": "Benzaldehyde, 2-hydroxy-3-nitro-;Salicylaldehyde, 3-nitro-;2-Hydroxy-3-nitrobenzaldehyde;3-Nitro-2-hydroxybenzaldehyde;3-Nitrosalicylaldehyde;NSC 38026",
    "duplicated_cas_no": "1186390-87-3",
    "SMILES": "N(=O)(=O)C1=C(O)C(C=O)=CC=C1",
    "meta_data": {
        "InChI": "InChI=1S/C7H5NO4/c9-4-5-2-1-3-6(7(5)10)8(11)12/h1-4,10H",
        "InChIKey": null,
        "Canonical SMILES": "O=CC1=CC=CC(=C1O)N(=O)=O",
        "Molecular Formula": "C<sub>7</sub>H<sub>5</sub>NO<sub>4</sub>",
        "Molecular Mass": "167.12",
        "Melting Point": "108-109 °C"
    }
}