{
    "cas_no": "6921-35-3",
    "key_name": "3,3-Dimethyloxetane",
    "cn_name": "3,3-二甲基乙氧;3,3-二甲基乙氧,98%;",
    "alternate_name": "Oxetane, 3,3-dimethyl-;Propane, 1,3-epoxy-2,2-dimethyl-;3,3-Dimethyloxetane;3,3-Dimethyltrimethylene oxide;3,3-Dimethyloxacyclobutane;β,β-Dimethyloxetane",
    "duplicated_cas_no": "",
    "SMILES": "CC1(C)COC1",
    "meta_data": {
        "InChI": "InChI=1S/C5H10O/c1-5(2)3-6-4-5/h3-4H2,1-2H3",
        "InChIKey": null,
        "Canonical SMILES": "O1CC(C)(C)C1",
        "Molecular Formula": "C<sub>5</sub>H<sub>10</sub>O",
        "Molecular Mass": "86.13",
        "Boiling Point": "80.6 °C",
        "Density": "0.8348 g/cm³ @ Temp: 20 °C"
    }
}