{
    "cas_no": "67808-66-6",
    "key_name": "3-Thiophenecarboxylic acid, 5-formyl-, methyl ester",
    "cn_name": "2-醛基噻吩-4-甲酸甲酯;",
    "alternate_name": "3-Thiophenecarboxylic acid, 5-formyl-, methyl ester;Methyl 5-formylthiophene-3-carboxylate;5-Formylthiophene-3-carboxylic acid methyl ester;3-Methoxycarbonyl-thiophene-5-carboxaldehyde",
    "duplicated_cas_no": "",
    "SMILES": "C(OC)(=O)C=1C=C(C=O)SC1",
    "meta_data": {
        "InChI": "InChI=1S/C7H6O3S/c1-10-7(9)5-2-6(3-8)11-4-5/h2-4H,1H3",
        "InChIKey": null,
        "Canonical SMILES": "O=CC=1SC=C(C1)C(=O)OC",
        "Molecular Formula": "C<sub>7</sub>H<sub>6</sub>O<sub>3</sub>S",
        "Molecular Mass": "170.19",
        "Melting Point": "114-116 °C"
    }
}