{
    "cas_no": "13528-93-3",
    "key_name": "1,1′-(1,2-Ethanediyl)bis[1-chloro-1,1-dimethylsilane]",
    "cn_name": "1,1,4,4-四甲基-1,4-二氯乙烯乙硅烷;",
    "alternate_name": "Silane, 1,1′-(1,2-ethanediyl)bis[1-chloro-1,1-dimethyl-;2,5-Disilahexane, 2,5-dichloro-2,5-dimethyl-;Silane, 1,2-ethanediylbis[chlorodimethyl-;1,1′-(1,2-Ethanediyl)bis[1-chloro-1,1-dimethylsilane];1,2-Bis(chlorodimethylsilyl)ethane;Ethylenebis[chlorodimethylsilane];1,2-Bis(dimethylchlorosilyl)ethane;2,5-Dimethyl-2,5-dichloro-2,5-disilahexane;LS 7080;1,1,4,4-Tetramethyl-1,4-dichlorodisilylethylene;Chloro[2-[chlorodimethylsilyl]ethyl]dimethylsilane",
    "duplicated_cas_no": "",
    "SMILES": "C(C[Si](C)(C)Cl)[Si](C)(C)Cl",
    "meta_data": {
        "InChI": "InChI=1S/C6H16Cl2Si2/c1-9(2,7)5-6-10(3,4)8/h5-6H2,1-4H3",
        "InChIKey": null,
        "Canonical SMILES": "Cl[Si](C)(C)CC[Si](Cl)(C)C",
        "Molecular Formula": "C<sub>6</sub>H<sub>16</sub>Cl<sub>2</sub>Si<sub>2</sub>",
        "Molecular Mass": "215.27",
        "Boiling Point": "198-199 °C",
        "Melting Point": "36-39 °C"
    }
}