{
    "cas_no": "23466-27-5",
    "key_name": "Ethyl 1-methyl-1<em>H</em>-pyrrole-2-carboxylate",
    "cn_name": "1-甲基吡咯-2-甲酸乙酯;1-甲基-1H-吡咯-2-甲酸乙酯;",
    "alternate_name": "1<em>H</em>-Pyrrole-2-carboxylic acid, 1-methyl-, ethyl ester;Pyrrole-2-carboxylic acid, 1-methyl-, ethyl ester;Ethyl 1-methyl-1<em>H</em>-pyrrole-2-carboxylate;Ethyl <em>N</em>-methyl-2-pyrrolecarboxylate;Ethyl 1-methyl-2-pyrrolecarboxylate",
    "duplicated_cas_no": "",
    "SMILES": "C(OCC)(=O)C=1N(C)C=CC1",
    "meta_data": {
        "InChI": "InChI=1S/C8H11NO2/c1-3-11-8(10)7-5-4-6-9(7)2/h4-6H,3H2,1-2H3",
        "InChIKey": null,
        "Canonical SMILES": "O=C(OCC)C1=CC=CN1C",
        "Molecular Formula": "C<sub>8</sub>H<sub>11</sub>NO<sub>2</sub>",
        "Molecular Mass": "153.18",
        "Boiling Point": "94 °C @ Press: 18 Torr"
    }
}