{
    "cas_no": "32428-71-0",
    "key_name": "2-Chloro-<em>N</em>-(2-ethyl-6-methylphenyl)acetamide",
    "cn_name": null,
    "alternate_name": "Acetamide, 2-chloro-<em>N</em>-(2-ethyl-6-methylphenyl)-;<em>o</em>-Acetotoluidide, 2-chloro-6′-ethyl-;2-Chloro-<em>N</em>-(2-ethyl-6-methylphenyl)acetamide;2-Chloro-2′-ethyl-6′-methylacetanilide;2′-Ethyl-6′-methyl-2-chloroacetanilide;2′-Methyl-6′-ethyl-α-chloroacetanilide;CGA 13656;<em>N</em>-(Chloroacetyl)-2-ethyl-6-methylaniline;CMEPA",
    "duplicated_cas_no": "",
    "SMILES": "N(C(CCl)=O)C1=C(CC)C=CC=C1C",
    "meta_data": {
        "InChI": "InChI=1S/C11H14ClNO/c1-3-9-6-4-5-8(2)11(9)13-10(14)7-12/h4-6H,3,7H2,1-2H3,(H,13,14)",
        "InChIKey": null,
        "Canonical SMILES": "O=C(NC=1C(=CC=CC1CC)C)CCl",
        "Molecular Formula": "C<sub>11</sub>H<sub>14</sub>ClNO",
        "Molecular Mass": "211.69",
        "Melting Point": "120-121 °C"
    }
}