{
    "cas_no": "147027-10-9",
    "key_name": "(1<em>R</em>,2<em>S</em>,5<em>R</em>)-5-Methyl-2-(1-methylethyl)cyclohexyl (2<em>R</em>,5<em>S</em>)-5-(4-amino-2-oxo-1(2<em>H</em>)-pyrimidinyl)-1,3-oxathiolane-2-carboxylate",
    "cn_name": "5-(4-氨基-2-氧代-2H-嘧啶-1-基)-[1,3]1,3-氧硫杂环戊-2-甲酸孟酯;",
    "alternate_name": "1,3-Oxathiolane-2-carboxylic acid, 5-(4-amino-2-oxo-1(2<em>H</em>)-pyrimidinyl)-, (1<em>R</em>,2<em>S</em>,5<em>R</em>)-5-methyl-2-(1-methylethyl)cyclohexyl ester, (2<em>R</em>,5<em>S</em>)-;1,3-Oxathiolane-2-carboxylic acid, 5-(4-amino-2-oxo-1(2<em>H</em>)-pyrimidinyl)-, 5-methyl-2-(1-methylethyl)cyclohexyl ester, [1<em>R</em>-[1α(2<em>R</em>*,5<em>S</em>*),2β,5α]]-;(1<em>R</em>,2<em>S</em>,5<em>R</em>)-5-Methyl-2-(1-methylethyl)cyclohexyl (2<em>R</em>,5<em>S</em>)-5-(4-amino-2-oxo-1(2<em>H</em>)-pyrimidinyl)-1,3-oxathiolane-2-carboxylate;(2<em>R</em>,5<em>S</em>)-5-(4-Amino-2-oxo-1,2-dihydro-1-pyrimidinyl)-1,3-oxathiolane-2-carboxylic acid (1<em>R</em>,2<em>S</em>,5<em>R</em>)-2-isopropyl-5-methylcyclohexyl ester",
    "duplicated_cas_no": "",
    "SMILES": "O=C1N(C=CC(N)=N1)[C@H]2O[C@@H](C(O[C@H]3[C@H](C(C)C)CC[C@@H](C)C3)=O)SC2",
    "meta_data": {
        "InChI": "InChI=1S/C18H27N3O4S/c1-10(2)12-5-4-11(3)8-13(12)24-16(22)17-25-15(9-26-17)21-7-6-14(19)20-18(21)23/h6-7,10-13,15,17H,4-5,8-9H2,1-3H3,(H2,19,20,23)/t11-,12+,13-,15+,17-/m1/s1",
        "InChIKey": null,
        "Canonical SMILES": "O=C1N=C(N)C=CN1C2OC(SC2)C(=O)OC3CC(C)CCC3C(C)C",
        "Molecular Formula": "C<sub>18</sub>H<sub>27</sub>N<sub>3</sub>O<sub>4</sub>S",
        "Molecular Mass": "381.49",
        "Melting Point": "203-206 °C"
    }
}