{
    "cas_no": "179688-29-0",
    "key_name": "6,7-Bis(2-methoxyethoxy)quinazolin-4(3<em>H</em>)-one",
    "cn_name": "6,7-二甲氧乙氧基喹唑啉-4-酮;6,7-双(2-甲氧基乙氧基)-3,4-二氢喹唑啉-4-酮;",
    "alternate_name": "4(3<em>H</em>)-Quinazolinone, 6,7-bis(2-methoxyethoxy)-;4(1<em>H</em>)-Quinazolinone, 6,7-bis(2-methoxyethoxy)-;6,7-Bis(2-methoxyethoxy)-4(3<em>H</em>)-quinazolinone;6,7-Di(2-methoxyethoxy)-3,4-dihydroquinazolin-4-one;6,7-Bis(2-methoxyethoxy)-3,4-dihydroquinazolin-4-one;6,7-Bis(2-methoxyethoxy)quinazolin-4(3<em>H</em>)-one;6,7-Bis(2-methoxyethoxy)-quinazoline-4(3<em>H</em>)-one",
    "duplicated_cas_no": "",
    "SMILES": "O=C1C=2C(=CC(OCCOC)=C(OCCOC)C2)NC=N1",
    "meta_data": {
        "InChI": "InChI=1S/C14H18N2O5/c1-18-3-5-20-12-7-10-11(15-9-16-14(10)17)8-13(12)21-6-4-19-2/h7-9H,3-6H2,1-2H3,(H,15,16,17)",
        "InChIKey": null,
        "Canonical SMILES": "O=C1N=CNC2=CC(OCCOC)=C(OCCOC)C=C12",
        "Molecular Formula": "C<sub>14</sub>H<sub>18</sub>N<sub>2</sub>O<sub>5</sub>",
        "Molecular Mass": "294.30",
        "Melting Point": "182 °C"
    }
}