{
    "cas_no": "749-02-0",
    "key_name": "Spiperone",
    "cn_name": "螺哌隆;螺哌隆;",
    "alternate_name": "1,3,8-Triazaspiro[4.5]decan-4-one, 8-[4-(4-fluorophenyl)-4-oxobutyl]-1-phenyl-;1,3,8-Triazaspiro[4.5]decan-4-one, 8-[3-(<em>p</em>-fluorobenzoyl)propyl]-1-phenyl-;8-[4-(4-Fluorophenyl)-4-oxobutyl]-1-phenyl-1,3,8-triazaspiro[4.5]decan-4-one;R 5147;8-[3-(4-Fluorobenzoyl)propyl]-4-oxo-1-phenyl-1,3,8-triazaspiro[4,5]decane;8-[3-(<em>p</em>-Fluorobenzoyl)propyl]-1-phenyl-1,3,8-triazaspiro[4.5]decan-4-one;Spiperone;Spiroperidol;Spiropitan;Spiroperidone;NSC 170983;MeSH ID: D013134",
    "duplicated_cas_no": "",
    "SMILES": "O=C1C2(N(CN1)C3=CC=CC=C3)CCN(CCCC(=O)C4=CC=C(F)C=C4)CC2",
    "meta_data": {
        "InChI": "InChI=1S/C23H26FN3O2/c24-19-10-8-18(9-11-19)21(28)7-4-14-26-15-12-23(13-16-26)22(29)25-17-27(23)20-5-2-1-3-6-20/h1-3,5-6,8-11H,4,7,12-17H2,(H,25,29)",
        "InChIKey": null,
        "Canonical SMILES": "O=C(C1=CC=C(F)C=C1)CCCN2CCC3(C(=O)NCN3C=4C=CC=CC4)CC2",
        "Molecular Formula": "C<sub>23</sub>H<sub>26</sub>FN<sub>3</sub>O<sub>2</sub>",
        "Molecular Mass": "395.47",
        "Melting Point": "93.6-190 °C"
    }
}