{
    "cas_no": "6610-56-6",
    "key_name": "Glochidiol",
    "cn_name": null,
    "alternate_name": "Lup-20(29)-ene-1,3-diol, (1β,3α)-;Glochidiol;Lup-20(29)-ene-1β,3α-diol;(1β,3α)-Lup-20(29)-ene-1,3-diol;Lup-20(30)-ene-1β,3α-diol",
    "duplicated_cas_no": "",
    "SMILES": "C[C@]12[C@@]([C@]3(C)[C@@](CC1)(C(C)(C)[C@H](O)C[C@H]3O)[H])(CC[C@]4([C@@]2(C)CC[C@]5(C)[C@@]4([C@H](C(C)=C)CC5)[H])[H])[H]",
    "meta_data": {
        "InChI": "InChI=1S/C30H50O2/c1-18(2)19-11-13-27(5)15-16-28(6)20(25(19)27)9-10-22-29(28,7)14-12-21-26(3,4)23(31)17-24(32)30(21,22)8/h19-25,31-32H,1,9-17H2,2-8H3/t19-,20+,21-,22-,23+,24+,25+,27+,28+,29+,30-/m0/s1",
        "InChIKey": null,
        "Canonical SMILES": "OC1CC(O)C2(C)C(CCC3(C)C2CCC4C5C(C(=C)C)CCC5(C)CCC43C)C1(C)C",
        "Molecular Formula": "C<sub>30</sub>H<sub>50</sub>O<sub>2</sub>",
        "Molecular Mass": "442.72",
        "Melting Point": "260-262 °C"
    }
}