{
    "cas_no": "513-49-5",
    "key_name": "(<em>S</em>)-<em>sec</em>-Butylamine",
    "cn_name": "(S)-2-氨基丁烷;",
    "alternate_name": "2-Butanamine, (2<em>S</em>)-;<em>sec</em>-Butylamine, (<em>S</em>)-;2-Butanamine, (<em>S</em>)-;(2<em>S</em>)-2-Butanamine;(+)-<em>sec</em>-Butylamine;(<em>S</em>)-<em>sec</em>-Butylamine;(+)-2-Butylamine;(+)-(<em>S</em>)-<em>sec</em>-Butylamine;(<em>S</em>)-(+)-2-Aminobutane;(<em>S</em>)-2-Butanamine;(<em>S</em>)-2-Aminobutane;(+)-2-Aminobutane;(<em>S</em>)-(+)-<em>sec</em>-Butylamine;(<em>S</em>)-1-Methylpropylamine;(<em>S</em>)-2-Butylamine;(<em>S</em>)-(+)-2-Butylamine;(<em>S</em>)-<em>N</em>-<em>sec</em>-Butylamine;[(1<em>S</em>)-1-Methylpropyl]amine;(2<em>S</em>)-Butan-2-amine;(2S)-Butan-2-amine",
    "duplicated_cas_no": "776995-07-4",
    "SMILES": "[C@@H](CC)(C)N",
    "meta_data": {
        "InChI": "InChI=1S/C4H11N/c1-3-4(2)5/h4H,3,5H2,1-2H3/t4-/m0/s1",
        "InChIKey": null,
        "Canonical SMILES": "NC(C)CC",
        "Molecular Formula": "C<sub>4</sub>H<sub>11</sub>N",
        "Molecular Mass": "73.14",
        "Boiling Point": "62.5 °C"
    }
}