{
    "cas_no": "111080-65-0",
    "key_name": "1,1-Dimethylethyl <em>N</em>-(4-pyridinylmethyl)carbamate",
    "cn_name": "4-(叔丁氧羰基氨基甲基)吡啶;4-(BOC-氨基甲基)吡啶;",
    "alternate_name": "Carbamic acid, <em>N</em>-(4-pyridinylmethyl)-, 1,1-dimethylethyl ester;Carbamic acid, (4-pyridinylmethyl)-, 1,1-dimethylethyl ester;1,1-Dimethylethyl <em>N</em>-(4-pyridinylmethyl)carbamate;[(Pyridin-4-yl)methyl]carbamic acid tert-butyl ester;4-(<em>tert</em>-Butoxycarbonylamino)methylpyridine",
    "duplicated_cas_no": "",
    "SMILES": "C(NC(OC(C)(C)C)=O)C=1C=CN=CC1",
    "meta_data": {
        "InChI": "InChI=1S/C11H16N2O2/c1-11(2,3)15-10(14)13-8-9-4-6-12-7-5-9/h4-7H,8H2,1-3H3,(H,13,14)",
        "InChIKey": null,
        "Canonical SMILES": "O=C(OC(C)(C)C)NCC=1C=CN=CC1",
        "Molecular Formula": "C<sub>11</sub>H<sub>16</sub>N<sub>2</sub>O<sub>2</sub>",
        "Molecular Mass": "208.26",
        "Melting Point": "70-75 °C"
    }
}