{
    "cas_no": "3970-62-5",
    "key_name": "2,2-Dimethyl-3-pentanol",
    "cn_name": "2,2-二甲基-3-戊醇;2,4-二甲基-3-戊醇;",
    "alternate_name": "3-Pentanol, 2,2-dimethyl-;2,2-Dimethyl-3-pentanol;(±)-2,2-Dimethyl-3-pentanol;NSC 42943",
    "duplicated_cas_no": "148151-70-6",
    "SMILES": "C(C(C)(C)C)(CC)O",
    "meta_data": {
        "InChI": "InChI=1S/C7H16O/c1-5-6(8)7(2,3)4/h6,8H,5H2,1-4H3",
        "InChIKey": null,
        "Canonical SMILES": "OC(CC)C(C)(C)C",
        "Molecular Formula": "C<sub>7</sub>H<sub>16</sub>O",
        "Molecular Mass": "116.20",
        "Boiling Point": "135 °C",
        "Melting Point": "-5 °C",
        "Density": "0.82462 g/cm³ @ Temp: 20 °C"
    }
}