{
    "cas_no": "31928-47-9",
    "key_name": "4-Bromo-2-chloro-1-iodobenzene",
    "cn_name": "4-溴-2-氯-1-碘苯;",
    "alternate_name": "Benzene, 4-bromo-2-chloro-1-iodo-;4-Bromo-2-chloro-1-iodobenzene;1-Bromo-3-chloro-4-iodobenzene;4-Bromo-2-chloroiodobenzene;3-Chloro-4-iodobromobenzene",
    "duplicated_cas_no": "",
    "SMILES": "ClC1=C(I)C=CC(Br)=C1",
    "meta_data": {
        "InChI": "InChI=1S/C6H3BrClI/c7-4-1-2-6(9)5(8)3-4/h1-3H",
        "InChIKey": null,
        "Canonical SMILES": "ClC1=CC(Br)=CC=C1I",
        "Molecular Formula": "C<sub>6</sub>H<sub>3</sub>BrClI",
        "Molecular Mass": "317.35",
        "Melting Point": "33 °C"
    }
}