{
    "cas_no": "56961-25-2",
    "key_name": "4-Amino-3,5-dichlorobenzoic acid",
    "cn_name": null,
    "alternate_name": "Benzoic acid, 4-amino-3,5-dichloro-;4-Amino-3,5-dichlorobenzoic acid;3,5-Dichloro-4-aminobenzoic acid;NSC 100894",
    "duplicated_cas_no": "",
    "SMILES": "C(O)(=O)C1=CC(Cl)=C(N)C(Cl)=C1",
    "meta_data": {
        "InChI": "InChI=1S/C7H5Cl2NO2/c8-4-1-3(7(11)12)2-5(9)6(4)10/h1-2H,10H2,(H,11,12)",
        "InChIKey": null,
        "Canonical SMILES": "O=C(O)C1=CC(Cl)=C(N)C(Cl)=C1",
        "Molecular Formula": "C<sub>7</sub>H<sub>5</sub>Cl<sub>2</sub>NO<sub>2</sub>",
        "Molecular Mass": "206.03",
        "Melting Point": "291 °C"
    }
}