{
    "cas_no": "17557-67-4",
    "key_name": "6-(Methylsulfonyl)-2-benzothiazolamine",
    "cn_name": "2-氨基-6-甲砜基苯并噻唑;",
    "alternate_name": "2-Benzothiazolamine, 6-(methylsulfonyl)-;Benzothiazole, 2-amino-6-(methylsulfonyl)-;6-(Methylsulfonyl)-2-benzothiazolamine;2-Amino-6-(methylsulfonyl)benzothiazole;2-Amino-6-methanesulfonylbenzothiazole;[6-(Methanesulfonyl)benzothiazol-2-yl]amine;SKA 16;6-Methylsulfonylbenzothiazol-2-amine;6-Methylsulfonyl-2-aminobenzothiazole;6-(Methanesulfonyl)benzothiazol-2-amine",
    "duplicated_cas_no": "",
    "SMILES": "S(C)(=O)(=O)C=1C=C2C(=CC1)N=C(N)S2",
    "meta_data": {
        "InChI": "InChI=1S/C8H8N2O2S2/c1-14(11,12)5-2-3-6-7(4-5)13-8(9)10-6/h2-4H,1H3,(H2,9,10)",
        "InChIKey": null,
        "Canonical SMILES": "O=S(=O)(C=1C=CC=2N=C(SC2C1)N)C",
        "Molecular Formula": "C<sub>8</sub>H<sub>8</sub>N<sub>2</sub>O<sub>2</sub>S<sub>2</sub>",
        "Molecular Mass": "228.29",
        "Melting Point": "226-228 °C"
    }
}