{
    "cas_no": "10030-78-1",
    "key_name": "<em>N</em><sup>2</sup>-Methylguanine",
    "cn_name": null,
    "alternate_name": "6<em>H</em>-Purin-6-one, 1,9-dihydro-2-(methylamino)-;Guanine, <em>N</em>-methyl-;6<em>H</em>-Purin-6-one, 1,7-dihydro-2-(methylamino)-;1,9-Dihydro-2-(methylamino)-6<em>H</em>-purin-6-one;6-Hydroxy-2-(methylamino)purine;2-Methylamino-6-oxopurine;<em>N</em><sup>2</sup>-Methylguanine;2-(Methylamino)-6-hydroxypurine;NSC 90400;2-(Methylamino)-1<em>H</em>-purin-6(7<em>H</em>)-one;2-(Methylamino)-6,9-dihydro-1<em>H</em>-purin-6-one;2-(Methylamino)-6,7-dihydro-3<em>H</em>-purin-6-one;2-(Methylamino)-3,7-dihydropurin-6-one",
    "duplicated_cas_no": "938-93-2;10231-83-1",
    "SMILES": "O=C1C2=C(NC(NC)=N1)N=CN2",
    "meta_data": {
        "InChI": "InChI=1S/C6H7N5O/c1-7-6-10-4-3(5(12)11-6)8-2-9-4/h2H,1H3,(H3,7,8,9,10,11,12)",
        "InChIKey": null,
        "Canonical SMILES": "O=C1N=C(NC=2N=CNC12)NC",
        "Molecular Formula": "C<sub>6</sub>H<sub>7</sub>N<sub>5</sub>O",
        "Molecular Mass": "165.15",
        "Melting Point": "&gt;300 °C (decomp)"
    }
}