{
    "cas_no": "10605-40-0",
    "key_name": "Chloro(3-chloropropyl)dimethylsilane",
    "cn_name": "二甲基-3-氯丙基氯代硅烷;",
    "alternate_name": "Silane, chloro(3-chloropropyl)dimethyl-;Chloro(3-chloropropyl)dimethylsilane;(3-Chloropropyl)dimethylchlorosilane;(3-Chloropropyl)dimethylsilyl chloride;3-(Chlorodimethylsilyl)propyl chloride;Dimethyl(3-chloropropyl)chlorosilane",
    "duplicated_cas_no": "",
    "SMILES": "C([Si](C)(C)Cl)CCCl",
    "meta_data": {
        "InChI": "InChI=1S/C5H12Cl2Si/c1-8(2,7)5-3-4-6/h3-5H2,1-2H3",
        "InChIKey": null,
        "Canonical SMILES": "ClCCC[Si](Cl)(C)C",
        "Molecular Formula": "C<sub>5</sub>H<sub>12</sub>Cl<sub>2</sub>Si",
        "Molecular Mass": "171.14",
        "Boiling Point": "179 °C",
        "Density": "1.043 g/cm³ @ Temp: 25 °C"
    }
}