{
    "cas_no": "3147-64-6",
    "key_name": "2-Hydroxy-6-methoxybenzoic acid",
    "cn_name": "2-羟基-6-甲氧基苯甲酸;6-甲氧基水杨酸;",
    "alternate_name": "Benzoic acid, 2-hydroxy-6-methoxy-;<em>o</em>-Anisic acid, 6-hydroxy-;2-Hydroxy-6-methoxybenzoic acid;6-Methoxysalicylic acid;2-Hydroxy-6-methoxybenzenecarboxylic acid",
    "duplicated_cas_no": "",
    "SMILES": "C(O)(=O)C1=C(OC)C=CC=C1O",
    "meta_data": {
        "InChI": "InChI=1S/C8H8O4/c1-12-6-4-2-3-5(9)7(6)8(10)11/h2-4,9H,1H3,(H,10,11)",
        "InChIKey": null,
        "Canonical SMILES": "O=C(O)C=1C(O)=CC=CC1OC",
        "Molecular Formula": "C<sub>8</sub>H<sub>8</sub>O<sub>4</sub>",
        "Molecular Mass": "168.15",
        "Melting Point": "135 °C"
    }
}