{
    "cas_no": "2701-50-0",
    "key_name": "(1β,2β)-17-(Acetyloxy)-1,2-dihydro-3′<em>H</em>-cyclopropa[1,2]pregna-1,4,6-triene-3,20-dione",
    "cn_name": "乙酰环丙孕酮醋酸酯;醋酸环丙孕酮乙酰物;17-羟基-1a,2a-亚甲基孕-4,6-二烯-3,20-二酮醋酸酯;",
    "alternate_name": "3′<em>H</em>-Cyclopropa[1,2]pregna-1,4,6-triene-3,20-dione, 17-(acetyloxy)-1,2-dihydro-, (1β,2β)-;3′<em>H</em>-Cyclopropa[1,2]pregna-1,4,6-triene-3,20-dione, 1β,2β-dihydro-17-hydroxy-, acetate;Pregna-4,6-diene-3,20-dione, 17-hydroxy-1α,2α-methylene-, acetate;Cyclopropa[1,2]cyclopenta[<em>a</em>]phenanthrene, 3′<em>H</em>-cyclopropa[1,2]pregna-1,4,6-triene-3,20-dione deriv.;(1β,2β)-17-(Acetyloxy)-1,2-dihydro-3′<em>H</em>-cyclopropa[1,2]pregna-1,4,6-triene-3,20-dione;17-Hydroxy-1α,2α-methylenepregna-4,6-diene-3,20-dione acetate",
    "duplicated_cas_no": "",
    "SMILES": "C[C@@]12[C@@]3([C@]([C@]4([C@](C)(CC3)[C@@](OC(C)=O)(C(C)=O)CC4)[H])(C=CC1=CC(=O)[C@]5([C@@]2(C5)[H])[H])[H])[H]",
    "meta_data": {
        "InChI": "InChI=1S/C24H30O4/c1-13(25)24(28-14(2)26)10-8-18-16-6-5-15-11-21(27)17-12-20(17)23(15,4)19(16)7-9-22(18,24)3/h5-6,11,16-20H,7-10,12H2,1-4H3/t16-,17+,18-,19-,20-,22-,23-,24-/m0/s1",
        "InChIKey": null,
        "Canonical SMILES": "O=C(OC1(C(=O)C)CCC2C3C=CC4=CC(=O)C5CC5C4(C)C3CCC21C)C",
        "Molecular Formula": "C<sub>24</sub>H<sub>30</sub>O<sub>4</sub>",
        "Molecular Mass": "382.49",
        "Melting Point": "280-281 °C"
    }
}