{
    "cas_no": "54303-31-0",
    "key_name": "3-(2-Methoxyethoxy)propylamine",
    "cn_name": "γ-甲乙氧基丙胺;3-甲乙氧基丙胺;",
    "alternate_name": "1-Propanamine, 3-(2-methoxyethoxy)-;Propylamine, 3-(2-methoxyethoxy)-;3-(2-Methoxyethoxy)-1-propanamine;3-(2-Methoxyethoxy)propylamine;3-2-Methoxyethoxy-1-propanamine;1-(3-Aminopropoxy)-2-methoxyethane",
    "duplicated_cas_no": "",
    "SMILES": "O(CCCN)CCOC",
    "meta_data": {
        "InChI": "InChI=1S/C6H15NO2/c1-8-5-6-9-4-2-3-7/h2-7H2,1H3",
        "InChIKey": null,
        "Canonical SMILES": "O(C)CCOCCCN",
        "Molecular Formula": "C<sub>6</sub>H<sub>15</sub>NO<sub>2</sub>",
        "Molecular Mass": "133.19",
        "Boiling Point": "79 °C @ Press: 12 Torr"
    }
}