{
    "cas_no": "60559-98-0",
    "key_name": "<em>N</em>-Cyano-<em>N</em>′-(1,1-dimethylpropyl)-<em>N</em>′′-3-pyridinylguanidine",
    "cn_name": null,
    "alternate_name": "Guanidine, <em>N</em>-cyano-<em>N</em>′-(1,1-dimethylpropyl)-<em>N</em>′′-3-pyridinyl-;<em>N</em>-Cyano-<em>N</em>′-(1,1-dimethylpropyl)-<em>N</em>′′-3-pyridinylguanidine;P 1075",
    "duplicated_cas_no": "",
    "SMILES": "C(=NC(CC)(C)C)(NC=1C=CC=NC1)NC#N",
    "meta_data": {
        "InChI": "InChI=1S/C12H17N5/c1-4-12(2,3)17-11(15-9-13)16-10-6-5-7-14-8-10/h5-8H,4H2,1-3H3,(H2,15,16,17)",
        "InChIKey": null,
        "Canonical SMILES": "N#CNC(=NC(C)(C)CC)NC=1C=NC=CC1",
        "Molecular Formula": "C<sub>12</sub>H<sub>17</sub>N<sub>5</sub>",
        "Molecular Mass": "231.30",
        "Melting Point": "186-187 °C"
    }
}