{
    "cas_no": "613-62-7",
    "key_name": "Benzyl 2-naphthyl ether",
    "cn_name": "2-萘酚苄基醚;beta-萘酚苄基醚;2-萘酚苄醚;",
    "alternate_name": "Naphthalene, 2-(phenylmethoxy)-;Naphthalene, 2-(benzyloxy)-;2-(Phenylmethoxy)naphthalene;2-(Benzyloxy)naphthalene;Benzyl 2-naphthyl ether;Benzyl β-naphthyl ether;β-Naphthyl benzyl ether;β-Naphthol benzyl ether;β-(Benzyloxy)naphthalene;BON (ether);BON;Pergaspeed 305",
    "duplicated_cas_no": "",
    "SMILES": "O(CC1=CC=CC=C1)C2=CC3=C(C=C2)C=CC=C3",
    "meta_data": {
        "InChI": "InChI=1S/C17H14O/c1-2-6-14(7-3-1)13-18-17-11-10-15-8-4-5-9-16(15)12-17/h1-12H,13H2",
        "InChIKey": null,
        "Canonical SMILES": "O(C=1C=CC=2C=CC=CC2C1)CC=3C=CC=CC3",
        "Molecular Formula": "C<sub>17</sub>H<sub>14</sub>O",
        "Molecular Mass": "234.29",
        "Melting Point": "111-112 °C"
    }
}