{
    "cas_no": "621-63-6",
    "key_name": "2,2-Diethoxyethanol",
    "cn_name": "2,2-二乙氧基乙醇;",
    "alternate_name": "Ethanol, 2,2-diethoxy-;Glycolaldehyde, diethyl acetal;2,2-Diethoxyethanol;Hydroxyacetaldehyde diethyl acetal;2-Hydroxyacetaldehyde diethyl acetal;NSC 9255",
    "duplicated_cas_no": "401573-62-4",
    "SMILES": "C(OCC)(OCC)CO",
    "meta_data": {
        "InChI": "InChI=1S/C6H14O3/c1-3-8-6(5-7)9-4-2/h6-7H,3-5H2,1-2H3",
        "InChIKey": null,
        "Canonical SMILES": "OCC(OCC)OCC",
        "Molecular Formula": "C<sub>6</sub>H<sub>14</sub>O<sub>3</sub>",
        "Molecular Mass": "134.17",
        "Boiling Point": "167 °C",
        "Density": "0.984 g/cm³ @ Temp: 22 °C"
    }
}