{
    "cas_no": "2051-05-0",
    "key_name": "Sulfurous acid, dipentyl ester",
    "cn_name": "亚硫酸二戊酯;?硫酸二戊酯;",
    "alternate_name": "Sulfurous acid, dipentyl ester;Pentyl sulfite, (C<sub>5</sub>H<sub>11</sub>O)<sub>2</sub>SO;Dipentyl sulfite",
    "duplicated_cas_no": "",
    "SMILES": "O(S(OCCCCC)=O)CCCCC",
    "meta_data": {
        "InChI": "InChI=1S/C10H22O3S/c1-3-5-7-9-12-14(11)13-10-8-6-4-2/h3-10H2,1-2H3",
        "InChIKey": null,
        "Canonical SMILES": "O=S(OCCCCC)OCCCCC",
        "Molecular Formula": "C<sub>10</sub>H<sub>22</sub>O<sub>3</sub>S",
        "Molecular Mass": "222.34",
        "Boiling Point": "137 °C @ Press: 20 Torr",
        "Density": "0.9821 g/cm³ @ Temp: 16 °C"
    }
}