{
    "cas_no": "39891-04-8",
    "key_name": "5-Fluoronicotinaldehyde",
    "cn_name": null,
    "alternate_name": "3-Pyridinecarboxaldehyde, 5-fluoro-;5-Fluoro-3-pyridinecarboxaldehyde;3-Fluoro-5-formylpyridine;5-Fluoronicotinaldehyde;3-Fluoropyridine-5-carboxaldehyde",
    "duplicated_cas_no": "",
    "SMILES": "C(=O)C=1C=C(F)C=NC1",
    "meta_data": {
        "InChI": "InChI=1S/C6H4FNO/c7-6-1-5(4-9)2-8-3-6/h1-4H",
        "InChIKey": null,
        "Canonical SMILES": "O=CC=1C=NC=C(F)C1",
        "Molecular Formula": "C<sub>6</sub>H<sub>4</sub>FNO",
        "Molecular Mass": "125.10",
        "Boiling Point": "71-76 °C @ Press: 10 Torr"
    }
}