{
    "cas_no": "37699-43-7",
    "key_name": "2,3-Dimethyl-4-nitropyridine <em>N</em>-oxide",
    "cn_name": "2,3-二甲基-4-硝基吡啶-N-氧化物;",
    "alternate_name": "Pyridine, 2,3-dimethyl-4-nitro-, 1-oxide;2,3-Lutidine, 4-nitro-, 1-oxide;2,3-Dimethyl-4-nitropyridine 1-oxide;2,3-Dimethyl-4-nitropyridine <em>N</em>-oxide;4-Nitro-2,3-dimethylpyridine <em>N</em>-oxide;2,3-Dimethyl-4-nitro-1-oxidopyridin-1-ium;2,3-Dimethyl-4-nitropyridin-1-ium-1-olate",
    "duplicated_cas_no": "",
    "SMILES": "N(=O)(=O)C=1C(C)=C(C)N(=O)=CC1",
    "meta_data": {
        "InChI": "InChI=1S/C7H8N2O3/c1-5-6(2)8(10)4-3-7(5)9(11)12/h3-4H,1-2H3",
        "InChIKey": null,
        "Canonical SMILES": "O=N(=O)C1=CC=N(=O)C(=C1C)C",
        "Molecular Formula": "C<sub>7</sub>H<sub>8</sub>N<sub>2</sub>O<sub>3</sub>",
        "Molecular Mass": "168.15",
        "Melting Point": "91.5-93.0 °C"
    }
}