{
    "cas_no": "57-87-4",
    "key_name": "Ergosterol",
    "cn_name": "麦角固醇;麦角甾醇;",
    "alternate_name": "Ergosta-5,7,22-trien-3-ol, (3β,22<em>E</em>)-;Ergosterol;(3β,22<em>E</em>)-Ergosta-5,7,22-trien-3-ol;Ergosterin;Provitamin D<sub>2</sub>;Provitamin D;24-Methylcholesta-5,7,22-trien-3β-ol;24<em>R</em>-Methylcholesta-5,7,22<em>E</em>-trien-3β-ol;24α-Methyl-22<em>E</em>-dehydrocholesterol;(24<em>R</em>)-Ergosta-5,7,22-trien-3β-ol;(22<em>E</em>,24<em>R</em>)-Ergosta-5,7,22-trien-3β-ol;3β-Hydroxyergosta-5,7,22-triene;(22E,24R)-5α,8α-Epidioxy-ergosta-6,22-dien-3β-ol;MeSH ID: D004875",
    "duplicated_cas_no": "18844-74-1;37571-51-0;2170258-75-8",
    "SMILES": "C[C@@]12[C@](C=3[C@@]([C@]4(C)C(=CC3)C[C@@H](O)CC4)(CC1)[H])(CC[C@@]2([C@@H](/C=C/[C@@H](C(C)C)C)C)[H])[H]",
    "meta_data": {
        "InChI": "InChI=1S/C28H44O/c1-18(2)19(3)7-8-20(4)24-11-12-25-23-10-9-21-17-22(29)13-15-27(21,5)26(23)14-16-28(24,25)6/h7-10,18-20,22,24-26,29H,11-17H2,1-6H3/b8-7+/t19-,20+,22-,24+,25-,26-,27-,28+/m0/s1",
        "InChIKey": null,
        "Canonical SMILES": "OC1CC2=CC=C3C(CCC4(C)C3CCC4C(C=CC(C)C(C)C)C)C2(C)CC1",
        "Molecular Formula": "C<sub>28</sub>H<sub>44</sub>O",
        "Molecular Mass": "396.65",
        "Boiling Point": "250 °C @ Press: 0.01 Torr",
        "Melting Point": "170 °C",
        "Density": "1.04 g/cm³"
    }
}