{
    "cas_no": "2973-50-4",
    "key_name": "2-Aminobenzeneacetonitrile",
    "cn_name": "2-氨基苯乙腈;",
    "alternate_name": "Benzeneacetonitrile, 2-amino-;Acetonitrile, (<em>o</em>-aminophenyl)-;2-Aminobenzeneacetonitrile;<em>o</em>-Aminobenzyl cyanide;2-Aminobenzyl cyanide;(2-Aminophenyl)acetonitrile;2-(Cyanomethyl)aniline",
    "duplicated_cas_no": "",
    "SMILES": "C(C#N)C1=C(N)C=CC=C1",
    "meta_data": {
        "InChI": "InChI=1S/C8H8N2/c9-6-5-7-3-1-2-4-8(7)10/h1-4H,5,10H2",
        "InChIKey": null,
        "Canonical SMILES": "N#CCC=1C=CC=CC1N",
        "Molecular Formula": "C<sub>8</sub>H<sub>8</sub>N<sub>2</sub>",
        "Molecular Mass": "132.16",
        "Melting Point": "72 °C"
    }
}