{
    "cas_no": "99-33-2",
    "key_name": "3,5-Dinitrobenzoyl chloride",
    "cn_name": "3,5-二硝基苯甲酰氯;",
    "alternate_name": "Benzoyl chloride, 3,5-dinitro-;3,5-Dinitrobenzoyl chloride;3,5-Dinitrobenzoic acid chloride;NSC 2697",
    "duplicated_cas_no": "",
    "SMILES": "C(Cl)(=O)C1=CC(N(=O)=O)=CC(N(=O)=O)=C1",
    "meta_data": {
        "InChI": "InChI=1S/C7H3ClN2O5/c8-7(11)4-1-5(9(12)13)3-6(2-4)10(14)15/h1-3H",
        "InChIKey": null,
        "Canonical SMILES": "O=C(Cl)C=1C=C(C=C(C1)N(=O)=O)N(=O)=O",
        "Molecular Formula": "C<sub>7</sub>H<sub>3</sub>ClN<sub>2</sub>O<sub>5</sub>",
        "Molecular Mass": "230.56",
        "Boiling Point": "211-213 °C @ Press: 16 Torr",
        "Melting Point": "74 °C"
    }
}