{
    "cas_no": "127-21-9",
    "key_name": "1,3-Dichlorotetrafluoroacetone",
    "cn_name": "敌锈酮;二氯四氟丙酮;1,3-二氯四氟丙酮;",
    "alternate_name": "2-Propanone, 1,3-dichloro-1,1,3,3-tetrafluoro-;1,3-Dichloro-1,1,3,3-tetrafluoro-2-propanone;DCTFA;<em>sym</em>-Dichlorotetrafluoroacetone;Stauffer N 3412;1,3-Dichlorotetrafluoroacetone;1,1,3,3-Tetrafluoro-1,3-dichloroacetone;1,3-Dichloro-1,1,3,3-tetrafluoroacetone;Bis(chlorodifluoromethyl) ketone;1,3-Dichlorotetrafluoropropan-2-one;NSC 62662",
    "duplicated_cas_no": "",
    "SMILES": "C(C(Cl)(F)F)(C(Cl)(F)F)=O",
    "meta_data": {
        "InChI": "InChI=1S/C3Cl2F4O/c4-2(6,7)1(10)3(5,8)9",
        "InChIKey": null,
        "Canonical SMILES": "O=C(C(F)(F)Cl)C(F)(F)Cl",
        "Molecular Formula": "C<sub>3</sub>Cl<sub>2</sub>F<sub>4</sub>O",
        "Molecular Mass": "198.93",
        "Boiling Point": "44 °C"
    }
}