{
    "cas_no": "40487-42-1",
    "key_name": "Pendimethalin",
    "cn_name": "二甲戊灵;二甲戊乐灵;菜草灵;施田补;胺硝草;除草通;N-(1-乙基丙基)-2,6-二硝基-3,4-二甲基苯胺;",
    "alternate_name": "Benzenamine, <em>N</em>-(1-ethylpropyl)-3,4-dimethyl-2,6-dinitro-;<em>N</em>-(1-Ethylpropyl)-3,4-dimethyl-2,6-dinitrobenzenamine;Prowl;AC 92553;Stomp;Penoxalin;<em>N</em>-(1-Ethylpropyl)-2,6-dinitro-3,4-xylidine;Penoxaline;Pendimethalin;3,4-Dimethyl-2,6-dinitro-<em>N</em>-(1-ethylpropyl)aniline;Phenoxalin;Stomp 330E;Stomp 330D;Stomp 330;<em>N</em>-(1-Ethylpropyl)-3,4-dimethyl-2,6-dinitroaniline;Accotab;Pendimethaline;SWGC;Southern Weed Grass Control;Herbadox;Pendulum;3,4-Dimethyl-2,6-dinitro-<em>N</em>-(1′-ethylpropyl)aniline;Prowl 3.3;Acumen;Pendimax;Most Micro;Ornamental Weedgrass Control;OWC;Panida;Panida 330EC;Prowl 400;Stomp 330EC;Activus EC;Gogosan;3,4-Dimethyl-2,6-dinitro-<em>N</em>-(3-pentanyl)aniline;3,4-Dimethyl-2,6-dinitro-<em>N</em>-(pentan-3-yl)aniline;Prowl H2O;Stomp Aqua;Pendulum 2G",
    "duplicated_cas_no": "39336-60-2;64667-17-0;64719-41-1;155421-40-2",
    "SMILES": "N(C(CC)CC)C1=C(N(=O)=O)C(C)=C(C)C=C1N(=O)=O",
    "meta_data": {
        "InChI": "InChI=1S/C13H19N3O4/c1-5-10(6-2)14-12-11(15(17)18)7-8(3)9(4)13(12)16(19)20/h7,10,14H,5-6H2,1-4H3",
        "InChIKey": null,
        "Canonical SMILES": "O=N(=O)C=1C=C(C(=C(C1NC(CC)CC)N(=O)=O)C)C",
        "Molecular Formula": "C<sub>13</sub>H<sub>19</sub>N<sub>3</sub>O<sub>4</sub>",
        "Molecular Mass": "281.31",
        "Boiling Point": "330 °C",
        "Melting Point": "56-57 °C",
        "Density": "1.19 g/cm³ @ Temp: 25 °C"
    }
}