{
    "cas_no": "1119-97-7",
    "key_name": "Tetradecyltrimethylammonium bromide",
    "cn_name": "N,N,N-三甲基-1-十四烷基溴化铵;十四烷基三甲基氯化铵;肉豆蔻基三甲基溴化铵;",
    "alternate_name": "1-Tetradecanaminium, <em>N</em>,<em>N</em>,<em>N</em>-trimethyl-, bromide (1:1);Ammonium, trimethyltetradecyl-, bromide;Trimethyltetradecylammonium bromide;1-Tetradecanaminium, <em>N</em>,<em>N</em>,<em>N</em>-trimethyl-, bromide;Morpan T;Tetradonium bromide;Mytab;Myristyltrimethylammonium bromide;Trimethylmyristylammonium bromide;<em>N</em>,<em>N</em>,<em>N</em>-Trimethyl-1-tetradecanaminium bromide;Quaternium 13;<em>n</em>-Tetradecyltrimethylammonium bromide;MTAB;Querton 14Br40;Tetradecyltrimethylammonium bromide;TTAB;TTAB (surfactant);Pentonium 4Br40;Microcide II;Myrtrimonium bromide;Cetrimide BP;<em>N</em>-Tetradecyl-<em>N</em>,<em>N</em>,<em>N</em>-trimethylammonium bromide;(1-Tetradecyl)trimethylammonium bromide;C14TAB;MiTMAB",
    "duplicated_cas_no": "114568-24-0;2222790-04-5",
    "SMILES": "C(CCCCCCCCCCC)CC[N+](C)(C)C.[Br-]",
    "meta_data": {
        "InChI": "InChI=1S/C17H38N.BrH/c1-5-6-7-8-9-10-11-12-13-14-15-16-17-18(2,3)4;/h5-17H2,1-4H3;1H/q+1;/p-1",
        "InChIKey": null,
        "Canonical SMILES": "[Br-].CCCCCCCCCCCCCC[N+](C)(C)C",
        "Molecular Formula": "C<sub>17</sub>H<sub>38</sub>N.Br",
        "Molecular Mass": "",
        "Melting Point": "247.5 °C",
        "Density": "1.00 g/cm³"
    }
}