{
    "cas_no": "4399-80-8",
    "key_name": "Carbamoyl-PROXYL",
    "cn_name": null,
    "alternate_name": "1-Pyrrolidinyloxy, 3-(aminocarbonyl)-2,2,5,5-tetramethyl-;1-Pyrrolidinyloxy, 3-carbamoyl-2,2,5,5-tetramethyl-;3-(Aminocarbonyl)-2,2,5,5-tetramethyl-1-pyrrolidinyloxy;2,2,5,5-Tetramethyl-3-carbamoyl-1-pyrrolidinyloxy;2,2,5,5-Tetramethylpyrrolidine-1-oxyl-3-carboxamide;3-Carbamoyl-2,2,5,5-tetramethylpyrrolidinooxyl;3-Carbamoyl-2,2,5,5-tetramethylpyrrolidine-1-oxyl;2,2,5,5-Tetramethyl-3-carbamidopyrrolidine-1-oxyl;Tempamide;T 518;Proxad;CPROXYL;3-Carbamoyl-2,2,5,5-tetramethyl-1-pyrrolidinyloxy;Carbamoyl-PROXYL;3-Carbamoylproxyl;NSC 152272;Pirolid;CM-PROXYL;CmP;3-Carbamoyl-2,2,5,5-tetramethylpyrrolidine-<em>N</em>-oxyl",
    "duplicated_cas_no": "55805-96-4",
    "SMILES": "",
    "meta_data": {
        "InChI": "",
        "InChIKey": null,
        "Canonical SMILES": "",
        "Molecular Formula": "C<sub>9</sub>H<sub>17</sub>N<sub>2</sub>O<sub>2</sub>",
        "Molecular Mass": "",
        "Melting Point": "203-204 °C"
    }
}