{
    "cas_no": "349-96-2",
    "key_name": "4-Nitrobenzenesulfonyl fluoride",
    "cn_name": "4-硝基苯磺酰氟;",
    "alternate_name": "Benzenesulfonyl fluoride, 4-nitro-;Benzenesulfonyl fluoride, <em>p</em>-nitro-;4-Nitrobenzenesulfonyl fluoride;<em>p</em>-Nitrobenzenesulfonyl fluoride;4-Nitrophenylsulfonyl fluoride;4-Nitrobenzene-1-sulfonyl fluoride",
    "duplicated_cas_no": "",
    "SMILES": "S(F)(=O)(=O)C1=CC=C(N(=O)=O)C=C1",
    "meta_data": {
        "InChI": "InChI=1S/C6H4FNO4S/c7-13(11,12)6-3-1-5(2-4-6)8(9)10/h1-4H",
        "InChIKey": null,
        "Canonical SMILES": "O=N(=O)C1=CC=C(C=C1)S(=O)(=O)F",
        "Molecular Formula": "C<sub>6</sub>H<sub>4</sub>FNO<sub>4</sub>S",
        "Molecular Mass": "205.16",
        "Melting Point": "79 °C"
    }
}