{
    "cas_no": "5077-67-8",
    "key_name": "1-Hydroxy-2-butanone",
    "cn_name": "1-羟基-2-丁酮;1-羟基-2-丁酮;",
    "alternate_name": "2-Butanone, 1-hydroxy-;1-Hydroxy-2-butanone;2-Oxobutanol;2-Oxobutan-1-ol",
    "duplicated_cas_no": "",
    "SMILES": "C(CC)(CO)=O",
    "meta_data": {
        "InChI": "InChI=1S/C4H8O2/c1-2-4(6)3-5/h5H,2-3H2,1H3",
        "InChIKey": null,
        "Canonical SMILES": "O=C(CO)CC",
        "Molecular Formula": "C<sub>4</sub>H<sub>8</sub>O<sub>2</sub>",
        "Molecular Mass": "88.11",
        "Boiling Point": "160 °C",
        "Density": "1.0272 g/cm³ @ Temp: 20 °C"
    }
}