{
    "cas_no": "7585-39-9",
    "key_name": "β-Cyclodextrin",
    "cn_name": "β-环糊精;",
    "alternate_name": "β-Cyclodextrin;Cycloheptaamylose;2,4,7,9,12,14,17,19,22,24,27,29,32,34-Tetradecaoxaoctacyclo[31.2.2.2<sup>3,6</sup>.2<sup>8,11</sup>.2<sup>13,16</sup>.2<sup>18,21</sup>.2<sup>23,26</sup>.2<sup>28,31</sup>]nonatetracontane, β-cyclodextrin deriv.;Dextrin, β-cyclo;Cycloheptaglucosan;Cycloheptaglucan;β-Cycloamylose;Cyclomaltoheptaose;β-Cycloheptaamylose;Schardinger β-dextrin;β-Dextrin;Stereoisomer of 5,10,15,20,25,30,35-heptakis(hydroxymethyl)-2,4,7,9,12,14,17,19,22,24,27,29,32,34-tetradecaoxaoctacyclo[31.2.2.2<sup>3,6</sup>.2<sup>8,11</sup>.2<sup>13,16</sup>.2<sup>18,21</sup>.2<sup>23,26</sup>.2<sup>28,31</sup>]nonatetracontane-36,37,38,39,40,41,42,43,44,45,46,47,48,49-tetradecol;NSC 314334;Celdex N;Ringdex B;Ringdex BL;Rhodocap N;Betadex;Kleptose;Kleptose B;Celdex B 100;Cavamax W 7;BW 7;NSC 269471;BW 7 (polysaccharide);Cyclodextrin Beta W 7M1.8;Celdex B 100z;Cibatex OC-CLD;Rindex B;Celdex B 100H;Dexy Pearl 100;CAVAMAX W7 Pharma;Cavamax W 7 Food;Cawatex W 7;CYL 3190;B 100H;Cavatex W 7;Dexipar β-100;HP-β-CD;VTS 270;Kleptose STD;BCD;Adrabetadex;Cavitron W7 HP5;Cavitron W7 HP7;Trappsol Cyclo;HRBS-Q 009;VAR 200",
    "duplicated_cas_no": "37331-89-8;47918-72-9;449728-55-6;896437-63-1;1187028-35-8;1269982-56-0;1532526-96-7;1714824-77-7;2569195-37-3;2592632-33-0",
    "SMILES": "C(O)[C@@H]1[C@@]2([C@H](O)C(O)[C@](O1)(O[C@@]3([C@@H](CO)O[C@@]([C@H](O)[C@H]3O)(O[C@@]4([C@@H](CO)O[C@@]([C@H](O)[C@H]4O)(O[C@@]5([C@@H](CO)O[C@](O[C@]6([C@H](O)[C@@H](O)[C@@](O[C@]7([C@H](O)[C@@H](O)[C@@](O[C@]8([C@H](O)[C@@H](O)[C@@](O2)(O[C@@H]8CO)[H])[H])(O[C@@H]7CO)[H])[H])(O[C@@H]6CO)[H])[H])([C@H](O)[C@H]5O)[H])[H])[H])[H])[H])[H])[H])[H]",
    "meta_data": {
        "InChI": "InChI=1S/C42H70O35/c43-1-8-29-15(50)22(57)36(64-8)72-30-9(2-44)66-38(24(59)17(30)52)74-32-11(4-46)68-40(26(61)19(32)54)76-34-13(6-48)70-42(28(63)21(34)56)77-35-14(7-49)69-41(27(62)20(35)55)75-33-12(5-47)67-39(25(60)18(33)53)73-31-10(3-45)65-37(71-29)23(58)16(31)51/h8-63H,1-7H2/t8-,9-,10-,11-,12-,13-,14-,15-,16-,17-,18-,19-,20-,21-,22-,23-,24-,25-,26-,27-,28?,29-,30-,31-,32-,33-,34-,35-,36-,37-,38-,39-,40-,41-,42-/m1/s1",
        "InChIKey": null,
        "Canonical SMILES": "OCC1OC2OC3C(O)C(O)C(OC3CO)OC4C(O)C(O)C(OC4CO)OC5C(O)C(O)C(OC5CO)OC6C(O)C(O)C(OC6CO)OC7C(O)C(O)C(OC7CO)OC8C(O)C(O)C(OC8CO)OC1C(O)C2O",
        "Molecular Formula": "C<sub>42</sub>H<sub>70</sub>O<sub>35</sub>",
        "Molecular Mass": "1134.98",
        "Melting Point": "293-294 °C (decomp)",
        "Density": "0.4-0.7 g/cm³"
    }
}