{
    "cas_no": "533-37-9",
    "key_name": "6,7-Dihydro-5<em>H</em>-cyclopenta[<em>b</em>]pyridine",
    "cn_name": "2,3-环戊烯并吡啶;",
    "alternate_name": "5<em>H</em>-Cyclopenta[<em>b</em>]pyridine, 6,7-dihydro-;5<em>H</em>-1-Pyrindine, 6,7-dihydro-;6,7-Dihydro-5<em>H</em>-cyclopenta[<em>b</em>]pyridine;Pyrindan;2,3-Cyclopentenopyridine;6,7-Dihydro-5<em>H</em>-pyrindine;6,7-Dihydro-5<em>H</em>-[1]pyrindine",
    "duplicated_cas_no": "",
    "SMILES": "C1=2C(CCC1)=NC=CC2",
    "meta_data": {
        "InChI": "InChI=1S/C8H9N/c1-3-7-4-2-6-9-8(7)5-1/h2,4,6H,1,3,5H2",
        "InChIKey": null,
        "Canonical SMILES": "N=1C=CC=C2C1CCC2",
        "Molecular Formula": "C<sub>8</sub>H<sub>9</sub>N",
        "Molecular Mass": "119.16",
        "Boiling Point": "90 °C @ Press: 11 Torr",
        "Melting Point": "117 °C",
        "Density": "1.0359 g/cm³ @ Temp: 20 °C"
    }
}