{
    "cas_no": "64372-56-1",
    "key_name": "1-[3-(Dimethylamino)propyl]-1-(4-fluorophenyl)-1,3-dihydro-5-isobenzofurancarboxamide",
    "cn_name": null,
    "alternate_name": "5-Isobenzofurancarboxamide, 1-[3-(dimethylamino)propyl]-1-(4-fluorophenyl)-1,3-dihydro-;1-[3-(Dimethylamino)propyl]-1-(4-fluorophenyl)-1,3-dihydro-5-isobenzofurancarboxamide;1-[3-(Dimethylamino)propyl]-1-(4-fluorophenyl)-3<em>H</em>-2-benzofuran-5-carboxamide",
    "duplicated_cas_no": "",
    "SMILES": "C(CCN(C)C)C1(C=2C(CO1)=CC(C(N)=O)=CC2)C3=CC=C(F)C=C3",
    "meta_data": {
        "InChI": "InChI=1S/C20H23FN2O2/c1-23(2)11-3-10-20(16-5-7-17(21)8-6-16)18-9-4-14(19(22)24)12-15(18)13-25-20/h4-9,12H,3,10-11,13H2,1-2H3,(H2,22,24)",
        "InChIKey": null,
        "Canonical SMILES": "O=C(N)C1=CC=C2C(=C1)COC2(C3=CC=C(F)C=C3)CCCN(C)C",
        "Molecular Formula": "C<sub>20</sub>H<sub>23</sub>FN<sub>2</sub>O<sub>2</sub>",
        "Molecular Mass": "342.41",
        "Melting Point": "126-128 °C"
    }
}