{
    "cas_no": "2469-99-0",
    "key_name": "3-Oxobutanenitrile",
    "cn_name": "氰基丙酮;3-氧代丁腈;",
    "alternate_name": "Butanenitrile, 3-oxo-;Acetoacetonitrile;3-Oxobutanenitrile;Cyanoacetone;Acetylacetonitrile;3-Oxobutyronitrile;α-Cyanoacetone",
    "duplicated_cas_no": "",
    "SMILES": "C(C(C)=O)C#N",
    "meta_data": {
        "InChI": "InChI=1S/C4H5NO/c1-4(6)2-3-5/h2H2,1H3",
        "InChIKey": null,
        "Canonical SMILES": "N#CCC(=O)C",
        "Molecular Formula": "C<sub>4</sub>H<sub>5</sub>NO",
        "Molecular Mass": "83.09",
        "Boiling Point": "92-94 °C @ Press: 10 Torr"
    }
}