{
    "cas_no": "331741-94-7",
    "key_name": "Muraglitazar",
    "cn_name": null,
    "alternate_name": "Glycine, <em>N</em>-[(4-methoxyphenoxy)carbonyl]-<em>N</em>-[[4-[2-(5-methyl-2-phenyl-4-oxazolyl)ethoxy]phenyl]methyl]-;<em>N</em>-[(4-Methoxyphenoxy)carbonyl]-<em>N</em>-[[4-[2-(5-methyl-2-phenyl-4-oxazolyl)ethoxy]phenyl]methyl]glycine;BMS 298585;Muraglitazar;Pargluva",
    "duplicated_cas_no": "",
    "SMILES": "C(COC1=CC=C(CN(C(OC2=CC=C(OC)C=C2)=O)CC(O)=O)C=C1)C=3N=C(OC3C)C4=CC=CC=C4",
    "meta_data": {
        "InChI": "InChI=1S/C29H28N2O7/c1-20-26(30-28(37-20)22-6-4-3-5-7-22)16-17-36-24-10-8-21(9-11-24)18-31(19-27(32)33)29(34)38-25-14-12-23(35-2)13-15-25/h3-15H,16-19H2,1-2H3,(H,32,33)",
        "InChIKey": null,
        "Canonical SMILES": "O=C(O)CN(C(=O)OC1=CC=C(OC)C=C1)CC2=CC=C(OCCC=3N=C(OC3C)C=4C=CC=CC4)C=C2",
        "Molecular Formula": "C<sub>29</sub>H<sub>28</sub>N<sub>2</sub>O<sub>7</sub>",
        "Molecular Mass": "516.54",
        "Melting Point": "139.1-140.2 °C"
    }
}