{
    "cas_no": "879085-55-9",
    "key_name": "Vismodegib",
    "cn_name": null,
    "alternate_name": "Benzamide, 2-chloro-<em>N</em>-[4-chloro-3-(2-pyridinyl)phenyl]-4-(methylsulfonyl)-;2-Chloro-<em>N</em>-[4-chloro-3-(2-pyridinyl)phenyl]-4-(methylsulfonyl)benzamide;GDC 0449;Vismodegib;Erivedge",
    "duplicated_cas_no": "",
    "SMILES": "ClC=1C(=CC(NC(=O)C2=C(Cl)C=C(S(C)(=O)=O)C=C2)=CC1)C3=CC=CC=N3",
    "meta_data": {
        "InChI": "InChI=1S/C19H14Cl2N2O3S/c1-27(25,26)13-6-7-14(17(21)11-13)19(24)23-12-5-8-16(20)15(10-12)18-4-2-3-9-22-18/h2-11H,1H3,(H,23,24)",
        "InChIKey": null,
        "Canonical SMILES": "O=C(NC=1C=CC(Cl)=C(C1)C2=NC=CC=C2)C3=CC=C(C=C3Cl)S(=O)(=O)C",
        "Molecular Formula": "C<sub>19</sub>H<sub>14</sub>Cl<sub>2</sub>N<sub>2</sub>O<sub>3</sub>S",
        "Molecular Mass": "421.30",
        "Melting Point": "218 °C"
    }
}