{
    "cas_no": "37529-30-9",
    "key_name": "4-Decylaniline",
    "cn_name": null,
    "alternate_name": "Benzenamine, 4-decyl-;Aniline, <em>p</em>-decyl-;4-Decylbenzenamine;<em>p</em>-<em>n</em>-Decylaniline;4-<em>n</em>-Decylaniline;<em>p</em>-Decylaniline;4-Decylaniline;4-Decylphenylamine",
    "duplicated_cas_no": "",
    "SMILES": "C(CCCCCCCCC)C1=CC=C(N)C=C1",
    "meta_data": {
        "InChI": "InChI=1S/C16H27N/c1-2-3-4-5-6-7-8-9-10-15-11-13-16(17)14-12-15/h11-14H,2-10,17H2,1H3",
        "InChIKey": null,
        "Canonical SMILES": "NC1=CC=C(C=C1)CCCCCCCCCC",
        "Molecular Formula": "C<sub>16</sub>H<sub>27</sub>N",
        "Molecular Mass": "233.39",
        "Boiling Point": "219 °C",
        "Melting Point": "25 °C"
    }
}