{
    "cas_no": "83-42-1",
    "key_name": "1-Chloro-2-methyl-3-nitrobenzene",
    "cn_name": "2-氯-6-硝基甲苯;6-硝基-2-氯甲苯;",
    "alternate_name": "Benzene, 1-chloro-2-methyl-3-nitro-;Toluene, 2-chloro-6-nitro-;1-Chloro-2-methyl-3-nitrobenzene;2-Chloro-6-nitrotoluene;6-Chloro-2-nitrotoluene;3-Chloro-2-methylnitrobenzene;3-Chloro-2-methyl-1-nitrobenzene;2-Methyl-3-chloronitrobenzene;NSC 49147;2-Methyl-3-nitrochlorobenzene",
    "duplicated_cas_no": "",
    "SMILES": "N(=O)(=O)C1=C(C)C(Cl)=CC=C1",
    "meta_data": {
        "InChI": "InChI=1S/C7H6ClNO2/c1-5-6(8)3-2-4-7(5)9(10)11/h2-4H,1H3",
        "InChIKey": null,
        "Canonical SMILES": "O=N(=O)C=1C=CC=C(Cl)C1C",
        "Molecular Formula": "C<sub>7</sub>H<sub>6</sub>ClNO<sub>2</sub>",
        "Molecular Mass": "171.58",
        "Boiling Point": "238 °C",
        "Melting Point": "37.8 °C"
    }
}