{
    "cas_no": "5162-03-8",
    "key_name": "2-Chlorobenzophenone",
    "cn_name": "2-氯二苯甲酮;",
    "alternate_name": "Methanone, (2-chlorophenyl)phenyl-;Benzophenone, 2-chloro-;(2-Chlorophenyl)phenylmethanone;2-Chlorobenzophenone;<em>o</em>-Chlorobenzophenone;2-Chlorophenyl phenyl ketone;NSC 62529;2-Benzoylphenyl chloride;(2-Chlorophenyl)(phenyl)methanone;2-CBP",
    "duplicated_cas_no": "",
    "SMILES": "C(=O)(C1=C(Cl)C=CC=C1)C2=CC=CC=C2",
    "meta_data": {
        "InChI": "InChI=1S/C13H9ClO/c14-12-9-5-4-8-11(12)13(15)10-6-2-1-3-7-10/h1-9H",
        "InChIKey": null,
        "Canonical SMILES": "O=C(C=1C=CC=CC1)C=2C=CC=CC2Cl",
        "Molecular Formula": "C<sub>13</sub>H<sub>9</sub>ClO",
        "Molecular Mass": "216.66",
        "Boiling Point": "185-188 °C @ Press: 13 Torr",
        "Melting Point": "52-56 °C"
    }
}