{
    "cas_no": "528-50-7",
    "key_name": "Cellobiose",
    "cn_name": "D-纤维二糖;4-beta-D-吡喃葡萄糖基-D-葡萄糖;",
    "alternate_name": "<span class=\"text-smallcaps\">D</smallcap>-Glucose, 4-<em>O</em>-β-<smallcap>D</span>-glucopyranosyl-;Cellobiose;4-<em>O</em>-β-<span class=\"text-smallcaps\">D</smallcap>-Glucopyranosyl-<smallcap>D</span>-glucose;4-β-<span class=\"text-smallcaps\">D</smallcap>-Glucopyranosyl-<smallcap>D</span>-glucopyranose;Cellose;<span class=\"text-smallcaps\">D</span>-Cellobiose;<span class=\"text-smallcaps\">D</span>-(+)-Cellobiose;Cellobiose 90;Sun Cellobio K;MeSH ID: D002475",
    "duplicated_cas_no": "23315-16-4",
    "SMILES": "O([C@@H]([C@@H]([C@H](C=O)O)O)[C@@H](CO)O)[C@@H]1O[C@H](CO)[C@@H](O)[C@H](O)[C@H]1O",
    "meta_data": {
        "InChI": "InChI=1S/C12H22O11/c13-1-4(16)7(18)11(5(17)2-14)23-12-10(21)9(20)8(19)6(3-15)22-12/h1,4-12,14-21H,2-3H2/t4-,5+,6+,7+,8+,9-,10+,11+,12-/m0/s1",
        "InChIKey": null,
        "Canonical SMILES": "O=CC(O)C(O)C(OC1OC(CO)C(O)C(O)C1O)C(O)CO",
        "Molecular Formula": "C<sub>12</sub>H<sub>22</sub>O<sub>11</sub>",
        "Molecular Mass": "342.30",
        "Melting Point": "240 °C"
    }
}