{
    "cas_no": "99-11-6",
    "key_name": "Citrazinic acid",
    "cn_name": "柠嗪酸;2,6-二羟基异烟酸;2,6-二羟基吡啶-4-羧酸;",
    "alternate_name": "4-Pyridinecarboxylic acid, 1,2-dihydro-6-hydroxy-2-oxo-;Isonicotinic acid, 2,6-dihydroxy-;Isonicotinic acid, 1,2-dihydro-6-hydroxy-2-oxo-;1,2-Dihydro-6-hydroxy-2-oxo-4-pyridinecarboxylic acid;2,6-Dihydroxy-4-carboxypyridine;2,6-Dihydroxyisonicotinic acid;Citrazinic acid;2,6-Dihydroxy-4-pyridinecarboxylic acid;6-Hydroxy-4-carboxy-2-pyridone;CGA 129218;NSC 41334;NSC 5214;2-Hydroxy-6-oxo-1<em>H</em>-pyridine-4-carboxylic acid",
    "duplicated_cas_no": "2639894-75-8",
    "SMILES": "C(O)(=O)C1=CC(=O)NC(O)=C1",
    "meta_data": {
        "InChI": "InChI=1S/C6H5NO4/c8-4-1-3(6(10)11)2-5(9)7-4/h1-2H,(H,10,11)(H2,7,8,9)",
        "InChIKey": null,
        "Canonical SMILES": "O=C(O)C1=CC(=O)NC(O)=C1",
        "Molecular Formula": "C<sub>6</sub>H<sub>5</sub>NO<sub>4</sub>",
        "Molecular Mass": "155.11",
        "Melting Point": "&gt;300 °C (decomp)"
    }
}