{
    "cas_no": "595-91-5",
    "key_name": "Triphenylacetic acid",
    "cn_name": "三苯基乙酸;",
    "alternate_name": "Benzeneacetic acid, α,α-diphenyl-;Acetic acid, triphenyl-;α,α-Diphenylbenzeneacetic acid;Triphenylacetic acid;Triphenylmethanecarboxylic acid;NSC 61;2,2,2-Triphenylacetic acid",
    "duplicated_cas_no": "",
    "SMILES": "C(C(O)=O)(C1=CC=CC=C1)(C2=CC=CC=C2)C3=CC=CC=C3",
    "meta_data": {
        "InChI": "InChI=1S/C20H16O2/c21-19(22)20(16-10-4-1-5-11-16,17-12-6-2-7-13-17)18-14-8-3-9-15-18/h1-15H,(H,21,22)",
        "InChIKey": null,
        "Canonical SMILES": "O=C(O)C(C=1C=CC=CC1)(C=2C=CC=CC2)C=3C=CC=CC3",
        "Molecular Formula": "C<sub>20</sub>H<sub>16</sub>O<sub>2</sub>",
        "Molecular Mass": "288.34",
        "Melting Point": "265 °C"
    }
}