{
    "cas_no": "25522-33-2",
    "key_name": "<em>trans</em>-Isoferulic acid",
    "cn_name": null,
    "alternate_name": "2-Propenoic acid, 3-(3-hydroxy-4-methoxyphenyl)-, (2<em>E</em>)-;Cinnamic acid, 3-hydroxy-4-methoxy-, (<em>E</em>)-;2-Propenoic acid, 3-(3-hydroxy-4-methoxyphenyl)-, (<em>E</em>)-;(2<em>E</em>)-3-(3-Hydroxy-4-methoxyphenyl)-2-propenoic acid;<em>trans</em>-Isoferulic acid;<em>trans</em>-3-Hydroxy-4-methoxycinnamic acid;(<em>E</em>)-3-Hydroxy-4-methoxycinnamic acid",
    "duplicated_cas_no": "",
    "SMILES": "C(=C/C(O)=O)\\C1=CC(O)=C(OC)C=C1",
    "meta_data": {
        "InChI": "InChI=1S/C10H10O4/c1-14-9-4-2-7(6-8(9)11)3-5-10(12)13/h2-6,11H,1H3,(H,12,13)/b5-3+",
        "InChIKey": null,
        "Canonical SMILES": "O=C(O)C=CC1=CC=C(OC)C(O)=C1",
        "Molecular Formula": "C<sub>10</sub>H<sub>10</sub>O<sub>4</sub>",
        "Molecular Mass": "194.18",
        "Melting Point": "230-232 °C"
    }
}