{
    "cas_no": "101219-71-0",
    "key_name": "4-[(1<em>S</em>)-1-Hydroxyethyl]benzonitrile",
    "cn_name": "(S)-1-(4-氰基苯基)乙醇;",
    "alternate_name": "Benzonitrile, 4-[(1<em>S</em>)-1-hydroxyethyl]-;Benzonitrile, 4-(1-hydroxyethyl)-, (<em>S</em>)-;4-[(1<em>S</em>)-1-Hydroxyethyl]benzonitrile;(<em>S</em>)-4-(1-Hydroxyethyl)benzonitrile;(<em>S</em>)-1-(4-Cyanophenyl)ethanol",
    "duplicated_cas_no": "",
    "SMILES": "[C@@H](C)(O)C1=CC=C(C#N)C=C1",
    "meta_data": {
        "InChI": "InChI=1S/C9H9NO/c1-7(11)9-4-2-8(6-10)3-5-9/h2-5,7,11H,1H3/t7-/m0/s1",
        "InChIKey": null,
        "Canonical SMILES": "N#CC1=CC=C(C=C1)C(O)C",
        "Molecular Formula": "C<sub>9</sub>H<sub>9</sub>NO",
        "Molecular Mass": "147.17",
        "Melting Point": "100 °C"
    }
}