{
    "cas_no": "4143-64-0",
    "key_name": "3′,4′-Dihydroxyflavone",
    "cn_name": "3,4-二羟基黄酮;3\",4\"-二羟基黄酮;",
    "alternate_name": "4<em>H</em>-1-Benzopyran-4-one, 2-(3,4-dihydroxyphenyl)-;Flavone, 3′,4′-dihydroxy-;2-(3,4-Dihydroxyphenyl)-4<em>H</em>-1-benzopyran-4-one;3′,4′-Dihydroxyflavone;2-(3,4-Dihydroxyphenyl)-4<em>H</em>-benzopyran-4-one;2-(3,4-Dihydroxyphenyl)chromen-4-one;2-(3,4-Dihydroxyphenyl)-4<em>H</em>-chromen-4-one;3′,4′-HOFL;3′,4′-Dihydroxyfavone",
    "duplicated_cas_no": "",
    "SMILES": "O=C1C=2C(OC(=C1)C3=CC(O)=C(O)C=C3)=CC=CC2",
    "meta_data": {
        "InChI": "InChI=1S/C15H10O4/c16-11-6-5-9(7-13(11)18)15-8-12(17)10-3-1-2-4-14(10)19-15/h1-8,16,18H",
        "InChIKey": null,
        "Canonical SMILES": "O=C1C=C(OC=2C=CC=CC12)C=3C=CC(O)=C(O)C3",
        "Molecular Formula": "C<sub>15</sub>H<sub>10</sub>O<sub>4</sub>",
        "Molecular Mass": "254.24",
        "Melting Point": "243 °C"
    }
}