{
    "cas_no": "15323-35-0",
    "key_name": "Phantolide",
    "cn_name": "5-乙酰基-1,1,2,3,3,6-六甲基-1,2-二氢化茚; 乙酰基六甲基二氢化茚; 粉檀麝香;",
    "alternate_name": "Ethanone, 1-(2,3-dihydro-1,1,2,3,3,6-hexamethyl-1<em>H</em>-inden-5-yl)-;Ketone, 1,1,2,3,3,6-hexamethyl-5-indanyl methyl;1-(2,3-Dihydro-1,1,2,3,3,6-hexamethyl-1<em>H</em>-inden-5-yl)ethanone;6-Acetyl-1,1,2,3,3,5-hexamethylindan;Phantolide;Phantolid;Musk phantolid;6-Acetyl-1,1,2,3,3,5-hexamethylindane;AHDI;AHMI;NSC 16827;1-(1,1,2,3,3,6-Hexamethyl-2,3-dihydro-1<em>H</em>-inden-5-yl)ethan-1-one;1-(1,1,2,3,3,6-Hexamethyl-2<em>H</em>-inden-5-yl)ethanone;1-(1,1,2,3,3,6-Hexamethyl-2,3-dihydro-1<em>H</em>-inden-5-yl)ethanone",
    "duplicated_cas_no": "55599-08-1",
    "SMILES": "CC1(C)C=2C(C(C)(C)C1C)=CC(C)=C(C(C)=O)C2",
    "meta_data": {
        "InChI": "InChI=1S/C17H24O/c1-10-8-14-15(9-13(10)11(2)18)17(6,7)12(3)16(14,4)5/h8-9,12H,1-7H3",
        "InChIKey": null,
        "Canonical SMILES": "O=C(C=1C=C2C(=CC1C)C(C)(C)C(C)C2(C)C)C",
        "Molecular Formula": "C<sub>17</sub>H<sub>24</sub>O",
        "Molecular Mass": "244.37",
        "Boiling Point": "336.6 °C",
        "Melting Point": "61.5 °C"
    }
}