{
    "cas_no": "3487-99-8",
    "key_name": "Amyl cinnamate",
    "cn_name": "肉硅酸戊酯;3-苯基-2-丙烯酸戊酯;",
    "alternate_name": "2-Propenoic acid, 3-phenyl-, pentyl ester;Cinnamic acid, pentyl ester;Amyl cinnamate;Pentyl cinnamate;NSC 46140",
    "duplicated_cas_no": "",
    "SMILES": "C(=CC(OCCCCC)=O)C1=CC=CC=C1",
    "meta_data": {
        "InChI": "InChI=1S/C14H18O2/c1-2-3-7-12-16-14(15)11-10-13-8-5-4-6-9-13/h4-6,8-11H,2-3,7,12H2,1H3",
        "InChIKey": null,
        "Canonical SMILES": "O=C(OCCCCC)C=CC=1C=CC=CC1",
        "Molecular Formula": "C<sub>14</sub>H<sub>18</sub>O<sub>2</sub>",
        "Molecular Mass": "218.29",
        "Boiling Point": "104-106 °C @ Press: 0.50 Torr",
        "Melting Point": "310-314 °C"
    }
}