{
    "cas_no": "24484-22-8",
    "key_name": "4-Fluorobenzenepentanoic acid",
    "cn_name": "5-(4\"-氟苯基)戊酸;",
    "alternate_name": "Benzenepentanoic acid, 4-fluoro-;Valeric acid, 5-(<em>p</em>-fluorophenyl)-;4-Fluorobenzenepentanoic acid;5-(4-Fluorophenyl)pentanoic acid",
    "duplicated_cas_no": "",
    "SMILES": "C(CCCC(O)=O)C1=CC=C(F)C=C1",
    "meta_data": {
        "InChI": "InChI=1S/C11H13FO2/c12-10-7-5-9(6-8-10)3-1-2-4-11(13)14/h5-8H,1-4H2,(H,13,14)",
        "InChIKey": null,
        "Canonical SMILES": "O=C(O)CCCCC1=CC=C(F)C=C1",
        "Molecular Formula": "C<sub>11</sub>H<sub>13</sub>FO<sub>2</sub>",
        "Molecular Mass": "196.22",
        "Melting Point": "75-77 °C"
    }
}