{
    "cas_no": "6342-56-9",
    "key_name": "Pyruvic aldehyde dimethyl acetal",
    "cn_name": "1,1-二甲氧基丙酮;丙酮醛缩二甲醇;",
    "alternate_name": "2-Propanone, 1,1-dimethoxy-;Pyruvaldehyde, 1-(dimethyl acetal);1,1-Dimethoxy-2-propanone;Pyruvaldehyde dimethyl acetal;Methylglyoxal dimethyl acetal;Dimethoxymethyl methyl ketone;1,1-Dimethoxyacetone;Pyruvic aldehyde dimethyl acetal;NSC 50127;Methylglyoxal 1,1-dimethyl acetal",
    "duplicated_cas_no": "",
    "SMILES": "C(C(C)=O)(OC)OC",
    "meta_data": {
        "InChI": "InChI=1S/C5H10O3/c1-4(6)5(7-2)8-3/h5H,1-3H3",
        "InChIKey": null,
        "Canonical SMILES": "O=C(C)C(OC)OC",
        "Molecular Formula": "C<sub>5</sub>H<sub>10</sub>O<sub>3</sub>",
        "Molecular Mass": "118.13",
        "Boiling Point": "56-58 °C @ Press: 16 Torr"
    }
}