{
    "cas_no": "59215-36-0",
    "key_name": "4-Methyl-2-(1-piperazinyl)pyrimidine",
    "cn_name": "4-甲基-2-(1-哌嗪基)嘧啶;",
    "alternate_name": "Pyrimidine, 4-methyl-2-(1-piperazinyl)-;4-Methyl-2-(1-piperazinyl)pyrimidine;1-(4-Methyl-2-pyrimidinyl)piperazine",
    "duplicated_cas_no": "",
    "SMILES": "CC1=NC(=NC=C1)N2CCNCC2",
    "meta_data": {
        "InChI": "InChI=1S/C9H14N4/c1-8-2-3-11-9(12-8)13-6-4-10-5-7-13/h2-3,10H,4-7H2,1H3",
        "InChIKey": null,
        "Canonical SMILES": "N=1C=CC(=NC1N2CCNCC2)C",
        "Molecular Formula": "C<sub>9</sub>H<sub>14</sub>N<sub>4</sub>",
        "Molecular Mass": "178.23",
        "Boiling Point": "170 °C @ Press: 20 Torr",
        "Melting Point": "27 °C"
    }
}