{
    "cas_no": "546-89-4",
    "key_name": "Lithium acetate",
    "cn_name": "乙酸锂;醋酸锂;",
    "alternate_name": "Acetic acid, lithium salt (1:1);Acetic acid, lithium salt;Lithium acetate;Quilone;Lithium ethanoate;Quilonorm;Quilonum",
    "duplicated_cas_no": "2074561-07-0",
    "SMILES": "C(C)(O)=O.[Li]",
    "meta_data": {
        "InChI": "InChI=1S/C2H4O2.Li/c1-2(3)4;/h1H3,(H,3,4);",
        "InChIKey": null,
        "Canonical SMILES": "[Li].O=C(O)C",
        "Molecular Formula": "C<sub>2</sub>H<sub>4</sub>O<sub>2</sub>.Li",
        "Molecular Mass": "",
        "Melting Point": "286 °C"
    }
}