{
    "cas_no": "29448-81-5",
    "key_name": "1,3-Dihydro-2<em>H</em>-imidazo[4,5-<em>b</em>]pyridine-2-thione",
    "cn_name": null,
    "alternate_name": "2<em>H</em>-Imidazo[4,5-<em>b</em>]pyridine-2-thione, 1,3-dihydro-;1,3-Dihydro-2<em>H</em>-imidazo[4,5-<em>b</em>]pyridine-2-thione;4-Aza-2-mercaptobenzimidazole;1<em>H</em>-Imidazo[4,5-<em>b</em>]pyridine-2-thiol;2-Mercapto-4-azabenzimidazole;2-Mercapto-1<em>H</em>-imidazo[4,5-<em>b</em>]pyridine;NSC 403067;1,3-Dihydroimidazo[4,5-<em>b</em>]pyridine-2-thione;3<em>H</em>-Imidazo[4,5-<em>b</em>]pyridine-2-thiol",
    "duplicated_cas_no": "",
    "SMILES": "S=C1NC=2C(N1)=NC=CC2",
    "meta_data": {
        "InChI": "InChI=1S/C6H5N3S/c10-6-8-4-2-1-3-7-5(4)9-6/h1-3H,(H2,7,8,9,10)",
        "InChIKey": null,
        "Canonical SMILES": "S=C1NC2=NC=CC=C2N1",
        "Molecular Formula": "C<sub>6</sub>H<sub>5</sub>N<sub>3</sub>S",
        "Molecular Mass": "151.19",
        "Melting Point": "&gt;300 °C"
    }
}