{
    "cas_no": "56671-67-1",
    "key_name": "Imidazo[1,5-<em>a</em>]pyridine-1-carboxaldehyde",
    "cn_name": null,
    "alternate_name": "Imidazo[1,5-<em>a</em>]pyridine-1-carboxaldehyde",
    "duplicated_cas_no": "",
    "SMILES": "C(=O)C1=C2N(C=N1)C=CC=C2",
    "meta_data": {
        "InChI": "InChI=1S/C8H6N2O/c11-5-7-8-3-1-2-4-10(8)6-9-7/h1-6H",
        "InChIKey": null,
        "Canonical SMILES": "O=CC=1N=CN2C=CC=CC12",
        "Molecular Formula": "C<sub>8</sub>H<sub>6</sub>N<sub>2</sub>O",
        "Molecular Mass": "146.15",
        "Melting Point": "124-125 °C"
    }
}