{
    "cas_no": "119-27-7",
    "key_name": "2,4-Dinitroanisole",
    "cn_name": "2,4-二硝基苯甲醚;",
    "alternate_name": "Benzene, 1-methoxy-2,4-dinitro-;Anisole, 2,4-dinitro-;1-Methoxy-2,4-dinitrobenzene;Dinitroanisole;2,4-Dinitroanisole;2,4-Dinitrophenyl methyl ether;2,4-Dinitroanisol;NSC 8733;2,4-Dinitro-1-methoxybenzene;2,4-Dinitrophenol-methyl ether",
    "duplicated_cas_no": "",
    "SMILES": "N(=O)(=O)C1=C(OC)C=CC(N(=O)=O)=C1",
    "meta_data": {
        "InChI": "InChI=1S/C7H6N2O5/c1-14-7-3-2-5(8(10)11)4-6(7)9(12)13/h2-4H,1H3",
        "InChIKey": null,
        "Canonical SMILES": "O=N(=O)C1=CC=C(OC)C(=C1)N(=O)=O",
        "Molecular Formula": "C<sub>7</sub>H<sub>6</sub>N<sub>2</sub>O<sub>5</sub>",
        "Molecular Mass": "198.13",
        "Boiling Point": "206 °C",
        "Melting Point": "94.5 °C",
        "Density": "1.52 g/cm³ (solid)"
    }
}