{
    "cas_no": "13301-61-6",
    "key_name": "Disperse Orange 37",
    "cn_name": "分散橙76;分散橙37;分散橙59;3-[[4-[(2,6-二氯-4-硝基苯基)偶氮]苯基]乙氨基]-丙腈;",
    "alternate_name": "Propanenitrile, 3-[[4-[2-(2,6-dichloro-4-nitrophenyl)diazenyl]phenyl]ethylamino]-;Propionitrile, 3-[<em>p</em>-[(2,6-dichloro-4-nitrophenyl)azo]-<em>N</em>-ethylanilino]-;Propanenitrile, 3-[[4-[(2,6-dichloro-4-nitrophenyl)azo]phenyl]ethylamino]-;3-[[4-[2-(2,6-Dichloro-4-nitrophenyl)diazenyl]phenyl]ethylamino]propanenitrile;Disperse Polyester Yellow Brown;Serilene Yellow Brown 2RL;Serilene Yellow Brown 2RL150;C.I. Disperse Orange 37;Eastman Polyester Dark Orange RL;Eastone Dark Orange R-GLF;C.I. Disperse Orange 59;Kayalon Polyester Yellow Brown 3RL;C.I. Disperse Orange 76;Disperse Orange 76;Disperse Orange 37;Disperse Orange 59;Intrasil Dark Orange 3GH;Disperse Yellow Brown 2RCW;Akasperse Orange RL 150",
    "duplicated_cas_no": "12223-33-5;51811-42-8;71819-66-4;88651-54-1",
    "SMILES": "N(=NC1=CC=C(N(CCC#N)CC)C=C1)C2=C(Cl)C=C(N(=O)=O)C=C2Cl",
    "meta_data": {
        "InChI": "InChI=1S/C17H15Cl2N5O2/c1-2-23(9-3-8-20)13-6-4-12(5-7-13)21-22-17-15(18)10-14(24(25)26)11-16(17)19/h4-7,10-11H,2-3,9H2,1H3",
        "InChIKey": null,
        "Canonical SMILES": "N#CCCN(C1=CC=C(N=NC2=C(Cl)C=C(C=C2Cl)N(=O)=O)C=C1)CC",
        "Molecular Formula": "C<sub>17</sub>H<sub>15</sub>Cl<sub>2</sub>N<sub>5</sub>O<sub>2</sub>",
        "Molecular Mass": "392.24",
        "Melting Point": "144-146 °C"
    }
}