{
    "cas_no": "17648-03-2",
    "key_name": "Leucoquinizarin",
    "cn_name": "2,3-二氢-9,10-二羟基-1,4-蒽二酮;",
    "alternate_name": "1,4-Anthracenedione, 2,3-dihydro-9,10-dihydroxy-;Leucoquinizarin;2,3-Dihydro-9,10-dihydroxy-1,4-anthracenedione;Dihydroquinizarin;2,3-Dihydro-9,10-dihydroxyanthraquinone;9,10-Dihydroxy-2,3-dihydroanthracene-1,4-dione",
    "duplicated_cas_no": "79248-79-6",
    "SMILES": "OC1=C2C(=C(O)C=3C1=CC=CC3)C(=O)CCC2=O",
    "meta_data": {
        "InChI": "InChI=1S/C14H10O4/c15-9-5-6-10(16)12-11(9)13(17)7-3-1-2-4-8(7)14(12)18/h1-4,17-18H,5-6H2",
        "InChIKey": null,
        "Canonical SMILES": "O=C1C2=C(O)C=3C=CC=CC3C(O)=C2C(=O)CC1",
        "Molecular Formula": "C<sub>14</sub>H<sub>10</sub>O<sub>4</sub>",
        "Molecular Mass": "242.23",
        "Melting Point": "155-156 °C"
    }
}