{
    "cas_no": "530-55-2",
    "key_name": "2,6-Dimethoxy-1,4-benzoquinone",
    "cn_name": null,
    "alternate_name": "2,5-Cyclohexadiene-1,4-dione, 2,6-dimethoxy-;<em>p</em>-Benzoquinone, 2,6-dimethoxy-;Quinone, 2,6-dimethoxy-;2,6-Dimethoxy-2,5-cyclohexadiene-1,4-dione;2,6-Dimethoxy-<em>p</em>-benzoquinone;2,6-Dimethoxyquinone;2,6-Dimethoxy-1,4-benzoquinone;2,6-Dimethoxy-<em>p</em>-quinone;3,5-Dimethoxy-1,4-benzoquinone;3,5-Dimethoxybenzoquinone;NSC 24500;NSC 56336",
    "duplicated_cas_no": "",
    "SMILES": "O(C)C=1C(=O)C(OC)=CC(=O)C1",
    "meta_data": {
        "InChI": "InChI=1S/C8H8O4/c1-11-6-3-5(9)4-7(12-2)8(6)10/h3-4H,1-2H3",
        "InChIKey": null,
        "Canonical SMILES": "O=C1C=C(OC)C(=O)C(OC)=C1",
        "Molecular Formula": "C<sub>8</sub>H<sub>8</sub>O<sub>4</sub>",
        "Molecular Mass": "168.15",
        "Melting Point": "256 °C"
    }
}