{
    "cas_no": "2752-65-0",
    "key_name": "Gambogic acid",
    "cn_name": "藤黄酸 A;",
    "alternate_name": "2-Butenoic acid, 2-methyl-4-[(1<em>R</em>,3a<em>S</em>,5<em>S</em>,11<em>R</em>,14a<em>S</em>)-3a,4,5,7-tetrahydro-8-hydroxy-3,3,11-trimethyl-13-(3-methyl-2-buten-1-yl)-11-(4-methyl-3-penten-1-yl)-7,15-dioxo-1,5-methano-1<em>H</em>,3<em>H</em>,11<em>H</em>-furo[3,4-<em>g</em>]pyrano[3,2-<em>b</em>]xanthen-1-yl]-, (2<em>Z</em>)-;1,5-Methano-1<em>H</em>,3<em>H</em>,11<em>H</em>-furo[3,4-<em>g</em>]pyrano[3,2-<em>b</em>]xanthene-1-crotonic acid, 3a,4,5,7-tetrahydro-8-hydroxy-α,3,3,11-tetramethyl-13-(3-methyl-2-butenyl)-11-(4-methyl-3-pentenyl)-7,15-dioxo-, (<em>Z</em>)-;Gambogic acid;2-Butenoic acid, 2-methyl-4-[3a,4,5,7-tetrahydro-8-hydroxy-3,3,11-trimethyl-13-(3-methyl-2-butenyl)-11-(4-methyl-3-pentenyl)-7,15-dioxo-1,5-methano-1<em>H</em>,3<em>H</em>,11<em>H</em>-furo[3,4-<em>g</em>]pyrano[3,2-<em>b</em>]xanthen-1-yl]-, [1<em>R</em>-[1α,1(<em>Z</em>),3aβ,5α,11β,14a<em>S</em>*]]-;2-Butenoic acid, 2-methyl-4-[(1<em>R</em>,3a<em>S</em>,5<em>S</em>,11<em>R</em>,14a<em>S</em>)-3a,4,5,7-tetrahydro-8-hydroxy-3,3,11-trimethyl-13-(3-methyl-2-butenyl)-11-(4-methyl-3-pentenyl)-7,15-dioxo-1,5-methano-1<em>H</em>,3<em>H</em>,11<em>H</em>-furo[3,4-<em>g</em>]pyrano[3,2-<em>b</em>]xanthen-1-yl]-, (2<em>Z</em>)-;(2<em>Z</em>)-2-Methyl-4-[(1<em>R</em>,3a<em>S</em>,5<em>S</em>,11<em>R</em>,14a<em>S</em>)-3a,4,5,7-tetrahydro-8-hydroxy-3,3,11-trimethyl-13-(3-methyl-2-buten-1-yl)-11-(4-methyl-3-penten-1-yl)-7,15-dioxo-1,5-methano-1<em>H</em>,3<em>H</em>,11<em>H</em>-furo[3,4-<em>g</em>]pyrano[3,2-<em>b</em>]xanthen-1-yl]-2-butenoic acid;β-Guttiferin;<em>R</em>-Gambogic acid;(-)-Gambogic acid;UI1907",
    "duplicated_cas_no": "18833-83-5",
    "SMILES": "C(/C=C(\\C(O)=O)/C)[C@@]12[C@]34C(C(=O)C=5C(O3)=C(CC=C(C)C)C6=C(C5O)C=C[C@](CCC=C(C)C)(C)O6)=CC(C1=O)(C[C@]4(C(C)(C)O2)[H])[H]",
    "meta_data": {
        "InChI": "InChI=1S/C38H44O8/c1-20(2)10-9-15-36(8)16-14-24-29(39)28-30(40)26-18-23-19-27-35(6,7)46-37(33(23)41,17-13-22(5)34(42)43)38(26,27)45-32(28)25(31(24)44-36)12-11-21(3)4/h10-11,13-14,16,18,23,27,39H,9,12,15,17,19H2,1-8H3,(H,42,43)/b22-13-/t23?,27-,36+,37-,38+/m0/s1",
        "InChIKey": null,
        "Canonical SMILES": "O=C(O)C(=CCC12OC(C)(C)C3CC(C=C4C(=O)C5=C(O)C=6C=CC(OC6C(=C5OC431)CC=C(C)C)(C)CCC=C(C)C)C2=O)C",
        "Molecular Formula": "C<sub>38</sub>H<sub>44</sub>O<sub>8</sub>",
        "Molecular Mass": "628.75",
        "Melting Point": "78-90 °C"
    }
}