{
    "cas_no": "27610-92-0",
    "key_name": "2-Butyloctanoic acid",
    "cn_name": "2-丁基辛酸;",
    "alternate_name": "Octanoic acid, 2-butyl-;2-Butyloctanoic acid;α-Butylcaprylic acid;Isocarb 12;Jaric I 12;2-Butyl-caprylic acid",
    "duplicated_cas_no": "53687-45-9",
    "SMILES": "C(CCCCCC)(CCCC)C(O)=O",
    "meta_data": {
        "InChI": "InChI=1S/C12H24O2/c1-3-5-7-8-10-11(12(13)14)9-6-4-2/h11H,3-10H2,1-2H3,(H,13,14)",
        "InChIKey": null,
        "Canonical SMILES": "O=C(O)C(CCCC)CCCCCC",
        "Molecular Formula": "C<sub>12</sub>H<sub>24</sub>O<sub>2</sub>",
        "Molecular Mass": "200.32",
        "Boiling Point": "114-116 °C @ Press: 2.5 Torr",
        "Density": "0.8923 g/cm³ @ Temp: 20 °C"
    }
}