{
    "cas_no": "40598-94-5",
    "key_name": "3-Bromo-1<em>H</em>-indazole",
    "cn_name": "3-溴吲唑;",
    "alternate_name": "1<em>H</em>-Indazole, 3-bromo-;3-Bromo-1<em>H</em>-indazole;3-Bromoindazole",
    "duplicated_cas_no": "",
    "SMILES": "BrC=1C=2C(=CC=CC2)NN1",
    "meta_data": {
        "InChI": "InChI=1S/C7H5BrN2/c8-7-5-3-1-2-4-6(5)9-10-7/h1-4H,(H,9,10)",
        "InChIKey": null,
        "Canonical SMILES": "BrC1=NNC=2C=CC=CC12",
        "Molecular Formula": "C<sub>7</sub>H<sub>5</sub>BrN<sub>2</sub>",
        "Molecular Mass": "197.03",
        "Melting Point": "141-142 °C"
    }
}