{
    "cas_no": "96293-19-5",
    "key_name": "(<em>SP</em>-4-4)-[<em>N</em>-[Phenyl[2-[[[(1<em>R</em>,2<em>S</em>)-1-(phenylmethyl)-2-pyrrolidinyl-κ<em>N</em>]carbonyl]amino-κ<em>N</em>]phenyl]methylene]glycinato(2-)-κ<em>N</em>,κ<em>O</em>]nickel",
    "cn_name": null,
    "alternate_name": "Nickel, [<em>N</em>-[phenyl[2-[[[(1<em>R</em>,2<em>S</em>)-1-(phenylmethyl)-2-pyrrolidinyl-κ<em>N</em>]carbonyl]amino-κ<em>N</em>]phenyl]methylene]glycinato(2-)-κ<em>N</em>,κ<em>O</em>]-, (<em>SP</em>-4-4)-;Nickel, [<em>N</em>-[phenyl[2-[[[1-(phenylmethyl)-2-pyrrolidinyl]carbonyl]amino]phenyl]methylene]glycinato(2-)-<em>N</em>,<em>N</em>′,<em>N</em>′′,<em>O</em><sup>1</sup>]-, [<em>SP</em>-4-4-(1<em>R</em>-<em>cis</em>)]-;Glycine, <em>N</em>-[phenyl[2-[[[1-(phenylmethyl)-2-pyrrolidinyl]carbonyl]amino]phenyl]methylene]-, nickel complex, (<em>S</em>)-;(<em>SP</em>-4-4)-[<em>N</em>-[Phenyl[2-[[[(1<em>R</em>,2<em>S</em>)-1-(phenylmethyl)-2-pyrrolidinyl-κ<em>N</em>]carbonyl]amino-κ<em>N</em>]phenyl]methylene]glycinato(2-)-κ<em>N</em>,κ<em>O</em>]nickel",
    "duplicated_cas_no": "2163097-14-9;2327982-70-5",
    "SMILES": "C([N]12[Ni+2]34[N-](C=5C(C(=[N]3CC(=O)[O-]4)C6=CC=CC=C6)=CC=CC5)C(=O)[C@@]1(CCC2)[H])C7=CC=CC=C7",
    "meta_data": {
        "InChI": "InChI=1S/C27H27N3O3.Ni/c31-25(32)18-28-26(21-12-5-2-6-13-21)22-14-7-8-15-23(22)29-27(33)24-16-9-17-30(24)19-20-10-3-1-4-11-20;/h1-8,10-15,24H,9,16-19H2,(H2,28,29,31,32,33);/q;+2/p-2/t24-;/m0./s1",
        "InChIKey": null,
        "Canonical SMILES": "O=C1[O-][Ni+2]23[N](=C(C=4C=CC=CC4)C=5C=CC=CC5[N-]3C(=O)C6CCC[N]62CC=7C=CC=CC7)C1",
        "Molecular Formula": "C<sub>27</sub>H<sub>25</sub>N<sub>3</sub>NiO<sub>3</sub>",
        "Molecular Mass": "",
        "Melting Point": "210-213 °C"
    }
}