{
    "cas_no": "4509-11-9",
    "key_name": "6-Oxa-3-thiabicyclo[3.1.0]hexane, 3,3-dioxide",
    "cn_name": null,
    "alternate_name": "6-Oxa-3-thiabicyclo[3.1.0]hexane, 3,3-dioxide;2,3-Epoxytetramethylene sulfone;Tetramethylene sulfone, 2,3-epoxy-;3,4-Epoxysulfolane;2,3-Epoxy-1,4-butanediyl sulfone;3,4-Epoxytetrahydrothiophene 1,1-dioxide;NSC 24263;3,4-Epoxy-1,2,3,4-tetrahydrothiophene-1,1-dioxide",
    "duplicated_cas_no": "",
    "SMILES": "O=S1(=O)CC2C(O2)C1",
    "meta_data": {
        "InChI": "InChI=1S/C4H6O3S/c5-8(6)1-3-4(2-8)7-3/h3-4H,1-2H2",
        "InChIKey": null,
        "Canonical SMILES": "O=S1(=O)CC2OC2C1",
        "Molecular Formula": "C<sub>4</sub>H<sub>6</sub>O<sub>3</sub>S",
        "Molecular Mass": "134.15",
        "Melting Point": "130 °C (sublm)"
    }
}