{
    "cas_no": "637-50-3",
    "key_name": "β-Methylstyrene",
    "cn_name": "β-甲基苯乙烯;",
    "alternate_name": "Benzene, 1-propen-1-yl-;Benzene, propenyl-;Benzene, 1-propenyl-;1-Propen-1-ylbenzene;1-Propene, 1-phenyl-;β-Methylstyrene;1-Propenylbenzene;1-Phenylpropene;ω-Methylstyrene;Isoallylbenzene;β-Methylstyrol;1-Methyl-2-phenylethene;NSC 65591",
    "duplicated_cas_no": "",
    "SMILES": "C(=CC)C1=CC=CC=C1",
    "meta_data": {
        "InChI": "InChI=1S/C9H10/c1-2-6-9-7-4-3-5-8-9/h2-8H,1H3",
        "InChIKey": null,
        "Canonical SMILES": "C=1C=CC(=CC1)C=CC",
        "Molecular Formula": "C<sub>9</sub>H<sub>10</sub>",
        "Molecular Mass": "118.18",
        "Boiling Point": "175.5 °C",
        "Melting Point": "-27.3 °C",
        "Density": "0.9019 g/cm³ @ Temp: 25 °C"
    }
}