{
    "cas_no": "35109-93-4",
    "key_name": "(3β,5β)-3-[(2,6-Dideoxy-3-<em>O</em>-methyl-β-<span class=\"text-smallcaps\">D</span>-<em>lyxo</em>-hexopyranosyl)oxy]-8,14-epoxycard-20(22)-enolide",
    "cn_name": null,
    "alternate_name": "Card-20(22)-enolide, 3-[(2,6-dideoxy-3-<em>O</em>-methyl-β-<span class=\"text-smallcaps\">D</span>-<em>lyxo</em>-hexopyranosyl)oxy]-8,14-epoxy-, (3β,5β)-;Adynerin;8,14-Epoxy-1<em>H</em>-cyclopenta[<em>a</em>]phenanthrene, card-20(22)-enolide deriv.;(3β,5β)-3-[(2,6-Dideoxy-3-<em>O</em>-methyl-β-<span class=\"text-smallcaps\">D</span>-<em>lyxo</em>-hexopyranosyl)oxy]-8,14-epoxycard-20(22)-enolide;Adynerigenin 3-<em>O</em>-β-<span class=\"text-smallcaps\">D</span>-diginoside",
    "duplicated_cas_no": "109175-63-5;31564-45-1",
    "SMILES": "C[C@@]12[C@@]3([C@@]4(O3)[C@@]([C@]5(C)[C@](CC4)(C[C@@H](O[C@H]6C[C@@H](OC)[C@@H](O)[C@@H](C)O6)CC5)[H])(CC1)[H])CC[C@@H]2C7=CC(=O)OC7",
    "meta_data": {
        "InChI": "InChI=1S/C30H44O7/c1-17-26(32)22(33-4)15-25(35-17)36-20-6-9-27(2)19(14-20)5-11-29-23(27)8-10-28(3)21(7-12-30(28,29)37-29)18-13-24(31)34-16-18/h13,17,19-23,25-26,32H,5-12,14-16H2,1-4H3/t17-,19-,20+,21-,22-,23-,25+,26+,27+,28-,29+,30-/m1/s1",
        "InChIKey": null,
        "Canonical SMILES": "O=C1OCC(=C1)C2CCC34OC54CCC6CC(OC7OC(C)C(O)C(OC)C7)CCC6(C)C5CCC23C",
        "Molecular Formula": "C<sub>30</sub>H<sub>44</sub>O<sub>7</sub>",
        "Molecular Mass": "516.67",
        "Melting Point": "220-223 °C"
    }
}