{
    "cas_no": "7423-42-9",
    "key_name": "2-Ethylhexyl maleate",
    "cn_name": null,
    "alternate_name": "2-Butenedioic acid (2<em>Z</em>)-, 1-(2-ethylhexyl) ester;Maleic acid, 2-ethylhexyl ester;2-Butenedioic acid (<em>Z</em>)-, mono(2-ethylhexyl) ester;2-Butenedioic acid (2<em>Z</em>)-, mono(2-ethylhexyl) ester;Mono(2-ethylhexyl) maleate;2-Ethylhexyl maleate;2-Ethylhexyl hydrogen maleate;Monooctyl maleate",
    "duplicated_cas_no": "134437-29-9;144771-33-5;178766-35-3",
    "SMILES": "C(COC(/C=C\\C(O)=O)=O)(CCCC)CC",
    "meta_data": {
        "InChI": "InChI=1/C12H20O4/c1-3-5-6-10(4-2)9-16-12(15)8-7-11(13)14/h7-8,10H,3-6,9H2,1-2H3,(H,13,14)/b8-7-",
        "InChIKey": null,
        "Canonical SMILES": "O=C(O)C=CC(=O)OCC(CC)CCCC",
        "Molecular Formula": "C<sub>12</sub>H<sub>20</sub>O<sub>4</sub>",
        "Molecular Mass": "228.28",
        "Boiling Point": "156 °C @ Press: 0.7 Torr",
        "Density": "0.9437 g/cm³ @ Temp: 20 °C"
    }
}