{
    "cas_no": "28797-48-0",
    "key_name": "11-(2-Chloroacetyl)-5,11-dihydro-6<em>H</em>-pyrido[2,3-<em>b</em>][1,4]benzodiazepin-6-one",
    "cn_name": "5,11-二氢-11-氯乙酰基-6H-吡啶并[2.3-b][1,4]苯并二氮卓-6-酮;",
    "alternate_name": "6<em>H</em>-Pyrido[2,3-<em>b</em>][1,4]benzodiazepin-6-one, 11-(2-chloroacetyl)-5,11-dihydro-;6<em>H</em>-Pyrido[2,3-<em>b</em>][1,4]benzodiazepin-6-one, 11-(chloroacetyl)-5,11-dihydro-;11-(2-Chloroacetyl)-5,11-dihydro-6<em>H</em>-pyrido[2,3-<em>b</em>][1,4]benzodiazepin-6-one;11-(2-Chloroacetyl)-5<em>H</em>-pyrido[2,3-<em>b</em>][1,4]benzodiazepin-6-one;11-(Chloroacetyl)-5,11-dihydro-6<em>H</em>-pyrido[2,3-<em>b</em>][1,4]benzodiazepin-6-one;2-Chloro-1-(6-hydroxy-11<em>H</em>-pyrido[2,3-<em>b</em>][1,4]benzodiazepin-11-yl)ethanone",
    "duplicated_cas_no": "",
    "SMILES": "C(CCl)(=O)N1C=2C(C(=O)NC=3C1=NC=CC3)=CC=CC2",
    "meta_data": {
        "InChI": "InChI=1S/C14H10ClN3O2/c15-8-12(19)18-11-6-2-1-4-9(11)14(20)17-10-5-3-7-16-13(10)18/h1-7H,8H2,(H,17,20)",
        "InChIKey": null,
        "Canonical SMILES": "O=C1NC2=CC=CN=C2N(C(=O)CCl)C=3C=CC=CC13",
        "Molecular Formula": "C<sub>14</sub>H<sub>10</sub>ClN<sub>3</sub>O<sub>2</sub>",
        "Molecular Mass": "287.70",
        "Melting Point": "212 °C"
    }
}