{
    "cas_no": "2065-67-0",
    "key_name": "Tetraphenylphosphonium iodide",
    "cn_name": "四苯基碘化膦;",
    "alternate_name": "Phosphonium, tetraphenyl-, iodide (1:1);Phosphonium, tetraphenyl-, iodide;Tetraphenylphosphonium iodide;Iodotetraphenylphosphorane",
    "duplicated_cas_no": "15388-20-2;24691-63-2;197774-50-8;1092073-90-9",
    "SMILES": "[P+](C1=CC=CC=C1)(C2=CC=CC=C2)(C3=CC=CC=C3)C4=CC=CC=C4.[I-]",
    "meta_data": {
        "InChI": "InChI=1S/C24H20P.HI/c1-5-13-21(14-6-1)25(22-15-7-2-8-16-22,23-17-9-3-10-18-23)24-19-11-4-12-20-24;/h1-20H;1H/q+1;/p-1",
        "InChIKey": null,
        "Canonical SMILES": "[I-].C=1C=CC(=CC1)[P+](C=2C=CC=CC2)(C=3C=CC=CC3)C=4C=CC=CC4",
        "Molecular Formula": "C<sub>24</sub>H<sub>20</sub>P.I",
        "Molecular Mass": "",
        "Melting Point": "333-343 °C"
    }
}