{
    "cas_no": "511-13-7",
    "key_name": "Chlophedianol hydrochloride",
    "cn_name": "敌退咳;1-邻氯苯基-1-苯基-3-二甲氨基丙醇盐酸盐;",
    "alternate_name": "Benzenemethanol, 2-chloro-α-[2-(dimethylamino)ethyl]-α-phenyl-, hydrochloride (1:1);Benzhydrol, 2-chloro-α-[2-(dimethylamino)ethyl]-, hydrochloride;Benzenemethanol, 2-chloro-α-[2-(dimethylamino)ethyl]-α-phenyl-, hydrochloride;SL 501;Chlophedianol hydrochloride;2-Chloro-α-[2-(dimethylamino)ethyl]benzhydrol hydrochloride;1-<em>o</em>-Chlorophenyl-1-phenyl-3-dimethylamino-1-propanol hydrochloride;α-(2-Dimethylaminoethyl)-<em>o</em>-chlorobenzhydrol hydrochloride;ULO;SK 74;Clofedanol hydrochloride;Detigon;Ulone;Refugal;Pectolitan;Coldrin;1-(2-Chlorophenyl)-3-(dimethylamino)-1-phenylpropan-1-ol hydrochloride",
    "duplicated_cas_no": "",
    "SMILES": "C(CCN(C)C)(O)(C1=C(Cl)C=CC=C1)C2=CC=CC=C2.Cl",
    "meta_data": {
        "InChI": "InChI=1S/C17H20ClNO.ClH/c1-19(2)13-12-17(20,14-8-4-3-5-9-14)15-10-6-7-11-16(15)18;/h3-11,20H,12-13H2,1-2H3;1H",
        "InChIKey": null,
        "Canonical SMILES": "Cl.ClC=1C=CC=CC1C(O)(C=2C=CC=CC2)CCN(C)C",
        "Molecular Formula": "C<sub>17</sub>H<sub>20</sub>ClNO.ClH",
        "Molecular Mass": "",
        "Melting Point": "190-191 °C"
    }
}