{
    "cas_no": "10371-45-6",
    "key_name": "1-Methylpropyl (2<em>E</em>)-2-butenoate",
    "cn_name": "巴豆酸仲丁酯;",
    "alternate_name": "2-Butenoic acid, 1-methylpropyl ester, (2<em>E</em>)-;Crotonic acid, <em>sec</em>-butyl ester, (<em>E</em>)-;2-Butenoic acid, 1-methylpropyl ester, (<em>E</em>)-;1-Methylpropyl (2<em>E</em>)-2-butenoate;<em>sec</em>-Butyl crotonate;<em>trans</em>-<em>sec</em>-Butyl crotonate",
    "duplicated_cas_no": "",
    "SMILES": "O(C(/C=C/C)=O)C(CC)C",
    "meta_data": {
        "InChI": "InChI=1/C8H14O2/c1-4-6-8(9)10-7(3)5-2/h4,6-7H,5H2,1-3H3/b6-4+",
        "InChIKey": null,
        "Canonical SMILES": "O=C(OC(C)CC)C=CC",
        "Molecular Formula": "C<sub>8</sub>H<sub>14</sub>O<sub>2</sub>",
        "Molecular Mass": "142.20",
        "Boiling Point": "74-75 °C @ Press: 30 Torr"
    }
}