{
    "cas_no": "7306-46-9",
    "key_name": "Veratryl chloride",
    "cn_name": "3,4-二甲氧基苄氯;3,4-二甲氧基苄基氯;",
    "alternate_name": "Benzene, 4-(chloromethyl)-1,2-dimethoxy-;Toluene, α-chloro-3,4-dimethoxy-;Veratrole, 4-(chloromethyl)-;4-(Chloromethyl)-1,2-dimethoxybenzene;Veratryl chloride;3,4-Dimethoxybenzyl chloride;α-Chloro-3,4-dimethoxytoluene;1-Chloromethyl-3,4-dimethoxybenzene",
    "duplicated_cas_no": "",
    "SMILES": "O(C)C1=C(OC)C=CC(CCl)=C1",
    "meta_data": {
        "InChI": "InChI=1S/C9H11ClO2/c1-11-8-4-3-7(6-10)5-9(8)12-2/h3-5H,6H2,1-2H3",
        "InChIKey": null,
        "Canonical SMILES": "ClCC1=CC=C(OC)C(OC)=C1",
        "Molecular Formula": "C<sub>9</sub>H<sub>11</sub>ClO<sub>2</sub>",
        "Molecular Mass": "186.64",
        "Boiling Point": "152-156 °C",
        "Melting Point": "48-49 °C"
    }
}