{
    "cas_no": "111-10-4",
    "key_name": "9-Octadecenoic acid (9<em>Z</em>)-, 2-methoxyethyl ester",
    "cn_name": "油酸甲氧基乙酯;十八烯酸甲氧基乙酯;",
    "alternate_name": "9-Octadecenoic acid (9<em>Z</em>)-, 2-methoxyethyl ester;Oleic acid, 2-methoxyethyl ester;9-Octadecenoic acid (<em>Z</em>)-, 2-methoxyethyl ester;Ethanol, 2-methoxy-, oleate;Ethylene glycol monomethyl ether oleate;Kapsolat;Methoxyethyl oleate;2-Methoxyethyl oleate;NSC 403908",
    "duplicated_cas_no": "",
    "SMILES": "C(CC(OCCOC)=O)CCCCC/C=C\\CCCCCCCC",
    "meta_data": {
        "InChI": "InChI=1S/C21H40O3/c1-3-4-5-6-7-8-9-10-11-12-13-14-15-16-17-18-21(22)24-20-19-23-2/h10-11H,3-9,12-20H2,1-2H3/b11-10-",
        "InChIKey": null,
        "Canonical SMILES": "O=C(OCCOC)CCCCCCCC=CCCCCCCCC",
        "Molecular Formula": "C<sub>21</sub>H<sub>40</sub>O<sub>3</sub>",
        "Molecular Mass": "340.54",
        "Boiling Point": "190-197 °C @ Press: 1.0 Torr",
        "Melting Point": "93.5-94.5 °C"
    }
}