{
    "cas_no": "117-11-3",
    "key_name": "1-Amino-5-chloroanthraquinone",
    "cn_name": "1-氨基-5-氯蒽醌;",
    "alternate_name": "9,10-Anthracenedione, 1-amino-5-chloro-;Anthraquinone, 1-amino-5-chloro-;1-Amino-5-chloro-9,10-anthracenedione;5-Chloro-1-aminoanthraquinone;1-Amino-5-chloroanthraquinone;1-Chloro-5-aminoanthraquinone;5-Amino-1-chloroanthraquinone;NSC 4996;1-Amino-5-chloro-9,10-dihydroanthracene-9,10-dione",
    "duplicated_cas_no": "",
    "SMILES": "O=C1C=2C(C(=O)C=3C1=CC=CC3N)=CC=CC2Cl",
    "meta_data": {
        "InChI": "InChI=1S/C14H8ClNO2/c15-9-5-1-3-7-11(9)13(17)8-4-2-6-10(16)12(8)14(7)18/h1-6H,16H2",
        "InChIKey": null,
        "Canonical SMILES": "O=C1C=2C=CC=C(N)C2C(=O)C=3C=CC=C(Cl)C13",
        "Molecular Formula": "C<sub>14</sub>H<sub>8</sub>ClNO<sub>2</sub>",
        "Molecular Mass": "257.67",
        "Melting Point": "210 °C"
    }
}