{
    "cas_no": "56090-54-1",
    "key_name": "Triglycerol",
    "cn_name": null,
    "alternate_name": "Triglycerol;Triglycerin;Glycerol trimer;Great Oil TR 1;PGL 03P;Triglycerin S;PGL-S;Polyglycerin 3;Polyglycerol 3",
    "duplicated_cas_no": "43198-81-8;54682-61-0",
    "SMILES": "",
    "meta_data": {
        "InChI": "",
        "InChIKey": null,
        "Canonical SMILES": "",
        "Molecular Formula": "C<sub>9</sub>H<sub>20</sub>O<sub>7</sub>",
        "Molecular Mass": "",
        "Melting Point": "98-99 °C",
        "Density": "1.2805 g/cm³ @ Temp: 20 °C"
    }
}