{
    "uri": "substance/pt/56090541",
    "rn": "56090-54-1",
    "name": "Triglycerol",
    "images": [],
    "inchi": "",
    "inchiKey": "",
    "smile": "",
    "canonicalSmile": "",
    "molecularFormula": "C<sub>9</sub>H<sub>20</sub>O<sub>7</sub>",
    "molecularMass": "",
    "experimentalProperties": [
        {
            "name": "Melting Point",
            "property": "98-99 °C",
            "sourceNumber": 1
        },
        {
            "name": "Density",
            "property": "1.2805 g/cm³ @ Temp: 20 °C",
            "sourceNumber": 2
        }
    ],
    "propertyCitations": [
        {
            "docUri": "document/pt/document/18322044",
            "sourceNumber": 1,
            "source": "Roach, J. Robert; Journal of the American Chemical Society, (1949), 71, 3944-6, CAplus"
        },
        {
            "docUri": "document/pt/document/17852696",
            "sourceNumber": 2,
            "source": "Istin, Marc; Ann. faculté sci. Marseille, (1940), 13, 5-99, CAplus"
        }
    ],
    "synonyms": [
        "Triglycerol",
        "Triglycerin",
        "Glycerol trimer",
        "Great Oil TR 1",
        "PGL 03P",
        "Triglycerin S",
        "PGL-S",
        "Polyglycerin 3",
        "Polyglycerol 3"
    ],
    "replacedRns": [
        "43198-81-8",
        "54682-61-0"
    ],
    "hasMolfile": false,
    "source": "https://commonchemistry.cas.org/detail?cas_rn=56090-54-1"
}