{
    "cas_no": "5949-05-3",
    "key_name": "(<em>S</em>)-Citronellal",
    "cn_name": null,
    "alternate_name": "6-Octenal, 3,7-dimethyl-, (3<em>S</em>)-;6-Octenal, 3,7-dimethyl-, (-)-;6-Octenal, 3,7-dimethyl-, (<em>S</em>)-;(3<em>S</em>)-3,7-Dimethyl-6-octenal;(-)-Citronellal;(<em>S</em>)-Citronellal;<span class=\"text-smallcaps\">L</span>-Citronellal;<em>S</em>-(-)-Citronellal;(<em>S</em>)-(-)-3,7-Dimethyl-6-octenal;<em>l</em>-Citronellal;(-)-β-Citronellal;(-)-(<em>S</em>)-Citronellal;<span class=\"text-smallcaps\">L</span>-(-)-Citronellal;(3<em>S</em>)-3,7-Dimethyloct-6-enal;(<em>S</em>)-3,7-Dimethyloct-6-enal;(3S)-3,7-Dimethyloct-6-enal",
    "duplicated_cas_no": "951036-04-7",
    "SMILES": "[C@H](CCC=C(C)C)(CC=O)C",
    "meta_data": {
        "InChI": "InChI=1S/C10H18O/c1-9(2)5-4-6-10(3)7-8-11/h5,8,10H,4,6-7H2,1-3H3/t10-/m0/s1",
        "InChIKey": null,
        "Canonical SMILES": "O=CCC(C)CCC=C(C)C",
        "Molecular Formula": "C<sub>10</sub>H<sub>18</sub>O",
        "Molecular Mass": "154.25",
        "Boiling Point": "65 °C @ Press: 2 Torr",
        "Density": "1.0123 g/cm³ @ Temp: 25.00 °C"
    }
}