{
    "cas_no": "37777-81-4",
    "key_name": "5-Methyl-2-nitrobenzeneacetic acid",
    "cn_name": "5-甲基-2-硝基苯乙酸;",
    "alternate_name": "Benzeneacetic acid, 5-methyl-2-nitro-;5-Methyl-2-nitrobenzeneacetic acid;(5-Methyl-2-nitrophenyl)acetic acid;2-(5-Methyl-2-nitrophenyl)acetic acid",
    "duplicated_cas_no": "",
    "SMILES": "N(=O)(=O)C1=C(CC(O)=O)C=C(C)C=C1",
    "meta_data": {
        "InChI": "InChI=1S/C9H9NO4/c1-6-2-3-8(10(13)14)7(4-6)5-9(11)12/h2-4H,5H2,1H3,(H,11,12)",
        "InChIKey": null,
        "Canonical SMILES": "O=C(O)CC1=CC(=CC=C1N(=O)=O)C",
        "Molecular Formula": "C<sub>9</sub>H<sub>9</sub>NO<sub>4</sub>",
        "Molecular Mass": "195.17",
        "Melting Point": "149 °C"
    }
}