{
    "cas_no": "582-24-1",
    "key_name": "α-Hydroxyacetophenone",
    "cn_name": "2-羟基苯乙酮;",
    "alternate_name": "Ethanone, 2-hydroxy-1-phenyl-;Acetophenone, 2-hydroxy-;Acetophenone, α-hydroxy-;2-Hydroxy-1-phenylethanone;Benzoylcarbinol;Glycolophenone;Methanol, benzoyl-;Phenacyl alcohol;2-Hydroxyacetophenone;α-Hydroxyacetophenone;ω-Hydroxyacetophenone;(Hydroxyacetyl)benzene;Benzoylmethanol;2-Phenyl-2-oxoethanol;NSC 171232;Hydroxymethyl phenyl ketone;1-Phenyl-2-hydroxyethanone;2-Hydroxy-1-phenylethan-1-one",
    "duplicated_cas_no": "",
    "SMILES": "C(CO)(=O)C1=CC=CC=C1",
    "meta_data": {
        "InChI": "InChI=1S/C8H8O2/c9-6-8(10)7-4-2-1-3-5-7/h1-5,9H,6H2",
        "InChIKey": null,
        "Canonical SMILES": "O=C(C=1C=CC=CC1)CO",
        "Molecular Formula": "C<sub>8</sub>H<sub>8</sub>O<sub>2</sub>",
        "Molecular Mass": "136.15",
        "Boiling Point": "140 °C @ Press: 14 Torr",
        "Melting Point": "90 °C"
    }
}