{
    "cas_no": "5353-15-1",
    "key_name": "γ-Asarone",
    "cn_name": null,
    "alternate_name": "Benzene, 1,2,4-trimethoxy-5-(2-propen-1-yl)-;Benzene, 1-allyl-2,4,5-trimethoxy-;Benzene, 1,2,4-trimethoxy-5-(2-propenyl)-;1,2,4-Trimethoxy-5-(2-propen-1-yl)benzene;2,4,5-Trimethoxy-1-allylbenzene;Sekishone;1-Allyl-2,4,5-trimethoxybenzene;2,4,5-Trimethoxyallylbenzene;Sekishon;γ-Asarone;Euasarone;Isoasarone;2-Allyl-1,4,5-trimethoxybenzene;1,2,4-Trimethoxy-5-prop-2-enylbenzene",
    "duplicated_cas_no": "11029-91-7",
    "SMILES": "C(C=C)C1=C(OC)C=C(OC)C(OC)=C1",
    "meta_data": {
        "InChI": "InChI=1S/C12H16O3/c1-5-6-9-7-11(14-3)12(15-4)8-10(9)13-2/h5,7-8H,1,6H2,2-4H3",
        "InChIKey": null,
        "Canonical SMILES": "O(C=1C=C(OC)C(=CC1OC)CC=C)C",
        "Molecular Formula": "C<sub>12</sub>H<sub>16</sub>O<sub>3</sub>",
        "Molecular Mass": "208.25",
        "Boiling Point": "120 °C @ Press: 5 Torr",
        "Melting Point": "25 °C"
    }
}