{
    "cas_no": "7790-47-8",
    "key_name": "Tin iodide (SnI<sub>4</sub>)",
    "cn_name": "碘化锡;四碘化锡;四碘化锡(IV);",
    "alternate_name": "Stannane, tetraiodo-;Tin iodide (SnI<sub>4</sub>);Tetraiodostannane;Stannic iodide;Tin tetraiodide;Tetraiodotin;Tin(IV) iodide",
    "duplicated_cas_no": "",
    "SMILES": "[Sn](I)(I)(I)I",
    "meta_data": {
        "InChI": "InChI=1S/4HI.Sn/h4*1H;/q;;;;+4/p-4",
        "InChIKey": null,
        "Canonical SMILES": "I[Sn](I)(I)I",
        "Molecular Formula": "I<sub>4</sub>Sn",
        "Molecular Mass": "626.33",
        "Boiling Point": "364-365 °C",
        "Melting Point": "143 °C",
        "Density": "4.473 g/cm³"
    }
}