{
    "cas_no": "107-25-5",
    "key_name": "Methyl vinyl ether",
    "cn_name": "乙烯基甲醚;",
    "alternate_name": "Ethene, methoxy-;Ether, methyl vinyl;Methoxyethene;Methyl vinyl ether;Vinyl methyl ether;Methoxyethylene;1-Methoxyethylene;1-(Vinyloxy)methane",
    "duplicated_cas_no": "",
    "SMILES": "C(OC)=C",
    "meta_data": {
        "InChI": "InChI=1S/C3H6O/c1-3-4-2/h3H,1H2,2H3",
        "InChIKey": null,
        "Canonical SMILES": "O(C=C)C",
        "Molecular Formula": "C<sub>3</sub>H<sub>6</sub>O",
        "Molecular Mass": "58.08",
        "Boiling Point": "12 °C",
        "Melting Point": "-122 °C",
        "Density": "0.7725 g/cm³ @ Temp: 0 °C"
    }
}