{
    "cas_no": "16463-74-4",
    "key_name": "Hydrocortisone 17-acetate",
    "cn_name": null,
    "alternate_name": "Pregn-4-ene-3,20-dione, 17-(acetyloxy)-11,21-dihydroxy-, (11β)-;Cortisol, 17-acetate;(11β)-17-(Acetyloxy)-11,21-dihydroxypregn-4-ene-3,20-dione;Hydrocortisone 17-acetate",
    "duplicated_cas_no": "82632-84-6",
    "SMILES": "C(CO)(=O)[C@]1(OC(C)=O)[C@]2(C)[C@@](CC1)([C@]3([C@]([C@@H](O)C2)([C@]4(C)C(CC3)=CC(=O)CC4)[H])[H])[H]",
    "meta_data": {
        "InChI": "InChI=1S/C23H32O6/c1-13(25)29-23(19(28)12-24)9-7-17-16-5-4-14-10-15(26)6-8-21(14,2)20(16)18(27)11-22(17,23)3/h10,16-18,20,24,27H,4-9,11-12H2,1-3H3/t16-,17-,18-,20+,21-,22-,23-/m0/s1",
        "InChIKey": null,
        "Canonical SMILES": "O=C(OC1(C(=O)CO)CCC2C3CCC4=CC(=O)CCC4(C)C3C(O)CC21C)C",
        "Molecular Formula": "C<sub>23</sub>H<sub>32</sub>O<sub>6</sub>",
        "Molecular Mass": "404.50",
        "Melting Point": "234-237 °C"
    }
}