{
    "cas_no": "3160-37-0",
    "key_name": "Heliotropyl acetone",
    "cn_name": "3,4-(亚甲二氧基)苯亚甲基丙酮;洋茉莉基丙酮;4-(3,4-亚甲基二氧基苯基)-2-丁酮;",
    "alternate_name": "3-Buten-2-one, 4-(1,3-benzodioxol-5-yl)-;3-Buten-2-one, 4-[3,4-(methylenedioxy)phenyl]-;4-(1,3-Benzodioxol-5-yl)-3-buten-2-one;Piperonylideneacetone;Heliotropyl acetone;5-(3-Oxo-1-butenyl)-1,3-benzodioxole;Piperonalacetone;4-(3,4-Methylenedioxyphenyl)-3-buten-2-one;3,4-(Methylenedioxy)benzalacetone;NSC 217304;NSC 407384",
    "duplicated_cas_no": "",
    "SMILES": "C(=CC(C)=O)C=1C=C2C(=CC1)OCO2",
    "meta_data": {
        "InChI": "InChI=1S/C11H10O3/c1-8(12)2-3-9-4-5-10-11(6-9)14-7-13-10/h2-6H,7H2,1H3",
        "InChIKey": null,
        "Canonical SMILES": "O=C(C=CC1=CC=C2OCOC2=C1)C",
        "Molecular Formula": "C<sub>11</sub>H<sub>10</sub>O<sub>3</sub>",
        "Molecular Mass": "190.20",
        "Melting Point": "111 °C"
    }
}