{
    "cas_no": "1122-70-9",
    "key_name": "2-Ethenyl-6-methylpyridine",
    "cn_name": "2-甲基-6-乙烯基吡啶;",
    "alternate_name": "Pyridine, 2-ethenyl-6-methyl-;2-Picoline, 6-vinyl-;2-Ethenyl-6-methylpyridine;2-Methyl-6-vinylpyridine",
    "duplicated_cas_no": "",
    "SMILES": "C(=C)C=1N=C(C)C=CC1",
    "meta_data": {
        "InChI": "InChI=1S/C8H9N/c1-3-8-6-4-5-7(2)9-8/h3-6H,1H2,2H3",
        "InChIKey": null,
        "Canonical SMILES": "N=1C(C=C)=CC=CC1C",
        "Molecular Formula": "C<sub>8</sub>H<sub>9</sub>N",
        "Molecular Mass": "119.16",
        "Boiling Point": "73 °C @ Press: 21 Torr"
    }
}