{
    "cas_no": "16687-61-9",
    "key_name": "5-(4-Chlorophenyl)-2<em>H</em>-tetrazole",
    "cn_name": "5-(4-氯苯基)-1H-四唑;5-(4-氯苯基)-1H-四唑;5-(4-氯苯基)-1H-四唑, 98+%;",
    "alternate_name": "2<em>H</em>-Tetrazole, 5-(4-chlorophenyl)-;1<em>H</em>-Tetrazole, 5-(<em>p</em>-chlorophenyl)-;1<em>H</em>-Tetrazole, 5-(4-chlorophenyl)-;Tetrazole, 5-(<em>p</em>-chlorophenyl)-;5-(4-Chlorophenyl)-2<em>H</em>-tetrazole;5-(<em>p</em>-Chlorophenyl)-1<em>H</em>-tetrazole;5-(4-Chlorophenyl)tetrazole;5-(<em>p</em>-Chlorophenyl)tetrazole;5-(4-chlorophenyl)-1<em>H</em>-tetrazole;NSC 86301;5-(4′-Chlorophenyl)tetrazole;5-(4′-Chlorophenyl)-1<em>H</em>-tetrazole",
    "duplicated_cas_no": "",
    "SMILES": "ClC1=CC=C(C=C1)C=2NN=NN2",
    "meta_data": {
        "InChI": "InChI=1S/C7H5ClN4/c8-6-3-1-5(2-4-6)7-9-11-12-10-7/h1-4H,(H,9,10,11,12)",
        "InChIKey": null,
        "Canonical SMILES": "ClC=1C=CC(=CC1)C2=NN=NN2",
        "Molecular Formula": "C<sub>7</sub>H<sub>5</sub>ClN<sub>4</sub>",
        "Molecular Mass": "180.59",
        "Melting Point": "258 °C"
    }
}