{
    "cas_no": "1709-71-3",
    "key_name": "3-Acryloyloxy-2-hydroxypropyl methacrylate",
    "cn_name": null,
    "alternate_name": "2-Propenoic acid, 2-methyl-, 2-hydroxy-3-[(1-oxo-2-propen-1-yl)oxy]propyl ester;2-Propenoic acid, 2-methyl-, 2-hydroxy-3-[(1-oxo-2-propenyl)oxy]propyl ester;Methacrylic acid, 2,3-dihydroxypropyl ester, 3-acrylate;2-Hydroxy-3-methacryloyloxypropyl acrylate;G 201P;2-Hydroxy-3-acryloyloxy-1-methacryloyloxypropane;NK Ester 701A;2-Hydroxy-1-acryloxy-3-methacryloxypropane;3-Acryloyloxy-2-hydroxypropyl methacrylate;2-Hydroxy-3-acryloyloxypropyl methacrylate;AHPMA;1-Methacryloyloxy-3-acryloyloxy-2-propanol;Acrylic acid-glycidyl methacrylate 1:1 adduct;1-(Acryloyloxy)-2-hydroxy-3-(methacryloyloxy)propane;Blemmer GAM;3-(Acryloxy)-2-hydroxypropyl methacrylate;Light Ester G 201P;3-Acryloyloxy glycerol monomethacrylate;701A;2-Hydroxy-1-acryloyloxy-3-methacryloyloxypropane;1-Acryloyloxy-3-(methacryloyloxy)-2-propanol",
    "duplicated_cas_no": "326821-77-6;147335-44-2;181189-59-3;1208487-39-1",
    "SMILES": "C(C(COC(C=C)=O)O)OC(C(C)=C)=O",
    "meta_data": {
        "InChI": "InChI=1S/C10H14O5/c1-4-9(12)14-5-8(11)6-15-10(13)7(2)3/h4,8,11H,1-2,5-6H2,3H3",
        "InChIKey": null,
        "Canonical SMILES": "O=C(OCC(O)COC(=O)C(=C)C)C=C",
        "Molecular Formula": "C<sub>10</sub>H<sub>14</sub>O<sub>5</sub>",
        "Molecular Mass": "214.22",
        "Boiling Point": "130-155 °C @ Press: 0.18-0.5 Torr"
    }
}