{
    "cas_no": "545-48-2",
    "key_name": "(+)-Erythrodiol",
    "cn_name": "高根二醇;齐墩果烷-12-烯-3b,28-二醇;",
    "alternate_name": "Olean-12-ene-3,28-diol, (3β)-;Olean-12-ene-3β,28-diol;Erythrodiol;(3β)-Olean-12-ene-3,28-diol;(+)-Erythrodiol;3β,28-Dihydroxyolean-12-ene;3β-Erythrodiol;Oleanolic alcohol",
    "duplicated_cas_no": "23795-23-5",
    "SMILES": "C[C@]12C([C@]3([C@@](CO)(CC1)CCC(C)(C)C3)[H])=CC[C@]4([C@@]2(C)CC[C@@]5([C@]4(C)CC[C@H](O)C5(C)C)[H])[H]",
    "meta_data": {
        "InChI": "InChI=1S/C30H50O2/c1-25(2)14-16-30(19-31)17-15-28(6)20(21(30)18-25)8-9-23-27(5)12-11-24(32)26(3,4)22(27)10-13-29(23,28)7/h8,21-24,31-32H,9-19H2,1-7H3/t21-,22-,23+,24-,27-,28+,29+,30+/m0/s1",
        "InChIKey": null,
        "Canonical SMILES": "OCC12CCC(C)(C)CC2C3=CCC4C5(C)CCC(O)C(C)(C)C5CCC4(C)C3(C)CC1",
        "Molecular Formula": "C<sub>30</sub>H<sub>50</sub>O<sub>2</sub>",
        "Molecular Mass": "442.72",
        "Melting Point": "231 °C"
    }
}