{
    "cas_no": "58-63-9",
    "key_name": "Inosine",
    "cn_name": "肌苷;肌甙;",
    "alternate_name": "Inosine;Hypoxanthine, 9-β-<span class=\"text-smallcaps\">D</span>-ribofuranosyl-;Hypoxanthine riboside;Hypoxanthosine;9-β-<span class=\"text-smallcaps\">D</span>-Ribofuranosylhypoxanthine;Hypoxanthine ribonucleoside;Hypoxanthine 9-β-<span class=\"text-smallcaps\">D</span>-ribofuranoside;Atorel;HXR;Oxiamin;Panholic-<span class=\"text-smallcaps\">L</span>;Ribonosine;Selfer;Trophicardyl;Ino;Inosie;1,9-Dihydro-9-β-<span class=\"text-smallcaps\">D</span>-ribofuranosyl-6<em>H</em>-purin-6-one;6<em>H</em>-Purin-6-one, 1,9-dihydro-9-β-<span class=\"text-smallcaps\">D</span>-ribofuranosyl-;NSC 20262;MeSH ID: D007288",
    "duplicated_cas_no": "132953-54-9;4181-51-5;12712-98-0;28861-88-3;292853-81-7;691344-25-9;740029-83-8",
    "SMILES": "O[C@H]1[C@H](N2C3=C(N=C2)C(=O)N=CN3)O[C@H](CO)[C@H]1O",
    "meta_data": {
        "InChI": "InChI=1S/C10H12N4O5/c15-1-4-6(16)7(17)10(19-4)14-3-13-5-8(14)11-2-12-9(5)18/h2-4,6-7,10,15-17H,1H2,(H,11,12,18)/t4-,6-,7-,10-/m1/s1",
        "InChIKey": null,
        "Canonical SMILES": "O=C1N=CNC2=C1N=CN2C3OC(CO)C(O)C3O",
        "Molecular Formula": "C<sub>10</sub>H<sub>12</sub>N<sub>4</sub>O<sub>5</sub>",
        "Molecular Mass": "268.23",
        "Melting Point": "218 °C (decomp)",
        "Density": "1.613 g/cm³"
    }
}