{
    "cas_no": "6032-32-2",
    "key_name": "Methylarbutin",
    "cn_name": "4-甲氧基苯基β-D-葡糖苷;",
    "alternate_name": "β-<span class=\"text-smallcaps\">D</span>-Glucopyranoside, 4-methoxyphenyl;Glucopyranoside, <em>p</em>-methoxyphenyl, β-<span class=\"text-smallcaps\">D</span>-;4-Methoxyphenyl β-<span class=\"text-smallcaps\">D</span>-glucopyranoside;Methylarbutin;<em>p</em>-Methoxyphenyl β-<span class=\"text-smallcaps\">D</span>-glucoside;<em>p</em>-Methoxyphenyl β-<span class=\"text-smallcaps\">D</span>-glucopyranoside;Methylhydroquinone glucoside",
    "duplicated_cas_no": "12167-34-9",
    "SMILES": "O([C@@H]1O[C@H](CO)[C@@H](O)[C@H](O)[C@H]1O)C2=CC=C(OC)C=C2",
    "meta_data": {
        "InChI": "InChI=1S/C13H18O7/c1-18-7-2-4-8(5-3-7)19-13-12(17)11(16)10(15)9(6-14)20-13/h2-5,9-17H,6H2,1H3/t9-,10-,11+,12-,13-/m1/s1",
        "InChIKey": null,
        "Canonical SMILES": "OCC1OC(OC2=CC=C(OC)C=C2)C(O)C(O)C1O",
        "Molecular Formula": "C<sub>13</sub>H<sub>18</sub>O<sub>7</sub>",
        "Molecular Mass": "286.28",
        "Melting Point": "158-160 °C"
    }
}