{
    "cas_no": "7146-67-0",
    "key_name": "<em>N</em>,<em>N</em>-Bis(2-hydroxyethyl)-4-methylbenzenesulfonamide",
    "cn_name": "N,N-双-(2-羟乙基)-对甲苯磺酰胺;",
    "alternate_name": "Benzenesulfonamide, <em>N</em>,<em>N</em>-bis(2-hydroxyethyl)-4-methyl-;<em>p</em>-Toluenesulfonamide, <em>N</em>,<em>N</em>-bis(2-hydroxyethyl)-;<em>N</em>,<em>N</em>-Bis(2-hydroxyethyl)-4-methylbenzenesulfonamide;<em>N</em>,<em>N</em>-Bis(2-hydroxyethyl)-<em>p</em>-toluenesulfonamide;NSC 23811;NSC 46865;(<em>p</em>-Tolylsulfonyl)diethanolamine;PTSA 40X",
    "duplicated_cas_no": "",
    "SMILES": "S(N(CCO)CCO)(=O)(=O)C1=CC=C(C)C=C1",
    "meta_data": {
        "InChI": "InChI=1S/C11H17NO4S/c1-10-2-4-11(5-3-10)17(15,16)12(6-8-13)7-9-14/h2-5,13-14H,6-9H2,1H3",
        "InChIKey": null,
        "Canonical SMILES": "O=S(=O)(C1=CC=C(C=C1)C)N(CCO)CCO",
        "Molecular Formula": "C<sub>11</sub>H<sub>17</sub>NO<sub>4</sub>S",
        "Molecular Mass": "259.32",
        "Melting Point": "101 °C"
    }
}