{
    "cas_no": "7035-03-2",
    "key_name": "2-Methoxybenzeneacetonitrile",
    "cn_name": "2-甲氧基苯乙腈;邻甲氧基氰苄;",
    "alternate_name": "Benzeneacetonitrile, 2-methoxy-;Acetonitrile, (<em>o</em>-methoxyphenyl)-;2-Methoxybenzeneacetonitrile;<em>o</em>-Methoxyphenylacetonitrile;2-Methoxyphenylacetonitrile;2-Methoxybenzyl cyanide;<em>o</em>-Methoxybenzyl cyanide;2-(<em>o</em>-Methoxyphenyl)acetonitrile;2-(2-Methoxyphenyl)acetonitrile",
    "duplicated_cas_no": "",
    "SMILES": "C(C#N)C1=C(OC)C=CC=C1",
    "meta_data": {
        "InChI": "InChI=1S/C9H9NO/c1-11-9-5-3-2-4-8(9)6-7-10/h2-5H,6H2,1H3",
        "InChIKey": null,
        "Canonical SMILES": "N#CCC=1C=CC=CC1OC",
        "Molecular Formula": "C<sub>9</sub>H<sub>9</sub>NO",
        "Molecular Mass": "147.17",
        "Boiling Point": "114 °C @ Press: 3 Torr",
        "Melting Point": "69.8 °C"
    }
}