{
    "cas_no": "60-19-5",
    "key_name": "Tyramine hydrochloride",
    "cn_name": "酪胺盐酸盐;对羟基苯乙胺盐酸盐;",
    "alternate_name": "Phenol, 4-(2-aminoethyl)-, hydrochloride (1:1);Phenol, <em>p</em>-(2-aminoethyl)-, hydrochloride;Phenol, 4-(2-aminoethyl)-, hydrochloride;4-Hydroxyphenethylamine hydrochloride;Tyramine hydrochloride;<em>p</em>-Tyramine hydrochloride;4-Hydroxy-β-phenethylamine hydrochloride;2-(4-Hydroxyphenyl)ethylamine hydrochloride;Uteramin;Mydrial;Tyrosam;4-Hydroxyphenylethylamine hydrochloride",
    "duplicated_cas_no": "",
    "SMILES": "C(CN)C1=CC=C(O)C=C1.Cl",
    "meta_data": {
        "InChI": "InChI=1S/C8H11NO.ClH/c9-6-5-7-1-3-8(10)4-2-7;/h1-4,10H,5-6,9H2;1H",
        "InChIKey": null,
        "Canonical SMILES": "Cl.OC1=CC=C(C=C1)CCN",
        "Molecular Formula": "C<sub>8</sub>H<sub>11</sub>NO.ClH",
        "Molecular Mass": "",
        "Melting Point": "269 °C"
    }
}