{
    "cas_no": "3588-31-6",
    "key_name": "2,3-Dimethoxy-1,3-butadiene",
    "cn_name": "2,3-二甲氧基-1,3-丁二烯;",
    "alternate_name": "1,3-Butadiene, 2,3-dimethoxy-;2,3-Dimethoxy-1,3-butadiene;2,3-Dimethoxybuta-1,3-diene;2,3-Dimethoxybutadiene",
    "duplicated_cas_no": "",
    "SMILES": "C(C(OC)=C)(OC)=C",
    "meta_data": {
        "InChI": "InChI=1S/C6H10O2/c1-5(7-3)6(2)8-4/h1-2H2,3-4H3",
        "InChIKey": null,
        "Canonical SMILES": "O(C(=C)C(OC)=C)C",
        "Molecular Formula": "C<sub>6</sub>H<sub>10</sub>O<sub>2</sub>",
        "Molecular Mass": "114.14",
        "Boiling Point": "51-52 °C @ Press: 30 Torr",
        "Melting Point": "19 °C"
    }
}