{
    "cas_no": "25236-64-0",
    "key_name": "Ethanol, 2,2,2-trifluoro-, 1-methanesulfonate",
    "cn_name": "2,2,2-三氟乙基甲磺酸酯;",
    "alternate_name": "Ethanol, 2,2,2-trifluoro-, 1-methanesulfonate;Ethanol, 2,2,2-trifluoro-, methanesulfonate;2,2,2-Trifluoroethyl methanesulfonate;2,2,2-Trifluoroethyl methylsulfonate;2,2,2-Trifluoroethyl mesylate;Methanesulfonic acid 2,2,2-trifluoroethyl ester",
    "duplicated_cas_no": "",
    "SMILES": "C(OS(C)(=O)=O)C(F)(F)F",
    "meta_data": {
        "InChI": "InChI=1S/C3H5F3O3S/c1-10(7,8)9-2-3(4,5)6/h2H2,1H3",
        "InChIKey": null,
        "Canonical SMILES": "O=S(=O)(OCC(F)(F)F)C",
        "Molecular Formula": "C<sub>3</sub>H<sub>5</sub>F<sub>3</sub>O<sub>3</sub>S",
        "Molecular Mass": "178.13",
        "Boiling Point": "54-55 °C"
    }
}