{
    "cas_no": "65399-05-5",
    "key_name": "5-Aminophthalide",
    "cn_name": "5-氨基苯酞;",
    "alternate_name": "1(3<em>H</em>)-Isobenzofuranone, 5-amino-;Phthalide, 5-amino-;5-Amino-1(3<em>H</em>)-isobenzofuranone;5-Aminophthalide;5-Aminoisobenzofuran-1(3<em>H</em>)-one;5-Amino-2-benzofuran-1(3<em>H</em>)-one;1-Oxo-1,3-dihydroisobenzofuran-5-amine;5-Amino-1,3-dihydroisobenzofuran-1-one;5-Amino-3<em>H</em>-benzofuran-1-one",
    "duplicated_cas_no": "",
    "SMILES": "O=C1C=2C(CO1)=CC(N)=CC2",
    "meta_data": {
        "InChI": "InChI=1S/C8H7NO2/c9-6-1-2-7-5(3-6)4-11-8(7)10/h1-3H,4,9H2",
        "InChIKey": null,
        "Canonical SMILES": "O=C1OCC2=CC(N)=CC=C12",
        "Molecular Formula": "C<sub>8</sub>H<sub>7</sub>NO<sub>2</sub>",
        "Molecular Mass": "149.15",
        "Melting Point": "178 °C"
    }
}