{
    "cas_no": "78660-92-1",
    "key_name": "2-[1,1′-Biphenyl]-4-yl-4-quinolinecarboxylic acid",
    "cn_name": null,
    "alternate_name": "4-Quinolinecarboxylic acid, 2-[1,1′-biphenyl]-4-yl-;Cinchoninic acid, 2-(4-biphenylyl)-;2-[1,1′-Biphenyl]-4-yl-4-quinolinecarboxylic acid;2-(1,1′-Biphenyl-4-yl)-4-quinolinecarboxylic acid;2-Biphenyl-4-yl-quinoline-4-carboxylic acid;2-Biphenyl-4-ylquinoline-4-carboxylic acid;2-(4-Phenylphenyl)quinoline-4-carboxylic acid",
    "duplicated_cas_no": "",
    "SMILES": "C(O)(=O)C=1C2=C(N=C(C1)C3=CC=C(C=C3)C4=CC=CC=C4)C=CC=C2",
    "meta_data": {
        "InChI": "InChI=1S/C22H15NO2/c24-22(25)19-14-21(23-20-9-5-4-8-18(19)20)17-12-10-16(11-13-17)15-6-2-1-3-7-15/h1-14H,(H,24,25)",
        "InChIKey": null,
        "Canonical SMILES": "O=C(O)C1=CC(=NC=2C=CC=CC21)C=3C=CC(=CC3)C=4C=CC=CC4",
        "Molecular Formula": "C<sub>22</sub>H<sub>15</sub>NO<sub>2</sub>",
        "Molecular Mass": "325.36",
        "Melting Point": "289-290 °C"
    }
}