{
    "cas_no": "7440-36-0",
    "key_name": "Antimony",
    "cn_name": "锑;",
    "alternate_name": "Antimony;C.I. 77050;Antimony black;Stibium;Antimony element;SBE 03PB;MeSH ID: D000965;SS-A 07",
    "duplicated_cas_no": "117011-47-9;73063-67-9",
    "SMILES": "[Sb]",
    "meta_data": {
        "InChI": "InChI=1S/Sb",
        "InChIKey": null,
        "Canonical SMILES": "[Sb]",
        "Molecular Formula": "Sb",
        "Molecular Mass": "",
        "Boiling Point": "1635 °C",
        "Melting Point": "630 °C",
        "Density": "6.684 g/cm³ @ Temp: 25 °C"
    }
}