{
    "cas_no": "25127-29-1",
    "key_name": "Crebanine",
    "cn_name": null,
    "alternate_name": "5<em>H</em>-Benzo[<em>g</em>]-1,3-benzodioxolo[6,5,4-<em>de</em>]quinoline, 6,7,7a,8-tetrahydro-9,10-dimethoxy-7-methyl-, (7<em>R</em>)-;Aporphine, 8,9-dimethoxy-1,2-(methylenedioxy)-;Crebanine;5<em>H</em>-Benzo[<em>g</em>]-1,3-benzodioxolo[6,5,4-<em>de</em>]quinoline, 6,7,7a,8-tetrahydro-9,10-dimethoxy-7-methyl-, (<em>R</em>)-;(7<em>R</em>)-6,7,7a,8-Tetrahydro-9,10-dimethoxy-7-methyl-5<em>H</em>-benzo[<em>g</em>]-1,3-benzodioxolo[6,5,4-<em>de</em>]quinoline;Crebanin;(-)-Crebanine;(R)-9,10-Dimethoxy-7-methyl-6,7,7a,8-tetrahydro-5<em>H</em>-[1,3]dioxolo[4′,5′:4,5]benzo[1,2,3-<em>de</em>]benzo[<em>g</em>]quinoline",
    "duplicated_cas_no": "",
    "SMILES": "CN1[C@]2(C=3C(C=4C(C2)=C(OC)C(OC)=CC4)=C5C(=CC3CC1)OCO5)[H]",
    "meta_data": {
        "InChI": "InChI=1S/C20H21NO4/c1-21-7-6-11-8-16-20(25-10-24-16)18-12-4-5-15(22-2)19(23-3)13(12)9-14(21)17(11)18/h4-5,8,14H,6-7,9-10H2,1-3H3/t14-/m1/s1",
        "InChIKey": null,
        "Canonical SMILES": "O(C=1C=CC=2C3=C4OCOC4=CC5=C3C(N(C)CC5)CC2C1OC)C",
        "Molecular Formula": "C<sub>20</sub>H<sub>21</sub>NO<sub>4</sub>",
        "Molecular Mass": "339.39",
        "Melting Point": "126 °C"
    }
}