{
    "cas_no": "1871-67-6",
    "key_name": "<em>trans</em>-2-Octenoic acid",
    "cn_name": null,
    "alternate_name": "2-Octenoic acid, (2<em>E</em>)-;2-Octenoic acid, (<em>E</em>)-;(2<em>E</em>)-2-Octenoic acid;<em>trans</em>-2-Octenoic acid;(<em>E</em>)-Oct-2-enoic acid;(2<em>E</em>)-Oct-2-enoic acid;(<em>E</em>)-2-Octenoic acid",
    "duplicated_cas_no": "",
    "SMILES": "C(\\CCCCC)=C/C(O)=O",
    "meta_data": {
        "InChI": "InChI=1S/C8H14O2/c1-2-3-4-5-6-7-8(9)10/h6-7H,2-5H2,1H3,(H,9,10)/b7-6+",
        "InChIKey": null,
        "Canonical SMILES": "O=C(O)C=CCCCCC",
        "Molecular Formula": "C<sub>8</sub>H<sub>14</sub>O<sub>2</sub>",
        "Molecular Mass": "142.20",
        "Boiling Point": "95-100 °C @ Press: 0.4 Torr",
        "Melting Point": "2 °C",
        "Density": "0.934 g/cm³ @ Temp: 25 °C"
    }
}