{
    "cas_no": "478-01-3",
    "key_name": "Nobiletin",
    "cn_name": "川陈皮素;",
    "alternate_name": "4<em>H</em>-1-Benzopyran-4-one, 2-(3,4-dimethoxyphenyl)-5,6,7,8-tetramethoxy-;Flavone, 3′,4′,5,6,7,8-hexamethoxy-;Nobiletin;2-(3,4-Dimethoxyphenyl)-5,6,7,8-tetramethoxy-4<em>H</em>-1-benzopyran-4-one;5,6,7,8,3′,4′-Hexamethoxyflavone;3′,4′,5,6,7,8-Hexamethoxyflavone;NSC 618903;NSC 76751;PMF 90;2-(3,4-Dimethoxyphenyl)-5,6,7,8-tetramethoxychromen-4-one",
    "duplicated_cas_no": "",
    "SMILES": "O(C)C1=C2C(=C(OC)C(OC)=C1OC)OC(=CC2=O)C3=CC(OC)=C(OC)C=C3",
    "meta_data": {
        "InChI": "InChI=1S/C21H22O8/c1-23-13-8-7-11(9-15(13)24-2)14-10-12(22)16-17(25-3)19(26-4)21(28-6)20(27-5)18(16)29-14/h7-10H,1-6H3",
        "InChIKey": null,
        "Canonical SMILES": "O=C1C=C(OC2=C(OC)C(OC)=C(OC)C(OC)=C12)C=3C=CC(OC)=C(OC)C3",
        "Molecular Formula": "C<sub>21</sub>H<sub>22</sub>O<sub>8</sub>",
        "Molecular Mass": "402.39",
        "Melting Point": "136.5-137.5 °C"
    }
}