{
    "cas_no": "85-38-1",
    "key_name": "3-Nitrosalicylic acid",
    "cn_name": "3-硝基水杨酸;3-硝基-2-羟基苯甲酸;",
    "alternate_name": "Benzoic acid, 2-hydroxy-3-nitro-;Salicylic acid, 3-nitro-;2-Hydroxy-3-nitrobenzoic acid;3-Nitrosalicylic acid;NSC 182",
    "duplicated_cas_no": "",
    "SMILES": "C(O)(=O)C1=C(O)C(N(=O)=O)=CC=C1",
    "meta_data": {
        "InChI": "InChI=1S/C7H5NO5/c9-6-4(7(10)11)2-1-3-5(6)8(12)13/h1-3,9H,(H,10,11)",
        "InChIKey": null,
        "Canonical SMILES": "O=C(O)C1=CC=CC(=C1O)N(=O)=O",
        "Molecular Formula": "C<sub>7</sub>H<sub>5</sub>NO<sub>5</sub>",
        "Molecular Mass": "183.12",
        "Melting Point": "148 °C"
    }
}