{
    "cas_no": "13689-19-5",
    "key_name": "Tricyclohexylphosphine oxide",
    "cn_name": null,
    "alternate_name": "Phosphine oxide, tricyclohexyl-;Tricyclohexylphosphine oxide;NSC 222417",
    "duplicated_cas_no": "",
    "SMILES": "P(=O)(C1CCCCC1)(C2CCCCC2)C3CCCCC3",
    "meta_data": {
        "InChI": "InChI=1S/C18H33OP/c19-20(16-10-4-1-5-11-16,17-12-6-2-7-13-17)18-14-8-3-9-15-18/h16-18H,1-15H2",
        "InChIKey": null,
        "Canonical SMILES": "O=P(C1CCCCC1)(C2CCCCC2)C3CCCCC3",
        "Molecular Formula": "C<sub>18</sub>H<sub>33</sub>OP",
        "Molecular Mass": "296.43",
        "Melting Point": "155-157 °C"
    }
}