{
    "cas_no": "18507-89-6",
    "key_name": "Decoquinate",
    "cn_name": "癸氧喹酯;乙癸氧喹酯;6-癸氧基-7-乙氧基-4-羟基-3-喹啉甲酸乙酯;",
    "alternate_name": "3-Quinolinecarboxylic acid, 6-(decyloxy)-7-ethoxy-4-hydroxy-, ethyl ester;Ethyl 6-<em>n</em>-decyloxy-7-ethoxy-4-hydroxyquinoline-3-carboxylate;Deccox;Decoquinate;M and B 15497;Ethyl 6-decyloxy-7-ethoxy-4-hydroxyquinoline-3-carboxylate;Ethyl 4-hydroxy-6-(decyloxy)-7-ethoxyquinoline-3-carboxylate;Decoxy;HC 1528;NSC 339057",
    "duplicated_cas_no": "55352-59-5",
    "SMILES": "OC=1C2=C(C=C(OCC)C(OCCCCCCCCCC)=C2)N=CC1C(OCC)=O",
    "meta_data": {
        "InChI": "InChI=1S/C24H35NO5/c1-4-7-8-9-10-11-12-13-14-30-21-15-18-20(16-22(21)28-5-2)25-17-19(23(18)26)24(27)29-6-3/h15-17H,4-14H2,1-3H3,(H,25,26)",
        "InChIKey": null,
        "Canonical SMILES": "O=C(OCC)C1=CN=C2C=C(OCC)C(OCCCCCCCCCC)=CC2=C1O",
        "Molecular Formula": "C<sub>24</sub>H<sub>35</sub>NO<sub>5</sub>",
        "Molecular Mass": "417.54",
        "Melting Point": "242-245 °C"
    }
}