{
    "cas_no": "71-55-6",
    "key_name": "1,1,1-Trichloroethane",
    "cn_name": "1,1,1-三氯乙烷;",
    "alternate_name": "Ethane, 1,1,1-trichloro-;Chlorten;1,1,1-Trichloroethane;Chlorothene;Methylchloroform;α-Trichloroethane;Aerothene TT;Inhibisol;Trichloroethane;Chlorothene NU;Methyltrichloromethane;Chlorothene VG;Chlorotene;α-T;CF 2;ICI-CF 2;Trichloromethylmethane;1,1,1-Trichlorethane;Chlorothene SM;Ethana NU;Tafclean;Cleanite;Three One S;Three One A;HCC 140a;F 140a;Genklene LB;TCA;NSC 9367",
    "duplicated_cas_no": "74552-83-3",
    "SMILES": "C(C)(Cl)(Cl)Cl",
    "meta_data": {
        "InChI": "InChI=1S/C2H3Cl3/c1-2(3,4)5/h1H3",
        "InChIKey": null,
        "Canonical SMILES": "ClC(Cl)(Cl)C",
        "Molecular Formula": "C<sub>2</sub>H<sub>3</sub>Cl<sub>3</sub>",
        "Molecular Mass": "133.40",
        "Boiling Point": "74.0 °C @ Press: 760 Torr",
        "Melting Point": "-30.4 °C",
        "Density": "1.3376 g/cm³ @ Temp: 20 °C"
    }
}