{
    "cas_no": "31127-80-7",
    "key_name": "5-Acetamido-<em>N</em>,<em>N</em>′-bis(2,3-dihydroxypropyl)-2,4,6-triiodoisophthalamide",
    "cn_name": "5-(乙酰氨基)-N,N\"-双(2,3-二羟基丙基)-2,4,6-三碘-1,3-苯二甲酰胺;",
    "alternate_name": "1,3-Benzenedicarboxamide, 5-(acetylamino)-<em>N</em><sup>1</sup>,<em>N</em><sup>3</sup>-bis(2,3-dihydroxypropyl)-2,4,6-triiodo-;Isophthalamide, 5-acetamido-<em>N</em>,<em>N</em>′-bis(2,3-dihydroxypropyl)-2,4,6-triiodo-;1,3-Benzenedicarboxamide, 5-(acetylamino)-<em>N</em>,<em>N</em>′-bis(2,3-dihydroxypropyl)-2,4,6-triiodo-;5-(Acetylamino)-<em>N</em><sup>1</sup>,<em>N</em><sup>3</sup>-bis(2,3-dihydroxypropyl)-2,4,6-triiodo-1,3-benzenedicarboxamide;5-Acetylamino-<em>N</em>,<em>N</em>′-bis(2,3-dihydroxypropyl)-2,4,6-triiodoisophthalamide;5-(Acetylamino)-<em>N</em>,<em>N</em>′-bis(2,3-dihydroxypropyl)-2,4,6-triiodo-1,3-benzenedicarboxamide;5-Acetamido-<em>N</em>,<em>N</em>′-bis(2,3-dihydroxypropyl)-2,4,6-triiodoisophthalamide",
    "duplicated_cas_no": "",
    "SMILES": "C(NCC(CO)O)(=O)C1=C(I)C(C(NCC(CO)O)=O)=C(I)C(NC(C)=O)=C1I",
    "meta_data": {
        "InChI": "InChI=1S/C16H20I3N3O7/c1-6(25)22-14-12(18)9(15(28)20-2-7(26)4-23)11(17)10(13(14)19)16(29)21-3-8(27)5-24/h7-8,23-24,26-27H,2-5H2,1H3,(H,20,28)(H,21,29)(H,22,25)",
        "InChIKey": null,
        "Canonical SMILES": "O=C(NCC(O)CO)C1=C(I)C(NC(=O)C)=C(I)C(C(=O)NCC(O)CO)=C1I",
        "Molecular Formula": "C<sub>16</sub>H<sub>20</sub>I<sub>3</sub>N<sub>3</sub>O<sub>7</sub>",
        "Molecular Mass": "747.06",
        "Melting Point": "313-321 °C"
    }
}