{
    "cas_no": "3147-45-3",
    "key_name": "2,4-Dihydroxybenzamide",
    "cn_name": "2,4-二羟基苯甲酰胺;",
    "alternate_name": "Benzamide, 2,4-dihydroxy-;β-Resorcylamide;2,4-Dihydroxybenzamide;1,3,4-Resorcylic acid amide;NSC 60728",
    "duplicated_cas_no": "",
    "SMILES": "C(N)(=O)C1=C(O)C=C(O)C=C1",
    "meta_data": {
        "InChI": "InChI=1S/C7H7NO3/c8-7(11)5-2-1-4(9)3-6(5)10/h1-3,9-10H,(H2,8,11)",
        "InChIKey": null,
        "Canonical SMILES": "O=C(N)C1=CC=C(O)C=C1O",
        "Molecular Formula": "C<sub>7</sub>H<sub>7</sub>NO<sub>3</sub>",
        "Molecular Mass": "153.14",
        "Melting Point": "221-222 °C"
    }
}