{
    "cas_no": "23155-02-4",
    "key_name": "Fosfomycin",
    "cn_name": "磷霉素;1,2-环氧丙基膦酸;",
    "alternate_name": "Phosphonic acid, <em>P</em>-[(2<em>R</em>,3<em>S</em>)-3-methyl-2-oxiranyl]-;Phosphonic acid, (1,2-epoxypropyl)-, (1<em>R</em>,2<em>S</em>)-(-)-;Phosphonic acid, (3-methyloxiranyl)-, (2<em>R</em>-<em>cis</em>)-;Phosphonic acid, [(2<em>R</em>,3<em>S</em>)-3-methyloxiranyl]-;<em>P</em>-[(2<em>R</em>,3<em>S</em>)-3-Methyl-2-oxiranyl]phosphonic acid;Phosphonomycin;Antibiotic 833A;Fosfomycin;(-)-(<em>cis</em>-1,2-Epoxypropyl)phosphonic acid;(2<em>R</em>-<em>cis</em>)-(3-Methyloxiranyl)phosphonic acid;(-)-(1<em>R</em>,2<em>S</em>)-(1,2-Epoxypropyl)phosphonic acid;Fosfonomycin;Fosfocina;Phosphomycin;MK 0955;Fosfomicin;Levo-phosphonomycin;(-)-Phosphonomycin;[(2<em>R</em>,3<em>S</em>)-3-Methyloxiranyl]phosphonic acid;Infectophos;ZTI 01;MeSH ID: D005578",
    "duplicated_cas_no": "",
    "SMILES": "P(=O)(O)(O)[C@@H]1[C@H](C)O1",
    "meta_data": {
        "InChI": "InChI=1S/C3H7O4P/c1-2-3(7-2)8(4,5)6/h2-3H,1H3,(H2,4,5,6)/t2-,3+/m0/s1",
        "InChIKey": null,
        "Canonical SMILES": "O=P(O)(O)C1OC1C",
        "Molecular Formula": "C<sub>3</sub>H<sub>7</sub>O<sub>4</sub>P",
        "Molecular Mass": "138.06",
        "Melting Point": "94 °C"
    }
}