{
    "cas_no": "18592-13-7",
    "key_name": "6-(Chloromethyl)-2,4(1<em>H</em>,3<em>H</em>)-pyrimidinedione",
    "cn_name": "6-(氯甲基)脲嘧啶;6-氯甲基-1H-嘧啶-2,4-二酮;",
    "alternate_name": "2,4(1<em>H</em>,3<em>H</em>)-Pyrimidinedione, 6-(chloromethyl)-;Uracil, 6-(chloromethyl)-;6-(Chloromethyl)-2,4(1<em>H</em>,3<em>H</em>)-pyrimidinedione;6-(Chloromethyl)uracil;6-(Chloromethyl)pyrimidine-2,4(1<em>H</em>,3<em>H</em>)-dione;6-(Chloromethyl)-1,2,3,4-tetrahydropyrimidine-2,4-dione;Uracyl chloride",
    "duplicated_cas_no": "",
    "SMILES": "C(Cl)C1=CC(=O)NC(=O)N1",
    "meta_data": {
        "InChI": "InChI=1S/C5H5ClN2O2/c6-2-3-1-4(9)8-5(10)7-3/h1H,2H2,(H2,7,8,9,10)",
        "InChIKey": null,
        "Canonical SMILES": "O=C1C=C(NC(=O)N1)CCl",
        "Molecular Formula": "C<sub>5</sub>H<sub>5</sub>ClN<sub>2</sub>O<sub>2</sub>",
        "Molecular Mass": "160.56",
        "Melting Point": "207-209 °C"
    }
}