{
    "cas_no": "56041-57-7",
    "key_name": "1-(2,3-Dichlorophenyl)ethanone",
    "cn_name": "2,3-二氯苯乙酮;",
    "alternate_name": "Ethanone, 1-(2,3-dichlorophenyl)-;1-(2,3-Dichlorophenyl)ethanone;2′,3′-Dichloroacetophenone;2,3-Dichloroacetophenone;1-(2,3-Dichlorophenyl)ethan-1-one",
    "duplicated_cas_no": "",
    "SMILES": "C(C)(=O)C1=C(Cl)C(Cl)=CC=C1",
    "meta_data": {
        "InChI": "InChI=1S/C8H6Cl2O/c1-5(11)6-3-2-4-7(9)8(6)10/h2-4H,1H3",
        "InChIKey": null,
        "Canonical SMILES": "O=C(C=1C=CC=C(Cl)C1Cl)C",
        "Molecular Formula": "C<sub>8</sub>H<sub>6</sub>Cl<sub>2</sub>O",
        "Molecular Mass": "189.04",
        "Melting Point": "125-127 °C"
    }
}