{
    "cas_no": "5545-17-5",
    "key_name": "<em>N</em>,<em>N</em>′-Diacetyl-<span class=\"text-smallcaps\">L</span>-cystine",
    "cn_name": null,
    "alternate_name": "<span class=\"text-smallcaps\">L</span>-Cystine, <em>N</em>,<em>N</em>′-diacetyl-;Cystine, <em>N</em>,<em>N</em>′-diacetyl-, <span class=\"text-smallcaps\">L</span>-;Cystine, <em>N</em>,<em>N</em>′-diacetyl-;<em>N</em>,<em>N</em>′-Diacetyl-<span class=\"text-smallcaps\">L</span>-cystine;<em>N</em>,<em>N</em>′-Diacetylcystine;NSC 203780",
    "duplicated_cas_no": "",
    "SMILES": "[C@@H](NC(C)=O)(C(O)=O)CSSC[C@H](NC(C)=O)C(O)=O",
    "meta_data": {
        "InChI": "InChI=1S/C10H16N2O6S2/c1-5(13)11-7(9(15)16)3-19-20-4-8(10(17)18)12-6(2)14/h7-8H,3-4H2,1-2H3,(H,11,13)(H,12,14)(H,15,16)(H,17,18)/t7-,8-/m0/s1",
        "InChIKey": null,
        "Canonical SMILES": "O=C(O)C(NC(=O)C)CSSCC(NC(=O)C)C(=O)O",
        "Molecular Formula": "C<sub>10</sub>H<sub>16</sub>N<sub>2</sub>O<sub>6</sub>S<sub>2</sub>",
        "Molecular Mass": "",
        "Melting Point": "273-275 °C"
    }
}