{
    "cas_no": "123-70-6",
    "key_name": "Bis(3-(methylamino)propyl)methylamine",
    "cn_name": null,
    "alternate_name": "1,3-Propanediamine, <em>N</em><sup>1</sup>,<em>N</em><sup>3</sup>-dimethyl-<em>N</em><sup>1</sup>-[3-(methylamino)propyl]-;Dipropylamine, <em>N</em>-methyl-3,3′-bis(methylamino)-;1,3-Propanediamine, <em>N</em>,<em>N</em>′-dimethyl-<em>N</em>-[3-(methylamino)propyl]-;<em>N</em><sup>1</sup>,<em>N</em><sup>3</sup>-Dimethyl-<em>N</em><sup>1</sup>-[3-(methylamino)propyl]-1,3-propanediamine;3,3′-Bis(methylamino)-<em>N</em>-methyldipropylamine;3,3′-Methyliminobis(<em>N</em>-methylpropylamine);Bis(3-(methylamino)propyl)methylamine;<em>N</em>,<em>N</em>-Bis(3-(<em>N</em>-methylamino)propyl)methylamine;NSC 166322;<em>N</em>-Methyl-<em>N</em>,<em>N</em>-bis[3-(methylamino)propyl]amine;<em>N</em>,<em>N</em>′-Dimethyl-<em>N</em>-[3-(methylamino)propyl]-1,3-propanediamine;N1,N3-Dimethyl-N1-[3-(methylamino)propyl]propane-1,3-diamine;<em>N</em>,<em>N</em>-Bis[3-(methylamino)-propyl]methylamine",
    "duplicated_cas_no": "",
    "SMILES": "C(N(CCCNC)C)CCNC",
    "meta_data": {
        "InChI": "InChI=1S/C9H23N3/c1-10-6-4-8-12(3)9-5-7-11-2/h10-11H,4-9H2,1-3H3",
        "InChIKey": null,
        "Canonical SMILES": "N(C)CCCN(C)CCCNC",
        "Molecular Formula": "C<sub>9</sub>H<sub>23</sub>N<sub>3</sub>",
        "Molecular Mass": "173.30",
        "Boiling Point": "65 °C @ Press: 0.2 Torr"
    }
}