{
    "cas_no": "1929-82-4",
    "key_name": "Nitrapyrin",
    "cn_name": "2-氯-6-三氯甲基吡啶;",
    "alternate_name": "Pyridine, 2-chloro-6-(trichloromethyl)-;2-Chloro-6-(trichloromethyl)pyridine;N-Serve;Nitrapyrin;6-Chloro-2-(trichloromethyl)pyridine;CP;2-Trichloromethyl-6-chloropyridine;N-Serve 24E;Instinct GF 3181",
    "duplicated_cas_no": "1135442-91-9",
    "SMILES": "C(Cl)(Cl)(Cl)C=1N=C(Cl)C=CC1",
    "meta_data": {
        "InChI": "InChI=1S/C6H3Cl4N/c7-5-3-1-2-4(11-5)6(8,9)10/h1-3H",
        "InChIKey": null,
        "Canonical SMILES": "ClC=1N=C(C=CC1)C(Cl)(Cl)Cl",
        "Molecular Formula": "C<sub>6</sub>H<sub>3</sub>Cl<sub>4</sub>N",
        "Molecular Mass": "230.91",
        "Boiling Point": "136-137.5 °C",
        "Melting Point": "63 °C"
    }
}