{
    "cas_no": "3680-69-1",
    "key_name": "4-Chloro-7<em>H</em>-pyrrolo[2,3-<em>d</em>]pyrimidine",
    "cn_name": "4-氯吡咯并嘧啶;4-氯吡咯并[2,3-d]嘧啶;6-氯-7-脱氮嘌呤;",
    "alternate_name": "7<em>H</em>-Pyrrolo[2,3-<em>d</em>]pyrimidine, 4-chloro-;1<em>H</em>-Pyrrolo[2,3-<em>d</em>]pyrimidine, 4-chloro-;4-Chloro-7<em>H</em>-pyrrolo[2,3-<em>d</em>]pyrimidine;4-Chloropyrrolo[2,3-<em>d</em>]pyrimidine;NSC 64952;6-Chloro-7-deazapurine;4-Chloro-1<em>H</em>-pyrrolo[2,3-<em>d</em>]pyrimidine;4-Chloro-7<em>H</em>-pyrrolo[2,3-<em>d</em>]pyrimidin",
    "duplicated_cas_no": "",
    "SMILES": "ClC1=C2C(=NC=N1)NC=C2",
    "meta_data": {
        "InChI": "InChI=1S/C6H4ClN3/c7-5-4-1-2-8-6(4)10-3-9-5/h1-3H,(H,8,9,10)",
        "InChIKey": null,
        "Canonical SMILES": "ClC1=NC=NC=2NC=CC12",
        "Molecular Formula": "C<sub>6</sub>H<sub>4</sub>ClN<sub>3</sub>",
        "Molecular Mass": "153.57",
        "Melting Point": "188 °C (decomp)"
    }
}