{
    "cas_no": "3091-32-5",
    "key_name": "Tricyclohexyltin chloride",
    "cn_name": "氯化三环己基锡;",
    "alternate_name": "Stannane, chlorotricyclohexyl-;Tin, chlorotricyclohexyl-;Tricyclohexyltin chloride;Chlorotricyclohexylstannane;Tricyclohexylstannyl chloride;Tris(cyclohexyl)tin chloride;Chlorotricyclohexyltin;NSC 202692;Tricyclohexylchlorostannane",
    "duplicated_cas_no": "",
    "SMILES": "[Sn](Cl)(C1CCCCC1)(C2CCCCC2)C3CCCCC3",
    "meta_data": {
        "InChI": "InChI=1S/3C6H11.ClH.Sn/c3*1-2-4-6-5-3-1;;/h3*1H,2-6H2;1H;/q;;;;+1/p-1",
        "InChIKey": null,
        "Canonical SMILES": "Cl[Sn](C1CCCCC1)(C2CCCCC2)C3CCCCC3",
        "Molecular Formula": "C<sub>18</sub>H<sub>33</sub>ClSn",
        "Molecular Mass": "403.62",
        "Boiling Point": "160-175 °C @ Press: 6 Torr",
        "Melting Point": "129.5 °C"
    }
}