{
    "cas_no": "483-65-8",
    "key_name": "Retene",
    "cn_name": "惹烯;",
    "alternate_name": "Phenanthrene, 1-methyl-7-(1-methylethyl)-;Retene;Phenanthrene, 7-isopropyl-1-methyl-;1-Methyl-7-(1-methylethyl)phenanthrene;7-Isopropyl-1-methylphenanthrene;1-Methyl-7-isopropylphenanthrene;NSC 26317;1-Methyl-7-propan-2-ylphenanthrene",
    "duplicated_cas_no": "",
    "SMILES": "CC=1C=2C(=C3C(C=C(C(C)C)C=C3)=CC2)C=CC1",
    "meta_data": {
        "InChI": "InChI=1S/C18H18/c1-12(2)14-7-10-17-15(11-14)8-9-16-13(3)5-4-6-18(16)17/h4-12H,1-3H3",
        "InChIKey": null,
        "Canonical SMILES": "C1=CC2=C3C=CC(=CC3=CC=C2C(=C1)C)C(C)C",
        "Molecular Formula": "C<sub>18</sub>H<sub>18</sub>",
        "Molecular Mass": "234.34",
        "Boiling Point": "390 °C",
        "Melting Point": "101 °C",
        "Density": "1.1252 g/cm³ @ Temp: 20 °C"
    }
}