{
    "cas_no": "60270-33-9",
    "key_name": "Behenic acid dimethylaminopropylamide",
    "cn_name": null,
    "alternate_name": "Docosanamide, <em>N</em>-[3-(dimethylamino)propyl]-;<em>N</em>-[3-(Dimethylamino)propyl]docosanamide;Behenamidopropyldimethylamine;Lexamine B 13;Incromine BB;<em>N</em>′,<em>N</em>′-Dimethyl-<em>N</em>-docosanoyl-1,3-diaminopropane;Behenic acid dimethylaminopropylamide;Tego Amid 22;Catinal BMPA;Amidet APA 22;Beheniramidopropyl dimethylamine;Incromine BD;Nikkol Amidoamine MPB;Farmin DM 220A;Catinal BMPA(K)",
    "duplicated_cas_no": "",
    "SMILES": "C(CCCCCCCCCCCCCCCCCCCC)C(NCCCN(C)C)=O",
    "meta_data": {
        "InChI": "InChI=1S/C27H56N2O/c1-4-5-6-7-8-9-10-11-12-13-14-15-16-17-18-19-20-21-22-24-27(30)28-25-23-26-29(2)3/h4-26H2,1-3H3,(H,28,30)",
        "InChIKey": null,
        "Canonical SMILES": "O=C(NCCCN(C)C)CCCCCCCCCCCCCCCCCCCCC",
        "Molecular Formula": "C<sub>27</sub>H<sub>56</sub>N<sub>2</sub>O",
        "Molecular Mass": "424.75",
        "Melting Point": "80 °C"
    }
}