{
    "cas_no": "1080-32-6",
    "key_name": "Diethyl <em>P</em>-(phenylmethyl)phosphonate",
    "cn_name": null,
    "alternate_name": "Phosphonic acid, <em>P</em>-(phenylmethyl)-, diethyl ester;Phosphonic acid, benzyl-, diethyl ester;Phosphonic acid, (phenylmethyl)-, diethyl ester;Diethyl <em>P</em>-(phenylmethyl)phosphonate;Diethyl benzylphosphonate;(Diethoxyphosphonomethyl)benzene;Benzyl diethyl phosphonate;Diethyl (phenylmethyl)phosphonate;NSC 62294;Benzylphosphonic acid diethyl ester;JC 228",
    "duplicated_cas_no": "",
    "SMILES": "P(CC1=CC=CC=C1)(OCC)(OCC)=O",
    "meta_data": {
        "InChI": "InChI=1S/C11H17O3P/c1-3-13-15(12,14-4-2)10-11-8-6-5-7-9-11/h5-9H,3-4,10H2,1-2H3",
        "InChIKey": null,
        "Canonical SMILES": "O=P(OCC)(OCC)CC=1C=CC=CC1",
        "Molecular Formula": "C<sub>11</sub>H<sub>17</sub>O<sub>3</sub>P",
        "Molecular Mass": "228.22",
        "Boiling Point": "153-155 °C @ Press: 12 Torr",
        "Melting Point": "90 °C",
        "Density": "1.1189 g/cm³ @ Temp: 00 °C"
    }
}