{
    "cas_no": "81565-19-7",
    "key_name": "3-Chloro-4-(trifluoromethyl)pyridine",
    "cn_name": "3-氯-4-三氟甲基吡啶;",
    "alternate_name": "Pyridine, 3-chloro-4-(trifluoromethyl)-;3-Chloro-4-(trifluoromethyl)pyridine",
    "duplicated_cas_no": "",
    "SMILES": "C(F)(F)(F)C=1C(Cl)=CN=CC1",
    "meta_data": {
        "InChI": "InChI=1S/C6H3ClF3N/c7-5-3-11-2-1-4(5)6(8,9)10/h1-3H",
        "InChIKey": null,
        "Canonical SMILES": "FC(F)(F)C=1C=CN=CC1Cl",
        "Molecular Formula": "C<sub>6</sub>H<sub>3</sub>ClF<sub>3</sub>N",
        "Molecular Mass": "181.54",
        "Boiling Point": "142-144 °C",
        "Melting Point": "-23--20 °C",
        "Density": "1.407 g/cm³ @ Temp: 20 °C"
    }
}