{
    "cas_no": "55242-55-2",
    "key_name": "Propentofylline",
    "cn_name": null,
    "alternate_name": "1<em>H</em>-Purine-2,6-dione, 3,7-dihydro-3-methyl-1-(5-oxohexyl)-7-propyl-;3,7-Dihydro-3-methyl-1-(5-oxohexyl)-7-propyl-1<em>H</em>-purine-2,6-dione;3-Methyl-1-(5-oxohexyl)-7-propylxanthine;HWA 285;Propentofylline;1-(5-Oxohexyl)-3-methyl-7-propylxanthine;Propentophylline;HOE 285;Hextol;Karsivan;Albert 285;Propenlotylina",
    "duplicated_cas_no": "",
    "SMILES": "C(CC)N1C2=C(N(C)C(=O)N(CCCCC(C)=O)C2=O)N=C1",
    "meta_data": {
        "InChI": "InChI=1S/C15H22N4O3/c1-4-8-18-10-16-13-12(18)14(21)19(15(22)17(13)3)9-6-5-7-11(2)20/h10H,4-9H2,1-3H3",
        "InChIKey": null,
        "Canonical SMILES": "O=C1C2=C(N=CN2CCC)N(C(=O)N1CCCCC(=O)C)C",
        "Molecular Formula": "C<sub>15</sub>H<sub>22</sub>N<sub>4</sub>O<sub>3</sub>",
        "Molecular Mass": "306.36",
        "Melting Point": "69 °C"
    }
}