{
    "cas_no": "484-11-7",
    "key_name": "2,9-Dimethyl-1,10-phenanthroline",
    "cn_name": "新铜试剂;2,9-二甲基-1,10-菲罗啉;",
    "alternate_name": "1,10-Phenanthroline, 2,9-dimethyl-;2,9-Dimethyl-1,10-phenanthroline;Neocuproine;2,9-Dimethyl-<em>o</em>-phenanthroline;Neocuproin;DMPHEN;VUF 7738;2,9-Dimethylphenanthroline;2,9-Neocuproine;NSC 4280;2,9-Dimethyl-1,10-phenanthrolin;3,6-Dimethyl-4,5-diazaphenanthrene",
    "duplicated_cas_no": "",
    "SMILES": "CC1=NC2=C3C(=CC=C2C=C1)C=CC(C)=N3",
    "meta_data": {
        "InChI": "InChI=1S/C14H12N2/c1-9-3-5-11-7-8-12-6-4-10(2)16-14(12)13(11)15-9/h3-8H,1-2H3",
        "InChIKey": null,
        "Canonical SMILES": "N=1C(=CC=C2C=CC=3C=CC(=NC3C12)C)C",
        "Molecular Formula": "C<sub>14</sub>H<sub>12</sub>N<sub>2</sub>",
        "Molecular Mass": "208.26",
        "Boiling Point": "180-190 °C @ Press: 0.5 Torr",
        "Melting Point": "159.5 °C"
    }
}