{
    "cas_no": "2265-91-0",
    "key_name": "1,3-Difluoro-5-iodobenzene",
    "cn_name": "1,3-二氟-5-碘苯;",
    "alternate_name": "Benzene, 1,3-difluoro-5-iodo-;1,3-Difluoro-5-iodobenzene;3,5-Difluoroiodobenzene;1-Iodo-3,5-difluorobenzene;3,5-Difluoro-1-iodobenzene",
    "duplicated_cas_no": "",
    "SMILES": "FC1=CC(F)=CC(I)=C1",
    "meta_data": {
        "InChI": "InChI=1S/C6H3F2I/c7-4-1-5(8)3-6(9)2-4/h1-3H",
        "InChIKey": null,
        "Canonical SMILES": "FC=1C=C(F)C=C(I)C1",
        "Molecular Formula": "C<sub>6</sub>H<sub>3</sub>F<sub>2</sub>I",
        "Molecular Mass": "239.99",
        "Boiling Point": "58-60 °C"
    }
}