{
    "cas_no": "300-85-6",
    "key_name": "3-Hydroxybutyric acid",
    "cn_name": "3-羟基丁酸;",
    "alternate_name": "Butanoic acid, 3-hydroxy-;Butyric acid, 3-hydroxy-;3-Hydroxybutanoic acid;β-Hydroxybutyric acid;β-Hydroxy-<em>n</em>-butyric acid;3-Hydroxybutyric acid;β-Hydroxybutanoic acid;(±)-β-Hydroxybutyric acid;<span class=\"text-smallcaps\">DL</span>-β-Hydroxybutyric acid;<span class=\"text-smallcaps\">DL</span>-3-Hydroxybutyric acid;(±)-3-Hydroxybutyric acid;(±)-3-Hydroxybutanoic acid;(±)-3-Hydroxy-<em>n</em>-butyric acid;NSC 3806;MeSH ID: D020155",
    "duplicated_cas_no": "625-71-8;2392893-69-3",
    "SMILES": "C(C(C)O)C(O)=O",
    "meta_data": {
        "InChI": "InChI=1S/C4H8O3/c1-3(5)2-4(6)7/h3,5H,2H2,1H3,(H,6,7)",
        "InChIKey": null,
        "Canonical SMILES": "O=C(O)CC(O)C",
        "Molecular Formula": "C<sub>4</sub>H<sub>8</sub>O<sub>3</sub>",
        "Molecular Mass": "104.10",
        "Boiling Point": "125-130 °C @ Press: 8 Torr",
        "Melting Point": "46 °C"
    }
}