{
    "cas_no": "29838-67-3",
    "key_name": "Astilbin",
    "cn_name": null,
    "alternate_name": "4<em>H</em>-1-Benzopyran-4-one, 3-[(6-deoxy-α-<span class=\"text-smallcaps\">L</span>-mannopyranosyl)oxy]-2-(3,4-dihydroxyphenyl)-2,3-dihydro-5,7-dihydroxy-, (2<em>R</em>,3<em>R</em>)-;Astilbin;4<em>H</em>-1-Benzopyran-4-one, 3-[(6-deoxy-α-<span class=\"text-smallcaps\">L</span>-mannopyranosyl)oxy]-2-(3,4-dihydroxyphenyl)-2,3-dihydro-5,7-dihydroxy-, (2<em>R</em>-<em>trans</em>)-;(2<em>R</em>,3<em>R</em>)-3-[(6-Deoxy-α-<span class=\"text-smallcaps\">L</span>-mannopyranosyl)oxy]-2-(3,4-dihydroxyphenyl)-2,3-dihydro-5,7-dihydroxy-4<em>H</em>-1-benzopyran-4-one;Taxifolin 3-rhamnoside;Taxifolin 3-<em>O</em>-rhamnoside;Dihydroquercetin 3-<em>O</em>-α-<span class=\"text-smallcaps\">L</span>-rhamnopyranoside;Dihydroquercetin 3-rhamnoside;(-)-(2<em>R</em>,3<em>R</em>)-Dihydroquercetin 3-<em>O</em>-α-<span class=\"text-smallcaps\">L</span>-rhamnoside;Dihydroquercitrin;(2<em>R</em>,3<em>R</em>)-Astilbin;(2<em>R</em>,3<em>R</em>)-Dihydroquercetin 3-<em>O</em>-α-<span class=\"text-smallcaps\">L</span>-rhamnopyranoside;Taxifolin 3-<em>O</em>-α-<span class=\"text-smallcaps\">L</span>-rhamnopyranoside",
    "duplicated_cas_no": "11027-89-7;29838-66-2;30375-17-8;953049-81-5",
    "SMILES": "O([C@@H]1[C@H](OC=2C(C1=O)=C(O)C=C(O)C2)C3=CC(O)=C(O)C=C3)[C@H]4[C@H](O)[C@H](O)[C@@H](O)[C@H](C)O4",
    "meta_data": {
        "InChI": "InChI=1S/C21H22O11/c1-7-15(26)17(28)18(29)21(30-7)32-20-16(27)14-12(25)5-9(22)6-13(14)31-19(20)8-2-3-10(23)11(24)4-8/h2-7,15,17-26,28-29H,1H3/t7-,15-,17+,18+,19+,20-,21-/m0/s1",
        "InChIKey": null,
        "Canonical SMILES": "O=C1C=2C(O)=CC(O)=CC2OC(C3=CC=C(O)C(O)=C3)C1OC4OC(C)C(O)C(O)C4O",
        "Molecular Formula": "C<sub>21</sub>H<sub>22</sub>O<sub>11</sub>",
        "Molecular Mass": "450.39",
        "Melting Point": "180 °C (decomp)"
    }
}