{
    "cas_no": "693-58-3",
    "key_name": "1-Bromononane",
    "cn_name": "1-溴壬烷;",
    "alternate_name": "Nonane, 1-bromo-;1-Bromononane;Nonyl bromide;<em>n</em>-Nonyl bromide;1-<em>n</em>-Nonyl bromide;1-Nonyl bromide;1-Bromo-<em>n</em>-nonane;NSC 5519",
    "duplicated_cas_no": "",
    "SMILES": "C(CCCCC)CCCBr",
    "meta_data": {
        "InChI": "InChI=1S/C9H19Br/c1-2-3-4-5-6-7-8-9-10/h2-9H2,1H3",
        "InChIKey": null,
        "Canonical SMILES": "BrCCCCCCCCC",
        "Molecular Formula": "C<sub>9</sub>H<sub>19</sub>Br",
        "Molecular Mass": "207.15",
        "Boiling Point": "88 °C",
        "Melting Point": "-29.06 °C",
        "Density": "1.0864 g/cm³ @ Temp: 20 °C"
    }
}