{
    "cas_no": "58452-00-9",
    "key_name": "3-Benzyloxy-4-methoxybenzoic acid",
    "cn_name": "3-苄氧基-4-甲氧基苯甲酸;",
    "alternate_name": "Benzoic acid, 4-methoxy-3-(phenylmethoxy)-;Benzoic acid, 3-(benzyloxy)-4-methoxy-;4-Methoxy-3-(phenylmethoxy)benzoic acid;3-Benzyloxy-4-methoxybenzoic acid",
    "duplicated_cas_no": "",
    "SMILES": "O(CC1=CC=CC=C1)C2=C(OC)C=CC(C(O)=O)=C2",
    "meta_data": {
        "InChI": "InChI=1S/C15H14O4/c1-18-13-8-7-12(15(16)17)9-14(13)19-10-11-5-3-2-4-6-11/h2-9H,10H2,1H3,(H,16,17)",
        "InChIKey": null,
        "Canonical SMILES": "O=C(O)C1=CC=C(OC)C(OCC=2C=CC=CC2)=C1",
        "Molecular Formula": "C<sub>15</sub>H<sub>14</sub>O<sub>4</sub>",
        "Molecular Mass": "258.27",
        "Melting Point": "108 °C"
    }
}