{
    "cas_no": "4132-86-9",
    "key_name": "<em>N</em>-(Benzyloxycarbonyl)-<span class=\"text-smallcaps\">DL</span>-alanine",
    "cn_name": "N-苄氧羰基-DL-丙氨酸;",
    "alternate_name": "Alanine, <em>N</em>-[(phenylmethoxy)carbonyl]-;Alanine, <em>N</em>-carboxy-, <em>N</em>-benzyl ester, <span class=\"text-smallcaps\">DL</span>-;<span class=\"text-smallcaps\">DL</span>-Alanine, <em>N</em>-carboxy-, <em>N</em>-benzyl ester;<em>N</em>-[(Phenylmethoxy)carbonyl]alanine;<em>N</em>-(Benzyloxycarbonyl)-<span class=\"text-smallcaps\">DL</span>-alanine;<em>N</em>-Carbobenzoxy-<span class=\"text-smallcaps\">DL</span>-alanine;Benzyloxycarbonyl-<span class=\"text-smallcaps\">DL</span>-alanine;<em>N</em>-Benzoxycarbonyl-<span class=\"text-smallcaps\">DL</span>-alanine;<span class=\"text-smallcaps\">DL</span>-(Carbobenzyloxy)alanine;<em>N</em>-Carbobenzyloxy-<span class=\"text-smallcaps\">DL</span>-alanine;NSC 27684;<em>N</em>-Cbz-<span class=\"text-smallcaps\">DL</span>-alanine;Z-<span class=\"text-smallcaps\">D</smallcap><smallcap>L</span>-Ala-OH;2-[(Benzyloxycarbonyl)amino]propanoic acid;<span class=\"text-smallcaps\">DL</span>-Cbz alanine",
    "duplicated_cas_no": "",
    "SMILES": "C(OC(NC(C(O)=O)C)=O)C1=CC=CC=C1",
    "meta_data": {
        "InChI": "InChI=1S/C11H13NO4/c1-8(10(13)14)12-11(15)16-7-9-5-3-2-4-6-9/h2-6,8H,7H2,1H3,(H,12,15)(H,13,14)",
        "InChIKey": null,
        "Canonical SMILES": "O=C(OCC=1C=CC=CC1)NC(C(=O)O)C",
        "Molecular Formula": "C<sub>11</sub>H<sub>13</sub>NO<sub>4</sub>",
        "Molecular Mass": "223.23",
        "Melting Point": "114-115 °C"
    }
}