{
    "cas_no": "76-03-9",
    "key_name": "Trichloroacetic acid",
    "cn_name": "三氯乙酸;",
    "alternate_name": "Acetic acid, 2,2,2-trichloro-;Acetic acid, trichloro-;2,2,2-Trichloroacetic acid;Aceto-Caustin;Amchem Grass Killer;TCA (acid);Trichloracetic acid;Trichloroacetic acid;Trichloroethanoic acid;TKhUK;TKhU;TCA;NSC 215204;NSC 77363;TCAA;MeSH ID: D014238",
    "duplicated_cas_no": "",
    "SMILES": "C(C(O)=O)(Cl)(Cl)Cl",
    "meta_data": {
        "InChI": "InChI=1S/C2HCl3O2/c3-2(4,5)1(6)7/h(H,6,7)",
        "InChIKey": null,
        "Canonical SMILES": "O=C(O)C(Cl)(Cl)Cl",
        "Molecular Formula": "C<sub>2</sub>HCl<sub>3</sub>O<sub>2</sub>",
        "Molecular Mass": "163.39",
        "Boiling Point": "195.5 °C",
        "Melting Point": "57.5 °C",
        "Density": "1.6126 g/cm³ @ Temp: 64 °C"
    }
}