{
    "cas_no": "18179-39-0",
    "key_name": "Methyl 2-hydroxy-4-iodobenzoate",
    "cn_name": "4-碘水杨酸甲酯;",
    "alternate_name": "Benzoic acid, 2-hydroxy-4-iodo-, methyl ester;Salicylic acid, 4-iodo-, methyl ester;Methyl 4-iodosalicylate;Methyl 2-hydroxy-4-iodobenzoate;Methyl 4-iodo-2-hydroxybenzoate;2-Hydroxy-4-iodobenzoic acid methyl ester",
    "duplicated_cas_no": "",
    "SMILES": "C(OC)(=O)C1=C(O)C=C(I)C=C1",
    "meta_data": {
        "InChI": "InChI=1S/C8H7IO3/c1-12-8(11)6-3-2-5(9)4-7(6)10/h2-4,10H,1H3",
        "InChIKey": null,
        "Canonical SMILES": "O=C(OC)C1=CC=C(I)C=C1O",
        "Molecular Formula": "C<sub>8</sub>H<sub>7</sub>IO<sub>3</sub>",
        "Molecular Mass": "278.04",
        "Melting Point": "60 °C"
    }
}