{
    "cas_no": "151-10-0",
    "key_name": "1,3-Dimethoxybenzene",
    "cn_name": "1,3-二甲氧基苯;间苯二甲醚;",
    "alternate_name": "Benzene, 1,3-dimethoxy-;Benzene, <em>m</em>-dimethoxy-;1,3-Dimethoxybenzene;<em>m</em>-Dimethoxybenzene;Resorcinol dimethyl ether;3-Methoxyanisole;<em>m</em>-Methoxyanisole;NSC 8699;3-Methoxyphenyl methyl ether;2,4-Dimethoxybenzene",
    "duplicated_cas_no": "28000-65-9;2104659-85-8",
    "SMILES": "O(C)C1=CC(OC)=CC=C1",
    "meta_data": {
        "InChI": "InChI=1S/C8H10O2/c1-9-7-4-3-5-8(6-7)10-2/h3-6H,1-2H3",
        "InChIKey": null,
        "Canonical SMILES": "O(C1=CC=CC(OC)=C1)C",
        "Molecular Formula": "C<sub>8</sub>H<sub>10</sub>O<sub>2</sub>",
        "Molecular Mass": "138.16",
        "Boiling Point": "217.5 °C",
        "Melting Point": "-52 °C",
        "Density": "0.965 g/cm³ @ Temp: 13 °C"
    }
}