{
    "cas_no": "14008-44-7",
    "key_name": "Metopimazine",
    "cn_name": null,
    "alternate_name": "4-Piperidinecarboxamide, 1-[3-[2-(methylsulfonyl)-10<em>H</em>-phenothiazin-10-yl]propyl]-;Isonipecotamide, 1-[3-[2-(methylsulfonyl)phenothiazin-10-yl]propyl]-;1-[3-[2-(Methylsulfonyl)-10<em>H</em>-phenothiazin-10-yl]propyl]-4-piperidinecarboxamide;EXP 999;1-[3-[2-(Methylsulfonyl)phenothiazin-10-yl]propyl]isonipecotamide;Metopimazine;2-Methylsulfonyl-10-[3-(4-carbamoylpiperidino)propyl]phenothiazine;RP 9965;1-[3-[2-(Methylsulfonyl)phenothiazin-10-yl]propyl]-4-piperidinecarboxamide;Vogalene",
    "duplicated_cas_no": "14170-03-7",
    "SMILES": "C(CCN1CCC(C(N)=O)CC1)N2C=3C(SC=4C2=CC=CC4)=CC=C(S(C)(=O)=O)C3",
    "meta_data": {
        "InChI": "InChI=1S/C22H27N3O3S2/c1-30(27,28)17-7-8-21-19(15-17)25(18-5-2-3-6-20(18)29-21)12-4-11-24-13-9-16(10-14-24)22(23)26/h2-3,5-8,15-16H,4,9-14H2,1H3,(H2,23,26)",
        "InChIKey": null,
        "Canonical SMILES": "O=C(N)C1CCN(CCCN2C=3C=CC=CC3SC4=CC=C(C=C42)S(=O)(=O)C)CC1",
        "Molecular Formula": "C<sub>22</sub>H<sub>27</sub>N<sub>3</sub>O<sub>3</sub>S<sub>2</sub>",
        "Molecular Mass": "445.60",
        "Melting Point": "170.5 °C"
    }
}