{
    "cas_no": "35951-28-1",
    "key_name": "2-Chlorocyclododecanone",
    "cn_name": null,
    "alternate_name": "Cyclododecanone, 2-chloro-;2-Chlorocyclododecanone;α-Chloro-1-cyclododecanone;2-Chloro-1-cyclododecanone;α-Chlorocyclododecanone",
    "duplicated_cas_no": "",
    "SMILES": "ClC1C(=O)CCCCCCCCCC1",
    "meta_data": {
        "InChI": "InChI=1S/C12H21ClO/c13-11-9-7-5-3-1-2-4-6-8-10-12(11)14/h11H,1-10H2",
        "InChIKey": null,
        "Canonical SMILES": "O=C1CCCCCCCCCCC1Cl",
        "Molecular Formula": "C<sub>12</sub>H<sub>21</sub>ClO",
        "Molecular Mass": "216.75",
        "Boiling Point": "117-118 °C",
        "Melting Point": "59-60 °C"
    }
}