{
    "cas_no": "5140-72-7",
    "key_name": "2-Bromo-6-chloropyridine",
    "cn_name": "2-溴-6-氯吡啶;",
    "alternate_name": "Pyridine, 2-bromo-6-chloro-;2-Bromo-6-chloropyridine;6-Bromo-2-chloropyridine",
    "duplicated_cas_no": "",
    "SMILES": "BrC=1N=C(Cl)C=CC1",
    "meta_data": {
        "InChI": "InChI=1S/C5H3BrClN/c6-4-2-1-3-5(7)8-4/h1-3H",
        "InChIKey": null,
        "Canonical SMILES": "ClC=1N=C(Br)C=CC1",
        "Molecular Formula": "C<sub>5</sub>H<sub>3</sub>BrClN",
        "Molecular Mass": "192.44",
        "Melting Point": "87-88 °C"
    }
}