{
    "cas_no": "682-09-7",
    "key_name": "Trimethylolpropane diallyl ether",
    "cn_name": null,
    "alternate_name": "1-Butanol, 2,2-bis[(2-propen-1-yloxy)methyl]-;1-Butanol, 2,2-bis[(allyloxy)methyl]-;1-Butanol, 2,2-bis[(2-propenyloxy)methyl]-;2,2-Bis[(2-propen-1-yloxy)methyl]-1-butanol;Trimethylolpropane diallyl ether;Trimethylpropane diallyl ether;Diallyl trimethylolpropane ether;2,2-Bis(allyloxymethyl)-1-butanol;Neoallyl T 20;T 20;TMPDE 80;TMPDE 90;Tri(hydroxymethyl)propane diallyl ether;2,2-Bis(prop-2-enoxymethyl)butan-1-ol",
    "duplicated_cas_no": "112708-51-7;122149-56-8;136424-46-9;55348-38-4;204974-69-6;923035-54-5",
    "SMILES": "C(COCC=C)(COCC=C)(CC)CO",
    "meta_data": {
        "InChI": "InChI=1S/C12H22O3/c1-4-7-14-10-12(6-3,9-13)11-15-8-5-2/h4-5,13H,1-2,6-11H2,3H3",
        "InChIKey": null,
        "Canonical SMILES": "OCC(COCC=C)(COCC=C)CC",
        "Molecular Formula": "C<sub>12</sub>H<sub>22</sub>O<sub>3</sub>",
        "Molecular Mass": "214.30",
        "Boiling Point": "132-145 °C @ Press: 13-15 Torr",
        "Density": "0.958-0.960 g/cm³ @ Temp: 25 °C"
    }
}