{
    "cas_no": "29632-74-4",
    "key_name": "2-Fluoro-4-iodoaniline",
    "cn_name": "2-氟-4-碘苯胺;",
    "alternate_name": "Benzenamine, 2-fluoro-4-iodo-;Aniline, 2-fluoro-4-iodo-;2-Fluoro-4-iodobenzenamine;2-Fluoro-4-iodoaniline;4-Iodo-2-fluoroaniline;2-Fluoro-4-iodophenylamine;NSC 146507",
    "duplicated_cas_no": "",
    "SMILES": "FC1=C(N)C=CC(I)=C1",
    "meta_data": {
        "InChI": "InChI=1S/C6H5FIN/c7-5-3-4(8)1-2-6(5)9/h1-3H,9H2",
        "InChIKey": null,
        "Canonical SMILES": "FC1=CC(I)=CC=C1N",
        "Molecular Formula": "C<sub>6</sub>H<sub>5</sub>FIN",
        "Molecular Mass": "237.01",
        "Melting Point": "52-53 °C"
    }
}