{
    "cas_no": "10361-44-1",
    "key_name": "Bismuth nitrate",
    "cn_name": "硝酸铋;",
    "alternate_name": "Nitric acid, bismuth(3+) salt (3:1);Nitric acid, bismuth(3+) salt;Bismuth nitrate (Bi(NO<sub>3</sub>)<sub>3</sub>);Bismuth trinitrate;Bismuth(III) nitrate;Bismuth nitrate;Bismuth(3+) nitrate",
    "duplicated_cas_no": "13536-44-2;14550-88-0;15008-64-7;20394-23-4;30880-06-9;35938-70-6;1079440-70-2",
    "SMILES": "N(=O)(=O)O.[Bi]",
    "meta_data": {
        "InChI": "InChI=1S/Bi.HNO3/c;2-1(3)4/h;(H,2,3,4)",
        "InChIKey": null,
        "Canonical SMILES": "[Bi].O=N(=O)O",
        "Molecular Formula": "Bi.3HNO<sub>3</sub>",
        "Molecular Mass": "",
        "Melting Point": "845 °C"
    }
}