{
    "cas_no": "459-86-9",
    "key_name": "Methylglyoxal bis(guanylhydrazone)",
    "cn_name": "丙脒腙;丙酮双脒腙;米托胍腙;丙双脒腙;",
    "alternate_name": "Hydrazinecarboximidamide, 2,2′-(1-methyl-1,2-ethanediylidene)bis-;Guanidine, 1,1′-[(methylethanediylidene)dinitrilo]di-;2,2′-(1-Methyl-1,2-ethanediylidene)bis[hydrazinecarboximidamide];Pyruvaldehyde, bis(amidinohydrazone);Methylglyoxal bis(guanylhydrazone);NSC 32946;Me-GAG;Methyl-Gag;Methyl-G;Mitoguazone;MGBG;Methylglyoxal bis(amidinohydrazone);Mitoguanazone",
    "duplicated_cas_no": "75020-13-2",
    "SMILES": "C(=NNC(=N)N)(C=NNC(=N)N)C",
    "meta_data": {
        "InChI": "InChI=1S/C5H12N8/c1-3(11-13-5(8)9)2-10-12-4(6)7/h2H,1H3,(H4,6,7,12)(H4,8,9,13)",
        "InChIKey": null,
        "Canonical SMILES": "N=C(N)NN=CC(=NNC(=N)N)C",
        "Molecular Formula": "C<sub>5</sub>H<sub>12</sub>N<sub>8</sub>",
        "Molecular Mass": "184.20",
        "Melting Point": "225 °C (decomp)"
    }
}