{
    "cas_no": "122453-73-0",
    "key_name": "Chlorfenapyr",
    "cn_name": "虫螨腈;4-溴-2-(4-氯苯基)-1-乙氧基甲基-5-三氟甲基吡咯-3-腈;",
    "alternate_name": "1<em>H</em>-Pyrrole-3-carbonitrile, 4-bromo-2-(4-chlorophenyl)-1-(ethoxymethyl)-5-(trifluoromethyl)-;4-Bromo-2-(4-chlorophenyl)-1-(ethoxymethyl)-5-(trifluoromethyl)-1<em>H</em>-pyrrole-3-carbonitrile;AC 303630;CL 303630;Pirate;4-Bromo-2-(<em>p</em>-chlorophenyl)-1-(ethoxymethyl)-5-(trifluoromethyl)pyrrole-3-carbonitrile;Chlorfenapyr;Pirate 3F;Kotetsu;Pylon;Rampage;Citrex (acaricide);Citrex;Secure;Secure 360SC Insecticide-Miticide;Phantom;Mystox MP;Stealth;AC 303-630;Bromchlorfenapyr;Lepido;Rampage (insecticide);Phantom 240SC;Chongmanqing",
    "duplicated_cas_no": "937701-68-3",
    "SMILES": "C(OCC)N1C(=C(C#N)C(Br)=C1C(F)(F)F)C2=CC=C(Cl)C=C2",
    "meta_data": {
        "InChI": "InChI=1S/C15H11BrClF3N2O/c1-2-23-8-22-13(9-3-5-10(17)6-4-9)11(7-21)12(16)14(22)15(18,19)20/h3-6H,2,8H2,1H3",
        "InChIKey": null,
        "Canonical SMILES": "N#CC=1C(Br)=C(N(C1C=2C=CC(Cl)=CC2)COCC)C(F)(F)F",
        "Molecular Formula": "C<sub>15</sub>H<sub>11</sub>BrClF<sub>3</sub>N<sub>2</sub>O",
        "Molecular Mass": "407.61",
        "Melting Point": "100.5 °C"
    }
}