{
    "cas_no": "675-20-7",
    "key_name": "2-Piperidone",
    "cn_name": null,
    "alternate_name": "2-Piperidinone;2-Piperidone;δ-Valerolactam;α-Piperidone;Pentanoic acid, 5-amino-, lactam;Valerolactim;5-Pentanolactam;NSC 18894;NSC 2305;2-Oxopiperidine;5-Aminopentanoic acid lactam",
    "duplicated_cas_no": "",
    "SMILES": "O=C1CCCCN1",
    "meta_data": {
        "InChI": "InChI=1S/C5H9NO/c7-5-3-1-2-4-6-5/h1-4H2,(H,6,7)",
        "InChIKey": null,
        "Canonical SMILES": "O=C1NCCCC1",
        "Molecular Formula": "C<sub>5</sub>H<sub>9</sub>NO",
        "Molecular Mass": "99.13",
        "Boiling Point": "256 °C",
        "Melting Point": "39.5 °C",
        "Density": "1.02 x 10⁻³ g/cm³ (crystalline)"
    }
}