{
    "cas_no": "345-18-6",
    "key_name": "4-Chloro-1-fluoro-2-nitrobenzene",
    "cn_name": "5-氯-2-氟硝基苯;",
    "alternate_name": "Benzene, 4-chloro-1-fluoro-2-nitro-;4-Chloro-1-fluoro-2-nitrobenzene;5-Chloro-2-fluoronitrobenzene;2-Fluoro-5-chloronitrobenzene;2-Fluoro-5-chloro-1-nitrobenzene;1-Fluoro-4-chloro-2-nitrobenzene;3-Chloro-6-fluoro-1-nitrobenzene;1-Chloro-4-fluoro-3-nitrobenzene",
    "duplicated_cas_no": "",
    "SMILES": "N(=O)(=O)C1=C(F)C=CC(Cl)=C1",
    "meta_data": {
        "InChI": "InChI=1S/C6H3ClFNO2/c7-4-1-2-5(8)6(3-4)9(10)11/h1-3H",
        "InChIKey": null,
        "Canonical SMILES": "O=N(=O)C1=CC(Cl)=CC=C1F",
        "Molecular Formula": "C<sub>6</sub>H<sub>3</sub>ClFNO<sub>2</sub>",
        "Molecular Mass": "175.54",
        "Boiling Point": "236.6-236.9 °C",
        "Melting Point": "10.2 °C"
    }
}