{
    "cas_no": "102-93-2",
    "key_name": "3-Phenylpropanamide",
    "cn_name": "3-苯基丙酰胺;",
    "alternate_name": "Benzenepropanamide;Hydrocinnamamide;β-Phenylpropionamide;3-Phenylpropionamide;3-Phenylpropanamide;NSC 229316;Phenylpropanamide;Benzylacetamide",
    "duplicated_cas_no": "",
    "SMILES": "C(CC(N)=O)C1=CC=CC=C1",
    "meta_data": {
        "InChI": "InChI=1S/C9H11NO/c10-9(11)7-6-8-4-2-1-3-5-8/h1-5H,6-7H2,(H2,10,11)",
        "InChIKey": null,
        "Canonical SMILES": "O=C(N)CCC=1C=CC=CC1",
        "Molecular Formula": "C<sub>9</sub>H<sub>11</sub>NO",
        "Molecular Mass": "149.19",
        "Melting Point": "105 °C"
    }
}