{
    "cas_no": "67494-15-9",
    "key_name": "(4a<em>R</em>,10a<em>S</em>)-1,3,4,9,10,10a-Hexahydro-6-hydroxy-1,1-dimethyl-7-(1-methylethyl)-4a(2<em>H</em>)-phenanthrenecarboxylic acid",
    "cn_name": null,
    "alternate_name": "4a(2<em>H</em>)-Phenanthrenecarboxylic acid, 1,3,4,9,10,10a-hexahydro-6-hydroxy-1,1-dimethyl-7-(1-methylethyl)-, (4a<em>R</em>,10a<em>S</em>)-;4a(2<em>H</em>)-Phenanthrenecarboxylic acid, 1,3,4,9,10,10a-hexahydro-6-hydroxy-1,1-dimethyl-7-(1-methylethyl)-, (4a<em>R</em>-<em>trans</em>)-;(4a<em>R</em>,10a<em>S</em>)-1,3,4,9,10,10a-Hexahydro-6-hydroxy-1,1-dimethyl-7-(1-methylethyl)-4a(2<em>H</em>)-phenanthrenecarboxylic acid;Pisiferic acid;(+)-Pisiferic acid",
    "duplicated_cas_no": "",
    "SMILES": "C(O)(=O)[C@@]12C=3C(CC[C@]1(C(C)(C)CCC2)[H])=CC(C(C)C)=C(O)C3",
    "meta_data": {
        "InChI": "InChI=1S/C20H28O3/c1-12(2)14-10-13-6-7-17-19(3,4)8-5-9-20(17,18(22)23)15(13)11-16(14)21/h10-12,17,21H,5-9H2,1-4H3,(H,22,23)/t17-,20-/m0/s1",
        "InChIKey": null,
        "Canonical SMILES": "O=C(O)C12C3=CC(O)=C(C=C3CCC1C(C)(C)CCC2)C(C)C",
        "Molecular Formula": "C<sub>20</sub>H<sub>28</sub>O<sub>3</sub>",
        "Molecular Mass": "316.43",
        "Melting Point": "155-160 °C"
    }
}