{
    "cas_no": "51-81-0",
    "key_name": "Phenol, 3-amino-, hydrochloride (1:1)",
    "cn_name": "3-氨基酚 盐酸盐;",
    "alternate_name": "Phenol, 3-amino-, hydrochloride (1:1);Phenol, 3-amino-, hydrochloride;<em>m</em>-Aminophenol hydrochloride;3-Aminophenol hydrochloride",
    "duplicated_cas_no": "",
    "SMILES": "NC1=CC(O)=CC=C1.Cl",
    "meta_data": {
        "InChI": "InChI=1S/C6H7NO.ClH/c7-5-2-1-3-6(8)4-5;/h1-4,8H,7H2;1H",
        "InChIKey": null,
        "Canonical SMILES": "Cl.OC1=CC=CC(N)=C1",
        "Molecular Formula": "C<sub>6</sub>H<sub>7</sub>NO.ClH",
        "Molecular Mass": "",
        "Melting Point": "226-228 °C"
    }
}