{
    "cas_no": "59719-74-3",
    "key_name": "1,3-Cyclopentanediol",
    "cn_name": null,
    "alternate_name": "1,3-Cyclopentanediol;1,3-Dihydroxycyclopentane;NSC 351119;3-Hydroxycyclopentanol;Cyclopentan-1,3-diol",
    "duplicated_cas_no": "",
    "SMILES": "OC1CC(O)CC1",
    "meta_data": {
        "InChI": "InChI=1S/C5H10O2/c6-4-1-2-5(7)3-4/h4-7H,1-3H2",
        "InChIKey": null,
        "Canonical SMILES": "OC1CCC(O)C1",
        "Molecular Formula": "C<sub>5</sub>H<sub>10</sub>O<sub>2</sub>",
        "Molecular Mass": "102.13",
        "Boiling Point": "120-125 °C @ Press: 12 Torr",
        "Melting Point": "82-84 °C"
    }
}