{
    "cas_no": "606129-90-2",
    "key_name": "9,3′:6′,9′′-Ter-9<em>H</em>-carbazole",
    "cn_name": null,
    "alternate_name": "9,3′:6′,9′′-Ter-9<em>H</em>-carbazole;3,6-Bis(carbazol-9-yl)carbazole;3,6-Di(9-carbazolyl)-9<em>H</em>-carbazole;3,6-Dicarbazolylcarbazole;9′<em>H</em>-[9,3′,6′,9]Tercarbazole;3,6-Bis(9<em>H</em>-carbazol-9-yl)-9<em>H</em>-carbazole;9′<em>H</em>-9,3′:6′,9′′-Tercarbazole;3,6-Bis(<em>N</em>-carbazolyl)carbazole",
    "duplicated_cas_no": "",
    "SMILES": "N1(C=2C(C=3C1=CC=CC3)=CC=CC2)C=4C=C5C=6C(NC5=CC4)=CC=C(C6)N7C=8C(C=9C7=CC=CC9)=CC=CC8",
    "meta_data": {
        "InChI": "InChI=1S/C36H23N3/c1-5-13-33-25(9-1)26-10-2-6-14-34(26)38(33)23-17-19-31-29(21-23)30-22-24(18-20-32(30)37-31)39-35-15-7-3-11-27(35)28-12-4-8-16-36(28)39/h1-22,37H",
        "InChIKey": null,
        "Canonical SMILES": "C=1C=CC2=C(C1)C=3C=CC=CC3N2C4=CC=C5NC=6C=CC(=CC6C5=C4)N7C=8C=CC=CC8C=9C=CC=CC97",
        "Molecular Formula": "C<sub>36</sub>H<sub>23</sub>N<sub>3</sub>",
        "Molecular Mass": "497.59",
        "Melting Point": "&gt;300 °C"
    }
}