{
    "cas_no": "2736-40-5",
    "key_name": "2-Ethylbutyryl chloride",
    "cn_name": "2-乙基丁酰氯;",
    "alternate_name": "Butanoyl chloride, 2-ethyl-;Butyryl chloride, 2-ethyl-;2-Ethylbutanoyl chloride;2-Ethylbutyryl chloride;Diethylacetyl chloride;α-Ethylbutyryl chloride;NSC 8757",
    "duplicated_cas_no": "2137045-01-1",
    "SMILES": "C(C(Cl)=O)(CC)CC",
    "meta_data": {
        "InChI": "InChI=1S/C6H11ClO/c1-3-5(4-2)6(7)8/h5H,3-4H2,1-2H3",
        "InChIKey": null,
        "Canonical SMILES": "O=C(Cl)C(CC)CC",
        "Molecular Formula": "C<sub>6</sub>H<sub>11</sub>ClO",
        "Molecular Mass": "134.60",
        "Boiling Point": "140 °C",
        "Density": "0.957 g/cm³ @ Temp: 29 °C"
    }
}