{
    "cas_no": "408492-26-2",
    "key_name": "2-(3,5-Dibromophenyl)-4,4,5,5-tetramethyl-1,3,2-dioxaborolane",
    "cn_name": null,
    "alternate_name": "1,3,2-Dioxaborolane, 2-(3,5-dibromophenyl)-4,4,5,5-tetramethyl-;2-(3,5-Dibromophenyl)-4,4,5,5-tetramethyl-1,3,2-dioxaborolane;1,3-Dibromo-5-(pinacolboryl)benzene",
    "duplicated_cas_no": "",
    "SMILES": "CC1(C)OB(OC1(C)C)C2=CC(Br)=CC(Br)=C2",
    "meta_data": {
        "InChI": "InChI=1S/C12H15BBr2O2/c1-11(2)12(3,4)17-13(16-11)8-5-9(14)7-10(15)6-8/h5-7H,1-4H3",
        "InChIKey": null,
        "Canonical SMILES": "BrC=1C=C(Br)C=C(C1)B2OC(C)(C)C(O2)(C)C",
        "Molecular Formula": "C<sub>12</sub>H<sub>15</sub>BBr<sub>2</sub>O<sub>2</sub>",
        "Molecular Mass": "361.87",
        "Melting Point": "74-76 °C"
    }
}