{
    "cas_no": "83-18-1",
    "key_name": "2,5-Dimethyl-1-phenyl-1<em>H</em>-pyrrole-3-carboxaldehyde",
    "cn_name": null,
    "alternate_name": "1<em>H</em>-Pyrrole-3-carboxaldehyde, 2,5-dimethyl-1-phenyl-;Pyrrole-3-carboxaldehyde, 2,5-dimethyl-1-phenyl-;2,5-Dimethyl-1-phenyl-1<em>H</em>-pyrrole-3-carboxaldehyde;3-Formyl-2,5-dimethyl-1-phenylpyrrole;2,5-Dimethyl-1-phenylpyrrole-3-carboxaldehyde;NSC 68230;2,5-Dimethyl-1-phenylpyrrole-3-carbaldehyde;2,5-Dimethyl-1-phenyl-1<em>H</em>-pyrrole-3-carbaldehyde",
    "duplicated_cas_no": "1989657-82-0",
    "SMILES": "CC=1N(C(C)=CC1C=O)C2=CC=CC=C2",
    "meta_data": {
        "InChI": "InChI=1S/C13H13NO/c1-10-8-12(9-15)11(2)14(10)13-6-4-3-5-7-13/h3-9H,1-2H3",
        "InChIKey": null,
        "Canonical SMILES": "O=CC=1C=C(N(C=2C=CC=CC2)C1C)C",
        "Molecular Formula": "C<sub>13</sub>H<sub>13</sub>NO",
        "Molecular Mass": "199.25",
        "Boiling Point": "190 °C @ Press: 12 Torr",
        "Melting Point": "89-90 °C (decomp)"
    }
}