{
    "cas_no": "520-27-4",
    "key_name": "Diosmin",
    "cn_name": "地奥斯明;3\",5,7-三羟基-4\"-甲氧基黄酮7-芸香糖甙;",
    "alternate_name": "4<em>H</em>-1-Benzopyran-4-one, 7-[[6-<em>O</em>-(6-deoxy-α-<span class=\"text-smallcaps\">L</smallcap>-mannopyranosyl)-β-<smallcap>D</span>-glucopyranosyl]oxy]-5-hydroxy-2-(3-hydroxy-4-methoxyphenyl)-;Diosmin;7-[[6-<em>O</em>-(6-Deoxy-α-<span class=\"text-smallcaps\">L</smallcap>-mannopyranosyl)-β-<smallcap>D</span>-glucopyranosyl]oxy]-5-hydroxy-2-(3-hydroxy-4-methoxyphenyl)-4<em>H</em>-1-benzopyran-4-one;Diosmetin 7-β-rutinoside;3′,5,7-Trihydroxy-4′-methoxyflavone 7-<em>O</em>-rutinoside;Diosmine;Diosmetin 7-rutinoside;Venosmine;Diosmetin 7-<em>O</em>-rhamnosyl(1→6)-glucoside;Insuven;Diosmil;Diovenor;Ven-Detrex;Litosmil;Buchu resin;Hemerven;Flebosten;Barosmin;Varinon;Diosven;Flebosmil;Tovene;Dioven;Venex 500;3′,5-Dihydroxyl-4′-methoxylflavanone-7-<em>O</em>-α-<span class=\"text-smallcaps\">L</smallcap>-rhamnosyl (1→6)-β-<smallcap>D</span>-glucopyranoside;Diosmetin 7-<em>O</em>-α-<span class=\"text-smallcaps\">L</smallcap>-rhamnopyranosyl-(1→6)-β-<smallcap>D</span>-glucopyranoside;Diosmetin 7-<em>O</em>-rutinoside;Phlebodia;Flebodia;Vasoket;MeSH ID: D004145",
    "duplicated_cas_no": "9000-18-4;28680-33-3",
    "SMILES": "O=C1C=2C(OC(=C1)C3=CC(O)=C(OC)C=C3)=CC(O[C@@H]4O[C@H](CO[C@H]5[C@H](O)[C@H](O)[C@@H](O)[C@H](C)O5)[C@@H](O)[C@H](O)[C@H]4O)=CC2O",
    "meta_data": {
        "InChI": "InChI=1S/C28H32O15/c1-10-21(32)23(34)25(36)27(40-10)39-9-19-22(33)24(35)26(37)28(43-19)41-12-6-14(30)20-15(31)8-17(42-18(20)7-12)11-3-4-16(38-2)13(29)5-11/h3-8,10,19,21-30,32-37H,9H2,1-2H3/t10-,19+,21-,22+,23+,24-,25+,26+,27+,28+/m0/s1",
        "InChIKey": null,
        "Canonical SMILES": "O=C1C=C(OC2=CC(OC3OC(COC4OC(C)C(O)C(O)C4O)C(O)C(O)C3O)=CC(O)=C12)C=5C=CC(OC)=C(O)C5",
        "Molecular Formula": "C<sub>28</sub>H<sub>32</sub>O<sub>15</sub>",
        "Molecular Mass": "608.54",
        "Melting Point": "274 °C (decomp)"
    }
}