{
    "cas_no": "2303-17-5",
    "key_name": "Triallate",
    "cn_name": "野麦畏;S-2,3,3-三氯烯丙基二异丙基硫代氨基甲酸酯;",
    "alternate_name": "Carbamothioic acid, <em>N</em>,<em>N</em>-bis(1-methylethyl)-, <em>S</em>-(2,3,3-trichloro-2-propen-1-yl) ester;Carbamic acid, diisopropylthio-, <em>S</em>-(2,3,3-trichloroallyl) ester;Carbamothioic acid, bis(1-methylethyl)-, <em>S</em>-(2,3,3-trichloro-2-propenyl) ester;2-Propene-1-thiol, 2,3,3-trichloro-, diisopropylcarbamate;CP 23426;Avadex BW;Far-Go;Triallate;<em>S</em>-2,3,3-Trichloroallyl <em>N</em>,<em>N</em>-diisopropylthiocarbamate;Dipthal;<em>S</em>-2,3,3-Trichloroallyl diisopropylthiocarbamate;2,3,3-Trichloroallyl <em>N</em>,<em>N</em>-diisopropylthiocarbamate;Triamyl;NSC 379698;Trillate;MeSH ID: D014214",
    "duplicated_cas_no": "83903-69-9",
    "SMILES": "N(C(SCC(=C(Cl)Cl)Cl)=O)(C(C)C)C(C)C",
    "meta_data": {
        "InChI": "InChI=1S/C10H16Cl3NOS/c1-6(2)14(7(3)4)10(15)16-5-8(11)9(12)13/h6-7H,5H2,1-4H3",
        "InChIKey": null,
        "Canonical SMILES": "O=C(SCC(Cl)=C(Cl)Cl)N(C(C)C)C(C)C",
        "Molecular Formula": "C<sub>10</sub>H<sub>16</sub>Cl<sub>3</sub>NOS",
        "Molecular Mass": "304.66",
        "Boiling Point": "117 °C @ Press: 0.3 Torr",
        "Melting Point": "29-30 °C",
        "Density": "1.273 g/cm³ @ Temp: 25 °C"
    }
}