{
    "cas_no": "639091-78-4",
    "key_name": "1,1-Dimethylethyl <em>N</em>-[4-(aminomethyl)-2-pyridinyl]carbamate",
    "cn_name": null,
    "alternate_name": "Carbamic acid, <em>N</em>-[4-(aminomethyl)-2-pyridinyl]-, 1,1-dimethylethyl ester;Carbamic acid, [4-(aminomethyl)-2-pyridinyl]-, 1,1-dimethylethyl ester;1,1-Dimethylethyl <em>N</em>-[4-(aminomethyl)-2-pyridinyl]carbamate;(4-Aminomethylpyridin-2-yl)carbamic acid tert-butyl ester",
    "duplicated_cas_no": "",
    "SMILES": "N(C(OC(C)(C)C)=O)C1=CC(CN)=CC=N1",
    "meta_data": {
        "InChI": "InChI=1S/C11H17N3O2/c1-11(2,3)16-10(15)14-9-6-8(7-12)4-5-13-9/h4-6H,7,12H2,1-3H3,(H,13,14,15)",
        "InChIKey": null,
        "Canonical SMILES": "O=C(OC(C)(C)C)NC1=NC=CC(=C1)CN",
        "Molecular Formula": "C<sub>11</sub>H<sub>17</sub>N<sub>3</sub>O<sub>2</sub>",
        "Molecular Mass": "223.27",
        "Melting Point": "131-132 °C"
    }
}