{
    "cas_no": "5497-67-6",
    "key_name": "2,2-Dimethyl-4-pentenal",
    "cn_name": "2,2-二甲基-4-戊烯醛;",
    "alternate_name": "4-Pentenal, 2,2-dimethyl-;2,2-Dimethyl-4-pentenal;2,2-Dimethyl-4-penten-1-al;NSC 14676",
    "duplicated_cas_no": "",
    "SMILES": "C(CC=C)(C=O)(C)C",
    "meta_data": {
        "InChI": "InChI=1S/C7H12O/c1-4-5-7(2,3)6-8/h4,6H,1,5H2,2-3H3",
        "InChIKey": null,
        "Canonical SMILES": "O=CC(C)(C)CC=C",
        "Molecular Formula": "C<sub>7</sub>H<sub>12</sub>O",
        "Molecular Mass": "112.17",
        "Boiling Point": "124-126 °C"
    }
}