{
    "cas_no": "5309-16-0",
    "key_name": "4-(4-Methoxyphenyl)cyclohexanone",
    "cn_name": null,
    "alternate_name": "Cyclohexanone, 4-(4-methoxyphenyl)-;Cyclohexanone, 4-(<em>p</em>-methoxyphenyl)-;4-(4-Methoxyphenyl)cyclohexanone;4-(<em>p</em>-Methoxyphenyl)cyclohexanone;4-(4-Methoxyphenyl)cyclohexan-1-one",
    "duplicated_cas_no": "1623781-94-1",
    "SMILES": "O(C)C1=CC=C(C=C1)C2CCC(=O)CC2",
    "meta_data": {
        "InChI": "InChI=1S/C13H16O2/c1-15-13-8-4-11(5-9-13)10-2-6-12(14)7-3-10/h4-5,8-10H,2-3,6-7H2,1H3",
        "InChIKey": null,
        "Canonical SMILES": "O=C1CCC(C2=CC=C(OC)C=C2)CC1",
        "Molecular Formula": "C<sub>13</sub>H<sub>16</sub>O<sub>2</sub>",
        "Molecular Mass": "204.26",
        "Melting Point": "74 °C"
    }
}