{
    "cas_no": "7784-09-0",
    "key_name": "Silver phosphate",
    "cn_name": "原磷酸银;磷酸银;磷酸银(I);原磷酸银;磷酸銀;",
    "alternate_name": "Phosphoric acid, silver(1+) salt (1:3);Phosphoric acid, trisilver(1+) salt;Silver phosphate;Silver orthophosphate;Trisilver phosphate;Trisilver(1+) orthophosphate;Silver phosphate (Ag<sub>3</sub>PO<sub>4</sub>);Silver orthophosphate (Ag<sub>3</sub>PO<sub>4</sub>);Trisilver(1+) phosphate;Phosphoric acid silver salt (1:3);Biomaster 542",
    "duplicated_cas_no": "",
    "SMILES": "P(=O)(O)(O)O.[Ag]",
    "meta_data": {
        "InChI": "InChI=1S/3Ag.H3O4P/c;;;1-5(2,3)4/h;;;(H3,1,2,3,4)",
        "InChIKey": null,
        "Canonical SMILES": "[Ag].O=P(O)(O)O",
        "Molecular Formula": "Ag.<sup>1</sup>/<sub>3</sub>H<sub>3</sub>O<sub>4</sub>P",
        "Molecular Mass": "",
        "Melting Point": "1012 °C"
    }
}