{
    "cas_no": "3004-42-0",
    "key_name": "5-Phenyl-1,3,4-oxadiazole-2-thiol",
    "cn_name": null,
    "alternate_name": "1,3,4-Oxadiazole-2(3<em>H</em>)-thione, 5-phenyl-;1,3,4-Oxadiazole-2-thiol, 5-phenyl-;Δ<sup>2</sup>-1,3,4-Oxadiazoline-5-thione, 2-phenyl-;5-Phenyl-1,3,4-oxadiazole-2(3<em>H</em>)-thione;2-Mercapto-5-phenyl-1,3,4-oxadiazole;5-Phenyl-2-mercapto-1,3,4-oxadiazole;2-Phenyl-5-mercaptooxadiazole;5-Mercapto-2-phenyl-1,3,4-oxadiazole;5-Phenyl-1,3,4-oxadiazole-2-thione;2-Phenyl-1,3,4-oxadiazoline-5-thione;5-Phenyl-2-thioxo-1,3,4-oxadiazoline;2-Phenyl-1,3,4-oxadiazole-5-thione;5-Phenyl-1,3,4-oxadiazole-2-thiol;5-Phenyl-1,3,4-oxadiazole-5-thiol;5-Phenyl-1,3,4-oxadiaole-2-thiol;2-Phenyl-5-mercapto[1,3,4]oxadiazole",
    "duplicated_cas_no": "23288-98-4;1630090-69-5",
    "SMILES": "S=C1OC(=NN1)C2=CC=CC=C2",
    "meta_data": {
        "InChI": "InChI=1S/C8H6N2OS/c12-8-10-9-7(11-8)6-4-2-1-3-5-6/h1-5H,(H,10,12)",
        "InChIKey": null,
        "Canonical SMILES": "S=C1OC(=NN1)C=2C=CC=CC2",
        "Molecular Formula": "C<sub>8</sub>H<sub>6</sub>N<sub>2</sub>OS",
        "Molecular Mass": "178.21",
        "Melting Point": "219-220 °C"
    }
}