{
    "cas_no": "608-40-2",
    "key_name": "<em>rel</em>-(2<em>R</em>,3<em>S</em>)-2,3-Dimethylbutanedioic acid",
    "cn_name": "meso-2,3-二甲基丁二酸;",
    "alternate_name": "Butanedioic acid, 2,3-dimethyl-, (2<em>R</em>,3<em>S</em>)-<em>rel</em>-;Succinic acid, 2,3-dimethyl-, <em>meso</em>-;Butanedioic acid, 2,3-dimethyl-, (<em>R</em>*,<em>S</em>*)-;<em>rel</em>-(2<em>R</em>,3<em>S</em>)-2,3-Dimethylbutanedioic acid;<em>erythro</em>-2,3-Dimethylsuccinic acid;<em>meso</em>-2,3-Dimethylsuccinic acid",
    "duplicated_cas_no": "143291-17-2",
    "SMILES": "[C@H]([C@H](C(O)=O)C)(C(O)=O)C",
    "meta_data": {
        "InChI": "InChI=1/C6H10O4/c1-3(5(7)8)4(2)6(9)10/h3-4H,1-2H3,(H,7,8)(H,9,10)/t3-,4+",
        "InChIKey": null,
        "Canonical SMILES": "O=C(O)C(C)C(C(=O)O)C",
        "Molecular Formula": "C<sub>6</sub>H<sub>10</sub>O<sub>4</sub>",
        "Molecular Mass": "146.14",
        "Melting Point": "194 °C"
    }
}