{
    "cas_no": "1711-06-4",
    "key_name": "3-Methylbenzoyl chloride",
    "cn_name": "间甲基苯甲酰氯;3-甲基苯甲酰氯;",
    "alternate_name": "Benzoyl chloride, 3-methyl-;<em>m</em>-Toluoyl chloride;3-Methylbenzoyl chloride;<em>m</em>-Methylbenzoyl chloride;<em>m</em>-Toluyl chloride;Toluoyl chloride;3-Toluoyl chloride;m-Toluoyl chloride;NSC 97207;<em>m</em>-Toluenecarbonyl chloride;<em>m</em>-Toluic acid chloride",
    "duplicated_cas_no": "2244892-82-6",
    "SMILES": "C(Cl)(=O)C1=CC(C)=CC=C1",
    "meta_data": {
        "InChI": "InChI=1S/C8H7ClO/c1-6-3-2-4-7(5-6)8(9)10/h2-5H,1H3",
        "InChIKey": null,
        "Canonical SMILES": "O=C(Cl)C1=CC=CC(=C1)C",
        "Molecular Formula": "C<sub>8</sub>H<sub>7</sub>ClO",
        "Molecular Mass": "154.59",
        "Boiling Point": "219.5 °C",
        "Melting Point": "-23 °C",
        "Density": "1.172 g/cm³ @ Temp: 20 °C"
    }
}