{
    "cas_no": "18355-75-4",
    "key_name": "2,3-Difluorobenzamide",
    "cn_name": "2,3-二氟苯甲酰胺;",
    "alternate_name": "Benzamide, 2,3-difluoro-;2,3-Difluorobenzamide",
    "duplicated_cas_no": "",
    "SMILES": "C(N)(=O)C1=C(F)C(F)=CC=C1",
    "meta_data": {
        "InChI": "InChI=1S/C7H5F2NO/c8-5-3-1-2-4(6(5)9)7(10)11/h1-3H,(H2,10,11)",
        "InChIKey": null,
        "Canonical SMILES": "O=C(N)C=1C=CC=C(F)C1F",
        "Molecular Formula": "C<sub>7</sub>H<sub>5</sub>F<sub>2</sub>NO",
        "Molecular Mass": "157.12",
        "Melting Point": "110-111 °C"
    }
}