{
    "cas_no": "69094-18-4",
    "key_name": "2,2-Dibromo-2-nitroethanol",
    "cn_name": "2,2-二溴-2-硝基乙醇;",
    "alternate_name": "Ethanol, 2,2-dibromo-2-nitro-;2,2-Dibromo-2-nitroethanol;2,2-Dibromo-2-nitro-1-ethanol;Dibnirol A 75;N 60;N 60 (antimicrobial);Dibnirol;DBNE 75;DBNE 75P",
    "duplicated_cas_no": "",
    "SMILES": "C(N(=O)=O)(CO)(Br)Br",
    "meta_data": {
        "InChI": "InChI=1S/C2H3Br2NO3/c3-2(4,1-6)5(7)8/h6H,1H2",
        "InChIKey": null,
        "Canonical SMILES": "O=N(=O)C(Br)(Br)CO",
        "Molecular Formula": "C<sub>2</sub>H<sub>3</sub>Br<sub>2</sub>NO<sub>3</sub>",
        "Molecular Mass": "248.86",
        "Boiling Point": "121 °C @ Press: 19 Torr",
        "Melting Point": "30 °C"
    }
}