{
    "cas_no": "84-69-5",
    "key_name": "Diisobutyl phthalate",
    "cn_name": "邻苯二甲酸二异丁酯;",
    "alternate_name": "1,2-Benzenedicarboxylic acid, 1,2-bis(2-methylpropyl) ester;Phthalic acid, diisobutyl ester;1,2-Benzenedicarboxylic acid, bis(2-methylpropyl) ester;Diisobutyl phthalate;Hexaplas M/1B;Palatinol IC;Isobutyl phthalate;Di-<em>iso</em>-Butyl phthalate;Di(isobutyl) 1,2-benzenedicarboxylate;Di(2-methylpropyl) phthalate;1,2-Benzenedicarboxylic acid diisobutyl ester;Reomol DiBP;NSC 15316;Bis(2-methylpropyl) phthalate;2-Methylpropyl phthalate;Bis(2-methylpropyl) <em>o</em>-phthalate",
    "duplicated_cas_no": "",
    "SMILES": "C(OCC(C)C)(=O)C1=C(C(OCC(C)C)=O)C=CC=C1",
    "meta_data": {
        "InChI": "InChI=1S/C16H22O4/c1-11(2)9-19-15(17)13-7-5-6-8-14(13)16(18)20-10-12(3)4/h5-8,11-12H,9-10H2,1-4H3",
        "InChIKey": null,
        "Canonical SMILES": "O=C(OCC(C)C)C=1C=CC=CC1C(=O)OCC(C)C",
        "Molecular Formula": "C<sub>16</sub>H<sub>22</sub>O<sub>4</sub>",
        "Molecular Mass": "278.34",
        "Boiling Point": "296.5 °C",
        "Melting Point": "-64 °C",
        "Density": "1.039 g/cm³ @ Temp: 20 °C"
    }
}