{
    "cas_no": "306-91-2",
    "key_name": "Perfluoroperhydrophenanthrene",
    "cn_name": "二十四氟代十四氢代菲;",
    "alternate_name": "Phenanthrene, 1,1,2,2,3,3,4,4,4a,4b,5,5,6,6,7,7,8,8,8a,9,9,10,10,10a-tetracosafluorotetradecahydro-;Phenanthrene, tetracosafluorotetradecahydro-;1,1,2,2,3,3,4,4,4a,4b,5,5,6,6,7,7,8,8,8a,9,9,10,10,10a-Tetracosafluorotetradecahydrophenanthrene;Flutec PP 11;Perfluoroperhydrophenanthrene;PP 11;Perfluorotetradecahydrophenanthrene;Perfluorinated tetradecahydrophenanthrene;Flutec PC 11;FluoroMed APF 215HP;1,1,2,2,3,3,4,4,4a,4b,5,5,6,6,7,7,8,8,8a,9,9,10,10,10a-Tetracosafluorophenanthrene",
    "duplicated_cas_no": "1201928-55-3",
    "SMILES": "FC12C3(F)C(F)(C(F)(F)C(F)(F)C1(F)C(F)(F)C(F)(F)C(F)(F)C2(F)F)C(F)(F)C(F)(F)C(F)(F)C3(F)F",
    "meta_data": {
        "InChI": "InChI=1S/C14F24/c15-1-2(16)4(18,10(29,30)14(37,38)12(33,34)6(2,21)22)8(25,26)7(23,24)3(1,17)9(27,28)13(35,36)11(31,32)5(1,19)20",
        "InChIKey": null,
        "Canonical SMILES": "FC1(F)C(F)(F)C(F)(F)C2(F)C(F)(C1(F)F)C(F)(F)C(F)(F)C3(F)C(F)(F)C(F)(F)C(F)(F)C(F)(F)C32F",
        "Molecular Formula": "C<sub>14</sub>F<sub>24</sub>",
        "Molecular Mass": "624.11",
        "Boiling Point": "210 °C",
        "Melting Point": "-20 °C",
        "Density": "2.03 g/cm³"
    }
}