{
    "cas_no": "3466-82-8",
    "key_name": "2-Phenylazepane",
    "cn_name": "2-苯基六亚甲基亚胺;2-苯基六亚甲基亚胺;",
    "alternate_name": "1<em>H</em>-Azepine, hexahydro-2-phenyl-;Hexamethylenimine, 2-phenyl-;Hexahydro-2-phenyl-1<em>H</em>-azepine;2-Phenylperhydroazepine;2-Phenylhexahydroazepine;2-Phenylazepane",
    "duplicated_cas_no": "",
    "SMILES": "C1(=CC=CC=C1)C2CCCCCN2",
    "meta_data": {
        "InChI": "InChI=1S/C12H17N/c1-3-7-11(8-4-1)12-9-5-2-6-10-13-12/h1,3-4,7-8,12-13H,2,5-6,9-10H2",
        "InChIKey": null,
        "Canonical SMILES": "C=1C=CC(=CC1)C2NCCCCC2",
        "Molecular Formula": "C<sub>12</sub>H<sub>17</sub>N",
        "Molecular Mass": "175.27",
        "Boiling Point": "276-278 °C @ Press: 753 Torr"
    }
}