{
    "cas_no": "76811-98-8",
    "key_name": "2-[4-[4-[4-(Hydroxydiphenylmethyl)-1-piperidinyl]-1-oxobutyl]phenyl]-2,2-dimethylacetic acid",
    "cn_name": null,
    "alternate_name": "Benzeneacetic acid, 4-[4-[4-(hydroxydiphenylmethyl)-1-piperidinyl]-1-oxobutyl]-α,α-dimethyl-;4-[4-[4-(Hydroxydiphenylmethyl)-1-piperidinyl]-1-oxobutyl]-α,α-dimethylbenzeneacetic acid;4-[4-[4-(Hydroxydiphenylmethyl)-1-piperidinyl]-1-oxobutyl]-α,α-dimethylphenylacetic acid;2-[4-[4-[4-(Hydroxydiphenylmethyl)-1-piperidinyl]-1-oxobutyl]phenyl]-2,2-dimethylacetic acid;4-[1-Oxo-4-[4-(hydroxydiphenylmethyl)-1-piperidinyl]butyl]-α,α-dimethylbenzeneacetic acid;Fexofenadinone;2-(4-(4-(4-(Hydroxydiphenylmethyl)piperidin-1-yl)butanoyl)phenyl)-2-methylpropanoic acid",
    "duplicated_cas_no": "",
    "SMILES": "C(O)(C1CCN(CCCC(=O)C2=CC=C(C(C(O)=O)(C)C)C=C2)CC1)(C3=CC=CC=C3)C4=CC=CC=C4",
    "meta_data": {
        "InChI": "InChI=1S/C32H37NO4/c1-31(2,30(35)36)25-17-15-24(16-18-25)29(34)14-9-21-33-22-19-28(20-23-33)32(37,26-10-5-3-6-11-26)27-12-7-4-8-13-27/h3-8,10-13,15-18,28,37H,9,14,19-23H2,1-2H3,(H,35,36)",
        "InChIKey": null,
        "Canonical SMILES": "O=C(O)C(C1=CC=C(C=C1)C(=O)CCCN2CCC(CC2)C(O)(C=3C=CC=CC3)C=4C=CC=CC4)(C)C",
        "Molecular Formula": "C<sub>32</sub>H<sub>37</sub>NO<sub>4</sub>",
        "Molecular Mass": "499.64",
        "Melting Point": "164-166 °C"
    }
}