{
    "cas_no": "433-97-6",
    "key_name": "2-(Trifluoromethyl)benzoic acid",
    "cn_name": "2-三氟甲基苯甲酸;",
    "alternate_name": "Benzoic acid, 2-(trifluoromethyl)-;<em>o</em>-Toluic acid, α,α,α-trifluoro-;2-(Trifluoromethyl)benzoic acid;α,α,α-Trifluoro-<em>o</em>-toluic acid;<em>o</em>-(Trifluoromethyl)benzoic acid;NSC 88326",
    "duplicated_cas_no": "",
    "SMILES": "C(F)(F)(F)C1=C(C(O)=O)C=CC=C1",
    "meta_data": {
        "InChI": "InChI=1S/C8H5F3O2/c9-8(10,11)6-4-2-1-3-5(6)7(12)13/h1-4H,(H,12,13)",
        "InChIKey": null,
        "Canonical SMILES": "O=C(O)C=1C=CC=CC1C(F)(F)F",
        "Molecular Formula": "C<sub>8</sub>H<sub>5</sub>F<sub>3</sub>O<sub>2</sub>",
        "Molecular Mass": "190.12",
        "Melting Point": "111 °C"
    }
}