{
    "cas_no": "4430-47-1",
    "key_name": "5-(Isothiocyanatomethyl)-1,3-benzodioxole",
    "cn_name": "3,4-(亚甲二氧基)苯甲基硫代异氰酸酯;1,3-苯并二氧醇-5-基甲基异硫氰酸酯;",
    "alternate_name": "1,3-Benzodioxole, 5-(isothiocyanatomethyl)-;Isothiocyanic acid, piperonyl ester;5-(Isothiocyanatomethyl)-1,3-benzodioxole;Piperonyl isothiocyanate;3,4-Methylenedioxybenzyl isothiocyanate;5-(Isothiocyanatomethyl)benzo[<em>d</em>][1,3]dioxole;1,3-Benzodioxol-5-ylmethyl isothiocyanate;1-(Isothiocyanatomethyl)-3,4-methylenedioxybenzene",
    "duplicated_cas_no": "",
    "SMILES": "C(N=C=S)C=1C=C2C(=CC1)OCO2",
    "meta_data": {
        "InChI": "InChI=1S/C9H7NO2S/c13-5-10-4-7-1-2-8-9(3-7)12-6-11-8/h1-3H,4,6H2",
        "InChIKey": null,
        "Canonical SMILES": "S=C=NCC1=CC=C2OCOC2=C1",
        "Molecular Formula": "C<sub>9</sub>H<sub>7</sub>NO<sub>2</sub>S",
        "Molecular Mass": "193.22",
        "Melting Point": "85-87 °C"
    }
}