{
    "cas_no": "10231-84-2",
    "key_name": "<em>p</em>-Nitrophenyl α-<span class=\"text-smallcaps\">L</span>-fucoside",
    "cn_name": "4-硝基苯-α-L-吡喃海藻糖苷;",
    "alternate_name": "α-<span class=\"text-smallcaps\">L</span>-Galactopyranoside, 4-nitrophenyl 6-deoxy-;Galactopyranoside, <em>p</em>-nitrophenyl 6-deoxy-, α-<span class=\"text-smallcaps\">L</span>-;4-Nitrophenyl 6-deoxy-α-<span class=\"text-smallcaps\">L</span>-galactopyranoside;<em>p</em>-Nitrophenyl α-fucopyranoside;<em>p</em>-Nitrophenyl α-<span class=\"text-smallcaps\">L</span>-fucoside;<em>p</em>-Nitrophenyl α-<span class=\"text-smallcaps\">L</span>-fucopyranoside;<em>p</em>-Nitrophenyl 6-deoxy-α-<span class=\"text-smallcaps\">L</span>-galactopyranoside;4-Nitrophenyl-α-<span class=\"text-smallcaps\">L</span>-fucopyranoside",
    "duplicated_cas_no": "58296-20-1;81329-61-5;1363834-37-0",
    "SMILES": "O([C@H]1[C@@H](O)[C@H](O)[C@H](O)[C@H](C)O1)C2=CC=C(N(=O)=O)C=C2",
    "meta_data": {
        "InChI": "InChI=1S/C12H15NO7/c1-6-9(14)10(15)11(16)12(19-6)20-8-4-2-7(3-5-8)13(17)18/h2-6,9-12,14-16H,1H3/t6-,9+,10+,11-,12-/m0/s1",
        "InChIKey": null,
        "Canonical SMILES": "O=N(=O)C1=CC=C(OC2OC(C)C(O)C(O)C2O)C=C1",
        "Molecular Formula": "C<sub>12</sub>H<sub>15</sub>NO<sub>7</sub>",
        "Molecular Mass": "285.25",
        "Melting Point": "196-197 °C"
    }
}