{
    "cas_no": "51308-99-7",
    "key_name": "9-Chloro-1-nonanol",
    "cn_name": "9-氯-1-壬醇;",
    "alternate_name": "1-Nonanol, 9-chloro-;9-Chloro-1-nonanol;9-Chlorononan-1-ol;9-Chlorononanol",
    "duplicated_cas_no": "",
    "SMILES": "C(CCCCCl)CCCCO",
    "meta_data": {
        "InChI": "InChI=1S/C9H19ClO/c10-8-6-4-2-1-3-5-7-9-11/h11H,1-9H2",
        "InChIKey": null,
        "Canonical SMILES": "ClCCCCCCCCCO",
        "Molecular Formula": "C<sub>9</sub>H<sub>19</sub>ClO",
        "Molecular Mass": "178.70",
        "Boiling Point": "146.5 °C",
        "Melting Point": "28 °C"
    }
}