{
    "cas_no": "121-89-1",
    "key_name": "3′-Nitroacetophenone",
    "cn_name": "间硝基苯乙酮;",
    "alternate_name": "Ethanone, 1-(3-nitrophenyl)-;Acetophenone, 3′-nitro-;1-(3-Nitrophenyl)ethanone;<em>m</em>-Nitroacetophenone;3′-Nitroacetophenone;Methyl 3-nitrophenyl ketone;(3-Nitrophenyl) methyl ketone;<em>m</em>-Acetylnitrobenzene;1-Acetyl-3-nitrobenzene;3-Acetylnitrobenzene;NSC 5511;1-(3-Nitrophenyl)-1-ethanone;3-Nitrophenylethanone;Ethanone, 1-[3-(nitromethyl)phenyl]-",
    "duplicated_cas_no": "2624384-76-3",
    "SMILES": "C(C)(=O)C1=CC(N(=O)=O)=CC=C1",
    "meta_data": {
        "InChI": "InChI=1S/C8H7NO3/c1-6(10)7-3-2-4-8(5-7)9(11)12/h2-5H,1H3",
        "InChIKey": null,
        "Canonical SMILES": "O=C(C1=CC=CC(=C1)N(=O)=O)C",
        "Molecular Formula": "C<sub>8</sub>H<sub>7</sub>NO<sub>3</sub>",
        "Molecular Mass": "165.15",
        "Boiling Point": "202 °C",
        "Melting Point": "81 °C"
    }
}