{
    "cas_no": "1668-85-5",
    "key_name": "(-)-Epigalanthamine",
    "cn_name": "表雪花莲胺碱;",
    "alternate_name": "6<em>H</em>-Benzofuro[3a,3,2-<em>ef</em>][2]benzazepin-6-ol, 4a,5,9,10,11,12-hexahydro-3-methoxy-11-methyl-, (4a<em>S</em>,6<em>S</em>,8a<em>S</em>)-;2-Epigalanthamine;Epigalanthamine;Galanthamine, (3α)-;(4a<em>S</em>,6<em>S</em>,8a<em>S</em>)-4a,5,9,10,11,12-Hexahydro-3-methoxy-11-methyl-6<em>H</em>-benzofuro[3a,3,2-<em>ef</em>][2]benzazepin-6-ol;6<em>H</em>-Benzofuro[3a,3,2-<em>ef</em>][2]benzazepin-6-ol, 4a,5,9,10,11,12-hexahydro-3-methoxy-11-methyl-, [4a<em>S</em>-(4aα,6α,8a<em>R</em>*)]-;3-Epigalanthamine;(-)-Epigalanthamine;SPH 1068;2-<em>epi</em>-Galanthamine;Epigalantamine",
    "duplicated_cas_no": "6835-89-8;10317-99-4",
    "SMILES": "O(C)C1=C2C=3[C@]4([C@@](O2)(C[C@H](O)C=C4)[H])CCN(C)CC3C=C1",
    "meta_data": {
        "InChI": "InChI=1S/C17H21NO3/c1-18-8-7-17-6-5-12(19)9-14(17)21-16-13(20-2)4-3-11(10-18)15(16)17/h3-6,12,14,19H,7-10H2,1-2H3/t12-,14+,17+/m1/s1",
        "InChIKey": null,
        "Canonical SMILES": "OC1C=CC23C4=C(OC2C1)C(OC)=CC=C4CN(C)CC3",
        "Molecular Formula": "C<sub>17</sub>H<sub>21</sub>NO<sub>3</sub>",
        "Molecular Mass": "287.35",
        "Melting Point": "188-190 °C"
    }
}