{
    "cas_no": "635-26-7",
    "key_name": "2-Methylphenylhydrazine hydrochloride",
    "cn_name": "邻甲苯基肼盐酸盐;",
    "alternate_name": "Hydrazine, (2-methylphenyl)-, hydrochloride (1:1);Hydrazine, <em>o</em>-tolyl-, monohydrochloride;Hydrazine, (2-methylphenyl)-, monohydrochloride;<em>o</em>-Tolylhydrazine hydrochloride;2-Methylphenylhydrazine hydrochloride;<em>N</em>-(2-Methylphenyl)hydrazine hydrochloride;2-Tolylhydrazine hydrochloride;2-Methylbenzenehydrazine hydrochloride;1-(2-Methylphenyl)hydrazine hydrochloride",
    "duplicated_cas_no": "1059637-60-3",
    "SMILES": "N(N)C1=C(C)C=CC=C1.Cl",
    "meta_data": {
        "InChI": "InChI=1S/C7H10N2.ClH/c1-6-4-2-3-5-7(6)9-8;/h2-5,9H,8H2,1H3;1H",
        "InChIKey": null,
        "Canonical SMILES": "Cl.NNC=1C=CC=CC1C",
        "Molecular Formula": "C<sub>7</sub>H<sub>10</sub>N<sub>2</sub>.ClH",
        "Molecular Mass": "",
        "Melting Point": "195 °C (decomp)"
    }
}