{
    "cas_no": "3852-09-3",
    "key_name": "Methyl 3-methoxypropionate",
    "cn_name": "3-甲氧基丙酸甲酯;",
    "alternate_name": "Propanoic acid, 3-methoxy-, methyl ester;Propionic acid, 3-methoxy-, methyl ester;Methyl 3-methoxypropionate;Methyl β-methoxypropionate;Methyl 3-methoxypropanoate;3-Methoxypropionic acid methyl ester;3-Methoxypropanoic acid methyl ester;NSC 65578;Methyl 3-methoxypripionate;β-Methoxypropionic acid methyl ester",
    "duplicated_cas_no": "",
    "SMILES": "C(CCOC)(OC)=O",
    "meta_data": {
        "InChI": "InChI=1S/C5H10O3/c1-7-4-3-5(6)8-2/h3-4H2,1-2H3",
        "InChIKey": null,
        "Canonical SMILES": "O=C(OC)CCOC",
        "Molecular Formula": "C<sub>5</sub>H<sub>10</sub>O<sub>3</sub>",
        "Molecular Mass": "118.13",
        "Boiling Point": "142.8 °C",
        "Density": "1.0148 g/cm³ @ Temp: 15 °C"
    }
}