{
    "cas_no": "1660-95-3",
    "key_name": "Tetraisopropyl methylenediphosphonate",
    "cn_name": "亚甲基二磷酸四异丙酯;四异丙基亚甲基二磷酸酯;",
    "alternate_name": "Phosphonic acid, <em>P</em>,<em>P</em>′-methylenebis-, <em>P</em>,<em>P</em>,<em>P</em>′,<em>P</em>′-tetrakis(1-methylethyl) ester;Phosphonic acid, methylenedi-, tetraisopropyl ester;Phosphonic acid, methylenebis-, tetrakis(1-methylethyl) ester;Methylenediphosphonic acid tetraisopropyl ester;Tetraisopropyl methylenediphosphonate;Tetraisopropyl methylenebisphosphonate;NSC 226577;[(Diisopropoxyphosphinyl)methyl]diisopropoxyphosphine oxide;Tetrakis(<em>O</em>-isopropyl) methylenediphosphonate;2-[Di(propan-2-yloxy)phosphorylmethyl-propan-2-yloxyphosphoryl]oxypropane",
    "duplicated_cas_no": "",
    "SMILES": "P(CP(OC(C)C)(OC(C)C)=O)(OC(C)C)(OC(C)C)=O",
    "meta_data": {
        "InChI": "InChI=1S/C13H30O6P2/c1-10(2)16-20(14,17-11(3)4)9-21(15,18-12(5)6)19-13(7)8/h10-13H,9H2,1-8H3",
        "InChIKey": null,
        "Canonical SMILES": "O=P(OC(C)C)(OC(C)C)CP(=O)(OC(C)C)OC(C)C",
        "Molecular Formula": "C<sub>13</sub>H<sub>30</sub>O<sub>6</sub>P<sub>2</sub>",
        "Molecular Mass": "344.32",
        "Boiling Point": "87-90 °C @ Press: 3 x 10<sup>-3</sup> Torr",
        "Density": "1.0531 g/cm³ @ Temp: 25 °C"
    }
}