{
    "cas_no": "874902-19-9",
    "key_name": "5-([1,1′-Biphenyl]-4-ylmethyl)-<em>N</em>,<em>N</em>-dimethyl-1<em>H</em>-tetrazole-1-carboxamide",
    "cn_name": null,
    "alternate_name": "1<em>H</em>-Tetrazole-1-carboxamide, 5-([1,1′-biphenyl]-4-ylmethyl)-<em>N</em>,<em>N</em>-dimethyl-;5-([1,1′-Biphenyl]-4-ylmethyl)-<em>N</em>,<em>N</em>-dimethyl-1<em>H</em>-tetrazole-1-carboxamide;LY 2183240",
    "duplicated_cas_no": "",
    "SMILES": "C(C=1N(C(N(C)C)=O)N=NN1)C2=CC=C(C=C2)C3=CC=CC=C3",
    "meta_data": {
        "InChI": "InChI=1S/C17H17N5O/c1-21(2)17(23)22-16(18-19-20-22)12-13-8-10-15(11-9-13)14-6-4-3-5-7-14/h3-11H,12H2,1-2H3",
        "InChIKey": null,
        "Canonical SMILES": "O=C(N1N=NN=C1CC=2C=CC(=CC2)C=3C=CC=CC3)N(C)C",
        "Molecular Formula": "C<sub>17</sub>H<sub>17</sub>N<sub>5</sub>O",
        "Molecular Mass": "307.35",
        "Melting Point": "87-88 °C"
    }
}