{
    "cas_no": "1226-42-2",
    "key_name": "4,4′-Dimethoxybenzil",
    "cn_name": "4,4\"-二甲氧基苯酚酯;4,4\"-二甲氧基苯酚酯;茴香偶酰;4,4\"-二甲氧基苯偶酰;聯大茴香醯;茴香偶酰;",
    "alternate_name": "1,2-Ethanedione, 1,2-bis(4-methoxyphenyl)-;<em>p</em>-Anisil;Ethanedione, bis(4-methoxyphenyl)-;Anisil;1,2-Bis(4-methoxyphenyl)-1,2-ethanedione;4,4′-Dimethoxybenzil;Bis(<em>p</em>-methoxyphenyl)ethanedione;Bis(4-methoxyphenyl)ethanedione;Di-<em>p</em>-anisylethanedione;<em>p</em>,<em>p</em>′-Dimethoxybenzil;NSC 19218;NSC 602910;4,4′-Dimethoxylbenzil;1,2-Bis(4-methoxyphenyl)ethanedione;1,2-Bis(<em>p</em>-methoxyphenyl)ethane-1,2-dione;1,2-Bis(4-methoxyphenyl)ethan-1,2-dione",
    "duplicated_cas_no": "",
    "SMILES": "C(C(=O)C1=CC=C(OC)C=C1)(=O)C2=CC=C(OC)C=C2",
    "meta_data": {
        "InChI": "InChI=1S/C16H14O4/c1-19-13-7-3-11(4-8-13)15(17)16(18)12-5-9-14(20-2)10-6-12/h3-10H,1-2H3",
        "InChIKey": null,
        "Canonical SMILES": "O=C(C(=O)C1=CC=C(OC)C=C1)C2=CC=C(OC)C=C2",
        "Molecular Formula": "C<sub>16</sub>H<sub>14</sub>O<sub>4</sub>",
        "Molecular Mass": "270.28",
        "Boiling Point": "195 °C @ Press: 16 Torr",
        "Melting Point": "132 °C"
    }
}