{
    "cas_no": "329-71-5",
    "key_name": "2,5-Dinitrophenol",
    "cn_name": "2,5-二硝基苯酚;&gamma;-二硝基苯酚;2,5-二硝基酚;",
    "alternate_name": "Phenol, 2,5-dinitro-;2,5-Dinitrophenol;2,5-DNP;Phenol, γ-dinitro-;NSC 90441",
    "duplicated_cas_no": "959369-46-1;1027155-78-7;1177637-51-2",
    "SMILES": "N(=O)(=O)C1=CC(O)=C(N(=O)=O)C=C1",
    "meta_data": {
        "InChI": "InChI=1S/C6H4N2O5/c9-6-3-4(7(10)11)1-2-5(6)8(12)13/h1-3,9H",
        "InChIKey": null,
        "Canonical SMILES": "O=N(=O)C1=CC=C(C(O)=C1)N(=O)=O",
        "Molecular Formula": "C<sub>6</sub>H<sub>4</sub>N<sub>2</sub>O<sub>5</sub>",
        "Molecular Mass": "184.11",
        "Melting Point": "108 °C"
    }
}