{
    "cas_no": "71653-64-0",
    "key_name": "2-(Difluoromethoxy)benzaldehyde",
    "cn_name": null,
    "alternate_name": "Benzaldehyde, 2-(difluoromethoxy)-;2-(Difluoromethoxy)benzaldehyde;<em>o</em>-(Difluoromethoxy)benzaldehyde",
    "duplicated_cas_no": "",
    "SMILES": "O(C(F)F)C1=C(C=O)C=CC=C1",
    "meta_data": {
        "InChI": "InChI=1S/C8H6F2O2/c9-8(10)12-7-4-2-1-3-6(7)5-11/h1-5,8H",
        "InChIKey": null,
        "Canonical SMILES": "O=CC=1C=CC=CC1OC(F)F",
        "Molecular Formula": "C<sub>8</sub>H<sub>6</sub>F<sub>2</sub>O<sub>2</sub>",
        "Molecular Mass": "172.13",
        "Boiling Point": "94-96 °C @ Press: 10 Torr"
    }
}