{
    "cas_no": "10355-53-0",
    "key_name": "4-Nitro-<em>p</em>-terphenyl",
    "cn_name": "4-硝基对三联苯;",
    "alternate_name": "1,1′:4′,1′′-Terphenyl, 4-nitro-;<em>p</em>-Terphenyl, 4-nitro-;4-Nitro-1,1′:4′,1′′-terphenyl;4-Nitro-<em>p</em>-terphenyl;NSC 506434",
    "duplicated_cas_no": "",
    "SMILES": "N(=O)(=O)C1=CC=C(C2=CC=C(C=C2)C3=CC=CC=C3)C=C1",
    "meta_data": {
        "InChI": "InChI=1S/C18H13NO2/c20-19(21)18-12-10-17(11-13-18)16-8-6-15(7-9-16)14-4-2-1-3-5-14/h1-13H",
        "InChIKey": null,
        "Canonical SMILES": "O=N(=O)C=1C=CC(=CC1)C=2C=CC(=CC2)C=3C=CC=CC3",
        "Molecular Formula": "C<sub>18</sub>H<sub>13</sub>NO<sub>2</sub>",
        "Molecular Mass": "275.30",
        "Melting Point": "211 °C"
    }
}