{
    "cas_no": "2759-28-6",
    "key_name": "1-Benzylpiperazine",
    "cn_name": "1-苄基哌嗪;N-苄基哌嗪;",
    "alternate_name": "Piperazine, 1-(phenylmethyl)-;Piperazine, 1-benzyl-;1-(Phenylmethyl)piperazine;1-Benzylpiperazine;4-Benzylpiperazine;Benzylpiperazine;<em>N</em>-Benzylpiperazine;<em>N</em>-(Phenylmethyl)piperazine;NSC 40889;NSC 44502;4-(Phenylmethyl)piperazine",
    "duplicated_cas_no": "1190921-62-0",
    "SMILES": "C(C1=CC=CC=C1)N2CCNCC2",
    "meta_data": {
        "InChI": "InChI=1S/C11H16N2/c1-2-4-11(5-3-1)10-13-8-6-12-7-9-13/h1-5,12H,6-10H2",
        "InChIKey": null,
        "Canonical SMILES": "C=1C=CC(=CC1)CN2CCNCC2",
        "Molecular Formula": "C<sub>11</sub>H<sub>16</sub>N<sub>2</sub>",
        "Molecular Mass": "176.26",
        "Boiling Point": "128-135 °C @ Press: 6 Torr",
        "Melting Point": "236-237 °C"
    }
}