{
    "cas_no": "622-24-2",
    "key_name": "Phenylethyl chloride",
    "cn_name": "1-氯-2-苯乙烷;2-苯基氯乙烷;2-氯乙基苯;beta-氯苯乙烷;",
    "alternate_name": "Benzene, (2-chloroethyl)-;Benzene, (β-chloroethyl)-;(2-Chloroethyl)benzene;Phenethyl chloride;1-Chloro-2-phenylethane;β-Phenethyl chloride;2-Phenylethyl chloride;2-Phenyl-1-chloroethane;β-Phenylethyl chloride;(β-Chloroethyl)benzene;Phenylethyl chloride;NSC 27886",
    "duplicated_cas_no": "",
    "SMILES": "C(CCl)C1=CC=CC=C1",
    "meta_data": {
        "InChI": "InChI=1S/C8H9Cl/c9-7-6-8-4-2-1-3-5-8/h1-5H,6-7H2",
        "InChIKey": null,
        "Canonical SMILES": "ClCCC=1C=CC=CC1",
        "Molecular Formula": "C<sub>8</sub>H<sub>9</sub>Cl",
        "Molecular Mass": "140.61",
        "Boiling Point": "197 °C",
        "Melting Point": "171.5 °C",
        "Density": "1.0623 g/cm³ @ Temp: 20 °C"
    }
}