{
    "cas_no": "5465-96-3",
    "key_name": "4,5-Dihydro-<em>N</em>-nitro-1<em>H</em>-imidazol-2-amine",
    "cn_name": "2-硝基亚氨基咪唑烷;",
    "alternate_name": "1<em>H</em>-Imidazol-2-amine, 4,5-dihydro-<em>N</em>-nitro-;Imidazolidine, 2-(nitroimino)-;4,5-Dihydro-<em>N</em>-nitro-1<em>H</em>-imidazol-2-amine;2-Nitroaminoimidazoline;2-(Nitroamino)-2-imidazoline;2-Nitramino-2-imidazoline;2-Nitriminoimidazolidine;2-(Nitroimino)imidazolidine;NSC 25961;NSC 65424;NSC 91792;2-Nitroiminoimidazole",
    "duplicated_cas_no": "",
    "SMILES": "N(N(=O)=O)C=1NCCN1",
    "meta_data": {
        "InChI": "InChI=1S/C3H6N4O2/c8-7(9)6-3-4-1-2-5-3/h1-2H2,(H2,4,5,6)",
        "InChIKey": null,
        "Canonical SMILES": "O=N(=O)NC1=NCCN1",
        "Molecular Formula": "C<sub>3</sub>H<sub>6</sub>N<sub>4</sub>O<sub>2</sub>",
        "Molecular Mass": "130.11",
        "Melting Point": "220-221 °C (decomp)",
        "Density": "1.528 g/cm³ (solid)"
    }
}