{
    "cas_no": "32940-15-1",
    "key_name": "3,4-Dihydro-5-methoxy-2(1<em>H</em>)-naphthalenone",
    "cn_name": "5-甲氧基-2-萘满酮;",
    "alternate_name": "2(1<em>H</em>)-Naphthalenone, 3,4-dihydro-5-methoxy-;3,4-Dihydro-5-methoxy-2(1<em>H</em>)-naphthalenone;5-Methoxy-2-tetralone;5-Methoxy-3,4-dihydro-2(1<em>H</em>)-naphthalenone;5-Methoxy-β-tetralone;2-Oxo-5-methoxy-1,2,3,4-tetrahydronaphthalene;NSC 88880;5-Methoxytetralin-2-one",
    "duplicated_cas_no": "",
    "SMILES": "O(C)C1=C2C(CC(=O)CC2)=CC=C1",
    "meta_data": {
        "InChI": "InChI=1S/C11H12O2/c1-13-11-4-2-3-8-7-9(12)5-6-10(8)11/h2-4H,5-7H2,1H3",
        "InChIKey": null,
        "Canonical SMILES": "O=C1CC=2C=CC=C(OC)C2CC1",
        "Molecular Formula": "C<sub>11</sub>H<sub>12</sub>O<sub>2</sub>",
        "Molecular Mass": "176.21",
        "Boiling Point": "120-122 °C @ Press: 0.4 Torr",
        "Melting Point": "35-37 °C"
    }
}