{
    "cas_no": "554403-49-5",
    "key_name": "1-[(6-Chloroimidazo[2,1-<em>b</em>]thiazol-5-yl)sulfonyl]-1<em>H</em>-indole-3-ethanamine",
    "cn_name": null,
    "alternate_name": "1<em>H</em>-Indole-3-ethanamine, 1-[(6-chloroimidazo[2,1-<em>b</em>]thiazol-5-yl)sulfonyl]-;1-[(6-Chloroimidazo[2,1-<em>b</em>]thiazol-5-yl)sulfonyl]-1<em>H</em>-indole-3-ethanamine;2-[1-[(6-Chloroimidazo[2,1-<em>b</em>][1,3]thiazol-5-yl)sulfonyl]-1<em>H</em>-indol-3-yl]ethylamine;WAY 181187;2-[1-(6-Chloroimidazo[2,1-<em>b</em>][1,3]thiazol-5-yl)sulfonylindol-3-yl]ethanamine;SAX 187",
    "duplicated_cas_no": "1015083-78-9",
    "SMILES": "S(=O)(=O)(N1C=2C(C(CCN)=C1)=CC=CC2)C=3N4C(=NC3Cl)SC=C4",
    "meta_data": {
        "InChI": "InChI=1S/C15H13ClN4O2S2/c16-13-14(19-7-8-23-15(19)18-13)24(21,22)20-9-10(5-6-17)11-3-1-2-4-12(11)20/h1-4,7-9H,5-6,17H2",
        "InChIKey": null,
        "Canonical SMILES": "O=S(=O)(C1=C(Cl)N=C2SC=CN21)N3C=C(C=4C=CC=CC43)CCN",
        "Molecular Formula": "C<sub>15</sub>H<sub>13</sub>ClN<sub>4</sub>O<sub>2</sub>S<sub>2</sub>",
        "Molecular Mass": "380.87",
        "Melting Point": "243-244 °C"
    }
}