{
    "cas_no": "619-57-8",
    "key_name": "4-Hydroxybenzamide",
    "cn_name": "4-羟基苯甲酰胺;对羟基苯甲酰胺;",
    "alternate_name": "Benzamide, 4-hydroxy-;Benzamide, <em>p</em>-hydroxy-;4-Hydroxybenzamide;<em>p</em>-Hydroxybenzamide;SR 4328;<em>p</em>-Hydroxybenzoic acid amide;NSC 524134;4-Carbamoylphenol",
    "duplicated_cas_no": "",
    "SMILES": "C(N)(=O)C1=CC=C(O)C=C1",
    "meta_data": {
        "InChI": "InChI=1S/C7H7NO2/c8-7(10)5-1-3-6(9)4-2-5/h1-4,9H,(H2,8,10)",
        "InChIKey": null,
        "Canonical SMILES": "O=C(N)C1=CC=C(O)C=C1",
        "Molecular Formula": "C<sub>7</sub>H<sub>7</sub>NO<sub>2</sub>",
        "Molecular Mass": "137.14",
        "Melting Point": "161-162 °C",
        "Density": "1.42 g/cm³"
    }
}