{
    "cas_no": "7499-60-7",
    "key_name": "γ-Oxo-1-pyrenebutyric acid",
    "cn_name": null,
    "alternate_name": "1-Pyrenebutanoic acid, γ-oxo-;1-Pyrenebutyric acid, γ-oxo-;γ-Oxo-1-pyrenebutanoic acid;β-(1-Pyrenoyl)propionic acid;NSC 407628;γ-Oxo-1-pyrenebutyric acid;NCI ID: NSC 407628",
    "duplicated_cas_no": "",
    "SMILES": "C(CCC(O)=O)(=O)C1=C2C3=C4C(C=C2)=CC=CC4=CC=C3C=C1",
    "meta_data": {
        "InChI": "InChI=1S/C20H14O3/c21-17(10-11-18(22)23)15-8-6-14-5-4-12-2-1-3-13-7-9-16(15)20(14)19(12)13/h1-9H,10-11H2,(H,22,23)",
        "InChIKey": null,
        "Canonical SMILES": "O=C(O)CCC(=O)C1=CC=C2C=CC3=CC=CC=4C=CC1=C2C34",
        "Molecular Formula": "C<sub>20</sub>H<sub>14</sub>O<sub>3</sub>",
        "Molecular Mass": "302.32",
        "Melting Point": "183 °C"
    }
}