{
    "cas_no": "1273-94-5",
    "key_name": "1,1′-Diacetylferrocene",
    "cn_name": "1,1\"-二乙酰基二茂铁;",
    "alternate_name": "Ferrocene, 1,1′-diacetyl-;Iron, bis(cyclopentadienyl methyl ketone)-;1,1′-Diacetylferrocene;DAF;NSC 16677;NSC 511707;Bis(η<sup>5</sup>-acetylcyclopentadienyl)iron;Diacetylferrocene",
    "duplicated_cas_no": "49564-20-7",
    "SMILES": "C(C)(=O)[C-]12[Fe+2]3456789([C-]%10(C(C)=O)[CH]3=[CH]4[CH]5=[CH]6%10)[CH]1=[CH]7[CH]8=[CH]92",
    "meta_data": {
        "InChI": "InChI=1S/2C7H7O.Fe/c2*1-6(8)7-4-2-3-5-7;/h2*2-5H,1H3;/q2*-1;+2",
        "InChIKey": null,
        "Canonical SMILES": "O=C(C)[C-]12[CH]3=[CH]4[CH]5=[CH]1[Fe+2]45678932[CH]=%10[CH]9=[CH]8[C-]7(C(=O)C)[CH]%106",
        "Molecular Formula": "C<sub>14</sub>H<sub>14</sub>FeO<sub>2</sub>",
        "Molecular Mass": "",
        "Melting Point": "127-127.5 °C"
    }
}