{
    "cas_no": "7675-83-4",
    "key_name": "Arginine aspartate",
    "cn_name": "L-精氨酸L-天门冬氨酸;",
    "alternate_name": "<span class=\"text-smallcaps\">L</smallcap>-Aspartic acid, compd. with <smallcap>L</span>-arginine (1:1);Aspartic acid, <span class=\"text-smallcaps\">L</smallcap>-, compd. with <smallcap>L</span>-arginine (1:1);Arginine, <span class=\"text-smallcaps\">L</smallcap>-, <smallcap>L</span>-aspartate (1:1);<span class=\"text-smallcaps\">L</smallcap>-Arginine, <smallcap>L</span>-aspartate (1:1);Arginine aspartate",
    "duplicated_cas_no": "3054-35-1",
    "SMILES": "C(CCNC(=N)N)[C@@H](C(O)=O)N.[C@H](CC(O)=O)(C(O)=O)N",
    "meta_data": {
        "InChI": "InChI=1S/C6H14N4O2.C4H7NO4/c7-4(5(11)12)2-1-3-10-6(8)9;5-2(4(8)9)1-3(6)7/h4H,1-3,7H2,(H,11,12)(H4,8,9,10);2H,1,5H2,(H,6,7)(H,8,9)/t4-;2-/m00/s1",
        "InChIKey": null,
        "Canonical SMILES": "O=C(O)CC(N)C(=O)O.O=C(O)C(N)CCCNC(=N)N",
        "Molecular Formula": "C<sub>6</sub>H<sub>14</sub>N<sub>4</sub>O<sub>2</sub>.C<sub>4</sub>H<sub>7</sub>NO<sub>4</sub>",
        "Molecular Mass": "",
        "Melting Point": "220-221 °C"
    }
}