{
    "cas_no": "121-47-1",
    "key_name": "3-Aminobenzenesulfonic acid",
    "cn_name": "3-氨基苯磺酸;间氨基苯磺酸;",
    "alternate_name": "Benzenesulfonic acid, 3-amino-;Metanilic acid;3-Aminobenzenesulfonic acid;<em>m</em>-Anilinesulfonic acid;<em>m</em>-Sulfanilic acid;3-Anilinesulfonic acid;<em>m</em>-Aminophenylsulfonic acid;3-Sulfoaniline;3-Aminophenylsulfonic acid;<em>m</em>-Aminobenzenesulfonic acid;m-Aminobenzenesulfonic acid;NSC 4504;3-Azaniumylbenzenesulfonate;3-Aminobenzene-1-sulfonic acid;5-Aminobenzene sulfonic acid",
    "duplicated_cas_no": "",
    "SMILES": "S(=O)(=O)(O)C1=CC(N)=CC=C1",
    "meta_data": {
        "InChI": "InChI=1S/C6H7NO3S/c7-5-2-1-3-6(4-5)11(8,9)10/h1-4H,7H2,(H,8,9,10)",
        "InChIKey": null,
        "Canonical SMILES": "O=S(=O)(O)C=1C=CC=C(N)C1",
        "Molecular Formula": "C<sub>6</sub>H<sub>7</sub>NO<sub>3</sub>S",
        "Molecular Mass": "173.19",
        "Melting Point": "142-143 °C"
    }
}