{
    "cas_no": "1079-02-3",
    "key_name": "Benzoic-<em>2</em>,<em>3</em>,<em>4</em>,<em>5</em>,<em>6</em>-<em>d</em><sub>5</sub> acid",
    "cn_name": "氘代苯甲酸;",
    "alternate_name": "Benzoic-<em>2</em>,<em>3</em>,<em>4</em>,<em>5</em>,<em>6</em>-<em>d</em><sub>5</sub> acid;Benzoic-<em>d</em><sub>5</sub> acid;Benzoic acid-<em>d</em><sub>5</sub>;Pentadeuteriobenzoic acid;2,3,4,5,6-Pentadeuteriobenzoic acid",
    "duplicated_cas_no": "",
    "SMILES": "C(O)(=O)C1=C(C(=C(C(=C1[2H])[2H])[2H])[2H])[2H]",
    "meta_data": {
        "InChI": "InChI=1S/C7H6O2/c8-7(9)6-4-2-1-3-5-6/h1-5H,(H,8,9)/i1D,2D,3D,4D,5D",
        "InChIKey": null,
        "Canonical SMILES": "O=C(O)C=1C=CC=CC1",
        "Molecular Formula": "C<sub>7</sub>HD<sub>5</sub>O<sub>2</sub>",
        "Molecular Mass": "",
        "Melting Point": "122 °C"
    }
}