{
    "cas_no": "1887-29-2",
    "key_name": "Benzenesulfonothioic acid, sodium salt (1:1)",
    "cn_name": "苯硫羰基磺酸钠盐;",
    "alternate_name": "Benzenesulfonothioic acid, sodium salt (1:1);Benzenesulfonic acid, thio-, sodium salt;Benzenesulfonothioic acid, sodium salt;Benzenesulfonic acid, thio-, <em>S</em>-sodium salt;Sodium benzenethiosulfonate;Sodium benzenethiosulphonate;Sodium phenylthiosulfonate;Benzenethiosulfonic acid sodium salt;Sodium benezenesulfonothioate;Sodium, (benzenesulfonothioato-κ<em>S</em>)-",
    "duplicated_cas_no": "2376448-12-1",
    "SMILES": "S(=O)(=O)(S)C1=CC=CC=C1.[Na]",
    "meta_data": {
        "InChI": "InChI=1S/C6H6O2S2.Na/c7-10(8,9)6-4-2-1-3-5-6;/h1-5H,(H,7,8,9);",
        "InChIKey": null,
        "Canonical SMILES": "[Na].O=S(=O)(S)C=1C=CC=CC1",
        "Molecular Formula": "C<sub>6</sub>H<sub>6</sub>O<sub>2</sub>S<sub>2</sub>.Na",
        "Molecular Mass": "",
        "Melting Point": "305-306 °C"
    }
}