{
    "cas_no": "20017-68-9",
    "key_name": "3,3-Diphenylpropyl bromide",
    "cn_name": "3-溴-1,1-二苯基丙烷;3,3-二苯基溴丙烷;1,1\"-(3-溴亚丙基)二苯;",
    "alternate_name": "Benzene, 1,1′-(3-bromopropylidene)bis-;Propane, 3-bromo-1,1-diphenyl-;1,1′-(3-Bromopropylidene)bis[benzene];3,3-Diphenylpropyl bromide;1-Bromo-3,3-diphenylpropane;3-Bromo-1,1-diphenylpropane;3,3-Diphenyl-1-bromopropane;NSC 72996;(3-Bromo-1-phenylpropyl)benzene;(3-Bromopropane-1,1-diyl)dibenzene",
    "duplicated_cas_no": "",
    "SMILES": "C(CCBr)(C1=CC=CC=C1)C2=CC=CC=C2",
    "meta_data": {
        "InChI": "InChI=1S/C15H15Br/c16-12-11-15(13-7-3-1-4-8-13)14-9-5-2-6-10-14/h1-10,15H,11-12H2",
        "InChIKey": null,
        "Canonical SMILES": "BrCCC(C=1C=CC=CC1)C=2C=CC=CC2",
        "Molecular Formula": "C<sub>15</sub>H<sub>15</sub>Br",
        "Molecular Mass": "275.18",
        "Boiling Point": "145 °C @ Press: 2 Torr",
        "Melting Point": "43 °C"
    }
}