{
    "cas_no": "95-89-6",
    "key_name": "3-Chloro-2,5-dimethylpyrazine",
    "cn_name": "3-氯-2,5-二甲基吡嗪;",
    "alternate_name": "Pyrazine, 3-chloro-2,5-dimethyl-;3-Chloro-2,5-dimethylpyrazine;2-Chloro-3,6-dimethylpyrazine;NSC 40820",
    "duplicated_cas_no": "",
    "SMILES": "ClC=1C(C)=NC=C(C)N1",
    "meta_data": {
        "InChI": "InChI=1S/C6H7ClN2/c1-4-3-8-5(2)6(7)9-4/h3H,1-2H3",
        "InChIKey": null,
        "Canonical SMILES": "ClC1=NC(=CN=C1C)C",
        "Molecular Formula": "C<sub>6</sub>H<sub>7</sub>ClN<sub>2</sub>",
        "Molecular Mass": "142.59",
        "Boiling Point": "66-69 °C"
    }
}