{
    "cas_no": "20016-85-7",
    "key_name": "(<em>R</em>)-2-Hydroxybutanoic acid",
    "cn_name": null,
    "alternate_name": "Butanoic acid, 2-hydroxy-, (2<em>R</em>)-;Butyric acid, 2-hydroxy-, <span class=\"text-smallcaps\">D</span>-;Butanoic acid, 2-hydroxy-, (<em>R</em>)-;(2<em>R</em>)-2-Hydroxybutanoic acid;<span class=\"text-smallcaps\">D</span>-α-Hydroxybutyric acid;<span class=\"text-smallcaps\">D</span>-2-Hydroxybutyric acid;<span class=\"text-smallcaps\">D</span>-(-)-α-Hydroxybutyric acid;(-)-2-Hydroxybutyric acid;(-)-2-Hydroxy-<em>n</em>-butyric acid;(-)-2-Hydroxybutanoic acid;(<em>R</em>)-α-Hydroxybutyric acid;(-)-α-Hydroxybutyric acid;(<em>R</em>)-2-Hydroxybutyric acid;(<em>R</em>)-2-Hydroxybutanoic acid;(2R)-2-Hydroxybutanoic acid;(R)-2-Hydroxybutyric acid",
    "duplicated_cas_no": "",
    "SMILES": "[C@H](C(O)=O)(CC)O",
    "meta_data": {
        "InChI": "InChI=1S/C4H8O3/c1-2-3(5)4(6)7/h3,5H,2H2,1H3,(H,6,7)/t3-/m1/s1",
        "InChIKey": null,
        "Canonical SMILES": "O=C(O)C(O)CC",
        "Molecular Formula": "C<sub>4</sub>H<sub>8</sub>O<sub>3</sub>",
        "Molecular Mass": "104.10",
        "Melting Point": "55-55.5 °C"
    }
}