{
    "cas_no": "1122-69-6",
    "key_name": "2-Ethyl-6-methylpyridine",
    "cn_name": "2-乙基-6-甲基吡啶; 6-乙基-2-甲基吡啶;2-乙基-6-甲基吡啶;",
    "alternate_name": "Pyridine, 2-ethyl-6-methyl-;2-Picoline, 6-ethyl-;2-Ethyl-6-methylpyridine;6-Ethyl-2-methylpyridine;2-Methyl-6-ethylpyridine;6-Methyl-2-ethylpyridine",
    "duplicated_cas_no": "",
    "SMILES": "C(C)C=1N=C(C)C=CC1",
    "meta_data": {
        "InChI": "InChI=1S/C8H11N/c1-3-8-6-4-5-7(2)9-8/h4-6H,3H2,1-2H3",
        "InChIKey": null,
        "Canonical SMILES": "N=1C(=CC=CC1CC)C",
        "Molecular Formula": "C<sub>8</sub>H<sub>11</sub>N",
        "Molecular Mass": "121.18",
        "Boiling Point": "160.5 °C",
        "Density": "0.9229 g/cm³ @ Temp: 15 °C"
    }
}