{
    "cas_no": "110-86-1",
    "key_name": "Pyridine",
    "cn_name": "吡啶;",
    "alternate_name": "Pyridine;Azabenzene;Azine;CP 32;NSC 141574;NSC 406123;A 57147",
    "duplicated_cas_no": "6999-00-4;45410-39-7;62301-32-0;82005-06-9;85404-20-2;85404-19-9;733733-47-6;857961-06-9;152758-95-7;163392-20-9",
    "SMILES": "C=1C=CN=CC1",
    "meta_data": {
        "InChI": "InChI=1S/C5H5N/c1-2-4-6-5-3-1/h1-5H",
        "InChIKey": null,
        "Canonical SMILES": "N=1C=CC=CC1",
        "Molecular Formula": "C<sub>5</sub>H<sub>5</sub>N",
        "Molecular Mass": "79.10",
        "Boiling Point": "115.2-115.3 °C",
        "Melting Point": "-41.6 °C",
        "Density": "0.98272 g/cm³ @ Temp: 20 °C"
    }
}