{
    "cas_no": "10252-29-6",
    "key_name": "4,4′-Azodibenzoyl chloride",
    "cn_name": null,
    "alternate_name": "Benzoyl chloride, 4,4′-(1,2-diazenediyl)bis-;Benzoyl chloride, 4,4′-azodi-;Benzoyl chloride, 4,4′-azobis-;4,4′-(1,2-Diazenediyl)bis[benzoyl chloride];4,4′-Azobenzenedicarbonyl chloride;1,1′-Azobenzene-4,4′-dicarboxylic acid chloride;4,4′-Azodibenzoyl chloride;4,4′-Bis(chlorocarbonyl)azobenzene;A 1575;4,4′-Azodibenzoyl dichloride",
    "duplicated_cas_no": "",
    "SMILES": "C(Cl)(=O)C1=CC=C(N=NC2=CC=C(C(Cl)=O)C=C2)C=C1",
    "meta_data": {
        "InChI": "InChI=1S/C14H8Cl2N2O2/c15-13(19)9-1-5-11(6-2-9)17-18-12-7-3-10(4-8-12)14(16)20/h1-8H",
        "InChIKey": null,
        "Canonical SMILES": "O=C(Cl)C1=CC=C(N=NC2=CC=C(C=C2)C(=O)Cl)C=C1",
        "Molecular Formula": "C<sub>14</sub>H<sub>8</sub>Cl<sub>2</sub>N<sub>2</sub>O<sub>2</sub>",
        "Molecular Mass": "307.13",
        "Melting Point": "163 °C"
    }
}