{
    "cas_no": "4110-50-3",
    "key_name": "Ethyl propyl sulfide",
    "cn_name": "乙基正丙基硫醚;乙基正丙基硫醚;",
    "alternate_name": "Propane, 1-(ethylthio)-;Sulfide, ethyl propyl;1-(Ethylthio)propane;Ethyl propyl sulfide;Ethyl propyl thioether;Propyl ethyl sulfide;3-Thiahexane;NSC 163319;Ethyl <em>n</em>-propyl sulfide;1-Ethylsulfanylpropane",
    "duplicated_cas_no": "",
    "SMILES": "C(SCC)CC",
    "meta_data": {
        "InChI": "InChI=1S/C5H12S/c1-3-5-6-4-2/h3-5H2,1-2H3",
        "InChIKey": null,
        "Canonical SMILES": "S(CC)CCC",
        "Molecular Formula": "C<sub>5</sub>H<sub>12</sub>S",
        "Molecular Mass": "104.21",
        "Boiling Point": "118.6 °C",
        "Melting Point": "-117 °C",
        "Density": "0.8441 g/cm³ @ Temp: 20 °C"
    }
}