{
    "cas_no": "591-31-1",
    "key_name": "3-Methoxybenzaldehyde",
    "cn_name": "3-甲氧基苯甲醛;",
    "alternate_name": "Benzaldehyde, 3-methoxy-;<em>m</em>-Anisaldehyde;Benzaldehyde, <em>m</em>-methoxy-;3-Methoxybenzaldehyde;<em>m</em>-Methoxybenzaldehyde;NSC 43794;3-Methoxyphenylcarboxaldehyde",
    "duplicated_cas_no": "",
    "SMILES": "C(=O)C1=CC(OC)=CC=C1",
    "meta_data": {
        "InChI": "InChI=1S/C8H8O2/c1-10-8-4-2-3-7(5-8)6-9/h2-6H,1H3",
        "InChIKey": null,
        "Canonical SMILES": "O=CC=1C=CC=C(OC)C1",
        "Molecular Formula": "C<sub>8</sub>H<sub>8</sub>O<sub>2</sub>",
        "Molecular Mass": "136.15",
        "Boiling Point": "231 °C",
        "Melting Point": "187 °C",
        "Density": "1.115 g/cm³ @ Temp: 22 °C"
    }
}