{
    "cas_no": "607-81-8",
    "key_name": "1,3-Diethyl 2-(phenylmethyl)propanedioate",
    "cn_name": "苄基丙二酸二乙酯;",
    "alternate_name": "Propanedioic acid, 2-(phenylmethyl)-, 1,3-diethyl ester;Malonic acid, benzyl-, diethyl ester;Propanedioic acid, (phenylmethyl)-, diethyl ester;1,3-Diethyl 2-(phenylmethyl)propanedioate;Diethyl benzylmalonate;Benzylmalonic acid diethyl ester;2-Benzylmalonic acid diethyl ester;Diethyl 2-benzylmalonate;1,1-Bis(ethoxycarbonyl)-2-phenylethane;(Phenylmethyl)propanedioic acid diethyl ester;NSC 41169;NSC 631631;NSC 8720;Diethyl 2-benzylpropanedioate;1,3-Diethyl 2-benzylpropanedioate",
    "duplicated_cas_no": "581796-75-0",
    "SMILES": "C(C(OCC)=O)(C(OCC)=O)CC1=CC=CC=C1",
    "meta_data": {
        "InChI": "InChI=1S/C14H18O4/c1-3-17-13(15)12(14(16)18-4-2)10-11-8-6-5-7-9-11/h5-9,12H,3-4,10H2,1-2H3",
        "InChIKey": null,
        "Canonical SMILES": "O=C(OCC)C(C(=O)OCC)CC=1C=CC=CC1",
        "Molecular Formula": "C<sub>14</sub>H<sub>18</sub>O<sub>4</sub>",
        "Molecular Mass": "250.29",
        "Boiling Point": "300 °C",
        "Density": "1.0763 g/cm³ @ Temp: 20 °C"
    }
}