{
    "cas_no": "8001-26-1",
    "key_name": "Linseed oil",
    "cn_name": null,
    "alternate_name": "Linseed oil;Linseed oil substitutes;Linseed-oil substitutes;Linseed oil, bleached;Flaxseed oil;Oils, glyceridic, flaxseed or linseed;Fats and Glyceridic oils, linseed;Fats and Glyceridic oils, flaxseed;Scan-Oil;Purolin;Purolin 2;P 1037;Toenol 1140;GP 1125;Diggers;Flax oil;Eruboiruyu;Hakujun'ama 6;Hakujun'ama 7;Linoxin Oil H;PU 104;Linola 2090;NuLin 50;OKO-M 25;Oleum Lini;Oleum semen Lini;Linum seed oil;Kremer 73054;Veopol 212055;Shuats-Alsi 2;MeSH ID: D008043;JD 81",
    "duplicated_cas_no": "68153-78-6;68512-93-6;90028-77-6",
    "SMILES": "",
    "meta_data": {
        "InChI": "",
        "InChIKey": null,
        "Canonical SMILES": "",
        "Molecular Formula": "Unspecified",
        "Molecular Mass": "",
        "Boiling Point": "&gt;316 °C",
        "Melting Point": "-24.0 °C",
        "Density": "0.925-0.935 g/cm³"
    }
}