{
    "uri": "substance/pt/8001261",
    "rn": "8001-26-1",
    "name": "Linseed oil",
    "images": [],
    "inchi": "",
    "inchiKey": "",
    "smile": "",
    "canonicalSmile": "",
    "molecularFormula": "Unspecified",
    "molecularMass": "",
    "experimentalProperties": [
        {
            "name": "Boiling Point",
            "property": "&gt;316 °C",
            "sourceNumber": 1
        },
        {
            "name": "Melting Point",
            "property": "-24.0 °C",
            "sourceNumber": 1
        },
        {
            "name": "Density",
            "property": "0.925-0.935 g/cm³",
            "sourceNumber": 1
        }
    ],
    "propertyCitations": [
        {
            "docUri": "",
            "sourceNumber": 1,
            "source": "Hazardous Substances Data Bank data were obtained from the National Library of Medicine (US)"
        }
    ],
    "synonyms": [
        "Linseed oil",
        "Linseed oil substitutes",
        "Linseed-oil substitutes",
        "Linseed oil, bleached",
        "Flaxseed oil",
        "Oils, glyceridic, flaxseed or linseed",
        "Fats and Glyceridic oils, linseed",
        "Fats and Glyceridic oils, flaxseed",
        "Scan-Oil",
        "Purolin",
        "Purolin 2",
        "P 1037",
        "Toenol 1140",
        "GP 1125",
        "Diggers",
        "Flax oil",
        "Eruboiruyu",
        "Hakujun'ama 6",
        "Hakujun'ama 7",
        "Linoxin Oil H",
        "PU 104",
        "Linola 2090",
        "NuLin 50",
        "OKO-M 25",
        "Oleum Lini",
        "Oleum semen Lini",
        "Linum seed oil",
        "Kremer 73054",
        "Veopol 212055",
        "Shuats-Alsi 2",
        "MeSH ID: D008043",
        "JD 81"
    ],
    "replacedRns": [
        "68153-78-6",
        "68512-93-6",
        "90028-77-6"
    ],
    "hasMolfile": false,
    "source": "https://commonchemistry.cas.org/detail?cas_rn=8001-26-1"
}