{
    "cas_no": "8009-03-8",
    "key_name": "Petrolatum",
    "cn_name": null,
    "alternate_name": "Petrolatum;Ultima White;Extra Amber;Pennsoline Soft Yellow;Penreco White;Snow White;Perfecta;White Protopet 2L;White Protopet;Cream white;Mineral jelly;Vaseline petroleum jelly;Petrolatum ointment;Petroleum jelly;Dafunikul;KV 3;OX 0450;Kremoline;White petrolatum;JP 020F;Yellow fonoline;Yellow Protopet 2A;Yellow Protopet 1E;Silkolene 910;JP 1500;Penreco Amber;Mineral Jelly No. 14;SG 120;SG 120 (corrosion inhibitor);Protopet 1S;White Protopet 1S;KV 3 (jelly);Amber Tech 2;SW 60;Alba-White;SW 60 (corrosion inhibitor);Tro-Grees;Paxwax 6681;Witcogel;Alba protopet;Protopet;White protopet No. 2L;Sonogel 9;OP 7Y;Super White Protopet 1S;P 65 (petrolatum);Sun White P 150;P 65 (jelly);Super White Protopet;AGIP-OB 10;Snowwhite V 28EP;G 2180;Weichceresin FL 400;Penreco Snow;Pionier 17122;BF;Ultima;Snow;Snow V;Regent;White 1S;PH 05;Vaseline Snow White;Sun White P 200;Crolatum V;Sonnecone DM 1;G 2218;Snow White Special;Pionier 17012;Topco S 977;EMCA Plus Gel 175;Red petrolatum;Nomcort W;Penreco Ultima;Snow White Pet-V-USP;Vaseline Base No. 4;Mineral Jelly No. 17;Sonogel 4;Petrolatums;Petrolatum ointments;Crolatum V-SO-JP;Petrol gels;Petrol jelly;Vaseline blanche codex 236;Ewalin 1751;Ointment Base 6;MeSH ID: D010577",
    "duplicated_cas_no": "8027-32-5;8038-17-3;8040-97-9;8040-87-7;8041-83-6;8044-23-3;8044-44-8;8044-45-9;8044-46-0;8044-24-4;8057-56-5;8063-27-2",
    "SMILES": "",
    "meta_data": {
        "InChI": "",
        "InChIKey": null,
        "Canonical SMILES": "",
        "Molecular Formula": "Unspecified",
        "Molecular Mass": "",
        "Boiling Point": "302 °C",
        "Melting Point": "38-54 °C",
        "Density": "0.9 g/cm³"
    }
}