{
    "cas_no": "80253-38-9",
    "key_name": "Propanoic acid, 3-amino-2,2-dimethyl-, ethyl ester, hydrochloride (1:1)",
    "cn_name": null,
    "alternate_name": "Propanoic acid, 3-amino-2,2-dimethyl-, ethyl ester, hydrochloride (1:1);Propanoic acid, 3-amino-2,2-dimethyl-, ethyl ester, hydrochloride;Ethyl 3-amino-2,2-dimethylpropanoate hydrochloride",
    "duplicated_cas_no": "",
    "SMILES": "C(C(OCC)=O)(CN)(C)C.Cl",
    "meta_data": {
        "InChI": "InChI=1S/C7H15NO2.ClH/c1-4-10-6(9)7(2,3)5-8;/h4-5,8H2,1-3H3;1H",
        "InChIKey": null,
        "Canonical SMILES": "Cl.O=C(OCC)C(C)(C)CN",
        "Molecular Formula": "C<sub>7</sub>H<sub>15</sub>NO<sub>2</sub>.ClH",
        "Molecular Mass": "",
        "Melting Point": "101 °C"
    }
}