{
    "cas_no": "1708-40-3",
    "key_name": "2-Phenyl-1,3-dioxan-5-ol",
    "cn_name": "2-苯基-1,3-二噁烷-5-醇;",
    "alternate_name": "1,3-Dioxan-5-ol, 2-phenyl-;<em>m</em>-Dioxan-5-ol, 2-phenyl-;2-Phenyl-1,3-dioxan-5-ol;Benzaldehyde cyclic 2-hydroxytrimethylene acetal;1,3-<em>O</em>-Benzylideneglycerol;1,3-Benzylideneglycerol;5-Hydroxy-2-phenyl-1,3-dioxane;NSC 97343;2-Phenyl-1,3-dioxinan-5-ol",
    "duplicated_cas_no": "",
    "SMILES": "OC1COC(OC1)C2=CC=CC=C2",
    "meta_data": {
        "InChI": "InChI=1S/C10H12O3/c11-9-6-12-10(13-7-9)8-4-2-1-3-5-8/h1-5,9-11H,6-7H2",
        "InChIKey": null,
        "Canonical SMILES": "OC1COC(OC1)C=2C=CC=CC2",
        "Molecular Formula": "C<sub>10</sub>H<sub>12</sub>O<sub>3</sub>",
        "Molecular Mass": "180.20",
        "Boiling Point": "165-170 °C @ Press: 10 Torr",
        "Melting Point": "83.5 °C"
    }
}