{
    "cas_no": "23256-23-7",
    "key_name": "Sulfatroxazole",
    "cn_name": null,
    "alternate_name": "Benzenesulfonamide, 4-amino-<em>N</em>-(4,5-dimethyl-3-isoxazolyl)-;Sulfanilamide, <em>N</em><sup>1</sup>-(4,5-dimethyl-3-isoxazolyl)-;4-Amino-<em>N</em>-(4,5-dimethyl-3-isoxazolyl)benzenesulfonamide;<em>N</em><sup>1</sup>-(4,5-Dimethyl-3-isoxazolyl)sulfanilamide;Isosulfafurazole;4,5-Dimethyl-3-sulfanilamidoisoxazole;Sulfatroxazole",
    "duplicated_cas_no": "",
    "SMILES": "S(NC=1C(C)=C(C)ON1)(=O)(=O)C2=CC=C(N)C=C2",
    "meta_data": {
        "InChI": "InChI=1S/C11H13N3O3S/c1-7-8(2)17-13-11(7)14-18(15,16)10-5-3-9(12)4-6-10/h3-6H,12H2,1-2H3,(H,13,14)",
        "InChIKey": null,
        "Canonical SMILES": "O=S(=O)(NC1=NOC(=C1C)C)C2=CC=C(N)C=C2",
        "Molecular Formula": "C<sub>11</sub>H<sub>13</sub>N<sub>3</sub>O<sub>3</sub>S",
        "Molecular Mass": "267.30",
        "Melting Point": "193-195.5 °C"
    }
}