{
    "cas_no": "3415-09-6",
    "key_name": "Adenosine-5′-carboxylic acid",
    "cn_name": null,
    "alternate_name": "β-<span class=\"text-smallcaps\">D</span>-Ribofuranuronic acid, 1-(6-amino-9<em>H</em>-purin-9-yl)-1-deoxy-;Ribofuranuronic acid, 1-(6-amino-9<em>H</em>-purin-9-yl)-1-deoxy-, β-<span class=\"text-smallcaps\">D</span>-;1-(6-Amino-9<em>H</em>-purin-9-yl)-1-deoxy-β-<span class=\"text-smallcaps\">D</span>-ribofuranuronic acid;Adenosine-5′-carboxylic acid;Adenine ribofuranosyluronic acid;5′-Carboxyadenosine;Adenosine 5′-uronic acid;Adenine ribofuranuronic acid;1-(9-Adenyl)-β-<span class=\"text-smallcaps\">D</span>-ribofuranuronic acid;NSC 137784",
    "duplicated_cas_no": "",
    "SMILES": "O[C@H]1[C@H](N2C=3C(N=C2)=C(N)N=CN3)O[C@H](C(O)=O)[C@H]1O",
    "meta_data": {
        "InChI": "InChI=1S/C10H11N5O5/c11-7-3-8(13-1-12-7)15(2-14-3)9-5(17)4(16)6(20-9)10(18)19/h1-2,4-6,9,16-17H,(H,18,19)(H2,11,12,13)/t4-,5+,6-,9+/m0/s1",
        "InChIKey": null,
        "Canonical SMILES": "O=C(O)C1OC(N2C=NC=3C(=NC=NC32)N)C(O)C1O",
        "Molecular Formula": "C<sub>10</sub>H<sub>11</sub>N<sub>5</sub>O<sub>5</sub>",
        "Molecular Mass": "281.22",
        "Melting Point": "198-200 °C"
    }
}