{
    "cas_no": "326-59-0",
    "key_name": "1,3-Benzodioxole-5-acetic acid, methyl ester",
    "cn_name": null,
    "alternate_name": "1,3-Benzodioxole-5-acetic acid, methyl ester;Acetic acid, [3,4-(methylenedioxy)phenyl]-, methyl ester;Methyl (3,4-methylenedioxyphenyl)acetate;Methyl 1,3-benzodioxole-5-acetate;Methyl 4,5-(methylenedioxy)phenylacetate;NSC 105308;Methyl (1,3-benzodioxol-5-yl)acetate",
    "duplicated_cas_no": "",
    "SMILES": "C(C(OC)=O)C=1C=C2C(=CC1)OCO2",
    "meta_data": {
        "InChI": "InChI=1S/C10H10O4/c1-12-10(11)5-7-2-3-8-9(4-7)14-6-13-8/h2-4H,5-6H2,1H3",
        "InChIKey": null,
        "Canonical SMILES": "O=C(OC)CC1=CC=C2OCOC2=C1",
        "Molecular Formula": "C<sub>10</sub>H<sub>10</sub>O<sub>4</sub>",
        "Molecular Mass": "194.18",
        "Boiling Point": "153-155 °C @ Press: 10 Torr",
        "Density": "1.246 g/cm³ @ Temp: 20 °C"
    }
}