{
    "cas_no": "90-33-5",
    "key_name": "4-Methylumbelliferone",
    "cn_name": "4-甲基伞形酮;7-羟基-4-甲基香豆素;羟甲香豆素;",
    "alternate_name": "2<em>H</em>-1-Benzopyran-2-one, 7-hydroxy-4-methyl-;Coumarin, 7-hydroxy-4-methyl-;Umbelliferone, 4-methyl-;7-Hydroxy-4-methyl-2<em>H</em>-1-benzopyran-2-one;7-Hydroxy-4-methylcoumarin;Hymecromone;LM 94;4-Methyl-7-hydroxycoumarin;β-Methylumbelliferone;4-Methylumbelliferone;7-Hydroxy-4-methyl-2-oxo-3-chromene;Imecromone;Cantabiline;Bilcolic;Bilicante;Cantabilin;Eurogale;Medilla;Omega 127;Mendiaxon;Pilot 447;Coumarin 4;Cholestil;4-MU;Coumarin 456;7-Hydroxy-4-methyl-2-chromenone;Cholonerton;Cholspasmin;Himecol;Cumarote C;Biliton H;NSC 19026;NSC 9408;7-Hydroxy-4-methyl-2<em>H</em>-chromen-2-one;7-Hydroxy-4-methyl-2<em>H</em>-chomen-2-one;7-Hydroxyl-4-methylcoumarine;7-Hydroxy-4-methylbenzopyran-2-one;Odeston;7-Hydroxy-4-methyl-2<em>H</em>-chromen-2-on;4-Methyl-2-oxo-2<em>H</em>-chromen-7-ol",
    "duplicated_cas_no": "56275-29-7",
    "SMILES": "CC=1C=2C(OC(=O)C1)=CC(O)=CC2",
    "meta_data": {
        "InChI": "InChI=1S/C10H8O3/c1-6-4-10(12)13-9-5-7(11)2-3-8(6)9/h2-5,11H,1H3",
        "InChIKey": null,
        "Canonical SMILES": "O=C1OC=2C=C(O)C=CC2C(=C1)C",
        "Molecular Formula": "C<sub>10</sub>H<sub>8</sub>O<sub>3</sub>",
        "Molecular Mass": "176.17",
        "Melting Point": "195.5 °C"
    }
}