{
    "cas_no": "7758-05-6",
    "key_name": "Potassium iodate",
    "cn_name": "碘酸钾;",
    "alternate_name": "Iodic acid (HIO<sub>3</sub>), potassium salt (1:1);Iodic acid (HIO<sub>3</sub>), potassium salt;Potassium iodate;Potassium iodine oxide (KIO<sub>3</sub>)",
    "duplicated_cas_no": "2893-83-6;29183-64-0",
    "SMILES": "I(=O)(=O)O.[K]",
    "meta_data": {
        "InChI": "InChI=1S/HIO3.K/c2-1(3)4;/h(H,2,3,4);",
        "InChIKey": null,
        "Canonical SMILES": "[K].O=I(=O)O",
        "Molecular Formula": "HIO<sub>3</sub>.K",
        "Molecular Mass": "",
        "Melting Point": "560 °C",
        "Density": "3.98 g/cm³"
    }
}