{
    "cas_no": "52089-55-1",
    "key_name": "Ethyl 2-hydroxyhexanoate",
    "cn_name": null,
    "alternate_name": "Hexanoic acid, 2-hydroxy-, ethyl ester;Ethyl α-hydroxycaproate;Ethyl 2-hydroxycaproate;Ethyl 2-hydroxyhexanoate;(±)-Ethyl 2-hydroxyhexanoate;2-Hydroxyhexanoic acid ethyl ester;Ethyl <span class=\"text-smallcaps\">D</smallcap><smallcap>L</span>-2-hydroxycaproate",
    "duplicated_cas_no": "124439-28-7",
    "SMILES": "C(C(OCC)=O)(CCCC)O",
    "meta_data": {
        "InChI": "InChI=1S/C8H16O3/c1-3-5-6-7(9)8(10)11-4-2/h7,9H,3-6H2,1-2H3",
        "InChIKey": null,
        "Canonical SMILES": "O=C(OCC)C(O)CCCC",
        "Molecular Formula": "C<sub>8</sub>H<sub>16</sub>O<sub>3</sub>",
        "Molecular Mass": "160.21",
        "Boiling Point": "180-185 °C @ Press: 760 Torr",
        "Density": "0.9659 g/cm³ @ Temp: 23 °C"
    }
}