{
    "cas_no": "85-48-3",
    "key_name": "8-Quinolinesulfonic acid",
    "cn_name": "喹啉-8-磺酸;8-喹啉磺酸;",
    "alternate_name": "8-Quinolinesulfonic acid;NSC 10433;NSC 28840;8-Sulfoquinoline",
    "duplicated_cas_no": "",
    "SMILES": "S(=O)(=O)(O)C=1C2=C(C=CC1)C=CC=N2",
    "meta_data": {
        "InChI": "InChI=1S/C9H7NO3S/c11-14(12,13)8-5-1-3-7-4-2-6-10-9(7)8/h1-6H,(H,11,12,13)",
        "InChIKey": null,
        "Canonical SMILES": "O=S(=O)(O)C1=CC=CC2=CC=CN=C21",
        "Molecular Formula": "C<sub>9</sub>H<sub>7</sub>NO<sub>3</sub>S",
        "Molecular Mass": "209.22",
        "Melting Point": "312 °C",
        "Density": "1.62 g/cm³"
    }
}