{
    "cas_no": "480-37-5",
    "key_name": "(-)-Pinostrobin",
    "cn_name": "球松素;乔松酮;基黄烷酮;5-羟基-7-甲氧基-2-苯基色满-4-酮;",
    "alternate_name": "4<em>H</em>-1-Benzopyran-4-one, 2,3-dihydro-5-hydroxy-7-methoxy-2-phenyl-, (2<em>S</em>)-;Flavanone, 5-hydroxy-7-methoxy-;Pinostrobin;4<em>H</em>-1-Benzopyran-4-one, 2,3-dihydro-5-hydroxy-7-methoxy-2-phenyl-, (<em>S</em>)-;(2<em>S</em>)-2,3-Dihydro-5-hydroxy-7-methoxy-2-phenyl-4<em>H</em>-1-benzopyran-4-one;Dihydrotectochrysin;5-Hydroxy-7-methoxyflavanone;(-)-Pinostrobin;Pinocembrin 7-methyl ether;7-Methylpinocembrin;Pinostrombin;(-)-2<em>S</em>-Pinocembrin;(2<em>S</em>)-Pinostrobin;(2S)-5-Hydroxy-7-methoxy-2-phenyl-2,3-dihydrochromen-4-one",
    "duplicated_cas_no": "29424-95-1",
    "SMILES": "O=C1C=2C(O[C@@H](C1)C3=CC=CC=C3)=CC(OC)=CC2O",
    "meta_data": {
        "InChI": "InChI=1S/C16H14O4/c1-19-11-7-12(17)16-13(18)9-14(20-15(16)8-11)10-5-3-2-4-6-10/h2-8,14,17H,9H2,1H3/t14-/m0/s1",
        "InChIKey": null,
        "Canonical SMILES": "O=C1C=2C(O)=CC(OC)=CC2OC(C=3C=CC=CC3)C1",
        "Molecular Formula": "C<sub>16</sub>H<sub>14</sub>O<sub>4</sub>",
        "Molecular Mass": "270.28",
        "Melting Point": "110-111 °C"
    }
}