{
    "cas_no": "934240-30-9",
    "key_name": "(2<em>S</em>,5<em>R</em>)-5-[4-[(2-Fluorophenyl)methoxy]phenyl]-2-pyrrolidinecarboxamide",
    "cn_name": null,
    "alternate_name": "2-Pyrrolidinecarboxamide, 5-[4-[(2-fluorophenyl)methoxy]phenyl]-, (2<em>S</em>,5<em>R</em>)-;(2<em>S</em>,5<em>R</em>)-5-[4-[(2-Fluorophenyl)methoxy]phenyl]-2-pyrrolidinecarboxamide;CNV 1014802;Raxatrigine;Vixotrigine;(5<em>R</em>)-5-(4-[[(2-Fluorophenyl)methyl]oxy]phenyl)-<span class=\"text-smallcaps\">L</span>-prolinamide;BIIB 074;GSK 1014802;(2S,5R)-5-(4-((2-Fluorobenzyl)oxy)phenyl)pyrrolidine-2-carboxamide",
    "duplicated_cas_no": "",
    "SMILES": "C(N)(=O)[C@H]1N[C@H](CC1)C2=CC=C(OCC3=C(F)C=CC=C3)C=C2",
    "meta_data": {
        "InChI": "InChI=1S/C18H19FN2O2/c19-15-4-2-1-3-13(15)11-23-14-7-5-12(6-8-14)16-9-10-17(21-16)18(20)22/h1-8,16-17,21H,9-11H2,(H2,20,22)/t16-,17+/m1/s1",
        "InChIKey": null,
        "Canonical SMILES": "O=C(N)C1NC(C2=CC=C(OCC=3C=CC=CC3F)C=C2)CC1",
        "Molecular Formula": "C<sub>18</sub>H<sub>19</sub>FN<sub>2</sub>O<sub>2</sub>",
        "Molecular Mass": "314.35",
        "Melting Point": "119.5 °C"
    }
}