{
    "cas_no": "91421-42-0",
    "key_name": "9-Nitrocamptothecin",
    "cn_name": "鲁比特康;(4S)-4-乙基-4-羟基-10-硝基-1H-吡喃并[3\",4\":6,7]氮茚并[1,2-b]喹啉-3,14[4H,12H]-二酮;",
    "alternate_name": "1<em>H</em>-Pyrano[3′,4′:6,7]indolizino[1,2-<em>b</em>]quinoline-3,14(4<em>H</em>,12<em>H</em>)-dione, 4-ethyl-4-hydroxy-10-nitro-, (4<em>S</em>)-;1<em>H</em>-Pyrano[3′,4′:6,7]indolizino[1,2-<em>b</em>]quinoline-3,14(4<em>H</em>,12<em>H</em>)-dione, 4-ethyl-4-hydroxy-10-nitro-, (<em>S</em>)-;(4<em>S</em>)-4-Ethyl-4-hydroxy-10-nitro-1<em>H</em>-pyrano[3′,4′:6,7]indolizino[1,2-<em>b</em>]quinoline-3,14(4<em>H</em>,12<em>H</em>)-dione;9-Nitrocamptothecin;9-Nitro-20(<em>S</em>)-camptothecin;RFS 2000;Rubitecan;Orathecin",
    "duplicated_cas_no": "2050741-77-8",
    "SMILES": "O=C1N2C(C=3C(C2)=CC=4C(N3)=CC=CC4N(=O)=O)=CC5=C1COC(=O)[C@@]5(CC)O",
    "meta_data": {
        "InChI": "InChI=1S/C20H15N3O6/c1-2-20(26)13-7-16-17-10(8-22(16)18(24)12(13)9-29-19(20)25)6-11-14(21-17)4-3-5-15(11)23(27)28/h3-7,26H,2,8-9H2,1H3/t20-/m0/s1",
        "InChIKey": null,
        "Canonical SMILES": "O=C1OCC=2C(=O)N3C(=CC2C1(O)CC)C=4N=C5C=CC=C(C5=CC4C3)N(=O)=O",
        "Molecular Formula": "C<sub>20</sub>H<sub>15</sub>N<sub>3</sub>O<sub>6</sub>",
        "Molecular Mass": "393.35",
        "Melting Point": "182-186 °C"
    }
}