{
    "cas_no": "536759-91-8",
    "key_name": "Ethyl 4,5,6,7-tetrahydro-1-(4-methoxyphenyl)-6-(4-nitrophenyl)-7-oxo-1<em>H</em>-pyrazolo[3,4-<em>c</em>]pyridine-3-carboxylate",
    "cn_name": null,
    "alternate_name": "1<em>H</em>-Pyrazolo[3,4-<em>c</em>]pyridine-3-carboxylic acid, 4,5,6,7-tetrahydro-1-(4-methoxyphenyl)-6-(4-nitrophenyl)-7-oxo-, ethyl ester;Ethyl 4,5,6,7-tetrahydro-1-(4-methoxyphenyl)-6-(4-nitrophenyl)-7-oxo-1<em>H</em>-pyrazolo[3,4-<em>c</em>]pyridine-3-carboxylate",
    "duplicated_cas_no": "",
    "SMILES": "O=C1C=2N(N=C(C(OCC)=O)C2CCN1C3=CC=C(N(=O)=O)C=C3)C4=CC=C(OC)C=C4",
    "meta_data": {
        "InChI": "InChI=1S/C22H20N4O6/c1-3-32-22(28)19-18-12-13-24(14-4-6-16(7-5-14)26(29)30)21(27)20(18)25(23-19)15-8-10-17(31-2)11-9-15/h4-11H,3,12-13H2,1-2H3",
        "InChIKey": null,
        "Canonical SMILES": "O=C(OCC)C1=NN(C2=CC=C(OC)C=C2)C=3C(=O)N(C4=CC=C(C=C4)N(=O)=O)CCC13",
        "Molecular Formula": "C<sub>22</sub>H<sub>20</sub>N<sub>4</sub>O<sub>6</sub>",
        "Molecular Mass": "436.42",
        "Melting Point": "159.6-161.3 °C"
    }
}