{
    "cas_no": "23949-66-8",
    "key_name": "VSU",
    "cn_name": "紫外线吸收剂VSU;N-(2-乙氧基苯基)-N\"-(4-乙基苯基)-乙二酰胺;",
    "alternate_name": "Ethanediamide, <em>N</em><sup>1</sup>-(2-ethoxyphenyl)-<em>N</em><sup>2</sup>-(2-ethylphenyl)-;Oxanilide, 2′-ethoxy-2′′-ethyl-;Ethanediamide, <em>N</em>-(2-ethoxyphenyl)-<em>N</em>′-(2-ethylphenyl)-;<em>N</em><sup>1</sup>-(2-Ethoxyphenyl)-<em>N</em><sup>2</sup>-(2-ethylphenyl)ethanediamide;Sanduvor VSU;2′-Ethoxy-2′′-ethyloxanilide;Tinuvin 312;2-Ethoxy-2′-ethyloxalic acid bisanilide;2-Ethoxy-2′-ethyloxanilide;2-Ethyl-2′-ethoxyoxalanilide;Hostavin VSU;VSU;UV 312;Songsorb 3120;Revonox 420;<em>N</em>′-(2-Ethoxyphenyl)-<em>N</em>-(2-ethylphenyl)oxamide;Sabostab UV 312;Chiguard 1033;Hostavin 3206LIQ",
    "duplicated_cas_no": "54650-40-7",
    "SMILES": "N(C(C(NC1=C(CC)C=CC=C1)=O)=O)C2=C(OCC)C=CC=C2",
    "meta_data": {
        "InChI": "InChI=1S/C18H20N2O3/c1-3-13-9-5-6-10-14(13)19-17(21)18(22)20-15-11-7-8-12-16(15)23-4-2/h5-12H,3-4H2,1-2H3,(H,19,21)(H,20,22)",
        "InChIKey": null,
        "Canonical SMILES": "O=C(NC=1C=CC=CC1OCC)C(=O)NC=2C=CC=CC2CC",
        "Molecular Formula": "C<sub>18</sub>H<sub>20</sub>N<sub>2</sub>O<sub>3</sub>",
        "Molecular Mass": "312.36",
        "Boiling Point": "&gt;400 °C"
    }
}