{
    "cas_no": "2050-08-0",
    "key_name": "Amyl salicylate",
    "cn_name": "水杨酸戊酯;",
    "alternate_name": "Benzoic acid, 2-hydroxy-, pentyl ester;Salicylic acid, pentyl ester;Salicylic acid, amyl ester;Amyl salicylate;Pentyl salicylate;NSC 403668;NSC 44877;NSC 46125;2-Hydroxybenzoic acid pentyl ester;Pentyl 2-hydroxybenzoate",
    "duplicated_cas_no": "",
    "SMILES": "C(OCCCCC)(=O)C1=C(O)C=CC=C1",
    "meta_data": {
        "InChI": "InChI=1S/C12H16O3/c1-2-3-6-9-15-12(14)10-7-4-5-8-11(10)13/h4-5,7-8,13H,2-3,6,9H2,1H3",
        "InChIKey": null,
        "Canonical SMILES": "O=C(OCCCCC)C=1C=CC=CC1O",
        "Molecular Formula": "C<sub>12</sub>H<sub>16</sub>O<sub>3</sub>",
        "Molecular Mass": "208.25",
        "Boiling Point": "270 °C",
        "Density": "1.0552 g/cm³ @ Temp: 27 °C"
    }
}