{
    "cas_no": "873-74-5",
    "key_name": "4-Aminobenzonitrile",
    "cn_name": "对氨基苯腈;",
    "alternate_name": "Benzonitrile, 4-amino-;Benzonitrile, <em>p</em>-amino-;4-Aminobenzonitrile;4-Cyanoaniline;1-Amino-4-cyanobenzene;<em>p</em>-Aminobenzonitrile;<em>p</em>-Cyanoaniline;4-Cyanobenzenamine;4-Aminobenzenenitrile;4-Cyanophenylamine;NSC 7625;4-Cyanobenzeneamine;<em>p</em>-Cyanophenylamine;4-Aminophenylnitrile",
    "duplicated_cas_no": "",
    "SMILES": "C(#N)C1=CC=C(N)C=C1",
    "meta_data": {
        "InChI": "InChI=1S/C7H6N2/c8-5-6-1-3-7(9)4-2-6/h1-4H,9H2",
        "InChIKey": null,
        "Canonical SMILES": "N#CC1=CC=C(N)C=C1",
        "Molecular Formula": "C<sub>7</sub>H<sub>6</sub>N<sub>2</sub>",
        "Molecular Mass": "118.14",
        "Boiling Point": "167 °C @ Press: 1.1 Torr",
        "Melting Point": "83-85 °C"
    }
}