{
    "cas_no": "13910-48-0",
    "key_name": "<em>N</em>-Benzyl-1,3-propanediamine",
    "cn_name": "3-苄胺基丙胺;",
    "alternate_name": "1,3-Propanediamine, <em>N</em><sup>1</sup>-(phenylmethyl)-;1,3-Propanediamine, <em>N</em>-benzyl-;1,3-Propanediamine, <em>N</em>-(phenylmethyl)-;Benzylamine, <em>N</em>-(3-aminopropyl)-;<em>N</em><sup>1</sup>-(Phenylmethyl)-1,3-propanediamine;1-Benzylamino-3-aminopropane;<em>N</em>-Benzylpropylenediamine;<em>N</em>-(Phenylmethyl)-1,3-propanediamine;<em>N</em>-Benzyl-1,3-diaminopropane;<em>N</em>-Benzyl-1,3-propanediamine;<em>N</em>-Benzyl-1,3-propylenediamine;3-(Benzylamino)propylamine;<em>N</em>-Benzyltrimethylenediamine;3-(Benzylamino)propanamine;<em>N</em>-(3-Aminopropyl)benzylamine;(3-Aminopropyl)(benzyl)amine",
    "duplicated_cas_no": "",
    "SMILES": "C(NCCCN)C1=CC=CC=C1",
    "meta_data": {
        "InChI": "InChI=1S/C10H16N2/c11-7-4-8-12-9-10-5-2-1-3-6-10/h1-3,5-6,12H,4,7-9,11H2",
        "InChIKey": null,
        "Canonical SMILES": "NCCCNCC=1C=CC=CC1",
        "Molecular Formula": "C<sub>10</sub>H<sub>16</sub>N<sub>2</sub>",
        "Molecular Mass": "164.25",
        "Boiling Point": "98-102 °C @ Press: 1 Torr"
    }
}