{
    "cas_no": "374063-92-0",
    "key_name": "5-Bromo-2(1<em>H</em>)-pyrazinone",
    "cn_name": "2-羟基-5-溴吡嗪;",
    "alternate_name": "2(1<em>H</em>)-Pyrazinone, 5-bromo-;5-Bromo-2(1<em>H</em>)-pyrazinone;5-Bromopyrazin-2-ol;5-Bromopyrazin-2(1<em>H</em>)-one;2-Bromo-5-hydroxypyrazine",
    "duplicated_cas_no": "",
    "SMILES": "BrC1=CNC(=O)C=N1",
    "meta_data": {
        "InChI": "InChI=1S/C4H3BrN2O/c5-3-1-7-4(8)2-6-3/h1-2H,(H,7,8)",
        "InChIKey": null,
        "Canonical SMILES": "O=C1C=NC(Br)=CN1",
        "Molecular Formula": "C<sub>4</sub>H<sub>3</sub>BrN<sub>2</sub>O",
        "Molecular Mass": "174.98",
        "Melting Point": "115-116 °C"
    }
}