{
    "cas_no": "3430-18-0",
    "key_name": "2,5-Dibromo-3-methylpyridine",
    "cn_name": "2,5-二溴-3-甲基吡啶;",
    "alternate_name": "Pyridine, 2,5-dibromo-3-methyl-;3-Picoline, 2,5-dibromo-;2,5-Dibromo-3-methylpyridine;2,5-Dibromo-3-picoline",
    "duplicated_cas_no": "",
    "SMILES": "CC1=C(Br)N=CC(Br)=C1",
    "meta_data": {
        "InChI": "InChI=1S/C6H5Br2N/c1-4-2-5(7)3-9-6(4)8/h2-3H,1H3",
        "InChIKey": null,
        "Canonical SMILES": "BrC1=NC=C(Br)C=C1C",
        "Molecular Formula": "C<sub>6</sub>H<sub>5</sub>Br<sub>2</sub>N",
        "Molecular Mass": "250.92",
        "Melting Point": "41-42 °C"
    }
}