{
    "cas_no": "2615-11-4",
    "key_name": "1,1′-(Oxydi-4,1-phenylene)bis[ethanone]",
    "cn_name": null,
    "alternate_name": "Ethanone, 1,1′-(oxydi-4,1-phenylene)bis-;Acetophenone, 4′,4′′′-oxydi-;1,1′-(Oxydi-4,1-phenylene)bis[ethanone];4,4′-Diacetyldiphenyl oxide;<em>p</em>,<em>p</em>′-Diacetyldiphenyl ether;Bis(<em>p</em>-acetylphenyl) ether;Bis(4-acetylphenyl) ether;4,4′-Diacetyldiphenyl ether;4,4′-Oxydiacetophenone;4,4′-Oxybis(acetophenone);NSC 214;1-[4-(4-Acetylphenoxy)phenyl]ethanone;1-[4-(4-Acetylphenoxy)phenyl]ethan-1-one",
    "duplicated_cas_no": "",
    "SMILES": "O(C1=CC=C(C(C)=O)C=C1)C2=CC=C(C(C)=O)C=C2",
    "meta_data": {
        "InChI": "InChI=1S/C16H14O3/c1-11(17)13-3-7-15(8-4-13)19-16-9-5-14(6-10-16)12(2)18/h3-10H,1-2H3",
        "InChIKey": null,
        "Canonical SMILES": "O=C(C1=CC=C(OC2=CC=C(C=C2)C(=O)C)C=C1)C",
        "Molecular Formula": "C<sub>16</sub>H<sub>14</sub>O<sub>3</sub>",
        "Molecular Mass": "254.28",
        "Boiling Point": "213-217 °C @ Press: 0.3-0.5 Torr",
        "Melting Point": "100-101 °C"
    }
}