{
    "cas_no": "4830-93-7",
    "key_name": "1-Chloro-4-phenylbutane",
    "cn_name": "1-氯-4-苯基丁烷;",
    "alternate_name": "Benzene, (4-chlorobutyl)-;(4-Chlorobutyl)benzene;4-Phenylbutyl chloride;4-Phenyl-1-chlorobutane;δ-Chlorobutylbenzene;1-Chloro-4-phenylbutane;1-(4-Chlorobutyl)benzene",
    "duplicated_cas_no": "",
    "SMILES": "C(CCCCl)C1=CC=CC=C1",
    "meta_data": {
        "InChI": "InChI=1S/C10H13Cl/c11-9-5-4-8-10-6-2-1-3-7-10/h1-3,6-7H,4-5,8-9H2",
        "InChIKey": null,
        "Canonical SMILES": "ClCCCCC=1C=CC=CC1",
        "Molecular Formula": "C<sub>10</sub>H<sub>13</sub>Cl",
        "Molecular Mass": "168.66",
        "Boiling Point": "122-123 °C @ Press: 17 Torr",
        "Melting Point": "53 °C",
        "Density": "1.0764 g/cm³ @ Temp: 20 °C"
    }
}