{
    "cas_no": "32507-66-7",
    "key_name": "Isorhapontigenin",
    "cn_name": null,
    "alternate_name": "1,3-Benzenediol, 5-[(1<em>E</em>)-2-(4-hydroxy-3-methoxyphenyl)ethenyl]-;3,4′,5-Stilbenetriol, 3′-methoxy-, (<em>E</em>)-;1,3-Benzenediol, 5-[2-(4-hydroxy-3-methoxyphenyl)ethenyl]-, (<em>E</em>)-;5-[(1<em>E</em>)-2-(4-Hydroxy-3-methoxyphenyl)ethenyl]-1,3-benzenediol;Isorhapontigenin;Isorhapotogenin;Isorhapotigenin;3′-Methoxyresveratrol",
    "duplicated_cas_no": "",
    "SMILES": "C(=C/C1=CC(O)=CC(O)=C1)\\C2=CC(OC)=C(O)C=C2",
    "meta_data": {
        "InChI": "InChI=1S/C15H14O4/c1-19-15-8-10(4-5-14(15)18)2-3-11-6-12(16)9-13(17)7-11/h2-9,16-18H,1H3/b3-2+",
        "InChIKey": null,
        "Canonical SMILES": "OC=1C=C(O)C=C(C=CC2=CC=C(O)C(OC)=C2)C1",
        "Molecular Formula": "C<sub>15</sub>H<sub>14</sub>O<sub>4</sub>",
        "Molecular Mass": "258.27",
        "Melting Point": "182 °C"
    }
}