{
    "cas_no": "23747-45-7",
    "key_name": "<em>S</em>-Methyl 3-methylbutanethioate",
    "cn_name": null,
    "alternate_name": "Butanethioic acid, 3-methyl-, <em>S</em>-methyl ester;Butyric acid, 3-methylthio-, <em>S</em>-methyl ester;<em>S</em>-Methyl 3-methylbutanethioate",
    "duplicated_cas_no": "",
    "SMILES": "C(CC(C)C)(SC)=O",
    "meta_data": {
        "InChI": "InChI=1S/C6H12OS/c1-5(2)4-6(7)8-3/h5H,4H2,1-3H3",
        "InChIKey": null,
        "Canonical SMILES": "O=C(SC)CC(C)C",
        "Molecular Formula": "C<sub>6</sub>H<sub>12</sub>OS",
        "Molecular Mass": "132.22",
        "Boiling Point": "50 °C @ Press: 20 Torr"
    }
}