{
    "cas_no": "479-91-4",
    "key_name": "Casticin",
    "cn_name": "蔓荆子黄素; 5-羟基-2-(3-羟基-4-甲氧基苯基)-3,6,7-三甲氧基苯并吡喃-4-酮;",
    "alternate_name": "4<em>H</em>-1-Benzopyran-4-one, 5-hydroxy-2-(3-hydroxy-4-methoxyphenyl)-3,6,7-trimethoxy-;Flavone, 3′,5-dihydroxy-3,4′,6,7-tetramethoxy-;Casticin;5-Hydroxy-2-(3-hydroxy-4-methoxyphenyl)-3,6,7-trimethoxy-4<em>H</em>-1-benzopyran-4-one;Vitexicarpin;Casticine;5,3′-Dihydroxy-3,6,7,4′-tetramethoxyflavone;3,6,7,4′-Tetra-<em>O</em>-methyl-5,3′-dihydroxyflavone;Quercetagetin 3,6,7,4′-tetramethyl ether;3,6,7,4′-Tetra-<em>O</em>-methylquercetagetin;5,12-Dihydroxy-2,6,7,13-tetramethoxyflavone;Vitexcarpin",
    "duplicated_cas_no": "",
    "SMILES": "O=C1C=2C(OC(=C1OC)C3=CC(O)=C(OC)C=C3)=CC(OC)=C(OC)C2O",
    "meta_data": {
        "InChI": "InChI=1S/C19H18O8/c1-23-11-6-5-9(7-10(11)20)17-19(26-4)16(22)14-12(27-17)8-13(24-2)18(25-3)15(14)21/h5-8,20-21H,1-4H3",
        "InChIKey": null,
        "Canonical SMILES": "O=C1C(OC)=C(OC2=CC(OC)=C(OC)C(O)=C12)C=3C=CC(OC)=C(O)C3",
        "Molecular Formula": "C<sub>19</sub>H<sub>18</sub>O<sub>8</sub>",
        "Molecular Mass": "374.34",
        "Melting Point": "186-187 °C"
    }
}