{
    "cas_no": "821-06-7",
    "key_name": "<em>trans</em>-1,4-Dibromo-2-butene",
    "cn_name": "1,4-二溴-2-丁烯;",
    "alternate_name": "2-Butene, 1,4-dibromo-, (2<em>E</em>)-;2-Butene, 1,4-dibromo-, (<em>E</em>)-;2-Butene, 1,4-dibromo-, <em>trans</em>-;(2<em>E</em>)-1,4-Dibromo-2-butene;<em>trans</em>-1,4-Dibromo-2-butene;1,4-Dibromo-<em>trans</em>-2-butene;1,4-Dibromo-(<em>E</em>)-2-butene;(<em>E</em>)-1,4-Dibromo-2-butene;1,4-Dibromo-2-(<em>E</em>)-butene;(E)-1,4-Dibromo-2-butene;(2E)-1,4-Dibromobut-2-ene",
    "duplicated_cas_no": "",
    "SMILES": "C(=C/CBr)\\CBr",
    "meta_data": {
        "InChI": "InChI=1S/C4H6Br2/c5-3-1-2-4-6/h1-2H,3-4H2/b2-1+",
        "InChIKey": null,
        "Canonical SMILES": "BrCC=CCBr",
        "Molecular Formula": "C<sub>4</sub>H<sub>6</sub>Br<sub>2</sub>",
        "Molecular Mass": "213.90",
        "Boiling Point": "203 °C",
        "Melting Point": "53.4 °C"
    }
}