{
    "cas_no": "60-23-1",
    "key_name": "Cysteamine",
    "cn_name": null,
    "alternate_name": "Ethanethiol, 2-amino-;2-Aminoethanethiol;2-Aminoethyl mercaptan;Becaptan;Cysteamine;Decarboxycysteine;Lambraten;Mercamine;Mercaptamine;Mercaptoethylamine;β-Mercaptoethylamine;2-Mercaptoethylamine;Thioethanolamine;Cysteinamine;Lambratene;β-MEA;β-Aminoethanethiol;Merkamin;Riacon;L 1573;Mercaptamin;Mercamin;β-Aminoethylthiol;2-Mercaptoethanamine;2-Amino-1-ethanethiol;MEA;MEA (mercaptan);WR 347;1-Amino-2-mercaptoethane;NSC 647528;2-Aminoethylthiol;Cystagone;NM 001;Mercaptoethanylamine;2-Mercaptoethaneamine;Dropcys;MeSH ID: D003543",
    "duplicated_cas_no": "139720-70-0;1993420-83-9;2087491-47-0",
    "SMILES": "C(CS)N",
    "meta_data": {
        "InChI": "InChI=1S/C2H7NS/c3-1-2-4/h4H,1-3H2",
        "InChIKey": null,
        "Canonical SMILES": "SCCN",
        "Molecular Formula": "C<sub>2</sub>H<sub>7</sub>NS",
        "Molecular Mass": "77.15",
        "Boiling Point": "130 °C",
        "Melting Point": "99.5 °C"
    }
}