{
    "cas_no": "7695-56-9",
    "key_name": "<em>rel</em>-(β<em>S</em>)-β-Hydroxy-<span class=\"text-smallcaps\">D</span>-phenylalanine",
    "cn_name": null,
    "alternate_name": "<span class=\"text-smallcaps\">D</span>-Phenylalanine, β-hydroxy-, (β<em>S</em>)-<em>rel</em>-;Serine, 3-phenyl-, <em>threo</em>-;Phenylalanine, β-hydroxy-, <em>threo</em>-;<em>rel</em>-(β<em>S</em>)-β-Hydroxy-<span class=\"text-smallcaps\">D</span>-phenylalanine;<em>threo</em>-3-Phenylserine;<span class=\"text-smallcaps\">DL</span>-<em>threo</em>-β-Phenylserine;<em>threo</em>-3-Phenyl-<span class=\"text-smallcaps\">DL</span>-serine;<em>threo</em>-β-Hydroxy-<span class=\"text-smallcaps\">DL</span>-phenylalanine;<em>threo</em>-<span class=\"text-smallcaps\">DL</span>-β-Phenylserine;<span class=\"text-smallcaps\">DL</span>-<em>threo</em>-3-Phenylserine",
    "duplicated_cas_no": "2584-75-0",
    "SMILES": "[C@@H]([C@@H](C(O)=O)N)(O)C1=CC=CC=C1",
    "meta_data": {
        "InChI": "InChI=1/C9H11NO3/c10-7(9(12)13)8(11)6-4-2-1-3-5-6/h1-5,7-8,11H,10H2,(H,12,13)/t7-,8+/s2",
        "InChIKey": null,
        "Canonical SMILES": "O=C(O)C(N)C(O)C=1C=CC=CC1",
        "Molecular Formula": "C<sub>9</sub>H<sub>11</sub>NO<sub>3</sub>",
        "Molecular Mass": "181.19",
        "Melting Point": "230-232 °C (decomp)"
    }
}