{
    "cas_no": "64-04-0",
    "key_name": "Benzeneethanamine",
    "cn_name": "2-苯乙胺;3-氨基乙苯;beta-苯乙胺;",
    "alternate_name": "Benzeneethanamine;Phenethylamine;(β-Aminoethyl)benzene;1-Amino-2-phenylethane;β-Phenylethylamine;β-Phenethylamine;2-Phenylethylamine;2-Phenethylamine;Ethanamine, 2-phenyl-;(2-Aminoethyl)benzene;2-Amino-1-phenylethane;2-Phenyl-1-ethylamine;PEA;<em>N</em>-(2-Phenylethyl)amine;<em>o</em>-PEA;2-Phenylethanamine;NSC 10811;2-Phenylethaneamine;Phenylethylamine;2-Phenylethan-1-amine",
    "duplicated_cas_no": "",
    "SMILES": "C(CN)C1=CC=CC=C1",
    "meta_data": {
        "InChI": "InChI=1S/C8H11N/c9-7-6-8-4-2-1-3-5-8/h1-5H,6-7,9H2",
        "InChIKey": null,
        "Canonical SMILES": "NCCC=1C=CC=CC1",
        "Molecular Formula": "C<sub>8</sub>H<sub>11</sub>N",
        "Molecular Mass": "121.18",
        "Boiling Point": "194.5-195 °C",
        "Melting Point": "-60 °C",
        "Density": "1.108 g/cm³ @ Temp: 13 °C"
    }
}