{
    "cas_no": "349-65-5",
    "key_name": "2-Methoxy-5-(trifluoromethyl)aniline",
    "cn_name": "2-甲氧基-5-三氟甲基苯胺;3-氨基-4-甲氧基三氟甲苯;",
    "alternate_name": "Benzenamine, 2-methoxy-5-(trifluoromethyl)-;<em>o</em>-Anisidine, 5-(trifluoromethyl)-;2-Methoxy-5-(trifluoromethyl)benzenamine;α,α,α-Trifluoro-6-methoxy-<em>m</em>-toluidine;2-Methoxy-5-(trifluoromethyl)aniline;2-Amino-4-(trifluoromethyl)anisole;5-(Trifluoromethyl)-<em>o</em>-anisidine;3-Amino-4-methoxybenzotrifluoride;(2-Methoxy-5-(trifluoromethyl)phenyl)amine;2-Methyloxy-5-trifluoromethylaniline",
    "duplicated_cas_no": "",
    "SMILES": "C(F)(F)(F)C1=CC(N)=C(OC)C=C1",
    "meta_data": {
        "InChI": "InChI=1S/C8H8F3NO/c1-13-7-3-2-5(4-6(7)12)8(9,10)11/h2-4H,12H2,1H3",
        "InChIKey": null,
        "Canonical SMILES": "FC(F)(F)C1=CC=C(OC)C(N)=C1",
        "Molecular Formula": "C<sub>8</sub>H<sub>8</sub>F<sub>3</sub>NO",
        "Molecular Mass": "191.15",
        "Melting Point": "57-58 °C"
    }
}