{
    "cas_no": "76-75-5",
    "key_name": "(±)-Thiopental",
    "cn_name": "(±)-戊硫代巴比妥;",
    "alternate_name": "4,6(1<em>H</em>,5<em>H</em>)-Pyrimidinedione, 5-ethyldihydro-5-(1-methylbutyl)-2-thioxo-;Barbituric acid, 5-ethyl-5-(1-methylbutyl)-2-thio-;5-Ethyldihydro-5-(1-methylbutyl)-2-thioxo-4,6(1<em>H</em>,5<em>H</em>)-pyrimidinedione;Intraval;Penthiobarbital;Thiomebumal;Thiopental;Thiopentone;Thiothal;5-Ethyl-5-(1-methylbutyl)-2-thiobarbituric acid;Thiopentobarbital;2-Thio-5-ethyl-5-<em>sec</em>-pentylbarbituric acid;Thiopentobarbituric acid;Pentothiobarbital;Thiopentobarbitone;Thionembutal;(±)-Thiopental;MeSH ID: D013874",
    "duplicated_cas_no": "59709-53-4",
    "SMILES": "C(CCC)(C)C1(CC)C(=O)NC(=S)NC1=O",
    "meta_data": {
        "InChI": "InChI=1S/C11H18N2O2S/c1-4-6-7(3)11(5-2)8(14)12-10(16)13-9(11)15/h7H,4-6H2,1-3H3,(H2,12,13,14,15,16)",
        "InChIKey": null,
        "Canonical SMILES": "O=C1NC(=S)NC(=O)C1(CC)C(C)CCC",
        "Molecular Formula": "C<sub>11</sub>H<sub>18</sub>N<sub>2</sub>O<sub>2</sub>S",
        "Molecular Mass": "242.34",
        "Melting Point": "158-159 °C"
    }
}