{
    "cas_no": "5589-96-8",
    "key_name": "Bromochloroacetic acid",
    "cn_name": "溴氯代乙酸;",
    "alternate_name": "Acetic acid, 2-bromo-2-chloro-;Acetic acid, bromochloro-;2-Bromo-2-chloroacetic acid;Bromochloroacetic acid;Chlorobromoacetic acid;BCAA",
    "duplicated_cas_no": "",
    "SMILES": "C(C(O)=O)(Br)Cl",
    "meta_data": {
        "InChI": "InChI=1S/C2H2BrClO2/c3-1(4)2(5)6/h1H,(H,5,6)",
        "InChIKey": null,
        "Canonical SMILES": "O=C(O)C(Cl)Br",
        "Molecular Formula": "C<sub>2</sub>H<sub>2</sub>BrClO<sub>2</sub>",
        "Molecular Mass": "173.39",
        "Boiling Point": "215 °C",
        "Melting Point": "31.5 °C"
    }
}