{
    "cas_no": "6960-17-4",
    "key_name": "2,5-Dimethoxy-4-pyrimidinamine",
    "cn_name": null,
    "alternate_name": "4-Pyrimidinamine, 2,5-dimethoxy-;Pyrimidine, 4-amino-2,5-dimethoxy-;2,5-Dimethoxy-4-pyrimidinamine;NSC 69792;2,5-Dimethoxypyrimidin-4-amine;4-Amino-2,5-dimethoxypyrimidine",
    "duplicated_cas_no": "",
    "SMILES": "O(C)C=1N=C(N)C(OC)=CN1",
    "meta_data": {
        "InChI": "InChI=1S/C6H9N3O2/c1-10-4-3-8-6(11-2)9-5(4)7/h3H,1-2H3,(H2,7,8,9)",
        "InChIKey": null,
        "Canonical SMILES": "N=1C=C(OC)C(=NC1OC)N",
        "Molecular Formula": "C<sub>6</sub>H<sub>9</sub>N<sub>3</sub>O<sub>2</sub>",
        "Molecular Mass": "155.15",
        "Melting Point": "180-181 °C"
    }
}