{
    "cas_no": "21499-23-0",
    "key_name": "Phyllodulcin",
    "cn_name": null,
    "alternate_name": "1<em>H</em>-2-Benzopyran-1-one, 3,4-dihydro-8-hydroxy-3-(3-hydroxy-4-methoxyphenyl)-, (3<em>R</em>)-;Isocoumarin, 3,4-dihydro-8-hydroxy-3β-(3-hydroxy-4-methoxyphenyl)-;1<em>H</em>-2-Benzopyran-1-one, 3,4-dihydro-8-hydroxy-3-(3-hydroxy-4-methoxyphenyl)-, (<em>R</em>)-;(3<em>R</em>)-3,4-Dihydro-8-hydroxy-3-(3-hydroxy-4-methoxyphenyl)-1<em>H</em>-2-benzopyran-1-one;Phyllodulcin;8-Hydroxy-3-(3-hydroxy-4-methoxyphenyl)dihydroisocoumarin;<em>d</em>-Phyllodulcin;(+)-Phyllodulcin;(<em>R</em>)-(+)-Phyllodulcin;3<em>R</em>-Phyllodulcin;(3R)-8-Hydroxy-3-(3-hydroxy-4-methoxyphenyl)-3,4-dihydroisochromen-1-one;(3R)-8-Hydroxy-3-(3-hydroxy-4-methoxyphenyl)-3,4-dihydro-1<em>H</em>-isochromen-1-one;Phenylodulcin",
    "duplicated_cas_no": "",
    "SMILES": "O=C1C=2C(C[C@@H](O1)C3=CC(O)=C(OC)C=C3)=CC=CC2O",
    "meta_data": {
        "InChI": "InChI=1S/C16H14O5/c1-20-13-6-5-9(7-12(13)18)14-8-10-3-2-4-11(17)15(10)16(19)21-14/h2-7,14,17-18H,8H2,1H3/t14-/m1/s1",
        "InChIKey": null,
        "Canonical SMILES": "O=C1OC(C2=CC=C(OC)C(O)=C2)CC=3C=CC=C(O)C13",
        "Molecular Formula": "C<sub>16</sub>H<sub>14</sub>O<sub>5</sub>",
        "Molecular Mass": "286.28",
        "Melting Point": "120 °C"
    }
}