{
    "cas_no": "2589-57-3",
    "key_name": "1,1′-Dimethyl 2,2′-(1,2-diazenediyl)bis[2-methylpropanoate]",
    "cn_name": "偶氮二异丁酸二甲酯;紫外吸收剂V601;",
    "alternate_name": "Propanoic acid, 2,2′-(1,2-diazenediyl)bis[2-methyl-, 1,1′-dimethyl ester;Propionic acid, 2,2′-azobis[2-methyl-, dimethyl ester;Propanoic acid, 2,2′-azobis[2-methyl-, dimethyl ester;1,1′-Dimethyl 2,2′-(1,2-diazenediyl)bis[2-methylpropanoate];Dimethyl 2,2′-azobis(isobutyrate);Dimethyl azobis(isobutyrate);2,2′-Azobis(methyl isobutyrate);Dimethyl azodiisobutyrate;Dimethyl 2,2′-azobis(2-methylpropanoate);Dimethyl 2,2′-azodiisobutyrate;Dimethyl α,α′-azo(bisisobutyrate);V 601;Wako 601;Dimethyl 2,2′-azobis(2-methylpropionate);MAIB;AIBMe;V 601HP;Azobis(isobutyric acid) dimethyl ester;Di-Me 2,2′-azobis(2-methylpropionate);2,2′-Azobis(2-methylpropionic acid) dimethyl ester;V 602;Dimethyl azobis(2-methylpropionate)",
    "duplicated_cas_no": "127892-61-9;82139-53-5",
    "SMILES": "C(N=NC(C(OC)=O)(C)C)(C(OC)=O)(C)C",
    "meta_data": {
        "InChI": "InChI=1S/C10H18N2O4/c1-9(2,7(13)15-5)11-12-10(3,4)8(14)16-6/h1-6H3",
        "InChIKey": null,
        "Canonical SMILES": "O=C(OC)C(N=NC(C(=O)OC)(C)C)(C)C",
        "Molecular Formula": "C<sub>10</sub>H<sub>18</sub>N<sub>2</sub>O<sub>4</sub>",
        "Molecular Mass": "230.26",
        "Melting Point": "29-31 °C"
    }
}