{
    "cas_no": "25456-85-3",
    "key_name": "<em>N</em><sup>2</sup>-[(Phenylmethoxy)carbonyl]-<span class=\"text-smallcaps\">L</span>-asparagine 1,1-dimethylethyl ester",
    "cn_name": null,
    "alternate_name": "<span class=\"text-smallcaps\">L</span>-Asparagine, <em>N</em><sup>2</sup>-[(phenylmethoxy)carbonyl]-, 1,1-dimethylethyl ester;Asparagine, <em>N</em><sup>2</sup>-carboxy-, <em>N</em><sup>2</sup>-benzyl <em>tert</em>-butyl ester, <span class=\"text-smallcaps\">L</span>-;<em>N</em><sup>2</sup>-[(Phenylmethoxy)carbonyl]-<span class=\"text-smallcaps\">L</span>-asparagine 1,1-dimethylethyl ester",
    "duplicated_cas_no": "",
    "SMILES": "[C@@H](NC(OCC1=CC=CC=C1)=O)(C(OC(C)(C)C)=O)CC(N)=O",
    "meta_data": {
        "InChI": "InChI=1S/C16H22N2O5/c1-16(2,3)23-14(20)12(9-13(17)19)18-15(21)22-10-11-7-5-4-6-8-11/h4-8,12H,9-10H2,1-3H3,(H2,17,19)(H,18,21)/t12-/m0/s1",
        "InChIKey": null,
        "Canonical SMILES": "O=C(OCC=1C=CC=CC1)NC(C(=O)OC(C)(C)C)CC(=O)N",
        "Molecular Formula": "C<sub>16</sub>H<sub>22</sub>N<sub>2</sub>O<sub>5</sub>",
        "Molecular Mass": "322.36",
        "Melting Point": "105-106 °C"
    }
}