{
    "cas_no": "16635-95-3",
    "key_name": "<em>rel</em>-(1<em>R</em>,2<em>R</em>)-1,2-Diphenyl-1,2-ethanediamine",
    "cn_name": null,
    "alternate_name": "1,2-Ethanediamine, 1,2-diphenyl-, (1<em>R</em>,2<em>R</em>)-<em>rel</em>-;Ethylenediamine, 1,2-diphenyl-, (±)-;1,2-Ethanediamine, 1,2-diphenyl-, (<em>R</em>*,<em>R</em>*)-(±)-;<em>rel</em>-(1<em>R</em>,2<em>R</em>)-1,2-Diphenyl-1,2-ethanediamine;(<em>R</em>*,<em>R</em>*)-(±)-1,2-Diphenylethylenediamine;<em>dl</em>-Stilbenediamine;(±)-Stilbenediamine;(±)-1,2-Diphenyl-1,2-ethanediamine;NSC 167211;<span class=\"text-smallcaps\">D</smallcap><smallcap>L</span>-1,2-Diphenyl-1,2-ethanediamine;<em>rac</em>-1,2-Diphenylethylenediamine;<em>rac</em>-1,2-Diphenylethane-1,2-diamine",
    "duplicated_cas_no": "107133-00-6",
    "SMILES": "[C@H]([C@@H](N)C1=CC=CC=C1)(N)C2=CC=CC=C2",
    "meta_data": {
        "InChI": "InChI=1/C14H16N2/c15-13(11-7-3-1-4-8-11)14(16)12-9-5-2-6-10-12/h1-10,13-14H,15-16H2/t13-,14-/s2",
        "InChIKey": null,
        "Canonical SMILES": "NC(C=1C=CC=CC1)C(N)C=2C=CC=CC2",
        "Molecular Formula": "C<sub>14</sub>H<sub>16</sub>N<sub>2</sub>",
        "Molecular Mass": "212.29",
        "Melting Point": "91-93 °C"
    }
}