{
    "cas_no": "3034-22-8",
    "key_name": "2-Amino-5-bromothiazole",
    "cn_name": "2-氨基-5-溴噻唑;",
    "alternate_name": "2-Thiazolamine, 5-bromo-;Thiazole, 2-amino-5-bromo-;5-Bromo-2-thiazolamine;2-Amino-5-bromothiazole;5-Bromo-2-aminothiazole;(5-Bromothiazol-2-yl)amine;5-Bromothiazol-2-amine;5-Bromo-1,3-thiazol-2-amine",
    "duplicated_cas_no": "1196151-40-2",
    "SMILES": "BrC=1SC(N)=NC1",
    "meta_data": {
        "InChI": "InChI=1S/C3H3BrN2S/c4-2-1-6-3(5)7-2/h1H,(H2,5,6)",
        "InChIKey": null,
        "Canonical SMILES": "BrC=1SC(=NC1)N",
        "Molecular Formula": "C<sub>3</sub>H<sub>3</sub>BrN<sub>2</sub>S",
        "Molecular Mass": "179.04",
        "Melting Point": "94-95 °C"
    }
}