{
    "cas_no": "2835-81-6",
    "key_name": "α-Aminobutyric acid",
    "cn_name": "DL-2-氨基丁酸;2-氨基丁酸;",
    "alternate_name": "Butanoic acid, 2-amino-;Butyric acid, 2-amino-, <span class=\"text-smallcaps\">DL</span>-;Butanoic acid, 2-amino-, (±)-;Butyric acid, α-amino-;Butyric acid, 2-amino-, <em>dl</em>-;2-Aminobutanoic acid;<span class=\"text-smallcaps\">DL</span>-α-Aminobutyric acid;<em>dl</em>-α-Amino-<em>n</em>-butyric acid;<span class=\"text-smallcaps\">DL</span>-2-Aminobutyric acid;<span class=\"text-smallcaps\">DL</span>-2-Amino-<em>n</em>-butyric acid;<span class=\"text-smallcaps\">DL</span>-2-Aminobutanoic acid;<span class=\"text-smallcaps\">DL</span>-α-Aminobutanoic acid;(±)-α-Aminobutyric acid;<span class=\"text-smallcaps\">DL</span>-α-Amino-<em>n</em>-butyric acid;<span class=\"text-smallcaps\">DL</span>-Butyrine;<span class=\"text-smallcaps\">DL</span>-Ethylglycine;AABA;α-Aminobutyric acid;Butyrine;α-Amino-<em>n</em>-butyric acid;2-Aminobutyric acid;2-Amino-<em>n</em>-butyric acid;Homoalanine;(±)-2-Aminobutyric acid;NSC 3251;(±)-2-Aminobutanoic acid;17: PN: US20130338076 SEQID: 185 claimed sequence;α-Aminobutanoic acid;2-Amino-butyric acid;2-Azaniumylbutanoate",
    "duplicated_cas_no": "80-60-4",
    "SMILES": "C(C(O)=O)(CC)N",
    "meta_data": {
        "InChI": "InChI=1S/C4H9NO2/c1-2-3(5)4(6)7/h3H,2,5H2,1H3,(H,6,7)",
        "InChIKey": null,
        "Canonical SMILES": "O=C(O)C(N)CC",
        "Molecular Formula": "C<sub>4</sub>H<sub>9</sub>NO<sub>2</sub>",
        "Molecular Mass": "103.12",
        "Melting Point": "305 °C (decomp)"
    }
}