{
    "cas_no": "18936-17-9",
    "key_name": "2-Methylbutyronitrile",
    "cn_name": "2-甲基丁腈;",
    "alternate_name": "Butanenitrile, 2-methyl-;Butyronitrile, 2-methyl-;Butyronitrile, α-methyl-;2-Methylbutanenitrile;2-Methylbutyronitrile;2-Cyanobutane;α-Methylbutyronitrile;(±)-2-Cyanobutane;<em>sec</em>-Butyl cyanide;NSC 165615",
    "duplicated_cas_no": "137120-34-4",
    "SMILES": "C(CC)(C#N)C",
    "meta_data": {
        "InChI": "InChI=1S/C5H9N/c1-3-5(2)4-6/h5H,3H2,1-2H3",
        "InChIKey": null,
        "Canonical SMILES": "N#CC(C)CC",
        "Molecular Formula": "C<sub>5</sub>H<sub>9</sub>N",
        "Molecular Mass": "83.13",
        "Boiling Point": "125 °C",
        "Melting Point": "116 °C",
        "Density": "0.786 g/cm³ @ Temp: 20 °C"
    }
}