{
    "cas_no": "2537-48-6",
    "key_name": "Diethyl <em>P</em>-(cyanomethyl)phosphonate",
    "cn_name": "氰甲基磷酸二乙酯;二乙基氰甲基磷酸酯;",
    "alternate_name": "Phosphonic acid, <em>P</em>-(cyanomethyl)-, diethyl ester;Phosphonic acid, (cyanomethyl)-, diethyl ester;Cyanomethanephosphonic acid, diethyl ester;Diethyl <em>P</em>-(cyanomethyl)phosphonate;(Diethylphosphono)acetonitrile;(Cyanomethyl)diethoxyphosphine oxide;2-(Diethylphosphonyl)acetonitrile;Diethyl (cyanomethyl)phosphonate;(Diethoxyphosphono)acetonitrile;<em>O</em>,<em>O</em>-Diethyl (cyanomethyl)phosphonate;(Diethoxyphosphinyl)acetonitrile;Diethyl cyanomethanephosphonate;NSC 407826;(Cyanomethyl)phosphonic acid diethyl ester;Diethyl cyanomethylphosphonoacetate;2-Diethoxyphosphorylacetonitrile",
    "duplicated_cas_no": "",
    "SMILES": "P(CC#N)(OCC)(OCC)=O",
    "meta_data": {
        "InChI": "InChI=1S/C6H12NO3P/c1-3-9-11(8,6-5-7)10-4-2/h3-4,6H2,1-2H3",
        "InChIKey": null,
        "Canonical SMILES": "N#CCP(=O)(OCC)OCC",
        "Molecular Formula": "C<sub>6</sub>H<sub>12</sub>NO<sub>3</sub>P",
        "Molecular Mass": "177.14",
        "Boiling Point": "127-131 °C @ Press: 3 Torr",
        "Density": "1.1264 g/cm³ @ Temp: 20 °C"
    }
}