{
    "cas_no": "143-28-2",
    "key_name": "Oleyl alcohol",
    "cn_name": "油醇;(Z)-十八-9-烯醇;顺-9-十八烯醇;",
    "alternate_name": "9-Octadecen-1-ol, (9<em>Z</em>)-;9-Octadecen-1-ol, (<em>Z</em>)-;(9<em>Z</em>)-9-Octadecen-1-ol;Atalco O;Cachalot O 1;Crodacol O;Dermaffine;Loxanol M;Loxanol 95;Ocenol;<em>cis</em>-9-Octadecen-1-ol;Oleol;Oleyl alcohol;Satol;Sipol O;<em>cis</em>-9-Octadecenyl alcohol;Adol 85;Oleic alcohol;Siponol OC;Oleo alcohol;Octadeca-9-<em>cis</em>-en-1-ol;HD-Ocenol 90/95;Adol 320;HD-Ocenol K;<em>cis</em>-Δ<sup>9</sup>-Octadecenol;Unjecol 90N;Unjecol 90NR;9-<em>cis</em>-Octadecenol;(<em>Z</em>)-9-Octadecen-1-ol;Adol 85NF;(Z)-9-Octadecenol;Adol 80;HD-Eutanol;Witcohol 85NF;Novol;Unjecol 70N;Adol 330;HD-Ocenol 92/96;Ocenol 90/95;Unjecol 90BHR;Witcohol 90NF;Vegecol 90B;Rikacol 90BHR;Unjecol 90;Jarcol 95BJ;Jeecol O;Novol J;NJCOL 90;Rikacol 90B;(9<em>Z</em>)-Octadec-9-en-1-ol;90VR;HD Eutanol V-PH;Kollicream OA;Unjecol 50A;Jarcol 85BJ;UJ 9N;HD-Ocenol 90/95V;Agnique FOH 90C;<em>cis</em>-1-Hydroxy-9-octadecene;Novol LQ-(JP);Novol NF;Rofanol 90/95V;Oleyl Alcohol VP;Kalcohl 90BHR;Rikacol 60B;Rikacol 75BJ;Rikacol 110BJ;Oleyl 900;Jarcol 95CG;HD-Ocenol 80/85V",
    "duplicated_cas_no": "8014-60-6;8029-00-3;8038-59-3;84286-21-5",
    "SMILES": "C(=C\\CCCCCCCC)\\CCCCCCCCO",
    "meta_data": {
        "InChI": "InChI=1S/C18H36O/c1-2-3-4-5-6-7-8-9-10-11-12-13-14-15-16-17-18-19/h9-10,19H,2-8,11-18H2,1H3/b10-9-",
        "InChIKey": null,
        "Canonical SMILES": "OCCCCCCCCC=CCCCCCCCC",
        "Molecular Formula": "C<sub>18</sub>H<sub>36</sub>O",
        "Molecular Mass": "268.48",
        "Boiling Point": "333 °C",
        "Melting Point": "13-19 °C",
        "Density": "0.8489 g/cm³ @ Temp: 20 °C"
    }
}