{
    "cas_no": "1655-49-8",
    "key_name": "<em>N</em><sup>2</sup>,<em>N</em><sup>6</sup>-Bis(2,4-dinitrophenyl)-<span class=\"text-smallcaps\">L</span>-lysine",
    "cn_name": "Nα,Nε-双(2,4-二硝基苯)-L-赖氨酸;",
    "alternate_name": "<span class=\"text-smallcaps\">L</span>-Lysine, <em>N</em><sup>2</sup>,<em>N</em><sup>6</sup>-bis(2,4-dinitrophenyl)-;Lysine, <em>N</em><sup>2</sup>,<em>N</em><sup>6</sup>-bis(2,4-dinitrophenyl)-, <span class=\"text-smallcaps\">L</span>-;<em>N</em><sup>2</sup>,<em>N</em><sup>6</sup>-Bis(2,4-dinitrophenyl)-<span class=\"text-smallcaps\">L</span>-lysine;Di-2,4-dinitrophenyl-<span class=\"text-smallcaps\">L</span>-lysine;α,ε-Bis(2,4-dinitrophenyl)lysine;<em>N</em>,<em>N</em>′-(2,4-Dinitrophenyl)-<span class=\"text-smallcaps\">L</span>-lysine;Bis-2,4-dinitrophenyllysine;NSC 89640;ZINC 89469886;ZINC ID: ZINC89469886",
    "duplicated_cas_no": "5183-30-2",
    "SMILES": "N([C@@H](CCCCNC1=C(N(=O)=O)C=C(N(=O)=O)C=C1)C(O)=O)C2=C(N(=O)=O)C=C(N(=O)=O)C=C2",
    "meta_data": {
        "InChI": "InChI=1S/C18H18N6O10/c25-18(26)15(20-14-7-5-12(22(29)30)10-17(14)24(33)34)3-1-2-8-19-13-6-4-11(21(27)28)9-16(13)23(31)32/h4-7,9-10,15,19-20H,1-3,8H2,(H,25,26)/t15-/m0/s1",
        "InChIKey": null,
        "Canonical SMILES": "O=C(O)C(NC1=CC=C(C=C1N(=O)=O)N(=O)=O)CCCCNC2=CC=C(C=C2N(=O)=O)N(=O)=O",
        "Molecular Formula": "C<sub>18</sub>H<sub>18</sub>N<sub>6</sub>O<sub>10</sub>",
        "Molecular Mass": "478.37",
        "Melting Point": "174 °C (decomp)"
    }
}