{
    "cas_no": "58458-14-3",
    "key_name": "2-Amino-3-(trifluoromethyl)benzonitrile",
    "cn_name": null,
    "alternate_name": "Benzonitrile, 2-amino-3-(trifluoromethyl)-;2-Amino-3-(trifluoromethyl)benzonitrile;2-Amino-3-trifluoromethylbenzonitrile",
    "duplicated_cas_no": "",
    "SMILES": "C(F)(F)(F)C1=C(N)C(C#N)=CC=C1",
    "meta_data": {
        "InChI": "InChI=1S/C8H5F3N2/c9-8(10,11)6-3-1-2-5(4-12)7(6)13/h1-3H,13H2",
        "InChIKey": null,
        "Canonical SMILES": "N#CC1=CC=CC(=C1N)C(F)(F)F",
        "Molecular Formula": "C<sub>8</sub>H<sub>5</sub>F<sub>3</sub>N<sub>2</sub>",
        "Molecular Mass": "186.13",
        "Melting Point": "72 °C"
    }
}