{
    "cas_no": "34911-25-6",
    "key_name": "7-Chloro-2,3-dihydro-1<em>H</em>-inden-1-one",
    "cn_name": null,
    "alternate_name": "1<em>H</em>-Inden-1-one, 7-chloro-2,3-dihydro-;7-Chloro-2,3-dihydro-1<em>H</em>-inden-1-one;7-Chloro-1-indanone",
    "duplicated_cas_no": "",
    "SMILES": "ClC1=C2C(=CC=C1)CCC2=O",
    "meta_data": {
        "InChI": "InChI=1S/C9H7ClO/c10-7-3-1-2-6-4-5-8(11)9(6)7/h1-3H,4-5H2",
        "InChIKey": null,
        "Canonical SMILES": "O=C1C=2C(Cl)=CC=CC2CC1",
        "Molecular Formula": "C<sub>9</sub>H<sub>7</sub>ClO",
        "Molecular Mass": "166.60",
        "Melting Point": "98 °C"
    }
}