{
    "cas_no": "1076-59-1",
    "key_name": "3-Phenyl-5(4<em>H</em>)-isoxazolone",
    "cn_name": "3-苯基-5-异噁唑酮;3-苯基-5-异唑酮;",
    "alternate_name": "5(4<em>H</em>)-Isoxazolone, 3-phenyl-;2-Isoxazolin-5-one, 3-phenyl-;3-Phenyl-5(4<em>H</em>)-isoxazolone;3-Phenyl-2-isoxazolin-5-one;3-Phenyl-Δ<sup>2</sup>-5-isoxazolinone;3-Phenyl-5-isoxazolone;4,5-Dihydro-3-phenyl-5-isoxazolone;NSC 33592;NSC 54827;NSC 60969;3-Phenyl-4,5-dihydroisoxazol-5-one;3-Phenyl-4<em>H</em>-1,2-oxazol-5-one;3-Phenyl-4,5-dihydro-1,2-oxazol-5-one",
    "duplicated_cas_no": "",
    "SMILES": "O=C1CC(=NO1)C2=CC=CC=C2",
    "meta_data": {
        "InChI": "InChI=1S/C9H7NO2/c11-9-6-8(10-12-9)7-4-2-1-3-5-7/h1-5H,6H2",
        "InChIKey": null,
        "Canonical SMILES": "O=C1ON=C(C=2C=CC=CC2)C1",
        "Molecular Formula": "C<sub>9</sub>H<sub>7</sub>NO<sub>2</sub>",
        "Molecular Mass": "161.16",
        "Melting Point": "151-152 °C"
    }
}