{
    "cas_no": "14309-92-3",
    "key_name": "<em>N</em>-(4-Nitrophenyl)benzenemethanamine",
    "cn_name": null,
    "alternate_name": "Benzenemethanamine, <em>N</em>-(4-nitrophenyl)-;Benzylamine, <em>N</em>-(<em>p</em>-nitrophenyl)-;<em>N</em>-(4-Nitrophenyl)benzenemethanamine;<em>N</em>-Benzyl-4-nitroaniline;<em>N</em>-Benzyl-<em>p</em>-nitroaniline;<em>p</em>-Nitro-<em>N</em>-benzylaniline;Benzyl(4-nitrophenyl)amine;<em>N</em>-Benzyl-4-nitrobenzenamine;4-Benzylaminonitrobenzene",
    "duplicated_cas_no": "",
    "SMILES": "N(CC1=CC=CC=C1)C2=CC=C(N(=O)=O)C=C2",
    "meta_data": {
        "InChI": "InChI=1S/C13H12N2O2/c16-15(17)13-8-6-12(7-9-13)14-10-11-4-2-1-3-5-11/h1-9,14H,10H2",
        "InChIKey": null,
        "Canonical SMILES": "O=N(=O)C1=CC=C(C=C1)NCC=2C=CC=CC2",
        "Molecular Formula": "C<sub>13</sub>H<sub>12</sub>N<sub>2</sub>O<sub>2</sub>",
        "Molecular Mass": "228.25",
        "Melting Point": "147 °C"
    }
}