{
    "cas_no": "104-38-1",
    "key_name": "Hydroquinone bis(2-hydroxyethyl) ether",
    "cn_name": "对苯二酚二羟乙基醚;氢醌-双(2-羟乙基醚);2-[4-(2-羟乙基)苯氧基]乙醇;HQEE;",
    "alternate_name": "Ethanol, 2,2′-[1,4-phenylenebis(oxy)]bis-;Ethanol, 2,2′-(<em>p</em>-phenylenedioxy)di-;2,2′-[1,4-Phenylenebis(oxy)]bis[ethanol];Hydroquinone bis(2-hydroxyethyl) ether;1,4-Bis(2-hydroxyethoxy)benzene;1,4-Bis(β-hydroxyethoxy)benzene;2,2′-(<em>p</em>-Phenylenedioxy)diethanol;<em>p</em>-Phenylene bis(β-hydroxyethyl ether);2,2′-(Phenylenedioxy)diethanol;Hydroquinone diethylol ether;Hydroquinone bis(β-hydroxyethyl) ether;Bis(β-hydroxyethyl) hydroquinone ether;Vernatzer 30/10;Hydroquinone di(2-hydroxyethyl ether);1,4-(2-Hydroxyethoxy)benzene;Thanecure HQ;HQ 20;NSC 1862;NSC 26611;1,4-Bis(2′-hydroxyethoxy)benzene;Poly-G HQEE;HQ 2;1,4-Di(2-hydroxyethoxy)benzene;<em>p</em>-Di(2-hydroxyethoxy)benzene;Hydroquinone dihydroxyethyl ether;2-[4-(2-Hydroxyethoxy)phenoxy]ethanol;Addolink 30/10;Hydroquinone bis(2-hydroxylethyl) ether;HQEE;1,4-Di(2-hydroxyethyloxy)benzene;1,4-Bis(2-hydroxyethyloxy)benzene;1,4-Di-(β-hydroxyethyl)-hydroquinone;Hardener 30/10;2-[4-(2-Hydroxyethoxy)phenoxy]ethan-1-ol;Vibracure 2101",
    "duplicated_cas_no": "2305770-85-6",
    "SMILES": "O(CCO)C1=CC=C(OCCO)C=C1",
    "meta_data": {
        "InChI": "InChI=1S/C10H14O4/c11-5-7-13-9-1-2-10(4-3-9)14-8-6-12/h1-4,11-12H,5-8H2",
        "InChIKey": null,
        "Canonical SMILES": "OCCOC1=CC=C(OCCO)C=C1",
        "Molecular Formula": "C<sub>10</sub>H<sub>14</sub>O<sub>4</sub>",
        "Molecular Mass": "198.22",
        "Melting Point": "96-97 °C"
    }
}