{
    "cas_no": "1135-32-6",
    "key_name": "1,2-Bis(4-pyridyl)ethylene",
    "cn_name": null,
    "alternate_name": "Pyridine, 4,4′-(1,2-ethenediyl)bis-;Pyridine, 4,4′-vinylenedi-;4,4′-(1,2-Ethenediyl)bis[pyridine];1,2-Bis(4-pyridyl)ethylene;4,4′-Vinylenedipyridine;1,2-Di-4-pyridylethene;4-(4-Pyridylvinyl)pyridine;1,2-Bis(4-pyridyl)ethene;1,2-Di-4-pyridylethylene;NSC 11470;1,2-Di(4-pyridinyl)ethylene",
    "duplicated_cas_no": "",
    "SMILES": "C(=CC=1C=CN=CC1)C=2C=CN=CC2",
    "meta_data": {
        "InChI": "InChI=1S/C12H10N2/c1(11-3-7-13-8-4-11)2-12-5-9-14-10-6-12/h1-10H",
        "InChIKey": null,
        "Canonical SMILES": "N=1C=CC(=CC1)C=CC=2C=CN=CC2",
        "Molecular Formula": "C<sub>12</sub>H<sub>10</sub>N<sub>2</sub>",
        "Molecular Mass": "182.22",
        "Melting Point": "151-152 °C"
    }
}