{
    "cas_no": "5586-73-2",
    "key_name": "3,3-Diphenylpropylamine",
    "cn_name": "3,3-二苯基丙胺;",
    "alternate_name": "Benzenepropanamine, γ-phenyl-;Propylamine, 3,3-diphenyl-;γ-Phenylbenzenepropanamine;Diphenylpropylamine;3,3-Diphenylpropylamine;3,3-Diphenyl-1-propylamine;1-Amino-3,3-diphenylpropane;3,3-Diphenyl-1-propanamine;IEM 2011;NSC 137832;3,3′-Diphenylpropylamine",
    "duplicated_cas_no": "",
    "SMILES": "C(CCN)(C1=CC=CC=C1)C2=CC=CC=C2",
    "meta_data": {
        "InChI": "InChI=1S/C15H17N/c16-12-11-15(13-7-3-1-4-8-13)14-9-5-2-6-10-14/h1-10,15H,11-12,16H2",
        "InChIKey": null,
        "Canonical SMILES": "NCCC(C=1C=CC=CC1)C=2C=CC=CC2",
        "Molecular Formula": "C<sub>15</sub>H<sub>17</sub>N",
        "Molecular Mass": "211.30",
        "Boiling Point": "150 °C @ Press: 2 Torr",
        "Melting Point": "58-60 °C"
    }
}