{
    "cas_no": "2983-38-2",
    "key_name": "Ethyl 2-ethylbutyrate",
    "cn_name": "2-乙基丁酸乙酯;",
    "alternate_name": "Butanoic acid, 2-ethyl-, ethyl ester;Butyric acid, 2-ethyl-, ethyl ester;Butyric acid, α-ethyl-, ethyl ester;Ethyl 2-ethylbutyrate;Ethyl α-ethylbutyrate;Ethyl 2-ethylbutanoate;2-Ethylbutyric acid ethyl ester;2-Ethylbutanoic acid ethyl ester;2-Ethyl-<em>n</em>-butyric acid ethyl ester",
    "duplicated_cas_no": "",
    "SMILES": "C(C(OCC)=O)(CC)CC",
    "meta_data": {
        "InChI": "InChI=1S/C8H16O2/c1-4-7(5-2)8(9)10-6-3/h7H,4-6H2,1-3H3",
        "InChIKey": null,
        "Canonical SMILES": "O=C(OCC)C(CC)CC",
        "Molecular Formula": "C<sub>8</sub>H<sub>16</sub>O<sub>2</sub>",
        "Molecular Mass": "144.21",
        "Boiling Point": "68 °C @ Press: 25 Torr",
        "Density": "0.864 g/cm³ @ Temp: 25 °C"
    }
}