{
    "cas_no": "3481-02-5",
    "key_name": "Benzoylcyclopropane",
    "cn_name": "苯基环丙基甲酮;",
    "alternate_name": "Methanone, cyclopropylphenyl-;Ketone, cyclopropyl phenyl;Cyclopropylphenylmethanone;Cyclopropyl phenyl ketone;Benzoylcyclopropane;Phenyl cyclopropyl ketone;NSC 10743",
    "duplicated_cas_no": "",
    "SMILES": "C(=O)(C1CC1)C2=CC=CC=C2",
    "meta_data": {
        "InChI": "InChI=1S/C10H10O/c11-10(9-6-7-9)8-4-2-1-3-5-8/h1-5,9H,6-7H2",
        "InChIKey": null,
        "Canonical SMILES": "O=C(C=1C=CC=CC1)C2CC2",
        "Molecular Formula": "C<sub>10</sub>H<sub>10</sub>O",
        "Molecular Mass": "146.19",
        "Boiling Point": "239 °C",
        "Melting Point": "-7.9 °C",
        "Density": "1.0453 g/cm³ @ Temp: 26 °C"
    }
}