{
    "cas_no": "53524-27-9",
    "key_name": "2-Amino-4-chloro-5-methylphenol",
    "cn_name": "2-氨基-4-氯-5-甲基苯酚;",
    "alternate_name": "Phenol, 2-amino-4-chloro-5-methyl-;2-Amino-4-chloro-5-methylphenol;2-Hydroxy-5-chloro-4-methylaniline",
    "duplicated_cas_no": "",
    "SMILES": "CC1=C(Cl)C=C(N)C(O)=C1",
    "meta_data": {
        "InChI": "InChI=1S/C7H8ClNO/c1-4-2-7(10)6(9)3-5(4)8/h2-3,10H,9H2,1H3",
        "InChIKey": null,
        "Canonical SMILES": "ClC=1C=C(N)C(O)=CC1C",
        "Molecular Formula": "C<sub>7</sub>H<sub>8</sub>ClNO",
        "Molecular Mass": "157.60",
        "Melting Point": "139-139.5 °C"
    }
}