{
    "cas_no": "2245-43-4",
    "key_name": "1-(4-Bromophenyl)adamantane",
    "cn_name": null,
    "alternate_name": "Tricyclo[3.3.1.1<sup>3,7</sup>]decane, 1-(4-bromophenyl)-;Adamantane, 1-(<em>p</em>-bromophenyl)-;1-(4-Bromophenyl)tricyclo[3.3.1.1<sup>3,7</sup>]decane;1-(4-Bromophenyl)adamantane;1-(<em>p</em>-Bromophenyl)adamantane;4-(Adamant-1-yl)-1-bromobenzene",
    "duplicated_cas_no": "",
    "SMILES": "BrC1=CC=C(C23CC4CC(C2)CC(C3)C4)C=C1",
    "meta_data": {
        "InChI": "InChI=1S/C16H19Br/c17-15-3-1-14(2-4-15)16-8-11-5-12(9-16)7-13(6-11)10-16/h1-4,11-13H,5-10H2",
        "InChIKey": null,
        "Canonical SMILES": "BrC1=CC=C(C=C1)C23CC4CC(CC(C4)C2)C3",
        "Molecular Formula": "C<sub>16</sub>H<sub>19</sub>Br",
        "Molecular Mass": "291.23",
        "Melting Point": "101-102 °C"
    }
}