{
    "cas_no": "470-42-8",
    "key_name": "Marinobufagenin",
    "cn_name": null,
    "alternate_name": "Bufa-20,22-dienolide, 14,15-epoxy-3,5-dihydroxy-, (3β,5β,15β)-;5β-Bufa-20,22-dienolide, 14,15β-epoxy-3β,5-dihydroxy-;14,15-Epoxy-14<em>H</em>-cyclopenta[<em>a</em>]phenanthrene, bufa-20,22-dienolide deriv.;(3β,5β,15β)-14,15-Epoxy-3,5-dihydroxybufa-20,22-dienolide;Marinobufagin;Marinobufagenin;Marinobufogenin;NSC 234205",
    "duplicated_cas_no": "22636-39-1",
    "SMILES": "C[C@]12[C@]3([C@](O3)(C[C@@H]1C=4C=CC(=O)OC4)[H])[C@]5([C@@]([C@]6(C)[C@](O)(CC5)C[C@@H](O)CC6)(CC2)[H])[H]",
    "meta_data": {
        "InChI": "InChI=1S/C24H32O5/c1-21-8-5-15(25)12-23(21,27)10-7-17-16(21)6-9-22(2)18(11-19-24(17,22)29-19)14-3-4-20(26)28-13-14/h3-4,13,15-19,25,27H,5-12H2,1-2H3/t15-,16-,17+,18+,19+,21+,22+,23-,24+/m0/s1",
        "InChIKey": null,
        "Canonical SMILES": "O=C1OC=C(C=C1)C2CC3OC34C5CCC6(O)CC(O)CCC6(C)C5CCC24C",
        "Molecular Formula": "C<sub>24</sub>H<sub>32</sub>O<sub>5</sub>",
        "Molecular Mass": "400.51",
        "Melting Point": "224-225 °C"
    }
}