{
    "cas_no": "603-45-2",
    "key_name": "Aurin",
    "cn_name": "玫红酸;蔷薇酸;",
    "alternate_name": "2,5-Cyclohexadien-1-one, 4-[bis(4-hydroxyphenyl)methylene]-;Aurin;2,5-Cyclohexadien-1-one, 4-[bis(<em>p</em>-hydroxyphenyl)methylene]-;4-[Bis(4-hydroxyphenyl)methylene]-2,5-cyclohexadien-1-one;C.I. 43800;Aurine;Corallin;Corallin Spirit Soluble;4-(<em>p</em>,<em>p</em>′-Dihydroxybenzhydrylidene)-2,5-cyclohexadien-1-one;<em>p</em>-Rosolic acid;Spirit Aurine;Aurin 555;4,4′-Dihydroxyfuchsone;Pararosolic acid;Rosalic acid;NSC 7805;4-[Bis(<em>p</em>-hydroxyphenyl)methylene]-2,5-cyclohexadien-1-one",
    "duplicated_cas_no": "",
    "SMILES": "C(C1=CC=C(O)C=C1)(C2=CC=C(O)C=C2)=C3C=CC(=O)C=C3",
    "meta_data": {
        "InChI": "InChI=1S/C19H14O3/c20-16-7-1-13(2-8-16)19(14-3-9-17(21)10-4-14)15-5-11-18(22)12-6-15/h1-12,20-21H",
        "InChIKey": null,
        "Canonical SMILES": "O=C1C=CC(C=C1)=C(C2=CC=C(O)C=C2)C3=CC=C(O)C=C3",
        "Molecular Formula": "C<sub>19</sub>H<sub>14</sub>O<sub>3</sub>",
        "Molecular Mass": "290.31",
        "Melting Point": "309 °C (decomp)"
    }
}