{
    "cas_no": "110104-37-5",
    "key_name": "<em>N</em>-Acetylacyclovir",
    "cn_name": null,
    "alternate_name": "Acetamide, <em>N</em>-[6,9-dihydro-9-[(2-hydroxyethoxy)methyl]-6-oxo-1<em>H</em>-purin-2-yl]-;<em>N</em>-[6,9-Dihydro-9-[(2-hydroxyethoxy)methyl]-6-oxo-1<em>H</em>-purin-2-yl]acetamide;9-[(2-Hydroxyethoxy)methyl]-<em>N</em><sup>2</sup>-acetylguanine;N<sup>2</sup>-Acetylaciclovir;<em>N</em>-Acetylacyclovir",
    "duplicated_cas_no": "",
    "SMILES": "C(OCCO)N1C2=C(C(=O)N=C(NC(C)=O)N2)N=C1",
    "meta_data": {
        "InChI": "InChI=1S/C10H13N5O4/c1-6(17)12-10-13-8-7(9(18)14-10)11-4-15(8)5-19-3-2-16/h4,16H,2-3,5H2,1H3,(H2,12,13,14,17,18)",
        "InChIKey": null,
        "Canonical SMILES": "O=C1N=C(NC(=O)C)NC2=C1N=CN2COCCO",
        "Molecular Formula": "C<sub>10</sub>H<sub>13</sub>N<sub>5</sub>O<sub>4</sub>",
        "Molecular Mass": "267.24",
        "Melting Point": "217 °C"
    }
}