{
    "cas_no": "2216-52-6",
    "key_name": "(+)-Neomenthol",
    "cn_name": "[1S-(1&alpha;,2&alpha;,5&beta;)]-5-甲基-2-(1-甲基乙基)环己醇;(+)-新孟醇;新薄荷醇;",
    "alternate_name": "Cyclohexanol, 5-methyl-2-(1-methylethyl)-, (1<em>S</em>,2<em>S</em>,5<em>R</em>)-;Menthol, (1<em>R</em>,3<em>S</em>,4<em>S</em>)-(+)-;Cyclohexanol, 5-methyl-2-(1-methylethyl)-, [1<em>S</em>-(1α,2α,5β)]-;(1<em>S</em>,2<em>S</em>,5<em>R</em>)-5-Methyl-2-(1-methylethyl)cyclohexanol;(+)-<em>neo</em>-Menthol;(+)-Neomenthol;(1<em>S</em>,2<em>S</em>,5<em>R</em>)-Neomenthol;<em>d</em>-Neomenthol;(+)-<em>trans</em>-<em>p</em>-Menthan-<em>trans</em>-3-ol",
    "duplicated_cas_no": "",
    "SMILES": "[C@H](C)(C)[C@H]1[C@@H](O)C[C@H](C)CC1",
    "meta_data": {
        "InChI": "InChI=1S/C10H20O/c1-7(2)9-5-4-8(3)6-10(9)11/h7-11H,4-6H2,1-3H3/t8-,9+,10+/m1/s1",
        "InChIKey": null,
        "Canonical SMILES": "OC1CC(C)CCC1C(C)C",
        "Molecular Formula": "C<sub>10</sub>H<sub>20</sub>O",
        "Molecular Mass": "156.27",
        "Boiling Point": "83-84 °C @ Press: 7 Torr",
        "Density": "0.90415 g/cm³ @ Temp: 20 °C"
    }
}