{
    "cas_no": "23210-56-2",
    "key_name": "Ifenprodil",
    "cn_name": "艾芬地尔;2-(4-苄基哌啶基)-1-(4-羟基苯基)丙醇;",
    "alternate_name": "1-Piperidineethanol, α-(4-hydroxyphenyl)-β-methyl-4-(phenylmethyl)-;1-Piperidineethanol, 4-benzyl-α-(<em>p</em>-hydroxyphenyl)-β-methyl-;α-(4-Hydroxyphenyl)-β-methyl-4-(phenylmethyl)-1-piperidineethanol;Ifenprodil;2-(4-Benzylpiperidino)-1-(1-hydroxyphenyl)-1-propanol;1-Methyl-2-hydroxy-2-(4-hydroxyphenyl)ethyl-1-(4-benzylpiperidine);RC 61-91;(±)-Ifenprodil;NP 120;Cerocal",
    "duplicated_cas_no": "925913-11-7",
    "SMILES": "C(C1CCN(C(C(O)C2=CC=C(O)C=C2)C)CC1)C3=CC=CC=C3",
    "meta_data": {
        "InChI": "InChI=1S/C21H27NO2/c1-16(21(24)19-7-9-20(23)10-8-19)22-13-11-18(12-14-22)15-17-5-3-2-4-6-17/h2-10,16,18,21,23-24H,11-15H2,1H3",
        "InChIKey": null,
        "Canonical SMILES": "OC1=CC=C(C=C1)C(O)C(N2CCC(CC=3C=CC=CC3)CC2)C",
        "Molecular Formula": "C<sub>21</sub>H<sub>27</sub>NO<sub>2</sub>",
        "Molecular Mass": "325.44",
        "Melting Point": "114 °C"
    }
}