{
    "cas_no": "625-43-4",
    "key_name": "Methylisobutylamine",
    "cn_name": "N-甲基异丙基胺;",
    "alternate_name": "1-Propanamine, <em>N</em>,2-dimethyl-;Propylamine, <em>N</em>,2-dimethyl-;<em>N</em>,2-Dimethyl-1-propanamine;<em>N</em>-Methylisobutylamine;Isobutylmethylamine;2-Methyl-1-(methylamino)propane;Methylisobutylamine;<em>N</em>-Isobutyl-<em>N</em>-methylamine;Methyl(2-methylpropyl)amine;<em>N</em>-Isobutylmethylamine;<em>N</em>-Methyl-2-methyl-<em>n</em>-propylamine;<em>N</em>-Methyl-2-methylpropan-1-amine;<em>N</em>-Methyl-<em>N</em>-isobutylamine;<em>N</em>-Methyl-2-methylpropylamine;<em>N</em>-Methyl-2-methylpropanamine",
    "duplicated_cas_no": "",
    "SMILES": "C(C(C)C)NC",
    "meta_data": {
        "InChI": "InChI=1S/C5H13N/c1-5(2)4-6-3/h5-6H,4H2,1-3H3",
        "InChIKey": null,
        "Canonical SMILES": "N(C)CC(C)C",
        "Molecular Formula": "C<sub>5</sub>H<sub>13</sub>N",
        "Molecular Mass": "87.16",
        "Boiling Point": "67-70 °C",
        "Density": "0.735 g/cm³ @ Temp: 20 °C"
    }
}