{
    "cas_no": "36238-67-2",
    "key_name": "(3<em>R</em>,8a<em>S</em>)-Hexahydro-3-(2-methylpropyl)pyrrolo[1,2-<em>a</em>]pyrazine-1,4-dione",
    "cn_name": null,
    "alternate_name": "Pyrrolo[1,2-<em>a</em>]pyrazine-1,4-dione, hexahydro-3-(2-methylpropyl)-, (3<em>R</em>,8a<em>S</em>)-;Pyrrolo[1,2-<em>a</em>]pyrazine-1,4-dione, hexahydro-3-(2-methylpropyl)-, (3<em>R</em>-<em>cis</em>)-;(3<em>R</em>,8a<em>S</em>)-Hexahydro-3-(2-methylpropyl)pyrrolo[1,2-<em>a</em>]pyrazine-1,4-dione;Cyclo(<span class=\"text-smallcaps\">L</smallcap>-prolyl-<smallcap>D</span>-leucyl);Cyclo-<span class=\"text-smallcaps\">L</smallcap>-prolyl-<smallcap>D</span>-leucine;Cyclo(<em>S</em>-Pro-R-Leu);Cyclo(<span class=\"text-smallcaps\">L</smallcap>-Pro-<smallcap>D</span>-Leu)",
    "duplicated_cas_no": "",
    "SMILES": "O=C1N2[C@](C(=O)N[C@@H]1CC(C)C)(CCC2)[H]",
    "meta_data": {
        "InChI": "InChI=1S/C11H18N2O2/c1-7(2)6-8-11(15)13-5-3-4-9(13)10(14)12-8/h7-9H,3-6H2,1-2H3,(H,12,14)/t8-,9+/m1/s1",
        "InChIKey": null,
        "Canonical SMILES": "O=C1NC(C(=O)N2CCCC12)CC(C)C",
        "Molecular Formula": "C<sub>11</sub>H<sub>18</sub>N<sub>2</sub>O<sub>2</sub>",
        "Molecular Mass": "210.27",
        "Melting Point": "154-157 °C"
    }
}