{
    "cas_no": "488-41-5",
    "key_name": "Mitobronitol",
    "cn_name": null,
    "alternate_name": "<span class=\"text-smallcaps\">D</span>-Mannitol, 1,6-dibromo-1,6-dideoxy-;Mannitol, 1,6-dibromo-1,6-dideoxy-, <span class=\"text-smallcaps\">D</span>-;1,6-Dibromo-1,6-dideoxy-<span class=\"text-smallcaps\">D</span>-mannitol;DBM;Myelobromol;1,6-Dibromomannitol;1,6-Dibromo-1,6-dideoxymannitol;1,6-Dibromo-<span class=\"text-smallcaps\">D</span>-mannitol;Mitobronitol;1,6-Dideoxy-1,6-dibromo-<span class=\"text-smallcaps\">D</span>-mannitol;Mielobromol;Myebrol;NSC 94110;<span class=\"text-smallcaps\">D</span>-Dibromomannitol;NCI C04762;Dibromannit;Dibromomannitol;NSC 94100;Dibromannitol;R 54;1,6-Dibromo-1,6-dideoxy-<em>d</em>-mannitol;MeSH ID: D008927",
    "duplicated_cas_no": "33375-11-0;478243-88-8",
    "SMILES": "[C@H]([C@@H]([C@@H](CBr)O)O)([C@@H](CBr)O)O",
    "meta_data": {
        "InChI": "InChI=1S/C6H12Br2O4/c7-1-3(9)5(11)6(12)4(10)2-8/h3-6,9-12H,1-2H2/t3-,4-,5-,6-/m1/s1",
        "InChIKey": null,
        "Canonical SMILES": "BrCC(O)C(O)C(O)C(O)CBr",
        "Molecular Formula": "C<sub>6</sub>H<sub>12</sub>Br<sub>2</sub>O<sub>4</sub>",
        "Molecular Mass": "307.97",
        "Melting Point": "176-178 °C",
        "Density": "2.03 g/cm³"
    }
}