{
    "cas_no": "20824-29-7",
    "key_name": "Strictosidine",
    "cn_name": null,
    "alternate_name": "2<em>H</em>-Pyran-5-carboxylic acid, 3-ethenyl-2-(β-<span class=\"text-smallcaps\">D</span>-glucopyranosyloxy)-3,4-dihydro-4-[[(1<em>S</em>)-2,3,4,9-tetrahydro-1<em>H</em>-pyrido[3,4-<em>b</em>]indol-1-yl]methyl]-, methyl ester, (2<em>S</em>,3<em>R</em>,4<em>S</em>)-;Strictosidine;2<em>H</em>-Pyran-5-carboxylic acid, 3-ethenyl-2-(β-<span class=\"text-smallcaps\">D</span>-glucopyranosyloxy)-3,4-dihydro-4-[(2,3,4,9-tetrahydro-1<em>H</em>-pyrido[3,4-<em>b</em>]indol-1-yl)methyl]-, methyl ester, [2<em>S</em>-[2α,3β,4β(<em>R</em>*)]]-;1<em>H</em>-Pyrido[3,4-<em>b</em>]indole, 2<em>H</em>-pyran-5-carboxylic acid deriv.;Isovincoside;3-Isovincoside;Strictosidin;3α(<em>S</em>)-Strictosidine;(-)-Strictosidine",
    "duplicated_cas_no": "19471-34-2;21597-88-6;27459-79-6",
    "SMILES": "C([C@H]1C2=C(C=3C(N2)=CC=CC3)CCN1)[C@H]4[C@@H](C=C)[C@H](O[C@@H]5O[C@H](CO)[C@@H](O)[C@H](O)[C@H]5O)OC=C4C(OC)=O",
    "meta_data": {
        "InChI": "InChI=1S/C27H34N2O9/c1-3-13-16(10-19-21-15(8-9-28-19)14-6-4-5-7-18(14)29-21)17(25(34)35-2)12-36-26(13)38-27-24(33)23(32)22(31)20(11-30)37-27/h3-7,12-13,16,19-20,22-24,26-33H,1,8-11H2,2H3/t13-,16+,19+,20-,22-,23+,24-,26+,27+/m1/s1",
        "InChIKey": null,
        "Canonical SMILES": "O=C(OC)C1=COC(OC2OC(CO)C(O)C(O)C2O)C(C=C)C1CC3NCCC=4C=5C=CC=CC5NC43",
        "Molecular Formula": "C<sub>27</sub>H<sub>34</sub>N<sub>2</sub>O<sub>9</sub>",
        "Molecular Mass": "530.57",
        "Melting Point": "161-165 °C"
    }
}