{
    "cas_no": "24100-18-3",
    "key_name": "2-Bromo-3-methoxypyridine",
    "cn_name": "2-溴-3-甲氧基吡啶;",
    "alternate_name": "Pyridine, 2-bromo-3-methoxy-;2-Bromo-3-methoxypyridine",
    "duplicated_cas_no": "",
    "SMILES": "O(C)C1=C(Br)N=CC=C1",
    "meta_data": {
        "InChI": "InChI=1S/C6H6BrNO/c1-9-5-3-2-4-8-6(5)7/h2-4H,1H3",
        "InChIKey": null,
        "Canonical SMILES": "BrC1=NC=CC=C1OC",
        "Molecular Formula": "C<sub>6</sub>H<sub>6</sub>BrNO",
        "Molecular Mass": "188.02",
        "Melting Point": "40-43 °C"
    }
}