{
    "cas_no": "1562-94-3",
    "key_name": "Diazene, 1,2-bis(4-methoxyphenyl)-, 1-oxide",
    "cn_name": "4,4-偶氮二苯甲醚;4,4’-二甲氧基氧化偶氮苯;液晶PAA;4,4-偶氮二苯甲醚;4，4-氧化偶氮苯甲醚;4,4-二甲氧基;",
    "alternate_name": "Diazene, 1,2-bis(4-methoxyphenyl)-, 1-oxide;Azoxybenzene, 4,4′-dimethoxy-;Diazene, bis(4-methoxyphenyl)-, 1-oxide;Anisole, 4,4′-azoxydi-;<em>p</em>-Azoxyanisole;4,4′-Azoxyanisole;4,4′-Azoxydianisole;<em>p</em>,<em>p</em>′-Azoxyanisole;<em>p</em>-Azoxydianisole;<em>p</em>,<em>p</em>′-Azoxydianisole;4,4′-Dimethoxyazoxybenzene;<em>p</em>,<em>p</em>′-Dimethoxyazoxybenzene;NSC 7959;Bis(4-methoxyphenyl)diazene oxide",
    "duplicated_cas_no": "74123-21-0;93485-76-8;1081826-35-8",
    "SMILES": "N(=NC1=CC=C(OC)C=C1)(=O)C2=CC=C(OC)C=C2",
    "meta_data": {
        "InChI": "InChI=1S/C14H14N2O3/c1-18-13-7-3-11(4-8-13)15-16(17)12-5-9-14(19-2)10-6-12/h3-10H,1-2H3",
        "InChIKey": null,
        "Canonical SMILES": "O=N(=NC1=CC=C(OC)C=C1)C2=CC=C(OC)C=C2",
        "Molecular Formula": "C<sub>14</sub>H<sub>14</sub>N<sub>2</sub>O<sub>3</sub>",
        "Molecular Mass": "258.27",
        "Melting Point": "118-136 °C"
    }
}