{
    "cas_no": "4074-90-2",
    "key_name": "Divinyl adipate",
    "cn_name": "己二酸二己烯酯;",
    "alternate_name": "Hexanedioic acid, 1,6-diethenyl ester;Adipic acid, divinyl ester;Hexanedioic acid, diethenyl ester;Divinyl adipate;Divinyl hexanedioate;Diethenyl adipate;A 1188",
    "duplicated_cas_no": "",
    "SMILES": "C(CCCCC(OC=C)=O)(OC=C)=O",
    "meta_data": {
        "InChI": "InChI=1S/C10H14O4/c1-3-13-9(11)7-5-6-8-10(12)14-4-2/h3-4H,1-2,5-8H2",
        "InChIKey": null,
        "Canonical SMILES": "O=C(OC=C)CCCCC(=O)OC=C",
        "Molecular Formula": "C<sub>10</sub>H<sub>14</sub>O<sub>4</sub>",
        "Molecular Mass": "198.22",
        "Boiling Point": "133 °C @ Press: 15 Torr",
        "Density": "1.0383 g/cm³ @ Temp: 20 °C"
    }
}