{
    "cas_no": "315-14-0",
    "key_name": "1,3,5-Trifluoro-2-nitrobenzene",
    "cn_name": "1,3,5-三氟-2-硝基苯;2,4,6-三氟硝基苯;",
    "alternate_name": "Benzene, 1,3,5-trifluoro-2-nitro-;1,3,5-Trifluoro-2-nitrobenzene;2,4,6-Trifluoronitrobenzene;2,4,6-Trifluoro-1-nitrobenzene;NSC 10247",
    "duplicated_cas_no": "",
    "SMILES": "N(=O)(=O)C1=C(F)C=C(F)C=C1F",
    "meta_data": {
        "InChI": "InChI=1S/C6H2F3NO2/c7-3-1-4(8)6(10(11)12)5(9)2-3/h1-2H",
        "InChIKey": null,
        "Canonical SMILES": "O=N(=O)C=1C(F)=CC(F)=CC1F",
        "Molecular Formula": "C<sub>6</sub>H<sub>2</sub>F<sub>3</sub>NO<sub>2</sub>",
        "Molecular Mass": "177.08",
        "Boiling Point": "183.5 °C",
        "Melting Point": "3.5 °C"
    }
}