{
    "cas_no": "18636-98-1",
    "key_name": "Benzenecarboximidamide, 2-methyl-, hydrochloride (1:1)",
    "cn_name": "2-甲基苯甲脒盐酸盐;2-甲基苄脒盐酸盐;",
    "alternate_name": "Benzenecarboximidamide, 2-methyl-, hydrochloride (1:1);<em>o</em>-Toluamidine, monohydrochloride;Benzenecarboximidamide, 2-methyl-, monohydrochloride;2-Methylbenzamidine hydrochloride;2-Methylbenzimidamide hydrochloride;2-Methylbenzene-1-carboximidamide hydrochloride",
    "duplicated_cas_no": "",
    "SMILES": "C(=N)(N)C1=C(C)C=CC=C1.Cl",
    "meta_data": {
        "InChI": "InChI=1S/C8H10N2.ClH/c1-6-4-2-3-5-7(6)8(9)10;/h2-5H,1H3,(H3,9,10);1H",
        "InChIKey": null,
        "Canonical SMILES": "Cl.N=C(N)C=1C=CC=CC1C",
        "Molecular Formula": "C<sub>8</sub>H<sub>10</sub>N<sub>2</sub>.ClH",
        "Molecular Mass": "",
        "Melting Point": "249-250 °C"
    }
}