{
    "cas_no": "495-41-0",
    "key_name": "1-Phenyl-2-buten-1-one",
    "cn_name": "苯基丙烯酮;1-苯基-2-丁烯-1-酮 ;1-Phenyl-2-buten-1-one;",
    "alternate_name": "2-Buten-1-one, 1-phenyl-;Crotonophenone;1-Phenyl-2-buten-1-one;Phenyl propenyl ketone;Ethylideneacetophenone;Phenyl 1-propenyl ketone;2-Butenophenone;1-Benzoylpropene;1-Propenyl phenyl ketone;NSC 518668",
    "duplicated_cas_no": "",
    "SMILES": "C(C=CC)(=O)C1=CC=CC=C1",
    "meta_data": {
        "InChI": "InChI=1S/C10H10O/c1-2-6-10(11)9-7-4-3-5-8-9/h2-8H,1H3",
        "InChIKey": null,
        "Canonical SMILES": "O=C(C=CC)C=1C=CC=CC1",
        "Molecular Formula": "C<sub>10</sub>H<sub>10</sub>O",
        "Molecular Mass": "146.19",
        "Boiling Point": "135 °C @ Press: 20 Torr",
        "Melting Point": "20.5 °C",
        "Density": "1.0250 g/cm³ @ Temp: 15 °C"
    }
}