{
    "cas_no": "85100-76-1",
    "key_name": "1-Propyl-3-methylimidazolium bromide",
    "cn_name": null,
    "alternate_name": "1<em>H</em>-Imidazolium, 1-methyl-3-propyl-, bromide (1:1);1<em>H</em>-Imidazolium, 1-methyl-3-propyl-, bromide;1-Methyl-3-propyl-1<em>H</em>-imidazolium bromide;3-Methyl-1-propylimidazolium bromide;1-Methyl-3-propylimidazolium bromide;1-Propyl-3-methylimidazolium bromide;1-<em>n</em>-Propyl-3-methylimidazolium bromide",
    "duplicated_cas_no": "",
    "SMILES": "C(CC)[N+]1=CN(C)C=C1.[Br-]",
    "meta_data": {
        "InChI": "InChI=1S/C7H13N2.BrH/c1-3-4-9-6-5-8(2)7-9;/h5-7H,3-4H2,1-2H3;1H/q+1;/p-1",
        "InChIKey": null,
        "Canonical SMILES": "[Br-].C1=C[N+](=CN1C)CCC",
        "Molecular Formula": "C<sub>7</sub>H<sub>13</sub>N<sub>2</sub>.Br",
        "Molecular Mass": "",
        "Melting Point": "40.4 °C",
        "Density": "1.359 x 10⁻³ g/cm³ @ Temp: 25.000 °C"
    }
}