{
    "cas_no": "89778-26-7",
    "key_name": "Toremifene",
    "cn_name": "托瑞米芬;2[4-(4-氯-1,2-二苯基-1-丁烯基)苯氧基-N,N-二甲基乙胺;",
    "alternate_name": "Ethanamine, 2-[4-[(1<em>Z</em>)-4-chloro-1,2-diphenyl-1-buten-1-yl]phenoxy]-<em>N</em>,<em>N</em>-dimethyl-;Ethanamine, 2-[4-(4-chloro-1,2-diphenyl-1-butenyl)phenoxy]-<em>N</em>,<em>N</em>-dimethyl-, (<em>Z</em>)-;Ethanamine, 2-[4-[(1<em>Z</em>)-4-chloro-1,2-diphenyl-1-butenyl]phenoxy]-<em>N</em>,<em>N</em>-dimethyl-;2-[4-[(1<em>Z</em>)-4-Chloro-1,2-diphenyl-1-buten-1-yl]phenoxy]-<em>N</em>,<em>N</em>-dimethylethanamine;Toremifene;Chlortamoxifen",
    "duplicated_cas_no": "98644-21-4",
    "SMILES": "C(=C(/CCCl)\\C1=CC=CC=C1)(\\C2=CC=C(OCCN(C)C)C=C2)/C3=CC=CC=C3",
    "meta_data": {
        "InChI": "InChI=1S/C26H28ClNO/c1-28(2)19-20-29-24-15-13-23(14-16-24)26(22-11-7-4-8-12-22)25(17-18-27)21-9-5-3-6-10-21/h3-16H,17-20H2,1-2H3/b26-25-",
        "InChIKey": null,
        "Canonical SMILES": "ClCCC(C=1C=CC=CC1)=C(C=2C=CC=CC2)C3=CC=C(OCCN(C)C)C=C3",
        "Molecular Formula": "C<sub>26</sub>H<sub>28</sub>ClNO",
        "Molecular Mass": "405.96",
        "Melting Point": "108-110 °C"
    }
}