{
    "cas_no": "348-52-7",
    "key_name": "1-Fluoro-2-iodobenzene",
    "cn_name": "2-氟碘苯;邻氟碘苯;",
    "alternate_name": "Benzene, 1-fluoro-2-iodo-;1-Fluoro-2-iodobenzene;<em>o</em>-Fluoroiodobenzene;<em>o</em>-Iodofluorobenzene;<em>o</em>-Fluorophenyl iodide;2-Fluoroiodobenzene;1-Iodo-2-fluorobenzene;2-Iodofluorobenzene;2-Fluorophenyl iodide;NSC 51766;1-Fluoro-2-iodo-5-trifluoromethylbenzene;2-Iodo-1-fluorobenzene;2-Fluoro-1-iodobenzene",
    "duplicated_cas_no": "",
    "SMILES": "FC1=C(I)C=CC=C1",
    "meta_data": {
        "InChI": "InChI=1S/C6H4FI/c7-5-3-1-2-4-6(5)8/h1-4H",
        "InChIKey": null,
        "Canonical SMILES": "FC=1C=CC=CC1I",
        "Molecular Formula": "C<sub>6</sub>H<sub>4</sub>FI",
        "Molecular Mass": "222.00",
        "Boiling Point": "188.6 °C",
        "Melting Point": "-41.5 °C",
        "Density": "1.9206 g/cm³ @ Temp: 25.00 °C"
    }
}