{
    "cas_no": "533-45-9",
    "key_name": "Clomethiazole",
    "cn_name": "氯美噻唑;5-(2-氯乙基)-4-甲基噻唑;",
    "alternate_name": "Thiazole, 5-(2-chloroethyl)-4-methyl-;5-(2-Chloroethyl)-4-methylthiazole;Chlorethiazol;Chlormethiazole;Clomethiazole;Distraneurin;4-Methyl-5-(β-chloroethyl)thiazole;Chlormethiazol;Chlorethiazole;Clomethiazolum;Emineurina;Somnevrin;5-(β-Chloroethyl)-4-methylthiazole;MeSH ID: D002719",
    "duplicated_cas_no": "",
    "SMILES": "C(CCl)C1=C(C)N=CS1",
    "meta_data": {
        "InChI": "InChI=1S/C6H8ClNS/c1-5-6(2-3-7)9-4-8-5/h4H,2-3H2,1H3",
        "InChIKey": null,
        "Canonical SMILES": "ClCCC=1SC=NC1C",
        "Molecular Formula": "C<sub>6</sub>H<sub>8</sub>ClNS",
        "Molecular Mass": "161.65",
        "Boiling Point": "92 °C",
        "Melting Point": "127-128 °C",
        "Density": "1.233 g/cm³ @ Temp: 25 °C"
    }
}