{
    "cas_no": "490-75-5",
    "key_name": "2-Carboxy-3-pyridineacetic acid",
    "cn_name": "高奎宁酸;",
    "alternate_name": "3-Pyridineacetic acid, 2-carboxy-;3-Picoline-α,2-dicarboxylic acid;2-Carboxy-3-pyridineacetic acid;Homoquinolinic acid",
    "duplicated_cas_no": "",
    "SMILES": "C(O)(=O)C1=C(CC(O)=O)C=CC=N1",
    "meta_data": {
        "InChI": "InChI=1S/C8H7NO4/c10-6(11)4-5-2-1-3-9-7(5)8(12)13/h1-3H,4H2,(H,10,11)(H,12,13)",
        "InChIKey": null,
        "Canonical SMILES": "O=C(O)C1=NC=CC=C1CC(=O)O",
        "Molecular Formula": "C<sub>8</sub>H<sub>7</sub>NO<sub>4</sub>",
        "Molecular Mass": "181.15",
        "Melting Point": "182-183 °C"
    }
}