{
    "cas_no": "3430-17-9",
    "key_name": "2-Bromo-3-methylpyridine",
    "cn_name": "2-溴-3-甲基吡啶;",
    "alternate_name": "Pyridine, 2-bromo-3-methyl-;3-Picoline, 2-bromo-;2-Bromo-3-methylpyridine;3-Methyl-2-bromopyridine;2-Bromo-3-picoline;NSC 245462;NSC 4244",
    "duplicated_cas_no": "",
    "SMILES": "CC1=C(Br)N=CC=C1",
    "meta_data": {
        "InChI": "InChI=1S/C6H6BrN/c1-5-3-2-4-8-6(5)7/h2-4H,1H3",
        "InChIKey": null,
        "Canonical SMILES": "BrC1=NC=CC=C1C",
        "Molecular Formula": "C<sub>6</sub>H<sub>6</sub>BrN",
        "Molecular Mass": "172.02",
        "Boiling Point": "218-219 °C",
        "Density": "1.536 g/cm³ @ Temp: 20 °C"
    }
}