{
    "cas_no": "7783-40-6",
    "key_name": "Magnesium fluoride",
    "cn_name": "氟化镁;",
    "alternate_name": "Magnesium fluoride (MgF<sub>2</sub>);Magnesium fluoride;Irtran 1;Magnesium difluoride;Afluon;Magnesium difluoride (MgF<sub>2</sub>);Cerac M 2010;MS 4 (fluoride);MS 4;MFDNB;Suncolloid MSF 10P;MSF 10P;MFDNB 15WT% G 26;MFW 15WT% E 10;NanoTek MgF<sub>2</sub> Slurry;NanoTek MgF<sub>2</sub>;MFGR 3-6",
    "duplicated_cas_no": "2252328-01-9",
    "SMILES": "[Mg](F)F",
    "meta_data": {
        "InChI": "InChI=1S/2FH.Mg/h2*1H;/q;;+2/p-2",
        "InChIKey": null,
        "Canonical SMILES": "F[Mg]F",
        "Molecular Formula": "F<sub>2</sub>Mg",
        "Molecular Mass": "",
        "Boiling Point": "2260 °C",
        "Melting Point": "1265 °C",
        "Density": "2.97 g/cm³"
    }
}