{
    "cas_no": "302-91-0",
    "key_name": "5α-Tetrahydrocortisol",
    "cn_name": null,
    "alternate_name": "Pregnan-20-one, 3,11,17,21-tetrahydroxy-, (3α,5α,11β)-;5α-Pregnan-20-one, 3α,11β,17,21-tetrahydroxy-;(3α,5α,11β)-3,11,17,21-Tetrahydroxypregnan-20-one;Allopregnane-3α,11β,17α,21-tetrol-20-one;Allotetrahydrocompound F;ATHF;Allotetrahydrocortisol;Cortisol, allotetrahydro-;Kendall's compound C;5α-Pregnane-3α,11β,17α,21-tetraol-20-one;Reichstein's substance C;5α-Tetrahydrocortisol;3α,11β,17,21-Tetrahydroxy-5α-pregnan-20-one;Wintersteiner's compound D;<em>allo</em>-Tetrahydrocortisol;Allo-3α-tetrahydrocortisol;α-THF;3α,5α-Tetrahydrocortisol;3α,11β,17α,21-Tetrahydroxy-5α-pregnan-20-one;5α-Pregnane-3α,11β,17α,21-tetrol-20-one;AL 3308;NSC 86469;5α-THF",
    "duplicated_cas_no": "",
    "SMILES": "C[C@@]12[C@]([C@]3([C@@]([C@]4(C)[C@@](CC3)(C[C@H](O)CC4)[H])([C@@H](O)C1)[H])[H])(CC[C@@]2(C(CO)=O)O)[H]",
    "meta_data": {
        "InChI": "InChI=1S/C21H34O5/c1-19-7-5-13(23)9-12(19)3-4-14-15-6-8-21(26,17(25)11-22)20(15,2)10-16(24)18(14)19/h12-16,18,22-24,26H,3-11H2,1-2H3/t12-,13+,14-,15-,16-,18+,19-,20-,21-/m0/s1",
        "InChIKey": null,
        "Canonical SMILES": "O=C(CO)C1(O)CCC2C3CCC4CC(O)CCC4(C)C3C(O)CC21C",
        "Molecular Formula": "C<sub>21</sub>H<sub>34</sub>O<sub>5</sub>",
        "Molecular Mass": "366.49",
        "Melting Point": "244.5 °C",
        "Density": "1.205 g/cm³"
    }
}