{
    "cas_no": "812-01-1",
    "key_name": "Chlorosulfuric acid, methyl ester",
    "cn_name": "氯磺酸甲酯;氯磺酸甲酯;",
    "alternate_name": "Chlorosulfuric acid, methyl ester;Methyl chlorosulfate;Methyl chlorosulfonate;Chlorosulfonic acid, methyl ester;[(Chlorosulfonyl)oxy]methane",
    "duplicated_cas_no": "",
    "SMILES": "S(OC)(Cl)(=O)=O",
    "meta_data": {
        "InChI": "InChI=1S/CH3ClO3S/c1-5-6(2,3)4/h1H3",
        "InChIKey": null,
        "Canonical SMILES": "O=S(=O)(Cl)OC",
        "Molecular Formula": "CH<sub>3</sub>ClO<sub>3</sub>S",
        "Molecular Mass": "130.55",
        "Boiling Point": "134 °C",
        "Melting Point": "-70 °C",
        "Density": "1.492 g/cm³ @ Temp: 15 °C"
    }
}