{
    "cas_no": "6329-61-9",
    "key_name": "Decahydroisoquinoline",
    "cn_name": "十氢异喹啉;",
    "alternate_name": "Isoquinoline, decahydro-;Decahydroisoquinoline;Perhydroisoquinoline;NSC 43479;Octahydroisoquinoline;1,2,3,4,4a,5,6,7,8,8a-Decahydroisoquinoline",
    "duplicated_cas_no": "60168-04-9",
    "SMILES": "C12C(CCCC1)CNCC2",
    "meta_data": {
        "InChI": "InChI=1S/C9H17N/c1-2-4-9-7-10-6-5-8(9)3-1/h8-10H,1-7H2",
        "InChIKey": null,
        "Canonical SMILES": "N1CCC2CCCCC2C1",
        "Molecular Formula": "C<sub>9</sub>H<sub>17</sub>N",
        "Molecular Mass": "139.24",
        "Boiling Point": "97-98 °C @ Press: 15 Torr",
        "Melting Point": "180 °C"
    }
}