{
    "cas_no": "2986-00-7",
    "key_name": "α-Acetyl-α-chloro-γ-butyrolactone",
    "cn_name": null,
    "alternate_name": "2(3<em>H</em>)-Furanone, 3-acetyl-3-chlorodihydro-;Acetoacetic acid, 2-chloro-2-(2-hydroxyethyl)-, γ-lactone;3-Acetyl-3-chlorodihydro-2(3<em>H</em>)-furanone;α-Acetyl-α-chloro-γ-butyrolactone;2-Acetyl-2-chlorobutyrolactone;3-Acetyl-3-chlorodihydrofuran-2(3<em>H</em>)-one;3-Acetyl-3-chloro-dihydro-furan-2-one;3-Acetyl-3-chlorooxolan-2-one",
    "duplicated_cas_no": "",
    "SMILES": "C(C)(=O)C1(Cl)C(=O)OCC1",
    "meta_data": {
        "InChI": "InChI=1S/C6H7ClO3/c1-4(8)6(7)2-3-10-5(6)9/h2-3H2,1H3",
        "InChIKey": null,
        "Canonical SMILES": "O=C1OCCC1(Cl)C(=O)C",
        "Molecular Formula": "C<sub>6</sub>H<sub>7</sub>ClO<sub>3</sub>",
        "Molecular Mass": "162.57",
        "Boiling Point": "54-55 °C @ Press: 0.1 Torr",
        "Melting Point": "2.2-3.0 °C",
        "Density": "1.325 g/cm³ @ Temp: 15 °C"
    }
}