{
    "cas_no": "10102-17-7",
    "key_name": "Sodium thiosulfate pentahydrate",
    "cn_name": "硫代硫酸钠;大苏打;",
    "alternate_name": "Thiosulfuric acid (H<sub>2</sub>S<sub>2</sub>O<sub>3</sub>), sodium salt, hydrate (1:2:5);Thiosulfuric acid, disodium salt, pentahydrate;Thiosulfuric acid (H<sub>2</sub>S<sub>2</sub>O<sub>3</sub>), disodium salt, pentahydrate;Hypo;Sodium thiosulfate pentahydrate;Disodium thiosulfate pentahydrate;Sodium thiosulfate pentahydrate (Na<sub>2</sub>S<sub>2</sub>O<sub>3</sub>.5H<sub>2</sub>O);Sodium thiosulfate (Na<sub>2</sub>S<sub>2</sub>O<sub>3</sub>) pentahydrate;Disodium thiosulphate pentahydrate",
    "duplicated_cas_no": "1374442-74-6",
    "SMILES": "S(=O)(=O)(O)S.[Na].O",
    "meta_data": {
        "InChI": "InChI=1S/2Na.H2O3S2.5H2O/c;;1-5(2,3)4;;;;;/h;;(H2,1,2,3,4);5*1H2",
        "InChIKey": null,
        "Canonical SMILES": "[Na].O=S(=O)(O)S.O",
        "Molecular Formula": "H<sub>2</sub>O<sub>3</sub>S<sub>2</sub>.5H<sub>2</sub>O.2Na",
        "Molecular Mass": "",
        "Melting Point": "65 °C"
    }
}