{
    "cas_no": "2039-50-1",
    "key_name": "5-(Bromomethyl)-3-phenylisoxazole",
    "cn_name": "5-(溴甲基)-3-苯基异恶唑;",
    "alternate_name": "Isoxazole, 5-(bromomethyl)-3-phenyl-;5-(Bromomethyl)-3-phenylisoxazole",
    "duplicated_cas_no": "",
    "SMILES": "C(Br)C1=CC(=NO1)C2=CC=CC=C2",
    "meta_data": {
        "InChI": "InChI=1S/C10H8BrNO/c11-7-9-6-10(12-13-9)8-4-2-1-3-5-8/h1-6H,7H2",
        "InChIKey": null,
        "Canonical SMILES": "BrCC=1ON=C(C1)C=2C=CC=CC2",
        "Molecular Formula": "C<sub>10</sub>H<sub>8</sub>BrNO",
        "Molecular Mass": "238.08",
        "Boiling Point": "143-145 °C @ Press: 2 Torr",
        "Melting Point": "85-86 °C",
        "Density": "1.4780 g/cm³ @ Temp: 20 °C"
    }
}