{
    "cas_no": "105-44-2",
    "key_name": "4-Methyl-2-pentanone oxime",
    "cn_name": "甲基异丁基酮肟;",
    "alternate_name": "2-Pentanone, 4-methyl-, oxime;4-Methyl-2-pentanone oxime;Methyl isobutyl ketoxime;2-Methyl-4-pentanone oxime;Methyl isobutyl oxime;Methyl isobutyl ketone oxime;Isobutyl methyl ketone oxime;NSC 1070;NSC 31611;NSC 562;Luna-Skin MIBKO",
    "duplicated_cas_no": "",
    "SMILES": "C(CC(C)C)(=NO)C",
    "meta_data": {
        "InChI": "InChI=1S/C6H13NO/c1-5(2)4-6(3)7-8/h5,8H,4H2,1-3H3",
        "InChIKey": null,
        "Canonical SMILES": "ON=C(C)CC(C)C",
        "Molecular Formula": "C<sub>6</sub>H<sub>13</sub>NO",
        "Molecular Mass": "115.17",
        "Boiling Point": "175 °C",
        "Melting Point": "63 °C",
        "Density": "0.8935 g/cm³ @ Temp: 17 °C"
    }
}