{
    "cas_no": "59277-89-3",
    "key_name": "Acyclovir",
    "cn_name": "阿昔洛韦;9-(2-羟乙氧甲基)鸟嘌呤;",
    "alternate_name": "6<em>H</em>-Purin-6-one, 2-amino-1,9-dihydro-9-[(2-hydroxyethoxy)methyl]-;2-Amino-1,9-dihydro-9-[(2-hydroxyethoxy)methyl]-6<em>H</em>-purin-6-one;Acycloguanosine;9-(2-Hydroxyethoxymethyl)guanine;Acyclovir;Aciclovir;Zovirax;BW 248U;ACV;Gerpevir;Herpevir;Avirase;Virorax;Acicloftal;Cargosil;Vipral;Poviral;Zyclir;Acyclo V;Wellcome 248U;NSC 645011;BioVir I;BioVir II;Virovir;Novirus;Lovir;Rouz-Aciclovir;Zirax;Virless;Virax;Vicclox;Acivir;Axiluowei;2-Amino-9-[(2-hydroxyethoxy)methyl]-6,9-dihydro-3<em>H</em>-purin-6-one;2-Amino-9-(2-hydroxy-ethoxymethyl)-1,9-dihydro-purin-6-one;2-Amino-9-((2-hydroxyethoxy)methyl)-1<em>H</em>-purin-6(9<em>H</em>)-one;2-Amino-9-(2-hydroxy-ethoxymethyl)-3,9-dihydro-purin-6-one;2-Amino-9-[(2-hydroxyethoxy)methyl]-9<em>H</em>-purin-6-ol;2-Amino-9-(2-hydroxyethoxymethyl)-3<em>H</em>-purin-6-one;MeSH ID: D000212",
    "duplicated_cas_no": "",
    "SMILES": "C(OCCO)N1C2=C(N=C1)C(=O)N=C(N)N2",
    "meta_data": {
        "InChI": "InChI=1S/C8H11N5O3/c9-8-11-6-5(7(15)12-8)10-3-13(6)4-16-2-1-14/h3,14H,1-2,4H2,(H3,9,11,12,15)",
        "InChIKey": null,
        "Canonical SMILES": "O=C1N=C(N)NC2=C1N=CN2COCCO",
        "Molecular Formula": "C<sub>8</sub>H<sub>11</sub>N<sub>5</sub>O<sub>3</sub>",
        "Molecular Mass": "225.20",
        "Melting Point": "256.5-257 °C"
    }
}