{
    "cas_no": "3030-06-6",
    "key_name": "1-Acetyl-5-bromo-4-chloro-1<em>H</em>-indol-3-yl acetate",
    "cn_name": "1-乙酰基-5-溴-4-氯吲哚-3-乙酸酯;",
    "alternate_name": "Ethanone, 1-[3-(acetyloxy)-5-bromo-4-chloro-1<em>H</em>-indol-1-yl]-;Indol-3-ol, 1-acetyl-5-bromo-4-chloro-, acetate (ester);1<em>H</em>-Indol-3-ol, 1-acetyl-5-bromo-4-chloro-, acetate (ester);Indol-3-ol, 1-acetyl-5-bromo-4-chloro-, acetate;Indoxyl, 1-acetyl-5-bromo-4-chloro-, acetate;1-[3-(Acetyloxy)-5-bromo-4-chloro-1<em>H</em>-indol-1-yl]ethanone;1-Acetyl-5-bromo-4-chloro-1<em>H</em>-indol-3-yl acetate;(1-Acetyl-5-bromo-4-chloroindol-3-yl) acetate;3-Acetoxy-1-acetyl-5-bromo-4-chloroindole",
    "duplicated_cas_no": "",
    "SMILES": "O(C(C)=O)C=1C=2C(N(C(C)=O)C1)=CC=C(Br)C2Cl",
    "meta_data": {
        "InChI": "InChI=1S/C12H9BrClNO3/c1-6(16)15-5-10(18-7(2)17)11-9(15)4-3-8(13)12(11)14/h3-5H,1-2H3",
        "InChIKey": null,
        "Canonical SMILES": "O=C(OC1=CN(C(=O)C)C=2C=CC(Br)=C(Cl)C12)C",
        "Molecular Formula": "C<sub>12</sub>H<sub>9</sub>BrClNO<sub>3</sub>",
        "Molecular Mass": "330.56",
        "Melting Point": "161-162 °C"
    }
}