{
    "cas_no": "591-22-0",
    "key_name": "3,5-Dimethylpyridine",
    "cn_name": "3,5-二甲基吡啶;",
    "alternate_name": "Pyridine, 3,5-dimethyl-;3,5-Lutidine;3,5-Dimethylpyridine;NSC 60736",
    "duplicated_cas_no": "",
    "SMILES": "CC=1C=C(C)C=NC1",
    "meta_data": {
        "InChI": "InChI=1S/C7H9N/c1-6-3-7(2)5-8-4-6/h3-5H,1-2H3",
        "InChIKey": null,
        "Canonical SMILES": "N=1C=C(C=C(C1)C)C",
        "Molecular Formula": "C<sub>7</sub>H<sub>9</sub>N",
        "Molecular Mass": "107.15",
        "Boiling Point": "172 °C",
        "Melting Point": "-6.6 °C",
        "Density": "0.9385 g/cm³ @ Temp: 25 °C"
    }
}