{
    "cas_no": "591-68-4",
    "key_name": "Butyl valerate",
    "cn_name": "戊酸丁酯;",
    "alternate_name": "Pentanoic acid, butyl ester;Valeric acid, butyl ester;Butyl valerate;Butyl pentanoate;<em>n</em>-Butyl valerate;<em>n</em>-Butyl pentanoate",
    "duplicated_cas_no": "",
    "SMILES": "O(C(CCCC)=O)CCCC",
    "meta_data": {
        "InChI": "InChI=1S/C9H18O2/c1-3-5-7-9(10)11-8-6-4-2/h3-8H2,1-2H3",
        "InChIKey": null,
        "Canonical SMILES": "O=C(OCCCC)CCCC",
        "Molecular Formula": "C<sub>9</sub>H<sub>18</sub>O<sub>2</sub>",
        "Molecular Mass": "158.24",
        "Boiling Point": "185.8 °C",
        "Melting Point": "-92.8 °C"
    }
}