{
    "cas_no": "20870-90-0",
    "key_name": "5-Bromo-1,3-dihydro-1-methyl-2<em>H</em>-indol-2-one",
    "cn_name": "5-溴-1-甲基-2-吲哚酮;",
    "alternate_name": "2<em>H</em>-Indol-2-one, 5-bromo-1,3-dihydro-1-methyl-;2-Indolinone, 5-bromo-1-methyl-;Oxindole, 5-bromo-1-methyl-;5-Bromo-1,3-dihydro-1-methyl-2<em>H</em>-indol-2-one;5-Bromo-1-methyl-2-indolinone;5-Bromo-<em>N</em>-methyloxindole",
    "duplicated_cas_no": "",
    "SMILES": "CN1C=2C(CC1=O)=CC(Br)=CC2",
    "meta_data": {
        "InChI": "InChI=1S/C9H8BrNO/c1-11-8-3-2-7(10)4-6(8)5-9(11)12/h2-4H,5H2,1H3",
        "InChIKey": null,
        "Canonical SMILES": "O=C1N(C2=CC=C(Br)C=C2C1)C",
        "Molecular Formula": "C<sub>9</sub>H<sub>8</sub>BrNO",
        "Molecular Mass": "226.07",
        "Melting Point": "132-133 °C"
    }
}