{
    "cas_no": "2928-43-0",
    "key_name": "[1,1′-Biphenyl]-2-methanol",
    "cn_name": null,
    "alternate_name": "[1,1′-Biphenyl]-2-methanol;2-Biphenylmethanol;2-(Hydroxymethyl)biphenyl;2-Phenylbenzyl alcohol;1-Hydroxymethyl-2-phenylbenzene;(Biphenyl-2-yl)methyl alcohol;NSC 97773;Biphenyl-2-ylmethanol;2-Hydroxymethyl-1,1′-biphenyl;<em>o</em>-Phenylbenzyl alcohol;(2-Phenylphenyl)methan-1-ol;[1,1′-Biphenyl]-2-ylmethanol",
    "duplicated_cas_no": "",
    "SMILES": "C(O)C1=C(C=CC=C1)C2=CC=CC=C2",
    "meta_data": {
        "InChI": "InChI=1S/C13H12O/c14-10-12-8-4-5-9-13(12)11-6-2-1-3-7-11/h1-9,14H,10H2",
        "InChIKey": null,
        "Canonical SMILES": "OCC=1C=CC=CC1C=2C=CC=CC2",
        "Molecular Formula": "C<sub>13</sub>H<sub>12</sub>O",
        "Molecular Mass": "184.23",
        "Boiling Point": "174 °C @ Press: 12 Torr",
        "Melting Point": "50-51 °C"
    }
}