{
    "cas_no": "72963-72-5",
    "key_name": "Imiprothrin",
    "cn_name": "炔咪菊酯;脒唑菊酯;(1R,S)-顺反式-2,2-二甲基-3-(2-甲基-1-丙烯基)环丙烷羧酸-[2,5-二氧-3-(2-丙炔基)]-1-;",
    "alternate_name": "Cyclopropanecarboxylic acid, 2,2-dimethyl-3-(2-methyl-1-propen-1-yl)-, [2,5-dioxo-3-(2-propyn-1-yl)-1-imidazolidinyl]methyl ester;Cyclopropanecarboxylic acid, 2,2-dimethyl-3-(2-methyl-1-propenyl)-, [2,5-dioxo-3-(2-propynyl)-1-imidazolidinyl]methyl ester;Imiprothrin;S 4056F;S 41311;Pralle T",
    "duplicated_cas_no": "",
    "SMILES": "C(=C(C)C)C1C(C(OCN2C(=O)N(CC#C)CC2=O)=O)C1(C)C",
    "meta_data": {
        "InChI": "InChI=1S/C17H22N2O4/c1-6-7-18-9-13(20)19(16(18)22)10-23-15(21)14-12(8-11(2)3)17(14,4)5/h1,8,12,14H,7,9-10H2,2-5H3",
        "InChIKey": null,
        "Canonical SMILES": "O=C(OCN1C(=O)N(CC#C)CC1=O)C2C(C=C(C)C)C2(C)C",
        "Molecular Formula": "C<sub>17</sub>H<sub>22</sub>N<sub>2</sub>O<sub>4</sub>",
        "Molecular Mass": "318.37",
        "Melting Point": "&lt;25 °C",
        "Density": "1.1 g/cm³"
    }
}