{
    "cas_no": "574-19-6",
    "key_name": "1-Acetyl-2-naphthol",
    "cn_name": "2-羟基-1-萘乙酮;1-乙酰基-2-萘酚;",
    "alternate_name": "Ethanone, 1-(2-hydroxy-1-naphthalenyl)-;1′-Acetonaphthone, 2′-hydroxy-;1-Acetonaphthone, 2-hydroxy-;1-(2-Hydroxy-1-naphthalenyl)ethanone;2-Hydroxy-1-naphthyl methyl ketone;1-Acetyl-2-hydroxynaphthalene;1-Acetyl-2-naphthol;2′-Hydroxy-1′-acetonaphthone;Methyl 2-hydroxy-1-naphthyl ketone;1-Acetyl-2-naphthalenol;2-Hydroxy-1-acetylnaphthalene;1-(2-Hydroxy-1-naphthyl)ethanone;1-(2-Hydroxynaphthalen-1-yl)ethanone;1-(2-Hydroxynaphthalen-1-yl)ethan-1-one;1-(2-Hydroxy-1-naphthyl)ethan-1-one",
    "duplicated_cas_no": "13226-82-9;52651-46-4;1082705-22-3",
    "SMILES": "C(C)(=O)C=1C2=C(C=CC1O)C=CC=C2",
    "meta_data": {
        "InChI": "InChI=1S/C12H10O2/c1-8(13)12-10-5-3-2-4-9(10)6-7-11(12)14/h2-7,14H,1H3",
        "InChIKey": null,
        "Canonical SMILES": "O=C(C1=C(O)C=CC=2C=CC=CC21)C",
        "Molecular Formula": "C<sub>12</sub>H<sub>10</sub>O<sub>2</sub>",
        "Molecular Mass": "186.21",
        "Boiling Point": "178 °C @ Press: 13 Torr",
        "Melting Point": "60 °C"
    }
}