{
    "cas_no": "50675-20-2",
    "key_name": "4-Piperidinecarboxaldehyde",
    "cn_name": null,
    "alternate_name": "4-Piperidinecarboxaldehyde;4-Formylpiperidine",
    "duplicated_cas_no": "164216-65-3",
    "SMILES": "C(=O)C1CCNCC1",
    "meta_data": {
        "InChI": "InChI=1S/C6H11NO/c8-5-6-1-3-7-4-2-6/h5-7H,1-4H2",
        "InChIKey": null,
        "Canonical SMILES": "O=CC1CCNCC1",
        "Molecular Formula": "C<sub>6</sub>H<sub>11</sub>NO",
        "Molecular Mass": "113.16",
        "Boiling Point": "216-217 °C @ Press: 760 Torr"
    }
}