{
    "cas_no": "273-77-8",
    "key_name": "1,2,3-Benzothiadiazole",
    "cn_name": null,
    "alternate_name": "1,2,3-Benzothiadiazole;NSC 111919",
    "duplicated_cas_no": "",
    "SMILES": "C1=2C(SN=N1)=CC=CC2",
    "meta_data": {
        "InChI": "InChI=1S/C6H4N2S/c1-2-4-6-5(3-1)7-8-9-6/h1-4H",
        "InChIKey": null,
        "Canonical SMILES": "N1=NC=2C=CC=CC2S1",
        "Molecular Formula": "C<sub>6</sub>H<sub>4</sub>N<sub>2</sub>S",
        "Molecular Mass": "136.17",
        "Melting Point": "36-37 °C"
    }
}