{
    "cas_no": "4085-31-8",
    "key_name": "Quinoline, 4,4′-(1,3-propanediyldi-4,1-piperazinediyl)bis[7-chloro-",
    "cn_name": "磷酸哌喹;1,3-双[4-(7-氯-喹啉-4-基)哌嗪-1-基]丙烷四磷酸盐四水合物;",
    "alternate_name": "Quinoline, 4,4′-(1,3-propanediyldi-4,1-piperazinediyl)bis[7-chloro-;Quinoline, 4,4′-(trimethylenedi-4,1-piperazinediyl)bis[7-chloro-;4,4′-(1,3-Propanediyldi-4,1-piperazinediyl)bis[7-chloroquinoline];Piperaquinoline;Piperaquine",
    "duplicated_cas_no": "83764-65-2",
    "SMILES": "ClC1=CC2=C(C(=CC=N2)N3CCN(CCCN4CCN(CC4)C=5C6=C(C=C(Cl)C=C6)N=CC5)CC3)C=C1",
    "meta_data": {
        "InChI": "InChI=1S/C29H32Cl2N6/c30-22-2-4-24-26(20-22)32-8-6-28(24)36-16-12-34(13-17-36)10-1-11-35-14-18-37(19-15-35)29-7-9-33-27-21-23(31)3-5-25(27)29/h2-9,20-21H,1,10-19H2",
        "InChIKey": null,
        "Canonical SMILES": "ClC=1C=CC=2C(=NC=CC2N3CCN(CC3)CCCN4CCN(C=5C=CN=C6C=C(Cl)C=CC65)CC4)C1",
        "Molecular Formula": "C<sub>29</sub>H<sub>32</sub>Cl<sub>2</sub>N<sub>6</sub>",
        "Molecular Mass": "535.51",
        "Melting Point": "198-200 °C"
    }
}