{
    "cas_no": "2566-39-4",
    "key_name": "γ-Glutamylleucine",
    "cn_name": "N-L-gamma-谷氨酰-L-亮氨酸;(2S)-2-[[(4S)-4-氨基-5-羟基-5-氧代戊酰]氨基]-4-甲基戊酸;",
    "alternate_name": "<span class=\"text-smallcaps\">L</smallcap>-Leucine, <smallcap>L</span>-γ-glutamyl-;Leucine, <em>N</em>-<span class=\"text-smallcaps\">L</smallcap>-γ-glutamyl-, <smallcap>L</span>-;<span class=\"text-smallcaps\">L</smallcap>-Leucine, <em>N</em>-<smallcap>L</span>-γ-glutamyl-;Leucine, <em>N</em>-<span class=\"text-smallcaps\">L</span>-γ-glutamyl-;<span class=\"text-smallcaps\">L</smallcap>-γ-Glutamyl-<smallcap>L</span>-leucine;γ-Glutamylleucine;γ-<span class=\"text-smallcaps\">L</smallcap>-Glutamyl-<smallcap>L</span>-leucine;<em>N</em>-γ-<span class=\"text-smallcaps\">L</span>-Glutamylleucine;4: PN: WO2011158590 PAGE: 34 claimed sequence;26: PN: CN107114752 PAGE: 2 claimed sequence",
    "duplicated_cas_no": "",
    "SMILES": "[C@H](NC(CC[C@@H](C(O)=O)N)=O)(CC(C)C)C(O)=O",
    "meta_data": {
        "InChI": "InChI=1S/C11H20N2O5/c1-6(2)5-8(11(17)18)13-9(14)4-3-7(12)10(15)16/h6-8H,3-5,12H2,1-2H3,(H,13,14)(H,15,16)(H,17,18)/t7-,8-/m0/s1",
        "InChIKey": null,
        "Canonical SMILES": "O=C(O)C(N)CCC(=O)NC(C(=O)O)CC(C)C",
        "Molecular Formula": "C<sub>11</sub>H<sub>20</sub>N<sub>2</sub>O<sub>5</sub>",
        "Molecular Mass": "260.29",
        "Melting Point": "185 °C"
    }
}