{
    "cas_no": "2273-93-0",
    "key_name": "2,6-Dichloro-7-methyl-7<em>H</em>-purine",
    "cn_name": "2,6-二氯-7-甲基嘌呤;",
    "alternate_name": "7<em>H</em>-Purine, 2,6-dichloro-7-methyl-;Purine, 2,6-dichloro-7-methyl-;2,6-Dichloro-7-methyl-7<em>H</em>-purine;2,6-Dichloro-7-methylpurine;NSC 7853;5,7-Dichloro-1-methyl-1<em>H</em>-imidazo[4,5-<em>d</em>]pyrimidine",
    "duplicated_cas_no": "",
    "SMILES": "ClC1=C2C(=NC(Cl)=N1)N=CN2C",
    "meta_data": {
        "InChI": "InChI=1S/C6H4Cl2N4/c1-12-2-9-5-3(12)4(7)10-6(8)11-5/h2H,1H3",
        "InChIKey": null,
        "Canonical SMILES": "ClC=1N=C(Cl)C2=C(N=CN2C)N1",
        "Molecular Formula": "C<sub>6</sub>H<sub>4</sub>Cl<sub>2</sub>N<sub>4</sub>",
        "Molecular Mass": "203.03",
        "Melting Point": "195.5-196 °C"
    }
}