{
    "cas_no": "402-65-3",
    "key_name": "2-Fluoroisonicotinic acid",
    "cn_name": "2-氟异烟酸;2-氟吡啶-4-羧酸;",
    "alternate_name": "4-Pyridinecarboxylic acid, 2-fluoro-;Isonicotinic acid, 2-fluoro-;2-Fluoro-4-pyridinecarboxylic acid;2-Fluoroisonicotinic acid;2-Fluoropyridine-4-carboxylic acid;NSC 402973",
    "duplicated_cas_no": "",
    "SMILES": "C(O)(=O)C=1C=C(F)N=CC1",
    "meta_data": {
        "InChI": "InChI=1S/C6H4FNO2/c7-5-3-4(6(9)10)1-2-8-5/h1-3H,(H,9,10)",
        "InChIKey": null,
        "Canonical SMILES": "O=C(O)C=1C=CN=C(F)C1",
        "Molecular Formula": "C<sub>6</sub>H<sub>4</sub>FNO<sub>2</sub>",
        "Molecular Mass": "141.10",
        "Melting Point": "195-197 °C"
    }
}