{
    "cas_no": "3715-29-5",
    "key_name": "Sodium 3-methyl-2-oxobutanoate",
    "cn_name": "3-甲基-2-氧代丁酸钠;",
    "alternate_name": "Butanoic acid, 3-methyl-2-oxo-, sodium salt (1:1);Butyric acid, 3-methyl-2-oxo-, sodium salt;Butanoic acid, 3-methyl-2-oxo-, sodium salt;Sodium α-ketoisovalerate;Sodium α-oxoisovalerate;Sodium 3-methyl-2-oxobutyrate;Sodium dimethylpyruvate;3-Methyl-2-oxobutanoic acid sodium salt;Sodium 3-methyl-2-oxobutanoate",
    "duplicated_cas_no": "",
    "SMILES": "C(C(C)C)(C(O)=O)=O.[Na]",
    "meta_data": {
        "InChI": "InChI=1S/C5H8O3.Na/c1-3(2)4(6)5(7)8;/h3H,1-2H3,(H,7,8);",
        "InChIKey": null,
        "Canonical SMILES": "[Na].O=C(O)C(=O)C(C)C",
        "Molecular Formula": "C<sub>5</sub>H<sub>8</sub>O<sub>3</sub>.Na",
        "Molecular Mass": "",
        "Melting Point": "223-226 °C"
    }
}