{
    "cas_no": "636-72-6",
    "key_name": "2-Thiophenemethanol",
    "cn_name": "2-噻吩甲醇;噻吩-2-甲醇;2-(羟甲基)噻吩;",
    "alternate_name": "2-Thiophenemethanol;2-(Hydroxymethyl)thiophene;2-Thenyl alcohol;2-Thienylmethanol;2-Thienylmethyl alcohol;2-Thienylcarbinol;(Thiophen-2-yl)methanol;NSC 89695",
    "duplicated_cas_no": "",
    "SMILES": "C(O)C1=CC=CS1",
    "meta_data": {
        "InChI": "InChI=1S/C5H6OS/c6-4-5-2-1-3-7-5/h1-3,6H,4H2",
        "InChIKey": null,
        "Canonical SMILES": "OCC=1SC=CC1",
        "Molecular Formula": "C<sub>5</sub>H<sub>6</sub>OS",
        "Molecular Mass": "114.17",
        "Boiling Point": "207 °C",
        "Melting Point": "28-30 °C",
        "Density": "1.2147 g/cm³ @ Temp: 14.5 °C"
    }
}