{
    "cas_no": "543-75-9",
    "key_name": "Dioxene",
    "cn_name": null,
    "alternate_name": "1,4-Dioxin, 2,3-dihydro-;<em>p</em>-Dioxin, 2,3-dihydro-;2,3-Dihydro-1,4-dioxin;1,4-Dioxene;1,4-Diox-2-ene;<em>p</em>-Dioxene;2,3-Dihydro-<em>p</em>-dioxin;Dioxene;Dihydro-1,4-dioxin;NSC 2295;2,3-Dihydro-1,4-dioxine",
    "duplicated_cas_no": "",
    "SMILES": "C1COC=CO1",
    "meta_data": {
        "InChI": "InChI=1S/C4H6O2/c1-2-6-4-3-5-1/h1-2H,3-4H2",
        "InChIKey": null,
        "Canonical SMILES": "O1C=COCC1",
        "Molecular Formula": "C<sub>4</sub>H<sub>6</sub>O<sub>2</sub>",
        "Molecular Mass": "86.09",
        "Boiling Point": "94.1 °C",
        "Density": "1.083 g/cm³ @ Temp: 20 °C"
    }
}