{
    "cas_no": "2062-78-4",
    "key_name": "Pimozide",
    "cn_name": "哌迷清;1-[1-[4,4-二(4-氟苯基)丁基]-4-哌啶]-1,3-二氢-2H-苯并-2-酮;",
    "alternate_name": "2<em>H</em>-Benzimidazol-2-one, 1-[1-[4,4-bis(4-fluorophenyl)butyl]-4-piperidinyl]-1,3-dihydro-;2-Benzimidazolinone, 1-[1-[4,4-bis(<em>p</em>-fluorophenyl)butyl]-4-piperidyl]-;1-[1-[4,4-Bis(4-fluorophenyl)butyl]-4-piperidinyl]-1,3-dihydro-2<em>H</em>-benzimidazol-2-one;R 6238;1-[4,4-Bis(<em>p</em>-fluorophenyl)butyl]-4-(2-oxo-1-benzimidazolinyl)piperidine;1-[1-[4,4-Bis(<em>p</em>-fluorophenyl)butyl]-4-piperidyl]-2-benzimidazolinone;Pimozide;Orap;NSC 170984;Primozide;1-(1-(4,4-Bis(4-fluorophenyl)butyl)-4-piperindinyl)-1,3-dihydro-2<em>H</em>-benzimidazol-2-one;Apo-Pimozide;1-(1-(4,4-Bis(4-Fluorophenyl)butyl)piperidin-4-yl)-1,3-dihydro-2<em>H</em>-benzo[<em>d</em>]imidazol-2-one;MeSH ID: D010868",
    "duplicated_cas_no": "918121-89-8",
    "SMILES": "O=C1N(C=2C(N1)=CC=CC2)C3CCN(CCCC(C4=CC=C(F)C=C4)C5=CC=C(F)C=C5)CC3",
    "meta_data": {
        "InChI": "InChI=1S/C28H29F2N3O/c29-22-11-7-20(8-12-22)25(21-9-13-23(30)14-10-21)4-3-17-32-18-15-24(16-19-32)33-27-6-2-1-5-26(27)31-28(33)34/h1-2,5-14,24-25H,3-4,15-19H2,(H,31,34)",
        "InChIKey": null,
        "Canonical SMILES": "O=C1NC=2C=CC=CC2N1C3CCN(CCCC(C4=CC=C(F)C=C4)C5=CC=C(F)C=C5)CC3",
        "Molecular Formula": "C<sub>28</sub>H<sub>29</sub>F<sub>2</sub>N<sub>3</sub>O",
        "Molecular Mass": "461.55",
        "Melting Point": "214-218 °C"
    }
}