{
    "cas_no": "10027-07-3",
    "key_name": "Octanedioyl dichloride",
    "cn_name": "1,8-二辛酰氯;辛二酰氯;",
    "alternate_name": "Octanedioyl dichloride;Suberoyl chloride;Suberyl chloride;Suberic chloride;Octanedioyl chloride;Suberoyl dichloride;Suberyl dichloride;Suberic dichloride;Suberic acid dichloride;1,6-Hexanedicarbonyl chloride;Subaric dichloride",
    "duplicated_cas_no": "",
    "SMILES": "C(CC(Cl)=O)CCCCC(Cl)=O",
    "meta_data": {
        "InChI": "InChI=1S/C8H12Cl2O2/c9-7(11)5-3-1-2-4-6-8(10)12/h1-6H2",
        "InChIKey": null,
        "Canonical SMILES": "O=C(Cl)CCCCCCC(=O)Cl",
        "Molecular Formula": "C<sub>8</sub>H<sub>12</sub>Cl<sub>2</sub>O<sub>2</sub>",
        "Molecular Mass": "211.09",
        "Boiling Point": "210-220 °C @ Press: 11 Torr",
        "Melting Point": "61-62 °C"
    }
}