{
    "cas_no": "3282-99-3",
    "key_name": "4,4′-Cyclohexylidenebis[benzenamine]",
    "cn_name": null,
    "alternate_name": "Benzenamine, 4,4′-cyclohexylidenebis-;Aniline, 4,4′-cyclohexylidenedi-;4,4′-Cyclohexylidenebis[benzenamine];1,1-Bis(4-aminophenyl)cyclohexane;4,4′-Cyclohexylidenedianiline;[4-[1-(4-Aminophenyl)cyclohexyl]phenyl]amine;4,4′-(Cyclohexane-1,1-diyl)dianiline",
    "duplicated_cas_no": "21842-04-6",
    "SMILES": "NC1=CC=C(C2(CCCCC2)C3=CC=C(N)C=C3)C=C1",
    "meta_data": {
        "InChI": "InChI=1S/C18H22N2/c19-16-8-4-14(5-9-16)18(12-2-1-3-13-18)15-6-10-17(20)11-7-15/h4-11H,1-3,12-13,19-20H2",
        "InChIKey": null,
        "Canonical SMILES": "NC1=CC=C(C=C1)C2(C3=CC=C(N)C=C3)CCCCC2",
        "Molecular Formula": "C<sub>18</sub>H<sub>22</sub>N<sub>2</sub>",
        "Molecular Mass": "266.38",
        "Melting Point": "114 °C"
    }
}