{
    "cas_no": "76646-91-8",
    "key_name": "4-Thia-1-azabicyclo[3.2.0]heptane-2-carboxylic acid, 6,6-dibromo-3,3-dimethyl-7-oxo-, 4,4-dioxide, (2<em>S</em>,5<em>R</em>)-",
    "cn_name": null,
    "alternate_name": "4-Thia-1-azabicyclo[3.2.0]heptane-2-carboxylic acid, 6,6-dibromo-3,3-dimethyl-7-oxo-, 4,4-dioxide, (2<em>S</em>,5<em>R</em>)-;4-Thia-1-azabicyclo[3.2.0]heptane-2-carboxylic acid, 6,6-dibromo-3,3-dimethyl-7-oxo-, 4,4-dioxide, (2<em>S</em>-<em>cis</em>)-;6,6-Dibromopenicillanic acid 1,1-dioxide;6,6-Dibromopenicillanic acid <em>S</em>,<em>S</em>-dioxide",
    "duplicated_cas_no": "127140-70-9",
    "SMILES": "O=S1(=O)[C@]2(N([C@@H](C(O)=O)C1(C)C)C(=O)C2(Br)Br)[H]",
    "meta_data": {
        "InChI": "InChI=1S/C8H9Br2NO5S/c1-7(2)3(4(12)13)11-5(14)8(9,10)6(11)17(7,15)16/h3,6H,1-2H3,(H,12,13)/t3-,6+/m0/s1",
        "InChIKey": null,
        "Canonical SMILES": "O=C(O)C1N2C(=O)C(Br)(Br)C2S(=O)(=O)C1(C)C",
        "Molecular Formula": "C<sub>8</sub>H<sub>9</sub>Br<sub>2</sub>NO<sub>5</sub>S",
        "Molecular Mass": "391.03",
        "Melting Point": "177-178 °C (decomp)"
    }
}