{
    "cas_no": "16932-45-9",
    "key_name": "2-Bromo-1,3-dimethoxybenzene",
    "cn_name": "1-溴-2,6-二甲氧基苯;",
    "alternate_name": "Benzene, 2-bromo-1,3-dimethoxy-;2-Bromo-1,3-dimethoxybenzene;1-Bromo-2,6-dimethoxybenzene;2,6-Dimethoxybromobenzene;2-Bromo-3-methoxyanisole;1,3-Dimethoxy-2-bromobenzene;2,6-Dimethoxy-1-bromobenzene",
    "duplicated_cas_no": "",
    "SMILES": "O(C)C1=C(Br)C(OC)=CC=C1",
    "meta_data": {
        "InChI": "InChI=1S/C8H9BrO2/c1-10-6-4-3-5-7(11-2)8(6)9/h3-5H,1-2H3",
        "InChIKey": null,
        "Canonical SMILES": "BrC=1C(OC)=CC=CC1OC",
        "Molecular Formula": "C<sub>8</sub>H<sub>9</sub>BrO<sub>2</sub>",
        "Molecular Mass": "217.06",
        "Boiling Point": "273 °C @ Press: 760 Torr",
        "Melting Point": "94-95 °C"
    }
}