{
    "cas_no": "75-88-7",
    "key_name": "2-Chloro-1,1,1-trifluoroethane",
    "cn_name": null,
    "alternate_name": "Ethane, 2-chloro-1,1,1-trifluoro-;2-Chloro-1,1,1-trifluoroethane;1,1,1-Trifluoroethyl chloride;Genetron 133a;1-Chloro-2,2,2-trifluoroethane;1,1,1-Trifluoro-2-chloroethane;R 133a;2,2,2-Trifluorochloroethane;FC 133a;Freon 133a;2,2,2-Trifluoroethyl chloride;1,1,1-Trifluorochloroethane;(Chloromethyl)trifluoromethane;HCFC 133a;F 133a;Forane 133a;2,2,2-Trifluoro-1-chloroethane",
    "duplicated_cas_no": "",
    "SMILES": "C(CCl)(F)(F)F",
    "meta_data": {
        "InChI": "InChI=1S/C2H2ClF3/c3-1-2(4,5)6/h1H2",
        "InChIKey": null,
        "Canonical SMILES": "FC(F)(F)CCl",
        "Molecular Formula": "C<sub>2</sub>H<sub>2</sub>ClF<sub>3</sub>",
        "Molecular Mass": "118.49",
        "Boiling Point": "6.1 °C",
        "Melting Point": "-105.3 °C",
        "Density": "1.389 g/cm³ @ Temp: 0 °C"
    }
}