{
    "cas_no": "5717-37-3",
    "key_name": "(Carbethoxyethylidene)triphenylphosphorane",
    "cn_name": "乙氧甲酰基亚乙基三苯基膦;(1-乙氧基羰基乙缩醛)三苯基溴化磷;",
    "alternate_name": "Propanoic acid, 2-(triphenylphosphoranylidene)-, ethyl ester;Propionic acid, 2-(triphenylphosphoranylidene)-, ethyl ester;Ethyl 2-(triphenylphosphoranylidene)propionate;1-(Ethoxycarbonyl)ethylidenetriphenylphosphorane;Ethyl 2-(triphenylphosphoranylidene)propanoate;Triphenyl-α-ethoxycarbonylethylidenephosphorane;2-(Triphenylphosphoranylidene)propanoic acid ethyl ester;[α-(Ethoxycarbonyl)ethylidene]triphenylphosphorane;α-(ethoxycarbonyl)ethylenetriphenylphosphorane;1-Carboethoxyethylidenetriphenylphosphorane;(Carbethoxyethylidene)triphenylphosphorane;NSC 76468;Ethyl methyltriphenylphosphoranylideneacetate;(1-[Ethoxycarbonyl]ethylidene)triphenylphosphoran;((Ethoxycarbonyl)ethylidene)triphenylphosphorane;Ethyl 2-(triphenyl-λ<sup>5</sup>-phosphanylidene)propanoate;2-(Triphenyl-λ*5*-phosphanylidene)-propionic acid ethyl ester;Ethyl 2-(triphenylphosphanylidene)propanoate",
    "duplicated_cas_no": "",
    "SMILES": "P(=C(C(OCC)=O)C)(C1=CC=CC=C1)(C2=CC=CC=C2)C3=CC=CC=C3",
    "meta_data": {
        "InChI": "InChI=1S/C23H23O2P/c1-3-25-23(24)19(2)26(20-13-7-4-8-14-20,21-15-9-5-10-16-21)22-17-11-6-12-18-22/h4-18H,3H2,1-2H3",
        "InChIKey": null,
        "Canonical SMILES": "O=C(OCC)C(C)=P(C=1C=CC=CC1)(C=2C=CC=CC2)C=3C=CC=CC3",
        "Molecular Formula": "C<sub>23</sub>H<sub>23</sub>O<sub>2</sub>P",
        "Molecular Mass": "362.40",
        "Melting Point": "156-157 °C"
    }
}