{
    "cas_no": "123-02-4",
    "key_name": "Tridecylbenzene",
    "cn_name": null,
    "alternate_name": "Benzene, tridecyl-;Tridecane, 1-phenyl-;Tridecylbenzene;Detergent Alkylate No. 5;1-Phenyltridecane;1-Phenyl-<em>n</em>-tridecane;<em>n</em>-Tridecylbenzene;Tridecylbenzol",
    "duplicated_cas_no": "",
    "SMILES": "C(CCCCCCCCCCCC)C1=CC=CC=C1",
    "meta_data": {
        "InChI": "InChI=1S/C19H32/c1-2-3-4-5-6-7-8-9-10-11-13-16-19-17-14-12-15-18-19/h12,14-15,17-18H,2-11,13,16H2,1H3",
        "InChIKey": null,
        "Canonical SMILES": "C=1C=CC(=CC1)CCCCCCCCCCCCC",
        "Molecular Formula": "C<sub>19</sub>H<sub>32</sub>",
        "Molecular Mass": "260.46",
        "Boiling Point": "346 °C",
        "Melting Point": "10 °C",
        "Density": "0.8550 g/cm³ @ Temp: 25 °C"
    }
}