{
    "cas_no": "19788-49-9",
    "key_name": "Ethyl 2-mercaptopropionate",
    "cn_name": "2-巯基丙酸乙酯;",
    "alternate_name": "Propanoic acid, 2-mercapto-, ethyl ester;Propionic acid, 2-mercapto-, ethyl ester;Ethyl 2-mercaptopropionate;Ethyl α-mercaptopropionate;2-Mercaptopropionic acid ethyl ester;Ethyl 2-mercaptopropanoate;(±)-2-Mercaptopropionic acid ethyl ester;α-Mercaptopropionic acid ethyl ester;2-Mercaptopropanoic acid ethyl ester;Ethyl 2-sulfanylpropanoate",
    "duplicated_cas_no": "66707-26-4",
    "SMILES": "C(OCC)(C(C)S)=O",
    "meta_data": {
        "InChI": "InChI=1S/C5H10O2S/c1-3-7-5(6)4(2)8/h4,8H,3H2,1-2H3",
        "InChIKey": null,
        "Canonical SMILES": "O=C(OCC)C(S)C",
        "Molecular Formula": "C<sub>5</sub>H<sub>10</sub>O<sub>2</sub>S",
        "Molecular Mass": "134.20",
        "Boiling Point": "40-41 °C @ Press: 1 Torr"
    }
}