{
    "cas_no": "74896-14-3",
    "key_name": "Bicyclo[3.2.1]octane-2,4-dione",
    "cn_name": null,
    "alternate_name": "Bicyclo[3.2.1]octane-2,4-dione",
    "duplicated_cas_no": "",
    "SMILES": "O=C1C2CC(CC2)C(=O)C1",
    "meta_data": {
        "InChI": "InChI=1S/C8H10O2/c9-7-4-8(10)6-2-1-5(7)3-6/h5-6H,1-4H2",
        "InChIKey": null,
        "Canonical SMILES": "O=C1CC(=O)C2CCC1C2",
        "Molecular Formula": "C<sub>8</sub>H<sub>10</sub>O<sub>2</sub>",
        "Molecular Mass": "138.16",
        "Melting Point": "123.5 °C"
    }
}