{
    "cas_no": "117-08-8",
    "key_name": "Tetrachlorophthalic anhydride",
    "cn_name": "四氯邻苯二甲酸酐;四氯苯酐;",
    "alternate_name": "1,3-Isobenzofurandione, 4,5,6,7-tetrachloro-;Phthalic anhydride, tetrachloro-;4,5,6,7-Tetrachloro-1,3-isobenzofurandione;Niagathal;Tetrachlorophthalic anhydride;1,3-Dioxy-4,5,6,7-tetrachloroisobenzofuran;3,4,5,6-Tetrachlorophthalic anhydride;Tetrachlorophthalic acid anhydride;NSC 1484;4,5,6,7-Tetrachloroisobenzofuran-1,3-dione",
    "duplicated_cas_no": "858829-10-4;204975-24-6",
    "SMILES": "ClC1=C2C(=C(Cl)C(Cl)=C1Cl)C(=O)OC2=O",
    "meta_data": {
        "InChI": "InChI=1S/C8Cl4O3/c9-3-1-2(8(14)15-7(1)13)4(10)6(12)5(3)11",
        "InChIKey": null,
        "Canonical SMILES": "O=C1OC(=O)C=2C(Cl)=C(Cl)C(Cl)=C(Cl)C12",
        "Molecular Formula": "C<sub>8</sub>Cl<sub>4</sub>O<sub>3</sub>",
        "Molecular Mass": "285.90",
        "Boiling Point": "371 °C",
        "Melting Point": "255-256.5 °C"
    }
}