{
    "cas_no": "151257-01-1",
    "key_name": "1,3-Diazaspiro[4.4]non-1-en-4-one, 2-butyl-, hydrochloride (1:1)",
    "cn_name": "2-丁基-1,3-二氮杂螺环[4,4]壬-1-烯-4-酮盐酸盐;厄贝侧链盐酸盐;",
    "alternate_name": "1,3-Diazaspiro[4.4]non-1-en-4-one, 2-butyl-, hydrochloride (1:1);1,3-Diazaspiro[4.4]non-1-en-4-one, 2-butyl-, monohydrochloride;2-Butyl-1,3-diazaspiro[4.4]non-1-en-4-one hydrochloride",
    "duplicated_cas_no": "",
    "SMILES": "O=C1C2(NC(CCCC)=N1)CCCC2.Cl",
    "meta_data": {
        "InChI": "InChI=1S/C11H18N2O.ClH/c1-2-3-6-9-12-10(14)11(13-9)7-4-5-8-11;/h2-8H2,1H3,(H,12,13,14);1H",
        "InChIKey": null,
        "Canonical SMILES": "Cl.O=C1N=C(NC12CCCC2)CCCC",
        "Molecular Formula": "C<sub>11</sub>H<sub>18</sub>N<sub>2</sub>O.ClH",
        "Molecular Mass": "",
        "Melting Point": "68 °C"
    }
}