{
    "cas_no": "4165-57-5",
    "key_name": "Bromobenzene-<em>d</em><sub>5</sub>",
    "cn_name": null,
    "alternate_name": "Benzene-<em>1</em>,<em>2</em>,<em>3</em>,<em>4</em>,<em>5</em>-<em>d</em><sub>5</sub>, 6-bromo-;Benzene-<em>d</em><sub>5</sub>, bromo-;6-Bromobenzene-<em>1</em>,<em>2</em>,<em>3</em>,<em>4</em>,<em>5</em>-<em>d</em><sub>5</sub>;Bromobenzene-<em>d</em><sub>5</sub>;Bromopentadeuteriobenzene;Perdeuteriobromobenzene;Pentadeuterophenyl bromide;Bromopentadeuterobenzene;<em>d</em><sub>5</sub>-Bromobenzene;1-Bromobenzene-<em>2</em>,<em>3</em>,<em>4</em>,<em>5</em>,<em>6</em>-<em>d</em><sub>5</sub>;Pentadeutero-1-bromobenzene;1-Bromo-2,3,4,5,6-pentadeuterobenzene;2,3,4,5,6-Pentadeutero-1-bromobenzene;1-Bromoperdeuterobenzene",
    "duplicated_cas_no": "",
    "SMILES": "BrC1=C(C(=C(C(=C1[2H])[2H])[2H])[2H])[2H]",
    "meta_data": {
        "InChI": "InChI=1S/C6H5Br/c7-6-4-2-1-3-5-6/h1-5H/i1D,2D,3D,4D,5D",
        "InChIKey": null,
        "Canonical SMILES": "BrC=1C=CC=CC1",
        "Molecular Formula": "C<sub>6</sub>BrD<sub>5</sub>",
        "Molecular Mass": "",
        "Boiling Point": "88-89 °C @ Press: 100 Torr"
    }
}