{
    "cas_no": "186685-89-2",
    "key_name": "2-(4-Formyl-2-methoxyphenoxy)acetamide",
    "cn_name": null,
    "alternate_name": "Acetamide, 2-(4-formyl-2-methoxyphenoxy)-;2-(4-Formyl-2-methoxyphenoxy)acetamide",
    "duplicated_cas_no": "",
    "SMILES": "O(CC(N)=O)C1=C(OC)C=C(C=O)C=C1",
    "meta_data": {
        "InChI": "InChI=1S/C10H11NO4/c1-14-9-4-7(5-12)2-3-8(9)15-6-10(11)13/h2-5H,6H2,1H3,(H2,11,13)",
        "InChIKey": null,
        "Canonical SMILES": "O=CC1=CC=C(OCC(=O)N)C(OC)=C1",
        "Molecular Formula": "C<sub>10</sub>H<sub>11</sub>NO<sub>4</sub>",
        "Molecular Mass": "209.20",
        "Melting Point": "84-85 °C"
    }
}