{
    "cas_no": "18594-05-3",
    "key_name": "1-(4-Cyclohexylphenyl)ethanone",
    "cn_name": "4\"-环己基苯乙酮;4-环己基树脂;4\"-环己基苯乙酮;4-环己基苯乙酮;",
    "alternate_name": "Ethanone, 1-(4-cyclohexylphenyl)-;Acetophenone, 4′-cyclohexyl-;1-(4-Cyclohexylphenyl)ethanone;4-Cyclohexylacetophenone;<em>p</em>-Cyclohexylacetophenone;4′-Cyclohexylacetophenone;1-(4-Cyclohexylphenyl)ethan-1-one",
    "duplicated_cas_no": "",
    "SMILES": "C(C)(=O)C1=CC=C(C=C1)C2CCCCC2",
    "meta_data": {
        "InChI": "InChI=1S/C14H18O/c1-11(15)12-7-9-14(10-8-12)13-5-3-2-4-6-13/h7-10,13H,2-6H2,1H3",
        "InChIKey": null,
        "Canonical SMILES": "O=C(C1=CC=C(C=C1)C2CCCCC2)C",
        "Molecular Formula": "C<sub>14</sub>H<sub>18</sub>O",
        "Molecular Mass": "202.29",
        "Boiling Point": "165-173 °C @ Press: 10 Torr",
        "Melting Point": "68-69 °C",
        "Density": "1.0509 g/cm³ @ Temp: 20 °C"
    }
}