{
    "cas_no": "7789-68-6",
    "key_name": "Titanium tetrabromide",
    "cn_name": "溴化钛(IV);溴化钛;溴化钛(IV);",
    "alternate_name": "Titanium bromide (TiBr<sub>4</sub>), (<em>T</em>-4)-;Titanium bromide (TiBr<sub>4</sub>);Titanium tetrabromide;Tetrabromotitanium;Titanium(IV) bromide",
    "duplicated_cas_no": "",
    "SMILES": "[Ti](Br)(Br)(Br)Br",
    "meta_data": {
        "InChI": "InChI=1S/4BrH.Ti/h4*1H;/q;;;;+4/p-4",
        "InChIKey": null,
        "Canonical SMILES": "Br[Ti](Br)(Br)Br",
        "Molecular Formula": "Br<sub>4</sub>Ti",
        "Molecular Mass": "",
        "Boiling Point": "230 °C @ Press: 757 Torr",
        "Melting Point": "39 °C",
        "Density": "3.25 g/cm³ @ Temp: 20 °C"
    }
}