{
    "cas_no": "19666-30-9",
    "key_name": "Oxadiazon",
    "cn_name": "恶草酮;5-叔丁基-3-(2,4-二氯-5-异丙氧苯基)-1,3,4-噁二唑啉-2-酮;",
    "alternate_name": "1,3,4-Oxadiazol-2(3<em>H</em>)-one, 3-[2,4-dichloro-5-(1-methylethoxy)phenyl]-5-(1,1-dimethylethyl)-;Δ<sup>2</sup>-1,3,4-Oxadiazolin-5-one, 2-<em>tert</em>-butyl-4-(2,4-dichloro-5-isopropoxyphenyl)-;3-[2,4-Dichloro-5-(1-methylethoxy)phenyl]-5-(1,1-dimethylethyl)-1,3,4-oxadiazol-2(3<em>H</em>)-one;RP 17623;2-<em>tert</em>-Butyl-4-(2,4-dichloro-5-isopropoxyphenyl)-5-oxo-1,3,4-oxadiazoline;2-<em>tert</em>-Butyl-4-(2,4-dichloro-5-isopropyloxyphenyl)-5-oxo-1,3,4-oxadiazoline;Oxadiazone;2-<em>tert</em>-Butyl-4-(2,4-dichloro-5-isopropoxyphenyl)-1,3,4-oxadiazolin-5-one;Oxadiazon;Ronstar;G 315;Kensogen Ti;Foresite;Ronstar 380 SC",
    "duplicated_cas_no": "11099-67-5;12715-16-1",
    "SMILES": "O=C1N(N=C(C(C)(C)C)O1)C2=CC(OC(C)C)=C(Cl)C=C2Cl",
    "meta_data": {
        "InChI": "InChI=1S/C15H18Cl2N2O3/c1-8(2)21-12-7-11(9(16)6-10(12)17)19-14(20)22-13(18-19)15(3,4)5/h6-8H,1-5H3",
        "InChIKey": null,
        "Canonical SMILES": "O=C1OC(=NN1C2=CC(OC(C)C)=C(Cl)C=C2Cl)C(C)(C)C",
        "Molecular Formula": "C<sub>15</sub>H<sub>18</sub>Cl<sub>2</sub>N<sub>2</sub>O<sub>3</sub>",
        "Molecular Mass": "345.22",
        "Melting Point": "90 °C",
        "Density": "1 x 10<sup>-6</sup> g/cm³"
    }
}