{
    "cas_no": "90-66-4",
    "key_name": "2,2′-Thiobis(4-methyl-6-<em>tert</em>-butylphenol)",
    "cn_name": "抗氧剂LK-1081;2,2\"-硫代双(4-甲基-6-特丁基苯酚);",
    "alternate_name": "Phenol, 2,2′-thiobis[6-(1,1-dimethylethyl)-4-methyl-;<em>p</em>-Cresol, 2,2′-thiobis[6-<em>tert</em>-butyl-;2,2′-Thiobis[6-(1,1-dimethylethyl)-4-methylphenol];Advastab 406;Bis(5-methyl-3-<em>tert</em>-butyl-2-hydroxyphenyl) sulfide;Thioalkofen BP;2,2′-Thiobis(6-<em>tert</em>-butyl-<em>p</em>-cresol);2,2′-Thiobis(6-<em>tert</em>-butyl-4-methylphenol);Bis(5-methyl-3-<em>tert</em>-butyl-2-hydroxyphenyl) monosulfide;CAO 6;2,2′-Thiobis(4-methyl-6-<em>tert</em>-butylphenol);Thioalkophene BP;Bis(3-<em>tert</em>-butyl-2-hydroxy-5-methylphenyl) sulfide;Bis(5-methyl-3-<em>tert</em>-butyl-2-oxyphenyl) monosulfide;CAO 4;SAO 6;Irganox 1081;2,2′-Dihydroxy-3,3′-di-<em>tert</em>-butyl-5,5′-dimethyldiphenyl sulfide;Bis(2-hydroxy-3-<em>tert</em>-butyl-5-methylphenyl) sulfide;Keminox 246T;Lowinox TBP 6;NSC 67488;Irganox 1081FF;Durad AX 18;2,2′-Thiobis(4-methyl-6-t-butylphenol);Antioxidant 2246S;2246S;2,2′-Thiobis(6-tert-butyl-p-cresol);2,2′-Thiobis(6-<em>t</em>ert-butyl-4- methylphenol);2-<em>tert</em>-Butyl-6-(3-<em>tert</em>-butyl-2-hydroxy-5-methylphenyl)sulfanyl-4-methylphenol",
    "duplicated_cas_no": "42612-57-7;209534-21-4;905570-42-5",
    "SMILES": "S(C1=C(O)C(C(C)(C)C)=CC(C)=C1)C2=C(O)C(C(C)(C)C)=CC(C)=C2",
    "meta_data": {
        "InChI": "InChI=1S/C22H30O2S/c1-13-9-15(21(3,4)5)19(23)17(11-13)25-18-12-14(2)10-16(20(18)24)22(6,7)8/h9-12,23-24H,1-8H3",
        "InChIKey": null,
        "Canonical SMILES": "OC1=C(SC=2C=C(C=C(C2O)C(C)(C)C)C)C=C(C=C1C(C)(C)C)C",
        "Molecular Formula": "C<sub>22</sub>H<sub>30</sub>O<sub>2</sub>S",
        "Molecular Mass": "358.54",
        "Melting Point": "84-85 °C"
    }
}