{
    "cas_no": "2189-26-6",
    "key_name": "Glycyl-<span class=\"text-smallcaps\">DL</span>-tryptophan",
    "cn_name": "甘氨酰-DL-色氨酸;",
    "alternate_name": "Tryptophan, glycyl-;Tryptophan, <em>N</em>-glycyl-, <span class=\"text-smallcaps\">DL</span>-;<span class=\"text-smallcaps\">DL</span>-Tryptophan, <em>N</em>-glycyl-;Glycyltryptophan;Glycyl-<span class=\"text-smallcaps\">DL</span>-tryptophan;<span class=\"text-smallcaps\">DL</span>-Glycyltryptophan;NSC 119997;2-(2-Aminoacetamido)-3-(1<em>H</em>-indol-3-yl)propanoic acid;2-[(2-Azaniumylacetyl)amino]-3-(1<em>H</em>-indol-3-yl)propanoate",
    "duplicated_cas_no": "1432-27-5",
    "SMILES": "C(C(NC(CN)=O)C(O)=O)C=1C=2C(NC1)=CC=CC2",
    "meta_data": {
        "InChI": "InChI=1S/C13H15N3O3/c14-6-12(17)16-11(13(18)19)5-8-7-15-10-4-2-1-3-9(8)10/h1-4,7,11,15H,5-6,14H2,(H,16,17)(H,18,19)",
        "InChIKey": null,
        "Canonical SMILES": "O=C(O)C(NC(=O)CN)CC1=CNC=2C=CC=CC21",
        "Molecular Formula": "C<sub>13</sub>H<sub>15</sub>N<sub>3</sub>O<sub>3</sub>",
        "Molecular Mass": "261.28",
        "Melting Point": "~280 °C (decomp) (approx)"
    }
}