{
    "cas_no": "541-41-3",
    "key_name": "Ethyl chloroformate",
    "cn_name": "氯甲酸乙酯;",
    "alternate_name": "Carbonochloridic acid, ethyl ester;Formic acid, chloro-, ethyl ester;Chloroformic acid ethyl ester;Ethyl chlorocarbonate;Ethyl chloroformate;Chlorocarbonic acid ethyl ester;Ethoxycarbonyl chloride;Cathyl chloride;Ethyl carbonochloridate;Ethyl chloridocarbonate;Chloro ethyl formate",
    "duplicated_cas_no": "52803-29-9;503842-49-7",
    "SMILES": "O(C(Cl)=O)CC",
    "meta_data": {
        "InChI": "InChI=1S/C3H5ClO2/c1-2-6-3(4)5/h2H2,1H3",
        "InChIKey": null,
        "Canonical SMILES": "O=C(Cl)OCC",
        "Molecular Formula": "C<sub>3</sub>H<sub>5</sub>ClO<sub>2</sub>",
        "Molecular Mass": "108.52",
        "Boiling Point": "95 °C @ Press: 760 Torr",
        "Melting Point": "-80.6 °C",
        "Density": "1.1403 g/cm³ @ Temp: 20 °C"
    }
}