{
    "cas_no": "508-09-8",
    "key_name": "(8α,9β,10α,13α,14β)-9,13-Dimethyl-25,26-dinorolean-5-en-3-one",
    "cn_name": null,
    "alternate_name": "25,26-Dinorolean-5-en-3-one, 9,13-dimethyl-, (8α,9β,10α,13α,14β)-;<em>D</em>:<em>B</em>-Friedoolean-5-en-3-one;Alnusenone;(8α,9β,10α,13α,14β)-9,13-Dimethyl-25,26-dinorolean-5-en-3-one;Glutinone;Glut-5(6)-en-3-one;Alnusenon;Glutinon;Glut-5-en-3-one;Glutinone (triterpene);3(2<em>H</em>)-Picenone, 1,4,6,6a,6b,7,8,8a,9,10,11,12,12a,12b,13,14,14a,14b-octadecahydro-4,4,6b,8a,11,11,12b,14a-octamethyl-, [6a<em>S</em>-(6aα,6bβ,8aβ,12aβ,12bα,14aβ,14bα)]-;3(2<em>H</em>)-Picenone, 1,4,6,6a,6b,7,8,8a,9,10,11,12,12a,12b,13,14,14a,14b-octadecahydro-4,4,6b,8a,11,11,12b,14a-octamethyl-, (6a<em>S</em>,6b<em>R</em>,8a<em>R</em>,12a<em>R</em>,12b<em>S</em>,14a<em>R</em>,14b<em>S</em>)-;Gluteon",
    "duplicated_cas_no": "161064-24-0",
    "SMILES": "C[C@@]12[C@](C)([C@]3([C@@](C)(CC1)CCC(C)(C)C3)[H])CC[C@]4(C)[C@@]2(CC=C5[C@]4(CCC(=O)C5(C)C)[H])[H]",
    "meta_data": {
        "InChI": "InChI=1S/C30H48O/c1-25(2)13-14-27(5)15-17-29(7)22-11-9-20-21(10-12-24(31)26(20,3)4)28(22,6)16-18-30(29,8)23(27)19-25/h9,21-23H,10-19H2,1-8H3/t21-,22+,23-,27-,28+,29-,30+/m1/s1",
        "InChIKey": null,
        "Canonical SMILES": "O=C1CCC2C(=CCC3C2(C)CCC4(C)C5CC(C)(C)CCC5(C)CCC34C)C1(C)C",
        "Molecular Formula": "C<sub>30</sub>H<sub>48</sub>O",
        "Molecular Mass": "424.70",
        "Melting Point": "245-246 °C"
    }
}