{
    "cas_no": "33795-18-5",
    "key_name": "4-Hydroxybenzenephosphonic acid",
    "cn_name": null,
    "alternate_name": "Phosphonic acid, <em>P</em>-(4-hydroxyphenyl)-;Phosphonic acid, (<em>p</em>-hydroxyphenyl)-;Phosphonic acid, (4-hydroxyphenyl)-;<em>P</em>-(4-Hydroxyphenyl)phosphonic acid;(<em>p</em>-Hydroxyphenyl)phosphonic acid;4-Hydroxyphenylphosphonic acid;4-Hydroxybenzenephosphonic acid",
    "duplicated_cas_no": "",
    "SMILES": "P(=O)(O)(O)C1=CC=C(O)C=C1",
    "meta_data": {
        "InChI": "InChI=1S/C6H7O4P/c7-5-1-3-6(4-2-5)11(8,9)10/h1-4,7H,(H2,8,9,10)",
        "InChIKey": null,
        "Canonical SMILES": "O=P(O)(O)C1=CC=C(O)C=C1",
        "Molecular Formula": "C<sub>6</sub>H<sub>7</sub>O<sub>4</sub>P",
        "Molecular Mass": "174.09",
        "Melting Point": "177 °C"
    }
}