{
    "cas_no": "13047-13-7",
    "key_name": "Dimezone S",
    "cn_name": "菲尼酮S;4-羟甲基-4-甲基-1-苯基-3-吡唑烷酮;",
    "alternate_name": "3-Pyrazolidinone, 4-(hydroxymethyl)-4-methyl-1-phenyl-;4-(Hydroxymethyl)-4-methyl-1-phenyl-3-pyrazolidinone;1-Phenyl-4-methyl-4-(hydroxymethyl)-3-pyrazolidinone;1-Phenyl-4-(hydroxymethyl)-4-methyl-3-pyrazolidone;4-(Hydroxymethyl)-4-methyl-1-phenyl-3-pyrazolidone;Dimezone S;1-Phenyl-4-methyl-4-(hydroxymethyl)-3-pyrazolidone;Phenidone S",
    "duplicated_cas_no": "72314-70-6;72395-79-0",
    "SMILES": "C(O)C1(C)CN(NC1=O)C2=CC=CC=C2",
    "meta_data": {
        "InChI": "InChI=1S/C11H14N2O2/c1-11(8-14)7-13(12-10(11)15)9-5-3-2-4-6-9/h2-6,14H,7-8H2,1H3,(H,12,15)",
        "InChIKey": null,
        "Canonical SMILES": "O=C1NN(C=2C=CC=CC2)CC1(C)CO",
        "Molecular Formula": "C<sub>11</sub>H<sub>14</sub>N<sub>2</sub>O<sub>2</sub>",
        "Molecular Mass": "206.24",
        "Melting Point": "121.8-123.3 °C"
    }
}