{
    "cas_no": "19075-45-7",
    "key_name": "6-Bromobenzo[<em>b</em>]thiophene-2-carboxaldehyde",
    "cn_name": null,
    "alternate_name": "Benzo[<em>b</em>]thiophene-2-carboxaldehyde, 6-bromo-;6-Bromobenzo[<em>b</em>]thiophene-2-carboxaldehyde",
    "duplicated_cas_no": "",
    "SMILES": "C(=O)C1=CC=2C(S1)=CC(Br)=CC2",
    "meta_data": {
        "InChI": "InChI=1S/C9H5BrOS/c10-7-2-1-6-3-8(5-11)12-9(6)4-7/h1-5H",
        "InChIKey": null,
        "Canonical SMILES": "O=CC=1SC=2C=C(Br)C=CC2C1",
        "Molecular Formula": "C<sub>9</sub>H<sub>5</sub>BrOS",
        "Molecular Mass": "241.10",
        "Melting Point": "95-96 °C"
    }
}