{
    "cas_no": "658-78-6",
    "key_name": "Acetic acid, 2,2,2-trifluoro-, 4-nitrophenyl ester",
    "cn_name": "三氟乙酸对硝基苯酯;",
    "alternate_name": "Acetic acid, 2,2,2-trifluoro-, 4-nitrophenyl ester;Acetic acid, trifluoro-, <em>p</em>-nitrophenyl ester;Acetic acid, trifluoro-, 4-nitrophenyl ester;Trifluoroacetic acid <em>p</em>-nitrophenyl ester;4-Nitrophenyl trifluoroacetate;<em>p</em>-Nitrophenyl trifluoroacetate;NSC 93909;(4-Nitrophenyl) 2,2,2-trifluoroacetate",
    "duplicated_cas_no": "",
    "SMILES": "O(C(C(F)(F)F)=O)C1=CC=C(N(=O)=O)C=C1",
    "meta_data": {
        "InChI": "InChI=1S/C8H4F3NO4/c9-8(10,11)7(13)16-6-3-1-5(2-4-6)12(14)15/h1-4H",
        "InChIKey": null,
        "Canonical SMILES": "O=C(OC1=CC=C(C=C1)N(=O)=O)C(F)(F)F",
        "Molecular Formula": "C<sub>8</sub>H<sub>4</sub>F<sub>3</sub>NO<sub>4</sub>",
        "Molecular Mass": "235.12",
        "Melting Point": "37-39 °C"
    }
}