{
    "cas_no": "4901-51-3",
    "key_name": "2,3,4,5-Tetrachlorophenol",
    "cn_name": null,
    "alternate_name": "Phenol, 2,3,4,5-tetrachloro-;2,3,4,5-Tetrachlorophenol",
    "duplicated_cas_no": "",
    "SMILES": "ClC1=C(Cl)C(Cl)=C(O)C=C1Cl",
    "meta_data": {
        "InChI": "InChI=1S/C6H2Cl4O/c7-2-1-3(11)5(9)6(10)4(2)8/h1,11H",
        "InChIKey": null,
        "Canonical SMILES": "ClC=1C=C(O)C(Cl)=C(Cl)C1Cl",
        "Molecular Formula": "C<sub>6</sub>H<sub>2</sub>Cl<sub>4</sub>O",
        "Molecular Mass": "231.89",
        "Melting Point": "116.5 °C"
    }
}