{
    "cas_no": "85-18-7",
    "key_name": "8-Chlorotheophylline",
    "cn_name": "8-氯茶碱;8-氯-1,3-二甲基-2,6-(1H,3H)-嘌呤二酮;",
    "alternate_name": "1<em>H</em>-Purine-2,6-dione, 8-chloro-3,9-dihydro-1,3-dimethyl-;Theophylline, 8-chloro-;1<em>H</em>-Purine-2,6-dione, 8-chloro-3,7-dihydro-1,3-dimethyl-;8-Chloro-3,9-dihydro-1,3-dimethyl-1<em>H</em>-purine-2,6-dione;8-Chlorotheophylline;1,3-Dimethyl-8-chloroxanthine;8-Chloro-1,3-dimethylxanthine;NSC 6113",
    "duplicated_cas_no": "133294-21-0;858452-96-7",
    "SMILES": "O=C1C2=C(N(C)C(=O)N1C)N=C(Cl)N2",
    "meta_data": {
        "InChI": "InChI=1S/C7H7ClN4O2/c1-11-4-3(9-6(8)10-4)5(13)12(2)7(11)14/h1-2H3,(H,9,10)",
        "InChIKey": null,
        "Canonical SMILES": "O=C1C=2NC(Cl)=NC2N(C(=O)N1C)C",
        "Molecular Formula": "C<sub>7</sub>H<sub>7</sub>ClN<sub>4</sub>O<sub>2</sub>",
        "Molecular Mass": "214.61",
        "Melting Point": "290 °C (decomp)"
    }
}