{
    "cas_no": "121-29-9",
    "key_name": "Pyrethrin II",
    "cn_name": null,
    "alternate_name": "Cyclopropanecarboxylic acid, 3-[(1<em>E</em>)-3-methoxy-2-methyl-3-oxo-1-propen-1-yl]-2,2-dimethyl-, (1<em>S</em>)-2-methyl-4-oxo-3-(2<em>Z</em>)-2,4-pentadien-1-yl-2-cyclopenten-1-yl ester, (1<em>R</em>,3<em>R</em>)-;Pyrethrin II;Cyclopropaneacrylic acid, 3-carboxy-α,2,2-trimethyl-, 1-methyl ester, ester with 4-hydroxy-3-methyl-2-(2,4-pentadienyl)-2-cyclopenten-1-one;Cyclopropanecarboxylic acid, 3-(3-methoxy-2-methyl-3-oxo-1-propenyl)-2,2-dimethyl-, 2-methyl-4-oxo-3-(2,4-pentadienyl)-2-cyclopenten-1-yl ester, [1<em>R</em>-[1α[<em>S</em>*(<em>Z</em>)],3β(<em>E</em>)]]-;Cyclopropanecarboxylic acid, 3-[(1<em>E</em>)-3-methoxy-2-methyl-3-oxo-1-propenyl]-2,2-dimethyl-, (1<em>S</em>)-2-methyl-4-oxo-3-(2<em>Z</em>)-2,4-pentadienyl-2-cyclopenten-1-yl ester, (1<em>R</em>,3<em>R</em>)-;Pyrethrin;Pyrethrin 2;(+)-Pyrethronyl (+)-pyrethrate;Biospray S;Pyrethrum mist;Pyrethrin B",
    "duplicated_cas_no": "39668-02-5",
    "SMILES": "C(=C(/C(OC)=O)\\C)\\[C@@H]1[C@@H](C(O[C@@H]2C(C)=C(C/C=C\\C=C)C(=O)C2)=O)C1(C)C",
    "meta_data": {
        "InChI": "InChI=1S/C22H28O5/c1-7-8-9-10-15-14(3)18(12-17(15)23)27-21(25)19-16(22(19,4)5)11-13(2)20(24)26-6/h7-9,11,16,18-19H,1,10,12H2,2-6H3/b9-8-,13-11+/t16-,18+,19+/m1/s1",
        "InChIKey": null,
        "Canonical SMILES": "O=C(OC)C(=CC1C(C(=O)OC2C(=C(C(=O)C2)CC=CC=C)C)C1(C)C)C",
        "Molecular Formula": "C<sub>22</sub>H<sub>28</sub>O<sub>5</sub>",
        "Molecular Mass": "372.45",
        "Boiling Point": "192-193 °C @ Press: 7 x 10<sup>-3</sup> Torr"
    }
}