{
    "cas_no": "151-13-3",
    "key_name": "Butyl ricinoleate",
    "cn_name": null,
    "alternate_name": "9-Octadecenoic acid, 12-hydroxy-, butyl ester, (9<em>Z</em>,12<em>R</em>)-;Ricinoleic acid, butyl ester;9-Octadecenoic acid, 12-hydroxy-, butyl ester, [<em>R</em>-(<em>Z</em>)]-;<em>n</em>-Butyl ricinoleate;Butyl ricinoleate;Flexricin P 3;Butyl ricinolate",
    "duplicated_cas_no": "",
    "SMILES": "C([C@@H](CCCCCC)O)/C=C\\CCCCCCCC(OCCCC)=O",
    "meta_data": {
        "InChI": "InChI=1S/C22H42O3/c1-3-5-7-14-17-21(23)18-15-12-10-8-9-11-13-16-19-22(24)25-20-6-4-2/h12,15,21,23H,3-11,13-14,16-20H2,1-2H3/b15-12-/t21-/m1/s1",
        "InChIKey": null,
        "Canonical SMILES": "O=C(OCCCC)CCCCCCCC=CCC(O)CCCCCC",
        "Molecular Formula": "C<sub>22</sub>H<sub>42</sub>O<sub>3</sub>",
        "Molecular Mass": "354.57",
        "Boiling Point": "151-153 °C"
    }
}