{
    "cas_no": "2208-07-3",
    "key_name": "Ethanimidic acid, ethyl ester, hydrochloride (1:1)",
    "cn_name": "乙基乙酰亚胺盐酸盐;乙亚氨酸乙酯盐酸盐;",
    "alternate_name": "Ethanimidic acid, ethyl ester, hydrochloride (1:1);Acetimidic acid, ethyl ester, hydrochloride;Ethanimidic acid, ethyl ester, hydrochloride;Ethyl acetimidate hydrochloride;Ethyl iminoacetate hydrochloride;Ethyl acetocarboximidate hydrochloride;Ethyl ethanimidate hydrochloride;Ethyl acetoimidate hydrochloride;Ethyl acetoamidate hydrochloride;Ethyl ethanimidoate hydrochloride",
    "duplicated_cas_no": "2571584-48-8",
    "SMILES": "O(C(C)=N)CC.Cl",
    "meta_data": {
        "InChI": "InChI=1S/C4H9NO.ClH/c1-3-6-4(2)5;/h5H,3H2,1-2H3;1H",
        "InChIKey": null,
        "Canonical SMILES": "Cl.N=C(OCC)C",
        "Molecular Formula": "C<sub>4</sub>H<sub>9</sub>NO.ClH",
        "Molecular Mass": "",
        "Melting Point": "110-115 °C"
    }
}