{
    "cas_no": "182415-24-3",
    "key_name": "5-(2-Thienyl)-1<em>H</em>-pyrazole-3-carboxylic acid",
    "cn_name": null,
    "alternate_name": "1<em>H</em>-Pyrazole-3-carboxylic acid, 5-(2-thienyl)-;5-(2-Thienyl)-1<em>H</em>-pyrazole-3-carboxylic acid;3-(2-Thienyl)pyrazole-5-carboxylic acid;5-(Thiophen-2-yl)-1<em>H</em>-pyrazole-3-carboxylic acid",
    "duplicated_cas_no": "887408-78-8;890006-87-8;1048924-57-7;1415401-33-0;2456317-27-2;2725956-33-0",
    "SMILES": "C(O)(=O)C=1C=C(NN1)C2=CC=CS2",
    "meta_data": {
        "InChI": "InChI=1S/C8H6N2O2S/c11-8(12)6-4-5(9-10-6)7-2-1-3-13-7/h1-4H,(H,9,10)(H,11,12)",
        "InChIKey": null,
        "Canonical SMILES": "O=C(O)C1=NNC(=C1)C=2SC=CC2",
        "Molecular Formula": "C<sub>8</sub>H<sub>6</sub>N<sub>2</sub>O<sub>2</sub>S",
        "Molecular Mass": "194.21",
        "Melting Point": "227 °C"
    }
}