{
    "cas_no": "1615-15-2",
    "key_name": "2-Methyl-1<em>H</em>-imidazole-1-ethanol",
    "cn_name": "1-(&beta;-羟乙基)-2-甲基咪唑;",
    "alternate_name": "1<em>H</em>-Imidazole-1-ethanol, 2-methyl-;Imidazole-1-ethanol, 2-methyl-;2-Methyl-1<em>H</em>-imidazole-1-ethanol;1-(β-Hydroxyethyl)-2-methylimidazole;1-(2-Hydroxyethyl)-2-methylimidazole;1-(2′-Hydroxyethyl)-2-methylimidazole;2-(2-Methyl-1<em>H</em>-imidazol-1-yl)ethanol;2-Methyl-1-(2-hydroxyethyl)imidazole;2-(2-Methyl-1<em>H</em>-imidazol-1-yl)ethan-1-ol;2-(2-Methylimidazol-1-yl)ethanol",
    "duplicated_cas_no": "",
    "SMILES": "C(CO)N1C(C)=NC=C1",
    "meta_data": {
        "InChI": "InChI=1S/C6H10N2O/c1-6-7-2-3-8(6)4-5-9/h2-3,9H,4-5H2,1H3",
        "InChIKey": null,
        "Canonical SMILES": "OCCN1C=CN=C1C",
        "Molecular Formula": "C<sub>6</sub>H<sub>10</sub>N<sub>2</sub>O",
        "Molecular Mass": "126.16",
        "Boiling Point": "130-133 °C @ Press: 0.15-0.25 Torr",
        "Melting Point": "63-65 °C"
    }
}