{
    "cas_no": "4640-41-9",
    "key_name": "4,5-Dichloro-3,6-dihydroxy-1,2-benzenedicarbonitrile",
    "cn_name": null,
    "alternate_name": "1,2-Benzenedicarbonitrile, 4,5-dichloro-3,6-dihydroxy-;Phthalonitrile, 4,5-dichloro-3,6-dihydroxy-;4,5-Dichloro-3,6-dihydroxy-1,2-benzenedicarbonitrile;2,3-Dichloro-5,6-dicyanohydroquinone;2,3-Dicyano-5,6-dichlorohydroquinone;DDHQ;2,3-Dichloro-5,6-dicyano-1,4-benzoquinol;4,5-Dichloro-3,6-dihydroxyphthalonitrile;2,3-Dichloro-5,6-dicyano-<em>p</em>-hydroquinone;2,3-Dichloro-5,6-dicyano-1,4-dihydroxybenzene;NSC 172566;2,3-Dichloro-5,6-dicyano-1,4-hydroquinone;4,5-Dichloro-3,6-dihydroxyphthalodinitrile",
    "duplicated_cas_no": "60510-07-8",
    "SMILES": "C(#N)C1=C(C#N)C(O)=C(Cl)C(Cl)=C1O",
    "meta_data": {
        "InChI": "InChI=1S/C8H2Cl2N2O2/c9-5-6(10)8(14)4(2-12)3(1-11)7(5)13/h13-14H",
        "InChIKey": null,
        "Canonical SMILES": "N#CC=1C(O)=C(Cl)C(Cl)=C(O)C1C#N",
        "Molecular Formula": "C<sub>8</sub>H<sub>2</sub>Cl<sub>2</sub>N<sub>2</sub>O<sub>2</sub>",
        "Molecular Mass": "229.02",
        "Melting Point": "265 °C (decomp)"
    }
}