{
    "cas_no": "6983-79-5",
    "key_name": "Bixin",
    "cn_name": null,
    "alternate_name": "2,4,6,8,10,12,14,16,18-Eicosanonaenedioic acid, 4,8,13,17-tetramethyl-, 1-methyl ester, (2<em>E</em>,4<em>Z</em>,6<em>E</em>,8<em>E</em>,10<em>E</em>,12<em>E</em>,14<em>E</em>,16<em>E</em>,18<em>E</em>)-;Bixin;6,6′-Diapo-ψ,ψ-carotenedioic acid, 6-methyl ester, 9-<em>cis</em>-;Bixin, <em>cis</em>-;2,4,6,8,10,12,14,16,18-Eicosanonaenedioic acid, 4,8,13,17-tetramethyl-, monomethyl ester, (2<em>E</em>,4<em>Z</em>,6<em>E</em>,8<em>E</em>,10<em>E</em>,12<em>E</em>,14<em>E</em>,16<em>E</em>,18<em>E</em>)-;Bixinol;<em>cis</em>-Bixin;α-Bixin;9′-<em>cis</em>-Bixin;AlcabixP",
    "duplicated_cas_no": "540-02-3;5798-55-0;11028-08-3;18615-31-1;34298-68-5;34315-14-5",
    "SMILES": "C(=C/C(=C/C=C/C=C(/C=C/C=C(/C=C/C(O)=O)\\C)\\C)/C)\\C=C(/C=C/C(OC)=O)\\C",
    "meta_data": {
        "InChI": "InChI=1S/C25H30O4/c1-20(12-8-14-22(3)16-18-24(26)27)10-6-7-11-21(2)13-9-15-23(4)17-19-25(28)29-5/h6-19H,1-5H3,(H,26,27)/b7-6+,12-8+,13-9+,18-16+,19-17+,20-10+,21-11+,22-14+,23-15-",
        "InChIKey": null,
        "Canonical SMILES": "O=C(O)C=CC(=CC=CC(=CC=CC=C(C=CC=C(C=CC(=O)OC)C)C)C)C",
        "Molecular Formula": "C<sub>25</sub>H<sub>30</sub>O<sub>4</sub>",
        "Molecular Mass": "394.50",
        "Melting Point": "198 °C"
    }
}