{
    "cas_no": "40789-98-8",
    "key_name": "3-Mercapto-2-butanone",
    "cn_name": "3-巯基-2-丁酮;",
    "alternate_name": "2-Butanone, 3-mercapto-;3-Mercapto-2-butanone;2-Mercapto-3-butanone;3-Sulfanylbutan-2-one",
    "duplicated_cas_no": "",
    "SMILES": "C(C(C)S)(C)=O",
    "meta_data": {
        "InChI": "InChI=1S/C4H8OS/c1-3(5)4(2)6/h4,6H,1-2H3",
        "InChIKey": null,
        "Canonical SMILES": "O=C(C)C(S)C",
        "Molecular Formula": "C<sub>4</sub>H<sub>8</sub>OS",
        "Molecular Mass": "104.17",
        "Boiling Point": "39 °C @ Press: 8 Torr"
    }
}