{
    "cas_no": "93-02-7",
    "key_name": "2,5-Dimethoxybenzaldehyde",
    "cn_name": "2,5-二甲氧基苯甲醛;",
    "alternate_name": "Benzaldehyde, 2,5-dimethoxy-;2,5-Dimethoxybenzaldehyde;NSC 6315",
    "duplicated_cas_no": "",
    "SMILES": "C(=O)C1=C(OC)C=CC(OC)=C1",
    "meta_data": {
        "InChI": "InChI=1S/C9H10O3/c1-11-8-3-4-9(12-2)7(5-8)6-10/h3-6H,1-2H3",
        "InChIKey": null,
        "Canonical SMILES": "O=CC1=CC(OC)=CC=C1OC",
        "Molecular Formula": "C<sub>9</sub>H<sub>10</sub>O<sub>3</sub>",
        "Molecular Mass": "166.17",
        "Boiling Point": "270 °C",
        "Melting Point": "52 °C"
    }
}