{
    "cas_no": "19057-67-1",
    "key_name": "Prosapogenin A",
    "cn_name": null,
    "alternate_name": "β-<span class=\"text-smallcaps\">D</smallcap>-Glucopyranoside, (3β,25<em>R</em>)-spirost-5-en-3-yl 2-<em>O</em>-(6-deoxy-α-<smallcap>L</span>-mannopyranosyl)-;Spirost-5-ene, 3β-[[2-<em>O</em>-(6-deoxy-α-<span class=\"text-smallcaps\">L</smallcap>-mannopyranosyl)-β-<smallcap>D</span>-glucopyranosyl]oxy]-, (25<em>R</em>)-;Spirostan, β-<span class=\"text-smallcaps\">D</span>-glucopyranoside deriv.;Spiro[8<em>H</em>-naphth[2′,1′:4,5]indeno[2,1-<em>b</em>]furan-8,2′-[2<em>H</em>]pyran], β-<span class=\"text-smallcaps\">D</span>-glucopyranoside deriv.;(3β,25<em>R</em>)-Spirost-5-en-3-yl 2-<em>O</em>-(6-deoxy-α-<span class=\"text-smallcaps\">L</smallcap>-mannopyranosyl)-β-<smallcap>D</span>-glucopyranoside;Glucopyranoside, (25<em>R</em>)-spirost-5-en-3β-yl 2-<em>O</em>-(6-deoxy-α-<span class=\"text-smallcaps\">L</smallcap>-mannopyranosyl)-, β-<smallcap>D</span>-;Prosapogenin A of dioscin;Prosapogenin A;Diosgenin 3-<em>O</em>-α-<span class=\"text-smallcaps\">L</smallcap>-rhamnopyranosyl-(1→2)-β-<smallcap>D</span>-glucopyranoside;Prosapogenin A, from <em>Dioscorea</em><em>tokoro</em>;Prosapogenin D′<sub>1</sub>;Ophiopogonin C';Progenin III;Lilioglycoside D;Polyphyllin V;25(<em>R</em>)-Diosgenin 3-<em>O</em>-α-<span class=\"text-smallcaps\">L</smallcap>-rhamnopyranosyl-(1→2)-β-<smallcap>D</span>-glucopyranoside;Paris V;17-Deoxyparis VI;Saponin Ta;Paris saponin V",
    "duplicated_cas_no": "55916-49-9;65607-35-4;2896165-64-1",
    "SMILES": "C[C@@]12[C@@]3([C@](C[C@]1([C@]4([C@](CC2)([C@]5(C)C(=CC4)C[C@@H](O[C@H]6[C@H](O[C@H]7[C@H](O)[C@H](O)[C@@H](O)[C@H](C)O7)[C@@H](O)[C@H](O)[C@@H](CO)O6)CC5)[H])[H])[H])(O[C@@]8([C@H]3C)CC[C@@H](C)CO8)[H])[H]",
    "meta_data": {
        "InChI": "InChI=1S/C39H62O12/c1-18-8-13-39(46-17-18)19(2)28-26(51-39)15-25-23-7-6-21-14-22(9-11-37(21,4)24(23)10-12-38(25,28)5)48-36-34(32(44)30(42)27(16-40)49-36)50-35-33(45)31(43)29(41)20(3)47-35/h6,18-20,22-36,40-45H,7-17H2,1-5H3/t18-,19+,20+,22+,23-,24+,25+,26+,27-,28+,29+,30-,31-,32+,33-,34-,35+,36-,37+,38+,39-/m1/s1",
        "InChIKey": null,
        "Canonical SMILES": "OCC1OC(OC2CC3=CCC4C(CCC5(C)C4CC6OC7(OCC(C)CC7)C(C)C65)C3(C)CC2)C(OC8OC(C)C(O)C(O)C8O)C(O)C1O",
        "Molecular Formula": "C<sub>39</sub>H<sub>62</sub>O<sub>12</sub>",
        "Molecular Mass": "722.90",
        "Melting Point": "212-214 °C"
    }
}