{
    "cas_no": "6843-66-9",
    "key_name": "Diphenyldimethoxysilane",
    "cn_name": "二苯基二甲氧基硅烷;二甲氧基二苯基硅烷;",
    "alternate_name": "Benzene, 1,1′-(dimethoxysilylene)bis-;Silane, dimethoxydiphenyl-;1,1′-(Dimethoxysilylene)bis[benzene];Diphenyldimethoxysilane;Dimethoxydiphenylsilane;Z 6074;KBM 202;KBM 202LS5300;TSL 8172;AY 43-047;LS 5300;D 6010;NSC 93509;KBM 202SS;OF 1;OF 1 (silane);AZ 6183;KBM 202S;ZH 1106;D 1731;KBM 200SS;CG-P 213;SID 4535.0;SCA-P 62M;Z 6447;DPhDMS;KH 621",
    "duplicated_cas_no": "111116-25-7;288156-07-0;155684-42-7",
    "SMILES": "[Si](OC)(OC)(C1=CC=CC=C1)C2=CC=CC=C2",
    "meta_data": {
        "InChI": "InChI=1S/C14H16O2Si/c1-15-17(16-2,13-9-5-3-6-10-13)14-11-7-4-8-12-14/h3-12H,1-2H3",
        "InChIKey": null,
        "Canonical SMILES": "O(C)[Si](OC)(C=1C=CC=CC1)C=2C=CC=CC2",
        "Molecular Formula": "C<sub>14</sub>H<sub>16</sub>O<sub>2</sub>Si",
        "Molecular Mass": "244.36",
        "Boiling Point": "161 °C @ Press: 15 Torr",
        "Density": "1.077 g/cm³"
    }
}