{
    "cas_no": "3121-61-7",
    "key_name": "Methoxyethyl acrylate",
    "cn_name": "2-丙烯酸-2-甲氧基乙酯;丙烯酸甲氧基乙酯;",
    "alternate_name": "2-Propenoic acid, 2-methoxyethyl ester;Acrylic acid, 2-methoxyethyl ester;Methoxyethyl acrylate;2-Methoxyethyl acrylate;Viscoat 2MTA;SR 244;Ethylene glycol monomethyl ether acrylate;NSC 24153;2MTA;DC 1 (acrylate);DC 1;Acrylix C 1;Ethylene glycol methyl ether acrylate;2-Methoxyethylene glycol acrylate;2-Methoxyethyl prop-2-enoate;Methylmonoglycol acrylate",
    "duplicated_cas_no": "",
    "SMILES": "C(OCCOC)(C=C)=O",
    "meta_data": {
        "InChI": "InChI=1S/C6H10O3/c1-3-6(7)9-5-4-8-2/h3H,1,4-5H2,2H3",
        "InChIKey": null,
        "Canonical SMILES": "O=C(OCCOC)C=C",
        "Molecular Formula": "C<sub>6</sub>H<sub>10</sub>O<sub>3</sub>",
        "Molecular Mass": "130.14",
        "Boiling Point": "56 °C @ Press: 12 Torr",
        "Density": "1.0131 g/cm³ @ Temp: 20 °C"
    }
}