{
    "cas_no": "2016-57-1",
    "key_name": "Decylamine",
    "cn_name": "1-氨基癸烷;正癸胺;",
    "alternate_name": "1-Decanamine;Decylamine;1-Aminodecane;Decanamine;<em>n</em>-Decylamine;1-Decylamine;Monodecylamine;Kemamine P 190D;NDA;Caprylamine;Fentamine A 10",
    "duplicated_cas_no": "",
    "SMILES": "C(CCCCC)CCCCN",
    "meta_data": {
        "InChI": "InChI=1S/C10H23N/c1-2-3-4-5-6-7-8-9-10-11/h2-11H2,1H3",
        "InChIKey": null,
        "Canonical SMILES": "NCCCCCCCCCC",
        "Molecular Formula": "C<sub>10</sub>H<sub>23</sub>N",
        "Molecular Mass": "157.30",
        "Boiling Point": "220.5 °C",
        "Melting Point": "17 °C",
        "Density": "0.7933 g/cm³ @ Temp: 20 °C"
    }
}