{
    "cas_no": "42016-93-3",
    "key_name": "2-Chloro-4-iodobenzenamine",
    "cn_name": "2-氯-4-碘苯胺;邻氯对碘苯胺;",
    "alternate_name": "Benzenamine, 2-chloro-4-iodo-;2-Chloro-4-iodobenzenamine;2-Chloro-4-iodoaniline;NSC 137040;2-Chloro-4-iodo-phenylamine",
    "duplicated_cas_no": "",
    "SMILES": "ClC1=C(N)C=CC(I)=C1",
    "meta_data": {
        "InChI": "InChI=1S/C6H5ClIN/c7-5-3-4(8)1-2-6(5)9/h1-3H,9H2",
        "InChIKey": null,
        "Canonical SMILES": "ClC1=CC(I)=CC=C1N",
        "Molecular Formula": "C<sub>6</sub>H<sub>5</sub>ClIN",
        "Molecular Mass": "253.47",
        "Melting Point": "71-72 °C"
    }
}