{
    "cas_no": "5578-73-4",
    "key_name": "Sanguinarine hydrochloride",
    "cn_name": "血根碱;",
    "alternate_name": "[1,3]Benzodioxolo[5,6-<em>c</em>]-1,3-dioxolo[4,5-<em>i</em>]phenanthridinium, 13-methyl-, chloride (1:1);Sanguinarine, chloride;[1,3]Benzodioxolo[5,6-<em>c</em>]-1,3-dioxolo[4,5-<em>i</em>]phenanthridinium, 13-methyl-, chloride;Sanguinarine hydrochloride;13-Methyl[1,3]benzodioxolo[5,6-<em>c</em>]-1,3-dioxolo[4,5-<em>i</em>]phenanthridinium chloride;Sanguinarium chloride",
    "duplicated_cas_no": "",
    "SMILES": "C[N+]=1C2=C(C=3C(C1)=C4C(=CC3)OCO4)C=CC=5C2=CC6=C(C5)OCO6.[Cl-]",
    "meta_data": {
        "InChI": "InChI=1S/C20H14NO4.ClH/c1-21-8-15-12(4-5-16-20(15)25-10-22-16)13-3-2-11-6-17-18(24-9-23-17)7-14(11)19(13)21;/h2-8H,9-10H2,1H3;1H/q+1;/p-1",
        "InChIKey": null,
        "Canonical SMILES": "[Cl-].O1C=2C=CC3=C4C=CC=5C=C6OCOC6=CC5C4=[N+](C=C3C2OC1)C",
        "Molecular Formula": "C<sub>20</sub>H<sub>14</sub>NO<sub>4</sub>.Cl",
        "Molecular Mass": "",
        "Melting Point": "287-289 °C"
    }
}