{
    "cas_no": "1450-29-9",
    "key_name": "1,2-Diethenyl-1,1,2,2-tetramethyldisilane",
    "cn_name": null,
    "alternate_name": "Disilane, 1,2-diethenyl-1,1,2,2-tetramethyl-;Disilane, 1,1,2,2-tetramethyl-1,2-divinyl-;1,2-Diethenyl-1,1,2,2-tetramethyldisilane;1,1,2,2-Tetramethyl-1,2-divinyldisilane;Tetramethyl-1,2-divinyldisilane;1,2-Divinyltetramethyldisilane;1,2-Divinyl-1,1,2,2-tetramethyldisilane",
    "duplicated_cas_no": "",
    "SMILES": "[Si]([Si](C=C)(C)C)(C=C)(C)C",
    "meta_data": {
        "InChI": "InChI=1S/C8H18Si2/c1-7-9(3,4)10(5,6)8-2/h7-8H,1-2H2,3-6H3",
        "InChIKey": null,
        "Canonical SMILES": "C=C[Si](C)(C)[Si](C=C)(C)C",
        "Molecular Formula": "C<sub>8</sub>H<sub>18</sub>Si<sub>2</sub>",
        "Molecular Mass": "170.40",
        "Boiling Point": "55 °C @ Press: 21 Torr",
        "Density": "0.780 g/cm³"
    }
}