{
    "cas_no": "56-37-1",
    "key_name": "Benzyltriethylammonium chloride",
    "cn_name": "苄基三乙基氯化铵;",
    "alternate_name": "Benzenemethanaminium, <em>N</em>,<em>N</em>,<em>N</em>-triethyl-, chloride (1:1);Ammonium, benzyltriethyl-, chloride;Benzenemethanaminium, <em>N</em>,<em>N</em>,<em>N</em>-triethyl-, chloride;Benzyltriethylammonium chloride;Triethylbenzylammonium chloride;TEBAC;TEBA;<em>N</em>,<em>N</em>,<em>N</em>-Triethyl-<em>N</em>-benzylammonium chloride;BAC-TE;P 964;<em>N</em>-Benzyl-<em>N</em>,<em>N</em>-diethylethanaminium chloride;QBA 222;65923B;BTEAC",
    "duplicated_cas_no": "64333-37-5;80904-15-0;130517-24-7;2913187-20-7",
    "SMILES": "[N+](CC1=CC=CC=C1)(CC)(CC)CC.[Cl-]",
    "meta_data": {
        "InChI": "InChI=1S/C13H22N.ClH/c1-4-14(5-2,6-3)12-13-10-8-7-9-11-13;/h7-11H,4-6,12H2,1-3H3;1H/q+1;/p-1",
        "InChIKey": null,
        "Canonical SMILES": "[Cl-].C=1C=CC(=CC1)C[N+](CC)(CC)CC",
        "Molecular Formula": "C<sub>13</sub>H<sub>22</sub>N.Cl",
        "Molecular Mass": "",
        "Melting Point": "120 °C",
        "Density": "1.07 g/cm³ @ Temp: 20 °C"
    }
}