{
    "cas_no": "1551-21-9",
    "key_name": "Isopropyl methyl sulfide",
    "cn_name": "甲基异丙基硫醚;",
    "alternate_name": "Propane, 2-(methylthio)-;Sulfide, isopropyl methyl;3-Methyl-2-thiabutane;Methyl isopropyl sulfide;Isopropyl methyl sulfide;2-(Methylthio)propane;2-(Methylsulfanyl)propane;2-Methylsulfanylpropane;Isopropyl(methyl)sulfane",
    "duplicated_cas_no": "",
    "SMILES": "C(SC)(C)C",
    "meta_data": {
        "InChI": "InChI=1S/C4H10S/c1-4(2)5-3/h4H,1-3H3",
        "InChIKey": null,
        "Canonical SMILES": "S(C)C(C)C",
        "Molecular Formula": "C<sub>4</sub>H<sub>10</sub>S",
        "Molecular Mass": "90.19",
        "Boiling Point": "84.8 °C",
        "Melting Point": "-101.5 °C"
    }
}