{
    "cas_no": "6397-02-0",
    "key_name": "Acid Blue 129",
    "cn_name": "酸性兰129;1-氨基-4-(2,4,6-三甲基苯胺基)蒽醌-2-磺酸钠;",
    "alternate_name": "2-Anthracenesulfonic acid, 1-amino-9,10-dihydro-9,10-dioxo-4-[(2,4,6-trimethylphenyl)amino]-, sodium salt (1:1);2-Anthracenesulfonic acid, 1-amino-9,10-dihydro-9,10-dioxo-4-(2,4,6-trimethylanilino)-, monosodium salt;2-Anthracenesulfonic acid, 1-amino-9,10-dihydro-9,10-dioxo-4-[(2,4,6-trimethylphenyl)amino]-, monosodium salt;2-Anthracenesulfonic acid, 1-amino-9,10-dihydro-9,10-dioxo-4-(2,4,6-trimethylanilino)-, sodium salt;Sodium 1-amino-4-(2,4,6-trimethylanilino)anthraquinone-2-sulfonate;Acid Blue 129;C.I. Acid Blue 129;Erionyl Blue E-BFF;Eriosin Fast Blue BFF;Fast Acid Light Blue BRL;Nylomine Blue A 3R;Solway Blue RB;Suminol Fast Blue PR;Tertracid Fast Blue TR;Alizarine Fast Blue BE;Neonyl Blue 4R;Brilliant Alizarine Sky Blue BS;Erionyl Blue BFF;Acid Fast Blue BS;Endanil Blue R;Kayanol Blue NR;Nylosan Blue PRL;Aminyl Blue E-PRL;Suminol Fast Blue PR conc;Midlon Blue E;Acid Blue NR;Daedo Acid Blue PR;Kenamide Blue G 3R;Weak Acid Brilliant Blue P-RL;Acid Blue 3R;Fabracid Blue S-E;Concorde Acid Blue ARL;Best Acid Blue TR;Acid Brilliant Blue P-R;Vicoacid Blue 129;Acid Blue P-R;Dycosweak Acid Brilliant Blue P-R;Triacid Fast Blue BRW;Apollo Nylon Fast Blue M-FN;Relon Blue BS;Weak Acid Brilliant Blue P-R;Atanyl blue PRL;AQN 129",
    "duplicated_cas_no": "110158-21-9;110158-60-6;12217-21-9",
    "SMILES": "N(C1=C2C(C(=O)C=3C(C2=O)=CC=CC3)=C(N)C(S(=O)(=O)O)=C1)C4=C(C)C=C(C)C=C4C.[Na]",
    "meta_data": {
        "InChI": "InChI=1S/C23H20N2O5S.Na/c1-11-8-12(2)21(13(3)9-11)25-16-10-17(31(28,29)30)20(24)19-18(16)22(26)14-6-4-5-7-15(14)23(19)27;/h4-10,25H,24H2,1-3H3,(H,28,29,30);",
        "InChIKey": null,
        "Canonical SMILES": "[Na].O=C1C=2C=CC=CC2C(=O)C3=C(C=C(C(N)=C13)S(=O)(=O)O)NC=4C(=CC(=CC4C)C)C",
        "Molecular Formula": "C<sub>23</sub>H<sub>20</sub>N<sub>2</sub>O<sub>5</sub>S.Na",
        "Molecular Mass": "",
        "Melting Point": "&gt;300 °C"
    }
}