{
    "cas_no": "109010-60-8",
    "key_name": "(<em>S</em>)-1,1-Dimethylethyl 3-amino-2-oxo-2,3,4,5-tetrahydro-1<em>H</em>-benz[<em>b</em>]azepin-1-acetate",
    "cn_name": "(S)-3-氨基-2,3,4,5-四氢-2-氧-1H-1-苯并氮杂卓-1-乙酸叔丁酯;",
    "alternate_name": "1<em>H</em>-1-Benzazepine-1-acetic acid, 3-amino-2,3,4,5-tetrahydro-2-oxo-, 1,1-dimethylethyl ester, (3<em>S</em>)-;1<em>H</em>-1-Benzazepine-1-acetic acid, 3-amino-2,3,4,5-tetrahydro-2-oxo-, 1,1-dimethylethyl ester, (<em>S</em>)-;(<em>S</em>)-1,1-Dimethylethyl 3-amino-2-oxo-2,3,4,5-tetrahydro-1<em>H</em>-benz[<em>b</em>]azepin-1-acetate;(<em>S</em>)-1-[(<em>tert</em>-Butyloxycarbonyl)methyl]-3-amino-2,3,4,5-tetrahydro-1<em>H</em>-[1]benzazepin-2-one",
    "duplicated_cas_no": "",
    "SMILES": "C(C(OC(C)(C)C)=O)N1C=2C(CC[C@H](N)C1=O)=CC=CC2",
    "meta_data": {
        "InChI": "InChI=1S/C16H22N2O3/c1-16(2,3)21-14(19)10-18-13-7-5-4-6-11(13)8-9-12(17)15(18)20/h4-7,12H,8-10,17H2,1-3H3/t12-/m0/s1",
        "InChIKey": null,
        "Canonical SMILES": "O=C(OC(C)(C)C)CN1C(=O)C(N)CCC=2C=CC=CC21",
        "Molecular Formula": "C<sub>16</sub>H<sub>22</sub>N<sub>2</sub>O<sub>3</sub>",
        "Molecular Mass": "290.36",
        "Melting Point": "110-111 °C"
    }
}