{
    "cas_no": "13762-51-1",
    "key_name": "Potassium borohydride",
    "cn_name": "硼氢化钾;",
    "alternate_name": "Borate(1-), tetrahydro-, potassium (1:1);Borate(1-), tetrahydro-, potassium;Potassium tetrahydroborate;Potassium borohydride;Potassium tetrahydroborate(1-);Potassium borohydride (KBH<sub>4</sub>);Potassium tetrahydroborate (KBH<sub>4</sub>)",
    "duplicated_cas_no": "1303-72-6",
    "SMILES": "[B+3]([H-])([H-])([H-])[H-].[K+]",
    "meta_data": {
        "InChI": "InChI=1S/BH4.K/h1H4;/q-1;+1",
        "InChIKey": null,
        "Canonical SMILES": "[K+].[H-][B+3]([H-])([H-])[H-]",
        "Molecular Formula": "BH<sub>4</sub>.K",
        "Molecular Mass": "",
        "Melting Point": "585 °C"
    }
}