{
    "cas_no": "3690-05-9",
    "key_name": "<em>p</em>-Coumaryl alcohol",
    "cn_name": null,
    "alternate_name": "Phenol, 4-(3-hydroxy-1-propen-1-yl)-;2-Propen-1-ol, 3-(<em>p</em>-hydroxyphenyl)-;Phenol, 4-(3-hydroxy-1-propenyl)-;4-(3-Hydroxy-1-propen-1-yl)phenol;<em>p</em>-Coumaryl alcohol;3-(<em>p</em>-Hydroxyphenyl)-2-propen-1-ol;<em>p</em>-Coumaric alcohol;<em>p</em>-Hydroxycinnamic alcohol;<em>p</em>-Hydroxycinnamyl alcohol;<em>p</em>-Cumaric alcohol;4-Hydroxycinnamyl alcohol;4-Hydroxycinnamic alcohol",
    "duplicated_cas_no": "",
    "SMILES": "C(=CCO)C1=CC=C(O)C=C1",
    "meta_data": {
        "InChI": "InChI=1S/C9H10O2/c10-7-1-2-8-3-5-9(11)6-4-8/h1-6,10-11H,7H2",
        "InChIKey": null,
        "Canonical SMILES": "OC1=CC=C(C=C1)C=CCO",
        "Molecular Formula": "C<sub>9</sub>H<sub>10</sub>O<sub>2</sub>",
        "Molecular Mass": "150.17",
        "Melting Point": "124 °C"
    }
}