{
    "cas_no": "2524-04-1",
    "key_name": "<em>O</em>,<em>O</em>-Diethyl phosphorochloridothioate",
    "cn_name": "二乙基硫代磷酰氯;O,O-二乙基硫代磷酰氯;",
    "alternate_name": "Phosphorochloridothioic acid, <em>O</em>,<em>O</em>-diethyl ester;Ethyl phosphorochloridothioate ((EtO)<sub>2</sub>ClPS);Diethyl chlorothiophosphate;<em>O</em>,<em>O</em>-Diethyl phosphorochloridothioate;<em>O</em>,<em>O</em>-Diethyl phosphorochlorothioate;Diethyl phosphorochloridothioate;Diethyl phosphorochlorothioate;Diethyl thiophosphoryl chloride;<em>O</em>,<em>O</em>-Diethyl chlorothiophosphate;<em>O</em>,<em>O</em>-Diethyl chlorothiophosphonate;<em>O</em>,<em>O</em>-Diethyl phosphorothionochloridate;<em>O</em>,<em>O</em>-Diethyl thiophosphoryl chloride;Diethyl phosphorothiochloridate;<em>O</em>,<em>O</em>-Diethyl chlorothionophosphate;<em>O</em>,<em>O</em>-Diethyl thionophosphoric chloride;<em>O</em>,<em>O</em>-Diethyl thionophosphoryl chloride;<em>O</em>,<em>O</em>-Diethyl thiophosphorochloridate;<em>O</em>,<em>O</em>-Diethyl chloridothionophosphate;<em>O</em>,<em>O</em>-Diethyl phosphorothiochloridate;<em>O</em>,<em>O</em>-Diethyl thionophosphorochloridate;<em>O</em>,<em>O</em>-Diethyl chloridophosphorothioate;Diethoxythiophosphoryl chloride;Diethyl phosphorothionochloridate;<em>O</em>,<em>O</em>-Diethyl thiophosphoric acid chloride;(Chlorodiethoxy)phosphine sulfide;<em>O</em>,<em>O</em>-Diethyl chlorophosphorothioate;NSC 43776",
    "duplicated_cas_no": "1081841-50-0",
    "SMILES": "P(OCC)(OCC)(Cl)=S",
    "meta_data": {
        "InChI": "InChI=1S/C4H10ClO2PS/c1-3-6-8(5,9)7-4-2/h3-4H2,1-2H3",
        "InChIKey": null,
        "Canonical SMILES": "S=P(Cl)(OCC)OCC",
        "Molecular Formula": "C<sub>4</sub>H<sub>10</sub>ClO<sub>2</sub>PS",
        "Molecular Mass": "188.61",
        "Boiling Point": "110 °C",
        "Melting Point": "-75 °C",
        "Density": "1.196 g/cm³ @ Temp: 25 °C"
    }
}