{
    "cas_no": "3588-76-9",
    "key_name": "2-Aminophenol-5-sulfonamide",
    "cn_name": null,
    "alternate_name": "Benzenesulfonamide, 4-amino-3-hydroxy-;Sulfanilamide, 3-hydroxy-;1-Phenol-3-sulfonamide, 6-amino-;4-Amino-3-hydroxybenzenesulfonamide;2-Aminophenol-5-sulfonamide;3-Hydroxysulfanilamide",
    "duplicated_cas_no": "",
    "SMILES": "S(N)(=O)(=O)C1=CC(O)=C(N)C=C1",
    "meta_data": {
        "InChI": "InChI=1S/C6H8N2O3S/c7-5-2-1-4(3-6(5)9)12(8,10)11/h1-3,9H,7H2,(H2,8,10,11)",
        "InChIKey": null,
        "Canonical SMILES": "O=S(=O)(N)C1=CC=C(N)C(O)=C1",
        "Molecular Formula": "C<sub>6</sub>H<sub>8</sub>N<sub>2</sub>O<sub>3</sub>S",
        "Molecular Mass": "188.20",
        "Melting Point": "164 °C"
    }
}