{
    "cas_no": "16502-01-5",
    "key_name": "Tetrahydro-β-carboline",
    "cn_name": null,
    "alternate_name": "1<em>H</em>-Pyrido[3,4-<em>b</em>]indole, 2,3,4,9-tetrahydro-;2,3,4,9-Tetrahydro-1<em>H</em>-pyrido[3,4-<em>b</em>]indole;1,2,3,4-Tetrahydro-β-carboline;Norharman, 1,2,3,4-tetrahydro-;Tryptoline;Noreleagnine;Tetrahydronorharman;Tetrahydro-β-carboline;THBC;1,2,3,4-Tetrahydro-9<em>H</em>-pyrido[3,4-<em>b</em>]indole;2,3,4,9-Tetrahydro-1<em>H</em>-β-carboline;2,3,4,9-Tetrahydro-1<em>H</em>-pyrido[4,3-<em>b</em>]indole;1<em>H</em>,2<em>H</em>,3<em>H</em>,4<em>H</em>,9<em>H</em>-Pyrido[3,4-<em>b</em>]indole",
    "duplicated_cas_no": "135277-33-7;79368-40-4",
    "SMILES": "C1=2C3=C(NC1=CC=CC2)CNCC3",
    "meta_data": {
        "InChI": "InChI=1S/C11H12N2/c1-2-4-10-8(3-1)9-5-6-12-7-11(9)13-10/h1-4,12-13H,5-7H2",
        "InChIKey": null,
        "Canonical SMILES": "C=1C=CC2=C(C1)NC3=C2CCNC3",
        "Molecular Formula": "C<sub>11</sub>H<sub>12</sub>N<sub>2</sub>",
        "Molecular Mass": "172.23",
        "Melting Point": "204-205 °C"
    }
}