{
    "cas_no": "626-08-4",
    "key_name": "3,4-Dihydro-3-thioxo-1,2,4-triazin-5(2<em>H</em>)-one",
    "cn_name": null,
    "alternate_name": "1,2,4-Triazin-5(2<em>H</em>)-one, 3,4-dihydro-3-thioxo-;<em>as</em>-Triazine-3,5(2<em>H</em>,4<em>H</em>)-dione, 3-thio-;<em>as</em>-Triazin-5-ol, 3-mercapto-;3,4-Dihydro-3-thioxo-1,2,4-triazin-5(2<em>H</em>)-one;2-Thio-6-azauracil;3-Mercapto-5-hydroxy-1,2,4-triazine;5-Hydroxy-3-mercapto-1,2,4-triazine;6-Aza-2-thiouracil;3-Sulfanylidene-2<em>H</em>-1,2,4-triazin-5-one;3-Sulfanyl-1,2,4-triazin-5-ol;3-Sulfanyl-4,5-dihydro-1,2,4-triazin-5-one;3-Mercapto-1,2,4-triazin-5-ol;3-Sulfanylidene-2,3,4,5-tetrahydro-1,2,4-triazin-5-one;3-Thioxo-3,4-dihydro-1,2,4-triazin-5(2<em>H</em>)-one",
    "duplicated_cas_no": "107646-93-5;7338-76-3",
    "SMILES": "O=C1NC(=S)NN=C1",
    "meta_data": {
        "InChI": "InChI=1S/C3H3N3OS/c7-2-1-4-6-3(8)5-2/h1H,(H2,5,6,7,8)",
        "InChIKey": null,
        "Canonical SMILES": "O=C1C=NNC(=S)N1",
        "Molecular Formula": "C<sub>3</sub>H<sub>3</sub>N<sub>3</sub>OS",
        "Molecular Mass": "129.14",
        "Melting Point": "251 °C (decomp)"
    }
}