{
    "cas_no": "2404-44-6",
    "key_name": "1,2-Epoxydecane",
    "cn_name": "环氧癸烷;",
    "alternate_name": "Oxirane, 2-octyl-;Decane, 1,2-epoxy-;Oxirane, octyl-;2-Octyloxirane;1,2-Decene epoxide;1,2-Decylene oxide;Octyloxirane;1-Decene oxide;1-Decene epoxide;Vikolox 10;1,2-Decene oxide;1,2-Epoxydecane;NSC 16197;Octylepoxyethane",
    "duplicated_cas_no": "67210-45-1;71077-70-8",
    "SMILES": "C(CCCCCCC)C1CO1",
    "meta_data": {
        "InChI": "InChI=1S/C10H20O/c1-2-3-4-5-6-7-8-10-9-11-10/h10H,2-9H2,1H3",
        "InChIKey": null,
        "Canonical SMILES": "O1CC1CCCCCCCC",
        "Molecular Formula": "C<sub>10</sub>H<sub>20</sub>O",
        "Molecular Mass": "156.27",
        "Boiling Point": "94 °C @ Press: 15 Torr",
        "Density": "0.8401 g/cm³ @ Temp: 20 °C"
    }
}