{
    "cas_no": "299-75-2",
    "key_name": "Treosulfan",
    "cn_name": "曲奥舒凡;曲奥舒凡;",
    "alternate_name": "1,2,3,4-Butanetetrol, 1,4-dimethanesulfonate, (2<em>S</em>,3<em>S</em>)-;1,2,3,4-Butanetetrol, 1,4-dimethanesulfonate, [<em>S</em>-(<em>R</em>*,<em>R</em>*)]-;Threitol, 1,4-dimethanesulfonate, (2<em>S</em>,3<em>S</em>)-;(2<em>S</em>,3<em>S</em>)-Threitol 1,4-bismethanesulfonate;Threosulphan;Treosulfan;Tresulfan;Treosulphan;NSC 39069;<span class=\"text-smallcaps\">L</span>-Threitol 1,4-bis(methanesulfonate);Ovastat;Trecondi",
    "duplicated_cas_no": "5592-88-1;14461-01-9;27863-55-4",
    "SMILES": "[C@@H]([C@H](COS(C)(=O)=O)O)(COS(C)(=O)=O)O",
    "meta_data": {
        "InChI": "InChI=1S/C6H14O8S2/c1-15(9,10)13-3-5(7)6(8)4-14-16(2,11)12/h5-8H,3-4H2,1-2H3/t5-,6-/m0/s1",
        "InChIKey": null,
        "Canonical SMILES": "O=S(=O)(OCC(O)C(O)COS(=O)(=O)C)C",
        "Molecular Formula": "C<sub>6</sub>H<sub>14</sub>O<sub>8</sub>S<sub>2</sub>",
        "Molecular Mass": "278.30",
        "Melting Point": "76-78 °C"
    }
}