{
    "cas_no": "503-60-6",
    "key_name": "1-Chloro-3-methyl-2-butene",
    "cn_name": "1-氯-3-甲基-2-丁烯;",
    "alternate_name": "2-Butene, 1-chloro-3-methyl-;1-Chloro-3-methyl-2-butene;Prenyl chloride;2-Methyl-4-chloro-2-butene;γ,γ-Dimethylallyl chloride;3,3-Dimethylallyl chloride;3-Methyl-2-butenyl chloride;4-Chloro-2-methyl-2-butene;3-Methylcrotyl chloride;1,1-Dimethyl-3-chloro-1-propene;Isoprenyl chloride;3-Methyl-1-chloro-2-butene",
    "duplicated_cas_no": "219555-05-2",
    "SMILES": "C(=C(C)C)CCl",
    "meta_data": {
        "InChI": "InChI=1S/C5H9Cl/c1-5(2)3-4-6/h3H,4H2,1-2H3",
        "InChIKey": null,
        "Canonical SMILES": "ClCC=C(C)C",
        "Molecular Formula": "C<sub>5</sub>H<sub>9</sub>Cl",
        "Molecular Mass": "104.58",
        "Boiling Point": "109 °C @ Press: 760 Torr",
        "Density": "0.9273 g/cm³ @ Temp: 20 °C"
    }
}