{
    "cas_no": "1205-30-7",
    "key_name": "4-Chloro-3-sulfamoylbenzoic acid",
    "cn_name": "4-氯-3-磺酰胺基苯甲酸;3-氨磺酰基-4-氯苯甲酸;",
    "alternate_name": "Benzoic acid, 3-(aminosulfonyl)-4-chloro-;Benzoic acid, 4-chloro-3-sulfamoyl-;3-(Aminosulfonyl)-4-chlorobenzoic acid;4-Chloro-5-sulfamoylbenzoic acid;3-Sulfamyl-4-chlorobenzoic acid;3-Sulfamoyl-4-chlorobenzoic acid;4-Chloro-3-sulfamoylbenzoic acid;4-Chloro-3-(aminosulfonyl)benzoic acid",
    "duplicated_cas_no": "",
    "SMILES": "S(N)(=O)(=O)C1=CC(C(O)=O)=CC=C1Cl",
    "meta_data": {
        "InChI": "InChI=1S/C7H6ClNO4S/c8-5-2-1-4(7(10)11)3-6(5)14(9,12)13/h1-3H,(H,10,11)(H2,9,12,13)",
        "InChIKey": null,
        "Canonical SMILES": "O=C(O)C1=CC=C(Cl)C(=C1)S(=O)(=O)N",
        "Molecular Formula": "C<sub>7</sub>H<sub>6</sub>ClNO<sub>4</sub>S",
        "Molecular Mass": "235.64",
        "Melting Point": "260.5-262.0 °C"
    }
}