{
    "cas_no": "18883-66-4",
    "key_name": "Streptozotocin",
    "cn_name": "链脲菌素;链脲佐菌素;2-脱氧-2-[[(甲基亚硝基氨基)羰基]-氨基]-D-吡喃葡萄糖;",
    "alternate_name": "<span class=\"text-smallcaps\">D</span>-Glucose, 2-deoxy-2-[[(methylnitrosoamino)carbonyl]amino]-;Glucopyranose, 2-deoxy-2-(3-methyl-3-nitrosoureido)-, <span class=\"text-smallcaps\">D</span>-;2-Deoxy-2-[[(methylnitrosoamino)carbonyl]amino]-<span class=\"text-smallcaps\">D</span>-glucose;Streptozotocin;Streptozoticin;NSC 85998;Streptozocin;STRZ;STZ;NSC 37917;Zanosar;U 9889;Estreptozocin",
    "duplicated_cas_no": "132769-73-4;11006-80-7;37793-00-3",
    "SMILES": "[C@H]([C@H]([C@@H]([C@@H](CO)O)O)O)(NC(N(N=O)C)=O)C=O",
    "meta_data": {
        "InChI": "InChI=1S/C8H15N3O7/c1-11(10-18)8(17)9-4(2-12)6(15)7(16)5(14)3-13/h2,4-7,13-16H,3H2,1H3,(H,9,17)/t4-,5+,6+,7+/m0/s1",
        "InChIKey": null,
        "Canonical SMILES": "O=NN(C(=O)NC(C=O)C(O)C(O)C(O)CO)C",
        "Molecular Formula": "C<sub>8</sub>H<sub>15</sub>N<sub>3</sub>O<sub>7</sub>",
        "Molecular Mass": "265.22",
        "Melting Point": "115 °C"
    }
}