{
    "cas_no": "73003-80-2",
    "key_name": "2,2-Dibromomalonamide",
    "cn_name": "2,2-二溴-丙二酰胺;二溴丙二酰胺;",
    "alternate_name": "Propanediamide, 2,2-dibromo-;Malonamide, 2,2-dibromo-;2,2-Dibromopropanediamide;Dibromomalonic acid diamide;2,2-Dibromomalonamide",
    "duplicated_cas_no": "",
    "SMILES": "C(C(N)=O)(C(N)=O)(Br)Br",
    "meta_data": {
        "InChI": "InChI=1S/C3H4Br2N2O2/c4-3(5,1(6)8)2(7)9/h(H2,6,8)(H2,7,9)",
        "InChIKey": null,
        "Canonical SMILES": "O=C(N)C(Br)(Br)C(=O)N",
        "Molecular Formula": "C<sub>3</sub>H<sub>4</sub>Br<sub>2</sub>N<sub>2</sub>O<sub>2</sub>",
        "Molecular Mass": "259.88",
        "Melting Point": "203 °C"
    }
}