{
    "cas_no": "5173-46-6",
    "key_name": "Estra-4,9-diene-3,17-dione",
    "cn_name": "雌甾-4,9-二烯-3,17-二酮;",
    "alternate_name": "Estra-4,9-diene-3,17-dione;19-Norandrosta-4,9-diene-3,17-dione;Trena",
    "duplicated_cas_no": "",
    "SMILES": "C[C@@]12[C@]([C@]3(C(=C4C(CC3)=CC(=O)CC4)CC1)[H])(CCC2=O)[H]",
    "meta_data": {
        "InChI": "InChI=1S/C18H22O2/c1-18-9-8-14-13-5-3-12(19)10-11(13)2-4-15(14)16(18)6-7-17(18)20/h10,15-16H,2-9H2,1H3/t15-,16+,18+/m1/s1",
        "InChIKey": null,
        "Canonical SMILES": "O=C1C=C2C(=C3CCC4(C(=O)CCC4C3CC2)C)CC1",
        "Molecular Formula": "C<sub>18</sub>H<sub>22</sub>O<sub>2</sub>",
        "Molecular Mass": "270.37",
        "Melting Point": "130-131 °C"
    }
}