{
    "cas_no": "100646-51-3",
    "key_name": "Quizalofop-P-ethyl",
    "cn_name": "精喹禾灵;(R)-2-[4-(6-氯-2-喹噁啉氧基)-苯氧基]丙酸乙酯;",
    "alternate_name": "Propanoic acid, 2-[4-[(6-chloro-2-quinoxalinyl)oxy]phenoxy]-, ethyl ester, (2<em>R</em>)-;Propanoic acid, 2-[4-[(6-chloro-2-quinoxalinyl)oxy]phenoxy]-, ethyl ester, (<em>R</em>)-;Quizalofop-P-ethyl;Assure II;Targa D+;Quizalofop-<em>P</em>-ethyl;Ethyl (2R)-2-[4-[(6-chloroquinoxalin-2-yl)oxy]phenoxy]propionate;Ethyl (<em>R</em>)-2-[4-(6-chloroquinoxalin-2-yloxy)phenoxy]propionate;(<em>R</em>)-Quizalofop ethyl;Targa Super;Astarg 125;Leopard 5EC;(+)-Quizalofop ethyl",
    "duplicated_cas_no": "",
    "SMILES": "O(C1=NC2=C(N=C1)C=C(Cl)C=C2)C3=CC=C(O[C@@H](C(OCC)=O)C)C=C3",
    "meta_data": {
        "InChI": "InChI=1S/C19H17ClN2O4/c1-3-24-19(23)12(2)25-14-5-7-15(8-6-14)26-18-11-21-17-10-13(20)4-9-16(17)22-18/h4-12H,3H2,1-2H3/t12-/m1/s1",
        "InChIKey": null,
        "Canonical SMILES": "O=C(OCC)C(OC1=CC=C(OC2=NC3=CC=C(Cl)C=C3N=C2)C=C1)C",
        "Molecular Formula": "C<sub>19</sub>H<sub>17</sub>ClN<sub>2</sub>O<sub>4</sub>",
        "Molecular Mass": "372.80",
        "Boiling Point": "220 °C",
        "Melting Point": "76.5 °C"
    }
}