{
    "cas_no": "514-65-8",
    "key_name": "Biperiden",
    "cn_name": "比哌立登;碧卜利旦;1-(5-双环[2.2.1]庚-2-烯基)-1-苯基-3-(1-哌啶基)丙-1-醇;",
    "alternate_name": "1-Piperidinepropanol, α-bicyclo[2.2.1]hept-5-en-2-yl-α-phenyl-;1-Piperidinepropanol, α-5-norbornen-2-yl-α-phenyl-;α-Bicyclo[2.2.1]hept-5-en-2-yl-α-phenyl-1-piperidinepropanol;α-(Bicyclo[2.2.1]hept-5-en-2-yl)-α-phenyl-1-piperidinopropanol;Biperiden;α-5-Norbornen-2-yl-α-phenyl-1-piperidinepropanol;KL 373;Akineton;1-(5-Bicyclo[2.2.1]hept-2-enyl)-1-phenyl-3-piperidin-1-ylpropan-1-ol;MeSH ID: D001712",
    "duplicated_cas_no": "107629-33-4",
    "SMILES": "C(CCN1CCCCC1)(O)(C2C3CC(C2)C=C3)C4=CC=CC=C4",
    "meta_data": {
        "InChI": "InChI=1S/C21H29NO/c23-21(19-7-3-1-4-8-19,11-14-22-12-5-2-6-13-22)20-16-17-9-10-18(20)15-17/h1,3-4,7-10,17-18,20,23H,2,5-6,11-16H2",
        "InChIKey": null,
        "Canonical SMILES": "OC(C=1C=CC=CC1)(CCN2CCCCC2)C3CC4C=CC3C4",
        "Molecular Formula": "C<sub>21</sub>H<sub>29</sub>NO",
        "Molecular Mass": "311.46",
        "Melting Point": "114 °C"
    }
}