{
    "cas_no": "102-70-5",
    "key_name": "Triallylamine",
    "cn_name": "三烯丙基胺;",
    "alternate_name": "2-Propen-1-amine, <em>N</em>,<em>N</em>-di-2-propen-1-yl-;Triallylamine;2-Propen-1-amine, <em>N</em>,<em>N</em>-di-2-propenyl-;<em>N</em>,<em>N</em>-Di-2-propen-1-yl-2-propen-1-amine;Tris(2-propenyl)amine;<em>N</em>,<em>N</em>-Di-2-propenyl-2-propen-1-amine;NSC 32635",
    "duplicated_cas_no": "44905-30-8;343314-28-3",
    "SMILES": "N(CC=C)(CC=C)CC=C",
    "meta_data": {
        "InChI": "InChI=1S/C9H15N/c1-4-7-10(8-5-2)9-6-3/h4-6H,1-3,7-9H2",
        "InChIKey": null,
        "Canonical SMILES": "C=CCN(CC=C)CC=C",
        "Molecular Formula": "C<sub>9</sub>H<sub>15</sub>N",
        "Molecular Mass": "137.22",
        "Boiling Point": "155.5 °C",
        "Melting Point": "&lt;-70 °C",
        "Density": "0.809 g/cm³ @ Temp: 20 °C"
    }
}