{
    "cas_no": "5444-02-0",
    "key_name": "1,2-Dihydro-6-hydroxy-4-methyl-2-oxo-3-pyridinecarbonitrile",
    "cn_name": "2,6-二羟基-3-氰基-4-甲基吡啶;3-氰基-4-甲基-6-羟基-2-吡啶酮;",
    "alternate_name": "3-Pyridinecarbonitrile, 1,2-dihydro-6-hydroxy-4-methyl-2-oxo-;Nicotinonitrile, 2,6-dihydroxy-4-methyl-;1,2-Dihydro-6-hydroxy-4-methyl-2-oxo-3-pyridinecarbonitrile;2,6-Dihydroxy-3-cyano-4-methylpyridine;3-Cyano-2,6-dihydroxy-4-methylpyridine;3-Cyano-4-methyl-6-hydroxy-2-pyridone;3-Cyano-6-hydroxy-4-methyl-2-pyridone;2,6-Dihydroxy-4-methyl-3-pyridinecarbonitrile;3-Cyano-4-methyl-6-hydroxy-2-pyridinone;2,6-Dihydroxy-4-methylnicotinonitrile;NSC 19883;3-Cyano-6-hydroxy-4-methylpyridin-2(1<em>H</em>)-one;2-Hydroxy-4-methyl-6-oxo-1,6-dihydropyridine-3-carbonitrile;2-Hydroxy-4-methyl-6-oxo-1<em>H</em>-pyridine-3-carbonitrile",
    "duplicated_cas_no": "40401-47-6",
    "SMILES": "C(#N)C1=C(C)C=C(O)NC1=O",
    "meta_data": {
        "InChI": "InChI=1S/C7H6N2O2/c1-4-2-6(10)9-7(11)5(4)3-8/h2H,1H3,(H2,9,10,11)",
        "InChIKey": null,
        "Canonical SMILES": "N#CC=1C(=O)NC(O)=CC1C",
        "Molecular Formula": "C<sub>7</sub>H<sub>6</sub>N<sub>2</sub>O<sub>2</sub>",
        "Molecular Mass": "150.13",
        "Melting Point": "304 °C (decomp)"
    }
}