{
    "cas_no": "5465-65-6",
    "key_name": "1-(4-Chloro-3-nitrophenyl)ethanone",
    "cn_name": "4-氯-3-硝基苯乙酮;",
    "alternate_name": "Ethanone, 1-(4-chloro-3-nitrophenyl)-;Acetophenone, 4′-chloro-3′-nitro-;1-(4-Chloro-3-nitrophenyl)ethanone;4′-Chloro-3′-nitroacetophenone;4-Acetyl-1-chloro-2-nitrobenzene;2-Chloro-5-acetylnitrobenzene;3′-Nitro-4′-chloroacetophenone;NSC 25820;1-Acetyl-4-chloro-3-nitrobenzene",
    "duplicated_cas_no": "",
    "SMILES": "N(=O)(=O)C1=CC(C(C)=O)=CC=C1Cl",
    "meta_data": {
        "InChI": "InChI=1S/C8H6ClNO3/c1-5(11)6-2-3-7(9)8(4-6)10(12)13/h2-4H,1H3",
        "InChIKey": null,
        "Canonical SMILES": "O=C(C1=CC=C(Cl)C(=C1)N(=O)=O)C",
        "Molecular Formula": "C<sub>8</sub>H<sub>6</sub>ClNO<sub>3</sub>",
        "Molecular Mass": "199.59",
        "Melting Point": "104 °C"
    }
}