{
    "cas_no": "612-36-2",
    "key_name": "2,4′-Dinitrodiphenylamine",
    "cn_name": null,
    "alternate_name": "Benzenamine, 2-nitro-<em>N</em>-(4-nitrophenyl)-;Diphenylamine, 2,4′-dinitro-;2-Nitro-<em>N</em>-(4-nitrophenyl)benzenamine;2,4′-Dinitrodiphenylamine;NSC 229367;2-Nitro-<em>N</em>-(4-nitrophenyl)aniline",
    "duplicated_cas_no": "",
    "SMILES": "N(C1=C(N(=O)=O)C=CC=C1)C2=CC=C(N(=O)=O)C=C2",
    "meta_data": {
        "InChI": "InChI=1S/C12H9N3O4/c16-14(17)10-7-5-9(6-8-10)13-11-3-1-2-4-12(11)15(18)19/h1-8,13H",
        "InChIKey": null,
        "Canonical SMILES": "O=N(=O)C1=CC=C(C=C1)NC=2C=CC=CC2N(=O)=O",
        "Molecular Formula": "C<sub>12</sub>H<sub>9</sub>N<sub>3</sub>O<sub>4</sub>",
        "Molecular Mass": "259.22",
        "Melting Point": "217 °C"
    }
}