{
    "cas_no": "116-17-6",
    "key_name": "Triisopropyl phosphite",
    "cn_name": "三异丙基亚磷酸酯;亚磷酸三异丙酯;",
    "alternate_name": "Phosphorous acid, tris(1-methylethyl) ester;Phosphorous acid, triisopropyl ester;Isopropyl phosphite ((C<sub>3</sub>H<sub>7</sub>O)<sub>3</sub>P);Triisopropyl phosphite;Triisopropoxyphosphine;Isopropyl phosphite;Tri-2-propyl phosphite;NSC 6516;Tris(isopropyl) phosphite",
    "duplicated_cas_no": "",
    "SMILES": "P(OC(C)C)(OC(C)C)OC(C)C",
    "meta_data": {
        "InChI": "InChI=1S/C9H21O3P/c1-7(2)10-13(11-8(3)4)12-9(5)6/h7-9H,1-6H3",
        "InChIKey": null,
        "Canonical SMILES": "O(P(OC(C)C)OC(C)C)C(C)C",
        "Molecular Formula": "C<sub>9</sub>H<sub>21</sub>O<sub>3</sub>P",
        "Molecular Mass": "208.24",
        "Boiling Point": "87-88 °C @ Press: 0.5 Torr",
        "Density": "0.914 g/cm³ @ Temp: 20 °C"
    }
}