{
    "cas_no": "2344-80-1",
    "key_name": "(Chloromethyl)trimethylsilane",
    "cn_name": "氯甲基三甲基硅烷;",
    "alternate_name": "Silane, (chloromethyl)trimethyl-;(Chloromethyl)trimethylsilane;Trimethyl(chloromethyl)silane;(Trimethylsilyl)methyl chloride;Chloro(trimethylsilyl)methane",
    "duplicated_cas_no": "61696-01-3",
    "SMILES": "[Si](CCl)(C)(C)C",
    "meta_data": {
        "InChI": "InChI=1S/C4H11ClSi/c1-6(2,3)4-5/h4H2,1-3H3",
        "InChIKey": null,
        "Canonical SMILES": "ClC[Si](C)(C)C",
        "Molecular Formula": "C<sub>4</sub>H<sub>11</sub>ClSi",
        "Molecular Mass": "122.67",
        "Boiling Point": "98.5 °C",
        "Density": "0.886 g/cm³"
    }
}