{
    "cas_no": "6966-10-5",
    "key_name": "3,4-Dimethylbenzyl alcohol",
    "cn_name": "3,4-二甲基苯甲醇;",
    "alternate_name": "Benzenemethanol, 3,4-dimethyl-;Benzyl alcohol, 3,4-dimethyl-;3,4-Dimethylbenzenemethanol;3,4-Dimethylbenzyl alcohol;3,4-Dimethylphenylmethanol;NSC 18728",
    "duplicated_cas_no": "",
    "SMILES": "C(O)C1=CC(C)=C(C)C=C1",
    "meta_data": {
        "InChI": "InChI=1S/C9H12O/c1-7-3-4-9(6-10)5-8(7)2/h3-5,10H,6H2,1-2H3",
        "InChIKey": null,
        "Canonical SMILES": "OCC1=CC=C(C(=C1)C)C",
        "Molecular Formula": "C<sub>9</sub>H<sub>12</sub>O",
        "Molecular Mass": "136.19",
        "Melting Point": "61-62 °C"
    }
}