{
    "cas_no": "4403-36-5",
    "key_name": "2-Phthalimidoethanesulfonyl chloride",
    "cn_name": "2-苯二(甲)酰亚氨基乙烷磺酰氯;2-苯二(甲)酰亚氨基乙烷磺酰氯;",
    "alternate_name": "2<em>H</em>-Isoindole-2-ethanesulfonyl chloride, 1,3-dihydro-1,3-dioxo-;2-Isoindolineethanesulfonyl chloride, 1,3-dioxo-;1,3-Dihydro-1,3-dioxo-2<em>H</em>-isoindole-2-ethanesulfonyl chloride;2-Phthalimidoethanesulfonyl chloride;2-Phthalimidoethylsulfonyl chloride;NSC 210785;NSC 218453;2-(1,3-Dioxo-1,3-dihydro-isoindol-2-yl)-ethanesulfonyl chloride;2-(1,3-Dioxoisoindolin-2-yl)ethanesulfonyl chloride;2-(1,3-Dioxo-2,3-dihydro-1<em>H</em>-isoindol-2-yl)ethan-1-sulfonyl chloride;2-(1,3-Dioxoisoindol-2-yl)ethanesulfonyl chloride;2-(1,3-Dioxo-2,3-dihydro-1<em>H</em>-isoindol-2-yl)ethane-1-sulfonyl chloride;2-(1,3-Dioxo-isoindolin-2-yl)ethylsulfonyl chloride",
    "duplicated_cas_no": "",
    "SMILES": "O=C1C=2C(C(=O)N1CCS(Cl)(=O)=O)=CC=CC2",
    "meta_data": {
        "InChI": "InChI=1S/C10H8ClNO4S/c11-17(15,16)6-5-12-9(13)7-3-1-2-4-8(7)10(12)14/h1-4H,5-6H2",
        "InChIKey": null,
        "Canonical SMILES": "O=C1C=2C=CC=CC2C(=O)N1CCS(=O)(=O)Cl",
        "Molecular Formula": "C<sub>10</sub>H<sub>8</sub>ClNO<sub>4</sub>S",
        "Molecular Mass": "273.69",
        "Melting Point": "157.5-158.5 °C"
    }
}