{
    "cas_no": "61337-89-1",
    "key_name": "1-(3-Hydroxymethyl-2-pyridyl)-4-methyl-2-phenylpiperazine",
    "cn_name": "2-(4-甲基-2-苯基-1-哌嗪基)-3-吡啶甲醇;",
    "alternate_name": "3-Pyridinemethanol, 2-(4-methyl-2-phenyl-1-piperazinyl)-;2-(4-Methyl-2-phenyl-1-piperazinyl)-3-pyridinemethanol;1-(3-Hydroxymethyl-2-pyridyl)-4-methyl-2-phenylpiperazine;1-[3-(Hydroxymethyl)pyridin-2-yl)-4-methyl-2-phenylpiperazine;2-(4-Methyl-2-phenylpiperazin-1-yl)pyridine-3-methanol",
    "duplicated_cas_no": "",
    "SMILES": "C(O)C1=C(N2C(CN(C)CC2)C3=CC=CC=C3)N=CC=C1",
    "meta_data": {
        "InChI": "InChI=1S/C17H21N3O/c1-19-10-11-20(17-15(13-21)8-5-9-18-17)16(12-19)14-6-3-2-4-7-14/h2-9,16,21H,10-13H2,1H3",
        "InChIKey": null,
        "Canonical SMILES": "OCC1=CC=CN=C1N2CCN(C)CC2C=3C=CC=CC3",
        "Molecular Formula": "C<sub>17</sub>H<sub>21</sub>N<sub>3</sub>O",
        "Molecular Mass": "283.37",
        "Melting Point": "124-125 °C"
    }
}