{
    "cas_no": "1676-81-9",
    "key_name": "<em>N</em>-[(Phenylmethoxy)carbonyl]-<span class=\"text-smallcaps\">L</span>-serine methyl ester",
    "cn_name": "N-苄氧羰酰基-L-丝氨酸甲酯;",
    "alternate_name": "<span class=\"text-smallcaps\">L</span>-Serine, <em>N</em>-[(phenylmethoxy)carbonyl]-, methyl ester;Serine, <em>N</em>-carboxy-, <em>N</em>-benzyl methyl ester, <span class=\"text-smallcaps\">L</span>-;Serine, <em>N</em>-carboxy-, <em>N</em>-benzyl methyl ester;<em>N</em>-[(Phenylmethoxy)carbonyl]-<span class=\"text-smallcaps\">L</span>-serine methyl ester;(Benzyloxycarbonyl)-<span class=\"text-smallcaps\">L</span>-serine methyl ester;<em>N</em>-Carbobenzoxy-<span class=\"text-smallcaps\">L</span>-serine methyl ester;<em>N</em>-(Benzyloxycarbonyl)serine methyl ester;<em>N</em>-(Benzyloxycarbonyl)-<span class=\"text-smallcaps\">L</span>-serine methyl ester;Methyl <em>N</em>-(benzyloxycarbonyl)-<span class=\"text-smallcaps\">L</span>-serinate;Methyl (<em>S</em>)-2-((benzyloxycarbonyl)amino)-3-hydroxypropanoate;Methyl (2<em>S</em>)-2-[(benzyloxycarbonyl)amino]-3-hydroxypropanoate;(2<em>S</em>)-2-[(Benzyloxycarbonyl)amino]-3-hydroxypropionic acid methyl ester;(2S)-2-[(Benzyloxycarbonyl)amino]-3-hydroxypropionic acid methyl ester;<em>N</em>-Cbz-<span class=\"text-smallcaps\">L</span>-serine methyl ester",
    "duplicated_cas_no": "1190194-07-0",
    "SMILES": "C(OC(N[C@H](C(OC)=O)CO)=O)C1=CC=CC=C1",
    "meta_data": {
        "InChI": "InChI=1S/C12H15NO5/c1-17-11(15)10(7-14)13-12(16)18-8-9-5-3-2-4-6-9/h2-6,10,14H,7-8H2,1H3,(H,13,16)/t10-/m0/s1",
        "InChIKey": null,
        "Canonical SMILES": "O=C(OCC=1C=CC=CC1)NC(C(=O)OC)CO",
        "Molecular Formula": "C<sub>12</sub>H<sub>15</sub>NO<sub>5</sub>",
        "Molecular Mass": "253.25",
        "Melting Point": "85-87 °C"
    }
}