{
    "cas_no": "1563-56-0",
    "key_name": "2-(2-Amino-5-bromobenzoyl)pyridine",
    "cn_name": null,
    "alternate_name": "Methanone, (2-amino-5-bromophenyl)-2-pyridinyl-;Ketone, 2-amino-5-bromophenyl 2-pyridyl;(2-Amino-5-bromophenyl)-2-pyridinylmethanone;2-(2-Amino-5-bromobenzoyl)pyridine;2-Amino-5-bromophenyl 2-pyridyl ketone;2-(5-Bromo-2-aminobenzoyl)pyridine;2-Amino-5-bromophenyl-2-pyridylmethanone",
    "duplicated_cas_no": "",
    "SMILES": "C(=O)(C1=C(N)C=CC(Br)=C1)C2=CC=CC=N2",
    "meta_data": {
        "InChI": "InChI=1S/C12H9BrN2O/c13-8-4-5-10(14)9(7-8)12(16)11-3-1-2-6-15-11/h1-7H,14H2",
        "InChIKey": null,
        "Canonical SMILES": "O=C(C1=NC=CC=C1)C2=CC(Br)=CC=C2N",
        "Molecular Formula": "C<sub>12</sub>H<sub>9</sub>BrN<sub>2</sub>O",
        "Molecular Mass": "277.12",
        "Melting Point": "96-99 °C"
    }
}