{
    "cas_no": "7429-37-0",
    "key_name": "<em>trans</em>-1,2-Dibromocyclohexane",
    "cn_name": "反-1,2-二溴环己烷;1.2-二溴环已烷;反-1,2-二溴环己胺;",
    "alternate_name": "Cyclohexane, 1,2-dibromo-, (1<em>R</em>,2<em>R</em>)-<em>rel</em>-;Cyclohexane, 1,2-dibromo-, <em>trans</em>-;<em>rel</em>-(1<em>R</em>,2<em>R</em>)-1,2-Dibromocyclohexane;<em>trans</em>-1,2-Dibromocyclohexane;(±)-<em>trans</em>-1,2-Dibromocyclohexane;1,2-<em>trans</em>-Dibromocyclohexane;NSC 92176",
    "duplicated_cas_no": "5183-77-7",
    "SMILES": "Br[C@H]1[C@H](Br)CCCC1",
    "meta_data": {
        "InChI": "InChI=1/C6H10Br2/c7-5-3-1-2-4-6(5)8/h5-6H,1-4H2/t5-,6-/s2",
        "InChIKey": null,
        "Canonical SMILES": "BrC1CCCCC1Br",
        "Molecular Formula": "C<sub>6</sub>H<sub>10</sub>Br<sub>2</sub>",
        "Molecular Mass": "241.95",
        "Boiling Point": "101 °C @ Press: 14 Torr",
        "Melting Point": "-5 °C",
        "Density": "1.7701 g/cm³ @ Temp: 30 °C"
    }
}