{
    "cas_no": "82958-44-9",
    "key_name": "11-<em>O</em>-Galloylbergenin",
    "cn_name": null,
    "alternate_name": "Benzoic acid, 3,4,5-trihydroxy-, [(2<em>R</em>,3<em>S</em>,4<em>S</em>,4a<em>R</em>,10b<em>S</em>)-2,3,4,4a,6,10b-hexahydro-3,4,8,10-tetrahydroxy-9-methoxy-6-oxopyrano[3,2-<em>c</em>][2]benzopyran-2-yl]methyl ester;Benzoic acid, 3,4,5-trihydroxy-, (2,3,4,4a,6,10b-hexahydro-3,4,8,10-tetrahydroxy-9-methoxy-6-oxopyrano[3,2-<em>c</em>][2]benzopyran-2-yl)methyl ester, [2<em>R</em>-(2α,3β,4α,4aα,10bβ)]-;Pyrano[3,2-<em>c</em>][2]benzopyran, benzoic acid deriv.;11-<em>O</em>-Galloylbergenin",
    "duplicated_cas_no": "",
    "SMILES": "OC1=C2[C@]3([C@](OC(=O)C2=CC(O)=C1OC)([C@@H](O)[C@H](O)[C@@H](COC(=O)C4=CC(O)=C(O)C(O)=C4)O3)[H])[H]",
    "meta_data": {
        "InChI": "InChI=1S/C21H20O13/c1-31-17-10(24)4-7-12(15(17)27)18-19(34-21(7)30)16(28)14(26)11(33-18)5-32-20(29)6-2-8(22)13(25)9(23)3-6/h2-4,11,14,16,18-19,22-28H,5H2,1H3/t11-,14-,16+,18+,19-/m1/s1",
        "InChIKey": null,
        "Canonical SMILES": "O=C(OCC1OC2C3=C(O)C(OC)=C(O)C=C3C(=O)OC2C(O)C1O)C4=CC(O)=C(O)C(O)=C4",
        "Molecular Formula": "C<sub>21</sub>H<sub>20</sub>O<sub>13</sub>",
        "Molecular Mass": "480.38",
        "Melting Point": "269 °C"
    }
}