{
    "cas_no": "142-04-1",
    "key_name": "Benzenamine hydrochloride (1:1)",
    "cn_name": "盐酸苯胺;苯胺盐酸盐;",
    "alternate_name": "Benzenamine, hydrochloride (1:1);Aniline, hydrochloride;Benzenamine, hydrochloride;Benzenamine hydrochloride (1:1);C.I. 76001;Phenylamine hydrochloride;Phenylammonium chloride;Anilinium chloride;Aniline hydrochloride;Benzenamine hydrochloride",
    "duplicated_cas_no": "1415719-73-1",
    "SMILES": "NC1=CC=CC=C1.Cl",
    "meta_data": {
        "InChI": "InChI=1S/C6H7N.ClH/c7-6-4-2-1-3-5-6;/h1-5H,7H2;1H",
        "InChIKey": null,
        "Canonical SMILES": "Cl.NC=1C=CC=CC1",
        "Molecular Formula": "C<sub>6</sub>H<sub>7</sub>N.ClH",
        "Molecular Mass": "",
        "Boiling Point": "245 °C",
        "Melting Point": "196 °C",
        "Density": "1.22 g/cm³"
    }
}