{
    "cas_no": "117449-75-9",
    "key_name": "5-Chloro-1,2-dihydro-6-methyl-2-oxo-3-pyridinecarboxylic acid",
    "cn_name": null,
    "alternate_name": "3-Pyridinecarboxylic acid, 5-chloro-1,2-dihydro-6-methyl-2-oxo-;5-Chloro-1,2-dihydro-6-methyl-2-oxo-3-pyridinecarboxylic acid;5-Chloro-2-hydroxy-6-methylnicotinic acid",
    "duplicated_cas_no": "",
    "SMILES": "C(O)(=O)C=1C(=O)NC(C)=C(Cl)C1",
    "meta_data": {
        "InChI": "InChI=1S/C7H6ClNO3/c1-3-5(8)2-4(7(11)12)6(10)9-3/h2H,1H3,(H,9,10)(H,11,12)",
        "InChIKey": null,
        "Canonical SMILES": "O=C(O)C1=CC(Cl)=C(NC1=O)C",
        "Molecular Formula": "C<sub>7</sub>H<sub>6</sub>ClNO<sub>3</sub>",
        "Molecular Mass": "187.58",
        "Melting Point": "291-294 °C"
    }
}