{
    "cas_no": "545-47-1",
    "key_name": "Lupeol",
    "cn_name": "羽扇豆醇;",
    "alternate_name": "Lup-20(29)-en-3-ol, (3β)-;Lup-20(29)-en-3β-ol;Monogynol B;1<em>H</em>-Cyclopenta[<em>a</em>]chrysene, lup-20(29)-en-3-ol deriv.;(3β)-Lup-20(29)-en-3-ol;Fagarasterol;Lupenol;Lupeol;Clerodol;β-Viscol;Fagarsterol;3β-Hydroxylup-20(29)-ene;(+)-Lupeol;NSC 90487",
    "duplicated_cas_no": "132473-92-8;200123-55-3",
    "SMILES": "C[C@]12[C@@]([C@@]3([C@@](C)(CC1)CC[C@H]3C(C)=C)[H])(CC[C@]4([C@@]2(C)CC[C@@]5([C@]4(C)CC[C@H](O)C5(C)C)[H])[H])[H]",
    "meta_data": {
        "InChI": "InChI=1S/C30H50O/c1-19(2)20-11-14-27(5)17-18-29(7)21(25(20)27)9-10-23-28(6)15-13-24(31)26(3,4)22(28)12-16-30(23,29)8/h20-25,31H,1,9-18H2,2-8H3/t20-,21+,22-,23+,24-,25+,27+,28-,29+,30+/m0/s1",
        "InChIKey": null,
        "Canonical SMILES": "OC1CCC2(C)C(CCC3(C)C2CCC4C5C(C(=C)C)CCC5(C)CCC43C)C1(C)C",
        "Molecular Formula": "C<sub>30</sub>H<sub>50</sub>O",
        "Molecular Mass": "426.72",
        "Melting Point": "216 °C",
        "Density": "0.9457 g/cm³ @ Temp: 18 °C"
    }
}