{
    "cas_no": "1763-23-1",
    "key_name": "Perfluorooctanesulfonic acid",
    "cn_name": "全氟辛烷磺酸;全氟辛基磺酸;十七氟辛烷磺酸;1,1,2,2,3,3,4,4,5,5,6,6,7,7,8,8,8-十七氟代-1-辛磺酸;",
    "alternate_name": "1-Octanesulfonic acid, 1,1,2,2,3,3,4,4,5,5,6,6,7,7,8,8,8-heptadecafluoro-;1-Octanesulfonic acid, heptadecafluoro-;1,1,2,2,3,3,4,4,5,5,6,6,7,7,8,8,8-Heptadecafluoro-1-octanesulfonic acid;Perfluorooctylsulfonic acid;Perfluorooctanesulfonic acid;Perfluoro-<em>n</em>-octanesulfonic acid;Heptadecafluoro-1-octanesulfonic acid;1-Perfluorooctanesulfonic acid;Eftop EF 101;EF 101;Heptadecafluorooctanesulfonic acid;PFOS",
    "duplicated_cas_no": "132324-11-9",
    "SMILES": "C(C(C(C(C(F)(F)F)(F)F)(F)F)(F)F)(C(C(C(S(=O)(=O)O)(F)F)(F)F)(F)F)(F)F",
    "meta_data": {
        "InChI": "InChI=1S/C8HF17O3S/c9-1(10,3(13,14)5(17,18)7(21,22)23)2(11,12)4(15,16)6(19,20)8(24,25)29(26,27)28/h(H,26,27,28)",
        "InChIKey": null,
        "Canonical SMILES": "O=S(=O)(O)C(F)(F)C(F)(F)C(F)(F)C(F)(F)C(F)(F)C(F)(F)C(F)(F)C(F)(F)F",
        "Molecular Formula": "C<sub>8</sub>HF<sub>17</sub>O<sub>3</sub>S",
        "Molecular Mass": "500.13",
        "Boiling Point": "133 °C @ Press: 6 Torr"
    }
}