{
    "cas_no": "77326-36-4",
    "key_name": "2-Amino-6-fluorobenzonitrile",
    "cn_name": "2-氨基-6-氟苯腈;",
    "alternate_name": "Benzonitrile, 2-amino-6-fluoro-;2-Amino-6-fluorobenzonitrile;2-Cyano-3-fluorophenylamine;6-Amino-2-fluorobenzenecarbonitrile;6-Fluoro-2-aminobenzonitrile",
    "duplicated_cas_no": "",
    "SMILES": "C(#N)C1=C(F)C=CC=C1N",
    "meta_data": {
        "InChI": "InChI=1S/C7H5FN2/c8-6-2-1-3-7(10)5(6)4-9/h1-3H,10H2",
        "InChIKey": null,
        "Canonical SMILES": "N#CC=1C(F)=CC=CC1N",
        "Molecular Formula": "C<sub>7</sub>H<sub>5</sub>FN<sub>2</sub>",
        "Molecular Mass": "136.13",
        "Melting Point": "125-127 °C"
    }
}