{
    "cas_no": "142-78-9",
    "key_name": "Lauric acid monoethanolamide",
    "cn_name": "N-(2-羟乙基)十二烷基酰胺;N-(2-羟乙基)十二烷基酰胺;",
    "alternate_name": "Dodecanamide, <em>N</em>-(2-hydroxyethyl)-;<em>N</em>-(2-Hydroxyethyl)dodecanamide;Copramyl;Crillon LME;2-Dodecanamidoethanol;<em>N</em>-(2-Hydroxyethyl)lauramide;Lauric acid ethanolamide;Lauric ethylolamide;Laurylamidoethanol;Laurylethanolamide;Lauryl monoethanolamide;Stabilor CMH;Ultrapole H;Lauric acid monoethanolamide;Vistalan;Lauric monoethanolamide;Lauridit LM;Steinamid L 203;Lauric acid monoethanolamine;Cyclomide LM;Rewomid L 203;Lauramide MEA;Lauroyl monoethanolamide;Comperlan LM;Rolamid CM;Lauric <em>N</em>-(2-hydroxyethyl)amide;Amisol LME;<em>N</em>-Dodecanoylethanolamine;<em>N</em>-(β-Hydroxyethyl)dodecanamide;Tohol N 120;<em>N</em>-Lauroylethanolamine;Alkamide L 203;Mackamide LMM;Tohol N 230;Lauramide monoethanolamine;Aminon C 01;Aminon C 01S;Lauric acid <em>N</em>-(2-hydroxyethyl)amide;Mackamide LMA;N 120",
    "duplicated_cas_no": "123175-08-6;8028-85-1;15517-65-4;65256-27-1",
    "SMILES": "C(CC(NCCO)=O)CCCCCCCCC",
    "meta_data": {
        "InChI": "InChI=1S/C14H29NO2/c1-2-3-4-5-6-7-8-9-10-11-14(17)15-12-13-16/h16H,2-13H2,1H3,(H,15,17)",
        "InChIKey": null,
        "Canonical SMILES": "O=C(NCCO)CCCCCCCCCCC",
        "Molecular Formula": "C<sub>14</sub>H<sub>29</sub>NO<sub>2</sub>",
        "Molecular Mass": "243.39",
        "Melting Point": "62 °C"
    }
}