{
    "cas_no": "2698-41-1",
    "key_name": "2-Chlorobenzylidenemalononitrile",
    "cn_name": "邻氯苄叉缩丙二腈;邻氯苄叉丙二腈;",
    "alternate_name": "Propanedinitrile, 2-[(2-chlorophenyl)methylene]-;Malononitrile, (<em>o</em>-chlorobenzylidene)-;Propanedinitrile, [(2-chlorophenyl)methylene]-;2-[(2-Chlorophenyl)methylene]propanedinitrile;2-Chlorobenzylidenemalononitrile;β,β-Dicyano-<em>o</em>-chlorostyrene;2-Chlorobenzalmalononitrile;(<em>o</em>-Chlorobenzal)malononitrile;(<em>o</em>-Chlorobenzylidene)malononitrile;CS (lacrimator);<em>o</em>-Chlorobenzylidenemalonic nitrile;CS;CS(lacrimitor);2-(<em>o</em>-Chlorophenyl)-1,1-dicyanoethylene;2-Chlorobenzylidenemalonodinitrile;NSC 542;NSC 637336;1-Chloro-2-(2,2-dicyanoethenyl)benzene;2-[(2-Chlorophenyl)methylene]malononitrile;2-(2-Chlorobenzylidene)malononitrile;[(2-Chlorophenyl)methylene]malononitrile;2-[(2-Chlorophenyl)methylidene]propanedinitrile",
    "duplicated_cas_no": "",
    "SMILES": "C(=C(C#N)C#N)C1=C(Cl)C=CC=C1",
    "meta_data": {
        "InChI": "InChI=1S/C10H5ClN2/c11-10-4-2-1-3-9(10)5-8(6-12)7-13/h1-5H",
        "InChIKey": null,
        "Canonical SMILES": "N#CC(C#N)=CC=1C=CC=CC1Cl",
        "Molecular Formula": "C<sub>10</sub>H<sub>5</sub>ClN<sub>2</sub>",
        "Molecular Mass": "188.61",
        "Boiling Point": "310-315 °C",
        "Melting Point": "95-96 °C"
    }
}