{
    "cas_no": "757-58-4",
    "key_name": "Tetraphosphoric acid, hexaethyl ester",
    "cn_name": null,
    "alternate_name": "Tetraphosphoric acid, hexaethyl ester;Ethyl tetraphosphate;Hexaethyl tetraphosphate;HET;Bladan",
    "duplicated_cas_no": "",
    "SMILES": "P(OP(OP(OCC)(OCC)=O)(OCC)=O)(OP(OCC)(OCC)=O)(OCC)=O",
    "meta_data": {
        "InChI": "InChI=1S/C12H30O13P4/c1-7-17-26(13,18-8-2)23-28(15,21-11-5)25-29(16,22-12-6)24-27(14,19-9-3)20-10-4/h7-12H2,1-6H3",
        "InChIKey": null,
        "Canonical SMILES": "O=P(OCC)(OCC)OP(=O)(OCC)OP(=O)(OCC)OP(=O)(OCC)OCC",
        "Molecular Formula": "C<sub>12</sub>H<sub>30</sub>O<sub>13</sub>P<sub>4</sub>",
        "Molecular Mass": "506.25",
        "Melting Point": "~-40 °C (approx)",
        "Density": "1.2917 g/cm³ @ Temp: 27 °C"
    }
}