{
    "cas_no": "1066-51-9",
    "key_name": "(Aminomethyl)phosphonic acid",
    "cn_name": "氨甲基膦酸;",
    "alternate_name": "Phosphonic acid, <em>P</em>-(aminomethyl)-;Phosphonic acid, (aminomethyl)-;<em>P</em>-(Aminomethyl)phosphonic acid;Aminomethanephosphonic acid;Phosphaglycine;Nalco 3919;(Aminomethyl)phosphonic acid;AMPA (surfactant);AMPA;NSC 30076",
    "duplicated_cas_no": "",
    "SMILES": "P(CN)(=O)(O)O",
    "meta_data": {
        "InChI": "InChI=1S/CH6NO3P/c2-1-6(3,4)5/h1-2H2,(H2,3,4,5)",
        "InChIKey": null,
        "Canonical SMILES": "O=P(O)(O)CN",
        "Molecular Formula": "CH<sub>6</sub>NO<sub>3</sub>P",
        "Molecular Mass": "111.04",
        "Melting Point": "310 °C",
        "Density": "6.43 x 10⁻³ mol/L"
    }
}