{
    "cas_no": "2439-04-5",
    "key_name": "5-Hydroxyisoquinoline",
    "cn_name": "5-羟基异喹啉;",
    "alternate_name": "5-Isoquinolinol;5-Hydroxyisoquinoline;NSC 51787",
    "duplicated_cas_no": "",
    "SMILES": "OC=1C2=C(C=CC1)C=NC=C2",
    "meta_data": {
        "InChI": "InChI=1S/C9H7NO/c11-9-3-1-2-7-6-10-5-4-8(7)9/h1-6,11H",
        "InChIKey": null,
        "Canonical SMILES": "OC1=CC=CC=2C=NC=CC12",
        "Molecular Formula": "C<sub>9</sub>H<sub>7</sub>NO",
        "Molecular Mass": "145.16",
        "Melting Point": "231-233 °C"
    }
}