{
    "cas_no": "78597-54-3",
    "key_name": "5-(4-Methylphenyl)-1<em>H</em>-pyrazol-3-amine",
    "cn_name": null,
    "alternate_name": "1<em>H</em>-Pyrazol-3-amine, 5-(4-methylphenyl)-;5-(4-Methylphenyl)-1<em>H</em>-pyrazol-3-amine;3-Amino-5-(4-methylphenyl)pyrazole;3-Amino-5-(<em>p</em>-tolyl)pyrazole;5-Amino-3-(4-methylphenyl)-1<em>H</em>-pyrazole;3-(4-Methylphenyl)-5-amino-1<em>H</em>-pyrazole;5-(<em>p</em>-Tolyl)-1<em>H</em>-pyrazol-3-amine;1<em>H</em>-Pyrazol-3-amine 5-(4-methylphenyl)-;3-Amino-5-(4-methylphenyl)-1<em>H</em>-pyrazole",
    "duplicated_cas_no": "123789-20-8;125118-68-5;131060-19-0;133953-96-5;142653-97-2;151293-15-1;205188-16-5;331978-85-9;351003-25-3;434897-84-4;440366-29-0;501014-67-1;677030-54-5;680184-94-5;750628-75-2;766519-81-7;866430-75-3;876519-71-0;895042-38-3;945538-38-5;948991-08-0;1043391-51-0;1061704-70-8;1123877-28-0;1235885-28-5",
    "SMILES": "NC=1C=C(C2=CC=C(C)C=C2)NN1",
    "meta_data": {
        "InChI": "InChI=1S/C10H11N3/c1-7-2-4-8(5-3-7)9-6-10(11)13-12-9/h2-6H,1H3,(H3,11,12,13)",
        "InChIKey": null,
        "Canonical SMILES": "N=1NC(=CC1N)C=2C=CC(=CC2)C",
        "Molecular Formula": "C<sub>10</sub>H<sub>11</sub>N<sub>3</sub>",
        "Molecular Mass": "173.21",
        "Melting Point": "145-147 °C"
    }
}