{
    "cas_no": "1634-04-4",
    "key_name": "<em>tert</em>-Butyl methyl ether",
    "cn_name": "甲基叔丁基醚;叔丁基甲醚;2-甲氧基-2-甲基丙烷;",
    "alternate_name": "Propane, 2-methoxy-2-methyl-;Ether, <em>tert</em>-butyl methyl;2-Methoxy-2-methylpropane;Methyl <em>tert</em>-butyl ether;2-Methyl-2-methoxypropane;<em>tert</em>-Butyl methyl ether;Methyl 1,1-dimethylethyl ether;<em>tert</em>-Butoxymethane;MTBE;1,1-Dimethylethyl methyl ether;<em>t</em>-Butyl methyl ether;Methyl tertiary butyl ether;Driveron",
    "duplicated_cas_no": "",
    "SMILES": "C(OC)(C)(C)C",
    "meta_data": {
        "InChI": "InChI=1S/C5H12O/c1-5(2,3)6-4/h1-4H3",
        "InChIKey": null,
        "Canonical SMILES": "O(C)C(C)(C)C",
        "Molecular Formula": "C<sub>5</sub>H<sub>12</sub>O",
        "Molecular Mass": "88.15",
        "Boiling Point": "55.2 °C",
        "Melting Point": "-108.6 °C",
        "Density": "0.7405 g/cm³ @ Temp: 20 °C"
    }
}