{
    "cas_no": "33094-66-5",
    "key_name": "2-Nitrobenzofuran",
    "cn_name": null,
    "alternate_name": "Benzofuran, 2-nitro-;2-Nitrobenzofuran;R 5144;NSC 170697;2-Nitrobenzo[<em>b</em>]furan;2-Nitro-1-benzofuran",
    "duplicated_cas_no": "",
    "SMILES": "N(=O)(=O)C1=CC=2C(O1)=CC=CC2",
    "meta_data": {
        "InChI": "InChI=1S/C8H5NO3/c10-9(11)8-5-6-3-1-2-4-7(6)12-8/h1-5H",
        "InChIKey": null,
        "Canonical SMILES": "O=N(=O)C=1OC=2C=CC=CC2C1",
        "Molecular Formula": "C<sub>8</sub>H<sub>5</sub>NO<sub>3</sub>",
        "Molecular Mass": "163.13",
        "Melting Point": "151-152 °C"
    }
}