{
    "cas_no": "121459-15-2",
    "key_name": "1<em>H</em>-Indole-1-ethanol",
    "cn_name": null,
    "alternate_name": "1<em>H</em>-Indole-1-ethanol;1-(2-Hydroxyethyl)indole;2-(1<em>H</em>-1-Indolyl)ethanol;2-(1-Indole)ethyl alcohol;2-(Indol-1-yl)ethanol;2-(1<em>H</em>-Indol-1-yl)ethan-1-ol",
    "duplicated_cas_no": "",
    "SMILES": "C(CO)N1C=2C(C=C1)=CC=CC2",
    "meta_data": {
        "InChI": "InChI=1S/C10H11NO/c12-8-7-11-6-5-9-3-1-2-4-10(9)11/h1-6,12H,7-8H2",
        "InChIKey": null,
        "Canonical SMILES": "OCCN1C=CC=2C=CC=CC21",
        "Molecular Formula": "C<sub>10</sub>H<sub>11</sub>NO",
        "Molecular Mass": "161.20",
        "Boiling Point": "141-142 °C @ Press: 2.5 Torr",
        "Melting Point": "42-43 °C"
    }
}