{
    "cas_no": "455-26-5",
    "key_name": "4-(Fluorosulfonyl)benzoic acid",
    "cn_name": null,
    "alternate_name": "Benzoic acid, 4-(fluorosulfonyl)-;Benzoic acid, <em>p</em>-(fluorosulfonyl)-;4-(Fluorosulfonyl)benzoic acid;<em>p</em>-(Fluorosulfonyl)benzoic acid;4-Carboxybenzenesulfonyl fluoride",
    "duplicated_cas_no": "",
    "SMILES": "S(F)(=O)(=O)C1=CC=C(C(O)=O)C=C1",
    "meta_data": {
        "InChI": "InChI=1S/C7H5FO4S/c8-13(11,12)6-3-1-5(2-4-6)7(9)10/h1-4H,(H,9,10)",
        "InChIKey": null,
        "Canonical SMILES": "O=C(O)C1=CC=C(C=C1)S(=O)(=O)F",
        "Molecular Formula": "C<sub>7</sub>H<sub>5</sub>FO<sub>4</sub>S",
        "Molecular Mass": "204.18",
        "Melting Point": "270 °C"
    }
}