{
    "cas_no": "108-94-1",
    "key_name": "Cyclohexanone",
    "cn_name": "环己酮;",
    "alternate_name": "Cyclohexanone;Anone;Hexanon;Hytrol O;Nadone;Pimelic ketone;Pimelin ketone;Sextone;Anon;NSC 5711;C 0489;HJT 187231",
    "duplicated_cas_no": "",
    "SMILES": "O=C1CCCCC1",
    "meta_data": {
        "InChI": "InChI=1S/C6H10O/c7-6-4-2-1-3-5-6/h1-5H2",
        "InChIKey": null,
        "Canonical SMILES": "O=C1CCCCC1",
        "Molecular Formula": "C<sub>6</sub>H<sub>10</sub>O",
        "Molecular Mass": "98.14",
        "Boiling Point": "1.4 °C @ Press: 1.0 Torr",
        "Melting Point": "-31 °C",
        "Density": "0.9478 g/cm³ @ Temp: 20 °C"
    }
}