{
    "cas_no": "17912-87-7",
    "key_name": "Myricitrin",
    "cn_name": "杨梅苷;杨梅甙;五羟基黄酮-3-鼠李糖苷;",
    "alternate_name": "4<em>H</em>-1-Benzopyran-4-one, 3-[(6-deoxy-α-<span class=\"text-smallcaps\">L</span>-mannopyranosyl)oxy]-5,7-dihydroxy-2-(3,4,5-trihydroxyphenyl)-;Myricitrin;3-[(6-Deoxy-α-<span class=\"text-smallcaps\">L</span>-mannopyranosyl)oxy]-5,7-dihydroxy-2-(3,4,5-trihydroxyphenyl)-4<em>H</em>-1-benzopyran-4-one;Myricetin 3-rhamnoside;Myricitroside;Myricetin 3-<em>O</em>-α-<span class=\"text-smallcaps\">L</span>-rhamnoside;Myricitrine;3,3′,4′,5,5′,7-Hexahydroxyflavone, 3-rhamnoside;Myricetin 3-<em>O</em>-α-<span class=\"text-smallcaps\">L</span>-rhamnopyranoside;Myricetin 3-<em>O</em>-rhamnoside;Myricetin 3-<em>O</em>-α-rhamnopyranoside;NSC 19803;Myricetin-3-<em>O</em>-α-rhamnoside;Myricetin 3-<em>O</em>-α-<span class=\"text-smallcaps\">L</span>-rhamnpyronoside;Myricetin 3-<em>O</em>-rhamnopyranoside;3-<em>O</em>-Rhamnosylmyricetin;Myricetin-3-<em>O</em>-β-rhamnopyranoside",
    "duplicated_cas_no": "572-28-1;1329-16-4;1205539-58-7",
    "SMILES": "O(C1=C(OC=2C(C1=O)=C(O)C=C(O)C2)C3=CC(O)=C(O)C(O)=C3)[C@H]4[C@H](O)[C@H](O)[C@@H](O)[C@H](C)O4",
    "meta_data": {
        "InChI": "InChI=1S/C21H20O12/c1-6-14(26)17(29)18(30)21(31-6)33-20-16(28)13-9(23)4-8(22)5-12(13)32-19(20)7-2-10(24)15(27)11(25)3-7/h2-6,14,17-18,21-27,29-30H,1H3/t6-,14-,17+,18+,21-/m0/s1",
        "InChIKey": null,
        "Canonical SMILES": "O=C1C(OC2OC(C)C(O)C(O)C2O)=C(OC=3C=C(O)C=C(O)C13)C=4C=C(O)C(O)=C(O)C4",
        "Molecular Formula": "C<sub>21</sub>H<sub>20</sub>O<sub>12</sub>",
        "Molecular Mass": "464.38",
        "Melting Point": "197-199 °C"
    }
}