{
    "cas_no": "1112-56-7",
    "key_name": "Tetraethenylstannane",
    "cn_name": "四乙烯基锡;",
    "alternate_name": "Stannane, tetraethenyl-;Stannane, tetravinyl-;Tin, tetravinyl-;Tetraethenylstannane;Tetravinyltin;Tetravinylstannane",
    "duplicated_cas_no": "",
    "SMILES": "[Sn](C=C)(C=C)(C=C)C=C",
    "meta_data": {
        "InChI": "InChI=1S/4C2H3.Sn/c4*1-2;/h4*1H,2H2;",
        "InChIKey": null,
        "Canonical SMILES": "C=C[Sn](C=C)(C=C)C=C",
        "Molecular Formula": "C<sub>8</sub>H<sub>12</sub>Sn",
        "Molecular Mass": "226.89",
        "Boiling Point": "160-163 °C",
        "Density": "1.257 g/cm³"
    }
}