{
    "cas_no": "76-60-8",
    "key_name": "Bromocresol green",
    "cn_name": "溴甲酚绿;溴甲酚蓝;3\",3\",5\",5\"-四溴间甲酚磺酸酚酞;",
    "alternate_name": "Phenol, 4,4′-(1,1-dioxido-3<em>H</em>-2,1-benzoxathiol-3-ylidene)bis[2,6-dibromo-3-methyl-;<em>m</em>-Cresol, 4,4′-(3<em>H</em>-2,1-benzoxathiol-3-ylidene)bis[2,6-dibromo-, <em>S</em>,<em>S</em>-dioxide;Bromocresol green;Phenol, 4,4′-(3<em>H</em>-2,1-benzoxathiol-3-ylidene)bis[2,6-dibromo-3-methyl-, <em>S</em>,<em>S</em>-dioxide;<em>o</em>-Toluenesulfonic acid, α,α-bis(3,5-dibromo-4-hydroxy-<em>o</em>-tolyl)-α-hydroxy-, γ-sultone;3<em>H</em>-2,1-Benzoxathiole, phenol deriv.;4,4′-(1,1-Dioxido-3<em>H</em>-2,1-benzoxathiol-3-ylidene)bis[2,6-dibromo-3-methylphenol];BCG;Tetrabromo-<em>m</em>-cresolphthalein sulfone;3′,3′′,5′,5′′-Tetrabromo-<em>m</em>-cresolsulfonephthalein;Bromcresol green;NSC 7817;MeSH ID: D001961",
    "duplicated_cas_no": "641-19-0",
    "SMILES": "CC1=C(C2(C=3C(S(=O)(=O)O2)=CC=CC3)C4=C(C)C(Br)=C(O)C(Br)=C4)C=C(Br)C(O)=C1Br",
    "meta_data": {
        "InChI": "InChI=1S/C21H14Br4O5S/c1-9-12(7-14(22)19(26)17(9)24)21(13-8-15(23)20(27)18(25)10(13)2)11-5-3-4-6-16(11)31(28,29)30-21/h3-8,26-27H,1-2H3",
        "InChIKey": null,
        "Canonical SMILES": "O=S1(=O)OC(C=2C=CC=CC21)(C3=CC(Br)=C(O)C(Br)=C3C)C4=CC(Br)=C(O)C(Br)=C4C",
        "Molecular Formula": "C<sub>21</sub>H<sub>14</sub>Br<sub>4</sub>O<sub>5</sub>S",
        "Molecular Mass": "698.01",
        "Melting Point": "218.5 °C"
    }
}