{
    "cas_no": "6165-69-1",
    "key_name": "3-Thienylboronic acid",
    "cn_name": "3-噻吩硼酸;",
    "alternate_name": "Boronic acid, <em>B</em>-3-thienyl-;3-Thiopheneboronic acid;Boronic acid, 3-thienyl-;<em>B</em>-3-Thienylboronic acid;3-Thienylboronic acid;3-Thiophenylboronic acid;3-Thiopheneboric acid;Thiophen-3-boronic acid;(Thiophene-3-yl)boronic acid;Thiophen-3-ylboronic acid",
    "duplicated_cas_no": "",
    "SMILES": "B(O)(O)C=1C=CSC1",
    "meta_data": {
        "InChI": "InChI=1S/C4H5BO2S/c6-5(7)4-1-2-8-3-4/h1-3,6-7H",
        "InChIKey": null,
        "Canonical SMILES": "OB(O)C1=CSC=C1",
        "Molecular Formula": "C<sub>4</sub>H<sub>5</sub>BO<sub>2</sub>S",
        "Molecular Mass": "127.96",
        "Melting Point": "152-154 °C"
    }
}