{
    "cas_no": "109-72-8",
    "key_name": "Butyllithium",
    "cn_name": "正丁基锂;丁基锂;",
    "alternate_name": "Lithium, butyl-;Butyllithium;1-Butyllithium;<em>n</em>-Butyllithium",
    "duplicated_cas_no": "52948-61-5",
    "SMILES": "C(CC)C[Li]",
    "meta_data": {
        "InChI": "InChI=1S/C4H9.Li/c1-3-4-2;/h1,3-4H2,2H3;",
        "InChIKey": null,
        "Canonical SMILES": "[Li]CCCC",
        "Molecular Formula": "C<sub>4</sub>H<sub>9</sub>Li",
        "Molecular Mass": "",
        "Melting Point": "109-111 °C",
        "Density": "0.765 g/cm³"
    }
}