{
    "cas_no": "60061-68-9",
    "key_name": "4-Bromo-3-methyl-5-(trifluoromethyl)-1<em>H</em>-pyrazole",
    "cn_name": null,
    "alternate_name": "1<em>H</em>-Pyrazole, 4-bromo-3-methyl-5-(trifluoromethyl)-;4-Bromo-3-methyl-5-(trifluoromethyl)-1<em>H</em>-pyrazole;4-Bromo-5-methyl-3-trifluoromethyl-2<em>H</em>-pyrazole;4-Bromo-5-methyl-3-trifluoromethyl-1<em>H</em>-pyrazole",
    "duplicated_cas_no": "229957-04-4;496947-25-2;916792-36-4;1092683-89-0;1173882-03-5;2378306-48-8;2641339-55-9;2746447-08-3;2803954-88-1",
    "SMILES": "C(F)(F)(F)C1=C(Br)C(C)=NN1",
    "meta_data": {
        "InChI": "InChI=1S/C5H4BrF3N2/c1-2-3(6)4(11-10-2)5(7,8)9/h1H3,(H,10,11)",
        "InChIKey": null,
        "Canonical SMILES": "FC(F)(F)C=1NN=C(C1Br)C",
        "Molecular Formula": "C<sub>5</sub>H<sub>4</sub>BrF<sub>3</sub>N<sub>2</sub>",
        "Molecular Mass": "229.00",
        "Melting Point": "89-90 °C"
    }
}