{
    "cas_no": "65202-51-9",
    "key_name": "6-Bromo-3-pyridazinecarboxylic acid",
    "cn_name": "6-溴哒嗪-3-羧酸;",
    "alternate_name": "3-Pyridazinecarboxylic acid, 6-bromo-;6-Bromo-3-pyridazinecarboxylic acid;3-Bromopyridazine-6-carboxylic acid;6-Bromopyridazine-3-carboxylic acid",
    "duplicated_cas_no": "",
    "SMILES": "C(O)(=O)C1=CC=C(Br)N=N1",
    "meta_data": {
        "InChI": "InChI=1S/C5H3BrN2O2/c6-4-2-1-3(5(9)10)7-8-4/h1-2H,(H,9,10)",
        "InChIKey": null,
        "Canonical SMILES": "O=C(O)C1=NN=C(Br)C=C1",
        "Molecular Formula": "C<sub>5</sub>H<sub>3</sub>BrN<sub>2</sub>O<sub>2</sub>",
        "Molecular Mass": "202.99",
        "Melting Point": "149-150 °C"
    }
}