{
    "cas_no": "1919-48-8",
    "key_name": "2,4,6-Triphenoxy-1,3,5-triazine",
    "cn_name": null,
    "alternate_name": "1,3,5-Triazine, 2,4,6-triphenoxy-;<em>s</em>-Triazine, 2,4,6-triphenoxy-;2,4,6-Triphenoxy-1,3,5-triazine;Triphenyl cyanurate;Triphenoxy-<em>s</em>-triazine;2,4,6-Triphenoxy-<em>s</em>-triazine;NSC 76476;NRB 01501",
    "duplicated_cas_no": "",
    "SMILES": "O(C=1N=C(OC2=CC=CC=C2)N=C(OC3=CC=CC=C3)N1)C4=CC=CC=C4",
    "meta_data": {
        "InChI": "InChI=1S/C21H15N3O3/c1-4-10-16(11-5-1)25-19-22-20(26-17-12-6-2-7-13-17)24-21(23-19)27-18-14-8-3-9-15-18/h1-15H",
        "InChIKey": null,
        "Canonical SMILES": "N=1C(=NC(=NC1OC=2C=CC=CC2)OC=3C=CC=CC3)OC=4C=CC=CC4",
        "Molecular Formula": "C<sub>21</sub>H<sub>15</sub>N<sub>3</sub>O<sub>3</sub>",
        "Molecular Mass": "357.36",
        "Melting Point": "235-236 °C"
    }
}