{
    "cas_no": "13001-40-6",
    "key_name": "4,4′-(1,4-Phenylenedi-2,1-ethenediyl)bis[benzonitrile]",
    "cn_name": "4,4\"-双[2-(邻氰苯基)乙烯基]苯;荧光增白剂ER;C.I.199;",
    "alternate_name": "Benzonitrile, 4,4′-(1,4-phenylenedi-2,1-ethenediyl)bis-;Benzonitrile, 4,4′-(<em>p</em>-phenylenedivinylene)di-;4,4′-(1,4-Phenylenedi-2,1-ethenediyl)bis[benzonitrile];1,4-Bis(<em>p</em>-cyanostyryl)benzene;C.I. Fluorescent Brightener 199;Palanil Brilliant White R;Fluorescent Brightener 199;C.I. 40705;1,4-Bis(4-cyanostyryl)benzene;Ultraphor RN;Blankophor ER;4,4′-(<em>p</em>-Phenylenediethene-2,1-diyl)bisbenzonitrile",
    "duplicated_cas_no": "58449-88-0",
    "SMILES": "C(=CC1=CC=C(C#N)C=C1)C2=CC=C(C=CC3=CC=C(C#N)C=C3)C=C2",
    "meta_data": {
        "InChI": "InChI=1S/C24H16N2/c25-17-23-13-9-21(10-14-23)7-5-19-1-2-20(4-3-19)6-8-22-11-15-24(18-26)16-12-22/h1-16H",
        "InChIKey": null,
        "Canonical SMILES": "N#CC1=CC=C(C=C1)C=CC2=CC=C(C=CC3=CC=C(C#N)C=C3)C=C2",
        "Molecular Formula": "C<sub>24</sub>H<sub>16</sub>N<sub>2</sub>",
        "Molecular Mass": "332.40",
        "Melting Point": "278-279 °C"
    }
}