{
    "cas_no": "1159-53-1",
    "key_name": "Tri-<em>p</em>-tolylamine",
    "cn_name": "4,4\",4\"\"-三甲基三苯胺;",
    "alternate_name": "Benzenamine, 4-methyl-<em>N</em>,<em>N</em>-bis(4-methylphenyl)-;Tri-<em>p</em>-tolylamine;4-Methyl-<em>N</em>,<em>N</em>-bis(4-methylphenyl)benzenamine;Tris(<em>p</em>-methylphenyl)amine;Tritolylamine;Tris(<em>p</em>-tolyl)amine;Tris(4-tolyl)amine;Tri-4-tolylamine;<em>N</em>,<em>N</em>-Bis(<em>p</em>-tolyl)-<em>p</em>-toluidine;<em>N</em>,<em>N</em>,<em>N</em>-Tri(4-methylphenyl)amine;<em>N</em>,<em>N</em>,<em>N</em>-Tris(4-methylphenyl)amine;Tri(4-methylphenyl)amine;Tris(4-methylphenyl)amine;T 3TA",
    "duplicated_cas_no": "",
    "SMILES": "N(C1=CC=C(C)C=C1)(C2=CC=C(C)C=C2)C3=CC=C(C)C=C3",
    "meta_data": {
        "InChI": "InChI=1S/C21H21N/c1-16-4-10-19(11-5-16)22(20-12-6-17(2)7-13-20)21-14-8-18(3)9-15-21/h4-15H,1-3H3",
        "InChIKey": null,
        "Canonical SMILES": "C=1C=C(C=CC1N(C2=CC=C(C=C2)C)C3=CC=C(C=C3)C)C",
        "Molecular Formula": "C<sub>21</sub>H<sub>21</sub>N",
        "Molecular Mass": "287.40",
        "Boiling Point": "294.8 °C",
        "Melting Point": "117 °C",
        "Density": "1.10 g/cm³"
    }
}