{
    "cas_no": "6476-36-4",
    "key_name": "Triisopropylphosphine",
    "cn_name": "三异丙基膦;三异丙基磷;三异丙基膦;",
    "alternate_name": "Phosphine, tris(1-methylethyl)-;Phosphine, triisopropyl-;Tris(1-methylethyl)phosphine;Triisopropylphosphine;Tris(isopropyl)phosphine;NSC 244304",
    "duplicated_cas_no": "",
    "SMILES": "P(C(C)C)(C(C)C)C(C)C",
    "meta_data": {
        "InChI": "InChI=1S/C9H21P/c1-7(2)10(8(3)4)9(5)6/h7-9H,1-6H3",
        "InChIKey": null,
        "Canonical SMILES": "P(C(C)C)(C(C)C)C(C)C",
        "Molecular Formula": "C<sub>9</sub>H<sub>21</sub>P",
        "Molecular Mass": "160.24",
        "Boiling Point": "64 °C @ Press: 12 Torr"
    }
}