{
    "cas_no": "5424-21-5",
    "key_name": "2,4-Dichloro-6-methylpyrimidine",
    "cn_name": "2,4-二氯-6-甲基嘧啶;",
    "alternate_name": "Pyrimidine, 2,4-dichloro-6-methyl-;2,4-Dichloro-6-methylpyrimidine;2,6-Dichloro-4-methylpyrimidine;NSC 13199;6-Methyl-2,4-dichloropyrimidine",
    "duplicated_cas_no": "",
    "SMILES": "CC=1C=C(Cl)N=C(Cl)N1",
    "meta_data": {
        "InChI": "InChI=1S/C5H4Cl2N2/c1-3-2-4(6)9-5(7)8-3/h2H,1H3",
        "InChIKey": null,
        "Canonical SMILES": "ClC=1N=C(Cl)C=C(N1)C",
        "Molecular Formula": "C<sub>5</sub>H<sub>4</sub>Cl<sub>2</sub>N<sub>2</sub>",
        "Molecular Mass": "163.00",
        "Boiling Point": "219 °C",
        "Melting Point": "46.5 °C"
    }
}