{
    "cas_no": "92-88-6",
    "key_name": "4,4′-Dihydroxybiphenyl",
    "cn_name": "4,4\"-二羟基联苯;联苯二酚;",
    "alternate_name": "[1,1′-Biphenyl]-4,4′-diol;4,4′-Biphenyldiol;ASM DOD;<em>p</em>,<em>p</em>′-Biphenol;4,4′-Dihydroxybiphenyl;4,4′-Dihydroxydiphenyl;<em>p</em>,<em>p</em>′-Diphenol;4,4′-Biphenol;<em>p</em>-Dihydroxydiphenyl;DOD;Antioxidant DOD;4,4′-Dihydroxy-1,1′-biphenyl;<em>p</em>,<em>p</em>′-Dihydroxybiphenyl;4,4′-Bisphenol;4,4′-Diphenol;<em>p</em>-Diphenol;4-(4-Hydroxyphenyl)phenol;BPL;BPL (phenol);NSC 8711;B 0464",
    "duplicated_cas_no": "",
    "SMILES": "OC1=CC=C(C=C1)C2=CC=C(O)C=C2",
    "meta_data": {
        "InChI": "InChI=1S/C12H10O2/c13-11-5-1-9(2-6-11)10-3-7-12(14)8-4-10/h1-8,13-14H",
        "InChIKey": null,
        "Canonical SMILES": "OC=1C=CC(=CC1)C2=CC=C(O)C=C2",
        "Molecular Formula": "C<sub>12</sub>H<sub>10</sub>O<sub>2</sub>",
        "Molecular Mass": "186.21",
        "Melting Point": "283 °C"
    }
}