{
    "cas_no": "123-30-8",
    "key_name": "4-Aminophenol",
    "cn_name": "4-氨基苯酚;对氨基苯酚;对氨基酚;",
    "alternate_name": "Phenol, 4-amino-;Phenol, <em>p</em>-amino-;4-Aminophenol;C.I. 76550;Activol;<em>p</em>-Aminophenol;Azol;BASF Ursol P Base;Benzofur P;Certinal;Citol;C.I. Oxidation Base 6;Durafur Brown RB;Fouramine P;Fourrine 84;Fourrine P Base;Furro P base;<em>p</em>-Hydroxyaniline;4-Hydroxyaniline;Nako Brown R;Paranol;Pelagol P Base;Pelagol Grey P Base;Renal AC;Rodinal;Tertral P Base;Unal;Ursol P;Ursol P Base;Zoba Brown P Base;<em>p</em>-Hydroxyphenylamine;4-Amino-1-hydroxybenzene;1-Amino-4-hydroxybenzene;4-Hydroxybenzenamine;4-Hydroxyphenylamine;4-Hydroxy-1-aminobenzene;NSC 1545;A 0384",
    "duplicated_cas_no": "52985-09-8;1309774-68-2",
    "SMILES": "NC1=CC=C(O)C=C1",
    "meta_data": {
        "InChI": "InChI=1S/C6H7NO/c7-5-1-3-6(8)4-2-5/h1-4,8H,7H2",
        "InChIKey": null,
        "Canonical SMILES": "OC1=CC=C(N)C=C1",
        "Molecular Formula": "C<sub>6</sub>H<sub>7</sub>NO",
        "Molecular Mass": "109.13",
        "Boiling Point": "284 °C",
        "Melting Point": "189.6-190.2 °C"
    }
}