{
    "cas_no": "401-56-9",
    "key_name": "Acetic acid, 2-chloro-2-fluoro-, ethyl ester",
    "cn_name": "氯氟乙酸乙酯;",
    "alternate_name": "Acetic acid, 2-chloro-2-fluoro-, ethyl ester;Acetic acid, chlorofluoro-, ethyl ester;Ethyl chlorofluoroacetate;Ethyl fluorochloroacetate;Ethyl 2-chloro-2-fluoroacetate",
    "duplicated_cas_no": "",
    "SMILES": "C(OCC)(C(Cl)F)=O",
    "meta_data": {
        "InChI": "InChI=1S/C4H6ClFO2/c1-2-8-4(7)3(5)6/h3H,2H2,1H3",
        "InChIKey": null,
        "Canonical SMILES": "O=C(OCC)C(F)Cl",
        "Molecular Formula": "C<sub>4</sub>H<sub>6</sub>ClFO<sub>2</sub>",
        "Molecular Mass": "140.54",
        "Boiling Point": "129 °C",
        "Density": "1.227 g/cm³ @ Temp: 25 °C"
    }
}