{
    "cas_no": "5098-14-6",
    "key_name": "Propanedinitrile, 2-amino-, 4-methylbenzenesulfonate (1:1)",
    "cn_name": null,
    "alternate_name": "Propanedinitrile, 2-amino-, 4-methylbenzenesulfonate (1:1);Malononitrile, amino-, <em>p</em>-toluenesulfonate;Propanedinitrile, amino-, mono(4-methylbenzenesulfonate);Aminomalononitrile tosylate;Aminomalonitrile tosylate;Aminomalononitrile <em>p</em>-toluenesulfonate;2-Aminomalononitrile tosylate;2-Aminomalononitrile 4-methylbenzenesulfonate;2-Aminopropanedinitrile 4-methylbenzenesulfonate",
    "duplicated_cas_no": "42770-06-9;50627-64-0;3034177-17-5",
    "SMILES": "C(C#N)(C#N)N.S(=O)(=O)(O)C1=CC=C(C)C=C1",
    "meta_data": {
        "InChI": "InChI=1S/C7H8O3S.C3H3N3/c1-6-2-4-7(5-3-6)11(8,9)10;4-1-3(6)2-5/h2-5H,1H3,(H,8,9,10);3H,6H2",
        "InChIKey": null,
        "Canonical SMILES": "N#CC(C#N)N.O=S(=O)(O)C1=CC=C(C=C1)C",
        "Molecular Formula": "C<sub>7</sub>H<sub>8</sub>O<sub>3</sub>S.C<sub>3</sub>H<sub>3</sub>N<sub>3</sub>",
        "Molecular Mass": "",
        "Melting Point": "180-181 °C"
    }
}