{
    "cas_no": "25990-96-9",
    "key_name": "3,6,9,12,15,18,21,24-Octaoxapentacosan-1-ol",
    "cn_name": "辛乙烯二醇单甲酯;",
    "alternate_name": "3,6,9,12,15,18,21,24-Octaoxapentacosan-1-ol;2,5,8,11,14,17,20,23-Octaoxapentacosan-25-ol;Octaethylene glycol, monomethyl ether;Methoxyoctaethylene glycol;3,6,10,13,16,19,22,25-Octaoxahexacosan-1-ol;2-[2-[2-[2-[2-[2-[2-(2-Methoxyethoxy)ethoxy]ethoxy]ethoxy]ethoxy]ethoxy]ethoxy]ethanol",
    "duplicated_cas_no": "2407822-86-8",
    "SMILES": "C(OCCOCCOCCOCCO)COCCOCCOCCOC",
    "meta_data": {
        "InChI": "InChI=1S/C17H36O9/c1-19-4-5-21-8-9-23-12-13-25-16-17-26-15-14-24-11-10-22-7-6-20-3-2-18/h18H,2-17H2,1H3",
        "InChIKey": null,
        "Canonical SMILES": "OCCOCCOCCOCCOCCOCCOCCOCCOC",
        "Molecular Formula": "C<sub>17</sub>H<sub>36</sub>O<sub>9</sub>",
        "Molecular Mass": "384.46",
        "Boiling Point": "165 °C @ Press: 5 x 10<sup>-3</sup> Torr"
    }
}