{
    "cas_no": "15574-96-6",
    "key_name": "Pizotifen",
    "cn_name": "苯噻啶;新度美安;4-(9,10-二氢-4H-苯并[4,5]环庚烷并[1,2-b]噻吩-4-亚基)-1-甲基哌啶;",
    "alternate_name": "Piperidine, 4-(9,10-dihydro-4<em>H</em>-benzo[4,5]cyclohepta[1,2-<em>b</em>]thien-4-ylidene)-1-methyl-;4<em>H</em>-Benzo[4,5]cyclohepta[1,2-<em>b</em>]thiophene, piperidine deriv.;4-(9,10-Dihydro-4<em>H</em>-benzo[4,5]cyclohepta[1,2-<em>b</em>]thien-4-ylidene)-1-methylpiperidine;BC 105;Pizotyline;4-(1-Methyl-4-piperidylidene)-9,10-dihydro-4<em>H</em>-benzo[4,5]cyclohepta[1,2-<em>b</em>]thiophene;Pizotifen;Litec;Sandomigran;Polomigran",
    "duplicated_cas_no": "",
    "SMILES": "CN1CCC(=C2C3=C(CCC=4C2=CC=CC4)SC=C3)CC1",
    "meta_data": {
        "InChI": "InChI=1S/C19H21NS/c1-20-11-8-15(9-12-20)19-16-5-3-2-4-14(16)6-7-18-17(19)10-13-21-18/h2-5,10,13H,6-9,11-12H2,1H3",
        "InChIKey": null,
        "Canonical SMILES": "S1C=CC2=C1CCC=3C=CC=CC3C2=C4CCN(C)CC4",
        "Molecular Formula": "C<sub>19</sub>H<sub>21</sub>NS",
        "Molecular Mass": "295.44",
        "Melting Point": "164 °C"
    }
}