{
    "cas_no": "25391-58-6",
    "key_name": "3-Iodo-5-nitro-2(1<em>H</em>)-pyridinone",
    "cn_name": null,
    "alternate_name": "2(1<em>H</em>)-Pyridinone, 3-iodo-5-nitro-;2-Pyridinol, 3-iodo-5-nitro-;3-Iodo-5-nitro-2(1<em>H</em>)-pyridinone;3-Iodo-5-nitropyridin-2-ol;2-Hydroxy-3-iodo-5-nitropyridine;3-Iodo-5-nitro-1<em>H</em>-pyridin-2-one;3-Iodo-5-nitro-1,2-dihydropyridin-2-one",
    "duplicated_cas_no": "",
    "SMILES": "N(=O)(=O)C=1C=C(I)C(=O)NC1",
    "meta_data": {
        "InChI": "InChI=1S/C5H3IN2O3/c6-4-1-3(8(10)11)2-7-5(4)9/h1-2H,(H,7,9)",
        "InChIKey": null,
        "Canonical SMILES": "O=C1NC=C(C=C1I)N(=O)=O",
        "Molecular Formula": "C<sub>5</sub>H<sub>3</sub>IN<sub>2</sub>O<sub>3</sub>",
        "Molecular Mass": "265.99",
        "Melting Point": "203 °C"
    }
}