{
    "cas_no": "1445-54-1",
    "key_name": "Ethyl 3-chloro-4-pyridazinecarboxylate",
    "cn_name": null,
    "alternate_name": "4-Pyridazinecarboxylic acid, 3-chloro-, ethyl ester;Ethyl 3-chloro-4-pyridazinecarboxylate;3-Chloropyridazine-4-carboxylic acid ethyl ester",
    "duplicated_cas_no": "",
    "SMILES": "C(OCC)(=O)C1=C(Cl)N=NC=C1",
    "meta_data": {
        "InChI": "InChI=1S/C7H7ClN2O2/c1-2-12-7(11)5-3-4-9-10-6(5)8/h3-4H,2H2,1H3",
        "InChIKey": null,
        "Canonical SMILES": "O=C(OCC)C1=CC=NN=C1Cl",
        "Molecular Formula": "C<sub>7</sub>H<sub>7</sub>ClN<sub>2</sub>O<sub>2</sub>",
        "Molecular Mass": "186.60",
        "Melting Point": "49 °C"
    }
}