{
    "cas_no": "1864-94-4",
    "key_name": "Phenyl formate",
    "cn_name": "甲酸苯酯;羧酸苯甲酯;甲酸苯酯,95%;",
    "alternate_name": "Formic acid, phenyl ester;Phenyl formate;Phenoxyformaldehyde",
    "duplicated_cas_no": "",
    "SMILES": "O(C=O)C1=CC=CC=C1",
    "meta_data": {
        "InChI": "InChI=1S/C7H6O2/c8-6-9-7-4-2-1-3-5-7/h1-6H",
        "InChIKey": null,
        "Canonical SMILES": "O=COC=1C=CC=CC1",
        "Molecular Formula": "C<sub>7</sub>H<sub>6</sub>O<sub>2</sub>",
        "Molecular Mass": "122.12",
        "Boiling Point": "78 °C @ Press: 14 Torr",
        "Melting Point": "33-37 °C",
        "Density": "1.0786 g/cm³ @ Temp: 15 °C"
    }
}