{
    "cas_no": "1691-99-2",
    "key_name": "<em>N</em>-Ethylperfluorooctanesulfonamidoethanol",
    "cn_name": null,
    "alternate_name": "1-Octanesulfonamide, <em>N</em>-ethyl-1,1,2,2,3,3,4,4,5,5,6,6,7,7,8,8,8-heptadecafluoro-<em>N</em>-(2-hydroxyethyl)-;<em>N</em>-Ethyl-1,1,2,2,3,3,4,4,5,5,6,6,7,7,8,8,8-heptadecafluoro-<em>N</em>-(2-hydroxyethyl)-1-octanesulfonamide;<em>N</em>-Ethylperfluorooctanesulfonamidoethyl alcohol;<em>N</em>-Ethyl-<em>N</em>-(2-hydroxyethyl)perfluorooctanesulfonamide;<em>N</em>-Ethylperfluorooctanesulfonamidoethanol;AI 3-29782;FC 10;Fluorad FC 10;2-[<em>N</em>-Ethyl-<em>N</em>-(perfluorooctylsulfonyl)amino]ethanol;2-Perfluorooctylsulfonyl-<em>N</em>-ethylaminoethyl alcohol;LE 011;<em>N</em>-Ethylheptadecafluorooctanesulfonamidoethanol;<em>N</em>-EtFOSE;2-(<em>N</em>-Ethylperfluoro-1-octanesulfonamido)ethanol",
    "duplicated_cas_no": "",
    "SMILES": "C(C(C(C(S(N(CCO)CC)(=O)=O)(F)F)(F)F)(F)F)(C(C(C(C(F)(F)F)(F)F)(F)F)(F)F)(F)F",
    "meta_data": {
        "InChI": "InChI=1S/C12H10F17NO3S/c1-2-30(3-4-31)34(32,33)12(28,29)10(23,24)8(19,20)6(15,16)5(13,14)7(17,18)9(21,22)11(25,26)27/h31H,2-4H2,1H3",
        "InChIKey": null,
        "Canonical SMILES": "O=S(=O)(N(CC)CCO)C(F)(F)C(F)(F)C(F)(F)C(F)(F)C(F)(F)C(F)(F)C(F)(F)C(F)(F)F",
        "Molecular Formula": "C<sub>12</sub>H<sub>10</sub>F<sub>17</sub>NO<sub>3</sub>S",
        "Molecular Mass": "571.25",
        "Boiling Point": "130-135 °C @ Press: 0.07 Torr",
        "Melting Point": "67-74 °C"
    }
}