{
    "cas_no": "19075-58-2",
    "key_name": "6-Bromobenzo[<em>b</em>]thiophene-2-carboxylic acid",
    "cn_name": null,
    "alternate_name": "Benzo[<em>b</em>]thiophene-2-carboxylic acid, 6-bromo-;6-Bromobenzo[<em>b</em>]thiophene-2-carboxylic acid;6-Bromobenzothiophene-2-carboxylic acid;6-Bromo-1-benzothiophene-2-carboxylic acid;Benzo[<em>b</em>]thiophene-6-carboxylic acid, 2-(bromocarbonyl)-",
    "duplicated_cas_no": "2375204-58-1",
    "SMILES": "C(O)(=O)C1=CC=2C(S1)=CC(Br)=CC2",
    "meta_data": {
        "InChI": "InChI=1S/C9H5BrO2S/c10-6-2-1-5-3-8(9(11)12)13-7(5)4-6/h1-4H,(H,11,12)",
        "InChIKey": null,
        "Canonical SMILES": "O=C(O)C=1SC=2C=C(Br)C=CC2C1",
        "Molecular Formula": "C<sub>9</sub>H<sub>5</sub>BrO<sub>2</sub>S",
        "Molecular Mass": "257.10",
        "Melting Point": "267 °C"
    }
}