{
    "cas_no": "13820-09-2",
    "key_name": "Trimethyl orthovalerate",
    "cn_name": "原戊酸三甲酯;",
    "alternate_name": "Pentane, 1,1,1-trimethoxy-;Orthovaleric acid, trimethyl ester;1,1,1-Trimethoxypentane;Trimethyl orthovalerate;Trimethyl orthopentanoate",
    "duplicated_cas_no": "",
    "SMILES": "C(CCCC)(OC)(OC)OC",
    "meta_data": {
        "InChI": "InChI=1S/C8H18O3/c1-5-6-7-8(9-2,10-3)11-4/h5-7H2,1-4H3",
        "InChIKey": null,
        "Canonical SMILES": "O(C)C(OC)(OC)CCCC",
        "Molecular Formula": "C<sub>8</sub>H<sub>18</sub>O<sub>3</sub>",
        "Molecular Mass": "162.23",
        "Boiling Point": "167-170 °C",
        "Density": "0.9413 g/cm³ @ Temp: 27 °C"
    }
}