{
    "cas_no": "7632-00-0",
    "key_name": "Sodium nitrite",
    "cn_name": "亚硝酸钠;",
    "alternate_name": "Nitrous acid, sodium salt (1:1);Nitrous acid, sodium salt;Anti-Rust;Filmerine;Sodium nitrite;Synfat 1004;Sodium nitrite (NaNO<sub>2</sub>);Erinitrit;M 138C;E 250;SNS 40;Nitrous Acid Soda;Nitrogen dioxide, sodium salt (1:1);Accel XP;Accel 2000H;SN 1305;MeSH ID: D012977",
    "duplicated_cas_no": "32863-15-3;56227-20-4;82497-43-6;82998-40-1;1992765-27-1",
    "SMILES": "N(=O)O.[Na]",
    "meta_data": {
        "InChI": "InChI=1S/HNO2.Na/c2-1-3;/h(H,2,3);",
        "InChIKey": null,
        "Canonical SMILES": "[Na].O=NO",
        "Molecular Formula": "HNO<sub>2</sub>.Na",
        "Molecular Mass": "",
        "Melting Point": "271 °C",
        "Density": "2.26 g/cm³"
    }
}