{
    "cas_no": "106-48-9",
    "key_name": "4-Chlorophenol",
    "cn_name": "4-氯苯酚;对氯苯酚;",
    "alternate_name": "Phenol, 4-chloro-;Phenol, <em>p</em>-chloro-;4-Chlorophenol;<em>p</em>-Chlorophenol;4-Hydroxychlorobenzene;Applied 3-78;<em>p</em>-Chlorophenic acid;NSC 2877;4-CP",
    "duplicated_cas_no": "",
    "SMILES": "ClC1=CC=C(O)C=C1",
    "meta_data": {
        "InChI": "InChI=1S/C6H5ClO/c7-5-1-3-6(8)4-2-5/h1-4,8H",
        "InChIKey": null,
        "Canonical SMILES": "ClC1=CC=C(O)C=C1",
        "Molecular Formula": "C<sub>6</sub>H<sub>5</sub>ClO",
        "Molecular Mass": "128.56",
        "Boiling Point": "220 °C",
        "Melting Point": "42.7 °C",
        "Density": "1.2238 g/cm³ @ Temp: 78 °C"
    }
}