{
    "cas_no": "959-36-4",
    "key_name": "Salicylaldazine",
    "cn_name": "水杨醛吖嗪;",
    "alternate_name": "Benzaldehyde, 2-hydroxy-, 2-[(2-hydroxyphenyl)methylene]hydrazone;Salicylaldehyde, azine;Benzaldehyde, 2-hydroxy-, [(2-hydroxyphenyl)methylene]hydrazone;Salicylaldazine;Salicylalazine;Salicylazine;2,2′-Dihydroxybenzalazine;Salazine;<em>o</em>-Hydroxybenzaldazine;<em>N</em>,<em>N</em>′-Bis(salicylidene)hydrazine;NSC 695048;NSC 864;Bis[2-hydroxybenzaldehyde] hydrazone",
    "duplicated_cas_no": "",
    "SMILES": "C(=NN=CC1=C(O)C=CC=C1)C2=C(O)C=CC=C2",
    "meta_data": {
        "InChI": "InChI=1S/C14H12N2O2/c17-13-7-3-1-5-11(13)9-15-16-10-12-6-2-4-8-14(12)18/h1-10,17-18H",
        "InChIKey": null,
        "Canonical SMILES": "OC=1C=CC=CC1C=NN=CC=2C=CC=CC2O",
        "Molecular Formula": "C<sub>14</sub>H<sub>12</sub>N<sub>2</sub>O<sub>2</sub>",
        "Molecular Mass": "240.26",
        "Melting Point": "213 °C"
    }
}