{
    "cas_no": "7440-48-4",
    "key_name": "Cobalt",
    "cn_name": "电解钴;",
    "alternate_name": "Cobalt;C.I. 77320;Cobalt-59;Cobalt element;Raney cobalt;ACO 4;Co 0138E;R 401;N 354Di;R 401 (metal);COE 03PB;Cobalt (nanoparticles);Ra-Co 2724;B 2112Z;Raney Co 2786;Raney 2786;Actica 3100;Acticat 3400;Acticat 3300;EGEDry 12162XC1;R 2724;Raney cobalt 2724;S 80;Acticat 3100;Acticat TM3100;Acticat 1100;cobalt;MeSH ID: D003035",
    "duplicated_cas_no": "132965-60-7;177256-35-8;184637-91-0;195161-79-6;335349-43-4;1245817-40-6;1262528-32-4",
    "SMILES": "[Co]",
    "meta_data": {
        "InChI": "InChI=1S/Co",
        "InChIKey": null,
        "Canonical SMILES": "[Co]",
        "Molecular Formula": "Co",
        "Molecular Mass": "",
        "Boiling Point": "2927 °C",
        "Melting Point": "1495 °C",
        "Density": "9 x 10<sup>-6</sup> g/cm³"
    }
}