{
    "cas_no": "1195-59-1",
    "key_name": "2,6-Pyridinedimethanol",
    "cn_name": "2,6-吡啶二甲醇;2,6二羟甲基吡啶;",
    "alternate_name": "2,6-Pyridinedimethanol;2,6-Bis(hydroxymethyl)pyridine;Pyridyl-2,6-dimethanol;NSC 16571;(Pyridine-2,6-diyl)bismethanol;[6-(Hydroxymethyl)pyridin-2-yl]methanol;2,6-Di(hydroxymethyl)pyridine",
    "duplicated_cas_no": "",
    "SMILES": "C(O)C=1N=C(CO)C=CC1",
    "meta_data": {
        "InChI": "InChI=1S/C7H9NO2/c9-4-6-2-1-3-7(5-10)8-6/h1-3,9-10H,4-5H2",
        "InChIKey": null,
        "Canonical SMILES": "OCC=1N=C(C=CC1)CO",
        "Molecular Formula": "C<sub>7</sub>H<sub>9</sub>NO<sub>2</sub>",
        "Molecular Mass": "139.15",
        "Melting Point": "114-115 °C"
    }
}