{
    "cas_no": "612-87-3",
    "key_name": "[1,1′-Biphenyl]-3,3′-dicarboxylic acid",
    "cn_name": null,
    "alternate_name": "[1,1′-Biphenyl]-3,3′-dicarboxylic acid;3,3′-Biphenyldicarboxylic acid;3,3′-Bibenzoic acid;<em>m</em>,<em>m</em>′-Dicarboxybiphenyl;NSC 78785",
    "duplicated_cas_no": "",
    "SMILES": "C(O)(=O)C=1C=C(C=CC1)C2=CC(C(O)=O)=CC=C2",
    "meta_data": {
        "InChI": "InChI=1S/C14H10O4/c15-13(16)11-5-1-3-9(7-11)10-4-2-6-12(8-10)14(17)18/h1-8H,(H,15,16)(H,17,18)",
        "InChIKey": null,
        "Canonical SMILES": "O=C(O)C=1C=CC=C(C1)C=2C=CC=C(C2)C(=O)O",
        "Molecular Formula": "C<sub>14</sub>H<sub>10</sub>O<sub>4</sub>",
        "Molecular Mass": "242.23",
        "Melting Point": "330-332 °C"
    }
}