{
    "cas_no": "103-16-2",
    "key_name": "Monobenzone",
    "cn_name": "4-苄氧基苯酚;对苄氧基苯酚;莫诺苯宗;",
    "alternate_name": "Phenol, 4-(phenylmethoxy)-;Phenol, <em>p</em>-(benzyloxy)-;4-(Phenylmethoxy)phenol;Alba-Dome;Benoquin;Hydroquinone benzyl ether;Hydroquinone monobenzyl ether;<em>p</em>-Hydroxyphenyl benzyl ether;Monobenzone;Monobenzyl ether hydroquinone;Monobenzyl hydroquinone;AgeRite Alba;Superlite (antioxidant);<em>p</em>-(Benzyloxy)phenol;4-(Benzyloxy)phenol;Benzyl <em>p</em>-hydroxyphenyl ether;Monobenzon;Benzoquin;Carmifal;Depigman;Dermochinona;Leucodinine;Pigmex;Superlite;Agerite;NSC 2132;NSC 33918",
    "duplicated_cas_no": "",
    "SMILES": "O(CC1=CC=CC=C1)C2=CC=C(O)C=C2",
    "meta_data": {
        "InChI": "InChI=1S/C13H12O2/c14-12-6-8-13(9-7-12)15-10-11-4-2-1-3-5-11/h1-9,14H,10H2",
        "InChIKey": null,
        "Canonical SMILES": "OC1=CC=C(OCC=2C=CC=CC2)C=C1",
        "Molecular Formula": "C<sub>13</sub>H<sub>12</sub>O<sub>2</sub>",
        "Molecular Mass": "200.23",
        "Melting Point": "122.5 °C",
        "Density": "1.26 g/cm³"
    }
}