{
    "cas_no": "146362-70-1",
    "key_name": "Meclinertant",
    "cn_name": null,
    "alternate_name": "Tricyclo[3.3.1.1<sup>3,7</sup>]decane-2-carboxylic acid, 2-[[[1-(7-chloro-4-quinolinyl)-5-(2,6-dimethoxyphenyl)-1<em>H</em>-pyrazol-3-yl]carbonyl]amino]-;2-[[[1-(7-Chloro-4-quinolinyl)-5-(2,6-dimethoxyphenyl)-1<em>H</em>-pyrazol-3-yl]carbonyl]amino]tricyclo[3.3.1.1<sup>3,7</sup>]decane-2-carboxylic acid;SR 48692;Meclinertant",
    "duplicated_cas_no": "",
    "SMILES": "N(C(=O)C1=NN(C(=C1)C2=C(OC)C=CC=C2OC)C=3C4=C(N=CC3)C=C(Cl)C=C4)C5(C(O)=O)C6CC7CC5CC(C6)C7",
    "meta_data": {
        "InChI": "InChI=1S/C32H31ClN4O5/c1-41-27-4-3-5-28(42-2)29(27)26-16-24(36-37(26)25-8-9-34-23-15-21(33)6-7-22(23)25)30(38)35-32(31(39)40)19-11-17-10-18(13-19)14-20(32)12-17/h3-9,15-20H,10-14H2,1-2H3,(H,35,38)(H,39,40)",
        "InChIKey": null,
        "Canonical SMILES": "O=C(O)C1(NC(=O)C2=NN(C=3C=CN=C4C=C(Cl)C=CC43)C(=C2)C=5C(OC)=CC=CC5OC)C6CC7CC(C6)CC1C7",
        "Molecular Formula": "C<sub>32</sub>H<sub>31</sub>ClN<sub>4</sub>O<sub>5</sub>",
        "Molecular Mass": "587.07",
        "Melting Point": "219-222 °C"
    }
}