{
    "cas_no": "13429-24-8",
    "key_name": "1-Propene, 1,1,2,3,3,3-hexafluoro-, dimer",
    "cn_name": "六氟丙烯二聚物;",
    "alternate_name": "1-Propene, 1,1,2,3,3,3-hexafluoro-, dimer;Propene, hexafluoro-, cyclic dimer;Hexafluoropropene dimer;Hexafluoropropylene dimer;Cheminox HFP-D;1,1,2,3,3,3-Hexafluoro-1-propene dimer",
    "duplicated_cas_no": "",
    "SMILES": "C(C(F)(F)F)(=C(F)F)F",
    "meta_data": {
        "InChI": "InChI=1S/C3F6/c4-1(2(5)6)3(7,8)9",
        "InChIKey": null,
        "Canonical SMILES": "FC(F)=C(F)C(F)(F)F",
        "Molecular Formula": "(C<sub>3</sub>F<sub>6</sub>)<sub>2</sub>",
        "Molecular Mass": "",
        "Boiling Point": "56 °C"
    }
}