{
    "cas_no": "7791-03-9",
    "key_name": "Lithium perchlorate",
    "cn_name": "高氯酸锂;",
    "alternate_name": "Perchloric acid, lithium salt (1:1);Perchloric acid, lithium salt;Lithium perchlorate;Lithium perchlorate (LiClO<sub>4</sub>);PC 3600;LiClO4;Lithium chloride oxide (LiClO<sub>4</sub>)",
    "duplicated_cas_no": "14124-98-2;885623-91-6;1217793-63-9;2222840-27-7;2243823-02-9;2415362-66-0",
    "SMILES": "Cl(=O)(=O)(=O)O.[Li]",
    "meta_data": {
        "InChI": "InChI=1S/ClHO4.Li/c2-1(3,4)5;/h(H,2,3,4,5);",
        "InChIKey": null,
        "Canonical SMILES": "[Li].O=Cl(=O)(=O)O",
        "Molecular Formula": "ClHO<sub>4</sub>.Li",
        "Molecular Mass": "",
        "Melting Point": "236 °C",
        "Density": "1.06056 g/cm³ @ Temp: 15 °C"
    }
}