{
    "cas_no": "1233855-46-3",
    "key_name": "<em>N</em>-Cyclohexyl-<em>N</em>-methyl-4-(1-oxido-3-pyridinyl)-1<em>H</em>-imidazole-1-carboxamide",
    "cn_name": null,
    "alternate_name": "1<em>H</em>-Imidazole-1-carboxamide, <em>N</em>-cyclohexyl-<em>N</em>-methyl-4-(1-oxido-3-pyridinyl)-;<em>N</em>-Cyclohexyl-<em>N</em>-methyl-4-(1-oxido-3-pyridinyl)-1<em>H</em>-imidazole-1-carboxamide",
    "duplicated_cas_no": "",
    "SMILES": "C(N(C)C1CCCCC1)(=O)N2C=C(N=C2)C3=CN(=O)=CC=C3",
    "meta_data": {
        "InChI": "InChI=1S/C16H20N4O2/c1-18(14-7-3-2-4-8-14)16(21)19-11-15(17-12-19)13-6-5-9-20(22)10-13/h5-6,9-12,14H,2-4,7-8H2,1H3",
        "InChIKey": null,
        "Canonical SMILES": "O=C(N1C=NC(=C1)C=2C=CC=N(=O)C2)N(C)C3CCCCC3",
        "Molecular Formula": "C<sub>16</sub>H<sub>20</sub>N<sub>4</sub>O<sub>2</sub>",
        "Molecular Mass": "300.36",
        "Melting Point": "227.5 °C"
    }
}