{
    "cas_no": "22139-77-1",
    "key_name": "Pinosylvin",
    "cn_name": null,
    "alternate_name": "1,3-Benzenediol, 5-[(1<em>E</em>)-2-phenylethenyl]-;3,5-Stilbenediol, (<em>E</em>)-;1,3-Benzenediol, 5-(2-phenylethenyl)-, (<em>E</em>)-;5-[(1<em>E</em>)-2-Phenylethenyl]-1,3-benzenediol;<em>trans</em>-3,5-Dihydroxystilbene;Pinosylvin;Pinosylvine;3,5-Dihydroxy-<em>trans</em>-stilbene;(<em>E</em>)-5-Styrylbenzene-1,3-diol",
    "duplicated_cas_no": "",
    "SMILES": "C(=C/C1=CC=CC=C1)\\C2=CC(O)=CC(O)=C2",
    "meta_data": {
        "InChI": "InChI=1S/C14H12O2/c15-13-8-12(9-14(16)10-13)7-6-11-4-2-1-3-5-11/h1-10,15-16H/b7-6+",
        "InChIKey": null,
        "Canonical SMILES": "OC=1C=C(O)C=C(C=CC=2C=CC=CC2)C1",
        "Molecular Formula": "C<sub>14</sub>H<sub>12</sub>O<sub>2</sub>",
        "Molecular Mass": "212.24",
        "Melting Point": "156 °C"
    }
}