{
    "cas_no": "94-74-6",
    "key_name": "(4-Chloro-2-methylphenoxy)acetic acid",
    "cn_name": "2-甲基-4-氯苯氧乙酸;",
    "alternate_name": "Acetic acid, 2-(4-chloro-2-methylphenoxy)-;Acetic acid, [(4-chloro-<em>o</em>-tolyl)oxy]-;Acetic acid, (4-chloro-2-methylphenoxy)-;Acetic acid, (4-chloro-<em>o</em>-toloxy)-;2-(4-Chloro-2-methylphenoxy)acetic acid;Agroxone;(4-Chloro-2-methylphenoxy)acetic acid;Herbicide M;Leuna M;MCP;Methoxone;(2-Methyl-4-chlorophenoxy)acetic acid;Mephanac;Agroxon;Hedonal M;2M4Kh;MCPA;[(4-Chloro-<em>o</em>-tolyl)oxy]acetic acid;2,4-MCPA;Anicon kombi;Anicon M;B-Selektonon M;Dicopur M;Emcepan;Hedapur M 52;Hedarex M;Netazol;Okultin M;2M-4Ch;Metaxon;2M2Kh;Hormoneste;Rhonox;Mecaphar;Agritox 50;Agritox;NSC 2351;MCPA (acid);MCP (herbicide);CMPA;MCPA (herbicide);Chipton;SAN 75",
    "duplicated_cas_no": "11111-13-0;11111-14-1;50926-55-1;57425-61-3;127289-40-1",
    "SMILES": "O(CC(O)=O)C1=C(C)C=C(Cl)C=C1",
    "meta_data": {
        "InChI": "InChI=1S/C9H9ClO3/c1-6-4-7(10)2-3-8(6)13-5-9(11)12/h2-4H,5H2,1H3,(H,11,12)",
        "InChIKey": null,
        "Canonical SMILES": "O=C(O)COC1=CC=C(Cl)C=C1C",
        "Molecular Formula": "C<sub>9</sub>H<sub>9</sub>ClO<sub>3</sub>",
        "Molecular Mass": "200.62",
        "Boiling Point": "286.74 °C",
        "Melting Point": "118-119 °C",
        "Density": "1.56 g/cm³ @ Temp: 25 °C"
    }
}