{
    "cas_no": "70693-56-0",
    "key_name": "Triethenylethoxysilane",
    "cn_name": null,
    "alternate_name": "Silane, triethenylethoxy-;Triethenylethoxysilane;Trivinylethoxysilane;Ethoxytrivinylsilane",
    "duplicated_cas_no": "",
    "SMILES": "[Si](OCC)(C=C)(C=C)C=C",
    "meta_data": {
        "InChI": "InChI=1S/C8H14OSi/c1-5-9-10(6-2,7-3)8-4/h6-8H,2-5H2,1H3",
        "InChIKey": null,
        "Canonical SMILES": "O(CC)[Si](C=C)(C=C)C=C",
        "Molecular Formula": "C<sub>8</sub>H<sub>14</sub>OSi",
        "Molecular Mass": "154.28",
        "Boiling Point": "146-147 °C",
        "Density": "0.847 g/cm³"
    }
}