{
    "cas_no": "13688-56-7",
    "key_name": "Trimethylsilyl methacrylate",
    "cn_name": "三甲基甲硅烷基丙烯酸酯;三甲基硅基丙烯酸甲酯;",
    "alternate_name": "2-Propenoic acid, 2-methyl-, trimethylsilyl ester;Methacrylic acid, trimethylsilyl ester;Silanol, trimethyl-, methacrylate;Trimethylsilyl methacrylate;T 3633;Trimethylsilyl 2-methylacrylate",
    "duplicated_cas_no": "",
    "SMILES": "C(O[Si](C)(C)C)(C(C)=C)=O",
    "meta_data": {
        "InChI": "InChI=1S/C7H14O2Si/c1-6(2)7(8)9-10(3,4)5/h1H2,2-5H3",
        "InChIKey": null,
        "Canonical SMILES": "O=C(O[Si](C)(C)C)C(=C)C",
        "Molecular Formula": "C<sub>7</sub>H<sub>14</sub>O<sub>2</sub>Si",
        "Molecular Mass": "158.27",
        "Boiling Point": "43-58 °C @ Press: 23 Torr",
        "Density": "0.885 g/cm³"
    }
}