{
    "cas_no": "6372-40-3",
    "key_name": "(1-Methylethyl)diphenylphosphine",
    "cn_name": "异丙基联苯膦;",
    "alternate_name": "Phosphine, (1-methylethyl)diphenyl-;Phosphine, isopropyldiphenyl-;(1-Methylethyl)diphenylphosphine;Isopropyldiphenylphosphine;Diphenylisopropylphosphine;NSC 244305",
    "duplicated_cas_no": "",
    "SMILES": "P(C(C)C)(C1=CC=CC=C1)C2=CC=CC=C2",
    "meta_data": {
        "InChI": "InChI=1S/C15H17P/c1-13(2)16(14-9-5-3-6-10-14)15-11-7-4-8-12-15/h3-13H,1-2H3",
        "InChIKey": null,
        "Canonical SMILES": "C=1C=CC(=CC1)P(C=2C=CC=CC2)C(C)C",
        "Molecular Formula": "C<sub>15</sub>H<sub>17</sub>P",
        "Molecular Mass": "228.27",
        "Boiling Point": "165 °C @ Press: 11 Torr",
        "Melting Point": "33 °C"
    }
}