{
    "cas_no": "13471-69-7",
    "key_name": "4-Isocyanato-1-methyl-2-nitrobenzene",
    "cn_name": "4-甲基-3-硝基苯异氰酸酯;",
    "alternate_name": "Benzene, 4-isocyanato-1-methyl-2-nitro-;Isocyanic acid, 3-nitro-<em>p</em>-tolyl ester;4-Isocyanato-1-methyl-2-nitrobenzene;4-Isocyanato-2-nitrotoluene;3-Nitro-4-methylphenyl isocyanate;4-Methyl-3-nitrophenyl isocyanate;2-Nitro-4-isocyanatotoluene;NSC 158456",
    "duplicated_cas_no": "",
    "SMILES": "N(=O)(=O)C1=CC(N=C=O)=CC=C1C",
    "meta_data": {
        "InChI": "InChI=1S/C8H6N2O3/c1-6-2-3-7(9-5-11)4-8(6)10(12)13/h2-4H,1H3",
        "InChIKey": null,
        "Canonical SMILES": "O=C=NC1=CC=C(C(=C1)N(=O)=O)C",
        "Molecular Formula": "C<sub>8</sub>H<sub>6</sub>N<sub>2</sub>O<sub>3</sub>",
        "Molecular Mass": "178.14",
        "Boiling Point": "100-102 °C @ Press: 0.2 Torr"
    }
}