{
    "cas_no": "1445-91-6",
    "key_name": "(<em>S</em>)-1-Phenylethanol",
    "cn_name": "(S)-(-)-1-苯基乙醇;(S)-(-)-1-苯乙醇;",
    "alternate_name": "Benzenemethanol, α-methyl-, (α<em>S</em>)-;Benzyl alcohol, α-methyl-, (<em>S</em>)-(-)-;Benzenemethanol, α-methyl-, (<em>S</em>)-;Benzyl alcohol, α-methyl-, <em>l</em>-;α-methyl-Benzyl alcohol, α-methyl-, (-)-;(α<em>S</em>)-α-Methylbenzenemethanol;(<em>S</em>)-(-)-Methylphenylcarbinol;(<em>S</em>)-(-)-α-Methylbenzyl alcohol;(<em>S</em>)-(-)-1-Phenylethanol;(<em>S</em>)-α-Methylbenzyl alcohol;<em>S</em>-(-)-1-Phenyl-1-ethanol;(<em>S</em>)-(-)-α-Phenylethanol;(<em>S</em>)-1-Phenylethanol;(-)-1-Phenylethanol;(-)-α-Phenylethanol;(<em>S</em>)-1-Phenyl-1-ethanol;<em>l</em>-1-Phenylethanol;<span class=\"text-smallcaps\">L</span>-(-)-α-Phenylethanol;(-)-α-Methylbenzyl alcohol;(<em>S</em>)-<em>sec</em>-Phenethyl alcohol;<em>l</em>-α-Phenethyl alcohol;(<em>S</em>)-1-Phenylethyl alcohol;(<em>S</em>)-(-)-1-Phenylethyl alcohol;(<em>S</em>)-α-Methylbenzenemethanol;(<em>S</em>)-α-Phenethyl alcohol;(<em>S</em>)-α-Phenylethanol;(-)-1-Phenyl-1-ethanol;(<em>S</em>)-(-)-α-Phenethyl alcohol;(<em>S</em>)-Phenylmethylcarbinol;(-)-<em>sec</em>-Phenethyl alcohol;(<em>S</em>)-α-Hydroxyethylbenzene;(-)-1-Phenylethyl alcohol;(-)-α-Phenethyl alcohol;(<em>S</em>)-(-)-<em>sec</em>-Phenethyl alcohol;(<em>S</em>)-1-Phenethyl alcohol;(<em>S</em>)-Phenylethanol;(1<em>S</em>)-1-Phenylethanol;(-)-(<em>S</em>)-1-Phenylethanol;(<em>S</em>)-(-)-Phenylethanol;(1S)-1-Phenylethan-1-ol",
    "duplicated_cas_no": "5692-06-8",
    "SMILES": "[C@@H](C)(O)C1=CC=CC=C1",
    "meta_data": {
        "InChI": "InChI=1S/C8H10O/c1-7(9)8-5-3-2-4-6-8/h2-7,9H,1H3/t7-/m0/s1",
        "InChIKey": null,
        "Canonical SMILES": "OC(C=1C=CC=CC1)C",
        "Molecular Formula": "C<sub>8</sub>H<sub>10</sub>O",
        "Molecular Mass": "122.16",
        "Boiling Point": "93 °C @ Press: 14 Torr"
    }
}