{
    "cas_no": "7440-56-4",
    "key_name": "Germanium",
    "cn_name": "金属锗;锗灰;锗;锗GE;锗粉;锗棒;锗单晶片;锗锭;锗片;锗窗;",
    "alternate_name": "Germanium;Germanium element;MeSH ID: D005857",
    "duplicated_cas_no": "129827-75-4",
    "SMILES": "[Ge]",
    "meta_data": {
        "InChI": "InChI=1S/Ge",
        "InChIKey": null,
        "Canonical SMILES": "[Ge]",
        "Molecular Formula": "Ge",
        "Molecular Mass": "",
        "Boiling Point": "2700 °C",
        "Melting Point": "937.2 °C",
        "Density": "5.323 g/cm³ @ Temp: 25 °C"
    }
}