{
    "cas_no": "7646-69-7",
    "key_name": "Sodium hydride",
    "cn_name": null,
    "alternate_name": "Sodium hydride (NaH);Sodium hydride;Sodium monohydride;NSC 605606;NSC 609472",
    "duplicated_cas_no": "64975-43-5;64975-44-6",
    "SMILES": "[NaH]",
    "meta_data": {
        "InChI": "InChI=1S/Na.H",
        "InChIKey": null,
        "Canonical SMILES": "[NaH]",
        "Molecular Formula": "HNa",
        "Molecular Mass": "",
        "Melting Point": "800 °C (decomp)",
        "Density": "0.92 g/cm³"
    }
}