{
    "cas_no": "934-60-1",
    "key_name": "6-Methylpicolinic acid",
    "cn_name": "6-甲基-2-吡啶甲酸;",
    "alternate_name": "2-Pyridinecarboxylic acid, 6-methyl-;Picolinic acid, 6-methyl-;6-Methyl-2-pyridinecarboxylic acid;2-Picoline-6-carboxylic acid;2-Carboxy-6-methylpyridine;6-Methylpicolinic acid;NSC 109143;NSC 26023;6-Methyl-3-picolinic acid",
    "duplicated_cas_no": "",
    "SMILES": "C(O)(=O)C=1N=C(C)C=CC1",
    "meta_data": {
        "InChI": "InChI=1S/C7H7NO2/c1-5-3-2-4-6(8-5)7(9)10/h2-4H,1H3,(H,9,10)",
        "InChIKey": null,
        "Canonical SMILES": "O=C(O)C=1N=C(C=CC1)C",
        "Molecular Formula": "C<sub>7</sub>H<sub>7</sub>NO<sub>2</sub>",
        "Molecular Mass": "137.14",
        "Melting Point": "95-96 °C"
    }
}