{
    "cas_no": "693-16-3",
    "key_name": "(±)-2-Octanamine",
    "cn_name": "2-辛胺;异辛胺;2-氨基辛烷;2-氨基辛烷;",
    "alternate_name": "2-Octanamine;Heptylamine, 1-methyl-;2-Aminooctane;2-Octylamine;1-Methylheptylamine;(±)-2-Octanamine;(±)-2-Aminooctane;<em>dl</em>-2-Octylamine;<em>dl</em>-2-Aminooctane;(<em>RS</em>)-1-methylheptylamine;(<em>RS</em>)-2-Octylamine;(±)-2-Octylamine;NSC 76546",
    "duplicated_cas_no": "44855-57-4",
    "SMILES": "C(CC(C)N)CCCC",
    "meta_data": {
        "InChI": "InChI=1S/C8H19N/c1-3-4-5-6-7-8(2)9/h8H,3-7,9H2,1-2H3",
        "InChIKey": null,
        "Canonical SMILES": "NC(C)CCCCCC",
        "Molecular Formula": "C<sub>8</sub>H<sub>19</sub>N",
        "Molecular Mass": "129.24",
        "Boiling Point": "48 °C @ Press: 9 Torr",
        "Melting Point": "82-83 °C",
        "Density": "0.7829 g/cm³ @ Temp: 20 °C"
    }
}