{
    "cas_no": "6285-05-8",
    "key_name": "1-(4-Chlorophenyl)-1-propanone",
    "cn_name": "4-氯苯丙酮;对氯苯丙酮;",
    "alternate_name": "1-Propanone, 1-(4-chlorophenyl)-;Propiophenone, 4′-chloro-;1-(4-Chlorophenyl)-1-propanone;Ethyl <em>p</em>-chlorophenyl ketone;<em>p</em>-Chloropropiophenone;4′-Chloropropiophenone;4-Chloropropiophenone;NSC 5600",
    "duplicated_cas_no": "",
    "SMILES": "C(CC)(=O)C1=CC=C(Cl)C=C1",
    "meta_data": {
        "InChI": "InChI=1S/C9H9ClO/c1-2-9(11)7-3-5-8(10)6-4-7/h3-6H,2H2,1H3",
        "InChIKey": null,
        "Canonical SMILES": "O=C(C1=CC=C(Cl)C=C1)CC",
        "Molecular Formula": "C<sub>9</sub>H<sub>9</sub>ClO",
        "Molecular Mass": "168.62",
        "Boiling Point": "134-137 °C",
        "Melting Point": "37.3 °C"
    }
}