{
    "cas_no": "2898-08-0",
    "key_name": "1,3-Dihydro-5-phenyl-2<em>H</em>-1,4-benzodiazepin-2-one",
    "cn_name": "1,3-二氢-5-苯基-1,4-苯并二氮杂卓-2-酮;",
    "alternate_name": "2<em>H</em>-1,4-Benzodiazepin-2-one, 1,3-dihydro-5-phenyl-;1,3-Dihydro-5-phenyl-2<em>H</em>-1,4-benzodiazepin-2-one;Dechlorodemethyldiazepam;1,3-Dihydro-5-phenyl-1,4-benzodiazepin-2-one;Ro 05-2921;Desmethyldechlorodiazepam;Ro 5-2921;1,2-Dihydro-5-phenyl-3<em>H</em>-1,4-benzodiazepin-2-one;5-Phenyl-1,3-dihydrobenzo[<em>e</em>][1,4]diazepin-2-one;NSC 656624;5-Phenyl-1<em>H</em>-benzo[<em>e</em>][1,4]diazepin-2(3<em>H</em>)-one;5-Phenyl-2,3-dihydro-1<em>H</em>-1,4-benzodiazepin-2-one",
    "duplicated_cas_no": "",
    "SMILES": "O=C1CN=C(C=2C(N1)=CC=CC2)C3=CC=CC=C3",
    "meta_data": {
        "InChI": "InChI=1S/C15H12N2O/c18-14-10-16-15(11-6-2-1-3-7-11)12-8-4-5-9-13(12)17-14/h1-9H,10H2,(H,17,18)",
        "InChIKey": null,
        "Canonical SMILES": "O=C1NC=2C=CC=CC2C(=NC1)C=3C=CC=CC3",
        "Molecular Formula": "C<sub>15</sub>H<sub>12</sub>N<sub>2</sub>O",
        "Molecular Mass": "236.27",
        "Melting Point": "170-180 °C"
    }
}