{
    "cas_no": "614-22-2",
    "key_name": "Benzoylurea",
    "cn_name": "苯甲酰脲;",
    "alternate_name": "Benzamide, <em>N</em>-(aminocarbonyl)-;Urea, benzoyl-;<em>N</em>-(Aminocarbonyl)benzamide;Benzoic acid, ureide;Benzoylurea;1-Benzoylurea;<em>N</em>-Benzoylurea;NSC 402028",
    "duplicated_cas_no": "",
    "SMILES": "C(NC(N)=O)(=O)C1=CC=CC=C1",
    "meta_data": {
        "InChI": "InChI=1S/C8H8N2O2/c9-8(12)10-7(11)6-4-2-1-3-5-6/h1-5H,(H3,9,10,11,12)",
        "InChIKey": null,
        "Canonical SMILES": "O=C(N)NC(=O)C=1C=CC=CC1",
        "Molecular Formula": "C<sub>8</sub>H<sub>8</sub>N<sub>2</sub>O<sub>2</sub>",
        "Molecular Mass": "164.16",
        "Melting Point": "210-212 °C"
    }
}