{
    "cas_no": "611-75-6",
    "key_name": "Bromhexine hydrochloride",
    "cn_name": "盐酸溴己新;N-(2-氨基-3,5-二溴苄基)-N-甲基环己胺盐酸盐;",
    "alternate_name": "Benzenemethanamine, 2-amino-3,5-dibromo-<em>N</em>-cyclohexyl-<em>N</em>-methyl-, hydrochloride (1:1);Toluene-α,2-diamine, 3,5-dibromo-<em>N</em><sup>α</sup>-cyclohexyl-<em>N</em><sup>α</sup>-methyl-, monohydrochloride;Benzenemethanamine, 2-amino-3,5-dibromo-<em>N</em>-cyclohexyl-<em>N</em>-methyl-, monohydrochloride;Bisolvon;Bisolvon hydrochloride;Cyclohexylmethyl(2-amino-3,5-dibromobenzyl)ammonium chloride;<em>N</em>-Cyclohexyl-<em>N</em>-methyl-(2-amino-3,5-dibromobenzyl)ammonium chloride;Bromhexine hydrochloride;<em>N</em><sup>α</sup>-Cyclohexyl-<em>N</em><sup>α</sup>-methyl-3,5-dibromotoluene-α,2-diamine hydrochloride;<em>N</em>-Cyclohexyl-<em>N</em>-methyl-<em>N</em>-(2-amino-3,5-dibromobenzyl)ammonium chloride;2-Amino-3,5-dibromo-<em>N</em>-cyclohexyl-<em>N</em>-methylbenzylamine monohydrochloride;Bromhexine chloride;Bromhexine monohydrochloride;Quentan;Auxit;Ophtosol;2,4-Dibromo-6-[[cyclohexyl(methyl)amino]methyl]aniline hydrochloride;2,4-Dibromo-6-[(cyclohexyl-methyl-amino)-methyl]-phenylamine; hydrochloride",
    "duplicated_cas_no": "2606012-85-3",
    "SMILES": "C(N(C)C1CCCCC1)C2=C(N)C(Br)=CC(Br)=C2.Cl",
    "meta_data": {
        "InChI": "InChI=1S/C14H20Br2N2.ClH/c1-18(12-5-3-2-4-6-12)9-10-7-11(15)8-13(16)14(10)17;/h7-8,12H,2-6,9,17H2,1H3;1H",
        "InChIKey": null,
        "Canonical SMILES": "Cl.BrC=1C=C(Br)C(N)=C(C1)CN(C)C2CCCCC2",
        "Molecular Formula": "C<sub>14</sub>H<sub>20</sub>Br<sub>2</sub>N<sub>2</sub>.ClH",
        "Molecular Mass": "",
        "Melting Point": "237.5-289 °C (decomp)"
    }
}