{
    "cas_no": "354-53-0",
    "key_name": "1-Bromo-2-chloro-1,1,2,2-tetrafluoroethane",
    "cn_name": "1-溴-2-氯四氟乙烷;1-溴-2-氯四氟乙烷;",
    "alternate_name": "Ethane, 1-bromo-2-chloro-1,1,2,2-tetrafluoro-;Ethane, 1-bromo-2-chlorotetrafluoro-;1-Bromo-2-chloro-1,1,2,2-tetrafluoroethane;1-Bromo-2-chlorotetrafluoroethane;R 114B1;F 114B<sub>1</sub>",
    "duplicated_cas_no": "",
    "SMILES": "C(C(Cl)(F)F)(Br)(F)F",
    "meta_data": {
        "InChI": "InChI=1S/C2BrClF4/c3-1(5,6)2(4,7)8",
        "InChIKey": null,
        "Canonical SMILES": "FC(F)(Cl)C(F)(F)Br",
        "Molecular Formula": "C<sub>2</sub>BrClF<sub>4</sub>",
        "Molecular Mass": "215.37",
        "Boiling Point": "82 °C @ Press: 195 Torr"
    }
}