{
    "cas_no": "7310-95-4",
    "key_name": "2,6-Diformyl-4-methylphenol",
    "cn_name": "2,6-二甲酰-4-甲基苯酚;2,6-二甲酰-4-甲基苯酚;2,6-二甲酰基-4-甲基苯酚;HOC6H2(CH3)(CHO)2;",
    "alternate_name": "1,3-Benzenedicarboxaldehyde, 2-hydroxy-5-methyl-;Isophthalaldehyde, 2-hydroxy-5-methyl-;2-Hydroxy-5-methyl-1,3-benzenedicarboxaldehyde;5-Methyl-2-hydroxyisophthalaldehyde;2,6-Diformyl-4-methylphenol;3-Formyl-5-methylsalicylaldehyde;2-Hydroxy-5-methylisophthalaldehyde;2,6-Diformyl-<em>p</em>-cresol;2-Hydroxy-5-methylbenzene-1,3-dicarbaldehyde;4-Methyl-2,6-diformylphenol;2-Hydroxy-5-methylisophthaldehyde;NSC 243727;2-Hydroxy-5-methyl-1,3-benzenedicarboxyaldehyde;2,6-Diformyl-4-cresol",
    "duplicated_cas_no": "1001462-77-6",
    "SMILES": "C(=O)C1=C(O)C(C=O)=CC(C)=C1",
    "meta_data": {
        "InChI": "InChI=1S/C9H8O3/c1-6-2-7(4-10)9(12)8(3-6)5-11/h2-5,12H,1H3",
        "InChIKey": null,
        "Canonical SMILES": "O=CC=1C=C(C=C(C=O)C1O)C",
        "Molecular Formula": "C<sub>9</sub>H<sub>8</sub>O<sub>3</sub>",
        "Molecular Mass": "164.16",
        "Melting Point": "113 °C"
    }
}