{
    "cas_no": "6035-49-0",
    "key_name": "6,7,8-Trimethoxycoumarin",
    "cn_name": null,
    "alternate_name": "2<em>H</em>-1-Benzopyran-2-one, 6,7,8-trimethoxy-;Coumarin, 6,7,8-trimethoxy-;6,7,8-Trimethoxy-2<em>H</em>-1-benzopyran-2-one;Fraxetin dimethyl ether;6,7,8-Trimethoxycoumarin;7,8,9-Trimethoxycoumarin",
    "duplicated_cas_no": "",
    "SMILES": "O(C)C1=C2C(=CC(OC)=C1OC)C=CC(=O)O2",
    "meta_data": {
        "InChI": "InChI=1S/C12H12O5/c1-14-8-6-7-4-5-9(13)17-10(7)12(16-3)11(8)15-2/h4-6H,1-3H3",
        "InChIKey": null,
        "Canonical SMILES": "O=C1OC=2C(OC)=C(OC)C(OC)=CC2C=C1",
        "Molecular Formula": "C<sub>12</sub>H<sub>12</sub>O<sub>5</sub>",
        "Molecular Mass": "236.22",
        "Melting Point": "104-105 °C"
    }
}