{
    "cas_no": "4702-32-3",
    "key_name": "Isocitric acid lactone",
    "cn_name": "DL-异柠檬酸内酯;DL-2-氧四氢呋喃-4,5-二羧酸;",
    "alternate_name": "Pentaric acid, 3-carboxy-2,3-dideoxy-, 1,4-lactone;Isocitric acid, γ-lactone;2,3-Furandicarboxylic acid, tetrahydro-5-oxo-;Isocitric acid lactone;1,2,3-Propanetricarboxylic acid, 1-hydroxy-, γ-lactone;Isocitric lactone;NSC 95086",
    "duplicated_cas_no": "",
    "SMILES": "C(O)(=O)C1C(C(O)=O)OC(=O)C1",
    "meta_data": {
        "InChI": "InChI=1S/C6H6O6/c7-3-1-2(5(8)9)4(12-3)6(10)11/h2,4H,1H2,(H,8,9)(H,10,11)",
        "InChIKey": null,
        "Canonical SMILES": "O=C(O)C1OC(=O)CC1C(=O)O",
        "Molecular Formula": "C<sub>6</sub>H<sub>6</sub>O<sub>6</sub>",
        "Molecular Mass": "174.11",
        "Melting Point": "162-163 °C"
    }
}