{
    "cas_no": "134356-74-4",
    "key_name": "(2<em>S</em>)-2-(4-Fluorophenyl)oxirane",
    "cn_name": null,
    "alternate_name": "Oxirane, 2-(4-fluorophenyl)-, (2<em>S</em>)-;Oxirane, (4-fluorophenyl)-, (<em>S</em>)-;Oxirane, (4-fluorophenyl)-, (2<em>S</em>)-;(2<em>S</em>)-2-(4-Fluorophenyl)oxirane;(<em>S</em>)-4-Fluorostyrene oxide;(<em>S</em>)-(4-Fluorophenyl)oxirane;(2S)-2-(4-Fluorophenyl)oxirane",
    "duplicated_cas_no": "",
    "SMILES": "FC1=CC=C([C@H]2CO2)C=C1",
    "meta_data": {
        "InChI": "InChI=1S/C8H7FO/c9-7-3-1-6(2-4-7)8-5-10-8/h1-4,8H,5H2/t8-/m1/s1",
        "InChIKey": null,
        "Canonical SMILES": "FC1=CC=C(C=C1)C2OC2",
        "Molecular Formula": "C<sub>8</sub>H<sub>7</sub>FO",
        "Molecular Mass": "138.14",
        "Melting Point": "200 °C"
    }
}