{
    "cas_no": "38853-67-7",
    "key_name": "(±)-Sinactine",
    "cn_name": null,
    "alternate_name": "12<em>H</em>-Benzo[<em>a</em>]-1,3-benzodioxolo[4,5-<em>g</em>]quinolizine, 6,6a,11,14-tetrahydro-8,9-dimethoxy-;Sinactine;6,6a,11,14-Tetrahydro-8,9-dimethoxy-12<em>H</em>-benzo[<em>a</em>]-1,3-benzodioxolo[4,5-<em>g</em>]quinolizine;(±)-Sinactine;Epiberberine, tetrahydro-;Sinactin;Tetrahydroepiberberine;2,3-Dimethoxy-9,10-methylenedioxyberbine",
    "duplicated_cas_no": "522-96-3",
    "SMILES": "O(C)C=1C=C2C3N(CC=4C(C3)=CC=C5C4OCO5)CCC2=CC1OC",
    "meta_data": {
        "InChI": "InChI=1S/C20H21NO4/c1-22-18-8-13-5-6-21-10-15-12(3-4-17-20(15)25-11-24-17)7-16(21)14(13)9-19(18)23-2/h3-4,8-9,16H,5-7,10-11H2,1-2H3",
        "InChIKey": null,
        "Canonical SMILES": "O(C=1C=C2C(=CC1OC)C3N(CC4=C5OCOC5=CC=C4C3)CC2)C",
        "Molecular Formula": "C<sub>20</sub>H<sub>21</sub>NO<sub>4</sub>",
        "Molecular Mass": "339.39",
        "Melting Point": "174 °C"
    }
}