{
    "cas_no": "101860-97-3",
    "key_name": "2-Amino-3-pyridineacetic acid",
    "cn_name": null,
    "alternate_name": "3-Pyridineacetic acid, 2-amino-;2-Amino-3-pyridineacetic acid;(2-Aminopyridin-3-yl)-acetic acid;2-(2-Aminopyridin-3-yl)acetic acid;(2-Amino-[3]pyridyl)-acetic acid",
    "duplicated_cas_no": "",
    "SMILES": "C(C(O)=O)C1=C(N)N=CC=C1",
    "meta_data": {
        "InChI": "InChI=1S/C7H8N2O2/c8-7-5(4-6(10)11)2-1-3-9-7/h1-3H,4H2,(H2,8,9)(H,10,11)",
        "InChIKey": null,
        "Canonical SMILES": "O=C(O)CC1=CC=CN=C1N",
        "Molecular Formula": "C<sub>7</sub>H<sub>8</sub>N<sub>2</sub>O<sub>2</sub>",
        "Molecular Mass": "152.15",
        "Melting Point": "219-221.5 °C (decomp)"
    }
}