{
    "cas_no": "56196-53-3",
    "key_name": "Oryctalure",
    "cn_name": null,
    "alternate_name": "Octanoic acid, 4-methyl-, ethyl ester;Ethyl 4-Methyloctanoate;Oryctalure",
    "duplicated_cas_no": "54831-51-5",
    "SMILES": "C(CCC(OCC)=O)(CCCC)C",
    "meta_data": {
        "InChI": "InChI=1S/C11H22O2/c1-4-6-7-10(3)8-9-11(12)13-5-2/h10H,4-9H2,1-3H3",
        "InChIKey": null,
        "Canonical SMILES": "O=C(OCC)CCC(C)CCCC",
        "Molecular Formula": "C<sub>11</sub>H<sub>22</sub>O<sub>2</sub>",
        "Molecular Mass": "186.29",
        "Boiling Point": "140 °C @ Press: 17 Torr"
    }
}