{
    "cas_no": "572-31-6",
    "key_name": "Engeletin",
    "cn_name": null,
    "alternate_name": "4<em>H</em>-1-Benzopyran-4-one, 3-[(6-deoxy-α-<span class=\"text-smallcaps\">L</span>-mannopyranosyl)oxy]-2,3-dihydro-5,7-dihydroxy-2-(4-hydroxyphenyl)-, (2<em>R</em>,3<em>R</em>)-;Engelitin;4<em>H</em>-1-Benzopyran-4-one, 3-[(6-deoxy-α-<span class=\"text-smallcaps\">L</span>-mannopyranosyl)oxy]-2,3-dihydro-5,7-dihydroxy-2-(4-hydroxyphenyl)-, (2<em>R</em>-<em>trans</em>)-;(2<em>R</em>,3<em>R</em>)-3-[(6-Deoxy-α-<span class=\"text-smallcaps\">L</span>-mannopyranosyl)oxy]-2,3-dihydro-5,7-dihydroxy-2-(4-hydroxyphenyl)-4<em>H</em>-1-benzopyran-4-one;Engeletin;Dihydrokaempferol 3-<em>O</em>-α-<span class=\"text-smallcaps\">L</span>-rhamnopyranoside;Dihydrokaempferol 3-rhamnoside;(+)-(2<em>R</em>,3<em>R</em>)-Dihydrokaempferol 3-<em>O</em>-α-<span class=\"text-smallcaps\">L</span>-rhamnoside;(2<em>R</em>,3<em>R</em>)-Engelitin",
    "duplicated_cas_no": "31017-02-4;724434-10-0;170554-58-2",
    "SMILES": "O([C@@H]1[C@H](OC=2C(C1=O)=C(O)C=C(O)C2)C3=CC=C(O)C=C3)[C@H]4[C@H](O)[C@H](O)[C@@H](O)[C@H](C)O4",
    "meta_data": {
        "InChI": "InChI=1S/C21H22O10/c1-8-15(25)17(27)18(28)21(29-8)31-20-16(26)14-12(24)6-11(23)7-13(14)30-19(20)9-2-4-10(22)5-3-9/h2-8,15,17-25,27-28H,1H3/t8-,15-,17+,18+,19+,20-,21-/m0/s1",
        "InChIKey": null,
        "Canonical SMILES": "O=C1C=2C(O)=CC(O)=CC2OC(C3=CC=C(O)C=C3)C1OC4OC(C)C(O)C(O)C4O",
        "Molecular Formula": "C<sub>21</sub>H<sub>22</sub>O<sub>10</sub>",
        "Molecular Mass": "434.39",
        "Melting Point": "176-177 °C"
    }
}