{
    "cas_no": "466-06-8",
    "key_name": "Proscillaridin",
    "cn_name": "3-巯基丙酸乙酯;",
    "alternate_name": "Bufa-4,20,22-trienolide, 3-[(6-deoxy-α-<span class=\"text-smallcaps\">L</span>-mannopyranosyl)oxy]-14-hydroxy-, (3β)-;Proscillaridin A;(3β)-3-[(6-Deoxy-α-<span class=\"text-smallcaps\">L</span>-mannopyranosyl)oxy]-14-hydroxybufa-4,20,22-trienolide;Proscillaridin;Talusin;Transvaalin, degluco-;3β-[(6-Deoxy-α-<span class=\"text-smallcaps\">L</span>-mannopyranosyl)oxy]-14-hydroxybufa-4,20,22-trienolide;14-Hydroxy-3β-(rhamnosyloxy)bufa-4,20,22-trienolide;3β-Rhamnosido-14β-hydroxy-Δ<sup>4,20,22</sup>-bufatrienolide;Desglucotransvaaline;Scillarenin 3β-rhamnoside;Caradrin;Cardion;Carmazon;Herzo Proscillan;Prostosin;Protasin;Purosin-TC;Sandoscill;Scillacrist;Solestril;Simeon;Stellarid;Urgilan;Cardiovite;PSC-801;Coratol;Procilan;Procardin;Tradenal;Proscillan;Wirnesin;Proszine;Talucard;A 32686;Desglucotrnasvaaline;NSC 7521;Proslladin;BRD-A34806832;MeSH ID: D011442",
    "duplicated_cas_no": "12041-88-2;14008-49-2",
    "SMILES": "O[C@@]12[C@]3([C@@]([C@]4(C)C(CC3)=C[C@@H](O[C@H]5[C@H](O)[C@H](O)[C@@H](O)[C@H](C)O5)CC4)(CC[C@]1(C)[C@H](CC2)C=6C=CC(=O)OC6)[H])[H]",
    "meta_data": {
        "InChI": "InChI=1S/C30H42O8/c1-16-24(32)25(33)26(34)27(37-16)38-19-8-11-28(2)18(14-19)5-6-22-21(28)9-12-29(3)20(10-13-30(22,29)35)17-4-7-23(31)36-15-17/h4,7,14-16,19-22,24-27,32-35H,5-6,8-13H2,1-3H3/t16-,19-,20+,21-,22+,24-,25+,26+,27-,28-,29+,30-/m0/s1",
        "InChIKey": null,
        "Canonical SMILES": "O=C1OC=C(C=C1)C2CCC3(O)C4CCC5=CC(OC6OC(C)C(O)C(O)C6O)CCC5(C)C4CCC23C",
        "Molecular Formula": "C<sub>30</sub>H<sub>42</sub>O<sub>8</sub>",
        "Molecular Mass": "530.65",
        "Melting Point": "221 °C"
    }
}