{
    "cas_no": "4282-42-2",
    "key_name": "1-Iodononane",
    "cn_name": "1-碘壬烷;",
    "alternate_name": "Nonane, 1-iodo-;1-Iodononane;Nonyl iodide;1-<em>n</em>-Nonyl iodide;<em>n</em>-Nonyl iodide;1-Nonyl iodide;NSC 5520;1-Iodo-<em>n</em>-nonane",
    "duplicated_cas_no": "",
    "SMILES": "C(CCCCI)CCCC",
    "meta_data": {
        "InChI": "InChI=1S/C9H19I/c1-2-3-4-5-6-7-8-9-10/h2-9H2,1H3",
        "InChIKey": null,
        "Canonical SMILES": "ICCCCCCCCC",
        "Molecular Formula": "C<sub>9</sub>H<sub>19</sub>I",
        "Molecular Mass": "254.15",
        "Boiling Point": "107-108 °C"
    }
}