{
    "cas_no": "17361-44-3",
    "key_name": "Ditetradecylamine",
    "cn_name": null,
    "alternate_name": "1-Tetradecanamine, <em>N</em>-tetradecyl-;Ditetradecylamine;<em>N</em>-Tetradecyl-1-tetradecanamine;Alamine 205;Dimyristylamine;<em>N</em>,<em>N</em>-Ditetradecylamine;NSC 91530;Di-<em>n</em>-tetradecylamine",
    "duplicated_cas_no": "",
    "SMILES": "N(CCCCCCCCCCCCCC)CCCCCCCCCCCCCC",
    "meta_data": {
        "InChI": "InChI=1S/C28H59N/c1-3-5-7-9-11-13-15-17-19-21-23-25-27-29-28-26-24-22-20-18-16-14-12-10-8-6-4-2/h29H,3-28H2,1-2H3",
        "InChIKey": null,
        "Canonical SMILES": "N(CCCCCCCCCCCCCC)CCCCCCCCCCCCCC",
        "Molecular Formula": "C<sub>28</sub>H<sub>59</sub>N",
        "Molecular Mass": "409.77",
        "Melting Point": "56-58 °C"
    }
}