{
    "cas_no": "7783-64-4",
    "key_name": "Zirconium fluoride",
    "cn_name": "氟化锆;四氟化锆;",
    "alternate_name": "Zirconium fluoride (ZrF<sub>4</sub>), (<em>T</em>-4)-;Zirconium fluoride (ZrF<sub>4</sub>);Zirconium tetrafluoride;Zirconium fluoride;Zirconium(IV) fluoride",
    "duplicated_cas_no": "851363-60-5;1242767-40-3;2018280-15-2",
    "SMILES": "[Zr](F)(F)(F)F",
    "meta_data": {
        "InChI": "InChI=1S/4FH.Zr/h4*1H;/q;;;;+4/p-4",
        "InChIKey": null,
        "Canonical SMILES": "F[Zr](F)(F)F",
        "Molecular Formula": "F<sub>4</sub>Zr",
        "Molecular Mass": "",
        "Melting Point": "1205 °C",
        "Density": "4.7 g/cm³"
    }
}