{
    "cas_no": "25134-15-0",
    "key_name": "Trimethylsilylcyclopentadiene",
    "cn_name": null,
    "alternate_name": "1,3-Cyclopentadiene, (trimethylsilyl)-;Silane, cyclopentadienyltrimethyl-;(Trimethylsilyl)-1,3-cyclopentadiene;Cyclopentadienyltrimethylsilane;Trimethylcyclopentadienylsilane;Trimethylsilylcyclopentadiene",
    "duplicated_cas_no": "",
    "SMILES": "",
    "meta_data": {
        "InChI": "",
        "InChIKey": null,
        "Canonical SMILES": "",
        "Molecular Formula": "C<sub>8</sub>H<sub>14</sub>Si",
        "Molecular Mass": "",
        "Boiling Point": "138-140 °C",
        "Density": "0.833 g/cm³"
    }
}