{
    "cas_no": "5283-67-0",
    "key_name": "Trichlorononylsilane",
    "cn_name": "壬基三氯化硅烷;壬基三氯化硅烷;",
    "alternate_name": "Silane, trichlorononyl-;Trichlorononylsilane;Nonyltrichlorosilane",
    "duplicated_cas_no": "",
    "SMILES": "C(CCCCCCCC)[Si](Cl)(Cl)Cl",
    "meta_data": {
        "InChI": "InChI=1S/C9H19Cl3Si/c1-2-3-4-5-6-7-8-9-13(10,11)12/h2-9H2,1H3",
        "InChIKey": null,
        "Canonical SMILES": "Cl[Si](Cl)(Cl)CCCCCCCCC",
        "Molecular Formula": "C<sub>9</sub>H<sub>19</sub>Cl<sub>3</sub>Si",
        "Molecular Mass": "261.69",
        "Boiling Point": "116.2 °C @ Press: 10 Torr",
        "Density": "1.072 g/cm³ @ Temp: 25 °C"
    }
}