{
    "cas_no": "27299-12-3",
    "key_name": "1,4-Sorbitan",
    "cn_name": null,
    "alternate_name": "<span class=\"text-smallcaps\">D</span>-Glucitol, 1,4-anhydro-;Glucitol, 1,4-anhydro-, <span class=\"text-smallcaps\">D</span>-;Arlitan;1,4-Anhydro-<span class=\"text-smallcaps\">D</span>-glucitol;1,4-Sorbitan;1,4-Anhydroglucitol;1,4-Anhydro-<span class=\"text-smallcaps\">D</span>-sorbitol",
    "duplicated_cas_no": "2109-61-7",
    "SMILES": "[C@H](CO)(O)[C@@]1([C@H](O)[C@@H](O)CO1)[H]",
    "meta_data": {
        "InChI": "InChI=1S/C6H12O5/c7-1-3(8)6-5(10)4(9)2-11-6/h3-10H,1-2H2/t3-,4+,5-,6-/m1/s1",
        "InChIKey": null,
        "Canonical SMILES": "OCC(O)C1OCC(O)C1O",
        "Molecular Formula": "C<sub>6</sub>H<sub>12</sub>O<sub>5</sub>",
        "Molecular Mass": "164.16",
        "Melting Point": "115-116 °C"
    }
}