{
    "cas_no": "13965-03-2",
    "key_name": "Dichlorobis(triphenylphosphine)palladium",
    "cn_name": "双三苯基磷二氯化钯;二(三苯基膦)二氯化钯;",
    "alternate_name": "Palladium, dichlorobis(triphenylphosphine)-;Dichlorobis(triphenylphosphine)palladium;Bis(triphenylphosphine)dichloropalladium;Bis(triphenylphosphine)palladium chloride;Bis(triphenylphosphine)palladium(II) dichloride;Dichlorobis(triphenylphosphine)palladium(II);Bis(triphenylphosphine)palladium(II) chloride;Bis(triphenylphosphine)palladium dichloride;Palladiumbis(triphenylphosphine) dichloride;NSC 122924;Bis(triphenylphosphino)palladium chloride;Bis(triphenylphosphino)-palladium(II) dichloride;B 1667",
    "duplicated_cas_no": "130651-75-1",
    "SMILES": "[P]([Pd+2]([P](C1=CC=CC=C1)(C2=CC=CC=C2)C3=CC=CC=C3)([Cl-])[Cl-])(C4=CC=CC=C4)(C5=CC=CC=C5)C6=CC=CC=C6",
    "meta_data": {
        "InChI": "InChI=1S/2C18H15P.2ClH.Pd/c2*1-4-10-16(11-5-1)19(17-12-6-2-7-13-17)18-14-8-3-9-15-18;;;/h2*1-15H;2*1H;/q;;;;+2/p-2",
        "InChIKey": null,
        "Canonical SMILES": "[Cl-][Pd+2]([Cl-])([P](C=1C=CC=CC1)(C=2C=CC=CC2)C=3C=CC=CC3)[P](C=4C=CC=CC4)(C=5C=CC=CC5)C=6C=CC=CC6",
        "Molecular Formula": "C<sub>36</sub>H<sub>30</sub>Cl<sub>2</sub>P<sub>2</sub>Pd",
        "Molecular Mass": "",
        "Melting Point": "297-298 °C"
    }
}