{
    "cas_no": "659-30-3",
    "key_name": "<em>N</em>-(4-Fluorophenyl)urea",
    "cn_name": "4-氟苯脲;",
    "alternate_name": "Urea, <em>N</em>-(4-fluorophenyl)-;Urea, (<em>p</em>-fluorophenyl)-;Urea, (4-fluorophenyl)-;<em>N</em>-(4-Fluorophenyl)urea;4-Fluorophenylurea;1-(4-Fluorophenyl)urea",
    "duplicated_cas_no": "",
    "SMILES": "N(C(N)=O)C1=CC=C(F)C=C1",
    "meta_data": {
        "InChI": "InChI=1S/C7H7FN2O/c8-5-1-3-6(4-2-5)10-7(9)11/h1-4H,(H3,9,10,11)",
        "InChIKey": null,
        "Canonical SMILES": "O=C(N)NC1=CC=C(F)C=C1",
        "Molecular Formula": "C<sub>7</sub>H<sub>7</sub>FN<sub>2</sub>O",
        "Molecular Mass": "154.14",
        "Melting Point": "178-180 °C"
    }
}