{
    "cas_no": "56-38-2",
    "key_name": "Parathion",
    "cn_name": "对硫磷;O,O-二乙基-O-(4-硝基苯基)硫代磷酸酯;",
    "alternate_name": "Phosphorothioic acid, <em>O</em>,<em>O</em>-diethyl <em>O</em>-(4-nitrophenyl) ester;Phosphorothioic acid, <em>O</em>,<em>O</em>-diethyl <em>O</em>-(<em>p</em>-nitrophenyl) ester;E 605;ENT 15108;AAT;AATP;Alkron;American Cyanamid 3422;Aphamite;Bayer E-605;Bladan F;<em>O</em>,<em>O</em>-Diethyl <em>O</em>-(<em>p</em>-nitrophenyl) phosphorothioate;<em>O</em>,<em>O</em>-Diethyl <em>O</em>-(4-nitrophenyl) phosphorothioate;Diethyl 4-nitrophenyl phosphorothioate;Diethyl <em>p</em>-nitrophenyl thionophosphate;<em>O</em>,<em>O</em>-Diethyl <em>O</em>-<em>p</em>-nitrophenyl thiophosphate;DNTP;Ekatox;Ethyl parathion;Etilon;Niran;Nitrostigmine;Oleoparathion;Paraphos;Parathion;RB;Thiophos 3422;Thiophos;Folidol;Lirothion;Nourithion;Paramar 50;Rhodiatox;Oleofos 20;Parathion-ethyl;Diethyl <em>p</em>-nitrophenyl phosphorothionate;Diethyl parathion;Folidol oil;NIUIF 100;E 605F;Folidol E;Folidol E-605;Fosferno;Rhodiasol;Alleron;Oleoparathene;Pacol;Aralo;Gearphos;Vitrex;Super Rodiatox;Fostox;Penncap E;Selephos;Parathene;Thiomex;Ecatox 20;Ekatox 20;E 605FT20;BAY 1605;NSC 8933;Galpar;Parathion A;Phospherno;MeSH ID: D010278",
    "duplicated_cas_no": "110616-89-2;8057-70-3;11111-91-4",
    "SMILES": "P(OC1=CC=C(N(=O)=O)C=C1)(OCC)(OCC)=S",
    "meta_data": {
        "InChI": "InChI=1S/C10H14NO5PS/c1-3-14-17(18,15-4-2)16-10-7-5-9(6-8-10)11(12)13/h5-8H,3-4H2,1-2H3",
        "InChIKey": null,
        "Canonical SMILES": "O=N(=O)C1=CC=C(OP(=S)(OCC)OCC)C=C1",
        "Molecular Formula": "C<sub>10</sub>H<sub>14</sub>NO<sub>5</sub>PS",
        "Molecular Mass": "291.26",
        "Boiling Point": "375 °C @ Press: 760 Torr",
        "Melting Point": "6.1 °C",
        "Density": "1.26 g/cm³ @ Temp: 25 °C"
    }
}