{
    "cas_no": "5678-48-8",
    "key_name": "β-Amino-2-nitrobenzenepropanoic acid",
    "cn_name": "3-氨基-3-(2-硝基苯基)丙酸;",
    "alternate_name": "Benzenepropanoic acid, β-amino-2-nitro-;Hydrocinnamic acid, β-amino-<em>o</em>-nitro-;β-Amino-2-nitrobenzenepropanoic acid;3-Amino-3-(2-nitrophenyl)propionic acid;3-Amino-3-(2-nitrophenyl)propanoic acid",
    "duplicated_cas_no": "",
    "SMILES": "C(CC(O)=O)(N)C1=C(N(=O)=O)C=CC=C1",
    "meta_data": {
        "InChI": "InChI=1S/C9H10N2O4/c10-7(5-9(12)13)6-3-1-2-4-8(6)11(14)15/h1-4,7H,5,10H2,(H,12,13)",
        "InChIKey": null,
        "Canonical SMILES": "O=C(O)CC(N)C=1C=CC=CC1N(=O)=O",
        "Molecular Formula": "C<sub>9</sub>H<sub>10</sub>N<sub>2</sub>O<sub>4</sub>",
        "Molecular Mass": "210.19",
        "Melting Point": "222 °C"
    }
}