{
    "cas_no": "6343-54-0",
    "key_name": "Benzylformamide",
    "cn_name": "N-苄基甲酰胺;",
    "alternate_name": "Formamide, <em>N</em>-(phenylmethyl)-;Formamide, <em>N</em>-benzyl-;<em>N</em>-(Phenylmethyl)formamide;Benzylformamide;<em>N</em>-Benzylformamide;<em>N</em>-Formylbenzylamine;NSC 16247",
    "duplicated_cas_no": "",
    "SMILES": "C(NC=O)C1=CC=CC=C1",
    "meta_data": {
        "InChI": "InChI=1S/C8H9NO/c10-7-9-6-8-4-2-1-3-5-8/h1-5,7H,6H2,(H,9,10)",
        "InChIKey": null,
        "Canonical SMILES": "O=CNCC=1C=CC=CC1",
        "Molecular Formula": "C<sub>8</sub>H<sub>9</sub>NO",
        "Molecular Mass": "135.16",
        "Boiling Point": "142 °C @ Press: 4 Torr",
        "Melting Point": "59.8-60.4 °C"
    }
}