{
    "cas_no": "25913-34-2",
    "key_name": "Tinoridine hydrochloride",
    "cn_name": null,
    "alternate_name": "Thieno[2,3-<em>c</em>]pyridine-3-carboxylic acid, 2-amino-4,5,6,7-tetrahydro-6-(phenylmethyl)-, ethyl ester, hydrochloride (1:1);Thieno[2,3-<em>c</em>]pyridine-3-carboxylic acid, 2-amino-6-benzyl-4,5,6,7-tetrahydro-, ethyl ester, monohydrochloride;Thieno[2,3-<em>c</em>]pyridine-3-carboxylic acid, 2-amino-4,5,6,7-tetrahydro-6-(phenylmethyl)-, ethyl ester, monohydrochloride;Y-3642 HCl;2-Amino-3-ethoxycarbonyl-6-benzyl-4,5,6,7-tetrahydrothieno[2,3-<em>c</em>]pyridine hydrochloride;Tinoridine hydrochloride",
    "duplicated_cas_no": "",
    "SMILES": "C(OCC)(=O)C=1C2=C(CN(CC3=CC=CC=C3)CC2)SC1N.Cl",
    "meta_data": {
        "InChI": "InChI=1S/C17H20N2O2S.ClH/c1-2-21-17(20)15-13-8-9-19(11-14(13)22-16(15)18)10-12-6-4-3-5-7-12;/h3-7H,2,8-11,18H2,1H3;1H",
        "InChIKey": null,
        "Canonical SMILES": "Cl.O=C(OCC)C1=C(SC2=C1CCN(CC=3C=CC=CC3)C2)N",
        "Molecular Formula": "C<sub>17</sub>H<sub>20</sub>N<sub>2</sub>O<sub>2</sub>S.ClH",
        "Molecular Mass": "",
        "Melting Point": "234-235 °C (decomp)"
    }
}