{
    "cas_no": "70-69-9",
    "key_name": "<em>p</em>-Aminopropiophenone",
    "cn_name": "4-胺基丙苯酮;乙基对氨基苯基(甲)酮;对氨基苯丙酮;4-胺基丙苯酮;4-氨基苯丙酮;",
    "alternate_name": "1-Propanone, 1-(4-aminophenyl)-;Propiophenone, 4′-amino-;1-(4-Aminophenyl)-1-propanone;PAPP;<em>p</em>-Aminopropiophenone;4′-Aminopropiophenone;NSC 3187;NSC 404994;4-Propionylaniline;4-Propanoylaniline",
    "duplicated_cas_no": "",
    "SMILES": "C(CC)(=O)C1=CC=C(N)C=C1",
    "meta_data": {
        "InChI": "InChI=1S/C9H11NO/c1-2-9(11)7-3-5-8(10)6-4-7/h3-6H,2,10H2,1H3",
        "InChIKey": null,
        "Canonical SMILES": "O=C(C1=CC=C(N)C=C1)CC",
        "Molecular Formula": "C<sub>9</sub>H<sub>11</sub>NO",
        "Molecular Mass": "149.19",
        "Boiling Point": "482 °C",
        "Melting Point": "140 °C"
    }
}