{
    "cas_no": "432-24-6",
    "key_name": "α-Cyclocitral",
    "cn_name": "alpha-环柠檬醛;2,6,6-三甲基-2-环己烯-1-甲醛;",
    "alternate_name": "2-Cyclohexene-1-carboxaldehyde, 2,6,6-trimethyl-;2,6,6-Trimethyl-2-cyclohexene-1-carboxaldehyde;α-Cyclocitral;Filipendulal;1-Formyl-2,6,6-trimethyl-2-cyclohexene;(±)-α-Cyclocitral;2,6,6-Trimethylcyclohex-2-ene-1-carbaldehyde",
    "duplicated_cas_no": "59462-59-8",
    "SMILES": "C(=O)C1C(C)(C)CCC=C1C",
    "meta_data": {
        "InChI": "InChI=1S/C10H16O/c1-8-5-4-6-10(2,3)9(8)7-11/h5,7,9H,4,6H2,1-3H3",
        "InChIKey": null,
        "Canonical SMILES": "O=CC1C(=CCCC1(C)C)C",
        "Molecular Formula": "C<sub>10</sub>H<sub>16</sub>O",
        "Molecular Mass": "152.23",
        "Boiling Point": "75-77 °C @ Press: 10 Torr",
        "Density": "0.925 g/cm³ @ Temp: 15 °C"
    }
}