{
    "cas_no": "16839-98-8",
    "key_name": "Noratropine",
    "cn_name": null,
    "alternate_name": "Benzeneacetic acid, α-(hydroxymethyl)-, (3-<em>endo</em>)-8-azabicyclo[3.2.1]oct-3-yl ester;1α<span class=\"text-smallcaps\">H</smallcap>,5α<smallcap>H</span>-Nortropan-3α-ol, (±)-tropate (ester);Benzeneacetic acid, α-(hydroxymethyl)-, 8-azabicyclo[3.2.1]oct-3-yl ester, <em>endo</em>-(±)-;Noratropine;Benzeneacetic acid, α-(hydroxymethyl)-, 8-azabicyclo[3.2.1]oct-3-yl ester, <em>endo</em>-;<em>N</em>-Demethylatropine",
    "duplicated_cas_no": "16442-56-1",
    "SMILES": "O(C(C(CO)C1=CC=CC=C1)=O)[C@H]2C[C@@]3(N[C@](C2)(CC3)[H])[H]",
    "meta_data": {
        "InChI": "InChI=1/C16H21NO3/c18-10-15(11-4-2-1-3-5-11)16(19)20-14-8-12-6-7-13(9-14)17-12/h1-5,12-15,17-18H,6-10H2/t12-,13+,14+,15?",
        "InChIKey": null,
        "Canonical SMILES": "O=C(OC1CC2NC(CC2)C1)C(C=3C=CC=CC3)CO",
        "Molecular Formula": "C<sub>16</sub>H<sub>21</sub>NO<sub>3</sub>",
        "Molecular Mass": "275.34",
        "Melting Point": "113-114 °C"
    }
}