{
    "cas_no": "704-14-3",
    "key_name": "5-Methoxy-2-nitrophenol",
    "cn_name": "5-甲氧基-2-硝基酚;5-甲氧基-2-硝基苯酚;",
    "alternate_name": "Phenol, 5-methoxy-2-nitro-;5-Methoxy-2-nitrophenol;3-Methoxy-6-nitrophenol;2-Nitro-5-methoxyphenol;2-Hydroxy-4-methoxynitrobenzene;NSC 1167",
    "duplicated_cas_no": "",
    "SMILES": "N(=O)(=O)C1=C(O)C=C(OC)C=C1",
    "meta_data": {
        "InChI": "InChI=1S/C7H7NO4/c1-12-5-2-3-6(8(10)11)7(9)4-5/h2-4,9H,1H3",
        "InChIKey": null,
        "Canonical SMILES": "O=N(=O)C1=CC=C(OC)C=C1O",
        "Molecular Formula": "C<sub>7</sub>H<sub>7</sub>NO<sub>4</sub>",
        "Molecular Mass": "169.13",
        "Melting Point": "95 °C"
    }
}