{
    "cas_no": "638-08-4",
    "key_name": "Stearic anhydride",
    "cn_name": "硬脂酸酐;十八[酸]酐;",
    "alternate_name": "Octadecanoic acid, 1,1′-anhydride;Stearic anhydride;Octadecanoic acid, anhydride;Stearic acid anhydride;Cyanasize 400;Octadecanoic anhydride;Stearoyl anhydride",
    "duplicated_cas_no": "",
    "SMILES": "O(C(CCCCCCCCCCCCCCCCC)=O)C(CCCCCCCCCCCCCCCCC)=O",
    "meta_data": {
        "InChI": "InChI=1S/C36H70O3/c1-3-5-7-9-11-13-15-17-19-21-23-25-27-29-31-33-35(37)39-36(38)34-32-30-28-26-24-22-20-18-16-14-12-10-8-6-4-2/h3-34H2,1-2H3",
        "InChIKey": null,
        "Canonical SMILES": "O=C(OC(=O)CCCCCCCCCCCCCCCCC)CCCCCCCCCCCCCCCCC",
        "Molecular Formula": "C<sub>36</sub>H<sub>70</sub>O<sub>3</sub>",
        "Molecular Mass": "550.94",
        "Melting Point": "72 °C",
        "Density": "0.855 g/cm³ @ Temp: 80 °C"
    }
}