{
    "cas_no": "458-36-6",
    "key_name": "Coniferaldehyde",
    "cn_name": "4-羟基-3-甲氧基肉桂醛;松柏醛;Coniferyl aldehydel;HOC6H3(OCH3)CH=CHCHO;",
    "alternate_name": "2-Propenal, 3-(4-hydroxy-3-methoxyphenyl)-;Cinnamaldehyde, 4-hydroxy-3-methoxy-;3-(4-Hydroxy-3-methoxyphenyl)-2-propenal;Coniferaldehyde;Ferulaldehyde;<em>p</em>-Coniferaldehyde;4-Hydroxy-3-methoxycinnamaldehyde;Coniferyl aldehyde;3-Methoxy-4-hydroxycinnamaldehyde;3-(4-Hydroxy-3-methoxyphenyl)acrolein;Ferulyl aldehyde;2-Methoxy-4-(3-oxo-1-propenyl)phenol;4-Hydroxy-3-methoxyzimtaldehyde;3-(4-Hydroxy-3-methoxyphenyl)propenal;Ferulic aldehyde",
    "duplicated_cas_no": "",
    "SMILES": "C(=CC=O)C1=CC(OC)=C(O)C=C1",
    "meta_data": {
        "InChI": "InChI=1S/C10H10O3/c1-13-10-7-8(3-2-6-11)4-5-9(10)12/h2-7,12H,1H3",
        "InChIKey": null,
        "Canonical SMILES": "O=CC=CC1=CC=C(O)C(OC)=C1",
        "Molecular Formula": "C<sub>10</sub>H<sub>10</sub>O<sub>3</sub>",
        "Molecular Mass": "178.18",
        "Boiling Point": "169 °C @ Press: 4 Torr",
        "Melting Point": "84 °C",
        "Density": "1.1562 g/cm³ @ Temp: 101.5 °C"
    }
}