{
    "cas_no": "10541-56-7",
    "key_name": "<em>p</em>-Octylacetophenone",
    "cn_name": null,
    "alternate_name": "Ethanone, 1-(4-octylphenyl)-;Acetophenone, 4′-octyl-;1-(4-Octylphenyl)ethanone;<em>p</em>-<em>n</em>-Octylacetophenone;4′-Octylacetophenone;<em>p</em>-Octylacetophenone;NSC 168987",
    "duplicated_cas_no": "",
    "SMILES": "C(CCCCCCC)C1=CC=C(C(C)=O)C=C1",
    "meta_data": {
        "InChI": "InChI=1S/C16H24O/c1-3-4-5-6-7-8-9-15-10-12-16(13-11-15)14(2)17/h10-13H,3-9H2,1-2H3",
        "InChIKey": null,
        "Canonical SMILES": "O=C(C1=CC=C(C=C1)CCCCCCCC)C",
        "Molecular Formula": "C<sub>16</sub>H<sub>24</sub>O",
        "Molecular Mass": "232.36",
        "Boiling Point": "165-168 °C @ Press: 4 Torr",
        "Melting Point": "18 °C"
    }
}