{
    "cas_no": "78751-80-1",
    "key_name": "2-Bromo-7-(1,1-dimethylethyl)pyrene",
    "cn_name": null,
    "alternate_name": "Pyrene, 2-bromo-7-(1,1-dimethylethyl)-;2-Bromo-7-(1,1-dimethylethyl)pyrene;2-Bromo-7-(<em>tert</em>-butyl)pyrene",
    "duplicated_cas_no": "",
    "SMILES": "C(C)(C)(C)C=1C=C2C3=C4C(=CC=C3C1)C=C(Br)C=C4C=C2",
    "meta_data": {
        "InChI": "InChI=1S/C20H17Br/c1-20(2,3)16-8-12-4-6-14-10-17(21)11-15-7-5-13(9-16)18(12)19(14)15/h4-11H,1-3H3",
        "InChIKey": null,
        "Canonical SMILES": "BrC1=CC2=CC=C3C=C(C=C4C=CC(=C1)C2=C34)C(C)(C)C",
        "Molecular Formula": "C<sub>20</sub>H<sub>17</sub>Br",
        "Molecular Mass": "337.25",
        "Melting Point": "141-143 °C"
    }
}