{
    "cas_no": "760-80-5",
    "key_name": "Ethyl 2-fluoro-2-propenoate",
    "cn_name": null,
    "alternate_name": "2-Propenoic acid, 2-fluoro-, ethyl ester;Acrylic acid, 2-fluoro-, ethyl ester;Ethyl 2-fluoro-2-propenoate;Ethyl α-fluoroacrylate;Ethyl 2-fluoroacrylate;2-Fluoroacrylic acid ethyl ester",
    "duplicated_cas_no": "",
    "SMILES": "C(OCC)(C(=C)F)=O",
    "meta_data": {
        "InChI": "InChI=1S/C5H7FO2/c1-3-8-5(7)4(2)6/h2-3H2,1H3",
        "InChIKey": null,
        "Canonical SMILES": "O=C(OCC)C(F)=C",
        "Molecular Formula": "C<sub>5</sub>H<sub>7</sub>FO<sub>2</sub>",
        "Molecular Mass": "118.11",
        "Boiling Point": "80-82 °C",
        "Density": "1.0555 g/cm³ @ Temp: 20 °C"
    }
}