{
    "cas_no": "4423-37-4",
    "key_name": "Syringetin",
    "cn_name": null,
    "alternate_name": "4<em>H</em>-1-Benzopyran-4-one, 3,5,7-trihydroxy-2-(4-hydroxy-3,5-dimethoxyphenyl)-;Flavone, 3,4′,5,7-tetrahydroxy-3′,5′-dimethoxy-;3,5,7-Trihydroxy-2-(4-hydroxy-3,5-dimethoxyphenyl)-4<em>H</em>-1-benzopyran-4-one;Syringetin;Myricetin-3′,5′-dimethyl ether;3′,5′-Dimethoxy-3,5,7,4′-tetrahydroxyflavone",
    "duplicated_cas_no": "",
    "SMILES": "O=C1C=2C(OC(=C1O)C3=CC(OC)=C(O)C(OC)=C3)=CC(O)=CC2O",
    "meta_data": {
        "InChI": "InChI=1S/C17H14O8/c1-23-11-3-7(4-12(24-2)14(11)20)17-16(22)15(21)13-9(19)5-8(18)6-10(13)25-17/h3-6,18-20,22H,1-2H3",
        "InChIKey": null,
        "Canonical SMILES": "O=C1C(O)=C(OC=2C=C(O)C=C(O)C12)C=3C=C(OC)C(O)=C(OC)C3",
        "Molecular Formula": "C<sub>17</sub>H<sub>14</sub>O<sub>8</sub>",
        "Molecular Mass": "346.29",
        "Melting Point": "288-289 °C"
    }
}