{
    "cas_no": "871-83-0",
    "key_name": "2-Methylnonane",
    "cn_name": "2-甲基壬烷;异癸烷;",
    "alternate_name": "Nonane, 2-methyl-;2-Methylnonane;NSC 24849",
    "duplicated_cas_no": "",
    "SMILES": "C(CCCCC)CC(C)C",
    "meta_data": {
        "InChI": "InChI=1S/C10H22/c1-4-5-6-7-8-9-10(2)3/h10H,4-9H2,1-3H3",
        "InChIKey": null,
        "Canonical SMILES": "CCCCCCCC(C)C",
        "Molecular Formula": "C<sub>10</sub>H<sub>22</sub>",
        "Molecular Mass": "142.28",
        "Boiling Point": "167.1 °C",
        "Melting Point": "-74.6 °C",
        "Density": "0.72805 g/cm³ @ Temp: 20 °C"
    }
}