{
    "cas_no": "13244-33-2",
    "key_name": "2-Amino-5-methoxybenzenesulfonic acid",
    "cn_name": "对氨基苯甲醚-3-磺酸;",
    "alternate_name": "Benzenesulfonic acid, 2-amino-5-methoxy-;2-Amino-5-methoxybenzenesulfonic acid;4-Aminoanisole-3-sulfonic acid;4-Methoxy-2-sulfoaniline;4-Amino-3-sulfoanisole;1-Amino-4-methoxybenzene-2-sulfonic acid;4-Methoxyaniline-2-sulfonic acid;4-Methoxy-1-aminobenzene-2-sulfonic acid;4-Anisidine-2-sulfonic acid;6-Amino-3-methoxybenzenesulfonic acid;2-Amino-5-methoxybenzene-1-sulfonic acid",
    "duplicated_cas_no": "",
    "SMILES": "S(=O)(=O)(O)C1=CC(OC)=CC=C1N",
    "meta_data": {
        "InChI": "InChI=1S/C7H9NO4S/c1-12-5-2-3-6(8)7(4-5)13(9,10)11/h2-4H,8H2,1H3,(H,9,10,11)",
        "InChIKey": null,
        "Canonical SMILES": "O=S(=O)(O)C1=CC(OC)=CC=C1N",
        "Molecular Formula": "C<sub>7</sub>H<sub>9</sub>NO<sub>4</sub>S",
        "Molecular Mass": "203.22",
        "Melting Point": "&gt;232 °C (decomp)"
    }
}