{
    "cas_no": "34570-17-7",
    "key_name": "Propanamide, 3-amino-3-imino-, hydrochloride (1:1)",
    "cn_name": "乙酸胺脒盐酸盐;&alpha;-脒基乙酰胺盐酸盐;",
    "alternate_name": "Propanamide, 3-amino-3-imino-, hydrochloride (1:1);Acetamide, 2-amidino-, monohydrochloride;Propanamide, 3-amino-3-imino-, monohydrochloride;2-Amidinoacetamide hydrochloride;Malonamideamidine hydrochloride;3-Amino-3-iminopropanamide hydrochloride;2-Carbamimidoylacetamide hydrochloride",
    "duplicated_cas_no": "",
    "SMILES": "C(C(=N)N)C(N)=O.Cl",
    "meta_data": {
        "InChI": "InChI=1S/C3H7N3O.ClH/c4-2(5)1-3(6)7;/h1H2,(H3,4,5)(H2,6,7);1H",
        "InChIKey": null,
        "Canonical SMILES": "Cl.O=C(N)CC(=N)N",
        "Molecular Formula": "C<sub>3</sub>H<sub>7</sub>N<sub>3</sub>O.ClH",
        "Molecular Mass": "",
        "Melting Point": "176-177 °C"
    }
}