{
    "cas_no": "7205-90-5",
    "key_name": "1-Chloro-4-[(chloromethyl)thio]benzene",
    "cn_name": "对氯苯氯甲基硫醚;",
    "alternate_name": "Benzene, 1-chloro-4-[(chloromethyl)thio]-;Sulfide, chloromethyl <em>p</em>-chlorophenyl;1-Chloro-4-[(chloromethyl)thio]benzene;Chloromethyl <em>p</em>-chlorophenyl sulfide;Chloromethyl 4-chlorophenyl sulfide;(4-Chlorophenyl)thiomethyl chloride;(<em>p</em>-Chlorophenylthio)methyl chloride;<em>p</em>-Chlorophenyl chloromethyl sulfide;1-Chloro-4-[(chloromethyl)sulfanyl]benzene",
    "duplicated_cas_no": "",
    "SMILES": "S(CCl)C1=CC=C(Cl)C=C1",
    "meta_data": {
        "InChI": "InChI=1S/C7H6Cl2S/c8-5-10-7-3-1-6(9)2-4-7/h1-4H,5H2",
        "InChIKey": null,
        "Canonical SMILES": "ClC1=CC=C(SCCl)C=C1",
        "Molecular Formula": "C<sub>7</sub>H<sub>6</sub>Cl<sub>2</sub>S",
        "Molecular Mass": "193.09",
        "Boiling Point": "147.5-148.5 °C @ Press: 22 Torr",
        "Melting Point": "19-21.5 °C"
    }
}