{
    "cas_no": "526-08-9",
    "key_name": "Sulfaphenazole",
    "cn_name": "磺胺苯吡唑;",
    "alternate_name": "Benzenesulfonamide, 4-amino-<em>N</em>-(1-phenyl-1<em>H</em>-pyrazol-5-yl)-;Sulfanilamide, <em>N</em><sup>1</sup>-(1-phenylpyrazol-5-yl)-;4-Amino-<em>N</em>-(1-phenyl-1<em>H</em>-pyrazol-5-yl)benzenesulfonamide;3-(<em>p</em>-Aminobenzenesulfonamido)-2-phenylpyrazole;Depocid;Merian;Orisul;<em>N</em><sup>1</sup>-(1-Phenylpyrazol-5-yl)sulfanilamide;1-Phenyl-5-sulfanilamidopyrazole;Sulfabid;5-Sulfanilamido-1-phenylpyrazole;Sulfaphenazol;Sulfaphenazole;Sulfaphenylpyrazole;Eftolon;2-Phenyl-3-sulfanilamidopyrazole;Depotsulfonamide;Sulfaphenazon;Sulphaphenazole;Inamil;Isarol;Paidazolo;Raziosulfa;Microtan pirazolo;Firmazolo;Plisulfan;Orisulf;Isarol V;MeSH ID: D013426",
    "duplicated_cas_no": "165121-67-5",
    "SMILES": "N(S(=O)(=O)C1=CC=C(N)C=C1)C=2N(N=CC2)C3=CC=CC=C3",
    "meta_data": {
        "InChI": "InChI=1S/C15H14N4O2S/c16-12-6-8-14(9-7-12)22(20,21)18-15-10-11-17-19(15)13-4-2-1-3-5-13/h1-11,18H,16H2",
        "InChIKey": null,
        "Canonical SMILES": "O=S(=O)(NC1=CC=NN1C=2C=CC=CC2)C3=CC=C(N)C=C3",
        "Molecular Formula": "C<sub>15</sub>H<sub>14</sub>N<sub>4</sub>O<sub>2</sub>S",
        "Molecular Mass": "314.36",
        "Melting Point": "181 °C",
        "Density": "1.397 g/cm³"
    }
}