{
    "cas_no": "505-22-6",
    "key_name": "1,3-Dioxane",
    "cn_name": "1,3-二噁烷;",
    "alternate_name": "1,3-Dioxane;<em>m</em>-Dioxane;<em>m</em>-Dioxin, dihydro-;1,3-Propanediol formal;1,3-Dioxacyclohexane;NSC 139436",
    "duplicated_cas_no": "",
    "SMILES": "C1COCOC1",
    "meta_data": {
        "InChI": "InChI=1S/C4H8O2/c1-2-5-4-6-3-1/h1-4H2",
        "InChIKey": null,
        "Canonical SMILES": "O1COCCC1",
        "Molecular Formula": "C<sub>4</sub>H<sub>8</sub>O<sub>2</sub>",
        "Molecular Mass": "88.11",
        "Boiling Point": "105 °C @ Press: 755 Torr",
        "Melting Point": "-42 °C",
        "Density": "1.0342 g/cm³ @ Temp: 20 °C"
    }
}