{
    "cas_no": "7065-46-5",
    "key_name": "3,3-Dimethylbutanoyl chloride",
    "cn_name": "3,3-二甲基丁酰氯;",
    "alternate_name": "Butanoyl chloride, 3,3-dimethyl-;Butyryl chloride, 3,3-dimethyl-;3,3-Dimethylbutanoyl chloride;<em>tert</em>-Butylacetyl chloride;3,3-Dimethylbutyryl chloride;3,3-Dimethylbutyric acid chloride;3,3-Dimethylbutanoic acid chloride;Tert-butylacetyl chloride",
    "duplicated_cas_no": "121525-22-2",
    "SMILES": "C(C(C)(C)C)C(Cl)=O",
    "meta_data": {
        "InChI": "InChI=1S/C6H11ClO/c1-6(2,3)4-5(7)8/h4H2,1-3H3",
        "InChIKey": null,
        "Canonical SMILES": "O=C(Cl)CC(C)(C)C",
        "Molecular Formula": "C<sub>6</sub>H<sub>11</sub>ClO",
        "Molecular Mass": "134.60",
        "Boiling Point": "130 °C",
        "Density": "0.964 g/cm³ @ Temp: 20 °C"
    }
}