{
    "cas_no": "85100-77-2",
    "key_name": "1-Butyl-3-methylimidazolium bromide",
    "cn_name": "1-丁基-3-甲基咪唑溴盐;1-丁基-3-甲基溴化咪唑;",
    "alternate_name": "1<em>H</em>-Imidazolium, 3-butyl-1-methyl-, bromide (1:1);1<em>H</em>-Imidazolium, 1-butyl-3-methyl-, bromide;3-Butyl-1-methylimidazolium bromide;1-Butyl-3-methylimidazolium bromide;1-Butyl-3-methyl-1<em>H</em>-imidazolium bromide;1-Methyl-3-butylimidazolium bromide;<em>N</em>-Butyl-<em>N</em>′-methylimidazolium bromide;1-<em>n</em>-Butyl-3-methylimidazolium bromide;[C4Mim]Br;[C<sub>4</sub>Mim<sup>+</sup>][Br<sup>-</sup>]",
    "duplicated_cas_no": "",
    "SMILES": "C(CCC)[N+]1=CN(C)C=C1.[Br-]",
    "meta_data": {
        "InChI": "InChI=1S/C8H15N2.BrH/c1-3-4-5-10-7-6-9(2)8-10;/h6-8H,3-5H2,1-2H3;1H/q+1;/p-1",
        "InChIKey": null,
        "Canonical SMILES": "[Br-].C1=C[N+](=CN1C)CCCC",
        "Molecular Formula": "C<sub>8</sub>H<sub>15</sub>N<sub>2</sub>.Br",
        "Molecular Mass": "",
        "Melting Point": "69-70 °C",
        "Density": "1.30 g/cm³ @ Temp: 25.1 °C"
    }
}