{
    "cas_no": "1871-57-4",
    "key_name": "3-Chloro-2-(chloromethyl)-1-propene",
    "cn_name": "3-氯-2-氯甲基丙烯;",
    "alternate_name": "1-Propene, 3-chloro-2-(chloromethyl)-;Propene, 3-chloro-2-(chloromethyl)-;3-Chloro-2-(chloromethyl)-1-propene;2-Chloromethyl-3-chloropropene;3-Chloro-2-(chloromethyl)propene;2-Methylene-1,3-dichloropropane;1,3-Dichloro-2-methylenepropane;2-Methylenepropane-1,3-dichloride;1,1-Bis(chloromethyl)ethene;2-Chloromethyl-3-chloro-1-propene;2-(Chloromethyl)allyl chloride;2-Chloromethyl-2-propenyl chloride;NSC 88138;1,1-Bis(chloromethyl)ethylene",
    "duplicated_cas_no": "",
    "SMILES": "C(CCl)(CCl)=C",
    "meta_data": {
        "InChI": "InChI=1S/C4H6Cl2/c1-4(2-5)3-6/h1-3H2",
        "InChIKey": null,
        "Canonical SMILES": "ClCC(=C)CCl",
        "Molecular Formula": "C<sub>4</sub>H<sub>6</sub>Cl<sub>2</sub>",
        "Molecular Mass": "125.00",
        "Boiling Point": "138 °C",
        "Melting Point": "-14 °C",
        "Density": "1.1782 g/cm³ @ Temp: 20 °C"
    }
}