{
    "cas_no": "97004-04-1",
    "key_name": "6-Chloro-3-pyridinemethanamine",
    "cn_name": null,
    "alternate_name": "3-Pyridinemethanamine, 6-chloro-;6-Chloro-3-pyridinemethanamine;5-(Aminomethyl)-2-chloropyridine;2-Chloro-5-(aminomethyl)pyridine;(6-Chloro-3-pyridyl)methylamine;(2-Chloro-5-pyridyl)methylamine;6-Chloro-3-(aminomethyl)pyridine;((6-Chloropyridin-3-yl)methyl)amine;[(2-Chloropyridin-5-yl)methyl]amine;3-Aminomethyl-6-chloropyridine;(6-Chloropyridin-3-yl)methanamine;1-(6-Chloropyridin-3-yl)methanamine",
    "duplicated_cas_no": "",
    "SMILES": "C(N)C=1C=CC(Cl)=NC1",
    "meta_data": {
        "InChI": "InChI=1S/C6H7ClN2/c7-6-2-1-5(3-8)4-9-6/h1-2,4H,3,8H2",
        "InChIKey": null,
        "Canonical SMILES": "ClC1=NC=C(C=C1)CN",
        "Molecular Formula": "C<sub>6</sub>H<sub>7</sub>ClN<sub>2</sub>",
        "Molecular Mass": "142.59",
        "Boiling Point": "112-114 °C @ Press: 2-3 Torr"
    }
}