{
    "cas_no": "2089-89-6",
    "key_name": "2,7-Naphthalenedicarboxylic acid",
    "cn_name": "2,7-萘二羧酸;",
    "alternate_name": "2,7-Naphthalenedicarboxylic acid",
    "duplicated_cas_no": "",
    "SMILES": "C(O)(=O)C1=CC2=C(C=CC(C(O)=O)=C2)C=C1",
    "meta_data": {
        "InChI": "InChI=1S/C12H8O4/c13-11(14)8-3-1-7-2-4-9(12(15)16)6-10(7)5-8/h1-6H,(H,13,14)(H,15,16)",
        "InChIKey": null,
        "Canonical SMILES": "O=C(O)C1=CC=C2C=CC(=CC2=C1)C(=O)O",
        "Molecular Formula": "C<sub>12</sub>H<sub>8</sub>O<sub>4</sub>",
        "Molecular Mass": "216.19",
        "Melting Point": "&gt;190 °C (sublm)"
    }
}