{
    "cas_no": "34052-37-4",
    "key_name": "2-Chloro-5-nitrobenzophenone",
    "cn_name": "2-氯-5-硝基二苯甲酮;",
    "alternate_name": "Methanone, (2-chloro-5-nitrophenyl)phenyl-;Benzophenone, 2-chloro-5-nitro-;(2-Chloro-5-nitrophenyl)phenylmethanone;2-Chloro-5-nitrobenzophenone;5-Nitro-2-chlorobenzophenone;(2-Chloro-5-nitrophenyl)phenyl)methanone",
    "duplicated_cas_no": "",
    "SMILES": "C(=O)(C1=CC(N(=O)=O)=CC=C1Cl)C2=CC=CC=C2",
    "meta_data": {
        "InChI": "InChI=1S/C13H8ClNO3/c14-12-7-6-10(15(17)18)8-11(12)13(16)9-4-2-1-3-5-9/h1-8H",
        "InChIKey": null,
        "Canonical SMILES": "O=C(C=1C=CC=CC1)C2=CC(=CC=C2Cl)N(=O)=O",
        "Molecular Formula": "C<sub>13</sub>H<sub>8</sub>ClNO<sub>3</sub>",
        "Molecular Mass": "261.66",
        "Melting Point": "85-86 °C"
    }
}