{
    "cas_no": "95-51-2",
    "key_name": "2-Chloroaniline",
    "cn_name": "2-氯苯胺;邻氯苯胺;",
    "alternate_name": "Benzenamine, 2-chloro-;Aniline, <em>o</em>-chloro-;2-Chlorobenzenamine;<em>o</em>-Chloroaniline;Fast Yellow GC Base;2-Chloroaniline;1-Amino-2-chlorobenzene;2-Chlorophenylamine;2-Amino-1-chlorobenzene;<em>o</em>-Aminochlorobenzene;NSC 6183",
    "duplicated_cas_no": "",
    "SMILES": "ClC1=C(N)C=CC=C1",
    "meta_data": {
        "InChI": "InChI=1S/C6H6ClN/c7-5-3-1-2-4-6(5)8/h1-4H,8H2",
        "InChIKey": null,
        "Canonical SMILES": "ClC=1C=CC=CC1N",
        "Molecular Formula": "C<sub>6</sub>H<sub>6</sub>ClN",
        "Molecular Mass": "127.57",
        "Boiling Point": "208.84 °C",
        "Melting Point": "-14 °C",
        "Density": "1.2114 g/cm³ @ Temp: 22 °C"
    }
}