{
    "cas_no": "2568-90-3",
    "key_name": "Dibutoxymethane",
    "cn_name": null,
    "alternate_name": "Butane, 1,1′-[methylenebis(oxy)]bis-;Methane, dibutoxy-;1,1′-[Methylenebis(oxy)]bis[butane];Butylal;Dibutyl formal;Formaldehyde dibutyl acetal;Dibutoxymethane;NSC 241;Solvon K 4;1-(Butoxymethoxy)butane",
    "duplicated_cas_no": "",
    "SMILES": "C(OCCCC)OCCCC",
    "meta_data": {
        "InChI": "InChI=1S/C9H20O2/c1-3-5-7-10-9-11-8-6-4-2/h3-9H2,1-2H3",
        "InChIKey": null,
        "Canonical SMILES": "O(COCCCC)CCCC",
        "Molecular Formula": "C<sub>9</sub>H<sub>20</sub>O<sub>2</sub>",
        "Molecular Mass": "160.25",
        "Boiling Point": "179.2 °C",
        "Melting Point": "-58.1 °C",
        "Density": "0.8340 g/cm³ @ Temp: 20 °C"
    }
}