{
    "cas_no": "52589-39-6",
    "key_name": "1,1′-Dimethyl 2,2′-[(4-methyl-1,2-phenylene)bis(oxy)]bis[acetate]",
    "cn_name": null,
    "alternate_name": "Acetic acid, 2,2′-[(4-methyl-1,2-phenylene)bis(oxy)]bis-, 1,1′-dimethyl ester;Acetic acid, 2,2′-[(4-methyl-1,2-phenylene)bis(oxy)]bis-, dimethyl ester;1,1′-Dimethyl 2,2′-[(4-methyl-1,2-phenylene)bis(oxy)]bis[acetate]",
    "duplicated_cas_no": "",
    "SMILES": "O(CC(OC)=O)C1=C(OCC(OC)=O)C=CC(C)=C1",
    "meta_data": {
        "InChI": "InChI=1S/C13H16O6/c1-9-4-5-10(18-7-12(14)16-2)11(6-9)19-8-13(15)17-3/h4-6H,7-8H2,1-3H3",
        "InChIKey": null,
        "Canonical SMILES": "O=C(OC)COC1=CC=C(C=C1OCC(=O)OC)C",
        "Molecular Formula": "C<sub>13</sub>H<sub>16</sub>O<sub>6</sub>",
        "Molecular Mass": "268.26",
        "Boiling Point": "120 °C @ Press: 98 Torr",
        "Melting Point": "39-41 °C"
    }
}