{
    "cas_no": "3634-83-1",
    "key_name": "<em>m</em>-Xylylene diisocyanate",
    "cn_name": "间苯二甲基异氰酸酯;1,3-二(异氰酸基甲基)苯;",
    "alternate_name": "Benzene, 1,3-bis(isocyanatomethyl)-;Isocyanic acid, <em>m</em>-phenylenedimethylene ester;1,3-Bis(isocyanatomethyl)benzene;<em>m</em>-Xylylene diisocyanate;<em>m</em>-Phenylenedimethylene isocyanate;1,3-Di(isocyanatomethyl)benzene;1,3-Xylylene diisocyanate;1,3-Xylene diisocyanate;ω,ω′-Diisocyanato-1,3-dimethylbenzene;m-XDI;(Benzene-1,3-diyl)dimethyl diisocyanate",
    "duplicated_cas_no": "125671-35-4;53208-23-4",
    "SMILES": "C(N=C=O)C1=CC(CN=C=O)=CC=C1",
    "meta_data": {
        "InChI": "InChI=1S/C10H8N2O2/c13-7-11-5-9-2-1-3-10(4-9)6-12-8-14/h1-4H,5-6H2",
        "InChIKey": null,
        "Canonical SMILES": "O=C=NCC1=CC=CC(=C1)CN=C=O",
        "Molecular Formula": "C<sub>10</sub>H<sub>8</sub>N<sub>2</sub>O<sub>2</sub>",
        "Molecular Mass": "188.18",
        "Boiling Point": "159-162 °C @ Press: 12 Torr"
    }
}