{
    "cas_no": "1785-95-1",
    "key_name": "2-Benzoyl-1<em>H</em>-indene-1,3(2<em>H</em>)-dione",
    "cn_name": "2-苯甲酰-1,3-茚满二酮;",
    "alternate_name": "1<em>H</em>-Indene-1,3(2<em>H</em>)-dione, 2-benzoyl-;1,3-Indandione, 2-benzoyl-;2-Benzoyl-1<em>H</em>-indene-1,3(2<em>H</em>)-dione;2-Benzoyl-1,3-indandione;2-Benzoylindandione;NSC 14011;NSC 631512",
    "duplicated_cas_no": "",
    "SMILES": "C(=O)(C1C(=O)C=2C(C1=O)=CC=CC2)C3=CC=CC=C3",
    "meta_data": {
        "InChI": "InChI=1S/C16H10O3/c17-14(10-6-2-1-3-7-10)13-15(18)11-8-4-5-9-12(11)16(13)19/h1-9,13H",
        "InChIKey": null,
        "Canonical SMILES": "O=C(C=1C=CC=CC1)C2C(=O)C=3C=CC=CC3C2=O",
        "Molecular Formula": "C<sub>16</sub>H<sub>10</sub>O<sub>3</sub>",
        "Molecular Mass": "250.25",
        "Melting Point": "108 °C"
    }
}