{
    "cas_no": "562-74-3",
    "key_name": "Terpinen-4-ol",
    "cn_name": "4-萜烯醇;4-甲基-1-(1-甲基乙基)-3-环己烯-1-醇;",
    "alternate_name": "3-Cyclohexen-1-ol, 4-methyl-1-(1-methylethyl)-;<em>p</em>-Menth-1-en-4-ol;4-Methyl-1-(1-methylethyl)-3-cyclohexen-1-ol;4-Carvomenthenol;Terpinen-4-ol;1-Terpinen-4-ol;4-Terpinenol;4-Terpineol;Terpineol-4;4-Methyl-1-isopropyl-3-cyclohexen-1-ol;Terpinene-4-ol;1-(1-Methylethyl)-4-methyl-3-cyclohexen-1-ol;<em>dl</em>-4-Terpineol;(±)-4-Terpineol;(±)-Terpinen-4-ol;Melaleucol;NSC 147749;Terpin-4-ol;1-Isopropyl-4-methylcyclohex-3-en-1-ol;4-Methyl-1-(1-methylethyl)-3-cyclohexene-1-ol;1-Terpen-4-ol",
    "duplicated_cas_no": "1336-05-6;28219-82-1",
    "SMILES": "C(C)(C)C1(O)CCC(C)=CC1",
    "meta_data": {
        "InChI": "InChI=1S/C10H18O/c1-8(2)10(11)6-4-9(3)5-7-10/h4,8,11H,5-7H2,1-3H3",
        "InChIKey": null,
        "Canonical SMILES": "OC1(CC=C(C)CC1)C(C)C",
        "Molecular Formula": "C<sub>10</sub>H<sub>18</sub>O",
        "Molecular Mass": "154.25",
        "Boiling Point": "209 °C",
        "Melting Point": "137-188 °C",
        "Density": "0.9275 g/cm³ @ Temp: 15 °C"
    }
}