{
    "cas_no": "18245-94-8",
    "key_name": "5-(Dichloromethylsilyl)bicyclo[2.2.1]hept-2-ene",
    "cn_name": null,
    "alternate_name": "Bicyclo[2.2.1]hept-2-ene, 5-(dichloromethylsilyl)-;Silane, bicyclo[2.2.1]hept-5-en-2-yldichloromethyl-;Silane, dichloromethyl-5-norbornen-2-yl-;5-(Dichloromethylsilyl)bicyclo[2.2.1]hept-2-ene;Dichloro(methyl)(5-norbornen-2-yl)silane;2-Norbornene-6-methyldichlorosilane",
    "duplicated_cas_no": "",
    "SMILES": "[Si](C)(Cl)(Cl)C1C2CC(C1)C=C2",
    "meta_data": {
        "InChI": "InChI=1S/C8H12Cl2Si/c1-11(9,10)8-5-6-2-3-7(8)4-6/h2-3,6-8H,4-5H2,1H3",
        "InChIKey": null,
        "Canonical SMILES": "Cl[Si](Cl)(C)C1CC2C=CC1C2",
        "Molecular Formula": "C<sub>8</sub>H<sub>12</sub>Cl<sub>2</sub>Si",
        "Molecular Mass": "207.17",
        "Boiling Point": "74-75 °C @ Press: 10 Torr",
        "Density": "1.151 g/cm³"
    }
}