{
    "cas_no": "53688-18-9",
    "key_name": "2-Chloro-1-(3-fluorophenyl)ethanone",
    "cn_name": "2-氯-5\"-氟苯乙酮;",
    "alternate_name": "Ethanone, 2-chloro-1-(3-fluorophenyl)-;2-Chloro-1-(3-fluorophenyl)ethanone;<em>m</em>-Fluorophenacyl chloride;α-Chloro-3′-fluoroacetophenone;2-Chloro-1-(3-fluorophenyl)ethan-1-one",
    "duplicated_cas_no": "",
    "SMILES": "C(CCl)(=O)C1=CC(F)=CC=C1",
    "meta_data": {
        "InChI": "InChI=1S/C8H6ClFO/c9-5-8(11)6-2-1-3-7(10)4-6/h1-4H,5H2",
        "InChIKey": null,
        "Canonical SMILES": "O=C(C=1C=CC=C(F)C1)CCl",
        "Molecular Formula": "C<sub>8</sub>H<sub>6</sub>ClFO",
        "Molecular Mass": "172.58",
        "Melting Point": "149-150 °C"
    }
}