{
    "cas_no": "499-76-3",
    "key_name": "4-Hydroxy-3-methylbenzoic acid",
    "cn_name": null,
    "alternate_name": "Benzoic acid, 4-hydroxy-3-methyl-;4,3-Cresotic acid;4-Hydroxy-3-methylbenzoic acid;3-Methyl-4-hydroxybenzoic acid",
    "duplicated_cas_no": "",
    "SMILES": "C(O)(=O)C1=CC(C)=C(O)C=C1",
    "meta_data": {
        "InChI": "InChI=1S/C8H8O3/c1-5-4-6(8(10)11)2-3-7(5)9/h2-4,9H,1H3,(H,10,11)",
        "InChIKey": null,
        "Canonical SMILES": "O=C(O)C1=CC=C(O)C(=C1)C",
        "Molecular Formula": "C<sub>8</sub>H<sub>8</sub>O<sub>3</sub>",
        "Molecular Mass": "152.15",
        "Boiling Point": "112 °C @ Press: 1 Torr",
        "Melting Point": "172-174 °C"
    }
}