{
    "cas_no": "71556-70-2",
    "key_name": "Hexahydro-1-methyl-3-(3-oxo-1-cyclohexen-1-yl)-2<em>H</em>-azepin-2-one",
    "cn_name": null,
    "alternate_name": "2<em>H</em>-Azepin-2-one, hexahydro-1-methyl-3-(3-oxo-1-cyclohexen-1-yl)-;Hexahydro-1-methyl-3-(3-oxo-1-cyclohexen-1-yl)-2<em>H</em>-azepin-2-one;1-Methyl-3-(3-oxocyclohex-1-en-1-yl)azepan-2-one;1-Methyl-3-(3-oxo-1-cyclohexen-1-yl)-2-azepanone;1-Methyl-3-(3-oxocyclohexen-1-yl)azepan-2-one",
    "duplicated_cas_no": "",
    "SMILES": "O=C1C(C2=CC(=O)CCC2)CCCCN1C",
    "meta_data": {
        "InChI": "InChI=1S/C13H19NO2/c1-14-8-3-2-7-12(13(14)16)10-5-4-6-11(15)9-10/h9,12H,2-8H2,1H3",
        "InChIKey": null,
        "Canonical SMILES": "O=C1C=C(CCC1)C2C(=O)N(C)CCCC2",
        "Molecular Formula": "C<sub>13</sub>H<sub>19</sub>NO<sub>2</sub>",
        "Molecular Mass": "221.30",
        "Melting Point": "109-110 °C"
    }
}