{
    "cas_no": "535-87-5",
    "key_name": "3,5-Diaminobenzoic acid",
    "cn_name": "3,5-二氨基苯甲酸;",
    "alternate_name": "Benzoic acid, 3,5-diamino-;3,5-Diaminobenzoic acid;DABA;D 0294;5-Carboxy-1,3-phenylenediamine;3,5-DABA",
    "duplicated_cas_no": "881640-46-6",
    "SMILES": "C(O)(=O)C1=CC(N)=CC(N)=C1",
    "meta_data": {
        "InChI": "InChI=1S/C7H8N2O2/c8-5-1-4(7(10)11)2-6(9)3-5/h1-3H,8-9H2,(H,10,11)",
        "InChIKey": null,
        "Canonical SMILES": "O=C(O)C=1C=C(N)C=C(N)C1",
        "Molecular Formula": "C<sub>7</sub>H<sub>8</sub>N<sub>2</sub>O<sub>2</sub>",
        "Molecular Mass": "152.15",
        "Melting Point": "228 °C"
    }
}