{
    "cas_no": "103-74-2",
    "key_name": "2-Pyridineethanol",
    "cn_name": "2-羟乙基吡啶;2-乙醇基吡啶;",
    "alternate_name": "2-Pyridineethanol;2-(2-Hydroxyethyl)pyridine;2-Pyridylethanol;2-(2-Pyridyl)ethanol;2-(β-Hydroxyethyl)pyridine;2-(α-Pyridyl)ethanol;β-(2-Pyridyl)ethanol;2-(2-Pyridyl)ethyl alcohol;2-(2-Pyridinyl)ethanol;NSC 2144;NSC 77979;2-(2-Hydroxylethyl)pyridine;2-(Pyridin-2-yl)ethan-1-ol",
    "duplicated_cas_no": "",
    "SMILES": "C(CO)C1=CC=CC=N1",
    "meta_data": {
        "InChI": "InChI=1S/C7H9NO/c9-6-4-7-3-1-2-5-8-7/h1-3,5,9H,4,6H2",
        "InChIKey": null,
        "Canonical SMILES": "OCCC1=NC=CC=C1",
        "Molecular Formula": "C<sub>7</sub>H<sub>9</sub>NO",
        "Molecular Mass": "123.15",
        "Boiling Point": "170 °C @ Press: 100 Torr",
        "Melting Point": "-7.8 °C",
        "Density": "1.091 g/cm³ @ Temp: 25 °C"
    }
}