{
    "cas_no": "24056-34-6",
    "key_name": "4-Hydroxycyclohexanecarbonitrile",
    "cn_name": null,
    "alternate_name": "Cyclohexanecarbonitrile, 4-hydroxy-;4-Hydroxycyclohexanecarbonitrile",
    "duplicated_cas_no": "",
    "SMILES": "C(#N)C1CCC(O)CC1",
    "meta_data": {
        "InChI": "InChI=1S/C7H11NO/c8-5-6-1-3-7(9)4-2-6/h6-7,9H,1-4H2",
        "InChIKey": null,
        "Canonical SMILES": "N#CC1CCC(O)CC1",
        "Molecular Formula": "C<sub>7</sub>H<sub>11</sub>NO",
        "Molecular Mass": "125.17",
        "Boiling Point": "153-154 °C @ Press: 12 Torr"
    }
}