{
    "cas_no": "5625-56-9",
    "key_name": "1,4-Piperazinedipropanesulfonic acid",
    "cn_name": "1,4-哌嗪二丙磺酸;",
    "alternate_name": "1,4-Piperazinedipropanesulfonic acid;PIPPS",
    "duplicated_cas_no": "",
    "SMILES": "C(CCS(=O)(=O)O)N1CCN(CCCS(=O)(=O)O)CC1",
    "meta_data": {
        "InChI": "InChI=1S/C10H22N2O6S2/c13-19(14,15)9-1-3-11-5-7-12(8-6-11)4-2-10-20(16,17)18/h1-10H2,(H,13,14,15)(H,16,17,18)",
        "InChIKey": null,
        "Canonical SMILES": "O=S(=O)(O)CCCN1CCN(CC1)CCCS(=O)(=O)O",
        "Molecular Formula": "C<sub>10</sub>H<sub>22</sub>N<sub>2</sub>O<sub>6</sub>S<sub>2</sub>",
        "Molecular Mass": "330.42",
        "Melting Point": "&gt;400 °C (decomp)"
    }
}