{
    "cas_no": "57234-29-4",
    "key_name": "1,3-Bis(methoxymethoxy)benzene",
    "cn_name": null,
    "alternate_name": "Benzene, 1,3-bis(methoxymethoxy)-;Benzene, <em>m</em>-bis(methoxymethoxy)-;1,3-Bis(methoxymethoxy)benzene;1,3-Bis(<em>O</em>-methoxymethyl)resorcinol;1,3-Di(methoxymethoxy)benzene",
    "duplicated_cas_no": "",
    "SMILES": "O(COC)C1=CC(OCOC)=CC=C1",
    "meta_data": {
        "InChI": "InChI=1S/C10H14O4/c1-11-7-13-9-4-3-5-10(6-9)14-8-12-2/h3-6H,7-8H2,1-2H3",
        "InChIKey": null,
        "Canonical SMILES": "O(C1=CC=CC(OCOC)=C1)COC",
        "Molecular Formula": "C<sub>10</sub>H<sub>14</sub>O<sub>4</sub>",
        "Molecular Mass": "198.22",
        "Boiling Point": "128-129 °C @ Press: 5 Torr",
        "Density": "1.1262 g/cm³ @ Temp: 20 °C"
    }
}