{
    "cas_no": "5519-23-3",
    "key_name": "4-(Decyloxy)benzoic acid",
    "cn_name": "4-癸氧基苯甲酸;对癸氧基苯甲酸;液晶DB;",
    "alternate_name": "Benzoic acid, 4-(decyloxy)-;Benzoic acid, <em>p</em>-(decyloxy)-;4-(Decyloxy)benzoic acid;<em>p</em>-(<em>n</em>-Decyloxy)benzoic acid;<em>p</em>-(Decyloxy)benzoic acid;4-(<em>n</em>-Decyloxy)benzoic acid",
    "duplicated_cas_no": "",
    "SMILES": "O(CCCCCCCCCC)C1=CC=C(C(O)=O)C=C1",
    "meta_data": {
        "InChI": "InChI=1S/C17H26O3/c1-2-3-4-5-6-7-8-9-14-20-16-12-10-15(11-13-16)17(18)19/h10-13H,2-9,14H2,1H3,(H,18,19)",
        "InChIKey": null,
        "Canonical SMILES": "O=C(O)C1=CC=C(OCCCCCCCCCC)C=C1",
        "Molecular Formula": "C<sub>17</sub>H<sub>26</sub>O<sub>3</sub>",
        "Molecular Mass": "278.39",
        "Melting Point": "94-133 °C"
    }
}