{
    "cas_no": "84332-86-5",
    "key_name": "Chlozolinate",
    "cn_name": null,
    "alternate_name": "5-Oxazolidinecarboxylic acid, 3-(3,5-dichlorophenyl)-5-methyl-2,4-dioxo-, ethyl ester;5-Oxazolidinecarboxylic acid, 3-(3,5-dichlorophenyl)-5-methyl-2,4-dioxo-, ethyl ester, (±)-;Serinal;Serinal (pesticide);Dichlozolinate;Chlozolinate;M 8164;SDS 65311",
    "duplicated_cas_no": "72391-46-9",
    "SMILES": "O=C1N(C(=O)OC1(C(OCC)=O)C)C2=CC(Cl)=CC(Cl)=C2",
    "meta_data": {
        "InChI": "InChI=1S/C13H11Cl2NO5/c1-3-20-11(18)13(2)10(17)16(12(19)21-13)9-5-7(14)4-8(15)6-9/h4-6H,3H2,1-2H3",
        "InChIKey": null,
        "Canonical SMILES": "O=C1OC(C(=O)OCC)(C(=O)N1C=2C=C(Cl)C=C(Cl)C2)C",
        "Molecular Formula": "C<sub>13</sub>H<sub>11</sub>Cl<sub>2</sub>NO<sub>5</sub>",
        "Molecular Mass": "332.14",
        "Melting Point": "112.6 °C"
    }
}