{
    "cas_no": "1253-28-7",
    "key_name": "Gestonorone caproate",
    "cn_name": "己酸各司孕甾醇;己酸各司孕甾醇;",
    "alternate_name": "19-Norpregn-4-ene-3,20-dione, 17-[(1-oxohexyl)oxy]-;19-Norpregn-4-ene-3,20-dione, 17-hydroxy-, hexanoate;Hexanoic acid, ester with 17-hydroxy-19-norpregn-4-ene-3,20-dione;17-[(1-Oxohexyl)oxy]-19-norpregn-4-ene-3,20-dione;Gestonorone caproate;17-Hydroxy-19-norpregn-4-ene-3,20-dione hexanoate;19-Norpregn-4-ene-3,20-dione 17-caproate;Gestonorone capronate;Depostat;Gestronol hexanoate;17α-Hydroxy-19-norprogesterone capronate;17α-Hydroxy-19-norprogesterone caproate;SH 80582;SH 582;17β-Acetyl-17-hydroxyestr-4-ene-3-one hexanoate;Gestronol caproate;19-Nor-17α-caproyloxy-4-pregnene-3,20-dione;Primostat;ZK 5623;NSC 84054;Gestonorone hexanoate",
    "duplicated_cas_no": "",
    "SMILES": "O(C(CCCCC)=O)[C@@]1(C(C)=O)[C@]2(C)[C@@](CC1)([C@]3([C@](CC2)([C@@]4(C(CC3)=CC(=O)CC4)[H])[H])[H])[H]",
    "meta_data": {
        "InChI": "InChI=1S/C26H38O4/c1-4-5-6-7-24(29)30-26(17(2)27)15-13-23-22-10-8-18-16-19(28)9-11-20(18)21(22)12-14-25(23,26)3/h16,20-23H,4-15H2,1-3H3/t20-,21+,22+,23-,25-,26-/m0/s1",
        "InChIKey": null,
        "Canonical SMILES": "O=C(OC1(C(=O)C)CCC2C3CCC4=CC(=O)CCC4C3CCC21C)CCCCC",
        "Molecular Formula": "C<sub>26</sub>H<sub>38</sub>O<sub>4</sub>",
        "Molecular Mass": "414.58",
        "Melting Point": "123.5 °C"
    }
}