{
    "cas_no": "30273-42-8",
    "key_name": "4-Bromo-2-chloro-6-methylbenzenamine",
    "cn_name": "4-溴-2-氯-6-甲基苯胺;",
    "alternate_name": "Benzenamine, 4-bromo-2-chloro-6-methyl-;<em>o</em>-Toluidine, 4-bromo-6-chloro-;4-Bromo-2-chloro-6-methylbenzenamine;4-Bromo-2-chloro-6-methylphenylamine;4-Bromo-2-chloro-6-methylaniline;2-Amino-5-bromo-3-chlorotoluene;2-Methyl-4-bromo-6-chloroaniline",
    "duplicated_cas_no": "",
    "SMILES": "NC1=C(C)C=C(Br)C=C1Cl",
    "meta_data": {
        "InChI": "InChI=1S/C7H7BrClN/c1-4-2-5(8)3-6(9)7(4)10/h2-3H,10H2,1H3",
        "InChIKey": null,
        "Canonical SMILES": "ClC=1C=C(Br)C=C(C1N)C",
        "Molecular Formula": "C<sub>7</sub>H<sub>7</sub>BrClN",
        "Molecular Mass": "220.49",
        "Melting Point": "60 °C"
    }
}