{
    "cas_no": "7631-99-4",
    "key_name": "Sodium nitrate",
    "cn_name": "硝酸钠;",
    "alternate_name": "Nitric acid sodium salt (1:1);Nitric acid sodium salt;Sodium nitrate (1:1);Soda niter;Sodium nitrate;Saltpeter (Chile);Chile saltpeter;Nitric acid, sodium salt;E 251;Chile niter;Niter (Chile);Na<sub>2</sub>NO<sub>3</sub>",
    "duplicated_cas_no": "862599-22-2;1401517-04-1;1903778-62-0;2305917-08-0",
    "SMILES": "N(=O)(=O)O.[Na]",
    "meta_data": {
        "InChI": "InChI=1S/HNO3.Na/c2-1(3)4;/h(H,2,3,4);",
        "InChIKey": null,
        "Canonical SMILES": "[Na].O=N(=O)O",
        "Molecular Formula": "HNO<sub>3</sub>.Na",
        "Molecular Mass": "",
        "Melting Point": "308 °C",
        "Density": "2.26 g/cm³"
    }
}