{
    "cas_no": "121-17-5",
    "key_name": "1-Chloro-2-nitro-4-(trifluoromethyl)benzene",
    "cn_name": "4-氯-3-硝基三氟甲苯;",
    "alternate_name": "Benzene, 1-chloro-2-nitro-4-(trifluoromethyl)-;Toluene, 4-chloro-α,α,α-trifluoro-3-nitro-;1-Chloro-2-nitro-4-(trifluoromethyl)benzene;4-Chloro-α,α,α-trifluoro-3-nitrotoluene;3-Nitro-4-chloro-1-(trifluoromethyl)benzene;4-Chloro-3-nitrobenzotrifluoride;2-Nitro-4-(trifluoromethyl)-1-chlorobenzene;4-Chloro-3-nitro-1-(trifluoromethyl)benzene;2-Nitro-4-(trifluoromethyl)chlorobenzene;2-Chloro-5-(trifluoromethyl)nitrobenzene;(3-Nitro-4-chlorophenyl)trifluoromethane;2-Chloro-5-(trifluoromethyl)-1-nitrobenzene;3-Nitro-4-chlorobenzotrifluoride;6-Chloro-3-(trifluoromethyl)nitrobenzene;1-Chloro-4-trifluoromethyl-2-nitrobenzene;4-Trifluoromethyl-2-nitrochlorobenzene;NSC 8760",
    "duplicated_cas_no": "",
    "SMILES": "N(=O)(=O)C1=CC(C(F)(F)F)=CC=C1Cl",
    "meta_data": {
        "InChI": "InChI=1S/C7H3ClF3NO2/c8-5-2-1-4(7(9,10)11)3-6(5)12(13)14/h1-3H",
        "InChIKey": null,
        "Canonical SMILES": "O=N(=O)C1=CC(=CC=C1Cl)C(F)(F)F",
        "Molecular Formula": "C<sub>7</sub>H<sub>3</sub>ClF<sub>3</sub>NO<sub>2</sub>",
        "Molecular Mass": "225.55",
        "Boiling Point": "222 °C",
        "Melting Point": "-2.5 °C",
        "Density": "1.5421 g/cm³ @ Temp: 21 °C"
    }
}