{
    "cas_no": "5570-18-3",
    "key_name": "<em>B</em>-(2-Aminophenyl)boronic acid",
    "cn_name": null,
    "alternate_name": "Boronic acid, <em>B</em>-(2-aminophenyl)-;Benzeneboronic acid, <em>o</em>-amino-;Boronic acid, (2-aminophenyl)-;<em>B</em>-(2-Aminophenyl)boronic acid;2-Aminobenzeneboronic acid;2-Aminophenylboronic acid;<em>o</em>-Aminophenylboronic acid",
    "duplicated_cas_no": "",
    "SMILES": "B(O)(O)C1=C(N)C=CC=C1",
    "meta_data": {
        "InChI": "InChI=1S/C6H8BNO2/c8-6-4-2-1-3-5(6)7(9)10/h1-4,9-10H,8H2",
        "InChIKey": null,
        "Canonical SMILES": "OB(O)C=1C=CC=CC1N",
        "Molecular Formula": "C<sub>6</sub>H<sub>8</sub>BNO<sub>2</sub>",
        "Molecular Mass": "136.94",
        "Melting Point": "175-176 °C"
    }
}