{
    "cas_no": "23165-46-0",
    "key_name": "1,2,4-Trichloro-5-isothiocyanatobenzene",
    "cn_name": "2,4,5-三氯苯硫代异氰酸酯;",
    "alternate_name": "Benzene, 1,2,4-trichloro-5-isothiocyanato-;Isothiocyanic acid, 2,4,5-trichlorophenyl ester;1,2,4-Trichloro-5-isothiocyanatobenzene;2,4,5-Trichlorophenyl isothiocyanate",
    "duplicated_cas_no": "",
    "SMILES": "N(=C=S)C1=C(Cl)C=C(Cl)C(Cl)=C1",
    "meta_data": {
        "InChI": "InChI=1S/C7H2Cl3NS/c8-4-1-6(10)7(11-3-12)2-5(4)9/h1-2H",
        "InChIKey": null,
        "Canonical SMILES": "S=C=NC1=CC(Cl)=C(Cl)C=C1Cl",
        "Molecular Formula": "C<sub>7</sub>H<sub>2</sub>Cl<sub>3</sub>NS",
        "Molecular Mass": "238.52",
        "Boiling Point": "280 °C",
        "Melting Point": "47-49 °C"
    }
}