{
    "cas_no": "117-99-7",
    "key_name": "2-Hydroxybenzophenone",
    "cn_name": "2-羟基二苯甲酮;",
    "alternate_name": "Methanone, (2-hydroxyphenyl)phenyl-;Benzophenone, 2-hydroxy-;(2-Hydroxyphenyl)phenylmethanone;2-Hydroxybenzophenone;<em>o</em>-Hydroxybenzophenone;<em>o</em>-Benzoylphenol;Phenyl 2-hydroxyphenyl ketone;2′-Hydroxybenzophenone;<em>o</em>-Hydroxyphenyl phenyl ketone;2-Benzoylphenol;NSC 623;UVA 635LP",
    "duplicated_cas_no": "",
    "SMILES": "C(=O)(C1=C(O)C=CC=C1)C2=CC=CC=C2",
    "meta_data": {
        "InChI": "InChI=1S/C13H10O2/c14-12-9-5-4-8-11(12)13(15)10-6-2-1-3-7-10/h1-9,14H",
        "InChIKey": null,
        "Canonical SMILES": "O=C(C=1C=CC=CC1)C=2C=CC=CC2O",
        "Molecular Formula": "C<sub>13</sub>H<sub>10</sub>O<sub>2</sub>",
        "Molecular Mass": "198.22",
        "Boiling Point": "250 °C",
        "Melting Point": "40 °C"
    }
}