{
    "cas_no": "529-69-1",
    "key_name": "Isoxanthopterin",
    "cn_name": "异黄蝶呤;",
    "alternate_name": "4,7(3<em>H</em>,8<em>H</em>)-Pteridinedione, 2-amino-;Isoxanthopterin;4,7(1<em>H</em>,8<em>H</em>)-Pteridinedione, 2-amino-;2-Amino-4,7(3<em>H</em>,8<em>H</em>)-pteridinedione;Ranachrome 4;2-Amino-4,7-dihydroxypteridine;NSC 118090;NSC 614991;2-Aminopteridine-4,7(1<em>H</em>,8<em>H</em>)-dione;2-Amino-1,8-dihydropteridine-4,7-dione",
    "duplicated_cas_no": "24311-26-0;26173-79-5;49560-74-9",
    "SMILES": "O=C1C2=C(NC(N)=N1)NC(=O)C=N2",
    "meta_data": {
        "InChI": "InChI=1S/C6H5N5O2/c7-6-10-4-3(5(13)11-6)8-1-2(12)9-4/h1H,(H4,7,9,10,11,12,13)",
        "InChIKey": null,
        "Canonical SMILES": "O=C1N=C(N)NC=2NC(=O)C=NC12",
        "Molecular Formula": "C<sub>6</sub>H<sub>5</sub>N<sub>5</sub>O<sub>2</sub>",
        "Molecular Mass": "179.14",
        "Melting Point": "&gt;300 °C"
    }
}