{
    "cas_no": "129-51-1",
    "key_name": "Ergonovine maleate",
    "cn_name": "马来酸麦角新碱;",
    "alternate_name": "Ergoline-8-carboxamide, 9,10-didehydro-<em>N</em>-((<em>S</em>)-2-hydroxy-1-methylethyl)-6-methyl-, (8β)-, (2<em>Z</em>)-2-butenedioate (1:1);Ergoline-8β-carboxamide, 9,10-didehydro-<em>N</em>-((<em>S</em>)-2-hydroxy-1-methylethyl)-6-methyl-, maleate (1:1) (salt);Ergonovine maleate;Ergoline-8-carboxamide, 9,10-didehydro-<em>N</em>-(2-hydroxy-1-methylethyl)-6-methyl-, [8β(<em>S</em>)]-, (<em>Z</em>)-2-butenedioate (1:1) (salt);Ergoline-8-carboxamide, 9,10-didehydro-<em>N</em>-[(1<em>S</em>)-2-hydroxy-1-methylethyl]-6-methyl-, (8β)-, (2<em>Z</em>)-2-butenedioate (1:1) (salt);Indolo[4,3-<em>fg</em>]quinoline, ergoline-8-carboxamide deriv.;Cornocentin;Ergometrine acid maleate;Ergometrine maleate;Ergotrate;<span class=\"text-smallcaps\">D</span>-Ergonovine maleate;Ergometrin maleate;Ermetrin;Ergomet;Ergometrine hydrogen maleate;Ergonovine hydrogen maleate;Ergobasine maleate;Ermetrine;NSC 93752",
    "duplicated_cas_no": "912-07-2;6815-20-9;78207-84-8",
    "SMILES": "C(=C\\C(O)=O)\\C(O)=O.CN1[C@]2(C(C=3C=4C(C2)=CNC4C=CC3)=C[C@@H](C(N[C@H](CO)C)=O)C1)[H]",
    "meta_data": {
        "InChI": "",
        "InChIKey": null,
        "Canonical SMILES": "O=C(O)C=CC(=O)O.O=C(NC(C)CO)C1C=C2C=3C=CC=C4NC=C(C43)CC2N(C)C1",
        "Molecular Formula": "C<sub>19</sub>H<sub>23</sub>N<sub>3</sub>O<sub>2</sub>.C<sub>4</sub>H<sub>4</sub>O<sub>4</sub>",
        "Molecular Mass": "",
        "Melting Point": "167 °C (decomp)"
    }
}