{
    "cas_no": "41122-71-8",
    "key_name": "4′-Heptyl-4-cyanobiphenyl",
    "cn_name": "4-庚基-4\"-氰基联苯;4\"-庚基-(1,1\"-联苯)-4-腈;",
    "alternate_name": "[1,1′-Biphenyl]-4-carbonitrile, 4′-heptyl-;4′-Heptyl[1,1′-biphenyl]-4-carbonitrile;4-Cyano-4′-heptylbiphenyl;4′-Heptyl-4-cyanobiphenyl;4′-Heptyl-4-biphenylcarbonitrile;4-Heptyl-4′-cyanobiphenyl;<em>p</em>-Cyano-<em>p</em>′-heptylbiphenyl;<em>p</em>-Heptyl-<em>p</em>′-cyanobiphenyl;<em>p</em>-<em>n</em>-Heptyl-<em>p</em>′-cyanobiphenyl;4′-<em>n</em>-Heptyl-4-cyanobiphenyl;<em>p</em>,<em>p</em>′-<em>n</em>-Heptylcyanobiphenyl;CB 7 (liquid crystal);CB 7;4-Cyano-4′-<em>n</em>-heptylbiphenyl;7CB;K 21 (liquid crystal);K 21;4-Cyano-4′-heptyl-1,1′-biphenyl;4-<em>n</em>-Heptyl-4′-cyanobiphenyl;4-Cyano-4′-<em>n</em>-heptyl-1,1′-biphenyl;H 0812",
    "duplicated_cas_no": "",
    "SMILES": "C(CCCCCC)C1=CC=C(C=C1)C2=CC=C(C#N)C=C2",
    "meta_data": {
        "InChI": "InChI=1S/C20H23N/c1-2-3-4-5-6-7-17-8-12-19(13-9-17)20-14-10-18(16-21)11-15-20/h8-15H,2-7H2,1H3",
        "InChIKey": null,
        "Canonical SMILES": "N#CC=1C=CC(=CC1)C2=CC=C(C=C2)CCCCCCC",
        "Molecular Formula": "C<sub>20</sub>H<sub>23</sub>N",
        "Molecular Mass": "277.40",
        "Boiling Point": "196-199 °C @ Press: 2 Torr",
        "Melting Point": "30 °C"
    }
}