{
    "cas_no": "497-23-4",
    "key_name": "2(5<em>H</em>)-Furanone",
    "cn_name": "2(5H)-呋喃酮;",
    "alternate_name": "2(5<em>H</em>)-Furanone;Crotonic acid, 4-hydroxy-, γ-lactone;γ-Hydroxycrotonic acid lactone;Isocrotonolactone;4-Hydroxy-2-butenoic acid γ-lactone;γ-Crotonolactone;2-Butenoic acid, 4-hydroxy-, γ-lactone;Δ<sup>α,β</sup>-Butenolide;4-Hydroxy-2-butenoic acid lactone;2-Buten-4-olide;2-Oxo-2,5-dihydrofuran;α,β-Crotonolactone;γ-Crotolactone;5<em>H</em>-Furan-2-one;Cratone;2,5-Dihydrofuranone;5-Oxo-2,5-dihydrofuran-3-yl ester;NSC 197009;NSC 51296;2<em>H</em>-Furan-5-one",
    "duplicated_cas_no": "",
    "SMILES": "O=C1C=CCO1",
    "meta_data": {
        "InChI": "InChI=1S/C4H4O2/c5-4-2-1-3-6-4/h1-2H,3H2",
        "InChIKey": null,
        "Canonical SMILES": "O=C1OCC=C1",
        "Molecular Formula": "C<sub>4</sub>H<sub>4</sub>O<sub>2</sub>",
        "Molecular Mass": "84.07",
        "Boiling Point": "86.5 °C",
        "Melting Point": "4.5 °C",
        "Density": "1.193 g/cm³ @ Temp: 20 °C"
    }
}