{
    "cas_no": "16949-15-8",
    "key_name": "Lithium borohydride",
    "cn_name": "四氢硼酸锂;",
    "alternate_name": "Borate(1-), tetrahydro-, lithium (1:1);Borate(1-), tetrahydro-, lithium;Lithium boron hydride;Lithium borohydride (LiBH<sub>4</sub>);Lithium hydroborate (LiBH<sub>4</sub>);Lithium borohydride;Lithium tetrahydroborate;Lithium tetrahydroborate(1-);Lithium tetrahydroborate (LiBH<sub>4</sub>)",
    "duplicated_cas_no": "1303-73-7;1374667-27-2",
    "SMILES": "[B+3]([H-])([H-])([H-])[H-].[Li+]",
    "meta_data": {
        "InChI": "InChI=1S/BH4.Li/h1H4;/q-1;+1",
        "InChIKey": null,
        "Canonical SMILES": "[Li+].[H-][B+3]([H-])([H-])[H-]",
        "Molecular Formula": "BH<sub>4</sub>.Li",
        "Molecular Mass": "",
        "Melting Point": "278-279 °C",
        "Density": "0.66 g/cm³"
    }
}