{
    "cas_no": "5220-49-5",
    "key_name": "3-Amino-2-cyclohexen-1-one",
    "cn_name": "3-氨基-2-环己烯-1-酮;3-氨基-2-环己烯-1-酮水合物;",
    "alternate_name": "2-Cyclohexen-1-one, 3-amino-;3-Amino-2-cyclohexen-1-one;3-Amino-2-cyclohexene-1-one;NSC 106700;3-Aminocyclohex-2-en-1-one;1-Amino-3-oxo-1-cyclohexene",
    "duplicated_cas_no": "1609062-64-7",
    "SMILES": "NC1=CC(=O)CCC1",
    "meta_data": {
        "InChI": "InChI=1S/C6H9NO/c7-5-2-1-3-6(8)4-5/h4H,1-3,7H2",
        "InChIKey": null,
        "Canonical SMILES": "O=C1C=C(N)CCC1",
        "Molecular Formula": "C<sub>6</sub>H<sub>9</sub>NO",
        "Molecular Mass": "111.14",
        "Melting Point": "126-131 °C"
    }
}