{
    "cas_no": "1875-88-3",
    "key_name": "4-Chlorobenzeneethanol",
    "cn_name": "4-氯苯乙醇;对氯苯乙醇;",
    "alternate_name": "Benzeneethanol, 4-chloro-;Phenethyl alcohol, <em>p</em>-chloro-;4-Chlorobenzeneethanol;<em>p</em>-Chlorophenylethyl alcohol;<em>p</em>-Chlorophenethyl alcohol;2-(<em>p</em>-Chlorophenyl)ethanol;2-(4-Chlorophenyl)ethanol;4-Chlorophenethyl alcohol;2-(4-Chlorophenyl)-1-ethanol;NSC 404206;4-Chlorophenethanol",
    "duplicated_cas_no": "",
    "SMILES": "C(CO)C1=CC=C(Cl)C=C1",
    "meta_data": {
        "InChI": "InChI=1S/C8H9ClO/c9-8-3-1-7(2-4-8)5-6-10/h1-4,10H,5-6H2",
        "InChIKey": null,
        "Canonical SMILES": "ClC1=CC=C(C=C1)CCO",
        "Molecular Formula": "C<sub>8</sub>H<sub>9</sub>ClO",
        "Molecular Mass": "156.61",
        "Boiling Point": "259 °C"
    }
}