{
    "cas_no": "17849-38-6",
    "key_name": "2-Chlorobenzyl alcohol",
    "cn_name": "邻氯苄醇;邻氯苯甲醇;",
    "alternate_name": "Benzenemethanol, 2-chloro-;Benzyl alcohol, <em>o</em>-chloro-;2-Chlorobenzenemethanol;<em>o</em>-Chlorobenzyl alcohol;2-Chlorobenzyl alcohol;(2-Chlorophenyl)methanol;<em>o</em>-Chlorobenzenemethanol",
    "duplicated_cas_no": "185532-97-2",
    "SMILES": "C(O)C1=C(Cl)C=CC=C1",
    "meta_data": {
        "InChI": "InChI=1S/C7H7ClO/c8-7-4-2-1-3-6(7)5-9/h1-4,9H,5H2",
        "InChIKey": null,
        "Canonical SMILES": "ClC=1C=CC=CC1CO",
        "Molecular Formula": "C<sub>7</sub>H<sub>7</sub>ClO",
        "Molecular Mass": "142.58",
        "Boiling Point": "230 °C",
        "Melting Point": "73 °C"
    }
}