{
    "cas_no": "490-54-0",
    "key_name": "Maritimein",
    "cn_name": null,
    "alternate_name": "3(2<em>H</em>)-Benzofuranone, 2-[(3,4-dihydroxyphenyl)methylene]-6-(β-<span class=\"text-smallcaps\">D</span>-glucopyranosyloxy)-7-hydroxy-, (2<em>Z</em>)-;Maritimein;3(2<em>H</em>)-Benzofuranone, 2-[(3,4-dihydroxyphenyl)methylene]-6-(β-<span class=\"text-smallcaps\">D</span>-glucopyranosyloxy)-7-hydroxy-, (<em>Z</em>)-;3(2<em>H</em>)-Benzofuranone, 2-(3,4-dihydroxybenzylidene)-6-(β-<span class=\"text-smallcaps\">D</span>-glucopyranosyloxy)-7-hydroxy-;(2<em>Z</em>)-2-[(3,4-Dihydroxyphenyl)methylene]-6-(β-<span class=\"text-smallcaps\">D</span>-glucopyranosyloxy)-7-hydroxy-3(2<em>H</em>)-benzofuranone;(Z)-6-<em>O</em>-β-<span class=\"text-smallcaps\">D</span>-Glucopyranosyl-7,3′,4′-trihydroxyaurone",
    "duplicated_cas_no": "",
    "SMILES": "OC1=C2C(C(=O)\\C(=C\\C3=CC(O)=C(O)C=C3)\\O2)=CC=C1O[C@@H]4O[C@H](CO)[C@@H](O)[C@H](O)[C@H]4O",
    "meta_data": {
        "InChI": "InChI=1S/C21H20O11/c22-7-14-16(26)18(28)19(29)21(32-14)31-12-4-2-9-15(25)13(30-20(9)17(12)27)6-8-1-3-10(23)11(24)5-8/h1-6,14,16,18-19,21-24,26-29H,7H2/b13-6-/t14-,16-,18+,19-,21-/m1/s1",
        "InChIKey": null,
        "Canonical SMILES": "O=C1C(OC2=C(O)C(OC3OC(CO)C(O)C(O)C3O)=CC=C12)=CC4=CC=C(O)C(O)=C4",
        "Molecular Formula": "C<sub>21</sub>H<sub>20</sub>O<sub>11</sub>",
        "Molecular Mass": "448.38",
        "Melting Point": "208-214 °C"
    }
}