{
    "cas_no": "24980-41-4",
    "key_name": "Polycaprolactone",
    "cn_name": null,
    "alternate_name": "2-Oxepanone, homopolymer;2-Oxepanone, polyesters;Poly(ε-caprolactone);ε-Caprolactone polyester;Caprolactone polymer;ε-Caprolactone polymer;ε-Caprolactone polymers;Caprolactone oligomer;Caprolactone homopolymer;ε-Caprolactone homopolymer;Poly(ε-caprolactone), monomer-based;Polycaprolactone;6-Hexanolide homopolymer;Poly-carprolactone;Poly(ε-caprolactone) diol;PURAC PC-12 Corbion PCL;Purasorb PC 17",
    "duplicated_cas_no": "146322-77-2;868068-85-3;1227479-63-1;1351686-25-3;1642785-87-2;1841076-40-1;2425576-29-8",
    "SMILES": "O=C1CCCCCO1",
    "meta_data": {
        "InChI": "InChI=1S/C6H10O2/c7-6-4-2-1-3-5-8-6/h1-5H2",
        "InChIKey": null,
        "Canonical SMILES": "O=C1OCCCCC1",
        "Molecular Formula": "(C<sub>6</sub>H<sub>10</sub>O<sub>2</sub>)<sub>x</sub>",
        "Molecular Mass": "",
        "Melting Point": "50-100 °C",
        "Density": "1.2 g/cm³"
    }
}