{
    "cas_no": "69559-11-1",
    "key_name": "2-[(4-Aminopentyl)ethylamino]ethanol",
    "cn_name": "5-(N-乙基-N-2-羟乙基胺)-2-戊胺;羟基氯喹侧链;",
    "alternate_name": "Ethanol, 2-[(4-aminopentyl)ethylamino]-;2-[(4-Aminopentyl)ethylamino]ethanol;(±)-2-[(4-Aminopentyl)ethylamino]ethanol;5-[<em>N</em>-Ethyl-<em>N</em>-(2-hydroxyethyl)amino]-2-aminopentane;<em>N</em>-Ethyl-<em>N</em>-(2-hydroxyethyl)-4-aminopentylamine;2-[(4-Aminopentyl)(ethyl)amino]ethan-1-ol",
    "duplicated_cas_no": "155322-11-5",
    "SMILES": "N(CCCC(C)N)(CCO)CC",
    "meta_data": {
        "InChI": "InChI=1S/C9H22N2O/c1-3-11(7-8-12)6-4-5-9(2)10/h9,12H,3-8,10H2,1-2H3",
        "InChIKey": null,
        "Canonical SMILES": "OCCN(CC)CCCC(N)C",
        "Molecular Formula": "C<sub>9</sub>H<sub>22</sub>N<sub>2</sub>O",
        "Molecular Mass": "174.28",
        "Boiling Point": "93 °C @ Press: 0.6 Torr"
    }
}