{
    "cas_no": "83249-10-9",
    "key_name": "1-Methyl bicyclo[1.1.1]pentane-1,3-dicarboxylate",
    "cn_name": null,
    "alternate_name": "Bicyclo[1.1.1]pentane-1,3-dicarboxylic acid, 1-methyl ester;Bicyclo[1.1.1]pentane-1,3-dicarboxylic acid, monomethyl ester;1-Methyl bicyclo[1.1.1]pentane-1,3-dicarboxylate;3-(Methoxycarbonyl)bicyclo[1.1.1]pentane-1-carboxylic acid;Bicyclo[1.1.1]pentan-1,3-dicarboxylic acid-1-methyl ester;3-(Methoxycarbonyl)bicyclo[1.1.1]pentan-1-carboxylicacid",
    "duplicated_cas_no": "",
    "SMILES": "C(OC)(=O)C12CC(C(O)=O)(C1)C2",
    "meta_data": {
        "InChI": "InChI=1S/C8H10O4/c1-12-6(11)8-2-7(3-8,4-8)5(9)10/h2-4H2,1H3,(H,9,10)",
        "InChIKey": null,
        "Canonical SMILES": "O=C(O)C12CC(C(=O)OC)(C1)C2",
        "Molecular Formula": "C<sub>8</sub>H<sub>10</sub>O<sub>4</sub>",
        "Molecular Mass": "170.16",
        "Melting Point": "138-139 °C"
    }
}