{
    "cas_no": "222978-02-1",
    "key_name": "2-Fluoro-4-(hydroxymethyl)benzonitrile",
    "cn_name": null,
    "alternate_name": "Benzonitrile, 2-fluoro-4-(hydroxymethyl)-;2-Fluoro-4-(hydroxymethyl)benzonitrile;2-Fluoro-4-hydroxymethylbenzonitrile",
    "duplicated_cas_no": "",
    "SMILES": "C(O)C1=CC(F)=C(C#N)C=C1",
    "meta_data": {
        "InChI": "InChI=1S/C8H6FNO/c9-8-3-6(5-11)1-2-7(8)4-10/h1-3,11H,5H2",
        "InChIKey": null,
        "Canonical SMILES": "N#CC1=CC=C(C=C1F)CO",
        "Molecular Formula": "C<sub>8</sub>H<sub>6</sub>FNO",
        "Molecular Mass": "151.14",
        "Melting Point": "63-67 °C"
    }
}