{
    "cas_no": "7365-45-9",
    "key_name": "4-(2-Hydroxyethyl)-1-piperazineethanesulfonic acid",
    "cn_name": "4-羟乙基哌嗪乙磺酸;N-(2-羟乙基)哌嗪-N\"-2-乙烷磺酸;",
    "alternate_name": "1-Piperazineethanesulfonic acid, 4-(2-hydroxyethyl)-;4-(2-Hydroxyethyl)-1-piperazineethanesulfonic acid;HEPES;<em>N</em>-2-Hydroxyethylpiperazino-<em>N</em>′-2-ethanesulfonic acid;<em>N</em>-(2-Hydroxyethyl)piperazine-<em>N</em>′-2-ethanesulfonic acid;<em>N</em>-(2-Hydroxyethyl)piperazine-<em>N</em>′-2′-ethanesulfonic acid;1-[4-(2-Hydroxyethyl)-1-piperazinyl]ethane-2-sulfonic acid;2-[4-(2-Hydroxyethyl)piperazin-1-yl]ethanesulfonic acid;<em>N</em>-(2-Hydroxyethyl)piperazine-<em>N</em>′-ethanesulfonic acid;2-[4-(2-Hydroxyethyl)piperazinyl]ethanesulfonic acid;<em>N</em>′-2-Hydroxyethylpiperazine-<em>N</em>-2-ethanesulfonic acid;WAS 13;TVZ 7;NSC 166663;N′-(2-Hydroxyethyl)piperazine-N-(2-ethanesulfonic acid);4-(2-Hydroxyethyl)piperazine-1-(2-ethanesulfonic acid);2-[4-(2-Hydroxyethyl)piperazin-1-yl]ethane-1-sulfonic acid",
    "duplicated_cas_no": "",
    "SMILES": "C(CS(=O)(=O)O)N1CCN(CCO)CC1",
    "meta_data": {
        "InChI": "InChI=1S/C8H18N2O4S/c11-7-5-9-1-3-10(4-2-9)6-8-15(12,13)14/h11H,1-8H2,(H,12,13,14)",
        "InChIKey": null,
        "Canonical SMILES": "O=S(=O)(O)CCN1CCN(CCO)CC1",
        "Molecular Formula": "C<sub>8</sub>H<sub>18</sub>N<sub>2</sub>O<sub>4</sub>S",
        "Molecular Mass": "238.30",
        "Melting Point": "234 °C"
    }
}