{
    "cas_no": "611-99-4",
    "key_name": "4,4′-Dihydroxybenzophenone",
    "cn_name": "4,4\"-二羟基二苯甲酮;",
    "alternate_name": "Methanone, bis(4-hydroxyphenyl)-;Benzophenone, 4,4′-dihydroxy-;Bis(4-hydroxyphenyl)methanone;<em>p</em>,<em>p</em>′-Dihydroxybenzophenone;Bis(4-hydroxyphenyl) ketone;Bis(<em>p</em>-hydroxy)benzophenone;HBP (ketone);4,4′-Dihydroxydiphenyl ketone;HBP;4,4′-Dihydroxybenzophenone;NSC 2831;4,4′-Hydroxybenzophenone;4-DHB",
    "duplicated_cas_no": "",
    "SMILES": "C(=O)(C1=CC=C(O)C=C1)C2=CC=C(O)C=C2",
    "meta_data": {
        "InChI": "InChI=1S/C13H10O3/c14-11-5-1-9(2-6-11)13(16)10-3-7-12(15)8-4-10/h1-8,14-15H",
        "InChIKey": null,
        "Canonical SMILES": "O=C(C1=CC=C(O)C=C1)C2=CC=C(O)C=C2",
        "Molecular Formula": "C<sub>13</sub>H<sub>10</sub>O<sub>3</sub>",
        "Molecular Mass": "214.22",
        "Boiling Point": "444 °C",
        "Melting Point": "210 °C"
    }
}