{
    "cas_no": "507-36-8",
    "key_name": "2-Bromo-2-methylbutane",
    "cn_name": "2-溴-2-甲基丁烷;",
    "alternate_name": "Butane, 2-bromo-2-methyl-;2-Bromo-2-methylbutane;<em>tert</em>-Amyl bromide;<em>tert</em>-Pentyl bromide;2-Methyl-2-bromobutane;1,1-Dimethylpropyl bromide;NSC 7897",
    "duplicated_cas_no": "",
    "SMILES": "C(CC)(Br)(C)C",
    "meta_data": {
        "InChI": "InChI=1S/C5H11Br/c1-4-5(2,3)6/h4H2,1-3H3",
        "InChIKey": null,
        "Canonical SMILES": "BrC(C)(C)CC",
        "Molecular Formula": "C<sub>5</sub>H<sub>11</sub>Br",
        "Molecular Mass": "151.04",
        "Boiling Point": "108 °C",
        "Density": "0.683 g/cm³ @ Temp: 17 °C"
    }
}