{
    "cas_no": "20927-53-1",
    "key_name": "6-Chloro-1-methyl-4-phenyl-2(1<em>H</em>)-quinazolinone",
    "cn_name": null,
    "alternate_name": "2(1<em>H</em>)-Quinazolinone, 6-chloro-1-methyl-4-phenyl-;6-Chloro-1-methyl-4-phenyl-2(1<em>H</em>)-quinazolinone;6-Chloro-4-phenyl-1-methyl-2(1<em>H</em>)-quinazolinone;1-Methyl-4-phenyl-6-chloro-2(1<em>H</em>)-quinazolinone;6-Chloro-1-methyl-4-phenyl-2(1<em>H</em>)-quinazolone;1-Methyl-4-phenyl-6-chloro-2-quinazolinone",
    "duplicated_cas_no": "",
    "SMILES": "CN1C=2C(C(=NC1=O)C3=CC=CC=C3)=CC(Cl)=CC2",
    "meta_data": {
        "InChI": "InChI=1S/C15H11ClN2O/c1-18-13-8-7-11(16)9-12(13)14(17-15(18)19)10-5-3-2-4-6-10/h2-9H,1H3",
        "InChIKey": null,
        "Canonical SMILES": "O=C1N=C(C=2C=CC=CC2)C=3C=C(Cl)C=CC3N1C",
        "Molecular Formula": "C<sub>15</sub>H<sub>11</sub>ClN<sub>2</sub>O",
        "Molecular Mass": "270.71",
        "Melting Point": "226-227 °C"
    }
}