{
    "cas_no": "19343-78-3",
    "key_name": "4-Methyl-1,2,3,4-tetrahydroquinoline",
    "cn_name": null,
    "alternate_name": "Quinoline, 1,2,3,4-tetrahydro-4-methyl-;Lepidine, 1,2,3,4-tetrahydro-;1,2,3,4-Tetrahydro-4-methylquinoline;4-Methyl-1,2,3,4-tetrahydroquinoline;1,2,3,4-Tetrahydrolepidine",
    "duplicated_cas_no": "74459-14-6",
    "SMILES": "CC1C=2C(NCC1)=CC=CC2",
    "meta_data": {
        "InChI": "InChI=1S/C10H13N/c1-8-6-7-11-10-5-3-2-4-9(8)10/h2-5,8,11H,6-7H2,1H3",
        "InChIKey": null,
        "Canonical SMILES": "C=1C=CC2=C(C1)NCCC2C",
        "Molecular Formula": "C<sub>10</sub>H<sub>13</sub>N",
        "Molecular Mass": "147.22",
        "Boiling Point": "143-144 °C",
        "Density": "1.0231 g/cm³ @ Temp: 20 °C"
    }
}