{
    "cas_no": "144701-48-4",
    "key_name": "Telmisartan",
    "cn_name": "替米沙坦;4-{[2-正丙基-4-甲基-6-(1-甲基苯并咪唑-2-基)苯并咪唑-1-基]甲基}联苯基-2-羧酸;",
    "alternate_name": "[1,1′-Biphenyl]-2-carboxylic acid, 4′-[(1,4′-dimethyl-2′-propyl[2,6′-bi-1<em>H</em>-benzimidazol]-1′-yl)methyl]-;4′-[(1,4′-Dimethyl-2′-propyl[2,6′-bi-1<em>H</em>-benzimidazol]-1′-yl)methyl][1,1′-biphenyl]-2-carboxylic acid;BIBR 277;Telmisartan;4′-[[4-Methyl-6-(1-methyl-2-benzimidazolyl)-2-propyl-1-benzimidazolyl]methyl]-2-biphenylcarboxylic acid;BIBR 277SE;Micardis;Pritor;Telday;Kinzalmono;Telsar;Telsite;Telmisartar;2-[4-[[4-Methyl-6-(1-methylbenzimidazol-2-yl)-2-propylbenzimidazol-1-yl]methyl]phenyl]benzoic acid;2-(4-[[4-Methyl-6-(1-methyl-1<em>H</em>-1,3-benzodiazol-2-yl)-2-propyl-1<em>H</em>-1,3-benzodiazol-1-yl]methyl]phenyl)benzoic acid;Tolura;Semintra",
    "duplicated_cas_no": "",
    "SMILES": "C(N1C=2C(N=C1CCC)=C(C)C=C(C2)C=3N(C)C=4C(N3)=CC=CC4)C5=CC=C(C=C5)C6=C(C(O)=O)C=CC=C6",
    "meta_data": {
        "InChI": "InChI=1S/C33H30N4O2/c1-4-9-30-35-31-21(2)18-24(32-34-27-12-7-8-13-28(27)36(32)3)19-29(31)37(30)20-22-14-16-23(17-15-22)25-10-5-6-11-26(25)33(38)39/h5-8,10-19H,4,9,20H2,1-3H3,(H,38,39)",
        "InChIKey": null,
        "Canonical SMILES": "O=C(O)C=1C=CC=CC1C=2C=CC(=CC2)CN3C4=CC(=CC(=C4N=C3CCC)C)C5=NC=6C=CC=CC6N5C",
        "Molecular Formula": "C<sub>33</sub>H<sub>30</sub>N<sub>4</sub>O<sub>2</sub>",
        "Molecular Mass": "514.62",
        "Melting Point": "260-262 °C"
    }
}