{
    "cas_no": "13605-19-1",
    "key_name": "2-(3-Methylphenoxy)ethanol",
    "cn_name": "2-(3-甲基苯氧基)乙醇;3-(2-羟基乙氧基)甲苯;2-(间甲苯氧基)乙醇;",
    "alternate_name": "Ethanol, 2-(3-methylphenoxy)-;Ethanol, 2-(<em>m</em>-tolyloxy)-;2-(3-Methylphenoxy)ethanol;<em>m</em>-Cresoxyethanol;2-(<em>m</em>-Tolyloxy)ethanol;2-(3-Tolyloxy)ethanol;Ethylene glycol <em>m</em>-cresyl ether;NSC 523916;2-(3-Methylphenoxy)ethan-1-ol;2-Hydroxyethyl <em>m</em>-tolyl ether",
    "duplicated_cas_no": "",
    "SMILES": "O(CCO)C1=CC(C)=CC=C1",
    "meta_data": {
        "InChI": "InChI=1S/C9H12O2/c1-8-3-2-4-9(7-8)11-6-5-10/h2-4,7,10H,5-6H2,1H3",
        "InChIKey": null,
        "Canonical SMILES": "OCCOC1=CC=CC(=C1)C",
        "Molecular Formula": "C<sub>9</sub>H<sub>12</sub>O<sub>2</sub>",
        "Molecular Mass": "152.19",
        "Boiling Point": "145-147 °C @ Press: 19 Torr",
        "Density": "1.1097 g/cm³ @ Temp: 20 °C"
    }
}