{
    "cas_no": "1058-61-3",
    "key_name": "Stigmast-4-en-3-one",
    "cn_name": null,
    "alternate_name": "Stigmast-4-en-3-one;β-Sitost-4-en-3-one;Sitostenone;(24<em>R</em>)-24-Ethylcholest-4-en-3-one;Δ<sup>4</sup>-Sitosterol-3-one;β-Sitostenone;β-Rosasterol oxide;NSC 49082;4-En-3-stigmastone;(24<em>R</em>)-Stigmast-4-en-3-one",
    "duplicated_cas_no": "",
    "SMILES": "C[C@@]12[C@]([C@]3([C@@]([C@]4(C)C(CC3)=CC(=O)CC4)(CC1)[H])[H])(CC[C@@]2([C@@H](CC[C@H](C(C)C)CC)C)[H])[H]",
    "meta_data": {
        "InChI": "InChI=1S/C29H48O/c1-7-21(19(2)3)9-8-20(4)25-12-13-26-24-11-10-22-18-23(30)14-16-28(22,5)27(24)15-17-29(25,26)6/h18-21,24-27H,7-17H2,1-6H3/t20-,21-,24+,25-,26+,27+,28+,29-/m1/s1",
        "InChIKey": null,
        "Canonical SMILES": "O=C1C=C2CCC3C(CCC4(C)C(CCC34)C(C)CCC(CC)C(C)C)C2(C)CC1",
        "Molecular Formula": "C<sub>29</sub>H<sub>48</sub>O",
        "Molecular Mass": "412.69",
        "Melting Point": "82 °C"
    }
}