{
    "cas_no": "101376-26-5",
    "key_name": "(3<em>R</em>)-4-(Phenylmethyl)-3-morpholinemethanol",
    "cn_name": null,
    "alternate_name": "3-Morpholinemethanol, 4-(phenylmethyl)-, (3<em>R</em>)-;3-Morpholinemethanol, 4-(phenylmethyl)-, (<em>R</em>)-;(3<em>R</em>)-4-(Phenylmethyl)-3-morpholinemethanol;(<em>R</em>)-(4-Benzylmorpholin-3-yl)methanol;(R)-(4-Benzylmorpholin-3-yl)methanol;[(3R)-4-Benzylmorpholin-3-yl]methanol",
    "duplicated_cas_no": "",
    "SMILES": "C(N1[C@H](CO)COCC1)C2=CC=CC=C2",
    "meta_data": {
        "InChI": "InChI=1S/C12H17NO2/c14-9-12-10-15-7-6-13(12)8-11-4-2-1-3-5-11/h1-5,12,14H,6-10H2/t12-/m1/s1",
        "InChIKey": null,
        "Canonical SMILES": "OCC1N(CC=2C=CC=CC2)CCOC1",
        "Molecular Formula": "C<sub>12</sub>H<sub>17</sub>NO<sub>2</sub>",
        "Molecular Mass": "207.27",
        "Melting Point": "229-230 °C"
    }
}