{
    "cas_no": "3470-99-3",
    "key_name": "<em>N</em>-Propyl-2-pyrrolidone",
    "cn_name": "1-丙基-2-吡咯烷酮;N-正丙基吡咯烷酮;",
    "alternate_name": "2-Pyrrolidinone, 1-propyl-;1-Propyl-2-pyrrolidinone;<em>N</em>-Propylpyrrolidone;<em>N</em>-Propyl-2-pyrrolidinone;<em>N</em>-Propyl-2-pyrrolidone;1-Propylazacyclopentan-2-one;1-Propyl-2-pyrrolidone;<em>N</em>-Propylbutyrolactam",
    "duplicated_cas_no": "",
    "SMILES": "C(CC)N1C(=O)CCC1",
    "meta_data": {
        "InChI": "InChI=1S/C7H13NO/c1-2-5-8-6-3-4-7(8)9/h2-6H2,1H3",
        "InChIKey": null,
        "Canonical SMILES": "O=C1N(CCC)CCC1",
        "Molecular Formula": "C<sub>7</sub>H<sub>13</sub>NO",
        "Molecular Mass": "127.18",
        "Boiling Point": "117-120 °C @ Press: 23 Torr",
        "Melting Point": "53-54 °C"
    }
}