{
    "cas_no": "868-85-9",
    "key_name": "Phosphonic acid, dimethyl ester",
    "cn_name": "亚磷酸二甲酯;",
    "alternate_name": "Phosphonic acid, dimethyl ester;Methyl phosphonate ((MeO)<sub>2</sub>HPO);Dimethyl hydrogen phosphite;Dimethyl phosphonate;Dimethoxyphosphine oxide;Hydrogen dimethyl phosphite;Dimethyl acid phosphite;Dimethyl hydrogen phosphonate",
    "duplicated_cas_no": "",
    "SMILES": "P(OC)(OC)=O",
    "meta_data": {
        "InChI": "InChI=1S/C2H7O3P/c1-4-6(3)5-2/h6H,1-2H3",
        "InChIKey": null,
        "Canonical SMILES": "O=P(OC)OC",
        "Molecular Formula": "C<sub>2</sub>H<sub>7</sub>O<sub>3</sub>P",
        "Molecular Mass": "110.05",
        "Boiling Point": "72-73 °C @ Press: 25 Torr",
        "Melting Point": "144-146 °C",
        "Density": "1.200 g/cm³ @ Temp: 20 °C"
    }
}