{
    "cas_no": "532-32-1",
    "key_name": "Sodium benzoate",
    "cn_name": "苯甲酸钠;安息香酸钠;",
    "alternate_name": "Benzoic acid, sodium salt (1:1);Sodium benzoate;Benzoic acid, sodium salt;Antimol;Benzoate of soda;Sobenate;E 211;Fuminaru;Purox S;E 221;E 221 (nucleating agent);Probenz;FZ 001;NB 3010C;NAR 6;Kalagard SB;SF Inhibitor 6843;MeSH ID: D020160",
    "duplicated_cas_no": "1011270-78-2;1219807-20-1;1351865-09-2",
    "SMILES": "C(O)(=O)C1=CC=CC=C1.[Na]",
    "meta_data": {
        "InChI": "InChI=1S/C7H6O2.Na/c8-7(9)6-4-2-1-3-5-6;/h1-5H,(H,8,9);",
        "InChIKey": null,
        "Canonical SMILES": "[Na].O=C(O)C=1C=CC=CC1",
        "Molecular Formula": "C<sub>7</sub>H<sub>6</sub>O<sub>2</sub>.Na",
        "Molecular Mass": "",
        "Melting Point": "&gt;300 °C",
        "Density": "0.998241 g/cm³ @ Temp: 40.000 °C"
    }
}