{
    "cas_no": "324763-51-1",
    "key_name": "3-Amino-2,2-dimethylpropanamide",
    "cn_name": "3-氨基-2,2-二甲基丙酰胺;",
    "alternate_name": "Propanamide, 3-amino-2,2-dimethyl-;3-Amino-2,2-dimethylpropanamide;3-Amino-2,2-dimethylpropionamide",
    "duplicated_cas_no": "",
    "SMILES": "C(C(N)=O)(CN)(C)C",
    "meta_data": {
        "InChI": "InChI=1S/C5H12N2O/c1-5(2,3-6)4(7)8/h3,6H2,1-2H3,(H2,7,8)",
        "InChIKey": null,
        "Canonical SMILES": "O=C(N)C(C)(C)CN",
        "Molecular Formula": "C<sub>5</sub>H<sub>12</sub>N<sub>2</sub>O",
        "Molecular Mass": "116.16",
        "Boiling Point": "145 °C @ Press: 15 Torr",
        "Melting Point": "74-75 °C"
    }
}