{
    "cas_no": "6610-29-3",
    "key_name": "Methylthiosemicarbazide",
    "cn_name": "4-甲基氨基硫脲;4-甲基-3-氨基硫脲;",
    "alternate_name": "Hydrazinecarbothioamide, <em>N</em>-methyl-;Semicarbazide, 4-methyl-3-thio-;<em>N</em>-Methylhydrazinecarbothioamide;B 1130;4-Methylthiosemicarbazide;Methylthiosemicarbazide;4-Methyl-3-thiosemicarbazide;<em>N</em>-Methylthiosemicarbazide;NSC 56911;4-<em>N</em>-Methylthiosemicarbazide;4-Methylthiosemicarbazone;1-Amino-3-methylthiourea;3-Amino-1-methylthiourea",
    "duplicated_cas_no": "",
    "SMILES": "C(NC)(NN)=S",
    "meta_data": {
        "InChI": "InChI=1S/C2H7N3S/c1-4-2(6)5-3/h3H2,1H3,(H2,4,5,6)",
        "InChIKey": null,
        "Canonical SMILES": "S=C(NN)NC",
        "Molecular Formula": "C<sub>2</sub>H<sub>7</sub>N<sub>3</sub>S",
        "Molecular Mass": "105.16",
        "Melting Point": "137-138 °C"
    }
}