{
    "cas_no": "179687-79-7",
    "key_name": "2-[(2-Chloro-4-nitrophenoxy)methyl]pyridine",
    "cn_name": "2-[(2-氯-4-硝基苯氧基)甲基]吡啶;",
    "alternate_name": "Pyridine, 2-[(2-chloro-4-nitrophenoxy)methyl]-;2-[(2-Chloro-4-nitrophenoxy)methyl]pyridine;3-Chloro-4-(2-pyridinylmethoxy)-1-nitrobenzene;3-Chloro-4-(2-pyridylmethyloxy)nitrobenzene;3-Chloro-4-[(2-pyridyl)methoxy]nitrobenzene",
    "duplicated_cas_no": "",
    "SMILES": "O(CC1=CC=CC=N1)C2=C(Cl)C=C(N(=O)=O)C=C2",
    "meta_data": {
        "InChI": "InChI=1S/C12H9ClN2O3/c13-11-7-10(15(16)17)4-5-12(11)18-8-9-3-1-2-6-14-9/h1-7H,8H2",
        "InChIKey": null,
        "Canonical SMILES": "O=N(=O)C1=CC=C(OCC2=NC=CC=C2)C(Cl)=C1",
        "Molecular Formula": "C<sub>12</sub>H<sub>9</sub>ClN<sub>2</sub>O<sub>3</sub>",
        "Molecular Mass": "264.66",
        "Melting Point": "149.2-149.9 °C"
    }
}