{
    "cas_no": "117106-20-4",
    "key_name": "<em>O</em>-(1,1-Dimethylethyl)-<em>N</em>-[(9<em>H</em>-fluoren-9-ylmethoxy)carbonyl]-<em>N</em>-methyl-<span class=\"text-smallcaps\">L</span>-threonine",
    "cn_name": "N-Fmoc-N-甲基-O-叔丁基-L-苏氨酸;N-芴甲氧羰基-N-甲基-O-叔丁基-L-苏氨酸;",
    "alternate_name": "<span class=\"text-smallcaps\">L</span>-Threonine, <em>O</em>-(1,1-dimethylethyl)-<em>N</em>-[(9<em>H</em>-fluoren-9-ylmethoxy)carbonyl]-<em>N</em>-methyl-;<em>O</em>-(1,1-Dimethylethyl)-<em>N</em>-[(9<em>H</em>-fluoren-9-ylmethoxy)carbonyl]-<em>N</em>-methyl-<span class=\"text-smallcaps\">L</span>-threonine",
    "duplicated_cas_no": "",
    "SMILES": "C(OC(N([C@@H]([C@H](OC(C)(C)C)C)C(O)=O)C)=O)C1C=2C(C=3C1=CC=CC3)=CC=CC2",
    "meta_data": {
        "InChI": "InChI=1S/C24H29NO5/c1-15(30-24(2,3)4)21(22(26)27)25(5)23(28)29-14-20-18-12-8-6-10-16(18)17-11-7-9-13-19(17)20/h6-13,15,20-21H,14H2,1-5H3,(H,26,27)/t15-,21+/m1/s1",
        "InChIKey": null,
        "Canonical SMILES": "O=C(O)C(N(C(=O)OCC1C=2C=CC=CC2C=3C=CC=CC31)C)C(OC(C)(C)C)C",
        "Molecular Formula": "C<sub>24</sub>H<sub>29</sub>NO<sub>5</sub>",
        "Molecular Mass": "411.49",
        "Melting Point": "44-46 °C"
    }
}