{
    "cas_no": "2005-10-9",
    "key_name": "6<em>H</em>-Dibenzo[<em>b</em>,<em>d</em>]pyran-6-one",
    "cn_name": null,
    "alternate_name": "6<em>H</em>-Dibenzo[<em>b</em>,<em>d</em>]pyran-6-one;2-Biphenylcarboxylic acid, 2′-hydroxy-, δ-lactone;2-Biphenylcarboxylic acid, 2′-hydroxy-, lactone;3,4-Benzocoumarin;6-Dibenzopyrone;2-Hydroxy-2′-carboxydiphenyllactone;Benzo[<em>c</em>]coumarin;2′-Hydroxy-2-biphenylcarboxylic acid lactone;Dibenzo[<em>b</em>,<em>d</em>]pyrone;NSC 407876;6<em>H</em>-Benzo[<em>c</em>]chromen-6-one;Urolithin H",
    "duplicated_cas_no": "1394180-32-5",
    "SMILES": "O=C1C=2C(C=3C(O1)=CC=CC3)=CC=CC2",
    "meta_data": {
        "InChI": "InChI=1S/C13H8O2/c14-13-11-7-2-1-5-9(11)10-6-3-4-8-12(10)15-13/h1-8H",
        "InChIKey": null,
        "Canonical SMILES": "O=C1OC=2C=CC=CC2C=3C=CC=CC13",
        "Molecular Formula": "C<sub>13</sub>H<sub>8</sub>O<sub>2</sub>",
        "Molecular Mass": "196.20",
        "Boiling Point": "360 °C",
        "Melting Point": "94 °C"
    }
}