{
    "cas_no": "2877-26-1",
    "key_name": "1-Isothiocyanatooctadecane",
    "cn_name": "十八烷基异氰酸酯;",
    "alternate_name": "Octadecane, 1-isothiocyanato-;Isothiocyanic acid, octadecyl ester;1-Isothiocyanatooctadecane;Octadecyl isothiocyanate",
    "duplicated_cas_no": "",
    "SMILES": "C(CCCCCCCCCC)CCCCCCCN=C=S",
    "meta_data": {
        "InChI": "InChI=1S/C19H37NS/c1-2-3-4-5-6-7-8-9-10-11-12-13-14-15-16-17-18-20-19-21/h2-18H2,1H3",
        "InChIKey": null,
        "Canonical SMILES": "S=C=NCCCCCCCCCCCCCCCCCC",
        "Molecular Formula": "C<sub>19</sub>H<sub>37</sub>NS",
        "Molecular Mass": "311.57",
        "Boiling Point": "140-142 °C @ Press: 3 x 10<sup>-3</sup> Torr",
        "Density": "0.8854 g/cm³ @ Temp: 20 °C"
    }
}