{
    "cas_no": "2306-88-9",
    "key_name": "Octyl caprylate",
    "cn_name": null,
    "alternate_name": "Octanoic acid, octyl ester;Caprylic acid, octyl ester;Octyl caprylate;Octyl octanoate;<em>n</em>-Octyl caprylate;1-Octyl octanoate;1-Octanol octanoate;<em>n</em>-Octyl <em>n</em>-octanoate;Estol 1540EHC;NSC 23957;Octyl octanathioate;Cetiol 88",
    "duplicated_cas_no": "",
    "SMILES": "C(OCCCCCCCC)(CCCCCCC)=O",
    "meta_data": {
        "InChI": "InChI=1S/C16H32O2/c1-3-5-7-9-11-13-15-18-16(17)14-12-10-8-6-4-2/h3-15H2,1-2H3",
        "InChIKey": null,
        "Canonical SMILES": "O=C(OCCCCCCCC)CCCCCCC",
        "Molecular Formula": "C<sub>16</sub>H<sub>32</sub>O<sub>2</sub>",
        "Molecular Mass": "256.42",
        "Boiling Point": "306.8 °C",
        "Melting Point": "-18.1 °C"
    }
}