{
    "cas_no": "83905-01-5",
    "key_name": "Azithromycin",
    "cn_name": "阿奇霉素;9-脱氧-9a-氮杂-9a-甲基-9a-红霉素A;",
    "alternate_name": "1-Oxa-6-azacyclopentadecan-15-one, 13-[(2,6-dideoxy-3-<em>C</em>-methyl-3-<em>O</em>-methyl-α-<span class=\"text-smallcaps\">L</smallcap>-<em>ribo</em>-hexopyranosyl)oxy]-2-ethyl-3,4,10-trihydroxy-3,5,6,8,10,12,14-heptamethyl-11-[[3,4,6-trideoxy-3-(dimethylamino)-β-<smallcap>D</span>-<em>xylo</em>-hexopyranosyl]oxy]-, (2<em>R</em>,3<em>S</em>,4<em>R</em>,5<em>R</em>,8<em>R</em>,10<em>R</em>,11<em>R</em>,12<em>S</em>,13<em>S</em>,14<em>R</em>)-;1-Oxa-6-azacyclopentadecan-15-one, 13-[(2,6-dideoxy-3-<em>C</em>-methyl-3-<em>O</em>-methyl-α-<span class=\"text-smallcaps\">L</smallcap>-<em>ribo</em>-hexopyranosyl)oxy]-2-ethyl-3,4,10-trihydroxy-3,5,6,8,10,12,14-heptamethyl-11-[[3,4,6-trideoxy-3-(dimethylamino)-β-<smallcap>D</span>-<em>xylo</em>-hexopyranosyl]oxy]-, [2<em>R</em>-(2<em>R</em>*,3<em>S</em>*,4<em>R</em>*,5<em>R</em>*,8<em>R</em>*,10<em>R</em>*,11<em>R</em>*,12<em>S</em>*,13<em>S</em>*,14<em>R</em>*)]-;(2<em>R</em>,3<em>S</em>,4<em>R</em>,5<em>R</em>,8<em>R</em>,10<em>R</em>,11<em>R</em>,12<em>S</em>,13<em>S</em>,14<em>R</em>)-13-[(2,6-Dideoxy-3-<em>C</em>-methyl-3-<em>O</em>-methyl-α-<span class=\"text-smallcaps\">L</smallcap>-<em>ribo</em>-hexopyranosyl)oxy]-2-ethyl-3,4,10-trihydroxy-3,5,6,8,10,12,14-heptamethyl-11-[[3,4,6-trideoxy-3-(dimethylamino)-β-<smallcap>D</span>-<em>xylo</em>-hexopyranosyl]oxy]-1-oxa-6-azacyclopentadecan-15-one;XZ 405;CP 62993;Azithromycin;Zithromax;Zithromac;Aruzilina;Azenil;Arzomicin;Azadose;Azitrocin;Azitromax;Aziwok;Aztrin;Setron;Tobil;Tromix;Ultreon;Zeto;Zifin;Zistic;Zitrim;Zitromax;Azimin;Azithral;Azomycin;Azomycin (macrolide);Sumamed;9-Deoxo-9a-methyl-9a-aza-9a-homoetrythromycin A;Trozocina;<em>N</em>-Methyl-11-aza-10-deoxo-10-dihydroerythromycin A;XZ 450;Zythromax;Azithromycin A;Sumazid;Zi-Factor;Azatril;Zithromax IV;Macrozit;Hemomycin;Aziromycin;Aziwin;Azee;Azisara;Xithron;Xithrone;Durasite;AzaSite;Zitrocin;Auricin;Auricin (polyketide antibiotic);Sanhe;Shimen;Tridosil;Azithrocin;AZM;Macromycin;Zmax;MeSH ID: D017963",
    "duplicated_cas_no": "104491-80-7;142556-82-9",
    "SMILES": "O([C@@H]1[C@@H](C)[C@H](O[C@H]2C[C@](OC)(C)[C@@H](O)[C@H](C)O2)[C@@H](C)C(=O)O[C@H](CC)[C@@](C)(O)[C@H](O)[C@@H](C)N(C)C[C@H](C)C[C@@]1(C)O)[C@H]3[C@H](O)[C@@H](N(C)C)C[C@@H](C)O3",
    "meta_data": {
        "InChI": "InChI=1S/C38H72N2O12/c1-15-27-38(10,46)31(42)24(6)40(13)19-20(2)17-36(8,45)33(52-35-29(41)26(39(11)12)16-21(3)48-35)22(4)30(23(5)34(44)50-27)51-28-18-37(9,47-14)32(43)25(7)49-28/h20-33,35,41-43,45-46H,15-19H2,1-14H3/t20-,21-,22+,23-,24-,25+,26+,27-,28+,29-,30+,31-,32+,33-,35+,36-,37-,38-/m1/s1",
        "InChIKey": null,
        "Canonical SMILES": "O=C1OC(CC)C(O)(C)C(O)C(N(C)CC(C)CC(O)(C)C(OC2OC(C)CC(N(C)C)C2O)C(C)C(OC3OC(C)C(O)C(OC)(C)C3)C1C)C",
        "Molecular Formula": "C<sub>38</sub>H<sub>72</sub>N<sub>2</sub>O<sub>12</sub>",
        "Molecular Mass": "748.98",
        "Melting Point": "113-115 °C"
    }
}