{
    "cas_no": "16954-74-8",
    "key_name": "2-(Dicyanomethylene)-1,3-indandione",
    "cn_name": null,
    "alternate_name": "Propanedinitrile, 2-(1,3-dihydro-1,3-dioxo-2<em>H</em>-inden-2-ylidene)-;Δ<sup>2,α</sup>-Indanmalononitrile, 1,3-dioxo-;Propanedinitrile, (1,3-dihydro-1,3-dioxo-2<em>H</em>-inden-2-ylidene)-;2-(1,3-Dihydro-1,3-dioxo-2<em>H</em>-inden-2-ylidene)propanedinitrile;2-(Dicyanomethylene)-1,3-indandione;(1,3-Dioxoindan-2-ylidene)propanedinitrile;2-(1,3-Dioxo-1<em>H</em>-inden-2(3<em>H</em>)-ylidene)malononitrile;2-(1,3-Dioxo-indan-2-ylidene)-malononitrile;2-(1,3-Dioxoinden-2-ylidene)propanedinitrile;2-(1,3-Dioxo-2,3-dihydro-1<em>H</em>-inden-2-ylidene)propanedinitrile",
    "duplicated_cas_no": "",
    "SMILES": "C(C#N)(C#N)=C1C(=O)C=2C(C1=O)=CC=CC2",
    "meta_data": {
        "InChI": "InChI=1S/C12H4N2O2/c13-5-7(6-14)10-11(15)8-3-1-2-4-9(8)12(10)16/h1-4H",
        "InChIKey": null,
        "Canonical SMILES": "N#CC(C#N)=C1C(=O)C=2C=CC=CC2C1=O",
        "Molecular Formula": "C<sub>12</sub>H<sub>4</sub>N<sub>2</sub>O<sub>2</sub>",
        "Molecular Mass": "208.17",
        "Melting Point": "281 °C"
    }
}