{
    "cas_no": "1548-13-6",
    "key_name": "4-(Trifluoromethyl)phenyl isocyanate",
    "cn_name": null,
    "alternate_name": "Benzene, 1-isocyanato-4-(trifluoromethyl)-;Isocyanic acid, α,α,α-trifluoro-<em>p</em>-tolyl ester;1-Isocyanato-4-(trifluoromethyl)benzene;<em>p</em>-Trifluoromethylphenyl isocyanate;4-(Trifluoromethyl)phenyl isocyanate;α,α,α-Trifluoro-<em>p</em>-tolyl isocyanate;Trifluoro-<em>p</em>-tolyl isocyanate;<em>p</em>-Trifluorophenyl isocyanate",
    "duplicated_cas_no": "",
    "SMILES": "C(F)(F)(F)C1=CC=C(N=C=O)C=C1",
    "meta_data": {
        "InChI": "InChI=1S/C8H4F3NO/c9-8(10,11)6-1-3-7(4-2-6)12-5-13/h1-4H",
        "InChIKey": null,
        "Canonical SMILES": "O=C=NC1=CC=C(C=C1)C(F)(F)F",
        "Molecular Formula": "C<sub>8</sub>H<sub>4</sub>F<sub>3</sub>NO",
        "Molecular Mass": "187.12",
        "Boiling Point": "58-59 °C @ Press: 10 Torr",
        "Density": "1.3363 g/cm³ @ Temp: 20 °C"
    }
}