{
    "cas_no": "7439-95-4",
    "key_name": "Magnesium",
    "cn_name": "镁;金属镁;",
    "alternate_name": "Magnesium;Rieke's active magnesium;Magnesium element;PK 31;Ecka Granules PK 51;Ecka Granules PK 31;PK 51;Mg 3820;Magnum Forte;Ozone magnez;Magnesium 100;Magnesium Shot;Hypermagnesemia;Tervalloy;MG96;XH-Mg 010;MeSH ID: D008274",
    "duplicated_cas_no": "14147-08-1;67208-78-0;199281-20-4;298688-48-9;1169483-41-3",
    "SMILES": "[Mg]",
    "meta_data": {
        "InChI": "InChI=1S/Mg",
        "InChIKey": null,
        "Canonical SMILES": "[Mg]",
        "Molecular Formula": "Mg",
        "Molecular Mass": "",
        "Boiling Point": "1100 °C",
        "Melting Point": "651 °C",
        "Density": "1.738 g/cm³ @ Temp: 20 °C"
    }
}