{
    "cas_no": "2088-71-3",
    "key_name": "Testosterone, benzoate",
    "cn_name": "17-安息香酸雄烯醇酮;17-安息香酸睾丸激素;",
    "alternate_name": "Androst-4-en-3-one, 17-(benzoyloxy)-, (17β)-;Testosterone, benzoate;(17β)-17-(Benzoyloxy)androst-4-en-3-one;17β-Benzoyloxyandrost-4-en-3-one;Androst-4-en-17β-ol-3-one benzoate;Testosterone 17-benzoate;17β-Hydroxyandrost-4-en-3-one benzoate;NSC 524278;4-Androstene-17β-ol-3-one benzoate",
    "duplicated_cas_no": "",
    "SMILES": "C[C@@]12[C@@]3([C@]([C@]4([C@](C)(CC3)[C@@H](OC(=O)C5=CC=CC=C5)CC4)[H])(CCC1=CC(=O)CC2)[H])[H]",
    "meta_data": {
        "InChI": "InChI=1S/C26H32O3/c1-25-14-12-19(27)16-18(25)8-9-20-21-10-11-23(26(21,2)15-13-22(20)25)29-24(28)17-6-4-3-5-7-17/h3-7,16,20-23H,8-15H2,1-2H3/t20-,21-,22-,23-,25-,26-/m0/s1",
        "InChIKey": null,
        "Canonical SMILES": "O=C(OC1CCC2C3CCC4=CC(=O)CCC4(C)C3CCC12C)C=5C=CC=CC5",
        "Molecular Formula": "C<sub>26</sub>H<sub>32</sub>O<sub>3</sub>",
        "Molecular Mass": "392.53",
        "Melting Point": "200 °C"
    }
}