{
    "cas_no": "4049-34-7",
    "key_name": "β-<span class=\"text-smallcaps\">D</span>-Ribopyranose, 1,2,3,4-tetraacetate",
    "cn_name": null,
    "alternate_name": "β-<span class=\"text-smallcaps\">D</span>-Ribopyranose, 1,2,3,4-tetraacetate;Ribopyranose, tetraacetate, β-<span class=\"text-smallcaps\">D</span>-;β-<span class=\"text-smallcaps\">D</span>-Ribopyranose, tetraacetate;Ribopyranose, tetraacetate;Tetra-<em>O</em>-acetyl-β-<span class=\"text-smallcaps\">D</span>-ribopyranose;1,2,3,4-Tetra-<em>O</em>-acetyl-β-<span class=\"text-smallcaps\">D</span>-ribopyranose;NSC 116266",
    "duplicated_cas_no": "",
    "SMILES": "O(C(C)=O)[C@H]1[C@@H](OC(C)=O)[C@H](OC(C)=O)OC[C@H]1OC(C)=O",
    "meta_data": {
        "InChI": "InChI=1S/C13H18O9/c1-6(14)19-10-5-18-13(22-9(4)17)12(21-8(3)16)11(10)20-7(2)15/h10-13H,5H2,1-4H3/t10-,11-,12-,13+/m1/s1",
        "InChIKey": null,
        "Canonical SMILES": "O=C(OC1OCC(OC(=O)C)C(OC(=O)C)C1OC(=O)C)C",
        "Molecular Formula": "C<sub>13</sub>H<sub>18</sub>O<sub>9</sub>",
        "Molecular Mass": "318.28",
        "Melting Point": "110 °C"
    }
}