{
    "cas_no": "598-78-7",
    "key_name": "2-Chloropropionic acid",
    "cn_name": "2-氯丙酸;",
    "alternate_name": "Propanoic acid, 2-chloro-;Propionic acid, 2-chloro-;Propionic acid, α-chloro-;2-Chloropropanoic acid;2-Chloropropionic acid;α-Chloropropionic acid;<span class=\"text-smallcaps\">DL</span>-2-Chloropropionic acid;(<em>RS</em>)-2-Chloropropionic acid;(±)-α-Chloropropanoic acid;(±)-2-Chloropropionic acid;(<em>RS</em>)-α-Chloropropionic acid;(±)-2-Chloropropanoic acid;NSC 173;NSC 401806;(<em>RS</em>)-2-Chloropropanoic acid",
    "duplicated_cas_no": "62138-52-7",
    "SMILES": "C(C(O)=O)(C)Cl",
    "meta_data": {
        "InChI": "InChI=1S/C3H5ClO2/c1-2(4)3(5)6/h2H,1H3,(H,5,6)",
        "InChIKey": null,
        "Canonical SMILES": "O=C(O)C(Cl)C",
        "Molecular Formula": "C<sub>3</sub>H<sub>5</sub>ClO<sub>2</sub>",
        "Molecular Mass": "108.52",
        "Boiling Point": "186 °C",
        "Melting Point": "-12.1 °C",
        "Density": "1.2585 g/cm³ @ Temp: 20 °C"
    }
}