{
    "cas_no": "34036-16-3",
    "key_name": "Hexanoic acid, 5-methyl-3-oxo-, ethyl ester",
    "cn_name": null,
    "alternate_name": "Hexanoic acid, 5-methyl-3-oxo-, ethyl ester;Ethyl 5-methyl-3-oxohexanoate;NSC 69069;5-Methyl-3-oxohexanoic acid ethyl ester",
    "duplicated_cas_no": "13001-24-6",
    "SMILES": "C(C(CC(C)C)=O)C(OCC)=O",
    "meta_data": {
        "InChI": "InChI=1S/C9H16O3/c1-4-12-9(11)6-8(10)5-7(2)3/h7H,4-6H2,1-3H3",
        "InChIKey": null,
        "Canonical SMILES": "O=C(OCC)CC(=O)CC(C)C",
        "Molecular Formula": "C<sub>9</sub>H<sub>16</sub>O<sub>3</sub>",
        "Molecular Mass": "172.22",
        "Boiling Point": "99.5 °C @ Press: 12.5 Torr"
    }
}