{
    "cas_no": "39809-25-1",
    "key_name": "Penciclovir",
    "cn_name": "喷昔洛韦;9-[4-羟基-3-(羟甲基)-丁基]-鸟嘌呤;",
    "alternate_name": "6<em>H</em>-Purin-6-one, 2-amino-1,9-dihydro-9-[4-hydroxy-3-(hydroxymethyl)butyl]-;2-Amino-1,9-dihydro-9-[4-hydroxy-3-(hydroxymethyl)butyl]-6<em>H</em>-purin-6-one;BRL 39123;Penciclovir;9-[4-Hydroxy-3-(hydroxymethyl)butyl]guanine;VSA 671;Denavir;Penxiluowei;2-Amino-9-[4-hydroxy-3-(hydroxymethyl)butyl]-3<em>H</em>-purin-6-one;2-Amino-9-[4-hydroxy-3-(hydroxymethyl)butyl]-6,9-dihydro-1<em>H</em>-purin-6-one;2-Amino-9-[4-hydroxy-3-(hydroxymethyl)butyl]-3,9-dihydropurin-6-one",
    "duplicated_cas_no": "111790-02-4",
    "SMILES": "C(CC(CO)CO)N1C2=C(N=C1)C(=O)N=C(N)N2",
    "meta_data": {
        "InChI": "InChI=1S/C10H15N5O3/c11-10-13-8-7(9(18)14-10)12-5-15(8)2-1-6(3-16)4-17/h5-6,16-17H,1-4H2,(H3,11,13,14,18)",
        "InChIKey": null,
        "Canonical SMILES": "O=C1N=C(N)NC2=C1N=CN2CCC(CO)CO",
        "Molecular Formula": "C<sub>10</sub>H<sub>15</sub>N<sub>5</sub>O<sub>3</sub>",
        "Molecular Mass": "253.26",
        "Melting Point": "275-277 °C"
    }
}