{
    "cas_no": "2142-01-0",
    "key_name": "2-(Phenylmethyl)-1<em>H</em>-isoindole-1,3(2<em>H</em>)-dione",
    "cn_name": "N-苄基邻苯二甲酰亚胺;N-苯甲基邻苯二甲酰亚胺;N-苄基酞酰亚胺;",
    "alternate_name": "1<em>H</em>-Isoindole-1,3(2<em>H</em>)-dione, 2-(phenylmethyl)-;Phthalimide, <em>N</em>-benzyl-;2-(Phenylmethyl)-1<em>H</em>-isoindole-1,3(2<em>H</em>)-dione;<em>N</em>-Benzylphthalimide;2-(Phenylmethyl)isoindole-1,3(2<em>H</em>)-dione;2-(Phenylmethyl)-1,3-isoindolinedione;NSC 2771;2-Benzylisoindole-1,3-dione;2-Benzyl-1,3-dioxo-2,3-dihydro-1<em>H</em>-isoindole;2-Benzylisoindoline-1,3-dione;2-Benzyl-2,3-dihydro-1<em>H</em>-isoindole-1,3-dione",
    "duplicated_cas_no": "",
    "SMILES": "O=C1C=2C(C(=O)N1CC3=CC=CC=C3)=CC=CC2",
    "meta_data": {
        "InChI": "InChI=1S/C15H11NO2/c17-14-12-8-4-5-9-13(12)15(18)16(14)10-11-6-2-1-3-7-11/h1-9H,10H2",
        "InChIKey": null,
        "Canonical SMILES": "O=C1C=2C=CC=CC2C(=O)N1CC=3C=CC=CC3",
        "Molecular Formula": "C<sub>15</sub>H<sub>11</sub>NO<sub>2</sub>",
        "Molecular Mass": "237.25",
        "Melting Point": "116 °C"
    }
}