{
    "cas_no": "19018-24-7",
    "key_name": "α-Methyl-1<em>H</em>-benzimidazole-2-methanol",
    "cn_name": "2-(1-羟乙基)苯并咪唑;",
    "alternate_name": "1<em>H</em>-Benzimidazole-2-methanol, α-methyl-;2-Benzimidazolemethanol, α-methyl-;α-Methyl-1<em>H</em>-benzimidazole-2-methanol;2-(1′-Hydroxyethyl)benzimidazole;2-(α-Hydroxyethyl)benzimidazole;2-(1-Hydroxyethyl)benzimidazole;1-(1<em>H</em>-Benzimidazol-2-yl)ethanol;(±)-1-(1<em>H</em>-Benzimidazol-2-yl)ethanol;1-(1<em>H</em>-Benzo[<em>d</em>]imidazol-2-yl)ethanol;1-(1<em>H</em>-1,3-Benzodiazol-2-yl)ethan-1-ol",
    "duplicated_cas_no": "16414-04-3",
    "SMILES": "C(C)(O)C=1NC=2C(N1)=CC=CC2",
    "meta_data": {
        "InChI": "InChI=1S/C9H10N2O/c1-6(12)9-10-7-4-2-3-5-8(7)11-9/h2-6,12H,1H3,(H,10,11)",
        "InChIKey": null,
        "Canonical SMILES": "OC(C1=NC=2C=CC=CC2N1)C",
        "Molecular Formula": "C<sub>9</sub>H<sub>10</sub>N<sub>2</sub>O",
        "Molecular Mass": "162.19",
        "Melting Point": "179-180 °C"
    }
}