{
    "cas_no": "243-17-4",
    "key_name": "11<em>H</em>-Benzo[<em>b</em>]fluorene",
    "cn_name": "四甲基茚;",
    "alternate_name": "11<em>H</em>-Benzo[<em>b</em>]fluorene;Benzo[<em>b</em>]fluorene;2,3-Benzofluorene;NSC 89263",
    "duplicated_cas_no": "",
    "SMILES": "C1=2C=3C(CC1=CC=4C(C2)=CC=CC4)=CC=CC3",
    "meta_data": {
        "InChI": "InChI=1S/C17H12/c1-2-6-13-11-17-15(9-12(13)5-1)10-14-7-3-4-8-16(14)17/h1-9,11H,10H2",
        "InChIKey": null,
        "Canonical SMILES": "C=1C=CC=2C=C3C(=CC2C1)C=4C=CC=CC4C3",
        "Molecular Formula": "C<sub>17</sub>H<sub>12</sub>",
        "Molecular Mass": "216.28",
        "Boiling Point": "401-402 °C",
        "Melting Point": "212 °C",
        "Density": "1.185 g/cm³ @ Temp: 20 °C; Press: 750 Torr"
    }
}