{
    "cas_no": "548-29-8",
    "key_name": "(+)-Isolariciresinol",
    "cn_name": null,
    "alternate_name": "2,3-Naphthalenedimethanol, 1,2,3,4-tetrahydro-7-hydroxy-1-(4-hydroxy-3-methoxyphenyl)-6-methoxy-, (1<em>S</em>,2<em>R</em>,3<em>R</em>)-;Isolariciresinol;2,3-Naphthalenedimethanol, 1,2,3,4-tetrahydro-7-hydroxy-1-(4-hydroxy-3-methoxyphenyl)-6-methoxy-, [1<em>S</em>-(1α,2β,3α)]-;(1<em>S</em>,2<em>R</em>,3<em>R</em>)-1,2,3,4-Tetrahydro-7-hydroxy-1-(4-hydroxy-3-methoxyphenyl)-6-methoxy-2,3-naphthalenedimethanol;(+)-Isolariciresinol;Isolariciresinol, (+)-;α-Conidendryl alcohol;Cyclolariciresinol;(+)-Cyclolariciresinol",
    "duplicated_cas_no": "26568-14-9;47477-27-0",
    "SMILES": "C(O)[C@@H]1[C@H](C=2C(C[C@H]1CO)=CC(OC)=C(O)C2)C3=CC(OC)=C(O)C=C3",
    "meta_data": {
        "InChI": "InChI=1S/C20H24O6/c1-25-18-6-11(3-4-16(18)23)20-14-8-17(24)19(26-2)7-12(14)5-13(9-21)15(20)10-22/h3-4,6-8,13,15,20-24H,5,9-10H2,1-2H3/t13-,15-,20-/m0/s1",
        "InChIKey": null,
        "Canonical SMILES": "OC1=CC=C(C=C1OC)C2C3=CC(O)=C(OC)C=C3CC(CO)C2CO",
        "Molecular Formula": "C<sub>20</sub>H<sub>24</sub>O<sub>6</sub>",
        "Molecular Mass": "360.40",
        "Melting Point": "112 °C"
    }
}