{
    "cas_no": "18643-84-0",
    "key_name": "1,4-Benzenedicarboxylic acid, 2-chloro-, 1,4-dimethyl ester",
    "cn_name": "2-氯对苯二甲酸二甲酯;",
    "alternate_name": "1,4-Benzenedicarboxylic acid, 2-chloro-, 1,4-dimethyl ester;Terephthalic acid, chloro-, dimethyl ester;1,4-Benzenedicarboxylic acid, 2-chloro-, dimethyl ester;1,4-Dimethyl 2-chlorobenzene-1,4-dicarboxylate;2-Chloro-1,4-benzenedicarboxylic acid dimethyl ester;2-Chloroterephthalic acid dimethyl ester",
    "duplicated_cas_no": "",
    "SMILES": "C(OC)(=O)C1=C(Cl)C=C(C(OC)=O)C=C1",
    "meta_data": {
        "InChI": "InChI=1S/C10H9ClO4/c1-14-9(12)6-3-4-7(8(11)5-6)10(13)15-2/h3-5H,1-2H3",
        "InChIKey": null,
        "Canonical SMILES": "O=C(OC)C1=CC=C(C(=O)OC)C(Cl)=C1",
        "Molecular Formula": "C<sub>10</sub>H<sub>9</sub>ClO<sub>4</sub>",
        "Molecular Mass": "228.63",
        "Melting Point": "59-60 °C"
    }
}