{
    "cas_no": "7432-28-2",
    "key_name": "Schisandrin",
    "cn_name": "五味子素;五味子醇甲;",
    "alternate_name": "Dibenzo[<em>a</em>,<em>c</em>]cycloocten-6-ol, 5,6,7,8-tetrahydro-1,2,3,10,11,12-hexamethoxy-6,7-dimethyl-, (6<em>S</em>,7<em>S</em>,12a<em>R</em>)-;Schizandrin;(6<em>S</em>,7<em>S</em>,12a<em>R</em>)-5,6,7,8-Tetrahydro-1,2,3,10,11,12-hexamethoxy-6,7-dimethyldibenzo[<em>a</em>,<em>c</em>]cycloocten-6-ol;Schisandrin;Schisandrine;Schizandrine;Wuweizichun A;Wuweizi alcohol A;(+)-Schizandrin;Schizandrol;Schisandrol A",
    "duplicated_cas_no": "11031-50-8;50809-18-2;52932-78-2",
    "SMILES": "O(C)C1=C2C=3C(=CC(OC)=C(OC)C3OC)CC(C)C(C)(O)CC2=CC(OC)=C1OC",
    "meta_data": {
        "InChI": "InChI=1S/C24H32O7/c1-13-9-14-10-16(26-3)20(28-5)22(30-7)18(14)19-15(12-24(13,2)25)11-17(27-4)21(29-6)23(19)31-8/h10-11,13,25H,9,12H2,1-8H3",
        "InChIKey": null,
        "Canonical SMILES": "OC1(C)CC2=CC(OC)=C(OC)C(OC)=C2C=3C(OC)=C(OC)C(OC)=CC3CC1C",
        "Molecular Formula": "C<sub>24</sub>H<sub>32</sub>O<sub>7</sub>",
        "Molecular Mass": "432.51",
        "Melting Point": "128-129 °C"
    }
}