{
    "cas_no": "554-01-8",
    "key_name": "5-Methylcytosine",
    "cn_name": null,
    "alternate_name": "2(1<em>H</em>)-Pyrimidinone, 6-amino-5-methyl-;Cytosine, 5-methyl-;2(1<em>H</em>)-Pyrimidinone, 4-amino-5-methyl-;6-Amino-5-methyl-2(1<em>H</em>)-pyrimidinone;5-Methylcytosine;4-Amino-5-methyl-2(1<em>H</em>)-pyrimidinone;4-Amino-2-hydroxy-5-methylpyrimidine;NSC 137776;MeSH ID: D044503",
    "duplicated_cas_no": "1563-00-4",
    "SMILES": "NC1=C(C)C=NC(=O)N1",
    "meta_data": {
        "InChI": "InChI=1S/C5H7N3O/c1-3-2-7-5(9)8-4(3)6/h2H,1H3,(H3,6,7,8,9)",
        "InChIKey": null,
        "Canonical SMILES": "O=C1N=CC(=C(N)N1)C",
        "Molecular Formula": "C<sub>5</sub>H<sub>7</sub>N<sub>3</sub>O",
        "Molecular Mass": "125.13",
        "Melting Point": "270 °C (decomp)"
    }
}