{
    "cas_no": "594-44-5",
    "key_name": "Ethanesulfonyl chloride",
    "cn_name": "乙基磺酰氯;",
    "alternate_name": "Ethanesulfonyl chloride;Ethylsulfonyl chloride;1-Ethanesulfonyl chloride;Ethylsulfuryl chloride;NSC 8649;Chloroethylsulfone",
    "duplicated_cas_no": "",
    "SMILES": "S(CC)(Cl)(=O)=O",
    "meta_data": {
        "InChI": "InChI=1S/C2H5ClO2S/c1-2-6(3,4)5/h2H2,1H3",
        "InChIKey": null,
        "Canonical SMILES": "O=S(=O)(Cl)CC",
        "Molecular Formula": "C<sub>2</sub>H<sub>5</sub>ClO<sub>2</sub>S",
        "Molecular Mass": "128.58",
        "Boiling Point": "174 °C",
        "Density": "1.351 g/cm³ @ Temp: 24 °C"
    }
}