{
    "cas_no": "34368-52-0",
    "key_name": "(3<em>S</em>)-3-Hydroxy-2-pyrrolidinone",
    "cn_name": null,
    "alternate_name": "2-Pyrrolidinone, 3-hydroxy-, (3<em>S</em>)-;2-Pyrrolidinone, 3-hydroxy-, (<em>S</em>)-(-)-;2-Pyrrolidinone, 3-hydroxy-, (<em>S</em>)-;(3<em>S</em>)-3-Hydroxy-2-pyrrolidinone;(<em>S</em>)-3-Hydroxy-2-pyrrolidone;(<em>S</em>)-3-Hydroxy-2-pyrrolidinone;(<em>S</em>)-3-Hydroxybutyrolactam;(<em>S</em>)-(-)-3-Hydroxypyrrolidin-2-one;(-)-3-Hydroxypyrrolidin-2-one;3-(<em>S</em>)-Hydroxypyrrolidin-2-one;(3<em>S</em>)-3-Hydroxypyrrolidin-2-one;(3S)-3-Hydroxy-2-pyrrolidinone;2-Pyrrolidinone 3-hydroxy-, (3S)-",
    "duplicated_cas_no": "",
    "SMILES": "O[C@@H]1C(=O)NCC1",
    "meta_data": {
        "InChI": "InChI=1S/C4H7NO2/c6-3-1-2-5-4(3)7/h3,6H,1-2H2,(H,5,7)/t3-/m0/s1",
        "InChIKey": null,
        "Canonical SMILES": "O=C1NCCC1O",
        "Molecular Formula": "C<sub>4</sub>H<sub>7</sub>NO<sub>2</sub>",
        "Molecular Mass": "101.10",
        "Melting Point": "100-102 °C"
    }
}