{
    "cas_no": "1918-77-0",
    "key_name": "2-Thiopheneacetic acid",
    "cn_name": "2-噻吩乙酸;",
    "alternate_name": "2-Thiopheneacetic acid;2-Thienylacetic acid;2-(2-Thienyl)acetic acid;Thiophen-2-ylacetic acid;2-Thienylethanoic acid;2-(Thiophen-2-yl)acetic acid;2-(Thien-2-yl)acetic acid",
    "duplicated_cas_no": "",
    "SMILES": "C(C(O)=O)C1=CC=CS1",
    "meta_data": {
        "InChI": "InChI=1S/C6H6O2S/c7-6(8)4-5-2-1-3-9-5/h1-3H,4H2,(H,7,8)",
        "InChIKey": null,
        "Canonical SMILES": "O=C(O)CC=1SC=CC1",
        "Molecular Formula": "C<sub>6</sub>H<sub>6</sub>O<sub>2</sub>S",
        "Molecular Mass": "142.18",
        "Melting Point": "75-76 °C"
    }
}