{
    "cas_no": "827-61-2",
    "key_name": "Aceclidine",
    "cn_name": "乙酰克里定;醋克立定;(3R)-1-氮杂双环[2.2.2]辛-3-基乙酸酯;",
    "alternate_name": "1-Azabicyclo[2.2.2]octan-3-ol, 3-acetate;3-Quinuclidinol, acetate (ester);1-Azabicyclo[2.2.2]octan-3-ol, acetate (ester);3-Quinuclidinol, acetate;Aceclidine;3-Acetoxyquinuclidine;3-Hydroxyquinuclidine acetate;Aceclidin;(±)-3-Acetoxyquinuclidine;3-Quinuclidinyl acetate;<em>dl</em>-3-Quinuclidinol acetate;NSC 657843;1-Azabicyclo[2.2.2]octan-3-yl acetate;Quinuclidin-3-yl acetate",
    "duplicated_cas_no": "72353-53-8",
    "SMILES": "O(C(C)=O)C1C2CCN(C1)CC2",
    "meta_data": {
        "InChI": "InChI=1S/C9H15NO2/c1-7(11)12-9-6-10-4-2-8(9)3-5-10/h8-9H,2-6H2,1H3",
        "InChIKey": null,
        "Canonical SMILES": "O=C(OC1CN2CCC1CC2)C",
        "Molecular Formula": "C<sub>9</sub>H<sub>15</sub>NO<sub>2</sub>",
        "Molecular Mass": "169.22",
        "Boiling Point": "73-74 °C @ Press: 0.4 Torr"
    }
}