{
    "cas_no": "10376-48-4",
    "key_name": "Shionone",
    "cn_name": "紫菀酮;",
    "alternate_name": "2(1<em>H</em>)-Chrysenone, hexadecahydro-1,4b,6a,8,10a,12a-hexamethyl-8-(4-methyl-3-penten-1-yl)-, (1<em>R</em>,4a<em>S</em>,4b<em>S</em>,6a<em>S</em>,8<em>R</em>,10a<em>R</em>,10b<em>S</em>,12a<em>S</em>)-;<em>D</em>-Homo-5α-androstan-17-one, 3α,5,8,17aβ-tetramethyl-3-(4-methyl-3-pentenyl)-;Shionone;<em>D</em>:<em>A</em>-Friedo-18,19-secolup-19-en-3-one;2(1<em>H</em>)-Chrysenone, hexadecahydro-1,4b,6a,8,10a,12a-hexamethyl-8-(4-methyl-3-pentenyl)-, (1<em>R</em>,4a<em>S</em>,4b<em>S</em>,6a<em>S</em>,8<em>R</em>,10a<em>R</em>,10b<em>S</em>,12a<em>S</em>)-;(1<em>R</em>,4a<em>S</em>,4b<em>S</em>,6a<em>S</em>,8<em>R</em>,10a<em>R</em>,10b<em>S</em>,12a<em>S</em>)-Hexadecahydro-1,4b,6a,8,10a,12a-hexamethyl-8-(4-methyl-3-penten-1-yl)-2(1<em>H</em>)-chrysenone;Shionon;2(1<em>H</em>)-Chrysenone, hexadecahydro-1,4b,6a,8,10a,12a-hexamethyl-8-(4-methyl-3-pentenyl)-, [1<em>R</em>-(1α,4aβ,4bα,6aβ,8β,10aα,10bβ,12aα)]-",
    "duplicated_cas_no": "1411-04-7;6669-96-1",
    "SMILES": "C[C@@]12[C@@]3([C@](C)([C@]4([C@](C)(CC3)[C@@H](C)C(=O)CC4)[H])CC[C@@]1(C)C[C@@](CCC=C(C)C)(C)CC2)[H]",
    "meta_data": {
        "InChI": "InChI=1S/C30H50O/c1-21(2)10-9-14-26(4)16-19-30(8)25-13-15-28(6)22(3)23(31)11-12-24(28)29(25,7)18-17-27(30,5)20-26/h10,22,24-25H,9,11-20H2,1-8H3/t22-,24+,25-,26+,27-,28+,29-,30+/m0/s1",
        "InChIKey": null,
        "Canonical SMILES": "O=C1CCC2C(C)(CCC3C2(C)CCC4(C)CC(C)(CCC=C(C)C)CCC34C)C1C",
        "Molecular Formula": "C<sub>30</sub>H<sub>50</sub>O",
        "Molecular Mass": "426.72",
        "Melting Point": "158.5-159.5 °C"
    }
}