{
    "cas_no": "74503-07-4",
    "key_name": "2-Propen-1-yl 2-chloro-2-oxoacetate",
    "cn_name": null,
    "alternate_name": "Acetic acid, 2-chloro-2-oxo-, 2-propen-1-yl ester;Acetic acid, chlorooxo-, 2-propenyl ester;2-Propen-1-yl 2-chloro-2-oxoacetate;Allyl oxalyl chloride;Allyl 2-chloro-2-oxoacetate",
    "duplicated_cas_no": "",
    "SMILES": "C(C(Cl)=O)(OCC=C)=O",
    "meta_data": {
        "InChI": "InChI=1S/C5H5ClO3/c1-2-3-9-5(8)4(6)7/h2H,1,3H2",
        "InChIKey": null,
        "Canonical SMILES": "O=C(Cl)C(=O)OCC=C",
        "Molecular Formula": "C<sub>5</sub>H<sub>5</sub>ClO<sub>3</sub>",
        "Molecular Mass": "148.54",
        "Boiling Point": "50-51 °C @ Press: 12 Torr"
    }
}