{
    "cas_no": "20029-52-1",
    "key_name": "4-Cyclohexylbenzoic acid",
    "cn_name": "4-环己基苯甲酸;",
    "alternate_name": "Benzoic acid, 4-cyclohexyl-;Benzoic acid, <em>p</em>-cyclohexyl-;4-Cyclohexylbenzoic acid;<em>p</em>-Cyclohexylbenzoic acid;4-Cyclohexylphenylcarboxylic acid;NSC 126462",
    "duplicated_cas_no": "",
    "SMILES": "C(O)(=O)C1=CC=C(C=C1)C2CCCCC2",
    "meta_data": {
        "InChI": "InChI=1S/C13H16O2/c14-13(15)12-8-6-11(7-9-12)10-4-2-1-3-5-10/h6-10H,1-5H2,(H,14,15)",
        "InChIKey": null,
        "Canonical SMILES": "O=C(O)C1=CC=C(C=C1)C2CCCCC2",
        "Molecular Formula": "C<sub>13</sub>H<sub>16</sub>O<sub>2</sub>",
        "Molecular Mass": "204.26",
        "Melting Point": "196 °C"
    }
}