{
    "cas_no": "37632-18-1",
    "key_name": "<em>P</em>-(4-Methoxyphenyl)phosphonic dichloride",
    "cn_name": "4-甲氧苯基磷酸二氯;",
    "alternate_name": "Phosphonic dichloride, <em>P</em>-(4-methoxyphenyl)-;Phosphonic dichloride, (4-methoxyphenyl)-;Phosphonic dichloride, (<em>p</em>-methoxyphenyl)-;<em>P</em>-(4-Methoxyphenyl)phosphonic dichloride;Dichloro(4-methoxyphenyl)phosphine oxide;(<em>p</em>-Methoxyphenyl)phosphonic dichloride;<em>p</em>-Anisylphosphonic dichloride;(4-Methoxyphenyl)phosphonic dichloride;1-Dichlorophosphoryl-4-methoxybenzene;(4-Methoxyphenyl)phosphonoyl dichloride",
    "duplicated_cas_no": "",
    "SMILES": "P(Cl)(Cl)(=O)C1=CC=C(OC)C=C1",
    "meta_data": {
        "InChI": "InChI=1S/C7H7Cl2O2P/c1-11-6-2-4-7(5-3-6)12(8,9)10/h2-5H,1H3",
        "InChIKey": null,
        "Canonical SMILES": "O=P(Cl)(Cl)C1=CC=C(OC)C=C1",
        "Molecular Formula": "C<sub>7</sub>H<sub>7</sub>Cl<sub>2</sub>O<sub>2</sub>P",
        "Molecular Mass": "225.01",
        "Boiling Point": "149-153 °C @ Press: 6-7 Torr"
    }
}