{
    "cas_no": "97-95-0",
    "key_name": "2-Ethyl-1-butanol",
    "cn_name": "2-乙基丁醇;2-乙基-1-丁醇;",
    "alternate_name": "1-Butanol, 2-ethyl-;2-Ethyl-1-butanol;2-Ethylbutyl alcohol;3-Methylolpentane;Pseudohexyl alcohol;NSC 8858",
    "duplicated_cas_no": "",
    "SMILES": "C(CC)(CC)CO",
    "meta_data": {
        "InChI": "InChI=1S/C6H14O/c1-3-6(4-2)5-7/h6-7H,3-5H2,1-2H3",
        "InChIKey": null,
        "Canonical SMILES": "OCC(CC)CC",
        "Molecular Formula": "C<sub>6</sub>H<sub>14</sub>O",
        "Molecular Mass": "102.17",
        "Boiling Point": "146.27 °C @ Press: 760 Torr",
        "Melting Point": "&lt;-15 °C",
        "Density": "0.8326 g/cm³ @ Temp: 20 °C"
    }
}