{
    "cas_no": "61718-82-9",
    "key_name": "Fluvoxamine maleate",
    "cn_name": "马来酸氟伏沙明;(E)-5-甲氧基-1-(4-三氟甲苯基)-O-(2-胺乙肟基)-1-戊酮马来酸盐;",
    "alternate_name": "1-Pentanone, 5-methoxy-1-[4-(trifluoromethyl)phenyl]-, <em>O</em>-(2-aminoethyl)oxime, (1<em>E</em>)-, (2<em>Z</em>)-2-butenedioate (1:1);1-Pentanone, 5-methoxy-1-[4-(trifluoromethyl)phenyl]-, <em>O</em>-(2-aminoethyl)oxime, (<em>E</em>)-, (<em>Z</em>)-2-butenedioate (1:1);Fluvoxamine maleate;Faverin 50;Luvox;DU 23000;Avoxin;Avoksin;Depromel;Fevarin;Dumirox;MK 264;Floxyfral;Maveral;Faverin;NSC 309469;Faverine",
    "duplicated_cas_no": "54739-20-7",
    "SMILES": "C(\\CCCCOC)(=N\\OCCN)/C1=CC=C(C(F)(F)F)C=C1.C(=C\\C(O)=O)\\C(O)=O",
    "meta_data": {
        "InChI": "InChI=1S/C15H21F3N2O2.C4H4O4/c1-21-10-3-2-4-14(20-22-11-9-19)12-5-7-13(8-6-12)15(16,17)18;5-3(6)1-2-4(7)8/h5-8H,2-4,9-11,19H2,1H3;1-2H,(H,5,6)(H,7,8)/b20-14+;2-1-",
        "InChIKey": null,
        "Canonical SMILES": "O=C(O)C=CC(=O)O.FC(F)(F)C1=CC=C(C=C1)C(=NOCCN)CCCCOC",
        "Molecular Formula": "C<sub>15</sub>H<sub>21</sub>F<sub>3</sub>N<sub>2</sub>O<sub>2</sub>.C<sub>4</sub>H<sub>4</sub>O<sub>4</sub>",
        "Molecular Mass": "",
        "Melting Point": "120-121.5 °C"
    }
}