{
    "cas_no": "100-10-7",
    "key_name": "4-(Dimethylamino)benzaldehyde",
    "cn_name": "对二甲胺基苯甲醛,对-二甲胺基苯甲醛;",
    "alternate_name": "Benzaldehyde, 4-(dimethylamino)-;Benzaldehyde, <em>p</em>-(dimethylamino)-;4-(Dimethylamino)benzaldehyde;<em>p</em>-(Dimethylamino)benzaldehyde;4-(Dimethylamino)benzenecarbonal;<em>p</em>-Formyldimethylaniline;<em>p</em>-(<em>N</em>,<em>N</em>-Dimethylamino)benzaldehyde;4-(<em>N</em>,<em>N</em>-Dimethylamino)benzaldehyde;<em>p</em>-Formyl-<em>N</em>,<em>N</em>-dimethylaniline;<em>N</em>,<em>N</em>-Dimethyl-<em>p</em>-aminobenzaldehyde;4-Formyl-<em>N</em>,<em>N</em>-dimethylaniline;<em>N</em>,<em>N</em>-Dimethyl-4-formylaniline;<em>N</em>,<em>N</em>-Dimethyl-4-aminobenzaldehyde;Named reagents and solutions, Ehrlich's;<em>p</em>-DAB;NSC 5517",
    "duplicated_cas_no": "",
    "SMILES": "N(C)(C)C1=CC=C(C=O)C=C1",
    "meta_data": {
        "InChI": "InChI=1S/C9H11NO/c1-10(2)9-5-3-8(7-11)4-6-9/h3-7H,1-2H3",
        "InChIKey": null,
        "Canonical SMILES": "O=CC1=CC=C(C=C1)N(C)C",
        "Molecular Formula": "C<sub>9</sub>H<sub>11</sub>NO",
        "Molecular Mass": "149.19",
        "Boiling Point": "176-177 °C",
        "Melting Point": "74.5 °C"
    }
}