{
    "cas_no": "78-43-3",
    "key_name": "Tris(2,3-dichloropropyl) phosphate",
    "cn_name": "磷酸三(2,3-二氯丙基)酯;2,3-二氯-1-丙醇磷酸酯;",
    "alternate_name": "1-Propanol, 2,3-dichloro-, 1,1′,1′′-phosphate;1-Propanol, 2,3-dichloro-, phosphate (3:1);Celluflex FR 2;Fyrol 32B;Tris(2,3-dichloropropyl) phosphate;Tris(2,3-dichloro-<em>n</em>-propyl) phosphate;Tri(2,3-dichloropropyl) phosphate",
    "duplicated_cas_no": "",
    "SMILES": "P(OCC(CCl)Cl)(OCC(CCl)Cl)(OCC(CCl)Cl)=O",
    "meta_data": {
        "InChI": "InChI=1S/C9H15Cl6O4P/c10-1-7(13)4-17-20(16,18-5-8(14)2-11)19-6-9(15)3-12/h7-9H,1-6H2",
        "InChIKey": null,
        "Canonical SMILES": "O=P(OCC(Cl)CCl)(OCC(Cl)CCl)OCC(Cl)CCl",
        "Molecular Formula": "C<sub>9</sub>H<sub>15</sub>Cl<sub>6</sub>O<sub>4</sub>P",
        "Molecular Mass": "430.90",
        "Boiling Point": "191-193 °C @ Press: 0.1 Torr",
        "Density": "1.5197 g/cm³ @ Temp: 22 °C"
    }
}