{
    "cas_no": "1004294-80-7",
    "key_name": "2,3-Dihydro-6-(4,4,5,5-tetramethyl-1,3,2-dioxaborolan-2-yl)-1<em>H</em>-isoindol-1-one",
    "cn_name": null,
    "alternate_name": "1<em>H</em>-Isoindol-1-one, 2,3-dihydro-6-(4,4,5,5-tetramethyl-1,3,2-dioxaborolan-2-yl)-;2,3-Dihydro-6-(4,4,5,5-tetramethyl-1,3,2-dioxaborolan-2-yl)-1<em>H</em>-isoindol-1-one;6-(4,4,5,5-Tetramethyl-1,3,2-dioxaborolan-2-yl)isoindolin-1-one",
    "duplicated_cas_no": "",
    "SMILES": "CC1(C)OB(C=2C=C3C(=CC2)CNC3=O)OC1(C)C",
    "meta_data": {
        "InChI": "InChI=1S/C14H18BNO3/c1-13(2)14(3,4)19-15(18-13)10-6-5-9-8-16-12(17)11(9)7-10/h5-7H,8H2,1-4H3,(H,16,17)",
        "InChIKey": null,
        "Canonical SMILES": "O=C1NCC2=CC=C(C=C12)B3OC(C)(C)C(O3)(C)C",
        "Molecular Formula": "C<sub>14</sub>H<sub>18</sub>BNO<sub>3</sub>",
        "Molecular Mass": "259.11",
        "Melting Point": "&gt;250 °C"
    }
}