{
    "cas_no": "443922-06-3",
    "key_name": "4,4′,4′′-(1,3,5-Triazine-2,4,6-triyl)tris[benzaldehyde]",
    "cn_name": null,
    "alternate_name": "Benzaldehyde, 4,4′,4′′-(1,3,5-triazine-2,4,6-triyl)tris-;4,4′,4′′-(1,3,5-Triazine-2,4,6-triyl)tris[benzaldehyde];1,3,5-Tris(4-formylphenyl)triazine;2,4,6-Tris(4-formylphenyl)-1,3,5-triazine",
    "duplicated_cas_no": "",
    "SMILES": "C(=O)C1=CC=C(C=2N=C(N=C(N2)C3=CC=C(C=O)C=C3)C4=CC=C(C=O)C=C4)C=C1",
    "meta_data": {
        "InChI": "InChI=1S/C24H15N3O3/c28-13-16-1-7-19(8-2-16)22-25-23(20-9-3-17(14-29)4-10-20)27-24(26-22)21-11-5-18(15-30)6-12-21/h1-15H",
        "InChIKey": null,
        "Canonical SMILES": "O=CC=1C=CC(=CC1)C=2N=C(N=C(N2)C=3C=CC(C=O)=CC3)C=4C=CC(C=O)=CC4",
        "Molecular Formula": "C<sub>24</sub>H<sub>15</sub>N<sub>3</sub>O<sub>3</sub>",
        "Molecular Mass": "393.39",
        "Melting Point": "&gt;300 °C"
    }
}