{
    "cas_no": "101973-77-7",
    "key_name": "α-[(Acetylthio)methyl]-4-methyl-γ-oxobenzenebutanoic acid",
    "cn_name": null,
    "alternate_name": "Benzenebutanoic acid, α-[(acetylthio)methyl]-4-methyl-γ-oxo-;α-[(Acetylthio)methyl]-4-methyl-γ-oxobenzenebutanoic acid;KE 298;Esonarimod;2-Acetylthiomethyl-3-(4-methylbenzoyl)propionic acid",
    "duplicated_cas_no": "",
    "SMILES": "C(CC(CSC(C)=O)C(O)=O)(=O)C1=CC=C(C)C=C1",
    "meta_data": {
        "InChI": "InChI=1S/C14H16O4S/c1-9-3-5-11(6-4-9)13(16)7-12(14(17)18)8-19-10(2)15/h3-6,12H,7-8H2,1-2H3,(H,17,18)",
        "InChIKey": null,
        "Canonical SMILES": "O=C(SCC(C(=O)O)CC(=O)C1=CC=C(C=C1)C)C",
        "Molecular Formula": "C<sub>14</sub>H<sub>16</sub>O<sub>4</sub>S",
        "Molecular Mass": "280.34",
        "Melting Point": "97 °C"
    }
}