{
    "cas_no": "18402-83-0",
    "key_name": "(E)-3-Nonen-2-one",
    "cn_name": null,
    "alternate_name": "3-Nonen-2-one, (3<em>E</em>)-;3-Nonen-2-one, (<em>E</em>)-;(3<em>E</em>)-3-Nonen-2-one;(<em>E</em>)-3-Nonen-2-one;<em>trans</em>-3-Nonen-2-one;(E)-3-Nonen-2-one;(3<em>E</em>)-Non-3-en-2-one",
    "duplicated_cas_no": "",
    "SMILES": "C(\\CCCCC)=C/C(C)=O",
    "meta_data": {
        "InChI": "InChI=1S/C9H16O/c1-3-4-5-6-7-8-9(2)10/h7-8H,3-6H2,1-2H3/b8-7+",
        "InChIKey": null,
        "Canonical SMILES": "O=C(C=CCCCCC)C",
        "Molecular Formula": "C<sub>9</sub>H<sub>16</sub>O",
        "Molecular Mass": "140.22",
        "Boiling Point": "92 °C @ Press: 19 Torr",
        "Melting Point": "70-75 °C"
    }
}