{
    "cas_no": "7756-94-7",
    "key_name": "1-Propene, 2-methyl-, trimer",
    "cn_name": null,
    "alternate_name": "1-Propene, 2-methyl-, trimer;Propene, 2-methyl-, trimer;Triisobutylene;Isobutene trimer;Isobutylene trimer;IP 1620R;NAS 3",
    "duplicated_cas_no": "",
    "SMILES": "C(C)(C)=C",
    "meta_data": {
        "InChI": "InChI=1S/C4H8/c1-4(2)3/h1H2,2-3H3",
        "InChIKey": null,
        "Canonical SMILES": "C=C(C)C",
        "Molecular Formula": "(C<sub>4</sub>H<sub>8</sub>)<sub>3</sub>",
        "Molecular Mass": "",
        "Boiling Point": "180 °C",
        "Melting Point": "-76 °C",
        "Density": "0.7658 g/cm³ @ Temp: 20 °C"
    }
}