{
    "cas_no": "13071-60-8",
    "key_name": "1,2-Di-<em>O</em>-hexadecylglycerol",
    "cn_name": null,
    "alternate_name": "1-Propanol, 2,3-bis(hexadecyloxy)-;1-Propanol, 2,3-bis(hexadecyloxy)-, (±)-;2,3-Bis(hexadecyloxy)-1-propanol;<em>rac</em>-1,2-Dihexadecylglycerol;1,2-Di-<em>O</em>-hexadecylglycerol;2,3-Dihexadecoxypropan-1-ol",
    "duplicated_cas_no": "6076-35-3",
    "SMILES": "C(COCCCCCCCCCCCCCCCC)(OCCCCCCCCCCCCCCCC)CO",
    "meta_data": {
        "InChI": "InChI=1S/C35H72O3/c1-3-5-7-9-11-13-15-17-19-21-23-25-27-29-31-37-34-35(33-36)38-32-30-28-26-24-22-20-18-16-14-12-10-8-6-4-2/h35-36H,3-34H2,1-2H3",
        "InChIKey": null,
        "Canonical SMILES": "OCC(OCCCCCCCCCCCCCCCC)COCCCCCCCCCCCCCCCC",
        "Molecular Formula": "C<sub>35</sub>H<sub>72</sub>O<sub>3</sub>",
        "Molecular Mass": "540.94",
        "Melting Point": "54 °C"
    }
}