{
    "cas_no": "62949-93-3",
    "key_name": "2-(2,4-Dihydroxyphenyl)-5-hydroxy-3-(3-hydroxy-3-methylbutyl)-8,8-dimethyl-4<em>H</em>,8<em>H</em>-benzo[1,2-<em>b</em>:3,4-<em>b</em>′]dipyran-4-one",
    "cn_name": null,
    "alternate_name": "4<em>H</em>,8<em>H</em>-Benzo[1,2-<em>b</em>:3,4-<em>b</em>′]dipyran-4-one, 2-(2,4-dihydroxyphenyl)-5-hydroxy-3-(3-hydroxy-3-methylbutyl)-8,8-dimethyl-;2-(2,4-Dihydroxyphenyl)-5-hydroxy-3-(3-hydroxy-3-methylbutyl)-8,8-dimethyl-4<em>H</em>,8<em>H</em>-benzo[1,2-<em>b</em>:3,4-<em>b</em>′]dipyran-4-one;Morusinol;Oxydihydromorusin;2-(2,4-Dihydroxyphenyl)-5-hydroxy-3-(3-hydroxy-3-methylbutyl)-8,8-dimethylpyrano[2,3-<em>h</em>]chromen-4-one",
    "duplicated_cas_no": "",
    "SMILES": "O=C1C2=C(C3=C(C=C2O)OC(C)(C)C=C3)OC(=C1CCC(C)(C)O)C4=C(O)C=C(O)C=C4",
    "meta_data": {
        "InChI": "InChI=1S/C25H26O7/c1-24(2,30)9-7-16-21(29)20-18(28)12-19-15(8-10-25(3,4)32-19)23(20)31-22(16)14-6-5-13(26)11-17(14)27/h5-6,8,10-12,26-28,30H,7,9H2,1-4H3",
        "InChIKey": null,
        "Canonical SMILES": "O=C1C2=C(O)C=C3OC(C=CC3=C2OC(C=4C=CC(O)=CC4O)=C1CCC(O)(C)C)(C)C",
        "Molecular Formula": "C<sub>25</sub>H<sub>26</sub>O<sub>7</sub>",
        "Molecular Mass": "438.47",
        "Melting Point": "213-214 °C"
    }
}