{
    "cas_no": "16744-81-3",
    "key_name": "4-Methoxy-2-pyridinecarboxaldehyde",
    "cn_name": null,
    "alternate_name": "2-Pyridinecarboxaldehyde, 4-methoxy-;Picolinaldehyde, 4-methoxy-;4-Methoxy-2-pyridinecarboxaldehyde;4-Methoxypyridine-2-aldehyde;4-Methoxy-2-formylpyridine;4-Methoxypicolinaldehyde",
    "duplicated_cas_no": "",
    "SMILES": "O(C)C=1C=C(C=O)N=CC1",
    "meta_data": {
        "InChI": "InChI=1S/C7H7NO2/c1-10-7-2-3-8-6(4-7)5-9/h2-5H,1H3",
        "InChIKey": null,
        "Canonical SMILES": "O=CC1=NC=CC(OC)=C1",
        "Molecular Formula": "C<sub>7</sub>H<sub>7</sub>NO<sub>2</sub>",
        "Molecular Mass": "137.14",
        "Boiling Point": "125-130 °C @ Press: 25 Torr",
        "Melting Point": "28-30 °C"
    }
}