{
    "cas_no": "39959-59-6",
    "key_name": "4-Iodobenzylamine",
    "cn_name": null,
    "alternate_name": "Benzenemethanamine, 4-iodo-;Benzylamine, <em>p</em>-iodo-;4-Iodobenzenemethanamine;4-Iodobenzylamine;(4-Iodophenyl)methanamine",
    "duplicated_cas_no": "",
    "SMILES": "C(N)C1=CC=C(I)C=C1",
    "meta_data": {
        "InChI": "InChI=1S/C7H8IN/c8-7-3-1-6(5-9)2-4-7/h1-4H,5,9H2",
        "InChIKey": null,
        "Canonical SMILES": "IC1=CC=C(C=C1)CN",
        "Molecular Formula": "C<sub>7</sub>H<sub>8</sub>IN",
        "Molecular Mass": "233.05",
        "Boiling Point": "113-115 °C @ Press: 4 Torr",
        "Melting Point": "45 °C"
    }
}