{
    "cas_no": "4693-00-9",
    "key_name": "3,5-Dichloroisatoic anhydride",
    "cn_name": null,
    "alternate_name": "2<em>H</em>-3,1-Benzoxazine-2,4(1<em>H</em>)-dione, 6,8-dichloro-;Isatoic anhydride, 3,5-dichloro-;6,8-Dichloro-2<em>H</em>-3,1-benzoxazine-2,4(1<em>H</em>)-dione;3,5-Dichloroisatoic acid anhydride;3,5-Dichloroisatoic anhydride;6,8-Dichloro-1<em>H</em>-benzo[<em>d</em>][1,3]oxazine-2,4-dione",
    "duplicated_cas_no": "",
    "SMILES": "O=C1C=2C(NC(=O)O1)=C(Cl)C=C(Cl)C2",
    "meta_data": {
        "InChI": "InChI=1S/C8H3Cl2NO3/c9-3-1-4-6(5(10)2-3)11-8(13)14-7(4)12/h1-2H,(H,11,13)",
        "InChIKey": null,
        "Canonical SMILES": "O=C1OC(=O)C=2C=C(Cl)C=C(Cl)C2N1",
        "Molecular Formula": "C<sub>8</sub>H<sub>3</sub>Cl<sub>2</sub>NO<sub>3</sub>",
        "Molecular Mass": "232.02",
        "Melting Point": "251-253 °C"
    }
}