{
    "cas_no": "41814-78-2",
    "key_name": "Tricyclazole",
    "cn_name": "三环唑;5-甲基-1,2,4-三唑[3,4-b]苯并噻唑;",
    "alternate_name": "1,2,4-Triazolo[3,4-<em>b</em>]benzothiazole, 5-methyl-;5-Methyl-1,2,4-triazolo[3,4-<em>b</em>]benzothiazole;Tricyclazole;EL 291;Beam;Elanco 291;MTB;Sivic;Dhanteam;Baan;Gain (pesticide);Gain",
    "duplicated_cas_no": "1135442-75-9",
    "SMILES": "CC1=C2N3C(SC2=CC=C1)=NN=C3",
    "meta_data": {
        "InChI": "InChI=1S/C9H7N3S/c1-6-3-2-4-7-8(6)12-5-10-11-9(12)13-7/h2-5H,1H3",
        "InChIKey": null,
        "Canonical SMILES": "N=1N=C2SC3=CC=CC(=C3N2C1)C",
        "Molecular Formula": "C<sub>9</sub>H<sub>7</sub>N<sub>3</sub>S",
        "Molecular Mass": "189.24",
        "Boiling Point": "275 °C",
        "Melting Point": "187 °C"
    }
}