{
    "cas_no": "84-51-5",
    "key_name": "2-Ethylanthraquinone",
    "cn_name": "2-乙基蒽醌;",
    "alternate_name": "9,10-Anthracenedione, 2-ethyl-;Anthraquinone, 2-ethyl-;2-Ethyl-9,10-anthracenedione;2-Ethylanthraquinone;2-Ethyl-9,10-anthraquinone;β-Ethylanthraquinone;Kayacure 2-EAQ;NSC 7216;2-EAQ;2-Ethylanthracene-9,10-dione;2-Ethyl-9,10-dihydroanthracene-9,10-dione",
    "duplicated_cas_no": "",
    "SMILES": "O=C1C=2C(C(=O)C=3C1=CC=CC3)=CC=C(CC)C2",
    "meta_data": {
        "InChI": "InChI=1S/C16H12O2/c1-2-10-7-8-13-14(9-10)16(18)12-6-4-3-5-11(12)15(13)17/h3-9H,2H2,1H3",
        "InChIKey": null,
        "Canonical SMILES": "O=C1C=2C=CC=CC2C(=O)C3=CC(=CC=C13)CC",
        "Molecular Formula": "C<sub>16</sub>H<sub>12</sub>O<sub>2</sub>",
        "Molecular Mass": "236.27",
        "Melting Point": "108-111 °C"
    }
}