{
    "cas_no": "2493-02-9",
    "key_name": "4-Bromophenyl isocyanate",
    "cn_name": "对溴苯基异氰酸酯;",
    "alternate_name": "Benzene, 1-bromo-4-isocyanato-;Isocyanic acid, <em>p</em>-bromophenyl ester;1-Bromo-4-isocyanatobenzene;<em>p</em>-Bromocarbanil;4-Bromophenyl isocyanate;<em>p</em>-Bromophenyl isocyanate;NSC 8037",
    "duplicated_cas_no": "",
    "SMILES": "N(=C=O)C1=CC=C(Br)C=C1",
    "meta_data": {
        "InChI": "InChI=1S/C7H4BrNO/c8-6-1-3-7(4-2-6)9-5-10/h1-4H",
        "InChIKey": null,
        "Canonical SMILES": "O=C=NC1=CC=C(Br)C=C1",
        "Molecular Formula": "C<sub>7</sub>H<sub>4</sub>BrNO",
        "Molecular Mass": "198.02",
        "Boiling Point": "226 °C",
        "Melting Point": "37-41 °C"
    }
}