{
    "cas_no": "760-21-4",
    "key_name": "3-Methylenepentane",
    "cn_name": "2-乙基-1-丁烯;2-乙基-1-丁烯;不对称二乙基乙烯;1,1-二乙基乙烯;2-乙-1-丁烯;",
    "alternate_name": "Pentane, 3-methylene-;1-Butene, 2-ethyl-;3-Methylenepentane;2-Ethyl-1-butene;1,1-Diethylethene;1,1-Diethylethylene;NSC 74120;3-Methylidenepentane",
    "duplicated_cas_no": "",
    "SMILES": "C(CC)(CC)=C",
    "meta_data": {
        "InChI": "InChI=1S/C6H12/c1-4-6(3)5-2/h3-5H2,1-2H3",
        "InChIKey": null,
        "Canonical SMILES": "C=C(CC)CC",
        "Molecular Formula": "C<sub>6</sub>H<sub>12</sub>",
        "Molecular Mass": "84.16",
        "Boiling Point": "64.7 °C",
        "Melting Point": "-131.5 °C",
        "Density": "1.028 g/cm³ @ Temp: 21 °C"
    }
}