{
    "cas_no": "475102-15-9",
    "key_name": "1-(1,1-Dimethylethyl) 2-borono-5-cyano-1<em>H</em>-indole-1-carboxylate",
    "cn_name": "1-Boc-5-氰基吲哚-2-硼酸;N-叔丁氧羰基-5-氰基吲哚-2-硼酸;",
    "alternate_name": "1<em>H</em>-Indole-1-carboxylic acid, 2-borono-5-cyano-, 1-(1,1-dimethylethyl) ester;1-(1,1-Dimethylethyl) 2-borono-5-cyano-1<em>H</em>-indole-1-carboxylate;[<em>N</em>-(<em>tert</em>-Butoxycarbonyl)-5-cyanoindol-2-yl]boronic acid;[1-(<em>tert</em>-Butoxycarbonyl)-5-cyanoindol-2-yl]boronic acid;(1-Boc-5-cyanoindol-2-yl)boronic acid;[5-Cyano-1-[(2-methylpropan-2-yl)oxycarbonyl]indol-2-yl]boronic acid;(1-(<em>tert</em>-Butoxycarbonyl)-5-cyano-1<em>H</em>-indol-2-yl)boronic acid",
    "duplicated_cas_no": "",
    "SMILES": "C(OC(C)(C)C)(=O)N1C=2C(C=C1B(O)O)=CC(C#N)=CC2",
    "meta_data": {
        "InChI": "InChI=1S/C14H15BN2O4/c1-14(2,3)21-13(18)17-11-5-4-9(8-16)6-10(11)7-12(17)15(19)20/h4-7,19-20H,1-3H3",
        "InChIKey": null,
        "Canonical SMILES": "N#CC=1C=CC2=C(C1)C=C(B(O)O)N2C(=O)OC(C)(C)C",
        "Molecular Formula": "C<sub>14</sub>H<sub>15</sub>BN<sub>2</sub>O<sub>4</sub>",
        "Molecular Mass": "286.09",
        "Melting Point": "245-248 °C"
    }
}