{
    "cas_no": "10025-78-2",
    "key_name": "Trichlorosilane",
    "cn_name": "三氯硅烷;三氯氢硅;",
    "alternate_name": "Silane, trichloro-;Trichlorosilane;Silicochloroform;Trichloromonosilane;Trichlorosilane (HSiCl<sub>3</sub>);Silicon chloride hydride (SiHCl<sub>3</sub>);Trichlorosilane (SiHCl<sub>3</sub>);Silicon chloride hydride (SiCl<sub>3</sub>H);Hydrotrichlorosilane",
    "duplicated_cas_no": "",
    "SMILES": "[SiH](Cl)(Cl)Cl",
    "meta_data": {
        "InChI": "InChI=1S/Cl3HSi/c1-4(2)3/h4H",
        "InChIKey": null,
        "Canonical SMILES": "Cl[SiH](Cl)Cl",
        "Molecular Formula": "Cl<sub>3</sub>HSi",
        "Molecular Mass": "135.45",
        "Boiling Point": "31.8 °C",
        "Melting Point": "-126.5 °C",
        "Density": "1.3830 g/cm³ @ Temp: 0 °C"
    }
}