{
    "cas_no": "542-02-9",
    "key_name": "Acetoguanamine",
    "cn_name": "甲基胍胺;2,4-二氨基-6-甲基-1,3,5-三嗪;",
    "alternate_name": "1,3,5-Triazine-2,4-diamine, 6-methyl-;<em>s</em>-Triazine, 2,4-diamino-6-methyl-;6-Methyl-1,3,5-triazine-2,4-diamine;Acetoguanamine;2,4-Diamino-6-methyl-<em>s</em>-triazine;ENT 50715;2,4-Diamino-6-methyl-1,3,5-triazine;2-Methyl-4,6-diamino-<em>s</em>-triazine;2,6-Diamino-4-methyl-<em>s</em>-triazine;NSC 257;6-Methylguanamine;6-Methyl-2,4-diamino-1,3,5-triazine;2-Methyl-4,6-diamino-1,3,5-triazine",
    "duplicated_cas_no": "",
    "SMILES": "CC=1N=C(N)N=C(N)N1",
    "meta_data": {
        "InChI": "InChI=1S/C4H7N5/c1-2-7-3(5)9-4(6)8-2/h1H3,(H4,5,6,7,8,9)",
        "InChIKey": null,
        "Canonical SMILES": "N=1C(=NC(=NC1N)C)N",
        "Molecular Formula": "C<sub>4</sub>H<sub>7</sub>N<sub>5</sub>",
        "Molecular Mass": "125.13",
        "Melting Point": "263 °C"
    }
}