{
    "cas_no": "63610-08-2",
    "key_name": "Indobufen",
    "cn_name": "吲哚布芬;4-(1,3-二氢-1-氧代-(2H)-异吲哚-2-基)-alpha-乙基苯乙酸;",
    "alternate_name": "Benzeneacetic acid, 4-(1,3-dihydro-1-oxo-2<em>H</em>-isoindol-2-yl)-α-ethyl-;Benzeneacetic acid, 4-(1,3-dihydro-1-oxo-2<em>H</em>-isoindol-2-yl)-α-ethyl-, (±)-;4-(1,3-Dihydro-1-oxo-2<em>H</em>-isoindol-2-yl)-α-ethylbenzeneacetic acid;Indobufen;Ibustrin;1-Oxo-2-[<em>p</em>-[(α-ethyl)carboxymethyl]phenyl]isoindoline;K 3920;K 2930;2-[<em>p</em>-(1-Oxo-2-isoindolinyl)phenyl]butyric acid;2-(4-(1-Oxoisoindolin-2-yl)phenyl)butanoic acid",
    "duplicated_cas_no": "36690-96-7",
    "SMILES": "O=C1N(CC=2C1=CC=CC2)C3=CC=C(C(C(O)=O)CC)C=C3",
    "meta_data": {
        "InChI": "InChI=1S/C18H17NO3/c1-2-15(18(21)22)12-7-9-14(10-8-12)19-11-13-5-3-4-6-16(13)17(19)20/h3-10,15H,2,11H2,1H3,(H,21,22)",
        "InChIKey": null,
        "Canonical SMILES": "O=C(O)C(C1=CC=C(C=C1)N2C(=O)C=3C=CC=CC3C2)CC",
        "Molecular Formula": "C<sub>18</sub>H<sub>17</sub>NO<sub>3</sub>",
        "Molecular Mass": "295.33",
        "Melting Point": "183 °C"
    }
}