{
    "cas_no": "482577-59-3",
    "key_name": "<em>N</em>-[(2′-Cyano[1,1′-biphenyl]-4-yl)methyl]-<span class=\"text-smallcaps\">L</span>-valine methyl ester hydrochloride (1:1)",
    "cn_name": null,
    "alternate_name": "<span class=\"text-smallcaps\">L</span>-Valine, <em>N</em>-[(2′-cyano[1,1′-biphenyl]-4-yl)methyl]-, methyl ester, hydrochloride (1:1);<span class=\"text-smallcaps\">L</span>-Valine, <em>N</em>-[(2′-cyano[1,1′-biphenyl]-4-yl)methyl]-, methyl ester, monohydrochloride;<em>N</em>-[(2′-Cyano[1,1′-biphenyl]-4-yl)methyl]-<span class=\"text-smallcaps\">L</span>-valine methyl ester hydrochloride (1:1);(<em>S</em>)-Methyl 2-(((2′-cyano-[1,1′-biphenyl]-4-yl)methyl)amino)-3-methylbutanoate hydrochloride;<em>N</em>-[2′-Cyanobiphenyl-4-yl-methyl](<span class=\"text-smallcaps\">L</span>)-valine methyl ester hydrochloride",
    "duplicated_cas_no": "",
    "SMILES": "C(#N)C1=C(C=CC=C1)C2=CC=C(CN[C@H](C(OC)=O)C(C)C)C=C2.Cl",
    "meta_data": {
        "InChI": "InChI=1S/C20H22N2O2.ClH/c1-14(2)19(20(23)24-3)22-13-15-8-10-16(11-9-15)18-7-5-4-6-17(18)12-21;/h4-11,14,19,22H,13H2,1-3H3;1H/t19-;/m0./s1",
        "InChIKey": null,
        "Canonical SMILES": "Cl.N#CC=1C=CC=CC1C=2C=CC(=CC2)CNC(C(=O)OC)C(C)C",
        "Molecular Formula": "C<sub>20</sub>H<sub>22</sub>N<sub>2</sub>O<sub>2</sub>.ClH",
        "Molecular Mass": "",
        "Melting Point": "186 °C"
    }
}