{
    "cas_no": "1117-97-1",
    "key_name": "<em>N</em>,<em>O</em>-Dimethylhydroxylamine",
    "cn_name": null,
    "alternate_name": "Methanamine, <em>N</em>-methoxy-;Methylamine, <em>N</em>-methoxy-;<em>N</em>-Methoxymethanamine;Hydroxylamine, <em>N</em>,<em>O</em>-dimethyl-;Methoxyamine, <em>N</em>-methyl-;<em>N</em>-Methoxy-<em>N</em>-methylamine;<em>N</em>,<em>O</em>-Dimethylhydroxylamine;<em>O</em>,<em>N</em>-Dimethylhydroxylamine;Methoxymethylamine;<em>N</em>-Methoxymethylamine;Methylmethoxyamine;<em>N</em>-Methylmethoxyamine;(Methoxyamino)methane",
    "duplicated_cas_no": "",
    "SMILES": "N(OC)C",
    "meta_data": {
        "InChI": "InChI=1S/C2H7NO/c1-3-4-2/h3H,1-2H3",
        "InChIKey": null,
        "Canonical SMILES": "O(NC)C",
        "Molecular Formula": "C<sub>2</sub>H<sub>7</sub>NO",
        "Molecular Mass": "61.08",
        "Boiling Point": "42.3 °C @ Press: 760 Torr",
        "Melting Point": "-97.0 °C"
    }
}