{
    "cas_no": "122-85-0",
    "key_name": "4-Acetamidobenzaldehyde",
    "cn_name": "对乙酰氨基苯甲醛;",
    "alternate_name": "Acetamide, <em>N</em>-(4-formylphenyl)-;Acetanilide, 4′-formyl-;<em>N</em>-(4-Formylphenyl)acetamide;<em>p</em>-Acetamidobenzaldehyde;4-Acetamidobenzaldehyde;4′-Formylacetanilide;<em>p</em>-Formylacetanilide;Micotiazone;<em>p</em>-(Acetylamino)benzaldehyde;4-(Acetylamino)benzaldehyde;NSC 1701;NSC 1774",
    "duplicated_cas_no": "51870-20-3",
    "SMILES": "N(C(C)=O)C1=CC=C(C=O)C=C1",
    "meta_data": {
        "InChI": "InChI=1S/C9H9NO2/c1-7(12)10-9-4-2-8(6-11)3-5-9/h2-6H,1H3,(H,10,12)",
        "InChIKey": null,
        "Canonical SMILES": "O=CC1=CC=C(C=C1)NC(=O)C",
        "Molecular Formula": "C<sub>9</sub>H<sub>9</sub>NO<sub>2</sub>",
        "Molecular Mass": "163.17",
        "Melting Point": "157 °C"
    }
}