{
    "cas_no": "2550-27-8",
    "key_name": "3-Methyl-4-phenyl-2-butanone",
    "cn_name": "3-甲基-4-苯基-2-丁酮;",
    "alternate_name": "2-Butanone, 3-methyl-4-phenyl-;3-Methyl-4-phenyl-2-butanone",
    "duplicated_cas_no": "94942-91-3",
    "SMILES": "C(C(C(C)=O)C)C1=CC=CC=C1",
    "meta_data": {
        "InChI": "InChI=1S/C11H14O/c1-9(10(2)12)8-11-6-4-3-5-7-11/h3-7,9H,8H2,1-2H3",
        "InChIKey": null,
        "Canonical SMILES": "O=C(C)C(C)CC=1C=CC=CC1",
        "Molecular Formula": "C<sub>11</sub>H<sub>14</sub>O",
        "Molecular Mass": "162.23",
        "Boiling Point": "118-120 °C @ Press: 14 Torr",
        "Melting Point": "104-105 °C",
        "Density": "0.974 g/cm³ @ Temp: 18 °C"
    }
}