{
    "cas_no": "145-94-8",
    "key_name": "7-Chloro-2,3-dihydro-1<em>H</em>-inden-4-ol",
    "cn_name": "4-氯-7-羟基氢化茚;4-氯-7-羟基氢化茚;",
    "alternate_name": "1<em>H</em>-Inden-4-ol, 7-chloro-2,3-dihydro-;4-Indanol, 7-chloro-;7-Chloro-2,3-dihydro-1<em>H</em>-inden-4-ol;7-Chloro-4-indanol;Clorindanol;Lanesta;Chlorindanol;NSC 158565",
    "duplicated_cas_no": "",
    "SMILES": "ClC1=C2C(=C(O)C=C1)CCC2",
    "meta_data": {
        "InChI": "InChI=1S/C9H9ClO/c10-8-4-5-9(11)7-3-1-2-6(7)8/h4-5,11H,1-3H2",
        "InChIKey": null,
        "Canonical SMILES": "ClC1=CC=C(O)C2=C1CCC2",
        "Molecular Formula": "C<sub>9</sub>H<sub>9</sub>ClO",
        "Molecular Mass": "168.62",
        "Melting Point": "91-93 °C"
    }
}