{
    "cas_no": "5445-73-8",
    "key_name": "Pyrimidine, 1,4,5,6-tetrahydro-2-(methylthio)-, hydriodide (1:1)",
    "cn_name": null,
    "alternate_name": "Pyrimidine, 1,4,5,6-tetrahydro-2-(methylthio)-, hydriodide (1:1);Pyrimidine, 1,4,5,6-tetrahydro-2-(methylthio)-, monohydriodide;2-(Methylthio)-1,4,5,6-tetrahydropyrimidine hydroiodide;1,4,5,6-Tetrahydro-2-(methylthio)pyrimidine hydriodide;2-Methylthio-3,4,5,6-tetrahydropyrimidine hydroiodide;2-(Methylsulfanyl)-3,4,5,6-tetrahydropyrimidinium iodide;2-(Methylsulfanyl)-1,4,5,6-tetrahydropyrimidine hydroiodide",
    "duplicated_cas_no": "108409-40-1;51389-10-7",
    "SMILES": "S(C)C=1NCCCN1.I",
    "meta_data": {
        "InChI": "InChI=1S/C5H10N2S.HI/c1-8-5-6-3-2-4-7-5;/h2-4H2,1H3,(H,6,7);1H",
        "InChIKey": null,
        "Canonical SMILES": "I.N1=C(SC)NCCC1",
        "Molecular Formula": "C<sub>5</sub>H<sub>10</sub>N<sub>2</sub>S.HI",
        "Molecular Mass": "",
        "Melting Point": "149-149.5 °C"
    }
}