{
    "cas_no": "13114-87-9",
    "key_name": "(3-Trifluoromethylphenyl)urea",
    "cn_name": null,
    "alternate_name": "Urea, <em>N</em>-[3-(trifluoromethyl)phenyl]-;Urea, (α,α,α-trifluoro-<em>m</em>-tolyl)-;Urea, [3-(trifluoromethyl)phenyl]-;<em>N</em>-[3-(Trifluoromethyl)phenyl]urea;3-(α,α,α-Trifluoro-<em>m</em>-tolyl)urea;<em>N</em>-(3-Trifluoromethylphenyl)urea;(3-Trifluoromethylphenyl)urea;Didemethylfluometuron;[<em>m</em>-(Trifluoromethyl)phenyl]urea;NSC 136288;1-(3-(Trifluoromethyl)phenyl)urea",
    "duplicated_cas_no": "",
    "SMILES": "N(C(N)=O)C1=CC(C(F)(F)F)=CC=C1",
    "meta_data": {
        "InChI": "InChI=1S/C8H7F3N2O/c9-8(10,11)5-2-1-3-6(4-5)13-7(12)14/h1-4H,(H3,12,13,14)",
        "InChIKey": null,
        "Canonical SMILES": "O=C(N)NC1=CC=CC(=C1)C(F)(F)F",
        "Molecular Formula": "C<sub>8</sub>H<sub>7</sub>F<sub>3</sub>N<sub>2</sub>O",
        "Molecular Mass": "204.15",
        "Melting Point": "105 °C"
    }
}