{
    "cas_no": "70476-82-3",
    "key_name": "Mitoxantrone hydrochloride",
    "cn_name": "盐酸米托蒽醌;1,4-二羟基-5,8-双[[2-[(2-羟基乙基)氨基]乙基]氨基]-9,10-蒽醌二盐酸盐;",
    "alternate_name": "9,10-Anthracenedione, 1,4-dihydroxy-5,8-bis[[2-[(2-hydroxyethyl)amino]ethyl]amino]-, hydrochloride (1:2);9,10-Anthracenedione, 1,4-dihydroxy-5,8-bis[[2-[(2-hydroxyethyl)amino]ethyl]amino]-, dihydrochloride;CL 232315;Mitoxantrone hydrochloride;NSC 301739;DHAD;Novantrone;Mitoxantrone dihydrochloride;Bisantrone;Novatrone;Immunex;NCI 301739;Novantron;Mitoxantrone HCl;PW 3405",
    "duplicated_cas_no": "",
    "SMILES": "N(CCNCCO)C1=C2C(=C(NCCNCCO)C=C1)C(=O)C=3C(C2=O)=C(O)C=CC3O.Cl",
    "meta_data": {
        "InChI": "InChI=1S/C22H28N4O6.2ClH/c27-11-9-23-5-7-25-13-1-2-14(26-8-6-24-10-12-28)18-17(13)21(31)19-15(29)3-4-16(30)20(19)22(18)32;;/h1-4,23-30H,5-12H2;2*1H",
        "InChIKey": null,
        "Canonical SMILES": "Cl.O=C1C=2C(O)=CC=C(O)C2C(=O)C=3C(=CC=C(NCCNCCO)C13)NCCNCCO",
        "Molecular Formula": "C<sub>22</sub>H<sub>28</sub>N<sub>4</sub>O<sub>6</sub>.2ClH",
        "Molecular Mass": "",
        "Melting Point": "204 °C"
    }
}