{
    "cas_no": "13532-94-0",
    "key_name": "2-Butoxyethyl methacrylate",
    "cn_name": "2-甲基-2-丙烯酸-2-丁氧基乙酯;",
    "alternate_name": "2-Propenoic acid, 2-methyl-, 2-butoxyethyl ester;Methacrylic acid, 2-butoxyethyl ester;2-Butoxyethyl methacrylate;2-Butoxyethyl 2-methyl-2-propenoate;Light Ester BO;2-<em>n</em>-Butoxyethyl methacrylate;NSC 35170;2-Butoxyethyl metharylate;Butylmonoglycol (meth)acrylate",
    "duplicated_cas_no": "",
    "SMILES": "O(C(C(C)=C)=O)CCOCCCC",
    "meta_data": {
        "InChI": "InChI=1S/C10H18O3/c1-4-5-6-12-7-8-13-10(11)9(2)3/h2,4-8H2,1,3H3",
        "InChIKey": null,
        "Canonical SMILES": "O=C(OCCOCCCC)C(=C)C",
        "Molecular Formula": "C<sub>10</sub>H<sub>18</sub>O<sub>3</sub>",
        "Molecular Mass": "186.25",
        "Boiling Point": "122 °C @ Press: 12 Torr"
    }
}