{
    "cas_no": "42757-55-1",
    "key_name": "Tetrabromobisphenol S bis(2,3-dibromopropyl ether)",
    "cn_name": "四溴双酚S双(2,3-二溴丙基)醚;双[3,5-二溴-4-(2,3-二溴丙氧基)]苯砜;八溴S醚;",
    "alternate_name": "Benzene, 1,1′-sulfonylbis[3,5-dibromo-4-(2,3-dibromopropoxy)-;1,1′-Sulfonylbis[3,5-dibromo-4-(2,3-dibromopropoxy)benzene];Bis[3,5-dibromo-4-(2,3-dibromopropoxy)phenyl] sulfone;Nonnen PR 2;4,4′-Bis(2,3-dibromopropoxy)-3,3′,5,5′-tetrabromodiphenyl sulfone;PR 2;Flame Cut 161R;Tetrabromobisphenol S bis(2,3-dibromopropyl ether);Nonnen 52;Fire Cut P 65CN;Nonnen PR 2H;XZ 6600;1,3-Dibromo-5-[3,5-dibromo-4-(2,3-dibromopropoxy)phenyl]sulfonyl-2-(2,3-dibromopropoxy)benzene;FCP 65CN;DXFR 920;Greatbay XZ 6600",
    "duplicated_cas_no": "74900-09-7;2199458-54-1",
    "SMILES": "S(=O)(=O)(C1=CC(Br)=C(OCC(CBr)Br)C(Br)=C1)C2=CC(Br)=C(OCC(CBr)Br)C(Br)=C2",
    "meta_data": {
        "InChI": "InChI=1S/C18H14Br8O4S/c19-5-9(21)7-29-17-13(23)1-11(2-14(17)24)31(27,28)12-3-15(25)18(16(26)4-12)30-8-10(22)6-20/h1-4,9-10H,5-8H2",
        "InChIKey": null,
        "Canonical SMILES": "O=S(=O)(C1=CC(Br)=C(OCC(Br)CBr)C(Br)=C1)C2=CC(Br)=C(OCC(Br)CBr)C(Br)=C2",
        "Molecular Formula": "C<sub>18</sub>H<sub>14</sub>Br<sub>8</sub>O<sub>4</sub>S",
        "Molecular Mass": "965.60",
        "Melting Point": "125 °C"
    }
}