{
    "cas_no": "52671-64-4",
    "key_name": "4-Amino-3-chlorophenol hydrochloride",
    "cn_name": "4-氨基-3-氯苯酚盐酸盐;",
    "alternate_name": "Phenol, 4-amino-3-chloro-, hydrochloride (1:1);Phenol, 4-amino-3-chloro-, hydrochloride;3-Chloro-4-aminophenol hydrochloride;2-Chloro-4-hydroxyaniline hydrochloride;4-Amino-3-chlorophenol hydrochloride",
    "duplicated_cas_no": "",
    "SMILES": "ClC1=C(N)C=CC(O)=C1.Cl",
    "meta_data": {
        "InChI": "InChI=1S/C6H6ClNO.ClH/c7-5-3-4(9)1-2-6(5)8;/h1-3,9H,8H2;1H",
        "InChIKey": null,
        "Canonical SMILES": "Cl.ClC1=CC(O)=CC=C1N",
        "Molecular Formula": "C<sub>6</sub>H<sub>6</sub>ClNO.ClH",
        "Molecular Mass": "",
        "Melting Point": "234 °C"
    }
}