{
    "cas_no": "13365-26-9",
    "key_name": "1,2-Benzenedicarboxylic acid, 3-nitro-, 1,2-dimethyl ester",
    "cn_name": "3-硝基-邻苯二甲酯;3-硝基邻苯二甲酸二甲酯;",
    "alternate_name": "1,2-Benzenedicarboxylic acid, 3-nitro-, 1,2-dimethyl ester;Phthalic acid, 3-nitro-, dimethyl ester;1,2-Benzenedicarboxylic acid, 3-nitro-, dimethyl ester;Dimethyl 3-nitrophthalate;Methyl 2-(methoxycarbonyl)-3-nitrobenzoate;NSC 68806;1,2-Dimethyl 3-nitrobenzene-1,2-dicarboxylate",
    "duplicated_cas_no": "",
    "SMILES": "C(OC)(=O)C1=C(C(OC)=O)C=CC=C1N(=O)=O",
    "meta_data": {
        "InChI": "InChI=1S/C10H9NO6/c1-16-9(12)6-4-3-5-7(11(14)15)8(6)10(13)17-2/h3-5H,1-2H3",
        "InChIKey": null,
        "Canonical SMILES": "O=C(OC)C1=CC=CC(=C1C(=O)OC)N(=O)=O",
        "Molecular Formula": "C<sub>10</sub>H<sub>9</sub>NO<sub>6</sub>",
        "Molecular Mass": "239.18",
        "Melting Point": "67-69 °C"
    }
}