{
    "cas_no": "14173-30-9",
    "key_name": "2-Pyridinemethanol, 3-hydroxy-, hydrochloride (1:1)",
    "cn_name": "3-羟基-2-羟甲基吡啶盐酸盐;",
    "alternate_name": "2-Pyridinemethanol, 3-hydroxy-, hydrochloride (1:1);2-Pyridinemethanol, 3-hydroxy-, hydrochloride;2-(Hydroxymethyl)-3-hydroxypyridine hydrochloride;3-Hydroxy-2-pyridinemethanol hydrochloride;3-Hydroxy-2-(hydroxymethyl)pyridine hydrochloride;2-(Hydroxymethyl)pyridin-3-ol hydrochloride",
    "duplicated_cas_no": "",
    "SMILES": "C(O)C1=C(O)C=CC=N1.Cl",
    "meta_data": {
        "InChI": "InChI=1S/C6H7NO2.ClH/c8-4-5-6(9)2-1-3-7-5;/h1-3,8-9H,4H2;1H",
        "InChIKey": null,
        "Canonical SMILES": "Cl.OC1=CC=CN=C1CO",
        "Molecular Formula": "C<sub>6</sub>H<sub>7</sub>NO<sub>2</sub>.ClH",
        "Molecular Mass": "",
        "Melting Point": "206 °C"
    }
}