{
    "cas_no": "7216-18-4",
    "key_name": "3,4-Dihydro-2<em>H</em>-1,5-benzodioxepin",
    "cn_name": "3,4-二氢-2H-1,5-苯并二氧环丙;3,4-二氢-2H-1,5-苯并二氧杂环庚烷;",
    "alternate_name": "2<em>H</em>-1,5-Benzodioxepin, 3,4-dihydro-;3,4-Dihydro-2<em>H</em>-1,5-benzodioxepin;Pyrocatechol trimethylene ether;1,2-Trimethylenedioxybenzene;3,4-Dihydro-2<em>H</em>-benzo[<em>b</em>][1,4]dioxepine;3,4-Dihydro-2<em>H</em>-1,5-benzodioxepine",
    "duplicated_cas_no": "",
    "SMILES": "C=12C(=CC=CC1)OCCCO2",
    "meta_data": {
        "InChI": "InChI=1S/C9H10O2/c1-2-5-9-8(4-1)10-6-3-7-11-9/h1-2,4-5H,3,6-7H2",
        "InChIKey": null,
        "Canonical SMILES": "O1C=2C=CC=CC2OCCC1",
        "Molecular Formula": "C<sub>9</sub>H<sub>10</sub>O<sub>2</sub>",
        "Molecular Mass": "150.17",
        "Boiling Point": "110-114 °C @ Press: 18 Torr",
        "Melting Point": "14-15 °C",
        "Density": "1.103 g/cm³ @ Temp: 20 °C"
    }
}