{
    "cas_no": "79307-93-0",
    "key_name": "Azelastine hydrochloride",
    "cn_name": null,
    "alternate_name": "1(2<em>H</em>)-Phthalazinone, 4-[(4-chlorophenyl)methyl]-2-(hexahydro-1-methyl-1<em>H</em>-azepin-4-yl)-, hydrochloride (1:1);1(2<em>H</em>)-Phthalazinone, 4-[(4-chlorophenyl)methyl]-2-(hexahydro-1-methyl-1<em>H</em>-azepin-4-yl)-, monohydrochloride;Azelastine hydrochloride;A 5610;Azeptin;E 0659;Allergodil;Astelin;Rhinolast;W 2979M;Optivar;Astepro;Zalastine;Azelast;A 7611;Prestw 1130",
    "duplicated_cas_no": "",
    "SMILES": "C(C=1C=2C(C(=O)N(N1)C3CCCN(C)CC3)=CC=CC2)C4=CC=C(Cl)C=C4.Cl",
    "meta_data": {
        "InChI": "InChI=1S/C22H24ClN3O.ClH/c1-25-13-4-5-18(12-14-25)26-22(27)20-7-3-2-6-19(20)21(24-26)15-16-8-10-17(23)11-9-16;/h2-3,6-11,18H,4-5,12-15H2,1H3;1H",
        "InChIKey": null,
        "Canonical SMILES": "Cl.O=C1C=2C=CC=CC2C(=NN1C3CCN(C)CCC3)CC4=CC=C(Cl)C=C4",
        "Molecular Formula": "C<sub>22</sub>H<sub>24</sub>ClN<sub>3</sub>O.ClH",
        "Molecular Mass": "",
        "Melting Point": "225-229 °C"
    }
}