{
    "cas_no": "203854-54-0",
    "key_name": "(2<em>S</em>)-2-(Aminomethyl)-3-methylbutanoic acid",
    "cn_name": null,
    "alternate_name": "Butanoic acid, 2-(aminomethyl)-3-methyl-, (2<em>S</em>)-;Butanoic acid, 2-(aminomethyl)-3-methyl-, (<em>S</em>)-;(2<em>S</em>)-2-(Aminomethyl)-3-methylbutanoic acid;(<em>S</em>)-2-Aminomethyl-3-methylbutanoic acid;(+)-2-Aminomethyl-3-methylbutanoic acid",
    "duplicated_cas_no": "",
    "SMILES": "[C@@H](C(C)C)(C(O)=O)CN",
    "meta_data": {
        "InChI": "InChI=1S/C6H13NO2/c1-4(2)5(3-7)6(8)9/h4-5H,3,7H2,1-2H3,(H,8,9)/t5-/m1/s1",
        "InChIKey": null,
        "Canonical SMILES": "O=C(O)C(CN)C(C)C",
        "Molecular Formula": "C<sub>6</sub>H<sub>13</sub>NO<sub>2</sub>",
        "Molecular Mass": "131.17",
        "Melting Point": "238-239 °C"
    }
}