{
    "cas_no": "14267-92-6",
    "key_name": "5-Chloro-1-pentyne",
    "cn_name": "5-氯戊炔;",
    "alternate_name": "1-Pentyne, 5-chloro-;5-Chloro-1-pentyne;1-Chloro-4-pentyne;4-Pentynyl chloride;(3-Chloropropyl)acetylene",
    "duplicated_cas_no": "",
    "SMILES": "C(CCCl)C#C",
    "meta_data": {
        "InChI": "InChI=1S/C5H7Cl/c1-2-3-4-5-6/h1H,3-5H2",
        "InChIKey": null,
        "Canonical SMILES": "ClCCCC#C",
        "Molecular Formula": "C<sub>5</sub>H<sub>7</sub>Cl",
        "Molecular Mass": "102.56",
        "Boiling Point": "88 °C @ Press: 350 Torr",
        "Density": "0.9695 g/cm³ @ Temp: 420 °C"
    }
}