{
    "cas_no": "4973-29-9",
    "key_name": "4-Phenoxystyrene",
    "cn_name": "对苯氧基苯乙烯;",
    "alternate_name": "Benzene, 1-ethenyl-4-phenoxy-;Ether, phenyl <em>p</em>-vinylphenyl;1-Ethenyl-4-phenoxybenzene;(4-Vinylphenoxy)benzene;4-Vinyldiphenyl ether;4-Phenoxystyrene;<em>p</em>-Phenoxyphenylethylene;<em>p</em>-Phenoxystyrene;4-Phenoxyphenylethylene;NSC 158435;1-Phenoxy-4-vinylbenzene",
    "duplicated_cas_no": "",
    "SMILES": "O(C1=CC=C(C=C)C=C1)C2=CC=CC=C2",
    "meta_data": {
        "InChI": "InChI=1S/C14H12O/c1-2-12-8-10-14(11-9-12)15-13-6-4-3-5-7-13/h2-11H,1H2",
        "InChIKey": null,
        "Canonical SMILES": "O(C=1C=CC=CC1)C2=CC=C(C=C)C=C2",
        "Molecular Formula": "C<sub>14</sub>H<sub>12</sub>O",
        "Molecular Mass": "196.24",
        "Boiling Point": "110-112 °C @ Press: 1 Torr",
        "Density": "1.060 g/cm³ @ Temp: 20 °C"
    }
}