{
    "cas_no": "7775-41-9",
    "key_name": "Silver fluoride",
    "cn_name": "氟化银;",
    "alternate_name": "Silver fluoride (AgF);Argentous fluoride;Silver(I) fluoride;Silver monofluoride;Silver fluoride;Silver(1+) fluoride",
    "duplicated_cas_no": "1147709-34-9",
    "SMILES": "[Ag]F",
    "meta_data": {
        "InChI": "InChI=1S/Ag.FH/h;1H/q+1;/p-1",
        "InChIKey": null,
        "Canonical SMILES": "F[Ag]",
        "Molecular Formula": "AgF",
        "Molecular Mass": "",
        "Boiling Point": "~1150 °C (approx)",
        "Melting Point": "435 °C",
        "Density": "5.852 g/cm³"
    }
}