{
    "cas_no": "7341-24-4",
    "key_name": "2-Methylbenzenemethanethiol",
    "cn_name": null,
    "alternate_name": "Benzenemethanethiol, 2-methyl-;Methanethiol, <em>o</em>-tolyl-;2-Methylbenzenemethanethiol;<em>o</em>-Xylene-α-thiol;2-Methylbenzyl mercaptan;2-Methyltoluene-α-thiol;<em>o</em>-Methylbenzyl mercaptan;<em>o</em>-Tolylmethyl mercaptan;NSC 148323;<em>o</em>-Tolylmethanethiol;(2-Methylphenyl)methanethiol",
    "duplicated_cas_no": "",
    "SMILES": "C(S)C1=C(C)C=CC=C1",
    "meta_data": {
        "InChI": "InChI=1S/C8H10S/c1-7-4-2-3-5-8(7)6-9/h2-5,9H,6H2,1H3",
        "InChIKey": null,
        "Canonical SMILES": "SCC=1C=CC=CC1C",
        "Molecular Formula": "C<sub>8</sub>H<sub>10</sub>S",
        "Molecular Mass": "138.23",
        "Boiling Point": "86 °C @ Press: 0.3 Torr",
        "Density": "1.057 g/cm³ @ Temp: 22.5 °C"
    }
}