{
    "cas_no": "682-01-9",
    "key_name": "Tetrapropoxysilane",
    "cn_name": null,
    "alternate_name": "Silicic acid (H<sub>4</sub>SiO<sub>4</sub>), tetrapropyl ester;Propyl silicate ((PrO)<sub>4</sub>Si);Propyl silicate;Propyl orthosilicate;Silane, tetrapropoxy-;Tetrapropyl orthosilicate;Tetrapropoxysilane;Tetra-<em>n</em>-propoxysilane;Tetrapropyl silicate;Silicon tetrapropoxide;Silicon orthopropoxide;Dynasil P;N-POS;Tetra-<em>n</em>-propyl silicate;Tetra-<em>n</em>-propyl orthosilicate;SIT 7777.0;Tetrapropoxy orthosilicate;Dynasylan P",
    "duplicated_cas_no": "",
    "SMILES": "[Si](OCCC)(OCCC)(OCCC)OCCC",
    "meta_data": {
        "InChI": "InChI=1S/C12H28O4Si/c1-5-9-13-17(14-10-6-2,15-11-7-3)16-12-8-4/h5-12H2,1-4H3",
        "InChIKey": null,
        "Canonical SMILES": "O(CCC)[Si](OCCC)(OCCC)OCCC",
        "Molecular Formula": "C<sub>12</sub>H<sub>28</sub>O<sub>4</sub>Si",
        "Molecular Mass": "264.43",
        "Boiling Point": "226 °C",
        "Melting Point": "&lt;-80 °C",
        "Density": "0.915 g/cm³"
    }
}