{
    "cas_no": "1484-84-0",
    "key_name": "2-Piperidineethanol",
    "cn_name": "2-哌啶乙醇;2-(2-羟乙基)哌啶;",
    "alternate_name": "2-Piperidineethanol;2-(2-Hydroxyethyl)piperidine;2-(2-Piperidinyl)ethanol;(±)-2-Piperidineethanol;NSC 9261;2-Piperidine-2-yl-ethanol;2-(Piperidin-2-yl)ethan-1-ol;2-(2-Piperidyl)ethan-1-ol",
    "duplicated_cas_no": "103729-19-7",
    "SMILES": "C(CO)C1CCCCN1",
    "meta_data": {
        "InChI": "InChI=1S/C7H15NO/c9-6-4-7-3-1-2-5-8-7/h7-9H,1-6H2",
        "InChIKey": null,
        "Canonical SMILES": "OCCC1NCCCC1",
        "Molecular Formula": "C<sub>7</sub>H<sub>15</sub>NO",
        "Molecular Mass": "129.20",
        "Boiling Point": "202 °C",
        "Melting Point": "69 °C",
        "Density": "1.0106 g/cm³ @ Temp: 25 °C"
    }
}