{
    "cas_no": "591-87-7",
    "key_name": "Allyl acetate",
    "cn_name": "乙酸烯丙酯;",
    "alternate_name": "Acetic acid, 2-propen-1-yl ester;Acetic acid, allyl ester;Acetic acid, 2-propenyl ester;Allyl alcohol, acetate;Allyl acetate;3-Acetoxypropene;3-Acetoxy-1-propene;2-Propen-1-ol acetate;NSC 7612",
    "duplicated_cas_no": "",
    "SMILES": "O(C(C)=O)CC=C",
    "meta_data": {
        "InChI": "InChI=1S/C5H8O2/c1-3-4-7-5(2)6/h3H,1,4H2,2H3",
        "InChIKey": null,
        "Canonical SMILES": "O=C(OCC=C)C",
        "Molecular Formula": "C<sub>5</sub>H<sub>8</sub>O<sub>2</sub>",
        "Molecular Mass": "100.12",
        "Boiling Point": "103.5 °C",
        "Density": "0.9275 g/cm³ @ Temp: 20 °C"
    }
}