{
    "cas_no": "2150-41-6",
    "key_name": "Benzoic acid, 2,4-dimethoxy-, methyl ester",
    "cn_name": "2,4-二甲氧基苯酸甲酯;",
    "alternate_name": "Benzoic acid, 2,4-dimethoxy-, methyl ester;Methyl 2,4-dimethoxybenzoate;2,4-Dimethoxybenzoic acid methyl ester;NSC 49277",
    "duplicated_cas_no": "",
    "SMILES": "C(OC)(=O)C1=C(OC)C=C(OC)C=C1",
    "meta_data": {
        "InChI": "InChI=1S/C10H12O4/c1-12-7-4-5-8(10(11)14-3)9(6-7)13-2/h4-6H,1-3H3",
        "InChIKey": null,
        "Canonical SMILES": "O=C(OC)C1=CC=C(OC)C=C1OC",
        "Molecular Formula": "C<sub>10</sub>H<sub>12</sub>O<sub>4</sub>",
        "Molecular Mass": "196.20",
        "Boiling Point": "293-296 °C",
        "Melting Point": "48-49 °C"
    }
}