{
    "cas_no": "16004-15-2",
    "key_name": "4-Iodobenzyl bromide",
    "cn_name": null,
    "alternate_name": "Benzene, 1-(bromomethyl)-4-iodo-;Toluene, α-bromo-<em>p</em>-iodo-;1-(Bromomethyl)-4-iodobenzene;<em>p</em>-Iodobenzyl bromide;4-Iodobenzyl bromide;α-Bromo-<em>p</em>-iodotoluene",
    "duplicated_cas_no": "",
    "SMILES": "C(Br)C1=CC=C(I)C=C1",
    "meta_data": {
        "InChI": "InChI=1S/C7H6BrI/c8-5-6-1-3-7(9)4-2-6/h1-4H,5H2",
        "InChIKey": null,
        "Canonical SMILES": "BrCC1=CC=C(I)C=C1",
        "Molecular Formula": "C<sub>7</sub>H<sub>6</sub>BrI",
        "Molecular Mass": "296.93",
        "Boiling Point": "200-205 °C @ Press: 4 Torr",
        "Melting Point": "77-78.5 °C"
    }
}