{
    "cas_no": "53583-79-2",
    "key_name": "(±)-Sultopride",
    "cn_name": "舒托必利;",
    "alternate_name": "Benzamide, <em>N</em>-[(1-ethyl-2-pyrrolidinyl)methyl]-5-(ethylsulfonyl)-2-methoxy-;<em>N</em>-[(1-Ethyl-2-pyrrolidinyl)methyl]-5-(ethylsulfonyl)-2-methoxybenzamide;Sultopride;LIN 1418;Barnetil;(±)-Sultopride",
    "duplicated_cas_no": "74488-18-9;942650-31-9",
    "SMILES": "C(NCC1N(CC)CCC1)(=O)C2=C(OC)C=CC(S(CC)(=O)=O)=C2",
    "meta_data": {
        "InChI": "InChI=1S/C17H26N2O4S/c1-4-19-10-6-7-13(19)12-18-17(20)15-11-14(24(21,22)5-2)8-9-16(15)23-3/h8-9,11,13H,4-7,10,12H2,1-3H3,(H,18,20)",
        "InChIKey": null,
        "Canonical SMILES": "O=C(NCC1N(CC)CCC1)C2=CC(=CC=C2OC)S(=O)(=O)CC",
        "Molecular Formula": "C<sub>17</sub>H<sub>26</sub>N<sub>2</sub>O<sub>4</sub>S",
        "Molecular Mass": "354.46",
        "Melting Point": "181-182 °C"
    }
}