{
    "cas_no": "636-95-3",
    "key_name": "Hydrazine, (3-nitrophenyl)-, hydrochloride (1:1)",
    "cn_name": "3-硝基苯肼盐酸盐;",
    "alternate_name": "Hydrazine, (3-nitrophenyl)-, hydrochloride (1:1);Hydrazine, (<em>m</em>-nitrophenyl)-, hydrochloride;Hydrazine, (3-nitrophenyl)-, monohydrochloride;<em>m</em>-Nitrophenylhydrazine hydrochloride;3-Nitrophenylhydrazine monohydrochloride;(3-Nitrophenyl)hydrazine hydrochloride;1-(3-Nitrophenyl)hydrazine hydrochloride",
    "duplicated_cas_no": "",
    "SMILES": "N(=O)(=O)C1=CC(NN)=CC=C1.Cl",
    "meta_data": {
        "InChI": "InChI=1S/C6H7N3O2.ClH/c7-8-5-2-1-3-6(4-5)9(10)11;/h1-4,8H,7H2;1H",
        "InChIKey": null,
        "Canonical SMILES": "Cl.O=N(=O)C=1C=CC=C(C1)NN",
        "Molecular Formula": "C<sub>6</sub>H<sub>7</sub>N<sub>3</sub>O<sub>2</sub>.ClH",
        "Molecular Mass": "",
        "Melting Point": "208-210 °C"
    }
}