{
    "cas_no": "542-75-6",
    "key_name": "1,3-Dichloropropene",
    "cn_name": "1,3-二氯丙烯;",
    "alternate_name": "1-Propene, 1,3-dichloro-;Propene, 1,3-dichloro-;1,3-Dichloro-1-propene;1,3-Dichloropropene;α,γ-Dichloropropylene;1,3-Dichloropropylene;γ-Chloroallyl chloride;Telone;1,3-D;1,3-Dichloro-2-propene;3-Chloropropenyl chloride;3-Chloroallyl chloride;Telone II;Telone II-B;DD 95;D-D 92;Telone 92;NSC 6202;Dorlane II;Telone EC",
    "duplicated_cas_no": "8022-76-2;68525-58-6",
    "SMILES": "C(CCl)=CCl",
    "meta_data": {
        "InChI": "InChI=1S/C3H4Cl2/c4-2-1-3-5/h1-2H,3H2",
        "InChIKey": null,
        "Canonical SMILES": "ClC=CCCl",
        "Molecular Formula": "C<sub>3</sub>H<sub>4</sub>Cl<sub>2</sub>",
        "Molecular Mass": "110.97",
        "Boiling Point": "108 °C",
        "Melting Point": "&lt;-50 °C",
        "Density": "1.220 g/cm³ @ Temp: 25 °C"
    }
}