{
    "cas_no": "13138-45-9",
    "key_name": "Nickel nitrate",
    "cn_name": "硝酸镍(无水);硝酸镍;",
    "alternate_name": "Nitric acid, nickel(2+) salt (2:1);Nitric acid, nickel(2+) salt;Nickel nitrate;Nickelous nitrate;Nickel nitrate (Ni(NO<sub>3</sub>)<sub>2</sub>);Nickel(II) nitrate;Nickel dinitrate;Nickel(2+) nitrate;Nickel bis(nitrate)",
    "duplicated_cas_no": "16699-63-1;2768521-07-7;2952711-55-4;3030961-94-2",
    "SMILES": "N(=O)(=O)O.[Ni]",
    "meta_data": {
        "InChI": "InChI=1S/HNO3.Ni/c2-1(3)4;/h(H,2,3,4);",
        "InChIKey": null,
        "Canonical SMILES": "[Ni].O=N(=O)O",
        "Molecular Formula": "HNO<sub>3</sub>.<sup>1</sup>/<sub>2</sub>Ni",
        "Molecular Mass": "",
        "Melting Point": "105-110 °C (decomp)",
        "Density": "2.05 g/cm³"
    }
}