{
    "cas_no": "5327-32-2",
    "key_name": "<em>N</em>-(4-Methyl-2-pyridinyl)acetamide",
    "cn_name": "2-(乙酰氨基)-4-甲基吡啶;N-(4-甲基-2-吡啶基)乙酰胺;",
    "alternate_name": "Acetamide, <em>N</em>-(4-methyl-2-pyridinyl)-;Acetamide, <em>N</em>-(4-methyl-2-pyridyl)-;4-Picoline, 2-acetamido-;<em>N</em>-(4-Methyl-2-pyridinyl)acetamide;2-Acetamido-4-methylpyridine;2-(Acetylamino)-4-methylpyridine;<em>N</em>-[4-Methylpyridyl]acetamide;<em>N</em>-(4-Methylpyridin-2-yl)acetamide;NSC 3314;2-Acetamido-4-picoline",
    "duplicated_cas_no": "",
    "SMILES": "N(C(C)=O)C1=CC(C)=CC=N1",
    "meta_data": {
        "InChI": "InChI=1S/C8H10N2O/c1-6-3-4-9-8(5-6)10-7(2)11/h3-5H,1-2H3,(H,9,10,11)",
        "InChIKey": null,
        "Canonical SMILES": "O=C(NC1=NC=CC(=C1)C)C",
        "Molecular Formula": "C<sub>8</sub>H<sub>10</sub>N<sub>2</sub>O",
        "Molecular Mass": "150.18",
        "Melting Point": "102-103 °C"
    }
}