{
    "cas_no": "1145-93-3",
    "key_name": "Diethyl <em>P</em>-[(4-methoxyphenyl)methyl]phosphonate",
    "cn_name": "4-甲氧基苯基磷酸二乙酯;",
    "alternate_name": "Phosphonic acid, <em>P</em>-[(4-methoxyphenyl)methyl]-, diethyl ester;Phosphonic acid, (<em>p</em>-methoxybenzyl)-, diethyl ester;Phosphonic acid, [(4-methoxyphenyl)methyl]-, diethyl ester;Diethyl <em>P</em>-[(4-methoxyphenyl)methyl]phosphonate;Diethyl (<em>p</em>-methoxybenzyl)phosphonate;Diethyl (4-methoxybenzyl)phosphonate;Diethyl 4-methoxybenzylphosphanate;1-(Diethoxyphosphorylmethyl)-4-methoxybenzene",
    "duplicated_cas_no": "220873-76-7;1262485-63-1",
    "SMILES": "C(P(OCC)(OCC)=O)C1=CC=C(OC)C=C1",
    "meta_data": {
        "InChI": "InChI=1S/C12H19O4P/c1-4-15-17(13,16-5-2)10-11-6-8-12(14-3)9-7-11/h6-9H,4-5,10H2,1-3H3",
        "InChIKey": null,
        "Canonical SMILES": "O=P(OCC)(OCC)CC1=CC=C(OC)C=C1",
        "Molecular Formula": "C<sub>12</sub>H<sub>19</sub>O<sub>4</sub>P",
        "Molecular Mass": "258.25",
        "Boiling Point": "143 °C @ Press: 1 Torr",
        "Melting Point": "90 °C",
        "Density": "1.1363 g/cm³"
    }
}