{
    "cas_no": "91-94-1",
    "key_name": "3,3′-Dichlorobenzidine",
    "cn_name": "3,3\"-二氯联苯胺;3,3\"-二氯联苯-4,4\"-二胺;",
    "alternate_name": "[1,1′-Biphenyl]-4,4′-diamine, 3,3′-dichloro-;Benzidine, 3,3′-dichloro-;3,3′-Dichloro[1,1′-biphenyl]-4,4′-diamine;C.I. 23060;<em>o</em>,<em>o</em>′-Dichlorobenzidine;3,3′-Dichlorobenzidine;3,3′-Dichlorobiphenyl-4,4′-diamine;3,3′-Dichloro-4,4′-diaminobiphenyl;Curithane C 126;4,4′-Diamino-3,3′-dichlorodiphenyl;4,4′-Diamino-3,3′-dichlorobiphenyl;4′-Amino-3,3′-dichloro[1,1′-biphenyl]-4-ylamine;3,3′-Dichloro-<em>p</em>,<em>p</em>′-bianiline;NSC 154073;4,4′-Bis(2-chloroaniline);MeSH ID: D015101",
    "duplicated_cas_no": "",
    "SMILES": "ClC=1C=C(C=CC1N)C2=CC(Cl)=C(N)C=C2",
    "meta_data": {
        "InChI": "InChI=1S/C12H10Cl2N2/c13-9-5-7(1-3-11(9)15)8-2-4-12(16)10(14)6-8/h1-6H,15-16H2",
        "InChIKey": null,
        "Canonical SMILES": "ClC=1C=C(C=CC1N)C2=CC=C(N)C(Cl)=C2",
        "Molecular Formula": "C<sub>12</sub>H<sub>10</sub>Cl<sub>2</sub>N<sub>2</sub>",
        "Molecular Mass": "253.13",
        "Boiling Point": "402 °C",
        "Melting Point": "132-133 °C"
    }
}