{
    "cas_no": "2691-41-0",
    "key_name": "Octogen",
    "cn_name": null,
    "alternate_name": "1,3,5,7-Tetrazocine, octahydro-1,3,5,7-tetranitro-;Octahydro-1,3,5,7-tetranitro-1,3,5,7-tetrazocine;Cyclotetramethylenetetranitramine;HMX;β-HMX;γ-Octahydro-1,3,5,7-tetranitro-1,3,5,7-tetraazocine;Octogen;1,3,5,7-Tetranitro-1,3,5,7-tetraazacyclooctane;Tetramethylenetetranitramine;Octahydro-1,3,5,7-tetranitro-<em>s</em>-tetrazocine;Oktogen;LX 14-0;HW 4;Homocyclonite;1,3,5,7-Tetranitro-1,3,5,7-tetrazocane;HMX 2;PBXK-C 1203;IRX 21;SW 21;JO 9159;PBXN 9;PBXW 11;PBXC 121;PBXC 126;PBXC 129;ORA 86B;Rowanex 2000;PBXW 128;PBXN 110;PBXW 113;PBXN 101;PBXN 5;JO-X;Renowex 1001;Rowanex 3000;LX 14;Okfol;Oktoflen;Octagen;PBXN 112;EDC 24;PBXC 119;1,3,5,7-Tetranitroperhydro-1,3,5,7-tetrazocine;OF 8;JO 11C",
    "duplicated_cas_no": "97956-01-9;121631-13-8;141615-54-5;5222-46-8;66038-26-4;66745-90-2",
    "SMILES": "N(=O)(=O)N1CN(N(=O)=O)CN(N(=O)=O)CN(N(=O)=O)C1",
    "meta_data": {
        "InChI": "InChI=1S/C4H8N8O8/c13-9(14)5-1-6(10(15)16)3-8(12(19)20)4-7(2-5)11(17)18/h1-4H2",
        "InChIKey": null,
        "Canonical SMILES": "O=N(=O)N1CN(N(=O)=O)CN(N(=O)=O)CN(N(=O)=O)C1",
        "Molecular Formula": "C<sub>4</sub>H<sub>8</sub>N<sub>8</sub>O<sub>8</sub>",
        "Molecular Mass": "296.16",
        "Melting Point": "278 °C",
        "Density": "1.78 g/cm³"
    }
}