{
    "cas_no": "6764-10-9",
    "key_name": "1-[(4-Chlorophenyl)thio]-2-nitrobenzene",
    "cn_name": null,
    "alternate_name": "Benzene, 1-[(4-chlorophenyl)thio]-2-nitro-;Sulfide, <em>p</em>-chlorophenyl <em>o</em>-nitrophenyl;1-[(4-Chlorophenyl)thio]-2-nitrobenzene;2-Nitro-4′-chlorodiphenyl sulfide;NSC 633007;(4-Chlorophenyl)(2-nitrophenyl)sulfane",
    "duplicated_cas_no": "",
    "SMILES": "S(C1=C(N(=O)=O)C=CC=C1)C2=CC=C(Cl)C=C2",
    "meta_data": {
        "InChI": "InChI=1S/C12H8ClNO2S/c13-9-5-7-10(8-6-9)17-12-4-2-1-3-11(12)14(15)16/h1-8H",
        "InChIKey": null,
        "Canonical SMILES": "O=N(=O)C=1C=CC=CC1SC2=CC=C(Cl)C=C2",
        "Molecular Formula": "C<sub>12</sub>H<sub>8</sub>ClNO<sub>2</sub>S",
        "Molecular Mass": "265.72",
        "Melting Point": "94 °C"
    }
}