{
    "cas_no": "87-08-1",
    "key_name": "Penicillin V",
    "cn_name": "青霉素V;",
    "alternate_name": "4-Thia-1-azabicyclo[3.2.0]heptane-2-carboxylic acid, 3,3-dimethyl-7-oxo-6-[(2-phenoxyacetyl)amino]-, (2<em>S</em>,5<em>R</em>,6<em>R</em>)-;4-Thia-1-azabicyclo[3.2.0]heptane-2-carboxylic acid, 3,3-dimethyl-7-oxo-6-(2-phenoxyacetamido)-;4-Thia-1-azabicyclo[3.2.0]heptane-2-carboxylic acid, 3,3-dimethyl-7-oxo-6-[(phenoxyacetyl)amino]-, [2<em>S</em>-(2α,5α,6β)]-;4-Thia-1-azabicyclo[3.2.0]heptane-2-carboxylic acid, 3,3-dimethyl-7-oxo-6-[(phenoxyacetyl)amino]-, (2<em>S</em>,5<em>R</em>,6<em>R</em>)-;(2<em>S</em>,5<em>R</em>,6<em>R</em>)-3,3-Dimethyl-7-oxo-6-[(2-phenoxyacetyl)amino]-4-thia-1-azabicyclo[3.2.0]heptane-2-carboxylic acid;Calcipen;V-Cil;V-Cillin;Distaquaine V;Eskacillin V;Fenacilin;Meropenin;Oracillin;Oratren;Ospen;Penicillin, phenoxymethyl-;Penicillin V;Pen-Oral;Pen-vee-oral;Phenopenicillin;Phenospen;6-(Phenoxyacetamido)penicillanic acid;Phenoxymethylpenicillin;Phenoxymethylpenicillinic acid;Vebecillin;Acipen-V;Orocillin;Pen-Vee;Stabicillin;Phenocillin;Oracilline;V-Cyline;V-Cylina;V-Tablopen;Crystapen V;MeSH ID: D010404",
    "duplicated_cas_no": "6153-23-7;11031-07-5",
    "SMILES": "C(O)(=O)[C@@H]1N2[C@@]([C@H](NC(COC3=CC=CC=C3)=O)C2=O)(SC1(C)C)[H]",
    "meta_data": {
        "InChI": "InChI=1S/C16H18N2O5S/c1-16(2)12(15(21)22)18-13(20)11(14(18)24-16)17-10(19)8-23-9-6-4-3-5-7-9/h3-7,11-12,14H,8H2,1-2H3,(H,17,19)(H,21,22)/t11-,12+,14-/m1/s1",
        "InChIKey": null,
        "Canonical SMILES": "O=C(O)C1N2C(=O)C(NC(=O)COC=3C=CC=CC3)C2SC1(C)C",
        "Molecular Formula": "C<sub>16</sub>H<sub>18</sub>N<sub>2</sub>O<sub>5</sub>S",
        "Molecular Mass": "350.39",
        "Melting Point": "148-149 °C"
    }
}