{
    "cas_no": "189628-37-3",
    "key_name": "5-Bromo-2-chlorobenzaldehyde",
    "cn_name": "5-溴-2-氯苯甲醛;",
    "alternate_name": "Benzaldehyde, 5-bromo-2-chloro-;5-Bromo-2-chlorobenzaldehyde",
    "duplicated_cas_no": "",
    "SMILES": "C(=O)C1=C(Cl)C=CC(Br)=C1",
    "meta_data": {
        "InChI": "InChI=1S/C7H4BrClO/c8-6-1-2-7(9)5(3-6)4-10/h1-4H",
        "InChIKey": null,
        "Canonical SMILES": "O=CC1=CC(Br)=CC=C1Cl",
        "Molecular Formula": "C<sub>7</sub>H<sub>4</sub>BrClO",
        "Molecular Mass": "219.46",
        "Melting Point": "43-46 °C"
    }
}