{
    "cas_no": "86361-55-9",
    "key_name": "Gnetol",
    "cn_name": null,
    "alternate_name": "1,3-Benzenediol, 2-[(1<em>E</em>)-2-(3,5-dihydroxyphenyl)ethenyl]-;1,3-Benzenediol, 2-[2-(3,5-dihydroxyphenyl)ethenyl]-, (<em>E</em>)-;2-[(1<em>E</em>)-2-(3,5-Dihydroxyphenyl)ethenyl]-1,3-benzenediol;Gnetol",
    "duplicated_cas_no": "",
    "SMILES": "C(=C/C1=C(O)C=CC=C1O)\\C2=CC(O)=CC(O)=C2",
    "meta_data": {
        "InChI": "InChI=1S/C14H12O4/c15-10-6-9(7-11(16)8-10)4-5-12-13(17)2-1-3-14(12)18/h1-8,15-18H/b5-4+",
        "InChIKey": null,
        "Canonical SMILES": "OC=1C=C(O)C=C(C=CC=2C(O)=CC=CC2O)C1",
        "Molecular Formula": "C<sub>14</sub>H<sub>12</sub>O<sub>4</sub>",
        "Molecular Mass": "244.24",
        "Melting Point": "239.7-240.3 °C"
    }
}