{
    "cas_no": "606-43-9",
    "key_name": "1-Methyl-2(1<em>H</em>)-quinolinone",
    "cn_name": "1-甲基-2-喹啉酮;",
    "alternate_name": "2(1<em>H</em>)-Quinolinone, 1-methyl-;Carbostyril, 1-methyl-;1-Methyl-2(1<em>H</em>)-quinolinone;<em>N</em>-Methylcarbostyril;1-Methyl-2(1<em>H</em>)-quinolone;1-Methylcarbostyril;<em>N</em>-Methyl-2-quinolone;1-Methyl-1,2-dihydroquinolin-2-one;NSC 5873",
    "duplicated_cas_no": "",
    "SMILES": "CN1C=2C(C=CC1=O)=CC=CC2",
    "meta_data": {
        "InChI": "InChI=1S/C10H9NO/c1-11-9-5-3-2-4-8(9)6-7-10(11)12/h2-7H,1H3",
        "InChIKey": null,
        "Canonical SMILES": "O=C1C=CC=2C=CC=CC2N1C",
        "Molecular Formula": "C<sub>10</sub>H<sub>9</sub>NO",
        "Molecular Mass": "159.18",
        "Boiling Point": "325 °C",
        "Melting Point": "74 °C"
    }
}