{
    "cas_no": "50681-25-9",
    "key_name": "4-Pyridazinecarboxylic acid",
    "cn_name": "4-哒嗪羧酸;",
    "alternate_name": "4-Pyridazinecarboxylic acid;1(2<em>H</em>)-Pyrazinecarboxylic acid;Pyrazine-4-carboxylic acid",
    "duplicated_cas_no": "1163141-15-8;1580002-28-3",
    "SMILES": "C(O)(=O)C=1C=CN=NC1",
    "meta_data": {
        "InChI": "InChI=1S/C5H4N2O2/c8-5(9)4-1-2-6-7-3-4/h1-3H,(H,8,9)",
        "InChIKey": null,
        "Canonical SMILES": "O=C(O)C=1C=NN=CC1",
        "Molecular Formula": "C<sub>5</sub>H<sub>4</sub>N<sub>2</sub>O<sub>2</sub>",
        "Molecular Mass": "124.10",
        "Melting Point": "239-240 °C"
    }
}