{
    "cas_no": "24316-19-6",
    "key_name": "Cephalotaxine",
    "cn_name": "三尖杉碱;",
    "alternate_name": "Cephalotaxine;4<em>H</em>-Cyclopenta[<em>a</em>][1,3]dioxolo[4,5-<em>h</em>]pyrrolo[2,1-<em>b</em>][3]benzazepin-1-ol, 1,5,6,8,9,14b-hexahydro-2-methoxy-, [1<em>S</em>-(1α,3a<em>S</em>*,14bβ)]-;[1<em>S</em>-(1α,3a<em>S</em>*,14bβ)]-1,5,6,8,9,14b-Hexahydro-2-methoxy-4<em>H</em>-cyclopenta[<em>a</em>][1,3]dioxolo[4,5-<em>h</em>]pyrrolo[2,1-<em>b</em>][3]benzazepin-1-ol;(-)-Cephalotaxine;NSC 128487;NSC 245454;ZINC 19795976",
    "duplicated_cas_no": "26909-63-7;30255-03-9",
    "SMILES": "O[C@H]1[C@@]2([C@@]3(N(CCC=4C2=CC5=C(C4)OCO5)CCC3)C=C1OC)[H]",
    "meta_data": {
        "InChI": "InChI=1S/C18H21NO4/c1-21-15-9-18-4-2-5-19(18)6-3-11-7-13-14(23-10-22-13)8-12(11)16(18)17(15)20/h7-9,16-17,20H,2-6,10H2,1H3/t16-,17-,18+/m1/s1",
        "InChIKey": null,
        "Canonical SMILES": "OC1C(OC)=CC23N(CCC4=CC=5OCOC5C=C4C12)CCC3",
        "Molecular Formula": "C<sub>18</sub>H<sub>21</sub>NO<sub>4</sub>",
        "Molecular Mass": "315.36",
        "Melting Point": "131-132 °C"
    }
}