{
    "cas_no": "5219-65-8",
    "key_name": "3-(Phenylthio)propanoic acid",
    "cn_name": null,
    "alternate_name": "Propanoic acid, 3-(phenylthio)-;Propionic acid, 3-(phenylthio)-;3-(Phenylthio)propanoic acid;3-(Phenylthio)propionic acid;4-Phenyl-4-thiabutanoic acid;NSC 14777;NSC 8542;3-(Phenylsulfanyl)propanoic acid",
    "duplicated_cas_no": "",
    "SMILES": "S(CCC(O)=O)C1=CC=CC=C1",
    "meta_data": {
        "InChI": "InChI=1S/C9H10O2S/c10-9(11)6-7-12-8-4-2-1-3-5-8/h1-5H,6-7H2,(H,10,11)",
        "InChIKey": null,
        "Canonical SMILES": "O=C(O)CCSC=1C=CC=CC1",
        "Molecular Formula": "C<sub>9</sub>H<sub>10</sub>O<sub>2</sub>S",
        "Molecular Mass": "182.24",
        "Boiling Point": "184 °C @ Press: 10 Torr",
        "Melting Point": "58 °C"
    }
}