{
    "cas_no": "3724-10-5",
    "key_name": "2-(Methylthio)benzoic acid",
    "cn_name": "2-(甲硫基)苯甲酸;",
    "alternate_name": "Benzoic acid, 2-(methylthio)-;Benzoic acid, <em>o</em>-(methylthio)-;Benzoic acid, <em>o</em>-methylmercapto-;2-(Methylthio)benzoic acid;<em>o</em>-(Methylthio)benzoic acid;2-Methylmercaptobenzoic acid;2-Carboxyphenyl methyl sulfide;NSC 104019;NSC 145347;NSC 151478;NSC 218090;NSC 221934;NSC 266228",
    "duplicated_cas_no": "",
    "SMILES": "S(C)C1=C(C(O)=O)C=CC=C1",
    "meta_data": {
        "InChI": "InChI=1S/C8H8O2S/c1-11-7-5-3-2-4-6(7)8(9)10/h2-5H,1H3,(H,9,10)",
        "InChIKey": null,
        "Canonical SMILES": "O=C(O)C=1C=CC=CC1SC",
        "Molecular Formula": "C<sub>8</sub>H<sub>8</sub>O<sub>2</sub>S",
        "Molecular Mass": "168.21",
        "Melting Point": "169-170 °C"
    }
}