{
    "cas_no": "86728-85-0",
    "key_name": "Butanoic acid, 4-chloro-3-hydroxy-, ethyl ester, (3<em>S</em>)-",
    "cn_name": "S(-)-4-氯-3-羟基丁酸乙酯;",
    "alternate_name": "Butanoic acid, 4-chloro-3-hydroxy-, ethyl ester, (3<em>S</em>)-;Butanoic acid, 4-chloro-3-hydroxy-, ethyl ester, (<em>S</em>)-;Ethyl (3<em>S</em>)-4-chloro-3-hydroxybutanoate;Ethyl (<em>S</em>)-γ-chloro-β-hydroxybutyrate;Ethyl (3<em>S</em>)-4-chloro-3-hydroxybutyrate;Ethyl (<em>S</em>)-4-chloro-3-hydroxybutyrate;(3<em>S</em>)-4-Chloro-3-hydroxybutyric acid ethyl ester;Ethyl (<em>S</em>)-4-chloro-3-hydroxybutanoate;(<em>S</em>)-4-Chloro-3-hydroxybutanoic acid ethyl ester;Ethyl (<em>S</em>)-(+)-4-chloro-3-hydroxybutanoate;(-)-Ethyl 4-chloro-3-hydroxybutyrate;(-)-Ethyl (<em>s</em>)-4-chloro-3-hydroxybutyrate",
    "duplicated_cas_no": "",
    "SMILES": "C(C(OCC)=O)[C@@H](CCl)O",
    "meta_data": {
        "InChI": "InChI=1S/C6H11ClO3/c1-2-10-6(9)3-5(8)4-7/h5,8H,2-4H2,1H3/t5-/m0/s1",
        "InChIKey": null,
        "Canonical SMILES": "O=C(OCC)CC(O)CCl",
        "Molecular Formula": "C<sub>6</sub>H<sub>11</sub>ClO<sub>3</sub>",
        "Molecular Mass": "166.60",
        "Boiling Point": "95 °C @ Press: 3 Torr",
        "Density": "1.0297 g/cm³ @ Temp: 25.00 °C"
    }
}