{
    "cas_no": "544-40-1",
    "key_name": "Dibutyl sulfide",
    "cn_name": "二丁基硫醚;",
    "alternate_name": "Butane, 1,1′-thiobis-;Butyl sulfide;1,1′-Thiobis[butane];<em>n</em>-Butyl sulfide;Butylthiobutane;Dibutyl sulfide;5-Thianonane;Thiononane-5;<em>n</em>-Dibutyl sulfide;Butyl monosulfide;Dibutyl thioether;Di-<em>n</em>-butyl sulfide;Di-<em>n</em>-butyl thioether;NSC 8460;1-Butylsulfanylbutane;Dibutylsulfane",
    "duplicated_cas_no": "",
    "SMILES": "S(CCCC)CCCC",
    "meta_data": {
        "InChI": "InChI=1S/C8H18S/c1-3-5-7-9-8-6-4-2/h3-8H2,1-2H3",
        "InChIKey": null,
        "Canonical SMILES": "S(CCCC)CCCC",
        "Molecular Formula": "C<sub>8</sub>H<sub>18</sub>S",
        "Molecular Mass": "146.29",
        "Boiling Point": "185 °C",
        "Melting Point": "-79.7 °C",
        "Density": "0.8334 g/cm³ @ Temp: 20 °C"
    }
}