{
    "cas_no": "40856-44-8",
    "key_name": "(-)-3-Amino-3-phenylpropanoic acid",
    "cn_name": null,
    "alternate_name": "Benzenepropanoic acid, β-amino-, (β<em>S</em>)-;Benzenepropanoic acid, β-amino-, (<em>S</em>)-;(β<em>S</em>)-β-Aminobenzenepropanoic acid;(<em>S</em>)-3-Amino-3-phenylpropionic acid;(-)-β-Aminobenzenepropanoic acid;(-)-3-Amino-3-phenylpropanoic acid;<span class=\"text-smallcaps\">D</span>-3-Amino-3-phenylpropionic acid;(<em>S</em>)-3-Amino-3-phenylpropanoic acid;(<em>S</em>)-β-Phenylalanine;(3S)-3-Amino-3-phenylpropanoic acid",
    "duplicated_cas_no": "295356-29-5",
    "SMILES": "[C@@H](CC(O)=O)(N)C1=CC=CC=C1",
    "meta_data": {
        "InChI": "InChI=1S/C9H11NO2/c10-8(6-9(11)12)7-4-2-1-3-5-7/h1-5,8H,6,10H2,(H,11,12)/t8-/m0/s1",
        "InChIKey": null,
        "Canonical SMILES": "O=C(O)CC(N)C=1C=CC=CC1",
        "Molecular Formula": "C<sub>9</sub>H<sub>11</sub>NO<sub>2</sub>",
        "Molecular Mass": "165.19",
        "Melting Point": "251-253 °C"
    }
}