{
    "cas_no": "25026-34-0",
    "key_name": "4-Chlorobenzeneacetyl chloride",
    "cn_name": "对氯苯乙酰氯;",
    "alternate_name": "Benzeneacetyl chloride, 4-chloro-;Acetyl chloride, (<em>p</em>-chlorophenyl)-;4-Chlorobenzeneacetyl chloride;(<em>p</em>-Chlorophenyl)acetyl chloride;(4-Chlorophenyl)acetyl chloride;2-(4-Chlorophenyl)acetyl chloride",
    "duplicated_cas_no": "",
    "SMILES": "C(C(Cl)=O)C1=CC=C(Cl)C=C1",
    "meta_data": {
        "InChI": "InChI=1S/C8H6Cl2O/c9-7-3-1-6(2-4-7)5-8(10)11/h1-4H,5H2",
        "InChIKey": null,
        "Canonical SMILES": "O=C(Cl)CC1=CC=C(Cl)C=C1",
        "Molecular Formula": "C<sub>8</sub>H<sub>6</sub>Cl<sub>2</sub>O",
        "Molecular Mass": "189.04",
        "Boiling Point": "115 °C @ Press: 16 Torr"
    }
}