{
    "cas_no": "1878-68-8",
    "key_name": "(4-Bromophenyl)acetic acid",
    "cn_name": "对溴苯乙酸;4-溴苯乙酸;",
    "alternate_name": "Benzeneacetic acid, 4-bromo-;Acetic acid, (<em>p</em>-bromophenyl)-;4-Bromobenzeneacetic acid;(4-Bromophenyl)acetic acid;(<em>p</em>-Bromophenyl)acetic acid;2-(4-Bromophenyl)acetic acid;NSC 14358;<em>p</em>-Bromobenzeneacetic acid",
    "duplicated_cas_no": "",
    "SMILES": "C(C(O)=O)C1=CC=C(Br)C=C1",
    "meta_data": {
        "InChI": "InChI=1S/C8H7BrO2/c9-7-3-1-6(2-4-7)5-8(10)11/h1-4H,5H2,(H,10,11)",
        "InChIKey": null,
        "Canonical SMILES": "O=C(O)CC1=CC=C(Br)C=C1",
        "Molecular Formula": "C<sub>8</sub>H<sub>7</sub>BrO<sub>2</sub>",
        "Molecular Mass": "215.04",
        "Melting Point": "116 °C"
    }
}