{
    "cas_no": "5697-56-3",
    "key_name": "Carbenoxolone",
    "cn_name": "甘珀酸;甘草次酸;",
    "alternate_name": "Olean-12-en-29-oic acid, 3-(3-carboxy-1-oxopropoxy)-11-oxo-, (3β,20β)-;Olean-12-en-30-oic acid, 3β-hydroxy-11-oxo-, hydrogen succinate;Olean-12-en-30-oic acid, 3β-hydroxy-11-oxo-, succinate;(3β,20β)-3-(3-Carboxy-1-oxopropoxy)-11-oxoolean-12-en-29-oic acid;Biogastrone;Carbenoxolone;3β-Hydroxy-11-oxoolean-12-en-30-oic acid hydrogen succinate;3-<em>O</em>-(β-Carboxypropionyl)-11-oxo-18β-olean-12-en-30-oic acid;Glycyrrhetinic acid hydrogen succinate;Glycyrrhetinic acid succinate;MeSH ID: D002229",
    "duplicated_cas_no": "13020-80-9;60093-85-8;108064-10-4;885512-34-5;906421-35-0;2268037-89-2",
    "SMILES": "C[C@]12[C@@]([C@]3(C)[C@@](CC1)(C(C)(C)[C@@H](OC(CCC(O)=O)=O)CC3)[H])(C(=O)C=C4[C@@]2(C)CC[C@]5(C)[C@]4(C[C@](C(O)=O)(C)CC5)[H])[H]",
    "meta_data": {
        "InChI": "InChI=1S/C34H50O7/c1-29(2)23-10-13-34(7)27(32(23,5)12-11-24(29)41-26(38)9-8-25(36)37)22(35)18-20-21-19-31(4,28(39)40)15-14-30(21,3)16-17-33(20,34)6/h18,21,23-24,27H,8-17,19H2,1-7H3,(H,36,37)(H,39,40)/t21-,23-,24-,27+,30+,31-,32-,33+,34+/m0/s1",
        "InChIKey": null,
        "Canonical SMILES": "O=C(O)CCC(=O)OC1CCC2(C)C3C(=O)C=C4C5CC(C(=O)O)(C)CCC5(C)CCC4(C)C3(C)CCC2C1(C)C",
        "Molecular Formula": "C<sub>34</sub>H<sub>50</sub>O<sub>7</sub>",
        "Molecular Mass": "570.76",
        "Melting Point": "292.5 °C"
    }
}