{
    "cas_no": "505084-56-0",
    "key_name": "2-Chloro-3-iodo-5-(trifluoromethyl)pyridine",
    "cn_name": null,
    "alternate_name": "Pyridine, 2-chloro-3-iodo-5-(trifluoromethyl)-;2-Chloro-3-iodo-5-(trifluoromethyl)pyridine",
    "duplicated_cas_no": "",
    "SMILES": "C(F)(F)(F)C=1C=C(I)C(Cl)=NC1",
    "meta_data": {
        "InChI": "InChI=1S/C6H2ClF3IN/c7-5-4(11)1-3(2-12-5)6(8,9)10/h1-2H",
        "InChIKey": null,
        "Canonical SMILES": "FC(F)(F)C1=CN=C(Cl)C(I)=C1",
        "Molecular Formula": "C<sub>6</sub>H<sub>2</sub>ClF<sub>3</sub>IN",
        "Molecular Mass": "307.44",
        "Boiling Point": "85-86 °C @ Press: 8 Torr",
        "Melting Point": "37-39 °C"
    }
}