{
    "cas_no": "426-79-9",
    "key_name": "Tetraphenylphosphonium tetrafluoroborate",
    "cn_name": "六氟磷酸四甲基铵;",
    "alternate_name": "Phosphonium, tetraphenyl-, tetrafluoroborate(1-) (1:1);Phosphonium, tetraphenyl-, tetrafluoroborate(1-);Tetraphenylphosphonium tetrafluoroborate;Borate(1-), tetrafluoro-, tetraphenylphosphonium;Tetraphenylphosphonium fluoborate;Tetraphenylphosphonium fluoroborate;NSC 407396",
    "duplicated_cas_no": "",
    "SMILES": "[P+](C1=CC=CC=C1)(C2=CC=CC=C2)(C3=CC=CC=C3)C4=CC=CC=C4.[B+3]([F-])([F-])([F-])[F-]",
    "meta_data": {
        "InChI": "InChI=1S/C24H20P.BF4/c1-5-13-21(14-6-1)25(22-15-7-2-8-16-22,23-17-9-3-10-18-23)24-19-11-4-12-20-24;2-1(3,4)5/h1-20H;/q+1;-1",
        "InChIKey": null,
        "Canonical SMILES": "[F-][B+3]([F-])([F-])[F-].C=1C=CC(=CC1)[P+](C=2C=CC=CC2)(C=3C=CC=CC3)C=4C=CC=CC4",
        "Molecular Formula": "C<sub>24</sub>H<sub>20</sub>P.BF<sub>4</sub>",
        "Molecular Mass": "",
        "Melting Point": "350.5 °C"
    }
}