{
    "cas_no": "1718-39-4",
    "key_name": "4-[(Aminothioxomethyl)amino]benzenesulfonamide",
    "cn_name": null,
    "alternate_name": "Benzenesulfonamide, 4-[(aminothioxomethyl)amino]-;Urea, 1-(<em>p</em>-sulfamoylphenyl)-2-thio-;4-[(Aminothioxomethyl)amino]benzenesulfonamide;(<em>p</em>-Sulfamoylphenyl)thiourea;(4-Sulfamoylphenyl)thiourea;<em>N</em>-(4-Sulfonamidophenyl)thiourea",
    "duplicated_cas_no": "",
    "SMILES": "S(N)(=O)(=O)C1=CC=C(NC(N)=S)C=C1",
    "meta_data": {
        "InChI": "InChI=1S/C7H9N3O2S2/c8-7(13)10-5-1-3-6(4-2-5)14(9,11)12/h1-4H,(H3,8,10,13)(H2,9,11,12)",
        "InChIKey": null,
        "Canonical SMILES": "O=S(=O)(N)C1=CC=C(C=C1)NC(=S)N",
        "Molecular Formula": "C<sub>7</sub>H<sub>9</sub>N<sub>3</sub>O<sub>2</sub>S<sub>2</sub>",
        "Molecular Mass": "231.30",
        "Melting Point": "209 °C"
    }
}