{
    "cas_no": "6192-52-5",
    "key_name": "p-Toluenesulfonic acid monohydrate",
    "cn_name": "对甲苯磺酸—水合物;",
    "alternate_name": "Benzenesulfonic acid, 4-methyl-, hydrate (1:1);<em>p</em>-Toluenesulfonic acid, monohydrate;Benzenesulfonic acid, 4-methyl-, monohydrate;4-Toluenesulfonic acid monohydrate;4-Methylbenzenesulfonic acid monohydrate;Tosic acid monohydrate;p-Toluenesulfonic acid monohydrate;Para-toluene sulfonic acid monohydrate",
    "duplicated_cas_no": "2585198-75-8",
    "SMILES": "S(=O)(=O)(O)C1=CC=C(C)C=C1.O",
    "meta_data": {
        "InChI": "InChI=1S/C7H8O3S.H2O/c1-6-2-4-7(5-3-6)11(8,9)10;/h2-5H,1H3,(H,8,9,10);1H2",
        "InChIKey": null,
        "Canonical SMILES": "O=S(=O)(O)C1=CC=C(C=C1)C.O",
        "Molecular Formula": "C<sub>7</sub>H<sub>8</sub>O<sub>3</sub>S.H<sub>2</sub>O",
        "Molecular Mass": "",
        "Boiling Point": "92-119 °C",
        "Melting Point": "104.8-105.5 °C"
    }
}