{
    "cas_no": "23599-69-1",
    "key_name": "(+)-Norisoboldine",
    "cn_name": null,
    "alternate_name": "4<em>H</em>-Dibenzo[<em>de</em>,<em>g</em>]quinoline-1,9-diol, 5,6,6a,7-tetrahydro-2,10-dimethoxy-, (6a<em>S</em>)-;Laurelliptine;6aα-Noraporphine-1,9-diol, 2,10-dimethoxy-;4<em>H</em>-Dibenzo[<em>de</em>,<em>g</em>]quinoline-1,9-diol, 5,6,6a,7-tetrahydro-2,10-dimethoxy-, (<em>S</em>)-;(6a<em>S</em>)-5,6,6a,7-Tetrahydro-2,10-dimethoxy-4<em>H</em>-dibenzo[<em>de</em>,<em>g</em>]quinoline-1,9-diol;Norisoboldine;(+)-<em>N</em>-Norisoboldine;(+)-Laurelliptine;(<em>S</em>)-(+)-Laurelliptine;(+)-Norisoboldine;(6AS)-2,10-dimethoxy-5,6,6a,7-tetrahydro-4<em>H</em>-dibenzo[<em>de</em>,<em>g</em>]quinoline-1,9-diol",
    "duplicated_cas_no": "1351-54-8",
    "SMILES": "OC1=C2C=3[C@](CC=4C2=CC(OC)=C(O)C4)(NCCC3C=C1OC)[H]",
    "meta_data": {
        "InChI": "InChI=1S/C18H19NO4/c1-22-14-8-11-10(6-13(14)20)5-12-16-9(3-4-19-12)7-15(23-2)18(21)17(11)16/h6-8,12,19-21H,3-5H2,1-2H3/t12-/m0/s1",
        "InChIKey": null,
        "Canonical SMILES": "OC1=CC2=C(C=C1OC)C3=C(O)C(OC)=CC4=C3C(NCC4)C2",
        "Molecular Formula": "C<sub>18</sub>H<sub>19</sub>NO<sub>4</sub>",
        "Molecular Mass": "313.35",
        "Melting Point": "191 °C"
    }
}