{
    "cas_no": "1576-43-8",
    "key_name": "4-Hydroxybenzenesulfonamide",
    "cn_name": "4-羟基苯磺酰胺;",
    "alternate_name": "Benzenesulfonamide, 4-hydroxy-;Benzenesulfonamide, <em>p</em>-hydroxy-;1-Phenol-4-sulfonamide;4-Hydroxybenzenesulfonamide;<em>p</em>-Hydroxybenzenesulfonamide;4-Sulfamoylphenol;<em>p</em>-Phenolsulfonamide;NSC 20848;4-Hydroxybenzene-1-sulfonamide",
    "duplicated_cas_no": "",
    "SMILES": "S(N)(=O)(=O)C1=CC=C(O)C=C1",
    "meta_data": {
        "InChI": "InChI=1S/C6H7NO3S/c7-11(9,10)6-3-1-5(8)2-4-6/h1-4,8H,(H2,7,9,10)",
        "InChIKey": null,
        "Canonical SMILES": "O=S(=O)(N)C1=CC=C(O)C=C1",
        "Molecular Formula": "C<sub>6</sub>H<sub>7</sub>NO<sub>3</sub>S",
        "Molecular Mass": "173.19",
        "Melting Point": "178 °C"
    }
}