{
    "cas_no": "231277-92-2",
    "key_name": "Lapatinib",
    "cn_name": "拉帕替尼;N-[3-氯-4-[(3-氟苯基)甲氧基]苯基]-6-[5-[(2-甲磺酰乙基氨基)甲基]-2-呋喃基]喹唑啉-4-胺;",
    "alternate_name": "4-Quinazolinamine, <em>N</em>-[3-chloro-4-[(3-fluorophenyl)methoxy]phenyl]-6-[5-[[[2-(methylsulfonyl)ethyl]amino]methyl]-2-furanyl]-;<em>N</em>-[3-Chloro-4-[(3-fluorophenyl)methoxy]phenyl]-6-[5-[[[2-(methylsulfonyl)ethyl]amino]methyl]-2-furanyl]-4-quinazolinamine;GW 572016;Lapatinib;4-[[3-Chloro-4-(3-fluorobenzyloxy)phenyl]amino]-6-[5-[[(2-methanesulfonylethyl)amino]methyl]furan-2-yl]quinazoline;GSK 572016;<em>N</em>-[3-Chloro-4-[(3-fluorobenzyl)oxy]phenyl]-6-[5-[[[2-(methylsulfonyl)ethyl]amino]methyl]-2-furyl]-4-quinazolinamine;GW 572016X;<em>N</em>-[3-Chloro-4-[(3-fluorobenzyl)oxy]phenyl]-6-[5-[[[2-(methanesulfonyl)ethyl]amino]methyl]-2-furyl]-4-quinazolinamine;Tyverb;<em>N</em>-[3-Chloro-4-[(3-fluorophenyl)methoxy]phenyl]-6-[5-[(2-methylsulfonylethylamino)methyl]furan-2-yl]quinazolin-4-amine;<em>N</em>-[4-(3-Fluorobenzyloxy)-3-chlorophenyl]-6-[5-[[2-(methylsulfonyl)ethylamino]methyl]furan-2-yl]quinazolin-4-amine;GD 2016;Tycerb",
    "duplicated_cas_no": "",
    "SMILES": "N(C=1C2=C(C=CC(=C2)C=3OC(CNCCS(C)(=O)=O)=CC3)N=CN1)C4=CC(Cl)=C(OCC5=CC(F)=CC=C5)C=C4",
    "meta_data": {
        "InChI": "InChI=1S/C29H26ClFN4O4S/c1-40(36,37)12-11-32-16-23-7-10-27(39-23)20-5-8-26-24(14-20)29(34-18-33-26)35-22-6-9-28(25(30)15-22)38-17-19-3-2-4-21(31)13-19/h2-10,13-15,18,32H,11-12,16-17H2,1H3,(H,33,34,35)",
        "InChIKey": null,
        "Canonical SMILES": "O=S(=O)(C)CCNCC=1OC(=CC1)C=2C=CC3=NC=NC(NC4=CC=C(OCC=5C=CC=C(F)C5)C(Cl)=C4)=C3C2",
        "Molecular Formula": "C<sub>29</sub>H<sub>26</sub>ClFN<sub>4</sub>O<sub>4</sub>S",
        "Molecular Mass": "581.06",
        "Melting Point": "95-98 °C"
    }
}