{
    "cas_no": "114-80-7",
    "key_name": "Neostigmine bromide",
    "cn_name": "溴化新斯的明;溴化N,N,N-三甲基-2-[(二甲氨基)甲酰氧基]苯铵;",
    "alternate_name": "Benzenaminium, 3-[[(dimethylamino)carbonyl]oxy]-<em>N</em>,<em>N</em>,<em>N</em>-trimethyl-, bromide (1:1);Neostigmine bromide;Ammonium, (<em>m</em>-hydroxyphenyl)trimethyl-, bromide, dimethylcarbamate;Benzenaminium, 3-[[(dimethylamino)carbonyl]oxy]-<em>N</em>,<em>N</em>,<em>N</em>-trimethyl-, bromide;(<em>m</em>-Hydroxyphenyl)trimethylammonium bromide, dimethylcarbamate;Carbamic acid, dimethyl-, ester with (<em>m</em>-hydroxyphenyl)trimethylammonium bromide;Eustigmin bromide;Kirkstigmine bromide;Neoeserine bromide;Philostigmin bromide;Prostigmin bromide;Prostigmine bromide;Stigmanol bromide;Stigmosan bromide;Syntostigmin bromide;Vagostigmine bromide;Syntostigmin (tablet);(3-Dimethylcarbamoyloxyphenyl)trimethylammonium bromide;Neoesserin;Amostigmine",
    "duplicated_cas_no": "",
    "SMILES": "O(C(N(C)C)=O)C1=CC([N+](C)(C)C)=CC=C1.[Br-]",
    "meta_data": {
        "InChI": "InChI=1S/C12H19N2O2.BrH/c1-13(2)12(15)16-11-8-6-7-10(9-11)14(3,4)5;/h6-9H,1-5H3;1H/q+1;/p-1",
        "InChIKey": null,
        "Canonical SMILES": "[Br-].O=C(OC1=CC=CC(=C1)[N+](C)(C)C)N(C)C",
        "Molecular Formula": "C<sub>12</sub>H<sub>19</sub>N<sub>2</sub>O<sub>2</sub>.Br",
        "Molecular Mass": "",
        "Melting Point": "167 °C (decomp)"
    }
}