{
    "cas_no": "1073-70-7",
    "key_name": "Hydrazine, (4-chlorophenyl)-, hydrochloride (1:1)",
    "cn_name": "对氯苯肼盐酸盐;4-氯苯肼盐酸盐;",
    "alternate_name": "Hydrazine, (4-chlorophenyl)-, hydrochloride (1:1);Hydrazine, (<em>p</em>-chlorophenyl)-, monohydrochloride;Hydrazine, (4-chlorophenyl)-, monohydrochloride;<em>p</em>-Chlorophenylhydrazine monohydrochloride;4-Chlorophenylhydrazine monohydrochloride;4-Chlorophenylhydrazine hydrochloride;<em>p</em>-Chlorophenylhydrazine hydrochloride;2-(4-Chlorophenyl)hydrazinium chloride",
    "duplicated_cas_no": "",
    "SMILES": "N(N)C1=CC=C(Cl)C=C1.Cl",
    "meta_data": {
        "InChI": "InChI=1S/C6H7ClN2.ClH/c7-5-1-3-6(9-8)4-2-5;/h1-4,9H,8H2;1H",
        "InChIKey": null,
        "Canonical SMILES": "Cl.ClC1=CC=C(C=C1)NN",
        "Molecular Formula": "C<sub>6</sub>H<sub>7</sub>ClN<sub>2</sub>.ClH",
        "Molecular Mass": "",
        "Melting Point": "78-79 °C"
    }
}