{
    "cas_no": "1818-71-9",
    "key_name": "Isoguanosine",
    "cn_name": "异鸟苷;异鸟苷;",
    "alternate_name": "Adenosine, 2,3-dihydro-2-oxo-;Isoguanosine;Adenosine, 1,2-dihydro-2-oxo-;9<em>H</em>-Purin-2-ol, 6-amino-9-Β-<span class=\"text-smallcaps\">D</span>-ribofuranosyl-;2,3-Dihydro-2-oxoadenosine;Crotonoside;9-β-<span class=\"text-smallcaps\">D</span>-Ribofuranosylisoguanine;Isoguanine riboside;2-Hydroxyadenosine;Crotonosid;NSC 12161;6-Amino-9[(1′-<span class=\"text-smallcaps\">D</span>-2′-ribofuranosyl)-4-hydroxy-5-(hydroxymethyl)-oxolan-2-yl]-1<em>H</em>-purin-2-one",
    "duplicated_cas_no": "484-79-7;27968-70-3",
    "SMILES": "NC=1C2=C(N(C=N2)[C@@H]3O[C@H](CO)[C@@H](O)[C@H]3O)NC(=O)N1",
    "meta_data": {
        "InChI": "InChI=1S/C10H13N5O5/c11-7-4-8(14-10(19)13-7)15(2-12-4)9-6(18)5(17)3(1-16)20-9/h2-3,5-6,9,16-18H,1H2,(H3,11,13,14,19)/t3-,5-,6-,9-/m1/s1",
        "InChIKey": null,
        "Canonical SMILES": "O=C1N=C(N)C=2N=CN(C2N1)C3OC(CO)C(O)C3O",
        "Molecular Formula": "C<sub>10</sub>H<sub>13</sub>N<sub>5</sub>O<sub>5</sub>",
        "Molecular Mass": "283.24",
        "Melting Point": "237-241 °C"
    }
}