{
    "cas_no": "1713-85-5",
    "key_name": "Chlorolactic acid",
    "cn_name": "氯乳酸;氯乳酸;",
    "alternate_name": "Propanoic acid, 3-chloro-2-hydroxy-;Lactic acid, 3-chloro-;3-Chloro-2-hydroxypropanoic acid;β-Chlorolactic acid;3-Chloro-2-hydroxypropionic acid;3-Chlorolactic acid;2-Hydroxy-3-chloropropionic acid;Chlorolactic acid;Propionic acid, 3-chloro-2-hydroxy-;<span class=\"text-smallcaps\">DL</span>-β-Chlorolactic acid;<span class=\"text-smallcaps\">DL</span>-3-Chlorolactic acid;(±)-3-Chloro-2-hydroxypropanoic acid;(±)-3-Chlorolactic acid;Beta-chlorolactic acid",
    "duplicated_cas_no": "50906-02-0;861773-84-4",
    "SMILES": "C(C(O)=O)(CCl)O",
    "meta_data": {
        "InChI": "InChI=1S/C3H5ClO3/c4-1-2(5)3(6)7/h2,5H,1H2,(H,6,7)",
        "InChIKey": null,
        "Canonical SMILES": "O=C(O)C(O)CCl",
        "Molecular Formula": "C<sub>3</sub>H<sub>5</sub>ClO<sub>3</sub>",
        "Molecular Mass": "124.52",
        "Melting Point": "77 °C"
    }
}