{
    "cas_no": "16960-49-9",
    "key_name": "4′-Acetamidopropiophenone",
    "cn_name": null,
    "alternate_name": "Acetamide, <em>N</em>-[4-(1-oxopropyl)phenyl]-;Acetanilide, 4′-propionyl-;<em>N</em>-[4-(1-Oxopropyl)phenyl]acetamide;(4′-Propionyl)acetanilide;<em>p</em>-Acetamidopropiophenone;4′-Acetamidopropiophenone;NSC 169084",
    "duplicated_cas_no": "",
    "SMILES": "N(C(C)=O)C1=CC=C(C(CC)=O)C=C1",
    "meta_data": {
        "InChI": "InChI=1S/C11H13NO2/c1-3-11(14)9-4-6-10(7-5-9)12-8(2)13/h4-7H,3H2,1-2H3,(H,12,13)",
        "InChIKey": null,
        "Canonical SMILES": "O=C(NC1=CC=C(C=C1)C(=O)CC)C",
        "Molecular Formula": "C<sub>11</sub>H<sub>13</sub>NO<sub>2</sub>",
        "Molecular Mass": "191.23",
        "Melting Point": "172-173 °C"
    }
}