{
    "cas_no": "2370-63-0",
    "key_name": "Ethoxyethyl methacrylate",
    "cn_name": "甲基丙烯酸-2-乙氧基乙酯;",
    "alternate_name": "2-Propenoic acid, 2-methyl-, 2-ethoxyethyl ester;Methacrylic acid, 2-ethoxyethyl ester;Ethanol, 2-ethoxy-, methacrylate;2-Ethoxyethyl methacrylate;Ethoxyethyl methacrylate;β-Ethoxyethyl methacrylate;NSC 24162;Acryester ET;2-Ethoxyethyl 2-methylprop-2-enoate;Ethylmonoglycol (meth)acrylate;Ethylene glycol monoethyl ether methacrylate",
    "duplicated_cas_no": "51289-08-8",
    "SMILES": "C(OCCOCC)(C(C)=C)=O",
    "meta_data": {
        "InChI": "InChI=1S/C8H14O3/c1-4-10-5-6-11-8(9)7(2)3/h2,4-6H2,1,3H3",
        "InChIKey": null,
        "Canonical SMILES": "O=C(OCCOCC)C(=C)C",
        "Molecular Formula": "C<sub>8</sub>H<sub>14</sub>O<sub>3</sub>",
        "Molecular Mass": "158.20",
        "Boiling Point": "70 °C @ Press: 22 Torr",
        "Melting Point": "&lt;25 °C",
        "Density": "0.964 g/cm³"
    }
}