{
    "cas_no": "2612-57-9",
    "key_name": "2,4-Dichlorophenyl isocyanate",
    "cn_name": "2,4-二氯苯基异氰酸酯;",
    "alternate_name": "Benzene, 2,4-dichloro-1-isocyanato-;Isocyanic acid, 2,4-dichlorophenyl ester;2,4-Dichloro-1-isocyanatobenzene;2,4-Dichlorophenyl isocyanate",
    "duplicated_cas_no": "",
    "SMILES": "N(=C=O)C1=C(Cl)C=C(Cl)C=C1",
    "meta_data": {
        "InChI": "InChI=1S/C7H3Cl2NO/c8-5-1-2-7(10-4-11)6(9)3-5/h1-3H",
        "InChIKey": null,
        "Canonical SMILES": "O=C=NC1=CC=C(Cl)C=C1Cl",
        "Molecular Formula": "C<sub>7</sub>H<sub>3</sub>Cl<sub>2</sub>NO",
        "Molecular Mass": "188.01",
        "Melting Point": "61 °C"
    }
}