{
    "cas_no": "9004-67-5",
    "key_name": "Methylcellulose",
    "cn_name": null,
    "alternate_name": "Cellulose, methyl ether;Adulsin;Bagolax;Bufapto Methalose;Bulkaloid;Celacol M;Celacol MM;Cellapret;Cellogran;Cellothyl;Cellulose methylate;Cellumeth;Cethytin;Hydrolose;Mellose;Methocel 400CPS;Methocel 4000CPS;Methulose;Methocel 400;Methocel 10;Rhomellose;Syncelose;Tylose SAP;Tylose SL;Tylose TWA;Viscol;Viscosol;Tylose A 4S;Methylcellulose;Methocel MC;Methyl cellulose ether;SM 4000;Methocel MC 25;Methocel SM 100;Tylose 444;Methocel MC 4000;Celacol M 20;Walsroder MC 20000S;Cethylose;Nicel;Methocel A;Methocel MC 8000;Tylose MF;Celacol M 450;Celacol M 20P;MCO 8000;MC 20000S;Tylose SL 100;Tylose SL 400;Viscontran L 52;Celacol MM 10P;Tylose SL 600;Napolone;Marpolose 60SH50;Marpolose M 25;Metolose MC 8000;Methocel CHG;Metolose SM 4000;Metolose SM 100;MTs (cellulose derivative);Metolose SM 15;MC 4000cP;Culminal K 42;Edisol M;MMTs-BTR;Methylan SP;Culminal MC 2000;Culminal MC;Celacol M 2500;<em>O</em>-Methylcellulose;Marpolose M 10000;Marpolose 90MP30000;Methocel ST 65HG50;Methocel A 4C;Metolose SM 1500;Marpolose M 400;Marpolose EM 2000;Metolose SM 25;Marpolose 90MP10000;EMP-H;Celacol MMPR;Methocel A 15LV;Methoxycellulose;Viscontran MC 400;Metolose 4000;Walocel M;Methocel A 15C;Metolose SM 8000;SM 8000;Probe D;Methocel A 4M;Culminal MC 40;MC 40;Methocel A 50;Metolose SM;Viskontran MC 10S;Cesca C 8556;Methocel A 100;Methocel 4C;Culminal MC 6OS;Cesca MC 25S;Cesca MC 400;SM 15;SM 100000;Benecel MC 4000PS;Metolose SM 400;Avicel SG;Metolose SM 1;Tylose MC 6000P;Benecel MO 42;MM 20P;Culminal MC 25S;Methocel A 4C Premium;Benecel M 02;Culminal MC 3000PR;Celacol WA;SP-G;SP-G (thickener);Marpolose Ace;Metolose SM 800;MC-A 4C;MC-A 4M;Methocel 240;M 15;M 100;M 15 (cellulose derivative);M 100 (cellulose derivative);MTs;Marpolose PS;Metolose SM 4;Culminal MC 3000P;Tylopur C 30;Hi-SM 4000;Methocel Fluka 64625;Methocel 64625;Benecel M 0;Daicel 170;Marpozol M 25;Metolose M 15;Mecellose;Citrucel;Methyl Cel A 43;Marpolose EM 400;Metolose SH 100;Benecel M 043;SM 4;Methocel A 15C Premium;Methocel A 15LV Premium;M 043;SM 25;SM 25 (polysaccharide);Cologel;E 461;SM 400;MC 3000P;Metolose 60SM25;Methocel HPM 50DS;Methocel HPM 500DS;M 7140;SM 100;Metolose SM 65-15;V 32;V 32 (cellulose derivative);Culminal 2000;SM 15 (polysaccharide);Methocel A 125LV;MTs 100;Methocel A 4M Premium;F 50;Metolose SR;Walocel M 20678;Ticacel HV;Marpolose M 4000;MTs 16;XT 6000;Hi-Sunrose H 755;Methocel A 15;Methylan Normal;MS 400;Metolose MS;MC 90SH30000;M 450;Metolose MCE 4;Methocel A 15FG;Methocel SG-A 150FG;Methocel SG-A 50MFG;Methocel A 4C-FG;Benecel M 011;Benecel M 021;Methocel Premium A 4000;MCE 4000;Mecellose FMC 22501;Methocel AC Premium;Tylose M 2000;SBQ 30000PE;Serander YB 111A;Serander YB 152A;Metolose SM 10000;SM 10000;Benecel 143HR;Metolose SBP 30501;MC 40H;M 0512-100G;Ticacel LV;Mecellose FMC 60150;MCE 400;Methocel A 40M;Methocel A 4M-FG;Methocel A 40M-FG;Metolose MCE 25;Metolose MCE 1500;Metolose SCH 300L;Methocel SGA 7C;Metolose MCE 4000;Metolose MCE 100;Metolose MCE 400;Anyaddy MC 40H;FNIC 6701;Metolose MC 60S;Benecel A 15;MCE 1500;Benecel A 40M;Culminal MC 7000PF;SMC 25;MT 400;Methocel MX;Metolose MCE 15;Vivapur MC-A 4M;SGA 7C;Metolose SM 04;Mecellulose 40H;Culminal C 4053;Methocel KM 100CR;Marpolose ME 350TS;Metolose MCR 100;55HD15;55HD20;55HD50;55HD100;55HD400;55HD4000;M 0512;Hercules C 4050;MC 55HB;Shunshui P 6;P 6;M 0262;ME 233P Pharm;Culminal 2000S;Culminal MC 2000S;M 6385;VIS TOP D 4187;S 14010;75RT25;MT 400 (cellulose derivative);Walocel MH 6000PF;MeSH ID: D008747;Tylopur MCE 100TS;Walocel MT 10000PV;Vegedan;Benecel MX",
    "duplicated_cas_no": "39384-65-1;53568-34-6;71812-19-6;88402-84-0;99638-59-2;730985-58-7;2098627-58-6;2826210-70-0;2938147-28-3",
    "SMILES": "",
    "meta_data": {
        "InChI": "",
        "InChIKey": null,
        "Canonical SMILES": "",
        "Molecular Formula": "CH<sub>4</sub>O.xUnspecified",
        "Molecular Mass": "",
        "Melting Point": "290-305 °C",
        "Density": "1.01 g/cm³ @ Temp: 70 °C"
    }
}