{
    "cas_no": "110964-79-9",
    "key_name": "4-(Methylsulfonyl)-2-nitrobenzoic acid",
    "cn_name": "2-硝基-4-甲砜基苯甲酸;邻硝基对甲砜基苯甲酸;",
    "alternate_name": "Benzoic acid, 4-(methylsulfonyl)-2-nitro-;4-(Methylsulfonyl)-2-nitrobenzoic acid;2-Nitro-4-(methylsulfonyl)benzoic acid;2-Nitro-<em>p</em>-methylsulfonyl benzoic acid;4-Mesyl-2-nitrobenzoic acid",
    "duplicated_cas_no": "",
    "SMILES": "N(=O)(=O)C1=C(C(O)=O)C=CC(S(C)(=O)=O)=C1",
    "meta_data": {
        "InChI": "InChI=1S/C8H7NO6S/c1-16(14,15)5-2-3-6(8(10)11)7(4-5)9(12)13/h2-4H,1H3,(H,10,11)",
        "InChIKey": null,
        "Canonical SMILES": "O=C(O)C1=CC=C(C=C1N(=O)=O)S(=O)(=O)C",
        "Molecular Formula": "C<sub>8</sub>H<sub>7</sub>NO<sub>6</sub>S",
        "Molecular Mass": "245.21",
        "Melting Point": "212-213 °C"
    }
}