{
    "cas_no": "35825-57-1",
    "key_name": "Cryptotanshinone",
    "cn_name": null,
    "alternate_name": "Phenanthro[1,2-<em>b</em>]furan-10,11-dione, 1,2,6,7,8,9-hexahydro-1,6,6-trimethyl-, (1<em>R</em>)-;Phenanthro[1,2-<em>b</em>]furan-10,11-dione, 1,2,6,7,8,9-hexahydro-1,6,6-trimethyl-, (<em>R</em>)-;(1<em>R</em>)-1,2,6,7,8,9-Hexahydro-1,6,6-trimethylphenanthro[1,2-<em>b</em>]furan-10,11-dione;Cryptotanshinone;Cryptotanshinon;Tanshinone c;Cryototanshinone;(15<em>R</em>)-Cryptotanshinone;(1R)-1,6,6-Trimethyl-2,7,8,9-tetrahydro-1<em>H</em>-naphtho[1,2-<em>g</em>][1]benzofuran-10,11-dione",
    "duplicated_cas_no": "4733-35-1",
    "SMILES": "O=C1C=2C(C3=C(C1=O)[C@@H](C)CO3)=CC=C4C2CCCC4(C)C",
    "meta_data": {
        "InChI": "InChI=1S/C19H20O3/c1-10-9-22-18-12-6-7-13-11(5-4-8-19(13,2)3)15(12)17(21)16(20)14(10)18/h6-7,10H,4-5,8-9H2,1-3H3/t10-/m0/s1",
        "InChIKey": null,
        "Canonical SMILES": "O=C1C(=O)C2=C(OCC2C)C=3C=CC4=C(C13)CCCC4(C)C",
        "Molecular Formula": "C<sub>19</sub>H<sub>20</sub>O<sub>3</sub>",
        "Molecular Mass": "296.36",
        "Melting Point": "182 °C"
    }
}