{
    "cas_no": "25384-14-9",
    "key_name": "Ethanone, 1-(2-aminophenyl)-, hydrochloride (1:1)",
    "cn_name": null,
    "alternate_name": "Ethanone, 1-(2-aminophenyl)-, hydrochloride (1:1);Acetophenone, 2′-amino-, hydrochloride;Ethanone, 1-(2-aminophenyl)-, hydrochloride;<em>o</em>-Aminoacetophenone hydrochloride;2′-Aminoacetophenone hydrochloride;1-(2-Aminophenyl)ethanone hydrochloride;1-(2-Aminophenyl)ethan-1-one hydrochloride",
    "duplicated_cas_no": "",
    "SMILES": "C(C)(=O)C1=C(N)C=CC=C1.Cl",
    "meta_data": {
        "InChI": "InChI=1S/C8H9NO.ClH/c1-6(10)7-4-2-3-5-8(7)9;/h2-5H,9H2,1H3;1H",
        "InChIKey": null,
        "Canonical SMILES": "Cl.O=C(C=1C=CC=CC1N)C",
        "Molecular Formula": "C<sub>8</sub>H<sub>9</sub>NO.ClH",
        "Molecular Mass": "",
        "Melting Point": "264-265 °C"
    }
}