{
    "cas_no": "35572-78-2",
    "key_name": "2-Amino-4,6-dinitrotoluene",
    "cn_name": null,
    "alternate_name": "Benzenamine, 2-methyl-3,5-dinitro-;<em>o</em>-Toluidine, 3,5-dinitro-;2-Methyl-3,5-dinitrobenzenamine;2-Amino-4,6-dinitrotoluene;2-Methyl-3,5-dinitroaniline;2,4-Dinitro-6-aminotoluene;3,5-Dinitro-<em>o</em>-toluidine;1-Amino-2-methyl-3,5-dinitrobenzene;2-ADNT;2-Methyl-3,5-dinitro-phenylamine",
    "duplicated_cas_no": "",
    "SMILES": "N(=O)(=O)C1=CC(N(=O)=O)=CC(N)=C1C",
    "meta_data": {
        "InChI": "InChI=1S/C7H7N3O4/c1-4-6(8)2-5(9(11)12)3-7(4)10(13)14/h2-3H,8H2,1H3",
        "InChIKey": null,
        "Canonical SMILES": "O=N(=O)C1=CC(N)=C(C(=C1)N(=O)=O)C",
        "Molecular Formula": "C<sub>7</sub>H<sub>7</sub>N<sub>3</sub>O<sub>4</sub>",
        "Molecular Mass": "197.15",
        "Melting Point": "135 °C"
    }
}