{
    "cas_no": "636-44-2",
    "key_name": "2,5-Dimethyl-3-furancarboxylic acid",
    "cn_name": "2,5-二甲基-3-呋喃酸;2,5-二甲基-3-呋喃酸;2,5-二甲-3-呋喃甲酸;",
    "alternate_name": "3-Furancarboxylic acid, 2,5-dimethyl-;3-Furoic acid, 2,5-dimethyl-;2,5-Dimethyl-3-furancarboxylic acid;Pyrotritaric acid;Uvinic acid;2,5-Dimethyl-3-furoic acid;NSC 170612",
    "duplicated_cas_no": "",
    "SMILES": "C(O)(=O)C=1C=C(C)OC1C",
    "meta_data": {
        "InChI": "InChI=1S/C7H8O3/c1-4-3-6(7(8)9)5(2)10-4/h3H,1-2H3,(H,8,9)",
        "InChIKey": null,
        "Canonical SMILES": "O=C(O)C=1C=C(OC1C)C",
        "Molecular Formula": "C<sub>7</sub>H<sub>8</sub>O<sub>3</sub>",
        "Molecular Mass": "140.14",
        "Melting Point": "134 °C"
    }
}