{
    "cas_no": "18390-00-6",
    "key_name": "2-Phenyl-4,4,5,5-tetramethylimidazoline-1-oxyl 3-oxide",
    "cn_name": "3-氧代-2-苯基-4,4,5,5-四甲基咪唑啉-1-氧;2-苯基-4,4,5,5-四甲基咪唑啉-1-氧基-3-氧代;",
    "alternate_name": "1<em>H</em>-Imidazol-1-yloxy, 4,5-dihydro-4,4,5,5-tetramethyl-2-phenyl-, 3-oxide;2-Imidazolin-1-yloxy, 4,4,5,5-tetramethyl-2-phenyl-, 3-oxide;4,5-Dihydro-4,4,5,5-tetramethyl-2-phenyl-1<em>H</em>-imidazol-1-oxy 3-oxide;α-Phenyltetramethylnitronyl nitroxide;PTIO;2-Phenyl-4,4,5,5-tetramethyl-4,5-dihydro-1<em>H</em>-imidazolyl-1-oxy 3-oxide;2-Phenyl-4,4,5,5-tetramethylimidazoline-1-oxyl 3-oxide;2-Phenyl-4,4,5,5-tetramethyl-4,5-dihydro-1<em>H</em>-imidazolyl-1-oxyl 3-<em>N</em>-oxide",
    "duplicated_cas_no": "31032-05-0",
    "SMILES": "",
    "meta_data": {
        "InChI": "",
        "InChIKey": null,
        "Canonical SMILES": "",
        "Molecular Formula": "C<sub>13</sub>H<sub>17</sub>N<sub>2</sub>O<sub>2</sub>",
        "Molecular Mass": "",
        "Melting Point": "139-145 °C"
    }
}