{
    "cas_no": "370865-89-7",
    "key_name": "1-Ethyl-3-methylimidazolium dicyanamide",
    "cn_name": null,
    "alternate_name": "1<em>H</em>-Imidazolium, 3-ethyl-1-methyl-, salt with <em>N</em>-cyanocyanamide (1:1);1<em>H</em>-Imidazolium, 1-ethyl-3-methyl-, salt with cyanocyanamide (1:1);Cyanamide, cyano-, ion(1-), 1-ethyl-3-methyl-1<em>H</em>-imidazolium;1-Ethyl-3-methylimidazolium dicyanamide;1-Ethyl-3-methylimidazolium dicyanoamide;1-Methyl-3-ethylimidazolium dicyanamide;1-Ethyl-3-methylimidazolium dicyanimide;Basionics VS 03;Ethylmethylimidazolium dicyanamide;1-Ethyl-3-methylimidazolium dicyanamide(1-);VS 03;A 83377;[EMIM]CA]",
    "duplicated_cas_no": "2902662-07-9",
    "SMILES": "C(C)[N+]1=CN(C)C=C1.[N-](C#N)C#N",
    "meta_data": {
        "InChI": "InChI=1S/C6H11N2.C2N3/c1-3-8-5-4-7(2)6-8;3-1-5-2-4/h4-6H,3H2,1-2H3;/q+1;-1",
        "InChIKey": null,
        "Canonical SMILES": "N#C[N-]C#N.C1=C[N+](=CN1C)CC",
        "Molecular Formula": "C<sub>6</sub>H<sub>11</sub>N<sub>2</sub>.C<sub>2</sub>N<sub>3</sub>",
        "Molecular Mass": "",
        "Melting Point": "-12 °C",
        "Density": "1.08 g/cm³ @ Temp: 20 °C"
    }
}