{
    "cas_no": "90-90-4",
    "key_name": "4-Bromobenzophenone",
    "cn_name": "4-溴-二苯甲酮;对溴二苯甲酮;",
    "alternate_name": "Methanone, (4-bromophenyl)phenyl-;Benzophenone, 4-bromo-;(4-Bromophenyl)phenylmethanone;<em>p</em>-Bromobenzophenone;4-Bromobenzophenone;4-Bromophenyl phenyl ketone;<em>p</em>-Benzoylbromobenzene;1-Benzoyl-4-bromobenzene;Phenyl(4-bromophenyl)methanone;NSC 59863;4-(Phenylcarbonyl)-1-bromobenzene",
    "duplicated_cas_no": "",
    "SMILES": "C(=O)(C1=CC=C(Br)C=C1)C2=CC=CC=C2",
    "meta_data": {
        "InChI": "InChI=1S/C13H9BrO/c14-12-8-6-11(7-9-12)13(15)10-4-2-1-3-5-10/h1-9H",
        "InChIKey": null,
        "Canonical SMILES": "O=C(C=1C=CC=CC1)C2=CC=C(Br)C=C2",
        "Molecular Formula": "C<sub>13</sub>H<sub>9</sub>BrO",
        "Molecular Mass": "261.11",
        "Boiling Point": "350 °C",
        "Melting Point": "82.5 °C"
    }
}