{
    "cas_no": "63106-93-4",
    "key_name": "1-Phenyl-2-oxo-3-oxabicyclo[3.1.0]hexane",
    "cn_name": "(1S,5R)-1-苯基-3-氧杂双环[3.1.0]己-2-酮;",
    "alternate_name": "3-Oxabicyclo[3.1.0]hexan-2-one, 1-phenyl-;1-Phenyl-3-oxabicyclo[3.1.0]hexan-2-one;1-Phenyl-2-oxo-3-oxabicyclo[3.1.0]hexane",
    "duplicated_cas_no": "96847-75-5",
    "SMILES": "O=C1C2(C(C2)CO1)C3=CC=CC=C3",
    "meta_data": {
        "InChI": "InChI=1S/C11H10O2/c12-10-11(6-9(11)7-13-10)8-4-2-1-3-5-8/h1-5,9H,6-7H2",
        "InChIKey": null,
        "Canonical SMILES": "O=C1OCC2CC12C=3C=CC=CC3",
        "Molecular Formula": "C<sub>11</sub>H<sub>10</sub>O<sub>2</sub>",
        "Molecular Mass": "174.20",
        "Boiling Point": "119 °C @ Press: 0.1 Torr",
        "Melting Point": "49-50 °C"
    }
}