{
    "cas_no": "122-67-8",
    "key_name": "Isobutyl cinnamate",
    "cn_name": "肉桂酸异丁酯;3-苯基丙烯酸异丁酯;",
    "alternate_name": "2-Propenoic acid, 3-phenyl-, 2-methylpropyl ester;Cinnamic acid, isobutyl ester;Labdanol;Isobutyl cinnamate;NSC 404181",
    "duplicated_cas_no": "",
    "SMILES": "C(=CC(OCC(C)C)=O)C1=CC=CC=C1",
    "meta_data": {
        "InChI": "InChI=1S/C13H16O2/c1-11(2)10-15-13(14)9-8-12-6-4-3-5-7-12/h3-9,11H,10H2,1-2H3",
        "InChIKey": null,
        "Canonical SMILES": "O=C(OCC(C)C)C=CC=1C=CC=CC1",
        "Molecular Formula": "C<sub>13</sub>H<sub>16</sub>O<sub>2</sub>",
        "Molecular Mass": "204.26",
        "Boiling Point": "154 °C @ Press: 12 Torr",
        "Density": "1.0170 g/cm³ @ Temp: 20 °C"
    }
}