{
    "cas_no": "840-65-3",
    "key_name": "2,6-Dimethyl 2,6-naphthalenedicarboxylate",
    "cn_name": "2,6-萘二甲酸二甲酯;2,6-萘二羧酸二甲酯;",
    "alternate_name": "2,6-Naphthalenedicarboxylic acid, 2,6-dimethyl ester;2,6-Naphthalenedicarboxylic acid, dimethyl ester;2,6-Dimethyl 2,6-naphthalenedicarboxylate;Dimethyl 2,6-naphthalenedicarboxylate;2,6-Dicarbomethoxynaphthalene;Dimethyl 2,6-naphthalate;2,6-Naphthalic acid dimethyl ester;NSC 59387;2,6-Dimethyl naphthalene-2,6-dicarboxylate;2,6-Bis(methoxycarbonyl)naphthalene",
    "duplicated_cas_no": "2351155-89-8",
    "SMILES": "C(OC)(=O)C1=CC2=C(C=C(C(OC)=O)C=C2)C=C1",
    "meta_data": {
        "InChI": "InChI=1S/C14H12O4/c1-17-13(15)11-5-3-10-8-12(14(16)18-2)6-4-9(10)7-11/h3-8H,1-2H3",
        "InChIKey": null,
        "Canonical SMILES": "O=C(OC)C=1C=CC2=CC(=CC=C2C1)C(=O)OC",
        "Molecular Formula": "C<sub>14</sub>H<sub>12</sub>O<sub>4</sub>",
        "Molecular Mass": "244.24",
        "Boiling Point": "265-270 °C @ Press: 100 Torr",
        "Melting Point": "181-183.5 °C"
    }
}