{
    "cas_no": "33564-31-7",
    "key_name": "Diflorasone diacetate",
    "cn_name": null,
    "alternate_name": "Pregna-1,4-diene-3,20-dione, 17,21-bis(acetyloxy)-6,9-difluoro-11-hydroxy-16-methyl-, (6α,11β,16β)-;(6α,11β,16β)-17,21-Bis(acetyloxy)-6,9-difluoro-11-hydroxy-16-methylpregna-1,4-diene-3,20-dione;Diflorasone diacetate;Florone;Diflorasone 17,21-diacetate;Maxiflor;Psorcon;U 34865;Difulal;Diacort;Soriflor;Dermaflor",
    "duplicated_cas_no": "290837-26-2",
    "SMILES": "C(COC(C)=O)(=O)[C@]1(OC(C)=O)[C@]2(C)[C@@](C[C@@H]1C)([C@]3([C@](F)([C@@H](O)C2)[C@]4(C)C([C@@H](F)C3)=CC(=O)C=C4)[H])[H]",
    "meta_data": {
        "InChI": "InChI=1S/C26H32F2O7/c1-13-8-17-18-10-20(27)19-9-16(31)6-7-23(19,4)25(18,28)21(32)11-24(17,5)26(13,35-15(3)30)22(33)12-34-14(2)29/h6-7,9,13,17-18,20-21,32H,8,10-12H2,1-5H3/t13-,17-,18-,20-,21-,23-,24-,25-,26-/m0/s1",
        "InChIKey": null,
        "Canonical SMILES": "O=C1C=CC2(C(=C1)C(F)CC3C4CC(C)C(OC(=O)C)(C(=O)COC(=O)C)C4(C)CC(O)C32F)C",
        "Molecular Formula": "C<sub>26</sub>H<sub>32</sub>F<sub>2</sub>O<sub>7</sub>",
        "Molecular Mass": "494.52",
        "Melting Point": "221-223 °C (decomp)"
    }
}