{
    "cas_no": "6939-95-3",
    "key_name": "3-Chloro-α-methylbenzenemethanol",
    "cn_name": "1-(3-氯苯基)-1-乙醇;",
    "alternate_name": "Benzenemethanol, 3-chloro-α-methyl-;Benzyl alcohol, <em>m</em>-chloro-α-methyl-;3-Chloro-α-methylbenzenemethanol;1-(<em>m</em>-Chlorophenyl)ethanol;(3-Chlorophenyl)methylcarbinol;1-(3-Chlorophenyl)ethanol;NSC 38772;(±)-1-(<em>m</em>-Chlorophenyl)ethanol;1-(3-Chlorophenyl)ethan-1-ol;1-(3-Chlorophenyl)-1-ethanol",
    "duplicated_cas_no": "",
    "SMILES": "C(C)(O)C1=CC(Cl)=CC=C1",
    "meta_data": {
        "InChI": "InChI=1S/C8H9ClO/c1-6(10)7-3-2-4-8(9)5-7/h2-6,10H,1H3",
        "InChIKey": null,
        "Canonical SMILES": "ClC1=CC=CC(=C1)C(O)C",
        "Molecular Formula": "C<sub>8</sub>H<sub>9</sub>ClO",
        "Molecular Mass": "156.61",
        "Boiling Point": "240-246 °C @ Press: 748 Torr",
        "Density": "1.174 g/cm³ @ Temp: 20 °C"
    }
}