{
    "cas_no": "521-78-8",
    "key_name": "Trimipramine maleate",
    "cn_name": "马来酸三甲丙咪嗪;",
    "alternate_name": "5<em>H</em>-Dibenz[<em>b</em>,<em>f</em>]azepine-5-propanamine, 10,11-dihydro-<em>N</em>,<em>N</em>,β-trimethyl-, (2<em>Z</em>)-2-butenedioate (1:1);5<em>H</em>-Dibenz[<em>b</em>,<em>f</em>]azepine, 5-[3-(dimethylamino)-2-methylpropyl]-10,11-dihydro-, maleate (1:1);5<em>H</em>-Dibenz[<em>b</em>,<em>f</em>]azepine-5-propanamine, 10,11-dihydro-<em>N</em>,<em>N</em>,β-trimethyl-, (<em>Z</em>)-2-butenedioate (1:1);Surmontil maleate;Trimeprimine maleate;Trimipramine acid maleate;Trimipramine maleate;Trimeprimine monomaleate;3-(10,11-Dihydro-5<em>H</em>-dibenzo[<em>b</em>,<em>f</em>]azepin-5-yl)-<em>N</em>,<em>N</em>,2-trimethylpropan-1-aminium acid maleate",
    "duplicated_cas_no": "117848-51-8;138145-72-9;1202867-12-6",
    "SMILES": "C(C(CN(C)C)C)N1C=2C(CCC=3C1=CC=CC3)=CC=CC2.C(=C\\C(O)=O)\\C(O)=O",
    "meta_data": {
        "InChI": "InChI=1S/C20H26N2.C4H4O4/c1-16(14-21(2)3)15-22-19-10-6-4-8-17(19)12-13-18-9-5-7-11-20(18)22;5-3(6)1-2-4(7)8/h4-11,16H,12-15H2,1-3H3;1-2H,(H,5,6)(H,7,8)/b;2-1-",
        "InChIKey": null,
        "Canonical SMILES": "O=C(O)C=CC(=O)O.C=1C=CC2=C(C1)N(C=3C=CC=CC3CC2)CC(C)CN(C)C",
        "Molecular Formula": "C<sub>20</sub>H<sub>26</sub>N<sub>2</sub>.C<sub>4</sub>H<sub>4</sub>O<sub>4</sub>",
        "Molecular Mass": "",
        "Melting Point": "142 °C"
    }
}