{
    "cas_no": "25016-11-9",
    "key_name": "1-Methyl-1<em>H</em>-pyrazole-4-carboxaldehyde",
    "cn_name": "1-甲基-1H-吡唑-4-甲醛;",
    "alternate_name": "1<em>H</em>-Pyrazole-4-carboxaldehyde, 1-methyl-;Pyrazole-4-carboxaldehyde, 1-methyl-;1-Methyl-1<em>H</em>-pyrazole-4-carboxaldehyde;4-Formyl-1-methylpyrazole;1-Methyl-4-pyrazolecarboxaldehyde;1-Methyl-4-formylpyrazole;1-Methyl-1<em>H</em>-pyrazole-4-carbaldehyde;1-Methyl-1<em>H</em>-pyrazol-4-carboxaldehyde;1-Methylpyrazole-4-carbaldehyde",
    "duplicated_cas_no": "",
    "SMILES": "C(=O)C1=CN(C)N=C1",
    "meta_data": {
        "InChI": "InChI=1S/C5H6N2O/c1-7-3-5(4-8)2-6-7/h2-4H,1H3",
        "InChIKey": null,
        "Canonical SMILES": "O=CC=1C=NN(C1)C",
        "Molecular Formula": "C<sub>5</sub>H<sub>6</sub>N<sub>2</sub>O",
        "Molecular Mass": "110.11",
        "Boiling Point": "106-108 °C @ Press: 20 Torr",
        "Melting Point": "27-28 °C"
    }
}