{
    "cas_no": "82-38-2",
    "key_name": "Solvent Red 111",
    "cn_name": "分散红9;1-甲氨基蒽醌;",
    "alternate_name": "9,10-Anthracenedione, 1-(methylamino)-;C.I. Disperse Red 9;Anthraquinone, 1-(methylamino)-;1-(Methylamino)-9,10-anthracenedione;C.I. 60505;Celanthrene Red Y;Celliton Pink R;Duranol Red GN;1-(Methylamino)anthraquinone;<em>N</em>-Methyl-1-anthraquinonylamine;Oil Red ZMQ;Serilene Fast Pink BT;Supracet Pink R;Waxoline Red MAA;Waxoline Red MP;α-Methylaminoanthraquinone;1-(Methylamino)-9,10-anthraquinone;Calco Oil Red ZMQ;C.I. Solvent Red 111;Macrolex Red G;Amaplast Red AAP;Orient Oil Red 330;Smoke Red M;Macrolex Red GS;Oracet Red G;Disperse Red 9;Solvent Red 111;Kayaset Red G;Diaresin Red S;Oplas Red 330;Sandoplast Red PFS;Waxoline Red MP-FW;NSC 3721;KP Plast Red G;Oil Red 111;Transparent Red GS;Solvaperm Red PFS;Solvaperm Red 111;1-(Methylamino)-9,10-dihydroanthracene-9,10-dione",
    "duplicated_cas_no": "12226-87-8;59459-25-5;80497-66-1",
    "SMILES": "O=C1C=2C(C(=O)C=3C1=CC=CC3)=CC=CC2NC",
    "meta_data": {
        "InChI": "InChI=1S/C15H11NO2/c1-16-12-8-4-7-11-13(12)15(18)10-6-3-2-5-9(10)14(11)17/h2-8,16H,1H3",
        "InChIKey": null,
        "Canonical SMILES": "O=C1C=2C=CC=CC2C(=O)C=3C(=CC=CC13)NC",
        "Molecular Formula": "C<sub>15</sub>H<sub>11</sub>NO<sub>2</sub>",
        "Molecular Mass": "237.25",
        "Melting Point": "171 °C"
    }
}