{
    "cas_no": "2855-08-5",
    "key_name": "1-Chloro-3,3-dimethylbutane",
    "cn_name": "3,3-二甲基-1-氯丁烷;",
    "alternate_name": "Butane, 1-chloro-3,3-dimethyl-;1-Chloro-3,3-dimethylbutane;Neohexyl chloride;3,3-Dimethylbutyl chloride;4-Chloro-2,2-dimethylbutane;NSC 76580",
    "duplicated_cas_no": "",
    "SMILES": "C(C(C)(C)C)CCl",
    "meta_data": {
        "InChI": "InChI=1S/C6H13Cl/c1-6(2,3)4-5-7/h4-5H2,1-3H3",
        "InChIKey": null,
        "Canonical SMILES": "ClCCC(C)(C)C",
        "Molecular Formula": "C<sub>6</sub>H<sub>13</sub>Cl",
        "Molecular Mass": "120.62",
        "Boiling Point": "115 °C",
        "Density": "0.8670 g/cm³ @ Temp: 20 °C"
    }
}