{
    "cas_no": "26741-53-7",
    "key_name": "Bis(2,4-di-<em>tert</em>-butylphenyl) pentaerythritol diphosphite",
    "cn_name": "抗氧化剂THP-24;抗氧剂RC626;双(2,4-二叔丁基苯基)季戊四醇二亚磷酸酯;",
    "alternate_name": "2,4,8,10-Tetraoxa-3,9-diphosphaspiro[5.5]undecane, 3,9-bis[2,4-bis(1,1-dimethylethyl)phenoxy]-;Phosphorous acid, cyclic neopentanetetrayl bis(2,4-di-<em>tert</em>-butylphenyl) ester;Phenol, 2,4-di-<em>tert</em>-butyl-, dihydrogen phosphite cyclic neopentanetetrayl ester;2,4,8,10-Tetraoxa-3,9-diphosphaspiro[5.5]undecane, 3,9-bis(2,4-di-<em>tert</em>-butylphenoxy)-;3,9-Bis[2,4-bis(1,1-dimethylethyl)phenoxy]-2,4,8,10-tetraoxa-3,9-diphosphaspiro[5.5]undecane;Pentaerythritol bis(2,4-di-<em>tert</em>-butylphenyl phosphite);Weston MDW 626;Bis(2,4-di-<em>tert</em>-butylphenyl) pentaerythritol diphosphite;Ultranox 624;Weston 626;Ultranox 626;Weston 624;Mark PEP 24;Alkanox P 24;Mark PEP 24G;Phos 5;Ultranox 626A;ADK Stab PEP 24G;ADK Stab PEP 24;PEP 24G;Ultranox 2879A;Cyclic neopentanetetrayl bis(2,4-di-<em>tert</em>-butylphenyl phosphite);Doverphos S 9432;Irgafos 126;PEP 24;Di(2,4-di-<em>tert</em>-butylphenyl)pentaerythritol diphosphite;Irgafos 126FF;Ultranox 640;AT 626;PEP 24Q;Antioxidant 626;Songnox 6260;KY 626;Pentaerythritol bis(2,4-di-tert-butylphenyl) diphosphite;Antioxidant 242;Magnafloc 6260;PL 34;Antioxidant 6260;Ultranox 626GE;Irganox 242;UV 242;Antioxidant TH 24;Yiphos 3026;Songnox 6260PW;Bis(2,4-di-<em>tert</em>-butylphenyl)pentraerythritol diphosphite;Antioxidant 126;Ultranox 627AV;Sonox 626;Bis(2,4-di-<em>t</em>-butylphenyl)pentaerythritol diphosphite;Pentaerythritol bis(2,4-di-<em>tert</em>-butylbenzyl) diphosphite;Antioxidant 3026;Irgafos 626;RC 626;H 175;Bruggolen H 175;Antioxidant 24;THP 24;3,9-Bis(2,4-di-<em>tert</em>-butylphenoxy)-2,4,8,10-tetraoxa-3,9-diphosphaspiro[5.5]undecane;Antioxidant 627A;Songnox 6260FF;3,9-Bis(2,4-ditert-butylphenoxy)-2,4,8,10-tetraoxa-3,9-diphosphaspiro[5.5]undecane;Richfos 626;Sonox 627;AO 626;Chemfos 626;Rianox 626;JY 626;Pentaerythritol bis(2,4-di-tert-butylphenyl phosphite)",
    "duplicated_cas_no": "87498-44-0;106234-83-7;940968-66-1;1233874-33-3;1251905-26-6;1627542-98-6;2919347-95-6",
    "SMILES": "O(P1OCC2(COP(OC3=C(C(C)(C)C)C=C(C(C)(C)C)C=C3)OC2)CO1)C4=C(C(C)(C)C)C=C(C(C)(C)C)C=C4",
    "meta_data": {
        "InChI": "InChI=1S/C33H50O6P2/c1-29(2,3)23-13-15-27(25(17-23)31(7,8)9)38-40-34-19-33(20-35-40)21-36-41(37-22-33)39-28-16-14-24(30(4,5)6)18-26(28)32(10,11)12/h13-18H,19-22H2,1-12H3",
        "InChIKey": null,
        "Canonical SMILES": "O(C1=CC=C(C=C1C(C)(C)C)C(C)(C)C)P2OCC3(CO2)COP(OC4=CC=C(C=C4C(C)(C)C)C(C)(C)C)OC3",
        "Molecular Formula": "C<sub>33</sub>H<sub>50</sub>O<sub>6</sub>P<sub>2</sub>",
        "Molecular Mass": "604.69",
        "Melting Point": "178 °C"
    }
}