{
    "cas_no": "6325-91-3",
    "key_name": "2-Mercapto-5-nitrobenzimidazole",
    "cn_name": null,
    "alternate_name": "2<em>H</em>-Benzimidazole-2-thione, 1,3-dihydro-5-nitro-;2-Benzimidazolethiol, 5-nitro-;2-Benzimidazolinethione, 5-nitro-;2-Benzimidazolethiol, 5(<em>or</em> 6)-nitro-;1,3-Dihydro-5-nitro-2<em>H</em>-benzimidazole-2-thione;5-Nitro-2-mercaptobenzimidazole;5-Nitro-2-benzimidazolethiol;2-Mercapto-5-nitrobenzimidazole;5-Nitro-1<em>H</em>-benzimidazole-2-thiol;5-Nitrobenzimidazoline-2-thione;NSC 31137;6-Nitro-2-thiobenzimidazole;5-Nitrobenzimidazole-2-thione;6-Nitro-1<em>H</em>-1,3-benzodiazole-2-thiol",
    "duplicated_cas_no": "110608-77-0;2360-38-5",
    "SMILES": "N(=O)(=O)C=1C=C2C(=CC1)NC(=S)N2",
    "meta_data": {
        "InChI": "InChI=1S/C7H5N3O2S/c11-10(12)4-1-2-5-6(3-4)9-7(13)8-5/h1-3H,(H2,8,9,13)",
        "InChIKey": null,
        "Canonical SMILES": "O=N(=O)C1=CC=C2NC(=S)NC2=C1",
        "Molecular Formula": "C<sub>7</sub>H<sub>5</sub>N<sub>3</sub>O<sub>2</sub>S",
        "Molecular Mass": "195.20",
        "Melting Point": "272 °C"
    }
}