{
    "cas_no": "50816-18-7",
    "key_name": "9-Decenyl acetate",
    "cn_name": "10-乙酰-1-癸;9-癸烯醋酸;",
    "alternate_name": "9-Decen-1-ol, 1-acetate;9-Decen-1-ol, acetate;9-Decenyl acetate;1-Acetoxy-9-decene;9-Decen-1-yl acetate;10-Acetoxy-1-decene",
    "duplicated_cas_no": "",
    "SMILES": "C(CCCCCCC=C)COC(C)=O",
    "meta_data": {
        "InChI": "InChI=1S/C12H22O2/c1-3-4-5-6-7-8-9-10-11-14-12(2)13/h3H,1,4-11H2,2H3",
        "InChIKey": null,
        "Canonical SMILES": "O=C(OCCCCCCCCC=C)C",
        "Molecular Formula": "C<sub>12</sub>H<sub>22</sub>O<sub>2</sub>",
        "Molecular Mass": "198.30",
        "Boiling Point": "50-51 °C @ Press: 0.01 Torr"
    }
}