{
    "cas_no": "15111-56-5",
    "key_name": "Ethyl 3-cyclohexene-1-carboxylate",
    "cn_name": "3-环己烯-1-羧酸乙酯;",
    "alternate_name": "3-Cyclohexene-1-carboxylic acid, ethyl ester;Ethyl Δ<sup>3</sup>-cyclohexenecarboxylate;Ethyl 3-cyclohexene-1-carboxylate;Ethyl cyclohex-3-enecarboxylate",
    "duplicated_cas_no": "",
    "SMILES": "C(OCC)(=O)C1CCC=CC1",
    "meta_data": {
        "InChI": "InChI=1S/C9H14O2/c1-2-11-9(10)8-6-4-3-5-7-8/h3-4,8H,2,5-7H2,1H3",
        "InChIKey": null,
        "Canonical SMILES": "O=C(OCC)C1CC=CCC1",
        "Molecular Formula": "C<sub>9</sub>H<sub>14</sub>O<sub>2</sub>",
        "Molecular Mass": "154.21",
        "Boiling Point": "194.5 °C"
    }
}