{
    "cas_no": "3616-56-6",
    "key_name": "2,2-Diethoxy-<em>N</em>,<em>N</em>-dimethylethanamine",
    "cn_name": "二甲氨基乙醛缩二乙醇;",
    "alternate_name": "Ethanamine, 2,2-diethoxy-<em>N</em>,<em>N</em>-dimethyl-;Acetaldehyde, (dimethylamino)-, diethyl acetal;Ethylamine, 2,2-diethoxy-<em>N</em>,<em>N</em>-dimethyl-;2,2-Diethoxy-<em>N</em>,<em>N</em>-dimethylethanamine;<em>N</em>-(2,2-Diethoxyethyl)-<em>N</em>,<em>N</em>-dimethylamine;<em>N</em>,<em>N</em>-Dimethyl-2,2-diethoxyethylamine;(Dimethylamino)acetaldehyde diethyl acetal;<em>N</em>,<em>N</em>-Dimethylaminoacetaldehyde diethyl acetal;NSC 62042;(2,2-Diethoxyethyl)dimethylamine",
    "duplicated_cas_no": "",
    "SMILES": "C(CN(C)C)(OCC)OCC",
    "meta_data": {
        "InChI": "InChI=1S/C8H19NO2/c1-5-10-8(11-6-2)7-9(3)4/h8H,5-7H2,1-4H3",
        "InChIKey": null,
        "Canonical SMILES": "O(CC)C(OCC)CN(C)C",
        "Molecular Formula": "C<sub>8</sub>H<sub>19</sub>NO<sub>2</sub>",
        "Molecular Mass": "161.24",
        "Boiling Point": "170.5 °C"
    }
}