{
    "cas_no": "918-00-3",
    "key_name": "1,1,1-Trichloropropanone",
    "cn_name": null,
    "alternate_name": "2-Propanone, 1,1,1-trichloro-;1,1,1-Trichloro-2-propanone;α,α,α-Trichloroacetone;1,1,1-Trichloroacetone;1,1,1-Trichloropropanone;Trichloromethyl methyl ketone;NSC 2645",
    "duplicated_cas_no": "",
    "SMILES": "C(C(C)=O)(Cl)(Cl)Cl",
    "meta_data": {
        "InChI": "InChI=1S/C3H3Cl3O/c1-2(7)3(4,5)6/h1H3",
        "InChIKey": null,
        "Canonical SMILES": "O=C(C)C(Cl)(Cl)Cl",
        "Molecular Formula": "C<sub>3</sub>H<sub>3</sub>Cl<sub>3</sub>O",
        "Molecular Mass": "161.41",
        "Boiling Point": "149 °C",
        "Density": "1.4389 g/cm³ @ Temp: 17.1 °C"
    }
}