{
    "cas_no": "15191-21-6",
    "key_name": "<em>N</em>-Formyl-<span class=\"text-smallcaps\">L</span>-histidine",
    "cn_name": "N-甲酰-L-组氨酸;",
    "alternate_name": "<span class=\"text-smallcaps\">L</span>-Histidine, <em>N</em>-formyl-;Histidine, <em>N</em>-formyl-, <span class=\"text-smallcaps\">L</span>-;<em>N</em>-Formyl-<span class=\"text-smallcaps\">L</span>-histidine;Formyl-<span class=\"text-smallcaps\">L</span>-histidine;NSC 334340;(2S)-2-Formamido-3-(1<em>H</em>-imidazol-5-yl)propanoic acid;(2S)-3-(1<em>H</em>-Imidazol-4-yl)-2-formamidopropanoic acid",
    "duplicated_cas_no": "",
    "SMILES": "[C@H](CC1=CN=CN1)(C(O)=O)NC=O",
    "meta_data": {
        "InChI": "InChI=1S/C7H9N3O3/c11-4-10-6(7(12)13)1-5-2-8-3-9-5/h2-4,6H,1H2,(H,8,9)(H,10,11)(H,12,13)/t6-/m0/s1",
        "InChIKey": null,
        "Canonical SMILES": "O=CNC(C(=O)O)CC1=CN=CN1",
        "Molecular Formula": "C<sub>7</sub>H<sub>9</sub>N<sub>3</sub>O<sub>3</sub>",
        "Molecular Mass": "183.16",
        "Melting Point": "203 °C (decomp)"
    }
}