{
    "cas_no": "58652-20-3",
    "key_name": "Nomegestrol acetate",
    "cn_name": "醋酸诺美孕酮;诺美孕酮醋酸酯;",
    "alternate_name": "19-Norpregna-4,6-diene-3,20-dione, 17-(acetyloxy)-6-methyl-;17-(Acetyloxy)-6-methyl-19-norpregna-4,6-diene-3,20-dione;6-Methyl-17α-acetoxy-Δ<sup>6</sup>-19-norprogesterone;TX 066;Nomegestrol acetate;Lutenyl;Uniplant;Surplant;Org 10486-0",
    "duplicated_cas_no": "",
    "SMILES": "C[C@@]12[C@@](OC(C)=O)(C(C)=O)CC[C@]1([C@]3([C@](CC2)([C@@]4(C(C(C)=C3)=CC(=O)CC4)[H])[H])[H])[H]",
    "meta_data": {
        "InChI": "InChI=1S/C23H30O4/c1-13-11-20-18(17-6-5-16(26)12-19(13)17)7-9-22(4)21(20)8-10-23(22,14(2)24)27-15(3)25/h11-12,17-18,20-21H,5-10H2,1-4H3/t17-,18-,20-,21+,22+,23+/m1/s1",
        "InChIKey": null,
        "Canonical SMILES": "O=C(OC1(C(=O)C)CCC2C3C=C(C4=CC(=O)CCC4C3CCC21C)C)C",
        "Molecular Formula": "C<sub>23</sub>H<sub>30</sub>O<sub>4</sub>",
        "Molecular Mass": "370.48",
        "Melting Point": "214-215 °C"
    }
}