{
    "cas_no": "471-66-9",
    "key_name": "alpha-Boswellic acid",
    "cn_name": "乳香酸;乳香酸;",
    "alternate_name": "Olean-12-en-23-oic acid, 3-hydroxy-, (3α,4β)-;Olean-12-en-24-oic acid, 3α-hydroxy-;α-Boswellic acid;(3α,4β)-3-Hydroxyolean-12-en-23-oic acid;3α-Acetyl-α-boswellic acid;alpha-Boswellic acid",
    "duplicated_cas_no": "",
    "SMILES": "C[C@]12[C@@]([C@]3(C)[C@@](CC1)([C@](C(O)=O)(C)[C@H](O)CC3)[H])(CC=C4[C@@]2(C)CC[C@]5(C)[C@]4(CC(C)(C)CC5)[H])[H]",
    "meta_data": {
        "InChI": "InChI=1S/C30H48O3/c1-25(2)14-15-26(3)16-17-28(5)19(20(26)18-25)8-9-21-27(4)12-11-23(31)30(7,24(32)33)22(27)10-13-29(21,28)6/h8,20-23,31H,9-18H2,1-7H3,(H,32,33)/t20-,21+,22+,23+,26+,27+,28+,29+,30+/m0/s1",
        "InChIKey": null,
        "Canonical SMILES": "O=C(O)C1(C)C(O)CCC2(C)C3CC=C4C5CC(C)(C)CCC5(C)CCC4(C)C3(C)CCC12",
        "Molecular Formula": "C<sub>30</sub>H<sub>48</sub>O<sub>3</sub>",
        "Molecular Mass": "456.70",
        "Melting Point": "150-151 °C"
    }
}