{
    "cas_no": "39716-58-0",
    "key_name": "4-Pentenoyl chloride",
    "cn_name": "4-戊烯酸酰氯;",
    "alternate_name": "4-Pentenoyl chloride;4-Pentenoic acid chloride",
    "duplicated_cas_no": "",
    "SMILES": "C(C(Cl)=O)CC=C",
    "meta_data": {
        "InChI": "InChI=1S/C5H7ClO/c1-2-3-4-5(6)7/h2H,1,3-4H2",
        "InChIKey": null,
        "Canonical SMILES": "O=C(Cl)CCC=C",
        "Molecular Formula": "C<sub>5</sub>H<sub>7</sub>ClO",
        "Molecular Mass": "118.56",
        "Boiling Point": "130-133 °C @ Press: 760 Torr"
    }
}