{
    "cas_no": "937-20-2",
    "key_name": "2,4′-Dichloroacetophenone",
    "cn_name": "2,4\"-二氯苯乙酮;",
    "alternate_name": "Ethanone, 2-chloro-1-(4-chlorophenyl)-;Acetophenone, 2,4′-dichloro-;2-Chloro-1-(4-chlorophenyl)ethanone;<em>p</em>-Chlorophenacyl chloride;α-Chloro-<em>p</em>-chloroacetophenone;ω-Chloro-<em>p</em>-chloroacetophenone;2,4′-Dichloroacetophenone;4-Chlorophenacyl chloride;Chloromethyl 4-chlorophenyl ketone;2-Chloro-1-(4-chlorophenyl)-1-ethanone;1-(4-Chlorophenyl)-2-chloroethanone;2-Chloro-4′-chloroacetophenone;NSC 41669;α-Chloro-4-chloroacetophenone;2-Chloro-1-(4′-chlorophenyl)-ethanone;4′-Chloro-2-chloroacetophenone",
    "duplicated_cas_no": "",
    "SMILES": "C(CCl)(=O)C1=CC=C(Cl)C=C1",
    "meta_data": {
        "InChI": "InChI=1S/C8H6Cl2O/c9-5-8(11)6-1-3-7(10)4-2-6/h1-4H,5H2",
        "InChIKey": null,
        "Canonical SMILES": "O=C(C1=CC=C(Cl)C=C1)CCl",
        "Molecular Formula": "C<sub>8</sub>H<sub>6</sub>Cl<sub>2</sub>O",
        "Molecular Mass": "189.04",
        "Boiling Point": "270 °C",
        "Melting Point": "101.5 °C"
    }
}