{
    "cas_no": "24171-89-9",
    "key_name": "Tris(2-thienyl)phosphine",
    "cn_name": "三(2-噻吩)膦;",
    "alternate_name": "Phosphine, tri-2-thienyl-;Tri-2-thienylphosphine;Tris(2-thienyl)phosphine",
    "duplicated_cas_no": "",
    "SMILES": "P(C1=CC=CS1)(C2=CC=CS2)C3=CC=CS3",
    "meta_data": {
        "InChI": "InChI=1S/C12H9PS3/c1-4-10(14-7-1)13(11-5-2-8-15-11)12-6-3-9-16-12/h1-9H",
        "InChIKey": null,
        "Canonical SMILES": "S1C=CC=C1P(C=2SC=CC2)C=3SC=CC3",
        "Molecular Formula": "C<sub>12</sub>H<sub>9</sub>PS<sub>3</sub>",
        "Molecular Mass": "280.37",
        "Boiling Point": "178-179 °C @ Press: 0.02 Torr"
    }
}