{
    "cas_no": "1679-09-0",
    "key_name": "2-Methyl-2-butanethiol",
    "cn_name": null,
    "alternate_name": "2-Butanethiol, 2-methyl-;2-Methyl-2-butanethiol;<em>tert</em>-Amyl mercaptan;<em>tert</em>-Pentyl mercaptan;<em>tert</em>-Amylthiol;1,1-Dimethyl-1-propanethiol;2-Ethyl-2-propanethiol;NSC 229571;NSC 60251",
    "duplicated_cas_no": "",
    "SMILES": "C(CC)(C)(C)S",
    "meta_data": {
        "InChI": "InChI=1S/C5H12S/c1-4-5(2,3)6/h6H,4H2,1-3H3",
        "InChIKey": null,
        "Canonical SMILES": "SC(C)(C)CC",
        "Molecular Formula": "C<sub>5</sub>H<sub>12</sub>S",
        "Molecular Mass": "104.21",
        "Boiling Point": "99.1 °C",
        "Density": "0.82588 g/cm³ @ Temp: 20 °C"
    }
}