{
    "cas_no": "763-32-6",
    "key_name": "3-Methyl-3-buten-1-ol",
    "cn_name": "3-甲基-3-丁烯-1-醇;",
    "alternate_name": "3-Buten-1-ol, 3-methyl-;3-Methyl-3-buten-1-ol;3-Isopentenyl alcohol;2-Methyl-1-buten-4-ol;Isobutenylcarbinol;Isopropenylethyl alcohol;Methallylcarbinol;3-Methylenebutan-1-ol;3-Methyl-3-butenol;2-Methyl-4-hydroxy-1-butene;Isoprenol;3-Methyl-3-butene-1-ol;4-Hydroxy-2-methyl-1-butene;NSC 122673;Isoprenyl alcohol",
    "duplicated_cas_no": "",
    "SMILES": "C(C(C)=C)CO",
    "meta_data": {
        "InChI": "InChI=1S/C5H10O/c1-5(2)3-4-6/h6H,1,3-4H2,2H3",
        "InChIKey": null,
        "Canonical SMILES": "OCCC(=C)C",
        "Molecular Formula": "C<sub>5</sub>H<sub>10</sub>O",
        "Molecular Mass": "86.13",
        "Boiling Point": "132 °C",
        "Melting Point": "128-129 °C",
        "Density": "0.8509 g/cm³ @ Temp: 20 °C"
    }
}