{
    "cas_no": "139756-03-9",
    "key_name": "4-(2-Ethoxybenzamido)-1-methyl-3-propylpyrazole-5-carboxamide",
    "cn_name": null,
    "alternate_name": "1<em>H</em>-Pyrazole-5-carboxamide, 4-[(2-ethoxybenzoyl)amino]-1-methyl-3-propyl-;4-[(2-Ethoxybenzoyl)amino]-1-methyl-3-propyl-1<em>H</em>-pyrazole-5-carboxamide;4-(2-Ethoxybenzamido)-1-methyl-3-propylpyrazole-5-carboxamide",
    "duplicated_cas_no": "",
    "SMILES": "N(C(=O)C1=C(OCC)C=CC=C1)C=2C(CCC)=NN(C)C2C(N)=O",
    "meta_data": {
        "InChI": "InChI=1S/C17H22N4O3/c1-4-8-12-14(15(16(18)22)21(3)20-12)19-17(23)11-9-6-7-10-13(11)24-5-2/h6-7,9-10H,4-5,8H2,1-3H3,(H2,18,22)(H,19,23)",
        "InChIKey": null,
        "Canonical SMILES": "O=C(N)C1=C(NC(=O)C=2C=CC=CC2OCC)C(=NN1C)CCC",
        "Molecular Formula": "C<sub>17</sub>H<sub>22</sub>N<sub>4</sub>O<sub>3</sub>",
        "Molecular Mass": "330.38",
        "Melting Point": "153-155 °C"
    }
}