{
    "cas_no": "627-12-3",
    "key_name": "Propyl carbamate",
    "cn_name": null,
    "alternate_name": "Carbamic acid, propyl ester;Propyl carbamate;<em>n</em>-Propyl carbamate;NSC 4855",
    "duplicated_cas_no": "",
    "SMILES": "O(C(N)=O)CCC",
    "meta_data": {
        "InChI": "InChI=1S/C4H9NO2/c1-2-3-7-4(5)6/h2-3H2,1H3,(H2,5,6)",
        "InChIKey": null,
        "Canonical SMILES": "O=C(OCCC)N",
        "Molecular Formula": "C<sub>4</sub>H<sub>9</sub>NO<sub>2</sub>",
        "Molecular Mass": "103.12",
        "Boiling Point": "196 °C",
        "Melting Point": "60 °C"
    }
}