{
    "cas_no": "5398-44-7",
    "key_name": "2,6-Dichloroisonicotinic acid",
    "cn_name": "2,6-二氯异烟酸;",
    "alternate_name": "4-Pyridinecarboxylic acid, 2,6-dichloro-;Isonicotinic acid, 2,6-dichloro-;2,6-Dichloro-4-pyridinecarboxylic acid;2,6-Dichloroisonicotinic acid;NSC 4466;CGA 41396",
    "duplicated_cas_no": "",
    "SMILES": "C(O)(=O)C=1C=C(Cl)N=C(Cl)C1",
    "meta_data": {
        "InChI": "InChI=1S/C6H3Cl2NO2/c7-4-1-3(6(10)11)2-5(8)9-4/h1-2H,(H,10,11)",
        "InChIKey": null,
        "Canonical SMILES": "O=C(O)C=1C=C(Cl)N=C(Cl)C1",
        "Molecular Formula": "C<sub>6</sub>H<sub>3</sub>Cl<sub>2</sub>NO<sub>2</sub>",
        "Molecular Mass": "192.00",
        "Melting Point": "208-209 °C"
    }
}