{
    "cas_no": "5874-97-5",
    "key_name": "Metaproterenol sulfate",
    "cn_name": "硫酸奥西那林;3,5-二羟基-alpha-((异丙基氨基)甲基)-苄醇硫酸盐;",
    "alternate_name": "1,3-Benzenediol, 5-[1-hydroxy-2-[(1-methylethyl)amino]ethyl]-, sulfate (2:1);Benzyl alcohol, 3,5-dihydroxy-α-[(isopropylamino)methyl]-, sulfate (2:1) (salt);1,3-Benzenediol, 5-[1-hydroxy-2-[(1-methylethyl)amino]ethyl]-, sulfate (2:1) (salt);Alotec;3,5-Dihydroxy-α-[(isopropylamino)methyl]benzyl alcohol sulfate (2:1) (salt);Metaproterenol sulfate (2:1) (salt);Orciprenaline sulfate (2:1) (salt);Metaproterenol sulfate;Orciprenaline sulfate;Alupent;Th 152;1-(3,5-Dihydroxyphenyl)-1-hydroxy-2-isopropylaminoethane sulfate;Astmopent;Metaprel;(±)-Orciprenaline sulfate;<em>dl</em>-Metaproterenol sulfate;<em>dl</em>-Orciprenaline sulfate;Novasmasol;Metaproterenol hemisulfate",
    "duplicated_cas_no": "31023-56-0;37786-72-4;35412-74-9",
    "SMILES": "S(=O)(=O)(O)O.C(CNC(C)C)(O)C1=CC(O)=CC(O)=C1",
    "meta_data": {
        "InChI": "InChI=1S/C11H17NO3.H2O4S/c1-7(2)12-6-11(15)8-3-9(13)5-10(14)4-8;1-5(2,3)4/h3-5,7,11-15H,6H2,1-2H3;(H2,1,2,3,4)",
        "InChIKey": null,
        "Canonical SMILES": "O=S(=O)(O)O.OC=1C=C(O)C=C(C1)C(O)CNC(C)C",
        "Molecular Formula": "C<sub>11</sub>H<sub>17</sub>NO<sub>3</sub>.<sup>1</sup>/<sub>2</sub>H<sub>2</sub>O<sub>4</sub>S",
        "Molecular Mass": "",
        "Melting Point": "202-203 °C"
    }
}