{
    "cas_no": "43200-81-3",
    "key_name": "6-(5-Chloro-2-pyridinyl)-6,7-dihydro-7-hydroxy-5<em>H</em>-pyrrolo[3,4-<em>b</em>]pyrazin-5-one",
    "cn_name": "6-(5-氯-2-吡啶基)-6,7-二氢-7-羟基-5H-吡咯并[3,4-b]吡嗪-5-酮;",
    "alternate_name": "5<em>H</em>-Pyrrolo[3,4-<em>b</em>]pyrazin-5-one, 6-(5-chloro-2-pyridinyl)-6,7-dihydro-7-hydroxy-;6-(5-Chloro-2-pyridinyl)-6,7-dihydro-7-hydroxy-5<em>H</em>-pyrrolo[3,4-<em>b</em>]pyrazin-5-one;RP 29307;6-(5-Chloropyrid-2-yl)-5-hydroxy-7-oxo-5,6-dihydropyrrolo[3,4-<em>b</em>]pyrazine;6-(5-Chloropyridin-2-yl)-7-hydroxy-6,7-dihydro-5<em>H</em>-pyrrolo[3,4-<em>b</em>]pyrazin-5-one;6-(5-Chloro-2-pyridinyl)-5-hydroxy-7-oxo-6,7-dihydro-5<em>H</em>-pyrrolo[3,4-<em>b</em>]pyrazine",
    "duplicated_cas_no": "",
    "SMILES": "OC1N(C(=O)C=2C1=NC=CN2)C3=CC=C(Cl)C=N3",
    "meta_data": {
        "InChI": "InChI=1S/C11H7ClN4O2/c12-6-1-2-7(15-5-6)16-10(17)8-9(11(16)18)14-4-3-13-8/h1-5,10,17H",
        "InChIKey": null,
        "Canonical SMILES": "O=C1C2=NC=CN=C2C(O)N1C3=NC=C(Cl)C=C3",
        "Molecular Formula": "C<sub>11</sub>H<sub>7</sub>ClN<sub>4</sub>O<sub>2</sub>",
        "Molecular Mass": "262.65",
        "Melting Point": "242 °C"
    }
}