{
    "cas_no": "2039-82-9",
    "key_name": "4-Bromostyrene",
    "cn_name": "4-溴苯乙烯;对溴苯乙烯;",
    "alternate_name": "Benzene, 1-bromo-4-ethenyl-;Styrene, <em>p</em>-bromo-;1-Bromo-4-ethenylbenzene;<em>p</em>-Bromostyrene;4-Bromostyrene;1-(4-Bromophenyl)ethylene;Parabromostyrene;<em>para</em>-Bromostyrene;4-Bromophenylethene;1-Bromo-4-vinylbenzene;NSC 60393;4-Vinyl-1-bromobenzene;4-Vinylphenyl bromide;4-Bromo-1-ethenylbenzene",
    "duplicated_cas_no": "2056117-85-0",
    "SMILES": "C(=C)C1=CC=C(Br)C=C1",
    "meta_data": {
        "InChI": "InChI=1S/C8H7Br/c1-2-7-3-5-8(9)6-4-7/h2-6H,1H2",
        "InChIKey": null,
        "Canonical SMILES": "BrC1=CC=C(C=C)C=C1",
        "Molecular Formula": "C<sub>8</sub>H<sub>7</sub>Br",
        "Molecular Mass": "183.05",
        "Boiling Point": "212 °C",
        "Melting Point": "7.7 °C",
        "Density": "1.356 g/cm³ @ Temp: 20 °C"
    }
}