{
    "cas_no": "14451-99-1",
    "key_name": "2-Naphthalenesulfonic acid, 1,2,3,4-tetrahydro-2-methyl-1,4-dioxo-, compd. with 4,6-dimethyl-2(1<em>H</em>)-pyrimidinone (1:1)",
    "cn_name": "1,2,3,4-四氢-2-甲基-1,4-二氧代-2-萘磺酸与4,6-二甲基-2(1H)-嘧啶酮的化合物;",
    "alternate_name": "2-Naphthalenesulfonic acid, 1,2,3,4-tetrahydro-2-methyl-1,4-dioxo-, compd. with 4,6-dimethyl-2(1<em>H</em>)-pyrimidinone (1:1);2-Naphthalenesulfonic acid, 1,2,3,4-tetrahydro-2-methyl-1,4-dioxo-, compd. with 4,6-dimethyl-2-pyrimidinol (1:1);2-Pyrimidinol, 4,6-dimethyl-, mono(1,2,3,4-tetrahydro-2-methyl-1,4-dioxo-2-naphthalenesulfonate) (salt);2(1<em>H</em>)-Pyrimidinone, 4,6-dimethyl-, mono(1,2,3,4-tetrahydro-2-methyl-1,4-dioxo-2-naphthalenesulfonate);Menadione dimethylpyrimidinol bisulfite;MPB",
    "duplicated_cas_no": "",
    "SMILES": "O=C1C=2C(C(=O)CC1(S(=O)(=O)O)C)=CC=CC2.CC1=CC(C)=NC(=O)N1",
    "meta_data": {
        "InChI": "InChI=1S/C11H10O5S.C6H8N2O/c1-11(17(14,15)16)6-9(12)7-4-2-3-5-8(7)10(11)13;1-4-3-5(2)8-6(9)7-4/h2-5H,6H2,1H3,(H,14,15,16);3H,1-2H3,(H,7,8,9)",
        "InChIKey": null,
        "Canonical SMILES": "O=C1N=C(C=C(N1)C)C.O=C1C=2C=CC=CC2C(=O)C(C)(C1)S(=O)(=O)O",
        "Molecular Formula": "C<sub>11</sub>H<sub>10</sub>O<sub>5</sub>S.C<sub>6</sub>H<sub>8</sub>N<sub>2</sub>O",
        "Molecular Mass": "",
        "Melting Point": "215-217 °C"
    }
}