{
    "cas_no": "98-91-9",
    "key_name": "Thiobenzoic acid",
    "cn_name": "硫代苯甲酸;",
    "alternate_name": "Benzenecarbothioic acid;Benzoic acid, thio-;Benzoic acid, thiono-;Thiobenzoic acid;Benzoyl thiol;Monothiobenzoic acid;NSC 66502;Benzothioic acid",
    "duplicated_cas_no": "",
    "SMILES": "C(=O)(S)C1=CC=CC=C1",
    "meta_data": {
        "InChI": "InChI=1S/C7H6OS/c8-7(9)6-4-2-1-3-5-6/h1-5H,(H,8,9)",
        "InChIKey": null,
        "Canonical SMILES": "O=C(S)C=1C=CC=CC1",
        "Molecular Formula": "C<sub>7</sub>H<sub>6</sub>OS",
        "Molecular Mass": "138.19",
        "Boiling Point": "75 °C @ Press: 3 Torr",
        "Melting Point": "24 °C"
    }
}