{
    "cas_no": "13019-22-2",
    "key_name": "9-Decen-1-ol",
    "cn_name": "9-癸烯-1-醇;9-十烯-1-醇;9-癸烯醇;",
    "alternate_name": "9-Decen-1-ol;Decylenic alcohol;ω-Decen-1-ol;9-Decenol;Rosalva;Trepanol;NSC 103158;1-Hydroxy-9-decene",
    "duplicated_cas_no": "80449-44-1",
    "SMILES": "C(CCCC=C)CCCCO",
    "meta_data": {
        "InChI": "InChI=1S/C10H20O/c1-2-3-4-5-6-7-8-9-10-11/h2,11H,1,3-10H2",
        "InChIKey": null,
        "Canonical SMILES": "OCCCCCCCCC=C",
        "Molecular Formula": "C<sub>10</sub>H<sub>20</sub>O",
        "Molecular Mass": "156.27",
        "Boiling Point": "236 °C",
        "Melting Point": "53-54 °C",
        "Density": "0.8446 g/cm³ @ Temp: 20 °C"
    }
}