{
    "cas_no": "95-57-8",
    "key_name": "2-Chlorophenol",
    "cn_name": "2-氯苯酚;邻氯苯酚;",
    "alternate_name": "Phenol, 2-chloro-;Phenol, <em>o</em>-chloro-;2-Chlorophenol;<em>o</em>-Chlorophenol;2-Hydroxychlorobenzene;1-Chloro-2-hydroxybenzene;<em>o</em>-Chlorophenic acid;NSC 2870;NSC 5725",
    "duplicated_cas_no": "1773488-59-7",
    "SMILES": "ClC1=C(O)C=CC=C1",
    "meta_data": {
        "InChI": "InChI=1S/C6H5ClO/c7-5-3-1-2-4-6(5)8/h1-4,8H",
        "InChIKey": null,
        "Canonical SMILES": "ClC=1C=CC=CC1O",
        "Molecular Formula": "C<sub>6</sub>H<sub>5</sub>ClO",
        "Molecular Mass": "128.56",
        "Boiling Point": "174.9 °C @ Press: 760 Torr",
        "Melting Point": "9.8 °C",
        "Density": "1.2634 g/cm³ @ Temp: 20 °C"
    }
}