{
    "cas_no": "1646-26-0",
    "key_name": "2-Acetylbenzofuran",
    "cn_name": "2-乙酰基苯并呋喃;香豆酮;2-乙酰基苯并[b]呋喃;1-(2-苯并呋喃基)乙酮;",
    "alternate_name": "Ethanone, 1-(2-benzofuranyl)-;Ketone, 2-benzofuranyl methyl;1-(2-Benzofuranyl)ethanone;2-Acetylbenzofuran;2-Acetylcoumarone;Benzo[<em>b</em>]furan-2-yl methyl ketone;2-Benzofuranyl methyl ketone;1-(2-Benzofuryl)-1-ethanone;2-Benzofuryl methyl ketone;2-Acetylbenzo[<em>b</em>]furan;NSC 23974;NSC 28904;1-(Benzofuran-2-yl)ethan-1-one;1-(1-Benzofuran-2-yl)ethanone",
    "duplicated_cas_no": "",
    "SMILES": "C(C)(=O)C1=CC=2C(O1)=CC=CC2",
    "meta_data": {
        "InChI": "InChI=1S/C10H8O2/c1-7(11)10-6-8-4-2-3-5-9(8)12-10/h2-6H,1H3",
        "InChIKey": null,
        "Canonical SMILES": "O=C(C=1OC=2C=CC=CC2C1)C",
        "Molecular Formula": "C<sub>10</sub>H<sub>8</sub>O<sub>2</sub>",
        "Molecular Mass": "160.17",
        "Boiling Point": "118-119 °C @ Press: 5 Torr",
        "Melting Point": "76 °C"
    }
}