{
    "cas_no": "2512-24-5",
    "key_name": "<em>N</em>-(1,1-Dimethylethyl)benzenesulfonamide",
    "cn_name": null,
    "alternate_name": "Benzenesulfonamide, <em>N</em>-(1,1-dimethylethyl)-;Benzenesulfonamide, <em>N</em>-<em>tert</em>-butyl-;<em>N</em>-(1,1-Dimethylethyl)benzenesulfonamide;<em>N</em>-<em>tert</em>-Butylbenzenesulfonamide;<em>tert</em>-Butyl(phenylsulfonyl)amine;<em>tert</em>-Butylaminosulfonylbenzene;NSC 230371",
    "duplicated_cas_no": "",
    "SMILES": "S(NC(C)(C)C)(=O)(=O)C1=CC=CC=C1",
    "meta_data": {
        "InChI": "InChI=1S/C10H15NO2S/c1-10(2,3)11-14(12,13)9-7-5-4-6-8-9/h4-8,11H,1-3H3",
        "InChIKey": null,
        "Canonical SMILES": "O=S(=O)(NC(C)(C)C)C=1C=CC=CC1",
        "Molecular Formula": "C<sub>10</sub>H<sub>15</sub>NO<sub>2</sub>S",
        "Molecular Mass": "213.30",
        "Melting Point": "77-78 °C"
    }
}