{
    "cas_no": "4271-96-9",
    "key_name": "1,4,5,6-Tetrahydro-1,2-dimethylpyrimidine",
    "cn_name": "1,2-二甲基-1,4,5,6-四氢嘧啶;",
    "alternate_name": "Pyrimidine, 1,4,5,6-tetrahydro-1,2-dimethyl-;1,4,5,6-Tetrahydro-1,2-dimethylpyrimidine;1,2-Dimethyl-1,4,5,6-tetrahydropyrimidine;2,3-Dimethyl-3,4,5,6-tetrahydropyrimidine;Addocat 1872",
    "duplicated_cas_no": "",
    "SMILES": "CC=1N(C)CCCN1",
    "meta_data": {
        "InChI": "InChI=1S/C6H12N2/c1-6-7-4-3-5-8(6)2/h3-5H2,1-2H3",
        "InChIKey": null,
        "Canonical SMILES": "N1=C(N(C)CCC1)C",
        "Molecular Formula": "C<sub>6</sub>H<sub>12</sub>N<sub>2</sub>",
        "Molecular Mass": "112.17",
        "Boiling Point": "86-90 °C @ Press: 15 Torr"
    }
}