{
    "cas_no": "6968-24-7",
    "key_name": "2,6-Dibromo-4-methylaniline",
    "cn_name": "2,6-二溴-4-甲基苯胺;",
    "alternate_name": "Benzenamine, 2,6-dibromo-4-methyl-;<em>p</em>-Toluidine, 2,6-dibromo-;2,6-Dibromo-4-methylbenzenamine;2,6-Dibromo-4-methylaniline;2,6-Dibromo-<em>p</em>-toluidine;3,5-Dibromo-4-aminotoluene;2,6-Dibromo-4-toluidine;4-Amino-3,5-dibromotoluene;NSC 20674",
    "duplicated_cas_no": "",
    "SMILES": "NC1=C(Br)C=C(C)C=C1Br",
    "meta_data": {
        "InChI": "InChI=1S/C7H7Br2N/c1-4-2-5(8)7(10)6(9)3-4/h2-3H,10H2,1H3",
        "InChIKey": null,
        "Canonical SMILES": "BrC=1C=C(C=C(Br)C1N)C",
        "Molecular Formula": "C<sub>7</sub>H<sub>7</sub>Br<sub>2</sub>N",
        "Molecular Mass": "264.95",
        "Melting Point": "79 °C"
    }
}