{
    "cas_no": "12057-74-8",
    "key_name": "Magnesium phosphide (Mg<sub>3</sub>P<sub>2</sub>)",
    "cn_name": "磷化镁;二磷化三镁;",
    "alternate_name": "Magnesium phosphide (Mg<sub>3</sub>P<sub>2</sub>);Detiaphos R;Magtoxin;Trimagnesium diphosphide;Magnesium phosphide",
    "duplicated_cas_no": "",
    "SMILES": "[P].[Mg]",
    "meta_data": {
        "InChI": "InChI=1S/Mg.P",
        "InChIKey": null,
        "Canonical SMILES": "[Mg].[P]",
        "Molecular Formula": "Mg.P",
        "Molecular Mass": "",
        "Melting Point": "750 °C",
        "Density": "2.1 g/cm³"
    }
}