{
    "uri": "substance/pt/12057748",
    "rn": "12057-74-8",
    "name": "Magnesium phosphide (Mg<sub>3</sub>P<sub>2</sub>)",
    "images": [],
    "inchi": "InChI=1S/Mg.P",
    "inchiKey": "InChIKey=LWNCNSOPVUCKJL-UHFFFAOYSA-N",
    "smile": "[P].[Mg]",
    "canonicalSmile": "[Mg].[P]",
    "molecularFormula": "Mg.P",
    "molecularMass": "",
    "experimentalProperties": [
        {
            "name": "Melting Point",
            "property": "750 °C",
            "sourceNumber": 1
        },
        {
            "name": "Density",
            "property": "2.1 g/cm³",
            "sourceNumber": 1
        }
    ],
    "propertyCitations": [
        {
            "docUri": "",
            "sourceNumber": 1,
            "source": "International Chemical Safety Cards data were obtained from the National Institute for Occupational Safety and Health (US)"
        }
    ],
    "synonyms": [
        "Magnesium phosphide (Mg<sub>3</sub>P<sub>2</sub>)",
        "Detiaphos R",
        "Magtoxin",
        "Trimagnesium diphosphide",
        "Magnesium phosphide"
    ],
    "replacedRns": [],
    "hasMolfile": true,
    "source": "https://commonchemistry.cas.org/detail?cas_rn=12057-74-8"
}