{
    "cas_no": "63450-84-0",
    "key_name": "Benzoic acid, 4-amino-, methyl ester, hydrochloride (1:1)",
    "cn_name": null,
    "alternate_name": "Benzoic acid, 4-amino-, methyl ester, hydrochloride (1:1);Benzoic acid, 4-amino-, methyl ester, hydrochloride;Methyl <em>p</em>-aminobenzoate hydrochloride;Methyl 4-aminobenzoate hydrochloride",
    "duplicated_cas_no": "2375744-92-4",
    "SMILES": "C(OC)(=O)C1=CC=C(N)C=C1.Cl",
    "meta_data": {
        "InChI": "InChI=1S/C8H9NO2.ClH/c1-11-8(10)6-2-4-7(9)5-3-6;/h2-5H,9H2,1H3;1H",
        "InChIKey": null,
        "Canonical SMILES": "Cl.O=C(OC)C1=CC=C(N)C=C1",
        "Molecular Formula": "C<sub>8</sub>H<sub>9</sub>NO<sub>2</sub>.ClH",
        "Molecular Mass": "",
        "Melting Point": "272 °C"
    }
}