{
    "cas_no": "1836-06-2",
    "key_name": "1-(3-Bromo-4-hydroxyphenyl)ethanone",
    "cn_name": null,
    "alternate_name": "Ethanone, 1-(3-bromo-4-hydroxyphenyl)-;Acetophenone, 3′-bromo-4′-hydroxy-;1-(3-Bromo-4-hydroxyphenyl)ethanone;3′-Bromo-4′-hydroxyacetophenone;1-(3-Bromo-4-hydroxyphenyl)ethan-1-one",
    "duplicated_cas_no": "",
    "SMILES": "C(C)(=O)C1=CC(Br)=C(O)C=C1",
    "meta_data": {
        "InChI": "InChI=1S/C8H7BrO2/c1-5(10)6-2-3-8(11)7(9)4-6/h2-4,11H,1H3",
        "InChIKey": null,
        "Canonical SMILES": "O=C(C1=CC=C(O)C(Br)=C1)C",
        "Molecular Formula": "C<sub>8</sub>H<sub>7</sub>BrO<sub>2</sub>",
        "Molecular Mass": "215.04",
        "Melting Point": "112 °C"
    }
}