{
    "cas_no": "2225-23-2",
    "key_name": "Benzenesulfonothioic acid, 4-methyl-, <em>S</em><sup>1</sup>,<em>S</em><sup>1′</sup>-1,2-ethanediyl ester",
    "cn_name": "二(对-甲苯磺酸)1,2-乙二硫醇酯[活泼亚甲基的保护试剂];",
    "alternate_name": "Benzenesulfonothioic acid, 4-methyl-, <em>S</em><sup>1</sup>,<em>S</em><sup>1′</sup>-1,2-ethanediyl ester;<em>p</em>-Toluenesulfonic acid, thio-, <em>S</em>,<em>S</em>′-ethylene ester;Benzenesulfonothioic acid, 4-methyl-, <em>S</em>,<em>S</em>′-1,2-ethanediyl ester;<em>p</em>-Toluenesulfonic acid, thio-, <em>S</em>,<em>S</em>-ethylene ester;1,2-Ethanedithiol, di-<em>p</em>-toluenesulfonate",
    "duplicated_cas_no": "",
    "SMILES": "S(SCCSS(=O)(=O)C1=CC=C(C)C=C1)(=O)(=O)C2=CC=C(C)C=C2",
    "meta_data": {
        "InChI": "InChI=1S/C16H18O4S4/c1-13-3-7-15(8-4-13)23(17,18)21-11-12-22-24(19,20)16-9-5-14(2)6-10-16/h3-10H,11-12H2,1-2H3",
        "InChIKey": null,
        "Canonical SMILES": "O=S(=O)(SCCSS(=O)(=O)C1=CC=C(C=C1)C)C2=CC=C(C=C2)C",
        "Molecular Formula": "C<sub>16</sub>H<sub>18</sub>O<sub>4</sub>S<sub>4</sub>",
        "Molecular Mass": "402.57",
        "Melting Point": "76 °C"
    }
}