{
    "cas_no": "1838-94-4",
    "key_name": "2-Methyl-2-vinyloxirane",
    "cn_name": "单氧化异戊二烯;一氧化异戊二烯;单氧化异戊二烯,97%;",
    "alternate_name": "Oxirane, 2-ethenyl-2-methyl-;1-Butene, 3,4-epoxy-3-methyl-;2-Ethenyl-2-methyloxirane;3,4-Epoxy-3-methyl-1-butene;3-Methyl-3,4-oxido-1-butene;Isoprene epoxide;1,2-Epoxy-2-methyl-3-butene;2-Methyl-2-vinyloxirane;2-Methyl-2-vinyloxacyclopropane;2-Vinylpropylene oxide;2-Methyl-2-vinylepoxide;NSC 48598;Isoprene oxide",
    "duplicated_cas_no": "86777-83-5",
    "SMILES": "C(=C)C1(C)CO1",
    "meta_data": {
        "InChI": "InChI=1S/C5H8O/c1-3-5(2)4-6-5/h3H,1,4H2,2H3",
        "InChIKey": null,
        "Canonical SMILES": "O1CC1(C=C)C",
        "Molecular Formula": "C<sub>5</sub>H<sub>8</sub>O",
        "Molecular Mass": "84.12",
        "Boiling Point": "78.5-79 °C",
        "Density": "0.8547 g/cm³ @ Temp: 20 °C"
    }
}