{
    "cas_no": "403-42-9",
    "key_name": "4′-Fluoroacetophenone",
    "cn_name": "4-氟苯乙酮;",
    "alternate_name": "Ethanone, 1-(4-fluorophenyl)-;Acetophenone, 4′-fluoro-;1-(4-Fluorophenyl)ethanone;<em>p</em>-Fluoroacetophenone;4′-Fluoroacetophenone;1-Acetyl-4-fluorobenzene;Methyl 4-fluorophenyl ketone;4-Acetylfluorobenzene;4-Fluorophenyl methyl ketone;1-(4-Fluorophenyl)ethan-1-one;4-Acetylphenyl fluoride;NSC 30635;<em>p</em>-Fluorophenyl methyl ketone;<em>p</em>-Fluorohypnone;4-Flouroacetophenone",
    "duplicated_cas_no": "",
    "SMILES": "C(C)(=O)C1=CC=C(F)C=C1",
    "meta_data": {
        "InChI": "InChI=1S/C8H7FO/c1-6(10)7-2-4-8(9)5-3-7/h2-5H,1H3",
        "InChIKey": null,
        "Canonical SMILES": "O=C(C1=CC=C(F)C=C1)C",
        "Molecular Formula": "C<sub>8</sub>H<sub>7</sub>FO",
        "Molecular Mass": "138.14",
        "Boiling Point": "196 °C",
        "Melting Point": "-45 °C",
        "Density": "1.043 g/cm³ @ Temp: 30 °C"
    }
}