{
    "cas_no": "29964-84-9",
    "key_name": "Isodecyl methacrylate",
    "cn_name": "甲基丙烯酸异癸酯;2-甲基-2-丙烯酸异癸酯;",
    "alternate_name": "2-Propenoic acid, 2-methyl-, isodecyl ester;Methacrylic acid, isodecyl ester;Isodecyl methacrylate;Light Ester ID;SR 242;Bisomer IDMA;Visiomer IDMA;Miramer M 131",
    "duplicated_cas_no": "107314-10-3;32242-10-7;62649-73-4;78747-49-6;884998-06-5",
    "SMILES": "",
    "meta_data": {
        "InChI": "",
        "InChIKey": null,
        "Canonical SMILES": "",
        "Molecular Formula": "C<sub>14</sub>H<sub>26</sub>O<sub>2</sub>",
        "Molecular Mass": "",
        "Boiling Point": "120 °C @ Press: 3 Torr",
        "Density": "1 x 10<sup>-6</sup> g/cm³ @ Temp: 25 °C"
    }
}