{
    "cas_no": "2314-78-5",
    "key_name": "<em>N</em>-Ethylsuccinimide",
    "cn_name": "N-乙基琥珀酰亚胺;N-乙基琥珀酰亚胺;",
    "alternate_name": "2,5-Pyrrolidinedione, 1-ethyl-;Succinimide, <em>N</em>-ethyl-;1-Ethyl-2,5-pyrrolidinedione;<em>N</em>-Ethylsuccinimide;NSC 38693",
    "duplicated_cas_no": "",
    "SMILES": "C(C)N1C(=O)CCC1=O",
    "meta_data": {
        "InChI": "InChI=1S/C6H9NO2/c1-2-7-5(8)3-4-6(7)9/h2-4H2,1H3",
        "InChIKey": null,
        "Canonical SMILES": "O=C1N(C(=O)CC1)CC",
        "Molecular Formula": "C<sub>6</sub>H<sub>9</sub>NO<sub>2</sub>",
        "Molecular Mass": "127.14",
        "Boiling Point": "236 °C",
        "Melting Point": "26 °C"
    }
}