{
    "cas_no": "42059-80-3",
    "key_name": "3-Formyl-6-nitrochromone",
    "cn_name": "3-甲酰-6-硝基色酮;6-硝基-4-氧-4H-1-苯并吡喃-3-甲醛;",
    "alternate_name": "4<em>H</em>-1-Benzopyran-3-carboxaldehyde, 6-nitro-4-oxo-;6-Nitro-4-oxo-4<em>H</em>-1-benzopyran-3-carboxaldehyde;6-Nitrochromone-3-carboxaldehyde;3-Formyl-6-nitrochromone;6-Nitro-4-oxo-4<em>H</em>-chromene-3-carbaldehyde",
    "duplicated_cas_no": "",
    "SMILES": "O=C1C=2C(=CC=C(N(=O)=O)C2)OC=C1C=O",
    "meta_data": {
        "InChI": "InChI=1S/C10H5NO5/c12-4-6-5-16-9-2-1-7(11(14)15)3-8(9)10(6)13/h1-5H",
        "InChIKey": null,
        "Canonical SMILES": "O=CC1=COC2=CC=C(C=C2C1=O)N(=O)=O",
        "Molecular Formula": "C<sub>10</sub>H<sub>5</sub>NO<sub>5</sub>",
        "Molecular Mass": "219.15",
        "Melting Point": "161 °C"
    }
}