{
    "cas_no": "22162-22-7",
    "key_name": "1-Bromo-2,3-dimethyl-5-nitrobenzene",
    "cn_name": null,
    "alternate_name": "Benzene, 1-bromo-2,3-dimethyl-5-nitro-;<em>o</em>-Xylene, 3-bromo-5-nitro-;1-Bromo-2,3-dimethyl-5-nitrobenzene",
    "duplicated_cas_no": "",
    "SMILES": "N(=O)(=O)C1=CC(Br)=C(C)C(C)=C1",
    "meta_data": {
        "InChI": "InChI=1S/C8H8BrNO2/c1-5-3-7(10(11)12)4-8(9)6(5)2/h3-4H,1-2H3",
        "InChIKey": null,
        "Canonical SMILES": "O=N(=O)C1=CC(Br)=C(C(=C1)C)C",
        "Molecular Formula": "C<sub>8</sub>H<sub>8</sub>BrNO<sub>2</sub>",
        "Molecular Mass": "230.06",
        "Melting Point": "101 °C"
    }
}