{
    "cas_no": "2445-82-1",
    "key_name": "3-Methyl-2<em>H</em>-1-benzopyran-2-one",
    "cn_name": null,
    "alternate_name": "2<em>H</em>-1-Benzopyran-2-one, 3-methyl-;Coumarin, 3-methyl-;3-Methyl-2<em>H</em>-1-benzopyran-2-one;3-Methylcoumarin;NSC 65664;3-Methyl-2<em>H</em>-chromen-2-one",
    "duplicated_cas_no": "",
    "SMILES": "CC1=CC=2C(OC1=O)=CC=CC2",
    "meta_data": {
        "InChI": "InChI=1S/C10H8O2/c1-7-6-8-4-2-3-5-9(8)12-10(7)11/h2-6H,1H3",
        "InChIKey": null,
        "Canonical SMILES": "O=C1OC=2C=CC=CC2C=C1C",
        "Molecular Formula": "C<sub>10</sub>H<sub>8</sub>O<sub>2</sub>",
        "Molecular Mass": "160.17",
        "Boiling Point": "292.5 °C",
        "Melting Point": "91 °C"
    }
}