{
    "cas_no": "104-47-2",
    "key_name": "(4-Methoxyphenyl)acetonitrile",
    "cn_name": "对甲氧基苯乙腈;",
    "alternate_name": "Benzeneacetonitrile, 4-methoxy-;Acetonitrile, (<em>p</em>-methoxyphenyl)-;4-Methoxybenzeneacetonitrile;<em>p</em>-Methoxybenzyl cyanide;(<em>p</em>-Methoxyphenyl)acetonitrile;<em>p</em>-Methoxybenzeneacetonitrile;(4-Methoxyphenyl)acetonitrile;<em>p</em>-Anisylacetonitrile;4-Methoxybenzyl cyanide;NSC 96;<em>p</em>-Methoxybenzylnitrile;2-(4-Methoxyphenyl)acetonitrile;PAI 106;1-(Cyanomethyl)-4-methoxybenzene",
    "duplicated_cas_no": "",
    "SMILES": "C(C#N)C1=CC=C(OC)C=C1",
    "meta_data": {
        "InChI": "InChI=1S/C9H9NO/c1-11-9-4-2-8(3-5-9)6-7-10/h2-5H,6H2,1H3",
        "InChIKey": null,
        "Canonical SMILES": "N#CCC1=CC=C(OC)C=C1",
        "Molecular Formula": "C<sub>9</sub>H<sub>9</sub>NO",
        "Molecular Mass": "147.17",
        "Boiling Point": "286.5 °C"
    }
}