{
    "cas_no": "2173-56-0",
    "key_name": "Pentyl pentanoate",
    "cn_name": "戊酸戊酯;",
    "alternate_name": "Pentanoic acid, pentyl ester;Valeric acid, pentyl ester;Amyl valerate;Amyl valerianate;Pentyl valerate;Pentyl pentanoate;1-Pentyl <em>n</em>-valerate;<em>n</em>-Pentyl pentanoate;NSC 76414",
    "duplicated_cas_no": "",
    "SMILES": "O(C(CCCC)=O)CCCCC",
    "meta_data": {
        "InChI": "InChI=1S/C10H20O2/c1-3-5-7-9-12-10(11)8-6-4-2/h3-9H2,1-2H3",
        "InChIKey": null,
        "Canonical SMILES": "O=C(OCCCCC)CCCC",
        "Molecular Formula": "C<sub>10</sub>H<sub>20</sub>O<sub>2</sub>",
        "Molecular Mass": "172.26",
        "Boiling Point": "203.7 °C",
        "Melting Point": "-78.8 °C"
    }
}