{
    "cas_no": "3634-56-8",
    "key_name": "Chlorodimethyl(1-methylethyl)silane",
    "cn_name": null,
    "alternate_name": "Silane, chlorodimethyl(1-methylethyl)-;Silane, chloroisopropyldimethyl-;Chlorodimethyl(1-methylethyl)silane;Dimethylisopropylchlorosilane;Dimethylisopropylsilyl chloride;Isopropyldimethylchlorosilane;Chloroisopropyldimethylsilane;Isopropyldimethylsilyl chloride;Chlorodimethylisopropylsilane",
    "duplicated_cas_no": "",
    "SMILES": "[Si](C(C)C)(C)(C)Cl",
    "meta_data": {
        "InChI": "InChI=1S/C5H13ClSi/c1-5(2)7(3,4)6/h5H,1-4H3",
        "InChIKey": null,
        "Canonical SMILES": "Cl[Si](C)(C)C(C)C",
        "Molecular Formula": "C<sub>5</sub>H<sub>13</sub>ClSi",
        "Molecular Mass": "136.70",
        "Boiling Point": "114 °C",
        "Density": "0.873 g/cm³"
    }
}