{
    "cas_no": "13721-01-2",
    "key_name": "1,4-Dihydro-4-oxo-3-quinolinecarboxylic acid",
    "cn_name": null,
    "alternate_name": "3-Quinolinecarboxylic acid, 1,4-dihydro-4-oxo-;1,4-Dihydro-4-oxo-3-quinolinecarboxylic acid;4-Quinolone-3-carboxylic acid;4-Oxo-1,4-dihydroquinoline-3-carboxylic acid",
    "duplicated_cas_no": "",
    "SMILES": "O=C1C=2C(NC=C1C(O)=O)=CC=CC2",
    "meta_data": {
        "InChI": "InChI=1S/C10H7NO3/c12-9-6-3-1-2-4-8(6)11-5-7(9)10(13)14/h1-5H,(H,11,12)(H,13,14)",
        "InChIKey": null,
        "Canonical SMILES": "O=C(O)C1=CNC=2C=CC=CC2C1=O",
        "Molecular Formula": "C<sub>10</sub>H<sub>7</sub>NO<sub>3</sub>",
        "Molecular Mass": "189.17",
        "Melting Point": "269-270 °C"
    }
}