{
    "cas_no": "491-80-5",
    "key_name": "Biochanin",
    "cn_name": "5,7-二羟基-4\"-甲氧基异黄酮;鸡豆黄素A;",
    "alternate_name": "4<em>H</em>-1-Benzopyran-4-one, 5,7-dihydroxy-3-(4-methoxyphenyl)-;Biochanin A;Isoflavone, 5,7-dihydroxy-4′-methoxy-;5,7-Dihydroxy-3-(4-methoxyphenyl)-4<em>H</em>-1-benzopyran-4-one;5,7-Dihydroxy-4′-methoxyisoflavone;Genistein 4-methyl ether;4′-Methylgenistein;(-)-5,7-Dihydroxy-4′-methoxyisoflavone;Biochanin;Olmelin;Genistein 4′-methyl ether;NSC 123538",
    "duplicated_cas_no": "",
    "SMILES": "O=C1C=2C(OC=C1C3=CC=C(OC)C=C3)=CC(O)=CC2O",
    "meta_data": {
        "InChI": "InChI=1S/C16H12O5/c1-20-11-4-2-9(3-5-11)12-8-21-14-7-10(17)6-13(18)15(14)16(12)19/h2-8,17-18H,1H3",
        "InChIKey": null,
        "Canonical SMILES": "O=C1C(=COC=2C=C(O)C=C(O)C12)C=3C=CC(OC)=CC3",
        "Molecular Formula": "C<sub>16</sub>H<sub>12</sub>O<sub>5</sub>",
        "Molecular Mass": "284.26",
        "Boiling Point": "340-355 °C @ Press: 0.5 Torr",
        "Melting Point": "215 °C"
    }
}