{
    "cas_no": "73-48-3",
    "key_name": "Bendroflumethiazide",
    "cn_name": null,
    "alternate_name": "2<em>H</em>-1,2,4-Benzothiadiazine-7-sulfonamide, 3,4-dihydro-3-(phenylmethyl)-6-(trifluoromethyl)-, 1,1-dioxide;2<em>H</em>-1,2,4-Benzothiadiazine-7-sulfonamide, 3-benzyl-3,4-dihydro-6-(trifluoromethyl)-, 1,1-dioxide;Aprinox;Bendrofluazide;Bendroflumethiazide;Bentride;Benuron;Benzhydroflumethiazide;3-Benzyl-3,4-dihydro-7-sulfamoyl-6-trifluoromethylbenzo-1,2,4-thiadiazine 1,1-dioxide;3-Benzyl-3,4-dihydro-7-sulphamoyl-6-trifluoromethylbenzo-1,2,4-thiadiazine 1,1-dioxide;3-Benzyl-3,4-dihydro-6-(trifluoromethyl)-2<em>H</em>-1,2,4-benzothiadiazine-7-sulfonamide 1,1-dioxide;Benzylhydroflumethiazide;Benzylrodiuran;3-Benzyl-6-trifluoromethyl-7-sulfamoyl-3,4-dihydro-1,2,4-benzothiadiazine 1,1-dioxide;Centyl;Intolex;Nateretin;Naturetin;Naturine;Neonaclex;Pluryl;Plusuril;Repicin;Salures;Thiazidico;6-Trifluoromethyl-3-benzyl-7-sulfamyl-3,4-dihydro-1,2,4-benzothiadiazine 1,1-dioxide;Benzidroflumetiazide;Bristuric;Bristuron;Flumesil;Niagaril;Pluryle;Poliuron;Relan;Salural;Sodiuretic;Urlea;Orsile;Livesan;FT 81;Be 724A;Sinesalin;Neo-Rontyl;Sinesaline;(±)-Bendroflumethiazide;Racemic bendroflumethiazide;Rauzide;Benzy-Rodiuran;Benzydroflumethiazide;Corzide;Naigaril;Nikion;Berkozide;Relan Beta;Flumersil;MeSH ID: D001539",
    "duplicated_cas_no": "96782-79-5",
    "SMILES": "O=S1(=O)C=2C(=CC(C(F)(F)F)=C(S(N)(=O)=O)C2)NC(CC3=CC=CC=C3)N1",
    "meta_data": {
        "InChI": "InChI=1S/C15H14F3N3O4S2/c16-15(17,18)10-7-11-13(8-12(10)26(19,22)23)27(24,25)21-14(20-11)6-9-4-2-1-3-5-9/h1-5,7-8,14,20-21H,6H2,(H2,19,22,23)",
        "InChIKey": null,
        "Canonical SMILES": "O=S(=O)(N)C1=CC2=C(C=C1C(F)(F)F)NC(NS2(=O)=O)CC=3C=CC=CC3",
        "Molecular Formula": "C<sub>15</sub>H<sub>14</sub>F<sub>3</sub>N<sub>3</sub>O<sub>4</sub>S<sub>2</sub>",
        "Molecular Mass": "421.41",
        "Melting Point": "221-223 °C"
    }
}