{
    "cas_no": "17350-84-4",
    "key_name": "α-Methyl-<span class=\"text-smallcaps\">D</span>-phenylalanine",
    "cn_name": null,
    "alternate_name": "<span class=\"text-smallcaps\">D</span>-Phenylalanine, α-methyl-;Alanine, 2-methyl-3-phenyl-, <span class=\"text-smallcaps\">D</span>-;α-Methyl-<span class=\"text-smallcaps\">D</span>-phenylalanine;(<em>R</em>)-α-Methylphenylalanine;<span class=\"text-smallcaps\">D</span>-α-Methylphenylalanine;(<em>R</em>)-(+)-α-Methylphenylalanine;(<em>R</em>)-2-Amino-2-methyl-3-phenylpropionic acid;(r)-2-Amino-2-methyl-3-phenylpropanoic acid;(2R)-2-Amino-2-methyl-3-phenylpropanoic acid;(R)-2-Amino-2-methyl-3-phenylpropanoicacid",
    "duplicated_cas_no": "",
    "SMILES": "C([C@@](C(O)=O)(C)N)C1=CC=CC=C1",
    "meta_data": {
        "InChI": "InChI=1S/C10H13NO2/c1-10(11,9(12)13)7-8-5-3-2-4-6-8/h2-6H,7,11H2,1H3,(H,12,13)/t10-/m1/s1",
        "InChIKey": null,
        "Canonical SMILES": "O=C(O)C(N)(C)CC=1C=CC=CC1",
        "Molecular Formula": "C<sub>10</sub>H<sub>13</sub>NO<sub>2</sub>",
        "Molecular Mass": "179.22",
        "Melting Point": "277-279 °C"
    }
}