{
    "cas_no": "219909-83-8",
    "key_name": "Benzoic acid, 3-[[[(2<em>S</em>,4<em>S</em>)-4-mercapto-2-pyrrolidinyl]carbonyl]amino]-, hydrochloride (1:1)",
    "cn_name": "3-[(2S,4S)-4-巯基吡咯烷-2-羰酰胺基]苯甲酸盐酸盐;",
    "alternate_name": "Benzoic acid, 3-[[[(2<em>S</em>,4<em>S</em>)-4-mercapto-2-pyrrolidinyl]carbonyl]amino]-, hydrochloride (1:1);Benzoic acid, 3-[[[(2<em>S</em>,4<em>S</em>)-4-mercapto-2-pyrrolidinyl]carbonyl]amino]-, monohydrochloride",
    "duplicated_cas_no": "",
    "SMILES": "C(NC1=CC(C(O)=O)=CC=C1)(=O)[C@@H]2C[C@H](S)CN2.Cl",
    "meta_data": {
        "InChI": "InChI=1S/C12H14N2O3S.ClH/c15-11(10-5-9(18)6-13-10)14-8-3-1-2-7(4-8)12(16)17;/h1-4,9-10,13,18H,5-6H2,(H,14,15)(H,16,17);1H/t9-,10-;/m0./s1",
        "InChIKey": null,
        "Canonical SMILES": "Cl.O=C(O)C=1C=CC=C(C1)NC(=O)C2NCC(S)C2",
        "Molecular Formula": "C<sub>12</sub>H<sub>14</sub>N<sub>2</sub>O<sub>3</sub>S.ClH",
        "Molecular Mass": "",
        "Melting Point": "212 °C"
    }
}