{
    "cas_no": "96-96-8",
    "key_name": "4-Methoxy-2-nitroaniline",
    "cn_name": "4-甲氧基-2-硝基苯胺;",
    "alternate_name": "Benzenamine, 4-methoxy-2-nitro-;<em>p</em>-Anisidine, 2-nitro-;4-Methoxy-2-nitrobenzenamine;Amarthol Fast Bordeaux GP Base;Amarthol Fast Bordeaux GP Salt;Atul Fast Bordeaux GP Base;Azobase NAS;Azoene Fast Bordeaux GP Base;Azoene Fast Bordeaux GP Salt;Azofix Bordeaux GP;Azogene Fast Bordeaux G;Bordeaux Base Ciba IV;Bordeaux Base Irga IV;Bordeaux Base NGP;Bordeaux GP Base;Bordeaux GP Salt;Bordeaux GPS Salt;Bordeaux Salt Ciba IV;Bordeaux Salt NGP;Brentamine Fast Bordeaux GP Base;Daito Bordeaux Base GP;Daito Bordeaux Salt GP;Devol Bordeaux B;Devol Bordeaux GP Salt;Diabase Bordeaux GP;Diasalt Bordeaux GP;Durgasol Bordeaux GP Salt;Fast Bordeaux Base J;Fast Bordeaux Base GP;Fast Bordeaux GDN;Fast Bordeaux 3NA Base;Fast Bordeaux GP;Fast Bordeaux GP Base;Fast Bordeaux Salt J;Fast Bordeaux Salt GP;Fast Bordeaux Salt GPN;Hansol Bordeaux GP Salt;Hiltonil Fast Bordeaux GP Base;Hiltosal Fast Bordeaux GP Salt;Hindasol Bordeaux GP Salt;Kako Bordeaux GP Base;Kako Bordeaux GP Salt;Kayaku Fast Bordeaux GP Base;Kayaku Fast Bordeaux Salt GP;Mitsui Bordeaux GP Base;Mitsui Bordeaux GP Salt;Naphthanil Bordeaux GP Base;Naphthanil Diazo Bordeaux GP;Naphtoelan Fast Bordeaux GP Base;Naphtoelan Fast Bordeaux GP Salt;Natasol Bordeaux GP Salt;Pharmasol Bordeaux GP;Pharmazoid Bordeaux GP;Sanyo Fast Bordeaux GP Base;Sanyo Fast Bordeaux Salt GP;Shinnippon Fast Bordeaux GP Base;Sugai Fast Bordeaux GP Base;Symulon Bordeaux GP Base;Tulabase Fast Bordeaux GP;4-Methoxy-2-nitroaniline;2-Nitro-<em>p</em>-anisidine;2-Nitro-4-methoxyaniline;4-Amino-3-nitroanisole;3-Nitro-4-aminoanisole;Fast Bordeaux GDN base;Lake Maroon B base;Naphthosol Fast Bordeaux GP Salt;Acco Fast Bordeaux GP salt;Fast Bordeaux GP-T Base;1-Amino-2-nitro-4-methoxybenzene;4-Methoxy-<em>o</em>-nitroaniline;4-Amino-1-methoxy-3-nitrobenzene;<em>o</em>-Nitro-<em>p</em>-anisidine;4-Methoxy-2-nitrophenylamine;NSC 5509;2-Nitro-4-methoxybenzenamine;<em>p</em>-Methoxy-<em>o</em>-nitroaniline",
    "duplicated_cas_no": "",
    "SMILES": "N(=O)(=O)C1=CC(OC)=CC=C1N",
    "meta_data": {
        "InChI": "InChI=1S/C7H8N2O3/c1-12-5-2-3-6(8)7(4-5)9(10)11/h2-4H,8H2,1H3",
        "InChIKey": null,
        "Canonical SMILES": "O=N(=O)C1=CC(OC)=CC=C1N",
        "Molecular Formula": "C<sub>7</sub>H<sub>8</sub>N<sub>2</sub>O<sub>3</sub>",
        "Molecular Mass": "168.15",
        "Melting Point": "124 °C"
    }
}