{
    "cas_no": "36847-51-5",
    "key_name": "Butanoic acid, 2,4-dibromo-, ethyl ester",
    "cn_name": "2,4-二溴丁酸乙酯;",
    "alternate_name": "Butanoic acid, 2,4-dibromo-, ethyl ester;Butyric acid, 2,4-dibromo-, ethyl ester;Ethyl 2,4-dibromobutyrate;Ethyl α,γ-dibromobutyrate;Ethyl 2,4-dibromobutanoate;NSC 60691",
    "duplicated_cas_no": "2172801-93-1",
    "SMILES": "C(C(OCC)=O)(CCBr)Br",
    "meta_data": {
        "InChI": "InChI=1S/C6H10Br2O2/c1-2-10-6(9)5(8)3-4-7/h5H,2-4H2,1H3",
        "InChIKey": null,
        "Canonical SMILES": "O=C(OCC)C(Br)CCBr",
        "Molecular Formula": "C<sub>6</sub>H<sub>10</sub>Br<sub>2</sub>O<sub>2</sub>",
        "Molecular Mass": "273.95",
        "Boiling Point": "149-150 °C @ Press: 52 Torr",
        "Density": "1.6871 g/cm³ @ Temp: 20 °C"
    }
}