{
    "cas_no": "14933-78-9",
    "key_name": "4-Nitropicolinic acid <em>N</em>-oxide",
    "cn_name": "4-硝基吡啶-2-甲酸1-氧化物;",
    "alternate_name": "2-Pyridinecarboxylic acid, 4-nitro-, 1-oxide;Picolinic acid, 4-nitro-, 1-oxide;4-Nitro-2-pyridinecarboxylic acid 1-oxide;2-Carboxy-4-nitropyridine <em>N</em>-oxide;4-Nitropicolinic acid <em>N</em>-oxide;NSC 63059;2-Carboxy-4-nitropyridin-1-ium-1-olate;2-Carboxy-4-nitropyridine-1-oxide",
    "duplicated_cas_no": "",
    "SMILES": "C(O)(=O)C1=CC(N(=O)=O)=CC=N1=O",
    "meta_data": {
        "InChI": "InChI=1S/C6H4N2O5/c9-6(10)5-3-4(8(12)13)1-2-7(5)11/h1-3H,(H,9,10)",
        "InChIKey": null,
        "Canonical SMILES": "O=C(O)C1=CC(=CC=N1=O)N(=O)=O",
        "Molecular Formula": "C<sub>6</sub>H<sub>4</sub>N<sub>2</sub>O<sub>5</sub>",
        "Molecular Mass": "184.11",
        "Melting Point": "148 °C"
    }
}