{
    "cas_no": "37718-11-9",
    "key_name": "Pyrazole-4-carboxylic acid",
    "cn_name": "1H-吡唑-4-甲酸;",
    "alternate_name": "1<em>H</em>-Pyrazole-4-carboxylic acid;Pyrazole-4-carboxylic acid;4-Carboxypyrazole",
    "duplicated_cas_no": "",
    "SMILES": "C(O)(=O)C=1C=NNC1",
    "meta_data": {
        "InChI": "InChI=1S/C4H4N2O2/c7-4(8)3-1-5-6-2-3/h1-2H,(H,5,6)(H,7,8)",
        "InChIKey": null,
        "Canonical SMILES": "O=C(O)C=1C=NNC1",
        "Molecular Formula": "C<sub>4</sub>H<sub>4</sub>N<sub>2</sub>O<sub>2</sub>",
        "Molecular Mass": "112.09",
        "Melting Point": "279-280 °C (decomp)"
    }
}