{
    "cas_no": "25660-70-2",
    "key_name": "5-(Ethylthio)-1,3,4-thiadiazol-2-amine",
    "cn_name": "2-氨基-5-(乙基硫代)-1,3,4-噻二唑;",
    "alternate_name": "1,3,4-Thiadiazol-2-amine, 5-(ethylthio)-;1,3,4-Thiadiazole, 2-amino-5-(ethylthio)-;5-(Ethylthio)-1,3,4-thiadiazol-2-amine;2-Amino-5-ethylthio-1,3,4-thiadiazole;5-Amino-2-(ethylthio)-1,3,4-thiadiazole;NSC 522480;2-Amino-5-ethylsulfanyl-1,3,4-thiadiazole",
    "duplicated_cas_no": "",
    "SMILES": "S(CC)C=1SC(N)=NN1",
    "meta_data": {
        "InChI": "InChI=1S/C4H7N3S2/c1-2-8-4-7-6-3(5)9-4/h2H2,1H3,(H2,5,6)",
        "InChIKey": null,
        "Canonical SMILES": "N=1N=C(SC1SCC)N",
        "Molecular Formula": "C<sub>4</sub>H<sub>7</sub>N<sub>3</sub>S<sub>2</sub>",
        "Molecular Mass": "161.25",
        "Melting Point": "136-137 °C"
    }
}