{
    "cas_no": "1492-24-6",
    "key_name": "(+)-α-Aminobutyric acid",
    "cn_name": "L-2-氨基丁酸;",
    "alternate_name": "Butanoic acid, 2-amino-, (2<em>S</em>)-;Butyric acid, 2-amino-, <span class=\"text-smallcaps\">L</span>-;Butanoic acid, 2-amino-, (<em>S</em>)-;(2<em>S</em>)-2-Aminobutanoic acid;<span class=\"text-smallcaps\">L</span>-α-Amino-<em>n</em>-butyric acid;<span class=\"text-smallcaps\">L</span>-α-Aminobutyric acid;<span class=\"text-smallcaps\">L</span>-Butyrine;<span class=\"text-smallcaps\">L</span>-2-Aminobutyric acid;(<em>S</em>)-2-Aminobutyric acid;(<em>S</em>)-(+)-α-Aminobutyric acid;<em>S</em>-Butyrine;<span class=\"text-smallcaps\">L</span>-2-Amino-<em>n</em>-butyric acid;<span class=\"text-smallcaps\">L</span>-2-Aminobutanoic acid;(<em>S</em>)-2-Aminobutanoic acid;<span class=\"text-smallcaps\">L</span>-Ethylglycine;2-Aminobutyric acid;(+)-2-Aminobutyric acid;(+)-α-Aminobutyric acid;NSC 97060;(+)-2-Aminobutanoic acid;<span class=\"text-smallcaps\">L</span>-Homoalanine;Aminobutyric acid, 2-",
    "duplicated_cas_no": "1013313-51-3",
    "SMILES": "[C@@H](C(O)=O)(CC)N",
    "meta_data": {
        "InChI": "InChI=1S/C4H9NO2/c1-2-3(5)4(6)7/h3H,2,5H2,1H3,(H,6,7)/t3-/m0/s1",
        "InChIKey": null,
        "Canonical SMILES": "O=C(O)C(N)CC",
        "Molecular Formula": "C<sub>4</sub>H<sub>9</sub>NO<sub>2</sub>",
        "Molecular Mass": "103.12",
        "Melting Point": "270-280 °C"
    }
}