{
    "cas_no": "5066-78-4",
    "key_name": "Chasmanine",
    "cn_name": null,
    "alternate_name": "Aconitane-8,14-diol, 20-ethyl-1,6,16-trimethoxy-4-(methoxymethyl)-, (1α,6α,14α,16β)-;Chasmanine;(1α,6α,14α,16β)-20-Ethyl-1,6,16-trimethoxy-4-(methoxymethyl)aconitane-8,14-diol;Toroko Base II;Chasmanin;Talitasamine",
    "duplicated_cas_no": "38146-47-3",
    "SMILES": "O(C)[C@@H]1[C@@]23[C@]4([C@](COC)(CN(CC)[C@@]2([C@]([C@@H]4OC)([C@]5(O)[C@@]6([C@]3(C[C@@]([C@@H]6O)([C@@H](OC)C5)[H])[H])[H])[H])[H])CC1)[H]",
    "meta_data": {
        "InChI": "InChI=1S/C25H41NO6/c1-6-26-11-23(12-29-2)8-7-16(31-4)25-14-9-13-15(30-3)10-24(28,17(14)19(13)27)18(22(25)26)20(32-5)21(23)25/h13-22,27-28H,6-12H2,1-5H3/t13-,14-,15+,16+,17-,18+,19+,20+,21-,22-,23+,24-,25+/m1/s1",
        "InChIKey": null,
        "Canonical SMILES": "OC1C2CC3C1C(O)(CC2OC)C4C(OC)C5C6(COC)CN(CC)C4C35C(OC)CC6",
        "Molecular Formula": "C<sub>25</sub>H<sub>41</sub>NO<sub>6</sub>",
        "Molecular Mass": "451.60",
        "Melting Point": "90-91 °C"
    }
}