{
    "cas_no": "2987-16-8",
    "key_name": "3,3-Dimethylbutanal",
    "cn_name": "3,3-二甲基丁醛;",
    "alternate_name": "Butanal, 3,3-dimethyl-;Butyraldehyde, 3,3-dimethyl-;3,3-Dimethylbutanal;3,3-Dimethylbutyraldehyde;<em>tert</em>-Butylacetaldehyde;3-Methyl-isovaleraldehyde;2-<em>tert</em>-Butylacetaldehyde",
    "duplicated_cas_no": "",
    "SMILES": "C(C(C)(C)C)C=O",
    "meta_data": {
        "InChI": "InChI=1S/C6H12O/c1-6(2,3)4-5-7/h5H,4H2,1-3H3",
        "InChIKey": null,
        "Canonical SMILES": "O=CCC(C)(C)C",
        "Molecular Formula": "C<sub>6</sub>H<sub>12</sub>O",
        "Molecular Mass": "100.16",
        "Boiling Point": "98.5-99.5 °C",
        "Density": "0.8184 g/cm³ @ Temp: 25 °C"
    }
}