{
    "cas_no": "3891-33-6",
    "key_name": "Butanediol divinyl ether",
    "cn_name": "1,4-丁二醇乙烯醚;",
    "alternate_name": "Butane, 1,4-bis(ethenyloxy)-;Butane, 1,4-bis(vinyloxy)-;1,4-Bis(ethenyloxy)butane;Butanediol divinyl ether;1,4-Divinyloxybutane;1,4-Bis(vinyloxy)butane;1,4-Butanediol divinyl ether;Rapi-Cure BDVE;NSC 43556;Rapi-Cure DVB 1D;DVB 1D;Butylene glycol divinyl ether;1,4-Butandiol divinyl ether;1,4-Butylene glycol vinyl diether;1,4-Butylene glycol divinyl ether",
    "duplicated_cas_no": "",
    "SMILES": "C(CCOC=C)COC=C",
    "meta_data": {
        "InChI": "InChI=1S/C8H14O2/c1-3-9-7-5-6-8-10-4-2/h3-4H,1-2,5-8H2",
        "InChIKey": null,
        "Canonical SMILES": "O(C=C)CCCCOC=C",
        "Molecular Formula": "C<sub>8</sub>H<sub>14</sub>O<sub>2</sub>",
        "Molecular Mass": "142.20",
        "Boiling Point": "75 °C @ Press: 25 Torr",
        "Density": "0.8985 g/cm³ @ Temp: 20 °C"
    }
}