{
    "cas_no": "33560-48-4",
    "key_name": "2-Chloro-<em>N</em>-(3,5-dichlorophenyl)acetamide",
    "cn_name": null,
    "alternate_name": "Acetamide, 2-chloro-<em>N</em>-(3,5-dichlorophenyl)-;Acetanilide, 2,3′,5′-trichloro-;2-Chloro-<em>N</em>-(3,5-dichlorophenyl)acetamide;Chloroacetic acid 3,5-dichloroanilide",
    "duplicated_cas_no": "",
    "SMILES": "N(C(CCl)=O)C1=CC(Cl)=CC(Cl)=C1",
    "meta_data": {
        "InChI": "InChI=1S/C8H6Cl3NO/c9-4-8(13)12-7-2-5(10)1-6(11)3-7/h1-3H,4H2,(H,12,13)",
        "InChIKey": null,
        "Canonical SMILES": "O=C(NC=1C=C(Cl)C=C(Cl)C1)CCl",
        "Molecular Formula": "C<sub>8</sub>H<sub>6</sub>Cl<sub>3</sub>NO",
        "Molecular Mass": "238.50",
        "Melting Point": "137-138 °C"
    }
}