{
    "cas_no": "7737-62-4",
    "key_name": "Heptanoic acid, 3-oxo-, ethyl ester",
    "cn_name": "3-氧代庚酸乙酯;",
    "alternate_name": "Heptanoic acid, 3-oxo-, ethyl ester;Ethyl β-oxoheptanoate;Ethyl 3-oxoheptanoate;3-Oxoheptanoic acid ethyl ester;Ethyl 3-ketoheptanoate;Ethyl valeroylacetate",
    "duplicated_cas_no": "",
    "SMILES": "C(CC(OCC)=O)(CCCC)=O",
    "meta_data": {
        "InChI": "InChI=1S/C9H16O3/c1-3-5-6-8(10)7-9(11)12-4-2/h3-7H2,1-2H3",
        "InChIKey": null,
        "Canonical SMILES": "O=C(OCC)CC(=O)CCCC",
        "Molecular Formula": "C<sub>9</sub>H<sub>16</sub>O<sub>3</sub>",
        "Molecular Mass": "172.22",
        "Boiling Point": "110-112 °C @ Press: 16 Torr"
    }
}