{
    "cas_no": "36626-29-6",
    "key_name": "Phosphonium, (2-carboxyethyl)triphenyl-, chloride (1:1)",
    "cn_name": "2-(羧乙基)三苯基氯化膦;(2-羧乙基)三苯基氯化膦;",
    "alternate_name": "Phosphonium, (2-carboxyethyl)triphenyl-, chloride (1:1);Phosphonium, (2-carboxyethyl)triphenyl-, chloride;(2-Carboxyethyl)triphenylphosphonium chloride;Triphenyl(2-carboxyethyl)phosphonium chloride;(β-Carboxyethyl)triphenylphosphonium chloride;3-(Triphenylphosphonium)propionic acid chloride;NSC 165227",
    "duplicated_cas_no": "",
    "SMILES": "[P+](CCC(O)=O)(C1=CC=CC=C1)(C2=CC=CC=C2)C3=CC=CC=C3.[Cl-]",
    "meta_data": {
        "InChI": "InChI=1S/C21H19O2P.ClH/c22-21(23)16-17-24(18-10-4-1-5-11-18,19-12-6-2-7-13-19)20-14-8-3-9-15-20;/h1-15H,16-17H2;1H",
        "InChIKey": null,
        "Canonical SMILES": "[Cl-].O=C(O)CC[P+](C=1C=CC=CC1)(C=2C=CC=CC2)C=3C=CC=CC3",
        "Molecular Formula": "C<sub>21</sub>H<sub>20</sub>O<sub>2</sub>P.Cl",
        "Molecular Mass": "",
        "Melting Point": "198-200 °C"
    }
}