{
    "cas_no": "54589-54-7",
    "key_name": "Benzoic acid, 3-(chloromethyl)-, ethyl ester",
    "cn_name": "3-氯甲基苯甲酸乙酯;",
    "alternate_name": "Benzoic acid, 3-(chloromethyl)-, ethyl ester;Ethyl <em>m</em>-(chloromethyl)benzoate;Ethyl 3-chloromethylbenzoate",
    "duplicated_cas_no": "",
    "SMILES": "C(OCC)(=O)C1=CC(CCl)=CC=C1",
    "meta_data": {
        "InChI": "InChI=1S/C10H11ClO2/c1-2-13-10(12)9-5-3-4-8(6-9)7-11/h3-6H,2,7H2,1H3",
        "InChIKey": null,
        "Canonical SMILES": "O=C(OCC)C1=CC=CC(=C1)CCl",
        "Molecular Formula": "C<sub>10</sub>H<sub>11</sub>ClO<sub>2</sub>",
        "Molecular Mass": "198.65",
        "Boiling Point": "168-169 °C @ Press: 25 Torr"
    }
}