{
    "cas_no": "95737-68-1",
    "key_name": "Pyriproxyfen",
    "cn_name": null,
    "alternate_name": "Pyridine, 2-[1-methyl-2-(4-phenoxyphenoxy)ethoxy]-;2-[1-Methyl-2-(4-phenoxyphenoxy)ethoxy]pyridine;S 31183;Pyriproxyfen;S 9138;SK 591;BCP 8702;OMS 3019;Sumilarv;Tiger 10EC;Tiger (insecticide);Tiger;Admiral;S 71639;Nylar;Nemesis;Knack;Lano Tape;Esteem;Juventox;Distance;Seize;Pluto MC;Archer IGR;Distance IGR;NyGuard IGR;Juvinal;BRAI;BRAI 10EC;2-((1-(4-Phenoxyphenoxy)propan-2-yl)oxy)pyridine;(±)-Pyriproxyfen",
    "duplicated_cas_no": "126040-81-1;133695-78-0",
    "SMILES": "O(C1=CC=C(OCC(OC2=CC=CC=N2)C)C=C1)C3=CC=CC=C3",
    "meta_data": {
        "InChI": "InChI=1S/C20H19NO3/c1-16(23-20-9-5-6-14-21-20)15-22-17-10-12-19(13-11-17)24-18-7-3-2-4-8-18/h2-14,16H,15H2,1H3",
        "InChIKey": null,
        "Canonical SMILES": "N=1C=CC=CC1OC(C)COC2=CC=C(OC=3C=CC=CC3)C=C2",
        "Molecular Formula": "C<sub>20</sub>H<sub>19</sub>NO<sub>3</sub>",
        "Molecular Mass": "321.37",
        "Boiling Point": "230-250 °C @ Press: 0.2 Torr",
        "Melting Point": "45-47 °C",
        "Density": "1.23 g/cm³ @ Temp: 20 °C"
    }
}