{
    "cas_no": "601-54-7",
    "key_name": "Cholest-5-en-3-one",
    "cn_name": "5-胆甾烯-3-酮;",
    "alternate_name": "Cholest-5-en-3-one;Δ<sup>5</sup>-Cholesten-3-one;3-Oxocholest-5-ene;3-Ketocholesterol;NSC 118979;5-Cholestenone",
    "duplicated_cas_no": "676322-58-0;693245-21-5",
    "SMILES": "C[C@@]12[C@]([C@]3([C@@]([C@]4(C)C(=CC3)CC(=O)CC4)(CC1)[H])[H])(CC[C@@]2([C@@H](CCCC(C)C)C)[H])[H]",
    "meta_data": {
        "InChI": "InChI=1S/C27H44O/c1-18(2)7-6-8-19(3)23-11-12-24-22-10-9-20-17-21(28)13-15-26(20,4)25(22)14-16-27(23,24)5/h9,18-19,22-25H,6-8,10-17H2,1-5H3/t19-,22+,23-,24+,25+,26+,27-/m1/s1",
        "InChIKey": null,
        "Canonical SMILES": "O=C1CC2=CCC3C(CCC4(C)C(CCC34)C(C)CCCC(C)C)C2(C)CC1",
        "Molecular Formula": "C<sub>27</sub>H<sub>44</sub>O",
        "Molecular Mass": "384.64",
        "Melting Point": "127 °C"
    }
}