{
    "cas_no": "7622-29-9",
    "key_name": "<span class=\"text-smallcaps\">L</span>-Lysine, <em>N</em><sup>6</sup>-methyl-, hydrochloride (1:1)",
    "cn_name": "H-Lys(Me)-OH?HCl;",
    "alternate_name": "<span class=\"text-smallcaps\">L</span>-Lysine, <em>N</em><sup>6</sup>-methyl-, hydrochloride (1:1);Lysine, <em>N</em><sup>6</sup>-methyl-, monohydrochloride, <span class=\"text-smallcaps\">L</span>-;<span class=\"text-smallcaps\">L</span>-Lysine, <em>N</em><sup>6</sup>-methyl-, monohydrochloride;Lysine, <em>N</em><sup>6</sup>-methyl-, hydrochloride",
    "duplicated_cas_no": "",
    "SMILES": "[C@H](CCCCNC)(C(O)=O)N.Cl",
    "meta_data": {
        "InChI": "InChI=1S/C7H16N2O2.ClH/c1-9-5-3-2-4-6(8)7(10)11;/h6,9H,2-5,8H2,1H3,(H,10,11);1H/t6-;/m0./s1",
        "InChIKey": null,
        "Canonical SMILES": "Cl.O=C(O)C(N)CCCCNC",
        "Molecular Formula": "C<sub>7</sub>H<sub>16</sub>N<sub>2</sub>O<sub>2</sub>.ClH",
        "Molecular Mass": "",
        "Melting Point": "254-255 °C (decomp)"
    }
}