{
    "cas_no": "112-26-5",
    "key_name": "1,2-Bis(2-chloroethoxy)ethane",
    "cn_name": "1,2-二(2-氯乙氧基)乙烷;二氯三乙醚;三甘醇二氯化物;",
    "alternate_name": "Ethane, 1,2-bis(2-chloroethoxy)-;1,2-Bis(2-chloroethoxy)ethane;2-(2-Chloroethoxy)ethyl 2′-chloroethyl ether;Triethylene glycol dichloride;Triglycol dichloride;1,2-Bis(chloroethoxy)ethane;Bis(2-chloroethoxy)ethane;Bis(chloroethoxy)ethane;1,8-Dichloro-3,6-dioxaoctane;Ethylene glycol bis(2-chloroethyl) ether;1-Chloro-2-[2-(2-chloroethoxy)ethoxy]ethane",
    "duplicated_cas_no": "",
    "SMILES": "C(COCCCl)OCCCl",
    "meta_data": {
        "InChI": "InChI=1S/C6H12Cl2O2/c7-1-3-9-5-6-10-4-2-8/h1-6H2",
        "InChIKey": null,
        "Canonical SMILES": "ClCCOCCOCCCl",
        "Molecular Formula": "C<sub>6</sub>H<sub>12</sub>Cl<sub>2</sub>O<sub>2</sub>",
        "Molecular Mass": "187.06",
        "Boiling Point": "241.3 °C",
        "Melting Point": "-31.5 °C",
        "Density": "1.1974 g/cm³ @ Temp: 20 °C"
    }
}