{
    "cas_no": "26652-09-5",
    "key_name": "Ritodrine",
    "cn_name": "利托君; 4-[(1R,2S)-1-羟基-2-[2-(4-羟基苯基)乙氨基]丙基]苯酚;",
    "alternate_name": "Benzenemethanol, 4-hydroxy-α-[(1<em>R</em>)-1-[[2-(4-hydroxyphenyl)ethyl]amino]ethyl]-, (α<em>S</em>)-<em>rel</em>-;Benzenemethanol, 4-hydroxy-α-[1-[[2-(4-hydroxyphenyl)ethyl]amino]ethyl]-, (<em>R</em>*,<em>S</em>*)-;Benzyl alcohol, <em>p</em>-hydroxy-α-[1-[(<em>p</em>-hydroxyphenethyl)amino]ethyl]-, <em>erythro</em>-;<em>rel</em>-(α<em>S</em>)-4-Hydroxy-α-[(1<em>R</em>)-1-[[2-(4-hydroxyphenyl)ethyl]amino]ethyl]benzenemethanol;Ritodrine;(±)-Ritodrine;Lavopa;MeSH ID: D012312",
    "duplicated_cas_no": "52447-10-6",
    "SMILES": "[C@H]([C@H](NCCC1=CC=C(O)C=C1)C)(O)C2=CC=C(O)C=C2",
    "meta_data": {
        "InChI": "InChI=1/C17H21NO3/c1-12(17(21)14-4-8-16(20)9-5-14)18-11-10-13-2-6-15(19)7-3-13/h2-9,12,17-21H,10-11H2,1H3/t12-,17-/s2",
        "InChIKey": null,
        "Canonical SMILES": "OC1=CC=C(C=C1)CCNC(C)C(O)C2=CC=C(O)C=C2",
        "Molecular Formula": "C<sub>17</sub>H<sub>21</sub>NO<sub>3</sub>",
        "Molecular Mass": "287.35",
        "Melting Point": "88-90 °C"
    }
}