{
    "cas_no": "444-14-4",
    "key_name": "2-Bromo-4,6-difluorobenzenamine",
    "cn_name": "2-溴-4,6-二氟苯胺;",
    "alternate_name": "Benzenamine, 2-bromo-4,6-difluoro-;Aniline, 2-bromo-4,6-difluoro-;2-Bromo-4,6-difluorobenzenamine;2-Bromo-4,6-difluoroaniline;6-Bromo-2,4-difluoroaniline;NSC 93389;2-Bromo-4,6-difluorophenylamine;2,4-Difluoro-6-bromoaniline",
    "duplicated_cas_no": "",
    "SMILES": "NC1=C(Br)C=C(F)C=C1F",
    "meta_data": {
        "InChI": "InChI=1S/C6H4BrF2N/c7-4-1-3(8)2-5(9)6(4)10/h1-2H,10H2",
        "InChIKey": null,
        "Canonical SMILES": "FC=1C=C(F)C(N)=C(Br)C1",
        "Molecular Formula": "C<sub>6</sub>H<sub>4</sub>BrF<sub>2</sub>N",
        "Molecular Mass": "208.00",
        "Melting Point": "41-42 °C"
    }
}