{
    "cas_no": "56621-91-1",
    "key_name": "2-Bromo-5-pyrimidinamine",
    "cn_name": "5-氨基-2-溴嘧啶;",
    "alternate_name": "5-Pyrimidinamine, 2-bromo-;2-Bromo-5-pyrimidinamine;5-Amino-2-bromopyrimidine;2-Bromopyrimidin-5-ylamine",
    "duplicated_cas_no": "",
    "SMILES": "NC=1C=NC(Br)=NC1",
    "meta_data": {
        "InChI": "InChI=1S/C4H4BrN3/c5-4-7-1-3(6)2-8-4/h1-2H,6H2",
        "InChIKey": null,
        "Canonical SMILES": "BrC1=NC=C(N)C=N1",
        "Molecular Formula": "C<sub>4</sub>H<sub>4</sub>BrN<sub>3</sub>",
        "Molecular Mass": "174.00",
        "Melting Point": "182-183 °C"
    }
}