{
    "cas_no": "72411-52-0",
    "key_name": "5-(4-Fluorophenyl)-1<em>H</em>-pyrazol-3-amine",
    "cn_name": null,
    "alternate_name": "1<em>H</em>-Pyrazol-3-amine, 5-(4-fluorophenyl)-;5-(4-Fluorophenyl)-1<em>H</em>-pyrazol-3-amine;5-(4-Fluorophenyl)-1<em>H</em>-pyrazol-3-ylamine;3-Amino-5-(4-fluorophenyl)-1<em>H</em>-pyrazole;5-(4-Fluorophenyl)-3-aminopyrazole;3-Amino-5-(4-fluorophenyl)pyrazole",
    "duplicated_cas_no": "74073-52-2;929635-71-2",
    "SMILES": "NC=1C=C(C2=CC=C(F)C=C2)NN1",
    "meta_data": {
        "InChI": "InChI=1S/C9H8FN3/c10-7-3-1-6(2-4-7)8-5-9(11)13-12-8/h1-5H,(H3,11,12,13)",
        "InChIKey": null,
        "Canonical SMILES": "FC=1C=CC(=CC1)C2=CC(=NN2)N",
        "Molecular Formula": "C<sub>9</sub>H<sub>8</sub>FN<sub>3</sub>",
        "Molecular Mass": "177.18",
        "Melting Point": "154 °C"
    }
}