{
    "cas_no": "875-30-9",
    "key_name": "1,3-Dimethylindole",
    "cn_name": null,
    "alternate_name": "1<em>H</em>-Indole, 1,3-dimethyl-;Indole, 1,3-dimethyl-;1,3-Dimethyl-1<em>H</em>-indole;1,3-Dimethylindole;<em>N</em>-Methylscatole;1-Methylskatole;NSC 6231;3-Methyl-<em>N</em>-methylindole",
    "duplicated_cas_no": "",
    "SMILES": "CC=1C=2C(N(C)C1)=CC=CC2",
    "meta_data": {
        "InChI": "InChI=1S/C10H11N/c1-8-7-11(2)10-6-4-3-5-9(8)10/h3-7H,1-2H3",
        "InChIKey": null,
        "Canonical SMILES": "C=1C=CC2=C(C1)C(=CN2C)C",
        "Molecular Formula": "C<sub>10</sub>H<sub>11</sub>N",
        "Molecular Mass": "145.20",
        "Boiling Point": "258.5 °C",
        "Melting Point": "142 °C"
    }
}