{
    "cas_no": "93778-57-5",
    "key_name": "5′-<em>O</em>-[Bis(4-methoxyphenyl)phenylmethyl]-2′-deoxyinosine",
    "cn_name": null,
    "alternate_name": "Inosine, 5′-<em>O</em>-[bis(4-methoxyphenyl)phenylmethyl]-2′-deoxy-;5′-<em>O</em>-[Bis(4-methoxyphenyl)phenylmethyl]-2′-deoxyinosine",
    "duplicated_cas_no": "138798-98-8",
    "SMILES": "C(OC[C@H]1O[C@H](C[C@@H]1O)N2C3=C(N=C2)C(=O)N=CN3)(C4=CC=C(OC)C=C4)(C5=CC=C(OC)C=C5)C6=CC=CC=C6",
    "meta_data": {
        "InChI": "InChI=1S/C31H30N4O6/c1-38-23-12-8-21(9-13-23)31(20-6-4-3-5-7-20,22-10-14-24(39-2)15-11-22)40-17-26-25(36)16-27(41-26)35-19-34-28-29(35)32-18-33-30(28)37/h3-15,18-19,25-27,36H,16-17H2,1-2H3,(H,32,33,37)/t25-,26+,27+/m0/s1",
        "InChIKey": null,
        "Canonical SMILES": "O=C1N=CNC2=C1N=CN2C3OC(COC(C=4C=CC=CC4)(C5=CC=C(OC)C=C5)C6=CC=C(OC)C=C6)C(O)C3",
        "Molecular Formula": "C<sub>31</sub>H<sub>30</sub>N<sub>4</sub>O<sub>6</sub>",
        "Molecular Mass": "554.59",
        "Melting Point": "137-140 °C (decomp)"
    }
}