{
    "cas_no": "109-44-4",
    "key_name": "Bis(2-ethoxyethyl) adipate",
    "cn_name": "双(2-乙氧乙基)己二酸酯;雙乙氧乙基己二酸酯;",
    "alternate_name": "Hexanedioic acid, 1,6-bis(2-ethoxyethyl) ester;Adipic acid, bis(2-ethoxyethyl) ester;Hexanedioic acid, bis(2-ethoxyethyl) ester;Ethanol, 2-ethoxy-, adipate (2:1);Bis(2-ethoxyethyl) adipate;Bis(ethoxyethyl) adipate;NSC 6796;Di(2-ethoxyethyl)adipate",
    "duplicated_cas_no": "",
    "SMILES": "C(C(OCCOCC)=O)CCCC(OCCOCC)=O",
    "meta_data": {
        "InChI": "InChI=1S/C14H26O6/c1-3-17-9-11-19-13(15)7-5-6-8-14(16)20-12-10-18-4-2/h3-12H2,1-2H3",
        "InChIKey": null,
        "Canonical SMILES": "O=C(OCCOCC)CCCCC(=O)OCCOCC",
        "Molecular Formula": "C<sub>14</sub>H<sub>26</sub>O<sub>6</sub>",
        "Molecular Mass": "290.35",
        "Boiling Point": "200-220 °C @ Press: 10 Torr",
        "Density": "1.042 g/cm³ @ Temp: 20 °C"
    }
}