{
    "cas_no": "23783-42-8",
    "key_name": "Tetraethylene glycol monomethyl ether",
    "cn_name": "四甘醇单甲醚;",
    "alternate_name": "3,6,9,12-Tetraoxatridecan-1-ol;2,5,8,11-Tetraoxatridecan-13-ol;Ethanol, 2-[2-[2-(2-methoxyethoxy)ethoxy]ethoxy]-;Tetraethylene glycol monomethyl ether;Methoxytetraethylene glycol;3,6,9,12-Tetraoxatridecanol;Tetraethylene glycol methyl ether;NSC 345692;Tetrakis(ethylene glycol) monomethyl ether;2-(2-[2-(2-Methoxyethoxy)ethoxy]ethoxy)ethanol;2,5,8,11-Tetraoxatridecan-13-o1",
    "duplicated_cas_no": "",
    "SMILES": "C(OCCOCCO)COCCOC",
    "meta_data": {
        "InChI": "InChI=1S/C9H20O5/c1-11-4-5-13-8-9-14-7-6-12-3-2-10/h10H,2-9H2,1H3",
        "InChIKey": null,
        "Canonical SMILES": "OCCOCCOCCOCCOC",
        "Molecular Formula": "C<sub>9</sub>H<sub>20</sub>O<sub>5</sub>",
        "Molecular Mass": "208.25",
        "Boiling Point": "128-130 °C @ Press: 0.7 Torr",
        "Density": "1.0659 g/cm³ @ Temp: 20 °C"
    }
}