{
    "cas_no": "22502-03-0",
    "key_name": "2-Methoxyethyl 3-oxobutanoate",
    "cn_name": "乙酰乙酸甲氧乙酯;乙酰乙酸(2-甲氧基)乙基酯;",
    "alternate_name": "Butanoic acid, 3-oxo-, 2-methoxyethyl ester;Acetoacetic acid, 2-methoxyethyl ester;Ethanol, 2-methoxy-, acetoacetate;2-Methoxyethyl 3-oxobutanoate;2-Methoxyethyl acetoacetate;3-Oxo-butyric acid 2-methoxy-ethyl ester",
    "duplicated_cas_no": "",
    "SMILES": "O(C(CC(C)=O)=O)CCOC",
    "meta_data": {
        "InChI": "InChI=1S/C7H12O4/c1-6(8)5-7(9)11-4-3-10-2/h3-5H2,1-2H3",
        "InChIKey": null,
        "Canonical SMILES": "O=C(OCCOC)CC(=O)C",
        "Molecular Formula": "C<sub>7</sub>H<sub>12</sub>O<sub>4</sub>",
        "Molecular Mass": "160.17",
        "Boiling Point": "90 °C @ Press: 3 Torr"
    }
}