{
    "cas_no": "116-31-4",
    "key_name": "Retinal",
    "cn_name": "视黄醛;",
    "alternate_name": "Retinal;Retinal, <em>all</em>-<em>trans</em>-;Retinene 1;Axerophthal;2,4,6,8-Nonatetraenal, 3,7-dimethyl-9-(2,6,6-trimethyl-1-cyclohexen-1-yl)-, (<em>all</em>-<em>E</em>)-;Retinaldehyde;<em>trans</em>-Retinal;Vitamin A aldehyde;<em>all</em>-<em>trans</em>-Retinaldehyde;Vitamin A<sub>1</sub> aldehyde;<em>E</em>-Retinal;<em>trans</em>-Vitamin A aldehyde;<em>all</em>-<em>E</em>-Retinal;<em>all</em>-<em>trans</em>-Vitamin A aldehyde;(<em>all</em>-<em>E</em>)-3,7-Dimethyl-9-(2,6,6-trimethyl-1-cyclohexen-1-yl)-2,4,6,8-nonatetraenal;Retinene;<em>all</em>-<em>trans</em>-Retinal;15-Apo-β-caroten-15-al;15-Apo-β-carotenal;(<em>all</em>-E)-15-Apo-β-caroten-15-al",
    "duplicated_cas_no": "7058-59-5",
    "SMILES": "C(=C/C(=C/C=C/C(=C/C=O)/C)/C)\\C=1C(C)(C)CCCC1C",
    "meta_data": {
        "InChI": "InChI=1S/C20H28O/c1-16(8-6-9-17(2)13-15-21)11-12-19-18(3)10-7-14-20(19,4)5/h6,8-9,11-13,15H,7,10,14H2,1-5H3/b9-6+,12-11+,16-8+,17-13+",
        "InChIKey": null,
        "Canonical SMILES": "O=CC=C(C=CC=C(C=CC1=C(C)CCCC1(C)C)C)C",
        "Molecular Formula": "C<sub>20</sub>H<sub>28</sub>O",
        "Molecular Mass": "284.44",
        "Melting Point": "63 °C"
    }
}