{
    "cas_no": "67375-30-8",
    "key_name": "α-Cypermethrin",
    "cn_name": "右旋反式苯醚菊酯;2,2-二甲基-3-(2,2-二氯乙烯基)-环丙烷羧酸-alpha-氰基-3-苯氧基-苄基酯;",
    "alternate_name": "Cyclopropanecarboxylic acid, 3-(2,2-dichloroethenyl)-2,2-dimethyl-, (<em>R</em>)-cyano(3-phenoxyphenyl)methyl ester, (1<em>S</em>,3<em>S</em>)-<em>rel</em>-;Alfoxylate;Fastac;WL 85871;Alphamethrin;Alphacypermethrin;α-Cypermethrin;Bestox;(±)-Alphamethrin;Cismix;Aeralfam;Ultimate;Dominex;Mageos;Contest;Fendona;Alfazot;Fastac Duo;Centaur;Alphaguard;Fendona 65C;Fastac 10EC;Sentry (insecticide);Sentry;BAS 310;Fastac CS;Dudu Alpha;Fastac 100EC;Fendona 60SC;Astound Duo",
    "duplicated_cas_no": "70982-02-4",
    "SMILES": "C(O[C@@H](C#N)C1=CC(OC2=CC=CC=C2)=CC=C1)(=O)[C@H]3[C@@H](C=C(Cl)Cl)C3(C)C",
    "meta_data": {
        "InChI": "InChI=1/C22H19Cl2NO3/c1-22(2)17(12-19(23)24)20(22)21(26)28-18(13-25)14-7-6-10-16(11-14)27-15-8-4-3-5-9-15/h3-12,17-18,20H,1-2H3/t17-,18+,20-/s2",
        "InChIKey": null,
        "Canonical SMILES": "N#CC(OC(=O)C1C(C=C(Cl)Cl)C1(C)C)C=2C=CC=C(OC=3C=CC=CC3)C2",
        "Molecular Formula": "C<sub>22</sub>H<sub>19</sub>Cl<sub>2</sub>NO<sub>3</sub>",
        "Molecular Mass": "416.30",
        "Boiling Point": "200 °C @ Press: 0.07 Torr",
        "Melting Point": "78-81 °C",
        "Density": "1.28 g/cm³ @ Temp: 20 °C"
    }
}