{
    "cas_no": "14255-88-0",
    "key_name": "Fenazaflor",
    "cn_name": "抗螨唑;抗螨唑；伏螨唑；苯基5，6－二氯2－三氟甲基苯并咪唑基1－羧酸酯;",
    "alternate_name": "1<em>H</em>-Benzimidazole-1-carboxylic acid, 5,6-dichloro-2-(trifluoromethyl)-, phenyl ester;1-Benzimidazolecarboxylic acid, 5,6-dichloro-2-(trifluoromethyl)-, phenyl ester;NC 5016;5,6-Dichloro-1-phenoxycarbonyl-2-trifluoromethylbenzimidazole;Fenazaflor;Lovozal;Phenyl 5,6-dichloro-2-trifluoromethyl-1-benzimidazolecarboxylate;Fenoflurazole",
    "duplicated_cas_no": "",
    "SMILES": "C(OC1=CC=CC=C1)(=O)N2C=3C(N=C2C(F)(F)F)=CC(Cl)=C(Cl)C3",
    "meta_data": {
        "InChI": "InChI=1S/C15H7Cl2F3N2O2/c16-9-6-11-12(7-10(9)17)22(13(21-11)15(18,19)20)14(23)24-8-4-2-1-3-5-8/h1-7H",
        "InChIKey": null,
        "Canonical SMILES": "O=C(OC=1C=CC=CC1)N2C=3C=C(Cl)C(Cl)=CC3N=C2C(F)(F)F",
        "Molecular Formula": "C<sub>15</sub>H<sub>7</sub>Cl<sub>2</sub>F<sub>3</sub>N<sub>2</sub>O<sub>2</sub>",
        "Molecular Mass": "375.13",
        "Melting Point": "103 °C"
    }
}