{
    "cas_no": "28479-19-8",
    "key_name": "3-(Methylthio)phenyl isocyanate",
    "cn_name": "3-(甲基硫代)异氰酸苯酯;",
    "alternate_name": "Benzene, 1-isocyanato-3-(methylthio)-;Isocyanic acid, <em>m</em>-(methylthio)phenyl ester;1-Isocyanato-3-(methylthio)benzene;<em>m</em>-(Methylthio)phenyl isocyanate;3-(Methylthio)phenyl isocyanate;3-(Methylmercapto)phenyl isocyanate;1-Isocyanato-3-(methylsulfanyl)benzene;3-(Methylsulfanyl)phenylisocyanate",
    "duplicated_cas_no": "",
    "SMILES": "N(=C=O)C1=CC(SC)=CC=C1",
    "meta_data": {
        "InChI": "InChI=1S/C8H7NOS/c1-11-8-4-2-3-7(5-8)9-6-10/h2-5H,1H3",
        "InChIKey": null,
        "Canonical SMILES": "O=C=NC1=CC=CC(SC)=C1",
        "Molecular Formula": "C<sub>8</sub>H<sub>7</sub>NOS",
        "Molecular Mass": "165.21",
        "Boiling Point": "120-121.5 °C @ Press: 10 Torr"
    }
}