{
    "cas_no": "5287-45-6",
    "key_name": "3-Methyl-2-butene-1-thiol",
    "cn_name": "异戊烯基硫醇;3-甲基-2-丁烯-1-硫醇;",
    "alternate_name": "2-Butene-1-thiol, 3-methyl-;3-Methyl-2-butene-1-thiol;Prenyl mercaptan;Prenylthiol;MBT;3-Methyl-1-mercapto-2-butene;3-Methyl-2-buten-1-thiol",
    "duplicated_cas_no": "",
    "SMILES": "C(=C(C)C)CS",
    "meta_data": {
        "InChI": "InChI=1S/C5H10S/c1-5(2)3-4-6/h3,6H,4H2,1-2H3",
        "InChIKey": null,
        "Canonical SMILES": "SCC=C(C)C",
        "Molecular Formula": "C<sub>5</sub>H<sub>10</sub>S",
        "Molecular Mass": "102.20",
        "Boiling Point": "125-127 °C",
        "Density": "0.8987 g/cm³ @ Temp: 100 °C"
    }
}