{
    "cas_no": "7789-60-8",
    "key_name": "Phosphorus tribromide",
    "cn_name": "三溴化磷;",
    "alternate_name": "Phosphorous tribromide;Phosphorus bromide (PBr<sub>3</sub>);Phosphorous bromide;Phosphorus tribromide;Tribromophosphine;PBr<sub>3</sub>",
    "duplicated_cas_no": "",
    "SMILES": "P(Br)(Br)Br",
    "meta_data": {
        "InChI": "InChI=1S/Br3P/c1-4(2)3",
        "InChIKey": null,
        "Canonical SMILES": "BrP(Br)Br",
        "Molecular Formula": "Br<sub>3</sub>P",
        "Molecular Mass": "270.69",
        "Boiling Point": "173.2 °C",
        "Melting Point": "-41.5 °C",
        "Density": "2.85 g/cm³ @ Temp: 15 °C"
    }
}