{
    "cas_no": "1256359-15-5",
    "key_name": "1-(1,1-Dimethylethyl)-4-(4,4,5,5-tetramethyl-1,3,2-dioxaborolan-2-yl)-1<em>H</em>-pyrazole",
    "cn_name": null,
    "alternate_name": "1<em>H</em>-Pyrazole, 1-(1,1-dimethylethyl)-4-(4,4,5,5-tetramethyl-1,3,2-dioxaborolan-2-yl)-;1-(1,1-Dimethylethyl)-4-(4,4,5,5-tetramethyl-1,3,2-dioxaborolan-2-yl)-1<em>H</em>-pyrazole;1-<em>tert</em>-Butyl-4-(4,4,5,5-tetramethyl-1,3,2-dioxaborolan-2-yl)-1<em>H</em>-pyrazole;1-<em>tert</em>-Butyl-4-(4,4,5,5-tetramethyl-1,3,2-dioxaborolan-2-yl)pyrazole;1-Tert-butyl-4-(4,4,5,5-tetramethyl-1,3,2-dioxaborolan-2-yl)1H-pyrazole;(1-(<em>tert</em>-Butyl)-1<em>H</em>-pyrazol-4-yl)boronic acid pinacol ester;1-<em>tert</em>-Butyl-4-(tetramethyl-1,3,2-dioxaborolan-2-yl)-1<em>H</em>-pyrazole",
    "duplicated_cas_no": "",
    "SMILES": "CC1(C)OB(OC1(C)C)C2=CN(C(C)(C)C)N=C2",
    "meta_data": {
        "InChI": "InChI=1S/C13H23BN2O2/c1-11(2,3)16-9-10(8-15-16)14-17-12(4,5)13(6,7)18-14/h8-9H,1-7H3",
        "InChIKey": null,
        "Canonical SMILES": "N1=CC(=CN1C(C)(C)C)B2OC(C)(C)C(O2)(C)C",
        "Molecular Formula": "C<sub>13</sub>H<sub>23</sub>BN<sub>2</sub>O<sub>2</sub>",
        "Molecular Mass": "250.14",
        "Melting Point": "100-102 °C"
    }
}