{
    "cas_no": "324-27-6",
    "key_name": "2-(4-Fluorophenyl)benzimidazole",
    "cn_name": null,
    "alternate_name": "1<em>H</em>-Benzimidazole, 2-(4-fluorophenyl)-;Benzimidazole, 2-(<em>p</em>-fluorophenyl)-;2-(4-Fluorophenyl)-1<em>H</em>-benzimidazole;2-(4-Fluorophenyl)benzimidazole;NSC 403409;2-(<em>p</em>-Fluorophenyl)benzimidazole;2-(4-Fluorophenyl)-1<em>H</em>-benzo[<em>d</em>]imidazole;2-(4-Fluorophenyl)-1<em>H</em>-1,3-benzodiazole",
    "duplicated_cas_no": "",
    "SMILES": "FC1=CC=C(C=2NC=3C(N2)=CC=CC3)C=C1",
    "meta_data": {
        "InChI": "InChI=1S/C13H9FN2/c14-10-7-5-9(6-8-10)13-15-11-3-1-2-4-12(11)16-13/h1-8H,(H,15,16)",
        "InChIKey": null,
        "Canonical SMILES": "FC=1C=CC(=CC1)C2=NC=3C=CC=CC3N2",
        "Molecular Formula": "C<sub>13</sub>H<sub>9</sub>FN<sub>2</sub>",
        "Molecular Mass": "212.22",
        "Melting Point": "257 °C"
    }
}