{
    "cas_no": "53-34-9",
    "key_name": "Fluprednisolone",
    "cn_name": "氟泼尼龙;6alpha-氟泼尼龙;",
    "alternate_name": "Pregna-1,4-diene-3,20-dione, 6-fluoro-11,17,21-trihydroxy-, (6α,11β)-;Pregna-1,4-diene-3,20-dione, 6α-fluoro-11β,17,21-trihydroxy-;(6α,11β)-6-Fluoro-11,17,21-trihydroxypregna-1,4-diene-3,20-dione;U 7800;Alphadrol;Etadrol;6α-Fluoro-11β,17,21-trihydroxypregna-1,4-diene-3,20-dione;Fluprednisolone;6α-Fluoroprednisolone;6α-Fluoro-11β,17α,21-trihydroxypregna-1,4-diene-3,20-dione;F. I. 6150;Vladicort;NSC 47439;Fuprednisolone;MeSH ID: D005477",
    "duplicated_cas_no": "21248-18-0",
    "SMILES": "C[C@@]12[C@]([C@]3([C@@]([C@]4(C)C([C@@H](F)C3)=CC(=O)C=C4)([C@@H](O)C1)[H])[H])(CC[C@@]2(C(CO)=O)O)[H]",
    "meta_data": {
        "InChI": "InChI=1S/C21H27FO5/c1-19-5-3-11(24)7-14(19)15(22)8-12-13-4-6-21(27,17(26)10-23)20(13,2)9-16(25)18(12)19/h3,5,7,12-13,15-16,18,23,25,27H,4,6,8-10H2,1-2H3/t12-,13-,15-,16-,18+,19-,20-,21-/m0/s1",
        "InChIKey": null,
        "Canonical SMILES": "O=C1C=CC2(C(=C1)C(F)CC3C4CCC(O)(C(=O)CO)C4(C)CC(O)C32)C",
        "Molecular Formula": "C<sub>21</sub>H<sub>27</sub>FO<sub>5</sub>",
        "Molecular Mass": "378.43",
        "Melting Point": "208-213 °C"
    }
}