{
    "cas_no": "117718-60-2",
    "key_name": "Thiazopyr",
    "cn_name": null,
    "alternate_name": "3-Pyridinecarboxylic acid, 2-(difluoromethyl)-5-(4,5-dihydro-2-thiazolyl)-4-(2-methylpropyl)-6-(trifluoromethyl)-, methyl ester;Thiazopyr;Thiazophyr;MON 13200;MON 13211;Visor",
    "duplicated_cas_no": "128606-56-4;147172-37-0",
    "SMILES": "C(C(C)C)C=1C(=C(C(F)(F)F)N=C(C(F)F)C1C(OC)=O)C2=NCCS2",
    "meta_data": {
        "InChI": "InChI=1S/C16H17F5N2O2S/c1-7(2)6-8-9(15(24)25-3)11(13(17)18)23-12(16(19,20)21)10(8)14-22-4-5-26-14/h7,13H,4-6H2,1-3H3",
        "InChIKey": null,
        "Canonical SMILES": "O=C(OC)C1=C(N=C(C(C2=NCCS2)=C1CC(C)C)C(F)(F)F)C(F)F",
        "Molecular Formula": "C<sub>16</sub>H<sub>17</sub>F<sub>5</sub>N<sub>2</sub>O<sub>2</sub>S",
        "Molecular Mass": "396.38",
        "Melting Point": "77.3-79.1 °C",
        "Density": "1.3777 g/cm³ @ Temp: 25 °C"
    }
}