{
    "cas_no": "274-47-5",
    "key_name": "Imidazo[1,5-<em>a</em>]pyridine",
    "cn_name": null,
    "alternate_name": "Imidazo[1,5-<em>a</em>]pyridine;2-Azaindolizine;2,3a-Diazaindene;NSC 119858",
    "duplicated_cas_no": "",
    "SMILES": "C=12N(C=NC1)C=CC=C2",
    "meta_data": {
        "InChI": "InChI=1S/C7H6N2/c1-2-4-9-6-8-5-7(9)3-1/h1-6H",
        "InChIKey": null,
        "Canonical SMILES": "N=1C=C2C=CC=CN2C1",
        "Molecular Formula": "C<sub>7</sub>H<sub>6</sub>N<sub>2</sub>",
        "Molecular Mass": "118.14",
        "Boiling Point": "120-125 °C @ Press: 3 Torr",
        "Melting Point": "54-55 °C"
    }
}