{
    "cas_no": "13476-25-0",
    "key_name": "Linderane",
    "cn_name": null,
    "alternate_name": "2<em>H</em>-10,1a-(Epoxymethano)oxireno[4,5]cyclodeca[1,2-<em>b</em>]furan-12-one, 3,6,10,10a-tetrahydro-5,9-dimethyl-, (1a<em>S</em>,4<em>E</em>,10<em>S</em>,10a<em>S</em>)-;4β<span class=\"text-smallcaps\">H</span>-Germacra-1(10),7,11-trien-15-oic acid, 4,5β:8,12-diepoxy-6α-hydroxy-, γ-lactone, (<em>E</em>)-;2<em>H</em>-10,1a-(Epoxymethano)oxireno[4,5]cyclodeca[1,2-<em>b</em>]furan-12-one, 3,6,10,10a-tetrahydro-5,9-dimethyl-, [1a<em>S</em>-(1a<em>R</em>*,4<em>E</em>,10<em>R</em>*,10a<em>R</em>*)]-;Linderane;(1a<em>S</em>,4<em>E</em>,10<em>S</em>,10a<em>S</em>)-3,6,10,10a-Tetrahydro-5,9-dimethyl-2<em>H</em>-10,1a-(epoxymethano)oxireno[4,5]cyclodeca[1,2-<em>b</em>]furan-12-one",
    "duplicated_cas_no": "23024-57-9;28228-13-9",
    "SMILES": "",
    "meta_data": {
        "InChI": "",
        "InChIKey": null,
        "Canonical SMILES": "",
        "Molecular Formula": "C<sub>15</sub>H<sub>16</sub>O<sub>4</sub>",
        "Molecular Mass": "260.29",
        "Melting Point": "190-191 °C (decomp)"
    }
}