{
    "cas_no": "51186-83-5",
    "key_name": "<em>erythro</em>-Glycopyrronium bromide",
    "cn_name": null,
    "alternate_name": "Pyrrolidinium, 3-[[(2<em>R</em>)-2-cyclopentyl-2-hydroxy-2-phenylacetyl]oxy]-1,1-dimethyl-, bromide (1:1), (3<em>S</em>)-<em>rel</em>-;Pyrrolidinium, 3-[(cyclopentylhydroxyphenylacetyl)oxy]-1,1-dimethyl-, bromide, (<em>R</em>*,<em>S</em>*)-(±)-;Pyrrolidinium, 3-[[(2<em>R</em>)-cyclopentylhydroxyphenylacetyl]oxy]-1,1-dimethyl-, bromide, (3<em>S</em>)-<em>rel</em>-;<em>erythro</em>-Glycopyrronium bromide;Ritropirronium bromide;<em>erythro</em>-3-Hydroxy-1,1-dimethylpyrrolidinium bromide α-cyclopentylmandelate",
    "duplicated_cas_no": "59677-71-3",
    "SMILES": "[C@@](C(O[C@@H]1C[N+](C)(C)CC1)=O)(O)(C2CCCC2)C3=CC=CC=C3.[Br-]",
    "meta_data": {
        "InChI": "InChI=1/C19H28NO3.BrH/c1-20(2)13-12-17(14-20)23-18(21)19(22,16-10-6-7-11-16)15-8-4-3-5-9-15;/h3-5,8-9,16-17,22H,6-7,10-14H2,1-2H3;1H/q+1;/p-1/t17-,19-;/s2",
        "InChIKey": null,
        "Canonical SMILES": "[Br-].O=C(OC1CC[N+](C)(C)C1)C(O)(C=2C=CC=CC2)C3CCCC3",
        "Molecular Formula": "C<sub>19</sub>H<sub>28</sub>NO<sub>3</sub>.Br",
        "Molecular Mass": "",
        "Melting Point": "175 °C"
    }
}