{
    "cas_no": "382-67-2",
    "key_name": "Desoximetasone",
    "cn_name": "去羟米松;",
    "alternate_name": "Pregna-1,4-diene-3,20-dione, 9-fluoro-11,21-dihydroxy-16-methyl-, (11β,16α)-;Pregna-1,4-diene-3,20-dione, 9-fluoro-11β,21-dihydroxy-16α-methyl-;(11β,16α)-9-Fluoro-11,21-dihydroxy-16-methylpregna-1,4-diene-3,20-dione;9α-Fluoro-11β,21-dihydroxy-16α-methylpregna-1,4-diene-3,20-dione;17-Desoximethasone;Deoxymethasone;9-Fluoro-16α-methyl-Δ<sup>1</sup>-corticosterone;17-Deoxymethasone;Desoximetasone;A 41304;R 2113;Topicorte;Topisolon;Desoxymetasone;Desoxymethasone;Desoximethasone;17-Deoxydexamethasone;A 41-304;Esperson;Stidex;HOE 304;Topicort;MeSH ID: D003899",
    "duplicated_cas_no": "51943-85-2;64501-68-4",
    "SMILES": "F[C@@]12[C@]([C@]3([C@](C)(C[C@@H]1O)[C@@H](C(CO)=O)[C@H](C)C3)[H])(CCC=4[C@]2(C)C=CC(=O)C4)[H]",
    "meta_data": {
        "InChI": "InChI=1S/C22H29FO4/c1-12-8-16-15-5-4-13-9-14(25)6-7-21(13,3)22(15,23)18(27)10-20(16,2)19(12)17(26)11-24/h6-7,9,12,15-16,18-19,24,27H,4-5,8,10-11H2,1-3H3/t12-,15+,16+,18+,19-,20+,21+,22+/m1/s1",
        "InChIKey": null,
        "Canonical SMILES": "O=C1C=CC2(C(=C1)CCC3C4CC(C)C(C(=O)CO)C4(C)CC(O)C32F)C",
        "Molecular Formula": "C<sub>22</sub>H<sub>29</sub>FO<sub>4</sub>",
        "Molecular Mass": "376.46",
        "Melting Point": "217 °C"
    }
}