{
    "cas_no": "19355-69-2",
    "key_name": "2-Amino-2-methylpropanenitrile",
    "cn_name": "N-氰基-N\"-甲基乙脒;2-氨基-2-甲基丙烷腈;2,2-二甲基乙腈胺;",
    "alternate_name": "Propanenitrile, 2-amino-2-methyl-;Propionitrile, 2-amino-2-methyl-;2-Amino-2-methylpropanenitrile;α-Aminoisobutyronitrile;1-Cyano-1-methylethylamine;2-Amino-2-methylpropionitrile;2-Amino-2-cyanopropane;2-Cyanoisopropylamine;2-Aminoisobutyronitrile;2-Aminopropane-2-carbonitrile;Aminodimethylacetonitrile;α-Amino-α-methylpropionitrile",
    "duplicated_cas_no": "",
    "SMILES": "C(C#N)(C)(C)N",
    "meta_data": {
        "InChI": "InChI=1S/C4H8N2/c1-4(2,6)3-5/h6H2,1-2H3",
        "InChIKey": null,
        "Canonical SMILES": "N#CC(N)(C)C",
        "Molecular Formula": "C<sub>4</sub>H<sub>8</sub>N<sub>2</sub>",
        "Molecular Mass": "84.12",
        "Boiling Point": "51-52 °C @ Press: 15 Torr",
        "Density": "0.885 g/cm³ @ Temp: 25 °C"
    }
}