{
    "cas_no": "99-40-1",
    "key_name": "2-Chloro-3′,4′-dihydroxyacetophenone",
    "cn_name": "3,4-二羟基-2\"-氯苯乙酮;",
    "alternate_name": "Ethanone, 2-chloro-1-(3,4-dihydroxyphenyl)-;Acetophenone, 2-chloro-3′,4′-dihydroxy-;Acetophenone, α-chloro-3,4-dihydroxy-;2-Chloro-1-(3,4-dihydroxyphenyl)ethanone;3,4-Dihydroxyphenacyl chloride;α-Chloro-3′,4′-dihydroxyacetophenone;2-Chloro-3′,4′-dihydroxyacetophenone;1-Chloroacetyl-3,4-dihydroxybenzene;2-Chloro-1-(3,4-dihydroxyphenyl)-1-ethanone;4-(Chloroacetyl)catechol;NSC 13905;NSC 17869;3,4-Dihydroxy-α-chloroacetophenone;3′,4′-Dihydroxy-2-chloroacetophenone",
    "duplicated_cas_no": "",
    "SMILES": "C(CCl)(=O)C1=CC(O)=C(O)C=C1",
    "meta_data": {
        "InChI": "InChI=1S/C8H7ClO3/c9-4-8(12)5-1-2-6(10)7(11)3-5/h1-3,10-11H,4H2",
        "InChIKey": null,
        "Canonical SMILES": "O=C(C1=CC=C(O)C(O)=C1)CCl",
        "Molecular Formula": "C<sub>8</sub>H<sub>7</sub>ClO<sub>3</sub>",
        "Molecular Mass": "186.59",
        "Melting Point": "173 °C (decomp)"
    }
}