{
    "cas_no": "32159-21-0",
    "key_name": "1-(Phenylmethyl) (2<em>S</em>)-5-oxo-1,2-pyrrolidinedicarboxylate",
    "cn_name": "N-苄氧羰基-L-焦谷氨酸;CBZ-L-焦谷氨酸;CBZ-PYR-OH;Cbz-焦谷氨酸;N-苄氧羰基-L-焦谷氨酸;",
    "alternate_name": "1,2-Pyrrolidinedicarboxylic acid, 5-oxo-, 1-(phenylmethyl) ester, (2<em>S</em>)-;1,2-Pyrrolidinedicarboxylic acid, 5-oxo-, 1-benzyl ester, <span class=\"text-smallcaps\">L</span>-;1,2-Pyrrolidinedicarboxylic acid, 5-oxo-, 1-(phenylmethyl) ester, (<em>S</em>)-;1-(Phenylmethyl) (2<em>S</em>)-5-oxo-1,2-pyrrolidinedicarboxylate;<em>N</em>-Carbobenzoxypyroglutamic acid;(Benzyloxycarbonyl)-<span class=\"text-smallcaps\">L</span>-pyroglutamic acid;<em>N</em>-Benzyloxycarbonyl-<span class=\"text-smallcaps\">L</span>-pyroglutamic acid;Carbobenzoxy-<span class=\"text-smallcaps\">L</span>-pyroglutamic acid;<span class=\"text-smallcaps\">L</span>-(Phenylmethoxycarbonyl)pyroglutamic acid;<em>N</em>-Benzyloxycarbonylpyroglutamic acid;(2<em>S</em>)-5-Oxopyrrolidine-1,2-dicarboxylic acid 1-benzyl ester;(<em>S</em>)-1-(Benzyloxycarbonyl)-5-oxopyrrolidine-2-carboxylic acid;(2S)-1-[(Benzyloxy)carbonyl]-5-oxopyrrolidine-2-carboxylic acid",
    "duplicated_cas_no": "",
    "SMILES": "C(OCC1=CC=CC=C1)(=O)N2[C@H](C(O)=O)CCC2=O",
    "meta_data": {
        "InChI": "InChI=1S/C13H13NO5/c15-11-7-6-10(12(16)17)14(11)13(18)19-8-9-4-2-1-3-5-9/h1-5,10H,6-8H2,(H,16,17)/t10-/m0/s1",
        "InChIKey": null,
        "Canonical SMILES": "O=C(OCC=1C=CC=CC1)N2C(=O)CCC2C(=O)O",
        "Molecular Formula": "C<sub>13</sub>H<sub>13</sub>NO<sub>5</sub>",
        "Molecular Mass": "263.25",
        "Melting Point": "135-136 °C"
    }
}