{
    "cas_no": "79047-41-9",
    "key_name": "2-Butyl-5-chloro-1<em>H</em>-imidazole-4-methanol",
    "cn_name": "2-丁基-4-氯-5-(羟甲基)咪唑;",
    "alternate_name": "1<em>H</em>-Imidazole-4-methanol, 2-butyl-5-chloro-;2-Butyl-5-chloro-1<em>H</em>-imidazole-4-methanol;2-Butyl-4-chloro-5-(hydroxymethyl)imidazole;2-Butyl-5-chloroimidazole-4-methanol;2-Butyl-4-chloro-5-hydroxymethyl-1<em>H</em>-imidazole;2-<em>n</em>-Butyl-4-chloro-5-(hydroxymethyl)imidazole;5-Chloro-2-butylimidazole-4-methanol;(2-Butyl-4-chloro-1<em>H</em>-imidazol-5-yl)methanol;(2-Butyl-5-chloro-1<em>H</em>-imidazol-4-yl)methanol",
    "duplicated_cas_no": "1023998-18-6",
    "SMILES": "C(CCC)C=1NC(CO)=C(Cl)N1",
    "meta_data": {
        "InChI": "InChI=1S/C8H13ClN2O/c1-2-3-4-7-10-6(5-12)8(9)11-7/h12H,2-5H2,1H3,(H,10,11)",
        "InChIKey": null,
        "Canonical SMILES": "ClC=1N=C(NC1CO)CCCC",
        "Molecular Formula": "C<sub>8</sub>H<sub>13</sub>ClN<sub>2</sub>O",
        "Molecular Mass": "188.65",
        "Melting Point": "147-148 °C"
    }
}