{
    "cas_no": "113712-98-4",
    "key_name": "Tenatoprazole",
    "cn_name": "泰妥拉唑;5-甲氧基-2-(4-甲氧基-3,5-二甲基吡啶-2-甲基亚磺酰基)咪唑并(4,5-b)吡啶;",
    "alternate_name": "3<em>H</em>-Imidazo[4,5-<em>b</em>]pyridine, 5-methoxy-2-[[(4-methoxy-3,5-dimethyl-2-pyridinyl)methyl]sulfinyl]-;1<em>H</em>-Imidazo[4,5-<em>b</em>]pyridine, 5-methoxy-2-[[(4-methoxy-3,5-dimethyl-2-pyridinyl)methyl]sulfinyl]-;5-Methoxy-2-[[(4-methoxy-3,5-dimethyl-2-pyridinyl)methyl]sulfinyl]-3<em>H</em>-imidazo[4,5-<em>b</em>]pyridine;TU 199;Tenatoprazole;5-Methoxy-2-[[(4-methoxy-3,5-dimethyl-2-pyridyl)methyl]sulfinyl]-1<em>H</em>-imidazo[4,5-<em>b</em>]pyridine;(±)-Tenatoprazole;5-Methoxy-2-[[(4-methoxy-3,5-dimethyl-2-pyridinyl)methyl]sulfinyl]-1<em>H</em>-imidazo[4,5-<em>b</em>]pyridine;2-[2-[(4-Methoxy-3,5-dimethyl-2-pyridinyl)methyl]sulfinyl]-5-methoxyimidazo[4,5-<em>b</em>]pyridine",
    "duplicated_cas_no": "",
    "SMILES": "S(CC1=C(C)C(OC)=C(C)C=N1)(=O)C2=NC=3C(N2)=CC=C(OC)N3",
    "meta_data": {
        "InChI": "InChI=1S/C16H18N4O3S/c1-9-7-17-12(10(2)14(9)23-4)8-24(21)16-18-11-5-6-13(22-3)19-15(11)20-16/h5-7H,8H2,1-4H3,(H,18,19,20)",
        "InChIKey": null,
        "Canonical SMILES": "O=S(C1=NC=2N=C(OC)C=CC2N1)CC3=NC=C(C(OC)=C3C)C",
        "Molecular Formula": "C<sub>16</sub>H<sub>18</sub>N<sub>4</sub>O<sub>3</sub>S",
        "Molecular Mass": "346.40",
        "Melting Point": "174-175 °C"
    }
}