{
    "cas_no": "4461-33-0",
    "key_name": "Benzoyl isocyanate",
    "cn_name": null,
    "alternate_name": "Benzoyl isocyanate;Benzoic acid, anhydride with isocyanic acid;Benzoic acid, anhydride with HNCO;Isocyanic acid, anhydride with benzoic acid;NSC 246191",
    "duplicated_cas_no": "",
    "SMILES": "C(N=C=O)(=O)C1=CC=CC=C1",
    "meta_data": {
        "InChI": "InChI=1S/C8H5NO2/c10-6-9-8(11)7-4-2-1-3-5-7/h1-5H",
        "InChIKey": null,
        "Canonical SMILES": "O=C=NC(=O)C=1C=CC=CC1",
        "Molecular Formula": "C<sub>8</sub>H<sub>5</sub>NO<sub>2</sub>",
        "Molecular Mass": "147.13",
        "Boiling Point": "82-84 °C @ Press: 10 Torr"
    }
}