{
    "cas_no": "1431-39-6",
    "key_name": "Dansylamide",
    "cn_name": "丹酰胺;1-(二甲氨基)萘-5-磺酰胺;丹磺酰胺;",
    "alternate_name": "1-Naphthalenesulfonamide, 5-(dimethylamino)-;5-(Dimethylamino)-1-naphthalenesulfonamide;Dansylamide;1-(Dimethylamino)-5-naphthalenesulfonamide",
    "duplicated_cas_no": "",
    "SMILES": "S(N)(=O)(=O)C=1C2=C(C(N(C)C)=CC=C2)C=CC1",
    "meta_data": {
        "InChI": "InChI=1S/C12H14N2O2S/c1-14(2)11-7-3-6-10-9(11)5-4-8-12(10)17(13,15)16/h3-8H,1-2H3,(H2,13,15,16)",
        "InChIKey": null,
        "Canonical SMILES": "O=S(=O)(N)C1=CC=CC=2C1=CC=CC2N(C)C",
        "Molecular Formula": "C<sub>12</sub>H<sub>14</sub>N<sub>2</sub>O<sub>2</sub>S",
        "Molecular Mass": "250.32",
        "Melting Point": "218-221 °C"
    }
}