{
    "cas_no": "644-08-6",
    "key_name": "4-Methylbiphenyl",
    "cn_name": "4-甲基联苯;",
    "alternate_name": "1,1′-Biphenyl, 4-methyl-;Biphenyl, 4-methyl-;4-Methyl-1,1′-biphenyl;4-Methylbiphenyl;4-Methyldiphenyl;<em>p</em>-Methylbiphenyl;<em>p</em>-Methyldiphenyl;<em>p</em>-Phenyltoluene;4-Phenyltoluene;(4-Methylphenyl)benzene;1-Methyl-4-phenylbenzene;NSC 407669;<em>p</em>-Methylphenyl benzene",
    "duplicated_cas_no": "",
    "SMILES": "CC1=CC=C(C=C1)C2=CC=CC=C2",
    "meta_data": {
        "InChI": "InChI=1S/C13H12/c1-11-7-9-13(10-8-11)12-5-3-2-4-6-12/h2-10H,1H3",
        "InChIKey": null,
        "Canonical SMILES": "C=1C=CC(=CC1)C=2C=CC(=CC2)C",
        "Molecular Formula": "C<sub>13</sub>H<sub>12</sub>",
        "Molecular Mass": "168.23",
        "Boiling Point": "267.5 °C",
        "Melting Point": "49.5 °C"
    }
}