{
    "cas_no": "811-97-2",
    "key_name": "1,1,1,2-Tetrafluoroethane",
    "cn_name": "1,1,1,2-四氟乙烷;",
    "alternate_name": "Ethane, 1,1,1,2-tetrafluoro-;1,1,1,2-Tetrafluoroethane;Norflurane;1,2,2,2-Tetrafluoroethane;R 134a;Refrigerant R 134a;Arcton 134a;HFC 134a;F 134A;FC 134a;Fron 134a;HFA 134a;HCFC 134a;TG 134a;Khladon 134a;Freon 134a;Forane 134a;HC 134a;Ecolo Ace 134a;SUVA 134a;AK 134a;HFA 134;Solkane 134a;HFA P134a;Halon 134A;RF 134a;P 134A;KLEA 134a;Genetron 134a;Meforex 134a;134a;Freon R 134a;H 134A;HFA 334a",
    "duplicated_cas_no": "",
    "SMILES": "C(CF)(F)(F)F",
    "meta_data": {
        "InChI": "InChI=1S/C2H2F4/c3-1-2(4,5)6/h1H2",
        "InChIKey": null,
        "Canonical SMILES": "FCC(F)(F)F",
        "Molecular Formula": "C<sub>2</sub>H<sub>2</sub>F<sub>4</sub>",
        "Molecular Mass": "102.03",
        "Boiling Point": "-26 °C",
        "Melting Point": "-101 °C",
        "Density": "1.1718 g/cm³ (liquid) @ Temp: 60.000 °C; Press: 1.20 x 10⁵ Torr"
    }
}