{
    "cas_no": "890707-28-5",
    "key_name": "2-Amino-5-chloro-<em>N</em>,3-dimethylbenzamide",
    "cn_name": null,
    "alternate_name": "Benzamide, 2-amino-5-chloro-<em>N</em>,3-dimethyl-;2-Amino-5-chloro-<em>N</em>,3-dimethylbenzamide;2-Amino-5-chloro-<em>N</em>-methyl-3-methylbenzamide",
    "duplicated_cas_no": "",
    "SMILES": "C(NC)(=O)C1=C(N)C(C)=CC(Cl)=C1",
    "meta_data": {
        "InChI": "InChI=1S/C9H11ClN2O/c1-5-3-6(10)4-7(8(5)11)9(13)12-2/h3-4H,11H2,1-2H3,(H,12,13)",
        "InChIKey": null,
        "Canonical SMILES": "O=C(NC)C1=CC(Cl)=CC(=C1N)C",
        "Molecular Formula": "C<sub>9</sub>H<sub>11</sub>ClN<sub>2</sub>O",
        "Molecular Mass": "198.65",
        "Melting Point": "130-132 °C"
    }
}