{
    "cas_no": "2126-91-2",
    "key_name": "Benzenebutanoic acid, α,2-diamino-γ-oxo-, sulfate (1:1)",
    "cn_name": "DL-犬尿氨酸硫酸盐;",
    "alternate_name": "Benzenebutanoic acid, α,2-diamino-γ-oxo-, sulfate (1:1);Alanine, 3-anthraniloyl-, sulfate (1:1), <span class=\"text-smallcaps\">DL</span>-;Benzenebutanoic acid, α,2-diamino-γ-oxo-, (±)-, sulfate (1:1);<span class=\"text-smallcaps\">DL</span>-Kynurenine sulfate;2-Amino-4-(2-aminophenyl)-4-oxobutanoic acid compound with sulfuric acid (1:1)",
    "duplicated_cas_no": "",
    "SMILES": "S(=O)(=O)(O)O.C(CC(C(O)=O)N)(=O)C1=C(N)C=CC=C1",
    "meta_data": {
        "InChI": "InChI=1S/C10H12N2O3.H2O4S/c11-7-4-2-1-3-6(7)9(13)5-8(12)10(14)15;1-5(2,3)4/h1-4,8H,5,11-12H2,(H,14,15);(H2,1,2,3,4)",
        "InChIKey": null,
        "Canonical SMILES": "O=C(O)C(N)CC(=O)C=1C=CC=CC1N.O=S(=O)(O)O",
        "Molecular Formula": "C<sub>10</sub>H<sub>12</sub>N<sub>2</sub>O<sub>3</sub>.H<sub>2</sub>O<sub>4</sub>S",
        "Molecular Mass": "",
        "Melting Point": "174-175 °C (decomp)"
    }
}