{
    "cas_no": "18162-84-0",
    "key_name": "Chlorodimethyloctylsilane",
    "cn_name": "氯二甲基辛硅烷;二甲基辛基氯硅烷;氯化二甲基辛基硅烷;辛基二甲基氯硅烷;正辛基化二甲基化氯化硅烷;",
    "alternate_name": "Silane, chlorodimethyloctyl-;Chlorodimethyloctylsilane;<em>n</em>-Octyldimethylchlorosilane;Octyldimethylchlorosilane;Dimethyl(octyl)silyl chloride;Dimethyloctylchlorosilane;Dimethyl-<em>n</em>-octylchlorosilane;ODMCS;LS 3490",
    "duplicated_cas_no": "1690317-68-0",
    "SMILES": "C(CCCCCCC)[Si](C)(C)Cl",
    "meta_data": {
        "InChI": "InChI=1S/C10H23ClSi/c1-4-5-6-7-8-9-10-12(2,3)11/h4-10H2,1-3H3",
        "InChIKey": null,
        "Canonical SMILES": "Cl[Si](C)(C)CCCCCCCC",
        "Molecular Formula": "C<sub>10</sub>H<sub>23</sub>ClSi",
        "Molecular Mass": "206.83",
        "Boiling Point": "222-225 °C",
        "Density": "0.794 g/cm³"
    }
}