{
    "cas_no": "616-45-5",
    "key_name": "2-Pyrrolidone",
    "cn_name": "2-吡咯烷酮;",
    "alternate_name": "2-Pyrrolidinone;2-Pyrrolidone;γ-Butyrolactam;α-Pyrrolidone;γ-Aminobutyric lactam;α-Pyrrolidinone;Butyrolactam;Pyrrolidone;γ-Aminobutyrolactam;2-Oxopyrrolidine;2-Pyrol;4-Aminobutyric acid lactam;γ-Aminobutyric acid lactam;2-Tetrahydropyrrolone;Butanoic acid, 4-amino-, lactam;Azacyclopentan-2-one;NSC 4593;NSC 8413;Soluphor P;2-Oxo-4-butyrolactam;Kollisolv PYR;Pyrrolidin-2-one",
    "duplicated_cas_no": "",
    "SMILES": "O=C1CCCN1",
    "meta_data": {
        "InChI": "InChI=1S/C4H7NO/c6-4-2-1-3-5-4/h1-3H2,(H,5,6)",
        "InChIKey": null,
        "Canonical SMILES": "O=C1NCCC1",
        "Molecular Formula": "C<sub>4</sub>H<sub>7</sub>NO",
        "Molecular Mass": "85.10",
        "Boiling Point": "76 °C @ Press: 0.2 Torr",
        "Melting Point": "25.0 °C",
        "Density": "1.116 g/cm³ @ Temp: 25 °C"
    }
}