{
    "cas_no": "3857-25-8",
    "key_name": "5-Methyl-2-furanmethanol",
    "cn_name": "5-甲基-2-呋喃甲醇;",
    "alternate_name": "2-Furanmethanol, 5-methyl-;Furfuryl alcohol, 5-methyl-;5-Methyl-2-furanmethanol;Furan, 2-(hydroxymethyl)-5-methyl-;5-Methyl-2-furfuryl alcohol;2-(Hydroxymethyl)-5-methylfuran;5-Methylfurfuryl alcohol;(5-Methylfuran-2-yl)methanol;(5-Methyl-2-furyl)methanol",
    "duplicated_cas_no": "",
    "SMILES": "C(O)C=1OC(C)=CC1",
    "meta_data": {
        "InChI": "InChI=1S/C6H8O2/c1-5-2-3-6(4-7)8-5/h2-3,7H,4H2,1H3",
        "InChIKey": null,
        "Canonical SMILES": "OCC=1OC(=CC1)C",
        "Molecular Formula": "C<sub>6</sub>H<sub>8</sub>O<sub>2</sub>",
        "Molecular Mass": "112.13",
        "Boiling Point": "100 °C @ Press: 11 Torr",
        "Density": "1.0769 g/cm³ @ Temp: 20 °C"
    }
}