{
    "cas_no": "2745-26-8",
    "key_name": "2-Furanacetic acid",
    "cn_name": null,
    "alternate_name": "2-Furanacetic acid;2-Furylacetic acid;2-(2-Furyl)acetic acid;2-Furanylacetic acid;2-(Furan-2-yl)acetic acid",
    "duplicated_cas_no": "",
    "SMILES": "C(C(O)=O)C1=CC=CO1",
    "meta_data": {
        "InChI": "InChI=1S/C6H6O3/c7-6(8)4-5-2-1-3-9-5/h1-3H,4H2,(H,7,8)",
        "InChIKey": null,
        "Canonical SMILES": "O=C(O)CC=1OC=CC1",
        "Molecular Formula": "C<sub>6</sub>H<sub>6</sub>O<sub>3</sub>",
        "Molecular Mass": "126.11",
        "Melting Point": "68.5 °C"
    }
}