{
    "cas_no": "673-31-4",
    "key_name": "Phenprobamate",
    "cn_name": "苯丙氨酯;3-苯基-1-丙醇氨基甲酸酯;",
    "alternate_name": "Benzenepropanol, 1-carbamate;1-Propanol, 3-phenyl-, carbamate;Benzenepropanol, carbamate;Carbamic acid, 3-phenylpropyl ester;MH 532;Phenprobamate;3-Phenyl-1-propanol carbamate;Proformiphen;3-Phenylpropyl carbamate;Extacol;Palmita;Spantol;Eirenal;Tranquil;γ-Phenylpropyl carbamate;Gamaquil;Ansepron;Quamaquil;NSC 44682;NSC 50538;NSC 64270",
    "duplicated_cas_no": "",
    "SMILES": "C(CCOC(N)=O)C1=CC=CC=C1",
    "meta_data": {
        "InChI": "InChI=1S/C10H13NO2/c11-10(12)13-8-4-7-9-5-2-1-3-6-9/h1-3,5-6H,4,7-8H2,(H2,11,12)",
        "InChIKey": null,
        "Canonical SMILES": "O=C(OCCCC=1C=CC=CC1)N",
        "Molecular Formula": "C<sub>10</sub>H<sub>13</sub>NO<sub>2</sub>",
        "Molecular Mass": "179.22",
        "Melting Point": "102 °C"
    }
}