{
    "cas_no": "625120-81-2",
    "key_name": "<em>N</em>-Methyl-<em>N</em>-pentyl-β-alanine hydrochloride",
    "cn_name": "3-(N-甲基正戊胺基)丙酸盐酸盐;",
    "alternate_name": "β-Alanine, <em>N</em>-methyl-<em>N</em>-pentyl-, hydrochloride (1:1);β-Alanine, <em>N</em>-methyl-<em>N</em>-pentyl-, hydrochloride;Ibanic acid hydrochloride;<em>N</em>-Methyl-<em>N</em>-pentyl-β-alanine hydrochloride",
    "duplicated_cas_no": "",
    "SMILES": "N(CCC(O)=O)(CCCCC)C.Cl",
    "meta_data": {
        "InChI": "InChI=1S/C9H19NO2.ClH/c1-3-4-5-7-10(2)8-6-9(11)12;/h3-8H2,1-2H3,(H,11,12);1H",
        "InChIKey": null,
        "Canonical SMILES": "Cl.O=C(O)CCN(C)CCCCC",
        "Molecular Formula": "C<sub>9</sub>H<sub>19</sub>NO<sub>2</sub>.ClH",
        "Molecular Mass": "",
        "Melting Point": "97.0-98.5 °C"
    }
}