{
    "cas_no": "507-02-8",
    "key_name": "Acetyl iodide",
    "cn_name": "乙酰碘;",
    "alternate_name": "Acetyl iodide",
    "duplicated_cas_no": "",
    "SMILES": "C(C)(I)=O",
    "meta_data": {
        "InChI": "InChI=1S/C2H3IO/c1-2(3)4/h1H3",
        "InChIKey": null,
        "Canonical SMILES": "O=C(I)C",
        "Molecular Formula": "C<sub>2</sub>H<sub>3</sub>IO",
        "Molecular Mass": "169.95",
        "Boiling Point": "108 °C"
    }
}