{
    "cas_no": "502-72-7",
    "key_name": "Cyclopentadecanone",
    "cn_name": "环十五烷酮;",
    "alternate_name": "Cyclopentadecanone;Normuscone;Exaltone;Normuscon;NSC 63900;CPE 218",
    "duplicated_cas_no": "",
    "SMILES": "O=C1CCCCCCCCCCCCCC1",
    "meta_data": {
        "InChI": "InChI=1S/C15H28O/c16-15-13-11-9-7-5-3-1-2-4-6-8-10-12-14-15/h1-14H2",
        "InChIKey": null,
        "Canonical SMILES": "O=C1CCCCCCCCCCCCCC1",
        "Molecular Formula": "C<sub>15</sub>H<sub>28</sub>O",
        "Molecular Mass": "224.38",
        "Boiling Point": "120 °C",
        "Melting Point": "63 °C",
        "Density": "0.8973 g/cm³ @ Temp: 66 °C"
    }
}