{
    "cas_no": "2341-22-2",
    "key_name": "5-Fluorocytidine",
    "cn_name": "5-氟胞嘧啶核苷;5-氟胞苷;",
    "alternate_name": "Cytidine, 5-fluoro-;5-Fluorocytidine",
    "duplicated_cas_no": "",
    "SMILES": "O[C@H]1[C@@H](O[C@H](CO)[C@H]1O)N2C(=O)N=C(N)C(F)=C2",
    "meta_data": {
        "InChI": "InChI=1S/C9H12FN3O5/c10-3-1-13(9(17)12-7(3)11)8-6(16)5(15)4(2-14)18-8/h1,4-6,8,14-16H,2H2,(H2,11,12,17)/t4-,5-,6-,8-/m1/s1",
        "InChIKey": null,
        "Canonical SMILES": "O=C1N=C(N)C(F)=CN1C2OC(CO)C(O)C2O",
        "Molecular Formula": "C<sub>9</sub>H<sub>12</sub>FN<sub>3</sub>O<sub>5</sub>",
        "Molecular Mass": "261.21",
        "Melting Point": "190-200 °C"
    }
}