{
    "cas_no": "4313-57-9",
    "key_name": "1-Methyl-1,4-cyclohexadiene",
    "cn_name": "1-甲基-1,4-环己二烯;1-甲基-1,4-环己二烯;2,5-二氢甲苯;",
    "alternate_name": "1,4-Cyclohexadiene, 1-methyl-;1-Methyl-1,4-cyclohexadiene;2,5-Dihydrotoluene;2-Methyl-1,4-cyclohexadiene;NSC 74127",
    "duplicated_cas_no": "",
    "SMILES": "CC=1CC=CCC1",
    "meta_data": {
        "InChI": "InChI=1S/C7H10/c1-7-5-3-2-4-6-7/h2-3,6H,4-5H2,1H3",
        "InChIKey": null,
        "Canonical SMILES": "C1=CCC(=CC1)C",
        "Molecular Formula": "C<sub>7</sub>H<sub>10</sub>",
        "Molecular Mass": "94.15",
        "Boiling Point": "114-115 °C",
        "Melting Point": "&lt;-70 °C",
        "Density": "0.848 g/cm³ @ Temp: 20 °C"
    }
}