{
    "cas_no": "7636-26-2",
    "key_name": "3-Methoxy-<em>dl</em>-tyrosine",
    "cn_name": null,
    "alternate_name": "Tyrosine, 3-methoxy-;Alanine, 3-(4-hydroxy-3-methoxyphenyl)-;3-Methoxytyrosine;3-Methoxy-4-hydroxyphenylalanine;3-(4-Hydroxy-3-methoxyphenyl)alanine;4-Hydroxy-3-methoxyphenylalanine;<span class=\"text-smallcaps\">DL</span>-3-Methoxy-4-hydroxyphenylalanine;3-Methoxy-<em>dl</em>-tyrosine;<span class=\"text-smallcaps\">DL</span>-3-<em>O</em>-Methyldopa;<span class=\"text-smallcaps\">DL</span>-3-Methoxytyrosine;NSC 122476;2-Amino-3-(4-hydroxy-3-methoxyphenyl)propanoic acid;3-Methoxy-<span class=\"text-smallcaps\">D</span>,L-tyrosine",
    "duplicated_cas_no": "4214-13-5",
    "SMILES": "C(C(C(O)=O)N)C1=CC(OC)=C(O)C=C1",
    "meta_data": {
        "InChI": "InChI=1S/C10H13NO4/c1-15-9-5-6(2-3-8(9)12)4-7(11)10(13)14/h2-3,5,7,12H,4,11H2,1H3,(H,13,14)",
        "InChIKey": null,
        "Canonical SMILES": "O=C(O)C(N)CC1=CC=C(O)C(OC)=C1",
        "Molecular Formula": "C<sub>10</sub>H<sub>13</sub>NO<sub>4</sub>",
        "Molecular Mass": "211.21",
        "Melting Point": "268 °C (decomp)"
    }
}