{
    "cas_no": "61566-34-5",
    "key_name": "Ibuprofen methyl ester",
    "cn_name": null,
    "alternate_name": "Benzeneacetic acid, α-methyl-4-(2-methylpropyl)-, methyl ester;Methyl 2-(<em>p</em>-isobutylphenyl)propionate;Ibuprofen methyl ester;Methyl α-(4-isobutylphenyl)propionate;Methyl 2-(4-isobutylphenyl)propionate;Methyl α-(<em>p</em>-isobutylphenyl)propionate;Methyl 2-(4′-isobutylphenyl)propanoate;(±)-Ibuprofen methyl ester;Racemic ibuprofen methyl ester;2-(4-Isobutylphenyl)propionic acid methyl ester",
    "duplicated_cas_no": "114376-60-2",
    "SMILES": "C(C(OC)=O)(C)C1=CC=C(CC(C)C)C=C1",
    "meta_data": {
        "InChI": "InChI=1S/C14H20O2/c1-10(2)9-12-5-7-13(8-6-12)11(3)14(15)16-4/h5-8,10-11H,9H2,1-4H3",
        "InChIKey": null,
        "Canonical SMILES": "O=C(OC)C(C1=CC=C(C=C1)CC(C)C)C",
        "Molecular Formula": "C<sub>14</sub>H<sub>20</sub>O<sub>2</sub>",
        "Molecular Mass": "220.31",
        "Boiling Point": "120-130 °C @ Press: 17 Torr"
    }
}