{
    "cas_no": "106-88-7",
    "key_name": "1,2-Epoxybutane",
    "cn_name": "1,2-环氧丁烷;1,2-环氧丁烷；氧化丁烯;",
    "alternate_name": "Oxirane, 2-ethyl-;Butane, 1,2-epoxy-;Oxirane, ethyl-;2-Ethyloxirane;1-Butene oxide;1,2-Butene oxide;1,2-Butylene oxide;1,2-Epoxybutane;Ethylethylene oxide;α-Butylene oxide;Ethyloxirane;1-Butylene oxide;Butene 1,2-epoxide;1,2-Butylene epoxide;<span class=\"text-smallcaps\">DL</span>-1,2-Epoxybutane;(±)-Ethyloxirane;(±)-2-Ethyloxirane;Epoxybutane;NSC 24240;Butylene oxide;1,2-Cyclobutane epoxide",
    "duplicated_cas_no": "55555-96-9",
    "SMILES": "C(C)C1CO1",
    "meta_data": {
        "InChI": "InChI=1S/C4H8O/c1-2-4-3-5-4/h4H,2-3H2,1H3",
        "InChIKey": null,
        "Canonical SMILES": "O1CC1CC",
        "Molecular Formula": "C<sub>4</sub>H<sub>8</sub>O",
        "Molecular Mass": "72.11",
        "Boiling Point": "63.3 °C",
        "Melting Point": "-150 °C",
        "Density": "0.8297 g/cm³ @ Temp: 20 °C"
    }
}