{
    "cas_no": "6732-01-0",
    "key_name": "Cholesteryl hydrogen phthalate",
    "cn_name": "邻苯二甲酸胆固醇氢酯;邻苯二甲酸胆甾醇氢酯;",
    "alternate_name": "Cholest-5-en-3-ol (3β)-, 3-(hydrogen 1,2-benzenedicarboxylate);Cholesterol, hydrogen phthalate;Cholest-5-en-3-ol (3β)-, hydrogen 1,2-benzenedicarboxylate;Phthalic acid, cholesteryl ester;Cholesteryl hydrogen phthalate;NSC 59691",
    "duplicated_cas_no": "",
    "SMILES": "C[C@@]12[C@@]3([C@]([C@]4([C@](C)(CC3)[C@@]([C@@H](CCCC(C)C)C)(CC4)[H])[H])(CC=C1C[C@@H](OC(=O)C5=C(C(O)=O)C=CC=C5)CC2)[H])[H]",
    "meta_data": {
        "InChI": "InChI=1S/C35H50O4/c1-22(2)9-8-10-23(3)29-15-16-30-28-14-13-24-21-25(17-19-34(24,4)31(28)18-20-35(29,30)5)39-33(38)27-12-7-6-11-26(27)32(36)37/h6-7,11-13,22-23,25,28-31H,8-10,14-21H2,1-5H3,(H,36,37)/t23-,25+,28+,29-,30+,31+,34+,35-/m1/s1",
        "InChIKey": null,
        "Canonical SMILES": "O=C(O)C=1C=CC=CC1C(=O)OC2CC3=CCC4C(CCC5(C)C(CCC45)C(C)CCCC(C)C)C3(C)CC2",
        "Molecular Formula": "C<sub>35</sub>H<sub>50</sub>O<sub>4</sub>",
        "Molecular Mass": "534.77",
        "Melting Point": "164 °C"
    }
}