{
    "cas_no": "119-15-3",
    "key_name": "Disperse Yellow 1",
    "cn_name": "分散黄1;分散黄1DisperseYellow1;",
    "alternate_name": "Phenol, 4-[(2,4-dinitrophenyl)amino]-;Phenol, <em>p</em>-(2,4-dinitroanilino)-;4-[(2,4-Dinitrophenyl)amino]phenol;C.I. 10345;Acetamine Yellow 2R;Acetoquinone Light Yellow 2RZ;Amacel Yellow RR;Celliton Fast Yellow RR;Celliton Fast Yellow RRA-CF;Cilla Fast Yellow RR;2,4-Dinitro-4′-hydroxydiphenylamine;Disperse Yellow R;Dispersol Fast Yellow A;Dispersol Printing Yellow A;Fenacet Fast Yellow 2R;4-Hydroxy-2′,4′-dinitrodiphenylamine;Kayalon Fast Yellow RR;Microsetile Yellow 2R;Nyloquinone Yellow 2R;Perliton Yellow RR;Reliton Yellow R;Serisol Fast Yellow A;Setacyl Yellow P-BS;SRA Golden Yellow VIII;Supracet Fast Yellow 2R;Supracet Yellow RR;C.I. Disperse Yellow 1;Fast Disperse Yellow 2K;Disperse Fast Yellow 2K;<em>N</em>-(2,4-Dinitrophenyl)-4-aminophenol;4-(2,4-Dinitroanilino)phenol;4′-Hydroxy-2,4-dinitrodiphenylamine;Permanent Yellow 2K;Dispersol Yellow B-A;Synten Yellow P 2R;C.I. Solvent Yellow 52;Tulasteron Fast Yellow R-B;NSC 13965;NSC 408078;NSC 6335;Disperse Yellow Stable 2K;Disperse Yellow 2G;Disperse Yellow 1",
    "duplicated_cas_no": "",
    "SMILES": "N(=O)(=O)C1=C(NC2=CC=C(O)C=C2)C=CC(N(=O)=O)=C1",
    "meta_data": {
        "InChI": "InChI=1S/C12H9N3O5/c16-10-4-1-8(2-5-10)13-11-6-3-9(14(17)18)7-12(11)15(19)20/h1-7,13,16H",
        "InChIKey": null,
        "Canonical SMILES": "O=N(=O)C1=CC=C(NC2=CC=C(O)C=C2)C(=C1)N(=O)=O",
        "Molecular Formula": "C<sub>12</sub>H<sub>9</sub>N<sub>3</sub>O<sub>5</sub>",
        "Molecular Mass": "275.22",
        "Melting Point": "194 °C"
    }
}