{
    "cas_no": "424-40-8",
    "key_name": "1,5-Diethyl 2,2,3,3,4,4-hexafluoropentanedioate",
    "cn_name": "六氟戊二酸二乙酯;六氟戊二酸二乙酯;",
    "alternate_name": "Pentanedioic acid, 2,2,3,3,4,4-hexafluoro-, 1,5-diethyl ester;Glutaric acid, hexafluoro-, diethyl ester;Pentanedioic acid, hexafluoro-, diethyl ester;1,5-Diethyl 2,2,3,3,4,4-hexafluoropentanedioate;Diethyl hexafluoroglutarate;Diethyl perfluoroglutarate;NSC 63360",
    "duplicated_cas_no": "",
    "SMILES": "C(C(C(OCC)=O)(F)F)(C(C(OCC)=O)(F)F)(F)F",
    "meta_data": {
        "InChI": "InChI=1S/C9H10F6O4/c1-3-18-5(16)7(10,11)9(14,15)8(12,13)6(17)19-4-2/h3-4H2,1-2H3",
        "InChIKey": null,
        "Canonical SMILES": "O=C(OCC)C(F)(F)C(F)(F)C(F)(F)C(=O)OCC",
        "Molecular Formula": "C<sub>9</sub>H<sub>10</sub>F<sub>6</sub>O<sub>4</sub>",
        "Molecular Mass": "296.16",
        "Boiling Point": "76 °C @ Press: 5 Torr"
    }
}