{
    "cas_no": "83261-15-8",
    "key_name": "Propanoic acid, 2-chloro-, 2-methylpropyl ester, (2<em>S</em>)-",
    "cn_name": "(S)-2-氯丙酸异丁酯;",
    "alternate_name": "Propanoic acid, 2-chloro-, 2-methylpropyl ester, (2<em>S</em>)-;Propanoic acid, 2-chloro-, 2-methylpropyl ester, (<em>S</em>)-;Isobutyl <span class=\"text-smallcaps\">L</span>-(-)-2-chloropropionate;(<em>S</em>)-Isobutyl 2-chloropropionate;Isobutyl <span class=\"text-smallcaps\">L</span>-2-chloropropionate;(<em>S</em>)-2-Chloropropionic acid 2-methylpropyl ester;(<em>S</em>)-Isobutyl-2-chloropropanoate;2-Methylpropyl (2S)-2-chloropropanoate",
    "duplicated_cas_no": "",
    "SMILES": "C(OCC(C)C)([C@H](C)Cl)=O",
    "meta_data": {
        "InChI": "InChI=1S/C7H13ClO2/c1-5(2)4-10-7(9)6(3)8/h5-6H,4H2,1-3H3/t6-/m0/s1",
        "InChIKey": null,
        "Canonical SMILES": "O=C(OCC(C)C)C(Cl)C",
        "Molecular Formula": "C<sub>7</sub>H<sub>13</sub>ClO<sub>2</sub>",
        "Molecular Mass": "164.63",
        "Boiling Point": "44-45.5 °C @ Press: 4 Torr"
    }
}