{
    "cas_no": "99817-36-4",
    "key_name": "2,4-Dichloro-3-ethyl-6-nitrophenol",
    "cn_name": "2,4-二氯-3-乙基-6-硝基苯酚;",
    "alternate_name": "Phenol, 2,4-dichloro-3-ethyl-6-nitro-;2,4-Dichloro-3-ethyl-6-nitrophenol;2-Nitro-4,6-dichloro-5-ethylphenol;5-Ethyl-4,6-dichloro-2-nitrophenol",
    "duplicated_cas_no": "",
    "SMILES": "N(=O)(=O)C1=C(O)C(Cl)=C(CC)C(Cl)=C1",
    "meta_data": {
        "InChI": "InChI=1S/C8H7Cl2NO3/c1-2-4-5(9)3-6(11(13)14)8(12)7(4)10/h3,12H,2H2,1H3",
        "InChIKey": null,
        "Canonical SMILES": "O=N(=O)C1=CC(Cl)=C(C(Cl)=C1O)CC",
        "Molecular Formula": "C<sub>8</sub>H<sub>7</sub>Cl<sub>2</sub>NO<sub>3</sub>",
        "Molecular Mass": "236.05",
        "Melting Point": "44-47 °C"
    }
}