{
    "cas_no": "3234-28-4",
    "key_name": "1,2-Epoxytetradecane",
    "cn_name": "1,2-环氧十四烷;",
    "alternate_name": "Oxirane, 2-dodecyl-;Tetradecane, 1,2-epoxy-;Oxirane, dodecyl-;2-Dodecyloxirane;Tetradecylene oxide;1,2-Epoxytetradecane;1-Tetradecene oxide;Dodecyloxirane;1,2-Tetradecylene oxide;1,2-Tetradecene oxide;(±)-1,2-Epoxytetradecane;(±)-Dodecyloxirane;Epoxide C 14;Vikolox 14;Vikolox C<sub>12</sub>;α-Tetradecene oxide;C 14O",
    "duplicated_cas_no": "130321-67-4",
    "SMILES": "C(CCCCCCCCCCC)C1CO1",
    "meta_data": {
        "InChI": "InChI=1S/C14H28O/c1-2-3-4-5-6-7-8-9-10-11-12-14-13-15-14/h14H,2-13H2,1H3",
        "InChIKey": null,
        "Canonical SMILES": "O1CC1CCCCCCCCCCCC",
        "Molecular Formula": "C<sub>14</sub>H<sub>28</sub>O",
        "Molecular Mass": "212.37",
        "Boiling Point": "95-96 °C @ Press: 0.4 Torr",
        "Melting Point": "185-186 °C (decomp)",
        "Density": "0.845 g/cm³ @ Temp: 20 °C"
    }
}