{
    "cas_no": "1866-15-5",
    "key_name": "Acetylthiocholine iodide",
    "cn_name": null,
    "alternate_name": "Ethanaminium, 2-(acetylthio)-<em>N</em>,<em>N</em>,<em>N</em>-trimethyl-, iodide (1:1);Ammonium, (2-mercaptoethyl)trimethyl-, iodide, acetate;Ethanaminium, 2-(acetylthio)-<em>N</em>,<em>N</em>,<em>N</em>-trimethyl-, iodide;(2-Mercaptoethyl)trimethylammonium iodide, acetate;Acetic acid, thio-, <em>S</em>-ester with (2-mercaptoethyl)trimethylammonium iodide;Acetylthiocholine iodide;<em>S</em>-Acetylthiocholine iodide;Acetylthiocholine diiodide;[2-(Acetylthio)ethyl](trimethyl)ammonium iodide;[2-(Acetylsulfanyl)ethyl]trimethylazanium iodide",
    "duplicated_cas_no": "",
    "SMILES": "C(CSC(C)=O)[N+](C)(C)C.[I-]",
    "meta_data": {
        "InChI": "InChI=1S/C7H16NOS.HI/c1-7(9)10-6-5-8(2,3)4;/h5-6H2,1-4H3;1H/q+1;/p-1",
        "InChIKey": null,
        "Canonical SMILES": "[I-].O=C(SCC[N+](C)(C)C)C",
        "Molecular Formula": "C<sub>7</sub>H<sub>16</sub>NOS.I",
        "Molecular Mass": "",
        "Melting Point": "203-204 °C"
    }
}