{
    "cas_no": "219783-77-4",
    "key_name": "(2a<em>R</em>,4<em>S</em>,4a<em>S</em>,6<em>R</em>,9<em>S</em>,11<em>S</em>,12<em>S</em>,12a<em>R</em>,12b<em>S</em>)-6,12b-Bis(acetyloxy)-12-(benzoyloxy)-2a,3,4,4a,5,6,9,10,11,12,12a,12b-dodecahydro-4,11-dihydroxy-4a,8,13,13-tetramethyl-5-oxo-7,11-methano-1<em>H</em>-cyclodeca[3,4]benz[1,2-<em>b</em>]oxet-9-yl (α<em>R</em>,β<em>S</em>)-α-hydroxy-β-[[(2<em>E</em>)-1-oxo-3-phenyl-2-propen-1-yl]amino]benzenepropanoate",
    "cn_name": null,
    "alternate_name": "Benzenepropanoic acid, α-hydroxy-β-[[(2<em>E</em>)-1-oxo-3-phenyl-2-propen-1-yl]amino]-, (2a<em>R</em>,4<em>S</em>,4a<em>S</em>,6<em>R</em>,9<em>S</em>,11<em>S</em>,12<em>S</em>,12a<em>R</em>,12b<em>S</em>)-6,12b-bis(acetyloxy)-12-(benzoyloxy)-2a,3,4,4a,5,6,9,10,11,12,12a,12b-dodecahydro-4,11-dihydroxy-4a,8,13,13-tetramethyl-5-oxo-7,11-methano-1<em>H</em>-cyclodeca[3,4]benz[1,2-<em>b</em>]oxet-9-yl ester, (α<em>R</em>,β<em>S</em>)-;Benzenepropanoic acid, α-hydroxy-β-[[(2<em>E</em>)-1-oxo-3-phenyl-2-propenyl]amino]-, (2a<em>R</em>,4<em>S</em>,4a<em>S</em>,6<em>R</em>,9<em>S</em>,11<em>S</em>,12<em>S</em>,12a<em>R</em>,12b<em>S</em>)-6,12b-bis(acetyloxy)-12-(benzoyloxy)-2a,3,4,4a,5,6,9,10,11,12,12a,12b-dodecahydro-4,11-dihydroxy-4a,8,13,13-tetramethyl-5-oxo-7,11-methano-1<em>H</em>-cyclodeca[3,4]benz[1,2-<em>b</em>]oxet-9-yl ester, (α<em>R</em>,β<em>S</em>)-;(2a<em>R</em>,4<em>S</em>,4a<em>S</em>,6<em>R</em>,9<em>S</em>,11<em>S</em>,12<em>S</em>,12a<em>R</em>,12b<em>S</em>)-6,12b-Bis(acetyloxy)-12-(benzoyloxy)-2a,3,4,4a,5,6,9,10,11,12,12a,12b-dodecahydro-4,11-dihydroxy-4a,8,13,13-tetramethyl-5-oxo-7,11-methano-1<em>H</em>-cyclodeca[3,4]benz[1,2-<em>b</em>]oxet-9-yl (α<em>R</em>,β<em>S</em>)-α-hydroxy-β-[[(2<em>E</em>)-1-oxo-3-phenyl-2-propen-1-yl]amino]benzenepropanoate",
    "duplicated_cas_no": "",
    "SMILES": "O(C(C)=O)[C@]12[C@]3([C@H](OC(=O)C4=CC=CC=C4)[C@@]5(O)C(C)(C)C([C@@H](OC(C)=O)C(=O)[C@]3(C)[C@@H](O)C[C@]1(OC2)[H])=C(C)[C@@H](OC([C@@H]([C@@H](NC(/C=C/C6=CC=CC=C6)=O)C7=CC=CC=C7)O)=O)C5)[H]",
    "meta_data": {
        "InChI": "InChI=1S/C49H53NO14/c1-27-33(62-45(58)39(55)38(31-18-12-8-13-19-31)50-36(54)23-22-30-16-10-7-11-17-30)25-49(59)43(63-44(57)32-20-14-9-15-21-32)41-47(6,34(53)24-35-48(41,26-60-35)64-29(3)52)42(56)40(61-28(2)51)37(27)46(49,4)5/h7-23,33-35,38-41,43,53,55,59H,24-26H2,1-6H3,(H,50,54)/b23-22+/t33-,34-,35+,38-,39+,40+,41-,43-,47+,48-,49+/m0/s1",
        "InChIKey": null,
        "Canonical SMILES": "O=C(OC1C2C3(OC(=O)C)COC3CC(O)C2(C(=O)C(OC(=O)C)C4=C(C)C(OC(=O)C(O)C(NC(=O)C=CC=5C=CC=CC5)C=6C=CC=CC6)CC1(O)C4(C)C)C)C=7C=CC=CC7",
        "Molecular Formula": "C<sub>49</sub>H<sub>53</sub>NO<sub>14</sub>",
        "Molecular Mass": "879.94",
        "Melting Point": "149-150 °C"
    }
}