{
    "cas_no": "2473-01-0",
    "key_name": "1-Chlorononane",
    "cn_name": "1-氯壬烷;壬基氯;",
    "alternate_name": "Nonane, 1-chloro-;1-Chlorononane;Nonyl chloride;<em>n</em>-Nonyl chloride",
    "duplicated_cas_no": "",
    "SMILES": "C(CCCCCl)CCCC",
    "meta_data": {
        "InChI": "InChI=1S/C9H19Cl/c1-2-3-4-5-6-7-8-9-10/h2-9H2,1H3",
        "InChIKey": null,
        "Canonical SMILES": "ClCCCCCCCCC",
        "Molecular Formula": "C<sub>9</sub>H<sub>19</sub>Cl",
        "Molecular Mass": "162.70",
        "Boiling Point": "203.5 °C",
        "Melting Point": "-39.4 °C",
        "Density": "0.8679 g/cm³ @ Temp: 20 °C"
    }
}