{
    "cas_no": "14024-18-1",
    "key_name": "Iron(III) acetylacetonate",
    "cn_name": "三乙酰丙酮铁;乙酰丙酮铁;",
    "alternate_name": "Iron, tris(2,4-pentanedionato-κ<em>O</em><sup>2</sup>,κ<em>O</em><sup>4</sup>)-, (<em>OC</em>-6-11)-;Iron, tris(2,4-pentanedionato)-;Iron, tris(2,4-pentanedionato-<em>O</em>,<em>O</em>′)-, (<em>OC</em>-6-11)-;Iron, tris(2,4-pentanedionato-κ<em>O</em>,κ<em>O</em>′)-, (<em>OC</em>-6-11)-;(<em>OC</em>-6-11)-Tris(2,4-pentanedionato-κ<em>O</em><sup>2</sup>,κ<em>O</em><sup>4</sup>)iron;Ferric acetylacetonate;Iron(III) acetylacetonate;Ferric tris(acetylacetonate);Iron tris(acetylacetonate);Tris(acetylacetonato)iron;Iron acetylacetonate;Iron triacetylacetonate;Tris(2,4-pentanedionato)iron;Iron tris(acetoacetonate);Tris(acetylacetone)iron;(Acetylacetonato)iron(III);Iron(3+) acetylacetonate;Ferric tris(acetoacetonate);Iron tris(2,4-pentanedionate);Acetope Fe(II);Nacem Iron;NSC 43622;Iron(III) tris(2,4-pentanedionate);Nacem Ferric Iron;Nacem Ferric;Nasem Ferric Iron",
    "duplicated_cas_no": "38335-93-2;75042-68-1;2226524-30-5",
    "SMILES": "CC1=O[Fe+3]23(O=C(C)[CH-]C(C)=O2)(O=C(C)[CH-]C(C)=O3)O=C(C)[CH-]1",
    "meta_data": {
        "InChI": "InChI=1S/3C5H7O2.Fe/c3*1-4(6)3-5(2)7;/h3*3H,1-2H3;/q3*-1;+3",
        "InChIKey": null,
        "Canonical SMILES": "O1=C([CH-]C(=O[Fe+3]123(O=C([CH-]C(=O2)C)C)O=C([CH-]C(=O3)C)C)C)C",
        "Molecular Formula": "C<sub>15</sub>H<sub>21</sub>FeO<sub>6</sub>",
        "Molecular Mass": "",
        "Melting Point": "176-179 °C (decomp)",
        "Density": "1.360 g/cm³"
    }
}