{
    "cas_no": "2719-14-4",
    "key_name": "<em>N</em>-(4-Methyl-3-nitrophenyl)acetamide",
    "cn_name": null,
    "alternate_name": "Acetamide, <em>N</em>-(4-methyl-3-nitrophenyl)-;<em>p</em>-Acetotoluidide, 3′-nitro-;<em>N</em>-(4-Methyl-3-nitrophenyl)acetamide;2-Nitro-4-acetamidotoluene;4-(<em>N</em>-Acetylamino)-2-nitrotoluene;2-Nitro-4-(acetylamino)toluene;3′-Nitro-<em>p</em>-acetotoluidide;4′-Methyl-3′-nitroacetanilide;4-Acetamido-2-nitrotoluene;4-Acetylamino-2-nitrotoluene;NSC 202380;NSC 86673",
    "duplicated_cas_no": "",
    "SMILES": "N(C(C)=O)C1=CC(N(=O)=O)=C(C)C=C1",
    "meta_data": {
        "InChI": "InChI=1S/C9H10N2O3/c1-6-3-4-8(10-7(2)12)5-9(6)11(13)14/h3-5H,1-2H3,(H,10,12)",
        "InChIKey": null,
        "Canonical SMILES": "O=C(NC1=CC=C(C(=C1)N(=O)=O)C)C",
        "Molecular Formula": "C<sub>9</sub>H<sub>10</sub>N<sub>2</sub>O<sub>3</sub>",
        "Molecular Mass": "194.19",
        "Melting Point": "148.5 °C"
    }
}