{
    "cas_no": "630-02-4",
    "key_name": "Octacosane",
    "cn_name": "二十八烷;正二十八烷;N-二十八烷;",
    "alternate_name": "Octacosane;<em>n</em>-Octacosane;NSC 5549",
    "duplicated_cas_no": "",
    "SMILES": "C(CCCCCCCCCCCCCC)CCCCCCCCCCCCC",
    "meta_data": {
        "InChI": "InChI=1S/C28H58/c1-3-5-7-9-11-13-15-17-19-21-23-25-27-28-26-24-22-20-18-16-14-12-10-8-6-4-2/h3-28H2,1-2H3",
        "InChIKey": null,
        "Canonical SMILES": "CCCCCCCCCCCCCCCCCCCCCCCCCCCC",
        "Molecular Formula": "C<sub>28</sub>H<sub>58</sub>",
        "Molecular Mass": "394.76",
        "Boiling Point": "431.6 °C",
        "Melting Point": "64.5 °C",
        "Density": "0.6220 g/cm³ (liquid) @ Temp: 300.00 °C; Press: Atm pressure"
    }
}