{
    "cas_no": "66357-59-3",
    "key_name": "Ranitidine hydrochloride",
    "cn_name": "盐酸雷尼替丁;N\"-甲基-N-[2-[[[5-[(二甲氨基)甲基]-2-呋喃基]-甲基]硫代]乙基]-2-硝基-1,1-乙烯二胺盐酸盐;",
    "alternate_name": "1,1-Ethenediamine, <em>N</em>-[2-[[[5-[(dimethylamino)methyl]-2-furanyl]methyl]thio]ethyl]-<em>N</em>′-methyl-2-nitro-, hydrochloride (1:1);1,1-Ethenediamine, <em>N</em>-[2-[[[5-[(dimethylamino)methyl]-2-furanyl]methyl]thio]ethyl]-<em>N</em>′-methyl-2-nitro-, monohydrochloride;Ranitidine hydrochloride;AH 19065;Zantac;Ranigast;Ranuber;Normon;Azantac;Ultac;Sostril;Raniogas;Urantac;Rantacid;Antagonin;Ranisen;Ranix;Ezopta;Ranacid;Radinat;Histac;Achedos;Xanidine;Axoban;Raticina;Ratic;Histak;Zinetac;Ranitiget;Ulcex;Ulceranin;Ulceran;Consec;Quicran;Raniplex;Anistal;Rosimol;Simetac;Lydin;Apozan;Rantac;Aciloc;Apo-Ranitidine;Randin;Ptinolin;Eltidine;Gastrosedol;Raniben;Zantab;Zantadin;Galidrin;Vesyca;Microtid;Ranidil;Ulcirex;Coralen;Rani 2;Ranimex;Gastridin;Gastrial;Neoceptin R;Ranial;Aldin;Zantic;Atural;Weidos;Ranital;RND;Rantin;Acloral;Ranin;Vizerul;Ulsal;Ranidine;Ul-Pep;Weichilin;Verlost;Acidex;Curan;Taural;Quantor;Trigger;Melfax;Terposen;Noctone;Ultidine;Ranitidine-akri;Rantidol;Ranitin;Zintac;Ranitab",
    "duplicated_cas_no": "",
    "SMILES": "C(N(C)C)C=1OC(CSCCNC(=CN(=O)=O)NC)=CC1.Cl",
    "meta_data": {
        "InChI": "InChI=1S/C13H22N4O3S.ClH/c1-14-13(9-17(18)19)15-6-7-21-10-12-5-4-11(20-12)8-16(2)3;/h4-5,9,14-15H,6-8,10H2,1-3H3;1H",
        "InChIKey": null,
        "Canonical SMILES": "Cl.O=N(=O)C=C(NC)NCCSCC=1OC(=CC1)CN(C)C",
        "Molecular Formula": "C<sub>13</sub>H<sub>22</sub>N<sub>4</sub>O<sub>3</sub>S.ClH",
        "Molecular Mass": "",
        "Melting Point": "133-134 °C"
    }
}