{
    "cas_no": "107-92-6",
    "key_name": "Butyric acid",
    "cn_name": "丁酸;正丁酸;",
    "alternate_name": "Butanoic acid;Butyric acid;<em>n</em>-Butyric acid;Ethylacetic acid;1-Propanecarboxylic acid;Propylformic acid;<em>n</em>-Butanoic acid;Honey robber;NSC 8415;MeSH ID: D020148",
    "duplicated_cas_no": "879654-11-2",
    "SMILES": "C(C(O)=O)CC",
    "meta_data": {
        "InChI": "InChI=1S/C4H8O2/c1-2-3-4(5)6/h2-3H2,1H3,(H,5,6)",
        "InChIKey": null,
        "Canonical SMILES": "O=C(O)CCC",
        "Molecular Formula": "C<sub>4</sub>H<sub>8</sub>O<sub>2</sub>",
        "Molecular Mass": "88.11",
        "Boiling Point": "165.5 °C @ Press: 760 Torr",
        "Melting Point": "-7.9 °C",
        "Density": "0.9577 g/cm³ @ Temp: 20 °C"
    }
}