{
    "cas_no": "2592-05-4",
    "key_name": "1<em>H</em>-Indole-3-carboxaldehyde, oxime",
    "cn_name": null,
    "alternate_name": "1<em>H</em>-Indole-3-carboxaldehyde, oxime;Indole-3-carboxaldehyde, oxime;3-Indolaldehyde oxime;NSC 525800",
    "duplicated_cas_no": "",
    "SMILES": "C(=NO)C=1C=2C(NC1)=CC=CC2",
    "meta_data": {
        "InChI": "InChI=1S/C9H8N2O/c12-11-6-7-5-10-9-4-2-1-3-8(7)9/h1-6,10,12H",
        "InChIKey": null,
        "Canonical SMILES": "ON=CC1=CNC=2C=CC=CC12",
        "Molecular Formula": "C<sub>9</sub>H<sub>8</sub>N<sub>2</sub>O",
        "Molecular Mass": "160.17",
        "Melting Point": "197-200 °C"
    }
}