{
    "cas_no": "85098-70-0",
    "key_name": "1-[2-(4-Methoxyphenyl)ethyl]-4-piperidinamine",
    "cn_name": "4-氨基-1-[2-(4-甲氧基苯基)乙基]哌啶;",
    "alternate_name": "4-Piperidinamine, 1-[2-(4-methoxyphenyl)ethyl]-;1-[2-(4-Methoxyphenyl)ethyl]-4-piperidinamine;R 48970;1-(4-Methoxyphenethyl)-4-aminopiperidine;1-(4-Methoxyphenethyl)piperidin-4-amine",
    "duplicated_cas_no": "",
    "SMILES": "C(CN1CCC(N)CC1)C2=CC=C(OC)C=C2",
    "meta_data": {
        "InChI": "InChI=1S/C14H22N2O/c1-17-14-4-2-12(3-5-14)6-9-16-10-7-13(15)8-11-16/h2-5,13H,6-11,15H2,1H3",
        "InChIKey": null,
        "Canonical SMILES": "O(C1=CC=C(C=C1)CCN2CCC(N)CC2)C",
        "Molecular Formula": "C<sub>14</sub>H<sub>22</sub>N<sub>2</sub>O",
        "Molecular Mass": "234.34",
        "Melting Point": "30-32 °C"
    }
}