{
    "cas_no": "115-39-9",
    "key_name": "Bromophenol Blue",
    "cn_name": "溴酚蓝;四溴酚磺酰酞;四溴苯酚磺酞;",
    "alternate_name": "Phenol, 4,4′-(1,1-dioxido-3<em>H</em>-2,1-benzoxathiol-3-ylidene)bis[2,6-dibromo-;Phenol, 4,4′-(3<em>H</em>-2,1-benzoxathiol-3-ylidene)bis[2,6-dibromo-, <em>S</em>,<em>S</em>-dioxide;Bromophenol Blue;3<em>H</em>-2,1-Benzoxathiole, phenol deriv.;4,4′-(1,1-Dioxido-3<em>H</em>-2,1-benzoxathiol-3-ylidene)bis[2,6-dibromophenol];Albutest;Bromphenol blue;3′,3′′,5′,5′′-Tetrabromophenolsulfophthalein;Tetrabromophenolsulfophthalein;NSC 7818;BPB 670;MeSH ID: D001978;Bromophenol Blue assay",
    "duplicated_cas_no": "134863-99-3;632-72-4;58296-21-2;61226-61-7;711007-29-3;784127-37-3;932977-58-7;952016-90-9;1007629-43-7;1011401-24-3;1016316-66-7;1018123-58-4;1083043-33-7",
    "SMILES": "O=S1(=O)OC(C=2C1=CC=CC2)(C3=CC(Br)=C(O)C(Br)=C3)C4=CC(Br)=C(O)C(Br)=C4",
    "meta_data": {
        "InChI": "InChI=1S/C19H10Br4O5S/c20-12-5-9(6-13(21)17(12)24)19(10-7-14(22)18(25)15(23)8-10)11-3-1-2-4-16(11)29(26,27)28-19/h1-8,24-25H",
        "InChIKey": null,
        "Canonical SMILES": "O=S1(=O)OC(C2=CC(Br)=C(O)C(Br)=C2)(C3=CC(Br)=C(O)C(Br)=C3)C=4C=CC=CC41",
        "Molecular Formula": "C<sub>19</sub>H<sub>10</sub>Br<sub>4</sub>O<sub>5</sub>S",
        "Molecular Mass": "669.96",
        "Melting Point": "279 °C (decomp)"
    }
}