{
    "cas_no": "566-76-7",
    "key_name": "16α-Hydroxyestrone",
    "cn_name": null,
    "alternate_name": "Estra-1,3,5(10)-trien-17-one, 3,16-dihydroxy-, (16α)-;Estra-1,3,5(10)-trien-17-one, 3,16α-dihydroxy-;(16α)-3,16-Dihydroxyestra-1,3,5(10)-trien-17-one;16α-Hydroxyestrone;3,16α-Dihydroxy-1,3,5(10)-estratrien-17-one;Estra-1,3,5(10)-triene-3,16α-diol-17-one",
    "duplicated_cas_no": "",
    "SMILES": "C[C@@]12[C@]([C@]3([C@@](C=4C(CC3)=CC(O)=CC4)(CC1)[H])[H])(C[C@@H](O)C2=O)[H]",
    "meta_data": {
        "InChI": "InChI=1S/C18H22O3/c1-18-7-6-13-12-5-3-11(19)8-10(12)2-4-14(13)15(18)9-16(20)17(18)21/h3,5,8,13-16,19-20H,2,4,6-7,9H2,1H3/t13-,14-,15+,16-,18+/m1/s1",
        "InChIKey": null,
        "Canonical SMILES": "O=C1C(O)CC2C3CCC4=CC(O)=CC=C4C3CCC12C",
        "Molecular Formula": "C<sub>18</sub>H<sub>22</sub>O<sub>3</sub>",
        "Molecular Mass": "286.37",
        "Melting Point": "214 °C"
    }
}