{
    "cas_no": "14189-82-3",
    "key_name": "3-(Methylphenylamino)-2-propenal",
    "cn_name": "3-(N-苯基-N-甲基)氨基丙烯醛;",
    "alternate_name": "2-Propenal, 3-(methylphenylamino)-;Acrolein, 3-(<em>N</em>-methylanilino)-;3-(Methylphenylamino)-2-propenal;3-(<em>N</em>-Methylanilino)acrolein;3-(<em>N</em>-Methyl-<em>N</em>-phenylamino)acrolein;<em>N</em>-Methyl-<em>N</em>-phenyl-3-aminoacrolein;3-(Methylphenylamino)acrolein",
    "duplicated_cas_no": "",
    "SMILES": "N(C=CC=O)(C)C1=CC=CC=C1",
    "meta_data": {
        "InChI": "InChI=1S/C10H11NO/c1-11(8-5-9-12)10-6-3-2-4-7-10/h2-9H,1H3",
        "InChIKey": null,
        "Canonical SMILES": "O=CC=CN(C=1C=CC=CC1)C",
        "Molecular Formula": "C<sub>10</sub>H<sub>11</sub>NO",
        "Molecular Mass": "161.20",
        "Boiling Point": "144-145 °C @ Press: 0.8 Torr",
        "Melting Point": "166 °C (decomp)"
    }
}