{
    "cas_no": "7446-07-3",
    "key_name": "Tellurium dioxide",
    "cn_name": "二氧化碲;",
    "alternate_name": "Tellurium oxide (TeO<sub>2</sub>);Tellurium(IV) oxide;Telluria;Tellurium oxide;Tellurium dioxide",
    "duplicated_cas_no": "",
    "SMILES": "[Te](=O)=O",
    "meta_data": {
        "InChI": "InChI=1S/O2Te/c1-3-2",
        "InChIKey": null,
        "Canonical SMILES": "O=[Te]=O",
        "Molecular Formula": "O<sub>2</sub>Te",
        "Molecular Mass": "",
        "Melting Point": "&gt;600 °C",
        "Density": "5.99 g/cm³"
    }
}