{
    "cas_no": "634-65-1",
    "key_name": "2,4-Dimethylresorcinol",
    "cn_name": null,
    "alternate_name": "1,3-Benzenediol, 2,4-dimethyl-;Resorcinol, 2,4-dimethyl-;2,4-Dimethyl-1,3-benzenediol;<em>m</em>-Xylene-2,4-diol;2,6-Dimethylresorcinol;2,4-Dimethylresorcinol;2,4-Dimethyl-1,3-dihydroxybenzene;1,3-Dihydroxy-2,4-dimethylbenzene;2,6-Dimethyl-1,3-benzenediol;2,4-Dimethylbenzene-1,3-diol;3-Hydroxy-2,6-dimethylphenol",
    "duplicated_cas_no": "",
    "SMILES": "CC1=C(O)C(C)=CC=C1O",
    "meta_data": {
        "InChI": "InChI=1S/C8H10O2/c1-5-3-4-7(9)6(2)8(5)10/h3-4,9-10H,1-2H3",
        "InChIKey": null,
        "Canonical SMILES": "OC1=CC=C(C(O)=C1C)C",
        "Molecular Formula": "C<sub>8</sub>H<sub>10</sub>O<sub>2</sub>",
        "Molecular Mass": "138.16",
        "Melting Point": "112 °C"
    }
}