{
    "cas_no": "31594-45-3",
    "key_name": "2-Ethoxy-5-nitropyridine",
    "cn_name": "2-乙氧基-5-硝基吡啶;",
    "alternate_name": "Pyridine, 2-ethoxy-5-nitro-;2-Ethoxy-5-nitropyridine;NSC 165481",
    "duplicated_cas_no": "",
    "SMILES": "N(=O)(=O)C=1C=CC(OCC)=NC1",
    "meta_data": {
        "InChI": "InChI=1S/C7H8N2O3/c1-2-12-7-4-3-6(5-8-7)9(10)11/h3-5H,2H2,1H3",
        "InChIKey": null,
        "Canonical SMILES": "O=N(=O)C1=CN=C(OCC)C=C1",
        "Molecular Formula": "C<sub>7</sub>H<sub>8</sub>N<sub>2</sub>O<sub>3</sub>",
        "Molecular Mass": "168.15",
        "Melting Point": "95 °C"
    }
}