{
    "cas_no": "455-14-1",
    "key_name": "4-(Trifluoromethyl)aniline",
    "cn_name": "对三氟甲基苯胺;",
    "alternate_name": "Benzenamine, 4-(trifluoromethyl)-;<em>p</em>-Toluidine, α,α,α-trifluoro-;4-(Trifluoromethyl)benzenamine;<em>p</em>-Aminobenzotrifluoride;<em>p</em>-(Trifluoromethyl)aniline;α,α,α-Trifluoro-<em>p</em>-toluidine;<em>p</em>-Amino-α,α,α-trifluorotoluene;4-(Trifluoromethyl)aniline;4-Aminobenzotrifluoride;4-Amino-α,α,α-benzotrifluoride;(4-(Trifluoromethyl)phenyl)amine;NSC 10337;<em>p</em>-Trifluoromethylphenylamine;1-Amino-4-(trifluoromethyl)benzene",
    "duplicated_cas_no": "",
    "SMILES": "C(F)(F)(F)C1=CC=C(N)C=C1",
    "meta_data": {
        "InChI": "InChI=1S/C7H6F3N/c8-7(9,10)5-1-3-6(11)4-2-5/h1-4H,11H2",
        "InChIKey": null,
        "Canonical SMILES": "FC(F)(F)C1=CC=C(N)C=C1",
        "Molecular Formula": "C<sub>7</sub>H<sub>6</sub>F<sub>3</sub>N",
        "Molecular Mass": "161.12",
        "Boiling Point": "117.5 °C",
        "Melting Point": "38 °C",
        "Density": "1.283 g/cm³ @ Temp: 27 °C"
    }
}