{
    "cas_no": "109-54-6",
    "key_name": "3-Chloro-<em>N</em>,<em>N</em>-dimethyl-1-propanamine",
    "cn_name": "3-氯-1-(N,N-二甲基)丙胺;",
    "alternate_name": "1-Propanamine, 3-chloro-<em>N</em>,<em>N</em>-dimethyl-;Propylamine, 3-chloro-<em>N</em>,<em>N</em>-dimethyl-;3-Chloro-<em>N</em>,<em>N</em>-dimethyl-1-propanamine;3-(Dimethylamino)propyl chloride;3-(<em>N</em>,<em>N</em>-Dimethylamino)propyl chloride;(3-Chloropropyl)dimethylamine;γ-Chloropropyldimethylamine;γ-Dimethylaminopropyl chloride;3-Chloro-<em>N</em>,<em>N</em>-dimethylpropanamine;3-Chloro-<em>N</em>,<em>N</em>-dimethylpropylamine;3-(Dimethylamino)chloropropane;Dimethylaminopropyl chloride;<em>N</em>-(3-Chloropropyl)dimethylamine;<em>N</em>,<em>N</em>-Dimethyl-3-chloropropylamine;3-Dimethylamino-1-chloropropane;<em>N</em>-(3-Chloropropyl)-<em>N</em>,<em>N</em>-dimethylamine;<em>N</em>,<em>N</em>-Dimethyl-3-chloro-1-propanamine;Dimethyl(3-chloropropyl)amine;1-Dimethylamino-3-chloropropane;3-(Dimethylamino)-1-propyl chloride;1-Chloro-3-(dimethylamino)propane;3-Chloro-1-(dimethylamino)propane;3-Dimethylaminopropan-1-yl chloride;<em>N</em>,<em>N</em>-Dimethyl-3-chloropropanamine;3-Chloro-1-(<em>N</em>,<em>N</em>-dimethylamino)propane;3-(<em>N</em>,<em>N</em>-Dimethylamino)-1-chloropropane",
    "duplicated_cas_no": "",
    "SMILES": "C(N(C)C)CCCl",
    "meta_data": {
        "InChI": "InChI=1S/C5H12ClN/c1-7(2)5-3-4-6/h3-5H2,1-2H3",
        "InChIKey": null,
        "Canonical SMILES": "ClCCCN(C)C",
        "Molecular Formula": "C<sub>5</sub>H<sub>12</sub>ClN",
        "Molecular Mass": "121.61",
        "Boiling Point": "140 °C @ Press: 760 Torr",
        "Melting Point": "182-188 °C",
        "Density": "0.9287 g/cm³ @ Temp: 20 °C"
    }
}