{
    "cas_no": "101-81-5",
    "key_name": "Diphenylmethane",
    "cn_name": "二苯基甲烷;",
    "alternate_name": "Benzene, 1,1′-methylenebis-;Methane, diphenyl-;1,1′-Methylenebis[benzene];Benzylbenzene;Diphenylmethane;Ditan;Ditane;Benzene, (phenylmethyl)-;NSC 4708;DPM;1,1-Diphenylmethane",
    "duplicated_cas_no": "",
    "SMILES": "C(C1=CC=CC=C1)C2=CC=CC=C2",
    "meta_data": {
        "InChI": "InChI=1S/C13H12/c1-3-7-12(8-4-1)11-13-9-5-2-6-10-13/h1-10H,11H2",
        "InChIKey": null,
        "Canonical SMILES": "C=1C=CC(=CC1)CC=2C=CC=CC2",
        "Molecular Formula": "C<sub>13</sub>H<sub>12</sub>",
        "Molecular Mass": "168.23",
        "Boiling Point": "264.5 °C @ Press: 760 Torr",
        "Melting Point": "25.9 °C",
        "Density": "1.007 g/cm³ @ Temp: 20 °C"
    }
}