{
    "cas_no": "2424-01-3",
    "key_name": "Diallylmethylamine",
    "cn_name": "N-甲基二烯丙基胺;",
    "alternate_name": "2-Propen-1-amine, <em>N</em>-methyl-<em>N</em>-2-propen-1-yl-;Diallylamine, <em>N</em>-methyl-;2-Propen-1-amine, <em>N</em>-methyl-<em>N</em>-2-propenyl-;<em>N</em>-Methyl-<em>N</em>-2-propen-1-yl-2-propen-1-amine;Diallylmethylamine;<em>N</em>-Methyldiallylamine;Methyldiallylamine;<em>N</em>,<em>N</em>-Diallyl methylamine",
    "duplicated_cas_no": "",
    "SMILES": "N(CC=C)(CC=C)C",
    "meta_data": {
        "InChI": "InChI=1S/C7H13N/c1-4-6-8(3)7-5-2/h4-5H,1-2,6-7H2,3H3",
        "InChIKey": null,
        "Canonical SMILES": "C=CCN(C)CC=C",
        "Molecular Formula": "C<sub>7</sub>H<sub>13</sub>N",
        "Molecular Mass": "111.18",
        "Boiling Point": "112 °C",
        "Density": "0.771 g/cm³ @ Temp: 18 °C"
    }
}