{
    "cas_no": "20312-37-2",
    "key_name": "<span class=\"text-smallcaps\">D</span>-Leucic acid",
    "cn_name": null,
    "alternate_name": "Pentanoic acid, 2-hydroxy-4-methyl-, (2<em>R</em>)-;Valeric acid, 2-hydroxy-4-methyl-, <span class=\"text-smallcaps\">D</span>-;Pentanoic acid, 2-hydroxy-4-methyl-, (<em>R</em>)-;(2<em>R</em>)-2-Hydroxy-4-methylpentanoic acid;<span class=\"text-smallcaps\">D</span>-2-Hydroxyisocaproic acid;<span class=\"text-smallcaps\">D</span>-2-Hydroxy-4-methylvaleric acid;<span class=\"text-smallcaps\">D</span>-2-Hydroxy-4-methylpentanoic acid;(<em>R</em>)-2-Hydroxyisocaproic acid;(<em>R</em>)-Leucic acid;(<em>R</em>)-2-Hydroxy-4-methylpentanoic acid;<span class=\"text-smallcaps\">D</span>-Leucic acid;<span class=\"text-smallcaps\">D</span>-α-Hydroxyisocaproic acid;(-)-α-Hydroxyisocaproic acid;(-)-2-Hydroxyisocaproic acid;(R)-2-Hydroxy-4-methylpentanoic acid",
    "duplicated_cas_no": "",
    "SMILES": "[C@@H](CC(C)C)(C(O)=O)O",
    "meta_data": {
        "InChI": "InChI=1S/C6H12O3/c1-4(2)3-5(7)6(8)9/h4-5,7H,3H2,1-2H3,(H,8,9)/t5-/m1/s1",
        "InChIKey": null,
        "Canonical SMILES": "O=C(O)C(O)CC(C)C",
        "Molecular Formula": "C<sub>6</sub>H<sub>12</sub>O<sub>3</sub>",
        "Molecular Mass": "132.16",
        "Melting Point": "76-80 °C"
    }
}