{
    "cas_no": "427878-70-4",
    "key_name": "Ethyl 1,4-dihydro-5-methyl-4-oxopyrrolo[2,1-<em>f</em>][1,2,4]triazine-6-carboxylate",
    "cn_name": null,
    "alternate_name": "Pyrrolo[2,1-<em>f</em>][1,2,4]triazine-6-carboxylic acid, 1,4-dihydro-5-methyl-4-oxo-, ethyl ester;Ethyl 1,4-dihydro-5-methyl-4-oxopyrrolo[2,1-<em>f</em>][1,2,4]triazine-6-carboxylate;5-Methyl-4-oxo-3,4-dihydropyrrolo[2,1-<em>f</em>][1,2,4]triazine-6-carboxylic acid ethyl ester",
    "duplicated_cas_no": "",
    "SMILES": "CC1=C2N(C=C1C(OCC)=O)NC=NC2=O",
    "meta_data": {
        "InChI": "InChI=1S/C10H11N3O3/c1-3-16-10(15)7-4-13-8(6(7)2)9(14)11-5-12-13/h4-5H,3H2,1-2H3,(H,11,12,14)",
        "InChIKey": null,
        "Canonical SMILES": "O=C1N=CNN2C=C(C(=O)OCC)C(=C12)C",
        "Molecular Formula": "C<sub>10</sub>H<sub>11</sub>N<sub>3</sub>O<sub>3</sub>",
        "Molecular Mass": "221.21",
        "Melting Point": "215 °C"
    }
}