{
    "cas_no": "6789-94-2",
    "key_name": "1-Ethyl-3-piperidinamine",
    "cn_name": null,
    "alternate_name": "3-Piperidinamine, 1-ethyl-;Piperidine, 3-amino-1-ethyl-;1-Ethyl-3-piperidinamine;<em>N</em>-Ethyl-3-aminopiperidine;3-Amino-1-ethylpiperidine;1-Ethyl-3-aminopiperidine;3-Amino-<em>N</em>-ethylpiperidine;1-Ethylpiperidin-3-ylamine;NSC 76077",
    "duplicated_cas_no": "167298-60-4",
    "SMILES": "C(C)N1CC(N)CCC1",
    "meta_data": {
        "InChI": "InChI=1S/C7H16N2/c1-2-9-5-3-4-7(8)6-9/h7H,2-6,8H2,1H3",
        "InChIKey": null,
        "Canonical SMILES": "NC1CN(CC)CCC1",
        "Molecular Formula": "C<sub>7</sub>H<sub>16</sub>N<sub>2</sub>",
        "Molecular Mass": "128.22",
        "Boiling Point": "155 °C"
    }
}