{
    "cas_no": "59-58-5",
    "key_name": "Prosultiamine",
    "cn_name": "丙舒硫胺;丙硫胺嘧啶;维生素B1丙基硫化物;丙基二硫化硫胺;N-[(4-氨基-2-甲基-5-嘧啶基)甲基]-N-(4-羟基-1-;",
    "alternate_name": "Formamide, <em>N</em>-[(4-amino-2-methyl-5-pyrimidinyl)methyl]-<em>N</em>-[4-hydroxy-1-methyl-2-(propyldithio)-1-buten-1-yl]-;Formamide, <em>N</em>-[(4-amino-2-methyl-5-pyrimidinyl)methyl]-<em>N</em>-[4-hydroxy-1-methyl-2-(propyldithio)-1-butenyl]-;<em>N</em>-[(4-Amino-2-methyl-5-pyrimidinyl)methyl]-<em>N</em>-[4-hydroxy-1-methyl-2-(propyldithio)-1-buten-1-yl]formamide;Alinamin;<em>N</em>-[4-Amino-2-methyl-5-pyrimidinyl)methyl]-<em>N</em>-[4-hydroxy-1-methyl-2-(propyldithio)-1-butenyl]formamide;Dithiopropylthiamine;2-[2′-Methyl-4′-aminopyrimidyl-(5′)]-methylformamido-5-hydroxy-Δ<sup>2</sup>-pentenyl-(3)-propyl disulfide;Prosultiamine;Thiamine propyl disulfide;TPD;Vitamin B<sub>1</sub> propyl disulfide;Prosulthiamine;Arinamine;Tipidi;Nervilon;Neurvita;Aliton;Nevriton;Nuvelbi V. C. A.;Tiotiamina;Tiovit-B<sub>1</sub>;Thiamin propyl disulfide;Taketron;Binova;NSC 23893;NSC 677470",
    "duplicated_cas_no": "114401-59-1",
    "SMILES": "C(N(C(=C(SSCCC)CCO)C)C=O)C=1C(N)=NC(C)=NC1",
    "meta_data": {
        "InChI": "InChI=1S/C15H24N4O2S2/c1-4-7-22-23-14(5-6-20)11(2)19(10-21)9-13-8-17-12(3)18-15(13)16/h8,10,20H,4-7,9H2,1-3H3,(H2,16,17,18)",
        "InChIKey": null,
        "Canonical SMILES": "O=CN(C(=C(SSCCC)CCO)C)CC1=CN=C(N=C1N)C",
        "Molecular Formula": "C<sub>15</sub>H<sub>24</sub>N<sub>4</sub>O<sub>2</sub>S<sub>2</sub>",
        "Molecular Mass": "356.51",
        "Melting Point": "128.5 °C (decomp)"
    }
}