{
    "cas_no": "2315-36-8",
    "key_name": "Chloro-<em>N</em>,<em>N</em>-diethylacetamide",
    "cn_name": "N,N-二乙基-2-氯乙酰胺;",
    "alternate_name": "Acetamide, 2-chloro-<em>N</em>,<em>N</em>-diethyl-;2-Chloro-<em>N</em>,<em>N</em>-diethylacetamide;α-Chloro-<em>N</em>,<em>N</em>-diethylacetamide;<em>N</em>-(Chloroacetyl)diethylamine;<em>N</em>,<em>N</em>-Diethyl-2-chloroacetamide;<em>N</em>,<em>N</em>-Diethylchloroacetamide;Chloro-<em>N</em>,<em>N</em>-diethylacetamide;2-(Diethylamino)-2-oxoethyl chloride;CDEA;NSC 1726;<em>N</em>-(2-Chloroacetyl)diethylamine",
    "duplicated_cas_no": "",
    "SMILES": "N(C(CCl)=O)(CC)CC",
    "meta_data": {
        "InChI": "InChI=1S/C6H12ClNO/c1-3-8(4-2)6(9)5-7/h3-5H2,1-2H3",
        "InChIKey": null,
        "Canonical SMILES": "O=C(N(CC)CC)CCl",
        "Molecular Formula": "C<sub>6</sub>H<sub>12</sub>ClNO",
        "Molecular Mass": "149.62",
        "Boiling Point": "148-150 °C",
        "Melting Point": "58 °C",
        "Density": "1.0733 g/cm³ @ Temp: 20 °C"
    }
}