{
    "cas_no": "17537-64-3",
    "key_name": "1,1′-(1<em>H</em>-Indole-1,3-diyl)bis[ethanone]",
    "cn_name": "1,3-二乙酰基吲哚;",
    "alternate_name": "Ethanone, 1,1′-(1<em>H</em>-indole-1,3-diyl)bis-;Indole, 1,3-diacetyl-;1<em>H</em>-Indole, 1,3-diacetyl-;1,1′-(1<em>H</em>-Indole-1,3-diyl)bis[ethanone];1,3-Diacetylindole;NSC 24940;NSC 47179;1-(3-Acetyl-1<em>H</em>-indol-1-yl)ethan-1-one;1-(1-Acetylindol-3-yl)ethanone;1,3-Diacetyl-1<em>H</em>-indole;1,1′-(1<em>H</em>-Indole-1,3-diyl)diethanone",
    "duplicated_cas_no": "",
    "SMILES": "C(C)(=O)C=1C=2C(N(C(C)=O)C1)=CC=CC2",
    "meta_data": {
        "InChI": "InChI=1S/C12H11NO2/c1-8(14)11-7-13(9(2)15)12-6-4-3-5-10(11)12/h3-7H,1-2H3",
        "InChIKey": null,
        "Canonical SMILES": "O=C(C1=CN(C(=O)C)C=2C=CC=CC12)C",
        "Molecular Formula": "C<sub>12</sub>H<sub>11</sub>NO<sub>2</sub>",
        "Molecular Mass": "201.22",
        "Melting Point": "149-151 °C"
    }
}