{
    "cas_no": "6313-33-3",
    "key_name": "Methanimidamide, hydrochloride (1:1)",
    "cn_name": "甲脒盐酸盐;",
    "alternate_name": "Methanimidamide, hydrochloride (1:1);Formamidine, monohydrochloride;Methanimidamide, monohydrochloride;Formamidine, hydrochloride;Formamidinium chloride;Methanimidamide hydrochloride;Methanediamine, 1-chloro-",
    "duplicated_cas_no": "181036-51-1",
    "SMILES": "C(=N)N.Cl",
    "meta_data": {
        "InChI": "InChI=1S/CH4N2.ClH/c2-1-3;/h1H,(H3,2,3);1H",
        "InChIKey": null,
        "Canonical SMILES": "Cl.N=CN",
        "Molecular Formula": "CH<sub>4</sub>N<sub>2</sub>.ClH",
        "Molecular Mass": "",
        "Melting Point": "76-78 °C"
    }
}