{
    "cas_no": "17827-61-1",
    "key_name": "1<em>H</em>-Pyrazole-3-carboxylic acid, 1-methyl-, methyl ester",
    "cn_name": null,
    "alternate_name": "1<em>H</em>-Pyrazole-3-carboxylic acid, 1-methyl-, methyl ester;Pyrazole-3-carboxylic acid, 1-methyl-, methyl ester;Methyl 1-methyl-1<em>H</em>-pyrazole-3-carboxylate;1-Methyl-1<em>H</em>-Pyrazole-3-carboxylic acid methyl ester",
    "duplicated_cas_no": "",
    "SMILES": "C(OC)(=O)C1=NN(C)C=C1",
    "meta_data": {
        "InChI": "InChI=1S/C6H8N2O2/c1-8-4-3-5(7-8)6(9)10-2/h3-4H,1-2H3",
        "InChIKey": null,
        "Canonical SMILES": "O=C(OC)C1=NN(C=C1)C",
        "Molecular Formula": "C<sub>6</sub>H<sub>8</sub>N<sub>2</sub>O<sub>2</sub>",
        "Molecular Mass": "140.14",
        "Boiling Point": "108-110 °C @ Press: 1 Torr"
    }
}