{
    "cas_no": "339530-91-5",
    "key_name": "3-[(4-Fluorophenyl)thio]-2-hydroxy-2-methylpropanoic acid",
    "cn_name": null,
    "alternate_name": "Propanoic acid, 3-[(4-fluorophenyl)thio]-2-hydroxy-2-methyl-;3-[(4-Fluorophenyl)thio]-2-hydroxy-2-methylpropanoic acid;2-Hydroxy-2-methyl-3-(4-fluorophenylthio)propionic acid;2-Hydroxy-2-methyl-3-<em>p</em>-fluorophenylsulfanylpropionic acid;3-[(4-Fluorophenyl)sulfanyl]-2-hydroxy-2-methylpropanoic acid",
    "duplicated_cas_no": "",
    "SMILES": "S(CC(C(O)=O)(C)O)C1=CC=C(F)C=C1",
    "meta_data": {
        "InChI": "InChI=1S/C10H11FO3S/c1-10(14,9(12)13)6-15-8-4-2-7(11)3-5-8/h2-5,14H,6H2,1H3,(H,12,13)",
        "InChIKey": null,
        "Canonical SMILES": "O=C(O)C(O)(C)CSC1=CC=C(F)C=C1",
        "Molecular Formula": "C<sub>10</sub>H<sub>11</sub>FO<sub>3</sub>S",
        "Molecular Mass": "230.26",
        "Melting Point": "69.1-72.7 °C"
    }
}