{
    "cas_no": "103-89-9",
    "key_name": "<em>p</em>-Acetotoluidide",
    "cn_name": "4-甲基乙酰苯胺;N-乙酰对甲苯胺;",
    "alternate_name": "Acetamide, <em>N</em>-(4-methylphenyl)-;<em>p</em>-Acetotoluidide;<em>N</em>-(4-Methylphenyl)acetamide;<em>p</em>-Acetamidotoluene;<em>p</em>-Methylacetanilide;4-(Acetylamino)toluene;<em>N</em>-Acetyl-<em>p</em>-toluidine;4-Acetotoluide;4′-Methylacetanilide;<em>p</em>-Acetotoluide;1-Acetamido-4-methylbenzene;<em>N</em>-Acetyl-4-methylaniline;4-Acetamidotoluene;<em>p</em>-Acetylaminotoluene;<em>N</em>-<em>p</em>-Tolylacetamide;NSC 7644;<em>N</em>-(<em>p</em>-Methylphenyl)acetamide;4-Methylanilino methyl ketone",
    "duplicated_cas_no": "",
    "SMILES": "N(C(C)=O)C1=CC=C(C)C=C1",
    "meta_data": {
        "InChI": "InChI=1S/C9H11NO/c1-7-3-5-9(6-4-7)10-8(2)11/h3-6H,1-2H3,(H,10,11)",
        "InChIKey": null,
        "Canonical SMILES": "O=C(NC1=CC=C(C=C1)C)C",
        "Molecular Formula": "C<sub>9</sub>H<sub>11</sub>NO",
        "Molecular Mass": "149.19",
        "Boiling Point": "307 °C",
        "Melting Point": "152 °C",
        "Density": "1.19 g/cm³"
    }
}