{
    "cas_no": "68573-23-9",
    "key_name": "<em>N</em>-Feruloylserotonin",
    "cn_name": null,
    "alternate_name": "2-Propenamide, <em>N</em>-[2-(5-hydroxy-1<em>H</em>-indol-3-yl)ethyl]-3-(4-hydroxy-3-methoxyphenyl)-;<em>N</em>-[2-(5-Hydroxy-1<em>H</em>-indol-3-yl)ethyl]-3-(4-hydroxy-3-methoxyphenyl)-2-propenamide;<em>N</em>-Feruloylserotonin;NSC 369502",
    "duplicated_cas_no": "",
    "SMILES": "C(CNC(C=CC1=CC(OC)=C(O)C=C1)=O)C=2C=3C(NC2)=CC=C(O)C3",
    "meta_data": {
        "InChI": "InChI=1S/C20H20N2O4/c1-26-19-10-13(2-6-18(19)24)3-7-20(25)21-9-8-14-12-22-17-5-4-15(23)11-16(14)17/h2-7,10-12,22-24H,8-9H2,1H3,(H,21,25)",
        "InChIKey": null,
        "Canonical SMILES": "O=C(C=CC1=CC=C(O)C(OC)=C1)NCCC2=CNC=3C=CC(O)=CC32",
        "Molecular Formula": "C<sub>20</sub>H<sub>20</sub>N<sub>2</sub>O<sub>4</sub>",
        "Molecular Mass": "352.38",
        "Melting Point": "110-114 °C"
    }
}