{
    "cas_no": "15663-27-1",
    "key_name": "Cisplatin",
    "cn_name": null,
    "alternate_name": "Platinum, diamminedichloro-, (<em>SP</em>-4-2)-;Platinum, diamminedichloro-, <em>cis</em>-;(<em>SP</em>-4-2)-Diamminedichloroplatinum;<em>cis</em>-Diamminedichloroplatinum;<em>cis</em>-Dichlorodiamineplatinum(II);<em>cis</em>-Platinum(II) diaminodichloride;<em>cis</em>-Platinum(II) diamminedichloride;<em>cis</em>-Dichlorodiammineplatinum;<em>cis</em>-Platinous diaminodichloride;<em>cis</em>-Platinum diaminodichloride;<em>cis</em>-Platinumdiammine dichloride;<em>cis</em>-Platinumdiamine dichloride;<em>cis</em>-Diaminodichloroplatinum(II);NSC 119875;Cisplatin;<em>cis</em>-Platinum II;Platinol;Neoplatin;<em>cis</em>-Platine;Biocisplatinum;<em>cis</em>-DDP;<em>cis</em>-Diamminedichloroplatinum(II);Platidiam;<em>cis</em>-Platinum;Cisplatinum;CPDD;<em>cis</em>-Platin;<em>cis</em>-Dichlorodiammineplatinum(II);TR 170;CDDP;DDP;CPPD;<em>cis</em>-Diaminedichloroplatinum(II);Cisplatyl;Briplatin;DDP (antitumor agent);Abiplatin;SPI 077;CACP;Lederplatin;Platosin;Platamine;Platiblastin;Platistin;Platinoxan;CPDC;Cismaplat;Citoplatino;Rand;Platinex;Platinol AQ;SPI 077 (complex);SPI 077B103;Cisplatino;Lipoplatin;Randa;Fauldiscipla;IA-call;CP Ethypharm;LiPlaCis;Cisplatine Mylan;Kemoplat;Citoplax;Maruko;<em>cis</em>-Diaminedichloridoplatinum(II);MeSH ID: D002945",
    "duplicated_cas_no": "96081-74-2;936542-99-3",
    "SMILES": "[Pt+2]([Cl-])([Cl-])([NH3])[NH3]",
    "meta_data": {
        "InChI": "InChI=1S/2ClH.2H3N.Pt/h2*1H;2*1H3;/q;;;;+2/p-2",
        "InChIKey": null,
        "Canonical SMILES": "[Cl-][Pt+2]([Cl-])([NH3])[NH3]",
        "Molecular Formula": "Cl<sub>2</sub>H<sub>6</sub>N<sub>2</sub>Pt",
        "Molecular Mass": "",
        "Melting Point": "270 °C (decomp)",
        "Density": "4 x 10<sup>-6</sup> g/cm³"
    }
}