{
    "cas_no": "499769-92-5",
    "key_name": "<em>B</em>-(4-Bromo-2-thienyl)boronic acid",
    "cn_name": null,
    "alternate_name": "Boronic acid, <em>B</em>-(4-bromo-2-thienyl)-;Boronic acid, (4-bromo-2-thienyl)-;<em>B</em>-(4-Bromo-2-thienyl)boronic acid;3-Bromothiophene-5-boronic acid;4-Bromo-2-thienylboronic acid;(4-Bromothiophen-2-yl)boronic acid",
    "duplicated_cas_no": "",
    "SMILES": "B(O)(O)C1=CC(Br)=CS1",
    "meta_data": {
        "InChI": "InChI=1S/C4H4BBrO2S/c6-3-1-4(5(7)8)9-2-3/h1-2,7-8H",
        "InChIKey": null,
        "Canonical SMILES": "BrC1=CSC(=C1)B(O)O",
        "Molecular Formula": "C<sub>4</sub>H<sub>4</sub>BBrO<sub>2</sub>S",
        "Molecular Mass": "206.85",
        "Melting Point": "136-138 °C"
    }
}