{
    "cas_no": "4724-48-5",
    "key_name": "Octylphosphonic acid",
    "cn_name": "1-辛基磷酸;辛基膦酸;",
    "alternate_name": "Phosphonic acid, <em>P</em>-octyl-;Phosphonic acid, octyl-;<em>P</em>-Octylphosphonic acid;Octanephosphonic acid;1-Octanephosphonic acid;Octylphosphonic acid;<em>n</em>-Octylphosphonic acid;<em>n</em>-Octyl-1-phosphonic acid;Hostaphat OPS 75E;Hostaphat OPS 100;Hostaphat OPS 75",
    "duplicated_cas_no": "",
    "SMILES": "C(CCCCCCC)P(=O)(O)O",
    "meta_data": {
        "InChI": "InChI=1S/C8H19O3P/c1-2-3-4-5-6-7-8-12(9,10)11/h2-8H2,1H3,(H2,9,10,11)",
        "InChIKey": null,
        "Canonical SMILES": "O=P(O)(O)CCCCCCCC",
        "Molecular Formula": "C<sub>8</sub>H<sub>19</sub>O<sub>3</sub>P",
        "Molecular Mass": "194.21",
        "Boiling Point": "170 °C @ Press: 0.05 Torr",
        "Melting Point": "99.5-100.5 °C"
    }
}