{
    "cas_no": "533-17-5",
    "key_name": "<em>N</em>-(2-Chlorophenyl)acetamide",
    "cn_name": null,
    "alternate_name": "Acetamide, <em>N</em>-(2-chlorophenyl)-;Acetanilide, 2′-chloro-;Acetanilide, <em>o</em>-chloro-;<em>N</em>-(2-Chlorophenyl)acetamide;<em>o</em>-Chloroacetanilide;2′-Chloroacetanilide;NSC 40562;NSC 8455",
    "duplicated_cas_no": "",
    "SMILES": "N(C(C)=O)C1=C(Cl)C=CC=C1",
    "meta_data": {
        "InChI": "InChI=1S/C8H8ClNO/c1-6(11)10-8-5-3-2-4-7(8)9/h2-5H,1H3,(H,10,11)",
        "InChIKey": null,
        "Canonical SMILES": "O=C(NC=1C=CC=CC1Cl)C",
        "Molecular Formula": "C<sub>8</sub>H<sub>8</sub>ClNO",
        "Molecular Mass": "169.61",
        "Boiling Point": "279.5-280 °C @ Press: 760 Torr",
        "Melting Point": "88 °C"
    }
}