{
    "cas_no": "16136-85-9",
    "key_name": "1-Propene, 1-chloro-, (1<em>E</em>)-",
    "cn_name": null,
    "alternate_name": "1-Propene, 1-chloro-, (1<em>E</em>)-;Propene, 1-chloro-, (<em>E</em>)-;1-Propene, 1-chloro-, (<em>E</em>)-;Propene, 1-chloro-, <em>trans</em>-;<em>trans</em>-1-Chloropropene;<em>trans</em>-1-Chloro-1-propene;(<em>E</em>)-1-Chloro-1-propene;<em>trans</em>-1-Propenyl chloride;(<em>E</em>)-1-Chloropropene;(E)-1-Chloro-1-propene",
    "duplicated_cas_no": "",
    "SMILES": "C(=C/Cl)\\C",
    "meta_data": {
        "InChI": "InChI=1S/C3H5Cl/c1-2-3-4/h2-3H,1H3/b3-2+",
        "InChIKey": null,
        "Canonical SMILES": "ClC=CC",
        "Molecular Formula": "C<sub>3</sub>H<sub>5</sub>Cl",
        "Molecular Mass": "76.52",
        "Boiling Point": "37.4 °C",
        "Melting Point": "-99 °C"
    }
}