{
    "cas_no": "738-70-5",
    "key_name": "Trimethoprim",
    "cn_name": "甲氧苄啶;甲氧苄氨嘧啶;5-[(3,4,5-三甲氧基苯基)甲基]-2,4-嘧啶二胺;",
    "alternate_name": "2,4-Pyrimidinediamine, 5-[(3,4,5-trimethoxyphenyl)methyl]-;Pyrimidine, 2,4-diamino-5-(3,4,5-trimethoxybenzyl)-;5-[(3,4,5-Trimethoxyphenyl)methyl]-2,4-pyrimidinediamine;BW 56-72;2,4-Diamino-5-(3,4,5-trimethoxybenzyl)pyrimidine;Syraprim;Trimethoprim;NIH 204;2,4-Diamino-5-(3′,4′,5′-trimethoxybenzyl)pyrimidine;Trimethioprim;Trimetoprim;Triprim;Trimpex;Trimanyl;Instalac;Trimogal;Wellcoprim;Monotrim;Proloprim;Tiempe;Trimopan;Uretrim;NSC 106568;Infectotrimet;MeSH ID: D014295",
    "duplicated_cas_no": "",
    "SMILES": "C(C1=CC(OC)=C(OC)C(OC)=C1)C=2C(N)=NC(N)=NC2",
    "meta_data": {
        "InChI": "InChI=1S/C14H18N4O3/c1-19-10-5-8(6-11(20-2)12(10)21-3)4-9-7-17-14(16)18-13(9)15/h5-7H,4H2,1-3H3,(H4,15,16,17,18)",
        "InChIKey": null,
        "Canonical SMILES": "N=1C=C(C(=NC1N)N)CC2=CC(OC)=C(OC)C(OC)=C2",
        "Molecular Formula": "C<sub>14</sub>H<sub>18</sub>N<sub>4</sub>O<sub>3</sub>",
        "Molecular Mass": "290.32",
        "Melting Point": "199-203 °C"
    }
}