{
    "cas_no": "870-85-9",
    "key_name": "2-Butenoic acid, 3-(methylamino)-, ethyl ester",
    "cn_name": "3-(甲基氨基)巴豆酸乙酯;3-(甲基氨基)-2-丁烯酸乙酯;",
    "alternate_name": "2-Butenoic acid, 3-(methylamino)-, ethyl ester;Crotonic acid, 3-(methylamino)-, ethyl ester;Ethyl β-(methylamino)crotonate;Ethyl 3-(methylamino)crotonate;Ethyl 3-(methylamino)-2-butenoate;NSC 61982;3-(Methylamino)-2-butenoic acid ethyl ester",
    "duplicated_cas_no": "",
    "SMILES": "C(C(OCC)=O)=C(NC)C",
    "meta_data": {
        "InChI": "InChI=1S/C7H13NO2/c1-4-10-7(9)5-6(2)8-3/h5,8H,4H2,1-3H3",
        "InChIKey": null,
        "Canonical SMILES": "O=C(OCC)C=C(NC)C",
        "Molecular Formula": "C<sub>7</sub>H<sub>13</sub>NO<sub>2</sub>",
        "Molecular Mass": "143.18",
        "Boiling Point": "133 °C @ Press: 50 Torr"
    }
}