{
    "cas_no": "455-13-0",
    "key_name": "1-Iodo-4-(trifluoromethyl)benzene",
    "cn_name": "4-碘三氟甲苯;对碘三氟甲苯;",
    "alternate_name": "Benzene, 1-iodo-4-(trifluoromethyl)-;Toluene, α,α,α-trifluoro-<em>p</em>-iodo-;1-Iodo-4-(trifluoromethyl)benzene;<em>p</em>-(Trifluoromethyl)iodobenzene;4-Iodobenzotrifluoride;α,α,α-Trifluoro-<em>p</em>-iodotoluene;<em>p</em>-Iodobenzotrifluoride;4-(Trifluoromethyl)iodobenzene;4-Iodo-1-(trifluoromethyl)benzene;4-(Trifluoromethyl)phenyl iodide;<em>p</em>-Iodo(trifluoromethyl)benzene;4-Iodo(trifluoromethyl)benzene;1-Trifluoromethyl-4-iodobenzene;4-Trifluoromethyl-1-iodobenzene",
    "duplicated_cas_no": "",
    "SMILES": "C(F)(F)(F)C1=CC=C(I)C=C1",
    "meta_data": {
        "InChI": "InChI=1S/C7H4F3I/c8-7(9,10)5-1-3-6(11)4-2-5/h1-4H",
        "InChIKey": null,
        "Canonical SMILES": "FC(F)(F)C1=CC=C(I)C=C1",
        "Molecular Formula": "C<sub>7</sub>H<sub>4</sub>F<sub>3</sub>I",
        "Molecular Mass": "272.01",
        "Melting Point": "167-168 °C",
        "Density": "1.851 g/cm³"
    }
}