{
    "cas_no": "18956-87-1",
    "key_name": "Phenothiazine-10-carbonyl chloride",
    "cn_name": "吩噻嗪-10-碳酰氯;",
    "alternate_name": "10<em>H</em>-Phenothiazine-10-carbonyl chloride;Phenothiazine-10-carbonyl chloride;Phenothiazine-<em>N</em>-carbonyl chloride;10-Chlorocarbonylphenothiazine;<em>N</em>-(Chlorocarbonyl)phenothiazine",
    "duplicated_cas_no": "",
    "SMILES": "C(Cl)(=O)N1C=2C(SC=3C1=CC=CC3)=CC=CC2",
    "meta_data": {
        "InChI": "InChI=1S/C13H8ClNOS/c14-13(16)15-9-5-1-3-7-11(9)17-12-8-4-2-6-10(12)15/h1-8H",
        "InChIKey": null,
        "Canonical SMILES": "O=C(Cl)N1C=2C=CC=CC2SC=3C=CC=CC31",
        "Molecular Formula": "C<sub>13</sub>H<sub>8</sub>ClNOS",
        "Molecular Mass": "261.73",
        "Melting Point": "99 °C"
    }
}