{
    "cas_no": "80-11-5",
    "key_name": "<em>N</em>-Methyl-<em>N</em>-nitroso-<em>p</em>-toluenesulfonamide",
    "cn_name": "N-甲基-N-亚硝基对甲苯磺酰胺;",
    "alternate_name": "Benzenesulfonamide, <em>N</em>,4-dimethyl-<em>N</em>-nitroso-;<em>p</em>-Toluenesulfonamide, <em>N</em>-methyl-<em>N</em>-nitroso-;<em>N</em>,4-Dimethyl-<em>N</em>-nitrosobenzenesulfonamide;Diazald;<em>N</em>-Methyl-<em>N</em>-nitroso-<em>p</em>-toluenesulfonamide;<em>p</em>-Tolylsulfonylmethylnitrosamide;<em>N</em>-Nitroso-<em>N</em>-methyl-<em>p</em>-toluenesulfonamide;Diazale;<em>N</em>-Methyl-<em>N</em>-nitroso-4-tosylamide;<em>N</em>-Methyl-<em>N</em>-nitrosotoluene-4-sulfonamide;NSC 313",
    "duplicated_cas_no": "97451-34-8",
    "SMILES": "S(N(N=O)C)(=O)(=O)C1=CC=C(C)C=C1",
    "meta_data": {
        "InChI": "InChI=1S/C8H10N2O3S/c1-7-3-5-8(6-4-7)14(12,13)10(2)9-11/h3-6H,1-2H3",
        "InChIKey": null,
        "Canonical SMILES": "O=NN(C)S(=O)(=O)C1=CC=C(C=C1)C",
        "Molecular Formula": "C<sub>8</sub>H<sub>10</sub>N<sub>2</sub>O<sub>3</sub>S",
        "Molecular Mass": "214.24",
        "Melting Point": "62 °C"
    }
}