{
    "cas_no": "17119-74-3",
    "key_name": "5-Bromo-4-chloro-6-methyl-2-(methylthio)pyrimidine",
    "cn_name": null,
    "alternate_name": "Pyrimidine, 5-bromo-4-chloro-6-methyl-2-(methylthio)-;5-Bromo-4-chloro-6-methyl-2-(methylthio)pyrimidine;NSC 97847",
    "duplicated_cas_no": "",
    "SMILES": "S(C)C=1N=C(C)C(Br)=C(Cl)N1",
    "meta_data": {
        "InChI": "InChI=1S/C6H6BrClN2S/c1-3-4(7)5(8)10-6(9-3)11-2/h1-2H3",
        "InChIKey": null,
        "Canonical SMILES": "ClC=1N=C(N=C(C1Br)C)SC",
        "Molecular Formula": "C<sub>6</sub>H<sub>6</sub>BrClN<sub>2</sub>S",
        "Molecular Mass": "253.55",
        "Melting Point": "72-73 °C"
    }
}