{
    "cas_no": "6957-27-3",
    "key_name": "1-[(3,4-Dimethoxyphenyl)methyl]-3,4-dihydro-6,7-dimethoxyisoquinoline",
    "cn_name": "3,4-二氢罂粟碱;",
    "alternate_name": "Isoquinoline, 1-[(3,4-dimethoxyphenyl)methyl]-3,4-dihydro-6,7-dimethoxy-;Isoquinoline, 3,4-dihydro-6,7-dimethoxy-1-veratryl-;1-[(3,4-Dimethoxyphenyl)methyl]-3,4-dihydro-6,7-dimethoxyisoquinoline;1-(3,4-Dimethoxybenzyl)-6,7-dimethoxy-3,4-dihydroisoquinoline;1-(3,4-Dimethoxybenzyl)-3,4-dihydro-6,7-dimethoxyisoquinoline;3,4-Dihydropapaverine;Paverin;Dihydropapaverine;NSC 66154;1-[(3,4-Dimethoxyphenyl)methyl]-6,7-dimethoxy-3,4-dihydroisoquinoline",
    "duplicated_cas_no": "",
    "SMILES": "C(C=1C=2C(=CC(OC)=C(OC)C2)CCN1)C3=CC(OC)=C(OC)C=C3",
    "meta_data": {
        "InChI": "InChI=1S/C20H23NO4/c1-22-17-6-5-13(10-18(17)23-2)9-16-15-12-20(25-4)19(24-3)11-14(15)7-8-21-16/h5-6,10-12H,7-9H2,1-4H3",
        "InChIKey": null,
        "Canonical SMILES": "N1=C(C=2C=C(OC)C(OC)=CC2CC1)CC3=CC=C(OC)C(OC)=C3",
        "Molecular Formula": "C<sub>20</sub>H<sub>23</sub>NO<sub>4</sub>",
        "Molecular Mass": "341.40",
        "Melting Point": "98-99 °C"
    }
}