{
    "cas_no": "637-31-0",
    "key_name": "4,4′-Bis(dimethylamino)diphenylamine",
    "cn_name": "4,4-二(二甲氨基)二苯胺;双(4-二甲氨基苯基)胺;",
    "alternate_name": "1,4-Benzenediamine, <em>N</em><sup>4</sup>-[4-(dimethylamino)phenyl]-<em>N</em><sup>1</sup>,<em>N</em><sup>1</sup>-dimethyl-;Diphenylamine, 4,4′-bis(dimethylamino)-;1,4-Benzenediamine, <em>N</em>′-[4-(dimethylamino)phenyl]-<em>N</em>,<em>N</em>-dimethyl-;<em>N</em><sup>4</sup>-[4-(Dimethylamino)phenyl]-<em>N</em><sup>1</sup>,<em>N</em><sup>1</sup>-dimethyl-1,4-benzenediamine;C.I. 76125;Bindschedler's green leuco base;4,4′-Bis(dimethylamino)diphenylamine;Bis[4-(dimethylamino)phenyl]amine;NSC 56921;<em>N</em>,<em>N</em>-Bis(4-dimethylaminophenyl)amine;N1-(4-(Dimethylamino)phenyl)-N4,N4-dimethylbenzene-1,4-diamine;1-<em>N</em>-[4-(Dimethylamino)phenyl]-4-<em>N</em>,4-<em>N</em>-dimethylbenzene-1,4-diamine",
    "duplicated_cas_no": "",
    "SMILES": "N(C1=CC=C(N(C)C)C=C1)C2=CC=C(N(C)C)C=C2",
    "meta_data": {
        "InChI": "InChI=1S/C16H21N3/c1-18(2)15-9-5-13(6-10-15)17-14-7-11-16(12-8-14)19(3)4/h5-12,17H,1-4H3",
        "InChIKey": null,
        "Canonical SMILES": "C=1C=C(C=CC1NC2=CC=C(C=C2)N(C)C)N(C)C",
        "Molecular Formula": "C<sub>16</sub>H<sub>21</sub>N<sub>3</sub>",
        "Molecular Mass": "255.36",
        "Melting Point": "115-116 °C"
    }
}