{
    "cas_no": "5802-82-4",
    "key_name": "Methyl hexacosanoate",
    "cn_name": "蜡酸甲酯C26;蜡酸甲酯C26;",
    "alternate_name": "Hexacosanoic acid, methyl ester;Methyl hexacosanoate;Methyl <em>n</em>-hexacosanoate;Cerotic acid, methyl ester;Methyl cerotate;C26:0 FAME",
    "duplicated_cas_no": "",
    "SMILES": "C(CCCCCCCCCCCCCCCCCC)CCCCCCC(OC)=O",
    "meta_data": {
        "InChI": "InChI=1S/C27H54O2/c1-3-4-5-6-7-8-9-10-11-12-13-14-15-16-17-18-19-20-21-22-23-24-25-26-27(28)29-2/h3-26H2,1-2H3",
        "InChIKey": null,
        "Canonical SMILES": "O=C(OC)CCCCCCCCCCCCCCCCCCCCCCCCC",
        "Molecular Formula": "C<sub>27</sub>H<sub>54</sub>O<sub>2</sub>",
        "Molecular Mass": "410.72",
        "Melting Point": "63.8 °C"
    }
}