{
    "cas_no": "292-64-8",
    "key_name": "Cyclooctane",
    "cn_name": "环辛烷;",
    "alternate_name": "Cyclooctane;NSC 72426",
    "duplicated_cas_no": "",
    "SMILES": "C1CCCCCCC1",
    "meta_data": {
        "InChI": "InChI=1S/C8H16/c1-2-4-6-8-7-5-3-1/h1-8H2",
        "InChIKey": null,
        "Canonical SMILES": "C1CCCCCCC1",
        "Molecular Formula": "C<sub>8</sub>H<sub>16</sub>",
        "Molecular Mass": "112.21",
        "Boiling Point": "149 °C",
        "Melting Point": "14.8 °C",
        "Density": "0.891 g/cm³ @ Temp: 20 °C"
    }
}