{
    "cas_no": "6402-09-1",
    "key_name": "1-(4-Nitrophenyl)-3-methyl-5-pyrazolone",
    "cn_name": "1-(4-硝基苯基)-3-甲基-5-吡唑啉酮;3-甲基-1-(对硝基苯基)-5-吡唑酮;",
    "alternate_name": "3<em>H</em>-Pyrazol-3-one, 2,4-dihydro-5-methyl-2-(4-nitrophenyl)-;2-Pyrazolin-5-one, 3-methyl-1-(<em>p</em>-nitrophenyl)-;2,4-Dihydro-5-methyl-2-(4-nitrophenyl)-3<em>H</em>-pyrazol-3-one;3-Methyl-<em>N</em>′-(<em>p</em>-nitrophenyl)-5-pyrazolone;1-<em>p</em>-Nitrophenyl-3-methyl-5-pyrazolone;3-Methyl-1-(4-nitrophenyl)-5-pyrazolone;3-Methyl-1-(4-nitrophenyl)-2-pyrazolin-5-one;1-(4-Nitrophenyl)-3-methyl-5-pyrazolone;NSC 15353;1-(4-Nitrophenyl)-3-methyl-2-pyrazolin-5-one;2,4-Dihydro-2-(<em>p</em>-nitrophenyl)-5-methyl-3<em>H</em>-pyrazol-3-one;3-Methyl-1-(4-nitrophenyl)-1<em>H</em>-pyrazol-5(4<em>H</em>)-one;3-Methyl-1-(4-nitrophenyl)-4,5-dihydro-1<em>H</em>-pyrazol-5-one",
    "duplicated_cas_no": "",
    "SMILES": "O=C1N(N=C(C)C1)C2=CC=C(N(=O)=O)C=C2",
    "meta_data": {
        "InChI": "InChI=1S/C10H9N3O3/c1-7-6-10(14)12(11-7)8-2-4-9(5-3-8)13(15)16/h2-5H,6H2,1H3",
        "InChIKey": null,
        "Canonical SMILES": "O=C1N(N=C(C)C1)C2=CC=C(C=C2)N(=O)=O",
        "Molecular Formula": "C<sub>10</sub>H<sub>9</sub>N<sub>3</sub>O<sub>3</sub>",
        "Molecular Mass": "219.20",
        "Melting Point": "218 °C"
    }
}