{
    "cas_no": "132-63-8",
    "key_name": "Methyl <em>N</em>-(7-hydroxy-1-naphthalenyl)carbamate",
    "cn_name": "1-甲氧基碳酰氨基-7-萘酚;",
    "alternate_name": "Carbamic acid, <em>N</em>-(7-hydroxy-1-naphthalenyl)-, methyl ester;1-Naphthalenecarbamic acid, 7-hydroxy-, methyl ester;Carbamic acid, (7-hydroxy-1-naphthalenyl)-, methyl ester;Methyl <em>N</em>-(7-hydroxy-1-naphthalenyl)carbamate;1-Methoxycarbonylamino-7-naphthol",
    "duplicated_cas_no": "",
    "SMILES": "N(C(OC)=O)C=1C2=C(C=CC1)C=CC(O)=C2",
    "meta_data": {
        "InChI": "InChI=1S/C12H11NO3/c1-16-12(15)13-11-4-2-3-8-5-6-9(14)7-10(8)11/h2-7,14H,1H3,(H,13,15)",
        "InChIKey": null,
        "Canonical SMILES": "O=C(OC)NC1=CC=CC2=CC=C(O)C=C21",
        "Molecular Formula": "C<sub>12</sub>H<sub>11</sub>NO<sub>3</sub>",
        "Molecular Mass": "217.22",
        "Melting Point": "104 °C"
    }
}