{
    "cas_no": "41107-82-8",
    "key_name": "2,5-Anhydro-<span class=\"text-smallcaps\">D</span>-mannitol",
    "cn_name": "2,5-脱水-D-甘露醇;",
    "alternate_name": "<span class=\"text-smallcaps\">D</span>-Mannitol, 2,5-anhydro-;2,5-Anhydro-<span class=\"text-smallcaps\">D</span>-mannitol;NSC 129241;2,5-Mannitan",
    "duplicated_cas_no": "50896-35-0",
    "SMILES": "C(O)[C@@H]1[C@@H](O)[C@H](O)[C@@H](CO)O1",
    "meta_data": {
        "InChI": "InChI=1S/C6H12O5/c7-1-3-5(9)6(10)4(2-8)11-3/h3-10H,1-2H2/t3-,4-,5-,6-/m1/s1",
        "InChIKey": null,
        "Canonical SMILES": "OCC1OC(CO)C(O)C1O",
        "Molecular Formula": "C<sub>6</sub>H<sub>12</sub>O<sub>5</sub>",
        "Molecular Mass": "164.16",
        "Melting Point": "100-102 °C"
    }
}