{
    "cas_no": "598-02-7",
    "key_name": "Diethyl phosphate",
    "cn_name": null,
    "alternate_name": "Phosphoric acid, diethyl ester;Ethyl phosphate ((C<sub>2</sub>H<sub>5</sub>O)<sub>2</sub>(HO)PO);Diethyl phosphate;Diethyl hydrogen phosphate;Diethyl acid phosphate;Diethyl phosphoric acid;<em>O</em>,<em>O</em>-Diethyl hydrogen phosphate;DEP;NSC 97178;JP 502",
    "duplicated_cas_no": "",
    "SMILES": "P(OCC)(OCC)(=O)O",
    "meta_data": {
        "InChI": "InChI=1S/C4H11O4P/c1-3-7-9(5,6)8-4-2/h3-4H2,1-2H3,(H,5,6)",
        "InChIKey": null,
        "Canonical SMILES": "O=P(O)(OCC)OCC",
        "Molecular Formula": "C<sub>4</sub>H<sub>11</sub>O<sub>4</sub>P",
        "Molecular Mass": "154.10",
        "Boiling Point": "105 °C @ Press: 0.01 Torr",
        "Melting Point": "180 °C",
        "Density": "1.1967 g/cm³ @ Temp: 20 °C"
    }
}