{
    "cas_no": "348-60-7",
    "key_name": "4-Chloro-3-fluorophenol",
    "cn_name": "4-氯-3-氟苯酚;",
    "alternate_name": "Phenol, 4-chloro-3-fluoro-;4-Chloro-3-fluorophenol;3-Fluoro-4-chlorophenol",
    "duplicated_cas_no": "",
    "SMILES": "FC1=C(Cl)C=CC(O)=C1",
    "meta_data": {
        "InChI": "InChI=1S/C6H4ClFO/c7-5-2-1-4(9)3-6(5)8/h1-3,9H",
        "InChIKey": null,
        "Canonical SMILES": "FC1=CC(O)=CC=C1Cl",
        "Molecular Formula": "C<sub>6</sub>H<sub>4</sub>ClFO",
        "Molecular Mass": "146.55",
        "Boiling Point": "84 °C @ Press: 4.4 Torr"
    }
}