{
    "cas_no": "61292-90-8",
    "key_name": "Ethyl 3-(4-hydroxy-3-methoxyphenyl)propionate",
    "cn_name": null,
    "alternate_name": "Benzenepropanoic acid, 4-hydroxy-3-methoxy-, ethyl ester;Hydrocinnamic acid, 4-hydroxy-3-methoxy-, ethyl ester;Ethyl dihydroferulate;Ethyl 3-(4-hydroxy-3-methoxyphenyl)propionate;Ethyl 3-(4-hydroxy-3-methoxyphenyl)propanoate;Ethyl 4-hydroxy-3-methoxybenzenepropanoate;Ethyl β-(4-hydroxy-3-methoxyphenyl)propionate",
    "duplicated_cas_no": "",
    "SMILES": "C(CC(OCC)=O)C1=CC(OC)=C(O)C=C1",
    "meta_data": {
        "InChI": "InChI=1S/C12H16O4/c1-3-16-12(14)7-5-9-4-6-10(13)11(8-9)15-2/h4,6,8,13H,3,5,7H2,1-2H3",
        "InChIKey": null,
        "Canonical SMILES": "O=C(OCC)CCC1=CC=C(O)C(OC)=C1",
        "Molecular Formula": "C<sub>12</sub>H<sub>16</sub>O<sub>4</sub>",
        "Molecular Mass": "224.25",
        "Boiling Point": "80-100 °C @ Press: 0.05 Torr"
    }
}