{
    "cas_no": "55-18-5",
    "key_name": "Diethylnitrosamine",
    "cn_name": "对三氟甲基苯腈;4-三氟甲基苯腈;4-(三氟甲基)苯甲腈;",
    "alternate_name": "Ethanamine, <em>N</em>-ethyl-<em>N</em>-nitroso-;Diethylamine, <em>N</em>-nitroso-;<em>N</em>-Ethyl-<em>N</em>-nitrosoethanamine;DENA;Diethylnitrosamine;Diethylnitrosoamine;Nitrosodiethylamine;<em>N</em>-Nitrosodiethylamine;Diethylnitrosamide;<em>N</em>,<em>N</em>-Diethylnitrosoamine;<em>N</em>-Nitroso-<em>N</em>,<em>N</em>-diethylamine;DEN;DEN (mutagen);NDEA;NSC 132;MeSH ID: D004052",
    "duplicated_cas_no": "",
    "SMILES": "N(CC)(CC)N=O",
    "meta_data": {
        "InChI": "InChI=1S/C4H10N2O/c1-3-6(4-2)5-7/h3-4H2,1-2H3",
        "InChIKey": null,
        "Canonical SMILES": "O=NN(CC)CC",
        "Molecular Formula": "C<sub>4</sub>H<sub>10</sub>N<sub>2</sub>O",
        "Molecular Mass": "102.14",
        "Boiling Point": "175-177 °C",
        "Melting Point": "&lt;25 °C",
        "Density": "0.9422 g/cm³ @ Temp: 20 °C"
    }
}