{
    "cas_no": "98-44-2",
    "key_name": "2-Amino-1,4-benzenedisulfonic acid",
    "cn_name": "2-氨基-1,4-苯二磺酸;苯胺-2,5-二磺酸;苯胺-2,5-双磺酸;",
    "alternate_name": "1,4-Benzenedisulfonic acid, 2-amino-;<em>p</em>-Benzenedisulfonic acid, 2-amino-;2-Amino-1,4-benzenedisulfonic acid;2-Amino-<em>p</em>-benzenedisulfonic acid;2-Amino-1,4-disulfobenzene;Aniline-2,5-disulfonic acid;2,5-Disulfo-1-aminobenzene;2,5-Disulfoaniline;4-Sulfometanilic acid;1-Anilino-2,5-disulfonic acid;1-Amino-2,5-benzenedisulfonic acid;6-Aminobenzene-1,4-disulfonic acid;NSC 5580",
    "duplicated_cas_no": "",
    "SMILES": "S(=O)(=O)(O)C1=CC(N)=C(S(=O)(=O)O)C=C1",
    "meta_data": {
        "InChI": "InChI=1S/C6H7NO6S2/c7-5-3-4(14(8,9)10)1-2-6(5)15(11,12)13/h1-3H,7H2,(H,8,9,10)(H,11,12,13)",
        "InChIKey": null,
        "Canonical SMILES": "O=S(=O)(O)C1=CC=C(C(N)=C1)S(=O)(=O)O",
        "Molecular Formula": "C<sub>6</sub>H<sub>7</sub>NO<sub>6</sub>S<sub>2</sub>",
        "Molecular Mass": "253.25",
        "Melting Point": "198-199 °C"
    }
}