{
    "cas_no": "1429-50-1",
    "key_name": "Ethylenediaminetetra(methylenephosphonic acid)",
    "cn_name": "乙二胺四亚甲基膦酸;乙二胺四甲叉膦酸;",
    "alternate_name": "Phosphonic acid, <em>P</em>,<em>P</em>′,<em>P</em>′′,<em>P</em>′′′-[1,2-ethanediylbis[nitrilobis(methylene)]]tetrakis-;Phosphonic acid, [ethylenebis(nitrilodimethylene)]tetra-;Phosphonic acid, [1,2-ethanediylbis[nitrilobis(methylene)]]tetrakis-;<em>P</em>,<em>P</em>′,<em>P</em>′′,<em>P</em>′′′-[1,2-Ethanediylbis[nitrilobis(methylene)]]tetrakis[phosphonic acid];Ethylenediaminetetra(methylenephosphonic acid);Ethylenediaminetetrakis(methylphosphonic acid);Ethylenediaminotetra(methylenephosphonic acid);[Ethylenebis(nitrilodimethylene)]tetraphosphonic acid;Ethylenediaminetetrakis(methylenephosphonic acid);Ethylenediamine-<em>N</em>,<em>N</em>,<em>N</em>′,<em>N</em>′-tetra(methylphosphonic acid);Ethylenedi(nitrilodimethylene)tetraphosphonic acid;Dequest 2041;<em>N</em>,<em>N</em>,<em>N</em>′,<em>N</em>′-Tetrakis(phosphonomethyl)ethylenediamine;Dequest 2040;Editempa;EDTF;EDPA;EDTPA;Wayplex 45K;EDTMP;Ethylenediamine-<em>N</em>,<em>N</em>,<em>N</em>′,<em>N</em>′-tetrakis(methylenephosphonic acid);EDPA (chelating agent);Cublen 3115;EDTPH;EDTMPA;Ethylenediaminetetramethylenephosphonate;Briquest 422-25S;PH 540;Chelest PH 540;Chelating agent 540;Cublen E 950;EDTMPS;([[2-(Bis-phosphonomethyl-amino)-ethyl]-phosphonomethyl-amino]-methyl)-phosphonic acid;[2-[Bis(phosphonomethyl)amino]ethyl-(phosphonomethyl)amino]methylphosphonic acid",
    "duplicated_cas_no": "103333-76-2;54579-31-6;66300-26-3;85497-53-6;244775-21-1",
    "SMILES": "C(N(CP(=O)(O)O)CCN(CP(=O)(O)O)CP(=O)(O)O)P(=O)(O)O",
    "meta_data": {
        "InChI": "InChI=1S/C6H20N2O12P4/c9-21(10,11)3-7(4-22(12,13)14)1-2-8(5-23(15,16)17)6-24(18,19)20/h1-6H2,(H2,9,10,11)(H2,12,13,14)(H2,15,16,17)(H2,18,19,20)",
        "InChIKey": null,
        "Canonical SMILES": "O=P(O)(O)CN(CCN(CP(=O)(O)O)CP(=O)(O)O)CP(=O)(O)O",
        "Molecular Formula": "C<sub>6</sub>H<sub>20</sub>N<sub>2</sub>O<sub>12</sub>P<sub>4</sub>",
        "Molecular Mass": "436.12",
        "Melting Point": "247 °C"
    }
}