{
    "cas_no": "52378-40-2",
    "key_name": "Methyl <em>N</em>-cyano-<em>N</em>′-[2-[[(4-methyl-1<em>H</em>-imidazol-5-yl)methyl]thio]ethyl]carbamimidothioate",
    "cn_name": "西咪替丁二缩物;N-氰基-N\"-[2-(5-甲基-4-咪唑基)-甲基硫乙基]-S-甲基异硫脲;N-氰基-N\"-[2-[[(5-甲基-1H-咪;",
    "alternate_name": "Carbamimidothioic acid, <em>N</em>-cyano-<em>N</em>′-[2-[[(4-methyl-1<em>H</em>-imidazol-5-yl)methyl]thio]ethyl]-, methyl ester;Carbamimidothioic acid, <em>N</em>-cyano-<em>N</em>′-[2-[[(5-methyl-1<em>H</em>-imidazol-4-yl)methyl]thio]ethyl]-, methyl ester;Methyl <em>N</em>-cyano-<em>N</em>′-[2-[[(4-methyl-1<em>H</em>-imidazol-5-yl)methyl]thio]ethyl]carbamimidothioate;<em>N</em>-Cyano-<em>N</em>′-[2-[(4-methyl-5-imidazolyl)methylthio]ethyl]-<em>S</em>-methylisothiourea;<em>N</em>-Cyano-<em>N</em>′-[2-[[(5-methyl-4-imidazolyl)methyl]thio]ethyl]-<em>S</em>-methylisothiourea",
    "duplicated_cas_no": "",
    "SMILES": "C(SCCN=C(NC#N)SC)C1=C(C)N=CN1",
    "meta_data": {
        "InChI": "InChI=1S/C10H15N5S2/c1-8-9(15-7-14-8)5-17-4-3-12-10(16-2)13-6-11/h7H,3-5H2,1-2H3,(H,12,13)(H,14,15)",
        "InChIKey": null,
        "Canonical SMILES": "N#CNC(=NCCSCC=1NC=NC1C)SC",
        "Molecular Formula": "C<sub>10</sub>H<sub>15</sub>N<sub>5</sub>S<sub>2</sub>",
        "Molecular Mass": "269.39",
        "Melting Point": "148-150 °C"
    }
}