{
    "cas_no": "902130-87-4",
    "key_name": "6-Methoxy-3-pyridineacetic acid",
    "cn_name": null,
    "alternate_name": "3-Pyridineacetic acid, 6-methoxy-;6-Methoxy-3-pyridineacetic acid;2-(6-Methoxy-3-pyridyl)acetic acid;2-(6-Methoxypyridin-3-yl)acetic acid;(2-Methoxy-5-pyridyl)acetic acid",
    "duplicated_cas_no": "",
    "SMILES": "C(C(O)=O)C=1C=CC(OC)=NC1",
    "meta_data": {
        "InChI": "InChI=1S/C8H9NO3/c1-12-7-3-2-6(5-9-7)4-8(10)11/h2-3,5H,4H2,1H3,(H,10,11)",
        "InChIKey": null,
        "Canonical SMILES": "O=C(O)CC1=CN=C(OC)C=C1",
        "Molecular Formula": "C<sub>8</sub>H<sub>9</sub>NO<sub>3</sub>",
        "Molecular Mass": "167.16",
        "Melting Point": "110-113 °C"
    }
}