{
    "cas_no": "453-11-2",
    "key_name": "1-Chloro-3-fluoro-2-propanol",
    "cn_name": "1-氯-3-氟-2-丙醇;",
    "alternate_name": "2-Propanol, 1-chloro-3-fluoro-;1-Chloro-3-fluoro-2-propanol;1-Fluoro-3-chloro-2-propanol;NSC 21304;NSC 80643;1-Chloro-3-fluoroisopropanol",
    "duplicated_cas_no": "146580-24-7",
    "SMILES": "C(CCl)(CF)O",
    "meta_data": {
        "InChI": "InChI=1S/C3H6ClFO/c4-1-3(6)2-5/h3,6H,1-2H2",
        "InChIKey": null,
        "Canonical SMILES": "FCC(O)CCl",
        "Molecular Formula": "C<sub>3</sub>H<sub>6</sub>ClFO",
        "Molecular Mass": "112.53",
        "Boiling Point": "153-156 °C",
        "Density": "1.300 g/cm³ @ Temp: 20 °C"
    }
}