{
    "cas_no": "19181-54-5",
    "key_name": "8-Methyl-4(3<em>H</em>)-quinazolinone",
    "cn_name": null,
    "alternate_name": "4(3<em>H</em>)-Quinazolinone, 8-methyl-;4(1<em>H</em>)-Quinazolinone, 8-methyl-;8-Methyl-4(3<em>H</em>)-quinazolinone;8-Methylquinazolin-4(3<em>H</em>)-one",
    "duplicated_cas_no": "",
    "SMILES": "O=C1C=2C(=C(C)C=CC2)NC=N1",
    "meta_data": {
        "InChI": "InChI=1S/C9H8N2O/c1-6-3-2-4-7-8(6)10-5-11-9(7)12/h2-5H,1H3,(H,10,11,12)",
        "InChIKey": null,
        "Canonical SMILES": "O=C1N=CNC=2C1=CC=CC2C",
        "Molecular Formula": "C<sub>9</sub>H<sub>8</sub>N<sub>2</sub>O",
        "Molecular Mass": "160.17",
        "Melting Point": "247 °C"
    }
}