{
    "cas_no": "629-93-6",
    "key_name": "1-Iodooctadecane",
    "cn_name": "1-碘代十八烷;硬脂基碘;1-碘十八烷;碘代十八烷;十八烷基碘;",
    "alternate_name": "Octadecane, 1-iodo-;1-Iodooctadecane;Octadecyl iodide;Stearyl iodide;<em>n</em>-Octadecyl iodide;1-Octadecyl iodide;NSC 5544",
    "duplicated_cas_no": "",
    "SMILES": "C(CCCCCCCCC)CCCCCCCCI",
    "meta_data": {
        "InChI": "InChI=1S/C18H37I/c1-2-3-4-5-6-7-8-9-10-11-12-13-14-15-16-17-18-19/h2-18H2,1H3",
        "InChIKey": null,
        "Canonical SMILES": "ICCCCCCCCCCCCCCCCCC",
        "Molecular Formula": "C<sub>18</sub>H<sub>37</sub>I",
        "Molecular Mass": "380.39",
        "Boiling Point": "383 °C",
        "Melting Point": "34 °C"
    }
}