{
    "cas_no": "5625-46-7",
    "key_name": "3,6-Dimethyl-2,5-piperazinedione",
    "cn_name": "丙氨酸酸酐;",
    "alternate_name": "2,5-Piperazinedione, 3,6-dimethyl-;3,6-Dimethyl-2,5-piperazinedione;3,6-Dimethyl-2,5-diketopiperazine;Cyclo-<span class=\"text-smallcaps\">DL</smallcap>-alanyl-<smallcap>DL</span>-alanine;Alanine diketopiperazine;Cyclo-<span class=\"text-smallcaps\">DL</smallcap>-Ala-<smallcap>DL</span>-Ala;NSC 29655",
    "duplicated_cas_no": "26280-47-7",
    "SMILES": "CC1C(=O)NC(C)C(=O)N1",
    "meta_data": {
        "InChI": "InChI=1S/C6H10N2O2/c1-3-5(9)8-4(2)6(10)7-3/h3-4H,1-2H3,(H,7,10)(H,8,9)",
        "InChIKey": null,
        "Canonical SMILES": "O=C1NC(C(=O)NC1C)C",
        "Molecular Formula": "C<sub>6</sub>H<sub>10</sub>N<sub>2</sub>O<sub>2</sub>",
        "Molecular Mass": "142.16",
        "Melting Point": "283 °C"
    }
}