{
    "cas_no": "3406-03-9",
    "key_name": "1-Phenyl-2-(phenylsulfonyl)ethanone",
    "cn_name": "2-(苯基磺酰)苯乙酮;2-苯磺酰乙酮;",
    "alternate_name": "Ethanone, 1-phenyl-2-(phenylsulfonyl)-;Acetophenone, 2-(phenylsulfonyl)-;1-Phenyl-2-(phenylsulfonyl)ethanone;Phenacyl phenyl sulfone;ω-(Phenylsulfonyl)acetophenone;α-(Phenylsulfonyl)acetophenone;Benzoyl(phenylsulfonyl)methane;Phenyl phenacyl sulfone;2-(Phenylsulfonyl)acetophenone;Phenylacyl phenyl sulfone;1-Phenyl-2-phenylsulfonylethanone;Benzoylmethyl phenyl sulfone;NSC 2698;NSC 63073;NSC 633013;1-Phenyl-2-(phenylsulfonyl)ethan-1-one;2-(Benzenesulfonyl)-1-phenylethan-1-one;2-(Benzenesulfonyl)-1-phenylethanone",
    "duplicated_cas_no": "",
    "SMILES": "S(CC(=O)C1=CC=CC=C1)(=O)(=O)C2=CC=CC=C2",
    "meta_data": {
        "InChI": "InChI=1S/C14H12O3S/c15-14(12-7-3-1-4-8-12)11-18(16,17)13-9-5-2-6-10-13/h1-10H,11H2",
        "InChIKey": null,
        "Canonical SMILES": "O=C(C=1C=CC=CC1)CS(=O)(=O)C=2C=CC=CC2",
        "Molecular Formula": "C<sub>14</sub>H<sub>12</sub>O<sub>3</sub>S",
        "Molecular Mass": "260.31",
        "Melting Point": "96 °C"
    }
}