{
    "cas_no": "2040-95-1",
    "key_name": "Butylcyclopentane",
    "cn_name": "正丁基环戊烷;正丁基环戊烷;",
    "alternate_name": "Cyclopentane, butyl-;Butylcyclopentane;NSC 74179",
    "duplicated_cas_no": "",
    "SMILES": "C(CCC)C1CCCC1",
    "meta_data": {
        "InChI": "InChI=1S/C9H18/c1-2-3-6-9-7-4-5-8-9/h9H,2-8H2,1H3",
        "InChIKey": null,
        "Canonical SMILES": "CCCCC1CCCC1",
        "Molecular Formula": "C<sub>9</sub>H<sub>18</sub>",
        "Molecular Mass": "126.24",
        "Boiling Point": "156.6 °C",
        "Melting Point": "-108 °C",
        "Density": "0.7887 g/cm³ @ Temp: 14.95 °C"
    }
}