{
    "cas_no": "5933-40-4",
    "key_name": "(<em>R</em>)-(+)-<em>N</em>-Methyl-1-phenylethylamine",
    "cn_name": "(R)-(+)-N,α-二甲基苯甲基胺;",
    "alternate_name": "Benzenemethanamine, <em>N</em>,α-dimethyl-, (α<em>R</em>)-;Benzenemethanamine, <em>N</em>,α-dimethyl-, (<em>R</em>)-;Benzylamine, <em>N</em>,α-dimethyl-, (<em>R</em>)-(+)-;(α<em>R</em>)-<em>N</em>,α-Dimethylbenzenemethanamine;<em>R</em>-(+)-<em>N</em>,α-Dimethylbenzylamine;<span class=\"text-smallcaps\">D</span>-(+)-<em>N</em>-Methyl-<em>N</em>-(α-phenylethyl)amine;(<em>R</em>)-<em>N</em>-Methyl-1-phenylethylamine;(<em>R</em>)-(+)-<em>N</em>-Methyl-1-phenylethylamine;<em>N</em>-Methyl-<em>N</em>-((1<em>R</em>)-1-phenylethyl)amine;(1<em>R</em>)-<em>N</em>-Methyl-1-phenylethylamine;<em>N</em>-Methyl-(<em>R</em>)-α-methylbenzylamine;(<em>R</em>)-<em>N</em>-Methyl-<em>N</em>-(α-methylbenzyl)amine;(<em>R</em>)-<em>N</em>-Methyl-α-methylbenzylamine;(<em>R</em>)-<em>N</em>-Methyl-1-phenylethanamine;(<em>R</em>)-<em>N</em>-Methyl-α-methylbenzenemethanamine;Methyl-((R)-1-phenylethyl)amine;(R)-<em>N</em>-Methyl-α-methylbenzylamine;(R)-<em>N</em>-Methyl-1-phenylethylamine;(R)-<em>N</em>-Methyl-1-phenylethan-1-amine;(1R)-<em>N</em>-Methyl-1-phenylethanamine;(R)-<em>N</em>-Methyl-1-phenylethanamine;<em>N</em>-Methyl-(R)-α-methylbenzylamine",
    "duplicated_cas_no": "",
    "SMILES": "[C@@H](NC)(C)C1=CC=CC=C1",
    "meta_data": {
        "InChI": "InChI=1S/C9H13N/c1-8(10-2)9-6-4-3-5-7-9/h3-8,10H,1-2H3/t8-/m1/s1",
        "InChIKey": null,
        "Canonical SMILES": "C=1C=CC(=CC1)C(NC)C",
        "Molecular Formula": "C<sub>9</sub>H<sub>13</sub>N",
        "Molecular Mass": "135.21",
        "Boiling Point": "83 °C @ Press: 12 Torr"
    }
}