{
    "cas_no": "3647-69-6",
    "key_name": "4-(2-Chloroethyl)morpholine hydrochloride",
    "cn_name": "N-(2-氯乙基)吗啉盐酸盐;",
    "alternate_name": "Morpholine, 4-(2-chloroethyl)-, hydrochloride (1:1);Morpholine, 4-(2-chloroethyl)-, hydrochloride;<em>N</em>-(β-Chloroethyl)morpholine hydrochloride;2-Morpholinoethyl chloride hydrochloride;<em>N</em>-(2-Chloroethyl)morpholine hydrochloride;2-(4-Morpholinyl)ethyl chloride hydrochloride;4-(2-Chloroethyl)morpholine hydrochloride;β-Morpholinoethyl chloride hydrochloride;1-Chloro-2-morpholinoethane hydrochloride;Morpholinoethyl chloride hydrochloride;4-(2-Chloroethyl)morpholinium chloride;4-(2-Chloroethyl)morpholine monohydrochloride;1-(Morpholin-4-yl)-2-chloroethane hydrochloride;1-Chloro-2-(morpholin-4-yl)ethane monohydrochloride",
    "duplicated_cas_no": "",
    "SMILES": "C(CCl)N1CCOCC1.Cl",
    "meta_data": {
        "InChI": "InChI=1S/C6H12ClNO.ClH/c7-1-2-8-3-5-9-6-4-8;/h1-6H2;1H",
        "InChIKey": null,
        "Canonical SMILES": "Cl.ClCCN1CCOCC1",
        "Molecular Formula": "C<sub>6</sub>H<sub>12</sub>ClNO.ClH",
        "Molecular Mass": "",
        "Melting Point": "182-182.5 °C"
    }
}