{
    "cas_no": "1830-54-2",
    "key_name": "1,5-Dimethyl 3-oxopentanedioate",
    "cn_name": "1,3-丙酮二羧酸二甲酯;3-氧代戊二酸二甲酯;",
    "alternate_name": "Pentanedioic acid, 3-oxo-, 1,5-dimethyl ester;Glutaric acid, 3-oxo-, dimethyl ester;Pentanedioic acid, 3-oxo-, dimethyl ester;1,5-Dimethyl 3-oxopentanedioate;Dimethyl β-oxoglutarate;Dimethyl acetonedicarboxylate;Dimethyl 1,3-acetonedicarboxylate;Dimethyl 3-oxopentanedioate;Dimethyl 3-oxoglutarate;Dimethyl β-ketoglutarate;Dimethyl 3-ketoglutarate;Dimethyl 3-oxo-1,5-pentanedioate;β-Oxoglutaric acid dimethyl ester;Acetone dicarboxylic acid dimethyl ester;3-Oxopentanedioic acid dimethyl ester;NSC 4677;Dimethyl 2-oxopropane-1,3-dicarboxylate;1,3-Acetonedicarboxylic acid dimethyl ester;3-Oxoglutaric acid dimethyl ester",
    "duplicated_cas_no": "",
    "SMILES": "C(CC(OC)=O)(CC(OC)=O)=O",
    "meta_data": {
        "InChI": "InChI=1S/C7H10O5/c1-11-6(9)3-5(8)4-7(10)12-2/h3-4H2,1-2H3",
        "InChIKey": null,
        "Canonical SMILES": "O=C(OC)CC(=O)CC(=O)OC",
        "Molecular Formula": "C<sub>7</sub>H<sub>10</sub>O<sub>5</sub>",
        "Molecular Mass": "174.15",
        "Boiling Point": "126 °C @ Press: 11 Torr",
        "Density": "1.202 g/cm³ @ Temp: 20 °C"
    }
}