{
    "cas_no": "2021-58-1",
    "key_name": "2-Thienylalanine",
    "cn_name": null,
    "alternate_name": "2-Thiophenepropanoic acid, α-amino-;2-Thiophenepropionic acid, α-amino-, (±)-;2-Thiophenepropanoic acid, α-amino-, (±)-;α-Amino-2-thiophenepropanoic acid;β-2-Thienyl-<span class=\"text-smallcaps\">D</smallcap><smallcap>L</span>-alanine;<span class=\"text-smallcaps\">D</smallcap><smallcap>L</span>-β-Thienylalanine;2-Thiophenealanine;β-2-Thienylalanine;(±)-α-Amino-2-thiophenepropanoic acid;2-Thienylalanine;2-Amino-3-(2-thienyl)propionic acid;<span class=\"text-smallcaps\">D</smallcap><smallcap>L</span>-(2-Thienyl)alanine;NSC 754;<span class=\"text-smallcaps\">D</smallcap><smallcap>L</span>-3-(2-Thienyl)alanine;3-(2-Thienyl)alanine;2-Amino-3-(thiophen-2-yl)propionic acid;2-Azaniumyl-3-thiophen-2-ylpropanoate;2-Amino-3-(thiophen-2-yl)propanoic acid;2-Amino-3-(thiophen-2-yl)propanoicacid",
    "duplicated_cas_no": "139-86-6",
    "SMILES": "C(C(C(O)=O)N)C1=CC=CS1",
    "meta_data": {
        "InChI": "InChI=1S/C7H9NO2S/c8-6(7(9)10)4-5-2-1-3-11-5/h1-3,6H,4,8H2,(H,9,10)",
        "InChIKey": null,
        "Canonical SMILES": "O=C(O)C(N)CC=1SC=CC1",
        "Molecular Formula": "C<sub>7</sub>H<sub>9</sub>NO<sub>2</sub>S",
        "Molecular Mass": "171.22",
        "Melting Point": "274-275 °C"
    }
}