{
    "cas_no": "124-22-1",
    "key_name": "Dodecylamine",
    "cn_name": "十二烷基伯胺;十二胺;月桂胺;",
    "alternate_name": "1-Dodecanamine;Dodecylamine;Laurylamine;Alamine 4;Armeen 12D;1-Aminododecane;<em>n</em>-Dodecylamine;Laurinamine;1-Dodecylamine;Nissan Amine BB;<em>n</em>-Laurylamine;Amine BB;Kemamine P 690;Monododecylamine;Farmin 20D;Lauramine;Monolaurylamine;HAN 12;Lipomin 12D;Adogen 163D;Fentamine A 12",
    "duplicated_cas_no": "126162-08-1;27177-40-8",
    "SMILES": "C(CCCCCC)CCCCCN",
    "meta_data": {
        "InChI": "InChI=1S/C12H27N/c1-2-3-4-5-6-7-8-9-10-11-12-13/h2-13H2,1H3",
        "InChIKey": null,
        "Canonical SMILES": "NCCCCCCCCCCCC",
        "Molecular Formula": "C<sub>12</sub>H<sub>27</sub>N",
        "Molecular Mass": "185.35",
        "Boiling Point": "259 °C",
        "Melting Point": "28.3 °C",
        "Density": "0.8015 g/cm³ @ Temp: 20 °C"
    }
}