{
    "cas_no": "68052-43-7",
    "key_name": "5-Hydroxy-1,3-benzenedicarboxamide",
    "cn_name": null,
    "alternate_name": "1,3-Benzenedicarboxamide, 5-hydroxy-;5-Hydroxy-1,3-benzenedicarboxamide",
    "duplicated_cas_no": "",
    "SMILES": "C(N)(=O)C1=CC(C(N)=O)=CC(O)=C1",
    "meta_data": {
        "InChI": "InChI=1S/C8H8N2O3/c9-7(12)4-1-5(8(10)13)3-6(11)2-4/h1-3,11H,(H2,9,12)(H2,10,13)",
        "InChIKey": null,
        "Canonical SMILES": "O=C(N)C1=CC(O)=CC(=C1)C(=O)N",
        "Molecular Formula": "C<sub>8</sub>H<sub>8</sub>N<sub>2</sub>O<sub>3</sub>",
        "Molecular Mass": "180.16",
        "Melting Point": "306 °C"
    }
}