{
    "cas_no": "2961-50-4",
    "key_name": "4-Pentylpyridine",
    "cn_name": "4-正戊基吡啶;",
    "alternate_name": "Pyridine, 4-pentyl-;4-Pentylpyridine;1-(4-Pyridyl)pentane;4-Amylpyridine;4-<em>n</em>-Pentylpyridine;NSC 4694",
    "duplicated_cas_no": "",
    "SMILES": "C(CCCC)C=1C=CN=CC1",
    "meta_data": {
        "InChI": "InChI=1S/C10H15N/c1-2-3-4-5-10-6-8-11-9-7-10/h6-9H,2-5H2,1H3",
        "InChIKey": null,
        "Canonical SMILES": "N=1C=CC(=CC1)CCCCC",
        "Molecular Formula": "C<sub>10</sub>H<sub>15</sub>N",
        "Molecular Mass": "149.23",
        "Boiling Point": "229-230 °C",
        "Density": "0.9031 g/cm³ @ Temp: 20 °C"
    }
}