{
    "cas_no": "82941-26-2",
    "key_name": "2-(2-Butoxyethoxy)acetic acid",
    "cn_name": "(2-正丁氧乙氧基)乙酸;",
    "alternate_name": "Acetic acid, 2-(2-butoxyethoxy)-;Acetic acid, (2-butoxyethoxy)-;2-(2-Butoxyethoxy)acetic acid;(2-Butoxyethoxy)acetic acid;3,6-Dioxadecanoic acid;(2-<em>n</em>-Butoxyethoxy)acetic acid",
    "duplicated_cas_no": "",
    "SMILES": "C(COCCCC)OCC(O)=O",
    "meta_data": {
        "InChI": "InChI=1S/C8H16O4/c1-2-3-4-11-5-6-12-7-8(9)10/h2-7H2,1H3,(H,9,10)",
        "InChIKey": null,
        "Canonical SMILES": "O=C(O)COCCOCCCC",
        "Molecular Formula": "C<sub>8</sub>H<sub>16</sub>O<sub>4</sub>",
        "Molecular Mass": "176.21",
        "Boiling Point": "141 °C @ Press: 5 Torr",
        "Density": "1.04635 g/cm³ @ Temp: 20 °C"
    }
}