{
    "cas_no": "41424-11-7",
    "key_name": "4′-(Hexyloxy)[1,1′-biphenyl]-4-carbonitrile",
    "cn_name": "4\"-己氧基-[1,1\"-联苯基]-4-甲腈;",
    "alternate_name": "[1,1′-Biphenyl]-4-carbonitrile, 4′-(hexyloxy)-;4′-(Hexyloxy)[1,1′-biphenyl]-4-carbonitrile;4-Hexyloxy-4′-cyanobiphenyl;<em>p</em>-Hexyloxy-<em>p</em>′-cyanobiphenyl;CHB;4′-Hexyloxy-4-cyanobiphenyl;4-Cyano-4′-(hexyloxy)biphenyl;4-Cyano-4′-<em>n</em>-hexyloxybiphenyl;Liquid crystal 549;4-(4-Hexyloxyphenyl)benzonitrile;6OCB;4-(<em>n</em>-Hexyloxy)-4′-cyanobiphenyl;M 18;4′-Hexyloxybiphenylyl-4-carbonitrile;4′-Hexyloxy-1,1′-biphenyl-4-carbonitrile;4′-(Hexyloxy)-4-biphenyl-carbonitrile",
    "duplicated_cas_no": "",
    "SMILES": "O(CCCCCC)C1=CC=C(C=C1)C2=CC=C(C#N)C=C2",
    "meta_data": {
        "InChI": "InChI=1S/C19H21NO/c1-2-3-4-5-14-21-19-12-10-18(11-13-19)17-8-6-16(15-20)7-9-17/h6-13H,2-5,14H2,1H3",
        "InChIKey": null,
        "Canonical SMILES": "N#CC=1C=CC(=CC1)C2=CC=C(OCCCCCC)C=C2",
        "Molecular Formula": "C<sub>19</sub>H<sub>21</sub>NO",
        "Molecular Mass": "279.38",
        "Melting Point": "57 °C"
    }
}