{
    "cas_no": "12107-76-5",
    "key_name": "1-Butanamine, <em>N</em>-butyl-, tetrafluoroborate(1-) (1:1)",
    "cn_name": null,
    "alternate_name": "1-Butanamine, <em>N</em>-butyl-, tetrafluoroborate(1-) (1:1);Borate(1-), tetrafluoro-, hydrogen, compd. with <em>N</em>-butyl-1-butanamine (1:1);1-Butanamine, <em>N</em>-butyl-, tetrafluoroborate(1-);Dibutylamine, tetrafluoroborate;Dibutylamine, fluoborate;Dibutylamine tetrafluoroborate(1-);Dibutylammonium tetrafluoroborate(1-);NSC 221675",
    "duplicated_cas_no": "676-13-1",
    "SMILES": "[B+3]([F-])([F-])([F-])[F-].[H+].N(CCCC)CCCC",
    "meta_data": {
        "InChI": "InChI=1S/C8H19N.BF4/c1-3-5-7-9-8-6-4-2;2-1(3,4)5/h9H,3-8H2,1-2H3;/q;-1/p+1",
        "InChIKey": null,
        "Canonical SMILES": "[H+].[F-][B+3]([F-])([F-])[F-].N(CCCC)CCCC",
        "Molecular Formula": "C<sub>8</sub>H<sub>19</sub>N.BF<sub>4</sub>.H",
        "Molecular Mass": "",
        "Melting Point": "212.8 °C"
    }
}