{
    "cas_no": "113231-05-3",
    "key_name": "<em>N</em>-(5-Amino-1-carboxypentyl)iminodiacetic acid",
    "cn_name": null,
    "alternate_name": "<span class=\"text-smallcaps\">L</span>-Lysine, <em>N</em><sup>2</sup>,<em>N</em><sup>2</sup>-bis(carboxymethyl)-;<em>N</em><sup>2</sup>,<em>N</em><sup>2</sup>-Bis(carboxymethyl)-<span class=\"text-smallcaps\">L</span>-lysine;Lysine-<em>N</em>,<em>N</em>-diacetic acid;<em>N</em>-(5-Amino-1-carboxypentyl)iminodiacetic acid;53: PN: WO2004025259 PAGE: 47 claimed protein;4: PN: WO2004072260 PAGE: 12 claimed protein;1: PN: US20050123932 PAGE: 1 claimed protein;AB-NTA;13: PN: US20080160089 PAGE: 30 claimed protein;(<em>S</em>)-2,2′-((5-Amino-1-carboxypentyl)azanediyl)diacetic acid",
    "duplicated_cas_no": "193416-02-3;1262616-35-2;1308825-43-5",
    "SMILES": "N([C@@H](CCCCN)C(O)=O)(CC(O)=O)CC(O)=O",
    "meta_data": {
        "InChI": "InChI=1S/C10H18N2O6/c11-4-2-1-3-7(10(17)18)12(5-8(13)14)6-9(15)16/h7H,1-6,11H2,(H,13,14)(H,15,16)(H,17,18)/t7-/m0/s1",
        "InChIKey": null,
        "Canonical SMILES": "O=C(O)CN(CC(=O)O)C(C(=O)O)CCCCN",
        "Molecular Formula": "C<sub>10</sub>H<sub>18</sub>N<sub>2</sub>O<sub>6</sub>",
        "Molecular Mass": "262.26",
        "Melting Point": "202-204 °C (decomp)"
    }
}