{
    "cas_no": "32723-67-4",
    "key_name": "4-Methoxy-3-methylbenzaldehyde",
    "cn_name": "4-甲氧基-3-甲基苯甲醛;",
    "alternate_name": "Benzaldehyde, 4-methoxy-3-methyl-;<em>p</em>-Anisaldehyde, 3-methyl-;4-Methoxy-3-methylbenzaldehyde;3-Methyl-4-methoxybenzaldehyde;4-Methoxy-3-tolualdehyde;3-Methyl-<em>p</em>-anisaldehyde;(4-Methoxy-3-methylphenyl)formaldehyde;3-Methyl-4-anisaldehyde",
    "duplicated_cas_no": "",
    "SMILES": "C(=O)C1=CC(C)=C(OC)C=C1",
    "meta_data": {
        "InChI": "InChI=1S/C9H10O2/c1-7-5-8(6-10)3-4-9(7)11-2/h3-6H,1-2H3",
        "InChIKey": null,
        "Canonical SMILES": "O=CC1=CC=C(OC)C(=C1)C",
        "Molecular Formula": "C<sub>9</sub>H<sub>10</sub>O<sub>2</sub>",
        "Molecular Mass": "150.17",
        "Boiling Point": "250 °C",
        "Density": "1.082 g/cm³ @ Temp: 16 °C"
    }
}