{
    "cas_no": "588-16-9",
    "key_name": "<em>N</em>-(3-Methoxyphenyl)acetamide",
    "cn_name": "N-(3-Methoxyphenyl)acetamide;",
    "alternate_name": "Acetamide, <em>N</em>-(3-methoxyphenyl)-;<em>m</em>-Acetanisidide;<em>N</em>-(3-Methoxyphenyl)acetamide;<em>N</em>-Acetyl-<em>m</em>-anisidine;Aceto-<em>m</em>-anisidide;3-Methoxyacetanilide;3′-Methoxyacetanilide;<em>m</em>-Methoxyacetanilide;3-Acetamidoanisole;NSC 4005",
    "duplicated_cas_no": "",
    "SMILES": "N(C(C)=O)C1=CC(OC)=CC=C1",
    "meta_data": {
        "InChI": "InChI=1S/C9H11NO2/c1-7(11)10-8-4-3-5-9(6-8)12-2/h3-6H,1-2H3,(H,10,11)",
        "InChIKey": null,
        "Canonical SMILES": "O=C(NC=1C=CC=C(OC)C1)C",
        "Molecular Formula": "C<sub>9</sub>H<sub>11</sub>NO<sub>2</sub>",
        "Molecular Mass": "165.19",
        "Melting Point": "79-80 °C"
    }
}