{
    "cas_no": "6047-01-4",
    "key_name": "1,5-Methano-8<em>H</em>-pyrido[1,2-<em>a</em>][1,5]diazocin-8-one, 1,2,3,4,5,6-hexahydro-, hydrochloride (1:1), (1<em>R</em>,5<em>S</em>)-",
    "cn_name": null,
    "alternate_name": "1,5-Methano-8<em>H</em>-pyrido[1,2-<em>a</em>][1,5]diazocin-8-one, 1,2,3,4,5,6-hexahydro-, hydrochloride (1:1), (1<em>R</em>,5<em>S</em>)-;Cytisine, monohydrochloride;1,5-Methano-8<em>H</em>-pyrido[1,2-<em>a</em>][1,5]diazocin-8-one, 1,2,3,4,5,6-hexahydro-, monohydrochloride, (1<em>R</em>)-;1,5-Methano-8<em>H</em>-pyrido[1,2-<em>a</em>][1,5]diazocin-8-one, 1,2,3,4,5,6-hexahydro-, monohydrochloride, (1<em>R</em>,5<em>S</em>)-;Cytisine hydrochloride",
    "duplicated_cas_no": "",
    "SMILES": "O=C1N2C([C@@]3(C[C@](C2)(CNC3)[H])[H])=CC=C1.Cl",
    "meta_data": {
        "InChI": "InChI=1S/C11H14N2O.ClH/c14-11-3-1-2-10-9-4-8(5-12-6-9)7-13(10)11;/h1-3,8-9,12H,4-7H2;1H/t8-,9+;/m0./s1",
        "InChIKey": null,
        "Canonical SMILES": "Cl.O=C1C=CC=C2N1CC3CNCC2C3",
        "Molecular Formula": "C<sub>11</sub>H<sub>14</sub>N<sub>2</sub>O.ClH",
        "Molecular Mass": "",
        "Melting Point": "260 °C"
    }
}