{
    "cas_no": "12018-09-6",
    "key_name": "Chromium silicide (CrSi<sub>2</sub>)",
    "cn_name": null,
    "alternate_name": "Chromium silicide (CrSi<sub>2</sub>);Chromium disilicide;Chromium disilicide (CrSi<sub>2</sub>)",
    "duplicated_cas_no": "1351377-69-9",
    "SMILES": "",
    "meta_data": {
        "InChI": "",
        "InChIKey": null,
        "Canonical SMILES": "",
        "Molecular Formula": "CrSi<sub>2</sub>",
        "Molecular Mass": "",
        "Melting Point": "1470 °C",
        "Density": "3.99 g/cm³"
    }
}