{
    "cas_no": "15486-19-8",
    "key_name": "3-[4-(Acetyloxy)phenyl]-2-propenoic acid",
    "cn_name": "反式-4-乙酰氧基肉桂酸;4-乙酰氧基肉桂酸;反式-4-乙酰氧基肉桂酸;4-乙酸基肉桂酸;4-乙酰氧基 肉桂酸, 98+%;",
    "alternate_name": "2-Propenoic acid, 3-[4-(acetyloxy)phenyl]-;Cinnamic acid, <em>p</em>-hydroxy-, acetate;3-[4-(Acetyloxy)phenyl]-2-propenoic acid;<em>p</em>-Acetoxycinnamic acid;4-Acetoxycinnamic acid;3-(4-Acetoxyphenyl)-2-propenoic acid;NSC 40967;3-(4-Acetoxyphenyl)acrylic acid;4-Acetyloxycinnamic acid",
    "duplicated_cas_no": "",
    "SMILES": "O(C(C)=O)C1=CC=C(C=CC(O)=O)C=C1",
    "meta_data": {
        "InChI": "InChI=1S/C11H10O4/c1-8(12)15-10-5-2-9(3-6-10)4-7-11(13)14/h2-7H,1H3,(H,13,14)",
        "InChIKey": null,
        "Canonical SMILES": "O=C(O)C=CC1=CC=C(OC(=O)C)C=C1",
        "Molecular Formula": "C<sub>11</sub>H<sub>10</sub>O<sub>4</sub>",
        "Molecular Mass": "206.19",
        "Melting Point": "205.5-206 °C"
    }
}