{
    "cas_no": "37841-91-1",
    "key_name": "(+)-Isovelleral",
    "cn_name": null,
    "alternate_name": "Cycloprop[<em>e</em>]indene-1a,2(1<em>H</em>)-dicarboxaldehyde, 3a,4,5,6,6a,6b-hexahydro-5,5,6b-trimethyl-, (1a<em>S</em>,3a<em>S</em>,6a<em>S</em>,6b<em>R</em>)-;Cycloprop[<em>e</em>]indene-1a,2(1<em>H</em>)-dicarboxaldehyde, 3a,4,5,6,6a,6b-hexahydro-5,5,6b-trimethyl-, [1a<em>S</em>-(1aα,3aβ,6aβ,6bα)]-;(1a<em>S</em>,3a<em>S</em>,6a<em>S</em>,6b<em>R</em>)-3a,4,5,6,6a,6b-Hexahydro-5,5,6b-trimethylcycloprop[<em>e</em>]indene-1a,2(1<em>H</em>)-dicarboxaldehyde;Isovelleral;(+)-Isovelleral;NSC 299922",
    "duplicated_cas_no": "11055-15-5",
    "SMILES": "C(=O)[C@]12[C@](C)(C1)[C@@]3([C@](C=C2C=O)(CC(C)(C)C3)[H])[H]",
    "meta_data": {
        "InChI": "InChI=1S/C15H20O2/c1-13(2)5-10-4-11(7-16)15(9-17)8-14(15,3)12(10)6-13/h4,7,9-10,12H,5-6,8H2,1-3H3/t10-,12+,14-,15-/m1/s1",
        "InChIKey": null,
        "Canonical SMILES": "O=CC1=CC2CC(C)(C)CC2C3(C)CC13C=O",
        "Molecular Formula": "C<sub>15</sub>H<sub>20</sub>O<sub>2</sub>",
        "Molecular Mass": "232.32",
        "Melting Point": "104.5-105 °C"
    }
}