{
    "cas_no": "5986-55-0",
    "key_name": "Patchouli alcohol",
    "cn_name": "百秋李醇;",
    "alternate_name": "1,6-Methanonaphthalen-1(2<em>H</em>)-ol, octahydro-4,8a,9,9-tetramethyl-, (1<em>R</em>,4<em>S</em>,4a<em>S</em>,6<em>R</em>,8a<em>S</em>)-;1,6-Methanonaphthalen-1β(2<em>H</em>)-ol, 3,4,4aβ,5,6β,7,8,8a-octahydro-4α,8aβ,9,9-tetramethyl-;Patchouli alcohol;1,6-Methanonaphthalen-1(2<em>H</em>)-ol, octahydro-4,8a,9,9-tetramethyl-, [1<em>R</em>-(1α,4β,4aα,6β,8aα)]-;(1<em>R</em>,4<em>S</em>,4a<em>S</em>,6<em>R</em>,8a<em>S</em>)-Octahydro-4,8a,9,9-tetramethyl-1,6-methanonaphthalen-1(2<em>H</em>)-ol;Patchoulol;(-)-Patchoulol;(-)-Patchouli alcohol;(1R,4S,4AS,6R,8aS)-4,8a,9,9-tetramethyloctahydro-1,6-methanonaphthalen-1(2<em>H</em>)-ol",
    "duplicated_cas_no": "1366-08-1",
    "SMILES": "C[C@@]12[C@]3(O)C(C)(C)[C@@](C[C@]1([C@@H](C)CC3)[H])(CC2)[H]",
    "meta_data": {
        "InChI": "InChI=1S/C15H26O/c1-10-5-8-15(16)13(2,3)11-6-7-14(15,4)12(10)9-11/h10-12,16H,5-9H2,1-4H3/t10-,11+,12-,14-,15+/m0/s1",
        "InChIKey": null,
        "Canonical SMILES": "OC12CCC(C)C3CC(CCC31C)C2(C)C",
        "Molecular Formula": "C<sub>15</sub>H<sub>26</sub>O",
        "Molecular Mass": "222.37",
        "Melting Point": "56 °C"
    }
}