{
    "cas_no": "101-85-9",
    "key_name": "α-Amylcinnamyl alcohol",
    "cn_name": null,
    "alternate_name": "1-Heptanol, 2-(phenylmethylene)-;1-Heptanol, 2-benzylidene-;2-(Phenylmethylene)-1-heptanol;α-Amylcinnamic alcohol;α-Amylcinnamyl alcohol;2-Amyl-3-phenyl-2-propen-1-ol;2-Benzylidene-1-heptanol;Buxinol;2-Pentyl-3-phenyl-2-propen-1-ol;Amyl cinnamyl alcohol",
    "duplicated_cas_no": "1082692-84-9",
    "SMILES": "C(=C(CCCCC)CO)C1=CC=CC=C1",
    "meta_data": {
        "InChI": "InChI=1S/C14H20O/c1-2-3-5-10-14(12-15)11-13-8-6-4-7-9-13/h4,6-9,11,15H,2-3,5,10,12H2,1H3",
        "InChIKey": null,
        "Canonical SMILES": "OCC(=CC=1C=CC=CC1)CCCCC",
        "Molecular Formula": "C<sub>14</sub>H<sub>20</sub>O",
        "Molecular Mass": "204.31",
        "Boiling Point": "162 °C @ Press: 12 Torr",
        "Density": "0.9549 g/cm³ @ Temp: 19 °C"
    }
}