{
    "cas_no": "43064-96-6",
    "key_name": "Tetrabutylammonium cyanoborohydride",
    "cn_name": "四丁基氰基硼烷化铵;",
    "alternate_name": "1-Butanaminium, <em>N</em>,<em>N</em>,<em>N</em>-tributyl-, (<em>T</em>-4)-(cyano-κ<em>C</em>)trihydroborate(1-) (1:1);1-Butanaminium, <em>N</em>,<em>N</em>,<em>N</em>-tributyl-, (<em>T</em>-4)-(cyano-<em>C</em>)trihydroborate(1-);1-Butanaminium, <em>N</em>,<em>N</em>,<em>N</em>-tributyl-, (<em>T</em>-4)-(cyano-κ<em>C</em>)trihydroborate(1-);Borate(1-), (cyano-<em>C</em>)trihydro-, (<em>T</em>-4)-, <em>N</em>,<em>N</em>,<em>N</em>-tributyl-1-butanaminium;Borate(1-), (cyano-κ<em>C</em>)trihydro-, (<em>T</em>-4)-, <em>N</em>,<em>N</em>,<em>N</em>-tributyl-1-butanaminium;Tetrabutylammonium cyanoborohydride;Tetrabutylammonium cyanotrihydroborate",
    "duplicated_cas_no": "",
    "SMILES": "[B+3]([C-]#N)([H-])([H-])[H-].[N+](CCCC)(CCCC)(CCCC)CCCC",
    "meta_data": {
        "InChI": "InChI=1S/C16H36N.CH3BN/c1-5-9-13-17(14-10-6-2,15-11-7-3)16-12-8-4;2-1-3/h5-16H2,1-4H3;2H3/q+1;-1",
        "InChIKey": null,
        "Canonical SMILES": "[H-][B+3]([H-])([H-])[C-]#N.CCCC[N+](CCCC)(CCCC)CCCC",
        "Molecular Formula": "C<sub>16</sub>H<sub>36</sub>N.CH<sub>3</sub>BN",
        "Molecular Mass": "",
        "Melting Point": "144-145 °C"
    }
}