{
    "cas_no": "606-31-5",
    "key_name": "2,6-Dinitrobenzaldehyde",
    "cn_name": "2,6-二硝基苯甲醛;",
    "alternate_name": "Benzaldehyde, 2,6-dinitro-;2,6-Dinitrobenzaldehyde",
    "duplicated_cas_no": "",
    "SMILES": "C(=O)C1=C(N(=O)=O)C=CC=C1N(=O)=O",
    "meta_data": {
        "InChI": "InChI=1S/C7H4N2O5/c10-4-5-6(8(11)12)2-1-3-7(5)9(13)14/h1-4H",
        "InChIKey": null,
        "Canonical SMILES": "O=CC=1C(=CC=CC1N(=O)=O)N(=O)=O",
        "Molecular Formula": "C<sub>7</sub>H<sub>4</sub>N<sub>2</sub>O<sub>5</sub>",
        "Molecular Mass": "196.12",
        "Melting Point": "123 °C"
    }
}