{
    "cas_no": "96-76-4",
    "key_name": "2,4-Di-<em>tert</em>-butylphenol",
    "cn_name": "2,4-二叔丁基苯酚;",
    "alternate_name": "Phenol, 2,4-bis(1,1-dimethylethyl)-;Phenol, 2,4-di-<em>tert</em>-butyl-;2,4-Bis(1,1-dimethylethyl)phenol;2,4-Di-<em>tert</em>-butylphenol;2,4-Di-<em>tert</em>-butylhydroxybenzene;2,4-Bis(<em>tert</em>-butyl)phenol;NSC 174502;Agidol 10;2,4-Ditert-butylphenol",
    "duplicated_cas_no": "50356-26-8;652152-53-9",
    "SMILES": "C(C)(C)(C)C1=CC(C(C)(C)C)=CC=C1O",
    "meta_data": {
        "InChI": "InChI=1S/C14H22O/c1-13(2,3)10-7-8-12(15)11(9-10)14(4,5)6/h7-9,15H,1-6H3",
        "InChIKey": null,
        "Canonical SMILES": "OC1=CC=C(C=C1C(C)(C)C)C(C)(C)C",
        "Molecular Formula": "C<sub>14</sub>H<sub>22</sub>O",
        "Molecular Mass": "206.32",
        "Boiling Point": "263.5 °C",
        "Melting Point": "56.5 °C"
    }
}