{
    "cas_no": "5255-17-4",
    "key_name": "Cholenic acid",
    "cn_name": null,
    "alternate_name": "Chol-5-en-24-oic acid, 3-hydroxy-, (3β)-;Chol-5-en-24-oic acid, 3β-hydroxy-;Chol-5-enic acid, 3β-hydroxy-;(3β)-3-Hydroxychol-5-en-24-oic acid;3β-Hydroxychol-5-enoic acid;3β-Hydroxychol-5-en-24-ic acid;Δ<sup>5</sup>-Cholenic acid;3β-Hydroxychol-5-en-24-oic acid;3β-Hydroxy-5-cholenic acid;3β-Hydroxycholenoic acid;Cholenic acid;Δ<sup>5</sup>-3β-Hydroxycholenic acid;3β-Hydroxy-Δ<sup>5</sup>-cholenic acid;ZINC 04831336",
    "duplicated_cas_no": "",
    "SMILES": "C[C@@]12[C@]([C@]3([C@@]([C@]4(C)C(=CC3)C[C@@H](O)CC4)(CC1)[H])[H])(CC[C@@]2([C@@H](CCC(O)=O)C)[H])[H]",
    "meta_data": {
        "InChI": "InChI=1S/C24H38O3/c1-15(4-9-22(26)27)19-7-8-20-18-6-5-16-14-17(25)10-12-23(16,2)21(18)11-13-24(19,20)3/h5,15,17-21,25H,4,6-14H2,1-3H3,(H,26,27)/t15-,17+,18+,19-,20+,21+,23+,24-/m1/s1",
        "InChIKey": null,
        "Canonical SMILES": "O=C(O)CCC(C)C1CCC2C3CC=C4CC(O)CCC4(C)C3CCC12C",
        "Molecular Formula": "C<sub>24</sub>H<sub>38</sub>O<sub>3</sub>",
        "Molecular Mass": "374.56",
        "Melting Point": "169-170 °C"
    }
}