{
    "cas_no": "4455-15-6",
    "key_name": "Acetic acid, 2-(methylsulfonyl)-, ethyl ester",
    "cn_name": "甲烷磺酰基乙酸乙酯;",
    "alternate_name": "Acetic acid, 2-(methylsulfonyl)-, ethyl ester;Acetic acid, (methylsulfonyl)-, ethyl ester;Ethyl (methylsulfonyl)acetate;(Methylsulfonyl)acetic acid ethyl ester;Ethyl 2-methylsulfonylacetate;Ethyl methanesulfonylacetate;NSC 227886;Ethyl 2-(methanesulfonyl)acetate",
    "duplicated_cas_no": "",
    "SMILES": "C(CS(C)(=O)=O)(OCC)=O",
    "meta_data": {
        "InChI": "InChI=1S/C5H10O4S/c1-3-9-5(6)4-10(2,7)8/h3-4H2,1-2H3",
        "InChIKey": null,
        "Canonical SMILES": "O=C(OCC)CS(=O)(=O)C",
        "Molecular Formula": "C<sub>5</sub>H<sub>10</sub>O<sub>4</sub>S",
        "Molecular Mass": "166.20",
        "Boiling Point": "122 °C @ Press: 0.8 Torr"
    }
}