{
    "cas_no": "8000-41-7",
    "key_name": "Terpineol",
    "cn_name": null,
    "alternate_name": "Terpineol;Terpineol 318;Alpha Jax;Terpineol C;Terpineol LW;RCI-YS 0130",
    "duplicated_cas_no": "8031-32-1;11103-96-1;37195-01-0",
    "SMILES": "",
    "meta_data": {
        "InChI": "",
        "InChIKey": null,
        "Canonical SMILES": "",
        "Molecular Formula": "C<sub>10</sub>H<sub>18</sub>O",
        "Molecular Mass": "",
        "Boiling Point": "217-218 °C @ Press: 760 Torr",
        "Melting Point": "35 °C",
        "Density": "0.9698 g/cm³ @ Temp: 15 °C"
    }
}