{
    "uri": "substance/pt/8000417",
    "rn": "8000-41-7",
    "name": "Terpineol",
    "images": [],
    "inchi": "",
    "inchiKey": "",
    "smile": "",
    "canonicalSmile": "",
    "molecularFormula": "C<sub>10</sub>H<sub>18</sub>O",
    "molecularMass": "",
    "experimentalProperties": [
        {
            "name": "Boiling Point",
            "property": "217-218 °C @ Press: 760 Torr",
            "sourceNumber": 1
        },
        {
            "name": "Melting Point",
            "property": "35 °C",
            "sourceNumber": 2
        },
        {
            "name": "Density",
            "property": "0.9698 g/cm³ @ Temp: 15 °C",
            "sourceNumber": 1
        }
    ],
    "propertyCitations": [
        {
            "docUri": "document/pt/document/23580557",
            "sourceNumber": 1,
            "source": "Gildemeister, E.; Wallach-Fest., (1911), 414-38, CAplus"
        },
        {
            "docUri": "document/pt/document/23498681",
            "sourceNumber": 2,
            "source": "Barbier, Ph.; Compt. rend., (1907), 145, 1425-7, CAplus"
        }
    ],
    "synonyms": [
        "Terpineol",
        "Terpineol 318",
        "Alpha Jax",
        "Terpineol C",
        "Terpineol LW",
        "RCI-YS 0130"
    ],
    "replacedRns": [
        "8031-32-1",
        "11103-96-1",
        "37195-01-0"
    ],
    "hasMolfile": false,
    "source": "https://commonchemistry.cas.org/detail?cas_rn=8000-41-7"
}