{
    "cas_no": "144-82-1",
    "key_name": "Sulfamethizole",
    "cn_name": "磺胺甲二唑;",
    "alternate_name": "Benzenesulfonamide, 4-amino-<em>N</em>-(5-methyl-1,3,4-thiadiazol-2-yl)-;Sulfanilamide, <em>N</em><sup>1</sup>-(5-methyl-1,3,4-thiadiazol-2-yl)-;4-Amino-<em>N</em>-(5-methyl-1,3,4-thiadiazol-2-yl)benzenesulfonamide;Ayerlucil;Lucosil;5-Methyl-2-sulfanilamido-1,3,4-thiadiazole;<em>N</em><sup>1</sup>-(5-Methyl-1,3,4-thiadiazol-2-yl)sulfanilamide;Microsul;Rufol;Sulfamethizol;Sulfamethizole;Sulfamethylthiadiazole;2-Sulfanilamido-5-methyl-1,3,4-thiadiazole;Sulfstat;Sulfurine;Tetracid;Thidicur;Thiosulfil;Ultrasul;Urodiaton;Urolucosil;Urocydal;Sulphamethizole;Sulfamethiazole;2-Methyl-5-sulfanilamido-1,3,4-thiadiazole;Urosulfin;VK 53;Renasul;Sulfapyelon;Methazol;Famet;Salimol;Thiosulfil Forte;<em>N</em>-(5-Methyl-1,3,4-thiadiazol-2-yl)-4-aminobenzenesulfonamide;MeSH ID: D013419",
    "duplicated_cas_no": "",
    "SMILES": "S(NC=1SC(C)=NN1)(=O)(=O)C2=CC=C(N)C=C2",
    "meta_data": {
        "InChI": "InChI=1S/C9H10N4O2S2/c1-6-11-12-9(16-6)13-17(14,15)8-4-2-7(10)3-5-8/h2-5H,10H2,1H3,(H,12,13)",
        "InChIKey": null,
        "Canonical SMILES": "O=S(=O)(NC1=NN=C(S1)C)C2=CC=C(N)C=C2",
        "Molecular Formula": "C<sub>9</sub>H<sub>10</sub>N<sub>4</sub>O<sub>2</sub>S<sub>2</sub>",
        "Molecular Mass": "270.33",
        "Melting Point": "208 °C"
    }
}