{
    "cas_no": "94-60-0",
    "key_name": "Dimethyl 1,4-cyclohexanedicarboxylate",
    "cn_name": "1,4-环己烷二羧酸二甲酯;",
    "alternate_name": "1,4-Cyclohexanedicarboxylic acid, 1,4-dimethyl ester;1,4-Cyclohexanedicarboxylic acid, dimethyl ester;Dimethyl hexahydroterephthalate;Dimethyl 1,4-cyclohexanedicarboxylate;1,4-Cyclohexanedicarboxylic dimethyl ester;1,4-Dimethyl cyclohexane-1,4-dicarboxylate",
    "duplicated_cas_no": "",
    "SMILES": "C(OC)(=O)C1CCC(C(OC)=O)CC1",
    "meta_data": {
        "InChI": "InChI=1S/C10H16O4/c1-13-9(11)7-3-5-8(6-4-7)10(12)14-2/h7-8H,3-6H2,1-2H3",
        "InChIKey": null,
        "Canonical SMILES": "O=C(OC)C1CCC(C(=O)OC)CC1",
        "Molecular Formula": "C<sub>10</sub>H<sub>16</sub>O<sub>4</sub>",
        "Molecular Mass": "200.23",
        "Boiling Point": "262-263 °C @ Press: 761 Torr",
        "Melting Point": "71 °C",
        "Density": "1.102 g/cm³"
    }
}