{
    "cas_no": "701-45-1",
    "key_name": "2-Bromo-1-fluoro-4-nitrobenzene",
    "cn_name": "3-溴-4-氟硝基苯;2-氟-5-硝基溴苯;",
    "alternate_name": "Benzene, 2-bromo-1-fluoro-4-nitro-;2-Bromo-1-fluoro-4-nitrobenzene;3-Bromo-4-fluoronitrobenzene;3-Bromo-4-fluoro-1-nitrobenzene;1-Bromo-2-fluoro-5-nitrobenzene;4-Fluoro-3-bromonitrobenzene",
    "duplicated_cas_no": "",
    "SMILES": "N(=O)(=O)C1=CC(Br)=C(F)C=C1",
    "meta_data": {
        "InChI": "InChI=1S/C6H3BrFNO2/c7-5-3-4(9(10)11)1-2-6(5)8/h1-3H",
        "InChIKey": null,
        "Canonical SMILES": "O=N(=O)C1=CC=C(F)C(Br)=C1",
        "Molecular Formula": "C<sub>6</sub>H<sub>3</sub>BrFNO<sub>2</sub>",
        "Molecular Mass": "220.00",
        "Melting Point": "60-62 °C"
    }
}