{
    "cas_no": "526-99-8",
    "key_name": "Mucic acid",
    "cn_name": "粘酸;",
    "alternate_name": "Galactaric acid;Mucic acid;Galactosaccharic acid;Saccharolactic acid;NSC 8127;<em>galacto</em>-Hexaric acid",
    "duplicated_cas_no": "576-41-0;685-74-5;64626-02-4;65185-53-7;139369-63-4;709038-76-6;850991-82-1;885107-42-6;897948-20-8;1024869-11-1;1111941-92-4;1202794-92-0;1213827-87-2;1257509-27-5;1279037-17-0;1384814-85-0;1423564-05-9;1449236-04-7;1567142-87-3;1623451-55-7;1631134-70-7;1704726-48-6;1802572-56-0;1830306-42-7;1955533-53-5;2055572-27-3;2368992-98-5",
    "SMILES": "[C@H]([C@H]([C@@H](C(O)=O)O)O)([C@H](C(O)=O)O)O",
    "meta_data": {
        "InChI": "InChI=1/C6H10O8/c7-1(3(9)5(11)12)2(8)4(10)6(13)14/h1-4,7-10H,(H,11,12)(H,13,14)/t1-,2+,3+,4-",
        "InChIKey": null,
        "Canonical SMILES": "O=C(O)C(O)C(O)C(O)C(O)C(=O)O",
        "Molecular Formula": "C<sub>6</sub>H<sub>10</sub>O<sub>8</sub>",
        "Molecular Mass": "210.14",
        "Melting Point": "200-210 °C"
    }
}