{
    "cas_no": "652-78-8",
    "key_name": "Gossypin",
    "cn_name": null,
    "alternate_name": "4<em>H</em>-1-Benzopyran-4-one, 2-(3,4-dihydroxyphenyl)-8-(β-<span class=\"text-smallcaps\">D</span>-glucopyranosyloxy)-3,5,7-trihydroxy-;Gossypin;2-(3,4-Dihydroxyphenyl)-8-(β-<span class=\"text-smallcaps\">D</span>-glucopyranosyloxy)-3,5,7-trihydroxy-4<em>H</em>-1-benzopyran-4-one;Gossypetin 8-glucoside",
    "duplicated_cas_no": "38681-84-4;1343477-25-7",
    "SMILES": "O(C1=C2C(C(=O)C(O)=C(O2)C3=CC(O)=C(O)C=C3)=C(O)C=C1O)[C@@H]4O[C@H](CO)[C@@H](O)[C@H](O)[C@H]4O",
    "meta_data": {
        "InChI": "InChI=1S/C21H20O13/c22-5-11-13(27)15(29)17(31)21(32-11)34-19-10(26)4-9(25)12-14(28)16(30)18(33-20(12)19)6-1-2-7(23)8(24)3-6/h1-4,11,13,15,17,21-27,29-31H,5H2/t11-,13-,15+,17-,21+/m1/s1",
        "InChIKey": null,
        "Canonical SMILES": "O=C1C(O)=C(OC=2C(OC3OC(CO)C(O)C(O)C3O)=C(O)C=C(O)C12)C=4C=CC(O)=C(O)C4",
        "Molecular Formula": "C<sub>21</sub>H<sub>20</sub>O<sub>13</sub>",
        "Molecular Mass": "480.38",
        "Melting Point": "230 °C (decomp)"
    }
}