{
    "cas_no": "2636-26-2",
    "key_name": "Cyanophos",
    "cn_name": null,
    "alternate_name": "Phosphorothioic acid, <em>O</em>-(4-cyanophenyl) <em>O</em>,<em>O</em>-dimethyl ester;Phosphorothioic acid, <em>O</em>,<em>O</em>-dimethyl ester, <em>O</em>-ester with <em>p</em>-hydroxybenzonitrile;Phosphorothioic acid, <em>O</em>-<em>p</em>-cyanophenyl <em>O</em>,<em>O</em>-dimethyl ester;S 4084;BAY 34727;Cyanox;<em>O</em>,<em>O</em>-Dimethyl <em>O</em>-(4-cyanophenyl) phosphorothioate;<em>O</em>,<em>O</em>-Dimethyl <em>O</em>-(<em>p</em>-cyanophenyl) phosphorothioate;Sumitomo S 4084;Cyanophos;Ciafos;CYAP;Cyanofos;Falcolan",
    "duplicated_cas_no": "12692-90-9;54578-39-1",
    "SMILES": "P(OC1=CC=C(C#N)C=C1)(OC)(OC)=S",
    "meta_data": {
        "InChI": "InChI=1S/C9H10NO3PS/c1-11-14(15,12-2)13-9-5-3-8(7-10)4-6-9/h3-6H,1-2H3",
        "InChIKey": null,
        "Canonical SMILES": "N#CC1=CC=C(OP(=S)(OC)OC)C=C1",
        "Molecular Formula": "C<sub>9</sub>H<sub>10</sub>NO<sub>3</sub>PS",
        "Molecular Mass": "243.22",
        "Boiling Point": "119-120 °C",
        "Melting Point": "14-15 °C",
        "Density": "1.255-1.265 g/cm³ @ Temp: 25 °C"
    }
}