{
    "cas_no": "6602-28-4",
    "key_name": "3-Hydroxypyridine <em>N</em>-oxide",
    "cn_name": "3-羟基吡啶-N-氧化物;",
    "alternate_name": "3-Pyridinol, 1-oxide;3-Hydroxypyridine 1-oxide;3-Hydroxypyridine <em>N</em>-oxide;3-Pyridinol <em>N</em>-oxide;3-Hydroxypyridine oxide;NSC 21399;1-Oxopyridin-3-ol;1-Oxidopyridin-1-ium-3-ol;3-Hydroxypyridin-1-ium-1-olate",
    "duplicated_cas_no": "",
    "SMILES": "OC1=CN(=O)=CC=C1",
    "meta_data": {
        "InChI": "InChI=1S/C5H5NO2/c7-5-2-1-3-6(8)4-5/h1-4,7H",
        "InChIKey": null,
        "Canonical SMILES": "O=N=1C=CC=C(O)C1",
        "Molecular Formula": "C<sub>5</sub>H<sub>5</sub>NO<sub>2</sub>",
        "Molecular Mass": "111.10",
        "Melting Point": "190-192 °C"
    }
}