{
    "cas_no": "72-17-3",
    "key_name": "Sodium lactate",
    "cn_name": "乳酸钠;",
    "alternate_name": "Propanoic acid, 2-hydroxy-, sodium salt (1:1);Sodium lactate;Lactic acid, monosodium salt;Propanoic acid, 2-hydroxy-, monosodium salt;Lacolin;Lactic acid sodium salt;Per-glycerin;Monosodium lactate;Sodium α-hydroxypropionate;Sodium <span class=\"text-smallcaps\">DL</span>-lactate;Purasal S/SP 60;NSC 31718;E 325;Wilclear;Purasal S;Purasal-Purac Spray 80;Purasal Powder S 98JS;Purasal S/HQ 60;Sodium 2-hydroxypropanoate;S 98JS;Sodium 2-hydroxypropionate;60E (salt);60E;MeSH ID: D019354;Propanoic acid, 2-hydroxy-, sodium salt, ion(1-) (1:1)",
    "duplicated_cas_no": "312-85-6;2941132-15-4",
    "SMILES": "C(C(O)=O)(C)O.[Na]",
    "meta_data": {
        "InChI": "InChI=1S/C3H6O3.Na/c1-2(4)3(5)6;/h2,4H,1H3,(H,5,6);",
        "InChIKey": null,
        "Canonical SMILES": "[Na].O=C(O)C(O)C",
        "Molecular Formula": "C<sub>3</sub>H<sub>6</sub>O<sub>3</sub>.Na",
        "Molecular Mass": "",
        "Melting Point": "&lt;25 °C"
    }
}