{
    "cas_no": "4395-65-7",
    "key_name": "Disperse Blue 19",
    "cn_name": null,
    "alternate_name": "9,10-Anthracenedione, 1-amino-4-(phenylamino)-;Anthraquinone, 1-amino-4-anilino-;1-Amino-4-(phenylamino)-9,10-anthracenedione;C.I. 61110;Amacel Violet Blue FSI;1-Amino-4-<em>p</em>-anilino-9,10-anthraquinone;Artisil Blue 2RP;Artisil Direct Blue 2RP;Cibacet Blue 2R;C.I. Solvent Blue 68;Seriplas Blue BRL;Serisol Fast Blue BRL;Setacyl Blue PRS;Setacyl Blue RS;Terasil Blue 2R;C.I. Disperse Blue 19;1-Amino-4-(phenylamino)anthraquinone;1-Amino-4-anilinoanthraquinone;Synten Blue 2RL;Teraprint Blue 5R;Disperse Blue 2R;Oracet Blue 2R;Disperse Blue 19;Solvent Blue 68;Oracet blue;1-Amino-4-anilinoanthra-9,10-quinone;1-Amino-4-(phenylamino)anthracene-9,10-dione;1-Amino-4-(phenylamino)-9,10-dihydroanthracene-9,10-dione;1-Amino-4-anilinoanthracene-9,10-dione",
    "duplicated_cas_no": "67426-81-7",
    "SMILES": "N(C1=C2C(C(=O)C=3C(C2=O)=CC=CC3)=C(N)C=C1)C4=CC=CC=C4",
    "meta_data": {
        "InChI": "InChI=1S/C20H14N2O2/c21-15-10-11-16(22-12-6-2-1-3-7-12)18-17(15)19(23)13-8-4-5-9-14(13)20(18)24/h1-11,22H,21H2",
        "InChIKey": null,
        "Canonical SMILES": "O=C1C=2C=CC=CC2C(=O)C=3C(=CC=C(N)C13)NC=4C=CC=CC4",
        "Molecular Formula": "C<sub>20</sub>H<sub>14</sub>N<sub>2</sub>O<sub>2</sub>",
        "Molecular Mass": "314.34",
        "Melting Point": "192 °C"
    }
}