{
    "cas_no": "6404-31-5",
    "key_name": "<em>N</em>-(Benzyloxycarbonyl)-<span class=\"text-smallcaps\">D</span>-proline",
    "cn_name": "N-苄氧羰基-D-脯氨酸;N-CBZ-D-脯氨酸;",
    "alternate_name": "1,2-Pyrrolidinedicarboxylic acid, 1-(phenylmethyl) ester, (2<em>R</em>)-;1,2-Pyrrolidinedicarboxylic acid, 1-benzyl ester, <span class=\"text-smallcaps\">D</span>-;1,2-Pyrrolidinedicarboxylic acid, 1-(phenylmethyl) ester, (<em>R</em>)-;(Benzyloxycarbonyl)-<span class=\"text-smallcaps\">D</span>-proline;<em>N</em>-(Benzyloxycarbonyl)-<span class=\"text-smallcaps\">D</span>-proline;1-(Benzyloxycarbonyl)-<span class=\"text-smallcaps\">D</span>-proline;<em>N</em>-(Benzyloxycarbonyl)-(<em>R</em>)-proline;<em>N</em>-Carbobenzyloxy-<span class=\"text-smallcaps\">D</span>-proline;(2<em>R</em>)-1-(Benzyloxycarbonyl)pyrrolidine-2-carboxylic acid;(<em>R</em>)-1-(Benzyloxycarbonyl)pyrrolidine-2-carboxylic acid;(R)-1-(Benzyloxycarbonyl)pyrrolidine-2-carboxylic acid;<span class=\"text-smallcaps\">D</span>-Cbz-Proline;(2R)-1-Phenylmethoxycarbonylpyrrolidine-2-carboxylic acid;(2R)-1-[(Benzyloxy)carbonyl]pyrrolidine-2-carboxylic acid;(R)-<em>N</em>-BenzyloxycarbonyLproline",
    "duplicated_cas_no": "196810-31-8",
    "SMILES": "C(OCC1=CC=CC=C1)(=O)N2[C@@H](C(O)=O)CCC2",
    "meta_data": {
        "InChI": "InChI=1S/C13H15NO4/c15-12(16)11-7-4-8-14(11)13(17)18-9-10-5-2-1-3-6-10/h1-3,5-6,11H,4,7-9H2,(H,15,16)/t11-/m1/s1",
        "InChIKey": null,
        "Canonical SMILES": "O=C(O)C1N(C(=O)OCC=2C=CC=CC2)CCC1",
        "Molecular Formula": "C<sub>13</sub>H<sub>15</sub>NO<sub>4</sub>",
        "Molecular Mass": "249.26",
        "Melting Point": "76.5-77.5 °C"
    }
}