{
    "cas_no": "2620-62-4",
    "key_name": "<em>N</em><sup>6</sup>-Dimethyladenosine",
    "cn_name": "N6,N6-二甲基腺苷;",
    "alternate_name": "Adenosine, <em>N</em>,<em>N</em>-dimethyl-;<em>N</em>,<em>N</em>-Dimethyladenosine;6-(Dimethylamino)purine riboside;6-(Dimethylamino)purine ribonucleoside;6-Dimethylaminopurine <span class=\"text-smallcaps\">D</span>-riboside;6-Dimethylamino-9-(β-<span class=\"text-smallcaps\">D</span>-ribofuranosyl)purine;<em>N</em><sup>6</sup>-Dimethyladenosine;<em>N</em><sup>6</sup>,<em>N</em><sup>6</sup>-Dimethyladenosine",
    "duplicated_cas_no": "",
    "SMILES": "O[C@H]1[C@H](N2C=3C(N=C2)=C(N(C)C)N=CN3)O[C@H](CO)[C@H]1O",
    "meta_data": {
        "InChI": "InChI=1S/C12H17N5O4/c1-16(2)10-7-11(14-4-13-10)17(5-15-7)12-9(20)8(19)6(3-18)21-12/h4-6,8-9,12,18-20H,3H2,1-2H3/t6-,8-,9-,12-/m1/s1",
        "InChIKey": null,
        "Canonical SMILES": "OCC1OC(N2C=NC=3C2=NC=NC3N(C)C)C(O)C1O",
        "Molecular Formula": "C<sub>12</sub>H<sub>17</sub>N<sub>5</sub>O<sub>4</sub>",
        "Molecular Mass": "295.29",
        "Melting Point": "183-184 °C"
    }
}