{
    "cas_no": "84627-04-3",
    "key_name": "2-[(6-Hydroxy[1,1′-biphenyl]-3-yl)carbonyl]benzoic acid",
    "cn_name": "芬地柞酸;2-[(6-羟基[1,1\"-联苯]-3-基)甲酰基]苯甲酸;",
    "alternate_name": "Benzoic acid, 2-[(6-hydroxy[1,1′-biphenyl]-3-yl)carbonyl]-;Benzoic acid, <em>o</em>-[(6-hydroxy-3-biphenylyl)carbonyl]-;2-[(6-Hydroxy[1,1′-biphenyl]-3-yl)carbonyl]benzoic acid;Fendizoic acid;2-(3′-Phenyl-4′-hydroxybenzoyl)benzoic acid",
    "duplicated_cas_no": "47349-84-8",
    "SMILES": "OC=1C(=CC(C(=O)C2=C(C(O)=O)C=CC=C2)=CC1)C3=CC=CC=C3",
    "meta_data": {
        "InChI": "InChI=1S/C20H14O4/c21-18-11-10-14(12-17(18)13-6-2-1-3-7-13)19(22)15-8-4-5-9-16(15)20(23)24/h1-12,21H,(H,23,24)",
        "InChIKey": null,
        "Canonical SMILES": "O=C(O)C=1C=CC=CC1C(=O)C=2C=CC(O)=C(C2)C=3C=CC=CC3",
        "Molecular Formula": "C<sub>20</sub>H<sub>14</sub>O<sub>4</sub>",
        "Molecular Mass": "318.32",
        "Melting Point": "260-265 °C (decomp)"
    }
}