{
    "cas_no": "2444-37-3",
    "key_name": "(Methylthio)acetic acid",
    "cn_name": "(甲硫基)乙酸;",
    "alternate_name": "Acetic acid, 2-(methylthio)-;Acetic acid, (methylthio)-;2-(Methylthio)acetic acid;<em>S</em>-Methylthioglycolic acid;(Methylmercapto)acetic acid;2-(Methylthio)ethanoic acid;α-(Methylthio)acetic acid;(Methylsulfenyl)acetic acid;(Methylthio)acetic acid;Methylsulfanylacetic acid;NSC 263480;2-Methylmercaptoacetic acid;2-Methylsulfanylacetic acid;2-(Methylsulfanyl)acetic acid",
    "duplicated_cas_no": "",
    "SMILES": "C(C(O)=O)SC",
    "meta_data": {
        "InChI": "InChI=1S/C3H6O2S/c1-6-2-3(4)5/h2H2,1H3,(H,4,5)",
        "InChIKey": null,
        "Canonical SMILES": "O=C(O)CSC",
        "Molecular Formula": "C<sub>3</sub>H<sub>6</sub>O<sub>2</sub>S",
        "Molecular Mass": "106.14",
        "Boiling Point": "107 °C @ Press: 9.5 Torr",
        "Density": "1.227 g/cm³ @ Temp: 20 °C"
    }
}