{
    "cas_no": "5984-59-8",
    "key_name": "2-Heptanamine, 6-methyl-, hydrochloride (1:1)",
    "cn_name": null,
    "alternate_name": "2-Heptanamine, 6-methyl-, hydrochloride (1:1);Hexylamine, 1,5-dimethyl-, hydrochloride;2-Heptanamine, 6-methyl-, hydrochloride;2-Isooctylamine hydrochloride;2-Amino-6-methylheptane hydrochloride;NSC 27116",
    "duplicated_cas_no": "",
    "SMILES": "C(CC(C)C)CC(C)N.Cl",
    "meta_data": {
        "InChI": "InChI=1S/C8H19N.ClH/c1-7(2)5-4-6-8(3)9;/h7-8H,4-6,9H2,1-3H3;1H",
        "InChIKey": null,
        "Canonical SMILES": "Cl.NC(C)CCCC(C)C",
        "Molecular Formula": "C<sub>8</sub>H<sub>19</sub>N.ClH",
        "Molecular Mass": "",
        "Melting Point": "139-140 °C"
    }
}