{
    "cas_no": "40138-17-8",
    "key_name": "<em>B</em>-(2-Formyl-5-methylphenyl)boronic acid",
    "cn_name": "2-醛基-5-甲基苯硼酸;2-甲酰-5-甲基苯硼酸;",
    "alternate_name": "Boronic acid, <em>B</em>-(2-formyl-5-methylphenyl)-;Boronic acid, (2-formyl-5-methylphenyl)-;<em>m</em>-Tolueneboronic acid, 6-formyl-;<em>B</em>-(2-Formyl-5-methylphenyl)boronic acid;2-Formyl-5-methylphenylboronic acid",
    "duplicated_cas_no": "",
    "SMILES": "B(O)(O)C1=C(C=O)C=CC(C)=C1",
    "meta_data": {
        "InChI": "InChI=1S/C8H9BO3/c1-6-2-3-7(5-10)8(4-6)9(11)12/h2-5,11-12H,1H3",
        "InChIKey": null,
        "Canonical SMILES": "O=CC1=CC=C(C=C1B(O)O)C",
        "Molecular Formula": "C<sub>8</sub>H<sub>9</sub>BO<sub>3</sub>",
        "Molecular Mass": "163.97",
        "Melting Point": "186 °C"
    }
}