{
    "cas_no": "7784-23-8",
    "key_name": "Aluminum iodide",
    "cn_name": "碘化铝 [7784-23-8];",
    "alternate_name": "Aluminum iodide (AlI<sub>3</sub>);Aluminum triiodide;Aluminum iodide",
    "duplicated_cas_no": "",
    "SMILES": "[Al](I)(I)I",
    "meta_data": {
        "InChI": "InChI=1S/Al.3HI/h;3*1H/q+3;;;/p-3",
        "InChIKey": null,
        "Canonical SMILES": "I[Al](I)I",
        "Molecular Formula": "AlI<sub>3</sub>",
        "Molecular Mass": "",
        "Boiling Point": "386 °C",
        "Melting Point": "179.5 °C",
        "Density": "3.98 g/cm³ @ Temp: 25 °C"
    }
}