{
    "cas_no": "1330-80-9",
    "key_name": "Propylene glycol monooleate",
    "cn_name": "丙二醇油酸酯;",
    "alternate_name": "9-Octadecenoic acid (9<em>Z</em>)-, monoester with 1,2-propanediol;Oleic acid, monoester with 1,2-propanediol;9-Octadecenoic acid (<em>Z</em>)-, monoester with 1,2-propanediol;Oleic acid, ester with 1,2-propanediol;1,2-Propanediol, monooleate;Crill 25;Nonex 59;Propylene glycol monooleate;Propylene glycol oleate;G 923;Sunsoft 25O;Sunsoft 25OD;Sunsoft O 30;PO 100;Nissan Nonion PO 100;Nonion PO 100;Hydroxypropyl oleate;Sunsoft 25ODV;Nofable PO 991;Emcol PO 50;Edenol EFC 100;EFC 100;Rikemal PO 100V",
    "duplicated_cas_no": "8034-37-5;27213-39-4;881915-81-7;1256465-95-8",
    "SMILES": "",
    "meta_data": {
        "InChI": "",
        "InChIKey": null,
        "Canonical SMILES": "",
        "Molecular Formula": "C<sub>21</sub>H<sub>40</sub>O<sub>3</sub>",
        "Molecular Mass": "",
        "Boiling Point": "176-183 °C @ Press: 2 Torr"
    }
}