{
    "cas_no": "877-24-7",
    "key_name": "Potassium hydrogen phthalate",
    "cn_name": "邻苯二甲酸氢钾;1,2-苯二甲酸氢钾;酞酸氢钾;",
    "alternate_name": "1,2-Benzenedicarboxylic acid, potassium salt (1:1);Phthalic acid, monopotassium salt;1,2-Benzenedicarboxylic acid, monopotassium salt;Potassium acid phthalate;Potassium biphthalate;Potassium hydrogen phthalate;Monopotassium phthalate;Hydrogen potassium phthalate;Monopotassium 1,2-benzenedicarboxylate;KAP",
    "duplicated_cas_no": "",
    "SMILES": "C(O)(=O)C1=C(C(O)=O)C=CC=C1.[K]",
    "meta_data": {
        "InChI": "InChI=1S/C8H6O4.K/c9-7(10)5-3-1-2-4-6(5)8(11)12;/h1-4H,(H,9,10)(H,11,12);",
        "InChIKey": null,
        "Canonical SMILES": "[K].O=C(O)C=1C=CC=CC1C(=O)O",
        "Molecular Formula": "C<sub>8</sub>H<sub>6</sub>O<sub>4</sub>.K",
        "Molecular Mass": "",
        "Melting Point": "220 °C"
    }
}