{
    "cas_no": "160982-11-6",
    "key_name": "3-(2-Bromoacetyl)-5-chloro-2-thiophenesulfonamide",
    "cn_name": "3-溴乙酰-5-氯-2-噻吩磺酰胺;",
    "alternate_name": "2-Thiophenesulfonamide, 3-(2-bromoacetyl)-5-chloro-;2-Thiophenesulfonamide, 3-(bromoacetyl)-5-chloro-;3-(2-Bromoacetyl)-5-chloro-2-thiophenesulfonamide;3-(Bromoacetyl)-5-chloro-2-thiophenesulfonamide",
    "duplicated_cas_no": "",
    "SMILES": "S(N)(=O)(=O)C1=C(C(CBr)=O)C=C(Cl)S1",
    "meta_data": {
        "InChI": "InChI=1S/C6H5BrClNO3S2/c7-2-4(10)3-1-5(8)13-6(3)14(9,11)12/h1H,2H2,(H2,9,11,12)",
        "InChIKey": null,
        "Canonical SMILES": "O=C(C=1C=C(Cl)SC1S(=O)(=O)N)CBr",
        "Molecular Formula": "C<sub>6</sub>H<sub>5</sub>BrClNO<sub>3</sub>S<sub>2</sub>",
        "Molecular Mass": "318.60",
        "Melting Point": "144 °C"
    }
}