{
    "cas_no": "833-48-7",
    "key_name": "10,11-Dihydro-5<em>H</em>-dibenzo[<em>a</em>,<em>d</em>]cycloheptene",
    "cn_name": "10,11-二氢-5H-二苯并[a,d]环庚烯;",
    "alternate_name": "5<em>H</em>-Dibenzo[<em>a</em>,<em>d</em>]cycloheptene, 10,11-dihydro-;10,11-Dihydro-5<em>H</em>-dibenzo[<em>a</em>,<em>d</em>]cycloheptene;Dibenzo[<em>a</em>,<em>d</em>][1,4]cycloheptadiene;2,3:6,7-Dibenzosuberan;Suberane;10,11-Dihydrodibenzo[<em>a</em>,<em>d</em>]cycloheptene;1,2:4,5-Dibenzocycloheptane;NSC 86156;Dibenzosuberane;10,11-Dihydro-5<em>H</em>-dibenzo[<em>a</em>,<em>d</em>][7]annulene",
    "duplicated_cas_no": "90621-74-2",
    "SMILES": "C1=2C(CCC=3C(C1)=CC=CC3)=CC=CC2",
    "meta_data": {
        "InChI": "InChI=1S/C15H14/c1-3-7-14-11-15-8-4-2-6-13(15)10-9-12(14)5-1/h1-8H,9-11H2",
        "InChIKey": null,
        "Canonical SMILES": "C=1C=CC2=C(C1)CC=3C=CC=CC3CC2",
        "Molecular Formula": "C<sub>15</sub>H<sub>14</sub>",
        "Molecular Mass": "194.27",
        "Melting Point": "78-79 °C"
    }
}