{
    "cas_no": "105-01-1",
    "key_name": "2-Methylpropyl 2-furanpropanoate",
    "cn_name": "3-(2-呋喃基)丙酸异丁酯;2-呋喃丙酸-2-甲基丙酯;",
    "alternate_name": "2-Furanpropanoic acid, 2-methylpropyl ester;2-Furanpropionic acid, isobutyl ester;2-Methylpropyl 2-furanpropanoate;Isobutyl 2-furanpropionate;Isobutyl furylpropionate;Isobutyl 3-(2-furan)propionate",
    "duplicated_cas_no": "",
    "SMILES": "C(CC(OCC(C)C)=O)C1=CC=CO1",
    "meta_data": {
        "InChI": "InChI=1S/C11H16O3/c1-9(2)8-14-11(12)6-5-10-4-3-7-13-10/h3-4,7,9H,5-6,8H2,1-2H3",
        "InChIKey": null,
        "Canonical SMILES": "O=C(OCC(C)C)CCC=1OC=CC1",
        "Molecular Formula": "C<sub>11</sub>H<sub>16</sub>O<sub>3</sub>",
        "Molecular Mass": "196.24",
        "Boiling Point": "119-120 °C @ Press: 30 Torr",
        "Density": "1.004 g/cm³ @ Temp: 25 °C"
    }
}