{
    "cas_no": "150683-30-0",
    "key_name": "Tolvaptan",
    "cn_name": "托伐普坦; N-[4-[(5R)-7-氯-5-羟基-2,3,4,5-四氢-1-苯并氮杂卓-1-甲酰基]-3-甲基苯基]-2-甲基苯甲酰胺;",
    "alternate_name": "Benzamide, <em>N</em>-[4-[(7-chloro-2,3,4,5-tetrahydro-5-hydroxy-1<em>H</em>-1-benzazepin-1-yl)carbonyl]-3-methylphenyl]-2-methyl-;1<em>H</em>-1-Benzazepine, benzamide deriv.;<em>N</em>-[4-[(7-Chloro-2,3,4,5-tetrahydro-5-hydroxy-1<em>H</em>-1-benzazepin-1-yl)carbonyl]-3-methylphenyl]-2-methylbenzamide;OPC 41061;Tolvaptan;Samsca;1-[4-(2-Methylbenzoylamino)-2-methylbenzoyl]-7-chloro-1,2,3,4-tetrahydrobenzo[<em>b</em>]azepin-5-ol;Jynarque;Jinarc",
    "duplicated_cas_no": "",
    "SMILES": "C(=O)(N1C=2C(=CC(Cl)=CC2)C(O)CCC1)C3=C(C)C=C(NC(=O)C4=C(C)C=CC=C4)C=C3",
    "meta_data": {
        "InChI": "InChI=1S/C26H25ClN2O3/c1-16-6-3-4-7-20(16)25(31)28-19-10-11-21(17(2)14-19)26(32)29-13-5-8-24(30)22-15-18(27)9-12-23(22)29/h3-4,6-7,9-12,14-15,24,30H,5,8,13H2,1-2H3,(H,28,31)",
        "InChIKey": null,
        "Canonical SMILES": "O=C(NC1=CC=C(C(=O)N2C3=CC=C(Cl)C=C3C(O)CCC2)C(=C1)C)C=4C=CC=CC4C",
        "Molecular Formula": "C<sub>26</sub>H<sub>25</sub>ClN<sub>2</sub>O<sub>3</sub>",
        "Molecular Mass": "448.94",
        "Melting Point": "220-221 °C"
    }
}