{
    "cas_no": "13623-11-5",
    "key_name": "2,4,5-Trimethylthiazole",
    "cn_name": "2,4,5-三甲基噻唑;",
    "alternate_name": "Thiazole, 2,4,5-trimethyl-;Thiazole, trimethyl-;2,4,5-Trimethylthiazole;Trimethylthiazole;NSC 170614;2,4,5-Trimethyl-1,3-thiazole",
    "duplicated_cas_no": "",
    "SMILES": "CC1=C(C)SC(C)=N1",
    "meta_data": {
        "InChI": "InChI=1S/C6H9NS/c1-4-5(2)8-6(3)7-4/h1-3H3",
        "InChIKey": null,
        "Canonical SMILES": "N1=C(SC(=C1C)C)C",
        "Molecular Formula": "C<sub>6</sub>H<sub>9</sub>NS",
        "Molecular Mass": "127.21",
        "Boiling Point": "164-166 °C",
        "Density": "1.0327 g/cm³ @ Temp: 20 °C"
    }
}