{
    "cas_no": "104-42-7",
    "key_name": "4-Dodecylaniline",
    "cn_name": "4-十二烷基苯胺;",
    "alternate_name": "Benzenamine, 4-dodecyl-;Aniline, <em>p</em>-dodecyl-;4-Dodecylbenzenamine;<em>p</em>-Dodecylaniline;(<em>p</em>-Aminododecyl)benzene;4-<em>n</em>-Dodecylaniline;4-Dodecylaniline;1-(<em>p</em>-Aminophenyl)dodecane;4-Dodecylphenylamine",
    "duplicated_cas_no": "",
    "SMILES": "C(CCCCCCCCCCC)C1=CC=C(N)C=C1",
    "meta_data": {
        "InChI": "InChI=1S/C18H31N/c1-2-3-4-5-6-7-8-9-10-11-12-17-13-15-18(19)16-14-17/h13-16H,2-12,19H2,1H3",
        "InChIKey": null,
        "Canonical SMILES": "NC1=CC=C(C=C1)CCCCCCCCCCCC",
        "Molecular Formula": "C<sub>18</sub>H<sub>31</sub>N",
        "Molecular Mass": "261.45",
        "Boiling Point": "220-221 °C",
        "Melting Point": "40.5 °C"
    }
}