{
    "cas_no": "1120-06-5",
    "key_name": "(±)-2-Decanol",
    "cn_name": "2-癸醇;",
    "alternate_name": "2-Decanol;2-Hydroxydecane;(±)-2-Decanol;NSC 67349",
    "duplicated_cas_no": "113244-41-0;74742-10-2",
    "SMILES": "C(CCCCC)CCC(C)O",
    "meta_data": {
        "InChI": "InChI=1S/C10H22O/c1-3-4-5-6-7-8-9-10(2)11/h10-11H,3-9H2,1-2H3",
        "InChIKey": null,
        "Canonical SMILES": "OC(C)CCCCCCCC",
        "Molecular Formula": "C<sub>10</sub>H<sub>22</sub>O",
        "Molecular Mass": "158.28",
        "Boiling Point": "110-111 °C @ Press: 10 Torr",
        "Density": "0.8256 g/cm³ @ Temp: 20 °C"
    }
}