{
    "cas_no": "4199-89-7",
    "key_name": "5-Chloro-1,10-phenanthroline",
    "cn_name": "5-氯邻菲得啉;",
    "alternate_name": "1,10-Phenanthroline, 5-chloro-;5-Chloro-1,10-phenanthroline;5-Chloro-1,10-diazaphenanthrene;5-Chloro-<em>o</em>-phenanthroline",
    "duplicated_cas_no": "",
    "SMILES": "ClC1=C2C(=C3C(=C1)C=CC=N3)N=CC=C2",
    "meta_data": {
        "InChI": "InChI=1S/C12H7ClN2/c13-10-7-8-3-1-5-14-11(8)12-9(10)4-2-6-15-12/h1-7H",
        "InChIKey": null,
        "Canonical SMILES": "ClC1=CC2=CC=CN=C2C=3N=CC=CC13",
        "Molecular Formula": "C<sub>12</sub>H<sub>7</sub>ClN<sub>2</sub>",
        "Molecular Mass": "214.65",
        "Melting Point": "123 °C"
    }
}