{
    "cas_no": "69123-98-4",
    "key_name": "Fialuridine",
    "cn_name": "非阿尿苷;1-[(2R,3S,4R,5R)-3-氟-4-羟基-5-(羟甲基)氧杂环戊-2-基]-5-碘嘧啶-2,4-二酮;",
    "alternate_name": "2,4(1<em>H</em>,3<em>H</em>)-Pyrimidinedione, 1-(2-deoxy-2-fluoro-β-<span class=\"text-smallcaps\">D</span>-arabinofuranosyl)-5-iodo-;1-(2-Deoxy-2-fluoro-β-<span class=\"text-smallcaps\">D</span>-arabinofuranosyl)-5-iodo-2,4(1<em>H</em>,3<em>H</em>)-pyrimidinedione;1-(2′-Deoxy-2′-fluoro-β-<span class=\"text-smallcaps\">D</span>-arabinofuranosyl)-5-iodouracil;5-Iodo-2′-fluoroarauracil;1-(2-Deoxy-2-fluoro-β-<span class=\"text-smallcaps\">D</span>-arabinofuranosyl)-5-iodouracil;FIAU;Fialuridine;Fluoroiodoarauracil;NSC 678514",
    "duplicated_cas_no": "129049-36-1",
    "SMILES": "F[C@@H]1[C@@H](O[C@H](CO)[C@H]1O)N2C(=O)NC(=O)C(I)=C2",
    "meta_data": {
        "InChI": "InChI=1S/C9H10FIN2O5/c10-5-6(15)4(2-14)18-8(5)13-1-3(11)7(16)12-9(13)17/h1,4-6,8,14-15H,2H2,(H,12,16,17)/t4-,5+,6-,8-/m1/s1",
        "InChIKey": null,
        "Canonical SMILES": "O=C1NC(=O)N(C=C1I)C2OC(CO)C(O)C2F",
        "Molecular Formula": "C<sub>9</sub>H<sub>10</sub>FIN<sub>2</sub>O<sub>5</sub>",
        "Molecular Mass": "372.09",
        "Melting Point": "216-217 °C"
    }
}