{
    "cas_no": "2345-56-4",
    "key_name": "3-Amino-3-oxopropanoic acid",
    "cn_name": "丙醯胺酸;丙醯胺酸;",
    "alternate_name": "Propanoic acid, 3-amino-3-oxo-;Malonamic acid;3-Amino-3-oxopropanoic acid;Acetic acid, carbamoyl-;β-Alanine, 3-oxo-;Malonic acid monoamide;Malonamidic acid;Carbamoylacetic acid;Malonomonoamide;3-Oxo-3-aminopropionic acid;NSC 1812;2-Carbamoylacetic acid",
    "duplicated_cas_no": "",
    "SMILES": "C(C(N)=O)C(O)=O",
    "meta_data": {
        "InChI": "InChI=1S/C3H5NO3/c4-2(5)1-3(6)7/h1H2,(H2,4,5)(H,6,7)",
        "InChIKey": null,
        "Canonical SMILES": "O=C(O)CC(=O)N",
        "Molecular Formula": "C<sub>3</sub>H<sub>5</sub>NO<sub>3</sub>",
        "Molecular Mass": "103.08",
        "Melting Point": "121 °C"
    }
}