{
    "cas_no": "1515-89-5",
    "key_name": "3-Bromobenzyl methyl ether",
    "cn_name": null,
    "alternate_name": "Benzene, 1-bromo-3-(methoxymethyl)-;Ether, <em>m</em>-bromobenzyl methyl;1-Bromo-3-(methoxymethyl)benzene;1-Bromo-3-methoxymethylbenzene;3-Bromobenzyl methyl ether",
    "duplicated_cas_no": "",
    "SMILES": "C(OC)C1=CC(Br)=CC=C1",
    "meta_data": {
        "InChI": "InChI=1S/C8H9BrO/c1-10-6-7-3-2-4-8(9)5-7/h2-5H,6H2,1H3",
        "InChIKey": null,
        "Canonical SMILES": "BrC1=CC=CC(=C1)COC",
        "Molecular Formula": "C<sub>8</sub>H<sub>9</sub>BrO",
        "Molecular Mass": "201.06",
        "Boiling Point": "117-118 °C @ Press: 21 Torr"
    }
}