{
    "cas_no": "118-74-1",
    "key_name": "Hexachlorobenzene",
    "cn_name": null,
    "alternate_name": "Benzene, 1,2,3,4,5,6-hexachloro-;Benzene, hexachloro-;1,2,3,4,5,6-Hexachlorobenzene;Bunt-cure;Bunt-no-more;Anticarie;HCB;Hexachlorobenzene;Julin's carbon chloride;No Bunt;No Bunt 40;No Bunt 80;No Bunt Liquid;Perchlorobenzene;Sanocide;Amatin;Co-op Hexa;Pentachlorophenyl chloride;Snieciotox;Zaprawa nasienna sneciotox;HCB (pesticide);NSC 9243;BHC;MeSH ID: D006581",
    "duplicated_cas_no": "1135443-45-6",
    "SMILES": "ClC1=C(Cl)C(Cl)=C(Cl)C(Cl)=C1Cl",
    "meta_data": {
        "InChI": "InChI=1S/C6Cl6/c7-1-2(8)4(10)6(12)5(11)3(1)9",
        "InChIKey": null,
        "Canonical SMILES": "ClC=1C(Cl)=C(Cl)C(Cl)=C(Cl)C1Cl",
        "Molecular Formula": "C<sub>6</sub>Cl<sub>6</sub>",
        "Molecular Mass": "284.78",
        "Boiling Point": "325 °C",
        "Melting Point": "231.8 °C",
        "Density": "2.044 g/cm³ @ Temp: 23 °C"
    }
}