{
    "cas_no": "3158-91-6",
    "key_name": "2-Chlorodibenz[<em>b</em>,<em>f</em>][1,4]oxazepin-11(10<em>H</em>)-one",
    "cn_name": "2-氯二苯并[b,f][1,4]氧氮杂卓-11(10H)-酮;",
    "alternate_name": "Dibenz[<em>b</em>,<em>f</em>][1,4]oxazepin-11(10<em>H</em>)-one, 2-chloro-;2-Chlorodibenz[<em>b</em>,<em>f</em>][1,4]oxazepin-11(10<em>H</em>)-one",
    "duplicated_cas_no": "",
    "SMILES": "O=C1C=2C(OC=3C(N1)=CC=CC3)=CC=C(Cl)C2",
    "meta_data": {
        "InChI": "InChI=1S/C13H8ClNO2/c14-8-5-6-11-9(7-8)13(16)15-10-3-1-2-4-12(10)17-11/h1-7H,(H,15,16)",
        "InChIKey": null,
        "Canonical SMILES": "O=C1NC=2C=CC=CC2OC3=CC=C(Cl)C=C31",
        "Molecular Formula": "C<sub>13</sub>H<sub>8</sub>ClNO<sub>2</sub>",
        "Molecular Mass": "245.66",
        "Melting Point": "242-244 °C"
    }
}