{
    "cas_no": "91-96-3",
    "key_name": "Naphtanilide G",
    "cn_name": "双乙酰乙酰-3,3\"-二甲基联苯胺;N,N\"-双乙酰乙酰-3,3\"-二甲基-4,4\"-联苯二胺;冰染偶合组分5;色酚AS-G;",
    "alternate_name": "Butanamide, <em>N</em>,<em>N</em>′-(3,3′-dimethyl[1,1′-biphenyl]-4,4′-diyl)bis[3-oxo-;4′,4′′′-Bi-<em>o</em>-acetoacetotoluidide;<em>N</em>,<em>N</em>′-(3,3′-Dimethyl[1,1′-biphenyl]-4,4′-diyl)bis[3-oxobutanamide];C.I. 37610;Acna Naphthol G;Amanil Naphthol AS-G;Amarthol AS-G;Arlanthol ASG;<em>p</em>,<em>p</em>′-Bis(<em>o</em>-acetoacetotoluidide);Cibanaphthol AG;C.I. Azoic Coupling Component 5;Daito Grounder G;Diacetylacetotolidide;Hiltonaphthol AS-G;Kambothol ASG;Kiwa Grounder G;Mitsui Naphthozol G;Naphtanilide G;Naphtazol J;Naphthanil G;Naphthoide G;Naphthol AS-G Dispersible;Naphthol AS-G Supra;Naphtoelan G;Naphtol AS-G;Naphtol AS-G Supra;Sanatol AS-G;Sanatol G;Solunaptol YL;Tulathol AS-G;Ultrazol G;3,3′-Dimethyl-4,4′-bis(acetoacetylamino)biphenyl;<em>N</em>,<em>N</em>′-Bis(acetoacetyl)-3,3′-dimethylbenzidine;4,4′-Bis(<em>o</em>-acetoacetotoluidide);4,4′-Bis(acetoacetylamino)-3,3′-dimethylbiphenyl;Naphthol AS-G;4,4′-Bis(acetoacetamido)-3,3′-dimethylbiphenyl;4,4′-Bis(acetoacetamido)-3,3′-dimethyl-1,1′-biphenyl;Naphthol G;NSC 37212;NSC 50639;Napthol ASG;Red B Base;Dycosthol AS-G;Conazoic E;Naftol AS-G;Hebeithol AS-G",
    "duplicated_cas_no": "40763-68-6",
    "SMILES": "CC=1C=C(C=CC1NC(CC(C)=O)=O)C2=CC(C)=C(NC(CC(C)=O)=O)C=C2",
    "meta_data": {
        "InChI": "InChI=1S/C22H24N2O4/c1-13-9-17(5-7-19(13)23-21(27)11-15(3)25)18-6-8-20(14(2)10-18)24-22(28)12-16(4)26/h5-10H,11-12H2,1-4H3,(H,23,27)(H,24,28)",
        "InChIKey": null,
        "Canonical SMILES": "O=C(NC1=CC=C(C=C1C)C=2C=CC(NC(=O)CC(=O)C)=C(C2)C)CC(=O)C",
        "Molecular Formula": "C<sub>22</sub>H<sub>24</sub>N<sub>2</sub>O<sub>4</sub>",
        "Molecular Mass": "380.44",
        "Boiling Point": "353.4 °C",
        "Melting Point": "212 °C"
    }
}