{
    "cas_no": "92-29-5",
    "key_name": "1-Phenyl-<em>N</em>,<em>N</em>′-bis(phenylmethylene)methanediamine",
    "cn_name": "三苯甲醛缩二氨;三苯甲醛缩二胺;三苯甲縮醛二胺;三亞苄二胺;氢化苯酰胺;",
    "alternate_name": "Methanediamine, 1-phenyl-<em>N</em>,<em>N</em>′-bis(phenylmethylene)-;Toluene-α,α-diamine, <em>N</em>,<em>N</em>′-dibenzylidene-;Hydrobenzamide;1-Phenyl-<em>N</em>,<em>N</em>′-bis(phenylmethylene)methanediamine;<em>N</em>,<em>N</em>′-Dibenzylidenetoluene-α,α-diamine;1,3,5-Triphenyl-2,4-diaza-1,4-pentadiene;NSC 1005;NSC 122123;Phenylbis[(benzylidene)amino]methane;Benzaldehyde Hydrobenzamide",
    "duplicated_cas_no": "77008-39-0",
    "SMILES": "C(N=CC1=CC=CC=C1)(N=CC2=CC=CC=C2)C3=CC=CC=C3",
    "meta_data": {
        "InChI": "InChI=1S/C21H18N2/c1-4-10-18(11-5-1)16-22-21(20-14-8-3-9-15-20)23-17-19-12-6-2-7-13-19/h1-17,21H",
        "InChIKey": null,
        "Canonical SMILES": "N(=CC=1C=CC=CC1)C(N=CC=2C=CC=CC2)C=3C=CC=CC3",
        "Molecular Formula": "C<sub>21</sub>H<sub>18</sub>N<sub>2</sub>",
        "Molecular Mass": "298.38",
        "Boiling Point": "35 °C @ Press: 35 mmHg",
        "Melting Point": "102 °C"
    }
}