{
    "cas_no": "143390-89-0",
    "key_name": "Kresoxim-methyl",
    "cn_name": "醚菌酯;(E)-2-甲氧亚氨基-[2-(邻甲基苯氧基甲基)苯基]乙酸甲酯;",
    "alternate_name": "Benzeneacetic acid, α-(methoxyimino)-2-[(2-methylphenoxy)methyl]-, methyl ester, (α<em>E</em>)-;Benzeneacetic acid, α-(methoxyimino)-2-[(2-methylphenoxy)methyl]-, methyl ester, (<em>E</em>)-;BAS 490F;BAS 490-02F;Kresoxim-methyl;Candit;Strob 1;Discus;Discus (fungicide);Stroby;Cygnus;Stroby WG;RIL-FA 200;Ergon;Ergon (fungicide);Stroby DF;Kresoxim-Me;Sovran;Cygnus 50 WG;Methyl (E)-methoxyimino[α-(<em>o</em>-tolyloxy)-<em>o</em>-tolyl]acetate",
    "duplicated_cas_no": "1135441-43-8;1003023-38-8",
    "SMILES": "C(\\C(OC)=O)(=N/OC)/C1=C(COC2=C(C)C=CC=C2)C=CC=C1",
    "meta_data": {
        "InChI": "InChI=1S/C18H19NO4/c1-13-8-4-7-11-16(13)23-12-14-9-5-6-10-15(14)17(19-22-3)18(20)21-2/h4-11H,12H2,1-3H3/b19-17+",
        "InChIKey": null,
        "Canonical SMILES": "O=C(OC)C(=NOC)C=1C=CC=CC1COC=2C=CC=CC2C",
        "Molecular Formula": "C<sub>18</sub>H<sub>19</sub>NO<sub>4</sub>",
        "Molecular Mass": "313.35",
        "Melting Point": "97.2-101.7 °C",
        "Density": "125.8 g/cm³"
    }
}