{
    "cas_no": "509-24-0",
    "key_name": "Songorine",
    "cn_name": null,
    "alternate_name": "12,3,6a-Ethanylylidene-9,11a-methanoazuleno[2,1-<em>b</em>]azocin-8(9<em>H</em>)-one, 1-ethyldodecahydro-6,11-dihydroxy-3-methyl-10-methylene-, (3<em>R</em>,6<em>S</em>,6a<em>R</em>,6b<em>R</em>,9<em>R</em>,11<em>R</em>,11a<em>R</em>,12<em>R</em>,12a<em>R</em>,14<em>R</em>)-;Songorine;7,20-Cycloveatchan-12-one, 21-ethyl-1,15-dihydroxy-4-methyl-16-methylene-, (1α,15β)-;(3<em>R</em>,6<em>S</em>,6a<em>R</em>,6b<em>R</em>,9<em>R</em>,11<em>R</em>,11a<em>R</em>,12<em>R</em>,12a<em>R</em>,14<em>R</em>)-1-Ethyldodecahydro-6,11-dihydroxy-3-methyl-10-methylene-12,3,6a-ethanylylidene-9,11a-methanoazuleno[2,1-<em>b</em>]azocin-8(9<em>H</em>)-one;Songorin;Napellonine;Napellonin;Zongorine;Bullatine G;Xuan-Wu 2;12,3,6a-Ethanylylidene-9,11a-methanoazuleno[2,1-<em>b</em>]azocin-8(9<em>H</em>)-one, 1-ethyldodecahydro-6,11-dihydroxy-3-methyl-10-methylene-, [3<em>R</em>-(3α,6β,6aα,6bα,9β,11α,11aβ,12α,12aβ,14<em>R</em>*)]-;(-)-Songorine",
    "duplicated_cas_no": "1354-90-1;1362-38-5;1368-38-3",
    "SMILES": "O[C@@H]1[C@]23[C@]4([C@@]5([C@@]6([C@]2(N(CC)C[C@@](C)([C@]3(C6)[H])CC1)[H])[H])CC(C(=O)C4)(C(=C)[C@H]5O)[H])[H]",
    "meta_data": {
        "InChI": "InChI=1S/C22H31NO3/c1-4-23-10-20(3)6-5-17(25)22-15(20)7-13(18(22)23)21-9-12(11(2)19(21)26)14(24)8-16(21)22/h12-13,15-19,25-26H,2,4-10H2,1,3H3/t12?,13-,15+,16+,17-,18+,19+,20-,21-,22-/m0/s1",
        "InChIKey": null,
        "Canonical SMILES": "O=C1CC2C3(CC1C(=C)C3O)C4CC5C6(C)CN(CC)C4C25C(O)CC6",
        "Molecular Formula": "C<sub>22</sub>H<sub>31</sub>NO<sub>3</sub>",
        "Molecular Mass": "357.49",
        "Melting Point": "201-203 °C"
    }
}