{
    "cas_no": "557-19-7",
    "key_name": "Nickel cyanide (Ni(CN)<sub>2</sub>)",
    "cn_name": "氰化镍;",
    "alternate_name": "Nickel cyanide (Ni(CN)<sub>2</sub>);Dicyanonickel;Nickel dicyanide;Nickel(II) cyanide",
    "duplicated_cas_no": "99601-92-0;99601-93-1",
    "SMILES": "[Ni](C#N)C#N",
    "meta_data": {
        "InChI": "InChI=1S/2CN.Ni/c2*1-2;",
        "InChIKey": null,
        "Canonical SMILES": "N#C[Ni]C#N",
        "Molecular Formula": "C<sub>2</sub>N<sub>2</sub>Ni",
        "Molecular Mass": "",
        "Melting Point": "&gt;200 °C",
        "Density": "2.393 g/cm³"
    }
}