{
    "cas_no": "2645-22-9",
    "key_name": "4,4′-Dithiodipyridine",
    "cn_name": "4,4\"-二吡啶二硫醚;",
    "alternate_name": "Pyridine, 4,4′-dithiobis-;Pyridine, 4,4′-dithiodi-;4,4′-Dithiobis[pyridine];4,4′-Dithiodipyridine;4,4′-Dipyridine disulfide;Di(4-Pyridyl) disulfide;4,4′-Dipyridyl disulfide;4,4′-Dithiopyridine;4-Pyridyl disulfide;Bis(4-pyridyl) disulfide;Aldrithiol 4;Bis(4-pyridinyl) disulfide;4,4′-Bipyridyl disulfide;NSC 367080;4-(Pyridin-4-yldisulfanyl)pyridine",
    "duplicated_cas_no": "",
    "SMILES": "S(SC=1C=CN=CC1)C=2C=CN=CC2",
    "meta_data": {
        "InChI": "InChI=1S/C10H8N2S2/c1-5-11-6-2-9(1)13-14-10-3-7-12-8-4-10/h1-8H",
        "InChIKey": null,
        "Canonical SMILES": "N=1C=CC(SSC=2C=CN=CC2)=CC1",
        "Molecular Formula": "C<sub>10</sub>H<sub>8</sub>N<sub>2</sub>S<sub>2</sub>",
        "Molecular Mass": "220.31",
        "Melting Point": "155 °C"
    }
}