{
    "cas_no": "2533-69-9",
    "key_name": "Ethanimidic acid, 2,2,2-trichloro-, methyl ester",
    "cn_name": null,
    "alternate_name": "Ethanimidic acid, 2,2,2-trichloro-, methyl ester;Acetimidic acid, 2,2,2-trichloro-, methyl ester;Methyl trichloroacetimidate;Methyl 2,2,2-trichloroacetimidate;Trichloroacetimidic acid methyl ester;NSC 306728;2,2,2-Trichloroacetimidic acid methyl ester;Methyl 2,2,2-trichloroethanimidate",
    "duplicated_cas_no": "",
    "SMILES": "C(C(Cl)(Cl)Cl)(OC)=N",
    "meta_data": {
        "InChI": "InChI=1S/C3H4Cl3NO/c1-8-2(7)3(4,5)6/h7H,1H3",
        "InChIKey": null,
        "Canonical SMILES": "ClC(Cl)(Cl)C(=N)OC",
        "Molecular Formula": "C<sub>3</sub>H<sub>4</sub>Cl<sub>3</sub>NO",
        "Molecular Mass": "176.43",
        "Boiling Point": "148-149 °C",
        "Melting Point": "-30 °C"
    }
}