{
    "cas_no": "2442-49-1",
    "key_name": "Methyl tetracosanoate",
    "cn_name": "木蜡酸甲酯;二十四酸甲酯;",
    "alternate_name": "Tetracosanoic acid, methyl ester;Methyl lignocerate;Methyl tetracosanoate;Lignoceric acid methyl ester;C24:0 FAME",
    "duplicated_cas_no": "",
    "SMILES": "C(CCCCCCCCCCCCCCCCC)CCCCCC(OC)=O",
    "meta_data": {
        "InChI": "InChI=1S/C25H50O2/c1-3-4-5-6-7-8-9-10-11-12-13-14-15-16-17-18-19-20-21-22-23-24-25(26)27-2/h3-24H2,1-2H3",
        "InChIKey": null,
        "Canonical SMILES": "O=C(OC)CCCCCCCCCCCCCCCCCCCCCCC",
        "Molecular Formula": "C<sub>25</sub>H<sub>50</sub>O<sub>2</sub>",
        "Molecular Mass": "382.66",
        "Boiling Point": "177-179 °C @ Press: 0.08 Torr",
        "Melting Point": "57.1-57.7 °C"
    }
}