{
    "cas_no": "84-88-8",
    "key_name": "8-Hydroxyquinoline-5-sulfonic acid",
    "cn_name": "8-羟基喹啉-5-磺酸;",
    "alternate_name": "5-Quinolinesulfonic acid, 8-hydroxy-;8-Hydroxyquinoline-5-sulfonic acid;8-Hydroxy-5-quinolinesulfonic acid;5-Sulfo-8-hydroxyquinoline;Oxine-5-sulfonic acid;5-Sulfooxine;8-Quinolinol-5-sulfonic acid;5-Sulfo-8-quinolinol;Sulfoxine;8-Oxyquinoline-5-sulfonic acid;8-Hydroxy-5-sulfoquinoline;NSC 105877;NSC 13139;NSC 220049;HQSA;8-Hydroxylquinoline-5-sulfonic acid",
    "duplicated_cas_no": "39289-41-3;74838-69-0;179421-36-4",
    "SMILES": "S(=O)(=O)(O)C=1C2=C(C(O)=CC1)N=CC=C2",
    "meta_data": {
        "InChI": "InChI=1S/C9H7NO4S/c11-7-3-4-8(15(12,13)14)6-2-1-5-10-9(6)7/h1-5,11H,(H,12,13,14)",
        "InChIKey": null,
        "Canonical SMILES": "O=S(=O)(O)C=1C=CC(O)=C2N=CC=CC21",
        "Molecular Formula": "C<sub>9</sub>H<sub>7</sub>NO<sub>4</sub>S",
        "Molecular Mass": "225.22",
        "Melting Point": "322.5 °C"
    }
}