{
    "cas_no": "1632-68-4",
    "key_name": "Norborneol",
    "cn_name": null,
    "alternate_name": "Bicyclo[2.2.1]heptan-2-ol;2-Norbornanol;Norborneol;Norbornyl alcohol;2-Norborneol;NSC 22454",
    "duplicated_cas_no": "",
    "SMILES": "OC1C2CC(C1)CC2",
    "meta_data": {
        "InChI": "InChI=1S/C7H12O/c8-7-4-5-1-2-6(7)3-5/h5-8H,1-4H2",
        "InChIKey": null,
        "Canonical SMILES": "OC1CC2CCC1C2",
        "Molecular Formula": "C<sub>7</sub>H<sub>12</sub>O",
        "Molecular Mass": "112.17",
        "Boiling Point": "176-177 °C @ Press: 760 Torr",
        "Melting Point": "123-124 °C"
    }
}