{
    "cas_no": "5856-63-3",
    "key_name": "(<em>R</em>)-2-Amino-1-butanol",
    "cn_name": "二氨基-丁醇;",
    "alternate_name": "1-Butanol, 2-amino-, (2<em>R</em>)-;1-Butanol, 2-amino-, (<em>R</em>)-;1-Butanol, 2-amino-, (<em>R</em>)-(-)-;1-Butanol, 2-amino-, (-)-;1-Butanol, 2-amino-, <em>l</em>-;(2<em>R</em>)-2-Amino-1-butanol;<span class=\"text-smallcaps\">D</span>-2-Amino-1-butanol;(-)-2-Amino-1-butanol;(<em>R</em>)-(-)-2-Aminobutan-1-ol;<em>l</em>-2-Amino-1-butanol;<span class=\"text-smallcaps\">D</span>-(-)-2-Amino-1-butanol;(<em>R</em>)-2-Amino-1-butanol;(<em>R</em>)-(-)-2-Amino-1-butanol;[(<em>R</em>)-1-(Hydroxymethyl)propyl]amine;(<em>R</em>)-2-Aminobutanol;(2<em>R</em>)-2-Aminobutan-1-ol;2<em>R</em>-Aminobutanol;(2R)-2-Aminobutan-1-ol",
    "duplicated_cas_no": "",
    "SMILES": "[C@@H](CC)(CO)N",
    "meta_data": {
        "InChI": "InChI=1S/C4H11NO/c1-2-4(5)3-6/h4,6H,2-3,5H2,1H3/t4-/m1/s1",
        "InChIKey": null,
        "Canonical SMILES": "OCC(N)CC",
        "Molecular Formula": "C<sub>4</sub>H<sub>11</sub>NO",
        "Molecular Mass": "89.14",
        "Boiling Point": "98-99 °C @ Press: 31 Torr",
        "Melting Point": "75 °C",
        "Density": "0.939 g/cm³ @ Temp: 25 °C"
    }
}