{
    "cas_no": "18171-74-9",
    "key_name": "<em>tert</em>-Butyltrichlorosilane",
    "cn_name": "叔丁基三氯硅烷;",
    "alternate_name": "Silane, trichloro(1,1-dimethylethyl)-;Silane, <em>tert</em>-butyltrichloro-;Trichloro(1,1-dimethylethyl)silane;<em>tert</em>-Butylsilicon trichloride;<em>tert</em>-Butyltrichlorosilane;<em>t</em>-Butyltrichlorosilane;Trichloro(<em>tert</em>-butyl)silane",
    "duplicated_cas_no": "",
    "SMILES": "C([Si](Cl)(Cl)Cl)(C)(C)C",
    "meta_data": {
        "InChI": "InChI=1S/C4H9Cl3Si/c1-4(2,3)8(5,6)7/h1-3H3",
        "InChIKey": null,
        "Canonical SMILES": "Cl[Si](Cl)(Cl)C(C)(C)C",
        "Molecular Formula": "C<sub>4</sub>H<sub>9</sub>Cl<sub>3</sub>Si",
        "Molecular Mass": "191.56",
        "Boiling Point": "142-143 °C",
        "Melting Point": "97-100 °C",
        "Density": "1.160 g/cm³"
    }
}