{
    "cas_no": "1991-87-3",
    "key_name": "4-Methyl-<span class=\"text-smallcaps\">L</span>-phenylalanine",
    "cn_name": null,
    "alternate_name": "<span class=\"text-smallcaps\">L</span>-Phenylalanine, 4-methyl-;Alanine, 3-<em>p</em>-tolyl-, <span class=\"text-smallcaps\">L</span>-;4-Methyl-<span class=\"text-smallcaps\">L</span>-phenylalanine;<em>p</em>-Methyl-<span class=\"text-smallcaps\">L</span>-phenylalanine;<span class=\"text-smallcaps\">L</span>-4′-Methylphenylalanine;<span class=\"text-smallcaps\">L</span>-4-Methylphenylalanine;(<em>S</em>)-2-Amino-3-(<em>p</em>-tolyl)propanoic acid;(2S)-2-Amino-3-(4-methylphenyl)propanoic acid",
    "duplicated_cas_no": "",
    "SMILES": "C([C@@H](C(O)=O)N)C1=CC=C(C)C=C1",
    "meta_data": {
        "InChI": "InChI=1S/C10H13NO2/c1-7-2-4-8(5-3-7)6-9(11)10(12)13/h2-5,9H,6,11H2,1H3,(H,12,13)/t9-/m0/s1",
        "InChIKey": null,
        "Canonical SMILES": "O=C(O)C(N)CC1=CC=C(C=C1)C",
        "Molecular Formula": "C<sub>10</sub>H<sub>13</sub>NO<sub>2</sub>",
        "Molecular Mass": "179.22",
        "Melting Point": "275-279 °C"
    }
}