{
    "cas_no": "5680-80-8",
    "key_name": "<span class=\"text-smallcaps\">L</span>-Serine, methyl ester, hydrochloride (1:1)",
    "cn_name": "L-丝氨酸甲酯盐酸盐;",
    "alternate_name": "<span class=\"text-smallcaps\">L</span>-Serine, methyl ester, hydrochloride (1:1);Serine, methyl ester, hydrochloride, <span class=\"text-smallcaps\">L</span>-;<span class=\"text-smallcaps\">L</span>-Serine, methyl ester, hydrochloride;Serine methyl ester hydrochloride;Methyl serinate hydrochloride;<span class=\"text-smallcaps\">L</span>-Serine methyl ester monohydrochloride;(<em>S</em>)-Serine methyl ester hydrochloride;Methyl <span class=\"text-smallcaps\">L</span>-serinate hydrochloride;NSC 84252;Methyl (<em>S</em>)-2-amino-3-hydroxypropanoate hydrochloride;1: PN: RU2506269 PAGE: 13 claimed sequence;Methyl (2S)-2-amino-3-hydroxy-propanoate hydrochloride;<span class=\"text-smallcaps\">L</span>-Serine methyl ester·HCl",
    "duplicated_cas_no": "164927-33-7;2909533-14-6",
    "SMILES": "[C@@H](C(OC)=O)(CO)N.Cl",
    "meta_data": {
        "InChI": "InChI=1S/C4H9NO3.ClH/c1-8-4(7)3(5)2-6;/h3,6H,2,5H2,1H3;1H/t3-;/m0./s1",
        "InChIKey": null,
        "Canonical SMILES": "Cl.O=C(OC)C(N)CO",
        "Molecular Formula": "C<sub>4</sub>H<sub>9</sub>NO<sub>3</sub>.ClH",
        "Molecular Mass": "",
        "Melting Point": "161-162 °C"
    }
}