{
    "cas_no": "3379-38-2",
    "key_name": "1,3-Diphenoxybenzene",
    "cn_name": "1,3-联苯氧基苯;",
    "alternate_name": "Benzene, 1,3-diphenoxy-;Benzene, <em>m</em>-diphenoxy-;1,3-Diphenoxybenzene;<em>m</em>-Diphenoxybenzene;<em>m</em>-Phenoxyphenoxybenzene;<em>m</em>-Diphenyloxybenzene;<em>m</em>-3 F2 E",
    "duplicated_cas_no": "",
    "SMILES": "O(C1=CC(OC2=CC=CC=C2)=CC=C1)C3=CC=CC=C3",
    "meta_data": {
        "InChI": "InChI=1S/C18H14O2/c1-3-8-15(9-4-1)19-17-12-7-13-18(14-17)20-16-10-5-2-6-11-16/h1-14H",
        "InChIKey": null,
        "Canonical SMILES": "O(C=1C=CC=CC1)C2=CC=CC(OC=3C=CC=CC3)=C2",
        "Molecular Formula": "C<sub>18</sub>H<sub>14</sub>O<sub>2</sub>",
        "Molecular Mass": "262.30",
        "Boiling Point": "145-151 °C @ Press: 0.3 Torr",
        "Melting Point": "61.5 °C"
    }
}