{
    "cas_no": "22536-64-7",
    "key_name": "2-Chloro-4-methoxy-6-methylpyrimidine",
    "cn_name": null,
    "alternate_name": "Pyrimidine, 2-chloro-4-methoxy-6-methyl-;2-Chloro-4-methoxy-6-methylpyrimidine;2-Chloro-4-methyl-6-methoxypyrimidine",
    "duplicated_cas_no": "",
    "SMILES": "O(C)C=1C=C(C)N=C(Cl)N1",
    "meta_data": {
        "InChI": "InChI=1S/C6H7ClN2O/c1-4-3-5(10-2)9-6(7)8-4/h3H,1-2H3",
        "InChIKey": null,
        "Canonical SMILES": "ClC=1N=C(OC)C=C(N1)C",
        "Molecular Formula": "C<sub>6</sub>H<sub>7</sub>ClN<sub>2</sub>O",
        "Molecular Mass": "158.59",
        "Boiling Point": "99-100 °C @ Press: 5 Torr",
        "Melting Point": "22-25 °C"
    }
}