{
    "cas_no": "34123-59-6",
    "key_name": "Isoproturon",
    "cn_name": "异丙隆;N-4-异丙基苯基-N\",N\"-二甲基脲;",
    "alternate_name": "Urea, <em>N</em>,<em>N</em>-dimethyl-<em>N</em>′-[4-(1-methylethyl)phenyl]-;Urea, 3-<em>p</em>-cumenyl-1,1-dimethyl-;<em>N</em>,<em>N</em>-Dimethyl-<em>N</em>′-[4-(1-methylethyl)phenyl]urea;<em>N</em>′-(<em>p</em>-Cumenyl)-<em>N</em>,<em>N</em>-dimethylurea;<em>N</em>-(4-Isopropylphenyl)-<em>N</em>′,<em>N</em>′-dimethylurea;DPX 6774;<em>N</em>′-(4-Isopropylphenyl)-<em>N</em>,<em>N</em>-dimethylurea;Isoproturon;Ipuron;HOE 16410;Arelon;Arelon R;Graminon;CGA 18731;CL 12150;Tolkan;Hytane 500L;3-(4-Isopropylphenyl)-1,1-dimethylurea;IP 50;<em>N</em>′-(<em>p</em>-Isopropylphenyl)-<em>N</em>,<em>N</em>-dimethylurea;Nocilon;IP-Flo;IPU Stefes;Alon;Alon (pesticide);Protugan;<em>N</em>,<em>N</em>-Dimethyl-<em>N</em>′-(4-isopropylphenyl)urea;Tolkan Flo;Hora-Flo;Isoflo (herbicide);Isoflo;Arelon Dyspersyjny;Izoturon;Iralon;Harpun;Isogard;Stefes IPU;Arelon Top 500SC;1-(4-Isopropylphenyl)-3,3-dimethylurea",
    "duplicated_cas_no": "",
    "SMILES": "N(C(N(C)C)=O)C1=CC=C(C(C)C)C=C1",
    "meta_data": {
        "InChI": "InChI=1S/C12H18N2O/c1-9(2)10-5-7-11(8-6-10)13-12(15)14(3)4/h5-9H,1-4H3,(H,13,15)",
        "InChIKey": null,
        "Canonical SMILES": "O=C(NC1=CC=C(C=C1)C(C)C)N(C)C",
        "Molecular Formula": "C<sub>12</sub>H<sub>18</sub>N<sub>2</sub>O",
        "Molecular Mass": "206.28",
        "Melting Point": "158 °C"
    }
}