{
    "cas_no": "13091-23-1",
    "key_name": "4-Chloro-3-nitropyridine",
    "cn_name": "4-氯-3-硝基吡啶;",
    "alternate_name": "Pyridine, 4-chloro-3-nitro-;4-Chloro-3-nitropyridine;3-Nitro-4-chloropyridine",
    "duplicated_cas_no": "",
    "SMILES": "N(=O)(=O)C=1C(Cl)=CC=NC1",
    "meta_data": {
        "InChI": "InChI=1S/C5H3ClN2O2/c6-4-1-2-7-3-5(4)8(9)10/h1-3H",
        "InChIKey": null,
        "Canonical SMILES": "O=N(=O)C=1C=NC=CC1Cl",
        "Molecular Formula": "C<sub>5</sub>H<sub>3</sub>ClN<sub>2</sub>O<sub>2</sub>",
        "Molecular Mass": "158.54",
        "Boiling Point": "95 °C @ Press: 5 Torr",
        "Melting Point": "45 °C"
    }
}