{
    "cas_no": "4561-10-8",
    "key_name": "<span class=\"text-smallcaps\">L</span>-Glutamic acid, 1,5-bis(phenylmethyl) ester, hydrochloride (1:1)",
    "cn_name": null,
    "alternate_name": "<span class=\"text-smallcaps\">L</span>-Glutamic acid, 1,5-bis(phenylmethyl) ester, hydrochloride (1:1);Glutamic acid, dibenzyl ester, hydrochloride, <span class=\"text-smallcaps\">L</span>-;<span class=\"text-smallcaps\">L</span>-Glutamic acid, bis(phenylmethyl) ester, hydrochloride;Glutamic acid, dibenzyl ester, hydrochloride;Dibenzyl <span class=\"text-smallcaps\">L</span>-glutamate hydrochloride;Dibenzyl glutamate hydrochloride;(<em>S</em>)-Dibenzyl 2-aminopentanedioate hydrochloride",
    "duplicated_cas_no": "",
    "SMILES": "C(OC([C@H](CCC(OCC1=CC=CC=C1)=O)N)=O)C2=CC=CC=C2.Cl",
    "meta_data": {
        "InChI": "InChI=1S/C19H21NO4.ClH/c20-17(19(22)24-14-16-9-5-2-6-10-16)11-12-18(21)23-13-15-7-3-1-4-8-15;/h1-10,17H,11-14,20H2;1H/t17-;/m0./s1",
        "InChIKey": null,
        "Canonical SMILES": "Cl.O=C(OCC=1C=CC=CC1)CCC(N)C(=O)OCC=2C=CC=CC2",
        "Molecular Formula": "C<sub>19</sub>H<sub>21</sub>NO<sub>4</sub>.ClH",
        "Molecular Mass": "",
        "Melting Point": "95-97 °C"
    }
}