{
    "cas_no": "5202-85-7",
    "key_name": "2-Amino-5-chlorobenzamide",
    "cn_name": "2-氨基-5-氯苯甲酰胺;",
    "alternate_name": "Benzamide, 2-amino-5-chloro-;2-Amino-5-chlorobenzamide;5-Chloroanthranilamide;NSC 142032;5-Chloro-2-aminobenzamide",
    "duplicated_cas_no": "",
    "SMILES": "C(N)(=O)C1=C(N)C=CC(Cl)=C1",
    "meta_data": {
        "InChI": "InChI=1S/C7H7ClN2O/c8-4-1-2-6(9)5(3-4)7(10)11/h1-3H,9H2,(H2,10,11)",
        "InChIKey": null,
        "Canonical SMILES": "O=C(N)C1=CC(Cl)=CC=C1N",
        "Molecular Formula": "C<sub>7</sub>H<sub>7</sub>ClN<sub>2</sub>O",
        "Molecular Mass": "170.60",
        "Melting Point": "172-173 °C"
    }
}