{
    "cas_no": "20601-83-6",
    "key_name": "Mercury selenide (HgSe)",
    "cn_name": "硒化汞;",
    "alternate_name": "Mercury selenide (HgSe);Mercuric selenide;Mercury monoselenide;Mercury(2+) selenide;Mercury(II) selenide;Mercury alloy, base, Hg 72,Se 28;Selenium alloy, nonbase, Hg 72,Se 28",
    "duplicated_cas_no": "79484-23-4;1520097-13-5",
    "SMILES": "[Hg]=[Se]",
    "meta_data": {
        "InChI": "InChI=1S/Hg.Se",
        "InChIKey": null,
        "Canonical SMILES": "[Se]=[Hg]",
        "Molecular Formula": "HgSe",
        "Molecular Mass": "",
        "Melting Point": "667 °C"
    }
}