{
    "cas_no": "1124-65-8",
    "key_name": "3-(2-Thienyl)-2-propenoic acid",
    "cn_name": null,
    "alternate_name": "2-Propenoic acid, 3-(2-thienyl)-;2-Thiopheneacrylic acid;3-(2-Thienyl)-2-propenoic acid;2-Thienylacrylic acid;3-(2-Thienyl)acrylic acid;3-(Thiophene-2-yl)acrylic acid;3-Thiophen-2-ylacrylic acid;3-(2-Thienyl)propenoic acid;NSC 4247;3-(Thien-2-yl)acrylic acid",
    "duplicated_cas_no": "",
    "SMILES": "C(=CC(O)=O)C1=CC=CS1",
    "meta_data": {
        "InChI": "InChI=1S/C7H6O2S/c8-7(9)4-3-6-2-1-5-10-6/h1-5H,(H,8,9)",
        "InChIKey": null,
        "Canonical SMILES": "O=C(O)C=CC=1SC=CC1",
        "Molecular Formula": "C<sub>7</sub>H<sub>6</sub>O<sub>2</sub>S",
        "Molecular Mass": "154.19",
        "Melting Point": "143-144 °C"
    }
}