{
    "cas_no": "144-62-7",
    "key_name": "Oxalic acid",
    "cn_name": "草酸;",
    "alternate_name": "Ethanedioic acid;Oxalic acid;Aktisal;Aquisal;NSC 132055;NSC 151956;NSC 62774;NSC 76990;Ultraplast Activate S 52;DeerClean;MeSH ID: D019815",
    "duplicated_cas_no": "63504-28-9;97993-78-7;216451-38-6;2469072-60-2",
    "SMILES": "C(C(O)=O)(O)=O",
    "meta_data": {
        "InChI": "InChI=1S/C2H2O4/c3-1(4)2(5)6/h(H,3,4)(H,5,6)",
        "InChIKey": null,
        "Canonical SMILES": "O=C(O)C(=O)O",
        "Molecular Formula": "C<sub>2</sub>H<sub>2</sub>O<sub>4</sub>",
        "Molecular Mass": "90.03",
        "Boiling Point": "200 °C @ Press: 0.1 Torr",
        "Melting Point": "189.5 °C (decomp)",
        "Density": "1.9 g/cm³"
    }
}