{
    "cas_no": "1891-95-8",
    "key_name": "Chloroxynil",
    "cn_name": "羟敌草腈;",
    "alternate_name": "Benzonitrile, 3,5-dichloro-4-hydroxy-;3,5-Dichloro-4-hydroxybenzonitrile;Chloroxynil;2,6-Dichloro-4-cyanophenol;4-Cyano-2,6-dichlorophenol",
    "duplicated_cas_no": "",
    "SMILES": "C(#N)C1=CC(Cl)=C(O)C(Cl)=C1",
    "meta_data": {
        "InChI": "InChI=1S/C7H3Cl2NO/c8-5-1-4(3-10)2-6(9)7(5)11/h1-2,11H",
        "InChIKey": null,
        "Canonical SMILES": "N#CC1=CC(Cl)=C(O)C(Cl)=C1",
        "Molecular Formula": "C<sub>7</sub>H<sub>3</sub>Cl<sub>2</sub>NO",
        "Molecular Mass": "188.01",
        "Melting Point": "144-145 °C"
    }
}