{
    "cas_no": "3731-53-1",
    "key_name": "4-Pyridinemethanamine",
    "cn_name": "4-甲氨基吡啶;",
    "alternate_name": "4-Pyridinemethanamine;Pyridine, 4-(aminomethyl)-;4-Picolinamine;4-Pyridylmethylamine;4-Picolinylamine;4-Pyridinemethylamine;4-(Aminomethyl)pyridine;4-Picolylamine;γ-Pyridylmethylamine;γ-Picolylamine;γ-(Aminomethyl)pyridine;Pyridin-4-ylmethylamine;1-(Pyridin-4-yl)methanamine;4-Pyridinylmethanamine;NSC 59707;<em>C</em>-(Pyridin-4-yl)methylamine;<em>N</em>-[(4-Pyridinyl)methyl]amine;1-(4-Pyridyl)methylamine;4-Pyridylmethanamine;<em>p</em>-Picolylamine;4-Picolamine",
    "duplicated_cas_no": "",
    "SMILES": "C(N)C=1C=CN=CC1",
    "meta_data": {
        "InChI": "InChI=1S/C6H8N2/c7-5-6-1-3-8-4-2-6/h1-4H,5,7H2",
        "InChIKey": null,
        "Canonical SMILES": "N=1C=CC(=CC1)CN",
        "Molecular Formula": "C<sub>6</sub>H<sub>8</sub>N<sub>2</sub>",
        "Molecular Mass": "108.14",
        "Boiling Point": "230 °C",
        "Melting Point": "-7.6 °C",
        "Density": "1.065 g/cm³"
    }
}