{
    "cas_no": "3953-10-4",
    "key_name": "2-Ethylbutyl acrylate",
    "cn_name": "丙烯酸-2-乙基丁酯;丙烯酸-2-乙基丁酯;",
    "alternate_name": "2-Propenoic acid, 2-ethylbutyl ester;Acrylic acid, 2-ethylbutyl ester;1-Butanol, 2-ethyl-, acrylate;2-Ethylbutyl acrylate;NSC 6121;2-Ethylbutyl prop-2-enoate",
    "duplicated_cas_no": "",
    "SMILES": "C(COC(C=C)=O)(CC)CC",
    "meta_data": {
        "InChI": "InChI=1S/C9H16O2/c1-4-8(5-2)7-11-9(10)6-3/h6,8H,3-5,7H2,1-2H3",
        "InChIKey": null,
        "Canonical SMILES": "O=C(OCC(CC)CC)C=C",
        "Molecular Formula": "C<sub>9</sub>H<sub>16</sub>O<sub>2</sub>",
        "Molecular Mass": "156.22",
        "Boiling Point": "10 °C",
        "Melting Point": "-70 °C",
        "Density": "0.8964 g/cm³"
    }
}