{
    "cas_no": "7783-96-2",
    "key_name": "Silver iodide",
    "cn_name": "碘化银;",
    "alternate_name": "Silver iodide (AgI);Silver iodide;Silver monoiodide;Neosilvol;Silver(I) iodide;Argentous iodide",
    "duplicated_cas_no": "8049-09-0;777844-76-5",
    "SMILES": "[Ag]I",
    "meta_data": {
        "InChI": "InChI=1S/Ag.HI/h;1H/q+1;/p-1",
        "InChIKey": null,
        "Canonical SMILES": "[Ag]I",
        "Molecular Formula": "AgI",
        "Molecular Mass": "",
        "Boiling Point": "1506 °C",
        "Melting Point": "552 °C",
        "Density": "5.67 g/cm³"
    }
}