{
    "cas_no": "4676-39-5",
    "key_name": "3,4-Methylenedioxyphenyl-2-propanone",
    "cn_name": null,
    "alternate_name": "2-Propanone, 1-(1,3-benzodioxol-5-yl)-;2-Propanone, 1-[3,4-(methylenedioxy)phenyl]-;2-Propanone, [3,4-(methylenedioxy)phenyl]-;1-(1,3-Benzodioxol-5-yl)-2-propanone;1-(Acetonyl)-3,4-methylenedioxybenzene;5-Acetonyl-1,3-benzodioxole;3,4-Methylenedioxybenzyl methyl ketone;Methyl piperonyl ketone;3,4-Methylenedioxyphenyl-2-propanone;1-(3,4-Methylenedioxyphenyl)-2-propanone;3,4-Methylenedioxyphenylacetone;(1,3-Benzodioxolan-5-yl)acetone;NSC 16688;1-(2<em>H</em>-1,3-Benzodioxol-5-yl)propan-2-one;1-(Benzo[<em>d</em>][1,3]dioxol-5-yl)propan-2-one;1-(1,3-Benzodioxol-5-yl)acetone",
    "duplicated_cas_no": "",
    "SMILES": "C(C(C)=O)C=1C=C2C(=CC1)OCO2",
    "meta_data": {
        "InChI": "InChI=1S/C10H10O3/c1-7(11)4-8-2-3-9-10(5-8)13-6-12-9/h2-3,5H,4,6H2,1H3",
        "InChIKey": null,
        "Canonical SMILES": "O=C(C)CC1=CC=C2OCOC2=C1",
        "Molecular Formula": "C<sub>10</sub>H<sub>10</sub>O<sub>3</sub>",
        "Molecular Mass": "178.18",
        "Boiling Point": "156 °C @ Press: 11 Torr",
        "Melting Point": "87-88 °C"
    }
}