{
    "cas_no": "96-53-7",
    "key_name": "2-Thiazolidinethione",
    "cn_name": "2-巯基噻唑啉;",
    "alternate_name": "2-Thiazolidinethione;2-Thiazoline-2-thiol;2-Mercaptothiazoline;2-Mercapto-2-thiazoline;2-Thiothiazolidone;Metabasal;Thyroidan;2-Mercapto-Δ<sup>2</sup>-thiazoline;4,5-Dihydro-2-mercaptothiazole;Tetrahydrothiazole-2-thione;Δ<sup>2</sup>-Thiazoline-2-thiol;2-Mercapto-4,5-dihydrothiazole;Sancelent 2MT;WR 305;1,3-Thiazolidine-2-thione;4,5-Dihydrothiazole-2-thiol;1,3-Thiazolidin-2-thione;NSC 680;5-Isothiazolidinethione",
    "duplicated_cas_no": "1437-88-3;29964-20-3;1818354-15-2",
    "SMILES": "S=C1NCCS1",
    "meta_data": {
        "InChI": "InChI=1S/C3H5NS2/c5-3-4-1-2-6-3/h1-2H2,(H,4,5)",
        "InChIKey": null,
        "Canonical SMILES": "S=C1SCCN1",
        "Molecular Formula": "C<sub>3</sub>H<sub>5</sub>NS<sub>2</sub>",
        "Molecular Mass": "119.21",
        "Boiling Point": "176-178 °C @ Press: 0.25 Torr",
        "Melting Point": "120-125 °C"
    }
}