{
    "cas_no": "596-03-2",
    "key_name": "Solvent Red 72",
    "cn_name": "4\",5\"-二溴荧光素;",
    "alternate_name": "Spiro[isobenzofuran-1(3<em>H</em>),9′-[9<em>H</em>]xanthen]-3-one, 4′,5′-dibromo-3′,6′-dihydroxy-;Fluorescein, 4′,5′-dibromo-;4′,5′-Dibromo-3′,6′-dihydroxyspiro[isobenzofuran-1(3<em>H</em>),9′-[9<em>H</em>]xanthen]-3-one;C.I. Solvent Red 72;D and C Orange No. 5;4′,5′-Dibromofluorescein;C.I. 45370:1;Solvent Red 72;Eosinic acid;Japan Orange 201;Japan Orange No. 201;D&amp;C Orange No. 5;D &amp; C Orange 5;Orange No. 201;CI 45370;Unicert Orange K 7003",
    "duplicated_cas_no": "56136-34-6;342043-93-0",
    "SMILES": "O=C1OC2(C=3C(OC=4C2=CC=C(O)C4Br)=C(Br)C(O)=CC3)C=5C1=CC=CC5",
    "meta_data": {
        "InChI": "InChI=1S/C20H10Br2O5/c21-15-13(23)7-5-11-17(15)26-18-12(6-8-14(24)16(18)22)20(11)10-4-2-1-3-9(10)19(25)27-20/h1-8,23-24H",
        "InChIKey": null,
        "Canonical SMILES": "O=C1OC2(C3=CC=C(O)C(Br)=C3OC4=C(Br)C(O)=CC=C42)C=5C=CC=CC15",
        "Molecular Formula": "C<sub>20</sub>H<sub>10</sub>Br<sub>2</sub>O<sub>5</sub>",
        "Molecular Mass": "490.10",
        "Melting Point": "285 °C"
    }
}