{
    "cas_no": "6578-07-0",
    "key_name": "1<em>H</em>-Indol-3-ol, 5-bromo-4-chloro-, 3-(hydrogen sulfate), potassium salt (1:1)",
    "cn_name": "4-氯-3-吲哚基硫酸钾盐;5-溴-4-氯-3-吲羟硫酸钾;",
    "alternate_name": "1<em>H</em>-Indol-3-ol, 5-bromo-4-chloro-, 3-(hydrogen sulfate), potassium salt (1:1);Indol-3-ol, 5-bromo-4-chloro-, hydrogen sulfate (ester), K salt;Indol-3-ol, 5-bromo-4-chloro-, hydrogen sulfate, potassium salt;1<em>H</em>-Indol-3-ol, 5-bromo-4-chloro-, hydrogen sulfate (ester), monopotassium salt",
    "duplicated_cas_no": "1309597-68-9",
    "SMILES": "O(S(=O)(=O)O)C=1C=2C(NC1)=CC=C(Br)C2Cl.[K]",
    "meta_data": {
        "InChI": "InChI=1S/C8H5BrClNO4S.K/c9-4-1-2-5-7(8(4)10)6(3-11-5)15-16(12,13)14;/h1-3,11H,(H,12,13,14);",
        "InChIKey": null,
        "Canonical SMILES": "[K].O=S(=O)(O)OC1=CNC=2C=CC(Br)=C(Cl)C12",
        "Molecular Formula": "C<sub>8</sub>H<sub>5</sub>BrClNO<sub>4</sub>S.K",
        "Molecular Mass": "",
        "Melting Point": "200-202 °C"
    }
}