{
    "cas_no": "112022-81-8",
    "key_name": "(3a<em>S</em>)-Tetrahydro-1-methyl-3,3-diphenyl-1<em>H</em>,3<em>H</em>-pyrrolo[1,2-<em>c</em>][1,3,2]oxazaborole",
    "cn_name": "(S)-2-甲基-CBS-恶唑硼烷;",
    "alternate_name": "1<em>H</em>,3<em>H</em>-Pyrrolo[1,2-<em>c</em>][1,3,2]oxazaborole, tetrahydro-1-methyl-3,3-diphenyl-, (3a<em>S</em>)-;1<em>H</em>,3<em>H</em>-Pyrrolo[1,2-<em>c</em>][1,3,2]oxazaborole, tetrahydro-1-methyl-3,3-diphenyl-, (<em>S</em>)-;(3a<em>S</em>)-Tetrahydro-1-methyl-3,3-diphenyl-1<em>H</em>,3<em>H</em>-pyrrolo[1,2-<em>c</em>][1,3,2]oxazaborole;(<em>S</em>)-Tetrahydro-1-methyl-3,3-diphenyl-1<em>H</em>,3<em>H</em>-pyrrolo[1,2-<em>c</em>][1,3,2]oxazaborole;(<em>S</em>)-Tetrahydro-1-methyl-3,3-diphenyl-1<em>H</em>,3<em>H</em>-pyrrolo[1,2-c][1,3,2]oxazaborole;(<em>S</em>)-2-Methyl-CBS-oxazaborolidine;(<em>S</em>)-CBS reagent;(<em>S</em>)-Methyl-CBS;(<em>S</em>)-(-)-2-Methyl-CBS-oxazaborolidine;(<em>S</em>)-Me-CBS;(3AS)-1-methyl-3,3-diphenyl-3a,4,5,6-tetrahydropyrrolo[1,2-<em>c</em>][1,3,2]oxazaborole;(<em>S</em>)-3,3-Diphenyl-1-Methyltetrahydro-1<em>H</em>,3<em>H</em>-Pyrrolo[1,2-<em>c</em>][1,3,2]Oxazaborole",
    "duplicated_cas_no": "",
    "SMILES": "CB1OC([C@]2(N1CCC2)[H])(C3=CC=CC=C3)C4=CC=CC=C4",
    "meta_data": {
        "InChI": "InChI=1S/C18H20BNO/c1-19-20-14-8-13-17(20)18(21-19,15-9-4-2-5-10-15)16-11-6-3-7-12-16/h2-7,9-12,17H,8,13-14H2,1H3/t17-/m0/s1",
        "InChIKey": null,
        "Canonical SMILES": "O1B(N2CCCC2C1(C=3C=CC=CC3)C=4C=CC=CC4)C",
        "Molecular Formula": "C<sub>18</sub>H<sub>20</sub>BNO",
        "Molecular Mass": "277.17",
        "Melting Point": "74-87 °C"
    }
}