{
    "cas_no": "930-87-0",
    "key_name": "1,2,5-Trimethyl-1<em>H</em>-pyrrole",
    "cn_name": "1,2,5-三甲基吡咯;1,2,5-三甲基吡咯;",
    "alternate_name": "1<em>H</em>-Pyrrole, 1,2,5-trimethyl-;Pyrrole, 1,2,5-trimethyl-;1,2,5-Trimethyl-1<em>H</em>-pyrrole;1,2,5-Trimethylpyrrole;NSC 81220",
    "duplicated_cas_no": "",
    "SMILES": "CN1C(C)=CC=C1C",
    "meta_data": {
        "InChI": "InChI=1S/C7H11N/c1-6-4-5-7(2)8(6)3/h4-5H,1-3H3",
        "InChIKey": null,
        "Canonical SMILES": "C=1C=C(N(C1C)C)C",
        "Molecular Formula": "C<sub>7</sub>H<sub>11</sub>N",
        "Molecular Mass": "109.17",
        "Boiling Point": "171 °C",
        "Density": "0.9166 g/cm³ @ Temp: 20 °C"
    }
}