{
    "cas_no": "1314-84-7",
    "key_name": "Zinc phosphide",
    "cn_name": null,
    "alternate_name": "Zinc phosphide (Zn<sub>3</sub>P<sub>2</sub>);Zinc phosphide;Trizinc diphosphide;Delusal;Stutox;Arrex E;Stutox I;ZP Rodent Bait AG;Ratol;Zinctox;Nera",
    "duplicated_cas_no": "39342-49-9;67181-74-2;74191-18-7",
    "SMILES": "",
    "meta_data": {
        "InChI": "",
        "InChIKey": null,
        "Canonical SMILES": "",
        "Molecular Formula": "P<sub>2</sub>Zn<sub>3</sub>",
        "Molecular Mass": "",
        "Boiling Point": "1100 °C",
        "Melting Point": "420 °C",
        "Density": "4.55 g/cm³"
    }
}