{
    "uri": "substance/pt/1314847",
    "rn": "1314-84-7",
    "name": "Zinc phosphide",
    "images": [],
    "inchi": "",
    "inchiKey": "",
    "smile": "",
    "canonicalSmile": "",
    "molecularFormula": "P<sub>2</sub>Zn<sub>3</sub>",
    "molecularMass": "",
    "experimentalProperties": [
        {
            "name": "Boiling Point",
            "property": "1100 °C",
            "sourceNumber": 1
        },
        {
            "name": "Melting Point",
            "property": "420 °C",
            "sourceNumber": 1
        },
        {
            "name": "Density",
            "property": "4.55 g/cm³",
            "sourceNumber": 1
        }
    ],
    "propertyCitations": [
        {
            "docUri": "",
            "sourceNumber": 1,
            "source": "Hazardous Substances Data Bank data were obtained from the National Library of Medicine (US)"
        }
    ],
    "synonyms": [
        "Zinc phosphide (Zn<sub>3</sub>P<sub>2</sub>)",
        "Zinc phosphide",
        "Trizinc diphosphide",
        "Delusal",
        "Stutox",
        "Arrex E",
        "Stutox I",
        "ZP Rodent Bait AG",
        "Ratol",
        "Zinctox",
        "Nera"
    ],
    "replacedRns": [
        "39342-49-9",
        "67181-74-2",
        "74191-18-7"
    ],
    "hasMolfile": false,
    "source": "https://commonchemistry.cas.org/detail?cas_rn=1314-84-7"
}