{
    "cas_no": "89604-91-1",
    "key_name": "<em>S</em>-2-Benzothiazolyl (α<em>Z</em>)-5-amino-α-(methoxyimino)-1,2,4-thiadiazole-3-ethanethioate",
    "cn_name": "(Z)-2-(5-氨基-1,2,4-噻二唑-3-基)-2-甲氧亚氨基硫代乙酸(S)-2-苯并噻唑酯;",
    "alternate_name": "1,2,4-Thiadiazole-3-ethanethioic acid, 5-amino-α-(methoxyimino)-, <em>S</em>-2-benzothiazolyl ester, (α<em>Z</em>)-;1,2,4-Thiadiazole-3-ethanethioic acid, 5-amino-α-(methoxyimino)-, <em>S</em>-2-benzothiazolyl ester, (<em>Z</em>)-;<em>S</em>-2-Benzothiazolyl (α<em>Z</em>)-5-amino-α-(methoxyimino)-1,2,4-thiadiazole-3-ethanethioate",
    "duplicated_cas_no": "",
    "SMILES": "S(C(/C(=N\\OC)/C1=NSC(N)=N1)=O)C2=NC=3C(S2)=CC=CC3",
    "meta_data": {
        "InChI": "InChI=1S/C12H9N5O2S3/c1-19-16-8(9-15-11(13)22-17-9)10(18)21-12-14-6-4-2-3-5-7(6)20-12/h2-5H,1H3,(H2,13,15,17)/b16-8-",
        "InChIKey": null,
        "Canonical SMILES": "O=C(SC1=NC=2C=CC=CC2S1)C(=NOC)C3=NSC(=N3)N",
        "Molecular Formula": "C<sub>12</sub>H<sub>9</sub>N<sub>5</sub>O<sub>2</sub>S<sub>3</sub>",
        "Molecular Mass": "351.43",
        "Melting Point": "164-165 °C"
    }
}