{
    "cas_no": "273-15-4",
    "key_name": "2,1,3-Benzoselenadiazole",
    "cn_name": null,
    "alternate_name": "2,1,3-Benzoselenadiazole;Phenylpiazselenole;Piaselenole;Piazselenol;Piazselenole;2-Selena-1,3-diaza-2<em>H</em>-isoindene;3,4-Benzo-1,2,5-selenadiazole;NSC 408467",
    "duplicated_cas_no": "1177120-59-0",
    "SMILES": "C=12C(=N[Se]N1)C=CC=C2",
    "meta_data": {
        "InChI": "InChI=1S/C6H4N2Se/c1-2-4-6-5(3-1)7-9-8-6/h1-4H",
        "InChIKey": null,
        "Canonical SMILES": "N=1[Se]N=C2C=CC=CC12",
        "Molecular Formula": "C<sub>6</sub>H<sub>4</sub>N<sub>2</sub>Se",
        "Molecular Mass": "183.07",
        "Melting Point": "75 °C"
    }
}