{
    "cas_no": "83883-25-4",
    "key_name": "4-[(6-Hydroxyhexyl)oxy]benzoic acid",
    "cn_name": null,
    "alternate_name": "Benzoic acid, 4-[(6-hydroxyhexyl)oxy]-;4-[(6-Hydroxyhexyl)oxy]benzoic acid;4-(6-Hydroxyhexyloxy)benzoic acid;<em>p</em>-[(6-Hydroxyhexyl)oxy]benzoic acid;4-(6-Hydroxyhex-1-yloxy)benzoic acid",
    "duplicated_cas_no": "",
    "SMILES": "O(CCCCCCO)C1=CC=C(C(O)=O)C=C1",
    "meta_data": {
        "InChI": "InChI=1S/C13H18O4/c14-9-3-1-2-4-10-17-12-7-5-11(6-8-12)13(15)16/h5-8,14H,1-4,9-10H2,(H,15,16)",
        "InChIKey": null,
        "Canonical SMILES": "O=C(O)C1=CC=C(OCCCCCCO)C=C1",
        "Molecular Formula": "C<sub>13</sub>H<sub>18</sub>O<sub>4</sub>",
        "Molecular Mass": "238.28",
        "Melting Point": "139-140 °C"
    }
}