{
    "cas_no": "77501-90-7",
    "key_name": "Fluoroglycofen-ethyl",
    "cn_name": "乙羧氟草醚;[5-(2-氯三氟对甲苯氧基)-2-硝基苯甲酰基]羟基乙酸乙酯;",
    "alternate_name": "Benzoic acid, 5-[2-chloro-4-(trifluoromethyl)phenoxy]-2-nitro-, 2-ethoxy-2-oxoethyl ester;Fluoroglycofen-ethyl;Compete;RH 0265;Simtar;2-Ethoxy-2-oxoethyl 5-(2-chloro-4-(trifluoromethyl)phenoxy)-2-nitrobenzoate",
    "duplicated_cas_no": "77137-85-0",
    "SMILES": "C(OCC(OCC)=O)(=O)C1=C(N(=O)=O)C=CC(OC2=C(Cl)C=C(C(F)(F)F)C=C2)=C1",
    "meta_data": {
        "InChI": "InChI=1S/C18H13ClF3NO7/c1-2-28-16(24)9-29-17(25)12-8-11(4-5-14(12)23(26)27)30-15-6-3-10(7-13(15)19)18(20,21)22/h3-8H,2,9H2,1H3",
        "InChIKey": null,
        "Canonical SMILES": "O=C(OCC(=O)OCC)C1=CC(OC2=CC=C(C=C2Cl)C(F)(F)F)=CC=C1N(=O)=O",
        "Molecular Formula": "C<sub>18</sub>H<sub>13</sub>ClF<sub>3</sub>NO<sub>7</sub>",
        "Molecular Mass": "447.75",
        "Melting Point": "65 °C"
    }
}