{
    "cas_no": "60125-23-7",
    "key_name": "(2<em>E</em>)-3-(2-Hydroxyphenyl)-2-propenal",
    "cn_name": null,
    "alternate_name": "2-Propenal, 3-(2-hydroxyphenyl)-, (2<em>E</em>)-;2-Propenal, 3-(2-hydroxyphenyl)-, (<em>E</em>)-;(2<em>E</em>)-3-(2-Hydroxyphenyl)-2-propenal;<em>trans</em>-2-Hydroxycinnamaldehyde;(<em>E</em>)-3-(2-Hydroxyphenyl)acrylaldehyde;<em>o</em>-Hydroxy-<em>trans</em>-cinnamaldehyde",
    "duplicated_cas_no": "",
    "SMILES": "C(=C/C=O)\\C1=C(O)C=CC=C1",
    "meta_data": {
        "InChI": "InChI=1S/C9H8O2/c10-7-3-5-8-4-1-2-6-9(8)11/h1-7,11H/b5-3+",
        "InChIKey": null,
        "Canonical SMILES": "O=CC=CC=1C=CC=CC1O",
        "Molecular Formula": "C<sub>9</sub>H<sub>8</sub>O<sub>2</sub>",
        "Molecular Mass": "148.16",
        "Melting Point": "122-123 °C"
    }
}