{
    "cas_no": "87-69-4",
    "key_name": "(+)-Tartaric acid",
    "cn_name": "左旋酒石酸;L(+)-酒石酸;",
    "alternate_name": "Butanedioic acid, 2,3-dihydroxy- (2<em>R</em>,3<em>R</em>)-;Tartaric acid, <span class=\"text-smallcaps\">L</span>-(+)-;Butanedioic acid, 2,3-dihydroxy- [<em>R</em>-(<em>R</em>*,<em>R</em>*)]-;(2<em>R</em>,3<em>R</em>)-2,3-Dihydroxybutanedioic acid;Dextrotartaric acid;<em>d</em>-α,β-Dihydroxysuccinic acid;Natural tartaric acid;<span class=\"text-smallcaps\">L</span>-Tartaric acid;Tartaric acid;<span class=\"text-smallcaps\">L</span>-(+)-Tartaric acid;Threaric acid;(+)-Tartaric acid;1,2-Dihydroxyethane-1,2-dicarboxylic acid;(<em>R</em>,<em>R</em>)-(+)-Tartaric acid;<em>d</em>-Tartaric acid;(<em>R</em>,<em>R</em>)-Tartaric acid;2,3-Dihydroxybutanedioic acid;(+)-(<em>R</em>,<em>R</em>)-Tartaric acid;(2<em>R</em>,3<em>R</em>)-(+)-Tartaric acid;(+)-<span class=\"text-smallcaps\">L</span>-Tartaric acid;(2<em>R</em>,3<em>R</em>)-Tartaric acid;E 334;Dihydroxysuccinic acid;NSC 62778;(2<em>R</em>,3<em>R</em>)-2,3-Dihydroxysuccinic acid;(+)-(2<em>R</em>,3<em>R</em>)-Tartaric acid;2,3-Dihydroxysuccinic acid;(2R,3R)-2,3-Dihydroxysuccinic acid",
    "duplicated_cas_no": "1336-18-1;8014-54-8;8059-77-6;1039646-76-8;1334703-49-9;1488329-53-8;2088032-42-0;2411406-12-5",
    "SMILES": "[C@@H]([C@H](C(O)=O)O)(C(O)=O)O",
    "meta_data": {
        "InChI": "InChI=1S/C4H6O6/c5-1(3(7)8)2(6)4(9)10/h1-2,5-6H,(H,7,8)(H,9,10)/t1-,2-/m1/s1",
        "InChIKey": null,
        "Canonical SMILES": "O=C(O)C(O)C(O)C(=O)O",
        "Molecular Formula": "C<sub>4</sub>H<sub>6</sub>O<sub>6</sub>",
        "Molecular Mass": "150.09",
        "Melting Point": "169 °C",
        "Density": "1.737 g/cm³"
    }
}