{
    "cas_no": "57-97-6",
    "key_name": "7,12-Dimethylbenz[<em>a</em>]anthracene",
    "cn_name": "7,12-二甲基苯并蒽;",
    "alternate_name": "Benz[<em>a</em>]anthracene, 7,12-dimethyl-;7,12-Dimethylbenz[<em>a</em>]anthracene;DMBA;7,12-DMBA;9,10-Dimethyl-1,2-benzanthracene;9,10-Dimethyl-1,2-benz[<em>a</em>]anthracene;DMBA (pharmaceutical);NSC 408823;DMBAn;MeSH ID: D015127",
    "duplicated_cas_no": "56-56-4",
    "SMILES": "CC=1C=2C(C(C)=C3C1C=CC=C3)=CC=C4C2C=CC=C4",
    "meta_data": {
        "InChI": "InChI=1S/C20H16/c1-13-16-8-5-6-9-17(16)14(2)20-18(13)12-11-15-7-3-4-10-19(15)20/h3-12H,1-2H3",
        "InChIKey": null,
        "Canonical SMILES": "C=1C=CC2=C(C1)C=CC=3C2=C(C=4C=CC=CC4C3C)C",
        "Molecular Formula": "C<sub>20</sub>H<sub>16</sub>",
        "Molecular Mass": "256.34",
        "Melting Point": "123.5 °C"
    }
}