{
    "cas_no": "2481-94-9",
    "key_name": "Solvent Yellow 56",
    "cn_name": "溶剂黄56;N,N-二乙基-4-(苯基偶氮)苯胺;",
    "alternate_name": "Benzenamine, <em>N</em>,<em>N</em>-diethyl-4-(2-phenyldiazenyl)-;C.I. Solvent Yellow 56;Benzenamine, <em>N</em>,<em>N</em>-diethyl-4-(phenylazo)-;Aniline, <em>N</em>,<em>N</em>-diethyl-<em>p</em>-(phenylazo)-;<em>N</em>,<em>N</em>-Diethyl-4-(2-phenyldiazenyl)benzenamine;C.I. 11021;Ceres Yellow GGN;Diethyl yellow;Oil Yellow 2635;Oil Yellow DE;Oil Yellow DEA;Oil Yellow ENC;Oil Yellow GA;Oil Yellow NB;Sudan Yellow GGN;Waxoline Yellow ED;4-(Diethylamino)azobenzene;4-(Phenylazo)-<em>N</em>,<em>N</em>-diethylaniline;<em>p</em>-(Diethylamino)azobenzene;<em>N</em>,<em>N</em>-Diethyl-4-(phenylazo)aniline;<em>N</em>,<em>N</em>-Diethyl-4-aminoazobenzene;4-(<em>N</em>,<em>N</em>-Diethylamino)azobenzene;Fat Yellow GGN;Fast Oil Yellow 64403;Orient Oil Yellow GGS;Sico Fat Yellow P;Sudan Yellow 150;Solvent Yellow 56;Aizen SOT Yellow 1;SOT Yellow 1;Orient Oil Yellow 56;Akrodye Oil Yellow 6;Oilsol Yellow DEA;Oil Yellow SS Special;NSC 102374;Oil Yellow GE",
    "duplicated_cas_no": "111146-18-0;12227-52-0",
    "SMILES": "N(CC)(CC)C1=CC=C(N=NC2=CC=CC=C2)C=C1",
    "meta_data": {
        "InChI": "InChI=1S/C16H19N3/c1-3-19(4-2)16-12-10-15(11-13-16)18-17-14-8-6-5-7-9-14/h5-13H,3-4H2,1-2H3",
        "InChIKey": null,
        "Canonical SMILES": "N(=NC1=CC=C(C=C1)N(CC)CC)C=2C=CC=CC2",
        "Molecular Formula": "C<sub>16</sub>H<sub>19</sub>N<sub>3</sub>",
        "Molecular Mass": "253.34",
        "Melting Point": "97-98 °C"
    }
}