{
    "cas_no": "769-20-0",
    "key_name": "7-Bromo-6-benzothiazolamine",
    "cn_name": null,
    "alternate_name": "6-Benzothiazolamine, 7-bromo-;Benzothiazole, 6-amino-7-bromo-;7-Bromo-6-benzothiazolamine;7-Bromobenzo[<em>d</em>]thiazol-6-amine",
    "duplicated_cas_no": "",
    "SMILES": "BrC1=C2C(=CC=C1N)N=CS2",
    "meta_data": {
        "InChI": "InChI=1S/C7H5BrN2S/c8-6-4(9)1-2-5-7(6)11-3-10-5/h1-3H,9H2",
        "InChIKey": null,
        "Canonical SMILES": "BrC1=C(N)C=CC=2N=CSC21",
        "Molecular Formula": "C<sub>7</sub>H<sub>5</sub>BrN<sub>2</sub>S",
        "Molecular Mass": "229.10",
        "Melting Point": "123 °C"
    }
}