{
    "cas_no": "758-12-3",
    "key_name": "Acetic acid-<em>d</em>",
    "cn_name": "乙酸-d1;",
    "alternate_name": "Acetic acid-<em>d</em>",
    "duplicated_cas_no": "2116510-92-8",
    "SMILES": "C(C)(O[2H])=O",
    "meta_data": {
        "InChI": "InChI=1S/C2H4O2/c1-2(3)4/h1H3,(H,3,4)/i/hD",
        "InChIKey": null,
        "Canonical SMILES": "O=C(O)C",
        "Molecular Formula": "C<sub>2</sub>H<sub>3</sub>DO<sub>2</sub>",
        "Molecular Mass": "",
        "Melting Point": "15.66 °C",
        "Density": "1.0588 g/cm³ @ Temp: 25 °C"
    }
}