{
    "cas_no": "518057-64-2",
    "key_name": "6-Chloro-2-iodo-3-(trifluoromethyl)pyridine",
    "cn_name": null,
    "alternate_name": "Pyridine, 6-chloro-2-iodo-3-(trifluoromethyl)-;6-Chloro-2-iodo-3-(trifluoromethyl)pyridine",
    "duplicated_cas_no": "",
    "SMILES": "C(F)(F)(F)C1=C(I)N=C(Cl)C=C1",
    "meta_data": {
        "InChI": "InChI=1S/C6H2ClF3IN/c7-4-2-1-3(5(11)12-4)6(8,9)10/h1-2H",
        "InChIKey": null,
        "Canonical SMILES": "FC(F)(F)C1=CC=C(Cl)N=C1I",
        "Molecular Formula": "C<sub>6</sub>H<sub>2</sub>ClF<sub>3</sub>IN",
        "Molecular Mass": "307.44",
        "Boiling Point": "65-66 °C @ Press: 1.5 Torr",
        "Melting Point": "-5--4 °C"
    }
}