{
    "cas_no": "20358-02-5",
    "key_name": "4-Bromo-2-benzothiazolamine",
    "cn_name": null,
    "alternate_name": "2-Benzothiazolamine, 4-bromo-;Benzothiazole, 2-amino-4-bromo-;4-Bromo-2-benzothiazolamine;2-Amino-4-bromobenzothiazole;4-Bromobenzo[<em>d</em>]thiazol-2-amine;2-Amino-4-bromo-1,3-benzothiazole",
    "duplicated_cas_no": "",
    "SMILES": "BrC1=C2C(SC(N)=N2)=CC=C1",
    "meta_data": {
        "InChI": "InChI=1S/C7H5BrN2S/c8-4-2-1-3-5-6(4)10-7(9)11-5/h1-3H,(H2,9,10)",
        "InChIKey": null,
        "Canonical SMILES": "BrC1=CC=CC=2SC(=NC12)N",
        "Molecular Formula": "C<sub>7</sub>H<sub>5</sub>BrN<sub>2</sub>S",
        "Molecular Mass": "229.10",
        "Melting Point": "182-184 °C"
    }
}