{
    "cas_no": "622-32-2",
    "key_name": "[<em>C</em>(<em>Z</em>)]-Benzaldehyde oxime",
    "cn_name": null,
    "alternate_name": "Benzaldehyde, oxime, [<em>C</em>(<em>Z</em>)]-;Benzaldehyde, oxime, (<em>Z</em>)-;Benzaldehyde, oxime, <em>anti</em>-;[<em>C</em>(<em>Z</em>)]-Benzaldehyde oxime;<em>anti</em>-Benzaldoxime;(<em>Z</em>)-Benzaldoxime;(<em>Z</em>)-Benzaldehyde oxime;<em>cis</em>-Benzaldehyde oxime",
    "duplicated_cas_no": "",
    "SMILES": "C(=N\\O)\\C1=CC=CC=C1",
    "meta_data": {
        "InChI": "InChI=1S/C7H7NO/c9-8-6-7-4-2-1-3-5-7/h1-6,9H/b8-6-",
        "InChIKey": null,
        "Canonical SMILES": "ON=CC=1C=CC=CC1",
        "Molecular Formula": "C<sub>7</sub>H<sub>7</sub>NO",
        "Molecular Mass": "121.14",
        "Boiling Point": "200 °C",
        "Melting Point": "36.5 °C"
    }
}