{
    "cas_no": "1550-35-2",
    "key_name": "2,4-Difluorobenzaldehyde",
    "cn_name": "2,4-二氟苯甲醛;",
    "alternate_name": "Benzaldehyde, 2,4-difluoro-;2,4-Difluorobenzaldehyde;4-Fluoro-2-fluorobenzaldehyde;4,6-Difluorobenzaldehyde",
    "duplicated_cas_no": "",
    "SMILES": "C(=O)C1=C(F)C=C(F)C=C1",
    "meta_data": {
        "InChI": "InChI=1S/C7H4F2O/c8-6-2-1-5(4-10)7(9)3-6/h1-4H",
        "InChIKey": null,
        "Canonical SMILES": "O=CC1=CC=C(F)C=C1F",
        "Molecular Formula": "C<sub>7</sub>H<sub>4</sub>F<sub>2</sub>O",
        "Molecular Mass": "142.10",
        "Boiling Point": "62-63 °C",
        "Melting Point": "65-66 °C"
    }
}