{
    "cas_no": "165670-57-5",
    "key_name": "2-(1-Methyl-1-phenylethyl)-5-phenyl-2<em>H</em>-tetrazole",
    "cn_name": null,
    "alternate_name": "2<em>H</em>-Tetrazole, 2-(1-methyl-1-phenylethyl)-5-phenyl-;2-(1-Methyl-1-phenylethyl)-5-phenyl-2<em>H</em>-tetrazole;2-Cumyl-5-phenyltetrazole",
    "duplicated_cas_no": "",
    "SMILES": "C(C)(C)(N1N=C(N=N1)C2=CC=CC=C2)C3=CC=CC=C3",
    "meta_data": {
        "InChI": "InChI=1S/C16H16N4/c1-16(2,14-11-7-4-8-12-14)20-18-15(17-19-20)13-9-5-3-6-10-13/h3-12H,1-2H3",
        "InChIKey": null,
        "Canonical SMILES": "N1=NN(N=C1C2=CC=CC=C2)C(C=3C=CC=CC3)(C)C",
        "Molecular Formula": "C<sub>16</sub>H<sub>16</sub>N<sub>4</sub>",
        "Molecular Mass": "264.33",
        "Melting Point": "51 °C"
    }
}