{
    "cas_no": "103-59-3",
    "key_name": "Cinnamyl isobutyrate",
    "cn_name": "2-甲基-丙酸-3-苯基-2-丙烯醇酯;异丁酸肉桂醇酯;异丁酸肉桂酯;",
    "alternate_name": "Propanoic acid, 2-methyl-, 3-phenyl-2-propen-1-yl ester;Isobutyric acid, cinnamyl ester;Propanoic acid, 2-methyl-, 3-phenyl-2-propenyl ester;Cinnamyl alcohol, isobutyrate;Cinnamyl isobutyrate;3-Phenyl-2-propen-1-yl isobutyrate;NSC 46133",
    "duplicated_cas_no": "",
    "SMILES": "C(=CCOC(C(C)C)=O)C1=CC=CC=C1",
    "meta_data": {
        "InChI": "InChI=1S/C13H16O2/c1-11(2)13(14)15-10-6-9-12-7-4-3-5-8-12/h3-9,11H,10H2,1-2H3",
        "InChIKey": null,
        "Canonical SMILES": "O=C(OCC=CC=1C=CC=CC1)C(C)C",
        "Molecular Formula": "C<sub>13</sub>H<sub>16</sub>O<sub>2</sub>",
        "Molecular Mass": "204.26",
        "Boiling Point": "254 °C"
    }
}