{
    "cas_no": "603-67-8",
    "key_name": "1,3-Diethyl 2-nitropropanedioate",
    "cn_name": "硝基丙二酸二乙酯;",
    "alternate_name": "Propanedioic acid, 2-nitro-, 1,3-diethyl ester;Malonic acid, nitro-, diethyl ester;Propanedioic acid, nitro-, diethyl ester;1,3-Diethyl 2-nitropropanedioate;Diethyl nitromalonate;NSC 140874;Diethyl 2-nitromalonate",
    "duplicated_cas_no": "",
    "SMILES": "C(C(OCC)=O)(C(OCC)=O)N(=O)=O",
    "meta_data": {
        "InChI": "InChI=1S/C7H11NO6/c1-3-13-6(9)5(8(11)12)7(10)14-4-2/h5H,3-4H2,1-2H3",
        "InChIKey": null,
        "Canonical SMILES": "O=C(OCC)C(C(=O)OCC)N(=O)=O",
        "Molecular Formula": "C<sub>7</sub>H<sub>11</sub>NO<sub>6</sub>",
        "Molecular Mass": "205.17",
        "Boiling Point": "152-153 °C @ Press: 37-38 Torr"
    }
}