{
    "cas_no": "68291-97-4",
    "key_name": "Zonisamide",
    "cn_name": null,
    "alternate_name": "1,2-Benzisoxazole-3-methanesulfonamide;3-(Sulfamoylmethyl)-1,2-benzisoxazole;AD 810;Zonisamide;CI 912;PD 110843;(1,2-Benzisoxazol-3-yl)methanesulfonamide;Excegran;AD 810 (sulfonamide);Zonegran;Exceglan;Excegram;1.2-Benzoxazol-3-ylmethanesulfonamide;MeSH ID: C022189",
    "duplicated_cas_no": "892699-17-1",
    "SMILES": "C(S(N)(=O)=O)C=1C=2C(ON1)=CC=CC2",
    "meta_data": {
        "InChI": "InChI=1S/C8H8N2O3S/c9-14(11,12)5-7-6-3-1-2-4-8(6)13-10-7/h1-4H,5H2,(H2,9,11,12)",
        "InChIKey": null,
        "Canonical SMILES": "O=S(=O)(N)CC1=NOC=2C=CC=CC21",
        "Molecular Formula": "C<sub>8</sub>H<sub>8</sub>N<sub>2</sub>O<sub>3</sub>S",
        "Molecular Mass": "212.23",
        "Melting Point": "160-163 °C"
    }
}