{
    "cas_no": "7783-58-6",
    "key_name": "Tetrafluorogermane",
    "cn_name": "四氟化锗;",
    "alternate_name": "Germane, tetrafluoro-;Germanium fluoride (GeF<sub>4</sub>);Tetrafluorogermane;Germanium fluoride;Germanium tetrafluoride;Germyl tetrafluoride",
    "duplicated_cas_no": "1519044-57-5",
    "SMILES": "[Ge](F)(F)(F)F",
    "meta_data": {
        "InChI": "InChI=1S/F4Ge/c1-5(2,3)4",
        "InChIKey": null,
        "Canonical SMILES": "F[Ge](F)(F)F",
        "Molecular Formula": "F<sub>4</sub>Ge",
        "Molecular Mass": "148.63",
        "Boiling Point": "-36.5 °C",
        "Melting Point": "-15 °C",
        "Density": "2.126 g/cm³ @ Temp: 0 °C"
    }
}