{
    "cas_no": "4209-90-9",
    "key_name": "2,2-Dimethyl-3-hexanol",
    "cn_name": null,
    "alternate_name": "3-Hexanol, 2,2-dimethyl-;2,2-Dimethyl-3-hexanol;Propyl-<em>tert</em>-butylcarbinol;NSC 95419;<em>tert</em>-Butyl propyl carbinol",
    "duplicated_cas_no": "111675-73-1",
    "SMILES": "C(C(C)(C)C)(CCC)O",
    "meta_data": {
        "InChI": "InChI=1S/C8H18O/c1-5-6-7(9)8(2,3)4/h7,9H,5-6H2,1-4H3",
        "InChIKey": null,
        "Canonical SMILES": "OC(CCC)C(C)(C)C",
        "Molecular Formula": "C<sub>8</sub>H<sub>18</sub>O",
        "Molecular Mass": "130.23",
        "Boiling Point": "156 °C",
        "Density": "0.920 g/cm³ @ Temp: 25 °C"
    }
}