{
    "cas_no": "653-21-4",
    "key_name": "2,3,4,5,6-Pentafluorobenzeneacetic acid",
    "cn_name": "2,3,4,5,6-五氟苯基乙酸;",
    "alternate_name": "Benzeneacetic acid, 2,3,4,5,6-pentafluoro-;Acetic acid, (pentafluorophenyl)-;2,3,4,5,6-Pentafluorobenzeneacetic acid;(Pentafluorophenyl)acetic acid;2,3,4,5,6-Pentafluorophenylacetic acid;2-(Pentafluorophenyl)acetic acid;2-(2,3,4,5,6-Pentafluorophenyl)acetic acid;2-(Perfluorophenyl)acetic acid",
    "duplicated_cas_no": "",
    "SMILES": "C(C(O)=O)C1=C(F)C(F)=C(F)C(F)=C1F",
    "meta_data": {
        "InChI": "InChI=1S/C8H3F5O2/c9-4-2(1-3(14)15)5(10)7(12)8(13)6(4)11/h1H2,(H,14,15)",
        "InChIKey": null,
        "Canonical SMILES": "O=C(O)CC=1C(F)=C(F)C(F)=C(F)C1F",
        "Molecular Formula": "C<sub>8</sub>H<sub>3</sub>F<sub>5</sub>O<sub>2</sub>",
        "Molecular Mass": "226.10",
        "Melting Point": "109 °C"
    }
}