{
    "cas_no": "401-99-0",
    "key_name": "3,5-Dinitrobenzotrifluoride",
    "cn_name": "3,5-二硝基三氟甲苯;",
    "alternate_name": "Benzene, 1,3-dinitro-5-(trifluoromethyl)-;Toluene, α,α,α-trifluoro-3,5-dinitro-;1,3-Dinitro-5-(trifluoromethyl)benzene;3,5-Dinitrobenzotrifluoride;α,α,α-Trifluoro-3,5-dinitrotoluene;3,5-Dinitro-α,α,α-trifluorotoluene;3,5-Dinitro-1-(trifluoromethyl)benzene;1-Trifluoromethyl-3,5-dinitrobenzene",
    "duplicated_cas_no": "",
    "SMILES": "C(F)(F)(F)C1=CC(N(=O)=O)=CC(N(=O)=O)=C1",
    "meta_data": {
        "InChI": "InChI=1S/C7H3F3N2O4/c8-7(9,10)4-1-5(11(13)14)3-6(2-4)12(15)16/h1-3H",
        "InChIKey": null,
        "Canonical SMILES": "O=N(=O)C=1C=C(C=C(C1)C(F)(F)F)N(=O)=O",
        "Molecular Formula": "C<sub>7</sub>H<sub>3</sub>F<sub>3</sub>N<sub>2</sub>O<sub>4</sub>",
        "Molecular Mass": "236.10",
        "Boiling Point": "125-127 °C @ Press: 9 Torr",
        "Melting Point": "49-50 °C"
    }
}