{
    "cas_no": "1996-30-1",
    "key_name": "2-Bromo-4-chloro-1-fluorobenzene",
    "cn_name": "3-溴-1-氯-4-氟苯;",
    "alternate_name": "Benzene, 2-bromo-4-chloro-1-fluoro-;2-Bromo-4-chloro-1-fluorobenzene;4-Chloro-2-bromo-1-fluorobenzene;2-Bromo-4-chlorofluorobenzene;5-Chloro-2-fluorobromobenzene;3-Bromo-1-chloro-4-fluorobenzene;2-Fluoro-5-chlorobromobenzene;1-Bromo-2-fluoro-5-chlorobenzene",
    "duplicated_cas_no": "",
    "SMILES": "BrC1=C(F)C=CC(Cl)=C1",
    "meta_data": {
        "InChI": "InChI=1S/C6H3BrClF/c7-5-3-4(8)1-2-6(5)9/h1-3H",
        "InChIKey": null,
        "Canonical SMILES": "FC1=CC=C(Cl)C=C1Br",
        "Molecular Formula": "C<sub>6</sub>H<sub>3</sub>BrClF",
        "Molecular Mass": "209.44",
        "Boiling Point": "90 °C @ Press: 30 Torr"
    }
}