{
    "cas_no": "2014-83-7",
    "key_name": "2,6-Dichlorobenzyl chloride",
    "cn_name": "2,6-二氯氯苄;2,6-二氯苄氯;",
    "alternate_name": "Benzene, 1,3-dichloro-2-(chloromethyl)-;Toluene, α,2,6-trichloro-;1,3-Dichloro-2-(chloromethyl)benzene;2,6-Dichlorobenzyl chloride;α,2,6-Trichlorotoluene;2-Chloromethyl-1,3-dichlorobenzene;(2,6-Dichlorophenyl)methyl chloride;NSC 86116",
    "duplicated_cas_no": "",
    "SMILES": "C(Cl)C1=C(Cl)C=CC=C1Cl",
    "meta_data": {
        "InChI": "InChI=1S/C7H5Cl3/c8-4-5-6(9)2-1-3-7(5)10/h1-3H,4H2",
        "InChIKey": null,
        "Canonical SMILES": "ClC1=CC=CC(Cl)=C1CCl",
        "Molecular Formula": "C<sub>7</sub>H<sub>5</sub>Cl<sub>3</sub>",
        "Molecular Mass": "195.47",
        "Boiling Point": "135 °C",
        "Melting Point": "39-40 °C"
    }
}