{
    "cas_no": "51868-96-3",
    "key_name": "Diethyl <em>P</em>-(1-pyrrolidinylmethyl)phosphonate",
    "cn_name": "1-吡咯烷甲基膦酸二乙酯;",
    "alternate_name": "Phosphonic acid, <em>P</em>-(1-pyrrolidinylmethyl)-, diethyl ester;Phosphonic acid, (1-pyrrolidinylmethyl)-, diethyl ester;Diethyl <em>P</em>-(1-pyrrolidinylmethyl)phosphonate;(1-pyrrolidinylmethyl)phosphonic acid diethyl ester;1-(Diethoxyphosphorylmethyl)pyrrolidine",
    "duplicated_cas_no": "",
    "SMILES": "C(P(OCC)(OCC)=O)N1CCCC1",
    "meta_data": {
        "InChI": "InChI=1S/C9H20NO3P/c1-3-12-14(11,13-4-2)9-10-7-5-6-8-10/h3-9H2,1-2H3",
        "InChIKey": null,
        "Canonical SMILES": "O=P(OCC)(OCC)CN1CCCC1",
        "Molecular Formula": "C<sub>9</sub>H<sub>20</sub>NO<sub>3</sub>P",
        "Molecular Mass": "221.23",
        "Boiling Point": "110 °C @ Press: 0.1 Torr"
    }
}