{
    "cas_no": "154-23-4",
    "key_name": "Catechin",
    "cn_name": "儿茶精;儿茶素;(2R,3S)-2-(3,4-二羟基苯基)-3,4-二氢-2H-苯并吡喃-3,5,7-三醇;",
    "alternate_name": "2<em>H</em>-1-Benzopyran-3,5,7-triol, 2-(3,4-dihydroxyphenyl)-3,4-dihydro-, (2<em>R</em>,3<em>S</em>)-;Catechol;2<em>H</em>-1-Benzopyran-3,5,7-triol, 2-(3,4-dihydroxyphenyl)-3,4-dihydro-, (2<em>R</em>-<em>trans</em>)-;(2<em>R</em>,3<em>S</em>)-2-(3,4-Dihydroxyphenyl)-3,4-dihydro-2<em>H</em>-1-benzopyran-3,5,7-triol;<em>d</em>-Catechin;(+)-Catechol;(+)-Catechin;(+)-(2<em>R</em>:3<em>S</em>)-5,7,3′,4′-Tetrahydroxyflavan-3-ol;Catechin;Catechinic acid;Catechuic acid;Catechol (flavan);<span class=\"text-smallcaps\">D</span>-Catechol;<span class=\"text-smallcaps\">D</span>-(+)-Catechin;Catechin (flavan);<em>trans</em>-(+)-3,3′,4′,5,7-Flavanpentol;(+)-3′,4′,5,7-Tetrahydroxy-2,3-<em>trans</em>-flavan-3-ol;3-Cyanidanol, (+)-;Catergen;(+)-Cyanidan-3-ol;(+)-Cyanidanol-3;Cianidanol;Cyanidanol;<span class=\"text-smallcaps\">D</span>-Catechin;(+)-Cianidanol;(+)-Cyanidanol;Biocatechin;Sunkatol No. 1;(2<em>R</em>,3<em>S</em>)-(+)-Catechin;Dexcyanidanol;Cyanidol;NSC 2819;Teafuran 30A;Teafuran 30E;HB-MC-TS 35;P 70A;(+)-(2<em>R</em>,3<em>S</em>)-2-(3,4-Dihydroxyphenyl)-3,4-dihydro-1(2<em>H</em>)-benzopyran-3,5,7-triol;Sunphenon 90;PP-S4-1;MeSH ID: D002392;PG-TP 80C",
    "duplicated_cas_no": "321-01-7;4211-28-3;5323-80-8;16198-00-8;379227-23-3;523994-21-0;159761-73-6",
    "SMILES": "O[C@@H]1[C@H](OC=2C(C1)=C(O)C=C(O)C2)C3=CC(O)=C(O)C=C3",
    "meta_data": {
        "InChI": "InChI=1S/C15H14O6/c16-8-4-11(18)9-6-13(20)15(21-14(9)5-8)7-1-2-10(17)12(19)3-7/h1-5,13,15-20H,6H2/t13-,15+/m0/s1",
        "InChIKey": null,
        "Canonical SMILES": "OC=1C=C(O)C2=C(OC(C3=CC=C(O)C(O)=C3)C(O)C2)C1",
        "Molecular Formula": "C<sub>15</sub>H<sub>14</sub>O<sub>6</sub>",
        "Molecular Mass": "290.27",
        "Boiling Point": "629.2 °C",
        "Melting Point": "175-177 °C"
    }
}