{
    "cas_no": "13813-19-9",
    "key_name": "Sulfuric acid-<em>d</em><sub>2</sub>",
    "cn_name": "硫酸-d2;氘代硫酸;",
    "alternate_name": "Sulfuric acid-<em>d</em><sub>2</sub>;Deuterosulfuric acid;Perdeuteriosulfuric acid;Sulfuric acid (D<sub>2</sub>SO<sub>4</sub>);Perdeuterated sulfuric acid",
    "duplicated_cas_no": "",
    "SMILES": "S(=O)(=O)(O[2H])O[2H]",
    "meta_data": {
        "InChI": "InChI=1S/H2O4S/c1-5(2,3)4/h(H2,1,2,3,4)/i/hD2",
        "InChIKey": null,
        "Canonical SMILES": "O=S(=O)(O)O",
        "Molecular Formula": "D<sub>2</sub>O<sub>4</sub>S",
        "Molecular Mass": "",
        "Boiling Point": "323.6 °C",
        "Melting Point": "-39 °C",
        "Density": "1.8573 g/cm³ @ Temp: 25 °C"
    }
}