{
    "cas_no": "6342-64-9",
    "key_name": "1-(5-Chloro-2-methoxyphenyl)ethanone",
    "cn_name": "5-氯-2-甲氧基苯乙酮;",
    "alternate_name": "Ethanone, 1-(5-chloro-2-methoxyphenyl)-;Acetophenone, 5′-chloro-2′-methoxy-;1-(5-Chloro-2-methoxyphenyl)ethanone;5′-Chloro-2′-methoxyacetophenone;NSC 46629",
    "duplicated_cas_no": "",
    "SMILES": "C(C)(=O)C1=C(OC)C=CC(Cl)=C1",
    "meta_data": {
        "InChI": "InChI=1S/C9H9ClO2/c1-6(11)8-5-7(10)3-4-9(8)12-2/h3-5H,1-2H3",
        "InChIKey": null,
        "Canonical SMILES": "O=C(C1=CC(Cl)=CC=C1OC)C",
        "Molecular Formula": "C<sub>9</sub>H<sub>9</sub>ClO<sub>2</sub>",
        "Molecular Mass": "184.62",
        "Boiling Point": "135 °C",
        "Melting Point": "29-30 °C"
    }
}