{
    "cas_no": "18480-53-0",
    "key_name": "3,4-Dichloro-5-isothiazolecarboxylic acid",
    "cn_name": null,
    "alternate_name": "5-Isothiazolecarboxylic acid, 3,4-dichloro-;3,4-Dichloro-5-isothiazolecarboxylic acid;TD 1123;Pennwalt TD 1123;3,4-Dichloro-5-carboxyisothiazole;3,4-Dichloroisothiazol-5-carboxylic acid;3,4-Dichloroisothiazole-5-carboxylic acid",
    "duplicated_cas_no": "",
    "SMILES": "C(O)(=O)C1=C(Cl)C(Cl)=NS1",
    "meta_data": {
        "InChI": "InChI=1S/C4HCl2NO2S/c5-1-2(4(8)9)10-7-3(1)6/h(H,8,9)",
        "InChIKey": null,
        "Canonical SMILES": "O=C(O)C=1SN=C(Cl)C1Cl",
        "Molecular Formula": "C<sub>4</sub>HCl<sub>2</sub>NO<sub>2</sub>S",
        "Molecular Mass": "198.03",
        "Melting Point": "179-179.5 °C"
    }
}