{
    "cas_no": "72040-64-3",
    "key_name": "6-[[5-[(3a<em>S</em>,4<em>S</em>,6a<em>R</em>)-Hexahydro-2-oxo-1<em>H</em>-thieno[3,4-<em>d</em>]imidazol-4-yl]-1-oxopentyl]amino]hexanoic acid",
    "cn_name": null,
    "alternate_name": "Hexanoic acid, 6-[[5-[(3a<em>S</em>,4<em>S</em>,6a<em>R</em>)-hexahydro-2-oxo-1<em>H</em>-thieno[3,4-<em>d</em>]imidazol-4-yl]-1-oxopentyl]amino]-;Hexanoic acid, 6-[[5-(hexahydro-2-oxo-1<em>H</em>-thieno[3,4-<em>d</em>]imidazol-4-yl)-1-oxopentyl]amino]-, [3a<em>S</em>-(3aα,4β,6aα)]-;Hexanoic acid, 6-[5-(tetrahydro-2-oxothieno[3,4-<em>d</em>]imidazolin-4-yl)valeramido]-;1<em>H</em>-Thieno[3,4-<em>d</em>]imidazole, hexanoic acid deriv.;6-[[5-[(3a<em>S</em>,4<em>S</em>,6a<em>R</em>)-Hexahydro-2-oxo-1<em>H</em>-thieno[3,4-<em>d</em>]imidazol-4-yl]-1-oxopentyl]amino]hexanoic acid;6-Biotinamidocaproic acid;6-[(Biotinyl)amino]hexanoic acid;Biotin X;6-(Biotinylamino)caproic acid;<em>N</em>-Biotinyl-6-aminohexanoic acid",
    "duplicated_cas_no": "121112-82-1;122984-65-0;1798818-48-0",
    "SMILES": "C(CCCC(NCCCCCC(O)=O)=O)[C@H]1[C@@]2([C@](CS1)(NC(=O)N2)[H])[H]",
    "meta_data": {
        "InChI": "InChI=1S/C16H27N3O4S/c20-13(17-9-5-1-2-8-14(21)22)7-4-3-6-12-15-11(10-24-12)18-16(23)19-15/h11-12,15H,1-10H2,(H,17,20)(H,21,22)(H2,18,19,23)/t11-,12-,15-/m0/s1",
        "InChIKey": null,
        "Canonical SMILES": "O=C1NC2CSC(CCCCC(=O)NCCCCCC(=O)O)C2N1",
        "Molecular Formula": "C<sub>16</sub>H<sub>27</sub>N<sub>3</sub>O<sub>4</sub>S",
        "Molecular Mass": "357.47",
        "Melting Point": "156 °C"
    }
}