{
    "cas_no": "87-66-1",
    "key_name": "Pyrogallol",
    "cn_name": "邻苯三酚;1,2,3-苯三酚;",
    "alternate_name": "1,2,3-Benzenetriol;Pyrogallol;C.I. 76515;C.I. Oxidation Base 32;Fouramine Brown AP;Fourrine 85;Fourrine PG;Pyrogallic acid;1,2,3-Trihydroxybenzene;2,3-Dihydroxyphenol;NSC 5035;Benzene-1,2,3-triol;Pyrogallol acid;2,6-Dihydroxyphenol;Antioxidant PY;Gallol;1,2,3-Hydroxybenzene;1,2,3-Pyrogallol;MeSH ID: D011748",
    "duplicated_cas_no": "",
    "SMILES": "OC1=C(O)C=CC=C1O",
    "meta_data": {
        "InChI": "InChI=1S/C6H6O3/c7-4-2-1-3-5(8)6(4)9/h1-3,7-9H",
        "InChIKey": null,
        "Canonical SMILES": "OC1=CC=CC(O)=C1O",
        "Molecular Formula": "C<sub>6</sub>H<sub>6</sub>O<sub>3</sub>",
        "Molecular Mass": "126.11",
        "Boiling Point": "309 °C",
        "Melting Point": "133 °C",
        "Density": "1.453 g/cm³ @ Temp: 4 °C"
    }
}