{
    "cas_no": "484-31-1",
    "key_name": "Dill apiole",
    "cn_name": null,
    "alternate_name": "1,3-Benzodioxole, 4,5-dimethoxy-6-(2-propen-1-yl)-;Dill apiole;Benzene, 1-allyl-2,3-dimethoxy-4,5-(methylenedioxy)-;1,3-Benzodioxole, 4,5-dimethoxy-6-(2-propenyl)-;4,5-Dimethoxy-6-(2-propen-1-yl)-1,3-benzodioxole;4-Allyl-5,6-dimethoxy-1,2-(methylenedioxy)benzene;Dillapiol;1-Allyl-2,3-dimethoxy-4,5-(methylenedioxy)benzene",
    "duplicated_cas_no": "",
    "SMILES": "O(C)C1=C2C(=CC(CC=C)=C1OC)OCO2",
    "meta_data": {
        "InChI": "InChI=1S/C12H14O4/c1-4-5-8-6-9-11(16-7-15-9)12(14-3)10(8)13-2/h4,6H,1,5,7H2,2-3H3",
        "InChIKey": null,
        "Canonical SMILES": "O(C1=C(OC)C(=CC=2OCOC21)CC=C)C",
        "Molecular Formula": "C<sub>12</sub>H<sub>14</sub>O<sub>4</sub>",
        "Molecular Mass": "222.24",
        "Boiling Point": "285 °C",
        "Melting Point": "29.5 °C",
        "Density": "1.1753 g/cm³ @ Temp: 0 °C"
    }
}