{
    "cas_no": "38613-77-3",
    "key_name": "Tetrakis(2,4-di-<em>tert</em>-butylphenyl)-4,4′-biphenylenediphosphonite",
    "cn_name": "抗氧化剂THP-EPQ;4,4\"-[1,1\"-联苯基]亚基二膦酸-四[2,4-二叔丁苯基]酯;",
    "alternate_name": "Phosphonous acid, <em>P</em>,<em>P</em>′-[[1,1′-biphenyl]-4,4′-diyl]bis-, <em>P</em>,<em>P</em>,<em>P</em>′,<em>P</em>′-tetrakis[2,4-bis(1,1-dimethylethyl)phenyl] ester;Phosphonous acid, [1,1′-biphenyl]-4,4′-diylbis-, tetrakis[2,4-bis(1,1-dimethylethyl)phenyl] ester;Irgafos PEPQ;Irgafos P-EPQFF;Tetrakis(2,4-di-<em>tert</em>-butylphenyl)-4,4′-biphenylenediphosphonite;Phos 2;Irganox P-EPQ;Sandostab EPQ;Irgafos P-EPO;4,4′-Biphenylenediphosphonous acid tetrakis(2,4-di-<em>tert</em>-butylphenyl) ester;P-EPQ;Tetrakis(2,4-di-<em>tert</em>-butylphenyl-4,4′-biphenylylene-diphosphonite);Tetrakis(2,4-di-<em>tert</em>-butylphenyl) [1,1′-biphenyl]-4,4′-diylbisphosphonite;Irgafos P-EPQ-FD;Irgafos EPQ;Hostanox P-EPQ;THP-EPQ;AO 110;Tetrakis(2,4-di-<em>tert</em>-butylphenyl) [1,1-biphenyl]-4,4′-diyl bisphosphonite;[4-[4-Bis(2,4-ditert-butylphenoxy)phosphanylphenyl]phenyl]-bis(2,4-ditert-butylphenoxy)phosphane;Tetrakis(2,4-di-<em>tert</em>-butylphenyl)-[1,1-biphenyl]-4,4′-diyl bisphosphonite;LXR 568;AddWorks LXR 568;VN 125949;P-EPQ 6",
    "duplicated_cas_no": "113041-61-5;144280-21-7;2278203-87-3;2841738-63-2",
    "SMILES": "C(C)(C)(C)C1=C(OP(OC2=C(C(C)(C)C)C=C(C(C)(C)C)C=C2)C3=CC=C(C=C3)C4=CC=C(P(OC5=C(C(C)(C)C)C=C(C(C)(C)C)C=C5)OC6=C(C(C)(C)C)C=C(C(C)(C)C)C=C6)C=C4)C=CC(C(C)(C)C)=C1",
    "meta_data": {
        "InChI": "InChI=1S/C68H92O4P2/c1-61(2,3)47-29-37-57(53(41-47)65(13,14)15)69-73(70-58-38-30-48(62(4,5)6)42-54(58)66(16,17)18)51-33-25-45(26-34-51)46-27-35-52(36-28-46)74(71-59-39-31-49(63(7,8)9)43-55(59)67(19,20)21)72-60-40-32-50(64(10,11)12)44-56(60)68(22,23)24/h25-44H,1-24H3",
        "InChIKey": null,
        "Canonical SMILES": "O(C1=CC=C(C=C1C(C)(C)C)C(C)(C)C)P(OC2=CC=C(C=C2C(C)(C)C)C(C)(C)C)C3=CC=C(C=C3)C=4C=CC(=CC4)P(OC5=CC=C(C=C5C(C)(C)C)C(C)(C)C)OC6=CC=C(C=C6C(C)(C)C)C(C)(C)C",
        "Molecular Formula": "C<sub>68</sub>H<sub>92</sub>O<sub>4</sub>P<sub>2</sub>",
        "Molecular Mass": "1035.40",
        "Melting Point": "85-110 °C"
    }
}