{
    "cas_no": "2653-64-7",
    "key_name": "1-[2-(1-Naphthalenyl)diazenyl]-2-naphthalenol",
    "cn_name": "C.I.颜料红40;颜料红40油紫；504紫红；;",
    "alternate_name": "2-Naphthalenol, 1-[2-(1-naphthalenyl)diazenyl]-;C.I. Solvent Red 4;2-Naphthalenol, 1-(1-naphthalenylazo)-;2-Naphthol, 1-(1-naphthylazo)-;1-[2-(1-Naphthalenyl)diazenyl]-2-naphthalenol;C.I. 12170;Autol Red RLP;Bordeaux P 51N;Bordeaux P 51R;C.I. Pigment Red 40;Dainichi Naphthylamine Bordeaux 5B;Fat Bordeaux;Fat Bordeaux R;Grasal Red;Lutetia Bordeaux B;Oil Dark Red;Oil Red;Oil Red 2R;Oil Red IIR;Organol Mahogany TJ;Pigment Bordeaux N;Pigment Red RLP;Somalia Bordeaux R;Sudan Red 2R;Waxoline Red BN;Red 2R;1-(1-Naphthylazo)-2-naphthol;Pigment Bordeaux;Fat Scarlet 2R;2-Hydroxy-1,1′-azonaphthalene;1-(2-Hydroxynaphthyl)-1′-azonaphthalene;NSC 45575;NSC 47713;Solvent Red 4;Pigment Red 40",
    "duplicated_cas_no": "104407-06-9",
    "SMILES": "N(=NC=1C2=C(C=CC1)C=CC=C2)C=3C4=C(C=CC3O)C=CC=C4",
    "meta_data": {
        "InChI": "InChI=1S/C20H14N2O/c23-19-13-12-15-7-2-4-10-17(15)20(19)22-21-18-11-5-8-14-6-1-3-9-16(14)18/h1-13,23H",
        "InChIKey": null,
        "Canonical SMILES": "OC=1C=CC=2C=CC=CC2C1N=NC3=CC=CC=4C=CC=CC34",
        "Molecular Formula": "C<sub>20</sub>H<sub>14</sub>N<sub>2</sub>O",
        "Molecular Mass": "298.34",
        "Melting Point": "230 °C"
    }
}