{
    "cas_no": "15777-70-5",
    "key_name": "4-Hydroxy-3-methylbenzonitrile",
    "cn_name": null,
    "alternate_name": "Benzonitrile, 4-hydroxy-3-methyl-;4,3-Cresotonitrile;4-Hydroxy-3-methylbenzonitrile;2-Methyl-4-cyanophenol;3-Methyl-4-hydroxybenzonitrile",
    "duplicated_cas_no": "",
    "SMILES": "C(#N)C1=CC(C)=C(O)C=C1",
    "meta_data": {
        "InChI": "InChI=1S/C8H7NO/c1-6-4-7(5-9)2-3-8(6)10/h2-4,10H,1H3",
        "InChIKey": null,
        "Canonical SMILES": "N#CC1=CC=C(O)C(=C1)C",
        "Molecular Formula": "C<sub>8</sub>H<sub>7</sub>NO",
        "Molecular Mass": "133.15",
        "Boiling Point": "180-182 °C @ Press: 12 Torr",
        "Melting Point": "93-95 °C"
    }
}