{
    "cas_no": "1676-73-9",
    "key_name": "γ-Benzyl <span class=\"text-smallcaps\">L</span>-glutamate",
    "cn_name": "L-谷氨酸-5-苄酯;L-谷氨酸gamma-苄酯;",
    "alternate_name": "<span class=\"text-smallcaps\">L</span>-Glutamic acid, 5-(phenylmethyl) ester;Glutamic acid, 5-benzyl ester, <span class=\"text-smallcaps\">L</span>-;γ-Benzyl <span class=\"text-smallcaps\">L</span>-glutamate;<span class=\"text-smallcaps\">L</span>-Glutamic acid 5-benzyl ester;γ-Benzylglutamic acid;5-Benzyl <span class=\"text-smallcaps\">L</span>-glutamate;<span class=\"text-smallcaps\">L</span>-Glutamate-γ-benzyl ester;Glutamic acid γ-benzyl ester;<span class=\"text-smallcaps\">L</span>-Glutamic acid γ-benzyl ester;Benzyl glutamate;γ-Benzyl glutamate;Glutamic acid, 5-benzyl ester;H-Glu(OBzl)-OH;NSC 9969;(2S)-2-Amino-5-(benzyloxy)-5-oxopentanoic acid;(<em>S</em>)-2-Amino-5-(benzyloxy)-5-oxopentanoic acid;(2S)-2-Azaniumyl-5-oxo-5-phenylmethoxypentanoate",
    "duplicated_cas_no": "5844-47-3;65681-11-0;109007-00-3;117343-56-3;119252-26-5;121703-70-6;144595-20-0;200395-75-1;201050-80-8;224962-04-3;959156-25-3;1681059-65-3;2107320-90-9;2136731-03-6;2451970-67-3",
    "SMILES": "C(OC(CC[C@@H](C(O)=O)N)=O)C1=CC=CC=C1",
    "meta_data": {
        "InChI": "InChI=1S/C12H15NO4/c13-10(12(15)16)6-7-11(14)17-8-9-4-2-1-3-5-9/h1-5,10H,6-8,13H2,(H,15,16)/t10-/m0/s1",
        "InChIKey": null,
        "Canonical SMILES": "O=C(O)C(N)CCC(=O)OCC=1C=CC=CC1",
        "Molecular Formula": "C<sub>12</sub>H<sub>15</sub>NO<sub>4</sub>",
        "Molecular Mass": "237.25",
        "Melting Point": "169-170 °C"
    }
}