{
    "cas_no": "14631-46-0",
    "key_name": "8-Hydroxy-5,6,7,8-tetrahydroquinoline",
    "cn_name": "5,6,7,8-四氢-8-羟基喹啉;8-羟基-5,6,7,8-四氢喹啉;",
    "alternate_name": "8-Quinolinol, 5,6,7,8-tetrahydro-;5,6,7,8-Tetrahydro-8-quinolinol;8-Hydroxy-5,6,7,8-tetrahydroquinoline",
    "duplicated_cas_no": "",
    "SMILES": "OC1C=2C(CCC1)=CC=CN2",
    "meta_data": {
        "InChI": "InChI=1S/C9H11NO/c11-8-5-1-3-7-4-2-6-10-9(7)8/h2,4,6,8,11H,1,3,5H2",
        "InChIKey": null,
        "Canonical SMILES": "OC1C2=NC=CC=C2CCC1",
        "Molecular Formula": "C<sub>9</sub>H<sub>11</sub>NO",
        "Molecular Mass": "149.19",
        "Boiling Point": "88-96 °C @ Press: 2 Torr",
        "Melting Point": "64-65 °C"
    }
}