{
    "cas_no": "10083-24-6",
    "key_name": "Piceatannol",
    "cn_name": null,
    "alternate_name": "1,2-Benzenediol, 4-[(1<em>E</em>)-2-(3,5-dihydroxyphenyl)ethenyl]-;3,3′,4,5′-Stilbenetetrol, (<em>E</em>)-;Piceatannol;1,2-Benzenediol, 4-[2-(3,5-dihydroxyphenyl)ethenyl]-, (<em>E</em>)-;4-[(1<em>E</em>)-2-(3,5-Dihydroxyphenyl)ethenyl]-1,2-benzenediol;Astringenin;<em>trans</em>-3,3′,4,5′-Tetrahydroxystilbene;(<em>E</em>)-Piceatannol;<em>trans</em>-Piceatannol;Passienol LA",
    "duplicated_cas_no": "21100-92-5",
    "SMILES": "C(=C/C1=CC(O)=CC(O)=C1)\\C2=CC(O)=C(O)C=C2",
    "meta_data": {
        "InChI": "InChI=1S/C14H12O4/c15-11-5-10(6-12(16)8-11)2-1-9-3-4-13(17)14(18)7-9/h1-8,15-18H/b2-1+",
        "InChIKey": null,
        "Canonical SMILES": "OC=1C=C(O)C=C(C=CC2=CC=C(O)C(O)=C2)C1",
        "Molecular Formula": "C<sub>14</sub>H<sub>12</sub>O<sub>4</sub>",
        "Molecular Mass": "244.24",
        "Melting Point": "215-217 °C"
    }
}