{
    "cas_no": "873-77-8",
    "key_name": "(4-Chlorophenyl)magnesium bromide",
    "cn_name": "4-氯苯基溴化镁;",
    "alternate_name": "Magnesium, bromo(4-chlorophenyl)-;Magnesium, bromo(<em>p</em>-chlorophenyl)-;<em>p</em>-Chlorophenylmagnesium bromide;Bromo(4-chlorophenyl)magnesium;(4-Chlorophenyl)magnesium bromide",
    "duplicated_cas_no": "",
    "SMILES": "[Mg](Br)C1=CC=C(Cl)C=C1",
    "meta_data": {
        "InChI": "InChI=1S/C6H4Cl.BrH.Mg/c7-6-4-2-1-3-5-6;;/h2-5H;1H;/q;;+1/p-1",
        "InChIKey": null,
        "Canonical SMILES": "ClC1=CC=C([Mg]Br)C=C1",
        "Molecular Formula": "C<sub>6</sub>H<sub>4</sub>BrClMg",
        "Molecular Mass": "",
        "Boiling Point": "115 °C @ Press: 0.04 Torr",
        "Melting Point": "168-169 °C"
    }
}