{
    "cas_no": "1720-38-3",
    "key_name": "1,9-Decadiyne",
    "cn_name": "1,9-癸二炔;",
    "alternate_name": "1,9-Decadiyne",
    "duplicated_cas_no": "",
    "SMILES": "C(CCCC#C)CCC#C",
    "meta_data": {
        "InChI": "InChI=1S/C10H14/c1-3-5-7-9-10-8-6-4-2/h1-2H,5-10H2",
        "InChIKey": null,
        "Canonical SMILES": "C#CCCCCCCC#C",
        "Molecular Formula": "C<sub>10</sub>H<sub>14</sub>",
        "Molecular Mass": "134.22",
        "Boiling Point": "68-71 °C @ Press: 13-14 Torr",
        "Density": "0.8288 g/cm³ @ Temp: 24.34 °C"
    }
}