{
    "cas_no": "262352-17-0",
    "key_name": "Torcetrapib",
    "cn_name": "托彻普;(2R,4S)-4-[(3,5-双三氟甲基苄基)甲氧基甲酰氨基]-2-乙基-6-三氟甲基-3,4-二氢-2H-喹啉-1-羧酸乙酯;",
    "alternate_name": "1(2<em>H</em>)-Quinolinecarboxylic acid, 4-[[[3,5-bis(trifluoromethyl)phenyl]methyl](methoxycarbonyl)amino]-2-ethyl-3,4-dihydro-6-(trifluoromethyl)-, ethyl ester, (2<em>R</em>,4<em>S</em>)-;CP 529414;Torcetrapib;(2<em>R</em>,4<em>S</em>)-4-[(3,5-Bis-trifluoromethylbenzyl)methoxycarbonylamino]-2-ethyl-6-trifluoromethyl-3,4-dihydro-2<em>H</em>-quinoline-1-carboxylic acid ethyl ester;(2R,4S)-4-[[3,5-Bis(trifluoromethyl)benzyl]methoxycarbonylamino]-2-ethyl-6-trifluoromethyl-3,4-dihydro-2<em>H</em>-quinoline-1-carboxylic acid ethyl ester;(-)-Torcetrapib",
    "duplicated_cas_no": "",
    "SMILES": "N(CC1=CC(C(F)(F)F)=CC(C(F)(F)F)=C1)(C(OC)=O)[C@@H]2C=3C(N(C(OCC)=O)[C@H](CC)C2)=CC=C(C(F)(F)F)C3",
    "meta_data": {
        "InChI": "InChI=1S/C26H25F9N2O4/c1-4-18-12-21(19-11-15(24(27,28)29)6-7-20(19)37(18)23(39)41-5-2)36(22(38)40-3)13-14-8-16(25(30,31)32)10-17(9-14)26(33,34)35/h6-11,18,21H,4-5,12-13H2,1-3H3/t18-,21+/m1/s1",
        "InChIKey": null,
        "Canonical SMILES": "O=C(OC)N(CC=1C=C(C=C(C1)C(F)(F)F)C(F)(F)F)C2C3=CC(=CC=C3N(C(=O)OCC)C(CC)C2)C(F)(F)F",
        "Molecular Formula": "C<sub>26</sub>H<sub>25</sub>F<sub>9</sub>N<sub>2</sub>O<sub>4</sub>",
        "Molecular Mass": "600.47",
        "Melting Point": "54-58 °C"
    }
}