{
    "cas_no": "2524-03-0",
    "key_name": "Dimethyl chlorothiophosphate",
    "cn_name": "二甲基硫代磷酰氯;O,O\"-二甲基硫代磷酰氯;",
    "alternate_name": "Phosphorochloridothioic acid, <em>O</em>,<em>O</em>-dimethyl ester;Methyl phosphorochloridothioate ((MeO)<sub>2</sub>ClPS);Dimethyl chlorothiophosphate;Chlorodimethoxyphosphine sulfide;Dimethyl chlorothionophosphate;Dimethyl thiophosphorochloridate;<em>O</em>,<em>O</em>-Dimethyl phosphorochloridothioate;<em>O</em>,<em>O</em>-Dimethyl chlorothiophosphate;<em>O</em>,<em>O</em>-Dimethyl phosphorothionochloridate;<em>O</em>,<em>O</em>-Dimethyl thiophosphoric acid chloride;Dimethoxy thiophosphonyl chloride;<em>O</em>,<em>O</em>-Dimethylthionophosphoryl chloride;Dimethyl thionophosphorochloridate;<em>O</em>,<em>O</em>-Dimethyl thiophosphoryl chloride;<em>O</em>,<em>O</em>-Dimethyl chlorothionophosphate;<em>O</em>,<em>O</em>-Dimethyl thionophosphorochloridate;<em>O</em>,<em>O</em>-Dimethyl phosphorochlorothioate;Dimethyl chlorophosphorothioate;<em>O</em>,<em>O</em>-Dimethyl chlorophosphorothioate;NSC 132984",
    "duplicated_cas_no": "",
    "SMILES": "P(OC)(OC)(Cl)=S",
    "meta_data": {
        "InChI": "InChI=1S/C2H6ClO2PS/c1-4-6(3,7)5-2/h1-2H3",
        "InChIKey": null,
        "Canonical SMILES": "S=P(Cl)(OC)OC",
        "Molecular Formula": "C<sub>2</sub>H<sub>6</sub>ClO<sub>2</sub>PS",
        "Molecular Mass": "160.56",
        "Boiling Point": "66-67 °C @ Press: 16 Torr"
    }
}