{
    "cas_no": "1487-15-6",
    "key_name": "2,3-Dihydro-5-methylfuran",
    "cn_name": "2,3-二氢-5-甲基呋喃;",
    "alternate_name": "Furan, 2,3-dihydro-5-methyl-;2,3-Dihydro-5-methylfuran;2-Methyl-4,5-dihydrofuran;4,5-Dihydro-2-methylfuran;5-Methyl-2,3-dihydrofuran;4,5-Dihydrosylvan",
    "duplicated_cas_no": "",
    "SMILES": "CC1=CCCO1",
    "meta_data": {
        "InChI": "InChI=1S/C5H8O/c1-5-3-2-4-6-5/h3H,2,4H2,1H3",
        "InChIKey": null,
        "Canonical SMILES": "O1C(=CCC1)C",
        "Molecular Formula": "C<sub>5</sub>H<sub>8</sub>O",
        "Molecular Mass": "84.12",
        "Boiling Point": "81-82 °C",
        "Density": "0.907 g/cm³ @ Temp: 18.5 °C"
    }
}