{
    "cas_no": "143-33-9",
    "key_name": "Sodium cyanide",
    "cn_name": "氰化钠;",
    "alternate_name": "Sodium cyanide (Na(CN));Sodium cyanide;Cymag;Natrium cyanide;Cyanasalt H;Cyanasalt S;NSC 77379;Hydrocyanic acid, sodium salt (1:1);MeSH ID: D012966",
    "duplicated_cas_no": "13998-03-3;25596-52-5;946438-25-1",
    "SMILES": "C(#N)[Na]",
    "meta_data": {
        "InChI": "InChI=1S/CN.Na/c1-2;",
        "InChIKey": null,
        "Canonical SMILES": "N#C[Na]",
        "Molecular Formula": "CNNa",
        "Molecular Mass": "",
        "Boiling Point": "1496 °C",
        "Melting Point": "563 °C",
        "Density": "1.595 g/cm³ @ Temp: 20 °C"
    }
}