{
    "cas_no": "644-62-2",
    "key_name": "Meclofenamic acid",
    "cn_name": "甲氯芬那酸;",
    "alternate_name": "Benzoic acid, 2-[(2,6-dichloro-3-methylphenyl)amino]-;Anthranilic acid, <em>N</em>-(2,6-dichloro-<em>m</em>-tolyl)-;2-[(2,6-Dichloro-3-methylphenyl)amino]benzoic acid;<em>N</em>-(2,6-Dichloro-<em>m</em>-tolyl)anthranilic acid;Meclofenamic acid;Meclophenamic acid;<em>N</em>-(3-Methyl-2,6-dichlorophenyl)anthranilic acid;INF 4668;<em>N</em>-(2,6-Dichloro-3-methylphenyl)anthranilic acid;Arquel;NSC 95309;MeSH ID: D008469",
    "duplicated_cas_no": "",
    "SMILES": "N(C1=C(Cl)C(C)=CC=C1Cl)C2=C(C(O)=O)C=CC=C2",
    "meta_data": {
        "InChI": "InChI=1S/C14H11Cl2NO2/c1-8-6-7-10(15)13(12(8)16)17-11-5-3-2-4-9(11)14(18)19/h2-7,17H,1H3,(H,18,19)",
        "InChIKey": null,
        "Canonical SMILES": "O=C(O)C=1C=CC=CC1NC=2C(Cl)=CC=C(C2Cl)C",
        "Molecular Formula": "C<sub>14</sub>H<sub>11</sub>Cl<sub>2</sub>NO<sub>2</sub>",
        "Molecular Mass": "296.15",
        "Melting Point": "257 °C",
        "Density": "1.43 g/cm³"
    }
}