{
    "cas_no": "1794-24-7",
    "key_name": "<em>N</em>,<em>N</em>,<em>N</em>′,<em>N</em>′-Tetraethylphosphorodiamidic chloride",
    "cn_name": "双(二乙基氨基)氯酸偶膦;双(二乙基胺基)磷酰氯;",
    "alternate_name": "Phosphorodiamidic chloride, <em>N</em>,<em>N</em>,<em>N</em>′,<em>N</em>′-tetraethyl-;Phosphorodiamidic chloride, tetraethyl-;<em>N</em>,<em>N</em>,<em>N</em>′,<em>N</em>′-Tetraethylphosphorodiamidic chloride;Tetraethylphosphorodiamidoyl chloride;Tetraethylphosphorodiamidic chloride;Chlorobis(diethylamino)phosphine oxide",
    "duplicated_cas_no": "",
    "SMILES": "P(N(CC)CC)(N(CC)CC)(Cl)=O",
    "meta_data": {
        "InChI": "InChI=1S/C8H20ClN2OP/c1-5-10(6-2)13(9,12)11(7-3)8-4/h5-8H2,1-4H3",
        "InChIKey": null,
        "Canonical SMILES": "O=P(Cl)(N(CC)CC)N(CC)CC",
        "Molecular Formula": "C<sub>8</sub>H<sub>20</sub>ClN<sub>2</sub>OP",
        "Molecular Mass": "226.68",
        "Boiling Point": "136 °C @ Press: 10 Torr",
        "Density": "1.0706 g/cm³ @ Temp: 20 °C"
    }
}