{
    "cas_no": "34040-62-5",
    "key_name": "Benzoic acid, 2-(chloromethyl)-, methyl ester",
    "cn_name": "2-氯甲基苯甲酸甲酯;",
    "alternate_name": "Benzoic acid, 2-(chloromethyl)-, methyl ester;<em>o</em>-Toluic acid, α-chloro-, methyl ester;Methyl 2-chloromethylbenzoate;Methyl <em>o</em>-(chloromethyl)benzoate;2-(Chloromethyl)benzoic acid methyl ester",
    "duplicated_cas_no": "",
    "SMILES": "C(OC)(=O)C1=C(CCl)C=CC=C1",
    "meta_data": {
        "InChI": "InChI=1S/C9H9ClO2/c1-12-9(11)8-5-3-2-4-7(8)6-10/h2-5H,6H2,1H3",
        "InChIKey": null,
        "Canonical SMILES": "O=C(OC)C=1C=CC=CC1CCl",
        "Molecular Formula": "C<sub>9</sub>H<sub>9</sub>ClO<sub>2</sub>",
        "Molecular Mass": "184.62",
        "Boiling Point": "98 °C @ Press: 760 Torr"
    }
}