{
    "cas_no": "82159-09-9",
    "key_name": "Epalrestat",
    "cn_name": "依帕斯他;益帕瑞司特;依帕司他;(E,E)-5-(2-甲基-3-苯基-2-亚丙烯基)-4-氧代-2-硫酮-3-噻唑烷乙酸;",
    "alternate_name": "3-Thiazolidineacetic acid, 5-[(2<em>E</em>)-2-methyl-3-phenyl-2-propen-1-ylidene]-4-oxo-2-thioxo-, (5<em>Z</em>)-;3-Thiazolidineacetic acid, 5-(2-methyl-3-phenyl-2-propenylidene)-4-oxo-2-thioxo-, (<em>Z</em>,<em>E</em>)-;3-Thiazolidineacetic acid, 5-[(2<em>E</em>)-2-methyl-3-phenyl-2-propenylidene]-4-oxo-2-thioxo-, (5<em>Z</em>)-;(5<em>Z</em>)-5-[(2<em>E</em>)-2-Methyl-3-phenyl-2-propen-1-ylidene]-4-oxo-2-thioxo-3-thiazolidineacetic acid;ONO 2235;Epalrestat;Kinedak;Sorbistat;Eabeth;2-[(<em>Z</em>)-5-((<em>E</em>)-2-Methyl-3-phenylallylidene)-4-oxo-2-thioxothiazolidin-3-yl]acetic acid",
    "duplicated_cas_no": "125654-73-1",
    "SMILES": "C(\\C(=C\\C1=CC=CC=C1)\\C)=C\\2/C(=O)N(CC(O)=O)C(=S)S2",
    "meta_data": {
        "InChI": "InChI=1S/C15H13NO3S2/c1-10(7-11-5-3-2-4-6-11)8-12-14(19)16(9-13(17)18)15(20)21-12/h2-8H,9H2,1H3,(H,17,18)/b10-7+,12-8-",
        "InChIKey": null,
        "Canonical SMILES": "O=C(O)CN1C(=S)SC(=CC(=CC=2C=CC=CC2)C)C1=O",
        "Molecular Formula": "C<sub>15</sub>H<sub>13</sub>NO<sub>3</sub>S<sub>2</sub>",
        "Molecular Mass": "319.40",
        "Melting Point": "210-217 °C"
    }
}