{
    "cas_no": "63612-50-0",
    "key_name": "Nilutamide",
    "cn_name": "尼鲁米特;尼鲁他胺;里奴内酰胺;5,5-二甲基-3-[4-硝基-3-(三氟甲基)苯基]-2,4-咪唑烷二酮;",
    "alternate_name": "2,4-Imidazolidinedione, 5,5-dimethyl-3-[4-nitro-3-(trifluoromethyl)phenyl]-;5,5-Dimethyl-3-[4-nitro-3-(trifluoromethyl)phenyl]-2,4-imidazolidinedione;RU 23908;Anandron;Nilutamide;RU 23908-10;Nilandron;1-(3-Trifluoromethyl-4-nitrophenyl)-4,4-dimethylimidazoline-2,5-dione;Nilandrone;1-(3-Trifluoromethyl-4-nitrophenyl)-4,4-dimethylimidazolidine-2,5-dione;5,5-Dimethyl-3-[4-nitro-3-(trifluoromethyl)phenyl]imidazolidine-2,4-dione",
    "duplicated_cas_no": "",
    "SMILES": "O=C1N(C(=O)NC1(C)C)C2=CC(C(F)(F)F)=C(N(=O)=O)C=C2",
    "meta_data": {
        "InChI": "InChI=1S/C12H10F3N3O4/c1-11(2)9(19)17(10(20)16-11)6-3-4-8(18(21)22)7(5-6)12(13,14)15/h3-5H,1-2H3,(H,16,20)",
        "InChIKey": null,
        "Canonical SMILES": "O=C1NC(C(=O)N1C2=CC=C(C(=C2)C(F)(F)F)N(=O)=O)(C)C",
        "Molecular Formula": "C<sub>12</sub>H<sub>10</sub>F<sub>3</sub>N<sub>3</sub>O<sub>4</sub>",
        "Molecular Mass": "317.22",
        "Melting Point": "152-153 °C"
    }
}