{
    "cas_no": "34316-15-9",
    "key_name": "Chelerythrine",
    "cn_name": "白屈菜红碱;",
    "alternate_name": "[1,3]Benzodioxolo[5,6-<em>c</em>]phenanthridinium, 1,2-dimethoxy-12-methyl-;Chelerythrine;1,2-Dimethoxy-12-methyl[1,3]benzodioxolo[5,6-<em>c</em>]phenanthridinium;Cheleritrine;Toddalin;Toddaline;Broussonpapyrine",
    "duplicated_cas_no": "2870-15-7;11046-21-2",
    "SMILES": "C[N+]=1C=2C(C=3C(C1)=C(OC)C(OC)=CC3)=CC=C4C2C=C5C(=C4)OCO5",
    "meta_data": {
        "InChI": "InChI=1S/C21H18NO4/c1-22-10-16-13(6-7-17(23-2)21(16)24-3)14-5-4-12-8-18-19(26-11-25-18)9-15(12)20(14)22/h4-10H,11H2,1-3H3/q+1",
        "InChIKey": null,
        "Canonical SMILES": "O(C=1C=CC2=C3C=CC=4C=C5OCOC5=CC4C3=[N+](C=C2C1OC)C)C",
        "Molecular Formula": "C<sub>21</sub>H<sub>18</sub>NO<sub>4</sub>",
        "Molecular Mass": "",
        "Melting Point": "199 °C"
    }
}