{
    "cas_no": "6053-02-7",
    "key_name": "4-Vinylcatechol",
    "cn_name": null,
    "alternate_name": "1,2-Benzenediol, 4-ethenyl-;Pyrocatechol, 4-vinyl-;4-Ethenyl-1,2-benzenediol;3,4-Styrenediol;Vinylcatechol;4-Vinylpyrocatechol;4-Vinylcatechol;3,4-Dihydroxystyrene;4-Vinyl-1,2-benzenediol;2-Hydroxy-4-vinylphenol",
    "duplicated_cas_no": "",
    "SMILES": "C(=C)C1=CC(O)=C(O)C=C1",
    "meta_data": {
        "InChI": "InChI=1S/C8H8O2/c1-2-6-3-4-7(9)8(10)5-6/h2-5,9-10H,1H2",
        "InChIKey": null,
        "Canonical SMILES": "OC1=CC=C(C=C)C=C1O",
        "Molecular Formula": "C<sub>8</sub>H<sub>8</sub>O<sub>2</sub>",
        "Molecular Mass": "136.15",
        "Melting Point": "50-53 °C"
    }
}