{
    "cas_no": "81-42-5",
    "key_name": "Disperse Violet 28",
    "cn_name": "分散紫28;1,4-二氨基-2,3-二氯蒽醌;溶剂紫31;溶剂紫51;",
    "alternate_name": "9,10-Anthracenedione, 1,4-diamino-2,3-dichloro-;Anthraquinone, 1,4-diamino-2,3-dichloro-;1,4-Diamino-2,3-dichloro-9,10-anthracenedione;C.I. 61102;1,4-Diamino-2,3-dichloroanthraquinone;Dianix Fast Violet RR;2,3-Dichloro-1,4-anthraquinonylenediamine;Latyl Violet 2R;Sumikaron Violet RR;C.I. Disperse Violet 28;1,4-Diamino-2,3-dichloro-9,10-anthraquinone;Sumiplast Violet RR;Dianisox Fast Violet 2RM/D;Sumikaron Violet E 2RL;Dianix Violet 2R-E;Resolin Violet RL;Disperse Violet 28;C.I. Solvent Violet 31;Solvent violet 31;Diaresin Violet D;PS Violet RC;Solvent Violet 51;C.I. Solvent Violet 51;Plast Violet 8855;1,4-Diamino-2,3-dichloro-9,10-dihydroanthracene-9,10-dione;KP Plast Violet R",
    "duplicated_cas_no": "12227-83-7;70956-27-3;273400-71-8;269734-21-6",
    "SMILES": "O=C1C=2C(C(=O)C=3C1=CC=CC3)=C(N)C(Cl)=C(Cl)C2N",
    "meta_data": {
        "InChI": "InChI=1S/C14H8Cl2N2O2/c15-9-10(16)12(18)8-7(11(9)17)13(19)5-3-1-2-4-6(5)14(8)20/h1-4H,17-18H2",
        "InChIKey": null,
        "Canonical SMILES": "O=C1C=2C=CC=CC2C(=O)C=3C(N)=C(Cl)C(Cl)=C(N)C13",
        "Molecular Formula": "C<sub>14</sub>H<sub>8</sub>Cl<sub>2</sub>N<sub>2</sub>O<sub>2</sub>",
        "Molecular Mass": "307.13",
        "Melting Point": "295 °C"
    }
}