{
    "cas_no": "6871-44-9",
    "key_name": "Echitamine",
    "cn_name": null,
    "alternate_name": "13<em>H</em>-3,8a-Methano-1<em>H</em>-azepino[1′,2′:1,2]pyrrolo[2,3-<em>b</em>]indolium, 4-ethylidene-2,3,4,5,7,8-hexahydro-1-hydroxy-14-(hydroxymethyl)-14-(methoxycarbonyl)-6-methyl-, (1<em>S</em>,3<em>S</em>,4<em>E</em>,8a<em>S</em>,13a<em>R</em>,14<em>R</em>)-;Echitamine;2,4(1<em>H</em>)-Cyclo-3,4-secoakuammilanium, 3,17-dihydroxy-16-(methoxycarbonyl)-4-methyl-, (3β,16<em>R</em>)-;Ditaine;(1<em>S</em>,3<em>S</em>,4<em>E</em>,8a<em>S</em>,13a<em>R</em>,14<em>R</em>)-4-Ethylidene-2,3,4,5,7,8-hexahydro-1-hydroxy-14-(hydroxymethyl)-14-(methoxycarbonyl)-6-methyl-13<em>H</em>-3,8a-methano-1<em>H</em>-azepino[1′,2′:1,2]pyrrolo[2,3-<em>b</em>]indolium;13<em>H</em>-3,8a-Methano-1<em>H</em>-azepino[1′,2′:1,2]pyrrolo[2,3-<em>b</em>]indolium, 4-ethylidene-2,3,4,5,7,8-hexahydro-1-hydroxy-14-(hydroxymethyl)-14-(methoxycarbonyl)-6-methyl-, [1<em>S</em>-(1α,3β,4<em>E</em>,8aα,13a<em>S</em>*,14<em>S</em>*)]-;NSC 296565",
    "duplicated_cas_no": "1356-78-1;23106-72-1",
    "SMILES": "C(OC)(=O)[C@@]1(CO)[C@]23[C@]4([N@@+](C)(CC2)C\\C(=C\\C)\\[C@@]1(C[C@@H]4O)[H])NC=5C3=CC=CC5",
    "meta_data": {
        "InChI": "InChI=1S/C22H29N2O4/c1-4-14-12-24(2)10-9-21-15-7-5-6-8-17(15)23-22(21,24)18(26)11-16(14)20(21,13-25)19(27)28-3/h4-8,16,18,23,25-26H,9-13H2,1-3H3/q+1/b14-4-/t16-,18-,20-,21-,22-,24?/m0/s1",
        "InChIKey": null,
        "Canonical SMILES": "O=C(OC)C1(CO)C2C(=CC)C[N+]3(C)CCC41C=5C=CC=CC5NC43C(O)C2",
        "Molecular Formula": "C<sub>22</sub>H<sub>29</sub>N<sub>2</sub>O<sub>4</sub>",
        "Molecular Mass": "",
        "Melting Point": "139-140 °C"
    }
}