{
    "cas_no": "26791-93-5",
    "key_name": "Benzoic acid, 4,5-dimethoxy-2-nitro-, methyl ester",
    "cn_name": "6-硝基藜芦酸甲酯;4,5-二甲氧基-2-硝基苯甲酸甲酯;",
    "alternate_name": "Benzoic acid, 4,5-dimethoxy-2-nitro-, methyl ester;Veratric acid, 6-nitro-, methyl ester;Methyl 3,4-dimethoxy-6-nitrobenzoate;Methyl 4,5-dimethoxy-2-nitrobenzoate;Methyl 6-nitro-3,4-dimethoxybenzoate;Methyl 6-nitroveratrate;2-Nitro-4,5-dimethoxybenzoic acid methyl ester;4,5-Dimethoxy-2-nitrobenzoic acid methyl ester",
    "duplicated_cas_no": "",
    "SMILES": "C(OC)(=O)C1=C(N(=O)=O)C=C(OC)C(OC)=C1",
    "meta_data": {
        "InChI": "InChI=1S/C10H11NO6/c1-15-8-4-6(10(12)17-3)7(11(13)14)5-9(8)16-2/h4-5H,1-3H3",
        "InChIKey": null,
        "Canonical SMILES": "O=C(OC)C1=CC(OC)=C(OC)C=C1N(=O)=O",
        "Molecular Formula": "C<sub>10</sub>H<sub>11</sub>NO<sub>6</sub>",
        "Molecular Mass": "241.20",
        "Melting Point": "143-144 °C"
    }
}