{
    "cas_no": "13925-06-9",
    "key_name": "2-Isobutyl-3-methylpyrazine",
    "cn_name": "2-异丁基-3-甲基吡嗪;",
    "alternate_name": "Pyrazine, 2-methyl-3-(2-methylpropyl)-;Pyrazine, 2-isobutyl-3-methyl-;2-Methyl-3-(2-methylpropyl)pyrazine;2-Methyl-3-isobutylpyrazine;2-Isobutyl-3-methylpyrazine",
    "duplicated_cas_no": "",
    "SMILES": "C(C(C)C)C=1C(C)=NC=CN1",
    "meta_data": {
        "InChI": "InChI=1S/C9H14N2/c1-7(2)6-9-8(3)10-4-5-11-9/h4-5,7H,6H2,1-3H3",
        "InChIKey": null,
        "Canonical SMILES": "N=1C=CN=C(C1C)CC(C)C",
        "Molecular Formula": "C<sub>9</sub>H<sub>14</sub>N<sub>2</sub>",
        "Molecular Mass": "150.22",
        "Boiling Point": "90-92 °C @ Press: 30 Torr",
        "Melting Point": "74 °C"
    }
}