{
    "cas_no": "52031-05-7",
    "key_name": "Phenylalanine, 4-chloro-, ethyl ester, hydrochloride (1:1)",
    "cn_name": "DL-4-氯苯基丙氨酸乙基酯盐酸盐;DL-4-氯苯基丙氨酸乙基酯酸盐;",
    "alternate_name": "Phenylalanine, 4-chloro-, ethyl ester, hydrochloride (1:1);<span class=\"text-smallcaps\">DL</span>-Phenylalanine, 4-chloro-, ethyl ester, hydrochloride;Phenylalanine, 4-chloro-, ethyl ester, hydrochloride;<span class=\"text-smallcaps\">DL</span>-<em>p</em>-Chlorophenylalanine ethyl ester hydrochloride;<em>p</em>-Chlorophenylalanine ethyl ester hydrochloride",
    "duplicated_cas_no": "40915-49-9",
    "SMILES": "C(C(C(OCC)=O)N)C1=CC=C(Cl)C=C1.Cl",
    "meta_data": {
        "InChI": "InChI=1S/C11H14ClNO2.ClH/c1-2-15-11(14)10(13)7-8-3-5-9(12)6-4-8;/h3-6,10H,2,7,13H2,1H3;1H",
        "InChIKey": null,
        "Canonical SMILES": "Cl.O=C(OCC)C(N)CC1=CC=C(Cl)C=C1",
        "Molecular Formula": "C<sub>11</sub>H<sub>14</sub>ClNO<sub>2</sub>.ClH",
        "Molecular Mass": "",
        "Melting Point": "158 °C"
    }
}