{
    "cas_no": "66-22-8",
    "key_name": "Uracil",
    "cn_name": "尿嘧啶;2,4(1H,3H)-嘧啶二酮;",
    "alternate_name": "2,4(1<em>H</em>,3<em>H</em>)-Pyrimidinedione;Uracil;2,4-Dioxopyrimidine;2,4-Pyrimidinediol;2,4-Dihydroxypyrimidine;Pyrod;Pirod;2,4-Pyrimidinedione;Hybar X;NSC 3970;4-Hydroxyuracil;1,2,3,4-Tetrahydropyrimidine-2,4-dione;MeSH ID: D014498;P 10A002",
    "duplicated_cas_no": "766-19-8;4433-21-0;4433-24-3;42910-77-0;144104-68-7;138285-60-6;153445-42-2;51953-19-6",
    "SMILES": "O=C1NC(=O)NC=C1",
    "meta_data": {
        "InChI": "InChI=1S/C4H4N2O2/c7-3-1-2-5-4(8)6-3/h1-2H,(H2,5,6,7,8)",
        "InChIKey": null,
        "Canonical SMILES": "O=C1C=CNC(=O)N1",
        "Molecular Formula": "C<sub>4</sub>H<sub>4</sub>N<sub>2</sub>O<sub>2</sub>",
        "Molecular Mass": "112.09",
        "Melting Point": "338 °C"
    }
}