{
    "cas_no": "25021-08-3",
    "key_name": "2,5-Dihydro-2,5-dioxo-1<em>H</em>-pyrrole-1-acetic acid",
    "cn_name": null,
    "alternate_name": "1<em>H</em>-Pyrrole-1-acetic acid, 2,5-dihydro-2,5-dioxo-;3-Pyrroline-1-acetic acid, 2,5-dioxo-;2,5-Dihydro-2,5-dioxo-1<em>H</em>-pyrrole-1-acetic acid;Acetic acid, maleimido-;<em>N</em>-(Carboxymethyl)maleimide;Maleimidoacetic acid;<em>N</em>-Maleimidoglycine;<em>N</em>-Maleoylglycine;NSC 266055;<em>N</em>-Glycinylmaleimide;2-(2,5-Dioxo-2,5-dihydro-1<em>H</em>-pyrrol-1-yl)acetic acid;2,5-Dihydro-2,5-dioxopyrrol-1-ylacetic acid;(2,5-Dioxo-2,5-dihydro-1<em>H</em>-pyrrol-1-yl)acetic acid;2-Maleimidoacetic acid;2-Maleimido acetic acid;2-(2,5-Dioxopyrrol-1-yl)acetic acid",
    "duplicated_cas_no": "",
    "SMILES": "C(C(O)=O)N1C(=O)C=CC1=O",
    "meta_data": {
        "InChI": "InChI=1S/C6H5NO4/c8-4-1-2-5(9)7(4)3-6(10)11/h1-2H,3H2,(H,10,11)",
        "InChIKey": null,
        "Canonical SMILES": "O=C1C=CC(=O)N1CC(=O)O",
        "Molecular Formula": "C<sub>6</sub>H<sub>5</sub>NO<sub>4</sub>",
        "Molecular Mass": "155.11",
        "Melting Point": "114 °C"
    }
}