{
    "cas_no": "2415-80-7",
    "key_name": "1,1-Dichloro-2-phenylcyclopropane",
    "cn_name": "(2,2-二氯环丙基)苯;1,1-二氯-2-苯基环丙烷;",
    "alternate_name": "Benzene, (2,2-dichlorocyclopropyl)-;(2,2-Dichlorocyclopropyl)benzene;1,1-Dichloro-2-phenylcyclopropane;2,2-Dichloro-1-phenylcyclopropane;2-Phenyl-1,1-dichlorocyclopropane;(±)-(2,2-Dichlorocyclopropyl)benzene;NSC 3003",
    "duplicated_cas_no": "144900-30-1",
    "SMILES": "ClC1(Cl)C(C1)C2=CC=CC=C2",
    "meta_data": {
        "InChI": "InChI=1S/C9H8Cl2/c10-9(11)6-8(9)7-4-2-1-3-5-7/h1-5,8H,6H2",
        "InChIKey": null,
        "Canonical SMILES": "ClC1(Cl)CC1C=2C=CC=CC2",
        "Molecular Formula": "C<sub>9</sub>H<sub>8</sub>Cl<sub>2</sub>",
        "Molecular Mass": "187.07",
        "Boiling Point": "114 °C @ Press: 13 Torr",
        "Density": "1.2263 g/cm³ @ Temp: 20 °C"
    }
}