{
    "cas_no": "1191-67-9",
    "key_name": "1,10-Decanedithiol",
    "cn_name": "1,10-癸二硫醇;",
    "alternate_name": "1,10-Decanedithiol;1,10-Dimercaptodecane;NSC 9486",
    "duplicated_cas_no": "",
    "SMILES": "C(CCCCCS)CCCCS",
    "meta_data": {
        "InChI": "InChI=1S/C10H22S2/c11-9-7-5-3-1-2-4-6-8-10-12/h11-12H,1-10H2",
        "InChIKey": null,
        "Canonical SMILES": "SCCCCCCCCCCS",
        "Molecular Formula": "C<sub>10</sub>H<sub>22</sub>S<sub>2</sub>",
        "Molecular Mass": "206.41",
        "Boiling Point": "165-166 °C @ Press: 15 Torr",
        "Melting Point": "20 °C"
    }
}