{
    "cas_no": "1131-94-8",
    "key_name": "3-Hydroxy-4-methoxybenzeneacetic acid",
    "cn_name": "3-羟基-4-甲氧基苯乙酸;",
    "alternate_name": "Benzeneacetic acid, 3-hydroxy-4-methoxy-;Acetic acid, (3-hydroxy-4-methoxyphenyl)-;3-Hydroxy-4-methoxybenzeneacetic acid;Homoisovanillic acid;Isohomovanillic acid;3-Hydroxy-4-methoxyphenylacetic acid;4-Methoxy-3-hydroxyphenylacetic acid;4-Methoxy-<em>m</em>-hydroxybenzenacetic acid;2-(3-Hydroxy-4-methoxyphenyl)acetic acid",
    "duplicated_cas_no": "",
    "SMILES": "O(C)C1=C(O)C=C(CC(O)=O)C=C1",
    "meta_data": {
        "InChI": "InChI=1S/C9H10O4/c1-13-8-3-2-6(4-7(8)10)5-9(11)12/h2-4,10H,5H2,1H3,(H,11,12)",
        "InChIKey": null,
        "Canonical SMILES": "O=C(O)CC1=CC=C(OC)C(O)=C1",
        "Molecular Formula": "C<sub>9</sub>H<sub>10</sub>O<sub>4</sub>",
        "Molecular Mass": "182.17",
        "Melting Point": "122.5-124.5 °C"
    }
}