{
    "cas_no": "151-38-2",
    "key_name": "(Acetato-κ<em>O</em>)(2-methoxyethyl)mercury",
    "cn_name": "醋酸甲氧基乙基汞;乙酸甲氧基乙基汞;",
    "alternate_name": "Mercury, (acetato-κ<em>O</em>)(2-methoxyethyl)-;Mercury, (acetato)(2-methoxyethyl)-;Mercury, (acetato-<em>O</em>)(2-methoxyethyl)-;Mercury, acetoxy(2-methoxyethyl)-;Mercury, 2-methoxyethyl-, acetate;(Acetato-κ<em>O</em>)(2-methoxyethyl)mercury;Acetato(2-methoxyethyl)mercury;Landisan;MeEHg;Mema;Radosan;Mercuran;(2-Methoxyethyl)mercury acetate;Ba 2743;Merkuran;(Acetato-<em>O</em>)(2-methoxyethyl)mercury;Mema RM;Panogen (new);Panogen;Panogen-Metox;NSC 202875",
    "duplicated_cas_no": "12798-32-2",
    "SMILES": "[Hg](OC(C)=O)CCOC",
    "meta_data": {
        "InChI": "InChI=1S/C3H7O.C2H4O2.Hg/c1-3-4-2;1-2(3)4;/h1,3H2,2H3;1H3,(H,3,4);/q;;+1/p-1",
        "InChIKey": null,
        "Canonical SMILES": "O=C(O[Hg]CCOC)C",
        "Molecular Formula": "C<sub>5</sub>H<sub>10</sub>HgO<sub>3</sub>",
        "Molecular Mass": "",
        "Melting Point": "40-42 °C"
    }
}