{
    "cas_no": "95-75-0",
    "key_name": "3,4-Dichlorotoluene",
    "cn_name": "3,4-二氯甲苯;",
    "alternate_name": "Benzene, 1,2-dichloro-4-methyl-;Toluene, 3,4-dichloro-;1,2-Dichloro-4-methylbenzene;3,4-Dichlorotoluene;NSC 8765",
    "duplicated_cas_no": "",
    "SMILES": "ClC1=C(Cl)C=CC(C)=C1",
    "meta_data": {
        "InChI": "InChI=1S/C7H6Cl2/c1-5-2-3-6(8)7(9)4-5/h2-4H,1H3",
        "InChIKey": null,
        "Canonical SMILES": "ClC1=CC=C(C=C1Cl)C",
        "Molecular Formula": "C<sub>7</sub>H<sub>6</sub>Cl<sub>2</sub>",
        "Molecular Mass": "161.03",
        "Boiling Point": "208.9 °C",
        "Melting Point": "-15.2 °C",
        "Density": "1.2541 g/cm³ @ Temp: 20 °C"
    }
}