{
    "cas_no": "13372-81-1",
    "key_name": "3-Phenyl-2-propenal oxime",
    "cn_name": "肉桂醛肟;3-苯基丙烯醛肟;",
    "alternate_name": "2-Propenal, 3-phenyl-, oxime;Cinnamaldehyde, oxime;3-Phenyl-2-propenal oxime;Cinnamaldoxime;3-Phenylacrylicaldoxime;NSC 77420;3-Phenylacrylaldehyde oxime",
    "duplicated_cas_no": "",
    "SMILES": "C(=CC=NO)C1=CC=CC=C1",
    "meta_data": {
        "InChI": "InChI=1S/C9H9NO/c11-10-8-4-7-9-5-2-1-3-6-9/h1-8,11H",
        "InChIKey": null,
        "Canonical SMILES": "ON=CC=CC=1C=CC=CC1",
        "Molecular Formula": "C<sub>9</sub>H<sub>9</sub>NO",
        "Molecular Mass": "147.17",
        "Melting Point": "136 °C"
    }
}