{
    "cas_no": "536-33-4",
    "key_name": "Ethionamide",
    "cn_name": "乙硫异烟胺;2-乙基吡啶-4-硫代甲酰胺;",
    "alternate_name": "4-Pyridinecarbothioamide, 2-ethyl-;Isonicotinamide, 2-ethylthio-;Isonicotinimidic acid, 2-ethylthio-;2-Ethyl-4-pyridinecarbothioamide;1314TH;Bayer 5312;F.I. 58-30;Amidazine;Ethina;Ethionamide;Ethioniamide;2-Ethylisonicotinic acid thioamide;Ethylisothiamide;α-Ethylisothionicotinamide;2-Ethyl-4-thiocarbamoylpyridine;2-Ethylthioisonicotinamide;Ethyonomide;Etionizine;Iridozin;Thianid;Thianide;Trecator;Trescatyl;2-Ethylisothionicotinamide;α-Ethylthioisonicotinamide;Iridocin;Iridocin Bayer;Etionamid;Trekator;Etioniamid;Etionizin;Tianid;2-Ethylisonicotinothioamide;Etimid;Etionid;Nizotin;Tiomid;Sertinon;Teberus;Thiodine;Trecator SC;NSC 255115;2-Ethylpyridine-4-thiocarboxamide;MeSH ID: D005000",
    "duplicated_cas_no": "5261-38-1",
    "SMILES": "C(N)(=S)C=1C=C(CC)N=CC1",
    "meta_data": {
        "InChI": "InChI=1S/C8H10N2S/c1-2-7-5-6(8(9)11)3-4-10-7/h3-5H,2H2,1H3,(H2,9,11)",
        "InChIKey": null,
        "Canonical SMILES": "S=C(N)C=1C=CN=C(C1)CC",
        "Molecular Formula": "C<sub>8</sub>H<sub>10</sub>N<sub>2</sub>S",
        "Molecular Mass": "166.24",
        "Melting Point": "163 °C"
    }
}