{
    "cas_no": "15579-15-4",
    "key_name": "1<em>H</em>-Indazol-5-ol",
    "cn_name": "1H-吲唑-5-醇;",
    "alternate_name": "1<em>H</em>-Indazol-5-ol;5-Indazolol;5-Hydroxyindazole;5-Hydroxy-1<em>H</em>-indazole;NSC 520104",
    "duplicated_cas_no": "",
    "SMILES": "OC=1C=C2C(=CC1)NN=C2",
    "meta_data": {
        "InChI": "InChI=1S/C7H6N2O/c10-6-1-2-7-5(3-6)4-8-9-7/h1-4,10H,(H,8,9)",
        "InChIKey": null,
        "Canonical SMILES": "OC=1C=CC=2NN=CC2C1",
        "Molecular Formula": "C<sub>7</sub>H<sub>6</sub>N<sub>2</sub>O",
        "Molecular Mass": "134.14",
        "Melting Point": "184 °C"
    }
}