{
    "cas_no": "87698-82-6",
    "key_name": "4-(2-Bromophenyl)morpholine",
    "cn_name": null,
    "alternate_name": "Morpholine, 4-(2-bromophenyl)-;4-(2-Bromophenyl)morpholine;2-(4-Morpholino)bromobenzene;2-Morpholinobromobenzene;<em>N</em>-(2-Bromophenyl)morpholine",
    "duplicated_cas_no": "",
    "SMILES": "BrC1=C(N2CCOCC2)C=CC=C1",
    "meta_data": {
        "InChI": "InChI=1S/C10H12BrNO/c11-9-3-1-2-4-10(9)12-5-7-13-8-6-12/h1-4H,5-8H2",
        "InChIKey": null,
        "Canonical SMILES": "BrC=1C=CC=CC1N2CCOCC2",
        "Molecular Formula": "C<sub>10</sub>H<sub>12</sub>BrNO",
        "Molecular Mass": "242.11",
        "Melting Point": "112-115 °C"
    }
}