{
    "cas_no": "88-97-1",
    "key_name": "Phthalamic acid",
    "cn_name": "邻氨甲酰苯甲酸;",
    "alternate_name": "Benzoic acid, 2-(aminocarbonyl)-;Phthalamic acid;2-(Aminocarbonyl)benzoic acid;Phthalamide acid;Phthalamidic acid;<em>o</em>-Carbamoylbenzoic acid;Phthalic acid monoamide;Phthalic monoamide;2-Carbamoylbenzoic acid;NSC 5344",
    "duplicated_cas_no": "",
    "SMILES": "C(N)(=O)C1=C(C(O)=O)C=CC=C1",
    "meta_data": {
        "InChI": "InChI=1S/C8H7NO3/c9-7(10)5-3-1-2-4-6(5)8(11)12/h1-4H,(H2,9,10)(H,11,12)",
        "InChIKey": null,
        "Canonical SMILES": "O=C(O)C=1C=CC=CC1C(=O)N",
        "Molecular Formula": "C<sub>8</sub>H<sub>7</sub>NO<sub>3</sub>",
        "Molecular Mass": "165.15",
        "Melting Point": "185-186 °C"
    }
}