{
    "cas_no": "109-73-9",
    "key_name": "Butylamine",
    "cn_name": "正丁胺;1-氨基丁烷;丁胺;",
    "alternate_name": "1-Butanamine;Butylamine;1-Aminobutane;Mono-<em>n</em>-butylamine;Norvalamine;<em>n</em>-Butylamine;Monobutylamine;1-Butylamine;NSC 8029",
    "duplicated_cas_no": "42939-72-0;50929-03-8;85404-21-3",
    "SMILES": "C(CC)CN",
    "meta_data": {
        "InChI": "InChI=1S/C4H11N/c1-2-3-4-5/h2-5H2,1H3",
        "InChIKey": null,
        "Canonical SMILES": "NCCCC",
        "Molecular Formula": "C<sub>4</sub>H<sub>11</sub>N",
        "Molecular Mass": "73.14",
        "Boiling Point": "78 °C",
        "Melting Point": "-50 °C",
        "Density": "0.7327 g/cm³ @ Temp: 25 °C"
    }
}