{
    "cas_no": "39577-43-0",
    "key_name": "1-(3-Chlorophenyl)-4-(3-chloropropyl)piperazine",
    "cn_name": "1-(3-氯苯基)-4-(3-氯丙基)哌嗪;",
    "alternate_name": "Piperazine, 1-(3-chlorophenyl)-4-(3-chloropropyl)-;Piperazine, 1-(<em>m</em>-chlorophenyl)-4-(3-chloropropyl)-;1-(3-Chlorophenyl)-4-(3-chloropropyl)piperazine;3-[4-(3-Chlorophenyl)piperazin-1-yl]propyl chloride;NSC 520934;1-[4-(3-Chlorophenyl)piperazin-1-yl]-3-chloropropane;1-(3-Chloropropyl)-4-(3-chlorophenyl)piperazine",
    "duplicated_cas_no": "1307381-20-9",
    "SMILES": "ClC=1C=C(N2CCN(CCCCl)CC2)C=CC1",
    "meta_data": {
        "InChI": "InChI=1S/C13H18Cl2N2/c14-5-2-6-16-7-9-17(10-8-16)13-4-1-3-12(15)11-13/h1,3-4,11H,2,5-10H2",
        "InChIKey": null,
        "Canonical SMILES": "ClC1=CC=CC(=C1)N2CCN(CC2)CCCCl",
        "Molecular Formula": "C<sub>13</sub>H<sub>18</sub>Cl<sub>2</sub>N<sub>2</sub>",
        "Molecular Mass": "273.20",
        "Boiling Point": "157-162 °C @ Press: 0.5 Torr"
    }
}