{
    "cas_no": "3569-10-6",
    "key_name": "(-)-Valerenic acid",
    "cn_name": "戊酸;戊酸;",
    "alternate_name": "2-Propenoic acid, 3-[(4<em>S</em>,7<em>R</em>,7a<em>R</em>)-2,4,5,6,7,7a-hexahydro-3,7-dimethyl-1<em>H</em>-inden-4-yl]-2-methyl-, (2<em>E</em>)-;Indene-4-acrylic acid, 2,4,5,6,7,7a-hexahydro-α,3,7-trimethyl-;Valerenic acid;2-Propenoic acid, 3-(2,4,5,6,7,7a-hexahydro-3,7-dimethyl-1<em>H</em>-inden-4-yl)-2-methyl-, [4<em>S</em>-[4α(<em>E</em>),7β,7aα]]-;(2<em>E</em>)-3-[(4<em>S</em>,7<em>R</em>,7a<em>R</em>)-2,4,5,6,7,7a-Hexahydro-3,7-dimethyl-1<em>H</em>-inden-4-yl]-2-methyl-2-propenoic acid;(-)-Valerenic acid;Nardin",
    "duplicated_cas_no": "64130-69-4;866350-53-0",
    "SMILES": "C(=C(/C(O)=O)\\C)\\[C@H]1C=2[C@](CCC2C)([C@H](C)CC1)[H]",
    "meta_data": {
        "InChI": "InChI=1S/C15H22O2/c1-9-4-6-12(8-11(3)15(16)17)14-10(2)5-7-13(9)14/h8-9,12-13H,4-7H2,1-3H3,(H,16,17)/b11-8+/t9-,12+,13-/m1/s1",
        "InChIKey": null,
        "Canonical SMILES": "O=C(O)C(=CC1C2=C(C)CCC2C(C)CC1)C",
        "Molecular Formula": "C<sub>15</sub>H<sub>22</sub>O<sub>2</sub>",
        "Molecular Mass": "234.33",
        "Melting Point": "140-142 °C"
    }
}