{
    "cas_no": "5208-93-5",
    "key_name": "3-Methyl-1-(2,6,6-trimethyl-1-cyclohexen-1-yl)-1,4-pentadien-3-ol",
    "cn_name": null,
    "alternate_name": "1,4-Pentadien-3-ol, 3-methyl-1-(2,6,6-trimethyl-1-cyclohexen-1-yl)-;3-Methyl-1-(2,6,6-trimethyl-1-cyclohexen-1-yl)-1,4-pentadien-3-ol;Vinylionol;3-Methyl-5-(2,6,6-trimethyl-1-cyclohexenyl)-1,4-pentadien-3-ol;Vinyl-β-ionol;3-Methyl-3-hydroxy-5-(2,6,6-trimethyl-1-cyclohexen-1-yl)-1,4-pentadiene;3-Methyl-1-(2,6,6-trimethyl-1-cyclohexen-1-yl)penta-1,4-dien-3-ol;3-Methyl-1-(2,6,6-trimethylcyclohexen-1-yl)penta-1,4-dien-3-ol",
    "duplicated_cas_no": "",
    "SMILES": "C(=CC(C=C)(C)O)C=1C(C)(C)CCCC1C",
    "meta_data": {
        "InChI": "InChI=1S/C15H24O/c1-6-15(5,16)11-9-13-12(2)8-7-10-14(13,3)4/h6,9,11,16H,1,7-8,10H2,2-5H3",
        "InChIKey": null,
        "Canonical SMILES": "OC(C=C)(C=CC1=C(C)CCCC1(C)C)C",
        "Molecular Formula": "C<sub>15</sub>H<sub>24</sub>O",
        "Molecular Mass": "220.35",
        "Boiling Point": "113-115 °C @ Press: 2 Torr"
    }
}