{
    "cas_no": "40828-54-4",
    "key_name": "1<em>H</em>-Benzimidazole-2-sulfonic acid",
    "cn_name": null,
    "alternate_name": "1<em>H</em>-Benzimidazole-2-sulfonic acid;2-Benzimidazolesulfonic acid;1<em>H</em>-Benzoimidazole-2-sulfonic acid;1<em>H</em>-1,3-Benzodiazole-2-sulfonic acid",
    "duplicated_cas_no": "",
    "SMILES": "S(=O)(=O)(O)C=1NC=2C(N1)=CC=CC2",
    "meta_data": {
        "InChI": "InChI=1S/C7H6N2O3S/c10-13(11,12)7-8-5-3-1-2-4-6(5)9-7/h1-4H,(H,8,9)(H,10,11,12)",
        "InChIKey": null,
        "Canonical SMILES": "O=S(=O)(O)C1=NC=2C=CC=CC2N1",
        "Molecular Formula": "C<sub>7</sub>H<sub>6</sub>N<sub>2</sub>O<sub>3</sub>S",
        "Molecular Mass": "198.20",
        "Melting Point": "365 °C"
    }
}