{
    "cas_no": "21691-43-0",
    "key_name": "<em>N</em>-[(Phenylmethoxy)carbonyl]norvaline",
    "cn_name": "N-苄氧羰基-DL-正缬氨酸;",
    "alternate_name": "Norvaline, <em>N</em>-[(phenylmethoxy)carbonyl]-;Norvaline, <em>N</em>-carboxy-, <em>N</em>-benzyl ester, <span class=\"text-smallcaps\">DL</span>-;<span class=\"text-smallcaps\">DL</span>-Norvaline, <em>N</em>-[(phenylmethoxy)carbonyl]-;Norvaline, <em>N</em>-carboxy-, <em>N</em>-benzyl ester;<em>N</em>-[(Phenylmethoxy)carbonyl]norvaline;<em>N</em>-(Benzyloxycarbonyl)-<span class=\"text-smallcaps\">DL</span>-norvaline;<span class=\"text-smallcaps\">DL</span>-(Carbobenzyloxy)norvaline;<em>N</em>-Carbobenzyloxy-<span class=\"text-smallcaps\">DL</span>-norvaline;NSC 97947;Cbz-<span class=\"text-smallcaps\">D</smallcap><smallcap>L</span>-Norvaline;2-(Phenylmethoxycarbonylamino)pentanoic acid;2-[[(Benzyloxy)carbonyl]amino]pentanoic acid",
    "duplicated_cas_no": "196600-84-7",
    "SMILES": "C(NC(OCC1=CC=CC=C1)=O)(CCC)C(O)=O",
    "meta_data": {
        "InChI": "InChI=1S/C13H17NO4/c1-2-6-11(12(15)16)14-13(17)18-9-10-7-4-3-5-8-10/h3-5,7-8,11H,2,6,9H2,1H3,(H,14,17)(H,15,16)",
        "InChIKey": null,
        "Canonical SMILES": "O=C(OCC=1C=CC=CC1)NC(C(=O)O)CCC",
        "Molecular Formula": "C<sub>13</sub>H<sub>17</sub>NO<sub>4</sub>",
        "Molecular Mass": "251.28",
        "Melting Point": "90-91 °C"
    }
}