{
    "cas_no": "3506-36-3",
    "key_name": "3-(Dimethylamino)-1-phenyl-1-propanone",
    "cn_name": null,
    "alternate_name": "1-Propanone, 3-(dimethylamino)-1-phenyl-;Propiophenone, 3-(dimethylamino)-;3-(Dimethylamino)-1-phenyl-1-propanone;β-<em>N</em>,<em>N</em>′-Dimethylaminopropiophenone;3-(Dimethylamino)propiophenone;Phenyl-β-dimethylaminoethyl ketone;β-(Dimethylamino)propiophenone;2-Benzoylethyldimethylamine;2-(Dimethylamino)ethyl phenyl ketone;NSC 89",
    "duplicated_cas_no": "",
    "SMILES": "C(CCN(C)C)(=O)C1=CC=CC=C1",
    "meta_data": {
        "InChI": "InChI=1S/C11H15NO/c1-12(2)9-8-11(13)10-6-4-3-5-7-10/h3-7H,8-9H2,1-2H3",
        "InChIKey": null,
        "Canonical SMILES": "O=C(C=1C=CC=CC1)CCN(C)C",
        "Molecular Formula": "C<sub>11</sub>H<sub>15</sub>NO",
        "Molecular Mass": "177.24",
        "Boiling Point": "115-117 °C @ Press: 11 Torr",
        "Melting Point": "31-33 °C",
        "Density": "1.017 g/cm³ @ Temp: 20 °C"
    }
}