{
    "cas_no": "71751-41-2",
    "key_name": "Abamectin",
    "cn_name": "阿维菌素;",
    "alternate_name": "Avermectin B<sub>1</sub>;Spiro[11,15-methano-2<em>H</em>,13<em>H</em>,17<em>H</em>-furo[4,3,2-<em>pq</em>][2,6]benzodioxacyclooctadecin-13,2′-[2<em>H</em>]pyran], avermectin B<sub>1</sub> deriv.;MK 936;Abamectin;Avermectin B<sub>1a</sub>-Avermectin B<sub>1b</sub> mixt.;L 676;Vertimec;Avid;Agri-Mek;PT 310;Avert;Zephyr;Abamektin;Vermitec;Aversectin S;Phytoverm;Rustomectin;Fitoverm;Agrimec;Abamitel;Genesis Oral Drench;Lirosect;Avicta;STAN;A 14906;A 8612;CHA 2061;CHA 2062;Lyrosekt;Mectin;Abba;Avicta 400FS;Zoro;AgMectin;Temprano;Epi-Mek;Abastate;Abastate EW;Genesis Pour-on for Cattle and Deer;Kraft;Abarex;Vertigo 018EC;Vertigo (pesticide);Vertimec 018SC;Avid 0.15EC;Agador;Dalamectin;Dalamektin;Fitoverm M;KRAFT 36 EC;Abathor;Agri-Mek SC",
    "duplicated_cas_no": "86753-29-9;100920-72-7;122666-97-1;138794-43-1;181658-85-5;1047643-53-7",
    "SMILES": "",
    "meta_data": {
        "InChI": "",
        "InChIKey": null,
        "Canonical SMILES": "",
        "Molecular Formula": "Unspecified",
        "Molecular Mass": "",
        "Melting Point": "150-155 °C",
        "Density": "1.16 g/cm³ @ Temp: 21 °C"
    }
}