{
    "uri": "substance/pt/71751412",
    "rn": "71751-41-2",
    "name": "Abamectin",
    "images": [],
    "inchi": "",
    "inchiKey": "",
    "smile": "",
    "canonicalSmile": "",
    "molecularFormula": "Unspecified",
    "molecularMass": "",
    "experimentalProperties": [
        {
            "name": "Melting Point",
            "property": "150-155 °C",
            "sourceNumber": 1
        },
        {
            "name": "Density",
            "property": "1.16 g/cm³ @ Temp: 21 °C",
            "sourceNumber": 1
        }
    ],
    "propertyCitations": [
        {
            "docUri": "",
            "sourceNumber": 1,
            "source": "Hazardous Substances Data Bank data were obtained from the National Library of Medicine (US)"
        }
    ],
    "synonyms": [
        "Avermectin B<sub>1</sub>",
        "Spiro[11,15-methano-2<em>H</em>,13<em>H</em>,17<em>H</em>-furo[4,3,2-<em>pq</em>][2,6]benzodioxacyclooctadecin-13,2′-[2<em>H</em>]pyran], avermectin B<sub>1</sub> deriv.",
        "MK 936",
        "Abamectin",
        "Avermectin B<sub>1a</sub>-Avermectin B<sub>1b</sub> mixt.",
        "L 676",
        "Vertimec",
        "Avid",
        "Agri-Mek",
        "PT 310",
        "Avert",
        "Zephyr",
        "Abamektin",
        "Vermitec",
        "Aversectin S",
        "Phytoverm",
        "Rustomectin",
        "Fitoverm",
        "Agrimec",
        "Abamitel",
        "Genesis Oral Drench",
        "Lirosect",
        "Avicta",
        "STAN",
        "A 14906",
        "A 8612",
        "CHA 2061",
        "CHA 2062",
        "Lyrosekt",
        "Mectin",
        "Abba",
        "Avicta 400FS",
        "Zoro",
        "AgMectin",
        "Temprano",
        "Epi-Mek",
        "Abastate",
        "Abastate EW",
        "Genesis Pour-on for Cattle and Deer",
        "Kraft",
        "Abarex",
        "Vertigo 018EC",
        "Vertigo (pesticide)",
        "Vertimec 018SC",
        "Avid 0.15EC",
        "Agador",
        "Dalamectin",
        "Dalamektin",
        "Fitoverm M",
        "KRAFT 36 EC",
        "Abathor",
        "Agri-Mek SC"
    ],
    "replacedRns": [
        "86753-29-9",
        "100920-72-7",
        "122666-97-1",
        "138794-43-1",
        "181658-85-5",
        "1047643-53-7"
    ],
    "hasMolfile": false,
    "source": "https://commonchemistry.cas.org/detail?cas_rn=71751-41-2"
}