{
    "cas_no": "19798-81-3",
    "key_name": "2-Amino-6-bromopyridine",
    "cn_name": "2-氨基-6-溴吡啶;2-溴-6-氨基吡啶;",
    "alternate_name": "2-Pyridinamine, 6-bromo-;Pyridine, 2-amino-6-bromo-;6-Bromo-2-pyridinamine;2-Amino-6-bromopyridine;6-Bromopyridin-2-ylamine;6-Bromo-2-aminopyridine;NSC 176170;2-Bromo-6-aminopyridine",
    "duplicated_cas_no": "",
    "SMILES": "BrC=1N=C(N)C=CC1",
    "meta_data": {
        "InChI": "InChI=1S/C5H5BrN2/c6-4-2-1-3-5(7)8-4/h1-3H,(H2,7,8)",
        "InChIKey": null,
        "Canonical SMILES": "BrC=1N=C(N)C=CC1",
        "Molecular Formula": "C<sub>5</sub>H<sub>5</sub>BrN<sub>2</sub>",
        "Molecular Mass": "173.01",
        "Melting Point": "89-89.5 °C"
    }
}