{
    "cas_no": "940-69-2",
    "key_name": "Lipoamide",
    "cn_name": "(+/-)-alpha-硫辛酰胺;",
    "alternate_name": "1,2-Dithiolane-3-pentanamide;α-Lipamide;1,2-Dithiolane-3-valeramide;α-Lipoamide;Lipoamide;Thioctamide;Lipamide;5-(1,2-Dithiolan-3-yl)valeramide;Lipoacin;Lipoamid;Lipoicin;Pathoclon;Thioami;Thioctamid;Thiotomin;Ticolin;Vitamin N;Thioctic acid amide;Thioctic amide;5-(1,2-Dithiolan-3-yl)pentanamide;<span class=\"text-smallcaps\">DL</span>-Lipoamide;(±)-1,2-Dithiolane-3-valeramide;(±)-1,2-Dithiolane-3-pentanamide;(±)-Thioctic acid amide;<span class=\"text-smallcaps\">DL</span>-6,8-Thioctamide;NSC 90787;<span class=\"text-smallcaps\">D</smallcap><smallcap>L</span>-α-Lipoic acid amide",
    "duplicated_cas_no": "3206-73-3",
    "SMILES": "C(CCCC(N)=O)C1CCSS1",
    "meta_data": {
        "InChI": "InChI=1S/C8H15NOS2/c9-8(10)4-2-1-3-7-5-6-11-12-7/h7H,1-6H2,(H2,9,10)",
        "InChIKey": null,
        "Canonical SMILES": "O=C(N)CCCCC1SSCC1",
        "Molecular Formula": "C<sub>8</sub>H<sub>15</sub>NOS<sub>2</sub>",
        "Molecular Mass": "205.34",
        "Melting Point": "124-126 °C"
    }
}