{
    "cas_no": "10028-22-5",
    "key_name": "Ferric sulfate",
    "cn_name": "硫酸铁;",
    "alternate_name": "Sulfuric acid, iron(3+) salt (3:2);Iron sulfate (Fe<sub>2</sub>(SO<sub>4</sub>)<sub>3</sub>);Ferric sulfate;Iron persulfate;Iron sesquisulfate;Iron(III) sulfate;Diiron trisulfate;Iron sulfate (2:3);Iron(3+) sulfate;Diiron(3+) sulfate;Amersep 5320;PIX 115;ViscoStat;FS-Pix;PIX 123;PIX 112;Stat Gel",
    "duplicated_cas_no": "497092-38-3;1299332-62-9",
    "SMILES": "S(=O)(=O)(O)O.[Fe]",
    "meta_data": {
        "InChI": "InChI=1S/Fe.H2O4S/c;1-5(2,3)4/h;(H2,1,2,3,4)",
        "InChIKey": null,
        "Canonical SMILES": "[Fe].O=S(=O)(O)O",
        "Molecular Formula": "Fe.<sup>3</sup>/<sub>2</sub>H<sub>2</sub>O<sub>4</sub>S",
        "Molecular Mass": "",
        "Melting Point": "480 °C (decomp)",
        "Density": "3.097 g/cm³ @ Temp: 18 °C"
    }
}