{
    "cas_no": "438-59-5",
    "key_name": "10,11-Didehydronortriptyline hydrochloride",
    "cn_name": null,
    "alternate_name": "1-Propanamine, 3-(5<em>H</em>-dibenzo[<em>a</em>,<em>d</em>]cyclohepten-5-ylidene)-<em>N</em>-methyl-, hydrochloride (1:1);5<em>H</em>-Dibenzo[<em>a</em>,<em>d</em>]cycloheptene-Δ<sup>5,γ</sup>-propylamine, <em>N</em>-methyl-, hydrochloride;1-Propanamine, 3-(5<em>H</em>-dibenzo[<em>a</em>,<em>d</em>]cyclohepten-5-ylidene)-<em>N</em>-methyl-, hydrochloride;Ro 4-6011;Norproheptatriene hydrochloride;N 7068 Hydrochloride;10,11-Didehydronortriptyline hydrochloride",
    "duplicated_cas_no": "",
    "SMILES": "C(CCNC)=C1C=2C(C=CC=3C1=CC=CC3)=CC=CC2.Cl",
    "meta_data": {
        "InChI": "InChI=1S/C19H19N.ClH/c1-20-14-6-11-19-17-9-4-2-7-15(17)12-13-16-8-3-5-10-18(16)19;/h2-5,7-13,20H,6,14H2,1H3;1H",
        "InChIKey": null,
        "Canonical SMILES": "Cl.C=1C=CC2=C(C1)C=CC=3C=CC=CC3C2=CCCNC",
        "Molecular Formula": "C<sub>19</sub>H<sub>19</sub>N.ClH",
        "Molecular Mass": "",
        "Melting Point": "210-212 °C"
    }
}