{
    "cas_no": "1670-81-1",
    "key_name": "1<em>H</em>-Indole-5-carboxylic acid",
    "cn_name": "吲哚-5-羧酸;",
    "alternate_name": "1<em>H</em>-Indole-5-carboxylic acid;Indole-5-carboxylic acid;5-Carboxyindole;1H-Indole-5-carboxylic acid",
    "duplicated_cas_no": "1669447-68-0",
    "SMILES": "C(O)(=O)C=1C=C2C(=CC1)NC=C2",
    "meta_data": {
        "InChI": "InChI=1S/C9H7NO2/c11-9(12)7-1-2-8-6(5-7)3-4-10-8/h1-5,10H,(H,11,12)",
        "InChIKey": null,
        "Canonical SMILES": "O=C(O)C=1C=CC=2NC=CC2C1",
        "Molecular Formula": "C<sub>9</sub>H<sub>7</sub>NO<sub>2</sub>",
        "Molecular Mass": "161.16",
        "Melting Point": "208-209 °C"
    }
}