{
    "cas_no": "16184-89-7",
    "key_name": "4′-Bromo-2,2,2-trifluoroacetophenone",
    "cn_name": null,
    "alternate_name": "Ethanone, 1-(4-bromophenyl)-2,2,2-trifluoro-;Acetophenone, 4′-bromo-2,2,2-trifluoro-;1-(4-Bromophenyl)-2,2,2-trifluoroethanone;4′-Bromo-2,2,2-trifluoroacetophenone;<em>p</em>-Bromo-α,α,α-trifluoroacetophenone;4′-Bromo-α,α,α-trifluoroacetophenone;4-Bromo-α,α,α-trifluoroacetophenone;4-Bromotrifluoroacetone;4-Bromophenyl trifluoromethyl ketone;2,2,2-Trifluoro-1-(4-bromophenyl)ethanone;1-(4-Bromophenyl)-2,2,2-trifluoroethan-1-one;<em>p</em>-Bromophenyl trifluoromethyl ketone;<em>p</em>-Bromotrifluoroacetophenone",
    "duplicated_cas_no": "",
    "SMILES": "C(C(F)(F)F)(=O)C1=CC=C(Br)C=C1",
    "meta_data": {
        "InChI": "InChI=1S/C8H4BrF3O/c9-6-3-1-5(2-4-6)7(13)8(10,11)12/h1-4H",
        "InChIKey": null,
        "Canonical SMILES": "O=C(C1=CC=C(Br)C=C1)C(F)(F)F",
        "Molecular Formula": "C<sub>8</sub>H<sub>4</sub>BrF<sub>3</sub>O",
        "Molecular Mass": "253.02",
        "Boiling Point": "72 °C @ Press: 6 Torr",
        "Melting Point": "29-29.5 °C"
    }
}