{
    "cas_no": "94-65-5",
    "key_name": "2-Propylcyclohexanone",
    "cn_name": "N-叔丁基苯酰胺;",
    "alternate_name": "Cyclohexanone, 2-propyl-;2-Propylcyclohexanone;NSC 54015;2-Propylcyclohexan-1-one;2-(<em>n</em>-Propyl)cyclohexanone",
    "duplicated_cas_no": "64870-42-4",
    "SMILES": "C(CC)C1C(=O)CCCC1",
    "meta_data": {
        "InChI": "InChI=1S/C9H16O/c1-2-5-8-6-3-4-7-9(8)10/h8H,2-7H2,1H3",
        "InChIKey": null,
        "Canonical SMILES": "O=C1CCCCC1CCC",
        "Molecular Formula": "C<sub>9</sub>H<sub>16</sub>O",
        "Molecular Mass": "140.22",
        "Boiling Point": "197 °C",
        "Melting Point": "134-135 °C",
        "Density": "0.9145 g/cm³ @ Temp: 13 °C"
    }
}