{
    "cas_no": "52340-78-0",
    "key_name": "(<em>R</em>,<em>R</em>)-Hydrobenzoin",
    "cn_name": "氢胺;",
    "alternate_name": "1,2-Ethanediol, 1,2-diphenyl-, (1<em>R</em>,2<em>R</em>)-;1,2-Ethanediol, 1,2-diphenyl-, [<em>R</em>-(<em>R</em>*,<em>R</em>*)]-;(1<em>R</em>,2<em>R</em>)-1,2-Diphenyl-1,2-ethanediol;(<em>R</em>,<em>R</em>)-(+)-1,2-Diphenyl-1,2-ethanediol;Isohydrobenzoin, (+)-;Hydrobenzoin, (+)-;(+)-1,2-Diphenyl-1,2-ethanediol;(<em>R</em>,<em>R</em>)-Hydrobenzoin;(<em>R</em>,<em>R</em>)-Stilbenediol;(<em>R</em>,<em>R</em>)-1,2-Diphenyl-1,2-ethanediol;(+)-Hydrobenzoin;(<em>R</em>,<em>R</em>)-(+)-Stilbenediol;(+)-(<em>R</em>,<em>R</em>)-Hydrobenzoin;(<em>R</em>,<em>R</em>)-(+)-Hydrobenzoin;(1<em>R</em>,2<em>R</em>)-1,2-Diphenylethanediol;(+)-Dihydrobenzoin;(R,R)-Hydrobenzoin",
    "duplicated_cas_no": "",
    "SMILES": "[C@@H]([C@H](O)C1=CC=CC=C1)(O)C2=CC=CC=C2",
    "meta_data": {
        "InChI": "InChI=1S/C14H14O2/c15-13(11-7-3-1-4-8-11)14(16)12-9-5-2-6-10-12/h1-10,13-16H/t13-,14-/m1/s1",
        "InChIKey": null,
        "Canonical SMILES": "OC(C=1C=CC=CC1)C(O)C=2C=CC=CC2",
        "Molecular Formula": "C<sub>14</sub>H<sub>14</sub>O<sub>2</sub>",
        "Molecular Mass": "214.26",
        "Melting Point": "146 °C"
    }
}