{
    "cas_no": "34450-15-2",
    "key_name": "N<sup>8</sup>-Acetylspermidine dihydrochloride",
    "cn_name": null,
    "alternate_name": "Acetamide, <em>N</em>-[4-[(3-aminopropyl)amino]butyl]-, hydrochloride (1:2);Acetamide, <em>N</em>-[4-[(3-aminopropyl)amino]butyl]-, dihydrochloride;N<sup>8</sup>-Acetylspermidine dihydrochloride",
    "duplicated_cas_no": "",
    "SMILES": "C(CNCCCN)CCNC(C)=O.Cl",
    "meta_data": {
        "InChI": "InChI=1S/C9H21N3O.2ClH/c1-9(13)12-8-3-2-6-11-7-4-5-10;;/h11H,2-8,10H2,1H3,(H,12,13);2*1H",
        "InChIKey": null,
        "Canonical SMILES": "Cl.O=C(NCCCCNCCCN)C",
        "Molecular Formula": "C<sub>9</sub>H<sub>21</sub>N<sub>3</sub>O.2ClH",
        "Molecular Mass": "",
        "Melting Point": "200-202 °C"
    }
}