{
    "cas_no": "2899-28-7",
    "key_name": "<span class=\"text-smallcaps\">L</span>-Tryptophan, ethyl ester, hydrochloride (1:1)",
    "cn_name": "L-色氨酸乙酯盐酸盐;",
    "alternate_name": "<span class=\"text-smallcaps\">L</span>-Tryptophan, ethyl ester, hydrochloride (1:1);Tryptophan, ethyl ester, monohydrochloride, <span class=\"text-smallcaps\">L</span>-;<span class=\"text-smallcaps\">L</span>-Tryptophan, ethyl ester, monohydrochloride;(<em>S</em>)-Tryptophan ethyl ester hydrochloride;H-Trp-OEt·HCl;<span class=\"text-smallcaps\">L</span>-Tryptophan ethyl ester hydrochloride",
    "duplicated_cas_no": "68401-14-9",
    "SMILES": "C([C@@H](C(OCC)=O)N)C=1C=2C(NC1)=CC=CC2.Cl",
    "meta_data": {
        "InChI": "InChI=1S/C13H16N2O2.ClH/c1-2-17-13(16)11(14)7-9-8-15-12-6-4-3-5-10(9)12;/h3-6,8,11,15H,2,7,14H2,1H3;1H/t11-;/m0./s1",
        "InChIKey": null,
        "Canonical SMILES": "Cl.O=C(OCC)C(N)CC1=CNC=2C=CC=CC21",
        "Molecular Formula": "C<sub>13</sub>H<sub>16</sub>N<sub>2</sub>O<sub>2</sub>.ClH",
        "Molecular Mass": "",
        "Melting Point": "222-224 °C"
    }
}