{
    "cas_no": "3675-63-6",
    "key_name": "2-Bromoethane-<em>1</em>,<em>1</em>,<em>1</em>,<em>2</em>,<em>2</em>-<em>d</em><sub>5</sub>",
    "cn_name": "氘代溴乙烷;",
    "alternate_name": "Ethane-<em>1</em>,<em>1</em>,<em>1</em>,<em>2</em>,<em>2</em>-<em>d</em><sub>5</sub>, 2-bromo-;Ethane-<em>d</em><sub>5</sub>, bromo-;2-Bromoethane-<em>1</em>,<em>1</em>,<em>1</em>,<em>2</em>,<em>2</em>-<em>d</em><sub>5</sub>;Pentadeuteroethyl bromide;Ethyl bromide-<em>d</em><sub>5</sub>;Ethyl-<em>d</em><sub>5</sub> bromide;Perdeuterioethyl bromide;Pentadeuterioethyl bromide;Bromoethane-<em>d</em><sub>5</sub>;1-Bromo-1,1,2,2,2-pentadeuterioethane",
    "duplicated_cas_no": "",
    "SMILES": "C(Br)(C([2H])([2H])[2H])([2H])[2H]",
    "meta_data": {
        "InChI": "InChI=1S/C2H5Br/c1-2-3/h2H2,1H3/i1D3,2D2",
        "InChIKey": null,
        "Canonical SMILES": "BrCC",
        "Molecular Formula": "C<sub>2</sub>BrD<sub>5</sub>",
        "Molecular Mass": "",
        "Boiling Point": "38-38.5 °C"
    }
}