{
    "cas_no": "550998-58-8",
    "key_name": "Methyl 6-methoxybenzo[<em>b</em>]thiophene-2-carboxylate",
    "cn_name": null,
    "alternate_name": "Benzo[<em>b</em>]thiophene-2-carboxylic acid, 6-methoxy-, methyl ester;Methyl 6-methoxybenzo[<em>b</em>]thiophene-2-carboxylate;6-Methoxybenzothiophene-2-carboxylic acid methyl ester;6-Methoxybenzo[<em>b</em>]thiophene-2-carboxylic acid methyl ester",
    "duplicated_cas_no": "",
    "SMILES": "C(OC)(=O)C=1SC=2C(C1)=CC=C(OC)C2",
    "meta_data": {
        "InChI": "InChI=1S/C11H10O3S/c1-13-8-4-3-7-5-10(11(12)14-2)15-9(7)6-8/h3-6H,1-2H3",
        "InChIKey": null,
        "Canonical SMILES": "O=C(OC)C=1SC=2C=C(OC)C=CC2C1",
        "Molecular Formula": "C<sub>11</sub>H<sub>10</sub>O<sub>3</sub>S",
        "Molecular Mass": "222.26",
        "Melting Point": "119-120 °C"
    }
}