{
    "cas_no": "34489-85-5",
    "key_name": "2-Amino-<em>N</em>-(2-bromophenyl)benzamide",
    "cn_name": "2-氨基-N-(2-溴苯基)苯酰胺;",
    "alternate_name": "Benzamide, 2-amino-<em>N</em>-(2-bromophenyl)-;Benzanilide, 2-amino-2′-bromo-;2-Amino-<em>N</em>-(2-bromophenyl)benzamide",
    "duplicated_cas_no": "",
    "SMILES": "N(C(=O)C1=C(N)C=CC=C1)C2=C(Br)C=CC=C2",
    "meta_data": {
        "InChI": "InChI=1S/C13H11BrN2O/c14-10-6-2-4-8-12(10)16-13(17)9-5-1-3-7-11(9)15/h1-8H,15H2,(H,16,17)",
        "InChIKey": null,
        "Canonical SMILES": "O=C(NC=1C=CC=CC1Br)C=2C=CC=CC2N",
        "Molecular Formula": "C<sub>13</sub>H<sub>11</sub>BrN<sub>2</sub>O",
        "Molecular Mass": "291.14",
        "Melting Point": "151 °C"
    }
}