{
    "cas_no": "434-05-9",
    "key_name": "Methenolone acetate",
    "cn_name": "美替诺龙醋酸酯;",
    "alternate_name": "Androst-1-en-3-one, 17-(acetyloxy)-1-methyl-, (5α,17β)-;5α-Androst-1-en-3-one, 17β-hydroxy-1-methyl-, acetate;(5α,17β)-17-(Acetyloxy)-1-methylandrost-1-en-3-one;SH 567;SH 567a;SQ 16496;17β-Hydroxy-1-methyl-5α-androst-1-en-3-one acetate;Methenolone acetate;1-Methyl-5α-androst-1-en-17β-ol-3-one acetate;Nibal;Primobolan;Metenolone acetate;Primobolone;1-Methyl-17β-hydroxy-5α-androst-1-en-3-one acetate;1-Methyl-17β-hydroxy-5α-androst-1-en-3-one-17β-acetate;Primonabol;NSC 74226;Methenolone 17-acetate;Primobolan Tablets",
    "duplicated_cas_no": "",
    "SMILES": "C[C@@]12[C@@]3([C@]([C@]4([C@](C)(CC3)[C@@H](OC(C)=O)CC4)[H])(CC[C@]1(CC(=O)C=C2C)[H])[H])[H]",
    "meta_data": {
        "InChI": "InChI=1S/C22H32O3/c1-13-11-16(24)12-15-5-6-17-18-7-8-20(25-14(2)23)21(18,3)10-9-19(17)22(13,15)4/h11,15,17-20H,5-10,12H2,1-4H3/t15-,17-,18-,19-,20-,21-,22-/m0/s1",
        "InChIKey": null,
        "Canonical SMILES": "O=C(OC1CCC2C3CCC4CC(=O)C=C(C)C4(C)C3CCC12C)C",
        "Molecular Formula": "C<sub>22</sub>H<sub>32</sub>O<sub>3</sub>",
        "Molecular Mass": "344.49",
        "Melting Point": "138-139 °C"
    }
}