{
    "cas_no": "40925-72-2",
    "key_name": "2-Amino-3-chlorobenzenethiol",
    "cn_name": null,
    "alternate_name": "Benzenethiol, 2-amino-3-chloro-;2-Amino-3-chlorobenzenethiol;2-Amino-3-chlorothiophenol;6-Chloro-2-mercaptoaniline;2-Amino-3-chlorobenzene-1-thiol",
    "duplicated_cas_no": "",
    "SMILES": "NC1=C(Cl)C=CC=C1S",
    "meta_data": {
        "InChI": "InChI=1S/C6H6ClNS/c7-4-2-1-3-5(9)6(4)8/h1-3,9H,8H2",
        "InChIKey": null,
        "Canonical SMILES": "ClC1=CC=CC(S)=C1N",
        "Molecular Formula": "C<sub>6</sub>H<sub>6</sub>ClNS",
        "Molecular Mass": "159.64",
        "Melting Point": "78 °C"
    }
}