{
    "cas_no": "1196-79-8",
    "key_name": "2,5-Dimethylindole",
    "cn_name": "2,5-二甲基吲哚;",
    "alternate_name": "1<em>H</em>-Indole, 2,5-dimethyl-;Indole, 2,5-dimethyl-;2,5-Dimethyl-1<em>H</em>-indole;2,5-Dimethylindole",
    "duplicated_cas_no": "",
    "SMILES": "CC=1NC=2C(C1)=CC(C)=CC2",
    "meta_data": {
        "InChI": "InChI=1S/C10H11N/c1-7-3-4-10-9(5-7)6-8(2)11-10/h3-6,11H,1-2H3",
        "InChIKey": null,
        "Canonical SMILES": "C1=CC=2NC(=CC2C=C1C)C",
        "Molecular Formula": "C<sub>10</sub>H<sub>11</sub>N",
        "Molecular Mass": "145.20",
        "Boiling Point": "105 °C @ Press: 0.3 Torr",
        "Melting Point": "115.3 °C"
    }
}