{
    "cas_no": "13352-76-6",
    "key_name": "2,4,6,8,10,12-Hexaoxatridecane",
    "cn_name": null,
    "alternate_name": "2,4,6,8,10,12-Hexaoxatridecane;Methane, bis[(methoxymethoxy)methoxy]-;Pentakis(oxymethylene) glycol dimethyl ether;Pentaoxymethylene dimethyl ether",
    "duplicated_cas_no": "",
    "SMILES": "C(OCOCOC)OCOCOC",
    "meta_data": {
        "InChI": "InChI=1S/C7H16O6/c1-8-3-10-5-12-7-13-6-11-4-9-2/h3-7H2,1-2H3",
        "InChIKey": null,
        "Canonical SMILES": "O(C)COCOCOCOCOC",
        "Molecular Formula": "C<sub>7</sub>H<sub>16</sub>O<sub>6</sub>",
        "Molecular Mass": "196.20",
        "Boiling Point": "242.3 °C @ Press: 760 Torr",
        "Melting Point": "18.3 °C",
        "Density": "1.1003 g/cm³ @ Temp: 25 °C"
    }
}