{
    "cas_no": "497-18-7",
    "key_name": "Carbohydrazide",
    "cn_name": "碳酰肼;碳酸二肼;卡巴肼;1,3-二氨基脲;",
    "alternate_name": "Carbonic dihydrazide;Carbohydrazide;Carbazide;Carbonic acid, dihydrazide;Hydrazine, carbonylbis-;Hydrazinecarboxylic acid, hydrazide;Hydrazinecarboxamide, <em>N</em>-amino-;Urea, <em>N</em>,<em>N</em>′-diamino-;Carbodihydrazide;Carbonohydrazide;NSC 1934;1,3-Diaminourea;<em>N</em>,<em>N</em>′-Diaminourea",
    "duplicated_cas_no": "",
    "SMILES": "C(NN)(NN)=O",
    "meta_data": {
        "InChI": "InChI=1S/CH6N4O/c2-4-1(6)5-3/h2-3H2,(H2,4,5,6)",
        "InChIKey": null,
        "Canonical SMILES": "O=C(NN)NN",
        "Molecular Formula": "CH<sub>6</sub>N<sub>4</sub>O",
        "Molecular Mass": "90.08",
        "Melting Point": "154 °C",
        "Density": "1.3338 g/cm³"
    }
}