{
    "cas_no": "5926-26-1",
    "key_name": "(Chloromethyl)trimethoxysilane",
    "cn_name": "氯甲基三甲氧基硅烷;",
    "alternate_name": "Silane, (chloromethyl)trimethoxy-;(Chloromethyl)trimethoxysilane;Trimethoxy(chloromethyl)silane;Chloro(trimethoxysilyl)methane",
    "duplicated_cas_no": "",
    "SMILES": "[Si](CCl)(OC)(OC)OC",
    "meta_data": {
        "InChI": "InChI=1S/C4H11ClO3Si/c1-6-9(4-5,7-2)8-3/h4H2,1-3H3",
        "InChIKey": null,
        "Canonical SMILES": "ClC[Si](OC)(OC)OC",
        "Molecular Formula": "C<sub>4</sub>H<sub>11</sub>ClO<sub>3</sub>Si",
        "Molecular Mass": "170.67",
        "Boiling Point": "156 °C",
        "Density": "1.125 g/cm³"
    }
}