{
    "cas_no": "386-17-4",
    "key_name": "Iodophthalein",
    "cn_name": "3,3,5,5-四碘酚酞;3,3,5,5-四碘酚酞;碘酚酞;四碘酚酞;",
    "alternate_name": "1(3<em>H</em>)-Isobenzofuranone, 3,3-bis(4-hydroxy-3,5-diiodophenyl)-;Phenolphthalein, 3′,3′′,5′,5′′-tetraiodo-;3,3-Bis(4-hydroxy-3,5-diiodophenyl)-1(3<em>H</em>)-isobenzofuranone;Nosophen;Nosophene;3,3′,5,5′-Tetraiodophenolphthalein;Iodophthalein;3′,3′′,5′,5′′-Tetraiodophenolphthalein;NSC 4904;NSC 164900;Tetraiodophenolphthalein;3,3-Bis(4-hydroxy-3,5-diiodophenyl)-2-benzofuran-1-one;3,3-Bis(4-hydroxy-3,5-diiodo-phenyl)isobenzofuran-1-one",
    "duplicated_cas_no": "561-28-4;422524-82-1;264233-98-9",
    "SMILES": "O=C1OC(C=2C1=CC=CC2)(C3=CC(I)=C(O)C(I)=C3)C4=CC(I)=C(O)C(I)=C4",
    "meta_data": {
        "InChI": "InChI=1S/C20H10I4O4/c21-13-5-9(6-14(22)17(13)25)20(10-7-15(23)18(26)16(24)8-10)12-4-2-1-3-11(12)19(27)28-20/h1-8,25-26H",
        "InChIKey": null,
        "Canonical SMILES": "O=C1OC(C2=CC(I)=C(O)C(I)=C2)(C3=CC(I)=C(O)C(I)=C3)C=4C=CC=CC14",
        "Molecular Formula": "C<sub>20</sub>H<sub>10</sub>I<sub>4</sub>O<sub>4</sub>",
        "Molecular Mass": "821.91",
        "Melting Point": "228 °C (decomp)"
    }
}