{
    "cas_no": "765-39-9",
    "key_name": "1<em>H</em>-Pyrrol-1-amine",
    "cn_name": "1-氨基吡咯;",
    "alternate_name": "1<em>H</em>-Pyrrol-1-amine;Pyrrole, 1-amino-;1-Aminopyrrole;<em>N</em>-Aminopyrrole;1-Pyrrolylamine;(1<em>H</em>-Pyrrol-1-yl)amine",
    "duplicated_cas_no": "",
    "SMILES": "NN1C=CC=C1",
    "meta_data": {
        "InChI": "InChI=1S/C4H6N2/c5-6-3-1-2-4-6/h1-4H,5H2",
        "InChIKey": null,
        "Canonical SMILES": "NN1C=CC=C1",
        "Molecular Formula": "C<sub>4</sub>H<sub>6</sub>N<sub>2</sub>",
        "Molecular Mass": "82.10",
        "Boiling Point": "174-174.5 °C @ Press: 750 Torr",
        "Melting Point": "77-78 °C"
    }
}