{
    "cas_no": "6853-87-8",
    "key_name": "<em>S</em>-Methyl-<span class=\"text-smallcaps\">L</span>-cysteine sulfoxide",
    "cn_name": "S-甲基-L-半胱氨酸亚砜;",
    "alternate_name": "<span class=\"text-smallcaps\">L</span>-Cysteine, <em>S</em>-methyl-, <em>S</em>-oxide;Alanine, 3-(methylsulfinyl)-, <span class=\"text-smallcaps\">L</span>-;<span class=\"text-smallcaps\">L</span>-Alanine, 3-(methylsulfinyl)-;<em>S</em>-Methyl-<span class=\"text-smallcaps\">L</span>-cysteine sulfoxide;<em>S</em>-Methylcysteine sulfoxide;<em>S</em>-Methylcysteine <em>S</em>-oxide;NSC 226572;Kale anemia factor;(2R)-2-Azaniumyl-3-methylsulfinylpropanoate",
    "duplicated_cas_no": "17818-22-3",
    "SMILES": "[C@H](CS(C)=O)(C(O)=O)N",
    "meta_data": {
        "InChI": "InChI=1S/C4H9NO3S/c1-9(8)2-3(5)4(6)7/h3H,2,5H2,1H3,(H,6,7)/t3-,9?/m0/s1",
        "InChIKey": null,
        "Canonical SMILES": "O=C(O)C(N)CS(=O)C",
        "Molecular Formula": "C<sub>4</sub>H<sub>9</sub>NO<sub>3</sub>S",
        "Molecular Mass": "151.18",
        "Melting Point": "169-170 °C"
    }
}