{
    "cas_no": "91-68-9",
    "key_name": "3-(Diethylamino)phenol",
    "cn_name": "3-羟基-N,N-二乙基苯胺;间羟基-N,N-二乙基苯胺;间二乙氨基苯酚;",
    "alternate_name": "Phenol, 3-(diethylamino)-;Phenol, <em>m</em>-(diethylamino)-;3-(Diethylamino)phenol;<em>m</em>-(Diethylamino)phenol;<em>N</em>,<em>N</em>-Diethyl-<em>m</em>-aminophenol;3-Hydroxy-<em>N</em>,<em>N</em>-diethylaniline;<em>N</em>,<em>N</em>-Diethyl-3-hydroxyaniline;<em>N</em>,<em>N</em>-Diethyl-3-aminophenol;<em>m</em>-Hydroxy-<em>N</em>,<em>N</em>-diethylaniline;NSC 93934;3-(<em>N</em>,<em>N</em>-Diethylamino)phenol;<em>N</em>,<em>N</em>-Diethyl-3-Hydroxybenzenamine",
    "duplicated_cas_no": "",
    "SMILES": "N(CC)(CC)C1=CC(O)=CC=C1",
    "meta_data": {
        "InChI": "InChI=1S/C10H15NO/c1-3-11(4-2)9-6-5-7-10(12)8-9/h5-8,12H,3-4H2,1-2H3",
        "InChIKey": null,
        "Canonical SMILES": "OC1=CC=CC(=C1)N(CC)CC",
        "Molecular Formula": "C<sub>10</sub>H<sub>15</sub>NO",
        "Molecular Mass": "165.23",
        "Boiling Point": "276 °C",
        "Melting Point": "78 °C"
    }
}