{
    "cas_no": "641-70-3",
    "key_name": "3-Nitrophthalic anhydride",
    "cn_name": "3-硝基邻苯二甲酸酐;",
    "alternate_name": "1,3-Isobenzofurandione, 4-nitro-;Phthalic anhydride, 3-nitro-;4-Nitro-1,3-isobenzofurandione;3-Nitrophthalic anhydride;3-Nitrophthalic acid anhydride;NSC 27006;NSC 4134;4-Nitroisobenzofuran-1,3-dione;4-Nitro-2-benzofuran-1,3-dione",
    "duplicated_cas_no": "",
    "SMILES": "N(=O)(=O)C1=C2C(C(=O)OC2=O)=CC=C1",
    "meta_data": {
        "InChI": "InChI=1S/C8H3NO5/c10-7-4-2-1-3-5(9(12)13)6(4)8(11)14-7/h1-3H",
        "InChIKey": null,
        "Canonical SMILES": "O=C1OC(=O)C=2C1=CC=CC2N(=O)=O",
        "Molecular Formula": "C<sub>8</sub>H<sub>3</sub>NO<sub>5</sub>",
        "Molecular Mass": "193.11",
        "Melting Point": "164 °C",
        "Density": "1.364 g/cm³ @ Temp: 25.00 °C"
    }
}