{
    "cas_no": "97-74-5",
    "key_name": "Tetramethylthiuram monosulfide",
    "cn_name": "一硫化四甲基秋兰姆;橡胶促进剂TMTM;",
    "alternate_name": "Thiodicarbonic diamide ([(H<sub>2</sub>N)C(S)]<sub>2</sub>S), <em>N</em>,<em>N</em>,<em>N</em>′,<em>N</em>′-tetramethyl-;Sulfide, bis(dimethylthiocarbamoyl);Thiodicarbonic diamide ([(H<sub>2</sub>N)C(S)]<sub>2</sub>S), tetramethyl-;Sulfide, bis(dimethylthiocarbamyl);Aceto TMTM;Bis(dimethylthiocarbamoyl) sulfide;Mono-Thiurad;Monothiuram;Tetramethylthiurammonium sulfide;Tetramethylthiuram sulfide;TMTMS;Unads;Thiuram monosulfide, tetramethyl-;Sulfide, bis[(dimethylamino)thioxomethyl];Carbamodithioic acid, dimethyl-, anhydrosulfide;<em>N</em>,<em>N</em>,<em>N</em>′,<em>N</em>′-Tetramethylthiuram monosulfide;Ekagom TM;Thiuram MM;Tetramethylthiuram monosulfide;Tetramethylthiuramide sulfide;Vulkacit Thiuram MS;Tetramethyldithiocarbamic acid anhydrosulfide;Nocceler TS;TMTM;Sanceler TS;Vulkacit MS;<em>N</em>,<em>N</em>,<em>N</em>′,<em>N</em>′-Tetramethyldithiocarbamoyl monosulfide;Soxinol TS;TS;NSC 3400;NSC 4767;Rhenocure Thiuram MS/C;Sanceler TS-G;Rhenogran TMTM 80;Super Accelerator 500;TS 80;TS 80 (vulcanizer);OCIDM;Accelerator TS;TMTM 80;Promoter TS",
    "duplicated_cas_no": "",
    "SMILES": "C(SC(N(C)C)=S)(N(C)C)=S",
    "meta_data": {
        "InChI": "InChI=1S/C6H12N2S3/c1-7(2)5(9)11-6(10)8(3)4/h1-4H3",
        "InChIKey": null,
        "Canonical SMILES": "S=C(SC(=S)N(C)C)N(C)C",
        "Molecular Formula": "C<sub>6</sub>H<sub>12</sub>N<sub>2</sub>S<sub>3</sub>",
        "Molecular Mass": "208.37",
        "Melting Point": "109.5 °C",
        "Density": "1.37 g/cm³ @ Temp: 20 °C"
    }
}