{
    "cas_no": "72741-87-8",
    "key_name": "Swainsonine",
    "cn_name": "八倾吲嗪三醇;苦马豆素;(1S,2R,8R,8aR)-1,2,8-八氢吲哚啶三醇;",
    "alternate_name": "1,2,8-Indolizinetriol, octahydro-, (1<em>S</em>,2<em>R</em>,8<em>R</em>,8a<em>R</em>)-;1,2,8-Indolizinetriol, octahydro-, [1<em>S</em>-(1α,2α,8β,8aβ)]-;(1<em>S</em>,2<em>R</em>,8<em>R</em>,8a<em>R</em>)-Octahydro-1,2,8-indolizinetriol;Swainsonine;(-)-Swainsonine;Tridolgosir;<span class=\"text-smallcaps\">D</span>-Swainsonine",
    "duplicated_cas_no": "",
    "SMILES": "O[C@H]1[C@@]2(N(C[C@H]1O)CCC[C@H]2O)[H]",
    "meta_data": {
        "InChI": "InChI=1S/C8H15NO3/c10-5-2-1-3-9-4-6(11)8(12)7(5)9/h5-8,10-12H,1-4H2/t5-,6-,7-,8-/m1/s1",
        "InChIKey": null,
        "Canonical SMILES": "OC1CN2CCCC(O)C2C1O",
        "Molecular Formula": "C<sub>8</sub>H<sub>15</sub>NO<sub>3</sub>",
        "Molecular Mass": "173.21",
        "Melting Point": "138-142 °C"
    }
}