{
    "cas_no": "18194-24-6",
    "key_name": "1,2-Dimyristoyl-<em>sn</em>-<em>glycero</em>-3-phosphocholine",
    "cn_name": "二肉豆蔻酰磷脂酰胆碱（DMPC）;",
    "alternate_name": "3,5,9-Trioxa-4-phosphatricosan-1-aminium, 4-hydroxy-<em>N</em>,<em>N</em>,<em>N</em>-trimethyl-10-oxo-7-[(1-oxotetradecyl)oxy]-, inner salt, 4-oxide, (7<em>R</em>)-;Choline, hydroxide, dihydrogen phosphate, inner salt, ester with 1,2-dimyristin, <span class=\"text-smallcaps\">L</span>-;3,5,9-Trioxa-4-phosphatricosan-1-aminium, 4-hydroxy-<em>N</em>,<em>N</em>,<em>N</em>-trimethyl-10-oxo-7-[(1-oxotetradecyl)oxy]-, hydroxide, inner salt, 4-oxide, (<em>R</em>)-;Choline, phosphate, ester with <span class=\"text-smallcaps\">L</span>-1,2-dimyristin;Dimyristoyl-<span class=\"text-smallcaps\">L</span>-α-lecithin;<span class=\"text-smallcaps\">L</span>-Dimyristoylphosphatidylcholine;1,2-Ditetradecanoyl-<em>sn</em>-<em>glycero</em>-3-phosphorylcholine;<span class=\"text-smallcaps\">L</span>-Dimyristoyllecithin;<span class=\"text-smallcaps\">L</span>-α-Dimyristoylphosphatidylcholine;1,2-Dimyristoyl-<em>sn</em>-<em>glycero</em>-3-phosphorylcholine;1,2-Dimyristoyl-<span class=\"text-smallcaps\">L</span>-3-phosphatidylcholine;1,2-Dimyristoyl-<em>sn</em>-glycerol-3-phosphocholine;1,2-<span class=\"text-smallcaps\">L</span>-α-Dimyristoylphosphatidylcholine;β,γ-Dimyristoyl <span class=\"text-smallcaps\">L</span>-α-phosphatidylcholine;1,2-Dimyristoyl-<em>sn</em>-glycerophosphocholine;Ditetradecanoyllecithin;<em>sn</em>-3-Dimyristoyllecithin;1,2-Dimyristoyl-<em>sn</em>-<em>glycero</em>-3-phosphocholine;1,2-Dimyristoyl-3-<em>sn</em>-phosphatidylcholine;1,2-Dimyristoyl-<span class=\"text-smallcaps\">L</span>-phosphatidylcholine;1,2-Dimyristoyl-<em>sn</em>-glycerol-3-phosphorylcholine;Dimyristoyl-3-<em>sn</em>-phosphatidylcholine;<span class=\"text-smallcaps\">L</span>-β,γ-Dimyristoyl-α-lecithin;<span class=\"text-smallcaps\">L</span>-α-Dimyristoyllecithin;Dimyristoyl-<span class=\"text-smallcaps\">L</span>-α-phosphatidylcholine;1,2-Dimyristoyl-<em>sn</em>-3-glycerophosphocholine;Dimyristoyl-<span class=\"text-smallcaps\">L</span>-α-glycerophosphocholine;Dimyristoylphosphatidylcholine;1,2-Dimyristoyl-<span class=\"text-smallcaps\">L</span>-α-phosphatidylcholine;<span class=\"text-smallcaps\">L</span>-1,2-Dimyristoylphosphatidylcholine;<span class=\"text-smallcaps\">L</span>-β,γ-Dimyristoyl-α-phosphatidylcholine;Dimyristoyl <em>sn</em>-3-phosphatidylcholine;DMPC;1,2-Dimyristoyl-<em>sn</em>-<em>glycero</em>-3-phosphatidylcholine;3,5,9-Trioxa-4-phosphatricosan-1-aminium, 4-hydroxy-<em>N</em>,<em>N</em>,<em>N</em>-trimethyl-10-oxo-7-[(1-oxotetradecyl)oxy]-, inner salt, 4-oxide, (<em>R</em>)-;1,2-Dimyristoyl-sn-<em>glycero</em>-3-phosphocholine;1,2-Dimyristoyl-<em>sn</em>-phosphatidylcholine;1,2-Bis(myristoyl)-sn-glycerophosphocholine;1,2-Ditetradecanoyl-<em>sn</em>-<em>glycero</em>-3-phosphocholine;1,2-Dimyristoylphosphatidylcholine;1,2-Myristoyl-sn-<em>glycero</em>-3-phosphocholine;1,2-Ditetradecanoyl-sn-<em>glycero</em>-3-phosphocholine;Dimyristoyl-<em>sn</em>-<em>glycero</em>-3-phosphocholine;1,2-Dimyristoyl-3-sn-phosphatidylcholine;1,2-Dimyristoyl-sn-<em>glycero</em>-phosphocholine;Anatrace;Coatsome MC 4040",
    "duplicated_cas_no": "",
    "SMILES": "[C@H](OC(CCCCCCCCCCCCC)=O)(COP(OCC[N+](C)(C)C)(=O)[O-])COC(CCCCCCCCCCCCC)=O",
    "meta_data": {
        "InChI": "InChI=1S/C36H72NO8P/c1-6-8-10-12-14-16-18-20-22-24-26-28-35(38)42-32-34(33-44-46(40,41)43-31-30-37(3,4)5)45-36(39)29-27-25-23-21-19-17-15-13-11-9-7-2/h34H,6-33H2,1-5H3/t34-/m1/s1",
        "InChIKey": null,
        "Canonical SMILES": "O=C(OCC(OC(=O)CCCCCCCCCCCCC)COP(=O)([O-])OCC[N+](C)(C)C)CCCCCCCCCCCCC",
        "Molecular Formula": "C<sub>36</sub>H<sub>72</sub>NO<sub>8</sub>P",
        "Molecular Mass": "",
        "Melting Point": "23 °C"
    }
}