{
    "cas_no": "20295-64-1",
    "key_name": "Pyridine, 2-chloro-, 1-oxide, hydrochloride (1:1)",
    "cn_name": "2-氯吡啶-N-氧化物盐酸盐;",
    "alternate_name": "Pyridine, 2-chloro-, 1-oxide, hydrochloride (1:1);Pyridine, 2-chloro-, 1-oxide, hydrochloride;Pyridine, 2-chloro, 1-oxide, compd. with hydrochloric acid;2-Chloropyridine <em>N</em>-oxide hydrochloride",
    "duplicated_cas_no": "",
    "SMILES": "ClC=1N(=O)=CC=CC1.Cl",
    "meta_data": {
        "InChI": "InChI=1S/C5H4ClNO.ClH/c6-5-3-1-2-4-7(5)8;/h1-4H;1H",
        "InChIKey": null,
        "Canonical SMILES": "Cl.O=N=1C=CC=CC1Cl",
        "Molecular Formula": "C<sub>5</sub>H<sub>4</sub>ClNO.ClH",
        "Molecular Mass": "",
        "Melting Point": "143 °C"
    }
}