{
    "cas_no": "472-41-3",
    "key_name": "Chroman I",
    "cn_name": "4-氨基-6-羟基吡唑-(3,4-d)嘧啶;4-氨基-6-羟基吡唑[3,4-d]嘧啶;",
    "alternate_name": "Phenol, 4-(3,4-dihydro-2,2,4-trimethyl-2<em>H</em>-1-benzopyran-4-yl)-;Phenol, <em>p</em>-(2,2,4-trimethyl-4-chromanyl)-;4-(3,4-Dihydro-2,2,4-trimethyl-2<em>H</em>-1-benzopyran-4-yl)phenol;Dianin's compound;4-(4′-Hydroxyphenyl)-2,2,4-trimethylchroman;4-<em>p</em>-Hydroxyphenyl-2,2,4-trimethylchroman;4-(4-Hydroxyphenyl)-2,2,4-trimethyl-4-chroman;Chroman I;4-(4-Hydroxyphenyl)-2,2,4-trimethylchroman;2,2,4-Trimethyl-4-(4-hydroxyphenyl)chroman;NSC 39757;NSC 46014;NSC 527817;4-(3,4-dihydro-2,2,4-trimethyl-2H-1-benzopyran-4-yl)phenol;4-(2,2,4-Trimethyl-4-chromanyl)phenol",
    "duplicated_cas_no": "122970-81-4;122970-84-7;122970-85-8;122970-82-5;122970-83-6;122970-87-0;122970-86-9;122970-88-1;35485-38-2;56954-97-3",
    "SMILES": "CC1(C=2C(OC(C)(C)C1)=CC=CC2)C3=CC=C(O)C=C3",
    "meta_data": {
        "InChI": "InChI=1S/C18H20O2/c1-17(2)12-18(3,13-8-10-14(19)11-9-13)15-6-4-5-7-16(15)20-17/h4-11,19H,12H2,1-3H3",
        "InChIKey": null,
        "Canonical SMILES": "OC1=CC=C(C=C1)C2(C=3C=CC=CC3OC(C)(C)C2)C",
        "Molecular Formula": "C<sub>18</sub>H<sub>20</sub>O<sub>2</sub>",
        "Molecular Mass": "268.35",
        "Melting Point": "156-157 °C"
    }
}