{
    "cas_no": "56-45-1",
    "key_name": "<span class=\"text-smallcaps\">L</span>-Serine",
    "cn_name": "L-丝氨酸;beta-羟基丙氨酸;",
    "alternate_name": "<span class=\"text-smallcaps\">L</span>-Serine;Serine, <span class=\"text-smallcaps\">L</span>-;(<em>S</em>)-α-Amino-β-hydroxypropionic acid;β-Hydroxy-<span class=\"text-smallcaps\">L</span>-alanine;Serine;<span class=\"text-smallcaps\">L</span>-(-)-Serine;Propanoic acid, 2-amino-3-hydroxy-, (<em>S</em>)-;(<em>S</em>)-2-Amino-3-hydroxypropanoic acid;(<em>S</em>)-Serine;<span class=\"text-smallcaps\">L</span>-3-Hydroxy-2-aminopropionic acid;(-)-Serine;<span class=\"text-smallcaps\">L</span>-Alanine, 3-hydroxy-;<span class=\"text-smallcaps\">L</span>-Ser;(2S)-2-Amino-3-hydroxypropanoic acid;(2S)-2-Azaniumyl-3-hydroxypropanoate;2: PN: WO2020113403 TABLE: L1 claimed sequence;4: PN: WO2020191289 PAGE: 118 claimed sequence;10: PN: WO2021055880 SEQID: 11 claimed protein;5: PN: WO2021127752 SEQID: 15 claimed sequence;160: PN: WO2022103927 SEQID: 197 claimed protein;31: PN: WO2022257479 PAGE: 22 claimed sequence;MeSH ID: D012694;2: PN: WO2024080304 PAGE: 283 claimed sequence",
    "duplicated_cas_no": "6898-95-9;154605-73-9",
    "SMILES": "[C@@H](C(O)=O)(CO)N",
    "meta_data": {
        "InChI": "InChI=1S/C3H7NO3/c4-2(1-5)3(6)7/h2,5H,1,4H2,(H,6,7)/t2-/m0/s1",
        "InChIKey": null,
        "Canonical SMILES": "O=C(O)C(N)CO",
        "Molecular Formula": "C<sub>3</sub>H<sub>7</sub>NO<sub>3</sub>",
        "Molecular Mass": "105.09",
        "Melting Point": "228 °C (decomp)",
        "Density": "1.6 g/cm³ @ Temp: 22 °C"
    }
}