{
    "cas_no": "52-76-6",
    "key_name": "Lynestrenol",
    "cn_name": "利奈孕醇;利奈孕酮;",
    "alternate_name": "19-Norpregn-4-en-20-yn-17-ol, (17α)-;19-Nor-17α-pregn-4-en-20-yn-17-ol;(17α)-19-Norpregn-4-en-20-yn-17-ol;3-Desoxy-17α-ethinyl-19-nortestosterone;17α-Ethinyl-17β-hydroxy-Δ<sup>4</sup>-estrene;17α-Ethynyl-19-nor-4-androsten-17β-ol;Linestrenol;Lynestrenol;Orgametril;17α-Ethynylestrenol;Δ<sup>4</sup>-17α-Ethinylestren-17β-ol;Ethynylestrenol;17α-Ethynylestr-4-en-17β-ol;17-Ethynylestr-4-en-17β-ol;17α-Ethynyl-17β-hydroxyestr-4-ene;3-Desoxynorlutin;Orgametil;Exlutona;Exluton;Orgametrol;Org 485-50;17α-Ethynyl-17β-hydroxy-Δ<sup>4</sup>-estrene;Ovoresta M;Physiostat;Ovamezzo;Fysionorm;Exlutena;NSC 37725;Ovoresta;NSC 73879;MeSH ID: D008234",
    "duplicated_cas_no": "60416-16-2",
    "SMILES": "C[C@@]12[C@]([C@]3([C@](CC1)([C@@]4(C(CC3)=CCCC4)[H])[H])[H])(CC[C@]2(C#C)O)[H]",
    "meta_data": {
        "InChI": "InChI=1S/C20H28O/c1-3-20(21)13-11-18-17-9-8-14-6-4-5-7-15(14)16(17)10-12-19(18,20)2/h1,6,15-18,21H,4-5,7-13H2,2H3/t15-,16+,17+,18-,19-,20-/m0/s1",
        "InChIKey": null,
        "Canonical SMILES": "C#CC1(O)CCC2C3CCC4=CCCCC4C3CCC21C",
        "Molecular Formula": "C<sub>20</sub>H<sub>28</sub>O",
        "Molecular Mass": "284.44",
        "Melting Point": "159 °C"
    }
}