{
    "cas_no": "922-61-2",
    "key_name": "3-Methyl-2-pentene",
    "cn_name": null,
    "alternate_name": "2-Pentene, 3-methyl-;3-Methyl-2-pentene;1,2,3-Trimethylpropene;2-Ethyl-2-butene",
    "duplicated_cas_no": "",
    "SMILES": "C(CC)(=CC)C",
    "meta_data": {
        "InChI": "InChI=1S/C6H12/c1-4-6(3)5-2/h4H,5H2,1-3H3",
        "InChIKey": null,
        "Canonical SMILES": "C(=C(C)CC)C",
        "Molecular Formula": "C<sub>6</sub>H<sub>12</sub>",
        "Molecular Mass": "84.16",
        "Boiling Point": "69 °C",
        "Density": "0.7158 g/cm³ @ Temp: 0 °C"
    }
}