{
    "cas_no": "69399-79-7",
    "key_name": "3-(2-Chloro-6-fluorophenyl)-5-methylisoxazole-4-carbonyl chloride",
    "cn_name": "3-(2-氯-6-氟苯基)-5-甲基异噁唑-4-甲酰氯;",
    "alternate_name": "4-Isoxazolecarbonyl chloride, 3-(2-chloro-6-fluorophenyl)-5-methyl-;3-(2-Chloro-6-fluorophenyl)-5-methyl-4-isoxazolecarbonyl chloride;3-(2-Chloro-6-fluorophenyl)-5-methylisoxazol-4-oyl chloride;3-(6-Fluoro-2-chlorophenyl)-5-methylisoxazol-4-carbonyl chloride;3-(2-Chloro-6-fluorophenyl)-5-methylisoxazole-4-carbonyl chloride;4-(Chlorocarbonyl)-3-(2-Chloro-6-fluorophenyl)-5-methylisoxazole",
    "duplicated_cas_no": "",
    "SMILES": "ClC1=C(C(F)=CC=C1)C=2C(C(Cl)=O)=C(C)ON2",
    "meta_data": {
        "InChI": "InChI=1S/C11H6Cl2FNO2/c1-5-8(11(13)16)10(15-17-5)9-6(12)3-2-4-7(9)14/h2-4H,1H3",
        "InChIKey": null,
        "Canonical SMILES": "O=C(Cl)C=1C(=NOC1C)C=2C(F)=CC=CC2Cl",
        "Molecular Formula": "C<sub>11</sub>H<sub>6</sub>Cl<sub>2</sub>FNO<sub>2</sub>",
        "Molecular Mass": "274.08",
        "Melting Point": "181-184 °C"
    }
}