{
    "cas_no": "57-66-9",
    "key_name": "Probenecid",
    "cn_name": "丙磺舒;对[(二丙氨基)磺酰基]苯甲酸;",
    "alternate_name": "Benzoic acid, 4-[(dipropylamino)sulfonyl]-;Benzoic acid, <em>p</em>-(dipropylsulfamoyl)-;4-[(Dipropylamino)sulfonyl]benzoic acid;Benemid;<em>p</em>-(Dipropylsulfamoyl)benzoic acid;<em>p</em>-(Dipropylsulfamyl)benzoic acid;Probecid;Probenecid;Probenecid acid;4-(Dipropylsulfamoyl)benzoic acid;Proben;Benecid;Apurina;Synergid R;Tubophan;Benuryl;Uricosid;Prolongine;4-(<em>N</em>,<em>N</em>-Dipropylaminosulfonyl)benzoic acid;NSC 18786;4-(<em>N</em>,<em>N</em>-Dipropylsulfamoyl)benzoic acid;MeSH ID: D011339",
    "duplicated_cas_no": "1384172-26-2",
    "SMILES": "S(N(CCC)CCC)(=O)(=O)C1=CC=C(C(O)=O)C=C1",
    "meta_data": {
        "InChI": "InChI=1S/C13H19NO4S/c1-3-9-14(10-4-2)19(17,18)12-7-5-11(6-8-12)13(15)16/h5-8H,3-4,9-10H2,1-2H3,(H,15,16)",
        "InChIKey": null,
        "Canonical SMILES": "O=C(O)C1=CC=C(C=C1)S(=O)(=O)N(CCC)CCC",
        "Molecular Formula": "C<sub>13</sub>H<sub>19</sub>NO<sub>4</sub>S",
        "Molecular Mass": "285.36",
        "Melting Point": "194-196 °C"
    }
}