{
    "cas_no": "2462-84-2",
    "key_name": "Methyl 9-octadecenoate",
    "cn_name": "反式油酸甲酯;反式油酸甲酯;反油酸甲酯；反(式)-9-十八烯酸甲酯；反式-9-十八碳烯酸甲酯;",
    "alternate_name": "9-Octadecenoic acid, methyl ester;Methyl 9-octadecenoate",
    "duplicated_cas_no": "",
    "SMILES": "C(CCC=CCCCCCCCC)CCCCC(OC)=O",
    "meta_data": {
        "InChI": "InChI=1S/C19H36O2/c1-3-4-5-6-7-8-9-10-11-12-13-14-15-16-17-18-19(20)21-2/h10-11H,3-9,12-18H2,1-2H3",
        "InChIKey": null,
        "Canonical SMILES": "O=C(OC)CCCCCCCC=CCCCCCCCC",
        "Molecular Formula": "C<sub>19</sub>H<sub>36</sub>O<sub>2</sub>",
        "Molecular Mass": "296.49",
        "Boiling Point": "145.5-147 °C @ Press: 1 Torr",
        "Density": "0.8743 g/cm³ @ Temp: 20 °C"
    }
}