{
    "cas_no": "39815-78-6",
    "key_name": "Heptanoic acid, 3-oxo-, methyl ester",
    "cn_name": "3-酮庚酸甲酯;戊酰乙酸甲酯;",
    "alternate_name": "Heptanoic acid, 3-oxo-, methyl ester;Methyl 3-oxoheptanoate;Methyl pentanoylacetate;3-Oxoheptanoic acid methyl ester",
    "duplicated_cas_no": "",
    "SMILES": "C(CC(OC)=O)(CCCC)=O",
    "meta_data": {
        "InChI": "InChI=1S/C8H14O3/c1-3-4-5-7(9)6-8(10)11-2/h3-6H2,1-2H3",
        "InChIKey": null,
        "Canonical SMILES": "O=C(OC)CC(=O)CCCC",
        "Molecular Formula": "C<sub>8</sub>H<sub>14</sub>O<sub>3</sub>",
        "Molecular Mass": "158.20",
        "Boiling Point": "54-55 °C @ Press: 0.1 Torr"
    }
}