{
    "cas_no": "616-12-6",
    "key_name": "<em>trans</em>-3-Methyl-2-pentene",
    "cn_name": "反-3-甲基-2-戊烯;反-3-甲基-2-戊烯;1-乙-1,2-二甲基乙烯;3-甲-2-戊烯;",
    "alternate_name": "2-Pentene, 3-methyl-, (2<em>E</em>)-;2-Pentene, 3-methyl-, (<em>E</em>)-;2-Pentene, 3-methyl-, <em>trans</em>-;(2<em>E</em>)-3-Methyl-2-pentene;<em>trans</em>-3-Methyl-2-pentene;(<em>E</em>)-3-Methyl-2-pentene;NSC 73912",
    "duplicated_cas_no": "",
    "SMILES": "C(\\CC)(=C/C)/C",
    "meta_data": {
        "InChI": "InChI=1S/C6H12/c1-4-6(3)5-2/h4H,5H2,1-3H3/b6-4+",
        "InChIKey": null,
        "Canonical SMILES": "C(=C(C)CC)C",
        "Molecular Formula": "C<sub>6</sub>H<sub>12</sub>",
        "Molecular Mass": "84.16",
        "Boiling Point": "70.4 °C",
        "Melting Point": "-138.5 °C"
    }
}