{
    "cas_no": "33252-30-1",
    "key_name": "2-Chloro-4-cyanopyridine",
    "cn_name": "2-氯-4-氰基吡啶;",
    "alternate_name": "4-Pyridinecarbonitrile, 2-chloro-;Isonicotinonitrile, 2-chloro-;2-Chloro-4-pyridinecarbonitrile;2-Chloroisonicotinonitrile;2-Chloro-4-cyanopyridine;4-Cyano-2-chloropyridine",
    "duplicated_cas_no": "",
    "SMILES": "C(#N)C=1C=C(Cl)N=CC1",
    "meta_data": {
        "InChI": "InChI=1S/C6H3ClN2/c7-6-3-5(4-8)1-2-9-6/h1-3H",
        "InChIKey": null,
        "Canonical SMILES": "N#CC=1C=CN=C(Cl)C1",
        "Molecular Formula": "C<sub>6</sub>H<sub>3</sub>ClN<sub>2</sub>",
        "Molecular Mass": "138.55",
        "Boiling Point": "104-106 °C @ Press: 15 Torr",
        "Melting Point": "49 °C"
    }
}