{
    "cas_no": "570-24-1",
    "key_name": "2-Methyl-6-nitroaniline",
    "cn_name": "2-甲基-6-硝基苯胺;",
    "alternate_name": "Benzenamine, 2-methyl-6-nitro-;<em>o</em>-Toluidine, 6-nitro-;2-Methyl-6-nitrobenzenamine;6-Methyl-2-nitroaniline;2-Nitro-6-methylaniline;2-Methyl-6-nitroaniline;6-Nitro-<em>o</em>-toluidine;2-Amino-3-nitrotoluene;3-Nitro-2-aminotoluene;1-Amino-2-methyl-6-nitrobenzene;NSC 286;NSC 52218;1-Nitro-2-amino-3-methylbenzene;2-Methyl-6-nitro-phenylamine",
    "duplicated_cas_no": "",
    "SMILES": "N(=O)(=O)C1=C(N)C(C)=CC=C1",
    "meta_data": {
        "InChI": "InChI=1S/C7H8N2O2/c1-5-3-2-4-6(7(5)8)9(10)11/h2-4H,8H2,1H3",
        "InChIKey": null,
        "Canonical SMILES": "O=N(=O)C1=CC=CC(=C1N)C",
        "Molecular Formula": "C<sub>7</sub>H<sub>8</sub>N<sub>2</sub>O<sub>2</sub>",
        "Molecular Mass": "152.15",
        "Melting Point": "96 °C",
        "Density": "1.2424 g/cm³ @ Temp: 25.000 °C; Press: 759.8 Torr"
    }
}