{
    "cas_no": "65717-97-7",
    "key_name": "Disofenin",
    "cn_name": null,
    "alternate_name": "Glycine, <em>N</em>-[2-[[2,6-bis(1-methylethyl)phenyl]amino]-2-oxoethyl]-<em>N</em>-(carboxymethyl)-;<em>N</em>-[2-[[2,6-Bis(1-methylethyl)phenyl]amino]-2-oxoethyl]-<em>N</em>-(carboxymethyl)glycine;Disofenin;DISIDA;<em>N</em>-[[(2,6-Diisopropylphenyl)carbamoyl]methyl]iminodiacetic acid;2-[Carboxymethyl-[2-[2,6-di(propan-2-yl)anilino]-2-oxoethyl]amino]acetic acid",
    "duplicated_cas_no": "",
    "SMILES": "N(C(CN(CC(O)=O)CC(O)=O)=O)C1=C(C(C)C)C=CC=C1C(C)C",
    "meta_data": {
        "InChI": "InChI=1S/C18H26N2O5/c1-11(2)13-6-5-7-14(12(3)4)18(13)19-15(21)8-20(9-16(22)23)10-17(24)25/h5-7,11-12H,8-10H2,1-4H3,(H,19,21)(H,22,23)(H,24,25)",
        "InChIKey": null,
        "Canonical SMILES": "O=C(O)CN(CC(=O)O)CC(=O)NC=1C(=CC=CC1C(C)C)C(C)C",
        "Molecular Formula": "C<sub>18</sub>H<sub>26</sub>N<sub>2</sub>O<sub>5</sub>",
        "Molecular Mass": "350.41",
        "Melting Point": "198-200 °C"
    }
}