{
    "cas_no": "104-43-8",
    "key_name": "<em>p</em>-Dodecylphenol",
    "cn_name": null,
    "alternate_name": "Phenol, 4-dodecyl-;Phenol, <em>p</em>-dodecyl-;4-Dodecylphenol;<em>p</em>-Dodecylphenol;<em>p</em>-<em>n</em>-Dodecylphenol",
    "duplicated_cas_no": "",
    "SMILES": "C(CCCCCCCCCCC)C1=CC=C(O)C=C1",
    "meta_data": {
        "InChI": "InChI=1S/C18H30O/c1-2-3-4-5-6-7-8-9-10-11-12-17-13-15-18(19)16-14-17/h13-16,19H,2-12H2,1H3",
        "InChIKey": null,
        "Canonical SMILES": "OC1=CC=C(C=C1)CCCCCCCCCCCC",
        "Molecular Formula": "C<sub>18</sub>H<sub>30</sub>O",
        "Molecular Mass": "262.43",
        "Boiling Point": "174-180 °C @ Press: 0.1 Torr",
        "Melting Point": "63.5-64 °C",
        "Density": "0.9208 g/cm³ @ Temp: 20 °C"
    }
}