{
    "cas_no": "685-87-0",
    "key_name": "Diethyl bromomalonate",
    "cn_name": "溴代丙二酸二乙酯;溴代马来酸二乙酯;溴代丙二酸二乙酯;溴丙二酸二乙酯;溴代马来酸二乙酯/溴代丙二酸二乙酯;",
    "alternate_name": "Propanedioic acid, 2-bromo-, 1,3-diethyl ester;Malonic acid, bromo-, diethyl ester;Propanedioic acid, bromo-, diethyl ester;Diethyl bromomalonate;Diethyl α-bromomalonate;Bromomalonic acid diethyl ester;Ethyl bromomalonate;α-Bromomalonic ester;Diethyl 2-bromomalonate;Diethyl 2-bromopropanedioate;NSC 1985;2-Bromomalonic acid diethyl ester;Diethyl 2-bromo-1,3-propanedioate;Diethyl bromopropanedioate;1,3-Diethyl 2-bromopropanedioate",
    "duplicated_cas_no": "201742-85-0",
    "SMILES": "C(C(OCC)=O)(C(OCC)=O)Br",
    "meta_data": {
        "InChI": "InChI=1S/C7H11BrO4/c1-3-11-6(9)5(8)7(10)12-4-2/h5H,3-4H2,1-2H3",
        "InChIKey": null,
        "Canonical SMILES": "O=C(OCC)C(Br)C(=O)OCC",
        "Molecular Formula": "C<sub>7</sub>H<sub>11</sub>BrO<sub>4</sub>",
        "Molecular Mass": "239.06",
        "Boiling Point": "125-132 °C @ Press: 25 Torr",
        "Melting Point": "-54 °C",
        "Density": "1.4138 g/cm³ @ Temp: 20 °C"
    }
}