{
    "cas_no": "67-73-2",
    "key_name": "Fluocinolone 16,17-acetonide",
    "cn_name": "醋酸肤轻松;醋酸氟轻松;11b-羟基-16a,17-[(1-甲基亚乙基)-双(氧)]-21-(乙酰氧基)-6a,9-二氟孕甾-1,4-二烯-3;",
    "alternate_name": "Pregna-1,4-diene-3,20-dione, 6,9-difluoro-11,21-dihydroxy-16,17-[(1-methylethylidene)bis(oxy)]-, (6α,11β,16α)-;Pregna-1,4-diene-3,20-dione, 6α,9-difluoro-11β,16α,17,21-tetrahydroxy-, cyclic 16,17-acetal with acetone;2<em>H</em>-Naphth[2′,1′:4,5]indeno[1,2-<em>d</em>][1,3]dioxole, pregna-1,4-diene-3,20-dione deriv.;(6α,11β,16α)-6,9-Difluoro-11,21-dihydroxy-16,17-[(1-methylethylidene)bis(oxy)]pregna-1,4-diene-3,20-dione;6α,9α-Difluoro-16α,17α-isopropylidenedioxy-Δ1-hydrocortisone;6α,9α-Difluoro-11β,16α,17α,21-tetrahydroxypregna-1,4-diene-3,20-dione 16,17-acetonide;6α,9-Difluoro-11β,16α,17,21-tetrahydroxypregna-1,4-diene-3,20-dione cyclic 16,17 acetal with acetone;Fluocinolone acetonide;16α,17α-Isopropylidene-6α,9α-difluoro-1,4-pregnadiene-11β,16α,17α,21-tetrol-3,20-dione;Synalar;Fluocinolone 16,17-acetonide;6α-Fluorotriamcinolone acetonide;6α,9α-Difluoro-16α-hydroxyprednisolone 16,17-acetonide;Dermalar;Jellin;Synamol;Synsac;Synandone;Localyn Syntex;Fluovitif;6α,9-Difluoro-11β,21-dihydroxy-16α,17α-(isopropylidenedioxy)pregna-1,4-diene-3,20-dione;Sinalar;Radiocin;RS 1401AT;Synandrone;Percutina;Prodermin;Dermatin;Synaflan;Dermatin (steroid);Fluocinolone 16α,17α-acetonide;Fluzon;Synotic;Fluovitef;NSC 92339;Coriphate;Fluonid;Localyn;Synemol;Cortiplastol;Fluvean;Retisert;Sinaflan;Iluvien;Derma-Smoothe/FS;MeSH ID: D005446",
    "duplicated_cas_no": "",
    "SMILES": "C(CO)(=O)[C@]12[C@]3(C)[C@@](C[C@]1(OC(C)(C)O2)[H])([C@]4([C@](F)([C@@H](O)C3)[C@]5(C)C([C@@H](F)C4)=CC(=O)C=C5)[H])[H]",
    "meta_data": {
        "InChI": "InChI=1S/C24H30F2O6/c1-20(2)31-19-9-13-14-8-16(25)15-7-12(28)5-6-21(15,3)23(14,26)17(29)10-22(13,4)24(19,32-20)18(30)11-27/h5-7,13-14,16-17,19,27,29H,8-11H2,1-4H3/t13-,14-,16-,17-,19+,21-,22-,23-,24+/m0/s1",
        "InChIKey": null,
        "Canonical SMILES": "O=C1C=CC2(C(=C1)C(F)CC3C4CC5OC(OC5(C(=O)CO)C4(C)CC(O)C32F)(C)C)C",
        "Molecular Formula": "C<sub>24</sub>H<sub>30</sub>F<sub>2</sub>O<sub>6</sub>",
        "Molecular Mass": "452.49",
        "Melting Point": "266 °C"
    }
}