{
    "cas_no": "145100-51-2",
    "key_name": "<em>N</em>-(5-Chloro-2-pyridyl)triflimide",
    "cn_name": null,
    "alternate_name": "Methanesulfonamide, <em>N</em>-(5-chloro-2-pyridinyl)-1,1,1-trifluoro-<em>N</em>-[(trifluoromethyl)sulfonyl]-;<em>N</em>-(5-Chloro-2-pyridinyl)-1,1,1-trifluoro-<em>N</em>-[(trifluoromethyl)sulfonyl]methanesulfonamide;2-[<em>N</em>,<em>N</em>-Bis(trifluoromethylsulfonyl)amino]-5-chloropyridine;<em>N</em>-(5-Chloro-2-pyridyl)triflimide;Comins' reagent;NSC 683533;<em>N</em>-(5-Chloropyridin-2-yl)-1,1,1-trifluoro-<em>N</em>-[(trifluoromethyl)sulfonyl]methanesulfonamide;<em>N</em>,<em>N</em>-Bis(trifluoromethylsulfonyl)-5-chloro-2-pyridinamine;<em>N</em>,<em>N</em>-Bis(trifluoromethylsulfonyl)-5-chloro-2-pyridylamine;<em>N</em>-(5-Chloro-2-pyridyl)-<em>N</em>-(trifluoromethanesulfonyl)trifluoromethanesulfonamide;2-[<em>N</em>,<em>N</em>-Bis(trifluoromethanesulfonyl)amino]-5-chloropyridine;1-[<em>N</em>,<em>N</em>-Bis(trifluoromethylsulfonyl)amino]-5-chloropyridine;2-[<em>N</em>,<em>N</em>-Bis(Trifluoromethylsulphonyl)amino]-5-chloropyridine;<em>N</em>-(5-Chloro-2-pyridyl)-1,1,1-trifluoro-<em>N</em>-(trifluoromethylsulfonyl)methanesulfonamide",
    "duplicated_cas_no": "172654-24-9;856244-63-8;924643-24-3",
    "SMILES": "N(S(C(F)(F)F)(=O)=O)(S(C(F)(F)F)(=O)=O)C1=CC=C(Cl)C=N1",
    "meta_data": {
        "InChI": "InChI=1S/C7H3ClF6N2O4S2/c8-4-1-2-5(15-3-4)16(21(17,18)6(9,10)11)22(19,20)7(12,13)14/h1-3H",
        "InChIKey": null,
        "Canonical SMILES": "O=S(=O)(N(C1=NC=C(Cl)C=C1)S(=O)(=O)C(F)(F)F)C(F)(F)F",
        "Molecular Formula": "C<sub>7</sub>H<sub>3</sub>ClF<sub>6</sub>N<sub>2</sub>O<sub>4</sub>S<sub>2</sub>",
        "Molecular Mass": "392.68",
        "Melting Point": "46-48 °C"
    }
}