{
    "cas_no": "17138-28-2",
    "key_name": "Ethyl 4-hydroxyphenylacetate",
    "cn_name": "对羟基苯乙酸乙酯;",
    "alternate_name": "Benzeneacetic acid, 4-hydroxy-, ethyl ester;Acetic acid, (<em>p</em>-hydroxyphenyl)-, ethyl ester;Ethyl 4-hydroxyphenylacetate;Ethyl (<em>p</em>-hydroxyphenyl)acetate;Ethyl 2-(4-hydroxyphenyl)acetate;(4-Hydroxyphenyl)acetic acid ethyl ester;Ethyl 2-(<em>p</em>-hydroxyphenyl)acetate;2-(4-Hydroxyphenyl)acetic acid ethyl ester",
    "duplicated_cas_no": "",
    "SMILES": "C(C(OCC)=O)C1=CC=C(O)C=C1",
    "meta_data": {
        "InChI": "InChI=1S/C10H12O3/c1-2-13-10(12)7-8-3-5-9(11)6-4-8/h3-6,11H,2,7H2,1H3",
        "InChIKey": null,
        "Canonical SMILES": "O=C(OCC)CC1=CC=C(O)C=C1",
        "Molecular Formula": "C<sub>10</sub>H<sub>12</sub>O<sub>3</sub>",
        "Molecular Mass": "180.20",
        "Boiling Point": "155-157 °C @ Press: 1.5 Torr",
        "Melting Point": "37 °C"
    }
}