{
    "cas_no": "814-75-5",
    "key_name": "3-Bromo-2-butanone",
    "cn_name": null,
    "alternate_name": "2-Butanone, 3-bromo-;3-Bromo-2-butanone;2-Bromo-3-butanone;α-Bromoethyl methyl ketone;1-Bromoethyl methyl ketone;3-Bromobutanone;(±)-α-Bromoethyl methyl ketone",
    "duplicated_cas_no": "51486-69-2",
    "SMILES": "C(C(C)=O)(Br)C",
    "meta_data": {
        "InChI": "InChI=1S/C4H7BrO/c1-3(5)4(2)6/h3H,1-2H3",
        "InChIKey": null,
        "Canonical SMILES": "O=C(C)C(Br)C",
        "Molecular Formula": "C<sub>4</sub>H<sub>7</sub>BrO",
        "Molecular Mass": "151.00",
        "Boiling Point": "33-34 °C @ Press: 12 Torr"
    }
}