{
    "cas_no": "4720-29-0",
    "key_name": "3-(Benzylamino)-1-propanol",
    "cn_name": "N-苄基-3-氨基丙醇;N-苄基-3-氨基丙-1-醇;",
    "alternate_name": "1-Propanol, 3-[(phenylmethyl)amino]-;1-Propanol, 3-(benzylamino)-;3-[(Phenylmethyl)amino]-1-propanol;3-(Benzylamino)-1-propanol;<em>N</em>-Benzyl-<em>N</em>-(3-hydroxypropyl)amine;<em>N</em>-Benzyl-3-aminopropanol;<em>N</em>-Benzyl-3-propanolamine;<em>N</em>-Benzylpropanolamine;NSC 165603;NSC 17283;3-(<em>N</em>-Benzylamino)propan-1-ol",
    "duplicated_cas_no": "",
    "SMILES": "C(NCCCO)C1=CC=CC=C1",
    "meta_data": {
        "InChI": "InChI=1S/C10H15NO/c12-8-4-7-11-9-10-5-2-1-3-6-10/h1-3,5-6,11-12H,4,7-9H2",
        "InChIKey": null,
        "Canonical SMILES": "OCCCNCC=1C=CC=CC1",
        "Molecular Formula": "C<sub>10</sub>H<sub>15</sub>NO",
        "Molecular Mass": "165.23",
        "Boiling Point": "132 °C @ Press: 2 Torr"
    }
}