{
    "cas_no": "21739-93-5",
    "key_name": "2-Bromo-5-chlorobenzoic acid",
    "cn_name": "2-溴-5-氯苯甲酸;",
    "alternate_name": "Benzoic acid, 2-bromo-5-chloro-;2-Bromo-5-chlorobenzoic acid;NSC 128879;5-Chloro-2-bromobenzoic acid",
    "duplicated_cas_no": "",
    "SMILES": "C(O)(=O)C1=C(Br)C=CC(Cl)=C1",
    "meta_data": {
        "InChI": "InChI=1S/C7H4BrClO2/c8-6-2-1-4(9)3-5(6)7(10)11/h1-3H,(H,10,11)",
        "InChIKey": null,
        "Canonical SMILES": "O=C(O)C1=CC(Cl)=CC=C1Br",
        "Molecular Formula": "C<sub>7</sub>H<sub>4</sub>BrClO<sub>2</sub>",
        "Molecular Mass": "235.46",
        "Melting Point": "148-149 °C"
    }
}