{
    "cas_no": "2417-04-1",
    "key_name": "3,3′,5,5′-Tetramethyl[1,1′-biphenyl]-4,4′-diol",
    "cn_name": "3,5,3\",5\"-四甲基-4,4\"-二羟基联苯;3,5,3\",5\"-四甲基-4,4\"-联苯二酚;",
    "alternate_name": "[1,1′-Biphenyl]-4,4′-diol, 3,3′,5,5′-tetramethyl-;4,4′-Biphenyldiol, 3,3′,5,5′-tetramethyl-;4,4′-Bi-2,6-xylenol;3,3′,5,5′-Tetramethyl[1,1′-biphenyl]-4,4′-diol;3,3′,5,5′-Tetramethylbisphenol;2,2′,6,6′-Tetramethyl-<em>p</em>,<em>p</em>′-biphenol;3,3′,5,5′-Tetramethyl-4,4′-dihydroxybiphenyl;4,4′-Dihydroxy-3,3′,5,5′-tetramethylbiphenyl;2,2′,6,6′-Tetramethylbiphenol;TM-BPL;NSC 128399;NSC 93821;4,4′-Dihydroxy-3,3′,5,5′-tetramethyl bisphenol;3,5,3′,5′-Tetramethylbiphenyl-4,4′-diol;TMBP",
    "duplicated_cas_no": "2353429-73-7",
    "SMILES": "CC=1C=C(C=C(C)C1O)C2=CC(C)=C(O)C(C)=C2",
    "meta_data": {
        "InChI": "InChI=1S/C16H18O2/c1-9-5-13(6-10(2)15(9)17)14-7-11(3)16(18)12(4)8-14/h5-8,17-18H,1-4H3",
        "InChIKey": null,
        "Canonical SMILES": "OC=1C(=CC(=CC1C)C=2C=C(C(O)=C(C2)C)C)C",
        "Molecular Formula": "C<sub>16</sub>H<sub>18</sub>O<sub>2</sub>",
        "Molecular Mass": "242.31",
        "Melting Point": "221.8 °C"
    }
}