{
    "cas_no": "93-70-9",
    "key_name": "<em>N</em>-(2-Chlorophenyl)-3-oxobutanamide",
    "cn_name": "2\"-氯-N-乙酰乙酰苯胺;乙酰乙酰邻氯苯胺;邻氯-N-乙酰乙酰苯胺;AAOCA;",
    "alternate_name": "Butanamide, <em>N</em>-(2-chlorophenyl)-3-oxo-;Acetoacetanilide, 2′-chloro-;<em>N</em>-(2-Chlorophenyl)-3-oxobutanamide;AAoC;Acetoacet-<em>o</em>-chloroanilide;<em>o</em>-Acetoacetochloroanilide;2′-Chloroacetoacetanilide;<em>o</em>-Chloroacetoacetanilide;Acetoacetyl-<em>o</em>-chloroanilide;<em>N</em>-Acetoacetyl-2-chloroaniline;<em>N</em>-(2-Chlorophenyl)acetoacetamide;Acetoacetyl-2-chloroanilide;Acetoacetic acid 2-chloroanilide;Acetoacetic acid <em>o</em>-chloroanilide;NSC 3913",
    "duplicated_cas_no": "1258964-42-9",
    "SMILES": "N(C(CC(C)=O)=O)C1=C(Cl)C=CC=C1",
    "meta_data": {
        "InChI": "InChI=1S/C10H10ClNO2/c1-7(13)6-10(14)12-9-5-3-2-4-8(9)11/h2-5H,6H2,1H3,(H,12,14)",
        "InChIKey": null,
        "Canonical SMILES": "O=C(NC=1C=CC=CC1Cl)CC(=O)C",
        "Molecular Formula": "C<sub>10</sub>H<sub>10</sub>ClNO<sub>2</sub>",
        "Molecular Mass": "211.64",
        "Melting Point": "107-108 °C"
    }
}