{
    "cas_no": "63968-64-9",
    "key_name": "Artemisinin",
    "cn_name": "青蒿素;(3R,5aS,6R,8aS,9R,10S,12R,12aR)-十氢-3,6,9-三甲基-3,12-桥氧-12H-吡喃并[4,3-j]-1,2-苯并二塞平-;",
    "alternate_name": "3,12-Epoxy-12<em>H</em>-pyrano[4,3-<em>j</em>]-1,2-benzodioxepin-10(3<em>H</em>)-one, octahydro-3,6,9-trimethyl-, (3<em>R</em>,5a<em>S</em>,6<em>R</em>,8a<em>S</em>,9<em>R</em>,12<em>S</em>,12a<em>R</em>)-;3,12-Epoxy-12<em>H</em>-pyrano[4,3-<em>j</em>]-1,2-benzodioxepin-10(3<em>H</em>)-one, octahydro-3,6,9-trimethyl-, [3<em>R</em>-(3α,5aβ,6β,8aβ,9α,12β,12a<em>R</em>*)]-;(3<em>R</em>,5a<em>S</em>,6<em>R</em>,8a<em>S</em>,9<em>R</em>,12<em>S</em>,12a<em>R</em>)-Octahydro-3,6,9-trimethyl-3,12-epoxy-12<em>H</em>-pyrano[4,3-<em>j</em>]-1,2-benzodioxepin-10(3<em>H</em>)-one;Qing Hau Sau;Artemisinin;Arteannuin;Qinghaosu;Qing Hau Su;(+)-Artemisinin;Qinghosu;(+)-Arteannuin;(+)-Qinghaosu;Huanghuahaosu;Artemisine;QHS;NSC 369397;Artemef;Artemisinine;HC 101A;ARTIVeda;PulmoHeal",
    "duplicated_cas_no": "91487-93-3",
    "SMILES": "C[C@@H]1[C@]2([C@]34[C@@](O[C@](C)(OO3)CC[C@]4([C@H](C)CC2)[H])(OC1=O)[H])[H]",
    "meta_data": {
        "InChI": "InChI=1S/C15H22O5/c1-8-4-5-11-9(2)12(16)17-13-15(11)10(8)6-7-14(3,18-13)19-20-15/h8-11,13H,4-7H2,1-3H3/t8-,9-,10+,11+,13-,14-,15-/m1/s1",
        "InChIKey": null,
        "Canonical SMILES": "O=C1OC2OC3(OOC24C(CCC(C)C4CC3)C1C)C",
        "Molecular Formula": "C<sub>15</sub>H<sub>22</sub>O<sub>5</sub>",
        "Molecular Mass": "282.33",
        "Melting Point": "156-157 °C",
        "Density": "1.300 g/cm³"
    }
}