{
    "cas_no": "6629-60-3",
    "key_name": "Hydrazine, ethyl-, ethanedioate (1:1)",
    "cn_name": null,
    "alternate_name": "Hydrazine, ethyl-, ethanedioate (1:1);Hydrazine, ethyl-, oxalate (1:1);Hydrazine, ethyl-, oxalate;Ethylhydrazine oxalate;NSC 58182;Ethylhydrazine ethanedioate",
    "duplicated_cas_no": "",
    "SMILES": "C(NN)C.C(C(O)=O)(O)=O",
    "meta_data": {
        "InChI": "InChI=1S/C2H8N2.C2H2O4/c1-2-4-3;3-1(4)2(5)6/h4H,2-3H2,1H3;(H,3,4)(H,5,6)",
        "InChIKey": null,
        "Canonical SMILES": "O=C(O)C(=O)O.NNCC",
        "Molecular Formula": "C<sub>2</sub>H<sub>8</sub>N<sub>2</sub>.C<sub>2</sub>H<sub>2</sub>O<sub>4</sub>",
        "Molecular Mass": "",
        "Melting Point": "170-171 °C"
    }
}