{
    "cas_no": "30379-55-6",
    "key_name": "Benzyloxyacetic acid",
    "cn_name": "苄氧乙酸;",
    "alternate_name": "Acetic acid, 2-(phenylmethoxy)-;Acetic acid, (phenylmethoxy)-;Acetic acid, (benzyloxy)-;2-(Phenylmethoxy)acetic acid;Glycolic acid-benzyl ether;Benzyloxyacetic acid;2-Benzyloxyacetic acid;NSC 153415",
    "duplicated_cas_no": "",
    "SMILES": "C(OCC(O)=O)C1=CC=CC=C1",
    "meta_data": {
        "InChI": "InChI=1S/C9H10O3/c10-9(11)7-12-6-8-4-2-1-3-5-8/h1-5H,6-7H2,(H,10,11)",
        "InChIKey": null,
        "Canonical SMILES": "O=C(O)COCC=1C=CC=CC1",
        "Molecular Formula": "C<sub>9</sub>H<sub>10</sub>O<sub>3</sub>",
        "Molecular Mass": "166.17",
        "Boiling Point": "180-182 °C @ Press: 15 Torr",
        "Melting Point": "80-81 °C"
    }
}