{
    "cas_no": "7789-45-9",
    "key_name": "Copper bromide (CuBr<sub>2</sub>)",
    "cn_name": "溴化铜;",
    "alternate_name": "Copper bromide (CuBr<sub>2</sub>);Cupric bromide;Copper(II) bromide;Copper dibromide",
    "duplicated_cas_no": "",
    "SMILES": "[Cu](Br)Br",
    "meta_data": {
        "InChI": "InChI=1S/2BrH.Cu/h2*1H;/q;;+2/p-2",
        "InChIKey": null,
        "Canonical SMILES": "Br[Cu]Br",
        "Molecular Formula": "Br<sub>2</sub>Cu",
        "Molecular Mass": "",
        "Boiling Point": "900 °C",
        "Melting Point": "498 °C",
        "Density": "4.710 g/cm³ @ Temp: 20 °C"
    }
}