{
    "cas_no": "17680-84-1",
    "key_name": "Homoplantaginin",
    "cn_name": null,
    "alternate_name": "4<em>H</em>-1-Benzopyran-4-one, 7-(β-<span class=\"text-smallcaps\">D</span>-glucopyranosyloxy)-5-hydroxy-2-(4-hydroxyphenyl)-6-methoxy-;Homoplantaginin;7-(β-<span class=\"text-smallcaps\">D</span>-Glucopyranosyloxy)-5-hydroxy-2-(4-hydroxyphenyl)-6-methoxy-4<em>H</em>-1-benzopyran-4-one;Dinatin 7-β-<span class=\"text-smallcaps\">D</span>-glucopyranoside;Dinatin 7-glucoside;Hispidulin 7-glucoside;Hispiduloside;Hispidulin 7-<em>O</em>-β-glucoside;Hispidulin 7-β-<span class=\"text-smallcaps\">D</span>-glucopyranoside;Hispidulin 7-β-glucoside;Hispidulin 7-<em>O</em>-glucopyranoside;Hispidulin 7-<em>O</em>-glucoside;6-Methoxyapigenin 7-<em>O</em>-glucoside;Hispidulin 7-<em>O</em>-β-<span class=\"text-smallcaps\">D</span>-glucopyranoside;6-Methoxyapigenin 7-<em>O</em>-β-<span class=\"text-smallcaps\">D</span>-glucoside",
    "duplicated_cas_no": "",
    "SMILES": "OC1=C2C(=CC(O[C@@H]3O[C@H](CO)[C@@H](O)[C@H](O)[C@H]3O)=C1OC)OC(=CC2=O)C4=CC=C(O)C=C4",
    "meta_data": {
        "InChI": "InChI=1S/C22H22O11/c1-30-21-14(32-22-20(29)19(28)17(26)15(8-23)33-22)7-13-16(18(21)27)11(25)6-12(31-13)9-2-4-10(24)5-3-9/h2-7,15,17,19-20,22-24,26-29H,8H2,1H3/t15-,17-,19+,20-,22-/m1/s1",
        "InChIKey": null,
        "Canonical SMILES": "O=C1C=C(OC=2C=C(OC3OC(CO)C(O)C(O)C3O)C(OC)=C(O)C12)C=4C=CC(O)=CC4",
        "Molecular Formula": "C<sub>22</sub>H<sub>22</sub>O<sub>11</sub>",
        "Molecular Mass": "462.40",
        "Melting Point": "219-220 °C (decomp)"
    }
}