{
    "cas_no": "2235-46-3",
    "key_name": "Diethylacetoacetamide",
    "cn_name": "N,N-二乙基乙酰乙酰胺;N,N-二乙基-3-氧代丁酰胺;",
    "alternate_name": "Butanamide, <em>N</em>,<em>N</em>-diethyl-3-oxo-;Acetoacetamide, <em>N</em>,<em>N</em>-diethyl-;<em>N</em>,<em>N</em>-Diethyl-3-oxobutanamide;<em>N</em>,<em>N</em>-Diethylacetoacetamide;1-(Diethylcarbamoyl)-2-propanone;Diethylacetoacetamide;<em>N</em>,<em>N</em>-Diethylacetylacetamide;Promotor C;<em>N</em>-Diethylacetoacetamide",
    "duplicated_cas_no": "675103-37-4",
    "SMILES": "N(C(CC(C)=O)=O)(CC)CC",
    "meta_data": {
        "InChI": "InChI=1S/C8H15NO2/c1-4-9(5-2)8(11)6-7(3)10/h4-6H2,1-3H3",
        "InChIKey": null,
        "Canonical SMILES": "O=C(N(CC)CC)CC(=O)C",
        "Molecular Formula": "C<sub>8</sub>H<sub>15</sub>NO<sub>2</sub>",
        "Molecular Mass": "157.21",
        "Boiling Point": "126-127 °C",
        "Density": "0.995 g/cm³ @ Temp: 20 °C"
    }
}