{
    "cas_no": "6384-92-5",
    "key_name": "NMDA",
    "cn_name": "N-甲基-D-天冬氨酸;(R)-2-(甲基氨基)丁二酸;",
    "alternate_name": "<span class=\"text-smallcaps\">D</span>-Aspartic acid, <em>N</em>-methyl-;Aspartic acid, <em>N</em>-methyl-, <span class=\"text-smallcaps\">D</span>-;<em>N</em>-Methyl-<span class=\"text-smallcaps\">D</span>-aspartic acid;NMDA;(2R)-2-(Methylamino)butanedioic acid",
    "duplicated_cas_no": "",
    "SMILES": "[C@@H](CC(O)=O)(C(O)=O)NC",
    "meta_data": {
        "InChI": "InChI=1S/C5H9NO4/c1-6-3(5(9)10)2-4(7)8/h3,6H,2H2,1H3,(H,7,8)(H,9,10)/t3-/m1/s1",
        "InChIKey": null,
        "Canonical SMILES": "O=C(O)CC(NC)C(=O)O",
        "Molecular Formula": "C<sub>5</sub>H<sub>9</sub>NO<sub>4</sub>",
        "Molecular Mass": "147.13",
        "Melting Point": "193-195 °C"
    }
}