{
    "cas_no": "70982-53-5",
    "key_name": "(2<em>S</em>)-2-Amino-3-butenoic acid",
    "cn_name": null,
    "alternate_name": "3-Butenoic acid, 2-amino-, (2<em>S</em>)-;3-Butenoic acid, 2-amino-, (<em>S</em>)-;(2<em>S</em>)-2-Amino-3-butenoic acid;<span class=\"text-smallcaps\">L</span>-Vinylglycine;<span class=\"text-smallcaps\">L</span>-2-Vinylglycine;(<em>S</em>)-Vinylglycine;(<em>S</em>)-2-Amino-3-butenoic acid;3-Butenoic acid 2-amino-, (2S)-",
    "duplicated_cas_no": "",
    "SMILES": "[C@@H](C(O)=O)(C=C)N",
    "meta_data": {
        "InChI": "InChI=1S/C4H7NO2/c1-2-3(5)4(6)7/h2-3H,1,5H2,(H,6,7)/t3-/m0/s1",
        "InChIKey": null,
        "Canonical SMILES": "O=C(O)C(N)C=C",
        "Molecular Formula": "C<sub>4</sub>H<sub>7</sub>NO<sub>2</sub>",
        "Molecular Mass": "101.10",
        "Melting Point": "217 °C"
    }
}