{
    "cas_no": "2942-58-7",
    "key_name": "Diethyl cyanophosphonate",
    "cn_name": "氰基磷酸二乙酯;",
    "alternate_name": "Phosphorocyanidic acid, diethyl ester;Phosphonic acid, cyano-, diethyl ester;Ethyl phosphorocyanidate;Diethylphosphoryl cyanide;Diethyl phosphorocyanidate;Diethyl cyanophosphonate;DEPC;Diethoxyphosphoryl cyanide;Diethyl Cyanophosphate",
    "duplicated_cas_no": "",
    "SMILES": "P(OCC)(OCC)(C#N)=O",
    "meta_data": {
        "InChI": "InChI=1S/C5H10NO3P/c1-3-8-10(7,5-6)9-4-2/h3-4H2,1-2H3",
        "InChIKey": null,
        "Canonical SMILES": "N#CP(=O)(OCC)OCC",
        "Molecular Formula": "C<sub>5</sub>H<sub>10</sub>NO<sub>3</sub>P",
        "Molecular Mass": "163.11",
        "Boiling Point": "90-91 °C @ Press: 11 Torr",
        "Density": "1.0884 g/cm³ @ Temp: 20 °C"
    }
}