{
    "cas_no": "6092-80-4",
    "key_name": "Hydroxylamine, <em>O</em>-phenyl-, hydrochloride (1:1)",
    "cn_name": "O-苯基羟胺盐酸盐;",
    "alternate_name": "Hydroxylamine, <em>O</em>-phenyl-, hydrochloride (1:1);Hydroxylamine, <em>O</em>-phenyl-, hydrochloride;Phenoxyamine, hydrochloride;<em>O</em>-Phenylhydroxylamine hydrochloride;<em>O</em>-Phenylhydroxyamine hydrochloride",
    "duplicated_cas_no": "110720-81-5;137270-06-5;43195-51-3",
    "SMILES": "O(N)C1=CC=CC=C1.Cl",
    "meta_data": {
        "InChI": "InChI=1S/C6H7NO.ClH/c7-8-6-4-2-1-3-5-6;/h1-5H,7H2;1H",
        "InChIKey": null,
        "Canonical SMILES": "Cl.O(N)C=1C=CC=CC1",
        "Molecular Formula": "C<sub>6</sub>H<sub>7</sub>NO.ClH",
        "Molecular Mass": "",
        "Melting Point": "136 °C (decomp)"
    }
}