{
    "cas_no": "4317-61-7",
    "key_name": "1-(2-Methylphenoxy)-2-propanol",
    "cn_name": "1-(2-甲基苯氧基)-2-丙醇;",
    "alternate_name": "2-Propanol, 1-(2-methylphenoxy)-;2-Propanol, 1-(<em>o</em>-tolyloxy)-;1-(2-Methylphenoxy)-2-propanol;1-<em>o</em>-Tolyloxy-2-propanol;<em>o</em>-Cresoxy-2-propanol;3-(2-Methylphenoxy)-2-propanol",
    "duplicated_cas_no": "",
    "SMILES": "O(CC(C)O)C1=C(C)C=CC=C1",
    "meta_data": {
        "InChI": "InChI=1S/C10H14O2/c1-8-5-3-4-6-10(8)12-7-9(2)11/h3-6,9,11H,7H2,1-2H3",
        "InChIKey": null,
        "Canonical SMILES": "OC(C)COC=1C=CC=CC1C",
        "Molecular Formula": "C<sub>10</sub>H<sub>14</sub>O<sub>2</sub>",
        "Molecular Mass": "166.22",
        "Boiling Point": "106-108 °C @ Press: 5 Torr",
        "Density": "1.0390 g/cm³ @ Temp: 20 °C"
    }
}