{
    "cas_no": "7784-35-2",
    "key_name": "Arsenous trifluoride",
    "cn_name": "三氟化砷;",
    "alternate_name": "Arsenous trifluoride;Arsenic fluoride (AsF<sub>3</sub>);Arsenic trifluoride;Arsenous fluoride;Trifluoroarsine",
    "duplicated_cas_no": "",
    "SMILES": "[As](F)(F)F",
    "meta_data": {
        "InChI": "InChI=1S/AsF3/c2-1(3)4",
        "InChIKey": null,
        "Canonical SMILES": "F[As](F)F",
        "Molecular Formula": "AsF<sub>3</sub>",
        "Molecular Mass": "131.92",
        "Boiling Point": "57.8 °C",
        "Melting Point": "-5.9 °C",
        "Density": "2.7 g/cm³"
    }
}