{
    "cas_no": "7250-67-1",
    "key_name": "1-(2-Chloroethyl)pyrrolidine hydrochloride",
    "cn_name": "N-(2-氯乙基)吡咯烷盐酸盐;",
    "alternate_name": "Pyrrolidine, 1-(2-chloroethyl)-, hydrochloride (1:1);Pyrrolidine, 1-(2-chloroethyl)-, hydrochloride;<em>N</em>-(β-Chloroethyl)pyrrolidine hydrochloride;2-Pyrrolidinyl-1-chloroethane hydrochloride;1-(2-Chloroethyl)pyrrolidine hydrochloride;Pyrrolidinoethyl chloride hydrochloride;2-Pyrrolidinoethyl chloride hydrochloride;1-(2-Chloroethyl)pyrrolidine monohydrochloride;β-Pyrrolidinoethyl chloride hydrochloride;<em>N</em>-(2-Chloroethyl)pyrrolidinium chloride;<em>N</em>-(2-Chloroethyl)pyrrolidine hydrochloride;2-(1-Pyrrolidinyl)ethyl chloride hydrochloride;2-(1-Pyrrolidino)ethyl chloride hydrochloride;1-(2-Chloroethyl)pyrrolidinium chloride;1-(2-Chloroethyl)pyrrolidin-1-ium chloride",
    "duplicated_cas_no": "",
    "SMILES": "C(CCl)N1CCCC1.Cl",
    "meta_data": {
        "InChI": "InChI=1S/C6H12ClN.ClH/c7-3-6-8-4-1-2-5-8;/h1-6H2;1H",
        "InChIKey": null,
        "Canonical SMILES": "Cl.ClCCN1CCCC1",
        "Molecular Formula": "C<sub>6</sub>H<sub>12</sub>ClN.ClH",
        "Molecular Mass": "",
        "Melting Point": "173.5-174 °C"
    }
}