{
    "cas_no": "153559-76-3",
    "key_name": "6-[1-(5,6,7,8-Tetrahydro-3,5,5,8,8-pentamethyl-2-naphthalenyl)cyclopropyl]-3-pyridinecarboxylic acid",
    "cn_name": null,
    "alternate_name": "3-Pyridinecarboxylic acid, 6-[1-(5,6,7,8-tetrahydro-3,5,5,8,8-pentamethyl-2-naphthalenyl)cyclopropyl]-;6-[1-(5,6,7,8-Tetrahydro-3,5,5,8,8-pentamethyl-2-naphthalenyl)cyclopropyl]-3-pyridinecarboxylic acid;LG 100268;CD 3127;LGD 100268;LG 268;LGD 1268;ALRT 268;AGN 192620",
    "duplicated_cas_no": "309956-42-1;197730-94-2;262615-35-0;263723-53-1",
    "SMILES": "CC1=C(C2(CC2)C3=CC=C(C(O)=O)C=N3)C=C4C(=C1)C(C)(C)CCC4(C)C",
    "meta_data": {
        "InChI": "InChI=1S/C24H29NO2/c1-15-12-18-19(23(4,5)9-8-22(18,2)3)13-17(15)24(10-11-24)20-7-6-16(14-25-20)21(26)27/h6-7,12-14H,8-11H2,1-5H3,(H,26,27)",
        "InChIKey": null,
        "Canonical SMILES": "O=C(O)C1=CN=C(C=C1)C2(C=3C=C4C(=CC3C)C(C)(C)CCC4(C)C)CC2",
        "Molecular Formula": "C<sub>24</sub>H<sub>29</sub>NO<sub>2</sub>",
        "Molecular Mass": "363.49",
        "Melting Point": "273-274 °C"
    }
}