{
    "cas_no": "68208-20-8",
    "key_name": "β-Amino-2-chlorobenzenepropanoic acid",
    "cn_name": null,
    "alternate_name": "Benzenepropanoic acid, β-amino-2-chloro-;β-Amino-2-chlorobenzenepropanoic acid;NSC 45727;3-Amino-3-(2-chlorophenyl)propanoic acid;3-Amino-3-(2-chloro-phenyl)-propionic acid;3-Amino-3-(2-chlorophenyl)propanoicacid",
    "duplicated_cas_no": "",
    "SMILES": "C(CC(O)=O)(N)C1=C(Cl)C=CC=C1",
    "meta_data": {
        "InChI": "InChI=1S/C9H10ClNO2/c10-7-4-2-1-3-6(7)8(11)5-9(12)13/h1-4,8H,5,11H2,(H,12,13)",
        "InChIKey": null,
        "Canonical SMILES": "O=C(O)CC(N)C=1C=CC=CC1Cl",
        "Molecular Formula": "C<sub>9</sub>H<sub>10</sub>ClNO<sub>2</sub>",
        "Molecular Mass": "199.63",
        "Melting Point": "245 °C (decomp)"
    }
}