{
    "cas_no": "192185-72-1",
    "key_name": "Tipifarnib",
    "cn_name": "替吡法尼;(R)-6-(氨基(4-氯苯基)(1-甲基-1H-咪唑-5-基)甲基)-4-(3-氯苯基)-1-甲基-2(1H)-喹啉酮;",
    "alternate_name": "2(1<em>H</em>)-Quinolinone, 6-[(<em>R</em>)-amino(4-chlorophenyl)(1-methyl-1<em>H</em>-imidazol-5-yl)methyl]-4-(3-chlorophenyl)-1-methyl-;6-[(<em>R</em>)-Amino(4-chlorophenyl)(1-methyl-1<em>H</em>-imidazol-5-yl)methyl]-4-(3-chlorophenyl)-1-methyl-2(1<em>H</em>)-quinolinone;Tipifarnib;(<em>R</em>)-(+)-R 115777;Zarnestra;2: PN: WO2019129231 SEQID: 3 claimed sequence;Tipifarnib-P2",
    "duplicated_cas_no": "",
    "SMILES": "[C@](N)(C=1C=C2C(=CC(=O)N(C)C2=CC1)C3=CC(Cl)=CC=C3)(C=4N(C)C=NC4)C5=CC=C(Cl)C=C5",
    "meta_data": {
        "InChI": "InChI=1S/C27H22Cl2N4O/c1-32-16-31-15-25(32)27(30,18-6-9-20(28)10-7-18)19-8-11-24-23(13-19)22(14-26(34)33(24)2)17-4-3-5-21(29)12-17/h3-16H,30H2,1-2H3/t27-/m1/s1",
        "InChIKey": null,
        "Canonical SMILES": "O=C1C=C(C=2C=CC=C(Cl)C2)C=3C=C(C=CC3N1C)C(N)(C4=CC=C(Cl)C=C4)C5=CN=CN5C",
        "Molecular Formula": "C<sub>27</sub>H<sub>22</sub>Cl<sub>2</sub>N<sub>4</sub>O",
        "Molecular Mass": "489.40",
        "Melting Point": "234 °C"
    }
}