{
    "cas_no": "82353-56-8",
    "key_name": "1,1-Dimethylethyl <em>N</em>-[(1<em>R</em>)-1-methyl-2-oxoethyl]carbamate",
    "cn_name": null,
    "alternate_name": "Carbamic acid, <em>N</em>-[(1<em>R</em>)-1-methyl-2-oxoethyl]-, 1,1-dimethylethyl ester;Carbamic acid, (1-methyl-2-oxoethyl)-, 1,1-dimethylethyl ester, (<em>R</em>)-;Carbamic acid, [(1<em>R</em>)-1-methyl-2-oxoethyl]-, 1,1-dimethylethyl ester;1,1-Dimethylethyl <em>N</em>-[(1<em>R</em>)-1-methyl-2-oxoethyl]carbamate;<em>N</em>-<em>tert</em>-Butoxycarbonyl-<span class=\"text-smallcaps\">D</span>-alaninal;(<em>R</em>)-2-(<em>tert</em>-Butoxycarbonylamino)propanal;((R)-1-Methyl-2-oxo-ethyl)carbamic acid <em>tert</em>-butyl ester;((<em>R</em>)-1-Methyl-2-oxoethyl)carbamic acid tert-butyl ester;(<em>R</em>)-2-(<em>tert</em>-Butoxycarbonylamino)propionaldehyde;<em>tert</em>-Butyl ((<em>R</em>)-1-oxopropan-2-yl)carbamate;(R)-(1-Methyl-2-oxo-ethyl)-carbamic acid tert-butyl ester;(R)-<em>tert</em>-Butyl (1-oxopropan-2-yl)carbamate;<em>tert</em>-Butyl <em>N</em>-[(1R)-1-methyl-2-oxo-ethyl]carbamate",
    "duplicated_cas_no": "",
    "SMILES": "O(C(C)(C)C)C(N[C@@H](C=O)C)=O",
    "meta_data": {
        "InChI": "InChI=1S/C8H15NO3/c1-6(5-10)9-7(11)12-8(2,3)4/h5-6H,1-4H3,(H,9,11)/t6-/m1/s1",
        "InChIKey": null,
        "Canonical SMILES": "O=CC(NC(=O)OC(C)(C)C)C",
        "Molecular Formula": "C<sub>8</sub>H<sub>15</sub>NO<sub>3</sub>",
        "Molecular Mass": "173.21",
        "Melting Point": "88 °C"
    }
}