{
    "cas_no": "106-60-5",
    "key_name": "5-Aminolevulinic acid",
    "cn_name": "5-氨基乙酰丙酸;5-氨基酮戊酸;",
    "alternate_name": "Pentanoic acid, 5-amino-4-oxo-;Levulinic acid, 5-amino-;5-Amino-4-oxopentanoic acid;δ-Aminolevulinic acid;5-Aminolevulinic acid;Aminolevulinic acid;Aladerm;Kerastick;Alasens;Levulan;5-ALA;Pentakeep S;Pentakeep V;BF 200ALA;Levulan (anticancer drug);MeSH ID: D000622;Sonala 001",
    "duplicated_cas_no": "1354778-41-8",
    "SMILES": "C(CCC(O)=O)(CN)=O",
    "meta_data": {
        "InChI": "InChI=1S/C5H9NO3/c6-3-4(7)1-2-5(8)9/h1-3,6H2,(H,8,9)",
        "InChIKey": null,
        "Canonical SMILES": "O=C(O)CCC(=O)CN",
        "Molecular Formula": "C<sub>5</sub>H<sub>9</sub>NO<sub>3</sub>",
        "Molecular Mass": "131.13",
        "Melting Point": "118-119 °C"
    }
}