{
    "cas_no": "1068-69-5",
    "key_name": "1,1′,1′′-Methylidynetris[1,1,1-trimethylsilane]",
    "cn_name": "三(三甲基硅烷基)甲烷;三（三甲代甲硅烷基）甲烷;",
    "alternate_name": "Silane, 1,1′,1′′-methylidynetris[1,1,1-trimethyl-;2,4-Disilapentane, 2,2,4,4-tetramethyl-3-(trimethylsilyl)-;Silane, methylidynetris[trimethyl-;1,1′,1′′-Methylidynetris[1,1,1-trimethylsilane];Tris(trimethylsilyl)methane;Methylidynetris[trimethylsilane];[Bis(trimethylsilyl)methyl]trimethylsilane",
    "duplicated_cas_no": "",
    "SMILES": "C([Si](C)(C)C)([Si](C)(C)C)[Si](C)(C)C",
    "meta_data": {
        "InChI": "InChI=1S/C10H28Si3/c1-11(2,3)10(12(4,5)6)13(7,8)9/h10H,1-9H3",
        "InChIKey": null,
        "Canonical SMILES": "C[Si](C)(C)C([Si](C)(C)C)[Si](C)(C)C",
        "Molecular Formula": "C<sub>10</sub>H<sub>28</sub>Si<sub>3</sub>",
        "Molecular Mass": "232.59",
        "Boiling Point": "80 °C @ Press: 2 Torr",
        "Density": "0.827 g/cm³"
    }
}