{
    "cas_no": "21889-05-4",
    "key_name": "2-(4-Aminophenyl)indole",
    "cn_name": null,
    "alternate_name": "Benzenamine, 4-(1<em>H</em>-indol-2-yl)-;Indole, 2-(<em>p</em>-aminophenyl)-;4-(1<em>H</em>-Indol-2-yl)benzenamine;2-(4-Aminophenyl)indole;2-(<em>p</em>-Aminophenyl)indole;NSC 119095",
    "duplicated_cas_no": "",
    "SMILES": "NC1=CC=C(C2=CC=3C(N2)=CC=CC3)C=C1",
    "meta_data": {
        "InChI": "InChI=1S/C14H12N2/c15-12-7-5-10(6-8-12)14-9-11-3-1-2-4-13(11)16-14/h1-9,16H,15H2",
        "InChIKey": null,
        "Canonical SMILES": "NC=1C=CC(=CC1)C2=CC=3C=CC=CC3N2",
        "Molecular Formula": "C<sub>14</sub>H<sub>12</sub>N<sub>2</sub>",
        "Molecular Mass": "208.26",
        "Melting Point": "201-202 °C"
    }
}