{
    "cas_no": "459856-18-9",
    "key_name": "Pexacerfont",
    "cn_name": null,
    "alternate_name": "Pyrazolo[1,5-<em>a</em>]-1,3,5-triazin-4-amine, 8-(6-methoxy-2-methyl-3-pyridinyl)-2,7-dimethyl-<em>N</em>-[(1<em>R</em>)-1-methylpropyl]-;8-(6-Methoxy-2-methyl-3-pyridinyl)-2,7-dimethyl-<em>N</em>-[(1<em>R</em>)-1-methylpropyl]pyrazolo[1,5-<em>a</em>]-1,3,5-triazin-4-amine;Pexacerfont;BMS 562086",
    "duplicated_cas_no": "",
    "SMILES": "CC=1C(=C2N(C(N[C@@H](CC)C)=NC(C)=N2)N1)C3=C(C)N=C(OC)C=C3",
    "meta_data": {
        "InChI": "InChI=1S/C18H24N6O/c1-7-10(2)19-18-22-13(5)21-17-16(12(4)23-24(17)18)14-8-9-15(25-6)20-11(14)3/h8-10H,7H2,1-6H3,(H,19,21,22)/t10-/m1/s1",
        "InChIKey": null,
        "Canonical SMILES": "N=1C(=NC2=C(C(=NN2C1NC(C)CC)C)C=3C=CC(=NC3C)OC)C",
        "Molecular Formula": "C<sub>18</sub>H<sub>24</sub>N<sub>6</sub>O",
        "Molecular Mass": "340.42",
        "Melting Point": "118.3 °C"
    }
}