{
    "cas_no": "1127-01-1",
    "key_name": "Cyclohexanecarboxylic acid, 1-hydroxy-, ethyl ester",
    "cn_name": null,
    "alternate_name": "Cyclohexanecarboxylic acid, 1-hydroxy-, ethyl ester;Ethyl 1-hydroxycyclohexanecarboxylate;1-Hydroxycyclohexanecarboxylic acid ethyl ester;NSC 7384",
    "duplicated_cas_no": "",
    "SMILES": "C(OCC)(=O)C1(O)CCCCC1",
    "meta_data": {
        "InChI": "InChI=1S/C9H16O3/c1-2-12-8(10)9(11)6-4-3-5-7-9/h11H,2-7H2,1H3",
        "InChIKey": null,
        "Canonical SMILES": "O=C(OCC)C1(O)CCCCC1",
        "Molecular Formula": "C<sub>9</sub>H<sub>16</sub>O<sub>3</sub>",
        "Molecular Mass": "172.22",
        "Boiling Point": "75 °C @ Press: 5 Torr"
    }
}