{
    "cas_no": "1408282-26-7",
    "key_name": "8-Fluoro-1,3,4,5-tetrahydro-6<em>H</em>-pyrrolo[4,3,2-<em>ef</em>][2]benzazepin-6-one",
    "cn_name": null,
    "alternate_name": "6<em>H</em>-Pyrrolo[4,3,2-<em>ef</em>][2]benzazepin-6-one, 8-fluoro-1,3,4,5-tetrahydro-;8-Fluoro-1,3,4,5-tetrahydro-6<em>H</em>-pyrrolo[4,3,2-<em>ef</em>][2]benzazepin-6-one",
    "duplicated_cas_no": "",
    "SMILES": "O=C1C2=C3C(=CC(F)=C2)NC=C3CCN1",
    "meta_data": {
        "InChI": "InChI=1S/C11H9FN2O/c12-7-3-8-10-6(1-2-13-11(8)15)5-14-9(10)4-7/h3-5,14H,1-2H2,(H,13,15)",
        "InChIKey": null,
        "Canonical SMILES": "O=C1NCCC2=CNC3=CC(F)=CC1=C32",
        "Molecular Formula": "C<sub>11</sub>H<sub>9</sub>FN<sub>2</sub>O",
        "Molecular Mass": "204.20",
        "Melting Point": "187 °C"
    }
}