{
    "cas_no": "6519-27-3",
    "key_name": "Isositsirikine",
    "cn_name": null,
    "alternate_name": "Indolo[2,3-<em>a</em>]quinolizine-2-acetic acid, 3-ethylidene-1,2,3,4,6,7,12,12b-octahydro-α-(hydroxymethyl)-, methyl ester, (α<em>R</em>,2<em>R</em>,3<em>E</em>,12b<em>S</em>)-;17,18-Secoyohimban-16-carboxylic acid, 19,20-didehydro-17-hydroxy-, methyl ester, (16<em>R</em>,19<em>E</em>)-;Isositsirikine;Corynan-16-carboxylic acid, 19,20-didehydro-17-hydroxy-, methyl ester, (16<em>R</em>,19<em>E</em>)-;16<em>R</em>-Isositsirikine;(16<em>R</em>)-<em>E</em>-Isositsirikine;Indolo[2,3-<em>a</em>]quinolizine-2-acetic acid, 3-ethylidene-1,2,3,4,6,7,12,12b-octahydro-α-(hydroxymethyl)-, methyl ester, [2<em>R</em>-[2α(<em>R</em>*),3<em>E</em>,12bβ]]-;Bhimberine;Rhazimanine;16(<em>R</em>)-<em>E</em>-Isositsirikine;NSC 282700;NSC 338932;16<em>R</em>,19<em>E</em>-Isositsirikine",
    "duplicated_cas_no": "",
    "SMILES": "[C@H](C(OC)=O)(CO)[C@]/1(C[C@]2(C3=C(C=4C(N3)=CC=CC4)CCN2C\\C1=C\\C)[H])[H]",
    "meta_data": {
        "InChI": "InChI=1S/C21H26N2O3/c1-3-13-11-23-9-8-15-14-6-4-5-7-18(14)22-20(15)19(23)10-16(13)17(12-24)21(25)26-2/h3-7,16-17,19,22,24H,8-12H2,1-2H3/b13-3-/t16-,17-,19-/m0/s1",
        "InChIKey": null,
        "Canonical SMILES": "O=C(OC)C(CO)C1C(=CC)CN2CCC=3C=4C=CC=CC4NC3C2C1",
        "Molecular Formula": "C<sub>21</sub>H<sub>26</sub>N<sub>2</sub>O<sub>3</sub>",
        "Molecular Mass": "354.44",
        "Melting Point": "263.5 °C"
    }
}