{
    "cas_no": "141-84-4",
    "key_name": "Rhodanine",
    "cn_name": "罗丹宁;绕丹宁;银试剂;2-硫代-4-噻唑烷酮;2-硫代-2,4-噻唑烷二酮;",
    "alternate_name": "4-Thiazolidinone, 2-thioxo-;Rhodanine;2-Thioxo-4-thiazolidinone;4-Oxo-2-thionothiazolidine;2-Thio-4-ketothiazolidine;Rhodaninic acid;4-Thiazolidinone-2-thione;4-Oxo-1,3-thiazolidine-2-thione;4-Oxo-2-thioxothiazolidine;4-Oxo-2-thiazolidinethione;NSC 1899;2-Thioxo-1,3-thiazolidin-4-one;2-Thio-4-thiazolinone;2-Mercaptothiazol-4(5<em>H</em>)-one;AMT-ZP;2-Sulfanylidene-1,3-thiazolidin-4-one;MeSH ID: D012236",
    "duplicated_cas_no": "",
    "SMILES": "O=C1NC(=S)SC1",
    "meta_data": {
        "InChI": "InChI=1S/C3H3NOS2/c5-2-1-7-3(6)4-2/h1H2,(H,4,5,6)",
        "InChIKey": null,
        "Canonical SMILES": "O=C1NC(=S)SC1",
        "Molecular Formula": "C<sub>3</sub>H<sub>3</sub>NOS<sub>2</sub>",
        "Molecular Mass": "133.19",
        "Melting Point": "170 °C",
        "Density": "0.868 g/cm³"
    }
}