{
    "cas_no": "52286-74-5",
    "key_name": "Ginsenoside Rg<sub>2</sub>",
    "cn_name": "人参皂苷Rg2;",
    "alternate_name": "β-<span class=\"text-smallcaps\">D</smallcap>-Glucopyranoside, (3β,6α,12β)-3,12,20-trihydroxydammar-24-en-6-yl 2-<em>O</em>-(6-deoxy-α-<smallcap>L</span>-mannopyranosyl)-;Dammarane, β-<span class=\"text-smallcaps\">D</span>-glucopyranoside deriv.;(3β,6α,12β)-3,12,20-Trihydroxydammar-24-en-6-yl 2-<em>O</em>-(6-deoxy-α-<span class=\"text-smallcaps\">L</smallcap>-mannopyranosyl)-β-<smallcap>D</span>-glucopyranoside;Ginsenoside Rg<sub>2</sub>;Chikusetsusaponin I;Prosapogenin C<sub>2</sub>;Panaxoside Rg<sub>2</sub>;GF VI;20(<em>S</em>)-Ginsenoside Rg<sub>2</sub>;Ginsenoside 20-Rg2;<em>S</em>-Ginsenoside Rg<sub>2</sub>;Ginsenoside Rg2s;Rg<sub>2</sub> ginsenoside;Rg2 ginsenoside",
    "duplicated_cas_no": "12770-18-2;2416257-85-5",
    "SMILES": "C[C@]12[C@@]3(C)[C@@]([C@@]([C@@](CCC=C(C)C)(C)O)(CC3)[H])([C@H](O)C[C@@]1([C@]4(C)[C@@]([C@@H](O[C@H]5[C@H](O[C@H]6[C@H](O)[C@H](O)[C@@H](O)[C@H](C)O6)[C@@H](O)[C@H](O)[C@@H](CO)O5)C2)(C(C)(C)[C@@H](O)CC4)[H])[H])[H]",
    "meta_data": {
        "InChI": "InChI=1S/C42H72O13/c1-20(2)11-10-14-42(9,51)22-12-16-40(7)28(22)23(44)17-26-39(6)15-13-27(45)38(4,5)35(39)24(18-41(26,40)8)53-37-34(32(49)30(47)25(19-43)54-37)55-36-33(50)31(48)29(46)21(3)52-36/h11,21-37,43-51H,10,12-19H2,1-9H3/t21-,22-,23+,24-,25+,26+,27-,28-,29-,30+,31+,32-,33+,34+,35-,36-,37+,39+,40+,41+,42-/m0/s1",
        "InChIKey": null,
        "Canonical SMILES": "OCC1OC(OC2CC3(C)C(CC(O)C4C(CCC43C)C(O)(C)CCC=C(C)C)C5(C)CCC(O)C(C)(C)C25)C(OC6OC(C)C(O)C(O)C6O)C(O)C1O",
        "Molecular Formula": "C<sub>42</sub>H<sub>72</sub>O<sub>13</sub>",
        "Molecular Mass": "785.01",
        "Melting Point": "187-189 °C"
    }
}