{
    "cas_no": "69-72-7",
    "key_name": "Salicylic acid",
    "cn_name": "水杨酸;柳酸;邻羟基苯甲酸;",
    "alternate_name": "Benzoic acid, 2-hydroxy-;Salicylic acid;2-Hydroxybenzoic acid;<em>o</em>-Hydroxybenzoic acid;Retarder W;Salicylic acid collodion;Rutranex;Salonil;Psoriacid-S-Stift;Phenol-2-carboxylic acid;2-Hydroxybenzenecarboxylic acid;2-Carboxyphenol;<em>o</em>-Carboxyphenol;Duoplant;Salicylic Acid Soap;337;Advanced Pain Relief Callus Removers;380;Dr. Scholl's Callus Removers;311;51;334;Stri-Dex;Compound W;Freezone;Clear away Wart Remover;171;Duofil Wart Remover;Saligel;Advanced Pain Relief Corn Removers;Dr. Scholl's Wart Remover Kit;Ionil Plus;K 557;Ionil;K 537;Dr. Scholl's Corn Removers;NSC 180;Trans-Ver-Sal;Salvona Nanosal;Verrugon;salicylic acid;MeSH ID: D020156;FM 110602;BioGenic SA 200;SalSphere Skin Smoothing;CycloPeel",
    "duplicated_cas_no": "7681-06-3;8052-31-1;1186130-36-8",
    "SMILES": "C(O)(=O)C1=C(O)C=CC=C1",
    "meta_data": {
        "InChI": "InChI=1S/C7H6O3/c8-6-4-2-1-3-5(6)7(9)10/h1-4,8H,(H,9,10)",
        "InChIKey": null,
        "Canonical SMILES": "O=C(O)C=1C=CC=CC1O",
        "Molecular Formula": "C<sub>7</sub>H<sub>6</sub>O<sub>3</sub>",
        "Molecular Mass": "138.12",
        "Boiling Point": "~211 °C (approx) @ Press: 20 Torr",
        "Melting Point": "157-159 °C",
        "Density": "1.443 g/cm³ @ Temp: 20 °C"
    }
}