{
    "cas_no": "69-57-8",
    "key_name": "Penicillin G sodium",
    "cn_name": "青霉素钠;青霉素G钠;(2S,5R,6R)-3,3-二甲基-6-(2-苯乙酰氨基)-7-氧代-4-硫杂-1-氮杂双环[3.2.0]庚烷-2-甲酸;",
    "alternate_name": "4-Thia-1-azabicyclo[3.2.0]heptane-2-carboxylic acid, 3,3-dimethyl-7-oxo-6-[(2-phenylacetyl)amino]- (2<em>S</em>,5<em>R</em>,6<em>R</em>)-, sodium salt (1:1);4-Thia-1-azabicyclo[3.2.0]heptane-2-carboxylic acid, 3,3-dimethyl-7-oxo-6-(2-phenylacetamido)-, monosodium salt;4-Thia-1-azabicyclo[3.2.0]heptane-2-carboxylic acid, 3,3-dimethyl-7-oxo-6-[(phenylacetyl)amino]-[2<em>S</em>-(2α,5α,6β)]-, monosodium salt;4-Thia-1-azabicyclo[3.2.0]heptane-2-carboxylic acid, 3,3-dimethyl-7-oxo-6-[(phenylacetyl)amino]- (2<em>S</em>,5<em>R</em>,6<em>R</em>)-, monosodium salt;Benzylpenicillinic acid sodium salt;Benzylpenicillin sodium;Benzylpenicillin sodium salt;Novocillin;Penicillin G sodium;Penilaryn;Sodium benzylpenicillin;Sodium benzylpenicillinate;Sodium penicillin G;Sodium penicillin II;Veticillin;Penicillin G sodium salt;Sodium benzylpenicillin G;Pen-A-Brasive;Sodium penicillin;Sodium 6-(phenylacetamido)penicillanate;Mycofarm;Crystapen;Monosodium benzylpenicillin;Monocillin;American penicillin;Nalpen G;Nobak;Ethacillin",
    "duplicated_cas_no": "1406-09-3;8049-60-3;878003-24-8",
    "SMILES": "C(O)(=O)[C@@H]1N2[C@@]([C@H](NC(CC3=CC=CC=C3)=O)C2=O)(SC1(C)C)[H].[Na]",
    "meta_data": {
        "InChI": "InChI=1S/C16H18N2O4S.Na/c1-16(2)12(15(21)22)18-13(20)11(14(18)23-16)17-10(19)8-9-6-4-3-5-7-9;/h3-7,11-12,14H,8H2,1-2H3,(H,17,19)(H,21,22);/t11-,12+,14-;/m1./s1",
        "InChIKey": null,
        "Canonical SMILES": "[Na].O=C(O)C1N2C(=O)C(NC(=O)CC=3C=CC=CC3)C2SC1(C)C",
        "Molecular Formula": "C<sub>16</sub>H<sub>18</sub>N<sub>2</sub>O<sub>4</sub>S.Na",
        "Molecular Mass": "",
        "Melting Point": "222 °C (decomp)"
    }
}