{
    "cas_no": "125-84-8",
    "key_name": "Aminoglutethimide",
    "cn_name": "氨鲁米特;3-乙基-3-(4-氨基苯基)-2,6-哌啶二酮;",
    "alternate_name": "2,6-Piperidinedione, 3-(4-aminophenyl)-3-ethyl-;Glutarimide, 2-(<em>p</em>-aminophenyl)-2-ethyl-;3-(4-Aminophenyl)-3-ethyl-2,6-piperidinedione;Aminoglutethimide;α-(<em>p</em>-Aminophenyl)-α-ethylglutarimide;2-(<em>p</em>-Aminophenyl)-2-ethylglutarimide;Elipten;<em>p</em>-Aminoglutethimide;Ba-16038;<span class=\"text-smallcaps\">DL</span>-Aminoglutethimide;<em>dl</em>-Aminoglutethimide;(±)-Aminoglutethimide;(<em>RS</em>)-Aminoglutethimide;Cytadren;NSC 330915;Orimeten;3-(4-Aminophenyl)-3-ethylpiperidine-2,6-dione;MeSH ID: D000616",
    "duplicated_cas_no": "55511-45-0;134166-70-4;1563151-06-3",
    "SMILES": "C(C)C1(C(=O)NC(=O)CC1)C2=CC=C(N)C=C2",
    "meta_data": {
        "InChI": "InChI=1S/C13H16N2O2/c1-2-13(8-7-11(16)15-12(13)17)9-3-5-10(14)6-4-9/h3-6H,2,7-8,14H2,1H3,(H,15,16,17)",
        "InChIKey": null,
        "Canonical SMILES": "O=C1NC(=O)C(C2=CC=C(N)C=C2)(CC)CC1",
        "Molecular Formula": "C<sub>13</sub>H<sub>16</sub>N<sub>2</sub>O<sub>2</sub>",
        "Molecular Mass": "232.28",
        "Melting Point": "149.5 °C"
    }
}