{
    "cas_no": "698-90-8",
    "key_name": "Cyclohexylurea",
    "cn_name": "N-环己基脲;",
    "alternate_name": "Urea, <em>N</em>-cyclohexyl-;Urea, cyclohexyl-;<em>N</em>-Cyclohexylurea;Cyclohexylurea;1-Cyclohexylurea;Monocyclohexyl urea;NSC 23790;NSC 27454",
    "duplicated_cas_no": "",
    "SMILES": "N(C(N)=O)C1CCCCC1",
    "meta_data": {
        "InChI": "InChI=1S/C7H14N2O/c8-7(10)9-6-4-2-1-3-5-6/h6H,1-5H2,(H3,8,9,10)",
        "InChIKey": null,
        "Canonical SMILES": "O=C(N)NC1CCCCC1",
        "Molecular Formula": "C<sub>7</sub>H<sub>14</sub>N<sub>2</sub>O",
        "Molecular Mass": "142.20",
        "Melting Point": "184 °C"
    }
}