{
    "cas_no": "81147-92-4",
    "key_name": "Esmolol",
    "cn_name": "艾司洛尔;4-{[3-[(1-甲基乙基)氨基]-2-羟基]丙氧基}苯丙酸甲酯;",
    "alternate_name": "Benzenepropanoic acid, 4-[2-hydroxy-3-[(1-methylethyl)amino]propoxy]-, methyl ester;Esmolol;ASL 8052-001;(±)-Esmolol;3-(4-(2-Hydroxy-3-(isopropylamino)propoxy)phenyl)propionic acid methyl ester",
    "duplicated_cas_no": "103598-03-4;84057-94-3",
    "SMILES": "O(CC(CNC(C)C)O)C1=CC=C(CCC(OC)=O)C=C1",
    "meta_data": {
        "InChI": "InChI=1S/C16H25NO4/c1-12(2)17-10-14(18)11-21-15-7-4-13(5-8-15)6-9-16(19)20-3/h4-5,7-8,12,14,17-18H,6,9-11H2,1-3H3",
        "InChIKey": null,
        "Canonical SMILES": "O=C(OC)CCC1=CC=C(OCC(O)CNC(C)C)C=C1",
        "Molecular Formula": "C<sub>16</sub>H<sub>25</sub>NO<sub>4</sub>",
        "Molecular Mass": "295.37",
        "Melting Point": "48-50 °C"
    }
}