{
    "cas_no": "28657-75-2",
    "key_name": "1-(6-Amino-1,3-benzodioxol-5-yl)ethanone",
    "cn_name": "6-氨基-3,4-亚甲二氧基苯乙酮;2-氨基-4,5-亚甲二氧基苯乙酮;",
    "alternate_name": "Ethanone, 1-(6-amino-1,3-benzodioxol-5-yl)-;Acetophenone, 2′-amino-4′,5′-(methylenedioxy)-;1-(6-Amino-1,3-benzodioxol-5-yl)ethanone;4,5-(Methylenedioxy)-2-aminoacetophenone;2-Amino-4,5-(methylenedioxy)acetophenone;2′-Amino-4′,5′-methylenedioxyacetophenone;6-Amino-3,4-methylenedioxyacetophenone;5-Acetyl-6-amino-1,3-benzodioxolane;1-(6-Amino-1,3-dioxaindan-5-yl)ethan-1-one;1-(6-Amino-2<em>H</em>-1,3-benzodioxol-5-yl)ethan-1-one;1-(6-Aminobenzo[<em>d</em>][1,3]dioxol-5-yl)ethanone;5-Acetyl-6-amino-1,3-benzodioxole",
    "duplicated_cas_no": "",
    "SMILES": "C(C)(=O)C=1C=C2C(=CC1N)OCO2",
    "meta_data": {
        "InChI": "InChI=1S/C9H9NO3/c1-5(11)6-2-8-9(3-7(6)10)13-4-12-8/h2-3H,4,10H2,1H3",
        "InChIKey": null,
        "Canonical SMILES": "O=C(C1=CC=2OCOC2C=C1N)C",
        "Molecular Formula": "C<sub>9</sub>H<sub>9</sub>NO<sub>3</sub>",
        "Molecular Mass": "179.17",
        "Melting Point": "170-171 °C"
    }
}