{
    "cas_no": "3148-73-0",
    "key_name": "Acetic acid, 2-acetylhydrazide",
    "cn_name": "N,N\"-二乙酰基肼;1,2-二乙酰基肼;",
    "alternate_name": "Acetic acid, 2-acetylhydrazide;Hydrazine, 1,2-diacetyl-;1,2-Diacetylhydrazine;<em>N</em>,<em>N</em>′-Diacetylhydrazine;NSC 42939",
    "duplicated_cas_no": "",
    "SMILES": "N(NC(C)=O)C(C)=O",
    "meta_data": {
        "InChI": "InChI=1S/C4H8N2O2/c1-3(7)5-6-4(2)8/h1-2H3,(H,5,7)(H,6,8)",
        "InChIKey": null,
        "Canonical SMILES": "O=C(NNC(=O)C)C",
        "Molecular Formula": "C<sub>4</sub>H<sub>8</sub>N<sub>2</sub>O<sub>2</sub>",
        "Molecular Mass": "116.12",
        "Melting Point": "138-139 °C"
    }
}