{
    "cas_no": "571170-77-9",
    "key_name": "Laropiprant",
    "cn_name": null,
    "alternate_name": "Cyclopent[<em>b</em>]indole-3-acetic acid, 4-[(4-chlorophenyl)methyl]-7-fluoro-1,2,3,4-tetrahydro-5-(methylsulfonyl)-, (3<em>R</em>)-;(3<em>R</em>)-4-[(4-Chlorophenyl)methyl]-7-fluoro-1,2,3,4-tetrahydro-5-(methylsulfonyl)cyclopent[<em>b</em>]indole-3-acetic acid;MK 0524;Laropiprant;Cardaptive;(R)-2-(4-(4-Chlorobenzyl)-7-fluoro-5-(methylsulfonyl)-1,2,3,4-tetrahydrocyclopenta[<em>b</em>]indol-3-yl)acetic acid",
    "duplicated_cas_no": "895565-43-2",
    "SMILES": "C(N1C=2C(C3=C1[C@@H](CC(O)=O)CC3)=CC(F)=CC2S(C)(=O)=O)C4=CC=C(Cl)C=C4",
    "meta_data": {
        "InChI": "InChI=1S/C21H19ClFNO4S/c1-29(27,28)18-10-15(23)9-17-16-7-4-13(8-19(25)26)20(16)24(21(17)18)11-12-2-5-14(22)6-3-12/h2-3,5-6,9-10,13H,4,7-8,11H2,1H3,(H,25,26)/t13-/m1/s1",
        "InChIKey": null,
        "Canonical SMILES": "O=C(O)CC1C2=C(C=3C=C(F)C=C(C3N2CC4=CC=C(Cl)C=C4)S(=O)(=O)C)CC1",
        "Molecular Formula": "C<sub>21</sub>H<sub>19</sub>ClFNO<sub>4</sub>S",
        "Molecular Mass": "435.90",
        "Melting Point": "175 °C"
    }
}