{
    "cas_no": "1520-31-6",
    "key_name": "Sulfoximine, <em>S</em>,<em>S</em>-dimethyl-",
    "cn_name": null,
    "alternate_name": "Sulfoximine, <em>S</em>,<em>S</em>-dimethyl-;<em>S</em>,<em>S</em>-Dimethylsulfoximide;<em>S</em>,<em>S</em>-Dimethylsulfoximine;Dimethyl sulfoximide;Dimethylsulfoximine;Iminodimethylsulfanone;(Dimethylsulfinylidene)amine;(Methylsulfonimidoyl)methane",
    "duplicated_cas_no": "44048-06-8;54613-94-4;194477-52-6",
    "SMILES": "S(C)(C)(=N)=O",
    "meta_data": {
        "InChI": "InChI=1S/C2H7NOS/c1-5(2,3)4/h3H,1-2H3",
        "InChIKey": null,
        "Canonical SMILES": "O=S(=N)(C)C",
        "Molecular Formula": "C<sub>2</sub>H<sub>7</sub>NOS",
        "Molecular Mass": "93.15",
        "Melting Point": "56 °C"
    }
}