{
    "cas_no": "6315-52-2",
    "key_name": "Ethylene glycol ditosylate",
    "cn_name": "1,2-双甲苯氧基乙烷;1,2-双(甲苯磺酰氧基)乙烷;",
    "alternate_name": "1,2-Ethanediol, 1,2-bis(4-methylbenzenesulfonate);Ethylene glycol, di-<em>p</em>-toluenesulfonate;1,2-Ethanediol, bis(4-methylbenzenesulfonate);Di-<em>O</em>-tosylglycol;Ethylene di-<em>p</em>-toluenesulfonate;Ethylene glycol ditosylate;Ethylene glycol ditoluenesulfonate;1,2-Ethylene ditosylate;Ethylene glycol bis(<em>p</em>-toluenesulfonate);1,2-Bis(<em>p</em>-tolylsulfonyloxy)ethane;Ethylene glycol di-<em>p</em>-tosylate;1,2-Bistosyloxy ethane;1,2-Di(tosyloxy)ethane;1,2-Bis(<em>p</em>-toluenesulfonyloxy)ethane;1,2-Ethanediol ditosylate;Ethylene 1,2-bis(tosylate);1,2-Bis(4-methylbenzenesulfonyloxy)ethane;NSC 21094;1,2-Di(<em>p</em>-tosyloxy)ethane;Ethylene glycol 1,2-ditosylate;Ethane-1,2-diyl bis(4-methylbenzenesulfonate);2-(4-Methylphenyl)sulfonyloxyethyl 4-methylbenzenesulfonate",
    "duplicated_cas_no": "300768-79-0;417699-66-2",
    "SMILES": "S(OCCOS(=O)(=O)C1=CC=C(C)C=C1)(=O)(=O)C2=CC=C(C)C=C2",
    "meta_data": {
        "InChI": "InChI=1S/C16H18O6S2/c1-13-3-7-15(8-4-13)23(17,18)21-11-12-22-24(19,20)16-9-5-14(2)6-10-16/h3-10H,11-12H2,1-2H3",
        "InChIKey": null,
        "Canonical SMILES": "O=S(=O)(OCCOS(=O)(=O)C1=CC=C(C=C1)C)C2=CC=C(C=C2)C",
        "Molecular Formula": "C<sub>16</sub>H<sub>18</sub>O<sub>6</sub>S<sub>2</sub>",
        "Molecular Mass": "370.44",
        "Melting Point": "120-121 °C"
    }
}