{
    "cas_no": "151319-34-5",
    "key_name": "Zaleplon",
    "cn_name": "扎雷普隆;扎莱普隆;N-乙基-N-3-[7-(3-氰基吡唑并[1,5a]嘧啶基)苯基]乙酰胺;",
    "alternate_name": "Acetamide, <em>N</em>-[3-(3-cyanopyrazolo[1,5-<em>a</em>]pyrimidin-7-yl)phenyl]-<em>N</em>-ethyl-;Pyrazolo[1,5-<em>a</em>]pyrimidine, acetamide deriv.;<em>N</em>-[3-(3-Cyanopyrazolo[1,5-<em>a</em>]pyrimidin-7-yl)phenyl]-<em>N</em>-ethylacetamide;CL 284846;Zaleplon;LJC 10846;L 846;Sonata;Siesta;Zerene",
    "duplicated_cas_no": "",
    "SMILES": "C(#N)C1=C2N(C(=CC=N2)C3=CC(N(C(C)=O)CC)=CC=C3)N=C1",
    "meta_data": {
        "InChI": "InChI=1S/C17H15N5O/c1-3-21(12(2)23)15-6-4-5-13(9-15)16-7-8-19-17-14(10-18)11-20-22(16)17/h4-9,11H,3H2,1-2H3",
        "InChIKey": null,
        "Canonical SMILES": "N#CC=1C=NN2C1N=CC=C2C=3C=CC=C(C3)N(C(=O)C)CC",
        "Molecular Formula": "C<sub>17</sub>H<sub>15</sub>N<sub>5</sub>O",
        "Molecular Mass": "305.33",
        "Melting Point": "184-186 °C"
    }
}