{
    "cas_no": "4298-08-2",
    "key_name": "<em>trans</em>-3-Hydroxy-<span class=\"text-smallcaps\">L</span>-proline",
    "cn_name": "反-3-羟基-L-脯氨酸;L-3-反-羟基脯氨酸;",
    "alternate_name": "<span class=\"text-smallcaps\">L</span>-Proline, 3-hydroxy-, (3<em>S</em>)-;Proline, 3-hydroxy-, <span class=\"text-smallcaps\">L</span>-<em>trans</em>-;<span class=\"text-smallcaps\">L</span>-Proline, 3-hydroxy-, <em>trans</em>-;(3<em>S</em>)-3-Hydroxy-<span class=\"text-smallcaps\">L</span>-proline;<em>trans</em>-3-Hydroxy-<span class=\"text-smallcaps\">L</span>-proline;<em>trans</em>-3-Hydroxyproline;(2<em>S</em>,3<em>S</em>)-(-)-3-Hydroxy-<span class=\"text-smallcaps\">L</span>-proline;(2<em>S</em>,3<em>S</em>)-3-Hydroxyproline;(3S)-3-Hydroxy-<span class=\"text-smallcaps\">L</span>-proline;(2<em>S</em>,3<em>S</em>)-3-Hydroxypyrrolidine-2-carboxylic acid",
    "duplicated_cas_no": "1855-79-4;19246-25-4;32860-44-9",
    "SMILES": "C(O)(=O)[C@@H]1[C@@H](O)CCN1",
    "meta_data": {
        "InChI": "InChI=1S/C5H9NO3/c7-3-1-2-6-4(3)5(8)9/h3-4,6-7H,1-2H2,(H,8,9)/t3-,4-/m0/s1",
        "InChIKey": null,
        "Canonical SMILES": "O=C(O)C1NCCC1O",
        "Molecular Formula": "C<sub>5</sub>H<sub>9</sub>NO<sub>3</sub>",
        "Molecular Mass": "131.13",
        "Melting Point": "228-236 °C"
    }
}