{
    "cas_no": "3566-61-8",
    "key_name": "2,2,3,3-Tetramethylsuccinimide",
    "cn_name": null,
    "alternate_name": "2,5-Pyrrolidinedione, 3,3,4,4-tetramethyl-;Succinimide, 2,2,3,3-tetramethyl-;3,3,4,4-Tetramethyl-2,5-pyrrolidinedione;PM 1090;2,2,3,3-Tetramethylsuccinimide;NSC 74524",
    "duplicated_cas_no": "",
    "SMILES": "CC1(C)C(C)(C)C(=O)NC1=O",
    "meta_data": {
        "InChI": "InChI=1S/C8H13NO2/c1-7(2)5(10)9-6(11)8(7,3)4/h1-4H3,(H,9,10,11)",
        "InChIKey": null,
        "Canonical SMILES": "O=C1NC(=O)C(C)(C)C1(C)C",
        "Molecular Formula": "C<sub>8</sub>H<sub>13</sub>NO<sub>2</sub>",
        "Molecular Mass": "155.19",
        "Melting Point": "190-193 °C"
    }
}