{
    "cas_no": "117570-53-3",
    "key_name": "5,6-Dimethylxanthenone-4-acetic acid",
    "cn_name": null,
    "alternate_name": "9<em>H</em>-Xanthene-4-acetic acid, 5,6-dimethyl-9-oxo-;5,6-Dimethyl-9-oxo-9<em>H</em>-xanthene-4-acetic acid;5,6-Dimethylxanthenone-4-acetic acid;NSC 640488;DMXAA;AS 1404;5,6-Dimethyl-9-oxo-9<em>H</em>-xanthen-4-ylacetic acid;Vadimezan;ASA 404;2-(5,6-Dimethyl-9-oxo-9<em>H</em>-xanthen-4-yl)acetic acid;D5817;2-(5,6-Dimethyl-9-oxoxanthen-4-yl)acetic acid",
    "duplicated_cas_no": "",
    "SMILES": "C(C(O)=O)C1=C2C(C(=O)C=3C(O2)=C(C)C(C)=CC3)=CC=C1",
    "meta_data": {
        "InChI": "InChI=1S/C17H14O4/c1-9-6-7-13-15(20)12-5-3-4-11(8-14(18)19)17(12)21-16(13)10(9)2/h3-7H,8H2,1-2H3,(H,18,19)",
        "InChIKey": null,
        "Canonical SMILES": "O=C(O)CC=1C=CC=C2C(=O)C3=CC=C(C(=C3OC21)C)C",
        "Molecular Formula": "C<sub>17</sub>H<sub>14</sub>O<sub>4</sub>",
        "Molecular Mass": "282.29",
        "Melting Point": "259-261 °C"
    }
}