{
    "cas_no": "137848-29-4",
    "key_name": "(-)-2′-Amino-1,1′-binaphthalen-2-ol",
    "cn_name": null,
    "alternate_name": "[1,1′-Binaphthalen]-2-ol, 2′-amino-, (1<em>S</em>)-;[1,1′-Binaphthalen]-2-ol, 2′-amino-, (<em>S</em>)-;(1<em>S</em>)-2′-Amino[1,1′-binaphthalen]-2-ol;(<em>S</em>)-NOBIN;(<em>S</em>)-2-Amino-2′-hydroxy-1,1′-binaphthyl;(<em>S</em>)-2′-Amino-1,1′-binaphthalen-2-ol;(-)-2′-Amino-1,1′-binaphthalen-2-ol",
    "duplicated_cas_no": "",
    "SMILES": "NC1=C(C2=C(C=C1)C=CC=C2)C=3C4=C(C=CC3O)C=CC=C4",
    "meta_data": {
        "InChI": "InChI=1S/C20H15NO/c21-17-11-9-13-5-1-3-7-15(13)19(17)20-16-8-4-2-6-14(16)10-12-18(20)22/h1-12,22H,21H2",
        "InChIKey": null,
        "Canonical SMILES": "OC=1C=CC=2C=CC=CC2C1C3=C(N)C=CC=4C=CC=CC43",
        "Molecular Formula": "C<sub>20</sub>H<sub>15</sub>NO",
        "Molecular Mass": "285.34",
        "Melting Point": "169-171 °C"
    }
}