{
    "cas_no": "66376-36-1",
    "key_name": "Alendronic acid",
    "cn_name": "阿仑膦酸;4-氨基-1-羟基丁亚基-1,1-二磷酸;",
    "alternate_name": "Phosphonic acid, <em>P</em>,<em>P</em>′-(4-amino-1-hydroxybutylidene)bis-;Phosphonic acid, (4-amino-1-hydroxybutylidene)bis-;<em>P</em>,<em>P</em>′-(4-Amino-1-hydroxybutylidene)bis[phosphonic acid];Alendronic acid;4-Amino-1-hydroxybutane-1,1-diphosphonic acid;4-Amino-1-hydroxybutane-1,1-diphosphonate;4-Amino-1-hydroxybutylidene-1,1-bis(phosphonic acid);4-Amino-1-hydroxybutane-1,1-diyldiphosphonic acid;ABDP;BPH 1;4-Amino-1-hydroxybutane-1,1-bisphosphonic acid;Marvil",
    "duplicated_cas_no": "",
    "SMILES": "C(P(=O)(O)O)(P(=O)(O)O)(CCCN)O",
    "meta_data": {
        "InChI": "InChI=1S/C4H13NO7P2/c5-3-1-2-4(6,13(7,8)9)14(10,11)12/h6H,1-3,5H2,(H2,7,8,9)(H2,10,11,12)",
        "InChIKey": null,
        "Canonical SMILES": "O=P(O)(O)C(O)(CCCN)P(=O)(O)O",
        "Molecular Formula": "C<sub>4</sub>H<sub>13</sub>NO<sub>7</sub>P<sub>2</sub>",
        "Molecular Mass": "249.10",
        "Melting Point": "234 °C (decomp)"
    }
}