{
    "cas_no": "613-92-3",
    "key_name": "Benzamidoxime",
    "cn_name": null,
    "alternate_name": "Benzenecarboximidamide, <em>N</em>-hydroxy-;Benzamidoxime;<em>N</em>-Hydroxybenzenecarboximidamide;Benzohydroxamamide;Benzamide oxime;<em>N</em>-Hydroxybenzamidine;Phenylhydroxamidine;<em>N</em>-Hydroxybenzimidamide;<em>N</em>′-Hydroxybenzenecarboximidamide;NSC 13999;<em>N</em>′-Hydroxybenzamidine;<em>N</em>′-Hydroxybenzimidamide;<em>N</em>′-Hydroxybenzene-1-carboximidamide",
    "duplicated_cas_no": "",
    "SMILES": "C(NO)(=N)C1=CC=CC=C1",
    "meta_data": {
        "InChI": "InChI=1S/C7H8N2O/c8-7(9-10)6-4-2-1-3-5-6/h1-5,10H,(H2,8,9)",
        "InChIKey": null,
        "Canonical SMILES": "N=C(NO)C=1C=CC=CC1",
        "Molecular Formula": "C<sub>7</sub>H<sub>8</sub>N<sub>2</sub>O",
        "Molecular Mass": "136.15",
        "Melting Point": "80 °C"
    }
}