{
    "cas_no": "130-03-0",
    "key_name": "Benzo[<em>b</em>]thiophen-3(2<em>H</em>)-one",
    "cn_name": null,
    "alternate_name": "Benzo[<em>b</em>]thiophen-3(2<em>H</em>)-one;Thioindoxyl;Thiaindoxyl;Benzo[<em>b</em>]thiophen-3-one;3-Oxo-2<em>H</em>-benzothiophene;Benzothiophen-3(2<em>H</em>)-one;1-Thiaindan-3-one;3-Oxo-2,3-dihydrobenzo[<em>b</em>]thiophene;Thia-3-coumaranone;2,3-Dihydrobenzothiophen-3-one;2,3-Dihydro-1-benzothiophen-3-one;1-Benzothiophen-3-one",
    "duplicated_cas_no": "",
    "SMILES": "O=C1C=2C(=CC=CC2)SC1",
    "meta_data": {
        "InChI": "InChI=1S/C8H6OS/c9-7-5-10-8-4-2-1-3-6(7)8/h1-4H,5H2",
        "InChIKey": null,
        "Canonical SMILES": "O=C1C=2C=CC=CC2SC1",
        "Molecular Formula": "C<sub>8</sub>H<sub>6</sub>OS",
        "Molecular Mass": "150.20",
        "Boiling Point": "129-130 °C @ Press: 3 Torr",
        "Melting Point": "63-64 °C"
    }
}