{
    "cas_no": "2155-60-4",
    "key_name": "Dibutyl itaconate",
    "cn_name": null,
    "alternate_name": "Butanedioic acid, 2-methylene-, 1,4-dibutyl ester;Succinic acid, methylene-, dibutyl ester;Butanedioic acid, methylene-, dibutyl ester;Itaconic acid, dibutyl ester;Dibutyl itaconate;Di(<em>n</em>-butyl) itaconate;NSC 5251;NSC 8487",
    "duplicated_cas_no": "",
    "SMILES": "C(C(OCCCC)=O)(CC(OCCCC)=O)=C",
    "meta_data": {
        "InChI": "InChI=1S/C13H22O4/c1-4-6-8-16-12(14)10-11(3)13(15)17-9-7-5-2/h3-10H2,1-2H3",
        "InChIKey": null,
        "Canonical SMILES": "O=C(OCCCC)C(=C)CC(=O)OCCCC",
        "Molecular Formula": "C<sub>13</sub>H<sub>22</sub>O<sub>4</sub>",
        "Molecular Mass": "242.31",
        "Boiling Point": "135-136 °C @ Press: 10 Torr",
        "Density": "0.9865 g/cm³ @ Temp: 20 °C"
    }
}