{
    "cas_no": "6850-39-1",
    "key_name": "3-Aminocyclohexanol",
    "cn_name": null,
    "alternate_name": "Cyclohexanol, 3-amino-;3-Aminocyclohexanol;(3-Hydroxycyclohexyl)amine;1-Amino-3-hydroxycyclohexane;3-Aminocyclohexan-1-ol",
    "duplicated_cas_no": "",
    "SMILES": "NC1CC(O)CCC1",
    "meta_data": {
        "InChI": "InChI=1S/C6H13NO/c7-5-2-1-3-6(8)4-5/h5-6,8H,1-4,7H2",
        "InChIKey": null,
        "Canonical SMILES": "OC1CCCC(N)C1",
        "Molecular Formula": "C<sub>6</sub>H<sub>13</sub>NO",
        "Molecular Mass": "115.17",
        "Boiling Point": "115 °C @ Press: 0.5 Torr"
    }
}