{
    "cas_no": "934-87-2",
    "key_name": "Ethanethioic acid, <em>S</em>-phenyl ester",
    "cn_name": "硫代乙酸苯酯;S-硫代乙酸苯酯;",
    "alternate_name": "Ethanethioic acid, <em>S</em>-phenyl ester;Acetic acid, thio-, <em>S</em>-phenyl ester;Benzenethiol, acetate;Phenyl thioacetate;Phenyl thiolacetate;Thiophenyl acetate;<em>S</em>-Phenyl thioacetate;<em>S</em>-Phenyl ethanethioate;1-(Phenylsulfanyl)ethan-1-one",
    "duplicated_cas_no": "",
    "SMILES": "S(C(C)=O)C1=CC=CC=C1",
    "meta_data": {
        "InChI": "InChI=1S/C8H8OS/c1-7(9)10-8-5-3-2-4-6-8/h2-6H,1H3",
        "InChIKey": null,
        "Canonical SMILES": "O=C(SC=1C=CC=CC1)C",
        "Molecular Formula": "C<sub>8</sub>H<sub>8</sub>OS",
        "Molecular Mass": "152.21",
        "Boiling Point": "110 °C @ Press: 13 Torr",
        "Melting Point": "18-19 °C"
    }
}