{
    "cas_no": "29548-30-9",
    "key_name": "Farnesyl acetate",
    "cn_name": null,
    "alternate_name": "2,6,10-Dodecatrien-1-ol, 3,7,11-trimethyl-, 1-acetate;2,6,10-Dodecatrien-1-ol, 3,7,11-trimethyl-, acetate;1-Acetoxy-3,7,11-trimethyl-2,6,10-dodecatriene;Farnesol acetate;3,7,11-Trimethyl-2,6,10-dodecatrienyl acetate;Farnesyl acetate;NSC 132958",
    "duplicated_cas_no": "",
    "SMILES": "C(=CCCC(=CCOC(C)=O)C)(CCC=C(C)C)C",
    "meta_data": {
        "InChI": "InChI=1S/C17H28O2/c1-14(2)8-6-9-15(3)10-7-11-16(4)12-13-19-17(5)18/h8,10,12H,6-7,9,11,13H2,1-5H3",
        "InChIKey": null,
        "Canonical SMILES": "O=C(OCC=C(C)CCC=C(C)CCC=C(C)C)C",
        "Molecular Formula": "C<sub>17</sub>H<sub>28</sub>O<sub>2</sub>",
        "Molecular Mass": "264.40",
        "Boiling Point": "105-107 °C @ Press: 2 Torr",
        "Melting Point": "63-64 °C (sublm)",
        "Density": "0.9247 g/cm³ @ Temp: 20 °C"
    }
}