{
    "cas_no": "1187-03-7",
    "key_name": "<em>N</em>,<em>N</em>,<em>N</em>′,<em>N</em>′-Tetraethylurea",
    "cn_name": "四乙基脲;1,1,3,3-四乙基脲;",
    "alternate_name": "Urea, <em>N</em>,<em>N</em>,<em>N</em>′,<em>N</em>′-tetraethyl-;Urea, tetraethyl-;Urea, 1,1,3,3-tetraethyl-;<em>N</em>,<em>N</em>,<em>N</em>′,<em>N</em>′-Tetraethylurea;Tetraethylurea;1,1,3,3-Tetraethylurea;Tetraethylcarbamide",
    "duplicated_cas_no": "",
    "SMILES": "C(N(CC)CC)(N(CC)CC)=O",
    "meta_data": {
        "InChI": "InChI=1S/C9H20N2O/c1-5-10(6-2)9(12)11(7-3)8-4/h5-8H2,1-4H3",
        "InChIKey": null,
        "Canonical SMILES": "O=C(N(CC)CC)N(CC)CC",
        "Molecular Formula": "C<sub>9</sub>H<sub>20</sub>N<sub>2</sub>O",
        "Molecular Mass": "172.27",
        "Boiling Point": "209 °C",
        "Density": "0.919 g/cm³ @ Temp: 20 °C"
    }
}