{
    "cas_no": "69806-40-2",
    "key_name": "Haloxyfop-methyl",
    "cn_name": "氟吡甲禾灵;甲基合氯氟;2-[4-(3-氯-5-三氟甲基-2-吡啶氧基)苯氧基]丙酸甲酯;",
    "alternate_name": "Propanoic acid, 2-[4-[[3-chloro-5-(trifluoromethyl)-2-pyridinyl]oxy]phenoxy]-, methyl ester;Dowco 453;Dowco 453ME;Haloxyfop-methyl;Verdict;Haloxyfop-Me;Haloxyfop methyl ester;Verdict R;Dowco 453 methyl ester",
    "duplicated_cas_no": "114180-25-5;86510-80-7",
    "SMILES": "O(C1=C(Cl)C=C(C(F)(F)F)C=N1)C2=CC=C(OC(C(OC)=O)C)C=C2",
    "meta_data": {
        "InChI": "InChI=1S/C16H13ClF3NO4/c1-9(15(22)23-2)24-11-3-5-12(6-4-11)25-14-13(17)7-10(8-21-14)16(18,19)20/h3-9H,1-2H3",
        "InChIKey": null,
        "Canonical SMILES": "O=C(OC)C(OC1=CC=C(OC2=NC=C(C=C2Cl)C(F)(F)F)C=C1)C",
        "Molecular Formula": "C<sub>16</sub>H<sub>13</sub>ClF<sub>3</sub>NO<sub>4</sub>",
        "Molecular Mass": "375.73",
        "Melting Point": "56 °C"
    }
}