{
    "cas_no": "2862-51-3",
    "key_name": "Cyclo(phenylalanylphenylalanine)",
    "cn_name": "CYCLO(-PHE-PHE);",
    "alternate_name": "2,5-Piperazinedione, 3,6-bis(phenylmethyl)-, (3<em>S</em>,6<em>S</em>)-;2,5-Piperazinedione, 3,6-dibenzyl-, (3<em>S</em>,6<em>S</em>)-;2,5-Piperazinedione, 3,6-bis(phenylmethyl)-, (3<em>S</em>-<em>cis</em>)-;Cyclo(<span class=\"text-smallcaps\">L</smallcap>-phenylalanyl-<smallcap>L</span>-phenylalanyl);(3<em>S</em>,6<em>S</em>)-3,6-Bis(phenylmethyl)-2,5-piperazinedione;Cyclo-<span class=\"text-smallcaps\">L</smallcap>-phenylalanyl-<smallcap>L</span>-phenylalanine;Cyclo(phenylalanylphenylalanine);Phenylalanylphenylalanyldiketopiperazine;(3<em>S</em>,6<em>S</em>)-3,6-Dibenzylpiperazine-2,5-dione;Cyclo-(<span class=\"text-smallcaps\">L</smallcap>-Phe-<smallcap>L</span>-Phe);(3S,6S)-3,6-Dibenzylpiperazin-2,5-dione",
    "duplicated_cas_no": "5254-61-5",
    "SMILES": "C([C@H]1C(=O)N[C@@H](CC2=CC=CC=C2)C(=O)N1)C3=CC=CC=C3",
    "meta_data": {
        "InChI": "InChI=1S/C18H18N2O2/c21-17-15(11-13-7-3-1-4-8-13)19-18(22)16(20-17)12-14-9-5-2-6-10-14/h1-10,15-16H,11-12H2,(H,19,22)(H,20,21)/t15-,16-/m0/s1",
        "InChIKey": null,
        "Canonical SMILES": "O=C1NC(C(=O)NC1CC=2C=CC=CC2)CC=3C=CC=CC3",
        "Molecular Formula": "C<sub>18</sub>H<sub>18</sub>N<sub>2</sub>O<sub>2</sub>",
        "Molecular Mass": "294.35",
        "Melting Point": "315-316 °C"
    }
}