{
    "cas_no": "84392-17-6",
    "key_name": "4′-(Trifluoromethyl)[1,1′-biphenyl]-2-carboxylic acid",
    "cn_name": "4\"-三氟甲基联苯-2-羧酸;",
    "alternate_name": "[1,1′-Biphenyl]-2-carboxylic acid, 4′-(trifluoromethyl)-;4′-(Trifluoromethyl)[1,1′-biphenyl]-2-carboxylic acid;4′-(Trifluoromethyl)-2-biphenylcarboxylic acid;Xenalipin;BW 207U;2-(4-Trifluoromethylphenyl)benzoic acid",
    "duplicated_cas_no": "252361-15-2",
    "SMILES": "C(O)(=O)C1=C(C=CC=C1)C2=CC=C(C(F)(F)F)C=C2",
    "meta_data": {
        "InChI": "InChI=1S/C14H9F3O2/c15-14(16,17)10-7-5-9(6-8-10)11-3-1-2-4-12(11)13(18)19/h1-8H,(H,18,19)",
        "InChIKey": null,
        "Canonical SMILES": "O=C(O)C=1C=CC=CC1C=2C=CC(=CC2)C(F)(F)F",
        "Molecular Formula": "C<sub>14</sub>H<sub>9</sub>F<sub>3</sub>O<sub>2</sub>",
        "Molecular Mass": "266.22",
        "Melting Point": "170 °C"
    }
}