{
    "cas_no": "79-06-1",
    "key_name": "Acrylamide",
    "cn_name": "丙烯酰胺;",
    "alternate_name": "2-Propenamide;Acrylamide;Acrylic amide;Propenamide;Ethylenecarboxamide;Vinyl amide;Bio-Acrylamide 50;NSC 7785;DM 206;A 108465;Aladdin A 108467;MeSH ID: D020106",
    "duplicated_cas_no": "1198293-68-3",
    "SMILES": "C(C=C)(N)=O",
    "meta_data": {
        "InChI": "InChI=1S/C3H5NO/c1-2-3(4)5/h2H,1H2,(H2,4,5)",
        "InChIKey": null,
        "Canonical SMILES": "O=C(N)C=C",
        "Molecular Formula": "C<sub>3</sub>H<sub>5</sub>NO",
        "Molecular Mass": "71.08",
        "Boiling Point": "192.6 °C",
        "Melting Point": "84.5 °C",
        "Density": "1.122 g/cm³ @ Temp: 30 °C"
    }
}