{
    "cas_no": "780-69-8",
    "key_name": "Phenyltriethoxysilane",
    "cn_name": "苯基三乙氧基硅烷;",
    "alternate_name": "Benzene, (triethoxysilyl)-;Silane, triethoxyphenyl-;(Triethoxysilyl)benzene;Benzeneorthosiliconic acid, triethyl ester;Triethoxyphenylsilane;TSL 8178;Phenyltriethoxysilane;P 0320;KBM 202LS4480;PTS 32;Tri(ethoxo)(phenyl)silane;KBE 103;LS 4480;NSC 77115;Dynasil 9265;LS 4800;Dynasylan 9265;KH 162;KH 651;SIP 6821.0;KH 632;SCA-P 61E",
    "duplicated_cas_no": "155684-09-6;2088315-67-5",
    "SMILES": "[Si](OCC)(OCC)(OCC)C1=CC=CC=C1",
    "meta_data": {
        "InChI": "InChI=1S/C12H20O3Si/c1-4-13-16(14-5-2,15-6-3)12-10-8-7-9-11-12/h7-11H,4-6H2,1-3H3",
        "InChIKey": null,
        "Canonical SMILES": "O(CC)[Si](OCC)(OCC)C=1C=CC=CC1",
        "Molecular Formula": "C<sub>12</sub>H<sub>20</sub>O<sub>3</sub>Si",
        "Molecular Mass": "240.37",
        "Boiling Point": "120 °C @ Press: 15 Torr",
        "Density": "0.996 g/cm³"
    }
}