{
    "cas_no": "2922-42-1",
    "key_name": "(-)-3-Dehydroshikimic acid",
    "cn_name": null,
    "alternate_name": "1-Cyclohexene-1-carboxylic acid, 4,5-dihydroxy-3-oxo-, (4<em>S</em>,5<em>R</em>)-;1-Cyclohexene-1-carboxylic acid, 4,5-dihydroxy-3-oxo-, (4<em>S</em>-<em>trans</em>)-;1-Cyclohexene-1-carboxylic acid, 4,5-dihydroxy-3-oxo-, <em>trans</em>-;(4<em>S</em>,5<em>R</em>)-4,5-Dihydroxy-3-oxo-1-cyclohexene-1-carboxylic acid;5-Dehydroshikimic acid;3-Dehydroshikimic acid;DHS;(-)-3-Dehydroshikimic acid",
    "duplicated_cas_no": "",
    "SMILES": "C(O)(=O)C=1C[C@@H](O)[C@H](O)C(=O)C1",
    "meta_data": {
        "InChI": "InChI=1S/C7H8O5/c8-4-1-3(7(11)12)2-5(9)6(4)10/h1,5-6,9-10H,2H2,(H,11,12)/t5-,6-/m1/s1",
        "InChIKey": null,
        "Canonical SMILES": "O=C(O)C1=CC(=O)C(O)C(O)C1",
        "Molecular Formula": "C<sub>7</sub>H<sub>8</sub>O<sub>5</sub>",
        "Molecular Mass": "172.14",
        "Melting Point": "150-152 °C"
    }
}