{
    "cas_no": "34846-65-6",
    "key_name": "4-Isoquinolinecarbonitrile",
    "cn_name": "4-氰基异喹啉;",
    "alternate_name": "4-Isoquinolinecarbonitrile;4-Cyanoisoquinoline;NSC 74868",
    "duplicated_cas_no": "",
    "SMILES": "C(#N)C=1C2=C(C=NC1)C=CC=C2",
    "meta_data": {
        "InChI": "InChI=1S/C10H6N2/c11-5-9-7-12-6-8-3-1-2-4-10(8)9/h1-4,6-7H",
        "InChIKey": null,
        "Canonical SMILES": "N#CC1=CN=CC=2C=CC=CC12",
        "Molecular Formula": "C<sub>10</sub>H<sub>6</sub>N<sub>2</sub>",
        "Molecular Mass": "154.17",
        "Melting Point": "104 °C"
    }
}