{
    "cas_no": "13850-16-3",
    "key_name": "Tormentic acid",
    "cn_name": null,
    "alternate_name": "Urs-12-en-28-oic acid, 2,3,19-trihydroxy-, (2α,3β)-;Urs-12-en-28-oic acid, 2α,3β,19-trihydroxy-;(2α,3β)-2,3,19-Trihydroxyurs-12-en-28-oic acid;Tormentic acid;2α,19α-Dihydroxyursolic acid;2α,3β,19α-Trihydroxyurs-12-en-28-oic acid;2α,3β,19-Trihydroxyurs-12-en-28-oic acid;Tormentolic acid",
    "duplicated_cas_no": "11008-23-4",
    "SMILES": "C(O)(=O)[C@]12[C@](C=3[C@@](C)(CC1)[C@@]4(C)[C@](CC3)([C@]5(C)[C@@](CC4)(C(C)(C)[C@@H](O)[C@H](O)C5)[H])[H])([C@](C)(O)[C@H](C)CC2)[H]",
    "meta_data": {
        "InChI": "InChI=1S/C30H48O5/c1-17-10-13-30(24(33)34)15-14-27(5)18(22(30)29(17,7)35)8-9-21-26(4)16-19(31)23(32)25(2,3)20(26)11-12-28(21,27)6/h8,17,19-23,31-32,35H,9-16H2,1-7H3,(H,33,34)/t17-,19-,20+,21-,22-,23+,26+,27-,28-,29-,30+/m1/s1",
        "InChIKey": null,
        "Canonical SMILES": "O=C(O)C12CCC(C)C(O)(C)C2C3=CCC4C5(C)CC(O)C(O)C(C)(C)C5CCC4(C)C3(C)CC1",
        "Molecular Formula": "C<sub>30</sub>H<sub>48</sub>O<sub>5</sub>",
        "Molecular Mass": "488.70",
        "Melting Point": "273 °C"
    }
}