{
    "cas_no": "6740-85-8",
    "key_name": "(2-Chlorophenyl)cyclopentylmethanone",
    "cn_name": "邻氯苯基环戊基酮;",
    "alternate_name": "Methanone, (2-chlorophenyl)cyclopentyl-;Ketone, <em>o</em>-chlorophenyl cyclopentyl;(2-Chlorophenyl)cyclopentylmethanone;Cyclopentyl <em>o</em>-chlorophenyl ketone;Cyclopentyl 2-chlorophenyl ketone;2-Chlorophenyl cyclopentyl ketone;(2-Chlorobenzoyl)cyclopentane;(2-Chlorophenyl)(cyclopentyl)methanone",
    "duplicated_cas_no": "",
    "SMILES": "C(=O)(C1=C(Cl)C=CC=C1)C2CCCC2",
    "meta_data": {
        "InChI": "InChI=1S/C12H13ClO/c13-11-8-4-3-7-10(11)12(14)9-5-1-2-6-9/h3-4,7-9H,1-2,5-6H2",
        "InChIKey": null,
        "Canonical SMILES": "O=C(C=1C=CC=CC1Cl)C2CCCC2",
        "Molecular Formula": "C<sub>12</sub>H<sub>13</sub>ClO",
        "Molecular Mass": "208.68",
        "Boiling Point": "96-97 °C @ Press: 0.3 Torr"
    }
}