{
    "cas_no": "401-73-0",
    "key_name": "2,4-Dihydro-5-(trifluoromethyl)-3<em>H</em>-pyrazol-3-one",
    "cn_name": "3-(三氟甲基)-2-吡唑啉-5-酮;3-三氟甲基-1H-5-吡唑酮;",
    "alternate_name": "3<em>H</em>-Pyrazol-3-one, 2,4-dihydro-5-(trifluoromethyl)-;2-Pyrazolin-5-one, 3-(trifluoromethyl)-;2,4-Dihydro-5-(trifluoromethyl)-3<em>H</em>-pyrazol-3-one",
    "duplicated_cas_no": "",
    "SMILES": "C(F)(F)(F)C=1CC(=O)NN1",
    "meta_data": {
        "InChI": "InChI=1S/C4H3F3N2O/c5-4(6,7)2-1-3(10)9-8-2/h1H2,(H,9,10)",
        "InChIKey": null,
        "Canonical SMILES": "O=C1NN=C(C1)C(F)(F)F",
        "Molecular Formula": "C<sub>4</sub>H<sub>3</sub>F<sub>3</sub>N<sub>2</sub>O",
        "Molecular Mass": "152.07",
        "Melting Point": "210-212 °C"
    }
}