{
    "cas_no": "463-56-9",
    "key_name": "Thiocyanic acid",
    "cn_name": null,
    "alternate_name": "Thiocyanic acid;Hydrogen thiocyanate;Sulfocyanic acid;Sulfocyanide;Hydrogen thiocyanate (H(SCN))",
    "duplicated_cas_no": "31782-33-9;42402-57-3;56925-41-8;60773-52-6;60930-21-4;80864-27-3;134932-16-4;741609-06-3;2487183-59-3",
    "SMILES": "C(#N)S",
    "meta_data": {
        "InChI": "InChI=1S/CHNS/c2-1-3/h3H",
        "InChIKey": null,
        "Canonical SMILES": "N#CS",
        "Molecular Formula": "CHNS",
        "Molecular Mass": "59.09",
        "Melting Point": "-110 °C"
    }
}