{
    "cas_no": "3813-52-3",
    "key_name": "5-Norbornene-2,3-dicarboxylic acid",
    "cn_name": "5-降冰片烯-2,3-二羧酸;双环[2.2.1]庚-5-烯-2,3-二羧酸;",
    "alternate_name": "Bicyclo[2.2.1]hept-5-ene-2,3-dicarboxylic acid;5-Norbornene-2,3-dicarboxylic acid;3,6-Endomethylene-4-cyclohexene-1,2-dicarboxylic acid;<em>endo</em>-Methylenetetrahydrophthalic acid;1,2-Benzenedicarboxylic acid, 1,2,3,6-tetrahydro-3,6-<em>endo</em>-methylene-;3,6-Endomethylenephthalic acid, tetrahydro-;Bicyclo[2.2.1]hept-2-ene-5,6-dicarboxylic acid;3,6-Methano-4-cyclohexene-1,2-dicarboxylic acid;NSC 62668",
    "duplicated_cas_no": "126836-08-6",
    "SMILES": "C(O)(=O)C1C(C(O)=O)C2CC1C=C2",
    "meta_data": {
        "InChI": "InChI=1S/C9H10O4/c10-8(11)6-4-1-2-5(3-4)7(6)9(12)13/h1-2,4-7H,3H2,(H,10,11)(H,12,13)",
        "InChIKey": null,
        "Canonical SMILES": "O=C(O)C1C2C=CC(C2)C1C(=O)O",
        "Molecular Formula": "C<sub>9</sub>H<sub>10</sub>O<sub>4</sub>",
        "Molecular Mass": "182.17",
        "Melting Point": "177-179 °C"
    }
}