{
    "cas_no": "931-61-3",
    "key_name": "<em>N</em>-Methyl-2-pyrimidinamine",
    "cn_name": null,
    "alternate_name": "2-Pyrimidinamine, <em>N</em>-methyl-;Pyrimidine, 2-(methylamino)-;<em>N</em>-Methyl-2-pyrimidinamine;2-Methylaminopyrimidine;NSC 102272;<em>N</em>-Methylpyrimidin-2-amine",
    "duplicated_cas_no": "",
    "SMILES": "N(C)C=1N=CC=CN1",
    "meta_data": {
        "InChI": "InChI=1S/C5H7N3/c1-6-5-7-3-2-4-8-5/h2-4H,1H3,(H,6,7,8)",
        "InChIKey": null,
        "Canonical SMILES": "N=1C=CC=NC1NC",
        "Molecular Formula": "C<sub>5</sub>H<sub>7</sub>N<sub>3</sub>",
        "Molecular Mass": "109.13",
        "Boiling Point": "91-92 °C @ Press: 14 Torr",
        "Melting Point": "59-61 °C"
    }
}