{
    "cas_no": "350-46-9",
    "key_name": "4-Fluoronitrobenzene",
    "cn_name": "对氟硝基苯;4-氟硝基苯;",
    "alternate_name": "Benzene, 1-fluoro-4-nitro-;1-Fluoro-4-nitrobenzene;<em>p</em>-Nitrofluorobenzene;<em>p</em>-Fluoronitrobenzene;1-Nitro-4-fluorobenzene;4-Fluoronitrobenzene;4-Nitrofluorobenzene;4-Fluoro-1-nitrobenzene;4-Nitro-1-fluorobenzene;4-Nitrophenyl fluoride;NSC 10281;Para-fluoronitrobenzene",
    "duplicated_cas_no": "",
    "SMILES": "N(=O)(=O)C1=CC=C(F)C=C1",
    "meta_data": {
        "InChI": "InChI=1S/C6H4FNO2/c7-5-1-3-6(4-2-5)8(9)10/h1-4H",
        "InChIKey": null,
        "Canonical SMILES": "O=N(=O)C1=CC=C(F)C=C1",
        "Molecular Formula": "C<sub>6</sub>H<sub>4</sub>FNO<sub>2</sub>",
        "Molecular Mass": "141.10",
        "Boiling Point": "206-207 °C",
        "Melting Point": "27 °C",
        "Density": "1.3300 g/cm³ @ Temp: 20 °C"
    }
}