{
    "cas_no": "596-75-8",
    "key_name": "Propanedioic acid, 2,2-dibutyl-, 1,3-diethyl ester",
    "cn_name": null,
    "alternate_name": "Propanedioic acid, 2,2-dibutyl-, 1,3-diethyl ester;Malonic acid, dibutyl-, diethyl ester;Propanedioic acid, dibutyl-, diethyl ester;Diethyl dibutylmalonate;NSC 8913;Dibutylmalonic acid diethyl ester;Diethyl 2,2-dibutylmalonate;1,3-Diethyl 2,2-dibutylpropanedioate",
    "duplicated_cas_no": "",
    "SMILES": "C(C(OCC)=O)(C(OCC)=O)(CCCC)CCCC",
    "meta_data": {
        "InChI": "InChI=1S/C15H28O4/c1-5-9-11-15(12-10-6-2,13(16)18-7-3)14(17)19-8-4/h5-12H2,1-4H3",
        "InChIKey": null,
        "Canonical SMILES": "O=C(OCC)C(C(=O)OCC)(CCCC)CCCC",
        "Molecular Formula": "C<sub>15</sub>H<sub>28</sub>O<sub>4</sub>",
        "Molecular Mass": "272.38",
        "Boiling Point": "153-154 °C @ Press: 14 Torr"
    }
}