{
    "cas_no": "3625-06-7",
    "key_name": "(±)-Mebeverine",
    "cn_name": null,
    "alternate_name": "Benzoic acid, 3,4-dimethoxy-, 4-[ethyl[2-(4-methoxyphenyl)-1-methylethyl]amino]butyl ester;Veratric acid, 4-[ethyl(<em>p</em>-methoxy-α-methylphenethyl)amino]butyl ester;4-Ethyl(<em>p</em>-methoxy-α-methylphenethyl)amino]butyl 3,4-dimethoxybenzoate;Mebeverine;3,4-Dimethoxybenzoic acid 4-[ethyl(<em>p</em>-methoxy-α-methylphenethyl)amino]butyl ester;4-[<em>N</em>-[2-(<em>p</em>-Methoxyphenyl)-1-methylethyl]-<em>N</em>-ethylamino]butyl 3,4-dimethoxybenzoate;(±)-Mebeverine",
    "duplicated_cas_no": "",
    "SMILES": "C(OCCCCN(C(CC1=CC=C(OC)C=C1)C)CC)(=O)C2=CC(OC)=C(OC)C=C2",
    "meta_data": {
        "InChI": "InChI=1S/C25H35NO5/c1-6-26(19(2)17-20-9-12-22(28-3)13-10-20)15-7-8-16-31-25(27)21-11-14-23(29-4)24(18-21)30-5/h9-14,18-19H,6-8,15-17H2,1-5H3",
        "InChIKey": null,
        "Canonical SMILES": "O=C(OCCCCN(CC)C(C)CC1=CC=C(OC)C=C1)C2=CC=C(OC)C(OC)=C2",
        "Molecular Formula": "C<sub>25</sub>H<sub>35</sub>NO<sub>5</sub>",
        "Molecular Mass": "429.55",
        "Melting Point": "129-131 °C"
    }
}