{
    "uri": "substance/pt/9012764",
    "rn": "9012-76-4",
    "name": "Chitosan",
    "images": [],
    "inchi": "",
    "inchiKey": "",
    "smile": "",
    "canonicalSmile": "",
    "molecularFormula": "Unspecified",
    "molecularMass": "",
    "experimentalProperties": [
        {
            "name": "Melting Point",
            "property": "102.5 °C",
            "sourceNumber": 1
        },
        {
            "name": "Density",
            "property": "1 g/cm³",
            "sourceNumber": 2
        }
    ],
    "propertyCitations": [
        {
            "docUri": "document/pt/document/29067224",
            "sourceNumber": 1,
            "source": "Luckachan, Gisha Elizabeth; Carbohydrate Polymers, (2006), 64(2), 254-266, CAplus"
        },
        {
            "docUri": "document/pt/document/27500689",
            "sourceNumber": 2,
            "source": "Da Trindade Neto, Cypriano G.; Polymer International, (2005), 54(4), 659-666, CAplus"
        }
    ],
    "synonyms": [
        "Chitosan",
        "Deacetylchitin",
        "Chitin, <em>N</em>-deacetyl-",
        "Chitan, <em>N</em>-acetyl-",
        "Kytex H",
        "Flonac N",
        "Kytex M",
        "DAC 70",
        "Chicol",
        "Kimitsu Chitosan F 2",
        "Kimitsu Chitosan F",
        "Kimitsu Chitosan M",
        "Kimitsu Chitosan H",
        "Kimitsu Chitosan L",
        "Chitopearl 3510",
        "Sea Cure F",
        "Sea Cure Plus",
        "Chitopearl BC 3000",
        "Chitopearl BCW 3000",
        "Chitopearl BCW 2500",
        "Chitopearl BCW 3500",
        "Chitopearl BCW 3507",
        "Flonac C",
        "Poliglusam",
        "CTA 4",
        "Kitan",
        "Sea Cure 143",
        "Sea Cure 340",
        "NC 50F2",
        "Kimitsu Chitosan LLW",
        "Seasanmer N 2000",
        "KML-V 2",
        "KML-V 54",
        "KLM-V 2",
        "KLM-V 54",
        "Profloc 320",
        "HC 1 (polysaccharide)",
        "SC (polysaccharide)",
        "SC",
        "HC 1",
        "MA 1",
        "WOT Recovery Floc T",
        "Hiset KW 5",
        "TKS 210",
        "SK 200",
        "Daichitosan VL",
        "SK 50",
        "Chitosan EL",
        "TKS 250N",
        "Sea Cure 243",
        "Sea Cure 343",
        "Marinkaito F 05N",
        "Marinkaito F 05S",
        "KW 5",
        "North Chitosan MC 1",
        "OTS 2",
        "FCM 117",
        "Daichitosan W 10",
        "CTA 1 Lactic Acid",
        "Sea Cure 123",
        "Hydagen HCMF",
        "Kimitsu Chitosan F 2P",
        "Kimitsu Chitosan LL",
        "Chitosan LLWP",
        "LLWP",
        "Kimitsu Chitosan MP",
        "Chitosan MP",
        "Chitosan LL",
        "Crystan LA-S",
        "Chitosan H",
        "Chitosan VL",
        "Chitosan CLH",
        "Chitosan FL",
        "Sea Cure 440",
        "Chitosan M",
        "MK 4",
        "MK 4 (polysaccharide)",
        "Biopolymer L 112",
        "Chitosom",
        "Kurita",
        "Profloc P",
        "Hydagen CMFP",
        "Koyo Chitosan SK 30",
        "DAC 50",
        "Chitosan LL 80",
        "Chitosan 500",
        "Chitosan F",
        "100D-VL",
        "KW 5 (polysaccharide)",
        "Marine Dew PC 100",
        "K 5",
        "K 5 (chitosan)",
        "Koyo Chitosan DAC 50",
        "Flonac LV",
        "Chitofos",
        "Daichitosan P-VL",
        "PSH 80",
        "SA 50",
        "Hydagan DCMF",
        "Koyo Chitosan FM 80",
        "SA 50 (bactericide)",
        "BC 10",
        "North Chitosan MA 1",
        "BC 10 (polysaccharide)",
        "Chitosan PSH",
        "Daichitosan DVL",
        "Chitopearl K 20",
        "Koyo Chitosan SK 50",
        "LipoSan Ultra",
        "Flonac H",
        "Daichitosan VLA",
        "Amidan",
        "Kimitsu Chitosan LLWP",
        "FM 80",
        "Chitoclear",
        "Chitosol",
        "Chitolaze",
        "Sea Cure 211CL",
        "Sea Cure 214CL",
        "Sea Cure 312CL",
        "Chitosan WL-M",
        "Sea Cure 244",
        "JaKwang HFP",
        "Chitoclear 400",
        "Protasan UPG 210",
        "Kytex L",
        "Chitech",
        "TM 366",
        "Kitomer",
        "Chirosan 100",
        "Koyo Chitosan FL 80",
        "Sea Cure 443",
        "Daichitosan L",
        "Elexa 4",
        "Chitosan 10B",
        "Protasan CL 212",
        "SK-DAC 100",
        "FM 200 (chitosan)",
        "FM 200",
        "Chitoclear TM 1111",
        "Chitoclear TM 588",
        "Primex TM 656",
        "SIHA Profloc",
        "Chitopearl AL 10",
        "S 85/120A1",
        "C 60M",
        "Flonac C 60M",
        "Sea Cure CL 411",
        "DAC 100",
        "ChitoClear FG 95",
        "Protasan UP-B 80/500",
        "Sigma C 3646",
        "Kate 50-100",
        "Daichitosan 100D",
        "Chitoclear TM 656",
        "TM 656",
        "Phytochit",
        "Chitin D",
        "Chitosano 90%",
        "Chitoclear TM 1220",
        "Kimitsu Chitosan",
        "Hydagen LCMS-LA",
        "Protasan UP G",
        "Chitoclear CG 400",
        "Cerosan 5000",
        "C 3646",
        "Cytochit",
        "Chitophos",
        "HEP 40",
        "ChitoClear TM 850-2",
        "ChitoClear TM 1292",
        "Kimica Chitosan F",
        "Koyo Chitosan FH 80",
        "Chitosan 100",
        "Chitolife",
        "Primex III 90",
        "Tansorb Kh",
        "Flonac 60M",
        "Flonac H 100M",
        "ChitoClear CG 110",
        "Chitosan PL",
        "Mahtani Chitosan PVT",
        "Hidagem HCMF",
        "SECF 3",
        "North Chitosan MC 2W",
        "Chitosan-Up",
        "ChitoClear TM 1265E",
        "ChitoClear BN 316",
        "ChitoClear BN 392",
        "SK 10DAC100",
        "Biochikol 020PC",
        "Biochikol",
        "Koyo Chitosan FM 40",
        "ImmuMax SR",
        "Epakitin",
        "Kimika Chitosan MP",
        "Kimika Chitosan L",
        "Biochemica",
        "Chitoplant",
        "CG 110",
        "ChitoClear CG 10",
        "ChitoClear FG 95LV",
        "ChitoClear FG 95ULV",
        "Chitosan 1000",
        "QTDT",
        "ChitoClear CG 800",
        "LO 7319CsU",
        "Batch LO 7319CsU",
        "LL 40",
        "Y. H. Chitosan K II",
        "Chitosan GH-400EF",
        "Chitoclear FG 90",
        "Flonac CS",
        "LMC 20K",
        "KiOmedine-CsU",
        "Chitosan 244",
        "KB 002 (polysaccharide)",
        "KB 002",
        "CG 10",
        "ChiSys",
        "Armour-Zen",
        "Flonac C 60M-SEK",
        "Flonac NSW-SEK",
        "Chitosan 300",
        "Kendal Cops",
        "Haishan KG",
        "Chitopharm S",
        "Chitoclear 2832",
        "Chitopharm M",
        "Chitoclear SC 342",
        "ChitoHeal",
        "Daichitosan Coat GL",
        "Chiloclear",
        "Chimarin",
        "D 06188",
        "Chitosan DDA 100",
        "FM 80S",
        "Protasan UP B 90/20",
        "FH 80",
        "KiOnutrime-Cs",
        "Kimica Chitosan F 2P",
        "Kimica Chitosan",
        "Ultrasan",
        "ChitoClear 40500",
        "ChitoClear 43012",
        "Protasan UP-B 80/20",
        "Novafect O15",
        "KitoNor",
        "CH 340",
        "Flonac C 100M",
        "BiNFi-s EFo 10002",
        "Tianda 2116",
        "Xantonet",
        "CT 300",
        "Fluka 28191",
        "FL 80DAC",
        "Kimika Chitosan S",
        "ChitoClear 3568",
        "S 030626-2",
        "EFo 08002",
        "Zenvivo Protect",
        "Goyenchem 102",
        "BiNFi-s EFo 08002",
        "Wako 100",
        "Wako 5",
        "Kimica Chitosan B",
        "Kimica Chitosan LL",
        "IGC 5",
        "FujiClean KT-250",
        "Chitopharm L",
        "Chitoclear 42030",
        "SK 100",
        "DA 5",
        "X 2800",
        "X 3100",
        "LL-SF 20",
        "ChitoClear CG 1600",
        "LS-J 1",
        "V 12111",
        "LW 104",
        "KiOnutrime-CsG",
        "XH 0148",
        "Chitosan 10",
        "KL-T 1065",
        "ChitoClear 43000",
        "C 2395",
        "SF 001",
        "ChitoClear 43000HQG10",
        "Daichitosan M 325",
        "C 105801",
        "C 5527",
        "CH 85-200A1",
        "XY 68687",
        "C 350 (chitosan)",
        "C 80 (chitosan)",
        "C 350",
        "C 80",
        "FT 25",
        "C 302935",
        "FM 80 (chitosan)",
        "C 105799",
        "Carbosynth YC58325",
        "C 299272",
        "WT-KGT 013",
        "MeSH ID: D048271",
        "CH 0020",
        "YXL 2240",
        "ChitoClear HQG 10",
        "ChitoClear HQG 400",
        "ChitoClear HQG 800",
        "ChitoVan CF",
        "ChitoClear 42100"
    ],
    "replacedRns": [
        "57285-05-9",
        "98241-50-0",
        "191045-06-4",
        "1118546-53-4",
        "1268699-64-4",
        "1403748-72-0",
        "1548444-29-6",
        "1869074-89-4",
        "1884679-12-2",
        "2027511-54-0",
        "2129975-33-1",
        "2138871-39-1",
        "2197029-97-1",
        "2387717-47-5",
        "2417799-74-5"
    ],
    "hasMolfile": false,
    "source": "https://commonchemistry.cas.org/detail?cas_rn=9012-76-4"
}