{
    "cas_no": "96-82-2",
    "key_name": "Lactobionic acid",
    "cn_name": "乳糖酸;",
    "alternate_name": "<span class=\"text-smallcaps\">D</smallcap>-Gluconic acid, 4-<em>O</em>-β-<smallcap>D</span>-galactopyranosyl-;Lactonic acid;Lactobionic acid;4-<em>O</em>-β-<span class=\"text-smallcaps\">D</smallcap>-Galactopyranosyl-<smallcap>D</span>-gluconic acid;4-(β-<span class=\"text-smallcaps\">D</smallcap>-Galactosido)-<smallcap>D</span>-gluconic acid;<span class=\"text-smallcaps\">D</span>-Lactobionic acid;Galactosylgluconic acid;4-<em>O</em>-β-Galactopyranosyl-<span class=\"text-smallcaps\">D</span>-gluconic acid",
    "duplicated_cas_no": "20246-38-2;90754-44-2;1201791-27-6;1924676-97-0",
    "SMILES": "[C@H](O[C@@H]1O[C@H](CO)[C@H](O)[C@H](O)[C@H]1O)([C@@H]([C@H](C(O)=O)O)O)[C@@H](CO)O",
    "meta_data": {
        "InChI": "InChI=1S/C12H22O12/c13-1-3(15)10(7(18)8(19)11(21)22)24-12-9(20)6(17)5(16)4(2-14)23-12/h3-10,12-20H,1-2H2,(H,21,22)/t3-,4-,5+,6+,7-,8-,9-,10-,12+/m1/s1",
        "InChIKey": null,
        "Canonical SMILES": "O=C(O)C(O)C(O)C(OC1OC(CO)C(O)C(O)C1O)C(O)CO",
        "Molecular Formula": "C<sub>12</sub>H<sub>22</sub>O<sub>12</sub>",
        "Molecular Mass": "358.30",
        "Melting Point": "80 °C"
    }
}