{
    "cas_no": "103-38-8",
    "key_name": "Benzyl isovalerate",
    "cn_name": "异戊酸苯甲酯;3-甲基丁酸苯甲酯;",
    "alternate_name": "Butanoic acid, 3-methyl-, phenylmethyl ester;Isovaleric acid, benzyl ester;Benzyl isovalerate;Benzyl 3-methylbutyrate;Benzyl 3-methylbutanoate;Benzyl isopentanoate;NSC 46124;Phenylmethyl isovalerate",
    "duplicated_cas_no": "",
    "SMILES": "C(OC(CC(C)C)=O)C1=CC=CC=C1",
    "meta_data": {
        "InChI": "InChI=1S/C12H16O2/c1-10(2)8-12(13)14-9-11-6-4-3-5-7-11/h3-7,10H,8-9H2,1-2H3",
        "InChIKey": null,
        "Canonical SMILES": "O=C(OCC=1C=CC=CC1)CC(C)C",
        "Molecular Formula": "C<sub>12</sub>H<sub>16</sub>O<sub>2</sub>",
        "Molecular Mass": "192.25",
        "Boiling Point": "245 °C"
    }
}