{
    "cas_no": "2820-37-3",
    "key_name": "3,4-Dimethylpyrazole",
    "cn_name": "3,4-二甲基吡唑;3,4-二甲基吡唑;",
    "alternate_name": "1<em>H</em>-Pyrazole, 3,4-dimethyl-;Pyrazole, 3,4-dimethyl-;Pyrazole, 3,4(<em>or</em> 4,5)-dimethyl-;3,4-Dimethyl-1<em>H</em>-pyrazole;3,4-Dimethylpyrazole;4,5-Dimethylpyrazole",
    "duplicated_cas_no": "",
    "SMILES": "CC=1C(C)=NNC1",
    "meta_data": {
        "InChI": "InChI=1S/C5H8N2/c1-4-3-6-7-5(4)2/h3H,1-2H3,(H,6,7)",
        "InChIKey": null,
        "Canonical SMILES": "N=1NC=C(C1C)C",
        "Molecular Formula": "C<sub>5</sub>H<sub>8</sub>N<sub>2</sub>",
        "Molecular Mass": "96.13",
        "Boiling Point": "106-107 °C @ Press: 11 Torr",
        "Melting Point": "56 °C"
    }
}