{
    "cas_no": "57658-36-3",
    "key_name": "2,5-Dihydro-5-thioxo-1<em>H</em>-tetrazole-1-acetic acid",
    "cn_name": "5-巯基-1H-四氮唑-1-乙酸;",
    "alternate_name": "1<em>H</em>-Tetrazole-1-acetic acid, 2,5-dihydro-5-thioxo-;2,5-Dihydro-5-thioxo-1<em>H</em>-tetrazole-1-acetic acid;1-(Carboxymethyl)-5-mercaptotetrazole;5-Mercapto-1-tetrazolylacetic acid;1-Carboxymethyl-5-tetrazolethiol;5-Mercapto-1<em>H</em>-tetrazole-1-acetic acid;1-(Carboxymethyl)-5-mercapto-1<em>H</em>-tetrazole;1-Carboxymethyl-5-mercapto-1,2,3,4-tetrazole;2-(5-Sulfanylidene-2,5-dihydro-1<em>H</em>-1,2,3,4-tetrazol-1-yl)acetic acid;2-(5-Sulfanyl-1<em>H</em>-1,2,3,4-tetrazol-1-yl)acetic acid;2-(5-Sulfanylidene-4,5-dihydro-1<em>H</em>-1,2,3,4-tetrazol-1-yl)acetic acid",
    "duplicated_cas_no": "",
    "SMILES": "C(C(O)=O)N1C(=S)NN=N1",
    "meta_data": {
        "InChI": "InChI=1S/C3H4N4O2S/c8-2(9)1-7-3(10)4-5-6-7/h1H2,(H,8,9)(H,4,6,10)",
        "InChIKey": null,
        "Canonical SMILES": "O=C(O)CN1N=NNC1=S",
        "Molecular Formula": "C<sub>3</sub>H<sub>4</sub>N<sub>4</sub>O<sub>2</sub>S",
        "Molecular Mass": "160.15",
        "Melting Point": "179-180 °C (decomp)"
    }
}