{
    "cas_no": "24596-19-8",
    "key_name": "4-Bromo-2,6-dimethylbenzenamine",
    "cn_name": "4-溴-2,6-二甲基苯胺;",
    "alternate_name": "Benzenamine, 4-bromo-2,6-dimethyl-;2,6-Xylidine, 4-bromo-;4-Bromo-2,6-dimethylbenzenamine;4-Bromo-2,6-dimethylaniline;2,6-Dimethyl-4-bromoaniline;4-Bromo-2,6-xylidine;NSC 227944;4-Bromo-2,6-dimethylphenylamine",
    "duplicated_cas_no": "",
    "SMILES": "NC1=C(C)C=C(Br)C=C1C",
    "meta_data": {
        "InChI": "InChI=1S/C8H10BrN/c1-5-3-7(9)4-6(2)8(5)10/h3-4H,10H2,1-2H3",
        "InChIKey": null,
        "Canonical SMILES": "BrC=1C=C(C(N)=C(C1)C)C",
        "Molecular Formula": "C<sub>8</sub>H<sub>10</sub>BrN",
        "Molecular Mass": "200.08",
        "Boiling Point": "120 °C @ Press: 0.22 Torr",
        "Melting Point": "47 °C"
    }
}