{
    "cas_no": "110187-11-6",
    "key_name": "1,5,8-Trihydroxy-3-methoxy-2-(3-methyl-2-buten-1-yl)-9<em>H</em>-xanthen-9-one",
    "cn_name": null,
    "alternate_name": "9<em>H</em>-Xanthen-9-one, 1,5,8-trihydroxy-3-methoxy-2-(3-methyl-2-buten-1-yl)-;9<em>H</em>-Xanthen-9-one, 1,5,8-trihydroxy-3-methoxy-2-(3-methyl-2-butenyl)-;1,5,8-Trihydroxy-3-methoxy-2-(3-methyl-2-buten-1-yl)-9<em>H</em>-xanthen-9-one;1,5,8-Trihydroxy-3-methoxy-2-prenylxanthone;1,5,8-Trihydroxy-3-methoxy-2-(3-methylbut-2-enyl)xanthen-9-one",
    "duplicated_cas_no": "",
    "SMILES": "O=C1C=2C(OC=3C1=C(O)C=CC3O)=CC(OC)=C(CC=C(C)C)C2O",
    "meta_data": {
        "InChI": "InChI=1S/C19H18O6/c1-9(2)4-5-10-13(24-3)8-14-16(17(10)22)18(23)15-11(20)6-7-12(21)19(15)25-14/h4,6-8,20-22H,5H2,1-3H3",
        "InChIKey": null,
        "Canonical SMILES": "O=C1C=2C(O)=CC=C(O)C2OC=3C=C(OC)C(=C(O)C13)CC=C(C)C",
        "Molecular Formula": "C<sub>19</sub>H<sub>18</sub>O<sub>6</sub>",
        "Molecular Mass": "342.34",
        "Melting Point": "193-195 °C"
    }
}