{
    "cas_no": "21598-06-1",
    "key_name": "5-Hydroxyindole-2-carboxylic acid",
    "cn_name": "5-羟基吲哚-2-甲酸;",
    "alternate_name": "1<em>H</em>-Indole-2-carboxylic acid, 5-hydroxy-;Indole-2-carboxylic acid, 5-hydroxy-;5-Hydroxy-1<em>H</em>-indole-2-carboxylic acid;5-Hydroxyindole-2-carboxylic acid;NSC 117338",
    "duplicated_cas_no": "",
    "SMILES": "C(O)(=O)C=1NC=2C(C1)=CC(O)=CC2",
    "meta_data": {
        "InChI": "InChI=1S/C9H7NO3/c11-6-1-2-7-5(3-6)4-8(10-7)9(12)13/h1-4,10-11H,(H,12,13)",
        "InChIKey": null,
        "Canonical SMILES": "O=C(O)C1=CC=2C=C(O)C=CC2N1",
        "Molecular Formula": "C<sub>9</sub>H<sub>7</sub>NO<sub>3</sub>",
        "Molecular Mass": "177.16",
        "Melting Point": "246 °C (decomp)"
    }
}