{
    "cas_no": "526-98-7",
    "key_name": "2-<em>keto</em>-<span class=\"text-smallcaps\">L</span>-Gulonic acid",
    "cn_name": "2-酮-L-古洛糖酸;2-酮-L-古洛糖酸;",
    "alternate_name": "<span class=\"text-smallcaps\">L</span>-<em>xylo</em>-2-Hexulosonic acid;<span class=\"text-smallcaps\">L</span>-<em>xylo</em>-Hexulosonic acid;Gulonic acid, 2-<em>keto</em>-, <span class=\"text-smallcaps\">L</span>-;Idonic acid, 2-keto-, <span class=\"text-smallcaps\">L</span>-;2-<em>keto</em>-<span class=\"text-smallcaps\">L</span>-Gulonic acid;2-Keto-<span class=\"text-smallcaps\">L</span>-gulonic acid;<span class=\"text-smallcaps\">L</span>-Xylohexulosonic acid;2-Keto-<span class=\"text-smallcaps\">L</span>-idonic acid",
    "duplicated_cas_no": "889060-69-9",
    "SMILES": "[C@H]([C@@H]([C@H](CO)O)O)(C(C(O)=O)=O)O",
    "meta_data": {
        "InChI": "InChI=1S/C6H10O7/c7-1-2(8)3(9)4(10)5(11)6(12)13/h2-4,7-10H,1H2,(H,12,13)/t2-,3+,4-/m0/s1",
        "InChIKey": null,
        "Canonical SMILES": "O=C(O)C(=O)C(O)C(O)C(O)CO",
        "Molecular Formula": "C<sub>6</sub>H<sub>10</sub>O<sub>7</sub>",
        "Molecular Mass": "194.14",
        "Melting Point": "171 °C"
    }
}