{
    "cas_no": "94610-82-9",
    "key_name": "2-Fluoro-4-methoxybenzonitrile",
    "cn_name": null,
    "alternate_name": "Benzonitrile, 2-fluoro-4-methoxy-;2-Fluoro-4-methoxybenzonitrile",
    "duplicated_cas_no": "",
    "SMILES": "O(C)C1=CC(F)=C(C#N)C=C1",
    "meta_data": {
        "InChI": "InChI=1S/C8H6FNO/c1-11-7-3-2-6(5-10)8(9)4-7/h2-4H,1H3",
        "InChIKey": null,
        "Canonical SMILES": "N#CC1=CC=C(OC)C=C1F",
        "Molecular Formula": "C<sub>8</sub>H<sub>6</sub>FNO",
        "Molecular Mass": "151.14",
        "Boiling Point": "220-222 °C"
    }
}