{
    "cas_no": "59-85-8",
    "key_name": "<em>p</em>-(Chloromercuri)benzoic acid",
    "cn_name": "对氯汞苯甲酸;4-氯汞苯甲酸;",
    "alternate_name": "Mercurate(1-), (4-carboxylatophenyl)chloro-, hydrogen;Mercury, (<em>p</em>-carboxyphenyl)chloro-;<em>p</em>-Chlormercuribenzoic acid;<em>p</em>-Carboxyphenylmercuric chloride;<em>p</em>-Chloromercuric benzoic acid;4-(Chloromercuri)benzoic acid;<em>p</em>-(Chloromercuri)benzoic acid;(4-Carboxyphenyl)chloromercury;4-Carboxyphenylmercuric chloride;PCMB;NSC 32866;Mercurate(1-), (4-carboxylatophenyl)chloro-, hydrogen (1:1)",
    "duplicated_cas_no": "75344-65-9;77329-67-0;92421-68-6;107296-30-0;130973-93-2;136969-76-1;139116-12-4;145757-52-4;172906-39-7;792952-75-1;856770-63-3;1356399-46-6;1416052-38-4;2101845-36-5;2417134-16-6;2425611-79-4;2579693-34-6",
    "SMILES": "C([O-])(=O)C=1C=C[C-]([Hg+2][Cl-])=CC1.[H+]",
    "meta_data": {
        "InChI": "InChI=1S/C7H5O2.ClH.Hg/c8-7(9)6-4-2-1-3-5-6;;/h2-5H,(H,8,9);1H;/q-1;;+2/p-1",
        "InChIKey": null,
        "Canonical SMILES": "[H+].O=C([O-])C1=CC=[C-]([Hg+2][Cl-])C=C1",
        "Molecular Formula": "C<sub>7</sub>H<sub>4</sub>ClHgO<sub>2</sub>.H",
        "Molecular Mass": "",
        "Melting Point": "273 °C"
    }
}