{
    "cas_no": "35693-92-6",
    "key_name": "2,4,6-Trichlorobiphenyl",
    "cn_name": "2,4,6-三氯联苯;2,4,6-三氯联苯;",
    "alternate_name": "1,1′-Biphenyl, 2,4,6-trichloro-;Biphenyl, 2,4,6-trichloro-;2,4,6-Trichloro-1,1′-biphenyl;2,4,6-Trichlorobiphenyl;PCB 30;1,3,5-Trichloro-2-phenylbenzene",
    "duplicated_cas_no": "",
    "SMILES": "ClC1=C(C(Cl)=CC(Cl)=C1)C2=CC=CC=C2",
    "meta_data": {
        "InChI": "InChI=1S/C12H7Cl3/c13-9-6-10(14)12(11(15)7-9)8-4-2-1-3-5-8/h1-7H",
        "InChIKey": null,
        "Canonical SMILES": "ClC=1C=C(Cl)C(=C(Cl)C1)C=2C=CC=CC2",
        "Molecular Formula": "C<sub>12</sub>H<sub>7</sub>Cl<sub>3</sub>",
        "Molecular Mass": "257.54",
        "Melting Point": "59-61 °C"
    }
}