{
    "cas_no": "5731-01-1",
    "key_name": "1-(4′-Bromo[1,1′-biphenyl]-4-yl)ethanone",
    "cn_name": "4-(2-溴苯基)苯乙酮;4-乙酰基-4-溴代联苯;4-乙酰基-4\"-溴联苯;",
    "alternate_name": "Ethanone, 1-(4′-bromo[1,1′-biphenyl]-4-yl)-;Acetophenone, 4′-(<em>p</em>-bromophenyl)-;1-(4′-Bromo[1,1′-biphenyl]-4-yl)ethanone;4-Acetyl-4′-bromobiphenyl;4′-Bromo-4-acetylbiphenyl;4-(4-Bromophenyl)acetophenone;4-Acetyl-4′-bromo-1,1′-biphenyl;NSC 58059;1-(4′-Bromobiphenyl-4-yl)ethanone;4-(4′-Bromophenyl)acetophenone;1-[4-(4-Bromophenyl)phenyl]ethanone;1-[4-(4-Bromophenyl)phenyl]ethan-1-one",
    "duplicated_cas_no": "",
    "SMILES": "C(C)(=O)C1=CC=C(C=C1)C2=CC=C(Br)C=C2",
    "meta_data": {
        "InChI": "InChI=1S/C14H11BrO/c1-10(16)11-2-4-12(5-3-11)13-6-8-14(15)9-7-13/h2-9H,1H3",
        "InChIKey": null,
        "Canonical SMILES": "O=C(C1=CC=C(C=C1)C=2C=CC(Br)=CC2)C",
        "Molecular Formula": "C<sub>14</sub>H<sub>11</sub>BrO",
        "Molecular Mass": "275.14",
        "Melting Point": "131 °C"
    }
}