{
    "cas_no": "990-73-8",
    "key_name": "Fentanyl citrate",
    "cn_name": "枸橼酸芬太尼;N-苯基-N-[1-(2-苯乙基)-4-哌啶基]丙酰胺柠檬酸盐;",
    "alternate_name": "Propanamide, <em>N</em>-phenyl-<em>N</em>-[1-(2-phenylethyl)-4-piperidinyl]-, 2-hydroxy-1,2,3-propanetricarboxylate (1:1);Propionanilide, <em>N</em>-(1-phenethyl-4-piperidyl)-, citrate (1:1);McN-JR 4263-49;Fentanyl citrate;<em>N</em>-(1-Phenethyl-4-piperidinyl)propionanilide dihydrogen citrate;<em>N</em>-(1-Phenethyl-4-piperidyl)propionanilide citrate;Phentanyl citrate;Sublimaze;Leptanal;R 5240;McN-JR 4263;Fentaz;Duragesic;Actiq;Leptanol;Pentanyl;Oralet;Oravescent;Fentanil citrate;NasalFent;Onsolis;Fentos Tape;Instanyl;Abstral",
    "duplicated_cas_no": "",
    "SMILES": "N(C(CC)=O)(C1CCN(CCC2=CC=CC=C2)CC1)C3=CC=CC=C3.C(CC(O)=O)(CC(O)=O)(C(O)=O)O",
    "meta_data": {
        "InChI": "InChI=1S/C22H28N2O.C6H8O7/c1-2-22(25)24(20-11-7-4-8-12-20)21-14-17-23(18-15-21)16-13-19-9-5-3-6-10-19;7-3(8)1-6(13,5(11)12)2-4(9)10/h3-12,21H,2,13-18H2,1H3;13H,1-2H2,(H,7,8)(H,9,10)(H,11,12)",
        "InChIKey": null,
        "Canonical SMILES": "O=C(O)CC(O)(C(=O)O)CC(=O)O.O=C(N(C=1C=CC=CC1)C2CCN(CCC=3C=CC=CC3)CC2)CC",
        "Molecular Formula": "C<sub>22</sub>H<sub>28</sub>N<sub>2</sub>O.C<sub>6</sub>H<sub>8</sub>O<sub>7</sub>",
        "Molecular Mass": "",
        "Melting Point": "149-151 °C"
    }
}