{
    "cas_no": "73866-23-6",
    "key_name": "5-(2-Bromoacetyl)-2-hydroxybenzamide",
    "cn_name": "5-溴乙酰水杨酰胺;",
    "alternate_name": "Benzamide, 5-(2-bromoacetyl)-2-hydroxy-;Benzamide, 5-(bromoacetyl)-2-hydroxy-;5-(2-Bromoacetyl)-2-hydroxybenzamide;5-(Bromoacetyl)salicylamide;5-Bromoacetyl-2-hydroxybenzamide",
    "duplicated_cas_no": "",
    "SMILES": "C(CBr)(=O)C1=CC(C(N)=O)=C(O)C=C1",
    "meta_data": {
        "InChI": "InChI=1S/C9H8BrNO3/c10-4-8(13)5-1-2-7(12)6(3-5)9(11)14/h1-3,12H,4H2,(H2,11,14)",
        "InChIKey": null,
        "Canonical SMILES": "O=C(N)C1=CC(=CC=C1O)C(=O)CBr",
        "Molecular Formula": "C<sub>9</sub>H<sub>8</sub>BrNO<sub>3</sub>",
        "Molecular Mass": "258.07",
        "Melting Point": "196 °C"
    }
}