{
    "cas_no": "625-92-3",
    "key_name": "3,5-Dibromopyridine",
    "cn_name": "3,5-二溴吡啶;",
    "alternate_name": "Pyridine, 3,5-dibromo-;3,5-Dibromopyridine;NSC 6209",
    "duplicated_cas_no": "",
    "SMILES": "BrC=1C=C(Br)C=NC1",
    "meta_data": {
        "InChI": "InChI=1S/C5H3Br2N/c6-4-1-5(7)3-8-2-4/h1-3H",
        "InChIKey": null,
        "Canonical SMILES": "BrC1=CN=CC(Br)=C1",
        "Molecular Formula": "C<sub>5</sub>H<sub>3</sub>Br<sub>2</sub>N",
        "Molecular Mass": "236.89",
        "Boiling Point": "222 °C",
        "Melting Point": "112 °C"
    }
}