{
    "cas_no": "16753-62-1",
    "key_name": "Vinylmethyldimethoxysilane",
    "cn_name": "甲基乙烯基二甲氧基硅烷;",
    "alternate_name": "Silane, ethenyldimethoxymethyl-;Silane, dimethoxymethylvinyl-;Ethenyldimethoxymethylsilane;Vinylmethyldimethoxysilane;Methyldimethoxyvinylsilane;Dimethoxymethylvinylsilane;Methylvinyldimethoxysilane;Geniosil XL 12;Silquest A 2171;A 2171;D 3386;LMD 23;Vinyldimethoxymethylsilane;DB 174;DB 174 (coupling agent);SCA-V 71T;KH 1710;Z 2349;Dowsil Z 2349",
    "duplicated_cas_no": "911200-88-9",
    "SMILES": "[Si](C=C)(OC)(OC)C",
    "meta_data": {
        "InChI": "InChI=1S/C5H12O2Si/c1-5-8(4,6-2)7-3/h5H,1H2,2-4H3",
        "InChIKey": null,
        "Canonical SMILES": "O(C)[Si](OC)(C=C)C",
        "Molecular Formula": "C<sub>5</sub>H<sub>12</sub>O<sub>2</sub>Si",
        "Molecular Mass": "132.23",
        "Boiling Point": "103 °C",
        "Density": "0.889 g/cm³"
    }
}