{
    "cas_no": "10284-63-6",
    "key_name": "(+)-Pinitol",
    "cn_name": null,
    "alternate_name": "<span class=\"text-smallcaps\">D</span>-<em>chiro</em>-Inositol, 3-<em>O</em>-methyl-;Inositol, 3-<em>O</em>-methyl-, <span class=\"text-smallcaps\">D</span>-<em>chiro</em>-;Pinitol, (+)-;3-<em>O</em>-Methyl-<span class=\"text-smallcaps\">D</span>-<em>chiro</em>-inositol;<span class=\"text-smallcaps\">D</span>-Pinitol;3-<em>O</em>-Methyl-(+)-<em>chiro</em>-inositol;(+)-Pinitol;<span class=\"text-smallcaps\">D</span>-(+)-Pinitol;Pinite (inositol derivative);Matezit;Sennit;Pinit;Sennitol;<em>d</em>-Pinitol;Pinitol;Inzitol;Pinitol B;<span class=\"text-smallcaps\">D</span>-3-<em>O</em>-Methyl-<em>chiro</em>-inositol;Caro pinitol P;Caro Pinitol P",
    "duplicated_cas_no": "",
    "SMILES": "O(C)[C@@H]1[C@@H](O)[C@@H](O)[C@H](O)[C@H](O)[C@H]1O",
    "meta_data": {
        "InChI": "InChI=1S/C7H14O6/c1-13-7-5(11)3(9)2(8)4(10)6(7)12/h2-12H,1H3/t2-,3-,4-,5-,6+,7+/m0/s1",
        "InChIKey": null,
        "Canonical SMILES": "OC1C(O)C(O)C(OC)C(O)C1O",
        "Molecular Formula": "C<sub>7</sub>H<sub>14</sub>O<sub>6</sub>",
        "Molecular Mass": "194.18",
        "Melting Point": "188 °C"
    }
}