{
    "cas_no": "626-43-7",
    "key_name": "3,5-Dichloroaniline",
    "cn_name": "3,5-二氯苯胺;",
    "alternate_name": "Benzenamine, 3,5-dichloro-;Aniline, 3,5-dichloro-;3,5-Dichlorobenzenamine;3,5-Dichloroaniline;3,5-Dichlorophenylamine;3,5-Dichlorolaniline;3,5-DCA",
    "duplicated_cas_no": "",
    "SMILES": "ClC1=CC(Cl)=CC(N)=C1",
    "meta_data": {
        "InChI": "InChI=1S/C6H5Cl2N/c7-4-1-5(8)3-6(9)2-4/h1-3H,9H2",
        "InChIKey": null,
        "Canonical SMILES": "ClC=1C=C(Cl)C=C(N)C1",
        "Molecular Formula": "C<sub>6</sub>H<sub>5</sub>Cl<sub>2</sub>N",
        "Molecular Mass": "162.02",
        "Boiling Point": "260 °C @ Press: 741 Torr",
        "Melting Point": "51-53 °C",
        "Density": "1.58 g/cm³"
    }
}