{
    "cas_no": "7440-59-7",
    "key_name": "Helium",
    "cn_name": "高纯氦;氦气;",
    "alternate_name": "Helium;Helium-4;<em>o</em>-Helium;<em>p</em>-Helium;Atomic helium;MeSH ID: D006371",
    "duplicated_cas_no": "494798-31-1;1312815-28-3",
    "SMILES": "[He]",
    "meta_data": {
        "InChI": "InChI=1S/He",
        "InChIKey": null,
        "Canonical SMILES": "[He]",
        "Molecular Formula": "He",
        "Molecular Mass": "",
        "Boiling Point": "-268.9 °C",
        "Melting Point": "-272.2 °C",
        "Density": "3.13 g/cm³"
    }
}