{
    "cas_no": "5398-27-6",
    "key_name": "2,6-Diiodo-4-nitrobenzenamine",
    "cn_name": "二碘-4-硝基苯胺;2,6-二碘-4-硝基苯胺;2,6-二碘对硝基苯胺;",
    "alternate_name": "Benzenamine, 2,6-diiodo-4-nitro-;Aniline, 2,6-diiodo-4-nitro-;2,6-Diiodo-4-nitrobenzenamine;2,6-Diiodo-4-nitroaniline;4-Nitro-2,6-diiodoaniline;2,6-Diiodo-<em>p</em>-nitroaniline;NSC 4606;2,6-Diiodo-4-nitro-phenylamine",
    "duplicated_cas_no": "",
    "SMILES": "N(=O)(=O)C1=CC(I)=C(N)C(I)=C1",
    "meta_data": {
        "InChI": "InChI=1S/C6H4I2N2O2/c7-4-1-3(10(11)12)2-5(8)6(4)9/h1-2H,9H2",
        "InChIKey": null,
        "Canonical SMILES": "O=N(=O)C1=CC(I)=C(N)C(I)=C1",
        "Molecular Formula": "C<sub>6</sub>H<sub>4</sub>I<sub>2</sub>N<sub>2</sub>O<sub>2</sub>",
        "Molecular Mass": "389.92",
        "Melting Point": "245 °C"
    }
}