{
    "cas_no": "16590-41-3",
    "key_name": "Naltrexone",
    "cn_name": "纳曲酮;纳屈酮;17-(环丙甲基)-4,5-环氧-3,14-二羟基吗啡烷-6-酮;",
    "alternate_name": "Morphinan-6-one, 17-(cyclopropylmethyl)-4,5-epoxy-3,14-dihydroxy-, (5α)-;Morphinan-6-one, 17-(cyclopropylmethyl)-4,5α-epoxy-3,14-dihydroxy-;(5α)-17-(Cyclopropylmethyl)-4,5-epoxy-3,14-dihydroxymorphinan-6-one;1-<em>N</em>-Cyclopropylmethyl-7,8-dihydro-14-hydroxynormorphinone;<em>N</em>-Cyclopropylmethylnoroxymorphone;Naltrexone;EN 1639;Depotrex;Nemexin;UM 792;Naltrel;Trexonil;Vivitrex;Vivitrol;(-)-Naltrexone;MeSH ID: D009271",
    "duplicated_cas_no": "",
    "SMILES": "O[C@]12[C@@]34C=5C(O[C@]3(C(=O)CC1)[H])=C(O)C=CC5C[C@]2(N(CC6CC6)CC4)[H]",
    "meta_data": {
        "InChI": "InChI=1S/C20H23NO4/c22-13-4-3-12-9-15-20(24)6-5-14(23)18-19(20,16(12)17(13)25-18)7-8-21(15)10-11-1-2-11/h3-4,11,15,18,22,24H,1-2,5-10H2/t15-,18+,19+,20-/m1/s1",
        "InChIKey": null,
        "Canonical SMILES": "O=C1CCC2(O)C3N(CCC42C5=C(OC14)C(O)=CC=C5C3)CC6CC6",
        "Molecular Formula": "C<sub>20</sub>H<sub>23</sub>NO<sub>4</sub>",
        "Molecular Mass": "341.40",
        "Melting Point": "168-170 °C"
    }
}