{
    "cas_no": "1677-48-1",
    "key_name": "5,6-Dichloroisatin",
    "cn_name": null,
    "alternate_name": "1<em>H</em>-Indole-2,3-dione, 5,6-dichloro-;Indole-2,3-dione, 5,6-dichloro-;5,6-Dichloro-1<em>H</em>-indole-2,3-dione;5,6-Dichloroisatin",
    "duplicated_cas_no": "",
    "SMILES": "O=C1C=2C(NC1=O)=CC(Cl)=C(Cl)C2",
    "meta_data": {
        "InChI": "InChI=1S/C8H3Cl2NO2/c9-4-1-3-6(2-5(4)10)11-8(13)7(3)12/h1-2H,(H,11,12,13)",
        "InChIKey": null,
        "Canonical SMILES": "O=C1NC2=CC(Cl)=C(Cl)C=C2C1=O",
        "Molecular Formula": "C<sub>8</sub>H<sub>3</sub>Cl<sub>2</sub>NO<sub>2</sub>",
        "Molecular Mass": "216.02",
        "Melting Point": "273-275 °C"
    }
}