{
    "cas_no": "68819-84-1",
    "key_name": "1,1-Dimethylethyl <em>N</em>-[(4-bromophenyl)methyl]carbamate",
    "cn_name": null,
    "alternate_name": "Carbamic acid, <em>N</em>-[(4-bromophenyl)methyl]-, 1,1-dimethylethyl ester;Carbamic acid, [(4-bromophenyl)methyl]-, 1,1-dimethylethyl ester;1,1-Dimethylethyl <em>N</em>-[(4-bromophenyl)methyl]carbamate;4-Bromo-<em>N</em>-BOC-benzylamine;<em>N</em>-Boc-4-bromobenzylamine;<em>tert</em>-Butyl (4-bromobenzyl)carbamate;(4-Bromobenzyl)carbamic acid tert-butyl ester;<em>N</em>-(4-Bromobenzyl)carbamic acid tert-butyl ester;<em>tert</em>-Butyl <em>N</em>-(4-bromobenzyl)carbamate;<em>N</em>-<em>tert</em>-Butoxycarbonyl-4-bromobenzylamine;<em>tert</em>-Butyl <em>N</em>-[(4-bromophenyl)methyl]carbamate",
    "duplicated_cas_no": "",
    "SMILES": "C(NC(OC(C)(C)C)=O)C1=CC=C(Br)C=C1",
    "meta_data": {
        "InChI": "InChI=1S/C12H16BrNO2/c1-12(2,3)16-11(15)14-8-9-4-6-10(13)7-5-9/h4-7H,8H2,1-3H3,(H,14,15)",
        "InChIKey": null,
        "Canonical SMILES": "O=C(OC(C)(C)C)NCC1=CC=C(Br)C=C1",
        "Molecular Formula": "C<sub>12</sub>H<sub>16</sub>BrNO<sub>2</sub>",
        "Molecular Mass": "286.16",
        "Melting Point": "86-88 °C"
    }
}