{
    "cas_no": "14472-14-1",
    "key_name": "4-Bromo-3-methylphenol",
    "cn_name": "4-溴-3-甲基苯酚;",
    "alternate_name": "Phenol, 4-bromo-3-methyl-;<em>m</em>-Cresol, 4-bromo-;4-Bromo-3-methylphenol;4-Bromo-<em>m</em>-cresol;<em>p</em>-Bromo-<em>m</em>-xylenol;2-Bromo-5-hydroxytoluene;3-Methyl-4-bromophenol",
    "duplicated_cas_no": "",
    "SMILES": "CC1=C(Br)C=CC(O)=C1",
    "meta_data": {
        "InChI": "InChI=1S/C7H7BrO/c1-5-4-6(9)2-3-7(5)8/h2-4,9H,1H3",
        "InChIKey": null,
        "Canonical SMILES": "BrC1=CC=C(O)C=C1C",
        "Molecular Formula": "C<sub>7</sub>H<sub>7</sub>BrO",
        "Molecular Mass": "187.03",
        "Boiling Point": "123-142 °C @ Press: 20 Torr",
        "Melting Point": "63.5 °C"
    }
}