{
    "cas_no": "625-53-6",
    "key_name": "Ethylthiourea",
    "cn_name": "乙基硫脲;",
    "alternate_name": "Thiourea, <em>N</em>-ethyl-;Urea, 1-ethyl-2-thio-;Thiourea, ethyl-;<em>N</em>-Ethylthiourea;Ethylthiourea;ENT 61326;1-Ethylthiourea;1-Ethyl-2-thiourea;<em>N</em>-Ethylthiocarbamide;NSC 62921",
    "duplicated_cas_no": "",
    "SMILES": "N(C(N)=S)CC",
    "meta_data": {
        "InChI": "InChI=1S/C3H8N2S/c1-2-5-3(4)6/h2H2,1H3,(H3,4,5,6)",
        "InChIKey": null,
        "Canonical SMILES": "S=C(N)NCC",
        "Molecular Formula": "C<sub>3</sub>H<sub>8</sub>N<sub>2</sub>S",
        "Molecular Mass": "104.17",
        "Boiling Point": "132 °C",
        "Melting Point": "112 °C"
    }
}