{
    "cas_no": "88-82-4",
    "key_name": "2,3,5-Triiodobenzoic acid",
    "cn_name": "2,3,5-三碘苯甲酸;",
    "alternate_name": "Benzoic acid, 2,3,5-triiodo-;2,3,5-Triiodobenzoic acid;TIB;TIBA;2,3,5-TIBA;Triiodobenzoic acid;Floraltone;Johnkolor;A 20812;NSC 2582",
    "duplicated_cas_no": "",
    "SMILES": "C(O)(=O)C1=C(I)C(I)=CC(I)=C1",
    "meta_data": {
        "InChI": "InChI=1S/C7H3I3O2/c8-3-1-4(7(11)12)6(10)5(9)2-3/h1-2H,(H,11,12)",
        "InChIKey": null,
        "Canonical SMILES": "O=C(O)C=1C=C(I)C=C(I)C1I",
        "Molecular Formula": "C<sub>7</sub>H<sub>3</sub>I<sub>3</sub>O<sub>2</sub>",
        "Molecular Mass": "499.81",
        "Melting Point": "224-226 °C"
    }
}