{
    "cas_no": "52980-28-6",
    "key_name": "Ethyl 4-oxo-1,4-dihydroquinoline-3-carboxylate",
    "cn_name": null,
    "alternate_name": "3-Quinolinecarboxylic acid, 1,4-dihydro-4-oxo-, ethyl ester;3-Ethoxycarbonyl-4(1<em>H</em>)-quinolone;4-Oxo-1,4-dihydroquinoline-3-carboxylic acid ethyl ester;Ethyl 1,4-dihydro-4-oxoquinoline-3-carboxylate;Ethyl 4-oxo-1,4-dihydroquinoline-3-carboxylate;1,4-Dihydro-4-oxo-3-quinolinecarboxylic Acid Ethyl Ester",
    "duplicated_cas_no": "2415504-67-3",
    "SMILES": "O=C1C=2C(NC=C1C(OCC)=O)=CC=CC2",
    "meta_data": {
        "InChI": "InChI=1S/C12H11NO3/c1-2-16-12(15)9-7-13-10-6-4-3-5-8(10)11(9)14/h3-7H,2H2,1H3,(H,13,14)",
        "InChIKey": null,
        "Canonical SMILES": "O=C(OCC)C1=CNC=2C=CC=CC2C1=O",
        "Molecular Formula": "C<sub>12</sub>H<sub>11</sub>NO<sub>3</sub>",
        "Molecular Mass": "217.22",
        "Melting Point": "&gt;250 °C"
    }
}