{
    "cas_no": "102-47-6",
    "key_name": "3,4-Dichlorobenzyl chloride",
    "cn_name": "3,4-二氯苄基氯;3,4-二氯氯苄;",
    "alternate_name": "Benzene, 1,2-dichloro-4-(chloromethyl)-;Toluene, α,3,4-trichloro-;1,2-Dichloro-4-(chloromethyl)benzene;3,4-Dichlorobenzyl chloride;α,3,4-Trichlorotoluene;3,4-Dichlorophenylmethyl chloride;3,4,α-Trichlorotoluene;NSC 406893;3,4-Dichloro-1-(chloromethyl)benzene;4-Chloromethyl-1,2-dichlorobenzene",
    "duplicated_cas_no": "",
    "SMILES": "C(Cl)C1=CC(Cl)=C(Cl)C=C1",
    "meta_data": {
        "InChI": "InChI=1S/C7H5Cl3/c8-4-5-1-2-6(9)7(10)3-5/h1-3H,4H2",
        "InChIKey": null,
        "Canonical SMILES": "ClC1=CC=C(C=C1Cl)CCl",
        "Molecular Formula": "C<sub>7</sub>H<sub>5</sub>Cl<sub>3</sub>",
        "Molecular Mass": "195.47",
        "Boiling Point": "241 °C",
        "Melting Point": "37.5 °C",
        "Density": "1.4073 g/cm³ @ Temp: 20 °C"
    }
}