{
    "cas_no": "1604-28-0",
    "key_name": "6-Methylhepta-3,5-dien-2-one",
    "cn_name": "6-甲基-3,5-戊二烯-2-酮;6-甲基-3,5-庚二烯-2-酮;",
    "alternate_name": "3,5-Heptadien-2-one, 6-methyl-;6-Methyl-3,5-heptadien-2-one;6-Methylhepta-3,5-dien-2-one;2-Methyl-2,4-heptadien-6-one;6-Methylhepta-3,5-diene-2-one",
    "duplicated_cas_no": "",
    "SMILES": "C(C=C(C)C)=CC(C)=O",
    "meta_data": {
        "InChI": "InChI=1S/C8H12O/c1-7(2)5-4-6-8(3)9/h4-6H,1-3H3",
        "InChIKey": null,
        "Canonical SMILES": "O=C(C=CC=C(C)C)C",
        "Molecular Formula": "C<sub>8</sub>H<sub>12</sub>O",
        "Molecular Mass": "124.18",
        "Boiling Point": "83-83.5 °C @ Press: 9 Torr",
        "Density": "0.897 g/cm³ @ Temp: 19 °C"
    }
}