{
    "cas_no": "5106-98-9",
    "key_name": "4-Chlorosalicylic acid",
    "cn_name": "4-氯水杨酸;",
    "alternate_name": "Benzoic acid, 4-chloro-2-hydroxy-;Salicylic acid, 4-chloro-;4-Chloro-2-hydroxybenzoic acid;4-Chlorosalicylic acid;2-Hydroxy-4-chlorobenzoic acid;<em>p</em>-Chlorosalicylic acid;NSC 15816",
    "duplicated_cas_no": "",
    "SMILES": "C(O)(=O)C1=C(O)C=C(Cl)C=C1",
    "meta_data": {
        "InChI": "InChI=1S/C7H5ClO3/c8-4-1-2-5(7(10)11)6(9)3-4/h1-3,9H,(H,10,11)",
        "InChIKey": null,
        "Canonical SMILES": "O=C(O)C1=CC=C(Cl)C=C1O",
        "Molecular Formula": "C<sub>7</sub>H<sub>5</sub>ClO<sub>3</sub>",
        "Molecular Mass": "172.57",
        "Melting Point": "211 °C"
    }
}