{
    "cas_no": "24476-55-9",
    "key_name": "1-[(4-Methylphenyl)sulfonyl]-4-phenyl-4-piperidinecarbonitrile",
    "cn_name": null,
    "alternate_name": "4-Piperidinecarbonitrile, 1-[(4-methylphenyl)sulfonyl]-4-phenyl-;Isonipecotonitrile, 4-phenyl-1-(<em>p</em>-tolylsulfonyl)-;1-[(4-Methylphenyl)sulfonyl]-4-phenyl-4-piperidinecarbonitrile;4-Phenyl-1-(4-tolylsulfonyl)piperidine-4-carbonitrile;1-(4-Methylbenzenesulfonyl)-4-phenylpiperidine-4-carbonitrile",
    "duplicated_cas_no": "",
    "SMILES": "C(#N)C1(CCN(S(=O)(=O)C2=CC=C(C)C=C2)CC1)C3=CC=CC=C3",
    "meta_data": {
        "InChI": "InChI=1S/C19H20N2O2S/c1-16-7-9-18(10-8-16)24(22,23)21-13-11-19(15-20,12-14-21)17-5-3-2-4-6-17/h2-10H,11-14H2,1H3",
        "InChIKey": null,
        "Canonical SMILES": "N#CC1(C=2C=CC=CC2)CCN(CC1)S(=O)(=O)C3=CC=C(C=C3)C",
        "Molecular Formula": "C<sub>19</sub>H<sub>20</sub>N<sub>2</sub>O<sub>2</sub>S",
        "Molecular Mass": "340.44",
        "Melting Point": "200-201 °C"
    }
}