{
    "cas_no": "1074-12-0",
    "key_name": "Phenylglyoxal",
    "cn_name": "苯基丙醇水合物;",
    "alternate_name": "Benzeneacetaldehyde, α-oxo-;Glyoxal, phenyl-;α-Oxobenzeneacetaldehyde;Formaldehyde, benzoyl-;Phenylglyoxal;Phenylethanedione;1-Phenyl-1,2-ethanedione;Benzoylcarboxaldehyde;Benzoylformaldehyde;Phenylglyoxaldehyde;2-Phenyl-2-oxoacetaldehyde;1-Phenylglyoxal;NSC 156299;NSC 26909;NSC 627436;Phenylethanedial;2-Oxo-2-phenylethanal;2-Oxo-2-phenylacetaldehyde;MeSH ID: D010658",
    "duplicated_cas_no": "942650-33-1",
    "SMILES": "C(C=O)(=O)C1=CC=CC=C1",
    "meta_data": {
        "InChI": "InChI=1S/C8H6O2/c9-6-8(10)7-4-2-1-3-5-7/h1-6H",
        "InChIKey": null,
        "Canonical SMILES": "O=CC(=O)C=1C=CC=CC1",
        "Molecular Formula": "C<sub>8</sub>H<sub>6</sub>O<sub>2</sub>",
        "Molecular Mass": "134.13",
        "Boiling Point": "108-110 °C @ Press: 15 Torr",
        "Melting Point": "123 °C"
    }
}