{
    "cas_no": "29420-49-3",
    "key_name": "Potassium perfluorobutanesulfonate",
    "cn_name": "全氟丁基磺酸钾;FC-98;",
    "alternate_name": "1-Butanesulfonic acid, 1,1,2,2,3,3,4,4,4-nonafluoro-, potassium salt (1:1);1-Butanesulfonic acid, 1,1,2,2,3,3,4,4,4-nonafluoro-, potassium salt;Potassium perfluorobutanesulfonate;Potassium nonaflate;Potassium nonafluorobutanesulfonate;Potassium perfluoro-1-butanesulfonate;F 114;Megafac F 114;Megafac F 114P;F 114P;Bayowet C 4;Perfluorobutanesulfonic acid potassium salt;Flutel RM 65;RM 65;Eftop KFBS;FR 2025;Megafac F 411;KFBS;Potassium nonafluoro-1-butanesulfonate;FR 2225;Biowet C 4;K-NONA;PPBS;Nanofluorobutanesulfonic acid potassium salt;Bayowet C 4TP-AC2001;Chemguard 411;FR 2050;Nonafluoro-1-butanesulfonate potassium salt;EF 42;Potassium perfluorobutylsulfonate;Megafac F 144P;Nonafluorobutanesulfonic acid potassium salt;PPFBS;IHT-FR 21;PFBSA;Poatssium perfluorobutanesulfonate;KPFBS;Megaface F 114;KPBS;FR 2015;BU-C 4K;FR 2025A;Eftop KSBF;SC 4 (sulfonate);SC 4",
    "duplicated_cas_no": "2409599-01-3",
    "SMILES": "C(C(C(F)(F)F)(F)F)(C(S(=O)(=O)O)(F)F)(F)F.[K]",
    "meta_data": {
        "InChI": "InChI=1S/C4HF9O3S.K/c5-1(6,3(9,10)11)2(7,8)4(12,13)17(14,15)16;/h(H,14,15,16);",
        "InChIKey": null,
        "Canonical SMILES": "[K].O=S(=O)(O)C(F)(F)C(F)(F)C(F)(F)C(F)(F)F",
        "Molecular Formula": "C<sub>4</sub>HF<sub>9</sub>O<sub>3</sub>S.K",
        "Molecular Mass": "",
        "Melting Point": "~450 °C (decomp) (approx)"
    }
}