{
    "cas_no": "1521-39-7",
    "key_name": "2,3-Dimethoxybenzamide",
    "cn_name": null,
    "alternate_name": "Benzamide, 2,3-dimethoxy-;<em>o</em>-Veratramide;2,3-Dimethoxybenzamide;NSC 2353;NSC 40843",
    "duplicated_cas_no": "",
    "SMILES": "O(C)C1=C(C(N)=O)C=CC=C1OC",
    "meta_data": {
        "InChI": "InChI=1S/C9H11NO3/c1-12-7-5-3-4-6(9(10)11)8(7)13-2/h3-5H,1-2H3,(H2,10,11)",
        "InChIKey": null,
        "Canonical SMILES": "O=C(N)C=1C=CC=C(OC)C1OC",
        "Molecular Formula": "C<sub>9</sub>H<sub>11</sub>NO<sub>3</sub>",
        "Molecular Mass": "181.19",
        "Melting Point": "236-237 °C"
    }
}