{
    "cas_no": "16941-12-1",
    "key_name": "Chloroplatinic acid",
    "cn_name": "氯铂酸;",
    "alternate_name": "Platinate(2-), hexachloro-, hydrogen (1:2), (<em>OC</em>-6-11)-;Platinate(2-), hexachloro-, dihydrogen, (<em>OC</em>-6-11)-;Platinate(2-), hexachloro-, dihydrogen;Chloroplatinic(IV) acid;Chloroplatinic acid;Chloroplatinic(IV) acid (H<sub>2</sub>PtCl<sub>6</sub>);Hydrogen hexachloroplatinate(IV);Hexachloroplatinic acid;Dihydrogen hexachloroplatinate;Dihydrogen hexachloroplatinate(2-);Platinum chloride (H<sub>2</sub>PtCl<sub>6</sub>);Hexachloroplatinic(IV) acid;Platinic chloride;Hexachloroplatinic acid (H<sub>2</sub>PtCl<sub>6</sub>);Speier's catalyst;Hydrogen platinum chloride (H<sub>2</sub>PtCl<sub>6</sub>);Platinic acid (H<sub>2</sub>PtCl<sub>6</sub>);Hydrogen chloroplatinate (H<sub>2</sub>PtCl<sub>6</sub>);Hydrogen hexachloroplatinate;PL 50T;CAT-PL 50T;Hydrogen hexachlorideplatinate (H<sub>2</sub>PtCl<sub>6</sub>);D 165;CSAT-F 50030",
    "duplicated_cas_no": "1335-29-1;60322-59-0;60605-43-8;70227-39-3;97301-98-9;98032-39-4;110972-89-9;127521-16-8;131620-42-3;140889-50-5;143337-19-3;148880-59-5;1431865-84-7",
    "SMILES": "[Pt+4]([Cl-])([Cl-])([Cl-])([Cl-])([Cl-])[Cl-].[H+]",
    "meta_data": {
        "InChI": "InChI=1S/6ClH.Pt/h6*1H;/q;;;;;;+4/p-4",
        "InChIKey": null,
        "Canonical SMILES": "[H+].[Cl-][Pt+4]([Cl-])([Cl-])([Cl-])([Cl-])[Cl-]",
        "Molecular Formula": "Cl<sub>6</sub>Pt.2H",
        "Molecular Mass": "",
        "Melting Point": "207 °C (decomp)"
    }
}