{
    "cas_no": "15430-52-1",
    "key_name": "2-Propyn-1-amine, hydrochloride",
    "cn_name": "丙炔胺盐酸盐;",
    "alternate_name": "2-Propyn-1-amine, hydrochloride;2-Propynylamine, hydrochloride;Propargylamine hydrochloride;Propargylammonium chloride;Propynylammonium chloride",
    "duplicated_cas_no": "282101-93-3",
    "SMILES": "C(CN)#C.Cl",
    "meta_data": {
        "InChI": "InChI=1S/C3H5N.ClH/c1-2-3-4;/h1H,3-4H2;1H",
        "InChIKey": null,
        "Canonical SMILES": "Cl.C#CCN",
        "Molecular Formula": "C<sub>3</sub>H<sub>5</sub>N.ClH",
        "Molecular Mass": "",
        "Melting Point": "178-179 °C"
    }
}