{
    "cas_no": "28785-06-0",
    "key_name": "4-Propylbenzaldehyde",
    "cn_name": "4-丙基苯甲醛;",
    "alternate_name": "Benzaldehyde, 4-propyl-;Benzaldehyde, <em>p</em>-propyl-;4-Propylbenzaldehyde;<em>p</em>-Propylbenzaldehyde;4-(<em>n</em>-Propyl)benzaldehyde;[4-Propylphenyl]methanone",
    "duplicated_cas_no": "",
    "SMILES": "C(CC)C1=CC=C(C=O)C=C1",
    "meta_data": {
        "InChI": "InChI=1S/C10H12O/c1-2-3-9-4-6-10(8-11)7-5-9/h4-8H,2-3H2,1H3",
        "InChIKey": null,
        "Canonical SMILES": "O=CC1=CC=C(C=C1)CCC",
        "Molecular Formula": "C<sub>10</sub>H<sub>12</sub>O",
        "Molecular Mass": "148.20",
        "Boiling Point": "95 °C @ Press: 6 Torr",
        "Melting Point": "19 °C"
    }
}