{
    "cas_no": "51591-38-9",
    "key_name": "Diacetyltartaric acid",
    "cn_name": "(-)-乙酰基-L-酒石酸;",
    "alternate_name": "Butanedioic acid, 2,3-bis(acetyloxy)-, (2<em>R</em>,3<em>R</em>)-;Butanedioic acid, 2,3-bis(acetyloxy)-, [<em>R</em>-(<em>R</em>*,<em>R</em>*)]-;(2<em>R</em>,3<em>R</em>)-2,3-Bis(acetyloxy)butanedioic acid;Tartaric acid diacetate;DAWE;Diacetyltartaric acid;(<em>R</em>,<em>R</em>)-2,3-Diacetoxy-1,4-butanedioic acid;<span class=\"text-smallcaps\">L</span>-Diacetyltartaric acid",
    "duplicated_cas_no": "101489-39-8;106779-29-7;120111-83-3;83529-36-6",
    "SMILES": "[C@H]([C@@H](OC(C)=O)C(O)=O)(OC(C)=O)C(O)=O",
    "meta_data": {
        "InChI": "InChI=1S/C8H10O8/c1-3(9)15-5(7(11)12)6(8(13)14)16-4(2)10/h5-6H,1-2H3,(H,11,12)(H,13,14)/t5-,6-/m1/s1",
        "InChIKey": null,
        "Canonical SMILES": "O=C(O)C(OC(=O)C)C(OC(=O)C)C(=O)O",
        "Molecular Formula": "C<sub>8</sub>H<sub>10</sub>O<sub>8</sub>",
        "Molecular Mass": "234.16",
        "Melting Point": "118 °C"
    }
}