{
    "cas_no": "15788-16-6",
    "key_name": "1<em>H</em>-Benzimidazole-5-carboxylic acid",
    "cn_name": "1H-苯并咪唑-5-羧酸;苯并咪唑-5-甲酸;",
    "alternate_name": "1<em>H</em>-Benzimidazole-6-carboxylic acid;5-Benzimidazolecarboxylic acid;1<em>H</em>-Benzimidazole-5-carboxylic acid;5-Carboxybenzimidazole;3<em>H</em>-Benzimidazole-5-carboxylic acid;Benzimidazole-6-carboxylic acid;3<em>H</em>-Benzo[<em>d</em>]imidazole-5-carboxylic acid;1<em>H</em>-7-Benzo[<em>d</em>]imidazole-6-carboxylic acid;1<em>H</em>-1,3-Benzodiazole-5-carboxylic acid;1<em>H</em>-1,3-Benzodiazole-6-carboxylic acid",
    "duplicated_cas_no": "",
    "SMILES": "C(O)(=O)C=1C=C2C(=CC1)N=CN2",
    "meta_data": {
        "InChI": "InChI=1S/C8H6N2O2/c11-8(12)5-1-2-6-7(3-5)10-4-9-6/h1-4H,(H,9,10)(H,11,12)",
        "InChIKey": null,
        "Canonical SMILES": "O=C(O)C=1C=CC=2N=CNC2C1",
        "Molecular Formula": "C<sub>8</sub>H<sub>6</sub>N<sub>2</sub>O<sub>2</sub>",
        "Molecular Mass": "162.15",
        "Melting Point": "325 °C (decomp)"
    }
}