{
    "cas_no": "42389-57-1",
    "key_name": "3-Amino-1-methylpiperidine",
    "cn_name": null,
    "alternate_name": "3-Piperidinamine, 1-methyl-;Piperidine, 3-amino-1-methyl-;1-Methyl-3-piperidinamine;3-Amino-1-methylpiperidine;1-Methylpiperidin-3-ylamine",
    "duplicated_cas_no": "",
    "SMILES": "NC1CN(C)CCC1",
    "meta_data": {
        "InChI": "InChI=1S/C6H14N2/c1-8-4-2-3-6(7)5-8/h6H,2-5,7H2,1H3",
        "InChIKey": null,
        "Canonical SMILES": "NC1CN(C)CCC1",
        "Molecular Formula": "C<sub>6</sub>H<sub>14</sub>N<sub>2</sub>",
        "Molecular Mass": "114.19",
        "Boiling Point": "74-75 °C @ Press: 43 Torr"
    }
}