{
    "cas_no": "1050477-31-0",
    "key_name": "(4<em>S</em>)-4-(4-Cyano-2-methoxyphenyl)-5-ethoxy-1,4-dihydro-2,8-dimethyl-1,6-naphthyridine-3-carboxamide",
    "cn_name": null,
    "alternate_name": "1,6-Naphthyridine-3-carboxamide, 4-(4-cyano-2-methoxyphenyl)-5-ethoxy-1,4-dihydro-2,8-dimethyl-, (4<em>S</em>)-;(4<em>S</em>)-4-(4-Cyano-2-methoxyphenyl)-5-ethoxy-1,4-dihydro-2,8-dimethyl-1,6-naphthyridine-3-carboxamide;BAY 94-8862;Finerenone",
    "duplicated_cas_no": "1427070-86-7",
    "SMILES": "O(CC)C1=C2[C@@H](C(C(N)=O)=C(C)NC2=C(C)C=N1)C3=C(OC)C=C(C#N)C=C3",
    "meta_data": {
        "InChI": "InChI=1S/C21H22N4O3/c1-5-28-21-18-17(14-7-6-13(9-22)8-15(14)27-4)16(20(23)26)12(3)25-19(18)11(2)10-24-21/h6-8,10,17,25H,5H2,1-4H3,(H2,23,26)/t17-/m1/s1",
        "InChIKey": null,
        "Canonical SMILES": "N#CC1=CC=C(C(OC)=C1)C2C=3C(=NC=C(C3NC(=C2C(=O)N)C)C)OCC",
        "Molecular Formula": "C<sub>21</sub>H<sub>22</sub>N<sub>4</sub>O<sub>3</sub>",
        "Molecular Mass": "378.42",
        "Melting Point": "235-238 °C"
    }
}