{
    "cas_no": "78-08-0",
    "key_name": "Vinyltriethoxysilane",
    "cn_name": "乙烯基三乙氧基硅烷;",
    "alternate_name": "Silane, ethenyltriethoxy-;Silane, triethoxyvinyl-;Ethenyltriethoxysilane;Triethoxyvinylsilane;Vinyltriethoxysilane;NV 1107;Silane A 151;VTES;A 151;KBE 1003;Polyscience VTES;VTS-E;TSL 8311;Tri(ethoxo)(vinyl)silane;GF 56;UC-A 151;LS 2300;Silquest A 151;V 4910;Dynasylan VTEU;YGO 1203;Dynasylan VTEO;Sila-Ace S 220;S 220;VP-Si 225;WD 20;WD 20 (silane);Unisilan U 612;Unisilan 612;Geniosil GF 56;Si 255;SCA 1613;AH 151;EB 151;TM 12;NSC 151;JH-V 151;KH 151;NQ 71;DL 151;DB 151;Z 6519;YDH 151;AC 75;Silquest A 151NTJ;VTEO;Z 6518;A 151NTJ;Dow Corning 6518;LMD 151;Silaplane S 220;SCA-V 71E;KH 188;Xiameter OFS 6518;LT 151;GX 150;CG-V 151;SG-Si 151;Si 151;SG 151;T 103647;A 1522;A 1522 (crosslinker);Silquest A 151NT;FD 151;A 14374;KBM 5220;CG 151;A 2151 (silane);A 2151;NDZ 605;Sillitin VM 56",
    "duplicated_cas_no": "1029220-79-8;1233485-50-1;1391982-34-5;1609238-16-5;1633690-46-6",
    "SMILES": "[Si](OCC)(OCC)(OCC)C=C",
    "meta_data": {
        "InChI": "InChI=1S/C8H18O3Si/c1-5-9-12(8-4,10-6-2)11-7-3/h8H,4-7H2,1-3H3",
        "InChIKey": null,
        "Canonical SMILES": "O(CC)[Si](OCC)(OCC)C=C",
        "Molecular Formula": "C<sub>8</sub>H<sub>18</sub>O<sub>3</sub>Si",
        "Molecular Mass": "190.31",
        "Boiling Point": "160-161 °C",
        "Density": "0.903 g/cm³"
    }
}