{
    "cas_no": "606-26-8",
    "key_name": "2-Nitrobenzohydrazide",
    "cn_name": "2-硝基亚苯基肼;",
    "alternate_name": "Benzoic acid, 2-nitro-, hydrazide;Benzoic acid, <em>o</em>-nitro-, hydrazide;<em>o</em>-Nitrobenzoylhydrazine;<em>o</em>-Nitrobenzoic acid hydrazide;<em>o</em>-Nitrobenzhydrazide;2-Nitrobenzohydrazide;<em>o</em>-Nitrobenzoylhydrazide;2-Nitrobenzoic acid hydrazide;<em>o</em>-Nitrobenzoic hydrazide;2-Nitrobenzoylhydrazine;2-Nitrobenzenecarboxylic acid hydrazide;2-Nitrobenzoyl acid hydrazide;NSC 61870;2-Nitrobenzoic hydrazide;INHd 19;2-Nitrobenzoylhydrazide;2-Nitrobenzhydrazide",
    "duplicated_cas_no": "",
    "SMILES": "C(NN)(=O)C1=C(N(=O)=O)C=CC=C1",
    "meta_data": {
        "InChI": "InChI=1S/C7H7N3O3/c8-9-7(11)5-3-1-2-4-6(5)10(12)13/h1-4H,8H2,(H,9,11)",
        "InChIKey": null,
        "Canonical SMILES": "O=C(NN)C=1C=CC=CC1N(=O)=O",
        "Molecular Formula": "C<sub>7</sub>H<sub>7</sub>N<sub>3</sub>O<sub>3</sub>",
        "Molecular Mass": "181.15",
        "Melting Point": "124 °C"
    }
}