{
    "cas_no": "20816-79-9",
    "key_name": "1-Bromo-8-chloronaphthalene",
    "cn_name": null,
    "alternate_name": "Naphthalene, 1-bromo-8-chloro-;1-Bromo-8-chloronaphthalene",
    "duplicated_cas_no": "",
    "SMILES": "BrC=1C2=C(C=CC=C2Cl)C=CC1",
    "meta_data": {
        "InChI": "InChI=1S/C10H6BrCl/c11-8-5-1-3-7-4-2-6-9(12)10(7)8/h1-6H",
        "InChIKey": null,
        "Canonical SMILES": "ClC1=CC=CC=2C=CC=C(Br)C12",
        "Molecular Formula": "C<sub>10</sub>H<sub>6</sub>BrCl",
        "Molecular Mass": "241.51",
        "Boiling Point": "150-160 °C @ Press: 5-6 Torr",
        "Melting Point": "87-88 °C"
    }
}