{
    "cas_no": "584-85-0",
    "key_name": "Anserine",
    "cn_name": null,
    "alternate_name": "<span class=\"text-smallcaps\">L</span>-Histidine, β-alanyl-3-methyl-;Anserine;<span class=\"text-smallcaps\">L</span>-Histidine, <em>N</em>-β-alanyl-3-methyl-;Histidine, <em>N</em>-β-alanyl-3-methyl-, <span class=\"text-smallcaps\">L</span>-;β-Alanyl-3-methyl-<span class=\"text-smallcaps\">L</span>-histidine;<span class=\"text-smallcaps\">L</span>-Anserine;Marine Active;1: PN: WO2009033771 PAGE: 100 claimed protein;MeSH ID: D000861",
    "duplicated_cas_no": "1145-43-3",
    "SMILES": "C([C@H](NC(CCN)=O)C(O)=O)C=1N(C)C=NC1",
    "meta_data": {
        "InChI": "InChI=1S/C10H16N4O3/c1-14-6-12-5-7(14)4-8(10(16)17)13-9(15)2-3-11/h5-6,8H,2-4,11H2,1H3,(H,13,15)(H,16,17)/t8-/m0/s1",
        "InChIKey": null,
        "Canonical SMILES": "O=C(O)C(NC(=O)CCN)CC1=CN=CN1C",
        "Molecular Formula": "C<sub>10</sub>H<sub>16</sub>N<sub>4</sub>O<sub>3</sub>",
        "Molecular Mass": "240.26",
        "Melting Point": "231-232 °C"
    }
}