{
    "cas_no": "60102-29-6",
    "key_name": "2-[(3<em>R</em>)-3,4-Dihydro-7-methoxy-2<em>H</em>-1-benzopyran-3-yl]-5-methoxyphenol",
    "cn_name": null,
    "alternate_name": "Phenol, 2-[(3<em>R</em>)-3,4-dihydro-7-methoxy-2<em>H</em>-1-benzopyran-3-yl]-5-methoxy-;Phenol, 2-(3,4-dihydro-7-methoxy-2<em>H</em>-1-benzopyran-3-yl)-5-methoxy-, (<em>R</em>)-;2-[(3<em>R</em>)-3,4-Dihydro-7-methoxy-2<em>H</em>-1-benzopyran-3-yl]-5-methoxyphenol;Isosativan;(-)-Isosativan",
    "duplicated_cas_no": "3207-45-2",
    "SMILES": "OC1=C([C@H]2CC=3C(OC2)=CC(OC)=CC3)C=CC(OC)=C1",
    "meta_data": {
        "InChI": "InChI=1S/C17H18O4/c1-19-13-5-6-15(16(18)8-13)12-7-11-3-4-14(20-2)9-17(11)21-10-12/h3-6,8-9,12,18H,7,10H2,1-2H3/t12-/m0/s1",
        "InChIKey": null,
        "Canonical SMILES": "OC1=CC(OC)=CC=C1C2COC3=CC(OC)=CC=C3C2",
        "Molecular Formula": "C<sub>17</sub>H<sub>18</sub>O<sub>4</sub>",
        "Molecular Mass": "286.32",
        "Melting Point": "152-154 °C"
    }
}