{
    "cas_no": "65938-88-7",
    "key_name": "4-Pyridinesulfonamide",
    "cn_name": null,
    "alternate_name": "4-Pyridinesulfonamide",
    "duplicated_cas_no": "",
    "SMILES": "S(N)(=O)(=O)C=1C=CN=CC1",
    "meta_data": {
        "InChI": "InChI=1S/C5H6N2O2S/c6-10(8,9)5-1-3-7-4-2-5/h1-4H,(H2,6,8,9)",
        "InChIKey": null,
        "Canonical SMILES": "O=S(=O)(N)C=1C=CN=CC1",
        "Molecular Formula": "C<sub>5</sub>H<sub>6</sub>N<sub>2</sub>O<sub>2</sub>S",
        "Molecular Mass": "158.18",
        "Melting Point": "172-173 °C"
    }
}