{
    "cas_no": "6066-82-6",
    "key_name": "<em>N</em>-Hydroxysuccinimide",
    "cn_name": "N-羟基丁二酰亚胺;",
    "alternate_name": "2,5-Pyrrolidinedione, 1-hydroxy-;Succinimide, <em>N</em>-hydroxy-;1-Hydroxy-2,5-pyrrolidinedione;<em>N</em>-Hydroxysuccinimide;Hydroxysuccinimide;1-Hydroxysuccinimide;<em>N</em>-Hydroxy-2,5-dioxopyrrolidine;NSC 74335;<em>N</em>-Hydroxypyrrolidine-2,5-dione;NHS",
    "duplicated_cas_no": "",
    "SMILES": "ON1C(=O)CCC1=O",
    "meta_data": {
        "InChI": "InChI=1S/C4H5NO3/c6-3-1-2-4(7)5(3)8/h8H,1-2H2",
        "InChIKey": null,
        "Canonical SMILES": "O=C1N(O)C(=O)CC1",
        "Molecular Formula": "C<sub>4</sub>H<sub>5</sub>NO<sub>3</sub>",
        "Molecular Mass": "115.09",
        "Melting Point": "97-98 °C"
    }
}