{
    "cas_no": "9005-79-2",
    "key_name": "Glycogen",
    "cn_name": null,
    "alternate_name": "Glycogen;Animal starch;Liver starch;Lyoglycogen;Phytoglycogen;Hepatin;Liver glycogen;Biosaccharides LS-HG;MeSH ID: D006003",
    "duplicated_cas_no": "",
    "SMILES": "",
    "meta_data": {
        "InChI": "",
        "InChIKey": null,
        "Canonical SMILES": "",
        "Molecular Formula": "Unspecified",
        "Molecular Mass": "",
        "Melting Point": "148-149 °C",
        "Density": "1.629 g/cm³ @ Temp: -5 °C"
    }
}