{
    "uri": "substance/pt/9005792",
    "rn": "9005-79-2",
    "name": "Glycogen",
    "images": [],
    "inchi": "",
    "inchiKey": "",
    "smile": "",
    "canonicalSmile": "",
    "molecularFormula": "Unspecified",
    "molecularMass": "",
    "experimentalProperties": [
        {
            "name": "Melting Point",
            "property": "148-149 °C",
            "sourceNumber": 1
        },
        {
            "name": "Density",
            "property": "1.629 g/cm³ @ Temp: -5 °C",
            "sourceNumber": 2
        }
    ],
    "propertyCitations": [
        {
            "docUri": "document/pt/document/36022875",
            "sourceNumber": 1,
            "source": "Weng, Yi-Chun; Journal of Agricultural and Food Chemistry, (2010), 58(18), 10033-10038, CAplus"
        },
        {
            "docUri": "document/pt/document/21958105",
            "sourceNumber": 2,
            "source": "Beck, G.; Wiener Chemiker-Zeitung, (1943), 46, 18-22, CAplus"
        }
    ],
    "synonyms": [
        "Glycogen",
        "Animal starch",
        "Liver starch",
        "Lyoglycogen",
        "Phytoglycogen",
        "Hepatin",
        "Liver glycogen",
        "Biosaccharides LS-HG",
        "MeSH ID: D006003"
    ],
    "replacedRns": [],
    "hasMolfile": false,
    "source": "https://commonchemistry.cas.org/detail?cas_rn=9005-79-2"
}