{
    "cas_no": "39213-22-4",
    "key_name": "3,5-Bis(trifluoromethyl)benzenesulfonamide",
    "cn_name": null,
    "alternate_name": "Benzenesulfonamide, 3,5-bis(trifluoromethyl)-;3,5-Bis(trifluoromethyl)benzenesulfonamide;3,5-Bis(trifluoromethyl)benzene-1-sulfonamide",
    "duplicated_cas_no": "",
    "SMILES": "C(F)(F)(F)C1=CC(C(F)(F)F)=CC(S(N)(=O)=O)=C1",
    "meta_data": {
        "InChI": "InChI=1S/C8H5F6NO2S/c9-7(10,11)4-1-5(8(12,13)14)3-6(2-4)18(15,16)17/h1-3H,(H2,15,16,17)",
        "InChIKey": null,
        "Canonical SMILES": "O=S(=O)(N)C=1C=C(C=C(C1)C(F)(F)F)C(F)(F)F",
        "Molecular Formula": "C<sub>8</sub>H<sub>5</sub>F<sub>6</sub>NO<sub>2</sub>S",
        "Molecular Mass": "293.19",
        "Melting Point": "184.5-185 °C"
    }
}