{
    "cas_no": "120-89-8",
    "key_name": "Parabanic acid",
    "cn_name": "2,4,5-咪唑啉三酮;仲班酸(乙二酰脲);2,4,5-咪唑啉三酮;草醯脲;咪唑啶三酮;乙二醯脲;",
    "alternate_name": "2,4,5-Imidazolidinetrione;Parabanic acid;Imidazolidinetrione;Oxalylurea;Trioxoimidazolidine;NSC 9789;Parabenic acid",
    "duplicated_cas_no": "",
    "SMILES": "O=C1C(=O)NC(=O)N1",
    "meta_data": {
        "InChI": "InChI=1S/C3H2N2O3/c6-1-2(7)5-3(8)4-1/h(H2,4,5,6,7,8)",
        "InChIKey": null,
        "Canonical SMILES": "O=C1NC(=O)C(=O)N1",
        "Molecular Formula": "C<sub>3</sub>H<sub>2</sub>N<sub>2</sub>O<sub>3</sub>",
        "Molecular Mass": "114.06",
        "Melting Point": "244 °C (decomp)",
        "Density": "1.712 g/cm³ @ Temp: -5 °C"
    }
}