{
    "cas_no": "444731-73-1",
    "key_name": "2,3-Dimethyl-6-nitro-2<em>H</em>-indazole",
    "cn_name": null,
    "alternate_name": "2<em>H</em>-Indazole, 2,3-dimethyl-6-nitro-;2,3-Dimethyl-6-nitro-2<em>H</em>-indazole;2,3-Dimethyl-6-nitroindazole",
    "duplicated_cas_no": "",
    "SMILES": "CC1=C2C(C=C(N(=O)=O)C=C2)=NN1C",
    "meta_data": {
        "InChI": "InChI=1S/C9H9N3O2/c1-6-8-4-3-7(12(13)14)5-9(8)10-11(6)2/h3-5H,1-2H3",
        "InChIKey": null,
        "Canonical SMILES": "O=N(=O)C=1C=CC=2C(=NN(C2C)C)C1",
        "Molecular Formula": "C<sub>9</sub>H<sub>9</sub>N<sub>3</sub>O<sub>2</sub>",
        "Molecular Mass": "191.19",
        "Melting Point": "195-197 °C"
    }
}