{
    "cas_no": "6314-28-9",
    "key_name": "Benzo[<em>b</em>]thiophene-2-carboxylic acid",
    "cn_name": "苯并噻吩-2-羧酸;",
    "alternate_name": "Benzo[<em>b</em>]thiophene-2-carboxylic acid;BL 5583;Thionaphthene-2-carboxylic acid;Benzothiofuran-2-carboxylic acid;Benzothiophene-2-carboxylic acid;2-Carboxybenzothiophene;2-Benzo[<em>b</em>]thiophenecarboxylic acid;NSC 112990;NSC 40258;1-Benzothiophene-2-carboxylic acid;Thianaphthene-2-carboxylic acid",
    "duplicated_cas_no": "",
    "SMILES": "C(O)(=O)C1=CC=2C(S1)=CC=CC2",
    "meta_data": {
        "InChI": "InChI=1S/C9H6O2S/c10-9(11)8-5-6-3-1-2-4-7(6)12-8/h1-5H,(H,10,11)",
        "InChIKey": null,
        "Canonical SMILES": "O=C(O)C=1SC=2C=CC=CC2C1",
        "Molecular Formula": "C<sub>9</sub>H<sub>6</sub>O<sub>2</sub>S",
        "Molecular Mass": "178.21",
        "Melting Point": "114 °C"
    }
}