{
    "cas_no": "504-01-8",
    "key_name": "1,3-Cyclohexanediol",
    "cn_name": "1,3-环己二醇;",
    "alternate_name": "1,3-Cyclohexanediol;Resorcitol;1,3-Benzenediol, hexahydro-;1,3-Dihydroxycyclohexane;NSC 30235",
    "duplicated_cas_no": "",
    "SMILES": "OC1CC(O)CCC1",
    "meta_data": {
        "InChI": "InChI=1S/C6H12O2/c7-5-2-1-3-6(8)4-5/h5-8H,1-4H2",
        "InChIKey": null,
        "Canonical SMILES": "OC1CCCC(O)C1",
        "Molecular Formula": "C<sub>6</sub>H<sub>12</sub>O<sub>2</sub>",
        "Molecular Mass": "116.16",
        "Boiling Point": "138-141 °C @ Press: 11 Torr",
        "Melting Point": "45 °C",
        "Density": "1.0951 g/cm³ @ Temp: 25 °C"
    }
}