{
    "cas_no": "16837-38-0",
    "key_name": "Nicotinic anhydride",
    "cn_name": "烟酸酸酐;",
    "alternate_name": "3-Pyridinecarboxylic acid, 1,1′-anhydride;Nicotinic anhydride;3-Pyridinecarboxylic acid, anhydride;Nicotinic acid anhydride;Nicotinoyl anhydride;NSC 72756;Pyridine-3-carboxylic anhydride",
    "duplicated_cas_no": "",
    "SMILES": "C(OC(=O)C=1C=CC=NC1)(=O)C=2C=CC=NC2",
    "meta_data": {
        "InChI": "InChI=1S/C12H8N2O3/c15-11(9-3-1-5-13-7-9)17-12(16)10-4-2-6-14-8-10/h1-8H",
        "InChIKey": null,
        "Canonical SMILES": "O=C(OC(=O)C=1C=NC=CC1)C=2C=NC=CC2",
        "Molecular Formula": "C<sub>12</sub>H<sub>8</sub>N<sub>2</sub>O<sub>3</sub>",
        "Molecular Mass": "228.20",
        "Melting Point": "122-124 °C"
    }
}