{
    "cas_no": "552-94-3",
    "key_name": "Salicylsalicylic acid",
    "cn_name": "双水杨酸酯;水杨酸双酯;2-羟基苯甲酸-2-羧基苯基酯;",
    "alternate_name": "Benzoic acid, 2-hydroxy-, 2-carboxyphenyl ester;Salicylic acid, bimol. ester;Salicylic acid, salicylate;Diplosal;Disalicylic acid;Salysal;<em>o</em>-Salicylsalicylic acid;Salsalate;Salicyloylsalicylic acid;Salicylsalicylic acid;Diacesal;Sasapirin;Sasapyrinum;Disalyl;Nobacid;Salical;Salina;Disalcid;Sasapyrine;Salicyl salicylate;Salicyloxysalicylic acid;Mono-Gesic;NSC 49171;Salflex;Disalgesic;2-Hydroxybenzoic acid 2-carboxyphenyl ester;2-(2-Hydroxybenzoyl)oxybenzoic acid;2-(2-Hydroxybenzoyloxy)benzoic acid;2-((2-Hydroxybenzoyl)oxy)benzoicacid",
    "duplicated_cas_no": "2087491-28-7",
    "SMILES": "O(C(=O)C1=C(O)C=CC=C1)C2=C(C(O)=O)C=CC=C2",
    "meta_data": {
        "InChI": "InChI=1S/C14H10O5/c15-11-7-3-1-5-9(11)14(18)19-12-8-4-2-6-10(12)13(16)17/h1-8,15H,(H,16,17)",
        "InChIKey": null,
        "Canonical SMILES": "O=C(O)C=1C=CC=CC1OC(=O)C=2C=CC=CC2O",
        "Molecular Formula": "C<sub>14</sub>H<sub>10</sub>O<sub>5</sub>",
        "Molecular Mass": "258.23",
        "Melting Point": "147 °C"
    }
}