{
    "cas_no": "68206-94-0",
    "key_name": "Cloricromen",
    "cn_name": null,
    "alternate_name": "Acetic acid, 2-[[8-chloro-3-[2-(diethylamino)ethyl]-4-methyl-2-oxo-2<em>H</em>-1-benzopyran-7-yl]oxy]-, ethyl ester;Acetic acid, [[8-chloro-3-[2-(diethylamino)ethyl]-4-methyl-2-oxo-2<em>H</em>-1-benzopyran-7-yl]oxy]-, ethyl ester;AD 6;AD 6 (pharmaceutical);8-Chlorocarbochromen;Cloricromene;Cloricromen;(4-[(5-bromo-1,3-thiazol-2-yl)amino]-N-methylbenzamide)",
    "duplicated_cas_no": "74273-42-0",
    "SMILES": "CC=1C=2C(=C(Cl)C(OCC(OCC)=O)=CC2)OC(=O)C1CCN(CC)CC",
    "meta_data": {
        "InChI": "InChI=1S/C20H26ClNO5/c1-5-22(6-2)11-10-15-13(4)14-8-9-16(26-12-17(23)25-7-3)18(21)19(14)27-20(15)24/h8-9H,5-7,10-12H2,1-4H3",
        "InChIKey": null,
        "Canonical SMILES": "O=C1OC=2C(Cl)=C(OCC(=O)OCC)C=CC2C(=C1CCN(CC)CC)C",
        "Molecular Formula": "C<sub>20</sub>H<sub>26</sub>ClNO<sub>5</sub>",
        "Molecular Mass": "395.88",
        "Melting Point": "147-148 °C"
    }
}