{
    "cas_no": "96-12-8",
    "key_name": "1,2-Dibromo-3-chloropropane",
    "cn_name": "1,2-二溴-3-氯丙烷;二溴氯丙烷;",
    "alternate_name": "Propane, 1,2-dibromo-3-chloro-;1,2-Dibromo-3-chloropropane;OS 1897;Nemafume;Fumazone;Nemagon;Nemagon Soil Fumigant;Nemapaz;Nemazon;DBCP;Nemagon 90;Nemagon 20;Nemagon 20G;Dibromochloropropane;3-Chloro-1,2-dibromopropane;1-Chloro-2,3-dibromopropane;NSC 1512",
    "duplicated_cas_no": "105567-86-0",
    "SMILES": "C(CBr)(CCl)Br",
    "meta_data": {
        "InChI": "InChI=1S/C3H5Br2Cl/c4-1-3(5)2-6/h3H,1-2H2",
        "InChIKey": null,
        "Canonical SMILES": "ClCC(Br)CBr",
        "Molecular Formula": "C<sub>3</sub>H<sub>5</sub>Br<sub>2</sub>Cl",
        "Molecular Mass": "236.33",
        "Boiling Point": "164.5 °C @ Press: 300 Torr",
        "Melting Point": "5 °C",
        "Density": "2.08 g/cm³ @ Temp: 20 °C"
    }
}