{
    "cas_no": "541-47-9",
    "key_name": "3-Methyl-2-butenoic acid",
    "cn_name": "3,3-二甲基丙烯酸;",
    "alternate_name": "2-Butenoic acid, 3-methyl-;Crotonic acid, 3-methyl-;3-Methyl-2-butenoic acid;β,β-Dimethylacrylic acid;Senecioic acid;β-Methylcrotonic acid;3,3-Dimethylacrylic acid;3-Methylcrotonic acid;NSC 2549;NSC 97179",
    "duplicated_cas_no": "",
    "SMILES": "C(=C(C)C)C(O)=O",
    "meta_data": {
        "InChI": "InChI=1S/C5H8O2/c1-4(2)3-5(6)7/h3H,1-2H3,(H,6,7)",
        "InChIKey": null,
        "Canonical SMILES": "O=C(O)C=C(C)C",
        "Molecular Formula": "C<sub>5</sub>H<sub>8</sub>O<sub>2</sub>",
        "Molecular Mass": "100.12",
        "Boiling Point": "197 °C",
        "Melting Point": "69.5 °C",
        "Density": "0.9272 g/cm³ @ Temp: 25 °C"
    }
}