{
    "cas_no": "4682-36-4",
    "key_name": "Orphenadrine citrate",
    "cn_name": "枸櫞酸奧芬那君;柠檬酸邻甲苯海拉明;beta-二甲基氨基乙基-2-甲基二苯甲醚柠檬酸盐;",
    "alternate_name": "Ethanamine, <em>N</em>,<em>N</em>-dimethyl-2-[(2-methylphenyl)phenylmethoxy]-, 2-hydroxy-1,2,3-propanetricarboxylate (1:1);Ethylamine, <em>N</em>,<em>N</em>-dimethyl-2-[(<em>o</em>-methyl-α-phenylbenzyl)oxy]-, citrate (1:1);Norflex (pharmaceutical);Orphenadrine citrate;Plenactol;Norflex;X-Otag;Banflex;2-Hydroxypropane-1,2,3-tricarboxylic acid; dimethyl([2-[(2-methylphenyl)(phenyl)methoxy]ethyl])amine",
    "duplicated_cas_no": "4596-23-0",
    "SMILES": "C(OCCN(C)C)(C1=C(C)C=CC=C1)C2=CC=CC=C2.C(CC(O)=O)(CC(O)=O)(C(O)=O)O",
    "meta_data": {
        "InChI": "InChI=1S/C18H23NO.C6H8O7/c1-15-9-7-8-12-17(15)18(20-14-13-19(2)3)16-10-5-4-6-11-16;7-3(8)1-6(13,5(11)12)2-4(9)10/h4-12,18H,13-14H2,1-3H3;13H,1-2H2,(H,7,8)(H,9,10)(H,11,12)",
        "InChIKey": null,
        "Canonical SMILES": "O=C(O)CC(O)(C(=O)O)CC(=O)O.O(CCN(C)C)C(C=1C=CC=CC1)C=2C=CC=CC2C",
        "Molecular Formula": "C<sub>18</sub>H<sub>23</sub>NO.C<sub>6</sub>H<sub>8</sub>O<sub>7</sub>",
        "Molecular Mass": "",
        "Melting Point": "137 °C"
    }
}