{
    "cas_no": "1885-48-9",
    "key_name": "2,2,2-Trifluoroethyl difluoromethyl ether",
    "cn_name": "二氟甲基-2,2,2-三氟乙基醚;二氟甲基-2,2,2-三氟乙基醚;",
    "alternate_name": "Ethane, 2-(difluoromethoxy)-1,1,1-trifluoro-;Ether, difluoromethyl 2,2,2-trifluoroethyl;2-(Difluoromethoxy)-1,1,1-trifluoroethane;Difluoromethyl 2,2,2-trifluoroethyl ether;2,2,2-Trifluoroethyl difluoromethyl ether;HFC-E 245;R-E 245fa1;HFE 245fa2;HFE 245mf;E 245;RE 245",
    "duplicated_cas_no": "",
    "SMILES": "C(C(F)(F)F)OC(F)F",
    "meta_data": {
        "InChI": "InChI=1S/C3H3F5O/c4-2(5)9-1-3(6,7)8/h2H,1H2",
        "InChIKey": null,
        "Canonical SMILES": "FC(F)OCC(F)(F)F",
        "Molecular Formula": "C<sub>3</sub>H<sub>3</sub>F<sub>5</sub>O",
        "Molecular Mass": "150.05",
        "Boiling Point": "29.3 °C"
    }
}