{
    "cas_no": "62-32-8",
    "key_name": "Methyldopamine hydrochloride",
    "cn_name": null,
    "alternate_name": "1,2-Benzenediol, 4-[2-(methylamino)ethyl]-, hydrochloride (1:1);Pyrocatechol, 4-[2-(methylamino)ethyl]-, hydrochloride;1,2-Benzenediol, 4-[2-(methylamino)ethyl]-, hydrochloride;3,4-Dihydroxyphenylethylmethylamine hydrochloride;Ephinine hydrochloride;4-(2-Methylaminoethyl)pyrocatechol hydrochloride;Methyl[β-(3,4-dihydroxyphenyl)ethyl]amine hydrochloride;<em>N</em>-Methyldopamine hydrochloride;Epinine hydrochloride;Methyldopamine hydrochloride;Deoxyepinephrine hydrochloride;4-(2-Methylaminoethyl)-1,2-benzenediol hydrochloride",
    "duplicated_cas_no": "",
    "SMILES": "C(CNC)C1=CC(O)=C(O)C=C1.Cl",
    "meta_data": {
        "InChI": "InChI=1S/C9H13NO2.ClH/c1-10-5-4-7-2-3-8(11)9(12)6-7;/h2-3,6,10-12H,4-5H2,1H3;1H",
        "InChIKey": null,
        "Canonical SMILES": "Cl.OC1=CC=C(C=C1O)CCNC",
        "Molecular Formula": "C<sub>9</sub>H<sub>13</sub>NO<sub>2</sub>.ClH",
        "Molecular Mass": "",
        "Melting Point": "177-178 °C"
    }
}