{
    "cas_no": "16401-99-3",
    "key_name": "Ethyl 1-(4-chlorobenzoyl)-5-methoxy-2-methyl-1<em>H</em>-indole-3-acetate",
    "cn_name": null,
    "alternate_name": "1<em>H</em>-Indole-3-acetic acid, 1-(4-chlorobenzoyl)-5-methoxy-2-methyl-, ethyl ester;Indole-3-acetic acid, 1-(<em>p</em>-chlorobenzoyl)-5-methoxy-2-methyl-, ethyl ester;Ethyl 1-(4-chlorobenzoyl)-5-methoxy-2-methyl-1<em>H</em>-indole-3-acetate;Ethyl 1-(<em>p</em>-chlorobenzoyl)-2-methyl-5-methoxy-3-indolylacetate;Ethyl 1-(4-chlorobenzoyl)-5-methoxy-2-methylindole-3-acetate;Indomethacin ethyl ester;Ethyl 2-(1-(4-chlorobenzoyl)-5-methoxy-2-methyl-1<em>H</em>-indol-3-yl)acetate",
    "duplicated_cas_no": "1346653-23-3",
    "SMILES": "C(=O)(N1C=2C(C(CC(OCC)=O)=C1C)=CC(OC)=CC2)C3=CC=C(Cl)C=C3",
    "meta_data": {
        "InChI": "InChI=1S/C21H20ClNO4/c1-4-27-20(24)12-17-13(2)23(19-10-9-16(26-3)11-18(17)19)21(25)14-5-7-15(22)8-6-14/h5-11H,4,12H2,1-3H3",
        "InChIKey": null,
        "Canonical SMILES": "O=C(OCC)CC=1C=2C=C(OC)C=CC2N(C(=O)C3=CC=C(Cl)C=C3)C1C",
        "Molecular Formula": "C<sub>21</sub>H<sub>20</sub>ClNO<sub>4</sub>",
        "Molecular Mass": "385.84",
        "Melting Point": "95-96 °C"
    }
}