{
    "cas_no": "685-63-2",
    "key_name": "Hexafluoro-1,3-butadiene",
    "cn_name": "全氟丁二烯;",
    "alternate_name": "1,3-Butadiene, 1,1,2,3,4,4-hexafluoro-;1,3-Butadiene, hexafluoro-;1,1,2,3,4,4-Hexafluoro-1,3-butadiene;Hexafluoro-1,3-butadiene;Perfluoro-1,3-butadiene;Sifren 46;FC 2316",
    "duplicated_cas_no": "",
    "SMILES": "C(C(=C(F)F)F)(=C(F)F)F",
    "meta_data": {
        "InChI": "InChI=1S/C4F6/c5-1(3(7)8)2(6)4(9)10",
        "InChIKey": null,
        "Canonical SMILES": "FC(F)=C(F)C(F)=C(F)F",
        "Molecular Formula": "C<sub>4</sub>F<sub>6</sub>",
        "Molecular Mass": "162.03",
        "Boiling Point": "6 °C",
        "Melting Point": "-132 °C",
        "Density": "1.44 g/cm³ @ Temp: 15 °C"
    }
}