{
    "cas_no": "1066-42-8",
    "key_name": "Dimethylsilanediol",
    "cn_name": null,
    "alternate_name": "Silanediol, 1,1-dimethyl-;Silanediol, dimethyl-;1,1-Dimethylsilanediol;Dimethylsilanediol;Dihydroxydimethylsilane;Dimethyldihydroxysilane;Dimethylsilanediol-hexamethyldisiloxane copolymer;RMS 091310",
    "duplicated_cas_no": "196616-86-1;2217617-89-3",
    "SMILES": "[Si](C)(C)(O)O",
    "meta_data": {
        "InChI": "InChI=1S/C2H8O2Si/c1-5(2,3)4/h3-4H,1-2H3",
        "InChIKey": null,
        "Canonical SMILES": "O[Si](O)(C)C",
        "Molecular Formula": "C<sub>2</sub>H<sub>8</sub>O<sub>2</sub>Si",
        "Molecular Mass": "92.17",
        "Melting Point": "96-98 °C",
        "Density": "1.097 g/cm³"
    }
}