{
    "cas_no": "5706-78-5",
    "key_name": "2-[(2-Chlorophenyl)methylene]hydrazinecarbothioamide",
    "cn_name": "2-氯苯甲醛 缩胺基硫脲;2-氯苯甲醛缩胺基硫脲;",
    "alternate_name": "Hydrazinecarbothioamide, 2-[(2-chlorophenyl)methylene]-;Benzaldehyde, <em>o</em>-chloro-, thiosemicarbazone;2-[(2-Chlorophenyl)methylene]hydrazinecarbothioamide;<em>o</em>-Chlorobenzaldehyde thiosemicarbazone;2-Chlorobenzaldehyde thiosemicarbazone;<em>o</em>-Chlorobenzylidenethiosemicarbazone;2-(2-Chlorobenzylidene)hydrazine-1-carbothioamide",
    "duplicated_cas_no": "",
    "SMILES": "C(=NNC(N)=S)C1=C(Cl)C=CC=C1",
    "meta_data": {
        "InChI": "InChI=1S/C8H8ClN3S/c9-7-4-2-1-3-6(7)5-11-12-8(10)13/h1-5H,(H3,10,12,13)",
        "InChIKey": null,
        "Canonical SMILES": "S=C(N)NN=CC=1C=CC=CC1Cl",
        "Molecular Formula": "C<sub>8</sub>H<sub>8</sub>ClN<sub>3</sub>S",
        "Molecular Mass": "213.69",
        "Melting Point": "205-208 °C"
    }
}