{
    "cas_no": "50471-44-8",
    "key_name": "Vinclozolin",
    "cn_name": null,
    "alternate_name": "2,4-Oxazolidinedione, 3-(3,5-dichlorophenyl)-5-ethenyl-5-methyl-;3-(3,5-Dichlorophenyl)-5-ethenyl-5-methyl-2,4-oxazolidinedione;<em>N</em>-3,5-Dichlorophenyl-5-methyl-5-vinyloxazolidine-2,4-dione;Vinclozolin;Ronilan;BAS 35202F;BAS 35204;BAS 352-04F;Ranilan;Ornalin;Ronilan 50WP;(±)-Vinclozolin",
    "duplicated_cas_no": "107378-49-4;1135442-65-7",
    "SMILES": "O=C1N(C(=O)OC1(C=C)C)C2=CC(Cl)=CC(Cl)=C2",
    "meta_data": {
        "InChI": "InChI=1S/C12H9Cl2NO3/c1-3-12(2)10(16)15(11(17)18-12)9-5-7(13)4-8(14)6-9/h3-6H,1H2,2H3",
        "InChIKey": null,
        "Canonical SMILES": "O=C1OC(C=C)(C(=O)N1C=2C=C(Cl)C=C(Cl)C2)C",
        "Molecular Formula": "C<sub>12</sub>H<sub>9</sub>Cl<sub>2</sub>NO<sub>3</sub>",
        "Molecular Mass": "286.11",
        "Boiling Point": "131 °C @ Press: 0.05 Torr",
        "Melting Point": "108 °C",
        "Density": "1.51 g/cm³"
    }
}