{
    "cas_no": "1154-78-5",
    "key_name": "Luteolinidin",
    "cn_name": null,
    "alternate_name": "1-Benzopyrylium, 2-(3,4-dihydroxyphenyl)-5,7-dihydroxy-, chloride (1:1);Luteolinidin;Flavylium, 3′,4′,5,7-tetrahydroxy-, chloride;1-Benzopyrylium, 2-(3,4-dihydroxyphenyl)-5,7-dihydroxy-, chloride;3′,4′,5,7-Tetrahydroxyflavylium chloride;Luteolinidol chloride;2-(3,4-Dihydroxyphenyl)-1-benzopyrylium-5,7-diol chloride",
    "duplicated_cas_no": "",
    "SMILES": "OC=1C2=C([O+]=C(C=C2)C3=CC(O)=C(O)C=C3)C=C(O)C1.[Cl-]",
    "meta_data": {
        "InChI": "InChI=1S/C15H10O5.ClH/c16-9-6-12(18)10-2-4-14(20-15(10)7-9)8-1-3-11(17)13(19)5-8;/h1-7H,(H3-,16,17,18,19);1H",
        "InChIKey": null,
        "Canonical SMILES": "[Cl-].OC1=CC(O)=C2C=CC(=[O+]C2=C1)C=3C=CC(O)=C(O)C3",
        "Molecular Formula": "C<sub>15</sub>H<sub>11</sub>O<sub>5</sub>.Cl",
        "Molecular Mass": "",
        "Melting Point": "95 °C (decomp)"
    }
}