{
    "cas_no": "7623-09-8",
    "key_name": "2-Chloropropanoyl chloride",
    "cn_name": "2-氯丙酰氯;",
    "alternate_name": "Propanoyl chloride, 2-chloro-;Propionyl chloride, 2-chloro-;2-Chloropropanoyl chloride;2-Chloropropionyl chloride;α-Chloropropionyl chloride;α-Chloropropanoyl chloride;α-Chloropropionic acid chloride;α-Methylchloroacetyl chloride;(±)-2-Chloropropionyl chloride;2-Chloro-2-methylacetyl chloride",
    "duplicated_cas_no": "76248-57-2",
    "SMILES": "C(C(Cl)=O)(C)Cl",
    "meta_data": {
        "InChI": "InChI=1S/C3H4Cl2O/c1-2(4)3(5)6/h2H,1H3",
        "InChIKey": null,
        "Canonical SMILES": "O=C(Cl)C(Cl)C",
        "Molecular Formula": "C<sub>3</sub>H<sub>4</sub>Cl<sub>2</sub>O",
        "Molecular Mass": "126.97",
        "Boiling Point": "107-110 °C"
    }
}