{
    "cas_no": "55399-93-4",
    "key_name": "(2<em>S</em>,3<em>R</em>,4<em>S</em>)-4-Hydroxyisoleucine",
    "cn_name": null,
    "alternate_name": "<span class=\"text-smallcaps\">L</span>-Ribonic acid, 2-amino-2,3,5-trideoxy-3-methyl-;2-Amino-2,3,5-trideoxy-3-methyl-<span class=\"text-smallcaps\">L</span>-ribonic acid;(2<em>S</em>,3<em>R</em>,4<em>S</em>)-4-Hydroxyisoleucine;(4<em>S</em>)-4-Hydroxy-<span class=\"text-smallcaps\">L</span>-isoleucine;(4S)-4-Hydroxy-<span class=\"text-smallcaps\">L</span>-isoleucine",
    "duplicated_cas_no": "",
    "SMILES": "[C@@H]([C@@H](C(O)=O)N)([C@H](C)O)C",
    "meta_data": {
        "InChI": "InChI=1S/C6H13NO3/c1-3(4(2)8)5(7)6(9)10/h3-5,8H,7H2,1-2H3,(H,9,10)/t3-,4-,5-/m0/s1",
        "InChIKey": null,
        "Canonical SMILES": "O=C(O)C(N)C(C)C(O)C",
        "Molecular Formula": "C<sub>6</sub>H<sub>13</sub>NO<sub>3</sub>",
        "Molecular Mass": "147.17",
        "Melting Point": "220-225 °C"
    }
}