{
    "cas_no": "523-50-2",
    "key_name": "Isopsoralen",
    "cn_name": "异补骨脂素;",
    "alternate_name": "2<em>H</em>-Furo[2,3-<em>h</em>]-1-benzopyran-2-one;Isopsoralen;Angelicin (coumarin derivative);2-Propenoic acid, 3-(4-hydroxy-5-benzofuranyl)-, δ-lactone;Angelicin;Furo[5′,4′:7,8]coumarin;Angecin;Furo[2,3-<em>h</em>]coumarin;NSC 404563;2<em>H</em>-Furo[2,3-<em>h</em>]chromen-2-one",
    "duplicated_cas_no": "39310-13-9",
    "SMILES": "O=C1OC=2C3=C(C=CC2C=C1)OC=C3",
    "meta_data": {
        "InChI": "InChI=1S/C11H6O3/c12-10-4-2-7-1-3-9-8(5-6-13-9)11(7)14-10/h1-6H",
        "InChIKey": null,
        "Canonical SMILES": "O=C1OC=2C(C=C1)=CC=C3OC=CC32",
        "Molecular Formula": "C<sub>11</sub>H<sub>6</sub>O<sub>3</sub>",
        "Molecular Mass": "186.16",
        "Melting Point": "142 °C"
    }
}