{
    "cas_no": "6305-43-7",
    "key_name": "1,4-Dibromo-2,3-butanedione",
    "cn_name": "1,4-二溴-2,3-丁二酮;1,4-二溴乙酰;",
    "alternate_name": "2,3-Butanedione, 1,4-dibromo-;1,4-Dibromo-2,3-butanedione;NSC 41130;NSC 75722",
    "duplicated_cas_no": "",
    "SMILES": "C(C(CBr)=O)(CBr)=O",
    "meta_data": {
        "InChI": "InChI=1S/C4H4Br2O2/c5-1-3(7)4(8)2-6/h1-2H2",
        "InChIKey": null,
        "Canonical SMILES": "O=C(C(=O)CBr)CBr",
        "Molecular Formula": "C<sub>4</sub>H<sub>4</sub>Br<sub>2</sub>O<sub>2</sub>",
        "Molecular Mass": "243.88",
        "Melting Point": "117 °C"
    }
}