{
    "cas_no": "584-84-9",
    "key_name": "Toluene 2,4-diisocyanate",
    "cn_name": "甲苯-2,4-二异氰酸酯;2,4-二异酸甲苯酯;",
    "alternate_name": "Benzene, 2,4-diisocyanato-1-methyl-;Isocyanic acid, 4-methyl-<em>m</em>-phenylene ester;2,4-Diisocyanato-1-methylbenzene;2,4-Tolylene diisocyanate;2,4-Toluylene diisocyanate;2,4-Diisocyanatotoluene;Toluene 2,4-diisocyanate;2,4-Toluene diisocyanate;4-Methyl-<em>m</em>-phenylene isocyanate;4-Methyl-<em>m</em>-phenylene diisocyanate;2,4-TDI;4-Methyl-1,3-phenylene diisocyanate;1,3-Diisocyanato-4-methylbenzene;NSC 4791;NSC 56759;TDI 100;TDI T 100;T 100;4-Methylbenzene-1,3-diyl diisocyanate;T 830062;HT 100 (ester);HT 100;MeSH ID: D014051",
    "duplicated_cas_no": "86-91-9;59539-76-3;856307-56-7;1260158-01-7;1358624-38-0",
    "SMILES": "N(=C=O)C1=CC(N=C=O)=CC=C1C",
    "meta_data": {
        "InChI": "InChI=1S/C9H6N2O2/c1-7-2-3-8(10-5-12)4-9(7)11-6-13/h2-4H,1H3",
        "InChIKey": null,
        "Canonical SMILES": "O=C=NC1=CC=C(C(N=C=O)=C1)C",
        "Molecular Formula": "C<sub>9</sub>H<sub>6</sub>N<sub>2</sub>O<sub>2</sub>",
        "Molecular Mass": "174.16",
        "Boiling Point": "251 °C @ Press: 760 Torr",
        "Melting Point": "19.5-21.5 °C",
        "Density": "1.2244 g/cm³ @ Temp: 20 °C"
    }
}