{
    "cas_no": "443-85-6",
    "key_name": "1-Fluoro-3-iodo-2-methylbenzene",
    "cn_name": "2-氟-6-碘甲苯;",
    "alternate_name": "Benzene, 1-fluoro-3-iodo-2-methyl-;Toluene, 2-fluoro-6-iodo-;1-Fluoro-3-iodo-2-methylbenzene;2-Fluoro-6-iodotoluene;3-Fluoro-2-methyliodobenzene",
    "duplicated_cas_no": "",
    "SMILES": "CC1=C(F)C=CC=C1I",
    "meta_data": {
        "InChI": "InChI=1S/C7H6FI/c1-5-6(8)3-2-4-7(5)9/h2-4H,1H3",
        "InChIKey": null,
        "Canonical SMILES": "FC1=CC=CC(I)=C1C",
        "Molecular Formula": "C<sub>7</sub>H<sub>6</sub>FI",
        "Molecular Mass": "236.03",
        "Boiling Point": "114-116 °C @ Press: 8 Torr"
    }
}