{
    "cas_no": "24854-43-1",
    "key_name": "4-Methyl-4<em>H</em>-1,2,4-triazole-3-thiol",
    "cn_name": null,
    "alternate_name": "3<em>H</em>-1,2,4-Triazole-3-thione, 2,4-dihydro-4-methyl-;Δ<sup>2</sup>-1,2,4-Triazoline-5-thione, 4-methyl-;4<em>H</em>-1,2,4-Triazole-3-thiol, 4-methyl-;2,4-Dihydro-4-methyl-3<em>H</em>-1,2,4-triazole-3-thione;2-Mercapto-1-methyl-1,3,4-triazole;4-Methyl-4<em>H</em>-1,2,4-triazole-3-thiol;3-Mercapto-4-methyl-1,2,4-triazole;3-Mercapto-4-methyl-4<em>H</em>-1,2,4-triazole;4-Methyl-3-mercapto-1,2,4-triazole;4-Methyl-1,2,4-triazole-3-thiol;4-Methyl-3-mercapto-4<em>H</em>-1,2,4-triazole;1-Methyl-2-mercapto-1<em>H</em>-1,3,4-triazole;2-Mercapto-1-methyl-1<em>H</em>-[1,3,4]triazole;4-Methyl-1,2,4-triazolethione",
    "duplicated_cas_no": "6232-83-3",
    "SMILES": "S=C1N(C)C=NN1",
    "meta_data": {
        "InChI": "InChI=1S/C3H5N3S/c1-6-2-4-5-3(6)7/h2H,1H3,(H,5,7)",
        "InChIKey": null,
        "Canonical SMILES": "S=C1NN=CN1C",
        "Molecular Formula": "C<sub>3</sub>H<sub>5</sub>N<sub>3</sub>S",
        "Molecular Mass": "115.16",
        "Melting Point": "163-165 °C"
    }
}