{
    "cas_no": "542-08-5",
    "key_name": "Isopropyl acetoacetate",
    "cn_name": "乙酰乙酸异丙酯;",
    "alternate_name": "Butanoic acid, 3-oxo-, 1-methylethyl ester;Acetoacetic acid, isopropyl ester;Isopropyl acetoacetate;Isopropyl 3-oxobutanoate;Isopropyl 3-oxobutyrate;3-Oxobutanoic acid 1-methylethyl ester;3-Oxobutanoic acid isopropyl ester",
    "duplicated_cas_no": "",
    "SMILES": "C(C(OC(C)C)=O)C(C)=O",
    "meta_data": {
        "InChI": "InChI=1S/C7H12O3/c1-5(2)10-7(9)4-6(3)8/h5H,4H2,1-3H3",
        "InChIKey": null,
        "Canonical SMILES": "O=C(OC(C)C)CC(=O)C",
        "Molecular Formula": "C<sub>7</sub>H<sub>12</sub>O<sub>3</sub>",
        "Molecular Mass": "144.17",
        "Boiling Point": "186 °C",
        "Melting Point": "-27.3 °C",
        "Density": "0.9835 g/cm³ @ Temp: 25 °C"
    }
}