{
    "cas_no": "39482-87-6",
    "key_name": "<em>N</em>-[Dimethyl(3,3,3-trifluoropropyl)silyl]-1,1-dimethyl-1-(3,3,3-trifluoropropyl)silanamine",
    "cn_name": "1,3-双三氟丙基-1,1,3,3-四甲基二硅代氧烷;",
    "alternate_name": "Silanamine, <em>N</em>-[dimethyl(3,3,3-trifluoropropyl)silyl]-1,1-dimethyl-1-(3,3,3-trifluoropropyl)-;<em>N</em>-[Dimethyl(3,3,3-trifluoropropyl)silyl]-1,1-dimethyl-1-(3,3,3-trifluoropropyl)silanamine;Di(trifluoropropyl)tetramethyldisilazane;1,3-Bis(3,3,3-trifluoropropyl)tetramethyl-disilazane;1,3-Bis(3,3,3-trifluoropropyl)-1,1,3,3-tetramethyldisilazane;3-[[[Dimethyl(3,3,3-trifluoropropyl)silyl]amino]-dimethylsilyl]-1,1,1-trifluoropropane",
    "duplicated_cas_no": "",
    "SMILES": "N([Si](CCC(F)(F)F)(C)C)[Si](CCC(F)(F)F)(C)C",
    "meta_data": {
        "InChI": "InChI=1S/C10H21F6NSi2/c1-18(2,7-5-9(11,12)13)17-19(3,4)8-6-10(14,15)16/h17H,5-8H2,1-4H3",
        "InChIKey": null,
        "Canonical SMILES": "FC(F)(F)CC[Si](N[Si](C)(C)CCC(F)(F)F)(C)C",
        "Molecular Formula": "C<sub>10</sub>H<sub>21</sub>F<sub>6</sub>NSi<sub>2</sub>",
        "Molecular Mass": "325.44",
        "Boiling Point": "76-79 °C @ Press: 10 Torr",
        "Density": "1.11 g/cm³"
    }
}