{
    "cas_no": "100986-89-8",
    "key_name": "Levofloxacin Q-acid",
    "cn_name": "左旋氧氟沙星羧酸;(S)-9,10-二氟-2,3-二氢-3-甲基-7-氧代-(3S)-7H-吡啶并[1,2,3-de]-1,4-苯并嗪-6-羧酸;",
    "alternate_name": "7<em>H</em>-Pyrido[1,2,3-<em>de</em>]-1,4-benzoxazine-6-carboxylic acid, 9,10-difluoro-2,3-dihydro-3-methyl-7-oxo-, (3<em>S</em>)-;7<em>H</em>-Pyrido[1,2,3-<em>de</em>]-1,4-benzoxazine-6-carboxylic acid, 9,10-difluoro-2,3-dihydro-3-methyl-7-oxo-, (<em>S</em>)-;(3<em>S</em>)-9,10-Difluoro-2,3-dihydro-3-methyl-7-oxo-7<em>H</em>-pyrido[1,2,3-<em>de</em>]-1,4-benzoxazine-6-carboxylic acid;9,10-Difluoro-3-(<em>S</em>)-methyl-7-oxo-2,3-dihydro-7<em>H</em>-pyrido[1,2,3-<em>de</em>]-1,4-benzoxazine-6-carboxylic acid;Levofloxacin Q-acid;(<em>S</em>)-(-)-9,10-Difluoro-2,3-dihydro-3-methyl-7-oxo-7<em>H</em>-pyrido[1,2,3-<em>de</em>][1,4]benzoxazine-6-carboxylic acid;(<em>S</em>)-9,10-Difluoro-3-methyl-7-oxo-3,7-dihydro-2<em>H</em>-[1,4]oxazino[2,3,4-<em>ij</em>]quinoline-6-carboxylic acid;(<em>S</em>)-9,10-Difluoro-3-methyl-7-oxo-2,3-dihydro-7<em>H</em>-[1,4]oxazino[2,3,4-<em>ij</em>]quinoline-6-carboxylic acid",
    "duplicated_cas_no": "",
    "SMILES": "O=C1C=2C=3N(C=C1C(O)=O)[C@@H](C)COC3C(F)=C(F)C2",
    "meta_data": {
        "InChI": "InChI=1S/C13H9F2NO4/c1-5-4-20-12-9(15)8(14)2-6-10(12)16(5)3-7(11(6)17)13(18)19/h2-3,5H,4H2,1H3,(H,18,19)/t5-/m0/s1",
        "InChIKey": null,
        "Canonical SMILES": "O=C(O)C1=CN2C3=C(OCC2C)C(F)=C(F)C=C3C1=O",
        "Molecular Formula": "C<sub>13</sub>H<sub>9</sub>F<sub>2</sub>NO<sub>4</sub>",
        "Molecular Mass": "281.21",
        "Melting Point": "&gt;280 °C (decomp)"
    }
}