{
    "cas_no": "111-94-4",
    "key_name": "3,3′-Iminodipropionitrile",
    "cn_name": null,
    "alternate_name": "Propanenitrile, 3,3′-iminobis-;Propionitrile, 3,3′-iminodi-;3,3′-Iminobis[propanenitrile];BBCE;<em>N</em>,<em>N</em>-Bis(2-cyanoethyl)amine;Bis(β-cyanoethyl)amine;Di(2-cyanoethyl)amine;IDPN;3,3′-Iminodipropionitrile;β,β′-Iminodipropionitrile;Ethanamine, 2-cyano-<em>N</em>-(2-cyanoethyl)-;Bis(2-cyanoethyl)amine;3,3′-Iminobis(propionitrile);Iminobis(propionitrile);NSC 7770;3-(2-Cyanoethylamino)propanenitrile;3-(2-Cyano-ethylamino)propionitrile;3,3′-Iminodipropiononitrile",
    "duplicated_cas_no": "",
    "SMILES": "N(CCC#N)CCC#N",
    "meta_data": {
        "InChI": "InChI=1S/C6H9N3/c7-3-1-5-9-6-2-4-8/h9H,1-2,5-6H2",
        "InChIKey": null,
        "Canonical SMILES": "N#CCCNCCC#N",
        "Molecular Formula": "C<sub>6</sub>H<sub>9</sub>N<sub>3</sub>",
        "Molecular Mass": "123.16",
        "Boiling Point": "173 °C @ Press: 10 Torr",
        "Melting Point": "-5.50 °C",
        "Density": "1.0165 g/cm³ @ Temp: 30 °C"
    }
}