{
    "cas_no": "126-72-7",
    "key_name": "Tris",
    "cn_name": "磷酸三（2、3-二溴丙基）酯;磷酸三（2、3-二溴丙基）酯TDBPP;",
    "alternate_name": "1-Propanol, 2,3-dibromo-, 1,1′,1′′-phosphate;1-Propanol, 2,3-dibromo-, phosphate (3:1);Phosphoric acid, tris(2,3-dibromopropyl) ester;Tris(2,3-dibromopropyl) phosphate;FireMaster T 23P;T 23P;Apex 462-5;FireMaster LV-T 23P;Zetofex ZN;ES 685;Flammex AP;Flammex T 23P;Bromkal P 67-6HP;Fyrol HB 32;Tris;Tris (flame retardant);TDBPP;Phoscon PE 60;3PBR;Flammex LV-T 23P;Phoscon UF-S;FireMaster T 23;Phoscon FR 150;NSC 3240;Unflame 3PB",
    "duplicated_cas_no": "1867-14-7;55962-48-6;68112-30-1;1228931-66-5",
    "SMILES": "P(OCC(CBr)Br)(OCC(CBr)Br)(OCC(CBr)Br)=O",
    "meta_data": {
        "InChI": "InChI=1S/C9H15Br6O4P/c10-1-7(13)4-17-20(16,18-5-8(14)2-11)19-6-9(15)3-12/h7-9H,1-6H2",
        "InChIKey": null,
        "Canonical SMILES": "O=P(OCC(Br)CBr)(OCC(Br)CBr)OCC(Br)CBr",
        "Molecular Formula": "C<sub>9</sub>H<sub>15</sub>Br<sub>6</sub>O<sub>4</sub>P",
        "Molecular Mass": "697.61",
        "Melting Point": "5.5 °C",
        "Density": "2.27 g/cm³ @ Temp: 25 °C"
    }
}