{
    "cas_no": "1117-55-1",
    "key_name": "Hexyl octanoate",
    "cn_name": "辛酸己酯;",
    "alternate_name": "Octanoic acid, hexyl ester;Hexyl caprylate;Hexyl octanoate;<em>n</em>-Hexyl caprylate",
    "duplicated_cas_no": "",
    "SMILES": "C(CCCCCCC)(OCCCCCC)=O",
    "meta_data": {
        "InChI": "InChI=1S/C14H28O2/c1-3-5-7-9-10-12-14(15)16-13-11-8-6-4-2/h3-13H2,1-2H3",
        "InChIKey": null,
        "Canonical SMILES": "O=C(OCCCCCC)CCCCCCC",
        "Molecular Formula": "C<sub>14</sub>H<sub>28</sub>O<sub>2</sub>",
        "Molecular Mass": "228.37",
        "Boiling Point": "277.4 °C",
        "Melting Point": "-30.6 °C"
    }
}