{
    "cas_no": "40248-63-3",
    "key_name": "2-[[(1<em>R</em>,2<em>S</em>,5<em>R</em>)-5-Methyl-2-(1-methylethyl)cyclohexyl]oxy]acetic acid",
    "cn_name": "(-)-薄荷氧基乙酸;",
    "alternate_name": "Acetic acid, 2-[[(1<em>R</em>,2<em>S</em>,5<em>R</em>)-5-methyl-2-(1-methylethyl)cyclohexyl]oxy]-;Acetic acid, [[5-methyl-2-(1-methylethyl)cyclohexyl]oxy]-, [1<em>R</em>-(1α,2β,5α)]-;Acetic acid, [[(1<em>R</em>,2<em>S</em>,5<em>R</em>)-5-methyl-2-(1-methylethyl)cyclohexyl]oxy]-;2-[[(1<em>R</em>,2<em>S</em>,5<em>R</em>)-5-Methyl-2-(1-methylethyl)cyclohexyl]oxy]acetic acid;<em>l</em>-Menthoxyacetic acid;(-)-Menthoxyacetic acid;Menthyloxy acetic acid",
    "duplicated_cas_no": "",
    "SMILES": "O(CC(O)=O)[C@H]1[C@H](C(C)C)CC[C@@H](C)C1",
    "meta_data": {
        "InChI": "InChI=1S/C12H22O3/c1-8(2)10-5-4-9(3)6-11(10)15-7-12(13)14/h8-11H,4-7H2,1-3H3,(H,13,14)/t9-,10+,11-/m1/s1",
        "InChIKey": null,
        "Canonical SMILES": "O=C(O)COC1CC(C)CCC1C(C)C",
        "Molecular Formula": "C<sub>12</sub>H<sub>22</sub>O<sub>3</sub>",
        "Molecular Mass": "214.30",
        "Boiling Point": "112-115 °C @ Press: 0.3 Torr",
        "Melting Point": "54 °C"
    }
}