{
    "cas_no": "110-57-6",
    "key_name": "<em>trans</em>-1,4-Dichloro-2-butene",
    "cn_name": "反式-1,4-二氯-2-丁烯;",
    "alternate_name": "2-Butene, 1,4-dichloro-, (2<em>E</em>)-;2-Butene, 1,4-dichloro-, (<em>E</em>)-;2-Butene, 1,4-dichloro-, <em>trans</em>-;(2<em>E</em>)-1,4-Dichloro-2-butene;(<em>E</em>)-1,4-Dichloro-2-butene;<em>trans</em>-1,4-Dichloro-2-butene;1,4-Dichloro-<em>trans</em>-2-butene;<em>trans</em>-1,4-Dichlorobuten-2-ene;1,4-Dichloro-2-<em>trans</em>-butene;(2E)-1,4-Dichlorobut-2-ene",
    "duplicated_cas_no": "",
    "SMILES": "C(=C/CCl)\\CCl",
    "meta_data": {
        "InChI": "InChI=1S/C4H6Cl2/c5-3-1-2-4-6/h1-2H,3-4H2/b2-1+",
        "InChIKey": null,
        "Canonical SMILES": "ClCC=CCCl",
        "Molecular Formula": "C<sub>4</sub>H<sub>6</sub>Cl<sub>2</sub>",
        "Molecular Mass": "125.00",
        "Boiling Point": "155.4 °C",
        "Melting Point": "2 °C",
        "Density": "1.183 g/cm³ @ Temp: 25 °C"
    }
}