{
    "cas_no": "37795-77-0",
    "key_name": "5-Methoxyisatoic anhydride",
    "cn_name": null,
    "alternate_name": "2<em>H</em>-3,1-Benzoxazine-2,4(1<em>H</em>)-dione, 6-methoxy-;6-Methoxy-2<em>H</em>-3,1-benzoxazine-2,4(1<em>H</em>)-dione;6-Methoxy-4<em>H</em>-3,1-benzoxazine-2,4(1<em>H</em>)-dione;6-Methoxy-1<em>H</em>-benzo[<em>d</em>][1,3]oxazine-2,4-dione;NSC 163035;6-Methoxy-2<em>H</em>-benzo[<em>d</em>][1,3]oxazine-2,4(1<em>H</em>)-dione;5-Methoxyisatoic anhydride",
    "duplicated_cas_no": "",
    "SMILES": "O=C1C=2C(NC(=O)O1)=CC=C(OC)C2",
    "meta_data": {
        "InChI": "InChI=1S/C9H7NO4/c1-13-5-2-3-7-6(4-5)8(11)14-9(12)10-7/h2-4H,1H3,(H,10,12)",
        "InChIKey": null,
        "Canonical SMILES": "O=C1OC(=O)C2=CC(OC)=CC=C2N1",
        "Molecular Formula": "C<sub>9</sub>H<sub>7</sub>NO<sub>4</sub>",
        "Molecular Mass": "193.16",
        "Melting Point": "242-244 °C"
    }
}