{
    "cas_no": "94134-18-6",
    "key_name": "2-Methoxy-6-propylnaphthalene",
    "cn_name": null,
    "alternate_name": "Naphthalene, 2-methoxy-6-propyl-;2-Methoxy-6-propylnaphthalene;2-Propyl-6-methoxynaphthalene",
    "duplicated_cas_no": "",
    "SMILES": "C(CC)C1=CC2=C(C=C(OC)C=C2)C=C1",
    "meta_data": {
        "InChI": "InChI=1S/C14H16O/c1-3-4-11-5-6-13-10-14(15-2)8-7-12(13)9-11/h5-10H,3-4H2,1-2H3",
        "InChIKey": null,
        "Canonical SMILES": "O(C=1C=CC2=CC(=CC=C2C1)CCC)C",
        "Molecular Formula": "C<sub>14</sub>H<sub>16</sub>O",
        "Molecular Mass": "200.28",
        "Melting Point": "49-50 °C"
    }
}