{
    "cas_no": "17696-11-6",
    "key_name": "8-Bromooctanoic acid",
    "cn_name": null,
    "alternate_name": "Octanoic acid, 8-bromo-;Caprylic acid, η-bromo-;8-Bromooctanoic acid;8-Bromocaprylic acid;ω-Bromooctanoic acid",
    "duplicated_cas_no": "671195-24-7",
    "SMILES": "C(CCCCBr)CCC(O)=O",
    "meta_data": {
        "InChI": "InChI=1S/C8H15BrO2/c9-7-5-3-1-2-4-6-8(10)11/h1-7H2,(H,10,11)",
        "InChIKey": null,
        "Canonical SMILES": "O=C(O)CCCCCCCBr",
        "Molecular Formula": "C<sub>8</sub>H<sub>15</sub>BrO<sub>2</sub>",
        "Molecular Mass": "223.11",
        "Boiling Point": "147-150 °C @ Press: 2 Torr",
        "Melting Point": "38.5 °C"
    }
}