{
    "cas_no": "7357-67-7",
    "key_name": "4-(3-Chloropropyl)morpholine",
    "cn_name": "N-(3-氯丙基)吗啉;4-(3-氯丙基)吗啉;N-(3-氯丙基)吗啡啉;",
    "alternate_name": "Morpholine, 4-(3-chloropropyl)-;4-(3-Chloropropyl)morpholine;3-Morpholinopropyl chloride;<em>N</em>-(3-Chloropropyl)morpholine;1-Chloro-3-morpholinopropane;NSC 28831;NSC 38889;3-Chloro-1-(morpholin-4-yl)propane;3-(Morpholin-4-yl)propyl chloride",
    "duplicated_cas_no": "",
    "SMILES": "C(CCCl)N1CCOCC1",
    "meta_data": {
        "InChI": "InChI=1S/C7H14ClNO/c8-2-1-3-9-4-6-10-7-5-9/h1-7H2",
        "InChIKey": null,
        "Canonical SMILES": "ClCCCN1CCOCC1",
        "Molecular Formula": "C<sub>7</sub>H<sub>14</sub>ClNO",
        "Molecular Mass": "163.65",
        "Boiling Point": "110-115 °C @ Press: 25 Torr",
        "Density": "1.0409 g/cm³ @ Temp: 20 °C"
    }
}