{
    "cas_no": "3398-09-2",
    "key_name": "3-Methyl-4-[2-(3-methylphenyl)diazenyl]benzenamine",
    "cn_name": null,
    "alternate_name": "Benzenamine, 3-methyl-4-[2-(3-methylphenyl)diazenyl]-;<em>m</em>-Toluidine, 4-(<em>m</em>-tolylazo)-;Benzenamine, 3-methyl-4-[(3-methylphenyl)azo]-;3-Methyl-4-[2-(3-methylphenyl)diazenyl]benzenamine;Fast Garnet GC Base;2,3′-Dimethyl-4-aminoazobenzene;4-Amino-2,3′-dimethylazobenzene;4-(<em>m</em>-Tolylazo)-<em>m</em>-toluidine",
    "duplicated_cas_no": "",
    "SMILES": "N(=NC1=C(C)C=C(N)C=C1)C2=CC(C)=CC=C2",
    "meta_data": {
        "InChI": "InChI=1S/C14H15N3/c1-10-4-3-5-13(8-10)16-17-14-7-6-12(15)9-11(14)2/h3-9H,15H2,1-2H3",
        "InChIKey": null,
        "Canonical SMILES": "N(=NC1=CC=C(N)C=C1C)C2=CC=CC(=C2)C",
        "Molecular Formula": "C<sub>14</sub>H<sub>15</sub>N<sub>3</sub>",
        "Molecular Mass": "225.29",
        "Melting Point": "81-82 °C"
    }
}