{
    "cas_no": "4399-47-7",
    "key_name": "Bromocyclobutane",
    "cn_name": "环丁基溴;溴化环丁烷;",
    "alternate_name": "Cyclobutane, bromo-;Bromocyclobutane;Cyclobutyl bromide",
    "duplicated_cas_no": "",
    "SMILES": "BrC1CCC1",
    "meta_data": {
        "InChI": "InChI=1S/C4H7Br/c5-4-2-1-3-4/h4H,1-3H2",
        "InChIKey": null,
        "Canonical SMILES": "BrC1CCC1",
        "Molecular Formula": "C<sub>4</sub>H<sub>7</sub>Br",
        "Molecular Mass": "135.00",
        "Boiling Point": "108.2-108.3 °C",
        "Density": "1.43 g/cm³ @ Temp: 24 °C"
    }
}