{
    "cas_no": "696-40-2",
    "key_name": "3-Iodobenzylamine",
    "cn_name": null,
    "alternate_name": "Benzenemethanamine, 3-iodo-;Benzylamine, <em>m</em>-iodo-;3-Iodobenzenemethanamine;<em>m</em>-Iodobenzylamine;3-Iodobenzylamine;NSC 96895;(3-Iodophenyl)methanamine",
    "duplicated_cas_no": "",
    "SMILES": "C(N)C1=CC(I)=CC=C1",
    "meta_data": {
        "InChI": "InChI=1S/C7H8IN/c8-7-3-1-2-6(4-7)5-9/h1-4H,5,9H2",
        "InChIKey": null,
        "Canonical SMILES": "IC1=CC=CC(=C1)CN",
        "Molecular Formula": "C<sub>7</sub>H<sub>8</sub>IN",
        "Molecular Mass": "233.05",
        "Boiling Point": "132 °C @ Press: 8 Torr",
        "Melting Point": "248-249 °C"
    }
}