{
    "cas_no": "7300-34-7",
    "key_name": "4,9-Dioxa-1,12-dodecanediamine",
    "cn_name": null,
    "alternate_name": "1-Propanamine, 3,3′-[1,4-butanediylbis(oxy)]bis-;Propylamine, 3,3′-(tetramethylenedioxy)bis-;3,3′-[1,4-Butanediylbis(oxy)]bis[1-propanamine];α,ω-Diamino-4,9-dioxadodecane;1,4-Butanediol bis(3-aminopropyl) ether;1,4-Bis(3-aminopropoxy)butane;3,3′-(Tetramethylenedioxy)bis(propylamine);1,4-Bis(γ-aminopropoxy)butane;4,9-Dioxa-1,12-dodecanediamine;3,3′-(Tetramethylenedioxy)di(propanamine);1,12-Diamino-4,9-dioxadodecane;4,9-Dioxa-1,12-diaminododecane;NSC 36635;1,12-Diamine-4,9-dioxadodecane;B 12;Baxxodur EC 280;EC 280;NDPA 12;3,3′-(Butane-1,4-diylbis(oxy))bis(propan-1-amine)",
    "duplicated_cas_no": "1352480-53-5;1425008-15-6",
    "SMILES": "C(CCOCCCN)COCCCN",
    "meta_data": {
        "InChI": "InChI=1S/C10H24N2O2/c11-5-3-9-13-7-1-2-8-14-10-4-6-12/h1-12H2",
        "InChIKey": null,
        "Canonical SMILES": "O(CCCN)CCCCOCCCN",
        "Molecular Formula": "C<sub>10</sub>H<sub>24</sub>N<sub>2</sub>O<sub>2</sub>",
        "Molecular Mass": "204.31",
        "Boiling Point": "125-130 °C @ Press: 4 Torr",
        "Density": "0.9324 g/cm³ @ Temp: 20 °C"
    }
}