{
    "cas_no": "2631-77-8",
    "key_name": "3,5-Diiodosalicylaldehyde",
    "cn_name": "3,5-二碘水杨醛;",
    "alternate_name": "Benzaldehyde, 2-hydroxy-3,5-diiodo-;Salicylaldehyde, 3,5-diiodo-;2-Hydroxy-3,5-diiodobenzaldehyde;3,5-Diiodosalicylaldehyde;3,5-Diiodo-2-hydroxybenzaldehyde;3,5-Iodosalicylaldehyde",
    "duplicated_cas_no": "1186391-54-7",
    "SMILES": "C(=O)C1=C(O)C(I)=CC(I)=C1",
    "meta_data": {
        "InChI": "InChI=1S/C7H4I2O2/c8-5-1-4(3-10)7(11)6(9)2-5/h1-3,11H",
        "InChIKey": null,
        "Canonical SMILES": "O=CC=1C=C(I)C=C(I)C1O",
        "Molecular Formula": "C<sub>7</sub>H<sub>4</sub>I<sub>2</sub>O<sub>2</sub>",
        "Molecular Mass": "373.91",
        "Melting Point": "108 °C"
    }
}