{
    "cas_no": "116-29-0",
    "key_name": "Tetradifon",
    "cn_name": "三氯杀螨砜;1,2,4-三氯-5-[(4-氯苯基)磺酰]苯;2,4,4\",5-四氯二苯砜;",
    "alternate_name": "Benzene, 1,2,4-trichloro-5-[(4-chlorophenyl)sulfonyl]-;Sulfone, <em>p</em>-chlorophenyl 2,4,5-trichlorophenyl;1,2,4-Trichloro-5-[(4-chlorophenyl)sulfonyl]benzene;V 18;<em>p</em>-Chlorophenyl 2,4,5-trichlorophenyl sulfone;Duphar;Tedion;2,4,4′,5-Tetrachlorodiphenyl sulfone;Tedion V 18;Tetradifon;Tetradiphon;Mition;Roztoczol;Aredion;Akaritox;Polacaritox;Roztoczol extra",
    "duplicated_cas_no": "",
    "SMILES": "S(=O)(=O)(C1=C(Cl)C=C(Cl)C(Cl)=C1)C2=CC=C(Cl)C=C2",
    "meta_data": {
        "InChI": "InChI=1S/C12H6Cl4O2S/c13-7-1-3-8(4-2-7)19(17,18)12-6-10(15)9(14)5-11(12)16/h1-6H",
        "InChIKey": null,
        "Canonical SMILES": "O=S(=O)(C1=CC=C(Cl)C=C1)C2=CC(Cl)=C(Cl)C=C2Cl",
        "Molecular Formula": "C<sub>12</sub>H<sub>6</sub>Cl<sub>4</sub>O<sub>2</sub>S",
        "Molecular Mass": "356.05",
        "Melting Point": "146.5-147.5 °C",
        "Density": "1.151 g/cm³ @ Temp: 20 °C"
    }
}