{
    "cas_no": "28491-52-3",
    "key_name": "3-Amino-5-hydroxypyrazole",
    "cn_name": null,
    "alternate_name": "3<em>H</em>-Pyrazol-3-one, 5-amino-1,2-dihydro-;Pyrazol-3-ol, 5-amino-;3-Pyrazolin-5-one, 3-amino-;5-Amino-1,2-dihydro-3<em>H</em>-pyrazol-3-one;3-Amino-3-pyrazolin-5-one;5-Amino-3-pyrazolone;NSC 408479;5-Amino-1<em>H</em>-pyrazol-3-ol;3-Amino-5-hydroxypyrazole;3-Amino-1<em>H</em>-pyrazol-5-ol;5-Aminopyrazol-3-ol;NSC 60188;5-Amino-3-hydroxy-1<em>H</em>-pyrazole;5-Amino-1<em>H</em>-pyrazol-3(2<em>H</em>)-one",
    "duplicated_cas_no": "39977-36-1;145092-00-8;155879-93-9",
    "SMILES": "NC1=CC(=O)NN1",
    "meta_data": {
        "InChI": "InChI=1S/C3H5N3O/c4-2-1-3(7)6-5-2/h1H,(H4,4,5,6,7)",
        "InChIKey": null,
        "Canonical SMILES": "O=C1C=C(N)NN1",
        "Molecular Formula": "C<sub>3</sub>H<sub>5</sub>N<sub>3</sub>O",
        "Molecular Mass": "99.09",
        "Melting Point": "204 °C"
    }
}