{
    "cas_no": "6940-57-4",
    "key_name": "1-(6-Methyl-2-pyridinyl)ethanone",
    "cn_name": "2-乙酰基-6-甲基吡啶;",
    "alternate_name": "Ethanone, 1-(6-methyl-2-pyridinyl)-;Ketone, methyl 6-methyl-2-pyridyl;1-(6-Methyl-2-pyridinyl)ethanone;2-Acetyl-6-methylpyridine;6-Methyl-2-acetylpyridine;NSC 60153;1-(6-Methylpyridin-2-yl)ethanone;1-(6-Methylpyridin-2-yl)ethan-1-one",
    "duplicated_cas_no": "",
    "SMILES": "C(C)(=O)C=1N=C(C)C=CC1",
    "meta_data": {
        "InChI": "InChI=1S/C8H9NO/c1-6-4-3-5-8(9-6)7(2)10/h3-5H,1-2H3",
        "InChIKey": null,
        "Canonical SMILES": "O=C(C=1N=C(C=CC1)C)C",
        "Molecular Formula": "C<sub>8</sub>H<sub>9</sub>NO",
        "Molecular Mass": "135.16",
        "Boiling Point": "82-83 °C @ Press: 11 Torr"
    }
}