{
    "cas_no": "6302-02-9",
    "key_name": "1-(2-Pyridinyl)-2-propanone",
    "cn_name": null,
    "alternate_name": "2-Propanone, 1-(2-pyridinyl)-;2-Propanone, 1-(2-pyridyl)-;2-Propanone, (2-pyridyl)-;1-(2-Pyridinyl)-2-propanone;2-Acetonylpyridine;(2-Pyridyl)acetone;1-(2-Pyridyl)acetone;2-Picolyl methyl ketone;NSC 42754;1-(Pyridin-2-yl)acetone;2-(2-Oxopropan-1-yl)pyridine;1-Pyridyl-2-propanone",
    "duplicated_cas_no": "",
    "SMILES": "C(C(C)=O)C1=CC=CC=N1",
    "meta_data": {
        "InChI": "InChI=1S/C8H9NO/c1-7(10)6-8-4-2-3-5-9-8/h2-5H,6H2,1H3",
        "InChIKey": null,
        "Canonical SMILES": "O=C(C)CC1=NC=CC=C1",
        "Molecular Formula": "C<sub>8</sub>H<sub>9</sub>NO",
        "Molecular Mass": "135.16",
        "Boiling Point": "92 °C @ Press: 1.5 Torr"
    }
}