{
    "cas_no": "31112-62-6",
    "key_name": "Metrizamide",
    "cn_name": "甲泛葡胺;",
    "alternate_name": "<span class=\"text-smallcaps\">D</span>-Glucose, 2-[[3-(acetylamino)-5-(acetylmethylamino)-2,4,6-triiodobenzoyl]amino]-2-deoxy-;<span class=\"text-smallcaps\">D</span>-Glucose, 2-[3-acetamido-2,4,6-triiodo-5-(<em>N</em>-methylacetamido)benzamido]-2-deoxy-;2-[[3-(Acetylamino)-5-(acetylmethylamino)-2,4,6-triiodobenzoyl]amino]-2-deoxy-<span class=\"text-smallcaps\">D</span>-glucose;Metrizamide;Amipaque;Telebrix 300;2-[3-Acetamido-5-(<em>N</em>-methylacetamido)-2,4,6-triiodobenzamido]-2-deoxy-<span class=\"text-smallcaps\">D</span>-glucose;MeSH ID: D008793",
    "duplicated_cas_no": "1087712-50-2",
    "SMILES": "C(N[C@H]([C@H]([C@@H]([C@@H](CO)O)O)O)C=O)(=O)C1=C(I)C(N(C(C)=O)C)=C(I)C(NC(C)=O)=C1I",
    "meta_data": {
        "InChI": "InChI=1S/C18H22I3N3O8/c1-6(27)22-14-11(19)10(12(20)15(13(14)21)24(3)7(2)28)18(32)23-8(4-25)16(30)17(31)9(29)5-26/h4,8-9,16-17,26,29-31H,5H2,1-3H3,(H,22,27)(H,23,32)/t8-,9+,16+,17+/m0/s1",
        "InChIKey": null,
        "Canonical SMILES": "O=CC(NC(=O)C1=C(I)C(NC(=O)C)=C(I)C(=C1I)N(C(=O)C)C)C(O)C(O)C(O)CO",
        "Molecular Formula": "C<sub>18</sub>H<sub>22</sub>I<sub>3</sub>N<sub>3</sub>O<sub>8</sub>",
        "Molecular Mass": "789.10",
        "Melting Point": "223 °C (decomp)"
    }
}