{
    "cas_no": "890652-03-6",
    "key_name": "1-(4-Fluorophenyl)-1<em>H</em>-pyrazole-4-carboxaldehyde",
    "cn_name": "1-(4-氟苯基)-1H-吡咯-4-甲醛;",
    "alternate_name": "1<em>H</em>-Pyrazole-4-carboxaldehyde, 1-(4-fluorophenyl)-;1-(4-Fluorophenyl)-1<em>H</em>-pyrazole-4-carboxaldehyde;1-(4-Fluorophenyl)pyrazole-4-carboxaldehyde;1-(4-Fluorophenyl)-1<em>H</em>-pyrazole-4-carbaldehyde;1-(4-Fluorophenyl)pyrazole-4-carbaldehyde",
    "duplicated_cas_no": "",
    "SMILES": "C(=O)C1=CN(N=C1)C2=CC=C(F)C=C2",
    "meta_data": {
        "InChI": "InChI=1S/C10H7FN2O/c11-9-1-3-10(4-2-9)13-6-8(7-14)5-12-13/h1-7H",
        "InChIKey": null,
        "Canonical SMILES": "O=CC=1C=NN(C1)C2=CC=C(F)C=C2",
        "Molecular Formula": "C<sub>10</sub>H<sub>7</sub>FN<sub>2</sub>O",
        "Molecular Mass": "190.17",
        "Melting Point": "120-122 °C"
    }
}