{
    "cas_no": "32131-17-2",
    "key_name": "Nylon 66",
    "cn_name": null,
    "alternate_name": "Poly[imino(1,6-dioxo-1,6-hexanediyl)imino-1,6-hexanediyl];Nylon 66;Zytel 101;Poly(hexamethyleneadipamide);Adipic acid-hexamethylenediamine polymer, SRU;Adipic acid-hexanediamine polymer SRU;Adipic acid-1,6-hexanediamine polymer SRU;Amilan CM 3001;Hexanediamine-adipic acid polymer SRU;Zytel 42;Zytel 43;Polyamid 66;Adipoyl dichloride-hexamethylenediamine polymer, SRU;Adipyl chloride-1,6-hexanediamine polymer, SRU;Maranyl A 100;Polypenco 66D;Poly(hexamethylenediamine-adipate);Ultramid A 3WG7;Zytel FE 2380;Polyamide 66;Poly(hexamethyleneadipamide), SRU;Dartek;Ultramid A 3K;Poly(hexamethylenediammonium adipate), SRU;Anid;Nylon 6/6;Hexamethyleneadipamide polymer;Ultramid A;Nailonplast;1,6-Hexanediamine, polymer with hexanedioic acid;Hexanedioic acid, polymer with 1,6-hexanediamine;Leona 130;Wellamide 6600;Zytel 103;Zytel 408;Maranyl A 190;Amilan CM 3001N;Torayca N 66;CM 3001;Minlon 10A40;Zytel 70G33L;Sniavitrid SSD 250I;Minlon 10BI40;Maranyl A 119;Maranyl AD 151;Ultramid A 3W-G5;CN 33;Leona 1200;Ultramid A 4H;Amilan CM 3011;Ultramid A 4;Leona 1300S;Akulon 66;Ultramid A 3R;2020B;Sniamid SSD;Zytel 101L;AS 30a;Nylatron NSB;TSP 66;Polypenco Nylon 101;Zytel 70G33HR-L;Polypenco 101;Technyl B;Vydyne RP 260;Adipoyl chloride-hexamethylenediamine copolymer, SRU;Vydyne 21;AS 20M;Supronyl N 100;RF 10010HS;Vydyne 21X;PA 66KS;Durethan A 40S;Ultramid A 3HG5;Maslyanit 66;Vydyne R 100;Durethan A 30S;Durethan A 30SH;Durethan AKV 30H;Nylatron GS;Leona 1300;Leona;Ultramid A 3;Ultramid A 5;Ube Nylon 2020B;Ube 2020B;2026B;Amilan CM 3001G;Durethan AKV 40H;Nylon 2020B;Technyl A 216;Ultipor NM;Grilon T 300GM;Grilon T 300VO;Grilon TV 35H;Technyl A 216Y10;Technyl A 217;Maranyl A 150;P 66KS;Nypel 114;2015B;Novamid 3010J;3001N;2020U;2020UW1;CM 3001T30B;Zytel BK 157;Ultipor N<sub>66</sub>T;Zytel 131;Amilan 3006;Technyl A 200;Fabenyl 45APBH;Fabenyl R 600;Zytel 42HSB;Amilan 66;GT 50N;Technyl 50AP;Maranyl A 101;Amilan CM 3007;Amilan CM 3001M;Technyl A 221;Zytel 101LNC10;Fiberite RTP 283;PA 66;Zytel E 101;Maranyl A 125;Polypla 1000-2;Zytel 1010;Ultipor N<sub>66</sub>;Sniamid SSD-AP/ST;Amilan 3007;Adipamide-hexamethylenediamine copolymer SRU;Leona 1200S;Amilan CM 3006;Polypla 66;Verton RF 7006;Verton RF 70010;Maranyl A 690;Akulon S 240C;NP 10000;Leona 1402G;Polypla 1003-2;Ultramid A 3W;Akulon S 223B;Ultramid A 3WG6;Vydyne 66B;Maranyl AD 385;CM 3006;Leona 1500;CM 3007;Amilan CM 300;Adipic acid-hexamethylenediamine copolymer, SRU;Verton RA 7004;Verton R 1000;Verton RA 1004;Verton RC 1004;Verton RF 1004;Verton RAL 4023;Zytel 70G33;Leona MR 001;Maranyl A 127;Capran 996;CM 3001N;Durethan KU 2-2227;A 3R;Vydyne 21HS;Ube 2020;Ube 2023;P 2020 (polyamide);CM 3001G30;Amilan CM 3001G30;2022B;Polyvel B 75SKR;Ube Nylon 2026B;Ube Nylon P 2020;Novamid 3010SR;Zytel 101NC10;P 2020;A 218;FE 50;A 203 (nylon);Zytel 101F;Maranyl A 117;Zytel 122L;Dartek F 101;Zytel 301HS;A 203;Maranyl A 1404;Nytran 66;Leona 1500S;A 146 (nylon);A 146;Durethan A 30;Durethan KU 2-2403/40;Leona 1300G;AP 50 (nylon);AP 50;Amilan CM 167;Nylon SG;Zytel FE 3105BK;Polynil 50;Bandain;adipoyl chloride-1,6-hexanediamine copolymer, SRU;Durethan AKV 30;Ultramid A 4K;2020U50;Minlon 13T2;Grilon T 300;Zytel 103HS-L;Durethan A 31;Fabenyl R 610;Maranyl A 146;Vydyne 22H;Zytel 70G43HSL-NC;Amilan 3006B;A 153 (nylon);A 153;Zytel 122HRL;AD 153;Nylon 1003-2;N 186;Celanese 1003-1;Celanese 1003-2;A 175 (nylon);A 190S;AD 457;AD 225;AD 226;2026D;A 175;Zytel 70G43L;MC 300;UBE Nylon 2026D;F 662;Amilan CM 3007N;AKV 30H;Maranyl A 100S;AP 203;T 662;Akulon S 223E;Amilan E 3001;Sartorius SM 250007;140AP;Technyl A 218;Polyplastics 1003-1;Grilon T 300FC;Polyamides, nylon 66;Zytel HS 103;Ube 2026;A 153P0118;Amilan 30001N;A 125;Leona 1702;P 50;P 50 (nylon);T 300;Ube Nylon 2015B;Leona AYR;Ube 2015B;Amilan NY 66;Zytel 70G13L;Zytel 408HS;Verton RF 70010EM;Verton RF 70012EM;Verton PDX-R 90529;Maranyl A 226;Leona 1402S;Toplamid 2021;Zytel 1032MC;Leona 66;Leona 1402;Zytel 80G33HS1L;Zytel FE 3421;1200S;Ultramid AS 2500S;A 4H;Amilan CM 3001G15;Vydyne ETP;Vydyne ECO 315;A 100N;Ultramid 112;Akulon S 228;2020GC3;2020GC9;ThermoStran PA 66-50G;Fiberstran G 1/50Natl;1,8-Diazacyclotetradecane-2,7-dione homopolymer, sru;Capron 5233G;Nylet P 50;Technyl B 216V331;Zytel EFE 7185BK99;Leona 54G33;Ultramid A 3EG5;Ultramid A 3X2G5;Rheofil;MC 300 (nylon);UBE 2026B;RF 700-10HS;RF 700-12HS;22H;2033B;Capron 5233G-HS;Zytel 70G33HS1L;FE 3704;Leona 1420G;Nylon 2026B;Zytel 70G35HSL;Novamid 3010;Schulamid;A 125J;A 3HG7;Akulon S 223G6;Vydyne 65A;Zytel 103HS;FE 3705;A 205;A 205 (polyamide);Ube Nylon 2046B;2046B;Radilon ARV 300;Zytel 42A;DB 9;Maranyl A 231;Zytel 101DP;Zytel 70G35HSLR;Zytel 70G35HSLX;Zytel 70G35HTN;A 100;Sartorius ST 02;Sartorius ST 045;A 100 (polyamide);Ube Nylon 2020H;2020H;Ultramid A 3G6;Ultramid A 3G10;A 216V35;A 216V50;Zytel FE 3218;Ube 21015B;21015B;M 17;M 17 (polyamide);Akulon J 70/33;Akulon J 70/30;Thermocomp RF 100-10;FE 3218;Ube Nylon 2210B;2210B;Ultramid A 45;Ube Nylon 2022B;R 1000;RF 1006;RA 1002 (nylon);A 3Z;A 3EG10;Ultramid A 15;Amilan CM 3006G30;CM 3006G30;Zytel EFE 8089;Torayca 3001T30;2030B;Systemer FE 20102;R 8270;Polypla 1500-2;TY 865GZ;T 661;A 142 (nylon);A 142;Poly[imino-1,6-hexanediylimino(1,6-dioxo-1,6-hexanediyl)];Novamid 3021GH30;126AM30P;Leona 90G50;Tecnonylon 27A00;Zytel EFE 7276BK398;Zytel 22C;Ultramid 105;Celanese 1100;3021G30;Akulon S 222;Zytel EFE 1032;Pyrofil N 66C20;Vydyne 21SP;FE 5407;Celex 800RV41;Systemer A 216;Novamid 30100SR;Durethan KU 2-2240;Schulamid 66MV2;2020GC6;70G33L;Torayca 3101T40;Durethan AKV 30HR;M 3001;Leona 14G50;Leona 14G33;Leona 14G25;Zytel 70G33HS1L-NC010;ATM 2A;Zytel FE 3705;Akulon S 223D;Zytel 70G30;Sutatokon R;N 276;1300S;Plastron PA 66GF60-01;101L;Ultramid A 3EG7;Ultramid A 3X3G5;Ultramid A 3X3G7;Ultramid A 3X2G7;Ultramid A 3XZG5;Amilan CM 3001G45;Ultramid A 3X3;2120U;Adipic acid-1,6-hexanediamine copolymer, SRU;Zytel 103FHS;Technyl 29AP-NH;Technyl 27A;Leona 13G15;Adipoyl dichloride-hexamethylenediamine copolymer, SRU;Leona FG 172X61;Dartek T 404;Dartek C 917;Technyl A 302V25;A 302V25;PA 6,6 LOW IV/PX 1010;Schulamid PA 66SK1000;Zytel E 103HSL-NC010;Zytel 70G35HSL-BK39B;Zytel EFE 1093NC010;Zytel E 50;Leona 13G43;Akulon 228AUG;Amilan 3000;Plastron PA 66GF45;Zytel 101NC010;Nylene 132L;Leona 1702X01;Ube Nylon 2020U;CN 3001N;Sartolon Polyamide SM 25006-47N;24FE1;Celanese 1200;101NC;M 3001C;Plastron PA 66GF45-01;Zytel FE 1111;Zytel 101FNC010;A 3K;M 13T2GY282;M 10B140NC10;MEFE 6052NC10;MEFE 6053BK16;ZE 103HSLCNC1;0101LNC10;0101FNC10;ZEFE 8018NC10;Z 80G33HS1LNC;Z 70G20HSLNC1;Z 70G30HSLNC1;Z 70G35HSLBK3;Z 70G35HSLA4B;Z 70G43LNC10;Z 79G13HSLBK3;0135FNC10;Z 408NC10;ZE 42NC10;Z 490NC10;ZST 801LNC;YFR 27;Ultramid A 25;Ube Nylon 2020GU6;2020GU6;101NC010;Leona CF 300;CF 300;Ganpla N 66G-M;A 218V30;Radilon A;T 6342;Ultramid A 3HG3;Ultramid A 3HG7;Ultramid A 3WG10;MB 4620-00;A 125N;Ascend 66J;Zytel FE 3757;RA 1002;Ube Nylon 2020GC6;Durethan A 30H;Zytel 45HSB;Akulon PA 66;Technyl 27A00;LP 1300;AF 1111;Zytel 42NC010;Zytel 110;Rhodia 24AE1;EPR 32;Amilan 3010T40;Vydyne 66Z;Wrightlon 7400;E 53;E 53 (nylon);Amilan E 3100;Leona 1300-001;Leona 1402S011;Celstran LSG 40;Zytel E 101L;Amilan E 3000;F 837;F 6395;529L;Bergamid A 70NAT;EPR 27;Zytel 101LNC010;Vydyne 50BW;Zytel E 4010;Novamid 3021G30;A 216;Nylaflo;Leona 1700;Zytel E 51HSB-NC010;Topiramid;Polypranylon 6;Dartek BF 620;Dartek B 602;Creamid A 3H2;Electropor;Leona 66 1500X21;Leona 1500X21;Latamid 66H2G30;Vydyne 21PC;Zytel 801AHS;Zytel 409AHS;Technyl A 218V25;Leona 1200-011;Radipol A 40D;Leona 1300-011;N 17;N 17 (nylon);2020U10;Radipol A 45H;Technyl A 218V35;Zytel ETE 8073NC010A;Zytel 3071;145PA66;Zytel AST 801HSNC010;Zytel 408NC010;PA 100;Zytel 70G30HSL;PA 100 (polyamide);Leona 1700S;Leona FR 200;Writron 7400;Zytel CDV 805;Technyl A 218MZ15V25;Vydyne 21Z;Zytel 101HSL;Signy;EPR 27H;Leona 1500X11;S 222;Leona 1300S3J1;Schulamid 66GF30-2K-WIT;Radipol A 45;A 45;Vydyne 21ZLV;Vydyne 48BX;Amilan M 3001;Technyl 24FE1;Leona TR 160;Leona TR 380;AVOF;Plastron PA 66GF30-02;Plastron PA 66GF50-02;Plastron PA 66GF60-02;Stat-Kon R 1HI;M 20;M 20 (nylon);EPR 27N;Vydyne 6/6B;Nylon 101;2020GU5;Ube Nylon 2020GU5;Ube Nylon 2026U;2026U;Terez 7100;Zytel 101NC;Zytel E 101LN10;Vydyne 66J;A 3;E 2000;Vydyne 538;Dartek SF 502;Dartek 0401;Frianyl A 63VNGV;2026D (polyamide);Celanese 1503-2P;ANOF;Tufnyl RGF 33;Tufnyl RGF 33 Natural;Thermocomp RF 1004;Celstran PA 66GF50-02;Sefar Nitex 03-310/45;ZY 103HSL;Amilan CM 3036;FYR 27;Amilan CM 1206;24AD1;Polynil 66P50/1;Minlon IG 39BK434;Ultramid A 24;Zytel EFE 1147-010;Factor PA-LGF;Nitex 03660/40;Leona 1400;Zytel 80G33HS1L-NC010;AFE 1111;A 101;Zytel 70G33HSL;27AE1B;21SPC;A 101 (nylon);Ultramid A 27;24SE;A 3HG5;Technyl Star AFX-V 50;Technyl Star AFX-V 60;PACM 3001N;Stabamid 27AE1;A 3W;Stabamid 27A;FYR 25;Bergamid A 65;Durethan AC 30;Millipore GN;FDK 1 (nylon);FDK 1;Utexbel 12185;Novamid 3021G;Technyl 26AE1;Ube Nylon 2120U;Latamid 66GF30;Zytel 101L-C010;Zytel FE 3637NC10;Technyl 24AE1;Ultramid A 3H2;A 27E01;Ube Nylon 2020;A 2300;A 2700;Staramide AG 7K;Starflam RF 1007;Leona 93G33;Zytel 70G25;T 663G15;Technyl A 502;E 3001;Terez PA 6.6-7600H;Ube Nylon 2020GU550;Zytel FE 310036;Ultramid A 27E;Celanese Nylon 1200;EPR 24;Ube 2020GU550;2730G;Stabamid 24A;Tecamid 66GF30;Maranyl A 125J;Ultramid A 27E01;Creamid A 3H2G6;Stabamid 24FE1;1300S011;KN 333HS;Kopa KM 333H;Kopa KM 333HS;Ultramid A 4401;Amilan 3001G30;FYR 27D;Amilan E 3000F;Zytel E 42A;Ultramid A 24E;P 2020E;27AE;Docamid 66GF30;Ultramid A 3WC4;RC 1006;Ultramid A 3EG6;RAL 4023;Vampamid 66-2526V0 Naturale 30;Ultramid A 34-01;Vidyne 50BWFS25AE1;MPR 27;24EF;Stabamid 23AE;Zytel 01F-NC010;Durethan AKV 35H3.0;E 2001R;PA 2026;E 2001;CM 3004G30;Zytel E 40NC010;Leona 1300S011;Radilon A-NH;3010R;27AD1;Technyl 23A;VLF 80207EM-HS;RTP 200;A 3WG5;Technyl SB 27A00;Dartek N 201;Polynil P 50;Durethan AKV 35CX-H2.0;Zytel EPL 02-2E30;Tecamid 66;50BWFS;70G33HS1L;HG 6230;Tepex Dynalite 101;Zytel 42A-NC010;Zytel FE 210021;EPR 2703;Technyl XCell A 218V35XL21N;WC 8500;A 27;Technyl 27AE1;Stabamid 24AE1;133GNT001;Leona 14G33X01;Technyl 26A;Zytel 011;FE 5480HS-BK;Stabamid 26FE1;C 917;HY 25;NPD 004;Ultramid A 34;HY 27;Dartek H 917;Durethan DP 2-1140/15H2.0;Durethan AKV 325H2.0;Durethan DP 2-2240/15H2.0;PA 66HY27;Maranyl 175S;Ultramid 1503-2F;FYR 25T03CL;Stabamid A 302NH;A 302NH;FYR 27B;RGF 33 Natural;Dinalon 66;ET 1;Stabamid 31AE1;AT 0110GN01;Zytel EFE 6053;Tecomid NA 40NLE;Ultramid 1310-11NF2001;SSP 72;Zytel 70G30L-NC010;Technyl A 218V30 Black 21NS;Technyl A 218V43;Technyl A 205F;70K20HSL;Zytel 7063;Ultramid A 3401;A 3401;A 85;Nylon 5011B;124AM00P;Leona 9400S;6210GC;Zytel 70G33HS;Ultramid A 27E1;HY 26;PA 6624FE2;Ultramid A 3SK;Minlon 10B40;CM 3006G;U 121;PA 20020;Leona 1300S321;Zytel E 51HSB;Zytel FR 7026V0F;Zytel 70K20HSL;Leona 470/72BAU;Leona 470/144BAU;Akulon S 223F;Technyl XA 1493;Technyl AR 218V30 Black;Glamide T 663G30;EPR 2.7;Chemlon 100;Stabamid 26AE1K;Nylon PA 66;Ertalon 66GF30;L 235T35B;T 225;80G33L;Ultramar A 3HG6;27AE1;24FE2;27FE2;153HSL;Zyter 42A NC010;ZYT 101;NC 010;Torzen U 4800NC01;NC 010 (polyamide);FTY 27;Durethan BKV 30H1.0;BKV 30H1.0;Technyl 26AE1K;Technyl A 218GV30;Zytel E 53NC010;Maranyl Nylon 66A226;Maranyl 66A226;Zytel 310036;N 6200N;NDP 20;A 3GET;65A;Ultramid A 3WG10LF;NI 36-002;NI 36-003;Leona 2300LA33295;Torzen U 4500NC01;Ultramid B 33L01;24AE1K;27AE1K;FYR 2.7;Technyl 27B10;A 218NAT;Stabamid 26AE2;ERP 27;PA 66EPR2.7;Radipol A 40;Vydyne 50BWFS;Zytel 70K20NC010;Stabamid 24AE1K;Zytel 135F;24AE1;Polynil P 60;CM 3006G30B1;N 200GP;Vydyne 22HSP;Kelon A-FR-H 2CETG300VO;Torzen U 4820L;PE 158;EP 158;PA 66GF30;PA 66GFR30;FE 16034;Polynil P 50/2;Zytel 45HSB-NC010;Stabamid 27AE1K;Vydyne 21SPC;P 50FL;EPR 27LW;DTRamid AG 50TB;E 2046;27AEXX;101L-NC010;Plastron PA 66GF30;3010SR;Zytel 103HSL33HS1L;Plastron PA 66GF60;Stabamid 25FS2;Stabamid 22FE1;SHF 51;22FE1;P 137N;Tepex Dynalite 201C200;Tepex Dynalite 201;Ertalon 66SA;Leona 1502S;SSP 60D;FYR 25BCL;Toyobo Nylon T 660X2;T 660X2;Zytel 70G35HSLX-BK357;ERP 24;PA 66GF25;21ZLV;U 4800;NC 01;101F;E 2000SL1;T 255;Technyl 1011R Bright;A 205F;Kopa KN 3311;KN 3311;ST 801;F 227D;1402S;CM 3006N;Amilan CM 3001CN;EPR 2700;V-Creamid A 3H2;U 4803;EP 1066;Zytel 70G35LNC010;EP 158N;PA 66LG50;Torayca 3101T20V;PXR 01NC;3101T10V;3101T30V;66SNN;PA 66CF30;Dinalon A 3S25-0042;Zytel FE 3218NC010;Stabamid 27AE;Stabamid 26AE1;6010A;Zytel 70G50HSLA-BK039;401R;FR 50;Leona 13005;70G33HS1L-BK031;70G33L-BK031;ST 801NC010A;23AE1K;Leona FH 772;PA 66GF35 Black;2020UW52;24A;Eplamid 66;Zytel E 55NC10;Tecatherm 66GF;27AE1K-BRT;Zytel ST 801A-NC010A;Changsu 0A1;0A1;Technyl 2110R;A 30S;Radilon A 27;Ultramid A 3EG10;Akromid A 3GF601;Nilamid A 3WGF55;Zytel 70G50HSL;Stabamid 24FE2;CM 3001M;Zytel 70G50HSLR;EPR 27W;A 3T10;Altech ECO 1000/561;Altech PA 66 ECO 1000/561;Alcom 910/1AR20;1042S011;Grilon BS 2 Natural;A 3L;E 2000SL;Vydyne 41H;Vydyne R 530HT;TPS-N 66NC;Stabamid 23A;65034FDX 40;Nylon 6/6 65034FDX 40;Technyl 22FE1;Evolite XA 1481;U 4820L;Vydyne NMA 11054;50FWFS;EP 158NH;50BW;Zytel 70G50HSLA-BK039B;EPR 27L;EPR 27L (polyamide);Zytel 75LG40HSL-BK031;RS 6600;Stabamid 38AP;Invista 3600;Ultramid A 3W2G6BK20560;101FNC010;66Y10;Vydyne R 530H-BK02;VLF 80207EMHS Nat;V-Creamid A 3H2G5;Vydyne 21FSR;EPR 32D;Complet LCF 50PA66;Zytel 75LG50HSL-BK031;Celstran PA 66GF40;EP 159;Heramid A-NAT-FV 030;Heramid A-NAT;Ultramid RX 2127;Radilon AN 6630HSL;Vydyne 67R;Glamide T 662;EPR 34W;103FSL;103HSL;Vydyne 65B;Torzen G 3000NC01;HF 010;Zytel ST 7301;ST 7301;R 08;Leona 1300-301;HLNTLA 010;Ultratape B 3WC12UD02;Luvocom 3CF12EG;HV 80A;PA 120S;PA 180S;EP 1106;EP 1107;KDP 1000;Vampamid 66-3026V0-40MF;WN 78T68;Denyl 66-3010T;Gramid N 200GP;PA 66024;Technyl A 218V30;BLA 020;Complet LCF30PA66-1021NAT;Lumid GP 1000B;EPR 2701;AG 25HM;GP 1000B;Technyl A 218V50;U 3600;NC 01SS;S 223E;U 4800NC01SS;MRGF 1518BK;Akulon S 223HG0;PDX-R 98372EES;Akulon R 624GS4U-BK2989;Ultramid A 27EZ08;Invista U 4800;6212GC;Tecamid 66GF30 Black;Tecamid 66MO Black;AKV 50;70G35HSL;Luvocom 1XCF25;Invista 3602;Rhodia A 548B2V15;GNWP 04700;Torzen U 4803NC01;A 3HG6;Bonyl F;Zytel 73G15;ER 27;Leona 1400S;U 3602;Zytel MT 409AHSBK010;Zytel 103HSL-NC010;Akromid A 3GF30;SHT-N 66NC;Ecomid ARX-H-GF 50BK9005;U 3600NC01SS;TL 1380G;Vydyne 30FWFS;T 31;T 31 (nylon);Akulon PA 66HC12;HY 1800 (polyamide);HY 1800;Torzen U 3501NC01;MTR 670;Unitika A 1015LP20;Ultramid A 3WC8;Invista U 4500;Invista U 4591;Stabamid 25AE1;SP 10S;Miramid SP 10S;Zytel 70K20HSL NC010;TT 6600-5001EC;ZX 066GF30G;Polynil P 50H2;U 3501NC01;Invista U 3600NC01;HY 26AE2;Torzen U 3500;Torzen U 4803;Creamid A 4H9;Tecamid 66LA;Technyl A 218V30BK34NG;Zytel 70G35EF;Ultramid A 3WQ601;Zytel FG 42A;EP 126NH;M 1013I;24FE2K;RE 0069S;RA 7N00;EP 122 (nylon);T 37 (nylon);Tanagin TN 710L;TN 710L;Tanagin TN 710;Polyone HC 6620;Leona 1200-321;T 42;6670G 33L;A 205F Black 21N;HyperFlow U 2501;PA 113CF30;Ascend Vydyne 67R;Hepla H 7210GF10CF;YN 27400;Akulon S 223HG6;Durethan AKV 25;Akulon K 223HG0;J 2600;EP 127HL;ECO 1000/116",
    "duplicated_cas_no": "9006-73-9;9011-55-6;37279-92-8;37281-17-7;51570-35-5;51801-23-1;52737-94-7;53663-47-1;58449-73-3;60408-39-1;61333-50-4;66524-26-3;68247-72-3;70903-94-5;71210-44-1;71714-57-3;72751-11-2;78170-72-6;78565-14-7;87004-34-0;102087-79-6;112429-08-0;146105-06-8;157857-03-9;164472-60-0;175386-52-4;185387-10-4;257934-44-4;607725-21-3;624745-91-1;828274-75-5;862202-46-8;895531-13-2;956379-75-2;1158722-81-6;1169579-69-4;1206627-32-8;1312752-59-2;1415713-42-6;1677678-91-9;1955468-83-3;2162918-77-4;2485713-33-3;2582706-07-6;2582715-38-4;2672505-87-0;2672505-89-2;2705872-64-4;2761520-39-0;2893783-31-6;3032000-91-9",
    "SMILES": "",
    "meta_data": {
        "InChI": "",
        "InChIKey": null,
        "Canonical SMILES": "",
        "Molecular Formula": "(C<sub>12</sub>H<sub>22</sub>N<sub>2</sub>O<sub>2</sub>)<sub>n</sub>",
        "Molecular Mass": "",
        "Melting Point": "242-245 °C",
        "Density": "1.127 g/cm³"
    }
}