{
    "cas_no": "51-28-5",
    "key_name": "2,4-Dinitrophenol",
    "cn_name": "2,4-二硝基酚;2,4-二硝基苯酚;",
    "alternate_name": "Phenol, 2,4-dinitro-;2,4-Dinitrophenol;Aldifen;α-Dinitrophenol;DNP;2,4-DNP;Fenoxyl Carbon N;Nitrophene;Nitrophen;Phenol, α-dinitro-;1-Hydroxy-2,4-dinitrobenzene;Dinitrophenol;Dinofan;NSC 1532;1,3-Dinitro-4-hydroxybenzene;2-Nitro-4-nitrophenol",
    "duplicated_cas_no": "",
    "SMILES": "N(=O)(=O)C1=CC(N(=O)=O)=CC=C1O",
    "meta_data": {
        "InChI": "InChI=1S/C6H4N2O5/c9-6-2-1-4(7(10)11)3-5(6)8(12)13/h1-3,9H",
        "InChIKey": null,
        "Canonical SMILES": "O=N(=O)C1=CC=C(O)C(=C1)N(=O)=O",
        "Molecular Formula": "C<sub>6</sub>H<sub>4</sub>N<sub>2</sub>O<sub>5</sub>",
        "Molecular Mass": "184.11",
        "Boiling Point": "158 °C",
        "Melting Point": "112-114 °C",
        "Density": "1.683 g/cm³ @ Temp: 24 °C"
    }
}