{
    "cas_no": "83-34-1",
    "key_name": "Skatole",
    "cn_name": "3-甲基吲哚;",
    "alternate_name": "1<em>H</em>-Indole, 3-methyl-;Indole, 3-methyl-;Indole, 3-methyl-(skatole);3-Methyl-1<em>H</em>-indole;3-Methylindole;Scatole;Skatol;Skatole;β-Methylindole;NSC 122024",
    "duplicated_cas_no": "",
    "SMILES": "CC=1C=2C(=CC=CC2)NC1",
    "meta_data": {
        "InChI": "InChI=1S/C9H9N/c1-7-6-10-9-5-3-2-4-8(7)9/h2-6,10H,1H3",
        "InChIKey": null,
        "Canonical SMILES": "C=1C=CC2=C(C1)NC=C2C",
        "Molecular Formula": "C<sub>9</sub>H<sub>9</sub>N",
        "Molecular Mass": "131.17",
        "Boiling Point": "265-266 °C @ Press: 755 Torr",
        "Melting Point": "95 °C"
    }
}