{
    "cas_no": "4645-32-3",
    "key_name": "Dimethyl vinylphosphonate",
    "cn_name": null,
    "alternate_name": "Phosphonic acid, <em>P</em>-ethenyl-, dimethyl ester;Phosphonic acid, vinyl-, dimethyl ester;Phosphonic acid, ethenyl-, dimethyl ester;Dimethyl vinylphosphonate;Vinylphosphonic acid dimethyl ester;Dimethyl ethenylphosphonate;Vinyl(dimethoxy)oxophosphine;Vinyl dimethylphosphonate;1-Dimethoxyphosphorylethene",
    "duplicated_cas_no": "",
    "SMILES": "P(C=C)(OC)(OC)=O",
    "meta_data": {
        "InChI": "InChI=1S/C4H9O3P/c1-4-8(5,6-2)7-3/h4H,1H2,2-3H3",
        "InChIKey": null,
        "Canonical SMILES": "O=P(OC)(OC)C=C",
        "Molecular Formula": "C<sub>4</sub>H<sub>9</sub>O<sub>3</sub>P",
        "Molecular Mass": "136.09",
        "Boiling Point": "82-84 °C @ Press: 3.5 Torr",
        "Density": "1.1696 g/cm³ @ Temp: 20 °C"
    }
}