{
    "cas_no": "31621-87-1",
    "key_name": "Polydioxanone",
    "cn_name": null,
    "alternate_name": "Poly[oxy(1-oxo-1,2-ethanediyl)oxy-1,2-ethanediyl];Poly(oxycarbonylmethyleneoxyethylene);Polydioxanone;Poly(1,4-dioxanone), SRU;Poly(<em>p</em>-dioxanone), SRU;Resomer X 210;1,4-Dioxan-2-one homopolymer, sru;<em>p</em>-Dioxanone homopolymer, sru;β-Hydroxyethoxyacetic acid homopolymer, SRU;PDS;Resomer X 206S;D 0-013",
    "duplicated_cas_no": "",
    "SMILES": "",
    "meta_data": {
        "InChI": "",
        "InChIKey": null,
        "Canonical SMILES": "",
        "Molecular Formula": "(C<sub>4</sub>H<sub>6</sub>O<sub>3</sub>)<sub>n</sub>",
        "Molecular Mass": "",
        "Melting Point": "107.3 °C"
    }
}