{
    "cas_no": "110-49-6",
    "key_name": "Ethylene glycol monomethyl ether acetate",
    "cn_name": "2-甲氧基乙酸乙酯;乙二醇甲醚乙酸酯;乙二醇独甲醚乙酸酯;乙酸乙二醇甲醚;乙酸甲基溶纤剂;",
    "alternate_name": "Ethanol, 2-methoxy-, 1-acetate;Ethanol, 2-methoxy-, acetate;Glycol monomethyl ether acetate;2-Methoxyethyl acetate;Methyl Cellosolve acetate;Methyl glycol acetate;β-Methoxyethyl acetate;Ethylene glycol methyl ether acetate;2-Methoxyethanol acetate;Ethylene glycol acetate monomethyl ether;Acetyl methyl cellosolve;Ethylene glycol monomethyl ether acetate;1-Acetoxy-2-methoxyethane;MC acetate",
    "duplicated_cas_no": "",
    "SMILES": "O(CCOC)C(C)=O",
    "meta_data": {
        "InChI": "InChI=1S/C5H10O3/c1-5(6)8-4-3-7-2/h3-4H2,1-2H3",
        "InChIKey": null,
        "Canonical SMILES": "O=C(OCCOC)C",
        "Molecular Formula": "C<sub>5</sub>H<sub>10</sub>O<sub>3</sub>",
        "Molecular Mass": "118.13",
        "Boiling Point": "145 °C",
        "Melting Point": "-65.1 °C",
        "Density": "1.0074 g/cm³ @ Temp: 19 °C"
    }
}