{
    "cas_no": "5406-86-0",
    "key_name": "4-(1,1-Dimethylethyl)benzeneethanol",
    "cn_name": "4-叔丁基苯乙醇;",
    "alternate_name": "Benzeneethanol, 4-(1,1-dimethylethyl)-;Phenethyl alcohol, <em>p</em>-<em>tert</em>-butyl-;4-(1,1-Dimethylethyl)benzeneethanol;<em>p</em>-<em>tert</em>-Butylphenethyl alcohol;2-(4-<em>tert</em>-Butylphenyl)ethanol;NSC 5319;4-<em>tert</em>-Butylphenethanol;2-(4-<em>tert</em>-Butylphenyl)ethan-1-ol",
    "duplicated_cas_no": "",
    "SMILES": "C(C)(C)(C)C1=CC=C(CCO)C=C1",
    "meta_data": {
        "InChI": "InChI=1S/C12H18O/c1-12(2,3)11-6-4-10(5-7-11)8-9-13/h4-7,13H,8-9H2,1-3H3",
        "InChIKey": null,
        "Canonical SMILES": "OCCC1=CC=C(C=C1)C(C)(C)C",
        "Molecular Formula": "C<sub>12</sub>H<sub>18</sub>O",
        "Molecular Mass": "178.27",
        "Boiling Point": "150-160 °C @ Press: 15 Torr"
    }
}