{
    "cas_no": "618-41-7",
    "key_name": "Benzenesulfinic acid",
    "cn_name": "苯亚磺酸;",
    "alternate_name": "Benzenesulfinic acid;Phenylsulfinic acid;Benzenesulphinic acid;Benzenesulphenic acid;NSC 227915",
    "duplicated_cas_no": "99717-61-0;109954-35-0;112639-33-5;113659-80-6;3671-06-5;59800-87-2;61668-20-0;68716-71-2;146826-06-4;171898-88-7;1081754-88-2",
    "SMILES": "S(=O)(O)C1=CC=CC=C1",
    "meta_data": {
        "InChI": "InChI=1S/C6H6O2S/c7-9(8)6-4-2-1-3-5-6/h1-5H,(H,7,8)",
        "InChIKey": null,
        "Canonical SMILES": "O=S(O)C=1C=CC=CC1",
        "Molecular Formula": "C<sub>6</sub>H<sub>6</sub>O<sub>2</sub>S",
        "Molecular Mass": "142.18",
        "Melting Point": "84 °C"
    }
}