{
    "cas_no": "516-92-7",
    "key_name": "Epicoprostanol",
    "cn_name": null,
    "alternate_name": "Cholestan-3-ol, (3α,5β)-;5β-Cholestan-3α-ol;(3α,5β)-Cholestan-3-ol;<em>epi</em>-Coprostanol;<em>epi</em>-Coprosterol;Epicoprostanol;Epicoprosterol;α-Coprostanol;Epikoprosterin;NSC 18182;5β-Epicholestanol",
    "duplicated_cas_no": "",
    "SMILES": "C[C@@]12[C@]([C@]3([C@@]([C@]4(C)[C@](CC3)(C[C@H](O)CC4)[H])(CC1)[H])[H])(CC[C@@]2([C@@H](CCCC(C)C)C)[H])[H]",
    "meta_data": {
        "InChI": "InChI=1S/C27H48O/c1-18(2)7-6-8-19(3)23-11-12-24-22-10-9-20-17-21(28)13-15-26(20,4)25(22)14-16-27(23,24)5/h18-25,28H,6-17H2,1-5H3/t19-,20-,21-,22+,23-,24+,25+,26+,27-/m1/s1",
        "InChIKey": null,
        "Canonical SMILES": "OC1CCC2(C)C(CCC3C4CCC(C(C)CCCC(C)C)C4(C)CCC32)C1",
        "Molecular Formula": "C<sub>27</sub>H<sub>48</sub>O",
        "Molecular Mass": "388.67",
        "Melting Point": "110.5-111.5 °C"
    }
}