{
    "cas_no": "22921-68-2",
    "key_name": "2-Bromo-5-methoxybenzoic acid",
    "cn_name": "2-溴-5-甲氧基苯甲酸;",
    "alternate_name": "Benzoic acid, 2-bromo-5-methoxy-;<em>m</em>-Anisic acid, 6-bromo-;2-Bromo-5-methoxybenzoic acid;5-Methoxy-2-bromobenzoic acid;2-Bromo-5-(methyloxy)benzoic acid",
    "duplicated_cas_no": "",
    "SMILES": "C(O)(=O)C1=CC(OC)=CC=C1Br",
    "meta_data": {
        "InChI": "InChI=1S/C8H7BrO3/c1-12-5-2-3-7(9)6(4-5)8(10)11/h2-4H,1H3,(H,10,11)",
        "InChIKey": null,
        "Canonical SMILES": "O=C(O)C1=CC(OC)=CC=C1Br",
        "Molecular Formula": "C<sub>8</sub>H<sub>7</sub>BrO<sub>3</sub>",
        "Molecular Mass": "231.04",
        "Melting Point": "161-162 °C"
    }
}