{
    "cas_no": "578-67-6",
    "key_name": "5-Hydroxyquinoline",
    "cn_name": "5-羟基喹啉;",
    "alternate_name": "5-Quinolinol;5-Hydroxyquinoline;NSC 405729",
    "duplicated_cas_no": "",
    "SMILES": "OC=1C2=C(C=CC1)N=CC=C2",
    "meta_data": {
        "InChI": "InChI=1S/C9H7NO/c11-9-5-1-4-8-7(9)3-2-6-10-8/h1-6,11H",
        "InChIKey": null,
        "Canonical SMILES": "OC1=CC=CC2=NC=CC=C12",
        "Molecular Formula": "C<sub>9</sub>H<sub>7</sub>NO",
        "Molecular Mass": "145.16",
        "Melting Point": "226 °C (decomp)"
    }
}