{
    "cas_no": "38028-67-0",
    "key_name": "2-Ethoxypyrazine",
    "cn_name": "2-乙氧基吡嗪;",
    "alternate_name": "Pyrazine, 2-ethoxy-;Pyrazine, ethoxy-;2-Ethoxypyrazine;Ethoxypyrazine",
    "duplicated_cas_no": "",
    "SMILES": "O(CC)C=1C=NC=CN1",
    "meta_data": {
        "InChI": "InChI=1S/C6H8N2O/c1-2-9-6-5-7-3-4-8-6/h3-5H,2H2,1H3",
        "InChIKey": null,
        "Canonical SMILES": "N=1C=CN=C(OCC)C1",
        "Molecular Formula": "C<sub>6</sub>H<sub>8</sub>N<sub>2</sub>O",
        "Molecular Mass": "124.14",
        "Boiling Point": "72-73 °C @ Press: 30 Torr"
    }
}