{
    "cas_no": "926-82-9",
    "key_name": "3,5-Dimethylheptane",
    "cn_name": "3,5-二甲基庚烷;3，5-二甲基庚烷;",
    "alternate_name": "Heptane, 3,5-dimethyl-;3,5-Dimethylheptane",
    "duplicated_cas_no": "",
    "SMILES": "C(C(CC)C)C(CC)C",
    "meta_data": {
        "InChI": "InChI=1S/C9H20/c1-5-8(3)7-9(4)6-2/h8-9H,5-7H2,1-4H3",
        "InChIKey": null,
        "Canonical SMILES": "CCC(C)CC(C)CC",
        "Molecular Formula": "C<sub>9</sub>H<sub>20</sub>",
        "Molecular Mass": "128.26",
        "Boiling Point": "136 °C",
        "Density": "0.7199 g/cm³ @ Temp: 420 °C"
    }
}