{
    "cas_no": "36961-64-5",
    "key_name": "2-(2-Chloroethoxy)acetamide",
    "cn_name": "2-(2-氯乙氧基)乙酰胺;",
    "alternate_name": "Acetamide, 2-(2-chloroethoxy)-;2-(2-Chloroethoxy)acetamide;(2-Chloroethoxy)acetamide",
    "duplicated_cas_no": "",
    "SMILES": "C(OCCCl)C(N)=O",
    "meta_data": {
        "InChI": "InChI=1S/C4H8ClNO2/c5-1-2-8-3-4(6)7/h1-3H2,(H2,6,7)",
        "InChIKey": null,
        "Canonical SMILES": "O=C(N)COCCCl",
        "Molecular Formula": "C<sub>4</sub>H<sub>8</sub>ClNO<sub>2</sub>",
        "Molecular Mass": "137.56",
        "Melting Point": "72-75 °C"
    }
}