{
    "cas_no": "1519-45-5",
    "key_name": "Phosphonium, 1,1′-(1,2-ethanediyl)bis[1,1,1-triphenyl-, bromide (1:2)",
    "cn_name": "亚乙基二(溴化三苯基膦);亚乙基二(溴化三苯基膦);亚乙基二( 溴化三苯基膦), 98+%;",
    "alternate_name": "Phosphonium, 1,1′-(1,2-ethanediyl)bis[1,1,1-triphenyl-, bromide (1:2);Phosphonium, ethylenebis[triphenyl-, dibromide;Phosphonium, 1,2-ethanediylbis[triphenyl-, dibromide;Ethylenebis[triphenylphosphonium bromide];Dimethylenebistriphenylphosphonium bromide;1,2-Ethanediylbis(triphenylphosphonium) dibromide;NSC 64111",
    "duplicated_cas_no": "344415-50-5",
    "SMILES": "[P+](CC[P+](C1=CC=CC=C1)(C2=CC=CC=C2)C3=CC=CC=C3)(C4=CC=CC=C4)(C5=CC=CC=C5)C6=CC=CC=C6.[Br-]",
    "meta_data": {
        "InChI": "InChI=1S/C38H34P2.2BrH/c1-7-19-33(20-8-1)39(34-21-9-2-10-22-34,35-23-11-3-12-24-35)31-32-40(36-25-13-4-14-26-36,37-27-15-5-16-28-37)38-29-17-6-18-30-38;;/h1-30H,31-32H2;2*1H/q+2;;/p-2",
        "InChIKey": null,
        "Canonical SMILES": "[Br-].C=1C=CC(=CC1)[P+](C=2C=CC=CC2)(C=3C=CC=CC3)CC[P+](C=4C=CC=CC4)(C=5C=CC=CC5)C=6C=CC=CC6",
        "Molecular Formula": "C<sub>38</sub>H<sub>34</sub>P<sub>2</sub>.2Br",
        "Molecular Mass": "",
        "Melting Point": "308-315 °C"
    }
}