{
    "cas_no": "583-75-5",
    "key_name": "4-Bromo-2-methylaniline",
    "cn_name": "4-溴-2-甲基苯胺;2-甲基-4-溴苯胺;",
    "alternate_name": "Benzenamine, 4-bromo-2-methyl-;<em>o</em>-Toluidine, 4-bromo-;4-Bromo-2-methylbenzenamine;2-Amino-5-bromotoluene;4-Bromo-2-methylaniline;2-Methyl-4-bromoaniline;4-Bromo-<em>o</em>-toluidine;NSC 7093;4-Bromo-2-methylphenylamine",
    "duplicated_cas_no": "",
    "SMILES": "CC1=C(N)C=CC(Br)=C1",
    "meta_data": {
        "InChI": "InChI=1S/C7H8BrN/c1-5-4-6(8)2-3-7(5)9/h2-4H,9H2,1H3",
        "InChIKey": null,
        "Canonical SMILES": "BrC1=CC=C(N)C(=C1)C",
        "Molecular Formula": "C<sub>7</sub>H<sub>8</sub>BrN",
        "Molecular Mass": "186.05",
        "Boiling Point": "240 °C",
        "Melting Point": "59.5 °C"
    }
}