{
    "cas_no": "111-76-2",
    "key_name": "2-Butoxyethanol",
    "cn_name": "乙二醇单丁醚;2-丁氧基乙醇;丁基溶纤剂;",
    "alternate_name": "Ethanol, 2-butoxy-;2-Butoxyethanol;2-Butoxy-1-ethanol;Butyl Cellosolve;<em>O</em>-Butyl ethylene glycol;Butyl glycol;Dowanol EB;Ethylene glycol monobutyl ether;Gafcol EB;Glycol butyl ether;Glycol monobutyl ether;Monobutyl glycol ether;3-Oxa-1-heptanol;Poly-Solv EB;Butyl Oxitol;Ethylene glycol butyl ether;Ethylene glycol <em>n</em>-butyl ether;β-Butoxyethanol;Butyl Cellu-Sol;Ethylene glycol mono-<em>n</em>-butyl ether;Chimec NR;Ektasolve EB;Butyl monoether glycol;Minex BDH;<em>n</em>-Butyl cellosolve;C<sub>4</sub>E<sub>1</sub>;2-<em>n</em>-Butoxyethanol;EGBE;Glycol EB;Butyl Glysolv;Buchiseru;NSC 60759;Eastman EB;Bikanol B 1;K Foam Lo;DB solvent;Butyl icinol;Mearcell 3532;SG;Simple Green;Dabco PM 300;BCS;Monoethyleneglycol butyl ether;R 1171;A 13919",
    "duplicated_cas_no": "161279-90-9;107461-82-5",
    "SMILES": "C(OCCO)CCC",
    "meta_data": {
        "InChI": "InChI=1S/C6H14O2/c1-2-3-5-8-6-4-7/h7H,2-6H2,1H3",
        "InChIKey": null,
        "Canonical SMILES": "OCCOCCCC",
        "Molecular Formula": "C<sub>6</sub>H<sub>14</sub>O<sub>2</sub>",
        "Molecular Mass": "118.17",
        "Boiling Point": "168.4 °C",
        "Melting Point": "-74.8 °C",
        "Density": "0.9012 g/cm³ @ Temp: 20 °C"
    }
}