{
    "cas_no": "1943-82-4",
    "key_name": "Phenethyl isocyanate",
    "cn_name": "2-苯乙基异氰酸酯;",
    "alternate_name": "Benzene, (2-isocyanatoethyl)-;Isocyanic acid, phenethyl ester;Phenethyl alcohol, isocyanate;(2-Isocyanatoethyl)benzene;Phenethyl isocyanate;2-Phenylethyl isocyanate;β-Phenylethyl isocyanate",
    "duplicated_cas_no": "1025436-20-7",
    "SMILES": "C(CN=C=O)C1=CC=CC=C1",
    "meta_data": {
        "InChI": "InChI=1S/C9H9NO/c11-8-10-7-6-9-4-2-1-3-5-9/h1-5H,6-7H2",
        "InChIKey": null,
        "Canonical SMILES": "O=C=NCCC=1C=CC=CC1",
        "Molecular Formula": "C<sub>9</sub>H<sub>9</sub>NO",
        "Molecular Mass": "147.17",
        "Boiling Point": "109-111 °C @ Press: 13 Torr",
        "Density": "1.0618 g/cm³ @ Temp: 20 °C"
    }
}