{
    "cas_no": "9004-99-3",
    "key_name": "Polyethylene glycol monostearate",
    "cn_name": null,
    "alternate_name": "Poly(oxy-1,2-ethanediyl), α-(1-oxooctadecyl)-ω-hydroxy-;Glycols, polyethylene, monostearate;Stearic acid, monoester with polyethylene glycol;Nonex 28;Nonex 29;PEG 42;Myrj 45;Myrj 49;Myrj 51;Myrj 52;Myrj 53;Nonex 53;Nonex 54;Nonex 63;X 489R;S 541;S 1012;S 1054;S 1116;Atlox 5000;Cerasynt M;Cerasynt MN;Cithrol PS;Clearate G;Crill 20;Emcol H 35A;Empilan CP 100;Empilan CQ 100;Kessco X 211;Lactine;Lipal 15S;Macrogol stearate 400;PEG 600 monostearate;PEG 1000 monostearate;Perphinol 45/100;Polyethylene glycol 200 monostearate;Polyethylene glycol 4000 monostearate;Polyethylene glycol 300 monostearate;Polyethylene glycol monostearate;Polyethylene glycol 400 monostearate;Polyethylene glycol 400 stearate;Polyethylene glycol 1540 stearate;Polyethylene glycol 3000 monostearate;Polystate;Prodhybase P;Prodhybase 4000;Soromin SG;Stabilisant Delta 118;Ethofat 60/25;Polystate B;Poly(oxyethylene) stearate;Polyethylene glycol stearate;Myrj 52S;Stearox 6;Myrj;Myrj 59;Nikkol MYS 45;PEG stearate;Stearic acid-ethylene oxide adduct;Ethofat 60/20;Ethofat 60/15;Polyethylene oxide monostearate;S 1004;S 1016;S 1042;Carbowax 1000 monostearate;Carbowax 1500 monostearate;Poly(ethyleneoxy)monostearate;Poly(oxyethylene) monostearate;Nonion S 15;Polyethylene glycol 40 monostearate;LX 3;Poly(oxyethylene) stearic acid ester;PEG 600MS;PEG 100MS;PEG 1000MS;Cithrol 10MS;Nissan Nonion S 15;Emery 15393;Nikkol MYS 40;Nikkol MYS 4;Nonex 36;Stearox 920;Nissan Nonion S 2;Ionet MS 1000;Lamacit CA;Nonion S 2;Nikkol MYS 25;Emanon 3115;PEG 40 Stearate;Pegosperse S 9;PEG 8 Stearate;PEG 150 Stearate;Cerasynt 660;Polyethylene glycol 100 monostearate;Emerest 2640;Polyoxyl 40 Stearate;Lipal 400S;Carbowax 4000 monostearate;40S;60S;Akyporox S 100;MYS 40;Emanon 3113;Trydet SA 40;Arosurf 1855E40;MYS 45;Nikkol MYS;Nissan Nonion S 4;Emanon 3199;Slovasol MKS 16;Cithrol 4MS;Simulsol M 59;Simulsol M 52;Simulsol M 49;Simulsol M 45;Simulsol M 51;Simulsol M 53;Simulsol M;Teric SF 15;Nikkol MYS 10;Teric SF;Ropol 24;Rokacet S 10;Crill 22;Crill 23;Crill 21;Polyoxyl 8 stearate;Varonic 1000MS;Polynon S 44;Varonic 1800MS;Cremofor 410R;Nikkol MYS 55;Nonion S 4;Verox S 12;Verox S 16;Verox S 18;G 2159;Tegester PEG;Emalex 804;Lipal 400MS;Polynon S 66;Eumulgin ST 8;Nissan Nonion S 15.4;Nonion s 15.4;Emanon 3119;Nissan Nonion S 40;Nissan Nonion S 10;Rokacet S 17;Monestriol 104;Monestriol 102;Nissan Nonion S 30;MYS 4;Alkasurf S 65-8;Polyethoxy-50-stearate;Polyethoxylated monostearate;Cremophor 410R;Ionet MS 400;Crodet S 24;Crodet S;Nonion S 6;Nissan Nonion S 6;Pegosperse 100S;Pegosperse 50MS;Lipopeg 100S;Lipopeg 39S;Lipopeg 4S;MYS 2;MYS 10;Cremophor S 9;Mapeg S 40K;Chemax E 400MS;Hodag 150S;Polyethylene glycol monostearic acid ester;Nonio-light S 100;Nikkol MYS 2;PEG-40M;Nikkol MYS 1EX;SG 6 (surfactant);SG 6;Capcure 65;Stearic acid-ethylene oxide condensate;Octadecanoic acid-oxirane copolymer;Oxirane-octadecanoic acid copolymer;Oxirane-stearic acid copolymer;Mapeg 600MS;Pegosperse 400MS;Witconol 2711;Crodet S 100;Unipeg 200MS;Ethoxylated stearic acid;SDH 4E;Emerest 2662;40S (polyether);60S (polyether);Mapeg 400MS;Ionet MS 600;Pegnol 14S;Chemax E 1750MS;Emanon 3170;Rokacet S 2;Rokacet S 8;Rokacet S 24;Serdox NSG 600;Serdox NSG 200;Serdox NSG 400;YMS 2;Emerest 2715;Macrogol stearate;Emalex 6300M-ST;Nonion S 40;Nonion S 10;Leveler 528;Myrj 52P;Myrj 49P;Marlosol 1820;Cerasynt 840;Kessco PEG 6000MS;Myrj 59FL;S 40;Lanoxide 52;Lanoxide 59;MYS 25;Kessco PEG 1540MS;E 430;Myrj 53P;Emalex 830;Nikkol MYS 40V;Myrj 59P;Nikkol MYS 45MV;Nikkol MYS 10V;Pegosperse 600MS;Blaunon S 1000A;Emalex 810;Polyoxyl stearate;Blaunon S 300A;Hydrine;Nikkol MYS 25V;Estol 3723;Tego Acid S 100P;Simulsol 59;Emalex 400B;Atlas G 2147;Atlas G 2154;Atlas G 2159;Emulgen 3199;Pionin D 2405A;Crodet S 40LD;Nikkol MYS 40MV;Nikkol MYS 55V;Emalex 840;Emalex 820;Emanon 3199V;Koremul SA 9;MYS 40MV;Crodet S 40;Myrj S 40;Myrj S 50;Myrj S 100;Myrj S 20;Myrj 56;Emanon 3199B;Myrj S 8SO;Standapol 2662;PEG monostearate;Myrj 30;Myrj 35;Pegosperse 1500MS;Emalex 805;G 2151;Nikkol MYS 45V;Myrj 40;SA 9;Emanon 3119V;PEG 75 stearate;PEG 400 monoester with stearic acid;Lasemul 4000;S 20;MYS 25V;SG 50 (polyoxyalkylene);Hallstar 4400;EE 400;MYRJ-S 40FL-TH;MYS 10V;Emalex 8100;Nikkol MYS 2V;Nikkol MYS 55MV;Ritox 52;BS 1000G;Sympatens BS 1000G;Cithrol 6MS;Emanon 3199VB;MYS 4V;SG 30;SG 15;SG 25;Myrj S 8;E 1750MS/FLK;SG 12;SG 40;SG 100;Jeemate 1000DPS;Nikkol MYS 55MY;Myrij S 8;TH 2 (polyoxyalkylene);TH 2;PEG-100 stearate;PEG-15 stearate",
    "duplicated_cas_no": "8035-96-9;8050-55-3;9009-90-9;11107-94-1;11108-48-8;35885-17-7;39404-30-3;42610-76-4;52504-21-9;52504-22-0;52504-23-1;53228-13-0;53335-42-5;55247-85-3;58375-39-6;63654-37-5;72993-78-3;74870-86-3;86473-52-1;121340-91-8;123543-87-3;939018-14-1;1436689-96-1;1887122-60-2;1887123-58-1;2143941-58-4",
    "SMILES": "",
    "meta_data": {
        "InChI": "",
        "InChIKey": null,
        "Canonical SMILES": "",
        "Molecular Formula": "(C<sub>2</sub>H<sub>4</sub>O)<sub>n</sub>C<sub>18</sub>H<sub>36</sub>O<sub>2</sub>",
        "Molecular Mass": "",
        "Melting Point": "41 °C"
    }
}