{
    "cas_no": "5098-11-3",
    "key_name": "4-Amino-5-cyanoimidazole",
    "cn_name": "5-氨基-1H-咪唑-4-甲腈;",
    "alternate_name": "1<em>H</em>-Imidazole-4-carbonitrile, 5-amino-;Imidazole-4-carbonitrile, 5-amino-;Imidazole-4(<em>or</em> 5)-carbonitrile, 5(<em>or</em> 4)-amino-;5-Amino-1<em>H</em>-imidazole-4-carbonitrile;4-Aminoimidazole-5-carbonitrile;4-Amino-1<em>H</em>-imidazole-5-carbonitrile;4-Amino-5-cyanoimidazole;5-Amino-4-cyanoimidazole;5-Cyano-4-aminoimidazole;5-Amino-4-imidazolecarbonitrile;NSC 139091",
    "duplicated_cas_no": "",
    "SMILES": "C(#N)C1=C(N)N=CN1",
    "meta_data": {
        "InChI": "InChI=1S/C4H4N4/c5-1-3-4(6)8-2-7-3/h2H,6H2,(H,7,8)",
        "InChIKey": null,
        "Canonical SMILES": "N#CC=1NC=NC1N",
        "Molecular Formula": "C<sub>4</sub>H<sub>4</sub>N<sub>4</sub>",
        "Molecular Mass": "108.10",
        "Melting Point": "128-129 °C (decomp)"
    }
}