{
    "cas_no": "617-73-2",
    "key_name": "2-Hydroxyoctanoic acid",
    "cn_name": "2-羟基辛酸;",
    "alternate_name": "Octanoic acid, 2-hydroxy-;2-Hydroxyoctanoic acid;α-Hydroxycaprylic acid;α-Hydroxyoctanoic acid;2-Hydroxycaprylic acid;α-Hydroxy-<em>n</em>-caprylic acid;(±)-α-Hydroxycaprylic acid;<span class=\"text-smallcaps\">DL</span>-2-Hydroxycaprylic acid;(±)-2-Hydroxyoctanoic acid;<span class=\"text-smallcaps\">DL</span>-2-Hydroxyoctanoic acid;NSC 189703",
    "duplicated_cas_no": "6482-96-8",
    "SMILES": "C(CCCCCC)(C(O)=O)O",
    "meta_data": {
        "InChI": "InChI=1S/C8H16O3/c1-2-3-4-5-6-7(9)8(10)11/h7,9H,2-6H2,1H3,(H,10,11)",
        "InChIKey": null,
        "Canonical SMILES": "O=C(O)C(O)CCCCCC",
        "Molecular Formula": "C<sub>8</sub>H<sub>16</sub>O<sub>3</sub>",
        "Molecular Mass": "160.21",
        "Melting Point": "70 °C"
    }
}