{
    "cas_no": "104226-21-3",
    "key_name": "2,2′-[[4-[2-(4-Aminophenyl)diazenyl]-3-methylphenyl]imino]bis[ethanol]",
    "cn_name": "HC 黄 7; 2-[[4-(4-氨基苯基)偶氮-3-甲基苯基]-(2-羟乙基)氨基]乙醇;",
    "alternate_name": "Ethanol, 2,2′-[[4-[2-(4-aminophenyl)diazenyl]-3-methylphenyl]imino]bis-;Ethanol, 2,2′-[[4-[(4-aminophenyl)azo]-3-methylphenyl]imino]bis-;2,2′-[[4-[2-(4-Aminophenyl)diazenyl]-3-methylphenyl]imino]bis[ethanol];3-Methyl-4-(4′-anililnoazo)-<em>N</em>,<em>N</em>-bis(2-hydroxyethyl)aniline;HC Yellow No. 7;HC Yellow 7;HC Yellow 77",
    "duplicated_cas_no": "",
    "SMILES": "N(CCO)(CCO)C1=CC(C)=C(N=NC2=CC=C(N)C=C2)C=C1",
    "meta_data": {
        "InChI": "InChI=1S/C17H22N4O2/c1-13-12-16(21(8-10-22)9-11-23)6-7-17(13)20-19-15-4-2-14(18)3-5-15/h2-7,12,22-23H,8-11,18H2,1H3",
        "InChIKey": null,
        "Canonical SMILES": "OCCN(C1=CC=C(N=NC2=CC=C(N)C=C2)C(=C1)C)CCO",
        "Molecular Formula": "C<sub>17</sub>H<sub>22</sub>N<sub>4</sub>O<sub>2</sub>",
        "Molecular Mass": "314.38",
        "Melting Point": "149 °C"
    }
}