{
    "cas_no": "1746-01-6",
    "key_name": "2,3,7,8-Tetrachlorodibenzo-p-dioxin",
    "cn_name": "二恶项;2,3,7,8-四氯二苯并对二恶英;",
    "alternate_name": "Dibenzo[<em>b</em>,<em>e</em>][1,4]dioxin, 2,3,7,8-tetrachloro-;Dibenzo-<em>p</em>-dioxin, 2,3,7,8-tetrachloro-;2,3,7,8-Tetrachlorodibenzo[<em>b</em>,<em>e</em>][1,4]dioxin;2,3,7,8-Tetrachlorodibenzo-<em>p</em>-dioxin;TCDBD;2,3,7,8-Tetrachloro-<em>p</em>-dioxin;2,3,7,8-Tetrachlorodibenzo-1,4-dioxin;Dioxin (herbicide contaminant);2,3,7,8-Tetrachlorodibenzodioxin;TCDD;Dioxin;2,3,7,8-TCDD;D 48;Tetrachlorodibenzodioxin;Tetrachlorodibenzo-<em>p</em>-dioxin;PCDD 48;2378TCDD;2,3,7,8-Tetrachlorodibenzo-p-dioxin",
    "duplicated_cas_no": "56795-67-6",
    "SMILES": "ClC=1C=C2C(OC=3C(O2)=CC(Cl)=C(Cl)C3)=CC1Cl",
    "meta_data": {
        "InChI": "InChI=1S/C12H4Cl4O2/c13-5-1-9-10(2-6(5)14)18-12-4-8(16)7(15)3-11(12)17-9/h1-4H",
        "InChIKey": null,
        "Canonical SMILES": "ClC=1C=C2OC3=CC(Cl)=C(Cl)C=C3OC2=CC1Cl",
        "Molecular Formula": "C<sub>12</sub>H<sub>4</sub>Cl<sub>4</sub>O<sub>2</sub>",
        "Molecular Mass": "321.97",
        "Melting Point": "305-306 °C",
        "Density": "1.8 g/cm³"
    }
}