{
    "cas_no": "269410-24-4",
    "key_name": "5-(4,4,5,5-Tetramethyl-1,3,2-dioxaborolan-2-yl)-1<em>H</em>-indole",
    "cn_name": "5-吲哚硼酸频哪醇酯;",
    "alternate_name": "1<em>H</em>-Indole, 5-(4,4,5,5-tetramethyl-1,3,2-dioxaborolan-2-yl)-;5-(4,4,5,5-Tetramethyl-1,3,2-dioxaborolan-2-yl)-1<em>H</em>-indole;5-(4,4,5,5-Tetramethyl-1,3,2-dioxaborolan-2-yl)indole;2-(1<em>H</em>-Indol-5-yl)-4,4,5,5-tetramethyl-1,3,2-dioxaborolane;5-Indolylboronic acid pinacol ester;Indole-5-boronic acid pinacol ester",
    "duplicated_cas_no": "",
    "SMILES": "CC1(C)OB(OC1(C)C)C=2C=C3C(=CC2)NC=C3",
    "meta_data": {
        "InChI": "InChI=1S/C14H18BNO2/c1-13(2)14(3,4)18-15(17-13)11-5-6-12-10(9-11)7-8-16-12/h5-9,16H,1-4H3",
        "InChIKey": null,
        "Canonical SMILES": "O1B(OC(C)(C)C1(C)C)C=2C=CC=3NC=CC3C2",
        "Molecular Formula": "C<sub>14</sub>H<sub>18</sub>BNO<sub>2</sub>",
        "Molecular Mass": "243.11",
        "Melting Point": "91-92 °C"
    }
}