{
    "cas_no": "56961-30-9",
    "key_name": "2-Chloro-5-hydroxybenzoic acid",
    "cn_name": "2-氯-5-羟基苯甲酸;",
    "alternate_name": "Benzoic acid, 2-chloro-5-hydroxy-;2-Chloro-5-hydroxybenzoic acid;4-Chloro-3-carboxyphenol;2-Chloro-5-hydroxybenzenecarboxylic acid",
    "duplicated_cas_no": "",
    "SMILES": "C(O)(=O)C1=C(Cl)C=CC(O)=C1",
    "meta_data": {
        "InChI": "InChI=1S/C7H5ClO3/c8-6-2-1-4(9)3-5(6)7(10)11/h1-3,9H,(H,10,11)",
        "InChIKey": null,
        "Canonical SMILES": "O=C(O)C1=CC(O)=CC=C1Cl",
        "Molecular Formula": "C<sub>7</sub>H<sub>5</sub>ClO<sub>3</sub>",
        "Molecular Mass": "172.57",
        "Melting Point": "168-170 °C"
    }
}