{
    "cas_no": "2550-75-6",
    "key_name": "Chlorbicyclen",
    "cn_name": null,
    "alternate_name": "Bicyclo[2.2.1]hept-2-ene, 1,2,3,4,7,7-hexachloro-5,6-bis(chloromethyl)-;2-Norbornene, 1,2,3,4,7,7-hexachloro-5,6-bis(chloromethyl)-;1,2,3,4,7,7-Hexachloro-5,6-bis(chloromethyl)bicyclo[2.2.1]hept-2-ene;Alodan;Chlorbicyclen;Cyclodan;1,2,3,4,7,7-Hexachloro-5,6-di(chloromethyl)[2.2.1]bicyclohept-2-ene;AC 12402;Hercules 12402;1,2,3,4,7,7-Hexachloro-5,6-bis(chloromethyl)-2-norbornene;Hercules 426;Alodan (pesticide);NSC 41891",
    "duplicated_cas_no": "",
    "SMILES": "ClC12C(Cl)(Cl)C(Cl)(C(CCl)C1CCl)C(Cl)=C2Cl",
    "meta_data": {
        "InChI": "InChI=1S/C9H6Cl8/c10-1-3-4(2-11)8(15)6(13)5(12)7(3,14)9(8,16)17/h3-4H,1-2H2",
        "InChIKey": null,
        "Canonical SMILES": "ClC1=C(Cl)C2(Cl)C(CCl)C(CCl)C1(Cl)C2(Cl)Cl",
        "Molecular Formula": "C<sub>9</sub>H<sub>6</sub>Cl<sub>8</sub>",
        "Molecular Mass": "397.77",
        "Boiling Point": "174 °C",
        "Melting Point": "105 °C"
    }
}