{
    "cas_no": "63585-09-1",
    "key_name": "Foscarnet sodium",
    "cn_name": "膦甲酸钠;",
    "alternate_name": "Phosphinecarboxylic acid, 1,1-dihydroxy-, 1-oxide, sodium salt (1:3);Phosphinecarboxylic acid, dihydroxy-, oxide, trisodium salt;Trisodium phosphonoformate;A 29622;Phosphonoformic acid trisodium salt;Foscarnet sodium;PFA;Triapten;EHB 776;Foscavir;Gefin;Trisodium phosphonatoformate",
    "duplicated_cas_no": "884236-24-2",
    "SMILES": "P(C(O)=O)(=O)(O)O.[Na]",
    "meta_data": {
        "InChI": "InChI=1S/CH3O5P.3Na/c2-1(3)7(4,5)6;;;/h(H,2,3)(H2,4,5,6);;;",
        "InChIKey": null,
        "Canonical SMILES": "[Na].O=C(O)P(=O)(O)O",
        "Molecular Formula": "CH<sub>3</sub>O<sub>5</sub>P.3Na",
        "Molecular Mass": "",
        "Melting Point": "&gt;250 °C"
    }
}