{
    "cas_no": "601-99-0",
    "key_name": "2-Hydroxy-6-nitrobenzoic acid",
    "cn_name": null,
    "alternate_name": "Benzoic acid, 2-hydroxy-6-nitro-;Salicylic acid, 6-nitro-;2-Hydroxy-6-nitrobenzoic acid;6-Nitrosalicylic acid",
    "duplicated_cas_no": "",
    "SMILES": "C(O)(=O)C1=C(N(=O)=O)C=CC=C1O",
    "meta_data": {
        "InChI": "InChI=1S/C7H5NO5/c9-5-3-1-2-4(8(12)13)6(5)7(10)11/h1-3,9H,(H,10,11)",
        "InChIKey": null,
        "Canonical SMILES": "O=C(O)C=1C(O)=CC=CC1N(=O)=O",
        "Molecular Formula": "C<sub>7</sub>H<sub>5</sub>NO<sub>5</sub>",
        "Molecular Mass": "183.12",
        "Melting Point": "145 °C"
    }
}