{
    "cas_no": "613-70-7",
    "key_name": "Phenol, 2-methoxy-, 1-acetate",
    "cn_name": "邻甲氧基苯乙酸酯;2-甲氧基乙酸苯酯;",
    "alternate_name": "Phenol, 2-methoxy-, 1-acetate;Phenol, <em>o</em>-methoxy-, acetate;Guaiacol acetate;Phenol, 2-methoxy-, acetate;Guaiacyl acetate;1-Acetoxy-2-methoxybenzene;<em>o</em>-Methoxyphenyl acetate;<em>o</em>-Acetoxyanisole;Eucol;2-Methoxyphenyl acetate;<em>o</em>-Anisyl acetate;<em>O</em>-Acetyl-2-methoxyphenol;2-Acetoxyanisole;<em>O</em>-Acetylguaiacol;NSC 3831",
    "duplicated_cas_no": "",
    "SMILES": "O(C(C)=O)C1=C(OC)C=CC=C1",
    "meta_data": {
        "InChI": "InChI=1S/C9H10O3/c1-7(10)12-9-6-4-3-5-8(9)11-2/h3-6H,1-2H3",
        "InChIKey": null,
        "Canonical SMILES": "O=C(OC=1C=CC=CC1OC)C",
        "Molecular Formula": "C<sub>9</sub>H<sub>10</sub>O<sub>3</sub>",
        "Molecular Mass": "166.17",
        "Boiling Point": "175 °C @ Press: 120 Torr",
        "Melting Point": "31.5 °C",
        "Density": "1.138 g/cm³"
    }
}