{
    "cas_no": "55488-51-2",
    "key_name": "Carbonochloridic acid, decyl ester",
    "cn_name": "癸氯;",
    "alternate_name": "Carbonochloridic acid, decyl ester;Formic acid, chloro-, decyl ester;<em>n</em>-Decyl chloroformate;Decyl chloroformate;Decyloxycarbonyl chloride;Decyl carbonochloridate",
    "duplicated_cas_no": "",
    "SMILES": "C(CCCCCCCC)COC(Cl)=O",
    "meta_data": {
        "InChI": "InChI=1S/C11H21ClO2/c1-2-3-4-5-6-7-8-9-10-14-11(12)13/h2-10H2,1H3",
        "InChIKey": null,
        "Canonical SMILES": "O=C(Cl)OCCCCCCCCCC",
        "Molecular Formula": "C<sub>11</sub>H<sub>21</sub>ClO<sub>2</sub>",
        "Molecular Mass": "220.74",
        "Boiling Point": "220 °C"
    }
}