{
    "cas_no": "18649-93-9",
    "key_name": "Alisol B",
    "cn_name": "泽泻醇B;",
    "alternate_name": "Dammar-13(17)-en-3-one, 24,25-epoxy-11,23-dihydroxy-, (8α,9β,11β,14β,23<em>S</em>,24<em>R</em>)-;8α,9β,14β-Dammar-13(17)-en-3-one, 24,25-epoxy-11β,23-dihydroxy-, (23<em>S</em>,24<em>R</em>)-;(8α,9β,11β,14β,23<em>S</em>,24<em>R</em>)-24,25-Epoxy-11,23-dihydroxydammar-13(17)-en-3-one;Alisol B;16-Deoxoalisol C",
    "duplicated_cas_no": "20054-95-9",
    "SMILES": "C[C@@]12[C@]([C@]3(C)[C@@](CC1)(C(C)(C)C(=O)CC3)[H])([C@@H](O)CC=4[C@]2(C)CCC4[C@@H](C[C@H](O)[C@@]5([C@](C)(C)O5)[H])C)[H]",
    "meta_data": {
        "InChI": "InChI=1S/C30H48O4/c1-17(15-21(32)25-27(4,5)34-25)18-9-13-29(7)19(18)16-20(31)24-28(6)12-11-23(33)26(2,3)22(28)10-14-30(24,29)8/h17,20-22,24-25,31-32H,9-16H2,1-8H3/t17-,20+,21+,22+,24+,25-,28+,29+,30+/m1/s1",
        "InChIKey": null,
        "Canonical SMILES": "O=C1CCC2(C)C(CCC3(C)C2C(O)CC4=C(CCC43C)C(C)CC(O)C5OC5(C)C)C1(C)C",
        "Molecular Formula": "C<sub>30</sub>H<sub>48</sub>O<sub>4</sub>",
        "Molecular Mass": "472.70",
        "Melting Point": "166-168 °C"
    }
}