{
    "cas_no": "371-27-7",
    "key_name": "2,2,2-Trifluoroethyl butanoate",
    "cn_name": "丁酸-2,2,2-三氟乙酯;",
    "alternate_name": "Butanoic acid, 2,2,2-trifluoroethyl ester;Butyric acid, 2,2,2-trifluoroethyl ester;2,2,2-Trifluoroethyl butanoate;2,2,2-Trifluoroethyl butyrate",
    "duplicated_cas_no": "",
    "SMILES": "C(OCC(F)(F)F)(CCC)=O",
    "meta_data": {
        "InChI": "InChI=1S/C6H9F3O2/c1-2-3-5(10)11-4-6(7,8)9/h2-4H2,1H3",
        "InChIKey": null,
        "Canonical SMILES": "O=C(OCC(F)(F)F)CCC",
        "Molecular Formula": "C<sub>6</sub>H<sub>9</sub>F<sub>3</sub>O<sub>2</sub>",
        "Molecular Mass": "170.13",
        "Boiling Point": "113 °C @ Press: 747 Torr",
        "Density": "1.137 g/cm³ @ Temp: 25 °C"
    }
}