{
    "cas_no": "56136-84-6",
    "key_name": "1-(6-Nitro-1,3-benzodioxol-5-yl)ethanone",
    "cn_name": "4\",5\"-亚甲基二氧-2\"-硝基苯乙酮;",
    "alternate_name": "Ethanone, 1-(6-nitro-1,3-benzodioxol-5-yl)-;1-(6-Nitro-1,3-benzodioxol-5-yl)ethanone;3,4-(Methylenedioxy)-6-nitroacetophenone;4′,5′-Methylenedioxy-2′-nitroacetophenone;1-(6-Nitro-2<em>H</em>-1,3-benzodioxol-5-yl)ethan-1-one;1-(6-Nitro-1,3-dioxaindan-5-yl)ethan-1-one",
    "duplicated_cas_no": "",
    "SMILES": "C(C)(=O)C1=C(N(=O)=O)C=C2C(=C1)OCO2",
    "meta_data": {
        "InChI": "InChI=1S/C9H7NO5/c1-5(11)6-2-8-9(15-4-14-8)3-7(6)10(12)13/h2-3H,4H2,1H3",
        "InChIKey": null,
        "Canonical SMILES": "O=C(C1=CC=2OCOC2C=C1N(=O)=O)C",
        "Molecular Formula": "C<sub>9</sub>H<sub>7</sub>NO<sub>5</sub>",
        "Molecular Mass": "209.16",
        "Melting Point": "122.5-123.5 °C"
    }
}