{
    "cas_no": "18829-56-6",
    "key_name": "(<em>E</em>)-2-Nonenal",
    "cn_name": null,
    "alternate_name": "2-Nonenal, (2<em>E</em>)-;2-Nonenal, (<em>E</em>)-;(2<em>E</em>)-2-Nonenal;<em>trans</em>-2-Nonenal;<em>trans</em>-2-Nonen-1-al;2-<em>trans</em>-Nonenal;(<em>E</em>)-2-Nonen-1-al;(<em>E</em>)-2-Nonenal;(2<em>E</em>)-Non-2-enal;(2<em>E</em>)-Nonenal;(<em>E</em>)-Non-2-enal;(<em>E</em>)-Nonen-1-al;(2<em>E</em>)-Nonen-1-al",
    "duplicated_cas_no": "",
    "SMILES": "C(C/C=C/C=O)CCCC",
    "meta_data": {
        "InChI": "InChI=1S/C9H16O/c1-2-3-4-5-6-7-8-9-10/h7-9H,2-6H2,1H3/b8-7+",
        "InChIKey": null,
        "Canonical SMILES": "O=CC=CCCCCCC",
        "Molecular Formula": "C<sub>9</sub>H<sub>16</sub>O",
        "Molecular Mass": "140.22",
        "Boiling Point": "101 °C",
        "Melting Point": "&lt;25 °C"
    }
}