{
    "cas_no": "672-89-9",
    "key_name": "4-Methoxy-6-methyl-2-pyrone",
    "cn_name": "4-甲氧基-6-甲基-2H-吡喃酮;",
    "alternate_name": "2<em>H</em>-Pyran-2-one, 4-methoxy-6-methyl-;Sorbic acid, 5-hydroxy-3-methoxy-, δ-lactone;4-Methoxy-6-methyl-2<em>H</em>-pyran-2-one;Methyltriacetolactone;6-Methyl-4-methoxy-2-pyrone;4-Methoxy-6-methyl-2-pyrone;4-Methoxy-6-methyl-2-pyranone;Triacetic acid lactone methyl ether;NSC 139216",
    "duplicated_cas_no": "",
    "SMILES": "O(C)C=1C=C(C)OC(=O)C1",
    "meta_data": {
        "InChI": "InChI=1S/C7H8O3/c1-5-3-6(9-2)4-7(8)10-5/h3-4H,1-2H3",
        "InChIKey": null,
        "Canonical SMILES": "O=C1OC(=CC(OC)=C1)C",
        "Molecular Formula": "C<sub>7</sub>H<sub>8</sub>O<sub>3</sub>",
        "Molecular Mass": "140.14",
        "Melting Point": "88-89 °C"
    }
}