{
    "cas_no": "622-21-9",
    "key_name": "Dicinnamalacetone",
    "cn_name": "1,9-联联苯-1,3,6,8-壬四烯-5-酮;1,9-二苯基-1,3,6,8-壬四烯-5-酮;二桂皮醛缩丙酮;二肉桂醛缩丙酮;双(苯基;",
    "alternate_name": "1,3,6,8-Nonatetraen-5-one, 1,9-diphenyl-;1,9-Diphenyl-1,3,6,8-nonatetraen-5-one;5-Oxo-1,9-diphenyl-1,3,6,8-nonatetraene;Dicinnamalacetone;Dicinnamylideneacetone;NSC 6245",
    "duplicated_cas_no": "",
    "SMILES": "C(=CC=CC(C=CC=CC1=CC=CC=C1)=O)C2=CC=CC=C2",
    "meta_data": {
        "InChI": "InChI=1S/C21H18O/c22-21(17-9-7-15-19-11-3-1-4-12-19)18-10-8-16-20-13-5-2-6-14-20/h1-18H",
        "InChIKey": null,
        "Canonical SMILES": "O=C(C=CC=CC=1C=CC=CC1)C=CC=CC=2C=CC=CC2",
        "Molecular Formula": "C<sub>21</sub>H<sub>18</sub>O",
        "Molecular Mass": "286.37",
        "Melting Point": "146 °C",
        "Density": "1.0966 g/cm³"
    }
}