{
    "cas_no": "40611-85-6",
    "key_name": "Ethyl 4-methyl-1<em>H</em>-pyrrole-2-carboxylate",
    "cn_name": "4-甲基-2-吡咯羧酸乙酯;",
    "alternate_name": "1<em>H</em>-Pyrrole-2-carboxylic acid, 4-methyl-, ethyl ester;Pyrrole-2-carboxylic acid, 4-methyl-, ethyl ester;Ethyl 4-methyl-1<em>H</em>-pyrrole-2-carboxylate;4-Methyl-2-pyrrolecarboxylic acid ethyl ester;Ethyl 4-methyl-2-pyrrolecarboxylate;4-Methyl-1<em>H</em>-pyrrole-2-carboxylic acid ethyl ester",
    "duplicated_cas_no": "",
    "SMILES": "C(OCC)(=O)C=1NC=C(C)C1",
    "meta_data": {
        "InChI": "InChI=1S/C8H11NO2/c1-3-11-8(10)7-4-6(2)5-9-7/h4-5,9H,3H2,1-2H3",
        "InChIKey": null,
        "Canonical SMILES": "O=C(OCC)C1=CC(=CN1)C",
        "Molecular Formula": "C<sub>8</sub>H<sub>11</sub>NO<sub>2</sub>",
        "Molecular Mass": "153.18",
        "Melting Point": "37-38 °C"
    }
}