{
    "cas_no": "631-31-2",
    "key_name": "2-Ethyl-2-methylsuccinic acid",
    "cn_name": "2-乙基-2-甲基丁二酸;",
    "alternate_name": "Butanedioic acid, 2-ethyl-2-methyl-;Succinic acid, 2-ethyl-2-methyl-;2-Ethyl-2-methylbutanedioic acid;3-Methyl-3-carboxyvaleric acid;2-Ethyl-2-methylsuccinic acid;α-Methyl-α-ethylsuccinic acid;2-Methyl-2-ethylsuccinic acid;NSC 38752",
    "duplicated_cas_no": "77480-39-8",
    "SMILES": "C(CC(O)=O)(C(O)=O)(CC)C",
    "meta_data": {
        "InChI": "InChI=1S/C7H12O4/c1-3-7(2,6(10)11)4-5(8)9/h3-4H2,1-2H3,(H,8,9)(H,10,11)",
        "InChIKey": null,
        "Canonical SMILES": "O=C(O)CC(C(=O)O)(C)CC",
        "Molecular Formula": "C<sub>7</sub>H<sub>12</sub>O<sub>4</sub>",
        "Molecular Mass": "160.17",
        "Melting Point": "101.0-101.5 °C"
    }
}