{
    "cas_no": "82410-32-0",
    "key_name": "Ganciclovir",
    "cn_name": "更昔洛韦;9-(1,3-二羟基-2-丙氧甲基)鸟嘌呤;",
    "alternate_name": "6<em>H</em>-Purin-6-one, 2-amino-1,9-dihydro-9-[[2-hydroxy-1-(hydroxymethyl)ethoxy]methyl]-;2-Amino-1,9-dihydro-9-[[2-hydroxy-1-(hydroxymethyl)ethoxy]methyl]-6<em>H</em>-purin-6-one;Biolf 62;9-(1,3-Dihydroxy-2-propoxymethyl)guanine;BW 759;2′-Nor-2′-deoxyguanosine;BW 759U;BW-B 759U;DHPG;2′-NDG;Hydroxyacyclovir;Ganciclovir;HHEMG;Gancyclovir;Vitrasert;RS 21592;Ganquard;Natclovir;Denosine;Ganguard;Nataclovir;Gengxiluowei;2-Amino-9-(1,3-dihydroxypropan-2-yloxymethyl)-3<em>H</em>-purin-6-one;2-Amino-9-(2-hydroxy-1-hydroxymethyl-ethoxymethyl)-1,9-dihydro-purin-6-one;2-Amino-9-[[(1,3-dihydroxypropan-2-yl)oxy]methyl]-6,9-dihydro-3<em>H</em>-purin-6-one;Vitrasert Implant;MeSH ID: D015774",
    "duplicated_cas_no": "96551-29-0;106931-35-5;86357-12-2",
    "SMILES": "C(OC(CO)CO)N1C2=C(N=C1)C(=O)N=C(N)N2",
    "meta_data": {
        "InChI": "InChI=1S/C9H13N5O4/c10-9-12-7-6(8(17)13-9)11-3-14(7)4-18-5(1-15)2-16/h3,5,15-16H,1-2,4H2,(H3,10,12,13,17)",
        "InChIKey": null,
        "Canonical SMILES": "O=C1N=C(N)NC2=C1N=CN2COC(CO)CO",
        "Molecular Formula": "C<sub>9</sub>H<sub>13</sub>N<sub>5</sub>O<sub>4</sub>",
        "Molecular Mass": "255.23",
        "Melting Point": "250 °C (decomp)"
    }
}