{
    "cas_no": "69409-94-5",
    "key_name": "Fluvalinate",
    "cn_name": null,
    "alternate_name": "Valine, <em>N</em>-[2-chloro-4-(trifluoromethyl)phenyl]-, cyano(3-phenoxyphenyl)methyl ester;<span class=\"text-smallcaps\">DL</span>-Valine, <em>N</em>-[2-chloro-4-(trifluoromethyl)phenyl]-, cyano(3-phenoxyphenyl)methyl ester;Fluvalinate;ZR 3210;Fluvalinate I;Fluvalinate II",
    "duplicated_cas_no": "79472-91-6;2048190-53-8;2048190-81-2",
    "SMILES": "C(OC(C(NC1=C(Cl)C=C(C(F)(F)F)C=C1)C(C)C)=O)(C#N)C2=CC(OC3=CC=CC=C3)=CC=C2",
    "meta_data": {
        "InChI": "InChI=1S/C26H22ClF3N2O3/c1-16(2)24(32-22-12-11-18(14-21(22)27)26(28,29)30)25(33)35-23(15-31)17-7-6-10-20(13-17)34-19-8-4-3-5-9-19/h3-14,16,23-24,32H,1-2H3",
        "InChIKey": null,
        "Canonical SMILES": "N#CC(OC(=O)C(NC1=CC=C(C=C1Cl)C(F)(F)F)C(C)C)C=2C=CC=C(OC=3C=CC=CC3)C2",
        "Molecular Formula": "C<sub>26</sub>H<sub>22</sub>ClF<sub>3</sub>N<sub>2</sub>O<sub>3</sub>",
        "Molecular Mass": "502.91",
        "Boiling Point": "&gt;450 °C",
        "Melting Point": "&lt;25 °C",
        "Density": "1.29 g/cm³ @ Temp: 25 °C"
    }
}