{
    "cas_no": "3406-84-6",
    "key_name": "[1,1′-Biphenyl]-4,4′-disulfonyl dichloride",
    "cn_name": null,
    "alternate_name": "[1,1′-Biphenyl]-4,4′-disulfonyl dichloride;4,4′-Biphenyldisulfonyl chloride;4,4′-Biphenylylenedisulfonyl chloride;4,4′-Bis(chlorosulfonyl)biphenyl;NSC 2062;4,4′-Biphenyldisulfonic acid dichloride;4,4′-Biphenylenedisulfonyl chloride;4-(4-Chlorosulfonylphenyl)benzenesulfonyl chloride",
    "duplicated_cas_no": "",
    "SMILES": "S(Cl)(=O)(=O)C1=CC=C(C=C1)C2=CC=C(S(Cl)(=O)=O)C=C2",
    "meta_data": {
        "InChI": "InChI=1S/C12H8Cl2O4S2/c13-19(15,16)11-5-1-9(2-6-11)10-3-7-12(8-4-10)20(14,17)18/h1-8H",
        "InChIKey": null,
        "Canonical SMILES": "O=S(=O)(Cl)C1=CC=C(C=C1)C=2C=CC(=CC2)S(=O)(=O)Cl",
        "Molecular Formula": "C<sub>12</sub>H<sub>8</sub>Cl<sub>2</sub>O<sub>4</sub>S<sub>2</sub>",
        "Molecular Mass": "351.23",
        "Melting Point": "203 °C"
    }
}