{
    "cas_no": "3068-32-4",
    "key_name": "α-Acetobromogalactose",
    "cn_name": "2,3,4,6-四乙酰氧基-alpha-D-吡喃糖溴化物;溴代半乳糖苷;",
    "alternate_name": "α-<span class=\"text-smallcaps\">D</span>-Galactopyranosyl bromide, 2,3,4,6-tetraacetate;α-<span class=\"text-smallcaps\">D</span>-Galactopyranosyl bromide, tetraacetate;Galactopyranosyl bromide, tetraacetate, α-<span class=\"text-smallcaps\">D</span>-;2,3,4,6-Tetra-<em>O</em>-acetyl-α-<span class=\"text-smallcaps\">D</span>-galactopyranosyl bromide;α-<span class=\"text-smallcaps\">D</span>-Acetobromogalactose;Tetra-<em>O</em>-acetyl-α-<span class=\"text-smallcaps\">D</span>-galactopyranosyl bromide;α-Acetobromogalactose;Acetylbromogalactose;α-Bromotetraacetylgalactose;2,3,4,6-Tetraacetyl-α-<span class=\"text-smallcaps\">D</span>-galactosyl bromide;2,3,4,6-Tetra-<em>O</em>-acetyl-α-<span class=\"text-smallcaps\">D</span>-galactosyl bromide;2,3,4,6-Tetraacetyl-α-<span class=\"text-smallcaps\">D</span>-galactopyranosyl bromide;Acetobromo-α-<span class=\"text-smallcaps\">D</span>-galactose;Acetobromogalactose;1-α-Bromo-2,3,4,6-tetraacetyl-<span class=\"text-smallcaps\">D</span>-galactopyranose;Tetraacetyl-α-<span class=\"text-smallcaps\">D</span>-galactopyranosyl bromide;Tetra-<em>O</em>-acetyl-α-<span class=\"text-smallcaps\">D</span>-galactosyl bromide;1-Bromo-2,3,4,6-tetra-<em>O</em>-Acetyl-α-<span class=\"text-smallcaps\">D</span>-galactopyranose;2,3,4,6-Tetra-<em>O</em>-acetyl-α-<span class=\"text-smallcaps\">D</span>-galactopyranosyl-1-bromide;(2<em>R</em>,3<em>S</em>,4<em>S</em>,5<em>R</em>,6<em>R</em>)-2-(Acetoxymethyl)-6-bromotetrahydro-2<em>H</em>-pyran-3,4,5-triyl triacetate",
    "duplicated_cas_no": "123706-65-0;133259-15-1",
    "SMILES": "O(C(C)=O)[C@H]1[C@@H](OC(C)=O)[C@@H](COC(C)=O)O[C@H](Br)[C@@H]1OC(C)=O",
    "meta_data": {
        "InChI": "InChI=1S/C14H19BrO9/c1-6(16)20-5-10-11(21-7(2)17)12(22-8(3)18)13(14(15)24-10)23-9(4)19/h10-14H,5H2,1-4H3/t10-,11+,12+,13-,14+/m1/s1",
        "InChIKey": null,
        "Canonical SMILES": "O=C(OCC1OC(Br)C(OC(=O)C)C(OC(=O)C)C1OC(=O)C)C",
        "Molecular Formula": "C<sub>14</sub>H<sub>19</sub>BrO<sub>9</sub>",
        "Molecular Mass": "411.20",
        "Melting Point": "79-81 °C"
    }
}