{
    "cas_no": "18511-72-3",
    "key_name": "4,4′-Dinitro-2,2′-bipyridine",
    "cn_name": null,
    "alternate_name": "2,2′-Bipyridine, 4,4′-dinitro-;4,4′-Dinitro-2,2′-bipyridine;4,4′-Dinitro[2,2′-bipyridine]",
    "duplicated_cas_no": "",
    "SMILES": "N(=O)(=O)C=1C=C(N=CC1)C2=CC(N(=O)=O)=CC=N2",
    "meta_data": {
        "InChI": "InChI=1S/C10H6N4O4/c15-13(16)7-1-3-11-9(5-7)10-6-8(14(17)18)2-4-12-10/h1-6H",
        "InChIKey": null,
        "Canonical SMILES": "O=N(=O)C=1C=CN=C(C1)C=2N=CC=C(C2)N(=O)=O",
        "Molecular Formula": "C<sub>10</sub>H<sub>6</sub>N<sub>4</sub>O<sub>4</sub>",
        "Molecular Mass": "246.18",
        "Melting Point": "180-190 °C"
    }
}