{
    "cas_no": "7783-51-9",
    "key_name": "Gallium fluoride (GaF<sub>3</sub>)",
    "cn_name": "无水三氟化镓;三氟化镓三水合物;三氟化镓无水;",
    "alternate_name": "Gallium fluoride (GaF<sub>3</sub>);Gallium trifluoride;Gallium fluoride;Trifluorogallium",
    "duplicated_cas_no": "",
    "SMILES": "[Ga](F)(F)F",
    "meta_data": {
        "InChI": "InChI=1S/3FH.Ga/h3*1H;/q;;;+3/p-3",
        "InChIKey": null,
        "Canonical SMILES": "F[Ga](F)F",
        "Molecular Formula": "F<sub>3</sub>Ga",
        "Molecular Mass": "",
        "Boiling Point": "950 °C",
        "Melting Point": "&gt;1000 °C",
        "Density": "4.47 g/cm³ @ Temp: 25 °C"
    }
}