{
    "cas_no": "4033-46-9",
    "key_name": "<em>S</em>-(2-Carboxyethyl)cysteine",
    "cn_name": null,
    "alternate_name": "<span class=\"text-smallcaps\">L</span>-Cysteine, <em>S</em>-(2-carboxyethyl)-;Alanine, 3-[(2-carboxyethyl)thio]-, <span class=\"text-smallcaps\">L</span>-;<em>S</em>-(2-Carboxyethyl)-<span class=\"text-smallcaps\">L</span>-cysteine;<em>S</em>-Carboxyethylcysteine;<em>S</em>-2-Carboxyethyl-<span class=\"text-smallcaps\">L</span>-cysteine;<em>S</em>-(2-Carboxyethyl)cysteine;3-(2-Carboxyethylthio)alanine;2-Amino-4-thiaheptanedioic acid;<em>S</em>-Carboxyethyl-<span class=\"text-smallcaps\">L</span>-cysteine;(2R)-2-Amino-3-[(2-carboxyethyl)sulfanyl]-propanoic acid;(2R)-2-Amino-3-(2-carboxyethylsulfanyl)propanoic acid",
    "duplicated_cas_no": "",
    "SMILES": "C(SCCC(O)=O)[C@@H](C(O)=O)N",
    "meta_data": {
        "InChI": "InChI=1S/C6H11NO4S/c7-4(6(10)11)3-12-2-1-5(8)9/h4H,1-3,7H2,(H,8,9)(H,10,11)/t4-/m0/s1",
        "InChIKey": null,
        "Canonical SMILES": "O=C(O)CCSCC(N)C(=O)O",
        "Molecular Formula": "C<sub>6</sub>H<sub>11</sub>NO<sub>4</sub>S",
        "Molecular Mass": "193.22",
        "Melting Point": "218 °C"
    }
}