{
    "cas_no": "1476-23-9",
    "key_name": "Allyl isocyanate",
    "cn_name": null,
    "alternate_name": "1-Propene, 3-isocyanato-;Isocyanic acid, allyl ester;3-Isocyanato-1-propene;Propene, 3-isocyanato-;Allyl isocyanate;2-Propenyl isocyanate;NSC 96964",
    "duplicated_cas_no": "",
    "SMILES": "C(N=C=O)C=C",
    "meta_data": {
        "InChI": "InChI=1S/C4H5NO/c1-2-3-5-4-6/h2H,1,3H2",
        "InChIKey": null,
        "Canonical SMILES": "O=C=NCC=C",
        "Molecular Formula": "C<sub>4</sub>H<sub>5</sub>NO",
        "Molecular Mass": "83.09",
        "Boiling Point": "87-89 °C"
    }
}