{
    "cas_no": "269078-75-3",
    "key_name": "(4<em>R</em>)-4-[[(9<em>H</em>-Fluoren-9-ylmethoxy)carbonyl]amino]-6-methylheptanoic acid",
    "cn_name": null,
    "alternate_name": "Heptanoic acid, 4-[[(9<em>H</em>-fluoren-9-ylmethoxy)carbonyl]amino]-6-methyl-, (4<em>R</em>)-;(4<em>R</em>)-4-[[(9<em>H</em>-Fluoren-9-ylmethoxy)carbonyl]amino]-6-methylheptanoic acid;(R)-4-((((9<em>H</em>-Fluoren-9-yl)methoxy)carbonyl)amino)-6-methylheptanoic acid",
    "duplicated_cas_no": "",
    "SMILES": "C(OC(N[C@H](CCC(O)=O)CC(C)C)=O)C1C=2C(C=3C1=CC=CC3)=CC=CC2",
    "meta_data": {
        "InChI": "InChI=1S/C23H27NO4/c1-15(2)13-16(11-12-22(25)26)24-23(27)28-14-21-19-9-5-3-7-17(19)18-8-4-6-10-20(18)21/h3-10,15-16,21H,11-14H2,1-2H3,(H,24,27)(H,25,26)/t16-/m1/s1",
        "InChIKey": null,
        "Canonical SMILES": "O=C(OCC1C=2C=CC=CC2C=3C=CC=CC31)NC(CCC(=O)O)CC(C)C",
        "Molecular Formula": "C<sub>23</sub>H<sub>27</sub>NO<sub>4</sub>",
        "Molecular Mass": "381.46",
        "Melting Point": "130-132 °C"
    }
}