{
    "cas_no": "4538-37-8",
    "key_name": "Tetramethylene diisocyanate",
    "cn_name": "1,4-二异氰酸丁酯;",
    "alternate_name": "Butane, 1,4-diisocyanato-;Isocyanic acid, tetramethylene ester;1,4-Diisocyanatobutane;1,4-Tetramethylenediisocyanate;Tetramethylene diisocyanate;Tetramethylene isocyanate;Butylenediisocyanate;1,4-Butanediol diisocyanate;NSC 510650;Butane 1,4-diisocyanate;1,4-Butylene diisocyanate",
    "duplicated_cas_no": "",
    "SMILES": "C(CCN=C=O)CN=C=O",
    "meta_data": {
        "InChI": "InChI=1S/C6H8N2O2/c9-5-7-3-1-2-4-8-6-10/h1-4H2",
        "InChIKey": null,
        "Canonical SMILES": "O=C=NCCCCN=C=O",
        "Molecular Formula": "C<sub>6</sub>H<sub>8</sub>N<sub>2</sub>O<sub>2</sub>",
        "Molecular Mass": "140.14",
        "Boiling Point": "75-76 °C @ Press: 14 Torr",
        "Melting Point": "-41.93 °C"
    }
}