{
    "cas_no": "72235-52-0",
    "key_name": "2,4-Difluorobenzylamine",
    "cn_name": "2,4-二氟苄胺;",
    "alternate_name": "Benzenemethanamine, 2,4-difluoro-;2,4-Difluorobenzenemethanamine;2,4-Difluorobenzylamine;[(2,4-Difluorophenyl)methyl]amine;(2,4-Difluorophenyl)methanamine;1-(2,4-Difluorophenyl)methanamine",
    "duplicated_cas_no": "",
    "SMILES": "C(N)C1=C(F)C=C(F)C=C1",
    "meta_data": {
        "InChI": "InChI=1S/C7H7F2N/c8-6-2-1-5(4-10)7(9)3-6/h1-3H,4,10H2",
        "InChIKey": null,
        "Canonical SMILES": "FC1=CC=C(C(F)=C1)CN",
        "Molecular Formula": "C<sub>7</sub>H<sub>7</sub>F<sub>2</sub>N",
        "Molecular Mass": "143.13",
        "Melting Point": "255-256 °C"
    }
}