{
    "cas_no": "355-86-2",
    "key_name": "1-Pentanol, 2,2,3,3,4,4,5,5-octafluoro-, phosphate (3:1)",
    "cn_name": "磷酸三(1H,1H,5H-八氟)正苯酯;磷酸三(1H,1H,5H-八氟)正苯酯;",
    "alternate_name": "1-Pentanol, 2,2,3,3,4,4,5,5-octafluoro-, phosphate (3:1);Tris(2,2,3,3,4,4,5,5-octafluoropentyl) phosphate;Tris(1,1,5-Trihydroperfluoropentyl) phosphate",
    "duplicated_cas_no": "",
    "SMILES": "C(C(C(F)F)(F)F)(C(COP(OCC(C(C(C(F)F)(F)F)(F)F)(F)F)(OCC(C(C(C(F)F)(F)F)(F)F)(F)F)=O)(F)F)(F)F",
    "meta_data": {
        "InChI": "InChI=1S/C15H9F24O4P/c16-4(17)10(28,29)13(34,35)7(22,23)1-41-44(40,42-2-8(24,25)14(36,37)11(30,31)5(18)19)43-3-9(26,27)15(38,39)12(32,33)6(20)21/h4-6H,1-3H2",
        "InChIKey": null,
        "Canonical SMILES": "O=P(OCC(F)(F)C(F)(F)C(F)(F)C(F)F)(OCC(F)(F)C(F)(F)C(F)(F)C(F)F)OCC(F)(F)C(F)(F)C(F)(F)C(F)F",
        "Molecular Formula": "C<sub>15</sub>H<sub>9</sub>F<sub>24</sub>O<sub>4</sub>P",
        "Molecular Mass": "740.16",
        "Boiling Point": "295-302 °C",
        "Melting Point": "-45 °C",
        "Density": "1.7641 g/cm³ @ Temp: 20 °C"
    }
}