{
    "cas_no": "2702-58-1",
    "key_name": "Methyl 3,5-dinitrobenzoate",
    "cn_name": "3,5-二硝基苯甲酸甲酯;",
    "alternate_name": "Benzoic acid, 3,5-dinitro-, methyl ester;Methyl 3,5-dinitrobenzoate;3,5-Dinitrobenzoic acid methyl ester;NSC 7317",
    "duplicated_cas_no": "",
    "SMILES": "C(OC)(=O)C1=CC(N(=O)=O)=CC(N(=O)=O)=C1",
    "meta_data": {
        "InChI": "InChI=1S/C8H6N2O6/c1-16-8(11)5-2-6(9(12)13)4-7(3-5)10(14)15/h2-4H,1H3",
        "InChIKey": null,
        "Canonical SMILES": "O=C(OC)C=1C=C(C=C(C1)N(=O)=O)N(=O)=O",
        "Molecular Formula": "C<sub>8</sub>H<sub>6</sub>N<sub>2</sub>O<sub>6</sub>",
        "Molecular Mass": "226.14",
        "Melting Point": "107-109 °C"
    }
}