{
    "cas_no": "22288-78-4",
    "key_name": "Methyl 3-aminothiophene-2-carboxylate",
    "cn_name": "3-氨基-2-噻吩甲酸甲酯;",
    "alternate_name": "2-Thiophenecarboxylic acid, 3-amino-, methyl ester;3-Amino-2-methoxycarbonylthiophene;Methyl 3-amino-2-thiophenecarboxylate;3-Amino-2-thiophenecarboxylic acid methyl ester;3-Aminothiophen-2-carboxylic acid methyl ester;Methyl 3-aminothiophene-2-carboxylate",
    "duplicated_cas_no": "",
    "SMILES": "C(OC)(=O)C1=C(N)C=CS1",
    "meta_data": {
        "InChI": "InChI=1S/C6H7NO2S/c1-9-6(8)5-4(7)2-3-10-5/h2-3H,7H2,1H3",
        "InChIKey": null,
        "Canonical SMILES": "O=C(OC)C=1SC=CC1N",
        "Molecular Formula": "C<sub>6</sub>H<sub>7</sub>NO<sub>2</sub>S",
        "Molecular Mass": "157.19",
        "Boiling Point": "101 °C",
        "Melting Point": "65 °C"
    }
}