{
    "cas_no": "80-74-0",
    "key_name": "Sulfisoxazole acetyl",
    "cn_name": "乙酰磺胺异噁唑;",
    "alternate_name": "Acetamide, <em>N</em>-[(4-aminophenyl)sulfonyl]-<em>N</em>-(3,4-dimethyl-5-isoxazolyl)-;Acetamide, <em>N</em>-(3,4-dimethyl-5-isoxazolyl)-<em>N</em>-sulfanilyl-;Sulfanilamide, <em>N</em><sup>1</sup>-acetyl-<em>N</em><sup>1</sup>-(3,4-dimethyl-5-isoxazolyl)-;<em>N</em>-[(4-Aminophenyl)sulfonyl]-<em>N</em>-(3,4-dimethyl-5-isoxazolyl)acetamide;<em>N</em><sup>1</sup>-Acetyl-<em>N</em><sup>1</sup>-(3,4-dimethyl-5-isoxazolyl)sulfanilamide;Lipo-Gantrisin acetyl;<em>N</em><sup>1</sup>-Monoacetylsulfisoxazole;Sulfisoxazole acetyl;Sulfisoxazole, <em>N</em><sup>1</sup>-acetyl-;<em>N</em>′-Acetylsulfisoxazole;<em>N</em><sup>1</sup>-Acetylsulfisoxazole;Acetylsulfisoxazole;Gantrisin acetyl;Acetylgantrisin;Lipo-Gantrisin;Sulfazin;<em>N</em>-Acetylsulfisoxazole",
    "duplicated_cas_no": "",
    "SMILES": "N(S(=O)(=O)C1=CC=C(N)C=C1)(C(C)=O)C2=C(C)C(C)=NO2",
    "meta_data": {
        "InChI": "InChI=1S/C13H15N3O4S/c1-8-9(2)15-20-13(8)16(10(3)17)21(18,19)12-6-4-11(14)5-7-12/h4-7H,14H2,1-3H3",
        "InChIKey": null,
        "Canonical SMILES": "O=C(N(C=1ON=C(C1C)C)S(=O)(=O)C2=CC=C(N)C=C2)C",
        "Molecular Formula": "C<sub>13</sub>H<sub>15</sub>N<sub>3</sub>O<sub>4</sub>S",
        "Molecular Mass": "309.34",
        "Melting Point": "193.5 °C"
    }
}