{
    "cas_no": "2198-53-0",
    "key_name": "<em>N</em>-(2,6-Dimethylphenyl)acetamide",
    "cn_name": null,
    "alternate_name": "Acetamide, <em>N</em>-(2,6-dimethylphenyl)-;2′,6′-Acetoxylidide;<em>N</em>-(2,6-Dimethylphenyl)acetamide;2′,6′-Dimethylacetanilide;<em>N</em>-Acetyl-2,6-xylidine;<em>N</em>-Acetyl-2,6-dimethylaniline;NSC 54130",
    "duplicated_cas_no": "68040-90-4",
    "SMILES": "N(C(C)=O)C1=C(C)C=CC=C1C",
    "meta_data": {
        "InChI": "InChI=1S/C10H13NO/c1-7-5-4-6-8(2)10(7)11-9(3)12/h4-6H,1-3H3,(H,11,12)",
        "InChIKey": null,
        "Canonical SMILES": "O=C(NC=1C(=CC=CC1C)C)C",
        "Molecular Formula": "C<sub>10</sub>H<sub>13</sub>NO",
        "Molecular Mass": "163.22",
        "Melting Point": "182-184 °C"
    }
}