{
    "cas_no": "112-54-9",
    "key_name": "Dodecanal",
    "cn_name": "十二醛;月桂醛;",
    "alternate_name": "Dodecanal;Lauraldehyde;Dodecyl aldehyde;Lauric aldehyde;Lauryl aldehyde;<em>n</em>-Lauraldehyde;<em>n</em>-Dodecyl aldehyde;<em>n</em>-Dodecanal;1-Dodecanal;Dodecanaldehyde;Laurinaldehyde;NSC 46128;NSC 52196;NSC 55212",
    "duplicated_cas_no": "",
    "SMILES": "C(CCCCCC)CCCCC=O",
    "meta_data": {
        "InChI": "InChI=1S/C12H24O/c1-2-3-4-5-6-7-8-9-10-11-12-13/h12H,2-11H2,1H3",
        "InChIKey": null,
        "Canonical SMILES": "O=CCCCCCCCCCCC",
        "Molecular Formula": "C<sub>12</sub>H<sub>24</sub>O",
        "Molecular Mass": "184.32",
        "Boiling Point": "120-125 °C @ Press: 10 Torr",
        "Melting Point": "44.5 °C",
        "Density": "0.8352 g/cm³ @ Temp: 15 °C"
    }
}