{
    "cas_no": "1158749-94-0",
    "key_name": "1,1-Dimethylethyl 2-oxo-1,8-diazaspiro[4.5]decane-8-carboxylate",
    "cn_name": null,
    "alternate_name": "1,8-Diazaspiro[4.5]decane-8-carboxylic acid, 2-oxo-, 1,1-dimethylethyl ester;1,1-Dimethylethyl 2-oxo-1,8-diazaspiro[4.5]decane-8-carboxylate",
    "duplicated_cas_no": "",
    "SMILES": "O=C1NC2(CCN(C(OC(C)(C)C)=O)CC2)CC1",
    "meta_data": {
        "InChI": "InChI=1S/C13H22N2O3/c1-12(2,3)18-11(17)15-8-6-13(7-9-15)5-4-10(16)14-13/h4-9H2,1-3H3,(H,14,16)",
        "InChIKey": null,
        "Canonical SMILES": "O=C(OC(C)(C)C)N1CCC2(NC(=O)CC2)CC1",
        "Molecular Formula": "C<sub>13</sub>H<sub>22</sub>N<sub>2</sub>O<sub>3</sub>",
        "Molecular Mass": "254.33",
        "Melting Point": "156-158 °C"
    }
}