{
    "cas_no": "619-24-9",
    "key_name": "3-Nitrobenzonitrile",
    "cn_name": "间硝基苯腈;",
    "alternate_name": "Benzonitrile, 3-nitro-;Benzonitrile, <em>m</em>-nitro-;3-Nitrobenzonitrile;<em>m</em>-Cyanonitrobenzene;3-Cyanonitrobenzene;1-Cyano-3-nitrobenzene;3-Cyano-1-nitrobenzene;<em>m</em>-Nitrobenzonitrile;NSC 5382",
    "duplicated_cas_no": "",
    "SMILES": "N(=O)(=O)C1=CC(C#N)=CC=C1",
    "meta_data": {
        "InChI": "InChI=1S/C7H4N2O2/c8-5-6-2-1-3-7(4-6)9(10)11/h1-4H",
        "InChIKey": null,
        "Canonical SMILES": "N#CC1=CC=CC(=C1)N(=O)=O",
        "Molecular Formula": "C<sub>7</sub>H<sub>4</sub>N<sub>2</sub>O<sub>2</sub>",
        "Molecular Mass": "148.12",
        "Boiling Point": "292 °C",
        "Melting Point": "116 °C"
    }
}