{
    "cas_no": "3416-24-8",
    "key_name": "Glucosamine",
    "cn_name": "葡糖胺;氨基葡萄糖;D-氨基葡萄糖;",
    "alternate_name": "<span class=\"text-smallcaps\">D</span>-Glucose, 2-amino-2-deoxy-;2-Amino-2-deoxy-<span class=\"text-smallcaps\">D</span>-glucose;Chitosamine;Glucosamine;<span class=\"text-smallcaps\">D</span>-Glucosamine;2-Amino-2-deoxyglucose;2-Amino-2-deoxy-<span class=\"text-smallcaps\">D</span>-glucopyranose;2-Deoxy-2-aminoglucose;2-Deoxy-2-amino-<span class=\"text-smallcaps\">D</span>-glucose;2-Aminoglucose;Glucosamine, <span class=\"text-smallcaps\">D</span>-;Mediflex",
    "duplicated_cas_no": "58-87-7;2351-15-7;58267-75-7;149014-32-4;880765-44-6;911653-84-4;1261161-52-7;1684434-48-7",
    "SMILES": "[C@H]([C@@H]([C@@H](CO)O)O)([C@H](C=O)N)O",
    "meta_data": {
        "InChI": "InChI=1S/C6H13NO5/c7-3(1-8)5(11)6(12)4(10)2-9/h1,3-6,9-12H,2,7H2/t3-,4+,5+,6+/m0/s1",
        "InChIKey": null,
        "Canonical SMILES": "O=CC(N)C(O)C(O)C(O)CO",
        "Molecular Formula": "C<sub>6</sub>H<sub>13</sub>NO<sub>5</sub>",
        "Molecular Mass": "179.17",
        "Melting Point": "88 °C"
    }
}