{
    "cas_no": "2433-96-7",
    "key_name": "Tricosanoic acid",
    "cn_name": "二十三烷酸;",
    "alternate_name": "Tricosanoic acid;<em>n</em>-Tricosanoic acid;22FA;Tricosylic acid",
    "duplicated_cas_no": "",
    "SMILES": "C(CCCCCCCCCCCCCC)CCCCCCCC(O)=O",
    "meta_data": {
        "InChI": "InChI=1S/C23H46O2/c1-2-3-4-5-6-7-8-9-10-11-12-13-14-15-16-17-18-19-20-21-22-23(24)25/h2-22H2,1H3,(H,24,25)",
        "InChIKey": null,
        "Canonical SMILES": "O=C(O)CCCCCCCCCCCCCCCCCCCCCC",
        "Molecular Formula": "C<sub>23</sub>H<sub>46</sub>O<sub>2</sub>",
        "Molecular Mass": "354.61",
        "Melting Point": "80-81 °C"
    }
}