{
    "cas_no": "644-90-6",
    "key_name": "(±)-2-Aminooctanoic acid",
    "cn_name": "DL-2-氨基正辛酸;DL-2-氨基辛酸;",
    "alternate_name": "Octanoic acid, 2-amino-;Octanoic acid, 2-amino-, <span class=\"text-smallcaps\">DL</span>-;Octanoic acid, 2-amino-, (±)-;2-Aminooctanoic acid;2-Amino-<span class=\"text-smallcaps\">DL</span>-caprylic acid;<span class=\"text-smallcaps\">DL</span>-α-Aminocaprylic acid;(±)-2-Aminooctanoic acid;<span class=\"text-smallcaps\">DL</span>-α-Aminooctanoic acid;<span class=\"text-smallcaps\">DL</span>-2-Aminooctanoic acid;α-Aminocaprylic acid;α-Aminooctanoic acid;(±)-2-Aminocaprylic acid;NSC 123023;NSC 20147;<span class=\"text-smallcaps\">D</smallcap><smallcap>L</span>-2-Aminocaprylic acid;(±)-α-Aminocaprylic acid;2-Azaniumyloctanoate",
    "duplicated_cas_no": "2187-07-7",
    "SMILES": "C(CCCCCC)(C(O)=O)N",
    "meta_data": {
        "InChI": "InChI=1S/C8H17NO2/c1-2-3-4-5-6-7(9)8(10)11/h7H,2-6,9H2,1H3,(H,10,11)",
        "InChIKey": null,
        "Canonical SMILES": "O=C(O)C(N)CCCCCC",
        "Molecular Formula": "C<sub>8</sub>H<sub>17</sub>NO<sub>2</sub>",
        "Molecular Mass": "159.23",
        "Melting Point": "270 °C"
    }
}