{
    "cas_no": "7773-01-5",
    "key_name": "Manganese dichloride",
    "cn_name": "氯化锰;无水氯化锰;",
    "alternate_name": "Manganese chloride (MnCl<sub>2</sub>);Manganese(II) chloride;Manganous chloride;Manganese chloride;Manganese dichloride;NSC 9879;CMC 001",
    "duplicated_cas_no": "111283-62-6",
    "SMILES": "[Mn](Cl)Cl",
    "meta_data": {
        "InChI": "InChI=1S/2ClH.Mn/h2*1H;/q;;+2/p-2",
        "InChIKey": null,
        "Canonical SMILES": "Cl[Mn]Cl",
        "Molecular Formula": "Cl<sub>2</sub>Mn",
        "Molecular Mass": "",
        "Boiling Point": "1190 °C",
        "Melting Point": "650 °C",
        "Density": "2.977 g/cm³ @ Temp: 25 °C"
    }
}