{
    "cas_no": "37746-78-4",
    "key_name": "Ethyl (<em>E</em>)-4-bromo-2-butenoate",
    "cn_name": null,
    "alternate_name": "2-Butenoic acid, 4-bromo-, ethyl ester, (2<em>E</em>)-;2-Butenoic acid, 4-bromo-, ethyl ester, (<em>E</em>)-;<em>trans</em>-Ethyl γ-bromocrotonate;Ethyl (<em>E</em>)-4-bromo-2-butenoate;Ethyl 4-bromo-2-(<em>E</em>)-butenoate;Ethyl bromocrotonate;(2<em>E</em>)-4-Bromo-2-butenoic acid ethyl ester;(E)-Ethyl 4-bromocrotonate;(E)-4-Bromo-2-butenoic acid ethyl ester;Ethyl (<em>E</em>)-4-bromobutenoate;(<em>E</em>)-4-Bromobut-2-enoic acid ethyl ester;(E)-Ethyl 4-bromobut-2-enoate;Ethyl <em>trans</em>-4-bromo-2-butenoate;<em>trans</em>-Ethyl 4-bromocrotonate;Ethyl (<em>E</em>)-4-bromocrotonate;Ethyl (2E)-4-bromobut-2-enoate;Ethyl (2<em>E</em>)-4-bromobut-2-enoate",
    "duplicated_cas_no": "",
    "SMILES": "C(/C=C/CBr)(OCC)=O",
    "meta_data": {
        "InChI": "InChI=1S/C6H9BrO2/c1-2-9-6(8)4-3-5-7/h3-4H,2,5H2,1H3/b4-3+",
        "InChIKey": null,
        "Canonical SMILES": "O=C(OCC)C=CCBr",
        "Molecular Formula": "C<sub>6</sub>H<sub>9</sub>BrO<sub>2</sub>",
        "Molecular Mass": "193.04",
        "Boiling Point": "91-93 °C @ Press: 10 Torr"
    }
}