{
    "cas_no": "256-96-2",
    "key_name": "Dibenz[<em>b</em>,<em>f</em>]azepine",
    "cn_name": "亚氨基芪;",
    "alternate_name": "5<em>H</em>-Dibenz[<em>b</em>,<em>f</em>]azepine;5-Azadibenzo[<em>a</em>,<em>e</em>]cycloheptatriene;2,2′-Iminostilbene;Stilbene, 2,2′-imino-;Iminostilbene;Dibenzazepine;Dibenz[<em>b</em>,<em>f</em>]azepine;5<em>H</em>-Dibenzo[<em>b</em>,<em>f</em>]azepine;RP 9989;NSC 123458",
    "duplicated_cas_no": "2295813-03-3",
    "SMILES": "C1=2C(C=CC=3C(N1)=CC=CC3)=CC=CC2",
    "meta_data": {
        "InChI": "InChI=1S/C14H11N/c1-3-7-13-11(5-1)9-10-12-6-2-4-8-14(12)15-13/h1-10,15H",
        "InChIKey": null,
        "Canonical SMILES": "C=1C=CC=2NC=3C=CC=CC3C=CC2C1",
        "Molecular Formula": "C<sub>14</sub>H<sub>11</sub>N",
        "Molecular Mass": "193.24",
        "Boiling Point": "150-180 °C @ Press: 0.1 Torr",
        "Melting Point": "198 °C"
    }
}