{
    "cas_no": "479-18-5",
    "key_name": "Diprophylline",
    "cn_name": "二羟丙茶碱;1,3-二甲基-7-(2,3-二羟基丙基)-3,7-二氢-1H-嘌呤-2,6-二酮;",
    "alternate_name": "1<em>H</em>-Purine-2,6-dione, 7-(2,3-dihydroxypropyl)-3,7-dihydro-1,3-dimethyl-;Theophylline, 7-(2,3-dihydroxypropyl)-;7-(2,3-Dihydroxypropyl)-3,7-dihydro-1,3-dimethyl-1<em>H</em>-purine-2,6-dione;AFI-phyllin;Astrophyllin;Corphyllin;7-(2,3-Dihydroxypropyl)theophylline;Diprophylline;Dyphylline;Glyfyllin;Glyphylline;Hyphylline;Neostenovasan;Neothylline;Neotilina;Neutrafil;Neutraphylline;Solufilin;Solufyllin;Theal;Thefylan;<em>Neo</em>-Vasophylline;Neophyllin;Neophylline;7-(2,3-Dihydroxypropyl)-1,3-dimethylxanthine;Circain;Coronarin;Cor-Theophylline;Hiphyllin;Lufyllin;Neo-Vasophylline;Silbephylline;Diprophyllin;Diprofillin;Aristophyllin;Diphyllin;Coronal;Neutraphyllin;Silbephyllin;Soluphyllin;Tefilan;Teofen;Hidroxiteofillina;Propyphyllin;Neufil;Synthophylline;Purifilin;Neutrafillina;Neutroxantina;7-(β,γ-Dihydroxypropyl)theophylline;Glyphyllin;Protheophylline;Neophyllin M;Diphylline;Diphylline (pharmaceutical);Neothyllin;Astmophysine;Asthmolysin;Isophyllen;Prophyllen;Athmolysin;Theal ampules;Astmamasit;Thefulan;Cor-Theophyllin;Circair;Neophyl;Dilor;NSC 14305;NSC 40844;(Rac)-diprophylline",
    "duplicated_cas_no": "52756-53-3;68350-70-9",
    "SMILES": "C(C(CO)O)N1C2=C(N(C)C(=O)N(C)C2=O)N=C1",
    "meta_data": {
        "InChI": "InChI=1S/C10H14N4O4/c1-12-8-7(9(17)13(2)10(12)18)14(5-11-8)3-6(16)4-15/h5-6,15-16H,3-4H2,1-2H3",
        "InChIKey": null,
        "Canonical SMILES": "O=C1C2=C(N=CN2CC(O)CO)N(C(=O)N1C)C",
        "Molecular Formula": "C<sub>10</sub>H<sub>14</sub>N<sub>4</sub>O<sub>4</sub>",
        "Molecular Mass": "254.24",
        "Melting Point": "158 °C"
    }
}