{
    "cas_no": "14374-45-9",
    "key_name": "1-Heptyn-1-ylbenzene",
    "cn_name": "苯基庚炔;",
    "alternate_name": "Benzene, 1-heptyn-1-yl-;1-Heptyne, 1-phenyl-;Benzene, 1-heptynyl-;1-Heptyn-1-ylbenzene;1-Phenylheptyne;1-Phenyl-1-heptyne;1-Heptynylbenzene;1-(Hept-1-ynyl)benzene",
    "duplicated_cas_no": "",
    "SMILES": "C(#CCCCCC)C1=CC=CC=C1",
    "meta_data": {
        "InChI": "InChI=1S/C13H16/c1-2-3-4-5-7-10-13-11-8-6-9-12-13/h6,8-9,11-12H,2-5H2,1H3",
        "InChIKey": null,
        "Canonical SMILES": "C(#CCCCCC)C=1C=CC=CC1",
        "Molecular Formula": "C<sub>13</sub>H<sub>16</sub>",
        "Molecular Mass": "172.27",
        "Boiling Point": "138 °C @ Press: 13 Torr",
        "Density": "0.9 g/cm³ @ Temp: 19 °C"
    }
}