{
    "cas_no": "107-61-9",
    "key_name": "1,4-Oxathiane, 4,4-dioxide",
    "cn_name": "1,4-噻噁烷-1,1-二氧;1,4-噻恶烷-1,1-二氧;",
    "alternate_name": "1,4-Oxathiane, 4,4-dioxide;<em>p</em>-Thioxane sulfone;Thioxane sulfone;Oxathiane 4,4-dioxide;1,4-Thioxan-1,1-dioxide;1,4-Thioxane-1,1-dioxide;NSC 39595;1,4-Oxathiane sulfone;1,4λ6-Oxathiane-4,4-dione",
    "duplicated_cas_no": "",
    "SMILES": "O=S1(=O)CCOCC1",
    "meta_data": {
        "InChI": "InChI=1S/C4H8O3S/c5-8(6)3-1-7-2-4-8/h1-4H2",
        "InChIKey": null,
        "Canonical SMILES": "O=S1(=O)CCOCC1",
        "Molecular Formula": "C<sub>4</sub>H<sub>8</sub>O<sub>3</sub>S",
        "Molecular Mass": "136.17",
        "Boiling Point": "130-140 °C @ Press: 1 Torr",
        "Melting Point": "129-130 °C"
    }
}