{
    "cas_no": "937-16-6",
    "key_name": "1<em>H</em>-Pyrrole-2-carboxylic acid, 4,5-dibromo-, methyl ester",
    "cn_name": "5-溴-1H-吡咯-2-羧酸甲酯;5-溴-1H-吡咯-2-羧酸甲酯;",
    "alternate_name": "1<em>H</em>-Pyrrole-2-carboxylic acid, 4,5-dibromo-, methyl ester;Pyrrole-2-carboxylic acid, 4,5-dibromo-, methyl ester;NSC 288036;Methyl 4,5-dibromo-1<em>H</em>-pyrrole-2-carboxylate;4,5-Dibromopyrrole-2-methylcarboxylate",
    "duplicated_cas_no": "",
    "SMILES": "C(OC)(=O)C1=CC(Br)=C(Br)N1",
    "meta_data": {
        "InChI": "InChI=1S/C6H5Br2NO2/c1-11-6(10)4-2-3(7)5(8)9-4/h2,9H,1H3",
        "InChIKey": null,
        "Canonical SMILES": "O=C(OC)C1=CC(Br)=C(Br)N1",
        "Molecular Formula": "C<sub>6</sub>H<sub>5</sub>Br<sub>2</sub>NO<sub>2</sub>",
        "Molecular Mass": "282.92",
        "Melting Point": "155 °C"
    }
}