{
    "cas_no": "7145-99-5",
    "key_name": "5-Methyl-1,3-benzodioxole",
    "cn_name": "3,4-(亚甲二氧)甲苯;",
    "alternate_name": "1,3-Benzodioxole, 5-methyl-;Toluene, 3,4-(methylenedioxy)-;5-Methyl-1,3-benzodioxole;3,4-(Methylenedioxy)toluene;5-Methylbenzo[<em>d</em>][1,3]dioxole;NSC 15642;4-Methyl-1,2-methylenedioxybenzene",
    "duplicated_cas_no": "",
    "SMILES": "CC=1C=C2C(=CC1)OCO2",
    "meta_data": {
        "InChI": "InChI=1S/C8H8O2/c1-6-2-3-7-8(4-6)10-5-9-7/h2-4H,5H2,1H3",
        "InChIKey": null,
        "Canonical SMILES": "O1C2=CC=C(C=C2OC1)C",
        "Molecular Formula": "C<sub>8</sub>H<sub>8</sub>O<sub>2</sub>",
        "Molecular Mass": "136.15",
        "Boiling Point": "193-195 °C"
    }
}