{
    "cas_no": "33429-83-3",
    "key_name": "Quercetin 3,4′-dimethyl ether",
    "cn_name": null,
    "alternate_name": "4<em>H</em>-1-Benzopyran-4-one, 5,7-dihydroxy-2-(3-hydroxy-4-methoxyphenyl)-3-methoxy-;Flavone, 3′,5,7-trihydroxy-3,4′-dimethoxy-;5,7-Dihydroxy-2-(3-hydroxy-4-methoxyphenyl)-3-methoxy-4<em>H</em>-1-benzopyran-4-one;3,4′-Dimethoxy-3′,5,7-trihydroxyflavone;Quercetin 3,4′-dimethyl ether;3,4′-Dimethylquercetin;5,7,3′-Trihydroxy-3,4′-dimethoxyflavone;NSC 106970",
    "duplicated_cas_no": "",
    "SMILES": "O(C)C1=C(OC=2C(C1=O)=C(O)C=C(O)C2)C3=CC(O)=C(OC)C=C3",
    "meta_data": {
        "InChI": "InChI=1S/C17H14O7/c1-22-12-4-3-8(5-10(12)19)16-17(23-2)15(21)14-11(20)6-9(18)7-13(14)24-16/h3-7,18-20H,1-2H3",
        "InChIKey": null,
        "Canonical SMILES": "O=C1C(OC)=C(OC=2C=C(O)C=C(O)C12)C=3C=CC(OC)=C(O)C3",
        "Molecular Formula": "C<sub>17</sub>H<sub>14</sub>O<sub>7</sub>",
        "Molecular Mass": "330.29",
        "Melting Point": "232-233 °C"
    }
}