{
    "cas_no": "519-87-9",
    "key_name": "<em>N</em>,<em>N</em>-Diphenylacetamide",
    "cn_name": "N,N-二苯基乙酰胺;",
    "alternate_name": "Acetamide, <em>N</em>,<em>N</em>-diphenyl-;<em>N</em>,<em>N</em>-Diphenylacetamide;<em>N</em>-Acetyldiphenylamine;Diphenylacetamide;<em>N</em>-Phenylacetanilide;Acetyldiphenylamine;NSC 3133",
    "duplicated_cas_no": "",
    "SMILES": "N(C(C)=O)(C1=CC=CC=C1)C2=CC=CC=C2",
    "meta_data": {
        "InChI": "InChI=1S/C14H13NO/c1-12(16)15(13-8-4-2-5-9-13)14-10-6-3-7-11-14/h2-11H,1H3",
        "InChIKey": null,
        "Canonical SMILES": "O=C(N(C=1C=CC=CC1)C=2C=CC=CC2)C",
        "Molecular Formula": "C<sub>14</sub>H<sub>13</sub>NO",
        "Molecular Mass": "211.26",
        "Boiling Point": "160-162 °C @ Press: 6 Torr",
        "Melting Point": "103 °C"
    }
}