{
    "cas_no": "6296-42-0",
    "key_name": "<em>N</em>-(2-Chloroethyl)urea",
    "cn_name": "氨亚甲基丙二酸二乙酯;",
    "alternate_name": "Urea, <em>N</em>-(2-chloroethyl)-;Urea, (2-chloroethyl)-;<em>N</em>-(2-Chloroethyl)urea;β-Chloroethylurea;NSC 47538;(2-Chloroethyl)urea",
    "duplicated_cas_no": "",
    "SMILES": "N(C(N)=O)CCCl",
    "meta_data": {
        "InChI": "InChI=1S/C3H7ClN2O/c4-1-2-6-3(5)7/h1-2H2,(H3,5,6,7)",
        "InChIKey": null,
        "Canonical SMILES": "O=C(N)NCCCl",
        "Molecular Formula": "C<sub>3</sub>H<sub>7</sub>ClN<sub>2</sub>O",
        "Molecular Mass": "122.55",
        "Melting Point": "200-207 °C"
    }
}