{
    "cas_no": "790-41-0",
    "key_name": "Benzoic acid, 4-chloro-, 1,1′-anhydride",
    "cn_name": null,
    "alternate_name": "Benzoic acid, 4-chloro-, 1,1′-anhydride;Benzoic acid, <em>p</em>-chloro-, anhydride;Benzoic acid, 4-chloro-, anhydride;<em>p</em>-Chlorobenzoic anhydride;4-Chlorobenzoic anhydride;<em>p</em>-Chlorobenzoic acid anhydride;4-Chlorobenzoic acid anhydride;NSC 404992",
    "duplicated_cas_no": "",
    "SMILES": "C(OC(=O)C1=CC=C(Cl)C=C1)(=O)C2=CC=C(Cl)C=C2",
    "meta_data": {
        "InChI": "InChI=1S/C14H8Cl2O3/c15-11-5-1-9(2-6-11)13(17)19-14(18)10-3-7-12(16)8-4-10/h1-8H",
        "InChIKey": null,
        "Canonical SMILES": "O=C(OC(=O)C1=CC=C(Cl)C=C1)C2=CC=C(Cl)C=C2",
        "Molecular Formula": "C<sub>14</sub>H<sub>8</sub>Cl<sub>2</sub>O<sub>3</sub>",
        "Molecular Mass": "295.12",
        "Boiling Point": "248 °C @ Press: 5 Torr",
        "Melting Point": "193-194 °C"
    }
}