{
    "cas_no": "1059626-05-9",
    "key_name": "Hydrazine, [(4-fluorophenyl)methyl]-, hydrochloride (1:1)",
    "cn_name": null,
    "alternate_name": "Hydrazine, [(4-fluorophenyl)methyl]-, hydrochloride (1:1);(4-Fluorobenzyl)hydrazine hydrochloride",
    "duplicated_cas_no": "",
    "SMILES": "C(NN)C1=CC=C(F)C=C1.Cl",
    "meta_data": {
        "InChI": "InChI=1S/C7H9FN2.ClH/c8-7-3-1-6(2-4-7)5-10-9;/h1-4,10H,5,9H2;1H",
        "InChIKey": null,
        "Canonical SMILES": "Cl.FC1=CC=C(C=C1)CNN",
        "Molecular Formula": "C<sub>7</sub>H<sub>9</sub>FN<sub>2</sub>.ClH",
        "Molecular Mass": "",
        "Melting Point": "149-150 °C"
    }
}