{
    "cas_no": "4392-87-4",
    "key_name": "[2,2′-Bipyridine]-6-carboxylic acid",
    "cn_name": null,
    "alternate_name": "[2,2′-Bipyridine]-6-carboxylic acid;2,2′-Bipyridyl-6-carboxylic acid",
    "duplicated_cas_no": "",
    "SMILES": "C(O)(=O)C1=NC(=CC=C1)C2=CC=CC=N2",
    "meta_data": {
        "InChI": "InChI=1S/C11H8N2O2/c14-11(15)10-6-3-5-9(13-10)8-4-1-2-7-12-8/h1-7H,(H,14,15)",
        "InChIKey": null,
        "Canonical SMILES": "O=C(O)C1=NC(=CC=C1)C2=NC=CC=C2",
        "Molecular Formula": "C<sub>11</sub>H<sub>8</sub>N<sub>2</sub>O<sub>2</sub>",
        "Molecular Mass": "200.19",
        "Melting Point": "210-220 °C (decomp)"
    }
}