{
    "cas_no": "1670-14-0",
    "key_name": "Benzamidine, hydrochloride",
    "cn_name": "苄脒盐酸盐;盐酸苄脒;苯甲脒盐酸盐;",
    "alternate_name": "Benzenecarboximidamide, hydrochloride (1:1);Benzamidine, monohydrochloride;Benzenecarboximidamide, monohydrochloride;Benzamidine, hydrochloride;Benzamidinium chloride;Amidinobenzene hydrochloride;Benzimidamide hydrochloride;Benzamidine hydrochloride",
    "duplicated_cas_no": "143504-23-8;2375087-53-7",
    "SMILES": "C(=N)(N)C1=CC=CC=C1.Cl",
    "meta_data": {
        "InChI": "InChI=1S/C7H8N2.ClH/c8-7(9)6-4-2-1-3-5-6;/h1-5H,(H3,8,9);1H",
        "InChIKey": null,
        "Canonical SMILES": "Cl.N=C(N)C=1C=CC=CC1",
        "Molecular Formula": "C<sub>7</sub>H<sub>8</sub>N<sub>2</sub>.ClH",
        "Molecular Mass": "",
        "Melting Point": "86-88 °C"
    }
}