{
    "cas_no": "114-26-1",
    "key_name": "Propoxur",
    "cn_name": "残杀威;2-(1-甲基乙氧基)苯基甲基氨基甲酸酯;",
    "alternate_name": "Phenol, 2-(1-methylethoxy)-, 1-(<em>N</em>-methylcarbamate);Carbamic acid, methyl-, <em>o</em>-isopropoxyphenyl ester;Phenol, 2-(1-methylethoxy)-, methylcarbamate;Phenol, <em>o</em>-isopropoxy-, methylcarbamate;ENT 25,671;Bayer 39007;58 12 315;Arprocarb;Brygou;IPMC;<em>o</em>-Isopropoxyphenyl <em>N</em>-methylcarbamate;<em>o</em>-Isopropoxyphenyl methylcarbamate;2-Isopropoxyphenyl <em>N</em>-methylcarbamate;2-Isopropoxyphenyl methylcarbamate;BAY 39007;Baygon;OMS 33;Unden (pesticide);Propoxur;PHC (carbamate);BAY 5122;Bayer B 5122;Unden;Propotox;Blattanex;Invisi-Gard;Blattosep;Suncide;Dalf Dust;<em>O</em>-(2-Isopropoxyphenyl) <em>N</em>-methylcarbamate;Sendran;Bolfo;Propoxylor;2-(1-Methylethoxy)phenyl <em>N</em>-methylcarbamate;Boruho;Mrowkozol;Boruho 50;Tendex;PHC 7;PHC;Unden 50PM;NSC 379584;Baygon G;MeSH ID: D001074",
    "duplicated_cas_no": "",
    "SMILES": "O(C(NC)=O)C1=C(OC(C)C)C=CC=C1",
    "meta_data": {
        "InChI": "InChI=1S/C11H15NO3/c1-8(2)14-9-6-4-5-7-10(9)15-11(13)12-3/h4-8H,1-3H3,(H,12,13)",
        "InChIKey": null,
        "Canonical SMILES": "O=C(OC=1C=CC=CC1OC(C)C)NC",
        "Molecular Formula": "C<sub>11</sub>H<sub>15</sub>NO<sub>3</sub>",
        "Molecular Mass": "209.24",
        "Melting Point": "91.5 °C",
        "Density": "1.12 g/cm³ @ Temp: 20 °C"
    }
}