{
    "cas_no": "286-20-4",
    "key_name": "Cyclohexene oxide",
    "cn_name": "氧化环己烯;7-氧杂二环[4.1.0]庚烷;1,2-环氧环己烷;",
    "alternate_name": "7-Oxabicyclo[4.1.0]heptane;Cyclohexane, 1,2-epoxy-;1,2-Epoxycyclohexane;1,2-Cyclohexene oxide;Cyclohexene epoxide;Cyclohexylene oxide;Tetramethyleneoxirane;Cyclohexane oxide;<em>cis</em>-1,2-Epoxycyclohexane;2,3-Tetramethyleneoxirane;<em>cis</em>-7-Oxabicyclo[4.1.0]heptane;<em>cis</em>-Cyclohexene oxide;NSC 128074;NSC 5218;Cyclohexene oxide",
    "duplicated_cas_no": "137422-07-2;26637-95-6;28165-18-6",
    "SMILES": "C12C(O1)CCCC2",
    "meta_data": {
        "InChI": "InChI=1S/C6H10O/c1-2-4-6-5(3-1)7-6/h5-6H,1-4H2",
        "InChIKey": null,
        "Canonical SMILES": "O1C2CCCCC12",
        "Molecular Formula": "C<sub>6</sub>H<sub>10</sub>O",
        "Molecular Mass": "98.14",
        "Boiling Point": "129-130 °C",
        "Melting Point": "&gt;-10 °C",
        "Density": "0.967 g/cm³ @ Temp: 25 °C"
    }
}