{
    "cas_no": "459-59-6",
    "key_name": "4-Fluoro-<em>N</em>-methylaniline",
    "cn_name": "4-氟-N-甲基苯胺;",
    "alternate_name": "Benzenamine, 4-fluoro-<em>N</em>-methyl-;Aniline, <em>p</em>-fluoro-<em>N</em>-methyl-;4-Fluoro-<em>N</em>-methylbenzenamine;<em>p</em>-Fluoro-<em>N</em>-methylaniline;4-Fluoro-<em>N</em>-methylaniline;<em>N</em>-Methyl-4-fluoroaniline;<em>N</em>-Methyl-<em>p</em>-fluoroaniline;<em>N</em>-(4-Fluorophenyl)methylamine;<em>N</em>-(4-Fluorophenyl)-<em>N</em>-methylamine;4-Fluoro-<em>N</em>-methylphenylamine",
    "duplicated_cas_no": "",
    "SMILES": "N(C)C1=CC=C(F)C=C1",
    "meta_data": {
        "InChI": "InChI=1S/C7H8FN/c1-9-7-4-2-6(8)3-5-7/h2-5,9H,1H3",
        "InChIKey": null,
        "Canonical SMILES": "FC1=CC=C(C=C1)NC",
        "Molecular Formula": "C<sub>7</sub>H<sub>8</sub>FN",
        "Molecular Mass": "125.14",
        "Boiling Point": "79-80 °C @ Press: 10 Torr",
        "Density": "1.1057 g/cm³ @ Temp: 23 °C"
    }
}