{
    "cas_no": "19961-27-4",
    "key_name": "<em>N</em>-Ethyl-2-propanamine",
    "cn_name": "N-乙基异丙胺;N-乙基异丙基胺;",
    "alternate_name": "2-Propanamine, <em>N</em>-ethyl-;Diethylamine, 1-methyl-;<em>N</em>-Ethyl-2-propanamine;<em>N</em>-Ethylisopropylamine;Ethylisopropylamine;Isopropylethylamine;2-(Ethylamino)propane;<em>N</em>-Ethyl-<em>N</em>-isopropylamine;NSC 165659;(Ethyl)(1-methylethyl)amine",
    "duplicated_cas_no": "",
    "SMILES": "N(C(C)C)CC",
    "meta_data": {
        "InChI": "InChI=1S/C5H13N/c1-4-6-5(2)3/h5-6H,4H2,1-3H3",
        "InChIKey": null,
        "Canonical SMILES": "N(CC)C(C)C",
        "Molecular Formula": "C<sub>5</sub>H<sub>13</sub>N",
        "Molecular Mass": "87.16",
        "Boiling Point": "69.6 °C",
        "Density": "0.71 g/cm³ @ Temp: 20 °C"
    }
}