{
    "cas_no": "19838-08-5",
    "key_name": "3-Methyl-2-pyrazinamine",
    "cn_name": "2-氨基-3-甲基吡嗪;",
    "alternate_name": "2-Pyrazinamine, 3-methyl-;Pyrazine, 2-amino-3-methyl-;Pyrazinamine, 3-methyl-;3-Methyl-2-pyrazinamine;2-Amino-3-methylpyrazine;NSC 186054",
    "duplicated_cas_no": "",
    "SMILES": "CC=1C(N)=NC=CN1",
    "meta_data": {
        "InChI": "InChI=1S/C5H7N3/c1-4-5(6)8-3-2-7-4/h2-3H,1H3,(H2,6,8)",
        "InChIKey": null,
        "Canonical SMILES": "N=1C=CN=C(C1N)C",
        "Molecular Formula": "C<sub>5</sub>H<sub>7</sub>N<sub>3</sub>",
        "Molecular Mass": "109.13",
        "Melting Point": "165-167 °C"
    }
}