{
    "cas_no": "80-49-9",
    "key_name": "Homatropine methobromide",
    "cn_name": "溴甲后马托品;",
    "alternate_name": "8-Azoniabicyclo[3.2.1]octane, 3-[(2-hydroxy-2-phenylacetyl)oxy]-8,8-dimethyl-, bromide (1:1), (3-<em>endo</em>)-;8-Methylhomatropinium bromide;1α<span class=\"text-smallcaps\">H</smallcap>,5α<smallcap>H</span>-Tropanium, 3α-hydroxy-8-methyl-, bromide, mandelate;8-Azoniabicyclo[3.2.1]octane, 3-[(hydroxyphenylacetyl)oxy]-8,8-dimethyl-, bromide, <em>endo</em>-(±)-;8-Azoniabicyclo[3.2.1]octane, 3-[(hydroxyphenylacetyl)oxy]-8,8-dimethyl-, bromide, (3-<em>endo</em>)-;Arkitropin;Camatropine;Esopin;Homapin;Homatromide;Homatropine methylbromide;Malcotran;Mesopin;Methatropin;Methylhomatropine bromide;Novatrin;Novatrine;Novatropine;Sed-Tems;Sethyl;Tropinium methobromide mandelate;Methylhomatropinium bromide;Homatropine methobromide;Methylhomatropine hydrobromide;Helbatropin;Novatropin;Homatrocel;Homatropil;Homolone;Methatropine;8-Azoniabicyclo[3.2.1]octane, 3-[(hydroxyphenylacetyl)oxy]-8,8-dimethyl-, bromide, <em>endo</em>-;NSC 34399",
    "duplicated_cas_no": "42522-67-8;55198-66-8;58725-74-9;1786394-41-9",
    "SMILES": "C[N+]1(C)[C@]2(C[C@H](OC(C(O)C3=CC=CC=C3)=O)C[C@@]1(CC2)[H])[H].[Br-]",
    "meta_data": {
        "InChI": "InChI=1/C17H24NO3.BrH/c1-18(2)13-8-9-14(18)11-15(10-13)21-17(20)16(19)12-6-4-3-5-7-12;/h3-7,13-16,19H,8-11H2,1-2H3;1H/q+1;/p-1/t13-,14+,15+,16?;",
        "InChIKey": null,
        "Canonical SMILES": "[Br-].O=C(OC1CC2CCC(C1)[N+]2(C)C)C(O)C=3C=CC=CC3",
        "Molecular Formula": "C<sub>17</sub>H<sub>24</sub>NO<sub>3</sub>.Br",
        "Molecular Mass": "",
        "Melting Point": "191-192 °C (decomp)"
    }
}