{
    "cas_no": "2408-37-9",
    "key_name": "2,2,6-Trimethylcyclohexanone",
    "cn_name": "2,2,6-三甲基环己酮;",
    "alternate_name": "Cyclohexanone, 2,2,6-trimethyl-;2,2,6-Trimethylcyclohexanone;1,1,3-Trimethyl-2-cyclohexanone;2,6,6-Trimethylcyclohexanone;2,2,6-Trimethylcyclohexan-1-one;NSC 401659",
    "duplicated_cas_no": "62861-88-5",
    "SMILES": "O=C1C(C)(C)CCCC1C",
    "meta_data": {
        "InChI": "InChI=1S/C9H16O/c1-7-5-4-6-9(2,3)8(7)10/h7H,4-6H2,1-3H3",
        "InChIKey": null,
        "Canonical SMILES": "O=C1C(C)CCCC1(C)C",
        "Molecular Formula": "C<sub>9</sub>H<sub>16</sub>O",
        "Molecular Mass": "140.22",
        "Boiling Point": "178.5 °C",
        "Melting Point": "-31.8 °C",
        "Density": "0.922 g/cm³ @ Temp: 0 °C"
    }
}