{
    "cas_no": "4547-24-4",
    "key_name": "Corosolic acid",
    "cn_name": "科罗索酸;2-alpha-羟基熊果酸;",
    "alternate_name": "Urs-12-en-28-oic acid, 2,3-dihydroxy-, (2α,3β)-;Urs-12-en-28-oic acid, 2α,3β-dihydroxy-;(2α,3β)-2,3-Dihydroxyurs-12-en-28-oic acid;2α-Hydroxyursolic acid;2α,3β-Dihydroxyurs-12-en-28-oic acid;Corosolic acid;Corsolic acid;Glucosol;Colosic acid;Colosolic acid;2α,3β-Dihydroxy ursolic acid;2alpha-Hydroxyursolic acid;2α,2β,-Dihydroxy-12-en-28-ursolic acid;2α,3β-Dihydroxylursolic acid",
    "duplicated_cas_no": "106327-63-3",
    "SMILES": "C[C@]12[C@@]3(C)C([C@]4([C@@](C(O)=O)(CC3)CC[C@@H](C)[C@@H]4C)[H])=CC[C@@]1([C@]5(C)[C@@](CC2)(C(C)(C)[C@@H](O)[C@H](O)C5)[H])[H]",
    "meta_data": {
        "InChI": "InChI=1S/C30H48O4/c1-17-10-13-30(25(33)34)15-14-28(6)19(23(30)18(17)2)8-9-22-27(5)16-20(31)24(32)26(3,4)21(27)11-12-29(22,28)7/h8,17-18,20-24,31-32H,9-16H2,1-7H3,(H,33,34)/t17-,18+,20-,21+,22-,23+,24+,27+,28-,29-,30+/m1/s1",
        "InChIKey": null,
        "Canonical SMILES": "O=C(O)C12CCC(C)C(C)C2C3=CCC4C5(C)CC(O)C(O)C(C)(C)C5CCC4(C)C3(C)CC1",
        "Molecular Formula": "C<sub>30</sub>H<sub>48</sub>O<sub>4</sub>",
        "Molecular Mass": "472.70",
        "Melting Point": "283-285 °C"
    }
}