{
    "cas_no": "35158-25-9",
    "key_name": "2-Isopropyl-5-methyl-2-hexenal",
    "cn_name": "可可醛;5-甲基-2-(1-甲基乙基)-2-己烯醛;",
    "alternate_name": "2-Hexenal, 5-methyl-2-(1-methylethyl)-;2-Hexenal, 2-isopropyl-5-methyl-;5-Methyl-2-(1-methylethyl)-2-hexenal;2-Isopropyl-5-methyl-2-hexenal;2-Isopropyl-5-methyl-2-hexen-1-al;α-Isopropyl-β-isobutylacrolein;2-(1-Methylethyl)-5-methylhex-2-enal",
    "duplicated_cas_no": "",
    "SMILES": "C(=CCC(C)C)(C(C)C)C=O",
    "meta_data": {
        "InChI": "InChI=1S/C10H18O/c1-8(2)5-6-10(7-11)9(3)4/h6-9H,5H2,1-4H3",
        "InChIKey": null,
        "Canonical SMILES": "O=CC(=CCC(C)C)C(C)C",
        "Molecular Formula": "C<sub>10</sub>H<sub>18</sub>O",
        "Molecular Mass": "154.25",
        "Boiling Point": "49.5-50 °C @ Press: 3.5 Torr",
        "Density": "0.8454 g/cm³ @ Temp: 20 °C"
    }
}