{
    "cas_no": "7764-50-3",
    "key_name": "<em>p</em>-Menth-8-en-2-one",
    "cn_name": "2-甲基-5-(1-甲基乙烯基)环己酮;",
    "alternate_name": "Cyclohexanone, 2-methyl-5-(1-methylethenyl)-;<em>p</em>-Menth-8-en-2-one;Carvone, 1,6-dihydro-;2-Methyl-5-(1-methylethenyl)cyclohexanone;5-Isopropenyl-2-methylcyclohexanone;1,6-Dihydrocarvone;2-Methyl-5-(prop-1-en-2-yl)cyclohexan-1-one;3-Isoprpopyl-6-methyl-2-ciclohexen-1-one",
    "duplicated_cas_no": "",
    "SMILES": "C(C)(=C)C1CC(=O)C(C)CC1",
    "meta_data": {
        "InChI": "InChI=1S/C10H16O/c1-7(2)9-5-4-8(3)10(11)6-9/h8-9H,1,4-6H2,2-3H3",
        "InChIKey": null,
        "Canonical SMILES": "O=C1CC(C(=C)C)CCC1C",
        "Molecular Formula": "C<sub>10</sub>H<sub>16</sub>O",
        "Molecular Mass": "152.23",
        "Boiling Point": "87-87.5 °C @ Press: 5 Torr",
        "Density": "0.929 g/cm³ @ Temp: 15 °C"
    }
}