{
    "cas_no": "7424-54-6",
    "key_name": "3,5-Heptanedione",
    "cn_name": "3,5-二庚酮;",
    "alternate_name": "3,5-Heptanedione;Dipropionylmethane",
    "duplicated_cas_no": "",
    "SMILES": "C(C(CC)=O)C(CC)=O",
    "meta_data": {
        "InChI": "InChI=1S/C7H12O2/c1-3-6(8)5-7(9)4-2/h3-5H2,1-2H3",
        "InChIKey": null,
        "Canonical SMILES": "O=C(CC(=O)CC)CC",
        "Molecular Formula": "C<sub>7</sub>H<sub>12</sub>O<sub>2</sub>",
        "Molecular Mass": "128.17",
        "Boiling Point": "172-173 °C @ Press: 711 Torr",
        "Density": "0.9445 g/cm³ @ Temp: 20 °C"
    }
}