{
    "cas_no": "3153-37-5",
    "key_name": "Butanoic acid, 4-chloro-, methyl ester",
    "cn_name": "4-氯丁酸甲酯;",
    "alternate_name": "Butanoic acid, 4-chloro-, methyl ester;Butyric acid, 4-chloro-, methyl ester;Methyl 4-chlorobutyrate;Methyl 4-chlorobutanoate;γ-Chlorobutyric acid methyl ester;Methyl ω-chlorobutyrate;4-Chlorobutyric acid methyl ester;Methyl γ-chlorobutyrate;4-Chlorobutanoic acid methyl ester;NSC 66271",
    "duplicated_cas_no": "",
    "SMILES": "C(CCCCl)(OC)=O",
    "meta_data": {
        "InChI": "InChI=1S/C5H9ClO2/c1-8-5(7)3-2-4-6/h2-4H2,1H3",
        "InChIKey": null,
        "Canonical SMILES": "O=C(OC)CCCCl",
        "Molecular Formula": "C<sub>5</sub>H<sub>9</sub>ClO<sub>2</sub>",
        "Molecular Mass": "136.58",
        "Boiling Point": "175 °C",
        "Density": "1.11624 g/cm³ @ Temp: 25.00 °C"
    }
}