{
    "cas_no": "19317-11-4",
    "key_name": "Farnesal",
    "cn_name": null,
    "alternate_name": "2,6,10-Dodecatrienal, 3,7,11-trimethyl-;Farnesal;3,7,11-Trimethyl-2,6,10-dodecatrienal;Farnesone",
    "duplicated_cas_no": "",
    "SMILES": "C(=CCCC(=CC=O)C)(CCC=C(C)C)C",
    "meta_data": {
        "InChI": "InChI=1S/C15H24O/c1-13(2)7-5-8-14(3)9-6-10-15(4)11-12-16/h7,9,11-12H,5-6,8,10H2,1-4H3",
        "InChIKey": null,
        "Canonical SMILES": "O=CC=C(C)CCC=C(C)CCC=C(C)C",
        "Molecular Formula": "C<sub>15</sub>H<sub>24</sub>O",
        "Molecular Mass": "220.35",
        "Boiling Point": "172-174 °C @ Press: 14 Torr",
        "Density": "0.893 g/cm³ @ Temp: 18 °C"
    }
}