{
    "cas_no": "7727-73-3",
    "key_name": "Sodium sulfate decahydrate",
    "cn_name": null,
    "alternate_name": "Sulfuric acid sodium salt (1:2), hydrate (1:10);Sulfuric acid disodium salt, decahydrate;Glauber's salt;Sodium sulfate decahydrate;Disodium sulfate decahydrate;Sodium sulfate (Na<sub>2</sub>SO<sub>4</sub>) decahydrate;Sodium sulfate decahydrate (Na<sub>2</sub>SO<sub>4</sub>.10H<sub>2</sub>O);Disodium sulfate decahydrate (Na<sub>2</sub>SO<sub>4</sub>.10H<sub>2</sub>O);Mangxiao",
    "duplicated_cas_no": "",
    "SMILES": "S(=O)(=O)(O)O.[Na].O",
    "meta_data": {
        "InChI": "InChI=1S/2Na.H2O4S.10H2O/c;;1-5(2,3)4;;;;;;;;;;/h;;(H2,1,2,3,4);10*1H2",
        "InChIKey": null,
        "Canonical SMILES": "[Na].O=S(=O)(O)O.O",
        "Molecular Formula": "H<sub>2</sub>O<sub>4</sub>S.10H<sub>2</sub>O.2Na",
        "Molecular Mass": "",
        "Melting Point": "32.4 °C",
        "Density": "1.46 g/cm³"
    }
}