{
    "cas_no": "84468-24-6",
    "key_name": "1-(5-Isoquinolinylsulfonyl)piperazine",
    "cn_name": "1-(5-异喹啉基磺酰)哌嗪二盐酸盐;",
    "alternate_name": "Isoquinoline, 5-(1-piperazinylsulfonyl)-;Piperazine, 1-(5-isoquinolinylsulfonyl)-;5-(1-Piperazinylsulfonyl)isoquinoline;HA 100 (pharmaceutical);HA 100;1-(5-Isoquinolinylsulfonyl)piperazine",
    "duplicated_cas_no": "",
    "SMILES": "S(=O)(=O)(C=1C2=C(C=CC1)C=NC=C2)N3CCNCC3",
    "meta_data": {
        "InChI": "InChI=1S/C13H15N3O2S/c17-19(18,16-8-6-14-7-9-16)13-3-1-2-11-10-15-5-4-12(11)13/h1-5,10,14H,6-9H2",
        "InChIKey": null,
        "Canonical SMILES": "O=S(=O)(C1=CC=CC=2C=NC=CC21)N3CCNCC3",
        "Molecular Formula": "C<sub>13</sub>H<sub>15</sub>N<sub>3</sub>O<sub>2</sub>S",
        "Molecular Mass": "277.34",
        "Melting Point": "162 °C"
    }
}