{
    "cas_no": "580-51-8",
    "key_name": "3-Phenylphenol",
    "cn_name": "间羟基联苯;",
    "alternate_name": "[1,1′-Biphenyl]-3-ol;3-Biphenylol;Phenol, <em>m</em>-phenyl-;3-Phenylphenol;<em>m</em>-Hydroxydiphenyl;3-Hydroxybiphenyl;<em>m</em>-Hydroxybiphenyl;<em>m</em>-Phenylphenol;<em>m</em>-Biphenylol;NSC 17588",
    "duplicated_cas_no": "",
    "SMILES": "OC=1C=C(C=CC1)C2=CC=CC=C2",
    "meta_data": {
        "InChI": "InChI=1S/C12H10O/c13-12-8-4-7-11(9-12)10-5-2-1-3-6-10/h1-9,13H",
        "InChIKey": null,
        "Canonical SMILES": "OC1=CC=CC(=C1)C=2C=CC=CC2",
        "Molecular Formula": "C<sub>12</sub>H<sub>10</sub>O",
        "Molecular Mass": "170.21",
        "Boiling Point": "&gt;300 °C",
        "Melting Point": "78 °C"
    }
}