{
    "cas_no": "36880-33-8",
    "key_name": "5-Ethyl-2-thiophenecarboxaldehyde",
    "cn_name": "5-乙基噻吩-2-甲醛;",
    "alternate_name": "2-Thiophenecarboxaldehyde, 5-ethyl-;5-Ethyl-2-thiophenecarboxaldehyde;5-Ethylthiophene-2-carbaldehyde",
    "duplicated_cas_no": "",
    "SMILES": "C(C)C=1SC(C=O)=CC1",
    "meta_data": {
        "InChI": "InChI=1S/C7H8OS/c1-2-6-3-4-7(5-8)9-6/h3-5H,2H2,1H3",
        "InChIKey": null,
        "Canonical SMILES": "O=CC=1SC(=CC1)CC",
        "Molecular Formula": "C<sub>7</sub>H<sub>8</sub>OS",
        "Molecular Mass": "140.20",
        "Boiling Point": "117-119 °C @ Press: 18 Torr",
        "Density": "1.117 g/cm³ @ Temp: 419 °C"
    }
}