{
    "cas_no": "5879-06-1",
    "key_name": "<span class=\"text-smallcaps\">L</smallcap>-Glutamyl-<smallcap>L</span>-valine",
    "cn_name": null,
    "alternate_name": "<span class=\"text-smallcaps\">L</smallcap>-Valine, <smallcap>L</span>-α-glutamyl-;Valine, <em>N</em>-<span class=\"text-smallcaps\">L</smallcap>-α-glutamyl-, <smallcap>L</span>-;<span class=\"text-smallcaps\">L</smallcap>-Valine, <em>N</em>-<smallcap>L</span>-α-glutamyl-;<span class=\"text-smallcaps\">L</smallcap>-α-Glutamyl-<smallcap>L</span>-valine;Glutamylvaline;<span class=\"text-smallcaps\">L</smallcap>-Glutamyl-<smallcap>L</span>-valine;α-Glutamylvaline;α-<span class=\"text-smallcaps\">L</smallcap>-Glutamyl-<smallcap>L</span>-valine;NSC 334345;460: PN: WO2005081628 SEQID: 1569 claimed protein;26: PN: JP2009278928 PAGE: 12 claimed protein;206: PN: EP2161028 PAGE: 11 claimed protein;81: PN: WO2014102104 SEQID: 180 claimed protein;81: PN: WO2014102101 SEQID: 381 claimed protein;121: PN: WO2014102103 TABLE: 1 claimed protein;100: PN: WO2014102100 TABLE: 1 claimed protein;13: PN: WO2014170713 SEQID: 113 claimed protein;α-Glu-Val;97: PN: WO2020097235 SEQID: 327 claimed protein;83: PN: WO2021147954 SEQID: 83 claimed protein;469: PN: WO2022215055 SEQID: 469 claimed protein",
    "duplicated_cas_no": "5633-03-4",
    "SMILES": "[C@H](NC([C@H](CCC(O)=O)N)=O)([C@H](C)C)C(O)=O",
    "meta_data": {
        "InChI": "InChI=1S/C10H18N2O5/c1-5(2)8(10(16)17)12-9(15)6(11)3-4-7(13)14/h5-6,8H,3-4,11H2,1-2H3,(H,12,15)(H,13,14)(H,16,17)/t6-,8-/m0/s1",
        "InChIKey": null,
        "Canonical SMILES": "O=C(O)CCC(N)C(=O)NC(C(=O)O)C(C)C",
        "Molecular Formula": "C<sub>10</sub>H<sub>18</sub>N<sub>2</sub>O<sub>5</sub>",
        "Molecular Mass": "246.26",
        "Melting Point": "189-190 °C"
    }
}