{
    "cas_no": "622-62-8",
    "key_name": "4-Ethoxyphenol",
    "cn_name": "4-乙氧基苯酚;对乙氧基苯酚;4-羟基苯乙醚;对羟基苯乙醚;",
    "alternate_name": "Phenol, 4-ethoxy-;Phenol, <em>p</em>-ethoxy-;4-Ethoxyphenol;Hydroquinone monoethyl ether;<em>p</em>-Ethoxyphenol;<em>p</em>-Hydroxyphenetole;Hydroquinone ethyl ether;NSC 9885;Ethyl 4-Hydroxyphenyl ether",
    "duplicated_cas_no": "",
    "SMILES": "O(CC)C1=CC=C(O)C=C1",
    "meta_data": {
        "InChI": "InChI=1S/C8H10O2/c1-2-10-8-5-3-7(9)4-6-8/h3-6,9H,2H2,1H3",
        "InChIKey": null,
        "Canonical SMILES": "OC1=CC=C(OCC)C=C1",
        "Molecular Formula": "C<sub>8</sub>H<sub>10</sub>O<sub>2</sub>",
        "Molecular Mass": "138.16",
        "Boiling Point": "246.5 °C",
        "Melting Point": "66.5 °C"
    }
}