{
    "cas_no": "28911-01-5",
    "key_name": "Triazolam",
    "cn_name": "三唑仑;三唑氯安定;8-氯-6-(2-氯苯基)-1-甲基-4H-[1,2,4]三氮唑并[4,3-a][1,4]苯并二氮杂卓;",
    "alternate_name": "4<em>H</em>-[1,2,4]Triazolo[4,3-<em>a</em>][1,4]benzodiazepine, 8-chloro-6-(2-chlorophenyl)-1-methyl-;4<em>H</em>-<em>s</em>-Triazolo[4,3-<em>a</em>][1,4]benzodiazepine, 8-chloro-6-(<em>o</em>-chlorophenyl)-1-methyl-;8-Chloro-6-(2-chlorophenyl)-1-methyl-4<em>H</em>-[1,2,4]triazolo[4,3-<em>a</em>][1,4]benzodiazepine;8-Chloro-1-methyl-6-(<em>o</em>-chlorophenyl)-4<em>H</em>-<em>s</em>-triazolo[4,3-<em>a</em>][1,4]benzodiazepine;Triazolam;U 33030;Halcion;D II-18-2;Novodorm;Songar;MeSH ID: D014229",
    "duplicated_cas_no": "",
    "SMILES": "CC=1N2C=3C(C(=NCC2=NN1)C4=C(Cl)C=CC=C4)=CC(Cl)=CC3",
    "meta_data": {
        "InChI": "InChI=1S/C17H12Cl2N4/c1-10-21-22-16-9-20-17(12-4-2-3-5-14(12)19)13-8-11(18)6-7-15(13)23(10)16/h2-8H,9H2,1H3",
        "InChIKey": null,
        "Canonical SMILES": "ClC=1C=CC2=C(C1)C(=NCC3=NN=C(N32)C)C=4C=CC=CC4Cl",
        "Molecular Formula": "C<sub>17</sub>H<sub>12</sub>Cl<sub>2</sub>N<sub>4</sub>",
        "Molecular Mass": "343.21",
        "Melting Point": "233-235 °C"
    }
}