{
    "cas_no": "50-81-7",
    "key_name": "<span class=\"text-smallcaps\">L</span>-Ascorbic acid",
    "cn_name": "维生素C;抗坏血酸;2,3,4,5,6-五羟基-2-己烯酸-4-内酯;",
    "alternate_name": "<span class=\"text-smallcaps\">L</span>-Ascorbic acid;Allercorb;Antiscorbic vitamin;Antiscorbutic vitamin;Ascorbajen;Ascorin;Ascorteal;Ascorvit;Cantan;Cantaxin;Catavin C;Cebicure;Cebione;Cecon;Cegiolan;Ceglion;Celin;Ce-Mi-Lin;Cenetone;Cereon;Cergona;Cescorbat;Cetemican;Cevalin;Cevatine;Cevex;Cevimin;Ce-Vi-Sol;Cevitamic acid;Cevitamin;Cevitan;Cevitex;Ciamin;Cipca;Concemin;Davitamon C;3-<em>keto</em>-<span class=\"text-smallcaps\">L</span>-Gulofuranolactone;<span class=\"text-smallcaps\">L</span>-3-Keto-<em>threo</em>-hexuronic acid lactone;Laroscorbine;Lemascorb;Liqui-Cee;3-Oxo-<span class=\"text-smallcaps\">L</span>-gulofuranolactone;Planavit C;Proscorbin;C-Quin;Ribena;Secorbate;Vicelat;Vicin;Vitacimin;Vitacin;Vitamin C;Vitamisin;Vitascorbol;Redoxon;Vitacee;<span class=\"text-smallcaps\">L</span>-<em>threo</em>-Hex-2-enonic acid, γ-lactone;Ascorbic acid;<span class=\"text-smallcaps\">L</span>-Lyxoascorbic acid;Xyloascorbic acid, <span class=\"text-smallcaps\">L</span>-;Cevital;<span class=\"text-smallcaps\">L</span>-Xyloascorbic acid;C-Vimin;Testascorbic;Adenex;Hybrin;Cetamid;Colascor;Scorbu C;Xitix;Celaskon;Cebion;Cemagyl;Ascorbutina;Viforcit;Vitace;IDO-C;Viscorin;Ascoltin;Hicee;Neo-Valdrin;(+)-Ascorbic acid;Citrovit;Chewcee;<span class=\"text-smallcaps\">L</span>-<em>threo</em>-Ascorbic acid;Ronotec 100;<span class=\"text-smallcaps\">L</span>-(+)-Ascorbic acid;Rontex 100;Juvamine;Rovimix C;Vasc;P 1110;VC 97;Kangbingfeng;Suncoat VC 40;Viscorin 100M;Cewin;Ceklin;Ascorbicap;Cetane;Cetane-Caps TC;Cetebe;E 300;NSC 218455;NSC 33832;Cell C;Ascorell;C-L 6/PW;VC 40;100M;Cinal;Rovimix C-EC;Vitashure 160;Cevarol;Tanvimil C;Vaginorm-C;Monovitan C;Pascorbin;Ascorbalox;Energil C;Bovi-C;Emvit-C;Novasol Cof;5-(1,2-Dihydroxyethyl)-3,4-dihydroxy-5<em>H</em>-furan-2-one;5-(1,2-Dihydroxyethyl)-3,4-dihydroxy-2(5<em>H</em>)-furanone;5-(1,2-Dihydroxyethyl)-3,4-dihydroxyfuran-2(5<em>H</em>)-one;Vitaminum C Aflofarm;Vitamin C Type SS;YKL 35678;MeSH ID: D001205",
    "duplicated_cas_no": "14536-17-5;30208-61-8;50976-75-5;56172-55-5;56533-05-2;57304-74-2;57606-40-3;88845-26-5;89924-69-6;129940-97-2;154170-90-8;259133-78-3;623158-95-2;882690-91-7;884381-69-5;885512-24-3;896436-13-8;1018124-03-2;1129294-89-8;1428525-25-0;1703051-92-6;2252244-20-3;2635329-14-3",
    "SMILES": "[C@@H](CO)(O)[C@@]1(C(O)=C(O)C(=O)O1)[H]",
    "meta_data": {
        "InChI": "InChI=1S/C6H8O6/c7-1-2(8)5-3(9)4(10)6(11)12-5/h2,5,7-10H,1H2/t2-,5+/m0/s1",
        "InChIKey": null,
        "Canonical SMILES": "O=C1OC(C(O)=C1O)C(O)CO",
        "Molecular Formula": "C<sub>6</sub>H<sub>8</sub>O<sub>6</sub>",
        "Molecular Mass": "176.12",
        "Melting Point": "190-192 °C (decomp)",
        "Density": "1.65 g/cm³"
    }
}