{
    "cas_no": "1025967-78-5",
    "key_name": "<em>N</em>-[[2-(6-Benzofuranylcarbonyl)-5,7-dichloro-1,2,3,4-tetrahydro-6-isoquinolinyl]carbonyl]-3-(methylsulfonyl)-<span class=\"text-smallcaps\">L</span>-phenylalanine",
    "cn_name": null,
    "alternate_name": "<span class=\"text-smallcaps\">L</span>-Phenylalanine, <em>N</em>-[[2-(6-benzofuranylcarbonyl)-5,7-dichloro-1,2,3,4-tetrahydro-6-isoquinolinyl]carbonyl]-3-(methylsulfonyl)-;<em>N</em>-[[2-(6-Benzofuranylcarbonyl)-5,7-dichloro-1,2,3,4-tetrahydro-6-isoquinolinyl]carbonyl]-3-(methylsulfonyl)-<span class=\"text-smallcaps\">L</span>-phenylalanine;Lifitegrast;SAR 1118;Xiidra;(<em>S</em>)-2-(2-(Benzofuran-6-carbonyl)-5,7-dichloro-1,2,3,4-tetrahydroisoquinoline-6-carboxamido)-3-(3-(methylsulfonyl)phenyl)propanoic acid",
    "duplicated_cas_no": "915397-62-5;1356856-75-1",
    "SMILES": "ClC1=C2C(CN(C(=O)C=3C=C4C(=CC3)C=CO4)CC2)=CC(Cl)=C1C(N[C@@H](CC5=CC(S(C)(=O)=O)=CC=C5)C(O)=O)=O",
    "meta_data": {
        "InChI": "InChI=1S/C29H24Cl2N2O7S/c1-41(38,39)20-4-2-3-16(11-20)12-23(29(36)37)32-27(34)25-22(30)13-19-15-33(9-7-21(19)26(25)31)28(35)18-6-5-17-8-10-40-24(17)14-18/h2-6,8,10-11,13-14,23H,7,9,12,15H2,1H3,(H,32,34)(H,36,37)/t23-/m0/s1",
        "InChIKey": null,
        "Canonical SMILES": "O=C(O)C(NC(=O)C1=C(Cl)C=C2C(=C1Cl)CCN(C(=O)C=3C=CC=4C=COC4C3)C2)CC5=CC=CC(=C5)S(=O)(=O)C",
        "Molecular Formula": "C<sub>29</sub>H<sub>24</sub>Cl<sub>2</sub>N<sub>2</sub>O<sub>7</sub>S",
        "Molecular Mass": "615.48",
        "Melting Point": "154-156 °C"
    }
}