{
    "cas_no": "22150-76-1",
    "key_name": "Biopterin",
    "cn_name": "L-生物喋呤;",
    "alternate_name": "4(1<em>H</em>)-Pteridinone, 2-amino-6-[(1<em>R</em>,2<em>S</em>)-1,2-dihydroxypropyl]-;4(3<em>H</em>)-Pteridinone, 2-amino-6-(<span class=\"text-smallcaps\">L</span>-<em>erythro</em>-1,2-dihydroxypropyl)-;4(1<em>H</em>)-Pteridinone, 2-amino-6-(1,2-dihydroxypropyl)-, [<em>S</em>-(<em>R</em>*,<em>S</em>*)]-;2-Amino-6-[(1<em>R</em>,2<em>S</em>)-1,2-dihydroxypropyl]-4(1<em>H</em>)-pteridinone;Biopterin;<span class=\"text-smallcaps\">L</span>-<em>erythro</em>-Biopterin;Pterin H B<sub>2</sub>;<span class=\"text-smallcaps\">L</span>-Biopterin;6-Biopterin;(-)-Biopterin;NSC 339699;MeSH ID: D001708",
    "duplicated_cas_no": "2050525-19-2;2078048-89-0",
    "SMILES": "O=C1C=2C(NC=C([C@H]([C@H](C)O)O)N2)=NC(N)=N1",
    "meta_data": {
        "InChI": "InChI=1S/C9H11N5O3/c1-3(15)6(16)4-2-11-7-5(12-4)8(17)14-9(10)13-7/h2-3,6,15-16H,1H3,(H3,10,11,13,14,17)/t3-,6-/m0/s1",
        "InChIKey": null,
        "Canonical SMILES": "O=C1N=C(N=C2NC=C(N=C12)C(O)C(O)C)N",
        "Molecular Formula": "C<sub>9</sub>H<sub>11</sub>N<sub>5</sub>O<sub>3</sub>",
        "Molecular Mass": "237.22",
        "Melting Point": "300 °C (decomp)"
    }
}