{
    "cas_no": "91940-87-3",
    "key_name": "2<em>H</em>-3-Benzazepin-2-one, 3-[3-[[2-(3,4-dimethoxyphenyl)ethyl]methylamino]propyl]-1,3,4,5-tetrahydro-7,8-dimethoxy-, hydrochloride (1:1)",
    "cn_name": null,
    "alternate_name": "2<em>H</em>-3-Benzazepin-2-one, 3-[3-[[2-(3,4-dimethoxyphenyl)ethyl]methylamino]propyl]-1,3,4,5-tetrahydro-7,8-dimethoxy-, hydrochloride (1:1);2<em>H</em>-3-Benzazepin-2-one, 3-[3-[[2-(3,4-dimethoxyphenyl)ethyl]methylamino]propyl]-1,3,4,5-tetrahydro-7,8-dimethoxy-, monohydrochloride;UL-FS 49;ULFS 49CL;Zatebradine hydrochloride",
    "duplicated_cas_no": "",
    "SMILES": "O(C)C=1C=C2C(=CC1OC)CC(=O)N(CCCN(CCC3=CC(OC)=C(OC)C=C3)C)CC2.Cl",
    "meta_data": {
        "InChI": "InChI=1S/C26H36N2O5.ClH/c1-27(13-9-19-7-8-22(30-2)23(15-19)31-3)11-6-12-28-14-10-20-16-24(32-4)25(33-5)17-21(20)18-26(28)29;/h7-8,15-17H,6,9-14,18H2,1-5H3;1H",
        "InChIKey": null,
        "Canonical SMILES": "Cl.O=C1N(CCC2=CC(OC)=C(OC)C=C2C1)CCCN(C)CCC3=CC=C(OC)C(OC)=C3",
        "Molecular Formula": "C<sub>26</sub>H<sub>36</sub>N<sub>2</sub>O<sub>5</sub>.ClH",
        "Molecular Mass": "",
        "Melting Point": "168 °C"
    }
}