{
    "cas_no": "1829-40-9",
    "key_name": "Hexaphenyldisiloxane",
    "cn_name": "六苯基二硅氧烷;六苯基二硅氧烷;",
    "alternate_name": "Disiloxane, 1,1,1,3,3,3-hexaphenyl-;Disiloxane, hexaphenyl-;1,1,1,3,3,3-Hexaphenyldisiloxane;Hexaphenyldisiloxane;Bis(triphenylsilyl) ether;Bis(triphenylsilicon) oxide;NSC 12574",
    "duplicated_cas_no": "",
    "SMILES": "[Si](O[Si](C1=CC=CC=C1)(C2=CC=CC=C2)C3=CC=CC=C3)(C4=CC=CC=C4)(C5=CC=CC=C5)C6=CC=CC=C6",
    "meta_data": {
        "InChI": "InChI=1S/C36H30OSi2/c1-7-19-31(20-8-1)38(32-21-9-2-10-22-32,33-23-11-3-12-24-33)37-39(34-25-13-4-14-26-34,35-27-15-5-16-28-35)36-29-17-6-18-30-36/h1-30H",
        "InChIKey": null,
        "Canonical SMILES": "O([Si](C=1C=CC=CC1)(C=2C=CC=CC2)C=3C=CC=CC3)[Si](C=4C=CC=CC4)(C=5C=CC=CC5)C=6C=CC=CC6",
        "Molecular Formula": "C<sub>36</sub>H<sub>30</sub>OSi<sub>2</sub>",
        "Molecular Mass": "534.79",
        "Boiling Point": "494 °C",
        "Melting Point": "224-225 °C",
        "Density": "0.8445 g/cm³ @ Temp: 20 °C"
    }
}