{
    "cas_no": "544-10-5",
    "key_name": "1-Chlorohexane",
    "cn_name": "1-氯己烷;",
    "alternate_name": "Hexane, 1-chloro-;1-Chlorohexane;Hexyl chloride;<em>n</em>-Hexyl chloride;1-Hexyl chloride",
    "duplicated_cas_no": "",
    "SMILES": "C(CCC)CCCl",
    "meta_data": {
        "InChI": "InChI=1S/C6H13Cl/c1-2-3-4-5-6-7/h2-6H2,1H3",
        "InChIKey": null,
        "Canonical SMILES": "ClCCCCCC",
        "Molecular Formula": "C<sub>6</sub>H<sub>13</sub>Cl",
        "Molecular Mass": "120.62",
        "Boiling Point": "135 °C",
        "Melting Point": "-94 °C",
        "Density": "0.8759 g/cm³ @ Temp: 20 °C"
    }
}