{
    "cas_no": "14338-82-0",
    "key_name": "1,1′-Dibutyl 2,2′-[methylenebis(thio)]bis[acetate]",
    "cn_name": "2,2\"-(亚甲基双(硫代)二乙酸二丁酯;",
    "alternate_name": "Acetic acid, 2,2′-[methylenebis(thio)]bis-, 1,1′-dibutyl ester;Acetic acid, (methylenedithio)di-, dibutyl ester;Acetic acid, 2,2′-[methylenebis(thio)]bis-, dibutyl ester;1,1′-Dibutyl 2,2′-[methylenebis(thio)]bis[acetate];Methylenebis(butyl mercaptoacetate);Dibutyl methylenebisthioglycolate;Plastikator 88;Methylenebis(thioglycolic acid butyl ester);Vulkanol 88;Methylenebis(butyl thioglycolate);Methylenebis[thioglycolic acid] dibutyl ester;Struktol KW 600;KW 600;Evabochem 994",
    "duplicated_cas_no": "198066-80-7;252947-46-9",
    "SMILES": "C(C(OCCCC)=O)SCSCC(OCCCC)=O",
    "meta_data": {
        "InChI": "InChI=1S/C13H24O4S2/c1-3-5-7-16-12(14)9-18-11-19-10-13(15)17-8-6-4-2/h3-11H2,1-2H3",
        "InChIKey": null,
        "Canonical SMILES": "O=C(OCCCC)CSCSCC(=O)OCCCC",
        "Molecular Formula": "C<sub>13</sub>H<sub>24</sub>O<sub>4</sub>S<sub>2</sub>",
        "Molecular Mass": "308.46",
        "Boiling Point": "176-178 °C @ Press: 1.0 Torr"
    }
}