{
    "cas_no": "118949-61-4",
    "key_name": "2,6-Bis[(4<em>S</em>)-4,5-dihydro-4-(1-methylethyl)-2-oxazolyl]pyridine",
    "cn_name": null,
    "alternate_name": "Pyridine, 2,6-bis[(4<em>S</em>)-4,5-dihydro-4-(1-methylethyl)-2-oxazolyl]-;Pyridine, 2,6-bis[4,5-dihydro-4-(1-methylethyl)-2-oxazolyl]-, [<em>S</em>-(<em>R</em>*,<em>R</em>*)]-;2,6-Bis[(4<em>S</em>)-4,5-dihydro-4-(1-methylethyl)-2-oxazolyl]pyridine;2,6-Bis[(4<em>S</em>)-4-isopropyl-2-oxazolin-2-yl]pyridine;2,6-Bis[(4<em>S</em>)-4-isopropyloxazolin-2-yl]pyridine;2,6-Bis[(4<em>S</em>)-(-)-isopropyl-2-oxazolin-2-yl]pyridine;2,6-Bis((<em>S</em>)-4-isopropyl-2-oxazolin-2-yl)pyridine;2,6-Bis[(4<em>S</em>)-isopropyl-2-oxazolin-2-yl]pyridine;(<em>S</em>)-<sup>i</sup>Pr-pybox;2,6-Bis[(4<em>S</em>)-4,5-dihydro-4-isopropyloxazol-2-yl]pyridine;(<em>S</em>,<em>S</em>)-<sup>i</sup>Pr-Pybox;2,6-Bis((4<em>S</em>)-4-isopropyl-4,5-dihydrooxazol-2-yl)pyridine;2,6-Bis(4-(<em>S</em>)-isopropyloxazolinyl)pyridine;2,6-Bis((<em>S</em>)-4-isopropyl-4,5-dihydrooxazol-2-yl)pyridine;(<em>S</em>,<em>S</em>)-<em>i</em>Pr-PyBox",
    "duplicated_cas_no": "215601-37-9",
    "SMILES": "C(C)(C)[C@@H]1N=C(OC1)C=2N=C(C=CC2)C3=N[C@@H]([C@H](C)C)CO3",
    "meta_data": {
        "InChI": "InChI=1S/C17H23N3O2/c1-10(2)14-8-21-16(19-14)12-6-5-7-13(18-12)17-20-15(9-22-17)11(3)4/h5-7,10-11,14-15H,8-9H2,1-4H3/t14-,15-/m1/s1",
        "InChIKey": null,
        "Canonical SMILES": "N1=C(C=CC=C1C2=NC(CO2)C(C)C)C3=NC(CO3)C(C)C",
        "Molecular Formula": "C<sub>17</sub>H<sub>23</sub>N<sub>3</sub>O<sub>2</sub>",
        "Molecular Mass": "301.38",
        "Melting Point": "151-154 °C"
    }
}