{
    "cas_no": "603-32-7",
    "key_name": "Triphenylarsine",
    "cn_name": "三苯胂;",
    "alternate_name": "Arsine, triphenyl-;Triphenylarsine;Triphenylarsane;NSC 478",
    "duplicated_cas_no": "",
    "SMILES": "[As](C1=CC=CC=C1)(C2=CC=CC=C2)C3=CC=CC=C3",
    "meta_data": {
        "InChI": "InChI=1S/C18H15As/c1-4-10-16(11-5-1)19(17-12-6-2-7-13-17)18-14-8-3-9-15-18/h1-15H",
        "InChIKey": null,
        "Canonical SMILES": "C=1C=CC(=CC1)[As](C=2C=CC=CC2)C=3C=CC=CC3",
        "Molecular Formula": "C<sub>18</sub>H<sub>15</sub>As",
        "Molecular Mass": "306.23",
        "Boiling Point": "360 °C",
        "Melting Point": "61 °C",
        "Density": "1.225 g/cm³"
    }
}