{
    "cas_no": "115-82-2",
    "key_name": "Silicic acid (H<sub>4</sub>SiO<sub>4</sub>) tetrakis(2-ethylhexyl) ester",
    "cn_name": "四(2-乙基己基)硅酸酯;",
    "alternate_name": "Silicic acid (H<sub>4</sub>SiO<sub>4</sub>), tetrakis(2-ethylhexyl) ester;1-Hexanol, 2-ethyl-, silicate;Silicic acid (H<sub>4</sub>SiO<sub>4</sub>) tetrakis(2-ethylhexyl) ester;Tetra(2-ethylhexyl) orthosilicate;Tetrakis(2-ethylhexyl) silicate;Tetrakis(2-ethylhexyloxy)silane;T 1928;NSC 6136",
    "duplicated_cas_no": "875818-63-6",
    "SMILES": "[Si](OCC(CCCC)CC)(OCC(CCCC)CC)(OCC(CCCC)CC)OCC(CCCC)CC",
    "meta_data": {
        "InChI": "InChI=1S/C32H68O4Si/c1-9-17-21-29(13-5)25-33-37(34-26-30(14-6)22-18-10-2,35-27-31(15-7)23-19-11-3)36-28-32(16-8)24-20-12-4/h29-32H,9-28H2,1-8H3",
        "InChIKey": null,
        "Canonical SMILES": "O(CC(CC)CCCC)[Si](OCC(CC)CCCC)(OCC(CC)CCCC)OCC(CC)CCCC",
        "Molecular Formula": "C<sub>32</sub>H<sub>68</sub>O<sub>4</sub>Si",
        "Molecular Mass": "544.97",
        "Boiling Point": "419 °C",
        "Melting Point": "328 °C (decomp)"
    }
}