{
    "cas_no": "7778-77-0",
    "key_name": "Monopotassium phosphate",
    "cn_name": "磷酸二氢钾;",
    "alternate_name": "Phosphoric acid, potassium salt (1:1);Phosphoric acid, monopotassium salt;Monopotassium phosphate;Potassium acid phosphate;Potassium biphosphate;Potassium dihydrogen phosphate;Sorensen's potassium phosphate;Monopotassium orthophosphate;Potassium phosphate (K(H<sub>2</sub>PO<sub>4</sub>));Potassium dihydrogen phosphate (KH<sub>2</sub>PO<sub>4</sub>);KDP;Monobasic potassium phosphate;Monopotassium dihydrogen phosphate;Dihydrogen potassium phosphate;Potassium dihydrogen orthophosphate;Potassium hydrogen phosphate (KH<sub>2</sub>PO<sub>4</sub>);Potassium diphosphate;Potassium monobasic phosphate (KH<sub>2</sub>PO<sub>4</sub>);Potassium phosphate monobasic;Nutri-Vant-PeaK;Monopotassium dihydrogen orthophosphate;MKP;Hydrogen potassium phosphate (H<sub>2</sub>KPO<sub>4</sub>)",
    "duplicated_cas_no": "943540-09-8;1364712-44-6;2133444-20-7;2364332-00-1;2484993-14-6;2745045-20-7",
    "SMILES": "P(=O)(O)(O)O.[K]",
    "meta_data": {
        "InChI": "InChI=1S/K.H3O4P/c;1-5(2,3)4/h;(H3,1,2,3,4)",
        "InChIKey": null,
        "Canonical SMILES": "[K].O=P(O)(O)O",
        "Molecular Formula": "H<sub>3</sub>O<sub>4</sub>P.K",
        "Molecular Mass": "",
        "Melting Point": "253 °C",
        "Density": "2.34 g/cm³"
    }
}