{
    "cas_no": "500-28-7",
    "key_name": "Chlorthion",
    "cn_name": "氯硫磷;氯赛昂；氯赛昂粉剂；氯赛昂乳剂；O，O-二甲基-O-(3-氯-4-硝基苯基)硫代磷酸酯;",
    "alternate_name": "Phosphorothioic acid, <em>O</em>-(3-chloro-4-nitrophenyl) <em>O</em>,<em>O</em>-dimethyl ester;Phosphorothioic acid, <em>O</em>-(3-chloro-4-nitrophenyl) <em>O</em>,<em>O</em>-di-Me ester;OMS 217;<em>O</em>-(3-Chloro-4-nitrophenyl) <em>O</em>,<em>O</em>-dimethyl phosphorothioate;Chlorothion;Chlorthion;Compound 22/190;<em>O</em>,<em>O</em>-Dimethyl <em>O</em>-3-chloro-4-nitrophenyl phosphorothioate;<em>O</em>,<em>O</em>-Dimethyl <em>O</em>-(3-chloro-4-nitrophenyl) thiophosphate;Methylchlorothion;Chlorthion methyl;<em>O</em>,<em>O</em>-Dimethyl <em>O</em>-(3-chloro-4-nitrophenyl)thionophosphate;BAY 22190;NSC 8927",
    "duplicated_cas_no": "",
    "SMILES": "O(P(OC)(OC)=S)C1=CC(Cl)=C(N(=O)=O)C=C1",
    "meta_data": {
        "InChI": "InChI=1S/C8H9ClNO5PS/c1-13-16(17,14-2)15-6-3-4-8(10(11)12)7(9)5-6/h3-5H,1-2H3",
        "InChIKey": null,
        "Canonical SMILES": "O=N(=O)C1=CC=C(OP(=S)(OC)OC)C=C1Cl",
        "Molecular Formula": "C<sub>8</sub>H<sub>9</sub>ClNO<sub>5</sub>PS",
        "Molecular Mass": "297.65",
        "Boiling Point": "136 °C @ Press: 0.23 Torr",
        "Melting Point": "21 °C",
        "Density": "1.437 g/cm³ @ Temp: 20 °C"
    }
}