{
    "cas_no": "595-33-5",
    "key_name": "Megestrol acetate",
    "cn_name": "醋酸甲地孕酮;甲地孕酮醋酸酯;6-甲基-17alpha-羟基孕甾-4,6-二烯-3,20-二酮醋酸酯;",
    "alternate_name": "Pregna-4,6-diene-3,20-dione, 17-(acetyloxy)-6-methyl-;Pregna-4,6-diene-3,20-dione, 17-hydroxy-6-methyl-, acetate;17-(Acetyloxy)-6-methylpregna-4,6-diene-3,20-dione;BDH 1298;5071;SC 10363;17α-Acetoxy-6-dehydro-6-methylprogesterone;DMAP;17-Hydroxy-6-methylpregna-4,6-diene-3,20-dione acetate;Megestrol acetate;6-Methyl-6-dehydro-17α-acetoxyprogesterone;6-Methyl-17α-hydroxy-Δ<sup>6</sup>-progesterone acetate;17α-Acetoxy-6-methylpregna-4,6-diene-3,20-dione;6-Dehydro-6-methyl-17α-acetoxyprogesterone;6-Methyl-17α-acetoxy-4,6-pregnadiene-3,20-dione;17-Acetoxy-6-methylpregna-4,6-diene-3,20-dione;17α-Hydroxy-6-methylpregna-4,6-diene-3,20-dione acetate;6-Methyl-Δ<sup>4,6</sup>-pregnadien-17α-ol-3,20-dione acetate;Megace;Niagestin;Megestryl acetate;Magestin;Megeron;Ovarid;MGA;Megestin;Nia;Megestat;Maygace;Megestil;Ovaban;NSC 71423;Megalia;MeSH ID: D019290",
    "duplicated_cas_no": "",
    "SMILES": "O(C(C)=O)[C@@]1(C(C)=O)[C@]2(C)[C@@](CC1)([C@]3([C@](CC2)([C@]4(C)C(C(C)=C3)=CC(=O)CC4)[H])[H])[H]",
    "meta_data": {
        "InChI": "InChI=1S/C24H32O4/c1-14-12-18-19(22(4)9-6-17(27)13-21(14)22)7-10-23(5)20(18)8-11-24(23,15(2)25)28-16(3)26/h12-13,18-20H,6-11H2,1-5H3/t18-,19+,20+,22-,23+,24+/m1/s1",
        "InChIKey": null,
        "Canonical SMILES": "O=C(OC1(C(=O)C)CCC2C3C=C(C4=CC(=O)CCC4(C)C3CCC21C)C)C",
        "Molecular Formula": "C<sub>24</sub>H<sub>32</sub>O<sub>4</sub>",
        "Molecular Mass": "384.51",
        "Melting Point": "214 °C"
    }
}