{
    "cas_no": "832-01-9",
    "key_name": "Methyl 4-methoxycinnamate",
    "cn_name": "对甲氧基肉桂酸甲酯;",
    "alternate_name": "2-Propenoic acid, 3-(4-methoxyphenyl)-, methyl ester;Cinnamic acid, <em>p</em>-methoxy-, methyl ester;Methyl <em>p</em>-methoxycinnamate;Methyl 4-methoxycinnamate;Methyl 3-(4-methoxyphenyl)-2-propenoate;3-(4-Methoxyphenyl)-2-propenoic acid methyl ester;NSC 26461;Methyl 3-(4-methoxyphenyl)acrylate;Methyl 3-(4-methoxyphenyl)propenoate",
    "duplicated_cas_no": "",
    "SMILES": "C(=CC(OC)=O)C1=CC=C(OC)C=C1",
    "meta_data": {
        "InChI": "InChI=1S/C11H12O3/c1-13-10-6-3-9(4-7-10)5-8-11(12)14-2/h3-8H,1-2H3",
        "InChIKey": null,
        "Canonical SMILES": "O=C(OC)C=CC1=CC=C(OC)C=C1",
        "Molecular Formula": "C<sub>11</sub>H<sub>12</sub>O<sub>3</sub>",
        "Molecular Mass": "192.21",
        "Boiling Point": "110 °C @ Press: 0.01 Torr",
        "Melting Point": "89 °C"
    }
}