{
    "cas_no": "18406-41-2",
    "key_name": "1,2-Bis(trimethoxysilyl)ethane",
    "cn_name": "1,2-双三甲氧基硅基乙烷;",
    "alternate_name": "2,7-Dioxa-3,6-disilaoctane, 3,3,6,6-tetramethoxy-;1,4-Disilabutane, 1,1,1,4,4,4-hexamethoxy-;3,3,6,6-Tetramethoxy-2,7-dioxa-3,6-disilaoctane;1,2-Bis(trimethoxysilyl)ethane;1,2-Ethylenebis(trimethoxysilane);Ethylenebis[trimethoxysilane];XC 95A7405;26M;KBM 3026;LMD 26M;1,1,1,4,4,4-Hexamethoxy-1,4-disilabutane;1,2-Di(trimethoxysilyl) ethane;1,2-(Trimethoxysilyl)ethane",
    "duplicated_cas_no": "",
    "SMILES": "[Si](CC[Si](OC)(OC)OC)(OC)(OC)OC",
    "meta_data": {
        "InChI": "InChI=1S/C8H22O6Si2/c1-9-15(10-2,11-3)7-8-16(12-4,13-5)14-6/h7-8H2,1-6H3",
        "InChIKey": null,
        "Canonical SMILES": "O(C)[Si](OC)(OC)CC[Si](OC)(OC)OC",
        "Molecular Formula": "C<sub>8</sub>H<sub>22</sub>O<sub>6</sub>Si<sub>2</sub>",
        "Molecular Mass": "270.43",
        "Boiling Point": "103-104 °C @ Press: 5 Torr",
        "Density": "1.068 g/cm³"
    }
}