{
    "cas_no": "61478-26-0",
    "key_name": "1,1-Dimethylethyl (2<em>S</em>,4<em>R</em>)-4-hydroxy-2-(hydroxymethyl)-1-pyrrolidinecarboxylate",
    "cn_name": "Boc-反-4-羟基-L-脯氨酸醇;",
    "alternate_name": "1-Pyrrolidinecarboxylic acid, 4-hydroxy-2-(hydroxymethyl)-, 1,1-dimethylethyl ester, (2<em>S</em>,4<em>R</em>)-;1-Pyrrolidinecarboxylic acid, 4-hydroxy-2-(hydroxymethyl)-, 1,1-dimethylethyl ester, (2<em>S</em>-<em>trans</em>)-;1,1-Dimethylethyl (2<em>S</em>,4<em>R</em>)-4-hydroxy-2-(hydroxymethyl)-1-pyrrolidinecarboxylate;<em>tert</em>-Butyl (2S,4R)-4-hydroxy-2-hydroxymethylpyrrolidine-1-carboxylate;<em>tert</em>-Butyl (2<em>S</em>,4<em>R</em>)-4-hydroxy-2-(hydroxymethyl)pyrrolidine-1-carboxylate;<em>N</em>-Boc-<em>trans</em>-4-hydroxy-<span class=\"text-smallcaps\">L</span>-prolinol;(2<em>S</em>,4<em>R</em>)-<em>tert</em>-Butyl 4-hydroxy-2-(hydroxymethyl)pyrrolidine-1-carboxylate",
    "duplicated_cas_no": "",
    "SMILES": "C(OC(C)(C)C)(=O)N1[C@H](CO)C[C@@H](O)C1",
    "meta_data": {
        "InChI": "InChI=1S/C10H19NO4/c1-10(2,3)15-9(14)11-5-8(13)4-7(11)6-12/h7-8,12-13H,4-6H2,1-3H3/t7-,8+/m0/s1",
        "InChIKey": null,
        "Canonical SMILES": "O=C(OC(C)(C)C)N1CC(O)CC1CO",
        "Molecular Formula": "C<sub>10</sub>H<sub>19</sub>NO<sub>4</sub>",
        "Molecular Mass": "217.26",
        "Melting Point": "53-55 °C"
    }
}