{
    "cas_no": "40000-20-2",
    "key_name": "5-Bromo-1,10-phenanthroline",
    "cn_name": null,
    "alternate_name": "1,10-Phenanthroline, 5-bromo-;5-Bromo-1,10-phenanthroline",
    "duplicated_cas_no": "",
    "SMILES": "BrC1=C2C(=C3C(=C1)C=CC=N3)N=CC=C2",
    "meta_data": {
        "InChI": "InChI=1S/C12H7BrN2/c13-10-7-8-3-1-5-14-11(8)12-9(10)4-2-6-15-12/h1-7H",
        "InChIKey": null,
        "Canonical SMILES": "BrC1=CC2=CC=CN=C2C=3N=CC=CC13",
        "Molecular Formula": "C<sub>12</sub>H<sub>7</sub>BrN<sub>2</sub>",
        "Molecular Mass": "259.10",
        "Melting Point": "110 °C"
    }
}