{
    "cas_no": "4792-58-9",
    "key_name": "Ethyl 5-methoxy-1<em>H</em>-indole-2-carboxylate",
    "cn_name": "5-甲氧基吲哚-2-甲酸乙酯;5-甲氧基吲哚-2-甲酸乙酯;",
    "alternate_name": "1<em>H</em>-Indole-2-carboxylic acid, 5-methoxy-, ethyl ester;Indole-2-carboxylic acid, 5-methoxy-, ethyl ester;Ethyl 5-methoxy-1<em>H</em>-indole-2-carboxylate;Ethyl 5-methoxyindole-2-carboxylate;5-Methoxyindole-2-carboxylic acid ethyl ester;2-Carbethoxy-5-methoxyindole;5-Methoxy-2-carbethoxyindole;2-Ethoxycarbonyl-5-methoxyindole;NSC 30929;Ethyl 5-methoxy-2,3-1<em>H</em>-indole-2-carboxylate",
    "duplicated_cas_no": "",
    "SMILES": "C(OCC)(=O)C1=CC=2C(N1)=CC=C(OC)C2",
    "meta_data": {
        "InChI": "InChI=1S/C12H13NO3/c1-3-16-12(14)11-7-8-6-9(15-2)4-5-10(8)13-11/h4-7,13H,3H2,1-2H3",
        "InChIKey": null,
        "Canonical SMILES": "O=C(OCC)C1=CC=2C=C(OC)C=CC2N1",
        "Molecular Formula": "C<sub>12</sub>H<sub>13</sub>NO<sub>3</sub>",
        "Molecular Mass": "219.24",
        "Melting Point": "156 °C"
    }
}