{
    "cas_no": "112887-68-0",
    "key_name": "Raltitrexed",
    "cn_name": "雷替曲塞;",
    "alternate_name": "<span class=\"text-smallcaps\">L</span>-Glutamic acid, <em>N</em>-[[5-[[(3,4-dihydro-2-methyl-4-oxo-6-quinazolinyl)methyl]methylamino]-2-thienyl]carbonyl]-;<span class=\"text-smallcaps\">L</span>-Glutamic acid, <em>N</em>-[[5-[[(1,4-dihydro-2-methyl-4-oxo-6-quinazolinyl)methyl]methylamino]-2-thienyl]carbonyl]-;<em>N</em>-[[5-[[(3,4-Dihydro-2-methyl-4-oxo-6-quinazolinyl)methyl]methylamino]-2-thienyl]carbonyl]-<span class=\"text-smallcaps\">L</span>-glutamic acid;ICI-D 1694;D 1694;ZD 1694;Tomudex;Raltitrexed;TDX",
    "duplicated_cas_no": "",
    "SMILES": "O=C1C=2C(=CC=C(CN(C)C=3SC(C(N[C@@H](CCC(O)=O)C(O)=O)=O)=CC3)C2)NC(C)=N1",
    "meta_data": {
        "InChI": "InChI=1S/C21H22N4O6S/c1-11-22-14-4-3-12(9-13(14)19(28)23-11)10-25(2)17-7-6-16(32-17)20(29)24-15(21(30)31)5-8-18(26)27/h3-4,6-7,9,15H,5,8,10H2,1-2H3,(H,24,29)(H,26,27)(H,30,31)(H,22,23,28)/t15-/m0/s1",
        "InChIKey": null,
        "Canonical SMILES": "O=C1N=C(NC2=CC=C(C=C12)CN(C=3SC(=CC3)C(=O)NC(C(=O)O)CCC(=O)O)C)C",
        "Molecular Formula": "C<sub>21</sub>H<sub>22</sub>N<sub>4</sub>O<sub>6</sub>S",
        "Molecular Mass": "458.49",
        "Melting Point": "180-184 °C"
    }
}