{
    "cas_no": "521-10-8",
    "key_name": "Methandriol",
    "cn_name": "美雄醇;甲基雄烯二醇;17a-甲基雄甾-5-烯-3b,17b-二醇;",
    "alternate_name": "Androst-5-ene-3,17-diol, 17-methyl-, (3β,17β)-;Androst-5-ene-3β,17β-diol, 17-methyl-;(3β,17β)-17-Methylandrost-5-ene-3,17-diol;Androdiol;Androteston-M;Diolandrone;Diolostene;Esjaydiol;MAD;Masdiol;Mestenediol;Metandiol;Metendiol;Methanabol;Methandriol;Methandrolan;Methostan;17α-Methyl-5-androstene-3β,17β-diol;Metidione;Metildiolo;Metocryst;Nabadial;Neosteron;Neutrormone;Neutrosteron;Notandron;Notandron-depot;Protandren;Stenediol;Stenibell;Madiol;17-Methylandrost-5-ene-3β,17β-diol;Methylandrostenediol;Neostene;Methandiol;Megabion;Androtestone-M;17α-Methyl-17β-hydroxy-5-androsten-3β-ol;3β,17β-Dihydroxy-17-methylandrost-5-ene;Metandriol;Crestabolic;Stenosterone;Testodiol;Troformone;17α-Methylandrost-5-ene-3β,17-diol;NSC 22366;17α-Androstenediol;MeSH ID: D008695",
    "duplicated_cas_no": "",
    "SMILES": "C[C@@]12[C@@]3([C@]([C@]4([C@](C)(CC3)[C@@](C)(O)CC4)[H])(CC=C1C[C@@H](O)CC2)[H])[H]",
    "meta_data": {
        "InChI": "InChI=1S/C20H32O2/c1-18-9-6-14(21)12-13(18)4-5-15-16(18)7-10-19(2)17(15)8-11-20(19,3)22/h4,14-17,21-22H,5-12H2,1-3H3/t14-,15+,16-,17-,18-,19-,20-/m0/s1",
        "InChIKey": null,
        "Canonical SMILES": "OC1CC2=CCC3C(CCC4(C)C3CCC4(O)C)C2(C)CC1",
        "Molecular Formula": "C<sub>20</sub>H<sub>32</sub>O<sub>2</sub>",
        "Molecular Mass": "304.47",
        "Melting Point": "206 °C"
    }
}