{
    "cas_no": "39101-54-7",
    "key_name": "3,5-Dimethylbenzeneacetonitrile",
    "cn_name": "3,5-二甲基苯乙腈;3,5-二甲基氰苄;",
    "alternate_name": "Benzeneacetonitrile, 3,5-dimethyl-;Acetonitrile, (3,5-xylyl)-;3,5-Dimethylbenzeneacetonitrile;(3,5-Dimethylphenyl)acetonitrile;3,5-Dimethylbenzyl cyanide;2-(3,5-Dimethylphenyl)acetonitrile;1-Cyanomethyl-3,5-dimethylbenzene",
    "duplicated_cas_no": "",
    "SMILES": "C(C#N)C1=CC(C)=CC(C)=C1",
    "meta_data": {
        "InChI": "InChI=1S/C10H11N/c1-8-5-9(2)7-10(6-8)3-4-11/h5-7H,3H2,1-2H3",
        "InChIKey": null,
        "Canonical SMILES": "N#CCC=1C=C(C=C(C1)C)C",
        "Molecular Formula": "C<sub>10</sub>H<sub>11</sub>N",
        "Molecular Mass": "145.20",
        "Boiling Point": "132 °C",
        "Melting Point": "45 °C"
    }
}