{
    "cas_no": "477-84-9",
    "key_name": "Damnacanthal",
    "cn_name": "丹宁卡;",
    "alternate_name": "2-Anthracenecarboxaldehyde, 9,10-dihydro-3-hydroxy-1-methoxy-9,10-dioxo-;2-Anthraldehyde, 9,10-dihydro-3-hydroxy-1-methoxy-9,10-dioxo-;2-Anthraquinonecarboxaldehyde, 3-hydroxy-1-methoxy-;9,10-Dihydro-3-hydroxy-1-methoxy-9,10-dioxo-2-anthracenecarboxaldehyde;Damnacanthal",
    "duplicated_cas_no": "156367-29-2",
    "SMILES": "O(C)C1=C2C(C(=O)C=3C(C2=O)=CC=CC3)=CC(O)=C1C=O",
    "meta_data": {
        "InChI": "InChI=1S/C16H10O5/c1-21-16-11(7-17)12(18)6-10-13(16)15(20)9-5-3-2-4-8(9)14(10)19/h2-7,18H,1H3",
        "InChIKey": null,
        "Canonical SMILES": "O=CC1=C(O)C=C2C(=O)C=3C=CC=CC3C(=O)C2=C1OC",
        "Molecular Formula": "C<sub>16</sub>H<sub>10</sub>O<sub>5</sub>",
        "Molecular Mass": "282.25",
        "Melting Point": "208 °C"
    }
}