{
    "cas_no": "2816-24-2",
    "key_name": "2-Nitrophenyl β-<span class=\"text-smallcaps\">D</span>-glucopyranoside",
    "cn_name": null,
    "alternate_name": "β-<span class=\"text-smallcaps\">D</span>-Glucopyranoside, 2-nitrophenyl;Glucopyranoside, <em>o</em>-nitrophenyl, β-<span class=\"text-smallcaps\">D</span>-;2-Nitrophenyl β-<span class=\"text-smallcaps\">D</span>-glucopyranoside;<em>o</em>-Nitrophenyl β-glucoside;<em>o</em>-Nitrophenyl β-<span class=\"text-smallcaps\">D</span>-glucopyranoside;2-Nitrophenyl β-<span class=\"text-smallcaps\">D</span>-glucoside;<em>o</em>-Nitrophenyl β-<span class=\"text-smallcaps\">D</span>-glucoside;NSC 1947",
    "duplicated_cas_no": "96844-02-9",
    "SMILES": "O([C@@H]1O[C@H](CO)[C@@H](O)[C@H](O)[C@H]1O)C2=C(N(=O)=O)C=CC=C2",
    "meta_data": {
        "InChI": "InChI=1S/C12H15NO8/c14-5-8-9(15)10(16)11(17)12(21-8)20-7-4-2-1-3-6(7)13(18)19/h1-4,8-12,14-17H,5H2/t8-,9-,10+,11-,12-/m1/s1",
        "InChIKey": null,
        "Canonical SMILES": "O=N(=O)C=1C=CC=CC1OC2OC(CO)C(O)C(O)C2O",
        "Molecular Formula": "C<sub>12</sub>H<sub>15</sub>NO<sub>8</sub>",
        "Molecular Mass": "301.25",
        "Melting Point": "140-141 °C"
    }
}