{
    "cas_no": "2016-88-8",
    "key_name": "Amiloride hydrochloride",
    "cn_name": "盐酸阿米洛利;N-脒基-3,5-二氨基-6-氯吡嗪甲酰胺盐酸盐;",
    "alternate_name": "2-Pyrazinecarboxamide, 3,5-diamino-<em>N</em>-(aminoiminomethyl)-6-chloro-, hydrochloride (1:1);Pyrazinecarboxamide, <em>N</em>-amidino-3,5-diamino-6-chloro-, monohydrochloride;Pyrazinecarboxamide, 3,5-diamino-<em>N</em>-(aminoiminomethyl)-6-chloro-, monohydrochloride;<em>N</em>-Amidino-3,5-diamino-6-chloropyrazinamide hydrochloride;<em>N</em>-Amidino-3,5-diamino-6-chloropyrazinecarboxamide hydrochloride;Amiloride hydrochloride;Amipramizide;Colectril;Amiprazide;Nilurid;Amilorid hydrochloride;Amipramidine;Guanamprazine hydrochloride;Midamor;MK-870 hydrochloride;1-(3,5-Diamino-6-chloropyrazinecarboxyl)guanidine hydrochloride",
    "duplicated_cas_no": "",
    "SMILES": "C(NC(=N)N)(=O)C=1C(N)=NC(N)=C(Cl)N1.Cl",
    "meta_data": {
        "InChI": "InChI=1S/C6H8ClN7O.ClH/c7-2-4(9)13-3(8)1(12-2)5(15)14-6(10)11;/h(H4,8,9,13)(H4,10,11,14,15);1H",
        "InChIKey": null,
        "Canonical SMILES": "Cl.O=C(NC(=N)N)C1=NC(Cl)=C(N=C1N)N",
        "Molecular Formula": "C<sub>6</sub>H<sub>8</sub>ClN<sub>7</sub>O.ClH",
        "Molecular Mass": "",
        "Melting Point": "293.5 °C"
    }
}