{
    "cas_no": "15813-09-9",
    "key_name": "4,5-Diiodo-1<em>H</em>-imidazole",
    "cn_name": "4,5-二碘-1H-咪唑;",
    "alternate_name": "1<em>H</em>-Imidazole, 4,5-diiodo-;Imidazole, 4,5-diiodo-;4,5-Diiodo-1<em>H</em>-imidazole;4,5-Diiodoimidazole",
    "duplicated_cas_no": "",
    "SMILES": "IC1=C(I)N=CN1",
    "meta_data": {
        "InChI": "InChI=1S/C3H2I2N2/c4-2-3(5)7-1-6-2/h1H,(H,6,7)",
        "InChIKey": null,
        "Canonical SMILES": "IC=1N=CNC1I",
        "Molecular Formula": "C<sub>3</sub>H<sub>2</sub>I<sub>2</sub>N<sub>2</sub>",
        "Molecular Mass": "319.87",
        "Melting Point": "182 °C"
    }
}