{
    "cas_no": "115-02-6",
    "key_name": "Azaserine",
    "cn_name": "重氮丝氨酸;偶氮丝胺酸;",
    "alternate_name": "<span class=\"text-smallcaps\">L</span>-Serine, <em>O</em>-(2-diazoacetyl)-;Serine, diazoacetate (ester), <span class=\"text-smallcaps\">L</span>-;<span class=\"text-smallcaps\">L</span>-Serine, diazoacetate (ester);<em>O</em>-(2-Diazoacetyl)-<span class=\"text-smallcaps\">L</span>-serine;Azaserine;<em>O</em>-Diazoacetyl-<span class=\"text-smallcaps\">L</span>-serine;<span class=\"text-smallcaps\">L</span>-Azaserine;Azaserin;CN 15757;CI 337;P 165;NSC 742;(<em>S</em>)-2-Amino-3-(2-diazoacetoxy)propanoic acid;(2S)-2-Amino-3-[(2-diazoacetyl)oxy]propanoic acid;MeSH ID: D001377",
    "duplicated_cas_no": "438493-22-2",
    "SMILES": "O(C[C@@H](C(O)=O)N)C(C=[N+]=[N-])=O",
    "meta_data": {
        "InChI": "InChI=1S/C5H7N3O4/c6-3(5(10)11)2-12-4(9)1-8-7/h1,3H,2,6H2,(H,10,11)/t3-/m0/s1",
        "InChIKey": null,
        "Canonical SMILES": "[N-]=[N+]=CC(=O)OCC(N)C(=O)O",
        "Molecular Formula": "C<sub>5</sub>H<sub>7</sub>N<sub>3</sub>O<sub>4</sub>",
        "Molecular Mass": "",
        "Melting Point": "154 °C"
    }
}