{
    "cas_no": "87205-99-0",
    "key_name": "Dihydrotanshinone I",
    "cn_name": null,
    "alternate_name": "Phenanthro[1,2-<em>b</em>]furan-10,11-dione, 1,2-dihydro-1,6-dimethyl-, (1<em>R</em>)-;(1<em>R</em>)-1,2-Dihydro-1,6-dimethylphenanthro[1,2-<em>b</em>]furan-10,11-dione;(-)-Dihydrotanshinone I;Tanshinone I, dihydro-;Dihydrotanshinone I;15,16-Dihydrotanshinone I;(1R)-1,6-Dimethyl-1,2-dihydronaphtho[1,2-<em>g</em>][1]benzofuran-10,11-dione",
    "duplicated_cas_no": "",
    "SMILES": "O=C1C=2C(C3=C(C1=O)[C@@H](C)CO3)=CC=C4C2C=CC=C4C",
    "meta_data": {
        "InChI": "InChI=1S/C18H14O3/c1-9-4-3-5-12-11(9)6-7-13-15(12)17(20)16(19)14-10(2)8-21-18(13)14/h3-7,10H,8H2,1-2H3/t10-/m0/s1",
        "InChIKey": null,
        "Canonical SMILES": "O=C1C(=O)C2=C(OCC2C)C=3C=CC4=C(C=CC=C4C)C13",
        "Molecular Formula": "C<sub>18</sub>H<sub>14</sub>O<sub>3</sub>",
        "Molecular Mass": "278.30",
        "Melting Point": "201-203 °C"
    }
}