{
    "cas_no": "758-16-7",
    "key_name": "<em>N</em>,<em>N</em>-Dimethylthioformamide",
    "cn_name": "N,N-二甲基硫代甲酰胺;N,N-二甲基硫代甲酰胺;",
    "alternate_name": "Methanethioamide, <em>N</em>,<em>N</em>-dimethyl-;Formamide, <em>N</em>,<em>N</em>-dimethylthio-;<em>N</em>,<em>N</em>-Dimethylmethanethioamide;Dimethylthioformamide;<em>N</em>,<em>N</em>-Dimethylthioformamide;NSC 402082",
    "duplicated_cas_no": "",
    "SMILES": "N(C=S)(C)C",
    "meta_data": {
        "InChI": "InChI=1S/C3H7NS/c1-4(2)3-5/h3H,1-2H3",
        "InChIKey": null,
        "Canonical SMILES": "S=CN(C)C",
        "Molecular Formula": "C<sub>3</sub>H<sub>7</sub>NS",
        "Molecular Mass": "89.16",
        "Boiling Point": "227-228 °C",
        "Density": "1.047 g/cm³ @ Temp: 0 °C"
    }
}