{
    "cas_no": "13512-31-7",
    "key_name": "<em>N</em>-[(Phenylmethoxy)carbonyl]-<span class=\"text-smallcaps\">L</span>-tyrosine methyl ester",
    "cn_name": "Z-L-酪氨酸甲酯;Z-L-酪氨酸甲酯;",
    "alternate_name": "<span class=\"text-smallcaps\">L</span>-Tyrosine, <em>N</em>-[(phenylmethoxy)carbonyl]-, methyl ester;Tyrosine, <em>N</em>-carboxy-, <em>N</em>-benzyl methyl ester, <span class=\"text-smallcaps\">L</span>-;<em>N</em>-[(Phenylmethoxy)carbonyl]-<span class=\"text-smallcaps\">L</span>-tyrosine methyl ester;<em>N</em>-(Benzyloxycarbonyl)-<span class=\"text-smallcaps\">L</span>-tyrosine methyl ester;<em>N</em>-Carbobenzoxy-<span class=\"text-smallcaps\">L</span>-tyrosine methyl ester;<em>N</em>-(Benzyloxycarbonyl)tyrosine methyl ester;<em>N</em>-Cbz-<span class=\"text-smallcaps\">L</span>-tyrosine methyl ester",
    "duplicated_cas_no": "",
    "SMILES": "C([C@H](NC(OCC1=CC=CC=C1)=O)C(OC)=O)C2=CC=C(O)C=C2",
    "meta_data": {
        "InChI": "InChI=1S/C18H19NO5/c1-23-17(21)16(11-13-7-9-15(20)10-8-13)19-18(22)24-12-14-5-3-2-4-6-14/h2-10,16,20H,11-12H2,1H3,(H,19,22)/t16-/m0/s1",
        "InChIKey": null,
        "Canonical SMILES": "O=C(OCC=1C=CC=CC1)NC(C(=O)OC)CC2=CC=C(O)C=C2",
        "Molecular Formula": "C<sub>18</sub>H<sub>19</sub>NO<sub>5</sub>",
        "Molecular Mass": "329.35",
        "Melting Point": "92-93 °C"
    }
}