{
    "cas_no": "14691-89-5",
    "key_name": "4-Acetamido-TEMPO",
    "cn_name": null,
    "alternate_name": "1-Piperidinyloxy, 4-(acetylamino)-2,2,6,6-tetramethyl-;Piperidinooxy, 4-acetamido-2,2,6,6-tetramethyl-;4-(Acetylamino)-2,2,6,6-tetramethyl-1-piperidinyloxy;4-Acetamido-2,2,6,6-tetramethylpiperidinooxy;2,2,6,6-Tetramethyl-4-acetamidopiperidin-1-oxyl;4-Acetamido-2,2,6,6-tetramethyl-1-piperidinyloxy;2,2,6,6-Tetramethyl-4-acetylaminopiperidin-1-oxyl;4-(Acetylamino)-2,2,6,6-tetramethylpiperidin-1-yloxyl;4-Acetamido-2,2,6,6-tetramethylpiperidin-1-oxyl;4-Acetylamino-2,2,6,6-tetramethylpiperidine <em>N</em>-oxyl;Tempace;4-Acetamido-2,2,6,6-tetramethylpiperidine-1-oxyl;4-Acetamido-TEMPO;4-Acetamino-2,2,6,6-tetramethylpiperidine-1-oxyl;4-Acetamide-2,2,6,6-tetramethyl-1-piperidin-yloxy;4-Acetoamido-2,2,6,6,-tetramethylpiperidine 1-oxyl;4-(Acetylamino)-2,2,6,6-tetramethylpiperidin-1-oxyl;1-Oxyl-2,2,6,6-tetramethyl-4-acetamidopiperidine;<em>N</em>-(1-Oxyl-2,2,6,6-tetramethylpiperidin-4-yl)acetamide;4-Acetamino-2,2,6,6-tetramethylpiperidinyloxy;4-Acetamino-2,2,6,6-tetramethylpiperidine-<em>N</em>-oxyl;4-Acetylamino-TEMPO;4-Acetamido-1-oxyl-2,2,6,6-tetramethylpiperidine;4-Acetamido-2,2,6,6-tetramethylpiperidin-1-oxy;4-N-Acetylamino-TEMPO;2,2,6,6-Tetramethyl-4-acetamidopiperidine-1-oxyl;4-Acetoamino(2,2,6,6-tetramethylpiperidin-1-yl)oxyl;Acetamido-TEMPO;Acetamide-TEMPO;ACT;4-Acetamido-4,4,5,5-tetramethylpiperidin-1-oxyl",
    "duplicated_cas_no": "201863-94-7;1031706-07-6",
    "SMILES": "",
    "meta_data": {
        "InChI": "",
        "InChIKey": null,
        "Canonical SMILES": "",
        "Molecular Formula": "C<sub>11</sub>H<sub>21</sub>N<sub>2</sub>O<sub>2</sub>",
        "Molecular Mass": "",
        "Melting Point": "144-146 °C"
    }
}