{
    "cas_no": "77284-64-1",
    "key_name": "2-[[(1,1-Dimethylethoxy)carbonyl]amino]butanoic acid",
    "cn_name": null,
    "alternate_name": "Butanoic acid, 2-[[(1,1-dimethylethoxy)carbonyl]amino]-;2-[[(1,1-Dimethylethoxy)carbonyl]amino]butanoic acid;2-<em>tert</em>-Butoxycarbonylaminobutyric acid;2-[[[(1,1-Dimethylethyl)oxy]carbonyl]amino]butanoic acid;<span class=\"text-smallcaps\">D</smallcap><smallcap>L</span>-Boc-Aminobutyric acid;2-[[(<em>tert</em>-Butoxy)carbonyl]amino]butanoic acid;2-[(2-Methylpropan-2-yl)oxycarbonylamino]butanoic acid;2-[(<em>tert</em>-Butoxycarbonyl)amino]butanoic acid",
    "duplicated_cas_no": "52881-98-8",
    "SMILES": "C(NC(OC(C)(C)C)=O)(C(O)=O)CC",
    "meta_data": {
        "InChI": "InChI=1S/C9H17NO4/c1-5-6(7(11)12)10-8(13)14-9(2,3)4/h6H,5H2,1-4H3,(H,10,13)(H,11,12)",
        "InChIKey": null,
        "Canonical SMILES": "O=C(OC(C)(C)C)NC(C(=O)O)CC",
        "Molecular Formula": "C<sub>9</sub>H<sub>17</sub>NO<sub>4</sub>",
        "Molecular Mass": "203.24",
        "Melting Point": "60-62 °C"
    }
}