{
    "cas_no": "1450-75-5",
    "key_name": "5′-Bromo-2′-hydroxyacetophenone",
    "cn_name": "5\"-溴-2\"-羟基苯乙酮;2-羟基-5-溴苯乙酮;",
    "alternate_name": "Ethanone, 1-(5-bromo-2-hydroxyphenyl)-;Acetophenone, 5′-bromo-2′-hydroxy-;1-(5-Bromo-2-hydroxyphenyl)ethanone;5′-Bromo-2′-hydroxyacetophenone;5-Bromo-2-hydroxyacetophenone;5′-Bromo-<em>o</em>-hydroxyacetophenone;2-Acetyl-4-bromophenol;2′-Hydroxy-5′-bromoacetophenone;3-Bromo-6-hydroxyphenyl methyl ketone;NSC 46621;1-(5-Bromo-2-hydroxyphenyl)ethan-1-one",
    "duplicated_cas_no": "",
    "SMILES": "C(C)(=O)C1=C(O)C=CC(Br)=C1",
    "meta_data": {
        "InChI": "InChI=1S/C8H7BrO2/c1-5(10)7-4-6(9)2-3-8(7)11/h2-4,11H,1H3",
        "InChIKey": null,
        "Canonical SMILES": "O=C(C1=CC(Br)=CC=C1O)C",
        "Molecular Formula": "C<sub>8</sub>H<sub>7</sub>BrO<sub>2</sub>",
        "Molecular Mass": "215.04",
        "Boiling Point": "135-143 °C @ Press: 16 Torr",
        "Melting Point": "56 °C"
    }
}