{
    "cas_no": "1562-95-4",
    "key_name": "Di-2-pyridinylmethanone oxime",
    "cn_name": "二(2-吡啶)酮肟;二吡啶酮肟;二-2-吡啶酮肟;",
    "alternate_name": "Methanone, di-2-pyridinyl-, oxime;2-Pyridyl ketone, oxime;Di-2-pyridinylmethanone oxime;2,2′-Dipyridyl ketoxime;Di-2-pyridyl ketone oxime;2,2′-Dipyridylketone oxime;Bis(2-pyridyl)ketone oxime;Di-2-pyridyl ketonoxime;NSC 155179;Di(pyridin-2-yl)methanone oxime",
    "duplicated_cas_no": "",
    "SMILES": "C(=NO)(C1=CC=CC=N1)C2=CC=CC=N2",
    "meta_data": {
        "InChI": "InChI=1S/C11H9N3O/c15-14-11(9-5-1-3-7-12-9)10-6-2-4-8-13-10/h1-8,15H",
        "InChIKey": null,
        "Canonical SMILES": "ON=C(C1=NC=CC=C1)C2=NC=CC=C2",
        "Molecular Formula": "C<sub>11</sub>H<sub>9</sub>N<sub>3</sub>O",
        "Molecular Mass": "199.21",
        "Melting Point": "104-106 °C"
    }
}