{
    "cas_no": "832-69-9",
    "key_name": "1-Methylphenanthrene",
    "cn_name": "1-甲基菲;1-甲基菲;",
    "alternate_name": "Phenanthrene, 1-methyl-;1-Methylphenanthrene;NSC 146583",
    "duplicated_cas_no": "",
    "SMILES": "CC=1C=2C(=C3C(=CC2)C=CC=C3)C=CC1",
    "meta_data": {
        "InChI": "InChI=1S/C15H12/c1-11-5-4-8-15-13(11)10-9-12-6-2-3-7-14(12)15/h2-10H,1H3",
        "InChIKey": null,
        "Canonical SMILES": "C=1C=CC2=C(C1)C=CC3=C2C=CC=C3C",
        "Molecular Formula": "C<sub>15</sub>H<sub>12</sub>",
        "Molecular Mass": "192.26",
        "Boiling Point": "354-355 °C",
        "Melting Point": "123 °C"
    }
}