{
    "cas_no": "598-14-1",
    "key_name": "<em>As</em>-Ethylarsonous dichloride",
    "cn_name": "乙基二氯胂;",
    "alternate_name": "Arsonous dichloride, <em>As</em>-ethyl-;Arsine, dichloroethyl-;Arsonous dichloride, ethyl-;<em>As</em>-Ethylarsonous dichloride;Ethyldichloroarsine;Arsenic dichloroethane;Dichloroethylarsine;Ethylarsonous dichloride",
    "duplicated_cas_no": "",
    "SMILES": "[As](CC)(Cl)Cl",
    "meta_data": {
        "InChI": "InChI=1S/C2H5AsCl2/c1-2-3(4)5/h2H2,1H3",
        "InChIKey": null,
        "Canonical SMILES": "Cl[As](Cl)CC",
        "Molecular Formula": "C<sub>2</sub>H<sub>5</sub>AsCl<sub>2</sub>",
        "Molecular Mass": "174.89",
        "Boiling Point": "74 °C @ Press: 50 Torr",
        "Melting Point": "-65 °C",
        "Density": "1.742 g/cm³ @ Temp: 14 °C"
    }
}