{
    "cas_no": "6265-73-2",
    "key_name": "<em>N</em>-(2-Hydroxyethyl)nicotinamide",
    "cn_name": "N-(2-羟乙基)烟酰胺;N-(2-羟乙基)烟酰胺；N-(2-羟乙基)-3-吡啶甲酰胺;",
    "alternate_name": "3-Pyridinecarboxamide, <em>N</em>-(2-hydroxyethyl)-;Nicotinamide, <em>N</em>-(2-hydroxyethyl)-;<em>N</em>-(2-Hydroxyethyl)-3-pyridinecarboxamide;<em>N</em>-(2-Hydroxyethyl)nicotinamide;<em>N</em>-Nicotinoylethanolamine;SG 86;3-(2-Hydroxyethyl)carbamoylpyridine;<em>N</em>-Nicotinoyl-2-aminoethanol;NSC 33142",
    "duplicated_cas_no": "",
    "SMILES": "C(NCCO)(=O)C=1C=CC=NC1",
    "meta_data": {
        "InChI": "InChI=1S/C8H10N2O2/c11-5-4-10-8(12)7-2-1-3-9-6-7/h1-3,6,11H,4-5H2,(H,10,12)",
        "InChIKey": null,
        "Canonical SMILES": "O=C(NCCO)C=1C=NC=CC1",
        "Molecular Formula": "C<sub>8</sub>H<sub>10</sub>N<sub>2</sub>O<sub>2</sub>",
        "Molecular Mass": "166.18",
        "Boiling Point": "185-195 °C @ Press: 0.4-0.6 Torr",
        "Melting Point": "92 °C"
    }
}