{
    "cas_no": "1695-77-8",
    "key_name": "Spectinomycin",
    "cn_name": "大观霉素;",
    "alternate_name": "4<em>H</em>-Pyrano[2,3-<em>b</em>][1,4]benzodioxin-4-one, decahydro-4a,7,9-trihydroxy-2-methyl-6,8-bis(methylamino)-, (2<em>R</em>,4a<em>R</em>,5a<em>R</em>,6<em>S</em>,7<em>S</em>,8<em>R</em>,9<em>S</em>,9a<em>R</em>,10a<em>S</em>)-;4<em>H</em>-Pyrano[2,3-<em>b</em>][1,4]benzodioxin-4-one, decahydro-4a,7,9-trihydroxy-2-methyl-6,8-bis(methylamino)-;4<em>H</em>-Pyrano[2,3-<em>b</em>][1,4]benzodioxin-4-one, decahydro-4a,7,9-trihydroxy-2-methyl-6,8-bis(methylamino)-, [2<em>R</em>-(2α,4aβ,5aβ,6β,7β,8β,9α,9aα,10aβ)]-;(2<em>R</em>,4a<em>R</em>,5a<em>R</em>,6<em>S</em>,7<em>S</em>,8<em>R</em>,9<em>S</em>,9a<em>R</em>,10a<em>S</em>)-Decahydro-4a,7,9-trihydroxy-2-methyl-6,8-bis(methylamino)-4<em>H</em>-pyrano[2,3-<em>b</em>][1,4]benzodioxin-4-one;Actinospectacin;Trobicin;Spectinomycin;Espectinomicina;M 141;U 18409E;Spectam;Togamycin;Antibiotic 2233wp;Spectacin;MeSH ID: D000198",
    "duplicated_cas_no": "1404-65-5;11002-81-6;23559-31-1;856611-91-1",
    "SMILES": "N(C)[C@@H]1[C@@]2([C@](O[C@]3([C@@](O)(O2)C(=O)C[C@@H](C)O3)[H])([C@@H](O)[C@H](NC)[C@@H]1O)[H])[H]",
    "meta_data": {
        "InChI": "InChI=1S/C14H24N2O7/c1-5-4-6(17)14(20)13(21-5)22-12-10(19)7(15-2)9(18)8(16-3)11(12)23-14/h5,7-13,15-16,18-20H,4H2,1-3H3/t5-,7-,8+,9+,10+,11-,12-,13+,14+/m1/s1",
        "InChIKey": null,
        "Canonical SMILES": "O=C1CC(OC2OC3C(O)C(NC)C(O)C(NC)C3OC12O)C",
        "Molecular Formula": "C<sub>14</sub>H<sub>24</sub>N<sub>2</sub>O<sub>7</sub>",
        "Molecular Mass": "332.35",
        "Melting Point": "185 °C (decomp)"
    }
}