{
    "cas_no": "13331-93-6",
    "key_name": "2,6-Dimethyl-4-nitrosophenol",
    "cn_name": "2,6-二甲基-4-亚硝基苯酚;",
    "alternate_name": "Phenol, 2,6-dimethyl-4-nitroso-;2,6-Xylenol, 4-nitroso-;2,6-Dimethyl-4-nitrosophenol;2,6-Dimethyl-<em>p</em>-nitrosophenol;4-Nitroso-2,6-xylenol;NSC 677516;NSC 73813",
    "duplicated_cas_no": "",
    "SMILES": "N(=O)C1=CC(C)=C(O)C(C)=C1",
    "meta_data": {
        "InChI": "InChI=1S/C8H9NO2/c1-5-3-7(9-11)4-6(2)8(5)10/h3-4,10H,1-2H3",
        "InChIKey": null,
        "Canonical SMILES": "O=NC=1C=C(C(O)=C(C1)C)C",
        "Molecular Formula": "C<sub>8</sub>H<sub>9</sub>NO<sub>2</sub>",
        "Molecular Mass": "151.16",
        "Melting Point": "170-171 °C"
    }
}