{
    "cas_no": "32453-36-4",
    "key_name": "Quercetin 3-<em>O</em>-neohesperidoside",
    "cn_name": null,
    "alternate_name": "4<em>H</em>-1-Benzopyran-4-one, 3-[[2-<em>O</em>-(6-deoxy-α-<span class=\"text-smallcaps\">L</smallcap>-mannopyranosyl)-β-<smallcap>D</span>-glucopyranosyl]oxy]-2-(3,4-dihydroxyphenyl)-5,7-dihydroxy-;Flavone, 3,3′,4′,5,7-pentahydroxy-, 3-[2-<em>O</em>-(6-deoxy-α-<span class=\"text-smallcaps\">L</smallcap>-mannopyranosyl)-β-<smallcap>D</span>-glucopyranoside];3-[[2-<em>O</em>-(6-Deoxy-α-<span class=\"text-smallcaps\">L</smallcap>-mannopyranosyl)-β-<smallcap>D</span>-glucopyranosyl]oxy]-2-(3,4-dihydroxyphenyl)-5,7-dihydroxy-4<em>H</em>-1-benzopyran-4-one;Quercetin 3-neohesperidoside;Q 7;Quercetin 3-<em>O</em>-neohesperidoside;Calendoflavobioside;Quercetin 3-<em>O</em>-β-neohesperidoside;Quercetin 3-<em>O</em>-neohesperidin",
    "duplicated_cas_no": "55696-54-3;93125-99-6;847996-84-3;1007090-26-7",
    "SMILES": "O(C1=C(OC=2C(C1=O)=C(O)C=C(O)C2)C3=CC(O)=C(O)C=C3)[C@H]4[C@H](O[C@H]5[C@H](O)[C@H](O)[C@@H](O)[C@H](C)O5)[C@@H](O)[C@H](O)[C@@H](CO)O4",
    "meta_data": {
        "InChI": "InChI=1S/C27H30O16/c1-8-17(33)20(36)22(38)26(39-8)43-25-21(37)18(34)15(7-28)41-27(25)42-24-19(35)16-13(32)5-10(29)6-14(16)40-23(24)9-2-3-11(30)12(31)4-9/h2-6,8,15,17-18,20-22,25-34,36-38H,7H2,1H3/t8-,15+,17-,18+,20+,21-,22+,25+,26-,27-/m0/s1",
        "InChIKey": null,
        "Canonical SMILES": "O=C1C(OC2OC(CO)C(O)C(O)C2OC3OC(C)C(O)C(O)C3O)=C(OC=4C=C(O)C=C(O)C14)C=5C=CC(O)=C(O)C5",
        "Molecular Formula": "C<sub>27</sub>H<sub>30</sub>O<sub>16</sub>",
        "Molecular Mass": "610.52",
        "Melting Point": "216-220 °C"
    }
}