{
    "cas_no": "6099-04-3",
    "key_name": "3-Methoxycinnamic acid",
    "cn_name": "3-甲氧基肉桂酸;",
    "alternate_name": "2-Propenoic acid, 3-(3-methoxyphenyl)-;Cinnamic acid, <em>m</em>-methoxy-;3-(3-Methoxyphenyl)-2-propenoic acid;<em>m</em>-Methoxycinnamic acid;3-Methoxycinnamic acid;3-(3-Methoxyphenyl)acrylic acid;NSC 5234",
    "duplicated_cas_no": "",
    "SMILES": "C(=CC(O)=O)C1=CC(OC)=CC=C1",
    "meta_data": {
        "InChI": "InChI=1S/C10H10O3/c1-13-9-4-2-3-8(7-9)5-6-10(11)12/h2-7H,1H3,(H,11,12)",
        "InChIKey": null,
        "Canonical SMILES": "O=C(O)C=CC=1C=CC=C(OC)C1",
        "Molecular Formula": "C<sub>10</sub>H<sub>10</sub>O<sub>3</sub>",
        "Molecular Mass": "178.18",
        "Melting Point": "100 °C"
    }
}