{
    "cas_no": "1317-33-5",
    "key_name": "Molybdenum disulfide",
    "cn_name": null,
    "alternate_name": "Molybdenum sulfide (MoS<sub>2</sub>);Molybdenum disulfide;Molybdenum(IV) sulfide;Molybdenum disulfide (MoS<sub>2</sub>);DAG 325;Molykote;Mopol S;Mopol M;DAG-V 657;Motimol;DAG 206;Molysulfide;Liqui-Moly LM 2;DM 1;MD 40 (lubricant);MD 40;Moly Powder C;Molybdenum sulfide;Moly Powder PA;Moly Powder B;Liqui-Moly LM 11;Moly Powder PS;Molybdenum bisulfide;Moly Powder PB;C.I. Pigment Black 34;C.I. 77770;Pigment Black 34;Sumipowder PA;Molykote Z;LM 13;LM 13 (lubricant);DM 1 (sulfide);Solvest 390A;Nichimoly C;T-Powder;Molycolloid CF 626;Molykote Microsize Powder;Molyka R;M 5;M 5 (lubricant);PA Powder;Powder PA;A Powder;Moly Fine Powder Y;NeoZ;Molyka R-L 3;Molybdenum sulphide (MoS<sub>2</sub>);UP 10;UP 50;Molyform 15;MVCh 1;Defric coat HMB 2;C-Powder;DMI 7;OKS 110;Molykote Z Powder;Liqui-Moly Z Powder;MIPO-M 15;MF 000;RAC 01;M 5 Powder;ZBM 52-999;McLube MoS<sub>2</sub> 98;McLube MoS<sub>2</sub> 100;McLube MoS<sub>2</sub> 99;ZWEZ-Lube MD 210;L-GPM 210;XT 0808-2-2;XF 184-1;XF 209;Liqui-Moly LM 12;ZBY 801;HD 7352;XT 0805-3-1;LM 12;OKS 100;R 11 (fireproofing agent);R 11;BSM 10J;MF 0",
    "duplicated_cas_no": "37297-03-3;56780-54-2;1338709-82-2",
    "SMILES": "[Mo](=S)=S",
    "meta_data": {
        "InChI": "InChI=1S/Mo.2S",
        "InChIKey": null,
        "Canonical SMILES": "S=[Mo]=S",
        "Molecular Formula": "MoS<sub>2</sub>",
        "Molecular Mass": "",
        "Melting Point": "2375 °C",
        "Density": "5.06 g/cm³ @ Temp: 15 °C"
    }
}