{
    "cas_no": "458-46-8",
    "key_name": "3-(3-Fluorophenyl)-2-propenoic acid",
    "cn_name": "3-氟肉桂酸;",
    "alternate_name": "2-Propenoic acid, 3-(3-fluorophenyl)-;Cinnamic acid, <em>m</em>-fluoro-;3-(3-Fluorophenyl)-2-propenoic acid;3-Fluorocinnamic acid;3-(3-Fluorophenyl)propenoic acid;NSC 73988",
    "duplicated_cas_no": "",
    "SMILES": "C(=CC(O)=O)C1=CC(F)=CC=C1",
    "meta_data": {
        "InChI": "InChI=1S/C9H7FO2/c10-8-3-1-2-7(6-8)4-5-9(11)12/h1-6H,(H,11,12)",
        "InChIKey": null,
        "Canonical SMILES": "O=C(O)C=CC=1C=CC=C(F)C1",
        "Molecular Formula": "C<sub>9</sub>H<sub>7</sub>FO<sub>2</sub>",
        "Molecular Mass": "166.15",
        "Melting Point": "166.5 °C"
    }
}