{
    "cas_no": "98169-85-8",
    "key_name": "6-Deoxy-6-azido-β-cyclodextrin",
    "cn_name": null,
    "alternate_name": "β-Cyclodextrin, 6<sup>A</sup>-azido-6<sup>A</sup>-deoxy-;2,4,7,9,12,14,17,19,22,24,27,29,32,34-Tetradecaoxaoctacyclo[31.2.2.2<sup>3,6</sup>.2<sup>8,11</sup>.2<sup>13,16</sup>.2<sup>18,21</sup>.2<sup>23,26</sup>.2<sup>28,31</sup>]nonatetracontane, β-cyclodextrin deriv.;6<sup>A</sup>-Azido-6<sup>A</sup>-deoxy-β-cyclodextrin;6-Azido-6-deoxycyclomaltoheptaose;6-Deoxy-6-azido-β-cyclodextrin;Mono-6-deoxy-6-azido-β-cyclodextrin;6-Monoazido-β-cyclodextrin;Mono(6-azido-6-desoxy)-β-cyclodextrin;6-Monoazido-6-deoxy-β-cyclodextrin;Mono-6<sup>A</sup>-azido-β-cyclodextrin;6-Monoazido-6-monodeoxy-β-cyclodextrin",
    "duplicated_cas_no": "150507-45-2;1884297-88-4",
    "SMILES": "C(N=[N+]=[N-])[C@@H]1[C@]2(O[C@]3(O[C@H](CO)[C@]([C@H](O)[C@H]3O)(O[C@]4(O[C@H](CO)[C@]([C@H](O)[C@H]4O)(O[C@]5(O[C@H](CO)[C@]([C@H](O)[C@H]5O)(O[C@]6(O[C@H](CO)[C@@](O[C@]7(O[C@H](CO)[C@@](O[C@]8(O[C@H](CO)[C@@](O[C@@](O1)(C(O)[C@H]2O)[H])([C@H](O)[C@H]8O)[H])[H])([C@H](O)C7O)[H])[H])([C@H](O)C6O)[H])[H])[H])[H])[H])[H])[H])[H])[H]",
    "meta_data": {
        "InChI": "InChI=1S/C42H69N3O34/c43-45-44-1-8-29-15(52)22(59)36(66-8)74-30-9(2-46)68-38(24(61)17(30)54)76-32-11(4-48)70-40(26(63)19(32)56)78-34-13(6-50)72-42(28(65)21(34)58)79-35-14(7-51)71-41(27(64)20(35)57)77-33-12(5-49)69-39(25(62)18(33)55)75-31-10(3-47)67-37(73-29)23(60)16(31)53/h8-42,46-65H,1-7H2/t8-,9-,10-,11-,12-,13-,14-,15-,16-,17-,18-,19-,20-,21-,22?,23-,24-,25-,26?,27-,28?,29-,30-,31-,32-,33-,34-,35-,36-,37-,38-,39-,40-,41-,42-/m1/s1",
        "InChIKey": null,
        "Canonical SMILES": "[N-]=[N+]=NCC1OC2OC3C(O)C(O)C(OC3CO)OC4C(O)C(O)C(OC4CO)OC5C(O)C(O)C(OC5CO)OC6C(O)C(O)C(OC6CO)OC7C(O)C(O)C(OC7CO)OC8C(O)C(O)C(OC8CO)OC1C(O)C2O",
        "Molecular Formula": "C<sub>42</sub>H<sub>69</sub>N<sub>3</sub>O<sub>34</sub>",
        "Molecular Mass": "",
        "Melting Point": "205 °C (decomp)"
    }
}