{
    "cas_no": "82-98-4",
    "key_name": "Piperidolate",
    "cn_name": "哌立度酯;",
    "alternate_name": "Benzeneacetic acid, α-phenyl-, 1-ethyl-3-piperidinyl ester;Acetic acid, diphenyl-, 1-ethyl-3-piperidyl ester;3-Piperidinol, 1-ethyl-, diphenylacetate (ester);JB 305;1087 A.N.;<em>N</em>-Ethyl-3-piperidyl diphenylacetate;1-Ethyl-3-piperidyl diphenylacetate;Piperidolate;Dactil;1-Ethylpiperidin-3-yl 2,2-diphenylacetate",
    "duplicated_cas_no": "",
    "SMILES": "C(C(OC1CN(CC)CCC1)=O)(C2=CC=CC=C2)C3=CC=CC=C3",
    "meta_data": {
        "InChI": "InChI=1S/C21H25NO2/c1-2-22-15-9-14-19(16-22)24-21(23)20(17-10-5-3-6-11-17)18-12-7-4-8-13-18/h3-8,10-13,19-20H,2,9,14-16H2,1H3",
        "InChIKey": null,
        "Canonical SMILES": "O=C(OC1CN(CC)CCC1)C(C=2C=CC=CC2)C=3C=CC=CC3",
        "Molecular Formula": "C<sub>21</sub>H<sub>25</sub>NO<sub>2</sub>",
        "Molecular Mass": "323.43",
        "Boiling Point": "191 °C",
        "Melting Point": "&lt;25 °C"
    }
}