{
    "cas_no": "13455-22-6",
    "key_name": "Potassium fluorosulfonate",
    "cn_name": "氟硫酸钾;氟磺酸钾;",
    "alternate_name": "Fluorosulfuric acid, potassium salt;Potassium fluorosulfate (KSO<sub>3</sub>F);Potassium fluosulfonate (KSO<sub>3</sub>F);Potassium fluorosulfonate;Potassium fluorosulfonate (KSO<sub>3</sub>F)",
    "duplicated_cas_no": "94295-09-7",
    "SMILES": "S(F)(=O)(=O)O.[K]",
    "meta_data": {
        "InChI": "InChI=1S/FHO3S.K/c1-5(2,3)4;/h(H,2,3,4);",
        "InChIKey": null,
        "Canonical SMILES": "[K].O=S(=O)(F)O",
        "Molecular Formula": "FHO<sub>3</sub>S.K",
        "Molecular Mass": "",
        "Melting Point": "311 °C"
    }
}