{
    "cas_no": "2936-63-2",
    "key_name": "α-Phenyl-1-naphthalenemethanamine",
    "cn_name": null,
    "alternate_name": "1-Naphthalenemethanamine, α-phenyl-;1-Naphthalenemethylamine, α-phenyl-;α-Phenyl-1-naphthalenemethanamine;(Naphthalen-1-yl)(phenyl)methanamine",
    "duplicated_cas_no": "42882-33-7",
    "SMILES": "C(N)(C=1C2=C(C=CC1)C=CC=C2)C3=CC=CC=C3",
    "meta_data": {
        "InChI": "InChI=1S/C17H15N/c18-17(14-8-2-1-3-9-14)16-12-6-10-13-7-4-5-11-15(13)16/h1-12,17H,18H2",
        "InChIKey": null,
        "Canonical SMILES": "NC(C=1C=CC=CC1)C2=CC=CC=3C=CC=CC32",
        "Molecular Formula": "C<sub>17</sub>H<sub>15</sub>N",
        "Molecular Mass": "233.31",
        "Melting Point": "56-59 °C"
    }
}