{
    "cas_no": "67-71-0",
    "key_name": "Dimethyl sulfone",
    "cn_name": "二甲基砜;甲基磺酰甲烷;",
    "alternate_name": "Methane, 1,1′-sulfonylbis-;Methyl sulfone;Methane, sulfonylbis-;1,1′-Sulfonylbis[methane];Dimethyl sulfone;Methylsulfonylmethane;Dimethyl sulphone;MSM;Lignisul MSM;NSC 63345;Opti MSM;Opti-dimethyl sulfone",
    "duplicated_cas_no": "54841-73-5;1800084-98-3",
    "SMILES": "S(C)(C)(=O)=O",
    "meta_data": {
        "InChI": "InChI=1S/C2H6O2S/c1-5(2,3)4/h1-2H3",
        "InChIKey": null,
        "Canonical SMILES": "O=S(=O)(C)C",
        "Molecular Formula": "C<sub>2</sub>H<sub>6</sub>O<sub>2</sub>S",
        "Molecular Mass": "94.13",
        "Boiling Point": "238 °C",
        "Melting Point": "109 °C"
    }
}