{
    "cas_no": "106-34-3",
    "key_name": "Quinhydrone",
    "cn_name": "醌氢醌;苯醌合苯二酚;对苯醌合对苯二酚;",
    "alternate_name": "2,5-Cyclohexadiene-1,4-dione, compd. with 1,4-benzenediol (1:1);<em>p</em>-Benzoquinone, compd. with hydroquinone (1:1);Benzoquinone, compd. with hydroquinone;Hydroquinone, compd. with <em>p</em>-benzoquinone (1:1);1,4-Benzenediol, compd. with 2,5-cyclohexadiene-1,4-dione (1:1);Quinhydrone;Green hydroquinone;<em>p</em>-Benzoquinone-hydroquinone compound (1:1);<em>p</em>-Benzoquinhydrone;β-Quinhydrone;NSC 36325",
    "duplicated_cas_no": "",
    "SMILES": "OC1=CC=C(O)C=C1.O=C1C=CC(=O)C=C1",
    "meta_data": {
        "InChI": "InChI=1S/C6H6O2.C6H4O2/c2*7-5-1-2-6(8)4-3-5/h1-4,7-8H;1-4H",
        "InChIKey": null,
        "Canonical SMILES": "O=C1C=CC(=O)C=C1.OC1=CC=C(O)C=C1",
        "Molecular Formula": "C<sub>6</sub>H<sub>6</sub>O<sub>2</sub>.C<sub>6</sub>H<sub>4</sub>O<sub>2</sub>",
        "Molecular Mass": "",
        "Melting Point": "171 °C"
    }
}