{
    "cas_no": "14799-93-0",
    "key_name": "Dichloromethyloctylsilane",
    "cn_name": "二氯甲基辛基硅烷;二氯甲基辛基甲硅烷;二氯甲基辛基硅烷;正辛基甲基二氯化硅烷;二氯甲基辛基硅烷,98%;正辛;",
    "alternate_name": "Silane, dichloromethyloctyl-;Dichloromethyloctylsilane;(Dichloromethylsilyl)octane;Methyl(octyl)dichlorosilane;SIO 6712",
    "duplicated_cas_no": "",
    "SMILES": "C(CCCCCCC)[Si](C)(Cl)Cl",
    "meta_data": {
        "InChI": "InChI=1S/C9H20Cl2Si/c1-3-4-5-6-7-8-9-12(2,10)11/h3-9H2,1-2H3",
        "InChIKey": null,
        "Canonical SMILES": "Cl[Si](Cl)(C)CCCCCCCC",
        "Molecular Formula": "C<sub>9</sub>H<sub>20</sub>Cl<sub>2</sub>Si",
        "Molecular Mass": "227.25",
        "Boiling Point": "100-116 °C @ Press: 20 Torr",
        "Density": "0.984 g/cm³ @ Temp: 20 °C"
    }
}