{
    "cas_no": "88-67-5",
    "key_name": "2-Iodobenzoic acid",
    "cn_name": "2-碘苯甲酸;邻碘苯甲酸;",
    "alternate_name": "Benzoic acid, 2-iodo-;Benzoic acid, <em>o</em>-iodo-;2-Iodobenzoic acid;<em>o</em>-Iodobenzoic acid;NSC 3772;2-Carboxyphenyl iodide",
    "duplicated_cas_no": "",
    "SMILES": "C(O)(=O)C1=C(I)C=CC=C1",
    "meta_data": {
        "InChI": "InChI=1S/C7H5IO2/c8-6-4-2-1-3-5(6)7(9)10/h1-4H,(H,9,10)",
        "InChIKey": null,
        "Canonical SMILES": "O=C(O)C=1C=CC=CC1I",
        "Molecular Formula": "C<sub>7</sub>H<sub>5</sub>IO<sub>2</sub>",
        "Molecular Mass": "248.02",
        "Melting Point": "163 °C",
        "Density": "2.25 g/cm³"
    }
}