{
    "cas_no": "501-16-6",
    "key_name": "<em>trans</em>-Caffeic acid",
    "cn_name": null,
    "alternate_name": "2-Propenoic acid, 3-(3,4-dihydroxyphenyl)-, (2<em>E</em>)-;Cinnamic acid, 3,4-dihydroxy-, (<em>E</em>)-;2-Propenoic acid, 3-(3,4-dihydroxyphenyl)-, (<em>E</em>)-;Cinnamic acid, 3,4-dihydroxy-, <em>trans</em>-;(2<em>E</em>)-3-(3,4-Dihydroxyphenyl)-2-propenoic acid;<em>trans</em>-Caffeic acid;<em>trans</em>-3,4-Dihydroxycinnamic acid;3,4-Dihydroxy-<em>trans</em>-cinnamic acid;(<em>E</em>)-Caffeic acid;(<em>E</em>)-3,4-Dihydroxycinnamic acid;(<em>E</em>)-3-(3,4-Dihydroxyphenyl)-2-propenoic acid;(2<em>E</em>)-(3,4-Dihydroxyphenyl)-2-propenoic acid;(E)-3-(3,4-Dihydroxyphenyl)acrylic acid;ZINC 00058172;(<em>E</em>)-3-(3,4-Dihydroxyphenyl)acrylic acid",
    "duplicated_cas_no": "",
    "SMILES": "C(=C/C(O)=O)\\C1=CC(O)=C(O)C=C1",
    "meta_data": {
        "InChI": "InChI=1S/C9H8O4/c10-7-3-1-6(5-8(7)11)2-4-9(12)13/h1-5,10-11H,(H,12,13)/b4-2+",
        "InChIKey": null,
        "Canonical SMILES": "O=C(O)C=CC1=CC=C(O)C(O)=C1",
        "Molecular Formula": "C<sub>9</sub>H<sub>8</sub>O<sub>4</sub>",
        "Molecular Mass": "180.16",
        "Melting Point": "196-198 °C"
    }
}