{
    "cas_no": "5081-36-7",
    "key_name": "3-Methoxy-4-nitrobenzoic acid",
    "cn_name": "3-甲氧基-4-硝基苯甲酸;",
    "alternate_name": "Benzoic acid, 3-methoxy-4-nitro-;<em>m</em>-Anisic acid, 4-nitro-;3-Methoxy-4-nitrobenzoic acid;NSC 148471;4-Nitro-3-methoxybenzoic acid",
    "duplicated_cas_no": "",
    "SMILES": "O(C)C1=C(N(=O)=O)C=CC(C(O)=O)=C1",
    "meta_data": {
        "InChI": "InChI=1S/C8H7NO5/c1-14-7-4-5(8(10)11)2-3-6(7)9(12)13/h2-4H,1H3,(H,10,11)",
        "InChIKey": null,
        "Canonical SMILES": "O=C(O)C1=CC=C(C(OC)=C1)N(=O)=O",
        "Molecular Formula": "C<sub>8</sub>H<sub>7</sub>NO<sub>5</sub>",
        "Molecular Mass": "197.14",
        "Melting Point": "229-230 °C"
    }
}