{
    "cas_no": "170632-47-0",
    "key_name": "Lificiguat",
    "cn_name": null,
    "alternate_name": "2-Furanmethanol, 5-[1-(phenylmethyl)-1<em>H</em>-indazol-3-yl]-;5-[1-(Phenylmethyl)-1<em>H</em>-indazol-3-yl]-2-furanmethanol;YC 1;YC 1 (pharmaceutical);1-Benzyl-3-(5-hydroxymethylfur-2-yl)indazole;Lificiguat;1-Benzyl-3-(5-hydroxymethyl-furan-2-yl)indazole;[5-(1-Benzyl-1<em>H</em>-indazol-3-yl)-furan-2-yl]-methanol;[5-(1-Benzylindazol-3-yl)furan-2-yl]methanol",
    "duplicated_cas_no": "",
    "SMILES": "C(N1N=C(C=2C1=CC=CC2)C=3OC(CO)=CC3)C4=CC=CC=C4",
    "meta_data": {
        "InChI": "InChI=1S/C19H16N2O2/c22-13-15-10-11-18(23-15)19-16-8-4-5-9-17(16)21(20-19)12-14-6-2-1-3-7-14/h1-11,22H,12-13H2",
        "InChIKey": null,
        "Canonical SMILES": "OCC=1OC(=CC1)C2=NN(C=3C=CC=CC23)CC=4C=CC=CC4",
        "Molecular Formula": "C<sub>19</sub>H<sub>16</sub>N<sub>2</sub>O<sub>2</sub>",
        "Molecular Mass": "304.34",
        "Melting Point": "110-112 °C"
    }
}