{
    "cas_no": "1623-88-7",
    "key_name": "5-(Chloromethyl)-2-furancarboxaldehyde",
    "cn_name": "5-氯甲基呋喃-2-甲醛;",
    "alternate_name": "2-Furancarboxaldehyde, 5-(chloromethyl)-;2-Furaldehyde, 5-(chloromethyl)-;5-(Chloromethyl)-2-furancarboxaldehyde;5-(Chloromethyl)furfural;5-(Chloromethyl)furfuraldehyde;5-(Chloromethyl)-2-furfural;5-(Chloromethyl)-2-furaldehyde;5-Chloromethylfuran-2-carbaldehyde;2-Formyl-5-chloromethylfuran",
    "duplicated_cas_no": "",
    "SMILES": "C(Cl)C=1OC(C=O)=CC1",
    "meta_data": {
        "InChI": "InChI=1S/C6H5ClO2/c7-3-5-1-2-6(4-8)9-5/h1-2,4H,3H2",
        "InChIKey": null,
        "Canonical SMILES": "O=CC=1OC(=CC1)CCl",
        "Molecular Formula": "C<sub>6</sub>H<sub>5</sub>ClO<sub>2</sub>",
        "Molecular Mass": "144.56",
        "Boiling Point": "137-138 °C @ Press: 5 Torr",
        "Melting Point": "37 °C"
    }
}