{
    "cas_no": "66909-35-1",
    "key_name": "6-Chloro-4-methyl-3-pyridinecarbonitrile",
    "cn_name": null,
    "alternate_name": "3-Pyridinecarbonitrile, 6-chloro-4-methyl-;6-Chloro-4-methyl-3-pyridinecarbonitrile;2-Chloro-4-methyl-5-pyridinecarbonitrile;6-Chloro-4-methylpyridine-3-carbonitrile;6-Chloro-4-methylnicotinonitrile",
    "duplicated_cas_no": "",
    "SMILES": "C(#N)C=1C(C)=CC(Cl)=NC1",
    "meta_data": {
        "InChI": "InChI=1S/C7H5ClN2/c1-5-2-7(8)10-4-6(5)3-9/h2,4H,1H3",
        "InChIKey": null,
        "Canonical SMILES": "N#CC1=CN=C(Cl)C=C1C",
        "Molecular Formula": "C<sub>7</sub>H<sub>5</sub>ClN<sub>2</sub>",
        "Molecular Mass": "152.58",
        "Melting Point": "108-109 °C"
    }
}