{
    "cas_no": "18184-75-3",
    "key_name": "6-(Phenylmethyl)-5<em>H</em>-pyrrolo[3,4-<em>b</em>]pyridine-5,7(6<em>H</em>)-dione",
    "cn_name": null,
    "alternate_name": "5<em>H</em>-Pyrrolo[3,4-<em>b</em>]pyridine-5,7(6<em>H</em>)-dione, 6-(phenylmethyl)-;2,3-Pyridinedicarboximide, <em>N</em>-benzyl-;6-(Phenylmethyl)-5<em>H</em>-pyrrolo[3,4-<em>b</em>]pyridine-5,7(6<em>H</em>)-dione;NSC 151664;6-Benzyl-5<em>H</em>-pyrrolo[3,4-<em>b</em>]pyridine-5,7(6<em>H</em>)-dione",
    "duplicated_cas_no": "",
    "SMILES": "O=C1C=2C(C(=O)N1CC3=CC=CC=C3)=NC=CC2",
    "meta_data": {
        "InChI": "InChI=1S/C14H10N2O2/c17-13-11-7-4-8-15-12(11)14(18)16(13)9-10-5-2-1-3-6-10/h1-8H,9H2",
        "InChIKey": null,
        "Canonical SMILES": "O=C1C2=NC=CC=C2C(=O)N1CC=3C=CC=CC3",
        "Molecular Formula": "C<sub>14</sub>H<sub>10</sub>N<sub>2</sub>O<sub>2</sub>",
        "Molecular Mass": "238.24",
        "Melting Point": "167-168 °C"
    }
}