{
    "cas_no": "3968-92-1",
    "key_name": "Phosphonium, (1-methylpropyl)triphenyl-, bromide (1:1)",
    "cn_name": "(2-丁基)三苯基溴化膦;(2-丁基)三苯基溴化膦;",
    "alternate_name": "Phosphonium, (1-methylpropyl)triphenyl-, bromide (1:1);Phosphonium, <em>sec</em>-butyltriphenyl-, bromide;Phosphonium, (1-methylpropyl)triphenyl-, bromide;<em>sec</em>-Butyltriphenylphosphonium bromide;2-Butyltriphenylphosphonium bromide",
    "duplicated_cas_no": "",
    "SMILES": "[P+](C(CC)C)(C1=CC=CC=C1)(C2=CC=CC=C2)C3=CC=CC=C3.[Br-]",
    "meta_data": {
        "InChI": "InChI=1S/C22H24P.BrH/c1-3-19(2)23(20-13-7-4-8-14-20,21-15-9-5-10-16-21)22-17-11-6-12-18-22;/h4-19H,3H2,1-2H3;1H/q+1;/p-1",
        "InChIKey": null,
        "Canonical SMILES": "[Br-].C=1C=CC(=CC1)[P+](C=2C=CC=CC2)(C=3C=CC=CC3)C(C)CC",
        "Molecular Formula": "C<sub>22</sub>H<sub>24</sub>P.Br",
        "Molecular Mass": "",
        "Melting Point": "225-227 °C"
    }
}