{
    "cas_no": "25462-23-1",
    "key_name": "2-Pentyl-1,3-propanediol",
    "cn_name": "2-正戊丙烷-1,3-二醇;2-正戊基丙烷-1,3-二醇;",
    "alternate_name": "1,3-Propanediol, 2-pentyl-;2-Pentyl-1,3-propanediol;2-<em>n</em>-Pentyl-1,3-propanediol",
    "duplicated_cas_no": "",
    "SMILES": "C(CCCCC)(CO)CO",
    "meta_data": {
        "InChI": "InChI=1S/C8H18O2/c1-2-3-4-5-8(6-9)7-10/h8-10H,2-7H2,1H3",
        "InChIKey": null,
        "Canonical SMILES": "OCC(CO)CCCCC",
        "Molecular Formula": "C<sub>8</sub>H<sub>18</sub>O<sub>2</sub>",
        "Molecular Mass": "146.23",
        "Boiling Point": "100-106 °C @ Press: 0.2 Torr"
    }
}