{
    "cas_no": "81-90-3",
    "key_name": "Phenolphthalin",
    "cn_name": null,
    "alternate_name": "Benzoic acid, 2-[bis(4-hydroxyphenyl)methyl]-;<em>o</em>-Toluic acid, α,α-bis(<em>p</em>-hydroxyphenyl)-;Phenolphthalin;2-[Bis(4-hydroxyphenyl)methyl]benzoic acid;α,α-Bis(<em>p</em>-hydroxyphenyl)-<em>o</em>-toluic acid;4′,4′′-Dihydroxytriphenylmethane-2-carboxylic acid;Ex-Lax;Evac-Q-Tabs;Modane Plus;Chocolax;Darmol",
    "duplicated_cas_no": "",
    "SMILES": "C(C1=C(C(O)=O)C=CC=C1)(C2=CC=C(O)C=C2)C3=CC=C(O)C=C3",
    "meta_data": {
        "InChI": "InChI=1S/C20H16O4/c21-15-9-5-13(6-10-15)19(14-7-11-16(22)12-8-14)17-3-1-2-4-18(17)20(23)24/h1-12,19,21-22H,(H,23,24)",
        "InChIKey": null,
        "Canonical SMILES": "O=C(O)C=1C=CC=CC1C(C2=CC=C(O)C=C2)C3=CC=C(O)C=C3",
        "Molecular Formula": "C<sub>20</sub>H<sub>16</sub>O<sub>4</sub>",
        "Molecular Mass": "320.34",
        "Melting Point": "230.5 °C",
        "Density": "1.299 g/cm³"
    }
}