{
    "cas_no": "14351-29-2",
    "key_name": "Dammarenediol",
    "cn_name": null,
    "alternate_name": "Dammar-24-ene-3,20-diol, (3β)-;Dammar-24-ene-3β,20-diol, (20<em>S</em>)-;Dammarenediol II;(3β)-Dammar-24-ene-3,20-diol;20<em>S</em>-Dammarenediol;Dammarenediol;20<em>S</em>-Dammarenediol II;(20S)-Dammar-24-ene-3β,20-diol;(+)-Dammarenediol II",
    "duplicated_cas_no": "11020-15-8",
    "SMILES": "C[C@]12[C@@]([C@]3(C)[C@@](CC1)(C(C)(C)[C@@H](O)CC3)[H])(CC[C@]4([C@@]2(C)CC[C@@]4([C@@](CCC=C(C)C)(C)O)[H])[H])[H]",
    "meta_data": {
        "InChI": "InChI=1S/C30H52O2/c1-20(2)10-9-16-30(8,32)22-13-18-28(6)21(22)11-12-24-27(5)17-15-25(31)26(3,4)23(27)14-19-29(24,28)7/h10,21-25,31-32H,9,11-19H2,1-8H3/t21-,22+,23+,24-,25+,27+,28-,29-,30+/m1/s1",
        "InChIKey": null,
        "Canonical SMILES": "OC1CCC2(C)C(CCC3(C)C2CCC4C(CCC43C)C(O)(C)CCC=C(C)C)C1(C)C",
        "Molecular Formula": "C<sub>30</sub>H<sub>52</sub>O<sub>2</sub>",
        "Molecular Mass": "444.73",
        "Melting Point": "130-133 °C"
    }
}