{
    "cas_no": "430-67-1",
    "key_name": "Ethanamine, 2,2-difluoro-",
    "cn_name": null,
    "alternate_name": "Ethanamine, 2,2-difluoro-;Ethylamine, 2,2-difluoro-;2,2-Difluoroethylamine;2,2-Difluoroethanamine;2,2-Difluoroethan-1-amine",
    "duplicated_cas_no": "",
    "SMILES": "C(CN)(F)F",
    "meta_data": {
        "InChI": "InChI=1S/C2H5F2N/c3-2(4)1-5/h2H,1,5H2",
        "InChIKey": null,
        "Canonical SMILES": "FC(F)CN",
        "Molecular Formula": "C<sub>2</sub>H<sub>5</sub>F<sub>2</sub>N",
        "Molecular Mass": "81.06",
        "Boiling Point": "68-69 °C"
    }
}