{
    "cas_no": "73069-14-4",
    "key_name": "Atractylenolide II",
    "cn_name": null,
    "alternate_name": "Naphtho[2,3-<em>b</em>]furan-2(4<em>H</em>)-one, 4a,5,6,7,8,8a,9,9a-octahydro-3,8a-dimethyl-5-methylene-, (4a<em>S</em>,8a<em>R</em>,9a<em>S</em>)-;Naphtho[2,3-<em>b</em>]furan-2(4<em>H</em>)-one, 4a,5,6,7,8,8a,9,9a-octahydro-3,8a-dimethyl-5-methylene-, [4a<em>S</em>-(4aα,8aβ,9aβ)]-;(4a<em>S</em>,8a<em>R</em>,9a<em>S</em>)-4a,5,6,7,8,8a,9,9a-Octahydro-3,8a-dimethyl-5-methylenenaphtho[2,3-<em>b</em>]furan-2(4<em>H</em>)-one;Atractylenolide II;Asterolide;Eudesma-4(15),7(11)-dien-8α,12-olide",
    "duplicated_cas_no": "",
    "SMILES": "C[C@]12[C@@](CC=3[C@](C1)(OC(=O)C3C)[H])(C(=C)CCC2)[H]",
    "meta_data": {
        "InChI": "InChI=1S/C15H20O2/c1-9-5-4-6-15(3)8-13-11(7-12(9)15)10(2)14(16)17-13/h12-13H,1,4-8H2,2-3H3/t12-,13-,15+/m0/s1",
        "InChIKey": null,
        "Canonical SMILES": "O=C1OC2C(=C1C)CC3C(=C)CCCC3(C)C2",
        "Molecular Formula": "C<sub>15</sub>H<sub>20</sub>O<sub>2</sub>",
        "Molecular Mass": "232.32",
        "Melting Point": "150-152 °C"
    }
}