{
    "cas_no": "86357-14-4",
    "key_name": "<em>N</em>-[9-[[2-(Acetyloxy)-1-[(acetyloxy)methyl]ethoxy]methyl]-6,9-dihydro-6-oxo-1<em>H</em>-purin-2-yl]acetamide",
    "cn_name": "三乙酰更昔洛韦;N-[9-[[2-(乙酰氧基)-1-[(乙酰氧基)甲基]乙氧基]甲基]-6,9-二氢-6-氧代-1H-嘌呤-2-基]乙酰;",
    "alternate_name": "Acetamide, <em>N</em>-[9-[[2-(acetyloxy)-1-[(acetyloxy)methyl]ethoxy]methyl]-6,9-dihydro-6-oxo-1<em>H</em>-purin-2-yl]-;<em>N</em>-[9-[[2-(Acetyloxy)-1-[(acetyloxy)methyl]ethoxy]methyl]-6,9-dihydro-6-oxo-1<em>H</em>-purin-2-yl]acetamide;2-((2-Acetamido-6-hydroxy-9<em>H</em>-purin-9-yl)methoxy)propane-1,3-diyl diacetate",
    "duplicated_cas_no": "",
    "SMILES": "C(OC(COC(C)=O)COC(C)=O)N1C2=C(C(=O)N=C(NC(C)=O)N2)N=C1",
    "meta_data": {
        "InChI": "InChI=1S/C15H19N5O7/c1-8(21)17-15-18-13-12(14(24)19-15)16-6-20(13)7-27-11(4-25-9(2)22)5-26-10(3)23/h6,11H,4-5,7H2,1-3H3,(H2,17,18,19,21,24)",
        "InChIKey": null,
        "Canonical SMILES": "O=C1N=C(NC(=O)C)NC2=C1N=CN2COC(COC(=O)C)COC(=O)C",
        "Molecular Formula": "C<sub>15</sub>H<sub>19</sub>N<sub>5</sub>O<sub>7</sub>",
        "Molecular Mass": "381.34",
        "Melting Point": "175 °C"
    }
}