{
    "cas_no": "502-54-5",
    "key_name": "Glyceryl 1-monooctanoate",
    "cn_name": null,
    "alternate_name": "Octanoic acid, 2,3-dihydroxypropyl ester;Octanoin, 1-mono-;α-Monocaprylin;Octanoic acid 1-monoglyceride;Caprylic acid α-monoglyceride;1-Monooctanoylglycerol;Glyceryl 1-monooctanoate;1-Monocaprylin;2,3-Dihydroxypropyl octanoate;1-Monooctanoin;(±)-Glycerol monoctanoate;<span class=\"text-smallcaps\">DL</span>-1-Monooctanoin;1-Monocapryloyl-<em>rac</em>-glycerol;Monoctanoin",
    "duplicated_cas_no": "19670-49-6",
    "SMILES": "C(OCC(CO)O)(CCCCCCC)=O",
    "meta_data": {
        "InChI": "InChI=1S/C11H22O4/c1-2-3-4-5-6-7-11(14)15-9-10(13)8-12/h10,12-13H,2-9H2,1H3",
        "InChIKey": null,
        "Canonical SMILES": "O=C(OCC(O)CO)CCCCCCC",
        "Molecular Formula": "C<sub>11</sub>H<sub>22</sub>O<sub>4</sub>",
        "Molecular Mass": "218.29",
        "Melting Point": "39.5-40.5 °C"
    }
}