{
    "cas_no": "20028-68-6",
    "key_name": "2,4,6-Trichloroquinazoline",
    "cn_name": null,
    "alternate_name": "Quinazoline, 2,4,6-trichloro-;2,4,6-Trichloroquinazoline",
    "duplicated_cas_no": "",
    "SMILES": "ClC=1C2=C(N=C(Cl)N1)C=CC(Cl)=C2",
    "meta_data": {
        "InChI": "InChI=1S/C8H3Cl3N2/c9-4-1-2-6-5(3-4)7(10)13-8(11)12-6/h1-3H",
        "InChIKey": null,
        "Canonical SMILES": "ClC=1N=C(Cl)C=2C=C(Cl)C=CC2N1",
        "Molecular Formula": "C<sub>8</sub>H<sub>3</sub>Cl<sub>3</sub>N<sub>2</sub>",
        "Molecular Mass": "233.48",
        "Boiling Point": "230-240 °C @ Press: 15 Torr",
        "Melting Point": "131 °C"
    }
}