{
    "cas_no": "510-30-5",
    "key_name": "Echinocystic acid",
    "cn_name": null,
    "alternate_name": "Olean-12-en-28-oic acid, 3,16-dihydroxy-, (3β,16α)-;Echinocystic acid;Olean-12-en-28-oic acid, 3β,16α-dihydroxy-;(3β,16α)-3,16-Dihydroxyolean-12-en-28-oic acid",
    "duplicated_cas_no": "17020-07-4",
    "SMILES": "C(O)(=O)[C@]12[C@](C=3[C@@](C)(C[C@H]1O)[C@@]4(C)[C@](CC3)([C@]5(C)[C@@](CC4)(C(C)(C)[C@@H](O)CC5)[H])[H])(CC(C)(C)CC2)[H]",
    "meta_data": {
        "InChI": "InChI=1S/C30H48O4/c1-25(2)14-15-30(24(33)34)19(16-25)18-8-9-21-27(5)12-11-22(31)26(3,4)20(27)10-13-28(21,6)29(18,7)17-23(30)32/h8,19-23,31-32H,9-17H2,1-7H3,(H,33,34)/t19-,20-,21+,22-,23+,27-,28+,29+,30+/m0/s1",
        "InChIKey": null,
        "Canonical SMILES": "O=C(O)C12CCC(C)(C)CC2C3=CCC4C5(C)CCC(O)C(C)(C)C5CCC4(C)C3(C)CC1O",
        "Molecular Formula": "C<sub>30</sub>H<sub>48</sub>O<sub>4</sub>",
        "Molecular Mass": "472.70",
        "Melting Point": "305-312 °C (decomp)"
    }
}