{
    "cas_no": "140462-76-6",
    "key_name": "Olopatadine hydrochloride",
    "cn_name": "盐酸奥洛他定;(Z)-11-[3-(二甲基氨基)亚丙基]-6,11-二氢二苯并[b,e]氧杂卓-2-乙酸盐酸盐;",
    "alternate_name": "Dibenz[<em>b</em>,<em>e</em>]oxepin-2-acetic acid, 11-[3-(dimethylamino)propylidene]-6,11-dihydro-, hydrochloride (1:1), (11<em>Z</em>)-;Dibenz[<em>b</em>,<em>e</em>]oxepin-2-acetic acid, 11-[3-(dimethylamino)propylidene]-6,11-dihydro-, hydrochloride, (<em>Z</em>)-;Dibenz[<em>b</em>,<em>e</em>]oxepin-2-acetic acid, 11-[3-(dimethylamino)propylidene]-6,11-dihydro-, hydrochloride, (11<em>Z</em>)-;KW 4679;ALO 4943A;Olopatadine hydrochloride;Allelock;(<em>Z</em>)-11-(3-Dimethylaminopropylidene)-6,11-dihydrodibenzo[<em>b</em>,<em>e</em>]oxepin-2-acetic acid hydrochloride;Patanase;Allerock;Patadine;Olopine;Olopax;Pazeo;Opatanol;Patanol;Pataday",
    "duplicated_cas_no": "",
    "SMILES": "C(\\CCN(C)C)=C/1\\C=2C(OCC=3C1=CC=CC3)=CC=C(CC(O)=O)C2.Cl",
    "meta_data": {
        "InChI": "InChI=1S/C21H23NO3.ClH/c1-22(2)11-5-8-18-17-7-4-3-6-16(17)14-25-20-10-9-15(12-19(18)20)13-21(23)24;/h3-4,6-10,12H,5,11,13-14H2,1-2H3,(H,23,24);1H/b18-8-;",
        "InChIKey": null,
        "Canonical SMILES": "Cl.O=C(O)CC1=CC=C2OCC=3C=CC=CC3C(=CCCN(C)C)C2=C1",
        "Molecular Formula": "C<sub>21</sub>H<sub>23</sub>NO<sub>3</sub>.ClH",
        "Molecular Mass": "",
        "Melting Point": "231-233 °C (decomp)"
    }
}