{
    "cas_no": "101023-55-6",
    "key_name": "1<em>H</em>-Imidazole, hydrobromide (1:1)",
    "cn_name": null,
    "alternate_name": "1<em>H</em>-Imidazole, hydrobromide (1:1);1<em>H</em>-Imidazole, monohydrobromide;Imidazole hydrobromide",
    "duplicated_cas_no": "",
    "SMILES": "C1=CN=CN1.Br",
    "meta_data": {
        "InChI": "InChI=1S/C3H4N2.BrH/c1-2-5-3-4-1;/h1-3H,(H,4,5);1H",
        "InChIKey": null,
        "Canonical SMILES": "Br.N=1C=CNC1",
        "Molecular Formula": "C<sub>3</sub>H<sub>4</sub>N<sub>2</sub>.BrH",
        "Molecular Mass": "",
        "Boiling Point": "237 °C @ Press: 2 Torr",
        "Melting Point": "210-216 °C"
    }
}