{
    "cas_no": "586-61-8",
    "key_name": "1-Bromo-4-isopropylbenzene",
    "cn_name": "1-溴-4-异丙基苯;对溴异丙苯;",
    "alternate_name": "Benzene, 1-bromo-4-(1-methylethyl)-;Cumene, <em>p</em>-bromo-;1-Bromo-4-(1-methylethyl)benzene;<em>p</em>-Bromocumene;4-Bromocumene;4-Isopropylbromobenzene;1-Bromo-4-isopropylbenzene;2-(4-Bromophenyl)propane;2-(<em>p</em>-Bromophenyl)propane;4-Bromoisopropylbenzene;<em>p</em>-Isopropylbromobenzene;4-Isopropylphenyl bromide;<em>p</em>-Isopropylphenyl bromide;NSC 97223;<em>p</em>-Bromoisopropylbenzene;4-Bromo-1-isopropylbenzene;1-Bromo-4-(propan-2-yl)benzene",
    "duplicated_cas_no": "",
    "SMILES": "C(C)(C)C1=CC=C(Br)C=C1",
    "meta_data": {
        "InChI": "InChI=1S/C9H11Br/c1-7(2)8-3-5-9(10)6-4-8/h3-7H,1-2H3",
        "InChIKey": null,
        "Canonical SMILES": "BrC1=CC=C(C=C1)C(C)C",
        "Molecular Formula": "C<sub>9</sub>H<sub>11</sub>Br",
        "Molecular Mass": "199.09",
        "Boiling Point": "218.7 °C",
        "Melting Point": "-22.5 °C",
        "Density": "1.3145 g/cm³ @ Temp: 20 °C"
    }
}