{
    "cas_no": "3581-91-7",
    "key_name": "4,5-Dimethylthiazole",
    "cn_name": "4,5-二甲基噻唑;",
    "alternate_name": "Thiazole, 4,5-dimethyl-;4,5-Dimethylthiazole;4,5-Dimethyl-1,3-thiazole",
    "duplicated_cas_no": "",
    "SMILES": "CC1=C(C)SC=N1",
    "meta_data": {
        "InChI": "InChI=1S/C5H7NS/c1-4-5(2)7-3-6-4/h3H,1-2H3",
        "InChIKey": null,
        "Canonical SMILES": "N1=CSC(=C1C)C",
        "Molecular Formula": "C<sub>5</sub>H<sub>7</sub>NS",
        "Molecular Mass": "113.18",
        "Boiling Point": "158 °C",
        "Melting Point": "83.5 °C",
        "Density": "1.0699 g/cm³ @ Temp: 20 °C"
    }
}