{
    "cas_no": "120511-74-2",
    "key_name": "(3-Cyanomethyl-5-methylphenyl)acetonitrile",
    "cn_name": null,
    "alternate_name": "1,3-Benzenediacetonitrile, 5-methyl-;5-Methyl-1,3-benzenediacetonitrile;5-Methylbenzene-1,3-diacetonitrile;(3-Cyanomethyl-5-methylphenyl)acetonitrile",
    "duplicated_cas_no": "",
    "SMILES": "C(C#N)C1=CC(CC#N)=CC(C)=C1",
    "meta_data": {
        "InChI": "InChI=1S/C11H10N2/c1-9-6-10(2-4-12)8-11(7-9)3-5-13/h6-8H,2-3H2,1H3",
        "InChIKey": null,
        "Canonical SMILES": "N#CCC1=CC(=CC(=C1)CC#N)C",
        "Molecular Formula": "C<sub>11</sub>H<sub>10</sub>N<sub>2</sub>",
        "Molecular Mass": "170.21",
        "Boiling Point": "224-225 °C @ Press: 14 Torr",
        "Melting Point": "73 °C"
    }
}