{
    "cas_no": "93-84-5",
    "key_name": "1,3-Dihydro-5-nitro-2<em>H</em>-benzimidazol-2-one",
    "cn_name": "5-硝基-2-苯咪唑酮;5-硝基-2-苯并咪唑酮;",
    "alternate_name": "2<em>H</em>-Benzimidazol-2-one, 1,3-dihydro-5-nitro-;2-Benzimidazolinone, 5-nitro-;1,3-Dihydro-5-nitro-2<em>H</em>-benzimidazol-2-one;5-Nitrobenzimidazol-2-one;5-Nitro-2-benzimidazolinone;2-Hydroxy-5-nitrobenzimidazole;NSC 10380;5-Nitro-1,3-dihydrobenzimidazol-2-one;5-Nitro-1,3-dihydro-2<em>H</em>-benzimidazol-2-one;5-Nitro-1,3-dihydro-2<em>H</em>-benzo[<em>d</em>]imidazol-2-one;5-Nitrobenzo[<em>d</em>]imidazol-2(3<em>H</em>)-one;5-Nitro-1<em>H</em>-benzo[<em>d</em>]imidazol-2(3<em>H</em>)-one",
    "duplicated_cas_no": "5400-73-7",
    "SMILES": "N(=O)(=O)C=1C=C2C(=CC1)NC(=O)N2",
    "meta_data": {
        "InChI": "InChI=1S/C7H5N3O3/c11-7-8-5-2-1-4(10(12)13)3-6(5)9-7/h1-3H,(H2,8,9,11)",
        "InChIKey": null,
        "Canonical SMILES": "O=C1NC2=CC=C(C=C2N1)N(=O)=O",
        "Molecular Formula": "C<sub>7</sub>H<sub>5</sub>N<sub>3</sub>O<sub>3</sub>",
        "Molecular Mass": "179.13",
        "Melting Point": "308 °C"
    }
}