{
    "cas_no": "586-10-7",
    "key_name": "3-Methoxy-5-nitrobenzenamine",
    "cn_name": "3-甲氧基-5-硝基苯胺;",
    "alternate_name": "Benzenamine, 3-methoxy-5-nitro-;<em>m</em>-Anisidine, 5-nitro-;3-Methoxy-5-nitrobenzenamine;3-Amino-5-nitroanisole;3-Methoxy-5-nitroaniline;3-Methoxy-5-nitrophenylamine",
    "duplicated_cas_no": "",
    "SMILES": "N(=O)(=O)C1=CC(OC)=CC(N)=C1",
    "meta_data": {
        "InChI": "InChI=1S/C7H8N2O3/c1-12-7-3-5(8)2-6(4-7)9(10)11/h2-4H,8H2,1H3",
        "InChIKey": null,
        "Canonical SMILES": "O=N(=O)C=1C=C(OC)C=C(N)C1",
        "Molecular Formula": "C<sub>7</sub>H<sub>8</sub>N<sub>2</sub>O<sub>3</sub>",
        "Molecular Mass": "168.15",
        "Melting Point": "117-119 °C"
    }
}