{
    "cas_no": "2424-90-0",
    "key_name": "Heptadecanedioic acid",
    "cn_name": null,
    "alternate_name": "Heptadecanedioic acid;1,15-Pentadecanedicarboxylic acid;1,17-Heptadecanedioic acid;Pentadecanedicarboxylic acid;ω-Carboxypalmitic acid",
    "duplicated_cas_no": "",
    "SMILES": "C(CC(O)=O)CCCCCCCCCCCCCC(O)=O",
    "meta_data": {
        "InChI": "InChI=1S/C17H32O4/c18-16(19)14-12-10-8-6-4-2-1-3-5-7-9-11-13-15-17(20)21/h1-15H2,(H,18,19)(H,20,21)",
        "InChIKey": null,
        "Canonical SMILES": "O=C(O)CCCCCCCCCCCCCCCC(=O)O",
        "Molecular Formula": "C<sub>17</sub>H<sub>32</sub>O<sub>4</sub>",
        "Molecular Mass": "300.43",
        "Boiling Point": "170-190 °C @ Press: 0.3 Torr",
        "Melting Point": "116-117 °C"
    }
}