{
    "cas_no": "105-05-5",
    "key_name": "1,4-Diethylbenzene",
    "cn_name": "对二乙苯;对二乙基苯;1,4-二乙基苯;",
    "alternate_name": "Benzene, 1,4-diethyl-;Benzene, <em>p</em>-diethyl-;<em>p</em>-Xylene, α,α′-dimethyl-;1,4-Diethylbenzene;<em>p</em>-Diethylbenzene;<em>p</em>-Ethylethylbenzene",
    "duplicated_cas_no": "",
    "SMILES": "C(C)C1=CC=C(CC)C=C1",
    "meta_data": {
        "InChI": "InChI=1S/C10H14/c1-3-9-5-7-10(4-2)8-6-9/h5-8H,3-4H2,1-2H3",
        "InChIKey": null,
        "Canonical SMILES": "C=1C=C(C=CC1CC)CC",
        "Molecular Formula": "C<sub>10</sub>H<sub>14</sub>",
        "Molecular Mass": "134.22",
        "Boiling Point": "183.7 °C",
        "Melting Point": "-42.83 °C",
        "Density": "0.8620 g/cm³ @ Temp: 20 °C"
    }
}