{
    "cas_no": "77996-04-4",
    "key_name": "[(1<em>S</em>,2<em>R</em>,6<em>R</em>)-2-[2,6-Dihydroxy-4-(6-hydroxy-2-benzofuranyl)phenyl]-6-(2,4-dihydroxyphenyl)-4-methyl-3-cyclohexen-1-yl](2,4-dihydroxyphenyl)methanone",
    "cn_name": null,
    "alternate_name": "Methanone, [(1<em>S</em>,2<em>R</em>,6<em>R</em>)-2-[2,6-dihydroxy-4-(6-hydroxy-2-benzofuranyl)phenyl]-6-(2,4-dihydroxyphenyl)-4-methyl-3-cyclohexen-1-yl](2,4-dihydroxyphenyl)-;Methanone, [2-[2,6-dihydroxy-4-(6-hydroxy-2-benzofuranyl)phenyl]-6-(2,4-dihydroxyphenyl)-4-methyl-3-cyclohexen-1-yl](2,4-dihydroxyphenyl)-, [1<em>S</em>-(1α,2α,6β)]-;[(1<em>S</em>,2<em>R</em>,6<em>R</em>)-2-[2,6-Dihydroxy-4-(6-hydroxy-2-benzofuranyl)phenyl]-6-(2,4-dihydroxyphenyl)-4-methyl-3-cyclohexen-1-yl](2,4-dihydroxyphenyl)methanone;Mulberrofuran C",
    "duplicated_cas_no": "",
    "SMILES": "C(=O)([C@@H]1[C@@H](C=C(C)C[C@H]1C2=C(O)C=C(O)C=C2)C3=C(O)C=C(C=C3O)C4=CC=5C(O4)=CC(O)=CC5)C6=C(O)C=C(O)C=C6",
    "meta_data": {
        "InChI": "InChI=1S/C34H28O9/c1-16-8-24(22-6-4-19(35)13-26(22)38)32(34(42)23-7-5-20(36)14-27(23)39)25(9-16)33-28(40)10-18(11-29(33)41)30-12-17-2-3-21(37)15-31(17)43-30/h2-7,9-15,24-25,32,35-41H,8H2,1H3/t24-,25+,32-/m0/s1",
        "InChIKey": null,
        "Canonical SMILES": "O=C(C1=CC=C(O)C=C1O)C2C(C=C(C)CC2C3=CC=C(O)C=C3O)C4=C(O)C=C(C=C4O)C=5OC=6C=C(O)C=CC6C5",
        "Molecular Formula": "C<sub>34</sub>H<sub>28</sub>O<sub>9</sub>",
        "Molecular Mass": "580.58",
        "Melting Point": "210 °C"
    }
}