{
    "cas_no": "29663-54-5",
    "key_name": "Cycloheptatrienylium, hexafluorophosphate(1-) (1:1)",
    "cn_name": null,
    "alternate_name": "Cycloheptatrienylium, hexafluorophosphate(1-) (1:1);Cycloheptatrienylium, hexafluorophosphate(1-);Phosphate(1-), hexafluoro-, cycloheptatrienylium;Tropylium hexafluorophosphate",
    "duplicated_cas_no": "41325-90-0;1899939-85-5",
    "SMILES": "",
    "meta_data": {
        "InChI": "",
        "InChIKey": null,
        "Canonical SMILES": "",
        "Molecular Formula": "C<sub>7</sub>H<sub>7</sub>.F<sub>6</sub>P",
        "Molecular Mass": "",
        "Melting Point": "190-215 °C (decomp)"
    }
}