{
    "cas_no": "620-22-4",
    "key_name": "3-Methylbenzonitrile",
    "cn_name": "间甲基苯腈;",
    "alternate_name": "Benzonitrile, 3-methyl-;<em>m</em>-Tolunitrile;3-Methylbenzonitrile;<em>m</em>-Methylbenzonitrile;3-Tolunitrile;<em>m</em>-Cyanotoluene;<em>m</em>-Toluenenitrile;3-Cyanotoluene;3-Tolyl cyanide;NSC 75453",
    "duplicated_cas_no": "",
    "SMILES": "C(#N)C1=CC(C)=CC=C1",
    "meta_data": {
        "InChI": "InChI=1S/C8H7N/c1-7-3-2-4-8(5-7)6-9/h2-5H,1H3",
        "InChIKey": null,
        "Canonical SMILES": "N#CC1=CC=CC(=C1)C",
        "Molecular Formula": "C<sub>8</sub>H<sub>7</sub>N",
        "Molecular Mass": "117.15",
        "Boiling Point": "213 °C",
        "Melting Point": "-23 °C"
    }
}