{
    "cas_no": "4079-68-9",
    "key_name": "Diethylpropargylamine",
    "cn_name": "3-二乙氨基-1-丙炔;N,N-二乙基丙炔胺;DEP;",
    "alternate_name": "2-Propyn-1-amine, <em>N</em>,<em>N</em>-diethyl-;2-Propynylamine, <em>N</em>,<em>N</em>-diethyl-;<em>N</em>,<em>N</em>-Diethyl-2-propyn-1-amine;3-(Diethylamino)propyne;<em>N</em>,<em>N</em>-Diethylpropargylamine;Diethylpropargylamine;3-(<em>N</em>,<em>N</em>-Diethylamino)propyne;<em>N</em>,<em>N</em>-Diethyl-2-propynylamine;1-(Diethylamino)-2-propyne;3-(Diethylamino)-1-propyne;Propargyldiethylamine;NSC 63868;Golpanol DEP",
    "duplicated_cas_no": "",
    "SMILES": "N(CC#C)(CC)CC",
    "meta_data": {
        "InChI": "InChI=1S/C7H13N/c1-4-7-8(5-2)6-3/h1H,5-7H2,2-3H3",
        "InChIKey": null,
        "Canonical SMILES": "C#CCN(CC)CC",
        "Molecular Formula": "C<sub>7</sub>H<sub>13</sub>N",
        "Molecular Mass": "111.18",
        "Boiling Point": "120 °C",
        "Density": "0.8042 g/cm³ @ Temp: 25 °C"
    }
}