{
    "cas_no": "2454-39-9",
    "key_name": "2-Aminobenzenecarbothioamide",
    "cn_name": "2-氨基硫代苯甲酰胺;",
    "alternate_name": "Benzenecarbothioamide, 2-amino-;Benzamide, <em>o</em>-aminothio-;2-Aminobenzenecarbothioamide;Thioanthranilamide;<em>o</em>-Aminothiobenzamide;2-Aminothiobenzamide;2-Aminobenzenethioamide;2-Aminobenzothioamide;2-Aminobenzene-1-carbothioamide",
    "duplicated_cas_no": "",
    "SMILES": "C(N)(=S)C1=C(N)C=CC=C1",
    "meta_data": {
        "InChI": "InChI=1S/C7H8N2S/c8-6-4-2-1-3-5(6)7(9)10/h1-4H,8H2,(H2,9,10)",
        "InChIKey": null,
        "Canonical SMILES": "S=C(N)C=1C=CC=CC1N",
        "Molecular Formula": "C<sub>7</sub>H<sub>8</sub>N<sub>2</sub>S",
        "Molecular Mass": "152.22",
        "Melting Point": "121.5 °C"
    }
}