{
    "cas_no": "7440-62-2",
    "key_name": "Vanadium",
    "cn_name": "钒;钒粉;",
    "alternate_name": "Vanadium;Vanadium-51;Vanadium element;Atomic vanadium;VN 200;MeSH ID: D014639",
    "duplicated_cas_no": "24763-58-4;195161-77-4",
    "SMILES": "[V]",
    "meta_data": {
        "InChI": "InChI=1S/V",
        "InChIKey": null,
        "Canonical SMILES": "[V]",
        "Molecular Formula": "V",
        "Molecular Mass": "",
        "Boiling Point": "3407 °C",
        "Melting Point": "1917 °C",
        "Density": "6.11 g/cm³ @ Temp: 18.7 °C"
    }
}