{
    "cas_no": "4897-84-1",
    "key_name": "Methyl 4-bromobutyrate",
    "cn_name": "4-溴丁酸甲酯;",
    "alternate_name": "Butanoic acid, 4-bromo-, methyl ester;Butyric acid, 4-bromo-, methyl ester;Methyl γ-bromobutyrate;Methyl 4-bromobutyrate;Methyl 4-bromobutanoate;4-Bromobutyric acid methyl ester;Methyl ω-bromobutyrate;4-Bromobutanoic acid methyl ester",
    "duplicated_cas_no": "",
    "SMILES": "C(CCCBr)(OC)=O",
    "meta_data": {
        "InChI": "InChI=1S/C5H9BrO2/c1-8-5(7)3-2-4-6/h2-4H2,1H3",
        "InChIKey": null,
        "Canonical SMILES": "O=C(OC)CCCBr",
        "Molecular Formula": "C<sub>5</sub>H<sub>9</sub>BrO<sub>2</sub>",
        "Molecular Mass": "181.03",
        "Boiling Point": "186.5 °C",
        "Melting Point": "175-190 °C",
        "Density": "1.371 g/cm³ @ Temp: 25 °C"
    }
}