{
    "cas_no": "826-85-7",
    "key_name": "1-Phenyl-1<em>H</em>-pyrazol-5-amine",
    "cn_name": "5-氨基-1-苯基吡唑;",
    "alternate_name": "1<em>H</em>-Pyrazol-5-amine, 1-phenyl-;Pyrazole, 5-amino-1-phenyl-;1-Phenyl-1<em>H</em>-pyrazol-5-amine;1-Phenyl-5-aminopyrazole;5-Amino-1-phenylpyrazole;NSC 75786;(2-Phenyl-2<em>H</em>-pyrazol-3-yl)amine;5-Amino-1-phenyl-1<em>H</em>-pyrazole;2-Phenylpyrazol-3-amine;1-Phenyl-1<em>H</em>-pyrazole-5-amine",
    "duplicated_cas_no": "",
    "SMILES": "NC=1N(N=CC1)C2=CC=CC=C2",
    "meta_data": {
        "InChI": "InChI=1S/C9H9N3/c10-9-6-7-11-12(9)8-4-2-1-3-5-8/h1-7H,10H2",
        "InChIKey": null,
        "Canonical SMILES": "N1=CC=C(N)N1C=2C=CC=CC2",
        "Molecular Formula": "C<sub>9</sub>H<sub>9</sub>N<sub>3</sub>",
        "Molecular Mass": "159.19",
        "Boiling Point": "123-130 °C @ Press: 0.2 Torr",
        "Melting Point": "50-51 °C"
    }
}