{
    "cas_no": "522-47-4",
    "key_name": "Lochnerine",
    "cn_name": null,
    "alternate_name": "Sarpagan-17-ol, 10-methoxy-;Lochnerine;10-Methoxysarpagan-17-ol;(+)-Lochnerine;10-<em>O</em>-Methylsarpagine;10-Methoxynormacusine B",
    "duplicated_cas_no": "457891-96-2",
    "SMILES": "C(O)[C@H]1[C@]2([N@@]3[C@](C4=C(C=5C(N4)=CC=C(OC)C5)C2)(C[C@]1(/C(=C\\C)/C3)[H])[H])[H]",
    "meta_data": {
        "InChI": "InChI=1S/C20H24N2O2/c1-3-11-9-22-18-8-15-14-6-12(24-2)4-5-17(14)21-20(15)19(22)7-13(11)16(18)10-23/h3-6,13,16,18-19,21,23H,7-10H2,1-2H3/b11-3-/t13-,16+,18-,19-/m0/s1",
        "InChIKey": null,
        "Canonical SMILES": "OCC1C2C(=CC)CN3C(C=4NC=5C=CC(OC)=CC5C4CC31)C2",
        "Molecular Formula": "C<sub>20</sub>H<sub>24</sub>N<sub>2</sub>O<sub>2</sub>",
        "Molecular Mass": "324.42",
        "Melting Point": "200-201 °C"
    }
}