{
    "cas_no": "4792-78-3",
    "key_name": "2-(2-Hydroxyethoxy)phenol",
    "cn_name": "2-(2-羟基乙氧基)苯酚;2-(2-羟基乙氧基)苯酚;",
    "alternate_name": "Phenol, 2-(2-hydroxyethoxy)-;Ethanol, 2-(<em>o</em>-hydroxyphenoxy)-;2-(2-Hydroxyethoxy)phenol;2-(2-Hydroxyphenoxy)ethanol;2-(<em>o</em>-Hydroxyphenoxy)ethanol;2-(2′-Hydroxyethoxy)phenol;2-[(2-Hydroxyphenyl)oxy]ethanol",
    "duplicated_cas_no": "",
    "SMILES": "O(CCO)C1=C(O)C=CC=C1",
    "meta_data": {
        "InChI": "InChI=1S/C8H10O3/c9-5-6-11-8-4-2-1-3-7(8)10/h1-4,9-10H,5-6H2",
        "InChIKey": null,
        "Canonical SMILES": "OC=1C=CC=CC1OCCO",
        "Molecular Formula": "C<sub>8</sub>H<sub>10</sub>O<sub>3</sub>",
        "Molecular Mass": "154.16",
        "Boiling Point": "128 °C @ Press: 0.7 Torr",
        "Melting Point": "96-97 °C"
    }
}