{
    "cas_no": "15972-60-8",
    "key_name": "Alachlor",
    "cn_name": "甲草胺;草甲胺;N-(2,6-二乙基苯基)-N-甲氧基甲基-氯乙酰胺;",
    "alternate_name": "Acetamide, 2-chloro-<em>N</em>-(2,6-diethylphenyl)-<em>N</em>-(methoxymethyl)-;Acetanilide, 2-chloro-2′,6′-diethyl-<em>N</em>-(methoxymethyl)-;2-Chloro-<em>N</em>-(2,6-diethylphenyl)-<em>N</em>-(methoxymethyl)acetamide;CP 50144;Lasso;2-Chloro-2′,6′-diethyl-<em>N</em>-methoxymethylacetanilide;2′,6′-Diethyl-<em>N</em>-(methoxymethyl)-2-chloroacetanilide;Alachlor;Metachlor;Methachlor;Lasagrin;Nitala;Alapaz;Satochlor;Lazo;Perfect;Micro-Tech;Alanex;Perfect (herbicide);Lasso Microtech;Intrro",
    "duplicated_cas_no": "",
    "SMILES": "N(C(CCl)=O)(COC)C1=C(CC)C=CC=C1CC",
    "meta_data": {
        "InChI": "InChI=1S/C14H20ClNO2/c1-4-11-7-6-8-12(5-2)14(11)16(10-18-3)13(17)9-15/h6-8H,4-5,9-10H2,1-3H3",
        "InChIKey": null,
        "Canonical SMILES": "O=C(N(C=1C(=CC=CC1CC)CC)COC)CCl",
        "Molecular Formula": "C<sub>14</sub>H<sub>20</sub>ClNO<sub>2</sub>",
        "Molecular Mass": "269.77",
        "Boiling Point": "100 °C",
        "Melting Point": "40-41 °C",
        "Density": "1.133 g/cm³ @ Temp: 25 °C"
    }
}