{
    "cas_no": "80-05-7",
    "key_name": "2,2-Bis(4-hydroxyphenyl)propane",
    "cn_name": "双酚A;二酚基丙烷;2,2-双对羟苯基丙烷;BPA;",
    "alternate_name": "Phenol, 4,4′-(1-methylethylidene)bis-;Phenol, 4,4′-isopropylidenedi-;4,4′-(1-Methylethylidene)bis[phenol];2,2-Bis(<em>p</em>-hydroxyphenyl)propane;2,2-Bis(4-hydroxyphenyl)propane;Bisphenol A;Dian;2,2-Di(4-phenylol)propane;<em>p</em>,<em>p</em>′-Isopropylidenebisphenol;<em>p</em>,<em>p</em>′-Isopropylidenediphenol;Diphenylolpropane;Bis(4-hydroxyphenyl)dimethylmethane;Diano;Pluracol 245;Isopropylidenebis(4-hydroxybenzene);(4,4′-Dihydroxydiphenyl)dimethylmethane;β,β′-Bis(<em>p</em>-hydroxyphenyl)propane;4,4′-Isopropylidenebis[phenol];Bis(<em>p</em>-hydroxyphenyl)propane;4,4′-Isopropylidenediphenol;Parabis A;<em>p</em>,<em>p</em>′-Dihydroxydiphenylpropane;<em>p</em>,<em>p</em>′-Bisphenol A;Ipognox 88;Rikabanol;Parabis;2,2-Di(4-hydroxyphenyl)propane;BPA 154;Hidorin F 285;BPA 157;2,2′-Bis(4-hydroxyphenyl)propane;4,4′-Methylethylidenebisphenol;B 0494;NSC 1767;NSC 17959;HT 3082;BPA;BPA-M;Hidorin F 568;4,4′-(Propane-2,2-diyl)diphenol;Nupole BPE-60;HG 3876",
    "duplicated_cas_no": "27360-89-0;28106-82-3;37808-08-5;137885-53-1;146479-75-6;1429425-26-2",
    "SMILES": "C(C)(C)(C1=CC=C(O)C=C1)C2=CC=C(O)C=C2",
    "meta_data": {
        "InChI": "InChI=1S/C15H16O2/c1-15(2,11-3-7-13(16)8-4-11)12-5-9-14(17)10-6-12/h3-10,16-17H,1-2H3",
        "InChIKey": null,
        "Canonical SMILES": "OC1=CC=C(C=C1)C(C2=CC=C(O)C=C2)(C)C",
        "Molecular Formula": "C<sub>15</sub>H<sub>16</sub>O<sub>2</sub>",
        "Molecular Mass": "228.29",
        "Boiling Point": "250 °C @ Press: 13 Torr",
        "Melting Point": "150-155 °C",
        "Density": "1.195 g/cm³ @ Temp: 25 °C"
    }
}