{
    "cas_no": "502-44-3",
    "key_name": "ε-Caprolactone",
    "cn_name": "6-己内酯;epsilon-己内酯;",
    "alternate_name": "2-Oxepanone;Hexanoic acid, 6-hydroxy-, lactone;Caprolactone;ε-Caprolactone;Epsilon-caprolactone;Hexanoic acid, 6-hydroxy-, ε-lactone;Hexamethylene oxide, 2-oxo-;6-Hexanolactone;6-Hydroxyhexanoic acid lactone;1,6-Hexanolide;Placcel M;Caprolactone A;2-Oxooxopane;6-Hexanolide;ε-Hexanolactone;Tone Monomer EC;Tone ECEQ;Nyrim 1 Additive 6;C 0702",
    "duplicated_cas_no": "52004-64-5;67184-99-0;80137-66-2",
    "SMILES": "O=C1CCCCCO1",
    "meta_data": {
        "InChI": "InChI=1S/C6H10O2/c7-6-4-2-1-3-5-8-6/h1-5H2",
        "InChIKey": null,
        "Canonical SMILES": "O=C1OCCCCC1",
        "Molecular Formula": "C<sub>6</sub>H<sub>10</sub>O<sub>2</sub>",
        "Molecular Mass": "114.14",
        "Boiling Point": "215 °C",
        "Melting Point": "-18 °C",
        "Density": "1.029 g/cm³ @ Temp: 26 °C"
    }
}