{
    "cas_no": "34981-38-9",
    "key_name": "5-Chloro-2-methylbenzenesulfonyl chloride",
    "cn_name": null,
    "alternate_name": "Benzenesulfonyl chloride, 5-chloro-2-methyl-;<em>o</em>-Toluenesulfonyl chloride, 5-chloro-;5-Chloro-2-methylbenzenesulfonyl chloride;2-Methyl-5-chlorobenzenesulfonyl chloride;5-Chloro-<em>o</em>-toluenesulfonyl chloride;3-Chloro-6-methylbenzenesulfonyl chloride;NSC 295387",
    "duplicated_cas_no": "",
    "SMILES": "S(Cl)(=O)(=O)C1=C(C)C=CC(Cl)=C1",
    "meta_data": {
        "InChI": "InChI=1S/C7H6Cl2O2S/c1-5-2-3-6(8)4-7(5)12(9,10)11/h2-4H,1H3",
        "InChIKey": null,
        "Canonical SMILES": "O=S(=O)(Cl)C1=CC(Cl)=CC=C1C",
        "Molecular Formula": "C<sub>7</sub>H<sub>6</sub>Cl<sub>2</sub>O<sub>2</sub>S",
        "Molecular Mass": "225.09",
        "Boiling Point": "154 °C @ Press: 16 Torr",
        "Melting Point": "24 °C"
    }
}