{
    "cas_no": "40323-88-4",
    "key_name": "2-Ethyl-5-methylthiophene",
    "cn_name": "2-乙基-5-甲基噻吩;5-甲基-2-乙基噻吩;",
    "alternate_name": "Thiophene, 2-ethyl-5-methyl-;2-Ethyl-5-methylthiophene;2-Methyl-5-ethylthiophene",
    "duplicated_cas_no": "",
    "SMILES": "C(C)C=1SC(C)=CC1",
    "meta_data": {
        "InChI": "InChI=1S/C7H10S/c1-3-7-5-4-6(2)8-7/h4-5H,3H2,1-2H3",
        "InChIKey": null,
        "Canonical SMILES": "S1C(=CC=C1CC)C",
        "Molecular Formula": "C<sub>7</sub>H<sub>10</sub>S",
        "Molecular Mass": "126.22",
        "Boiling Point": "53-55 °C @ Press: 22 Torr",
        "Density": "0.9577 g/cm³ @ Temp: 20 °C"
    }
}