{
    "cas_no": "2124-31-4",
    "key_name": "1-[4-(Dimethylamino)phenyl]ethanone",
    "cn_name": null,
    "alternate_name": "Ethanone, 1-[4-(dimethylamino)phenyl]-;Acetophenone, 4′-(dimethylamino)-;1-[4-(Dimethylamino)phenyl]ethanone;<em>p</em>-(Dimethylamino)acetophenone;4′-(Dimethylamino)acetophenone;4′-(<em>N</em>,<em>N</em>-Dimethylamino)acetophenone;4-Acetyl-<em>N</em>,<em>N</em>-dimethylaniline;4-(Dimethylamino)phenyl methyl ketone;<em>p</em>-(<em>N</em>,<em>N</em>-Dimethylamino)acetophenone;NSC 74022;1-(4-(Dimethylamino)phenyl)ethan-1-one",
    "duplicated_cas_no": "",
    "SMILES": "C(C)(=O)C1=CC=C(N(C)C)C=C1",
    "meta_data": {
        "InChI": "InChI=1S/C10H13NO/c1-8(12)9-4-6-10(7-5-9)11(2)3/h4-7H,1-3H3",
        "InChIKey": null,
        "Canonical SMILES": "O=C(C1=CC=C(C=C1)N(C)C)C",
        "Molecular Formula": "C<sub>10</sub>H<sub>13</sub>NO",
        "Molecular Mass": "163.22",
        "Boiling Point": "172-175 °C @ Press: 11 Torr",
        "Melting Point": "103 °C"
    }
}