{
    "cas_no": "16110-09-1",
    "key_name": "2,5-Dichloropyridine",
    "cn_name": "2,5-二氯吡啶;",
    "alternate_name": "Pyridine, 2,5-dichloro-;2,5-Dichloropyridine;NSC 528661;5-Chloro-2-chloropyridine",
    "duplicated_cas_no": "",
    "SMILES": "ClC=1C=CC(Cl)=NC1",
    "meta_data": {
        "InChI": "InChI=1S/C5H3Cl2N/c6-4-1-2-5(7)8-3-4/h1-3H",
        "InChIKey": null,
        "Canonical SMILES": "ClC1=NC=C(Cl)C=C1",
        "Molecular Formula": "C<sub>5</sub>H<sub>3</sub>Cl<sub>2</sub>N",
        "Molecular Mass": "147.99",
        "Melting Point": "59-62 °C"
    }
}