{
    "cas_no": "13749-61-6",
    "key_name": "<em>N</em>-Isopropylmethacrylamide",
    "cn_name": "N-异丙基甲基丙烯酰胺;",
    "alternate_name": "2-Propenamide, 2-methyl-<em>N</em>-(1-methylethyl)-;Acrylamide, <em>N</em>-isopropyl-2-methyl-;2-Methyl-<em>N</em>-(1-methylethyl)-2-propenamide;<em>N</em>-Isopropylmethacrylamide;2-Methyl-<em>N</em>-propan-2-ylprop-2-enamide;2-Methyl-<em>N</em>-(propan-2-yl)prop-2-enamide",
    "duplicated_cas_no": "",
    "SMILES": "C(NC(C)C)(C(C)=C)=O",
    "meta_data": {
        "InChI": "InChI=1S/C7H13NO/c1-5(2)7(9)8-6(3)4/h6H,1H2,2-4H3,(H,8,9)",
        "InChIKey": null,
        "Canonical SMILES": "O=C(NC(C)C)C(=C)C",
        "Molecular Formula": "C<sub>7</sub>H<sub>13</sub>NO",
        "Molecular Mass": "127.18",
        "Melting Point": "87.8 °C"
    }
}