{
    "cas_no": "2013-12-9",
    "key_name": "<span class=\"text-smallcaps\">D</span>-Norvaline",
    "cn_name": "D-正缬氨酸;R-2-氨基戊酸;",
    "alternate_name": "<span class=\"text-smallcaps\">D</span>-Norvaline;Norvaline, <span class=\"text-smallcaps\">D</span>-;(<em>R</em>)-Norvaline;<span class=\"text-smallcaps\">D</span>-α-Aminovaleric acid;(<em>R</em>)-2-Aminopentanoic acid;(2R)-2-Aminopentanoic acid;<span class=\"text-smallcaps\">D</span>-2-Aminopentanoic acid",
    "duplicated_cas_no": "",
    "SMILES": "[C@@H](CCC)(C(O)=O)N",
    "meta_data": {
        "InChI": "InChI=1S/C5H11NO2/c1-2-3-4(6)5(7)8/h4H,2-3,6H2,1H3,(H,7,8)/t4-/m1/s1",
        "InChIKey": null,
        "Canonical SMILES": "O=C(O)C(N)CCC",
        "Molecular Formula": "C<sub>5</sub>H<sub>11</sub>NO<sub>2</sub>",
        "Molecular Mass": "117.15",
        "Melting Point": "223-224 °C"
    }
}