{
    "cas_no": "1136-86-3",
    "key_name": "3′,4′,5′-Trimethoxyacetophenone",
    "cn_name": "3\",4\",5\"-三甲氧基苯乙酮;3,4,5-三甲氧基苯乙酮;",
    "alternate_name": "Ethanone, 1-(3,4,5-trimethoxyphenyl)-;Acetophenone, 3′,4′,5′-trimethoxy-;1-(3,4,5-Trimethoxyphenyl)ethanone;3′,4′,5′-Trimethoxyacetophenone;3,4,5-Trimethoxyphenyl methyl ketone;1-(3,4,5-Trimethoxyphenyl)-1-ethanone;Methyl 3,4,5-trimethoxyphenyl ketone;NSC 30099",
    "duplicated_cas_no": "",
    "SMILES": "O(C)C1=C(OC)C=C(C(C)=O)C=C1OC",
    "meta_data": {
        "InChI": "InChI=1S/C11H14O4/c1-7(12)8-5-9(13-2)11(15-4)10(6-8)14-3/h5-6H,1-4H3",
        "InChIKey": null,
        "Canonical SMILES": "O=C(C1=CC(OC)=C(OC)C(OC)=C1)C",
        "Molecular Formula": "C<sub>11</sub>H<sub>14</sub>O<sub>4</sub>",
        "Molecular Mass": "210.23",
        "Boiling Point": "132-134 °C @ Press: 1 Torr",
        "Melting Point": "72 °C"
    }
}