{
    "cas_no": "64248-64-2",
    "key_name": "2,5-Difluorobenzonitrile",
    "cn_name": "2,5-二氟苯腈;",
    "alternate_name": "Benzonitrile, 2,5-difluoro-;2,5-Difluorobenzonitrile",
    "duplicated_cas_no": "",
    "SMILES": "C(#N)C1=C(F)C=CC(F)=C1",
    "meta_data": {
        "InChI": "InChI=1S/C7H3F2N/c8-6-1-2-7(9)5(3-6)4-10/h1-3H",
        "InChIKey": null,
        "Canonical SMILES": "N#CC1=CC(F)=CC=C1F",
        "Molecular Formula": "C<sub>7</sub>H<sub>3</sub>F<sub>2</sub>N",
        "Molecular Mass": "139.10",
        "Boiling Point": "87-92 °C @ Press: 30 Torr"
    }
}