{
    "cas_no": "22476-74-0",
    "key_name": "3,3-Dimethyl-2-piperazinone",
    "cn_name": null,
    "alternate_name": "2-Piperazinone, 3,3-dimethyl-;Piperazinone, 3,3-dimethyl-;3,3-Dimethyl-2-piperazinone;3,3-Dimethylpiperazin-2-one;3,3-Dimethyl-1-piperazin-2-one",
    "duplicated_cas_no": "2172790-92-8",
    "SMILES": "O=C1C(C)(C)NCCN1",
    "meta_data": {
        "InChI": "InChI=1S/C6H12N2O/c1-6(2)5(9)7-3-4-8-6/h8H,3-4H2,1-2H3,(H,7,9)",
        "InChIKey": null,
        "Canonical SMILES": "O=C1NCCNC1(C)C",
        "Molecular Formula": "C<sub>6</sub>H<sub>12</sub>N<sub>2</sub>O",
        "Molecular Mass": "128.17",
        "Melting Point": "134 °C"
    }
}