{
    "cas_no": "64965-48-6",
    "key_name": "4-Quinolinol, 3-iodo-",
    "cn_name": null,
    "alternate_name": "4-Quinolinol, 3-iodo-;3-Iodo-4-quinolinol",
    "duplicated_cas_no": "",
    "SMILES": "OC=1C2=C(N=CC1I)C=CC=C2",
    "meta_data": {
        "InChI": "InChI=1S/C9H6INO/c10-7-5-11-8-4-2-1-3-6(8)9(7)12/h1-5H,(H,11,12)",
        "InChIKey": null,
        "Canonical SMILES": "IC1=CN=C2C=CC=CC2=C1O",
        "Molecular Formula": "C<sub>9</sub>H<sub>6</sub>INO",
        "Molecular Mass": "271.05",
        "Melting Point": "301-302 °C"
    }
}