{
    "cas_no": "18765-09-8",
    "key_name": "Trioctylsilane",
    "cn_name": "三辛基硅烷;",
    "alternate_name": "Silane, trioctyl-;Trioctylsilane;NSC 139862",
    "duplicated_cas_no": "",
    "SMILES": "[SiH](CCCCCCCC)(CCCCCCCC)CCCCCCCC",
    "meta_data": {
        "InChI": "InChI=1S/C24H52Si/c1-4-7-10-13-16-19-22-25(23-20-17-14-11-8-5-2)24-21-18-15-12-9-6-3/h25H,4-24H2,1-3H3",
        "InChIKey": null,
        "Canonical SMILES": "CCCCCCCC[SiH](CCCCCCCC)CCCCCCCC",
        "Molecular Formula": "C<sub>24</sub>H<sub>52</sub>Si",
        "Molecular Mass": "368.76",
        "Boiling Point": "163-165 °C @ Press: 0.15 Torr",
        "Density": "0.821 g/cm³"
    }
}