{
    "cas_no": "1214-47-7",
    "key_name": "2′-Hydroxychalcone",
    "cn_name": null,
    "alternate_name": "2-Propen-1-one, 1-(2-hydroxyphenyl)-3-phenyl-;Chalcone, 2′-hydroxy-;1-(2-Hydroxyphenyl)-3-phenyl-2-propen-1-one;<em>o</em>-Hydroxychalcone;2′-Hydroxychalcone;<em>o</em>-Cinnamoylphenol;3-Phenyl-1-(2-hydroxyphenyl)-2-propen-1-one;RVC 556;NSC 18939;2-(3-Phenyl-2-propenoyl)phenol",
    "duplicated_cas_no": "",
    "SMILES": "C(C=CC1=CC=CC=C1)(=O)C2=C(O)C=CC=C2",
    "meta_data": {
        "InChI": "InChI=1S/C15H12O2/c16-14-9-5-4-8-13(14)15(17)11-10-12-6-2-1-3-7-12/h1-11,16H",
        "InChIKey": null,
        "Canonical SMILES": "O=C(C=CC=1C=CC=CC1)C=2C=CC=CC2O",
        "Molecular Formula": "C<sub>15</sub>H<sub>12</sub>O<sub>2</sub>",
        "Molecular Mass": "224.25",
        "Melting Point": "89 °C"
    }
}