{
    "cas_no": "1183-04-6",
    "key_name": "Cholesteryl decanoate",
    "cn_name": "胆甾烯基癸酸酯;胆甾醇癸酸酯;",
    "alternate_name": "Cholest-5-en-3-ol (3β)-, 3-decanoate;Cholesterol, decanoate;Cholest-5-en-3-ol (3β)-, decanoate;Decanoic acid, cholesteryl ester;Cholesteryl caprate;Cholesterol caprate;Cholesteryl decanoate;Cholesteryl caprinate;Cholesterol <em>n</em>-decylate;Cholesteryl <em>n</em>-decylate;Cholesteryl decylate;3β-(Decanoyloxy)-5-cholestene;Cholesterol 3-decanoate;Cholest-5-en-3β-ol caprate;5-Cholesten-3β-ol caprate",
    "duplicated_cas_no": "141123-69-5",
    "SMILES": "C[C@@]12[C@@]3([C@]([C@]4([C@](C)(CC3)[C@@]([C@@H](CCCC(C)C)C)(CC4)[H])[H])(CC=C1C[C@@H](OC(CCCCCCCCC)=O)CC2)[H])[H]",
    "meta_data": {
        "InChI": "InChI=1S/C37H64O2/c1-7-8-9-10-11-12-13-17-35(38)39-30-22-24-36(5)29(26-30)18-19-31-33-21-20-32(28(4)16-14-15-27(2)3)37(33,6)25-23-34(31)36/h18,27-28,30-34H,7-17,19-26H2,1-6H3/t28-,30+,31+,32-,33+,34+,36+,37-/m1/s1",
        "InChIKey": null,
        "Canonical SMILES": "O=C(OC1CC2=CCC3C(CCC4(C)C(CCC34)C(C)CCCC(C)C)C2(C)CC1)CCCCCCCCC",
        "Molecular Formula": "C<sub>37</sub>H<sub>64</sub>O<sub>2</sub>",
        "Molecular Mass": "540.90",
        "Melting Point": "91.0 °C"
    }
}