{
    "cas_no": "504-15-4",
    "key_name": "Orcinol",
    "cn_name": "3,5-二羟基甲苯;5-甲基间苯二酚;",
    "alternate_name": "1,3-Benzenediol, 5-methyl-;Resorcinol, 5-methyl-;5-Methyl-1,3-benzenediol;1,3-Dihydroxy-5-methylbenzene;3,5-Dihydroxytoluene;5-Methylresorcinol;Orcin;Orcinol;3-Hydroxy-5-methylphenol;5-Methyl-1,3-dihydroxybenzene;1,5-Dihydroxy-3-methylbenzene;NSC 12441",
    "duplicated_cas_no": "",
    "SMILES": "CC1=CC(O)=CC(O)=C1",
    "meta_data": {
        "InChI": "InChI=1S/C7H8O2/c1-5-2-6(8)4-7(9)3-5/h2-4,8-9H,1H3",
        "InChIKey": null,
        "Canonical SMILES": "OC=1C=C(O)C=C(C1)C",
        "Molecular Formula": "C<sub>7</sub>H<sub>8</sub>O<sub>2</sub>",
        "Molecular Mass": "124.14",
        "Boiling Point": "289.5 °C",
        "Melting Point": "107.5 °C",
        "Density": "2.32 g/cm³"
    }
}