{
    "cas_no": "3530-36-7",
    "key_name": "2-Phenylethyl acrylate",
    "cn_name": null,
    "alternate_name": "2-Propenoic acid, 2-phenylethyl ester;Acrylic acid, phenethyl ester;Phenethyl alcohol, acrylate;Phenethyl acrylate;2-Phenylethyl acrylate;2-Phenylethyl prop-2-enoate",
    "duplicated_cas_no": "",
    "SMILES": "C(COC(C=C)=O)C1=CC=CC=C1",
    "meta_data": {
        "InChI": "InChI=1S/C11H12O2/c1-2-11(12)13-9-8-10-6-4-3-5-7-10/h2-7H,1,8-9H2",
        "InChIKey": null,
        "Canonical SMILES": "O=C(OCCC=1C=CC=CC1)C=C",
        "Molecular Formula": "C<sub>11</sub>H<sub>12</sub>O<sub>2</sub>",
        "Molecular Mass": "176.21",
        "Boiling Point": "104 °C @ Press: 5.0 Torr",
        "Density": "1.0369 g/cm³ @ Temp: 20 °C"
    }
}