{
    "cas_no": "34404-36-9",
    "key_name": "<em>N</em><sup>2</sup>-[(1,1-Dimethylethoxy)carbonyl]-<em>N</em><sup>6</sup>-[(phenylmethoxy)carbonyl]-<span class=\"text-smallcaps\">L</span>-lysine 2,5-dioxo-1-pyrrolidinyl ester",
    "cn_name": null,
    "alternate_name": "<span class=\"text-smallcaps\">L</span>-Lysine, <em>N</em><sup>2</sup>-[(1,1-dimethylethoxy)carbonyl]-<em>N</em><sup>6</sup>-[(phenylmethoxy)carbonyl]-, 2,5-dioxo-1-pyrrolidinyl ester;Carbamic acid, [5-[[(1,1-dimethylethoxy)carbonyl]amino]-6-[(2,5-dioxo-1-pyrrolidinyl)oxy]-6-oxohexyl]-, phenylmethyl ester, (<em>S</em>)-;Succinimide, <em>N</em>-[(<em>N</em><sup>2</sup>,<em>N</em><sup>6</sup>-dicarboxy-<span class=\"text-smallcaps\">L</span>-lysyl)oxy]-, <em>N</em><sup>6</sup>-benzyl <em>tert</em>-butyl ester;Carbamic acid, [(5<em>S</em>)-5-[[(1,1-dimethylethoxy)carbonyl]amino]-6-[(2,5-dioxo-1-pyrrolidinyl)oxy]-6-oxohexyl]-, phenylmethyl ester;<em>N</em><sup>2</sup>-[(1,1-Dimethylethoxy)carbonyl]-<em>N</em><sup>6</sup>-[(phenylmethoxy)carbonyl]-<span class=\"text-smallcaps\">L</span>-lysine 2,5-dioxo-1-pyrrolidinyl ester;<em>N</em><sup>α</sup>-(<em>tert</em>-Butyloxycarbonyl)-<em>N</em><sup>ε</sup>-(benzyloxycarbonyl)-<span class=\"text-smallcaps\">L</span>-lysine <em>N</em>-hydroxysuccinimide ester;α-(<em>tert</em>-Butyloxycarbonyl)-ε-(carbobenzoxy)-<span class=\"text-smallcaps\">L</span>-lysine ester with <em>N</em>-hydroxysuccinimide;<em>tert</em>-Butyloxycarbonyl-benzyloxycarbonyl-<span class=\"text-smallcaps\">L</span>-lysine <em>N</em>-hydroxysuccinimide ester;(2,5-Dioxopyrrolidin-1-yl) (2S)-2-[(2-methylpropan-2-yl)oxycarbonylamino]-6-(phenylmethoxycarbonylamino)hexanoate",
    "duplicated_cas_no": "",
    "SMILES": "O(C([C@@H](NC(OC(C)(C)C)=O)CCCCNC(OCC1=CC=CC=C1)=O)=O)N2C(=O)CCC2=O",
    "meta_data": {
        "InChI": "InChI=1S/C23H31N3O8/c1-23(2,3)33-22(31)25-17(20(29)34-26-18(27)12-13-19(26)28)11-7-8-14-24-21(30)32-15-16-9-5-4-6-10-16/h4-6,9-10,17H,7-8,11-15H2,1-3H3,(H,24,30)(H,25,31)/t17-/m0/s1",
        "InChIKey": null,
        "Canonical SMILES": "O=C(OCC=1C=CC=CC1)NCCCCC(NC(=O)OC(C)(C)C)C(=O)ON2C(=O)CCC2=O",
        "Molecular Formula": "C<sub>23</sub>H<sub>31</sub>N<sub>3</sub>O<sub>8</sub>",
        "Molecular Mass": "477.51",
        "Melting Point": "110-111 °C"
    }
}