{
    "cas_no": "35044-57-6",
    "key_name": "Ethyl 2,6,6-trimethyl-2,4-cyclohexadiene-1-carboxylate",
    "cn_name": "2,6,6-三甲基-2,4-环己二烯-1-甲酸乙酯;",
    "alternate_name": "2,4-Cyclohexadiene-1-carboxylic acid, 2,6,6-trimethyl-, ethyl ester;Ethyl 2,6,6-trimethyl-2,4-cyclohexadiene-1-carboxylate;Ethyl α-safranate;2,6,6-Trimethyl-1-ethoxycarbonylcyclohexa-2,4-diene",
    "duplicated_cas_no": "",
    "SMILES": "C(OCC)(=O)C1C(C)(C)C=CC=C1C",
    "meta_data": {
        "InChI": "InChI=1S/C12H18O2/c1-5-14-11(13)10-9(2)7-6-8-12(10,3)4/h6-8,10H,5H2,1-4H3",
        "InChIKey": null,
        "Canonical SMILES": "O=C(OCC)C1C(=CC=CC1(C)C)C",
        "Molecular Formula": "C<sub>12</sub>H<sub>18</sub>O<sub>2</sub>",
        "Molecular Mass": "194.27",
        "Boiling Point": "102-103 °C @ Press: 12 Torr"
    }
}