{
    "cas_no": "19427-82-8",
    "key_name": "Selinidin",
    "cn_name": null,
    "alternate_name": "2-Butenoic acid, 2-methyl-, (9<em>S</em>)-9,10-dihydro-8,8-dimethyl-2-oxo-2<em>H</em>,8<em>H</em>-benzo[1,2-<em>b</em>:3,4-<em>b</em>′]dipyran-9-yl ester, (2<em>Z</em>)-;Crotonic acid, 2-methyl-, ester with 9,10-dihydro-9-hydroxy-8,8-dimethyl-2<em>H</em>,8<em>H</em>-benzo[1,2-<em>b</em>:3,4-<em>b</em>′]dipyran-2-one, (<em>Z</em>)-(<em>S</em>)-;2-Butenoic acid, 2-methyl-, 9,10-dihydro-8,8-dimethyl-2-oxo-2<em>H</em>,8<em>H</em>-benzo[1,2-<em>b</em>:3,4-<em>b</em>′]dipyran-9-yl ester, [<em>S</em>-(<em>Z</em>)]-;2<em>H</em>,8<em>H</em>-Benzo[1,2-<em>b</em>:3,4-<em>b</em>′]dipyran, 2-butenoic acid deriv.;Selinidin;Secryptotaenin A",
    "duplicated_cas_no": "1165-60-2;3848-80-4;21869-20-5",
    "SMILES": "O(C(/C(=C\\C)/C)=O)[C@H]1CC=2C3=C(C=CC2OC1(C)C)C=CC(=O)O3",
    "meta_data": {
        "InChI": "InChI=1S/C19H20O5/c1-5-11(2)18(21)22-15-10-13-14(24-19(15,3)4)8-6-12-7-9-16(20)23-17(12)13/h5-9,15H,10H2,1-4H3/b11-5-/t15-/m0/s1",
        "InChIKey": null,
        "Canonical SMILES": "O=C1OC2=C(C=C1)C=CC=3OC(C)(C)C(OC(=O)C(=CC)C)CC32",
        "Molecular Formula": "C<sub>19</sub>H<sub>20</sub>O<sub>5</sub>",
        "Molecular Mass": "328.36",
        "Melting Point": "97-98 °C"
    }
}