{
    "cas_no": "1662-01-7",
    "key_name": "4,7-Diphenyl-1,10-phenanthroline",
    "cn_name": "4,7-二苯基-1,10-菲罗啉;",
    "alternate_name": "1,10-Phenanthroline, 4,7-diphenyl-;4,7-Diphenyl-1,10-phenanthroline;Bathophenanthroline;4,7-Diphenyl-1,10-diazaphenanthrene;1,10-Bathophenanthroline;4,7-Diphenyl-<em>o</em>-phenanthroline;NSC 637659;BPhen;DPA;4′,7-Diphenyl-1,10-phenanthroline;1,10-Phenanthroline, 3,6-diphenyl-",
    "duplicated_cas_no": "100756-39-6;2691801-63-3",
    "SMILES": "C12=C3C(C(=CC=N3)C4=CC=CC=C4)=CC=C1C(=CC=N2)C5=CC=CC=C5",
    "meta_data": {
        "InChI": "InChI=1S/C24H16N2/c1-3-7-17(8-4-1)19-13-15-25-23-21(19)11-12-22-20(14-16-26-24(22)23)18-9-5-2-6-10-18/h1-16H",
        "InChIKey": null,
        "Canonical SMILES": "N=1C=CC(C=2C=CC=CC2)=C3C=CC=4C(=NC=CC4C5=CC=CC=C5)C13",
        "Molecular Formula": "C<sub>24</sub>H<sub>16</sub>N<sub>2</sub>",
        "Molecular Mass": "332.40",
        "Melting Point": "215-216 °C"
    }
}