{
    "cas_no": "1462-12-0",
    "key_name": "1,3-Diethyl 2-ethylidenepropanedioate",
    "cn_name": "亚乙基丙二酸二乙酯;亚乙基丙二酸二乙酯;亚乙基丙二酸二乙酯,99%;",
    "alternate_name": "Propanedioic acid, 2-ethylidene-, 1,3-diethyl ester;Malonic acid, ethylidene-, diethyl ester;Propanedioic acid, ethylidene-, diethyl ester;1,3-Diethyl 2-ethylidenepropanedioate;Ethylidenemalonic acid diethyl ester;Diethyl ethylidene malonate;Ethyl 2-ethoxycarbonyl-2-butenoate;Ethylidenepropanedioic acid diethyl ester;NSC 1084;Diethyl 2-ethylidenemalonate;2-Ethylidenemalonic acid diethyl ester",
    "duplicated_cas_no": "",
    "SMILES": "C(C(OCC)=O)(C(OCC)=O)=CC",
    "meta_data": {
        "InChI": "InChI=1S/C9H14O4/c1-4-7(8(10)12-5-2)9(11)13-6-3/h4H,5-6H2,1-3H3",
        "InChIKey": null,
        "Canonical SMILES": "O=C(OCC)C(=CC)C(=O)OCC",
        "Molecular Formula": "C<sub>9</sub>H<sub>14</sub>O<sub>4</sub>",
        "Molecular Mass": "186.21",
        "Boiling Point": "116-118 °C @ Press: 20 Torr",
        "Density": "1.0425 g/cm³ @ Temp: 20 °C"
    }
}