{
    "cas_no": "65-31-6",
    "key_name": "(-)-Nicotine hydrogen (+)-tartrate",
    "cn_name": "L-酒石酸烟碱盐;(-)-尼古丁二酒石酸盐;3-[(2S)-1-甲基吡咯烷-2-基]吡啶二酒石酸盐;",
    "alternate_name": "Pyridine, 3-[(2<em>S</em>)-1-methyl-2-pyrrolidinyl]-, (2<em>R</em>,3<em>R</em>)-2,3-dihydroxybutanedioate (1:2);Nicotine, tartrate (1:2);Pyridine, 3-(1-methyl-2-pyrrolidinyl)-, (<em>S</em>)-, [<em>R</em>-(<em>R</em>*,<em>R</em>*)]-2,3-dihydroxybutanedioate (1:2);Nicotine acid tartrate;Nicotine bitartrate;Nicotine hydrogen tartrate;Nicotine tartrate;(-)-Nicotine hydrogen (+)-tartrate;Nicotine hydrogen (+)-tartrate;<em>S</em>-(-)-Nicotine hydrogen-(+)-tartrate;NSC 97238;(-)-Nicotine ditartrate;NP002",
    "duplicated_cas_no": "2624-48-8;4547-14-2",
    "SMILES": "[C@@H]([C@H](C(O)=O)O)(C(O)=O)O.CN1[C@@H](CCC1)C=2C=CC=NC2",
    "meta_data": {
        "InChI": "InChI=1S/C10H14N2.C4H6O6/c1-12-7-3-5-10(12)9-4-2-6-11-8-9;5-1(3(7)8)2(6)4(9)10/h2,4,6,8,10H,3,5,7H2,1H3;1-2,5-6H,(H,7,8)(H,9,10)/t10-;1-,2-/m01/s1",
        "InChIKey": null,
        "Canonical SMILES": "O=C(O)C(O)C(O)C(=O)O.N=1C=CC=C(C1)C2N(C)CCC2",
        "Molecular Formula": "C<sub>10</sub>H<sub>14</sub>N<sub>2</sub>.2C<sub>4</sub>H<sub>6</sub>O<sub>6</sub>",
        "Molecular Mass": "",
        "Melting Point": "89 °C"
    }
}