{
    "cas_no": "3938-95-2",
    "key_name": "Ethyl pivalate",
    "cn_name": "三甲基乙酸乙酯;叔戊酸乙酯;2,2-二甲基丙酸乙酯;",
    "alternate_name": "Propanoic acid, 2,2-dimethyl-, ethyl ester;Pivalic acid, ethyl ester;Ethyl pivalate;Ethyl 2,2-dimethylpropionate;Ethyl 2,2-dimethylpropanoate;Ethyl trimethylacetate;NSC 17494",
    "duplicated_cas_no": "",
    "SMILES": "C(C(C)(C)C)(OCC)=O",
    "meta_data": {
        "InChI": "InChI=1S/C7H14O2/c1-5-9-6(8)7(2,3)4/h5H2,1-4H3",
        "InChIKey": null,
        "Canonical SMILES": "O=C(OCC)C(C)(C)C",
        "Molecular Formula": "C<sub>7</sub>H<sub>14</sub>O<sub>2</sub>",
        "Molecular Mass": "130.18",
        "Boiling Point": "118.4 °C",
        "Melting Point": "-89.5 °C",
        "Density": "0.8555 g/cm³ @ Temp: 20 °C"
    }
}