{
    "cas_no": "3561-67-9",
    "key_name": "1,1′-[Methylenebis(thio)]bis[benzene]",
    "cn_name": null,
    "alternate_name": "Benzene, 1,1′-[methylenebis(thio)]bis-;Methane, bis(phenylthio)-;1,1′-[Methylenebis(thio)]bis[benzene];Bis(phenylthio)methane;Formaldehyde diphenyl mercaptal;Formaldehyde bis(phenylthio) acetal;Formaldehyde diphenyl dithioacetal;Di(phenylthio)methane;NSC 65477;Bis(phenylsulfanyl)methane",
    "duplicated_cas_no": "",
    "SMILES": "S(CSC1=CC=CC=C1)C2=CC=CC=C2",
    "meta_data": {
        "InChI": "InChI=1S/C13H12S2/c1-3-7-12(8-4-1)14-11-15-13-9-5-2-6-10-13/h1-10H,11H2",
        "InChIKey": null,
        "Canonical SMILES": "S(C=1C=CC=CC1)CSC=2C=CC=CC2",
        "Molecular Formula": "C<sub>13</sub>H<sub>12</sub>S<sub>2</sub>",
        "Molecular Mass": "232.36",
        "Boiling Point": "194 °C @ Press: 8 Torr",
        "Melting Point": "35-36 °C"
    }
}