{
    "cas_no": "2236-60-4",
    "key_name": "Pterin",
    "cn_name": "2-氨基-4-羟基蝶啶;",
    "alternate_name": "4(3<em>H</em>)-Pteridinone, 2-amino-;4(1<em>H</em>)-Pteridinone, 2-amino-;2-Amino-4(3<em>H</em>)-pteridinone;Pterin;2-Amino-4-hydroxypteridine;Pteridoxamine;2-Amino-4-pteridone;4-Oxopterin;4-Oxo-2-aminopteridine;2-Amino-4(1<em>H</em>)-pteridinone;2-Amino-4-oxopteridine;2-Aminopteridin-4-one;Pterine;NSC 11540;NSC 170929;NSC 18696;2-Amino-1,4-dihydropteridin-4-one;2-Amino-4,8-dihydropteridin-4-one;2-Aminopteridin-4-ol;2-Amino-1<em>H</em>-pteridin-4-one;2-Amino-3,4-dihydropteridin-4-one",
    "duplicated_cas_no": "100643-15-0;938-42-1;27839-95-8",
    "SMILES": "O=C1C=2C(=NC(N)=N1)NC=CN2",
    "meta_data": {
        "InChI": "InChI=1S/C6H5N5O/c7-6-10-4-3(5(12)11-6)8-1-2-9-4/h1-2H,(H3,7,9,10,11,12)",
        "InChIKey": null,
        "Canonical SMILES": "O=C1N=C(N=C2NC=CN=C12)N",
        "Molecular Formula": "C<sub>6</sub>H<sub>5</sub>N<sub>5</sub>O",
        "Molecular Mass": "163.14",
        "Melting Point": "&gt;360 °C"
    }
}