{
    "cas_no": "284493-67-0",
    "key_name": "3-Chloro-β-[[(1,1-dimethylethoxy)carbonyl]amino]benzenepropanoic acid",
    "cn_name": "3-N-Boc-amino-3-(3-chlorophenyl)propionic acid;",
    "alternate_name": "Benzenepropanoic acid, 3-chloro-β-[[(1,1-dimethylethoxy)carbonyl]amino]-;3-Chloro-β-[[(1,1-dimethylethoxy)carbonyl]amino]benzenepropanoic acid;3-[[(<em>tert</em>-Butoxy)carbonyl]amino]-3-(3-chlorophenyl)propanoic acid;3-<em>tert</em>-Butoxycarbonylamino-3-(3-chlorophenyl)propionicacid",
    "duplicated_cas_no": "",
    "SMILES": "C(NC(OC(C)(C)C)=O)(CC(O)=O)C1=CC(Cl)=CC=C1",
    "meta_data": {
        "InChI": "InChI=1S/C14H18ClNO4/c1-14(2,3)20-13(19)16-11(8-12(17)18)9-5-4-6-10(15)7-9/h4-7,11H,8H2,1-3H3,(H,16,19)(H,17,18)",
        "InChIKey": null,
        "Canonical SMILES": "O=C(OC(C)(C)C)NC(C=1C=CC=C(Cl)C1)CC(=O)O",
        "Molecular Formula": "C<sub>14</sub>H<sub>18</sub>ClNO<sub>4</sub>",
        "Molecular Mass": "299.75",
        "Melting Point": "98.5-100.7 °C"
    }
}