{
    "cas_no": "4274-38-8",
    "key_name": "Benzenethiol, 2-amino-4-(trifluoromethyl)-, hydrochloride (1:1)",
    "cn_name": "3-氨基-4-硫基三氟甲苯盐酸;",
    "alternate_name": "Benzenethiol, 2-amino-4-(trifluoromethyl)-, hydrochloride (1:1);<em>p</em>-Toluenethiol, 2-amino-α,α,α-trifluoro-, hydrochloride;Benzenethiol, 2-amino-4-(trifluoromethyl)-, hydrochloride;3-Amino-4-mercaptobenzotrifluoride hydrochloride;4-Trifluoromethyl-2-aminothiophenol hydrochloride;2-Amino-4-(trifluoromethyl)benzenethiol hydrochloride;2-Amino-4-(trifluoromethyl)benzene-1-thiol hydrochloride",
    "duplicated_cas_no": "",
    "SMILES": "C(F)(F)(F)C1=CC(N)=C(S)C=C1.Cl",
    "meta_data": {
        "InChI": "InChI=1S/C7H6F3NS.ClH/c8-7(9,10)4-1-2-6(12)5(11)3-4;/h1-3,12H,11H2;1H",
        "InChIKey": null,
        "Canonical SMILES": "Cl.FC(F)(F)C1=CC=C(S)C(N)=C1",
        "Molecular Formula": "C<sub>7</sub>H<sub>6</sub>F<sub>3</sub>NS.ClH",
        "Molecular Mass": "",
        "Melting Point": "200-202 °C"
    }
}