{
    "cas_no": "543-38-4",
    "key_name": "Canavanine",
    "cn_name": "L-刀豆氨酸;L-刀豆氨酸;",
    "alternate_name": "<span class=\"text-smallcaps\">L</span>-Homoserine, <em>O</em>-[(aminoiminomethyl)amino]-;Butyric acid, 2-amino-4-(guanidinooxy)-, <span class=\"text-smallcaps\">L</span>-;Canavanine;<em>O</em>-[(Aminoiminomethyl)amino]-<span class=\"text-smallcaps\">L</span>-homoserine;<span class=\"text-smallcaps\">L</span>-Canavanine;Canavanin;Cav;<span class=\"text-smallcaps\">L</span>-Cav;LDN 21810;MeSH ID: D002172",
    "duplicated_cas_no": "557-26-6;1117-30-2;7636-31-9;11028-33-4;27910-71-0",
    "SMILES": "C(CONC(=N)N)[C@@H](C(O)=O)N",
    "meta_data": {
        "InChI": "InChI=1S/C5H12N4O3/c6-3(4(10)11)1-2-12-9-5(7)8/h3H,1-2,6H2,(H,10,11)(H4,7,8,9)/t3-/m0/s1",
        "InChIKey": null,
        "Canonical SMILES": "O=C(O)C(N)CCONC(=N)N",
        "Molecular Formula": "C<sub>5</sub>H<sub>12</sub>N<sub>4</sub>O<sub>3</sub>",
        "Molecular Mass": "176.17",
        "Melting Point": "184 °C"
    }
}