{
    "cas_no": "3055-94-5",
    "key_name": "Triethylene glycol monododecyl ether",
    "cn_name": "3-十二烷醇;",
    "alternate_name": "Ethanol, 2-[2-[2-(dodecyloxy)ethoxy]ethoxy]-;3,6,9-Trioxaheneicosan-1-ol;2-[2-[2-(Dodecyloxy)ethoxy]ethoxy]ethanol;LEA;Lauryl alcohol triglycol ether;Triethylene glycol monododecyl ether;<em>n</em>-Dodecyl triethylene glycol ether;Lauryl triglycol ether;Triethylene glycol dodecyl ether;Dodecyl triethylene glycol;Lauryl triethoxylate;C<sub>12</sub>EO<sub>3</sub>;Tris(oxyethylene) dodecyl ether;Triethylene glycol lauryl ether;2-[2-[2-(Dodecyloxy)ethoxy]ethanol;Ethal 326;Laureth-3;Nikkol BL 3SY;2-[2-(2-Dodecoxyethoxy)ethoxy]ethanol",
    "duplicated_cas_no": "",
    "SMILES": "C(COCCOCCOCCO)CCCCCCCCCC",
    "meta_data": {
        "InChI": "InChI=1S/C18H38O4/c1-2-3-4-5-6-7-8-9-10-11-13-20-15-17-22-18-16-21-14-12-19/h19H,2-18H2,1H3",
        "InChIKey": null,
        "Canonical SMILES": "OCCOCCOCCOCCCCCCCCCCCC",
        "Molecular Formula": "C<sub>18</sub>H<sub>38</sub>O<sub>4</sub>",
        "Molecular Mass": "318.49",
        "Boiling Point": "153 °C @ Press: 0.035 Torr",
        "Melting Point": "16.5-17.0 °C",
        "Density": "0.950 g/cm³ @ Temp: 40 °C"
    }
}