{
    "cas_no": "18457-04-0",
    "key_name": "Propanedioic acid, 1,3-bis(trimethylsilyl) ester",
    "cn_name": "马来酸双(三甲硅烷)酯;马来酸双(三甲基甲硅烷酯);",
    "alternate_name": "Propanedioic acid, 1,3-bis(trimethylsilyl) ester;Malonic acid, bis(trimethylsilyl) ester;Propanedioic acid, bis(trimethylsilyl) ester;Silanol, trimethyl-, malonate (2:1);Bis(trimethylsilyl) malonate",
    "duplicated_cas_no": "",
    "SMILES": "O([Si](C)(C)C)C(CC(O[Si](C)(C)C)=O)=O",
    "meta_data": {
        "InChI": "InChI=1S/C9H20O4Si2/c1-14(2,3)12-8(10)7-9(11)13-15(4,5)6/h7H2,1-6H3",
        "InChIKey": null,
        "Canonical SMILES": "O=C(O[Si](C)(C)C)CC(=O)O[Si](C)(C)C",
        "Molecular Formula": "C<sub>9</sub>H<sub>20</sub>O<sub>4</sub>Si<sub>2</sub>",
        "Molecular Mass": "248.42",
        "Boiling Point": "63-66 °C @ Press: 1 Torr",
        "Melting Point": "56 °C",
        "Density": "0.970 g/cm³"
    }
}