{
    "cas_no": "2673-40-7",
    "key_name": "Perivine",
    "cn_name": null,
    "alternate_name": "Vobasan-17-oic acid, 4-demethyl-3-oxo-, methyl ester;Perivine;2,6-Methano-1<em>H</em>-azecino[5,4-<em>b</em>]indole-14-carboxylic acid, 5-ethylidene-2,3,4,5,6,7,8,9-octahydro-8-oxo-, methyl ester;Perivin",
    "duplicated_cas_no": "",
    "SMILES": "C(OC)(=O)[C@H]1[C@@]2(/C(=C\\C)/CN[C@]1(CC3=C(C(=O)C2)NC=4C3=CC=CC4)[H])[H]",
    "meta_data": {
        "InChI": "InChI=1S/C20H22N2O3/c1-3-11-10-21-16-8-14-12-6-4-5-7-15(12)22-19(14)17(23)9-13(11)18(16)20(24)25-2/h3-7,13,16,18,21-22H,8-10H2,1-2H3/b11-3-/t13-,16-,18-/m0/s1",
        "InChIKey": null,
        "Canonical SMILES": "O=C(OC)C1C2NCC(=CC)C1CC(=O)C=3NC=4C=CC=CC4C3C2",
        "Molecular Formula": "C<sub>20</sub>H<sub>22</sub>N<sub>2</sub>O<sub>3</sub>",
        "Molecular Mass": "338.40",
        "Melting Point": "180-181 °C"
    }
}