{
    "cas_no": "2734-48-7",
    "key_name": "(α<em>S</em>)-α-Amino-1<em>H</em>-pyrazole-1-propanoic acid",
    "cn_name": null,
    "alternate_name": "1<em>H</em>-Pyrazole-1-propanoic acid, α-amino-, (α<em>S</em>)-;Pyrazole-1-propionic acid, α-amino-, <span class=\"text-smallcaps\">L</span>-;1<em>H</em>-Pyrazole-1-propanoic acid, α-amino-, (<em>S</em>)-;(α<em>S</em>)-α-Amino-1<em>H</em>-pyrazole-1-propanoic acid;β-Pyrazolyl-<span class=\"text-smallcaps\">L</span>-alanine;<span class=\"text-smallcaps\">L</span>-β-(1-Pyrazolyl)alanine;β-(Pyrazol-1-yl)-<span class=\"text-smallcaps\">L</span>-alanine;(<em>s</em>)-2-Amino-3-pyrazol-1-yl-propionic acid;(2S)-2-Amino-3-(1<em>H</em>-pyrazol-1-yl)propanoic acid",
    "duplicated_cas_no": "",
    "SMILES": "C([C@@H](C(O)=O)N)N1C=CC=N1",
    "meta_data": {
        "InChI": "InChI=1S/C6H9N3O2/c7-5(6(10)11)4-9-3-1-2-8-9/h1-3,5H,4,7H2,(H,10,11)/t5-/m0/s1",
        "InChIKey": null,
        "Canonical SMILES": "O=C(O)C(N)CN1N=CC=C1",
        "Molecular Formula": "C<sub>6</sub>H<sub>9</sub>N<sub>3</sub>O<sub>2</sub>",
        "Molecular Mass": "155.15",
        "Melting Point": "243-244 °C (decomp)"
    }
}