{
    "cas_no": "17715-70-7",
    "key_name": "1-Fluoro-2,4-dimethoxybenzene",
    "cn_name": null,
    "alternate_name": "Benzene, 1-fluoro-2,4-dimethoxy-;1-Fluoro-2,4-dimethoxybenzene;2,4-Dimethoxyfluorobenzene;1,3-Dimethoxy-4-fluorobenzene;4-Fluoro-1,3-dimethoxybenzene;2,4-Dimethoxy-1-fluorobenzene",
    "duplicated_cas_no": "",
    "SMILES": "O(C)C1=CC(OC)=CC=C1F",
    "meta_data": {
        "InChI": "InChI=1S/C8H9FO2/c1-10-6-3-4-7(9)8(5-6)11-2/h3-5H,1-2H3",
        "InChIKey": null,
        "Canonical SMILES": "FC1=CC=C(OC)C=C1OC",
        "Molecular Formula": "C<sub>8</sub>H<sub>9</sub>FO<sub>2</sub>",
        "Molecular Mass": "156.15",
        "Boiling Point": "210 °C @ Press: 760 Torr"
    }
}