{
    "cas_no": "82626-01-5",
    "key_name": "Alpidem",
    "cn_name": "阿吡坦;阿尔吡登;阿吡坦;6-氯-2-(4-氯苯基)-N,N-二丙基咪唑并[1,2-Α]吡啶-3-乙酰胺;",
    "alternate_name": "Imidazo[1,2-<em>a</em>]pyridine-3-acetamide, 6-chloro-2-(4-chlorophenyl)-<em>N</em>,<em>N</em>-dipropyl-;6-Chloro-2-(4-chlorophenyl)-<em>N</em>,<em>N</em>-dipropylimidazo[1,2-<em>a</em>]pyridine-3-acetamide;Alpidem;SL 80.0342-00;Ananxyl;2-[6-Chloro-2-(4-chlorophenyl)imidazo[1,2-<em>a</em>]pyridin-3-yl]-<em>N</em>,<em>N</em>-dipropylacetamide",
    "duplicated_cas_no": "",
    "SMILES": "C(C(N(CCC)CCC)=O)C1=C(N=C2N1C=C(Cl)C=C2)C3=CC=C(Cl)C=C3",
    "meta_data": {
        "InChI": "InChI=1S/C21H23Cl2N3O/c1-3-11-25(12-4-2)20(27)13-18-21(15-5-7-16(22)8-6-15)24-19-10-9-17(23)14-26(18)19/h5-10,14H,3-4,11-13H2,1-2H3",
        "InChIKey": null,
        "Canonical SMILES": "O=C(N(CCC)CCC)CC1=C(N=C2C=CC(Cl)=CN21)C3=CC=C(Cl)C=C3",
        "Molecular Formula": "C<sub>21</sub>H<sub>23</sub>Cl<sub>2</sub>N<sub>3</sub>O",
        "Molecular Mass": "404.33",
        "Melting Point": "140-141 °C"
    }
}