{
    "cas_no": "7287-19-6",
    "key_name": "Prometryn",
    "cn_name": "扑草净;扑草津;4,6-双异丙胺基-2-甲硫基-1,3,5-三嗪;",
    "alternate_name": "1,3,5-Triazine-2,4-diamine, <em>N</em><sup>2</sup>,<em>N</em><sup>4</sup>-bis(1-methylethyl)-6-(methylthio)-;<em>s</em>-Triazine, 2,4-bis(isopropylamino)-6-(methylthio)-;1,3,5-Triazine-2,4-diamine, <em>N</em>,<em>N</em>′-bis(1-methylethyl)-6-(methylthio)-;<em>N</em><sup>2</sup>,<em>N</em><sup>4</sup>-Bis(1-methylethyl)-6-(methylthio)-1,3,5-triazine-2,4-diamine;G 34161;2,4-Bis(isopropylamino)-6-(methylthio)-<em>s</em>-triazine;Caparol;2-Methylmercapto-4,6-bis(isopropylamino)-<em>s</em>-triazine;2-Methylthio-4,6-bis(isopropylamino)-<em>s</em>-triazine;Prometryn;A 1114;Gesagard 50;Gesagard;Prometryne;Selectin 50;Uvon;4,6-Bis(isopropylamino)-2-(methylthio)-1,3,5-triazine;Mercazin;Selectin;2,4-Bis(isopropylamino)-6-methylmercapto-<em>s</em>-triazine;2-Methylthio-4,6-bis(isopropylamino)-1,3,5-triazine;4,6-Bis(isopropylamino)-2-(methylthio)-<em>s</em>-triazine;2-Methylmercapto-4,6-bis(isopropylamino)-1,3,5-triazine;2-(Methylthio)-4,6-diisopropylamino-1,3,5-triazine;Selektin;Promepin;Prohelan;2-Methylthio-4,6-bis(isopropylamino)-<em>sym</em>-triazine;Cosatrin;Prometrin S 50;Cotogard;Selectin (herbicide);Azogard;Prometrex;NSC 163049;<em>N</em>,<em>N</em>′-Bis(1-methylethyl)-6-methylthio-1,3,5-triazine-2,4-diamine;Promethryn;Promethrin",
    "duplicated_cas_no": "83653-07-0",
    "SMILES": "N(C(C)C)C=1N=C(NC(C)C)N=C(SC)N1",
    "meta_data": {
        "InChI": "InChI=1S/C10H19N5S/c1-6(2)11-8-13-9(12-7(3)4)15-10(14-8)16-5/h6-7H,1-5H3,(H2,11,12,13,14,15)",
        "InChIKey": null,
        "Canonical SMILES": "N=1C(=NC(=NC1NC(C)C)NC(C)C)SC",
        "Molecular Formula": "C<sub>10</sub>H<sub>19</sub>N<sub>5</sub>S",
        "Molecular Mass": "241.36",
        "Boiling Point": "&gt;300 °C",
        "Melting Point": "118-120 °C",
        "Density": "1.15 g/cm³ @ Temp: 20 °C"
    }
}