{
    "cas_no": "36167-63-2",
    "key_name": "(±)-Halofantrine hydrochloride",
    "cn_name": "盐酸卤泛群;",
    "alternate_name": "9-Phenanthrenemethanol, 1,3-dichloro-α-[2-(dibutylamino)ethyl]-6-(trifluoromethyl)-, hydrochloride (1:1);9-Phenanthrenemethanol, 1,3-dichloro-α-[2-(dibutylamino)ethyl]-6-(trifluoromethyl)-, hydrochloride;9-[3-(Dibutylamino)-1-hydroxypropyl]-1,3-dichloro-6-(trifluoromethyl)phenanthrene hydrochloride;WR 171669;(±)-Halofantrine hydrochloride;Halofantrine hydrochloride;SKF 102886",
    "duplicated_cas_no": "106927-11-1",
    "SMILES": "C(CCN(CCCC)CCCC)(O)C1=C2C(=C3C(=C1)C(Cl)=CC(Cl)=C3)C=C(C(F)(F)F)C=C2.Cl",
    "meta_data": {
        "InChI": "InChI=1S/C26H30Cl2F3NO.ClH/c1-3-5-10-32(11-6-4-2)12-9-25(33)23-16-22-21(14-18(27)15-24(22)28)20-13-17(26(29,30)31)7-8-19(20)23;/h7-8,13-16,25,33H,3-6,9-12H2,1-2H3;1H",
        "InChIKey": null,
        "Canonical SMILES": "Cl.FC(F)(F)C1=CC=C2C(=C1)C=3C=C(Cl)C=C(Cl)C3C=C2C(O)CCN(CCCC)CCCC",
        "Molecular Formula": "C<sub>26</sub>H<sub>30</sub>Cl<sub>2</sub>F<sub>3</sub>NO.ClH",
        "Molecular Mass": "",
        "Melting Point": "93-96 °C"
    }
}