{
    "cas_no": "886362-07-8",
    "key_name": "4-Methoxy-1<em>H</em>-indazol-3-amine",
    "cn_name": null,
    "alternate_name": "1<em>H</em>-Indazol-3-amine, 4-methoxy-;4-Methoxy-1<em>H</em>-indazol-3-amine;4-(Methyloxy)-1<em>H</em>-indazol-3-amine",
    "duplicated_cas_no": "",
    "SMILES": "O(C)C1=C2C(NN=C2N)=CC=C1",
    "meta_data": {
        "InChI": "InChI=1S/C8H9N3O/c1-12-6-4-2-3-5-7(6)8(9)11-10-5/h2-4H,1H3,(H3,9,10,11)",
        "InChIKey": null,
        "Canonical SMILES": "N=1NC=2C=CC=C(OC)C2C1N",
        "Molecular Formula": "C<sub>8</sub>H<sub>9</sub>N<sub>3</sub>O",
        "Molecular Mass": "163.18",
        "Melting Point": "163-166 °C"
    }
}