{
    "cas_no": "676-97-1",
    "key_name": "Methylphosphonic dichloride",
    "cn_name": "二氯甲基膦;甲基膦酞二氯;二氯甲基膦;",
    "alternate_name": "Phosphonic dichloride, <em>P</em>-methyl-;Phosphonic dichloride, methyl-;<em>P</em>-Methylphosphonic dichloride;Methanephosphonyl chloride;Methylphosphonic dichloride;Methylphosphonic acid dichloride;Dichloromethylphosphine oxide;Methylphosphonyl dichloride;Methylphosphonyl chloride;Methanephosphonodichloridic acid;Methylphosphonodichloridic acid;Methanephosphonyl dichloride",
    "duplicated_cas_no": "",
    "SMILES": "P(C)(Cl)(Cl)=O",
    "meta_data": {
        "InChI": "InChI=1S/CH3Cl2OP/c1-5(2,3)4/h1H3",
        "InChIKey": null,
        "Canonical SMILES": "O=P(Cl)(Cl)C",
        "Molecular Formula": "CH<sub>3</sub>Cl<sub>2</sub>OP",
        "Molecular Mass": "132.91",
        "Boiling Point": "162 °C @ Press: 760 Torr",
        "Melting Point": "33 °C",
        "Density": "1.445 g/cm³ @ Temp: 25.3 °C"
    }
}