{
    "cas_no": "99455-08-0",
    "key_name": "7-Bromo-2-methoxyquinoline",
    "cn_name": null,
    "alternate_name": "Quinoline, 7-bromo-2-methoxy-;7-Bromo-2-methoxyquinoline",
    "duplicated_cas_no": "",
    "SMILES": "O(C)C1=NC2=C(C=C1)C=CC(Br)=C2",
    "meta_data": {
        "InChI": "InChI=1S/C10H8BrNO/c1-13-10-5-3-7-2-4-8(11)6-9(7)12-10/h2-6H,1H3",
        "InChIKey": null,
        "Canonical SMILES": "BrC=1C=CC2=CC=C(N=C2C1)OC",
        "Molecular Formula": "C<sub>10</sub>H<sub>8</sub>BrNO",
        "Molecular Mass": "238.08",
        "Melting Point": "68 °C"
    }
}