{
    "cas_no": "13269-52-8",
    "key_name": "<em>trans</em>-3-Hexene",
    "cn_name": null,
    "alternate_name": "3-Hexene, (3<em>E</em>)-;3-Hexene, (<em>E</em>)-;(3<em>E</em>)-3-Hexene;<em>trans</em>-3-Hexene;(<em>E</em>)-3-Hexene;NSC 74125",
    "duplicated_cas_no": "32968-66-4",
    "SMILES": "C(=C/CC)\\CC",
    "meta_data": {
        "InChI": "InChI=1S/C6H12/c1-3-5-6-4-2/h5-6H,3-4H2,1-2H3/b6-5+",
        "InChIKey": null,
        "Canonical SMILES": "C(=CCC)CC",
        "Molecular Formula": "C<sub>6</sub>H<sub>12</sub>",
        "Molecular Mass": "84.16",
        "Boiling Point": "67.1 °C",
        "Melting Point": "-115.4 °C",
        "Density": "0.67306 g/cm³ @ Temp: 25 °C"
    }
}