{
    "cas_no": "598-19-6",
    "key_name": "2-Propen-1-ol, 2-bromo-",
    "cn_name": null,
    "alternate_name": "2-Propen-1-ol, 2-bromo-;2-Bromo-2-propen-1-ol;2-Bromoallyl alcohol;2-Bromo-1-propen-3-ol",
    "duplicated_cas_no": "",
    "SMILES": "C(CO)(Br)=C",
    "meta_data": {
        "InChI": "InChI=1S/C3H5BrO/c1-3(4)2-5/h5H,1-2H2",
        "InChIKey": null,
        "Canonical SMILES": "BrC(=C)CO",
        "Molecular Formula": "C<sub>3</sub>H<sub>5</sub>BrO",
        "Molecular Mass": "136.98",
        "Boiling Point": "62 °C @ Press: 21 Torr",
        "Density": "1.621 g/cm³ @ Temp: 18 °C"
    }
}