{
    "cas_no": "87-51-4",
    "key_name": "Indole-3-acetic acid",
    "cn_name": "3-吲哚乙酸;",
    "alternate_name": "1<em>H</em>-Indole-3-acetic acid;Indole-3-acetic acid;3-IAA;Heteroauxin;IAA;β-Indoleacetic acid;Rhizopin;Indoleacetic acid;3-(Carboxymethyl)indole;β-IAA;α-IAA;GAP;2-(3-Indolyl)acetic acid;2-(1<em>H</em>-Indol-3-yl)acetic acid;3-Indolylmethylcarboxylic acid;(1<em>H</em>-Indol-3-yl)acetic acid;NSC 3787;3-(Carboxymethyl)-1<em>H</em>-indole;Noclosan;Bioenraiz",
    "duplicated_cas_no": "54692-39-6",
    "SMILES": "C(C(O)=O)C=1C=2C(NC1)=CC=CC2",
    "meta_data": {
        "InChI": "InChI=1S/C10H9NO2/c12-10(13)5-7-6-11-9-4-2-1-3-8(7)9/h1-4,6,11H,5H2,(H,12,13)",
        "InChIKey": null,
        "Canonical SMILES": "O=C(O)CC1=CNC=2C=CC=CC21",
        "Molecular Formula": "C<sub>10</sub>H<sub>9</sub>NO<sub>2</sub>",
        "Molecular Mass": "175.18",
        "Melting Point": "168.5 °C",
        "Density": "1.576 g/cm³"
    }
}