{
    "cas_no": "1873-92-3",
    "key_name": "Dichloromethyl-2-propen-1-ylsilane",
    "cn_name": "烯丙基甲基二氯硅烷,95％;烯丙基二氯甲基硅烷;丙烯基甲基二氯硅烷;烯丙基二氯甲基硅;烯丙基甲基二氯硅烷;烯;",
    "alternate_name": "Silane, dichloromethyl-2-propen-1-yl-;Silane, allyldichloromethyl-;Silane, dichloromethyl-2-propenyl-;Dichloromethyl-2-propen-1-ylsilane;Allyldichloromethylsilane;Allylmethyldichlorosilane",
    "duplicated_cas_no": "",
    "SMILES": "C([Si](C)(Cl)Cl)C=C",
    "meta_data": {
        "InChI": "InChI=1S/C4H8Cl2Si/c1-3-4-7(2,5)6/h3H,1,4H2,2H3",
        "InChIKey": null,
        "Canonical SMILES": "Cl[Si](Cl)(C)CC=C",
        "Molecular Formula": "C<sub>4</sub>H<sub>8</sub>Cl<sub>2</sub>Si",
        "Molecular Mass": "155.10",
        "Boiling Point": "119.5 °C",
        "Density": "1.076 g/cm³"
    }
}