{
    "cas_no": "2574-78-9",
    "key_name": "Orazamide",
    "cn_name": "阿卡明;奥拉米特;乳清酸氨咪酰胺;5-氨基咪唑-4-甲酰胺乳清酸盐;",
    "alternate_name": "4-Pyrimidinecarboxylic acid, 1,2,3,6-tetrahydro-2,6-dioxo-, compd. with 5-amino-1<em>H</em>-imidazole-4-carboxamide (1:1);Orotic acid, compd. with 5-aminoimidazole-4-carboxamide (1:1);Orotic acid, compd. with 5(<em>or</em> 4)-aminoimidazole-4(<em>or</em> 5)-carboxamide;1<em>H</em>-Imidazole-4-carboxamide, 5-amino-, mono(1,2,3,6-tetrahydro-2,6-dioxo-4-pyrimidinecarboxylate);4-Amino-5-imidazolecarboxamide orotate;AICA orotate;Ba 2757;Orazamide;AICA-hepat;Aicamin;Orazamid;Orazamide orotate;5-Aminoimidazole-4-carboxamide orotate;Aicorat",
    "duplicated_cas_no": "",
    "SMILES": "C(N)(=O)C1=C(N)N=CN1.C(O)(=O)C1=CC(=O)NC(=O)N1",
    "meta_data": {
        "InChI": "InChI=1S/C5H4N2O4.C4H6N4O/c8-3-1-2(4(9)10)6-5(11)7-3;5-3-2(4(6)9)7-1-8-3/h1H,(H,9,10)(H2,6,7,8,11);1H,5H2,(H2,6,9)(H,7,8)",
        "InChIKey": null,
        "Canonical SMILES": "O=C(O)C1=CC(=O)NC(=O)N1.O=C(N)C=1NC=NC1N",
        "Molecular Formula": "C<sub>5</sub>H<sub>4</sub>N<sub>2</sub>O<sub>4</sub>.C<sub>4</sub>H<sub>6</sub>N<sub>4</sub>O",
        "Molecular Mass": "",
        "Melting Point": "284-285 °C (decomp)"
    }
}