{
    "cas_no": "3457-61-2",
    "key_name": "1,1-Dimethylethyl 1-methyl-1-phenylethyl peroxide",
    "cn_name": null,
    "alternate_name": "Peroxide, 1,1-dimethylethyl 1-methyl-1-phenylethyl;Peroxide, <em>tert</em>-butyl α,α-dimethylbenzyl;1,1-Dimethylethyl 1-methyl-1-phenylethyl peroxide;<em>tert</em>-Butyl cumyl peroxide;Cumyl <em>tert</em>-butyl peroxide;7-(<em>tert</em>-Butylperoxy)cumene;Kayabutyl C;<em>tert</em>-Butyl 1-methyl-1-phenylethyl peroxide;Trigonox T 40;Lupersol 801;Luperox 801;Peroximon 166;<em>tert</em>-Butyl α,α-dimethylbenzyl peroxide;Trigonox T;2-(<em>tert</em>-Butylperoxy)-2-phenylpropane;Peroximon 801;C 24;Trigonox T 50D-PD;Luperox D 16;Cumyl tert-butyl peroxide",
    "duplicated_cas_no": "",
    "SMILES": "C(OOC(C)(C)C)(C)(C)C1=CC=CC=C1",
    "meta_data": {
        "InChI": "InChI=1S/C13H20O2/c1-12(2,3)14-15-13(4,5)11-9-7-6-8-10-11/h6-10H,1-5H3",
        "InChIKey": null,
        "Canonical SMILES": "O(OC(C)(C)C)C(C=1C=CC=CC1)(C)C",
        "Molecular Formula": "C<sub>13</sub>H<sub>20</sub>O<sub>2</sub>",
        "Molecular Mass": "208.30",
        "Boiling Point": "40 °C @ Press: 0.2 Torr",
        "Melting Point": "15.5 °C"
    }
}