{
    "cas_no": "3268-79-9",
    "key_name": "Thiocyanic acid, chloromethyl ester",
    "cn_name": "硫氰酸氯甲酯;",
    "alternate_name": "Thiocyanic acid, chloromethyl ester;Chloromethyl thiocyanate;(Chloromethyl)thiocyanogen;1-Chloro-1-thiocyanomethane;NSC 96962",
    "duplicated_cas_no": "",
    "SMILES": "S(CCl)C#N",
    "meta_data": {
        "InChI": "InChI=1S/C2H2ClNS/c3-1-5-2-4/h1H2",
        "InChIKey": null,
        "Canonical SMILES": "N#CSCCl",
        "Molecular Formula": "C<sub>2</sub>H<sub>2</sub>ClNS",
        "Molecular Mass": "107.56",
        "Boiling Point": "185 °C",
        "Density": "1.37 g/cm³ @ Temp: 20 °C"
    }
}