{
    "cas_no": "3007-74-7",
    "key_name": "<em>N</em>-Dodecylbenzenamine",
    "cn_name": "十八烷基苯胺;",
    "alternate_name": "Benzenamine, <em>N</em>-dodecyl-;Dodecylamine, <em>N</em>-phenyl-;<em>N</em>-Dodecylbenzenamine;<em>N</em>-Dodecylaniline;<em>N</em>-Dodecylaminobenzene;4-(<em>n</em>-Dodecyl)phenylamine",
    "duplicated_cas_no": "",
    "SMILES": "N(CCCCCCCCCCCC)C1=CC=CC=C1",
    "meta_data": {
        "InChI": "InChI=1S/C18H31N/c1-2-3-4-5-6-7-8-9-10-14-17-19-18-15-12-11-13-16-18/h11-13,15-16,19H,2-10,14,17H2,1H3",
        "InChIKey": null,
        "Canonical SMILES": "C=1C=CC(=CC1)NCCCCCCCCCCCC",
        "Molecular Formula": "C<sub>18</sub>H<sub>31</sub>N",
        "Molecular Mass": "261.45",
        "Boiling Point": "160-161 °C @ Press: 2 Torr",
        "Melting Point": "25.5-26 °C",
        "Density": "0.8470 g/cm³"
    }
}