{
    "cas_no": "131807-57-3",
    "key_name": "Famoxadone",
    "cn_name": "恶唑菌酮;5-甲基-5-(4-苯氧基苯基)-3-(苯氨基)-2,4-噁唑啉二酮;",
    "alternate_name": "2,4-Oxazolidinedione, 5-methyl-5-(4-phenoxyphenyl)-3-(phenylamino)-;5-Methyl-5-(4-phenoxyphenyl)-3-(phenylamino)-2,4-oxazolidinedione;DPX-JE 874;Famoxadone;Famoxate;(±)-Famoxadone",
    "duplicated_cas_no": "1135442-66-8",
    "SMILES": "CC1(C(=O)N(NC2=CC=CC=C2)C(=O)O1)C3=CC=C(OC4=CC=CC=C4)C=C3",
    "meta_data": {
        "InChI": "InChI=1S/C22H18N2O4/c1-22(16-12-14-19(15-13-16)27-18-10-6-3-7-11-18)20(25)24(21(26)28-22)23-17-8-4-2-5-9-17/h2-15,23H,1H3",
        "InChIKey": null,
        "Canonical SMILES": "O=C1OC(C2=CC=C(OC=3C=CC=CC3)C=C2)(C(=O)N1NC=4C=CC=CC4)C",
        "Molecular Formula": "C<sub>22</sub>H<sub>18</sub>N<sub>2</sub>O<sub>4</sub>",
        "Molecular Mass": "374.39",
        "Melting Point": "141 °C"
    }
}