{
    "cas_no": "2418-52-2",
    "key_name": "<span class=\"text-smallcaps\">D</span>-Threitol",
    "cn_name": "D-苏糖醇;",
    "alternate_name": "1,2,3,4-Butanetetrol, (2<em>R</em>,3<em>R</em>)-;Threitol, <span class=\"text-smallcaps\">D</span>-;1,2,3,4-Butanetetrol, [<em>R</em>-(<em>R</em>*,<em>R</em>*)]-;(2<em>R</em>,3<em>R</em>)-1,2,3,4-Butanetetrol;<span class=\"text-smallcaps\">D</span>-Threitol",
    "duplicated_cas_no": "",
    "SMILES": "[C@H]([C@@H](CO)O)(CO)O",
    "meta_data": {
        "InChI": "InChI=1S/C4H10O4/c5-1-3(7)4(8)2-6/h3-8H,1-2H2/t3-,4-/m1/s1",
        "InChIKey": null,
        "Canonical SMILES": "OCC(O)C(O)CO",
        "Molecular Formula": "C<sub>4</sub>H<sub>10</sub>O<sub>4</sub>",
        "Molecular Mass": "122.12",
        "Melting Point": "89-91 °C"
    }
}