{
    "cas_no": "23012-30-8",
    "key_name": "2,4-Dimethyloxazole-5-carboxylic acid ethyl ester",
    "cn_name": null,
    "alternate_name": "5-Oxazolecarboxylic acid, 2,4-dimethyl-, ethyl ester;Ethyl 2,4-dimethyl-5-oxazolecarboxylate;NSC 238862;2,4-Dimethyloxazole-5-carboxylic acid ethyl ester",
    "duplicated_cas_no": "",
    "SMILES": "C(OCC)(=O)C1=C(C)N=C(C)O1",
    "meta_data": {
        "InChI": "InChI=1S/C8H11NO3/c1-4-11-8(10)7-5(2)9-6(3)12-7/h4H2,1-3H3",
        "InChIKey": null,
        "Canonical SMILES": "O=C(OCC)C=1OC(=NC1C)C",
        "Molecular Formula": "C<sub>8</sub>H<sub>11</sub>NO<sub>3</sub>",
        "Molecular Mass": "169.18",
        "Boiling Point": "98-103 °C @ Press: 4 Torr",
        "Melting Point": "55-56 °C"
    }
}