{
    "cas_no": "546-44-1",
    "key_name": "1,1,1,3,5,5,5-Heptamethyl-3-phenyltrisiloxane",
    "cn_name": null,
    "alternate_name": "Trisiloxane, 1,1,1,3,5,5,5-heptamethyl-3-phenyl-;1,1,1,3,5,5,5-Heptamethyl-3-phenyltrisiloxane;Methylphenylbis(trimethylsiloxy)silane;Bis(trimethylsiloxy)(methyl)phenylsilane;3-Phenylheptamethyltrisiloxane",
    "duplicated_cas_no": "",
    "SMILES": "[Si](O[Si](C)(C)C)(O[Si](C)(C)C)(C)C1=CC=CC=C1",
    "meta_data": {
        "InChI": "InChI=1S/C13H26O2Si3/c1-16(2,3)14-18(7,15-17(4,5)6)13-11-9-8-10-12-13/h8-12H,1-7H3",
        "InChIKey": null,
        "Canonical SMILES": "O([Si](O[Si](C)(C)C)(C=1C=CC=CC1)C)[Si](C)(C)C",
        "Molecular Formula": "C<sub>13</sub>H<sub>26</sub>O<sub>2</sub>Si<sub>3</sub>",
        "Molecular Mass": "298.60",
        "Boiling Point": "95 °C @ Press: 5 Torr",
        "Melting Point": "-56 °C",
        "Density": "0.909 g/cm³"
    }
}