{
    "cas_no": "1445-55-2",
    "key_name": "Ethyl 2,3-dihydro-3-oxo-4-pyridazinecarboxylate",
    "cn_name": null,
    "alternate_name": "4-Pyridazinecarboxylic acid, 2,3-dihydro-3-oxo-, ethyl ester;Ethyl 2,3-dihydro-3-oxo-4-pyridazinecarboxylate;3-Oxo-2,3-dihydropyridazine-4-carboxylic acid ethyl ester",
    "duplicated_cas_no": "",
    "SMILES": "C(OCC)(=O)C=1C(=O)NN=CC1",
    "meta_data": {
        "InChI": "InChI=1S/C7H8N2O3/c1-2-12-7(11)5-3-4-8-9-6(5)10/h3-4H,2H2,1H3,(H,9,10)",
        "InChIKey": null,
        "Canonical SMILES": "O=C(OCC)C1=CC=NNC1=O",
        "Molecular Formula": "C<sub>7</sub>H<sub>8</sub>N<sub>2</sub>O<sub>3</sub>",
        "Molecular Mass": "168.15",
        "Boiling Point": "186 °C @ Press: 1.5 Torr",
        "Melting Point": "199-200 °C"
    }
}