{
    "cas_no": "24144-92-1",
    "key_name": "1-[(1<em>E</em>)-2-(3,5-Dimethoxyphenyl)ethenyl]-2,4-dimethoxybenzene",
    "cn_name": null,
    "alternate_name": "Benzene, 1-[(1<em>E</em>)-2-(3,5-dimethoxyphenyl)ethenyl]-2,4-dimethoxy-;Stilbene, 2,3′,4,5′-tetramethoxy-, (<em>E</em>)-;Benzene, 1-[2-(3,5-dimethoxyphenyl)ethenyl]-2,4-dimethoxy-, (<em>E</em>)-;1-[(1<em>E</em>)-2-(3,5-Dimethoxyphenyl)ethenyl]-2,4-dimethoxybenzene;SMB 00388",
    "duplicated_cas_no": "",
    "SMILES": "C(=C/C1=C(OC)C=C(OC)C=C1)\\C2=CC(OC)=CC(OC)=C2",
    "meta_data": {
        "InChI": "InChI=1S/C18H20O4/c1-19-15-8-7-14(18(12-15)22-4)6-5-13-9-16(20-2)11-17(10-13)21-3/h5-12H,1-4H3/b6-5+",
        "InChIKey": null,
        "Canonical SMILES": "O(C1=CC=C(C=CC=2C=C(OC)C=C(OC)C2)C(OC)=C1)C",
        "Molecular Formula": "C<sub>18</sub>H<sub>20</sub>O<sub>4</sub>",
        "Molecular Mass": "300.35",
        "Melting Point": "78-79 °C"
    }
}