{
    "cas_no": "19819-98-8",
    "key_name": "2-(2-Methylphenyl)ethanol",
    "cn_name": null,
    "alternate_name": "Benzeneethanol, 2-methyl-;Phenethyl alcohol, <em>o</em>-methyl-;2-Methylbenzeneethanol;2-(2-Methylphenyl)ethanol;<em>o</em>-Methylphenethyl alcohol;2-Methylphenethyl alcohol;NSC 409882;2-(<em>o</em>-Tolyl)ethanol;Peomosa;2-(<em>o</em>-Tolyl)ethan-1-ol;2-(2-Methylphenyl)ethan-1-ol",
    "duplicated_cas_no": "",
    "SMILES": "C(CO)C1=C(C)C=CC=C1",
    "meta_data": {
        "InChI": "InChI=1S/C9H12O/c1-8-4-2-3-5-9(8)6-7-10/h2-5,10H,6-7H2,1H3",
        "InChIKey": null,
        "Canonical SMILES": "OCCC=1C=CC=CC1C",
        "Molecular Formula": "C<sub>9</sub>H<sub>12</sub>O",
        "Molecular Mass": "136.19",
        "Boiling Point": "243.5 °C",
        "Melting Point": "2 °C",
        "Density": "1.0195 g/cm³ @ Temp: 20 °C"
    }
}