{
    "cas_no": "20784-60-5",
    "key_name": "4′-<em>O</em>-Methylbavachalcone",
    "cn_name": null,
    "alternate_name": "2-Propen-1-one, 1-[2-hydroxy-4-methoxy-5-(3-methyl-2-buten-1-yl)phenyl]-3-(4-hydroxyphenyl)-, (2<em>E</em>)-;Chalcone, 2′,4-dihydroxy-4′-methoxy-5′-(3-methyl-2-butenyl)-;2-Propen-1-one, 1-[2-hydroxy-4-methoxy-5-(3-methyl-2-butenyl)phenyl]-3-(4-hydroxyphenyl)-, (<em>E</em>)-;(2<em>E</em>)-1-[2-Hydroxy-4-methoxy-5-(3-methyl-2-buten-1-yl)phenyl]-3-(4-hydroxyphenyl)-2-propen-1-one;4′-<em>O</em>-Methylbavachalcone;4′-<em>O</em>-Methylbroussochalcone B",
    "duplicated_cas_no": "19825-38-8;63569-09-5",
    "SMILES": "C(C=C(C)C)C1=C(OC)C=C(O)C(C(/C=C/C2=CC=C(O)C=C2)=O)=C1",
    "meta_data": {
        "InChI": "InChI=1S/C21H22O4/c1-14(2)4-8-16-12-18(20(24)13-21(16)25-3)19(23)11-7-15-5-9-17(22)10-6-15/h4-7,9-13,22,24H,8H2,1-3H3/b11-7+",
        "InChIKey": null,
        "Canonical SMILES": "O=C(C=CC1=CC=C(O)C=C1)C=2C=C(C(OC)=CC2O)CC=C(C)C",
        "Molecular Formula": "C<sub>21</sub>H<sub>22</sub>O<sub>4</sub>",
        "Molecular Mass": "338.40",
        "Melting Point": "169.9-170.1 °C"
    }
}