{
    "cas_no": "289039-25-4",
    "key_name": "3-Chloro-5-iodobenzoic acid",
    "cn_name": null,
    "alternate_name": "Benzoic acid, 3-chloro-5-iodo-;3-Chloro-5-iodobenzoic acid",
    "duplicated_cas_no": "",
    "SMILES": "C(O)(=O)C1=CC(Cl)=CC(I)=C1",
    "meta_data": {
        "InChI": "InChI=1S/C7H4ClIO2/c8-5-1-4(7(10)11)2-6(9)3-5/h1-3H,(H,10,11)",
        "InChIKey": null,
        "Canonical SMILES": "O=C(O)C=1C=C(Cl)C=C(I)C1",
        "Molecular Formula": "C<sub>7</sub>H<sub>4</sub>ClIO<sub>2</sub>",
        "Molecular Mass": "282.46",
        "Melting Point": "190-191 °C"
    }
}