{
    "cas_no": "852227-92-0",
    "key_name": "3-(1<em>H</em>-Pyrazol-1-yl)benzaldehyde",
    "cn_name": null,
    "alternate_name": "Benzaldehyde, 3-(1<em>H</em>-pyrazol-1-yl)-;3-(1<em>H</em>-Pyrazol-1-yl)benzaldehyde;3-(Pyrazol-1-yl)benzaldehyde",
    "duplicated_cas_no": "",
    "SMILES": "C(=O)C=1C=C(C=CC1)N2C=CC=N2",
    "meta_data": {
        "InChI": "InChI=1S/C10H8N2O/c13-8-9-3-1-4-10(7-9)12-6-2-5-11-12/h1-8H",
        "InChIKey": null,
        "Canonical SMILES": "O=CC1=CC=CC(=C1)N2N=CC=C2",
        "Molecular Formula": "C<sub>10</sub>H<sub>8</sub>N<sub>2</sub>O",
        "Molecular Mass": "172.18",
        "Melting Point": "28-30 °C"
    }
}