{
    "cas_no": "140-50-1",
    "key_name": "<em>N</em>,<em>N</em>′-Diacetyl-<em>p</em>-phenylenediamine",
    "cn_name": "N,N\"-对苯乙烯二乙酰胺;",
    "alternate_name": "Acetamide, <em>N</em>,<em>N</em>′-1,4-phenylenebis-;Acetamide, <em>N</em>,<em>N</em>′-<em>p</em>-phenylenebis-;<em>N</em>,<em>N</em>′-1,4-Phenylenebis[acetamide];<em>p</em>-Phenylenediacetamide;<em>N</em>,<em>N</em>′-Diacetyl-<em>p</em>-phenylenediamine;1,4-Diacetamidobenzene;1,4-Bisacetamidobenzene;4′-Acetamidoacetanilide;1,4-Diacetylaminobenzene;<em>N</em>,<em>N</em>′-Diacetyl-1,4-phenylenediamine;NSC 401116;<em>N</em>-[4-(Acetylamino)phenyl]acetamide;<em>N</em>,<em>N</em>′-(1,4-Phenylene)diacetamide;1,4-Bis(acetylamino)benzene",
    "duplicated_cas_no": "",
    "SMILES": "N(C(C)=O)C1=CC=C(NC(C)=O)C=C1",
    "meta_data": {
        "InChI": "InChI=1S/C10H12N2O2/c1-7(13)11-9-3-5-10(6-4-9)12-8(2)14/h3-6H,1-2H3,(H,11,13)(H,12,14)",
        "InChIKey": null,
        "Canonical SMILES": "O=C(NC1=CC=C(C=C1)NC(=O)C)C",
        "Molecular Formula": "C<sub>10</sub>H<sub>12</sub>N<sub>2</sub>O<sub>2</sub>",
        "Molecular Mass": "192.21",
        "Melting Point": "204 °C"
    }
}