{
    "cas_no": "514-46-5",
    "key_name": "(+)-Tirucallol",
    "cn_name": null,
    "alternate_name": "Lanosta-8,24-dien-3-ol, (3β,13α,14β,17α,20<em>S</em>)-;Tirucallol;13α,14β,17β<span class=\"text-smallcaps\">H</span>-Lanosta-8,24-dien-3β-ol, (20<em>S</em>)-;(3β,13α,14β,17α,20<em>S</em>)-Lanosta-8,24-dien-3-ol;Tirucalladienol;20α<span class=\"text-smallcaps\">H</span>-Δ<sup>8</sup>-Tirucallol;(+)-Tirucallol;NSC 403164",
    "duplicated_cas_no": "23299-39-0",
    "SMILES": "C[C@@]12C3=C([C@]4(C)[C@@](CC3)(C(C)(C)[C@@H](O)CC4)[H])CC[C@@]1(C)[C@]([C@H](CCC=C(C)C)C)(CC2)[H]",
    "meta_data": {
        "InChI": "InChI=1S/C30H50O/c1-20(2)10-9-11-21(3)22-14-18-30(8)24-12-13-25-27(4,5)26(31)16-17-28(25,6)23(24)15-19-29(22,30)7/h10,21-22,25-26,31H,9,11-19H2,1-8H3/t21-,22-,25-,26-,28+,29-,30+/m0/s1",
        "InChIKey": null,
        "Canonical SMILES": "OC1CCC2(C3=C(CCC2C1(C)C)C4(C)CCC(C(C)CCC=C(C)C)C4(C)CC3)C",
        "Molecular Formula": "C<sub>30</sub>H<sub>50</sub>O",
        "Molecular Mass": "426.72",
        "Melting Point": "133.0-134.5 °C"
    }
}