{
    "cas_no": "344-25-2",
    "key_name": "<span class=\"text-smallcaps\">D</span>-Proline",
    "cn_name": "D-脯氨酸;D-吡咯烷-2-羧酸;",
    "alternate_name": "<span class=\"text-smallcaps\">D</span>-Proline;Proline, <span class=\"text-smallcaps\">D</span>-;<span class=\"text-smallcaps\">D</span>-(+)-Proline;(+)-(<em>R</em>)-Proline;(<em>R</em>)-Proline;(<em>R</em>)-(+)-Proline;(<em>R</em>)-Pyrrolidine-2-carboxylic acid;(<em>R</em>)-2-Carboxypyrrolidine;(R)-Pyrrolidine-2-carboxylic acid;(2R)-Pyrrolidine-2-carboxylic acid;(2R)-Pyrrolidin-1-ium-2-carboxylate",
    "duplicated_cas_no": "",
    "SMILES": "C(O)(=O)[C@H]1CCCN1",
    "meta_data": {
        "InChI": "InChI=1S/C5H9NO2/c7-5(8)4-2-1-3-6-4/h4,6H,1-3H2,(H,7,8)/t4-/m1/s1",
        "InChIKey": null,
        "Canonical SMILES": "O=C(O)C1NCCC1",
        "Molecular Formula": "C<sub>5</sub>H<sub>9</sub>NO<sub>2</sub>",
        "Molecular Mass": "115.13",
        "Melting Point": "202 °C"
    }
}