{
    "cas_no": "16750-67-7",
    "key_name": "4-Amino-2-bromophenol",
    "cn_name": null,
    "alternate_name": "Phenol, 4-amino-2-bromo-;4-Amino-2-bromophenol;2-Bromo-4-aminophenol",
    "duplicated_cas_no": "",
    "SMILES": "BrC1=C(O)C=CC(N)=C1",
    "meta_data": {
        "InChI": "InChI=1S/C6H6BrNO/c7-5-3-4(8)1-2-6(5)9/h1-3,9H,8H2",
        "InChIKey": null,
        "Canonical SMILES": "BrC1=CC(N)=CC=C1O",
        "Molecular Formula": "C<sub>6</sub>H<sub>6</sub>BrNO",
        "Molecular Mass": "188.02",
        "Melting Point": "165 °C"
    }
}