{
    "cas_no": "17345-77-6",
    "key_name": "4-Bromocatechol",
    "cn_name": "4-溴邻苯二酚;4-溴-1,2-苯二醇;4-溴-1,2-二羟基苯;",
    "alternate_name": "1,2-Benzenediol, 4-bromo-;Pyrocatechol, 4-bromo-;4-Bromo-1,2-benzenediol;4-Bromocatechol;4-Bromopyrocatechol;1-Bromo-3,4-dihydroxybenzene;<em>p</em>-Bromocatechol;4-Bromo-1,2-dihydroxybenzene;3,4-Dihydroxybromobenzene;5-Bromo-2-hydroxyphenol",
    "duplicated_cas_no": "",
    "SMILES": "OC1=C(O)C=CC(Br)=C1",
    "meta_data": {
        "InChI": "InChI=1S/C6H5BrO2/c7-4-1-2-5(8)6(9)3-4/h1-3,8-9H",
        "InChIKey": null,
        "Canonical SMILES": "BrC1=CC=C(O)C(O)=C1",
        "Molecular Formula": "C<sub>6</sub>H<sub>5</sub>BrO<sub>2</sub>",
        "Molecular Mass": "189.01",
        "Melting Point": "86 °C"
    }
}