{
    "cas_no": "482-74-6",
    "key_name": "Cryptopine",
    "cn_name": "隐品碱;克多平;",
    "alternate_name": "Benzo[<em>g</em>]-1,3-benzodioxolo[4,5-<em>c</em>]azecin-12(5<em>H</em>)-one, 4,6,7,13-tetrahydro-9,10-dimethoxy-5-methyl-;Cryptopine;Benzo[<em>e</em>]-1,3-dioxolo[4,5-<em>l</em>][2]benzazecin-12(5<em>H</em>)-one, 4,6,7,13-tetrahydro-9,10-dimethoxy-5-methyl-;4,6,7,13-Tetrahydro-9,10-dimethoxy-5-methylbenzo[<em>g</em>]-1,3-benzodioxolo[4,5-<em>c</em>]azecin-12(5<em>H</em>)-one;Kryptopine;Cryptocavine;Kryptocavin;Cryptopin;NSC 32984",
    "duplicated_cas_no": "633-45-4",
    "SMILES": "CN1CC=2C3=C(C=CC2CC(=O)C=4C(CC1)=CC(OC)=C(OC)C4)OCO3",
    "meta_data": {
        "InChI": "InChI=1S/C21H23NO5/c1-22-7-6-14-9-19(24-2)20(25-3)10-15(14)17(23)8-13-4-5-18-21(16(13)11-22)27-12-26-18/h4-5,9-10H,6-8,11-12H2,1-3H3",
        "InChIKey": null,
        "Canonical SMILES": "O=C1C2=CC(OC)=C(OC)C=C2CCN(C)CC3=C4OCOC4=CC=C3C1",
        "Molecular Formula": "C<sub>21</sub>H<sub>23</sub>NO<sub>5</sub>",
        "Molecular Mass": "369.41",
        "Melting Point": "218 °C"
    }
}