{
    "cas_no": "597-12-6",
    "key_name": "(+)-Melezitose",
    "cn_name": "D-(+)-松三糖;",
    "alternate_name": "α-<span class=\"text-smallcaps\">D</smallcap>-Glucopyranoside, <em>O</em>-α-<smallcap>D</smallcap>-glucopyranosyl-(1→3)-β-<smallcap>D</span>-fructofuranosyl;Melezitose;<em>O</em>-α-<span class=\"text-smallcaps\">D</smallcap>-Glucopyranosyl-(1→3)-β-<smallcap>D</smallcap>-fructofuranosyl α-<smallcap>D</span>-glucopyranoside;<span class=\"text-smallcaps\">D</span>-Melezitose;<span class=\"text-smallcaps\">D</span>-(+)-Melezitose;(+)-Melezitose",
    "duplicated_cas_no": "101833-69-6;47740-04-5",
    "SMILES": "O([C@@]1(CO)[C@@H](O[C@H]2O[C@H](CO)[C@@H](O)[C@H](O)[C@H]2O)[C@H](O)[C@@H](CO)O1)[C@H]3O[C@H](CO)[C@@H](O)[C@H](O)[C@H]3O",
    "meta_data": {
        "InChI": "InChI=1S/C18H32O16/c19-1-5-8(23)11(26)13(28)16(30-5)32-15-10(25)7(3-21)33-18(15,4-22)34-17-14(29)12(27)9(24)6(2-20)31-17/h5-17,19-29H,1-4H2/t5-,6-,7-,8-,9-,10-,11+,12+,13-,14-,15+,16-,17-,18+/m1/s1",
        "InChIKey": null,
        "Canonical SMILES": "OCC1OC(OC2C(O)C(OC2(OC3OC(CO)C(O)C(O)C3O)CO)CO)C(O)C(O)C1O",
        "Molecular Formula": "C<sub>18</sub>H<sub>32</sub>O<sub>16</sub>",
        "Molecular Mass": "504.44",
        "Melting Point": "153 °C"
    }
}