{
    "cas_no": "342-69-8",
    "key_name": "6-Methylmercaptopurine riboside",
    "cn_name": "6-甲硫基嘌呤核苷;6-(甲硫基)-9-β-D-呋喃核糖-9H-嘌呤;",
    "alternate_name": "Inosine, 6-<em>S</em>-methyl-6-thio-;9<em>H</em>-Purine, 6-(methylthio)-9-β-<span class=\"text-smallcaps\">D</span>-ribofuranosyl-;6-<em>S</em>-Methyl-6-thioinosine;6-Methylmercaptopurine riboside;6-(Methylthio)purine ribonucleoside;6-(Methylthio)-9-β-<span class=\"text-smallcaps\">D</span>-ribofuranosyl-9<em>H</em>-purine;β-<span class=\"text-smallcaps\">D</span>-Ribosyl-6-methylthiopurine;6-(Methylmercapto)purine ribonucleoside;6-Methylthiopurine riboside;6-Methylthioinosine;6-(Methylmercapto)-9-(β-<span class=\"text-smallcaps\">D</span>-ribofuranosyl)purine;6-(Methylthio)-9-β-<span class=\"text-smallcaps\">D</span>-ribofuranosylpurine;Methylthioinosine;SQ 21977;NSC 40774;6-MMPR;NSC 49555;MeSH ID: D008778",
    "duplicated_cas_no": "7436-75-1",
    "SMILES": "O[C@H]1[C@H](N2C=3C(N=C2)=C(SC)N=CN3)O[C@H](CO)[C@H]1O",
    "meta_data": {
        "InChI": "InChI=1S/C11H14N4O4S/c1-20-10-6-9(12-3-13-10)15(4-14-6)11-8(18)7(17)5(2-16)19-11/h3-5,7-8,11,16-18H,2H2,1H3/t5-,7-,8-,11-/m1/s1",
        "InChIKey": null,
        "Canonical SMILES": "OCC1OC(N2C=NC=3C(=NC=NC32)SC)C(O)C1O",
        "Molecular Formula": "C<sub>11</sub>H<sub>14</sub>N<sub>4</sub>O<sub>4</sub>S",
        "Molecular Mass": "298.32",
        "Melting Point": "164 °C"
    }
}