{
    "cas_no": "16935-34-5",
    "key_name": "5-Isopropylhydantoin",
    "cn_name": "5-异丙基海因;5-异丙基-2,4-咪唑啉二酮;",
    "alternate_name": "2,4-Imidazolidinedione, 5-(1-methylethyl)-;Hydantoin, 5-isopropyl-;5-(1-Methylethyl)-2,4-imidazolidinedione;5-Isopropylhydantoin;(±)-5-Isopropylhydantoin;<span class=\"text-smallcaps\">DL</span>-5-Isopropylhydantoin;NSC 163352;NSC 55329",
    "duplicated_cas_no": "67337-70-6",
    "SMILES": "C(C)(C)C1NC(=O)NC1=O",
    "meta_data": {
        "InChI": "InChI=1S/C6H10N2O2/c1-3(2)4-5(9)8-6(10)7-4/h3-4H,1-2H3,(H2,7,8,9,10)",
        "InChIKey": null,
        "Canonical SMILES": "O=C1NC(=O)C(N1)C(C)C",
        "Molecular Formula": "C<sub>6</sub>H<sub>10</sub>N<sub>2</sub>O<sub>2</sub>",
        "Molecular Mass": "142.16",
        "Melting Point": "144-145 °C"
    }
}