{
    "cas_no": "19542-77-9",
    "key_name": "Benzylmercapturic acid",
    "cn_name": "N-乙酰基卞基半胱氨酸;",
    "alternate_name": "<span class=\"text-smallcaps\">L</span>-Cysteine, <em>N</em>-acetyl-<em>S</em>-(phenylmethyl)-;Alanine, <em>N</em>-acetyl-3-(benzylthio)-, <span class=\"text-smallcaps\">L</span>-;<em>N</em>-Acetyl-<em>S</em>-(phenylmethyl)-<span class=\"text-smallcaps\">L</span>-cysteine;Benzylmercapturic acid;<em>S</em>-Benzyl-<em>N</em>-acetyl-<span class=\"text-smallcaps\">L</span>-cysteine;<em>N</em>-Acetyl-<em>S</em>-benzylcysteine;<em>S</em>-Benzyl-<em>N</em>-acetylcysteine;<em>N</em>-Acetyl-<em>S</em>-benzyl-<span class=\"text-smallcaps\">L</span>-cysteine;<em>S</em>-Benzyl-(<em>R</em>)-mercapturic acid;(R)-2-Acetamido-3-(benzylthio)propanoic acid",
    "duplicated_cas_no": "26258-01-5",
    "SMILES": "C(SC[C@H](NC(C)=O)C(O)=O)C1=CC=CC=C1",
    "meta_data": {
        "InChI": "InChI=1S/C12H15NO3S/c1-9(14)13-11(12(15)16)8-17-7-10-5-3-2-4-6-10/h2-6,11H,7-8H2,1H3,(H,13,14)(H,15,16)/t11-/m0/s1",
        "InChIKey": null,
        "Canonical SMILES": "O=C(O)C(NC(=O)C)CSCC=1C=CC=CC1",
        "Molecular Formula": "C<sub>12</sub>H<sub>15</sub>NO<sub>3</sub>S",
        "Molecular Mass": "253.32",
        "Melting Point": "156-157 °C"
    }
}