{
    "cas_no": "589-17-3",
    "key_name": "4-Bromobenzyl chloride",
    "cn_name": "4-溴苄氯;4-溴苯甲基氯;对溴基氯化苄;",
    "alternate_name": "Benzene, 1-bromo-4-(chloromethyl)-;Toluene, <em>p</em>-bromo-α-chloro-;1-Bromo-4-(chloromethyl)benzene;<em>p</em>-Bromobenzyl chloride;<em>p</em>-Bromo-α-chlorotoluene;α-Chloro-4-bromotoluene;4-Bromobenzyl chloride",
    "duplicated_cas_no": "",
    "SMILES": "C(Cl)C1=CC=C(Br)C=C1",
    "meta_data": {
        "InChI": "InChI=1S/C7H6BrCl/c8-7-3-1-6(5-9)2-4-7/h1-4H,5H2",
        "InChIKey": null,
        "Canonical SMILES": "ClCC1=CC=C(Br)C=C1",
        "Molecular Formula": "C<sub>7</sub>H<sub>6</sub>BrCl",
        "Molecular Mass": "205.48",
        "Boiling Point": "236 °C",
        "Melting Point": "50 °C"
    }
}