{
    "cas_no": "14405-03-9",
    "key_name": "2-Chloro-<em>N</em>-[4-chloro-2-(2-chlorobenzoyl)phenyl]acetamide",
    "cn_name": null,
    "alternate_name": "Acetamide, 2-chloro-<em>N</em>-[4-chloro-2-(2-chlorobenzoyl)phenyl]-;Acetanilide, 2,4′-dichloro-2′-(<em>o</em>-chlorobenzoyl)-;2-Chloro-<em>N</em>-[4-chloro-2-(2-chlorobenzoyl)phenyl]acetamide;Ro 97-1274",
    "duplicated_cas_no": "",
    "SMILES": "C(=O)(C1=C(NC(CCl)=O)C=CC(Cl)=C1)C2=C(Cl)C=CC=C2",
    "meta_data": {
        "InChI": "InChI=1S/C15H10Cl3NO2/c16-8-14(20)19-13-6-5-9(17)7-11(13)15(21)10-3-1-2-4-12(10)18/h1-7H,8H2,(H,19,20)",
        "InChIKey": null,
        "Canonical SMILES": "O=C(C=1C=CC=CC1Cl)C2=CC(Cl)=CC=C2NC(=O)CCl",
        "Molecular Formula": "C<sub>15</sub>H<sub>10</sub>Cl<sub>3</sub>NO<sub>2</sub>",
        "Molecular Mass": "342.60",
        "Melting Point": "157-159 °C"
    }
}