{
    "cas_no": "39718-32-6",
    "key_name": "1,4-Difluoro-2-isocyanatobenzene",
    "cn_name": "2,5-二氟异氰酸苯酯;",
    "alternate_name": "Benzene, 1,4-difluoro-2-isocyanato-;1,4-Difluoro-2-isocyanatobenzene;2,5-Difluorophenyl isocyanate",
    "duplicated_cas_no": "894427-25-9",
    "SMILES": "N(=C=O)C1=C(F)C=CC(F)=C1",
    "meta_data": {
        "InChI": "InChI=1S/C7H3F2NO/c8-5-1-2-6(9)7(3-5)10-4-11/h1-3H",
        "InChIKey": null,
        "Canonical SMILES": "O=C=NC1=CC(F)=CC=C1F",
        "Molecular Formula": "C<sub>7</sub>H<sub>3</sub>F<sub>2</sub>NO",
        "Molecular Mass": "155.10",
        "Boiling Point": "52-54 °C @ Press: 14 Torr"
    }
}