{
    "cas_no": "75-28-5",
    "key_name": "Isobutane",
    "cn_name": "2-甲基丙烷;异丁烷;",
    "alternate_name": "Propane, 2-methyl-;2-Methylpropane;Isobutane;<em>iso</em>-Butane;Trimethylmethane;1,1-Dimethylethane;A 31;A 31 (hydrocarbon);R 600a;Purifrigor Iso 2;Purifrigor Iso 2.5;Purifrigor Iso 3;Purifrigor Iso 3.5",
    "duplicated_cas_no": "70357-15-2;100494-20-0;1326305-81-0",
    "SMILES": "C(C)(C)C",
    "meta_data": {
        "InChI": "InChI=1S/C4H10/c1-4(2)3/h4H,1-3H3",
        "InChIKey": null,
        "Canonical SMILES": "CC(C)C",
        "Molecular Formula": "C<sub>4</sub>H<sub>10</sub>",
        "Molecular Mass": "58.12",
        "Boiling Point": "-11.7 °C",
        "Melting Point": "-138.3 °C",
        "Density": "0.61415 g/cm³ @ Temp: -29.5 °C"
    }
}