{
    "cas_no": "22381-54-0",
    "key_name": "2-[(4-Methylphenyl)sulfonyl]ethanol",
    "cn_name": "2-(对甲苯磺酰)乙醇;",
    "alternate_name": "Ethanol, 2-[(4-methylphenyl)sulfonyl]-;Ethanol, 2-(<em>p</em>-tolylsulfonyl)-;2-[(4-Methylphenyl)sulfonyl]ethanol;2-(<em>p</em>-Tolylsulfonyl)ethanol;2-(4-Methylphenylsulfonyl)ethanol;2-(4-Toluenesulfonyl)ethanol;4-Methylphenyl 2-hydroxyethyl sulfone;NSC 70003;2-(<em>p</em>-Methylphenylsulfonyl)ethanol;2-(4-Methylbenzenesulfonyl)ethan-1-ol;2-Tosylethan-1-ol",
    "duplicated_cas_no": "",
    "SMILES": "S(CCO)(=O)(=O)C1=CC=C(C)C=C1",
    "meta_data": {
        "InChI": "InChI=1S/C9H12O3S/c1-8-2-4-9(5-3-8)13(11,12)7-6-10/h2-5,10H,6-7H2,1H3",
        "InChIKey": null,
        "Canonical SMILES": "O=S(=O)(C1=CC=C(C=C1)C)CCO",
        "Molecular Formula": "C<sub>9</sub>H<sub>12</sub>O<sub>3</sub>S",
        "Molecular Mass": "200.25",
        "Boiling Point": "168-170 °C @ Press: 0.1 Torr",
        "Melting Point": "57 °C"
    }
}