{
    "cas_no": "123-56-8",
    "key_name": "Succinimide",
    "cn_name": "丁二酰亚胺;",
    "alternate_name": "2,5-Pyrrolidinedione;Succinimide;Butanimide;2,5-Diketopyrrolidine;Succinic imide;2,5-Dioxopyrrolidine;Succinic acid imide;Lubrizol 6406;NSC 11204;NSC 13114;NSC 49152;Acure 510-079",
    "duplicated_cas_no": "127004-69-7;89963-74-6",
    "SMILES": "O=C1NC(=O)CC1",
    "meta_data": {
        "InChI": "InChI=1S/C4H5NO2/c6-3-1-2-4(7)5-3/h1-2H2,(H,5,6,7)",
        "InChIKey": null,
        "Canonical SMILES": "O=C1NC(=O)CC1",
        "Molecular Formula": "C<sub>4</sub>H<sub>5</sub>NO<sub>2</sub>",
        "Molecular Mass": "99.09",
        "Boiling Point": "288 °C",
        "Melting Point": "126.5 °C"
    }
}