{
    "cas_no": "330-55-2",
    "key_name": "Linuron",
    "cn_name": "利谷隆;1-甲氧基-1-甲基-3-(3,4-二氯苯基)脲;",
    "alternate_name": "Urea, <em>N</em>′-(3,4-dichlorophenyl)-<em>N</em>-methoxy-<em>N</em>-methyl-;Urea, 3-(3,4-dichlorophenyl)-1-methoxy-1-methyl-;<em>N</em>′-(3,4-Dichlorophenyl)-<em>N</em>-methoxy-<em>N</em>-methylurea;Afalon;Afalon inuron;3-(3,4-Dichlorophenyl)-1-methoxy-1-methylurea;<em>N</em>-(3,4-Dichlorophenyl)-<em>N</em>′-methyl-<em>N</em>′-methoxyurea;Du Pont 326;Herbicide 326;Lorox;1-Methoxy-1-methyl-3-(3,4-dichlorophenyl)urea;Sinuron;Aphalon;Linuron;Cephalon;<em>N</em>-(3,4-Dichlorophenyl)-<em>N</em>′-methoxy-<em>N</em>′-methylurea;1-(3,4-Dichlorophenyl)-3-methoxy-3-methylurea;3-(3,4-Dichlorophenyl)-1-methyl-1-methoxyurea;Lorex;Du Pont Herbicide 326;Methoxydiuron;3-(3′,4′-Dichlorophenyl)-1-methoxy-1-methylurea;Sarclex;Alfalone;Alfalon;Linurex;Linex;Liron;Afalon Dys. 450SC;Galolin Mono;Linex (herbicide);Afalon 450 SC;MeSH ID: D008044",
    "duplicated_cas_no": "56645-87-5",
    "SMILES": "N(C(N(OC)C)=O)C1=CC(Cl)=C(Cl)C=C1",
    "meta_data": {
        "InChI": "InChI=1S/C9H10Cl2N2O2/c1-13(15-2)9(14)12-6-3-4-7(10)8(11)5-6/h3-5H,1-2H3,(H,12,14)",
        "InChIKey": null,
        "Canonical SMILES": "O=C(NC1=CC=C(Cl)C(Cl)=C1)N(OC)C",
        "Molecular Formula": "C<sub>9</sub>H<sub>10</sub>Cl<sub>2</sub>N<sub>2</sub>O<sub>2</sub>",
        "Molecular Mass": "249.09",
        "Melting Point": "93-94 °C",
        "Density": "1.49 g/cm³ @ Temp: 20 °C"
    }
}