{
    "cas_no": "92-41-1",
    "key_name": "2,7-Naphthalenedisulfonic acid",
    "cn_name": "2,7-萘二磺酸;",
    "alternate_name": "2,7-Naphthalenedisulfonic acid;Naphthalene-2,7-disulfonic acid;2,7-Disulfonaphthalene;NSC 65895;NSC 9589",
    "duplicated_cas_no": "",
    "SMILES": "S(=O)(=O)(O)C1=CC2=C(C=CC(S(=O)(=O)O)=C2)C=C1",
    "meta_data": {
        "InChI": "InChI=1S/C10H8O6S2/c11-17(12,13)9-3-1-7-2-4-10(18(14,15)16)6-8(7)5-9/h1-6H,(H,11,12,13)(H,14,15,16)",
        "InChIKey": null,
        "Canonical SMILES": "O=S(=O)(O)C1=CC=C2C=CC(=CC2=C1)S(=O)(=O)O",
        "Molecular Formula": "C<sub>10</sub>H<sub>8</sub>O<sub>6</sub>S<sub>2</sub>",
        "Molecular Mass": "288.30",
        "Melting Point": "199 °C"
    }
}