{
    "cas_no": "447-61-0",
    "key_name": "2-(Trifluoromethyl)benzaldehyde",
    "cn_name": "邻三氟甲基苯甲醛;",
    "alternate_name": "Benzaldehyde, 2-(trifluoromethyl)-;<em>o</em>-Tolualdehyde, α,α,α-trifluoro-;2-(Trifluoromethyl)benzaldehyde;<em>o</em>-(Trifluoromethyl)benzaldehyde;α,α,α-Trifluoro-<em>o</em>-tolualdehyde",
    "duplicated_cas_no": "",
    "SMILES": "C(=O)C1=C(C(F)(F)F)C=CC=C1",
    "meta_data": {
        "InChI": "InChI=1S/C8H5F3O/c9-8(10,11)7-4-2-1-3-6(7)5-12/h1-5H",
        "InChIKey": null,
        "Canonical SMILES": "O=CC=1C=CC=CC1C(F)(F)F",
        "Molecular Formula": "C<sub>8</sub>H<sub>5</sub>F<sub>3</sub>O",
        "Molecular Mass": "174.12",
        "Boiling Point": "70 °C",
        "Melting Point": "205 °C"
    }
}