{
    "cas_no": "58438-03-2",
    "key_name": "2-Naphthylalanine",
    "cn_name": "L-3-(2-萘基)-丙氨酸;",
    "alternate_name": "2-Naphthalenepropanoic acid, α-amino-, (α<em>S</em>)-;2-Naphthalenepropanoic acid, α-amino-, (<em>S</em>)-;(α<em>S</em>)-α-Amino-2-naphthalenepropanoic acid;3-(2-Naphthyl)-<span class=\"text-smallcaps\">L</span>-alanine;<span class=\"text-smallcaps\">L</span>-3-(2-Naphthyl)alanine;(<em>S</em>)-3-(2-Naphthyl)alanine;β-2-Naphthyl-<span class=\"text-smallcaps\">L</span>-alanine;2-Naphthylalanine;<span class=\"text-smallcaps\">L</span>-β-(2-Naphthyl)alanine;(<em>S</em>)-2-Amino-3-(naphthalen-2-yl)propanoic acid;(2S)-2-Amino-3-(naphthalen-2-yl)propanoic acid;(2S)-2-Azaniumyl-3-naphthalen-2-ylpropanoate;2-Naphthalenepropanoic acid α-amino-, (αS)-;3-(2-Napthyl)-<span class=\"text-smallcaps\">L</span>-alanine",
    "duplicated_cas_no": "1013313-60-4",
    "SMILES": "C([C@@H](C(O)=O)N)C1=CC2=C(C=C1)C=CC=C2",
    "meta_data": {
        "InChI": "InChI=1S/C13H13NO2/c14-12(13(15)16)8-9-5-6-10-3-1-2-4-11(10)7-9/h1-7,12H,8,14H2,(H,15,16)/t12-/m0/s1",
        "InChIKey": null,
        "Canonical SMILES": "O=C(O)C(N)CC=1C=CC=2C=CC=CC2C1",
        "Molecular Formula": "C<sub>13</sub>H<sub>13</sub>NO<sub>2</sub>",
        "Molecular Mass": "215.25",
        "Melting Point": "262 °C"
    }
}