{
    "cas_no": "602-87-9",
    "key_name": "5-Nitroacenaphthene",
    "cn_name": "1,2-二氢-5-硝基苊;5-硝基苊;",
    "alternate_name": "Acenaphthylene, 1,2-dihydro-5-nitro-;Acenaphthene, 5-nitro-;1,2-Dihydro-5-nitroacenaphthylene;5-Nitroacenaphthene;NSC 1312;NSC 22421",
    "duplicated_cas_no": "",
    "SMILES": "N(=O)(=O)C1=C2C3=C(C=C1)CCC3=CC=C2",
    "meta_data": {
        "InChI": "InChI=1S/C12H9NO2/c14-13(15)11-7-6-9-5-4-8-2-1-3-10(11)12(8)9/h1-3,6-7H,4-5H2",
        "InChIKey": null,
        "Canonical SMILES": "O=N(=O)C1=CC=C2C=3C1=CC=CC3CC2",
        "Molecular Formula": "C<sub>12</sub>H<sub>9</sub>NO<sub>2</sub>",
        "Molecular Mass": "199.21",
        "Melting Point": "102-103 °C"
    }
}