{
    "cas_no": "18296-45-2",
    "key_name": "Didrovaltrate",
    "cn_name": null,
    "alternate_name": "Butanoic acid, 3-methyl-, (1<em>S</em>,2′<em>R</em>,4a<em>S</em>,6<em>S</em>,7a<em>S</em>)-6-(acetyloxy)-4a,5,6,7a-tetrahydro-4-[(3-methyl-1-oxobutoxy)methyl]spiro[cyclopenta[<em>c</em>]pyran-7(1<em>H</em>),2′-oxiran]-1-yl ester;Butanoic acid, 3-methyl-, 6-(acetyloxy)-4a,5,6,7a-tetrahydro-4-[(3-methyl-1-oxobutoxy)methyl]spiro[cyclopenta[<em>c</em>]pyran-7(1<em>H</em>),2′-oxiran]-1-yl ester, [1<em>S</em>-(1α,4aα,6α,7β,7aα)]-;Spiro[cyclopenta[<em>c</em>]pyran-7(1<em>H</em>),2′-oxirane], butanoic acid deriv.;Didrovaltratum;Dihydroisovalepotriate;Dihydroisovaltrate;Didrovaltrate;Dihydroisovaltratum;NSC 335756",
    "duplicated_cas_no": "16088-53-2;31078-11-2",
    "SMILES": "O(C(C)=O)[C@@H]1[C@@]2([C@@]3([C@](C1)(C(COC(CC(C)C)=O)=CO[C@H]3OC(CC(C)C)=O)[H])[H])CO2",
    "meta_data": {
        "InChI": "InChI=1S/C22H32O8/c1-12(2)6-18(24)26-9-15-10-27-21(30-19(25)7-13(3)4)20-16(15)8-17(29-14(5)23)22(20)11-28-22/h10,12-13,16-17,20-21H,6-9,11H2,1-5H3/t16-,17+,20-,21+,22-/m1/s1",
        "InChIKey": null,
        "Canonical SMILES": "O=C(OC1CC2C(=COC(OC(=O)CC(C)C)C2C31OC3)COC(=O)CC(C)C)C",
        "Molecular Formula": "C<sub>22</sub>H<sub>32</sub>O<sub>8</sub>",
        "Molecular Mass": "424.48",
        "Melting Point": "63-64 °C"
    }
}