{
    "cas_no": "2050-77-3",
    "key_name": "1-Iododecane",
    "cn_name": "1-碘癸烷;",
    "alternate_name": "Decane, 1-iodo-;1-Iododecane;Decyl iodide;<em>n</em>-Decyl iodide;1-Decyl iodide",
    "duplicated_cas_no": "",
    "SMILES": "C(CCCCC)CCCCI",
    "meta_data": {
        "InChI": "InChI=1S/C10H21I/c1-2-3-4-5-6-7-8-9-10-11/h2-10H2,1H3",
        "InChIKey": null,
        "Canonical SMILES": "ICCCCCCCCCC",
        "Molecular Formula": "C<sub>10</sub>H<sub>21</sub>I",
        "Molecular Mass": "268.18",
        "Boiling Point": "132 °C",
        "Melting Point": "-16.3 °C",
        "Density": "1.2567 g/cm³ @ Temp: 20 °C"
    }
}