{
    "cas_no": "542-59-6",
    "key_name": "Glycol monoacetate",
    "cn_name": "乙二醇乙酸酯;1,2-乙二醇单乙酸酯;乙二醇单乙酸酯;乙二醇单醋酸酯;乙二醇一乙酸酯;",
    "alternate_name": "1,2-Ethanediol, 1-acetate;Ethylene glycol, monoacetate;1,2-Ethanediol, monoacetate;Glycol monoacetate;2-Hydroxyethyl acetate;2-Acetoxyethanol;β-Hydroxyethyl acetate;Ethylenediol monoacetate;Monoacetyl ethylene glycol;NSC 9234;Ethylene glycol monoacetate;1-<em>O</em>-Acetyl Ethylene Glycol",
    "duplicated_cas_no": "",
    "SMILES": "O(C(C)=O)CCO",
    "meta_data": {
        "InChI": "InChI=1S/C4H8O3/c1-4(6)7-3-2-5/h5H,2-3H2,1H3",
        "InChIKey": null,
        "Canonical SMILES": "O=C(OCCO)C",
        "Molecular Formula": "C<sub>4</sub>H<sub>8</sub>O<sub>3</sub>",
        "Molecular Mass": "104.10",
        "Boiling Point": "188 °C",
        "Density": "1.1186 g/cm³ @ Temp: 10.01 °C"
    }
}