{
    "cas_no": "19393-96-5",
    "key_name": "2-Bromo-1,3,5-trichlorobenzene",
    "cn_name": "2-溴-1,3,5-三氯苯;",
    "alternate_name": "Benzene, 2-bromo-1,3,5-trichloro-;2-Bromo-1,3,5-trichlorobenzene;1-Bromo-2,4,6-trichlorobenzene;Bromo-2,4,6-trichlorobenzene;2,4,6-Trichlorobromobenzene;1,3,5-Trichloro-2-bromobenzene",
    "duplicated_cas_no": "",
    "SMILES": "BrC1=C(Cl)C=C(Cl)C=C1Cl",
    "meta_data": {
        "InChI": "InChI=1S/C6H2BrCl3/c7-6-4(9)1-3(8)2-5(6)10/h1-2H",
        "InChIKey": null,
        "Canonical SMILES": "ClC=1C=C(Cl)C(Br)=C(Cl)C1",
        "Molecular Formula": "C<sub>6</sub>H<sub>2</sub>BrCl<sub>3</sub>",
        "Molecular Mass": "260.34",
        "Melting Point": "65 °C"
    }
}