{
    "cas_no": "3775-73-3",
    "key_name": "(-)-3-Aminobutyric acid",
    "cn_name": "(R)-3-氨基丁醇;",
    "alternate_name": "Butanoic acid, 3-amino-, (3<em>R</em>)-;Butyric acid, 3-amino-, <span class=\"text-smallcaps\">D</span>-;Butanoic acid, 3-amino-, (<em>R</em>)-;(3<em>R</em>)-3-Aminobutanoic acid;<span class=\"text-smallcaps\">D</span>-β-Aminobutyric acid;(<em>R</em>)-3-Aminobutanoic acid;<span class=\"text-smallcaps\">D</span>-3-Aminobutyric acid;(<em>R</em>)-β-Aminobutanoic acid;(<em>R</em>)-(-)-3-Aminobutyric acid;<span class=\"text-smallcaps\">D</span>-3-Aminobutanoic acid;(<em>R</em>)-3-Aminobutyric acid;(-)-3-Aminobutanoic acid;(-)-3-Aminobutyric acid;3(<em>R</em>)-Methyl-β-alanine;(R)-3-Aminobutanoic acid;(3R)-3-Azaniumylbutanoate",
    "duplicated_cas_no": "",
    "SMILES": "C([C@@H](C)N)C(O)=O",
    "meta_data": {
        "InChI": "InChI=1S/C4H9NO2/c1-3(5)2-4(6)7/h3H,2,5H2,1H3,(H,6,7)/t3-/m1/s1",
        "InChIKey": null,
        "Canonical SMILES": "O=C(O)CC(N)C",
        "Molecular Formula": "C<sub>4</sub>H<sub>9</sub>NO<sub>2</sub>",
        "Molecular Mass": "103.12",
        "Melting Point": "215-216 °C"
    }
}