{
    "cas_no": "18474-60-7",
    "key_name": "7-Methyl-1<em>H</em>-indole-2-carboxylic acid",
    "cn_name": "7-甲基吲哚-2-羧酸;",
    "alternate_name": "1<em>H</em>-Indole-2-carboxylic acid, 7-methyl-;Indole-2-carboxylic acid, 7-methyl-;7-Methyl-1<em>H</em>-indole-2-carboxylic acid;7-Methylindole-2-carboxylic acid",
    "duplicated_cas_no": "",
    "SMILES": "CC1=C2C(C=C(C(O)=O)N2)=CC=C1",
    "meta_data": {
        "InChI": "InChI=1S/C10H9NO2/c1-6-3-2-4-7-5-8(10(12)13)11-9(6)7/h2-5,11H,1H3,(H,12,13)",
        "InChIKey": null,
        "Canonical SMILES": "O=C(O)C1=CC=2C=CC=C(C2N1)C",
        "Molecular Formula": "C<sub>10</sub>H<sub>9</sub>NO<sub>2</sub>",
        "Molecular Mass": "175.18",
        "Melting Point": "176 °C"
    }
}