{
    "cas_no": "2175-90-8",
    "key_name": "Diphenylfulvene",
    "cn_name": null,
    "alternate_name": "Benzene, 1,1′-(2,4-cyclopentadien-1-ylidenemethylene)bis-;Methane, 2,4-cyclopentadien-1-ylidenediphenyl-;Benzene, (2,4-cyclopentadien-1-ylidenephenylmethyl)-;Fulvene, 6,6-diphenyl-;1,1′-(2,4-Cyclopentadien-1-ylidenemethylene)bis[benzene];Diphenylfulvene;6,6-Diphenylfulvene;5-(Diphenylmethylene)-1,3-cyclopentadiene;NSC 402188;6,6-Diphenylpentafulvene;[2-(Cyclopenta-2,4-dienylidene)propane-1,3-diyl]dibenzene;[Cyclopenta-2,4-dien-1-ylidene(phenyl)methyl]benzene",
    "duplicated_cas_no": "111122-31-7",
    "SMILES": "C(=C1C=CC=C1)(C2=CC=CC=C2)C3=CC=CC=C3",
    "meta_data": {
        "InChI": "InChI=1S/C18H14/c1-3-9-15(10-4-1)18(17-13-7-8-14-17)16-11-5-2-6-12-16/h1-14H",
        "InChIKey": null,
        "Canonical SMILES": "C=1C=CC(=CC1)C(C=2C=CC=CC2)=C3C=CC=C3",
        "Molecular Formula": "C<sub>18</sub>H<sub>14</sub>",
        "Molecular Mass": "230.30",
        "Boiling Point": "309 °C",
        "Melting Point": "82 °C"
    }
}