{
    "cas_no": "1284-72-6",
    "key_name": "Bis(cyclopentadienyl)magnesium",
    "cn_name": "双(环戊二烯)镁;二茂镁;",
    "alternate_name": "Magnesocene;Magnesium, di-π-cyclopentadienyl-;Magnesium, dicyclopentadienyl-;Bis(π-cyclopentadienyl)magnesium;Dicyclopentadienylmagnesium;Di-π-cyclopentadienylmagnesium;Magnesium dicyclopentadienide;Bis(cyclopentadienyl)magnesium;Bis(η<sup>5</sup>-cyclopentadienyl)magnesium",
    "duplicated_cas_no": "1216999-55-1",
    "SMILES": "[Mg+2]12345678([CH-]9[CH]1=[CH]2[CH]3=[CH]49)[CH-]%10[CH]5=[CH]6[CH]7=[CH]8%10",
    "meta_data": {
        "InChI": "InChI=1S/2C5H5.Mg/c2*1-2-4-5-3-1;/h2*1-5H;/q2*-1;+2",
        "InChIKey": null,
        "Canonical SMILES": "[CH]=12[CH]3=[CH]4[CH-]5[CH]1[Mg+2]23678945[CH]=%10[CH]9=[CH]8[CH-]7[CH]%106",
        "Molecular Formula": "C<sub>10</sub>H<sub>10</sub>Mg",
        "Molecular Mass": "",
        "Melting Point": "176-178 °C"
    }
}