{
    "cas_no": "22705-33-5",
    "key_name": "<em>N</em>,<em>N</em>,<em>N</em>′,<em>N</em>′,1-Pentamethylsilanediamine",
    "cn_name": "二(二甲氨基)甲基硅;",
    "alternate_name": "Silanediamine, <em>N</em>,<em>N</em>,<em>N</em>′,<em>N</em>′,1-pentamethyl-;<em>N</em>,<em>N</em>,<em>N</em>′,<em>N</em>′,1-Pentamethylsilanediamine;Bis(dimethylamino)methylsilane;Methylbis(dimethylamino)silane;LS 910;[(Dimethylamino)(methyl)silyl]dimethylamine",
    "duplicated_cas_no": "",
    "SMILES": "[SiH](N(C)C)(N(C)C)C",
    "meta_data": {
        "InChI": "InChI=1S/C5H16N2Si/c1-6(2)8(5)7(3)4/h8H,1-5H3",
        "InChIKey": null,
        "Canonical SMILES": "N(C)(C)[SiH](N(C)C)C",
        "Molecular Formula": "C<sub>5</sub>H<sub>16</sub>N<sub>2</sub>Si",
        "Molecular Mass": "132.28",
        "Boiling Point": "112-113 °C",
        "Density": "0.798 g/cm³"
    }
}