{
    "cas_no": "4611-05-6",
    "key_name": "Ophiobolin A",
    "cn_name": null,
    "alternate_name": "Spiro[dicyclopenta[<em>a</em>,<em>d</em>]cyclooctene-3(2<em>H</em>),2′(3′<em>H</em>)-furan]-6-carboxaldehyde, 1,3a,4,4′,5′,6a,7,8,9,9a,10,10a-dodecahydro-9-hydroxy-3′,9,10a-trimethyl-5′-(2-methyl-1-propen-1-yl)-7-oxo-, (2′<em>S</em>,3′<em>S</em>,3a<em>R</em>,5′<em>R</em>,6a<em>S</em>,9<em>R</em>,9a<em>S</em>,10a<em>R</em>)-;Ophiobola-7,19-dien-25-al, 14,18-epoxy-3-hydroxy-5-oxo-, (18<em>R</em>)-;Ophiobolin;Cochliobolin A;Spiro[dicyclopenta[<em>a</em>,<em>d</em>]cyclooctene-3(2<em>H</em>),2′(3′<em>H</em>)-furan]-6-carboxaldehyde, 1,3a,4,4′,5′,6a,7,8,9,9a,10,10a-dodecahydro-9-hydroxy-3′,9,10a-trimethyl-5′-(2-methyl-1-propenyl)-7-oxo-, (2′<em>S</em>,3′<em>S</em>,3a<em>R</em>,5′<em>R</em>,6a<em>S</em>,9<em>R</em>,9a<em>S</em>,10a<em>R</em>)-;(2′<em>S</em>,3′<em>S</em>,3a<em>R</em>,5′<em>R</em>,6a<em>S</em>,9<em>R</em>,9a<em>S</em>,10a<em>R</em>)-1,3a,4,4′,5′,6a,7,8,9,9a,10,10a-Dodecahydro-9-hydroxy-3′,9,10a-trimethyl-5′-(2-methyl-1-propen-1-yl)-7-oxospiro[dicyclopenta[<em>a</em>,<em>d</em>]cyclooctene-3(2<em>H</em>),2′(3′<em>H</em>)-furan]-6-carboxaldehyde;Ophiobolin A;Cochliobolin;Spiro[dicyclopenta[<em>a</em>,<em>d</em>]cyclooctene-3(2<em>H</em>),2′(3′<em>H</em>)-furan]-6-carboxaldehyde, 1,3a,4,4′,5′,6a,7,8,9,9a,10,10a-dodecahydro-9-hydroxy-3′,9,10a-trimethyl-5′-(2-methyl-1-propenyl)-7-oxo-, [3<em>S</em>-[3α(3′<em>R</em>*,5′<em>S</em>*),3aα,6aβ,9α,9aβ,10aβ]]-;NSC 114340;(+)-Ophiobolin A",
    "duplicated_cas_no": "1347-57-5;5843-70-9;11022-22-3;17046-71-8",
    "SMILES": "C[C@@H]1[C@@]2([C@]3([C@](C)(CC2)C[C@]4([C@@](C(C=O)=CC3)(C(=O)C[C@@]4(C)O)[H])[H])[H])O[C@@H](C=C(C)C)C1",
    "meta_data": {
        "InChI": "InChI=1S/C25H36O4/c1-15(2)10-18-11-16(3)25(29-18)9-8-23(4)12-19-22(20(27)13-24(19,5)28)17(14-26)6-7-21(23)25/h6,10,14,16,18-19,21-22,28H,7-9,11-13H2,1-5H3/t16-,18-,19-,21+,22+,23+,24+,25-/m0/s1",
        "InChIKey": null,
        "Canonical SMILES": "O=CC1=CCC2C3(OC(C=C(C)C)CC3C)CCC2(C)CC4C1C(=O)CC4(O)C",
        "Molecular Formula": "C<sub>25</sub>H<sub>36</sub>O<sub>4</sub>",
        "Molecular Mass": "400.55",
        "Melting Point": "181-182 °C"
    }
}