{
    "cas_no": "2286-54-6",
    "key_name": "β-Phenylbenzenepropanenitrile",
    "cn_name": "3,3-二苯基丙腈;",
    "alternate_name": "Benzenepropanenitrile, β-phenyl-;Propionitrile, 3,3-diphenyl-;β-Phenylbenzenepropanenitrile;3,3-Diphenylpropionitrile;3,3-Diphenylpropanenitrile",
    "duplicated_cas_no": "",
    "SMILES": "C(CC#N)(C1=CC=CC=C1)C2=CC=CC=C2",
    "meta_data": {
        "InChI": "InChI=1S/C15H13N/c16-12-11-15(13-7-3-1-4-8-13)14-9-5-2-6-10-14/h1-10,15H,11H2",
        "InChIKey": null,
        "Canonical SMILES": "N#CCC(C=1C=CC=CC1)C=2C=CC=CC2",
        "Molecular Formula": "C<sub>15</sub>H<sub>13</sub>N",
        "Molecular Mass": "207.27",
        "Boiling Point": "175-178 °C @ Press: 2 Torr",
        "Melting Point": "88.5 °C"
    }
}