{
    "cas_no": "20562-02-1",
    "key_name": "α-Solanine",
    "cn_name": null,
    "alternate_name": "β-<span class=\"text-smallcaps\">D</smallcap>-Galactopyranoside, (3β)-solanid-5-en-3-yl <em>O</em>-6-deoxy-α-<smallcap>L</smallcap>-mannopyranosyl-(1→2)-<em>O</em>-[β-<smallcap>D</span>-glucopyranosyl-(1→3)]-;α-Solanine;Solanidane, β-<span class=\"text-smallcaps\">D</span>-galactopyranoside deriv.;1<em>H</em>-Naphth[2′,1′:4,5]indeno[1,2-<em>b</em>]indolizine, β-<span class=\"text-smallcaps\">D</span>-galactopyranoside deriv.;(3β)-Solanid-5-en-3-yl <em>O</em>-6-deoxy-α-<span class=\"text-smallcaps\">L</smallcap>-mannopyranosyl-(1→2)-<em>O</em>-[β-<smallcap>D</smallcap>-glucopyranosyl-(1→3)]-β-<smallcap>D</span>-galactopyranoside;α-Solanin",
    "duplicated_cas_no": "125-97-3;11017-45-1;32242-09-4;73681-48-8",
    "SMILES": "C[C@@]12[C@@]3([C@](C[C@]1([C@]4([C@](CC2)([C@]5(C)C(=CC4)C[C@@H](O[C@H]6[C@H](O[C@H]7[C@H](O)[C@H](O)[C@@H](O)[C@H](C)O7)[C@@H](O[C@@H]8O[C@H](CO)[C@@H](O)[C@H](O)[C@H]8O)[C@@H](O)[C@@H](CO)O6)CC5)[H])[H])[H])(N9[C@@]([C@H]3C)(CC[C@H](C)C9)[H])[H])[H]",
    "meta_data": {
        "InChI": "InChI=1S/C45H73NO15/c1-19-6-9-27-20(2)31-28(46(27)16-19)15-26-24-8-7-22-14-23(10-12-44(22,4)25(24)11-13-45(26,31)5)57-43-40(61-41-37(54)35(52)32(49)21(3)56-41)39(34(51)30(18-48)59-43)60-42-38(55)36(53)33(50)29(17-47)58-42/h7,19-21,23-43,47-55H,6,8-18H2,1-5H3/t19-,20+,21-,23-,24+,25-,26-,27+,28-,29+,30+,31-,32-,33+,34-,35+,36-,37+,38+,39-,40+,41-,42-,43+,44-,45-/m0/s1",
        "InChIKey": null,
        "Canonical SMILES": "OCC1OC(OC2C(O)C(OC(OC3CC4=CCC5C(CCC6(C)C5CC7N8CC(C)CCC8C(C)C76)C4(C)CC3)C2OC9OC(C)C(O)C(O)C9O)CO)C(O)C(O)C1O",
        "Molecular Formula": "C<sub>45</sub>H<sub>73</sub>NO<sub>15</sub>",
        "Molecular Mass": "868.06",
        "Melting Point": "285 °C (decomp)"
    }
}