{
    "cas_no": "629-96-9",
    "key_name": "1-Eicosanol",
    "cn_name": "1-二十醇;二十烷醇;",
    "alternate_name": "1-Eicosanol;Eicosanol;Arachic alcohol;Arachidic alcohol;Eicosyl alcohol;Arachidyl alcohol;<em>n</em>-1-Eicosanol;<em>n</em>-Eicosanol;NSC 120887;Hainol 20SS;Nacol C 20",
    "duplicated_cas_no": "",
    "SMILES": "C(CCCCCCCCCC)CCCCCCCCCO",
    "meta_data": {
        "InChI": "InChI=1S/C20H42O/c1-2-3-4-5-6-7-8-9-10-11-12-13-14-15-16-17-18-19-20-21/h21H,2-20H2,1H3",
        "InChIKey": null,
        "Canonical SMILES": "OCCCCCCCCCCCCCCCCCCCC",
        "Molecular Formula": "C<sub>20</sub>H<sub>42</sub>O",
        "Molecular Mass": "298.55",
        "Boiling Point": "369 °C @ Press: 760 Torr",
        "Melting Point": "72.5-73.0 °C",
        "Density": "0.8405 g/cm³ @ Temp: 20 °C"
    }
}