{
    "cas_no": "81810-66-4",
    "key_name": "Quinocetone",
    "cn_name": null,
    "alternate_name": "2-Propen-1-one, 1-(3-methyl-1,4-dioxido-2-quinoxalinyl)-3-phenyl-;2-Propen-1-one, 1-(3-methyl-2-quinoxalinyl)-3-phenyl-, <em>N</em>,<em>N</em>′-dioxide;1-(3-Methyl-1,4-dioxido-2-quinoxalinyl)-3-phenyl-2-propen-1-one;NSC 621477;Quinocetone",
    "duplicated_cas_no": "871487-59-1;850339-82-1",
    "SMILES": "O=N=1C2=C(N(=O)=C(C)C1C(C=CC3=CC=CC=C3)=O)C=CC=C2",
    "meta_data": {
        "InChI": "InChI=1S/C18H14N2O3/c1-13-18(17(21)12-11-14-7-3-2-4-8-14)20(23)16-10-6-5-9-15(16)19(13)22/h2-12H,1H3",
        "InChIKey": null,
        "Canonical SMILES": "O=C(C=CC=1C=CC=CC1)C2=C(N(=O)=C3C=CC=CC3=N2=O)C",
        "Molecular Formula": "C<sub>18</sub>H<sub>14</sub>N<sub>2</sub>O<sub>3</sub>",
        "Molecular Mass": "306.32",
        "Melting Point": "187-188 °C"
    }
}