{
    "cas_no": "22326-31-4",
    "key_name": "Sulfoisophthalic acid",
    "cn_name": "5-磺酸基间苯二甲酸;",
    "alternate_name": "1,3-Benzenedicarboxylic acid, 5-sulfo-;Isophthalic acid, 5-sulfo-;5-Sulfo-1,3-benzenedicarboxylic acid;5-Sulfoisophthalic acid;3,5-Dicarboxybenzenesulfonic acid;Sulfoisophthalic acid",
    "duplicated_cas_no": "",
    "SMILES": "S(=O)(=O)(O)C1=CC(C(O)=O)=CC(C(O)=O)=C1",
    "meta_data": {
        "InChI": "InChI=1S/C8H6O7S/c9-7(10)4-1-5(8(11)12)3-6(2-4)16(13,14)15/h1-3H,(H,9,10)(H,11,12)(H,13,14,15)",
        "InChIKey": null,
        "Canonical SMILES": "O=C(O)C=1C=C(C=C(C1)S(=O)(=O)O)C(=O)O",
        "Molecular Formula": "C<sub>8</sub>H<sub>6</sub>O<sub>7</sub>S",
        "Molecular Mass": "246.19",
        "Melting Point": "258 °C"
    }
}