{
    "cas_no": "5894-60-0",
    "key_name": "Trichlorohexadecylsilane",
    "cn_name": "十六烷基三氯硅烷;十六烷基三氯硅烷;",
    "alternate_name": "Silane, trichlorohexadecyl-;Trichlorohexadecylsilane;Hexadecyltrichlorosilane;Cetyltrichlorosilane;NSC 22328;Dynasylan 9016;HC 16;<em>n</em>-Hexadecyltrichlorosilane",
    "duplicated_cas_no": "",
    "SMILES": "C(CCCCCCCCCCCCC)CC[Si](Cl)(Cl)Cl",
    "meta_data": {
        "InChI": "InChI=1S/C16H33Cl3Si/c1-2-3-4-5-6-7-8-9-10-11-12-13-14-15-16-20(17,18)19/h2-16H2,1H3",
        "InChIKey": null,
        "Canonical SMILES": "Cl[Si](Cl)(Cl)CCCCCCCCCCCCCCCC",
        "Molecular Formula": "C<sub>16</sub>H<sub>33</sub>Cl<sub>3</sub>Si",
        "Molecular Mass": "359.88",
        "Boiling Point": "269 °C",
        "Density": "0.996 g/cm³ @ Temp: 25 °C"
    }
}