{
    "cas_no": "2492-87-7",
    "key_name": "<em>p</em>-Nitrophenyl β-<span class=\"text-smallcaps\">D</span>-glucopyranoside",
    "cn_name": "4-硝基苯-Β-D-吡喃葡萄糖苷;",
    "alternate_name": "β-<span class=\"text-smallcaps\">D</span>-Glucopyranoside, 4-nitrophenyl;Glucopyranoside, <em>p</em>-nitrophenyl, β-<span class=\"text-smallcaps\">D</span>-;4-Nitrophenyl β-<span class=\"text-smallcaps\">D</span>-glucopyranoside;<em>p</em>-Nitrophenyl β-glucoside;4-Nitrophenyl β-<span class=\"text-smallcaps\">D</span>-glucoside;<em>p</em>-Nitrophenol β-<span class=\"text-smallcaps\">D</span>-glucoside;<em>p</em>-Nitrophenyl glucopyranoside;<em>p</em>-Nitrophenyl β-<span class=\"text-smallcaps\">D</span>-glucopyranoside;PNPG;<em>p</em>-Nitrophenyl β-<span class=\"text-smallcaps\">D</span>-glucoside",
    "duplicated_cas_no": "29857-05-4",
    "SMILES": "O([C@H]1[C@H](O)[C@@H](O)[C@H](O)[C@@H](CO)O1)C2=CC=C(N(=O)=O)C=C2",
    "meta_data": {
        "InChI": "InChI=1S/C12H15NO8/c14-5-8-9(15)10(16)11(17)12(21-8)20-7-3-1-6(2-4-7)13(18)19/h1-4,8-12,14-17H,5H2/t8-,9-,10+,11-,12-/m1/s1",
        "InChIKey": null,
        "Canonical SMILES": "O=N(=O)C1=CC=C(OC2OC(CO)C(O)C(O)C2O)C=C1",
        "Molecular Formula": "C<sub>12</sub>H<sub>15</sub>NO<sub>8</sub>",
        "Molecular Mass": "301.25",
        "Melting Point": "165-168 °C"
    }
}