{
    "cas_no": "4478-92-6",
    "key_name": "(1-Isothiocyanatoethyl)benzene",
    "cn_name": "(±)-1-苯乙基硫代异氰酸酯;",
    "alternate_name": "Benzene, (1-isothiocyanatoethyl)-;Isothiocyanic acid, α-methylbenzyl ester;(1-Isothiocyanatoethyl)benzene;1-Phenylethyl isothiocyanate;α-Methylbenzylisothiocyanate;NSC 221236",
    "duplicated_cas_no": "32393-32-1",
    "SMILES": "C(N=C=S)(C)C1=CC=CC=C1",
    "meta_data": {
        "InChI": "InChI=1S/C9H9NS/c1-8(10-7-11)9-5-3-2-4-6-9/h2-6,8H,1H3",
        "InChIKey": null,
        "Canonical SMILES": "S=C=NC(C=1C=CC=CC1)C",
        "Molecular Formula": "C<sub>9</sub>H<sub>9</sub>NS",
        "Molecular Mass": "163.24",
        "Boiling Point": "122-123 °C @ Press: 12 Torr"
    }
}