{
    "cas_no": "874-66-8",
    "key_name": "2-Methyl-3-(2-furyl)acrolein",
    "cn_name": "3-(2-呋喃基)-2-甲基-2-丙烯醛;",
    "alternate_name": "2-Propenal, 3-(2-furanyl)-2-methyl-;2-Furanacrolein, α-methyl-;3-(2-Furanyl)-2-methyl-2-propenal;2-Methyl-3-(α-furyl)propenal-2;α-Methyl-β-(2-furyl)acrolein;2-Methyl-3-(2-furyl)-2-propenal;3-(2-(Furanyl)-2-methyl-2-propenal;3-(2-Furyl)-2-methylprop-2-enal;2-Methyl-3-(2-furyl)acrolein;3-(Furan-2-yl)-2-methylacrylaldehyde;2-Methyl-3-(2-furyl)-propenal",
    "duplicated_cas_no": "",
    "SMILES": "C(=C(C=O)C)C1=CC=CO1",
    "meta_data": {
        "InChI": "InChI=1S/C8H8O2/c1-7(6-9)5-8-3-2-4-10-8/h2-6H,1H3",
        "InChIKey": null,
        "Canonical SMILES": "O=CC(=CC=1OC=CC1)C",
        "Molecular Formula": "C<sub>8</sub>H<sub>8</sub>O<sub>2</sub>",
        "Molecular Mass": "136.15",
        "Boiling Point": "141-142 °C @ Press: 55 Torr",
        "Density": "1.0952 g/cm³ @ Temp: 20 °C"
    }
}