{
    "cas_no": "484-12-8",
    "key_name": "Osthol",
    "cn_name": "蛇床子素;7-甲氧基-8-异戊烯基香豆素;",
    "alternate_name": "2<em>H</em>-1-Benzopyran-2-one, 7-methoxy-8-(3-methyl-2-buten-1-yl)-;Osthole;Coumarin, 7-methoxy-8-(3-methyl-2-butenyl)-;2<em>H</em>-1-Benzopyran-2-one, 7-methoxy-8-(3-methyl-2-butenyl)-;7-Methoxy-8-(3-methyl-2-buten-1-yl)-2<em>H</em>-1-benzopyran-2-one;7-Methoxy-8-isopentenylcoumarin;Osthol;Ostole;Ostol;7-Methoxy-8-(3-methyl-2-butenyl)coumarin;8-(3-Methyl-2-butenyl)herniarin;NSC 31868",
    "duplicated_cas_no": "1440642-68-1",
    "SMILES": "C(C=C(C)C)C1=C2C(=CC=C1OC)C=CC(=O)O2",
    "meta_data": {
        "InChI": "InChI=1S/C15H16O3/c1-10(2)4-7-12-13(17-3)8-5-11-6-9-14(16)18-15(11)12/h4-6,8-9H,7H2,1-3H3",
        "InChIKey": null,
        "Canonical SMILES": "O=C1OC2=C(C=C1)C=CC(OC)=C2CC=C(C)C",
        "Molecular Formula": "C<sub>15</sub>H<sub>16</sub>O<sub>3</sub>",
        "Molecular Mass": "244.29",
        "Melting Point": "83.5 °C"
    }
}