{
    "cas_no": "1156-78-1",
    "key_name": "2′-Hydroxygenistein",
    "cn_name": null,
    "alternate_name": "4<em>H</em>-1-Benzopyran-4-one, 3-(2,4-dihydroxyphenyl)-5,7-dihydroxy-;Isoflavone, 2′,4′,5,7-tetrahydroxy-;3-(2,4-Dihydroxyphenyl)-5,7-dihydroxy-4<em>H</em>-1-benzopyran-4-one;2′,4′,5,7-Tetrahydroxyisoflavone;2′-Hydroxygenistein;2′-Hydroxyisoprunetin",
    "duplicated_cas_no": "",
    "SMILES": "O=C1C=2C(OC=C1C3=C(O)C=C(O)C=C3)=CC(O)=CC2O",
    "meta_data": {
        "InChI": "InChI=1S/C15H10O6/c16-7-1-2-9(11(18)3-7)10-6-21-13-5-8(17)4-12(19)14(13)15(10)20/h1-6,16-19H",
        "InChIKey": null,
        "Canonical SMILES": "O=C1C(=COC=2C=C(O)C=C(O)C12)C=3C=CC(O)=CC3O",
        "Molecular Formula": "C<sub>15</sub>H<sub>10</sub>O<sub>6</sub>",
        "Molecular Mass": "286.24",
        "Melting Point": "270-273 °C"
    }
}