{
    "cas_no": "14215-86-2",
    "key_name": "(-)-Sweroside",
    "cn_name": "獐牙菜苷;当归甙;",
    "alternate_name": "1<em>H</em>,3<em>H</em>-Pyrano[3,4-<em>c</em>]pyran-1-one, 5-ethenyl-6-(β-<span class=\"text-smallcaps\">D</span>-glucopyranosyloxy)-4,4a,5,6-tetrahydro-, (4a<em>S</em>,5<em>R</em>,6<em>S</em>)-;Sweroside;1<em>H</em>,3<em>H</em>-Pyrano[3,4-<em>c</em>]pyran-1-one, 5-ethenyl-6-(β-<span class=\"text-smallcaps\">D</span>-glucopyranosyloxy)-4,4a,5,6-tetrahydro-, [4a<em>S</em>-(4aα,5β,6α)]-;(4a<em>S</em>,5<em>R</em>,6<em>S</em>)-5-Ethenyl-6-(β-<span class=\"text-smallcaps\">D</span>-glucopyranosyloxy)-4,4a,5,6-tetrahydro-1<em>H</em>,3<em>H</em>-pyrano[3,4-<em>c</em>]pyran-1-one;(-)-Sweroside",
    "duplicated_cas_no": "1315259-62-1",
    "SMILES": "C(=C)[C@@H]1[C@]2(C(=CO[C@H]1O[C@@H]3O[C@H](CO)[C@@H](O)[C@H](O)[C@H]3O)C(=O)OCC2)[H]",
    "meta_data": {
        "InChI": "InChI=1S/C16H22O9/c1-2-7-8-3-4-22-14(21)9(8)6-23-15(7)25-16-13(20)12(19)11(18)10(5-17)24-16/h2,6-8,10-13,15-20H,1,3-5H2/t7-,8+,10-,11-,12+,13-,15+,16+/m1/s1",
        "InChIKey": null,
        "Canonical SMILES": "O=C1OCCC2C1=COC(OC3OC(CO)C(O)C(O)C3O)C2C=C",
        "Molecular Formula": "C<sub>16</sub>H<sub>22</sub>O<sub>9</sub>",
        "Molecular Mass": "358.34",
        "Melting Point": "98-100 °C"
    }
}