{
    "cas_no": "586-35-6",
    "key_name": "Bromoterephthalic acid",
    "cn_name": "2-溴四苯醌;2-溴对苯二甲酸;",
    "alternate_name": "1,4-Benzenedicarboxylic acid, 2-bromo-;Terephthalic acid, bromo-;2-Bromo-1,4-benzenedicarboxylic acid;2-Bromoterephthalic acid;Bromoterephthalic acid;NSC 3985",
    "duplicated_cas_no": "",
    "SMILES": "C(O)(=O)C1=CC(Br)=C(C(O)=O)C=C1",
    "meta_data": {
        "InChI": "InChI=1S/C8H5BrO4/c9-6-3-4(7(10)11)1-2-5(6)8(12)13/h1-3H,(H,10,11)(H,12,13)",
        "InChIKey": null,
        "Canonical SMILES": "O=C(O)C1=CC=C(C(=O)O)C(Br)=C1",
        "Molecular Formula": "C<sub>8</sub>H<sub>5</sub>BrO<sub>4</sub>",
        "Molecular Mass": "245.03",
        "Melting Point": "299 °C"
    }
}