{
    "cas_no": "1736-85-2",
    "key_name": "2-Fluoro-1,3-dimethyl-5-nitrobenzene",
    "cn_name": null,
    "alternate_name": "Benzene, 2-fluoro-1,3-dimethyl-5-nitro-;<em>m</em>-Xylene, 2-fluoro-5-nitro-;2-Fluoro-1,3-dimethyl-5-nitrobenzene;3,5-Dimethyl-4-fluoronitrobenzene;1-Fluoro-2,6-dimethyl-4-nitrobenzene;1,3-Dimethyl-2-fluoro-5-nitrobenzene",
    "duplicated_cas_no": "",
    "SMILES": "N(=O)(=O)C1=CC(C)=C(F)C(C)=C1",
    "meta_data": {
        "InChI": "InChI=1S/C8H8FNO2/c1-5-3-7(10(11)12)4-6(2)8(5)9/h3-4H,1-2H3",
        "InChIKey": null,
        "Canonical SMILES": "O=N(=O)C=1C=C(C(F)=C(C1)C)C",
        "Molecular Formula": "C<sub>8</sub>H<sub>8</sub>FNO<sub>2</sub>",
        "Molecular Mass": "169.15",
        "Boiling Point": "111-112 °C @ Press: 14 Torr",
        "Melting Point": "42-43 °C"
    }
}