{
    "cas_no": "622-76-4",
    "key_name": "1-Phenyl-1-butyne",
    "cn_name": "1-苯基-1-丁炔;",
    "alternate_name": "Benzene, 1-butyn-1-yl-;1-Butyne, 1-phenyl-;Benzene, 1-butynyl-;1-Butyn-1-ylbenzene;Phenylethylacetylene;1-Phenyl-1-butyne;Ethylphenylacetylene;1-Ethyl-2-phenylacetylene;1-Butynylbenzene",
    "duplicated_cas_no": "",
    "SMILES": "C(#CCC)C1=CC=CC=C1",
    "meta_data": {
        "InChI": "InChI=1S/C10H10/c1-2-3-7-10-8-5-4-6-9-10/h4-6,8-9H,2H2,1H3",
        "InChIKey": null,
        "Canonical SMILES": "C(#CCC)C=1C=CC=CC1",
        "Molecular Formula": "C<sub>10</sub>H<sub>10</sub>",
        "Molecular Mass": "130.19",
        "Boiling Point": "87-90 °C",
        "Density": "0.915 g/cm³ @ Temp: 18 °C"
    }
}