{
    "cas_no": "1185-81-5",
    "key_name": "Dibutylbis(dodecylthio)stannane",
    "cn_name": "二(十二烷硫基)二丁基锡;二(十二烷硫基)二丁基锡;",
    "alternate_name": "Stannane, dibutylbis(dodecylthio)-;Tin, dibutylbis(dodecylthio)-;Dibutylbis(dodecylthio)stannane;Dibutyltin bis(lauryl mercaptide);Dibutylbis(dodecylthio)tin;Mellite 39;Dibutyltin bis(dodecyl mercaptide);Bis(dodecylthio)dibutyltin;Advastab TM 918;Mellite 139;Thermolite 20;Dibutyltin <em>S</em>,<em>S</em>′-bis(dodecyl mercaptide);Dibutyltin dilauryl mercaptide;Mark A;Dabco 120;UL 32;Fomrez UL 32;NSC 65503;T 20;Dabco T 120;T 120;Di(dodecylmercapto)dibutyl tin",
    "duplicated_cas_no": "39403-64-0;52434-36-3;74913-29-4;877610-76-9",
    "SMILES": "[Sn](SCCCCCCCCCCCC)(SCCCCCCCCCCCC)(CCCC)CCCC",
    "meta_data": {
        "InChI": "InChI=1S/2C12H26S.2C4H9.Sn/c2*1-2-3-4-5-6-7-8-9-10-11-12-13;2*1-3-4-2;/h2*13H,2-12H2,1H3;2*1,3-4H2,2H3;/q;;;;+2/p-2",
        "InChIKey": null,
        "Canonical SMILES": "S(CCCCCCCCCCCC)[Sn](SCCCCCCCCCCCC)(CCCC)CCCC",
        "Molecular Formula": "C<sub>32</sub>H<sub>68</sub>S<sub>2</sub>Sn",
        "Molecular Mass": "635.72",
        "Boiling Point": "145 °C",
        "Melting Point": "-10 °C",
        "Density": "1.045 g/cm³"
    }
}