{
    "cas_no": "16620-52-3",
    "key_name": "5-Methoxy-<em>N</em>,<em>N</em>-dimethyl-1<em>H</em>-indole-3-methanamine",
    "cn_name": "5-甲氧基芦竹碱;",
    "alternate_name": "1<em>H</em>-Indole-3-methanamine, 5-methoxy-<em>N</em>,<em>N</em>-dimethyl-;Indole, 3-[(dimethylamino)methyl]-5-methoxy-;5-Methoxy-<em>N</em>,<em>N</em>-dimethyl-1<em>H</em>-indole-3-methanamine;5-Methoxygramine;NSC 88885;3-Dimethylaminomethyl-5-methoxyindole;5-Methoxy-3-(dimethylaminomethyl)indole;[(5-Methoxy-1<em>H</em>-indol-3-yl)methyl]dimethylamine;1-(5-Methoxy-1<em>H</em>-indol-3-yl)-<em>N</em>,<em>N</em>-dimethylmethanamine",
    "duplicated_cas_no": "",
    "SMILES": "C(N(C)C)C=1C=2C(NC1)=CC=C(OC)C2",
    "meta_data": {
        "InChI": "InChI=1S/C12H16N2O/c1-14(2)8-9-7-13-12-5-4-10(15-3)6-11(9)12/h4-7,13H,8H2,1-3H3",
        "InChIKey": null,
        "Canonical SMILES": "O(C=1C=CC=2NC=C(C2C1)CN(C)C)C",
        "Molecular Formula": "C<sub>12</sub>H<sub>16</sub>N<sub>2</sub>O",
        "Molecular Mass": "204.27",
        "Melting Point": "127.5-128.0 °C"
    }
}