{
    "cas_no": "15644-86-7",
    "key_name": "6-Chloro-2-methyl-4-quinolinol",
    "cn_name": null,
    "alternate_name": "4-Quinolinol, 6-chloro-2-methyl-;6-Chloro-2-methyl-4-quinolinol;6-Chloro-4-hydroxy-2-methylquinoline",
    "duplicated_cas_no": "",
    "SMILES": "OC=1C2=C(N=C(C)C1)C=CC(Cl)=C2",
    "meta_data": {
        "InChI": "InChI=1S/C10H8ClNO/c1-6-4-10(13)8-5-7(11)2-3-9(8)12-6/h2-5H,1H3,(H,12,13)",
        "InChIKey": null,
        "Canonical SMILES": "ClC=1C=CC=2N=C(C=C(O)C2C1)C",
        "Molecular Formula": "C<sub>10</sub>H<sub>8</sub>ClNO",
        "Molecular Mass": "193.63",
        "Melting Point": "320-322 °C"
    }
}