{
    "cas_no": "865-34-9",
    "key_name": "Lithium methoxide",
    "cn_name": "甲氧基锂;甲醇锂;甲氧基锂;",
    "alternate_name": "Methanol, lithium salt (1:1);Methanol, lithium salt;Lithium methoxide;Lithium methylate;Methoxylithium;Lithium methanolate",
    "duplicated_cas_no": "719776-96-2;192823-90-8;224181-26-4;226904-79-6",
    "SMILES": "CO.[Li]",
    "meta_data": {
        "InChI": "InChI=1S/CH4O.Li/c1-2;/h2H,1H3;",
        "InChIKey": null,
        "Canonical SMILES": "[Li].OC",
        "Molecular Formula": "CH<sub>4</sub>O.Li",
        "Molecular Mass": "",
        "Melting Point": "500 °C (decomp)"
    }
}