{
    "cas_no": "39512-50-0",
    "key_name": "1-(2-Chlorophenyl)piperazine",
    "cn_name": "1-(2-氯苯基)哌嗪;",
    "alternate_name": "Piperazine, 1-(2-chlorophenyl)-;Piperazine, 1-(<em>o</em>-chlorophenyl)-;1-(2-Chlorophenyl)piperazine;1-(<em>o</em>-Chlorophenyl)piperazine;<em>N</em>-(2-Chlorophenyl)piperazine;<em>N</em>-(<em>o</em>-Chlorophenyl)piperazine",
    "duplicated_cas_no": "1268599-76-3",
    "SMILES": "ClC1=C(N2CCNCC2)C=CC=C1",
    "meta_data": {
        "InChI": "InChI=1S/C10H13ClN2/c11-9-3-1-2-4-10(9)13-7-5-12-6-8-13/h1-4,12H,5-8H2",
        "InChIKey": null,
        "Canonical SMILES": "ClC=1C=CC=CC1N2CCNCC2",
        "Molecular Formula": "C<sub>10</sub>H<sub>13</sub>ClN<sub>2</sub>",
        "Molecular Mass": "196.68",
        "Boiling Point": "123-124 °C @ Press: 2 Torr",
        "Melting Point": "152-154 °C"
    }
}