{
    "cas_no": "100884-80-8",
    "key_name": "1,3,5,7-Adamantanetetracarboxylic acid",
    "cn_name": null,
    "alternate_name": "Tricyclo[3.3.1.1<sup>3,7</sup>]decane-1,3,5,7-tetracarboxylic acid;1,3,5,7-Adamantanetetracarboxylic acid",
    "duplicated_cas_no": "",
    "SMILES": "C(O)(=O)C12CC3(C(O)=O)CC(C(O)=O)(C1)CC(C(O)=O)(C2)C3",
    "meta_data": {
        "InChI": "InChI=1S/C14H16O8/c15-7(16)11-1-12(8(17)18)4-13(2-11,9(19)20)6-14(3-11,5-12)10(21)22/h1-6H2,(H,15,16)(H,17,18)(H,19,20)(H,21,22)",
        "InChIKey": null,
        "Canonical SMILES": "O=C(O)C12CC3(C(=O)O)CC(C(=O)O)(C1)CC(C(=O)O)(C2)C3",
        "Molecular Formula": "C<sub>14</sub>H<sub>16</sub>O<sub>8</sub>",
        "Molecular Mass": "312.27",
        "Melting Point": "395 °C (decomp)"
    }
}