{
    "cas_no": "688-71-1",
    "key_name": "Tripropyl borate",
    "cn_name": null,
    "alternate_name": "Boric acid (H<sub>3</sub>BO<sub>3</sub>), tripropyl ester;Propyl borate;Tripropyl borate;Tripropoxyborane;Tris(propoxy)borane;Boron propoxide;Tripropyl orthoborate;Propyl orthoborate;Tri-<em>n</em>-propoxyboron;NSC 778;Boron tri-<em>n</em>-propoxide;Tri-<em>n</em>-propyl borate;R 002774",
    "duplicated_cas_no": "",
    "SMILES": "B(OCCC)(OCCC)OCCC",
    "meta_data": {
        "InChI": "InChI=1S/C9H21BO3/c1-4-7-11-10(12-8-5-2)13-9-6-3/h4-9H2,1-3H3",
        "InChIKey": null,
        "Canonical SMILES": "O(B(OCCC)OCCC)CCC",
        "Molecular Formula": "C<sub>9</sub>H<sub>21</sub>BO<sub>3</sub>",
        "Molecular Mass": "188.07",
        "Boiling Point": "179.5 °C",
        "Density": "0.857 g/cm³"
    }
}