{
    "cas_no": "13466-78-9",
    "key_name": "3-Carene",
    "cn_name": "3-蒈烯;3,7,7-三甲基二环[4.1.0]庚-3-烯;",
    "alternate_name": "Bicyclo[4.1.0]hept-3-ene, 3,7,7-trimethyl-;3-Carene;3,7,7-Trimethylbicyclo[4.1.0]hept-3-ene;Δ<sup>3</sup>-Carene;δ-3-Carene;(±)-3-Carene;(±)-Δ<sup>3</sup>-Carene",
    "duplicated_cas_no": "116783-27-8",
    "SMILES": "CC1(C)C2C1CC(C)=CC2",
    "meta_data": {
        "InChI": "InChI=1S/C10H16/c1-7-4-5-8-9(6-7)10(8,2)3/h4,8-9H,5-6H2,1-3H3",
        "InChIKey": null,
        "Canonical SMILES": "C1=C(C)CC2C(C1)C2(C)C",
        "Molecular Formula": "C<sub>10</sub>H<sub>16</sub>",
        "Molecular Mass": "136.23",
        "Boiling Point": "170 °C",
        "Melting Point": "&lt;25 °C",
        "Density": "0.8586 g/cm³ @ Temp: 30 °C"
    }
}