{
    "cas_no": "120-95-6",
    "key_name": "2,4-Di-<em>tert</em>-amylphenol",
    "cn_name": "2,4-二叔戊基苯酚;",
    "alternate_name": "Phenol, 2,4-bis(1,1-dimethylpropyl)-;Phenol, 2,4-di-<em>tert</em>-pentyl-;2,4-Bis(1,1-dimethylpropyl)phenol;2,4-Di-<em>tert</em>-pentylphenol;2,4-Di-<em>tert</em>-amylphenol;2,4-Bis(<em>tert</em>-pentyl)phenol;2,4-Di(1,1-dimethylpropyl)phenol;NSC 158351;2,4-Bis(2-methylbutan-2-yl)phenol",
    "duplicated_cas_no": "",
    "SMILES": "C(CC)(C)(C)C1=CC(C(CC)(C)C)=CC=C1O",
    "meta_data": {
        "InChI": "InChI=1S/C16H26O/c1-7-15(3,4)12-9-10-14(17)13(11-12)16(5,6)8-2/h9-11,17H,7-8H2,1-6H3",
        "InChIKey": null,
        "Canonical SMILES": "OC1=CC=C(C=C1C(C)(C)CC)C(C)(C)CC",
        "Molecular Formula": "C<sub>16</sub>H<sub>26</sub>O",
        "Molecular Mass": "234.38",
        "Boiling Point": "256 °C @ Press: 760 Torr",
        "Melting Point": "27 °C"
    }
}