{
    "cas_no": "29901-85-7",
    "key_name": "3-Heptenoic acid",
    "cn_name": "3-庚烯酸;",
    "alternate_name": "3-Heptenoic acid",
    "duplicated_cas_no": "",
    "SMILES": "C(CC(O)=O)=CCCC",
    "meta_data": {
        "InChI": "InChI=1S/C7H12O2/c1-2-3-4-5-6-7(8)9/h4-5H,2-3,6H2,1H3,(H,8,9)",
        "InChIKey": null,
        "Canonical SMILES": "O=C(O)CC=CCCC",
        "Molecular Formula": "C<sub>7</sub>H<sub>12</sub>O<sub>2</sub>",
        "Molecular Mass": "128.17",
        "Boiling Point": "104-109 °C @ Press: 5 Torr",
        "Density": "0.9471 g/cm³ @ Temp: 25 °C"
    }
}