{
    "cas_no": "600-05-5",
    "key_name": "2,3-Dibromopropionic acid",
    "cn_name": "2,3-二溴丙酸;",
    "alternate_name": "Propanoic acid, 2,3-dibromo-;Propionic acid, 2,3-dibromo-;Propionic acid, α,β-dibromo-;2,3-Dibromopropanoic acid;α,β-Dibromopropionic acid;2,3-Dibromopropionic acid;(±)-2,3-Dibromopropionic acid;NSC 175",
    "duplicated_cas_no": "127700-69-0",
    "SMILES": "C(C(O)=O)(CBr)Br",
    "meta_data": {
        "InChI": "InChI=1S/C3H4Br2O2/c4-1-2(5)3(6)7/h2H,1H2,(H,6,7)",
        "InChIKey": null,
        "Canonical SMILES": "O=C(O)C(Br)CBr",
        "Molecular Formula": "C<sub>3</sub>H<sub>4</sub>Br<sub>2</sub>O<sub>2</sub>",
        "Molecular Mass": "231.87",
        "Boiling Point": "129 °C @ Press: 9 Torr",
        "Melting Point": "66.5 °C"
    }
}