{
    "cas_no": "131-69-1",
    "key_name": "Phthalylsulfacetamide",
    "cn_name": "酞磺醋胺;",
    "alternate_name": "Benzoic acid, 2-[[[4-[(acetylamino)sulfonyl]phenyl]amino]carbonyl]-;Phthalanilic acid, 4′-(acetylsulfamoyl)-;2-[[[4-[(Acetylamino)sulfonyl]phenyl]amino]carbonyl]benzoic acid;4′-(Acetylsulfamoyl)phthalanilic acid;4′-(Acetylsulfamyl)phthalanilic acid;Enterocid;Enterosulfamid;Ftalicetimida;Enterosulfon;Phthaloylsulfacetamide;Phthalylsulfacetamide;Rabalan;Sterathal;Talecid;Talicetimida;Talsutin;Tamid;Thalisul;Thalocid;TSC-80 Medicated;TSC-80;Thalajen;Talasulfa;Kalacet;Sulphalyl;NSC 163977T;Talsigel;NSC 163977;NSC 4368;2-((4-(<em>N</em>-Acetylsulfamoyl)phenyl)carbamoyl)benzoic acid",
    "duplicated_cas_no": "8048-28-0;1331208-62-8",
    "SMILES": "C(NC1=CC=C(S(NC(C)=O)(=O)=O)C=C1)(=O)C2=C(C(O)=O)C=CC=C2",
    "meta_data": {
        "InChI": "InChI=1S/C16H14N2O6S/c1-10(19)18-25(23,24)12-8-6-11(7-9-12)17-15(20)13-4-2-3-5-14(13)16(21)22/h2-9H,1H3,(H,17,20)(H,18,19)(H,21,22)",
        "InChIKey": null,
        "Canonical SMILES": "O=C(O)C=1C=CC=CC1C(=O)NC2=CC=C(C=C2)S(=O)(=O)NC(=O)C",
        "Molecular Formula": "C<sub>16</sub>H<sub>14</sub>N<sub>2</sub>O<sub>6</sub>S",
        "Molecular Mass": "362.36",
        "Melting Point": "196 °C",
        "Density": "1.378 g/cm³"
    }
}