{
    "cas_no": "911825-94-0",
    "key_name": "2-Fluoro-6-iodobenzenemethanol",
    "cn_name": null,
    "alternate_name": "Benzenemethanol, 2-fluoro-6-iodo-;2-Fluoro-6-iodobenzenemethanol;(2-Fluoro-6-iodophenyl)methanol;2-Fluoro-6-iodobenzyl alcohol",
    "duplicated_cas_no": "",
    "SMILES": "C(O)C1=C(F)C=CC=C1I",
    "meta_data": {
        "InChI": "InChI=1S/C7H6FIO/c8-6-2-1-3-7(9)5(6)4-10/h1-3,10H,4H2",
        "InChIKey": null,
        "Canonical SMILES": "FC1=CC=CC(I)=C1CO",
        "Molecular Formula": "C<sub>7</sub>H<sub>6</sub>FIO",
        "Molecular Mass": "252.02",
        "Melting Point": "54-55 °C"
    }
}