{
    "cas_no": "530-59-6",
    "key_name": "Sinapic acid",
    "cn_name": "芥子酸;3,5-二甲氧基-4-羟基肉桂酸;",
    "alternate_name": "2-Propenoic acid, 3-(4-hydroxy-3,5-dimethoxyphenyl)-;Cinnamic acid, 4-hydroxy-3,5-dimethoxy-;3-(4-Hydroxy-3,5-dimethoxyphenyl)-2-propenoic acid;Sinapic acid;4-Hydroxy-3,5-dimethoxycinnamic acid;3,5-Dimethoxy-4-hydroxycinnamic acid;Sinapinic acid;Synapitic acid;NSC 59261;3-(4-Hydroxy-3,5-dimethoxyphenyl) acrylic acid",
    "duplicated_cas_no": "",
    "SMILES": "O(C)C1=C(O)C(OC)=CC(C=CC(O)=O)=C1",
    "meta_data": {
        "InChI": "InChI=1S/C11H12O5/c1-15-8-5-7(3-4-10(12)13)6-9(16-2)11(8)14/h3-6,14H,1-2H3,(H,12,13)",
        "InChIKey": null,
        "Canonical SMILES": "O=C(O)C=CC=1C=C(OC)C(O)=C(OC)C1",
        "Molecular Formula": "C<sub>11</sub>H<sub>12</sub>O<sub>5</sub>",
        "Molecular Mass": "224.21",
        "Melting Point": "193.6-195.6 °C (decomp)"
    }
}