{
    "cas_no": "352-11-4",
    "key_name": "4-Fluorobenzyl chloride",
    "cn_name": "对氟氯苄;4-氟氯苄;",
    "alternate_name": "Benzene, 1-(chloromethyl)-4-fluoro-;Toluene, α-chloro-<em>p</em>-fluoro-;1-(Chloromethyl)-4-fluorobenzene;<em>p</em>-Fluorobenzyl chloride;4-Fluorobenzyl chloride;α-Chloro-4-fluorotoluene;α-Chloro-<em>p</em>-fluorotoluene;4-Fluorophenylmethyl chloride;NSC 25084;4-Fluoro-1-(chloromethyl)benzene",
    "duplicated_cas_no": "",
    "SMILES": "C(Cl)C1=CC=C(F)C=C1",
    "meta_data": {
        "InChI": "InChI=1S/C7H6ClF/c8-5-6-1-3-7(9)4-2-6/h1-4H,5H2",
        "InChIKey": null,
        "Canonical SMILES": "FC1=CC=C(C=C1)CCl",
        "Molecular Formula": "C<sub>7</sub>H<sub>6</sub>ClF",
        "Molecular Mass": "144.57",
        "Boiling Point": "82 °C",
        "Melting Point": "44.5-45.5 °C",
        "Density": "1.2095 g/cm³ @ Temp: 20 °C"
    }
}