{
    "cas_no": "5959-52-4",
    "key_name": "3-Amino-2-naphthoic acid",
    "cn_name": "3-氨基-2-萘甲酸;",
    "alternate_name": "2-Naphthalenecarboxylic acid, 3-amino-;2-Naphthoic acid, 3-amino-;3-Amino-2-naphthalenecarboxylic acid;3-Amino-2-naphthoic acid;2-Amino-3-naphthoic acid;2-Amino-3-carboxynaphthalene;β-Naphthylamine-3-carboxylic acid;2-Aminonaphthalene-3-carboxylic acid;NSC 37061",
    "duplicated_cas_no": "",
    "SMILES": "C(O)(=O)C1=CC2=C(C=C1N)C=CC=C2",
    "meta_data": {
        "InChI": "InChI=1S/C11H9NO2/c12-10-6-8-4-2-1-3-7(8)5-9(10)11(13)14/h1-6H,12H2,(H,13,14)",
        "InChIKey": null,
        "Canonical SMILES": "O=C(O)C1=CC=2C=CC=CC2C=C1N",
        "Molecular Formula": "C<sub>11</sub>H<sub>9</sub>NO<sub>2</sub>",
        "Molecular Mass": "187.19",
        "Melting Point": "216.5 °C"
    }
}