{
    "cas_no": "873055-58-4",
    "key_name": "5-Amino-2,4-bis(1,1-dimethylethyl)phenol",
    "cn_name": null,
    "alternate_name": "Phenol, 5-amino-2,4-bis(1,1-dimethylethyl)-;5-Amino-2,4-bis(1,1-dimethylethyl)phenol;5-Amino-2,4-di-<em>tert</em>-butylphenol",
    "duplicated_cas_no": "",
    "SMILES": "C(C)(C)(C)C1=CC(C(C)(C)C)=C(O)C=C1N",
    "meta_data": {
        "InChI": "InChI=1S/C14H23NO/c1-13(2,3)9-7-10(14(4,5)6)12(16)8-11(9)15/h7-8,16H,15H2,1-6H3",
        "InChIKey": null,
        "Canonical SMILES": "OC=1C=C(N)C(=CC1C(C)(C)C)C(C)(C)C",
        "Molecular Formula": "C<sub>14</sub>H<sub>23</sub>NO",
        "Molecular Mass": "221.34",
        "Melting Point": "86-89 °C"
    }
}