{
    "cas_no": "96-19-5",
    "key_name": "1,2,3-Trichloro-1-propene",
    "cn_name": null,
    "alternate_name": "1-Propene, 1,2,3-trichloro-;Propene, 1,2,3-trichloro-;1,2,3-Trichloro-1-propene;1,2,3-Trichloropropene;2,3-Dichloroallyl chloride;NSC 164001",
    "duplicated_cas_no": "",
    "SMILES": "C(CCl)(=CCl)Cl",
    "meta_data": {
        "InChI": "InChI=1S/C3H3Cl3/c4-1-3(6)2-5/h1H,2H2",
        "InChIKey": null,
        "Canonical SMILES": "ClC=C(Cl)CCl",
        "Molecular Formula": "C<sub>3</sub>H<sub>3</sub>Cl<sub>3</sub>",
        "Molecular Mass": "145.41",
        "Boiling Point": "142 °C",
        "Density": "1.412 g/cm³ @ Temp: 20 °C"
    }
}