{
    "cas_no": "13679-85-1",
    "key_name": "Dihydro-2-methyl-3(2<em>H</em>)-thiophenone",
    "cn_name": "2-甲基四氢噻吩-3-酮;二氢-2-甲基-3(2H)-噻吩酮;",
    "alternate_name": "3(2<em>H</em>)-Thiophenone, dihydro-2-methyl-;Dihydro-2-methyl-3(2<em>H</em>)-thiophenone;2-Methyltetrahydrothiophen-3-one;2-Methyl-3-oxotetrahydrothiophene;2-Methylthiophan-3-one;Dihydro-2-methyl-3-thiophenone;2-Methyl-4,5-dihydro-3(2<em>H</em>)-thiophenone;2-Methylthiolan-3-one",
    "duplicated_cas_no": "74015-70-6",
    "SMILES": "O=C1C(C)SCC1",
    "meta_data": {
        "InChI": "InChI=1S/C5H8OS/c1-4-5(6)2-3-7-4/h4H,2-3H2,1H3",
        "InChIKey": null,
        "Canonical SMILES": "O=C1CCSC1C",
        "Molecular Formula": "C<sub>5</sub>H<sub>8</sub>OS",
        "Molecular Mass": "116.18",
        "Boiling Point": "82 °C @ Press: 28 Torr"
    }
}