{
    "cas_no": "15159-40-7",
    "key_name": "4-Morpholinecarbonyl chloride",
    "cn_name": "4-吗啉碳酰氯;4-吗啉甲酰氯;",
    "alternate_name": "4-Morpholinecarbonyl chloride;Morpholinocarbonyl chloride;Morpholine, 4-(chlorocarbonyl)-;<em>N</em>-Chlorocarbonylmorpholine;4-(Chloroformyl)morpholine;4-Morpholinocarbonyl chloride;4-(Chlorocarbonyl)morpholine;NSC 50226;4-Morpholinecarboxylic acid chloride;<em>N</em>-Morpholinecarbonyl chloride;4-Morpholinylcarbonyl chloride;Morpholine-4-carbonyl chloride",
    "duplicated_cas_no": "",
    "SMILES": "C(Cl)(=O)N1CCOCC1",
    "meta_data": {
        "InChI": "InChI=1S/C5H8ClNO2/c6-5(8)7-1-3-9-4-2-7/h1-4H2",
        "InChIKey": null,
        "Canonical SMILES": "O=C(Cl)N1CCOCC1",
        "Molecular Formula": "C<sub>5</sub>H<sub>8</sub>ClNO<sub>2</sub>",
        "Molecular Mass": "149.58",
        "Boiling Point": "102 °C @ Press: 8 Torr",
        "Density": "1.2816 g/cm³ @ Temp: 20 °C"
    }
}