{
    "cas_no": "10418-03-8",
    "key_name": "Stanozolol",
    "cn_name": "康力龙;",
    "alternate_name": "2′<em>H</em>-Androst-2-eno[3,2-<em>c</em>]pyrazol-17-ol, 17-methyl-, (5α,17β)-;2′<em>H</em>-5α-Androst-2-eno[3,2-<em>c</em>]pyrazol-17β-ol, 17-methyl-;Cyclopenta[7,8]phenanthro[2,3-<em>c</em>]pyrazol-1-ol, 1,2,3,3a,3b,4,5,5a,6,7,10,10a,10b,11,12,12a-hexadecahydro-1,10a,12a-trimethyl-;(5α,17β)-17-Methyl-2′<em>H</em>-androst-2-eno[3,2-<em>c</em>]pyrazol-17-ol;Androstanazole;Winstrol;Stanozolol;Win 14833;Androstanazol;17-Methyl-5α-androstano[3,2-<em>c</em>]pyrazol-17β-ol;17-Methyl-pyrazolo[4′,3′:2,3]-5α-androstan-17β-ol;Winstrol V;Stromba;17β-Hydroxy-17-methyl-5α-androstano[3,2-<em>c</em>]pyrazole;Stanazolol;17α-Methyl-17β-hydroxy-5α-androstano(3,2-c)pyrazole;Anabol;Estazol;Strombaject;Tevabolin;Winstroid;Winstrol Depot;Androstanazolestanazol;NSC 233046;Stanabolic;NSC 43193;Estrombol;ST (Estrombol)",
    "duplicated_cas_no": "17966-55-1;69353-49-7;875293-72-4",
    "SMILES": "C[C@@]12[C@@]3([C@]([C@]4([C@](C)(CC3)[C@@](C)(O)CC4)[H])(CC[C@]1(CC5=C(C2)C=NN5)[H])[H])[H]",
    "meta_data": {
        "InChI": "InChI=1S/C21H32N2O/c1-19-11-13-12-22-23-18(13)10-14(19)4-5-15-16(19)6-8-20(2)17(15)7-9-21(20,3)24/h12,14-17,24H,4-11H2,1-3H3,(H,22,23)/t14-,15+,16-,17-,19-,20-,21-/m0/s1",
        "InChIKey": null,
        "Canonical SMILES": "OC1(C)CCC2C3CCC4CC=5NN=CC5CC4(C)C3CCC21C",
        "Molecular Formula": "C<sub>21</sub>H<sub>32</sub>N<sub>2</sub>O",
        "Molecular Mass": "328.49",
        "Melting Point": "229.8-242.0 °C"
    }
}