{
    "cas_no": "1436-59-5",
    "key_name": "<em>cis</em>-1,2-Cyclohexanediamine",
    "cn_name": "顺式-1,2-环己二胺;",
    "alternate_name": "1,2-Cyclohexanediamine, (1<em>R</em>,2<em>S</em>)-<em>rel</em>-;1,2-Cyclohexanediamine, <em>cis</em>-;<em>rel</em>-(1<em>R</em>,2<em>S</em>)-1,2-Cyclohexanediamine;<em>cis</em>-1,2-Diaminocyclohexane;<em>meso</em>-1,2-Cyclohexanediamine;<em>cis</em>-1,2-Cyclohexanediamine;(<em>R</em>)(<em>S</em>)-1,2-Diaminocyclohexane;<em>meso</em>-1,2-Diaminocyclohexane;(±)-<em>cis</em>-Cyclohexane-1,2-diamine;<em>cis</em>-(1<em>S</em>,2<em>R</em>)-1,2-Diaminocyclohexane;(1<em>R</em>,2<em>S</em>)-1,2-Diaminocyclohexane;(1R*,2S*)-Cyclohexane-1,2-diamine",
    "duplicated_cas_no": "364753-65-1;741261-59-6;952689-46-2;1043893-49-7;1224730-45-3;1300609-90-8;1352544-09-2;1404454-86-9;1628229-12-8;1884308-79-5;2069242-32-4;2171102-15-9;2315278-91-0;2497435-63-7;2757338-41-1;2929312-24-1",
    "SMILES": "N[C@H]1[C@@H](N)CCCC1",
    "meta_data": {
        "InChI": "InChI=1/C6H14N2/c7-5-3-1-2-4-6(5)8/h5-6H,1-4,7-8H2/t5-,6+",
        "InChIKey": null,
        "Canonical SMILES": "NC1CCCCC1N",
        "Molecular Formula": "C<sub>6</sub>H<sub>14</sub>N<sub>2</sub>",
        "Molecular Mass": "114.19",
        "Boiling Point": "92-93 °C @ Press: 18 Torr"
    }
}