{
    "cas_no": "627-95-2",
    "key_name": "5-Aminovaleric acid hydrochloride",
    "cn_name": "5-氨基戊酸盐酸盐;",
    "alternate_name": "Pentanoic acid, 5-amino-, hydrochloride (1:1);Valeric acid, 5-amino-, hydrochloride;Pentanoic acid, 5-amino-, hydrochloride;δ-Aminovaleric acid hydrochloride;5-Aminovaleric acid hydrochloride;5-Aminopentanoic acid hydrochloride",
    "duplicated_cas_no": "",
    "SMILES": "C(CCCN)C(O)=O.Cl",
    "meta_data": {
        "InChI": "InChI=1S/C5H11NO2.ClH/c6-4-2-1-3-5(7)8;/h1-4,6H2,(H,7,8);1H",
        "InChIKey": null,
        "Canonical SMILES": "Cl.O=C(O)CCCCN",
        "Molecular Formula": "C<sub>5</sub>H<sub>11</sub>NO<sub>2</sub>.ClH",
        "Molecular Mass": "",
        "Boiling Point": "131-132 °C @ Press: 3 Torr",
        "Melting Point": "92 °C",
        "Density": "1.0962 g/cm³ @ Temp: 20 °C"
    }
}