{
    "cas_no": "36039-36-8",
    "key_name": "β-Methyl-4-(2-methylpropyl)benzeneethanol",
    "cn_name": null,
    "alternate_name": "Benzeneethanol, β-methyl-4-(2-methylpropyl)-;β-Methyl-4-(2-methylpropyl)benzeneethanol;2-(4-Isobutylphenyl)propanol;Ibuprofen alcohol;2-(4-Isobutylphenyl)propyl alcohol;2-(4-Isobutylphenyl)-1-propanol;(2RS)-2-[4-(2-Methylpropyl)phenyl]propan-1-ol;2-[4-(2-Methylpropyl)phenyl]propan-1-ol",
    "duplicated_cas_no": "127592-53-4;2271095-43-1",
    "SMILES": "C(C(C)C)C1=CC=C(C(CO)C)C=C1",
    "meta_data": {
        "InChI": "InChI=1S/C13H20O/c1-10(2)8-12-4-6-13(7-5-12)11(3)9-14/h4-7,10-11,14H,8-9H2,1-3H3",
        "InChIKey": null,
        "Canonical SMILES": "OCC(C1=CC=C(C=C1)CC(C)C)C",
        "Molecular Formula": "C<sub>13</sub>H<sub>20</sub>O",
        "Molecular Mass": "192.30",
        "Boiling Point": "104 °C @ Press: 0.8 Torr"
    }
}