{
    "cas_no": "1126-58-5",
    "key_name": "Girard's P reagent",
    "cn_name": null,
    "alternate_name": "Pyridinium, 1-(2-hydrazinyl-2-oxoethyl)-, chloride (1:1);Pyridinium, 1-(carboxymethyl)-, chloride, hydrazide;Pyridinium, 1-(2-hydrazino-2-oxoethyl)-, chloride;1-(Carboxymethyl)pyridinium chloride, hydrazide;Girard's P reagent;Girard-P reagent;Girard's reagent P;Pyridinioacetohydrazide chloride;Reagents, Girard's P;1-(2-Hydrazino-2-oxoethyl)pyridinium chloride;1-(2-Hydrazinyl-2-oxoethyl)pyridin-1-iumchloride;1-[(Hydrazinecarbonyl)methyl]pyridin-1-ium chloride",
    "duplicated_cas_no": "",
    "SMILES": "C(C(NN)=O)[N+]=1C=CC=CC1.[Cl-]",
    "meta_data": {
        "InChI": "InChI=1S/C7H9N3O.ClH/c8-9-7(11)6-10-4-2-1-3-5-10;/h1-5H,6,8H2;1H",
        "InChIKey": null,
        "Canonical SMILES": "[Cl-].O=C(NN)C[N+]=1C=CC=CC1",
        "Molecular Formula": "C<sub>7</sub>H<sub>10</sub>N<sub>3</sub>O.Cl",
        "Molecular Mass": "",
        "Melting Point": "201-202 °C"
    }
}