{
    "cas_no": "2044-72-6",
    "key_name": "<em>N</em>-(2,5-Dichlorophenyl)-3-oxobutanamide",
    "cn_name": "2\",5\"-二氯乙酰乙酰苯胺;",
    "alternate_name": "Butanamide, <em>N</em>-(2,5-dichlorophenyl)-3-oxo-;Acetoacetanilide, 2′,5′-dichloro-;<em>N</em>-(2,5-Dichlorophenyl)-3-oxobutanamide;2′,5′-Dichloroacetoacetanilide;Acetoacetic acid-2,5-dichloroanilide;NSC 3911",
    "duplicated_cas_no": "",
    "SMILES": "N(C(CC(C)=O)=O)C1=C(Cl)C=CC(Cl)=C1",
    "meta_data": {
        "InChI": "InChI=1S/C10H9Cl2NO2/c1-6(14)4-10(15)13-9-5-7(11)2-3-8(9)12/h2-3,5H,4H2,1H3,(H,13,15)",
        "InChIKey": null,
        "Canonical SMILES": "O=C(NC1=CC(Cl)=CC=C1Cl)CC(=O)C",
        "Molecular Formula": "C<sub>10</sub>H<sub>9</sub>Cl<sub>2</sub>NO<sub>2</sub>",
        "Molecular Mass": "246.09",
        "Melting Point": "94-96 °C"
    }
}