{
    "cas_no": "654-53-5",
    "key_name": "1,2,3,4-Tetrafluoro-5-(trifluoromethyl)benzene",
    "cn_name": null,
    "alternate_name": "Benzene, 1,2,3,4-tetrafluoro-5-(trifluoromethyl)-;Toluene, α,α,α,2,3,4,5-heptafluoro-;1,2,3,4-Tetrafluoro-5-(trifluoromethyl)benzene;2,3,4,5-Tetrafluorobenzotrifluoride;α,α,α,2,3,4,5-Heptafluorotoluene",
    "duplicated_cas_no": "",
    "SMILES": "C(F)(F)(F)C1=C(F)C(F)=C(F)C(F)=C1",
    "meta_data": {
        "InChI": "InChI=1S/C7HF7/c8-3-1-2(7(12,13)14)4(9)6(11)5(3)10/h1H",
        "InChIKey": null,
        "Canonical SMILES": "FC=1C=C(C(F)=C(F)C1F)C(F)(F)F",
        "Molecular Formula": "C<sub>7</sub>HF<sub>7</sub>",
        "Molecular Mass": "218.07",
        "Boiling Point": "102-105.5 °C"
    }
}