{
    "cas_no": "122-10-1",
    "key_name": "2-Pentenedioic acid, 3-[(dimethoxyphosphinyl)oxy]-, 1,5-dimethyl ester",
    "cn_name": "保米磷;O，O-二甲基-O-1，3-(二甲氧甲酰基)丙烯-2-基磷酸酯;",
    "alternate_name": "2-Pentenedioic acid, 3-[(dimethoxyphosphinyl)oxy]-, 1,5-dimethyl ester;Glutaconic acid, 3-hydroxy-, dimethyl ester, dimethyl phosphate;2-Pentenedioic acid, 3-[(dimethoxyphosphinyl)oxy]-, dimethyl ester;Phosphoric acid, dimethyl ester, ester with dimethyl 3-hydroxyglutaconate;GC 3707;ENT 24,833;Bomyl;Dimethyl-1,3-di(carbomethoxy)-1-propen-2-yl phosphate;Dimethyl 3-hydroxyglutaconate dimethyl phosphate;General Chemicals 3707",
    "duplicated_cas_no": "",
    "SMILES": "C(OP(OC)(OC)=O)(CC(OC)=O)=CC(OC)=O",
    "meta_data": {
        "InChI": "InChI=1S/C9H15O8P/c1-13-8(10)5-7(6-9(11)14-2)17-18(12,15-3)16-4/h5H,6H2,1-4H3",
        "InChIKey": null,
        "Canonical SMILES": "O=C(OC)C=C(OP(=O)(OC)OC)CC(=O)OC",
        "Molecular Formula": "C<sub>9</sub>H<sub>15</sub>O<sub>8</sub>P",
        "Molecular Mass": "282.18",
        "Boiling Point": "155-164 °C @ Press: 17 Torr",
        "Melting Point": "&lt;25 °C",
        "Density": "1.2 g/cm³"
    }
}