{
    "cas_no": "590-35-2",
    "key_name": "2,2-Dimethylpentane",
    "cn_name": "2,2-二甲基戊烷;2,2-二甲基戊烷；新庚烷;",
    "alternate_name": "Pentane, 2,2-dimethyl-;2,2-Dimethylpentane",
    "duplicated_cas_no": "",
    "SMILES": "C(C(C)(C)C)CC",
    "meta_data": {
        "InChI": "InChI=1S/C7H16/c1-5-6-7(2,3)4/h5-6H2,1-4H3",
        "InChIKey": null,
        "Canonical SMILES": "CCCC(C)(C)C",
        "Molecular Formula": "C<sub>7</sub>H<sub>16</sub>",
        "Molecular Mass": "100.20",
        "Boiling Point": "79.2 °C",
        "Melting Point": "-123.8 °C",
        "Density": "0.6738 g/cm³ @ Temp: 20 °C"
    }
}