{
    "cas_no": "64-55-1",
    "key_name": "Mebutamate",
    "cn_name": "美布氨酯;甲基眠尔通;",
    "alternate_name": "1,3-Propanediol, 2-methyl-2-(1-methylpropyl)-, 1,3-dicarbamate;1,3-Propanediol, 2-<em>sec</em>-butyl-2-methyl-, dicarbamate;1,3-Propanediol, 2-methyl-2-(1-methylpropyl)-, dicarbamate;Carbamic acid, 2-<em>sec</em>-butyl-2-methyltrimethylene ester;W 583;Axiten;2-<em>sec</em>-Butyl-2-methyl-1,3-propanediyl dicarbamate;2-<em>sec</em>-Butyl-2-methyltrimethylene dicarbamate;Capla;2,2-Dicarbamyloxymethyl-3-methylpentane;Mebutamate;Vallene;Mebutamat;Mebutina;Mioartrina;No-Press;Carbuten;Encapla;Preminex;Sigmafon;Mega;Butatensin;Dicamoylmethane;Prean;Dormate;Ipotensivo;NSC 163921;2-Methyl-2-(1-methylpropyl)-1,3-propanediol Dicarbamate",
    "duplicated_cas_no": "",
    "SMILES": "C(C(CC)C)(COC(N)=O)(COC(N)=O)C",
    "meta_data": {
        "InChI": "InChI=1S/C10H20N2O4/c1-4-7(2)10(3,5-15-8(11)13)6-16-9(12)14/h7H,4-6H2,1-3H3,(H2,11,13)(H2,12,14)",
        "InChIKey": null,
        "Canonical SMILES": "O=C(OCC(C)(COC(=O)N)C(C)CC)N",
        "Molecular Formula": "C<sub>10</sub>H<sub>20</sub>N<sub>2</sub>O<sub>4</sub>",
        "Molecular Mass": "232.28",
        "Melting Point": "77 °C"
    }
}