{
    "cas_no": "22433-91-6",
    "key_name": "2-Bromo-1,3-benzenedicarboxylic acid",
    "cn_name": null,
    "alternate_name": "1,3-Benzenedicarboxylic acid, 2-bromo-;Isophthalic acid, 2-bromo-;2-Bromo-1,3-benzenedicarboxylic acid;2-Bromoisophthalic acid;NSC 312822;NSC 312849",
    "duplicated_cas_no": "",
    "SMILES": "C(O)(=O)C1=C(Br)C(C(O)=O)=CC=C1",
    "meta_data": {
        "InChI": "InChI=1S/C8H5BrO4/c9-6-4(7(10)11)2-1-3-5(6)8(12)13/h1-3H,(H,10,11)(H,12,13)",
        "InChIKey": null,
        "Canonical SMILES": "O=C(O)C1=CC=CC(C(=O)O)=C1Br",
        "Molecular Formula": "C<sub>8</sub>H<sub>5</sub>BrO<sub>4</sub>",
        "Molecular Mass": "245.03",
        "Melting Point": "218 °C"
    }
}