{
    "cas_no": "2417-10-9",
    "key_name": "2-Hydroxydiphenyl ether",
    "cn_name": null,
    "alternate_name": "Phenol, 2-phenoxy-;Phenol, <em>o</em>-phenoxy-;2-Phenoxyphenol;2-Hydroxydiphenyl ether;<em>o</em>-Phenoxyphenol;2-Hydroxyphenyl phenyl ether",
    "duplicated_cas_no": "",
    "SMILES": "O(C1=C(O)C=CC=C1)C2=CC=CC=C2",
    "meta_data": {
        "InChI": "InChI=1S/C12H10O2/c13-11-8-4-5-9-12(11)14-10-6-2-1-3-7-10/h1-9,13H",
        "InChIKey": null,
        "Canonical SMILES": "OC=1C=CC=CC1OC=2C=CC=CC2",
        "Molecular Formula": "C<sub>12</sub>H<sub>10</sub>O<sub>2</sub>",
        "Molecular Mass": "186.21",
        "Boiling Point": "151-155 °C @ Press: 11 Torr",
        "Melting Point": "106-107 °C",
        "Density": "1.0655 g/cm³ @ Temp: 25 °C"
    }
}