{
    "cas_no": "2382-96-9",
    "key_name": "2-Mercaptobenzoxazole",
    "cn_name": "2-巯基苯并恶唑;",
    "alternate_name": "2(3<em>H</em>)-Benzoxazolethione;2-Benzoxazolethiol;2-Benzoxazolinethione;Benzoxazole, 2-mercapto-;2-Mercaptobenzoxazole;Benzoxazolinethione;2-Mercapto-1,3-benzoxazole;2-Benzoxazolethione;2-Benzoxazolylthiol;2,3-Dihydrobenzoxazole-2-thione;1,3-Benzoxazole-2(3<em>H</em>)-thione;1,3-Benzoxazoline-2-thione;NSC 209084;NSC 2128;1,3-Benzoxazole-2-thiol;MBO;3<em>H</em>-Benzoxazole-2-thione;Benzo[<em>d</em>]oxazole-2-thiol;2,3-Dihydro-1,3-benzoxazole-2-thione;2-Mercaptobenzo[<em>d</em>]oxazole",
    "duplicated_cas_no": "14955-23-8",
    "SMILES": "S=C1NC=2C(O1)=CC=CC2",
    "meta_data": {
        "InChI": "InChI=1S/C7H5NOS/c10-7-8-5-3-1-2-4-6(5)9-7/h1-4H,(H,8,10)",
        "InChIKey": null,
        "Canonical SMILES": "S=C1OC=2C=CC=CC2N1",
        "Molecular Formula": "C<sub>7</sub>H<sub>5</sub>NOS",
        "Molecular Mass": "151.19",
        "Melting Point": "196 °C"
    }
}