{
    "cas_no": "3962-66-1",
    "key_name": "Estr-5(10)-ene-3,17-dione",
    "cn_name": "19-去甲基-5(10)-雄烯二酮;",
    "alternate_name": "Estr-5(10)-ene-3,17-dione",
    "duplicated_cas_no": "",
    "SMILES": "C[C@@]12[C@]([C@]3([C@@](C4=C(CC3)CC(=O)CC4)(CC1)[H])[H])(CCC2=O)[H]",
    "meta_data": {
        "InChI": "InChI=1S/C18H24O2/c1-18-9-8-14-13-5-3-12(19)10-11(13)2-4-15(14)16(18)6-7-17(18)20/h14-16H,2-10H2,1H3/t14-,15-,16+,18+/m1/s1",
        "InChIKey": null,
        "Canonical SMILES": "O=C1CC2=C(CC1)C3CCC4(C(=O)CCC4C3CC2)C",
        "Molecular Formula": "C<sub>18</sub>H<sub>24</sub>O<sub>2</sub>",
        "Molecular Mass": "272.38",
        "Melting Point": "144-146 °C"
    }
}