{
    "cas_no": "120-87-6",
    "key_name": "9,10-Dihydroxystearic acid",
    "cn_name": null,
    "alternate_name": "Octadecanoic acid, 9,10-dihydroxy-;9,10-Dihydroxyoctadecanoic acid;9,10-Dihydroxystearic acid;NSC 60305",
    "duplicated_cas_no": "636-33-9",
    "SMILES": "C(C(CCCCCCCC)O)(CCCCCCCC(O)=O)O",
    "meta_data": {
        "InChI": "InChI=1S/C18H36O4/c1-2-3-4-5-7-10-13-16(19)17(20)14-11-8-6-9-12-15-18(21)22/h16-17,19-20H,2-15H2,1H3,(H,21,22)",
        "InChIKey": null,
        "Canonical SMILES": "O=C(O)CCCCCCCC(O)C(O)CCCCCCCC",
        "Molecular Formula": "C<sub>18</sub>H<sub>36</sub>O<sub>4</sub>",
        "Molecular Mass": "316.48",
        "Melting Point": "90 °C"
    }
}