{
    "cas_no": "6914-76-7",
    "key_name": "1-Methylcyclopropanecarboxylic acid",
    "cn_name": "1-甲基环丙烷-1-羧酸;1-甲基环丙烷-1-羧酸;",
    "alternate_name": "Cyclopropanecarboxylic acid, 1-methyl-;1-Methylcyclopropanecarboxylic acid;1-Methylcyclopropane-1-carboxylic acid;1-Methylcyclopropanoic acid;1-Methylcyclopropan-1-carboxylic acid",
    "duplicated_cas_no": "",
    "SMILES": "C(O)(=O)C1(C)CC1",
    "meta_data": {
        "InChI": "InChI=1S/C5H8O2/c1-5(2-3-5)4(6)7/h2-3H2,1H3,(H,6,7)",
        "InChIKey": null,
        "Canonical SMILES": "O=C(O)C1(C)CC1",
        "Molecular Formula": "C<sub>5</sub>H<sub>8</sub>O<sub>2</sub>",
        "Molecular Mass": "100.12",
        "Boiling Point": "110 °C @ Press: 15 Torr",
        "Melting Point": "29-30 °C"
    }
}