{
    "cas_no": "7292-74-2",
    "key_name": "α-Amino-3-fluorobenzeneacetic acid",
    "cn_name": "DL-3-氟苯基甘氨酸;",
    "alternate_name": "Benzeneacetic acid, α-amino-3-fluoro-;Glycine, 2-(<em>m</em>-fluorophenyl)-, <span class=\"text-smallcaps\">DL</span>-;Benzeneacetic acid, α-amino-3-fluoro-, (±)-;α-Amino-3-fluorobenzeneacetic acid;<span class=\"text-smallcaps\">DL</span>-α-Amino-3-fluorophenylacetic acid;3-Fluorophenylglycine;NSC 101465;<span class=\"text-smallcaps\">D</smallcap><smallcap>L</span>-3-Fluorophenylglycine;Amino(3-fluorophenyl)acetic acid;2-Amino-2-(3-fluorophenyl)acetic acid",
    "duplicated_cas_no": "2343-26-2",
    "SMILES": "C(C(O)=O)(N)C1=CC(F)=CC=C1",
    "meta_data": {
        "InChI": "InChI=1S/C8H8FNO2/c9-6-3-1-2-5(4-6)7(10)8(11)12/h1-4,7H,10H2,(H,11,12)",
        "InChIKey": null,
        "Canonical SMILES": "O=C(O)C(N)C=1C=CC=C(F)C1",
        "Molecular Formula": "C<sub>8</sub>H<sub>8</sub>FNO<sub>2</sub>",
        "Molecular Mass": "169.15",
        "Melting Point": "250 °C"
    }
}