{
    "cas_no": "1481-93-2",
    "key_name": "4-Chromanol",
    "cn_name": "4-二乙酰醇;4-二乙酰醇;3,4-二氢-2H-1-苯并吡喃-4-醇;4-二乙酰醇,97%;",
    "alternate_name": "2<em>H</em>-1-Benzopyran-4-ol, 3,4-dihydro-;4-Chromanol;3,4-Dihydro-2<em>H</em>-1-benzopyran-4-ol;4-Hydroxychroman;4-Hydroxy-3,4-dihydro-2<em>H</em>-1-benzopyran;3,4-dihydro-2<em>H</em>-1-benzopyran-4-ol;3,4-Dihydro-2<em>H</em>-chromen-4-ol",
    "duplicated_cas_no": "94476-98-9",
    "SMILES": "OC1C=2C(OCC1)=CC=CC2",
    "meta_data": {
        "InChI": "InChI=1S/C9H10O2/c10-8-5-6-11-9-4-2-1-3-7(8)9/h1-4,8,10H,5-6H2",
        "InChIKey": null,
        "Canonical SMILES": "OC1C=2C=CC=CC2OCC1",
        "Molecular Formula": "C<sub>9</sub>H<sub>10</sub>O<sub>2</sub>",
        "Molecular Mass": "150.17",
        "Melting Point": "41-42 °C"
    }
}