{
    "cas_no": "4650-60-6",
    "key_name": "2-(Isothiocyanatomethyl)furan",
    "cn_name": "异硫氢酸糠酯;2-糠基异硫腈酸盐;",
    "alternate_name": "Furan, 2-(isothiocyanatomethyl)-;Isothiocyanic acid, furfuryl ester;2-(Isothiocyanatomethyl)furan;2-Furfuryl isothiocyanate;Furfuryl isothiocyanate;2-Furylmethyl isothiocyanate;2-Furanylmethyl isothiocyanate",
    "duplicated_cas_no": "",
    "SMILES": "C(N=C=S)C1=CC=CO1",
    "meta_data": {
        "InChI": "InChI=1S/C6H5NOS/c9-5-7-4-6-2-1-3-8-6/h1-3H,4H2",
        "InChIKey": null,
        "Canonical SMILES": "S=C=NCC=1OC=CC1",
        "Molecular Formula": "C<sub>6</sub>H<sub>5</sub>NOS",
        "Molecular Mass": "139.18",
        "Boiling Point": "43-48 °C @ Press: 12 Torr"
    }
}