{
    "cas_no": "20667-19-0",
    "key_name": "Iodomethyltriphenylphosphorane",
    "cn_name": null,
    "alternate_name": "Phosphorane, iodomethyltriphenyl-;Iodomethyltriphenylphosphorane",
    "duplicated_cas_no": "",
    "SMILES": "P(C)(I)(C1=CC=CC=C1)(C2=CC=CC=C2)C3=CC=CC=C3",
    "meta_data": {
        "InChI": "InChI=1S/C19H18IP/c1-21(20,17-11-5-2-6-12-17,18-13-7-3-8-14-18)19-15-9-4-10-16-19/h2-16H,1H3",
        "InChIKey": null,
        "Canonical SMILES": "IP(C=1C=CC=CC1)(C=2C=CC=CC2)(C=3C=CC=CC3)C",
        "Molecular Formula": "C<sub>19</sub>H<sub>18</sub>IP",
        "Molecular Mass": "404.22",
        "Melting Point": "176-181 °C"
    }
}