{
    "cas_no": "12032-88-1",
    "key_name": "Manganese telluride (MnTe)",
    "cn_name": "碲化锰;",
    "alternate_name": "Manganese telluride (MnTe);Manganous telluride;Manganese monotelluride;Manganese(II) telluride;Manganese telluride (Mn<sub>0.50</sub>Te<sub>0.50</sub>);Manganese(2+) telluride",
    "duplicated_cas_no": "106770-07-4;1472644-99-7;2688797-27-3",
    "SMILES": "[Mn]=[Te]",
    "meta_data": {
        "InChI": "InChI=1S/Mn.Te",
        "InChIKey": null,
        "Canonical SMILES": "[Mn]=[Te]",
        "Molecular Formula": "MnTe",
        "Molecular Mass": "",
        "Melting Point": "1177 °C"
    }
}