{
    "cas_no": "2177-63-1",
    "key_name": "4-(Phenylmethyl) hydrogen <span class=\"text-smallcaps\">L</span>-aspartate",
    "cn_name": "L-天冬氨酸-4-苄酯;L-天冬氨酸beta-苄酯;",
    "alternate_name": "<span class=\"text-smallcaps\">L</span>-Aspartic acid, 4-(phenylmethyl) ester;Aspartic acid, 4-benzyl ester, <span class=\"text-smallcaps\">L</span>-;4-(Phenylmethyl) hydrogen <span class=\"text-smallcaps\">L</span>-aspartate;Benzyl aspartate;<span class=\"text-smallcaps\">L</span>-Aspartic acid 4-benzyl ester;β-Benzyl aspartate;Aspartic acid β-benzyl ester;β-Benzyl <span class=\"text-smallcaps\">L</span>-aspartate;4-Benzyl <span class=\"text-smallcaps\">L</span>-aspartate;<span class=\"text-smallcaps\">L</span>-Aspartic acid β-benzyl ester;<span class=\"text-smallcaps\">L</span>-Aspartic acid 4-<em>O</em>-benzyl ester;NSC 524167;(2S)-2-Amino-4-(benzyloxy)-4-oxobutanoic acid;(2S)-2-Amino-4-oxo-4-phenylmethoxybutanoic acid",
    "duplicated_cas_no": "128550-63-0;1225186-38-8;1281739-62-5;1682650-07-2;1695545-53-9",
    "SMILES": "C(OC(C[C@@H](C(O)=O)N)=O)C1=CC=CC=C1",
    "meta_data": {
        "InChI": "InChI=1S/C11H13NO4/c12-9(11(14)15)6-10(13)16-7-8-4-2-1-3-5-8/h1-5,9H,6-7,12H2,(H,14,15)/t9-/m0/s1",
        "InChIKey": null,
        "Canonical SMILES": "O=C(O)C(N)CC(=O)OCC=1C=CC=CC1",
        "Molecular Formula": "C<sub>11</sub>H<sub>13</sub>NO<sub>4</sub>",
        "Molecular Mass": "223.23",
        "Melting Point": "111 °C"
    }
}