{
    "cas_no": "17737-65-4",
    "key_name": "Clonixin",
    "cn_name": "氯尼辛;2-[(3-氯-2-甲苯基)氨基]-3-吡啶羧酸;",
    "alternate_name": "3-Pyridinecarboxylic acid, 2-[(3-chloro-2-methylphenyl)amino]-;Nicotinic acid, 2-(3-chloro-<em>o</em>-toluidino)-;2-[(3-Chloro-2-methylphenyl)amino]-3-pyridinecarboxylic acid;2-(3-Chloro-2-methylanilino)nicotinic acid;Clonixin;Chlonixin;2-(2-Methyl-3-chloroanilino)nicotinic acid;2-(2′-Methyl-3′-chloro)-anilinonicotinic acid;Sch 10304;Clonixic acid;Clonixine;2-(3-Chloro-2-methylanilino)-3-pyridinecarboxylic acid;CBA 93626;NSC 335505",
    "duplicated_cas_no": "",
    "SMILES": "N(C1=C(C(O)=O)C=CC=N1)C2=C(C)C(Cl)=CC=C2",
    "meta_data": {
        "InChI": "InChI=1S/C13H11ClN2O2/c1-8-10(14)5-2-6-11(8)16-12-9(13(17)18)4-3-7-15-12/h2-7H,1H3,(H,15,16)(H,17,18)",
        "InChIKey": null,
        "Canonical SMILES": "O=C(O)C1=CC=CN=C1NC=2C=CC=C(Cl)C2C",
        "Molecular Formula": "C<sub>13</sub>H<sub>11</sub>ClN<sub>2</sub>O<sub>2</sub>",
        "Molecular Mass": "262.69",
        "Melting Point": "234 °C",
        "Density": "1.410 g/cm³"
    }
}