{
    "cas_no": "273-13-2",
    "key_name": "2,1,3-Benzothiadiazole",
    "cn_name": "2,1,3-苯并噻二唑;苯并噻二唑;",
    "alternate_name": "2,1,3-Benzothiadiazole;Benzisothiadiazole;Piazthiole;2-Thia-1,3-diaza-2<em>H</em>-isoindene;3,4-Benzo-1,2,5-thiadiazole;NSC 43636;NSC 679;Benzo[1,2,5]thiadiazole;Benzo[<em>c</em>]-1,2,5-thiadiazole",
    "duplicated_cas_no": "",
    "SMILES": "C=12C(=NSN1)C=CC=C2",
    "meta_data": {
        "InChI": "InChI=1S/C6H4N2S/c1-2-4-6-5(3-1)7-9-8-6/h1-4H",
        "InChIKey": null,
        "Canonical SMILES": "N=1SN=C2C=CC=CC12",
        "Molecular Formula": "C<sub>6</sub>H<sub>4</sub>N<sub>2</sub>S",
        "Molecular Mass": "136.17",
        "Boiling Point": "203 °C",
        "Melting Point": "43 °C"
    }
}