{
    "cas_no": "33390-41-9",
    "key_name": "8-Deoxygartanin",
    "cn_name": null,
    "alternate_name": "9<em>H</em>-Xanthen-9-one, 1,3,5-trihydroxy-2,4-bis(3-methyl-2-buten-1-yl)-;9<em>H</em>-Xanthen-9-one, 1,3,5-trihydroxy-2,4-bis(3-methyl-2-butenyl)-;Xanthen-9-one, 1,3,5-trihydroxy-2,4-bis(3-methyl-2-butenyl)-;1,3,5-Trihydroxy-2,4-bis(3-methyl-2-buten-1-yl)-9<em>H</em>-xanthen-9-one;8-Deoxygartanin;1,3,5-Trihydroxy-2,4-bis(3-methyl-2-butenyl)xanthone;8-Desoxygartanin;NSC 692944",
    "duplicated_cas_no": "",
    "SMILES": "C(C=C(C)C)C1=C2C(C(=O)C=3C(O2)=C(O)C=CC3)=C(O)C(CC=C(C)C)=C1O",
    "meta_data": {
        "InChI": "InChI=1S/C23H24O5/c1-12(2)8-10-14-19(25)16(11-9-13(3)4)23-18(20(14)26)21(27)15-6-5-7-17(24)22(15)28-23/h5-9,24-26H,10-11H2,1-4H3",
        "InChIKey": null,
        "Canonical SMILES": "O=C1C=2C=CC=C(O)C2OC3=C1C(O)=C(C(O)=C3CC=C(C)C)CC=C(C)C",
        "Molecular Formula": "C<sub>23</sub>H<sub>24</sub>O<sub>5</sub>",
        "Molecular Mass": "380.43",
        "Melting Point": "165-167 °C"
    }
}