{
    "cas_no": "341-69-5",
    "key_name": "Orphenadrine hydrochloride",
    "cn_name": "盐酸邻甲苯海拉明;盐酸邻甲苯海拉明;",
    "alternate_name": "Ethanamine, <em>N</em>,<em>N</em>-dimethyl-2-[(2-methylphenyl)phenylmethoxy]-, hydrochloride (1:1);Ethylamine, <em>N</em>,<em>N</em>-dimethyl-2-[(<em>o</em>-methyl-α-phenylbenzyl)oxy]-, hydrochloride;Ethanamine, <em>N</em>,<em>N</em>-dimethyl-2-[(2-methylphenyl)phenylmethoxy]-, hydrochloride;Brocasipal;2-(Dimethylamino)ethyl 2-methylbenzhydryl ether hydrochloride;<em>N</em>,<em>N</em>-Dimethyl-2-(<em>o</em>-methyl-α-phenylbenzyloxy)ethylamine hydrochloride;Disipal hydrochloride;Mephenamine hydrochloride;Mephenamin hydrochloride;Orphenadrine hydrochloride;Disipal;Mephenamine;Mebedrol;Mefenamin hydrochloride;Orfenadrin hydrochloride;Mephenamin;(±)-Orphenadrine hydrochloride;NSC 82357",
    "duplicated_cas_no": "144501-36-0",
    "SMILES": "C(OCCN(C)C)(C1=C(C)C=CC=C1)C2=CC=CC=C2.Cl",
    "meta_data": {
        "InChI": "InChI=1S/C18H23NO.ClH/c1-15-9-7-8-12-17(15)18(20-14-13-19(2)3)16-10-5-4-6-11-16;/h4-12,18H,13-14H2,1-3H3;1H",
        "InChIKey": null,
        "Canonical SMILES": "Cl.O(CCN(C)C)C(C=1C=CC=CC1)C=2C=CC=CC2C",
        "Molecular Formula": "C<sub>18</sub>H<sub>23</sub>NO.ClH",
        "Molecular Mass": "",
        "Melting Point": "156-157 °C",
        "Density": "0.295 g/cm³"
    }
}