{
    "cas_no": "598-05-0",
    "key_name": "Dipropyl sulfate",
    "cn_name": "二丙基硫酸;",
    "alternate_name": "Sulfuric acid, dipropyl ester;Propyl sulfate;Propylsulfate, Pr<sub>2</sub>SO<sub>4</sub>;Propyl sulfate ((PrO)<sub>2</sub> SO<sub>2</sub>);Dipropyl sulfate",
    "duplicated_cas_no": "",
    "SMILES": "S(OCCC)(OCCC)(=O)=O",
    "meta_data": {
        "InChI": "InChI=1S/C6H14O4S/c1-3-5-9-11(7,8)10-6-4-2/h3-6H2,1-2H3",
        "InChIKey": null,
        "Canonical SMILES": "O=S(=O)(OCCC)OCCC",
        "Molecular Formula": "C<sub>6</sub>H<sub>14</sub>O<sub>4</sub>S",
        "Molecular Mass": "182.24",
        "Boiling Point": "90-94 °C @ Press: 4 Torr"
    }
}