{
    "cas_no": "546-56-5",
    "key_name": "Octaphenylcyclotetrasiloxane",
    "cn_name": null,
    "alternate_name": "Cyclotetrasiloxane, 2,2,4,4,6,6,8,8-octaphenyl-;Cyclotetrasiloxane, octaphenyl-;2,2,4,4,6,6,8,8-Octaphenylcyclotetrasiloxane;Octaphenylcyclotetrasiloxane;1,1,3,3,5,5,7,7-Octaphenylcyclotetrasiloxane;Octaphenyltetracyclosiloxane;NSC 293057;LS 8980;SX 12B;2,2,4,4,6,6,8,8-Octakis-phenyl-1,3,5,7,2,4,6,8-tetraoxatetrasilocane;2,2,4,4,6,6,8,8-Octaphenyl-1,3,5,7,2,4,6,8-tetraoxatetrasilocane;F 491;SR 476;P 4",
    "duplicated_cas_no": "953400-53-8",
    "SMILES": "[Si]1(O[Si](O[Si](O[Si](O1)(C2=CC=CC=C2)C3=CC=CC=C3)(C4=CC=CC=C4)C5=CC=CC=C5)(C6=CC=CC=C6)C7=CC=CC=C7)(C8=CC=CC=C8)C9=CC=CC=C9",
    "meta_data": {
        "InChI": "InChI=1S/C48H40O4Si4/c1-9-25-41(26-10-1)53(42-27-11-2-12-28-42)49-54(43-29-13-3-14-30-43,44-31-15-4-16-32-44)51-56(47-37-21-7-22-38-47,48-39-23-8-24-40-48)52-55(50-53,45-33-17-5-18-34-45)46-35-19-6-20-36-46/h1-40H",
        "InChIKey": null,
        "Canonical SMILES": "O1[Si](O[Si](O[Si](O[Si]1(C=2C=CC=CC2)C=3C=CC=CC3)(C=4C=CC=CC4)C=5C=CC=CC5)(C=6C=CC=CC6)C=7C=CC=CC7)(C=8C=CC=CC8)C=9C=CC=CC9",
        "Molecular Formula": "C<sub>48</sub>H<sub>40</sub>O<sub>4</sub>Si<sub>4</sub>",
        "Molecular Mass": "793.17",
        "Boiling Point": "332 °C @ Press: 1 Torr",
        "Melting Point": "200.5 °C",
        "Density": "1.185 g/cm³"
    }
}