{
    "cas_no": "24566-81-2",
    "key_name": "1-Butanamine, 4-bromo-, hydrobromide (1:1)",
    "cn_name": null,
    "alternate_name": "1-Butanamine, 4-bromo-, hydrobromide (1:1);Butylamine, 4-bromo-, hydrobromide;1-Butanamine, 4-bromo-, hydrobromide;4-Bromobutylamine hydrobromide;4-Bromobutan-1-amine hydrobromide",
    "duplicated_cas_no": "",
    "SMILES": "C(CCN)CBr.Br",
    "meta_data": {
        "InChI": "InChI=1S/C4H10BrN.BrH/c5-3-1-2-4-6;/h1-4,6H2;1H",
        "InChIKey": null,
        "Canonical SMILES": "Br.BrCCCCN",
        "Molecular Formula": "C<sub>4</sub>H<sub>10</sub>BrN.BrH",
        "Molecular Mass": "",
        "Melting Point": "151-154 °C"
    }
}