{
    "cas_no": "96562-58-2",
    "key_name": "Methyl (2<em>R</em>)-2-(4-hydroxyphenoxy)propanoate",
    "cn_name": "(R)-(+)-2-(4-羟基苯氧基)丙酸甲酯;(R)-(+)-对羟基苯氧基丙酸甲酯;",
    "alternate_name": "Propanoic acid, 2-(4-hydroxyphenoxy)-, methyl ester, (2<em>R</em>)-;Propanoic acid, 2-(4-hydroxyphenoxy)-, methyl ester, (<em>R</em>)-;Methyl (2<em>R</em>)-2-(4-hydroxyphenoxy)propanoate;Methyl (+)-2-(4-hydroxyphenoxy)propionate;(<em>R</em>)-2-(4-Hydroxyphenoxy)propionic acid methyl ester;Methyl (<em>R</em>)-2-(4-hydroxyphenoxy)propionate;Methyl (<em>R</em>)-(+)-2-(4-hydroxyphenoxy)propionate",
    "duplicated_cas_no": "",
    "SMILES": "O([C@@H](C(OC)=O)C)C1=CC=C(O)C=C1",
    "meta_data": {
        "InChI": "InChI=1S/C10H12O4/c1-7(10(12)13-2)14-9-5-3-8(11)4-6-9/h3-7,11H,1-2H3/t7-/m1/s1",
        "InChIKey": null,
        "Canonical SMILES": "O=C(OC)C(OC1=CC=C(O)C=C1)C",
        "Molecular Formula": "C<sub>10</sub>H<sub>12</sub>O<sub>4</sub>",
        "Molecular Mass": "196.20",
        "Melting Point": "62-64 °C"
    }
}