{
    "cas_no": "141-91-3",
    "key_name": "2,6-Dimethylmorpholine",
    "cn_name": "2,6-二甲基吗啉;",
    "alternate_name": "Morpholine, 2,6-dimethyl-;2,6-Dimethylmorpholine;NSC 60704",
    "duplicated_cas_no": "",
    "SMILES": "CC1OC(C)CNC1",
    "meta_data": {
        "InChI": "InChI=1S/C6H13NO/c1-5-3-7-4-6(2)8-5/h5-7H,3-4H2,1-2H3",
        "InChIKey": null,
        "Canonical SMILES": "O1C(C)CNCC1C",
        "Molecular Formula": "C<sub>6</sub>H<sub>13</sub>NO",
        "Molecular Mass": "115.17",
        "Boiling Point": "146.6 °C @ Press: 760 Torr",
        "Melting Point": "-88 °C",
        "Density": "0.9346 g/cm³ @ Temp: 20 °C"
    }
}