{
    "cas_no": "486-12-4",
    "key_name": "Triprolidine",
    "cn_name": "曲普立定;曲普利啶;2-[(E)-1-(4-甲基苯基)-3-(1-吡咯烷基)-1-丙烯基]吡啶;",
    "alternate_name": "Pyridine, 2-[(1<em>E</em>)-1-(4-methylphenyl)-3-(1-pyrrolidinyl)-1-propen-1-yl]-;Pyridine, 2-[3-(1-pyrrolidinyl)-1-<em>p</em>-tolylpropenyl]-, (<em>E</em>)-;Pyridine, 2-[1-(4-methylphenyl)-3-(1-pyrrolidinyl)-1-propenyl]-, (<em>E</em>)-;Pyridine, 2-[(1<em>E</em>)-1-(4-methylphenyl)-3-(1-pyrrolidinyl)-1-propenyl]-;2-[(1<em>E</em>)-1-(4-Methylphenyl)-3-(1-pyrrolidinyl)-1-propen-1-yl]pyridine;Tripyrolidine;Triprolidine;<em>trans</em>-2-[3-(1-Pyrrolidinyl)-1-<em>p</em>-tolypropenyl]pyridine;<em>trans</em>-1-(2-Pyridyl)-3-pyrrolidino-1-<em>p</em>-tolylprop-1-ene;<em>trans</em>-1-(4-Methylphenyl)-1-(2-pyridyl)-3-pyrrolidinoprop-1-ene;Triprolidin;MeSH ID: D014311",
    "duplicated_cas_no": "",
    "SMILES": "C(=C\\CN1CCCC1)(\\C2=CC=C(C)C=C2)/C3=CC=CC=N3",
    "meta_data": {
        "InChI": "InChI=1S/C19H22N2/c1-16-7-9-17(10-8-16)18(19-6-2-3-12-20-19)11-15-21-13-4-5-14-21/h2-3,6-12H,4-5,13-15H2,1H3/b18-11+",
        "InChIKey": null,
        "Canonical SMILES": "N=1C=CC=CC1C(=CCN2CCCC2)C3=CC=C(C=C3)C",
        "Molecular Formula": "C<sub>19</sub>H<sub>22</sub>N<sub>2</sub>",
        "Molecular Mass": "278.39",
        "Melting Point": "59-61 °C"
    }
}