{
    "cas_no": "1538-09-6",
    "key_name": "Benzathine penicillin",
    "cn_name": "苄星青霉素G;苄青霉素;长效西林;(2S,5R,6R)-3,3-二甲基-6-(2-苯乙酰氨基)-7-氧代-4-硫杂-1-氮杂双环[3.2.0];",
    "alternate_name": "4-Thia-1-azabicyclo[3.2.0]heptane-2-carboxylic acid, 3,3-dimethyl-7-oxo-6-[(2-phenylacetyl)amino]- (2<em>S</em>,5<em>R</em>,6<em>R</em>)-, compd. with <em>N</em><sup>1</sup>,<em>N</em><sup>2</sup>-bis(phenylmethyl)-1,2-ethanediamine (2:1);4-Thia-1-azabicyclo[3.2.0]heptane-2-carboxylic acid, 3,3-dimethyl-7-oxo-6-(2-phenylacetamido)-, compd. with <em>N</em>,<em>N</em>′-dibenzylethylenediamine (2:1);4-Thia-1-azabicyclo[3.2.0]heptane-2-carboxylic acid, 3,3-dimethyl-7-oxo-6-[(phenylacetyl)amino]- [2<em>S</em>-(2α,5α,6β)]-, compd. with <em>N</em>,<em>N</em>′-bis(phenylmethyl)-1,2-ethanediamine (2:1);Penicillin G, <em>N</em>,<em>N</em>′-dibenzylethylenediamine salt;4-Thia-1-azabicyclo[3.2.0]heptane-2-carboxylic acid, 3,3-dimethyl-7-oxo-6-[(phenylacetyl)amino]- (2<em>S</em>,5<em>R</em>,6<em>R</em>)-, compd. with <em>N</em>,<em>N</em>′-bis(phenylmethyl)-1,2-ethanediamine (2:1);Ethylenediamine, <em>N</em>,<em>N</em>′-dibenzyl-, bis[3,3-dimethyl-7-oxo-6-(2-phenylacetamido)-4-thia-1-azabicyclo[3.2.0]heptane-2-carboxylate];1,2-Ethanediamine, <em>N</em>,<em>N</em>′-bis(phenylmethyl)-, bis[[2<em>S</em>-(2α,5α,6β)]-3,3-dimethyl-7-oxo-6-[(phenylacetyl)amino]-4-thia-1-azabicyclo[3.2.0]heptane-2-carboxylate];1,2-Ethanediamine, <em>N</em>,<em>N</em>′-bis(phenylmethyl)-, bis[(2<em>S</em>,5<em>R</em>,6<em>R</em>)-3,3-dimethyl-7-oxo-6-[(phenylacetyl)amino]-4-thia-1-azabicyclo[3.2.0]heptane-2-carboxylate];Benzathine benzylpenicillin;Benzathine penicillin G;Benzethacil;Benzylpenicillin dibenzylethylenediamine salt;Bicillin;Cepacilina;Cillenta;Debecillin;Debecylina;Diamine penicillin;Dibencil;Dibencillin;<em>N</em>,<em>N</em>′-Dibenzylethylenediamine bis[benzyl penicillin];<em>N</em>,<em>N</em>′-Dibenzylethylenediamine salt of benzylpenicillin;Duropenin;Ethylenediamine, <em>N</em>,<em>N</em>′-dibenzyl-, compd. with penicillin G (1:2);Extenicilline;Longacilina;Longicil;Neolin;Penadur;Pendepon;Pen-Di-Ben;Penditan;Penduran;Penicillin G, compd. with <em>N</em>,<em>N</em>′-dibenzylethylenediamine (2:1);Penidural;Penidure;Permapen;Tardocillin;Benzacillin;Moldamin;Dibenzylethylenediamine dipenicillin G;Beacillin;Megacillin suspension;Lentopenil;Vicin;Extencilline;Benzathine penicillin;Bica-penicillin;Benzylpenicillin benzathine;Benzapen;Bicillin I;Bicillin 1;Strepdipen-Suspension;Benzylpenicillin <em>N</em>,<em>N</em>′-dibenzylethylenediamine salt;Bicillin L-A;Benepen;Penicom 12;Bicillin G",
    "duplicated_cas_no": "141676-23-5;2792-46-3;5968-77-4;8048-79-1;12705-12-3;77087-98-0",
    "SMILES": "C(NCCNCC1=CC=CC=C1)C2=CC=CC=C2.C(O)(=O)[C@@H]1N2[C@@]([C@H](NC(CC3=CC=CC=C3)=O)C2=O)(SC1(C)C)[H]",
    "meta_data": {
        "InChI": "InChI=1S/C16H18N2O4S.C16H20N2/c1-16(2)12(15(21)22)18-13(20)11(14(18)23-16)17-10(19)8-9-6-4-3-5-7-9;1-3-7-15(8-4-1)13-17-11-12-18-14-16-9-5-2-6-10-16/h3-7,11-12,14H,8H2,1-2H3,(H,17,19)(H,21,22);1-10,17-18H,11-14H2/t11-,12+,14-;/m1./s1",
        "InChIKey": null,
        "Canonical SMILES": "O=C(O)C1N2C(=O)C(NC(=O)CC=3C=CC=CC3)C2SC1(C)C.C=1C=CC(=CC1)CNCCNCC=2C=CC=CC2",
        "Molecular Formula": "C<sub>16</sub>H<sub>20</sub>N<sub>2</sub>.2C<sub>16</sub>H<sub>18</sub>N<sub>2</sub>O<sub>4</sub>S",
        "Molecular Mass": "",
        "Melting Point": "123-124 °C"
    }
}