{
    "cas_no": "13095-73-3",
    "key_name": "4-Mercaptobutanoic acid",
    "cn_name": null,
    "alternate_name": "Butanoic acid, 4-mercapto-;Butyric acid, 4-mercapto-;4-Mercaptobutanoic acid;4-Mercaptobutyric acid;γ-Mercaptobutyric acid",
    "duplicated_cas_no": "2582013-09-8",
    "SMILES": "C(C(O)=O)CCS",
    "meta_data": {
        "InChI": "InChI=1S/C4H8O2S/c5-4(6)2-1-3-7/h7H,1-3H2,(H,5,6)",
        "InChIKey": null,
        "Canonical SMILES": "O=C(O)CCCS",
        "Molecular Formula": "C<sub>4</sub>H<sub>8</sub>O<sub>2</sub>S",
        "Molecular Mass": "120.17",
        "Boiling Point": "102-103 °C @ Press: 2.5 Torr",
        "Melting Point": "108-110 °C",
        "Density": "1.1630 g/cm³ @ Temp: 20 °C"
    }
}