{
    "cas_no": "14919-77-8",
    "key_name": "Benserazide hydrochloride",
    "cn_name": "盐酸苄丝肼;",
    "alternate_name": "Serine, 2-[(2,3,4-trihydroxyphenyl)methyl]hydrazide, hydrochloride (1:1);Serine, 2-(2,3,4-trihydroxybenzyl)hydrazide, monohydrochloride;<span class=\"text-smallcaps\">DL</span>-Serine, 2-[(2,3,4-trihydroxyphenyl)methyl]hydrazide, monohydrochloride;Serine, 2-[(2,3,4-trihydroxyphenyl)methyl]hydrazide, monohydrochloride;<em>N</em>-(<span class=\"text-smallcaps\">DL</span>-Seryl)-<em>N</em>′-(2,3,4-trihydroxybenzyl)hydrazine hydrochloride;<em>N</em>′-(<span class=\"text-smallcaps\">DL</span>-Seryl)-<em>N</em>′′-(2,3,4-trihydroxybenzyl)hydrazine hydrochloride;Benserazide hydrochloride;<span class=\"text-smallcaps\">DL</span>-Serine <em>N</em><sup>2</sup>-(2,3,4-trihydroxybenzyl)hydrazide hydrochloride;Ro 4-4602;Ro 4-4602/001",
    "duplicated_cas_no": "14046-64-1;31796-68-6",
    "SMILES": "C(NNC(C(CO)N)=O)C1=C(O)C(O)=C(O)C=C1.Cl",
    "meta_data": {
        "InChI": "InChI=1S/C10H15N3O5.ClH/c11-6(4-14)10(18)13-12-3-5-1-2-7(15)9(17)8(5)16;/h1-2,6,12,14-17H,3-4,11H2,(H,13,18);1H",
        "InChIKey": null,
        "Canonical SMILES": "Cl.O=C(NNCC1=CC=C(O)C(O)=C1O)C(N)CO",
        "Molecular Formula": "C<sub>10</sub>H<sub>15</sub>N<sub>3</sub>O<sub>5</sub>.ClH",
        "Molecular Mass": "",
        "Melting Point": "146-148 °C"
    }
}