{
    "cas_no": "1873-89-8",
    "key_name": "Tris(trimethylsiloxy)silane",
    "cn_name": "三(三甲硅烷氧基)硅烷;三(三甲硅烷氧基)硅烷;",
    "alternate_name": "Trisiloxane, 1,1,1,5,5,5-hexamethyl-3-[(trimethylsilyl)oxy]-;Trisiloxane, 1,1,1,5,5,5-hexamethyl-3-(trimethylsiloxy)-;1,1,1,5,5,5-Hexamethyl-3-[(trimethylsilyl)oxy]trisiloxane;Tris(trimethylsiloxy)silane;Tris(trimethylsilyloxy)silane;S 1003TS",
    "duplicated_cas_no": "",
    "SMILES": "O([SiH](O[Si](C)(C)C)O[Si](C)(C)C)[Si](C)(C)C",
    "meta_data": {
        "InChI": "InChI=1S/C9H28O3Si4/c1-14(2,3)10-13(11-15(4,5)6)12-16(7,8)9/h13H,1-9H3",
        "InChIKey": null,
        "Canonical SMILES": "O([SiH](O[Si](C)(C)C)O[Si](C)(C)C)[Si](C)(C)C",
        "Molecular Formula": "C<sub>9</sub>H<sub>28</sub>O<sub>3</sub>Si<sub>4</sub>",
        "Molecular Mass": "296.66",
        "Boiling Point": "64 °C @ Press: 10 Torr",
        "Density": "0.852 g/cm³"
    }
}