{
    "cas_no": "546-68-9",
    "key_name": "Titanium isopropoxide",
    "cn_name": "钛酸四异丙酯;四异丙基钛酸酯;",
    "alternate_name": "2-Propanol, titanium(4+) salt (4:1);Isopropyl alcohol, titanium(4+) salt;Titanium isopropoxide (Ti(OC<sub>3</sub>H<sub>7</sub>)<sub>4</sub>);2-Propanol, titanium(4+) salt;Tetraisopropyl titanate;Isopropyl titanate(IV) ((C<sub>3</sub>H<sub>7</sub>O)<sub>4</sub>Ti);Tetrakis(isopropoxy)titanium;Titanium, tetrakis(1-methylethoxy)-;Titanium tetraisopropylate;Tetraisopropyl orthotitanate;Titanium(4+) isopropoxide;Tetraisopropoxytitanium;Titanium isopropylate;Isopropyl orthotitanate;Titanium tetraisopropoxide;Titanium tetrakis(isopropoxide);Titanium(IV) isopropoxide;Tyzor TPT;Tetrakis(isopropyloxy)titanium;TPT;Titanium isopropoxide;A 1 (titanate);A 1;Orgatix TA 10;Titanium tetrakis(<em>iso</em>-propoxide);Tetraisopropanolatotitanium;Tetrakis(isopropylato)titanium(IV);Tilcom TIPT;Tetrakis(isopropanolato)titanium;TA 10;Tetraisopropoxytitanium(IV);5N (titanate);5N;Vertec TIPT;AKT 872;TPTA 1;Bistrater H-NDH 510C;NDH 510C;TIPT;Vertec XL 110;Vertec RJCE;Vertec XI 900;Titanium(IV) isoproproxide;Orgatix TA 8;Tetrakis(isopropoxide)titanium;JTW-TPT;HY 1802;Tytan Tipt",
    "duplicated_cas_no": "3651-85-2;50336-56-6;71515-81-6;73264-97-8;94340-28-0;112797-74-7;118815-04-6;119651-13-7;128796-34-9;131530-94-4;147809-57-2;167709-32-2;176680-01-6;186518-71-8;187601-75-8;195382-13-9;198699-88-6;210407-18-4;216859-04-0;244173-55-5;245654-31-3;255839-65-7;259264-35-2;300564-30-1;310882-94-1;347859-73-8;366477-01-2;408306-55-8;505093-57-2;518050-49-2;917485-01-9;918419-31-5;1004522-95-5;1016644-08-8;1149373-13-6;1245903-59-6;1352612-45-3;2120427-28-1;2408830-00-0;2448474-28-8;2758437-83-9",
    "SMILES": "C(C)(C)O.[Ti]",
    "meta_data": {
        "InChI": "InChI=1S/C3H8O.Ti/c1-3(2)4;/h3-4H,1-2H3;",
        "InChIKey": null,
        "Canonical SMILES": "[Ti].OC(C)C",
        "Molecular Formula": "C<sub>3</sub>H<sub>8</sub>O.<sup>1</sup>/<sub>4</sub>Ti",
        "Molecular Mass": "",
        "Boiling Point": "220 °C @ Press: 760 Torr",
        "Melting Point": "~20 °C (approx)",
        "Density": "0.9711 g/cm³ @ Temp: 20 °C"
    }
}