{
    "cas_no": "1310-43-6",
    "key_name": "Iron phosphide (Fe<sub>2</sub>P)",
    "cn_name": null,
    "alternate_name": "Iron phosphide (Fe<sub>2</sub>P);Ferrous phosphide;Diiron phosphide;Diiron monophosphide;Ferrophos (pigment);Ferrophos;Ferrophos HRS 3095;Ferrophos HRS 3212;Ferrophos 31",
    "duplicated_cas_no": "168679-12-7;1392109-42-0",
    "SMILES": "",
    "meta_data": {
        "InChI": "",
        "InChIKey": null,
        "Canonical SMILES": "",
        "Molecular Formula": "Fe<sub>2</sub>P",
        "Molecular Mass": "",
        "Melting Point": "1420 °C",
        "Density": "5.7 g/cm³"
    }
}