{
    "uri": "substance/pt/1310436",
    "rn": "1310-43-6",
    "name": "Iron phosphide (Fe<sub>2</sub>P)",
    "images": [],
    "inchi": "",
    "inchiKey": "",
    "smile": "",
    "canonicalSmile": "",
    "molecularFormula": "Fe<sub>2</sub>P",
    "molecularMass": "",
    "experimentalProperties": [
        {
            "name": "Melting Point",
            "property": "1420 °C",
            "sourceNumber": 1
        },
        {
            "name": "Density",
            "property": "5.7 g/cm³",
            "sourceNumber": 1
        }
    ],
    "propertyCitations": [
        {
            "docUri": "",
            "sourceNumber": 1,
            "source": "Hazardous Substances Data Bank data were obtained from the National Library of Medicine (US)"
        }
    ],
    "synonyms": [
        "Iron phosphide (Fe<sub>2</sub>P)",
        "Ferrous phosphide",
        "Diiron phosphide",
        "Diiron monophosphide",
        "Ferrophos (pigment)",
        "Ferrophos",
        "Ferrophos HRS 3095",
        "Ferrophos HRS 3212",
        "Ferrophos 31"
    ],
    "replacedRns": [
        "168679-12-7",
        "1392109-42-0"
    ],
    "hasMolfile": false,
    "source": "https://commonchemistry.cas.org/detail?cas_rn=1310-43-6"
}