{
    "cas_no": "3250-74-6",
    "key_name": "3-(2<em>H</em>-Tetrazol-5-yl)pyridine",
    "cn_name": null,
    "alternate_name": "Pyridine, 3-(2<em>H</em>-tetrazol-5-yl)-;Pyridine, 3-(1<em>H</em>-tetrazol-5-yl)-;Pyridine, 3-(tetrazol-5-yl)-;3-(2<em>H</em>-Tetrazol-5-yl)pyridine;5-(3-Pyridyl)tetrazole;5-β-Pyridyltetrazole;Lu 31-102;5-(3-Pyridyl)-1<em>H</em>-tetrazole;3-(1<em>H</em>-Tetrazol-5-yl)pyridine;5-(3-Pyridinyl)-1<em>H</em>-tetrazole;5-(Pyridin-3-yl)tetrazole;5-(3′-Pyridinyl)-1<em>H</em>-tetrazole",
    "duplicated_cas_no": "208264-85-1",
    "SMILES": "C=1(NN=NN1)C=2C=CC=NC2",
    "meta_data": {
        "InChI": "InChI=1S/C6H5N5/c1-2-5(4-7-3-1)6-8-10-11-9-6/h1-4H,(H,8,9,10,11)",
        "InChIKey": null,
        "Canonical SMILES": "N1=NNC(=N1)C=2C=NC=CC2",
        "Molecular Formula": "C<sub>6</sub>H<sub>5</sub>N<sub>5</sub>",
        "Molecular Mass": "147.14",
        "Melting Point": "234-235 °C (decomp)"
    }
}