{
    "cas_no": "706-78-5",
    "key_name": "Octachlorocyclopentene",
    "cn_name": null,
    "alternate_name": "Cyclopentene, 1,2,3,3,4,4,5,5-octachloro-;Cyclopentene, octachloro-;1,2,3,3,4,4,5,5-Octachlorocyclopentene;Octachlorocyclopentene;Perchlorocyclopentene;NSC 4736",
    "duplicated_cas_no": "",
    "SMILES": "ClC1(Cl)C(Cl)(Cl)C(Cl)=C(Cl)C1(Cl)Cl",
    "meta_data": {
        "InChI": "InChI=1S/C5Cl8/c6-1-2(7)4(10,11)5(12,13)3(1,8)9",
        "InChIKey": null,
        "Canonical SMILES": "ClC1=C(Cl)C(Cl)(Cl)C(Cl)(Cl)C1(Cl)Cl",
        "Molecular Formula": "C<sub>5</sub>Cl<sub>8</sub>",
        "Molecular Mass": "343.68",
        "Boiling Point": "283 °C",
        "Melting Point": "40 °C",
        "Density": "1.822 g/cm³ @ Temp: 41 °C"
    }
}