{
    "cas_no": "24589-99-9",
    "key_name": "Benzoic acid, 3-formyl-4-hydroxy-, methyl ester",
    "cn_name": null,
    "alternate_name": "Benzoic acid, 3-formyl-4-hydroxy-, methyl ester;Isophthalaldehydic acid, 4-hydroxy-, methyl ester;5-Carbomethoxysalicylaldehyde;Methyl 3-formyl-4-hydroxybenzoate;5-(Methoxycarbonyl)salicylaldehyde;3-Formyl-4-hydroxybenzoic acid methyl ester;Methyl-3-formyl-4-hydroxybenzoic acid",
    "duplicated_cas_no": "2941004-88-0",
    "SMILES": "C(OC)(=O)C1=CC(C=O)=C(O)C=C1",
    "meta_data": {
        "InChI": "InChI=1S/C9H8O4/c1-13-9(12)6-2-3-8(11)7(4-6)5-10/h2-5,11H,1H3",
        "InChIKey": null,
        "Canonical SMILES": "O=CC1=CC(=CC=C1O)C(=O)OC",
        "Molecular Formula": "C<sub>9</sub>H<sub>8</sub>O<sub>4</sub>",
        "Molecular Mass": "180.16",
        "Melting Point": "78-80 °C"
    }
}