{
    "cas_no": "126162-96-7",
    "key_name": "4-Ethoxy-2,3-difluorobenzonitrile",
    "cn_name": "2,3-二氟-4-氰基苯乙醚;",
    "alternate_name": "Benzonitrile, 4-ethoxy-2,3-difluoro-;4-Ethoxy-2,3-difluorobenzonitrile",
    "duplicated_cas_no": "",
    "SMILES": "O(CC)C1=C(F)C(F)=C(C#N)C=C1",
    "meta_data": {
        "InChI": "InChI=1S/C9H7F2NO/c1-2-13-7-4-3-6(5-12)8(10)9(7)11/h3-4H,2H2,1H3",
        "InChIKey": null,
        "Canonical SMILES": "N#CC1=CC=C(OCC)C(F)=C1F",
        "Molecular Formula": "C<sub>9</sub>H<sub>7</sub>F<sub>2</sub>NO",
        "Molecular Mass": "183.15",
        "Melting Point": "45 °C"
    }
}