{
    "cas_no": "111652-20-1",
    "key_name": "<em>N</em>-[(1,1-Dimethylethoxy)carbonyl]glycine 1,1-dimethylethyl ester",
    "cn_name": "Boc-甘氨酸叔-丁基酯;",
    "alternate_name": "Glycine, <em>N</em>-[(1,1-dimethylethoxy)carbonyl]-, 1,1-dimethylethyl ester;<em>N</em>-[(1,1-Dimethylethoxy)carbonyl]glycine 1,1-dimethylethyl ester;<em>N</em>-(<em>tert</em>-Butoxycarbonyl)glycine <em>tert</em>-butyl ester;(<em>tert</em>-Butoxycarbonylamino)acetic acid tert-butyl ester;<em>N</em>-(<em>tert</em>-Butoxycarbonyl)glycine tert-butyl ester;<em>tert</em>-Butyl <em>N</em>-(<em>tert</em>-Butoxycarbonyl)glycinate",
    "duplicated_cas_no": "",
    "SMILES": "O(C(C)(C)C)C(CNC(OC(C)(C)C)=O)=O",
    "meta_data": {
        "InChI": "InChI=1S/C11H21NO4/c1-10(2,3)15-8(13)7-12-9(14)16-11(4,5)6/h7H2,1-6H3,(H,12,14)",
        "InChIKey": null,
        "Canonical SMILES": "O=C(OC(C)(C)C)NCC(=O)OC(C)(C)C",
        "Molecular Formula": "C<sub>11</sub>H<sub>21</sub>NO<sub>4</sub>",
        "Molecular Mass": "231.29",
        "Melting Point": "64 °C"
    }
}