{
    "cas_no": "22031-64-7",
    "key_name": "<em>trans</em>-Cinnamamide",
    "cn_name": null,
    "alternate_name": "2-Propenamide, 3-phenyl-, (2<em>E</em>)-;Cinnamamide, (<em>E</em>)-;2-Propenamide, 3-phenyl-, (<em>E</em>)-;(2<em>E</em>)-3-Phenyl-2-propenamide;<em>trans</em>-Cinnamamide;<em>trans</em>-Cinnamic acid amide;<em>trans</em>-Cinnamoylamine;<em>trans</em>-β-(Aminocarbonyl)styrene;U 2422;(<em>E</em>)-Cinnamamide;<em>trans</em>-3-Phenyl-2-propenamide;(E)-3-Phenyl-2-propenamide;(E)-Cinnamamide",
    "duplicated_cas_no": "1337924-34-1",
    "SMILES": "C(=C/C(N)=O)\\C1=CC=CC=C1",
    "meta_data": {
        "InChI": "InChI=1S/C9H9NO/c10-9(11)7-6-8-4-2-1-3-5-8/h1-7H,(H2,10,11)/b7-6+",
        "InChIKey": null,
        "Canonical SMILES": "O=C(N)C=CC=1C=CC=CC1",
        "Molecular Formula": "C<sub>9</sub>H<sub>9</sub>NO",
        "Molecular Mass": "147.17",
        "Melting Point": "148 °C"
    }
}