{
    "cas_no": "18479-51-1",
    "key_name": "Dihydrolinalool",
    "cn_name": "3,7-二甲基-6-辛烯-3-醇;",
    "alternate_name": "6-Octen-3-ol, 3,7-dimethyl-;3,7-Dimethyl-6-octen-3-ol;3,7-Dimethyl-6-octene-3-ol;2,6-Dimethyl-2-octen-6-ol;Dihydrolinalool;1,2-Dihydrolinalool;(±)-Dihydrolinalool",
    "duplicated_cas_no": "2270-57-7;94006-45-8",
    "SMILES": "C(CCC=C(C)C)(CC)(C)O",
    "meta_data": {
        "InChI": "InChI=1S/C10H20O/c1-5-10(4,11)8-6-7-9(2)3/h7,11H,5-6,8H2,1-4H3",
        "InChIKey": null,
        "Canonical SMILES": "OC(C)(CC)CCC=C(C)C",
        "Molecular Formula": "C<sub>10</sub>H<sub>20</sub>O",
        "Molecular Mass": "156.27",
        "Boiling Point": "87 °C @ Press: 12 Torr",
        "Density": "0.8573 g/cm³ @ Temp: 25 °C"
    }
}