{
    "cas_no": "39549-31-0",
    "key_name": "Phenol, 6-amino-2,4-dichloro-3-methyl-, hydrochloride (1:1)",
    "cn_name": "6-氨基-2,4-二氯-3-甲基苯酚盐酸盐;",
    "alternate_name": "Phenol, 6-amino-2,4-dichloro-3-methyl-, hydrochloride (1:1);Phenol, 6-amino-2,4-dichloro-3-methyl-, hydrochloride;<em>m</em>-Cresol, 6-amino-2,4-dichloro-, hydrochloride;2-Amino-4,6-dichloro-5-methylphenol hydrochloride;3,5-Dichloro-6-hydroxy-4-methylaniline hydrochloride;PC 87;6-Amino-2,4-dichloro-3-methylphenol hydrochloride",
    "duplicated_cas_no": "",
    "SMILES": "CC1=C(Cl)C(O)=C(N)C=C1Cl.Cl",
    "meta_data": {
        "InChI": "InChI=1S/C7H7Cl2NO.ClH/c1-3-4(8)2-5(10)7(11)6(3)9;/h2,11H,10H2,1H3;1H",
        "InChIKey": null,
        "Canonical SMILES": "Cl.ClC=1C=C(N)C(O)=C(Cl)C1C",
        "Molecular Formula": "C<sub>7</sub>H<sub>7</sub>Cl<sub>2</sub>NO.ClH",
        "Molecular Mass": "",
        "Melting Point": "&gt;230 °C"
    }
}