{
    "cas_no": "7204-48-0",
    "key_name": "<em>N</em>-(1,1-Dimethylethyl)thiourea",
    "cn_name": "叔丁基硫脲;叔丁基硫脲;",
    "alternate_name": "Thiourea, <em>N</em>-(1,1-dimethylethyl)-;Urea, 1-<em>tert</em>-butyl-2-thio-;Thiourea, (1,1-dimethylethyl)-;<em>N</em>-(1,1-Dimethylethyl)thiourea;1-<em>tert</em>-Butylthiourea;1-<em>tert</em>-Butyl-2-thiourea;<em>N</em>-<em>tert</em>-Butylthiourea;<em>tert</em>-Butylthiourea",
    "duplicated_cas_no": "",
    "SMILES": "N(C(C)(C)C)C(N)=S",
    "meta_data": {
        "InChI": "InChI=1S/C5H12N2S/c1-5(2,3)7-4(6)8/h1-3H3,(H3,6,7,8)",
        "InChIKey": null,
        "Canonical SMILES": "S=C(N)NC(C)(C)C",
        "Molecular Formula": "C<sub>5</sub>H<sub>12</sub>N<sub>2</sub>S",
        "Molecular Mass": "132.23",
        "Melting Point": "171-172 °C (decomp)"
    }
}