{
    "cas_no": "2731-06-8",
    "key_name": "2-Methyltryptamine",
    "cn_name": "2-甲基吲哚-3-乙胺;",
    "alternate_name": "1<em>H</em>-Indole-3-ethanamine, 2-methyl-;Indole, 3-(2-aminoethyl)-2-methyl-;2-Methyl-1<em>H</em>-indole-3-ethanamine;2-Methyltryptamine;2-(2-Methyl-1<em>H</em>-indol-3-yl)ethanamine;2-(2-Methyl-1<em>H</em>-indol-3-yl)ethan-1-amine;2-Methylindole-3-ethylamine",
    "duplicated_cas_no": "",
    "SMILES": "C(CN)C=1C=2C(NC1C)=CC=CC2",
    "meta_data": {
        "InChI": "InChI=1S/C11H14N2/c1-8-9(6-7-12)10-4-2-3-5-11(10)13-8/h2-5,13H,6-7,12H2,1H3",
        "InChIKey": null,
        "Canonical SMILES": "NCCC=1C=2C=CC=CC2NC1C",
        "Molecular Formula": "C<sub>11</sub>H<sub>14</sub>N<sub>2</sub>",
        "Molecular Mass": "174.24",
        "Boiling Point": "196-200 °C",
        "Melting Point": "87 °C"
    }
}