{
    "cas_no": "2224-02-4",
    "key_name": "1,2-Dithiolane-4-carboxylic acid",
    "cn_name": null,
    "alternate_name": "1,2-Dithiolane-4-carboxylic acid;Ph 800/21;1,2-Dithiacyclopentane-4-carboxylic acid;Asparagusic acid",
    "duplicated_cas_no": "",
    "SMILES": "C(O)(=O)C1CSSC1",
    "meta_data": {
        "InChI": "InChI=1S/C4H6O2S2/c5-4(6)3-1-7-8-2-3/h3H,1-2H2,(H,5,6)",
        "InChIKey": null,
        "Canonical SMILES": "O=C(O)C1CSSC1",
        "Molecular Formula": "C<sub>4</sub>H<sub>6</sub>O<sub>2</sub>S<sub>2</sub>",
        "Molecular Mass": "150.22",
        "Melting Point": "76.5-77.5 °C"
    }
}