{
    "cas_no": "486-28-2",
    "key_name": "Fraxinol",
    "cn_name": null,
    "alternate_name": "2<em>H</em>-1-Benzopyran-2-one, 6-hydroxy-5,7-dimethoxy-;Coumarin, 6-hydroxy-5,7-dimethoxy-;Fraxinol;6-Hydroxy-5,7-dimethoxy-2<em>H</em>-1-benzopyran-2-one;5,7-Dimethoxy-6-hydroxycoumarin;6-Hydroxy-5,7-dimethoxycoumarin",
    "duplicated_cas_no": "",
    "SMILES": "O(C)C1=C2C(=CC(OC)=C1O)OC(=O)C=C2",
    "meta_data": {
        "InChI": "InChI=1S/C11H10O5/c1-14-8-5-7-6(3-4-9(12)16-7)11(15-2)10(8)13/h3-5,13H,1-2H3",
        "InChIKey": null,
        "Canonical SMILES": "O=C1OC2=CC(OC)=C(O)C(OC)=C2C=C1",
        "Molecular Formula": "C<sub>11</sub>H<sub>10</sub>O<sub>5</sub>",
        "Molecular Mass": "222.19",
        "Melting Point": "171-172 °C"
    }
}