{
    "cas_no": "3055-93-4",
    "key_name": "Diethylene glycol monododecyl ether",
    "cn_name": "十二烷基二乙二醇醚;二甘醇单十二烷基醚;二乙二醇单十二醚;月桂醇聚醚-2;",
    "alternate_name": "Ethanol, 2-[2-(dodecyloxy)ethoxy]-;2-[2-(Dodecyloxy)ethoxy]ethanol;Diethylene glycol monododecyl ether;LA 2;LA 2 (alcohol);Diethylene glycol dodecyl ether;Diethyleneglycol monolauryl ether;Diethyleneglycol lauryl ether;Dodecyl diethylene glycol;C<sub>12</sub>EO<sub>2</sub>;Bis(oxyethylene) dodecyl ether;Simulsol P 2;Nikkol BL 2SY;Diethylene glycol monoether with Conol 20P;LAE 2;2-(2-Dodecoxyethoxy)ethanol",
    "duplicated_cas_no": "647835-80-1",
    "SMILES": "C(CCCCCCCCC)CCOCCOCCO",
    "meta_data": {
        "InChI": "InChI=1S/C16H34O3/c1-2-3-4-5-6-7-8-9-10-11-13-18-15-16-19-14-12-17/h17H,2-16H2,1H3",
        "InChIKey": null,
        "Canonical SMILES": "OCCOCCOCCCCCCCCCCCC",
        "Molecular Formula": "C<sub>16</sub>H<sub>34</sub>O<sub>3</sub>",
        "Molecular Mass": "274.44",
        "Boiling Point": "127 °C @ Press: 0.01 Torr",
        "Melting Point": "15.5-16.3 °C",
        "Density": "0.927 g/cm³ @ Temp: 40 °C"
    }
}