{
    "cas_no": "1193-55-1",
    "key_name": "2-Methyl-1,3-cyclohexanedione",
    "cn_name": "2-甲基-1,3-环己二酮;",
    "alternate_name": "1,3-Cyclohexanedione, 2-methyl-;2-Methyl-1,3-cyclohexanedione;1-Methyl-2,6-cyclohexanedione;NSC 54460;2-Methyl-1,3-cyclohexandione",
    "duplicated_cas_no": "153563-95-2",
    "SMILES": "CC1C(=O)CCCC1=O",
    "meta_data": {
        "InChI": "InChI=1S/C7H10O2/c1-5-6(8)3-2-4-7(5)9/h5H,2-4H2,1H3",
        "InChIKey": null,
        "Canonical SMILES": "O=C1CCCC(=O)C1C",
        "Molecular Formula": "C<sub>7</sub>H<sub>10</sub>O<sub>2</sub>",
        "Molecular Mass": "126.15",
        "Melting Point": "205-207 °C"
    }
}