{
    "cas_no": "2142-67-8",
    "key_name": "1-(2-Ethoxyphenyl)ethanone",
    "cn_name": null,
    "alternate_name": "Ethanone, 1-(2-ethoxyphenyl)-;Acetophenone, 2′-ethoxy-;1-(2-Ethoxyphenyl)ethanone;2′-Ethoxyacetophenone;<em>o</em>-Ethoxyacetophenone;1-(2-Ethoxyphenyl)ethan-1-one",
    "duplicated_cas_no": "",
    "SMILES": "C(C)(=O)C1=C(OCC)C=CC=C1",
    "meta_data": {
        "InChI": "InChI=1S/C10H12O2/c1-3-12-10-7-5-4-6-9(10)8(2)11/h4-7H,3H2,1-2H3",
        "InChIKey": null,
        "Canonical SMILES": "O=C(C=1C=CC=CC1OCC)C",
        "Molecular Formula": "C<sub>10</sub>H<sub>12</sub>O<sub>2</sub>",
        "Molecular Mass": "164.20",
        "Melting Point": "36-40 °C"
    }
}