{
    "cas_no": "998-30-1",
    "key_name": "Triethoxysilane",
    "cn_name": "三乙氧基硅烷;TES;",
    "alternate_name": "Silane, triethoxy-;Triethoxysilane;TRIES;NSC 124134;SIT 8185;KBE 03;SIT 8185.0;T 1040",
    "duplicated_cas_no": "",
    "SMILES": "[SiH](OCC)(OCC)OCC",
    "meta_data": {
        "InChI": "InChI=1S/C6H16O3Si/c1-4-7-10(8-5-2)9-6-3/h10H,4-6H2,1-3H3",
        "InChIKey": null,
        "Canonical SMILES": "O(CC)[SiH](OCC)OCC",
        "Molecular Formula": "C<sub>6</sub>H<sub>16</sub>O<sub>3</sub>Si",
        "Molecular Mass": "164.27",
        "Boiling Point": "132.5 °C",
        "Melting Point": "-170 °C",
        "Density": "0.8745 g/cm³ @ Temp: 20 °C"
    }
}