{
    "cas_no": "2314-37-6",
    "key_name": "3-Iodo-4-methoxybenzaldehyde",
    "cn_name": null,
    "alternate_name": "Benzaldehyde, 3-iodo-4-methoxy-;<em>p</em>-Anisaldehyde, 3-iodo-;3-Iodo-4-methoxybenzaldehyde",
    "duplicated_cas_no": "",
    "SMILES": "C(=O)C1=CC(I)=C(OC)C=C1",
    "meta_data": {
        "InChI": "InChI=1S/C8H7IO2/c1-11-8-3-2-6(5-10)4-7(8)9/h2-5H,1H3",
        "InChIKey": null,
        "Canonical SMILES": "O=CC1=CC=C(OC)C(I)=C1",
        "Molecular Formula": "C<sub>8</sub>H<sub>7</sub>IO<sub>2</sub>",
        "Molecular Mass": "262.04",
        "Melting Point": "104-106 °C"
    }
}