{
    "cas_no": "97886-45-8",
    "key_name": "Dithiopyr",
    "cn_name": "氟硫草定;氟氯草定;S,S′-二甲基-2-二氟甲基-4-异丁基-6-三氟甲基吡啶-3,5-二硫代甲酸酯;氟硫草定;2-二氟甲;",
    "alternate_name": "3,5-Pyridinedicarbothioic acid, 2-(difluoromethyl)-4-(2-methylpropyl)-6-(trifluoromethyl)-, <em>S</em><sup>3</sup>,<em>S</em><sup>5</sup>-dimethyl ester;3,5-Pyridinedicarbothioic acid, 2-(difluoromethyl)-4-(2-methylpropyl)-6-(trifluoromethyl)-, <em>S</em>,<em>S</em>-dimethyl ester;MON 7200;MON 15100;Dithiopyr;MON 15151;Dimension;Stakeout;Dimension (herbicide);Dimension 2EW",
    "duplicated_cas_no": "",
    "SMILES": "C(C(C)C)C=1C(C(SC)=O)=C(C(F)(F)F)N=C(C(F)F)C1C(SC)=O",
    "meta_data": {
        "InChI": "InChI=1S/C15H16F5NO2S2/c1-6(2)5-7-8(13(22)24-3)10(12(16)17)21-11(15(18,19)20)9(7)14(23)25-4/h6,12H,5H2,1-4H3",
        "InChIKey": null,
        "Canonical SMILES": "O=C(SC)C1=C(N=C(C(C(=O)SC)=C1CC(C)C)C(F)(F)F)C(F)F",
        "Molecular Formula": "C<sub>15</sub>H<sub>16</sub>F<sub>5</sub>NO<sub>2</sub>S<sub>2</sub>",
        "Molecular Mass": "401.42",
        "Melting Point": "65 °C"
    }
}