{
    "cas_no": "104-20-1",
    "key_name": "4-(4-Methoxyphenyl)-2-butanone",
    "cn_name": "4-(4-甲氧苯基)-2-丁酮;茴香基丙酮;大茴香基丙酮;",
    "alternate_name": "2-Butanone, 4-(4-methoxyphenyl)-;2-Butanone, 4-(<em>p</em>-methoxyphenyl)-;4-(4-Methoxyphenyl)-2-butanone;ENT 20279;1-(<em>p</em>-Methoxyphenyl)-3-butanone;4-(<em>p</em>-Methoxyphenyl)-2-butanone;<em>p</em>-Anisylacetone;1-(4-Methoxyphenyl)-3-butanone;Raspberry ketone methyl ether;4-Methoxybenzylacetone;NSC 405366;Anisylacetone;4-[4-(Methyloxy)phenyl]-2-butanone;4-(4′-Methoxyphenyl)-2-butanone;Frambinone methyl ether",
    "duplicated_cas_no": "",
    "SMILES": "C(CC(C)=O)C1=CC=C(OC)C=C1",
    "meta_data": {
        "InChI": "InChI=1S/C11H14O2/c1-9(12)3-4-10-5-7-11(13-2)8-6-10/h5-8H,3-4H2,1-2H3",
        "InChIKey": null,
        "Canonical SMILES": "O=C(C)CCC1=CC=C(OC)C=C1",
        "Molecular Formula": "C<sub>11</sub>H<sub>14</sub>O<sub>2</sub>",
        "Molecular Mass": "178.23",
        "Boiling Point": "177 °C @ Press: 25 Torr",
        "Melting Point": "9 °C",
        "Density": "1.0457 g/cm³ @ Temp: 20 °C"
    }
}