{
    "cas_no": "592-82-5",
    "key_name": "Butyl isothiocyanate",
    "cn_name": "1-异硫代氰酸丁酯;",
    "alternate_name": "Butane, 1-isothiocyanato-;Isothiocyanic acid, butyl ester;1-Isothiocyanatobutane;Butyl isothiocyanate;Butyl mustard oil;<em>n</em>-Butyl isothiocyanate;NSC 194808",
    "duplicated_cas_no": "",
    "SMILES": "C(CCC)N=C=S",
    "meta_data": {
        "InChI": "InChI=1S/C5H9NS/c1-2-3-4-6-5-7/h2-4H2,1H3",
        "InChIKey": null,
        "Canonical SMILES": "S=C=NCCCC",
        "Molecular Formula": "C<sub>5</sub>H<sub>9</sub>NS",
        "Molecular Mass": "115.20",
        "Boiling Point": "168 °C",
        "Melting Point": "115 °C",
        "Density": "0.9546 g/cm³ @ Temp: 20 °C"
    }
}