{
    "cas_no": "61478-29-3",
    "key_name": "(2<em>S</em>,4<em>S</em>)-4-(Diphenylphosphino)-2-[(diphenylphosphino)methyl]pyrrolidine",
    "cn_name": null,
    "alternate_name": "Pyrrolidine, 4-(diphenylphosphino)-2-[(diphenylphosphino)methyl]-, (2<em>S</em>,4<em>S</em>)-;Pyrrolidine, 4-(diphenylphosphino)-2-[(diphenylphosphino)methyl]-, (2<em>S</em>-<em>cis</em>)-;(2<em>S</em>,4<em>S</em>)-4-(Diphenylphosphino)-2-[(diphenylphosphino)methyl]pyrrolidine;(2<em>S</em>,4<em>S</em>)-PPM;(2<em>S</em>,4<em>S</em>)-(-)-4-(Diphenylphosphino)-2-[(diphenylphosphino)methyl]pyrrolidine",
    "duplicated_cas_no": "",
    "SMILES": "[P@]([C@H]1C[C@@H](CP(C2=CC=CC=C2)C3=CC=CC=C3)NC1)(C4=CC=CC=C4)C5=CC=CC=C5",
    "meta_data": {
        "InChI": "InChI=1S/C29H29NP2/c1-5-13-25(14-6-1)31(26-15-7-2-8-16-26)23-24-21-29(22-30-24)32(27-17-9-3-10-18-27)28-19-11-4-12-20-28/h1-20,24,29-30H,21-23H2/t24-,29-/m0/s1",
        "InChIKey": null,
        "Canonical SMILES": "C=1C=CC(=CC1)P(C=2C=CC=CC2)CC3NCC(P(C=4C=CC=CC4)C=5C=CC=CC5)C3",
        "Molecular Formula": "C<sub>29</sub>H<sub>29</sub>NP<sub>2</sub>",
        "Molecular Mass": "453.49",
        "Melting Point": "103-104 °C"
    }
}