{
    "cas_no": "912758-00-0",
    "key_name": "<em>S</em>-Diclofenac",
    "cn_name": null,
    "alternate_name": "Benzeneacetic acid, 2-[(2,6-dichlorophenyl)amino]-, 4-(3-thioxo-3<em>H</em>-1,2-dithiol-5-yl)phenyl ester;<em>S</em>-Diclofenac;ACS 15;ATB 337",
    "duplicated_cas_no": "",
    "SMILES": "N(C1=C(CC(OC2=CC=C(C=C2)C=3SSC(=S)C3)=O)C=CC=C1)C4=C(Cl)C=CC=C4Cl",
    "meta_data": {
        "InChI": "InChI=1S/C23H15Cl2NO2S3/c24-17-5-3-6-18(25)23(17)26-19-7-2-1-4-15(19)12-21(27)28-16-10-8-14(9-11-16)20-13-22(29)31-30-20/h1-11,13,26H,12H2",
        "InChIKey": null,
        "Canonical SMILES": "O=C(OC=1C=CC(=CC1)C=2SSC(=S)C2)CC=3C=CC=CC3NC=4C(Cl)=CC=CC4Cl",
        "Molecular Formula": "C<sub>23</sub>H<sub>15</sub>Cl<sub>2</sub>NO<sub>2</sub>S<sub>3</sub>",
        "Molecular Mass": "504.47",
        "Melting Point": "151-153 °C"
    }
}