{
    "cas_no": "293754-55-9",
    "key_name": "<em>N</em>-(2,2,2-Trifluoroethyl)-<em>N</em>-[4-[2,2,2-trifluoro-1-hydroxy-1-(trifluoromethyl)ethyl]phenyl]-benzenesulfonamide",
    "cn_name": null,
    "alternate_name": "Benzenesulfonamide, <em>N</em>-(2,2,2-trifluoroethyl)-<em>N</em>-[4-[2,2,2-trifluoro-1-hydroxy-1-(trifluoromethyl)ethyl]phenyl]-;<em>N</em>-(2,2,2-Trifluoroethyl)-<em>N</em>-[4-[2,2,2-trifluoro-1-hydroxy-1-(trifluoromethyl)ethyl]phenyl]benzenesulfonamide;TO 901317;TO 90317;T 1317;<em>N</em>-(2,2,2-Trifluoroethyl)-N-[4-[2,2,2-trifluoro-1-hydroxy-1-(trifluoromethyl)ethyl]phenyl]benzenesulfonamide;<em>N</em>-(2,2,2-Trifluoroethyl)-<em>N</em>-[4-[2,2,2-trifluoro-1-hydroxy-1-(trifluoromethyl)ethyl]phenyl]-benzenesulfonamide;TO 091317;T 0901317;<em>N</em>-(4-(1,1,1,3,3,3-Hexafluoro-2-hydroxypropan-2-yl)phenyl)-<em>N</em>-(2,2,2-trifluoroethyl)benzenesulfonamide",
    "duplicated_cas_no": "577786-25-5",
    "SMILES": "C(C(F)(F)F)(C(F)(F)F)(O)C1=CC=C(N(S(=O)(=O)C2=CC=CC=C2)CC(F)(F)F)C=C1",
    "meta_data": {
        "InChI": "InChI=1S/C17H12F9NO3S/c18-14(19,20)10-27(31(29,30)13-4-2-1-3-5-13)12-8-6-11(7-9-12)15(28,16(21,22)23)17(24,25)26/h1-9,28H,10H2",
        "InChIKey": null,
        "Canonical SMILES": "O=S(=O)(C=1C=CC=CC1)N(C2=CC=C(C=C2)C(O)(C(F)(F)F)C(F)(F)F)CC(F)(F)F",
        "Molecular Formula": "C<sub>17</sub>H<sub>12</sub>F<sub>9</sub>NO<sub>3</sub>S",
        "Molecular Mass": "481.33",
        "Melting Point": "115-118 °C"
    }
}