{
    "cas_no": "698-10-2",
    "key_name": "5-Ethyl-3-hydroxy-4-methyl-2(5<em>H</em>)-furanone",
    "cn_name": "乙基葫芦巴内酯;3-羟基-4-甲基-5-乙基-2(5H)呋喃酮;",
    "alternate_name": "2(5<em>H</em>)-Furanone, 5-ethyl-3-hydroxy-4-methyl-;2-Hexenoic acid, 2,4-dihydroxy-3-methyl-, γ-lactone;5-Ethyl-3-hydroxy-4-methyl-2(5<em>H</em>)-furanone;α-Hydroxy-β-methyl-Δ<sup>α,β</sup>-γ-hexenolactone;Abhexone;α-Hydroxy-β-methyl-γ-hexenolactone;Homosotolone;3-Hydroxy-4-methyl-5-ethyl-2(5<em>H</em>)-furanone;Abhexon;2-Ethyl-4-hydroxy-3-methyl-2<em>H</em>-furan-5-one;Maple furanone",
    "duplicated_cas_no": "144810-13-9",
    "SMILES": "C(C)C1C(C)=C(O)C(=O)O1",
    "meta_data": {
        "InChI": "InChI=1S/C7H10O3/c1-3-5-4(2)6(8)7(9)10-5/h5,8H,3H2,1-2H3",
        "InChIKey": null,
        "Canonical SMILES": "O=C1OC(C(=C1O)C)CC",
        "Molecular Formula": "C<sub>7</sub>H<sub>10</sub>O<sub>3</sub>",
        "Molecular Mass": "142.15",
        "Boiling Point": "135-137 °C @ Press: 4 Torr",
        "Melting Point": "31-33 °C"
    }
}