{
    "cas_no": "24512-63-8",
    "key_name": "Geniposide",
    "cn_name": "京尼平甙;栀子甙;栀子苷;",
    "alternate_name": "Cyclopenta[<em>c</em>]pyran-4-carboxylic acid, 1-(β-<span class=\"text-smallcaps\">D</span>-glucopyranosyloxy)-1,4a,5,7a-tetrahydro-7-(hydroxymethyl)-, methyl ester, (1<em>S</em>,4a<em>S</em>,7a<em>S</em>)-;Geniposide;Cyclopenta[<em>c</em>]pyran-4-carboxylic acid, 1-(β-<span class=\"text-smallcaps\">D</span>-glucopyranosyloxy)-1,4a,5,7a-tetrahydro-7-(hydroxymethyl)-, methyl ester, [1<em>S</em>-(1α,4aα,7aα)]-;Methyl (1S,4aS,7aS)-1-(β-<span class=\"text-smallcaps\">D</span>-glucopyranoside)-7-hydroxymethyl-1,4a,5,7a-tetrahydrocydopenta[<em>c</em>]pyran-4-carboxylate",
    "duplicated_cas_no": "27745-20-6",
    "SMILES": "O([C@H]1[C@]2([C@@](C(C(OC)=O)=CO1)(CC=C2CO)[H])[H])[C@@H]3O[C@H](CO)[C@@H](O)[C@H](O)[C@H]3O",
    "meta_data": {
        "InChI": "InChI=1S/C17H24O10/c1-24-15(23)9-6-25-16(11-7(4-18)2-3-8(9)11)27-17-14(22)13(21)12(20)10(5-19)26-17/h2,6,8,10-14,16-22H,3-5H2,1H3/t8-,10-,11-,12-,13+,14-,16+,17+/m1/s1",
        "InChIKey": null,
        "Canonical SMILES": "O=C(OC)C1=COC(OC2OC(CO)C(O)C(O)C2O)C3C(=CCC13)CO",
        "Molecular Formula": "C<sub>17</sub>H<sub>24</sub>O<sub>10</sub>",
        "Molecular Mass": "388.37",
        "Melting Point": "163-164 °C"
    }
}