{
    "cas_no": "4163-60-4",
    "key_name": "β-<span class=\"text-smallcaps\">D</span>-Galactose pentaacetate",
    "cn_name": "beta-D-半乳糖五乙酸酯;",
    "alternate_name": "β-<span class=\"text-smallcaps\">D</span>-Galactopyranose, 1,2,3,4,6-pentaacetate;Galactopyranose, pentaacetate, β-<span class=\"text-smallcaps\">D</span>-;β-<span class=\"text-smallcaps\">D</span>-Galactopyranose, pentaacetate;1,2,3,4,6-Penta-<em>O</em>-acetyl-β-<span class=\"text-smallcaps\">D</span>-galactopyranose;Penta-<em>O</em>-acetyl-β-<span class=\"text-smallcaps\">D</span>-galactopyranose;Pentaacetyl-β-<span class=\"text-smallcaps\">D</span>-galactose;1,2,3,4,6-Penta-<em>O</em>-acetyl-β-<span class=\"text-smallcaps\">D</span>-galactose;β-Pentaacetylgalactose;β-<span class=\"text-smallcaps\">D</span>-Galactose pentaacetate;1,2,3,4,6-Penta-<em>O</em>-acetyl-β-<span class=\"text-smallcaps\">D</span>-galactopyranoside;NSC 119334;NSC 1353;2,3,4,6-Tetra-<em>O</em>-acetyl-β-<span class=\"text-smallcaps\">D</span>-galactopyranosyl acetate;Tetra-<em>O</em>-acetyl-β-<span class=\"text-smallcaps\">D</span>-galactopyranosyl acetate;β-<span class=\"text-smallcaps\">D</span>-Galactopyranose peracetate;β-<span class=\"text-smallcaps\">D</span>-Galactopyranoside pentaacetate;1,2,3,4,6-Penta-<em>O</em>-acetyl-<span class=\"text-smallcaps\">D</span>-galactose;<em>O</em>-Pentaacetyl β-<span class=\"text-smallcaps\">D</span>-galactopyranoside;β-<span class=\"text-smallcaps\">D</span>-Galactopyranoside peracetate",
    "duplicated_cas_no": "36116-83-3",
    "SMILES": "O(C(C)=O)[C@H]1[C@@H](OC(C)=O)[C@@H](COC(C)=O)O[C@@H](OC(C)=O)[C@@H]1OC(C)=O",
    "meta_data": {
        "InChI": "InChI=1S/C16H22O11/c1-7(17)22-6-12-13(23-8(2)18)14(24-9(3)19)15(25-10(4)20)16(27-12)26-11(5)21/h12-16H,6H2,1-5H3/t12-,13+,14+,15-,16-/m1/s1",
        "InChIKey": null,
        "Canonical SMILES": "O=C(OCC1OC(OC(=O)C)C(OC(=O)C)C(OC(=O)C)C1OC(=O)C)C",
        "Molecular Formula": "C<sub>16</sub>H<sub>22</sub>O<sub>11</sub>",
        "Molecular Mass": "390.34",
        "Melting Point": "141-142 °C"
    }
}