{
    "cas_no": "374-41-4",
    "key_name": "3,3,4,4,4-Pentafluoro-2-butanone",
    "cn_name": null,
    "alternate_name": "2-Butanone, 3,3,4,4,4-pentafluoro-;3,3,4,4,4-Pentafluoro-2-butanone;Pentafluoroethyl methyl ketone;NSC 42726",
    "duplicated_cas_no": "",
    "SMILES": "C(C(F)(F)F)(C(C)=O)(F)F",
    "meta_data": {
        "InChI": "InChI=1S/C4H3F5O/c1-2(10)3(5,6)4(7,8)9/h1H3",
        "InChIKey": null,
        "Canonical SMILES": "O=C(C)C(F)(F)C(F)(F)F",
        "Molecular Formula": "C<sub>4</sub>H<sub>3</sub>F<sub>5</sub>O",
        "Molecular Mass": "162.06",
        "Boiling Point": "39.5-40 °C",
        "Density": "1.284 g/cm³ @ Temp: 20 °C"
    }
}