{
    "cas_no": "42558-54-3",
    "key_name": "Pentanoic acid, 4-methyl-3-oxo-, methyl ester",
    "cn_name": "异丁酰醋酸甲酯;异丁酰乙酸甲酯;",
    "alternate_name": "Pentanoic acid, 4-methyl-3-oxo-, methyl ester;Methyl 4-methyl-3-oxopentanoate;Methyl isobutyrylacetate;Isobutyrylacetic acid methyl ester;4-Methyl-3-oxopentanoic acid methyl ester;Methyl 3-oxo-4-methylpentanoate;Methyl 3-isopropyl-3-oxopropanoate;Methyl isobutanoylacetate;Isobutanoyl methyl acetate",
    "duplicated_cas_no": "",
    "SMILES": "C(C(C(C)C)=O)C(OC)=O",
    "meta_data": {
        "InChI": "InChI=1S/C7H12O3/c1-5(2)6(8)4-7(9)10-3/h5H,4H2,1-3H3",
        "InChIKey": null,
        "Canonical SMILES": "O=C(OC)CC(=O)C(C)C",
        "Molecular Formula": "C<sub>7</sub>H<sub>12</sub>O<sub>3</sub>",
        "Molecular Mass": "144.17",
        "Boiling Point": "147-149 °C"
    }
}