{
    "cas_no": "26196-45-2",
    "key_name": "2-Chloro-5-nitro-1,4-benzenediamine",
    "cn_name": "2-氯-5-硝基-1,4-苯二胺;",
    "alternate_name": "1,4-Benzenediamine, 2-chloro-5-nitro-;<em>p</em>-Phenylenediamine, 2-chloro-5-nitro-;2-Chloro-5-nitro-1,4-benzenediamine;1,4-Diamino-2-nitro-5-chlorobenzene;2-Chloro-4-amino-5-nitroaniline;2,5-Diamino-4-chloronitrobenzene;1,4-Diamino-5-chloro-2-nitrobenzene;5-Chloro-2-nitro-1,4-phenylenediamine;2-Chloro-5-nitro-<em>p</em>-phenylenediamine;1-Amino-2-nitro-5-chloro-4-aminobenzene",
    "duplicated_cas_no": "",
    "SMILES": "N(=O)(=O)C1=C(N)C=C(Cl)C(N)=C1",
    "meta_data": {
        "InChI": "InChI=1S/C6H6ClN3O2/c7-3-1-5(9)6(10(11)12)2-4(3)8/h1-2H,8-9H2",
        "InChIKey": null,
        "Canonical SMILES": "O=N(=O)C1=CC(N)=C(Cl)C=C1N",
        "Molecular Formula": "C<sub>6</sub>H<sub>6</sub>ClN<sub>3</sub>O<sub>2</sub>",
        "Molecular Mass": "187.58",
        "Melting Point": "156-157 °C"
    }
}