{
    "cas_no": "115-22-0",
    "key_name": "3-Hydroxy-3-methyl-2-butanone",
    "cn_name": null,
    "alternate_name": "2-Butanone, 3-hydroxy-3-methyl-;3-Hydroxy-3-methyl-2-butanone;2-Hydroxy-2-methyl-3-butanone;3-Methylacetoin;Dimethylacetylcarbinol;2-Methyl-2-hydroxy-3-butanone;Methylacetoin;1-Hydroxy-1-methylethyl methyl ketone;3-Hydroxy-3-methylbutanone;Acetyldimethylcarbinol;3-Methyl-3-hydroxy-2-butanone;NSC 5576;2-Methyl-3-oxobutan-2-ol",
    "duplicated_cas_no": "109916-60-1",
    "SMILES": "C(C(C)=O)(C)(C)O",
    "meta_data": {
        "InChI": "InChI=1S/C5H10O2/c1-4(6)5(2,3)7/h7H,1-3H3",
        "InChIKey": null,
        "Canonical SMILES": "O=C(C)C(O)(C)C",
        "Molecular Formula": "C<sub>5</sub>H<sub>10</sub>O<sub>2</sub>",
        "Molecular Mass": "102.13",
        "Boiling Point": "140.5 °C",
        "Melting Point": "84-85 °C",
        "Density": "0.9632 g/cm³ @ Temp: 21 °C"
    }
}