{
    "cas_no": "1072-68-0",
    "key_name": "1,4-Dimethylpyrazole",
    "cn_name": null,
    "alternate_name": "1<em>H</em>-Pyrazole, 1,4-dimethyl-;Pyrazole, 1,4-dimethyl-;1,4-Dimethyl-1<em>H</em>-pyrazole;1,4-Dimethylpyrazole",
    "duplicated_cas_no": "",
    "SMILES": "CC1=CN(C)N=C1",
    "meta_data": {
        "InChI": "InChI=1S/C5H8N2/c1-5-3-6-7(2)4-5/h3-4H,1-2H3",
        "InChIKey": null,
        "Canonical SMILES": "N1=CC(=CN1C)C",
        "Molecular Formula": "C<sub>5</sub>H<sub>8</sub>N<sub>2</sub>",
        "Molecular Mass": "96.13",
        "Boiling Point": "148-150 °C @ Press: 20 Torr",
        "Density": "0.9608 g/cm³ @ Temp: 18 °C"
    }
}