{
    "cas_no": "5388-21-6",
    "key_name": "2-(Methylamino)-5-pyrimidinecarboxylic acid",
    "cn_name": null,
    "alternate_name": "5-Pyrimidinecarboxylic acid, 2-(methylamino)-;2-(Methylamino)-5-pyrimidinecarboxylic acid",
    "duplicated_cas_no": "",
    "SMILES": "C(O)(=O)C=1C=NC(NC)=NC1",
    "meta_data": {
        "InChI": "InChI=1S/C6H7N3O2/c1-7-6-8-2-4(3-9-6)5(10)11/h2-3H,1H3,(H,10,11)(H,7,8,9)",
        "InChIKey": null,
        "Canonical SMILES": "O=C(O)C1=CN=C(N=C1)NC",
        "Molecular Formula": "C<sub>6</sub>H<sub>7</sub>N<sub>3</sub>O<sub>2</sub>",
        "Molecular Mass": "153.14",
        "Melting Point": "308-309 °C"
    }
}