{
    "cas_no": "438-67-5",
    "key_name": "Sodium estrone sulfate",
    "cn_name": "雌酮3-硫酸钠;雌酮3-硫酸钠;",
    "alternate_name": "Estra-1,3,5(10)-trien-17-one, 3-(sulfooxy)-, sodium salt (1:1);Estrone, hydrogen sulfate sodium salt;Estra-1,3,5(10)-trien-17-one, 3-(sulfooxy)-, sodium salt;Estrone sulfate sodium salt;Estrone sodium sulfate;Estrone sulfate sodium;Sodium estrone sulfate;Sodium estrone-3-sulfate;Conestoral;Morestin;3-Sulfatoxyestra-1,3,5(10)-trien-17-one sodium salt;NSC 18313",
    "duplicated_cas_no": "",
    "SMILES": "C[C@@]12[C@]([C@]3([C@@](C=4C(CC3)=CC(OS(=O)(=O)O)=CC4)(CC1)[H])[H])(CCC2=O)[H].[Na]",
    "meta_data": {
        "InChI": "InChI=1S/C18H22O5S.Na/c1-18-9-8-14-13-5-3-12(23-24(20,21)22)10-11(13)2-4-15(14)16(18)6-7-17(18)19;/h3,5,10,14-16H,2,4,6-9H2,1H3,(H,20,21,22);/t14-,15-,16+,18+;/m1./s1",
        "InChIKey": null,
        "Canonical SMILES": "[Na].O=C1CCC2C3CCC4=CC(OS(=O)(=O)O)=CC=C4C3CCC12C",
        "Molecular Formula": "C<sub>18</sub>H<sub>22</sub>O<sub>5</sub>S.Na",
        "Molecular Mass": "",
        "Melting Point": "226-228 °C"
    }
}