{
    "cas_no": "6280-88-2",
    "key_name": "4-Chloro-2-nitrobenzoic acid",
    "cn_name": "4-氯-2-硝基苯甲酸;",
    "alternate_name": "Benzoic acid, 4-chloro-2-nitro-;4-Chloro-2-nitrobenzoic acid;2-Nitro-4-chlorobenzoic acid;NSC 6158",
    "duplicated_cas_no": "",
    "SMILES": "C(O)(=O)C1=C(N(=O)=O)C=C(Cl)C=C1",
    "meta_data": {
        "InChI": "InChI=1S/C7H4ClNO4/c8-4-1-2-5(7(10)11)6(3-4)9(12)13/h1-3H,(H,10,11)",
        "InChIKey": null,
        "Canonical SMILES": "O=C(O)C1=CC=C(Cl)C=C1N(=O)=O",
        "Molecular Formula": "C<sub>7</sub>H<sub>4</sub>ClNO<sub>4</sub>",
        "Molecular Mass": "201.56",
        "Melting Point": "143-145 °C"
    }
}