{
    "cas_no": "9004-36-8",
    "key_name": "Cellulose acetobutyrate",
    "cn_name": null,
    "alternate_name": "Cellulose, acetate butanoate;Cellulose, acetate butyrate;Cellulose acetobutyrate;Tenite II;EAB 171-15;Cellaburate;Cellidor W;Cellit BL 900;Etrol ABTsE 15-5;Tenite butyrate;EAB 500-1;Cellidor B;EAB 451;EAB 531;EAB 381-2;Triafol BN;EAB;EAB 451-1;EAB 551-02;Cellulose butyrate acetate;EAB 531-1;EAB 381-20;EAB 551-0.2;EAB 381-0.5;Tenth Second;Tenite CAB;Acetobutyrate cellulose;Acetylbutyrylcellulose;Eastman 381;EAB 500-5;Cellit BP 300;Cellit BS 800;EAB 381;EAB 272-70;EAB 272-20;Tenite CAB 460A;Cellit BP 900;Umanax F;EAB 551-0.02;AK 211;CAB 500-1;CAB 171;CAB 381;CAB 500;Uvex;EAB 551;Cabufocon;CAB 171-2;CAB 381-2;CAB 272-20;CAB 171-25;CAB 381-0.5;Cellit BF 900;CAB 551-0.2;CAB 171-15S;CAB;CAB 551-001;Tenite 205HZ;CAB 551-0.5;CAB 500-5;Cellidor BM;CAB-EAB 381-1/2;CAB 381-0.1;Cellit BP 700;Cellidor BS;Cellit BP 700-25;Cellidor BSP-W;CAB 551-20;Cellidor B 541-10;CAB 553-0.4;Tenite 264E37200MH;AK 211 (cellulose derivative);Cellidor B 531-10;CAB 553;CAB 381-20;CAB 531-0.1;CAB 531-1;CAB 551-0.01;Tenite Butyrate 525;CAB 555-0.04;CAB 381-05;CAB 551;CAB 04;EAB (cellulose derivative);CAB 321-0.1;CDS 35-1;CAB 381-1;CAB 32101;CAB 551-02;CAB 381-1/2;CAB 171-15;CAB 500-0.5;Celluose acetate butyrate;CAB 551-0.1;CAB 175-15;CAB 550-0.01;CAB 533-0.4;CAB 40425-5000;CDS 55-1;CAB 0.05;Kodacel K 7755;CAB 551.2;CA 381-0.5;CAB 171-15PG;Kodacel K 7896;Cabloid CAB;Tenite 485E2R30010;CAB 641-1;CAB 381-20-10BA;CAB 381-01;CAB 381-0.2;CAB 321;CAB 553-0.04;CAB 151-0.7;CAB 151-0.3C;CAB 151-0.3;Ensure 100;CAB 380-20;Celullose acetate butyrate;CAB 382-20;CAB 551-0.02;CAB 0.5;CAB 1;CAB 2;CBA 381-20;CAB 3050;CAB 551-0.05;CBA 381-2.0;CAB 5530;W-CAB;CAB 552-0.2;CAB 531-2;CAB 531-0.2;CAB 120;CAB 1120;CAB 3110;CAB 2410;CAB 381-20BP;CAB 550-5;CAB 551-1;CAB Solus 2000;CAB 511-0.01;Eastman CAB 381-0.5;Solus 3050;CAB 500-20;CAB 500-15;CAB 38101;CAB 38105;CAB 555-04;Eastmancab;CAB 382-0.5;CE 24647;CAB 554-0.4;CRF 903;CAB 531;CAB 551-100.1;CAB 482-0.5;CAB-551-0.4;CAP 381-0.1;CAP 551-0.01;Eastman CAB 1000;CAB 482-20",
    "duplicated_cas_no": "52440-02-5;53571-71-4;61536-91-2;168752-30-5;169274-57-1;169274-59-3;174588-51-3;174588-53-5;174588-55-7;208265-58-1;251903-06-7;327602-98-2;845736-00-7;1260070-07-2;1267972-68-8;1410797-87-3;1610038-05-5;1819338-49-2;2097657-71-9;2375499-91-3;2381167-05-9;2892547-77-0;2892548-53-5;2892549-08-3",
    "SMILES": "",
    "meta_data": {
        "InChI": "",
        "InChIKey": null,
        "Canonical SMILES": "",
        "Molecular Formula": "C<sub>4</sub>H<sub>8</sub>O<sub>2</sub>.xC<sub>2</sub>H<sub>4</sub>O<sub>2</sub>.xUnspecified",
        "Molecular Mass": "",
        "Melting Point": "130-150 °C",
        "Density": "1.20 g/cm³"
    }
}