{
    "cas_no": "96385-50-1",
    "key_name": "3-Nitro-1,2-benzenedicarboxamide",
    "cn_name": "3-硝基邻苯二甲二酰胺;",
    "alternate_name": "1,2-Benzenedicarboxamide, 3-nitro-;3-Nitro-1,2-benzenedicarboxamide;3-Nitrophthalamide",
    "duplicated_cas_no": "",
    "SMILES": "C(N)(=O)C1=C(C(N)=O)C=CC=C1N(=O)=O",
    "meta_data": {
        "InChI": "InChI=1S/C8H7N3O4/c9-7(12)4-2-1-3-5(11(14)15)6(4)8(10)13/h1-3H,(H2,9,12)(H2,10,13)",
        "InChIKey": null,
        "Canonical SMILES": "O=C(N)C1=CC=CC(=C1C(=O)N)N(=O)=O",
        "Molecular Formula": "C<sub>8</sub>H<sub>7</sub>N<sub>3</sub>O<sub>4</sub>",
        "Molecular Mass": "209.16",
        "Melting Point": "204-204.5 °C"
    }
}