{
    "cas_no": "69617-84-1",
    "key_name": "4-Hydroxy-α-methylbenzenepropanol",
    "cn_name": null,
    "alternate_name": "Benzenepropanol, 4-hydroxy-α-methyl-;4-Hydroxy-α-methylbenzenepropanol;Frambinol;NSC 40514;(±)-Rhododendrol;4-(<em>p</em>-Hydroxyphenyl)-2-butanol;Rhododenol;Betulegenol;4-(3-Hydroxybutyl)phenol;4-(4-Hydroxyphenyl)-butan-2-ol",
    "duplicated_cas_no": "",
    "SMILES": "C(CC(C)O)C1=CC=C(O)C=C1",
    "meta_data": {
        "InChI": "InChI=1S/C10H14O2/c1-8(11)2-3-9-4-6-10(12)7-5-9/h4-8,11-12H,2-3H2,1H3",
        "InChIKey": null,
        "Canonical SMILES": "OC1=CC=C(C=C1)CCC(O)C",
        "Molecular Formula": "C<sub>10</sub>H<sub>14</sub>O<sub>2</sub>",
        "Molecular Mass": "166.22",
        "Melting Point": "69-70 °C"
    }
}