{
    "cas_no": "565453-41-0",
    "key_name": "<span class=\"text-smallcaps\">L</span>-Proline, <em>N</em>-(3-hydroxytricyclo[3.3.1.1<sup>3,7</sup>]dec-1-yl)glycyl-, mono(trifluoroacetate) (salt)",
    "cn_name": null,
    "alternate_name": "<span class=\"text-smallcaps\">L</span>-Proline, <em>N</em>-(3-hydroxytricyclo[3.3.1.1<sup>3,7</sup>]dec-1-yl)glycyl-, mono(trifluoroacetate) (salt)",
    "duplicated_cas_no": "",
    "SMILES": "N(CC(=O)N1[C@H](C(O)=O)CCC1)C23CC4(O)CC(C2)CC(C3)C4.C(C(O)=O)(F)(F)F",
    "meta_data": {
        "InChI": "InChI=1S/C17H26N2O4.C2HF3O2/c20-14(19-3-1-2-13(19)15(21)22)9-18-16-5-11-4-12(6-16)8-17(23,7-11)10-16;3-2(4,5)1(6)7/h11-13,18,23H,1-10H2,(H,21,22);(H,6,7)/t11?,12?,13-,16?,17?;/m0./s1",
        "InChIKey": null,
        "Canonical SMILES": "O=C(O)C1N(C(=O)CNC23CC4CC(CC(O)(C4)C2)C3)CCC1.O=C(O)C(F)(F)F",
        "Molecular Formula": "C<sub>17</sub>H<sub>26</sub>N<sub>2</sub>O<sub>4</sub>.C<sub>2</sub>HF<sub>3</sub>O<sub>2</sub>",
        "Molecular Mass": "",
        "Melting Point": "80-82 °C"
    }
}