{
    "cas_no": "6169-06-8",
    "key_name": "(+)-2-Octanol",
    "cn_name": "2-辛醇;",
    "alternate_name": "2-Octanol, (2<em>S</em>)-;2-Octanol, (<em>S</em>)-(+)-;2-Octanol, (<em>S</em>)-;(2<em>S</em>)-2-Octanol;<em>d</em>-2-Octanol;(<em>S</em>)-(+)-2-Octanol;(+)-2-Octanol;(<em>S</em>)-(+)-2-Octyl alcohol;(<em>S</em>)-1-Methylheptyl alcohol;<span class=\"text-smallcaps\">D</span>-(+)-Octan-2-ol;(<em>S</em>)-2-Octanol;<span class=\"text-smallcaps\">D</span>-2-Octanol;(2<em>S</em>)-Octanol;(<em>S</em>)-2-Octyl alcohol",
    "duplicated_cas_no": "113301-48-7",
    "SMILES": "C(C[C@H](C)O)CCCC",
    "meta_data": {
        "InChI": "InChI=1S/C8H18O/c1-3-4-5-6-7-8(2)9/h8-9H,3-7H2,1-2H3/t8-/m0/s1",
        "InChIKey": null,
        "Canonical SMILES": "OC(C)CCCCCC",
        "Molecular Formula": "C<sub>8</sub>H<sub>18</sub>O",
        "Molecular Mass": "130.23",
        "Boiling Point": "176-177 °C",
        "Density": "0.8152 g/cm³ @ Temp: 25 °C"
    }
}