{
    "cas_no": "4442-59-5",
    "key_name": "2-Aminomethyl-1,4-benzodioxane",
    "cn_name": "2,3-二氢-1,4-苯并二恶-2-甲胺;2,3-二氢-1,4-苯并二恶-2-甲胺;",
    "alternate_name": "1,4-Benzodioxin-2-methanamine, 2,3-dihydro-;1,4-Benzodioxan-2-methylamine;1,4-Benzodioxan, 2-(aminomethyl)-;2,3-Dihydro-1,4-benzodioxin-2-methanamine;Fourneau 946;2-Aminomethyl-1,4-benzodioxane;2-(Aminomethyl)-1,4-benzodioxan;LP 1;LP 1 (pharmaceutical);1,4-Benzodioxane-2-methylamine;2-Aminomethyl-2,3-dihydro-1,4-benzodioxin;[(2,3-Dihydro-1,4-benzodioxin-2-yl)methyl]amine;NSC 116045;<em>N</em>-[(2,3-Dihydrobenzo[1,4]dioxin-2-yl)methyl]amine;[(2,3-Dihydro-1,4-benzdioxin-2-yl)methyl]amine;(±)-2-(Aminomethyl)-1,4-benzodioxane;(2,3-Dihydrobenzo[<em>b</em>][1,4]dioxin-2-yl)methanamine;2,3-Dihydro-1,4-benzodioxin-2-ylmethanamine;(2,3-Dihydro-1,4-benzodioxin-2-yl)methanamine;2,3-Dihydro-1,4-benzodioxin-3-ylmethanamine",
    "duplicated_cas_no": "113830-01-6",
    "SMILES": "C(N)C1OC=2C(OC1)=CC=CC2",
    "meta_data": {
        "InChI": "InChI=1S/C9H11NO2/c10-5-7-6-11-8-3-1-2-4-9(8)12-7/h1-4,7H,5-6,10H2",
        "InChIKey": null,
        "Canonical SMILES": "O1C=2C=CC=CC2OC(C1)CN",
        "Molecular Formula": "C<sub>9</sub>H<sub>11</sub>NO<sub>2</sub>",
        "Molecular Mass": "165.19",
        "Boiling Point": "127-137 °C @ Press: 4 Torr",
        "Melting Point": "184-188 °C"
    }
}