{
    "cas_no": "39718-00-8",
    "key_name": "2-Chlorobenzyl mercaptan",
    "cn_name": "2-氯苯甲基硫醇;",
    "alternate_name": "Benzenemethanethiol, 2-chloro-;2-Chlorobenzenemethanethiol;(2-Chlorophenyl)methanethiol;<em>o</em>-Chlorobenzyl mercaptan;2-Chlorobenzyl mercaptan;2-Chlorotoluene-α-thiol;(<em>o</em>-Chlorophenyl)methanethiol;<em>o</em>-Chlorobenzylthiol",
    "duplicated_cas_no": "",
    "SMILES": "C(S)C1=C(Cl)C=CC=C1",
    "meta_data": {
        "InChI": "InChI=1S/C7H7ClS/c8-7-4-2-1-3-6(7)5-9/h1-4,9H,5H2",
        "InChIKey": null,
        "Canonical SMILES": "ClC=1C=CC=CC1CS",
        "Molecular Formula": "C<sub>7</sub>H<sub>7</sub>ClS",
        "Molecular Mass": "158.65",
        "Boiling Point": "120-121 °C @ Press: 25 Torr"
    }
}