{
    "cas_no": "614-00-6",
    "key_name": "<em>N</em>-Methyl-<em>N</em>-nitrosoaniline",
    "cn_name": "N-甲基-N-亚硝基苯胺;",
    "alternate_name": "Benzenamine, <em>N</em>-methyl-<em>N</em>-nitroso-;Aniline, <em>N</em>-methyl-<em>N</em>-nitroso-;<em>N</em>-Methyl-<em>N</em>-nitrosobenzenamine;<em>N</em>-Methyl-<em>N</em>-nitrosoaniline;<em>N</em>-Nitroso-<em>N</em>-methylaniline;Methylphenylnitrosamine;<em>N</em>-Methyl-<em>N</em>-phenylnitrosoamine;Phenylmethylnitrosamine;<em>N</em>-Methyl-<em>N</em>-phenylnitrosamine;Methylphenylnitrosoamine;<em>N</em>-Nitroso-<em>N</em>-methylphenylamine;Nitrosomethylphenylamine;NSC 137",
    "duplicated_cas_no": "",
    "SMILES": "N(N=O)(C)C1=CC=CC=C1",
    "meta_data": {
        "InChI": "InChI=1S/C7H8N2O/c1-9(8-10)7-5-3-2-4-6-7/h2-6H,1H3",
        "InChIKey": null,
        "Canonical SMILES": "O=NN(C=1C=CC=CC1)C",
        "Molecular Formula": "C<sub>7</sub>H<sub>8</sub>N<sub>2</sub>O",
        "Molecular Mass": "136.15",
        "Boiling Point": "86-87 °C @ Press: 1.7 Torr",
        "Melting Point": "14.7 °C",
        "Density": "1.1240 g/cm³ @ Temp: 20 °C"
    }
}