{
    "cas_no": "1141-38-4",
    "key_name": "2,6-Naphthalenedicarboxylic acid",
    "cn_name": null,
    "alternate_name": "2,6-Naphthalenedicarboxylic acid;2,6-Naphthalic acid;NSC 96410",
    "duplicated_cas_no": "",
    "SMILES": "C(O)(=O)C1=CC2=C(C=C(C(O)=O)C=C2)C=C1",
    "meta_data": {
        "InChI": "InChI=1S/C12H8O4/c13-11(14)9-3-1-7-5-10(12(15)16)4-2-8(7)6-9/h1-6H,(H,13,14)(H,15,16)",
        "InChIKey": null,
        "Canonical SMILES": "O=C(O)C=1C=CC2=CC(=CC=C2C1)C(=O)O",
        "Molecular Formula": "C<sub>12</sub>H<sub>8</sub>O<sub>4</sub>",
        "Molecular Mass": "216.19",
        "Boiling Point": "230-280 °C @ Press: 0.2 Torr",
        "Melting Point": "&gt;340 °C",
        "Density": "0.96 g/cm³"
    }
}