{
    "cas_no": "119914-60-2",
    "key_name": "Grepafloxacin",
    "cn_name": "格帕沙星;1-环丙基-6-氟-7-(3-甲基-1-哌嗪基)-5-甲基-1,4-二氢-4-氧代喹啉-3-羧酸;",
    "alternate_name": "3-Quinolinecarboxylic acid, 1-cyclopropyl-6-fluoro-1,4-dihydro-5-methyl-7-(3-methyl-1-piperazinyl)-4-oxo-;1-Cyclopropyl-6-fluoro-1,4-dihydro-5-methyl-7-(3-methyl-1-piperazinyl)-4-oxo-3-quinolinecarboxylic acid;Grepafloxacin;Tomefloxacin;1-Cyclopropyl-6-fluoro-7-(3-methyl-1-piperazinyl)-5-methyl-1,4-dihydro-4-oxoquinoline-3-carboxylic acid;<em>dl</em>-Grepafloxacin",
    "duplicated_cas_no": "126292-40-8;146863-02-7",
    "SMILES": "O=C1C=2C(N(C=C1C(O)=O)C3CC3)=CC(=C(F)C2C)N4CC(C)NCC4",
    "meta_data": {
        "InChI": "InChI=1S/C19H22FN3O3/c1-10-8-22(6-5-21-10)15-7-14-16(11(2)17(15)20)18(24)13(19(25)26)9-23(14)12-3-4-12/h7,9-10,12,21H,3-6,8H2,1-2H3,(H,25,26)",
        "InChIKey": null,
        "Canonical SMILES": "O=C(O)C1=CN(C2=CC(=C(F)C(=C2C1=O)C)N3CCNC(C)C3)C4CC4",
        "Molecular Formula": "C<sub>19</sub>H<sub>22</sub>FN<sub>3</sub>O<sub>3</sub>",
        "Molecular Mass": "359.39",
        "Melting Point": "189-192 °C"
    }
}