{
    "cas_no": "31736-73-9",
    "key_name": "1-(4-Bromophenyl)-3-chloro-1-propanone",
    "cn_name": null,
    "alternate_name": "1-Propanone, 1-(4-bromophenyl)-3-chloro-;Propiophenone, 4′-bromo-3-chloro-;1-(4-Bromophenyl)-3-chloro-1-propanone;4′-Bromo-3-chloropropiophenone;4-Bromophenyl 2-chloroethyl ketone;NSC 36071;<em>p</em>-Bromo-3-chloropropiophenone;<em>p</em>-Bromophenyl β-chloroethyl ketone;3-Chloro-1-(4-bromophenyl)propan-1-one",
    "duplicated_cas_no": "",
    "SMILES": "C(CCCl)(=O)C1=CC=C(Br)C=C1",
    "meta_data": {
        "InChI": "InChI=1S/C9H8BrClO/c10-8-3-1-7(2-4-8)9(12)5-6-11/h1-4H,5-6H2",
        "InChIKey": null,
        "Canonical SMILES": "O=C(C1=CC=C(Br)C=C1)CCCl",
        "Molecular Formula": "C<sub>9</sub>H<sub>8</sub>BrClO",
        "Molecular Mass": "247.52",
        "Melting Point": "58-60 °C"
    }
}