{
    "cas_no": "81025-04-9",
    "key_name": "Lactitol monohydrate",
    "cn_name": "乳糖醇单水合物;4-O-β-D-吡喃半乳糖-D-葡萄糖醇;",
    "alternate_name": "<span class=\"text-smallcaps\">D</smallcap>-Glucitol, 4-<em>O</em>-β-<smallcap>D</span>-galactopyranosyl-, hydrate (1:1);<span class=\"text-smallcaps\">D</smallcap>-Glucitol, 4-<em>O</em>-β-<smallcap>D</span>-galactopyranosyl-, monohydrate;Lactitol monohydrate;Exportal;4-<em>O</em>-β-<span class=\"text-smallcaps\">D</smallcap>-Galactopyranosyl-<smallcap>D</span>-glucitol monohydrate",
    "duplicated_cas_no": "",
    "SMILES": "O([C@@H]([C@@H]([C@H](CO)O)O)[C@@H](CO)O)[C@@H]1O[C@H](CO)[C@H](O)[C@H](O)[C@H]1O.O",
    "meta_data": {
        "InChI": "InChI=1S/C12H24O11.H2O/c13-1-4(16)7(18)11(5(17)2-14)23-12-10(21)9(20)8(19)6(3-15)22-12;/h4-21H,1-3H2;1H2/t4-,5+,6+,7+,8-,9-,10+,11+,12-;/m0./s1",
        "InChIKey": null,
        "Canonical SMILES": "O.OCC(O)C(O)C(OC1OC(CO)C(O)C(O)C1O)C(O)CO",
        "Molecular Formula": "C<sub>12</sub>H<sub>24</sub>O<sub>11</sub>.H<sub>2</sub>O",
        "Molecular Mass": "",
        "Melting Point": "94-97 °C"
    }
}