{
    "cas_no": "23138-58-1",
    "key_name": "3-Ethylphenyl isocyanate",
    "cn_name": "3-乙基苯基异氰酸酯;",
    "alternate_name": "Benzene, 1-ethyl-3-isocyanato-;Isocyanic acid, <em>m</em>-ethylphenyl ester;1-Ethyl-3-isocyanatobenzene;3-Ethylphenyl isocyanate;<em>m</em>-Ethylphenyl isocyanate;3-Ethyl-1-isocyanatobenzene",
    "duplicated_cas_no": "",
    "SMILES": "N(=C=O)C1=CC(CC)=CC=C1",
    "meta_data": {
        "InChI": "InChI=1S/C9H9NO/c1-2-8-4-3-5-9(6-8)10-7-11/h3-6H,2H2,1H3",
        "InChIKey": null,
        "Canonical SMILES": "O=C=NC1=CC=CC(=C1)CC",
        "Molecular Formula": "C<sub>9</sub>H<sub>9</sub>NO",
        "Molecular Mass": "147.17",
        "Boiling Point": "88 °C @ Press: 33 Torr"
    }
}