{
    "cas_no": "1792-40-1",
    "key_name": "2-Methyl-5-nitrobenzimidazole",
    "cn_name": null,
    "alternate_name": "1<em>H</em>-Benzimidazole, 2-methyl-6-nitro-;Benzimidazole, 2-methyl-5-nitro-;1<em>H</em>-Benzimidazole, 2-methyl-5-nitro-;Benzimidazole, 2-methyl-5(<em>or</em> 6)-nitro-;2-Methyl-6-nitro-1<em>H</em>-benzimidazole;2-Methyl-5-nitrobenzimidazole;2-Methyl-6-nitrobenzimidazole;5-Nitro-2-methylbenzimidazole;NSC 38853;2-Methyl-5-nitro-1H-benzimidazole;2-Methyl-5-nitro-1<em>H</em>-benzoimidazole;2-Methyl-5-nitro-1<em>H</em>-1,3-benzodiazole;2-Methyl-6-nitro-1<em>H</em>-benzo[<em>d</em>]imidazole;2-Methyl-5-nitro-1<em>H</em>-benzimidazole;2-Methyl-6-nitro-1<em>H</em>-1,3-benzodiazole",
    "duplicated_cas_no": "89843-46-9",
    "SMILES": "N(=O)(=O)C=1C=C2C(=CC1)N=C(C)N2",
    "meta_data": {
        "InChI": "InChI=1S/C8H7N3O2/c1-5-9-7-3-2-6(11(12)13)4-8(7)10-5/h2-4H,1H3,(H,9,10)",
        "InChIKey": null,
        "Canonical SMILES": "O=N(=O)C=1C=CC=2N=C(NC2C1)C",
        "Molecular Formula": "C<sub>8</sub>H<sub>7</sub>N<sub>3</sub>O<sub>2</sub>",
        "Molecular Mass": "177.16",
        "Melting Point": "223-225 °C"
    }
}