{
    "cas_no": "152-20-5",
    "key_name": "<em>O</em>,<em>O</em>,<em>S</em>-Trimethyl phosphorothioate",
    "cn_name": null,
    "alternate_name": "Phosphorothioic acid, <em>O</em>,<em>O</em>,<em>S</em>-trimethyl ester;HC 7901;Methyl phosphorothioate ((MeO)<sub>2</sub>(MeS)PO);<em>O</em>,<em>O</em>-Dimethyl <em>S</em>-methyl phosphorothioate;<em>O</em>,<em>O</em>-Dimethyl <em>S</em>-methyl thiophosphate;<em>O</em>,<em>O</em>,<em>S</em>-Trimethyl phosphorothioate;<em>O</em>,<em>O</em>,<em>S</em>-Trimethyl thiophosphate;<em>O</em>,<em>O</em>,<em>S</em>-Trimethyl phosphorothiolate",
    "duplicated_cas_no": "",
    "SMILES": "P(OC)(OC)(SC)=O",
    "meta_data": {
        "InChI": "InChI=1S/C3H9O3PS/c1-5-7(4,6-2)8-3/h1-3H3",
        "InChIKey": null,
        "Canonical SMILES": "O=P(OC)(OC)SC",
        "Molecular Formula": "C<sub>3</sub>H<sub>9</sub>O<sub>3</sub>PS",
        "Molecular Mass": "156.14",
        "Boiling Point": "103 °C @ Press: 12 Torr",
        "Density": "1.2434 g/cm³ @ Temp: 23 °C"
    }
}