{
    "cas_no": "28910-89-6",
    "key_name": "2-(2-Acetylhydrazino)-7-chloro-5-phenyl-3<em>H</em>-1,4-benzodiazepine",
    "cn_name": null,
    "alternate_name": "Acetic acid, 2-(7-chloro-5-phenyl-3<em>H</em>-1,4-benzodiazepin-2-yl)hydrazide;3<em>H</em>-1,4-Benzodiazepine, acetic acid deriv.;2-(2-Acetylhydrazino)-7-chloro-5-phenyl-3<em>H</em>-1,4-benzodiazepine",
    "duplicated_cas_no": "",
    "SMILES": "ClC=1C=C2C(=NCC(NNC(C)=O)=NC2=CC1)C3=CC=CC=C3",
    "meta_data": {
        "InChI": "InChI=1S/C17H15ClN4O/c1-11(23)21-22-16-10-19-17(12-5-3-2-4-6-12)14-9-13(18)7-8-15(14)20-16/h2-9H,10H2,1H3,(H,20,22)(H,21,23)",
        "InChIKey": null,
        "Canonical SMILES": "O=C(NNC1=NC=2C=CC(Cl)=CC2C(=NC1)C=3C=CC=CC3)C",
        "Molecular Formula": "C<sub>17</sub>H<sub>15</sub>ClN<sub>4</sub>O",
        "Molecular Mass": "326.78",
        "Melting Point": "209-210 °C"
    }
}