{
    "cas_no": "90356-78-8",
    "key_name": "<em>N</em>-[4-Cyano-3-(trifluoromethyl)phenyl]-3-[(4-fluorophenyl)thio]-2-hydroxy-2-methylpropanamide",
    "cn_name": null,
    "alternate_name": "Propanamide, <em>N</em>-[4-cyano-3-(trifluoromethyl)phenyl]-3-[(4-fluorophenyl)thio]-2-hydroxy-2-methyl-;Propanamide, <em>N</em>-[4-cyano-3-(trifluoromethyl)phenyl]-3-[(4-fluorophenyl)thio]-2-hydroxy-2-methyl-, (±)-;<em>N</em>-[4-Cyano-3-(trifluoromethyl)phenyl]-3-[(4-fluorophenyl)thio]-2-hydroxy-2-methylpropanamide;<em>N</em>-[4-Cyano-3-(trifluoromethyl)phenyl]-3-(4-fluorophenylsulfanyl)-2-hydroxy-2-methylpropionamide",
    "duplicated_cas_no": "",
    "SMILES": "C(F)(F)(F)C1=C(C#N)C=CC(NC(C(CSC2=CC=C(F)C=C2)(C)O)=O)=C1",
    "meta_data": {
        "InChI": "InChI=1S/C18H14F4N2O2S/c1-17(26,10-27-14-6-3-12(19)4-7-14)16(25)24-13-5-2-11(9-23)15(8-13)18(20,21)22/h2-8,26H,10H2,1H3,(H,24,25)",
        "InChIKey": null,
        "Canonical SMILES": "N#CC1=CC=C(C=C1C(F)(F)F)NC(=O)C(O)(C)CSC2=CC=C(F)C=C2",
        "Molecular Formula": "C<sub>18</sub>H<sub>14</sub>F<sub>4</sub>N<sub>2</sub>O<sub>2</sub>S",
        "Molecular Mass": "398.37",
        "Melting Point": "116-117 °C"
    }
}