{
    "cas_no": "3088-15-1",
    "key_name": "4,6-Dibenzoylresorcinol",
    "cn_name": null,
    "alternate_name": "Methanone, 1,1′-(4,6-dihydroxy-1,3-phenylene)bis[1-phenyl-;Resorcinol, 4,6-dibenzoyl-;Methanone, (4,6-dihydroxy-1,3-phenylene)bis[phenyl-;1,1′-(4,6-Dihydroxy-1,3-phenylene)bis[1-phenylmethanone];4,6-Dibenzoylresorcinol;5-Benzoyl-2,4-dihydroxybenzophenone;1,3-Dibenzoyl-4,6-dihydroxybenzene;(4,6-dihydroxy-1,3-phenylene)bis(phenylmethanone)",
    "duplicated_cas_no": "",
    "SMILES": "C(=O)(C1=CC(C(=O)C2=CC=CC=C2)=C(O)C=C1O)C3=CC=CC=C3",
    "meta_data": {
        "InChI": "InChI=1S/C20H14O4/c21-17-12-18(22)16(20(24)14-9-5-2-6-10-14)11-15(17)19(23)13-7-3-1-4-8-13/h1-12,21-22H",
        "InChIKey": null,
        "Canonical SMILES": "O=C(C=1C=CC=CC1)C=2C=C(C(O)=CC2O)C(=O)C=3C=CC=CC3",
        "Molecular Formula": "C<sub>20</sub>H<sub>14</sub>O<sub>4</sub>",
        "Molecular Mass": "318.32",
        "Melting Point": "151 °C"
    }
}