{
    "cas_no": "10563-23-2",
    "key_name": "<em>N</em>-Ethyl-1,3-propanediamine",
    "cn_name": "N-乙基-1,3-丙二胺;",
    "alternate_name": "1,3-Propanediamine, <em>N</em><sup>1</sup>-ethyl-;1,3-Propanediamine, <em>N</em>-ethyl-;<em>N</em><sup>1</sup>-Ethyl-1,3-propanediamine;<em>N</em>-Ethyl-1,3-propanediamine;1-Amino-3-(ethylamino)propane;3-(Ethylamino)propylamine;<em>N</em>-Ethyltrimethylenediamine;NSC 166312;<em>N</em>-(3-Aminopropyl)ethylamine;<em>N</em>-Ethylpropylenediamine;3-Amino-1-ethylaminopropane;<em>N</em>-Ethyl-1,3-diaminopropane",
    "duplicated_cas_no": "324027-50-1",
    "SMILES": "C(CCN)NCC",
    "meta_data": {
        "InChI": "InChI=1S/C5H14N2/c1-2-7-5-3-4-6/h7H,2-6H2,1H3",
        "InChIKey": null,
        "Canonical SMILES": "NCCCNCC",
        "Molecular Formula": "C<sub>5</sub>H<sub>14</sub>N<sub>2</sub>",
        "Molecular Mass": "102.18",
        "Boiling Point": "156 °C @ Press: 735 Torr"
    }
}