{
    "cas_no": "19829-31-3",
    "key_name": "1-(3-Bromophenyl)-1-propanone",
    "cn_name": "3-溴苯丙酮;",
    "alternate_name": "1-Propanone, 1-(3-bromophenyl)-;Propiophenone, 3′-bromo-;1-(3-Bromophenyl)-1-propanone;3′-Bromopropiophenone;<em>m</em>-Bromopropiophenone;3-Bromophenyl ethyl ketone;3-Bromopropiophenone",
    "duplicated_cas_no": "",
    "SMILES": "C(CC)(=O)C1=CC(Br)=CC=C1",
    "meta_data": {
        "InChI": "InChI=1S/C9H9BrO/c1-2-9(11)7-4-3-5-8(10)6-7/h3-6H,2H2,1H3",
        "InChIKey": null,
        "Canonical SMILES": "O=C(C=1C=CC=C(Br)C1)CC",
        "Molecular Formula": "C<sub>9</sub>H<sub>9</sub>BrO",
        "Molecular Mass": "213.07",
        "Boiling Point": "143 °C",
        "Melting Point": "36 °C"
    }
}