{
    "cas_no": "7440-01-9",
    "key_name": "Neon",
    "cn_name": null,
    "alternate_name": "Neon;MeSH ID: D009356",
    "duplicated_cas_no": "12794-67-1;36826-26-3;71928-15-9",
    "SMILES": "[Ne]",
    "meta_data": {
        "InChI": "InChI=1S/Ne",
        "InChIKey": null,
        "Canonical SMILES": "[Ne]",
        "Molecular Formula": "Ne",
        "Molecular Mass": "",
        "Boiling Point": "-246 °C",
        "Melting Point": "-248.7 °C",
        "Density": "8.05 x 10⁻³ g/cm³ @ Temp: 1227 °C; Press: 37503 Torr"
    }
}