{
    "cas_no": "69-53-4",
    "key_name": "Ampicillin",
    "cn_name": "氨苄西林;氨苄青霉素;(2S,5R,6R)-3,3-二甲基-6-[(R)-2-氨基-2-苯乙酰氨基]-7-氧代-4-硫杂-1-氮杂双环[3.2.0;",
    "alternate_name": "4-Thia-1-azabicyclo[3.2.0]heptane-2-carboxylic acid, 6-[[(2<em>R</em>)-2-amino-2-phenylacetyl]amino]-3,3-dimethyl-7-oxo-, (2<em>S</em>,5<em>R</em>,6<em>R</em>)-;4-Thia-1-azabicyclo[3.2.0]heptane-2-carboxylic acid, 6-(2-amino-2-phenylacetamido)-3,3-dimethyl-7-oxo-, <span class=\"text-smallcaps\">D</span>-(-)-;4-Thia-1-azabicyclo[3.2.0]heptane-2-carboxylic acid, 6-[(aminophenylacetyl)amino]-3,3-dimethyl-7-oxo-, [2<em>S</em>-[2α,5α,6β(<em>S</em>*)]]-;4-Thia-1-azabicyclo[3.2.0]heptane-2-carboxylic acid, 6-(<span class=\"text-smallcaps\">D</span>-2-amino-2-phenylacetamido)-3,3-dimethyl-7-oxo-;4-Thia-1-azabicyclo[3.2.0]heptane-2-carboxylic acid, 6-[[(2<em>R</em>)-aminophenylacetyl]amino]-3,3-dimethyl-7-oxo-, (2<em>S</em>,5<em>R</em>,6<em>R</em>)-;(2<em>S</em>,5<em>R</em>,6<em>R</em>)-6-[[(2<em>R</em>)-2-Amino-2-phenylacetyl]amino]-3,3-dimethyl-7-oxo-4-thia-1-azabicyclo[3.2.0]heptane-2-carboxylic acid;(-)-6-(2-Amino-2-phenylacetamido)-3,3-dimethyl-7-oxo-4-thia-1-azabicyclo[3.2.0]heptane-2-carboxylic acid;6-[<span class=\"text-smallcaps\">D</span>-(-)-α-Aminophenylacetamido]penicillanic acid;Ampicillin;Binotal;Penbritin;Viccillin;Penicline;Aminobenzylpenicillin;Omnipen;<span class=\"text-smallcaps\">D</span>-(-)-α-Aminobenzylpenicillin;<span class=\"text-smallcaps\">D</span>-(-)-α-Aminopenicillin;Penbritin paediatric;Penbritin syrup;Ampicillin acid;Penicillin, (aminophenylmethyl)-;Ampicillin A;Amblosin;Amplital;Austrapen;Britacil;BRL 1341;Doktacillin;Penbristol;Totapen;Amfipen;Nuvapen;Ultrabron;Amplisom;Ampimed;Guicitrina;<span class=\"text-smallcaps\">D</span>-Ampicillin;<span class=\"text-smallcaps\">D</span>-(-)-Ampicillin;6-[<span class=\"text-smallcaps\">D</span>-(-)-2-Amino-2-phenylacetamido]penicillanic acid;Ampicillin anhydrate;Wy 5103;Penbrock;AY 6108;Semicillin;Viccillin S;Tolomol;<span class=\"text-smallcaps\">D</span>-(-)-6-(α-Aminophenylacetamido)penicillanic acid;Ampivet;Amotital;Roscillin;Synpenin;Olin Kid;Ampisyn;Alpen;P 50;Bonapicillin;Grampenil;Copharcilin;Ultrabion;Ampipenin;Totalciclina;Pentrexyl;Totacillin;Ampi-Bol;QIDamp;Tokiocillin;Marisilan;Amipenix S;Ponecil;Adobacillin;Campicillin;Ficillin;Redicilin;Ampi-kel;Polyflex;Polyflex (antibiotic);Ampicilina;Bacipen;Amipenix;Dumopen;Albipen;Ampitab;Domicillin;NSC 528986;A-Pen;Omnipe;Amcillin;Reichlin;Cincillin;Gobemicina;Britapen;Hiperbiotico;Unacim;MeSH ID: D000667",
    "duplicated_cas_no": "96707-69-6;98520-55-9;800-79-3;8056-87-9;33604-21-6;37234-64-3;47355-94-2;50584-05-9",
    "SMILES": "C(O)(=O)[C@@H]1N2[C@@]([C@H](NC([C@H](N)C3=CC=CC=C3)=O)C2=O)(SC1(C)C)[H]",
    "meta_data": {
        "InChI": "InChI=1S/C16H19N3O4S/c1-16(2)11(15(22)23)19-13(21)10(14(19)24-16)18-12(20)9(17)8-6-4-3-5-7-8/h3-7,9-11,14H,17H2,1-2H3,(H,18,20)(H,22,23)/t9-,10-,11+,14-/m1/s1",
        "InChIKey": null,
        "Canonical SMILES": "O=C(O)C1N2C(=O)C(NC(=O)C(N)C=3C=CC=CC3)C2SC1(C)C",
        "Molecular Formula": "C<sub>16</sub>H<sub>19</sub>N<sub>3</sub>O<sub>4</sub>S",
        "Molecular Mass": "349.40",
        "Melting Point": "202 °C (decomp)"
    }
}