{
    "cas_no": "1323-83-7",
    "key_name": "Glycerol distearate",
    "cn_name": null,
    "alternate_name": "Octadecanoic acid, diester with 1,2,3-propanetriol;Stearin, di-;Glyceryl distearate;Glycerol distearate;Stearic acid diglyceride;Distearin;Diglyceryl stearate;Distearoylglycerol;Glycerin distearate;Stearic diglyceride;Loxiol VP 1206;Nikkol DGS 80;Kessco GDS 386F;Loxiol P 1200;Loxiol P 1206;Estol 374GDST2;Precirol ATO;Emalex EGS-C;Percirol ATO 5",
    "duplicated_cas_no": "28474-96-6",
    "SMILES": "",
    "meta_data": {
        "InChI": "",
        "InChIKey": null,
        "Canonical SMILES": "",
        "Molecular Formula": "C<sub>39</sub>H<sub>76</sub>O<sub>5</sub>",
        "Molecular Mass": "",
        "Melting Point": "74.5 °C"
    }
}