{
    "cas_no": "3602-54-8",
    "key_name": "1-(2,4-Dihydroxy-6-methoxyphenyl)ethanone",
    "cn_name": null,
    "alternate_name": "Ethanone, 1-(2,4-dihydroxy-6-methoxyphenyl)-;Acetophenone, 2′,4′-dihydroxy-6′-methoxy-;Acetophenone, 2,4-dihydroxy-6-methoxy-;1-(2,4-Dihydroxy-6-methoxyphenyl)ethanone;2-<em>O</em>-Methylphloroacetophenone;6-<em>O</em>-Methylphloroacetophenone;2′,4′-Dihydroxy-6′-methoxyacetophenone;1-(2,4-Dihydroxy-6-methoxyphenyl)ethan-1-one",
    "duplicated_cas_no": "",
    "SMILES": "O(C)C1=C(C(C)=O)C(O)=CC(O)=C1",
    "meta_data": {
        "InChI": "InChI=1S/C9H10O4/c1-5(10)9-7(12)3-6(11)4-8(9)13-2/h3-4,11-12H,1-2H3",
        "InChIKey": null,
        "Canonical SMILES": "O=C(C=1C(O)=CC(O)=CC1OC)C",
        "Molecular Formula": "C<sub>9</sub>H<sub>10</sub>O<sub>4</sub>",
        "Molecular Mass": "182.17",
        "Melting Point": "205-207 °C"
    }
}