{
    "cas_no": "84611-23-4",
    "key_name": "Erdosteine",
    "cn_name": null,
    "alternate_name": "Acetic acid, 2-[[2-oxo-2-[(tetrahydro-2-oxo-3-thienyl)amino]ethyl]thio]-;Acetic acid, [[2-oxo-2-[(tetrahydro-2-oxo-3-thienyl)amino]ethyl]thio]-;2-[[2-Oxo-2-[(tetrahydro-2-oxo-3-thienyl)amino]ethyl]thio]acetic acid;Erdosteine;RV 144;Dithiosteine;Secresolv;Erdostin;Mucotec;2-[2-Oxo-2-[(2-oxothiolan-3-yl)amino]ethyl]sulfanylacetic acid;2-([[(2-Oxothiolan-3-yl)carbamoyl]methyl]sulfanyl)acetic acid",
    "duplicated_cas_no": "105426-14-0",
    "SMILES": "N(C(CSCC(O)=O)=O)C1C(=O)SCC1",
    "meta_data": {
        "InChI": "InChI=1S/C8H11NO4S2/c10-6(3-14-4-7(11)12)9-5-1-2-15-8(5)13/h5H,1-4H2,(H,9,10)(H,11,12)",
        "InChIKey": null,
        "Canonical SMILES": "O=C(O)CSCC(=O)NC1C(=O)SCC1",
        "Molecular Formula": "C<sub>8</sub>H<sub>11</sub>NO<sub>4</sub>S<sub>2</sub>",
        "Molecular Mass": "249.31",
        "Melting Point": "156-158 °C"
    }
}