{
    "cas_no": "3878-55-5",
    "key_name": "Monomethyl succinate",
    "cn_name": "丁二酸一甲酯;丁二酸单甲酯;",
    "alternate_name": "Butanedioic acid, 1-methyl ester;Succinic acid, monomethyl ester;Butanedioic acid, monomethyl ester;Succinic acid, methyl ester;Monomethyl succinate;Methyl hydrogen succinate;3-Carbomethoxypropanoic acid;3-(Methoxycarbonyl)propionic acid;NSC 511;4-Methoxy-4-oxobutanoic acid;3-(Methoxycarbonyl)propanoic acid;Methyl monosuccinate;Monomethyl butanedioate;1,4-Butanedioic acid monomethyl ester",
    "duplicated_cas_no": "",
    "SMILES": "C(CCC(O)=O)(OC)=O",
    "meta_data": {
        "InChI": "InChI=1S/C5H8O4/c1-9-5(8)3-2-4(6)7/h2-3H2,1H3,(H,6,7)",
        "InChIKey": null,
        "Canonical SMILES": "O=C(O)CCC(=O)OC",
        "Molecular Formula": "C<sub>5</sub>H<sub>8</sub>O<sub>4</sub>",
        "Molecular Mass": "132.11",
        "Boiling Point": "119 °C @ Press: 4 Torr",
        "Melting Point": "58 °C"
    }
}