{
    "cas_no": "50-74-8",
    "key_name": "2,3,4,5-Tetrachlorobenzoic acid",
    "cn_name": "2,3,4,5-四氯苯甲酸;",
    "alternate_name": "Benzoic acid, 2,3,4,5-tetrachloro-;2,3,4,5-Tetrachlorobenzoic acid",
    "duplicated_cas_no": "",
    "SMILES": "C(O)(=O)C1=C(Cl)C(Cl)=C(Cl)C(Cl)=C1",
    "meta_data": {
        "InChI": "InChI=1S/C7H2Cl4O2/c8-3-1-2(7(12)13)4(9)6(11)5(3)10/h1H,(H,12,13)",
        "InChIKey": null,
        "Canonical SMILES": "O=C(O)C1=CC(Cl)=C(Cl)C(Cl)=C1Cl",
        "Molecular Formula": "C<sub>7</sub>H<sub>2</sub>Cl<sub>4</sub>O<sub>2</sub>",
        "Molecular Mass": "259.90",
        "Melting Point": "190.5-191.5 °C"
    }
}