{
    "cas_no": "21739-92-4",
    "key_name": "5-Bromo-2-chlorobenzoic acid",
    "cn_name": "5-溴-2-氯苯甲酸;2-氯-5-溴苯甲酸;",
    "alternate_name": "Benzoic acid, 5-bromo-2-chloro-;5-Bromo-2-chlorobenzoic acid;2-chloro-5-bromobenzoic acid",
    "duplicated_cas_no": "",
    "SMILES": "C(O)(=O)C1=C(Cl)C=CC(Br)=C1",
    "meta_data": {
        "InChI": "InChI=1S/C7H4BrClO2/c8-4-1-2-6(9)5(3-4)7(10)11/h1-3H,(H,10,11)",
        "InChIKey": null,
        "Canonical SMILES": "O=C(O)C1=CC(Br)=CC=C1Cl",
        "Molecular Formula": "C<sub>7</sub>H<sub>4</sub>BrClO<sub>2</sub>",
        "Molecular Mass": "235.46",
        "Melting Point": "165-167 °C"
    }
}