{
    "cas_no": "605-65-2",
    "key_name": "Dansyl chloride",
    "cn_name": "丹酰氯;5-二甲基氨基-1-萘磺酰氯;",
    "alternate_name": "1-Naphthalenesulfonyl chloride, 5-(dimethylamino)-;5-(Dimethylamino)-1-naphthalenesulfonyl chloride;Dansyl chloride;1-(Dimethylamino)-5-naphthalenesulfonyl chloride;DNS chloride;5-(<em>N</em>,<em>N</em>-Dimethylamino)-1-naphthalenesulfonyl chloride;DNS-Cl;NSC 83616;8-Dimethylamino-1-naphthalenesulfonyl chloride",
    "duplicated_cas_no": "558479-38-2",
    "SMILES": "S(Cl)(=O)(=O)C=1C2=C(C(N(C)C)=CC=C2)C=CC1",
    "meta_data": {
        "InChI": "InChI=1S/C12H12ClNO2S/c1-14(2)11-7-3-6-10-9(11)5-4-8-12(10)17(13,15)16/h3-8H,1-2H3",
        "InChIKey": null,
        "Canonical SMILES": "O=S(=O)(Cl)C1=CC=CC=2C1=CC=CC2N(C)C",
        "Molecular Formula": "C<sub>12</sub>H<sub>12</sub>ClNO<sub>2</sub>S",
        "Molecular Mass": "269.75",
        "Melting Point": "70 °C"
    }
}