{
    "cas_no": "1464-53-5",
    "key_name": "Diepoxybutane",
    "cn_name": null,
    "alternate_name": "2,2′-Bioxirane;Butane, 1,2:3,4-diepoxy-;1,1′-Bi[ethylene oxide];Butadiene diepoxide;Butadiene dioxide;1,2:3,4-Diepoxybutane;Bioxirane;Diepoxybutane;Dioxybutadiene;Butane diepoxide;1,3-Butadiene diepoxide;DEB;NSC 629;1,3-Diepoxybutane;2-(Oxiran-2-yl)oxirane",
    "duplicated_cas_no": "",
    "SMILES": "C1(CO1)C2CO2",
    "meta_data": {
        "InChI": "InChI=1S/C4H6O2/c1-3(5-1)4-2-6-4/h3-4H,1-2H2",
        "InChIKey": null,
        "Canonical SMILES": "O1CC1C2OC2",
        "Molecular Formula": "C<sub>4</sub>H<sub>6</sub>O<sub>2</sub>",
        "Molecular Mass": "86.09",
        "Boiling Point": "138 °C",
        "Melting Point": "-19 °C",
        "Density": "0.962 g/cm³"
    }
}