{
    "cas_no": "17102-64-6",
    "key_name": "(2<em>E</em>,4<em>E</em>)-2,4-Hexadien-1-ol",
    "cn_name": null,
    "alternate_name": "2,4-Hexadien-1-ol, (2<em>E</em>,4<em>E</em>)-;2,4-Hexadien-1-ol, (<em>E</em>,<em>E</em>)-;(2<em>E</em>,4<em>E</em>)-2,4-Hexadien-1-ol;<em>trans</em>-2,4-Hexadienol;<em>trans</em>,<em>trans</em>-2,4-Hexadien-1-ol;Sorbic alcohol;Sorbinic alcohol;Sorbyl alcohol;Sorbinol;(<em>E</em>,<em>E</em>)-2,4-Hexadien-1-ol;(2E,4E)-Hexa-2,4-dien-1-ol",
    "duplicated_cas_no": "",
    "SMILES": "C(\\C=C\\C)=C/CO",
    "meta_data": {
        "InChI": "InChI=1S/C6H10O/c1-2-3-4-5-6-7/h2-5,7H,6H2,1H3/b3-2+,5-4+",
        "InChIKey": null,
        "Canonical SMILES": "OCC=CC=CC",
        "Molecular Formula": "C<sub>6</sub>H<sub>10</sub>O",
        "Molecular Mass": "98.14",
        "Boiling Point": "76-77 °C @ Press: 12 Torr",
        "Melting Point": "30.5 °C",
        "Density": "0.884 g/cm³ @ Temp: 18 °C"
    }
}