{
    "cas_no": "653601-27-5",
    "key_name": "1<em>H</em>-Imidazolium, 3-hexyl-1,2-dimethyl-, hexafluorophosphate(1-) (1:1)",
    "cn_name": null,
    "alternate_name": "1<em>H</em>-Imidazolium, 3-hexyl-1,2-dimethyl-, hexafluorophosphate(1-) (1:1);1<em>H</em>-Imidazolium, 1-hexyl-2,3-dimethyl-, hexafluorophosphate(1-);1-Hexyl-2,3-dimethylimidazolium hexafluorophosphate",
    "duplicated_cas_no": "",
    "SMILES": "C(CCCCC)[N+]1=C(C)N(C)C=C1.[P+5]([F-])([F-])([F-])([F-])([F-])[F-]",
    "meta_data": {
        "InChI": "InChI=1S/C11H21N2.F6P/c1-4-5-6-7-8-13-10-9-12(3)11(13)2;1-7(2,3,4,5)6/h9-10H,4-8H2,1-3H3;/q+1;-1",
        "InChIKey": null,
        "Canonical SMILES": "[F-][P+5]([F-])([F-])([F-])([F-])[F-].C1=C[N+](=C(N1C)C)CCCCCC",
        "Molecular Formula": "C<sub>11</sub>H<sub>21</sub>N<sub>2</sub>.F<sub>6</sub>P",
        "Molecular Mass": "",
        "Melting Point": "60 °C"
    }
}