{
    "cas_no": "2568-25-4",
    "key_name": "4-Methyl-2-phenyl-1,3-dioxolane",
    "cn_name": "苯甲醛丙二醇缩醛;4-甲基-2-苯基-1,3-二氧杂环戊烷;",
    "alternate_name": "1,3-Dioxolane, 4-methyl-2-phenyl-;4-Methyl-2-phenyl-1,3-dioxolane;Benzaldehyde propylene glycol acetal;2-Phenyl-4-methyl-1,3-dioxolane",
    "duplicated_cas_no": "",
    "SMILES": "CC1OC(OC1)C2=CC=CC=C2",
    "meta_data": {
        "InChI": "InChI=1S/C10H12O2/c1-8-7-11-10(12-8)9-5-3-2-4-6-9/h2-6,8,10H,7H2,1H3",
        "InChIKey": null,
        "Canonical SMILES": "O1CC(OC1C=2C=CC=CC2)C",
        "Molecular Formula": "C<sub>10</sub>H<sub>12</sub>O<sub>2</sub>",
        "Molecular Mass": "164.20",
        "Boiling Point": "114-116 °C @ Press: 16 Torr"
    }
}