{
    "cas_no": "15869-93-9",
    "key_name": "3,5-Dimethyloctane",
    "cn_name": "3,5-二甲基辛烷;",
    "alternate_name": "Octane, 3,5-dimethyl-;3,5-Dimethyloctane",
    "duplicated_cas_no": "",
    "SMILES": "C(C(CCC)C)C(CC)C",
    "meta_data": {
        "InChI": "InChI=1S/C10H22/c1-5-7-10(4)8-9(3)6-2/h9-10H,5-8H2,1-4H3",
        "InChIKey": null,
        "Canonical SMILES": "CCCC(C)CC(C)CC",
        "Molecular Formula": "C<sub>10</sub>H<sub>22</sub>",
        "Molecular Mass": "142.28",
        "Boiling Point": "159.4 °C",
        "Density": "0.7151 g/cm³ @ Temp: 20 °C"
    }
}