{
    "cas_no": "314-19-2",
    "key_name": "(-)-Apomorphine hydrochloride",
    "cn_name": "R-(-)-阿朴吗啡盐酸盐;阿扑吗啡;盐酸去水吗啡;烟酸阿朴吗啡;盐酸阿朴吗啡;變嗎啡鹼鹽酸鹽;",
    "alternate_name": "4<em>H</em>-Dibenzo[<em>de</em>,<em>g</em>]quinoline-10,11-diol, 5,6,6a,7-tetrahydro-6-methyl-, hydrochloride (1:1), (6a<em>R</em>)-;6aβ-Aporphine-10,11-diol, hydrochloride;4<em>H</em>-Dibenzo[<em>de</em>,<em>g</em>]quinoline-10,11-diol, 5,6,6a,7-tetrahydro-6-methyl-, hydrochloride, (<em>R</em>)-;4<em>H</em>-Dibenzo[<em>de</em>,<em>g</em>]quinoline-10,11-diol, 5,6,6a,7-tetrahydro-6-methyl-, hydrochloride, (6a<em>R</em>)-;Apomorphine hydrochloride;(-)-Apomorphine hydrochloride;Apomorphinium chloride;<em>R</em>-(-)-Apomorphine hydrochloride;Uprima;NSC 11442;(R)-6-Methyl-5,6,6a,7-tetrahydro-4<em>H</em>-dibenzo[<em>de</em>,<em>g</em>]quinoline-10,11-diol hydrochloride;Ixense;Taluvian",
    "duplicated_cas_no": "5896-07-1",
    "SMILES": "CN1[C@]2(C=3C(C=4C(C2)=CC=C(O)C4O)=CC=CC3CC1)[H].Cl",
    "meta_data": {
        "InChI": "InChI=1S/C17H17NO2.ClH/c1-18-8-7-10-3-2-4-12-15(10)13(18)9-11-5-6-14(19)17(20)16(11)12;/h2-6,13,19-20H,7-9H2,1H3;1H/t13-;/m1./s1",
        "InChIKey": null,
        "Canonical SMILES": "Cl.OC1=CC=C2C(=C1O)C=3C=CC=C4C3C(N(C)CC4)C2",
        "Molecular Formula": "C<sub>17</sub>H<sub>17</sub>NO<sub>2</sub>.ClH",
        "Molecular Mass": "",
        "Melting Point": "&gt;250 °C"
    }
}