{
    "cas_no": "52479-85-3",
    "key_name": "Exifone",
    "cn_name": "依昔苯酮;3,4,5,2\",3\",4\"-六羟基二苯甲酮;",
    "alternate_name": "Methanone, (2,3,4-trihydroxyphenyl)(3,4,5-trihydroxyphenyl)-;(2,3,4-Trihydroxyphenyl)(3,4,5-trihydroxyphenyl)methanone;4-Galloylpyrogallol;2,3,3′,4,4′,5′-Hexahydroxybenzophenone;3,4,5,2′,3′,4′-Hexahydroxybenzophenone;Exifone;Adlone;2,3,4,3′,4′,5′-Hexahydroxybenzophenone;NSC 680919",
    "duplicated_cas_no": "72841-23-7",
    "SMILES": "C(=O)(C1=CC(O)=C(O)C(O)=C1)C2=C(O)C(O)=C(O)C=C2",
    "meta_data": {
        "InChI": "InChI=1S/C13H10O7/c14-7-2-1-6(11(18)13(7)20)10(17)5-3-8(15)12(19)9(16)4-5/h1-4,14-16,18-20H",
        "InChIKey": null,
        "Canonical SMILES": "O=C(C1=CC(O)=C(O)C(O)=C1)C2=CC=C(O)C(O)=C2O",
        "Molecular Formula": "C<sub>13</sub>H<sub>10</sub>O<sub>7</sub>",
        "Molecular Mass": "278.21",
        "Melting Point": "270 °C"
    }
}