{
    "cas_no": "4083-64-1",
    "key_name": "<em>p</em>-Toluenesulfonyl isocyanate",
    "cn_name": "对甲基苯磺酰异氰酸酯;PTSI;",
    "alternate_name": "Benzenesulfonyl isocyanate, 4-methyl-;<em>p</em>-Toluenesulfonic acid, anhydride with isocyanic acid;Isocyanic acid, anhydride with <em>p</em>-toluenesulfonic acid;4-Methylbenzenesulfonyl isocyanate;<em>p</em>-Toluenesulfonyl isocyanate;4-Toluenesulfonyl isocyanate;<em>p</em>-Tosyl isocyanate;<em>p</em>-Methylphenylsulfonyl isocyanate;4-Methylphenylsulfonyl isocyanate;Tosyl isocyanate;<em>p</em>-Methylbenzenesulfonyl isocyanate;Additive TI;PTSI;Toluenesulfonyl isocyanate;4-Toluolsulfonyl isocyanate;HK-additive TI;TI;Dow TI;4-Methylbenzene-1-sulfonyl isocyanate",
    "duplicated_cas_no": "102086-99-7",
    "SMILES": "S(N=C=O)(=O)(=O)C1=CC=C(C)C=C1",
    "meta_data": {
        "InChI": "InChI=1S/C8H7NO3S/c1-7-2-4-8(5-3-7)13(11,12)9-6-10/h2-5H,1H3",
        "InChIKey": null,
        "Canonical SMILES": "O=C=NS(=O)(=O)C1=CC=C(C=C1)C",
        "Molecular Formula": "C<sub>8</sub>H<sub>7</sub>NO<sub>3</sub>S",
        "Molecular Mass": "197.21",
        "Boiling Point": "114-116 °C @ Press: 0.3-0.5 Torr",
        "Melting Point": "188-189 °C",
        "Density": "3.877 g/cm³ @ Temp: 827 °C"
    }
}