{
    "cas_no": "110-97-4",
    "key_name": "Diisopropanolamine",
    "cn_name": "二异丙醇胺;2,2\"-二羟基二丙胺;",
    "alternate_name": "2-Propanol, 1,1′-iminobis-;2-Propanol, 1,1′-iminodi-;1,1′-Iminobis[2-propanol];Diisopropanolamine;1,1′-Iminodi-2-propanol;Bis(2-hydroxypropyl)amine;Bis(2-propanol)amine;DIPA;<em>N</em>,<em>N</em>-Bis(2-hydroxypropyl)amine;DIPA (alcohol);Di-2-propanolamine;NSC 4963;<em>N</em>,<em>N</em>-Diisopropanolamine;1-[(2-Hydroxypropyl)amino]propan-2-ol;1-(2-Hydroxypropylamino)propan-2-ol;PC DIPA",
    "duplicated_cas_no": "1335-54-2;1141787-00-9",
    "SMILES": "N(CC(C)O)CC(C)O",
    "meta_data": {
        "InChI": "InChI=1S/C6H15NO2/c1-5(8)3-7-4-6(2)9/h5-9H,3-4H2,1-2H3",
        "InChIKey": null,
        "Canonical SMILES": "OC(C)CNCC(O)C",
        "Molecular Formula": "C<sub>6</sub>H<sub>15</sub>NO<sub>2</sub>",
        "Molecular Mass": "133.19",
        "Boiling Point": "249-250 °C @ Press: 745 Torr",
        "Melting Point": "44.5-45.5 °C",
        "Density": "0.989 g/cm³ @ Temp: 20 °C"
    }
}