{
    "cas_no": "359-06-8",
    "key_name": "2-Fluoroacetyl chloride",
    "cn_name": null,
    "alternate_name": "Acetyl chloride, 2-fluoro-;Acetyl chloride, fluoro-;2-Fluoroacetyl chloride;Fluoroacetyl chloride",
    "duplicated_cas_no": "",
    "SMILES": "C(CF)(Cl)=O",
    "meta_data": {
        "InChI": "InChI=1S/C2H2ClFO/c3-2(5)1-4/h1H2",
        "InChIKey": null,
        "Canonical SMILES": "O=C(Cl)CF",
        "Molecular Formula": "C<sub>2</sub>H<sub>2</sub>ClFO",
        "Molecular Mass": "96.49",
        "Boiling Point": "70-71 °C @ Press: 755 Torr",
        "Melting Point": "101 °C",
        "Density": "1.3813 g/cm³ @ Temp: 20 °C"
    }
}