{
    "cas_no": "877399-74-1",
    "key_name": "<em>tert</em>-Butyl 4-[4-(4,4,5,5-tetramethyl-1,3,2-dioxaborolan-2-yl)-1<em>H</em>-pyrazol-1-yl]piperidine-1-carboxylate",
    "cn_name": null,
    "alternate_name": "1-Piperidinecarboxylic acid, 4-[4-(4,4,5,5-tetramethyl-1,3,2-dioxaborolan-2-yl)-1<em>H</em>-pyrazol-1-yl]-, 1,1-dimethylethyl ester;<em>tert</em>-Butyl 4-[4-(4,4,5,5-tetramethyl-1,3,2-dioxaborolan-2-yl)-1<em>H</em>-pyrazol-1-yl]piperidine-1-carboxylate;4-(4-(4,4,5,5-Tetramethyl-1,3,2-dioxaborolan-2-yl)pyrazol-1-yl)piperidine-1-carboxylic acid tert-butyl ester;4-[4-(4,4,5,5-Tetramethyl[1,3,2]dioxaborolan-2-yl)-1<em>H</em>-pyrazol-1-yl]piperidine-1-carboxylic acid tert-butyl ester;1-[1-(<em>tert</em>-Butoxycarbonyl)piperidin-4-yl]-4-(4,4,5,5-tetramethyl-1,3,2-dioxaborolan-2-yl)-1<em>H</em>-pyrazole;<em>tert</em>-Butyl 4-[4-(4,4,5,5-tetramethyl-1,3,2-dioxaborolan-2-yl)pyrazol-1-yl]piperidine-1-carboxylate;4-[4-(4,4,5,5-Tetramethyl-[1,3,2]dioxaborolan-2-yl)-pyrazol-1-yl]-piperidin-1-carboxylic acid tert-butyl ester",
    "duplicated_cas_no": "1309961-08-7;2408769-20-8",
    "SMILES": "CC1(C)OB(OC1(C)C)C2=CN(N=C2)C3CCN(C(OC(C)(C)C)=O)CC3",
    "meta_data": {
        "InChI": "InChI=1S/C19H32BN3O4/c1-17(2,3)25-16(24)22-10-8-15(9-11-22)23-13-14(12-21-23)20-26-18(4,5)19(6,7)27-20/h12-13,15H,8-11H2,1-7H3",
        "InChIKey": null,
        "Canonical SMILES": "O=C(OC(C)(C)C)N1CCC(N2N=CC(=C2)B3OC(C)(C)C(O3)(C)C)CC1",
        "Molecular Formula": "C<sub>19</sub>H<sub>32</sub>BN<sub>3</sub>O<sub>4</sub>",
        "Molecular Mass": "377.29",
        "Melting Point": "95 °C"
    }
}