{
    "cas_no": "6336-50-1",
    "key_name": "6-Benzyl-2-thiouracil",
    "cn_name": null,
    "alternate_name": "4(1<em>H</em>)-Pyrimidinone, 2,3-dihydro-6-(phenylmethyl)-2-thioxo-;Uracil, 6-benzyl-2-thio-;2,3-Dihydro-6-(phenylmethyl)-2-thioxo-4(1<em>H</em>)-pyrimidinone;6-Benzyl-2-thiouracil;Basdene;NSC 39511;NSC 6508;Bentiuracil;ZINC 08580452",
    "duplicated_cas_no": "28176-06-9",
    "SMILES": "C(C1=CC(=O)NC(=S)N1)C2=CC=CC=C2",
    "meta_data": {
        "InChI": "InChI=1S/C11H10N2OS/c14-10-7-9(12-11(15)13-10)6-8-4-2-1-3-5-8/h1-5,7H,6H2,(H2,12,13,14,15)",
        "InChIKey": null,
        "Canonical SMILES": "O=C1C=C(NC(=S)N1)CC=2C=CC=CC2",
        "Molecular Formula": "C<sub>11</sub>H<sub>10</sub>N<sub>2</sub>OS",
        "Molecular Mass": "218.27",
        "Melting Point": "216-219 °C"
    }
}