{
    "cas_no": "36840-85-4",
    "key_name": "1,1′-(1,5-Pentanediyl) di-2-propenoate",
    "cn_name": "1,5-戊二醇二丙烯酸酯;",
    "alternate_name": "2-Propenoic acid, 1,1′-(1,5-pentanediyl) ester;2-Propenoic acid, 1,5-pentanediyl ester;1,1′-(1,5-Pentanediyl) di-2-propenoate;1,5-Pentanediol diacrylate;Pentamethylene diacrylate;1,5-Pentamethylene diacrylate;1,5-Pentanediyl bisacrylate",
    "duplicated_cas_no": "",
    "SMILES": "C(OCCCCCOC(C=C)=O)(C=C)=O",
    "meta_data": {
        "InChI": "InChI=1S/C11H16O4/c1-3-10(12)14-8-6-5-7-9-15-11(13)4-2/h3-4H,1-2,5-9H2",
        "InChIKey": null,
        "Canonical SMILES": "O=C(OCCCCCOC(=O)C=C)C=C",
        "Molecular Formula": "C<sub>11</sub>H<sub>16</sub>O<sub>4</sub>",
        "Molecular Mass": "212.24",
        "Boiling Point": "90-95 °C @ Press: 0.1 Torr"
    }
}