{
    "cas_no": "617-05-0",
    "key_name": "Ethyl vanillate",
    "cn_name": "香草酸乙酯;4-羟基-3-甲氧基苯甲酸乙酯;",
    "alternate_name": "Benzoic acid, 4-hydroxy-3-methoxy-, ethyl ester;Vanillic acid, ethyl ester;Ethyl vanillate;4-Hydroxy-3-methoxybenzoic acid ethyl ester;Ethyl 4-hydroxy-3-methoxybenzoate;Ethyl 3-methoxy-4-hydroxybenzoate;NSC 8513;Vanillin acid ethyl ester",
    "duplicated_cas_no": "1383616-21-4",
    "SMILES": "C(OCC)(=O)C1=CC(OC)=C(O)C=C1",
    "meta_data": {
        "InChI": "InChI=1S/C10H12O4/c1-3-14-10(12)7-4-5-8(11)9(6-7)13-2/h4-6,11H,3H2,1-2H3",
        "InChIKey": null,
        "Canonical SMILES": "O=C(OCC)C1=CC=C(O)C(OC)=C1",
        "Molecular Formula": "C<sub>10</sub>H<sub>12</sub>O<sub>4</sub>",
        "Molecular Mass": "196.20",
        "Boiling Point": "292 °C",
        "Melting Point": "44 °C"
    }
}