{
    "cas_no": "2133-34-8",
    "key_name": "(-)-Azetidinecarboxylic acid",
    "cn_name": "(S)-(-)-2-羧基环丁胺;2-吖丁啶羧酸;(S)-氮杂环丁烷-2-羧酸;",
    "alternate_name": "2-Azetidinecarboxylic acid, (2<em>S</em>)-;2-Azetidinecarboxylic acid, <span class=\"text-smallcaps\">L</span>-;2-Azetidinecarboxylic acid, (<em>S</em>)-;(2<em>S</em>)-2-Azetidinecarboxylic acid;<span class=\"text-smallcaps\">L</span>-2-Azetidinecarboxylic acid;(<em>S</em>)-Azetidine-2-carboxylic acid;(<em>S</em>)-(-)-2-Azetidine carboxylic acid;(2<em>S</em>)-Azetidine-2-carboxylic acid;(-)-Azetidinecarboxylic acid;2-Azetidinecarboxylic acid (2S)-",
    "duplicated_cas_no": "",
    "SMILES": "C(O)(=O)[C@@H]1CCN1",
    "meta_data": {
        "InChI": "InChI=1S/C4H7NO2/c6-4(7)3-1-2-5-3/h3,5H,1-2H2,(H,6,7)/t3-/m0/s1",
        "InChIKey": null,
        "Canonical SMILES": "O=C(O)C1NCC1",
        "Molecular Formula": "C<sub>4</sub>H<sub>7</sub>NO<sub>2</sub>",
        "Molecular Mass": "101.10",
        "Melting Point": "212 °C (decomp)"
    }
}