{
    "cas_no": "293-96-9",
    "key_name": "Cyclodecane",
    "cn_name": "环癸烷;环癸烷;環癸烷;",
    "alternate_name": "Cyclodecane",
    "duplicated_cas_no": "",
    "SMILES": "C1CCCCCCCCC1",
    "meta_data": {
        "InChI": "InChI=1S/C10H20/c1-2-4-6-8-10-9-7-5-3-1/h1-10H2",
        "InChIKey": null,
        "Canonical SMILES": "C1CCCCCCCCC1",
        "Molecular Formula": "C<sub>10</sub>H<sub>20</sub>",
        "Molecular Mass": "140.27",
        "Boiling Point": "202 °C",
        "Melting Point": "10 °C",
        "Density": "0.8577 g/cm³ @ Temp: 20.4 °C"
    }
}