{
    "cas_no": "63500-71-0",
    "key_name": "Tetrahydro-4-methyl-2-(2-methylpropyl)-2<em>H</em>-pyran-4-ol",
    "cn_name": null,
    "alternate_name": "2<em>H</em>-Pyran-4-ol, tetrahydro-4-methyl-2-(2-methylpropyl)-;Tetrahydro-4-methyl-2-(2-methylpropyl)-2<em>H</em>-pyran-4-ol;Rozanol;Florosa;2-(2-Methylpropyl)-4-hydroxy-4-methyltetrahydropyran;4-Hydroxy-4-methyl-2-(2-methylpropyl)tetrahydropyran;2-Isobutyl-4-hydroxy-4-methyltetrahydropyran;2-Isobutyl-4-methyltetrahydropyran-4-ol;2-Isobutyl-4-methyltetrahydro-2<em>H</em>-pyran-4-ol;4-Methyl-2-(2-methylpropyl)tetrahydro-2<em>H</em>-pyran-4-ol",
    "duplicated_cas_no": "",
    "SMILES": "C(C(C)C)C1CC(C)(O)CCO1",
    "meta_data": {
        "InChI": "InChI=1S/C10H20O2/c1-8(2)6-9-7-10(3,11)4-5-12-9/h8-9,11H,4-7H2,1-3H3",
        "InChIKey": null,
        "Canonical SMILES": "OC1(C)CCOC(CC(C)C)C1",
        "Molecular Formula": "C<sub>10</sub>H<sub>20</sub>O<sub>2</sub>",
        "Molecular Mass": "172.26",
        "Boiling Point": "93-95 °C @ Press: 3 Torr",
        "Density": "0.9516 g/cm³ @ Temp: 20 °C"
    }
}