{
    "cas_no": "543-21-5",
    "key_name": "Cellocidin",
    "cn_name": "乙炔二羰酰胺;",
    "alternate_name": "2-Butynediamide;Acetylenedicarboxamide;Acetylenedicarboxylic acid diamide;Aquamycin;Cellocidin;Lenamycin;Acetylene diamide;NSC 38643;NSC 65381",
    "duplicated_cas_no": "102489-37-2",
    "SMILES": "C(#CC(N)=O)C(N)=O",
    "meta_data": {
        "InChI": "InChI=1S/C4H4N2O2/c5-3(7)1-2-4(6)8/h(H2,5,7)(H2,6,8)",
        "InChIKey": null,
        "Canonical SMILES": "O=C(C#CC(=O)N)N",
        "Molecular Formula": "C<sub>4</sub>H<sub>4</sub>N<sub>2</sub>O<sub>2</sub>",
        "Molecular Mass": "112.09",
        "Melting Point": "217 °C (decomp)"
    }
}