{
    "cas_no": "1622-57-7",
    "key_name": "1-Methyl-1<em>H</em>-benzimidazol-2-amine",
    "cn_name": "2-氨基-1-甲基苯并咪唑;2-氨-1-甲基苯咪唑;",
    "alternate_name": "1<em>H</em>-Benzimidazol-2-amine, 1-methyl-;Benzimidazole, 2-amino-1-methyl-;1-Methyl-1<em>H</em>-benzimidazol-2-amine;2-Amino-1-methylbenzimidazole;1-Methyl-2-aminobenzimidazole;2-Amino-1-methyl-1<em>H</em>-benzimidazole;1-Methyl-1<em>H</em>-benzo[<em>d</em>]imidazol-2-amine;1-Methylbenzimidazol-2-amine;1-Methyl-1<em>H</em>-benz[<em>d</em>]-imidazol-2-amine;1-Methyl-1<em>H</em>-1,3-benzodiazol-2-amine;1-Methyl-1<em>H</em>-benzoimidazol-2-ylamine",
    "duplicated_cas_no": "",
    "SMILES": "CN1C=2C(N=C1N)=CC=CC2",
    "meta_data": {
        "InChI": "InChI=1S/C8H9N3/c1-11-7-5-3-2-4-6(7)10-8(11)9/h2-5H,1H3,(H2,9,10)",
        "InChIKey": null,
        "Canonical SMILES": "N=1C=2C=CC=CC2N(C1N)C",
        "Molecular Formula": "C<sub>8</sub>H<sub>9</sub>N<sub>3</sub>",
        "Molecular Mass": "147.18",
        "Melting Point": "201-202 °C"
    }
}