{
    "cas_no": "89466-18-2",
    "key_name": "6-Bromo-2-methoxy-3-pyridinamine",
    "cn_name": "3-氨基-2-甲氧基-6-溴吡啶;",
    "alternate_name": "3-Pyridinamine, 6-bromo-2-methoxy-;Pyridine, 3-amino-6-bromo-2-methoxy-;6-Bromo-2-methoxy-3-pyridinamine;5-Amino-2-bromo-6-methoxypyridine;3-Amino-6-bromo-2-methoxypyridine;(6-Bromo-2-methoxypyridin-3-yl)amine",
    "duplicated_cas_no": "",
    "SMILES": "O(C)C1=C(N)C=CC(Br)=N1",
    "meta_data": {
        "InChI": "InChI=1S/C6H7BrN2O/c1-10-6-4(8)2-3-5(7)9-6/h2-3H,8H2,1H3",
        "InChIKey": null,
        "Canonical SMILES": "BrC=1N=C(OC)C(N)=CC1",
        "Molecular Formula": "C<sub>6</sub>H<sub>7</sub>BrN<sub>2</sub>O",
        "Molecular Mass": "203.04",
        "Melting Point": "78-79 °C (sublm)"
    }
}