{
    "cas_no": "19500-95-9",
    "key_name": "Acetic acid, 2-methoxy-, anhydride",
    "cn_name": null,
    "alternate_name": "Acetic acid, 2-methoxy-, anhydride;Acetic acid, methoxy-, anhydride;Methoxyacetic anhydride;Methoxyacetic acid anhydride;2-Methoxyacetic anhydride;Methoxyethanoic anhydride",
    "duplicated_cas_no": "",
    "SMILES": "C(OC(COC)=O)(COC)=O",
    "meta_data": {
        "InChI": "InChI=1S/C6H10O5/c1-9-3-5(7)11-6(8)4-10-2/h3-4H2,1-2H3",
        "InChIKey": null,
        "Canonical SMILES": "O=C(OC(=O)COC)COC",
        "Molecular Formula": "C<sub>6</sub>H<sub>10</sub>O<sub>5</sub>",
        "Molecular Mass": "162.14",
        "Boiling Point": "124-128 °C @ Press: 20 Torr"
    }
}