{
    "cas_no": "352303-67-4",
    "key_name": "2-Fluoro-3-methoxyphenylboronic acid",
    "cn_name": "2-氟-3-甲氧基苯硼酸;",
    "alternate_name": "Boronic acid, <em>B</em>-(2-fluoro-3-methoxyphenyl)-;Boronic acid, (2-fluoro-3-methoxyphenyl)-;<em>B</em>-(2-Fluoro-3-methoxyphenyl)boronic acid;2-Fluoro-3-methoxyphenylboronic acid;(3-Methoxy-2-fluorophenyl)boronic acid;2-Fluoro-3-methoxybenzeneboronic acid",
    "duplicated_cas_no": "",
    "SMILES": "B(O)(O)C1=C(F)C(OC)=CC=C1",
    "meta_data": {
        "InChI": "InChI=1S/C7H8BFO3/c1-12-6-4-2-3-5(7(6)9)8(10)11/h2-4,10-11H,1H3",
        "InChIKey": null,
        "Canonical SMILES": "FC=1C(OC)=CC=CC1B(O)O",
        "Molecular Formula": "C<sub>7</sub>H<sub>8</sub>BFO<sub>3</sub>",
        "Molecular Mass": "169.95",
        "Melting Point": "205-206 °C"
    }
}