{
    "cas_no": "113036-88-7",
    "key_name": "Flucycloxuron",
    "cn_name": "氟螨脲;",
    "alternate_name": "Benzamide, <em>N</em>-[[[4-[[[[(4-chlorophenyl)cyclopropylmethylene]amino]oxy]methyl]phenyl]amino]carbonyl]-2,6-difluoro-;<em>N</em>-[[[4-[[[[(4-Chlorophenyl)cyclopropylmethylene]amino]oxy]methyl]phenyl]amino]carbonyl]-2,6-difluorobenzamide;Flucycloxuron;PH 70-23;DU 319722;UBI-A 1335;OMS 3041;Andalin;A 1335;Andalin DC 25",
    "duplicated_cas_no": "",
    "SMILES": "C(=NOCC1=CC=C(NC(NC(=O)C2=C(F)C=CC=C2F)=O)C=C1)(C3CC3)C4=CC=C(Cl)C=C4",
    "meta_data": {
        "InChI": "InChI=1S/C25H20ClF2N3O3/c26-18-10-8-17(9-11-18)23(16-6-7-16)31-34-14-15-4-12-19(13-5-15)29-25(33)30-24(32)22-20(27)2-1-3-21(22)28/h1-5,8-13,16H,6-7,14H2,(H2,29,30,32,33)",
        "InChIKey": null,
        "Canonical SMILES": "O=C(NC(=O)C=1C(F)=CC=CC1F)NC2=CC=C(C=C2)CON=C(C3=CC=C(Cl)C=C3)C4CC4",
        "Molecular Formula": "C<sub>25</sub>H<sub>20</sub>ClF<sub>2</sub>N<sub>3</sub>O<sub>3</sub>",
        "Molecular Mass": "483.89",
        "Melting Point": "143.6 °C"
    }
}