{
    "cas_no": "1779-60-8",
    "key_name": "Propyl acetoacetate",
    "cn_name": "乙酰乙酸正丙酯;",
    "alternate_name": "Butanoic acid, 3-oxo-, propyl ester;Acetoacetic acid, propyl ester;Propyl acetoacetate;Propyl 3-oxobutanoate;NSC 42862;<em>n</em>-Propyl acetoacetate",
    "duplicated_cas_no": "",
    "SMILES": "C(C(OCCC)=O)C(C)=O",
    "meta_data": {
        "InChI": "InChI=1S/C7H12O3/c1-3-4-10-7(9)5-6(2)8/h3-5H2,1-2H3",
        "InChIKey": null,
        "Canonical SMILES": "O=C(OCCC)CC(=O)C",
        "Molecular Formula": "C<sub>7</sub>H<sub>12</sub>O<sub>3</sub>",
        "Molecular Mass": "144.17",
        "Boiling Point": "78 °C @ Press: 11 Torr",
        "Melting Point": "158-160 °C",
        "Density": "0.9959 g/cm³ @ Temp: 25 °C"
    }
}