{
    "cas_no": "141-90-2",
    "key_name": "Thiouracil",
    "cn_name": "2-硫脲嘧啶;",
    "alternate_name": "4(1<em>H</em>)-Pyrimidinone, 2,3-dihydro-2-thioxo-;Uracil, 2-thio-;2,3-Dihydro-2-thioxo-4(1<em>H</em>)-pyrimidinone;6-Hydroxy-2-mercaptopyrimidine;2-Mercapto-4-hydroxypyrimidine;2-Thiouracil;Thiouracil;2-Mercapto-4-pyrimidinol;Antagothyroil;Deracil;Nobilen;4-Hydroxy-2-pyrimidinethiol;4-Hydroxy-2-mercaptopyrimidine;2-Mercapto-4-pyrimidinone;NSC 19473;NSC 290412;NSC 290413;NSC 290414;2-Thioxo-2,3-dihydropyrimidin-4(1<em>H</em>)-one;2-Sulfanyl-3,4-dihydropyrimidin-4-one;2-Sulfanylidene-1<em>H</em>-pyrimidin-4-one;2-Sulfanylpyrimidin-4-ol;2-Sulfanylidene-1,2,3,4-tetrahydropyrimidin-4-one;2-Mercapto-3<em>H</em>-pyrimidin-4-one;2-Thioxo-2,3-dihydro-1<em>H</em>-pyrimidin-4-one;MeSH ID: D013889",
    "duplicated_cas_no": "107646-88-8;107646-89-9;156-82-1;4401-53-0;4401-54-1",
    "SMILES": "O=C1NC(=S)NC=C1",
    "meta_data": {
        "InChI": "InChI=1S/C4H4N2OS/c7-3-1-2-5-4(8)6-3/h1-2H,(H2,5,6,7,8)",
        "InChIKey": null,
        "Canonical SMILES": "O=C1C=CNC(=S)N1",
        "Molecular Formula": "C<sub>4</sub>H<sub>4</sub>N<sub>2</sub>OS",
        "Molecular Mass": "128.15",
        "Melting Point": "&gt;340 °C (decomp)"
    }
}