{
    "cas_no": "56326-98-8",
    "key_name": "1-(4-Fluorophenyl)-4-oxocyclohexanecarbonitrile",
    "cn_name": "4-氰-4-(4-氟苯基)环己酮;",
    "alternate_name": "Cyclohexanecarbonitrile, 1-(4-fluorophenyl)-4-oxo-;1-(4-Fluorophenyl)-4-oxocyclohexanecarbonitrile;4-Cyano-4-(4-fluorophenyl)cyclohexanone;4-Cyano-4-(4-fluorophenyl)cyclohexan-1-one",
    "duplicated_cas_no": "",
    "SMILES": "C(#N)C1(CCC(=O)CC1)C2=CC=C(F)C=C2",
    "meta_data": {
        "InChI": "InChI=1S/C13H12FNO/c14-11-3-1-10(2-4-11)13(9-15)7-5-12(16)6-8-13/h1-4H,5-8H2",
        "InChIKey": null,
        "Canonical SMILES": "N#CC1(C2=CC=C(F)C=C2)CCC(=O)CC1",
        "Molecular Formula": "C<sub>13</sub>H<sub>12</sub>FNO",
        "Molecular Mass": "217.24",
        "Melting Point": "80-84 °C"
    }
}