{
    "cas_no": "143-07-7",
    "key_name": "Lauric acid",
    "cn_name": "月桂酸;十二酸;正十二酸;十二烷酸;",
    "alternate_name": "Dodecanoic acid;Lauric acid;Laurostearic acid;1-Undecanecarboxylic acid;ABL (dodecanoic acid);Aliphat No. 4;Univol U 314;Dodecylic acid;Vulvic acid;Neo-Fat 12-43;<em>n</em>-Dodecanoic acid;Neo-Fat 12;Lunac L 70;Emery 651;Prifac 2920;Nissan NAA 122;Lunac L 98;Hystrene 9512;NAA 312;Kortacid 1299;Philacid 1200;Edenor C 1298-100;NSC 5026;NAA 122;Prifac 2922;Edenor C 12;Prifrac 2920;ContraZeck;1-Dodecanoic acid;Imex C 1299;Palmac 98-12;Edenor 12/98-100;Palmera B 1231;Edenor C 12-98-100;Lasacid FC 12;Laurates;Dodecanoates;Palmae 99-12;D 97385;Edenor C12-99;Coconut Hard 34;Coconut Hard 42;Radiacid 0624;NS 6;FA12:0;Pofac 1299;Palmera A 9912;LA 1299;SY-LA 0002;MeSH ID: D007848;NAAR 122",
    "duplicated_cas_no": "7632-48-6;8000-62-2;8045-27-0;203714-07-2",
    "SMILES": "C(CCCCCCCC)CCC(O)=O",
    "meta_data": {
        "InChI": "InChI=1S/C12H24O2/c1-2-3-4-5-6-7-8-9-10-11-12(13)14/h2-11H2,1H3,(H,13,14)",
        "InChIKey": null,
        "Canonical SMILES": "O=C(O)CCCCCCCCCCC",
        "Molecular Formula": "C<sub>12</sub>H<sub>24</sub>O<sub>2</sub>",
        "Molecular Mass": "200.32",
        "Boiling Point": "298.9 °C",
        "Melting Point": "44.2 °C",
        "Density": "0.883 g/cm³ @ Temp: 20 °C"
    }
}