{
    "cas_no": "51586-24-4",
    "key_name": "α-(Trifluoromethyl)benzenemethanamine",
    "cn_name": null,
    "alternate_name": "Benzenemethanamine, α-(trifluoromethyl)-;α-(Trifluoromethyl)benzenemethanamine;α-Trifluoromethylbenzylamine;2,2,2-Trifluoro-1-phenylethylamine;1-Phenyl-2,2,2-trifluoroethylamine;2,2,2-Trifluoro-1-phenylethanamine;2,2,2-Trifluoro-1-phenylethan-1-amine;1-Phenyl-2,2,2-trifluoroethanamine",
    "duplicated_cas_no": "65732-17-4",
    "SMILES": "C(C(F)(F)F)(N)C1=CC=CC=C1",
    "meta_data": {
        "InChI": "InChI=1S/C8H8F3N/c9-8(10,11)7(12)6-4-2-1-3-5-6/h1-5,7H,12H2",
        "InChIKey": null,
        "Canonical SMILES": "FC(F)(F)C(N)C=1C=CC=CC1",
        "Molecular Formula": "C<sub>8</sub>H<sub>8</sub>F<sub>3</sub>N",
        "Molecular Mass": "175.15",
        "Boiling Point": "110-111 °C @ Press: 40 Torr"
    }
}