{
    "cas_no": "393-39-5",
    "key_name": "4-Fluoro-2-(trifluoromethyl)aniline",
    "cn_name": "2-氨基-5-氟三氟甲苯;",
    "alternate_name": "Benzenamine, 4-fluoro-2-(trifluoromethyl)-;<em>o</em>-Toluidine, α,α,α,4-tetrafluoro-;4-Fluoro-2-(trifluoromethyl)benzenamine;4-Fluoro-2-(trifluoromethyl)aniline;2-(Trifluoromethyl)-4-fluoroaniline;2-Amino-5-fluorobenzotrifluoride;α,α,α,4-Tetrafluoro-2-methylaniline;NSC 10325;(4-Fluoro-2-trifluoromethylphenyl)amine;α,α,α,4-Tetrafluoro-2-toluidine",
    "duplicated_cas_no": "",
    "SMILES": "C(F)(F)(F)C1=C(N)C=CC(F)=C1",
    "meta_data": {
        "InChI": "InChI=1S/C7H5F4N/c8-4-1-2-6(12)5(3-4)7(9,10)11/h1-3H,12H2",
        "InChIKey": null,
        "Canonical SMILES": "FC1=CC=C(N)C(=C1)C(F)(F)F",
        "Molecular Formula": "C<sub>7</sub>H<sub>5</sub>F<sub>4</sub>N",
        "Molecular Mass": "179.11",
        "Boiling Point": "70-72 °C @ Press: 17.5 Torr"
    }
}