{
    "cas_no": "7450-57-9",
    "key_name": "3-Amino-4-hydroxybenzoic acid hydrazide",
    "cn_name": "3-氨基-4-羟基苯酰肼;",
    "alternate_name": "Benzoic acid, 3-amino-4-hydroxy-, hydrazide;3-Amino-4-hydroxybenzoic acid hydrazide;(3-Amino-4-hydroxybenzoyl)hydrazine;3-Amino-4-hydroxybenzhydrazide;3-Amino-4-hydroxybenzohydrazide",
    "duplicated_cas_no": "",
    "SMILES": "C(NN)(=O)C1=CC(N)=C(O)C=C1",
    "meta_data": {
        "InChI": "InChI=1S/C7H9N3O2/c8-5-3-4(7(12)10-9)1-2-6(5)11/h1-3,11H,8-9H2,(H,10,12)",
        "InChIKey": null,
        "Canonical SMILES": "O=C(NN)C1=CC=C(O)C(N)=C1",
        "Molecular Formula": "C<sub>7</sub>H<sub>9</sub>N<sub>3</sub>O<sub>2</sub>",
        "Molecular Mass": "167.17",
        "Melting Point": "243 °C (decomp)"
    }
}