{
    "cas_no": "26780-96-1",
    "key_name": "2,2,4-Trimethyl-1,2-dihydroquinoline polymer",
    "cn_name": null,
    "alternate_name": "Quinoline, 1,2-dihydro-2,2,4-trimethyl-, homopolymer;Quinoline, 1,2-dihydro-2,2,4-trimethyl-, polymers;Poly(1,2-dihydro-2,2,4-trimethylquinoline);1,2-Dihydro-2,2,4-trimethylquinoline polymer;Poly(2,2,4-trimethyl-1,2-dihydroquinoline);Flectol H;Trimethyldihydroquinoline polymer;Permanax 45;Nonflex RD;Antigene RDF;Acetonanil;AgeRite Resin D;Antioxidant HS;HS (antioxidant);Flectol Flakes;AgeRite MA;HSL;Polnoks R;Antioxidant HSL;Nocrac 224;Anox HB;Vulkanox HS;Permanax TQ;Ryphosan S;Naugard Q;Ultranox 254;Antigene RD;Antage RD;Nocrac 224S;Vulkanox HS-LG;Nonflex QS;Forte RD;HS;Lowinox ACP;Vanlube RD;Poly(2,2,4-trimethyl-1,2-dihydroquinone);Antigene RD-G;1,2-Dihydro-2,2,4-trimethylquinoline homopolymer;Naugard Super Q;Flectol TMQ;AgeRite D;Nonflex RD-S;Anox HPG;2,2,4-Trimethyl-1,2-dihydroquinoline polymer;Acetonanil R;RD;HSL antioxidant;AgeRite TMQ;Banox H;Naugard TMQ;Acetone anil P;Antioxidant RD;Matoflex TMA;Acetonanil N;Orox PK;Additin RC 7010;Vulkanox HSL;TMQ;Antage RD-G;Aquanox TMQ;Nocrac RD;Antioxidant FR;Antioxidant 224;RD Antioxidant;TMDQ;Antioxidant TMQ;Antioxidant HPG;Antioxidant 212;Luvomaxx TMQ;RD Antiaging Agent;S-TMQ;P 824729;A 93;RD (additive);Acetonanil H;TMQ-RD;Antioxidant TQ;Vulkanox HS/LG;Stangard TMQ;Nocrac FR;Antigen RD",
    "duplicated_cas_no": "52038-43-4;55069-42-6;88160-96-7;125004-27-5;219315-49-8;870479-53-1;909801-79-2;1843183-86-7;2376916-19-5;2440056-36-8;2924713-86-8",
    "SMILES": "CC=1C=2C(NC(C)(C)C1)=CC=CC2",
    "meta_data": {
        "InChI": "InChI=1S/C12H15N/c1-9-8-12(2,3)13-11-7-5-4-6-10(9)11/h4-8,13H,1-3H3",
        "InChIKey": null,
        "Canonical SMILES": "C=1C=CC2=C(C1)NC(C=C2C)(C)C",
        "Molecular Formula": "(C<sub>12</sub>H<sub>15</sub>N)<sub>x</sub>",
        "Molecular Mass": "",
        "Melting Point": "87-97 °C"
    }
}