{
    "cas_no": "2817-13-2",
    "key_name": "<em>N</em>-[(Phenylmethoxy)carbonyl]-<span class=\"text-smallcaps\">L</smallcap>-leucyl-<smallcap>L</span>-alanine",
    "cn_name": null,
    "alternate_name": "<span class=\"text-smallcaps\">L</smallcap>-Alanine, <em>N</em>-[(phenylmethoxy)carbonyl]-<smallcap>L</span>-leucyl-;Alanine, <em>N</em>-(<em>N</em>-carboxy-<span class=\"text-smallcaps\">L</smallcap>-leucyl)-, <em>N</em>-benzyl ester, <smallcap>L</span>-;<span class=\"text-smallcaps\">L</smallcap>-Alanine, <em>N</em>-[<em>N</em>-[(phenylmethoxy)carbonyl]-<smallcap>L</span>-leucyl]-;<em>N</em>-[(Phenylmethoxy)carbonyl]-<span class=\"text-smallcaps\">L</smallcap>-leucyl-<smallcap>L</span>-alanine;<em>N</em>-Benzoxycarbonyl-<span class=\"text-smallcaps\">L</smallcap>-leucyl-<smallcap>L</span>-alanine;<em>N</em>-(Benzyloxycarbonyl)-<span class=\"text-smallcaps\">L</smallcap>-leucyl-<smallcap>L</span>-alanine;<em>N</em>-(Benzyloxycarbonyl)leucylalanine;NSC 333758",
    "duplicated_cas_no": "",
    "SMILES": "[C@H](C(N[C@H](C(O)=O)C)=O)(NC(OCC1=CC=CC=C1)=O)CC(C)C",
    "meta_data": {
        "InChI": "InChI=1S/C17H24N2O5/c1-11(2)9-14(15(20)18-12(3)16(21)22)19-17(23)24-10-13-7-5-4-6-8-13/h4-8,11-12,14H,9-10H2,1-3H3,(H,18,20)(H,19,23)(H,21,22)/t12-,14-/m0/s1",
        "InChIKey": null,
        "Canonical SMILES": "O=C(OCC=1C=CC=CC1)NC(C(=O)NC(C(=O)O)C)CC(C)C",
        "Molecular Formula": "C<sub>17</sub>H<sub>24</sub>N<sub>2</sub>O<sub>5</sub>",
        "Molecular Mass": "336.38",
        "Melting Point": "152-153 °C"
    }
}