{
    "cas_no": "104-14-3",
    "key_name": "Octopamine",
    "cn_name": "奥克巴胺;章鱼胺;真蛸胺;羟苯乙醇胺;酚乙醇胺;1-(4-羟基苯基)-2-氨基乙醇;",
    "alternate_name": "Benzenemethanol, α-(aminomethyl)-4-hydroxy-;Benzyl alcohol, α-(aminomethyl)-<em>p</em>-hydroxy-;α-(Aminomethyl)-4-hydroxybenzenemethanol;α-(Aminomethyl)-<em>p</em>-hydroxybenzyl alcohol;1-(<em>p</em>-Hydroxyphenyl)-2-aminoethanol;<em>p</em>-Hydroxyphenylethanolamine;Norden;Norphen;Norsympathol;Octopamine;Norsynephrine;<em>p</em>-Octopamine;Norsympatol;4-Hydroxyphenethanolamine;Analet;Norton;ND 50;β-Hydroxy-β-(4-hydroxyphenyl)ethylamine;<span class=\"text-smallcaps\">DL</span>-Octopamine;(±)-Octopamine;Win 5512;<em>dl</em>-Octopamine;(<em>RS</em>)-Octopamine;Racemic octopamine;4-[2-Amino-1-hydroxyethyl]phenol;2-Amino-1-(4-hydroxyphenyl)ethanol;(±)-Norsynephrine;MeSH ID: D009655",
    "duplicated_cas_no": "369-44-8;1915-83-9;6732-68-9",
    "SMILES": "C(CN)(O)C1=CC=C(O)C=C1",
    "meta_data": {
        "InChI": "InChI=1S/C8H11NO2/c9-5-8(11)6-1-3-7(10)4-2-6/h1-4,8,10-11H,5,9H2",
        "InChIKey": null,
        "Canonical SMILES": "OC1=CC=C(C=C1)C(O)CN",
        "Molecular Formula": "C<sub>8</sub>H<sub>11</sub>NO<sub>2</sub>",
        "Molecular Mass": "153.18",
        "Melting Point": "157-158 °C"
    }
}