{
    "cas_no": "28888-44-0",
    "key_name": "6,7-Dimethoxy-2,4(1<em>H</em>,3<em>H</em>)-quinazolinedione",
    "cn_name": "6,7-二甲氧基-2,4-喹唑啉二酮;",
    "alternate_name": "2,4(1<em>H</em>,3<em>H</em>)-Quinazolinedione, 6,7-dimethoxy-;6,7-Dimethoxy-2,4(1<em>H</em>,3<em>H</em>)-quinazolinedione;6,7-Dimethoxyquinazoline-2,4-dione;2,5-Dihydroxy-6,7-dimethoxyquinazoline;6,7-Dimethoxy-1<em>H</em>-quinazoline-2,4-dione;6,7-Dimethoxyquinazoline-2,4-diol;6,7-Dimethoxyquinazolin-2,4(1<em>H</em>,3<em>H</em>)-dione",
    "duplicated_cas_no": "",
    "SMILES": "O=C1C=2C(=CC(OC)=C(OC)C2)NC(=O)N1",
    "meta_data": {
        "InChI": "InChI=1S/C10H10N2O4/c1-15-7-3-5-6(4-8(7)16-2)11-10(14)12-9(5)13/h3-4H,1-2H3,(H2,11,12,13,14)",
        "InChIKey": null,
        "Canonical SMILES": "O=C1NC(=O)C2=CC(OC)=C(OC)C=C2N1",
        "Molecular Formula": "C<sub>10</sub>H<sub>10</sub>N<sub>2</sub>O<sub>4</sub>",
        "Molecular Mass": "222.20",
        "Melting Point": "320-324 °C"
    }
}