{
    "cas_no": "156-06-9",
    "key_name": "Phenylpyruvic acid",
    "cn_name": "苯丙酮酸;3-苯基丙酮酸;2-氧代-3-苯基丙酸;",
    "alternate_name": "Benzenepropanoic acid, α-oxo-;Pyruvic acid, phenyl-;α-Oxobenzenepropanoic acid;Phenylpyruvic acid;3-Phenylpyruvic acid;β-Phenylpyruvic acid;2-Oxo-3-phenylpropanoic acid;3-Phenyl-2-oxopropanoic acid;Phenylpyroracemic acid;2-Oxo-3-phenylpropionic acid",
    "duplicated_cas_no": "1129287-56-4",
    "SMILES": "C(C(C(O)=O)=O)C1=CC=CC=C1",
    "meta_data": {
        "InChI": "InChI=1S/C9H8O3/c10-8(9(11)12)6-7-4-2-1-3-5-7/h1-5H,6H2,(H,11,12)",
        "InChIKey": null,
        "Canonical SMILES": "O=C(O)C(=O)CC=1C=CC=CC1",
        "Molecular Formula": "C<sub>9</sub>H<sub>8</sub>O<sub>3</sub>",
        "Molecular Mass": "164.16",
        "Melting Point": "157 °C"
    }
}