{
    "cas_no": "10299-44-2",
    "key_name": "8-Azaadenosine",
    "cn_name": null,
    "alternate_name": "3<em>H</em>-1,2,3-Triazolo[4,5-<em>d</em>]pyrimidin-7-amine, 3-β-<span class=\"text-smallcaps\">D</span>-ribofuranosyl-;3<em>H</em>-<em>v</em>-Triazolo[4,5-<em>d</em>]pyrimidine, 7-amino-3-β-<span class=\"text-smallcaps\">D</span>-ribofuranosyl-;3-β-<span class=\"text-smallcaps\">D</span>-Ribofuranosyl-3<em>H</em>-1,2,3-triazolo[4,5-<em>d</em>]pyrimidin-7-amine;8-Azaadenosine;7-Amino-3-β-<span class=\"text-smallcaps\">D</span>-ribofuranosyl-<em>v</em>-triazolo[4,5-<em>d</em>]pyrimidine;NSC 72961",
    "duplicated_cas_no": "",
    "SMILES": "O[C@H]1[C@H](N2C=3C(N=N2)=C(N)N=CN3)O[C@H](CO)[C@H]1O",
    "meta_data": {
        "InChI": "InChI=1S/C9H12N6O4/c10-7-4-8(12-2-11-7)15(14-13-4)9-6(18)5(17)3(1-16)19-9/h2-3,5-6,9,16-18H,1H2,(H2,10,11,12)/t3-,5-,6-,9-/m1/s1",
        "InChIKey": null,
        "Canonical SMILES": "OCC1OC(N2N=NC=3C(=NC=NC32)N)C(O)C1O",
        "Molecular Formula": "C<sub>9</sub>H<sub>12</sub>N<sub>6</sub>O<sub>4</sub>",
        "Molecular Mass": "268.23",
        "Melting Point": "218-219 °C"
    }
}