{
    "cas_no": "58749-22-7",
    "key_name": "Licochalcone A",
    "cn_name": "甘草查耳酮A;",
    "alternate_name": "2-Propen-1-one, 3-[5-(1,1-dimethyl-2-propen-1-yl)-4-hydroxy-2-methoxyphenyl]-1-(4-hydroxyphenyl)-, (2<em>E</em>)-;2-Propen-1-one, 3-[5-(1,1-dimethyl-2-propenyl)-4-hydroxy-2-methoxyphenyl]-1-(4-hydroxyphenyl)-, (<em>E</em>)-;2-Propen-1-one, 3-[5-(1,1-dimethyl-2-propenyl)-4-hydroxy-2-methoxyphenyl]-1-(4-hydroxyphenyl)-, (2<em>E</em>)-;(2<em>E</em>)-3-[5-(1,1-Dimethyl-2-propen-1-yl)-4-hydroxy-2-methoxyphenyl]-1-(4-hydroxyphenyl)-2-propen-1-one;Licochalcone A",
    "duplicated_cas_no": "",
    "SMILES": "C(=C/C(=O)C1=CC=C(O)C=C1)\\C2=C(OC)C=C(O)C(C(C=C)(C)C)=C2",
    "meta_data": {
        "InChI": "InChI=1S/C21H22O4/c1-5-21(2,3)17-12-15(20(25-4)13-19(17)24)8-11-18(23)14-6-9-16(22)10-7-14/h5-13,22,24H,1H2,2-4H3/b11-8+",
        "InChIKey": null,
        "Canonical SMILES": "O=C(C=CC1=CC(=C(O)C=C1OC)C(C=C)(C)C)C2=CC=C(O)C=C2",
        "Molecular Formula": "C<sub>21</sub>H<sub>22</sub>O<sub>4</sub>",
        "Molecular Mass": "338.40",
        "Melting Point": "99-100 °C"
    }
}