{
    "cas_no": "99189-60-3",
    "key_name": "1,1-Cyclohexanediacetic acid monoamide",
    "cn_name": "1,1-环己基二乙酸单酰胺;",
    "alternate_name": "Cyclohexaneacetic acid, 1-(2-amino-2-oxoethyl)-;Cyclohexaneacetic acid, 1-(carbamoylmethyl)-;1-(2-Amino-2-oxoethyl)cyclohexaneacetic acid;1-[(Aminocarbonyl)methyl]cyclohexaneacetic acid;1,1-Cyclohexanediacetic acid monoamide;1-(Carboxymethyl)cyclohexane-1-acetamide;[1-(2-Amino-2-oxoethyl)cyclohexyl]acetic acid;(1-Carbamoylmethyl-cyclohexyl)-acetic acid;2-[1-(Carbamoylmethyl)cyclohexyl]acetic acid;2-[1-(2-Amino-2-oxoethyl)cyclohexyl]acetic acid",
    "duplicated_cas_no": "2374310-94-6",
    "SMILES": "C(C(N)=O)C1(CC(O)=O)CCCCC1",
    "meta_data": {
        "InChI": "InChI=1S/C10H17NO3/c11-8(12)6-10(7-9(13)14)4-2-1-3-5-10/h1-7H2,(H2,11,12)(H,13,14)",
        "InChIKey": null,
        "Canonical SMILES": "O=C(O)CC1(CC(=O)N)CCCCC1",
        "Molecular Formula": "C<sub>10</sub>H<sub>17</sub>NO<sub>3</sub>",
        "Molecular Mass": "199.25",
        "Melting Point": "141-145 °C"
    }
}