{
    "cas_no": "20357-15-7",
    "key_name": "1,2-Dimethyl-1<em>H</em>-indole-3-carboxylic acid",
    "cn_name": null,
    "alternate_name": "1<em>H</em>-Indole-3-carboxylic acid, 1,2-dimethyl-;Indole-3-carboxylic acid, 1,2-dimethyl-;1,2-Dimethyl-1<em>H</em>-indole-3-carboxylic acid;1,2-Dimethylindole-3-carboxylic acid",
    "duplicated_cas_no": "",
    "SMILES": "C(O)(=O)C=1C=2C(N(C)C1C)=CC=CC2",
    "meta_data": {
        "InChI": "InChI=1S/C11H11NO2/c1-7-10(11(13)14)8-5-3-4-6-9(8)12(7)2/h3-6H,1-2H3,(H,13,14)",
        "InChIKey": null,
        "Canonical SMILES": "O=C(O)C=1C=2C=CC=CC2N(C1C)C",
        "Molecular Formula": "C<sub>11</sub>H<sub>11</sub>NO<sub>2</sub>",
        "Molecular Mass": "189.21",
        "Melting Point": "185 °C"
    }
}