{
    "cas_no": "198835-06-2",
    "key_name": "1,1-Dimethylethyl 5-oxo-2-azabicyclo[2.2.1]heptane-2-carboxylate",
    "cn_name": null,
    "alternate_name": "2-Azabicyclo[2.2.1]heptane-2-carboxylic acid, 5-oxo-, 1,1-dimethylethyl ester;1,1-Dimethylethyl 5-oxo-2-azabicyclo[2.2.1]heptane-2-carboxylate;<em>tert</em>-Butyl 5-oxo-2-azabicyclo[2.2.1]heptan-2-carboxylate",
    "duplicated_cas_no": "",
    "SMILES": "C(OC(C)(C)C)(=O)N1C2CC(C1)C(=O)C2",
    "meta_data": {
        "InChI": "InChI=1S/C11H17NO3/c1-11(2,3)15-10(14)12-6-7-4-8(12)5-9(7)13/h7-8H,4-6H2,1-3H3",
        "InChIKey": null,
        "Canonical SMILES": "O=C(OC(C)(C)C)N1CC2C(=O)CC1C2",
        "Molecular Formula": "C<sub>11</sub>H<sub>17</sub>NO<sub>3</sub>",
        "Molecular Mass": "211.26",
        "Melting Point": "96 °C"
    }
}