{
    "cas_no": "2528-61-2",
    "key_name": "Heptanoyl chloride",
    "cn_name": "庚酰氯;",
    "alternate_name": "Heptanoyl chloride;Enanthoyl chloride;<em>n</em>-Heptanoyl chloride;Enanthyl chloride;Heptanoic acid chloride",
    "duplicated_cas_no": "",
    "SMILES": "C(CC(Cl)=O)CCCC",
    "meta_data": {
        "InChI": "InChI=1S/C7H13ClO/c1-2-3-4-5-6-7(8)9/h2-6H2,1H3",
        "InChIKey": null,
        "Canonical SMILES": "O=C(Cl)CCCCCC",
        "Molecular Formula": "C<sub>7</sub>H<sub>13</sub>ClO",
        "Molecular Mass": "148.63",
        "Boiling Point": "145 °C",
        "Melting Point": "-83.8 °C",
        "Density": "0.96645 g/cm³ @ Temp: 15 °C"
    }
}