{
    "cas_no": "4392-24-9",
    "key_name": "(3-Bromo-1-propen-1-yl)benzene",
    "cn_name": "肉桂基溴;1-溴代苯丙烯;3-溴-1-苯基-1-丙烯;",
    "alternate_name": "Benzene, (3-bromo-1-propen-1-yl)-;Benzene, (3-bromopropenyl)-;Benzene, (3-bromo-1-propenyl)-;(3-Bromo-1-propen-1-yl)benzene;Cinnamyl bromide;3-Bromo-1-phenylpropene;3-Phenylallyl bromide;3-Phenyl-2-propenyl bromide;(3-Bromo-1-propenyl)benzene;1-Phenyl-3-bromo-1-propene;1-Bromo-3-phenyl-2-propene;3-Bromo-1-phenylprop-1-ene;NSC 78446;(3-Bromoprop-1-en-1-yl)benzene",
    "duplicated_cas_no": "",
    "SMILES": "C(=CCBr)C1=CC=CC=C1",
    "meta_data": {
        "InChI": "InChI=1S/C9H9Br/c10-8-4-7-9-5-2-1-3-6-9/h1-7H,8H2",
        "InChIKey": null,
        "Canonical SMILES": "BrCC=CC=1C=CC=CC1",
        "Molecular Formula": "C<sub>9</sub>H<sub>9</sub>Br",
        "Molecular Mass": "197.07",
        "Boiling Point": "105-106 °C @ Press: 2 Torr",
        "Melting Point": "34 °C",
        "Density": "1.366 g/cm³ @ Temp: 0 °C"
    }
}