{
    "cas_no": "7533-40-6",
    "key_name": "<span class=\"text-smallcaps\">L</span>-Leucinol",
    "cn_name": "L-亮氨醇;S-(+)-2-氨基-4-甲基-1-戊醇;",
    "alternate_name": "1-Pentanol, 2-amino-4-methyl-, (2<em>S</em>)-;1-Pentanol, 2-amino-4-methyl-, (<em>S</em>)-;1-Pentanol, 2-amino-4-methyl-, <span class=\"text-smallcaps\">L</span>-;(2<em>S</em>)-2-Amino-4-methyl-1-pentanol;<span class=\"text-smallcaps\">L</span>-Leucinol;(2<em>S</em>)-1-Hydroxy-4-methylpentan-2-amine;<span class=\"text-smallcaps\">L</span>-(+)-Leucinol;(<em>S</em>)-2-Amino-4-methylpentanol;(<em>S</em>)-2-Amino-4-methyl-1-pentanol;(<em>S</em>)-Leucinol;(+)-Leucinol;(<em>S</em>)-(+)-2-Amino-4-methyl-1-pentanol;(1<em>S</em>)-1-(Hydroxymethyl)-3-methylbutylamine;(<em>S</em>)-(+)-Leucinol;((<em>S</em>)-1-(Hydroxymethyl)-3-methylbutyl)amine;(2S)-2-Amino-4-methylpentan-1-ol;(2S)-1-Hydroxy-4-methylpentan-2-amine",
    "duplicated_cas_no": "14438-11-0;79009-35-1",
    "SMILES": "[C@H](CC(C)C)(CO)N",
    "meta_data": {
        "InChI": "InChI=1S/C6H15NO/c1-5(2)3-6(7)4-8/h5-6,8H,3-4,7H2,1-2H3/t6-/m0/s1",
        "InChIKey": null,
        "Canonical SMILES": "OCC(N)CC(C)C",
        "Molecular Formula": "C<sub>6</sub>H<sub>15</sub>NO",
        "Molecular Mass": "117.19",
        "Boiling Point": "100-105 °C @ Press: 10 Torr",
        "Melting Point": "56-58 °C"
    }
}