{
    "cas_no": "62-73-7",
    "key_name": "Dichlorvos",
    "cn_name": "敌敌畏;2,2-二氯乙烯基二甲基磷酸酯;",
    "alternate_name": "Phosphoric acid, 2,2-dichloroethenyl dimethyl ester;Phosphoric acid, 2,2-dichlorovinyl dimethyl ester;Ethenol, 2,2-dichloro-, dimethyl phosphate;OMS 14;Atgard V;DDVP;2,2-Dichlorovinyl dimethyl phosphate;Dichlorovos;Dichlorvos;Dimethyl 2,2-dichloroethenyl phosphate;Dimethyl 2,2-dichlorovinyl phosphate;Nerkol;Nogos;Nuvan;Task;Vapona;Vapona Insecticide;DDVP (insecticide);Dimethyl dichlorovinyl phosphate;<em>O</em>,<em>O</em>-Dimethyl 2,2-dichlorovinyl phosphate;Dedevap;Nuvan 100EC;Vaponite;Equigard;ENT 20738;Vinylophos;Chlorvinphos;Szklarniak;TAP 9VP;SD 1750;Atgard;Canogard;Equigel;Estrosel;Brevinyl E 50;Nuvan 7;Unifos;Unifos (pesticide);Brevinyl;OKO;Nogos 50EC;Mopari;Bibesol;Dichlorman;Nogos G;Fekama;Fecama;2,2-Dichloroethenyl dimethyl phosphate;Vinylofos;Winylophos;Divipan;Panaplate;Des;Novotox;Nefrafos;Insectigas D;Estrosol;Dichlofos;Unitox;Nogos 500;Phosvit 75;Phosvit;Prima U;Unifos 50EC;Nuvan 500 EC;Dichlorovinphos;Des (phosphate);Dash;BAY-b 4986;Estrosol (pesticide);NSC 6738;Nuvos;Alatox;Nuvan 76EC;Task (insecticide);Ferag ID TM;Lava 100EC;MeSH ID: D004006",
    "duplicated_cas_no": "8023-22-1;8072-21-7;8072-39-7;8076-16-2;11095-17-3;11096-21-2;11111-31-2;11111-44-7;11126-72-0;12772-40-6;55819-32-4;62139-95-1;62655-59-8;95828-55-0;116788-91-1",
    "SMILES": "P(OC=C(Cl)Cl)(OC)(OC)=O",
    "meta_data": {
        "InChI": "InChI=1S/C4H7Cl2O4P/c1-8-11(7,9-2)10-3-4(5)6/h3H,1-2H3",
        "InChIKey": null,
        "Canonical SMILES": "O=P(OC=C(Cl)Cl)(OC)OC",
        "Molecular Formula": "C<sub>4</sub>H<sub>7</sub>Cl<sub>2</sub>O<sub>4</sub>P",
        "Molecular Mass": "220.98",
        "Boiling Point": "140 °C @ Press: 20 Torr",
        "Melting Point": "&lt;25 °C",
        "Density": "1.415 g/cm³ @ Temp: 25 °C"
    }
}