{
    "cas_no": "120-93-4",
    "key_name": "2-Imidazolidinone",
    "cn_name": "2-咪唑烷酮;乙烯脲;环亚乙烯脲;",
    "alternate_name": "2-Imidazolidinone;Urea, ethylene-;Ethyleneurea;2-Imidazolidone;<em>N</em>,<em>N</em>′-Ethyleneurea;SD 6073;Urea, <em>N</em>,<em>N</em>′-(1,2-ethanediyl)-;Imidazolidinone;2-Oxoimidazolidine;1,3-Ethyleneurea;NSC 21314;NSC 3338;CY 100;Imidazolidin-2-one;Katalin CE;Imidazolidine-2-one",
    "duplicated_cas_no": "76895-63-1",
    "SMILES": "O=C1NCCN1",
    "meta_data": {
        "InChI": "InChI=1S/C3H6N2O/c6-3-4-1-2-5-3/h1-2H2,(H2,4,5,6)",
        "InChIKey": null,
        "Canonical SMILES": "O=C1NCCN1",
        "Molecular Formula": "C<sub>3</sub>H<sub>6</sub>N<sub>2</sub>O",
        "Molecular Mass": "86.09",
        "Boiling Point": "163 °C @ Press: 3 Torr",
        "Melting Point": "131 °C"
    }
}