{
    "cas_no": "37859-25-9",
    "key_name": "2-Naphthaleneacetyl chloride",
    "cn_name": "2-(2-萘基)乙酰氯;",
    "alternate_name": "2-Naphthaleneacetyl chloride;β-Naphthylacetyl chloride;2-(2-Naphthyl)acetyl chloride;2-Naphthylacetyl chloride;Naphthalen-2-ylacetyl chloride;2-(Naphthalen-2-yl)acetyl chloride",
    "duplicated_cas_no": "2136608-92-7",
    "SMILES": "C(C(Cl)=O)C1=CC2=C(C=C1)C=CC=C2",
    "meta_data": {
        "InChI": "InChI=1S/C12H9ClO/c13-12(14)8-9-5-6-10-3-1-2-4-11(10)7-9/h1-7H,8H2",
        "InChIKey": null,
        "Canonical SMILES": "O=C(Cl)CC=1C=CC=2C=CC=CC2C1",
        "Molecular Formula": "C<sub>12</sub>H<sub>9</sub>ClO",
        "Molecular Mass": "204.65",
        "Boiling Point": "156-158 °C @ Press: 10 Torr",
        "Melting Point": "181.5-183.5 °C"
    }
}