{
    "cas_no": "94-68-8",
    "key_name": "<em>N</em>-Ethyl-<em>o</em>-toluidine",
    "cn_name": "N-乙基-2-甲基苯胺;N-乙基邻甲苯胺;N-乙基邻苄胺;",
    "alternate_name": "Benzenamine, <em>N</em>-ethyl-2-methyl-;<em>o</em>-Toluidine, <em>N</em>-ethyl-;<em>N</em>-Ethyl-2-methylbenzenamine;1-(Ethylamino)-2-methylbenzene;2-(Ethylamino)toluene;<em>N</em>-Ethyl-2-methylaniline;<em>N</em>-Ethyl-<em>o</em>-toluidine;<em>o</em>-Methyl-<em>N</em>-ethylaniline;NSC 8888;<em>N</em>-Ethyl-<em>N</em>-(<em>o</em>-tolyl)amine;<em>N</em>-Ethyl-<em>o</em>-methylaniline;2-Methyl-<em>N</em>-ethylaniline",
    "duplicated_cas_no": "",
    "SMILES": "N(CC)C1=C(C)C=CC=C1",
    "meta_data": {
        "InChI": "InChI=1S/C9H13N/c1-3-10-9-7-5-4-6-8(9)2/h4-7,10H,3H2,1-2H3",
        "InChIKey": null,
        "Canonical SMILES": "C=1C=CC(=C(C1)NCC)C",
        "Molecular Formula": "C<sub>9</sub>H<sub>13</sub>N",
        "Molecular Mass": "135.21",
        "Boiling Point": "216 °C",
        "Melting Point": "&lt;-15 °C"
    }
}