{
    "cas_no": "123464-89-1",
    "key_name": "Benzamide, <em>N</em>-(3<em>R</em>)-1-azabicyclo[2.2.2]oct-3-yl-4-chloro-, hydrochloride (1:1)",
    "cn_name": null,
    "alternate_name": "Benzamide, <em>N</em>-(3<em>R</em>)-1-azabicyclo[2.2.2]oct-3-yl-4-chloro-, hydrochloride (1:1);Benzamide, <em>N</em>-1-azabicyclo[2.2.2]oct-3-yl-4-chloro-, monohydrochloride, (<em>R</em>)-;Benzamide, <em>N</em>-(3<em>R</em>)-1-azabicyclo[2.2.2]oct-3-yl-4-chloro-, monohydrochloride;PNU 282987;(R)-4-Chloro-<em>N</em>-(quinuclidin-3-yl)benzamide hydrochloride;PNU282987;PNU 282987 hydrochloride;PNU 282987 HCl",
    "duplicated_cas_no": "",
    "SMILES": "N(C(=O)C1=CC=C(Cl)C=C1)[C@@H]2C3(CCN(C2)CC3)[H].Cl",
    "meta_data": {
        "InChI": "InChI=1S/C14H17ClN2O.ClH/c15-12-3-1-11(2-4-12)14(18)16-13-9-17-7-5-10(13)6-8-17;/h1-4,10,13H,5-9H2,(H,16,18);1H/t13-;/m0./s1",
        "InChIKey": null,
        "Canonical SMILES": "Cl.O=C(NC1CN2CCC1CC2)C3=CC=C(Cl)C=C3",
        "Molecular Formula": "C<sub>14</sub>H<sub>17</sub>ClN<sub>2</sub>O.ClH",
        "Molecular Mass": "",
        "Melting Point": "&gt;260 °C"
    }
}