{
    "cas_no": "57526-81-5",
    "key_name": "(-)-Prenalterol",
    "cn_name": "丙胺酚醇;普瑞特罗;双羟苯氧胺;异丙氧酚;扑来酚醇;",
    "alternate_name": "Phenol, 4-[(2<em>S</em>)-2-hydroxy-3-[(1-methylethyl)amino]propoxy]-;Phenol, 4-[2-hydroxy-3-[(1-methylethyl)amino]propoxy]-, (<em>S</em>)-;4-[(2<em>S</em>)-2-Hydroxy-3-[(1-methylethyl)amino]propoxy]phenol;Prenalterol;CGP 7760B;H 133/22;Hyprenan;(-)-Prenalterol;<em>S</em>-Varbian;(<em>S</em>)-Prenalterol;(<em>S</em>)-4-(2-Hydroxy-3-(isopropylamino)propoxy)phenol",
    "duplicated_cas_no": "58165-86-9",
    "SMILES": "O(C[C@H](CNC(C)C)O)C1=CC=C(O)C=C1",
    "meta_data": {
        "InChI": "InChI=1S/C12H19NO3/c1-9(2)13-7-11(15)8-16-12-5-3-10(14)4-6-12/h3-6,9,11,13-15H,7-8H2,1-2H3/t11-/m0/s1",
        "InChIKey": null,
        "Canonical SMILES": "OC1=CC=C(OCC(O)CNC(C)C)C=C1",
        "Molecular Formula": "C<sub>12</sub>H<sub>19</sub>NO<sub>3</sub>",
        "Molecular Mass": "225.28",
        "Melting Point": "127.5 °C"
    }
}