{
    "cas_no": "685-27-8",
    "key_name": "<em>N</em>-Methylbis(trifluoroacetyl)imide",
    "cn_name": "N-甲基二(三氟乙酰胺);",
    "alternate_name": "Acetamide, 2,2,2-trifluoro-<em>N</em>-methyl-<em>N</em>-(2,2,2-trifluoroacetyl)-;Diacetamide, 2,2,2,2′,2′,2′-hexafluoro-<em>N</em>-methyl-;Acetamide, 2,2,2-trifluoro-<em>N</em>-methyl-<em>N</em>-(trifluoroacetyl)-;2,2,2-Trifluoro-<em>N</em>-methyl-<em>N</em>-(2,2,2-trifluoroacetyl)acetamide;<em>N</em>-Methylbis(trifluoroacetyl)imide;2,2,2-Trifluoro-<em>N</em>-methyl-<em>N</em>-(trifluoroacetyl)acetamide",
    "duplicated_cas_no": "",
    "SMILES": "C(N(C(C(F)(F)F)=O)C)(C(F)(F)F)=O",
    "meta_data": {
        "InChI": "InChI=1S/C5H3F6NO2/c1-12(2(13)4(6,7)8)3(14)5(9,10)11/h1H3",
        "InChIKey": null,
        "Canonical SMILES": "O=C(N(C(=O)C(F)(F)F)C)C(F)(F)F",
        "Molecular Formula": "C<sub>5</sub>H<sub>3</sub>F<sub>6</sub>NO<sub>2</sub>",
        "Molecular Mass": "223.07",
        "Boiling Point": "118 °C"
    }
}