{
    "cas_no": "101-67-7",
    "key_name": "Antioxidant ODA",
    "cn_name": "4,4\"-二辛基二苯胺;防老剂ODA;",
    "alternate_name": "Benzenamine, 4-octyl-<em>N</em>-(4-octylphenyl)-;Diphenylamine, 4,4′-dioctyl-;4-Octyl-<em>N</em>-(4-octylphenyl)benzenamine;Bis(<em>p</em>-octylphenyl)amine;<em>p</em>,<em>p</em>′-Dioctyldiphenylamine;4,4′-Dioctyldiphenylamine;Nocrac AD;Permanax OD;DAT;Anox NS;Nonflex OD;NSC 79268;Bis(4-octylphenyl)amine;Nonflex OD 3;ODA;Antioxidant ODA;ODA (antioxidant);ODA 40;TZ 516",
    "duplicated_cas_no": "79633-07-1;125054-09-3",
    "SMILES": "N(C1=CC=C(CCCCCCCC)C=C1)C2=CC=C(CCCCCCCC)C=C2",
    "meta_data": {
        "InChI": "InChI=1S/C28H43N/c1-3-5-7-9-11-13-15-25-17-21-27(22-18-25)29-28-23-19-26(20-24-28)16-14-12-10-8-6-4-2/h17-24,29H,3-16H2,1-2H3",
        "InChIKey": null,
        "Canonical SMILES": "C=1C=C(C=CC1NC2=CC=C(C=C2)CCCCCCCC)CCCCCCCC",
        "Molecular Formula": "C<sub>28</sub>H<sub>43</sub>N",
        "Molecular Mass": "393.65",
        "Melting Point": "80-90 °C",
        "Density": "0.99 g/cm³"
    }
}