{
    "cas_no": "86-52-2",
    "key_name": "1-(Chloromethyl)naphthalene",
    "cn_name": "1-氯甲基萘;",
    "alternate_name": "Naphthalene, 1-(chloromethyl)-;1-(Chloromethyl)naphthalene;α-(Chloromethyl)naphthalene;1-Naphthylmethyl chloride;α-Naphthylmethyl chloride;1-Naphthalenylmethyl chloride;NSC 8473;1-Naphthalylmethyl chloride;1-(Chloromethyl)naphthalen",
    "duplicated_cas_no": "",
    "SMILES": "C(Cl)C=1C2=C(C=CC1)C=CC=C2",
    "meta_data": {
        "InChI": "InChI=1S/C11H9Cl/c12-8-10-6-3-5-9-4-1-2-7-11(9)10/h1-7H,8H2",
        "InChIKey": null,
        "Canonical SMILES": "ClCC1=CC=CC=2C=CC=CC21",
        "Molecular Formula": "C<sub>11</sub>H<sub>9</sub>Cl",
        "Molecular Mass": "176.64",
        "Boiling Point": "291.5 °C",
        "Melting Point": "32 °C",
        "Density": "1.174 g/cm³ @ Temp: 20 °C"
    }
}