{
    "cas_no": "1467-16-9",
    "key_name": "Imidazolium chloride",
    "cn_name": "咪唑盐酸盐;",
    "alternate_name": "1<em>H</em>-Imidazole, hydrochloride (1:1);Imidazole, monohydrochloride;1<em>H</em>-Imidazole, monohydrochloride;Imidazole hydrochloride;Imidazolium chloride",
    "duplicated_cas_no": "",
    "SMILES": "C1=CN=CN1.Cl",
    "meta_data": {
        "InChI": "InChI=1S/C3H4N2.ClH/c1-2-5-3-4-1;/h1-3H,(H,4,5);1H",
        "InChIKey": null,
        "Canonical SMILES": "Cl.N=1C=CNC1",
        "Molecular Formula": "C<sub>3</sub>H<sub>4</sub>N<sub>2</sub>.ClH",
        "Molecular Mass": "",
        "Melting Point": "160-163 °C"
    }
}