{
    "cas_no": "615-59-8",
    "key_name": "2,5-Dibromotoluene",
    "cn_name": "2,5-二溴甲苯;",
    "alternate_name": "Benzene, 1,4-dibromo-2-methyl-;Toluene, 2,5-dibromo-;1,4-Dibromo-2-methylbenzene;2,5-Dibromotoluene;NSC 6222;3,6-Dibromotoluene;1,4-Dibromotoluene",
    "duplicated_cas_no": "",
    "SMILES": "CC1=C(Br)C=CC(Br)=C1",
    "meta_data": {
        "InChI": "InChI=1S/C7H6Br2/c1-5-4-6(8)2-3-7(5)9/h2-4H,1H3",
        "InChIKey": null,
        "Canonical SMILES": "BrC1=CC=C(Br)C(=C1)C",
        "Molecular Formula": "C<sub>7</sub>H<sub>6</sub>Br<sub>2</sub>",
        "Molecular Mass": "249.93",
        "Boiling Point": "236 °C",
        "Melting Point": "5.6 °C",
        "Density": "1.8154 g/cm³ @ Temp: 25 °C"
    }
}