{
    "cas_no": "61263-49-8",
    "key_name": "Vitexilactone",
    "cn_name": null,
    "alternate_name": "2(5<em>H</em>)-Furanone, 4-[2-[(1<em>R</em>,2<em>R</em>,4<em>R</em>,4a<em>S</em>,8a<em>S</em>)-4-(acetyloxy)decahydro-1-hydroxy-2,5,5,8a-tetramethyl-1-naphthalenyl]ethyl]-;2(5<em>H</em>)-Furanone, 4-[2-[4-(acetyloxy)decahydro-1-hydroxy-2,5,5,8a-tetramethyl-1-naphthalenyl]ethyl]-, [1<em>R</em>-(1α,2α,4β,4aα,8aβ)]-;4-[2-[(1<em>R</em>,2<em>R</em>,4<em>R</em>,4a<em>S</em>,8a<em>S</em>)-4-(Acetyloxy)decahydro-1-hydroxy-2,5,5,8a-tetramethyl-1-naphthalenyl]ethyl]-2(5<em>H</em>)-furanone;Vitexilactone",
    "duplicated_cas_no": "1314094-56-8",
    "SMILES": "C[C@]12[C@@]([C@H](OC(C)=O)C[C@@H](C)[C@@]1(CCC=3COC(=O)C3)O)(C(C)(C)CCC2)[H]",
    "meta_data": {
        "InChI": "InChI=1S/C22H34O5/c1-14-11-17(27-15(2)23)19-20(3,4)8-6-9-21(19,5)22(14,25)10-7-16-12-18(24)26-13-16/h12,14,17,19,25H,6-11,13H2,1-5H3/t14-,17-,19+,21+,22-/m1/s1",
        "InChIKey": null,
        "Canonical SMILES": "O=C1OCC(=C1)CCC2(O)C(C)CC(OC(=O)C)C3C(C)(C)CCCC32C",
        "Molecular Formula": "C<sub>22</sub>H<sub>34</sub>O<sub>5</sub>",
        "Molecular Mass": "378.50",
        "Melting Point": "148-149 °C"
    }
}