{
    "cas_no": "104-01-8",
    "key_name": "(4-Methoxyphenyl)acetic acid",
    "cn_name": "对甲氧基苯乙酸;",
    "alternate_name": "Benzeneacetic acid, 4-methoxy-;Acetic acid, (<em>p</em>-methoxyphenyl)-;4-Methoxybenzeneacetic acid;Homoanisic acid;(<em>p</em>-Methoxyphenyl)acetic acid;(4-Methoxyphenyl)acetic acid;2-(<em>p</em>-Anisyl)acetic acid;<em>p</em>-Anisylacetic acid;2-(<em>p</em>-Methoxyphenyl)acetic acid;NSC 27799;NSC 65597;2-(4-Methoxyphenyl)acetic acid;4-Methoxyphenacetic acid",
    "duplicated_cas_no": "",
    "SMILES": "C(C(O)=O)C1=CC=C(OC)C=C1",
    "meta_data": {
        "InChI": "InChI=1S/C9H10O3/c1-12-8-4-2-7(3-5-8)6-9(10)11/h2-5H,6H2,1H3,(H,10,11)",
        "InChIKey": null,
        "Canonical SMILES": "O=C(O)CC1=CC=C(OC)C=C1",
        "Molecular Formula": "C<sub>9</sub>H<sub>10</sub>O<sub>3</sub>",
        "Molecular Mass": "166.17",
        "Boiling Point": "138 °C",
        "Melting Point": "87 °C"
    }
}