{
    "cas_no": "21553-46-8",
    "key_name": "4-Methoxy-3,5-dimethylbenzoic acid",
    "cn_name": "3,5-二甲基-4-甲氧基苯甲酸;",
    "alternate_name": "Benzoic acid, 4-methoxy-3,5-dimethyl-;<em>p</em>-Anisic acid, 3,5-dimethyl-;4-Methoxy-3,5-dimethylbenzoic acid;3,5-Dimethyl-4-methoxybenzoic acid;3,5-Dimethyl-<em>p</em>-anisic acid",
    "duplicated_cas_no": "",
    "SMILES": "O(C)C1=C(C)C=C(C(O)=O)C=C1C",
    "meta_data": {
        "InChI": "InChI=1S/C10H12O3/c1-6-4-8(10(11)12)5-7(2)9(6)13-3/h4-5H,1-3H3,(H,11,12)",
        "InChIKey": null,
        "Canonical SMILES": "O=C(O)C=1C=C(C(OC)=C(C1)C)C",
        "Molecular Formula": "C<sub>10</sub>H<sub>12</sub>O<sub>3</sub>",
        "Molecular Mass": "180.20",
        "Melting Point": "192-193 °C"
    }
}