{
    "cas_no": "103055-07-8",
    "key_name": "Lufenuron",
    "cn_name": "禄芬隆;虱螨脲;氯芬新;氯芬奴隆;1-[2,5-二氯-4-(1,1,2,3,3,3-六氟丙氧基)苯基]-3-(2,6-二氟苯甲酰基)脲;",
    "alternate_name": "Benzamide, <em>N</em>-[[[2,5-dichloro-4-(1,1,2,3,3,3-hexafluoropropoxy)phenyl]amino]carbonyl]-2,6-difluoro-;<em>N</em>-[[[2,5-Dichloro-4-(1,1,2,3,3,3-hexafluoropropoxy)phenyl]amino]carbonyl]-2,6-difluorobenzamide;Lufenuron;CGA 184699;Match;Match (pesticide);Fluphenacur;Program;Match 5EC;Fuoro;(<em>RS</em>)-1-[2,5-Dichloro-4-(1,1,2,3,3,3-hexafluoropropoxy)phenyl]-3-(2,6-difluorobenzoyl)urea;Cigna;Mani (insecticide);Mani",
    "duplicated_cas_no": "",
    "SMILES": "O(C(C(C(F)(F)F)F)(F)F)C1=C(Cl)C=C(NC(NC(=O)C2=C(F)C=CC=C2F)=O)C(Cl)=C1",
    "meta_data": {
        "InChI": "InChI=1S/C17H8Cl2F8N2O3/c18-6-5-11(32-17(26,27)14(22)16(23,24)25)7(19)4-10(6)28-15(31)29-13(30)12-8(20)2-1-3-9(12)21/h1-5,14H,(H2,28,29,30,31)",
        "InChIKey": null,
        "Canonical SMILES": "O=C(NC(=O)C=1C(F)=CC=CC1F)NC=2C=C(Cl)C(OC(F)(F)C(F)C(F)(F)F)=CC2Cl",
        "Molecular Formula": "C<sub>17</sub>H<sub>8</sub>Cl<sub>2</sub>F<sub>8</sub>N<sub>2</sub>O<sub>3</sub>",
        "Molecular Mass": "511.15",
        "Melting Point": "166 °C"
    }
}