{
    "cas_no": "621-88-5",
    "key_name": "Phenoxyacetamide",
    "cn_name": "苯氧乙酰胺;",
    "alternate_name": "Acetamide, 2-phenoxy-;2-Phenoxyacetamide;Phenoxyacetamide;NSC 1865",
    "duplicated_cas_no": "",
    "SMILES": "O(CC(N)=O)C1=CC=CC=C1",
    "meta_data": {
        "InChI": "InChI=1S/C8H9NO2/c9-8(10)6-11-7-4-2-1-3-5-7/h1-5H,6H2,(H2,9,10)",
        "InChIKey": null,
        "Canonical SMILES": "O=C(N)COC=1C=CC=CC1",
        "Molecular Formula": "C<sub>8</sub>H<sub>9</sub>NO<sub>2</sub>",
        "Molecular Mass": "151.16",
        "Melting Point": "102 °C"
    }
}