{
    "cas_no": "652-31-3",
    "key_name": "2,3,4,5,6-Pentafluorobenzamide",
    "cn_name": "2,3,4,5,6-五氟苯甲酰胺;",
    "alternate_name": "Benzamide, 2,3,4,5,6-pentafluoro-;2,3,4,5,6-Pentafluorobenzamide;Pentafluorobenzamide;NSC 96889",
    "duplicated_cas_no": "",
    "SMILES": "C(N)(=O)C1=C(F)C(F)=C(F)C(F)=C1F",
    "meta_data": {
        "InChI": "InChI=1S/C7H2F5NO/c8-2-1(7(13)14)3(9)5(11)6(12)4(2)10/h(H2,13,14)",
        "InChIKey": null,
        "Canonical SMILES": "O=C(N)C=1C(F)=C(F)C(F)=C(F)C1F",
        "Molecular Formula": "C<sub>7</sub>H<sub>2</sub>F<sub>5</sub>NO",
        "Molecular Mass": "211.09",
        "Melting Point": "147 °C"
    }
}