{
    "cas_no": "572-96-3",
    "key_name": "Dihydrovitamin K<sub>1</sub>",
    "cn_name": "二氢维他命 K1;",
    "alternate_name": "1,4-Naphthalenediol, 2-methyl-3-[(2<em>E</em>,7<em>R</em>,11<em>R</em>)-3,7,11,15-tetramethyl-2-hexadecen-1-yl]-;1,4-Naphthalenediol, 2-methyl-3-phytyl-, (<em>E</em>)-;1,4-Naphthalenediol, 2-methyl-3-(3,7,11,15-tetramethyl-2-hexadecenyl)-, [<em>R</em>-[<em>R</em>*,<em>R</em>*-(<em>E</em>)]]-;1,4-Naphthalenediol, 2-methyl-3-[(2<em>E</em>,7<em>R</em>,11<em>R</em>)-3,7,11,15-tetramethyl-2-hexadecenyl]-;2-Methyl-3-[(2<em>E</em>,7<em>R</em>,11<em>R</em>)-3,7,11,15-tetramethyl-2-hexadecen-1-yl]-1,4-naphthalenediol;Dihydrovitamin K<sub>1</sub>;2-Methyl-3-phytyl-1,4-naphthohydroquinone;α-Phyllohydroquinone;Phylloquinone, dihydro-;Phytonadiol;Vitamin K<sub>1</sub> hydroquinone;Reduced phylloquinone",
    "duplicated_cas_no": "911658-38-3",
    "SMILES": "OC=1C2=C(C(O)=C(C)C1C/C=C(/CCC[C@@H](CCC[C@@H](CCCC(C)C)C)C)\\C)C=CC=C2",
    "meta_data": {
        "InChI": "InChI=1S/C31H48O2/c1-22(2)12-9-13-23(3)14-10-15-24(4)16-11-17-25(5)20-21-27-26(6)30(32)28-18-7-8-19-29(28)31(27)33/h7-8,18-20,22-24,32-33H,9-17,21H2,1-6H3/b25-20+/t23-,24-/m1/s1",
        "InChIKey": null,
        "Canonical SMILES": "OC=1C=2C=CC=CC2C(O)=C(C1C)CC=C(C)CCCC(C)CCCC(C)CCCC(C)C",
        "Molecular Formula": "C<sub>31</sub>H<sub>48</sub>O<sub>2</sub>",
        "Molecular Mass": "452.71",
        "Melting Point": "96-97 °C"
    }
}