{
    "cas_no": "26311-45-5",
    "key_name": "4-Pentylbenzoic acid",
    "cn_name": "4-正戊基苯甲酸;",
    "alternate_name": "Benzoic acid, 4-pentyl-;Benzoic acid, <em>p</em>-pentyl-;4-Pentylbenzoic acid;<em>p</em>-Pentylbenzoic acid;<em>p</em>-Amylbenzoic acid;4-<em>n</em>-Pentylbenzoic acid;4-Amylbenzoic acid;NSC 169024",
    "duplicated_cas_no": "",
    "SMILES": "C(CCCC)C1=CC=C(C(O)=O)C=C1",
    "meta_data": {
        "InChI": "InChI=1S/C12H16O2/c1-2-3-4-5-10-6-8-11(9-7-10)12(13)14/h6-9H,2-5H2,1H3,(H,13,14)",
        "InChIKey": null,
        "Canonical SMILES": "O=C(O)C1=CC=C(C=C1)CCCCC",
        "Molecular Formula": "C<sub>12</sub>H<sub>16</sub>O<sub>2</sub>",
        "Molecular Mass": "192.25",
        "Melting Point": "88 °C"
    }
}