{
    "cas_no": "1852-16-0",
    "key_name": "<em>N</em>-(Butoxymethyl)acrylamide",
    "cn_name": "N-丁氧基甲基丙烯酰胺;",
    "alternate_name": "2-Propenamide, <em>N</em>-(butoxymethyl)-;Acrylamide, <em>N</em>-(butoxymethyl)-;<em>N</em>-(Butoxymethyl)-2-propenamide;<em>N</em>-(Butoxymethyl)acrylamide;NBM;Wasmer BMA;Wasmer NBM;Cylink NBMA",
    "duplicated_cas_no": "80979-51-7",
    "SMILES": "C(NC(C=C)=O)OCCCC",
    "meta_data": {
        "InChI": "InChI=1S/C8H15NO2/c1-3-5-6-11-7-9-8(10)4-2/h4H,2-3,5-7H2,1H3,(H,9,10)",
        "InChIKey": null,
        "Canonical SMILES": "O=C(C=C)NCOCCCC",
        "Molecular Formula": "C<sub>8</sub>H<sub>15</sub>NO<sub>2</sub>",
        "Molecular Mass": "157.21",
        "Boiling Point": "110-112 °C @ Press: 0.03 Torr",
        "Melting Point": "-9-6 °C",
        "Density": "0.9693 g/cm³ @ Temp: 25 °C"
    }
}