{
    "cas_no": "41060-15-5",
    "key_name": "Neobavaisoflavone",
    "cn_name": "补骨脂甲素;",
    "alternate_name": "4<em>H</em>-1-Benzopyran-4-one, 7-hydroxy-3-[4-hydroxy-3-(3-methyl-2-buten-1-yl)phenyl]-;4<em>H</em>-1-Benzopyran-4-one, 7-hydroxy-3-[4-hydroxy-3-(3-methyl-2-butenyl)phenyl]-;7-Hydroxy-3-[4-hydroxy-3-(3-methyl-2-buten-1-yl)phenyl]-4<em>H</em>-1-benzopyran-4-one;Neobavaisoflavone",
    "duplicated_cas_no": "",
    "SMILES": "O=C1C(=COC=2C1=CC=C(O)C2)C3=CC(CC=C(C)C)=C(O)C=C3",
    "meta_data": {
        "InChI": "InChI=1S/C20H18O4/c1-12(2)3-4-14-9-13(5-8-18(14)22)17-11-24-19-10-15(21)6-7-16(19)20(17)23/h3,5-11,21-22H,4H2,1-2H3",
        "InChIKey": null,
        "Canonical SMILES": "O=C1C(=COC2=CC(O)=CC=C12)C=3C=CC(O)=C(C3)CC=C(C)C",
        "Molecular Formula": "C<sub>20</sub>H<sub>18</sub>O<sub>4</sub>",
        "Molecular Mass": "322.35",
        "Melting Point": "189-191 °C"
    }
}