{
    "cas_no": "506-42-3",
    "key_name": "Elaidyl alcohol",
    "cn_name": "反-9-十八烯醇;",
    "alternate_name": "9-Octadecen-1-ol, (9<em>E</em>)-;9-Octadecen-1-ol, (<em>E</em>)-;9-Octadecen-1-ol, <em>trans</em>-;(9<em>E</em>)-9-Octadecen-1-ol;<em>trans</em>-9-Octadecen-1-ol;Elaidyl alcohol;Octadeca-9-<em>trans</em>-en-1-ol;<em>trans</em>-Δ<sup>9</sup>-Octadecenol;(<em>E</em>)-9-Octadecen-1-ol;<em>trans</em>-6-Octadecenol;NSC 72786;Elaidic alcohol",
    "duplicated_cas_no": "",
    "SMILES": "C(=C/CCCCCCCC)\\CCCCCCCCO",
    "meta_data": {
        "InChI": "InChI=1S/C18H36O/c1-2-3-4-5-6-7-8-9-10-11-12-13-14-15-16-17-18-19/h9-10,19H,2-8,11-18H2,1H3/b10-9+",
        "InChIKey": null,
        "Canonical SMILES": "OCCCCCCCCC=CCCCCCCCC",
        "Molecular Formula": "C<sub>18</sub>H<sub>36</sub>O",
        "Molecular Mass": "268.48",
        "Melting Point": "36-37 °C"
    }
}