{
    "cas_no": "873-32-5",
    "key_name": "2-Chlorobenzonitrile",
    "cn_name": "邻氯苯腈;2-氯苯腈;OCBN;",
    "alternate_name": "Benzonitrile, 2-chloro-;Benzonitrile, <em>o</em>-chloro-;2-Chlorobenzonitrile;<em>o</em>-Chlorobenzonitrile;<em>o</em>-Cyanochlorobenzene;<em>o</em>-Chlorocyanobenzene;2-Cyanochlorobenzene;2-Chlorophenyl cyanide;1-Chloro-2-cyanobenzene;NSC 8438",
    "duplicated_cas_no": "",
    "SMILES": "C(#N)C1=C(Cl)C=CC=C1",
    "meta_data": {
        "InChI": "InChI=1S/C7H4ClN/c8-7-4-2-1-3-6(7)5-9/h1-4H",
        "InChIKey": null,
        "Canonical SMILES": "N#CC=1C=CC=CC1Cl",
        "Molecular Formula": "C<sub>7</sub>H<sub>4</sub>ClN",
        "Molecular Mass": "137.57",
        "Boiling Point": "232 °C",
        "Melting Point": "46.3 °C"
    }
}