{
    "cas_no": "13063-04-2",
    "key_name": "Nitidine, chloride",
    "cn_name": "氯化两面针碱;2,3-二甲氧基-12-甲基-(1,3)-苯并二恶茂并(5,6-c)菲啶鎓氯化物;",
    "alternate_name": "[1,3]Benzodioxolo[5,6-<em>c</em>]phenanthridinium, 2,3-dimethoxy-12-methyl-, chloride (1:1);Nitidine, chloride;[1,3]Benzodioxolo[5,6-<em>c</em>]phenanthridinium, 2,3-dimethoxy-12-methyl-, chloride;NSC 146397;SML 0610",
    "duplicated_cas_no": "",
    "SMILES": "C[N+]=1C=2C(C=3C(C1)=CC(OC)=C(OC)C3)=CC=C4C2C=C5C(=C4)OCO5.[Cl-]",
    "meta_data": {
        "InChI": "InChI=1S/C21H18NO4.ClH/c1-22-10-13-7-17(23-2)18(24-3)8-15(13)14-5-4-12-6-19-20(26-11-25-19)9-16(12)21(14)22;/h4-10H,11H2,1-3H3;1H/q+1;/p-1",
        "InChIKey": null,
        "Canonical SMILES": "[Cl-].O(C1=CC=2C=[N+](C=3C(=CC=C4C=C5OCOC5=CC43)C2C=C1OC)C)C",
        "Molecular Formula": "C<sub>21</sub>H<sub>18</sub>NO<sub>4</sub>.Cl",
        "Molecular Mass": "",
        "Melting Point": "283-286 °C"
    }
}