{
    "cas_no": "13338-63-1",
    "key_name": "(3,4,5-Trimethoxyphenyl)acetonitrile",
    "cn_name": "3,4,5-三甲氧基苯乙腈;",
    "alternate_name": "Benzeneacetonitrile, 3,4,5-trimethoxy-;Acetonitrile, (3,4,5-trimethoxyphenyl)-;3,4,5-Trimethoxybenzeneacetonitrile;3,4,5-Trimethoxybenzylnitrile;(3,4,5-Trimethoxyphenyl)acetonitrile;3,4,5-Trimethoxybenzyl cyanide;2-(3,4,5-Trimethoxyphenyl)acetonitrile;NSC 97556",
    "duplicated_cas_no": "",
    "SMILES": "O(C)C1=C(OC)C=C(CC#N)C=C1OC",
    "meta_data": {
        "InChI": "InChI=1S/C11H13NO3/c1-13-9-6-8(4-5-12)7-10(14-2)11(9)15-3/h6-7H,4H2,1-3H3",
        "InChIKey": null,
        "Canonical SMILES": "N#CCC1=CC(OC)=C(OC)C(OC)=C1",
        "Molecular Formula": "C<sub>11</sub>H<sub>13</sub>NO<sub>3</sub>",
        "Molecular Mass": "207.23",
        "Melting Point": "77 °C"
    }
}