{
    "cas_no": "2243-98-3",
    "key_name": "1-Undecyne",
    "cn_name": "1-十一炔;",
    "alternate_name": "1-Undecyne;NSC 87633",
    "duplicated_cas_no": "",
    "SMILES": "C(CCCCC)CCCC#C",
    "meta_data": {
        "InChI": "InChI=1S/C11H20/c1-3-5-7-9-11-10-8-6-4-2/h1H,4-11H2,2H3",
        "InChIKey": null,
        "Canonical SMILES": "C#CCCCCCCCCC",
        "Molecular Formula": "C<sub>11</sub>H<sub>20</sub>",
        "Molecular Mass": "152.28",
        "Boiling Point": "196 °C",
        "Melting Point": "-25 °C",
        "Density": "0.8024 g/cm³ @ Temp: 13 °C"
    }
}