{
    "cas_no": "39906-04-2",
    "key_name": "4,6-Dichloro-2-methyl-5-pyrimidinamine",
    "cn_name": null,
    "alternate_name": "5-Pyrimidinamine, 4,6-dichloro-2-methyl-;Pyrimidine, 5-amino-4,6-dichloro-2-methyl-;4,6-Dichloro-2-methyl-5-pyrimidinamine;5-Amino-4,6-dichloro-2-methylpyrimidine;4,6-Dichloro-2-methylpyrimidin-5-amine;2-Methyl-4,6-dichloro-5-aminopyrimidine;4,6-Dichloro-2-methylpyrimidin-5-ylamine",
    "duplicated_cas_no": "",
    "SMILES": "NC=1C(Cl)=NC(C)=NC1Cl",
    "meta_data": {
        "InChI": "InChI=1S/C5H5Cl2N3/c1-2-9-4(6)3(8)5(7)10-2/h8H2,1H3",
        "InChIKey": null,
        "Canonical SMILES": "ClC=1N=C(N=C(Cl)C1N)C",
        "Molecular Formula": "C<sub>5</sub>H<sub>5</sub>Cl<sub>2</sub>N<sub>3</sub>",
        "Molecular Mass": "178.02",
        "Melting Point": "70-72 °C"
    }
}