{
    "cas_no": "502487-67-4",
    "key_name": "<em>N</em><sup>1</sup>-[(2<em>E</em>)-3,7-Dimethyl-2,6-octadien-1-yl]-<em>N</em><sup>2</sup>-tricyclo[3.3.1.1<sup>3,7</sup>]dec-2-yl-1,2-ethanediamine",
    "cn_name": null,
    "alternate_name": "1,2-Ethanediamine, <em>N</em><sup>1</sup>-[(2<em>E</em>)-3,7-dimethyl-2,6-octadien-1-yl]-<em>N</em><sup>2</sup>-tricyclo[3.3.1.1<sup>3,7</sup>]dec-2-yl-;1,2-Ethanediamine, <em>N</em>-[(2<em>E</em>)-3,7-dimethyl-2,6-octadienyl]-<em>N</em>′-tricyclo[3.3.1.1<sup>3,7</sup>]dec-2-yl-;<em>N</em><sup>1</sup>-[(2<em>E</em>)-3,7-Dimethyl-2,6-octadien-1-yl]-<em>N</em><sup>2</sup>-tricyclo[3.3.1.1<sup>3,7</sup>]dec-2-yl-1,2-ethanediamine;SQ 109;NSC 722041",
    "duplicated_cas_no": "",
    "SMILES": "N(CCNC/C=C(/CCC=C(C)C)\\C)C1C2CC3CC1CC(C2)C3",
    "meta_data": {
        "InChI": "InChI=1S/C22H38N2/c1-16(2)5-4-6-17(3)7-8-23-9-10-24-22-20-12-18-11-19(14-20)15-21(22)13-18/h5,7,18-24H,4,6,8-15H2,1-3H3/b17-7+",
        "InChIKey": null,
        "Canonical SMILES": "C(=C(C)C)CCC(=CCNCCNC1C2CC3CC(C2)CC1C3)C",
        "Molecular Formula": "C<sub>22</sub>H<sub>38</sub>N<sub>2</sub>",
        "Molecular Mass": "330.55",
        "Melting Point": "180-184 °C"
    }
}