{
    "cas_no": "26471-62-5",
    "key_name": "Toluene diisocyanate",
    "cn_name": null,
    "alternate_name": "Benzene, 1,3-diisocyanatomethyl-;Isocyanic acid, methyl-<em>m</em>-phenylene ester;1,3-Diisocyanatomethylbenzene;TDI;Toluene diisocyanate;Tolylene diisocyanate;Methylphenylene isocyanate;Methyl-<em>m</em>-phenylene isocyanate;Tolylene isocyanate;Diisocyanatotoluene;TDI 80/20;TDI 80;TDI 65;T 65;Isocyanic acid, methylphenylene ester;TDI 50;TDI 60;TDI T 80;TDI T 65;Lupranate TDI;DN 53S6;Puronate 946",
    "duplicated_cas_no": "1321-39-7;8065-47-2;25321-34-0;29033-29-2;50853-47-9;50985-24-5;71215-63-9;72214-34-7;80498-23-3;89698-92-0;104213-33-4;110681-06-6;136154-22-8;1186289-23-5;1204229-13-9;1204746-08-6;1211316-67-4;1326716-94-2;1421949-89-4;1422250-41-6;1422343-79-0;1432062-26-4",
    "SMILES": "",
    "meta_data": {
        "InChI": "",
        "InChIKey": null,
        "Canonical SMILES": "",
        "Molecular Formula": "C<sub>9</sub>H<sub>6</sub>N<sub>2</sub>O<sub>2</sub>",
        "Molecular Mass": "",
        "Boiling Point": "251 °C",
        "Melting Point": "20 °C",
        "Density": "1.22 g/cm³ @ Temp: 25 °C"
    }
}