{
    "cas_no": "120-83-2",
    "key_name": "2,4-Dichlorophenol",
    "cn_name": "2,4-二氯酚;2,4-二氯苯酚;",
    "alternate_name": "Phenol, 2,4-dichloro-;2,4-Dichlorophenol;DCP;4,6-Dichlorophenol;1,3-Dichloro-4-hydroxybenzene;2,4-Dichlorophenic acid;2,4-DCP;NSC 2879",
    "duplicated_cas_no": "",
    "SMILES": "ClC1=C(O)C=CC(Cl)=C1",
    "meta_data": {
        "InChI": "InChI=1S/C6H4Cl2O/c7-4-1-2-6(9)5(8)3-4/h1-3,9H",
        "InChIKey": null,
        "Canonical SMILES": "ClC1=CC=C(O)C(Cl)=C1",
        "Molecular Formula": "C<sub>6</sub>H<sub>4</sub>Cl<sub>2</sub>O",
        "Molecular Mass": "163.00",
        "Boiling Point": "210 °C",
        "Melting Point": "45 °C",
        "Density": "1.383 g/cm³ @ Temp: 60 °C"
    }
}