{
    "cas_no": "1670-47-9",
    "key_name": "1,1-Diethoxycyclohexane",
    "cn_name": "1,1-二乙氧基环己烷;",
    "alternate_name": "Cyclohexane, 1,1-diethoxy-;Cyclohexanone, diethyl acetal;1,1-Diethoxycyclohexane;Cyclohexanone diethyl ketal",
    "duplicated_cas_no": "",
    "SMILES": "O(CC)C1(OCC)CCCCC1",
    "meta_data": {
        "InChI": "InChI=1S/C10H20O2/c1-3-11-10(12-4-2)8-6-5-7-9-10/h3-9H2,1-2H3",
        "InChIKey": null,
        "Canonical SMILES": "O(CC)C1(OCC)CCCCC1",
        "Molecular Formula": "C<sub>10</sub>H<sub>20</sub>O<sub>2</sub>",
        "Molecular Mass": "172.26",
        "Boiling Point": "75-76 °C @ Press: 13 Torr",
        "Density": "0.916 g/cm³ @ Temp: 20 °C"
    }
}