{
    "cas_no": "103-44-6",
    "key_name": "2-Ethylhexyl vinyl ether",
    "cn_name": "2-乙基己基乙烯醚;乙烯-2-乙基己基醚;2-乙基己基乙烯基醚;",
    "alternate_name": "Heptane, 3-[(ethenyloxy)methyl]-;Ether, 2-ethylhexyl vinyl;3-[(Ethenyloxy)methyl]heptane;1-Ethenoxy-2-ethylhexane;2-Ethylhexyl vinyl ether;Vinyl 2-ethylhexyl ether;NSC 24170;Rapi-Cure EHVE;Ethyl hexyl vinyl ether;1-(Ethenyloxy)-2-ethylhexane;2EHVE",
    "duplicated_cas_no": "",
    "SMILES": "C(CCCC)(COC=C)CC",
    "meta_data": {
        "InChI": "InChI=1S/C10H20O/c1-4-7-8-10(5-2)9-11-6-3/h6,10H,3-5,7-9H2,1-2H3",
        "InChIKey": null,
        "Canonical SMILES": "O(C=C)CC(CC)CCCC",
        "Molecular Formula": "C<sub>10</sub>H<sub>20</sub>O",
        "Molecular Mass": "156.27",
        "Melting Point": "-100 °C"
    }
}