{
    "cas_no": "141-75-3",
    "key_name": "Butanoyl chloride",
    "cn_name": "正丁酰氯;丁酰氯;氯丁酰;",
    "alternate_name": "Butanoyl chloride;Butyryl chloride;Butyroyl chloride;<em>n</em>-Butyryl chloride;Butyric chloride;Butyric acid chloride;<em>n</em>-Butanoyl chloride;<em>n</em>-Butyroyl chloride;Butanoic acid chloride",
    "duplicated_cas_no": "",
    "SMILES": "C(C(Cl)=O)CC",
    "meta_data": {
        "InChI": "InChI=1S/C4H7ClO/c1-2-3-4(5)6/h2-3H2,1H3",
        "InChIKey": null,
        "Canonical SMILES": "O=C(Cl)CCC",
        "Molecular Formula": "C<sub>4</sub>H<sub>7</sub>ClO",
        "Molecular Mass": "106.55",
        "Boiling Point": "101-102 °C",
        "Melting Point": "-89 °C",
        "Density": "1.0263 g/cm³ @ Temp: 20.6 °C"
    }
}