{
    "cas_no": "2423-73-6",
    "key_name": "4-Nitro-2,6-diphenylphenol",
    "cn_name": null,
    "alternate_name": "[1,1′:3′,1′′-Terphenyl]-2′-ol, 5′-nitro-;Phenol, 4-nitro-2,6-diphenyl-;5′-Nitro[1,1′:3′,1′′-terphenyl]-2′-ol;4-Nitro-2,6-diphenylphenol;2,6-Diphenyl-4-nitrophenol",
    "duplicated_cas_no": "",
    "SMILES": "OC1=C(C=C(N(=O)=O)C=C1C2=CC=CC=C2)C3=CC=CC=C3",
    "meta_data": {
        "InChI": "InChI=1S/C18H13NO3/c20-18-16(13-7-3-1-4-8-13)11-15(19(21)22)12-17(18)14-9-5-2-6-10-14/h1-12,20H",
        "InChIKey": null,
        "Canonical SMILES": "O=N(=O)C1=CC(C=2C=CC=CC2)=C(O)C(=C1)C=3C=CC=CC3",
        "Molecular Formula": "C<sub>18</sub>H<sub>13</sub>NO<sub>3</sub>",
        "Molecular Mass": "291.30",
        "Melting Point": "136 °C"
    }
}