{
    "cas_no": "66137-74-4",
    "key_name": "1,1,2,2-Tetrafluoro-2-(1,1,2,2-tetrafluoro-2-iodoethoxy)ethanesulfonyl fluoride",
    "cn_name": "四氟-2-(四氟-2-碘乙氧基)乙烷氟化磺酰;",
    "alternate_name": "Ethanesulfonyl fluoride, 1,1,2,2-tetrafluoro-2-(1,1,2,2-tetrafluoro-2-iodoethoxy)-;1,1,2,2-Tetrafluoro-2-(1,1,2,2-tetrafluoro-2-iodoethoxy)ethanesulfonyl fluoride;2-(2-Iodotetrafluoroethoxy)tetrafluoroethanesulfonyl fluoride;2-(2-Iodo-1,1,2,2-tetrafluoroethoxy)-1,1,2,2-tetrafluoroethanesulfonyl fluoride;5-Iodo-octafluoropentyl-3-oxapentanesulfonyl fluoride",
    "duplicated_cas_no": "2451298-96-5",
    "SMILES": "C(C(S(F)(=O)=O)(F)F)(OC(C(F)(F)I)(F)F)(F)F",
    "meta_data": {
        "InChI": "InChI=1S/C4F9IO3S/c5-1(6,14)2(7,8)17-3(9,10)4(11,12)18(13,15)16",
        "InChIKey": null,
        "Canonical SMILES": "O=S(=O)(F)C(F)(F)C(F)(F)OC(F)(F)C(F)(F)I",
        "Molecular Formula": "C<sub>4</sub>F<sub>9</sub>IO<sub>3</sub>S",
        "Molecular Mass": "426.00",
        "Boiling Point": "127 °C @ Press: 760 Torr"
    }
}