{
    "cas_no": "15580-20-8",
    "key_name": "1-Cyclohexyl-3-(2-morpholinoethyl)carbodiimide",
    "cn_name": null,
    "alternate_name": "4-Morpholineethanamine, <em>N</em>-(cyclohexylcarbonimidoyl)-;Carbodiimide, cyclohexyl(2-morpholinoethyl)-;<em>N</em>-(Cyclohexylcarbonimidoyl)-4-morpholineethanamine;1-Cyclohexyl-3-[2-(4-morpholinyl)ethyl]carbodiimide;1-Cyclohexyl-3-(2-morpholinoethyl)carbodiimide;<em>N</em>-Cyclohexyl-<em>N</em>′-β-morpholinoethylcarbodiimide;CMCD;<em>N</em>-Cyclohexyl-<em>N</em>′-(2-morpholinoethyl)carbodiimide;NSC 163986",
    "duplicated_cas_no": "",
    "SMILES": "N(=C=NCCN1CCOCC1)C2CCCCC2",
    "meta_data": {
        "InChI": "InChI=1S/C13H23N3O/c1-2-4-13(5-3-1)15-12-14-6-7-16-8-10-17-11-9-16/h13H,1-11H2",
        "InChIKey": null,
        "Canonical SMILES": "C(=NCCN1CCOCC1)=NC2CCCCC2",
        "Molecular Formula": "C<sub>13</sub>H<sub>23</sub>N<sub>3</sub>O",
        "Molecular Mass": "237.34",
        "Boiling Point": "145 °C @ Press: 0.2 Torr"
    }
}