{
    "cas_no": "37464-90-7",
    "key_name": "5,8-Dimethoxy-2-tetralone",
    "cn_name": "5,8-二甲氧基-3,4-二氢-1H-2-萘酮;5,8-二甲氧基-2-四氢萘酮;",
    "alternate_name": "2(1<em>H</em>)-Naphthalenone, 3,4-dihydro-5,8-dimethoxy-;3,4-Dihydro-5,8-dimethoxy-2(1<em>H</em>)-naphthalenone;5,8-Dimethoxy-β-tetralone;5,8-Dimethoxy-2-tetralone;1,4-Dimethoxy-6-tetralone;NSC 246148",
    "duplicated_cas_no": "",
    "SMILES": "O(C)C1=C2C(=C(OC)C=C1)CCC(=O)C2",
    "meta_data": {
        "InChI": "InChI=1S/C12H14O3/c1-14-11-5-6-12(15-2)10-7-8(13)3-4-9(10)11/h5-6H,3-4,7H2,1-2H3",
        "InChIKey": null,
        "Canonical SMILES": "O=C1CC=2C(OC)=CC=C(OC)C2CC1",
        "Molecular Formula": "C<sub>12</sub>H<sub>14</sub>O<sub>3</sub>",
        "Molecular Mass": "206.24",
        "Melting Point": "99-100 °C"
    }
}