{
    "cas_no": "11042-64-1",
    "key_name": "γ-Oryzanol",
    "cn_name": null,
    "alternate_name": "γ-Oryzanol;OZ;γ-OZ;γ-Orizanol;Hi-Z;Caclate;Oryvita;Gammajust 50;Oliver;Oryzaal;Gammatsul;Guntrin;Gamma-OZ;Maspiron;Thiaminogen;gamma-Orizanol",
    "duplicated_cas_no": "69865-54-9;73561-06-5",
    "SMILES": "",
    "meta_data": {
        "InChI": "",
        "InChIKey": null,
        "Canonical SMILES": "",
        "Molecular Formula": "Unspecified",
        "Molecular Mass": "",
        "Melting Point": "135-137 °C"
    }
}