{
    "uri": "substance/pt/11042641",
    "rn": "11042-64-1",
    "name": "γ-Oryzanol",
    "images": [],
    "inchi": "",
    "inchiKey": "",
    "smile": "",
    "canonicalSmile": "",
    "molecularFormula": "Unspecified",
    "molecularMass": "",
    "experimentalProperties": [
        {
            "name": "Melting Point",
            "property": "135-137 °C",
            "sourceNumber": 1
        }
    ],
    "propertyCitations": [
        {
            "docUri": "",
            "sourceNumber": 1,
            "source": "Drugs - Synonyms and Properties data were obtained from Ashgate Publishing Co. (US)"
        }
    ],
    "synonyms": [
        "γ-Oryzanol",
        "OZ",
        "γ-OZ",
        "γ-Orizanol",
        "Hi-Z",
        "Caclate",
        "Oryvita",
        "Gammajust 50",
        "Oliver",
        "Oryzaal",
        "Gammatsul",
        "Guntrin",
        "Gamma-OZ",
        "Maspiron",
        "Thiaminogen",
        "gamma-Orizanol"
    ],
    "replacedRns": [
        "69865-54-9",
        "73561-06-5"
    ],
    "hasMolfile": false,
    "source": "https://commonchemistry.cas.org/detail?cas_rn=11042-64-1"
}