{
    "cas_no": "148-01-6",
    "key_name": "Dinitolmide",
    "cn_name": "2-甲基-3,5-二硝基苯甲酰胺;二硝托胺;",
    "alternate_name": "Benzamide, 2-methyl-3,5-dinitro-;<em>o</em>-Toluamide, 3,5-dinitro-;2-Methyl-3,5-dinitrobenzamide;3,5-Dinitro-<em>o</em>-toluamide;Zoalene;Coccidine A;Zoamix;Coccidot;Dinitolmide;3,5-Dinitro-2-methylbenzamide;Salcostat;Coccidin;Dinitrotoluamide;MeSH ID: D004135",
    "duplicated_cas_no": "8028-26-0",
    "SMILES": "C(N)(=O)C1=C(C)C(N(=O)=O)=CC(N(=O)=O)=C1",
    "meta_data": {
        "InChI": "InChI=1S/C8H7N3O5/c1-4-6(8(9)12)2-5(10(13)14)3-7(4)11(15)16/h2-3H,1H3,(H2,9,12)",
        "InChIKey": null,
        "Canonical SMILES": "O=C(N)C=1C=C(C=C(C1C)N(=O)=O)N(=O)=O",
        "Molecular Formula": "C<sub>8</sub>H<sub>7</sub>N<sub>3</sub>O<sub>5</sub>",
        "Molecular Mass": "225.16",
        "Melting Point": "181 °C"
    }
}