{
    "cas_no": "504-61-0",
    "key_name": "<em>trans</em>-Crotyl alcohol",
    "cn_name": "巴豆醇(顺反混合物);",
    "alternate_name": "2-Buten-1-ol, (2<em>E</em>)-;2-Buten-1-ol, (<em>E</em>)-;2-Buten-1-ol, <em>trans</em>-;(2<em>E</em>)-2-Buten-1-ol;<em>trans</em>-2-Buten-1-ol;<em>trans</em>-Crotonyl alcohol;<em>trans</em>-Crotyl alcohol;<em>trans</em>-2-Butenol;<em>trans</em>-2-Butenyl alcohol;(<em>E</em>)-2-Buten-1-ol;(<em>E</em>)-Crotyl alcohol;(E)-2-Butene-1-ol;2-Butene, ammoniate (1:1), (2<em>E</em>)-",
    "duplicated_cas_no": "542-72-3;2378467-37-7",
    "SMILES": "C(=C/C)\\CO",
    "meta_data": {
        "InChI": "InChI=1S/C4H8O/c1-2-3-4-5/h2-3,5H,4H2,1H3/b3-2+",
        "InChIKey": null,
        "Canonical SMILES": "OCC=CC",
        "Molecular Formula": "C<sub>4</sub>H<sub>8</sub>O",
        "Molecular Mass": "72.11",
        "Boiling Point": "121.2 °C",
        "Melting Point": "&lt;-30 °C",
        "Density": "0.8454 g/cm³ @ Temp: 25 °C"
    }
}