{
    "cas_no": "116313-85-0",
    "key_name": "3,4-Dihydroxy-5-nitrobenzaldehyde",
    "cn_name": "3,4-二羟基-5-硝基苯甲醛;",
    "alternate_name": "Benzaldehyde, 3,4-dihydroxy-5-nitro-;3,4-Dihydroxy-5-nitrobenzaldehyde;3-Nitro-4,5-dihydroxybenzaldehyde;4,5-Dihydroxy-3-nitrobenzaldehyde",
    "duplicated_cas_no": "",
    "SMILES": "N(=O)(=O)C1=C(O)C(O)=CC(C=O)=C1",
    "meta_data": {
        "InChI": "InChI=1S/C7H5NO5/c9-3-4-1-5(8(12)13)7(11)6(10)2-4/h1-3,10-11H",
        "InChIKey": null,
        "Canonical SMILES": "O=CC=1C=C(O)C(O)=C(C1)N(=O)=O",
        "Molecular Formula": "C<sub>7</sub>H<sub>5</sub>NO<sub>5</sub>",
        "Molecular Mass": "183.12",
        "Melting Point": "148-150 °C"
    }
}