{
    "cas_no": "29921-57-1",
    "key_name": "Isopropyl bromoacetate",
    "cn_name": "溴乙酸异丙酯;",
    "alternate_name": "Acetic acid, 2-bromo-, 1-methylethyl ester;Acetic acid, bromo-, isopropyl ester;Acetic acid, bromo-, 1-methylethyl ester;Isopropyl bromoacetate;1-Methylethyl monobromoacetate;Isopropyl α-bromoacetate;Bromoacetic acid isopropyl ester;2-Bromoacetic acid isopropyl ester;Isopropyl 2-bromoacetate",
    "duplicated_cas_no": "1458687-84-7",
    "SMILES": "C(OC(C)C)(CBr)=O",
    "meta_data": {
        "InChI": "InChI=1S/C5H9BrO2/c1-4(2)8-5(7)3-6/h4H,3H2,1-2H3",
        "InChIKey": null,
        "Canonical SMILES": "O=C(OC(C)C)CBr",
        "Molecular Formula": "C<sub>5</sub>H<sub>9</sub>BrO<sub>2</sub>",
        "Molecular Mass": "181.03",
        "Boiling Point": "52-54 °C @ Press: 10 Torr",
        "Density": "1.3980 g/cm³ @ Temp: 20 °C"
    }
}