{
    "cas_no": "50629-82-8",
    "key_name": "Halometasone",
    "cn_name": "卤甲松;",
    "alternate_name": "Pregna-1,4-diene-3,20-dione, 2-chloro-6,9-difluoro-11,17,21-trihydroxy-16-methyl-, (6α,11β,16α)-;(6α,11β,16α)-2-Chloro-6,9-difluoro-11,17,21-trihydroxy-16-methylpregna-1,4-diene-3,20-dione;2-Chloro-6α,9-difluoro-11β,17,21-trihydroxy-16α-methylpregna-1,4-diene-3,20-dione;2-Chloroflumethasone;Halometasone;Ba 48401;Sicorten;Halomethasone;C 48401Ba",
    "duplicated_cas_no": "",
    "SMILES": "F[C@@]12[C@]([C@]3([C@](C)(C[C@@H]1O)[C@](C(CO)=O)(O)[C@H](C)C3)[H])(C[C@H](F)C=4[C@]2(C)C=C(Cl)C(=O)C4)[H]",
    "meta_data": {
        "InChI": "InChI=1S/C22H27ClF2O5/c1-10-4-11-12-5-15(24)13-6-16(27)14(23)7-19(13,2)21(12,25)17(28)8-20(11,3)22(10,30)18(29)9-26/h6-7,10-12,15,17,26,28,30H,4-5,8-9H2,1-3H3/t10-,11+,12+,15+,17+,19+,20+,21+,22+/m1/s1",
        "InChIKey": null,
        "Canonical SMILES": "O=C1C=C2C(F)CC3C4CC(C)C(O)(C(=O)CO)C4(C)CC(O)C3(F)C2(C=C1Cl)C",
        "Molecular Formula": "C<sub>22</sub>H<sub>27</sub>ClF<sub>2</sub>O<sub>5</sub>",
        "Molecular Mass": "444.90",
        "Melting Point": "221 °C (decomp)"
    }
}