{
    "cas_no": "50594-66-6",
    "key_name": "Acifluorfen",
    "cn_name": "三氟羧草醚;5-(2-氯-4-三氟甲基苯氧基)-2-硝基苯甲酸;",
    "alternate_name": "Benzoic acid, 5-[2-chloro-4-(trifluoromethyl)phenoxy]-2-nitro-;5-[2-Chloro-4-(trifluoromethyl)phenoxy]-2-nitrobenzoic acid;Acifluorfen;2-Nitro-5-(2-chloro-4-trifluoromethylphenoxy)benzoic acid;3-Carboxy-2′-chloro-4′-trifluoromethyl-4-nitrodiphenyl ether;PPG 847;Acifluorfene;Acifluorfen H",
    "duplicated_cas_no": "94128-04-8",
    "SMILES": "O(C1=CC(C(O)=O)=C(N(=O)=O)C=C1)C2=C(Cl)C=C(C(F)(F)F)C=C2",
    "meta_data": {
        "InChI": "InChI=1S/C14H7ClF3NO5/c15-10-5-7(14(16,17)18)1-4-12(10)24-8-2-3-11(19(22)23)9(6-8)13(20)21/h1-6H,(H,20,21)",
        "InChIKey": null,
        "Canonical SMILES": "O=C(O)C1=CC(OC2=CC=C(C=C2Cl)C(F)(F)F)=CC=C1N(=O)=O",
        "Molecular Formula": "C<sub>14</sub>H<sub>7</sub>ClF<sub>3</sub>NO<sub>5</sub>",
        "Molecular Mass": "361.66",
        "Melting Point": "150 °C"
    }
}