{
    "cas_no": "85-15-4",
    "key_name": "2-Methylnaphth[1,2-<em>d</em>]oxazole",
    "cn_name": "2-甲基-beta-萘并噁唑;",
    "alternate_name": "Naphth[1,2-<em>d</em>]oxazole, 2-methyl-;2-Methylnaphth[1,2-<em>d</em>]oxazole;2-Methyl-4,5-benzobenzoxazole;2-Methylnaphtho[1,2-<em>d</em>]oxazole;2-Methylnaphtho[1,2-<em>d</em>][1,3]oxazole",
    "duplicated_cas_no": "",
    "SMILES": "CC1=NC=2C=3C(C=CC2O1)=CC=CC3",
    "meta_data": {
        "InChI": "InChI=1S/C12H9NO/c1-8-13-12-10-5-3-2-4-9(10)6-7-11(12)14-8/h2-7H,1H3",
        "InChIKey": null,
        "Canonical SMILES": "N1=C(OC2=CC=C3C=CC=CC3=C12)C",
        "Molecular Formula": "C<sub>12</sub>H<sub>9</sub>NO",
        "Molecular Mass": "183.21",
        "Boiling Point": "312 °C",
        "Melting Point": "27 °C"
    }
}