{
    "cas_no": "3025-95-4",
    "key_name": "Acetyl-β-alanine",
    "cn_name": "N-乙酰-β-丙胺酸;",
    "alternate_name": "β-Alanine, <em>N</em>-acetyl-;<em>N</em>-Acetyl-β-alanine;3-Acetamidopropionic acid;Acetyl-β-alanine;<em>N</em>-Acetyl-3-aminopropanoic acid;NSC 32039;3-(Acetylamino)propionic acid;3-(Acetylamino)propanoic acid;3-Acetamidopropanoic acid",
    "duplicated_cas_no": "",
    "SMILES": "C(CC(O)=O)NC(C)=O",
    "meta_data": {
        "InChI": "InChI=1S/C5H9NO3/c1-4(7)6-3-2-5(8)9/h2-3H2,1H3,(H,6,7)(H,8,9)",
        "InChIKey": null,
        "Canonical SMILES": "O=C(O)CCNC(=O)C",
        "Molecular Formula": "C<sub>5</sub>H<sub>9</sub>NO<sub>3</sub>",
        "Molecular Mass": "131.13",
        "Melting Point": "77-79 °C"
    }
}