{
    "cas_no": "34047-39-7",
    "key_name": "4-(Methylthio)-2-butanone",
    "cn_name": "4-甲硫基-2-丁酮;",
    "alternate_name": "2-Butanone, 4-(methylthio)-;4-(Methylthio)-2-butanone;4-Methylsulfanylbutan-2-one",
    "duplicated_cas_no": "",
    "SMILES": "C(C(C)=O)CSC",
    "meta_data": {
        "InChI": "InChI=1S/C5H10OS/c1-5(6)3-4-7-2/h3-4H2,1-2H3",
        "InChIKey": null,
        "Canonical SMILES": "O=C(C)CCSC",
        "Molecular Formula": "C<sub>5</sub>H<sub>10</sub>OS",
        "Molecular Mass": "118.20",
        "Boiling Point": "77-78 °C @ Press: 20 Torr"
    }
}