{
    "cas_no": "1479-58-9",
    "key_name": "(2-Amino-5-bromophenyl)(2-fluorophenyl)methanone",
    "cn_name": "2-氨基-5-溴-2\"-氟二苯甲酮;",
    "alternate_name": "Methanone, (2-amino-5-bromophenyl)(2-fluorophenyl)-;Benzophenone, 2-amino-5-bromo-2′-fluoro-;(2-Amino-5-bromophenyl)(2-fluorophenyl)methanone;2-Amino-5-bromo-2′-fluorobenzophenone;2-Amino-2′-fluoro-5-bromobenzophenone",
    "duplicated_cas_no": "",
    "SMILES": "C(=O)(C1=C(N)C=CC(Br)=C1)C2=C(F)C=CC=C2",
    "meta_data": {
        "InChI": "InChI=1S/C13H9BrFNO/c14-8-5-6-12(16)10(7-8)13(17)9-3-1-2-4-11(9)15/h1-7H,16H2",
        "InChIKey": null,
        "Canonical SMILES": "O=C(C=1C=CC=CC1F)C2=CC(Br)=CC=C2N",
        "Molecular Formula": "C<sub>13</sub>H<sub>9</sub>BrFNO",
        "Molecular Mass": "294.12",
        "Melting Point": "101-102 °C"
    }
}