{
    "cas_no": "1735-88-2",
    "key_name": "2-Cyano-<em>N</em>-(4-fluorophenyl)acetamide",
    "cn_name": null,
    "alternate_name": "Acetamide, 2-cyano-<em>N</em>-(4-fluorophenyl)-;Acetanilide, 2-cyano-4′-fluoro-;2-Cyano-<em>N</em>-(4-fluorophenyl)acetamide;<em>N</em>-(4-Fluorophenyl)cyanoacetamide",
    "duplicated_cas_no": "",
    "SMILES": "N(C(CC#N)=O)C1=CC=C(F)C=C1",
    "meta_data": {
        "InChI": "InChI=1S/C9H7FN2O/c10-7-1-3-8(4-2-7)12-9(13)5-6-11/h1-4H,5H2,(H,12,13)",
        "InChIKey": null,
        "Canonical SMILES": "N#CCC(=O)NC1=CC=C(F)C=C1",
        "Molecular Formula": "C<sub>9</sub>H<sub>7</sub>FN<sub>2</sub>O",
        "Molecular Mass": "178.16",
        "Melting Point": "158-160 °C"
    }
}