{
    "cas_no": "2032-34-0",
    "key_name": "3,3-Diethoxypropionitrile",
    "cn_name": "氰基乙醛缩二乙醇;3,3-二乙氧基丙腈;1,1-二乙氧基-2-氰基乙烷;",
    "alternate_name": "Propanenitrile, 3,3-diethoxy-;Acetaldehyde, cyano-, diethyl acetal;3,3-Diethoxypropanenitrile;Malonaldehydenitrile diethyl acetal;3,3-Diethoxypropionitrile;Cyanoacetaldehyde diethylacetal",
    "duplicated_cas_no": "",
    "SMILES": "C(CC#N)(OCC)OCC",
    "meta_data": {
        "InChI": "InChI=1S/C7H13NO2/c1-3-9-7(5-6-8)10-4-2/h7H,3-5H2,1-2H3",
        "InChIKey": null,
        "Canonical SMILES": "N#CCC(OCC)OCC",
        "Molecular Formula": "C<sub>7</sub>H<sub>13</sub>NO<sub>2</sub>",
        "Molecular Mass": "143.18",
        "Boiling Point": "99 °C @ Press: 14 Torr",
        "Density": "0.9496 g/cm³ @ Temp: 20 °C"
    }
}