{
    "cas_no": "34298-86-7",
    "key_name": "Rhein 8-<em>O</em>-β-<span class=\"text-smallcaps\">D</span>-glucopyranoside",
    "cn_name": null,
    "alternate_name": "2-Anthracenecarboxylic acid, 5-(β-<span class=\"text-smallcaps\">D</span>-glucopyranosyloxy)-9,10-dihydro-4-hydroxy-9,10-dioxo-;Glucorhein;2-Anthroic acid, 5-(β-<span class=\"text-smallcaps\">D</span>-glucopyranosyloxy)-9,10-dihydro-4-hydroxy-9,10-dioxo-;5-(β-<span class=\"text-smallcaps\">D</span>-Glucopyranosyloxy)-9,10-dihydro-4-hydroxy-9,10-dioxo-2-anthracenecarboxylic acid;Glucorein;Rhein-8-glucoside;8-Glucosylrhein;8-Glucosidorhein-9-anthrone;Rhein 8-<em>O</em>-glucoside;Rhein 8-<em>O</em>-β-<span class=\"text-smallcaps\">D</span>-glucopyranoside",
    "duplicated_cas_no": "11005-31-5;26896-15-1;27120-22-5;27576-40-5;28880-29-7;84746-40-7",
    "SMILES": "O(C1=C2C(C(=O)C=3C(C2=O)=C(O)C=C(C(O)=O)C3)=CC=C1)[C@@H]4O[C@H](CO)[C@@H](O)[C@H](O)[C@H]4O",
    "meta_data": {
        "InChI": "InChI=1S/C21H18O11/c22-6-12-16(25)18(27)19(28)21(32-12)31-11-3-1-2-8-14(11)17(26)13-9(15(8)24)4-7(20(29)30)5-10(13)23/h1-5,12,16,18-19,21-23,25,27-28H,6H2,(H,29,30)/t12-,16-,18+,19-,21-/m1/s1",
        "InChIKey": null,
        "Canonical SMILES": "O=C(O)C1=CC(O)=C2C(=O)C=3C(OC4OC(CO)C(O)C(O)C4O)=CC=CC3C(=O)C2=C1",
        "Molecular Formula": "C<sub>21</sub>H<sub>18</sub>O<sub>11</sub>",
        "Molecular Mass": "446.36",
        "Melting Point": "266-270 °C"
    }
}