{
    "cas_no": "2024-88-6",
    "key_name": "<em>C</em>,<em>C</em>′-[(1-Methylethylidene)di-4,1-phenylene] dicarbonochloridate",
    "cn_name": "2,2-双(4-氯甲酰基苯氧基)丙烷;双酚A二(氯甲酸甲酯);",
    "alternate_name": "Carbonochloridic acid, <em>C</em>,<em>C</em>′-[(1-methylethylidene)di-4,1-phenylene] ester;Formic acid, chloro-, isopropylidenedi-<em>p</em>-phenylene ester;Carbonochloridic acid, (1-methylethylidene)di-4,1-phenylene ester;Phenol, 4,4′-isopropylidenedi-, bis(chloroformate);<em>C</em>,<em>C</em>′-[(1-Methylethylidene)di-4,1-phenylene] dicarbonochloridate;Bisphenol A bis(chloroformate);Isopropylidenedi-<em>p</em>-phenylene chloroformate;2,2-Bis[<em>p</em>-(chloroformyloxy)phenyl]propane;Bisphenol A dichloroformate;2,2-Bis(4-hydroxyphenyl)propane bis(chloroformate);Diphenylolpropane bischloroformate;2,2-Bis(4-chloroformyloxyphenyl)propane;[4-[2-(4-Carbonochloridoyloxyphenyl)propan-2-yl]phenyl] carbonochloridate",
    "duplicated_cas_no": "1129261-10-4",
    "SMILES": "C(C)(C)(C1=CC=C(OC(Cl)=O)C=C1)C2=CC=C(OC(Cl)=O)C=C2",
    "meta_data": {
        "InChI": "InChI=1S/C17H14Cl2O4/c1-17(2,11-3-7-13(8-4-11)22-15(18)20)12-5-9-14(10-6-12)23-16(19)21/h3-10H,1-2H3",
        "InChIKey": null,
        "Canonical SMILES": "O=C(Cl)OC1=CC=C(C=C1)C(C2=CC=C(OC(=O)Cl)C=C2)(C)C",
        "Molecular Formula": "C<sub>17</sub>H<sub>14</sub>Cl<sub>2</sub>O<sub>4</sub>",
        "Molecular Mass": "353.20",
        "Melting Point": "95-96 °C"
    }
}