{
    "cas_no": "609-39-2",
    "key_name": "2-Nitrofuran",
    "cn_name": "2-硝呋喃;",
    "alternate_name": "Furan, 2-nitro-;2-Nitrofuran;5-Nitrofuran;Nitrofuran;NSC 59983",
    "duplicated_cas_no": "",
    "SMILES": "N(=O)(=O)C1=CC=CO1",
    "meta_data": {
        "InChI": "InChI=1S/C4H3NO3/c6-5(7)4-2-1-3-8-4/h1-3H",
        "InChIKey": null,
        "Canonical SMILES": "O=N(=O)C=1OC=CC1",
        "Molecular Formula": "C<sub>4</sub>H<sub>3</sub>NO<sub>3</sub>",
        "Molecular Mass": "113.07",
        "Boiling Point": "134 °C",
        "Melting Point": "30 °C"
    }
}