{
    "cas_no": "23454-33-3",
    "key_name": "(17β)-17-[[(Cyclohexylmethoxy)carbonyl]oxy]estra-4,9,11-trien-3-one",
    "cn_name": "群勃龙环己甲基碳酸酯;",
    "alternate_name": "Estra-4,9,11-trien-3-one, 17-[[(cyclohexylmethoxy)carbonyl]oxy]-, (17β)-;Estra-4,9,11-trien-3-one, 17β-hydroxy-, cyclohexylmethyl carbonate;Carbonic acid, cyclohexylmethyl ester, ester with 17β-hydroxyestra-4,9,11-trien-3-one;Cyclohexanemethanol, hydrogen carbonate, ester with 17β-hydroxyestra-4,9,11-trien-3-one;(17β)-17-[[(Cyclohexylmethoxy)carbonyl]oxy]estra-4,9,11-trien-3-one;RU 2580;Trenbolone hexahydrobenzyl carbonate;Trenbolone cyclohexylmethyl carbonate;Parabolan",
    "duplicated_cas_no": "",
    "SMILES": "C[C@@]12[C@]([C@]3(C(=C4C(CC3)=CC(=O)CC4)C=C1)[H])(CC[C@@H]2OC(OCC5CCCCC5)=O)[H]",
    "meta_data": {
        "InChI": "InChI=1S/C26H34O4/c1-26-14-13-21-20-10-8-19(27)15-18(20)7-9-22(21)23(26)11-12-24(26)30-25(28)29-16-17-5-3-2-4-6-17/h13-15,17,22-24H,2-12,16H2,1H3/t22-,23+,24+,26+/m1/s1",
        "InChIKey": null,
        "Canonical SMILES": "O=C(OCC1CCCCC1)OC2CCC3C4C(C=CC23C)=C5C(=CC(=O)CC5)CC4",
        "Molecular Formula": "C<sub>26</sub>H<sub>34</sub>O<sub>4</sub>",
        "Molecular Mass": "410.55",
        "Melting Point": "90-95 °C"
    }
}