{
    "cas_no": "840-97-1",
    "key_name": "<em>N</em>-Acetyl-<span class=\"text-smallcaps\">L</span>-tyrosine ethyl ester",
    "cn_name": null,
    "alternate_name": "<span class=\"text-smallcaps\">L</span>-Tyrosine, <em>N</em>-acetyl-, ethyl ester;Tyrosine, <em>N</em>-acetyl-, ethyl ester, <span class=\"text-smallcaps\">L</span>-;<em>N</em>-Acetyl-<span class=\"text-smallcaps\">L</span>-tyrosine ethyl ester;Acetyltyrosine ethyl ester;Ethyl <em>N</em>-acetyl-<span class=\"text-smallcaps\">L</span>-tyrosinate;Acetyl-<span class=\"text-smallcaps\">L</span>-tyrosine ethyl ester;<em>N</em>-Acetyltyrosine ethyl ester;Ethyl acetyltyrosinate;(<em>S</em>)-<em>N</em>-Acetyltyrosine ethyl ester;ATEE;NSC 64725;NSC 87506;Ethyl (2S)-2-acetamido-3-(4-hydroxyphenyl)propanoate",
    "duplicated_cas_no": "7584-82-9",
    "SMILES": "[C@H](CC1=CC=C(O)C=C1)(C(OCC)=O)NC(C)=O",
    "meta_data": {
        "InChI": "InChI=1S/C13H17NO4/c1-3-18-13(17)12(14-9(2)15)8-10-4-6-11(16)7-5-10/h4-7,12,16H,3,8H2,1-2H3,(H,14,15)/t12-/m0/s1",
        "InChIKey": null,
        "Canonical SMILES": "O=C(OCC)C(NC(=O)C)CC1=CC=C(O)C=C1",
        "Molecular Formula": "C<sub>13</sub>H<sub>17</sub>NO<sub>4</sub>",
        "Molecular Mass": "251.28",
        "Melting Point": "96-97 °C"
    }
}