{
    "cas_no": "69045-78-9",
    "key_name": "2-Chloro-5-trichloromethylpyridine",
    "cn_name": "2-氯-5-三氯甲基吡啶;",
    "alternate_name": "Pyridine, 2-chloro-5-(trichloromethyl)-;2-Chloro-5-(trichloromethyl)pyridine;2-Chloro-5-trichloromethylpyridine",
    "duplicated_cas_no": "",
    "SMILES": "C(Cl)(Cl)(Cl)C=1C=CC(Cl)=NC1",
    "meta_data": {
        "InChI": "InChI=1S/C6H3Cl4N/c7-5-2-1-4(3-11-5)6(8,9)10/h1-3H",
        "InChIKey": null,
        "Canonical SMILES": "ClC1=NC=C(C=C1)C(Cl)(Cl)Cl",
        "Molecular Formula": "C<sub>6</sub>H<sub>3</sub>Cl<sub>4</sub>N",
        "Molecular Mass": "230.91",
        "Melting Point": "-18.14 °C"
    }
}