{
    "cas_no": "2895-07-0",
    "key_name": "1,1,1,3,3,5,5-Heptamethyltrisiloxane",
    "cn_name": null,
    "alternate_name": "Trisiloxane, 1,1,1,3,3,5,5-heptamethyl-;1,1,1,3,3,5,5-Heptamethyltrisiloxane;Heptamethyltrisiloxane;1,1,3,3,5,5,5-Heptamethyltrisiloxane",
    "duplicated_cas_no": "",
    "SMILES": "O([Si](O[SiH](C)C)(C)C)[Si](C)(C)C",
    "meta_data": {
        "InChI": "InChI=1S/C7H22O2Si3/c1-10(2)8-12(6,7)9-11(3,4)5/h10H,1-7H3",
        "InChIKey": null,
        "Canonical SMILES": "O([SiH](C)C)[Si](O[Si](C)(C)C)(C)C",
        "Molecular Formula": "C<sub>7</sub>H<sub>22</sub>O<sub>2</sub>Si<sub>3</sub>",
        "Molecular Mass": "222.50",
        "Boiling Point": "134-135 °C",
        "Density": "0.820 g/cm³"
    }
}