{
    "cas_no": "3179-80-4",
    "key_name": "(Laurylamidopropyl)dimethylamine",
    "cn_name": "N-[3-(二甲氨基)丙基]月桂酰胺;月桂酰胺丙基二甲基胺;",
    "alternate_name": "Dodecanamide, <em>N</em>-[3-(dimethylamino)propyl]-;<em>N</em>-[3-(Dimethylamino)propyl]dodecanamide;Lexamine L 13;<em>N</em>-[3-(Dimethylamino)propyl]lauramide;(Laurylamidopropyl)dimethylamine;Schercodine L;Mackine 801;3-Dodecanamidopropyldimethylamine;<em>N</em>′,<em>N</em>′-Dimethyl-<em>N</em>-dodecanoyl-1,3-diaminopropane;NSC 79892;<em>N</em>,<em>N</em>-Dimethylaminopropyldodecylamide;Dimethylaminopropyllaurylamide;3-Lauramidopropyldimethylamine;Lauric acid dimethylaminopropyl amide;Lauramidopropyl Dimethylamine",
    "duplicated_cas_no": "",
    "SMILES": "C(NCCCN(C)C)(CCCCCCCCCCC)=O",
    "meta_data": {
        "InChI": "InChI=1S/C17H36N2O/c1-4-5-6-7-8-9-10-11-12-14-17(20)18-15-13-16-19(2)3/h4-16H2,1-3H3,(H,18,20)",
        "InChIKey": null,
        "Canonical SMILES": "O=C(NCCCN(C)C)CCCCCCCCCCC",
        "Molecular Formula": "C<sub>17</sub>H<sub>36</sub>N<sub>2</sub>O",
        "Molecular Mass": "284.48",
        "Boiling Point": "171-194 °C @ Press: 2 Torr",
        "Melting Point": "31-33 °C"
    }
}