{
    "cas_no": "19322-27-1",
    "key_name": "4-Hydroxy-5-methyl-3(2<em>H</em>)-furanone",
    "cn_name": "4-羟基-5-甲基-3(2H)-呋喃酮;菊苣酮;",
    "alternate_name": "3(2<em>H</em>)-Furanone, 4-hydroxy-5-methyl-;4-Hydroxy-5-methyl-3(2<em>H</em>)-furanone;5-Methyl-4-hydroxy-2,3-dihydrofuran-3-one;4-Hydroxy-5-methyl-2,3-dihydrofuran-3-one;5-Methyl-4-hydroxy-3(2<em>H</em>)-furanone;Norfuraneol;Norfuronol",
    "duplicated_cas_no": "",
    "SMILES": "OC=1C(=O)COC1C",
    "meta_data": {
        "InChI": "InChI=1S/C5H6O3/c1-3-5(7)4(6)2-8-3/h7H,2H2,1H3",
        "InChIKey": null,
        "Canonical SMILES": "O=C1C(O)=C(OC1)C",
        "Molecular Formula": "C<sub>5</sub>H<sub>6</sub>O<sub>3</sub>",
        "Molecular Mass": "114.10",
        "Melting Point": "127-128 °C"
    }
}