{
    "cas_no": "1262-21-1",
    "key_name": "1,1,1,3,3,3-Hexaphenyldistannoxane",
    "cn_name": "六苯基二锡烷;双(三苯基锡)氧化物;氧化双(三苯基锡);",
    "alternate_name": "Distannoxane, 1,1,1,3,3,3-hexaphenyl-;Distannoxane, hexaphenyl-;Bis(triphenyltin) oxide;Tin, oxybis[triphenyl-;1,1,1,3,3,3-Hexaphenyldistannoxane;Triphenyltin oxide;Hexaphenyldistannoxane;Oxobis(triphenyltin);Bis(triphenylstannyl) oxide;Oxobis(triphenylstannane);Bis(triphenylstannyl) ether;NSC 113258",
    "duplicated_cas_no": "",
    "SMILES": "[Sn](O[Sn](C1=CC=CC=C1)(C2=CC=CC=C2)C3=CC=CC=C3)(C4=CC=CC=C4)(C5=CC=CC=C5)C6=CC=CC=C6",
    "meta_data": {
        "InChI": "InChI=1S/6C6H5.O.2Sn/c6*1-2-4-6-5-3-1;;;/h6*1-5H;;;",
        "InChIKey": null,
        "Canonical SMILES": "O([Sn](C=1C=CC=CC1)(C=2C=CC=CC2)C=3C=CC=CC3)[Sn](C=4C=CC=CC4)(C=5C=CC=CC5)C=6C=CC=CC6",
        "Molecular Formula": "C<sub>36</sub>H<sub>30</sub>OSn<sub>2</sub>",
        "Molecular Mass": "716.04",
        "Melting Point": "123-124 °C"
    }
}