{
    "cas_no": "10025-91-9",
    "key_name": "Antimony trichloride",
    "cn_name": "三氯化锑;氯化亚锑;",
    "alternate_name": "Stibine, trichloro-;Antimony chloride (SbCl<sub>3</sub>);Trichlorostibine;C.I. 77056;Antimony Butter;Antimony(III) chloride;Antimony trichloride;Antimonous chloride;Butter of antimony;Antimony chloride (Sb<sub>2</sub>Cl<sub>6</sub>);Trichloroantimony;Antimony(III) trichloride",
    "duplicated_cas_no": "8007-28-1;12515-76-3;39357-85-2;59922-49-5",
    "SMILES": "[Sb](Cl)(Cl)Cl",
    "meta_data": {
        "InChI": "InChI=1S/3ClH.Sb/h3*1H;/q;;;+3/p-3",
        "InChIKey": null,
        "Canonical SMILES": "Cl[Sb](Cl)Cl",
        "Molecular Formula": "Cl<sub>3</sub>Sb",
        "Molecular Mass": "",
        "Boiling Point": "223.5 °C",
        "Melting Point": "73.4 °C",
        "Density": "3.14 g/cm³"
    }
}