{
    "cas_no": "23313-21-5",
    "key_name": "Emodin 8-<em>O</em>-β-<span class=\"text-smallcaps\">D</span>-glucopyranoside",
    "cn_name": null,
    "alternate_name": "9,10-Anthracenedione, 1-(β-<span class=\"text-smallcaps\">D</span>-glucopyranosyloxy)-3,8-dihydroxy-6-methyl-;Glucopyranoside, 3,8-dihydroxy-6-methyl-1-anthraquinonyl, β-<span class=\"text-smallcaps\">D</span>-;1-(β-<span class=\"text-smallcaps\">D</span>-Glucopyranosyloxy)-3,8-dihydroxy-6-methyl-9,10-anthracenedione;Emodin glucoside B;Emodin 8-β-<span class=\"text-smallcaps\">D</span>-glucoside;Emodin 8-<em>O</em>-β-<span class=\"text-smallcaps\">D</span>-glucoside;8-<em>O</em>-β-<span class=\"text-smallcaps\">D</span>-Glucopyranosylemodin;Anthraglycoside B;Emodin 8-<em>O</em>-β-<span class=\"text-smallcaps\">D</span>-glucopyranoside;NSC 257449;Emodin 8-β-<span class=\"text-smallcaps\">D</span>-glucopyranoside;Emodin 8-<em>O</em>-glucoside;Emodin 8-<em>O</em>-β-glucoside;Emodin-8-<em>O</em>-(6′-<em>O</em>-acetyl)-β-<span class=\"text-smallcaps\">D</span>-glucoside",
    "duplicated_cas_no": "",
    "SMILES": "O(C1=C2C(C(=O)C=3C(C2=O)=C(O)C=C(C)C3)=CC(O)=C1)[C@@H]4O[C@H](CO)[C@@H](O)[C@H](O)[C@H]4O",
    "meta_data": {
        "InChI": "InChI=1S/C21H20O10/c1-7-2-9-14(11(24)3-7)18(27)15-10(16(9)25)4-8(23)5-12(15)30-21-20(29)19(28)17(26)13(6-22)31-21/h2-5,13,17,19-24,26,28-29H,6H2,1H3/t13-,17-,19+,20-,21-/m1/s1",
        "InChIKey": null,
        "Canonical SMILES": "O=C1C=2C=C(O)C=C(OC3OC(CO)C(O)C(O)C3O)C2C(=O)C4=C(O)C=C(C=C14)C",
        "Molecular Formula": "C<sub>21</sub>H<sub>20</sub>O<sub>10</sub>",
        "Molecular Mass": "432.38",
        "Melting Point": "219-220 °C"
    }
}