{
    "cas_no": "2125-23-7",
    "key_name": "Tris(2,4-dihydroxyphenyl)-1,3,5-triazine",
    "cn_name": null,
    "alternate_name": "1,3-Benzenediol, 4,4′,4′′-(1,3,5-triazine-2,4,6-triyl)tris-;Resorcinol, 4,4′,4′′-<em>s</em>-triazine-2,4,6-triyltri-;4,4′,4′′-(1,3,5-Triazine-2,4,6-triyl)tris[1,3-benzenediol];2,4,6-Tris(2,4-Dihydroxyphenyl)-<em>s</em>-triazine;2,4,6-Tris[2,4-dihydroxyphenyl]-1,3,5-triazine;2,4,6-Tri(2,4-dihydroxyphenyl)-1,3,5-triazine;Tris(2,4-dihydroxyphenyl)-1,3,5-triazine",
    "duplicated_cas_no": "",
    "SMILES": "OC1=C(C=2N=C(N=C(N2)C3=C(O)C=C(O)C=C3)C4=C(O)C=C(O)C=C4)C=CC(O)=C1",
    "meta_data": {
        "InChI": "InChI=1S/C21H15N3O6/c25-10-1-4-13(16(28)7-10)19-22-20(14-5-2-11(26)8-17(14)29)24-21(23-19)15-6-3-12(27)9-18(15)30/h1-9,25-30H",
        "InChIKey": null,
        "Canonical SMILES": "OC=1C=CC(=C(O)C1)C=2N=C(N=C(N2)C=3C=CC(O)=CC3O)C=4C=CC(O)=CC4O",
        "Molecular Formula": "C<sub>21</sub>H<sub>15</sub>N<sub>3</sub>O<sub>6</sub>",
        "Molecular Mass": "405.36",
        "Melting Point": "&lt;300 °C"
    }
}