{
    "cas_no": "765-70-8",
    "key_name": "3-Methyl-1,2-cyclopentanedione",
    "cn_name": "3-甲基环戊烷-1,2-二酮;",
    "alternate_name": "1,2-Cyclopentanedione, 3-methyl-;3-Methyl-1,2-cyclopentanedione;3-Methyl-1,2-cyclopentadione",
    "duplicated_cas_no": "79299-96-0",
    "SMILES": "O=C1C(C)CCC1=O",
    "meta_data": {
        "InChI": "InChI=1S/C6H8O2/c1-4-2-3-5(7)6(4)8/h4H,2-3H2,1H3",
        "InChIKey": null,
        "Canonical SMILES": "O=C1C(=O)C(C)CC1",
        "Molecular Formula": "C<sub>6</sub>H<sub>8</sub>O<sub>2</sub>",
        "Molecular Mass": "112.13",
        "Melting Point": "104.5 °C"
    }
}