{
    "cas_no": "100189-17-1",
    "key_name": "6-Methyl-3-pyridineethanol",
    "cn_name": "6-甲基-3-吡啶乙醇;",
    "alternate_name": "3-Pyridineethanol, 6-methyl-;6-Methyl-3-pyridineethanol;2-(6-Methylpyridin-3-yl)ethanol;2-(6-Methylpyridin-3-yl)ethan-1-ol;2-(6-Methyl-3-pyridyl)ethanol",
    "duplicated_cas_no": "",
    "SMILES": "C(CO)C=1C=CC(C)=NC1",
    "meta_data": {
        "InChI": "InChI=1S/C8H11NO/c1-7-2-3-8(4-5-10)6-9-7/h2-3,6,10H,4-5H2,1H3",
        "InChIKey": null,
        "Canonical SMILES": "OCCC1=CN=C(C=C1)C",
        "Molecular Formula": "C<sub>8</sub>H<sub>11</sub>NO",
        "Molecular Mass": "137.18",
        "Boiling Point": "103 °C @ Press: 2 Torr",
        "Melting Point": "38 °C"
    }
}