{
    "cas_no": "2043-53-0",
    "key_name": "1,1,1,2,2,3,3,4,4,5,5,6,6,7,7,8,8-Heptadecafluoro-10-iododecane",
    "cn_name": "1,1,1,2,2,3,3,4,4,5,5,6,6,7,7,8,8-十七氟-10-碘庚烷;2-(全氟辛基)碘代乙烷;",
    "alternate_name": "Decane, 1,1,1,2,2,3,3,4,4,5,5,6,6,7,7,8,8-heptadecafluoro-10-iodo-;1,1,1,2,2,3,3,4,4,5,5,6,6,7,7,8,8-Heptadecafluoro-10-iododecane;1-Iodo-1,1,2,2-tetrahydroperfluorodecane;1,1,2,2-Tetrahydroperfluorodecyl iodide;3,3,4,4,5,5,6,6,7,7,8,8,9,9,10,10,10-Heptadecafluorodecyl iodide;1-(2-Iodoethyl)heptadecafluorooctane;2-(Perfluorooctyl)ethyl iodide;1-(Perfluorooctyl)-2-iodoethane;2-(<em>n</em>-Perfluorooctyl)ethyl iodide;1-Iodo-1<em>H</em>,1<em>H</em>,2<em>H</em>,2<em>H</em>-perfluorodecane;1<em>H</em>,1<em>H</em>,2<em>H</em>,2<em>H</em>-Heptadecaflurorodecyl iodide;Perfluorooctylethyl iodide;3,3,4,4,5,5,6,6,7,7,8,8,9,9,10,10,10-Heptadecafluoro-1-iododecane;1-Iodo-3,3,4,4,5,5,6,6,7,7,8,8,9,9,10,10,10-heptadecafluorodecane;1-Iodo-2-(perfluorooctyl)ethane;1<em>H</em>,1<em>H</em>,2<em>H</em>,2<em>H</em>-Perfluorodecyl iodide;10-Iodo-1,1,1,2,2,3,3,4,4,5,5,6,6,7,7,8,8-heptadecafluorodecane;1<em>H</em>,1<em>H</em>,2<em>H</em>,2<em>H</em>-Heptadecafluorodecyl iodide",
    "duplicated_cas_no": "",
    "SMILES": "C(C(C(C(C(F)(F)F)(F)F)(F)F)(F)F)(C(C(C(CCI)(F)F)(F)F)(F)F)(F)F",
    "meta_data": {
        "InChI": "InChI=1S/C10H4F17I/c11-3(12,1-2-28)4(13,14)5(15,16)6(17,18)7(19,20)8(21,22)9(23,24)10(25,26)27/h1-2H2",
        "InChIKey": null,
        "Canonical SMILES": "FC(F)(F)C(F)(F)C(F)(F)C(F)(F)C(F)(F)C(F)(F)C(F)(F)C(F)(F)CCI",
        "Molecular Formula": "C<sub>10</sub>H<sub>4</sub>F<sub>17</sub>I",
        "Molecular Mass": "574.02",
        "Boiling Point": "90-91 °C @ Press: 10 Torr",
        "Melting Point": "50 °C"
    }
}