{
    "cas_no": "59473-45-9",
    "key_name": "2-Iodobenzyl chloride",
    "cn_name": "邻碘氯苄;",
    "alternate_name": "Benzene, 1-(chloromethyl)-2-iodo-;Toluene, α-chloro-<em>o</em>-iodo-;1-(Chloromethyl)-2-iodobenzene;<em>o</em>-Iodobenzyl chloride;2-Iodobenzyl chloride;α-Chloro-<em>o</em>-iodotoluene;1-Chloromethyl-2-iodobenzene",
    "duplicated_cas_no": "",
    "SMILES": "C(Cl)C1=C(I)C=CC=C1",
    "meta_data": {
        "InChI": "InChI=1S/C7H6ClI/c8-5-6-3-1-2-4-7(6)9/h1-4H,5H2",
        "InChIKey": null,
        "Canonical SMILES": "ClCC=1C=CC=CC1I",
        "Molecular Formula": "C<sub>7</sub>H<sub>6</sub>ClI",
        "Molecular Mass": "252.48",
        "Melting Point": "28.5-29.5 °C"
    }
}