{
    "cas_no": "935-14-8",
    "key_name": "1,4-Diethynylbenzene",
    "cn_name": "1,4-二乙炔基苯;",
    "alternate_name": "Benzene, 1,4-diethynyl-;Benzene, <em>p</em>-diethynyl-;1,4-Diethynylbenzene;<em>p</em>-Diethynylbenzene;1,4-Bis(ethynyl)benzene;1,4-Diacetylenebenzene;1,4-Diacetylenylbenzene",
    "duplicated_cas_no": "",
    "SMILES": "C(#C)C1=CC=C(C#C)C=C1",
    "meta_data": {
        "InChI": "InChI=1S/C10H6/c1-3-9-5-7-10(4-2)8-6-9/h1-2,5-8H",
        "InChIKey": null,
        "Canonical SMILES": "C#CC1=CC=C(C#C)C=C1",
        "Molecular Formula": "C<sub>10</sub>H<sub>6</sub>",
        "Molecular Mass": "126.15",
        "Melting Point": "96.5 °C"
    }
}