{
    "cas_no": "4313-03-5",
    "key_name": "(<em>E</em>,<em>E</em>)-2,4-Heptadienal",
    "cn_name": "(E,E)-2,4-庚二烯醛;反式-2,4-庚二烯醛;",
    "alternate_name": "2,4-Heptadienal, (2<em>E</em>,4<em>E</em>)-;2,4-Heptadienal, (<em>E</em>,<em>E</em>)-;(2<em>E</em>,4<em>E</em>)-2,4-Heptadienal;<em>trans</em>-2-<em>trans</em>-4-Heptadienal;<em>trans</em>,<em>trans</em>-2,4-Heptadienal;(<em>E</em>,<em>E</em>)-2,4-Heptadien-1-al;<em>all</em>-<em>trans</em>-2,4-Heptadienal;(<em>E</em>,<em>E</em>)-2,4-Heptadienal;2<em>E</em>,4<em>E</em>-Heptadienal;2-<em>trans</em>-4-<em>trans</em>-Heptadienal",
    "duplicated_cas_no": "",
    "SMILES": "C(\\C=C\\C=O)=C/CC",
    "meta_data": {
        "InChI": "InChI=1S/C7H10O/c1-2-3-4-5-6-7-8/h3-7H,2H2,1H3/b4-3+,6-5+",
        "InChIKey": null,
        "Canonical SMILES": "O=CC=CC=CCC",
        "Molecular Formula": "C<sub>7</sub>H<sub>10</sub>O",
        "Molecular Mass": "110.15",
        "Melting Point": "84.5 °C"
    }
}