{
    "cas_no": "530-91-6",
    "key_name": "1,2,3,4-Tetrahydro-2-naphthalenol",
    "cn_name": "1,2,3,4-四氢-2-萘酚;",
    "alternate_name": "2-Naphthalenol, 1,2,3,4-tetrahydro-;2-Naphthol, 1,2,3,4-tetrahydro-;1,2,3,4-Tetrahydro-2-naphthalenol;1,2,3,4-Tetrahydro-2-naphthol;β-Tetralol;2-Hydroxytetralin;2-Tetralinol;2-Tetralol;2-Hydroxy-1,2,3,4-tetrahydronaphthalene;(±)-1,2,3,4-Tetrahydro-2-naphthol;NSC 44875;NSC 5669;1,2,3,4-Tetrahydronaphthalen-2-ol",
    "duplicated_cas_no": "113725-16-9",
    "SMILES": "OC1CC=2C(CC1)=CC=CC2",
    "meta_data": {
        "InChI": "InChI=1S/C10H12O/c11-10-6-5-8-3-1-2-4-9(8)7-10/h1-4,10-11H,5-7H2",
        "InChIKey": null,
        "Canonical SMILES": "OC1CC=2C=CC=CC2CC1",
        "Molecular Formula": "C<sub>10</sub>H<sub>12</sub>O",
        "Molecular Mass": "148.20",
        "Boiling Point": "140 °C @ Press: 12 Torr",
        "Melting Point": "15.5 °C",
        "Density": "1.0715 g/cm³ @ Temp: 17 °C"
    }
}