{
    "cas_no": "794-94-5",
    "key_name": "Benzoic acid, 4-methoxy-, 1,1′-anhydride",
    "cn_name": "4-甲氧基苯甲酸酐;",
    "alternate_name": "Benzoic acid, 4-methoxy-, 1,1′-anhydride;<em>p</em>-Anisic anhydride;Benzoic acid, 4-methoxy-, anhydride;<em>p</em>-Methoxybenzoic anhydride;<em>p</em>-Anisic acid anhydride;4-Methoxybenzoic anhydride;NSC 101011;4-Methoxybenzoic acid anhydride;(4-Methoxybenzoyl) 4-methoxybenzoate",
    "duplicated_cas_no": "",
    "SMILES": "C(OC(=O)C1=CC=C(OC)C=C1)(=O)C2=CC=C(OC)C=C2",
    "meta_data": {
        "InChI": "InChI=1S/C16H14O5/c1-19-13-7-3-11(4-8-13)15(17)21-16(18)12-5-9-14(20-2)10-6-12/h3-10H,1-2H3",
        "InChIKey": null,
        "Canonical SMILES": "O=C(OC(=O)C1=CC=C(OC)C=C1)C2=CC=C(OC)C=C2",
        "Molecular Formula": "C<sub>16</sub>H<sub>14</sub>O<sub>5</sub>",
        "Molecular Mass": "286.28",
        "Boiling Point": "304-310 °C @ Press: 10 Torr",
        "Melting Point": "98.5-98.8 °C"
    }
}