{
    "cas_no": "5202-89-1",
    "key_name": "Methyl 2-amino-5-chlorobenzoate",
    "cn_name": "2-氨基-5-氯苯甲酸甲酯;",
    "alternate_name": "Benzoic acid, 2-amino-5-chloro-, methyl ester;Anthranilic acid, 5-chloro-, methyl ester;Methyl 5-chloroanthranilate;Methyl 2-amino-5-chlorobenzoate;5-Chloroanthranilic acid methyl ester;2-Amino-5-chlorobenzoic acid methyl ester;4-Chloro-2-carbomethoxyaniline;5-Chloro anthranilate methyl",
    "duplicated_cas_no": "",
    "SMILES": "C(OC)(=O)C1=C(N)C=CC(Cl)=C1",
    "meta_data": {
        "InChI": "InChI=1S/C8H8ClNO2/c1-12-8(11)6-4-5(9)2-3-7(6)10/h2-4H,10H2,1H3",
        "InChIKey": null,
        "Canonical SMILES": "O=C(OC)C1=CC(Cl)=CC=C1N",
        "Molecular Formula": "C<sub>8</sub>H<sub>8</sub>ClNO<sub>2</sub>",
        "Molecular Mass": "185.61",
        "Boiling Point": "168-170 °C",
        "Melting Point": "66-68 °C"
    }
}