{
    "cas_no": "3209-13-0",
    "key_name": "3-Methoxy-5-methylphenol",
    "cn_name": "3-甲氧基-5-甲酚;3-甲氧基-5-甲基苯酚;",
    "alternate_name": "Phenol, 3-methoxy-5-methyl-;<em>m</em>-Cresol, 5-methoxy-;3-Methoxy-5-methylphenol;3-Hydroxy-5-methoxytoluene;Orcinol monomethyl ether;Orsin monomethyl ether;3-Methyl-5-methoxyphenol;<em>O</em>-Methylorcinol;orcinyle;Orcinyl-3",
    "duplicated_cas_no": "",
    "SMILES": "O(C)C1=CC(C)=CC(O)=C1",
    "meta_data": {
        "InChI": "InChI=1S/C8H10O2/c1-6-3-7(9)5-8(4-6)10-2/h3-5,9H,1-2H3",
        "InChIKey": null,
        "Canonical SMILES": "OC=1C=C(OC)C=C(C1)C",
        "Molecular Formula": "C<sub>8</sub>H<sub>10</sub>O<sub>2</sub>",
        "Molecular Mass": "138.16",
        "Boiling Point": "259 °C @ Press: 755 Torr",
        "Melting Point": "135-137 °C",
        "Density": "1.1106 g/cm³ @ Temp: 15 °C"
    }
}