{
    "cas_no": "20423-99-8",
    "key_name": "Deprodone",
    "cn_name": "迪普罗酮;",
    "alternate_name": "Pregna-1,4-diene-3,20-dione, 11,17-dihydroxy-, (11β)-;Pregna-1,4-diene-3,20-dione, 11β,17-dihydroxy-;(11β)-11,17-Dihydroxypregna-1,4-diene-3,20-dione;21-Deoxyprednisolone;Deprodone;Desolone",
    "duplicated_cas_no": "",
    "SMILES": "C[C@@]12[C@]([C@]3([C@@]([C@]4(C)C(CC3)=CC(=O)C=C4)([C@@H](O)C1)[H])[H])(CC[C@@]2(C(C)=O)O)[H]",
    "meta_data": {
        "InChI": "InChI=1S/C21H28O4/c1-12(22)21(25)9-7-16-15-5-4-13-10-14(23)6-8-19(13,2)18(15)17(24)11-20(16,21)3/h6,8,10,15-18,24-25H,4-5,7,9,11H2,1-3H3/t15-,16-,17-,18+,19-,20-,21-/m0/s1",
        "InChIKey": null,
        "Canonical SMILES": "O=C1C=CC2(C(=C1)CCC3C4CCC(O)(C(=O)C)C4(C)CC(O)C32)C",
        "Molecular Formula": "C<sub>21</sub>H<sub>28</sub>O<sub>4</sub>",
        "Molecular Mass": "344.44",
        "Melting Point": "271.5-273 °C (decomp)"
    }
}