{
    "cas_no": "612-17-9",
    "key_name": "1,4-Dihydronaphthalene",
    "cn_name": "1,4-二羟基萘;1,4-二氢萘;",
    "alternate_name": "Naphthalene, 1,4-dihydro-;1,4-Dihydronaphthalene;Δ<sup>2</sup>-Dialin;NSC 97894",
    "duplicated_cas_no": "",
    "SMILES": "C=12C(=CC=CC1)CC=CC2",
    "meta_data": {
        "InChI": "InChI=1S/C10H10/c1-2-6-10-8-4-3-7-9(10)5-1/h1-6H,7-8H2",
        "InChIKey": null,
        "Canonical SMILES": "C=1C=CC2=C(C1)CC=CC2",
        "Molecular Formula": "C<sub>10</sub>H<sub>10</sub>",
        "Molecular Mass": "130.19",
        "Boiling Point": "211.5 °C",
        "Melting Point": "25 °C"
    }
}