{
    "cas_no": "117-47-5",
    "key_name": "1,3-Diethyl 2-(1-methylbutyl)propanedioate",
    "cn_name": "(2-戊基)丙二酸二乙酯;",
    "alternate_name": "Propanedioic acid, 2-(1-methylbutyl)-, 1,3-diethyl ester;Malonic acid, (1-methylbutyl)-, diethyl ester;Propanedioic acid, (1-methylbutyl)-, diethyl ester;1,3-Diethyl 2-(1-methylbutyl)propanedioate;Diethyl (1-methylbutyl)malonate;1-(Methylbutyl)malonic acid diethyl ester;NSC 10820;NSC 62700;Diethyl 2-(pentan-2-yl)malonate",
    "duplicated_cas_no": "",
    "SMILES": "C(C(CCC)C)(C(OCC)=O)C(OCC)=O",
    "meta_data": {
        "InChI": "InChI=1S/C12H22O4/c1-5-8-9(4)10(11(13)15-6-2)12(14)16-7-3/h9-10H,5-8H2,1-4H3",
        "InChIKey": null,
        "Canonical SMILES": "O=C(OCC)C(C(=O)OCC)C(C)CCC",
        "Molecular Formula": "C<sub>12</sub>H<sub>22</sub>O<sub>4</sub>",
        "Molecular Mass": "230.30",
        "Boiling Point": "235-236 °C @ Press: 729 Torr",
        "Density": "0.9731 g/cm³ @ Temp: 20 °C"
    }
}