{
    "cas_no": "2777-65-3",
    "key_name": "10-Undecynoic acid",
    "cn_name": "10-炔-十一酸;10-十一碳炔酸;10-十一碳一炔酸;10-炔-十一酸;10-炔-十一酸,96%;",
    "alternate_name": "10-Undecynoic acid;10-Hendecynoic acid",
    "duplicated_cas_no": "1651863-94-3",
    "SMILES": "C(CCCCC#C)CCCC(O)=O",
    "meta_data": {
        "InChI": "InChI=1S/C11H18O2/c1-2-3-4-5-6-7-8-9-10-11(12)13/h1H,3-10H2,(H,12,13)",
        "InChIKey": null,
        "Canonical SMILES": "O=C(O)CCCCCCCCC#C",
        "Molecular Formula": "C<sub>11</sub>H<sub>18</sub>O<sub>2</sub>",
        "Molecular Mass": "182.26",
        "Boiling Point": "129-131 °C",
        "Melting Point": "42 °C"
    }
}