{
    "cas_no": "62-31-7",
    "key_name": "Dopamine hydrochloride",
    "cn_name": "盐酸多巴胺;4-(2-氨基乙基)-1,2-苯二酚盐酸盐;",
    "alternate_name": "1,2-Benzenediol, 4-(2-aminoethyl)-, hydrochloride (1:1);Pyrocatechol, 4-(2-aminoethyl)-, hydrochloride;1,2-Benzenediol, 4-(2-aminoethyl)-, hydrochloride;Dopamine hydrochloride;3-Hydroxytyramine hydrochloride;β-(3,4-Dihydroxyphenyl)ethylamine hydrochloride;3,4-Dihydroxyphenethylamine hydrochloride;Intropin;Dopamine chloride;<em>m</em>-Hydroxytyramine hydrochloride;P 498;2-(3,4-Dihydroxyphenyl)ethylamine hydrochloride;KW 3160;Inovan;Revivan;3,4-Dihydroxy-β-phenethylamine hydrochloride;Tensamin;Rascordin;Dynatra;Cardiosteril;Inotropin;Dopastat;ASL 279;Dopamine Fresenius;Dopamine Pierre Faba;4-(2-Aminoethyl)-1,2-benzenediol hydrochloride;Dopadic;Dopmin;2-(3,4-Dihydroxyphenyl)ethanaminium chloride;H 8502;D 103111;PHR 1090",
    "duplicated_cas_no": "1477-71-0;2002410-63-9",
    "SMILES": "C(CN)C1=CC(O)=C(O)C=C1.Cl",
    "meta_data": {
        "InChI": "InChI=1S/C8H11NO2.ClH/c9-4-3-6-1-2-7(10)8(11)5-6;/h1-2,5,10-11H,3-4,9H2;1H",
        "InChIKey": null,
        "Canonical SMILES": "Cl.OC1=CC=C(C=C1O)CCN",
        "Molecular Formula": "C<sub>8</sub>H<sub>11</sub>NO<sub>2</sub>.ClH",
        "Molecular Mass": "",
        "Melting Point": "240 °C (decomp)"
    }
}