{
    "cas_no": "4138-26-5",
    "key_name": "3-Piperidinecarboxamide",
    "cn_name": "3-哌啶甲酰胺;",
    "alternate_name": "3-Piperidinecarboxamide;Nipecotamide;Nipecotic acid amide;3-Carbamoylpiperidine;3-(Aminocarbonyl)piperidine;TK 523;NSC 523303;Piperidine-3-carboxylic acid amide",
    "duplicated_cas_no": "71381-76-5",
    "SMILES": "C(N)(=O)C1CCCNC1",
    "meta_data": {
        "InChI": "InChI=1S/C6H12N2O/c7-6(9)5-2-1-3-8-4-5/h5,8H,1-4H2,(H2,7,9)",
        "InChIKey": null,
        "Canonical SMILES": "O=C(N)C1CNCCC1",
        "Molecular Formula": "C<sub>6</sub>H<sub>12</sub>N<sub>2</sub>O",
        "Molecular Mass": "128.17",
        "Boiling Point": "149-160 °C @ Press: 0.3-0.5 Torr",
        "Melting Point": "111-112 °C"
    }
}