{
    "cas_no": "351-30-4",
    "key_name": "<em>N</em>-(4-Bromo-3-fluorophenyl)acetamide",
    "cn_name": "4\"-溴-3\"-氟乙酰苯胺;",
    "alternate_name": "Acetamide, <em>N</em>-(4-bromo-3-fluorophenyl)-;Acetanilide, 4′-bromo-3′-fluoro-;<em>N</em>-(4-Bromo-3-fluorophenyl)acetamide;4-Bromo-3-fluoroacetanilide",
    "duplicated_cas_no": "",
    "SMILES": "N(C(C)=O)C1=CC(F)=C(Br)C=C1",
    "meta_data": {
        "InChI": "InChI=1S/C8H7BrFNO/c1-5(12)11-6-2-3-7(9)8(10)4-6/h2-4H,1H3,(H,11,12)",
        "InChIKey": null,
        "Canonical SMILES": "O=C(NC1=CC=C(Br)C(F)=C1)C",
        "Molecular Formula": "C<sub>8</sub>H<sub>7</sub>BrFNO",
        "Molecular Mass": "232.05",
        "Melting Point": "152 °C"
    }
}