{
    "cas_no": "1199-03-7",
    "key_name": "2,3-Dimercaptoquinoxaline",
    "cn_name": null,
    "alternate_name": "2,3-Quinoxalinedithione, 1,4-dihydro-;2,3-Quinoxalinedithiol;1,4-Dihydro-2,3-quinoxalinedithione;2,3-Dimercaptoquinoxaline;2,3-Dithiolquinoxaline;NSC 56344;NSC 63917;NSC 9434;DNR 12A",
    "duplicated_cas_no": "40158-04-1",
    "SMILES": "S=C1NC=2C(NC1=S)=CC=CC2",
    "meta_data": {
        "InChI": "InChI=1S/C8H6N2S2/c11-7-8(12)10-6-4-2-1-3-5(6)9-7/h1-4H,(H,9,11)(H,10,12)",
        "InChIKey": null,
        "Canonical SMILES": "S=C1NC=2C=CC=CC2NC1=S",
        "Molecular Formula": "C<sub>8</sub>H<sub>6</sub>N<sub>2</sub>S<sub>2</sub>",
        "Molecular Mass": "194.28",
        "Melting Point": "300 °C"
    }
}