{
    "cas_no": "13100-46-4",
    "key_name": "β-<span class=\"text-smallcaps\">D</span>-Glucopyranose, 1,2,3,4-tetraacetate",
    "cn_name": "1,2,3,4-四-O-乙酰基-β-D-葡萄吡喃糖;",
    "alternate_name": "β-<span class=\"text-smallcaps\">D</span>-Glucopyranose, 1,2,3,4-tetraacetate;Glucopyranose, 1,2,3,4-tetraacetate, β-<span class=\"text-smallcaps\">D</span>-;1,2,3,4-Tetra-<em>O</em>-acetyl-β-<span class=\"text-smallcaps\">D</span>-glucopyranose;1,2,3,4-Tetra-<em>O</em>-acetyl-β-<span class=\"text-smallcaps\">D</span>-glucose;NSC 409250",
    "duplicated_cas_no": "",
    "SMILES": "O(C(C)=O)[C@@H]1[C@@H](OC(C)=O)[C@H](OC(C)=O)O[C@H](CO)[C@H]1OC(C)=O",
    "meta_data": {
        "InChI": "InChI=1S/C14H20O10/c1-6(16)20-11-10(5-15)24-14(23-9(4)19)13(22-8(3)18)12(11)21-7(2)17/h10-15H,5H2,1-4H3/t10-,11-,12+,13-,14-/m1/s1",
        "InChIKey": null,
        "Canonical SMILES": "O=C(OC1OC(CO)C(OC(=O)C)C(OC(=O)C)C1OC(=O)C)C",
        "Molecular Formula": "C<sub>14</sub>H<sub>20</sub>O<sub>10</sub>",
        "Molecular Mass": "348.30",
        "Boiling Point": "~0.120 °C (approx) @ Press: 1 x 10<sup>-4</sup> Torr",
        "Melting Point": "128-129 °C"
    }
}