{
    "cas_no": "993-13-5",
    "key_name": "Methylphosphonic acid",
    "cn_name": "甲基膦酸;甲膦酸;",
    "alternate_name": "Phosphonic acid, <em>P</em>-methyl-;Phosphonic acid, methyl-;<em>P</em>-Methylphosphonic acid;Methanephosphonic acid;Methylphosphonic acid;Dihydrogen methylphosphonate;MPA;NSC 119358",
    "duplicated_cas_no": "",
    "SMILES": "P(C)(=O)(O)O",
    "meta_data": {
        "InChI": "InChI=1S/CH5O3P/c1-5(2,3)4/h1H3,(H2,2,3,4)",
        "InChIKey": null,
        "Canonical SMILES": "O=P(O)(O)C",
        "Molecular Formula": "CH<sub>5</sub>O<sub>3</sub>P",
        "Molecular Mass": "96.02",
        "Melting Point": "108.5 °C"
    }
}