{
    "cas_no": "25245-34-5",
    "key_name": "1-Bromo-2,5-dimethoxybenzene",
    "cn_name": "1-溴-2,5-二甲氧基苯;2,5-二甲氧基溴苯;",
    "alternate_name": "Benzene, 2-bromo-1,4-dimethoxy-;2-Bromo-1,4-dimethoxybenzene;2,5-Dimethoxyphenyl bromide;1-Bromo-2,5-dimethoxybenzene;2,5-Dimethoxybromobenzene;2-Bromo-4-methoxyanisole;NSC 159052",
    "duplicated_cas_no": "",
    "SMILES": "O(C)C1=CC(Br)=C(OC)C=C1",
    "meta_data": {
        "InChI": "InChI=1S/C8H9BrO2/c1-10-6-3-4-8(11-2)7(9)5-6/h3-5H,1-2H3",
        "InChIKey": null,
        "Canonical SMILES": "BrC1=CC(OC)=CC=C1OC",
        "Molecular Formula": "C<sub>8</sub>H<sub>9</sub>BrO<sub>2</sub>",
        "Molecular Mass": "217.06",
        "Boiling Point": "252-258 °C",
        "Melting Point": "108-110 °C"
    }
}