{
    "cas_no": "792-74-5",
    "key_name": "4,4′-Dimethyl [1,1′-biphenyl]-4,4′-dicarboxylate",
    "cn_name": "联苯二甲酸二甲酯;",
    "alternate_name": "[1,1′-Biphenyl]-4,4′-dicarboxylic acid, 4,4′-dimethyl ester;4,4′-Biphenyldicarboxylic acid, dimethyl ester;[1,1′-Biphenyl]-4,4′-dicarboxylic acid, dimethyl ester;4,4′-Dimethyl [1,1′-biphenyl]-4,4′-dicarboxylate;Dimethyl 4,4′-biphenyldicarboxylate;Dimethyl [1,1′-biphenyl]-4,4′-dicarboxylate;4,4′-Bis(methoxycarbonyl)biphenyl",
    "duplicated_cas_no": "156326-47-5",
    "SMILES": "C(OC)(=O)C1=CC=C(C=C1)C2=CC=C(C(OC)=O)C=C2",
    "meta_data": {
        "InChI": "InChI=1S/C16H14O4/c1-19-15(17)13-7-3-11(4-8-13)12-5-9-14(10-6-12)16(18)20-2/h3-10H,1-2H3",
        "InChIKey": null,
        "Canonical SMILES": "O=C(OC)C=1C=CC(=CC1)C2=CC=C(C=C2)C(=O)OC",
        "Molecular Formula": "C<sub>16</sub>H<sub>14</sub>O<sub>4</sub>",
        "Molecular Mass": "270.28",
        "Melting Point": "224 °C"
    }
}