{
    "cas_no": "81-30-1",
    "key_name": "Naphthalenetetracarboxylic dianhydride",
    "cn_name": "1,4,5,8-萘四甲酸酐;",
    "alternate_name": "[2]Benzopyrano[6,5,4-<em>def</em>][2]benzopyran-1,3,6,8-tetrone;1,4,5,8-Naphthalenetetracarboxylic 1,8:4,5-dianhydride;Naphthalenetetracarboxylic dianhydride;2,7-Dioxapyrene-1,3,6,8-tetrone;1,4,5,8-Naphthalenetetracarboxylic acid dianhydride;1,8:4,5-Naphthalenetetracarboxylic dianhydride;1,4,5,8-Naphthalenetetracarboxylic dianhydride;NTCDA;Naphthalic 1,8:4,5-dianhydride;NSC 84241;Naphthalenetetracarboxylic anhydride;1,4,5,8-Tetracarboxynaphthalene dianhydride;1,4,5,8-Naphthalenetetracarboxylic acid-1,8:4,5-dianhydride;Naphthalene-4,5,8,9-tetracarboxylic dianhydride;1,4,5,8-Naphthalic dianhydride;NTDA",
    "duplicated_cas_no": "4052-78-2;1185756-13-1;2221028-26-6",
    "SMILES": "O=C1C=2C3=C4C(C(=O)OC(=O)C4=CC2)=CC=C3C(=O)O1",
    "meta_data": {
        "InChI": "InChI=1S/C14H4O6/c15-11-5-1-2-6-10-8(14(18)20-12(6)16)4-3-7(9(5)10)13(17)19-11/h1-4H",
        "InChIKey": null,
        "Canonical SMILES": "O=C1OC(=O)C2=CC=C3C(=O)OC(=O)C4=CC=C1C2=C43",
        "Molecular Formula": "C<sub>14</sub>H<sub>4</sub>O<sub>6</sub>",
        "Molecular Mass": "268.18",
        "Melting Point": "450 °C"
    }
}