{
    "cas_no": "5854-93-3",
    "key_name": "<span class=\"text-smallcaps\">L</span>-Alanosine",
    "cn_name": null,
    "alternate_name": "<span class=\"text-smallcaps\">L</span>-Alanine, 3-(hydroxynitrosoamino)-;Propionic acid, 2-amino-3-(hydroxynitrosamino)-, <span class=\"text-smallcaps\">L</span>-;3-(Hydroxynitrosoamino)-<span class=\"text-smallcaps\">L</span>-alanine;Alanosine;<span class=\"text-smallcaps\">L</span>-2-Amino-3-(<em>N</em>-nitroso)hydroxylaminopropionic acid;<span class=\"text-smallcaps\">L</span>-2-Amino-3-(hydroxynitrosamino)propionic acid;<span class=\"text-smallcaps\">L</span>-Alanosine;NSC 153353;NSC 529469;SDX 102;(<em>S</em>)-2-Amino-3-(hydroxy(nitroso)amino)propanoic acid;(2S)-2-Amino-3-[hydroxy(nitroso)amino]propanoic acid",
    "duplicated_cas_no": "16931-24-1",
    "SMILES": "C([C@@H](C(O)=O)N)N(N=O)O",
    "meta_data": {
        "InChI": "InChI=1S/C3H7N3O4/c4-2(3(7)8)1-6(10)5-9/h2,10H,1,4H2,(H,7,8)/t2-/m0/s1",
        "InChIKey": null,
        "Canonical SMILES": "O=NN(O)CC(N)C(=O)O",
        "Molecular Formula": "C<sub>3</sub>H<sub>7</sub>N<sub>3</sub>O<sub>4</sub>",
        "Molecular Mass": "149.11",
        "Melting Point": "184-187 °C (decomp)"
    }
}