{
    "cas_no": "3452-97-9",
    "key_name": "3,5,5-Trimethyl-1-hexanol",
    "cn_name": "3,5,5-三甲基-1-己醇;3,5,5-三甲基己醇;异壬醇;",
    "alternate_name": "1-Hexanol, 3,5,5-trimethyl-;3,5,5-Trimethyl-1-hexanol;Nonylol;3,5,5-Trimethylhexanol;<em>i</em>-Nonyl alcohol;3,5,5-Trimethylhexyl alcohol;NSC 83151;NSC 97226",
    "duplicated_cas_no": "140237-16-7;201404-81-1",
    "SMILES": "C(CC(C)(C)C)(CCO)C",
    "meta_data": {
        "InChI": "InChI=1S/C9H20O/c1-8(5-6-10)7-9(2,3)4/h8,10H,5-7H2,1-4H3",
        "InChIKey": null,
        "Canonical SMILES": "OCCC(C)CC(C)(C)C",
        "Molecular Formula": "C<sub>9</sub>H<sub>20</sub>O",
        "Molecular Mass": "144.25",
        "Boiling Point": "193 °C",
        "Melting Point": "-70 °C",
        "Density": "0.83 g/cm³"
    }
}