{
    "cas_no": "400-67-9",
    "key_name": "2-Chloro-4-nitro-6-(trifluoromethyl)benzenamine",
    "cn_name": "2-氯-4-硝基-6-(三氟甲基)苯胺;",
    "alternate_name": "Benzenamine, 2-chloro-4-nitro-6-(trifluoromethyl)-;<em>o</em>-Toluidine, 6-chloro-α,α,α-trifluoro-4-nitro-;2-Chloro-4-nitro-6-(trifluoromethyl)benzenamine;2-Chloro-4-nitro-6-trifluoromethylphenylamine;2-Chloro-4-nitro-6-trifluoromethylaniline;2-Amino-3-chloro-5-nitrobenzotrifluoride",
    "duplicated_cas_no": "",
    "SMILES": "C(F)(F)(F)C1=CC(N(=O)=O)=CC(Cl)=C1N",
    "meta_data": {
        "InChI": "InChI=1S/C7H4ClF3N2O2/c8-5-2-3(13(14)15)1-4(6(5)12)7(9,10)11/h1-2H,12H2",
        "InChIKey": null,
        "Canonical SMILES": "O=N(=O)C1=CC(Cl)=C(N)C(=C1)C(F)(F)F",
        "Molecular Formula": "C<sub>7</sub>H<sub>4</sub>ClF<sub>3</sub>N<sub>2</sub>O<sub>2</sub>",
        "Molecular Mass": "240.57",
        "Melting Point": "115-116 °C"
    }
}