{
    "cas_no": "2653-16-9",
    "key_name": "2-Chloro-<em>N</em>-methyl-<em>N</em>-(4-nitrophenyl)acetamide",
    "cn_name": null,
    "alternate_name": "Acetamide, 2-chloro-<em>N</em>-methyl-<em>N</em>-(4-nitrophenyl)-;Acetanilide, 2-chloro-<em>N</em>-methyl-4′-nitro-;2-Chloro-<em>N</em>-methyl-<em>N</em>-(4-nitrophenyl)acetamide;α-Chloro-<em>N</em>-methyl-<em>p</em>-nitroacetanilide",
    "duplicated_cas_no": "1961242-11-4",
    "SMILES": "N(C(CCl)=O)(C)C1=CC=C(N(=O)=O)C=C1",
    "meta_data": {
        "InChI": "InChI=1S/C9H9ClN2O3/c1-11(9(13)6-10)7-2-4-8(5-3-7)12(14)15/h2-5H,6H2,1H3",
        "InChIKey": null,
        "Canonical SMILES": "O=C(N(C1=CC=C(C=C1)N(=O)=O)C)CCl",
        "Molecular Formula": "C<sub>9</sub>H<sub>9</sub>ClN<sub>2</sub>O<sub>3</sub>",
        "Molecular Mass": "228.63",
        "Melting Point": "109.5-110 °C"
    }
}