{
    "cas_no": "1754-55-8",
    "key_name": "Benzoic acid, 2,4,6-trimethyl-, ethyl ester",
    "cn_name": "2,4,6-三甲基苯甲酸乙酯;",
    "alternate_name": "Benzoic acid, 2,4,6-trimethyl-, ethyl ester;Ethyl 2,4,6-trimethylbenzoate;Ethyl mesitoate;NSC 229348",
    "duplicated_cas_no": "14375-29-2",
    "SMILES": "C(OCC)(=O)C1=C(C)C=C(C)C=C1C",
    "meta_data": {
        "InChI": "InChI=1S/C12H16O2/c1-5-14-12(13)11-9(3)6-8(2)7-10(11)4/h6-7H,5H2,1-4H3",
        "InChIKey": null,
        "Canonical SMILES": "O=C(OCC)C=1C(=CC(=CC1C)C)C",
        "Molecular Formula": "C<sub>12</sub>H<sub>16</sub>O<sub>2</sub>",
        "Molecular Mass": "192.25",
        "Boiling Point": "140-150 °C @ Press: 35 Torr"
    }
}