{
    "cas_no": "6318-74-7",
    "key_name": "2-Amino-4,5-diphenylthiazole",
    "cn_name": null,
    "alternate_name": "2-Thiazolamine, 4,5-diphenyl-;Thiazole, 2-amino-4,5-diphenyl-;4,5-Diphenyl-2-thiazolamine;2-Amino-4,5-diphenylthiazole;4,5-Diphenyl-2-aminothiazole;2-Amino-4,5-diphenyl-1,3-thiazole;4,5-Diphenylthiazol-2-amine;4,5-Diphenyl-1,3-thiazol-2-amine;NSC 31689",
    "duplicated_cas_no": "",
    "SMILES": "NC1=NC(=C(S1)C2=CC=CC=C2)C3=CC=CC=C3",
    "meta_data": {
        "InChI": "InChI=1S/C15H12N2S/c16-15-17-13(11-7-3-1-4-8-11)14(18-15)12-9-5-2-6-10-12/h1-10H,(H2,16,17)",
        "InChIKey": null,
        "Canonical SMILES": "N1=C(SC(C=2C=CC=CC2)=C1C=3C=CC=CC3)N",
        "Molecular Formula": "C<sub>15</sub>H<sub>12</sub>N<sub>2</sub>S",
        "Molecular Mass": "252.33",
        "Melting Point": "184-185 °C"
    }
}