{
    "cas_no": "23651-95-8",
    "key_name": "Droxidopa",
    "cn_name": "屈昔多巴;屈西多巴;屈昔多巴;",
    "alternate_name": "<span class=\"text-smallcaps\">L</span>-Tyrosine, β,3-dihydroxy-, (β<em>R</em>)-;Serine, 3-(3,4-dihydroxyphenyl)-, <span class=\"text-smallcaps\">L</span>-<em>threo</em>-;<span class=\"text-smallcaps\">L</span>-Tyrosine, β,3-dihydroxy-, <em>threo</em>-;(β<em>R</em>)-β,3-Dihydroxy-<span class=\"text-smallcaps\">L</span>-tyrosine;<span class=\"text-smallcaps\">L</span>-<em>threo</em>-3,4-Dihydroxyphenylserine;<em>threo</em>-Dopaserine;(-)-<em>threo</em>-3,4-Dihydroxyphenylserine;<span class=\"text-smallcaps\">L</span>-<em>threo</em>-3-(3,4-Dihydroxyphenyl)serine;<span class=\"text-smallcaps\">L</span>-Threodops;Droxidopa;<span class=\"text-smallcaps\">L</span>-<em>threo</em>-β-(3,4-Dihydroxyphenyl)serine;<span class=\"text-smallcaps\">L</span>-DOPS;SM 5688;<span class=\"text-smallcaps\">L</span>-<em>threo</em>-DOPS;DOPS;(2<em>S</em>,3<em>R</em>)-3-(3,4-Dihydroxyphenyl)-2-amino-3-hydroxypropanoic acid;<em>threo</em>-3-(3,4-Dihydroxyphenyl)-<span class=\"text-smallcaps\">L</span>-serine;Northera;Dops OD;MeSH ID: D015103",
    "duplicated_cas_no": "",
    "SMILES": "[C@@H]([C@@H](C(O)=O)N)(O)C1=CC(O)=C(O)C=C1",
    "meta_data": {
        "InChI": "InChI=1S/C9H11NO5/c10-7(9(14)15)8(13)4-1-2-5(11)6(12)3-4/h1-3,7-8,11-13H,10H2,(H,14,15)/t7-,8+/m0/s1",
        "InChIKey": null,
        "Canonical SMILES": "O=C(O)C(N)C(O)C1=CC=C(O)C(O)=C1",
        "Molecular Formula": "C<sub>9</sub>H<sub>11</sub>NO<sub>5</sub>",
        "Molecular Mass": "213.19",
        "Melting Point": "232-235 °C"
    }
}