{
    "cas_no": "1552-94-9",
    "key_name": "5-Phenyl-2,4-pentadienoic acid",
    "cn_name": null,
    "alternate_name": "2,4-Pentadienoic acid, 5-phenyl-;5-Phenyl-2,4-pentadienoic acid;Cinnamalacetic acid;β-Styrylacrylic acid;Cinnamylideneacetic acid;NSC 109408;NSC 1778;NSC 63972;BL 1255;1-Carboxy-4-phenyl-1,3-butadiene;1-Carobxy-4-phenyl-1,3-butadiene",
    "duplicated_cas_no": "",
    "SMILES": "C(=CC=CC(O)=O)C1=CC=CC=C1",
    "meta_data": {
        "InChI": "InChI=1S/C11H10O2/c12-11(13)9-5-4-8-10-6-2-1-3-7-10/h1-9H,(H,12,13)",
        "InChIKey": null,
        "Canonical SMILES": "O=C(O)C=CC=CC=1C=CC=CC1",
        "Molecular Formula": "C<sub>11</sub>H<sub>10</sub>O<sub>2</sub>",
        "Molecular Mass": "174.20",
        "Melting Point": "165 °C"
    }
}