{
    "cas_no": "5809-23-4",
    "key_name": "2-[4-(Diethylamino)-2-hydroxybenzoyl]benzoic acid",
    "cn_name": "4-二乙氨基酮酸;N,N-二乙基-4-氨基-2-羟基-2\"-甲酸二苯甲酮;2-羟基-4-二乙氨基-2\"-羧基二苯甲酮;",
    "alternate_name": "Benzoic acid, 2-[4-(diethylamino)-2-hydroxybenzoyl]-;Benzoic acid, <em>o</em>-[4-(diethylamino)salicyloyl]-;2-[4-(Diethylamino)-2-hydroxybenzoyl]benzoic acid;<em>o</em>-[2-Hydroxy-4-(diethylamino)benzoyl]benzoic acid;2′-Carboxy-4-(diethylamino)-2-hydroxybenzophenone;4-(Diethylamino)-2-hydroxy-2′-carboxybenzophenone;<em>o</em>-[4-(Diethylamino)-2-hydroxybenzoyl]benzoic acid;1-(2-Carboxybenzoyl)-4-(diethylamino)-2-hydroxybenzene;2-[2-Hydroxy-4-(diethylamino)benzoyl]benzoic acid;4-(2-Carboxybenzoyl)-<em>N</em>,<em>N</em>-diethyl-3-hydroxyaniline;2-Hydroxy-4-(diethylamino)-2′-carboxybenzophenone;4-<em>N</em>,<em>N</em>-Diethylamino-2-hydroxy-2′-carboxybenzophenone;NSC 625797;2-Carboxyl-4′-diethylamino-2′-hydroxybenzophenone;2-(4-<em>N</em>,<em>N</em>-Diethylamino-2-hydroxybenzoyl)-benzoic acid",
    "duplicated_cas_no": "52470-08-3;53558-66-0",
    "SMILES": "C(=O)(C1=C(C(O)=O)C=CC=C1)C2=C(O)C=C(N(CC)CC)C=C2",
    "meta_data": {
        "InChI": "InChI=1S/C18H19NO4/c1-3-19(4-2)12-9-10-15(16(20)11-12)17(21)13-7-5-6-8-14(13)18(22)23/h5-11,20H,3-4H2,1-2H3,(H,22,23)",
        "InChIKey": null,
        "Canonical SMILES": "O=C(O)C=1C=CC=CC1C(=O)C2=CC=C(C=C2O)N(CC)CC",
        "Molecular Formula": "C<sub>18</sub>H<sub>19</sub>NO<sub>4</sub>",
        "Molecular Mass": "313.35",
        "Melting Point": "205-207 °C"
    }
}