{
    "cas_no": "14381-42-1",
    "key_name": "2,3-Dihydro-1<em>H</em>-indene-1-carboxylic acid",
    "cn_name": null,
    "alternate_name": "1<em>H</em>-Indene-1-carboxylic acid, 2,3-dihydro-;1-Indancarboxylic acid;2,3-Dihydro-1<em>H</em>-indene-1-carboxylic acid;Indane-1-carboxylic acid;NSC 55335;Indanyl-1-carboxylic acid",
    "duplicated_cas_no": "703-79-7",
    "SMILES": "C(O)(=O)C1C=2C(CC1)=CC=CC2",
    "meta_data": {
        "InChI": "InChI=1S/C10H10O2/c11-10(12)9-6-5-7-3-1-2-4-8(7)9/h1-4,9H,5-6H2,(H,11,12)",
        "InChIKey": null,
        "Canonical SMILES": "O=C(O)C1C=2C=CC=CC2CC1",
        "Molecular Formula": "C<sub>10</sub>H<sub>10</sub>O<sub>2</sub>",
        "Molecular Mass": "162.19",
        "Melting Point": "59-60 °C"
    }
}