{
    "cas_no": "17846-68-3",
    "key_name": "Azidotributylstannane",
    "cn_name": null,
    "alternate_name": "Stannane, azidotributyl-;Tin, azidotributyl-;Azidotributylstannane;Tributylstannyl azide;Tributyltin azide;Azidotributyltin;Tri-<em>n</em>-butyltin azide;Tri-<em>n</em>-butylstannyl azide;NSC 179738",
    "duplicated_cas_no": "",
    "SMILES": "[Sn](CCCC)(CCCC)(CCCC)N=[N+]=[N-]",
    "meta_data": {
        "InChI": "InChI=1S/3C4H9.N3.Sn/c3*1-3-4-2;1-3-2;/h3*1,3-4H2,2H3;;/q;;;-1;+1",
        "InChIKey": null,
        "Canonical SMILES": "[N-]=[N+]=N[Sn](CCCC)(CCCC)CCCC",
        "Molecular Formula": "C<sub>12</sub>H<sub>27</sub>N<sub>3</sub>Sn",
        "Molecular Mass": "",
        "Boiling Point": "118-120 °C @ Press: 0.18 Torr"
    }
}