{
    "cas_no": "6326-44-9",
    "key_name": "1,3-Diethyl 2-(formylamino)propanedioate",
    "cn_name": "甲酰氨基丙二酸二乙酯;二乙基氨基甲肟;",
    "alternate_name": "Propanedioic acid, 2-(formylamino)-, 1,3-diethyl ester;Malonic acid, formamido-, diethyl ester;Propanedioic acid, (formylamino)-, diethyl ester;1,3-Diethyl 2-(formylamino)propanedioate;Diethyl formamidomalonate;Formamidomalonic acid diethyl ester;(Formylamino)malonic acid diethyl ester;Diethyl (formylamino)malonate;NSC 224129;NSC 30639;(Formylamino)propanedioic acid diethyl ester;Diethyl 2-formamidomalonate;1,3-Diethyl 2-formamidopropanedioate",
    "duplicated_cas_no": "",
    "SMILES": "C(C(OCC)=O)(C(OCC)=O)NC=O",
    "meta_data": {
        "InChI": "InChI=1S/C8H13NO5/c1-3-13-7(11)6(9-5-10)8(12)14-4-2/h5-6H,3-4H2,1-2H3,(H,9,10)",
        "InChIKey": null,
        "Canonical SMILES": "O=CNC(C(=O)OCC)C(=O)OCC",
        "Molecular Formula": "C<sub>8</sub>H<sub>13</sub>NO<sub>5</sub>",
        "Molecular Mass": "203.19",
        "Boiling Point": "125-132 °C @ Press: 1-3 Torr",
        "Melting Point": "48.5 °C"
    }
}