{
    "cas_no": "153-97-9",
    "key_name": "7-Chlorotryptophan",
    "cn_name": null,
    "alternate_name": "Tryptophan, 7-chloro-;Tryptophan, 7-chloro-, <span class=\"text-smallcaps\">DL</span>-;<span class=\"text-smallcaps\">DL</span>-Tryptophan, 7-chloro-;7-Chlorotryptophan;7-Chloro-<span class=\"text-smallcaps\">DL</span>-tryptophan;2-Amino-3-(7-chloro-1<em>H</em>-indol-3-yl)propanoic acid",
    "duplicated_cas_no": "",
    "SMILES": "C(C(C(O)=O)N)C=1C=2C(NC1)=C(Cl)C=CC2",
    "meta_data": {
        "InChI": "InChI=1S/C11H11ClN2O2/c12-8-3-1-2-7-6(5-14-10(7)8)4-9(13)11(15)16/h1-3,5,9,14H,4,13H2,(H,15,16)",
        "InChIKey": null,
        "Canonical SMILES": "O=C(O)C(N)CC1=CNC=2C(Cl)=CC=CC12",
        "Molecular Formula": "C<sub>11</sub>H<sub>11</sub>ClN<sub>2</sub>O<sub>2</sub>",
        "Molecular Mass": "238.67",
        "Melting Point": "236-239 °C"
    }
}