{
    "cas_no": "3738-00-9",
    "key_name": "Cetalox",
    "cn_name": "十二氢-3A,6,6,9A-四甲基-萘并[2,1-B]-呋喃;",
    "alternate_name": "Naphtho[2,1-<em>b</em>]furan, dodecahydro-3a,6,6,9a-tetramethyl-;Dodecahydro-3a,6,6,9a-tetramethylnaphtho[2,1-<em>b</em>]furan;Amberlyn;Ambrox DL;Synambran;3a,6,6,9a-Tetramethyldodecahydronaphtho[2,1-<em>b</em>]furan;Cetalox;Ambrotech;Dodecahydro-3<em>a</em>,6,6,9<em>a</em>-tetramethylnaphtho[2,1-<em>b</em>]furan;Cachalox",
    "duplicated_cas_no": "21582-36-5;193980-58-4",
    "SMILES": "CC12C3C(C)(CCC1C(C)(C)CCC2)OCC3",
    "meta_data": {
        "InChI": "InChI=1S/C16H28O/c1-14(2)8-5-9-15(3)12(14)6-10-16(4)13(15)7-11-17-16/h12-13H,5-11H2,1-4H3",
        "InChIKey": null,
        "Canonical SMILES": "O1CCC2C1(C)CCC3C(C)(C)CCCC23C",
        "Molecular Formula": "C<sub>16</sub>H<sub>28</sub>O",
        "Molecular Mass": "236.39",
        "Melting Point": "75-76 °C"
    }
}