{
    "cas_no": "591-28-6",
    "key_name": "4-Thiouracil",
    "cn_name": "4-硫尿嘧啶;",
    "alternate_name": "2(1<em>H</em>)-Pyrimidinone, 3,4-dihydro-4-thioxo-;Uracil, 4-thio-;3,4-Dihydro-4-thioxo-2(1<em>H</em>)-pyrimidinone;4-Thiouracil;4-Thiopyrimidin-2-one;NSC 43288;2-Hydroxy-4-mercaptopyrimidine",
    "duplicated_cas_no": "107646-91-3;107646-90-2;4401-50-7;4401-51-8;4401-52-9",
    "SMILES": "S=C1NC(=O)NC=C1",
    "meta_data": {
        "InChI": "InChI=1S/C4H4N2OS/c7-4-5-2-1-3(8)6-4/h1-2H,(H2,5,6,7,8)",
        "InChIKey": null,
        "Canonical SMILES": "O=C1NC=CC(=S)N1",
        "Molecular Formula": "C<sub>4</sub>H<sub>4</sub>N<sub>2</sub>OS",
        "Molecular Mass": "128.15",
        "Melting Point": "289-290 °C (decomp)"
    }
}