{
    "cas_no": "942-26-7",
    "key_name": "1<em>H</em>-Indole-3-ethanamine, 5-chloro-, hydrochloride (1:1)",
    "cn_name": "5-氯色胺盐酸盐;5-氯-1H-吲哚-3-乙胺盐酸盐;",
    "alternate_name": "1<em>H</em>-Indole-3-ethanamine, 5-chloro-, hydrochloride (1:1);Indole, 3-(2-aminoethyl)-5-chloro-, hydrochloride;1<em>H</em>-Indole-3-ethanamine, 5-chloro-, monohydrochloride;5-Chlorotryptamine hydrochloride;2-(5-Chloro-1<em>H</em>-indol-3-yl)ethan-1-amine hydrochloride;2-(5-Chloro-1<em>H</em>-indol-3-yl)-ethylamine; hydrochloride;2-(5-Chloro-1<em>H</em>-indol-3-yl)ethanamine hydrochloride;2-(5-Chloro-1<em>H</em>-indol-3-yl)ethan-1-aminium chloride;5-chlorotryptammonium chloride",
    "duplicated_cas_no": "",
    "SMILES": "C(CN)C=1C=2C(NC1)=CC=C(Cl)C2.Cl",
    "meta_data": {
        "InChI": "InChI=1S/C10H11ClN2.ClH/c11-8-1-2-10-9(5-8)7(3-4-12)6-13-10;/h1-2,5-6,13H,3-4,12H2;1H",
        "InChIKey": null,
        "Canonical SMILES": "Cl.ClC=1C=CC=2NC=C(C2C1)CCN",
        "Molecular Formula": "C<sub>10</sub>H<sub>11</sub>ClN<sub>2</sub>.ClH",
        "Molecular Mass": "",
        "Melting Point": "300 °C (decomp)"
    }
}