{
    "cas_no": "29170-08-9",
    "key_name": "4-Iodo-4′-nitro-1,1′-biphenyl",
    "cn_name": "4-碘-4-硝基联苯;",
    "alternate_name": "1,1′-Biphenyl, 4-iodo-4′-nitro-;Biphenyl, 4-iodo-4′-nitro-;4-Iodo-4′-nitro-1,1′-biphenyl;4-Iodo-4′-nitrobiphenyl;4′-Iodo-4-nitro-1,1′-biphenyl;4-Iodo-4′-nitro-[1,1′-biphenyl]-;1-(4-Iodophenyl)-4-nitrobenzene",
    "duplicated_cas_no": "",
    "SMILES": "N(=O)(=O)C1=CC=C(C=C1)C2=CC=C(I)C=C2",
    "meta_data": {
        "InChI": "InChI=1S/C12H8INO2/c13-11-5-1-9(2-6-11)10-3-7-12(8-4-10)14(15)16/h1-8H",
        "InChIKey": null,
        "Canonical SMILES": "O=N(=O)C1=CC=C(C=C1)C=2C=CC(I)=CC2",
        "Molecular Formula": "C<sub>12</sub>H<sub>8</sub>INO<sub>2</sub>",
        "Molecular Mass": "325.10",
        "Melting Point": "204 °C"
    }
}