{
    "cas_no": "482-01-9",
    "key_name": "(±)-Homoferreirin",
    "cn_name": null,
    "alternate_name": "4<em>H</em>-1-Benzopyran-4-one, 3-(2,4-dimethoxyphenyl)-2,3-dihydro-5,7-dihydroxy-;Isoflavanone, 5,7-dihydroxy-2′,4′-dimethoxy-;3-(2,4-Dimethoxyphenyl)-2,3-dihydro-5,7-dihydroxy-4<em>H</em>-1-benzopyran-4-one;Homoferreirin;(±)-Homoferreirin;5,7-Dihydroxy-2′,4′-dimethoxyisoflavonone",
    "duplicated_cas_no": "66152-08-7",
    "SMILES": "O=C1C(COC=2C1=C(O)C=C(O)C2)C3=C(OC)C=C(OC)C=C3",
    "meta_data": {
        "InChI": "InChI=1S/C17H16O6/c1-21-10-3-4-11(14(7-10)22-2)12-8-23-15-6-9(18)5-13(19)16(15)17(12)20/h3-7,12,18-19H,8H2,1-2H3",
        "InChIKey": null,
        "Canonical SMILES": "O=C1C=2C(O)=CC(O)=CC2OCC1C3=CC=C(OC)C=C3OC",
        "Molecular Formula": "C<sub>17</sub>H<sub>16</sub>O<sub>6</sub>",
        "Molecular Mass": "316.31",
        "Melting Point": "165.5-168.0 °C"
    }
}