{
    "cas_no": "2941-20-0",
    "key_name": "1-Phenylpropylamine",
    "cn_name": "1-苯基丙-1-胺;alpha-乙基苄胺;",
    "alternate_name": "Benzenemethanamine, α-ethyl-;Benzylamine, α-ethyl-;α-Ethylbenzenemethanamine;1-Propanamine, 1-phenyl-;α-Ethylbenzylamine;1-Phenylpropylamine;α-Phenylpropylamine;(±)-α-Ethylbenzylamine;(±)-α-Phenylpropylamine;(±)-1-Phenylpropylamine;1-Phenyl-1-propanamine;(±)-1-Ethylbenzylamine;1-Amino-1-phenylpropane",
    "duplicated_cas_no": "35600-74-9",
    "SMILES": "C(CC)(N)C1=CC=CC=C1",
    "meta_data": {
        "InChI": "InChI=1S/C9H13N/c1-2-9(10)8-6-4-3-5-7-8/h3-7,9H,2,10H2,1H3",
        "InChIKey": null,
        "Canonical SMILES": "NC(C=1C=CC=CC1)CC",
        "Molecular Formula": "C<sub>9</sub>H<sub>13</sub>N",
        "Molecular Mass": "135.21",
        "Boiling Point": "88 °C @ Press: 14 Torr",
        "Melting Point": "192-193 °C"
    }
}