{
    "cas_no": "6933-10-4",
    "key_name": "4-Bromo-3-methylaniline",
    "cn_name": "4-溴-3-甲基苯胺;3-甲基-4-溴苯胺;",
    "alternate_name": "Benzenamine, 4-bromo-3-methyl-;<em>m</em>-Toluidine, 4-bromo-;4-Bromo-3-methylbenzenamine;5-Amino-2-bromotoluene;4-Bromo-<em>m</em>-toluidine;4-Bromo-3-methylaniline;3-Methyl-4-bromoaniline",
    "duplicated_cas_no": "",
    "SMILES": "CC1=C(Br)C=CC(N)=C1",
    "meta_data": {
        "InChI": "InChI=1S/C7H8BrN/c1-5-4-6(9)2-3-7(5)8/h2-4H,9H2,1H3",
        "InChIKey": null,
        "Canonical SMILES": "BrC1=CC=C(N)C=C1C",
        "Molecular Formula": "C<sub>7</sub>H<sub>8</sub>BrN",
        "Molecular Mass": "186.05",
        "Boiling Point": "240 °C",
        "Melting Point": "81 °C"
    }
}