{
    "cas_no": "120-94-5",
    "key_name": "1-Methylpyrrolidine",
    "cn_name": "1-甲基吡咯烷;",
    "alternate_name": "Pyrrolidine, 1-methyl-;1-Methylpyrrolidine;<em>N</em>-Methylpyrrolidine;<em>N</em>-Methyltetrahydropyrrole;NSC 65579",
    "duplicated_cas_no": "",
    "SMILES": "CN1CCCC1",
    "meta_data": {
        "InChI": "InChI=1S/C5H11N/c1-6-4-2-3-5-6/h2-5H2,1H3",
        "InChIKey": null,
        "Canonical SMILES": "N1(C)CCCC1",
        "Molecular Formula": "C<sub>5</sub>H<sub>11</sub>N",
        "Molecular Mass": "85.15",
        "Boiling Point": "81 °C",
        "Density": "1.0450 g/cm³ @ Temp: 9.8 °C"
    }
}