{
    "cas_no": "5076-82-4",
    "key_name": "Sarcosine anhydride",
    "cn_name": null,
    "alternate_name": "2,5-Piperazinedione, 1,4-dimethyl-;Cyclo(sarcosylsarcosyl);1,4-Dimethyl-2,5-piperazinedione;Sarcosine anhydride;Sarcosine anhydride, bimol. cyclic;<em>N</em>,<em>N</em>′-Dimethyldiketopiperazine;Sarcosine diketopiperazine;1,4-Dimethyl-2,5-dioxopiperazine;1,4-Dimethylpiperazine-2,5-dione;NSC 67461;Cyclo(Sar-Sar)",
    "duplicated_cas_no": "856943-36-7",
    "SMILES": "O=C1N(C)CC(=O)N(C)C1",
    "meta_data": {
        "InChI": "InChI=1S/C6H10N2O2/c1-7-3-6(10)8(2)4-5(7)9/h3-4H2,1-2H3",
        "InChIKey": null,
        "Canonical SMILES": "O=C1N(C)CC(=O)N(C)C1",
        "Molecular Formula": "C<sub>6</sub>H<sub>10</sub>N<sub>2</sub>O<sub>2</sub>",
        "Molecular Mass": "142.16",
        "Boiling Point": "304-306 °C",
        "Melting Point": "149-150 °C"
    }
}