{
    "cas_no": "15521-65-0",
    "key_name": "Nickel dimethyldithiocarbamate",
    "cn_name": "二甲氨基二硫代甲酸镍;",
    "alternate_name": "Nickel, bis(<em>N</em>,<em>N</em>-dimethylcarbamodithioato-κ<em>S</em>,κ<em>S</em>′)-, (<em>SP</em>-4-1)-;Nickel, bis(dimethyldithiocarbamato)-;Nickel, bis(dimethylcarbamodithioato-<em>S</em>,<em>S</em>′)-, (<em>SP</em>-4-1)-;Nickel, bis(dimethylcarbamodithioato-κ<em>S</em>,κ<em>S</em>′)-, (<em>SP</em>-4-1)-;Carbamodithioic acid, dimethyl-, nickel complex;(<em>SP</em>-4-1)-Bis(<em>N</em>,<em>N</em>-dimethylcarbamodithioato-κ<em>S</em>,κ<em>S</em>′)nickel;Nickel dimethyldithiocarbamate;Bis(dimethyldithiocarbamato)nickel;Methyl Niclate;Sankel;Robac Ni D.D.;Nickel bis(dimethyldithiocarbamate);Nocrac NMC;Dimethyldithiocarbamatonickel;Sandite TT-NI;NDMC",
    "duplicated_cas_no": "",
    "SMILES": "N(C)(C)C=1[S-][Ni+2]2([S-]C(N(C)C)=[S]2)[S]1",
    "meta_data": {
        "InChI": "InChI=1S/2C3H7NS2.Ni/c2*1-4(2)3(5)6;/h2*1-2H3,(H,5,6);/q;;+2/p-2",
        "InChIKey": null,
        "Canonical SMILES": "[S]1=C([S-][Ni+2]12[S]=C([S-]2)N(C)C)N(C)C",
        "Molecular Formula": "C<sub>6</sub>H<sub>12</sub>N<sub>2</sub>NiS<sub>4</sub>",
        "Molecular Mass": "",
        "Melting Point": "&gt;290 °C",
        "Density": "1.77 g/cm³"
    }
}