{
    "cas_no": "403-40-7",
    "key_name": "1-(4-Fluorophenyl)ethylamine",
    "cn_name": "DL-4-氟-α-甲基苄胺;",
    "alternate_name": "Benzenemethanamine, 4-fluoro-α-methyl-;Benzylamine, <em>p</em>-fluoro-α-methyl-;4-Fluoro-α-methylbenzenemethanamine;<em>p</em>-Fluoro-α-methylbenzylamine;1-(4-Fluorophenyl)ethylamine;1-(<em>p</em>-Fluorophenyl)ethylamine;1-(4-Fluorophenyl)ethanamine;4-Fluoro-α-methylbenzylamine;1-(4-Fluorophenyl)-1-ethanamine;(±)-1-(4-Fluorophenyl)ethylamine;α-Methyl-4-fluorobenzylamine",
    "duplicated_cas_no": "133698-83-6",
    "SMILES": "C(C)(N)C1=CC=C(F)C=C1",
    "meta_data": {
        "InChI": "InChI=1S/C8H10FN/c1-6(10)7-2-4-8(9)5-3-7/h2-6H,10H2,1H3",
        "InChIKey": null,
        "Canonical SMILES": "FC1=CC=C(C=C1)C(N)C",
        "Molecular Formula": "C<sub>8</sub>H<sub>10</sub>FN",
        "Molecular Mass": "139.17",
        "Boiling Point": "75-76 °C @ Press: 12 Torr"
    }
}