{
    "cas_no": "95-14-7",
    "key_name": "1<em>H</em>-Benzotriazole",
    "cn_name": "苯骈三氮唑;苯并三氮唑;",
    "alternate_name": "1<em>H</em>-Benzotriazole;Azimidobenzene;Aziminobenzene;1,2-Aminoazophenylene;Benzene azimide;Benzisotriazole;1,2,3-Benzotriazole;2,3-Diazaindole;1,2,3-Triazaindene;1,2,3-Triaza-1<em>H</em>-indene;1<em>H</em>-1,2,3-Benzotriazole;Cobratec 99;BT 120;CVI;Entek;1,2,3-1<em>H</em>-Benzotriazole;Cobratec 35G;ISK 3;Irgastab I 489;D 32-108;Verzone Crystal;BTA;BT 120 (lubricant additive);Seetec BT;NSC 3058;Seetec BT-R;C.V.I. Liquid;M 318;Kemitec TT;Rusmin R;BLS 1326;HY 2;B 0094;LT 02;Verzone Crystal 120;T 706;Benzotriazole R;Miracle HP 16;TH-BTA;1<em>H</em>-Benzo[<em>d</em>]-1,2,3-triazole;Preventol BZT;Fujilite BT 20NM;BT 120SG;Irgamet BTZ;RC 8239;Kemitec BT-P;Wintrol B-FG;Ascotoran L;HC 3490",
    "duplicated_cas_no": "25377-81-5;27556-51-0;28880-01-5;70644-74-5;83202-91-9;94160-69-7;115773-98-3;116421-31-9;152206-50-3;197463-08-4;1334724-96-7",
    "SMILES": "C1=2C(N=NN1)=CC=CC2",
    "meta_data": {
        "InChI": "InChI=1S/C6H5N3/c1-2-4-6-5(3-1)7-9-8-6/h1-4H,(H,7,8,9)",
        "InChIKey": null,
        "Canonical SMILES": "N1=NC=2C=CC=CC2N1",
        "Molecular Formula": "C<sub>6</sub>H<sub>5</sub>N<sub>3</sub>",
        "Molecular Mass": "119.12",
        "Boiling Point": "159 °C @ Press: 2 Torr",
        "Melting Point": "98.5 °C",
        "Density": "1.36 g/cm³"
    }
}