{
    "cas_no": "194471-85-7",
    "key_name": "<em>rel</em>-(1<em>R</em>,2<em>S</em>)-2-[[(9<em>H</em>-Fluoren-9-ylmethoxy)carbonyl]amino]cyclohexanecarboxylic acid",
    "cn_name": null,
    "alternate_name": "Cyclohexanecarboxylic acid, 2-[[(9<em>H</em>-fluoren-9-ylmethoxy)carbonyl]amino]-, (1<em>R</em>,2<em>S</em>)-<em>rel</em>-;Cyclohexanecarboxylic acid, 2-[[(9<em>H</em>-fluoren-9-ylmethoxy)carbonyl]amino]-, <em>cis</em>-;<em>rel</em>-(1<em>R</em>,2<em>S</em>)-2-[[(9<em>H</em>-Fluoren-9-ylmethoxy)carbonyl]amino]cyclohexanecarboxylic acid;<em>cis</em>-2-[(9-Fluorenylmethoxycarbonyl)amino]-1-cyclohexanecarboxylic acid",
    "duplicated_cas_no": "",
    "SMILES": "C(OC(N[C@@H]1[C@H](C(O)=O)CCCC1)=O)C2C=3C(C=4C2=CC=CC4)=CC=CC3",
    "meta_data": {
        "InChI": "InChI=1/C22H23NO4/c24-21(25)18-11-5-6-12-20(18)23-22(26)27-13-19-16-9-3-1-7-14(16)15-8-2-4-10-17(15)19/h1-4,7-10,18-20H,5-6,11-13H2,(H,23,26)(H,24,25)/t18-,20+/s2",
        "InChIKey": null,
        "Canonical SMILES": "O=C(OCC1C=2C=CC=CC2C=3C=CC=CC31)NC4CCCCC4C(=O)O",
        "Molecular Formula": "C<sub>22</sub>H<sub>23</sub>NO<sub>4</sub>",
        "Molecular Mass": "365.42",
        "Melting Point": "103-105 °C"
    }
}