{
    "cas_no": "1861-32-1",
    "key_name": "Dacthal",
    "cn_name": "氯酞酸二甲酯;2,3,5,6-四氯对苯二甲酸二甲酯;",
    "alternate_name": "1,4-Benzenedicarboxylic acid, 2,3,5,6-tetrachloro-, 1,4-dimethyl ester;Terephthalic acid, tetrachloro-, dimethyl ester;1,4-Benzenedicarboxylic acid, 2,3,5,6-tetrachloro-, dimethyl ester;Chlorthal-methyl;Dacthal;DAC 893;DCPA;Dimethyl tetrachloroterephthalate;Dimethyl 2,3,5,6-tetrachloroterephthalate;Tetrachloroterephthalic acid dimethyl ester;Chlorthal-dimethyl;Dac 4;TCTP;Chlorthal dimethyl ester;Tetral;2,3,5,6-Tetrachloro-1,4-benzenedicarboxylic acid dimethyl ester;NSC 155745;Cepos;DCPA (herbicide);1,4-Dimethyl 2,3,5,6-tetrachlorobenzene-1,4-dicarboxylate",
    "duplicated_cas_no": "65862-98-8;87209-56-1",
    "SMILES": "C(OC)(=O)C1=C(Cl)C(Cl)=C(C(OC)=O)C(Cl)=C1Cl",
    "meta_data": {
        "InChI": "InChI=1S/C10H6Cl4O4/c1-17-9(15)3-5(11)7(13)4(10(16)18-2)8(14)6(3)12/h1-2H3",
        "InChIKey": null,
        "Canonical SMILES": "O=C(OC)C1=C(Cl)C(Cl)=C(C(=O)OC)C(Cl)=C1Cl",
        "Molecular Formula": "C<sub>10</sub>H<sub>6</sub>Cl<sub>4</sub>O<sub>4</sub>",
        "Molecular Mass": "331.96",
        "Boiling Point": "365 °C",
        "Melting Point": "155-156 °C"
    }
}