{
    "cas_no": "2040-05-3",
    "key_name": "1-(2,6-Dichlorophenyl)ethanone",
    "cn_name": "2,6-二氯苯乙酮;",
    "alternate_name": "Ethanone, 1-(2,6-dichlorophenyl)-;Acetophenone, 2′,6′-dichloro-;1-(2,6-Dichlorophenyl)ethanone;2′,6′-Dichloroacetophenone;1-(2,6-Dichlorophenyl)ethan-1-one",
    "duplicated_cas_no": "",
    "SMILES": "C(C)(=O)C1=C(Cl)C=CC=C1Cl",
    "meta_data": {
        "InChI": "InChI=1S/C8H6Cl2O/c1-5(11)8-6(9)3-2-4-7(8)10/h2-4H,1H3",
        "InChIKey": null,
        "Canonical SMILES": "O=C(C=1C(Cl)=CC=CC1Cl)C",
        "Molecular Formula": "C<sub>8</sub>H<sub>6</sub>Cl<sub>2</sub>O",
        "Molecular Mass": "189.04",
        "Boiling Point": "140-141 °C @ Press: 24 Torr",
        "Melting Point": "42-43 °C"
    }
}