{
    "cas_no": "307-59-5",
    "key_name": "Perfluorododecane",
    "cn_name": "全氟十二烷;全氟十二烷;",
    "alternate_name": "Dodecane, 1,1,1,2,2,3,3,4,4,5,5,6,6,7,7,8,8,9,9,10,10,11,11,12,12,12-hexacosafluoro-;Dodecane, hexacosafluoro-;1,1,1,2,2,3,3,4,4,5,5,6,6,7,7,8,8,9,9,10,10,11,11,12,12,12-Hexacosafluorododecane;Perfluorododecane;Hexacosafluorododecane;Perfluoro-<em>n</em>-dodecane",
    "duplicated_cas_no": "1201928-42-8",
    "SMILES": "C(C(C(C(C(C(C(F)(F)F)(F)F)(F)F)(F)F)(F)F)(F)F)(C(C(C(C(C(F)(F)F)(F)F)(F)F)(F)F)(F)F)(F)F",
    "meta_data": {
        "InChI": "InChI=1S/C12F26/c13-1(14,3(17,18)5(21,22)7(25,26)9(29,30)11(33,34)35)2(15,16)4(19,20)6(23,24)8(27,28)10(31,32)12(36,37)38",
        "InChIKey": null,
        "Canonical SMILES": "FC(F)(F)C(F)(F)C(F)(F)C(F)(F)C(F)(F)C(F)(F)C(F)(F)C(F)(F)C(F)(F)C(F)(F)C(F)(F)C(F)(F)F",
        "Molecular Formula": "C<sub>12</sub>F<sub>26</sub>",
        "Molecular Mass": "638.09",
        "Boiling Point": "178 °C",
        "Melting Point": "74.5 °C",
        "Density": "1.670 g/cm³ @ Temp: 113.5 °C"
    }
}