{
    "cas_no": "72-57-1",
    "key_name": "Trypan blue",
    "cn_name": "直接蓝14;曲利本蓝;锥虫蓝;直接蓝3B;3,3\"-{[3,3\"-二甲基-(1,1\"-二苯基)-4,4\"-二基]双(偶氮)}-双(5-氨基-4-;",
    "alternate_name": "2,7-Naphthalenedisulfonic acid, 3,3′-[(3,3′-dimethyl[1,1′-biphenyl]-4,4′-diyl)bis(2,1-diazenediyl)]bis[5-amino-4-hydroxy-, sodium salt (1:4);C.I. Direct Blue 14, tetrasodium salt;2,7-Naphthalenedisulfonic acid, 3,3′-[(3,3′-dimethyl[1,1′-biphenyl]-4,4′-diyl)bis(azo)]bis[5-amino-4-hydroxy-, tetrasodium salt;Diphenyl Blue;Blue 3B;C.I. 23850;Amanil Sky Blue R;Bencidal Blue 3B;Benzamine blue;Benzanil Blue 3BN;Benzo blue;Benzo Blue 3BS;Blue EMB;Brasilamina Blue 3B;Chloramine Blue 3B;Chrome Leather Blue 3B;C.I. Direct Blue 14;Congo blue;Cresotine Blue 3B;Diamineblue;Diamine Blue 3B;Diaphtamine Blue TH;Diazine Blue 3B;Diazol Blue 3B;Diphenyl Blue 3B;Direct Blue M 3B;Direct Blue 3B;Hispamin Blue 3BX;Naphthylamine blue;Niagara Blue;Niagara Blue 3B;Paramine Blue 3B;Pontamine Blue 3BX;Sodium ditolyldisazobis-8-amino-1-naphthol-3,6-disulfonate;Trypan Blue BPC;Trypane blue;Trypan blue;Direct Blue 14;Trypan (Congo) Blue;MeSH ID: D014343;Trypan blue viability assay;Trypan blue staining;Trypan blue exclusion assay;Trypan blue stain",
    "duplicated_cas_no": "179472-55-0",
    "SMILES": "OC=1C2=C(C=C(S(=O)(=O)O)C1N=NC3=C(C)C=C(C=C3)C4=CC(C)=C(N=NC=5C(S(=O)(=O)O)=CC6=C(C5O)C(N)=CC(S(=O)(=O)O)=C6)C=C4)C=C(S(=O)(=O)O)C=C2N.[Na]",
    "meta_data": {
        "InChI": "InChI=1S/C34H28N6O14S4.4Na/c1-15-7-17(3-5-25(15)37-39-31-27(57(49,50)51)11-19-9-21(55(43,44)45)13-23(35)29(19)33(31)41)18-4-6-26(16(2)8-18)38-40-32-28(58(52,53)54)12-20-10-22(56(46,47)48)14-24(36)30(20)34(32)42;;;;/h3-14,41-42H,35-36H2,1-2H3,(H,43,44,45)(H,46,47,48)(H,49,50,51)(H,52,53,54);;;;",
        "InChIKey": null,
        "Canonical SMILES": "[Na].O=S(=O)(O)C1=CC(N)=C2C(O)=C(N=NC=3C=CC(=CC3C)C4=CC=C(N=NC5=C(O)C6=C(N)C=C(C=C6C=C5S(=O)(=O)O)S(=O)(=O)O)C(=C4)C)C(=CC2=C1)S(=O)(=O)O",
        "Molecular Formula": "C<sub>34</sub>H<sub>28</sub>N<sub>6</sub>O<sub>14</sub>S<sub>4</sub>.4Na",
        "Molecular Mass": "",
        "Melting Point": "&gt;300 °C"
    }
}