{
    "cas_no": "7325-46-4",
    "key_name": "1,4-Benzenediacetic acid",
    "cn_name": "对苯二乙酸;",
    "alternate_name": "1,4-Benzenediacetic acid;<em>p</em>-Benzenediacetic acid;<em>p</em>-Phenylenediacetic acid;1,4-Phenylenediacetic acid;2-[4-(Carboxymethyl)phenyl]acetic acid",
    "duplicated_cas_no": "",
    "SMILES": "C(C(O)=O)C1=CC=C(CC(O)=O)C=C1",
    "meta_data": {
        "InChI": "InChI=1S/C10H10O4/c11-9(12)5-7-1-2-8(4-3-7)6-10(13)14/h1-4H,5-6H2,(H,11,12)(H,13,14)",
        "InChIKey": null,
        "Canonical SMILES": "O=C(O)CC1=CC=C(C=C1)CC(=O)O",
        "Molecular Formula": "C<sub>10</sub>H<sub>10</sub>O<sub>4</sub>",
        "Molecular Mass": "194.18",
        "Melting Point": "253-254 °C"
    }
}