{
    "cas_no": "51572-89-5",
    "key_name": "Hydroxylamine, <em>O</em>-[(4-fluorophenyl)methyl]-, hydrochloride (1:1)",
    "cn_name": null,
    "alternate_name": "Hydroxylamine, <em>O</em>-[(4-fluorophenyl)methyl]-, hydrochloride (1:1);Hydroxylamine, <em>O</em>-[(4-fluorophenyl)methyl]-, hydrochloride;<em>O</em>-(4-Fluorobenzyl)hydroxylamine hydrochloride;1-[(Aminooxy)methyl]-4-fluorobenzene hydrochloride;4-Fluorobenzyloxyamine hydrochloride;<em>p</em>-Fluorobenzyloxyamine hydrochloride",
    "duplicated_cas_no": "2808482-89-3",
    "SMILES": "C(ON)C1=CC=C(F)C=C1.Cl",
    "meta_data": {
        "InChI": "InChI=1S/C7H8FNO.ClH/c8-7-3-1-6(2-4-7)5-10-9;/h1-4H,5,9H2;1H",
        "InChIKey": null,
        "Canonical SMILES": "Cl.FC1=CC=C(C=C1)CON",
        "Molecular Formula": "C<sub>7</sub>H<sub>8</sub>FNO.ClH",
        "Molecular Mass": "",
        "Melting Point": "219-220 °C"
    }
}