{
    "cas_no": "2557-77-9",
    "key_name": "3-Fluorothiophenol",
    "cn_name": "3-氟苯硫酚;间氟苯硫酚;",
    "alternate_name": "Benzenethiol, 3-fluoro-;Benzenethiol, <em>m</em>-fluoro-;3-Fluorobenzenethiol;<em>m</em>-Fluorobenzenethiol;3-Fluorothiophenol;(3-Fluorophenyl)thiol;3-Fluorobenzene-1-thiol",
    "duplicated_cas_no": "2416370-02-8",
    "SMILES": "FC1=CC(S)=CC=C1",
    "meta_data": {
        "InChI": "InChI=1S/C6H5FS/c7-5-2-1-3-6(8)4-5/h1-4,8H",
        "InChIKey": null,
        "Canonical SMILES": "FC1=CC=CC(S)=C1",
        "Molecular Formula": "C<sub>6</sub>H<sub>5</sub>FS",
        "Molecular Mass": "128.17",
        "Boiling Point": "156 °C"
    }
}