{
    "cas_no": "87-18-3",
    "key_name": "<em>p</em>-<em>tert</em>-Butylphenyl salicylate",
    "cn_name": "2-羟基苯甲酸-4-(1,1-二甲基乙基)苯基酯;水杨酸-4-叔丁基苯酯;TBS;紫外线吸收剂TBS;",
    "alternate_name": "Benzoic acid, 2-hydroxy-, 4-(1,1-dimethylethyl)phenyl ester;Salicylic acid, <em>p</em>-<em>tert</em>-butylphenyl ester;Phenol, <em>p</em>-<em>tert</em>-butyl-, salicylate;<em>p</em>-<em>tert</em>-Butylphenyl salicylate;4-<em>tert</em>-Butylphenyl salicylate;UV Absorber NL 3;Sumisorb 90;Seesorb 202;Viosorb 90;NSC 33404;TBS (UV stabilizer);TBS;UV-TBS;(4-<em>tert</em>-Butylphenyl) 2-hydroxybenzoate",
    "duplicated_cas_no": "68027-19-0;138464-71-8;146480-26-4",
    "SMILES": "C(OC1=CC=C(C(C)(C)C)C=C1)(=O)C2=C(O)C=CC=C2",
    "meta_data": {
        "InChI": "InChI=1S/C17H18O3/c1-17(2,3)12-8-10-13(11-9-12)20-16(19)14-6-4-5-7-15(14)18/h4-11,18H,1-3H3",
        "InChIKey": null,
        "Canonical SMILES": "O=C(OC1=CC=C(C=C1)C(C)(C)C)C=2C=CC=CC2O",
        "Molecular Formula": "C<sub>17</sub>H<sub>18</sub>O<sub>3</sub>",
        "Molecular Mass": "270.32",
        "Melting Point": "62 °C"
    }
}