{
    "cas_no": "622369-40-8",
    "key_name": "4-Chloro-7-fluoro-6-methoxy-3-quinolinecarbonitrile",
    "cn_name": null,
    "alternate_name": "3-Quinolinecarbonitrile, 4-chloro-7-fluoro-6-methoxy-;4-Chloro-7-fluoro-6-methoxy-3-quinolinecarbonitrile",
    "duplicated_cas_no": "",
    "SMILES": "ClC=1C2=C(C=C(F)C(OC)=C2)N=CC1C#N",
    "meta_data": {
        "InChI": "InChI=1S/C11H6ClFN2O/c1-16-10-2-7-9(3-8(10)13)15-5-6(4-14)11(7)12/h2-3,5H,1H3",
        "InChIKey": null,
        "Canonical SMILES": "N#CC1=CN=C2C=C(F)C(OC)=CC2=C1Cl",
        "Molecular Formula": "C<sub>11</sub>H<sub>6</sub>ClFN<sub>2</sub>O",
        "Molecular Mass": "236.63",
        "Melting Point": "160-162 °C"
    }
}