{
    "cas_no": "13189-00-9",
    "key_name": "Zinc methacrylate",
    "cn_name": "甲基丙烯酸锌;",
    "alternate_name": "2-Propenoic acid, 2-methyl-, zinc salt (2:1);Methacrylic acid, zinc salt;2-Propenoic acid, 2-methyl-, zinc salt;Zinc methacrylate;Zinc dimethacrylate;Actor ZMA;Saret 634;R 20S;SR 708;Hi-Cross ZT;R 205;R 205 (acrylate);SR 634;Sartomer 634;San Ester SK 30;SK 30;Sartomer SR 634;Saret SR 634;CXZN 050;Sartomer SR 708;PRO 5642;PRO 11234;Dimalink 634;Dymalink 634;Dymalink 708;ZDMA;Dymalink 709;M-CP;Dyamlink 708",
    "duplicated_cas_no": "162630-63-9;2095328-26-8",
    "SMILES": "C(C(O)=O)(C)=C.[Zn]",
    "meta_data": {
        "InChI": "InChI=1S/C4H6O2.Zn/c1-3(2)4(5)6;/h1H2,2H3,(H,5,6);",
        "InChIKey": null,
        "Canonical SMILES": "[Zn].O=C(O)C(=C)C",
        "Molecular Formula": "C<sub>4</sub>H<sub>6</sub>O<sub>2</sub>.<sup>1</sup>/<sub>2</sub>Zn",
        "Molecular Mass": "",
        "Melting Point": "250 °C (decomp)",
        "Density": "1.480 g/cm³"
    }
}