{
    "cas_no": "50681-26-0",
    "key_name": "6-Chloro-2,3-dihydro-3-oxo-4-pyridazinecarboxylic acid",
    "cn_name": null,
    "alternate_name": "4-Pyridazinecarboxylic acid, 6-chloro-2,3-dihydro-3-oxo-;6-Chloro-2,3-dihydro-3-oxo-4-pyridazinecarboxylic acid;NSC 338205;6-Chloro-3-oxo-2,3-dihydropyridazine-4-carboxylic acid;6-Chloro-3-hydroxypyridazine-4-carboxylic acid",
    "duplicated_cas_no": "",
    "SMILES": "C(O)(=O)C=1C(=O)NN=C(Cl)C1",
    "meta_data": {
        "InChI": "InChI=1S/C5H3ClN2O3/c6-3-1-2(5(10)11)4(9)8-7-3/h1H,(H,8,9)(H,10,11)",
        "InChIKey": null,
        "Canonical SMILES": "O=C(O)C1=CC(Cl)=NNC1=O",
        "Molecular Formula": "C<sub>5</sub>H<sub>3</sub>ClN<sub>2</sub>O<sub>3</sub>",
        "Molecular Mass": "174.54",
        "Melting Point": "210 °C (decomp)"
    }
}