{
    "cas_no": "68-11-1",
    "key_name": "Thioglycolic acid",
    "cn_name": "巯基乙酸;乙硫醇酸;硫代乙醇酸;",
    "alternate_name": "Acetic acid, 2-mercapto-;Acetic acid, mercapto-;2-Mercaptoacetic acid;Glycolic acid, 2-thio-;Thiovanic acid;2-Thioglycolic acid;Thioglycolic acid;α-Mercaptoacetic acid;Mercaptoacetic acid;2-Mercaptoethanoic acid;Sulfhydrylacetic acid;NSC 1894;TGA;2-Sulfanylacetic acid",
    "duplicated_cas_no": "7283-42-3;57755-20-1",
    "SMILES": "C(CS)(O)=O",
    "meta_data": {
        "InChI": "InChI=1S/C2H4O2S/c3-2(4)1-5/h5H,1H2,(H,3,4)",
        "InChIKey": null,
        "Canonical SMILES": "O=C(O)CS",
        "Molecular Formula": "C<sub>2</sub>H<sub>4</sub>O<sub>2</sub>S",
        "Molecular Mass": "92.12",
        "Boiling Point": "120 °C @ Press: 20 Torr",
        "Melting Point": "-16.5 °C",
        "Density": "1.3253 g/cm³ @ Temp: 20 °C"
    }
}