{
    "cas_no": "626-82-4",
    "key_name": "Butyl hexanoate",
    "cn_name": "己酸丁酯;",
    "alternate_name": "Hexanoic acid, butyl ester;Butyl caproate;Butyl hexanoate;<em>n</em>-Butyl hexanoate;NSC 4022;WLF 123179Q",
    "duplicated_cas_no": "",
    "SMILES": "C(C(OCCCC)=O)CCCC",
    "meta_data": {
        "InChI": "InChI=1S/C10H20O2/c1-3-5-7-8-10(11)12-9-6-4-2/h3-9H2,1-2H3",
        "InChIKey": null,
        "Canonical SMILES": "O=C(OCCCC)CCCCC",
        "Molecular Formula": "C<sub>10</sub>H<sub>20</sub>O<sub>2</sub>",
        "Molecular Mass": "172.26",
        "Boiling Point": "208 °C",
        "Melting Point": "-64.3 °C",
        "Density": "0.8821 g/cm³ @ Temp: 0 °C"
    }
}