{
    "cas_no": "446-71-9",
    "key_name": "Homoeriodictyol",
    "cn_name": null,
    "alternate_name": "4<em>H</em>-1-Benzopyran-4-one, 2,3-dihydro-5,7-dihydroxy-2-(4-hydroxy-3-methoxyphenyl)-, (2<em>S</em>)-;Flavanone, 4′,5,7-trihydroxy-3′-methoxy-;4<em>H</em>-1-Benzopyran-4-one, 2,3-dihydro-5,7-dihydroxy-2-(4-hydroxy-3-methoxyphenyl)-, (<em>S</em>)-;(2<em>S</em>)-2,3-Dihydro-5,7-dihydroxy-2-(4-hydroxy-3-methoxyphenyl)-4<em>H</em>-1-benzopyran-4-one;Eriodictyonone;Homoeriodictyol;4′,5,7-Trihydroxy-3′-methoxyflavanone;Eriodictyol 3′-methyl ether;5,7,4′-Trihydroxy-3′-methoxyflavanone;(<em>S</em>)-Homoeriodictyol;Hersperetin;(-)-Homoeriodictyol",
    "duplicated_cas_no": "",
    "SMILES": "O=C1C=2C(O[C@@H](C1)C3=CC(OC)=C(O)C=C3)=CC(O)=CC2O",
    "meta_data": {
        "InChI": "InChI=1S/C16H14O6/c1-21-14-4-8(2-3-10(14)18)13-7-12(20)16-11(19)5-9(17)6-15(16)22-13/h2-6,13,17-19H,7H2,1H3/t13-/m0/s1",
        "InChIKey": null,
        "Canonical SMILES": "O=C1C=2C(O)=CC(O)=CC2OC(C3=CC=C(O)C(OC)=C3)C1",
        "Molecular Formula": "C<sub>16</sub>H<sub>14</sub>O<sub>6</sub>",
        "Molecular Mass": "302.28",
        "Melting Point": "223 °C"
    }
}