{
    "cas_no": "122-91-8",
    "key_name": "4-Methoxybenzyl formate",
    "cn_name": "甲酸茴香酯;",
    "alternate_name": "Benzenemethanol, 4-methoxy-, 1-formate;Benzyl alcohol, <em>p</em>-methoxy-, formate;Anisyl alcohol, formate;Benzenemethanol, 4-methoxy-, formate;Anisyl formate;<em>p</em>-Methoxybenzyl alcohol, formate;4-Methoxybenzyl formate;<em>p</em>-Methoxybenzyl formate;NSC 5949;(4-Anisyl)methyl formate",
    "duplicated_cas_no": "",
    "SMILES": "C(OC=O)C1=CC=C(OC)C=C1",
    "meta_data": {
        "InChI": "InChI=1S/C9H10O3/c1-11-9-4-2-8(3-5-9)6-12-7-10/h2-5,7H,6H2,1H3",
        "InChIKey": null,
        "Canonical SMILES": "O=COCC1=CC=C(OC)C=C1",
        "Molecular Formula": "C<sub>9</sub>H<sub>10</sub>O<sub>3</sub>",
        "Molecular Mass": "166.17",
        "Boiling Point": "100 °C"
    }
}