{
    "cas_no": "30084-90-3",
    "key_name": "Fluorene-2-carboxaldehyde",
    "cn_name": null,
    "alternate_name": "9<em>H</em>-Fluorene-2-carboxaldehyde;Fluorene-2-carboxaldehyde;2-Formylfluorene;1<em>H</em>-Fluorene-2-carboxaldehyde;Fluorene-2-carbaldehyde;9<em>H</em>-Fluoren-2-yl-carboxaldehyde;9<em>H</em>-Fluorene-2-carbaldehyde",
    "duplicated_cas_no": "93621-79-5",
    "SMILES": "C(=O)C=1C=C2C(C=3C(C2)=CC=CC3)=CC1",
    "meta_data": {
        "InChI": "InChI=1S/C14H10O/c15-9-10-5-6-14-12(7-10)8-11-3-1-2-4-13(11)14/h1-7,9H,8H2",
        "InChIKey": null,
        "Canonical SMILES": "O=CC1=CC=C2C=3C=CC=CC3CC2=C1",
        "Molecular Formula": "C<sub>14</sub>H<sub>10</sub>O",
        "Molecular Mass": "194.23",
        "Boiling Point": "363.8 °C",
        "Melting Point": "85.5-86 °C"
    }
}