{
    "cas_no": "259807-95-9",
    "key_name": "2-Methyl-6-(tributylstannyl)pyridine",
    "cn_name": null,
    "alternate_name": "Pyridine, 2-methyl-6-(tributylstannyl)-;2-Methyl-6-(tributylstannyl)pyridine;6-Methylpyridin-2-yltributylstannane;6-Methyl-2-(tributylstannyl)pyridine;2-Methyl-6-(tributylstannanyl)pyridine;2-(Tributylstannyl)-6-methylpyridine;(6-Methylpyridin-2-yl)tributyltin",
    "duplicated_cas_no": "",
    "SMILES": "[Sn](CCCC)(CCCC)(CCCC)C=1N=C(C)C=CC1",
    "meta_data": {
        "InChI": "InChI=1S/C6H6N.3C4H9.Sn/c1-6-4-2-3-5-7-6;3*1-3-4-2;/h2-4H,1H3;3*1,3-4H2,2H3;",
        "InChIKey": null,
        "Canonical SMILES": "N=1C(=CC=CC1[Sn](CCCC)(CCCC)CCCC)C",
        "Molecular Formula": "C<sub>18</sub>H<sub>33</sub>NSn",
        "Molecular Mass": "382.17",
        "Boiling Point": "145 °C @ Press: 0.4 mmHg"
    }
}