{
    "cas_no": "539-74-2",
    "key_name": "Ethyl 3-bromopropionate",
    "cn_name": "3-溴丙酸乙酯;beta-溴丙酸乙酯;",
    "alternate_name": "Propanoic acid, 3-bromo-, ethyl ester;Propionic acid, 3-bromo-, ethyl ester;Ethyl 3-bromopropanoate;Ethyl β-bromopropionate;Ethyl 3-bromopropionate;3-Bromopropionic acid ethyl ester;2-Ethoxycarbonylethyl bromide;β-Bromopropionic acid ethyl ester;3-Bromopropanoic acid ethyl ester;NSC 21812",
    "duplicated_cas_no": "",
    "SMILES": "C(CCBr)(OCC)=O",
    "meta_data": {
        "InChI": "InChI=1S/C5H9BrO2/c1-2-8-5(7)3-4-6/h2-4H2,1H3",
        "InChIKey": null,
        "Canonical SMILES": "O=C(OCC)CCBr",
        "Molecular Formula": "C<sub>5</sub>H<sub>9</sub>BrO<sub>2</sub>",
        "Molecular Mass": "181.03",
        "Boiling Point": "179 °C",
        "Melting Point": "184-186 °C",
        "Density": "1.4123 g/cm³ @ Temp: 18 °C"
    }
}