{
    "cas_no": "135-58-0",
    "key_name": "Mesulfen",
    "cn_name": "甲硫酚;2,7-二甲基二硫蒽;",
    "alternate_name": "Thianthrene, 2,7-dimethyl-;2,7-Dimethylthianthrene;Mesulfen;Mesulphen;Mitigal;Neosulfine;Odylen;Sudermo;Cutilen;Cutosolo;Scabol;Thianthol;Mitabol;Thianthrol;Peligal",
    "duplicated_cas_no": "",
    "SMILES": "CC=1C=C2C(SC=3C(S2)=CC=C(C)C3)=CC1",
    "meta_data": {
        "InChI": "InChI=1S/C14H12S2/c1-9-3-5-11-13(7-9)15-12-6-4-10(2)8-14(12)16-11/h3-8H,1-2H3",
        "InChIKey": null,
        "Canonical SMILES": "S1C2=CC=C(C=C2SC3=CC=C(C=C13)C)C",
        "Molecular Formula": "C<sub>14</sub>H<sub>12</sub>S<sub>2</sub>",
        "Molecular Mass": "244.38",
        "Boiling Point": "184 °C @ Press: 3 Torr",
        "Melting Point": "123 °C"
    }
}