{
    "cas_no": "17965-82-1",
    "key_name": "1,7-Naphthyridin-8-amine",
    "cn_name": null,
    "alternate_name": "1,7-Naphthyridin-8-amine;1,7-Naphthyridine, 8-amino-;8-Amino-1,7-naphthyridine",
    "duplicated_cas_no": "",
    "SMILES": "NC=1C2=C(C=CN1)C=CC=N2",
    "meta_data": {
        "InChI": "InChI=1S/C8H7N3/c9-8-7-6(3-5-11-8)2-1-4-10-7/h1-5H,(H2,9,11)",
        "InChIKey": null,
        "Canonical SMILES": "N=1C=CC=2C=CC=NC2C1N",
        "Molecular Formula": "C<sub>8</sub>H<sub>7</sub>N<sub>3</sub>",
        "Molecular Mass": "145.16",
        "Melting Point": "168-169 °C"
    }
}