{
    "cas_no": "102-87-4",
    "key_name": "Tridodecylamine",
    "cn_name": "三月桂胺;N,N-双十二烷基-1-十二胺;三正十二胺;",
    "alternate_name": "1-Dodecanamine, <em>N</em>,<em>N</em>-didodecyl-;Tridodecylamine;<em>N</em>,<em>N</em>-Didodecyl-1-dodecanamine;Alamine 304;Trilaurylamine;Adogen 360;Tri-<em>n</em>-dodecylamine;Alamine 304-1;Tris(dodecyl)amine;NSC 35134;Armeen 312;TDA;Hydrogen ionophore I",
    "duplicated_cas_no": "",
    "SMILES": "N(CCCCCCCCCCCC)(CCCCCCCCCCCC)CCCCCCCCCCCC",
    "meta_data": {
        "InChI": "InChI=1S/C36H75N/c1-4-7-10-13-16-19-22-25-28-31-34-37(35-32-29-26-23-20-17-14-11-8-5-2)36-33-30-27-24-21-18-15-12-9-6-3/h4-36H2,1-3H3",
        "InChIKey": null,
        "Canonical SMILES": "N(CCCCCCCCCCCC)(CCCCCCCCCCCC)CCCCCCCCCCCC",
        "Molecular Formula": "C<sub>36</sub>H<sub>75</sub>N",
        "Molecular Mass": "521.99",
        "Boiling Point": "225 °C @ Press: 0.25 Torr",
        "Melting Point": "16 °C",
        "Density": "0.82 g/cm³"
    }
}