{
    "cas_no": "19686-05-6",
    "key_name": "2,8-Dimethyl-2,3,4,5-tetrahydro-1<em>H</em>-pyrido[4,3-<em>b</em>]indole",
    "cn_name": "2,8-二甲基-2,3,4,5-四氢-1H-吡啶并[4,3-b]吲哚;",
    "alternate_name": "1<em>H</em>-Pyrido[4,3-<em>b</em>]indole, 2,3,4,5-tetrahydro-2,8-dimethyl-;2,3,4,5-Tetrahydro-2,8-dimethyl-1<em>H</em>-pyrido[4,3-<em>b</em>]indole;2,8-Dimethyl-2,3,4,5-tetrahydro-1<em>H</em>-pyrido[4,3-<em>b</em>]indole;2,8-Dimethyl-1,3,4,5-tetrahydropyrido[4,3-<em>b</em>]indole;2,8-Dimethyl-1<em>H</em>,2<em>H</em>,3<em>H</em>,4<em>H</em>,5<em>H</em>-pyrido[4,3-<em>b</em>]indole",
    "duplicated_cas_no": "",
    "SMILES": "CC=1C=C2C3=C(NC2=CC1)CCN(C)C3",
    "meta_data": {
        "InChI": "InChI=1S/C13H16N2/c1-9-3-4-12-10(7-9)11-8-15(2)6-5-13(11)14-12/h3-4,7,14H,5-6,8H2,1-2H3",
        "InChIKey": null,
        "Canonical SMILES": "C1=CC=2NC3=C(C2C=C1C)CN(C)CC3",
        "Molecular Formula": "C<sub>13</sub>H<sub>16</sub>N<sub>2</sub>",
        "Molecular Mass": "200.28",
        "Melting Point": "98-100 °C"
    }
}