{
    "cas_no": "2747-05-9",
    "key_name": "4-Methylumbelliferyl acetate",
    "cn_name": "7-乙酰氧基-4-甲基香豆素;",
    "alternate_name": "2<em>H</em>-1-Benzopyran-2-one, 7-(acetyloxy)-4-methyl-;Coumarin, 7-hydroxy-4-methyl-, acetate;Umbelliferone, 4-methyl-, acetate;7-(Acetyloxy)-4-methyl-2<em>H</em>-1-benzopyran-2-one;4-Methylumbelliferone acetate;7-Acetoxy-4-methylcoumarin;β-Methylumbelliferone acetate;7-Hydroxy-4-methylcoumarin acetate;4-Methyl-7-acetoxycoumarin;4-Methylumbelliferone 7-acetate;7-(Acetyloxy)-4-methylcoumarin;4-Methylumbelliferyl acetate;NSC 1059;NSC 31658;NSC 44763;NSC 688806;(4-Methyl-2-oxochromen-7-yl) acetate",
    "duplicated_cas_no": "",
    "SMILES": "CC=1C=2C(=CC(OC(C)=O)=CC2)OC(=O)C1",
    "meta_data": {
        "InChI": "InChI=1S/C12H10O4/c1-7-5-12(14)16-11-6-9(15-8(2)13)3-4-10(7)11/h3-6H,1-2H3",
        "InChIKey": null,
        "Canonical SMILES": "O=C1OC=2C=C(OC(=O)C)C=CC2C(=C1)C",
        "Molecular Formula": "C<sub>12</sub>H<sub>10</sub>O<sub>4</sub>",
        "Molecular Mass": "218.21",
        "Melting Point": "150 °C"
    }
}