{
    "cas_no": "1708-82-3",
    "key_name": "3-Hexenyl acetate",
    "cn_name": "乙酸-3-己烯-1-醇酯;乙酸-3-己烯酯;",
    "alternate_name": "3-Hexen-1-ol, 1-acetate;3-Hexen-1-ol, acetate;3-Hexen-1-yl acetate;3-Hexenyl acetate;1-Acetoxy-3-hexene;3-Hexenyl ethanoate",
    "duplicated_cas_no": "",
    "SMILES": "C(CC=CCC)OC(C)=O",
    "meta_data": {
        "InChI": "InChI=1S/C8H14O2/c1-3-4-5-6-7-10-8(2)9/h4-5H,3,6-7H2,1-2H3",
        "InChIKey": null,
        "Canonical SMILES": "O=C(OCCC=CCC)C",
        "Molecular Formula": "C<sub>8</sub>H<sub>14</sub>O<sub>2</sub>",
        "Molecular Mass": "142.20",
        "Boiling Point": "61 °C @ Press: 12 Torr",
        "Density": "0.9077 g/cm³ @ Temp: 11 °C"
    }
}