{
    "cas_no": "7675-57-2",
    "key_name": "<span class=\"text-smallcaps\">L</span>-Valine, <em>N</em>-[(2-nitrophenyl)thio]-, compd. with <em>N</em>-cyclohexylcyclohexanamine (1:1)",
    "cn_name": "N-2-硝基苯亚磺酰基-L-缬氨酸双环己铵盐;",
    "alternate_name": "<span class=\"text-smallcaps\">L</span>-Valine, <em>N</em>-[(2-nitrophenyl)thio]-, compd. with <em>N</em>-cyclohexylcyclohexanamine (1:1);Valine, <em>N</em>-[(<em>o</em>-nitrophenyl)thio]-, compd. with dicyclohexylamine (1:1), <span class=\"text-smallcaps\">L</span>-;Dicyclohexylamine, compd. with <em>N</em>-[(<em>o</em>-nitrophenyl)thio]-<span class=\"text-smallcaps\">L</span>-valine (1:1)",
    "duplicated_cas_no": "",
    "SMILES": "S(N[C@@H](C(C)C)C(O)=O)C1=C(N(=O)=O)C=CC=C1.N(C1CCCCC1)C2CCCCC2",
    "meta_data": {
        "InChI": "InChI=1S/C12H23N.C11H14N2O4S/c1-3-7-11(8-4-1)13-12-9-5-2-6-10-12;1-7(2)10(11(14)15)12-18-9-6-4-3-5-8(9)13(16)17/h11-13H,1-10H2;3-7,10,12H,1-2H3,(H,14,15)/t;10-/m.0/s1",
        "InChIKey": null,
        "Canonical SMILES": "O=C(O)C(NSC=1C=CC=CC1N(=O)=O)C(C)C.N(C1CCCCC1)C2CCCCC2",
        "Molecular Formula": "C<sub>12</sub>H<sub>23</sub>N.C<sub>11</sub>H<sub>14</sub>N<sub>2</sub>O<sub>4</sub>S",
        "Molecular Mass": "",
        "Melting Point": "191-193 °C"
    }
}