{
    "cas_no": "6451-73-6",
    "key_name": "Scoulerine",
    "cn_name": null,
    "alternate_name": "6<em>H</em>-Dibenzo[<em>a</em>,<em>g</em>]quinolizine-2,9-diol, 5,8,13,13a-tetrahydro-3,10-dimethoxy-, (13a<em>S</em>)-;13aα-Berbine-2,9-diol, 3,10-dimethoxy-;6<em>H</em>-Dibenzo[<em>a</em>,<em>g</em>]quinolizine-2,9-diol, 5,8,13,13a-tetrahydro-3,10-dimethoxy-, (<em>S</em>)-;Scoulerine;(13a<em>S</em>)-5,8,13,13a-Tetrahydro-3,10-dimethoxy-6<em>H</em>-dibenzo[<em>a</em>,<em>g</em>]quinolizine-2,9-diol;(-)-Scoulerine;Alkaloid HF 1, from <em>Hunnemannia</em><em>fumariaefolia</em>;<em>l</em>-Scoulerine;(<em>S</em>)-(-)-Scoulerine;Scoulerin;(<em>S</em>)-Scoulerine;(13AS)-3,10-dimethoxy-6,8,13,13a-tetrahydro-5<em>H</em>-isoquinolino[2,1-<em>b</em>]isoquinoline-2,9-diol",
    "duplicated_cas_no": "",
    "SMILES": "OC=1C=C2[C@]3(N(CC=4C(C3)=CC=C(OC)C4O)CCC2=CC1OC)[H]",
    "meta_data": {
        "InChI": "InChI=1S/C19H21NO4/c1-23-17-4-3-11-7-15-13-9-16(21)18(24-2)8-12(13)5-6-20(15)10-14(11)19(17)22/h3-4,8-9,15,21-22H,5-7,10H2,1-2H3/t15-/m0/s1",
        "InChIKey": null,
        "Canonical SMILES": "OC=1C=C2C(=CC1OC)CCN3CC4=C(O)C(OC)=CC=C4CC23",
        "Molecular Formula": "C<sub>19</sub>H<sub>21</sub>NO<sub>4</sub>",
        "Molecular Mass": "327.37",
        "Melting Point": "195-196 °C"
    }
}