{
    "cas_no": "826-55-1",
    "key_name": "2-Methyl-2-phenylpropanoic acid",
    "cn_name": "alpha,alpha-二甲基苯乙酸;2-甲基-2-苯基丙酸;",
    "alternate_name": "Benzeneacetic acid, α,α-dimethyl-;Hydratropic acid, α-methyl-;α,α-Dimethylbenzeneacetic acid;TH 4161;α,α-Dimethylphenylacetic acid;2-Phenylisobutyric acid;2-Methyl-2-phenylpropionic acid;2-Methyl-2-phenylpropanoic acid;2-Phenyl-2-methylpropionic acid;NSC 28952;NSC 29095;2,2-Dimethyl-2-phenylacetic acid;2-Phenylisobutanoic acid",
    "duplicated_cas_no": "",
    "SMILES": "C(C(O)=O)(C)(C)C1=CC=CC=C1",
    "meta_data": {
        "InChI": "InChI=1S/C10H12O2/c1-10(2,9(11)12)8-6-4-3-5-7-8/h3-7H,1-2H3,(H,11,12)",
        "InChIKey": null,
        "Canonical SMILES": "O=C(O)C(C=1C=CC=CC1)(C)C",
        "Molecular Formula": "C<sub>10</sub>H<sub>12</sub>O<sub>2</sub>",
        "Molecular Mass": "164.20",
        "Boiling Point": "167-168 °C @ Press: 15 Torr",
        "Melting Point": "78 °C"
    }
}