{
    "cas_no": "2437-79-8",
    "key_name": "PCB 47",
    "cn_name": "2,2,4,4-四氯联苯;2,2,4,4-四氯联苯;",
    "alternate_name": "1,1′-Biphenyl, 2,2′,4,4′-tetrachloro-;Biphenyl, 2,2′,4,4′-tetrachloro-;2,2′,4,4′-Tetrachloro-1,1′-biphenyl;2,2′,4,4′-Tetrachlorobiphenyl;2,2′,4,4′-Tetrachlorodiphenyl;PCB 47;CB 47",
    "duplicated_cas_no": "",
    "SMILES": "ClC1=C(C=CC(Cl)=C1)C2=C(Cl)C=C(Cl)C=C2",
    "meta_data": {
        "InChI": "InChI=1S/C12H6Cl4/c13-7-1-3-9(11(15)5-7)10-4-2-8(14)6-12(10)16/h1-6H",
        "InChIKey": null,
        "Canonical SMILES": "ClC=1C=CC(=C(Cl)C1)C2=CC=C(Cl)C=C2Cl",
        "Molecular Formula": "C<sub>12</sub>H<sub>6</sub>Cl<sub>4</sub>",
        "Molecular Mass": "291.99",
        "Boiling Point": "146 °C @ Press: 2 Torr"
    }
}