{
    "cas_no": "10597-52-1",
    "key_name": "4-Nitrobenzimidazole",
    "cn_name": null,
    "alternate_name": "1<em>H</em>-Benzimidazole, 7-nitro-;Benzimidazole, 4-nitro-;1<em>H</em>-Benzimidazole, 4-nitro-;Benzimidazole, 4(<em>or</em> 7)-nitro-;7-Nitro-1<em>H</em>-benzimidazole;4-Nitrobenzimidazole;4-Nitro-1<em>H</em>-benzimidazole;7-Nitrobenzimidazole",
    "duplicated_cas_no": "69926-30-3;2544407-90-9",
    "SMILES": "N(=O)(=O)C1=C2C(N=CN2)=CC=C1",
    "meta_data": {
        "InChI": "InChI=1S/C7H5N3O2/c11-10(12)6-3-1-2-5-7(6)9-4-8-5/h1-4H,(H,8,9)",
        "InChIKey": null,
        "Canonical SMILES": "O=N(=O)C1=CC=CC=2N=CNC21",
        "Molecular Formula": "C<sub>7</sub>H<sub>5</sub>N<sub>3</sub>O<sub>2</sub>",
        "Molecular Mass": "163.13",
        "Melting Point": "238-239 °C"
    }
}