{
    "cas_no": "141-17-3",
    "key_name": "1,6-Bis[2-(2-butoxyethoxy)ethyl] hexanedioate",
    "cn_name": null,
    "alternate_name": "Hexanedioic acid, 1,6-bis[2-(2-butoxyethoxy)ethyl] ester;Adipic acid, bis[2-(2-butoxyethoxy)ethyl] ester;Hexanedioic acid, bis[2-(2-butoxyethoxy)ethyl] ester;Ethanol, 2-(2-butoxyethoxy)-, adipate (2:1);1,6-Bis[2-(2-butoxyethoxy)ethyl] hexanedioate;Bis(diethylene glycol monobutyl ether) adipate;Wareflex;Bis[2-(2-butoxyethoxy)ethyl] adipate;Plasthall DBEEA;Di(butoxyethoxyethyl) adipate;TP 95;Thiokol TP 95;TP 759;RX 11806;Thiokol TP 759;Bisoflex 111;Di[2-(2-butoxyethoxy)ethyl] adipate;Reomol BCD;Plasthall 226S;Plasthall 226;Sartomer 650;Morton TP 95;Morton TP 759;SR 650;Sankonol 0862;Rhenosin W 95;BXA (ester);BXA;Sankonol 0862-0;SR 86A;ADK Cizer RS 107;RS 107;Sartomer Wareflex SR 650;Wareflex SR 650;Ccpcizer D 600;Edenol 422;ADK Cizer RS 107S;BXA-N;TP 795;BXA-R;Hallstar TP 759;Proviplast 01422",
    "duplicated_cas_no": "62863-07-4;79806-00-1;194548-85-1;130455-63-9",
    "SMILES": "C(CCCCC(OCCOCCOCCCC)=O)(OCCOCCOCCCC)=O",
    "meta_data": {
        "InChI": "InChI=1S/C22H42O8/c1-3-5-11-25-13-15-27-17-19-29-21(23)9-7-8-10-22(24)30-20-18-28-16-14-26-12-6-4-2/h3-20H2,1-2H3",
        "InChIKey": null,
        "Canonical SMILES": "O=C(OCCOCCOCCCC)CCCCC(=O)OCCOCCOCCCC",
        "Molecular Formula": "C<sub>22</sub>H<sub>42</sub>O<sub>8</sub>",
        "Molecular Mass": "434.56",
        "Boiling Point": "240 °C @ Press: 5 Torr",
        "Melting Point": "-47 °C"
    }
}