{
    "cas_no": "23779-97-7",
    "key_name": "4-Chloro-8-(trifluoromethyl)quinoline",
    "cn_name": "4-氯-8-(三氟甲基)喹啉;4-氯-8-三氟甲基喹啉;",
    "alternate_name": "Quinoline, 4-chloro-8-(trifluoromethyl)-;4-Chloro-8-(trifluoromethyl)quinoline",
    "duplicated_cas_no": "",
    "SMILES": "C(F)(F)(F)C=1C2=C(C(Cl)=CC=N2)C=CC1",
    "meta_data": {
        "InChI": "InChI=1S/C10H5ClF3N/c11-8-4-5-15-9-6(8)2-1-3-7(9)10(12,13)14/h1-5H",
        "InChIKey": null,
        "Canonical SMILES": "FC(F)(F)C1=CC=CC2=C(Cl)C=CN=C21",
        "Molecular Formula": "C<sub>10</sub>H<sub>5</sub>ClF<sub>3</sub>N",
        "Molecular Mass": "231.60",
        "Melting Point": "78 °C"
    }
}