{
    "cas_no": "6574-97-6",
    "key_name": "2,3-Dichlorobenzonitrile",
    "cn_name": "2,3-二氯苯腈;",
    "alternate_name": "Benzonitrile, 2,3-dichloro-;2,3-Dichlorobenzonitrile;2,3-Dichlorophenyl cyanide",
    "duplicated_cas_no": "",
    "SMILES": "C(#N)C1=C(Cl)C(Cl)=CC=C1",
    "meta_data": {
        "InChI": "InChI=1S/C7H3Cl2N/c8-6-3-1-2-5(4-10)7(6)9/h1-3H",
        "InChIKey": null,
        "Canonical SMILES": "N#CC=1C=CC=C(Cl)C1Cl",
        "Molecular Formula": "C<sub>7</sub>H<sub>3</sub>Cl<sub>2</sub>N",
        "Molecular Mass": "172.01",
        "Melting Point": "60-61 °C"
    }
}