{
    "cas_no": "3476-89-9",
    "key_name": "1,2,3,4-Tetrahydroquinoxaline",
    "cn_name": "1,2,3,4-四氢喹喔啉;",
    "alternate_name": "Quinoxaline, 1,2,3,4-tetrahydro-;1,2,3,4-Tetrahydroquinoxaline;NSC 48945",
    "duplicated_cas_no": "",
    "SMILES": "C1=2C(NCCN1)=CC=CC2",
    "meta_data": {
        "InChI": "InChI=1S/C8H10N2/c1-2-4-8-7(3-1)9-5-6-10-8/h1-4,9-10H,5-6H2",
        "InChIKey": null,
        "Canonical SMILES": "C=1C=CC=2NCCNC2C1",
        "Molecular Formula": "C<sub>8</sub>H<sub>10</sub>N<sub>2</sub>",
        "Molecular Mass": "134.18",
        "Boiling Point": "289 °C",
        "Melting Point": "99 °C"
    }
}