{
    "cas_no": "2758-18-1",
    "key_name": "3-Methyl-2-cyclopenten-1-one",
    "cn_name": null,
    "alternate_name": "2-Cyclopenten-1-one, 3-methyl-;3-Methyl-2-cyclopenten-1-one;3-Methyl-2-cyclopentenone;3-Methyl-2-cyclopentene-1-one;Nussol;3-Methylcyclopenten-2-one",
    "duplicated_cas_no": "",
    "SMILES": "CC1=CC(=O)CC1",
    "meta_data": {
        "InChI": "InChI=1S/C6H8O/c1-5-2-3-6(7)4-5/h4H,2-3H2,1H3",
        "InChIKey": null,
        "Canonical SMILES": "O=C1C=C(C)CC1",
        "Molecular Formula": "C<sub>6</sub>H<sub>8</sub>O",
        "Molecular Mass": "96.13",
        "Boiling Point": "157.5 °C",
        "Melting Point": "76-77 °C",
        "Density": "0.9467 g/cm³ @ Temp: 15 °C"
    }
}