{
    "cas_no": "97-23-4",
    "key_name": "Dichlorophen",
    "cn_name": "双氯酚;2,2\"-亚甲基双(4-氯苯酚);",
    "alternate_name": "Phenol, 2,2′-methylenebis[4-chloro-;2,2′-Methylenebis[4-chlorophenol];G 4;Anthiphen;Bis(5-chloro-2-hydroxyphenyl)methane;Bis(2-hydroxy-5-chlorophenyl)methane;DDDM;DDM;Dicestal;5,5′-Dichloro-2,2′-dihydroxydiphenylmethane;Dichlorophen B;Dichlorophen;Dichlorophene;Dichlorphen;Didroxan;Didroxane;2,2′-Dihydroxy-5,5′-dichlorodiphenylmethane;Diphentane 70;Korium;Panacide;Prevental;Preventol GDC;Taeniatol;Teniathane;Teniatol;Diphenthane 70;Preventol GD;Dichlorophene 10;Di(5-Chloro-2-hydroxyphenyl)methane;Hyosan;Plath-Lyse;Bis(chlorohydroxyphenyl)methane;Gefir;G 4 Pure;G 4 Technical;Fungicide GM;Fungicide M;Dichlorofen;Antifen;Difentan;Teniotol;Gingivit;Cordocel;Halenol;Vermithana;Embephen;Palacel;Preventol;Sindar G 4;Sandocide;Giv Gard G 4-40;NSC 38642;NSC 39467;Diclorofen;M 213 (biocide);M 213;4,4′-Dichloro-2,2′-methylenediphenol;Xanbac",
    "duplicated_cas_no": "8017-86-5;1135443-66-1",
    "SMILES": "C(C1=C(O)C=CC(Cl)=C1)C2=C(O)C=CC(Cl)=C2",
    "meta_data": {
        "InChI": "InChI=1S/C13H10Cl2O2/c14-10-1-3-12(16)8(6-10)5-9-7-11(15)2-4-13(9)17/h1-4,6-7,16-17H,5H2",
        "InChIKey": null,
        "Canonical SMILES": "ClC1=CC=C(O)C(=C1)CC2=CC(Cl)=CC=C2O",
        "Molecular Formula": "C<sub>13</sub>H<sub>10</sub>Cl<sub>2</sub>O<sub>2</sub>",
        "Molecular Mass": "269.12",
        "Melting Point": "177-178 °C"
    }
}