{
    "cas_no": "16630-55-0",
    "key_name": "3-(Methylthio)propyl acetate",
    "cn_name": "3-甲硫基丙醇乙酸酯;",
    "alternate_name": "1-Propanol, 3-(methylthio)-, 1-acetate;1-Propanol, 3-(methylthio)-, acetate;3-(Methylthio)propyl acetate;Acetic acid 3-(methylthio)propyl ester;3-Acetoxypropyl methyl sulfide;Methionyl acetate",
    "duplicated_cas_no": "",
    "SMILES": "C(OC(C)=O)CCSC",
    "meta_data": {
        "InChI": "InChI=1S/C6H12O2S/c1-6(7)8-4-3-5-9-2/h3-5H2,1-2H3",
        "InChIKey": null,
        "Canonical SMILES": "O=C(OCCCSC)C",
        "Molecular Formula": "C<sub>6</sub>H<sub>12</sub>O<sub>2</sub>S",
        "Molecular Mass": "148.22",
        "Boiling Point": "96 °C @ Press: 14 Torr",
        "Density": "1.041 g/cm³ @ Temp: 20 °C"
    }
}