{
    "cas_no": "25843-45-2",
    "key_name": "Diazene, dimethyl-, 1-oxide",
    "cn_name": "偶氮甲烷;",
    "alternate_name": "Diazene, dimethyl-, 1-oxide;Azoxymethane;NSC 171779",
    "duplicated_cas_no": "",
    "SMILES": "N(=NC)(C)=O",
    "meta_data": {
        "InChI": "InChI=1S/C2H6N2O/c1-3-4(2)5/h1-2H3",
        "InChIKey": null,
        "Canonical SMILES": "O=N(=NC)C",
        "Molecular Formula": "C<sub>2</sub>H<sub>6</sub>N<sub>2</sub>O",
        "Molecular Mass": "74.08",
        "Boiling Point": "98 °C"
    }
}