{
    "cas_no": "10210-17-0",
    "key_name": "3-(4-Hydroxyphenyl)-1-propanol",
    "cn_name": "3-(4-羟基苯基)-1-丙醇;",
    "alternate_name": "Benzenepropanol, 4-hydroxy-;1-Propanol, 3-(<em>p</em>-hydroxyphenyl)-;4-Hydroxybenzenepropanol;3-(<em>p</em>-Hydroxyphenyl)-1-propanol;Dihydro-<em>p</em>-coumaryl alcohol;1-(4-Hydroxyphenyl)-3-propanol;3-(<em>p</em>-Hydroxyphenyl)propyl alcohol;4-(3-Hydroxypropyl)phenol;3-(4-Hydroxyphenyl)-1-propanol;3-(4-Hydroxyphenyl)propanol",
    "duplicated_cas_no": "",
    "SMILES": "C(CCO)C1=CC=C(O)C=C1",
    "meta_data": {
        "InChI": "InChI=1S/C9H12O2/c10-7-1-2-8-3-5-9(11)6-4-8/h3-6,10-11H,1-2,7H2",
        "InChIKey": null,
        "Canonical SMILES": "OC1=CC=C(C=C1)CCCO",
        "Molecular Formula": "C<sub>9</sub>H<sub>12</sub>O<sub>2</sub>",
        "Molecular Mass": "152.19",
        "Boiling Point": "170 °C @ Press: 2 Torr",
        "Melting Point": "54 °C"
    }
}