{
    "cas_no": "7295-76-3",
    "key_name": "3-Methoxypyridine",
    "cn_name": "3-甲氧基吡啶;3-甲氧基吡啶;",
    "alternate_name": "Pyridine, 3-methoxy-;3-Methoxypyridine;β-Methoxypyridine",
    "duplicated_cas_no": "",
    "SMILES": "O(C)C=1C=CC=NC1",
    "meta_data": {
        "InChI": "InChI=1S/C6H7NO/c1-8-6-3-2-4-7-5-6/h2-5H,1H3",
        "InChIKey": null,
        "Canonical SMILES": "N=1C=CC=C(OC)C1",
        "Molecular Formula": "C<sub>6</sub>H<sub>7</sub>NO",
        "Molecular Mass": "109.13",
        "Boiling Point": "179 °C"
    }
}