{
    "cas_no": "1072-98-6",
    "key_name": "2-Amino-5-chloropyridine",
    "cn_name": "2-氨基-5-氯吡啶;",
    "alternate_name": "2-Pyridinamine, 5-chloro-;Pyridine, 2-amino-5-chloro-;5-Chloro-2-pyridinamine;2-Amino-5-chloropyridine;5-Chloro-2-aminopyridine;5-Chloro-α-aminopyridine;RP 26695;5-Chloro-2-pyridineamine;NSC 26283;(5-Chloropyridin-2-yl)amine",
    "duplicated_cas_no": "1974272-80-4",
    "SMILES": "ClC=1C=CC(N)=NC1",
    "meta_data": {
        "InChI": "InChI=1S/C5H5ClN2/c6-4-1-2-5(7)8-3-4/h1-3H,(H2,7,8)",
        "InChIKey": null,
        "Canonical SMILES": "ClC1=CN=C(N)C=C1",
        "Molecular Formula": "C<sub>5</sub>H<sub>5</sub>ClN<sub>2</sub>",
        "Molecular Mass": "128.56",
        "Melting Point": "137 °C"
    }
}