{
    "cas_no": "191171-55-8",
    "key_name": "2-(4,4,5,5-Tetramethyl-1,3,2-dioxaborolan-2-yl)aniline",
    "cn_name": "2-氨基苯硼酸频哪醇酯;",
    "alternate_name": "Benzenamine, 2-(4,4,5,5-tetramethyl-1,3,2-dioxaborolan-2-yl)-;2-(4,4,5,5-Tetramethyl-1,3,2-dioxaborolan-2-yl)benzenamine;2-(4,4,5,5-Tetramethyl-1,3,2-dioxaborolan-2-yl)phenylamine;2-(4,4,5,5-Tetramethyl-1,3,2-dioxaborolan-2-yl)aniline;2-(2-Aminophenyl)-4,4,5,5-tetramethyl-1,3,2-dioxaborolane;2-(Tetramethyl-1,3,2-dioxaborolan-2-yl)aniline;2-Aminophenylboronic acid pinacol ester",
    "duplicated_cas_no": "",
    "SMILES": "NC1=C(B2OC(C)(C)C(C)(C)O2)C=CC=C1",
    "meta_data": {
        "InChI": "InChI=1S/C12H18BNO2/c1-11(2)12(3,4)16-13(15-11)9-7-5-6-8-10(9)14/h5-8H,14H2,1-4H3",
        "InChIKey": null,
        "Canonical SMILES": "O1B(OC(C)(C)C1(C)C)C=2C=CC=CC2N",
        "Molecular Formula": "C<sub>12</sub>H<sub>18</sub>BNO<sub>2</sub>",
        "Molecular Mass": "219.09",
        "Melting Point": "67-68 °C"
    }
}