{
    "cas_no": "938-55-6",
    "key_name": "6-DMAP",
    "cn_name": "6-二甲基氨基嘌呤;",
    "alternate_name": "9<em>H</em>-Purin-6-amine, <em>N</em>,<em>N</em>-dimethyl-;Adenine, <em>N</em>,<em>N</em>-dimethyl-;1<em>H</em>-Purin-6-amine, <em>N</em>,<em>N</em>-dimethyl-;Purine, 6-(dimethylamino)-;Adenine, <em>N</em><sup>6</sup>,<em>N</em><sup>6</sup>-dimethyl-;<em>N</em>,<em>N</em>-Dimethyl-9<em>H</em>-purin-6-amine;<em>N</em>,<em>N</em>-Dimethyladenine;6,6-Dimethyladenine;Dimethyladenine;6-(Dimethylamino)purine;<em>N</em>,<em>N</em>-Dimethyl-6-aminopurine;<em>N</em><sup>6</sup>,<em>N</em><sup>6</sup>-Dimethyladenine;NSC 401568;DMAP;6-DMAP",
    "duplicated_cas_no": "1128-06-9",
    "SMILES": "N(C)(C)C1=C2C(N=CN2)=NC=N1",
    "meta_data": {
        "InChI": "InChI=1S/C7H9N5/c1-12(2)7-5-6(9-3-8-5)10-4-11-7/h3-4H,1-2H3,(H,8,9,10,11)",
        "InChIKey": null,
        "Canonical SMILES": "N1=CN=C(C=2NC=NC12)N(C)C",
        "Molecular Formula": "C<sub>7</sub>H<sub>9</sub>N<sub>5</sub>",
        "Molecular Mass": "163.18",
        "Melting Point": "251-253 °C (decomp)"
    }
}