{
    "cas_no": "19329-89-6",
    "key_name": "Isoamyl lactate",
    "cn_name": "乳酸异戊酯;",
    "alternate_name": "Propanoic acid, 2-hydroxy-, 3-methylbutyl ester;Lactic acid, isopentyl ester;Isopentyl alcohol, lactate;Isoamyl lactate;Isopentyl 2-hydroxypropanoate;Isopentyl lactate;3-Methylbutyl lactate;3-Methylbutyl 2-hydroxypropanoate",
    "duplicated_cas_no": "",
    "SMILES": "O(C(C(C)O)=O)CCC(C)C",
    "meta_data": {
        "InChI": "InChI=1S/C8H16O3/c1-6(2)4-5-11-8(10)7(3)9/h6-7,9H,4-5H2,1-3H3",
        "InChIKey": null,
        "Canonical SMILES": "O=C(OCCC(C)C)C(O)C",
        "Molecular Formula": "C<sub>8</sub>H<sub>16</sub>O<sub>3</sub>",
        "Molecular Mass": "160.21",
        "Boiling Point": "202.4 °C"
    }
}