{
    "cas_no": "1150-90-9",
    "key_name": "Estra-1,3,5(10),16-tetraen-3-ol",
    "cn_name": "雌甾四烯;",
    "alternate_name": "Estra-1,3,5(10),16-tetraen-3-ol;Compound 742",
    "duplicated_cas_no": "",
    "SMILES": "C[C@@]12[C@]([C@]3([C@@](C=4C(CC3)=CC(O)=CC4)(CC1)[H])[H])(CC=C2)[H]",
    "meta_data": {
        "InChI": "InChI=1S/C18H22O/c1-18-9-2-3-17(18)16-6-4-12-11-13(19)5-7-14(12)15(16)8-10-18/h2,5,7,9,11,15-17,19H,3-4,6,8,10H2,1H3/t15-,16-,17+,18+/m1/s1",
        "InChIKey": null,
        "Canonical SMILES": "OC1=CC=C2C(=C1)CCC3C2CCC4(C=CCC34)C",
        "Molecular Formula": "C<sub>18</sub>H<sub>22</sub>O",
        "Molecular Mass": "254.37",
        "Melting Point": "128.5-130 °C"
    }
}