{
    "cas_no": "32752-54-8",
    "key_name": "4-(Bromomethyl)benzophenone",
    "cn_name": "4-(溴甲基)二苯甲酮;",
    "alternate_name": "Methanone, [4-(bromomethyl)phenyl]phenyl-;Benzophenone, 4-(bromomethyl)-;[4-(Bromomethyl)phenyl]phenylmethanone;<em>p</em>-Benzoylbenzyl bromide;4-(Bromomethyl)benzophenone;α-Bromo-<em>p</em>-benzoyltoluene;4-Benzoylbenzyl bromide;<em>p</em>-Bromomethylbenzophenone",
    "duplicated_cas_no": "",
    "SMILES": "C(=O)(C1=CC=C(CBr)C=C1)C2=CC=CC=C2",
    "meta_data": {
        "InChI": "InChI=1S/C14H11BrO/c15-10-11-6-8-13(9-7-11)14(16)12-4-2-1-3-5-12/h1-9H,10H2",
        "InChIKey": null,
        "Canonical SMILES": "O=C(C=1C=CC=CC1)C2=CC=C(C=C2)CBr",
        "Molecular Formula": "C<sub>14</sub>H<sub>11</sub>BrO",
        "Molecular Mass": "275.14",
        "Melting Point": "112 °C"
    }
}