{
    "cas_no": "4033-40-3",
    "key_name": "<em>N</em>-Acetylasparagine",
    "cn_name": "N-乙酰-L-天门冬酰胺;",
    "alternate_name": "<span class=\"text-smallcaps\">L</span>-Asparagine, <em>N</em><sup>2</sup>-acetyl-;Asparagine, <em>N</em><sup>2</sup>-acetyl-, <span class=\"text-smallcaps\">L</span>-;<em>N</em><sup>2</sup>-Acetyl-<span class=\"text-smallcaps\">L</span>-asparagine;<em>N</em>-Acetyl-<span class=\"text-smallcaps\">L</span>-asparagine;<em>N</em>-Acetylasparagine;α-<em>N</em>-Acetyl-<span class=\"text-smallcaps\">L</span>-asparagine;<em>N</em><sup>2</sup>-Acetylasparagine;NSC 186895;(2S)-2-Acetamido-4-amino-4-oxobutanoic acid;(2S)-3-Carbamoyl-2-acetamidopropanoic acid",
    "duplicated_cas_no": "22059-27-4",
    "SMILES": "[C@@H](CC(N)=O)(NC(C)=O)C(O)=O",
    "meta_data": {
        "InChI": "InChI=1S/C6H10N2O4/c1-3(9)8-4(6(11)12)2-5(7)10/h4H,2H2,1H3,(H2,7,10)(H,8,9)(H,11,12)/t4-/m0/s1",
        "InChIKey": null,
        "Canonical SMILES": "O=C(O)C(NC(=O)C)CC(=O)N",
        "Molecular Formula": "C<sub>6</sub>H<sub>10</sub>N<sub>2</sub>O<sub>4</sub>",
        "Molecular Mass": "174.15",
        "Melting Point": "165 °C"
    }
}