{
    "cas_no": "7528-78-1",
    "key_name": "3,3′,3′′-Nitrilotris[propanenitrile]",
    "cn_name": null,
    "alternate_name": "Propanenitrile, 3,3′,3′′-nitrilotris-;Propionitrile, 3,3′,3′′-nitrilotri-;3,3′,3′′-Nitrilotris[propanenitrile];3,3′,3′′-Nitrilotripropionitrile;Tris(2-cyanoethyl)amine;Tris(β-cyanoethyl)amine;NSC 61541;3,3′,3′′-Nitrilotripropanenitrile",
    "duplicated_cas_no": "111216-38-7",
    "SMILES": "N(CCC#N)(CCC#N)CCC#N",
    "meta_data": {
        "InChI": "InChI=1S/C9H12N4/c10-4-1-7-13(8-2-5-11)9-3-6-12/h1-3,7-9H2",
        "InChIKey": null,
        "Canonical SMILES": "N#CCCN(CCC#N)CCC#N",
        "Molecular Formula": "C<sub>9</sub>H<sub>12</sub>N<sub>4</sub>",
        "Molecular Mass": "176.22",
        "Melting Point": "57-58 °C"
    }
}