{
    "cas_no": "65343-67-1",
    "key_name": "Propanoic acid, 2-(4-hydroxyphenoxy)-, ethyl ester",
    "cn_name": null,
    "alternate_name": "Propanoic acid, 2-(4-hydroxyphenoxy)-, ethyl ester;Ethyl 2-(4-hydroxyphenoxy)propionate;Ethyl 2-(4-hydroxyphenoxy)propanoate;Ethyl 2-(<em>p</em>-hydroxyphenoxy)propionate;2-(4-Hydroxyphenoxy)propionic acid ethyl ester;2-(4-Hydroxyphenoxy)propanoic acid ethyl ester",
    "duplicated_cas_no": "59012-02-1",
    "SMILES": "O(C(C(OCC)=O)C)C1=CC=C(O)C=C1",
    "meta_data": {
        "InChI": "InChI=1S/C11H14O4/c1-3-14-11(13)8(2)15-10-6-4-9(12)5-7-10/h4-8,12H,3H2,1-2H3",
        "InChIKey": null,
        "Canonical SMILES": "O=C(OCC)C(OC1=CC=C(O)C=C1)C",
        "Molecular Formula": "C<sub>11</sub>H<sub>14</sub>O<sub>4</sub>",
        "Molecular Mass": "210.23",
        "Boiling Point": "165-167 °C @ Press: 0.32 Torr",
        "Melting Point": "30 °C"
    }
}