{
    "cas_no": "6304-27-4",
    "key_name": "<em>N</em>,<em>N</em>-Dimethyl-2-pyridineethanamine",
    "cn_name": null,
    "alternate_name": "2-Pyridineethanamine, <em>N</em>,<em>N</em>-dimethyl-;Pyridine, 2-[2-(dimethylamino)ethyl]-;<em>N</em>,<em>N</em>-Dimethyl-2-pyridineethanamine;2-[β-(Dimethylamino)ethyl]pyridine;<em>N</em>,<em>N</em>-Dimethyl-2-pyridineethylamine;2-(2-Dimethylaminoethyl)pyridine;NSC 42626;Y-G 15",
    "duplicated_cas_no": "",
    "SMILES": "C(CN(C)C)C1=CC=CC=N1",
    "meta_data": {
        "InChI": "InChI=1S/C9H14N2/c1-11(2)8-6-9-5-3-4-7-10-9/h3-5,7H,6,8H2,1-2H3",
        "InChIKey": null,
        "Canonical SMILES": "N=1C=CC=CC1CCN(C)C",
        "Molecular Formula": "C<sub>9</sub>H<sub>14</sub>N<sub>2</sub>",
        "Molecular Mass": "150.22",
        "Boiling Point": "86-87 °C @ Press: 7.5 Torr"
    }
}