{
    "cas_no": "100905-33-7",
    "key_name": "Benzoic acid, 4,5-dimethoxy-2-nitro-, ethyl ester",
    "cn_name": "4,5-二甲氧基-2-硝基苯甲酸乙酯;",
    "alternate_name": "Benzoic acid, 4,5-dimethoxy-2-nitro-, ethyl ester;Ethyl 4,5-dimethoxy-2-nitrobenzoate",
    "duplicated_cas_no": "",
    "SMILES": "C(OCC)(=O)C1=C(N(=O)=O)C=C(OC)C(OC)=C1",
    "meta_data": {
        "InChI": "InChI=1S/C11H13NO6/c1-4-18-11(13)7-5-9(16-2)10(17-3)6-8(7)12(14)15/h5-6H,4H2,1-3H3",
        "InChIKey": null,
        "Canonical SMILES": "O=C(OCC)C1=CC(OC)=C(OC)C=C1N(=O)=O",
        "Molecular Formula": "C<sub>11</sub>H<sub>13</sub>NO<sub>6</sub>",
        "Molecular Mass": "255.22",
        "Melting Point": "99.5 °C"
    }
}