{
    "cas_no": "17082-46-1",
    "key_name": "Methyltris(dimethylsiloxy)silane",
    "cn_name": "甲基三(二甲基硅氧烷基)硅烷;",
    "alternate_name": "Trisiloxane, 3-[(dimethylsilyl)oxy]-1,1,3,5,5-pentamethyl-;Trisiloxane, 3-(dimethylsiloxy)-1,1,3,5,5-pentamethyl-;3-[(Dimethylsilyl)oxy]-1,1,3,5,5-pentamethyltrisiloxane;Methyltris(dimethylsiloxy)silane;Methyl tris(dimethylhydrosiloxy)silane;TSL 8242;M 9195;Tris(dimethylhydrogensiloxy)methylsilane",
    "duplicated_cas_no": "",
    "SMILES": "[Si](O[SiH](C)C)(O[SiH](C)C)(O[SiH](C)C)C",
    "meta_data": {
        "InChI": "InChI=1S/C7H24O3Si4/c1-11(2)8-14(7,9-12(3)4)10-13(5)6/h11-13H,1-7H3",
        "InChIKey": null,
        "Canonical SMILES": "O([SiH](C)C)[Si](O[SiH](C)C)(O[SiH](C)C)C",
        "Molecular Formula": "C<sub>7</sub>H<sub>24</sub>O<sub>3</sub>Si<sub>4</sub>",
        "Molecular Mass": "268.61",
        "Boiling Point": "164 °C",
        "Melting Point": "-155 °C",
        "Density": "0.8613 g/cm³ @ Temp: 20 °C"
    }
}