{
    "cas_no": "57500-00-2",
    "key_name": "Furfuryl methyl disulfide",
    "cn_name": "甲基糠基二硫;甲基糠基二硫醚;糠基甲基二硫;",
    "alternate_name": "Furan, 2-[(methyldithio)methyl]-;2-[(Methyldithio)methyl]furan;Methyl furfuryl disulfide;Furfuryl methyl disulfide;2-[(Methyldisulfanyl)methyl]furan",
    "duplicated_cas_no": "60681-93-8",
    "SMILES": "C(SSC)C1=CC=CO1",
    "meta_data": {
        "InChI": "InChI=1S/C6H8OS2/c1-8-9-5-6-3-2-4-7-6/h2-4H,5H2,1H3",
        "InChIKey": null,
        "Canonical SMILES": "O1C=CC=C1CSSC",
        "Molecular Formula": "C<sub>6</sub>H<sub>8</sub>OS<sub>2</sub>",
        "Molecular Mass": "160.26",
        "Boiling Point": "50.5-51.5 °C @ Press: 0.50 Torr"
    }
}