{
    "cas_no": "59-89-2",
    "key_name": "Nitrosomorpholine",
    "cn_name": "N-亚硝基吗啉;",
    "alternate_name": "Morpholine, 4-nitroso-;4-Nitrosomorpholine;<em>N</em>-Nitrosomorpholine;Nitrosomorpholine;NSC 139",
    "duplicated_cas_no": "",
    "SMILES": "N(=O)N1CCOCC1",
    "meta_data": {
        "InChI": "InChI=1S/C4H8N2O2/c7-5-6-1-3-8-4-2-6/h1-4H2",
        "InChIKey": null,
        "Canonical SMILES": "O=NN1CCOCC1",
        "Molecular Formula": "C<sub>4</sub>H<sub>8</sub>N<sub>2</sub>O<sub>2</sub>",
        "Molecular Mass": "116.12",
        "Boiling Point": "224-224.5 °C @ Press: 747 Torr",
        "Melting Point": "29 °C"
    }
}