{
    "cas_no": "4518-94-9",
    "key_name": "Propylmethyldichlorosilane",
    "cn_name": null,
    "alternate_name": "Silane, dichloromethylpropyl-;Dichloromethylpropylsilane;Methylpropyldichlorosilane;Dichloro(methyl)propylsilane;Propylmethyldichlorosilane;LS 450;NSC 96614",
    "duplicated_cas_no": "",
    "SMILES": "C([Si](C)(Cl)Cl)CC",
    "meta_data": {
        "InChI": "InChI=1S/C4H10Cl2Si/c1-3-4-7(2,5)6/h3-4H2,1-2H3",
        "InChIKey": null,
        "Canonical SMILES": "Cl[Si](Cl)(C)CCC",
        "Molecular Formula": "C<sub>4</sub>H<sub>10</sub>Cl<sub>2</sub>Si",
        "Molecular Mass": "157.11",
        "Boiling Point": "125 °C",
        "Density": "1.027 g/cm³"
    }
}