{
    "cas_no": "2280-27-5",
    "key_name": "3-Methyl-<span class=\"text-smallcaps\">L</span>-threonine",
    "cn_name": "(S)-(+)-2-氨基-3-羟基-3-甲基丁酸;L(+)-beta-羟基缬氨酸;",
    "alternate_name": "<span class=\"text-smallcaps\">L</span>-Threonine, 3-methyl-;Valine, 3-hydroxy-, <span class=\"text-smallcaps\">L</span>-;<span class=\"text-smallcaps\">L</span>-Valine, 3-hydroxy-;3-Methyl-<span class=\"text-smallcaps\">L</span>-threonine;β-Hydroxy-<span class=\"text-smallcaps\">L</span>-valine;(2<em>S</em>)-2-Amino-3-hydroxy-3-methylbutanoic acid;3-Hydroxy-<span class=\"text-smallcaps\">L</span>-valine;(<em>S</em>)-3-Hydroxy-2-amino-3-methylbutanoic acid;(<em>S</em>)-2-Amino-3-hydroxy-3-methylbutanoic acid;(2S)-2-Amino-3-hydroxy-3-methylbutanoic acid",
    "duplicated_cas_no": "",
    "SMILES": "[C@H](C(C)(C)O)(C(O)=O)N",
    "meta_data": {
        "InChI": "InChI=1S/C5H11NO3/c1-5(2,9)3(6)4(7)8/h3,9H,6H2,1-2H3,(H,7,8)/t3-/m1/s1",
        "InChIKey": null,
        "Canonical SMILES": "O=C(O)C(N)C(O)(C)C",
        "Molecular Formula": "C<sub>5</sub>H<sub>11</sub>NO<sub>3</sub>",
        "Molecular Mass": "133.15",
        "Melting Point": "205 °C"
    }
}