{
    "cas_no": "5929-72-6",
    "key_name": "2,7-Dimethyl-3,5-octadiyne-2,7-diol",
    "cn_name": "2,7-二甲基-3,5-辛二炔-2,7-二醇;",
    "alternate_name": "3,5-Octadiyne-2,7-diol, 2,7-dimethyl-;2,7-Dimethyl-3,5-octadiyne-2,7-diol;1,1,6,6-Tetramethyl-2,4-hexadiyne-1,6-diol;2,7-Dimethyl-3,5-octadiyn-2,7-diol;NSC 14256",
    "duplicated_cas_no": "",
    "SMILES": "C(C(C)(C)O)#CC#CC(C)(C)O",
    "meta_data": {
        "InChI": "InChI=1S/C10H14O2/c1-9(2,11)7-5-6-8-10(3,4)12/h11-12H,1-4H3",
        "InChIKey": null,
        "Canonical SMILES": "OC(C#CC#CC(O)(C)C)(C)C",
        "Molecular Formula": "C<sub>10</sub>H<sub>14</sub>O<sub>2</sub>",
        "Molecular Mass": "166.22",
        "Boiling Point": "91-92 °C @ Press: 6 Torr",
        "Melting Point": "129 °C",
        "Density": "0.9001 g/cm³ @ Temp: 20 °C"
    }
}