{
    "cas_no": "22144-76-9",
    "key_name": "Cytochalasin C",
    "cn_name": "细胞松驰素 C;",
    "alternate_name": "1<em>H</em>-Cycloundec[<em>d</em>]isoindole-1,11(2<em>H</em>)-dione, 15-(acetyloxy)-3,3a,6,6a,9,10,12,15-octahydro-6,12-dihydroxy-4,5,10,12-tetramethyl-3-(phenylmethyl)-, (3<em>S</em>,3a<em>R</em>,6<em>S</em>,6a<em>R</em>,7<em>E</em>,10<em>S</em>,12<em>R</em>,13<em>E</em>,15<em>R</em>,15a<em>R</em>)-;1<em>H</em>-Cycloundec[<em>d</em>]isoindole-1,11(2<em>H</em>)-dione, 3-benzyl-3,3a,6,6a,9,10,12,15-octahydro-6,12,15-trihydroxy-4,5,10,12-tetramethyl-, 15-acetate;[11]Cytochalasa-5,13,19-triene-1,17-dione, 21-(acetyloxy)-7,18-dihydroxy-16,18-dimethyl-10-phenyl-, (7<em>S</em>,13<em>E</em>,16<em>S</em>,18<em>R</em>,19<em>E</em>,21<em>R</em>)-;1<em>H</em>-Cycloundec[<em>d</em>]isoindole, [11]cytochalasa-5,13,19-triene-1,17-dione deriv.;(3<em>S</em>,3a<em>R</em>,6<em>S</em>,6a<em>R</em>,7<em>E</em>,10<em>S</em>,12<em>R</em>,13<em>E</em>,15<em>R</em>,15a<em>R</em>)-15-(Acetyloxy)-3,3a,6,6a,9,10,12,15-octahydro-6,12-dihydroxy-4,5,10,12-tetramethyl-3-(phenylmethyl)-1<em>H</em>-cycloundec[<em>d</em>]isoindole-1,11(2<em>H</em>)-dione;Cytochalasin C;1<em>H</em>-Cycloundec[<em>d</em>]isoindole-1,11(2<em>H</em>)-dione, 15-(acetyloxy)-3,3a,6,6a,9,10,12,15-octahydro-6,12-dihydroxy-4,5,10,12-tetramethyl-3-(phenylmethyl)-, [3<em>S</em>-(3<em>R</em>*,3a<em>S</em>*,6<em>R</em>*,6a<em>S</em>*,7<em>E</em>,10<em>R</em>*,12<em>S</em>*,13<em>E</em>,15<em>S</em>*,15a<em>S</em>*)]-",
    "duplicated_cas_no": "11044-50-1",
    "SMILES": "",
    "meta_data": {
        "InChI": "",
        "InChIKey": null,
        "Canonical SMILES": "",
        "Molecular Formula": "C<sub>30</sub>H<sub>37</sub>NO<sub>6</sub>",
        "Molecular Mass": "507.62",
        "Melting Point": "260-265 °C"
    }
}