{
    "cas_no": "5137-70-2",
    "key_name": "Dodecylphosphonic acid",
    "cn_name": "1-十二烷基膦酸;",
    "alternate_name": "Phosphonic acid, <em>P</em>-dodecyl-;Phosphonic acid, dodecyl-;<em>P</em>-Dodecylphosphonic acid;<em>n</em>-Dodecanephosphonic acid;1-Dodecanephosphonic acid;<em>n</em>-Dodecylphosphonic acid;Dodecylphosphonic acid;Dodecanephosphonic acid;NSC 407872;Rhodafac LPA;1-Dodecylphosphonic acid",
    "duplicated_cas_no": "",
    "SMILES": "C(CCCCCCCCC)CCP(=O)(O)O",
    "meta_data": {
        "InChI": "InChI=1S/C12H27O3P/c1-2-3-4-5-6-7-8-9-10-11-12-16(13,14)15/h2-12H2,1H3,(H2,13,14,15)",
        "InChIKey": null,
        "Canonical SMILES": "O=P(O)(O)CCCCCCCCCCCC",
        "Molecular Formula": "C<sub>12</sub>H<sub>27</sub>O<sub>3</sub>P",
        "Molecular Mass": "250.31",
        "Boiling Point": "99-100 °C",
        "Melting Point": "100.5-101.5 °C"
    }
}