{
    "cas_no": "16669-59-3",
    "key_name": "<em>N</em>-[(2-Methylpropoxy)methyl]-2-propenamide",
    "cn_name": "N-[(2-甲(基)丙氧基甲基]-2-丙烯酰胺;N[异丁氧(基)甲基]丙烯酰胺;",
    "alternate_name": "2-Propenamide, <em>N</em>-[(2-methylpropoxy)methyl]-;Acrylamide, <em>N</em>-(isobutoxymethyl)-;<em>N</em>-[(2-Methylpropoxy)methyl]-2-propenamide;<em>N</em>-(Isobutoxymethyl)acrylamide;Synocure 3165;Cylink IBMA;Wasmer IBM;Isobutoxymethylacrylamide",
    "duplicated_cas_no": "96538-85-1;115254-63-2;68258-83-3;70700-19-5",
    "SMILES": "N(COCC(C)C)C(C=C)=O",
    "meta_data": {
        "InChI": "InChI=1S/C8H15NO2/c1-4-8(10)9-6-11-5-7(2)3/h4,7H,1,5-6H2,2-3H3,(H,9,10)",
        "InChIKey": null,
        "Canonical SMILES": "O=C(C=C)NCOCC(C)C",
        "Molecular Formula": "C<sub>8</sub>H<sub>15</sub>NO<sub>2</sub>",
        "Molecular Mass": "157.21",
        "Boiling Point": "99-100 °C @ Press: 0.03 Torr",
        "Density": "0.9654 g/cm³ @ Temp: 25 °C"
    }
}