{
    "cas_no": "118-56-9",
    "key_name": "Homosalate",
    "cn_name": "原膜散酯;3,3,5-三甲基环己醇水杨酸酯;",
    "alternate_name": "Benzoic acid, 2-hydroxy-, 3,3,5-trimethylcyclohexyl ester;Salicylic acid, 3,3,5-trimethylcyclohexyl ester;Cyclohexanol, 3,3,5-trimethyl-, salicylate;Heliophan;Homosalate;3,3,5-Trimethylcyclohexyl salicylate;Heliopan;Homomenthyl salicylate;Filtrosol A;Kemester;Neo Heliopan;Eusolex HMS;Kemester HMS;Neo Heliopan HMS;Heliopan HMS;Uniderm Homsal;NSC 164918;Parsol HMS;3,3,5-Trimethylcyclohexyl 2-hydroxybenzoate;Escalol HMS",
    "duplicated_cas_no": "8045-71-4;50610-40-7;52253-93-7;194304-23-9",
    "SMILES": "C(OC1CC(C)(C)CC(C)C1)(=O)C2=C(O)C=CC=C2",
    "meta_data": {
        "InChI": "InChI=1S/C16H22O3/c1-11-8-12(10-16(2,3)9-11)19-15(18)13-6-4-5-7-14(13)17/h4-7,11-12,17H,8-10H2,1-3H3",
        "InChIKey": null,
        "Canonical SMILES": "O=C(OC1CC(C)CC(C)(C)C1)C=2C=CC=CC2O",
        "Molecular Formula": "C<sub>16</sub>H<sub>22</sub>O<sub>3</sub>",
        "Molecular Mass": "262.34",
        "Boiling Point": "163 °C",
        "Density": "1.045-1.048 g/cm³ @ Temp: 25 °C"
    }
}