{
    "cas_no": "15848-22-3",
    "key_name": "5-Bromopentyl acetate",
    "cn_name": "5-溴戊醇乙酯;5-溴代戊基乙酸酯;5-溴戊基;5-溴戊基醋酸盐;5-溴戊醇乙酯;5-溴戊基醋酸酯;5-溴戊基乙酸酯;5-;",
    "alternate_name": "1-Pentanol, 5-bromo-, 1-acetate;1-Pentanol, 5-bromo-, acetate;5-Bromopentyl acetate;5-Bromo-1-acetoxypentane;1-Acetoxy-5-bromopentane;5-Bromo-1-pentanol acetate",
    "duplicated_cas_no": "",
    "SMILES": "C(CCCCBr)OC(C)=O",
    "meta_data": {
        "InChI": "InChI=1S/C7H13BrO2/c1-7(9)10-6-4-2-3-5-8/h2-6H2,1H3",
        "InChIKey": null,
        "Canonical SMILES": "O=C(OCCCCCBr)C",
        "Molecular Formula": "C<sub>7</sub>H<sub>13</sub>BrO<sub>2</sub>",
        "Molecular Mass": "209.08",
        "Boiling Point": "109-110 °C @ Press: 15 Torr",
        "Density": "1.3186 g/cm³ @ Temp: 20 °C"
    }
}