{
    "cas_no": "79-41-4",
    "key_name": "Methacrylic acid",
    "cn_name": "2-甲基丙烯酸;甲基丙烯酸;异丁烯酸;",
    "alternate_name": "2-Propenoic acid, 2-methyl-;Methacrylic acid;2-Methyl-2-propenoic acid;α-Methylacrylic acid;Methylacrylic acid;2-Methylacrylic acid;α-Methacrylic acid;GE 110;Loctite 3298;Norsocryl MAA;NSC 7393;Light Ester A;Acryester MAA;MAA;GE 100;Isobutenic acid;Methacrylate;1-Methyl-3-(4-vinylbenzyl)imidazolium chloride-methacrylic acid copolymer;CX 192;Visiomer GMAA;BMA 530;MeSH ID: D008689",
    "duplicated_cas_no": "463311-95-7;562836-84-4;1338439-16-9;2023788-71-6;2278236-99-8",
    "SMILES": "C(C(O)=O)(C)=C",
    "meta_data": {
        "InChI": "InChI=1S/C4H6O2/c1-3(2)4(5)6/h1H2,2H3,(H,5,6)",
        "InChIKey": null,
        "Canonical SMILES": "O=C(O)C(=C)C",
        "Molecular Formula": "C<sub>4</sub>H<sub>6</sub>O<sub>2</sub>",
        "Molecular Mass": "86.09",
        "Boiling Point": "163 °C @ Press: 760 Torr",
        "Melting Point": "16 °C",
        "Density": "1.0153 g/cm³ @ Temp: 20 °C"
    }
}