{
    "cas_no": "3513-81-3",
    "key_name": "2-Methylene-1,3-propanediol",
    "cn_name": "2-亚甲基-1,3-丙二醇;",
    "alternate_name": "1,3-Propanediol, 2-methylene-;2-Methylene-1,3-propanediol;1,3-Hydroxy-2-methylenepropane",
    "duplicated_cas_no": "",
    "SMILES": "C(CO)(CO)=C",
    "meta_data": {
        "InChI": "InChI=1S/C4H8O2/c1-4(2-5)3-6/h5-6H,1-3H2",
        "InChIKey": null,
        "Canonical SMILES": "OCC(=C)CO",
        "Molecular Formula": "C<sub>4</sub>H<sub>8</sub>O<sub>2</sub>",
        "Molecular Mass": "88.11",
        "Boiling Point": "125-126 °C @ Press: 18 Torr",
        "Density": "1.0791 g/cm³ @ Temp: 20 °C"
    }
}