{
    "cas_no": "104030-54-8",
    "key_name": "Carpropamid",
    "cn_name": "加普胺;加普胺Carpropamid;",
    "alternate_name": "Cyclopropanecarboxamide, 2,2-dichloro-<em>N</em>-[1-(4-chlorophenyl)ethyl]-1-ethyl-3-methyl-;2,2-Dichloro-<em>N</em>-[1-(4-chlorophenyl)ethyl]-1-ethyl-3-methylcyclopropanecarboxamide;KTU 3616;Carpropamid;WIN;Protiga",
    "duplicated_cas_no": "115252-91-0;1135441-77-8",
    "SMILES": "C(NC(C)C1=CC=C(Cl)C=C1)(=O)C2(CC)C(Cl)(Cl)C2C",
    "meta_data": {
        "InChI": "InChI=1S/C15H18Cl3NO/c1-4-14(10(3)15(14,17)18)13(20)19-9(2)11-5-7-12(16)8-6-11/h5-10H,4H2,1-3H3,(H,19,20)",
        "InChIKey": null,
        "Canonical SMILES": "O=C(NC(C1=CC=C(Cl)C=C1)C)C2(CC)C(C)C2(Cl)Cl",
        "Molecular Formula": "C<sub>15</sub>H<sub>18</sub>Cl<sub>3</sub>NO",
        "Molecular Mass": "334.67",
        "Melting Point": "169.0-169.5 °C"
    }
}