{
    "cas_no": "76350-90-8",
    "key_name": "2-Methyl[1,1′-biphenyl]-3-methanol",
    "cn_name": "2-甲基-3-苯基苯甲醇;",
    "alternate_name": "[1,1′-Biphenyl]-3-methanol, 2-methyl-;2-Methyl[1,1′-biphenyl]-3-methanol;3-Hydroxymethyl-2-methylbiphenyl;2-Methyl-3-phenylbenzyl alcohol;2-Methylbiphenyl-3-ylmethanol;(2-Methyl-3-phenylphenyl)methanol;(2-Methyl-[1,1′-biphenyl]-3-yl)methanol",
    "duplicated_cas_no": "94590-99-5",
    "SMILES": "CC1=C(C=CC=C1CO)C2=CC=CC=C2",
    "meta_data": {
        "InChI": "InChI=1S/C14H14O/c1-11-13(10-15)8-5-9-14(11)12-6-3-2-4-7-12/h2-9,15H,10H2,1H3",
        "InChIKey": null,
        "Canonical SMILES": "OCC1=CC=CC(C=2C=CC=CC2)=C1C",
        "Molecular Formula": "C<sub>14</sub>H<sub>14</sub>O",
        "Molecular Mass": "198.26",
        "Melting Point": "59-60 °C"
    }
}