{
    "cas_no": "97-59-6",
    "key_name": "Allantoin",
    "cn_name": "尿囊素;",
    "alternate_name": "Urea, <em>N</em>-(2,5-dioxo-4-imidazolidinyl)-;Allantoin;Urea, (2,5-dioxo-4-imidazolidinyl)-;<em>N</em>-(2,5-Dioxo-4-imidazolidinyl)urea;Cordianine;Glyoxyldiureide;5-Ureidohydantoin;Allantol;Sebical;Glyoxyldiureid;Glyoxylic diureide;(2,5-Dioxo-4-imidazolidinyl)urea;<span class=\"text-smallcaps\">DL</span>-Allantoin;(±)-Allantoin;Psoralon;Septalan;NSC 7606;Allantion;SD 101;1-(2,5-Dioxoimidazolidin-4-yl)urea;MeSH ID: D000481",
    "duplicated_cas_no": "5377-33-3;37305-69-4;58308-55-7",
    "SMILES": "N(C(N)=O)C1NC(=O)NC1=O",
    "meta_data": {
        "InChI": "InChI=1S/C4H6N4O3/c5-3(10)6-1-2(9)8-4(11)7-1/h1H,(H3,5,6,10)(H2,7,8,9,11)",
        "InChIKey": null,
        "Canonical SMILES": "O=C(N)NC1NC(=O)NC1=O",
        "Molecular Formula": "C<sub>4</sub>H<sub>6</sub>N<sub>4</sub>O<sub>3</sub>",
        "Molecular Mass": "158.12",
        "Melting Point": "239 °C"
    }
}