{
    "cas_no": "32795-44-1",
    "key_name": "<em>N</em>-Acetylprocainamide",
    "cn_name": null,
    "alternate_name": "Benzamide, 4-(acetylamino)-<em>N</em>-[2-(diethylamino)ethyl]-;4-(Acetylamino)-<em>N</em>-[2-(diethylamino)ethyl]benzamide;<em>N</em>-Acetylprocainamide;<em>N</em>-Acetylprocaine amide;Acecainide;<em>N</em>-Acetylnovocainamide;NAPA",
    "duplicated_cas_no": "",
    "SMILES": "C(NCCN(CC)CC)(=O)C1=CC=C(NC(C)=O)C=C1",
    "meta_data": {
        "InChI": "InChI=1S/C15H23N3O2/c1-4-18(5-2)11-10-16-15(20)13-6-8-14(9-7-13)17-12(3)19/h6-9H,4-5,10-11H2,1-3H3,(H,16,20)(H,17,19)",
        "InChIKey": null,
        "Canonical SMILES": "O=C(NCCN(CC)CC)C1=CC=C(C=C1)NC(=O)C",
        "Molecular Formula": "C<sub>15</sub>H<sub>23</sub>N<sub>3</sub>O<sub>2</sub>",
        "Molecular Mass": "277.36",
        "Melting Point": "210 °C"
    }
}