{
    "cas_no": "80681-45-4",
    "key_name": "<em>prim</em>-<em>O</em>-Glucosylcimifugin",
    "cn_name": null,
    "alternate_name": "5<em>H</em>-Furo[3,2-<em>g</em>][1]benzopyran-5-one, 7-[(β-<span class=\"text-smallcaps\">D</span>-glucopyranosyloxy)methyl]-2,3-dihydro-2-(1-hydroxy-1-methylethyl)-4-methoxy-, (2<em>S</em>)-;5<em>H</em>-Furo[3,2-<em>g</em>][1]benzopyran-5-one, 7-[(β-<span class=\"text-smallcaps\">D</span>-glucopyranosyloxy)methyl]-2,3-dihydro-2-(1-hydroxy-1-methylethyl)-4-methoxy-, (<em>S</em>)-;(2<em>S</em>)-7-[(β-<span class=\"text-smallcaps\">D</span>-Glucopyranosyloxy)methyl]-2,3-dihydro-2-(1-hydroxy-1-methylethyl)-4-methoxy-5<em>H</em>-furo[3,2-<em>g</em>][1]benzopyran-5-one;<em>prim</em>-<em>O</em>-Glucosylcimifugin;Cimicifuga glycoside",
    "duplicated_cas_no": "1040409-91-3",
    "SMILES": "O(C)C=1C2=C(C=C3C1C[C@@H](C(C)(C)O)O3)OC(CO[C@@H]4O[C@H](CO)[C@@H](O)[C@H](O)[C@H]4O)=CC2=O",
    "meta_data": {
        "InChI": "InChI=1S/C22H28O11/c1-22(2,28)15-5-10-12(32-15)6-13-16(20(10)29-3)11(24)4-9(31-13)8-30-21-19(27)18(26)17(25)14(7-23)33-21/h4,6,14-15,17-19,21,23,25-28H,5,7-8H2,1-3H3/t14-,15+,17-,18+,19-,21-/m1/s1",
        "InChIKey": null,
        "Canonical SMILES": "O=C1C=C(OC=2C=C3OC(CC3=C(OC)C12)C(O)(C)C)COC4OC(CO)C(O)C(O)C4O",
        "Molecular Formula": "C<sub>22</sub>H<sub>28</sub>O<sub>11</sub>",
        "Molecular Mass": "468.45",
        "Melting Point": "132-133 °C"
    }
}