{
    "cas_no": "3543-02-0",
    "key_name": "3,5-Pyridinediol",
    "cn_name": "吡啶-3,5-二醇;吡啶-3,5-二醇;",
    "alternate_name": "3,5-Pyridinediol;3,5-Dihydroxypyridine",
    "duplicated_cas_no": "",
    "SMILES": "OC=1C=C(O)C=NC1",
    "meta_data": {
        "InChI": "InChI=1S/C5H5NO2/c7-4-1-5(8)3-6-2-4/h1-3,7-8H",
        "InChIKey": null,
        "Canonical SMILES": "OC1=CN=CC(O)=C1",
        "Molecular Formula": "C<sub>5</sub>H<sub>5</sub>NO<sub>2</sub>",
        "Molecular Mass": "111.10",
        "Melting Point": "234-236 °C"
    }
}