{
    "cas_no": "2010-15-3",
    "key_name": "Phenylthiohydantoin",
    "cn_name": "乙内酰苯硫脲甘氨酸;",
    "alternate_name": "4-Imidazolidinone, 3-phenyl-2-thioxo-;Hydantoin, 3-phenyl-2-thio-;3-Phenyl-2-thioxo-4-imidazolidinone;3-Phenyl-2-thiohydantoin;Phenylthiohydantoin;3-<em>N</em>-Phenyl-2-thiohydantoin;Glycine phenylthiohydantoin;Glycine, 3-phenyl-2-thiohydantoin;PTH-Glycine;4-Oxo-3-phenylimidazolidine-2-thione;3-(Phenyl)thiohydantoin;1-Phenyl-2-sulfanyl-4,5-dihydro-1<em>H</em>-imidazol-5-one;3-Phenyl-2-sulfanylideneimidazolidin-4-one",
    "duplicated_cas_no": "",
    "SMILES": "O=C1N(C(=S)NC1)C2=CC=CC=C2",
    "meta_data": {
        "InChI": "InChI=1S/C9H8N2OS/c12-8-6-10-9(13)11(8)7-4-2-1-3-5-7/h1-5H,6H2,(H,10,13)",
        "InChIKey": null,
        "Canonical SMILES": "O=C1N(C=2C=CC=CC2)C(=S)NC1",
        "Molecular Formula": "C<sub>9</sub>H<sub>8</sub>N<sub>2</sub>OS",
        "Molecular Mass": "192.24",
        "Melting Point": "240-242 °C"
    }
}