{
    "cas_no": "626-39-1",
    "key_name": "1,3,5-Tribromobenzene",
    "cn_name": "1,3,5-三溴苯;",
    "alternate_name": "Benzene, 1,3,5-tribromo-;1,3,5-Tribromobenzene;NSC 62439",
    "duplicated_cas_no": "",
    "SMILES": "BrC1=CC(Br)=CC(Br)=C1",
    "meta_data": {
        "InChI": "InChI=1S/C6H3Br3/c7-4-1-5(8)3-6(9)2-4/h1-3H",
        "InChIKey": null,
        "Canonical SMILES": "BrC=1C=C(Br)C=C(Br)C1",
        "Molecular Formula": "C<sub>6</sub>H<sub>3</sub>Br<sub>3</sub>",
        "Molecular Mass": "314.80",
        "Boiling Point": "271 °C",
        "Melting Point": "122.8 °C"
    }
}