{
    "cas_no": "299-39-8",
    "key_name": "7,14-Methano-2<em>H</em>,6<em>H</em>-dipyrido[1,2-<em>a</em>:1′,2′-<em>e</em>][1,5]diazocine, dodecahydro-, (7<em>S</em>,7a<em>R</em>,14<em>S</em>,14a<em>S</em>)-, sulfate (1:1)",
    "cn_name": "硫酸司巴丁;",
    "alternate_name": "7,14-Methano-2<em>H</em>,6<em>H</em>-dipyrido[1,2-<em>a</em>:1′,2′-<em>e</em>][1,5]diazocine, dodecahydro-, (7<em>S</em>,7a<em>R</em>,14<em>S</em>,14a<em>S</em>)-, sulfate (1:1);Sparteine, sulfate (1:1);7,14-Methano-2<em>H</em>,6<em>H</em>-dipyrido[1,2-<em>a</em>:1′,2′-<em>e</em>][1,5]diazocine, dodecahydro-, [7<em>S</em>-(7α,7aα,14α,14aβ)]-, sulfate (1:1);Sparteine sulfate;Sparm;Sparteal;Tocosimplex;Spartepur;Spartin;Spartocin;Spatym;Spal;Spareng;NSC 143087;NSC 26253;NSC 402663;(-)-Sparteine sulfate",
    "duplicated_cas_no": "",
    "SMILES": "S(=O)(=O)(O)O.[C@@]12([C@]3(N(C[C@](C1)([C@@]4(N(C2)CCCC4)[H])[H])CCCC3)[H])[H]",
    "meta_data": {
        "InChI": "InChI=1S/C15H26N2.H2O4S/c1-3-7-16-11-13-9-12(14(16)5-1)10-17-8-4-2-6-15(13)17;1-5(2,3)4/h12-15H,1-11H2;(H2,1,2,3,4)/t12-,13-,14-,15+;/m0./s1",
        "InChIKey": null,
        "Canonical SMILES": "O=S(=O)(O)O.N12CCCCC1C3CN4CCCCC4C(C2)C3",
        "Molecular Formula": "C<sub>15</sub>H<sub>26</sub>N<sub>2</sub>.H<sub>2</sub>O<sub>4</sub>S",
        "Molecular Mass": "",
        "Melting Point": "149 °C"
    }
}