{
    "cas_no": "3612-20-2",
    "key_name": "1-Benzyl-4-piperidone",
    "cn_name": "N-苄基哌啶酮;",
    "alternate_name": "4-Piperidinone, 1-(phenylmethyl)-;4-Piperidone, 1-benzyl-;1-(Phenylmethyl)-4-piperidinone;<em>N</em>-Benzylpiperidinone;1-Benzyl-4-oxopiperidine;1-Benzyl-4-piperidinone;1-Benzyl-4-piperidone;<em>N</em>-Benzyl-4-piperidone;1-Benzylpiperidone;<em>N</em>-Benzyl-4-piperidinone;<em>N</em>-Benzylpiperidone;<em>N</em>-Benzyl-4-oxopiperidine;1-(Phenylmethyl)-4-piperidone;NSC 77933;1-Benzylpiperidine-4-one;4-<em>N</em>-Benzylpiperidone;1-Benzylpiperidin-4-one",
    "duplicated_cas_no": "",
    "SMILES": "C(N1CCC(=O)CC1)C2=CC=CC=C2",
    "meta_data": {
        "InChI": "InChI=1S/C12H15NO/c14-12-6-8-13(9-7-12)10-11-4-2-1-3-5-11/h1-5H,6-10H2",
        "InChIKey": null,
        "Canonical SMILES": "O=C1CCN(CC=2C=CC=CC2)CC1",
        "Molecular Formula": "C<sub>12</sub>H<sub>15</sub>NO",
        "Molecular Mass": "189.25",
        "Boiling Point": "114-116 °C @ Press: 0.3 Torr",
        "Density": "1.0626 g/cm³ @ Temp: 23 °C"
    }
}