{
    "cas_no": "3934-87-0",
    "key_name": "3,4-Dihydroxy-5-methoxybenzaldehyde",
    "cn_name": "5-羟基香兰素;5-羟基香草醛;3,4-二羟基-5-甲氧基苯甲醛;",
    "alternate_name": "Benzaldehyde, 3,4-dihydroxy-5-methoxy-;Protocatechualdehyde, 5-methoxy-;3,4-Dihydroxy-5-methoxybenzaldehyde;5-Hydroxyvanillin;4,5-Dihydroxy-3-methoxybenzaldehyde;NSC 16679;3-Methoxy-4,5-dihydroxybenzaldehyde",
    "duplicated_cas_no": "",
    "SMILES": "O(C)C1=C(O)C(O)=CC(C=O)=C1",
    "meta_data": {
        "InChI": "InChI=1S/C8H8O4/c1-12-7-3-5(4-9)2-6(10)8(7)11/h2-4,10-11H,1H3",
        "InChIKey": null,
        "Canonical SMILES": "O=CC1=CC(O)=C(O)C(OC)=C1",
        "Molecular Formula": "C<sub>8</sub>H<sub>8</sub>O<sub>4</sub>",
        "Molecular Mass": "168.15",
        "Melting Point": "129-131 °C"
    }
}