{
    "cas_no": "104-81-4",
    "key_name": "4-Methylbenzyl bromide",
    "cn_name": "4-甲基溴苄;对甲基溴化苄;",
    "alternate_name": "Benzene, 1-(bromomethyl)-4-methyl-;<em>p</em>-Xylene, α-bromo-;1-(Bromomethyl)-4-methylbenzene;α-Bromo-<em>p</em>-xylene;<em>p</em>-Methylbenzyl bromide;<em>p</em>-Xylyl bromide;<em>p</em>-Xylyl α-bromide;α-Bromo-<em>p</em>-xylol;4-Methylbenzyl bromide;<em>p</em>-(Bromomethyl)toluene;4-(Bromomethyl)toluene;NSC 8050;1-(Bromomethy)-4-methylbenzene",
    "duplicated_cas_no": "",
    "SMILES": "C(Br)C1=CC=C(C)C=C1",
    "meta_data": {
        "InChI": "InChI=1S/C8H9Br/c1-7-2-4-8(6-9)5-3-7/h2-5H,6H2,1H3",
        "InChIKey": null,
        "Canonical SMILES": "BrCC1=CC=C(C=C1)C",
        "Molecular Formula": "C<sub>8</sub>H<sub>9</sub>Br",
        "Molecular Mass": "185.06",
        "Boiling Point": "218-220 °C @ Press: 740 Torr",
        "Melting Point": "38 °C",
        "Density": "1.324 g/cm³"
    }
}