{
    "cas_no": "75-04-7",
    "key_name": "Ethylamine",
    "cn_name": "乙胺;一乙胺;一乙基胺;乙胺醇溶液;",
    "alternate_name": "Ethanamine;Ethylamine;Aminoethane;Monoethylamine;<em>n</em>-Ethylamine;1-Aminoethane;R 631",
    "duplicated_cas_no": "43031-21-6;85404-22-4;85404-16-6",
    "SMILES": "C(C)N",
    "meta_data": {
        "InChI": "InChI=1S/C2H7N/c1-2-3/h2-3H2,1H3",
        "InChIKey": null,
        "Canonical SMILES": "NCC",
        "Molecular Formula": "C<sub>2</sub>H<sub>7</sub>N",
        "Molecular Mass": "45.08",
        "Boiling Point": "16.6 °C",
        "Melting Point": "-81 °C",
        "Density": "0.689 g/cm³ @ Temp: 15 °C"
    }
}