{
    "cas_no": "20734-76-3",
    "key_name": "2-Amino-4-methoxyphenol",
    "cn_name": "2-氨基-4-甲氧基苯酚;",
    "alternate_name": "Phenol, 2-amino-4-methoxy-;2-Amino-4-methoxyphenol;1-Amino-2-hydroxy-5-methoxybenzene;4-Methoxy-2-aminophenol;2-Hydroxy-5-methoxyaniline",
    "duplicated_cas_no": "",
    "SMILES": "O(C)C1=CC(N)=C(O)C=C1",
    "meta_data": {
        "InChI": "InChI=1S/C7H9NO2/c1-10-5-2-3-7(9)6(8)4-5/h2-4,9H,8H2,1H3",
        "InChIKey": null,
        "Canonical SMILES": "OC1=CC=C(OC)C=C1N",
        "Molecular Formula": "C<sub>7</sub>H<sub>9</sub>NO<sub>2</sub>",
        "Molecular Mass": "139.15",
        "Melting Point": "124 °C"
    }
}