{
    "cas_no": "1721-26-2",
    "key_name": "Ethyl 2-methyl-3-pyridinecarboxylate",
    "cn_name": "2-甲基烟酸乙酯;",
    "alternate_name": "3-Pyridinecarboxylic acid, 2-methyl-, ethyl ester;Nicotinic acid, 2-methyl-, ethyl ester;Ethyl 2-methyl-3-pyridinecarboxylate;Ethyl 2-methylnicotinate;2-Methylnicotinic acid ethyl ester;NSC 521051;2-Methylpyridine-3-carboxylic acid ethyl ester",
    "duplicated_cas_no": "",
    "SMILES": "C(OCC)(=O)C1=C(C)N=CC=C1",
    "meta_data": {
        "InChI": "InChI=1S/C9H11NO2/c1-3-12-9(11)8-5-4-6-10-7(8)2/h4-6H,3H2,1-2H3",
        "InChIKey": null,
        "Canonical SMILES": "O=C(OCC)C1=CC=CN=C1C",
        "Molecular Formula": "C<sub>9</sub>H<sub>11</sub>NO<sub>2</sub>",
        "Molecular Mass": "165.19",
        "Boiling Point": "126-127 °C @ Press: 24 Torr",
        "Melting Point": "146-147 °C"
    }
}