{
    "cas_no": "40957-83-3",
    "key_name": "Glycitein",
    "cn_name": "黄豆黄素;4\",7-二羟基-6-甲氧基异黄酮;",
    "alternate_name": "4<em>H</em>-1-Benzopyran-4-one, 7-hydroxy-3-(4-hydroxyphenyl)-6-methoxy-;7-Hydroxy-3-(4-hydroxyphenyl)-6-methoxy-4<em>H</em>-1-benzopyran-4-one;Glycitein;Glycetein;7,4′-Dihydroxy-6-methoxyisoflavone;Glycitin aglycon",
    "duplicated_cas_no": "",
    "SMILES": "O=C1C=2C(=CC(O)=C(OC)C2)OC=C1C3=CC=C(O)C=C3",
    "meta_data": {
        "InChI": "InChI=1S/C16H12O5/c1-20-15-6-11-14(7-13(15)18)21-8-12(16(11)19)9-2-4-10(17)5-3-9/h2-8,17-18H,1H3",
        "InChIKey": null,
        "Canonical SMILES": "O=C1C(=COC2=CC(O)=C(OC)C=C12)C=3C=CC(O)=CC3",
        "Molecular Formula": "C<sub>16</sub>H<sub>12</sub>O<sub>5</sub>",
        "Molecular Mass": "284.26",
        "Melting Point": "178-180 °C"
    }
}