{
    "cas_no": "616-29-5",
    "key_name": "1,3-Diamino-2-propanol",
    "cn_name": "1,3-二氨基-2-羟基丙烷;1,3-二氨基-2-丙醇;",
    "alternate_name": "2-Propanol, 1,3-diamino-;1,3-Diamino-2-propanol;2-Hydroxy-1,3-diaminopropane;1,3-Diamino-2-hydroxypropane;2-Hydroxy-1,3-propanediamine;2-Hydroxypropylenediamine;NSC 6070;1,3-Diaminopropan-2-ol;(3-Amino-2-hydroxypropyl)amine;Dapol",
    "duplicated_cas_no": "13552-30-2;64826-96-6;98923-22-9;120687-58-3",
    "SMILES": "C(CN)(CN)O",
    "meta_data": {
        "InChI": "InChI=1S/C3H10N2O/c4-1-3(6)2-5/h3,6H,1-2,4-5H2",
        "InChIKey": null,
        "Canonical SMILES": "OC(CN)CN",
        "Molecular Formula": "C<sub>3</sub>H<sub>10</sub>N<sub>2</sub>O",
        "Molecular Mass": "90.12",
        "Boiling Point": "93-95 °C @ Press: 3 Torr",
        "Melting Point": "&gt;150 °C"
    }
}