{
    "cas_no": "7492-88-8",
    "key_name": "3-Piperidinecarbonitrile",
    "cn_name": null,
    "alternate_name": "3-Piperidinecarbonitrile;Nipecotonitrile;3-Cyanopiperidine",
    "duplicated_cas_no": "",
    "SMILES": "C(#N)C1CCCNC1",
    "meta_data": {
        "InChI": "InChI=1S/C6H10N2/c7-4-6-2-1-3-8-5-6/h6,8H,1-3,5H2",
        "InChIKey": null,
        "Canonical SMILES": "N#CC1CNCCC1",
        "Molecular Formula": "C<sub>6</sub>H<sub>10</sub>N<sub>2</sub>",
        "Molecular Mass": "110.16",
        "Boiling Point": "107.5 °C @ Press: 12 Torr"
    }
}