{
    "cas_no": "32511-34-5",
    "key_name": "(+)-Bornylamine",
    "cn_name": "(R)-(+)-莰胺; (R)-(+)-降冰片胺;",
    "alternate_name": "Bicyclo[2.2.1]heptan-2-amine, 1,7,7-trimethyl-, (1<em>R</em>,2<em>S</em>,4<em>R</em>)-;2-Bornanamine, <em>endo</em>-(+)-;Bicyclo[2.2.1]heptan-2-amine, 1,7,7-trimethyl-, (1<em>R</em>-<em>endo</em>)-;(1<em>R</em>,2<em>S</em>,4<em>R</em>)-1,7,7-Trimethylbicyclo[2.2.1]heptan-2-amine;<span class=\"text-smallcaps\">D</span>-Bornylamine;(+)-Bornylamine;(1<em>R</em>-<em>endo</em>)-Bornylamine;(1<em>R</em>,2<em>S</em>,4<em>R</em>)-Bornylamine;(<em>R</em>)-(+)-Bornylamine;(1<em>S</em>,2<em>S</em>,4<em>R</em>)-1,7,7-Trimethylbicyclo[2.2.1]heptan-2-amine",
    "duplicated_cas_no": "1033751-39-1",
    "SMILES": "C[C@@]12C(C)(C)[C@@](C[C@@H]1N)(CC2)[H]",
    "meta_data": {
        "InChI": "InChI=1S/C10H19N/c1-9(2)7-4-5-10(9,3)8(11)6-7/h7-8H,4-6,11H2,1-3H3/t7-,8+,10+/m1/s1",
        "InChIKey": null,
        "Canonical SMILES": "NC1CC2CCC1(C)C2(C)C",
        "Molecular Formula": "C<sub>10</sub>H<sub>19</sub>N",
        "Molecular Mass": "153.26",
        "Melting Point": "159 °C"
    }
}