{
    "cas_no": "573-03-5",
    "key_name": "4-Fluoro-1-naphthoic acid",
    "cn_name": "4-氟-1-萘甲酸;",
    "alternate_name": "1-Naphthalenecarboxylic acid, 4-fluoro-;1-Naphthoic acid, 4-fluoro-;4-Fluoro-1-naphthalenecarboxylic acid;4-Fluoro-1-naphthoic acid;NSC 10831",
    "duplicated_cas_no": "",
    "SMILES": "C(O)(=O)C=1C2=C(C(F)=CC1)C=CC=C2",
    "meta_data": {
        "InChI": "InChI=1S/C11H7FO2/c12-10-6-5-9(11(13)14)7-3-1-2-4-8(7)10/h1-6H,(H,13,14)",
        "InChIKey": null,
        "Canonical SMILES": "O=C(O)C1=CC=C(F)C=2C=CC=CC12",
        "Molecular Formula": "C<sub>11</sub>H<sub>7</sub>FO<sub>2</sub>",
        "Molecular Mass": "190.17",
        "Melting Point": "224.5-225 °C"
    }
}