{
    "cas_no": "627-50-9",
    "key_name": "Ethyl vinyl sulfide",
    "cn_name": "乙基乙烯硫醚;乙硫基乙烯;",
    "alternate_name": "Ethene, (ethylthio)-;Sulfide, ethyl vinyl;Ethyl vinyl sulfide;Vinyl ethyl sulfide;(Ethylthio)ethene;NSC 90866;Ethylsulfanylethene;Ethyl vinyl thioether",
    "duplicated_cas_no": "",
    "SMILES": "S(CC)C=C",
    "meta_data": {
        "InChI": "InChI=1S/C4H8S/c1-3-5-4-2/h3H,1,4H2,2H3",
        "InChIKey": null,
        "Canonical SMILES": "S(C=C)CC",
        "Molecular Formula": "C<sub>4</sub>H<sub>8</sub>S",
        "Molecular Mass": "88.17",
        "Boiling Point": "91.5-92.0 °C",
        "Density": "0.8691 g/cm³ @ Temp: 25 °C"
    }
}