{
    "cas_no": "57817-55-7",
    "key_name": "6-Bromohexanamide",
    "cn_name": "6-溴己烷酰胺;",
    "alternate_name": "Hexanamide, 6-bromo-;6-Bromohexanamide;6-Bromocaproamide;NSC 277296;6-Bromohexamide",
    "duplicated_cas_no": "",
    "SMILES": "C(CC(N)=O)CCCBr",
    "meta_data": {
        "InChI": "InChI=1S/C6H12BrNO/c7-5-3-1-2-4-6(8)9/h1-5H2,(H2,8,9)",
        "InChIKey": null,
        "Canonical SMILES": "O=C(N)CCCCCBr",
        "Molecular Formula": "C<sub>6</sub>H<sub>12</sub>BrNO",
        "Molecular Mass": "194.07",
        "Melting Point": "92-93 °C"
    }
}