{
    "cas_no": "5947-49-9",
    "key_name": "(1<em>S</em>,4a<em>S</em>,10a<em>R</em>)-1,2,3,4,4a,9,10,10a-Octahydro-6-hydroxy-1,4a-dimethyl-1-phenanthrenecarboxylic acid",
    "cn_name": "罗汉松酸;",
    "alternate_name": "1-Phenanthrenecarboxylic acid, 1,2,3,4,4a,9,10,10a-octahydro-6-hydroxy-1,4a-dimethyl-, (1<em>S</em>,4a<em>S</em>,10a<em>R</em>)-;Podocarpa-8,11,13-trien-16-oic acid, 12-hydroxy-;1-Phenanthrenecarboxylic acid, 1,2,3,4,4a,9,10,10a-octahydro-6-hydroxy-1,4a-dimethyl-, [1<em>S</em>-(1α,4aα,10aβ)]-;(1<em>S</em>,4a<em>S</em>,10a<em>R</em>)-1,2,3,4,4a,9,10,10a-Octahydro-6-hydroxy-1,4a-dimethyl-1-phenanthrenecarboxylic acid;Podocarpic acid (resin acid);(1<em>S</em>)-1,2,3,4,4a,9,10,10a-Octahydro-6-hydroxy-1,4a-dimethyl-1-phenanthrenecarboxylic acid;(+)-Podocarpic acid;Podocarpic acid;NSC 231784",
    "duplicated_cas_no": "",
    "SMILES": "C[C@@]12[C@]([C@](C(O)=O)(C)CCC1)(CCC=3C2=CC(O)=CC3)[H]",
    "meta_data": {
        "InChI": "InChI=1S/C17H22O3/c1-16-8-3-9-17(2,15(19)20)14(16)7-5-11-4-6-12(18)10-13(11)16/h4,6,10,14,18H,3,5,7-9H2,1-2H3,(H,19,20)/t14-,16-,17+/m1/s1",
        "InChIKey": null,
        "Canonical SMILES": "O=C(O)C1(C)CCCC2(C3=CC(O)=CC=C3CCC12)C",
        "Molecular Formula": "C<sub>17</sub>H<sub>22</sub>O<sub>3</sub>",
        "Molecular Mass": "274.35",
        "Melting Point": "193.5 °C"
    }
}