{
    "cas_no": "24994-04-5",
    "key_name": "5-(4-Methylphenyl)-2<em>H</em>-tetrazole",
    "cn_name": null,
    "alternate_name": "2<em>H</em>-Tetrazole, 5-(4-methylphenyl)-;1<em>H</em>-Tetrazole, 5-<em>p</em>-tolyl-;1<em>H</em>-Tetrazole, 5-(4-methylphenyl)-;5-(4-Methylphenyl)-2<em>H</em>-tetrazole;5-<em>p</em>-Tolyltetrazole;5-(<em>p</em>-Methylphenyl)tetrazole;<em>p</em>-(Tetrazol-5-yl)toluene;5-(4-Methylphenyl)-1<em>H</em>-tetrazole;5-(4-Tolyl)-1<em>H</em>-tetrazole;NSC 141938;5-(4-Methylphenyl)tetrazole;5-(4-Methylphenyl)-1,2,3,4-tetrazole;5-<em>p</em>-Tolyl-1<em>H</em>-tetrazole;5-(4′-Methylphenyl)-1<em>H</em>-tetrazole;5-(<em>p</em>-Tolyl)-2<em>H</em>-tetrazole",
    "duplicated_cas_no": "",
    "SMILES": "CC1=CC=C(C=C1)C=2NN=NN2",
    "meta_data": {
        "InChI": "InChI=1S/C8H8N4/c1-6-2-4-7(5-3-6)8-9-11-12-10-8/h2-5H,1H3,(H,9,10,11,12)",
        "InChIKey": null,
        "Canonical SMILES": "N1=NNC(=N1)C=2C=CC(=CC2)C",
        "Molecular Formula": "C<sub>8</sub>H<sub>8</sub>N<sub>4</sub>",
        "Molecular Mass": "160.18",
        "Boiling Point": "40-60 °C",
        "Melting Point": "248 °C"
    }
}