{
    "cas_no": "78613-35-1",
    "key_name": "Amorolfine",
    "cn_name": "阿莫洛芬;4-{3-[对-(1,1-二甲丙基苯)]-2-甲基丙基}-2,6-顺-二甲吗啉;",
    "alternate_name": "Morpholine, 4-[3-[4-(1,1-dimethylpropyl)phenyl]-2-methylpropyl]-2,6-dimethyl-, (2<em>R</em>,6<em>S</em>)-<em>rel</em>-;Morpholine, 4-[3-[4-(1,1-dimethylpropyl)phenyl]-2-methylpropyl]-2,6-dimethyl-, <em>cis</em>-;<em>rel</em>-(2<em>R</em>,6<em>S</em>)-4-[3-[4-(1,1-Dimethylpropyl)phenyl]-2-methylpropyl]-2,6-dimethylmorpholine;Amorolfine;Loceryl;Ro 14-4767/000;Ro 14-4767",
    "duplicated_cas_no": "288583-02-8",
    "SMILES": "C(C(CN1C[C@H](C)O[C@H](C)C1)C)C2=CC=C(C(CC)(C)C)C=C2",
    "meta_data": {
        "InChI": "InChI=1/C21H35NO/c1-7-21(5,6)20-10-8-19(9-11-20)12-16(2)13-22-14-17(3)23-18(4)15-22/h8-11,16-18H,7,12-15H2,1-6H3/t16?,17-,18+",
        "InChIKey": null,
        "Canonical SMILES": "O1C(C)CN(CC1C)CC(C)CC2=CC=C(C=C2)C(C)(C)CC",
        "Molecular Formula": "C<sub>21</sub>H<sub>35</sub>NO",
        "Molecular Mass": "317.51",
        "Boiling Point": "134 °C @ Press: 0.036 Torr"
    }
}