{
    "cas_no": "86-16-8",
    "key_name": "4-(2,5-Diethoxy-4-nitrophenyl)morpholine",
    "cn_name": "4-(2,5-二乙氧基-4-硝基苯基)吗啉;",
    "alternate_name": "Morpholine, 4-(2,5-diethoxy-4-nitrophenyl)-;4-(2,5-Diethoxy-4-nitrophenyl)morpholine",
    "duplicated_cas_no": "",
    "SMILES": "O(CC)C1=C(C=C(OCC)C(N(=O)=O)=C1)N2CCOCC2",
    "meta_data": {
        "InChI": "InChI=1S/C14H20N2O5/c1-3-20-13-10-12(16(17)18)14(21-4-2)9-11(13)15-5-7-19-8-6-15/h9-10H,3-8H2,1-2H3",
        "InChIKey": null,
        "Canonical SMILES": "O=N(=O)C1=CC(OCC)=C(C=C1OCC)N2CCOCC2",
        "Molecular Formula": "C<sub>14</sub>H<sub>20</sub>N<sub>2</sub>O<sub>5</sub>",
        "Molecular Mass": "296.32",
        "Melting Point": "139-139.5 °C"
    }
}