{
    "cas_no": "36355-01-8",
    "key_name": "Hexabromodiphenyl",
    "cn_name": null,
    "alternate_name": "1,1′-Biphenyl, hexabromo-;Hexabromo-1,1′-biphenyl;Hexabromobiphenyl;Hexabromodiphenyl;RBF 075",
    "duplicated_cas_no": "",
    "SMILES": "",
    "meta_data": {
        "InChI": "",
        "InChIKey": null,
        "Canonical SMILES": "",
        "Molecular Formula": "C<sub>12</sub>H<sub>4</sub>Br<sub>6</sub>",
        "Molecular Mass": "",
        "Melting Point": "72 °C"
    }
}