{
    "cas_no": "31570-04-4",
    "key_name": "Tris(2,4-di-<em>tert</em>-butylphenyl) phosphite",
    "cn_name": "三(2,4-二叔丁基)亚磷酸苯酯;亚磷酸三(2,4-二叔丁基苯基)酯;抗氧剂168;",
    "alternate_name": "Phenol, 2,4-bis(1,1-dimethylethyl)-, 1,1′,1′′-phosphite;Phenol, 2,4-di-<em>tert</em>-butyl-, phosphite (3:1);Phenol, 2,4-bis(1,1-dimethylethyl)-, phosphite (3:1);Hostanox TM-PAR 24;Irgafos 168;Irganox 168;Phosphite 168;Hostanox VP-PAR 24;Mark 2112;Alkanox 240;Naugard 524;Sumilizer P 16;Tris(2,4-di-<em>tert</em>-butylphenyl) phosphite;Mark 2112E;Phos 6;AO 2;PKY 168;ADK Stab 2112;B 311;Tomiphos 202;Doverphos S 480;P 16;PL 10;PL 10 (stabilizer);Ultranox 668;Cyanox 2704;A 2112;P 48;P 48 (stabilizer);JP 650;RA 168;RA 168 (antioxidant);Chinox 168;Hostanox PAR 24;ADK 2112;Antioxidant 168;Tris(2,4-<em>tert</em>-butylphenyl) phosphite;ADK Stab 2112RG;AS 2112;Irgafos F;2,4-Bis(1,1-dimethylethyl)phenol phosphite (3:1);Tris(2,4-di-<em>tert</em>-butylphenoxy)phosphine;Irgafos 168FF;Songnox 1200;AT 168;Songnox 1680;ADK Stab AS 2112;Tri(2,4-di-<em>t</em>-butylphenyl) phosphite;B 168;AO 200;Pronox S;Everfos 168;KY 168;PW 225;JY 168;Alkanox P 240;Tri(2,4-<em>tert</em>-butylphenyl) phosphite;Tris(2,4-di-tert-butylphenyl) phosphite;Antioxidant 2112;Tri(2,4-di-<em>tert</em>-butylphenyl) phosphite;Richfos 168;Antioxidant 1680;Sonox 168;Thanox 168;IRG 168;Irgafos P 168;Finox 168;Tris(2,4-di-<em>tert</em>-butyphenyl) phosphite;Chemnox 168;Songnox 1680PX;Quent 68;AO 168;SN 1680;ZY 168;SN 168;D 168;Tris [2,4-<em>di</em>-<em>tert</em>-butylphenyl] phosphite;Heat Stabilizer 168;Antioxidant 240;Tris(2,4-di-<em>t</em>-butylphenyl)phosphite;IG 168;Irgafox 168;TH 168;IR 168;Rianox 168;Kinox 68G;Antioxidant 176;Antioxidant TBP;I 168;PS 68 (stabilizer);PS 68;Sabostab PS 68;ADK Stab AO 2112;Everfos 168GF;A 0168;Sonox 168T;Jyanox 168;Irganox P 168;AO 2112;Evernox 168GF;IF 168;Adeka Stab 2112;Omnistab AN 168;Westco AO 168",
    "duplicated_cas_no": "69344-92-9;104381-89-7;129038-69-3;219315-40-9;245439-51-4;478284-78-5;754233-11-9;874911-33-8;1819341-92-8",
    "SMILES": "C(C)(C)(C)C1=C(OP(OC2=C(C(C)(C)C)C=C(C(C)(C)C)C=C2)OC3=C(C(C)(C)C)C=C(C(C)(C)C)C=C3)C=CC(C(C)(C)C)=C1",
    "meta_data": {
        "InChI": "InChI=1S/C42H63O3P/c1-37(2,3)28-19-22-34(31(25-28)40(10,11)12)43-46(44-35-23-20-29(38(4,5)6)26-32(35)41(13,14)15)45-36-24-21-30(39(7,8)9)27-33(36)42(16,17)18/h19-27H,1-18H3",
        "InChIKey": null,
        "Canonical SMILES": "O(C1=CC=C(C=C1C(C)(C)C)C(C)(C)C)P(OC2=CC=C(C=C2C(C)(C)C)C(C)(C)C)OC3=CC=C(C=C3C(C)(C)C)C(C)(C)C",
        "Molecular Formula": "C<sub>42</sub>H<sub>63</sub>O<sub>3</sub>P",
        "Molecular Mass": "646.92",
        "Melting Point": "182-186 °C"
    }
}