{
    "cas_no": "3083-10-1",
    "key_name": "Hexamethyltriethylenetetramine",
    "cn_name": "1,1,4,7,10,10-六甲基三乙烯四胺;1,1,4,7,10,10-六甲基三亚乙基四胺;",
    "alternate_name": "1,2-Ethanediamine, <em>N</em><sup>1</sup>,<em>N</em><sup>2</sup>-bis[2-(dimethylamino)ethyl]-<em>N</em><sup>1</sup>,<em>N</em><sup>2</sup>-dimethyl-;Triethylenetetramine, 1,1,4,7,10,10-hexamethyl-;1,2-Ethanediamine, <em>N</em>,<em>N</em>′-bis[2-(dimethylamino)ethyl]-<em>N</em>,<em>N</em>′-dimethyl-;<em>N</em><sup>1</sup>,<em>N</em><sup>2</sup>-Bis[2-(dimethylamino)ethyl]-<em>N</em><sup>1</sup>,<em>N</em><sup>2</sup>-dimethyl-1,2-ethanediamine;Hexamethyltriethylenetetramine;<em>N</em>,<em>N</em>,<em>N</em>′,<em>N</em>′′,<em>N</em>′′′,<em>N</em>′′′-Hexamethyltriethylenetetramine;1,1,4,7,10,10-Hexamethyltriethylenetetramine;2,5,8,11-Tetramethyl-2,5,8,11-tetraazadodecane;<em>N</em>,<em>N</em>,<em>N</em>′,<em>N</em>′-Tetramethyl-3,6-dimethyl-3,6-diazaoctane-1,8-diamine;1,2-Bis((2-(dimethylamino)ethyl)(methyl)amino)ethane;<em>N</em>,<em>N</em>′-Bis[2-(dimethylamino)ethyl]-<em>N</em>,<em>N</em>′-dimethylethane-1,2-diamine;NSC 166488;HMTETA;Hexamethylenetriethylenetetramine;DryPlus;C 3070",
    "duplicated_cas_no": "",
    "SMILES": "N(CCN(CCN(C)C)C)(CCN(C)C)C",
    "meta_data": {
        "InChI": "InChI=1S/C12H30N4/c1-13(2)7-9-15(5)11-12-16(6)10-8-14(3)4/h7-12H2,1-6H3",
        "InChIKey": null,
        "Canonical SMILES": "N(C)(C)CCN(C)CCN(C)CCN(C)C",
        "Molecular Formula": "C<sub>12</sub>H<sub>30</sub>N<sub>4</sub>",
        "Molecular Mass": "230.39",
        "Boiling Point": "130 °C @ Press: 11 Torr",
        "Melting Point": "162 °C"
    }
}