{
    "cas_no": "55335-06-3",
    "key_name": "Triclopyr",
    "cn_name": "绿草定;[(3,5,6-三氯-2-吡啶)氧基]乙酸;3,5,6-三氯-2-吡啶氧乙酸;",
    "alternate_name": "Acetic acid, 2-[(3,5,6-trichloro-2-pyridinyl)oxy]-;Acetic acid, [(3,5,6-trichloro-2-pyridinyl)oxy]-;Acetic acid, [(3,5,6-trichloro-2-pyridyl)oxy]-;2-[(3,5,6-Trichloro-2-pyridinyl)oxy]acetic acid;3,5,6-Trichloro-2-pyridyloxyacetic acid;Dowco 233;Triclopyr;3,5,6-Trichloro-2-pyridinyloxyacetic acid;Garlon;Garlon 250;Garlon 2;Redeem;Release;3,5,6-TPA;NSC 190671;Remedy;Maxim (auxin);Maxim;2-[(3,5,6-Trichloropyridinyl)oxy]acetic acid;3,5,6-Trichloro-2-pyridinyloxyethanoic acid;Grandstsnd",
    "duplicated_cas_no": "69653-72-1",
    "SMILES": "O(CC(O)=O)C1=C(Cl)C=C(Cl)C(Cl)=N1",
    "meta_data": {
        "InChI": "InChI=1S/C7H4Cl3NO3/c8-3-1-4(9)7(11-6(3)10)14-2-5(12)13/h1H,2H2,(H,12,13)",
        "InChIKey": null,
        "Canonical SMILES": "O=C(O)COC1=NC(Cl)=C(Cl)C=C1Cl",
        "Molecular Formula": "C<sub>7</sub>H<sub>4</sub>Cl<sub>3</sub>NO<sub>3</sub>",
        "Molecular Mass": "256.47",
        "Melting Point": "150.5 °C",
        "Density": "1.85 g/cm³"
    }
}