{
    "cas_no": "369-07-3",
    "key_name": "<em>o</em>-Nitrophenyl β-<span class=\"text-smallcaps\">D</span>-galactopyranoside",
    "cn_name": "2-硝基苯-beta-D-半乳糖苷;",
    "alternate_name": "β-<span class=\"text-smallcaps\">D</span>-Galactopyranoside, 2-nitrophenyl;Galactopyranoside, <em>o</em>-nitrophenyl, β-<span class=\"text-smallcaps\">D</span>-;2-Nitrophenyl β-<span class=\"text-smallcaps\">D</span>-galactopyranoside;<em>o</em>-Nitrophenyl β-<span class=\"text-smallcaps\">D</span>-galactopyranoside;<em>o</em>-Nitrophenyl β-galactoside;<em>o</em>-Nitrophenyl β-<span class=\"text-smallcaps\">D</span>-galactoside;<em>o</em>-Nitrophenyl-β-galactopyranoside;<em>o</em>-Nitrophenol β-<span class=\"text-smallcaps\">D</span>-galactopyranoside;ONPG;NSC 83631;<em>o</em>-NPG;2-Nitrophenyl β-<span class=\"text-smallcaps\">D</span>-galactoside",
    "duplicated_cas_no": "",
    "SMILES": "O([C@@H]1O[C@H](CO)[C@H](O)[C@H](O)[C@H]1O)C2=C(N(=O)=O)C=CC=C2",
    "meta_data": {
        "InChI": "InChI=1S/C12H15NO8/c14-5-8-9(15)10(16)11(17)12(21-8)20-7-4-2-1-3-6(7)13(18)19/h1-4,8-12,14-17H,5H2/t8-,9+,10+,11-,12-/m1/s1",
        "InChIKey": null,
        "Canonical SMILES": "O=N(=O)C=1C=CC=CC1OC2OC(CO)C(O)C(O)C2O",
        "Molecular Formula": "C<sub>12</sub>H<sub>15</sub>NO<sub>8</sub>",
        "Molecular Mass": "301.25",
        "Melting Point": "193-194 °C",
        "Density": "1.1-1.3 g/cm³"
    }
}