{
    "cas_no": "7262-80-8",
    "key_name": "2-Naphthyl myristate",
    "cn_name": "十四碳酸-2-萘酯;",
    "alternate_name": "Tetradecanoic acid, 2-naphthalenyl ester;Myristic acid, 2-naphthyl ester;β-Naphthyl myristate;2-Naphthalenyl tetradecanoate;NSC 122046;2-Naphthyl myristate",
    "duplicated_cas_no": "",
    "SMILES": "O(C(CCCCCCCCCCCCC)=O)C1=CC2=C(C=C1)C=CC=C2",
    "meta_data": {
        "InChI": "InChI=1S/C24H34O2/c1-2-3-4-5-6-7-8-9-10-11-12-17-24(25)26-23-19-18-21-15-13-14-16-22(21)20-23/h13-16,18-20H,2-12,17H2,1H3",
        "InChIKey": null,
        "Canonical SMILES": "O=C(OC=1C=CC=2C=CC=CC2C1)CCCCCCCCCCCCC",
        "Molecular Formula": "C<sub>24</sub>H<sub>34</sub>O<sub>2</sub>",
        "Molecular Mass": "354.53",
        "Melting Point": "64-65 °C"
    }
}