{
    "cas_no": "871826-15-2",
    "key_name": "6-Chloro-3-pyridazinemethanamine",
    "cn_name": null,
    "alternate_name": "3-Pyridazinemethanamine, 6-chloro-;6-Chloro-3-pyridazinemethanamine;(6-Chloropyridazin-3-yl)methanamine",
    "duplicated_cas_no": "",
    "SMILES": "C(N)C1=CC=C(Cl)N=N1",
    "meta_data": {
        "InChI": "InChI=1S/C5H6ClN3/c6-5-2-1-4(3-7)8-9-5/h1-2H,3,7H2",
        "InChIKey": null,
        "Canonical SMILES": "ClC1=NN=C(C=C1)CN",
        "Molecular Formula": "C<sub>5</sub>H<sub>6</sub>ClN<sub>3</sub>",
        "Molecular Mass": "143.57",
        "Melting Point": "97-98 °C"
    }
}