{
    "cas_no": "2037-26-5",
    "key_name": "Toluene-<em>d</em><sub>8</sub>",
    "cn_name": "甲苯-D8;八氘甲苯;",
    "alternate_name": "Benzene-<em>1</em>,<em>2</em>,<em>3</em>,<em>4</em>,<em>5</em>-<em>d</em><sub>5</sub>, 6-(methyl-<em>d</em><sub>3</sub>)-;Benzene-<em>d</em><sub>5</sub>, methyl-<em>d</em><sub>3</sub>-;Toluene-<em>d</em><sub>8</sub>;6-(Methyl-<em>d</em><sub>3</sub>)benzene-<em>1</em>,<em>2</em>,<em>3</em>,<em>4</em>,<em>5</em>-<em>d</em><sub>5</sub>;Perdeuteriotoluene;[<sup>2</sup><em>H</em><sub>8</sub>]Toluene;1,2,3,4,5-Pentadeuterio-6-(trideuteriomethyl)benzene",
    "duplicated_cas_no": "",
    "SMILES": "C(C1=C(C(=C(C(=C1[2H])[2H])[2H])[2H])[2H])([2H])([2H])[2H]",
    "meta_data": {
        "InChI": "InChI=1S/C7H8/c1-7-5-3-2-4-6-7/h2-6H,1H3/i1D3,2D,3D,4D,5D,6D",
        "InChIKey": null,
        "Canonical SMILES": "C=1C=CC(=CC1)C",
        "Molecular Formula": "C<sub>7</sub>D<sub>8</sub>",
        "Molecular Mass": "",
        "Boiling Point": "105-120 °C"
    }
}