{
    "cas_no": "403-21-4",
    "key_name": "3-Fluoro-4-nitrobenzoic acid",
    "cn_name": "3-氟-4-硝基苯甲酸;",
    "alternate_name": "Benzoic acid, 3-fluoro-4-nitro-;3-Fluoro-4-nitrobenzoic acid;NSC 25749;4-Nitro-3-fluorobenzoic acid;3-Fluoro-4-nitrobenzenecarboxylic acid",
    "duplicated_cas_no": "",
    "SMILES": "C(O)(=O)C1=CC(F)=C(N(=O)=O)C=C1",
    "meta_data": {
        "InChI": "InChI=1S/C7H4FNO4/c8-5-3-4(7(10)11)1-2-6(5)9(12)13/h1-3H,(H,10,11)",
        "InChIKey": null,
        "Canonical SMILES": "O=C(O)C1=CC=C(C(F)=C1)N(=O)=O",
        "Molecular Formula": "C<sub>7</sub>H<sub>4</sub>FNO<sub>4</sub>",
        "Molecular Mass": "185.11",
        "Melting Point": "174-175 °C"
    }
}