{
    "cas_no": "95-25-0",
    "key_name": "Chlorzoxazone",
    "cn_name": "氯唑沙宗;5-氯-2-苯并噁唑啉酮;",
    "alternate_name": "2(3<em>H</em>)-Benzoxazolone, 5-chloro-;2-Benzoxazolinone, 5-chloro-;5-Chloro-2(3<em>H</em>)-benzoxazolone;5-Chlorobenzoxazolidone;5-Chloro-2-benzoxazolinone;Chloroxazone;Chlorzoxazone;Paraflex;Solaxin;Myoflexine;5-Chlorobenzoxazolone;5-Chloro-2-benzoxazolone;5-Chloro-2-benzoxazolol;5-Chloro-2-hydroxybenzoxazole;2-Hydroxy-5-chlorobenzoxazole;Biomioran;Mioran;Miotran;Myoflexin;Neoflex;Escoflex;Pathorysin;Parafon Forte DSC;NSC 26189;5-Chloro-2-oxo-3<em>H</em>-benzoxazole;5-Chloro-3<em>H</em>-benzoxazol-2-one;5-Chloro-1,3-benzoxazol-2(3<em>H</em>)-one;Parfon-forte;Cipzox;MeSH ID: D002753",
    "duplicated_cas_no": "32850-84-3",
    "SMILES": "O=C1OC=2C(N1)=CC(Cl)=CC2",
    "meta_data": {
        "InChI": "InChI=1S/C7H4ClNO2/c8-4-1-2-6-5(3-4)9-7(10)11-6/h1-3H,(H,9,10)",
        "InChIKey": null,
        "Canonical SMILES": "O=C1OC2=CC=C(Cl)C=C2N1",
        "Molecular Formula": "C<sub>7</sub>H<sub>4</sub>ClNO<sub>2</sub>",
        "Molecular Mass": "169.57",
        "Melting Point": "191.5 °C"
    }
}