{
    "cas_no": "6485-79-6",
    "key_name": "Triisopropylsilane",
    "cn_name": "三异丙基硅烷;",
    "alternate_name": "Silane, tris(1-methylethyl)-;Silane, triisopropyl-;Tris(1-methylethyl)silane;Triisopropylsilane;Triisopropylhydrosilane;TIS",
    "duplicated_cas_no": "",
    "SMILES": "[SiH](C(C)C)(C(C)C)C(C)C",
    "meta_data": {
        "InChI": "InChI=1S/C9H22Si/c1-7(2)10(8(3)4)9(5)6/h7-10H,1-6H3",
        "InChIKey": null,
        "Canonical SMILES": "CC(C)[SiH](C(C)C)C(C)C",
        "Molecular Formula": "C<sub>9</sub>H<sub>22</sub>Si",
        "Molecular Mass": "158.36",
        "Boiling Point": "169-170 °C",
        "Density": "0.772 g/cm³"
    }
}