{
    "cas_no": "526-73-8",
    "key_name": "1,2,3-Trimethylbenzene",
    "cn_name": "1,2,3-三甲苯;",
    "alternate_name": "Benzene, 1,2,3-trimethyl-;1,2,3-Trimethylbenzene;Hemimellitene;Hemimellitol;NSC 5167;NSC 65599",
    "duplicated_cas_no": "",
    "SMILES": "CC1=C(C)C=CC=C1C",
    "meta_data": {
        "InChI": "InChI=1S/C9H12/c1-7-5-4-6-8(2)9(7)3/h4-6H,1-3H3",
        "InChIKey": null,
        "Canonical SMILES": "C=1C=C(C(=C(C1)C)C)C",
        "Molecular Formula": "C<sub>9</sub>H<sub>12</sub>",
        "Molecular Mass": "120.19",
        "Boiling Point": "176 °C",
        "Melting Point": "-25 °C",
        "Density": "0.89 g/cm³"
    }
}