{
    "cas_no": "816-39-7",
    "key_name": "1,3-Dibromo-2-propanone",
    "cn_name": "1,3-二溴丙酮;1,3-二溴-2-丙酮;",
    "alternate_name": "2-Propanone, 1,3-dibromo-;1,3-Dibromo-2-propanone;1,3-Dibromoacetone;Bis(bromomethyl) ketone;NSC 249810",
    "duplicated_cas_no": "",
    "SMILES": "C(CBr)(CBr)=O",
    "meta_data": {
        "InChI": "InChI=1S/C3H4Br2O/c4-1-3(6)2-5/h1-2H2",
        "InChIKey": null,
        "Canonical SMILES": "O=C(CBr)CBr",
        "Molecular Formula": "C<sub>3</sub>H<sub>4</sub>Br<sub>2</sub>O",
        "Molecular Mass": "215.87",
        "Boiling Point": "97-98 °C @ Press: 21-22 Torr",
        "Melting Point": "26 °C"
    }
}