{
    "cas_no": "525-03-1",
    "key_name": "Fluoren-9-amine",
    "cn_name": "9-氨基芴;9-氨基芴;",
    "alternate_name": "9<em>H</em>-Fluoren-9-amine;Fluoren-9-amine;9-Aminofluorene;Fluoren-9-ylamine;9-Amino-9<em>H</em>-fluorene;IEM 2117",
    "duplicated_cas_no": "",
    "SMILES": "NC1C=2C(C=3C1=CC=CC3)=CC=CC2",
    "meta_data": {
        "InChI": "InChI=1S/C13H11N/c14-13-11-7-3-1-5-9(11)10-6-2-4-8-12(10)13/h1-8,13H,14H2",
        "InChIKey": null,
        "Canonical SMILES": "NC1C=2C=CC=CC2C=3C=CC=CC31",
        "Molecular Formula": "C<sub>13</sub>H<sub>11</sub>N",
        "Molecular Mass": "181.23",
        "Boiling Point": "136 °C @ Press: 2 Torr",
        "Melting Point": "64 °C"
    }
}