{
    "cas_no": "54925-64-3",
    "key_name": "1-[(1,1-Dimethylethyl)dimethylsilyl]-1<em>H</em>-imidazole",
    "cn_name": "叔丁基二甲基硅烷基咪唑;",
    "alternate_name": "1<em>H</em>-Imidazole, 1-[(1,1-dimethylethyl)dimethylsilyl]-;1-[(1,1-Dimethylethyl)dimethylsilyl]-1<em>H</em>-imidazole;<em>N</em>-(<em>tert</em>-Butyldimethylsilyl)imidazole;1-(<em>tert</em>-Butyldimethylsilyl)imidazole;<em>tert</em>-Butyldimethylsilylimidazole;1-<em>tert</em>-Butyldimethylsilyl-1<em>H</em>-imidazole",
    "duplicated_cas_no": "64898-14-2",
    "SMILES": "[Si](C(C)(C)C)(C)(C)N1C=CN=C1",
    "meta_data": {
        "InChI": "InChI=1S/C9H18N2Si/c1-9(2,3)12(4,5)11-7-6-10-8-11/h6-8H,1-5H3",
        "InChIKey": null,
        "Canonical SMILES": "N=1C=CN(C1)[Si](C)(C)C(C)(C)C",
        "Molecular Formula": "C<sub>9</sub>H<sub>18</sub>N<sub>2</sub>Si",
        "Molecular Mass": "182.34",
        "Boiling Point": "53 °C @ Press: 0.2 Torr",
        "Density": "0.939 g/cm³"
    }
}