{
    "cas_no": "18586-39-5",
    "key_name": "Diphenyl[2-(triethoxysilyl)ethyl]phosphine",
    "cn_name": null,
    "alternate_name": "Phosphine, diphenyl[2-(triethoxysilyl)ethyl]-;Diphenyl[2-(triethoxysilyl)ethyl]phosphine;[2-(Triethoxysilyl)ethyl]diphenylphosphine;β-Diphenylphosphinoethyltriethoxysilane;[2-(Diphenylphosphino)ethyl]triethoxysilane;MicroSi MS 805;SID 4558.0",
    "duplicated_cas_no": "60701-64-6;66838-72-0;82194-40-9;2055301-50-1",
    "SMILES": "P(CC[Si](OCC)(OCC)OCC)(C1=CC=CC=C1)C2=CC=CC=C2",
    "meta_data": {
        "InChI": "InChI=1S/C20H29O3PSi/c1-4-21-25(22-5-2,23-6-3)18-17-24(19-13-9-7-10-14-19)20-15-11-8-12-16-20/h7-16H,4-6,17-18H2,1-3H3",
        "InChIKey": null,
        "Canonical SMILES": "O(CC)[Si](OCC)(OCC)CCP(C=1C=CC=CC1)C=2C=CC=CC2",
        "Molecular Formula": "C<sub>20</sub>H<sub>29</sub>O<sub>3</sub>PSi",
        "Molecular Mass": "376.50",
        "Boiling Point": "182 °C @ Press: 1.3 Torr",
        "Density": "1.050 g/cm³"
    }
}