{
    "cas_no": "1929-73-3",
    "key_name": "2,4-D Butotyl",
    "cn_name": "2,4-二氯苯氧乙酸丁氧基乙基酯;2,4-D2-丁氧基乙基酯;",
    "alternate_name": "Acetic acid, 2-(2,4-dichlorophenoxy)-, 2-butoxyethyl ester;Acetic acid, (2,4-dichlorophenoxy)-, 2-butoxyethyl ester;Ethanol, 2-butoxy-, (2,4-dichlorophenoxy)acetate;Butoxyethyl (2,4-dichlorophenoxy)acetate;2,4-Dichlorophenoxyacetic acid butoxyethanol ester;Planotox;2,4-Dichlorophenoxyacetic acid butoxyethyl ester;2,4-D Butoxyethanol ester;2-Butoxyethyl 2,4-dichlorophenoxyacetate;2,4-D Butoxyethyl ester;Bladex B;2,4-D 2-Butoxyethyl ester;Weedone LV 4;Brush Killer 64;Butoxyethanol ester of 2,4-D;2,4-DBEE;Aqua-Kleen;2,4-D Butotyl;Desormone Lourd D;Desormone 600;2,4-D Butotyl ester",
    "duplicated_cas_no": "53570-87-9",
    "SMILES": "O(CC(OCCOCCCC)=O)C1=C(Cl)C=C(Cl)C=C1",
    "meta_data": {
        "InChI": "InChI=1S/C14H18Cl2O4/c1-2-3-6-18-7-8-19-14(17)10-20-13-5-4-11(15)9-12(13)16/h4-5,9H,2-3,6-8,10H2,1H3",
        "InChIKey": null,
        "Canonical SMILES": "O=C(OCCOCCCC)COC1=CC=C(Cl)C=C1Cl",
        "Molecular Formula": "C<sub>14</sub>H<sub>18</sub>Cl<sub>2</sub>O<sub>4</sub>",
        "Molecular Mass": "321.20",
        "Boiling Point": "156-162 °C @ Press: 1-1.5 Torr",
        "Density": "1.232 g/cm³ @ Temp: 20 °C"
    }
}