{
    "cas_no": "2468-21-5",
    "key_name": "(+)-Catharanthine",
    "cn_name": "长春质碱;",
    "alternate_name": "Ibogamine-18-carboxylic acid, 3,4-didehydro-, methyl ester, (2α,5β,6α,18β)-;Catharanthine;6,9-Methano-5<em>H</em>-pyrido[1′,2′:1,2]azepino[4,5-<em>b</em>]indole, ibogamine-18-carboxylic acid deriv.;(+)-Catharanthine;Catharanthine, (+)-;Catharanthin;(+)-3,4-Didehydrocoronaridine;TCM 5458190",
    "duplicated_cas_no": "47416-77-3",
    "SMILES": "C(OC)(=O)[C@@]12[C@@]3([N@@](C[C@](C1)(C=C3CC)[H])CCC4=C2NC=5C4=CC=CC5)[H]",
    "meta_data": {
        "InChI": "InChI=1S/C21H24N2O2/c1-3-14-10-13-11-21(20(24)25-2)18-16(8-9-23(12-13)19(14)21)15-6-4-5-7-17(15)22-18/h4-7,10,13,19,22H,3,8-9,11-12H2,1-2H3/t13-,19+,21-/m0/s1",
        "InChIKey": null,
        "Canonical SMILES": "O=C(OC)C12C=3NC=4C=CC=CC4C3CCN5CC(C=C(CC)C51)C2",
        "Molecular Formula": "C<sub>21</sub>H<sub>24</sub>N<sub>2</sub>O<sub>2</sub>",
        "Molecular Mass": "336.43",
        "Melting Point": "126-128 °C"
    }
}