{
    "cas_no": "2894-51-1",
    "key_name": "2-Amino-4′-chlorobenzophenone",
    "cn_name": "2-氨基-4\"-氯二苯甲酮;",
    "alternate_name": "Methanone, (2-aminophenyl)(4-chlorophenyl)-;Benzophenone, 2-amino-4′-chloro-;(2-Aminophenyl)(4-chlorophenyl)methanone;2-Amino-4′-chlorobenzophenone;2-(4-Chlorobenzoyl)aniline",
    "duplicated_cas_no": "",
    "SMILES": "C(=O)(C1=C(N)C=CC=C1)C2=CC=C(Cl)C=C2",
    "meta_data": {
        "InChI": "InChI=1S/C13H10ClNO/c14-10-7-5-9(6-8-10)13(16)11-3-1-2-4-12(11)15/h1-8H,15H2",
        "InChIKey": null,
        "Canonical SMILES": "O=C(C1=CC=C(Cl)C=C1)C=2C=CC=CC2N",
        "Molecular Formula": "C<sub>13</sub>H<sub>10</sub>ClNO",
        "Molecular Mass": "231.68",
        "Melting Point": "102 °C"
    }
}