{
    "cas_no": "24717-85-9",
    "key_name": "Citronellyl tiglate",
    "cn_name": "惕各酸香茅酯;(E)-2-甲基-2-丁烯酸-3,7-二甲基-6-辛烯酯;",
    "alternate_name": "2-Butenoic acid, 2-methyl-, 3,7-dimethyl-6-octen-1-yl ester, (2<em>E</em>)-;Crotonic acid, 2-methyl-, 3,7-dimethyl-6-octenyl ester, (<em>E</em>)-;2-Butenoic acid, 2-methyl-, 3,7-dimethyl-6-octenyl ester, (<em>E</em>)-;2-Butenoic acid, 2-methyl-, 3,7-dimethyl-6-octenyl ester, (2<em>E</em>)-;6-Octen-1-ol, 3,7-dimethyl-, 2-methylcrotonate, (<em>E</em>)-;Citronellyl tiglate;Tiglic acid citronellyl ester",
    "duplicated_cas_no": "",
    "SMILES": "O(CCC(CCC=C(C)C)C)C(/C(=C/C)/C)=O",
    "meta_data": {
        "InChI": "InChI=1/C15H26O2/c1-6-14(5)15(16)17-11-10-13(4)9-7-8-12(2)3/h6,8,13H,7,9-11H2,1-5H3/b14-6+",
        "InChIKey": null,
        "Canonical SMILES": "O=C(OCCC(C)CCC=C(C)C)C(=CC)C",
        "Molecular Formula": "C<sub>15</sub>H<sub>26</sub>O<sub>2</sub>",
        "Molecular Mass": "238.37",
        "Boiling Point": "144-145 °C @ Press: 7 Torr",
        "Density": "0.9090 g/cm³ @ Temp: 15 °C"
    }
}