{
    "cas_no": "1502-06-3",
    "key_name": "Cyclodecanone",
    "cn_name": null,
    "alternate_name": "Cyclodecanone;NSC 90293",
    "duplicated_cas_no": "",
    "SMILES": "O=C1CCCCCCCCC1",
    "meta_data": {
        "InChI": "InChI=1S/C10H18O/c11-10-8-6-4-2-1-3-5-7-9-10/h1-9H2",
        "InChIKey": null,
        "Canonical SMILES": "O=C1CCCCCCCCC1",
        "Molecular Formula": "C<sub>10</sub>H<sub>18</sub>O",
        "Molecular Mass": "154.25",
        "Boiling Point": "100-102 °C @ Press: 12 Torr",
        "Melting Point": "28 °C"
    }
}