{
    "cas_no": "106-37-6",
    "key_name": "1,4-Dibromobenzene",
    "cn_name": "1,4-二溴苯;对二溴苯;",
    "alternate_name": "Benzene, 1,4-dibromo-;Benzene, <em>p</em>-dibromo-;1,4-Dibromobenzene;<em>p</em>-Dibromobenzene;<em>p</em>-Bromophenyl bromide;<em>para</em>-Dibromobenzene;<em>p</em>-Phenylene dibromide;NSC 33942;1-Bromo-4-bromobenzene",
    "duplicated_cas_no": "",
    "SMILES": "BrC1=CC=C(Br)C=C1",
    "meta_data": {
        "InChI": "InChI=1S/C6H4Br2/c7-5-1-2-6(8)4-3-5/h1-4H",
        "InChIKey": null,
        "Canonical SMILES": "BrC1=CC=C(Br)C=C1",
        "Molecular Formula": "C<sub>6</sub>H<sub>4</sub>Br<sub>2</sub>",
        "Molecular Mass": "235.90",
        "Boiling Point": "220.40 °C",
        "Melting Point": "87.3 °C",
        "Density": "0.9641 g/cm³ @ Temp: 99.6 °C"
    }
}