{
    "cas_no": "17924-92-4",
    "key_name": "Zearalenone",
    "cn_name": "玉米烯酮;玉米赤霉烯酮;",
    "alternate_name": "1<em>H</em>-2-Benzoxacyclotetradecin-1,7(8<em>H</em>)-dione, 3,4,5,6,9,10-hexahydro-14,16-dihydroxy-3-methyl-, (3<em>S</em>,11<em>E</em>)-;1<em>H</em>-2-Benzoxacyclotetradecin-1,7(8<em>H</em>)-dione, 3,4,5,6,9,10-hexahydro-14,16-dihydroxy-3-methyl-, (<em>S</em>)-(-)-;Zearalenone;1<em>H</em>-2-Benzoxacyclotetradecin-1,7(8<em>H</em>)-dione, 3,4,5,6,9,10-hexahydro-14,16-dihydroxy-3-methyl-, [<em>S</em>-(<em>E</em>)]-;(3<em>S</em>,11<em>E</em>)-3,4,5,6,9,10-Hexahydro-14,16-dihydroxy-3-methyl-1<em>H</em>-2-benzoxacyclotetradecin-1,7(8<em>H</em>)-dione;(-)-Zearalenone;<em>trans</em>-Zearalenone;Mycotoxin F 2;6-(10-Hydroxy-6-oxo-<em>trans</em>-1-undecenyl)-β-resorcylic acid lactone;(<em>S</em>)-Zearalenone;Toxin F<sub>2</sub>;(10<em>S</em>)-Zearalenone;Zenone;(<em>S</em>)-(-)-Zearalenone;MeSH ID: D015025",
    "duplicated_cas_no": "18695-28-8",
    "SMILES": "OC1=C2C(=CC(O)=C1)/C=C/CCCC(=O)CCC[C@H](C)OC2=O",
    "meta_data": {
        "InChI": "InChI=1S/C18H22O5/c1-12-6-5-9-14(19)8-4-2-3-7-13-10-15(20)11-16(21)17(13)18(22)23-12/h3,7,10-12,20-21H,2,4-6,8-9H2,1H3/b7-3+/t12-/m0/s1",
        "InChIKey": null,
        "Canonical SMILES": "O=C1OC(C)CCCC(=O)CCCC=CC=2C=C(O)C=C(O)C12",
        "Molecular Formula": "C<sub>18</sub>H<sub>22</sub>O<sub>5</sub>",
        "Molecular Mass": "318.36",
        "Melting Point": "164.5 °C"
    }
}