{
    "cas_no": "6217-68-1",
    "key_name": "Potassium <em>p</em>-nitrophenyl sulfate",
    "cn_name": "硫酸对硝基苯钾盐一水合物;",
    "alternate_name": "Sulfuric acid, mono(4-nitrophenyl) ester, potassium salt (1:1);Phenol, <em>p</em>-nitro-, hydrogen sulfate (ester), potassium salt;Sulfuric acid, mono(4-nitrophenyl) ester, potassium salt;Phenol, <em>p</em>-nitro-, hydrogen sulfate, potassium salt;Potassium 4-nitrophenyl sulfate;Potassium <em>p</em>-nitrophenyl sulfate",
    "duplicated_cas_no": "",
    "SMILES": "O(S(=O)(=O)O)C1=CC=C(N(=O)=O)C=C1.[K]",
    "meta_data": {
        "InChI": "InChI=1S/C6H5NO6S.K/c8-7(9)5-1-3-6(4-2-5)13-14(10,11)12;/h1-4H,(H,10,11,12);",
        "InChIKey": null,
        "Canonical SMILES": "[K].O=N(=O)C1=CC=C(OS(=O)(=O)O)C=C1",
        "Molecular Formula": "C<sub>6</sub>H<sub>5</sub>NO<sub>6</sub>S.K",
        "Molecular Mass": "",
        "Melting Point": "250-253 °C"
    }
}