{
    "cas_no": "10403-47-1",
    "key_name": "2-Bromo-5-nitroaniline",
    "cn_name": "2-溴-5-硝基苯胺;",
    "alternate_name": "Benzenamine, 2-bromo-5-nitro-;Aniline, 2-bromo-5-nitro-;2-Bromo-5-nitrobenzenamine;2-Bromo-5-nitroaniline;(2-Bromo-5-nitrophenyl)amine",
    "duplicated_cas_no": "",
    "SMILES": "N(=O)(=O)C1=CC(N)=C(Br)C=C1",
    "meta_data": {
        "InChI": "InChI=1S/C6H5BrN2O2/c7-5-2-1-4(9(10)11)3-6(5)8/h1-3H,8H2",
        "InChIKey": null,
        "Canonical SMILES": "O=N(=O)C1=CC=C(Br)C(N)=C1",
        "Molecular Formula": "C<sub>6</sub>H<sub>5</sub>BrN<sub>2</sub>O<sub>2</sub>",
        "Molecular Mass": "217.02",
        "Melting Point": "140 °C"
    }
}