{
    "cas_no": "1178-24-1",
    "key_name": "3,5,6,7,8,3′,4′-Heptamethoxyflavone",
    "cn_name": null,
    "alternate_name": "4<em>H</em>-1-Benzopyran-4-one, 2-(3,4-dimethoxyphenyl)-3,5,6,7,8-pentamethoxy-;Flavone, 3,3′,4′,5,6,7,8-heptamethoxy-;2-(3,4-Dimethoxyphenyl)-3,5,6,7,8-pentamethoxy-4<em>H</em>-1-benzopyran-4-one;3,5,6,7,8,3′,4′-Heptamethoxyflavone;3,3′,4′,5,6,7,8-Heptamethoxyflavone;3′,4′,3,5,6,7,8-Heptamethoxyflavone;NSC 618928;3-Methoxynobiletin;3,5,6,7,8,3′,4′-Heptamethphoxyflavone;2-(3,4-Dimethoxyphenyl)-3,5,6,7,8-pentamethoxychromen-4-one",
    "duplicated_cas_no": "",
    "SMILES": "O(C)C1=C2C(=C(OC)C(OC)=C1OC)C(=O)C(OC)=C(O2)C3=CC(OC)=C(OC)C=C3",
    "meta_data": {
        "InChI": "InChI=1S/C22H24O9/c1-24-12-9-8-11(10-13(12)25-2)16-19(27-4)15(23)14-17(26-3)20(28-5)22(30-7)21(29-6)18(14)31-16/h8-10H,1-7H3",
        "InChIKey": null,
        "Canonical SMILES": "O=C1C(OC)=C(OC2=C(OC)C(OC)=C(OC)C(OC)=C12)C=3C=CC(OC)=C(OC)C3",
        "Molecular Formula": "C<sub>22</sub>H<sub>24</sub>O<sub>9</sub>",
        "Molecular Mass": "432.42",
        "Melting Point": "129-131 °C"
    }
}