{
    "cas_no": "174501-65-6",
    "key_name": "1-Butyl-3-methylimidazolium tetrafluoroborate",
    "cn_name": "1-丁基-3-甲基咪唑四氟硼酸盐;四氟硼酸1-丁基-3-甲基咪唑鎓;",
    "alternate_name": "1<em>H</em>-Imidazolium, 3-butyl-1-methyl-, tetrafluoroborate(1-) (1:1);1<em>H</em>-Imidazolium, 1-butyl-3-methyl-, tetrafluoroborate(1-);1-Butyl-3-methylimidazolium tetrafluoroborate;1-Methyl-3-butylimidazolium tetrafluoroborate;1-Butyl-3-methyl-1<em>H</em>-imidazolium tetrafluoroborate;1-<em>n</em>-Butyl-3-methylimidazolium tetrafluoroborate;3-Butyl-1-methylimidazolium tetrafluoroborate;1-Butyl-3-methyl-1<em>H</em>-imidazolium tetrafluoroborate(1-);BmimBF<sub>4</sub>;1-Butyl-3-methylimidazolium tetrafluoroborate(1-);1-Butyl-1-methylimidazolium tetrafluoroborate;Bmim tetrafluoroborate;[1-Butyl-3-methylimidazolium]BF<sub>4</sub>;BMIm tetrafluoroborate(1-);1-Methyl-3-butylimidazolium tetrafluoroborate(1-);Butylmethylimidazolium tetrafluoroborate;1-Butyl-3-methyl-1H-imidazolium tetrafluoroborate(1-);1-Butyl-3-methyl-1<em>H</em>-imidazol-3-ium tetrafloroborate;A 43205",
    "duplicated_cas_no": "358720-73-7;1086070-49-6;1258268-98-2;2628302-97-4",
    "SMILES": "C(CCC)[N+]1=CN(C)C=C1.[B+3]([F-])([F-])([F-])[F-]",
    "meta_data": {
        "InChI": "InChI=1S/C8H15N2.BF4/c1-3-4-5-10-7-6-9(2)8-10;2-1(3,4)5/h6-8H,3-5H2,1-2H3;/q+1;-1",
        "InChIKey": null,
        "Canonical SMILES": "[F-][B+3]([F-])([F-])[F-].C1=C[N+](=CN1C)CCCC",
        "Molecular Formula": "C<sub>8</sub>H<sub>15</sub>N<sub>2</sub>.BF<sub>4</sub>",
        "Molecular Mass": "",
        "Melting Point": "-80 °C",
        "Density": "1.21 g/cm³ @ Temp: Room temp"
    }
}