{
    "cas_no": "21635-90-5",
    "key_name": "1,2,3,4,4a,5,8,8a-Octahydro-1,4:5,8-dimethanonaphthalene",
    "cn_name": "二甲桥八氢萘; 1,2,3,4,4a,5,8,8a-八氢-1,4:5,8-二甲桥萘;",
    "alternate_name": "1,4:5,8-Dimethanonaphthalene, 1,2,3,4,4a,5,8,8a-octahydro-;1,2,3,4,4a,5,8,8a-Octahydro-1,4:5,8-dimethanonaphthalene;Dimethanooctahydronaphthalene;Tetracyclo[4.4.0.1<sup>2,5</sup>.1<sup>7,10</sup>]-3-dodecene;Tetracyclododecene;Tetracyclo[4.4.1<sup>2,5</sup>.1<sup>7,10</sup>.0]dodeca-3-ene;Tetracyclo[6.2.1.1<sup>3,6</sup>.0<sup>2,7</sup>]dodeca-4-ene;Tetracyclo[4.4.0.1<sup>2,5</sup>.1<sup>7,10</sup>]dodeca-3-ene;TCD",
    "duplicated_cas_no": "1404084-03-2",
    "SMILES": "C12C(C3CC1C=C3)C4CC2CC4",
    "meta_data": {
        "InChI": "InChI=1S/C12H16/c1-2-8-5-7(1)11-9-3-4-10(6-9)12(8)11/h1-2,7-12H,3-6H2",
        "InChIKey": null,
        "Canonical SMILES": "C1=CC2CC1C3C4CCC(C4)C23",
        "Molecular Formula": "C<sub>12</sub>H<sub>16</sub>",
        "Molecular Mass": "160.26",
        "Boiling Point": "92-96 °C @ Press: 10 Torr"
    }
}