{
    "cas_no": "481-53-8",
    "key_name": "Tangeretin",
    "cn_name": "桔皮素;5,6,7,8,4\"-五甲氧基黄酮;",
    "alternate_name": "4<em>H</em>-1-Benzopyran-4-one, 5,6,7,8-tetramethoxy-2-(4-methoxyphenyl)-;Flavone, 4′,5,6,7,8-pentamethoxy-;Tangeretin;5,6,7,8-Tetramethoxy-2-(4-methoxyphenyl)-4<em>H</em>-1-benzopyran-4-one;Ponkanetin;5,6,7,8,4′-Pentamethoxyflavone;4′,5,6,7,8-Pentamethoxyflavone;Tangeritin;NSC 53909;NSC 618905",
    "duplicated_cas_no": "",
    "SMILES": "O(C)C1=C2C(=C(OC)C(OC)=C1OC)C(=O)C=C(O2)C3=CC=C(OC)C=C3",
    "meta_data": {
        "InChI": "InChI=1S/C20H20O7/c1-22-12-8-6-11(7-9-12)14-10-13(21)15-16(23-2)18(24-3)20(26-5)19(25-4)17(15)27-14/h6-10H,1-5H3",
        "InChIKey": null,
        "Canonical SMILES": "O=C1C=C(OC2=C(OC)C(OC)=C(OC)C(OC)=C12)C=3C=CC(OC)=CC3",
        "Molecular Formula": "C<sub>20</sub>H<sub>20</sub>O<sub>7</sub>",
        "Molecular Mass": "372.37",
        "Melting Point": "154 °C"
    }
}