{
    "cas_no": "7211-39-4",
    "key_name": "Phosphine oxide, dimethyl-",
    "cn_name": null,
    "alternate_name": "Phosphine oxide, dimethyl-;Dimethylphosphine oxide;Dimethylphosphinous acid",
    "duplicated_cas_no": "",
    "SMILES": "P(C)(C)=O",
    "meta_data": {
        "InChI": "InChI=1S/C2H7OP/c1-4(2)3/h4H,1-2H3",
        "InChIKey": null,
        "Canonical SMILES": "O=P(C)C",
        "Molecular Formula": "C<sub>2</sub>H<sub>7</sub>OP",
        "Molecular Mass": "78.05",
        "Boiling Point": "65-67 °C @ Press: 6 Torr"
    }
}