{
    "cas_no": "74-82-8",
    "key_name": "Methane",
    "cn_name": "甲烷;沼气;甲基氢化物;液化甲烷;",
    "alternate_name": "Methane;Marsh gas;Methyl hydride;R 50 (refrigerant);R 50;MeSH ID: D008697",
    "duplicated_cas_no": "131452-56-7",
    "SMILES": "C",
    "meta_data": {
        "InChI": "InChI=1S/CH4/h1H4",
        "InChIKey": null,
        "Canonical SMILES": "C",
        "Molecular Formula": "CH<sub>4</sub>",
        "Molecular Mass": "",
        "Boiling Point": "-161.4 °C",
        "Melting Point": "-182.6 °C",
        "Density": "0.466-0.477 g/cm³"
    }
}