{
    "cas_no": "2566-44-1",
    "key_name": "2-Cyclopropylethanol",
    "cn_name": null,
    "alternate_name": "Cyclopropaneethanol;2-Cyclopropylethanol;(2-Hydroxyethyl)cyclopropane;NSC 250975;2-Cyclopropylethan-1-ol",
    "duplicated_cas_no": "",
    "SMILES": "C(CO)C1CC1",
    "meta_data": {
        "InChI": "InChI=1S/C5H10O/c6-4-3-5-1-2-5/h5-6H,1-4H2",
        "InChIKey": null,
        "Canonical SMILES": "OCCC1CC1",
        "Molecular Formula": "C<sub>5</sub>H<sub>10</sub>O",
        "Molecular Mass": "86.13",
        "Boiling Point": "135 °C"
    }
}