{
    "cas_no": "54231-34-4",
    "key_name": "3-Iodo-2-nitropyridine",
    "cn_name": null,
    "alternate_name": "Pyridine, 3-iodo-2-nitro-;3-Iodo-2-nitropyridine",
    "duplicated_cas_no": "",
    "SMILES": "N(=O)(=O)C1=C(I)C=CC=N1",
    "meta_data": {
        "InChI": "InChI=1S/C5H3IN2O2/c6-4-2-1-3-7-5(4)8(9)10/h1-3H",
        "InChIKey": null,
        "Canonical SMILES": "O=N(=O)C1=NC=CC=C1I",
        "Molecular Formula": "C<sub>5</sub>H<sub>3</sub>IN<sub>2</sub>O<sub>2</sub>",
        "Molecular Mass": "249.99",
        "Melting Point": "100-101 °C"
    }
}