{
    "cas_no": "39149-80-9",
    "key_name": "1,1-Dimethylethyl 2-bromopropanoate",
    "cn_name": "2-溴丙酸叔丁酯;",
    "alternate_name": "Propanoic acid, 2-bromo-, 1,1-dimethylethyl ester;Propionic acid, 2-bromo-, <em>tert</em>-butyl ester;1,1-Dimethylethyl 2-bromopropanoate;<em>tert</em>-Butyl 2-bromopropionate;<em>tert</em>-Butyl α-bromopropionate;<em>tert</em>-Butyl 2-bromopropanoate;1,1-Dimethylethyl 2-bromopropionate;2-Bromopropionic acid tert-butyl ester",
    "duplicated_cas_no": "32821-07-1",
    "SMILES": "C(OC(C)(C)C)(C(Br)C)=O",
    "meta_data": {
        "InChI": "InChI=1S/C7H13BrO2/c1-5(8)6(9)10-7(2,3)4/h5H,1-4H3",
        "InChIKey": null,
        "Canonical SMILES": "O=C(OC(C)(C)C)C(Br)C",
        "Molecular Formula": "C<sub>7</sub>H<sub>13</sub>BrO<sub>2</sub>",
        "Molecular Mass": "209.08",
        "Boiling Point": "51-52 °C @ Press: 10 Torr"
    }
}