{
    "cas_no": "548-83-4",
    "key_name": "Galangin",
    "cn_name": "高良姜素;3,5,7-三羟基黄酮;",
    "alternate_name": "4<em>H</em>-1-Benzopyran-4-one, 3,5,7-trihydroxy-2-phenyl-;Galangin;Flavone, 3,5,7-trihydroxy-;3,5,7-Trihydroxy-2-phenyl-4<em>H</em>-1-benzopyran-4-one;Norizalpinin;3,5,7-Trihydroxyflavone;NSC 407229;3,5,7-Trihydroxy-2-phenylchromen-4-one;3,5,7-Trihydroxy-2-phenyl-4<em>H</em>-chromen-4-one",
    "duplicated_cas_no": "50306-94-0",
    "SMILES": "O=C1C=2C(OC(=C1O)C3=CC=CC=C3)=CC(O)=CC2O",
    "meta_data": {
        "InChI": "InChI=1S/C15H10O5/c16-9-6-10(17)12-11(7-9)20-15(14(19)13(12)18)8-4-2-1-3-5-8/h1-7,16-17,19H",
        "InChIKey": null,
        "Canonical SMILES": "O=C1C(O)=C(OC=2C=C(O)C=C(O)C12)C=3C=CC=CC3",
        "Molecular Formula": "C<sub>15</sub>H<sub>10</sub>O<sub>5</sub>",
        "Molecular Mass": "270.24",
        "Melting Point": "214.5 °C"
    }
}