{
    "cas_no": "2938-48-9",
    "key_name": "2,2-Dimethylglutaric anhydride",
    "cn_name": "2,2-二甲基戊二酸酐;2,2-二甲基戊酸酐;",
    "alternate_name": "2<em>H</em>-Pyran-2,6(3<em>H</em>)-dione, dihydro-3,3-dimethyl-;Glutaric anhydride, 2,2-dimethyl-;Dihydro-3,3-dimethyl-2<em>H</em>-pyran-2,6(3<em>H</em>)-dione;2,2-Dimethylglutaric anhydride;NSC 60199;3,3-Dimethyldihydropyran-2,6-dione;3,3-Dimethyl-3<em>H</em>-4,5-dihydropyran-2,6-dione;3,3-Dimethyldihydro-2<em>H</em>-pyran-2,6(3<em>H</em>)-dione;3,3-Dimethyloxane-2,6-dione;3,3-Dimethyloxan-2,6-dione",
    "duplicated_cas_no": "",
    "SMILES": "CC1(C)C(=O)OC(=O)CC1",
    "meta_data": {
        "InChI": "InChI=1S/C7H10O3/c1-7(2)4-3-5(8)10-6(7)9/h3-4H2,1-2H3",
        "InChIKey": null,
        "Canonical SMILES": "O=C1OC(=O)C(C)(C)CC1",
        "Molecular Formula": "C<sub>7</sub>H<sub>10</sub>O<sub>3</sub>",
        "Molecular Mass": "142.15",
        "Boiling Point": "126 °C @ Press: 12 Torr",
        "Melting Point": "123-125 °C"
    }
}