{
    "cas_no": "177995-39-0",
    "key_name": "3-Amino-6-bromo-1,2-benzisoxazole",
    "cn_name": null,
    "alternate_name": "1,2-Benzisoxazol-3-amine, 6-bromo-;6-Bromo-1,2-benzisoxazol-3-amine;3-Amino-6-bromo-1,2-benzisoxazole;6-Bromobenzo[<em>d</em>]isoxazol-3-amine",
    "duplicated_cas_no": "",
    "SMILES": "NC=1C=2C(ON1)=CC(Br)=CC2",
    "meta_data": {
        "InChI": "InChI=1S/C7H5BrN2O/c8-4-1-2-5-6(3-4)11-10-7(5)9/h1-3H,(H2,9,10)",
        "InChIKey": null,
        "Canonical SMILES": "BrC=1C=CC=2C(=NOC2C1)N",
        "Molecular Formula": "C<sub>7</sub>H<sub>5</sub>BrN<sub>2</sub>O",
        "Molecular Mass": "213.03",
        "Melting Point": "128-129 °C"
    }
}