{
    "cas_no": "1475-11-2",
    "key_name": "3,4-Dichloro-α-methylbenzenemethanol",
    "cn_name": "1-(3,4-二氯酚)乙醇;",
    "alternate_name": "Benzenemethanol, 3,4-dichloro-α-methyl-;Benzyl alcohol, 3,4-dichloro-α-methyl-;3,4-Dichloro-α-methylbenzenemethanol;3,4-Dichloro-α-methylbenzyl alcohol;1-(3,4-Dichlorophenyl)ethanol;NSC 55517;1-(3,4-Dichlorophenyl)ethan-1-ol",
    "duplicated_cas_no": "",
    "SMILES": "C(C)(O)C1=CC(Cl)=C(Cl)C=C1",
    "meta_data": {
        "InChI": "InChI=1S/C8H8Cl2O/c1-5(11)6-2-3-7(9)8(10)4-6/h2-5,11H,1H3",
        "InChIKey": null,
        "Canonical SMILES": "ClC1=CC=C(C=C1Cl)C(O)C",
        "Molecular Formula": "C<sub>8</sub>H<sub>8</sub>Cl<sub>2</sub>O",
        "Molecular Mass": "191.05",
        "Boiling Point": "127-128 °C @ Press: 2 Torr",
        "Density": "1.318 g/cm³ @ Temp: 20 °C"
    }
}