{
    "cas_no": "4375-83-1",
    "key_name": "<em>N</em>,<em>N</em>,<em>N</em>′,<em>N</em>′,<em>N</em>′′,<em>N</em>′′-Hexamethylboranetriamine",
    "cn_name": "三(二甲胺基)硼烷;",
    "alternate_name": "Boranetriamine, <em>N</em>,<em>N</em>,<em>N</em>′,<em>N</em>′,<em>N</em>′′,<em>N</em>′′-hexamethyl-;Borane, tris(dimethylamino)-;Boranetriamine, hexamethyl-;Borine, tris(dimethylamino)-;Dimethylamine, <em>N</em>,<em>N</em>′,<em>N</em>′′-borylidynetris-;<em>N</em>,<em>N</em>,<em>N</em>′,<em>N</em>′,<em>N</em>′′,<em>N</em>′′-Hexamethylboranetriamine;Tris(dimethylamino)borane;Tris(dimethylamino)boron;NSC 379532;Tris(dimethylamine)borane;[Bis(dimethylamino)boranyl]dimethylamine",
    "duplicated_cas_no": "",
    "SMILES": "B(N(C)C)(N(C)C)N(C)C",
    "meta_data": {
        "InChI": "InChI=1S/C6H18BN3/c1-8(2)7(9(3)4)10(5)6/h1-6H3",
        "InChIKey": null,
        "Canonical SMILES": "B(N(C)C)(N(C)C)N(C)C",
        "Molecular Formula": "C<sub>6</sub>H<sub>18</sub>BN<sub>3</sub>",
        "Molecular Mass": "143.04",
        "Boiling Point": "147.5 °C",
        "Melting Point": "-40 °C"
    }
}