{
    "cas_no": "25870-62-6",
    "key_name": "1-Phenyl-2-hexanone",
    "cn_name": "1-苯基-2-己酮;",
    "alternate_name": "2-Hexanone, 1-phenyl-;1-Phenyl-2-hexanone;Benzyl butyl ketone;Butyl benzyl ketone;NSC 15336",
    "duplicated_cas_no": "",
    "SMILES": "C(C(CCCC)=O)C1=CC=CC=C1",
    "meta_data": {
        "InChI": "InChI=1S/C12H16O/c1-2-3-9-12(13)10-11-7-5-4-6-8-11/h4-8H,2-3,9-10H2,1H3",
        "InChIKey": null,
        "Canonical SMILES": "O=C(CC=1C=CC=CC1)CCCC",
        "Molecular Formula": "C<sub>12</sub>H<sub>16</sub>O",
        "Molecular Mass": "176.25",
        "Boiling Point": "130-131 °C @ Press: 12 Torr",
        "Density": "0.9630 g/cm³ @ Temp: 20 °C"
    }
}