{
    "cas_no": "2958-36-3",
    "key_name": "2-Amino-2′,5-dichlorobenzophenone",
    "cn_name": "2-氨基-2\",5-二氯二苯酮;",
    "alternate_name": "Methanone, (2-amino-5-chlorophenyl)(2-chlorophenyl)-;Benzophenone, 2-amino-2′,5-dichloro-;(2-Amino-5-chlorophenyl)(2-chlorophenyl)methanone;2-Amino-2′,5-dichlorobenzophenone;2′,5-Dichloro-2-aminobenzophenone;2,5′-Dichloro-2′-aminobenzophenone;2-Amino-5-chloro-2′-chlorobenzophenone;NSC 611905",
    "duplicated_cas_no": "53960-29-5",
    "SMILES": "C(=O)(C1=C(N)C=CC(Cl)=C1)C2=C(Cl)C=CC=C2",
    "meta_data": {
        "InChI": "InChI=1S/C13H9Cl2NO/c14-8-5-6-12(16)10(7-8)13(17)9-3-1-2-4-11(9)15/h1-7H,16H2",
        "InChIKey": null,
        "Canonical SMILES": "O=C(C=1C=CC=CC1Cl)C2=CC(Cl)=CC=C2N",
        "Molecular Formula": "C<sub>13</sub>H<sub>9</sub>Cl<sub>2</sub>NO",
        "Molecular Mass": "266.12",
        "Melting Point": "88-89 °C"
    }
}