{
    "cas_no": "29576-14-5",
    "key_name": "(2<em>E</em>)-1-Bromo-2-butene",
    "cn_name": "巴己酰溴;巴已酰溴;",
    "alternate_name": "2-Butene, 1-bromo-, (2<em>E</em>)-;2-Butene, 1-bromo-, (<em>E</em>)-;(2<em>E</em>)-1-Bromo-2-butene;<em>trans</em>-Crotyl bromide;<em>trans</em>-1-Bromo-2-butene;1-Bromo-<em>trans</em>-2-butene;<em>trans</em>-But-2-enyl bromide;(<em>E</em>)-But-2-enyl bromide;(<em>E</em>)-4-Bromo-2-butene;(<em>E</em>)-Crotyl bromide;(<em>E</em>)-1-Bromo-2-butene;<em>trans</em>-4-Bromo-2-butene;(<em>E</em>)-2-Buten-1-yl bromide;(2<em>E</em>)-1-Bromobut-2-ene;(E)-Crotyl bromide",
    "duplicated_cas_no": "",
    "SMILES": "C(\\CBr)=C/C",
    "meta_data": {
        "InChI": "InChI=1S/C4H7Br/c1-2-3-4-5/h2-3H,4H2,1H3/b3-2+",
        "InChIKey": null,
        "Canonical SMILES": "BrCC=CC",
        "Molecular Formula": "C<sub>4</sub>H<sub>7</sub>Br",
        "Molecular Mass": "135.00",
        "Boiling Point": "80 °C @ Press: 152 Torr"
    }
}