{
    "cas_no": "174603-38-4",
    "key_name": "2-Chloro-4-fluorobenzenepropanoic acid",
    "cn_name": null,
    "alternate_name": "Benzenepropanoic acid, 2-chloro-4-fluoro-;2-Chloro-4-fluorobenzenepropanoic acid;3-(2-Chloro-4-fluorophenyl)propanoic acid",
    "duplicated_cas_no": "",
    "SMILES": "C(CC(O)=O)C1=C(Cl)C=C(F)C=C1",
    "meta_data": {
        "InChI": "InChI=1S/C9H8ClFO2/c10-8-5-7(11)3-1-6(8)2-4-9(12)13/h1,3,5H,2,4H2,(H,12,13)",
        "InChIKey": null,
        "Canonical SMILES": "O=C(O)CCC1=CC=C(F)C=C1Cl",
        "Molecular Formula": "C<sub>9</sub>H<sub>8</sub>ClFO<sub>2</sub>",
        "Molecular Mass": "202.61",
        "Melting Point": "100-102 °C"
    }
}