{
    "cas_no": "692-04-6",
    "key_name": "ε-Acetyl-<span class=\"text-smallcaps\">L</span>-lysine",
    "cn_name": "Nε-乙酰左旋赖氨酸;N-EPSILON-乙酰-L-赖胺基乙酸;N-EPSILON-乙酰-L-赖氨酸;",
    "alternate_name": "<span class=\"text-smallcaps\">L</span>-Lysine, <em>N</em><sup>6</sup>-acetyl-;Lysine, <em>N</em><sup>6</sup>-acetyl-, <span class=\"text-smallcaps\">L</span>-;Lysine, <em>N</em><sup>6</sup>-acetyl-;<em>N</em><sup>6</sup>-Acetyl-<span class=\"text-smallcaps\">L</span>-lysine;ε-<em>N</em>-Acetyl-<span class=\"text-smallcaps\">L</span>-lysine;ω-<em>N</em>-Acetyl-<span class=\"text-smallcaps\">L</span>-lysine;<em>N</em><sup>ε</sup>-Acetyllysine;ε-<em>N</em>-Acetyllysine;<em>N</em><sup>ε</sup>-Acetyl-<span class=\"text-smallcaps\">L</span>-lysine;<span class=\"text-smallcaps\">L</span>-ε-<em>N</em>-Acetyllysine;<em>N</em><sup>6</sup>-Acetyllysine;ε-Acetyl-<span class=\"text-smallcaps\">L</span>-lysine;NSC 102777;6-Acetamido-2-aminohexanoic acid;N6-Acetyllysine;(2S)-6-Acetamido-2-aminohexanoic acid",
    "duplicated_cas_no": "2279-98-3",
    "SMILES": "C([C@@H](C(O)=O)N)CCCNC(C)=O",
    "meta_data": {
        "InChI": "InChI=1S/C8H16N2O3/c1-6(11)10-5-3-2-4-7(9)8(12)13/h7H,2-5,9H2,1H3,(H,10,11)(H,12,13)/t7-/m0/s1",
        "InChIKey": null,
        "Canonical SMILES": "O=C(NCCCCC(N)C(=O)O)C",
        "Molecular Formula": "C<sub>8</sub>H<sub>16</sub>N<sub>2</sub>O<sub>3</sub>",
        "Molecular Mass": "188.22",
        "Melting Point": "246-253 °C"
    }
}