{
    "cas_no": "99-50-3",
    "key_name": "Protocatechuic acid",
    "cn_name": "3,4-二羟基苯甲酸;",
    "alternate_name": "Benzoic acid, 3,4-dihydroxy-;Protocatechuic acid;3,4-Dihydroxybenzoic acid;4-Carboxy-1,2-dihydroxybenzene;4,5-Dihydroxybenzoic acid;NSC 16631;1,2-Dihydroxybenzene-4-carboxylic acid;Protocatechoic acid",
    "duplicated_cas_no": "",
    "SMILES": "C(O)(=O)C1=CC(O)=C(O)C=C1",
    "meta_data": {
        "InChI": "InChI=1S/C7H6O4/c8-5-2-1-4(7(10)11)3-6(5)9/h1-3,8-9H,(H,10,11)",
        "InChIKey": null,
        "Canonical SMILES": "O=C(O)C1=CC=C(O)C(O)=C1",
        "Molecular Formula": "C<sub>7</sub>H<sub>6</sub>O<sub>4</sub>",
        "Molecular Mass": "154.12",
        "Melting Point": "194 °C",
        "Density": "1.54 g/cm³"
    }
}