{
    "cas_no": "1962-75-0",
    "key_name": "1,4-Dibutyl 1,4-benzenedicarboxylate",
    "cn_name": "对苯二甲酸二丁酯;对苯二甲酸二丁酯;",
    "alternate_name": "1,4-Benzenedicarboxylic acid, 1,4-dibutyl ester;Terephthalic acid, dibutyl ester;1,4-Benzenedicarboxylic acid, dibutyl ester;1,4-Dibutyl 1,4-benzenedicarboxylate;Dibutyl terephthalate;Butyl terephthalate;NSC 6349;Eastman DBT;1,4-Dibutyl benzene-1,4-dicarboxylate",
    "duplicated_cas_no": "",
    "SMILES": "C(OCCCC)(=O)C1=CC=C(C(OCCCC)=O)C=C1",
    "meta_data": {
        "InChI": "InChI=1S/C16H22O4/c1-3-5-11-19-15(17)13-7-9-14(10-8-13)16(18)20-12-6-4-2/h7-10H,3-6,11-12H2,1-2H3",
        "InChIKey": null,
        "Canonical SMILES": "O=C(OCCCC)C1=CC=C(C=C1)C(=O)OCCCC",
        "Molecular Formula": "C<sub>16</sub>H<sub>22</sub>O<sub>4</sub>",
        "Molecular Mass": "278.34",
        "Boiling Point": "154-156 °C @ Press: 1 Torr",
        "Melting Point": "16 °C",
        "Density": "1.034 g/cm³ @ Temp: 25 °C"
    }
}