{
    "cas_no": "32500-67-7",
    "key_name": "1-Propyl-1<em>H</em>-pyrazole",
    "cn_name": null,
    "alternate_name": "1<em>H</em>-Pyrazole, 1-propyl-;Pyrazole, 1-propyl-;1-Propyl-1<em>H</em>-pyrazole;1-Propylpyrazole",
    "duplicated_cas_no": "",
    "SMILES": "C(CC)N1C=CC=N1",
    "meta_data": {
        "InChI": "InChI=1S/C6H10N2/c1-2-5-8-6-3-4-7-8/h3-4,6H,2,5H2,1H3",
        "InChIKey": null,
        "Canonical SMILES": "N1=CC=CN1CCC",
        "Molecular Formula": "C<sub>6</sub>H<sub>10</sub>N<sub>2</sub>",
        "Molecular Mass": "110.16",
        "Boiling Point": "48 °C @ Press: 17 Torr"
    }
}