{
    "cas_no": "1120-72-5",
    "key_name": "2-Methylcyclopentanone",
    "cn_name": "2-甲基环戊酮;",
    "alternate_name": "Cyclopentanone, 2-methyl-;Cyclopentanone, 2-methyl-, (±)-;2-Methylcyclopentanone;α-Methylcyclopentanone;2-Methylcyclopentan-1-one;(±)-2-Methylcyclopentanone;NSC 105429",
    "duplicated_cas_no": "32854-37-8",
    "SMILES": "CC1C(=O)CCC1",
    "meta_data": {
        "InChI": "InChI=1S/C6H10O/c1-5-3-2-4-6(5)7/h5H,2-4H2,1H3",
        "InChIKey": null,
        "Canonical SMILES": "O=C1CCCC1C",
        "Molecular Formula": "C<sub>6</sub>H<sub>10</sub>O",
        "Molecular Mass": "98.14",
        "Boiling Point": "139.5 °C",
        "Melting Point": "-75 °C",
        "Density": "0.9189 g/cm³ @ Temp: 20 °C"
    }
}