{
    "cas_no": "50715-28-1",
    "key_name": "Cyclopentyl chloroformate",
    "cn_name": "氯甲酸环戊酯;",
    "alternate_name": "Carbonochloridic acid, cyclopentyl ester;Formic acid, chloro-, cyclopentyl ester;Cyclopentyl chloroformate;Cyclopentyloxycarbonyl chloride;Cyclopentyl carbonochloridate",
    "duplicated_cas_no": "",
    "SMILES": "O(C(Cl)=O)C1CCCC1",
    "meta_data": {
        "InChI": "InChI=1S/C6H9ClO2/c7-6(8)9-5-3-1-2-4-5/h5H,1-4H2",
        "InChIKey": null,
        "Canonical SMILES": "O=C(Cl)OC1CCCC1",
        "Molecular Formula": "C<sub>6</sub>H<sub>9</sub>ClO<sub>2</sub>",
        "Molecular Mass": "148.59",
        "Boiling Point": "69.0-70.5 °C @ Press: 25 Torr"
    }
}