{
    "cas_no": "16600-92-3",
    "key_name": "Nitrophloroglucinol",
    "cn_name": "2-硝基间苯三酚醇;2-硝基间苯三酚;2-硝基间苯三酚醇;2-硝基间苯三酚醇,98%;",
    "alternate_name": "1,3,5-Benzenetriol, 2-nitro-;Phloroglucinol, nitro-;2-Nitro-1,3,5-benzenetriol;Nitrophloroglucinol;1,3,5-Trihydroxy-2-nitrobenzene;1-Nitro-2,4,6-trihydroxybenzene;2-Nitrophloroglucinol",
    "duplicated_cas_no": "",
    "SMILES": "N(=O)(=O)C1=C(O)C=C(O)C=C1O",
    "meta_data": {
        "InChI": "InChI=1S/C6H5NO5/c8-3-1-4(9)6(7(11)12)5(10)2-3/h1-2,8-10H",
        "InChIKey": null,
        "Canonical SMILES": "O=N(=O)C=1C(O)=CC(O)=CC1O",
        "Molecular Formula": "C<sub>6</sub>H<sub>5</sub>NO<sub>5</sub>",
        "Molecular Mass": "171.11",
        "Melting Point": "191-192 °C"
    }
}