{
    "cas_no": "479-59-4",
    "key_name": "2,3,6,7-Tetrahydro-1<em>H</em>,5<em>H</em>-benzo[<em>ij</em>]quinolizine",
    "cn_name": "久洛尼定;久洛利定;2,3,6,7-四氢-1H,5H-苯并[i,j]喹嗪;",
    "alternate_name": "1<em>H</em>,5<em>H</em>-Benzo[<em>ij</em>]quinolizine, 2,3,6,7-tetrahydro-;Julolidine;2,3,6,7-Tetrahydro-1<em>H</em>,5<em>H</em>-benzo[<em>ij</em>]quinolizine;NSC 82354",
    "duplicated_cas_no": "",
    "SMILES": "C1=2C=3CCCN1CCCC2C=CC3",
    "meta_data": {
        "InChI": "InChI=1S/C12H15N/c1-4-10-6-2-8-13-9-3-7-11(5-1)12(10)13/h1,4-5H,2-3,6-9H2",
        "InChIKey": null,
        "Canonical SMILES": "C=1C=C2C3=C(C1)CCCN3CCC2",
        "Molecular Formula": "C<sub>12</sub>H<sub>15</sub>N",
        "Molecular Mass": "173.25",
        "Boiling Point": "155-156 °C @ Press: 17 Torr",
        "Melting Point": "40 °C"
    }
}