{
    "cas_no": "588-64-7",
    "key_name": "Diphenylhydrazone",
    "cn_name": "苯甲醛苯腙;",
    "alternate_name": "Benzaldehyde, 2-phenylhydrazone;Benzaldehyde, phenylhydrazone;Benzalphenylhydrazine;Benzylidenephenylhydrazine;Diphenylhydrazone;NSC 37088;<em>N</em>-Benzylidene-<em>N</em>′-phenylhydrazine;1-Benzylidene-2-phenylhydrazine",
    "duplicated_cas_no": "",
    "SMILES": "C(=NNC1=CC=CC=C1)C2=CC=CC=C2",
    "meta_data": {
        "InChI": "InChI=1S/C13H12N2/c1-3-7-12(8-4-1)11-14-15-13-9-5-2-6-10-13/h1-11,15H",
        "InChIKey": null,
        "Canonical SMILES": "N(=CC=1C=CC=CC1)NC=2C=CC=CC2",
        "Molecular Formula": "C<sub>13</sub>H<sub>12</sub>N<sub>2</sub>",
        "Molecular Mass": "196.25",
        "Melting Point": "154-155 °C",
        "Density": "1.16 g/cm³"
    }
}