{
    "cas_no": "485-71-2",
    "key_name": "Cinchonidine",
    "cn_name": "辛可尼丁;(9S)-6\"-甲氧基辛可宁-9-醇;4-喹啉基-(5-乙烯基-1-氮杂双环[2.2.2]辛烷-2-基)甲醇;",
    "alternate_name": "Cinchonan-9-ol, (8α,9<em>R</em>)-;Cinchonidine;(8α,9<em>R</em>)-Cinchonan-9-ol;α-Quinidine;(-)-Cinchonidine;(8<em>S</em>,9<em>R</em>)-Cinchonidine;Cinchovatine;NSC 5364",
    "duplicated_cas_no": "185122-81-0;402846-41-7;727732-19-6;834885-39-1;849150-57-8;887770-94-7;898814-12-5;900786-79-0;900786-82-5;911480-48-3;925701-86-6;1195256-80-4;1236363-09-9;1892629-78-5;2244812-96-0;2929261-88-9",
    "SMILES": "[C@H](O)([C@]1([N@@]2C[C@H](C=C)[C@](C1)(CC2)[H])[H])C=3C4=C(N=CC3)C=CC=C4",
    "meta_data": {
        "InChI": "InChI=1S/C19H22N2O/c1-2-13-12-21-10-8-14(13)11-18(21)19(22)16-7-9-20-17-6-4-3-5-15(16)17/h2-7,9,13-14,18-19,22H,1,8,10-12H2/t13-,14-,18-,19+/m0/s1",
        "InChIKey": null,
        "Canonical SMILES": "OC(C=1C=CN=C2C=CC=CC21)C3N4CCC(C3)C(C=C)C4",
        "Molecular Formula": "C<sub>19</sub>H<sub>22</sub>N<sub>2</sub>O",
        "Molecular Mass": "294.39",
        "Melting Point": "210.5 °C",
        "Density": "1.22 g/cm³"
    }
}