{
    "cas_no": "2046-17-5",
    "key_name": "Methyl 4-phenylbutyrate",
    "cn_name": "4-苯丁酸甲酯;",
    "alternate_name": "Benzenebutanoic acid, methyl ester;Butyric acid, 4-phenyl-, methyl ester;Methyl 4-phenylbutyrate;Methyl 4-phenylbutanoate;NSC 133895;Methyl benzenebutanoate;4-Phenylbutyric acid methyl ester",
    "duplicated_cas_no": "",
    "SMILES": "C(CCC(OC)=O)C1=CC=CC=C1",
    "meta_data": {
        "InChI": "InChI=1S/C11H14O2/c1-13-11(12)9-5-8-10-6-3-2-4-7-10/h2-4,6-7H,5,8-9H2,1H3",
        "InChIKey": null,
        "Canonical SMILES": "O=C(OC)CCCC=1C=CC=CC1",
        "Molecular Formula": "C<sub>11</sub>H<sub>14</sub>O<sub>2</sub>",
        "Molecular Mass": "178.23",
        "Boiling Point": "181 °C @ Press: 18 Torr"
    }
}