{
    "cas_no": "15091-30-2",
    "key_name": "Thiophene, 3,4-dibromotetrahydro-, 1,1-dioxide",
    "cn_name": null,
    "alternate_name": "Thiophene, 3,4-dibromotetrahydro-, 1,1-dioxide;3,4-Dibromosulfolane;3,4-Dibromotetrahydrothiophene 1,1-dioxide;3,4-Dibromotetrahydrothiophene dioxide;NSC 39636;NSC 75382;3,4-Dibromo-1λ6-thiolane-1,1-dione;3,4-Dibromothiolane 1,1-dioxide",
    "duplicated_cas_no": "",
    "SMILES": "O=S1(=O)CC(Br)C(Br)C1",
    "meta_data": {
        "InChI": "InChI=1S/C4H6Br2O2S/c5-3-1-9(7,8)2-4(3)6/h3-4H,1-2H2",
        "InChIKey": null,
        "Canonical SMILES": "O=S1(=O)CC(Br)C(Br)C1",
        "Molecular Formula": "C<sub>4</sub>H<sub>6</sub>Br<sub>2</sub>O<sub>2</sub>S",
        "Molecular Mass": "277.96",
        "Melting Point": "139-141 °C"
    }
}