{
    "cas_no": "37413-91-5",
    "key_name": "21-(Acetyloxy)pregna-1,4,9(11),16-tetraene-3,20-dione",
    "cn_name": "21-羟基孕甾-1,4,9(11),16-四烯-3,20-二酮-21-醋酸酯;",
    "alternate_name": "Pregna-1,4,9(11),16-tetraene-3,20-dione, 21-(acetyloxy)-;Pregna-1,4,9(11),16-tetraene-3,20-dione, 21-hydroxy-, acetate;21-(Acetyloxy)pregna-1,4,9(11),16-tetraene-3,20-dione;21-Acetoxypregna-1,4,9(11),16-tetraene-3,20-dione;21-Hydroxy-1,4,9(11)-tetraene 21-acetate;2-((10<em>S</em>,13<em>S</em>,14<em>S</em>)-10,13-Dimethyl-3-oxo-6,7,8,10,12,13,14,15-octahydro-3<em>H</em>-cyclopenta[<em>a</em>]phenanthren-17-yl)-2-oxoethyl acetate;3,20-Dioxopregna-1,4,9(11),16-tetraen-21-yl acetate;3TR",
    "duplicated_cas_no": "",
    "SMILES": "C[C@@]12[C@]([C@]3(C([C@]4(C)C(CC3)=CC(=O)C=C4)=CC1)[H])(CC=C2C(COC(C)=O)=O)[H]",
    "meta_data": {
        "InChI": "InChI=1S/C23H26O4/c1-14(24)27-13-21(26)20-7-6-18-17-5-4-15-12-16(25)8-10-22(15,2)19(17)9-11-23(18,20)3/h7-10,12,17-18H,4-6,11,13H2,1-3H3/t17-,18-,22-,23-/m0/s1",
        "InChIKey": null,
        "Canonical SMILES": "O=C1C=CC2(C(=C1)CCC3C2=CCC4(C(=CCC34)C(=O)COC(=O)C)C)C",
        "Molecular Formula": "C<sub>23</sub>H<sub>26</sub>O<sub>4</sub>",
        "Molecular Mass": "366.45",
        "Melting Point": "172-174 °C"
    }
}