{
    "cas_no": "821-11-4",
    "key_name": "<em>trans</em>-2-Butene-1,4-diol",
    "cn_name": null,
    "alternate_name": "2-Butene-1,4-diol, (2<em>E</em>)-;2-Butene-1,4-diol, (<em>E</em>)-;2-Butene-1,4-diol, <em>trans</em>-;(2<em>E</em>)-2-Butene-1,4-diol;<em>trans</em>-2-Butene-1,4-diol;(<em>E</em>)-2-Butene-1,4-diol;Penitricin C;(E)-2-Butene-1,4-diol;(2<em>E</em>)-But-2-ene-1,4-diol;<em>trans</em>-2-Buten-1,4-diol",
    "duplicated_cas_no": "",
    "SMILES": "C(=C/CO)\\CO",
    "meta_data": {
        "InChI": "InChI=1S/C4H8O2/c5-3-1-2-4-6/h1-2,5-6H,3-4H2/b2-1+",
        "InChIKey": null,
        "Canonical SMILES": "OCC=CCO",
        "Molecular Formula": "C<sub>4</sub>H<sub>8</sub>O<sub>2</sub>",
        "Molecular Mass": "88.11",
        "Boiling Point": "131.5 °C @ Press: 12 Torr",
        "Melting Point": "25 °C",
        "Density": "1.0687 g/cm³ @ Temp: 20 °C"
    }
}