{
    "cas_no": "4542-75-0",
    "key_name": "1,1′-Oxybis[4-(bromomethyl)benzene]",
    "cn_name": "4,4\"-二(溴甲基)二苯醚;",
    "alternate_name": "Benzene, 1,1′-oxybis[4-(bromomethyl)-;Ether, bis(α-bromo-<em>p</em>-tolyl);1,1′-Oxybis[4-(bromomethyl)benzene];4,4′-Oxybis[1-(bromomethyl)benzene];4,4′-Bis(bromomethyl) diphenyl ether;Bis[4-(bromomethyl)phenyl] ether;1-(Bromomethyl)-4-[4-(bromomethyl)phenoxy]benzene",
    "duplicated_cas_no": "",
    "SMILES": "O(C1=CC=C(CBr)C=C1)C2=CC=C(CBr)C=C2",
    "meta_data": {
        "InChI": "InChI=1S/C14H12Br2O/c15-9-11-1-5-13(6-2-11)17-14-7-3-12(10-16)4-8-14/h1-8H,9-10H2",
        "InChIKey": null,
        "Canonical SMILES": "BrCC1=CC=C(OC2=CC=C(C=C2)CBr)C=C1",
        "Molecular Formula": "C<sub>14</sub>H<sub>12</sub>Br<sub>2</sub>O",
        "Molecular Mass": "356.05",
        "Boiling Point": "231-240 °C @ Press: 0.5 Torr",
        "Melting Point": "98 °C"
    }
}