{
    "cas_no": "13026-12-5",
    "key_name": "3-(1-Naphthalenyl)-2-propenoic acid",
    "cn_name": "3-(1-萘基)丙烯酸;",
    "alternate_name": "2-Propenoic acid, 3-(1-naphthalenyl)-;1-Naphthaleneacrylic acid;3-(1-Naphthalenyl)-2-propenoic acid;β-1-Naphthylacrylic acid;3-(1-Naphthyl)acrylic acid;3-(Naphthalen-1-yl)acrylic acid;3-(Naphthalen-1-yl)propenoic acid;NSC 99085",
    "duplicated_cas_no": "",
    "SMILES": "C(=CC(O)=O)C=1C2=C(C=CC1)C=CC=C2",
    "meta_data": {
        "InChI": "InChI=1S/C13H10O2/c14-13(15)9-8-11-6-3-5-10-4-1-2-7-12(10)11/h1-9H,(H,14,15)",
        "InChIKey": null,
        "Canonical SMILES": "O=C(O)C=CC1=CC=CC=2C=CC=CC21",
        "Molecular Formula": "C<sub>13</sub>H<sub>10</sub>O<sub>2</sub>",
        "Molecular Mass": "198.22",
        "Melting Point": "207 °C"
    }
}