{
    "cas_no": "111-84-2",
    "key_name": "Nonane",
    "cn_name": "壬烷;",
    "alternate_name": "Nonane;<em>n</em>-Nonane;Shellsol 140;NSC 72430;Nonane-<em>5</em>-<em>C</em><sup>12</sup>",
    "duplicated_cas_no": "875820-94-3",
    "SMILES": "C(CCCC)CCCC",
    "meta_data": {
        "InChI": "InChI=1S/C9H20/c1-3-5-7-9-8-6-4-2/h3-9H2,1-2H3",
        "InChIKey": null,
        "Canonical SMILES": "CCCCCCCCC",
        "Molecular Formula": "C<sub>9</sub>H<sub>20</sub>",
        "Molecular Mass": "128.26",
        "Boiling Point": "150.8 °C @ Press: 760 Torr",
        "Melting Point": "-51 °C",
        "Density": "0.7176 g/cm³ @ Temp: 20 °C"
    }
}