{
    "cas_no": "162356-90-3",
    "key_name": "1,1-Dimethylethyl <em>N</em>-[(2-bromophenyl)methyl]carbamate",
    "cn_name": "N-Boc-2-溴苄胺;",
    "alternate_name": "Carbamic acid, <em>N</em>-[(2-bromophenyl)methyl]-, 1,1-dimethylethyl ester;Carbamic acid, [(2-bromophenyl)methyl]-, 1,1-dimethylethyl ester;1,1-Dimethylethyl <em>N</em>-[(2-bromophenyl)methyl]carbamate;<em>N</em>-(<em>tert</em>-Butoxycarbonyl)-2-bromobenzylamine;<em>tert</em>-Butyl <em>N</em>-(2-bromobenzyl)carbamate;<em>tert</em>-Butyl (2-bromobenzyl)carbamate;1-(<em>tert</em>-Butoxycarbonylaminomethyl)-2-bromobenzene;2-(<em>tert</em>-Butoxycarbonylaminomethyl)bromobenzene",
    "duplicated_cas_no": "",
    "SMILES": "C(NC(OC(C)(C)C)=O)C1=C(Br)C=CC=C1",
    "meta_data": {
        "InChI": "InChI=1S/C12H16BrNO2/c1-12(2,3)16-11(15)14-8-9-6-4-5-7-10(9)13/h4-7H,8H2,1-3H3,(H,14,15)",
        "InChIKey": null,
        "Canonical SMILES": "O=C(OC(C)(C)C)NCC=1C=CC=CC1Br",
        "Molecular Formula": "C<sub>12</sub>H<sub>16</sub>BrNO<sub>2</sub>",
        "Molecular Mass": "286.16",
        "Melting Point": "51-53 °C"
    }
}