{
    "cas_no": "64924-67-0",
    "key_name": "Halofuginone hydrobromide",
    "cn_name": "氢溴酸卤夫酮;氢溴酸常山酮;氢溴酸溴氯哌喹酮;7-溴-6-氯-3-[3-(3-羟基-2-哌啶基)-2-丙酮基]-4(3H)-喹唑啉酮;",
    "alternate_name": "4(3<em>H</em>)-Quinazolinone, 7-bromo-6-chloro-3-[3-[(2<em>R</em>,3<em>S</em>)-3-hydroxy-2-piperidinyl]-2-oxopropyl]-, hydrobromide (1:1), <em>rel</em>-;4(3<em>H</em>)-Quinazolinone, 7-bromo-6-chloro-3-[3-(3-hydroxy-2-piperidinyl)-2-oxopropyl]-, monohydrobromide, <em>trans</em>-(±)-;4(3<em>H</em>)-Quinazolinone, 7-bromo-6-chloro-3-[3-[(2<em>R</em>,3<em>S</em>)-3-hydroxy-2-piperidinyl]-2-oxopropyl]-, monohydrobromide, <em>rel</em>-;RU 19110;Stenorol;Halofuginone hydrobromide;4(3<em>H</em>)-Quinazolinone, 7-bromo-6-chloro-3-[3-(3-hydroxy-2-piperidinyl)-2-oxopropyl]-, monohydrobromide, <em>trans</em>-",
    "duplicated_cas_no": "",
    "SMILES": "O=C1C=2C(N=CN1CC(C[C@H]3[C@H](O)CCCN3)=O)=CC(Br)=C(Cl)C2.Br",
    "meta_data": {
        "InChI": "InChI=1/C16H17BrClN3O3.BrH/c17-11-6-13-10(5-12(11)18)16(24)21(8-20-13)7-9(22)4-14-15(23)2-1-3-19-14;/h5-6,8,14-15,19,23H,1-4,7H2;1H/t14-,15+;/s2",
        "InChIKey": null,
        "Canonical SMILES": "Br.O=C1C=2C=C(Cl)C(Br)=CC2N=CN1CC(=O)CC3NCCCC3O",
        "Molecular Formula": "C<sub>16</sub>H<sub>17</sub>BrClN<sub>3</sub>O<sub>3</sub>.BrH",
        "Molecular Mass": "",
        "Melting Point": "247 °C (decomp)"
    }
}