{
    "cas_no": "622-46-8",
    "key_name": "Phenyl carbamate",
    "cn_name": null,
    "alternate_name": "Carbamic acid, phenyl ester;Phenyl carbamate;NSC 66509;<em>O</em>-Phenyl carbamate",
    "duplicated_cas_no": "",
    "SMILES": "O(C(N)=O)C1=CC=CC=C1",
    "meta_data": {
        "InChI": "InChI=1S/C7H7NO2/c8-7(9)10-6-4-2-1-3-5-6/h1-5H,(H2,8,9)",
        "InChIKey": null,
        "Canonical SMILES": "O=C(OC=1C=CC=CC1)N",
        "Molecular Formula": "C<sub>7</sub>H<sub>7</sub>NO<sub>2</sub>",
        "Molecular Mass": "137.14",
        "Melting Point": "150 °C"
    }
}