{
    "cas_no": "24324-17-2",
    "key_name": "Fluorene-9-methanol",
    "cn_name": "9-芴甲醇;",
    "alternate_name": "9<em>H</em>-Fluorene-9-methanol;Fluorene-9-methanol;9-Fluorenylmethanol;9-(Hydroxymethyl)fluorene;9-Fluorenylmethyl alcohol;(9<em>H</em>-Fluoren-9-yl)methanol",
    "duplicated_cas_no": "",
    "SMILES": "C(O)C1C=2C(C=3C1=CC=CC3)=CC=CC2",
    "meta_data": {
        "InChI": "InChI=1S/C14H12O/c15-9-14-12-7-3-1-5-10(12)11-6-2-4-8-13(11)14/h1-8,14-15H,9H2",
        "InChIKey": null,
        "Canonical SMILES": "OCC1C=2C=CC=CC2C=3C=CC=CC31",
        "Molecular Formula": "C<sub>14</sub>H<sub>12</sub>O",
        "Molecular Mass": "196.24",
        "Boiling Point": "325.4 °C",
        "Melting Point": "105-107 °C"
    }
}