{
    "cas_no": "55038-01-2",
    "key_name": "2-Benzofuranmethanol",
    "cn_name": "2-苯并呋喃甲醇;1-苯并呋喃-2-甲醇;",
    "alternate_name": "2-Benzofuranmethanol;2-(Hydroxymethyl)benzofuran;Benzofuran-2-ylmethanol;1-(Benzofuran-2-yl)methanol",
    "duplicated_cas_no": "",
    "SMILES": "C(O)C1=CC=2C(O1)=CC=CC2",
    "meta_data": {
        "InChI": "InChI=1S/C9H8O2/c10-6-8-5-7-3-1-2-4-9(7)11-8/h1-5,10H,6H2",
        "InChIKey": null,
        "Canonical SMILES": "OCC=1OC=2C=CC=CC2C1",
        "Molecular Formula": "C<sub>9</sub>H<sub>8</sub>O<sub>2</sub>",
        "Molecular Mass": "148.16",
        "Boiling Point": "112-113 °C @ Press: 1.1 Torr",
        "Density": "1.203 g/cm³ @ Temp: 20 °C"
    }
}