{
    "cas_no": "10354-00-4",
    "key_name": "5<em>H</em>-Dibenzo[<em>a</em>,<em>d</em>]cyclohepten-5-ol",
    "cn_name": "5H-二苯并[Α,D]环庚三烯-5-醇;",
    "alternate_name": "5<em>H</em>-Dibenzo[<em>a</em>,<em>d</em>]cyclohepten-5-ol;5-Hydroxy-5<em>H</em>-dibenzo[<em>a</em>,<em>d</em>]cycloheptene;Dibenzosuberenol;5-Dibenzosuberenol;NSC 84190",
    "duplicated_cas_no": "",
    "SMILES": "OC1C=2C(C=CC=3C1=CC=CC3)=CC=CC2",
    "meta_data": {
        "InChI": "InChI=1S/C15H12O/c16-15-13-7-3-1-5-11(13)9-10-12-6-2-4-8-14(12)15/h1-10,15-16H",
        "InChIKey": null,
        "Canonical SMILES": "OC1C=2C=CC=CC2C=CC=3C=CC=CC31",
        "Molecular Formula": "C<sub>15</sub>H<sub>12</sub>O",
        "Molecular Mass": "208.26",
        "Melting Point": "98 °C"
    }
}