{
    "cas_no": "88-96-0",
    "key_name": "Phthalamide",
    "cn_name": null,
    "alternate_name": "1,2-Benzenedicarboxamide;Phthalamide;Phthaldiamide;Phthalic acid diamide;<em>o</em>-Carbamoylbenzamide;NSC 5512",
    "duplicated_cas_no": "",
    "SMILES": "C(N)(=O)C1=C(C(N)=O)C=CC=C1",
    "meta_data": {
        "InChI": "InChI=1S/C8H8N2O2/c9-7(11)5-3-1-2-4-6(5)8(10)12/h1-4H,(H2,9,11)(H2,10,12)",
        "InChIKey": null,
        "Canonical SMILES": "O=C(N)C=1C=CC=CC1C(=O)N",
        "Molecular Formula": "C<sub>8</sub>H<sub>8</sub>N<sub>2</sub>O<sub>2</sub>",
        "Molecular Mass": "164.16",
        "Boiling Point": "233 °C",
        "Melting Point": "228 °C (decomp)"
    }
}