{
    "cas_no": "7035-02-1",
    "key_name": "2-Methoxybenzyl chloride",
    "cn_name": "2-甲氧基氯化苄;2-甲氧基苄氯;",
    "alternate_name": "Benzene, 1-(chloromethyl)-2-methoxy-;Anisole, <em>o</em>-(chloromethyl)-;1-(Chloromethyl)-2-methoxybenzene;2-Methoxybenzyl chloride;<em>o</em>-Methoxybenzyl chloride;2-(Chloromethyl)anisole",
    "duplicated_cas_no": "",
    "SMILES": "C(Cl)C1=C(OC)C=CC=C1",
    "meta_data": {
        "InChI": "InChI=1S/C8H9ClO/c1-10-8-5-3-2-4-7(8)6-9/h2-5H,6H2,1H3",
        "InChIKey": null,
        "Canonical SMILES": "ClCC=1C=CC=CC1OC",
        "Molecular Formula": "C<sub>8</sub>H<sub>9</sub>ClO",
        "Molecular Mass": "156.61",
        "Boiling Point": "111-112 °C @ Press: 11 Torr",
        "Melting Point": "29-30 °C"
    }
}