{
    "cas_no": "481-73-2",
    "key_name": "Citreorosein",
    "cn_name": null,
    "alternate_name": "9,10-Anthracenedione, 1,3,8-trihydroxy-6-(hydroxymethyl)-;Anthraquinone, 1,3,8-trihydroxy-6-(hydroxymethyl)-;1,3,8-Trihydroxy-6-(hydroxymethyl)-9,10-anthracenedione;Citreorosein;Hydroxyemodin;ω-Hydroxyemodin;NSC 624612;(4<em>R</em>)-Regiolone",
    "duplicated_cas_no": "",
    "SMILES": "O=C1C=2C(C(=O)C=3C1=CC(O)=CC3O)=C(O)C=C(CO)C2",
    "meta_data": {
        "InChI": "InChI=1S/C15H10O6/c16-5-6-1-8-12(10(18)2-6)15(21)13-9(14(8)20)3-7(17)4-11(13)19/h1-4,16-19H,5H2",
        "InChIKey": null,
        "Canonical SMILES": "O=C1C=2C=C(O)C=C(O)C2C(=O)C3=C(O)C=C(C=C13)CO",
        "Molecular Formula": "C<sub>15</sub>H<sub>10</sub>O<sub>6</sub>",
        "Molecular Mass": "286.24",
        "Boiling Point": "60-80 °C",
        "Melting Point": "288 °C"
    }
}