{
    "cas_no": "1929-29-9",
    "key_name": "3-(4-Methoxyphenyl)propionic acid",
    "cn_name": "3-(4-甲氧基苯基)丙酸;对甲氧基苯丙酸;",
    "alternate_name": "Benzenepropanoic acid, 4-methoxy-;Hydrocinnamic acid, <em>p</em>-methoxy-;4-Methoxybenzenepropanoic acid;β-(<em>p</em>-Methoxyphenyl)propionic acid;<em>p</em>-Methoxyhydrocinnamic acid;<em>p</em>-Methoxybenzenepropionic acid;3-(<em>p</em>-Methoxyphenyl)propionic acid;3-(4-Methoxyphenyl)propanoic acid;3-(<em>p</em>-Methoxyphenyl)propanoic acid;3-(4-Methoxyphenyl)propionic acid;4-Methoxyhydrocinnamic acid;NSC 33134;NSC 51509;3-[4-(Methyloxy)phenyl]propanoic acid",
    "duplicated_cas_no": "",
    "SMILES": "C(CC(O)=O)C1=CC=C(OC)C=C1",
    "meta_data": {
        "InChI": "InChI=1S/C10H12O3/c1-13-9-5-2-8(3-6-9)4-7-10(11)12/h2-3,5-6H,4,7H2,1H3,(H,11,12)",
        "InChIKey": null,
        "Canonical SMILES": "O=C(O)CCC1=CC=C(OC)C=C1",
        "Molecular Formula": "C<sub>10</sub>H<sub>12</sub>O<sub>3</sub>",
        "Molecular Mass": "180.20",
        "Melting Point": "98-100 °C"
    }
}