{
    "cas_no": "121-79-9",
    "key_name": "Propyl gallate",
    "cn_name": "没食子酸丙酯;3,4,5-三羟基苯甲酸丙酯;",
    "alternate_name": "Benzoic acid, 3,4,5-trihydroxy-, propyl ester;Gallic acid, propyl ester;Nipa 49;Nipagallin P;Progallin P;Propyl gallate;<em>n</em>-Propyl 3,4,5-trihydroxybenzoate;Tenox PG;<em>n</em>-Propyl gallate;Propyl 3,4,5-trihydroxybenzoate;PG;Nipanox S 1;Gallic acid <em>n</em>-propyl ester;E 310;NSC 2626;Hemostyptin;Marupi Gallate;Antioxidant PG;GAPR;3,4,5-Trihydroxybenzoic acid propyl ester;MeSH ID: D011435",
    "duplicated_cas_no": "56274-95-4",
    "SMILES": "C(OCCC)(=O)C1=CC(O)=C(O)C(O)=C1",
    "meta_data": {
        "InChI": "InChI=1S/C10H12O5/c1-2-3-15-10(14)6-4-7(11)9(13)8(12)5-6/h4-5,11-13H,2-3H2,1H3",
        "InChIKey": null,
        "Canonical SMILES": "O=C(OCCC)C1=CC(O)=C(O)C(O)=C1",
        "Molecular Formula": "C<sub>10</sub>H<sub>12</sub>O<sub>5</sub>",
        "Molecular Mass": "212.20",
        "Melting Point": "130 °C"
    }
}