{
    "cas_no": "79271-56-0",
    "key_name": "Triethylsilyl 1,1,1-trifluoromethanesulfonate",
    "cn_name": "三乙基硅基三氟甲磺酸酯;",
    "alternate_name": "Methanesulfonic acid, 1,1,1-trifluoro-, triethylsilyl ester;Methanesulfonic acid, trifluoro-, triethylsilyl ester;Triethylsilyl 1,1,1-trifluoromethanesulfonate;Triethylsilyl triflate;Triethylsilyl trifluoromethanesulfonate;Trifluoromethanesulfonic acid triethylsilyl ester",
    "duplicated_cas_no": "913069-73-5",
    "SMILES": "[Si](OS(C(F)(F)F)(=O)=O)(CC)(CC)CC",
    "meta_data": {
        "InChI": "InChI=1S/C7H15F3O3SSi/c1-4-15(5-2,6-3)13-14(11,12)7(8,9)10/h4-6H2,1-3H3",
        "InChIKey": null,
        "Canonical SMILES": "O=S(=O)(O[Si](CC)(CC)CC)C(F)(F)F",
        "Molecular Formula": "C<sub>7</sub>H<sub>15</sub>F<sub>3</sub>O<sub>3</sub>SSi",
        "Molecular Mass": "264.34",
        "Boiling Point": "85-86 °C @ Press: 12 Torr",
        "Density": "1.169 g/cm³"
    }
}