{
    "cas_no": "110-38-3",
    "key_name": "Ethyl caprate",
    "cn_name": "癸酸乙酯;羊蜡酸乙酯;正癸酸乙酯;",
    "alternate_name": "Decanoic acid, ethyl ester;Capric acid ethyl ester;Ethyl caprate;Ethyl decanoate;Ethyl decylate;Ethyl caprinate;Ethyl <em>n</em>-decanoate;NSC 8909",
    "duplicated_cas_no": "",
    "SMILES": "C(CCCCCCCC)C(OCC)=O",
    "meta_data": {
        "InChI": "InChI=1S/C12H24O2/c1-3-5-6-7-8-9-10-11-12(13)14-4-2/h3-11H2,1-2H3",
        "InChIKey": null,
        "Canonical SMILES": "O=C(OCC)CCCCCCCCC",
        "Molecular Formula": "C<sub>12</sub>H<sub>24</sub>O<sub>2</sub>",
        "Molecular Mass": "200.32",
        "Boiling Point": "241.5 °C",
        "Melting Point": "-20 °C",
        "Density": "0.88156 g/cm³ @ Temp: 0 °C"
    }
}