{
    "cas_no": "57-50-1",
    "key_name": "Sucrose",
    "cn_name": "蔗糖;",
    "alternate_name": "α-<span class=\"text-smallcaps\">D</smallcap>-Glucopyranoside, β-<smallcap>D</span>-fructofuranosyl;Sucrose;β-<span class=\"text-smallcaps\">D</smallcap>-Fructofuranosyl α-<smallcap>D</span>-glucopyranoside;Cane sugar;Confectioner's sugar;Granulated sugar;Rock candy;Saccharose;Saccharum;Sugar;<span class=\"text-smallcaps\">D</span>-Sucrose;White sugar;Beet sugar;Microse;Amerfond;<span class=\"text-smallcaps\">D</span>-(+)-Saccharose;<span class=\"text-smallcaps\">D</span>-(+)-Sucrose;Sucralox;Manalox AS;(+)-Sucrose;GNE 410;NSC 406942;Frost Sugar;Carrare C 10;Khandsari;α-<span class=\"text-smallcaps\">D</smallcap>-Glucosyl-β-<smallcap>D</span>-fructofuranoside;Sucrose NF;Compressuc;S 67F;Pharma-a-spheres 20/25;Granulite Sugar CIG;MGP;MGP (sugar);Tootsweet;Nitto Hi-Sweet Deluxe;Nitto hydriodide-Sweet Deluxe;2-[3,4-Dihydroxy-2,5-bis(hydroxymethyl)oxolan-2-yl]oxy-6-(hydroxymethyl)oxane-3,4,5-triol;GHC 1;(2<em>R</em>,3<em>R</em>,4<em>S</em>,5<em>S</em>,6<em>R</em>)-2-[(2<em>S</em>,3<em>S</em>,4<em>S</em>,5<em>R</em>)-3,4-Dihydroxy-2,5-bis(hydroxymethyl)tetrahydrofuran-2-yl]oxy-6-(hydroxymethyl)tetrahydropyran-3,4,5-triol;Frost Sugar FS 2;Demerara;Sugar ARD;Sucrene SR 80/100;Sucre semoule surfine 250;sugar;MeSH ID: D013395;White Soft Sugar P",
    "duplicated_cas_no": "8027-47-2;8030-20-4;12040-73-2;29253-78-9;29764-06-5;30027-72-6;47167-52-2;47185-09-1;47257-91-0;50857-68-6;51909-69-4;64533-66-0;65545-99-5;75398-84-4;76056-38-7;78654-77-0;80165-03-3;85456-51-5;86101-30-6;87430-66-8;92004-84-7;100405-08-1;104242-10-6;131932-12-2;146054-35-5;146187-04-4;151756-02-4;220376-22-7;635681-90-2;786702-63-4;880257-62-5;1159795-78-4;1192061-43-0;1206156-82-2;1481578-88-4;1566560-95-9;2169316-40-7;2756614-01-2",
    "SMILES": "O([C@]1(CO)O[C@H](CO)[C@@H](O)[C@@H]1O)[C@H]2O[C@H](CO)[C@@H](O)[C@H](O)[C@H]2O",
    "meta_data": {
        "InChI": "InChI=1S/C12H22O11/c13-1-4-6(16)8(18)9(19)11(21-4)23-12(3-15)10(20)7(17)5(2-14)22-12/h4-11,13-20H,1-3H2/t4-,5-,6-,7-,8+,9-,10+,11-,12+/m1/s1",
        "InChIKey": null,
        "Canonical SMILES": "OCC1OC(OC2(OC(CO)C(O)C2O)CO)C(O)C(O)C1O",
        "Molecular Formula": "C<sub>12</sub>H<sub>22</sub>O<sub>11</sub>",
        "Molecular Mass": "342.30",
        "Melting Point": "185.5 °C",
        "Density": "1.5805 g/cm³ @ Temp: 17 °C"
    }
}