{
    "cas_no": "55145-14-7",
    "key_name": "<em>N</em>-(7-Dimethylamino-4-methyl-3-coumarinyl)maleimide",
    "cn_name": "N-(二甲胺基-4-甲基香豆素基)顺丁烯二酰亚胺〔DACM〕;",
    "alternate_name": "1<em>H</em>-Pyrrole-2,5-dione, 1-[7-(dimethylamino)-4-methyl-2-oxo-2<em>H</em>-1-benzopyran-3-yl]-;1-[7-(Dimethylamino)-4-methyl-2-oxo-2<em>H</em>-1-benzopyran-3-yl]-1<em>H</em>-pyrrole-2,5-dione;<em>N</em>-(7-Dimethylamino-4-methyl-3-coumarinyl)maleimide;DACM 3;1-[7-(Dimethylamino)-4-methyl-2-oxochromen-3-yl]pyrrole-2,5-dione",
    "duplicated_cas_no": "",
    "SMILES": "CC1=C(C(=O)OC=2C1=CC=C(N(C)C)C2)N3C(=O)C=CC3=O",
    "meta_data": {
        "InChI": "InChI=1S/C16H14N2O4/c1-9-11-5-4-10(17(2)3)8-12(11)22-16(21)15(9)18-13(19)6-7-14(18)20/h4-8H,1-3H3",
        "InChIKey": null,
        "Canonical SMILES": "O=C1OC=2C=C(C=CC2C(=C1N3C(=O)C=CC3=O)C)N(C)C",
        "Molecular Formula": "C<sub>16</sub>H<sub>14</sub>N<sub>2</sub>O<sub>4</sub>",
        "Molecular Mass": "298.29",
        "Melting Point": "218.0-219.5 °C"
    }
}