{
    "cas_no": "673-66-5",
    "key_name": "Enantholactam",
    "cn_name": "氮杂环辛酮;氮杂环辛酮;庚内酰胺;2-氮杂环辛酮;6-氢-2(1H)-氮杂环酮;",
    "alternate_name": "2(1<em>H</em>)-Azocinone, hexahydro-;Hexahydro-2(1<em>H</em>)-azocinone;Heptanoic acid, 7-amino-, lactam;ω-Enantholactam;ζ-Enantholactam;Enantholactam;Oenantholactam;7-Aminoheptanoic acid lactam;Octahydroazocin-2-one;7-Heptanelactam;1-Aza-2-cyclooctanone;Perhydro-2-azocinone;2-Oxoheptamethyleneimine;ω-Heptanolactam;3,4,5,6,7,8-Hexahydro-2(1<em>H</em>)-azocinone;NSC 77088;Azocan-2-one;ω-Heptalactam",
    "duplicated_cas_no": "",
    "SMILES": "O=C1CCCCCCN1",
    "meta_data": {
        "InChI": "InChI=1S/C7H13NO/c9-7-5-3-1-2-4-6-8-7/h1-6H2,(H,8,9)",
        "InChIKey": null,
        "Canonical SMILES": "O=C1NCCCCCC1",
        "Molecular Formula": "C<sub>7</sub>H<sub>13</sub>NO",
        "Molecular Mass": "127.18",
        "Boiling Point": "148-150 °C",
        "Melting Point": "35-38 °C"
    }
}