{
    "cas_no": "3144-09-0",
    "key_name": "Methanesulfonamide",
    "cn_name": "甲基磺酰胺;甲磺酰胺;",
    "alternate_name": "Methanesulfonamide;Methylsulfonamide;Methanesulphonamide;Methanesulfonic amide;Mesylamide;NSC 191039;NSC 271",
    "duplicated_cas_no": "",
    "SMILES": "S(C)(N)(=O)=O",
    "meta_data": {
        "InChI": "InChI=1S/CH5NO2S/c1-5(2,3)4/h1H3,(H2,2,3,4)",
        "InChIKey": null,
        "Canonical SMILES": "O=S(=O)(N)C",
        "Molecular Formula": "CH<sub>5</sub>NO<sub>2</sub>S",
        "Molecular Mass": "95.12",
        "Melting Point": "88 °C"
    }
}