{
    "cas_no": "2973-77-5",
    "key_name": "3,5-Dibromo-4-hydroxybenzaldehyde",
    "cn_name": "3,5-二溴-4-羟基苯甲醛;二溴醛;",
    "alternate_name": "Benzaldehyde, 3,5-dibromo-4-hydroxy-;3,5-Dibromo-4-hydroxybenzaldehyde;4-Hydroxy-3,5-dibromobenzaldehyde;NSC 72944",
    "duplicated_cas_no": "",
    "SMILES": "C(=O)C1=CC(Br)=C(O)C(Br)=C1",
    "meta_data": {
        "InChI": "InChI=1S/C7H4Br2O2/c8-5-1-4(3-10)2-6(9)7(5)11/h1-3,11H",
        "InChIKey": null,
        "Canonical SMILES": "O=CC1=CC(Br)=C(O)C(Br)=C1",
        "Molecular Formula": "C<sub>7</sub>H<sub>4</sub>Br<sub>2</sub>O<sub>2</sub>",
        "Molecular Mass": "279.91",
        "Melting Point": "185 °C"
    }
}