{
    "cas_no": "5989-81-1",
    "key_name": "α-Lactose monohydrate",
    "cn_name": "α-乳糖;",
    "alternate_name": "α-<span class=\"text-smallcaps\">D</smallcap>-Glucopyranose, 4-<em>O</em>-β-<smallcap>D</span>-galactopyranosyl-, hydrate (1:1);Lactose, monohydrate, α-;α-<span class=\"text-smallcaps\">D</smallcap>-Glucopyranose, 4-<em>O</em>-β-<smallcap>D</span>-galactopyranosyl-, monohydrate;α-Lactose monohydrate;α-<span class=\"text-smallcaps\">D</span>-Lactose monohydrate;4-<em>O</em>-β-<span class=\"text-smallcaps\">D</smallcap>-Galactopyranosyl-α-<smallcap>D</span>-glucopyranose monohydrate;Zeparox;Pharmatose DCL 11;Pharmatose 50M;GranuLac 200;Lactose D 80;Pharmatose 90M;Granulac 230;Lactose 100M;Pharmatose 150M;Aeroflo 95;Aeroflo 65;Aeroflo 20;Inhalac 120;Inhalac 230;Pharmatose 325;Flowlac 200;Lactosum D 80;Lactochem;InhaLac 400",
    "duplicated_cas_no": "96231-95-7;60004-41-3",
    "SMILES": "O([C@@H]1[C@@H](CO)O[C@H](O)[C@H](O)[C@H]1O)[C@@H]2O[C@H](CO)[C@H](O)[C@H](O)[C@H]2O.O",
    "meta_data": {
        "InChI": "InChI=1S/C12H22O11.H2O/c13-1-3-5(15)6(16)9(19)12(22-3)23-10-4(2-14)21-11(20)8(18)7(10)17;/h3-20H,1-2H2;1H2/t3-,4-,5+,6+,7-,8-,9-,10-,11+,12+;/m1./s1",
        "InChIKey": null,
        "Canonical SMILES": "O.OCC1OC(OC2C(O)C(O)C(O)OC2CO)C(O)C(O)C1O",
        "Molecular Formula": "C<sub>12</sub>H<sub>22</sub>O<sub>11</sub>.H<sub>2</sub>O",
        "Molecular Mass": "",
        "Melting Point": "201-202 °C"
    }
}