{
    "cas_no": "32444-63-6",
    "key_name": "3-[4-(Dimethylamino)phenyl]-2-propenenitrile",
    "cn_name": null,
    "alternate_name": "2-Propenenitrile, 3-[4-(dimethylamino)phenyl]-;Cinnamonitrile, <em>p</em>-(dimethylamino)-;3-[4-(Dimethylamino)phenyl]-2-propenenitrile;NSC 122722;NSC 636938;4-<em>N</em>,<em>N</em>-Dimethylamino-β-cyanostyrene;3-[4-(Dimethylamino)phenyl]acrylonitrile",
    "duplicated_cas_no": "",
    "SMILES": "N(C)(C)C1=CC=C(C=CC#N)C=C1",
    "meta_data": {
        "InChI": "InChI=1S/C11H12N2/c1-13(2)11-7-5-10(6-8-11)4-3-9-12/h3-8H,1-2H3",
        "InChIKey": null,
        "Canonical SMILES": "N#CC=CC1=CC=C(C=C1)N(C)C",
        "Molecular Formula": "C<sub>11</sub>H<sub>12</sub>N<sub>2</sub>",
        "Molecular Mass": "172.23",
        "Melting Point": "63 °C"
    }
}