{
    "cas_no": "2005-08-5",
    "key_name": "Benzoic acid, 4-chlorophenyl ester",
    "cn_name": "对氯苯基苯甲酸;",
    "alternate_name": "Benzoic acid, 4-chlorophenyl ester;Benzoic acid, <em>p</em>-chlorophenyl ester;Phenol, <em>p</em>-chloro-, benzoate;<em>p</em>-Chlorophenol benzoate;<em>p</em>-Chlorophenyl benzoate;4-Chlorophenyl benzoate;NSC 406605",
    "duplicated_cas_no": "",
    "SMILES": "C(OC1=CC=C(Cl)C=C1)(=O)C2=CC=CC=C2",
    "meta_data": {
        "InChI": "InChI=1S/C13H9ClO2/c14-11-6-8-12(9-7-11)16-13(15)10-4-2-1-3-5-10/h1-9H",
        "InChIKey": null,
        "Canonical SMILES": "O=C(OC1=CC=C(Cl)C=C1)C=2C=CC=CC2",
        "Molecular Formula": "C<sub>13</sub>H<sub>9</sub>ClO<sub>2</sub>",
        "Molecular Mass": "232.66",
        "Melting Point": "87-87.5 °C"
    }
}