{
    "cas_no": "693-21-0",
    "key_name": "Diethylene glycol dinitrate",
    "cn_name": "二乙二醇二硝酸酯;",
    "alternate_name": "Ethanol, 2,2′-oxybis-, 1,1′-dinitrate;Diethylene glycol, dinitrate;Ethanol, 2,2′-oxybis-, dinitrate;Diglycol dinitrate;Dinitrodiglycol;Oxydiethylene nitrate;2,2′-Oxydiethanol dinitrate;DEGDN;DEGN;Diethylene glycol dinitrate;2-(2-Nitrooxyethoxy)ethyl Nitrate",
    "duplicated_cas_no": "66492-77-1",
    "SMILES": "C(ON(=O)=O)COCCON(=O)=O",
    "meta_data": {
        "InChI": "InChI=1S/C4H8N2O7/c7-5(8)12-3-1-11-2-4-13-6(9)10/h1-4H2",
        "InChIKey": null,
        "Canonical SMILES": "O=N(=O)OCCOCCON(=O)=O",
        "Molecular Formula": "C<sub>4</sub>H<sub>8</sub>N<sub>2</sub>O<sub>7</sub>",
        "Molecular Mass": "196.12",
        "Boiling Point": "139 °C @ Press: 7 Torr",
        "Melting Point": "2 °C",
        "Density": "1.3890 g/cm³ @ Temp: 16 °C"
    }
}