{
    "cas_no": "349-57-5",
    "key_name": "3-(Trifluoromethyl)-5-nitrophenol",
    "cn_name": "3-硝基-5-(三氟甲基)苯酚;",
    "alternate_name": "Phenol, 3-nitro-5-(trifluoromethyl)-;<em>m</em>-Cresol, α,α,α-trifluoro-5-nitro-;3-Nitro-5-(trifluoromethyl)phenol;3-(Trifluoromethyl)-5-nitrophenol;3-Nitro-5-trifluoromethylphenol",
    "duplicated_cas_no": "",
    "SMILES": "C(F)(F)(F)C1=CC(N(=O)=O)=CC(O)=C1",
    "meta_data": {
        "InChI": "InChI=1S/C7H4F3NO3/c8-7(9,10)4-1-5(11(13)14)3-6(12)2-4/h1-3,12H",
        "InChIKey": null,
        "Canonical SMILES": "O=N(=O)C1=CC(O)=CC(=C1)C(F)(F)F",
        "Molecular Formula": "C<sub>7</sub>H<sub>4</sub>F<sub>3</sub>NO<sub>3</sub>",
        "Molecular Mass": "207.11",
        "Melting Point": "92 °C"
    }
}