{
    "cas_no": "58-33-3",
    "key_name": "Promethazine hydrochloride",
    "cn_name": "盐酸异丙嗪;10-(2-二甲基氨基-1-丙基)吩噻嗪盐酸盐;N,N,alpha-三甲基-10H-吩噻嗪-10-乙胺盐酸盐;",
    "alternate_name": "10<em>H</em>-Phenothiazine-10-ethanamine, <em>N</em>,<em>N</em>,α-trimethyl-, hydrochloride (1:1);Phenothiazine, 10-[2-(dimethylamino)propyl]-, monohydrochloride;10<em>H</em>-Phenothiazine-10-ethanamine, <em>N</em>,<em>N</em>,α-trimethyl-, monohydrochloride;10-[2-(Dimethylamino)propyl]phenothiazine hydrochloride;Plletia;Promethazine hydrochloride;Phenergan;Promethazine chloride;Promethazine monohydrochloride;Atosil;Fenergan;Diprazin;Pipolfen;Diprasine;Romergan;Pipolphen;Romergan hydrochloride;Kinetosin;Pyrethia;Promethazinium chloride;Phena;Promasun;Hiberna;Phencen;Dorme;Phenergan VC;Fellozine;Remsed;Lergigan;Genphen;Prorex;Fenazil;Anergan 25;Anergan 50;Duplamin;Prothazine;Mepergan;Provigan;Phanergan D;NSC 231688;Himazin",
    "duplicated_cas_no": "16639-38-6;88208-28-0",
    "SMILES": "C(C(N(C)C)C)N1C=2C(SC=3C1=CC=CC3)=CC=CC2.Cl",
    "meta_data": {
        "InChI": "InChI=1S/C17H20N2S.ClH/c1-13(18(2)3)12-19-14-8-4-6-10-16(14)20-17-11-7-5-9-15(17)19;/h4-11,13H,12H2,1-3H3;1H",
        "InChIKey": null,
        "Canonical SMILES": "Cl.S1C=2C=CC=CC2N(C=3C=CC=CC13)CC(N(C)C)C",
        "Molecular Formula": "C<sub>17</sub>H<sub>20</sub>N<sub>2</sub>S.ClH",
        "Molecular Mass": "",
        "Melting Point": "230-232 °C"
    }
}