{
    "cas_no": "96-91-3",
    "key_name": "Picramic acid",
    "cn_name": "苦氨酸;4,6-二硝基-2-氨基苯酚;",
    "alternate_name": "Phenol, 2-amino-4,6-dinitro-;2-Amino-4,6-dinitrophenol;C.I. Oxidation Base 21;4,6-Dinitro-2-aminophenol;Fourrine 4R;Fourrine 93;Furro 4R;Picramic acid;Zoba 4R;2,4-Dinitro-6-aminophenol;6-Amino-2,4-dinitrophenol;1-Amino-2-hydroxy-3,5-dinitrobenzene;1-Amino-3,5-dinitro-2-hydroxybenzene;1-Hydroxy-2-amino-4,6-dinitrobenzene;NSC 36939;NSC 4861",
    "duplicated_cas_no": "",
    "SMILES": "N(=O)(=O)C1=CC(N(=O)=O)=CC(N)=C1O",
    "meta_data": {
        "InChI": "InChI=1S/C6H5N3O5/c7-4-1-3(8(11)12)2-5(6(4)10)9(13)14/h1-2,10H,7H2",
        "InChIKey": null,
        "Canonical SMILES": "O=N(=O)C1=CC(N)=C(O)C(=C1)N(=O)=O",
        "Molecular Formula": "C<sub>6</sub>H<sub>5</sub>N<sub>3</sub>O<sub>5</sub>",
        "Molecular Mass": "199.12",
        "Melting Point": "169 °C"
    }
}