{
    "cas_no": "52899-07-7",
    "key_name": "<span class=\"text-smallcaps\">L</smallcap>-Prolyl-<smallcap>L</span>-leucine",
    "cn_name": null,
    "alternate_name": "<span class=\"text-smallcaps\">L</smallcap>-Leucine, <smallcap>L</span>-prolyl-;<span class=\"text-smallcaps\">L</smallcap>-Leucine, <em>N</em>-<smallcap>L</span>-prolyl-;Leucine, <em>N</em>-<span class=\"text-smallcaps\">L</span>-prolyl-;<span class=\"text-smallcaps\">L</smallcap>-Prolyl-<smallcap>L</span>-leucine;Prolylleucine;56: PN: WO03052099 PAAA: 85 claimed protein;435: PN: WO2005081628 SEQID: 437 claimed protein;1: PN: US20130295106 PAGE: 130 claimed sequence;31: PN: WO2020097235 SEQID: 260 claimed protein;126: PN: WO2022170619 SEQID: 479 claimed protein;130: PN: WO2022171192 SEQID: 479 claimed protein;651: PN: WO2022215055 SEQID: 651 claimed protein",
    "duplicated_cas_no": "",
    "SMILES": "C(N[C@@H](CC(C)C)C(O)=O)(=O)[C@@H]1CCCN1",
    "meta_data": {
        "InChI": "InChI=1S/C11H20N2O3/c1-7(2)6-9(11(15)16)13-10(14)8-4-3-5-12-8/h7-9,12H,3-6H2,1-2H3,(H,13,14)(H,15,16)/t8-,9-/m0/s1",
        "InChIKey": null,
        "Canonical SMILES": "O=C(O)C(NC(=O)C1NCCC1)CC(C)C",
        "Molecular Formula": "C<sub>11</sub>H<sub>20</sub>N<sub>2</sub>O<sub>3</sub>",
        "Molecular Mass": "228.29",
        "Melting Point": "231-232 °C"
    }
}