{
    "cas_no": "16874-12-7",
    "key_name": "<span class=\"text-smallcaps\">L</span>-Tyrosine 1,1-dimethylethyl ester",
    "cn_name": null,
    "alternate_name": "<span class=\"text-smallcaps\">L</span>-Tyrosine, 1,1-dimethylethyl ester;Tyrosine, <em>tert</em>-butyl ester, <span class=\"text-smallcaps\">L</span>-;Tyrosine, <em>tert</em>-butyl ester;<span class=\"text-smallcaps\">L</span>-Tyrosine 1,1-dimethylethyl ester;<em>tert</em>-Butyl <span class=\"text-smallcaps\">L</span>-tyrosinate;<span class=\"text-smallcaps\">L</span>-Tyrosine <em>tert</em>-butyl ester;(<em>S</em>)-2-Amino-3-(4-hydroxyphenyl)propionic acid tert-butyl ester;<em>tert</em>-Butyl (<em>S</em>)-2-amino-3-(4-hydroxyphenyl)propanoate",
    "duplicated_cas_no": "",
    "SMILES": "C([C@@H](C(OC(C)(C)C)=O)N)C1=CC=C(O)C=C1",
    "meta_data": {
        "InChI": "InChI=1S/C13H19NO3/c1-13(2,3)17-12(16)11(14)8-9-4-6-10(15)7-5-9/h4-7,11,15H,8,14H2,1-3H3/t11-/m0/s1",
        "InChIKey": null,
        "Canonical SMILES": "O=C(OC(C)(C)C)C(N)CC1=CC=C(O)C=C1",
        "Molecular Formula": "C<sub>13</sub>H<sub>19</sub>NO<sub>3</sub>",
        "Molecular Mass": "237.29",
        "Melting Point": "143-145 °C"
    }
}