{
    "cas_no": "55-80-1",
    "key_name": "<em>N</em>,<em>N</em>-Dimethyl-4-[2-(3-methylphenyl)diazenyl]benzenamine",
    "cn_name": "2,3-二氟苯乙酮;",
    "alternate_name": "Benzenamine, <em>N</em>,<em>N</em>-dimethyl-4-[2-(3-methylphenyl)diazenyl]-;Aniline, <em>N</em>,<em>N</em>-dimethyl-<em>p</em>-(<em>m</em>-tolylazo)-;Benzenamine, <em>N</em>,<em>N</em>-dimethyl-4-[(3-methylphenyl)azo]-;<em>N</em>,<em>N</em>-Dimethyl-4-[2-(3-methylphenyl)diazenyl]benzenamine;4-(Dimethylamino)-3′-methylazobenzene;<em>N</em>,<em>N</em>-Dimethyl-<em>p</em>-(<em>m</em>-tolylazo)aniline;MDAB;3′-MDAB;3′-Methyl-4-(dimethylamino)azobenzene;3-Methyl-4′-(dimethylamino)azobenzene;<em>N</em>,<em>N</em>,3′-Trimethyl-4-aminoazobenzene;3′-Methyl-<em>N</em>,<em>N</em>-dimethyl-4-aminoazobenzene;<em>N</em>,<em>N</em>-Dimethyl-4-(3-methylphenylazo)aniline;NSC 59783",
    "duplicated_cas_no": "",
    "SMILES": "N(=NC1=CC(C)=CC=C1)C2=CC=C(N(C)C)C=C2",
    "meta_data": {
        "InChI": "InChI=1S/C15H17N3/c1-12-5-4-6-14(11-12)17-16-13-7-9-15(10-8-13)18(2)3/h4-11H,1-3H3",
        "InChIKey": null,
        "Canonical SMILES": "N(=NC1=CC=CC(=C1)C)C2=CC=C(C=C2)N(C)C",
        "Molecular Formula": "C<sub>15</sub>H<sub>17</sub>N<sub>3</sub>",
        "Molecular Mass": "239.32",
        "Melting Point": "138-139 °C"
    }
}