{
    "cas_no": "39260-89-4",
    "key_name": "Benzeneethanamine, 4-bromo-, hydrochloride (1:1)",
    "cn_name": "2-(4-溴苯)乙胺盐酸盐;",
    "alternate_name": "Benzeneethanamine, 4-bromo-, hydrochloride (1:1);Benzeneethanamine, 4-bromo-, hydrochloride;Phenethylamine, <em>p</em>-bromo-, hydrochloride;2-(4-Bromophenyl)ethylamine hydrochloride;2-(4-Bromophenyl)-1-aminoethane hydrochloride",
    "duplicated_cas_no": "",
    "SMILES": "C(CN)C1=CC=C(Br)C=C1.Cl",
    "meta_data": {
        "InChI": "InChI=1S/C8H10BrN.ClH/c9-8-3-1-7(2-4-8)5-6-10;/h1-4H,5-6,10H2;1H",
        "InChIKey": null,
        "Canonical SMILES": "Cl.BrC1=CC=C(C=C1)CCN",
        "Molecular Formula": "C<sub>8</sub>H<sub>10</sub>BrN.ClH",
        "Molecular Mass": "",
        "Melting Point": "240-243 °C"
    }
}