{
    "cas_no": "2441-97-6",
    "key_name": "3-Chlorocyclohexene",
    "cn_name": "3-氯环己烯;",
    "alternate_name": "Cyclohexene, 3-chloro-;3-Chlorocyclohexene;3-Chloro-1-cyclohexene;3-Cyclohexenyl chloride;2-Cyclohexenyl chloride;1-Chloro-2-cyclohexene",
    "duplicated_cas_no": "150850-32-1",
    "SMILES": "ClC1CCCC=C1",
    "meta_data": {
        "InChI": "InChI=1S/C6H9Cl/c7-6-4-2-1-3-5-6/h2,4,6H,1,3,5H2",
        "InChIKey": null,
        "Canonical SMILES": "ClC1C=CCCC1",
        "Molecular Formula": "C<sub>6</sub>H<sub>9</sub>Cl",
        "Molecular Mass": "116.59",
        "Boiling Point": "62 °C @ Press: 35 Torr",
        "Density": "1.030 g/cm³ @ Temp: 20 °C"
    }
}