{
    "cas_no": "3900-45-6",
    "key_name": "2-Acetyl-6-methoxynaphthalene",
    "cn_name": "6-甲氧基-2-乙酰萘;",
    "alternate_name": "Ethanone, 1-(6-methoxy-2-naphthalenyl)-;2′-Acetonaphthone, 6′-methoxy-;1-(6-Methoxy-2-naphthalenyl)ethanone;2-Acetyl-6-methoxynaphthalene;6-Methoxy-2-acetylnaphthalene;6-Acetyl-2-methoxynaphthalene;1-(6-Methoxy-2-naphthalenyl)-1-ethanone;6′-Methoxy-2′-acetonaphthone;6-Methoxy-2-naphthyl methyl ketone;1-(6-Methoxy-2-naphthyl)-1-ethanone;NSC 105564;1-(2-Methoxynaphthalen-6-yl)ethanone;1-(6-Methoxy-2-naphthyl)ethanone;2-Methoxy-6-acetylnaphthalene",
    "duplicated_cas_no": "",
    "SMILES": "C(C)(=O)C1=CC2=C(C=C(OC)C=C2)C=C1",
    "meta_data": {
        "InChI": "InChI=1S/C13H12O2/c1-9(14)10-3-4-12-8-13(15-2)6-5-11(12)7-10/h3-8H,1-2H3",
        "InChIKey": null,
        "Canonical SMILES": "O=C(C1=CC=C2C=C(OC)C=CC2=C1)C",
        "Molecular Formula": "C<sub>13</sub>H<sub>12</sub>O<sub>2</sub>",
        "Molecular Mass": "200.23",
        "Boiling Point": "165-170 °C @ Press: 3-4 Torr",
        "Melting Point": "105 °C"
    }
}