{
    "cas_no": "26306-64-9",
    "key_name": "2-(2,4-Dichlorophenoxy)aniline",
    "cn_name": "2-(2,4-二氯苯氧基)苯胺;2\",4\"-二氯-2-氨基二苯醚;",
    "alternate_name": "Benzenamine, 2-(2,4-dichlorophenoxy)-;Aniline, <em>o</em>-(2,4-dichlorophenoxy)-;2-(2,4-Dichlorophenoxy)benzenamine;2-(2,4-Dichlorophenoxy)aniline;2-Amino-2′,4′-dichlorodiphenyl ether;NSC 89753;2-(2,4-Dichlorophenoxy)phenylamine",
    "duplicated_cas_no": "",
    "SMILES": "O(C1=C(Cl)C=C(Cl)C=C1)C2=C(N)C=CC=C2",
    "meta_data": {
        "InChI": "InChI=1S/C12H9Cl2NO/c13-8-5-6-11(9(14)7-8)16-12-4-2-1-3-10(12)15/h1-7H,15H2",
        "InChIKey": null,
        "Canonical SMILES": "ClC1=CC=C(OC=2C=CC=CC2N)C(Cl)=C1",
        "Molecular Formula": "C<sub>12</sub>H<sub>9</sub>Cl<sub>2</sub>NO",
        "Molecular Mass": "254.11",
        "Boiling Point": "133-138 °C @ Press: 0.1 Torr"
    }
}