{
    "cas_no": "123-76-2",
    "key_name": "Levulinic acid",
    "cn_name": "乙酰丙酸;",
    "alternate_name": "Pentanoic acid, 4-oxo-;Levulinic acid;4-Oxopentanoic acid;β-Acetylpropionic acid;γ-Ketovaleric acid;Laevulinic acid;Levulic acid;3-Acetylpropionic acid;4-Oxovaleric acid;4-Ketovaleric acid;NSC 3716;3-Oxobutanecarboxylic acid;3-Acetylpropanoic acid;Lev-OH",
    "duplicated_cas_no": "",
    "SMILES": "C(CC(O)=O)C(C)=O",
    "meta_data": {
        "InChI": "InChI=1S/C5H8O3/c1-4(6)2-3-5(7)8/h2-3H2,1H3,(H,7,8)",
        "InChIKey": null,
        "Canonical SMILES": "O=C(O)CCC(=O)C",
        "Molecular Formula": "C<sub>5</sub>H<sub>8</sub>O<sub>3</sub>",
        "Molecular Mass": "116.12",
        "Boiling Point": "245.5 °C",
        "Melting Point": "33 °C",
        "Density": "1.1447 g/cm³ @ Temp: 15.0 °C"
    }
}