{
    "cas_no": "55750-48-6",
    "key_name": "<em>N</em>-(Methoxycarbonyl)maleimide",
    "cn_name": "N-甲氧基羰基马来酰亚胺;",
    "alternate_name": "1<em>H</em>-Pyrrole-1-carboxylic acid, 2,5-dihydro-2,5-dioxo-, methyl ester;<em>N</em>-(Methoxycarbonyl)maleimide;<em>N</em>-(Carbomethoxy)maleimide;2,5-Dihydro-2,5-dioxopyrrole-1-carboxylic acid methyl ester",
    "duplicated_cas_no": "",
    "SMILES": "C(OC)(=O)N1C(=O)C=CC1=O",
    "meta_data": {
        "InChI": "InChI=1S/C6H5NO4/c1-11-6(10)7-4(8)2-3-5(7)9/h2-3H,1H3",
        "InChIKey": null,
        "Canonical SMILES": "O=C(OC)N1C(=O)C=CC1=O",
        "Molecular Formula": "C<sub>6</sub>H<sub>5</sub>NO<sub>4</sub>",
        "Molecular Mass": "155.11",
        "Melting Point": "60-61 °C"
    }
}