{
    "cas_no": "40235-68-5",
    "key_name": "1-(Acetyloxy)-3-chloro-2-propanone",
    "cn_name": "1-乙酰氧基-3-氯丙酮;",
    "alternate_name": "2-Propanone, 1-(acetyloxy)-3-chloro-;2-Propanone, 1-chloro-3-hydroxy-, acetate;1-(Acetyloxy)-3-chloro-2-propanone;3-Chloro-2-oxo-1-propanol, acetate;1-Chloro-3-acetoxy-2-propanone;1-Acetoxy-3-chloro-2-propanone;Chloroacetol acetate;1-Acetoxy-3-chloroacetone;3-Chloro-2-oxopropyl acetate;1-Acetyloxy-3-chloroacetone",
    "duplicated_cas_no": "",
    "SMILES": "C(COC(C)=O)(CCl)=O",
    "meta_data": {
        "InChI": "InChI=1S/C5H7ClO3/c1-4(7)9-3-5(8)2-6/h2-3H2,1H3",
        "InChIKey": null,
        "Canonical SMILES": "O=C(OCC(=O)CCl)C",
        "Molecular Formula": "C<sub>5</sub>H<sub>7</sub>ClO<sub>3</sub>",
        "Molecular Mass": "150.56",
        "Boiling Point": "112-114 °C @ Press: 16 Torr"
    }
}