{
    "cas_no": "2338-12-7",
    "key_name": "5-Nitrobenzotriazole",
    "cn_name": "5-硝基苯并三唑;硝基连三氮杂茚;",
    "alternate_name": "1<em>H</em>-Benzotriazole, 6-nitro-;1<em>H</em>-Benzotriazole, 5-nitro-;Benzotriazole, 5-nitro-;6-Nitro-1<em>H</em>-benzotriazole;6-Nitrobenzotriazole;5-Nitrobenzotriazole;5-Nitro-1<em>H</em>-benzotriazole;NSC 3132;NSC 66476;Verzone N-BTA;5-Nitro-1<em>H</em>-benzo[<em>d</em>][1,2,3]triazole",
    "duplicated_cas_no": "",
    "SMILES": "N(=O)(=O)C=1C=C2C(=CC1)N=NN2",
    "meta_data": {
        "InChI": "InChI=1S/C6H4N4O2/c11-10(12)4-1-2-5-6(3-4)8-9-7-5/h1-3H,(H,7,8,9)",
        "InChIKey": null,
        "Canonical SMILES": "O=N(=O)C=1C=CC=2N=NNC2C1",
        "Molecular Formula": "C<sub>6</sub>H<sub>4</sub>N<sub>4</sub>O<sub>2</sub>",
        "Molecular Mass": "164.12",
        "Melting Point": "217 °C"
    }
}