{
    "cas_no": "50910-55-9",
    "key_name": "2-Amino-3,5-dibromobenzaldehyde",
    "cn_name": "2-氨基-3,5-二溴苯甲醛;",
    "alternate_name": "Benzaldehyde, 2-amino-3,5-dibromo-;2-Amino-3,5-dibromobenzaldehyde;3,5-Dibromo-2-aminobenzaldehyde",
    "duplicated_cas_no": "",
    "SMILES": "C(=O)C1=C(N)C(Br)=CC(Br)=C1",
    "meta_data": {
        "InChI": "InChI=1S/C7H5Br2NO/c8-5-1-4(3-11)7(10)6(9)2-5/h1-3H,10H2",
        "InChIKey": null,
        "Canonical SMILES": "O=CC=1C=C(Br)C=C(Br)C1N",
        "Molecular Formula": "C<sub>7</sub>H<sub>5</sub>Br<sub>2</sub>NO",
        "Molecular Mass": "278.93",
        "Melting Point": "110 °C"
    }
}