{
    "cas_no": "874-24-8",
    "key_name": "3-Hydroxypicolinic acid",
    "cn_name": "3-羟基-2-吡啶甲酸;",
    "alternate_name": "2-Pyridinecarboxylic acid, 3-hydroxy-;Picolinic acid, 3-hydroxy-;3-Hydroxy-2-pyridinecarboxylic acid;3-Hydroxypicolinic acid;3-Hydroxy-2-carboxypyridine;2-Carboxy-3-hydroxypyridine",
    "duplicated_cas_no": "",
    "SMILES": "C(O)(=O)C1=C(O)C=CC=N1",
    "meta_data": {
        "InChI": "InChI=1S/C6H5NO3/c8-4-2-1-3-7-5(4)6(9)10/h1-3,8H,(H,9,10)",
        "InChIKey": null,
        "Canonical SMILES": "O=C(O)C1=NC=CC=C1O",
        "Molecular Formula": "C<sub>6</sub>H<sub>5</sub>NO<sub>3</sub>",
        "Molecular Mass": "139.11",
        "Melting Point": "214-215 °C (decomp)"
    }
}