{
    "cas_no": "40604-49-7",
    "key_name": "6-Chloro-2-naphthalenol",
    "cn_name": null,
    "alternate_name": "2-Naphthalenol, 6-chloro-;2-Naphthol, 6-chloro-;6-Chloro-2-naphthalenol;2-Chloro-6-naphthol;6-Chloro-2-naphthol;NSC 76587;6-Chloronaphthalen-2-ol",
    "duplicated_cas_no": "",
    "SMILES": "ClC1=CC2=C(C=C(O)C=C2)C=C1",
    "meta_data": {
        "InChI": "InChI=1S/C10H7ClO/c11-9-3-1-8-6-10(12)4-2-7(8)5-9/h1-6,12H",
        "InChIKey": null,
        "Canonical SMILES": "ClC=1C=CC2=CC(O)=CC=C2C1",
        "Molecular Formula": "C<sub>10</sub>H<sub>7</sub>ClO",
        "Molecular Mass": "178.62",
        "Melting Point": "116.5 °C"
    }
}