{
    "cas_no": "2302-88-7",
    "key_name": "Acetic acid, 2-(aminothioxomethyl)hydrazide",
    "cn_name": "4-乙酰基氨基硫脲;",
    "alternate_name": "Acetic acid, 2-(aminothioxomethyl)hydrazide;Semicarbazide, 1-acetyl-3-thio-;<em>N</em>-Acetylthiosemicarbazide;1-Acetylthiosemicarbazide;Acetylthiosemicarbazide;1-Acetyl-3-thiosemicarbazide;NSC 202518;2-Acetylhydrazinecarbothioamide",
    "duplicated_cas_no": "",
    "SMILES": "N(NC(N)=S)C(C)=O",
    "meta_data": {
        "InChI": "InChI=1S/C3H7N3OS/c1-2(7)5-6-3(4)8/h1H3,(H,5,7)(H3,4,6,8)",
        "InChIKey": null,
        "Canonical SMILES": "O=C(NNC(=S)N)C",
        "Molecular Formula": "C<sub>3</sub>H<sub>7</sub>N<sub>3</sub>OS",
        "Molecular Mass": "133.17",
        "Melting Point": "157 °C"
    }
}