{
    "cas_no": "198-55-0",
    "key_name": "Perylene",
    "cn_name": "苝;",
    "alternate_name": "Perylene;Dibenz[<em>de</em>,<em>kl</em>]anthracene;<em>peri</em>-Dinaphthalene;α-Perylene;NSC 6512;MeSH ID: D010569",
    "duplicated_cas_no": "77392-71-3;733006-66-1",
    "SMILES": "C12=C3C=4C=5C(C1=CC=CC2=CC=C3)=CC=CC5C=CC4",
    "meta_data": {
        "InChI": "InChI=1S/C20H12/c1-5-13-6-2-11-17-18-12-4-8-14-7-3-10-16(20(14)18)15(9-1)19(13)17/h1-12H",
        "InChIKey": null,
        "Canonical SMILES": "C1=CC=2C=CC=C3C4=CC=CC5=CC=CC(C(=C1)C23)=C54",
        "Molecular Formula": "C<sub>20</sub>H<sub>12</sub>",
        "Molecular Mass": "252.31",
        "Boiling Point": "497 °C",
        "Melting Point": "273-274 °C",
        "Density": "1.35 g/cm³"
    }
}