{
    "cas_no": "120-36-5",
    "key_name": "Dichlorprop",
    "cn_name": "2,4-滴丙酸;2-(2,4-二氯苯氧基)丙酸;",
    "alternate_name": "Propanoic acid, 2-(2,4-dichlorophenoxy)-;Propionic acid, 2-(2,4-dichlorophenoxy)-;2-(2,4-Dichlorophenoxy)propanoic acid;Cornox RK;2-(2,4-Dichlorophenoxy)propionic acid;Dichloroprop;Dichlorprop;2-(2,4-DP);2,4-DP;α-(2,4-Dichlorophenoxy)propionic acid;Hedonal DP;Celatox DP;Herbizid DP;U 46DP Fluid;Diprop;Canapur DP;Dichlorprop acid;DCP;AF 302;(±)-2-(2,4-Dichlorophenoxy)propanoic acid;(±)-2-(2,4-Dichlorophenoxy)propionic acid;(±)-2,4-DP;(±)-Dichlorprop;NSC 39624;Dicopur DP;2,4-DCPPA;2,4-Dichlorprop;2,4-Dichlorophenoxypropionic acid",
    "duplicated_cas_no": "7547-66-2",
    "SMILES": "O(C(C(O)=O)C)C1=C(Cl)C=C(Cl)C=C1",
    "meta_data": {
        "InChI": "InChI=1S/C9H8Cl2O3/c1-5(9(12)13)14-8-3-2-6(10)4-7(8)11/h2-5H,1H3,(H,12,13)",
        "InChIKey": null,
        "Canonical SMILES": "O=C(O)C(OC1=CC=C(Cl)C=C1Cl)C",
        "Molecular Formula": "C<sub>9</sub>H<sub>8</sub>Cl<sub>2</sub>O<sub>3</sub>",
        "Molecular Mass": "235.06",
        "Melting Point": "117.5-118.1 °C",
        "Density": "~1.42 g/cm³ (approx)"
    }
}