{
    "cas_no": "1802-30-8",
    "key_name": "[2,2′-Bipyridine]-5,5′-dicarboxylic acid",
    "cn_name": "2,2\"-联吡啶-5,5\"-二羧酸;",
    "alternate_name": "[2,2′-Bipyridine]-5,5′-dicarboxylic acid;6,6′-Binicotinic acid;5,5′-Dicarboxy-2,2′-bipyridine;2,2′-Bipyridyl-5,5′-dicarboxylic acid;5,5′-Dicarboxy-2,2′-bipyridyl",
    "duplicated_cas_no": "",
    "SMILES": "C(O)(=O)C1=CC=C(N=C1)C2=CC=C(C(O)=O)C=N2",
    "meta_data": {
        "InChI": "InChI=1S/C12H8N2O4/c15-11(16)7-1-3-9(13-5-7)10-4-2-8(6-14-10)12(17)18/h1-6H,(H,15,16)(H,17,18)",
        "InChIKey": null,
        "Canonical SMILES": "O=C(O)C1=CN=C(C=C1)C=2N=CC(=CC2)C(=O)O",
        "Molecular Formula": "C<sub>12</sub>H<sub>8</sub>N<sub>2</sub>O<sub>4</sub>",
        "Molecular Mass": "244.20",
        "Melting Point": "&gt;360 °C"
    }
}