{
    "cas_no": "941-69-5",
    "key_name": "<em>N</em>-Phenylmaleimide",
    "cn_name": "N-苯基马来酰亚胺;",
    "alternate_name": "1<em>H</em>-Pyrrole-2,5-dione, 1-phenyl-;Maleimide, <em>N</em>-phenyl-;1-Phenyl-1<em>H</em>-pyrrole-2,5-dione;Maleanil;<em>N</em>-Phenylmaleimide;Phenylmaleimide;Maleimidobenzene;<em>N</em>-Phenylmaleic acid imide;<em>N</em>-Phenylmaleic imide;<em>N</em>-Phenylmaleinimide;Imilex P;NSC 8183;1-Phenyl-pyrrole-2,5-dione;<em>N</em>-Phenylpyrrole-2,5-dione;1-Phenyl-2,5-dihydro-1<em>H</em>-pyrrole-2,5-dione;1-[4-(Acetoxy)phenyl]maleimide",
    "duplicated_cas_no": "",
    "SMILES": "O=C1N(C(=O)C=C1)C2=CC=CC=C2",
    "meta_data": {
        "InChI": "InChI=1S/C10H7NO2/c12-9-6-7-10(13)11(9)8-4-2-1-3-5-8/h1-7H",
        "InChIKey": null,
        "Canonical SMILES": "O=C1C=CC(=O)N1C=2C=CC=CC2",
        "Molecular Formula": "C<sub>10</sub>H<sub>7</sub>NO<sub>2</sub>",
        "Molecular Mass": "173.17",
        "Boiling Point": "181 °C @ Press: 27 Torr",
        "Melting Point": "90.5 °C",
        "Density": "1.405 g/cm³"
    }
}