{
    "cas_no": "1003-35-6",
    "key_name": "5-Amino-1,2-dihydro-3<em>H</em>-1,2,4-triazol-3-one",
    "cn_name": null,
    "alternate_name": "3<em>H</em>-1,2,4-Triazol-3-one, 5-amino-1,2-dihydro-;Δ<sup>2</sup>-1,2,4-Triazolin-5-one, 3-amino-;<em>s</em>-Triazol-3-ol, 5-amino-;5-Amino-1,2-dihydro-3<em>H</em>-1,2,4-triazol-3-one;3-Amino-5-hydroxy-1,2,4-triazole;NSC 138436;5-Amino-2,4-dihydro-3<em>H</em>-1,2,4-triazol-3-one;3-Amino-4,5-dihydro-1<em>H</em>-1,2,4-triazol-5-one;3-Amino-1,2,4-triazol-5-one",
    "duplicated_cas_no": "38144-96-6;41266-75-5",
    "SMILES": "NC=1NC(=O)NN1",
    "meta_data": {
        "InChI": "InChI=1S/C2H4N4O/c3-1-4-2(7)6-5-1/h(H4,3,4,5,6,7)",
        "InChIKey": null,
        "Canonical SMILES": "O=C1NN=C(N)N1",
        "Molecular Formula": "C<sub>2</sub>H<sub>4</sub>N<sub>4</sub>O",
        "Molecular Mass": "100.08",
        "Melting Point": "286-290 °C (decomp)"
    }
}