{
    "cas_no": "1119-72-8",
    "key_name": "<em>cis</em>,<em>cis</em>-Muconic acid",
    "cn_name": "顺,顺-已二烯二酸;顺式-已二烯二酸;顺式-2,4-已二烯二酸;",
    "alternate_name": "2,4-Hexadienedioic acid, (2<em>Z</em>,4<em>Z</em>)-;2,4-Hexadienedioic acid, (<em>Z</em>,<em>Z</em>)-;(2<em>Z</em>,4<em>Z</em>)-2,4-Hexadienedioic acid;<em>cis</em>,<em>cis</em>-Muconic acid;(<em>Z</em>,<em>Z</em>)-Muconic acid",
    "duplicated_cas_no": "",
    "SMILES": "C(\\C=C/C(O)=O)=C\\C(O)=O",
    "meta_data": {
        "InChI": "InChI=1S/C6H6O4/c7-5(8)3-1-2-4-6(9)10/h1-4H,(H,7,8)(H,9,10)/b3-1-,4-2-",
        "InChIKey": null,
        "Canonical SMILES": "O=C(O)C=CC=CC(=O)O",
        "Molecular Formula": "C<sub>6</sub>H<sub>6</sub>O<sub>4</sub>",
        "Molecular Mass": "142.11",
        "Melting Point": "195 °C",
        "Density": "1.360 g/cm³"
    }
}