{
    "cas_no": "17624-07-6",
    "key_name": "6-Mercaptonicotinic acid",
    "cn_name": "6-巯基烟酸;N-苄基-3-氧代哌啶-4-羧酸乙酯盐酸盐;",
    "alternate_name": "3-Pyridinecarboxylic acid, 1,6-dihydro-6-thioxo-;Nicotinic acid, 6-mercapto-;1,6-Dihydro-6-thioxo-3-pyridinecarboxylic acid;5-Carboxy-2-thiopyridone;6-Mercaptonicotinic acid;5-Carboxy-2-mercaptopyridine;6-Mercapto-3-pyridinecarboxylic acid;2-Mercaptopyridine-5-carboxylic acid",
    "duplicated_cas_no": "26215-43-0",
    "SMILES": "C(O)(=O)C=1C=CC(=S)NC1",
    "meta_data": {
        "InChI": "InChI=1S/C6H5NO2S/c8-6(9)4-1-2-5(10)7-3-4/h1-3H,(H,7,10)(H,8,9)",
        "InChIKey": null,
        "Canonical SMILES": "O=C(O)C=1C=CC(=S)NC1",
        "Molecular Formula": "C<sub>6</sub>H<sub>5</sub>NO<sub>2</sub>S",
        "Molecular Mass": "155.17",
        "Melting Point": "273-275 °C"
    }
}