{
    "cas_no": "2436-79-5",
    "key_name": "1<em>H</em>-Pyrrole-2,4-dicarboxylic acid, 3,5-dimethyl-, 2,4-diethyl ester",
    "cn_name": null,
    "alternate_name": "1<em>H</em>-Pyrrole-2,4-dicarboxylic acid, 3,5-dimethyl-, 2,4-diethyl ester;Pyrrole-2,4-dicarboxylic acid, 3,5-dimethyl-, diethyl ester;1<em>H</em>-Pyrrole-2,4-dicarboxylic acid, 3,5-dimethyl-, diethyl ester;2,4-Dimethyl-3,5-dicarbethoxypyrrole;Diethyl 3,5-dimethylpyrrole-2,4-dicarboxylate;Knorr's pyrrole;Diethyl 2,4-dimethylpyrrole-3,5-dicarboxylate;NSC 2046;NSC 5685;3,5-Dimethyl-1<em>H</em>-pyrrole-2,4-dicarboxylic acid diethyl ester;2,4-Diethoxycarbonyl-3,5-dimethylpyrrole;3,5-Bis(ethoxycarbonyl)-2,4-dimethyl-1(H)-pyrrole;2,4-Diethyl 3,5-dimethyl-1<em>H</em>-pyrrole-2,4-dicarboxylate;Diethyl 3,5-dimethyl-1<em>H</em>-pyrrole-2,4-dicarboxylate",
    "duplicated_cas_no": "",
    "SMILES": "C(OCC)(=O)C1=C(C)C(C(OCC)=O)=C(C)N1",
    "meta_data": {
        "InChI": "InChI=1S/C12H17NO4/c1-5-16-11(14)9-7(3)10(13-8(9)4)12(15)17-6-2/h13H,5-6H2,1-4H3",
        "InChIKey": null,
        "Canonical SMILES": "O=C(OCC)C=1NC(=C(C(=O)OCC)C1C)C",
        "Molecular Formula": "C<sub>12</sub>H<sub>17</sub>NO<sub>4</sub>",
        "Molecular Mass": "239.27",
        "Boiling Point": "140-142 °C @ Press: 7 Torr",
        "Melting Point": "126-130 °C",
        "Density": "1.051 g/cm³ @ Temp: 25 °C"
    }
}