{
    "cas_no": "8007-70-3",
    "key_name": "Anise oil",
    "cn_name": null,
    "alternate_name": "Anise oil;Oils, anise;Oils, essential, anise;Essential oils, anise;Aniseed oil;Anise oil;Oil of anise;Oils, Pimpinella anisum;Pimpinella anisum fruit oil;Oils, <em>Pimpinella</em><em>anisum</em> fruit;Anise seed oil;Oils, anise;Pimpinella anisum seed oil;Anise fruit oil",
    "duplicated_cas_no": "",
    "SMILES": "",
    "meta_data": {
        "InChI": "",
        "InChIKey": null,
        "Canonical SMILES": "",
        "Molecular Formula": "Unspecified",
        "Molecular Mass": "",
        "Melting Point": "14-19 °C",
        "Density": "0.978-0.988 g/cm³ @ Temp: 25 °C"
    }
}