{
    "uri": "substance/pt/8007703",
    "rn": "8007-70-3",
    "name": "Anise oil",
    "images": [],
    "inchi": "",
    "inchiKey": "",
    "smile": "",
    "canonicalSmile": "",
    "molecularFormula": "Unspecified",
    "molecularMass": "",
    "experimentalProperties": [
        {
            "name": "Melting Point",
            "property": "14-19 °C",
            "sourceNumber": 1
        },
        {
            "name": "Density",
            "property": "0.978-0.988 g/cm³ @ Temp: 25 °C",
            "sourceNumber": 1
        }
    ],
    "propertyCitations": [
        {
            "docUri": "",
            "sourceNumber": 1,
            "source": "Hazardous Substances Data Bank data were obtained from the National Library of Medicine (US)"
        }
    ],
    "synonyms": [
        "Anise oil",
        "Oils, anise",
        "Oils, essential, anise",
        "Essential oils, anise",
        "Aniseed oil",
        "Anise oil",
        "Oil of anise",
        "Oils, Pimpinella anisum",
        "Pimpinella anisum fruit oil",
        "Oils, <em>Pimpinella</em><em>anisum</em> fruit",
        "Anise seed oil",
        "Oils, anise",
        "Pimpinella anisum seed oil",
        "Anise fruit oil"
    ],
    "replacedRns": [],
    "hasMolfile": false,
    "source": "https://commonchemistry.cas.org/detail?cas_rn=8007-70-3"
}