{
    "cas_no": "63134-33-8",
    "key_name": "4-[[4-(Phenylmethoxy)phenyl]sulfonyl]phenol",
    "cn_name": "4-羟基-4\"-苄氧基二苯砜;4-苄氧苯基-4\"-羟基苯基砜;",
    "alternate_name": "Phenol, 4-[[4-(phenylmethoxy)phenyl]sulfonyl]-;4-[[4-(Phenylmethoxy)phenyl]sulfonyl]phenol;4-Benzyloxy-4′-hydroxydiphenyl sulfone;<em>p</em>-(<em>p</em>-Benzyloxyphenylsulfonyl)phenol;4-Hydroxy-4′-benzyloxydiphenyl sulfone;4-Benzyloxyphenyl-4′-hydroxyphenyl sulfone;BPS-BN;4-Benzyloxyphenyl 4-hydroxyphenyl sulfone;BPS-MA 3;4-[4-(Benzyloxy)benzenesulfonyl]phenol",
    "duplicated_cas_no": "",
    "SMILES": "S(=O)(=O)(C1=CC=C(OCC2=CC=CC=C2)C=C1)C3=CC=C(O)C=C3",
    "meta_data": {
        "InChI": "InChI=1S/C19H16O4S/c20-16-6-10-18(11-7-16)24(21,22)19-12-8-17(9-13-19)23-14-15-4-2-1-3-5-15/h1-13,20H,14H2",
        "InChIKey": null,
        "Canonical SMILES": "O=S(=O)(C1=CC=C(O)C=C1)C2=CC=C(OCC=3C=CC=CC3)C=C2",
        "Molecular Formula": "C<sub>19</sub>H<sub>16</sub>O<sub>4</sub>S",
        "Molecular Mass": "340.39",
        "Melting Point": "166-168 °C"
    }
}