{
    "cas_no": "38496-18-3",
    "key_name": "2,6-Dichloronicotinic acid",
    "cn_name": "2,6-二氯烟酸;",
    "alternate_name": "3-Pyridinecarboxylic acid, 2,6-dichloro-;2,6-Dichloro-3-pyridinecarboxylic acid;2,6-Dichloronicotinic acid;AC 39661",
    "duplicated_cas_no": "",
    "SMILES": "C(O)(=O)C1=C(Cl)N=C(Cl)C=C1",
    "meta_data": {
        "InChI": "InChI=1S/C6H3Cl2NO2/c7-4-2-1-3(6(10)11)5(8)9-4/h1-2H,(H,10,11)",
        "InChIKey": null,
        "Canonical SMILES": "O=C(O)C1=CC=C(Cl)N=C1Cl",
        "Molecular Formula": "C<sub>6</sub>H<sub>3</sub>Cl<sub>2</sub>NO<sub>2</sub>",
        "Molecular Mass": "192.00",
        "Melting Point": "143-147 °C"
    }
}