{
    "cas_no": "6701-13-9",
    "key_name": "Decanediol dimethacrylate",
    "cn_name": "2-甲基-2-丙烯酸-1,10-癸二酯;",
    "alternate_name": "2-Propenoic acid, 2-methyl-, 1,1′-(1,10-decanediyl) ester;Methacrylic acid, decamethylene ester;2-Propenoic acid, 2-methyl-, 1,10-decanediyl ester;1,10-Decanediol, dimethacrylate;1,1′-(1,10-Decanediyl) bis(2-methyl-2-propenoate);1,10-Bis(methacryloyloxy)decane;Decamethylene dimethacrylate;Decamethylene glycol dimethacrylate;Decamethylene methacrylate;DMM 10;1,10-Decamethylene glycol dimethacrylate;1,10-Decamethylene dimethacrylate;NK Ester DOD-N;Decanediol dimethacrylate;D3MA;DOD-N",
    "duplicated_cas_no": "119546-31-5",
    "SMILES": "O(C(C(C)=C)=O)CCCCCCCCCCOC(C(C)=C)=O",
    "meta_data": {
        "InChI": "InChI=1S/C18H30O4/c1-15(2)17(19)21-13-11-9-7-5-6-8-10-12-14-22-18(20)16(3)4/h1,3,5-14H2,2,4H3",
        "InChIKey": null,
        "Canonical SMILES": "O=C(OCCCCCCCCCCOC(=O)C(=C)C)C(=C)C",
        "Molecular Formula": "C<sub>18</sub>H<sub>30</sub>O<sub>4</sub>",
        "Molecular Mass": "310.43",
        "Boiling Point": "185-186 °C @ Press: 0.8 Torr"
    }
}