{
    "cas_no": "3690-10-6",
    "key_name": "Zebularine",
    "cn_name": null,
    "alternate_name": "2(1<em>H</em>)-Pyrimidinone, 1-β-<span class=\"text-smallcaps\">D</span>-ribofuranosyl-;1-β-<span class=\"text-smallcaps\">D</span>-Ribofuranosyl-2(1<em>H</em>)-pyrimidinone;4-Deoxyuridine;1-(β-<span class=\"text-smallcaps\">D</span>-Ribofuranosyl)-2-pyrimidone;Uridine, 4-deoxy-;Pyrimidin-2-one β-<span class=\"text-smallcaps\">D</span>-ribofuranoside;1-β-<span class=\"text-smallcaps\">D</span>-Ribofuranosyl-2-pyrimidinone;Zebularine;NSC 309132;1-(β-<span class=\"text-smallcaps\">D</span>-Ribofuranosyl)-1,2-dihydropyrimidin-2-one",
    "duplicated_cas_no": "22756-84-9",
    "SMILES": "O[C@H]1[C@@H](O[C@H](CO)[C@H]1O)N2C(=O)N=CC=C2",
    "meta_data": {
        "InChI": "InChI=1S/C9H12N2O5/c12-4-5-6(13)7(14)8(16-5)11-3-1-2-10-9(11)15/h1-3,5-8,12-14H,4H2/t5-,6-,7-,8-/m1/s1",
        "InChIKey": null,
        "Canonical SMILES": "O=C1N=CC=CN1C2OC(CO)C(O)C2O",
        "Molecular Formula": "C<sub>9</sub>H<sub>12</sub>N<sub>2</sub>O<sub>5</sub>",
        "Molecular Mass": "228.20",
        "Melting Point": "183 °C"
    }
}