{
    "cas_no": "6298-19-7",
    "key_name": "3-Amino-2-chloropyridine",
    "cn_name": "3-氨基-2-氯吡啶;",
    "alternate_name": "3-Pyridinamine, 2-chloro-;Pyridine, 3-amino-2-chloro-;2-Chloro-3-pyridinamine;3-Amino-2-chloropyridine;2-Chloro-3-aminopyridine;2-Chloro-3-pyridineamine;2-Chloropyridin-3-ylamine;NSC 45407;2-Chloro-3-pyridylamine",
    "duplicated_cas_no": "",
    "SMILES": "NC1=C(Cl)N=CC=C1",
    "meta_data": {
        "InChI": "InChI=1S/C5H5ClN2/c6-5-4(7)2-1-3-8-5/h1-3H,7H2",
        "InChIKey": null,
        "Canonical SMILES": "ClC1=NC=CC=C1N",
        "Molecular Formula": "C<sub>5</sub>H<sub>5</sub>ClN<sub>2</sub>",
        "Molecular Mass": "128.56",
        "Melting Point": "78-79 °C"
    }
}