{
    "cas_no": "76674-21-0",
    "key_name": "Flutriafol",
    "cn_name": null,
    "alternate_name": "1<em>H</em>-1,2,4-Triazole-1-ethanol, α-(2-fluorophenyl)-α-(4-fluorophenyl)-;α-(2-Fluorophenyl)-α-(4-fluorophenyl)-1<em>H</em>-1,2,4-triazole-1-ethanol;Flutriafol;R 152450;PP 450-5;PP 450;Impact;Impact (fungicide);Sinker;Rayora",
    "duplicated_cas_no": "87676-93-5;1135441-08-5",
    "SMILES": "C(CN1C=NC=N1)(O)(C2=C(F)C=CC=C2)C3=CC=C(F)C=C3",
    "meta_data": {
        "InChI": "InChI=1S/C16H13F2N3O/c17-13-7-5-12(6-8-13)16(22,9-21-11-19-10-20-21)14-3-1-2-4-15(14)18/h1-8,10-11,22H,9H2",
        "InChIKey": null,
        "Canonical SMILES": "FC1=CC=C(C=C1)C(O)(C=2C=CC=CC2F)CN3N=CN=C3",
        "Molecular Formula": "C<sub>16</sub>H<sub>13</sub>F<sub>2</sub>N<sub>3</sub>O",
        "Molecular Mass": "301.29",
        "Melting Point": "130 °C"
    }
}