{
    "cas_no": "14852-31-4",
    "key_name": "2-Hexadecanol",
    "cn_name": "2-十六烷醇;",
    "alternate_name": "2-Hexadecanol;(±)-2-Hexadecanol;NSC 87605",
    "duplicated_cas_no": "34019-44-8",
    "SMILES": "C(CCCCCCCC)CCCCCC(C)O",
    "meta_data": {
        "InChI": "InChI=1S/C16H34O/c1-3-4-5-6-7-8-9-10-11-12-13-14-15-16(2)17/h16-17H,3-15H2,1-2H3",
        "InChIKey": null,
        "Canonical SMILES": "OC(C)CCCCCCCCCCCCCC",
        "Molecular Formula": "C<sub>16</sub>H<sub>34</sub>O",
        "Molecular Mass": "242.44",
        "Boiling Point": "314 °C",
        "Melting Point": "44 °C"
    }
}