{
    "cas_no": "59160-29-1",
    "key_name": "Lidofenin",
    "cn_name": "尼多非林;",
    "alternate_name": "Glycine, <em>N</em>-(carboxymethyl)-<em>N</em>-[2-[(2,6-dimethylphenyl)amino]-2-oxoethyl]-;<em>N</em>-(Carboxymethyl)-<em>N</em>-[2-[(2,6-dimethylphenyl)amino]-2-oxoethyl]glycine;<em>N</em>-(2,6-Dimethylphenylcarbamoylmethyl)iminodiacetic acid;HIDA;Lidofenin;<em>N</em>-(2,6-Dimethylacetanilide)iminodiacetic acid;2-[(Carboxymethyl)([[(2,6-dimethylphenyl)carbamoyl]methyl])amino]acetic acid",
    "duplicated_cas_no": "73121-98-9",
    "SMILES": "N(C(CN(CC(O)=O)CC(O)=O)=O)C1=C(C)C=CC=C1C",
    "meta_data": {
        "InChI": "InChI=1S/C14H18N2O5/c1-9-4-3-5-10(2)14(9)15-11(17)6-16(7-12(18)19)8-13(20)21/h3-5H,6-8H2,1-2H3,(H,15,17)(H,18,19)(H,20,21)",
        "InChIKey": null,
        "Canonical SMILES": "O=C(O)CN(CC(=O)O)CC(=O)NC=1C(=CC=CC1C)C",
        "Molecular Formula": "C<sub>14</sub>H<sub>18</sub>N<sub>2</sub>O<sub>5</sub>",
        "Molecular Mass": "294.30",
        "Melting Point": "202 °C"
    }
}