{
    "cas_no": "4118-51-8",
    "key_name": "1-Methylethyl α-hydroxybenzeneacetate",
    "cn_name": null,
    "alternate_name": "Benzeneacetic acid, α-hydroxy-, 1-methylethyl ester;Mandelic acid, isopropyl ester;1-Methylethyl α-hydroxybenzeneacetate;Isopropyl mandelate;(±)-Isopropyl mandelate;(±)-Mandelic acid isopropyl ester;NSC 6582;Isopropyl 2-hydroxy-2-phenylacetate;Mandelic acid isopropyl ester",
    "duplicated_cas_no": "60536-99-4",
    "SMILES": "C(C(OC(C)C)=O)(O)C1=CC=CC=C1",
    "meta_data": {
        "InChI": "InChI=1S/C11H14O3/c1-8(2)14-11(13)10(12)9-6-4-3-5-7-9/h3-8,10,12H,1-2H3",
        "InChIKey": null,
        "Canonical SMILES": "O=C(OC(C)C)C(O)C=1C=CC=CC1",
        "Molecular Formula": "C<sub>11</sub>H<sub>14</sub>O<sub>3</sub>",
        "Molecular Mass": "194.23",
        "Boiling Point": "142 °C @ Press: 20 Torr"
    }
}