{
    "cas_no": "2913-97-5",
    "key_name": "1,3-Dihydro-1,3-dioxo-2<em>H</em>-isoindole-2-acetaldehyde",
    "cn_name": "N-(2-乙醛基)邻苯二甲酰亚胺;",
    "alternate_name": "2<em>H</em>-Isoindole-2-acetaldehyde, 1,3-dihydro-1,3-dioxo-;Phthalimide, <em>N</em>-(formylmethyl)-;1,3-Dihydro-1,3-dioxo-2<em>H</em>-isoindole-2-acetaldehyde;Phthalimidoacetaldehyde;1,3-Dioxo-2-isoindolineacetaldehyde;Phthalylglycine aldehyde;2-Phthalimidoacetaldehyde;<em>N</em>-(Formylmethyl)phthalimide;<em>N</em>-(2-Oxoethyl)phthalimide;(1,3-Dioxo-1,3-dihydroisoindol-2-yl)acetaldehyde;NSC 30242;2-(1,3-Dioxo-1,3-dihydro-2<em>H</em>-isoindol-2-yl)acetaldehyde;2-(1,3-Dioxoisoindolin-2-yl)acetaldehyde;2-(1,3-Dioxo-1,3-dihydroisoindol-2-yl)acetaldehyde;2-(1,3-Dioxoisoindol-2-yl)acetaldehyde;2-(1,3-Dioxo-2,3-dihydro-1<em>H</em>-isoindol-2-yl)acetaldehyde;1,3-Dihydro-1,3-dioxo-2Hisoindole-2-acetaldehyde",
    "duplicated_cas_no": "",
    "SMILES": "O=C1C=2C(C(=O)N1CC=O)=CC=CC2",
    "meta_data": {
        "InChI": "InChI=1S/C10H7NO3/c12-6-5-11-9(13)7-3-1-2-4-8(7)10(11)14/h1-4,6H,5H2",
        "InChIKey": null,
        "Canonical SMILES": "O=CCN1C(=O)C=2C=CC=CC2C1=O",
        "Molecular Formula": "C<sub>10</sub>H<sub>7</sub>NO<sub>3</sub>",
        "Molecular Mass": "189.17",
        "Melting Point": "114.5 °C"
    }
}