{
    "cas_no": "135158-54-2",
    "key_name": "Acibenzolar-<em>S</em>-methyl",
    "cn_name": "阿拉酸式苯-S-甲基;阿拉酸式苯-S-甲基标准品;",
    "alternate_name": "1,2,3-Benzothiadiazole-7-carbothioic acid, <em>S</em>-methyl ester;CGA 245704;Actigard;Benzothiadiazole;BTH;Acibenzolar-<em>S</em>-methyl;Bendicar;Bion;Bion (pesticide);BTH (agrochemical);Bion 50WG;Bion 49;Actigard AM 87;Bion 500WG",
    "duplicated_cas_no": "1135442-78-2",
    "SMILES": "C(SC)(=O)C1=C2C(=CC=C1)N=NS2",
    "meta_data": {
        "InChI": "InChI=1S/C8H6N2OS2/c1-12-8(11)5-3-2-4-6-7(5)13-10-9-6/h2-4H,1H3",
        "InChIKey": null,
        "Canonical SMILES": "O=C(SC)C1=CC=CC=2N=NSC21",
        "Molecular Formula": "C<sub>8</sub>H<sub>6</sub>N<sub>2</sub>OS<sub>2</sub>",
        "Molecular Mass": "210.28",
        "Boiling Point": "~267 °C (approx)",
        "Melting Point": "132.9 °C"
    }
}