{
    "cas_no": "4333-19-1",
    "key_name": "5-Methyl-3-phenyl-2-thioxo-4-imidazolidinone",
    "cn_name": "苯基硫代乙内酰脲-丙氨酸;",
    "alternate_name": "4-Imidazolidinone, 5-methyl-3-phenyl-2-thioxo-;Hydantoin, 5-methyl-3-phenyl-2-thio-;5-Methyl-3-phenyl-2-thioxo-4-imidazolidinone;Alanine phenylthiohydantoin;Alanine 3-phenyl-2-thiohydantoin;PTH-alanine;<span class=\"text-smallcaps\">DL</span>-α-Alanine phenylthiohydantoin;<span class=\"text-smallcaps\">DL</span>-Alanine phenylthiohydantoin;Phenylthiohydantoin <span class=\"text-smallcaps\">DL</span>-alanine",
    "duplicated_cas_no": "31364-92-8",
    "SMILES": "O=C1N(C(=S)NC1C)C2=CC=CC=C2",
    "meta_data": {
        "InChI": "InChI=1S/C10H10N2OS/c1-7-9(13)12(10(14)11-7)8-5-3-2-4-6-8/h2-7H,1H3,(H,11,14)",
        "InChIKey": null,
        "Canonical SMILES": "O=C1N(C=2C=CC=CC2)C(=S)NC1C",
        "Molecular Formula": "C<sub>10</sub>H<sub>10</sub>N<sub>2</sub>OS",
        "Molecular Mass": "206.26",
        "Melting Point": "185 °C"
    }
}