{
    "cas_no": "20633-84-5",
    "key_name": "Luteolin 7-<em>O</em>-rutinoside",
    "cn_name": null,
    "alternate_name": "4<em>H</em>-1-Benzopyran-4-one, 7-[[6-<em>O</em>-(6-deoxy-α-<span class=\"text-smallcaps\">L</smallcap>-mannopyranosyl)-β-<smallcap>D</span>-glucopyranosyl]oxy]-2-(3,4-dihydroxyphenyl)-5-hydroxy-;Scolymoside;Glucopyranoside, luteolin-7 6-<em>O</em>-(6-deoxy-α-<span class=\"text-smallcaps\">L</smallcap>-mannopyranosyl)-, β-<smallcap>D</span>-;7-[[6-<em>O</em>-(6-Deoxy-α-<span class=\"text-smallcaps\">L</smallcap>-mannopyranosyl)-β-<smallcap>D</span>-glucopyranosyl]oxy]-2-(3,4-dihydroxyphenyl)-5-hydroxy-4<em>H</em>-1-benzopyran-4-one;Luteolin 7-rutinoside;7-Rutinosylluteolin;Luteolin 7-<em>O</em>-rutinoside;Luteolin 7-β-rutinoside;Skolimoside;Luteolin-7-<em>O</em>-β-<span class=\"text-smallcaps\">D</span>-rutinoside;5,7,3′,4′-Tetrahydroxyflavone 7-<em>O</em>-rutinoside;Luteolin 7-<em>O</em>-α-<span class=\"text-smallcaps\">L</smallcap>-rhamnosyl-(1→6)-β-<smallcap>D</span>-glucopyranoside;Scolimoside;Luteolin 7-<em>O</em>-α-<span class=\"text-smallcaps\">L</smallcap>-rhamnopyranosyl-(1→6)-β-<smallcap>D</span>-glucopyranoside",
    "duplicated_cas_no": "18695-03-9;52610-42-1",
    "SMILES": "O=C1C=2C(OC(=C1)C3=CC(O)=C(O)C=C3)=CC(O[C@@H]4O[C@H](CO[C@H]5[C@H](O)[C@H](O)[C@@H](O)[C@H](C)O5)[C@@H](O)[C@H](O)[C@H]4O)=CC2O",
    "meta_data": {
        "InChI": "InChI=1S/C27H30O15/c1-9-20(32)22(34)24(36)26(39-9)38-8-18-21(33)23(35)25(37)27(42-18)40-11-5-14(30)19-15(31)7-16(41-17(19)6-11)10-2-3-12(28)13(29)4-10/h2-7,9,18,20-30,32-37H,8H2,1H3/t9-,18+,20-,21+,22+,23-,24+,25+,26+,27+/m0/s1",
        "InChIKey": null,
        "Canonical SMILES": "O=C1C=C(OC2=CC(OC3OC(COC4OC(C)C(O)C(O)C4O)C(O)C(O)C3O)=CC(O)=C12)C=5C=CC(O)=C(O)C5",
        "Molecular Formula": "C<sub>27</sub>H<sub>30</sub>O<sub>15</sub>",
        "Molecular Mass": "594.52",
        "Melting Point": "192-196 °C"
    }
}