{
    "cas_no": "105-53-3",
    "key_name": "Diethyl malonate",
    "cn_name": "丙二酸二乙酯;",
    "alternate_name": "Propanedioic acid, 1,3-diethyl ester;Malonic acid, diethyl ester;Propanedioic acid, diethyl ester;Carbethoxyacetic ester;Dicarbethoxymethane;Diethyl malonate;Diethyl propanedioate;Ethyl malonate;Methanedicarboxylic acid diethyl ester;Diethyl propane-1,3-dioate;NSC 136903;NSC 8864;Malonate diethyl ester",
    "duplicated_cas_no": "145601-68-9",
    "SMILES": "C(CC(OCC)=O)(OCC)=O",
    "meta_data": {
        "InChI": "InChI=1S/C7H12O4/c1-3-10-6(8)5-7(9)11-4-2/h3-5H2,1-2H3",
        "InChIKey": null,
        "Canonical SMILES": "O=C(OCC)CC(=O)OCC",
        "Molecular Formula": "C<sub>7</sub>H<sub>12</sub>O<sub>4</sub>",
        "Molecular Mass": "160.17",
        "Boiling Point": "200 °C",
        "Melting Point": "-50 °C",
        "Density": "1.04460 g/cm³ @ Temp: 30 °C"
    }
}