{
    "cas_no": "557-05-1",
    "key_name": "Zinc stearate",
    "cn_name": null,
    "alternate_name": "Octadecanoic acid, zinc salt (2:1);Stearic acid, zinc salt;Octadecanoic acid, zinc salt;Dermarone;Metallac;Metasap 576;Synpro stearate;Zinc stearate;Talculin Z;Zinc octadecanoate;Zinc distearate;Stavinor ZN-E;Dibasic zinc stearate;Synpro ABG;Hidorin Z 7;Petrac ZN 44HS;Lubrazinc W;Z 2000;Hidorin E 619;SZ 2000;Hidorin Z 7-30;RSN 131HS;SZ-DF 2;Synpro DLG 20;Hidorin F 115;Hidorin F 930;SZ-DFF;DLG 20;ACF;KV 85A1;Hidorin D 523;Hidorin E 366;Coad 20;Stavinor Cecavon ZN;SZ-T;ZN-K;Zinc Stearate G;Liquazinc AQ 90;Afco-Disper ZD;Zinc Stearate GP;Disperso D;Zinkum 5;PG 2000;SZ-PG;Efukokemu ZNS-P;Synpro ACF;SZ-P;Z 7-30;SZ-TF;SZ-PF;Hidorin SZ 40;GF 200;Zinc Stearate GF 200;SAK-ZS-P;SAK-ZS-PLB;SZ-DF-PF;Zinc Stearate L;R 1004;ZNS-P;F 930;Hymicron F 930;Hymicron ZK 349;F 115;MR 450;Hymicron LIII;ZNS-S;F 155 (salt);F 155;Hidorin L 111;Z 7-40;Daiwax ZP;L 111;MZN 2;Hymicron Z 7-30;Nissan Electol MZ 2;SZ 100;SZ 100 (release agent);ZS 101;Hymicron L 111;DBZ;DLG 20B;SP 100ZB;Hidorin Z 8-30;Zinc Stearate N;Zn-St;Synpro DLG 20A;Shinryu FZ;Daiwax ZF;Liga 101;DLG 20A;Hymicron ZJ 557;EZ 104;Hidorin Z 8-36;Electol MZ 2;E 366;MZ 2;Hymicron F 115;Hidorin H 943;LG 3;LG 3 (salt);AFCO-Chem ZNS-F;Z 2000 (salt);NF-SZ;Ligastab ZN 70;CG 221;Hidorin L 536;ES-Z;MFX 50J3;Adeka 730;Fero NF-SZ;Hidorin Z 8;TL 1021;K 994;SPZ 100F;ZnFP;Daiwax Z;Afco Chem ZNS 730;LBT 1870;BT 1817;Ferro 44HS;BT 1819;TV-P;BT 1819A;Synpro 44HS;HCZ 01204;Hidorin P 7-30;TV-A;S 181 (salt);S 181;PLB;ZSE 2;EZ 101;EZ 103;NMFH 104;Finalux SS;SPZ 100;Ergoterm SZ;BT 1826;SZ 20000;1097A (additive);1097A;BT 1818;ADK Stab AP 546;Coad 27P;EC 994C;BS 2818;SK 611;Yuqiang 5500;YT 500;TV;TP 800;DZ 101;S 100;S 100 (salt);ZS-P;Z 325;Hidorin Z 7-40;MR 14;Zinc stearate 33238;ZP;TV 1;Sakai SZ 2000;L 806;Tannan Wax FZ;Synpro S 1200;Nissan Elector MZ-2;ZN-STN;H 6319;NA 095;JH 01;WZS 0211;JH 01 (salt);Zincum TX;Zhenghao X 36;X 36;BS 2818A;Hanwei TP 200;TP 200;Jinxin N 858;IADZNSTAV 300;AV 300;Ligastar Zn 1010;C 0311520223;GZ 1042;ZnSt 8577;ZF;Zincum PS;ZSP 302X;S 888;Hanwei 800;BT 1839;Ligastar ZN 101;S 919;KZ 509;AV 302;ZNS-F;Z 1809;Z-G;Ligastar ZN 101C;Z 820683;Ligastar 101/6;SAK-ZS-TGF;Shinaka Lead ZS 101;Zinc Stearate GP 200;BT 2818;GX 1 (salt);GX 1;Afcochem CS-S;Acmec S 77400;YF 6633;X 120 (salt);X 120;NB 60 (nucleating agent);NB 60;BR 3T;Ligastar ZN 101/6;Ligastar Zn 101/6;Hi-Flow MI;ZS-TW",
    "duplicated_cas_no": "8028-87-3;72535-55-8;256482-37-8;2045719-86-4",
    "SMILES": "C(CCCCCCCCCCC)CCCCCC(O)=O.[Zn]",
    "meta_data": {
        "InChI": "InChI=1S/C18H36O2.Zn/c1-2-3-4-5-6-7-8-9-10-11-12-13-14-15-16-17-18(19)20;/h2-17H2,1H3,(H,19,20);",
        "InChIKey": null,
        "Canonical SMILES": "[Zn].O=C(O)CCCCCCCCCCCCCCCCC",
        "Molecular Formula": "C<sub>18</sub>H<sub>36</sub>O<sub>2</sub>.<sup>1</sup>/<sub>2</sub>Zn",
        "Molecular Mass": "",
        "Melting Point": "130 °C",
        "Density": "1.095 g/cm³"
    }
}