{
    "cas_no": "191605-10-4",
    "key_name": "(<em>S</em>,<em>S</em>)-Di-<em>p</em>-anisoyltartaric acid",
    "cn_name": "D-(+)-二对甲氧基苯甲酰酒石酸;",
    "alternate_name": "Butanedioic acid, 2,3-bis[(4-methoxybenzoyl)oxy]-, (2<em>S</em>,3<em>S</em>)-;Butanedioic acid, 2,3-bis[(4-methoxybenzoyl)oxy]-, [<em>S</em>-(<em>R</em>*,<em>R</em>*)]-;(2<em>S</em>,3<em>S</em>)-2,3-Bis[(4-methoxybenzoyl)oxy]butanedioic acid;(<em>S</em>,<em>S</em>)-Di-<em>p</em>-anisoyltartaric acid;(2<em>S</em>,3<em>S</em>)-(+)-Di(<em>p</em>-anisoyl)tartaric acid;Di(+)-(<em>p</em>-anisoyl)-<span class=\"text-smallcaps\">D</span>-tartrate",
    "duplicated_cas_no": "",
    "SMILES": "[C@@H]([C@H](OC(=O)C1=CC=C(OC)C=C1)C(O)=O)(OC(=O)C2=CC=C(OC)C=C2)C(O)=O",
    "meta_data": {
        "InChI": "InChI=1S/C20H18O10/c1-27-13-7-3-11(4-8-13)19(25)29-15(17(21)22)16(18(23)24)30-20(26)12-5-9-14(28-2)10-6-12/h3-10,15-16H,1-2H3,(H,21,22)(H,23,24)/t15-,16-/m0/s1",
        "InChIKey": null,
        "Canonical SMILES": "O=C(OC(C(=O)O)C(OC(=O)C1=CC=C(OC)C=C1)C(=O)O)C2=CC=C(OC)C=C2",
        "Molecular Formula": "C<sub>20</sub>H<sub>18</sub>O<sub>10</sub>",
        "Molecular Mass": "418.35",
        "Melting Point": "186 °C"
    }
}