{
    "cas_no": "27458-94-2",
    "key_name": "Isononanol",
    "cn_name": null,
    "alternate_name": "Isononanol;Isononyl alcohol;Exxsol 9;Neoflex 9;Exxal 9;Oxocol 900;Exxal 9S;Nonanol N",
    "duplicated_cas_no": "",
    "SMILES": "",
    "meta_data": {
        "InChI": "",
        "InChIKey": null,
        "Canonical SMILES": "",
        "Molecular Formula": "C<sub>9</sub>H<sub>20</sub>O",
        "Molecular Mass": "",
        "Boiling Point": "100 °C @ Press: 13 Torr",
        "Melting Point": "64-65 °C"
    }
}