{
    "cas_no": "22509-74-6",
    "key_name": "<em>N</em>-Carbethoxyphthalimide",
    "cn_name": "N-乙氧羰基邻苯二甲酰亚胺;",
    "alternate_name": "2<em>H</em>-Isoindole-2-carboxylic acid, 1,3-dihydro-1,3-dioxo-, ethyl ester;2-Isoindolinecarboxylic acid, 1,3-dioxo-, ethyl ester;Ethyl <em>N</em>-phthaloylcarbamate;<em>N</em>-Carbethoxyphthalimide;<em>N</em>-(Ethoxycarbonyl)phthalimide;<em>N</em>-Carboethoxyphthalimide;Nefkens' reagent;2-(Carbethoxy)phthalimide;Reagents, Nefkens';Carbethoxyphthalimide;NSC 76576;Ethyl 1,3-dioxo-1,3-dihydro-2<em>H</em>-isoindole-2-carboxylate;ethyl 1,3-dioxo-1,3-dihydro-2H-isoindole-2-carboxylate;Ethyl 1,3-dioxo-1,3-dihydroisoindole-2-carboxylate;1,3-Dioxo-1,3-dihydroisoindole-2-carboxylic acid ethyl ester;Ethyl 1,3-dioxoisoindoline-2-carboxylate;Ethyl 1,3-dioxo-2,3-dihydro-1<em>H</em>-isoindole-2-carboxylate;1,3-Dioxoisoindoline-2-carboxylic acid ethyl ester",
    "duplicated_cas_no": "2632247-56-2",
    "SMILES": "C(OCC)(=O)N1C(=O)C=2C(C1=O)=CC=CC2",
    "meta_data": {
        "InChI": "InChI=1S/C11H9NO4/c1-2-16-11(15)12-9(13)7-5-3-4-6-8(7)10(12)14/h3-6H,2H2,1H3",
        "InChIKey": null,
        "Canonical SMILES": "O=C(OCC)N1C(=O)C=2C=CC=CC2C1=O",
        "Molecular Formula": "C<sub>11</sub>H<sub>9</sub>NO<sub>4</sub>",
        "Molecular Mass": "219.19",
        "Melting Point": "90-92 °C"
    }
}