{
    "cas_no": "2922-83-0",
    "key_name": "<span class=\"text-smallcaps\">L</span>-Kynurenine",
    "cn_name": "L-犬尿氨酸;",
    "alternate_name": "Benzenebutanoic acid, α,2-diamino-γ-oxo-, (α<em>S</em>)-;Alanine, 3-anthraniloyl-, <span class=\"text-smallcaps\">L</span>-;Benzenebutanoic acid, α,2-diamino-γ-oxo-, (<em>S</em>)-;(α<em>S</em>)-α,2-Diamino-γ-oxobenzenebutanoic acid;<span class=\"text-smallcaps\">L</span>-Kynurenine;<span class=\"text-smallcaps\">L</span>-3-(<em>o</em>-Aminobenzoyl)alanine;Kynurenine;Kynurenin;3-Anthraniloylalanine;(2S)-4-(2-Aminophenyl)-2-azaniumyl-4-oxobutanoate;Benzenebutanoic acid, α,2-diamino-γ-oxo-",
    "duplicated_cas_no": "",
    "SMILES": "C(C[C@@H](C(O)=O)N)(=O)C1=C(N)C=CC=C1",
    "meta_data": {
        "InChI": "InChI=1S/C10H12N2O3/c11-7-4-2-1-3-6(7)9(13)5-8(12)10(14)15/h1-4,8H,5,11-12H2,(H,14,15)/t8-/m0/s1",
        "InChIKey": null,
        "Canonical SMILES": "O=C(O)C(N)CC(=O)C=1C=CC=CC1N",
        "Molecular Formula": "C<sub>10</sub>H<sub>12</sub>N<sub>2</sub>O<sub>3</sub>",
        "Molecular Mass": "208.21",
        "Melting Point": "219 °C (decomp)"
    }
}