{
    "cas_no": "66-27-3",
    "key_name": "Methyl methanesulfonate",
    "cn_name": "甲磺酸甲酯;",
    "alternate_name": "Methanesulfonic acid, methyl ester;Methyl methanesulphonate;MMS;Methyl methanesulfonate;Methyl methylsulfonate;NSC 50256;Methyl mesylate;MeSH ID: D008741",
    "duplicated_cas_no": "",
    "SMILES": "S(OC)(C)(=O)=O",
    "meta_data": {
        "InChI": "InChI=1S/C2H6O3S/c1-5-6(2,3)4/h1-2H3",
        "InChIKey": null,
        "Canonical SMILES": "O=S(=O)(OC)C",
        "Molecular Formula": "C<sub>2</sub>H<sub>6</sub>O<sub>3</sub>S",
        "Molecular Mass": "110.13",
        "Boiling Point": "203 °C @ Press: 753 Torr",
        "Melting Point": "20 °C",
        "Density": "1.2943 g/cm³ @ Temp: 20 °C"
    }
}