{
    "cas_no": "1032231-30-3",
    "key_name": "<em>B</em>-(5-Bromo-2-cyanophenyl)boronic acid",
    "cn_name": null,
    "alternate_name": "Boronic acid, <em>B</em>-(5-bromo-2-cyanophenyl)-;<em>B</em>-(5-Bromo-2-cyanophenyl)boronic acid;3-Bromo-6-cyanophenylboronic acid;(5-Bromo-2-cyanophenyl)boronic acid;(5-Bromo-2-cyanophenyl)boronicacid",
    "duplicated_cas_no": "",
    "SMILES": "B(O)(O)C1=C(C#N)C=CC(Br)=C1",
    "meta_data": {
        "InChI": "InChI=1S/C7H5BBrNO2/c9-6-2-1-5(4-10)7(3-6)8(11)12/h1-3,11-12H",
        "InChIKey": null,
        "Canonical SMILES": "N#CC1=CC=C(Br)C=C1B(O)O",
        "Molecular Formula": "C<sub>7</sub>H<sub>5</sub>BBrNO<sub>2</sub>",
        "Molecular Mass": "225.84",
        "Melting Point": "280-285 °C (decomp)"
    }
}