{
    "cas_no": "51-49-0",
    "key_name": "<span class=\"text-smallcaps\">D</span>-Thyroxine",
    "cn_name": "D-甲状腺素;右旋甲状腺素;O-(4-羟基-3,5-二碘苯基)-3,5-二碘-D-酪氨酸;",
    "alternate_name": "<span class=\"text-smallcaps\">D</span>-Tyrosine, <em>O</em>-(4-hydroxy-3,5-diiodophenyl)-3,5-diiodo-;Thyroxine, <span class=\"text-smallcaps\">D</span>-;<em>O</em>-(4-Hydroxy-3,5-diiodophenyl)-3,5-diiodo-<span class=\"text-smallcaps\">D</span>-tyrosine;Dextrothyroxine;<span class=\"text-smallcaps\">D</span>-Thyroxine;<span class=\"text-smallcaps\">D</span>-T<sub>4</sub>;3,3′,5,5′-Tetraiodo-<span class=\"text-smallcaps\">D</span>-thyronine;(R)-2-Amino-3-(4-(4-hydroxy-3,5-diiodophenoxy)-3,5-diiodophenyl)propanoicacid;MeSH ID: D003918",
    "duplicated_cas_no": "5541-84-4;83208-10-0",
    "SMILES": "O(C1=CC(I)=C(O)C(I)=C1)C2=C(I)C=C(C[C@H](C(O)=O)N)C=C2I",
    "meta_data": {
        "InChI": "InChI=1S/C15H11I4NO4/c16-8-4-7(5-9(17)13(8)21)24-14-10(18)1-6(2-11(14)19)3-12(20)15(22)23/h1-2,4-5,12,21H,3,20H2,(H,22,23)/t12-/m1/s1",
        "InChIKey": null,
        "Canonical SMILES": "O=C(O)C(N)CC1=CC(I)=C(OC2=CC(I)=C(O)C(I)=C2)C(I)=C1",
        "Molecular Formula": "C<sub>15</sub>H<sub>11</sub>I<sub>4</sub>NO<sub>4</sub>",
        "Molecular Mass": "776.87",
        "Melting Point": "229-230 °C (decomp)"
    }
}