{
    "cas_no": "82508-32-5",
    "key_name": "Pseudolaric acid A",
    "cn_name": null,
    "alternate_name": "2,4-Pentadienoic acid, 5-[(3<em>R</em>,4<em>S</em>,4a<em>S</em>,9a<em>R</em>)-4a-(acetyloxy)-3,4,4a,5,6,9-hexahydro-3,7-dimethyl-1-oxo-1<em>H</em>-4,9a-ethanocyclohepta[<em>c</em>]pyran-3-yl]-2-methyl-, (2<em>E</em>,4<em>E</em>)-;2,4-Pentadienoic acid, 5-[4a-(acetyloxy)-3,4,4a,5,6,9-hexahydro-3,7-dimethyl-1-oxo-1<em>H</em>-4,9a-ethanocyclohepta[<em>c</em>]pyran-3-yl]-2-methyl-, [3α(2<em>E</em>,4<em>E</em>),4α,4aα,9aα]-(-)-;1<em>H</em>-4,9a-Ethanocyclohepta[<em>c</em>]pyran, 2,4-pentadienoic acid deriv.;(2<em>E</em>,4<em>E</em>)-5-[(3<em>R</em>,4<em>S</em>,4a<em>S</em>,9a<em>R</em>)-4a-(Acetyloxy)-3,4,4a,5,6,9-hexahydro-3,7-dimethyl-1-oxo-1<em>H</em>-4,9a-ethanocyclohepta[<em>c</em>]pyran-3-yl]-2-methyl-2,4-pentadienoic acid;Pseudolaric acid A;NSC 615487",
    "duplicated_cas_no": "",
    "SMILES": "O(C(C)=O)[C@]12[C@]3(C(=O)O[C@@](/C=C/C=C(/C(O)=O)\\C)(C)[C@@]1(CC3)[H])CC=C(C)CC2",
    "meta_data": {
        "InChI": "InChI=1S/C22H28O6/c1-14-7-11-21-12-9-17(22(21,13-8-14)27-16(3)23)20(4,28-19(21)26)10-5-6-15(2)18(24)25/h5-7,10,17H,8-9,11-13H2,1-4H3,(H,24,25)/b10-5+,15-6+/t17-,20+,21+,22-/m0/s1",
        "InChIKey": null,
        "Canonical SMILES": "O=C(O)C(=CC=CC1(OC(=O)C23CC=C(C)CCC3(OC(=O)C)C1CC2)C)C",
        "Molecular Formula": "C<sub>22</sub>H<sub>28</sub>O<sub>6</sub>",
        "Molecular Mass": "388.45",
        "Melting Point": "206-207 °C"
    }
}