{
    "cas_no": "79944-56-2",
    "key_name": "Idazoxan hydrochloride",
    "cn_name": null,
    "alternate_name": "1<em>H</em>-Imidazole, 2-(2,3-dihydro-1,4-benzodioxin-2-yl)-4,5-dihydro-, hydrochloride (1:1);1<em>H</em>-Imidazole, 2-(2,3-dihydro-1,4-benzodioxin-2-yl)-4,5-dihydro-, monohydrochloride;1,4-Benzodioxin, 1<em>H</em>-imidazole deriv.;RX 781094;RX 781094A;(±)-Idazoxan monohydrochloride;Idazoxan hydrochloride;2-(2,3-Dihydrobenzo[<em>b</em>][1,4]dioxin-2-yl)-4,5-dihydro-1<em>H</em>-imidazole hydrochloride",
    "duplicated_cas_no": "109518-43-6;90755-83-2",
    "SMILES": "C1(OC=2C(OC1)=CC=CC2)C=3NCCN3.Cl",
    "meta_data": {
        "InChI": "InChI=1S/C11H12N2O2.ClH/c1-2-4-9-8(3-1)14-7-10(15-9)11-12-5-6-13-11;/h1-4,10H,5-7H2,(H,12,13);1H",
        "InChIKey": null,
        "Canonical SMILES": "Cl.N1=C(NCC1)C2OC=3C=CC=CC3OC2",
        "Molecular Formula": "C<sub>11</sub>H<sub>12</sub>N<sub>2</sub>O<sub>2</sub>.ClH",
        "Molecular Mass": "",
        "Melting Point": "205-207 °C"
    }
}