{
    "cas_no": "303149-14-6",
    "key_name": "1-Phenyl-3-[[3-(trifluoromethyl)phenyl]imino]-1,3-dihydro-2<em>H</em>-indol-2-one",
    "cn_name": null,
    "alternate_name": "2<em>H</em>-Indol-2-one, 1,3-dihydro-1-phenyl-3-[[3-(trifluoromethyl)phenyl]imino]-;1,3-Dihydro-1-phenyl-3-[[3-(trifluoromethyl)phenyl]imino]-2<em>H</em>-indol-2-one;SNAP 37889;1-Phenyl-3-[[3-(trifluoromethyl)phenyl]imino]-1,3-dihydro-2<em>H</em>-indol-2-one;HT 2157",
    "duplicated_cas_no": "",
    "SMILES": "O=C1N(C=2C(C1=NC3=CC(C(F)(F)F)=CC=C3)=CC=CC2)C4=CC=CC=C4",
    "meta_data": {
        "InChI": "InChI=1S/C21H13F3N2O/c22-21(23,24)14-7-6-8-15(13-14)25-19-17-11-4-5-12-18(17)26(20(19)27)16-9-2-1-3-10-16/h1-13H",
        "InChIKey": null,
        "Canonical SMILES": "O=C1C(=NC2=CC=CC(=C2)C(F)(F)F)C=3C=CC=CC3N1C=4C=CC=CC4",
        "Molecular Formula": "C<sub>21</sub>H<sub>13</sub>F<sub>3</sub>N<sub>2</sub>O",
        "Molecular Mass": "366.34",
        "Melting Point": "141-144 °C"
    }
}