{
    "cas_no": "352-87-4",
    "key_name": "2,2,2-Trifluoroethyl methacrylate",
    "cn_name": "甲基丙烯酸三氟乙酯;甲基丙烯酸2,2,2-三氟乙酯;",
    "alternate_name": "2-Propenoic acid, 2-methyl-, 2,2,2-trifluoroethyl ester;Methacrylic acid, 2,2,2-trifluoroethyl ester;2,2,2-Trifluoroethyl methacrylate;Viscoat 3FM;Light Ester M 3F;M 1110;Acryester 3FE;Fluorester;NSC 32617;Actyflon G 03;Trifluoroethyl methacrylate;M 3F;Trifluoromethylmethyl methacrylate;V 3FM;2,2,2-Trifluoroethyl 2-methylprop-2-enoate;3FM;G 03 (ester);G 03",
    "duplicated_cas_no": "918137-77-6;1212012-06-0",
    "SMILES": "O(C(C(C)=C)=O)CC(F)(F)F",
    "meta_data": {
        "InChI": "InChI=1S/C6H7F3O2/c1-4(2)5(10)11-3-6(7,8)9/h1,3H2,2H3",
        "InChIKey": null,
        "Canonical SMILES": "O=C(OCC(F)(F)F)C(=C)C",
        "Molecular Formula": "C<sub>6</sub>H<sub>7</sub>F<sub>3</sub>O<sub>2</sub>",
        "Molecular Mass": "168.11",
        "Boiling Point": "59 °C"
    }
}