{
    "cas_no": "534-03-2",
    "key_name": "Serinol",
    "cn_name": "丝氨醇;2-氨基-1,3-丙二醇;",
    "alternate_name": "1,3-Propanediol, 2-amino-;2-Amino-1,3-propanediol;Serinol;1,3-Dihydroxyisopropylamine;2-Aminoglycerol;1,3-Dihydroxy-2-propylamine;2-Amino-1,3-dihydroxypropane;2-Hydroxy-1-(hydroxymethyl)ethylamine;NSC 93746;2-Aminopropane-1,3-diol;1,3-Dihydroxypropan-2-amine",
    "duplicated_cas_no": "98923-20-7;126127-30-8;92533-31-8",
    "SMILES": "C(CO)(CO)N",
    "meta_data": {
        "InChI": "InChI=1S/C3H9NO2/c4-3(1-5)2-6/h3,5-6H,1-2,4H2",
        "InChIKey": null,
        "Canonical SMILES": "OCC(N)CO",
        "Molecular Formula": "C<sub>3</sub>H<sub>9</sub>NO<sub>2</sub>",
        "Molecular Mass": "91.11",
        "Boiling Point": "115-120 °C @ Press: 0.06 Torr",
        "Melting Point": "128 °C"
    }
}