{
    "cas_no": "105-12-4",
    "key_name": "1,4-Dinitrosobenzene",
    "cn_name": "1,4-二亚硝基苯;",
    "alternate_name": "Benzene, 1,4-dinitroso-;Benzene, <em>p</em>-dinitroso-;1,4-Dinitrosobenzene;<em>p</em>-Dinitrosobenzene;RD 3435-49;Actor DB;NSC 4771",
    "duplicated_cas_no": "",
    "SMILES": "N(=O)C1=CC=C(N=O)C=C1",
    "meta_data": {
        "InChI": "InChI=1S/C6H4N2O2/c9-7-5-1-2-6(8-10)4-3-5/h1-4H",
        "InChIKey": null,
        "Canonical SMILES": "O=NC1=CC=C(N=O)C=C1",
        "Molecular Formula": "C<sub>6</sub>H<sub>4</sub>N<sub>2</sub>O<sub>2</sub>",
        "Molecular Mass": "136.11",
        "Melting Point": "178-180 °C (decomp)"
    }
}