{
    "cas_no": "17100-65-1",
    "key_name": "Methyl 2-bromo-4-methoxybenzoate",
    "cn_name": null,
    "alternate_name": "Benzoic acid, 2-bromo-4-methoxy-, methyl ester;<em>p</em>-Anisic acid, 2-bromo-, methyl ester;Methyl 2-bromo-4-methoxybenzoate;2-Bromo-4-methoxybenzoic acid methyl ester",
    "duplicated_cas_no": "",
    "SMILES": "C(OC)(=O)C1=C(Br)C=C(OC)C=C1",
    "meta_data": {
        "InChI": "InChI=1S/C9H9BrO3/c1-12-6-3-4-7(8(10)5-6)9(11)13-2/h3-5H,1-2H3",
        "InChIKey": null,
        "Canonical SMILES": "O=C(OC)C1=CC=C(OC)C=C1Br",
        "Molecular Formula": "C<sub>9</sub>H<sub>9</sub>BrO<sub>3</sub>",
        "Molecular Mass": "245.07",
        "Melting Point": "29 °C"
    }
}