{
    "cas_no": "3914-19-0",
    "key_name": "1,3-Bis(1,1,2,2-tetrafluoroethoxy)benzene",
    "cn_name": "1,3-双(1,1,2,2-四氟乙氧基)苯;",
    "alternate_name": "Benzene, 1,3-bis(1,1,2,2-tetrafluoroethoxy)-;Benzene, <em>m</em>-bis(1,1,2,2-tetrafluoroethoxy)-;1,3-Bis(1,1,2,2-tetrafluoroethoxy)benzene",
    "duplicated_cas_no": "",
    "SMILES": "O(C(C(F)F)(F)F)C1=CC(OC(C(F)F)(F)F)=CC=C1",
    "meta_data": {
        "InChI": "InChI=1S/C10H6F8O2/c11-7(12)9(15,16)19-5-2-1-3-6(4-5)20-10(17,18)8(13)14/h1-4,7-8H",
        "InChIKey": null,
        "Canonical SMILES": "FC(F)C(F)(F)OC1=CC=CC(OC(F)(F)C(F)F)=C1",
        "Molecular Formula": "C<sub>10</sub>H<sub>6</sub>F<sub>8</sub>O<sub>2</sub>",
        "Molecular Mass": "310.14",
        "Boiling Point": "78 °C @ Press: 10 Torr"
    }
}