{
    "cas_no": "18791-98-5",
    "key_name": "3-Bromo-2-thiophenecarbonitrile",
    "cn_name": "3-溴噻吩-2-腈;",
    "alternate_name": "2-Thiophenecarbonitrile, 3-bromo-;3-Bromo-2-thiophenecarbonitrile;3-Bromo-2-cyanothiophene;2-Cyano-3-bromothiophene",
    "duplicated_cas_no": "",
    "SMILES": "C(#N)C1=C(Br)C=CS1",
    "meta_data": {
        "InChI": "InChI=1S/C5H2BrNS/c6-4-1-2-8-5(4)3-7/h1-2H",
        "InChIKey": null,
        "Canonical SMILES": "N#CC=1SC=CC1Br",
        "Molecular Formula": "C<sub>5</sub>H<sub>2</sub>BrNS",
        "Molecular Mass": "188.05",
        "Melting Point": "50 °C"
    }
}