{
    "cas_no": "637-32-1",
    "key_name": "Proguanil hydrochloride",
    "cn_name": null,
    "alternate_name": "Imidodicarbonimidic diamide, <em>N</em>-(4-chlorophenyl)-<em>N</em>′-(1-methylethyl)-, hydrochloride (1:1);Biguanide, 1-(<em>p</em>-chlorophenyl)-5-isopropyl-, monohydrochloride;Imidodicarbonimidic diamide, <em>N</em>-(4-chlorophenyl)-<em>N</em>′-(1-methylethyl)-, monohydrochloride;3359 RP;M 4888;SN 12,837;Chloroguanide hydrochloride;1-(<em>p</em>-Chlorophenyl)-5-isopropylbiguanide hydrochloride;Diguanyl;Drinupal hydrochloride;Guanatol hydrochloride;Paludrine hydrochloride;Palusil hydrochloride;Proguanil hydrochloride;Tirian hydrochloride;Paludrine;Chloroquanil;Tirian;Drinupal;SN 12837;Palusil;RP 3359;Guanatol;1-[<em>N</em>′-(4-Chlorophenyl)carbamimidamido]-<em>N</em>-(propan-2-yl)methanimidamide hydrochloride",
    "duplicated_cas_no": "",
    "SMILES": "N(C(NC(NC(C)C)=N)=N)C1=CC=C(Cl)C=C1.Cl",
    "meta_data": {
        "InChI": "InChI=1S/C11H16ClN5.ClH/c1-7(2)15-10(13)17-11(14)16-9-5-3-8(12)4-6-9;/h3-7H,1-2H3,(H5,13,14,15,16,17);1H",
        "InChIKey": null,
        "Canonical SMILES": "Cl.ClC1=CC=C(C=C1)NC(=N)NC(=N)NC(C)C",
        "Molecular Formula": "C<sub>11</sub>H<sub>16</sub>ClN<sub>5</sub>.ClH",
        "Molecular Mass": "",
        "Melting Point": "243-244 °C"
    }
}