{
    "cas_no": "433-95-4",
    "key_name": "1,2-Bis(trifluoromethyl)benzene",
    "cn_name": "1,2-双(三氟甲基)苯;",
    "alternate_name": "Benzene, 1,2-bis(trifluoromethyl)-;<em>o</em>-Xylene, α,α,α,α′,α′,α′-hexafluoro-;1,2-Bis(trifluoromethyl)benzene;<em>o</em>-Bis(trifluoromethyl)benzene;1,2-Di(trifluoromethyl)benzene;α,α,α,α′,α′,α′-Hexafluoro-<em>o</em>-xylene",
    "duplicated_cas_no": "",
    "SMILES": "C(F)(F)(F)C1=C(C(F)(F)F)C=CC=C1",
    "meta_data": {
        "InChI": "InChI=1S/C8H4F6/c9-7(10,11)5-3-1-2-4-6(5)8(12,13)14/h1-4H",
        "InChIKey": null,
        "Canonical SMILES": "FC(F)(F)C=1C=CC=CC1C(F)(F)F",
        "Molecular Formula": "C<sub>8</sub>H<sub>4</sub>F<sub>6</sub>",
        "Molecular Mass": "214.11",
        "Boiling Point": "140-142 °C"
    }
}