{
    "cas_no": "53-16-7",
    "key_name": "Estrone",
    "cn_name": "雌酚酮;",
    "alternate_name": "Estra-1,3,5(10)-trien-17-one, 3-hydroxy-;Estrone;3-Hydroxyestra-1,3,5(10)-trien-17-one;Aquacrine;Crinovaryl;Cristallovar;Crystogen;Destrone;Disynformon;Endofolliculina;1,3,5(10)-Estratrien-3-ol-17-one;Estrugenone;Estrusol;Femestrone injection;Femidyn;Folikrin;Folipex;Folisan;Follestrine;Follicular hormone;Folliculin;Follicunodis;Follidrin;Glandubolin;Hiestrone;Hormofollin;Hormovarine;3-Hydroxy-17-<em>keto</em>-estra-1,3,5-triene;Kestrone;Ketodestrin;Ketohydroxyestrin;Kolpon;Menagen;Menformon;Oestrin;Oestroform;Oestrone;Oestroperos;Ovifollin;Perlatan;Solliculin;Theelin;Thelykinin;Thynestron;Wynestron;Unden;3-Hydroxyoestra-1,3,5(10)-trien-17-one;3-Hydroxyestra-1,3,5(10)-triene-17-one;Estrovarin;Estron;Tokokin;Follestrol;Δ<sup>1,3,5(10)</sup>-Estratrien-3-ol-17-one;(+)-Estrone;Femestrone Inj.;Thelestrin;Fermidyn;NSC 9699;Folliculin (steroid);WAY 164397;Folliculinum;(8<em>R</em>,9<em>S</em>,13<em>S</em>,14<em>S</em>)-3-Hydroxy-13-methyl-6,7,8,9,11,12,13,14,15,16-decahydro-17<em>H</em>-cyclopenta[<em>a</em>]phenanthren-17-one;MeSH ID: D004970",
    "duplicated_cas_no": "37242-41-4",
    "SMILES": "C[C@@]12[C@]([C@]3([C@@](C=4C(CC3)=CC(O)=CC4)(CC1)[H])[H])(CCC2=O)[H]",
    "meta_data": {
        "InChI": "InChI=1S/C18H22O2/c1-18-9-8-14-13-5-3-12(19)10-11(13)2-4-15(14)16(18)6-7-17(18)20/h3,5,10,14-16,19H,2,4,6-9H2,1H3/t14-,15-,16+,18+/m1/s1",
        "InChIKey": null,
        "Canonical SMILES": "O=C1CCC2C3CCC4=CC(O)=CC=C4C3CCC12C",
        "Molecular Formula": "C<sub>18</sub>H<sub>22</sub>O<sub>2</sub>",
        "Molecular Mass": "270.37",
        "Boiling Point": "154 °C",
        "Melting Point": "260.2 °C",
        "Density": "1.236 g/cm³ @ Temp: 25 °C"
    }
}