{
    "cas_no": "54-92-2",
    "key_name": "Iproniazid",
    "cn_name": "间三氟甲基苯甲酸;3-(三氟甲基)苯甲酸;3-三氟甲基苯甲酸;",
    "alternate_name": "4-Pyridinecarboxylic acid, 2-(1-methylethyl)hydrazide;Isonicotinic acid, 2-isopropylhydrazide;IPN;Iprazid;Iproniazid;Marsilid;Iprazide;Iproniazide;Isonicotinic acid <em>N</em>′-isopropyl hydrazide;<em>N</em>′-Isopropylisonicotinoylhydrazide;Euphozid;Marsalid;1-Isonicotinoyl-2-isopropylhydrazine;MeSH ID: D007490",
    "duplicated_cas_no": "",
    "SMILES": "C(NNC(C)C)(=O)C=1C=CN=CC1",
    "meta_data": {
        "InChI": "InChI=1S/C9H13N3O/c1-7(2)11-12-9(13)8-3-5-10-6-4-8/h3-7,11H,1-2H3,(H,12,13)",
        "InChIKey": null,
        "Canonical SMILES": "O=C(NNC(C)C)C=1C=CN=CC1",
        "Molecular Formula": "C<sub>9</sub>H<sub>13</sub>N<sub>3</sub>O",
        "Molecular Mass": "179.22",
        "Melting Point": "150 °C (decomp)"
    }
}