{
    "cas_no": "7678-85-5",
    "key_name": "2′-Hydroxydaidzein",
    "cn_name": null,
    "alternate_name": "4<em>H</em>-1-Benzopyran-4-one, 3-(2,4-dihydroxyphenyl)-7-hydroxy-;Isoflavone, 2′,4′,7-trihydroxy-;3-(2,4-Dihydroxyphenyl)-7-hydroxy-4<em>H</em>-1-benzopyran-4-one;2′,4′,7-Trihydroxyisoflavone;7,2′,4′-Trihydroxyisoflavone;2′-Hydroxydaidzein;3-(2,4-Dihydroxyphenyl)-7-hydroxychromen-4-one",
    "duplicated_cas_no": "",
    "SMILES": "O=C1C(=COC=2C1=CC=C(O)C2)C3=C(O)C=C(O)C=C3",
    "meta_data": {
        "InChI": "InChI=1S/C15H10O5/c16-8-1-3-10(13(18)5-8)12-7-20-14-6-9(17)2-4-11(14)15(12)19/h1-7,16-18H",
        "InChIKey": null,
        "Canonical SMILES": "O=C1C(=COC2=CC(O)=CC=C12)C=3C=CC(O)=CC3O",
        "Molecular Formula": "C<sub>15</sub>H<sub>10</sub>O<sub>5</sub>",
        "Molecular Mass": "270.24",
        "Melting Point": "284 °C"
    }
}