{
    "cas_no": "89365-50-4",
    "key_name": "Salmeterol",
    "cn_name": "沙美特罗;2-(羟甲基)-4-[1-羟基-2-[6-(4-苯基丁氧)己基氨基]乙基]-苯酚;",
    "alternate_name": "1,3-Benzenedimethanol, 4-hydroxy-α<sup>1</sup>-[[[6-(4-phenylbutoxy)hexyl]amino]methyl]-;1,3-Benzenedimethanol, 4-hydroxy-α<sup>1</sup>-[[[6-(4-phenylbutoxy)hexyl]amino]methyl]-, (±)-;4-Hydroxy-α<sup>1</sup>-[[[6-(4-phenylbutoxy)hexyl]amino]methyl]-1,3-benzenedimethanol;Salmeterol;GR 33343X;2-Hydroxymethyl-4-[1-hydroxy-2-[6-(4-phenyl-butoxy)-hexylamino]-ethyl]-phenol;2-(Hydroxymethyl)-4-[1-hydroxy-2-[6-(4-phenylbutoxy)hexylamino]ethyl]phenol",
    "duplicated_cas_no": "94749-03-8;143982-78-9",
    "SMILES": "C(CNCCCCCCOCCCCC1=CC=CC=C1)(O)C2=CC(CO)=C(O)C=C2",
    "meta_data": {
        "InChI": "InChI=1S/C25H37NO4/c27-20-23-18-22(13-14-24(23)28)25(29)19-26-15-7-1-2-8-16-30-17-9-6-12-21-10-4-3-5-11-21/h3-5,10-11,13-14,18,25-29H,1-2,6-9,12,15-17,19-20H2",
        "InChIKey": null,
        "Canonical SMILES": "OC1=CC=C(C=C1CO)C(O)CNCCCCCCOCCCCC=2C=CC=CC2",
        "Molecular Formula": "C<sub>25</sub>H<sub>37</sub>NO<sub>4</sub>",
        "Molecular Mass": "415.57",
        "Melting Point": "75.5-76.5 °C"
    }
}