{
    "cas_no": "25321-09-9",
    "key_name": "Bis(1-methylethyl)benzene",
    "cn_name": null,
    "alternate_name": "Benzene, bis(1-methylethyl)-;Benzene, diisopropyl-;Bis(1-methylethyl)benzene;Diisopropylbenzene;Bis(isopropyl)benzene",
    "duplicated_cas_no": "",
    "SMILES": "",
    "meta_data": {
        "InChI": "",
        "InChIKey": null,
        "Canonical SMILES": "",
        "Molecular Formula": "C<sub>12</sub>H<sub>18</sub>",
        "Molecular Mass": "",
        "Boiling Point": "205 °C",
        "Melting Point": "-40 °C"
    }
}