{
    "cas_no": "72517-23-8",
    "key_name": "5-Bromo-2,3-dimethoxybenzoic acid",
    "cn_name": null,
    "alternate_name": "Benzoic acid, 5-bromo-2,3-dimethoxy-;5-Bromo-2,3-dimethoxybenzoic acid;NSC 281247;2,3-Dimethoxy-5-bromobenzoic acid",
    "duplicated_cas_no": "",
    "SMILES": "O(C)C1=C(C(O)=O)C=C(Br)C=C1OC",
    "meta_data": {
        "InChI": "InChI=1S/C9H9BrO4/c1-13-7-4-5(10)3-6(9(11)12)8(7)14-2/h3-4H,1-2H3,(H,11,12)",
        "InChIKey": null,
        "Canonical SMILES": "O=C(O)C=1C=C(Br)C=C(OC)C1OC",
        "Molecular Formula": "C<sub>9</sub>H<sub>9</sub>BrO<sub>4</sub>",
        "Molecular Mass": "261.07",
        "Melting Point": "120 °C"
    }
}