{
    "cas_no": "609-67-6",
    "key_name": "2-Iodobenzoyl chloride",
    "cn_name": null,
    "alternate_name": "Benzoyl chloride, 2-iodo-;Benzoyl chloride, <em>o</em>-iodo-;2-Iodobenzoyl chloride;<em>o</em>-Iodobenzoyl chloride;2-Iodobenzoic acid chloride",
    "duplicated_cas_no": "",
    "SMILES": "C(Cl)(=O)C1=C(I)C=CC=C1",
    "meta_data": {
        "InChI": "InChI=1S/C7H4ClIO/c8-7(10)5-3-1-2-4-6(5)9/h1-4H",
        "InChIKey": null,
        "Canonical SMILES": "O=C(Cl)C=1C=CC=CC1I",
        "Molecular Formula": "C<sub>7</sub>H<sub>4</sub>ClIO",
        "Molecular Mass": "266.46",
        "Boiling Point": "106-108 °C @ Press: 0.2 Torr",
        "Melting Point": "35-40 °C"
    }
}