{
    "cas_no": "2075-46-9",
    "key_name": "4-Nitropyrazole",
    "cn_name": "4-硝基吡唑;",
    "alternate_name": "1<em>H</em>-Pyrazole, 4-nitro-;Pyrazole, 4-nitro-;4-Nitro-1<em>H</em>-pyrazole;4-Nitropyrazole",
    "duplicated_cas_no": "116421-38-6",
    "SMILES": "N(=O)(=O)C=1C=NNC1",
    "meta_data": {
        "InChI": "InChI=1S/C3H3N3O2/c7-6(8)3-1-4-5-2-3/h1-2H,(H,4,5)",
        "InChIKey": null,
        "Canonical SMILES": "O=N(=O)C=1C=NNC1",
        "Molecular Formula": "C<sub>3</sub>H<sub>3</sub>N<sub>3</sub>O<sub>2</sub>",
        "Molecular Mass": "113.07",
        "Melting Point": "161-162 °C"
    }
}