{
    "cas_no": "92118-27-9",
    "key_name": "Fotemustine",
    "cn_name": null,
    "alternate_name": "Phosphonic acid, <em>P</em>-[1-[[[(2-chloroethyl)nitrosoamino]carbonyl]amino]ethyl]-, diethyl ester;Phosphonic acid, [1-[[[(2-chloroethyl)nitrosoamino]carbonyl]amino]ethyl]-, diethyl ester;Fotemustine;Muphoran;S 10036;Mustophorane;1-(2-Chloroethyl)-3-(1-diethoxyphosphorylethyl)-1-nitrosourea",
    "duplicated_cas_no": "",
    "SMILES": "P(C(NC(N(CCCl)N=O)=O)C)(OCC)(OCC)=O",
    "meta_data": {
        "InChI": "InChI=1S/C9H19ClN3O5P/c1-4-17-19(16,18-5-2)8(3)11-9(14)13(12-15)7-6-10/h8H,4-7H2,1-3H3,(H,11,14)",
        "InChIKey": null,
        "Canonical SMILES": "O=NN(C(=O)NC(C)P(=O)(OCC)OCC)CCCl",
        "Molecular Formula": "C<sub>9</sub>H<sub>19</sub>ClN<sub>3</sub>O<sub>5</sub>P",
        "Molecular Mass": "315.69",
        "Melting Point": "85 °C"
    }
}