{
    "cas_no": "102-04-5",
    "key_name": "Dibenzyl ketone",
    "cn_name": "1,3-二苯基丙酮;二苄基甲酮;二苯丙酮;",
    "alternate_name": "2-Propanone, 1,3-diphenyl-;1,3-Diphenyl-2-propanone;Dibenzyl ketone;Benzyl ketone;1,3-Diphenylacetone;1,3-Diphenylpropanone;α,α′-Diphenylacetone;NSC 220312;NSC 407392;NSC 4577;1,3-Diphenyl-1-acetone",
    "duplicated_cas_no": "",
    "SMILES": "C(C(CC1=CC=CC=C1)=O)C2=CC=CC=C2",
    "meta_data": {
        "InChI": "InChI=1S/C15H14O/c16-15(11-13-7-3-1-4-8-13)12-14-9-5-2-6-10-14/h1-10H,11-12H2",
        "InChIKey": null,
        "Canonical SMILES": "O=C(CC=1C=CC=CC1)CC=2C=CC=CC2",
        "Molecular Formula": "C<sub>15</sub>H<sub>14</sub>O",
        "Molecular Mass": "210.27",
        "Boiling Point": "331 °C",
        "Melting Point": "35 °C"
    }
}