{
    "cas_no": "488798-37-4",
    "key_name": "Methyl 6-(4-fluorophenyl)-1,2-dihydro-4-(1-methylethyl)-2-oxo-5-pyrimidinecarboxylate",
    "cn_name": null,
    "alternate_name": "5-Pyrimidinecarboxylic acid, 6-(4-fluorophenyl)-1,2-dihydro-4-(1-methylethyl)-2-oxo-, methyl ester;5-Pyrimidinecarboxylic acid, 4-(4-fluorophenyl)-1,2-dihydro-6-(1-methylethyl)-2-oxo-, methyl ester;Methyl 6-(4-fluorophenyl)-1,2-dihydro-4-(1-methylethyl)-2-oxo-5-pyrimidinecarboxylate;Methyl 4-(4-fluorophenyl)-2-hydroxy-6-isopropylpyrimidine-5-carboxylate",
    "duplicated_cas_no": "2253874-17-6",
    "SMILES": "C(OC)(=O)C1=C(NC(=O)N=C1C(C)C)C2=CC=C(F)C=C2",
    "meta_data": {
        "InChI": "InChI=1S/C15H15FN2O3/c1-8(2)12-11(14(19)21-3)13(18-15(20)17-12)9-4-6-10(16)7-5-9/h4-8H,1-3H3,(H,17,18,20)",
        "InChIKey": null,
        "Canonical SMILES": "O=C1N=C(C(C(=O)OC)=C(N1)C=2C=CC(F)=CC2)C(C)C",
        "Molecular Formula": "C<sub>15</sub>H<sub>15</sub>FN<sub>2</sub>O<sub>3</sub>",
        "Molecular Mass": "290.29",
        "Melting Point": "186-190 °C"
    }
}