{
    "cas_no": "610-88-8",
    "key_name": "Tenuazonic acid",
    "cn_name": null,
    "alternate_name": "2<em>H</em>-Pyrrol-2-one, 3-acetyl-1,5-dihydro-4-hydroxy-5-[(1<em>S</em>)-1-methylpropyl]-, (5<em>S</em>)-;3-Pyrrolin-2-one, 3-acetyl-5-<em>sec</em>-butyl-4-hydroxy-, <span class=\"text-smallcaps\">L</span>-;2<em>H</em>-Pyrrol-2-one, 3-acetyl-1,5-dihydro-4-hydroxy-5-(1-methylpropyl)-, [<em>S</em>-(<em>R</em>*,<em>R</em>*)]-;Tenuazonic acid;(5<em>S</em>)-3-Acetyl-1,5-dihydro-4-hydroxy-5-[(1<em>S</em>)-1-methylpropyl]-2<em>H</em>-pyrrol-2-one;<span class=\"text-smallcaps\">L</span>-Tenuazonic acid;AAC-toxin;MeSH ID: D013720",
    "duplicated_cas_no": "128892-49-9;16818-18-1",
    "SMILES": "[C@@H](CC)(C)[C@]1(C(O)=C(C(C)=O)C(=O)N1)[H]",
    "meta_data": {
        "InChI": "InChI=1S/C10H15NO3/c1-4-5(2)8-9(13)7(6(3)12)10(14)11-8/h5,8,13H,4H2,1-3H3,(H,11,14)/t5-,8-/m0/s1",
        "InChIKey": null,
        "Canonical SMILES": "O=C1NC(C(O)=C1C(=O)C)C(C)CC",
        "Molecular Formula": "C<sub>10</sub>H<sub>15</sub>NO<sub>3</sub>",
        "Molecular Mass": "197.23",
        "Melting Point": "74-76 °C"
    }
}