{
    "cas_no": "13051-21-3",
    "key_name": "1-Methyl 2,2-dimethylpropanedioate",
    "cn_name": null,
    "alternate_name": "Propanedioic acid, 2,2-dimethyl-, 1-methyl ester;Malonic acid, dimethyl-, monomethyl ester;Malonic acid, dimethyl-, methyl ester;Propanedioic acid, dimethyl-, monomethyl ester;1-Methyl 2,2-dimethylpropanedioate;Methyl 2,2-dimethylmalonate;3-Methoxy-2,2-dimethyl-3-oxopropanoic acid",
    "duplicated_cas_no": "",
    "SMILES": "C(C(OC)=O)(C(O)=O)(C)C",
    "meta_data": {
        "InChI": "InChI=1S/C6H10O4/c1-6(2,4(7)8)5(9)10-3/h1-3H3,(H,7,8)",
        "InChIKey": null,
        "Canonical SMILES": "O=C(O)C(C(=O)OC)(C)C",
        "Molecular Formula": "C<sub>6</sub>H<sub>10</sub>O<sub>4</sub>",
        "Molecular Mass": "146.14",
        "Boiling Point": "78.5 °C @ Press: 20 Torr",
        "Melting Point": "35-38 °C",
        "Density": "1.0624 g/cm³ @ Temp: 20 °C"
    }
}