{
    "cas_no": "1220-00-4",
    "key_name": "<em>N</em>,<em>N</em>′-Bis(4-chlorophenyl)thiourea",
    "cn_name": null,
    "alternate_name": "Thiourea, <em>N</em>,<em>N</em>′-bis(4-chlorophenyl)-;Carbanilide, 4,4′-dichlorothio-;<em>N</em>,<em>N</em>′-Bis(4-chlorophenyl)thiourea;<em>N</em>,<em>N</em>′-Bis(<em>p</em>-chlorophenyl)thiourea;1,3-Bis(<em>p</em>-chlorophenyl)thiourea;1,3-Bis(4-chlorophenyl)thiourea;NSC 56546",
    "duplicated_cas_no": "",
    "SMILES": "N(C(NC1=CC=C(Cl)C=C1)=S)C2=CC=C(Cl)C=C2",
    "meta_data": {
        "InChI": "InChI=1S/C13H10Cl2N2S/c14-9-1-5-11(6-2-9)16-13(18)17-12-7-3-10(15)4-8-12/h1-8H,(H2,16,17,18)",
        "InChIKey": null,
        "Canonical SMILES": "S=C(NC1=CC=C(Cl)C=C1)NC2=CC=C(Cl)C=C2",
        "Molecular Formula": "C<sub>13</sub>H<sub>10</sub>Cl<sub>2</sub>N<sub>2</sub>S",
        "Molecular Mass": "297.20",
        "Melting Point": "166-168 °C"
    }
}