{
    "cas_no": "51803-78-2",
    "key_name": "Nimesulide",
    "cn_name": "尼美舒利;N-(4-硝基-2-苯氧基苯基)甲基磺酰胺;",
    "alternate_name": "Methanesulfonamide, <em>N</em>-(4-nitro-2-phenoxyphenyl)-;<em>N</em>-(4-Nitro-2-phenoxyphenyl)methanesulfonamide;4′-Nitro-2′-phenoxymethanesulfonanilide;R 805;2-Phenoxy-4-nitromethanesulfonanilide;4-Nitro-2-phenoxymethanesulfonanilide;Nimesulide;Nisulid;Nimepast;R 805 (pharmaceutical);Mesulid;Aulin;Nimulid;Orthobid;Nise<sup>*</sup>Gel;Flogovital;Nimed;Sulidene;Nizer;Lizepat;Nimsulid;Sulide;Mesulide;Nimalox;Sulidan;Nise;Nicip;Methosulide",
    "duplicated_cas_no": "",
    "SMILES": "O(C1=C(NS(C)(=O)=O)C=CC(N(=O)=O)=C1)C2=CC=CC=C2",
    "meta_data": {
        "InChI": "InChI=1S/C13H12N2O5S/c1-21(18,19)14-12-8-7-10(15(16)17)9-13(12)20-11-5-3-2-4-6-11/h2-9,14H,1H3",
        "InChIKey": null,
        "Canonical SMILES": "O=N(=O)C1=CC=C(NS(=O)(=O)C)C(OC=2C=CC=CC2)=C1",
        "Molecular Formula": "C<sub>13</sub>H<sub>12</sub>N<sub>2</sub>O<sub>5</sub>S",
        "Molecular Mass": "308.31",
        "Melting Point": "143-144.5 °C",
        "Density": "0.485 g/cm³ @ Temp: 40 °C; Press: 67556 Torr"
    }
}