{
    "cas_no": "62697-73-8",
    "key_name": "Methionine sulfoxide",
    "cn_name": null,
    "alternate_name": "Methionine, <em>S</em>-oxide;Butanoic acid, 2-amino-4-(methylsulfinyl)-, (±)-;Butanoic acid, 2-amino-4-(methylsulfinyl)-;Butyric acid, α-amino-γ-(methylsulfinyl)-;Methionine sulfoxide;<span class=\"text-smallcaps\">DL</span>-Methionine sulfoxide;<em>dl</em>-Methionine sulfoxide;NSC 3084;2-Amino-4-methanesulfinylbutanoic acid;2-Azaniumyl-4-methylsulfinylbutanoate",
    "duplicated_cas_no": "454-41-1;4241-59-2",
    "SMILES": "C(CCS(C)=O)(C(O)=O)N",
    "meta_data": {
        "InChI": "InChI=1S/C5H11NO3S/c1-10(9)3-2-4(6)5(7)8/h4H,2-3,6H2,1H3,(H,7,8)",
        "InChIKey": null,
        "Canonical SMILES": "O=C(O)C(N)CCS(=O)C",
        "Molecular Formula": "C<sub>5</sub>H<sub>11</sub>NO<sub>3</sub>S",
        "Molecular Mass": "165.21",
        "Melting Point": "220-230 °C"
    }
}