{
    "cas_no": "5814-05-1",
    "key_name": "2-Chlorobenzoic acid hydrazide",
    "cn_name": "2-氯苯甲酰肼;",
    "alternate_name": "Benzoic acid, 2-chloro-, hydrazide;Benzoic acid, <em>o</em>-chloro-, hydrazide;<em>o</em>-Chlorobenzoic acid hydrazide;2-Chlorobenzoic acid hydrazide;<em>o</em>-Chlorobenzoylhydrazine;<em>o</em>-Chlorobenzhydrazide;(2-Chlorobenzoyl)hydrazine;2-Chlorobenzohydrazide;2-Chlorobenzoic hydrazide;<em>o</em>-Chlorobenzoyl hydrazide;2-Chlorobenzhydrazide;2-Chlorobenzoyl hydrazide;NSC 522531;2-Chlorobenzene-1-carbohydrazide",
    "duplicated_cas_no": "",
    "SMILES": "C(NN)(=O)C1=C(Cl)C=CC=C1",
    "meta_data": {
        "InChI": "InChI=1S/C7H7ClN2O/c8-6-4-2-1-3-5(6)7(11)10-9/h1-4H,9H2,(H,10,11)",
        "InChIKey": null,
        "Canonical SMILES": "O=C(NN)C=1C=CC=CC1Cl",
        "Molecular Formula": "C<sub>7</sub>H<sub>7</sub>ClN<sub>2</sub>O",
        "Molecular Mass": "170.60",
        "Melting Point": "118-120 °C"
    }
}