{
    "cas_no": "20717-79-7",
    "key_name": "1-Bromo-2-naphthalenecarboxylic acid",
    "cn_name": "1-溴-2-萘甲酸;",
    "alternate_name": "2-Naphthalenecarboxylic acid, 1-bromo-;2-Naphthoic acid, 1-bromo-;1-Bromo-2-naphthalenecarboxylic acid;1-Bromo-2-naphthoic acid;JFD 03900",
    "duplicated_cas_no": "",
    "SMILES": "BrC=1C2=C(C=CC1C(O)=O)C=CC=C2",
    "meta_data": {
        "InChI": "InChI=1S/C11H7BrO2/c12-10-8-4-2-1-3-7(8)5-6-9(10)11(13)14/h1-6H,(H,13,14)",
        "InChIKey": null,
        "Canonical SMILES": "O=C(O)C=1C=CC=2C=CC=CC2C1Br",
        "Molecular Formula": "C<sub>11</sub>H<sub>7</sub>BrO<sub>2</sub>",
        "Molecular Mass": "251.08",
        "Melting Point": "189-191 °C"
    }
}