{
    "cas_no": "112-27-6",
    "key_name": "Triethylene glycol",
    "cn_name": "三乙二醇;二缩三乙二醇;三甘醇;",
    "alternate_name": "Ethanol, 2,2′-[1,2-ethanediylbis(oxy)]bis-;Triethylene glycol;2,2′-[1,2-Ethanediylbis(oxy)]bis[ethanol];1,2-Di(β-hydroxyethoxy)ethane;3,6-Dioxaoctane-1,8-diol;2,2′-Ethylenedioxydiethanol;Glycol bis(hydroxyethyl) ether;TEG;Triglycol;1,2-Bis(2-hydroxyethoxy)ethane;Trigol;TEG (glycol);2-[2-(2-Hydroxyethoxy)ethoxy]ethanol;1,8-Dihydroxy-3,6-dioxaoctane;NSC 60758;Crestwood A;Hanlon TEG;2,2′-(Ethane-1,2-diylbis(oxy))diethanol;2,2′-(Ethane-1,2-diylbis(oxy))bis(ethanol);2-[2-(2-Hydroxyethoxy)ethoxy]ethan-1-ol",
    "duplicated_cas_no": "676-18-6;118662-30-9;121202-29-7;939972-01-7;1629855-96-4",
    "SMILES": "C(COCCO)OCCO",
    "meta_data": {
        "InChI": "InChI=1S/C6H14O4/c7-1-3-9-5-6-10-4-2-8/h7-8H,1-6H2",
        "InChIKey": null,
        "Canonical SMILES": "OCCOCCOCCO",
        "Molecular Formula": "C<sub>6</sub>H<sub>14</sub>O<sub>4</sub>",
        "Molecular Mass": "150.17",
        "Boiling Point": "165 °C @ Press: 14 Torr",
        "Melting Point": "-7 °C",
        "Density": "1.1274 g/cm³ @ Temp: 15 °C"
    }
}