{
    "cas_no": "3728-20-9",
    "key_name": "<span class=\"text-smallcaps\">D</span>-Tyrosine, methyl ester, hydrochloride",
    "cn_name": null,
    "alternate_name": "<span class=\"text-smallcaps\">D</span>-Tyrosine, methyl ester, hydrochloride (1:1);Tyrosine, methyl ester, hydrochloride, <span class=\"text-smallcaps\">D</span>-;<span class=\"text-smallcaps\">D</span>-Tyrosine, methyl ester, hydrochloride;Methyl <span class=\"text-smallcaps\">D</span>-tyrosinate hydrochloride",
    "duplicated_cas_no": "",
    "SMILES": "C([C@H](C(OC)=O)N)C1=CC=C(O)C=C1.Cl",
    "meta_data": {
        "InChI": "InChI=1S/C10H13NO3.ClH/c1-14-10(13)9(11)6-7-2-4-8(12)5-3-7;/h2-5,9,12H,6,11H2,1H3;1H/t9-;/m1./s1",
        "InChIKey": null,
        "Canonical SMILES": "Cl.O=C(OC)C(N)CC1=CC=C(O)C=C1",
        "Molecular Formula": "C<sub>10</sub>H<sub>13</sub>NO<sub>3</sub>.ClH",
        "Molecular Mass": "",
        "Melting Point": "177-179 °C"
    }
}