{
    "cas_no": "175137-13-0",
    "key_name": "7-Methylthieno[3,2-<em>d</em>]pyrimidin-4(3<em>H</em>)-one",
    "cn_name": null,
    "alternate_name": "Thieno[3,2-<em>d</em>]pyrimidin-4(3<em>H</em>)-one, 7-methyl-;Thieno[3,2-<em>d</em>]pyrimidin-4(1<em>H</em>)-one, 7-methyl-;7-Methylthieno[3,2-<em>d</em>]pyrimidin-4(3<em>H</em>)-one;7-Methyl-3<em>H</em>-thieno[3,2-<em>d</em>]pyrimidin-4-one",
    "duplicated_cas_no": "",
    "SMILES": "O=C1C2=C(C(C)=CS2)NC=N1",
    "meta_data": {
        "InChI": "InChI=1S/C7H6N2OS/c1-4-2-11-6-5(4)8-3-9-7(6)10/h2-3H,1H3,(H,8,9,10)",
        "InChIKey": null,
        "Canonical SMILES": "O=C1N=CNC2=C1SC=C2C",
        "Molecular Formula": "C<sub>7</sub>H<sub>6</sub>N<sub>2</sub>OS",
        "Molecular Mass": "166.20",
        "Melting Point": "244-246 °C"
    }
}