{
    "cas_no": "1193-10-8",
    "key_name": "3-Methylsulfolene",
    "cn_name": "3-甲基-3-环丁烯砜;",
    "alternate_name": "Thiophene, 2,5-dihydro-3-methyl-, 1,1-dioxide;3-Methyl-3-sulfolene;3-Methyl-2,5-dihydrothiophene dioxide;3-Methyl-2,5-dihydrothiophene 1,1-dioxide;3-Methylsulfolene;1,3-Butadiene, 2-methyl-, sulfone;2,5-Dihydro-3-methylthiophene <em>S</em>,<em>S</em>-dioxide;3-Methyl-3-thiolene 1,1-dioxide;2,5-Dihydro-3-methylthiophene 1,1-dioxide;NSC 15090;3-Methyl-2,5-dihydro-1λ6-thiophene-1,1-dione",
    "duplicated_cas_no": "",
    "SMILES": "O=S1(=O)CC(C)=CC1",
    "meta_data": {
        "InChI": "InChI=1S/C5H8O2S/c1-5-2-3-8(6,7)4-5/h2H,3-4H2,1H3",
        "InChIKey": null,
        "Canonical SMILES": "O=S1(=O)CC=C(C)C1",
        "Molecular Formula": "C<sub>5</sub>H<sub>8</sub>O<sub>2</sub>S",
        "Molecular Mass": "132.18",
        "Melting Point": "63-64 °C"
    }
}