{
    "cas_no": "13709-49-4",
    "key_name": "Yttrium fluoride",
    "cn_name": "氟化钇;",
    "alternate_name": "Yttrium fluoride (YF<sub>3</sub>);Yttrium trifluoride;Yttrium trifluoride (YF<sub>3</sub>);Yttrium fluoride;FCD-546-3",
    "duplicated_cas_no": "",
    "SMILES": "[Y](F)(F)F",
    "meta_data": {
        "InChI": "InChI=1S/3FH.Y/h3*1H;/q;;;+3/p-3",
        "InChIKey": null,
        "Canonical SMILES": "F[Y](F)F",
        "Molecular Formula": "F<sub>3</sub>Y",
        "Molecular Mass": "",
        "Melting Point": "1143 °C"
    }
}