{
    "cas_no": "2084-19-7",
    "key_name": "2-Pentanethiol",
    "cn_name": "2-戊硫醇;1-甲基丁硫醇;",
    "alternate_name": "2-Pentanethiol;1-Methylbutanethiol;<em>sec</em>-Amylmercaptan;2-Pentyl mercaptan;2-Mercaptopentane",
    "duplicated_cas_no": "110503-18-9",
    "SMILES": "C(C(C)S)CC",
    "meta_data": {
        "InChI": "InChI=1S/C5H12S/c1-3-4-5(2)6/h5-6H,3-4H2,1-2H3",
        "InChIKey": null,
        "Canonical SMILES": "SC(C)CCC",
        "Molecular Formula": "C<sub>5</sub>H<sub>12</sub>S",
        "Molecular Mass": "104.21",
        "Boiling Point": "112.9 °C",
        "Melting Point": "-169 °C"
    }
}