{
    "cas_no": "96744-75-1",
    "key_name": "<em>N</em>-Methyl-<em>N</em>-[(5<em>R</em>,7<em>S</em>,8<em>S</em>)-7-(1-pyrrolidinyl)-1-oxaspiro[4.5]dec-8-yl]benzeneacetamide",
    "cn_name": "(+)-(5Α,7Α,8Β)-N-甲基-N-[7-(1-吡咯烷基)-1-氧螺[4.5]十二-8-基]-苯乙酰胺;",
    "alternate_name": "Benzeneacetamide, <em>N</em>-methyl-<em>N</em>-[(5<em>R</em>,7<em>S</em>,8<em>S</em>)-7-(1-pyrrolidinyl)-1-oxaspiro[4.5]dec-8-yl]-;Benzeneacetamide, <em>N</em>-methyl-<em>N</em>-[7-(1-pyrrolidinyl)-1-oxaspiro[4.5]dec-8-yl]-, [5<em>R</em>-(5α,7α,8β)]-;1-Oxaspiro[4.5]decane, benzeneacetamide deriv.;<em>N</em>-Methyl-<em>N</em>-[(5<em>R</em>,7<em>S</em>,8<em>S</em>)-7-(1-pyrrolidinyl)-1-oxaspiro[4.5]dec-8-yl]benzeneacetamide;U 69593",
    "duplicated_cas_no": "",
    "SMILES": "N(C(CC1=CC=CC=C1)=O)(C)[C@@H]2[C@H](C[C@@]3(CC2)CCCO3)N4CCCC4",
    "meta_data": {
        "InChI": "InChI=1S/C22H32N2O2/c1-23(21(25)16-18-8-3-2-4-9-18)19-10-12-22(11-7-15-26-22)17-20(19)24-13-5-6-14-24/h2-4,8-9,19-20H,5-7,10-17H2,1H3/t19-,20-,22-/m0/s1",
        "InChIKey": null,
        "Canonical SMILES": "O=C(N(C)C1CCC2(OCCC2)CC1N3CCCC3)CC=4C=CC=CC4",
        "Molecular Formula": "C<sub>22</sub>H<sub>32</sub>N<sub>2</sub>O<sub>2</sub>",
        "Molecular Mass": "356.50",
        "Melting Point": "120-123 °C"
    }
}