{
    "cas_no": "83-98-7",
    "key_name": "(±)-Orphenadrine",
    "cn_name": "邻甲苯海明;邻甲苯海明;",
    "alternate_name": "Ethanamine, <em>N</em>,<em>N</em>-dimethyl-2-[(2-methylphenyl)phenylmethoxy]-;Ethylamine, <em>N</em>,<em>N</em>-dimethyl-2-[(<em>o</em>-methyl-α-phenylbenzyl)oxy]-;<em>N</em>,<em>N</em>-Dimethyl-2-[(2-methylphenyl)phenylmethoxy]ethanamine;WS 2434;Brocadisipal;<em>N</em>,<em>N</em>-Dimethyl-2-(<em>o</em>-methyl-α-phenylbenzyloxy)ethylamine;<em>o</em>-Methyldiphenhydramine;Orphenadrin;Orphenadrine;Phenyl-<em>o</em>-tolylmethyl dimethylaminoethyl ether;<em>N</em>,<em>N</em>-Dimethyl-<em>N</em>-[2-(<em>o</em>-methyl-α-phenylbenzyloxy)ethyl]amine;2-Methyldiphenhydramine;Orphenadine;(±)-Orphenadrine;ORP;BS 5930;Biorphen;MeSH ID: D009966",
    "duplicated_cas_no": "33425-90-0",
    "SMILES": "C(OCCN(C)C)(C1=C(C)C=CC=C1)C2=CC=CC=C2",
    "meta_data": {
        "InChI": "InChI=1S/C18H23NO/c1-15-9-7-8-12-17(15)18(20-14-13-19(2)3)16-10-5-4-6-11-16/h4-12,18H,13-14H2,1-3H3",
        "InChIKey": null,
        "Canonical SMILES": "O(CCN(C)C)C(C=1C=CC=CC1)C=2C=CC=CC2C",
        "Molecular Formula": "C<sub>18</sub>H<sub>23</sub>NO",
        "Molecular Mass": "269.38",
        "Boiling Point": "195 °C",
        "Melting Point": "&lt;25 °C"
    }
}