{
    "cas_no": "589-92-4",
    "key_name": "4-Methylcyclohexanone",
    "cn_name": "4-甲基环己酮;对甲基环己酮;",
    "alternate_name": "Cyclohexanone, 4-methyl-;4-Methylcyclohexanone;4-Methyl-1-cyclohexanone;NSC 3816",
    "duplicated_cas_no": "",
    "SMILES": "CC1CCC(=O)CC1",
    "meta_data": {
        "InChI": "InChI=1S/C7H12O/c1-6-2-4-7(8)5-3-6/h6H,2-5H2,1H3",
        "InChIKey": null,
        "Canonical SMILES": "O=C1CCC(C)CC1",
        "Molecular Formula": "C<sub>7</sub>H<sub>12</sub>O",
        "Molecular Mass": "112.17",
        "Boiling Point": "170 °C",
        "Melting Point": "-40.6 °C",
        "Density": "0.9132 g/cm³ @ Temp: 20 °C"
    }
}