{
    "cas_no": "13813-43-9",
    "key_name": "Thulium iodide (TmI<sub>3</sub>)",
    "cn_name": "碘化铥(III);碘化铥(III);碘化铥(III)IODIDE, ULTRA DRY, 99.99% (REO);碘化铥(III), 99.9% (REO);",
    "alternate_name": "Thulium iodide (TmI<sub>3</sub>);Thulium triiodide;Thulium iodide;Thulium(III) iodide",
    "duplicated_cas_no": "",
    "SMILES": "[Tm](I)(I)I",
    "meta_data": {
        "InChI": "InChI=1S/3HI.Tm/h3*1H;/q;;;+3/p-3",
        "InChIKey": null,
        "Canonical SMILES": "I[Tm](I)I",
        "Molecular Formula": "I<sub>3</sub>Tm",
        "Molecular Mass": "",
        "Melting Point": "1015 °C"
    }
}