{
    "cas_no": "75-13-8",
    "key_name": "Isocyanic acid",
    "cn_name": "异氰酸酯;异氰酸酯;",
    "alternate_name": "Isocyanic acid;Carbimide;Hydrogen isocyanate;Isocyanic acid (HNCO);HNCO",
    "duplicated_cas_no": "",
    "SMILES": "C(=N)=O",
    "meta_data": {
        "InChI": "InChI=1S/CHNO/c2-1-3/h2H",
        "InChIKey": null,
        "Canonical SMILES": "O=C=N",
        "Molecular Formula": "CHNO",
        "Molecular Mass": "43.02",
        "Melting Point": "-86 °C"
    }
}