{
    "cas_no": "50-10-2",
    "key_name": "Oxyphenonium bromide",
    "cn_name": null,
    "alternate_name": "Ethanaminium, 2-[(2-cyclohexyl-2-hydroxy-2-phenylacetyl)oxy]-<em>N</em>,<em>N</em>-diethyl-<em>N</em>-methyl-, bromide (1:1);Diethyl(2-hydroxyethyl)methylammonium bromide α-phenylcyclohexaneglycolate;Ammonium, diethyl(2-hydroxyethyl)methyl-, bromide, α-phenylcyclohexaneglycolate;Ethanaminium, 2-[(cyclohexylhydroxyphenylacetyl)oxy]-<em>N</em>,<em>N</em>-diethyl-<em>N</em>-methyl-, bromide;Cyclohexaneglycolic acid, α-phenyl-, ester with diethyl(2-hydroxyethyl)methylammonium bromide;Oxyphenonium bromide;Spasmophen;Antrenyl;Antrenil;Ba-5473;C 5473;Oxifenon;Oxyfenon;Oxyphenon;<em>dl</em>-Oxyphenonium bromide;(±)-Oxyphenonium bromide;Antrenyl Duplex;Spasmodin;[2-[(2-Cyclohexyl-2-hydroxy-2-phenylacetyl)oxy]ethyl]diethylmethylazanium bromide",
    "duplicated_cas_no": "108940-72-3",
    "SMILES": "C(C(OCC[N+](CC)(CC)C)=O)(O)(C1CCCCC1)C2=CC=CC=C2.[Br-]",
    "meta_data": {
        "InChI": "InChI=1S/C21H34NO3.BrH/c1-4-22(3,5-2)16-17-25-20(23)21(24,18-12-8-6-9-13-18)19-14-10-7-11-15-19;/h6,8-9,12-13,19,24H,4-5,7,10-11,14-17H2,1-3H3;1H/q+1;/p-1",
        "InChIKey": null,
        "Canonical SMILES": "[Br-].O=C(OCC[N+](C)(CC)CC)C(O)(C=1C=CC=CC1)C2CCCCC2",
        "Molecular Formula": "C<sub>21</sub>H<sub>34</sub>NO<sub>3</sub>.Br",
        "Molecular Mass": "",
        "Melting Point": "191.5 °C"
    }
}