{
    "cas_no": "7312-11-0",
    "key_name": "Methyl 5-bromobenzo[<em>b</em>]thiophene-2-carboxylate",
    "cn_name": null,
    "alternate_name": "Benzo[<em>b</em>]thiophene-2-carboxylic acid, 5-bromo-, methyl ester;5-Bromobenzothiophene-2-carboxylic acid methyl ester;Methyl 5-bromobenzo[<em>b</em>]thiophen-2-carboxylate;Methyl 5-bromobenzo[<em>b</em>]thiophene-2-carboxylate;5-Bromobenzo[<em>b</em>]thiophene-2-carboxylic acid methyl ester",
    "duplicated_cas_no": "",
    "SMILES": "C(OC)(=O)C=1SC=2C(C1)=CC(Br)=CC2",
    "meta_data": {
        "InChI": "InChI=1S/C10H7BrO2S/c1-13-10(12)9-5-6-4-7(11)2-3-8(6)14-9/h2-5H,1H3",
        "InChIKey": null,
        "Canonical SMILES": "O=C(OC)C=1SC=2C=CC(Br)=CC2C1",
        "Molecular Formula": "C<sub>10</sub>H<sub>7</sub>BrO<sub>2</sub>S",
        "Molecular Mass": "271.13",
        "Melting Point": "97-98 °C"
    }
}