{
    "cas_no": "51554-94-0",
    "key_name": "1-Bromo-4-nonylbenzene",
    "cn_name": "1-溴-4-正-壬基苯,98%;",
    "alternate_name": "Benzene, 1-bromo-4-nonyl-;1-Bromo-4-nonylbenzene;4-Bromophenylnonane;4-<em>n</em>-Nonylbromobenzene;1-Bromo-4-<em>n</em>-nonylbenzene",
    "duplicated_cas_no": "",
    "SMILES": "C(CCCCCCCC)C1=CC=C(Br)C=C1",
    "meta_data": {
        "InChI": "InChI=1S/C15H23Br/c1-2-3-4-5-6-7-8-9-14-10-12-15(16)13-11-14/h10-13H,2-9H2,1H3",
        "InChIKey": null,
        "Canonical SMILES": "BrC1=CC=C(C=C1)CCCCCCCCC",
        "Molecular Formula": "C<sub>15</sub>H<sub>23</sub>Br",
        "Molecular Mass": "283.25",
        "Boiling Point": "107 °C @ Press: 0.20 Torr"
    }
}