{
    "cas_no": "506-59-2",
    "key_name": "Dimethylamine, hydrochloride",
    "cn_name": "盐酸二甲胺;二甲胺盐酸盐;",
    "alternate_name": "Methanamine, <em>N</em>-methyl-, hydrochloride (1:1);Dimethylamine, hydrochloride;Methanamine, <em>N</em>-methyl-, hydrochloride;Dimethylammonium chloride;<em>N</em>-Methylmethanamine hydrochloride;<em>N</em>,<em>N</em>-Dimethylamine hydrochloride;Dimethylamine hydrochloride",
    "duplicated_cas_no": "",
    "SMILES": "N(C)C.Cl",
    "meta_data": {
        "InChI": "InChI=1S/C2H7N.ClH/c1-3-2;/h3H,1-2H3;1H",
        "InChIKey": null,
        "Canonical SMILES": "Cl.N(C)C",
        "Molecular Formula": "C<sub>2</sub>H<sub>7</sub>N.ClH",
        "Molecular Mass": "",
        "Melting Point": "171.5 °C"
    }
}