{
    "cas_no": "66356-53-4",
    "key_name": "5-[[(2-Aminoethyl)thio]methyl]-<em>N</em>,<em>N</em>-dimethyl-2-furanmethanamine",
    "cn_name": "2-(((5-二甲基氨基)甲基)-2-呋喃基)甲基)硫代乙胺;5-(((2-氨基乙基)硫代)甲基)-N,N-二甲基-2-呋喃甲胺;",
    "alternate_name": "2-Furanmethanamine, 5-[[(2-aminoethyl)thio]methyl]-<em>N</em>,<em>N</em>-dimethyl-;5-[[(2-Aminoethyl)thio]methyl]-<em>N</em>,<em>N</em>-dimethyl-2-furanmethanamine;2-[[5-[(Dimethylamino)methyl]-2-furyl]methylsulfanyl]ethanamine;2-[[5-[(Dimethylamino)methyl]furan-2-yl]methylsulfanyl]ethanamine",
    "duplicated_cas_no": "86586-73-4",
    "SMILES": "C(N(C)C)C=1OC(CSCCN)=CC1",
    "meta_data": {
        "InChI": "InChI=1S/C10H18N2OS/c1-12(2)7-9-3-4-10(13-9)8-14-6-5-11/h3-4H,5-8,11H2,1-2H3",
        "InChIKey": null,
        "Canonical SMILES": "O1C(=CC=C1CN(C)C)CSCCN",
        "Molecular Formula": "C<sub>10</sub>H<sub>18</sub>N<sub>2</sub>OS",
        "Molecular Mass": "214.33",
        "Boiling Point": "130-137 °C"
    }
}