{
    "cas_no": "13889-98-0",
    "key_name": "1-Acetylpiperazine",
    "cn_name": "1-乙酰哌嗪;",
    "alternate_name": "Ethanone, 1-(1-piperazinyl)-;Piperazine, 1-acetyl-;1-(1-Piperazinyl)ethanone;1-Acetylpiperazine;4-Acetylpiperazine;<em>N</em>-Acetylpiperazine;1-(Piperazinyl)ethanone;NSC 39649;<em>N</em>-Acetylpiperazin;1-(Piperazin-1-yl)ethanone;1-(Piperazin-1-yl)ethan-1-one;1-(Piperazine-1-yl)ethan-1-one",
    "duplicated_cas_no": "",
    "SMILES": "C(C)(=O)N1CCNCC1",
    "meta_data": {
        "InChI": "InChI=1S/C6H12N2O/c1-6(9)8-4-2-7-3-5-8/h7H,2-5H2,1H3",
        "InChIKey": null,
        "Canonical SMILES": "O=C(N1CCNCC1)C",
        "Molecular Formula": "C<sub>6</sub>H<sub>12</sub>N<sub>2</sub>O",
        "Molecular Mass": "128.17",
        "Boiling Point": "101-110 °C @ Press: 1 Torr",
        "Melting Point": "218-220 °C"
    }
}