{
    "cas_no": "156-10-5",
    "key_name": "4-Nitrosodiphenylamine",
    "cn_name": "对亚硝基二苯胺;",
    "alternate_name": "Benzenamine, 4-nitroso-<em>N</em>-phenyl-;Diphenylamine, 4-nitroso-;4-Nitroso-<em>N</em>-phenylbenzenamine;<em>p</em>-Nitrosodiphenylamine;<em>p</em>-Nitroso-<em>N</em>-phenylaniline;4-Nitrosodiphenylamine;<em>N</em>-Phenyl-<em>p</em>-nitrosoaniline;4-Nitroso-<em>N</em>-phenylaniline;<em>p</em>-Phenylaminonitrosobenzene;<em>N</em>-Phenyl-4-nitrosoaniline;NSC 5041;(4-Nitroso-phenyl)-phenyl-amine",
    "duplicated_cas_no": "",
    "SMILES": "N(C1=CC=C(N=O)C=C1)C2=CC=CC=C2",
    "meta_data": {
        "InChI": "InChI=1S/C12H10N2O/c15-14-12-8-6-11(7-9-12)13-10-4-2-1-3-5-10/h1-9,13H",
        "InChIKey": null,
        "Canonical SMILES": "O=NC1=CC=C(C=C1)NC=2C=CC=CC2",
        "Molecular Formula": "C<sub>12</sub>H<sub>10</sub>N<sub>2</sub>O",
        "Molecular Mass": "198.22",
        "Boiling Point": "292 °C",
        "Melting Point": "144-145 °C"
    }
}