{
    "cas_no": "329205-68-7",
    "key_name": "3-[2-(2-Methyl-4-thiazolyl)ethynyl]pyridine",
    "cn_name": null,
    "alternate_name": "Pyridine, 3-[2-(2-methyl-4-thiazolyl)ethynyl]-;Pyridine, 3-[(2-methyl-4-thiazolyl)ethynyl]-;3-[2-(2-Methyl-4-thiazolyl)ethynyl]pyridine;MTEP;3-[(2-Methyl-1,3-thiazol-4-yl)ethynyl]pyridine",
    "duplicated_cas_no": "",
    "SMILES": "C(#CC=1C=CC=NC1)C2=CSC(C)=N2",
    "meta_data": {
        "InChI": "InChI=1S/C11H8N2S/c1-9-13-11(8-14-9)5-4-10-3-2-6-12-7-10/h2-3,6-8H,1H3",
        "InChIKey": null,
        "Canonical SMILES": "C(#CC=1C=NC=CC1)C=2N=C(SC2)C",
        "Molecular Formula": "C<sub>11</sub>H<sub>8</sub>N<sub>2</sub>S",
        "Molecular Mass": "200.26",
        "Melting Point": "78-79 °C"
    }
}