{
    "cas_no": "6300-04-5",
    "key_name": "3-(Dimethylamino)propanoic acid",
    "cn_name": null,
    "alternate_name": "β-Alanine, <em>N</em>,<em>N</em>-dimethyl-;<em>N</em>,<em>N</em>-Dimethyl-β-alanine;β-(<em>N</em>,<em>N</em>-Dimethylamino)propionic acid;3-(Dimethylamino)propionic acid;3-(<em>N</em>,<em>N</em>-Dimethylamino)propionic acid;3-(Dimethylamino)propanoic acid;NSC 45506;NSC 73153;<em>N</em>,<em>N</em>-Dimethylhomoglycine",
    "duplicated_cas_no": "",
    "SMILES": "C(CN(C)C)C(O)=O",
    "meta_data": {
        "InChI": "InChI=1S/C5H11NO2/c1-6(2)4-3-5(7)8/h3-4H2,1-2H3,(H,7,8)",
        "InChIKey": null,
        "Canonical SMILES": "O=C(O)CCN(C)C",
        "Molecular Formula": "C<sub>5</sub>H<sub>11</sub>NO<sub>2</sub>",
        "Molecular Mass": "117.15",
        "Boiling Point": "140-142 °C @ Press: 0.15 Torr",
        "Melting Point": "143-144 °C"
    }
}