{
    "cas_no": "17200-30-5",
    "key_name": "6-Nitrobenzoxazole",
    "cn_name": "6-硝基-1,3-苯并噁唑;",
    "alternate_name": "Benzoxazole, 6-nitro-;6-Nitrobenzoxazole;6-Nitrobenzo[<em>d</em>]oxazole",
    "duplicated_cas_no": "",
    "SMILES": "N(=O)(=O)C=1C=C2C(=CC1)N=CO2",
    "meta_data": {
        "InChI": "InChI=1S/C7H4N2O3/c10-9(11)5-1-2-6-7(3-5)12-4-8-6/h1-4H",
        "InChIKey": null,
        "Canonical SMILES": "O=N(=O)C=1C=CC=2N=COC2C1",
        "Molecular Formula": "C<sub>7</sub>H<sub>4</sub>N<sub>2</sub>O<sub>3</sub>",
        "Molecular Mass": "164.12",
        "Boiling Point": "165-168 °C @ Press: 15 Torr",
        "Melting Point": "152-153 °C"
    }
}