{
    "cas_no": "3906-87-4",
    "key_name": "2-Fluoro-1,4-benzenedicarboxylic acid",
    "cn_name": null,
    "alternate_name": "1,4-Benzenedicarboxylic acid, 2-fluoro-;Terephthalic acid, fluoro-;2-Fluoro-1,4-benzenedicarboxylic acid;Fluoroterephthalic acid;NSC 127031;2-Fluoroterephthalic acid",
    "duplicated_cas_no": "",
    "SMILES": "C(O)(=O)C1=CC(F)=C(C(O)=O)C=C1",
    "meta_data": {
        "InChI": "InChI=1S/C8H5FO4/c9-6-3-4(7(10)11)1-2-5(6)8(12)13/h1-3H,(H,10,11)(H,12,13)",
        "InChIKey": null,
        "Canonical SMILES": "O=C(O)C1=CC=C(C(=O)O)C(F)=C1",
        "Molecular Formula": "C<sub>8</sub>H<sub>5</sub>FO<sub>4</sub>",
        "Molecular Mass": "184.12",
        "Melting Point": "330 °C"
    }
}