{
    "cas_no": "35237-37-7",
    "key_name": "2-Aminododecanoic acid",
    "cn_name": null,
    "alternate_name": "Dodecanoic acid, 2-amino-;Dodecanoic acid, 2-amino-, (±)-;2-Aminododecanoic acid;<span class=\"text-smallcaps\">DL</span>-2-Aminododecanoic acid;(±)-2-Aminododecanoic acid;α-Aminolauric acid",
    "duplicated_cas_no": "7769-61-1",
    "SMILES": "C(CCCCCCCC)CC(C(O)=O)N",
    "meta_data": {
        "InChI": "InChI=1S/C12H25NO2/c1-2-3-4-5-6-7-8-9-10-11(13)12(14)15/h11H,2-10,13H2,1H3,(H,14,15)",
        "InChIKey": null,
        "Canonical SMILES": "O=C(O)C(N)CCCCCCCCCC",
        "Molecular Formula": "C<sub>12</sub>H<sub>25</sub>NO<sub>2</sub>",
        "Molecular Mass": "215.33",
        "Melting Point": "263 °C (decomp)"
    }
}