{
    "cas_no": "1823-44-5",
    "key_name": "2-(2-Thiazolylazo)-<em>p</em>-cresol",
    "cn_name": "2-(2-噻唑基偶氮)对甲苯酚;2-(2\"-噻唑基偶氮)对甲酚;",
    "alternate_name": "Phenol, 4-methyl-2-[2-(2-thiazolyl)diazenyl]-;<em>p</em>-Cresol, 2-(2-thiazolylazo)-;Phenol, 4-methyl-2-(2-thiazolylazo)-;4-Methyl-2-[2-(2-thiazolyl)diazenyl]phenol;2-(2-Thiazolylazo)-4-methylphenol;2-(2-Thiazolylazo)-<em>p</em>-cresol;<em>o</em>-(2-Thiazolylazo)-4-methylphenol;4-Me-TAP",
    "duplicated_cas_no": "",
    "SMILES": "N(=NC1=NC=CS1)C2=C(O)C=CC(C)=C2",
    "meta_data": {
        "InChI": "InChI=1S/C10H9N3OS/c1-7-2-3-9(14)8(6-7)12-13-10-11-4-5-15-10/h2-6,14H,1H3",
        "InChIKey": null,
        "Canonical SMILES": "OC1=CC=C(C=C1N=NC2=NC=CS2)C",
        "Molecular Formula": "C<sub>10</sub>H<sub>9</sub>N<sub>3</sub>OS",
        "Molecular Mass": "219.26",
        "Melting Point": "128.5-131.0 °C"
    }
}