{
    "cas_no": "61303-13-7",
    "key_name": "Isoacteoside",
    "cn_name": null,
    "alternate_name": "β-<span class=\"text-smallcaps\">D</smallcap>-Glucopyranoside, 2-(3,4-dihydroxyphenyl)ethyl 3-<em>O</em>-(6-deoxy-α-<smallcap>L</span>-mannopyranosyl)-, 6-[(2<em>E</em>)-3-(3,4-dihydroxyphenyl)-2-propenoate];β-<span class=\"text-smallcaps\">D</smallcap>-Glucopyranoside, 2-(3,4-dihydroxyphenyl)ethyl 3-<em>O</em>-(6-deoxy-α-<smallcap>L</span>-mannopyranosyl)-, 6-[3-(3,4-dihydroxyphenyl)-2-propenoate], (<em>E</em>)-;Isoverbascoside;Isoacteoside;Isoacteoside A",
    "duplicated_cas_no": "83529-64-0;1000375-21-2",
    "SMILES": "O([C@H]1[C@H](O)[C@@H](COC(/C=C/C2=CC(O)=C(O)C=C2)=O)O[C@@H](OCCC3=CC(O)=C(O)C=C3)[C@@H]1O)[C@H]4[C@H](O)[C@H](O)[C@@H](O)[C@H](C)O4",
    "meta_data": {
        "InChI": "InChI=1S/C29H36O15/c1-13-22(35)24(37)25(38)29(42-13)44-27-23(36)20(12-41-21(34)7-4-14-2-5-16(30)18(32)10-14)43-28(26(27)39)40-9-8-15-3-6-17(31)19(33)11-15/h2-7,10-11,13,20,22-33,35-39H,8-9,12H2,1H3/b7-4+/t13-,20+,22-,23+,24+,25+,26+,27-,28+,29-/m0/s1",
        "InChIKey": null,
        "Canonical SMILES": "O=C(OCC1OC(OCCC2=CC=C(O)C(O)=C2)C(O)C(OC3OC(C)C(O)C(O)C3O)C1O)C=CC4=CC=C(O)C(O)=C4",
        "Molecular Formula": "C<sub>29</sub>H<sub>36</sub>O<sub>15</sub>",
        "Molecular Mass": "624.59",
        "Melting Point": "134-135 °C"
    }
}