{
    "cas_no": "20294-50-2",
    "key_name": "4-Bromo-2-methyl-6-nitrophenol",
    "cn_name": null,
    "alternate_name": "Phenol, 4-bromo-2-methyl-6-nitro-;<em>o</em>-Cresol, 4-bromo-6-nitro-;4-Bromo-2-methyl-6-nitrophenol;4-Bromo-6-methyl-2-nitrophenol",
    "duplicated_cas_no": "",
    "SMILES": "N(=O)(=O)C1=C(O)C(C)=CC(Br)=C1",
    "meta_data": {
        "InChI": "InChI=1S/C7H6BrNO3/c1-4-2-5(8)3-6(7(4)10)9(11)12/h2-3,10H,1H3",
        "InChIKey": null,
        "Canonical SMILES": "O=N(=O)C1=CC(Br)=CC(=C1O)C",
        "Molecular Formula": "C<sub>7</sub>H<sub>6</sub>BrNO<sub>3</sub>",
        "Molecular Mass": "232.03",
        "Melting Point": "90.5 °C"
    }
}