{
    "cas_no": "2066-89-9",
    "key_name": "Pasiniazid",
    "cn_name": "帕司烟肼;对氨基水杨酸异烟肼;",
    "alternate_name": "4-Pyridinecarboxylic acid, hydrazide, compd. with 4-amino-2-hydroxybenzoate (1:1);Isonicotinic acid hydrazide, mono(4-aminosalicylate);4-Pyridinecarboxylic acid, hydrazide, mono(4-amino-2-hydroxybenzoate);Salicylic acid, 4-amino-, compd. with isonicotinic acid hydrazide;Salicylic acid, 4-amino-, compd. with isoniazid;Salicylic acid, 4-amino-, compd. with isonicotinic acid hydrazide (1:1);Benzoic acid, 4-amino-2-hydroxy-, compd. with 4-pyridinecarboxylic acid hydrazide (1:1);<em>p</em>-Aminosalicylic acid isonicotinyl hydrazide;Dipasic;Fintozid;Isoniazid 4-aminosalicylate;Pasiniazide;Pasiniazid;Isonicotinic acid hydrazide <em>p</em>-aminosalicylate;Nidrapas;Paraniazide;Parasal INH;Pascidaber;Pashain;Pas-Hidracida;GEWO 399",
    "duplicated_cas_no": "6190-85-8",
    "SMILES": "C(O)(=O)C1=C(O)C=C(N)C=C1.C(NN)(=O)C=1C=CN=CC1",
    "meta_data": {
        "InChI": "InChI=1S/C7H7NO3.C6H7N3O/c8-4-1-2-5(7(10)11)6(9)3-4;7-9-6(10)5-1-3-8-4-2-5/h1-3,9H,8H2,(H,10,11);1-4H,7H2,(H,9,10)",
        "InChIKey": null,
        "Canonical SMILES": "O=C(O)C1=CC=C(N)C=C1O.O=C(NN)C=1C=CN=CC1",
        "Molecular Formula": "C<sub>7</sub>H<sub>7</sub>NO<sub>3</sub>.C<sub>6</sub>H<sub>7</sub>N<sub>3</sub>O",
        "Molecular Mass": "",
        "Melting Point": "142-144 °C"
    }
}