{
    "cas_no": "629-25-4",
    "key_name": "Sodium laurate",
    "cn_name": "十二酸钠;月桂酸钠;",
    "alternate_name": "Dodecanoic acid, sodium salt (1:1);Lauric acid, sodium salt;Dodecanoic acid, sodium salt;Sodium dodecanoate;Sodium laurate;C 12-98/100MY, sodium salt;Emal 10G-3;NS 3A;Lauric acid P",
    "duplicated_cas_no": "",
    "SMILES": "C(CCCCCCCC)CCC(O)=O.[Na]",
    "meta_data": {
        "InChI": "InChI=1S/C12H24O2.Na/c1-2-3-4-5-6-7-8-9-10-11-12(13)14;/h2-11H2,1H3,(H,13,14);",
        "InChIKey": null,
        "Canonical SMILES": "[Na].O=C(O)CCCCCCCCCCC",
        "Molecular Formula": "C<sub>12</sub>H<sub>24</sub>O<sub>2</sub>.Na",
        "Molecular Mass": "",
        "Melting Point": "310 °C",
        "Density": "1.102 g/cm³"
    }
}