{
    "cas_no": "4023-34-1",
    "key_name": "Cyclopropanecarbonyl chloride",
    "cn_name": "环丙基甲酰氯;",
    "alternate_name": "Cyclopropanecarbonyl chloride;Cyclopropylcarbonyl chloride;Cyclopropanecarboxylic acid chloride;Cyclopropanoyl chloride;Cyclopropylcarboxylic acid chloride;Benzoyl chloride, 4-(cyclopropylcarbonyl)-;4-(Cyclopropylcarbonyl)benzoyl chloride",
    "duplicated_cas_no": "2866140-95-4",
    "SMILES": "C(Cl)(=O)C1CC1",
    "meta_data": {
        "InChI": "InChI=1S/C4H5ClO/c5-4(6)3-1-2-3/h3H,1-2H2",
        "InChIKey": null,
        "Canonical SMILES": "O=C(Cl)C1CC1",
        "Molecular Formula": "C<sub>4</sub>H<sub>5</sub>ClO",
        "Molecular Mass": "104.53",
        "Boiling Point": "109-112 °C",
        "Melting Point": "77.5-78.5 °C"
    }
}