{
    "cas_no": "579-56-6",
    "key_name": "Isoxsuprine hydrochloride",
    "cn_name": null,
    "alternate_name": "Benzenemethanol, 4-hydroxy-α-[1-[(1-methyl-2-phenoxyethyl)amino]ethyl]-, hydrochloride (1:1);Benzyl alcohol, <em>p</em>-hydroxy-α-[1-[(1-methyl-2-phenoxyethyl)amino]ethyl]-, hydrochloride;Benzenemethanol, 4-hydroxy-α-[1-[(1-methyl-2-phenoxyethyl)amino]ethyl]-, hydrochloride;Norephedrine, <em>p</em>-hydroxy-<em>N</em>-(1-methyl-2-phenoxyethyl)-, hydrochloride;1-(<em>p</em>-Hydroxyphenyl)-2-(1′-methyl-2′-phenoxy)ethylaminopropanol-1 hydrochloride;Isoxsuprine hydrochloride;Vasodilan;Duvadilan;Isoxsuprin hydrochloride;Dilavase;Navilox;Vasoplex;Isolait;Divadilan;Suprilent;Vasotran;Vadosilan;Duviculine;Suprox SR;Tidilan",
    "duplicated_cas_no": "34233-88-0;34331-89-0",
    "SMILES": "C(C(NC(COC1=CC=CC=C1)C)C)(O)C2=CC=C(O)C=C2.Cl",
    "meta_data": {
        "InChI": "InChI=1S/C18H23NO3.ClH/c1-13(12-22-17-6-4-3-5-7-17)19-14(2)18(21)15-8-10-16(20)11-9-15;/h3-11,13-14,18-21H,12H2,1-2H3;1H",
        "InChIKey": null,
        "Canonical SMILES": "Cl.OC1=CC=C(C=C1)C(O)C(NC(C)COC=2C=CC=CC2)C",
        "Molecular Formula": "C<sub>18</sub>H<sub>23</sub>NO<sub>3</sub>.ClH",
        "Molecular Mass": "",
        "Melting Point": "203-204 °C"
    }
}