{
    "cas_no": "342-25-6",
    "key_name": "2,4′-Difluorobenzophenone",
    "cn_name": "2,4\"-二氟二苯甲酮;",
    "alternate_name": "Methanone, (2-fluorophenyl)(4-fluorophenyl)-;(2-Fluorophenyl)(4-fluorophenyl)methanone;2,4′-Difluorobenzophenone",
    "duplicated_cas_no": "",
    "SMILES": "C(=O)(C1=C(F)C=CC=C1)C2=CC=C(F)C=C2",
    "meta_data": {
        "InChI": "InChI=1S/C13H8F2O/c14-10-7-5-9(6-8-10)13(16)11-3-1-2-4-12(11)15/h1-8H",
        "InChIKey": null,
        "Canonical SMILES": "O=C(C1=CC=C(F)C=C1)C=2C=CC=CC2F",
        "Molecular Formula": "C<sub>13</sub>H<sub>8</sub>F<sub>2</sub>O",
        "Molecular Mass": "218.20",
        "Boiling Point": "176-178 °C @ Press: 16 Torr",
        "Melting Point": "22.8-23.6 °C"
    }
}