{
    "cas_no": "4968-09-6",
    "key_name": "Algestone acetonide",
    "cn_name": "阿孕奈德;",
    "alternate_name": "Pregn-4-ene-3,20-dione, 16,17-[(1-methylethylidene)bis(oxy)]-, (16α)-;Pregn-4-ene-3,20-dione, 16α,17-dihydroxy-, cyclic acetal with acetone;Progesterone, 16α,17-dihydroxy-, cyclic acetal with acetone;(16α)-16,17-[(1-Methylethylidene)bis(oxy)]pregn-4-ene-3,20-dione;W 3395;16α,17-Dihydroxypregn-4-ene-3,20-dione cyclic acetal with acetone;16α,17α-Isopropylidenedioxyprogesterone;Progesterone 16,17-acetonide;Alphasone acetonide;16α,17-(Isopropylidenedioxy)progesterone;Algestone acetonide;NSC 26104",
    "duplicated_cas_no": "",
    "SMILES": "C(C)(=O)[C@]12[C@]3(C)[C@@](C[C@]1(OC(C)(C)O2)[H])([C@]4([C@](CC3)([C@]5(C)C(CC4)=CC(=O)CC5)[H])[H])[H]",
    "meta_data": {
        "InChI": "InChI=1S/C24H34O4/c1-14(25)24-20(27-21(2,3)28-24)13-19-17-7-6-15-12-16(26)8-10-22(15,4)18(17)9-11-23(19,24)5/h12,17-20H,6-11,13H2,1-5H3/t17-,18+,19+,20-,22+,23+,24-/m1/s1",
        "InChIKey": null,
        "Canonical SMILES": "O=C1C=C2CCC3C(CCC4(C)C3CC5OC(OC54C(=O)C)(C)C)C2(C)CC1",
        "Molecular Formula": "C<sub>24</sub>H<sub>34</sub>O<sub>4</sub>",
        "Molecular Mass": "386.52",
        "Melting Point": "210 °C"
    }
}