{
    "cas_no": "76308-26-4",
    "key_name": "(<em>trans</em>-4-Aminocyclohexyl)acetic acid ethyl ester hydrochloride",
    "cn_name": null,
    "alternate_name": "Cyclohexaneacetic acid, 4-amino-, ethyl ester, hydrochloride (1:1), <em>trans</em>-;Cyclohexaneacetic acid, 4-amino-, ethyl ester, hydrochloride, <em>trans</em>-;(<em>trans</em>-4-Aminocyclohexyl)acetic acid ethyl ester hydrochloride;<em>trans</em>-2-(4-Aminocyclohexyl)acetic acid ethyl ester hydrochloride;Ethyl 2-(<em>trans</em>-4-aminocyclohexyl)acetate hydrochloride",
    "duplicated_cas_no": "",
    "SMILES": "C(C(OCC)=O)[C@H]1CC[C@H](N)CC1.Cl",
    "meta_data": {
        "InChI": "InChI=1/C10H19NO2.ClH/c1-2-13-10(12)7-8-3-5-9(11)6-4-8;/h8-9H,2-7,11H2,1H3;1H/t8-,9-;",
        "InChIKey": null,
        "Canonical SMILES": "Cl.O=C(OCC)CC1CCC(N)CC1",
        "Molecular Formula": "C<sub>10</sub>H<sub>19</sub>NO<sub>2</sub>.ClH",
        "Molecular Mass": "",
        "Melting Point": "173-176 °C"
    }
}