{
    "cas_no": "4254-14-2",
    "key_name": "<em>R</em>-(-)-1,2-Propanediol",
    "cn_name": "(R)-1,2-丙二醇;",
    "alternate_name": "1,2-Propanediol, (<em>R</em>)-;1,2-Propanediol, (<em>R</em>)-(-)-;(-)-Propylene glycol;1-Deoxy-<em>sn</em>-glycerol;<em>R</em>-(-)-Propylene glycol;<span class=\"text-smallcaps\">D</span>-(-)-Propanediol;(-)-1,2-Propanediol;(<em>R</em>)-1,2-Propanediol;<em>R</em>-(-)-1,2-Propanediol;(<em>R</em>)-2-Hydroxy-1-propanol;(<em>R</em>)-Propylene glycol;NSC 90793;(2<em>R</em>)-1,2-Propanediol;1,2-Propanediol, (2<em>R</em>)-;1,2-Propanediol, (R)-;(R)-(-)-1,2-Propanediol;(2R)-Propane-1,2-diol",
    "duplicated_cas_no": "",
    "SMILES": "[C@H](CO)(C)O",
    "meta_data": {
        "InChI": "InChI=1S/C3H8O2/c1-3(5)2-4/h3-5H,2H2,1H3/t3-/m1/s1",
        "InChIKey": null,
        "Canonical SMILES": "OCC(O)C",
        "Molecular Formula": "C<sub>3</sub>H<sub>8</sub>O<sub>2</sub>",
        "Molecular Mass": "76.09",
        "Boiling Point": "85-86 °C @ Press: 10 Torr"
    }
}