{
    "cas_no": "2275-18-5",
    "key_name": "Prothoate",
    "cn_name": "发果;发硫磷;O,O-二乙基-S-(N-异丙基氨基甲酰甲基)二硫代磷酸酯;",
    "alternate_name": "Phosphorodithioic acid, <em>O</em>,<em>O</em>-diethyl <em>S</em>-[2-[(1-methylethyl)amino]-2-oxoethyl] ester;Phosphorodithioic acid, <em>O</em>,<em>O</em>-diethyl ester, <em>S</em>-ester with <em>N</em>-isopropyl-2-mercaptoacetamide;Acetamide, <em>N</em>-isopropyl-2-mercapto-, <em>S</em>-ester with <em>O</em>,<em>O</em>-di-Et phosphorodithioate;American Cyanamid 18,682;<em>O</em>,<em>O</em>-Diethyl <em>S</em>-(<em>N</em>-isopropylcarbamoylmethyl) phosphorodithioate;Fac 20;Fostion;Prothoate;Trimethoate;FAC (pesticide);Prothoat;Fak 40;FAC",
    "duplicated_cas_no": "",
    "SMILES": "P(SCC(NC(C)C)=O)(OCC)(OCC)=S",
    "meta_data": {
        "InChI": "InChI=1S/C9H20NO3PS2/c1-5-12-14(15,13-6-2)16-7-9(11)10-8(3)4/h8H,5-7H2,1-4H3,(H,10,11)",
        "InChIKey": null,
        "Canonical SMILES": "O=C(NC(C)C)CSP(=S)(OCC)OCC",
        "Molecular Formula": "C<sub>9</sub>H<sub>20</sub>NO<sub>3</sub>PS<sub>2</sub>",
        "Molecular Mass": "285.36",
        "Boiling Point": "152-155 °C @ Press: 0.1-0.2 Torr",
        "Melting Point": "28.5 °C",
        "Density": "1.151 g/cm³ @ Temp: 32 °C"
    }
}