{
    "cas_no": "33130-03-9",
    "key_name": "3-(2,3,4-Trimethoxyphenyl)-2-propenoic acid",
    "cn_name": "2,3,4-三甲氧基肉桂酸;",
    "alternate_name": "2-Propenoic acid, 3-(2,3,4-trimethoxyphenyl)-;3-(2,3,4-Trimethoxyphenyl)-2-propenoic acid;2,3,4-Trimethoxycinnamic acid;3-(2,3,4-Trimethoxyphenyl)propenoic acid",
    "duplicated_cas_no": "",
    "SMILES": "O(C)C1=C(OC)C(OC)=CC=C1C=CC(O)=O",
    "meta_data": {
        "InChI": "InChI=1S/C12H14O5/c1-15-9-6-4-8(5-7-10(13)14)11(16-2)12(9)17-3/h4-7H,1-3H3,(H,13,14)",
        "InChIKey": null,
        "Canonical SMILES": "O=C(O)C=CC1=CC=C(OC)C(OC)=C1OC",
        "Molecular Formula": "C<sub>12</sub>H<sub>14</sub>O<sub>5</sub>",
        "Molecular Mass": "238.24",
        "Melting Point": "172 °C"
    }
}