{
    "cas_no": "55453-24-2",
    "key_name": "Cyanopropyltrimethoxysilane",
    "cn_name": null,
    "alternate_name": "Butanenitrile, 4-(trimethoxysilyl)-;4-(Trimethoxysilyl)butanenitrile;γ-Cyanopropyltrimethoxysilane;Cyanopropyltrimethoxysilane;3-Cyanopropyltrimethoxysilane;Trimethoxy(3-cyanopropyl)silane",
    "duplicated_cas_no": "",
    "SMILES": "[Si](CCCC#N)(OC)(OC)OC",
    "meta_data": {
        "InChI": "InChI=1S/C7H15NO3Si/c1-9-12(10-2,11-3)7-5-4-6-8/h4-5,7H2,1-3H3",
        "InChIKey": null,
        "Canonical SMILES": "N#CCCC[Si](OC)(OC)OC",
        "Molecular Formula": "C<sub>7</sub>H<sub>15</sub>NO<sub>3</sub>Si",
        "Molecular Mass": "189.28",
        "Boiling Point": "90-92 °C @ Press: 7 Torr",
        "Density": "1.026 g/cm³ @ Temp: 25 °C"
    }
}