{
    "cas_no": "932-66-1",
    "key_name": "1-Acetylcyclohexene",
    "cn_name": null,
    "alternate_name": "Ethanone, 1-(1-cyclohexen-1-yl)-;Ketone, 1-cyclohexen-1-yl methyl;1-(1-Cyclohexen-1-yl)ethanone;1-Acetyl-1-cyclohexene;1-Acetylcyclohexene;1-Cyclohexen-1-yl methyl ketone;1-Cyclohexenyl methyl ketone;Methyl 1-cyclohexenyl ketone;1-Cyclohexen-1-ylethanone;NSC 12216;1-(Cyclohex-1-en-1-yl)ethan-1-one",
    "duplicated_cas_no": "",
    "SMILES": "C(C)(=O)C=1CCCCC1",
    "meta_data": {
        "InChI": "InChI=1S/C8H12O/c1-7(9)8-5-3-2-4-6-8/h5H,2-4,6H2,1H3",
        "InChIKey": null,
        "Canonical SMILES": "O=C(C1=CCCCC1)C",
        "Molecular Formula": "C<sub>8</sub>H<sub>12</sub>O",
        "Molecular Mass": "124.18",
        "Boiling Point": "201.5 °C",
        "Melting Point": "73 °C",
        "Density": "0.9704 g/cm³ @ Temp: 16 °C"
    }
}