{
    "cas_no": "115571-59-0",
    "key_name": "1,2-Dichloro-3-methyl-4-(trifluoromethyl)benzene",
    "cn_name": "2,3-二氯-6-三氟甲基甲苯;",
    "alternate_name": "Benzene, 1,2-dichloro-3-methyl-4-(trifluoromethyl)-;1,2-Dichloro-3-methyl-4-(trifluoromethyl)benzene;2,3-Dichloro-6-(trifluoromethyl)toluene",
    "duplicated_cas_no": "",
    "SMILES": "C(F)(F)(F)C1=C(C)C(Cl)=C(Cl)C=C1",
    "meta_data": {
        "InChI": "InChI=1S/C8H5Cl2F3/c1-4-5(8(11,12)13)2-3-6(9)7(4)10/h2-3H,1H3",
        "InChIKey": null,
        "Canonical SMILES": "FC(F)(F)C1=CC=C(Cl)C(Cl)=C1C",
        "Molecular Formula": "C<sub>8</sub>H<sub>5</sub>Cl<sub>2</sub>F<sub>3</sub>",
        "Molecular Mass": "229.03",
        "Boiling Point": "108-110 °C @ Press: 35 Torr"
    }
}