{
    "cas_no": "2001-45-8",
    "key_name": "Tetraphenylphosphonium chloride",
    "cn_name": "四苯基氯化鏻;",
    "alternate_name": "Phosphonium, tetraphenyl-, chloride (1:1);Phosphonium, tetraphenyl-, chloride;Tetraphenylphosphonium chloride;Chlorotetraphenylphosphorane;T 1735",
    "duplicated_cas_no": "23497-54-3",
    "SMILES": "[P+](C1=CC=CC=C1)(C2=CC=CC=C2)(C3=CC=CC=C3)C4=CC=CC=C4.[Cl-]",
    "meta_data": {
        "InChI": "InChI=1S/C24H20P.ClH/c1-5-13-21(14-6-1)25(22-15-7-2-8-16-22,23-17-9-3-10-18-23)24-19-11-4-12-20-24;/h1-20H;1H/q+1;/p-1",
        "InChIKey": null,
        "Canonical SMILES": "[Cl-].C=1C=CC(=CC1)[P+](C=2C=CC=CC2)(C=3C=CC=CC3)C=4C=CC=CC4",
        "Molecular Formula": "C<sub>24</sub>H<sub>20</sub>P.Cl",
        "Molecular Mass": "",
        "Melting Point": "265-267 °C"
    }
}