{
    "cas_no": "85302-07-4",
    "key_name": "2-[(Dimethylamino)methylene]-1,3-cyclohexanedione",
    "cn_name": "2-[(二甲基氨基)亚甲基]-1,3-环己二酮;",
    "alternate_name": "1,3-Cyclohexanedione, 2-[(dimethylamino)methylene]-;2-[(Dimethylamino)methylene]-1,3-cyclohexanedione;NSC 620164;2-((Dimethylamino)methylene)cyclohexan-1,3-dione;2-[(Dimethylamino)methylidene]cyclohexane-1,3-dione;2-(Dimethylaminomethylidene)cyclohexane-1,3-dione",
    "duplicated_cas_no": "",
    "SMILES": "C(N(C)C)=C1C(=O)CCCC1=O",
    "meta_data": {
        "InChI": "InChI=1S/C9H13NO2/c1-10(2)6-7-8(11)4-3-5-9(7)12/h6H,3-5H2,1-2H3",
        "InChIKey": null,
        "Canonical SMILES": "O=C1C(=CN(C)C)C(=O)CCC1",
        "Molecular Formula": "C<sub>9</sub>H<sub>13</sub>NO<sub>2</sub>",
        "Molecular Mass": "167.21",
        "Melting Point": "116 °C"
    }
}