{
    "cas_no": "4254-02-8",
    "key_name": "Cyclopentanecarbonitrile",
    "cn_name": "环戊腈;",
    "alternate_name": "Cyclopentanecarbonitrile;Cyclopentanenitrile;Cyclopentyl cyanide;Cyclopentyl nitrile;Cyanocyclopentane;1-Cyanocyclopentane",
    "duplicated_cas_no": "1800084-84-7",
    "SMILES": "C(#N)C1CCCC1",
    "meta_data": {
        "InChI": "InChI=1S/C6H9N/c7-5-6-3-1-2-4-6/h6H,1-4H2",
        "InChIKey": null,
        "Canonical SMILES": "N#CC1CCCC1",
        "Molecular Formula": "C<sub>6</sub>H<sub>9</sub>N",
        "Molecular Mass": "95.14",
        "Boiling Point": "168-170 °C",
        "Melting Point": "76 °C",
        "Density": "0.916 g/cm³ @ Temp: 22 °C"
    }
}