{
    "cas_no": "183321-74-6",
    "key_name": "Erlotinib",
    "cn_name": "埃罗替尼;N-(3-乙炔苯基)-[6,7-二(2-甲氧基乙氧基)]喹唑啉-4-胺;",
    "alternate_name": "4-Quinazolinamine, <em>N</em>-(3-ethynylphenyl)-6,7-bis(2-methoxyethoxy)-;<em>N</em>-(3-Ethynylphenyl)-6,7-bis(2-methoxyethoxy)-4-quinazolinamine;OSI 744;Erlotinib;NSC 718781;R 1415;4-[(3-Ethynylphenyl)amino]-6,7-bis(2-methoxyethoxy)quinazoline",
    "duplicated_cas_no": "",
    "SMILES": "N(C=1C2=C(C=C(OCCOC)C(OCCOC)=C2)N=CN1)C3=CC(C#C)=CC=C3",
    "meta_data": {
        "InChI": "InChI=1S/C22H23N3O4/c1-4-16-6-5-7-17(12-16)25-22-18-13-20(28-10-8-26-2)21(29-11-9-27-3)14-19(18)23-15-24-22/h1,5-7,12-15H,8-11H2,2-3H3,(H,23,24,25)",
        "InChIKey": null,
        "Canonical SMILES": "C#CC1=CC=CC(=C1)NC=2N=CN=C3C=C(OCCOC)C(OCCOC)=CC32",
        "Molecular Formula": "C<sub>22</sub>H<sub>23</sub>N<sub>3</sub>O<sub>4</sub>",
        "Molecular Mass": "393.44",
        "Melting Point": "159-160 °C"
    }
}