{
    "cas_no": "2338-54-7",
    "key_name": "1-Fluoro-4-methoxy-2-methylbenzene",
    "cn_name": "4-氟-3-甲基苯甲醚;",
    "alternate_name": "Benzene, 1-fluoro-4-methoxy-2-methyl-;Anisole, 4-fluoro-3-methyl-;1-Fluoro-4-methoxy-2-methylbenzene;2-Fluoro-5-methoxytoluene;4-Fluoro-3-methylanisole",
    "duplicated_cas_no": "",
    "SMILES": "O(C)C1=CC(C)=C(F)C=C1",
    "meta_data": {
        "InChI": "InChI=1S/C8H9FO/c1-6-5-7(10-2)3-4-8(6)9/h3-5H,1-2H3",
        "InChIKey": null,
        "Canonical SMILES": "FC1=CC=C(OC)C=C1C",
        "Molecular Formula": "C<sub>8</sub>H<sub>9</sub>FO",
        "Molecular Mass": "140.15",
        "Boiling Point": "174-175 °C @ Press: 762 Torr"
    }
}