{
    "cas_no": "3054-01-1",
    "key_name": "<em>S</em>-Benzyl-<span class=\"text-smallcaps\">L</span>-cysteine",
    "cn_name": "S-苄基-L-半胱氨酸;",
    "alternate_name": "<span class=\"text-smallcaps\">L</span>-Cysteine, <em>S</em>-(phenylmethyl)-;Alanine, 3-(benzylthio)-, <span class=\"text-smallcaps\">L</span>-;<em>S</em>-(Phenylmethyl)-<span class=\"text-smallcaps\">L</span>-cysteine;<em>S</em>-Benzyl-<span class=\"text-smallcaps\">L</span>-cysteine;<em>S</em>-Benzylcysteine;(<em>R</em>)-<em>S</em>-Benzylcysteine;<span class=\"text-smallcaps\">L</span>-<em>S</em>-Benzylcysteine;3-Benzylthioalanine;(<em>S</em>)-<em>S</em>-Benzylcysteine;NSC 523123;<em>S</em>-Benzyl-(<em>R</em>)-cysteine;(<em>R</em>)-2-Amino-3-(benzylthio)propanoic acid;(2R)-2-Amino-3-(benzylsulfanyl)propanoic acid;(2R)-2-Amino-3-benzylsulfanylpropanoic acid;165: PN: US20220128567 SEQID: 534 claimed sequence;165: PN: US20220178935 SEQID: 534 claimed sequence;532: PN: WO2023172654 SEQID: 534 claimed sequence",
    "duplicated_cas_no": "",
    "SMILES": "C(SC[C@@H](C(O)=O)N)C1=CC=CC=C1",
    "meta_data": {
        "InChI": "InChI=1S/C10H13NO2S/c11-9(10(12)13)7-14-6-8-4-2-1-3-5-8/h1-5,9H,6-7,11H2,(H,12,13)/t9-/m0/s1",
        "InChIKey": null,
        "Canonical SMILES": "O=C(O)C(N)CSCC=1C=CC=CC1",
        "Molecular Formula": "C<sub>10</sub>H<sub>13</sub>NO<sub>2</sub>S",
        "Molecular Mass": "211.28",
        "Melting Point": "215-216 °C"
    }
}