{
    "cas_no": "768-90-1",
    "key_name": "1-Bromoadamantane",
    "cn_name": "1-溴金刚烷;",
    "alternate_name": "Tricyclo[3.3.1.1<sup>3,7</sup>]decane, 1-bromo-;Adamantane, 1-bromo-;1-Bromotricyclo[3.3.1.1<sup>3,7</sup>]decane;1-Bromoadamantane;1-Adamantyl bromide;Adamantyl bromide;NSC 527914",
    "duplicated_cas_no": "",
    "SMILES": "BrC12CC3CC(C1)CC(C2)C3",
    "meta_data": {
        "InChI": "InChI=1S/C10H15Br/c11-10-4-7-1-8(5-10)3-9(2-7)6-10/h7-9H,1-6H2",
        "InChIKey": null,
        "Canonical SMILES": "BrC12CC3CC(CC(C3)C1)C2",
        "Molecular Formula": "C<sub>10</sub>H<sub>15</sub>Br",
        "Molecular Mass": "215.13",
        "Melting Point": "118 °C"
    }
}