{
    "cas_no": "551-93-9",
    "key_name": "2′-Aminoacetophenone",
    "cn_name": "邻氨基苯乙酮;",
    "alternate_name": "Ethanone, 1-(2-aminophenyl)-;Acetophenone, 2′-amino-;Acetophenone, <em>o</em>-amino-;1-(2-Aminophenyl)ethanone;<em>o</em>-Aminoacetophenone;2′-Aminoacetophenone;<em>o</em>-Aminoacetylbenzene;2-Acetylaniline;<em>o</em>-Aminophenyl methyl ketone;1-Acetyl-2-aminobenzene;<em>o</em>-Acetylaniline;2-Aminophenyl methyl ketone;2-Acetylphenylamine;Methyl 2-aminophenyl ketone;2-(Methylcarbonyl)benzenamine;NSC 8820;1-(2-Aminophenyl)ethan-1-one",
    "duplicated_cas_no": "",
    "SMILES": "C(C)(=O)C1=C(N)C=CC=C1",
    "meta_data": {
        "InChI": "InChI=1S/C8H9NO/c1-6(10)7-4-2-3-5-8(7)9/h2-5H,9H2,1H3",
        "InChIKey": null,
        "Canonical SMILES": "O=C(C=1C=CC=CC1N)C",
        "Molecular Formula": "C<sub>8</sub>H<sub>9</sub>NO",
        "Molecular Mass": "135.16",
        "Boiling Point": "85-90 °C",
        "Melting Point": "20 °C"
    }
}