{
    "cas_no": "23056-39-5",
    "key_name": "2-Chloro-4-methyl-3-nitropyridine",
    "cn_name": "2-氯-4-甲基-3-硝基吡啶;",
    "alternate_name": "Pyridine, 2-chloro-4-methyl-3-nitro-;4-Picoline, 2-chloro-3-nitro-;2-Chloro-4-methyl-3-nitropyridine;2-Chloro-3-nitro-4-methylpyridine;NSC 402977",
    "duplicated_cas_no": "",
    "SMILES": "N(=O)(=O)C=1C(C)=CC=NC1Cl",
    "meta_data": {
        "InChI": "InChI=1S/C6H5ClN2O2/c1-4-2-3-8-6(7)5(4)9(10)11/h2-3H,1H3",
        "InChIKey": null,
        "Canonical SMILES": "O=N(=O)C=1C(Cl)=NC=CC1C",
        "Molecular Formula": "C<sub>6</sub>H<sub>5</sub>ClN<sub>2</sub>O<sub>2</sub>",
        "Molecular Mass": "172.57",
        "Melting Point": "52-52.9 °C"
    }
}