{
    "cas_no": "57543-62-1",
    "key_name": "6-Methoxy-2<em>H</em>-1-benzopyran-3-carboxylic acid",
    "cn_name": null,
    "alternate_name": "2<em>H</em>-1-Benzopyran-3-carboxylic acid, 6-methoxy-;6-Methoxy-2<em>H</em>-1-benzopyran-3-carboxylic acid",
    "duplicated_cas_no": "",
    "SMILES": "C(O)(=O)C1=CC=2C(=CC=C(OC)C2)OC1",
    "meta_data": {
        "InChI": "InChI=1S/C11H10O4/c1-14-9-2-3-10-7(5-9)4-8(6-15-10)11(12)13/h2-5H,6H2,1H3,(H,12,13)",
        "InChIKey": null,
        "Canonical SMILES": "O=C(O)C1=CC=2C=C(OC)C=CC2OC1",
        "Molecular Formula": "C<sub>11</sub>H<sub>10</sub>O<sub>4</sub>",
        "Molecular Mass": "206.19",
        "Melting Point": "184-186 °C"
    }
}