{
    "cas_no": "1459-95-6",
    "key_name": "Dimethyl 1,3-adamantanedicarboxylate",
    "cn_name": "1,3-金刚烷二羧酸二甲酯;",
    "alternate_name": "Tricyclo[3.3.1.1<sup>3,7</sup>]decane-1,3-dicarboxylic acid, 1,3-dimethyl ester;1,3-Adamantanedicarboxylic acid, dimethyl ester;Tricyclo[3.3.1.1<sup>3,7</sup>]decane-1,3-dicarboxylic acid, dimethyl ester;Dimethyl 1,3-adamantanedicarboxylate;NSC 632548",
    "duplicated_cas_no": "",
    "SMILES": "C(OC)(=O)C12CC3(C(OC)=O)CC(C1)CC(C2)C3",
    "meta_data": {
        "InChI": "InChI=1S/C14H20O4/c1-17-11(15)13-4-9-3-10(5-13)7-14(6-9,8-13)12(16)18-2/h9-10H,3-8H2,1-2H3",
        "InChIKey": null,
        "Canonical SMILES": "O=C(OC)C12CC3CC(C1)CC(C(=O)OC)(C3)C2",
        "Molecular Formula": "C<sub>14</sub>H<sub>20</sub>O<sub>4</sub>",
        "Molecular Mass": "252.31",
        "Melting Point": "61-62 °C"
    }
}