{
    "cas_no": "33985-71-6",
    "key_name": "2,3,6,7-Tetrahydro-1<em>H</em>,5<em>H</em>-benzo[<em>ij</em>]quinolizine-9-carboxaldehyde",
    "cn_name": "9-醛基久洛尼定;2,3,6,7-四氢-1H,5H-苯并[ij]喹嗪-9-甲醛;",
    "alternate_name": "1<em>H</em>,5<em>H</em>-Benzo[<em>ij</em>]quinolizine-9-carboxaldehyde, 2,3,6,7-tetrahydro-;2,3,6,7-Tetrahydro-1<em>H</em>,5<em>H</em>-benzo[<em>ij</em>]quinolizine-9-carboxaldehyde;9-Julolidinecarboxaldehyde;9-Julolidinylcarboxaldehyde;9-Formyljulolidine;9-Julolidinal;NSC 159999;2,3,6,7-Tetrahydro-1<em>H</em>,5<em>H</em>-pyrido[3,2,1-<em>ij</em>]quinoline-9-carbaldehyde;9-Formyl-2,3,6,7-tetrahydro-1<em>H</em>,5<em>H</em>-benzo[<em>ij</em>]quinolizine",
    "duplicated_cas_no": "",
    "SMILES": "C(=O)C=1C=C2C3=C(C1)CCCN3CCC2",
    "meta_data": {
        "InChI": "InChI=1S/C13H15NO/c15-9-10-7-11-3-1-5-14-6-2-4-12(8-10)13(11)14/h7-9H,1-6H2",
        "InChIKey": null,
        "Canonical SMILES": "O=CC=1C=C2C3=C(C1)CCCN3CCC2",
        "Molecular Formula": "C<sub>13</sub>H<sub>15</sub>NO",
        "Molecular Mass": "201.26",
        "Melting Point": "83 °C"
    }
}