{
    "cas_no": "7194-84-5",
    "key_name": "Heptatriacontane",
    "cn_name": "三十七烷;",
    "alternate_name": "Heptatriacontane;<em>n</em>-Heptatriacontane",
    "duplicated_cas_no": "",
    "SMILES": "C(CCCCCCCCCCCCCCCCCC)CCCCCCCCCCCCCCCCCC",
    "meta_data": {
        "InChI": "InChI=1S/C37H76/c1-3-5-7-9-11-13-15-17-19-21-23-25-27-29-31-33-35-37-36-34-32-30-28-26-24-22-20-18-16-14-12-10-8-6-4-2/h3-37H2,1-2H3",
        "InChIKey": null,
        "Canonical SMILES": "CCCCCCCCCCCCCCCCCCCCCCCCCCCCCCCCCCCCC",
        "Molecular Formula": "C<sub>37</sub>H<sub>76</sub>",
        "Molecular Mass": "521.00",
        "Boiling Point": "505 °C"
    }
}