{
    "cas_no": "2524-67-6",
    "key_name": "4-Morpholinoaniline",
    "cn_name": "4-(4-吗啉基)苯胺;N-(4-氨基苯基)吗啉;",
    "alternate_name": "Benzenamine, 4-(4-morpholinyl)-;Morpholine, 4-(<em>p</em>-aminophenyl)-;4-(4-Morpholinyl)benzenamine;4-Morpholinoaniline;<em>p</em>-Morpholinoaniline;<em>N</em>-(4-Aminophenyl)morpholine;<em>N</em>-(4′-Aminophenyl)morpholine;4-<em>N</em>-Morpholinoaniline;4-(4-Aminophenyl)morpholine;4-(4-Morpholinyl)aniline;4-(Morpholin-4-yl)phenylamine;4-Morpholinobenzenamine;(4-(Morpholino)phenyl)amine;NSC 26334",
    "duplicated_cas_no": "131852-32-9",
    "SMILES": "NC1=CC=C(C=C1)N2CCOCC2",
    "meta_data": {
        "InChI": "InChI=1S/C10H14N2O/c11-9-1-3-10(4-2-9)12-5-7-13-8-6-12/h1-4H,5-8,11H2",
        "InChIKey": null,
        "Canonical SMILES": "O1CCN(C2=CC=C(N)C=C2)CC1",
        "Molecular Formula": "C<sub>10</sub>H<sub>14</sub>N<sub>2</sub>O",
        "Molecular Mass": "178.23",
        "Melting Point": "129.5-130.5 °C"
    }
}