{
    "cas_no": "350-40-3",
    "key_name": "1-Fluoro-4-(1-methylethenyl)benzene",
    "cn_name": "1-氟-4-(异丙烯基)苯;4-氟-alpha-甲基苯乙烯;",
    "alternate_name": "Benzene, 1-fluoro-4-(1-methylethenyl)-;Styrene, <em>p</em>-fluoro-α-methyl-;1-Fluoro-4-(1-methylethenyl)benzene;<em>p</em>-Fluoro-α-methylstyrene;4-Fluoro-α-methylstyrene;1-Fluoro-4-isopropenylbenzene;2-(4-Fluorophenyl)propene;2-(4-Fluorophenyl)-1-propene;4-Fluoro-1-isopropenylbenzene;NSC 74474;1-Fluoro-4-(prop-1-en-2-yl)benzene;α-Methyl-4-fluorostyrene",
    "duplicated_cas_no": "",
    "SMILES": "C(C)(=C)C1=CC=C(F)C=C1",
    "meta_data": {
        "InChI": "InChI=1S/C9H9F/c1-7(2)8-3-5-9(10)6-4-8/h3-6H,1H2,2H3",
        "InChIKey": null,
        "Canonical SMILES": "FC1=CC=C(C=C1)C(=C)C",
        "Molecular Formula": "C<sub>9</sub>H<sub>9</sub>F",
        "Molecular Mass": "136.17",
        "Boiling Point": "90-94 °C @ Press: 80 Torr"
    }
}