{
    "cas_no": "118-69-4",
    "key_name": "2,6-Dichlorotoluene",
    "cn_name": "2,6-二氯甲苯;1,3-二氯-2-甲基苯;",
    "alternate_name": "Benzene, 1,3-dichloro-2-methyl-;Toluene, 2,6-dichloro-;1,3-Dichloro-2-methylbenzene;2,6-Dichlorotoluene;2,6-Dichloro-1-methylbenzene;NSC 60722",
    "duplicated_cas_no": "",
    "SMILES": "CC1=C(Cl)C=CC=C1Cl",
    "meta_data": {
        "InChI": "InChI=1S/C7H6Cl2/c1-5-6(8)3-2-4-7(5)9/h2-4H,1H3",
        "InChIKey": null,
        "Canonical SMILES": "ClC1=CC=CC(Cl)=C1C",
        "Molecular Formula": "C<sub>7</sub>H<sub>6</sub>Cl<sub>2</sub>",
        "Molecular Mass": "161.03",
        "Boiling Point": "198 °C @ Press: 760 Torr",
        "Melting Point": "25.8 °C",
        "Density": "1.2686 g/cm³ @ Temp: 20 °C"
    }
}