{
    "cas_no": "605-45-8",
    "key_name": "Diisopropyl phthalate",
    "cn_name": null,
    "alternate_name": "1,2-Benzenedicarboxylic acid, 1,2-bis(1-methylethyl) ester;Phthalic acid, diisopropyl ester;1,2-Benzenedicarboxylic acid, bis(1-methylethyl) ester;Diisopropyl phthalate;Diisopropyl phthalic acid;NSC 15315",
    "duplicated_cas_no": "",
    "SMILES": "C(OC(C)C)(=O)C1=C(C(OC(C)C)=O)C=CC=C1",
    "meta_data": {
        "InChI": "InChI=1S/C14H18O4/c1-9(2)17-13(15)11-7-5-6-8-12(11)14(16)18-10(3)4/h5-10H,1-4H3",
        "InChIKey": null,
        "Canonical SMILES": "O=C(OC(C)C)C=1C=CC=CC1C(=O)OC(C)C",
        "Molecular Formula": "C<sub>14</sub>H<sub>18</sub>O<sub>4</sub>",
        "Molecular Mass": "250.29",
        "Boiling Point": "130 °C @ Press: 12 Torr",
        "Density": "1.0740 g/cm³ @ Temp: 20 °C"
    }
}