{
    "cas_no": "41105-35-5",
    "key_name": "1-Chloro-9,10-bis(phenylethynyl)anthracene",
    "cn_name": null,
    "alternate_name": "Anthracene, 1-chloro-9,10-bis(2-phenylethynyl)-;Anthracene, 1-chloro-9,10-bis(phenylethynyl)-;1-Chloro-9,10-bis(2-phenylethynyl)anthracene;1-Chloro-9,10-bis(phenylethynyl)anthracene;9,10-Bis(phenylethynyl)-1-chloroanthracene",
    "duplicated_cas_no": "",
    "SMILES": "C(#CC1=CC=CC=C1)C=2C3=C(C(C#CC4=CC=CC=C4)=C5C2C=CC=C5)C(Cl)=CC=C3",
    "meta_data": {
        "InChI": "InChI=1S/C30H17Cl/c31-29-17-9-16-27-26(20-18-22-10-3-1-4-11-22)24-14-7-8-15-25(24)28(30(27)29)21-19-23-12-5-2-6-13-23/h1-17H",
        "InChIKey": null,
        "Canonical SMILES": "ClC1=CC=CC2=C(C#CC=3C=CC=CC3)C=4C=CC=CC4C(C#CC=5C=CC=CC5)=C12",
        "Molecular Formula": "C<sub>30</sub>H<sub>17</sub>Cl",
        "Molecular Mass": "412.91",
        "Melting Point": "205-206 °C"
    }
}