{
    "cas_no": "1076-74-0",
    "key_name": "5-Methoxy-2-methylindole",
    "cn_name": "5-甲氧基-2-甲基吲哚;",
    "alternate_name": "1<em>H</em>-Indole, 5-methoxy-2-methyl-;Indole, 5-methoxy-2-methyl-;5-Methoxy-2-methyl-1<em>H</em>-indole;2-Methyl-5-methoxyindole;5-Methoxy-2-methylindole;NSC 63817",
    "duplicated_cas_no": "",
    "SMILES": "CC=1NC=2C(=CC(OC)=CC2)C1",
    "meta_data": {
        "InChI": "InChI=1S/C10H11NO/c1-7-5-8-6-9(12-2)3-4-10(8)11-7/h3-6,11H,1-2H3",
        "InChIKey": null,
        "Canonical SMILES": "O(C=1C=CC=2NC(=CC2C1)C)C",
        "Molecular Formula": "C<sub>10</sub>H<sub>11</sub>NO",
        "Molecular Mass": "161.20",
        "Boiling Point": "140-145 °C @ Press: 0.9-1.5 Torr",
        "Melting Point": "89-90 °C"
    }
}