{
    "cas_no": "118525-40-9",
    "key_name": "Icaritin",
    "cn_name": null,
    "alternate_name": "4<em>H</em>-1-Benzopyran-4-one, 3,5,7-trihydroxy-2-(4-methoxyphenyl)-8-(3-methyl-2-buten-1-yl)-;4<em>H</em>-1-Benzopyran-4-one, 3,5,7-trihydroxy-2-(4-methoxyphenyl)-8-(3-methyl-2-butenyl)-;3,5,7-Trihydroxy-2-(4-methoxyphenyl)-8-(3-methyl-2-buten-1-yl)-4<em>H</em>-1-benzopyran-4-one;Icaritin;AF 40;3,5,7-Trihydroxy-2-(4-methoxyphenyl)-8-(3-methylbut-2-enyl)chromen-4-one",
    "duplicated_cas_no": "",
    "SMILES": "C(C=C(C)C)C1=C2C(C(=O)C(O)=C(O2)C3=CC=C(OC)C=C3)=C(O)C=C1O",
    "meta_data": {
        "InChI": "InChI=1S/C21H20O6/c1-11(2)4-9-14-15(22)10-16(23)17-18(24)19(25)20(27-21(14)17)12-5-7-13(26-3)8-6-12/h4-8,10,22-23,25H,9H2,1-3H3",
        "InChIKey": null,
        "Canonical SMILES": "O=C1C(O)=C(OC=2C1=C(O)C=C(O)C2CC=C(C)C)C=3C=CC(OC)=CC3",
        "Molecular Formula": "C<sub>21</sub>H<sub>20</sub>O<sub>6</sub>",
        "Molecular Mass": "368.38",
        "Melting Point": "239-239.5 °C"
    }
}