{
    "cas_no": "26278-79-5",
    "key_name": "2-Amino-6-benzothiazolol",
    "cn_name": "2-氨基-6-羟基苯并噻唑;",
    "alternate_name": "6-Benzothiazolol, 2-amino-;2-Amino-6-benzothiazolol;6-Hydroxybenzothiazol-2-amine;2-Amino-1,3-benzothiazol-6-ol;2-Amino-6-hydroxybenzothiazole;6-Hydroxy-2-aminobenzothiazole;2-Aminobenzo[<em>d</em>]thiazol-6-ol",
    "duplicated_cas_no": "",
    "SMILES": "NC1=NC=2C(S1)=CC(O)=CC2",
    "meta_data": {
        "InChI": "InChI=1S/C7H6N2OS/c8-7-9-5-2-1-4(10)3-6(5)11-7/h1-3,10H,(H2,8,9)",
        "InChIKey": null,
        "Canonical SMILES": "OC=1C=CC=2N=C(SC2C1)N",
        "Molecular Formula": "C<sub>7</sub>H<sub>6</sub>N<sub>2</sub>OS",
        "Molecular Mass": "166.20",
        "Melting Point": "247 °C"
    }
}