{
    "cas_no": "30636-90-9",
    "key_name": "(20<em>S</em>)-Protopanaxadiol",
    "cn_name": null,
    "alternate_name": "Dammar-24-ene-3,12,20-triol, (3β,12β)-;Dammar-24-ene-3β,12β,20-triol;(3β,12β)-Dammar-24-ene-3,12,20-triol;20-Epiprotopanaxadiol;(20<em>S</em>)-Protopanaxadiol;20(<em>S</em>)-APPD",
    "duplicated_cas_no": "248915-81-3",
    "SMILES": "C[C@]12[C@@]3(C)[C@@]([C@@]([C@@](CCC=C(C)C)(C)O)(CC3)[H])([C@H](O)C[C@@]1([C@]4(C)[C@@](CC2)(C(C)(C)[C@@H](O)CC4)[H])[H])[H]",
    "meta_data": {
        "InChI": "InChI=1S/C30H52O3/c1-19(2)10-9-14-30(8,33)20-11-16-29(7)25(20)21(31)18-23-27(5)15-13-24(32)26(3,4)22(27)12-17-28(23,29)6/h10,20-25,31-33H,9,11-18H2,1-8H3/t20-,21+,22-,23+,24-,25-,27-,28+,29+,30-/m0/s1",
        "InChIKey": null,
        "Canonical SMILES": "OC1CC2C3(C)CCC(O)C(C)(C)C3CCC2(C)C4(C)CCC(C14)C(O)(C)CCC=C(C)C",
        "Molecular Formula": "C<sub>30</sub>H<sub>52</sub>O<sub>3</sub>",
        "Molecular Mass": "460.73",
        "Melting Point": "197-200 °C"
    }
}