{
    "cas_no": "766-09-6",
    "key_name": "<em>N</em>-Ethylpiperidine",
    "cn_name": "N-乙基哌啶;",
    "alternate_name": "Piperidine, 1-ethyl-;1-Ethylpiperidine;<em>N</em>-Ethylpiperidine;NSC 2090",
    "duplicated_cas_no": "138222-44-3",
    "SMILES": "C(C)N1CCCCC1",
    "meta_data": {
        "InChI": "InChI=1S/C7H15N/c1-2-8-6-4-3-5-7-8/h2-7H2,1H3",
        "InChIKey": null,
        "Canonical SMILES": "N1(CC)CCCCC1",
        "Molecular Formula": "C<sub>7</sub>H<sub>15</sub>N",
        "Molecular Mass": "113.20",
        "Boiling Point": "130.8 °C",
        "Density": "0.8232 g/cm³ @ Temp: 20 °C"
    }
}