{
    "cas_no": "18147-23-4",
    "key_name": "Butyldichloromethylsilane",
    "cn_name": "N-丁基甲基二氯化硅;",
    "alternate_name": "Silane, butyldichloromethyl-;Butyldichloromethylsilane;Butylmethyldichlorosilane;<em>n</em>-Butylmethyldichlorosilane",
    "duplicated_cas_no": "",
    "SMILES": "C([Si](C)(Cl)Cl)CCC",
    "meta_data": {
        "InChI": "InChI=1S/C5H12Cl2Si/c1-3-4-5-8(2,6)7/h3-5H2,1-2H3",
        "InChIKey": null,
        "Canonical SMILES": "Cl[Si](Cl)(C)CCCC",
        "Molecular Formula": "C<sub>5</sub>H<sub>12</sub>Cl<sub>2</sub>Si",
        "Molecular Mass": "171.14",
        "Boiling Point": "148 °C",
        "Density": "1.042 g/cm³"
    }
}