{
    "cas_no": "629-70-9",
    "key_name": "Hexadecyl acetate",
    "cn_name": "1-十六烷醇甲酸酯;",
    "alternate_name": "1-Hexadecanol, 1-acetate;1-Hexadecanol, acetate;Cetyl acetate;Hexadecyl acetate;Palmityl acetate;ENT 1025;1-Acetoxyhexadecane;Hexadecanol acetate;NSC 8492",
    "duplicated_cas_no": "",
    "SMILES": "C(CCCCCCCCCCC)CCCCOC(C)=O",
    "meta_data": {
        "InChI": "InChI=1S/C18H36O2/c1-3-4-5-6-7-8-9-10-11-12-13-14-15-16-17-20-18(2)19/h3-17H2,1-2H3",
        "InChIKey": null,
        "Canonical SMILES": "O=C(OCCCCCCCCCCCCCCCC)C",
        "Molecular Formula": "C<sub>18</sub>H<sub>36</sub>O<sub>2</sub>",
        "Molecular Mass": "284.48",
        "Boiling Point": "156.8 °C @ Press: 1.5 Torr",
        "Melting Point": "-18.5 °C"
    }
}