{
    "cas_no": "58-38-8",
    "key_name": "Prochlorperazine",
    "cn_name": "奋乃静;丙氯拉嗪;甲哌氯丙嗪;2-氯-10-[3-(4-甲基哌嗪-1-基)丙基]吩噻嗪;",
    "alternate_name": "10<em>H</em>-Phenothiazine, 2-chloro-10-[3-(4-methyl-1-piperazinyl)propyl]-;Phenothiazine, 2-chloro-10-[3-(4-methyl-1-piperazinyl)propyl]-;2-Chloro-10-[3-(4-methyl-1-piperazinyl)propyl]-10<em>H</em>-phenothiazine;SKF 4657;6140RP;3-Chloro-10-[3-(1-methyl-4-piperazinyl)propyl]phenothiazine;2-Chloro-10-(3-[1-methyl-4-piperazinyl]propyl)phenothiazine;2-Chloro-10-[3-(4-methyl-1-piperazinyl)propyl]phenothiazine;Chlorperazine;Meterazine;<em>N</em>-[γ-(4′-Methylpiperazinyl-1′)propyl]-3-chlorophenothiazine;Nipodal;Prochlorperazine;Prochlorpromazine;Prochlorperazin;Temetid;Chlormeprazine;Kronocin;Bayer A 173;Capazine;Emelent;Meterazin;Prochlorpemazine;RP 6140;Proazine;NSC 17478;NSC 665801;DDD 66604;MeSH ID: D011346",
    "duplicated_cas_no": "",
    "SMILES": "C(CCN1CCN(C)CC1)N2C=3C(SC=4C2=CC=CC4)=CC=C(Cl)C3",
    "meta_data": {
        "InChI": "InChI=1S/C20H24ClN3S/c1-22-11-13-23(14-12-22)9-4-10-24-17-5-2-3-6-19(17)25-20-8-7-16(21)15-18(20)24/h2-3,5-8,15H,4,9-14H2,1H3",
        "InChIKey": null,
        "Canonical SMILES": "ClC1=CC=C2SC=3C=CC=CC3N(C2=C1)CCCN4CCN(C)CC4",
        "Molecular Formula": "C<sub>20</sub>H<sub>24</sub>ClN<sub>3</sub>S",
        "Molecular Mass": "373.94",
        "Boiling Point": "260-275 °C @ Press: 2 Torr",
        "Melting Point": "228 °C"
    }
}