{
    "cas_no": "128-51-8",
    "key_name": "Nopyl acetate",
    "cn_name": "6,6-二甲基-二环[3.1.1]-庚-2-烯-2-乙醇乙酸酯;",
    "alternate_name": "Bicyclo[3.1.1]hept-2-ene-2-ethanol, 6,6-dimethyl-, 2-acetate;2-Norpinene-2-ethanol, 6,6-dimethyl-, acetate;Bicyclo[3.1.1]hept-2-ene-2-ethanol, 6,6-dimethyl-, acetate;Citroviol;7,7-Dimethylbicyclo[3.1.1]hept-2-ene-2-ethanol acetate;Nopyl acetate;Nopol acetate;NSC 1286;NSC 404963;2-(6,6-Dimethylbicyclo[3.1.1]hept-2-en-2-yl)ethyl acetate",
    "duplicated_cas_no": "",
    "SMILES": "C(COC(C)=O)C=1C2C(C)(C)C(C2)CC1",
    "meta_data": {
        "InChI": "InChI=1S/C13H20O2/c1-9(14)15-7-6-10-4-5-11-8-12(10)13(11,2)3/h4,11-12H,5-8H2,1-3H3",
        "InChIKey": null,
        "Canonical SMILES": "O=C(OCCC1=CCC2CC1C2(C)C)C",
        "Molecular Formula": "C<sub>13</sub>H<sub>20</sub>O<sub>2</sub>",
        "Molecular Mass": "208.30",
        "Boiling Point": "118 °C @ Press: 10 Torr",
        "Density": "0.9772 g/cm³ @ Temp: 25 °C"
    }
}