{
    "cas_no": "482-36-0",
    "key_name": "Hyperoside",
    "cn_name": "金丝桃苷;槲皮素-3-半乳糖甙;2-(3,4-二羟基苯基)-3-(beta-D-吡喃半乳糖氧基)-5,7-二羟基-4H-1-苯并吡喃-4-;",
    "alternate_name": "4<em>H</em>-1-Benzopyran-4-one, 2-(3,4-dihydroxyphenyl)-3-(β-<span class=\"text-smallcaps\">D</span>-galactopyranosyloxy)-5,7-dihydroxy-;Hyperin;2-(3,4-Dihydroxyphenyl)-3-(β-<span class=\"text-smallcaps\">D</span>-galactopyranosyloxy)-5,7-dihydroxy-4<em>H</em>-1-benzopyran-4-one;Hyperoside;Hyperosid;Quercetin 3-galactoside;Quercetin 3-<em>O</em>-galactoside;Quercetin 3-<em>O</em>-β-<span class=\"text-smallcaps\">D</span>-galactopyranoside;Quercetin 3-<em>O</em>-β-<span class=\"text-smallcaps\">D</span>-galactoside;Quercetin 3-β-<span class=\"text-smallcaps\">D</span>-galactoside;Quercetin 3-β-galactoside;3,3′,4′,5,7-Pentahydroxyflavone 3-<em>O</em>-β-<span class=\"text-smallcaps\">D</span>-galactopyranoside;3-<em>O</em>-β-<em>D</em>-galactopyranosylquercetin;Quercetin 3-<em>O</em>-β-galactoside;3-<em>O</em>-β-<span class=\"text-smallcaps\">D</span>-Galactopyranosyl quercetin;Quercetin 3-<em>O</em>-β-galactopyranoside;NSC 407304;Quercetin 3-<em>O</em>-galactopyranoside;3-<span class=\"text-smallcaps\">D</span>-Galactosylquercetin",
    "duplicated_cas_no": "112457-37-1;26857-03-4;28986-85-8;29224-70-2;31710-72-2;56552-81-9;61277-37-0;63003-36-1;71184-39-9;158560-10-2",
    "SMILES": "O(C1=C(OC=2C(C1=O)=C(O)C=C(O)C2)C3=CC(O)=C(O)C=C3)[C@@H]4O[C@H](CO)[C@H](O)[C@H](O)[C@H]4O",
    "meta_data": {
        "InChI": "InChI=1S/C21H20O12/c22-6-13-15(27)17(29)18(30)21(32-13)33-20-16(28)14-11(26)4-8(23)5-12(14)31-19(20)7-1-2-9(24)10(25)3-7/h1-5,13,15,17-18,21-27,29-30H,6H2/t13-,15+,17+,18-,21+/m1/s1",
        "InChIKey": null,
        "Canonical SMILES": "O=C1C(OC2OC(CO)C(O)C(O)C2O)=C(OC=3C=C(O)C=C(O)C13)C=4C=CC(O)=C(O)C4",
        "Molecular Formula": "C<sub>21</sub>H<sub>20</sub>O<sub>12</sub>",
        "Molecular Mass": "464.38",
        "Melting Point": "236 °C"
    }
}