{
    "cas_no": "155-91-9",
    "key_name": "Sulfadimethoxypyrimidine",
    "cn_name": "磺胺间二甲氧嘧啶 [155-91-9];",
    "alternate_name": "Benzenesulfonamide, 4-amino-<em>N</em>-(4,6-dimethoxy-2-pyrimidinyl)-;Sulfanilamide, <em>N</em><sup>1</sup>-(4,6-dimethoxy-2-pyrimidinyl)-;Sulfanilamide, <em>N</em><sup>1</sup>-(4,6-dimethoxy-2-pyrimidyl)-;4-Amino-<em>N</em>-(4,6-dimethoxy-2-pyrimidinyl)benzenesulfonamide;ICI 3435;Sulfamoprine;Sulfadimethoxypyrimidine;NSC 8560",
    "duplicated_cas_no": "",
    "SMILES": "N(S(=O)(=O)C1=CC=C(N)C=C1)C=2N=C(OC)C=C(OC)N2",
    "meta_data": {
        "InChI": "InChI=1S/C12H14N4O4S/c1-19-10-7-11(20-2)15-12(14-10)16-21(17,18)9-5-3-8(13)4-6-9/h3-7H,13H2,1-2H3,(H,14,15,16)",
        "InChIKey": null,
        "Canonical SMILES": "O=S(=O)(NC1=NC(OC)=CC(=N1)OC)C2=CC=C(N)C=C2",
        "Molecular Formula": "C<sub>12</sub>H<sub>14</sub>N<sub>4</sub>O<sub>4</sub>S",
        "Molecular Mass": "310.33",
        "Melting Point": "171.5 °C"
    }
}