{
    "cas_no": "939-27-5",
    "key_name": "2-Ethylnaphthalene",
    "cn_name": null,
    "alternate_name": "Naphthalene, 2-ethyl-;2-Ethylnaphthalene;β-Ethylnaphthalene;3-Ethylnaphthalene;NSC 59389",
    "duplicated_cas_no": "",
    "SMILES": "C(C)C1=CC2=C(C=C1)C=CC=C2",
    "meta_data": {
        "InChI": "InChI=1S/C12H12/c1-2-10-7-8-11-5-3-4-6-12(11)9-10/h3-9H,2H2,1H3",
        "InChIKey": null,
        "Canonical SMILES": "C=1C=CC=2C=C(C=CC2C1)CC",
        "Molecular Formula": "C<sub>12</sub>H<sub>12</sub>",
        "Molecular Mass": "156.22",
        "Boiling Point": "258 °C",
        "Melting Point": "-7.4 °C",
        "Density": "1.0069 g/cm³ @ Temp: 0 °C"
    }
}