{
    "cas_no": "5467-58-3",
    "key_name": "1-Bromo-4-methoxynaphthalene",
    "cn_name": "1-溴-4-甲氧基萘酚;1-溴-4-甲氧基萘酚;",
    "alternate_name": "Naphthalene, 1-bromo-4-methoxy-;1-Bromo-4-methoxynaphthalene;4-Bromo-1-methoxynaphthalene;1-Methoxy-4-bromonaphthalene;4-Methoxy-1-bromonaphthalene;NSC 25655",
    "duplicated_cas_no": "",
    "SMILES": "O(C)C=1C2=C(C(Br)=CC1)C=CC=C2",
    "meta_data": {
        "InChI": "InChI=1S/C11H9BrO/c1-13-11-7-6-10(12)8-4-2-3-5-9(8)11/h2-7H,1H3",
        "InChIKey": null,
        "Canonical SMILES": "BrC1=CC=C(OC)C=2C=CC=CC12",
        "Molecular Formula": "C<sub>11</sub>H<sub>9</sub>BrO",
        "Molecular Mass": "237.09",
        "Boiling Point": "181 °C @ Press: 18 Torr",
        "Melting Point": "195-196 °C"
    }
}