{
    "cas_no": "34289-60-6",
    "key_name": "2-Hydroxy-4,6-dimethylpyrimidine hydrochloride",
    "cn_name": "4,6-二甲基-2-羟基嘧啶盐酸盐;",
    "alternate_name": "2(1<em>H</em>)-Pyrimidinone, 4,6-dimethyl-, hydrochloride (1:1);2(1<em>H</em>)-Pyrimidinone, 4,6-dimethyl-, monohydrochloride;2-Pyrimidinol, 4,6-dimethyl-, hydrochloride;2-Hydroxy-4,6-dimethylpyrimidine hydrochloride;4,6-Dimethyl-2(1<em>H</em>)-pyrimidinone hydrochloride;4,6-Dimethylpyrimidin-2-ol hydrochloride",
    "duplicated_cas_no": "59630-05-6",
    "SMILES": "CC1=CC(C)=NC(=O)N1.Cl",
    "meta_data": {
        "InChI": "InChI=1S/C6H8N2O.ClH/c1-4-3-5(2)8-6(9)7-4;/h3H,1-2H3,(H,7,8,9);1H",
        "InChIKey": null,
        "Canonical SMILES": "Cl.O=C1N=C(C=C(N1)C)C",
        "Molecular Formula": "C<sub>6</sub>H<sub>8</sub>N<sub>2</sub>O.ClH",
        "Molecular Mass": "",
        "Melting Point": "280 °C (decomp)"
    }
}