{
    "cas_no": "1805-22-7",
    "key_name": "Perfluoromethylcyclopentane",
    "cn_name": "全氟甲基环戊烷;全氟甲基环戊烷;",
    "alternate_name": "Cyclopentane, 1,1,2,2,3,3,4,4,5-nonafluoro-5-(trifluoromethyl)-;Cyclopentane, nonafluoro(trifluoromethyl)-;1,1,2,2,3,3,4,4,5-Nonafluoro-5-(trifluoromethyl)cyclopentane;Nonafluoro(trifluoromethyl)cyclopentane;(Trifluoromethyl)perfluorocyclopentane;Perfluoromethylcyclopentane;Flutec PCI",
    "duplicated_cas_no": "",
    "SMILES": "C(F)(F)(F)C1(F)C(F)(F)C(F)(F)C(F)(F)C1(F)F",
    "meta_data": {
        "InChI": "InChI=1S/C6F12/c7-1(6(16,17)18)2(8,9)4(12,13)5(14,15)3(1,10)11",
        "InChIKey": null,
        "Canonical SMILES": "FC(F)(F)C1(F)C(F)(F)C(F)(F)C(F)(F)C1(F)F",
        "Molecular Formula": "C<sub>6</sub>F<sub>12</sub>",
        "Molecular Mass": "300.05",
        "Boiling Point": "48 °C",
        "Melting Point": "45 °C",
        "Density": "0.01040 g/cm³ (gas) @ Temp: 48.0 °C; Press: 760 Torr"
    }
}