{
    "cas_no": "7418-20-4",
    "key_name": "2,2,5,5-Tetramethyl-1-oxa-2,5-disilacyclopentane",
    "cn_name": null,
    "alternate_name": "1-Oxa-2,5-disilacyclopentane, 2,2,5,5-tetramethyl-;2,2,5,5-Tetramethyl-1-oxa-2,5-disilacyclopentane;1,1,3,3-Tetramethyl-2-oxa-1,3-disilacyclopentane;2,2,5,5-Tetramethyl-2,5-disila-1-oxacyclopentane;2,2,5,5-Tetramethyl-tetrahydro-2,5-disilafura;2,2,5,5-Tetramethyl-1,2,5-oxadisilolane",
    "duplicated_cas_no": "",
    "SMILES": "C[Si]1(C)O[Si](C)(C)CC1",
    "meta_data": {
        "InChI": "InChI=1S/C6H16OSi2/c1-8(2)5-6-9(3,4)7-8/h5-6H2,1-4H3",
        "InChIKey": null,
        "Canonical SMILES": "O1[Si](C)(C)CC[Si]1(C)C",
        "Molecular Formula": "C<sub>6</sub>H<sub>16</sub>OSi<sub>2</sub>",
        "Molecular Mass": "160.36",
        "Boiling Point": "124 °C",
        "Density": "0.855 g/cm³"
    }
}