{
    "cas_no": "3397-62-4",
    "key_name": "1,3,5-Triazine-2,4-diamine, 6-chloro-",
    "cn_name": "2-氯-4,6-二氨基-1,3,5-三嗪;6-氯-2,4-氨基-1,3,5-三嗪;",
    "alternate_name": "1,3,5-Triazine-2,4-diamine, 6-chloro-;<em>s</em>-Triazine, 2,4-diamino-6-chloro-;6-Chloro-1,3,5-triazine-2,4-diamine;2,4-Diamino-6-chloro-<em>s</em>-triazine;4,6-Diamino-2-chloro-<em>s</em>-triazine;G 28273;ENT 50982;2-Chloro-4,6-bisamino-<em>s</em>-triazine;2-Chloro-4,6-diamino-1,3,5-triazine;2,4-Diamino-6-chloro-1,3,5-triazine;2-Chloro-4,6-diamino-<em>s</em>-triazine;Deethyldeisopropylatrazine;6-Chloro-2,4-diamino-1,3,5-triazine;Dideethylsimazine;Desethyldesisopropylatrazine;Chloroammeline;2-Chloro-4,6-bis(amino)-1,3,5-triazine;NSC 680830;NSC 7965;Deisopropyldeethyl atrazine;2,4-Diamino-6-chlorotriazine;DACT;Didealkylatrazine;AtraMod;2-Chloro-1,3,5-triazine-4,6-diamine",
    "duplicated_cas_no": "",
    "SMILES": "ClC=1N=C(N)N=C(N)N1",
    "meta_data": {
        "InChI": "InChI=1S/C3H4ClN5/c4-1-7-2(5)9-3(6)8-1/h(H4,5,6,7,8,9)",
        "InChIKey": null,
        "Canonical SMILES": "ClC=1N=C(N=C(N1)N)N",
        "Molecular Formula": "C<sub>3</sub>H<sub>4</sub>ClN<sub>5</sub>",
        "Molecular Mass": "145.55",
        "Melting Point": "&gt;330 °C"
    }
}