{
    "cas_no": "344790-87-0",
    "key_name": "1-Butyl-3-methylimidazolium thiocyanate",
    "cn_name": null,
    "alternate_name": "1<em>H</em>-Imidazolium, 3-butyl-1-methyl-, thiocyanate (1:1);1<em>H</em>-Imidazolium, 1-butyl-3-methyl-, thiocyanate;1-Butyl-3-methylimidazolium thiocyanate;1-Butyl-3-methyl-1<em>H</em>-imidazolium isothiocyanate;BMIMSCN;1-Methyl-3-butylimidazolium thiocyanate;Butylmethylimidazolium thiocyanate",
    "duplicated_cas_no": "2036057-24-4",
    "SMILES": "C(CCC)[N+]1=CN(C)C=C1.C(#N)[S-]",
    "meta_data": {
        "InChI": "InChI=1S/C8H15N2.CHNS/c1-3-4-5-10-7-6-9(2)8-10;2-1-3/h6-8H,3-5H2,1-2H3;3H/q+1;/p-1",
        "InChIKey": null,
        "Canonical SMILES": "N#C[S-].C1=C[N+](=CN1C)CCCC",
        "Molecular Formula": "C<sub>8</sub>H<sub>15</sub>N<sub>2</sub>.CNS",
        "Molecular Mass": "",
        "Melting Point": "-28.63 °C",
        "Density": "1.06979 g/cm³ @ Temp: 25.00 °C"
    }
}