{
    "cas_no": "106-53-6",
    "key_name": "4-Bromothiophenol",
    "cn_name": "4-溴苯硫酚;对溴苯硫酚;",
    "alternate_name": "Benzenethiol, 4-bromo-;Benzenethiol, <em>p</em>-bromo-;4-Bromobenzenethiol;4-Bromothiophenol;<em>p</em>-Bromobenzenethiol;<em>p</em>-Bromothiophenol;<em>p</em>-Bromophenyl thiol;4-Bromophenylthiol;NSC 229563;NSC 32018;1-Bromo-4-mercaptobenzene;4-Bromobenzene-1-thiol",
    "duplicated_cas_no": "",
    "SMILES": "BrC1=CC=C(S)C=C1",
    "meta_data": {
        "InChI": "InChI=1S/C6H5BrS/c7-5-1-3-6(8)4-2-5/h1-4,8H",
        "InChIKey": null,
        "Canonical SMILES": "BrC1=CC=C(S)C=C1",
        "Molecular Formula": "C<sub>6</sub>H<sub>5</sub>BrS",
        "Molecular Mass": "189.07",
        "Boiling Point": "230.5 °C",
        "Melting Point": "73 °C"
    }
}