{
    "cas_no": "7436-07-9",
    "key_name": "2,3-Dihydro-5-nitro-1<em>H</em>-indene",
    "cn_name": null,
    "alternate_name": "1<em>H</em>-Indene, 2,3-dihydro-5-nitro-;Indan, 5-nitro-;2,3-Dihydro-5-nitro-1<em>H</em>-indene;β-Nitroindan;5-Nitroindane;5-Nitroindan",
    "duplicated_cas_no": "",
    "SMILES": "N(=O)(=O)C=1C=C2C(=CC1)CCC2",
    "meta_data": {
        "InChI": "InChI=1S/C9H9NO2/c11-10(12)9-5-4-7-2-1-3-8(7)6-9/h4-6H,1-3H2",
        "InChIKey": null,
        "Canonical SMILES": "O=N(=O)C1=CC=C2C(=C1)CCC2",
        "Molecular Formula": "C<sub>9</sub>H<sub>9</sub>NO<sub>2</sub>",
        "Molecular Mass": "163.17",
        "Boiling Point": "105.5-108.5 °C @ Press: 4 Torr",
        "Melting Point": "39.5-40 °C",
        "Density": "0.9398 g/cm³ @ Temp: 20 °C"
    }
}