{
    "cas_no": "58509-59-4",
    "key_name": "6,7-Dihydro-5<em>H</em>-quinolin-8-one oxime",
    "cn_name": null,
    "alternate_name": "8(5<em>H</em>)-Quinolinone, 6,7-dihydro-, oxime;8-(Hydroxyimino)-5,6,7,8-tetrahydroquinoline;6,7-Dihydro-5<em>H</em>-quinolin-8-one oxime;6,7-Dihydro-8(5<em>H</em>)-quinolinone oxime",
    "duplicated_cas_no": "",
    "SMILES": "N(O)=C1C=2C(CCC1)=CC=CN2",
    "meta_data": {
        "InChI": "InChI=1S/C9H10N2O/c12-11-8-5-1-3-7-4-2-6-10-9(7)8/h2,4,6,12H,1,3,5H2",
        "InChIKey": null,
        "Canonical SMILES": "ON=C1C2=NC=CC=C2CCC1",
        "Molecular Formula": "C<sub>9</sub>H<sub>10</sub>N<sub>2</sub>O",
        "Molecular Mass": "162.19",
        "Melting Point": "173-175 °C"
    }
}