{
    "cas_no": "31431-19-3",
    "key_name": "4-Amino-3-nitrobenzophenone",
    "cn_name": "4-氨基-3-硝基二苯甲酮;",
    "alternate_name": "Methanone, (4-amino-3-nitrophenyl)phenyl-;Benzophenone, 4-amino-3-nitro-;(4-Amino-3-nitrophenyl)phenylmethanone;4-Benzoyl-2-nitroaniline;2-Nitro-4-benzoylaniline;4-Amino-3-nitrobenzophenone;3-Nitro-4-aminobenzophenone",
    "duplicated_cas_no": "",
    "SMILES": "C(=O)(C1=CC(N(=O)=O)=C(N)C=C1)C2=CC=CC=C2",
    "meta_data": {
        "InChI": "InChI=1S/C13H10N2O3/c14-11-7-6-10(8-12(11)15(17)18)13(16)9-4-2-1-3-5-9/h1-8H,14H2",
        "InChIKey": null,
        "Canonical SMILES": "O=C(C=1C=CC=CC1)C2=CC=C(N)C(=C2)N(=O)=O",
        "Molecular Formula": "C<sub>13</sub>H<sub>10</sub>N<sub>2</sub>O<sub>3</sub>",
        "Molecular Mass": "242.23",
        "Melting Point": "139-141 °C"
    }
}