{
    "cas_no": "89-52-1",
    "key_name": "<em>N</em>-Acetylanthranilic acid",
    "cn_name": "2-乙酰氨基苯甲酸;邻乙酰氨基苯甲酸;",
    "alternate_name": "Benzoic acid, 2-(acetylamino)-;Anthranilic acid, <em>N</em>-acetyl-;2-(Acetylamino)benzoic acid;<em>N</em>-Acetylanthranilic acid;<em>o</em>-(Acetylamino)benzoic acid;2-Acetamidobenzoic acid;2-Carboxyacetanilide;<em>o</em>-Acetamidobenzoic acid;1-Acetylamino-2-carboxybenzene;<em>o</em>-(<em>N</em>-Acetylamino)benzoic acid;NSC 17831;NSC 4000",
    "duplicated_cas_no": "",
    "SMILES": "C(O)(=O)C1=C(NC(C)=O)C=CC=C1",
    "meta_data": {
        "InChI": "InChI=1S/C9H9NO3/c1-6(11)10-8-5-3-2-4-7(8)9(12)13/h2-5H,1H3,(H,10,11)(H,12,13)",
        "InChIKey": null,
        "Canonical SMILES": "O=C(O)C=1C=CC=CC1NC(=O)C",
        "Molecular Formula": "C<sub>9</sub>H<sub>9</sub>NO<sub>3</sub>",
        "Molecular Mass": "179.17",
        "Melting Point": "184-187 °C"
    }
}