{
    "cas_no": "20917-49-1",
    "key_name": "<em>N</em>-Nitrosoheptamethyleneimine",
    "cn_name": "N-亚硝基七亚甲基亚胺;",
    "alternate_name": "Azocine, octahydro-1-nitroso-;Heptamethylenimine, 1-nitroso-;Octahydro-1-nitrosoazocine;<em>N</em>-Nitrosoheptamethyleneimine;<em>N</em>-Nitrosoazacyclooctane;1-Nitrosoazocane",
    "duplicated_cas_no": "",
    "SMILES": "N(=O)N1CCCCCCC1",
    "meta_data": {
        "InChI": "InChI=1S/C7H14N2O/c10-8-9-6-4-2-1-3-5-7-9/h1-7H2",
        "InChIKey": null,
        "Canonical SMILES": "O=NN1CCCCCCC1",
        "Molecular Formula": "C<sub>7</sub>H<sub>14</sub>N<sub>2</sub>O",
        "Molecular Mass": "142.20",
        "Boiling Point": "130 °C @ Press: 16 Torr"
    }
}