{
    "cas_no": "6105-75-5",
    "key_name": "2-Methyl-1-morpholinopropan-2-amine",
    "cn_name": "2-甲基-1-吗啉基-2-丙胺;",
    "alternate_name": "4-Morpholineethanamine, α,α-dimethyl-;Morpholine, 4-(2-amino-2-methylpropyl)-;α,α-Dimethyl-4-morpholineethanamine;2-Methyl-1-(morpholin-4-yl)propan-2-amine;[2-Methyl-1-(morpholin-4-yl)propan-2-yl]amine;[1,1-Dimethyl-2-(morpholin-4-yl)ethyl]amine;2-Methyl-1-morpholinopropan-2-amine",
    "duplicated_cas_no": "",
    "SMILES": "C(C(C)(C)N)N1CCOCC1",
    "meta_data": {
        "InChI": "InChI=1S/C8H18N2O/c1-8(2,9)7-10-3-5-11-6-4-10/h3-7,9H2,1-2H3",
        "InChIKey": null,
        "Canonical SMILES": "O1CCN(CC1)CC(N)(C)C",
        "Molecular Formula": "C<sub>8</sub>H<sub>18</sub>N<sub>2</sub>O",
        "Molecular Mass": "158.24",
        "Boiling Point": "68 °C @ Press: 6 Torr",
        "Density": "0.9402 g/cm³"
    }
}