{
    "cas_no": "4466-59-5",
    "key_name": "3,6-Dichlorophthalic anhydride",
    "cn_name": "3,6-二氯邻苯二甲酸酐;",
    "alternate_name": "1,3-Isobenzofurandione, 4,7-dichloro-;Phthalic anhydride, 3,6-dichloro-;4,7-Dichloro-1,3-isobenzofurandione;3,6-Dichlorophthalic anhydride;3,6-Dichlorophthalic acid anhydride;4,7-Dichloroisobenzofuran-1,3-dione",
    "duplicated_cas_no": "",
    "SMILES": "O=C1C=2C(C(=O)O1)=C(Cl)C=CC2Cl",
    "meta_data": {
        "InChI": "InChI=1S/C8H2Cl2O3/c9-3-1-2-4(10)6-5(3)7(11)13-8(6)12/h1-2H",
        "InChIKey": null,
        "Canonical SMILES": "O=C1OC(=O)C=2C(Cl)=CC=C(Cl)C12",
        "Molecular Formula": "C<sub>8</sub>H<sub>2</sub>Cl<sub>2</sub>O<sub>3</sub>",
        "Molecular Mass": "217.01",
        "Melting Point": "191-191.5 °C"
    }
}