{
    "cas_no": "7783-61-1",
    "key_name": "Silicon tetrafluoride",
    "cn_name": "四氟化硅;四氟化硅；氟化硅;",
    "alternate_name": "Silane, tetrafluoro-;Silicon fluoride (SiF<sub>4</sub>);Tetrafluorosilane;Silicon tetrafluoride;Perfluorosilane;Silicon fluoride",
    "duplicated_cas_no": "1519044-61-1",
    "SMILES": "[Si](F)(F)(F)F",
    "meta_data": {
        "InChI": "InChI=1S/F4Si/c1-5(2,3)4",
        "InChIKey": null,
        "Canonical SMILES": "F[Si](F)(F)F",
        "Molecular Formula": "F<sub>4</sub>Si",
        "Molecular Mass": "104.08",
        "Boiling Point": "-86 °C",
        "Melting Point": "-95.7 °C (sublm)",
        "Density": "1.660 g/cm³ @ Temp: -95 °C"
    }
}