{
    "cas_no": "13122-90-2",
    "key_name": "<em>N</em>-[(1,1-Dimethylethoxy)carbonyl]-<span class=\"text-smallcaps\">L</smallcap>-phenylalanyl-<smallcap>L</span>-phenylalanine",
    "cn_name": null,
    "alternate_name": "<span class=\"text-smallcaps\">L</smallcap>-Phenylalanine, <em>N</em>-[(1,1-dimethylethoxy)carbonyl]-<smallcap>L</span>-phenylalanyl-;Alanine, <em>N</em>-(<em>N</em>-carboxy-3-phenyl-<span class=\"text-smallcaps\">L</smallcap>-alanyl)-3-phenyl-, <em>N</em>-<em>tert</em>-butyl ester, <smallcap>L</span>-;<span class=\"text-smallcaps\">L</smallcap>-Phenylalanine, <em>N</em>-[<em>N</em>-[(1,1-dimethylethoxy)carbonyl]-<smallcap>L</span>-phenylalanyl]-;<em>N</em>-[(1,1-Dimethylethoxy)carbonyl]-<span class=\"text-smallcaps\">L</smallcap>-phenylalanyl-<smallcap>L</span>-phenylalanine;<em>N</em>-<em>tert</em>-Butoxycarbonyl-<span class=\"text-smallcaps\">L</smallcap>-phenylalanyl-<smallcap>L</span>-phenylalanine;6: PN: WO2005025623 PAGE: 44 claimed protein;Boc-<span class=\"text-smallcaps\">L</smallcap>-Phe-<smallcap>L</span>-Phe-OH;(<em>tert</em>-Butoxycarbonyl)-<span class=\"text-smallcaps\">L</smallcap>-phenylalanyl-<smallcap>L</span>-phenylalanine",
    "duplicated_cas_no": "109065-08-9;292854-04-7;2488746-55-8",
    "SMILES": "[C@H](CC1=CC=CC=C1)(C(N[C@@H](CC2=CC=CC=C2)C(O)=O)=O)NC(OC(C)(C)C)=O",
    "meta_data": {
        "InChI": "InChI=1S/C23H28N2O5/c1-23(2,3)30-22(29)25-18(14-16-10-6-4-7-11-16)20(26)24-19(21(27)28)15-17-12-8-5-9-13-17/h4-13,18-19H,14-15H2,1-3H3,(H,24,26)(H,25,29)(H,27,28)/t18-,19-/m0/s1",
        "InChIKey": null,
        "Canonical SMILES": "O=C(OC(C)(C)C)NC(C(=O)NC(C(=O)O)CC=1C=CC=CC1)CC=2C=CC=CC2",
        "Molecular Formula": "C<sub>23</sub>H<sub>28</sub>N<sub>2</sub>O<sub>5</sub>",
        "Molecular Mass": "412.48",
        "Boiling Point": "30-60 °C",
        "Melting Point": "72-75 °C"
    }
}