{
    "cas_no": "1670-46-8",
    "key_name": "2-Acetylcyclopentanone",
    "cn_name": "2-乙酰环戊酮;",
    "alternate_name": "Cyclopentanone, 2-acetyl-;2-Acetylcyclopentanone;α-Acetylcyclopentanone;2-Acetyl-1-cyclopentanone;NSC 141181",
    "duplicated_cas_no": "",
    "SMILES": "C(C)(=O)C1C(=O)CCC1",
    "meta_data": {
        "InChI": "InChI=1S/C7H10O2/c1-5(8)6-3-2-4-7(6)9/h6H,2-4H2,1H3",
        "InChIKey": null,
        "Canonical SMILES": "O=C(C)C1C(=O)CCC1",
        "Molecular Formula": "C<sub>7</sub>H<sub>10</sub>O<sub>2</sub>",
        "Molecular Mass": "126.15",
        "Boiling Point": "75 °C @ Press: 8 Torr",
        "Melting Point": "60-70 °C"
    }
}