{
    "cas_no": "66635-93-6",
    "key_name": "(+)-Ketorolac",
    "cn_name": "(1R)-5-苯基-2,3-二氢-1H-吡啶-1-羧酸;",
    "alternate_name": "1<em>H</em>-Pyrrolizine-1-carboxylic acid, 5-benzoyl-2,3-dihydro-, (1<em>R</em>)-;1<em>H</em>-Pyrrolizine-1-carboxylic acid, 5-benzoyl-2,3-dihydro-, (<em>R</em>)-;(1<em>R</em>)-5-Benzoyl-2,3-dihydro-1<em>H</em>-pyrrolizine-1-carboxylic acid;<em>R</em>-(+)-Ketorolac;(<em>R</em>)-Ketorolac;(+)-Ketorolac",
    "duplicated_cas_no": "",
    "SMILES": "C(=O)(C=1N2C([C@H](C(O)=O)CC2)=CC1)C3=CC=CC=C3",
    "meta_data": {
        "InChI": "InChI=1S/C15H13NO3/c17-14(10-4-2-1-3-5-10)13-7-6-12-11(15(18)19)8-9-16(12)13/h1-7,11H,8-9H2,(H,18,19)/t11-/m1/s1",
        "InChIKey": null,
        "Canonical SMILES": "O=C(O)C1C2=CC=C(C(=O)C=3C=CC=CC3)N2CC1",
        "Molecular Formula": "C<sub>15</sub>H<sub>13</sub>NO<sub>3</sub>",
        "Molecular Mass": "255.27",
        "Melting Point": "174 °C"
    }
}