{
    "cas_no": "3077-13-2",
    "key_name": "1,1′-(Phenylimino)bis[2-propanol]",
    "cn_name": null,
    "alternate_name": "2-Propanol, 1,1′-(phenylimino)bis-;2-Propanol, 1,1′-(phenylimino)di-;1,1′-(Phenylimino)bis[2-propanol];<em>N</em>,<em>N</em>-Bis(2-hydroxypropyl)aniline;<em>N</em>,<em>N</em>-Di(2-hydroxypropyl)aniline;Isonol C 100;Isonol N 100;Isonol 100;C 100;NSC 166506;Okayol;<em>N</em>,<em>N</em>-Diisopropanolaniline;1-(2-Hydroxypropyl-phenyl-amino)propan-2-ol;1-[(2-Hydroxypropyl)(phenyl)amino]propan-2-ol;LAP 101;Lap 101",
    "duplicated_cas_no": "62534-33-2;89750-17-4;948850-01-9",
    "SMILES": "N(CC(C)O)(CC(C)O)C1=CC=CC=C1",
    "meta_data": {
        "InChI": "InChI=1S/C12H19NO2/c1-10(14)8-13(9-11(2)15)12-6-4-3-5-7-12/h3-7,10-11,14-15H,8-9H2,1-2H3",
        "InChIKey": null,
        "Canonical SMILES": "OC(C)CN(C=1C=CC=CC1)CC(O)C",
        "Molecular Formula": "C<sub>12</sub>H<sub>19</sub>NO<sub>2</sub>",
        "Molecular Mass": "209.28",
        "Boiling Point": "184-185 °C @ Press: 10 Torr",
        "Density": "1.0694 g/cm³ @ Temp: 23 °C"
    }
}