{
    "cas_no": "25291-17-2",
    "key_name": "(Perfluorohexyl)ethylene",
    "cn_name": "全氟己基乙烯;1H,1H,2H-全氟-1-辛烯;十三氟-1-辛烯;",
    "alternate_name": "1-Octene, 3,3,4,4,5,5,6,6,7,7,8,8,8-tridecafluoro-;3,3,4,4,5,5,6,6,7,7,8,8,8-Tridecafluoro-1-octene;1,1,2-Trihydroperfluoro-1-octene;(Perfluorohexyl)ethene;1<em>H</em>,1<em>H</em>,2<em>H</em>-Tridecafluoro-1-octene;1<em>H</em>,1<em>H</em>,2<em>H</em>-Perfluoro-1-octene;(Perfluorohexyl)ethylene;ET 600 (fluorocompound);ET 600;Cheminox PFHE;F 1620;1<em>H</em>,1<em>H</em>,2<em>H</em>,2<em>H</em>-Perfluorooct-1-ene;C 60LF;TE 6",
    "duplicated_cas_no": "188639-79-4",
    "SMILES": "C(C(C(C(F)(F)F)(F)F)(F)F)(C(C(C=C)(F)F)(F)F)(F)F",
    "meta_data": {
        "InChI": "InChI=1S/C8H3F13/c1-2-3(9,10)4(11,12)5(13,14)6(15,16)7(17,18)8(19,20)21/h2H,1H2",
        "InChIKey": null,
        "Canonical SMILES": "FC(F)(F)C(F)(F)C(F)(F)C(F)(F)C(F)(F)C(F)(F)C=C",
        "Molecular Formula": "C<sub>8</sub>H<sub>3</sub>F<sub>13</sub>",
        "Molecular Mass": "346.09",
        "Boiling Point": "104 °C"
    }
}