{
    "cas_no": "10049-04-4",
    "key_name": "Chlorine dioxide",
    "cn_name": "二氧化氯;",
    "alternate_name": "Chlorine oxide (ClO<sub>2</sub>);Chlorine dioxide;Chlorine(IV) oxide;Chlorine peroxide;Chloroperoxyl;Doxcide 50;Chloryl radical;Anthium Dioxcide;Alcide;EZ Flow;Purogene;Alcide allay;Biologen;Biotalk;Oslon;Anthium 200;Carnelron;Dura Klor;Diklor;Chlorine dioxide (OClO);Chlorine dioxide radical;RenNew D;Aqua Care;RetarDEX;RetarDEX (oxidizing agent);Oxine;Biosukegawa 1000;Purite;Dioxiclear;Oxine (bactericide);OcuPure;Clidox;MicroClear;Vibrex;Luxianfeng;Selectrocide;FermaSure;Clidox-S;Zns-Clordioxy;Ar-Dez Sniper",
    "duplicated_cas_no": "1333-81-9;24518-47-6;56310-06-6;69049-77-0;70134-37-1;72061-90-6;74296-11-0;77546-17-9;77546-18-0;93085-22-4;155808-17-6;744149-53-9;807261-60-5;1002158-67-9;1014743-76-0;1018807-91-4;1428979-52-5;2511304-83-7;2511308-12-4",
    "SMILES": "",
    "meta_data": {
        "InChI": "",
        "InChIKey": null,
        "Canonical SMILES": "",
        "Molecular Formula": "ClO<sub>2</sub>",
        "Molecular Mass": "",
        "Boiling Point": "11 °C",
        "Melting Point": "-59 °C",
        "Density": "1.6 g/cm³ @ Temp: 0 °C"
    }
}