{
    "cas_no": "625-99-0",
    "key_name": "1-Chloro-3-iodobenzene",
    "cn_name": "间氯碘苯;3-氯碘苯;",
    "alternate_name": "Benzene, 1-chloro-3-iodo-;1-Chloro-3-iodobenzene;<em>m</em>-Chloroiodobenzene;3-Chloro-1-iodobenzene;3-Chloroiodobenzene;3-Iodochlorobenzene;<em>m</em>-Chlorophenyl iodide;3-Chlorophenyl iodide;m-Chloroiodobenzene;1-Iodo-3-chlorobenzene;NSC 32861",
    "duplicated_cas_no": "",
    "SMILES": "ClC1=CC(I)=CC=C1",
    "meta_data": {
        "InChI": "InChI=1S/C6H4ClI/c7-5-2-1-3-6(8)4-5/h1-4H",
        "InChIKey": null,
        "Canonical SMILES": "ClC1=CC=CC(I)=C1",
        "Molecular Formula": "C<sub>6</sub>H<sub>4</sub>ClI",
        "Molecular Mass": "238.45",
        "Boiling Point": "103-104 °C",
        "Melting Point": "95-96 °C"
    }
}