{
    "cas_no": "609-02-9",
    "key_name": "Dimethyl methylmalonate",
    "cn_name": "甲基丙二酸二甲酯;",
    "alternate_name": "Propanedioic acid, 2-methyl-, 1,3-dimethyl ester;Malonic acid, methyl-, dimethyl ester;Propanedioic acid, methyl-, dimethyl ester;Dimethyl methylmalonate;Dimethyl 2-methylmalonate;Methylmalonic acid dimethyl ester;Methylpropanedioic acid dimethyl ester;NSC 143779;1,3-Dimethyl 2-methylpropanedioate;Dimethyl 2-methylpropanedioate;Dimethyl methylpropanedioate",
    "duplicated_cas_no": "",
    "SMILES": "C(C(OC)=O)(C(OC)=O)C",
    "meta_data": {
        "InChI": "InChI=1S/C6H10O4/c1-4(5(7)9-2)6(8)10-3/h4H,1-3H3",
        "InChIKey": null,
        "Canonical SMILES": "O=C(OC)C(C(=O)OC)C",
        "Molecular Formula": "C<sub>6</sub>H<sub>10</sub>O<sub>4</sub>",
        "Molecular Mass": "146.14",
        "Boiling Point": "174 °C"
    }
}