{
    "cas_no": "103-61-7",
    "key_name": "Cinnamyl butyrate",
    "cn_name": "正丁酸桂酯;丁酸3-苯基-2-丙烯酯;",
    "alternate_name": "Butanoic acid, 3-phenyl-2-propen-1-yl ester;Butyric acid, cinnamyl ester;Butanoic acid, 3-phenyl-2-propenyl ester;Cinnamyl alcohol, butyrate;Cinnamyl butyrate;3-Phenyl-2-propen-1-yl butyrate;Cinnamyl <em>n</em>-butyrate;Cinnamyl butanoate;NSC 30528;3-Phenylprop-2-enyl butanoate",
    "duplicated_cas_no": "",
    "SMILES": "C(=CCOC(CCC)=O)C1=CC=CC=C1",
    "meta_data": {
        "InChI": "InChI=1S/C13H16O2/c1-2-7-13(14)15-11-6-10-12-8-4-3-5-9-12/h3-6,8-10H,2,7,11H2,1H3",
        "InChIKey": null,
        "Canonical SMILES": "O=C(OCC=CC=1C=CC=CC1)CCC",
        "Molecular Formula": "C<sub>13</sub>H<sub>16</sub>O<sub>2</sub>",
        "Molecular Mass": "204.26",
        "Boiling Point": "149-150 °C @ Press: 10-12 Torr",
        "Density": "1.010-1.017 g/cm³ @ Temp: 25 °C"
    }
}