{
    "cas_no": "17834-03-6",
    "key_name": "7-Hydroxywarfarin",
    "cn_name": null,
    "alternate_name": "2<em>H</em>-1-Benzopyran-2-one, 4,7-dihydroxy-3-(3-oxo-1-phenylbutyl)-;Coumarin, 3-(α-acetonylbenzyl)-4,7-dihydroxy-;4,7-Dihydroxy-3-(3-oxo-1-phenylbutyl)-2<em>H</em>-1-benzopyran-2-one;7-Hydroxywarfarin",
    "duplicated_cas_no": "87099-82-9",
    "SMILES": "C(CC(C)=O)(C1=C(O)C=2C(OC1=O)=CC(O)=CC2)C3=CC=CC=C3",
    "meta_data": {
        "InChI": "InChI=1S/C19H16O5/c1-11(20)9-15(12-5-3-2-4-6-12)17-18(22)14-8-7-13(21)10-16(14)24-19(17)23/h2-8,10,15,21-22H,9H2,1H3",
        "InChIKey": null,
        "Canonical SMILES": "O=C1OC=2C=C(O)C=CC2C(O)=C1C(C=3C=CC=CC3)CC(=O)C",
        "Molecular Formula": "C<sub>19</sub>H<sub>16</sub>O<sub>5</sub>",
        "Molecular Mass": "324.33",
        "Melting Point": "203-205 °C"
    }
}