{
    "cas_no": "594-42-3",
    "key_name": "Trichloromethanesulfenyl chloride",
    "cn_name": "全氯甲硫醇;过氯甲硫醇;",
    "alternate_name": "Methanesulfenyl chloride, trichloro-;Trichloromethanesulfenyl chloride;Perchloromethyl mercaptan;Trichloromethanesulphenyl chloride;(Trichloromethyl)sulfenyl chloride;Perchloromethanethiol;NSC 66404;Trichloromethylsulfanyl chloride",
    "duplicated_cas_no": "75-70-7;20434-91-7;344328-67-2",
    "SMILES": "C(SCl)(Cl)(Cl)Cl",
    "meta_data": {
        "InChI": "InChI=1S/CCl4S/c2-1(3,4)6-5",
        "InChIKey": null,
        "Canonical SMILES": "ClSC(Cl)(Cl)Cl",
        "Molecular Formula": "CCl<sub>4</sub>S",
        "Molecular Mass": "185.89",
        "Boiling Point": "147.5 °C",
        "Density": "1.7 g/cm³ @ Temp: 20 °C"
    }
}