{
    "cas_no": "91-64-5",
    "key_name": "Coumarin",
    "cn_name": "香豆素;香豆内酯;氧杂萘邻酮;邻氧萘酮;2H-1-苯并吡喃-2-酮;",
    "alternate_name": "2<em>H</em>-1-Benzopyran-2-one;Coumarin;1,2-Benzopyrone;<em>cis</em>-<em>o</em>-Coumarinic acid lactone;Coumarinic anhydride;<em>o</em>-Hydroxycinnamic acid lactone;Tonka Bean Camphor;2-Propenoic acid, 3-(2-hydroxyphenyl)-, δ-lactone;Benzo-α-pyrone;Rattex;5,6-Benzo-2-pyrone;NSC 8774;2-Chromenone;2<em>H</em>-Chromen-2-one;2<em>H</em>-Benzopyran-2-one;Lympedim;Rhodiascent Extra Pure",
    "duplicated_cas_no": "",
    "SMILES": "O=C1OC=2C(C=C1)=CC=CC2",
    "meta_data": {
        "InChI": "InChI=1S/C9H6O2/c10-9-6-5-7-3-1-2-4-8(7)11-9/h1-6H",
        "InChIKey": null,
        "Canonical SMILES": "O=C1OC=2C=CC=CC2C=C1",
        "Molecular Formula": "C<sub>9</sub>H<sub>6</sub>O<sub>2</sub>",
        "Molecular Mass": "146.14",
        "Boiling Point": "301.71 °C",
        "Melting Point": "71 °C",
        "Density": "0.935 g/cm³ @ Temp: 20 °C"
    }
}