{
    "cas_no": "583-60-8",
    "key_name": "2-Methylcyclohexanone",
    "cn_name": "甲基环己酮;2-甲基环己酮;",
    "alternate_name": "Cyclohexanone, 2-methyl-;2-Methylcyclohexanone;2-Methyl-1-cyclohexanone;α-Methylcyclohexanone;(±)-2-Methylcyclohexanone;2-Methylcyclohexane-1-one;NSC 524",
    "duplicated_cas_no": "24965-84-2",
    "SMILES": "CC1C(=O)CCCC1",
    "meta_data": {
        "InChI": "InChI=1S/C7H12O/c1-6-4-2-3-5-7(6)8/h6H,2-5H2,1H3",
        "InChIKey": null,
        "Canonical SMILES": "O=C1CCCCC1C",
        "Molecular Formula": "C<sub>7</sub>H<sub>12</sub>O",
        "Molecular Mass": "112.17",
        "Boiling Point": "165.1 °C",
        "Melting Point": "-14 °C",
        "Density": "0.925 g/cm³ @ Temp: 20 °C"
    }
}