{
    "cas_no": "555-03-3",
    "key_name": "3-Nitroanisole",
    "cn_name": "3-硝基苯甲醚;间硝基苯甲醚;间硝基茴香醚;",
    "alternate_name": "Benzene, 1-methoxy-3-nitro-;Anisole, <em>m</em>-nitro-;1-Methoxy-3-nitrobenzene;<em>m</em>-Methoxynitrobenzene;<em>m</em>-Nitroanisole;3-Nitroanisole;3-Methoxynitrobenzene;Methyl <em>m</em>-nitrophenyl ether;3-Methoxy-1-nitrobenzene;3-Nitromethoxybenzene;m-Nitroanisole;NSC 4956;1-Nitro-3-methoxybenzene",
    "duplicated_cas_no": "721942-45-6",
    "SMILES": "N(=O)(=O)C1=CC(OC)=CC=C1",
    "meta_data": {
        "InChI": "InChI=1S/C7H7NO3/c1-11-7-4-2-3-6(5-7)8(9)10/h2-5H,1H3",
        "InChIKey": null,
        "Canonical SMILES": "O=N(=O)C=1C=CC=C(OC)C1",
        "Molecular Formula": "C<sub>7</sub>H<sub>7</sub>NO<sub>3</sub>",
        "Molecular Mass": "153.14",
        "Boiling Point": "258 °C",
        "Melting Point": "38.5 °C"
    }
}