{
    "cas_no": "64248-62-0",
    "key_name": "3,4-Difluorobenzonitrile",
    "cn_name": "3,4-二氟苯腈;",
    "alternate_name": "Benzonitrile, 3,4-difluoro-;3,4-Difluorobenzonitrile;4-Cyano-1,2-difluorobenzene",
    "duplicated_cas_no": "",
    "SMILES": "C(#N)C1=CC(F)=C(F)C=C1",
    "meta_data": {
        "InChI": "InChI=1S/C7H3F2N/c8-6-2-1-5(4-10)3-7(6)9/h1-3H",
        "InChIKey": null,
        "Canonical SMILES": "N#CC1=CC=C(F)C(F)=C1",
        "Molecular Formula": "C<sub>7</sub>H<sub>3</sub>F<sub>2</sub>N",
        "Molecular Mass": "139.10",
        "Boiling Point": "77 °C @ Press: 20 Torr",
        "Melting Point": "51-53 °C"
    }
}