{
    "cas_no": "21188-58-9",
    "key_name": "Methyl 3-hydroxyhexanoate",
    "cn_name": "3-羟基己酸甲酯;3-羟基己酸甲酯;",
    "alternate_name": "Hexanoic acid, 3-hydroxy-, methyl ester;Methyl 3-hydroxycaproate;Methyl 3-hydroxyhexanoate;3-Hydroxyhexanoic acid methyl ester",
    "duplicated_cas_no": "127593-19-5",
    "SMILES": "C(C(CCC)O)C(OC)=O",
    "meta_data": {
        "InChI": "InChI=1S/C7H14O3/c1-3-4-6(8)5-7(9)10-2/h6,8H,3-5H2,1-2H3",
        "InChIKey": null,
        "Canonical SMILES": "O=C(OC)CC(O)CCC",
        "Molecular Formula": "C<sub>7</sub>H<sub>14</sub>O<sub>3</sub>",
        "Molecular Mass": "146.18",
        "Boiling Point": "98 °C @ Press: 15 Torr"
    }
}