{
    "cas_no": "7170-01-6",
    "key_name": "3-Methyl-1,2,4-triazole",
    "cn_name": "3-甲基-1H-1,2,4-噻唑;2-甲基-1,3,4-三氮唑;3(5)-甲基-1,2,4-三氮唑;3-甲基-1H-1,2,4-噻唑;3-甲基-1H-1,2,4;",
    "alternate_name": "1<em>H</em>-1,2,4-Triazole, 5-methyl-;<em>s</em>-Triazole, 3-methyl-;1<em>H</em>-1,2,4-Triazole, 3-methyl-;5-Methyl-1<em>H</em>-1,2,4-triazole;3-Methyl-4<em>H</em>-1,2,4-triazole;3-Methyl-1,2,4-triazole;3-Methyltriazole;3-Methyl-1<em>H</em>-1,2,4-triazole;NSC 202575;3-Methyl-1,2,4-1<em>H</em>-triazole;5-Methyl-1<em>H</em>-[1,2,4]triazole",
    "duplicated_cas_no": "15285-23-1;91039-53-1",
    "SMILES": "CC=1NC=NN1",
    "meta_data": {
        "InChI": "InChI=1S/C3H5N3/c1-3-4-2-5-6-3/h2H,1H3,(H,4,5,6)",
        "InChIKey": null,
        "Canonical SMILES": "N=1N=C(NC1)C",
        "Molecular Formula": "C<sub>3</sub>H<sub>5</sub>N<sub>3</sub>",
        "Molecular Mass": "83.09",
        "Boiling Point": "138 °C @ Press: 8 Torr",
        "Melting Point": "94 °C"
    }
}