{
    "cas_no": "1003-31-2",
    "key_name": "2-Thiophenecarbonitrile",
    "cn_name": "2-氰基噻吩;",
    "alternate_name": "2-Thiophenecarbonitrile;2-Cyanothiophene;2-Thienonitrile;2-Thienylcarbonitrile;Thiopheno-2-carbonitrile;2-Thiophenenitrile",
    "duplicated_cas_no": "",
    "SMILES": "C(#N)C1=CC=CS1",
    "meta_data": {
        "InChI": "InChI=1S/C5H3NS/c6-4-5-2-1-3-7-5/h1-3H",
        "InChIKey": null,
        "Canonical SMILES": "N#CC=1SC=CC1",
        "Molecular Formula": "C<sub>5</sub>H<sub>3</sub>NS",
        "Molecular Mass": "109.15",
        "Boiling Point": "192 °C",
        "Melting Point": "125-134 °C (decomp)",
        "Density": "1.1800 g/cm³ @ Temp: 16 °C"
    }
}