{
    "cas_no": "3140-73-6",
    "key_name": "2-Chloro-4,6-dimethoxy-1,3,5-triazine",
    "cn_name": "2-氯-4,6-二甲氧基-1,3,5-三嗪;",
    "alternate_name": "1,3,5-Triazine, 2-chloro-4,6-dimethoxy-;<em>s</em>-Triazine, 2-chloro-4,6-dimethoxy-;2-Chloro-4,6-dimethoxy-1,3,5-triazine;2-Chloro-4,6-dimethoxy-<em>s</em>-triazine;2,4-Dimethoxy-6-chloro-<em>s</em>-triazine;6-Chloro-2,4-dimethoxy-<em>s</em>-triazine;2,4-Dimethoxy-6-chloro-1,3,5-triazine;4,6-Dimethoxy-2-chloro-<em>s</em>-triazine;NSC 46520;CDMT;Chlorodimethoxytriazine",
    "duplicated_cas_no": "",
    "SMILES": "O(C)C=1N=C(OC)N=C(Cl)N1",
    "meta_data": {
        "InChI": "InChI=1S/C5H6ClN3O2/c1-10-4-7-3(6)8-5(9-4)11-2/h1-2H3",
        "InChIKey": null,
        "Canonical SMILES": "ClC=1N=C(N=C(N1)OC)OC",
        "Molecular Formula": "C<sub>5</sub>H<sub>6</sub>ClN<sub>3</sub>O<sub>2</sub>",
        "Molecular Mass": "175.57",
        "Melting Point": "75-76 °C"
    }
}