{
    "cas_no": "1120-21-4",
    "key_name": "Undecane",
    "cn_name": "十一烷;正十一烷;",
    "alternate_name": "Undecane;Hendecane;<em>n</em>-Undecane;Halpaclean;Nikko Elace;N 11;NSC 66159",
    "duplicated_cas_no": "1714962-75-0",
    "SMILES": "C(CCCCC)CCCCC",
    "meta_data": {
        "InChI": "InChI=1S/C11H24/c1-3-5-7-9-11-10-8-6-4-2/h3-11H2,1-2H3",
        "InChIKey": null,
        "Canonical SMILES": "CCCCCCCCCCC",
        "Molecular Formula": "C<sub>11</sub>H<sub>24</sub>",
        "Molecular Mass": "156.31",
        "Boiling Point": "195.9 °C @ Press: 760 Torr",
        "Melting Point": "-25.6 °C",
        "Density": "0.7402 g/cm³ @ Temp: 20 °C"
    }
}