{
    "cas_no": "30078-48-9",
    "key_name": "3,4,5-Trimethoxy-α-[(phenylamino)methylene]benzenepropanenitrile",
    "cn_name": null,
    "alternate_name": "Benzenepropanenitrile, 3,4,5-trimethoxy-α-[(phenylamino)methylene]-;Hydrocinnamonitrile, α-(anilinomethylene)-3,4,5-trimethoxy-;3,4,5-Trimethoxy-α-[(phenylamino)methylene]benzenepropanenitrile;TAA;3-Anilino-2-(3,4,5,-trimethoxybenzyl)acrylonitrile;3-(Phenylamino)-2-(3,4,5-trimethoxybenzyl)prop-2-enenitrile",
    "duplicated_cas_no": "",
    "SMILES": "C(C(=CNC1=CC=CC=C1)C#N)C2=CC(OC)=C(OC)C(OC)=C2",
    "meta_data": {
        "InChI": "InChI=1S/C19H20N2O3/c1-22-17-10-14(11-18(23-2)19(17)24-3)9-15(12-20)13-21-16-7-5-4-6-8-16/h4-8,10-11,13,21H,9H2,1-3H3",
        "InChIKey": null,
        "Canonical SMILES": "N#CC(=CNC=1C=CC=CC1)CC2=CC(OC)=C(OC)C(OC)=C2",
        "Molecular Formula": "C<sub>19</sub>H<sub>20</sub>N<sub>2</sub>O<sub>3</sub>",
        "Molecular Mass": "324.37",
        "Melting Point": "138-142 °C"
    }
}