{
    "cas_no": "6724-53-4",
    "key_name": "Perhexiline maleate",
    "cn_name": null,
    "alternate_name": "Piperidine, 2-(2,2-dicyclohexylethyl)-, (2<em>Z</em>)-2-butenedioate (1:1);Piperidine, 2-(2,2-dicyclohexylethyl)-, maleate (1:1);Piperidine, 2-(2,2-dicyclohexylethyl)-, (<em>Z</em>)-2-butenedioate (1:1);Piperidine, 2-(2,2-dicyclohexylethyl)-, maleate;2-(2,2-Dicyclohexylethyl)piperidine maleate;Perhexiline maleate;Pexid;Perhexilene maleate",
    "duplicated_cas_no": "103516-74-1",
    "SMILES": "C(CC1CCCCN1)(C2CCCCC2)C3CCCCC3.C(=C\\C(O)=O)\\C(O)=O",
    "meta_data": {
        "InChI": "InChI=1S/C19H35N.C4H4O4/c1-3-9-16(10-4-1)19(17-11-5-2-6-12-17)15-18-13-7-8-14-20-18;5-3(6)1-2-4(7)8/h16-20H,1-15H2;1-2H,(H,5,6)(H,7,8)/b;2-1-",
        "InChIKey": null,
        "Canonical SMILES": "O=C(O)C=CC(=O)O.N1CCCCC1CC(C2CCCCC2)C3CCCCC3",
        "Molecular Formula": "C<sub>19</sub>H<sub>35</sub>N.C<sub>4</sub>H<sub>4</sub>O<sub>4</sub>",
        "Molecular Mass": "",
        "Melting Point": "188.5-191 °C"
    }
}