{
    "cas_no": "39718-89-3",
    "key_name": "Alminoprofen",
    "cn_name": "阿明洛芬;",
    "alternate_name": "Benzeneacetic acid, α-methyl-4-[(2-methyl-2-propen-1-yl)amino]-;Benzeneacetic acid, α-methyl-4-[(2-methyl-2-propenyl)amino]-;α-Methyl-4-[(2-methyl-2-propen-1-yl)amino]benzeneacetic acid;Alminoprofen;EB 382;(±)-Alminoprofen;Minalfene;2-(4-((2-Methylallyl)amino)phenyl)propanoic acid;2-[4-[(2-Methylprop-2-en-1-yl)amino]phenyl]propanoic acid",
    "duplicated_cas_no": "54362-70-8",
    "SMILES": "C(C(O)=O)(C)C1=CC=C(NCC(C)=C)C=C1",
    "meta_data": {
        "InChI": "InChI=1S/C13H17NO2/c1-9(2)8-14-12-6-4-11(5-7-12)10(3)13(15)16/h4-7,10,14H,1,8H2,2-3H3,(H,15,16)",
        "InChIKey": null,
        "Canonical SMILES": "O=C(O)C(C1=CC=C(C=C1)NCC(=C)C)C",
        "Molecular Formula": "C<sub>13</sub>H<sub>17</sub>NO<sub>2</sub>",
        "Molecular Mass": "219.28",
        "Melting Point": "107 °C"
    }
}