{
    "cas_no": "499-78-5",
    "key_name": "Comenic acid",
    "cn_name": null,
    "alternate_name": "4<em>H</em>-Pyran-2-carboxylic acid, 5-hydroxy-4-oxo-;5-Hydroxy-4-oxo-4<em>H</em>-pyran-2-carboxylic acid;Comenic acid;2-Carboxy-5-hydroxy-4-pyrone;5-Hydroxy-4-pyrone-2-carboxylic acid",
    "duplicated_cas_no": "",
    "SMILES": "C(O)(=O)C1=CC(=O)C(O)=CO1",
    "meta_data": {
        "InChI": "InChI=1S/C6H4O5/c7-3-1-5(6(9)10)11-2-4(3)8/h1-2,8H,(H,9,10)",
        "InChIKey": null,
        "Canonical SMILES": "O=C(O)C=1OC=C(O)C(=O)C1",
        "Molecular Formula": "C<sub>6</sub>H<sub>4</sub>O<sub>5</sub>",
        "Molecular Mass": "156.09",
        "Melting Point": "260-261 °C"
    }
}