{
    "cas_no": "455-91-4",
    "key_name": "1-(3-Fluoro-4-methoxyphenyl)ethanone",
    "cn_name": "3-氟-4-甲氧基苯乙酮;",
    "alternate_name": "Ethanone, 1-(3-fluoro-4-methoxyphenyl)-;Acetophenone, 3′-fluoro-4′-methoxy-;1-(3-Fluoro-4-methoxyphenyl)ethanone;3′-Fluoro-4′-methoxyacetophenone;NSC 89731;1-(3-Fluoro-4-methoxyphenyl)ethan-1-one",
    "duplicated_cas_no": "",
    "SMILES": "C(C)(=O)C1=CC(F)=C(OC)C=C1",
    "meta_data": {
        "InChI": "InChI=1S/C9H9FO2/c1-6(11)7-3-4-9(12-2)8(10)5-7/h3-5H,1-2H3",
        "InChIKey": null,
        "Canonical SMILES": "O=C(C1=CC=C(OC)C(F)=C1)C",
        "Molecular Formula": "C<sub>9</sub>H<sub>9</sub>FO<sub>2</sub>",
        "Molecular Mass": "168.16",
        "Boiling Point": "147-148 °C @ Press: 20 Torr",
        "Melting Point": "92 °C"
    }
}