{
    "cas_no": "1522-88-9",
    "key_name": "1,3-Diiodo-2,2-bis(iodomethyl)propane",
    "cn_name": "四碘季戊醇;",
    "alternate_name": "Propane, 1,3-diiodo-2,2-bis(iodomethyl)-;1,3-Diiodo-2,2-bis(iodomethyl)propane;Pentaerythritol tetraiodide;Pentaerythrityl iodide;Tetraiodoneopentane;NSC 65441",
    "duplicated_cas_no": "",
    "SMILES": "C(CI)(CI)(CI)CI",
    "meta_data": {
        "InChI": "InChI=1S/C5H8I4/c6-1-5(2-7,3-8)4-9/h1-4H2",
        "InChIKey": null,
        "Canonical SMILES": "ICC(CI)(CI)CI",
        "Molecular Formula": "C<sub>5</sub>H<sub>8</sub>I<sub>4</sub>",
        "Molecular Mass": "575.73",
        "Melting Point": "233 °C"
    }
}