{
    "cas_no": "22160-26-5",
    "key_name": "Glucosylglycerol",
    "cn_name": null,
    "alternate_name": "α-<span class=\"text-smallcaps\">D</span>-Glucopyranoside, 2-hydroxy-1-(hydroxymethyl)ethyl;Glucopyranoside, 2-hydroxy-1-(hydroxymethyl)ethyl, α-<span class=\"text-smallcaps\">D</span>-;2-Hydroxy-1-(hydroxymethyl)ethyl α-<span class=\"text-smallcaps\">D</span>-glucopyranoside;2-<em>O</em>-α-<span class=\"text-smallcaps\">D</span>-Glucopyranosylglycerol;Glucosylglycerol;2-<em>O</em>-α-<span class=\"text-smallcaps\">D</span>-Glucosylglycerol;Glycoin",
    "duplicated_cas_no": "",
    "SMILES": "O(C(CO)CO)[C@H]1O[C@H](CO)[C@@H](O)[C@H](O)[C@H]1O",
    "meta_data": {
        "InChI": "InChI=1S/C9H18O8/c10-1-4(2-11)16-9-8(15)7(14)6(13)5(3-12)17-9/h4-15H,1-3H2/t5-,6-,7+,8-,9+/m1/s1",
        "InChIKey": null,
        "Canonical SMILES": "OCC(OC1OC(CO)C(O)C(O)C1O)CO",
        "Molecular Formula": "C<sub>9</sub>H<sub>18</sub>O<sub>8</sub>",
        "Molecular Mass": "254.23",
        "Melting Point": "121 °C"
    }
}