{
    "cas_no": "4100-80-5",
    "key_name": "Methylsuccinic anhydride",
    "cn_name": null,
    "alternate_name": "2,5-Furandione, dihydro-3-methyl-;Pyrotartaric anhydride;Succinic anhydride, methyl-;Dihydro-3-methyl-2,5-furandione;Methylsuccinic anhydride;2-Methylsuccinic anhydride;α-Methylsuccinic anhydride;2-Methylbutanedioic anhydride;NSC 65437;Methyldihydrofuran-2,5-dione;3-Methyldihydrofuran-2,5-dione;3-Methyloxolane-2,5-dione",
    "duplicated_cas_no": "90866-24-3",
    "SMILES": "CC1C(=O)OC(=O)C1",
    "meta_data": {
        "InChI": "InChI=1S/C5H6O3/c1-3-2-4(6)8-5(3)7/h3H,2H2,1H3",
        "InChIKey": null,
        "Canonical SMILES": "O=C1OC(=O)C(C)C1",
        "Molecular Formula": "C<sub>5</sub>H<sub>6</sub>O<sub>3</sub>",
        "Molecular Mass": "114.10",
        "Boiling Point": "239 °C",
        "Melting Point": "34 °C"
    }
}