{
    "cas_no": "2277-92-1",
    "key_name": "Oxyclozanide",
    "cn_name": "氯羟柳胺;羟氯扎胺;羟氯柳苯胺;羟氯水杨酸苯胺;2,3,5-三氯-N-(3,5-二氯-2-羟基苯基)-6-羟基苯甲酰胺;",
    "alternate_name": "Benzamide, 2,3,5-trichloro-<em>N</em>-(3,5-dichloro-2-hydroxyphenyl)-6-hydroxy-;Salicylanilide, 3,3′,5,5′,6-pentachloro-2′-hydroxy-;2,3,5-Trichloro-<em>N</em>-(3,5-dichloro-2-hydroxyphenyl)-6-hydroxybenzamide;Oxyclozanide;3,5,6,3′,5′-Pentachloro-2,2′-dihydroxybenzanilide;Zanil;3,3′,5,5′,6-Pentachloro-2,2′-dihydroxybenzanilide;Oxyclozanid;Diplin;ICI 46638;Zanilox;3,3′,5,5′,6-Pentachloro-2′-hydroxysalicylanilide;Fascocide",
    "duplicated_cas_no": "",
    "SMILES": "C(NC1=C(O)C(Cl)=CC(Cl)=C1)(=O)C2=C(Cl)C(Cl)=CC(Cl)=C2O",
    "meta_data": {
        "InChI": "InChI=1S/C13H6Cl5NO3/c14-4-1-6(16)11(20)8(2-4)19-13(22)9-10(18)5(15)3-7(17)12(9)21/h1-3,20-21H,(H,19,22)",
        "InChIKey": null,
        "Canonical SMILES": "O=C(NC=1C=C(Cl)C=C(Cl)C1O)C=2C(Cl)=C(Cl)C=C(Cl)C2O",
        "Molecular Formula": "C<sub>13</sub>H<sub>6</sub>Cl<sub>5</sub>NO<sub>3</sub>",
        "Molecular Mass": "401.46",
        "Melting Point": "210 °C"
    }
}