{
    "cas_no": "3360-16-5",
    "key_name": "<em>N</em><sup>1</sup>-(1-Methylethyl)-1,3-propanediamine",
    "cn_name": "N-异丙基-1,3-丙二胺;N-异丙基-1，3-丙二胺;",
    "alternate_name": "1,3-Propanediamine, <em>N</em><sup>1</sup>-(1-methylethyl)-;1,3-Propanediamine, <em>N</em>-isopropyl-;1,3-Propanediamine, <em>N</em>-(1-methylethyl)-;<em>N</em><sup>1</sup>-(1-Methylethyl)-1,3-propanediamine;<em>N</em>-Isopropyl-1,3-propanediamine;<em>N</em>-Isopropyltrimethylenediamine;<em>N</em>-Isopropyl-1,3-propylenediamine;<em>N</em>-Isopropyl-1,3-diaminopropane;<em>N</em>-(1-Methylethyl)-1,3-propanediamine;<em>N</em>-Isopropylpropylenediamine;NSC 847;3-(Isopropylamino)propylamine;(3-Aminopropyl)(propan-2-yl)amine",
    "duplicated_cas_no": "",
    "SMILES": "N(CCCN)C(C)C",
    "meta_data": {
        "InChI": "InChI=1S/C6H16N2/c1-6(2)8-5-3-4-7/h6,8H,3-5,7H2,1-2H3",
        "InChIKey": null,
        "Canonical SMILES": "NCCCNC(C)C",
        "Molecular Formula": "C<sub>6</sub>H<sub>16</sub>N<sub>2</sub>",
        "Molecular Mass": "116.20",
        "Boiling Point": "161-162 °C @ Press: 770 Torr",
        "Density": "0.8271 g/cm³ @ Temp: 25 °C"
    }
}