{
    "cas_no": "37620-20-5",
    "key_name": "3-(1-Nitroso-2-piperidinyl)pyridine",
    "cn_name": "N-亚硝基新烟草碱;N-亚硝基新烟草碱N-Nitrosoanabasine;",
    "alternate_name": "Pyridine, 3-(1-nitroso-2-piperidinyl)-;Piperidine, 1-nitroso-2-(3-pyridyl)-;3-(1-Nitroso-2-piperidinyl)pyridine",
    "duplicated_cas_no": "84237-39-8",
    "SMILES": "N(=O)N1C(CCCC1)C=2C=CC=NC2",
    "meta_data": {
        "InChI": "InChI=1S/C10H13N3O/c14-12-13-7-2-1-5-10(13)9-4-3-6-11-8-9/h3-4,6,8,10H,1-2,5,7H2",
        "InChIKey": null,
        "Canonical SMILES": "O=NN1CCCCC1C=2C=NC=CC2",
        "Molecular Formula": "C<sub>10</sub>H<sub>13</sub>N<sub>3</sub>O",
        "Molecular Mass": "191.23",
        "Boiling Point": "165-170 °C @ Press: 3 Torr"
    }
}