{
    "cas_no": "42523-29-5",
    "key_name": "2,7-Dihydroxyfluoren-9-one",
    "cn_name": "2,7-二羟基-9-芴酮;",
    "alternate_name": "9<em>H</em>-Fluoren-9-one, 2,7-dihydroxy-;2,7-Dihydroxy-9<em>H</em>-fluoren-9-one;RMI 15,152;2,7-Dihydroxyfluoren-9-one;RMI 15152;9-Fluorenone-2,7-diol",
    "duplicated_cas_no": "",
    "SMILES": "O=C1C=2C(C=3C1=CC(O)=CC3)=CC=C(O)C2",
    "meta_data": {
        "InChI": "InChI=1S/C13H8O3/c14-7-1-3-9-10-4-2-8(15)6-12(10)13(16)11(9)5-7/h1-6,14-15H",
        "InChIKey": null,
        "Canonical SMILES": "O=C1C=2C=C(O)C=CC2C3=CC=C(O)C=C13",
        "Molecular Formula": "C<sub>13</sub>H<sub>8</sub>O<sub>3</sub>",
        "Molecular Mass": "212.20",
        "Melting Point": "338 °C"
    }
}