{
    "cas_no": "4793-24-2",
    "key_name": "5-(Aminosulfonyl)-2-chloro-4-fluorobenzoic acid",
    "cn_name": null,
    "alternate_name": "Benzoic acid, 5-(aminosulfonyl)-2-chloro-4-fluoro-;Benzoic acid, 2-chloro-4-fluoro-5-sulfamoyl-;5-(Aminosulfonyl)-2-chloro-4-fluorobenzoic acid;5-Aminosulfonyl-2-chloro-4-fluorobenzoic acid;2-Chloro-4-fluoro-5-sulfamoylbenzoic acid",
    "duplicated_cas_no": "",
    "SMILES": "S(N)(=O)(=O)C1=CC(C(O)=O)=C(Cl)C=C1F",
    "meta_data": {
        "InChI": "InChI=1S/C7H5ClFNO4S/c8-4-2-5(9)6(15(10,13)14)1-3(4)7(11)12/h1-2H,(H,11,12)(H2,10,13,14)",
        "InChIKey": null,
        "Canonical SMILES": "O=C(O)C1=CC(=C(F)C=C1Cl)S(=O)(=O)N",
        "Molecular Formula": "C<sub>7</sub>H<sub>5</sub>ClFNO<sub>4</sub>S",
        "Molecular Mass": "253.64",
        "Melting Point": "246 °C"
    }
}