{
    "cas_no": "624-64-6",
    "key_name": "<em>trans</em>-2-Butene",
    "cn_name": null,
    "alternate_name": "2-Butene, (2<em>E</em>)-;2-Butene, (<em>E</em>)-;2-Butene, <em>trans</em>-;(2<em>E</em>)-2-Butene;<em>trans</em>-2-Butene;2-<em>trans</em>-Butylene;<em>trans</em>-1,2-Dimethylethylene;<em>trans</em>-Butene;(<em>E</em>)-2-Butene;2-<em>trans</em>-Butene;β-<em>trans</em>-Butylene;<em>trans</em>-butene-2;<em>trans</em>-2-Butylene;(E)-2-Butene;E-Butene",
    "duplicated_cas_no": "",
    "SMILES": "C(=C/C)\\C",
    "meta_data": {
        "InChI": "InChI=1S/C4H8/c1-3-4-2/h3-4H,1-2H3/b4-3+",
        "InChIKey": null,
        "Canonical SMILES": "C(=CC)C",
        "Molecular Formula": "C<sub>4</sub>H<sub>8</sub>",
        "Molecular Mass": "56.11",
        "Boiling Point": "0.8 °C @ Press: 760 Torr",
        "Melting Point": "-105.5 °C",
        "Density": "0.599 g/cm³ @ Temp: 25 °C"
    }
}