{
    "cas_no": "10519-17-2",
    "key_name": "Ethyl 2-undecynoate",
    "cn_name": "2-十一碳炔酸乙酯;2-十一炔酸乙酯;",
    "alternate_name": "2-Undecynoic acid, ethyl ester;Ethyl 2-undecynoate;Mignonette",
    "duplicated_cas_no": "",
    "SMILES": "C(#CCCCCCCCC)C(OCC)=O",
    "meta_data": {
        "InChI": "InChI=1S/C13H22O2/c1-3-5-6-7-8-9-10-11-12-13(14)15-4-2/h3-10H2,1-2H3",
        "InChIKey": null,
        "Canonical SMILES": "O=C(C#CCCCCCCCC)OCC",
        "Molecular Formula": "C<sub>13</sub>H<sub>22</sub>O<sub>2</sub>",
        "Molecular Mass": "210.31",
        "Boiling Point": "128 °C @ Press: 10 Torr"
    }
}