{
    "cas_no": "68957-50-6",
    "key_name": "5-Bromo-6-methyl-3-nitro-2-pyridinamine",
    "cn_name": null,
    "alternate_name": "2-Pyridinamine, 5-bromo-6-methyl-3-nitro-;2-Picoline, 6-amino-3-bromo-5-nitro-;5-Bromo-6-methyl-3-nitro-2-pyridinamine;3-Bromo-5-nitro-6-amino-2-picoline;2-Amino-5-bromo-6-methyl-3-nitropyridine;5-Bromo-6-methyl-3-nitropyridin-2-amine",
    "duplicated_cas_no": "",
    "SMILES": "N(=O)(=O)C1=C(N)N=C(C)C(Br)=C1",
    "meta_data": {
        "InChI": "InChI=1S/C6H6BrN3O2/c1-3-4(7)2-5(10(11)12)6(8)9-3/h2H,1H3,(H2,8,9)",
        "InChIKey": null,
        "Canonical SMILES": "O=N(=O)C=1C=C(Br)C(=NC1N)C",
        "Molecular Formula": "C<sub>6</sub>H<sub>6</sub>BrN<sub>3</sub>O<sub>2</sub>",
        "Molecular Mass": "232.03",
        "Melting Point": "211-213 °C"
    }
}