{
    "cas_no": "1193-79-9",
    "key_name": "2-Acetyl-5-methylfuran",
    "cn_name": "5-甲基-2-乙酰基呋喃;",
    "alternate_name": "Ethanone, 1-(5-methyl-2-furanyl)-;Ketone, methyl 5-methyl-2-furyl;1-(5-Methyl-2-furanyl)ethanone;2-Methyl-5-acetylfuran;5-Acetyl-2-methylfuran;2-Acetyl-5-methylfuran;5-Methyl-2-furylethanone;NSC 80404;1-(5-Methylfuran-2-yl)ethanone;2-Acetyl-5-methylfural;1-(5-Methylfuran-2-yl)ethan-1-one",
    "duplicated_cas_no": "",
    "SMILES": "C(C)(=O)C=1OC(C)=CC1",
    "meta_data": {
        "InChI": "InChI=1S/C7H8O2/c1-5-3-4-7(9-5)6(2)8/h3-4H,1-2H3",
        "InChIKey": null,
        "Canonical SMILES": "O=C(C=1OC(=CC1)C)C",
        "Molecular Formula": "C<sub>7</sub>H<sub>8</sub>O<sub>2</sub>",
        "Molecular Mass": "124.14",
        "Boiling Point": "74 °C",
        "Melting Point": "2 °C",
        "Density": "1.0655 g/cm³ @ Temp: 20 °C"
    }
}