{
    "cas_no": "15467-25-1",
    "key_name": "2-Methoxy-1-butanol",
    "cn_name": "2-甲氧基-1-丁醇;",
    "alternate_name": "1-Butanol, 2-methoxy-;2-Methoxy-1-butanol;2-Methoxy-1-hydroxybutane",
    "duplicated_cas_no": "",
    "SMILES": "C(CC)(CO)OC",
    "meta_data": {
        "InChI": "InChI=1S/C5H12O2/c1-3-5(4-6)7-2/h5-6H,3-4H2,1-2H3",
        "InChIKey": null,
        "Canonical SMILES": "OCC(OC)CC",
        "Molecular Formula": "C<sub>5</sub>H<sub>12</sub>O<sub>2</sub>",
        "Molecular Mass": "104.15",
        "Boiling Point": "145-148 °C",
        "Melting Point": "73 °C"
    }
}