{
    "cas_no": "626-58-4",
    "key_name": "4-Methylpiperidine",
    "cn_name": "4-甲基哌啶;4-甲基六氢吡啶;",
    "alternate_name": "Piperidine, 4-methyl-;4-Pipecoline;4-Methylpiperidine;γ-Pipecoline;NSC 126910;NSC 66495",
    "duplicated_cas_no": "",
    "SMILES": "CC1CCNCC1",
    "meta_data": {
        "InChI": "InChI=1S/C6H13N/c1-6-2-4-7-5-3-6/h6-7H,2-5H2,1H3",
        "InChIKey": null,
        "Canonical SMILES": "N1CCC(C)CC1",
        "Molecular Formula": "C<sub>6</sub>H<sub>13</sub>N",
        "Molecular Mass": "99.17",
        "Boiling Point": "130 °C",
        "Density": "0.9557 g/cm³ @ Temp: 15 °C"
    }
}