{
    "cas_no": "121-61-9",
    "key_name": "Acetylsulfanilamide",
    "cn_name": "对乙酰胺基苯磺酰胺;N-[4-(氨磺酰基)苯基]乙酰胺;",
    "alternate_name": "Acetamide, <em>N</em>-[4-(aminosulfonyl)phenyl]-;Acetanilide, 4′-sulfamoyl-;<em>N</em>-[4-(Aminosulfonyl)phenyl]acetamide;<em>N</em><sup>4</sup>-Acetylsulfanilamide;Neotherapol;<em>p</em>-Sulfamylacetanilide;Erytrin;<em>p</em>-Acetamidobenzenesulfonamide;Benzenesulfonamide, 4-(acetylamino)-;Sulfanilamide-<em>N</em><sup>4</sup>-acetate;A-319;<em>N</em>-(4-Sulfamoylphenyl)acetamide;<em>p</em>-(Acetylamino)benzenesulfonamide;4′-Sulfamoylacetanilide;Acetylsulfanilamide;<em>N</em><sup>4</sup>-Acetsulfanilamide;4-Acetylaminobenzenesulfonamide;4-Acetamidobenzenesulfonamide;<em>p</em>-Sulfamoylacetanilide;<em>N</em>′-Acetylsulphanilamide;NSC 217;NSC 406839",
    "duplicated_cas_no": "",
    "SMILES": "S(N)(=O)(=O)C1=CC=C(NC(C)=O)C=C1",
    "meta_data": {
        "InChI": "InChI=1S/C8H10N2O3S/c1-6(11)10-7-2-4-8(5-3-7)14(9,12)13/h2-5H,1H3,(H,10,11)(H2,9,12,13)",
        "InChIKey": null,
        "Canonical SMILES": "O=C(NC1=CC=C(C=C1)S(=O)(=O)N)C",
        "Molecular Formula": "C<sub>8</sub>H<sub>10</sub>N<sub>2</sub>O<sub>3</sub>S",
        "Molecular Mass": "214.24",
        "Melting Point": "219.5 °C"
    }
}