{
    "cas_no": "53370-51-7",
    "key_name": "<em>N</em>-Hydroxy-2-thiophenecarboximidamide",
    "cn_name": null,
    "alternate_name": "2-Thiophenecarboximidamide, <em>N</em>-hydroxy-;2-Thiophenecarboxamidoxime;<em>N</em>-Hydroxy-2-thiophenecarboximidamide;2-Thiopheneamidoxime;2-Thiophenecarboxamide oxime;2-Thienylamidoxime;<em>N</em>-Hydroxythiophene-2-carboximidamide;2-(<em>N</em>-Hydroxycarbamimidoyl)thiophene;<em>N</em>′-Hydroxythiophene-2-carboximidamide",
    "duplicated_cas_no": "",
    "SMILES": "C(NO)(=N)C1=CC=CS1",
    "meta_data": {
        "InChI": "InChI=1S/C5H6N2OS/c6-5(7-8)4-2-1-3-9-4/h1-3,8H,(H2,6,7)",
        "InChIKey": null,
        "Canonical SMILES": "N=C(NO)C=1SC=CC1",
        "Molecular Formula": "C<sub>5</sub>H<sub>6</sub>N<sub>2</sub>OS",
        "Molecular Mass": "142.18",
        "Melting Point": "90 °C"
    }
}