{
    "cas_no": "38875-53-5",
    "key_name": "2,3-Diamino-5-bromopyridine",
    "cn_name": "2,3-二氨基-5-溴吡啶;",
    "alternate_name": "2,3-Pyridinediamine, 5-bromo-;Pyridine, 2,3-diamino-5-bromo-;5-Bromo-2,3-pyridinediamine;2,3-Diamino-5-bromopyridine;5-Bromo-2,3-diaminopyridine",
    "duplicated_cas_no": "",
    "SMILES": "NC1=C(N)N=CC(Br)=C1",
    "meta_data": {
        "InChI": "InChI=1S/C5H6BrN3/c6-3-1-4(7)5(8)9-2-3/h1-2H,7H2,(H2,8,9)",
        "InChIKey": null,
        "Canonical SMILES": "BrC1=CN=C(N)C(N)=C1",
        "Molecular Formula": "C<sub>5</sub>H<sub>6</sub>BrN<sub>3</sub>",
        "Molecular Mass": "188.03",
        "Boiling Point": "180 °C @ Press: 5 x 10<sup>-3</sup>-0.01 Torr",
        "Melting Point": "214-215 °C"
    }
}