{
    "cas_no": "1445-38-1",
    "key_name": "Phosphoramidic acid, <em>N</em>-phenyl-, diethyl ester",
    "cn_name": null,
    "alternate_name": "Phosphoramidic acid, <em>N</em>-phenyl-, diethyl ester;Phosphoramidic acid, phenyl-, diethyl ester;Diethyl phosphoranilidate;Diethyl <em>N</em>-phenylphosphoramidate;NSC 16105;Diethyl phenylphosphoramidate",
    "duplicated_cas_no": "",
    "SMILES": "P(NC1=CC=CC=C1)(OCC)(OCC)=O",
    "meta_data": {
        "InChI": "InChI=1S/C10H16NO3P/c1-3-13-15(12,14-4-2)11-10-8-6-5-7-9-10/h5-9H,3-4H2,1-2H3,(H,11,12)",
        "InChIKey": null,
        "Canonical SMILES": "O=P(OCC)(OCC)NC=1C=CC=CC1",
        "Molecular Formula": "C<sub>10</sub>H<sub>16</sub>NO<sub>3</sub>P",
        "Molecular Mass": "229.21",
        "Boiling Point": "65-66 °C @ Press: 2.5 Torr",
        "Melting Point": "96.5 °C"
    }
}