{
    "cas_no": "106-52-5",
    "key_name": "4-Hydroxy-1-methylpiperidine",
    "cn_name": "1-甲基-4-哌啶醇;",
    "alternate_name": "4-Piperidinol, 1-methyl-;1-Methyl-4-piperidinol;1-Methyl-4-hydroxypiperidine;<em>N</em>-Methyl-4-piperidinol;4-Hydroxy-1-methylpiperidine;<em>N</em>-Methyl-4-hydroxypiperidine;4-Hydroxy-<em>N</em>-methylpiperidine;NSC 60705",
    "duplicated_cas_no": "",
    "SMILES": "OC1CCN(C)CC1",
    "meta_data": {
        "InChI": "InChI=1S/C6H13NO/c1-7-4-2-6(8)3-5-7/h6,8H,2-5H2,1H3",
        "InChIKey": null,
        "Canonical SMILES": "OC1CCN(C)CC1",
        "Molecular Formula": "C<sub>6</sub>H<sub>13</sub>NO",
        "Molecular Mass": "115.17",
        "Boiling Point": "200 °C",
        "Melting Point": "29 °C"
    }
}