{
    "cas_no": "7759-02-6",
    "key_name": "Strontium sulfate",
    "cn_name": "硫酸锶;",
    "alternate_name": "Sulfuric acid, strontium salt (1:1);C.I. 77845;Strontium sulfate;Strontium monosulfate",
    "duplicated_cas_no": "",
    "SMILES": "S(=O)(=O)(O)O.[Sr]",
    "meta_data": {
        "InChI": "InChI=1S/H2O4S.Sr/c1-5(2,3)4;/h(H2,1,2,3,4);",
        "InChIKey": null,
        "Canonical SMILES": "[Sr].O=S(=O)(O)O",
        "Molecular Formula": "H<sub>2</sub>O<sub>4</sub>S.Sr",
        "Molecular Mass": "",
        "Melting Point": "1605 °C",
        "Density": "3.96 g/cm³"
    }
}