{
    "cas_no": "2540-82-1",
    "key_name": "Formothion",
    "cn_name": "安硫磷;安硫磷标准品;S-[2-(甲酰甲胺基)-2-氧代乙基]-O,O-二甲基二硫代磷酸酯;福尔莫硫磷;安果;玫瑰头香;",
    "alternate_name": "Phosphorodithioic acid, <em>S</em>-[2-(formylmethylamino)-2-oxoethyl] <em>O</em>,<em>O</em>-dimethyl ester;Phosphorodithioic acid, <em>O</em>,<em>O</em>-dimethyl ester, <em>S</em>-ester with <em>N</em>-formyl-2-mercapto-<em>N</em>-methylacetamide;ENT 27257;CP 53926;<em>O</em>,<em>O</em>-Dimethyl dithiophosphorylacetic acid <em>N</em>-methyl-<em>N</em>-formylamide;<em>O</em>,<em>O</em>-Dimethyl <em>S</em>-(<em>N</em>-formyl-<em>N</em>-methylcarbamoylmethyl) phosphorodithioate;<em>O</em>,<em>O</em>-Dimethyl phosphorodithioate <em>N</em>-formyl-2-mercapto-<em>N</em>-methylacetamide <em>S</em>-ester;Formothion;<em>S</em>-(<em>N</em>-Formyl-<em>N</em>-methylcarbamoylmethyl) <em>O</em>,<em>O</em>-dimethyl phosphorodithioate;S 6900;Anthio;Anthio 25;Aflix;Toprose;Anthio 33;S 6900 (insecticide)",
    "duplicated_cas_no": "12767-54-3",
    "SMILES": "P(SCC(N(C=O)C)=O)(OC)(OC)=S",
    "meta_data": {
        "InChI": "InChI=1S/C6H12NO4PS2/c1-7(5-8)6(9)4-14-12(13,10-2)11-3/h5H,4H2,1-3H3",
        "InChIKey": null,
        "Canonical SMILES": "O=CN(C(=O)CSP(=S)(OC)OC)C",
        "Molecular Formula": "C<sub>6</sub>H<sub>12</sub>NO<sub>4</sub>PS<sub>2</sub>",
        "Molecular Mass": "257.27",
        "Melting Point": "25-26 °C",
        "Density": "1.361 g/cm³ @ Temp: 20 °C"
    }
}