{
    "cas_no": "10338-69-9",
    "key_name": "1,2,3,6-Tetrahydro-4-phenylpyridine",
    "cn_name": "4-苯基-1,2,3,6-四氢吡啶;",
    "alternate_name": "Pyridine, 1,2,3,6-tetrahydro-4-phenyl-;1,2,3,6-Tetrahydro-4-phenylpyridine;4-Phenyl-1,2,5,6-tetrahydropyridine;4-Phenyl-1,2,3,6-tetrahydropyridine;1,2,5,6-Tetrahydro-4-phenylpyridine;NSC 54451;4-Phenyl-3,6-dihydro-2<em>H</em>-pyridine",
    "duplicated_cas_no": "",
    "SMILES": "C1(=CC=CC=C1)C=2CCNCC2",
    "meta_data": {
        "InChI": "InChI=1S/C11H13N/c1-2-4-10(5-3-1)11-6-8-12-9-7-11/h1-6,12H,7-9H2",
        "InChIKey": null,
        "Canonical SMILES": "C=1C=CC(=CC1)C2=CCNCC2",
        "Molecular Formula": "C<sub>11</sub>H<sub>13</sub>N",
        "Molecular Mass": "159.23",
        "Boiling Point": "100-105 °C @ Press: 1.5 Torr"
    }
}