{
    "cas_no": "23418-85-1",
    "key_name": "3-Butynyl <em>p</em>-toluenesulfonate",
    "cn_name": "对甲苯磺酸3-丁炔酯;",
    "alternate_name": "3-Butyn-1-ol, 1-(4-methylbenzenesulfonate);3-Butyn-1-ol, <em>p</em>-toluenesulfonate;3-Butyn-1-ol, 4-methylbenzenesulfonate;4-<em>p</em>-Tolylsulfonyloxy-1-butyne;3-Butyn-1-yl <em>p</em>-toluenesulfonate;3-Butyn-1-yl <em>p</em>-tosylate;3-Butynyl tosylate;3-Butynyl 4-methylbenzenesulfonate;3-Butyn-1-ol tosylate;3-Butynyl <em>p</em>-toluenesulfonate;4-Methylbenzenesulfonic acid 3-butynyl ester;Toluene-4-sulfonic acid but-3-ynyl ester;NSC 116062;4-(Tosyloxy)-1-butyne;3-Butyn-1-yl tosylate;3-Butynyl 4-toluenesulfonate;Homopropargyl tosylate;3-Butyn-1-yl 4-methylbenzenesulfonate;1-(3-Butyn-1-yl) 4-methylbenzenesulfonate",
    "duplicated_cas_no": "",
    "SMILES": "S(OCCC#C)(=O)(=O)C1=CC=C(C)C=C1",
    "meta_data": {
        "InChI": "InChI=1S/C11H12O3S/c1-3-4-9-14-15(12,13)11-7-5-10(2)6-8-11/h1,5-8H,4,9H2,2H3",
        "InChIKey": null,
        "Canonical SMILES": "O=S(=O)(OCCC#C)C1=CC=C(C=C1)C",
        "Molecular Formula": "C<sub>11</sub>H<sub>12</sub>O<sub>3</sub>S",
        "Molecular Mass": "224.28",
        "Boiling Point": "90 °C @ Press: 10-14 Torr"
    }
}