{
    "cas_no": "614-16-4",
    "key_name": "Benzoylacetonitrile",
    "cn_name": "苯甲酰乙腈;",
    "alternate_name": "Benzenepropanenitrile, β-oxo-;Acetonitrile, benzoyl-;β-Oxobenzenepropanenitrile;ω-Cyanoacetophenone;Benzoylacetonitrile;α-Cyanoacetophenone;Phenacyl cyanide;2-Cyanoacetophenone;3-Phenyl-3-ketopropionitrile;Cyanomethyl phenyl ketone;3-Oxo-3-phenylpropanenitrile;Benzoylcyanomethane;3-Phenyl-3-oxopropanenitrile;3-Oxo-3-phenylpropionitrile;NSC 4713;β-Oxobenzenepropionitrile",
    "duplicated_cas_no": "151887-87-5",
    "SMILES": "C(CC#N)(=O)C1=CC=CC=C1",
    "meta_data": {
        "InChI": "InChI=1S/C9H7NO/c10-7-6-9(11)8-4-2-1-3-5-8/h1-5H,6H2",
        "InChIKey": null,
        "Canonical SMILES": "N#CCC(=O)C=1C=CC=CC1",
        "Molecular Formula": "C<sub>9</sub>H<sub>7</sub>NO",
        "Molecular Mass": "145.16",
        "Boiling Point": "160 °C @ Press: 10 Torr",
        "Melting Point": "80.5 °C"
    }
}