{
    "cas_no": "17640-02-7",
    "key_name": "Propanoic acid, 2,2-dichloro-, methyl ester",
    "cn_name": "二氯丙酸甲酯;茅草枯甲酯;",
    "alternate_name": "Propanoic acid, 2,2-dichloro-, methyl ester;Propionic acid, 2,2-dichloro-, methyl ester;Methyl 2,2-dichloropropionate;Methyl 2,2-dichloropropanoate;2,2-Dichloropropanoic acid methyl ester;α,α-Dichloropropionic acid methyl ester;Methyl α,α-dichloropropionate",
    "duplicated_cas_no": "",
    "SMILES": "C(C(C)(Cl)Cl)(OC)=O",
    "meta_data": {
        "InChI": "InChI=1S/C4H6Cl2O2/c1-4(5,6)3(7)8-2/h1-2H3",
        "InChIKey": null,
        "Canonical SMILES": "O=C(OC)C(Cl)(Cl)C",
        "Molecular Formula": "C<sub>4</sub>H<sub>6</sub>Cl<sub>2</sub>O<sub>2</sub>",
        "Molecular Mass": "157.00",
        "Boiling Point": "39-40 °C @ Press: 15 Torr",
        "Density": "1.2934 g/cm³ @ Temp: 20 °C"
    }
}