{
    "cas_no": "26073-09-6",
    "key_name": "Ethyl 4-methyl-2-oxopentanoate",
    "cn_name": null,
    "alternate_name": "Pentanoic acid, 4-methyl-2-oxo-, ethyl ester;Valeric acid, 4-methyl-2-oxo-, ethyl ester;Ethyl α-ketoisocaproate;Ethyl 4-methyl-2-oxopentanoate;Ethyl 4-methyl-2-oxovalerate;Ethyl 2-oxo-4-methylpentanoate",
    "duplicated_cas_no": "",
    "SMILES": "C(C(OCC)=O)(CC(C)C)=O",
    "meta_data": {
        "InChI": "InChI=1S/C8H14O3/c1-4-11-8(10)7(9)5-6(2)3/h6H,4-5H2,1-3H3",
        "InChIKey": null,
        "Canonical SMILES": "O=C(OCC)C(=O)CC(C)C",
        "Molecular Formula": "C<sub>8</sub>H<sub>14</sub>O<sub>3</sub>",
        "Molecular Mass": "158.20",
        "Boiling Point": "123 °C @ Press: 6 Torr",
        "Density": "0.9715 g/cm³ @ Temp: 20 °C"
    }
}