{
    "cas_no": "1008-95-3",
    "key_name": "4-(Oxazol-5-yl)aniline",
    "cn_name": "4-(1,3-吡啶-5-）吲哚;",
    "alternate_name": "Benzenamine, 4-(5-oxazolyl)-;Oxazole, 5-(<em>p</em>-aminophenyl)-;4-(5-Oxazolyl)benzenamine;4-(1,3-Oxazol-5-yl)aniline;4-(1,3-Oxazol-5-yl)phenylamine;5-(4-Aminophenyl)oxazole;4-(Oxazol-5-yl)phenylamine;4-(Oxazol-5-yl)aniline",
    "duplicated_cas_no": "",
    "SMILES": "NC1=CC=C(C=C1)C2=CN=CO2",
    "meta_data": {
        "InChI": "InChI=1S/C9H8N2O/c10-8-3-1-7(2-4-8)9-5-11-6-12-9/h1-6H,10H2",
        "InChIKey": null,
        "Canonical SMILES": "N1=COC(=C1)C=2C=CC(N)=CC2",
        "Molecular Formula": "C<sub>9</sub>H<sub>8</sub>N<sub>2</sub>O",
        "Molecular Mass": "160.17",
        "Melting Point": "151-152 °C"
    }
}