{
    "cas_no": "36417-86-4",
    "key_name": "Paprazine",
    "cn_name": null,
    "alternate_name": "2-Propenamide, 3-(4-hydroxyphenyl)-<em>N</em>-[2-(4-hydroxyphenyl)ethyl]-, (2<em>E</em>)-;2-Propenamide, 3-(4-hydroxyphenyl)-<em>N</em>-[2-(4-hydroxyphenyl)ethyl]-, (<em>E</em>)-;(2<em>E</em>)-3-(4-Hydroxyphenyl)-<em>N</em>-[2-(4-hydroxyphenyl)ethyl]-2-propenamide;<em>N</em>-(<em>p</em>-Hydroxy-β-phenylethyl)-<em>p</em>-hydroxy-<em>trans</em>-cinnamamide;<em>trans</em>-<em>N</em>-(<em>p</em>-Coumaroyl)tyramine;Paprazine;<em>N</em>-(<em>p</em>-<em>trans</em>-Coumaroyl)tyramine;(<em>E</em>)-3-(4-Hydroxyphenyl)-<em>N</em>-[2-(4-hydroxyphenyl)ethyl]prop-2-enamide;<em>trans</em>-4-Coumaroyltyramine;4-Coumaroyltyramine;<em>N</em>-<em>trans</em>-Coumaroyltyramine;<em>N</em>-<em>E</em>-Coumaroyltyramine;<em>N</em>-<em>trans</em>-<em>p</em>-Coumaroyltyramine;<em>E</em>-<em>N</em>-Coumaroyltyramine;(E)-3-(4-Hydroxyphenyl)-<em>N</em>-phenylethyl acrylamide",
    "duplicated_cas_no": "",
    "SMILES": "C(CNC(/C=C/C1=CC=C(O)C=C1)=O)C2=CC=C(O)C=C2",
    "meta_data": {
        "InChI": "InChI=1S/C17H17NO3/c19-15-6-1-13(2-7-15)5-10-17(21)18-12-11-14-3-8-16(20)9-4-14/h1-10,19-20H,11-12H2,(H,18,21)/b10-5+",
        "InChIKey": null,
        "Canonical SMILES": "O=C(C=CC1=CC=C(O)C=C1)NCCC2=CC=C(O)C=C2",
        "Molecular Formula": "C<sub>17</sub>H<sub>17</sub>NO<sub>3</sub>",
        "Molecular Mass": "283.32",
        "Melting Point": "234-236 °C"
    }
}