{
    "cas_no": "482-44-0",
    "key_name": "Imperatorin",
    "cn_name": null,
    "alternate_name": "7<em>H</em>-Furo[3,2-<em>g</em>][1]benzopyran-7-one, 9-[(3-methyl-2-buten-1-yl)oxy]-;Imperatorin;7<em>H</em>-Furo[3,2-<em>g</em>][1]benzopyran-7-one, 9-[(3-methyl-2-butenyl)oxy]-;9-[(3-Methyl-2-buten-1-yl)oxy]-7<em>H</em>-furo[3,2-<em>g</em>][1]benzopyran-7-one;Ammidin;Marmelosin;8-Isopentenyloxypsoralene;8-Isopent-2-enyloxy-6,7-furanocoumarin;Marmelide;NSC 402949",
    "duplicated_cas_no": "70102-00-0",
    "SMILES": "O(CC=C(C)C)C=1C2=C(C=C3C1OC=C3)C=CC(=O)O2",
    "meta_data": {
        "InChI": "InChI=1S/C16H14O4/c1-10(2)5-7-19-16-14-12(6-8-18-14)9-11-3-4-13(17)20-15(11)16/h3-6,8-9H,7H2,1-2H3",
        "InChIKey": null,
        "Canonical SMILES": "O=C1OC=2C(C=C1)=CC=3C=COC3C2OCC=C(C)C",
        "Molecular Formula": "C<sub>16</sub>H<sub>14</sub>O<sub>4</sub>",
        "Molecular Mass": "270.28",
        "Melting Point": "102 °C"
    }
}