{
    "cas_no": "547-64-8",
    "key_name": "Methyl lactate",
    "cn_name": "乳酸甲酯;alpha-羟基丙酸甲酯;",
    "alternate_name": "Propanoic acid, 2-hydroxy-, methyl ester;Lactic acid, methyl ester;Methyl 2-hydroxypropionate;Methyl lactate;Methyl α-hydroxypropionate;Methyl 2-hydroxypropanoate;(±)-Methyl lactate;(±)-Methyl 2-hydroxypropanoate;<span class=\"text-smallcaps\">DL</span>-Methyl lactate;(±)-Methyl 2-hydroxypropionate;NSC 406248",
    "duplicated_cas_no": "2155-30-8",
    "SMILES": "C(C(C)O)(OC)=O",
    "meta_data": {
        "InChI": "InChI=1S/C4H8O3/c1-3(5)4(6)7-2/h3,5H,1-2H3",
        "InChIKey": null,
        "Canonical SMILES": "O=C(OC)C(O)C",
        "Molecular Formula": "C<sub>4</sub>H<sub>8</sub>O<sub>3</sub>",
        "Molecular Mass": "104.10",
        "Boiling Point": "144-145 °C",
        "Melting Point": "-66 °C",
        "Density": "1.09 g/cm³ @ Temp: 19 °C"
    }
}