{
    "cas_no": "303-34-4",
    "key_name": "(-)-Lasiocarpine",
    "cn_name": null,
    "alternate_name": "2-Butenoic acid, 2-methyl-, (1<em>S</em>,7a<em>R</em>)-7-[[(2<em>R</em>)-2,3-dihydroxy-2-[(1<em>R</em>)-1-methoxyethyl]-3-methyl-1-oxobutoxy]methyl]-2,3,5,7a-tetrahydro-1<em>H</em>-pyrrolizin-1-yl ester, (2<em>Z</em>)-;Lasiocarpine;2-Butenoic acid, 2-methyl-, 7-[[2,3-dihydroxy-2-(1-methoxyethyl)-3-methyl-1-oxobutoxy]methyl]-2,3,5,7a-tetrahydro-1<em>H</em>-pyrrolizin-1-yl ester, [1<em>S</em>-[1α(<em>Z</em>),7[<em>S</em>*(<em>R</em>*)],7aα]]-;7-Angelyleuropine;Europine 7-angelate;(-)-Lasiocarpine;NSC 30625",
    "duplicated_cas_no": "761458-21-3",
    "SMILES": "C(OC([C@@]([C@H](OC)C)(C(C)(C)O)O)=O)C=1[C@]2(N(CC[C@@H]2OC(/C(=C\\C)/C)=O)CC1)[H]",
    "meta_data": {
        "InChI": "InChI=1S/C21H33NO7/c1-7-13(2)18(23)29-16-9-11-22-10-8-15(17(16)22)12-28-19(24)21(26,14(3)27-6)20(4,5)25/h7-8,14,16-17,25-26H,9-12H2,1-6H3/b13-7-/t14-,16+,17-,21+/m1/s1",
        "InChIKey": null,
        "Canonical SMILES": "O=C(OC1CCN2CC=C(COC(=O)C(O)(C(OC)C)C(O)(C)C)C21)C(=CC)C",
        "Molecular Formula": "C<sub>21</sub>H<sub>33</sub>NO<sub>7</sub>",
        "Molecular Mass": "411.49",
        "Melting Point": "96.4-97 °C"
    }
}