{
    "cas_no": "1482-98-0",
    "key_name": "Butanoic acid, 2,4-diamino-, hydrochloride (1:1), (2<em>S</em>)-",
    "cn_name": null,
    "alternate_name": "Butanoic acid, 2,4-diamino-, hydrochloride (1:1), (2<em>S</em>)-;Butyric acid, 2,4-diamino-, monohydrochloride, <span class=\"text-smallcaps\">L</span>-;Butanoic acid, 2,4-diamino-, monohydrochloride, (<em>S</em>)-;<span class=\"text-smallcaps\">L</span>-α,γ-Diaminobutyric acid monohydrochloride;(<em>S</em>)-2,4-Diaminobutanoic acid monohydrochloride;(<em>S</em>)-(+)-2,4-Diaminobutyric acid hydrochloride",
    "duplicated_cas_no": "",
    "SMILES": "[C@H](CCN)(C(O)=O)N.Cl",
    "meta_data": {
        "InChI": "InChI=1S/C4H10N2O2.ClH/c5-2-1-3(6)4(7)8;/h3H,1-2,5-6H2,(H,7,8);1H/t3-;/m0./s1",
        "InChIKey": null,
        "Canonical SMILES": "Cl.O=C(O)C(N)CCN",
        "Molecular Formula": "C<sub>4</sub>H<sub>10</sub>N<sub>2</sub>O<sub>2</sub>.ClH",
        "Molecular Mass": "",
        "Melting Point": "228-230 °C"
    }
}