{
    "cas_no": "16924-00-8",
    "key_name": "Potassium heptafluorotantalate",
    "cn_name": "钽氟酸钾;氟钽酸钾;七氟化钽钾;七氟钽(V)酸钾;",
    "alternate_name": "Tantalate(2-), heptafluoro-, potassium (1:2);Tantalate(2-), heptafluoro-, dipotassium;Potassium heptafluorotantalate(V);Potassium fluotantalate(V) (K<sub>2</sub>TaF<sub>7</sub>);Potassium fluorotantalate (K<sub>2</sub>TaF<sub>7</sub>);Potassium tantalum fluoride (K<sub>2</sub>TaF<sub>7</sub>);Potassium fluorotantalate;Potassium heptafluorotantalate;Dipotassium heptafluorotantalate;NSC 154396;Potassium sodium tantalum fluoride (KNaTaF<sub>7</sub>)",
    "duplicated_cas_no": "10028-20-3;12022-03-6;12206-83-6;1167055-09-5;2122764-67-2;2472905-47-6",
    "SMILES": "[Ta+5]([F-])([F-])([F-])([F-])([F-])([F-])[F-].[K+]",
    "meta_data": {
        "InChI": "InChI=1S/7FH.2K.Ta/h7*1H;;;/q;;;;;;;2*+1;+5/p-7",
        "InChIKey": null,
        "Canonical SMILES": "[K+].[F-][Ta+5]([F-])([F-])([F-])([F-])([F-])[F-]",
        "Molecular Formula": "F<sub>7</sub>Ta.2K",
        "Molecular Mass": "",
        "Melting Point": "775 °C",
        "Density": "5.24 g/cm³"
    }
}