{
    "cas_no": "13478-00-7",
    "key_name": "Nickel nitrate hexahydrate",
    "cn_name": null,
    "alternate_name": "Nitric acid, nickel(2+) salt, hydrate (2:1:6);Nitric acid, nickel(2+) salt, hexahydrate;Nitric acid nickel(2+) salt (2:1) hexahydrate;Nickel(II) nitrate hexahydrate;Nickel dinitrate hexahydrate;Nickelous nitrate hexahydrate;Nickel(2+) dinitrate hexahydrate;Nickel nitrate hexahydrate;Nickel(2+) bis(nitrate) hexahydrate;Nickel(2+) nitrate hexahydrate;Nickel nitrate (Ni(NO<sub>3</sub>)<sub>2</sub>) hydrate (1:6);Nickel nitrate (Ni(NO<sub>3</sub>)<sub>2</sub>) hexahydrate;Nickel nitrate trihydrate;Nickel nitrate (Ni(NO<sub>3</sub>)<sub>2</sub>), hydrate (1:6)",
    "duplicated_cas_no": "2374821-05-1;2640517-02-6;3030961-95-3",
    "SMILES": "N(=O)(=O)O.[Ni].O",
    "meta_data": {
        "InChI": "InChI=1S/HNO3.Ni.3H2O/c2-1(3)4;;;;/h(H,2,3,4);;3*1H2",
        "InChIKey": null,
        "Canonical SMILES": "[Ni].O=N(=O)O.O",
        "Molecular Formula": "H<sub>2</sub>O.<sup>1</sup>/<sub>3</sub>HNO<sub>3</sub>.<sup>1</sup>/<sub>6</sub>Ni",
        "Molecular Mass": "",
        "Melting Point": "56.7 °C",
        "Density": "2.05 g/cm³"
    }
}