{
    "cas_no": "67-51-6",
    "key_name": "3,5-Dimethylpyrazole",
    "cn_name": "3,5-二甲基吡唑;",
    "alternate_name": "1<em>H</em>-Pyrazole, 3,5-dimethyl-;Pyrazole, 3,5-dimethyl-;3,5-Dimethyl-1<em>H</em>-pyrazole;U 6245;3,5-Dimethylpyrazole;TH 564;1<em>H</em>-3,5-Dimethylpyrazole;Trixene DP 8692;NSC 8729",
    "duplicated_cas_no": "",
    "SMILES": "CC=1C=C(C)NN1",
    "meta_data": {
        "InChI": "InChI=1S/C5H8N2/c1-4-3-5(2)7-6-4/h3H,1-2H3,(H,6,7)",
        "InChIKey": null,
        "Canonical SMILES": "N=1NC(=CC1C)C",
        "Molecular Formula": "C<sub>5</sub>H<sub>8</sub>N<sub>2</sub>",
        "Molecular Mass": "96.13",
        "Boiling Point": "218 °C",
        "Melting Point": "107.5 °C"
    }
}