{
    "cas_no": "611-00-7",
    "key_name": "2,4-Dibromobenzoic acid",
    "cn_name": "2,4-二溴苯甲酸;",
    "alternate_name": "Benzoic acid, 2,4-dibromo-;2,4-Dibromobenzoic acid",
    "duplicated_cas_no": "",
    "SMILES": "C(O)(=O)C1=C(Br)C=C(Br)C=C1",
    "meta_data": {
        "InChI": "InChI=1S/C7H4Br2O2/c8-4-1-2-5(7(10)11)6(9)3-4/h1-3H,(H,10,11)",
        "InChIKey": null,
        "Canonical SMILES": "O=C(O)C1=CC=C(Br)C=C1Br",
        "Molecular Formula": "C<sub>7</sub>H<sub>4</sub>Br<sub>2</sub>O<sub>2</sub>",
        "Molecular Mass": "279.91",
        "Melting Point": "174 °C"
    }
}