{
    "cas_no": "7379-35-3",
    "key_name": "4-Chloropyridine hydrochloride",
    "cn_name": "4-氯吡啶盐酸盐;",
    "alternate_name": "Pyridine, 4-chloro-, hydrochloride (1:1);Pyridine, 4-chloro-, hydrochloride;TH 336N;TH 336;4-Chloropyridine hydrochloride;4-Chloropyridinium monohydrochloride;4-Chlorpyridinium hydrochloride;4-Chloropyridine-HCl;4-Chloropyridinium chloride;4-Chloropyridinium hydrochloride",
    "duplicated_cas_no": "",
    "SMILES": "ClC=1C=CN=CC1.Cl",
    "meta_data": {
        "InChI": "InChI=1S/C5H4ClN.ClH/c6-5-1-3-7-4-2-5;/h1-4H;1H",
        "InChIKey": null,
        "Canonical SMILES": "Cl.ClC=1C=CN=CC1",
        "Molecular Formula": "C<sub>5</sub>H<sub>4</sub>ClN.ClH",
        "Molecular Mass": "",
        "Melting Point": "223 °C"
    }
}