{
    "cas_no": "16182-04-0",
    "key_name": "Ethoxycarbonyl isothiocyanate",
    "cn_name": "异硫氰酸乙氧羰酯;",
    "alternate_name": "Carbon(isothiocyanatidic) acid, ethyl ester;Carbonic acid, monoanhydride with isothiocyanic acid, ethyl ester;Carbonic acid, ethyl ester, anhydride with isothiocyanic acid;Ethyl isothiocyanatoformate;Carbethoxyisothiocyanate;Ethoxycarbonyl isothiocyanate;Carbonic acid ethyl ester isothiocyanate;Ethoxycarbonyl mustard oil;NSC 158480;Ethyl isothiocyanatocarbonate;Ethyl carbonisothiocyanatidate;<em>O</em>-Ethyl carbonisothiocyanatidate",
    "duplicated_cas_no": "37488-67-8",
    "SMILES": "C(N=C=S)(OCC)=O",
    "meta_data": {
        "InChI": "InChI=1S/C4H5NO2S/c1-2-7-4(6)5-3-8/h2H2,1H3",
        "InChIKey": null,
        "Canonical SMILES": "O=C(N=C=S)OCC",
        "Molecular Formula": "C<sub>4</sub>H<sub>5</sub>NO<sub>2</sub>S",
        "Molecular Mass": "131.15",
        "Boiling Point": "56 °C @ Press: 18 Torr"
    }
}