{
    "cas_no": "43052-87-5",
    "key_name": "α-Damascone",
    "cn_name": null,
    "alternate_name": "2-Buten-1-one, 1-(2,6,6-trimethyl-2-cyclohexen-1-yl)-;1-(2,6,6-Trimethyl-2-cyclohexen-1-yl)-2-buten-1-one;2,6,6-Trimethyl-1-crotonyl-2-cyclohexene;α-Damascone;1-(2,6,6-Trimethyl-2-cyclohexenyl)-2-buten-1-one",
    "duplicated_cas_no": "72748-70-0",
    "SMILES": "C(C=CC)(=O)C1C(C)(C)CCC=C1C",
    "meta_data": {
        "InChI": "InChI=1S/C13H20O/c1-5-7-11(14)12-10(2)8-6-9-13(12,3)4/h5,7-8,12H,6,9H2,1-4H3",
        "InChIKey": null,
        "Canonical SMILES": "O=C(C=CC)C1C(=CCCC1(C)C)C",
        "Molecular Formula": "C<sub>13</sub>H<sub>20</sub>O",
        "Molecular Mass": "192.30",
        "Boiling Point": "253-255 °C @ Press: 760 Torr",
        "Density": "0.9229 g/cm³ @ Temp: 27 °C"
    }
}