{
    "cas_no": "107-10-8",
    "key_name": "Propylamine",
    "cn_name": "丙胺;正丙胺;1-丙胺;正丙基胺;1-丙基胺;",
    "alternate_name": "1-Propanamine;Propylamine;1-Aminopropane;Mono-<em>n</em>-propylamine;<em>n</em>-Propylamine;1-Propylamine;Monopropylamine;NSC 7490;Propan-1-ylamine;(<em>n</em>-Propan-1-yl)amine;3-Aminopropane;Propan-1-amine",
    "duplicated_cas_no": "42939-71-9",
    "SMILES": "C(CN)C",
    "meta_data": {
        "InChI": "InChI=1S/C3H9N/c1-2-3-4/h2-4H2,1H3",
        "InChIKey": null,
        "Canonical SMILES": "NCCC",
        "Molecular Formula": "C<sub>3</sub>H<sub>9</sub>N",
        "Molecular Mass": "59.11",
        "Boiling Point": "48-49 °C",
        "Melting Point": "-83 °C",
        "Density": "0.719 g/cm³ @ Temp: 20 °C"
    }
}