{
    "cas_no": "3524-87-6",
    "key_name": "6-Methyl-4(3<em>H</em>)-pyrimidinone",
    "cn_name": "4-羟基-6-甲基嘧啶;",
    "alternate_name": "4(3<em>H</em>)-Pyrimidinone, 6-methyl-;4-Pyrimidinol, 6-methyl-;4(1<em>H</em>)-Pyrimidinone, 6-methyl-;6-Methyl-4(3<em>H</em>)-pyrimidinone;4-Hydroxy-6-methylpyrimidine;6-Methyl-4-oxopyrimidine;6-Methyl-4-pyrimidinol;6-Methyl-4-hydroxypyrimidine;NSC 18893;NSC 193523",
    "duplicated_cas_no": "14663-58-2",
    "SMILES": "CC1=CC(=O)N=CN1",
    "meta_data": {
        "InChI": "InChI=1S/C5H6N2O/c1-4-2-5(8)7-3-6-4/h2-3H,1H3,(H,6,7,8)",
        "InChIKey": null,
        "Canonical SMILES": "O=C1N=CNC(=C1)C",
        "Molecular Formula": "C<sub>5</sub>H<sub>6</sub>N<sub>2</sub>O",
        "Molecular Mass": "110.11",
        "Melting Point": "160-161 °C (decomp)"
    }
}