{
    "cas_no": "667463-62-9",
    "key_name": "6-Bromoindirubin-3′-oxime",
    "cn_name": "(2\"Z,3\"E)-6-溴靛玉红-3\"-肟;",
    "alternate_name": "2<em>H</em>-Indol-2-one, 6-bromo-3-[(3<em>E</em>)-1,3-dihydro-3-(hydroxyimino)-2<em>H</em>-indol-2-ylidene]-1,3-dihydro-, (3<em>Z</em>)-;(3<em>Z</em>)-6-Bromo-3-[(3<em>E</em>)-1,3-dihydro-3-(hydroxyimino)-2<em>H</em>-indol-2-ylidene]-1,3-dihydro-2<em>H</em>-indol-2-one;(2′<em>Z</em>,3′<em>E</em>)-6-Bromoindirubin-3′-oxime;GSK 3 Inhibitor IX;GSK 3 IX;MLS 2052;BIO;6-Bromoindirubin-3′-oxime;6-BIO;KIN 001-043;(2<em>Z</em>,3<em>E</em>)-6′-Bromo-3-(hydroxyimino)-[2,3′-biindolinyliden]-2′-one",
    "duplicated_cas_no": "",
    "SMILES": "O=C1\\C(\\C=2C(N1)=CC(Br)=CC2)=C/3\\C(=N\\O)\\C=4C(N3)=CC=CC4",
    "meta_data": {
        "InChI": "InChI=1S/C16H10BrN3O2/c17-8-5-6-9-12(7-8)19-16(21)13(9)15-14(20-22)10-3-1-2-4-11(10)18-15/h1-7,18,22H,(H,19,21)/b15-13-,20-14+",
        "InChIKey": null,
        "Canonical SMILES": "O=C1NC=2C=C(Br)C=CC2C1=C3NC=4C=CC=CC4C3=NO",
        "Molecular Formula": "C<sub>16</sub>H<sub>10</sub>BrN<sub>3</sub>O<sub>2</sub>",
        "Molecular Mass": "356.17",
        "Melting Point": "&gt;300 °C"
    }
}