{
    "cas_no": "75-91-2",
    "key_name": "<em>tert</em>-Butyl hydroperoxide",
    "cn_name": "叔丁基过氧化氢;过氧化特丁醇;",
    "alternate_name": "Hydroperoxide, 1,1-dimethylethyl;<em>tert</em>-Butyl hydroperoxide;1,1-Dimethylethyl hydroperoxide;Cadox TBH;Perbutyl H;2-Hydroperoxy-2-methylpropane;Trigonox A-W 70;Kayabutyl H;Perbutyl H 69T;<em>t</em>-Butyl hydroperoxide;Perbutyl H 80;<em>tert</em>-Butyl hydrogen peroxide;TBHP;Perbutyl H 69;Luperox TBH 70X;NSC 672;Luperox H 70;Kayabutyl H 70;T-HYDRO;Luperox TBHP;Peroxan BHP 10;Luperox TBH;H 70;2-Methylpropane-2-peroxol;Luperox TBH 68X;MeSH ID: D020122",
    "duplicated_cas_no": "",
    "SMILES": "C(OO)(C)(C)C",
    "meta_data": {
        "InChI": "InChI=1S/C4H10O2/c1-4(2,3)6-5/h5H,1-3H3",
        "InChIKey": null,
        "Canonical SMILES": "OOC(C)(C)C",
        "Molecular Formula": "C<sub>4</sub>H<sub>10</sub>O<sub>2</sub>",
        "Molecular Mass": "90.12",
        "Boiling Point": "35 °C @ Press: 20 Torr",
        "Melting Point": "-8 °C",
        "Density": "0.8960 g/cm³ @ Temp: 20 °C"
    }
}