{
    "cas_no": "111-15-9",
    "key_name": "Glycol monoethyl ether acetate",
    "cn_name": "乙二醇乙醚醋酸酯;2-乙氧基乙基乙酸酯;",
    "alternate_name": "Ethanol, 2-ethoxy-, 1-acetate;Ethanol, 2-ethoxy-, acetate;β-Ethoxyethyl acetate;2-Ethoxyethyl acetate;Ethylene glycol ethyl ether acetate;Ethylene glycol monoethyl ether acetate;Glycol monoethyl ether acetate;Poly-Solv EE acetate;Cellosolve acetate;<em>O</em>-Ethylglycol acetate;Oxitol acetate;2-Ethoxyethanol acetate;Ethyl cellosolve acetate;Ethylene glycol monoethyl ether monoacetate;1-Acetoxy-2-ethoxyethane;Ethylene glycol acetate monoethyl ether;NSC 8658;2-Ethyloxyethyl acetate;Ethyl glycol acetate;2-Ethyl ether acetate",
    "duplicated_cas_no": "",
    "SMILES": "C(OC(C)=O)COCC",
    "meta_data": {
        "InChI": "InChI=1S/C6H12O3/c1-3-8-4-5-9-6(2)7/h3-5H2,1-2H3",
        "InChIKey": null,
        "Canonical SMILES": "O=C(OCCOCC)C",
        "Molecular Formula": "C<sub>6</sub>H<sub>12</sub>O<sub>3</sub>",
        "Molecular Mass": "132.16",
        "Boiling Point": "156 °C",
        "Melting Point": "-61.7 °C",
        "Density": "0.975 g/cm³ @ Temp: 20 °C"
    }
}