{
    "cas_no": "17630-76-1",
    "key_name": "5-Chloroisatin",
    "cn_name": "5-氯靛红;5-氯-1H-吲哚-2,3-二酮;",
    "alternate_name": "1<em>H</em>-Indole-2,3-dione, 5-chloro-;Indole-2,3-dione, 5-chloro-;Isatin, 5-chloro-;5-Chloro-1<em>H</em>-indole-2,3-dione;5-Chloroisatin;5-Chloro-2,3-indoledione;5-Chloro-2,3-indolinedione;NSC 135811",
    "duplicated_cas_no": "1456796-45-4",
    "SMILES": "O=C1C=2C(NC1=O)=CC=C(Cl)C2",
    "meta_data": {
        "InChI": "InChI=1S/C8H4ClNO2/c9-4-1-2-6-5(3-4)7(11)8(12)10-6/h1-3H,(H,10,11,12)",
        "InChIKey": null,
        "Canonical SMILES": "O=C1NC2=CC=C(Cl)C=C2C1=O",
        "Molecular Formula": "C<sub>8</sub>H<sub>4</sub>ClNO<sub>2</sub>",
        "Molecular Mass": "181.58",
        "Melting Point": "246-247 °C"
    }
}