{
    "cas_no": "15529-90-5",
    "key_name": "Chloro(triethylphosphine)gold",
    "cn_name": null,
    "alternate_name": "Gold, chloro(triethylphosphine)-;Chloro(triethylphosphine)gold;SKF 36914;Triethylphosphine-gold chloride complex;(Triethylphosphine)gold chloride;Triethylphosphineaurous chloride;Triethylphosphine gold(I) chloride;NSC 313981",
    "duplicated_cas_no": "",
    "SMILES": "[P]([Au+][Cl-])(CC)(CC)CC",
    "meta_data": {
        "InChI": "InChI=1S/C6H15P.Au.ClH/c1-4-7(5-2)6-3;;/h4-6H2,1-3H3;;1H/q;+1;/p-1",
        "InChIKey": null,
        "Canonical SMILES": "[Cl-][Au+][P](CC)(CC)CC",
        "Molecular Formula": "C<sub>6</sub>H<sub>15</sub>AuClP",
        "Molecular Mass": "",
        "Melting Point": "85-87 °C"
    }
}