{
    "cas_no": "13253-44-6",
    "key_name": "5-[2-(Methylthio)ethyl]-2,4-imidazolidinedione",
    "cn_name": "5-[2-(甲硫基)乙基]海因;",
    "alternate_name": "2,4-Imidazolidinedione, 5-[2-(methylthio)ethyl]-;Hydantoin, 5-[2-(methylthio)ethyl]-;5-[2-(Methylthio)ethyl]-2,4-imidazolidinedione;5-[2-(Methylthio)ethyl]hydantoin;5-[β-(Methylthio)ethyl]hydantoin;5-(β-Methylmercaptoethyl)hydantoin;Methionine hydantoin;<span class=\"text-smallcaps\">DL</span>-5-[2-(Methylthio)ethyl]hydantoin;<span class=\"text-smallcaps\">DL</span>-5-(β-Methylmercaptoethyl)hydantoin;(±)-5-[2-(Methylthio)ethyl]hydantoin;5-[2-(Methylthio)ethyl]imidazolidine-2,4-dione;5-[2-(Methylmercapto)ethyl]hydantoin",
    "duplicated_cas_no": "23459-78-1",
    "SMILES": "C(CSC)C1NC(=O)NC1=O",
    "meta_data": {
        "InChI": "InChI=1S/C6H10N2O2S/c1-11-3-2-4-5(9)8-6(10)7-4/h4H,2-3H2,1H3,(H2,7,8,9,10)",
        "InChIKey": null,
        "Canonical SMILES": "O=C1NC(=O)C(N1)CCSC",
        "Molecular Formula": "C<sub>6</sub>H<sub>10</sub>N<sub>2</sub>O<sub>2</sub>S",
        "Molecular Mass": "174.22",
        "Melting Point": "117-118 °C"
    }
}