{
    "cas_no": "2980-33-8",
    "key_name": "3,5-Dinitro-2(1<em>H</em>)-pyridinone",
    "cn_name": "2-羟基-3,5-二硝基吡啶;",
    "alternate_name": "2(1<em>H</em>)-Pyridinone, 3,5-dinitro-;2-Pyridinol, 3,5-dinitro-;2(1<em>H</em>)-Pyridone, 3,5-dinitro-;3,5-Dinitro-2(1<em>H</em>)-pyridinone;3,5-Dinitro-2-pyridone;2-Hydroxy-3,5-dinitropyridine;3,5-Dinitro-2-hydroxypyridine;3,5-Dinitropyridin-2-one;NSC 52198;3,5-Dinitro-1<em>H</em>-pyridin-2-one;3,5-Dinitro-1,2-dihydropyridin-2-one",
    "duplicated_cas_no": "",
    "SMILES": "N(=O)(=O)C1=CC(N(=O)=O)=CNC1=O",
    "meta_data": {
        "InChI": "InChI=1S/C5H3N3O5/c9-5-4(8(12)13)1-3(2-6-5)7(10)11/h1-2H,(H,6,9)",
        "InChIKey": null,
        "Canonical SMILES": "O=C1NC=C(C=C1N(=O)=O)N(=O)=O",
        "Molecular Formula": "C<sub>5</sub>H<sub>3</sub>N<sub>3</sub>O<sub>5</sub>",
        "Molecular Mass": "185.09",
        "Melting Point": "175 °C"
    }
}