{
    "cas_no": "71-00-1",
    "key_name": "<span class=\"text-smallcaps\">L</span>-Histidine",
    "cn_name": "L-组氨酸;",
    "alternate_name": "<span class=\"text-smallcaps\">L</span>-Histidine;Histidine, <span class=\"text-smallcaps\">L</span>-;Histidine;1<em>H</em>-Imidazole-4-propanoic acid, α-amino-, (<em>S</em>)-;(<em>S</em>)-4-(2-Amino-2-carboxyethyl)imidazole;Glyoxaline-5-alanine;<span class=\"text-smallcaps\">L</span>-(-)-Histidine;(<em>S</em>)-Histidine;(<em>S</em>)-α-Amino-1<em>H</em>-imidazole-4-propanoic acid;1<em>H</em>-Imidazole-4-alanine, (<em>S</em>)-;<span class=\"text-smallcaps\">L</span>-Alanine, 3-(1<em>H</em>-imidazol-4-yl)-;NSC 137773;(2<em>S</em>)-2-Amino-3-(1<em>H</em>-imidazol-4-yl)propanoic acid;8: PN: EP2878667 TABLE: 5 claimed sequence;(<em>S</em>)-2-Amino-3-(1<em>H</em>-imidazol-4-yl)propanoic acid;(2S)-2-Azaniumyl-3-(1<em>H</em>-imidazol-5-yl)propanoate;(2S)-2-Amino-3-(1<em>H</em>-imidazol-4-yl)propanoic acid;124: PN: WO2020191245 SEQID: 252 claimed protein;103: PN: WO2021061872 SEQID: 103 claimed protein;177: PN: WO2021226558 SEQID: 252 claimed protein;88: PN: WO2022204151 SEQID: 88 claimed protein;MeSH ID: D006639",
    "duplicated_cas_no": "150-35-6;7006-35-1;35479-49-3;35558-59-9;45955-20-2;54166-13-1;736075-03-9;155304-24-8",
    "SMILES": "C([C@@H](C(O)=O)N)C1=CN=CN1",
    "meta_data": {
        "InChI": "InChI=1S/C6H9N3O2/c7-5(6(10)11)1-4-2-8-3-9-4/h2-3,5H,1,7H2,(H,8,9)(H,10,11)/t5-/m0/s1",
        "InChIKey": null,
        "Canonical SMILES": "O=C(O)C(N)CC1=CN=CN1",
        "Molecular Formula": "C<sub>6</sub>H<sub>9</sub>N<sub>3</sub>O<sub>2</sub>",
        "Molecular Mass": "155.15",
        "Melting Point": "287 °C (decomp)",
        "Density": "1.412 g/cm³"
    }
}