{
    "cas_no": "14144-06-0",
    "key_name": "Trillin",
    "cn_name": "地索苷;延龄草苷;延年草甙;",
    "alternate_name": "β-<span class=\"text-smallcaps\">D</span>-Glucopyranoside, (3β,25<em>R</em>)-spirost-5-en-3-yl;Diosgenin β-<span class=\"text-smallcaps\">D</span>-glucopyranoside;Trillin;Spirostan, β-<span class=\"text-smallcaps\">D</span>-glucopyranoside deriv.;Spiro[8<em>H</em>-naphth[2′,1′:4,5]indeno[2,1-<em>b</em>]furan-8,2′-[2<em>H</em>]pyran], β-<span class=\"text-smallcaps\">D</span>-glucopyranoside deriv.;(3β,25<em>R</em>)-Spirost-5-en-3-yl β-<span class=\"text-smallcaps\">D</span>-glucopyranoside;Diosgenin 3-<em>O</em>-β-<span class=\"text-smallcaps\">D</span>-glucopyranoside;Alliumoside A;Funkioside A;Polygonatoside A;Prosapogenin D′<sub>3</sub>;Diosgenin β-<span class=\"text-smallcaps\">D</span>-glucoside;Polyphyllin A;Melongoside B;Collettiside I;Diosgenin glucoside;Diosgenin 3-β-<span class=\"text-smallcaps\">D</span>-glucoside;Disogluside;Lilioglycoside A",
    "duplicated_cas_no": "37321-52-1;76296-69-0;1205676-71-6",
    "SMILES": "C[C@@]12[C@@]3([C@@](O[C@@]4([C@H]3C)CC[C@@H](C)CO4)(C[C@]1([C@]5([C@](CC2)([C@]6(C)C(=CC5)C[C@@H](O[C@@H]7O[C@H](CO)[C@@H](O)[C@H](O)[C@H]7O)CC6)[H])[H])[H])[H])[H]",
    "meta_data": {
        "InChI": "InChI=1S/C33H52O8/c1-17-7-12-33(38-16-17)18(2)26-24(41-33)14-23-21-6-5-19-13-20(8-10-31(19,3)22(21)9-11-32(23,26)4)39-30-29(37)28(36)27(35)25(15-34)40-30/h5,17-18,20-30,34-37H,6-16H2,1-4H3/t17-,18+,20+,21-,22+,23+,24+,25-,26+,27-,28+,29-,30-,31+,32+,33-/m1/s1",
        "InChIKey": null,
        "Canonical SMILES": "OCC1OC(OC2CC3=CCC4C(CCC5(C)C4CC6OC7(OCC(C)CC7)C(C)C65)C3(C)CC2)C(O)C(O)C1O",
        "Molecular Formula": "C<sub>33</sub>H<sub>52</sub>O<sub>8</sub>",
        "Molecular Mass": "576.76",
        "Melting Point": "275-280 °C (decomp)"
    }
}