{
    "cas_no": "36701-89-0",
    "key_name": "2-[3-(Trifluoromethyl)phenoxy]-3-pyridinecarboxylic acid",
    "cn_name": null,
    "alternate_name": "3-Pyridinecarboxylic acid, 2-[3-(trifluoromethyl)phenoxy]-;2-[3-(Trifluoromethyl)phenoxy]-3-pyridinecarboxylic acid;2-(3-Trifluoromethylphenoxy)nicotinic acid;2-(3-Trifluoromethylphenoxy)-3-pyridinecarboxylic acid",
    "duplicated_cas_no": "",
    "SMILES": "O(C1=C(C(O)=O)C=CC=N1)C2=CC(C(F)(F)F)=CC=C2",
    "meta_data": {
        "InChI": "InChI=1S/C13H8F3NO3/c14-13(15,16)8-3-1-4-9(7-8)20-11-10(12(18)19)5-2-6-17-11/h1-7H,(H,18,19)",
        "InChIKey": null,
        "Canonical SMILES": "O=C(O)C1=CC=CN=C1OC2=CC=CC(=C2)C(F)(F)F",
        "Molecular Formula": "C<sub>13</sub>H<sub>8</sub>F<sub>3</sub>NO<sub>3</sub>",
        "Molecular Mass": "283.20",
        "Melting Point": "144-146 °C"
    }
}