{
    "cas_no": "86-96-4",
    "key_name": "Quinazolinedione",
    "cn_name": "2,4-喹唑啉二酮;2,4-二羟基喹唑啉;",
    "alternate_name": "2,4(1<em>H</em>,3<em>H</em>)-Quinazolinedione;Benzoyleneurea;Urea, benzoylene-;Quinazolinedione;1,2,3,4-Tetrahydroquinazoline-2,4-dione;2,4-Dihydroxyquinazoline;Quinazoline-2,4-dione;Benzouracil;2,4-Dioxotetrahydroquinazoline;2,4-Quinazolinediol;1,2,3,4-Tetrahydro-2,4-dioxoquinazoline;NSC 2108;y-Thymine;yT;2-Hydroxy-3,4-dihydroquinazolin-4-one",
    "duplicated_cas_no": "2760-01-2;33080-96-5",
    "SMILES": "O=C1C=2C(NC(=O)N1)=CC=CC2",
    "meta_data": {
        "InChI": "InChI=1S/C8H6N2O2/c11-7-5-3-1-2-4-6(5)9-8(12)10-7/h1-4H,(H2,9,10,11,12)",
        "InChIKey": null,
        "Canonical SMILES": "O=C1NC(=O)C=2C=CC=CC2N1",
        "Molecular Formula": "C<sub>8</sub>H<sub>6</sub>N<sub>2</sub>O<sub>2</sub>",
        "Molecular Mass": "162.15",
        "Melting Point": "300 °C"
    }
}