{
    "cas_no": "35000-38-5",
    "key_name": "(<em>tert</em>-Butoxycarbonylmethylene)triphenylphosphorane",
    "cn_name": "三苯基磷乙酸叔丁酯;",
    "alternate_name": "Acetic acid, 2-(triphenylphosphoranylidene)-, 1,1-dimethylethyl ester;Acetic acid, (triphenylphosphoranylidene)-, 1,1-dimethylethyl ester;(<em>tert</em>-Butoxycarbonylmethylene)triphenylphosphorane;1,1-Dimethylethyl (triphenylphosphoranylidene)acetate;<em>tert</em>-Butyl (triphenylphosphoranylidene)acetate;Triphenyl(<em>tert</em>-butoxycarbonylmethylene)phosphorane;(Triphenylphosphoranylidene)acetic acid <em>tert</em>-butyl ester;(<em>tert</em>-Butoxycarbonylmethylene)triphenylphosphoran;NSC 82469;(Triphenyl-λ<sup>5</sup>-phosphanylidene)acetic acid <em>tert</em>-butyl ester;<em>tert</em>-Butyl 2-(triphenylphosphoranylidene)acetate;1,1-Dimethylethyl 2-(triphenyl-λ5-phosphanylidene)acetate;<em>tert</em>-Butyl triphenylphosphoranylidenacetate;<em>tert</em>-Butyl 2-(triphenylphosphaneylidene)acetate",
    "duplicated_cas_no": "2669096-64-2",
    "SMILES": "P(=CC(OC(C)(C)C)=O)(C1=CC=CC=C1)(C2=CC=CC=C2)C3=CC=CC=C3",
    "meta_data": {
        "InChI": "InChI=1S/C24H25O2P/c1-24(2,3)26-23(25)19-27(20-13-7-4-8-14-20,21-15-9-5-10-16-21)22-17-11-6-12-18-22/h4-19H,1-3H3",
        "InChIKey": null,
        "Canonical SMILES": "O=C(OC(C)(C)C)C=P(C=1C=CC=CC1)(C=2C=CC=CC2)C=3C=CC=CC3",
        "Molecular Formula": "C<sub>24</sub>H<sub>25</sub>O<sub>2</sub>P",
        "Molecular Mass": "376.43",
        "Melting Point": "158 °C"
    }
}