{
    "cas_no": "2510-55-6",
    "key_name": "9-Phenanthrenecarbonitrile",
    "cn_name": "9-氰基菲;9-腈菲;",
    "alternate_name": "9-Phenanthrenecarbonitrile;9-Cyanophenanthrene;9-Phenanthronitrile;9-Phenanthrenenitrile;NSC 59773",
    "duplicated_cas_no": "",
    "SMILES": "C(#N)C1=C2C(=C3C(=C1)C=CC=C3)C=CC=C2",
    "meta_data": {
        "InChI": "InChI=1S/C15H9N/c16-10-12-9-11-5-1-2-6-13(11)15-8-4-3-7-14(12)15/h1-9H",
        "InChIKey": null,
        "Canonical SMILES": "N#CC1=CC=2C=CC=CC2C=3C=CC=CC13",
        "Molecular Formula": "C<sub>15</sub>H<sub>9</sub>N",
        "Molecular Mass": "203.24",
        "Boiling Point": "255-280 °C @ Press: 30 Torr",
        "Melting Point": "111-111.3 °C"
    }
}