{
    "cas_no": "3301-94-8",
    "key_name": "δ-Nonalactone",
    "cn_name": "丁位壬内酯;6-丁基四氢-2H-吡喃-2-酮;",
    "alternate_name": "2<em>H</em>-Pyran-2-one, 6-butyltetrahydro-;Nonanoic acid, 5-hydroxy-, δ-lactone;Nonanoic acid, 5-hydroxy-, lactone;6-Butyltetrahydro-2<em>H</em>-pyran-2-one;5-Hydroxynonanoic acid δ-lactone;δ-Nonalactone;δ-Butylvalerolactone;Nonan-1,5-olide;δ-Butyl-δ-valerolactone;5-Nonanolide;(±)-δ-Nonalactone;(<em>RS</em>)-δ-Nonalactone;δ-Nonanolactone",
    "duplicated_cas_no": "105140-26-9",
    "SMILES": "C(CCC)C1OC(=O)CCC1",
    "meta_data": {
        "InChI": "InChI=1S/C9H16O2/c1-2-3-5-8-6-4-7-9(10)11-8/h8H,2-7H2,1H3",
        "InChIKey": null,
        "Canonical SMILES": "O=C1OC(CCC1)CCCC",
        "Molecular Formula": "C<sub>9</sub>H<sub>16</sub>O<sub>2</sub>",
        "Molecular Mass": "156.22",
        "Boiling Point": "137-138 °C @ Press: 11 Torr"
    }
}