{
    "cas_no": "34846-64-5",
    "key_name": "3-Quinolinecarbonitrile",
    "cn_name": "3-氰基喹啉;",
    "alternate_name": "3-Quinolinecarbonitrile;3-Cyanoquinoline;NSC 44644",
    "duplicated_cas_no": "",
    "SMILES": "C(#N)C1=CC2=C(N=C1)C=CC=C2",
    "meta_data": {
        "InChI": "InChI=1S/C10H6N2/c11-6-8-5-9-3-1-2-4-10(9)12-7-8/h1-5,7H",
        "InChIKey": null,
        "Canonical SMILES": "N#CC1=CN=C2C=CC=CC2=C1",
        "Molecular Formula": "C<sub>10</sub>H<sub>6</sub>N<sub>2</sub>",
        "Molecular Mass": "154.17",
        "Melting Point": "108-110 °C"
    }
}