{
    "cas_no": "1445-08-5",
    "key_name": "2-Methyladenine",
    "cn_name": null,
    "alternate_name": "9<em>H</em>-Purin-6-amine, 2-methyl-;Adenine, 2-methyl-;1<em>H</em>-Purin-6-amine, 2-methyl-;2-Methyl-9<em>H</em>-purin-6-amine;2-Methyladenine;2-Methyl-6-aminopurine;SQ 23354;NSC 26364;2-Methyl-7<em>H</em>-purin-6-amine",
    "duplicated_cas_no": "936-23-2",
    "SMILES": "NC1=C2C(=NC(C)=N1)N=CN2",
    "meta_data": {
        "InChI": "InChI=1S/C6H7N5/c1-3-10-5(7)4-6(11-3)9-2-8-4/h2H,1H3,(H3,7,8,9,10,11)",
        "InChIKey": null,
        "Canonical SMILES": "N1=CNC2=C1N=C(N=C2N)C",
        "Molecular Formula": "C<sub>6</sub>H<sub>7</sub>N<sub>5</sub>",
        "Molecular Mass": "149.15",
        "Melting Point": "&gt;300 °C"
    }
}