{
    "cas_no": "15761-38-3",
    "key_name": "Boc-<span class=\"text-smallcaps\">L</span>-alanine",
    "cn_name": "N-叔丁氧羰基-L-丙氨酸;BOC-L-丙氨酸;",
    "alternate_name": "<span class=\"text-smallcaps\">L</span>-Alanine, <em>N</em>-[(1,1-dimethylethoxy)carbonyl]-;Alanine, <em>N</em>-carboxy-, <em>N</em>-<em>tert</em>-butyl ester, <span class=\"text-smallcaps\">L</span>-;<em>N</em>-[(1,1-Dimethylethoxy)carbonyl]-<span class=\"text-smallcaps\">L</span>-alanine;<em>N</em>-(<em>tert</em>-Butyloxycarbonyl)-<span class=\"text-smallcaps\">L</span>-alanine;(<em>tert</em>-Butoxycarbonyl)alanine;<em>N</em>-(<em>tert</em>-Butoxycarbonyl)alanine;<em>tert</em>-Butoxycarbonyl-<span class=\"text-smallcaps\">L</span>-alanine;(<em>tert</em>-Butyloxycarbonyl)-<span class=\"text-smallcaps\">L</span>-alanine;<em>N</em>-(<em>tert</em>-Butoxycarbonyl)-(<em>S</em>)-alanine;N-tert-Butyloxycarbonylalanine;(<em>S</em>)-2-(<em>N</em>-<em>tert</em>-Butoxycarbonyl)aminopropionic acid;<em>N</em>-<em>tert</em>-BOC-(<em>S</em>)-alanine;<em>N</em>-(<em>tert</em>-Butoxycarbonyl)-<span class=\"text-smallcaps\">L</span>-alanine;<em>N</em>-<em>t</em>-BOC-<span class=\"text-smallcaps\">L</span>-alanine;<em>N</em>-BOC-<span class=\"text-smallcaps\">L</span>-alanine;(2<em>S</em>)-2-[(<em>tert</em>-Butoxycarbonyl)amino]propanoic acid;(<em>S</em>)-2-[(<em>tert</em>-Butoxycarbonyl)amino]propionic acid;(<em>S</em>)-2-[(tert-butoxycarbonyl)amino]propionic acid;<em>N</em>-Boc-alanine;(<em>S</em>)-2-[(<em>tert</em>-Butoxycarbonyl)amino]propanoic acid;(2S)-2-<em>tert</em>-Butoxycarbonylaminopropanoic acid;Boc-<span class=\"text-smallcaps\">L</span>-alanine;(2S)-2-[(2-Methylpropan-2-yl)oxycarbonylamino]propanoic acid",
    "duplicated_cas_no": "90580-61-3;186665-28-1;207305-56-4;911484-43-0",
    "SMILES": "N(C(OC(C)(C)C)=O)[C@H](C(O)=O)C",
    "meta_data": {
        "InChI": "InChI=1S/C8H15NO4/c1-5(6(10)11)9-7(12)13-8(2,3)4/h5H,1-4H3,(H,9,12)(H,10,11)/t5-/m0/s1",
        "InChIKey": null,
        "Canonical SMILES": "O=C(OC(C)(C)C)NC(C(=O)O)C",
        "Molecular Formula": "C<sub>8</sub>H<sub>15</sub>NO<sub>4</sub>",
        "Molecular Mass": "189.21",
        "Melting Point": "82-83 °C"
    }
}