{
    "cas_no": "625-56-9",
    "key_name": "Chloromethyl acetate",
    "cn_name": "乙酸氯甲酯;氯甲基乙酸酯;",
    "alternate_name": "Methanol, 1-chloro-, 1-acetate;Methanol, chloro-, acetate;Chloromethyl acetate;Acetic acid, chloromethyl ester;Acetoxymethyl chloride;(Acetyloxy)methyl chloride",
    "duplicated_cas_no": "",
    "SMILES": "O(C(C)=O)CCl",
    "meta_data": {
        "InChI": "InChI=1S/C3H5ClO2/c1-3(5)6-2-4/h2H2,1H3",
        "InChIKey": null,
        "Canonical SMILES": "O=C(OCCl)C",
        "Molecular Formula": "C<sub>3</sub>H<sub>5</sub>ClO<sub>2</sub>",
        "Molecular Mass": "108.52",
        "Boiling Point": "116 °C",
        "Density": "1.194 g/cm³ @ Temp: 20 °C"
    }
}