{
    "cas_no": "6589-48-6",
    "key_name": "α-[(Cyclohexylamino)methyl]benzenemethanol",
    "cn_name": "2-环己基氨基-1-苯基乙醇;",
    "alternate_name": "Benzenemethanol, α-[(cyclohexylamino)methyl]-;Benzyl alcohol, α-[(cyclohexylamino)methyl]-;α-[(Cyclohexylamino)methyl]benzenemethanol;2-Cyclohexylamino-1-phenylethanol;<em>dl</em>-1-Phenyl-2-cyclohexylaminoethanol;(±)-S 35985-4;NSC 62916;2-(Cyclohexylamino)-1-phenylethan-1-ol",
    "duplicated_cas_no": "28143-92-2",
    "SMILES": "C(CNC1CCCCC1)(O)C2=CC=CC=C2",
    "meta_data": {
        "InChI": "InChI=1S/C14H21NO/c16-14(12-7-3-1-4-8-12)11-15-13-9-5-2-6-10-13/h1,3-4,7-8,13-16H,2,5-6,9-11H2",
        "InChIKey": null,
        "Canonical SMILES": "OC(C=1C=CC=CC1)CNC2CCCCC2",
        "Molecular Formula": "C<sub>14</sub>H<sub>21</sub>NO",
        "Molecular Mass": "219.32",
        "Boiling Point": "147 °C @ Press: 1 Torr",
        "Melting Point": "89 °C"
    }
}