{
    "cas_no": "125116-23-6",
    "key_name": "Metconazole",
    "cn_name": "羟菌唑;叶菌唑;WL 136184是其顺(IRS,55R)-异构体;(IRS,5RS;IRS,55SR)-5-(4-氯苄基)-2,2-二甲基-1-(1H-1,2,4;",
    "alternate_name": "Cyclopentanol, 5-[(4-chlorophenyl)methyl]-2,2-dimethyl-1-(1<em>H</em>-1,2,4-triazol-1-ylmethyl)-;5-[(4-Chlorophenyl)methyl]-2,2-dimethyl-1-(1<em>H</em>-1,2,4-triazol-1-ylmethyl)cyclopentanol;Metconazole;Caramba;Quash;Sunorg Pro;Tourney;Metlock, 5-[(4-chlorophenyl)methyl]-2,2-dimethyl-1-(1<em>H</em>-1,2,4-triazol-1-ylmethyl)-;Metlock;Dimetconazole;Work-up Flowable",
    "duplicated_cas_no": "",
    "SMILES": "C(C1(O)C(CC2=CC=C(Cl)C=C2)CCC1(C)C)N3C=NC=N3",
    "meta_data": {
        "InChI": "InChI=1S/C17H22ClN3O/c1-16(2)8-7-14(9-13-3-5-15(18)6-4-13)17(16,22)10-21-12-19-11-20-21/h3-6,11-12,14,22H,7-10H2,1-2H3",
        "InChIKey": null,
        "Canonical SMILES": "ClC1=CC=C(C=C1)CC2CCC(C)(C)C2(O)CN3N=CN=C3",
        "Molecular Formula": "C<sub>17</sub>H<sub>22</sub>ClN<sub>3</sub>O",
        "Molecular Mass": "319.83",
        "Boiling Point": "285 °C",
        "Melting Point": "111.5 °C"
    }
}