{
    "cas_no": "5005-36-7",
    "key_name": "α-Phenyl-2-pyridineacetonitrile",
    "cn_name": "alpha-(2-吡啶基)-苯乙腈;",
    "alternate_name": "2-Pyridineacetonitrile, α-phenyl-;α-Phenyl-2-pyridineacetonitrile;α-Phenyl-α-(2-pyridyl)acetonitrile;2-Phenyl-2-(2-pyridyl)acetonitrile;2-Pyridylphenylacetonitrile;Phenyl(pyridin-2-yl)acetonitrile;NSC 16276;2-Phenyl-2-(pyridin-2-yl)acetonitrile;2-Phenyl-2-pyridin-2-ylacetonitrile",
    "duplicated_cas_no": "",
    "SMILES": "C(C#N)(C1=CC=CC=C1)C2=CC=CC=N2",
    "meta_data": {
        "InChI": "InChI=1S/C13H10N2/c14-10-12(11-6-2-1-3-7-11)13-8-4-5-9-15-13/h1-9,12H",
        "InChIKey": null,
        "Canonical SMILES": "N#CC(C1=NC=CC=C1)C=2C=CC=CC2",
        "Molecular Formula": "C<sub>13</sub>H<sub>10</sub>N<sub>2</sub>",
        "Molecular Mass": "194.23",
        "Boiling Point": "150-155 °C @ Press: 0.5 Torr",
        "Melting Point": "88-89 °C"
    }
}