{
    "cas_no": "31828-68-9",
    "key_name": "<span class=\"text-smallcaps\">L</span>-Homocysteine thiolactone hydrochloride",
    "cn_name": "L-高半胱氨酸硫代内酯盐酸盐;",
    "alternate_name": "2(3<em>H</em>)-Thiophenone, 3-aminodihydro-, hydrochloride (1:1), (3<em>S</em>)-;2(3<em>H</em>)-Thiophenone, 3-aminodihydro-, hydrochloride, <span class=\"text-smallcaps\">L</span>-;2(3<em>H</em>)-Thiophenone, 3-aminodihydro-, hydrochloride, (<em>S</em>)-;2(3<em>H</em>)-Thiophenone, 3-aminodihydro-, hydrochloride, (3<em>S</em>)-;<span class=\"text-smallcaps\">L</span>-Homocysteine thiolactone hydrochloride;(<em>S</em>)-3-Aminodihydrothiophen-2(3<em>H</em>)-one hydrochloride",
    "duplicated_cas_no": "312960-91-1",
    "SMILES": "N[C@@H]1C(=O)SCC1.Cl",
    "meta_data": {
        "InChI": "InChI=1S/C4H7NOS.ClH/c5-3-1-2-7-4(3)6;/h3H,1-2,5H2;1H/t3-;/m0./s1",
        "InChIKey": null,
        "Canonical SMILES": "Cl.O=C1SCCC1N",
        "Molecular Formula": "C<sub>4</sub>H<sub>7</sub>NOS.ClH",
        "Molecular Mass": "",
        "Melting Point": "165-166 °C"
    }
}