{
    "cas_no": "3893-23-0",
    "key_name": "α-Cyclohexylbenzeneacetonitrile",
    "cn_name": "α-环己基苯乙腈;",
    "alternate_name": "Benzeneacetonitrile, α-cyclohexyl-;Cyclohexaneacetonitrile, α-phenyl-;α-Cyclohexylbenzeneacetonitrile;2-Cyclohexylphenylacetonitrile;2-Cyclohexyl-2-phenylacetonitrile;Cyclohexylphenylacetonitrile;α-Phenylcyclohexaneacetonitrile;α-Cyclohexylbenzyl cyanide;NSC 506",
    "duplicated_cas_no": "140926-17-6",
    "SMILES": "C(C#N)(C1CCCCC1)C2=CC=CC=C2",
    "meta_data": {
        "InChI": "InChI=1S/C14H17N/c15-11-14(12-7-3-1-4-8-12)13-9-5-2-6-10-13/h1,3-4,7-8,13-14H,2,5-6,9-10H2",
        "InChIKey": null,
        "Canonical SMILES": "N#CC(C=1C=CC=CC1)C2CCCCC2",
        "Molecular Formula": "C<sub>14</sub>H<sub>17</sub>N",
        "Molecular Mass": "199.29",
        "Boiling Point": "174-176 °C @ Press: 3 Torr",
        "Melting Point": "55-56 °C"
    }
}