{
    "cas_no": "13734-28-6",
    "key_name": "α-<em>tert</em>-Butoxycarbonyl-<span class=\"text-smallcaps\">L</span>-lysine",
    "cn_name": "N-alpha-BOC-L-赖氨酸;N-alpha-叔丁氧羰基-L-赖氨酸;",
    "alternate_name": "<span class=\"text-smallcaps\">L</span>-Lysine, <em>N</em><sup>2</sup>-[(1,1-dimethylethoxy)carbonyl]-;Lysine, <em>N</em><sup>2</sup>-carboxy-, <em>N</em><sup>2</sup>-<em>tert</em>-butyl ester, <span class=\"text-smallcaps\">L</span>-;<em>N</em><sup>2</sup>-[(1,1-Dimethylethoxy)carbonyl]-<span class=\"text-smallcaps\">L</span>-lysine;<em>N</em><sup>2</sup>-<em>tert</em>-Butoxycarbonyl-<span class=\"text-smallcaps\">L</span>-lysine;BOC-Lys-OH;α-<em>N</em>-<em>tert</em>-Butoxycarbonyl-<span class=\"text-smallcaps\">L</span>-lysine;α-<em>tert</em>-Butoxycarbonyl-<span class=\"text-smallcaps\">L</span>-lysine;<em>N</em><sup>α</sup>-BOC-<span class=\"text-smallcaps\">L</span>-lysine;NSC 343721;α-<em>N</em>-Boc-lysine;<em>N</em>-α-(<em>tert</em>-Butoxycarbonyl)-<span class=\"text-smallcaps\">L</span>-lysine;(<em>S</em>)-6-Amino-2-(<em>tert</em>-butoxycarbonylamino)hexanoic acid;<em>N</em>-<em>tert</em>-Butoxycarbonyllysine;N<sub>α</sub>-Boc-<span class=\"text-smallcaps\">L</span>-lysine;BOC-<span class=\"text-smallcaps\">L</span>-Lys-OH;(2S)-6-Amino-2-[[(<em>tert</em>-butoxy)carbonyl]amino]hexanoic acid;(2S)-6-Azaniumyl-2-[(2-methylpropan-2-yl)oxycarbonylamino]hexanoate;<em>N</em>-Boc-lysine",
    "duplicated_cas_no": "117457-87-1",
    "SMILES": "[C@H](NC(OC(C)(C)C)=O)(CCCCN)C(O)=O",
    "meta_data": {
        "InChI": "InChI=1S/C11H22N2O4/c1-11(2,3)17-10(16)13-8(9(14)15)6-4-5-7-12/h8H,4-7,12H2,1-3H3,(H,13,16)(H,14,15)/t8-/m0/s1",
        "InChIKey": null,
        "Canonical SMILES": "O=C(OC(C)(C)C)NC(C(=O)O)CCCCN",
        "Molecular Formula": "C<sub>11</sub>H<sub>22</sub>N<sub>2</sub>O<sub>4</sub>",
        "Molecular Mass": "246.30",
        "Melting Point": "195-196 °C"
    }
}