{
    "cas_no": "1271-51-8",
    "key_name": "Vinylferrocene",
    "cn_name": "乙烯基二茂铁;",
    "alternate_name": "Ferrocene, ethenyl-;Ferrocene, vinyl-;Iron, cyclopentadienyl(vinylcyclopentadienyl)-;Ethenylferrocene;Vinylferrocene;Ferrocenylethylene;Ferrocenylethene;2-(Ferrocenyl)ethene",
    "duplicated_cas_no": "",
    "SMILES": "C(=C)[C-]12[Fe+2]3456789([CH]1=[CH]3[CH]4=[CH]52)[CH-]%10[CH]6=[CH]7[CH]8=[CH]9%10",
    "meta_data": {
        "InChI": "InChI=1S/C7H7.C5H5.Fe/c1-2-7-5-3-4-6-7;1-2-4-5-3-1;/h2-6H,1H2;1-5H;/q2*-1;+2",
        "InChIKey": null,
        "Canonical SMILES": "C=C[C-]12[CH]3=[CH]4[CH]5=[CH]1[Fe+2]67894532[CH]=%10[CH]9=[CH]8[CH-]7[CH]%106",
        "Molecular Formula": "C<sub>12</sub>H<sub>12</sub>Fe",
        "Molecular Mass": "",
        "Boiling Point": "80-85 °C @ Press: 0.2 Torr",
        "Melting Point": "50-52 °C"
    }
}