{
    "cas_no": "603-11-2",
    "key_name": "3-Nitrophthalic acid",
    "cn_name": "3-硝基邻苯二甲酸;3-硝基-1,2-苯二羧酸;3-硝基酞酸;间硝基苯二甲酸;",
    "alternate_name": "1,2-Benzenedicarboxylic acid, 3-nitro-;Phthalic acid, 3-nitro-;3-Nitro-1,2-benzenedicarboxylic acid;3-Nitrophthalic acid;<em>m</em>-Nitrophthalic acid;<em>o</em>-Nitrophthalic acid;NSC 3120",
    "duplicated_cas_no": "46381-03-7",
    "SMILES": "C(O)(=O)C1=C(C(O)=O)C=CC=C1N(=O)=O",
    "meta_data": {
        "InChI": "InChI=1S/C8H5NO6/c10-7(11)4-2-1-3-5(9(14)15)6(4)8(12)13/h1-3H,(H,10,11)(H,12,13)",
        "InChIKey": null,
        "Canonical SMILES": "O=C(O)C1=CC=CC(=C1C(=O)O)N(=O)=O",
        "Molecular Formula": "C<sub>8</sub>H<sub>5</sub>NO<sub>6</sub>",
        "Molecular Mass": "211.13",
        "Melting Point": "214 °C (decomp)"
    }
}