{
    "cas_no": "112-84-5",
    "key_name": "Erucamide",
    "cn_name": "芥酸酰胺;",
    "alternate_name": "13-Docosenamide, (13<em>Z</em>)-;Erucamide;13-Docosenamide, (<em>Z</em>)-;(13<em>Z</em>)-13-Docosenamide;<em>cis</em>-13-Docosenamide;Erucic acid amide;Erucyl amide;Diamid L 200;Kemamide E;Adogen 58;Erucic amide;Armid E;Alflow P 10;Armoslip EPX;Crodamide ER;Loxamid E;Crodamide E;Armoslip E;Erucoyl amide;Kemamide E Ultra;Neutron S;Unislip 1753;Armoslip EXP;Alflow 10;Amide E;E 10;E 10 (amide);NewS;Fatty Amide E;Atmer SA 1753;Struktol TR 131;TEP BP-SL 1;RX 4515;Ampacet 10090;Chemstat HTSA 22;Proaid AC 18E;Atmer SA 1753FD;SA 1753FD;Lutamide ER;PEX-SLT 01;Atmer 1753;Chemstat HTSA 22-20M;WK 1890;Pinnacle 2530;Finawax ER;Kemamide E Ultrabead;MB-S 1519;Finawax E;L 300;L 300 (amide);CESA PPA 0050079;Loxiol E SPEZ P;TR 131;P 10;HC 102BF;E 828262;Kao Fatty Amide E;SL 05068PP;Crodamide ER-CH-BE;Chamide SEA;SHHY-A 003;CHMP E 50;SCC 88953;Innoslip E;Crodamide ER-CH-MB-SI;JT 1;JT 1 (amide);KT 0340;SAB 8068;Polyslip-E;ER-CH;AL 031;Crodamide ER-CH;AC 3 (antiblocking agent);AC 3;PAO 2558;Finawax SE;YBL-NR 001-2;BZPP 302;Crodamide ER-BE;CESA-slip PP 42161;201HK;Finaslip E;WYS 30;Crodamide ER-MB-GD",
    "duplicated_cas_no": "80399-99-1;93050-58-9;116749-29-2;2418524-10-2",
    "SMILES": "C(CCCC/C=C\\CCCCCCCC)CCCCCCC(N)=O",
    "meta_data": {
        "InChI": "InChI=1S/C22H43NO/c1-2-3-4-5-6-7-8-9-10-11-12-13-14-15-16-17-18-19-20-21-22(23)24/h9-10H,2-8,11-21H2,1H3,(H2,23,24)/b10-9-",
        "InChIKey": null,
        "Canonical SMILES": "O=C(N)CCCCCCCCCCCC=CCCCCCCCC",
        "Molecular Formula": "C<sub>22</sub>H<sub>43</sub>NO",
        "Molecular Mass": "337.58",
        "Melting Point": "75-80 °C"
    }
}