{
    "cas_no": "1000-05-1",
    "key_name": "1,1,3,3,5,5,7,7-Octamethyltetrasiloxane",
    "cn_name": null,
    "alternate_name": "Tetrasiloxane, 1,1,3,3,5,5,7,7-octamethyl-;1,1,3,3,5,5,7,7-Octamethyltetrasiloxane;Octamethyltetrasiloxane",
    "duplicated_cas_no": "",
    "SMILES": "O([Si](O[SiH](C)C)(C)C)[Si](O[SiH](C)C)(C)C",
    "meta_data": {
        "InChI": "InChI=1S/C8H26O3Si4/c1-12(2)9-14(5,6)11-15(7,8)10-13(3)4/h12-13H,1-8H3",
        "InChIKey": null,
        "Canonical SMILES": "O([SiH](C)C)[Si](O[Si](O[SiH](C)C)(C)C)(C)C",
        "Molecular Formula": "C<sub>8</sub>H<sub>26</sub>O<sub>3</sub>Si<sub>4</sub>",
        "Molecular Mass": "282.63",
        "Boiling Point": "169-170 °C",
        "Density": "0.863 g/cm³"
    }
}