{
    "cas_no": "8008-20-6",
    "key_name": "Kerosene",
    "cn_name": null,
    "alternate_name": "Kerosene;Kerosine (petroleum);Kerosine;Shell 140;Fuels, kerosine;Ink oil;AF 100 (pesticide);Avtur (pesticide);Avtur;Odorless Solvent 3440;Pegasol 3040;Bayol 35;Exxsol D 200/240;Escaid 110;Neochiozol;Escaid 100;Shellsol 2046;Bitumen Cutter;Nysolvin 75A;SX 7;SX 12;KO 30 (solvent);Parasol;P 878;Kedrul 212;Conoco 170E;Chiotekku SH;Chiotekku;Finalan 75;Deotomisol S;Solbrax Eco 255/285;Eneos Kerosene;RP 3;RP 3 (solvent);W-Kerosene;Magisol 52;Ketrul 211;TS 1 (petroleum);JP-A 1;Kixxol;Muplilkill;Kerosin;D 110;MSGS 60;HC 50 (solvent);HC 50;JP 7 (kerosene);JP 7;MeSH ID: D007648",
    "duplicated_cas_no": "111941-10-7;55465-93-5;63241-54-3",
    "SMILES": "",
    "meta_data": {
        "InChI": "",
        "InChIKey": null,
        "Canonical SMILES": "",
        "Molecular Formula": "Unspecified",
        "Molecular Mass": "",
        "Boiling Point": "175-325 °C",
        "Melting Point": "-20 °C",
        "Density": "~0.80 g/cm³ (approx)"
    }
}