{
    "uri": "substance/pt/8008206",
    "rn": "8008-20-6",
    "name": "Kerosene",
    "images": [],
    "inchi": "",
    "inchiKey": "",
    "smile": "",
    "canonicalSmile": "",
    "molecularFormula": "Unspecified",
    "molecularMass": "",
    "experimentalProperties": [
        {
            "name": "Boiling Point",
            "property": "175-325 °C",
            "sourceNumber": 1
        },
        {
            "name": "Melting Point",
            "property": "-20 °C",
            "sourceNumber": 2
        },
        {
            "name": "Density",
            "property": "~0.80 g/cm³ (approx)",
            "sourceNumber": 1
        }
    ],
    "propertyCitations": [
        {
            "docUri": "",
            "sourceNumber": 1,
            "source": "Hazardous Substances Data Bank data were obtained from the National Library of Medicine (US)"
        },
        {
            "docUri": "",
            "sourceNumber": 2,
            "source": "International Chemical Safety Cards data were obtained from the National Institute for Occupational Safety and Health (US)"
        }
    ],
    "synonyms": [
        "Kerosene",
        "Kerosine (petroleum)",
        "Kerosine",
        "Shell 140",
        "Fuels, kerosine",
        "Ink oil",
        "AF 100 (pesticide)",
        "Avtur (pesticide)",
        "Avtur",
        "Odorless Solvent 3440",
        "Pegasol 3040",
        "Bayol 35",
        "Exxsol D 200/240",
        "Escaid 110",
        "Neochiozol",
        "Escaid 100",
        "Shellsol 2046",
        "Bitumen Cutter",
        "Nysolvin 75A",
        "SX 7",
        "SX 12",
        "KO 30 (solvent)",
        "Parasol",
        "P 878",
        "Kedrul 212",
        "Conoco 170E",
        "Chiotekku SH",
        "Chiotekku",
        "Finalan 75",
        "Deotomisol S",
        "Solbrax Eco 255/285",
        "Eneos Kerosene",
        "RP 3",
        "RP 3 (solvent)",
        "W-Kerosene",
        "Magisol 52",
        "Ketrul 211",
        "TS 1 (petroleum)",
        "JP-A 1",
        "Kixxol",
        "Muplilkill",
        "Kerosin",
        "D 110",
        "MSGS 60",
        "HC 50 (solvent)",
        "HC 50",
        "JP 7 (kerosene)",
        "JP 7",
        "MeSH ID: D007648"
    ],
    "replacedRns": [
        "111941-10-7",
        "55465-93-5",
        "63241-54-3"
    ],
    "hasMolfile": false,
    "source": "https://commonchemistry.cas.org/detail?cas_rn=8008-20-6"
}