{
    "cas_no": "57248-88-1",
    "key_name": "Pamidronate disodium",
    "cn_name": "帕米膦酸钠;3-氨基-1-羟基丙亚基-1,1-二磷酸二钠;",
    "alternate_name": "Phosphonic acid, <em>P</em>,<em>P</em>′-(3-amino-1-hydroxypropylidene)bis-, sodium salt (1:2);Phosphonic acid, (3-amino-1-hydroxypropylidene)bis-, disodium salt;3-Amino-1-hydroxypropane-1,1-diphosphonic acid disodium salt;APD;Disodium 3-amino-1-hydroxypropane-1,1-diphosphonate;CGP 23339A;Disodium pamidronate;Aredia;Pamidronate disodium;CGP 23339AE;Aminomux;Pamidronic acid disodium salt;APD (pharmaceutical);Disodium [3-amino-1-hydroxy-1-(hydroxy-oxidophosphoryl)propyl]-hydroxyphosphinate;Pamimed",
    "duplicated_cas_no": "1159812-33-5",
    "SMILES": "C(P(=O)(O)O)(P(=O)(O)O)(CCN)O.[Na]",
    "meta_data": {
        "InChI": "InChI=1S/C3H11NO7P2.2Na/c4-2-1-3(5,12(6,7)8)13(9,10)11;;/h5H,1-2,4H2,(H2,6,7,8)(H2,9,10,11);;",
        "InChIKey": null,
        "Canonical SMILES": "[Na].O=P(O)(O)C(O)(CCN)P(=O)(O)O",
        "Molecular Formula": "C<sub>3</sub>H<sub>11</sub>NO<sub>7</sub>P<sub>2</sub>.2Na",
        "Molecular Mass": "",
        "Melting Point": "236-238 °C"
    }
}