{
    "cas_no": "608-37-7",
    "key_name": "(2<em>Z</em>)-2,3-Dibromo-2-butenedioic acid",
    "cn_name": "二溴马来酸;",
    "alternate_name": "2-Butenedioic acid, 2,3-dibromo-, (2<em>Z</em>)-;Maleic acid, dibromo-;2-Butenedioic acid, 2,3-dibromo-, (<em>Z</em>)-;(2<em>Z</em>)-2,3-Dibromo-2-butenedioic acid;Dibromomaleic acid",
    "duplicated_cas_no": "101036-44-6",
    "SMILES": "C(=C(\\C(O)=O)/Br)(\\C(O)=O)/Br",
    "meta_data": {
        "InChI": "InChI=1S/C4H2Br2O4/c5-1(3(7)8)2(6)4(9)10/h(H,7,8)(H,9,10)/b2-1-",
        "InChIKey": null,
        "Canonical SMILES": "O=C(O)C(Br)=C(Br)C(=O)O",
        "Molecular Formula": "C<sub>4</sub>H<sub>2</sub>Br<sub>2</sub>O<sub>4</sub>",
        "Molecular Mass": "273.86",
        "Melting Point": "126-129 °C"
    }
}