{
    "cas_no": "944129-07-1",
    "key_name": "<em>B</em>-(4-Chloro-2-fluoro-3-methoxyphenyl)boronic acid",
    "cn_name": null,
    "alternate_name": "Boronic acid, <em>B</em>-(4-chloro-2-fluoro-3-methoxyphenyl)-;<em>B</em>-(4-Chloro-2-fluoro-3-methoxyphenyl)boronic acid;4-Chloro-2-fluoro-3-methoxyphenylboronic acid",
    "duplicated_cas_no": "",
    "SMILES": "O(C)C1=C(F)C(B(O)O)=CC=C1Cl",
    "meta_data": {
        "InChI": "InChI=1S/C7H7BClFO3/c1-13-7-5(9)3-2-4(6(7)10)8(11)12/h2-3,11-12H,1H3",
        "InChIKey": null,
        "Canonical SMILES": "FC1=C(OC)C(Cl)=CC=C1B(O)O",
        "Molecular Formula": "C<sub>7</sub>H<sub>7</sub>BClFO<sub>3</sub>",
        "Molecular Mass": "204.39",
        "Melting Point": "236-238 °C"
    }
}