{
    "cas_no": "55290-63-6",
    "key_name": "Atractylodin",
    "cn_name": "苍术素;(E,E)-2-(1,7-壬二烯-3,5-二炔)呋喃;",
    "alternate_name": "Furan, 2-(1<em>E</em>,7<em>E</em>)-1,7-nonadiene-3,5-diyn-1-yl-;Atractylodin;Furan, 2-(1,7-nonadiene-3,5-diynyl)-, (<em>E</em>,<em>E</em>)-;Furan, 2-(1<em>E</em>,7<em>E</em>)-1,7-nonadiene-3,5-diynyl-;2-(1<em>E</em>,7<em>E</em>)-1,7-Nonadiene-3,5-diyn-1-ylfuran;Atractydin",
    "duplicated_cas_no": "",
    "SMILES": "C(=C/C#CC#C/C=C/C)\\C1=CC=CO1",
    "meta_data": {
        "InChI": "InChI=1S/C13H10O/c1-2-3-4-5-6-7-8-10-13-11-9-12-14-13/h2-3,8-12H,1H3/b3-2+,10-8+",
        "InChIKey": null,
        "Canonical SMILES": "C(C#CC=CC)#CC=CC=1OC=CC1",
        "Molecular Formula": "C<sub>13</sub>H<sub>10</sub>O",
        "Molecular Mass": "182.22",
        "Melting Point": "52 °C"
    }
}