{
    "cas_no": "42797-18-2",
    "key_name": "2-([1,1′-Biphenyl]-4-ylcarbonyl)benzoic acid",
    "cn_name": null,
    "alternate_name": "Benzoic acid, 2-([1,1′-biphenyl]-4-ylcarbonyl)-;2-([1,1′-Biphenyl]-4-ylcarbonyl)benzoic acid;<em>o</em>-(4-Phenylbenzoyl)benzoic acid;2-(4-Phenylbenzoyl)benzoic acid;<em>o</em>-Xenoylbenzoic acid;4′-Phenyl-2-benzoylbenzoic acid;NSC 75270;2-(4′-Phenylbenzoyl)benzoic acid;4-Phenylbenzoylbenzoic acid;2-(4-Biphenylylcarbonyl)benzoic acid",
    "duplicated_cas_no": "",
    "SMILES": "C(=O)(C1=C(C(O)=O)C=CC=C1)C2=CC=C(C=C2)C3=CC=CC=C3",
    "meta_data": {
        "InChI": "InChI=1S/C20H14O3/c21-19(17-8-4-5-9-18(17)20(22)23)16-12-10-15(11-13-16)14-6-2-1-3-7-14/h1-13H,(H,22,23)",
        "InChIKey": null,
        "Canonical SMILES": "O=C(O)C=1C=CC=CC1C(=O)C=2C=CC(=CC2)C=3C=CC=CC3",
        "Molecular Formula": "C<sub>20</sub>H<sub>14</sub>O<sub>3</sub>",
        "Molecular Mass": "302.32",
        "Melting Point": "231.5 °C"
    }
}