{
    "cas_no": "2188-68-3",
    "key_name": "1<em>H</em>-[1,3]Dioxolo[4,5-<em>j</em>]pyrrolo[3,2,1-<em>de</em>]phenanthridine-1,2-diol, 2,4,5,7,12b,12c-hexahydro-, hydrochloride (1:1), (1<em>S</em>,2<em>S</em>,12b<em>S</em>,12c<em>S</em>)-",
    "cn_name": "盐酸石蒜碱;",
    "alternate_name": "1<em>H</em>-[1,3]Dioxolo[4,5-<em>j</em>]pyrrolo[3,2,1-<em>de</em>]phenanthridine-1,2-diol, 2,4,5,7,12b,12c-hexahydro-, hydrochloride (1:1), (1<em>S</em>,2<em>S</em>,12b<em>S</em>,12c<em>S</em>)-;Lycoran-1α,2β-diol, 3,3a-didehydro-, hydrochloride;1<em>H</em>-[1,3]Dioxolo[4,5-<em>j</em>]pyrrolo[3,2,1-<em>de</em>]phenanthridine-1,2-diol, 2,4,5,7,12b,12c-hexahydro-, hydrochloride, (1<em>S</em>,2<em>S</em>,12b<em>S</em>,12c<em>S</em>)-;Galanthan-1,2-diol, 3,12-didehydro-9,10-[methylenebis(oxy)]-, hydrochloride, (1α,2β)-;Lycorine hydrochloride;Licorin hydrochloride",
    "duplicated_cas_no": "",
    "SMILES": "O[C@H]1[C@@]2([C@@]3(N(CC=4C2=CC5=C(C4)OCO5)CCC3=C[C@@H]1O)[H])[H].Cl",
    "meta_data": {
        "InChI": "InChI=1S/C16H17NO4.ClH/c18-11-3-8-1-2-17-6-9-4-12-13(21-7-20-12)5-10(9)14(15(8)17)16(11)19;/h3-5,11,14-16,18-19H,1-2,6-7H2;1H/t11-,14-,15+,16+;/m0./s1",
        "InChIKey": null,
        "Canonical SMILES": "Cl.OC1C=C2CCN3CC4=CC=5OCOC5C=C4C(C1O)C23",
        "Molecular Formula": "C<sub>16</sub>H<sub>17</sub>NO<sub>4</sub>.ClH",
        "Molecular Mass": "",
        "Melting Point": "206 °C"
    }
}