{
    "cas_no": "24621-73-6",
    "key_name": "4-Chloro-1<em>H</em>-indole-2-carboxylic acid",
    "cn_name": "4-氯吲哚-2-甲酸;",
    "alternate_name": "1<em>H</em>-Indole-2-carboxylic acid, 4-chloro-;Indole-2-carboxylic acid, 4-chloro-;4-Chloro-1<em>H</em>-indole-2-carboxylic acid;4-Chloroindole-2-carboxylic acid;NSC 148347",
    "duplicated_cas_no": "",
    "SMILES": "ClC1=C2C(NC(C(O)=O)=C2)=CC=C1",
    "meta_data": {
        "InChI": "InChI=1S/C9H6ClNO2/c10-6-2-1-3-7-5(6)4-8(11-7)9(12)13/h1-4,11H,(H,12,13)",
        "InChIKey": null,
        "Canonical SMILES": "O=C(O)C1=CC=2C(Cl)=CC=CC2N1",
        "Molecular Formula": "C<sub>9</sub>H<sub>6</sub>ClNO<sub>2</sub>",
        "Molecular Mass": "195.60",
        "Melting Point": "259-260 °C"
    }
}