{
    "cas_no": "770-05-8",
    "key_name": "(±)-Octopamine hydrochloride",
    "cn_name": "章胺盐酸盐;1-(4-羟基苯基)-2-氨基乙醇盐酸盐;",
    "alternate_name": "Benzenemethanol, α-(aminomethyl)-4-hydroxy-, hydrochloride (1:1);Benzyl alcohol, α-(aminomethyl)-<em>p</em>-hydroxy-, hydrochloride, (±)-;Benzenemethanol, α-(aminomethyl)-4-hydroxy-, hydrochloride, (±)-;Benzenemethanol, α-(aminomethyl)-4-hydroxy-, hydrochloride;<em>dl</em>-Octopamine hydrochloride;(±)-Octopamine hydrochloride;<span class=\"text-smallcaps\">D</smallcap><smallcap>L</span>-2-Amino-1-(4-hydroxyphenyl)ethanol hydrochloride;<span class=\"text-smallcaps\">D</smallcap><smallcap>L</span>-Octopamine hydrochloride;(±)-<em>p</em>-Octopamaine hydrochloride;Octopamine hydrochloride;2-Amino-1-(4-hydroxyphenyl)ethanol hydrochloride;Epirenor;Norfen;NSC 108685;4-(2-Amino-1-hydroxyethyl)phenol hydrochloride;M 790",
    "duplicated_cas_no": "4502-14-1",
    "SMILES": "C(CN)(O)C1=CC=C(O)C=C1.Cl",
    "meta_data": {
        "InChI": "InChI=1S/C8H11NO2.ClH/c9-5-8(11)6-1-3-7(10)4-2-6;/h1-4,8,10-11H,5,9H2;1H",
        "InChIKey": null,
        "Canonical SMILES": "Cl.OC1=CC=C(C=C1)C(O)CN",
        "Molecular Formula": "C<sub>8</sub>H<sub>11</sub>NO<sub>2</sub>.ClH",
        "Molecular Mass": "",
        "Melting Point": "170 °C (decomp)"
    }
}