{
    "cas_no": "18865-74-2",
    "key_name": "Tetrakis(2,2,6,6-tetramethylheptane-3,5-dionato)zirconium",
    "cn_name": "四(2,2,6,6-四甲基-3,5-庚二酸)锆;",
    "alternate_name": "Zirconium, tetrakis(2,2,6,6-tetramethyl-3,5-heptanedionato-κ<em>O</em><sup>3</sup>,κ<em>O</em><sup>5</sup>)-;Zirconium, tetrakis(2,2,6,6-tetramethyl-3,5-heptanedionato)-;Zirconium, tetrakis(2,2,6,6-tetramethyl-3,5-heptanedionato-<em>O</em>,<em>O</em>′)-;Zirconium, tetrakis(2,2,6,6-tetramethyl-3,5-heptanedionato-κ<em>O</em>,κ<em>O</em>′)-;3,5-Heptanedione, 2,2,6,6-tetramethyl-, zirconium complex;Tetrakis(2,2,6,6-tetramethyl-3,5-heptanedionato-κ<em>O</em><sup>3</sup>,κ<em>O</em><sup>5</sup>)zirconium;Tetrakis(dipivaloylmethanato)zirconium;Zirconium tetrakis(dipivaloylmethane);Tetrakis(2,2,6,6-tetramethylheptane-3,5-dionato)zirconium;Zirconium tetra(2,2,6,6-tetramethylheptanedioate);Zirconium tetrakis(dipivaloylmethanate);NSC 174883;Zirconium tetrakis(dipivaloylmethanato);Tetrakis(2,2,6,6-tetramethyl-3,5-heptanedionato)zirconium(IV);Zirconium tetrakis(2,2,6,6-tetramethyl-3,5-heptanedionate)",
    "duplicated_cas_no": "1159207-84-7",
    "SMILES": "C(C)(C)(C)C1=O[Zr+4]234(O=C(C(C)(C)C)[CH-]C(C(C)(C)C)=O2)(O=C(C(C)(C)C)[CH-]C(C(C)(C)C)=O3)(O=C(C(C)(C)C)[CH-]C(C(C)(C)C)=O4)O=C(C(C)(C)C)[CH-]1",
    "meta_data": {
        "InChI": "InChI=1S/4C11H19O2.Zr/c4*1-10(2,3)8(12)7-9(13)11(4,5)6;/h4*7H,1-6H3;/q4*-1;+4",
        "InChIKey": null,
        "Canonical SMILES": "O1=C([CH-]C(=O[Zr+4]1234(O=C([CH-]C(=O2)C(C)(C)C)C(C)(C)C)(O=C([CH-]C(=O3)C(C)(C)C)C(C)(C)C)O=C([CH-]C(=O4)C(C)(C)C)C(C)(C)C)C(C)(C)C)C(C)(C)C",
        "Molecular Formula": "C<sub>44</sub>H<sub>76</sub>O<sub>8</sub>Zr",
        "Molecular Mass": "",
        "Melting Point": "192 °C (sublm)"
    }
}