{
    "cas_no": "16632-21-6",
    "key_name": "6-Methyl-5-nitro-2,4(1<em>H</em>,3<em>H</em>)-pyrimidinedione",
    "cn_name": "2,4-二羟基-6-甲基-5-硝基嘧啶;5-硝基-6-甲基尿嘧啶;",
    "alternate_name": "2,4(1<em>H</em>,3<em>H</em>)-Pyrimidinedione, 6-methyl-5-nitro-;Uracil, 6-methyl-5-nitro-;6-Methyl-5-nitro-2,4(1<em>H</em>,3<em>H</em>)-pyrimidinedione;5-Nitro-6-methyluracil;6-Methyl-5-nitrouracil;2,4-Dihydroxy-6-methyl-5-nitropyrimidine;NSC 40201;2,4-Dihydroxy-5-nitro-6-methylpyrimidine",
    "duplicated_cas_no": "",
    "SMILES": "N(=O)(=O)C1=C(C)NC(=O)NC1=O",
    "meta_data": {
        "InChI": "InChI=1S/C5H5N3O4/c1-2-3(8(11)12)4(9)7-5(10)6-2/h1H3,(H2,6,7,9,10)",
        "InChIKey": null,
        "Canonical SMILES": "O=C1NC(=O)C(=C(N1)C)N(=O)=O",
        "Molecular Formula": "C<sub>5</sub>H<sub>5</sub>N<sub>3</sub>O<sub>4</sub>",
        "Molecular Mass": "171.11",
        "Melting Point": "290 °C (decomp)"
    }
}