{
    "cas_no": "59578-63-1",
    "key_name": "4-[(Phenylmethyl)amino]-1-butanol",
    "cn_name": "4-苯氨-1-丁醇;",
    "alternate_name": "1-Butanol, 4-[(phenylmethyl)amino]-;1-Butanol, 4-benzylamino-;4-[(Phenylmethyl)amino]-1-butanol;4-(Benzylamino)butan-1-ol;<em>N</em>-Benzyl-4-butanolamine;Benzyl(4-hydroxybutyl)amine",
    "duplicated_cas_no": "",
    "SMILES": "C(NCCCCO)C1=CC=CC=C1",
    "meta_data": {
        "InChI": "InChI=1S/C11H17NO/c13-9-5-4-8-12-10-11-6-2-1-3-7-11/h1-3,6-7,12-13H,4-5,8-10H2",
        "InChIKey": null,
        "Canonical SMILES": "OCCCCNCC=1C=CC=CC1",
        "Molecular Formula": "C<sub>11</sub>H<sub>17</sub>NO",
        "Molecular Mass": "179.26",
        "Boiling Point": "120-125 °C @ Press: 0.6 Torr"
    }
}