{
    "cas_no": "14346-19-1",
    "key_name": "3-Amino-5-nitro-2,1-benzisothiazole",
    "cn_name": "3-氨基-5-硝基苯并异噻唑;",
    "alternate_name": "2,1-Benzisothiazol-3-amine, 5-nitro-;2,1-Benzisothiazole, 3-amino-5-nitro-;5-Nitro-2,1-benzisothiazol-3-amine;3-Amino-5-nitro-2,1-benzisothiazole;3-Amino-5-nitrobenz[<em>c</em>]isothiazole;3-Amino-5-nitro-2,1-benzoisothiazole",
    "duplicated_cas_no": "",
    "SMILES": "NC1=C2C(C=CC(N(=O)=O)=C2)=NS1",
    "meta_data": {
        "InChI": "InChI=1S/C7H5N3O2S/c8-7-5-3-4(10(11)12)1-2-6(5)9-13-7/h1-3H,8H2",
        "InChIKey": null,
        "Canonical SMILES": "O=N(=O)C=1C=CC2=NSC(N)=C2C1",
        "Molecular Formula": "C<sub>7</sub>H<sub>5</sub>N<sub>3</sub>O<sub>2</sub>S",
        "Molecular Mass": "195.20",
        "Melting Point": "&gt;300 °C"
    }
}