{
    "cas_no": "1115-47-5",
    "key_name": "<em>N</em>-Acetylmethionine",
    "cn_name": "N-乙酰-DL-蛋氨酸;",
    "alternate_name": "Methionine, <em>N</em>-acetyl-;Methionine, <em>N</em>-acetyl-, <span class=\"text-smallcaps\">DL</span>-;<span class=\"text-smallcaps\">DL</span>-Methionine, <em>N</em>-acetyl-;<em>N</em>-Acetylmethionine;<em>N</em>-Acetyl-<span class=\"text-smallcaps\">DL</span>-methionine;Acetyl-<span class=\"text-smallcaps\">DL</span>-methionine;<span class=\"text-smallcaps\">DL</span>-<em>N</em>-acetylmethionine;NSC 7633;2-Acetylamino-4-methylsulfanyl-butyric acid;2-Acetamido-4-(methylsulfanyl)butanoic acid;2-Acetamido-4-methylsulfanylbutanoic acid",
    "duplicated_cas_no": "25129-27-5",
    "SMILES": "C(NC(C)=O)(C(O)=O)CCSC",
    "meta_data": {
        "InChI": "InChI=1S/C7H13NO3S/c1-5(9)8-6(7(10)11)3-4-12-2/h6H,3-4H2,1-2H3,(H,8,9)(H,10,11)",
        "InChIKey": null,
        "Canonical SMILES": "O=C(O)C(NC(=O)C)CCSC",
        "Molecular Formula": "C<sub>7</sub>H<sub>13</sub>NO<sub>3</sub>S",
        "Molecular Mass": "191.25",
        "Melting Point": "111-113 °C"
    }
}