{
    "cas_no": "13921-90-9",
    "key_name": "(+)-3-Amino-3-phenylpropanoic acid",
    "cn_name": "(R)-3-氨基-3-苯基丙酸;",
    "alternate_name": "Benzenepropanoic acid, β-amino-, (β<em>R</em>)-;Hydrocinnamic acid, β-amino-, <span class=\"text-smallcaps\">L</span>-;Benzenepropanoic acid, β-amino-, (<em>R</em>)-;(β<em>R</em>)-β-Aminobenzenepropanoic acid;<span class=\"text-smallcaps\">L</span>-β-Phenyl-β-alanine;<span class=\"text-smallcaps\">L</span>-3-Amino-3-phenylpropionic acid;(<em>R</em>)-3-Amino-3-phenylpropionic acid;(+)-3-Amino-3-phenylpropanoic acid;(<em>R</em>)-3-Amino-3-phenylpropanoic acid;(<em>R</em>)-β-Phenylalanine;(R)-3-Phenyl-β-alanine;(3R)-3-Amino-3-phenylpropanoic acid",
    "duplicated_cas_no": "",
    "SMILES": "[C@H](CC(O)=O)(N)C1=CC=CC=C1",
    "meta_data": {
        "InChI": "InChI=1S/C9H11NO2/c10-8(6-9(11)12)7-4-2-1-3-5-7/h1-5,8H,6,10H2,(H,11,12)/t8-/m1/s1",
        "InChIKey": null,
        "Canonical SMILES": "O=C(O)CC(N)C=1C=CC=CC1",
        "Molecular Formula": "C<sub>9</sub>H<sub>11</sub>NO<sub>2</sub>",
        "Molecular Mass": "165.19",
        "Melting Point": "242-246 °C"
    }
}