{
    "cas_no": "6205-69-2",
    "key_name": "β-<span class=\"text-smallcaps\">D</span>-Glucopyranosyl azide, 2-(acetylamino)-2-deoxy-, 3,4,6-triacetate",
    "cn_name": "2-乙酰氨基-2-脱氧-β-D-吡喃葡萄糖叠氮3,4,6-甘油酯;",
    "alternate_name": "β-<span class=\"text-smallcaps\">D</span>-Glucopyranosyl azide, 2-(acetylamino)-2-deoxy-, 3,4,6-triacetate;Glucopyranosyl azide, 2-acetamido-2-deoxy-, 3,4,6-triacetate, β-<span class=\"text-smallcaps\">D</span>-;Glucopyranosyl azide, 2-acetamido-2-deoxy-, triacetate;2-Acetamido-2-deoxy-3,4,6-tri-<em>O</em>-acetyl-β-<span class=\"text-smallcaps\">D</span>-glucopyranosyl azide;2-Acetamido-3,4,6-tri-<em>O</em>-acetyl-2-deoxy-β-<span class=\"text-smallcaps\">D</span>-glucopyranosyl azide",
    "duplicated_cas_no": "",
    "SMILES": "O(C(C)=O)[C@H]1[C@H](OC(C)=O)[C@@H](COC(C)=O)O[C@@H](N=[N+]=[N-])[C@@H]1NC(C)=O",
    "meta_data": {
        "InChI": "InChI=1S/C14H20N4O8/c1-6(19)16-11-13(25-9(4)22)12(24-8(3)21)10(5-23-7(2)20)26-14(11)17-18-15/h10-14H,5H2,1-4H3,(H,16,19)/t10-,11-,12-,13-,14-/m1/s1",
        "InChIKey": null,
        "Canonical SMILES": "[N-]=[N+]=NC1OC(COC(=O)C)C(OC(=O)C)C(OC(=O)C)C1NC(=O)C",
        "Molecular Formula": "C<sub>14</sub>H<sub>20</sub>N<sub>4</sub>O<sub>8</sub>",
        "Molecular Mass": "",
        "Melting Point": "160-161 °C (decomp)"
    }
}