{
    "cas_no": "1191-16-8",
    "key_name": "Prenyl acetate",
    "cn_name": "梨醇酯;3,3-二甲基烯丙基乙酸酯;3-甲基-2-丁烯-1-醇乙酸酯;3-甲基-2-丁烯醋酸酯;2-异戊烯乙酸酯;",
    "alternate_name": "2-Buten-1-ol, 3-methyl-, 1-acetate;2-Buten-1-ol, 3-methyl-, acetate;3-Methyl-2-buten-1-ol acetate;3-Methyl-2-butenyl acetate;Prenyl acetate;1-Acetoxy-3-methyl-2-butene;3,3-Dimethylallyl acetate;γ,γ-Dimethylallyl acetate;Dimethylallyl acetate;Isopent-2-enyl acetate;3-Methyl-2-buten-1-yl acetate;3-Methyl-1-acetoxy-2-butene;Acetic acid 3-methyl-2-butenyl ester;2-Methyl-4-acetyloxy-2-butene",
    "duplicated_cas_no": "",
    "SMILES": "C(C=C(C)C)OC(C)=O",
    "meta_data": {
        "InChI": "InChI=1S/C7H12O2/c1-6(2)4-5-9-7(3)8/h4H,5H2,1-3H3",
        "InChIKey": null,
        "Canonical SMILES": "O=C(OCC=C(C)C)C",
        "Molecular Formula": "C<sub>7</sub>H<sub>12</sub>O<sub>2</sub>",
        "Molecular Mass": "128.17",
        "Boiling Point": "149-151 °C",
        "Density": "0.9169 g/cm³ @ Temp: 20 °C"
    }
}