{
    "cas_no": "5080-50-2",
    "key_name": "Acetyl <span class=\"text-smallcaps\">L</span>-carnitine hydrochloride",
    "cn_name": "O-乙酰基-L-肉碱盐酸盐;2-乙酰氧基-3-三甲铵基丁酸氯化物;",
    "alternate_name": "1-Propanaminium, 2-(acetyloxy)-3-carboxy-<em>N</em>,<em>N</em>,<em>N</em>-trimethyl-, chloride (1:1), (2<em>R</em>)-;Ammonium, (3-carboxy-2-hydroxypropyl)trimethyl-, chloride, acetate, (-)-;1-Propanaminium, 2-(acetyloxy)-3-carboxy-<em>N</em>,<em>N</em>,<em>N</em>-trimethyl-, chloride, (<em>R</em>)-;1-Propanaminium, 2-(acetyloxy)-3-carboxy-<em>N</em>,<em>N</em>,<em>N</em>-trimethyl-, chloride, (2<em>R</em>)-;<em>O</em>-Acetylcarnitine hydrochloride;Acetylcarnitine chloride;ST 200;<span class=\"text-smallcaps\">L</span>-Acetylcarnitine chloride;Acetyl <span class=\"text-smallcaps\">L</span>-carnitine hydrochloride;Normobren;Branigen;Levacecarnine hydrochloride;<em>l</em>-Acetylcarnitine hydrochloride;Zibren",
    "duplicated_cas_no": "4326-58-3;33661-41-5;106089-15-0;154270-87-8;169134-76-3;172669-46-4;1875117-29-5",
    "SMILES": "C([C@@H](CC(O)=O)OC(C)=O)[N+](C)(C)C.[Cl-]",
    "meta_data": {
        "InChI": "InChI=1S/C9H17NO4.ClH/c1-7(11)14-8(5-9(12)13)6-10(2,3)4;/h8H,5-6H2,1-4H3;1H/t8-;/m1./s1",
        "InChIKey": null,
        "Canonical SMILES": "[Cl-].O=C(OC(CC(=O)O)C[N+](C)(C)C)C",
        "Molecular Formula": "C<sub>9</sub>H<sub>18</sub>NO<sub>4</sub>.Cl",
        "Molecular Mass": "",
        "Melting Point": "187 °C (decomp)"
    }
}