{
    "cas_no": "443882-99-3",
    "key_name": "2-Chloro-1-[(3-fluorophenyl)methoxy]-4-nitrobenzene",
    "cn_name": "3-氯-4-(3-氟苄氧基)硝基苯;2-氯-1-(3-氟苄氧基)-4-硝基苯;",
    "alternate_name": "Benzene, 2-chloro-1-[(3-fluorophenyl)methoxy]-4-nitro-;2-Chloro-1-[(3-fluorophenyl)methoxy]-4-nitrobenzene;2-Chloro-1-(3-fluorobenzyloxy)-4-nitrobenzene;1-Fluoro-3-[(4-nitro-2-chlorophenoxy)methyl]benzene;3-Chloro-4-[(3-fluorobenzyl)oxy]nitrobenzene;4-(3-Fluorobenzyloxy)-3-chloronitrobenzene",
    "duplicated_cas_no": "",
    "SMILES": "O(CC1=CC(F)=CC=C1)C2=C(Cl)C=C(N(=O)=O)C=C2",
    "meta_data": {
        "InChI": "InChI=1S/C13H9ClFNO3/c14-12-7-11(16(17)18)4-5-13(12)19-8-9-2-1-3-10(15)6-9/h1-7H,8H2",
        "InChIKey": null,
        "Canonical SMILES": "O=N(=O)C1=CC=C(OCC=2C=CC=C(F)C2)C(Cl)=C1",
        "Molecular Formula": "C<sub>13</sub>H<sub>9</sub>ClFNO<sub>3</sub>",
        "Molecular Mass": "281.67",
        "Melting Point": "90-96 °C"
    }
}