{
    "cas_no": "35730-09-7",
    "key_name": "2,5-Difluorobenzoyl chloride",
    "cn_name": "2,5-二氟苯甲酰氯;",
    "alternate_name": "Benzoyl chloride, 2,5-difluoro-;2,5-Difluorobenzoyl chloride",
    "duplicated_cas_no": "",
    "SMILES": "C(Cl)(=O)C1=C(F)C=CC(F)=C1",
    "meta_data": {
        "InChI": "InChI=1S/C7H3ClF2O/c8-7(11)5-3-4(9)1-2-6(5)10/h1-3H",
        "InChIKey": null,
        "Canonical SMILES": "O=C(Cl)C1=CC(F)=CC=C1F",
        "Molecular Formula": "C<sub>7</sub>H<sub>3</sub>ClF<sub>2</sub>O",
        "Molecular Mass": "176.55",
        "Boiling Point": "74-78 °C @ Press: 15 Torr",
        "Melting Point": "73-74 °C"
    }
}