{
    "cas_no": "5540-60-3",
    "key_name": "<em>N</em>-(4-Chloro-3-nitrophenyl)acetamide",
    "cn_name": "N-(4-氯-3-硝基苯基)乙酰胺;间硝基对氯乙酰苯胺;",
    "alternate_name": "Acetamide, <em>N</em>-(4-chloro-3-nitrophenyl)-;Acetanilide, 4′-chloro-3′-nitro-;<em>N</em>-(4-Chloro-3-nitrophenyl)acetamide;1-Acetylamino-4-chloro-3-nitrobenzene;4′-Chloro-3′-nitroacetanilide",
    "duplicated_cas_no": "",
    "SMILES": "N(C(C)=O)C1=CC(N(=O)=O)=C(Cl)C=C1",
    "meta_data": {
        "InChI": "InChI=1S/C8H7ClN2O3/c1-5(12)10-6-2-3-7(9)8(4-6)11(13)14/h2-4H,1H3,(H,10,12)",
        "InChIKey": null,
        "Canonical SMILES": "O=C(NC1=CC=C(Cl)C(=C1)N(=O)=O)C",
        "Molecular Formula": "C<sub>8</sub>H<sub>7</sub>ClN<sub>2</sub>O<sub>3</sub>",
        "Molecular Mass": "214.61",
        "Melting Point": "147-148 °C"
    }
}