{
    "cas_no": "498-07-7",
    "key_name": "Levoglucosan",
    "cn_name": null,
    "alternate_name": "β-<span class=\"text-smallcaps\">D</span>-Glucopyranose, 1,6-anhydro-;Levoglucosan;<span class=\"text-smallcaps\">D</span>-Glucose, 1,6-anhydro-;1,6-Anhydro-β-<span class=\"text-smallcaps\">D</span>-glucopyranose;6,8-Dioxabicyclo[3.2.1]octane, β-<span class=\"text-smallcaps\">D</span>-glucopyranose deriv.;Leucoglucosan;1,6-Anhydro-β-<span class=\"text-smallcaps\">D</span>-glucose;1,6-Anhydroglucose;1,6-Anhydro-<span class=\"text-smallcaps\">D</span>-glucose;NSC 46243;1,6-Anhydro-<span class=\"text-smallcaps\">D</span>-glucopyranoside",
    "duplicated_cas_no": "112602-30-9;1220971-71-0",
    "SMILES": "O[C@@H]1[C@@]2(O[C@@](OC2)([C@H](O)[C@H]1O)[H])[H]",
    "meta_data": {
        "InChI": "InChI=1S/C6H10O5/c7-3-2-1-10-6(11-2)5(9)4(3)8/h2-9H,1H2/t2-,3-,4+,5-,6-/m1/s1",
        "InChIKey": null,
        "Canonical SMILES": "OC1C(O)C2OCC(O2)C1O",
        "Molecular Formula": "C<sub>6</sub>H<sub>10</sub>O<sub>5</sub>",
        "Molecular Mass": "162.14",
        "Melting Point": "183 °C",
        "Density": "1.688 g/cm³ (liquid)"
    }
}