{
    "cas_no": "50670-50-3",
    "key_name": "4′-Methyl[1,1′-biphenyl]-4-carbonitrile",
    "cn_name": "4-氰基-4\"-甲基联苯;",
    "alternate_name": "[1,1′-Biphenyl]-4-carbonitrile, 4′-methyl-;4′-Methyl[1,1′-biphenyl]-4-carbonitrile;4-Cyano-4′-methylbiphenyl;CB 1 (liquid crystal);CB 1;4′-Cyano-4-methylbiphenyl;4-Methyl-4′-cyanobiphenyl;4-(4-Methylphenyl)benzonitrile;4-(<em>p</em>-Tolyl)benzonitrile;4-(4-Tolyl)benzonitrile;4′-Methylbiphenyl-4-carbonitrile;4-Cyano-4′-methyl-1,1′-biphenyl;4′-Methyl-1,1′-biphenyl-4-ylcarbonitrile",
    "duplicated_cas_no": "",
    "SMILES": "C(#N)C1=CC=C(C=C1)C2=CC=C(C)C=C2",
    "meta_data": {
        "InChI": "InChI=1S/C14H11N/c1-11-2-6-13(7-3-11)14-8-4-12(10-15)5-9-14/h2-9H,1H3",
        "InChIKey": null,
        "Canonical SMILES": "N#CC=1C=CC(=CC1)C2=CC=C(C=C2)C",
        "Molecular Formula": "C<sub>14</sub>H<sub>11</sub>N",
        "Molecular Mass": "193.24",
        "Melting Point": "110-112 °C"
    }
}