{
    "cas_no": "1668-10-6",
    "key_name": "Glycinamide hydrochloride",
    "cn_name": "甘氨酰胺盐酸盐;",
    "alternate_name": "Acetamide, 2-amino-, hydrochloride (1:1);Glycinamide, monohydrochloride;Acetamide, 2-amino-, monohydrochloride;Glycinamide hydrochloride;Glycine amide hydrochloride;2-Aminoacetamide hydrochloride;Aminoacetamide hydrochloride;Glycinamine hydrochloride",
    "duplicated_cas_no": "",
    "SMILES": "C(CN)(N)=O.Cl",
    "meta_data": {
        "InChI": "InChI=1S/C2H6N2O.ClH/c3-1-2(4)5;/h1,3H2,(H2,4,5);1H",
        "InChIKey": null,
        "Canonical SMILES": "Cl.O=C(N)CN",
        "Molecular Formula": "C<sub>2</sub>H<sub>6</sub>N<sub>2</sub>O.ClH",
        "Molecular Mass": "",
        "Melting Point": "203-204 °C (decomp)"
    }
}