{
    "cas_no": "51605-32-4",
    "key_name": "1<em>H</em>-Imidazole-5-carboxylic acid, 4-methyl-, ethyl ester",
    "cn_name": "5-甲基-1H-4-咪唑酸乙酯;5-甲基-1H-咪唑-4-羧酸乙酯;",
    "alternate_name": "1<em>H</em>-Imidazole-5-carboxylic acid, 4-methyl-, ethyl ester;1<em>H</em>-Imidazole-4-carboxylic acid, 5-methyl-, ethyl ester;Imidazole-4(<em>or</em> 5)-carboxylic acid, 5(<em>or</em> 4)-methyl-, ethyl ester;4-Carbethoxy-5-methylimidazole;Ethyl 5-methyl-4-imidazolecarboxylate;Ethyl 5-methyl-1<em>H</em>-imidazole-4-carboxylate;Ethyl 4-methylimidazole-5-carboxylate;5-Ethoxycarbonyl-4-methylimidazole;5-Methyl-4-ethoxycarbonylimidazole;Ethyl 4-methyl-5-imidazolcarboxylate;NSC 195976;Ethyl 4-methyl-1<em>H</em>-imidazole-5-carboxylate;5-Methyl-3<em>H</em>-imidazole-4-carboxylic acid ethyl ester;4-Methyl-1<em>H</em>-imidazole-5-carboxylic acid ethyl ester;5-Methyl-1<em>H</em>-imidazole-4-carboxylic acid ethyl ester",
    "duplicated_cas_no": "",
    "SMILES": "C(OCC)(=O)C1=C(C)N=CN1",
    "meta_data": {
        "InChI": "InChI=1S/C7H10N2O2/c1-3-11-7(10)6-5(2)8-4-9-6/h4H,3H2,1-2H3,(H,8,9)",
        "InChIKey": null,
        "Canonical SMILES": "O=C(OCC)C=1NC=NC1C",
        "Molecular Formula": "C<sub>7</sub>H<sub>10</sub>N<sub>2</sub>O<sub>2</sub>",
        "Molecular Mass": "154.17",
        "Melting Point": "204-205 °C"
    }
}