{
    "cas_no": "38335-24-9",
    "key_name": "4-Nitro-α-oxobenzenepropanoic acid",
    "cn_name": null,
    "alternate_name": "Benzenepropanoic acid, 4-nitro-α-oxo-;Pyruvic acid, (<em>p</em>-nitrophenyl)-;4-Nitro-α-oxobenzenepropanoic acid;NSC 28690;(4-Nitrophenyl)pyruvic acid",
    "duplicated_cas_no": "",
    "SMILES": "C(C(C(O)=O)=O)C1=CC=C(N(=O)=O)C=C1",
    "meta_data": {
        "InChI": "InChI=1S/C9H7NO5/c11-8(9(12)13)5-6-1-3-7(4-2-6)10(14)15/h1-4H,5H2,(H,12,13)",
        "InChIKey": null,
        "Canonical SMILES": "O=C(O)C(=O)CC1=CC=C(C=C1)N(=O)=O",
        "Molecular Formula": "C<sub>9</sub>H<sub>7</sub>NO<sub>5</sub>",
        "Molecular Mass": "209.16",
        "Melting Point": "191-193 °C"
    }
}