{
    "cas_no": "111-11-5",
    "key_name": "Methyl octanoate",
    "cn_name": "辛酸甲酯;正辛酸甲酯;",
    "alternate_name": "Octanoic acid, methyl ester;Methyl caprylate;Methyl octanoate;Uniphat A 20;Methyl <em>n</em>-octanoate;Caprylic acid methyl ester;Pastell M 08;Witconol 1095;Witconol 2309;Radia 7984;NSC 3710;Pastell M 8;Agnique ME 890",
    "duplicated_cas_no": "",
    "SMILES": "C(CC(OC)=O)CCCCC",
    "meta_data": {
        "InChI": "InChI=1S/C9H18O2/c1-3-4-5-6-7-8-9(10)11-2/h3-8H2,1-2H3",
        "InChIKey": null,
        "Canonical SMILES": "O=C(OC)CCCCCCC",
        "Molecular Formula": "C<sub>9</sub>H<sub>18</sub>O<sub>2</sub>",
        "Molecular Mass": "158.24",
        "Boiling Point": "192.9 °C @ Press: 760 Torr",
        "Melting Point": "-40 °C",
        "Density": "0.8775 g/cm³ @ Temp: 20 °C"
    }
}