{
    "cas_no": "511-05-7",
    "key_name": "Sugiol",
    "cn_name": null,
    "alternate_name": "9(1<em>H</em>)-Phenanthrenone, 2,3,4,4a,10,10a-hexahydro-6-hydroxy-1,1,4a-trimethyl-7-(1-methylethyl)-, (4a<em>S</em>,10a<em>S</em>)-;Podocarpa-8,11,13-trien-7-one, 12-hydroxy-13-isopropyl-;Sugiol;9(1<em>H</em>)-Phenanthrenone, 2,3,4,4a,10,10a-hexahydro-6-hydroxy-1,1,4a-trimethyl-7-(1-methylethyl)-, (4a<em>S</em>-<em>trans</em>)-;(4a<em>S</em>,10a<em>S</em>)-2,3,4,4a,10,10a-Hexahydro-6-hydroxy-1,1,4a-trimethyl-7-(1-methylethyl)-9(1<em>H</em>)-phenanthrenone;(+)-Sugiol;10-Deoxoxanthoperol",
    "duplicated_cas_no": "",
    "SMILES": "C[C@@]12C=3C(=CC(C(C)C)=C(O)C3)C(=O)C[C@]1(C(C)(C)CCC2)[H]",
    "meta_data": {
        "InChI": "InChI=1S/C20H28O2/c1-12(2)13-9-14-15(10-16(13)21)20(5)8-6-7-19(3,4)18(20)11-17(14)22/h9-10,12,18,21H,6-8,11H2,1-5H3/t18-,20+/m0/s1",
        "InChIKey": null,
        "Canonical SMILES": "O=C1C2=CC(=C(O)C=C2C3(C)CCCC(C)(C)C3C1)C(C)C",
        "Molecular Formula": "C<sub>20</sub>H<sub>28</sub>O<sub>2</sub>",
        "Molecular Mass": "300.44",
        "Boiling Point": "185-205 °C @ Press: 0.1 Torr",
        "Melting Point": "290-292 °C (decomp)"
    }
}