{
    "cas_no": "3515-93-3",
    "key_name": "4-Oxobutanenitrile",
    "cn_name": "3-氰基丙醛;(9CI)-4-氧代丁腈;4-氧代丁腈;",
    "alternate_name": "Butanenitrile, 4-oxo-;Succinaldehydonitrile;Propionaldehyde, 3-cyano-;4-Oxobutanenitrile;β-Cyanopropionaldehyde;3-Cyanopropionaldehyde;3-Formylpropionitrile;3-Cyanopropanal;4-Oxobutyronitrile;β-Cyanopropionic aldehyde",
    "duplicated_cas_no": "",
    "SMILES": "C(CC=O)C#N",
    "meta_data": {
        "InChI": "InChI=1S/C4H5NO/c5-3-1-2-4-6/h4H,1-2H2",
        "InChIKey": null,
        "Canonical SMILES": "N#CCCC=O",
        "Molecular Formula": "C<sub>4</sub>H<sub>5</sub>NO",
        "Molecular Mass": "83.09",
        "Boiling Point": "77 °C"
    }
}