{
    "cas_no": "384-22-5",
    "key_name": "2-Nitrobenzotrifluoride",
    "cn_name": "2-硝基三氟甲苯;邻硝基三氟甲苯;",
    "alternate_name": "Benzene, 1-nitro-2-(trifluoromethyl)-;Toluene, α,α,α-trifluoro-<em>o</em>-nitro-;1-Nitro-2-(trifluoromethyl)benzene;<em>o</em>-Nitrobenzotrifluoride;2-Nitro-α,α,α-trifluorotoluene;α,α,α-Trifluoro-<em>o</em>-nitrotoluene;<em>o</em>-(Trifluoromethyl)nitrobenzene;2-(Trifluoromethyl)nitrobenzene;2-Nitrobenzotrifluoride",
    "duplicated_cas_no": "",
    "SMILES": "C(F)(F)(F)C1=C(N(=O)=O)C=CC=C1",
    "meta_data": {
        "InChI": "InChI=1S/C7H4F3NO2/c8-7(9,10)5-3-1-2-4-6(5)11(12)13/h1-4H",
        "InChIKey": null,
        "Canonical SMILES": "O=N(=O)C=1C=CC=CC1C(F)(F)F",
        "Molecular Formula": "C<sub>7</sub>H<sub>4</sub>F<sub>3</sub>NO<sub>2</sub>",
        "Molecular Mass": "191.11",
        "Boiling Point": "217 °C",
        "Melting Point": "32.5 °C"
    }
}