{
    "cas_no": "126-07-8",
    "key_name": "Griseofulvin",
    "cn_name": "(+)-灰黄霉素;6\"-甲基-2\",4,6-三甲氧基-7-氯螺[苯并呋喃-2(3H),1\"-[2]环己烯]-3,4\"-二酮;",
    "alternate_name": "Spiro[benzofuran-2(3<em>H</em>),1′-[2]cyclohexene]-3,4′-dione, 7-chloro-2′,4,6-trimethoxy-6′-methyl-, (1′<em>S</em>,6′<em>R</em>)-;Spiro[benzofuran-2(3<em>H</em>),1′-[2]cyclohexene]-3,4′-dione, 7-chloro-2′,4,6-trimethoxy-6′β-methyl-;Spiro[benzofuran-2(3<em>H</em>),1′-[2]cyclohexene]-3,4′-dione, 7-chloro-2′,4,6-trimethoxy-6′-methyl-, (1′<em>S</em>-<em>trans</em>)-;(1′<em>S</em>,6′<em>R</em>)-7-Chloro-2′,4,6-trimethoxy-6′-methylspiro[benzofuran-2(3<em>H</em>),1′-[2]cyclohexene]-3,4′-dione;7-Chloro-2′,4,6-trimethoxy-6′β-methylspiro[benzofuran-2(3<em>H</em>),1′-[2]cyclohexene]-3,4′-dione;Curling factor;Fulcin;Fulvicin;Grifulvin;Grisactin;Griseofulvin;Grisofulvin;Grisovin;Grysio;Gricin;Griseofulvin, (+)-;Amudane;Fulvistatin;Neo-Fulcin;Lamoryl;Spirofulvin;Likuden;Poncyl;Fulvinil;(+)-Griseofulvin;Grifulin;Fulvina;Xuanjing;Grisovin FP;Idifulvin;Polygris;Sporostatin;Fulvicin U/F;Fulvidex;Grifulvin V;Fulvicin P/G;Fulvicin Bolus;Gris-PEG;Poncyl FP;Grisefulin;Griseovin;MeSH ID: D006118",
    "duplicated_cas_no": "3426-54-8;8027-03-0;8055-10-5;11103-62-1;24659-79-8",
    "SMILES": "O=C1[C@@]2(OC=3C1=C(OC)C=C(OC)C3Cl)C(OC)=CC(=O)C[C@H]2C",
    "meta_data": {
        "InChI": "InChI=1S/C17H17ClO6/c1-8-5-9(19)6-12(23-4)17(8)16(20)13-10(21-2)7-11(22-3)14(18)15(13)24-17/h6-8H,5H2,1-4H3/t8-,17+/m1/s1",
        "InChIKey": null,
        "Canonical SMILES": "O=C1C=C(OC)C2(OC=3C(Cl)=C(OC)C=C(OC)C3C2=O)C(C)C1",
        "Molecular Formula": "C<sub>17</sub>H<sub>17</sub>ClO<sub>6</sub>",
        "Molecular Mass": "352.77",
        "Melting Point": "220 °C",
        "Density": "1.45 g/cm³"
    }
}