{
    "cas_no": "79-02-7",
    "key_name": "Dichloroacetaldehyde",
    "cn_name": "二氯乙醛;",
    "alternate_name": "Acetaldehyde, 2,2-dichloro-;Acetaldehyde, dichloro-;2,2-Dichloroacetaldehyde;Dichloroacetaldehyde;Chloroaldehyde;α,α-Dichloroacetaldehyde;NSC 5207",
    "duplicated_cas_no": "",
    "SMILES": "C(C=O)(Cl)Cl",
    "meta_data": {
        "InChI": "InChI=1S/C2H2Cl2O/c3-2(4)1-5/h1-2H",
        "InChIKey": null,
        "Canonical SMILES": "O=CC(Cl)Cl",
        "Molecular Formula": "C<sub>2</sub>H<sub>2</sub>Cl<sub>2</sub>O",
        "Molecular Mass": "112.94",
        "Boiling Point": "89.2 °C",
        "Melting Point": "-37.6--37.4 °C",
        "Density": "1.436 g/cm³ @ Temp: 25 °C"
    }
}