{
    "cas_no": "66909-33-9",
    "key_name": "6-Chloro-5-methyl-3-pyridinecarbonitrile",
    "cn_name": null,
    "alternate_name": "3-Pyridinecarbonitrile, 6-chloro-5-methyl-;6-Chloro-5-methyl-3-pyridinecarbonitrile;2-Chloro-3-methyl-5-pyridinecarbonitrile;6-Chloro-5-methylnicotinonitrile",
    "duplicated_cas_no": "",
    "SMILES": "C(#N)C=1C=C(C)C(Cl)=NC1",
    "meta_data": {
        "InChI": "InChI=1S/C7H5ClN2/c1-5-2-6(3-9)4-10-7(5)8/h2,4H,1H3",
        "InChIKey": null,
        "Canonical SMILES": "N#CC1=CN=C(Cl)C(=C1)C",
        "Molecular Formula": "C<sub>7</sub>H<sub>5</sub>ClN<sub>2</sub>",
        "Molecular Mass": "152.58",
        "Melting Point": "114-116 °C"
    }
}