{
    "cas_no": "55750-63-5",
    "key_name": "<em>N</em>-(6-Maleimidocaproyloxy)succinimide",
    "cn_name": "6-(马来酰亚胺基)己酸琥珀酰亚胺酯;",
    "alternate_name": "1<em>H</em>-Pyrrole-1-hexanoic acid, 2,5-dihydro-2,5-dioxo-, 2,5-dioxo-1-pyrrolidinyl ester;1<em>H</em>-Pyrrole-2,5-dione, 1-[6-[(2,5-dioxo-1-pyrrolidinyl)oxy]-6-oxohexyl]-;<em>N</em>-(ε-Maleimidocaproyloxy)succinimide;<em>N</em>-(6-Maleimidocaproyloxy)succinimide;ε-Maleimidocaproic acid <em>N</em>-hydroxysuccinimide ester;<em>N</em>-Succinimidyl 6-maleimidohexanoate;EMCS;<em>N</em>-(6-Maleimide caproyloxy) succinimide;<em>N</em>-(6-Maleimideocaproyloxy)succinimide;6-Maleimidohexanoic acid <em>N</em>-hydroxysuccinimide ester;6-Maleimidohexanoic acid <em>N</em>-succinimidyl ester;2,5-Dioxopyrrolidin-1-yl 6-(2,5-Dioxo-2,5-dihydro-1<em>H</em>-pyrrol-1-yl)hexanoate;8: PN: WO2018181428 SEQID: 2 claimed sequence;<em>N</em>-(Epsilon-maleimidocaproyloxy)succinimide",
    "duplicated_cas_no": "105239-65-4;130136-10-6;872534-23-1;1250884-83-3",
    "SMILES": "O(C(CCCCCN1C(=O)C=CC1=O)=O)N2C(=O)CCC2=O",
    "meta_data": {
        "InChI": "InChI=1S/C14H16N2O6/c17-10-5-6-11(18)15(10)9-3-1-2-4-14(21)22-16-12(19)7-8-13(16)20/h5-6H,1-4,7-9H2",
        "InChIKey": null,
        "Canonical SMILES": "O=C1C=CC(=O)N1CCCCCC(=O)ON2C(=O)CCC2=O",
        "Molecular Formula": "C<sub>14</sub>H<sub>16</sub>N<sub>2</sub>O<sub>6</sub>",
        "Molecular Mass": "308.29",
        "Melting Point": "79-80 °C"
    }
}