{
    "cas_no": "109-70-6",
    "key_name": "1-Bromo-3-chloropropane",
    "cn_name": "1-溴-3-氯丙烷;",
    "alternate_name": "Propane, 1-bromo-3-chloro-;1-Bromo-3-chloropropane;Trimethylene bromide chloride;Trimethylene chlorobromide;1-Chloro-3-bromopropane;3-Chloro-1-bromopropane;3-Bromopropyl chloride;3-Bromo-1-chloropropane;3-Chloropropyl bromide;ω-Chlorobromopropane;NSC 9183;3-Chloropropan-1-yl bromide",
    "duplicated_cas_no": "",
    "SMILES": "C(CBr)CCl",
    "meta_data": {
        "InChI": "InChI=1S/C3H6BrCl/c4-2-1-3-5/h1-3H2",
        "InChIKey": null,
        "Canonical SMILES": "ClCCCBr",
        "Molecular Formula": "C<sub>3</sub>H<sub>6</sub>BrCl",
        "Molecular Mass": "157.44",
        "Boiling Point": "143.3 °C @ Press: 760 Torr",
        "Melting Point": "-58.90 °C",
        "Density": "1.5969 g/cm³ @ Temp: 20 °C"
    }
}