{
    "cas_no": "4314-14-1",
    "key_name": "Solvent Yellow 16",
    "cn_name": "溶剂黄16;2,4-二氢-5-甲基-2-苯基-4-苯偶氮基-3H-吡唑啉-3-酮;",
    "alternate_name": "3<em>H</em>-Pyrazol-3-one, 2,4-dihydro-5-methyl-2-phenyl-4-(2-phenyldiazenyl)-;C.I. Disperse Yellow 16;Sudan Yellow 3G;3<em>H</em>-Pyrazol-3-one, 2,4-dihydro-5-methyl-2-phenyl-4-(phenylazo)-;Pyrazol-5-ol, 3-methyl-1-phenyl-4-(phenylazo)-;2,4-Dihydro-5-methyl-2-phenyl-4-(2-phenyldiazenyl)-3<em>H</em>-pyrazol-3-one;C.I. 12700;Ceres Yellow 3G;C.I. Solvent Yellow 16;Fat Yellow 3G;Fat Yellow SG 3;Lacquer Yellow V 3G;Oil Yellow 3G;Oleal Yellow 3G;Orient Oil Yellow 3G;4-Phenylazo-1-phenyl-3-methyl-5-pyrazolone;1-Phenyl-3-methyl-4-phenylazo-5-pyrazolone;PMPP;Resinol Yellow 3G;Silotras Yellow T3G;Supracet Yellow 2G;Yellow 3Zh;Oil Yellow 5GS;Sico Fat Citron Yellow 5G3;Solvent Yellow 16;Sumiplast Yellow GC;Kayaset Yellow 937;Disperse Yellow 16;SOT Yellow 3;Aizen SOT Yellow 3;3-Methyl-1-phenyl-4-(phenylazo)-pyrazol-5-ol;Sudan Yellow 146;Foron Yellow SE-GLN;2,4-Dihydro-5-methyl-2-phenyl-4-(phenylazo)-3<em>H</em>-pyrazol-3-one",
    "duplicated_cas_no": "119371-24-3;137529-96-5;139361-96-9;5577-43-5;59459-23-3;347383-14-6;392711-58-9;166975-78-6;890719-21-8",
    "SMILES": "O=C1N(N=C(C)C1N=NC2=CC=CC=C2)C3=CC=CC=C3",
    "meta_data": {
        "InChI": "InChI=1S/C16H14N4O/c1-12-15(18-17-13-8-4-2-5-9-13)16(21)20(19-12)14-10-6-3-7-11-14/h2-11,15H,1H3",
        "InChIKey": null,
        "Canonical SMILES": "O=C1N(N=C(C)C1N=NC=2C=CC=CC2)C=3C=CC=CC3",
        "Molecular Formula": "C<sub>16</sub>H<sub>14</sub>N<sub>4</sub>O",
        "Molecular Mass": "278.31",
        "Melting Point": "154-155 °C"
    }
}