{
    "cas_no": "22179-72-2",
    "key_name": "4-Fluorothiobenzamide",
    "cn_name": null,
    "alternate_name": "Benzenecarbothioamide, 4-fluoro-;Benzamide, <em>p</em>-fluorothio-;4-Fluorobenzenecarbothioamide;4-Fluorothiobenzamide;4-Fluoro-1-benzenecarbothioamide;4-Fluorobenzothioamide",
    "duplicated_cas_no": "1354410-36-8;1354410-38-0",
    "SMILES": "C(N)(=S)C1=CC=C(F)C=C1",
    "meta_data": {
        "InChI": "InChI=1S/C7H6FNS/c8-6-3-1-5(2-4-6)7(9)10/h1-4H,(H2,9,10)",
        "InChIKey": null,
        "Canonical SMILES": "FC1=CC=C(C=C1)C(=S)N",
        "Molecular Formula": "C<sub>7</sub>H<sub>6</sub>FNS",
        "Molecular Mass": "155.19",
        "Melting Point": "148 °C"
    }
}