{
    "cas_no": "87-63-8",
    "key_name": "2-Chloro-6-methylaniline",
    "cn_name": "2-氯-6-甲基苯胺;",
    "alternate_name": "Benzenamine, 2-chloro-6-methyl-;<em>o</em>-Toluidine, 6-chloro-;2-Chloro-6-methylbenzenamine;2-Amino-3-chlorotoluene;3-Chloro-2-aminotoluene;6-Chloro-<em>o</em>-toluidine;2-Chloro-6-methylaniline;2-Methyl-6-chloroaniline;6-Chloro-2-methylaniline;(2-Chloro-6-methylphenyl)amine;NSC 60121",
    "duplicated_cas_no": "",
    "SMILES": "NC1=C(C)C=CC=C1Cl",
    "meta_data": {
        "InChI": "InChI=1S/C7H8ClN/c1-5-3-2-4-6(8)7(5)9/h2-4H,9H2,1H3",
        "InChIKey": null,
        "Canonical SMILES": "ClC1=CC=CC(=C1N)C",
        "Molecular Formula": "C<sub>7</sub>H<sub>8</sub>ClN",
        "Molecular Mass": "141.60",
        "Boiling Point": "96-99 °C @ Press: 10 Torr"
    }
}