{
    "cas_no": "1662-06-2",
    "key_name": "17α,20β-Dihydroxy-4-pregnen-3-one",
    "cn_name": "4-孕烷-17α,20β-二醇-3-酮;",
    "alternate_name": "Pregn-4-en-3-one, 17,20-dihydroxy-, (20<em>R</em>)-;Pregn-4-en-3-one, 17,20β-dihydroxy-;(20<em>R</em>)-17,20-Dihydroxypregn-4-en-3-one;17α,20β-Dihydroxy-4-pregnen-3-one;17α-Hydroxy-20β-dihydroprogesterone;17α,20β-Dihydroxyprogesterone;17,20β-Dihydroxypregn-4-en-3-one;17,20β-Dihydroxyprogesterone;Maturation-inducing hormone;17,20β-DHP;MIH",
    "duplicated_cas_no": "61595-73-1",
    "SMILES": "C[C@@]12[C@]([C@]3([C@@]([C@]4(C)C(CC3)=CC(=O)CC4)(CC1)[H])[H])(CC[C@@]2([C@@H](C)O)O)[H]",
    "meta_data": {
        "InChI": "InChI=1S/C21H32O3/c1-13(22)21(24)11-8-18-16-5-4-14-12-15(23)6-9-19(14,2)17(16)7-10-20(18,21)3/h12-13,16-18,22,24H,4-11H2,1-3H3/t13-,16-,17+,18+,19+,20+,21+/m1/s1",
        "InChIKey": null,
        "Canonical SMILES": "O=C1C=C2CCC3C(CCC4(C)C3CCC4(O)C(O)C)C2(C)CC1",
        "Molecular Formula": "C<sub>21</sub>H<sub>32</sub>O<sub>3</sub>",
        "Molecular Mass": "332.48",
        "Melting Point": "204-205.5 °C"
    }
}