{
    "cas_no": "3047-32-3",
    "key_name": "OXT 101",
    "cn_name": "3-乙基-3-氧杂丁环甲醇;3-乙基-3-环氧丙烷甲醇;",
    "alternate_name": "3-Oxetanemethanol, 3-ethyl-;3-Ethyl-3-oxetanemethanol;3-Ethyl-3-(hydroxymethyl)oxacyclobutane;3-Hydroxymethyl-3-ethyloxetane;3-Ethyl-3-(hydroxymethyl)oxetane;3-Ethyl-3-methyloloxetane;EOXA;Cyracure UVR 6000;Aron Oxetane OXT 101;OXA;OXA (oxetane);OXT 101;UVR 6000;Eternacoll EHO;(3-Ethyloxetan-3-yl)methanol;Aron Oxetane OXA;EHO;Trimethylolpropane oxetane;3-Ethyl-3-oxetanylmethyl alcohol;Syna OXA-S 101;S 101;Synasia S 101;TCM 101;3-Ethyl-3-hydroxymethyloxethane;Uvicure S 130;Doublemer 401;Curalite Pro Ox C 20;Curalite Pro Ox C 50;M 101;TMPO;TTA 202;GR-OXT 1",
    "duplicated_cas_no": "346425-95-4;473440-85-6",
    "SMILES": "C(C)C1(CO)COC1",
    "meta_data": {
        "InChI": "InChI=1S/C6H12O2/c1-2-6(3-7)4-8-5-6/h7H,2-5H2,1H3",
        "InChIKey": null,
        "Canonical SMILES": "OCC1(COC1)CC",
        "Molecular Formula": "C<sub>6</sub>H<sub>12</sub>O<sub>2</sub>",
        "Molecular Mass": "116.16",
        "Boiling Point": "84 °C @ Press: 2.8 Torr"
    }
}