{
    "cas_no": "9003-95-6",
    "key_name": "Poly(vinyl stearate)",
    "cn_name": null,
    "alternate_name": "Octadecanoic acid, ethenyl ester, homopolymer;Stearic acid, vinyl ester, polymers;Poly(vinyl stearate);Vinyl stearate polymer;Vinyl stearate homopolymer;Poly(vinyl octadecanoate)",
    "duplicated_cas_no": "",
    "SMILES": "C(CCCCCCCCCCCCCCC)CC(OC=C)=O",
    "meta_data": {
        "InChI": "InChI=1S/C20H38O2/c1-3-5-6-7-8-9-10-11-12-13-14-15-16-17-18-19-20(21)22-4-2/h4H,2-3,5-19H2,1H3",
        "InChIKey": null,
        "Canonical SMILES": "O=C(OC=C)CCCCCCCCCCCCCCCCC",
        "Molecular Formula": "(C<sub>20</sub>H<sub>38</sub>O<sub>2</sub>)<sub>x</sub>",
        "Molecular Mass": "",
        "Melting Point": "8.9 °C",
        "Density": "0.98 g/cm³"
    }
}