{
    "cas_no": "20737-48-8",
    "key_name": "5-Thiazolecarboxylic acid, 4-hydroxy-2-methyl-, ethyl ester",
    "cn_name": null,
    "alternate_name": "5-Thiazolecarboxylic acid, 4-hydroxy-2-methyl-, ethyl ester;Ethyl 4-hydroxy-2-methyl-1,3-thiazole-5-carboxylate;Ethyl 4-hydroxy-2-methylthiazole-5-carboxylate;4-Hydroxy-2-methylthiazole-5-carboxylic acid ethyl ester",
    "duplicated_cas_no": "",
    "SMILES": "C(OCC)(=O)C1=C(O)N=C(C)S1",
    "meta_data": {
        "InChI": "InChI=1S/C7H9NO3S/c1-3-11-7(10)5-6(9)8-4(2)12-5/h9H,3H2,1-2H3",
        "InChIKey": null,
        "Canonical SMILES": "O=C(OCC)C=1SC(=NC1O)C",
        "Molecular Formula": "C<sub>7</sub>H<sub>9</sub>NO<sub>3</sub>S",
        "Molecular Mass": "187.22",
        "Melting Point": "37-39 °C"
    }
}