{
    "cas_no": "1148-79-4",
    "key_name": "2,2′:6′,2′′-Terpyridine",
    "cn_name": null,
    "alternate_name": "2,2′:6′,2′′-Terpyridine;2,2′,2′′-Tripyridine;Ba 2799;2,2′,2′′-Terpyridine;2,6-Bis(2-pyridyl)pyridine;2,2′,2′′-Terpyridyl;α,α′,α′′-Tripyridyl;2,2′,2′′-Tripyridyl;2,2′:6′,2′′-Terpyridyl;NSC 3905;NSC 36755;2,6-Di(2-pyridyl)pyridine;2,6-Di(pyridin-2-yl)pyridine;TPY;2,6-Bis(pyridin-2-yl)pyridine",
    "duplicated_cas_no": "",
    "SMILES": "C=1(N=C(C=CC1)C2=CC=CC=N2)C3=CC=CC=N3",
    "meta_data": {
        "InChI": "InChI=1S/C15H11N3/c1-3-10-16-12(6-1)14-8-5-9-15(18-14)13-7-2-4-11-17-13/h1-11H",
        "InChIKey": null,
        "Canonical SMILES": "N=1C=CC=CC1C=2N=C(C=CC2)C=3N=CC=CC3",
        "Molecular Formula": "C<sub>15</sub>H<sub>11</sub>N<sub>3</sub>",
        "Molecular Mass": "233.27",
        "Melting Point": "89-91 °C"
    }
}