{
    "cas_no": "94-62-2",
    "key_name": "Piperine",
    "cn_name": "胡椒碱;(E,E)-1-[5-(1,3-苯并二氧戊环-5-基)-1-氧代-2,4-戊二烯基]-哌啶;",
    "alternate_name": "2,4-Pentadien-1-one, 5-(1,3-benzodioxol-5-yl)-1-(1-piperidinyl)-, (2<em>E</em>,4<em>E</em>)-;Piperine;Piperidine, 1-piperoyl-, (<em>E</em>,<em>E</em>)-;Piperidine, 1-[5-(1,3-benzodioxol-5-yl)-1-oxo-2,4-pentadienyl]-, (<em>E</em>,<em>E</em>)-;Piperidine, 1-[(2<em>E</em>,4<em>E</em>)-5-(1,3-benzodioxol-5-yl)-1-oxo-2,4-pentadienyl]-;(2<em>E</em>,4<em>E</em>)-5-(1,3-Benzodioxol-5-yl)-1-(1-piperidinyl)-2,4-pentadien-1-one;1-Piperoylpiperidine;Piperin;(<em>E</em>,<em>E</em>)-5-(3,4-Methylenedioxyphenyl)-2,4-pentadienoylpiperidide;(<em>E</em>,<em>E</em>)-1-[5-(1,3-Benzodioxol-5-yl)-2,4-pentadienoyl]piperidine;Bioperine;NSC 21727;Bioperin;(2E,4E)-5-(Benzo[<em>d</em>][1,3]dioxol-5-yl)-1-(piperidin-1-yl)penta-2,4-dien-1-one",
    "duplicated_cas_no": "147030-08-8",
    "SMILES": "C(=C/C=C/C(=O)N1CCCCC1)\\C=2C=C3C(=CC2)OCO3",
    "meta_data": {
        "InChI": "InChI=1S/C17H19NO3/c19-17(18-10-4-1-5-11-18)7-3-2-6-14-8-9-15-16(12-14)21-13-20-15/h2-3,6-9,12H,1,4-5,10-11,13H2/b6-2+,7-3+",
        "InChIKey": null,
        "Canonical SMILES": "O=C(C=CC=CC1=CC=C2OCOC2=C1)N3CCCCC3",
        "Molecular Formula": "C<sub>17</sub>H<sub>19</sub>NO<sub>3</sub>",
        "Molecular Mass": "285.34",
        "Melting Point": "131.5 °C",
        "Density": "1.193 g/cm³"
    }
}