{
    "cas_no": "514-61-4",
    "key_name": "Methylnortestosterone",
    "cn_name": "甲基诺龙;",
    "alternate_name": "Estr-4-en-3-one, 17-hydroxy-17-methyl-, (17β)-;Estr-4-en-3-one, 17β-hydroxy-17-methyl-;(17β)-17-Hydroxy-17-methylestr-4-en-3-one;13β,17α-Dimethyl-17-hydroxygon-4-en-3-one;17β-Hydroxy-17-methylestr-4-en-3-one;Methalutin;17α-Methylestra-4-en-17-ol-3-one;17α-Methyl-17β-hydroxy-Δ<sup>4</sup>-estren-3-one;17α-Methyl-19-nortestosterone;17α-Methyl-4-estren-17β-ol-3-one;Normethandrolone;Normethandrone;Normethanedrolone;Orgasteron;17α-Methylestrenolone;17β-Hydroxy-17α-methylestr-4-en-3-one;Methylestrenolone;17α-Methyl-17β-hydroxy-4-estrene-3-one;17-Methyl-19-nortestosterone;Lutenin;Matronal;Metalutin;17α-Methyl-3-oxo-4-estren-17β-ol;RU 598;19-Normethisterone;Normethisterone;Normetandrone;Methylnortestosterone;NSC 10039",
    "duplicated_cas_no": "",
    "SMILES": "C[C@@]12[C@]([C@]3([C@](CC1)([C@@]4(C(CC3)=CC(=O)CC4)[H])[H])[H])(CC[C@]2(C)O)[H]",
    "meta_data": {
        "InChI": "InChI=1S/C19H28O2/c1-18-9-7-15-14-6-4-13(20)11-12(14)3-5-16(15)17(18)8-10-19(18,2)21/h11,14-17,21H,3-10H2,1-2H3/t14-,15+,16+,17-,18-,19-/m0/s1",
        "InChIKey": null,
        "Canonical SMILES": "O=C1C=C2CCC3C(CCC4(C)C3CCC4(O)C)C2CC1",
        "Molecular Formula": "C<sub>19</sub>H<sub>28</sub>O<sub>2</sub>",
        "Molecular Mass": "288.42",
        "Melting Point": "156-158 °C"
    }
}