{
    "cas_no": "41606-61-5",
    "key_name": "3-Amino-<em>N</em>-ethyl-4-hydroxybenzenesulfonamide",
    "cn_name": "2-氨基苯酚-4-(N-乙基)磺酰胺;2-氨基苯酚-4-磺酰乙胺;",
    "alternate_name": "Benzenesulfonamide, 3-amino-<em>N</em>-ethyl-4-hydroxy-;Metanilamide, <em>N</em>-ethyl-4-hydroxy-;1-Phenol-4-sulfonamide, 2-amino-<em>N</em>-ethyl-;3-Amino-<em>N</em>-ethyl-4-hydroxybenzenesulfonamide;3-Amino-<em>N</em>-ethyl-4-hydroxybenzene-1-sulfonamide",
    "duplicated_cas_no": "",
    "SMILES": "S(NCC)(=O)(=O)C1=CC(N)=C(O)C=C1",
    "meta_data": {
        "InChI": "InChI=1S/C8H12N2O3S/c1-2-10-14(12,13)6-3-4-8(11)7(9)5-6/h3-5,10-11H,2,9H2,1H3",
        "InChIKey": null,
        "Canonical SMILES": "O=S(=O)(NCC)C1=CC=C(O)C(N)=C1",
        "Molecular Formula": "C<sub>8</sub>H<sub>12</sub>N<sub>2</sub>O<sub>3</sub>S",
        "Molecular Mass": "216.26",
        "Melting Point": "128 °C"
    }
}