{
    "cas_no": "1129-35-7",
    "key_name": "Methyl 4-cyanobenzoate",
    "cn_name": "4-氰基苯甲酸甲酯;对氰基苯甲酸甲酯;",
    "alternate_name": "Benzoic acid, 4-cyano-, methyl ester;Benzoic acid, <em>p</em>-cyano-, methyl ester;Methyl <em>p</em>-cyanobenzoate;Methyl 4-cyanobenzoate;<em>p</em>-Cyanobenzoic acid methyl ester;4-(Methoxycarbonyl)benzonitrile;4-cyanobenzoic acid methyl ester",
    "duplicated_cas_no": "",
    "SMILES": "C(OC)(=O)C1=CC=C(C#N)C=C1",
    "meta_data": {
        "InChI": "InChI=1S/C9H7NO2/c1-12-9(11)8-4-2-7(6-10)3-5-8/h2-5H,1H3",
        "InChIKey": null,
        "Canonical SMILES": "N#CC1=CC=C(C=C1)C(=O)OC",
        "Molecular Formula": "C<sub>9</sub>H<sub>7</sub>NO<sub>2</sub>",
        "Molecular Mass": "161.16",
        "Boiling Point": "142-144 °C @ Press: 12 Torr",
        "Melting Point": "62 °C"
    }
}