{
    "cas_no": "4425-56-3",
    "key_name": "5-Cyanouracil",
    "cn_name": "5-氰基尿嘧啶;2,4-二羟基-5-嘧啶甲腈;",
    "alternate_name": "5-Pyrimidinecarbonitrile, 1,2,3,4-tetrahydro-2,4-dioxo-;1,2,3,4-Tetrahydro-2,4-dioxo-5-pyrimidinecarbonitrile;5-Cyanouracil;2,4(1<em>H</em>,3<em>H</em>)-Pyrimidinedione, 5-cyano-;NSC 12931;NSC 44192;NSC 667760;Uracil-5-carbonitrile;2,4-Dioxo-1<em>H</em>-pyrimidine-5-carbonitrile;2,4-Dioxo-1,2,3,4-tetrahydropyrimidine-5-carbonitrile;2,4-Dihydroxypyrimidine-5-carbonitrile;2-Hydroxy-4-oxo-1,4-dihydropyrimidine-5-carbonitrile",
    "duplicated_cas_no": "5428-41-1",
    "SMILES": "C(#N)C=1C(=O)NC(=O)NC1",
    "meta_data": {
        "InChI": "InChI=1S/C5H3N3O2/c6-1-3-2-7-5(10)8-4(3)9/h2H,(H2,7,8,9,10)",
        "InChIKey": null,
        "Canonical SMILES": "N#CC1=CNC(=O)NC1=O",
        "Molecular Formula": "C<sub>5</sub>H<sub>3</sub>N<sub>3</sub>O<sub>2</sub>",
        "Molecular Mass": "137.10",
        "Melting Point": "295 °C (decomp)"
    }
}