{
    "cas_no": "354-65-4",
    "key_name": "1,2-Diiodotetrafluoroethane",
    "cn_name": null,
    "alternate_name": "Ethane, 1,1,2,2-tetrafluoro-1,2-diiodo-;Ethane, tetrafluoro-1,2-diiodo-;1,1,2,2-Tetrafluoro-1,2-diiodoethane;1,2-Diiodotetrafluoroethane;Tetrafluoro-1,2-diiodoethane;1,2-Diiodo-1,1,2,2-tetrafluoroethane;1,2-Diiodoperfluoroethane;α,ω-Diiodoperfluoroethane",
    "duplicated_cas_no": "",
    "SMILES": "C(C(F)(F)I)(F)(F)I",
    "meta_data": {
        "InChI": "InChI=1S/C2F4I2/c3-1(4,7)2(5,6)8",
        "InChIKey": null,
        "Canonical SMILES": "FC(F)(I)C(F)(F)I",
        "Molecular Formula": "C<sub>2</sub>F<sub>4</sub>I<sub>2</sub>",
        "Molecular Mass": "353.82",
        "Boiling Point": "112 °C",
        "Density": "2.6293 g/cm³ @ Temp: 25 °C"
    }
}