{
    "cas_no": "54648-79-2",
    "key_name": "Methyl <em>N</em>,<em>N</em>′-bis(1-methylethyl)carbamimidate",
    "cn_name": "N,N-二异丙基-O-甲基异脲;",
    "alternate_name": "Carbamimidic acid, <em>N</em>,<em>N</em>′-bis(1-methylethyl)-, methyl ester;Pseudourea, 1,3-diisopropyl-2-methyl-;Methyl <em>N</em>,<em>N</em>′-bis(1-methylethyl)carbamimidate;NSC 672441;<em>N</em>,<em>N</em>′-Diisopropyl-<em>O</em>-methylisourea;<em>O</em>-Methyl-<em>N</em>,<em>N</em>′-diisopropylisourea;1,3-Diisopropyl-2-methylisourea",
    "duplicated_cas_no": "",
    "SMILES": "C(=NC(C)C)(NC(C)C)OC",
    "meta_data": {
        "InChI": "InChI=1S/C8H18N2O/c1-6(2)9-8(11-5)10-7(3)4/h6-7H,1-5H3,(H,9,10)",
        "InChIKey": null,
        "Canonical SMILES": "N(=C(OC)NC(C)C)C(C)C",
        "Molecular Formula": "C<sub>8</sub>H<sub>18</sub>N<sub>2</sub>O",
        "Molecular Mass": "158.24",
        "Boiling Point": "54 °C @ Press: 10 Torr"
    }
}