{
    "cas_no": "95-73-8",
    "key_name": "2,4-Dichlorotoluene",
    "cn_name": "2,4-二氯甲苯;",
    "alternate_name": "Benzene, 2,4-dichloro-1-methyl-;Toluene, 2,4-dichloro-;2,4-Dichloro-1-methylbenzene;2,4-Dichlorotoluene;1,3-Dichloro-4-methylbenzene;NSC 8764",
    "duplicated_cas_no": "",
    "SMILES": "ClC1=C(C)C=CC(Cl)=C1",
    "meta_data": {
        "InChI": "InChI=1S/C7H6Cl2/c1-5-2-3-6(8)4-7(5)9/h2-4H,1H3",
        "InChIKey": null,
        "Canonical SMILES": "ClC1=CC=C(C(Cl)=C1)C",
        "Molecular Formula": "C<sub>7</sub>H<sub>6</sub>Cl<sub>2</sub>",
        "Molecular Mass": "161.03",
        "Boiling Point": "201 °C @ Press: 760 Torr",
        "Melting Point": "-13.5 °C",
        "Density": "1.2476 g/cm³ @ Temp: 20 °C"
    }
}