{
    "cas_no": "2243-82-5",
    "key_name": "2-Naphthalenecarboxamide",
    "cn_name": null,
    "alternate_name": "2-Naphthalenecarboxamide;2-Naphthamide;NSC 171209",
    "duplicated_cas_no": "",
    "SMILES": "C(N)(=O)C1=CC2=C(C=C1)C=CC=C2",
    "meta_data": {
        "InChI": "InChI=1S/C11H9NO/c12-11(13)10-6-5-8-3-1-2-4-9(8)7-10/h1-7H,(H2,12,13)",
        "InChIKey": null,
        "Canonical SMILES": "O=C(N)C=1C=CC=2C=CC=CC2C1",
        "Molecular Formula": "C<sub>11</sub>H<sub>9</sub>NO",
        "Molecular Mass": "171.20",
        "Melting Point": "191-192 °C"
    }
}