{
    "cas_no": "2210-93-7",
    "key_name": "Piperazine, 1-phenyl-, hydrochloride (1:1)",
    "cn_name": "1-苯基哌嗪盐酸盐;",
    "alternate_name": "Piperazine, 1-phenyl-, hydrochloride (1:1);Piperazine, 1-phenyl-, monohydrochloride;1-Phenylpiperazine hydrochloride;<em>N</em>-Phenylpiperazine hydrochloride;4-Phenylpiperazine hydrochloride",
    "duplicated_cas_no": "",
    "SMILES": "C1(=CC=CC=C1)N2CCNCC2.Cl",
    "meta_data": {
        "InChI": "InChI=1S/C10H14N2.ClH/c1-2-4-10(5-3-1)12-8-6-11-7-9-12;/h1-5,11H,6-9H2;1H",
        "InChIKey": null,
        "Canonical SMILES": "Cl.C=1C=CC(=CC1)N2CCNCC2",
        "Molecular Formula": "C<sub>10</sub>H<sub>14</sub>N<sub>2</sub>.ClH",
        "Molecular Mass": "",
        "Melting Point": "247 °C (decomp)"
    }
}