{
    "cas_no": "353-36-6",
    "key_name": "Fluoroethane",
    "cn_name": "氟乙烷;氟乙烷；乙基氟；制冷剂R-161;",
    "alternate_name": "Ethane, fluoro-;Fluoroethane;Ethyl fluoride;Monofluoroethane;R 161;HFC 161;F 161;HFA 161;R 161 (refrigerant)",
    "duplicated_cas_no": "",
    "SMILES": "C(C)F",
    "meta_data": {
        "InChI": "InChI=1S/C2H5F/c1-2-3/h2H2,1H3",
        "InChIKey": null,
        "Canonical SMILES": "FCC",
        "Molecular Formula": "C<sub>2</sub>H<sub>5</sub>F",
        "Molecular Mass": "48.06",
        "Boiling Point": "-37.6 °C",
        "Melting Point": "-143.2 °C",
        "Density": "0.8176 g/cm³"
    }
}