{
    "cas_no": "17311-31-8",
    "key_name": "2,3-Quinoxalinedimethanol, 1,4-dioxide",
    "cn_name": null,
    "alternate_name": "2,3-Quinoxalinedimethanol, 1,4-dioxide;2,3-Bis(hydroxymethyl)quinoxaline-1,4-di-<em>N</em>-oxide;Dioxidine;2,3-Di(hydroxymethyl)quinoxaline di-<em>N</em>-oxide;2,3-Di(hydroxymethyl)quinoxaline 1,4-di-<em>N</em>-oxide;Dioxydine;Metrosept;Mastoxidine;Farmoxidin;2,3-bis(hydroxymethyl)quinoxaline-1,4-diium-1,4-bis(olate)",
    "duplicated_cas_no": "208583-13-5",
    "SMILES": "O=N=1C2=C(N(=O)=C(CO)C1CO)C=CC=C2",
    "meta_data": {
        "InChI": "InChI=1S/C10H10N2O4/c13-5-9-10(6-14)12(16)8-4-2-1-3-7(8)11(9)15/h1-4,13-14H,5-6H2",
        "InChIKey": null,
        "Canonical SMILES": "O=N1=C2C=CC=CC2=N(=O)C(=C1CO)CO",
        "Molecular Formula": "C<sub>10</sub>H<sub>10</sub>N<sub>2</sub>O<sub>4</sub>",
        "Molecular Mass": "222.20",
        "Melting Point": "170-171 °C"
    }
}