{
    "cas_no": "26002-80-2",
    "key_name": "Phenothrin",
    "cn_name": null,
    "alternate_name": "Cyclopropanecarboxylic acid, 2,2-dimethyl-3-(2-methyl-1-propen-1-yl)-, (3-phenoxyphenyl)methyl ester;Cyclopropanecarboxylic acid, 2,2-dimethyl-3-(2-methylpropenyl)-, <em>m</em>-phenoxybenzyl ester;Cyclopropanecarboxylic acid, 2,2-dimethyl-3-(2-methyl-1-propenyl)-, (3-phenoxyphenyl)methyl ester;Benzyl alcohol, <em>m</em>-phenoxy-, 2,2-dimethyl-3-(2-methylpropenyl)cyclopropanecarboxylate;Phenothrin;S 2539;<em>m</em>-Phenoxybenzyl 2,2-dimethyl-3-(2-methylpropenyl)cyclopropanecarboxylate;Phenoxythrin;OMS 1809;OMS 1810;3-Phenoxybenzyl chrysanthemate;Pibutin;Multicide 2154;PT 515;S 2539 (pesticide);Duet;Anchimanaito 20S;Phenothrin II",
    "duplicated_cas_no": "53528-32-8;73170-79-3;2048189-09-7",
    "SMILES": "C(=C(C)C)C1C(C(OCC2=CC(OC3=CC=CC=C3)=CC=C2)=O)C1(C)C",
    "meta_data": {
        "InChI": "InChI=1S/C23H26O3/c1-16(2)13-20-21(23(20,3)4)22(24)25-15-17-9-8-12-19(14-17)26-18-10-6-5-7-11-18/h5-14,20-21H,15H2,1-4H3",
        "InChIKey": null,
        "Canonical SMILES": "O=C(OCC=1C=CC=C(OC=2C=CC=CC2)C1)C3C(C=C(C)C)C3(C)C",
        "Molecular Formula": "C<sub>23</sub>H<sub>26</sub>O<sub>3</sub>",
        "Molecular Mass": "350.45",
        "Boiling Point": "&gt;290 °C",
        "Melting Point": "&lt;25 °C",
        "Density": "1.06 g/cm³ @ Temp: 20 °C"
    }
}