{
    "cas_no": "594-71-8",
    "key_name": "2-Chloro-2-nitropropane",
    "cn_name": "2-硝基-2-氯丙烷;2-氯-2-硝基丙烷;",
    "alternate_name": "Propane, 2-chloro-2-nitro-;2-Chloro-2-nitropropane;NSC 3642",
    "duplicated_cas_no": "",
    "SMILES": "C(N(=O)=O)(C)(C)Cl",
    "meta_data": {
        "InChI": "InChI=1S/C3H6ClNO2/c1-3(2,4)5(6)7/h1-2H3",
        "InChIKey": null,
        "Canonical SMILES": "O=N(=O)C(Cl)(C)C",
        "Molecular Formula": "C<sub>3</sub>H<sub>6</sub>ClNO<sub>2</sub>",
        "Molecular Mass": "123.54",
        "Boiling Point": "132 °C",
        "Density": "1.230 g/cm³ @ Temp: 19 °C"
    }
}