{
    "cas_no": "696-28-6",
    "key_name": "Phenyldichloroarsine",
    "cn_name": "二氯苯胂;苯胂化二氯;",
    "alternate_name": "Arsonous dichloride, <em>As</em>-phenyl-;Arsine, dichlorophenyl-;Arsonous dichloride, phenyl-;<em>As</em>-Phenylarsonous dichloride;Dichlorophenylarsine;Phenyldichloroarsine;Phenylarsinedichloride;Phenylarsenic dichloride;Pfiffikus;Phenylarsonous dichloride",
    "duplicated_cas_no": "",
    "SMILES": "[As](Cl)(Cl)C1=CC=CC=C1",
    "meta_data": {
        "InChI": "InChI=1S/C6H5AsCl2/c8-7(9)6-4-2-1-3-5-6/h1-5H",
        "InChIKey": null,
        "Canonical SMILES": "Cl[As](Cl)C=1C=CC=CC1",
        "Molecular Formula": "C<sub>6</sub>H<sub>5</sub>AsCl<sub>2</sub>",
        "Molecular Mass": "222.93",
        "Boiling Point": "255 °C",
        "Melting Point": "-19 °C",
        "Density": "1.6516 g/cm³ @ Temp: 20 °C"
    }
}