{
    "cas_no": "16523-89-0",
    "key_name": "Triallyl phosphine",
    "cn_name": "三烯丙膦;三烯丙膦,97 +%;三烯丙膦;三烯丙基膦;",
    "alternate_name": "Phosphine, tri-2-propen-1-yl-;Phosphine, triallyl-;Phosphine, tri-2-propenyl-;Tri-2-propen-1-ylphosphine;Triallyl phosphine",
    "duplicated_cas_no": "",
    "SMILES": "P(CC=C)(CC=C)CC=C",
    "meta_data": {
        "InChI": "InChI=1S/C9H15P/c1-4-7-10(8-5-2)9-6-3/h4-6H,1-3,7-9H2",
        "InChIKey": null,
        "Canonical SMILES": "C=CCP(CC=C)CC=C",
        "Molecular Formula": "C<sub>9</sub>H<sub>15</sub>P",
        "Molecular Mass": "154.19",
        "Boiling Point": "69 °C @ Press: 13 Torr",
        "Density": "0.997 g/cm³ @ Temp: 25 °C"
    }
}