{
    "cas_no": "111-62-6",
    "key_name": "Ethyl oleate",
    "cn_name": null,
    "alternate_name": "9-Octadecenoic acid (9<em>Z</em>)-, ethyl ester;9-Octadecenoic acid (<em>Z</em>)-, ethyl ester;Oleic acid, ethyl ester;Ethyl oleate;Ethyl <em>cis</em>-9-octadecenoate;Esterol 123;Crodamol EO;Nikkol EOO;Nofable EO 99;Ethyl (<em>Z</em>)-9-octadecenoate;Clearbright E 81S;Ethyl (9<em>Z</em>)-octadecenoate;Aethylis oleas;Nofable EO 85S",
    "duplicated_cas_no": "392657-21-5",
    "SMILES": "C(CCCCC/C=C\\CCCCCCCC)CC(OCC)=O",
    "meta_data": {
        "InChI": "InChI=1S/C20H38O2/c1-3-5-6-7-8-9-10-11-12-13-14-15-16-17-18-19-20(21)22-4-2/h11-12H,3-10,13-19H2,1-2H3/b12-11-",
        "InChIKey": null,
        "Canonical SMILES": "O=C(OCC)CCCCCCCC=CCCCCCCCC",
        "Molecular Formula": "C<sub>20</sub>H<sub>38</sub>O<sub>2</sub>",
        "Molecular Mass": "310.51",
        "Boiling Point": "195-200 °C @ Press: 10 Torr",
        "Melting Point": "-24.3 °C",
        "Density": "0.8842 g/cm³ @ Temp: 27 °C"
    }
}