{
    "cas_no": "3096-52-4",
    "key_name": "2-Nitrofluorenone",
    "cn_name": "2-硝基芴酮;",
    "alternate_name": "9<em>H</em>-Fluoren-9-one, 2-nitro-;Fluoren-9-one, 2-nitro-;2-Nitro-9<em>H</em>-fluoren-9-one;2-Nitrofluorenone;2-Nitrofluoren-9-one;9-Oxo-2-nitrofluorene;NSC 12365",
    "duplicated_cas_no": "",
    "SMILES": "O=C1C=2C(C=3C1=CC=CC3)=CC=C(N(=O)=O)C2",
    "meta_data": {
        "InChI": "InChI=1S/C13H7NO3/c15-13-11-4-2-1-3-9(11)10-6-5-8(14(16)17)7-12(10)13/h1-7H",
        "InChIKey": null,
        "Canonical SMILES": "O=C1C=2C=CC=CC2C=3C=CC(=CC13)N(=O)=O",
        "Molecular Formula": "C<sub>13</sub>H<sub>7</sub>NO<sub>3</sub>",
        "Molecular Mass": "225.20",
        "Melting Point": "217 °C"
    }
}