{
    "cas_no": "142-79-0",
    "key_name": "Heptanedioyl dichloride",
    "cn_name": null,
    "alternate_name": "Heptanedioyl dichloride;Pimeloyl chloride;Pimelyl chloride;Heptanedioyl chloride;Pimelic dichloride;Pentane-1,5-dicarbonyl chloride;Pimeloyl dichloride;Heptane-1,7-dioic acid chloride;Heptanedioic dichloride;Heptanedioatyl chloride;1,7-Dichloro-1,7-heptanedione;1,7-Heptanedioyl dichloride",
    "duplicated_cas_no": "73451-54-4",
    "SMILES": "C(CC(Cl)=O)CCCC(Cl)=O",
    "meta_data": {
        "InChI": "InChI=1S/C7H10Cl2O2/c8-6(10)4-2-1-3-5-7(9)11/h1-5H2",
        "InChIKey": null,
        "Canonical SMILES": "O=C(Cl)CCCCCC(=O)Cl",
        "Molecular Formula": "C<sub>7</sub>H<sub>10</sub>Cl<sub>2</sub>O<sub>2</sub>",
        "Molecular Mass": "197.06",
        "Boiling Point": "137 °C @ Press: 15 Torr",
        "Melting Point": "103-105 °C"
    }
}