{
    "cas_no": "135-62-6",
    "key_name": "3-Hydroxy-<em>N</em>-(2-methoxyphenyl)-2-naphthalenecarboxamide",
    "cn_name": "3-羟基-N-(2-甲氧基苯基)-2-萘甲酰胺;色酚AS-OL;纳夫妥AS-OL;冰染偶合组分20;",
    "alternate_name": "2-Naphthalenecarboxamide, 3-hydroxy-<em>N</em>-(2-methoxyphenyl)-;2-Naphth-<em>o</em>-anisidide, 3-hydroxy-;3-Hydroxy-<em>N</em>-(2-methoxyphenyl)-2-naphthalenecarboxamide;C.I. 37530;Acna Naphthol O;Amanil Naphthol AS-OL;Amarthol AS-OL;Anthonaphthol MF;Azoground OL;Azonaphtol OA;Azotol OA;Brentosyn FR;Celcot RK;Cibanaphthol RK;C.I. Azoic Coupling Component 20;Daito Grounder OL;Diathol BO;Diathol OL;Dragonthol OL;Hiltonaphthol AS-OL;Irganaphthol RK;Kambothol ASOL;<em>N</em>-(<em>o</em>-Methoxyphenyl)-3-hydroxy-2-naphthamide;Mitsui Naphthozol OL;Naftolo MOL;Naphtanilide OL;Naphtazol F;Naphthanil OL;Naphthoide OL;Naphthol AS-OL;Naphtoelan OL;Solunaptol FRL;Tulathol AS-OL;2-Hydroxy-<em>N</em>-(2-methoxyphenyl)-3-naphthamide;2-(3-Hydroxy-2-naphthamido)anisole;3-(<em>o</em>-Methoxyphenylaminocarbonyl)-2-naphthol;1-(2-Hydroxy-3-naphthoylamino)-2-methoxybenzene;2-Hydroxy-3-naphth-<em>o</em>-anisidide;3-Hydroxy-2-naphth-<em>o</em>-anisidide;2-Hydroxy-3-naphthoylamino-2′-methoxybenzene;C.I. Developer 22;Miketazol Developer NLF;3-Hydroxy-2′-methoxy-2-naphthanilide;3-(2-Methoxyphenylcarbamoyl)-2-naphthol;2-Hydroxy-3-naphthoic <em>o</em>-anisidide;2-Hydroxy-3-naphthoic acid 2′-anisidide;2-Hydroxy-3-naphthoic acid <em>o</em>-methoxyanilide;Naphthol AS-DL;Naphthol OL;NSC 50680;Naftol AS-OL;Dycosthol AS-OL;Conazoic BO;Kiwa Grounder OL;Anarthol AS-OL;Hebeithol AS-OL;Napthol ASOL;Blue Base BB;<em>N</em>-(2-Methoxyphenyl)-3-hydroxy-2-naphthamide",
    "duplicated_cas_no": "12235-63-1",
    "SMILES": "C(NC1=C(OC)C=CC=C1)(=O)C2=CC3=C(C=C2O)C=CC=C3",
    "meta_data": {
        "InChI": "InChI=1S/C18H15NO3/c1-22-17-9-5-4-8-15(17)19-18(21)14-10-12-6-2-3-7-13(12)11-16(14)20/h2-11,20H,1H3,(H,19,21)",
        "InChIKey": null,
        "Canonical SMILES": "O=C(NC=1C=CC=CC1OC)C2=CC=3C=CC=CC3C=C2O",
        "Molecular Formula": "C<sub>18</sub>H<sub>15</sub>NO<sub>3</sub>",
        "Molecular Mass": "293.32",
        "Melting Point": "162-164 °C"
    }
}