{
    "cas_no": "946-99-6",
    "key_name": "Methyl 3-[4-(bromomethyl)phenyl]-2-propenoate",
    "cn_name": "4-溴甲基肉桂酸甲酯;",
    "alternate_name": "2-Propenoic acid, 3-[4-(bromomethyl)phenyl]-, methyl ester;Cinnamic acid, <em>p</em>-(bromomethyl)-, methyl ester;Methyl 3-[4-(bromomethyl)phenyl]-2-propenoate;Methyl 4-bromomethylcinnamate;3-(4-Bromomethylphenyl)acrylic acid methyl ester",
    "duplicated_cas_no": "",
    "SMILES": "C(=CC(OC)=O)C1=CC=C(CBr)C=C1",
    "meta_data": {
        "InChI": "InChI=1S/C11H11BrO2/c1-14-11(13)7-6-9-2-4-10(8-12)5-3-9/h2-7H,8H2,1H3",
        "InChIKey": null,
        "Canonical SMILES": "O=C(OC)C=CC1=CC=C(C=C1)CBr",
        "Molecular Formula": "C<sub>11</sub>H<sub>11</sub>BrO<sub>2</sub>",
        "Molecular Mass": "255.11",
        "Melting Point": "62-63 °C"
    }
}