{
    "cas_no": "4385-56-2",
    "key_name": "3,5-Dimethoxy-4-hydroxyphenylacetic acid",
    "cn_name": "3,5-二甲氧基-4-羟基苯乙酸;",
    "alternate_name": "Benzeneacetic acid, 4-hydroxy-3,5-dimethoxy-;Acetic acid, (4-hydroxy-3,5-dimethoxyphenyl)-;4-Hydroxy-3,5-dimethoxybenzeneacetic acid;Homosyringic acid;4-Hydroxy-3,5-dimethoxyphenylacetic acid;3,5-Dimethoxy-4-hydroxyphenylacetic acid;2-(4-Hydroxy-3,5-dimethoxyphenyl)acetic acid",
    "duplicated_cas_no": "",
    "SMILES": "C(C(O)=O)C1=CC(OC)=C(O)C(OC)=C1",
    "meta_data": {
        "InChI": "InChI=1S/C10H12O5/c1-14-7-3-6(5-9(11)12)4-8(15-2)10(7)13/h3-4,13H,5H2,1-2H3,(H,11,12)",
        "InChIKey": null,
        "Canonical SMILES": "O=C(O)CC1=CC(OC)=C(O)C(OC)=C1",
        "Molecular Formula": "C<sub>10</sub>H<sub>12</sub>O<sub>5</sub>",
        "Molecular Mass": "212.20",
        "Melting Point": "130-131 °C"
    }
}