{
    "cas_no": "33402-03-8",
    "key_name": "Metaraminol bitartrate",
    "cn_name": "重酒石酸间羟胺;(-)-alpha-(1-氨乙基)-3-羟基苯甲醇重酒石酸盐;",
    "alternate_name": "Benzenemethanol, α-[(1<em>S</em>)-1-aminoethyl]-3-hydroxy-, (α<em>R</em>)-, (2<em>R</em>,3<em>R</em>)-2,3-dihydroxybutanedioate (1:1);Benzyl alcohol, α-(1-aminoethyl)-<em>m</em>-hydroxy-, (-)-, tartrate (1:1) (salt);Benzenemethanol, α-(1-aminoethyl)-3-hydroxy-, [<em>R</em>-(<em>R</em>*,<em>S</em>*)]-, [<em>R</em>-(<em>R</em>*,<em>R</em>*)]-2,3-dihydroxybutanedioate (1:1) (salt);Benzenemethanol, α-[(1<em>S</em>)-1-aminoethyl]-3-hydroxy-, (α<em>R</em>)-, (2<em>R</em>,3<em>R</em>)-2,3-dihydroxybutanedioate (1:1) (salt);Aramine;Metaraminol bitartrate;(-)-Metaraminol bitartrate;Metaraminol tartrate;Metaradrine bitartrate;Aramine (sympathomimetic);Metaraminol hydrogen tartrate;Pressorol;Icoral B",
    "duplicated_cas_no": "17171-57-2;36699-41-9",
    "SMILES": "[C@@H]([C@H](C(O)=O)O)(C(O)=O)O.[C@@H]([C@H](C)N)(O)C1=CC(O)=CC=C1",
    "meta_data": {
        "InChI": "InChI=1S/C9H13NO2.C4H6O6/c1-6(10)9(12)7-3-2-4-8(11)5-7;5-1(3(7)8)2(6)4(9)10/h2-6,9,11-12H,10H2,1H3;1-2,5-6H,(H,7,8)(H,9,10)/t6-,9-;1-,2-/m01/s1",
        "InChIKey": null,
        "Canonical SMILES": "O=C(O)C(O)C(O)C(=O)O.OC1=CC=CC(=C1)C(O)C(N)C",
        "Molecular Formula": "C<sub>9</sub>H<sub>13</sub>NO<sub>2</sub>.C<sub>4</sub>H<sub>6</sub>O<sub>6</sub>",
        "Molecular Mass": "",
        "Melting Point": "176-177 °C"
    }
}