{
    "cas_no": "112-66-3",
    "key_name": "Dodecyl acetate",
    "cn_name": null,
    "alternate_name": "Acetic acid, dodecyl ester;Dodecyl alcohol acetate;1-Dodecanol acetate;Dodecyl acetate;Lauryl acetate;Dodecan-1-yl acetate;Dodecanol acetate;Dodecanyl acetate;1-Dodecyl acetate;<em>n</em>-Dodecyl acetate;Okimelanolure;NSC 67366",
    "duplicated_cas_no": "70808-58-1",
    "SMILES": "C(CCCCCCCC)CCCOC(C)=O",
    "meta_data": {
        "InChI": "InChI=1S/C14H28O2/c1-3-4-5-6-7-8-9-10-11-12-13-16-14(2)15/h3-13H2,1-2H3",
        "InChIKey": null,
        "Canonical SMILES": "O=C(OCCCCCCCCCCCC)C",
        "Molecular Formula": "C<sub>14</sub>H<sub>28</sub>O<sub>2</sub>",
        "Molecular Mass": "228.37",
        "Boiling Point": "265 °C",
        "Melting Point": "1.3 °C",
        "Density": "0.85893 g/cm³ @ Temp: 25.00 °C"
    }
}