{
    "cas_no": "137-19-9",
    "key_name": "4,6-Dichlororesorcinol",
    "cn_name": "4,6-二氯雷琐酚;4,6-二氯间苯二酚;",
    "alternate_name": "1,3-Benzenediol, 4,6-dichloro-;Resorcinol, 4,6-dichloro-;4,6-Dichloro-1,3-benzenediol;4,6-Dichlororesorcinol;4,6-Dichlororesorcin;1,5-Dichloro-2,4-dihydroxybenzene;NSC 60650",
    "duplicated_cas_no": "",
    "SMILES": "ClC1=C(O)C=C(O)C(Cl)=C1",
    "meta_data": {
        "InChI": "InChI=1S/C6H4Cl2O2/c7-3-1-4(8)6(10)2-5(3)9/h1-2,9-10H",
        "InChIKey": null,
        "Canonical SMILES": "ClC=1C=C(Cl)C(O)=CC1O",
        "Molecular Formula": "C<sub>6</sub>H<sub>4</sub>Cl<sub>2</sub>O<sub>2</sub>",
        "Molecular Mass": "179.00",
        "Boiling Point": "254 °C",
        "Melting Point": "113 °C"
    }
}