{
    "cas_no": "141-83-3",
    "key_name": "Guanylurea",
    "cn_name": null,
    "alternate_name": "Urea, <em>N</em>-(aminoiminomethyl)-;Urea, amidino-;Urea, (aminoiminomethyl)-;<em>N</em>-(Aminoiminomethyl)urea;Amidinourea;Dicyandiamidine;Guanylurea;Guanidine, (aminocarbonyl)-;1-Amidinourea;<em>N</em>-Carbamoylguanidine;<em>N</em>-Amidinourea;Guanidinecarboxamide;1-Carbamoylguanidine",
    "duplicated_cas_no": "10310-28-8;36739-56-7;1608481-20-4;2242107-54-4",
    "SMILES": "N(C(=N)N)C(N)=O",
    "meta_data": {
        "InChI": "InChI=1S/C2H6N4O/c3-1(4)6-2(5)7/h(H6,3,4,5,6,7)",
        "InChIKey": null,
        "Canonical SMILES": "O=C(N)NC(=N)N",
        "Molecular Formula": "C<sub>2</sub>H<sub>6</sub>N<sub>4</sub>O",
        "Molecular Mass": "102.10",
        "Melting Point": "105 °C"
    }
}