{
    "cas_no": "64902-72-3",
    "key_name": "Chlorsulfuron",
    "cn_name": "氯磺隆;3-(4-甲氧基-6-甲基-1,3,5-三嗪-2-基)-1-(2-氯苯基)磺酰脲;",
    "alternate_name": "Benzenesulfonamide, 2-chloro-<em>N</em>-[[(4-methoxy-6-methyl-1,3,5-triazin-2-yl)amino]carbonyl]-;2-Chloro-<em>N</em>-[[(4-methoxy-6-methyl-1,3,5-triazin-2-yl)amino]carbonyl]benzenesulfonamide;DPX 4189;Chlorsulfuron;Glean;Glean 20DF;DPX-W 4189;W 4189;Tuligen;<em>N</em>-(2-Chlorophenyl)sulfonyl-<em>N</em>′-(4-methyl-6-methoxy-2-triazinyl)urea;Khardin;Glean 75DF;Glean 75;Kartes;Kortes;Luhuanglong;Glean XP",
    "duplicated_cas_no": "112143-77-8",
    "SMILES": "S(NC(NC=1N=C(OC)N=C(C)N1)=O)(=O)(=O)C2=C(Cl)C=CC=C2",
    "meta_data": {
        "InChI": "InChI=1S/C12H12ClN5O4S/c1-7-14-10(17-12(15-7)22-2)16-11(19)18-23(20,21)9-6-4-3-5-8(9)13/h3-6H,1-2H3,(H2,14,15,16,17,18,19)",
        "InChIKey": null,
        "Canonical SMILES": "O=C(NC1=NC(=NC(=N1)C)OC)NS(=O)(=O)C=2C=CC=CC2Cl",
        "Molecular Formula": "C<sub>12</sub>H<sub>12</sub>ClN<sub>5</sub>O<sub>4</sub>S",
        "Molecular Mass": "357.77",
        "Melting Point": "174-178 °C"
    }
}