{
    "cas_no": "36052-25-2",
    "key_name": "3-Pyridinecarboxylic acid, 5-amino-, methyl ester",
    "cn_name": null,
    "alternate_name": "3-Pyridinecarboxylic acid, 5-amino-, methyl ester;3-Amino-5-(methoxycarbonyl)pyridine;5-Aminonicotinic acid methyl ester;Methyl 5-aminonicotinate;Methyl 5-amino-3-pyridinecarboxylate",
    "duplicated_cas_no": "",
    "SMILES": "C(OC)(=O)C=1C=C(N)C=NC1",
    "meta_data": {
        "InChI": "InChI=1S/C7H8N2O2/c1-11-7(10)5-2-6(8)4-9-3-5/h2-4H,8H2,1H3",
        "InChIKey": null,
        "Canonical SMILES": "O=C(OC)C=1C=NC=C(N)C1",
        "Molecular Formula": "C<sub>7</sub>H<sub>8</sub>N<sub>2</sub>O<sub>2</sub>",
        "Molecular Mass": "152.15",
        "Melting Point": "135-137 °C"
    }
}