{
    "cas_no": "29079-00-3",
    "key_name": "4-Ethynyl-1,1′-biphenyl",
    "cn_name": "4-乙炔基联苯基;",
    "alternate_name": "1,1′-Biphenyl, 4-ethynyl-;Biphenyl, 4-ethynyl-;4-Ethynyl-1,1′-biphenyl;4-Ethynylbiphenyl;4-Biphenylylacetylene;<em>p</em>-Biphenylacetylene;4-Biphenylacetylene;LY 81979;(<em>p</em>-Phenyl)phenylacetylene;(4-Phenylphenyl)ethyne;(1,1′-Biphenyl-4-yl)acetylene;1-Phenyl-4-ethynylbenzene;<em>p</em>-Phenylethynylbenzene;1-Ethynyl-4-phenylbenzene;(4-Phenylphenyl)acetylene;4-Phenylphenylacetylene;(1,1′-Biphenyl-4-yl)ethyne",
    "duplicated_cas_no": "",
    "SMILES": "C(#C)C1=CC=C(C=C1)C2=CC=CC=C2",
    "meta_data": {
        "InChI": "InChI=1S/C14H10/c1-2-12-8-10-14(11-9-12)13-6-4-3-5-7-13/h1,3-11H",
        "InChIKey": null,
        "Canonical SMILES": "C#CC=1C=CC(=CC1)C=2C=CC=CC2",
        "Molecular Formula": "C<sub>14</sub>H<sub>10</sub>",
        "Molecular Mass": "178.23",
        "Boiling Point": "137 °C @ Press: 3 Torr",
        "Melting Point": "86.0-88.0 °C"
    }
}