{
    "cas_no": "125814-23-5",
    "key_name": "Phenylmethyl (4<em>S</em>)-4-methyl-2,5-dioxo-3-oxazolidinecarboxylate",
    "cn_name": null,
    "alternate_name": "3-Oxazolidinecarboxylic acid, 4-methyl-2,5-dioxo-, phenylmethyl ester, (4<em>S</em>)-;3-Oxazolidinecarboxylic acid, 4-methyl-2,5-dioxo-, phenylmethyl ester, (<em>S</em>)-;Phenylmethyl (4<em>S</em>)-4-methyl-2,5-dioxo-3-oxazolidinecarboxylate;(<em>S</em>)-3-Benzyloxycarbonyl-4-methyl-2,5-oxazolidinedione;Benzyl (<em>S</em>)-4-methyl-2,5-dioxo-1,3-oxazolidine-3-carboxylate;(<em>S</em>)-Benzyl 4-methyl-2,5-dioxooxazolidine-3-carboxylate",
    "duplicated_cas_no": "",
    "SMILES": "C(OCC1=CC=CC=C1)(=O)N2[C@@H](C)C(=O)OC2=O",
    "meta_data": {
        "InChI": "InChI=1S/C12H11NO5/c1-8-10(14)18-12(16)13(8)11(15)17-7-9-5-3-2-4-6-9/h2-6,8H,7H2,1H3/t8-/m0/s1",
        "InChIKey": null,
        "Canonical SMILES": "O=C1OC(=O)C(N1C(=O)OCC=2C=CC=CC2)C",
        "Molecular Formula": "C<sub>12</sub>H<sub>11</sub>NO<sub>5</sub>",
        "Molecular Mass": "249.22",
        "Melting Point": "101-104 °C"
    }
}