{
    "cas_no": "7783-06-4",
    "key_name": "Hydrogen sulfide",
    "cn_name": "硫化氢;硫化氢(液体);",
    "alternate_name": "Hydrogen sulfide (H<sub>2</sub>S);Hydrosulfuric acid;Stink damp;Sulfureted hydrogen;Sulfur hydride;Hydrogen sulfide;Dihydrogen sulfide;Dihydrogen monosulfide;Sulfur dihydride;Sulfur hydride (SH<sub>2</sub>);MeSH ID: D006862",
    "duplicated_cas_no": "11144-15-3",
    "SMILES": "S",
    "meta_data": {
        "InChI": "InChI=1S/H2S/h1H2",
        "InChIKey": null,
        "Canonical SMILES": "S",
        "Molecular Formula": "H<sub>2</sub>S",
        "Molecular Mass": "",
        "Boiling Point": "-60.33 °C",
        "Melting Point": "-85.49 °C",
        "Density": "0.9539 g/cm³"
    }
}