{
    "cas_no": "1271-54-1",
    "key_name": "Chromium, bis(η<sup>6</sup>-benzene)-",
    "cn_name": "二苯铬;",
    "alternate_name": "Chromium, bis(η<sup>6</sup>-benzene)-;Chromium, bis(benzene)-;Bis(benzene)chromium;Dibenzenechromium;π-Bis(benzene)chromium(0);Bis(benzene)chromium(0);Di(η<sup>6</sup>-benzene)chromium;Bis(η<sup>6</sup>-benzene)chromium",
    "duplicated_cas_no": "848779-22-6",
    "SMILES": "[Cr]123456789%10([CH]=%11[CH]1=[CH]2[CH]3=[CH]4[CH]5%11)[CH]=%12[CH]6=[CH]7[CH]8=[CH]9[CH]%10%12",
    "meta_data": {
        "InChI": "InChI=1S/2C6H6.Cr/c2*1-2-4-6-5-3-1;/h2*1-6H;",
        "InChIKey": null,
        "Canonical SMILES": "[CH]=12[CH]3=[CH]4[CH]5=[CH]6[CH]1[Cr]23465789%10%11[CH]=%12[CH]%11=[CH]%10[CH]9=[CH]8[CH]%127",
        "Molecular Formula": "C<sub>12</sub>H<sub>12</sub>Cr",
        "Molecular Mass": "",
        "Melting Point": "282-284 °C"
    }
}