{
    "cas_no": "511-08-0",
    "key_name": "Ergocristine",
    "cn_name": "麦角克碱;麦角克碱;麦角脊亭；爱谷克列斯汀碱;",
    "alternate_name": "Ergotaman-3′,6′,18-trione, 12′-hydroxy-2′-(1-methylethyl)-5′-(phenylmethyl)-, (5′α)-;Ergocristine;Indolo[4,3-<em>fg</em>]quinoline, ergotaman-3′,6′,18-trione deriv.;8<em>H</em>-Oxazolo[3,2-<em>a</em>]pyrrolo[2,1-<em>c</em>]pyrazine, ergotaman-3′,6′,18-trione deriv.;(5′α)-12′-Hydroxy-2′-(1-methylethyl)-5′-(phenylmethyl)ergotaman-3′,6′,18-trione;Ergocrystine;NSC 93743",
    "duplicated_cas_no": "22973-77-9;24177-05-7;1080515-62-3",
    "SMILES": "O[C@@]12N([C@@H](CC3=CC=CC=C3)C(=O)N4[C@]1(CCC4)[H])C(=O)[C@@](NC(=O)[C@@H]5C=C6C=7C=8C(C[C@]6(N(C)C5)[H])=CNC8C=CC7)(C(C)C)O2",
    "meta_data": {
        "InChI": "InChI=1S/C35H39N5O5/c1-20(2)34(37-31(41)23-16-25-24-11-7-12-26-30(24)22(18-36-26)17-27(25)38(3)19-23)33(43)40-28(15-21-9-5-4-6-10-21)32(42)39-14-8-13-29(39)35(40,44)45-34/h4-7,9-12,16,18,20,23,27-29,36,44H,8,13-15,17,19H2,1-3H3,(H,37,41)/t23-,27-,28+,29+,34-,35+/m1/s1",
        "InChIKey": null,
        "Canonical SMILES": "O=C(NC1(OC2(O)N(C1=O)C(C(=O)N3CCCC32)CC=4C=CC=CC4)C(C)C)C5C=C6C=7C=CC=C8NC=C(C87)CC6N(C)C5",
        "Molecular Formula": "C<sub>35</sub>H<sub>39</sub>N<sub>5</sub>O<sub>5</sub>",
        "Molecular Mass": "609.71",
        "Melting Point": "155-157 °C (decomp)"
    }
}