{
    "cas_no": "19879-84-6",
    "key_name": "Tetra-<em>O</em>-acetyl-1-thio-β-<span class=\"text-smallcaps\">D</span>-glucopyranose",
    "cn_name": "1-硫代-b-D-葡萄糖四乙酸酯;",
    "alternate_name": "β-<span class=\"text-smallcaps\">D</span>-Glucopyranose, 1-thio-, 2,3,4,6-tetraacetate;Glucopyranose, 1-thio-, 2,3,4,6-tetraacetate, β-<span class=\"text-smallcaps\">D</span>-;Glucopyranose, 1-thio-, 2,3,4,6-tetraacetate;2,3,4,6-Tetra-<em>O</em>-acetyl-1-thio-β-<span class=\"text-smallcaps\">D</span>-glucopyranose;Tetra-<em>O</em>-acetyl-1-thio-β-<span class=\"text-smallcaps\">D</span>-glucopyranose;β-<span class=\"text-smallcaps\">D</span>-Thioglucopyranose 2,3,4,6-tetraacetate;SKF 83940D;1-Thio-β-<span class=\"text-smallcaps\">D</span>-glucopyranose tetraacetate;1-Thio-β-<span class=\"text-smallcaps\">D</span>-glucose tetraacetate;NSC 97032;2,3,4,6-Tetra-<em>O</em>-acetyl-1-thio-β-<span class=\"text-smallcaps\">D</span>-glucopyranoside;2,3,4,6-Tetra-<em>O</em>-acetyl-1-thio-β-<span class=\"text-smallcaps\">D</span>-glycopyranose;2,3,4,6-Tetra-<em>O</em>-acetyl-β-<span class=\"text-smallcaps\">D</span>-1-thioglucopyranoside;2,3,4,6-Tetra-<em>O</em>-acetyl-1-thio-β-<span class=\"text-smallcaps\">D</span>-glucose",
    "duplicated_cas_no": "70143-39-4;1407804-67-4;1998167-93-3;2809368-77-0",
    "SMILES": "O(C(C)=O)[C@H]1[C@H](OC(C)=O)[C@@H](COC(C)=O)O[C@@H](S)[C@@H]1OC(C)=O",
    "meta_data": {
        "InChI": "InChI=1S/C14H20O9S/c1-6(15)19-5-10-11(20-7(2)16)12(21-8(3)17)13(14(24)23-10)22-9(4)18/h10-14,24H,5H2,1-4H3/t10-,11-,12+,13-,14+/m1/s1",
        "InChIKey": null,
        "Canonical SMILES": "O=C(OCC1OC(S)C(OC(=O)C)C(OC(=O)C)C1OC(=O)C)C",
        "Molecular Formula": "C<sub>14</sub>H<sub>20</sub>O<sub>9</sub>S",
        "Molecular Mass": "364.37",
        "Melting Point": "74-75 °C"
    }
}