{
    "cas_no": "57-41-0",
    "key_name": "Phenytoin",
    "cn_name": "苯妥英;5,5-二苯基海因;",
    "alternate_name": "2,4-Imidazolidinedione, 5,5-diphenyl-;Hydantoin, 5,5-diphenyl-;5,5-Diphenyl-2,4-imidazolidinedione;Denyl;Dihycon;Di-Lan;Dintoina;Diphantoin;Diphedan;Diphenylhydantoin;DPH;Hidantal;Lepitoin;Phenytoin;Sodanton;Zentropil;Aleviatin;Di-Hydan;Dilabid;Phenytoine;5,5-Diphenylhydantoin;Diphenylan;Lehydan;Hydantol;Ekko;NSC 8722;Diphenat;5,5-Diphenyl-1<em>H</em>-imidazolidine-2,4-dione;Phenytek;5,5-Diphenylimidazoline-2,4-dione;Phenytoinum;Phenytin;Ipanten;MeSH ID: D010672",
    "duplicated_cas_no": "125-59-7;1061190-62-2",
    "SMILES": "O=C1C(NC(=O)N1)(C2=CC=CC=C2)C3=CC=CC=C3",
    "meta_data": {
        "InChI": "InChI=1S/C15H12N2O2/c18-13-15(17-14(19)16-13,11-7-3-1-4-8-11)12-9-5-2-6-10-12/h1-10H,(H2,16,17,18,19)",
        "InChIKey": null,
        "Canonical SMILES": "O=C1NC(=O)C(N1)(C=2C=CC=CC2)C=3C=CC=CC3",
        "Molecular Formula": "C<sub>15</sub>H<sub>12</sub>N<sub>2</sub>O<sub>2</sub>",
        "Molecular Mass": "252.27",
        "Melting Point": "286 °C",
        "Density": "1.26 g/cm³"
    }
}