{
    "cas_no": "14221-02-4",
    "key_name": "Tetrakis(triphenylphosphine)platinum",
    "cn_name": "四(三苯基膦)钯;",
    "alternate_name": "Platinum, tetrakis(triphenylphosphine)-, (<em>T</em>-4)-;Platinum, tetrakis(triphenylphosphine)-;(<em>T</em>-4)-Tetrakis(triphenylphosphine)platinum;Tetrakis(triphenylphosphine)platinum",
    "duplicated_cas_no": "31227-45-9",
    "SMILES": "[Pt]([P](C1=CC=CC=C1)(C2=CC=CC=C2)C3=CC=CC=C3)([P](C4=CC=CC=C4)(C5=CC=CC=C5)C6=CC=CC=C6)([P](C7=CC=CC=C7)(C8=CC=CC=C8)C9=CC=CC=C9)[P](C%10=CC=CC=C%10)(C%11=CC=CC=C%11)C%12=CC=CC=C%12",
    "meta_data": {
        "InChI": "InChI=1S/4C18H15P.Pt/c4*1-4-10-16(11-5-1)19(17-12-6-2-7-13-17)18-14-8-3-9-15-18;/h4*1-15H;",
        "InChIKey": null,
        "Canonical SMILES": "C=1C=CC(=CC1)[P](C=2C=CC=CC2)(C=3C=CC=CC3)[Pt]([P](C=4C=CC=CC4)(C=5C=CC=CC5)C=6C=CC=CC6)([P](C=7C=CC=CC7)(C=8C=CC=CC8)C=9C=CC=CC9)[P](C=%10C=CC=CC%10)(C=%11C=CC=CC%11)C=%12C=CC=CC%12",
        "Molecular Formula": "C<sub>72</sub>H<sub>60</sub>P<sub>4</sub>Pt",
        "Molecular Mass": "",
        "Melting Point": "122 °C"
    }
}