{
    "cas_no": "25017-08-7",
    "key_name": "1-(4-Chlorophenyl)-1-pentanone",
    "cn_name": "4-氯苯戊酮;对氯苯戊酮;",
    "alternate_name": "1-Pentanone, 1-(4-chlorophenyl)-;Valerophenone, 4′-chloro-;1-(4-Chlorophenyl)-1-pentanone;<em>p</em>-Chlorovalerophenone;4′-Chlorovalerophenone;4-Chlorophenyl butyl ketone;NSC 76591;1-(4-Chlorophenyl)pentan-1-one",
    "duplicated_cas_no": "",
    "SMILES": "C(CCCC)(=O)C1=CC=C(Cl)C=C1",
    "meta_data": {
        "InChI": "InChI=1S/C11H13ClO/c1-2-3-4-11(13)9-5-7-10(12)8-6-9/h5-8H,2-4H2,1H3",
        "InChIKey": null,
        "Canonical SMILES": "O=C(C1=CC=C(Cl)C=C1)CCCC",
        "Molecular Formula": "C<sub>11</sub>H<sub>13</sub>ClO",
        "Molecular Mass": "196.67",
        "Boiling Point": "140 °C @ Press: 12 Torr",
        "Melting Point": "32-32.5 °C"
    }
}