{
    "cas_no": "35400-43-2",
    "key_name": "Sulprofos",
    "cn_name": "甲丙硫磷;甲丙硫磷;硫丙磷;O-乙基-O-(4-甲硫基)苯基-S-丙基二硫代磷酸酯;O-乙基O-(4-甲硫基苯基)S-丙基二硫;",
    "alternate_name": "Phosphorodithioic acid, <em>O</em>-ethyl <em>O</em>-[4-(methylthio)phenyl] <em>S</em>-propyl ester;BAY-NTN 9306;NTN 9306;Bayer NTN 9306;Bolstar;Sulprofos;Helothion;<em>O</em>-Ethyl <em>O</em>-(4-methylthiophenyl) <em>S</em>-propyl dithiophosphate;Merpafos;Mercaprophos;Mercaprofos;Sulprophos",
    "duplicated_cas_no": "59299-57-9;92642-31-4",
    "SMILES": "P(OC1=CC=C(SC)C=C1)(SCCC)(OCC)=S",
    "meta_data": {
        "InChI": "InChI=1S/C12H19O2PS3/c1-4-10-18-15(16,13-5-2)14-11-6-8-12(17-3)9-7-11/h6-9H,4-5,10H2,1-3H3",
        "InChIKey": null,
        "Canonical SMILES": "S=P(OC1=CC=C(SC)C=C1)(OCC)SCCC",
        "Molecular Formula": "C<sub>12</sub>H<sub>19</sub>O<sub>2</sub>PS<sub>3</sub>",
        "Molecular Mass": "322.45",
        "Boiling Point": "155-158 °C @ Press: 0.1 Torr",
        "Melting Point": "-15 °C",
        "Density": "1.20 g/cm³ @ Temp: 20 °C"
    }
}