{
    "cas_no": "10309-37-2",
    "key_name": "(+)-Bakuchiol",
    "cn_name": null,
    "alternate_name": "Phenol, 4-[(1<em>E</em>,3<em>S</em>)-3-ethenyl-3,7-dimethyl-1,6-octadien-1-yl]-;Phenol, 4-(3-ethenyl-3,7-dimethyl-1,6-octadienyl)-, [<em>S</em>-(<em>E</em>)]-;Bakuchiol;Phenol, 4-[(1<em>E</em>,3<em>S</em>)-3-ethenyl-3,7-dimethyl-1,6-octadienyl]-;4-[(1<em>E</em>,3<em>S</em>)-3-Ethenyl-3,7-dimethyl-1,6-octadien-1-yl]phenol;Drupanol;(+)-Bakuchiol;(<em>S</em>)-(+)-Bakuchiol;UP 256;(<em>S</em>)-Bakuchiol;Bakutrol;Sytenol A;Neuvachiol",
    "duplicated_cas_no": "1408-17-9",
    "SMILES": "[C@@](/C=C/C1=CC=C(O)C=C1)(CCC=C(C)C)(C=C)C",
    "meta_data": {
        "InChI": "InChI=1S/C18H24O/c1-5-18(4,13-6-7-15(2)3)14-12-16-8-10-17(19)11-9-16/h5,7-12,14,19H,1,6,13H2,2-4H3/b14-12+/t18-/m1/s1",
        "InChIKey": null,
        "Canonical SMILES": "OC1=CC=C(C=C1)C=CC(C=C)(C)CCC=C(C)C",
        "Molecular Formula": "C<sub>18</sub>H<sub>24</sub>O",
        "Molecular Mass": "256.38",
        "Boiling Point": "145-147 °C @ Press: 0.7 Torr"
    }
}