{
    "cas_no": "19335-11-6",
    "key_name": "1<em>H</em>-Indazol-5-amine",
    "cn_name": "5-氨基吲唑;",
    "alternate_name": "1<em>H</em>-Indazol-5-amine;1<em>H</em>-Indazole, 5-amino-;5-Aminoindazole;5-Amino-1<em>H</em>-indazole;5-Indazolylamine;5-Indazolamine;5-Aminobenzopyrazole;1<em>H</em>-Indazol-5-ylamine;NSC 44676;AC 30454",
    "duplicated_cas_no": "",
    "SMILES": "NC=1C=C2C(=CC1)NN=C2",
    "meta_data": {
        "InChI": "InChI=1S/C7H7N3/c8-6-1-2-7-5(3-6)4-9-10-7/h1-4H,8H2,(H,9,10)",
        "InChIKey": null,
        "Canonical SMILES": "N1=CC=2C=C(N)C=CC2N1",
        "Molecular Formula": "C<sub>7</sub>H<sub>7</sub>N<sub>3</sub>",
        "Molecular Mass": "133.15",
        "Melting Point": "175-178 °C"
    }
}