{
    "cas_no": "107390-08-9",
    "key_name": "Garcinone D",
    "cn_name": null,
    "alternate_name": "9<em>H</em>-Xanthen-9-one, 1,3,6-trihydroxy-8-(3-hydroxy-3-methylbutyl)-7-methoxy-2-(3-methyl-2-buten-1-yl)-;9<em>H</em>-Xanthen-9-one, 1,3,6-trihydroxy-8-(3-hydroxy-3-methylbutyl)-7-methoxy-2-(3-methyl-2-butenyl)-;1,3,6-Trihydroxy-8-(3-hydroxy-3-methylbutyl)-7-methoxy-2-(3-methyl-2-buten-1-yl)-9<em>H</em>-xanthen-9-one;Garcinone D;1,3,6-Trihydroxy-8-(3-hydroxy-3-methylbutyl)-7-methoxy-2-(3-methylbut-2-enyl)xanthen-9-one",
    "duplicated_cas_no": "",
    "SMILES": "C(CC(C)(C)O)C1=C2C(OC=3C(C2=O)=C(O)C(CC=C(C)C)=C(O)C3)=CC(O)=C1OC",
    "meta_data": {
        "InChI": "InChI=1S/C24H28O7/c1-12(2)6-7-13-15(25)10-18-20(21(13)27)22(28)19-14(8-9-24(3,4)29)23(30-5)16(26)11-17(19)31-18/h6,10-11,25-27,29H,7-9H2,1-5H3",
        "InChIKey": null,
        "Canonical SMILES": "O=C1C2=C(O)C(=C(O)C=C2OC3=CC(O)=C(OC)C(=C13)CCC(O)(C)C)CC=C(C)C",
        "Molecular Formula": "C<sub>24</sub>H<sub>28</sub>O<sub>7</sub>",
        "Molecular Mass": "428.47",
        "Melting Point": "202-204 °C"
    }
}