{
    "cas_no": "2140-73-0",
    "key_name": "1-Methylinosine",
    "cn_name": null,
    "alternate_name": "Inosine, 1-methyl-;1-Methylinosine;<em>N</em><sup>1</sup>-Methylinosine",
    "duplicated_cas_no": "55927-68-9",
    "SMILES": "O[C@H]1[C@H](N2C3=C(N=C2)C(=O)N(C)C=N3)O[C@H](CO)[C@H]1O",
    "meta_data": {
        "InChI": "InChI=1S/C11H14N4O5/c1-14-3-13-9-6(10(14)19)12-4-15(9)11-8(18)7(17)5(2-16)20-11/h3-5,7-8,11,16-18H,2H2,1H3/t5-,7-,8-,11-/m1/s1",
        "InChIKey": null,
        "Canonical SMILES": "O=C1C=2N=CN(C2N=CN1C)C3OC(CO)C(O)C3O",
        "Molecular Formula": "C<sub>11</sub>H<sub>14</sub>N<sub>4</sub>O<sub>5</sub>",
        "Molecular Mass": "282.25",
        "Melting Point": "211-212 °C"
    }
}