{
    "cas_no": "28380-24-7",
    "key_name": "Nigericin",
    "cn_name": null,
    "alternate_name": "Nigericin;1,6-Dioxaspiro[4.5]decane, nigericin deriv.;Polyetherin A;X 464;Azalomycin M;Antibiotic X 464;Antibiotic K 178;Helixin C;Stereoisomer of tetrahydro-6-[[9-methoxy-2,4,10-trimethyl-2-[octahydro-2,3′-dimethyl-5′-[tetrahydro-6-hydroxy-6-(hydroxymethyl)-3,5-dimethyl-2<em>H</em>-pyran-2-yl][2,2′-bifuran]-5-yl]-1,6-dioxaspiro[4.5]dec-7-yl]methyl]-α,3-dimethyl-2<em>H</em>-pyran-2-acetic acid;Antibiotic M 2;MeSH ID: D009550",
    "duplicated_cas_no": "1404-09-7;11003-26-2;21469-47-6",
    "SMILES": "C[C@H]1[C@]2(O[C@@](C)(C1)[C@@]3(O[C@@](C)(CC3)[C@@]4(O[C@](C[C@@H]4C)([C@]5(O[C@](CO)(O)[C@H](C)C[C@@H]5C)[H])[H])[H])[H])O[C@H](C[C@@H]6O[C@@]([C@H](C(O)=O)C)([C@@H](C)CC6)[H])C[C@@H](OC)[C@H]2C",
    "meta_data": {
        "InChI": "InChI=1S/C40H68O11/c1-21-11-12-28(46-33(21)26(6)36(42)43)17-29-18-30(45-10)27(7)40(48-29)25(5)19-38(9,51-40)32-13-14-37(8,49-32)35-23(3)16-31(47-35)34-22(2)15-24(4)39(44,20-41)50-34/h21-35,41,44H,11-20H2,1-10H3,(H,42,43)/t21-,22-,23-,24+,25+,26+,27+,28+,29+,30+,31+,32+,33+,34-,35+,37-,38-,39-,40+/m0/s1",
        "InChIKey": null,
        "Canonical SMILES": "O=C(O)C(C)C1OC(CCC1C)CC2OC3(OC(C)(CC3C)C4OC(C)(CC4)C5OC(CC5C)C6OC(O)(CO)C(C)CC6C)C(C)C(OC)C2",
        "Molecular Formula": "C<sub>40</sub>H<sub>68</sub>O<sub>11</sub>",
        "Molecular Mass": "724.96",
        "Melting Point": "183-185 °C"
    }
}