{
    "cas_no": "54301-15-4",
    "key_name": "Amsacrine hydrochloride",
    "cn_name": "盐酸胺苯吖啶;N-[4-(9-吖啶氨基)-3-甲氧苯基]甲基磺酰胺盐酸盐;",
    "alternate_name": "Methanesulfonamide, <em>N</em>-[4-(9-acridinylamino)-3-methoxyphenyl]-, hydrochloride (1:1);Methanesulfonamide, <em>N</em>-[4-(9-acridinylamino)-3-methoxyphenyl]-, monohydrochloride;NSC 141549;4′-(Acridin-9-ylamino)-3′-methoxymethanesulfonanilide hydrochloride;<em>N</em>-[4-(9-Acridinylamino)-3-methoxyphenyl]methanesulfonamide hydrochloride;AMSA hydrochloride;<em>m</em>-AMSA hydrochloride;Amsacrine hydrochloride",
    "duplicated_cas_no": "76095-44-8",
    "SMILES": "N(C=1C2=C(N=C3C1C=CC=C3)C=CC=C2)C4=C(OC)C=C(NS(C)(=O)=O)C=C4.Cl",
    "meta_data": {
        "InChI": "InChI=1S/C21H19N3O3S.ClH/c1-27-20-13-14(24-28(2,25)26)11-12-19(20)23-21-15-7-3-5-9-17(15)22-18-10-6-4-8-16(18)21;/h3-13,24H,1-2H3,(H,22,23);1H",
        "InChIKey": null,
        "Canonical SMILES": "Cl.O=S(=O)(NC1=CC=C(NC=2C=3C=CC=CC3N=C4C=CC=CC42)C(OC)=C1)C",
        "Molecular Formula": "C<sub>21</sub>H<sub>19</sub>N<sub>3</sub>O<sub>3</sub>S.ClH",
        "Molecular Mass": "",
        "Melting Point": "197-199 °C"
    }
}