{
    "cas_no": "91374-23-1",
    "key_name": "2-Methyl-3-nitro-<em>N</em>,<em>N</em>-dipropylbenzeneethanamine",
    "cn_name": "N,N-二丙基-2-甲基-3-硝基苯乙胺;2-甲基-3-硝基-N,N-二正丙基苯乙胺;",
    "alternate_name": "Benzeneethanamine, 2-methyl-3-nitro-<em>N</em>,<em>N</em>-dipropyl-;2-Methyl-3-nitro-<em>N</em>,<em>N</em>-dipropylbenzeneethanamine;<em>N</em>,<em>N</em>-Dipropyl-2-(2-methyl-3-nitrophenyl)ethylamine",
    "duplicated_cas_no": "582305-50-8;936547-73-8",
    "SMILES": "C(CN(CCC)CCC)C1=C(C)C(N(=O)=O)=CC=C1",
    "meta_data": {
        "InChI": "InChI=1S/C15H24N2O2/c1-4-10-16(11-5-2)12-9-14-7-6-8-15(13(14)3)17(18)19/h6-8H,4-5,9-12H2,1-3H3",
        "InChIKey": null,
        "Canonical SMILES": "O=N(=O)C1=CC=CC(=C1C)CCN(CCC)CCC",
        "Molecular Formula": "C<sub>15</sub>H<sub>24</sub>N<sub>2</sub>O<sub>2</sub>",
        "Molecular Mass": "264.36",
        "Boiling Point": "115-120 °C @ Press: 0.1 Torr"
    }
}