{
    "cas_no": "5260-37-7",
    "key_name": "Benzoxazolium, 3-ethyl-2-methyl-, iodide (1:1)",
    "cn_name": "3-乙基-2-甲基苯并噁唑碘化物;3-乙基-2-甲基-苯并恶唑翁碘化物;",
    "alternate_name": "Benzoxazolium, 3-ethyl-2-methyl-, iodide (1:1);Benzoxazolium, 3-ethyl-2-methyl-, iodide;3-Ethyl-2-methylbenzoxazolium iodide;2-Methylbenzoxazole ethiodide;3-Ethyl-2-methylbenzooxazolium iodide;3-Ethyl-2-methylbenzo[<em>d</em>]oxazol-3-ium iodide",
    "duplicated_cas_no": "",
    "SMILES": "C(C)[N+]=1C=2C(OC1C)=CC=CC2.[I-]",
    "meta_data": {
        "InChI": "InChI=1S/C10H12NO.HI/c1-3-11-8(2)12-10-7-5-4-6-9(10)11;/h4-7H,3H2,1-2H3;1H/q+1;/p-1",
        "InChIKey": null,
        "Canonical SMILES": "[I-].O1C=2C=CC=CC2[N+](=C1C)CC",
        "Molecular Formula": "C<sub>10</sub>H<sub>12</sub>NO.I",
        "Molecular Mass": "",
        "Melting Point": "195-197 °C"
    }
}