{
    "cas_no": "4693-02-1",
    "key_name": "5-Nitroisatoic anhydride",
    "cn_name": null,
    "alternate_name": "2<em>H</em>-3,1-Benzoxazine-2,4(1<em>H</em>)-dione, 6-nitro-;6-Nitro-2<em>H</em>-3,1-benzoxazine-2,4(1<em>H</em>)-dione;5-Nitroisatoic anhydride;6-Nitro-1<em>H</em>-benzo[<em>d</em>][1,3]oxazine-2,4-dione;NSC 73615;6-Nitro-benzo[<em>d</em>][1,3]oxazine-2,4-dione",
    "duplicated_cas_no": "",
    "SMILES": "O=C1C=2C(=CC=C(N(=O)=O)C2)NC(=O)O1",
    "meta_data": {
        "InChI": "InChI=1S/C8H4N2O5/c11-7-5-3-4(10(13)14)1-2-6(5)9-8(12)15-7/h1-3H,(H,9,12)",
        "InChIKey": null,
        "Canonical SMILES": "O=C1OC(=O)C2=CC(=CC=C2N1)N(=O)=O",
        "Molecular Formula": "C<sub>8</sub>H<sub>4</sub>N<sub>2</sub>O<sub>5</sub>",
        "Molecular Mass": "208.13",
        "Melting Point": "224-232 °C (decomp)"
    }
}