{
    "cas_no": "3190-71-4",
    "key_name": "γ-Benzyl <span class=\"text-smallcaps\">L</span>-glutamate <em>N</em>-carboxyanhydride",
    "cn_name": null,
    "alternate_name": "4-Oxazolidinepropanoic acid, 2,5-dioxo-, phenylmethyl ester, (4<em>S</em>)-;4-Oxazolidinepropionic acid, 2,5-dioxo-, benzyl ester, <span class=\"text-smallcaps\">L</span>-;4-Oxazolidinepropanoic acid, 2,5-dioxo-, phenylmethyl ester, (<em>S</em>)-;γ-Benzyl <span class=\"text-smallcaps\">L</span>-glutamate <em>N</em>-carboxyanhydride;γ-Benzyl glutamate <em>N</em>-carboxyanhydride;5-Benzyl <span class=\"text-smallcaps\">L</span>-glutamate <em>N</em>-carboxyanhydride;γ-Benzyl <span class=\"text-smallcaps\">L</span>-<em>N</em>-carboxyglutamic anhydride;<em>N</em>-Carboxy-γ-benzyl-<span class=\"text-smallcaps\">L</span>-glutamate anhydride;γ-Benzyl <em>N</em>-carboxy-<span class=\"text-smallcaps\">L</span>-glutamic anhydride;γ-Benzyl-<span class=\"text-smallcaps\">L</span>-glutamic acid carboxyanhydride;(+)-(<em>S</em>)-Glutamic acid γ-benzyl ester <em>N</em>-carboxyanhydride;γ-Benzyl <span class=\"text-smallcaps\">L</span>-glutamate-<em>N</em>-carboxylic anhydride;γ-Benzyl glutamate NCA;<span class=\"text-smallcaps\">L</span>-Glutamic acid-γ-benzyl ester <em>N</em>-carboxyanhydride;<span class=\"text-smallcaps\">L</span>-γ-Benzylglutamic acid carboxyanhydride;γ-Benzyl-<em>N</em>-carboxy-<span class=\"text-smallcaps\">L</span>-glutamate anhydride;γ-Benzyl-<span class=\"text-smallcaps\">L</span>-glutamic acid <em>N</em>-carboxyanhydride;<span class=\"text-smallcaps\">L</span>-Glutamic acid carboxyanhydride γ-benzyl ester;<em>N</em>-Carboxyanhydride γ-benzyl <span class=\"text-smallcaps\">L</span>-glutamate;Benzyl glutamate <em>N</em>-carboxyanhydride",
    "duplicated_cas_no": "1186105-93-0;1334885-24-3",
    "SMILES": "C(CC(OCC1=CC=CC=C1)=O)C2NC(=O)OC2=O",
    "meta_data": {
        "InChI": "InChI=1S/C13H13NO5/c15-11(18-8-9-4-2-1-3-5-9)7-6-10-12(16)19-13(17)14-10/h1-5,10H,6-8H2,(H,14,17)",
        "InChIKey": null,
        "Canonical SMILES": "O=C1OC(=O)C(N1)CCC(=O)OCC=2C=CC=CC2",
        "Molecular Formula": "C<sub>13</sub>H<sub>13</sub>NO<sub>5</sub>",
        "Molecular Mass": "263.25",
        "Melting Point": "96.5-97.5 °C"
    }
}