{
    "cas_no": "18733-15-8",
    "key_name": "Methyl 3-(dimethoxyphosphinyl)propanoate",
    "cn_name": null,
    "alternate_name": "Propanoic acid, 3-(dimethoxyphosphinyl)-, methyl ester;Propionic acid, 3-phosphono-, trimethyl ester;Methyl 3-(dimethoxyphosphinyl)propanoate;Dimethyl (2-methoxycarbonylethyl)phosphonate;Dimethyl (2-methoxycarbonylethane)phosphonate;Methyl 3-(dimethoxyphosphinyl)propionate;Trimethyl (2-carboxyethyl)phosphonate;Trimethyl 3-phosphonopropionate;3-Dimethoxyphosphoryl-propionic acid methyl ester",
    "duplicated_cas_no": "",
    "SMILES": "P(CCC(OC)=O)(OC)(OC)=O",
    "meta_data": {
        "InChI": "InChI=1S/C6H13O5P/c1-9-6(7)4-5-12(8,10-2)11-3/h4-5H2,1-3H3",
        "InChIKey": null,
        "Canonical SMILES": "O=C(OC)CCP(=O)(OC)OC",
        "Molecular Formula": "C<sub>6</sub>H<sub>13</sub>O<sub>5</sub>P",
        "Molecular Mass": "196.14",
        "Boiling Point": "137-138 °C @ Press: 10 Torr",
        "Density": "1.2170 g/cm³ @ Temp: 420 °C"
    }
}