{
    "cas_no": "924-49-2",
    "key_name": "4-Amino-3-hydroxybutanoic acid",
    "cn_name": null,
    "alternate_name": "Butanoic acid, 4-amino-3-hydroxy-;Butyric acid, 4-amino-3-hydroxy-, <span class=\"text-smallcaps\">DL</span>-;Butanoic acid, 4-amino-3-hydroxy-, (±)-;Butyric acid, γ-amino-β-hydroxy-;4-Amino-3-hydroxybutanoic acid;<span class=\"text-smallcaps\">DL</span>-β-Hydroxy-γ-aminobutyric acid;<span class=\"text-smallcaps\">DL</span>-γ-Amino-β-hydroxybutyric acid;<span class=\"text-smallcaps\">DL</span>-3-Hydroxy-4-aminobutyric acid;(±)-3-Hydroxy-4-aminobutanoic acid;<span class=\"text-smallcaps\">DL</span>-4-Amino-3-hydroxybutanoic acid;(<em>RS</em>)-γ-Amino-β-hydroxybutyric acid;(±)-4-Amino-3-hydroxybutanoic acid;(<em>RS</em>)-3-Hydroxy-γ-aminobutyric acid;<span class=\"text-smallcaps\">DL</span>-4-Amino-3-hydroxybutyric acid;(±)-β-Hydroxy-GABA;(<em>RS</em>)-4-Amino-3-hydroxybutanoic acid;(±)-4-Amino-3-hydroxybutyric acid;γ-Amino-β-hydroxybutyric acid;4-Amino-3-hydroxybutyric acid;Buxamine;GABOB;Gamibetal;Gaminal;3-Hydroxy-4-aminobutyric acid;β-Hydroxy-γ-aminobutyric acid;Buksamin;Gabomade;3-Hydroxy-GABA;Bogil;Idramina;Gabobe;Gaboril;β-Hydroxy-GABA;3-Hydroxy-4-aminobutanoic acid;NSC 40244;gamma-Amino-beta-hydroxybutyric acid",
    "duplicated_cas_no": "352-21-6",
    "SMILES": "C(CC(O)=O)(CN)O",
    "meta_data": {
        "InChI": "InChI=1S/C4H9NO3/c5-2-3(6)1-4(7)8/h3,6H,1-2,5H2,(H,7,8)",
        "InChIKey": null,
        "Canonical SMILES": "O=C(O)CC(O)CN",
        "Molecular Formula": "C<sub>4</sub>H<sub>9</sub>NO<sub>3</sub>",
        "Molecular Mass": "119.12",
        "Melting Point": "214 °C"
    }
}