{
    "cas_no": "33509-43-2",
    "key_name": "4-Amino-6-(1,1-dimethylethyl)-3,4-dihydro-3-thioxo-1,2,4-triazin-5(2<em>H</em>)-one",
    "cn_name": "4-氨基-6-叔丁基-3-巯基-1,2,4-三嗪-5(4H)-酮;",
    "alternate_name": "1,2,4-Triazin-5(2<em>H</em>)-one, 4-amino-6-(1,1-dimethylethyl)-3,4-dihydro-3-thioxo-;<em>as</em>-Triazin-5(4<em>H</em>)-one, 4-amino-6-<em>tert</em>-butyl-3-mercapto-;4-Amino-6-(1,1-dimethylethyl)-3,4-dihydro-3-thioxo-1,2,4-triazin-5(2<em>H</em>)-one;4-Amino-6-<em>tert</em>-butyl-3-mercapto-1,2,4-triazin-5(4<em>H</em>)-one;4-Amino-6-<em>tert</em>-butyl-3-mercapto-1,2,4-triazin-5-one;4-Amino-6-(<em>tert</em>-butyl)-4<em>H</em>-1,2,4-triazine-3-thione-5-one",
    "duplicated_cas_no": "",
    "SMILES": "C(C)(C)(C)C=1C(=O)N(N)C(=S)NN1",
    "meta_data": {
        "InChI": "InChI=1S/C7H12N4OS/c1-7(2,3)4-5(12)11(8)6(13)10-9-4/h8H2,1-3H3,(H,10,13)",
        "InChIKey": null,
        "Canonical SMILES": "O=C1C(=NNC(=S)N1N)C(C)(C)C",
        "Molecular Formula": "C<sub>7</sub>H<sub>12</sub>N<sub>4</sub>OS",
        "Molecular Mass": "200.26",
        "Melting Point": "215 °C"
    }
}