{
    "cas_no": "938-79-4",
    "key_name": "(-)-2-Phenylbutyric acid",
    "cn_name": "(R)-(-)-2-苯基丁酸;",
    "alternate_name": "Benzeneacetic acid, α-ethyl-, (α<em>R</em>)-;Butyric acid, 2-phenyl-, (<em>R</em>)-(-)-;Benzeneacetic acid, α-ethyl-, (<em>R</em>)-;(α<em>R</em>)-α-Ethylbenzeneacetic acid;(<em>R</em>)-(-)-α-Ethylphenylacetic acid;(-)-2-Phenylbutyric acid;(-)-α-Phenylbutyric acid;(<em>R</em>)-(-)-2-Phenylbutanoic acid;(<em>R</em>)-2-Phenylbutanoic acid;(<em>R</em>)-2-Phenylbutyric acid;(<em>R</em>)-(-)-2-Phenylbutyric acid;(-)-2-Phenylbutanoic acid;(<em>R</em>)-α-Ethylbenzeneacetic acid;(-)-(<em>R</em>)-2-Phenylbutyric acid;(2<em>R</em>)-2-Phenylbutyric acid;(2<em>R</em>)-2-Phenylbutanoic acid;(2R)-2-Phenylbutanoic acid;(r)-2-Phenylbutanoic acid;(R)-(-)-2-Phenylbutyric acid",
    "duplicated_cas_no": "",
    "SMILES": "[C@@H](C(O)=O)(CC)C1=CC=CC=C1",
    "meta_data": {
        "InChI": "InChI=1S/C10H12O2/c1-2-9(10(11)12)8-6-4-3-5-7-8/h3-7,9H,2H2,1H3,(H,11,12)/t9-/m1/s1",
        "InChIKey": null,
        "Canonical SMILES": "O=C(O)C(C=1C=CC=CC1)CC",
        "Molecular Formula": "C<sub>10</sub>H<sub>12</sub>O<sub>2</sub>",
        "Molecular Mass": "164.20",
        "Melting Point": "40-42 °C"
    }
}