{
    "cas_no": "1937-19-5",
    "key_name": "Aminoguanidinium chloride",
    "cn_name": "氨基胍盐酸盐;肼甲酰亚胺酰胺一氯化氢;",
    "alternate_name": "Hydrazinecarboximidamide, hydrochloride (1:1);Guanidine, amino-, monohydrochloride;Hydrazinecarboximidamide, monohydrochloride;Aminoguanidine monohydrochloride;Aminoguanidine hydrochloride;GER 11;Pimagedine hydrochloride;Aminoguanidinium chloride",
    "duplicated_cas_no": "87667-21-8",
    "SMILES": "C(NN)(=N)N.Cl",
    "meta_data": {
        "InChI": "InChI=1S/CH6N4.ClH/c2-1(3)5-4;/h4H2,(H4,2,3,5);1H",
        "InChIKey": null,
        "Canonical SMILES": "Cl.N=C(N)NN",
        "Molecular Formula": "CH<sub>6</sub>N<sub>4</sub>.ClH",
        "Molecular Mass": "",
        "Melting Point": "163-164 °C"
    }
}