{
    "cas_no": "62199-62-6",
    "key_name": "2,2,4,4,6-Pentamethylheptane",
    "cn_name": "2,2,4,4,6-五甲基庚烷;",
    "alternate_name": "Heptane, 2,2,4,4,6-pentamethyl-;2,2,4,4,6-Pentamethylheptane",
    "duplicated_cas_no": "",
    "SMILES": "C(C(CC(C)C)(C)C)C(C)(C)C",
    "meta_data": {
        "InChI": "InChI=1S/C12H26/c1-10(2)8-12(6,7)9-11(3,4)5/h10H,8-9H2,1-7H3",
        "InChIKey": null,
        "Canonical SMILES": "CC(C)CC(C)(C)CC(C)(C)C",
        "Molecular Formula": "C<sub>12</sub>H<sub>26</sub>",
        "Molecular Mass": "170.33",
        "Boiling Point": "187-188 °C",
        "Density": "0.7739 g/cm³ @ Temp: 20 °C"
    }
}