{
    "cas_no": "68171-52-8",
    "key_name": "<em>N</em>-Linoleoylethanolamine",
    "cn_name": null,
    "alternate_name": "9,12-Octadecadienamide, <em>N</em>-(2-hydroxyethyl)-, (9<em>Z</em>,12<em>Z</em>)-;9,12-Octadecadienamide, <em>N</em>-(2-hydroxyethyl)-, (<em>Z</em>,<em>Z</em>)-;Linoleamide, <em>N</em>-(2-hydroxyethyl)-;(9<em>Z</em>,12<em>Z</em>)-<em>N</em>-(2-Hydroxyethyl)-9,12-octadecadienamide;<em>N</em>-Linoleoylethanolamine;<em>N</em>-(2-Hydroxyethyl)-(<em>Z</em>,<em>Z</em>)-9,12-octadecadienamide;<em>N</em>-(2-Hydroxyethyl)linoleamide;Linoleic acid monoethanolamide;Linoleoyl ethanolamide;<em>N</em>-Linoleoylethanolamide",
    "duplicated_cas_no": "",
    "SMILES": "C(CCCCC/C=C\\C/C=C\\CCCCC)CC(NCCO)=O",
    "meta_data": {
        "InChI": "InChI=1S/C20H37NO2/c1-2-3-4-5-6-7-8-9-10-11-12-13-14-15-16-17-20(23)21-18-19-22/h6-7,9-10,22H,2-5,8,11-19H2,1H3,(H,21,23)/b7-6-,10-9-",
        "InChIKey": null,
        "Canonical SMILES": "O=C(NCCO)CCCCCCCC=CCC=CCCCCC",
        "Molecular Formula": "C<sub>20</sub>H<sub>37</sub>NO<sub>2</sub>",
        "Molecular Mass": "323.51",
        "Melting Point": "38-40 °C"
    }
}