{
    "cas_no": "7300-91-6",
    "key_name": "<em>N</em>-(4-Hydroxyphenyl)maleimide",
    "cn_name": "4-马来酰亚胺基苯酚;N-(4-羟基苯基)马来酰亚胺;1-(4-羟基苯基)吡咯-2,5-二酮;",
    "alternate_name": "1<em>H</em>-Pyrrole-2,5-dione, 1-(4-hydroxyphenyl)-;Maleimide, <em>N</em>-(<em>p</em>-hydroxyphenyl)-;1-(4-Hydroxyphenyl)-1<em>H</em>-pyrrole-2,5-dione;<em>N</em>-(4-Hydroxyphenyl)maleimide;<em>N</em>-(<em>p</em>-Hydroxyphenyl)maleimide;<em>p</em>-Maleimidophenol;4-Maleimidophenol;NSC 148152;NSC 39735;1-(4-Hydroxy-phenyl)pyrrole-2,5-dione;1-(4-Hydroxyphenyl)-2,5-dihydro-1<em>H</em>-pyrrole-2,5-dione",
    "duplicated_cas_no": "",
    "SMILES": "O=C1N(C(=O)C=C1)C2=CC=C(O)C=C2",
    "meta_data": {
        "InChI": "InChI=1S/C10H7NO3/c12-8-3-1-7(2-4-8)11-9(13)5-6-10(11)14/h1-6,12H",
        "InChIKey": null,
        "Canonical SMILES": "O=C1C=CC(=O)N1C2=CC=C(O)C=C2",
        "Molecular Formula": "C<sub>10</sub>H<sub>7</sub>NO<sub>3</sub>",
        "Molecular Mass": "189.17",
        "Melting Point": "154-155 °C"
    }
}