{
    "cas_no": "24566-95-8",
    "key_name": "<em>N</em>-(3-Aminopropyl)caprolactam",
    "cn_name": null,
    "alternate_name": "2<em>H</em>-Azepin-2-one, 1-(3-aminopropyl)hexahydro-;1-(3-Aminopropyl)hexahydro-2<em>H</em>-azepin-2-one;<em>N</em>-(3-Aminopropyl)-ε-caprolactam;<em>N</em>-(γ-Aminopropyl)-ε-caprolactam;<em>N</em>-(3-Aminopropyl)caprolactam;1-(3-Aminopropyl)azepan-2-one",
    "duplicated_cas_no": "468745-51-9",
    "SMILES": "C(CCN)N1C(=O)CCCCC1",
    "meta_data": {
        "InChI": "InChI=1S/C9H18N2O/c10-6-4-8-11-7-3-1-2-5-9(11)12/h1-8,10H2",
        "InChIKey": null,
        "Canonical SMILES": "O=C1N(CCCN)CCCCC1",
        "Molecular Formula": "C<sub>9</sub>H<sub>18</sub>N<sub>2</sub>O",
        "Molecular Mass": "170.25",
        "Boiling Point": "90-95 °C @ Press: 1 x 10<sup>-3</sup> Torr"
    }
}