{
    "cas_no": "7440-22-4",
    "key_name": "Silver",
    "cn_name": "银;银粉;",
    "alternate_name": "Silver;C.I. 77820;Argentum;Shell Silver;Silver atom;Silflake 135;L 3;Silver metal;Sr 999;V 9;Algaedyn;E 20;TCG 7R;Silpowder 130;Silbest TCG 1;TCG 1;Silver element;Dotite XA 208;AgC-A;Silcoat AgC-GS;Ag-E 350;D 25 (metal);D 25;Silcoat AgC-A;Silcoat AgC-O;Silbest TCG 7;Silbest E 20;QS 175;TCG (metal);TCG;LS 500;Silbest TC 20E;AG-CO;C 200 (metal);C 200;G 13 (metal);G 13;SPS 100;MMC-SF 25;MMC-SF 53;Metz 56;Metz 25B;HCF 38;SF 135;SD (metal);KS (metal);KS;SD;AY 6080;Ag-C-GS;RT 1710S;RT 1710S-C1;Silcoat AgC-B;AY 6010;PS 652;AX 10C;Carey Lea silver;FA 312;Puff Silver X 1200;Metz 3000-1;L 3 (element);Astroflake 5;1520D;SPD 2;Jelcon SH 1;V 9 (element);SPD 2 (element);Technic 299;Technic 450;SFR-Ag;Degussa 80;Degussa 67;FA 2;FA 2 (metal);Silbest TC 25A;Silcoat AgC-L;3200HD;SF 65;SF 65 (metal);Silcoat AgC-D;Epinall;EA 0008;SF 80;LA 113;SFP 232A;SFP 602A;Ag 3010;TCG 7-6;G 12;G 12 (metal);EPC 100;Colloidal silver;ED 6036;15ED001;Metz 80;Metz 67;15ED173;XLA 0103;EA 295;ESL 9912A;MFP-AG 100;F 201;Silcoat AgC 209;Silbest TC 12;X 617;AgC 239;Silver Powder EG-ED;Silver Flake 25;Silver Flake 1;Silver Flake 7A;Silver Powder C-ED;AGF 20S;SF 69;SF 22;RA 127;EGED;SPEG;Ag 1T;Perfect Silver;EG 20 (metal);CW 7100;Ag-E 100;SPS 100 (metal);EG 20;I-ED;C 0083P;AgC 209;Silcoat AgC-AO;Silsphere 514;7000ID;7000C;11000SP;FP 5369-502;SF 7;SF 7 (metal);AA 0101;Du Pont 4943;Ferro 3349;AgC-D;Silcoat AgC 2190;AgC 2190;Silbest F 20;Silbest J 18;AgC 156I;SF(DT);QF 0042;MF 0106;MF 0102;3050HD;Nanomelt Ag-XF 301;Silcoat AgC-BO;MFP 3050;MFP 4050;Silcoat GS;SA 0200;E 174;6142D;AgC 401;AgC 251;Nanomelt Ag-XA 301;FA 8-1;CM-NX 003;AgC 237;RM 9030;Silcoat AgC-G;Nanomelt Ag-XF 301H;SF 48;SF 86S;AgF 5S;PSr 1 (element);PSr 1;AGS-WP 001;TC 20E-L;Silvest TCG 11N;FA 2-3;PUAG 119;AG 5-7A;Powdersafe 1080-01;Fordel DC;Sarpu;PC 100;PC 100 (metal);AgXF 301H;AgC 1561;Silcoat AgC 103;SW 1100-1;Silcoat RF 200;MN 1280;MY 1400;MN 8000;MN 8060;AgC 224;AgC 2351;SPH 02JF;AgC 131;DP 120H1;Sarpu 2KW;SPQ 03;Silcoat AgC 2011;Silcoat AgC 2411;AG 4300;LCP 1-19SFS;AG 4315C;Ag 200CM;Silcoat AgC 74T;Silcoat AgC 222;DC 100;D 500;Techno Alpha 175;SF 70A;Ag Powder FHD;M 1255;AA 0981;Nanomelt AGC-A;SF 69 (metal);TC 25A;NanoPowders 247160P2;YS 6;YS 7;Arctic Silver 3;Agpure EG 5;AgC 74SE;NAG 09;AA 0076;SF 9AL;Silver Flake 52;NPS-J;Jungindai Takasago 300;G 17 (metal);S 400-2;G 17;ED 6022SS;TCG 1 (metal);TB 2808;Auromal 38;AMS 300;AMS 5000;TC 204B;SF 40 (metal);AgC-AO;AgC-H;AgC-B;EN 4277;SF 40;AG 2-1;Ag Sphere 2;Enlight 600;Enlight silver plate 600;Nanopaste NPS-J 90;Ag Nanopaste NPS-J 90;SP 905S;SA 1;PA 1D;SA 2;SA 1 (metal);SA 2 (metal);ECM 100AF4810;SF 9;S 2-80;SF 77A;SF 9 (metal);DW 250H5;S 133 (metal);SF 86;S 133;3100CP;OK 6P;AG 3500SS;AGE 09PB;Finesphere SVND 102;SPN 10J;NTX 350WT;Ag 103W;A 1500;A 1500 (metal);CS 001;SPN 20J;SF 15;Silver Jet DGP 50;P 203;Sarpu 50K;Nanosilver BG;HXR-Ag;SF 102;MG 101;SF 102 (metal);MG 101 (metal);SS Lio Phase Ag-A;Dotite FA 333;FA 333;SPQ 05S;AF 5100;HDY;Silveria;AG 3500M;SilvaSorb;PELCO Conductive Silver 187;SPQ 08S;FA 5-1;SPQ 05J;SL 40 (metal);CA 2500E;SC 1 (metal);SC 1;SL 40;AgFK-HT;SD 200W;PV 145;AGIN-WE;NP-S 150;Silcoat AgC 1541;Ferro 7000-7;Metalor K 1332P;G 14 (element);SF 38;SF 37;SF 26;SF 78NFA;FHD;G 14;Ag-sol;MesoSilver;NPS-HTB;L-Ag 1TeH;M-Dot SS;Finesphere Silver W 001;SPH 02J;FAG 30A;C 1284P;AGS-WM 500C;XDK 101;AgCC-BO;RDS 11000-10;AG 321;SPN 10JS;Silver Nano Powder NP 30;AG 2-11;FA-D 4;AG 2-1C;PSr 2 (element);MH-Ag 40;PSr 2;L-Ag 1T;CCI 300;AgC 103;PV 159;Ferro 33-462;Heraeus SOL 9118A;Noritake NP 4682C;AGIN-W 4A;S 303 (metal);S 602;CE 103-7;47MR02C;Tinoderm Microsilver;TC 87;AgC 212DL;SF 65LV;MDot SL;S 303;CE 103-7 (solution);AgC 212DH;AgC 221Q3;LS 411MK;Ferro 7000-35;H 4215;PAG 30A;HAG 250S;Liometal;PCR 198;Nanover TX-EA 13A;ChPS 3;S 302 (metal);Silbest AgS 050;Silbest C 34;SD 1114;S 302;Nanocid P 101;Nanocid;Nanocide;SOL 9848;SOL 9848A;UFS-CW 20F;Perfect Bio N;SelectSilver SR 12;WY 1210;SQ 05S;ED 7251A;LYZS 3;3-7F;AgC 4-8F;AgC 2-1C;M 13 (metal);N 300 (metal);Dotite D 362;ECM 100;Aquamet CP 6950;Aquamet CP 3400;Silverlon;AgC 222;AgC 2011;M 13;N 300;Silcoat AgC 1542;NSP 01;HTB 038;CSD 29;MDot SLP/H;M-Dot SLP;HyGentic 8000;HyGentic 7000;SV 3000;Ag-HWQ 400;AgBion 2;Silcoat AgC 212D;CT 220H;Ag 4-8F;FA-STG 11;SLV-NW 60;AGES 102X;TC 38S;SPQ 03R;PV 410;NPS-JL;TEC-PR 020;EA 0015;ECM 100AF4500;SmartSilver AS;AGE08PB;AGF 3;Silbest F 201;AgC 221A;Ag-HWK 6;Novaron AGZ 010;MH 1063;Silcoat AgC 156I;Ferro 1015803;EK;EK (metal);Ag-XF 301K;Solamet PV 412;Ferro NS 33-5D/EX;SunTRONIC U 5714;MicroSilver BG;FA-D 2;S 550;AG-NW 1;S 550 (conductor);Flow Metal SW 1020;Aluffin;AGS-WB 3000;SF-K;UA-X;FA-SSB 112;706S;CT 220HS;Silcoat AgC 2012;TIV-A 01;JDGKP 003;Nanosilver Hx 1000;Silvergen;S 2-30W;Nanosilver;Nanopaste NPS;NPS;Dotite D 723S;SOL 9235H;SOL 9273MA;BY 2100;DW 114L1;EAM 100AF4500;S 201;AG 4-8;TW-A 01;TW-A 02;AgC-HWQ;FA-D 6;AgC-GSF;YH 14;EA 0295;SLV-NW 35;EHD;AG 404055;JDTKS 001;H 5698;JDTKS 005;AGS-WMB 1000A;AGS-WMB 1000B;PV 17F;PV 51M;Ag Nanometal Ink Ag 1T;AgC 104W;TCR 2150;Nanomelt XF 301;M 27;M 612;S 211A;HKD 11;Sanitized T 25-25 Silver;AG 21C;AgC 201Z;AgC 129;Microsilver BG Tec Plus;Du Pont 5000;CAP 9;FA-SAB 195;TFCA 1;TFCA 2;TFCA 3;SP-A 6PL;AMO 1;Nanomelt Ag-XF 301S;Nanomelt Ag-XF 301K;Q 03R Flake 2;S 211;AGE 06PB;NM 300K;AG 48F;T 2S-A06;AgC 212D;Ag 01S;Ag 05S;CAG 6000;AgC 252;OTS 5280;Stapa Hydroxal 2W4000;SNW 004A02;SW 1100;Silcoat AgC 224;AA 192N;LS 450;607S;TC 106;TC 108;AGK 101;Fabink TC-AG 4001;SLV-NW 90;SOL 9600;TC 298S;Flow Metal SR 6010;GA 23811;D 2466P;C 2462P;AA 9829;D 24617P;K 1322P;D 3016P;FA-SAB 239;AG-SAB 321;FA-SAB 284;SF 120;KP 84;T 5A-A01;MSP 01;MSP 02H;SF 01;SF 05;MSP 07;SF 05 (metal);FA 401CA;Dotite FA 401CA;P 204;K 0082P;P 204 (metal);MR 10F;SF 0340;AG 5-7F;FA-D 7;G 35;Novaron AGZ;SGA 01;Aerosilver;C 239;CST-NW-S 40;Blue Nano SLV-NW 35;PA 301;AG 100;Silberline 793-20C;Ag-NW 25;AGC 2190H;SF 70;TX-EB 14;TCG 7;AgC 14;T-YP 808;Huayang 1706;LA 0113;PV 1;PV 2;PV 3;PV 7;TCG 11N;Silbest TCG 11N;PV 1 (metal);PV 2 (metal);PV 3 (metal);PV 7 (metal);P 318-8;AW 040;SLV-NW 40;Agnws 60;NTX 300WT;606Y;Du Pont LL 612;FA 618;SL 02;PV 4 (metal);LL 612;PV 4;H 1 (pigment);Silbest TC 507A;MP 301PAD5810;JNW 312;SPN 08S;AGS-WB;Pelco 187;JAGLT 01;AW 030;NW 60;G 360Z;Silcoat AgB;Solamet PV 17F;EA 0297;Silver biotics;T-AG 103;AgC-BO;NST 750A;RAFS 074;Blue Nano SLV-NW 90L;SLV-NW 90L;AG 202;AG 2-8;AG 2-61;LN 300;SP 7000-35;FA-D 3;AgC 204B;Ag NW;DK 101;Ag 300-01;MDot CF 107;SS Riophase AG-A;EA 0101;B190;ELX 30UV;Ag-5-8;HP 0712;HP 0202F1;TY-P 227;EG-ED-SF;Du Pont PV 412;PM 85001;PE 771;ClearOhm Ink N;ClearOhm G 4-04;MD 30;SL 01;NJ-SN 3025;AG-SAB 136;Ag-HWQ 5.0;AG 5-8F;LCAG 140S;Dowa 5-11F;ECM 100AF;SF 98;EA 0097;Silflake 94-126;AG 3-8F;3-8F;TD 11EAC;Eckart 145;Rotosafe Aqua 260-003 Silver;SM 2515;EMR-D-E 190;EMR-D-FR 11;PG 007;AEM 5700A;RAFS 039;AgC 271B;RA-FS 088;SOL 9383M;SX 710;PHA 01M15;Rexalpha RAFS 045;SG 00A3;SP 03;W 8013;W 8030;WS 220;Rexalpha RAFS 074;Silcoat AgC 201Z;511A;SOL 9621M;Silcoat AgC 104W;TC 910;LSV-NW 35;DW 420L2;Chemet RA 0127;AgC 2611;YFM 04N50;AA 40719;Ag-2-LC;Ag-2.5-8F;Ag Fiber EX;OLNMY 01;AG 01;SL-3;Ag-XF 301NT;XF 301NT;NP 4635;NM 0038UP;AG 5-11F;AGSK 5000W;TFM-CO2P;Ag-HWQ;XFJ 81;WJAG 1;XFJ 09;ALC-C 5000;Ag-HWQ 1.5;TKR 4A;ME 603;Jet 600C;DK 101-3;TC 728S;300AG2000;RA-FS 110S;NAG 25T;NAG 28;NW-AG 20;Tenghui TH 06;Tenghui TH 02;Tenghui TH 05;S 110974;TH 02;TH 05;TF 41023;AgC 162T;Sicrys I 50TM115;Stapamex 501;Shepherd FX 15;HP 50W;TSP 2002;TSP 2042;P 777-1;SF 30;AC 0295;HPO2;XSF-PA 300;KP 84X;NX 4000A;P 543-14;LF 803;YK 206;CST-NP-S 2;FAgP 15B3;XFJ 14;HP 0202END;DD 091;Aldrich 735825;FLU 1;TSW 8009;Ag Nano Power 1;FA-S 13;A 2;DK 101-1;Ag-DSB 114;AA 9829N;NP 2910D1;Aquamet CP-BG 9800;Aquamet CP-BG 8500;Aquamet CP-BG 6600;Aquamet CP-BG 1500;Aquamet CP-BG 2600;YF 06;AG 03;LS 0305;SBA 1017;AgC-221PA;LXJ 2225;Zeroks;AGCA;TC 505;P 620-24;P 620-7;HKD 16;TC 88;SW 1020;AG 3-60;Dag 9004;DSF 500MWZ-S;CW-Ag 001;Xuyang 9109;CAG 1;Mantebo 3315B;AA 364-2;K 1332P;AA 3462;18060NM2;TC 101;TC 505C;SW 180;R 002521;XFJ 03;SNSE 1000;DW 460C;W 010789;Nanopure S 01;IST-NW-S 30;Silbest G 1;47MR10F;R 301S;SSP 01SYC;KAX 810-5-6B;X 861DS;PG 7308;AG-HWQ 2.5;Ag Nano Powder 1;S 11000-10;FA-D 5;S 10-100 (metal);S 50-100;MDot CF 108;TC 506C (metal);TC 506C;FLQ 3;SP 201;SI-P 2000;MS-K 004;S211A-10;FA-SAB 499;AG-SAB 307;778095 25ML;DK-AG;V 12NT;S 050;SR 050;FTL 6010S4;DGP-OS;4028A;DJA 03N;AG 1003;Viroblock NPJ03;HAG 800;XFJ 01;IST-NW-S 30ST;HP 0202;PE 874;ZM;XFJ 95-102074;ECOS HC;SNW-E 1;A 110;FA-SAB 617;AA 3642W;EA 23826;P 596-33;HKD 12;SF 01C;LM 1;TC 465;F 8D;RC 03C;PR-WB 14R;XE 181;AgC 104WR;AM-Ag 004-3;DNS 009;Silbest AgC-G;P 554-1;Dotite XA 9469;NovaWire Ag-A 50UL;SBF 05M;AGP-VO 180-4;F 56T;ES 4 (metal);ES 4;AgF 2 (silver);AgF 2;HW-FB 11701;HW-FB 11501;HKD 13A;Silcoat Ag-HWQ;Ag 126;Ag 025 (metal);Ag 025;ME 604;CST-NP-S 10;AgC-G;DJ 40;AG 2-47J;AW 060;SPQ 02X;AGS-WM 1000C;RA 0127;P 826-61;P 596-37;BM 11276;HPZ 1255IL;Ag 0343251000;SCP 003;EA 79613;K 79121P;AgC 201;SA 31812;AGP-P 025;GJ 8D;P 791-24;P 318-41;P 853-11;PE 876;PA 9314;NT-ST 60S;Silcoat AgC 2190H;Silcoat AgC 74SE;PSP 440;Ag 07;AG 4-54F;NpAg 925ETG;TKR 88;SR 9200;DJ 002;HN-TA 33Ag;SF 78;LS 610-3;DNS 0351P;EA 0295PH;Fag 050;Dotite FA 451A;HN-T 07;PFI 600;2091A;AGC-B 2;Silbest TC 725;MeSH ID: D012834;TAPA 2203;TSPA 608;DW 520H;AG 3-1F;BASE-CD 01;Ag-SNA-431;Ag-SNA-458;YJ 12 (metal);DSW 40;SMC 788SE-AG11;T-AG 219;EA 101 (metal);EA 101;AX 20LC;TC 20V;SF 70M;TC 506 (metal);TC 506;SPK 1;NW-AG 30-05G-IPA;AgG 204G;AG 2-1G;Ag-NW 0020;AG 6-11;Silcoat AgC 2262;SNM 007;AW 030LP;T-AG 402;Heraeus C 1000;HAG 7;SF 9H;RC 18939;HAG 2;HAG 5;RAFS 059;F 3B (silver);F 3B;Flexo SS-CS 31506;FA-D 1;AgC 223;ADM-Ag 08;Ostband 3812",
    "duplicated_cas_no": "12553-68-3;87354-45-8;87370-84-1;97328-41-1;172826-34-5;204594-09-2;292043-18-6;745795-74-8;858524-72-8;930796-09-1;1022160-64-0;1082224-48-3;1187830-15-4;1217296-95-1;1293966-06-9;1293966-27-4;1337956-09-8;1452482-26-6;1609015-11-3;1809322-72-2;1809322-78-8;1967020-37-6;2011739-69-6;2043665-14-9;2043949-53-5;2089207-95-2;2101985-27-5;2101985-31-1;2137508-80-4;2138479-13-5;2142602-15-9;2174115-01-4;2425564-37-8;2435628-47-8;2707397-87-1;2758440-73-0;2989938-42-1;3033430-69-9",
    "SMILES": "[Ag]",
    "meta_data": {
        "InChI": "InChI=1S/Ag",
        "InChIKey": null,
        "Canonical SMILES": "[Ag]",
        "Molecular Formula": "Ag",
        "Molecular Mass": "",
        "Boiling Point": "~2000 °C (approx)",
        "Melting Point": "960.5 °C",
        "Density": "10.49 g/cm³ @ Temp: 15 °C"
    }
}