{
    "cas_no": "874-33-9",
    "key_name": "<em>N</em>,2-Dimethylbenzenemethanamine",
    "cn_name": "N,2-二甲基苄胺;",
    "alternate_name": "Benzenemethanamine, <em>N</em>,2-dimethyl-;Benzylamine, <em>N</em>,<em>o</em>-dimethyl-;<em>N</em>,2-Dimethylbenzenemethanamine;NSC 97436;<em>N</em>-Methyl-2-methylbenzylamine;<em>N</em>-Methyl-1-<em>o</em>-tolylmethanamine;2-Methyl-<em>N</em>-methylbenzylamine",
    "duplicated_cas_no": "",
    "SMILES": "C(NC)C1=C(C)C=CC=C1",
    "meta_data": {
        "InChI": "InChI=1S/C9H13N/c1-8-5-3-4-6-9(8)7-10-2/h3-6,10H,7H2,1-2H3",
        "InChIKey": null,
        "Canonical SMILES": "C=1C=CC(=C(C1)C)CNC",
        "Molecular Formula": "C<sub>9</sub>H<sub>13</sub>N",
        "Molecular Mass": "135.21",
        "Boiling Point": "100-102 °C @ Press: 11 Torr",
        "Melting Point": "129 °C"
    }
}