{
    "cas_no": "20869-95-8",
    "key_name": "Ermanin",
    "cn_name": null,
    "alternate_name": "4<em>H</em>-1-Benzopyran-4-one, 5,7-dihydroxy-3-methoxy-2-(4-methoxyphenyl)-;Flavone, 5,7-dihydroxy-3,4′-dimethoxy-;5,7-Dihydroxy-3-methoxy-2-(4-methoxyphenyl)-4<em>H</em>-1-benzopyran-4-one;Ermanin;Dimethyl-3,4′-kaempferol;Kaempferol 3,4′-dimethyl ether;3,4′-Di-<em>O</em>-methylkaempferol;5,7-Dihydroxy-3,4′-dimethoxyflavone;Kaempferol 3,4′-di-<em>O</em>-methyl ether;NSC 31882",
    "duplicated_cas_no": "",
    "SMILES": "O(C)C1=C(OC=2C(C1=O)=C(O)C=C(O)C2)C3=CC=C(OC)C=C3",
    "meta_data": {
        "InChI": "InChI=1S/C17H14O6/c1-21-11-5-3-9(4-6-11)16-17(22-2)15(20)14-12(19)7-10(18)8-13(14)23-16/h3-8,18-19H,1-2H3",
        "InChIKey": null,
        "Canonical SMILES": "O=C1C(OC)=C(OC=2C=C(O)C=C(O)C12)C=3C=CC(OC)=CC3",
        "Molecular Formula": "C<sub>17</sub>H<sub>14</sub>O<sub>6</sub>",
        "Molecular Mass": "314.29",
        "Melting Point": "234 °C"
    }
}