{
    "cas_no": "20283-92-5",
    "key_name": "Rosmarinic acid",
    "cn_name": null,
    "alternate_name": "Benzenepropanoic acid, α-[[(2<em>E</em>)-3-(3,4-dihydroxyphenyl)-1-oxo-2-propen-1-yl]oxy]-3,4-dihydroxy-, (α<em>R</em>)-;Cinnamic acid, 3,4-dihydroxy-, 2-ester with 3-(3,4-dihydroxyphenyl)lactic acid;Benzenepropanoic acid, α-[[3-(3,4-dihydroxyphenyl)-1-oxo-2-propenyl]oxy]-3,4-dihydroxy-, [<em>R</em>-(<em>E</em>)]-;Rosmarinic acid;Benzenepropanoic acid, α-[[(2<em>E</em>)-3-(3,4-dihydroxyphenyl)-1-oxo-2-propenyl]oxy]-3,4-dihydroxy-, (α<em>R</em>)-;(α<em>R</em>)-α-[[(2<em>E</em>)-3-(3,4-Dihydroxyphenyl)-1-oxo-2-propen-1-yl]oxy]-3,4-dihydroxybenzenepropanoic acid;Rosemary acid;Rosemaric acid;RM 21A;Mamorekku RUH 2;Meiji Red Perilla Polyphenol;<em>trans</em>-Rosmarinic acid;Labiatenic acid;Labiatic acid;NPLC 0542;SYL 001;(+)-Rosmarinic acid",
    "duplicated_cas_no": "",
    "SMILES": "C([C@@H](OC(/C=C/C1=CC(O)=C(O)C=C1)=O)C(O)=O)C2=CC(O)=C(O)C=C2",
    "meta_data": {
        "InChI": "InChI=1S/C18H16O8/c19-12-4-1-10(7-14(12)21)3-6-17(23)26-16(18(24)25)9-11-2-5-13(20)15(22)8-11/h1-8,16,19-22H,9H2,(H,24,25)/b6-3+/t16-/m1/s1",
        "InChIKey": null,
        "Canonical SMILES": "O=C(OC(C(=O)O)CC1=CC=C(O)C(O)=C1)C=CC2=CC=C(O)C(O)=C2",
        "Molecular Formula": "C<sub>18</sub>H<sub>16</sub>O<sub>8</sub>",
        "Molecular Mass": "360.31",
        "Melting Point": "169-171.5 °C",
        "Density": "1.547 g/cm³"
    }
}