{
    "cas_no": "144072-30-0",
    "key_name": "1,1-Dimethylethyl <em>N</em>-(4-formylphenyl)carbamate",
    "cn_name": null,
    "alternate_name": "Carbamic acid, <em>N</em>-(4-formylphenyl)-, 1,1-dimethylethyl ester;Carbamic acid, (4-formylphenyl)-, 1,1-dimethylethyl ester;1,1-Dimethylethyl <em>N</em>-(4-formylphenyl)carbamate;(4-Formylphenyl)carbamic acid tert-butyl ester;<em>tert</em>-Butyl 4-formylphenylcarbamate;<em>N</em>-Boc-<em>p</em>-aminobenzaldehyde;4-(<em>tert</em>-Butoxycarbonylamino)benzaldehyde;<em>tert</em>-Butyl <em>N</em>-(4-formylphenyl)carbamate",
    "duplicated_cas_no": "541522-61-6",
    "SMILES": "N(C(OC(C)(C)C)=O)C1=CC=C(C=O)C=C1",
    "meta_data": {
        "InChI": "InChI=1S/C12H15NO3/c1-12(2,3)16-11(15)13-10-6-4-9(8-14)5-7-10/h4-8H,1-3H3,(H,13,15)",
        "InChIKey": null,
        "Canonical SMILES": "O=CC1=CC=C(C=C1)NC(=O)OC(C)(C)C",
        "Molecular Formula": "C<sub>12</sub>H<sub>15</sub>NO<sub>3</sub>",
        "Molecular Mass": "221.25",
        "Melting Point": "130-132 °C"
    }
}