{
    "cas_no": "3160-35-8",
    "key_name": "(4-Hydroxybenzylidene)acetone",
    "cn_name": "4-羟基亚苄基丙酮;对羟基亚苄基丙酮;",
    "alternate_name": "3-Buten-2-one, 4-(4-hydroxyphenyl)-;3-Buten-2-one, 4-(<em>p</em>-hydroxyphenyl)-;4-(4-Hydroxyphenyl)-3-buten-2-one;4-Hydroxybenzalacetone;<em>p</em>-Hydroxybenzalacetone;4-(<em>p</em>-Hydroxyphenyl)-3-buten-2-one;4-(4′-Hydroxyphenyl)-3-buten-2-one;4-Hydroxystyryl methyl ketone;(4-Hydroxybenzylidene)acetone;NSC 26516;4-(4-Hydroxyphenyl)but-3-ene-2-one",
    "duplicated_cas_no": "",
    "SMILES": "C(=CC(C)=O)C1=CC=C(O)C=C1",
    "meta_data": {
        "InChI": "InChI=1S/C10H10O2/c1-8(11)2-3-9-4-6-10(12)7-5-9/h2-7,12H,1H3",
        "InChIKey": null,
        "Canonical SMILES": "O=C(C=CC1=CC=C(O)C=C1)C",
        "Molecular Formula": "C<sub>10</sub>H<sub>10</sub>O<sub>2</sub>",
        "Molecular Mass": "162.19",
        "Melting Point": "114-115 °C"
    }
}