{
    "cas_no": "1194-86-1",
    "key_name": "(α<em>R</em>)-α-Amino-3-thiopheneacetic acid",
    "cn_name": "D-α-(3-噻吩基)甘氨酸;",
    "alternate_name": "3-Thiopheneacetic acid, α-amino-, (α<em>R</em>)-;3-Thiopheneacetic acid, α-amino-, (<em>R</em>)-;(α<em>R</em>)-α-Amino-3-thiopheneacetic acid;<span class=\"text-smallcaps\">D</span>-(-)-3-Thienylglycine;(R)-2-Amino-2-(thiophen-3-yl)acetic acid;(2R)-2-Amino-2-(thiophen-3-yl)acetic acid",
    "duplicated_cas_no": "",
    "SMILES": "[C@@H](C(O)=O)(N)C=1C=CSC1",
    "meta_data": {
        "InChI": "InChI=1S/C6H7NO2S/c7-5(6(8)9)4-1-2-10-3-4/h1-3,5H,7H2,(H,8,9)/t5-/m1/s1",
        "InChIKey": null,
        "Canonical SMILES": "O=C(O)C(N)C1=CSC=C1",
        "Molecular Formula": "C<sub>6</sub>H<sub>7</sub>NO<sub>2</sub>S",
        "Molecular Mass": "157.19",
        "Melting Point": "218-221 °C"
    }
}