{
    "cas_no": "68489-14-5",
    "key_name": "<em>N</em>-[[(1<em>R</em>,2<em>S</em>,5<em>R</em>)-5-Methyl-2-(1-methylethyl)cyclohexyl]carbonyl]glycine ethyl ester",
    "cn_name": null,
    "alternate_name": "Glycine, <em>N</em>-[[(1<em>R</em>,2<em>S</em>,5<em>R</em>)-5-methyl-2-(1-methylethyl)cyclohexyl]carbonyl]-, ethyl ester;Glycine, <em>N</em>-[[5-methyl-2-(1-methylethyl)cyclohexyl]carbonyl]-, ethyl ester, [1<em>R</em>-(1α,2β,5α)]-;<em>N</em>-[[(1<em>R</em>,2<em>S</em>,5<em>R</em>)-5-Methyl-2-(1-methylethyl)cyclohexyl]carbonyl]glycine ethyl ester;CPS 337;Ethyl 3-(<em>p</em>-menthane-3-carboxamido)acetate;FEMA 4309",
    "duplicated_cas_no": "",
    "SMILES": "C(NCC(OCC)=O)(=O)[C@H]1[C@H](C(C)C)CC[C@@H](C)C1",
    "meta_data": {
        "InChI": "InChI=1S/C15H27NO3/c1-5-19-14(17)9-16-15(18)13-8-11(4)6-7-12(13)10(2)3/h10-13H,5-9H2,1-4H3,(H,16,18)/t11-,12+,13-/m1/s1",
        "InChIKey": null,
        "Canonical SMILES": "O=C(OCC)CNC(=O)C1CC(C)CCC1C(C)C",
        "Molecular Formula": "C<sub>15</sub>H<sub>27</sub>NO<sub>3</sub>",
        "Molecular Mass": "269.38",
        "Melting Point": "80.5-81.4 °C"
    }
}