{
    "cas_no": "74051-80-2",
    "key_name": "Sethoxydim",
    "cn_name": "稀禾定;烯禾定;2-[1-(乙氧基亚氨基)丁基]-5-[2-(乙硫基)丙基]-3-羟基环己-2-烯酮;",
    "alternate_name": "2-Cyclohexen-1-one, 2-[1-(ethoxyimino)butyl]-5-[2-(ethylthio)propyl]-3-hydroxy-;2-[1-(Ethoxyimino)butyl]-5-[2-(ethylthio)propyl]-3-hydroxy-2-cyclohexen-1-one;BAS 9052;NP 55;Cyethoxydim;Poast;BAS 90520H;Sethoxydim;ARD 34/02;Nabu;Alloxol S;Expand;BASF 9052;Nabu S;Expand Plus;Fervinal;Grasidim;Poast Plus;Fervinal plus;Sertin;Segment;2-(1-(Ethoxyimino)butyl)-5-(2-(ethylthio)propyl)-3-hydroxycyclohex-2-enone",
    "duplicated_cas_no": "73468-19-6;74433-80-0;77107-41-6",
    "SMILES": "C(=NOCC)(CCC)C=1C(=O)CC(CC(SCC)C)CC1O",
    "meta_data": {
        "InChI": "InChI=1S/C17H29NO3S/c1-5-8-14(18-21-6-2)17-15(19)10-13(11-16(17)20)9-12(4)22-7-3/h12-13,19H,5-11H2,1-4H3",
        "InChIKey": null,
        "Canonical SMILES": "O=C1C(=C(O)CC(C1)CC(SCC)C)C(=NOCC)CCC",
        "Molecular Formula": "C<sub>17</sub>H<sub>29</sub>NO<sub>3</sub>S",
        "Molecular Mass": "327.48",
        "Melting Point": "&lt;25 °C"
    }
}