{
    "cas_no": "121124-98-9",
    "key_name": "<em>B</em>-[3-Formyl-4-(phenylmethoxy)phenyl]boronic acid",
    "cn_name": null,
    "alternate_name": "Boronic acid, <em>B</em>-[3-formyl-4-(phenylmethoxy)phenyl]-;Boronic acid, [3-formyl-4-(phenylmethoxy)phenyl]-;<em>B</em>-[3-Formyl-4-(phenylmethoxy)phenyl]boronic acid;[4-(Benzyloxy)-3-formylphenyl]boronic acid;3-Formyl-4-benzyloxyphenylboronic acid",
    "duplicated_cas_no": "",
    "SMILES": "O(CC1=CC=CC=C1)C2=C(C=O)C=C(B(O)O)C=C2",
    "meta_data": {
        "InChI": "InChI=1S/C14H13BO4/c16-9-12-8-13(15(17)18)6-7-14(12)19-10-11-4-2-1-3-5-11/h1-9,17-18H,10H2",
        "InChIKey": null,
        "Canonical SMILES": "O=CC1=CC(=CC=C1OCC=2C=CC=CC2)B(O)O",
        "Molecular Formula": "C<sub>14</sub>H<sub>13</sub>BO<sub>4</sub>",
        "Molecular Mass": "256.06",
        "Melting Point": "199 °C"
    }
}