{
    "cas_no": "863-61-6",
    "key_name": "Menaquinone 4",
    "cn_name": "四烯甲萘醌;维生素K2;2-甲基-3-[(2E,6E,10E)-3,7,11,15-四甲基十六碳-2,6,10,14-四烯基]萘-1,4-二酮;",
    "alternate_name": "1,4-Naphthalenedione, 2-methyl-3-[(2<em>E</em>,6<em>E</em>,10<em>E</em>)-3,7,11,15-tetramethyl-2,6,10,14-hexadecatetraen-1-yl]-;1,4-Naphthoquinone, 2-methyl-3-(3,7,11,15-tetramethyl-2,6,10,14-hexadecatetraenyl)-;1,4-Naphthalenedione, 2-methyl-3-(3,7,11,15-tetramethyl-2,6,10,14-hexadecatetraenyl)-, (<em>E</em>,<em>E</em>,<em>E</em>)-;1,4-Naphthalenedione, 2-methyl-3-[(2<em>E</em>,6<em>E</em>,10<em>E</em>)-3,7,11,15-tetramethyl-2,6,10,14-hexadecatetraenyl]-;2-Methyl-3-[(2<em>E</em>,6<em>E</em>,10<em>E</em>)-3,7,11,15-tetramethyl-2,6,10,14-hexadecatetraen-1-yl]-1,4-naphthalenedione;Vitamin K<sub>2(20)</sub>;Menaquinone 4;Vitamin MK 4;Menaquinone K<sub>4</sub>;MK-4;2-Methyl-3-geranylgeranyl-1,4-naphthoquinone;Menatetrenone;Kaytwo;Glakay;K-viton;Vitamin K2;Vitamin K2-4",
    "duplicated_cas_no": "15261-37-7;20977-31-5;39776-41-5",
    "SMILES": "O=C1C=2C(C(=O)C(C)=C1C/C=C(/CC/C=C(/CC/C=C(/CCC=C(C)C)\\C)\\C)\\C)=CC=CC2",
    "meta_data": {
        "InChI": "InChI=1S/C31H40O2/c1-22(2)12-9-13-23(3)14-10-15-24(4)16-11-17-25(5)20-21-27-26(6)30(32)28-18-7-8-19-29(28)31(27)33/h7-8,12,14,16,18-20H,9-11,13,15,17,21H2,1-6H3/b23-14+,24-16+,25-20+",
        "InChIKey": null,
        "Canonical SMILES": "O=C1C=2C=CC=CC2C(=O)C(=C1C)CC=C(C)CCC=C(C)CCC=C(C)CCC=C(C)C",
        "Molecular Formula": "C<sub>31</sub>H<sub>40</sub>O<sub>2</sub>",
        "Molecular Mass": "444.65",
        "Melting Point": "35 °C"
    }
}