{
    "cas_no": "6376-14-3",
    "key_name": "4-Chloro-2-methoxy-5-methylaniline",
    "cn_name": "氯化克利西丁;4-氯-2-甲氧基-5-甲基苯胺;",
    "alternate_name": "Benzenamine, 4-chloro-2-methoxy-5-methyl-;<em>o</em>-Anisidine, 4-chloro-5-methyl-;4-Chloro-2-methoxy-5-methylbenzenamine;4-Chloro-2-methoxy-5-methylaniline;2-Methoxy-4-chloro-5-methylaniline;(4-Chloro-2-methoxy-5-methylphenyl)amine",
    "duplicated_cas_no": "",
    "SMILES": "O(C)C1=C(N)C=C(C)C(Cl)=C1",
    "meta_data": {
        "InChI": "InChI=1S/C8H10ClNO/c1-5-3-7(10)8(11-2)4-6(5)9/h3-4H,10H2,1-2H3",
        "InChIKey": null,
        "Canonical SMILES": "ClC=1C=C(OC)C(N)=CC1C",
        "Molecular Formula": "C<sub>8</sub>H<sub>10</sub>ClNO",
        "Molecular Mass": "171.62",
        "Melting Point": "106 °C"
    }
}