{
    "cas_no": "17685-52-8",
    "key_name": "Iron, di-μ-carbonyldecacarbonyltri-, <em>triangulo</em>",
    "cn_name": null,
    "alternate_name": "Iron, di-μ-carbonyldecacarbonyltri-, <em>triangulo</em>;Iron, di-μ-carbonyldecacarbonyltri-, <em>triangulo</em>-;Iron carbonyl (Fe<sub>3</sub>(CO)<sub>12</sub>);Di-μ-carbonyldecacarbonyltriiron;Triiron dodecacarbonyl;Dodecacarbonyltriiron;Dodecacarbonyltriiron(0);Dodecacarbonyl-<em>triangulo</em>-triiron;Di-μ-carbonyldecacarbonyltri-<em>triangulo</em>-iron",
    "duplicated_cas_no": "12088-65-2;15444-70-9;18497-45-5;29893-93-4;33727-76-3",
    "SMILES": "C(#O)[Fe+2]123(C#O)(C#O)[Fe+2](C#O)(C#O)(C#O)([Fe]1(C#O)(C#O)(C#O)C#O)([C-2]2=O)[C-2]3=O",
    "meta_data": {
        "InChI": "InChI=1S/12CO.3Fe/c12*1-2;;;/q;;;;;;;;;;2*-2;;2*+2",
        "InChIKey": null,
        "Canonical SMILES": "O#C[Fe]1(C#O)(C#O)(C#O)[Fe+2]23(C#O)(C#O)(C#O)[C-2](=O)[Fe+2]13(C#O)(C#O)(C#O)[C-2]2=O",
        "Molecular Formula": "C<sub>12</sub>Fe<sub>3</sub>O<sub>12</sub>",
        "Molecular Mass": "",
        "Melting Point": "110 °C (decomp)"
    }
}