{
    "cas_no": "101421-72-1",
    "key_name": "6-Quinazolinamine",
    "cn_name": null,
    "alternate_name": "6-Quinazolinamine;Quinazoline, 6-amino-;6-Aminoquinazoline;Quinazolin-6-ylamine",
    "duplicated_cas_no": "",
    "SMILES": "NC1=CC2=C(C=C1)N=CN=C2",
    "meta_data": {
        "InChI": "InChI=1S/C8H7N3/c9-7-1-2-8-6(3-7)4-10-5-11-8/h1-5H,9H2",
        "InChIKey": null,
        "Canonical SMILES": "N=1C=NC=2C=CC(N)=CC2C1",
        "Molecular Formula": "C<sub>8</sub>H<sub>7</sub>N<sub>3</sub>",
        "Molecular Mass": "145.16",
        "Melting Point": "213.5-214 °C (sublm)"
    }
}