{
    "cas_no": "4860-93-9",
    "key_name": "3-Phenyl-2-pyrazolin-5-one",
    "cn_name": null,
    "alternate_name": "3<em>H</em>-Pyrazol-3-one, 2,4-dihydro-5-phenyl-;2-Pyrazolin-5-one, 3-phenyl-;2,4-Dihydro-5-phenyl-3<em>H</em>-pyrazol-3-one;3-Phenyl-Δ<sup>2</sup>-pyrazolin-5-one;3-Phenyl-2-pyrazolin-5-one;3-Phenyl-1<em>H</em>-pyrazol-5(4<em>H</em>)-one;3-Phenyl-4,5-dihydro-1<em>H</em>-pyrazol-5-one;3-Phenyl-1,4-dihydropyrazol-5-one",
    "duplicated_cas_no": "222989-31-3",
    "SMILES": "O=C1CC(=NN1)C2=CC=CC=C2",
    "meta_data": {
        "InChI": "InChI=1S/C9H8N2O/c12-9-6-8(10-11-9)7-4-2-1-3-5-7/h1-5H,6H2,(H,11,12)",
        "InChIKey": null,
        "Canonical SMILES": "O=C1NN=C(C=2C=CC=CC2)C1",
        "Molecular Formula": "C<sub>9</sub>H<sub>8</sub>N<sub>2</sub>O",
        "Molecular Mass": "160.17",
        "Melting Point": "236 °C"
    }
}