{
    "cas_no": "40228-93-1",
    "key_name": "Benzenepentadecanoic acid",
    "cn_name": null,
    "alternate_name": "Benzenepentadecanoic acid;15-Phenylpentadecanoic acid",
    "duplicated_cas_no": "",
    "SMILES": "C(CCCCCCCCCCCCCC(O)=O)C1=CC=CC=C1",
    "meta_data": {
        "InChI": "InChI=1S/C21H34O2/c22-21(23)19-15-10-8-6-4-2-1-3-5-7-9-12-16-20-17-13-11-14-18-20/h11,13-14,17-18H,1-10,12,15-16,19H2,(H,22,23)",
        "InChIKey": null,
        "Canonical SMILES": "O=C(O)CCCCCCCCCCCCCCC=1C=CC=CC1",
        "Molecular Formula": "C<sub>21</sub>H<sub>34</sub>O<sub>2</sub>",
        "Molecular Mass": "318.49",
        "Melting Point": "60-61 °C"
    }
}