{
    "cas_no": "585-70-6",
    "key_name": "5-Bromo-2-furancarboxylic acid",
    "cn_name": "5-溴-2-糠酸;5-溴-2-呋喃甲酸;",
    "alternate_name": "2-Furancarboxylic acid, 5-bromo-;2-Furoic acid, 5-bromo-;5-Bromo-2-furancarboxylic acid;5-Bromo-2-furoic acid;5-Bromofuroic acid;NSC 32221;5-Bromo-2-furanoic acid",
    "duplicated_cas_no": "",
    "SMILES": "C(O)(=O)C=1OC(Br)=CC1",
    "meta_data": {
        "InChI": "InChI=1S/C5H3BrO3/c6-4-2-1-3(9-4)5(7)8/h1-2H,(H,7,8)",
        "InChIKey": null,
        "Canonical SMILES": "O=C(O)C=1OC(Br)=CC1",
        "Molecular Formula": "C<sub>5</sub>H<sub>3</sub>BrO<sub>3</sub>",
        "Molecular Mass": "190.98",
        "Melting Point": "184-186 °C"
    }
}