{
    "cas_no": "13009-99-9",
    "key_name": "Mafenide acetate",
    "cn_name": "醋酸磺胺米隆;醋酸甲磺米脓;4-(氨基甲基)苯磺酰胺醋酸盐;",
    "alternate_name": "Benzenesulfonamide, 4-(aminomethyl)-, acetate (1:1);<em>p</em>-Toluenesulfonamide, α-amino-, monoacetate;Benzenesulfonamide, 4-(aminomethyl)-, monoacetate;Mafenide acetate;Sulfamylon acetate;α-Amino-<em>p</em>-toluenesulfonamide acetate;Maphenide acetate;Mafatate;Mefamide",
    "duplicated_cas_no": "",
    "SMILES": "S(N)(=O)(=O)C1=CC=C(CN)C=C1.C(C)(O)=O",
    "meta_data": {
        "InChI": "InChI=1S/C7H10N2O2S.C2H4O2/c8-5-6-1-3-7(4-2-6)12(9,10)11;1-2(3)4/h1-4H,5,8H2,(H2,9,10,11);1H3,(H,3,4)",
        "InChIKey": null,
        "Canonical SMILES": "O=C(O)C.O=S(=O)(N)C1=CC=C(C=C1)CN",
        "Molecular Formula": "C<sub>7</sub>H<sub>10</sub>N<sub>2</sub>O<sub>2</sub>S.C<sub>2</sub>H<sub>4</sub>O<sub>2</sub>",
        "Molecular Mass": "",
        "Melting Point": "169-172 °C"
    }
}