{
    "cas_no": "123-17-1",
    "key_name": "2,6,8-Trimethyl-4-nonanol",
    "cn_name": "2,6,8-三甲基-4-壬醇;",
    "alternate_name": "4-Nonanol, 2,6,8-trimethyl-;2,6,8-Trimethyl-4-nonanol;NSC 60574",
    "duplicated_cas_no": "19870-37-2",
    "SMILES": "C(CC(CC(C)C)O)(CC(C)C)C",
    "meta_data": {
        "InChI": "InChI=1S/C12H26O/c1-9(2)6-11(5)8-12(13)7-10(3)4/h9-13H,6-8H2,1-5H3",
        "InChIKey": null,
        "Canonical SMILES": "OC(CC(C)C)CC(C)CC(C)C",
        "Molecular Formula": "C<sub>12</sub>H<sub>26</sub>O",
        "Molecular Mass": "186.33",
        "Boiling Point": "225 °C"
    }
}