{
    "cas_no": "7440-06-4",
    "key_name": "Platinum",
    "cn_name": "铂;海绵铂;",
    "alternate_name": "Platinum;C.I. 77795;Liquid Bright Platinum;Platinum black;PR 0;Platinum element;Furuuchi 8105;TP 1 (metal);TR 706;TP 1;TPT 200;A 3788A;Engelhard A 3788A;IASO;APS-WM 100CA;TCT 241;TEC 90330;HTP 020;TR 7902;Metalor 6082;Platinum gray;AY 1050;TR 7091T;9410DX;OK-PT 10;VUVU 500;Pt M579B;MeSH ID: D010984",
    "duplicated_cas_no": "21547-63-7",
    "SMILES": "[Pt]",
    "meta_data": {
        "InChI": "InChI=1S/Pt",
        "InChIKey": null,
        "Canonical SMILES": "[Pt]",
        "Molecular Formula": "Pt",
        "Molecular Mass": "",
        "Boiling Point": "3825 °C",
        "Melting Point": "1768.4 °C",
        "Density": "21.45 g/cm³"
    }
}