{
    "cas_no": "6258-30-6",
    "key_name": "4-Chloro-α,α-dimethylbenzeneacetic acid",
    "cn_name": "2-(4-氯苯基)-2-甲基丙酸;",
    "alternate_name": "Benzeneacetic acid, 4-chloro-α,α-dimethyl-;Hydratropic acid, α-methyl-<em>p</em>-chloro-;Hydratropic acid, <em>p</em>-chloro-α-methyl-;4-Chloro-α,α-dimethylbenzeneacetic acid;2-(<em>p</em>-Chlorophenyl)-2-methylpropionic acid;2-(4-Chlorophenyl)-2-methylpropionic acid;2-(4-Chlorophenyl)-2-methylpropanoic acid",
    "duplicated_cas_no": "",
    "SMILES": "C(C(O)=O)(C)(C)C1=CC=C(Cl)C=C1",
    "meta_data": {
        "InChI": "InChI=1S/C10H11ClO2/c1-10(2,9(12)13)7-3-5-8(11)6-4-7/h3-6H,1-2H3,(H,12,13)",
        "InChIKey": null,
        "Canonical SMILES": "O=C(O)C(C1=CC=C(Cl)C=C1)(C)C",
        "Molecular Formula": "C<sub>10</sub>H<sub>11</sub>ClO<sub>2</sub>",
        "Molecular Mass": "198.65",
        "Boiling Point": "85 °C @ Press: 0.4 Torr",
        "Melting Point": "124 °C",
        "Density": "1.1929 g/cm³ @ Temp: 20 °C"
    }
}