{
    "cas_no": "420-45-1",
    "key_name": "Propane, 2,2-difluoro-",
    "cn_name": "2,2-二氟丙烷;2,2-二氟丙烷;",
    "alternate_name": "Propane, 2,2-difluoro-;2,2-Difluoropropane;Dimethyldifluoromethane;R 272ca;HFC 272ca",
    "duplicated_cas_no": "",
    "SMILES": "C(C)(C)(F)F",
    "meta_data": {
        "InChI": "InChI=1S/C3H6F2/c1-3(2,4)5/h1-2H3",
        "InChIKey": null,
        "Canonical SMILES": "FC(F)(C)C",
        "Molecular Formula": "C<sub>3</sub>H<sub>6</sub>F<sub>2</sub>",
        "Molecular Mass": "80.08",
        "Boiling Point": "-0.4 °C",
        "Melting Point": "-104.8 °C",
        "Density": "0.92 g/cm³ @ Temp: 20 °C"
    }
}