{
    "cas_no": "10273-90-2",
    "key_name": "3-Methyl-2-phenylpyridine",
    "cn_name": "3-甲基-2-苯基吡啶;",
    "alternate_name": "Pyridine, 3-methyl-2-phenyl-;3-Picoline, 2-phenyl-;3-Methyl-2-phenylpyridine;NSC 26784;2-Phenyl-3-methylpyridine",
    "duplicated_cas_no": "",
    "SMILES": "CC1=C(C2=CC=CC=C2)N=CC=C1",
    "meta_data": {
        "InChI": "InChI=1S/C12H11N/c1-10-6-5-9-13-12(10)11-7-3-2-4-8-11/h2-9H,1H3",
        "InChIKey": null,
        "Canonical SMILES": "N=1C=CC=C(C1C=2C=CC=CC2)C",
        "Molecular Formula": "C<sub>12</sub>H<sub>11</sub>N",
        "Molecular Mass": "169.22",
        "Boiling Point": "148-148.5 °C @ Press: 16 Torr",
        "Density": "1.0648 g/cm³ @ Temp: 20 °C"
    }
}