{
    "cas_no": "2893-33-6",
    "key_name": "2,6-Pyridinedicarbonitrile",
    "cn_name": "2,6-吡啶二甲腈;2,6-二氰基吡啶;",
    "alternate_name": "2,6-Pyridinedicarbonitrile;2,6-Dicyanopyridine",
    "duplicated_cas_no": "",
    "SMILES": "C(#N)C=1N=C(C#N)C=CC1",
    "meta_data": {
        "InChI": "InChI=1S/C7H3N3/c8-4-6-2-1-3-7(5-9)10-6/h1-3H",
        "InChIKey": null,
        "Canonical SMILES": "N#CC=1N=C(C#N)C=CC1",
        "Molecular Formula": "C<sub>7</sub>H<sub>3</sub>N<sub>3</sub>",
        "Molecular Mass": "129.12",
        "Melting Point": "123 °C"
    }
}