{
    "cas_no": "1001-26-9",
    "key_name": "Ethyl 3-ethoxy-2-propenoate",
    "cn_name": "3-乙氧基丙烯酸乙酯;",
    "alternate_name": "2-Propenoic acid, 3-ethoxy-, ethyl ester;Acrylic acid, 3-ethoxy-, ethyl ester;Ethyl 3-ethoxy-2-propenoate;Ethyl β-ethoxyacrylate;Ethyl 3-ethoxyacrylate;NSC 6828;3-Ethoxy-2-propenoic acid ethyl ester;3-Ethoxyacrylic acid ethyl ester",
    "duplicated_cas_no": "",
    "SMILES": "C(C(OCC)=O)=COCC",
    "meta_data": {
        "InChI": "InChI=1S/C7H12O3/c1-3-9-6-5-7(8)10-4-2/h5-6H,3-4H2,1-2H3",
        "InChIKey": null,
        "Canonical SMILES": "O=C(OCC)C=COCC",
        "Molecular Formula": "C<sub>7</sub>H<sub>12</sub>O<sub>3</sub>",
        "Molecular Mass": "144.17",
        "Boiling Point": "78.5-79.0 °C @ Press: 10 Torr",
        "Density": "0.994 g/cm³ @ Temp: 20 °C"
    }
}