{
    "cas_no": "5451-09-2",
    "key_name": "Aminolevulinic acid hydrochloride",
    "cn_name": "5-氨基乙酰丙酸盐酸盐;",
    "alternate_name": "Pentanoic acid, 5-amino-4-oxo-, hydrochloride (1:1);Levulinic acid, 5-amino-, hydrochloride;Pentanoic acid, 5-amino-4-oxo-, hydrochloride;δ-Aminolevulinic acid hydrochloride;5-Aminolevulinic acid hydrochloride;Aminolevulinic acid hydrochloride;5-Amino-4-oxopentanoic acid hydrochloride;5-Aminolaevulinic acid hydrochloride;Levulan Kerastick;Ameluz;Gliolan",
    "duplicated_cas_no": "",
    "SMILES": "C(CCC(O)=O)(CN)=O.Cl",
    "meta_data": {
        "InChI": "InChI=1S/C5H9NO3.ClH/c6-3-4(7)1-2-5(8)9;/h1-3,6H2,(H,8,9);1H",
        "InChIKey": null,
        "Canonical SMILES": "Cl.O=C(O)CCC(=O)CN",
        "Molecular Formula": "C<sub>5</sub>H<sub>9</sub>NO<sub>3</sub>.ClH",
        "Molecular Mass": "",
        "Melting Point": "145 °C"
    }
}