{
    "cas_no": "500-38-9",
    "key_name": "Nordihydroguaiaretic acid",
    "cn_name": "去甲二氢愈创木酸;",
    "alternate_name": "1,2-Benzenediol, 4,4′-(2,3-dimethyl-1,4-butanediyl)bis-;Pyrocatechol, 4,4′-(2,3-dimethyltetramethylene)di-;4,4′-(2,3-Dimethyl-1,4-butanediyl)bis[1,2-benzenediol];Butane, 1,4-bis(3,4-dihydroxyphenyl)-2,3-dimethyl-;Dihydronorguaiaretic acid;β,γ-Dimethyl-α,δ-bis(3,4-dihydroxyphenyl)butane;4,4′-(2,3-Dimethyltetramethylene)dipyrocatechol;Dinorguaiaretic acid, dihydro-;NDGA;Nordihydroguaiaretic acid;Norguaiaretic acid, dihydro-;4,4′-(2,3-Dimethyl-1,4-butanediyl)bis(pyrocatechol);1,4-Bis(3,4-dihydroxyphenyl)-2,3-dimethylbutane;NSC 4291;4-[4-(3,4-Dihydroxyphenyl)-2,3-dimethylbutyl]benzene-1,2-diol",
    "duplicated_cas_no": "1413-68-9",
    "SMILES": "C(C(C(CC1=CC(O)=C(O)C=C1)C)C)C2=CC(O)=C(O)C=C2",
    "meta_data": {
        "InChI": "InChI=1S/C18H22O4/c1-11(7-13-3-5-15(19)17(21)9-13)12(2)8-14-4-6-16(20)18(22)10-14/h3-6,9-12,19-22H,7-8H2,1-2H3",
        "InChIKey": null,
        "Canonical SMILES": "OC1=CC=C(C=C1O)CC(C)C(C)CC2=CC=C(O)C(O)=C2",
        "Molecular Formula": "C<sub>18</sub>H<sub>22</sub>O<sub>4</sub>",
        "Molecular Mass": "302.36",
        "Melting Point": "185.5 °C"
    }
}