{
    "cas_no": "18457-55-1",
    "key_name": "(-)-Perillyl alcohol",
    "cn_name": null,
    "alternate_name": "1-Cyclohexene-1-methanol, 4-(1-methylethenyl)-, (4<em>S</em>)-;<em>p</em>-Mentha-1,8-dien-7-ol, (<em>S</em>)-(-)-;1-Cyclohexene-1-methanol, 4-(1-methylethenyl)-, (<em>S</em>)-;(4<em>S</em>)-4-(1-Methylethenyl)-1-cyclohexene-1-methanol;(-)-<em>p</em>-Mentha-1,8-dien-7-ol;<em>l</em>-Perillyl alcohol;(-)-Perillic alcohol;(-)-Perillyl alcohol;(<em>S</em>)-Perillyl alcohol;(<em>S</em>)-(-)-Perillyl alcohol;(-)-(<em>S</em>)-Perillyl alcohol;(<em>S</em>)-(-)-Perilla alcohol;Perycorolle;(<em>S</em>)-(-)-(4-Isopropenyl-1-cyclohexenyl)methanol;(<em>S</em>)-Perillic alcohol;Alda-351;1-Cyclohexene-1-methanol 4-(1-methylethenyl)-, (4S)-;[(4S)-4-(Prop-1-en-2-yl)cyclohex-1-en-1-yl]methanol;[(4S)-4-Prop-1-en-2-ylcyclohexen-1-yl]methanol",
    "duplicated_cas_no": "",
    "SMILES": "C(C)(=C)[C@H]1CCC(CO)=CC1",
    "meta_data": {
        "InChI": "InChI=1S/C10H16O/c1-8(2)10-5-3-9(7-11)4-6-10/h3,10-11H,1,4-7H2,2H3/t10-/m1/s1",
        "InChIKey": null,
        "Canonical SMILES": "OCC1=CCC(C(=C)C)CC1",
        "Molecular Formula": "C<sub>10</sub>H<sub>16</sub>O",
        "Molecular Mass": "152.23",
        "Boiling Point": "200 °C @ Press: 0.1 mmHg"
    }
}