{
    "cas_no": "2752-64-9",
    "key_name": "Mesaconitine",
    "cn_name": "中乌头碱;新乌头碱;",
    "alternate_name": "Aconitane-3,8,13,14,15-pentol, 1,6,16-trimethoxy-4-(methoxymethyl)-20-methyl-, 8-acetate 14-benzoate, (1α,3α,6α,14α,15α,16β)-;Mesaconitine;2<em>H</em>-12,3,6a-Ethanylylidene-7,9-methanonaphth[2,3-<em>b</em>]azocine, aconitane-3,8,13,14,15-pentol deriv.;NSC 77210",
    "duplicated_cas_no": "6822-39-5",
    "SMILES": "O(C)[C@@H]1[C@@]23[C@]4([C@](COC)(CN(C)[C@@]2([C@]([C@@H]4OC)([C@]5(OC(C)=O)[C@@]6([C@]3(C[C@@](O)([C@@H]6OC(=O)C7=CC=CC=C7)[C@@H](OC)[C@@H]5O)[H])[H])[H])[H])[C@H](O)C1)[H]",
    "meta_data": {
        "InChI": "InChI=1S/C33H45NO11/c1-16(35)45-33-21-18(13-31(39,28(43-6)26(33)37)27(21)44-29(38)17-10-8-7-9-11-17)32-20(41-4)12-19(36)30(15-40-3)14-34(2)25(32)22(33)23(42-5)24(30)32/h7-11,18-28,36-37,39H,12-15H2,1-6H3/t18-,19-,20+,21-,22+,23+,24-,25-,26+,27-,28+,30+,31-,32+,33-/m1/s1",
        "InChIKey": null,
        "Canonical SMILES": "O=C(OC1C2C3CC1(O)C(OC)C(O)C2(OC(=O)C)C4C(OC)C5C6(COC)CN(C)C4C35C(OC)CC6O)C=7C=CC=CC7",
        "Molecular Formula": "C<sub>33</sub>H<sub>45</sub>NO<sub>11</sub>",
        "Molecular Mass": "631.71",
        "Melting Point": "208-209 °C"
    }
}