{
    "cas_no": "71-23-8",
    "key_name": "1-Propanol",
    "cn_name": "丙醇;正丙醇;1-丙醇;",
    "alternate_name": "1-Propanol;Propyl alcohol;Ethylcarbinol;Optal;Osmosol extra;Propanol;<em>n</em>-Propanol;<em>n</em>-Propyl alcohol;1-Hydroxypropane;NSC 30300;MeSH ID: D000433",
    "duplicated_cas_no": "",
    "SMILES": "C(CO)C",
    "meta_data": {
        "InChI": "InChI=1S/C3H8O/c1-2-3-4/h4H,2-3H2,1H3",
        "InChIKey": null,
        "Canonical SMILES": "OCCC",
        "Molecular Formula": "C<sub>3</sub>H<sub>8</sub>O",
        "Molecular Mass": "60.10",
        "Boiling Point": "97.2 °C",
        "Melting Point": "-127 °C",
        "Density": "0.8053 g/cm³ @ Temp: 20 °C"
    }
}