{
    "cas_no": "3153-36-4",
    "key_name": "Ethyl 4-chlorobutyrate",
    "cn_name": "4-氯丁酸乙酯;",
    "alternate_name": "Butanoic acid, 4-chloro-, ethyl ester;Butyric acid, 4-chloro-, ethyl ester;Ethyl 4-chlorobutyrate;Ethyl 4-chlorobutanoate;Ethyl γ-chlorobutyrate;Ethyl ω-chlorobutyrate;4-Chlorobutyric acid ethyl ester;NSC 81215",
    "duplicated_cas_no": "",
    "SMILES": "C(CCCCl)(OCC)=O",
    "meta_data": {
        "InChI": "InChI=1S/C6H11ClO2/c1-2-9-6(8)4-3-5-7/h2-5H2,1H3",
        "InChIKey": null,
        "Canonical SMILES": "O=C(OCC)CCCCl",
        "Molecular Formula": "C<sub>6</sub>H<sub>11</sub>ClO<sub>2</sub>",
        "Molecular Mass": "150.60",
        "Boiling Point": "184 °C"
    }
}