{
    "cas_no": "60-34-4",
    "key_name": "Methylhydrazine",
    "cn_name": "甲基肼;甲肼;",
    "alternate_name": "Hydrazine, methyl-;Methylhydrazine;MMH;Monomethylhydrazine",
    "duplicated_cas_no": "",
    "SMILES": "N(C)N",
    "meta_data": {
        "InChI": "InChI=1S/CH6N2/c1-3-2/h3H,2H2,1H3",
        "InChIKey": null,
        "Canonical SMILES": "NNC",
        "Molecular Formula": "CH<sub>6</sub>N<sub>2</sub>",
        "Molecular Mass": "46.07",
        "Boiling Point": "87.5 °C",
        "Melting Point": "-52.4 °C",
        "Density": "0.874 g/cm³ @ Temp: 25 °C"
    }
}