{
    "cas_no": "28556-81-2",
    "key_name": "2,6-Dimethylphenyl isocyanate",
    "cn_name": "2,6-二甲苯基异氰酸酯;",
    "alternate_name": "Benzene, 2-isocyanato-1,3-dimethyl-;Isocyanic acid, 2,6-xylyl ester;2-Isocyanato-1,3-dimethylbenzene;2,6-Xylyl isocyanate;2,6-Dimethylphenyl isocyanate;NSC 165602;2,6-Dimethylphenyleneisocyanate",
    "duplicated_cas_no": "",
    "SMILES": "N(=C=O)C1=C(C)C=CC=C1C",
    "meta_data": {
        "InChI": "InChI=1S/C9H9NO/c1-7-4-3-5-8(2)9(7)10-6-11/h3-5H,1-2H3",
        "InChIKey": null,
        "Canonical SMILES": "O=C=NC=1C(=CC=CC1C)C",
        "Molecular Formula": "C<sub>9</sub>H<sub>9</sub>NO",
        "Molecular Mass": "147.17",
        "Boiling Point": "87-89 °C @ Press: 12 Torr"
    }
}