{
    "cas_no": "26482-00-8",
    "key_name": "Pyridinium, 1-[2-oxo-2-(2-pyridinyl)ethyl]-, iodide (1:1)",
    "cn_name": null,
    "alternate_name": "Pyridinium, 1-[2-oxo-2-(2-pyridinyl)ethyl]-, iodide (1:1);Pyridinium, 1-(picolinoylmethyl)-, iodide;Pyridinium, 1-[2-oxo-2-(2-pyridinyl)ethyl]-, iodide;1-Picolinoylmethylpyridinium iodide;1-[2-(2-Pyridinyl)-2-oxoethyl]pyridinium iodide;<em>N</em>-[2-(2-Pyridyl)-2-oxoethyl]pyridinium iodide;1-[2-(2-Pyridyl)-2-oxoethyl]pyridinium iodide;<em>N</em>-[2-Oxo-2-(2-pyridyl)ethyl]pyridinium iodide;1-(2-Pyridylcarbonylmethyl)pyridinium iodide;2-(2-Pyridyl)-2-oxoethylpyridinium iodide;1-(2-Pyridacyl)pyridinium iodide;1-[2-Oxo-2-(2-pyridinyl)ethyl]pyridinium iodide;Pyridacylpyridinium iodide;1-[2-Oxo-2-(pyridin-2-yl)ethyl]pyridin-1-ium iodide",
    "duplicated_cas_no": "144357-58-4",
    "SMILES": "C(C[N+]=1C=CC=CC1)(=O)C2=CC=CC=N2.[I-]",
    "meta_data": {
        "InChI": "InChI=1S/C12H11N2O.HI/c15-12(11-6-2-3-7-13-11)10-14-8-4-1-5-9-14;/h1-9H,10H2;1H/q+1;/p-1",
        "InChIKey": null,
        "Canonical SMILES": "[I-].O=C(C1=NC=CC=C1)C[N+]=2C=CC=CC2",
        "Molecular Formula": "C<sub>12</sub>H<sub>11</sub>N<sub>2</sub>O.I",
        "Molecular Mass": "",
        "Melting Point": "&gt;300 °C"
    }
}