{
    "cas_no": "22819-07-4",
    "key_name": "3-(Phenylmethyl)-1<em>H</em>-1,2,4-triazol-5-amine",
    "cn_name": "3-氨基-5-苄基-4H-1,2,4-三唑;",
    "alternate_name": "1<em>H</em>-1,2,4-Triazol-5-amine, 3-(phenylmethyl)-;<em>s</em>-Triazole, 3-amino-5-benzyl-;1<em>H</em>-1,2,4-Triazol-3-amine, 5-(phenylmethyl)-;3-(Phenylmethyl)-1<em>H</em>-1,2,4-triazol-5-amine;3-Amino-5-benzyl-1,2,4-triazole;5-Benzyl-2<em>H</em>-1,2,4-triazol-3-amine;3-Benzyl-1<em>H</em>-1,2,4-triazol-5-amine;3-Benzyl-5-amino-1,2,4-triazol",
    "duplicated_cas_no": "",
    "SMILES": "C(C1=NN=C(N)N1)C2=CC=CC=C2",
    "meta_data": {
        "InChI": "InChI=1S/C9H10N4/c10-9-11-8(12-13-9)6-7-4-2-1-3-5-7/h1-5H,6H2,(H3,10,11,12,13)",
        "InChIKey": null,
        "Canonical SMILES": "N=1N=C(NC1N)CC=2C=CC=CC2",
        "Molecular Formula": "C<sub>9</sub>H<sub>10</sub>N<sub>4</sub>",
        "Molecular Mass": "174.20",
        "Melting Point": "170-170.5 °C"
    }
}