{
    "cas_no": "890-98-2",
    "key_name": "Benzyl mandelate",
    "cn_name": "DL-扁桃酸苄酯;",
    "alternate_name": "Benzeneacetic acid, α-hydroxy-, phenylmethyl ester;Mandelic acid, benzyl ester;Benzyl mandelate;Phenylglycolic acid benzyl ester;Benzylin;Spasmolyt;<span class=\"text-smallcaps\">DL</span>-Mandelic acid benzyl ester;(±)-Benzyl mandelate;NSC 9522;Diphenylmethyl mandelate;(+/-)-(Phenyl)methyl 2-hydroxy-2-phenylacetate",
    "duplicated_cas_no": "80409-16-1",
    "SMILES": "C(C(OCC1=CC=CC=C1)=O)(O)C2=CC=CC=C2",
    "meta_data": {
        "InChI": "InChI=1S/C15H14O3/c16-14(13-9-5-2-6-10-13)15(17)18-11-12-7-3-1-4-8-12/h1-10,14,16H,11H2",
        "InChIKey": null,
        "Canonical SMILES": "O=C(OCC=1C=CC=CC1)C(O)C=2C=CC=CC2",
        "Molecular Formula": "C<sub>15</sub>H<sub>14</sub>O<sub>3</sub>",
        "Molecular Mass": "242.27",
        "Melting Point": "93 °C"
    }
}