{
    "cas_no": "50-60-2",
    "key_name": "Phentolamine",
    "cn_name": "酚妥拉明;3-[[(4,5-二氢-1H-咪唑-2-基)甲基](4-甲苯基)氨基]苯酚;",
    "alternate_name": "Phenol, 3-[[(4,5-dihydro-1<em>H</em>-imidazol-2-yl)methyl](4-methylphenyl)amino]-;Phenol, <em>m</em>-[<em>N</em>-(2-imidazolin-2-ylmethyl)-<em>p</em>-toluidino]-;3-[[(4,5-Dihydro-1<em>H</em>-imidazol-2-yl)methyl](4-methylphenyl)amino]phenol;C 7337 Ciba;2-[[<em>N</em>-(<em>m</em>-Hydroxyphenyl)-<em>p</em>-toluidino]methyl]-2-imidazoline;2-(<em>m</em>-Hydroxy-<em>N</em>-<em>p</em>-tolylanilinomethyl)-2-imidazoline;Phentolamine;Regitin;Regitine;2-(<em>N</em>′-<em>p</em>-Tolyl-<em>N</em>′-<em>m</em>-hydroxyphenylaminomethyl)-2-imidazoline;Fentolamine;C 7337;Dibasin;3-(((4,5-Dihydro-1<em>H</em>-imidazol-2-yl)methyl)(<em>p</em>-tolyl)amino)phenol;3-[(4,5-Dihydro-1<em>H</em>-imidazol-2-ylmethyl)-<em>p</em>-tolyl-amino]-phenol;3-[(4,5-Dihydro-1<em>H</em>-imidazol-3-ium-2-ylmethyl)(4-methylphenyl)amino]benzenolate;MeSH ID: D010646",
    "duplicated_cas_no": "",
    "SMILES": "N(CC=1NCCN1)(C2=CC(O)=CC=C2)C3=CC=C(C)C=C3",
    "meta_data": {
        "InChI": "InChI=1S/C17H19N3O/c1-13-5-7-14(8-6-13)20(12-17-18-9-10-19-17)15-3-2-4-16(21)11-15/h2-8,11,21H,9-10,12H2,1H3,(H,18,19)",
        "InChIKey": null,
        "Canonical SMILES": "OC1=CC=CC(=C1)N(C2=CC=C(C=C2)C)CC3=NCCN3",
        "Molecular Formula": "C<sub>17</sub>H<sub>19</sub>N<sub>3</sub>O",
        "Molecular Mass": "281.35",
        "Melting Point": "174-175 °C"
    }
}