{
    "cas_no": "74290-66-7",
    "key_name": "3,5-Dibromo-6-methyl-2-pyrazinamine",
    "cn_name": null,
    "alternate_name": "2-Pyrazinamine, 3,5-dibromo-6-methyl-;Pyrazinamine, 3,5-dibromo-6-methyl-;3,5-Dibromo-6-methyl-2-pyrazinamine;2-Amino-3,5-dibromo-6-methylpyrazine;3,5-Dibromo-6-methylpyrazin-2-ylamine",
    "duplicated_cas_no": "",
    "SMILES": "BrC=1C(C)=NC(N)=C(Br)N1",
    "meta_data": {
        "InChI": "InChI=1S/C5H5Br2N3/c1-2-3(6)10-4(7)5(8)9-2/h1H3,(H2,8,9)",
        "InChIKey": null,
        "Canonical SMILES": "BrC=1N=C(Br)C(=NC1N)C",
        "Molecular Formula": "C<sub>5</sub>H<sub>5</sub>Br<sub>2</sub>N<sub>3</sub>",
        "Molecular Mass": "266.92",
        "Melting Point": "167-168 °C"
    }
}