{
    "cas_no": "66254-56-6",
    "key_name": "<em>P</em>-[(1<em>R</em>)-1-amino-2-methylpropyl]phosphonic acid",
    "cn_name": "(R)-(+)-(1-氨基-2-甲丙基)膦酸;(R)-1-氨基-2-甲丙基膦酸;D-1-氨基-2-甲丙基膦酸;",
    "alternate_name": "Phosphonic acid, <em>P</em>-[(1<em>R</em>)-1-amino-2-methylpropyl]-;Phosphonic acid, (1-amino-2-methylpropyl)-, (<em>R</em>)-;Phosphonic acid, [(1<em>R</em>)-1-amino-2-methylpropyl]-;<em>P</em>-[(1<em>R</em>)-1-amino-2-methylpropyl]phosphonic acid;(<em>R</em>)-α-Aminoisobutylphosphonic acid;(1<em>R</em>)-(+)-(1-Amino-2-methylpropyl)phosphonic acid;(1R)-(+)-(1-Amino-2-methylpropyl)phosphonic acid",
    "duplicated_cas_no": "",
    "SMILES": "[C@@H](P(=O)(O)O)(C(C)C)N",
    "meta_data": {
        "InChI": "InChI=1S/C4H12NO3P/c1-3(2)4(5)9(6,7)8/h3-4H,5H2,1-2H3,(H2,6,7,8)/t4-/m1/s1",
        "InChIKey": null,
        "Canonical SMILES": "O=P(O)(O)C(N)C(C)C",
        "Molecular Formula": "C<sub>4</sub>H<sub>12</sub>NO<sub>3</sub>P",
        "Molecular Mass": "153.12",
        "Melting Point": "272-273 °C (decomp)"
    }
}