{
    "cas_no": "90-31-3",
    "key_name": "1-(3-Chlorophenyl)-3-methyl-5-pyrazolone",
    "cn_name": "1-(3-氯苯基)-3-甲基-2-吡唑啉-5-酮;1-(3-氯苯基)-4,5-二氢-3-甲基-1H-吡唑啉-5-酮;",
    "alternate_name": "3<em>H</em>-Pyrazol-3-one, 2-(3-chlorophenyl)-2,4-dihydro-5-methyl-;2-Pyrazolin-5-one, 1-(<em>m</em>-chlorophenyl)-3-methyl-;2-(3-Chlorophenyl)-2,4-dihydro-5-methyl-3<em>H</em>-pyrazol-3-one;1-(<em>m</em>-Chlorophenyl)-3-methyl-5-pyrazolone;1-(3-Chlorophenyl)-3-methyl-5-pyrazolone;3-Methyl-1-(3′-chlorophenyl)-2-pyrazolin-5-one;1-(3′-Chlorophenyl)-3-methyl-2-pyrazolin-5-one;NSC 166399;1-(3-Chlorophenyl)-3-methyl-2-pyrazolin-5-one;1-(3-Chlorophenyl)-3-methyl-4,5-dihydropyrazole-5-one;1-(3-Chlorophenyl)-3-methyl-4,5-dihydro-1<em>H</em>-pyrazol-5-one;2-(3-Chlorophenyl)-5-methyl-4<em>H</em>-pyrazol-3-one",
    "duplicated_cas_no": "",
    "SMILES": "O=C1N(C2=CC(Cl)=CC=C2)N=C(C)C1",
    "meta_data": {
        "InChI": "InChI=1S/C10H9ClN2O/c1-7-5-10(14)13(12-7)9-4-2-3-8(11)6-9/h2-4,6H,5H2,1H3",
        "InChIKey": null,
        "Canonical SMILES": "O=C1N(N=C(C)C1)C=2C=CC=C(Cl)C2",
        "Molecular Formula": "C<sub>10</sub>H<sub>9</sub>ClN<sub>2</sub>O",
        "Molecular Mass": "208.64",
        "Melting Point": "127-127.5 °C"
    }
}