{
    "cas_no": "14216-22-9",
    "key_name": "<em>N</em>-Ethylglucamine",
    "cn_name": "葡乙胺;N-乙基-D-葡萄糖胺;",
    "alternate_name": "<span class=\"text-smallcaps\">D</span>-Glucitol, 1-deoxy-1-(ethylamino)-;Glucitol, 1-deoxy-1-(ethylamino)-, <span class=\"text-smallcaps\">D</span>-;Glucitol, 1-deoxy-1-(ethylamino)-;Sorbitol, 1-deoxy-1-ethylamino-;1-Deoxy-1-(ethylamino)-<span class=\"text-smallcaps\">D</span>-glucitol;<em>N</em>-Ethylglucamine;<span class=\"text-smallcaps\">D</span>-(-)-<em>N</em>-Ethylglucamine;Eglumine;<em>N</em>-Ethyl-<span class=\"text-smallcaps\">D</span>-glucamine",
    "duplicated_cas_no": "",
    "SMILES": "[C@H]([C@@H]([C@@H](CO)O)O)([C@H](CNCC)O)O",
    "meta_data": {
        "InChI": "InChI=1S/C8H19NO5/c1-2-9-3-5(11)7(13)8(14)6(12)4-10/h5-14H,2-4H2,1H3/t5-,6+,7+,8+/m0/s1",
        "InChIKey": null,
        "Canonical SMILES": "OCC(O)C(O)C(O)C(O)CNCC",
        "Molecular Formula": "C<sub>8</sub>H<sub>19</sub>NO<sub>5</sub>",
        "Molecular Mass": "209.24",
        "Melting Point": "137 °C"
    }
}