{
    "cas_no": "452-64-2",
    "key_name": "4-Fluoro-1,2-dimethylbenzene",
    "cn_name": "3,4-二甲基氟苯;4-氟邻二甲苯;",
    "alternate_name": "Benzene, 4-fluoro-1,2-dimethyl-;<em>o</em>-Xylene, 4-fluoro-;4-Fluoro-1,2-dimethylbenzene;4-Fluoro-1,2-xylene;4-Fluoro-<em>o</em>-xylene;1-Fluoro-3,4-dimethylbenzene;1,2-Dimethyl-4-fluorobenzene;NSC 76082;3,4-Dimethylfluorobenzene",
    "duplicated_cas_no": "",
    "SMILES": "CC1=C(C)C=CC(F)=C1",
    "meta_data": {
        "InChI": "InChI=1S/C8H9F/c1-6-3-4-8(9)5-7(6)2/h3-5H,1-2H3",
        "InChIKey": null,
        "Canonical SMILES": "FC1=CC=C(C(=C1)C)C",
        "Molecular Formula": "C<sub>8</sub>H<sub>9</sub>F",
        "Molecular Mass": "124.16",
        "Boiling Point": "143-144 °C @ Press: 730 Torr"
    }
}