{
    "cas_no": "5154-01-8",
    "key_name": "5-Hydroxy-2(1<em>H</em>)-pyridinone",
    "cn_name": null,
    "alternate_name": "2(1<em>H</em>)-Pyridinone, 5-hydroxy-;2,5-Pyridinediol;2(1<em>H</em>)-Pyridone, 5-hydroxy-;5-Hydroxy-2(1<em>H</em>)-pyridinone;2,5-Dihydroxypyridine;5-Hydroxy-2-pyridone;6-Hydroxy-3-pyridinol;NSC 224189",
    "duplicated_cas_no": "24154-26-5",
    "SMILES": "OC=1C=CC(=O)NC1",
    "meta_data": {
        "InChI": "InChI=1S/C5H5NO2/c7-4-1-2-5(8)6-3-4/h1-3,7H,(H,6,8)",
        "InChIKey": null,
        "Canonical SMILES": "O=C1C=CC(O)=CN1",
        "Molecular Formula": "C<sub>5</sub>H<sub>5</sub>NO<sub>2</sub>",
        "Molecular Mass": "111.10",
        "Melting Point": "240-250 °C (decomp)"
    }
}