{
    "cas_no": "3428-24-8",
    "key_name": "4,5-Dichlorocatechol",
    "cn_name": "4,5-二氯儿茶酚;",
    "alternate_name": "1,2-Benzenediol, 4,5-dichloro-;Pyrocatechol, 4,5-dichloro-;4,5-Dichloro-1,2-benzenediol;4,5-Dichlorocatechol;4,5-Dichloropyrocatechol;4,5-Dichloro-1,2-dihydroxybenzene",
    "duplicated_cas_no": "",
    "SMILES": "ClC1=C(Cl)C=C(O)C(O)=C1",
    "meta_data": {
        "InChI": "InChI=1S/C6H4Cl2O2/c7-3-1-5(9)6(10)2-4(3)8/h1-2,9-10H",
        "InChIKey": null,
        "Canonical SMILES": "ClC=1C=C(O)C(O)=CC1Cl",
        "Molecular Formula": "C<sub>6</sub>H<sub>4</sub>Cl<sub>2</sub>O<sub>2</sub>",
        "Molecular Mass": "179.00",
        "Melting Point": "116-117 °C"
    }
}