{
    "cas_no": "865-52-1",
    "key_name": "Germane, tetramethyl-",
    "cn_name": "四甲基锗;",
    "alternate_name": "Germane, tetramethyl-;Tetramethylgermane;Tetramethylgermanium;NSC 65801",
    "duplicated_cas_no": "",
    "SMILES": "[Ge](C)(C)(C)C",
    "meta_data": {
        "InChI": "InChI=1S/C4H12Ge/c1-5(2,3)4/h1-4H3",
        "InChIKey": null,
        "Canonical SMILES": "C[Ge](C)(C)C",
        "Molecular Formula": "C<sub>4</sub>H<sub>12</sub>Ge",
        "Molecular Mass": "132.78",
        "Boiling Point": "43.4 °C",
        "Melting Point": "-88 °C",
        "Density": "0.975 g/cm³"
    }
}