{
    "cas_no": "144896-51-5",
    "key_name": "3,5-Dimethyl-4-(phenylmethoxy)benzaldehyde",
    "cn_name": "4-苄氧-3,5-二甲基苯甲醛;",
    "alternate_name": "Benzaldehyde, 3,5-dimethyl-4-(phenylmethoxy)-;3,5-Dimethyl-4-(phenylmethoxy)benzaldehyde;4-Benzyloxy-3,5-dimethylbenzaldehyde;3,5-Dimethyl-4-benzyloxybenzaldehyde",
    "duplicated_cas_no": "",
    "SMILES": "O(CC1=CC=CC=C1)C2=C(C)C=C(C=O)C=C2C",
    "meta_data": {
        "InChI": "InChI=1S/C16H16O2/c1-12-8-15(10-17)9-13(2)16(12)18-11-14-6-4-3-5-7-14/h3-10H,11H2,1-2H3",
        "InChIKey": null,
        "Canonical SMILES": "O=CC=1C=C(C(OCC=2C=CC=CC2)=C(C1)C)C",
        "Molecular Formula": "C<sub>16</sub>H<sub>16</sub>O<sub>2</sub>",
        "Molecular Mass": "240.30",
        "Melting Point": "103-104 °C"
    }
}