{
    "cas_no": "3038-48-0",
    "key_name": "[2-(Trifluoromethyl)phenyl]acetic acid",
    "cn_name": "2-(三氟甲基)苯乙酸;邻三氟甲基苯乙酸;",
    "alternate_name": "Benzeneacetic acid, 2-(trifluoromethyl)-;Acetic acid, (α,α,α-trifluoro-<em>o</em>-tolyl)-;2-(Trifluoromethyl)benzeneacetic acid;(α,α,α-Trifluoro-<em>o</em>-tolyl)acetic acid;<em>o</em>-(Trifluoromethyl)phenylacetic acid;[2-(Trifluoromethyl)phenyl]acetic acid;2-[2-(Trifluoromethyl)phenyl]acetic acid;<em>o</em>-(Trifluoromethyl)benzeneacetic acid",
    "duplicated_cas_no": "",
    "SMILES": "C(F)(F)(F)C1=C(CC(O)=O)C=CC=C1",
    "meta_data": {
        "InChI": "InChI=1S/C9H7F3O2/c10-9(11,12)7-4-2-1-3-6(7)5-8(13)14/h1-4H,5H2,(H,13,14)",
        "InChIKey": null,
        "Canonical SMILES": "O=C(O)CC=1C=CC=CC1C(F)(F)F",
        "Molecular Formula": "C<sub>9</sub>H<sub>7</sub>F<sub>3</sub>O<sub>2</sub>",
        "Molecular Mass": "204.15",
        "Melting Point": "100-102 °C"
    }
}