{
    "cas_no": "14756-77-5",
    "key_name": "1,5-Naphthyridin-3-amine",
    "cn_name": null,
    "alternate_name": "1,5-Naphthyridin-3-amine;1,5-Naphthyridine, 3-amino-;3-Amino-1,5-naphthyridine;[1,5]Naphthyridin-3-ylamine",
    "duplicated_cas_no": "",
    "SMILES": "NC1=CC2=C(N=C1)C=CC=N2",
    "meta_data": {
        "InChI": "InChI=1S/C8H7N3/c9-6-4-8-7(11-5-6)2-1-3-10-8/h1-5H,9H2",
        "InChIKey": null,
        "Canonical SMILES": "N=1C=CC=C2N=CC(N)=CC12",
        "Molecular Formula": "C<sub>8</sub>H<sub>7</sub>N<sub>3</sub>",
        "Molecular Mass": "145.16",
        "Melting Point": "144-145 °C"
    }
}