{
    "cas_no": "2131-62-6",
    "key_name": "4-Isothiocyanatobenzoic acid",
    "cn_name": "4-羧基苯基异硫氰酸酯;",
    "alternate_name": "Benzoic acid, 4-isothiocyanato-;Benzoic acid, <em>p</em>-isothiocyanato-;4-Isothiocyanatobenzoic acid;<em>p</em>-Isothiocyanatobenzoic acid;4-Carboxyphenyl isothiocyanate;NSC 52064",
    "duplicated_cas_no": "",
    "SMILES": "C(O)(=O)C1=CC=C(N=C=S)C=C1",
    "meta_data": {
        "InChI": "InChI=1S/C8H5NO2S/c10-8(11)6-1-3-7(4-2-6)9-5-12/h1-4H,(H,10,11)",
        "InChIKey": null,
        "Canonical SMILES": "O=C(O)C1=CC=C(N=C=S)C=C1",
        "Molecular Formula": "C<sub>8</sub>H<sub>5</sub>NO<sub>2</sub>S",
        "Molecular Mass": "179.20",
        "Melting Point": "209-210 °C"
    }
}