{
    "cas_no": "253-52-1",
    "key_name": "Phthalazine",
    "cn_name": "2,3-二氮杂萘;",
    "alternate_name": "Phthalazine;2,3-Benzodiazine;Benzo[<em>d</em>]pyridazine;2,3-Diazanaphthalene;β-Phenodiazine;NSC 62484;NSC 63241",
    "duplicated_cas_no": "",
    "SMILES": "C12=C(C=NN=C1)C=CC=C2",
    "meta_data": {
        "InChI": "InChI=1S/C8H6N2/c1-2-4-8-6-10-9-5-7(8)3-1/h1-6H",
        "InChIKey": null,
        "Canonical SMILES": "N=1N=CC=2C=CC=CC2C1",
        "Molecular Formula": "C<sub>8</sub>H<sub>6</sub>N<sub>2</sub>",
        "Molecular Mass": "130.15",
        "Boiling Point": "316 °C",
        "Melting Point": "90.5 °C"
    }
}