{
    "cas_no": "6001-74-7",
    "key_name": "Thiazole, 5-(2-chloroethyl)-4-methyl-, hydrochloride (1:1)",
    "cn_name": null,
    "alternate_name": "Thiazole, 5-(2-chloroethyl)-4-methyl-, hydrochloride (1:1);Thiazole, 5-(2-chloroethyl)-4-methyl-, hydrochloride;5-(2-Chloroethyl)-4-methylthiazole hydrochloride;Clomethiazole hydrochloride;Chlormethiazole hydrochloride;2-(4-Methylthiazol-5-yl)ethyl chloride hydrochloride",
    "duplicated_cas_no": "",
    "SMILES": "C(CCl)C1=C(C)N=CS1.Cl",
    "meta_data": {
        "InChI": "InChI=1S/C6H8ClNS.ClH/c1-5-6(2-3-7)9-4-8-5;/h4H,2-3H2,1H3;1H",
        "InChIKey": null,
        "Canonical SMILES": "Cl.ClCCC=1SC=NC1C",
        "Molecular Formula": "C<sub>6</sub>H<sub>8</sub>ClNS.ClH",
        "Molecular Mass": "",
        "Melting Point": "130 °C"
    }
}