{
    "cas_no": "6829-40-9",
    "key_name": "Propanedioic acid, 2-amino-, 1,3-diethyl ester",
    "cn_name": "氨基丙二酸乙酯;氨基丙二酸二乙酯;",
    "alternate_name": "Propanedioic acid, 2-amino-, 1,3-diethyl ester;Malonic acid, amino-, diethyl ester;Propanedioic acid, amino-, diethyl ester;Diethyl aminomalonate;Diethyl 2-aminomalonate;Aminomalonic acid diethyl ester;NSC 121992;1,3-Diethyl 2-aminopropanedioate;Diethyl aminopropanedioate",
    "duplicated_cas_no": "",
    "SMILES": "C(C(OCC)=O)(C(OCC)=O)N",
    "meta_data": {
        "InChI": "InChI=1S/C7H13NO4/c1-3-11-6(9)5(8)7(10)12-4-2/h5H,3-4,8H2,1-2H3",
        "InChIKey": null,
        "Canonical SMILES": "O=C(OCC)C(N)C(=O)OCC",
        "Molecular Formula": "C<sub>7</sub>H<sub>13</sub>NO<sub>4</sub>",
        "Molecular Mass": "175.18",
        "Boiling Point": "116-118 °C @ Press: 12 Torr",
        "Melting Point": "170 °C"
    }
}