{
    "cas_no": "18127-01-0",
    "key_name": "Bourgeonal",
    "cn_name": "4-(1,1-二甲基乙基)苯丙醛;",
    "alternate_name": "Benzenepropanal, 4-(1,1-dimethylethyl)-;Hydrocinnamaldehyde, <em>p</em>-<em>tert</em>-butyl-;4-(1,1-Dimethylethyl)benzenepropanal;<em>p</em>-<em>tert</em>-Butyldihydrocinnamaldehyde;3-(4-<em>tert</em>-Butylphenyl)propanal;Bourgeonal;3-(<em>p</em>-<em>tert</em>-Butylphenyl)propanal",
    "duplicated_cas_no": "",
    "SMILES": "C(C)(C)(C)C1=CC=C(CCC=O)C=C1",
    "meta_data": {
        "InChI": "InChI=1S/C13H18O/c1-13(2,3)12-8-6-11(7-9-12)5-4-10-14/h6-10H,4-5H2,1-3H3",
        "InChIKey": null,
        "Canonical SMILES": "O=CCCC1=CC=C(C=C1)C(C)(C)C",
        "Molecular Formula": "C<sub>13</sub>H<sub>18</sub>O",
        "Molecular Mass": "190.28",
        "Boiling Point": "112-114 °C @ Press: 2.5 Torr"
    }
}