{
    "cas_no": "500997-70-6",
    "key_name": "(11a<em>S</em>)-10,11,12,13-Tetrahydro-<em>N</em>,<em>N</em>-bis[(1<em>R</em>)-1-phenylethyl]diindeno[7,1-<em>de</em>:1′,7′-<em>fg</em>][1,3,2]dioxaphosphocin-5-amine",
    "cn_name": null,
    "alternate_name": "Diindeno[7,1-<em>de</em>:1′,7′-<em>fg</em>][1,3,2]dioxaphosphocin-5-amine, 10,11,12,13-tetrahydro-<em>N</em>,<em>N</em>-bis[(1<em>R</em>)-1-phenylethyl]-, (11a<em>S</em>)-;(11a<em>S</em>)-10,11,12,13-Tetrahydro-<em>N</em>,<em>N</em>-bis[(1<em>R</em>)-1-phenylethyl]diindeno[7,1-<em>de</em>:1′,7′-<em>fg</em>][1,3,2]dioxaphosphocin-5-amine;(S)-Siphos-PE",
    "duplicated_cas_no": "",
    "SMILES": "N(C(C)C1=CC=CC=C1)(C(C)C2=CC=CC=C2)P3OC4=C5C6(C7=C(O3)C=CC=C7CC6)CCC5=CC=C4",
    "meta_data": {
        "InChI": "InChI=1S/C33H32NO2P/c1-23(25-11-5-3-6-12-25)34(24(2)26-13-7-4-8-14-26)37-35-29-17-9-15-27-19-21-33(31(27)29)22-20-28-16-10-18-30(36-37)32(28)33/h3-18,23-24H,19-22H2,1-2H3",
        "InChIKey": null,
        "Canonical SMILES": "O1C2=CC=CC3=C2C4(C=5C(OP1N(C(C=6C=CC=CC6)C)C(C=7C=CC=CC7)C)=CC=CC5CC4)CC3",
        "Molecular Formula": "C<sub>33</sub>H<sub>32</sub>NO<sub>2</sub>P",
        "Molecular Mass": "505.59",
        "Melting Point": "50-52 °C"
    }
}