{
    "cas_no": "557-59-5",
    "key_name": "Tetracosanoic acid",
    "cn_name": null,
    "alternate_name": "Tetracosanoic acid;Lignoceric acid;<em>n</em>-Tetracosanoic acid;FL 88 (fatty acid);FL 88;L 88 (fatty acid);L 88",
    "duplicated_cas_no": "",
    "SMILES": "C(CCCCCCCCCCCCCCCC)CCCCCCC(O)=O",
    "meta_data": {
        "InChI": "InChI=1S/C24H48O2/c1-2-3-4-5-6-7-8-9-10-11-12-13-14-15-16-17-18-19-20-21-22-23-24(25)26/h2-23H2,1H3,(H,25,26)",
        "InChIKey": null,
        "Canonical SMILES": "O=C(O)CCCCCCCCCCCCCCCCCCCCCCC",
        "Molecular Formula": "C<sub>24</sub>H<sub>48</sub>O<sub>2</sub>",
        "Molecular Mass": "368.64",
        "Melting Point": "84.2 °C"
    }
}