{
    "cas_no": "60317-40-0",
    "key_name": "Dodecyldiethoxymethylsilane",
    "cn_name": "十二烷基甲基二乙氧基硅烷;",
    "alternate_name": "Silane, dodecyldiethoxymethyl-;Dodecyldiethoxymethylsilane;Diethoxydodecylmethylsilane;LS 6360;(Dodecyl)(methyl)diethoxysilane",
    "duplicated_cas_no": "",
    "SMILES": "[Si](CCCCCCCCCCCC)(OCC)(OCC)C",
    "meta_data": {
        "InChI": "InChI=1S/C17H38O2Si/c1-5-8-9-10-11-12-13-14-15-16-17-20(4,18-6-2)19-7-3/h5-17H2,1-4H3",
        "InChIKey": null,
        "Canonical SMILES": "O(CC)[Si](OCC)(C)CCCCCCCCCCCC",
        "Molecular Formula": "C<sub>17</sub>H<sub>38</sub>O<sub>2</sub>Si",
        "Molecular Mass": "302.57",
        "Boiling Point": "140 °C @ Press: 0.5 Torr",
        "Density": "0.845 g/cm³ @ Temp: 25 °C"
    }
}