{
    "cas_no": "25067-11-2",
    "key_name": "Hexafluoropropylene-tetrafluoroethylene copolymer",
    "cn_name": null,
    "alternate_name": "1-Propene, 1,1,2,3,3,3-hexafluoro-, polymer with 1,1,2,2-tetrafluoroethene;Propene, hexafluoro-, polymer with tetrafluoroethylene;1-Propene, 1,1,2,3,3,3-hexafluoro-, polymer with tetrafluoroethene;Propene, hexafluoro-, polymer with C<sub>2</sub>F<sub>4</sub>;Ethylene, tetrafluoro-, polymer with hexafluoropropene;Ethene, tetrafluoro-, polymer with 1,1,2,3,3,3-hexafluoro-1-propene;Hexafluoropropene-tetrafluoroethylene polymer;Teflon FEP;Tetrafluoroethylene-hexafluoropropylene copolymer;Hexafluoropropylene-tetrafluoroethylene copolymer;Teflon 120;Teflon FEP 100A;FEP 160;Hexafluoropropene-tetrafluoroethylene copolymer;Hexafluoropropylene-tetrafluoroethylene polymer;Tetrafluoroethylene-hexafluoropropene copolymer;Tetrafluoroethylene-hexafluoropropene polymer;Teflon FEP 160;Teflon 100;Poly(hexafluoropropene-tetrafluoroethylene);F 160P190;FEP 120;FEP;Perfluorinated (ethylene-propylene copolymer);Tetrafluoroethylene-hexafluoropropylene polymer;Ethylene tetrafluoride-propylene hexafluoride copolymer;FEP 9511;Tetrafluoroethene-hexafluoropropene copolymer;Perfluoroethylene-perfluoropropene polymer;Perfluoroethylene-perfluoropropylene polymer;Perfluoroethylene-perfluoropropylene copolymer;Whitcon TL 120;Spraylon;Teflon FEP 100;Ftorlon 4MD;Ftoroplast 4MD;Fluorolon 4MD;Neoflon N 10;Neoflon FEP;Hexafluoropropene-tetrafluoroethene copolymer;Neoflon ND 2;Teflon TE 9061;Neoflon ND 1;Neoflon N 20;F 160 (polymer);Teflon FEP 200A;Ftoroplast 4MB;Ftoroplast 4MB2;Ftorlon 4MB;Ftorlon 4MB2;Ftorlon F 4MB2;F 4MB2;Teflon FEP-TE 9061;FEP 100;Poly(tetrafluoroethylene-hexafluoropropylene);F 46 (fluoropolymer);Ftorlon F 4MB;Fluorolon F 4MB;Ftoroplast F 4MB;FEP 856-200;Teflon 850;Neoflon ND 4X;FS 46;Ftoroplast F 4MD;Neoflon FEP-NP 30;Teflon FEP 110;Neoflon N 20P;Neoflon ND 4;Perfluoropropylene-tetrafluoroethylene copolymer;Fluoropolymers, hexafluoropropylene-tetrafluoroethylene copolymer;4-Fluoroethylene-6-fluoropropylene copolymer;Neoflon NC 1500;Neoflon NC 1519;Neoflon NC 1529;Teflon FEP-C 20;Neoflon NF 0250;Toyoflon FEP;Neoflon FEP-NQ 20;Ethylene fluoride-propylene fluoride copolymer;Algoflon DVC;Neoflon FEP-NP 20;T 120;ND 1;Toyoflon 25F;Neoflon NF 0050;Teflon FEP 120;Teflon FEP 856-200;Teflon FEP-TE 9250;Teflon 100J;TE 9503J;F 46;F 800-40;Neoflon FEP-NF 0050;F 160;FEP 6000L;120J;Perfluoro(ethylene-propylene copolymer);Teflon 6C;KTL 500F;NP 20;Neoflon NC 1539;PFA 532-8000;Teflon 120J;TE 9075;Du Pont 856-204;F 4MB;Teflon FEP 532-8000;Teflon FEP 3100;NP 23PB;NP 23;Neoflon FEP-NP 40;CD 509;FEP-N 30;Neoflon FEP-NP 12X;Teflon SF;Fluon CD 076;CD 076;TE 3100;TE 4100;Teflon FEP-TE 3100;Teflon FEP-TE 4100;Aflon FEP-H 330B;TB 9075;FEP 532-8000;Teflon FEP 110J;Hostaflon FEP 6107;Neoflon NP 20;Aflex FEP;FEP-N 20;APA 2;APA 2 (polymer);Teflon FEP 532-8110;MDF 120J;Neoflon NF 0150;6C;Neoflon FEP-ND 1;NP 100;Hastex;Tetrafluoroethylene-perfluoroproylene copolymer;NF 025;Aflon FEP;CX 5010;Poly(hexafluoropropylene-co-tetrafluoroethylene);Teflon APA-II;Teflon SF 50;SF 50;Neoflon FEP-N 100;Tetrafluoroethylene-perfluoropropylene copolymer;Perfluoropropene-tetrafluoroethene copolymer;FEP 6107;Neoflon FEP-NP 22;Neoflon FEP Dispersion ND 1;Dyneon FEP-X 6300;Ftoroplast 4MBA;F 4MBA;FEP-T 120;FEP-X 6307;BioFolie IV 76-077-316;Neoflon FEP-NP 20WH;FEP 100J;Tetrafluoroethylene-hexafluropropylene copolymer;Neoflon NF 0012B1;Teflon FEP-TE 9302N;Dyneon FEP 6307;XFO;NCX 1;FEP 6300X;F 4MD;Poly(tetrafluoroethylene-co-hexafluoropropene);ND 1E;TE 5038A;FEP 60;A 4000;A 4000 (release film);Aflon CD 076;Neoflon FEP-NP 100;Teflon FEP-T 121A;Du Pont 856-200;140J;FEP-NP 20;Toyoflon F;FEP-X 6315A;FEP 120J;Teflon FEP 100J;FEP-NP 30;NP 30;Teflon 1000A;Teflon FEP 1000A;FEP 5100J;FEP 100A;Neoflon FEP-NF 0100;T 120J;Toyoflon 50F;FEP-X 6300;NC 1539;FR 463;Dyneon FEP 6107;Neoflon FEP-NC 1500;FEP 6307;FR 5030;Dyneon FEP 6400;NP 12X;Neoflon NP 12X;5100J;NP 20GN;Nowoflon FEP 6107;FEP 120H;Neoflon FEP-NP 130;Neoflon FEP-NP 300;Teflon FEP 140J;Ultraflon FP 10;FEP 121A;FEP-CT 1S;MP 102;Toyoflon 50FE;MP 102 (fluoropolymer);DS 602;DS 600;G 3;G 7;G 3 (fluoropolymer);G 7 (fluoropolymer);Fluon CD 509;Hastex FEP 440dT48f;TE 9568;Neoflon FEP-ND 110;FEP 120JR;Hexafluoropropylene-tetrafluoroethene copolymer;D 603;Teflon 130;Vuelife;Fluon PTFE CD 076;N 20;Neoflon FEP-NP 102;FEP 6300RG;Teflon FEP 750A;FEP 750A;F 4MBB;F 4MBBN;F 4MBP;FEP 120JRB Dispersion;Neoflon FEP-NP 21;FEP 130J;F 4MDB;FEP 6300GZ;Dyneon FEP 6300GZ;Teflon FEP 8000;FJP 810;Neoflon FEP-NP 1101;Teflon TE 9827;Toyoflon FL;FJP 1;FJP 2;FJP 3;FEP-NP 120;Neoflon FEP-NP 120;NP 120;Xylan 80-650;Neoflon FEP-NE 21;NL 1500;Neoflon FEP-NE 2;Neoflon NP 101;FluoroFilm FEP;Teflon FEP 1000J;Teflon 1000J;FEP 120JRB;FEPD 121;Tetrafluoroethene-hexafluoropropylene copolymer;Teflon FEP 9302;FEP 106;Teflon FEP 106;NF 0050;FEP 6322Z;FEP-NE 2;PPA 2800;Hexafluoropropene-TFE copolymer;Neoflon ND 110;Polyflon ND 110;Polyflon FEP-ND 100;ND 110;Neoflon ND 4R;Poreflon HHP 045-15;A 4000W;A 4000V;Neoflon NP 102;Neoflon NP 120;FEP-FR 463;NP 40;Fluorotherm FEP;Perfluoroethene-perfluoropropene copolymer;FR 460 (fluoropolymer);NC 1500;FR 460;DS 603A;NP 3180;Neoflon FEP-NP 3180;DS 618B;HFP-TFE copolymer;FEP Dispersion 120JRB;NF 0050B1;DS 618A;HFP-Tetrafluoroethylene copolymer;Perfluoroethylene-perfluoropropene copolymer;NP 112;9819FL;6301Z;Teflon 120JR;Teflon FEP 120JR;NF 004;Teflon FEP 9494X;E 4630;Dyneon FEP 6309 Flex;Dyneon FEP 6309;Teflon 9835;Teflon FEPD 121;FEP 6322PZ;Neofon NP 101;Neoflon NF 1011;6233PZ;Neoflon FEP-ND 2R;Dyneon FEP 6338Z;FEP 6338Z",
    "duplicated_cas_no": "9013-58-5;9050-22-0;11099-85-7;11100-54-2;12769-43-6;39385-62-1;52756-62-4;53637-54-0;53986-80-4;54174-13-9;58516-09-9;58516-47-5;64936-89-6;76050-52-7;87209-83-4;88882-76-2;99332-29-3;145054-21-3;151688-03-8;189897-08-3;251563-57-2;381213-52-1;406923-97-5;461044-57-5;689286-14-4;791098-48-1;837368-19-1;849802-94-4;861407-52-5;917225-49-1;1203453-00-2;1260141-72-7;1437322-74-1;1637289-12-3;1647052-59-2;1847394-57-3;1979134-48-9;2226942-56-7",
    "SMILES": "C(C(F)(F)F)(=C(F)F)F.C(=C(F)F)(F)F",
    "meta_data": {
        "InChI": "InChI=1S/C3F6.C2F4/c4-1(2(5)6)3(7,8)9;3-1(4)2(5)6",
        "InChIKey": null,
        "Canonical SMILES": "FC(F)=C(F)F.FC(F)=C(F)C(F)(F)F",
        "Molecular Formula": "(C<sub>3</sub>F<sub>6</sub>.C<sub>2</sub>F<sub>4</sub>)<sub>x</sub>",
        "Molecular Mass": "",
        "Melting Point": "270 °C",
        "Density": "1.2 g/cm³"
    }
}