{
    "cas_no": "6304-89-8",
    "key_name": "3-(Acetyloxy)benzoic acid",
    "cn_name": "间乙酰苯甲酸;",
    "alternate_name": "Benzoic acid, 3-(acetyloxy)-;Benzoic acid, <em>m</em>-hydroxy-, acetate;3-(Acetyloxy)benzoic acid;<em>m</em>-Carboxyphenyl acetate;3-Acetoxybenzoic acid;<em>m</em>-Acetoxybenzoic acid;NSC 43147",
    "duplicated_cas_no": "",
    "SMILES": "O(C(C)=O)C1=CC(C(O)=O)=CC=C1",
    "meta_data": {
        "InChI": "InChI=1S/C9H8O4/c1-6(10)13-8-4-2-3-7(5-8)9(11)12/h2-5H,1H3,(H,11,12)",
        "InChIKey": null,
        "Canonical SMILES": "O=C(O)C=1C=CC=C(OC(=O)C)C1",
        "Molecular Formula": "C<sub>9</sub>H<sub>8</sub>O<sub>4</sub>",
        "Molecular Mass": "180.16",
        "Melting Point": "130 °C"
    }
}