{
    "cas_no": "2304-81-6",
    "key_name": "C18-Ceramide",
    "cn_name": null,
    "alternate_name": "Octadecanamide, <em>N</em>-[(1<em>S</em>,2<em>R</em>,3<em>E</em>)-2-hydroxy-1-(hydroxymethyl)-3-heptadecen-1-yl]-;Octadecanamide, <em>N</em>-[2-hydroxy-1-(hydroxymethyl)-3-heptadecenyl]-, [<em>R</em>-[<em>R</em>*,<em>S</em>*-(<em>E</em>)]]-;Octadecanamide, <em>N</em>-[2-hydroxy-1-(hydroxymethyl)-3-heptadecenyl]-, (<em>E</em>)-<span class=\"text-smallcaps\">D</span>-<em>erythro</em>-;Octadecanamide, <em>N</em>-[(1<em>S</em>,2<em>R</em>,3<em>E</em>)-2-hydroxy-1-(hydroxymethyl)-3-heptadecenyl]-;<em>N</em>-[(1<em>S</em>,2<em>R</em>,3<em>E</em>)-2-Hydroxy-1-(hydroxymethyl)-3-heptadecen-1-yl]octadecanamide;<em>N</em>-Stearoyl-C<sub>18</sub>-sphingosine;<span class=\"text-smallcaps\">D</span>-<em>erythro</em>-1,3-Dihydroxy-2-octadecanoylamido-<em>trans</em>-4-octadecene;<em>N</em>-Stearoylsphingosine;<em>N</em>-Stearoylsphingenine;<em>N</em>-Stearoyl-<span class=\"text-smallcaps\">D</span>-sphingosine;C18:0 Ceramide;<em>N</em>-Stearoyl-<span class=\"text-smallcaps\">D</span>-<em>erythro</em>-sphingosine;C18-Ceramide;Ceramide (d18:1C18:0);<em>N</em>-Octadecanoylsphingosine;Ceramide 18;Ceramide NG;DS-HydroCeramide;Nikkol Ceralipid W 2",
    "duplicated_cas_no": "121461-98-1;1195526-02-3",
    "SMILES": "[C@@H](NC(CCCCCCCCCCCCCCCCC)=O)([C@@H](/C=C/CCCCCCCCCCCCC)O)CO",
    "meta_data": {
        "InChI": "InChI=1S/C36H71NO3/c1-3-5-7-9-11-13-15-17-18-20-22-24-26-28-30-32-36(40)37-34(33-38)35(39)31-29-27-25-23-21-19-16-14-12-10-8-6-4-2/h29,31,34-35,38-39H,3-28,30,32-33H2,1-2H3,(H,37,40)/b31-29+/t34-,35+/m0/s1",
        "InChIKey": null,
        "Canonical SMILES": "O=C(NC(CO)C(O)C=CCCCCCCCCCCCCC)CCCCCCCCCCCCCCCCC",
        "Molecular Formula": "C<sub>36</sub>H<sub>71</sub>NO<sub>3</sub>",
        "Molecular Mass": "565.95",
        "Melting Point": "88-89 °C"
    }
}