{
    "cas_no": "529-33-9",
    "key_name": "1-Tetralol",
    "cn_name": "alpha-四氢萘酚;1,2,3,4-四氢-1-萘酚;",
    "alternate_name": "1-Naphthalenol, 1,2,3,4-tetrahydro-;1-Naphthol, 1,2,3,4-tetrahydro-;1,2,3,4-Tetrahydro-1-naphthalenol;1-Tetralol;α-Tetralol;1,2,3,4-Tetrahydro-1-naphthol;1-Hydroxytetralin;1-Hydroxy-1,2,3,4-tetrahydronaphthalene;(±)-1-Tetralol;(±)-1,2,3,4-Tetrahydro-1-naphthol;(±)-α-Tetralol;(<em>RS</em>)-1-Hydroxytetralin;NSC 5172",
    "duplicated_cas_no": "87248-51-9",
    "SMILES": "OC1C=2C(CCC1)=CC=CC2",
    "meta_data": {
        "InChI": "InChI=1S/C10H12O/c11-10-7-3-5-8-4-1-2-6-9(8)10/h1-2,4,6,10-11H,3,5,7H2",
        "InChIKey": null,
        "Canonical SMILES": "OC1C=2C=CC=CC2CCC1",
        "Molecular Formula": "C<sub>10</sub>H<sub>12</sub>O",
        "Molecular Mass": "148.20",
        "Boiling Point": "139-140 °C @ Press: 17 Torr",
        "Melting Point": "211 °C",
        "Density": "1.0896 g/cm³ @ Temp: 17 °C"
    }
}