{
    "cas_no": "2887-72-1",
    "key_name": "3′,5′-Dibromo-4′-hydroxyacetophenone",
    "cn_name": "3\",5\"-二溴-4\"-羟基苯乙酮;",
    "alternate_name": "Ethanone, 1-(3,5-dibromo-4-hydroxyphenyl)-;Acetophenone, 3′,5′-dibromo-4′-hydroxy-;1-(3,5-Dibromo-4-hydroxyphenyl)ethanone;3′,5′-Dibromo-4′-hydroxyacetophenone;NSC 41698;1-(3,5-Dibromo-4-hydroxyphenyl)ethan-1-one",
    "duplicated_cas_no": "",
    "SMILES": "C(C)(=O)C1=CC(Br)=C(O)C(Br)=C1",
    "meta_data": {
        "InChI": "InChI=1S/C8H6Br2O2/c1-4(11)5-2-6(9)8(12)7(10)3-5/h2-3,12H,1H3",
        "InChIKey": null,
        "Canonical SMILES": "O=C(C1=CC(Br)=C(O)C(Br)=C1)C",
        "Molecular Formula": "C<sub>8</sub>H<sub>6</sub>Br<sub>2</sub>O<sub>2</sub>",
        "Molecular Mass": "293.94",
        "Melting Point": "181 °C"
    }
}