{
    "cas_no": "7778-18-9",
    "key_name": "Calcium sulfate",
    "cn_name": null,
    "alternate_name": "Sulfuric acid, calcium salt (1:1);Calcium sulfate;Calcium sulphate;Crysalba;Calcium sulfate (CaSO<sub>4</sub>);Calcium sulfate (1:1);Drierite;Thiolite;Sulfuric acid calcium salt;Sulfuric acid calcium(2+) salt (1:1);Basic calcium sulfate;Denka Sigma 1000;SSS-A;A 30 (sulfate);CAS 20;A 30;CA 5 (sulfate);CA 5;CAS 20-4;Osteoset;D 101A;Oparex 10;D 101A (sulfate);Franklin Fiber H 45;CoCoat P 80HB;Raddichem 27;SurgiPlaster;D 1 (sulfate);Capset;Calmatrix;GR (sulfate);KemWhite CG 80;JAX CS;CAB 30;HG 2 (sulfate);NP-S 02;SK 10;TR 100 (sulfate);E 541;NP-MO 1;CaSO<sub>4</sub>;NP-S 04;NW 10 (sulfate);NW 20;NP-M 02I30;BKL-B 6D556CL1;NP-M 02;NP-S 04E;NP-S 15;C 804293;Sudanit 280;Torowhite Ti-ExR 04;MeSH ID: D002133;B 6W556;NP-W 008;S 04-L;MY 12;NP-G 02",
    "duplicated_cas_no": "23296-15-3;99400-01-8;146522-67-0;151621-69-1;326855-67-8;871982-24-0;1314087-18-7;1428662-16-1",
    "SMILES": "S(=O)(=O)(O)O.[Ca]",
    "meta_data": {
        "InChI": "InChI=1S/Ca.H2O4S/c;1-5(2,3)4/h;(H2,1,2,3,4)",
        "InChIKey": null,
        "Canonical SMILES": "[Ca].O=S(=O)(O)O",
        "Molecular Formula": "Ca.H<sub>2</sub>O<sub>4</sub>S",
        "Molecular Mass": "",
        "Melting Point": "1450 °C",
        "Density": "2.960 g/cm³"
    }
}