{
    "cas_no": "14923-84-3",
    "key_name": "1,6-Diaminopyrene",
    "cn_name": "1,6-二氨基芘;",
    "alternate_name": "1,6-Pyrenediamine;1,6-Diaminopyrene",
    "duplicated_cas_no": "",
    "SMILES": "NC1=C2C3=C4C(C(N)=CC=C4C=C2)=CC=C3C=C1",
    "meta_data": {
        "InChI": "InChI=1S/C16H12N2/c17-13-8-4-10-2-6-12-14(18)7-3-9-1-5-11(13)16(10)15(9)12/h1-8H,17-18H2",
        "InChIKey": null,
        "Canonical SMILES": "NC1=CC=C2C=CC=3C(N)=CC=C4C=CC1=C2C43",
        "Molecular Formula": "C<sub>16</sub>H<sub>12</sub>N<sub>2</sub>",
        "Molecular Mass": "232.28",
        "Melting Point": "232-233 °C"
    }
}