{
    "cas_no": "5724-56-1",
    "key_name": "2,3-Dimethylbenzonitrile",
    "cn_name": "2,3-二甲基苯腈;2,3-二甲基苯甲腈;",
    "alternate_name": "Benzonitrile, 2,3-dimethyl-;2,3-Dimethylbenzonitrile",
    "duplicated_cas_no": "",
    "SMILES": "C(#N)C1=C(C)C(C)=CC=C1",
    "meta_data": {
        "InChI": "InChI=1S/C9H9N/c1-7-4-3-5-9(6-10)8(7)2/h3-5H,1-2H3",
        "InChIKey": null,
        "Canonical SMILES": "N#CC1=CC=CC(=C1C)C",
        "Molecular Formula": "C<sub>9</sub>H<sub>9</sub>N",
        "Molecular Mass": "131.17",
        "Boiling Point": "112 °C @ Press: 25 Torr",
        "Melting Point": "16.4 °C"
    }
}