{
    "cas_no": "10342-60-6",
    "key_name": "1-(2-Methylpropyl)-4-nitrobenzene",
    "cn_name": null,
    "alternate_name": "Benzene, 1-(2-methylpropyl)-4-nitro-;Benzene, 1-isobutyl-4-nitro-;1-(2-Methylpropyl)-4-nitrobenzene;4-Nitroisobutylbenzene;<em>p</em>-(2-Methylpropyl)nitrobenzene;1-Isobutyl-4-nitrobenzene;4-Isobutylnitrobenzene;<em>p</em>-Isobutylnitrobenzene",
    "duplicated_cas_no": "",
    "SMILES": "C(C(C)C)C1=CC=C(N(=O)=O)C=C1",
    "meta_data": {
        "InChI": "InChI=1S/C10H13NO2/c1-8(2)7-9-3-5-10(6-4-9)11(12)13/h3-6,8H,7H2,1-2H3",
        "InChIKey": null,
        "Canonical SMILES": "O=N(=O)C1=CC=C(C=C1)CC(C)C",
        "Molecular Formula": "C<sub>10</sub>H<sub>13</sub>NO<sub>2</sub>",
        "Molecular Mass": "179.22",
        "Boiling Point": "125-126 °C @ Press: 3 Torr",
        "Melting Point": "-34 °C",
        "Density": "1.0774 g/cm³ @ Temp: 4 °C"
    }
}