{
    "cas_no": "2987-49-7",
    "key_name": "2-(Methylsulfonyl)benzenamine",
    "cn_name": null,
    "alternate_name": "Benzenamine, 2-(methylsulfonyl)-;Aniline, <em>o</em>-(methylsulfonyl)-;2-(Methylsulfonyl)benzenamine;<em>o</em>-(Methylsulfonyl)aniline;2-Aminophenyl methyl sulfone;2-(Methylsulfonyl)aniline;Claasz's sulfurylindoxyl;2-(Methanesulfonyl)aniline;NSC 55747",
    "duplicated_cas_no": "",
    "SMILES": "S(C)(=O)(=O)C1=C(N)C=CC=C1",
    "meta_data": {
        "InChI": "InChI=1S/C7H9NO2S/c1-11(9,10)7-5-3-2-4-6(7)8/h2-5H,8H2,1H3",
        "InChIKey": null,
        "Canonical SMILES": "O=S(=O)(C=1C=CC=CC1N)C",
        "Molecular Formula": "C<sub>7</sub>H<sub>9</sub>NO<sub>2</sub>S",
        "Molecular Mass": "171.22",
        "Melting Point": "85-92 °C"
    }
}