{
    "cas_no": "123-82-0",
    "key_name": "2-Aminoheptane",
    "cn_name": null,
    "alternate_name": "2-Heptanamine;Hexylamine, 1-methyl-;Armeen L-7;1-Methylhexylamine;Rineptil;Tuamine;Tuaminoheptane;2-Heptylamine;Heptamine (sympathomimetic);2-Aminoheptane;Heptamine;Rineptyl;Heptin;Tuaminoheptan;1-Methylhexanamine;<span class=\"text-smallcaps\">DL</span>-1-Methylhexylamine;(±)-2-Aminoheptane;<em>dl</em>-2-Aminoheptane;(RS)-2-aminoheptane;NSC 1091;NSC 27160",
    "duplicated_cas_no": "7795-34-8",
    "SMILES": "C(CCCC)C(C)N",
    "meta_data": {
        "InChI": "InChI=1S/C7H17N/c1-3-4-5-6-7(2)8/h7H,3-6,8H2,1-2H3",
        "InChIKey": null,
        "Canonical SMILES": "NC(C)CCCCC",
        "Molecular Formula": "C<sub>7</sub>H<sub>17</sub>N",
        "Molecular Mass": "115.22",
        "Boiling Point": "142 °C",
        "Melting Point": "101-102 °C",
        "Density": "0.7629 g/cm³ @ Temp: 20 °C"
    }
}