{
    "cas_no": "2240-25-7",
    "key_name": "5-Bromocytosine",
    "cn_name": "5-溴胞嘧啶; 4-氨基-5-溴-2-嘧啶醇; 2-羟基-4-氨基-5-溴嘧啶;",
    "alternate_name": "2(1<em>H</em>)-Pyrimidinone, 6-amino-5-bromo-;Cytosine, 5-bromo-;2(1<em>H</em>)-Pyrimidinone, 4-amino-5-bromo-;6-Amino-5-bromo-2(1<em>H</em>)-pyrimidinone;5-Bromocytosine;4-Amino-5-bromo-2-hydroxypyrimidine",
    "duplicated_cas_no": "31295-39-3",
    "SMILES": "NC1=C(Br)C=NC(=O)N1",
    "meta_data": {
        "InChI": "InChI=1S/C4H4BrN3O/c5-2-1-7-4(9)8-3(2)6/h1H,(H3,6,7,8,9)",
        "InChIKey": null,
        "Canonical SMILES": "O=C1N=CC(Br)=C(N)N1",
        "Molecular Formula": "C<sub>4</sub>H<sub>4</sub>BrN<sub>3</sub>O",
        "Molecular Mass": "190.00",
        "Melting Point": "245-255 °C (decomp)"
    }
}