{
    "cas_no": "58861-48-6",
    "key_name": "2-(4-Fluorophenyl)thiophene",
    "cn_name": null,
    "alternate_name": "Thiophene, 2-(4-fluorophenyl)-;2-(4-Fluorophenyl)thiophene",
    "duplicated_cas_no": "",
    "SMILES": "FC1=CC=C(C=C1)C2=CC=CS2",
    "meta_data": {
        "InChI": "InChI=1S/C10H7FS/c11-9-5-3-8(4-6-9)10-2-1-7-12-10/h1-7H",
        "InChIKey": null,
        "Canonical SMILES": "FC=1C=CC(=CC1)C=2SC=CC2",
        "Molecular Formula": "C<sub>10</sub>H<sub>7</sub>FS",
        "Molecular Mass": "178.23",
        "Melting Point": "48-49 °C"
    }
}