{
    "cas_no": "884-35-5",
    "key_name": "Methyl syringate",
    "cn_name": "丁香酸甲酯;3,5-二甲氧基-4-羟基苯甲酸甲酯;",
    "alternate_name": "Benzoic acid, 4-hydroxy-3,5-dimethoxy-, methyl ester;Syringic acid, methyl ester;Methyl 4-hydroxy-3,5-dimethoxybenzoate;Methyl syringate;Methyl 3,5-dimethoxy-4-hydroxybenzoate;4-Hydroxy-3,5-dimethoxybenzoic acid methyl ester;NSC 16946;NSC 611398;DeniLite II Assist;Novoprime F 258;3,5-Dimethoxy-4-hydroxybenzoic acid methyl ester",
    "duplicated_cas_no": "",
    "SMILES": "C(OC)(=O)C1=CC(OC)=C(O)C(OC)=C1",
    "meta_data": {
        "InChI": "InChI=1S/C10H12O5/c1-13-7-4-6(10(12)15-3)5-8(14-2)9(7)11/h4-5,11H,1-3H3",
        "InChIKey": null,
        "Canonical SMILES": "O=C(OC)C1=CC(OC)=C(O)C(OC)=C1",
        "Molecular Formula": "C<sub>10</sub>H<sub>12</sub>O<sub>5</sub>",
        "Molecular Mass": "212.20",
        "Melting Point": "107-108 °C"
    }
}