{
    "cas_no": "23743-26-2",
    "key_name": "1,2-Bis(dicyclohexylphosphino)ethane",
    "cn_name": "1,2-双(二环己基磷基)-乙烷;",
    "alternate_name": "Phosphine, 1,1′-(1,2-ethanediyl)bis[1,1-dicyclohexyl-;Phosphine, ethylenebis[dicyclohexyl-;Phosphine, 1,2-ethanediylbis[dicyclohexyl-;1,1′-(1,2-Ethanediyl)bis[1,1-dicyclohexylphosphine];Ethylenebis(dicyclohexylphosphine);1,2-Bis(dicyclohexylphosphino)ethane;1,2-Bis(dicyclohexylphosphanyl)ethane;Dcype",
    "duplicated_cas_no": "",
    "SMILES": "P(CCP(C1CCCCC1)C2CCCCC2)(C3CCCCC3)C4CCCCC4",
    "meta_data": {
        "InChI": "InChI=1S/C26H48P2/c1-5-13-23(14-6-1)27(24-15-7-2-8-16-24)21-22-28(25-17-9-3-10-18-25)26-19-11-4-12-20-26/h23-26H,1-22H2",
        "InChIKey": null,
        "Canonical SMILES": "P(CCP(C1CCCCC1)C2CCCCC2)(C3CCCCC3)C4CCCCC4",
        "Molecular Formula": "C<sub>26</sub>H<sub>48</sub>P<sub>2</sub>",
        "Molecular Mass": "422.61",
        "Melting Point": "96-97 °C"
    }
}