{
    "cas_no": "742-20-1",
    "key_name": "Cyclopenthiazide",
    "cn_name": "环戊噻嗪;3-环戊甲基-6-氯-3,4-二氢-2H-1,2,4-苯并噻二嗪-7-磺酰胺1,1-二氧化物;",
    "alternate_name": "2<em>H</em>-1,2,4-Benzothiadiazine-7-sulfonamide, 6-chloro-3-(cyclopentylmethyl)-3,4-dihydro-, 1,1-dioxide;Su 8341;6-Chloro-3-(cyclopentylmethyl)-3,4-dihydro-2<em>H</em>-1,2,4-benzothiadiazine-7-sulfonamide 1,1-dioxide;6-Chloro-3-(cyclopentylmethyl)-3,4-dihydro-7-sulfamyl-2<em>H</em>-1,2,4-benzothiadiazine 1,1-dioxide;Cyclopenthiazide;Navidrex;Salimed;Cyclomethiazide;6-Chloro-3-cyclopentylmethyl-7-sulfamoyl-3,4-dihydro-1,2,4-benzothiadiazine 1,1-dioxide;Cyclometiazid;Cyclopentiazid;Navidreks;Benesal;Ciba 8341-Su;Salurilo-C;Ultra-Minzil;Navidrix;Salimid;Tsiklometiazid;NSC 107679",
    "duplicated_cas_no": "96782-85-3",
    "SMILES": "O=S1(=O)C=2C(NC(CC3CCCC3)N1)=CC(Cl)=C(S(N)(=O)=O)C2",
    "meta_data": {
        "InChI": "InChI=1S/C13H18ClN3O4S2/c14-9-6-10-12(7-11(9)22(15,18)19)23(20,21)17-13(16-10)5-8-3-1-2-4-8/h6-8,13,16-17H,1-5H2,(H2,15,18,19)",
        "InChIKey": null,
        "Canonical SMILES": "O=S(=O)(N)C=1C=C2C(=CC1Cl)NC(NS2(=O)=O)CC3CCCC3",
        "Molecular Formula": "C<sub>13</sub>H<sub>18</sub>ClN<sub>3</sub>O<sub>4</sub>S<sub>2</sub>",
        "Molecular Mass": "379.88",
        "Melting Point": "238 °C"
    }
}