{
    "cas_no": "610-99-1",
    "key_name": "2′-Hydroxypropiophenone",
    "cn_name": "2\"-羟基苯丙酮;",
    "alternate_name": "1-Propanone, 1-(2-hydroxyphenyl)-;Propiophenone, 2′-hydroxy-;Propiophenone, <em>o</em>-hydroxy-;1-(2-Hydroxyphenyl)-1-propanone;2-Propionylphenol;<em>o</em>-Hydroxypropiophenone;2′-Hydroxypropiophenone;<em>o</em>-Propiophenol;Ethyl <em>o</em>-hydroxyphenyl ketone;Ethyl 2-hydroxyphenyl ketone;2-Hydroxyphenyl ethyl ketone;NSC 3785",
    "duplicated_cas_no": "",
    "SMILES": "C(CC)(=O)C1=C(O)C=CC=C1",
    "meta_data": {
        "InChI": "InChI=1S/C9H10O2/c1-2-8(10)7-5-3-4-6-9(7)11/h3-6,11H,2H2,1H3",
        "InChIKey": null,
        "Canonical SMILES": "O=C(C=1C=CC=CC1O)CC",
        "Molecular Formula": "C<sub>9</sub>H<sub>10</sub>O<sub>2</sub>",
        "Molecular Mass": "150.17",
        "Boiling Point": "150 °C",
        "Melting Point": "20-22 °C",
        "Density": "1.106 g/cm³ @ Temp: 20 °C"
    }
}