{
    "cas_no": "383-63-1",
    "key_name": "Ethyl trifluoroacetate",
    "cn_name": "三氟乙酸乙酯;",
    "alternate_name": "Acetic acid, 2,2,2-trifluoro-, ethyl ester;Acetic acid, trifluoro-, ethyl ester;Ethyl trifluoroacetate;Ethyl perfluoroacetate;Trifluoroacetic acid ethyl ester;NSC 220215;Ethyl α,α,α-trifluoroacetate;Ethyl 2,2,2-trifluoroacetate;7: PN: WO2007101224 PAGE: 36 claimed sequence",
    "duplicated_cas_no": "",
    "SMILES": "C(C(F)(F)F)(OCC)=O",
    "meta_data": {
        "InChI": "InChI=1S/C4H5F3O2/c1-2-9-3(8)4(5,6)7/h2H2,1H3",
        "InChIKey": null,
        "Canonical SMILES": "O=C(OCC)C(F)(F)F",
        "Molecular Formula": "C<sub>4</sub>H<sub>5</sub>F<sub>3</sub>O<sub>2</sub>",
        "Molecular Mass": "142.08",
        "Boiling Point": "61 °C",
        "Density": "1.1952 g/cm³ @ Temp: 16.7 °C"
    }
}