{
    "cas_no": "40716-66-3",
    "key_name": "<em>trans</em>-Nerolidol",
    "cn_name": null,
    "alternate_name": "1,6,10-Dodecatrien-3-ol, 3,7,11-trimethyl-, (6<em>E</em>)-;1,6,10-Dodecatrien-3-ol, 3,7,11-trimethyl-, (<em>E</em>)-;(6<em>E</em>)-3,7,11-Trimethyl-1,6,10-dodecatrien-3-ol;<em>trans</em>-Nerolidol;(±)-<em>trans</em>-Nerolidol;(6<em>E</em>)-Nerolidol;1-Geranyl-2-methyl-3-buten-2-ol;(<em>E</em>)-3,7,11-Trimethyl-1,6,10-dodecatrien-3-ol;(<em>E</em>)-Nerolidol;(6<em>E</em>)-3,7,11-Trimethyldodeca-1,6,10-trien-3-ol;Nerolidol B;(6E)-3,7,11-Trimethyl-1,6,10-dodecatrien-3-ol;(E)-3,7,11-Trimethyldodeca-1,6,10-trien-3-ol",
    "duplicated_cas_no": "2211-29-2;2381218-06-8",
    "SMILES": "C(\\CCC(C=C)(C)O)=C(/CCC=C(C)C)\\C",
    "meta_data": {
        "InChI": "InChI=1/C15H26O/c1-6-15(5,16)12-8-11-14(4)10-7-9-13(2)3/h6,9,11,16H,1,7-8,10,12H2,2-5H3/b14-11+",
        "InChIKey": null,
        "Canonical SMILES": "OC(C=C)(C)CCC=C(C)CCC=C(C)C",
        "Molecular Formula": "C<sub>15</sub>H<sub>26</sub>O",
        "Molecular Mass": "222.37",
        "Boiling Point": "113 °C @ Press: 0.4 Torr"
    }
}