{
    "cas_no": "4005-51-0",
    "key_name": "1,3,4-Thiadiazol-2-amine",
    "cn_name": "2-氨基-1,3,4-噻二唑;",
    "alternate_name": "1,3,4-Thiadiazol-2-amine;1,3,4-Thiadiazole, 2-amino-;2-Amino-1,3,4-thiadiazole;Aminothiadiazole;NSC 4728;TF 128;2-Aminothiadiazole;1,3,4-Thiadiazole-2-amine;5-Amino-1,3,4-thiadiazole;1,3,4-Thiadiazol-2-ylamine;2-Amine-1,3,4-thiadiazole",
    "duplicated_cas_no": "37184-61-5",
    "SMILES": "NC1=NN=CS1",
    "meta_data": {
        "InChI": "InChI=1S/C2H3N3S/c3-2-5-4-1-6-2/h1H,(H2,3,5)",
        "InChIKey": null,
        "Canonical SMILES": "N=1N=C(SC1)N",
        "Molecular Formula": "C<sub>2</sub>H<sub>3</sub>N<sub>3</sub>S",
        "Molecular Mass": "101.13",
        "Melting Point": "190-192 °C"
    }
}