{
    "cas_no": "20554-84-1",
    "key_name": "(-)-Parthenolide",
    "cn_name": "小白菊内酯;",
    "alternate_name": "Oxireno[9,10]cyclodeca[1,2-<em>b</em>]furan-9(1a<em>H</em>)-one, 2,3,6,7,7a,8,10a,10b-octahydro-1a,5-dimethyl-8-methylene-, (1a<em>R</em>,4<em>E</em>,7a<em>S</em>,10a<em>S</em>,10b<em>R</em>)-;Germacra-1(10),11(13)-dien-12-oic acid, 4,5α-epoxy-6β-hydroxy-, γ-lactone;Parthenolide;(1a<em>R</em>,4<em>E</em>,7a<em>S</em>,10a<em>S</em>,10b<em>R</em>)-2,3,6,7,7a,8,10a,10b-Octahydro-1a,5-dimethyl-8-methyleneoxireno[9,10]cyclodeca[1,2-<em>b</em>]furan-9(1a<em>H</em>)-one;(-)-Parthenolide",
    "duplicated_cas_no": "119325-19-8;120852-67-7;344906-67-8",
    "SMILES": "",
    "meta_data": {
        "InChI": "",
        "InChIKey": null,
        "Canonical SMILES": "",
        "Molecular Formula": "C<sub>15</sub>H<sub>20</sub>O<sub>3</sub>",
        "Molecular Mass": "248.32",
        "Melting Point": "115-116 °C"
    }
}