{
    "cas_no": "93413-62-8",
    "key_name": "Desvenlafaxine",
    "cn_name": "O-去甲文拉法辛;1-[2-(二甲胺基)-1-(4-羟基苯基)乙基]环己醇;",
    "alternate_name": "Phenol, 4-[2-(dimethylamino)-1-(1-hydroxycyclohexyl)ethyl]-;4-[2-(Dimethylamino)-1-(1-hydroxycyclohexyl)ethyl]phenol;<em>O</em>-Desmethylvenlafaxine;Desvenlafaxine;DVS 233;Pristiq;D-VENIZ;NEWVEN;MDD-XR;<em>O</em>-Desvenlafaxine;Khedezla",
    "duplicated_cas_no": "130198-07-1",
    "SMILES": "C(CN(C)C)(C1(O)CCCCC1)C2=CC=C(O)C=C2",
    "meta_data": {
        "InChI": "InChI=1S/C16H25NO2/c1-17(2)12-15(13-6-8-14(18)9-7-13)16(19)10-4-3-5-11-16/h6-9,15,18-19H,3-5,10-12H2,1-2H3",
        "InChIKey": null,
        "Canonical SMILES": "OC1=CC=C(C=C1)C(CN(C)C)C2(O)CCCCC2",
        "Molecular Formula": "C<sub>16</sub>H<sub>25</sub>NO<sub>2</sub>",
        "Molecular Mass": "263.38",
        "Melting Point": "221.9 °C"
    }
}