{
    "cas_no": "1581-13-1",
    "key_name": "2-Amino-2′-fluorobenzophenone",
    "cn_name": "2-氨基-2-氟苯甲酮;2-氨基-2-氟苯甲酮;",
    "alternate_name": "Methanone, (2-aminophenyl)(2-fluorophenyl)-;Benzophenone, 2-amino-2′-fluoro-;(2-Aminophenyl)(2-fluorophenyl)methanone;2-Amino-2′-fluorobenzophenone;2-(2-Fluorobenzoyl)aniline",
    "duplicated_cas_no": "",
    "SMILES": "C(=O)(C1=C(F)C=CC=C1)C2=C(N)C=CC=C2",
    "meta_data": {
        "InChI": "InChI=1S/C13H10FNO/c14-11-7-3-1-5-9(11)13(16)10-6-2-4-8-12(10)15/h1-8H,15H2",
        "InChIKey": null,
        "Canonical SMILES": "O=C(C=1C=CC=CC1F)C=2C=CC=CC2N",
        "Molecular Formula": "C<sub>13</sub>H<sub>10</sub>FNO",
        "Molecular Mass": "215.22",
        "Melting Point": "126-128 °C"
    }
}