{
    "cas_no": "41458-65-5",
    "key_name": "2-Amino-4,6-dimethylphenol",
    "cn_name": "6-氨基-2,4-二甲苯酚;",
    "alternate_name": "Phenol, 2-amino-4,6-dimethyl-;2,4-Xylenol, 6-amino-;2-Amino-4,6-dimethylphenol;1-Amino-2-hydroxy-3,5-dimethylbenzene;6-Amino-2,4-xylenol;2-Hydroxy-3,5-dimethylaniline;4,6-Dimethyl-2-aminophenol;6-Amino-2,4-dimethylphenol;2,4-Dimethyl-6-aminophenol;NSC 315547",
    "duplicated_cas_no": "",
    "SMILES": "OC1=C(C)C=C(C)C=C1N",
    "meta_data": {
        "InChI": "InChI=1S/C8H11NO/c1-5-3-6(2)8(10)7(9)4-5/h3-4,10H,9H2,1-2H3",
        "InChIKey": null,
        "Canonical SMILES": "OC1=C(N)C=C(C=C1C)C",
        "Molecular Formula": "C<sub>8</sub>H<sub>11</sub>NO",
        "Molecular Mass": "137.18",
        "Melting Point": "130 °C"
    }
}