{
    "cas_no": "32598-13-3",
    "key_name": "PCB 77",
    "cn_name": "3,3,4,4-四氯联苯;3,3,4,4-四氯联苯PCBNo77;",
    "alternate_name": "1,1′-Biphenyl, 3,3′,4,4′-tetrachloro-;Biphenyl, 3,3′,4,4′-tetrachloro-;3,3′,4,4′-Tetrachloro-1,1′-biphenyl;3,3′,4,4′-Tetrachlorobiphenyl;3,4,3′,4′-Tetrachlorobiphenyl;PCB 77;CB 77;TeCB 77;Polychlorinated biphenyl-77;T 4CB 77",
    "duplicated_cas_no": "",
    "SMILES": "ClC=1C=C(C=CC1Cl)C2=CC(Cl)=C(Cl)C=C2",
    "meta_data": {
        "InChI": "InChI=1S/C12H6Cl4/c13-9-3-1-7(5-11(9)15)8-2-4-10(14)12(16)6-8/h1-6H",
        "InChIKey": null,
        "Canonical SMILES": "ClC=1C=CC(=CC1Cl)C2=CC=C(Cl)C(Cl)=C2",
        "Molecular Formula": "C<sub>12</sub>H<sub>6</sub>Cl<sub>4</sub>",
        "Molecular Mass": "291.99",
        "Melting Point": "182-184 °C"
    }
}