{
    "cas_no": "20362-31-6",
    "key_name": "Arctiin",
    "cn_name": "牛蒡苷;牛蒡子苷;",
    "alternate_name": "2(3<em>H</em>)-Furanone, 4-[(3,4-dimethoxyphenyl)methyl]-3-[[4-(β-<span class=\"text-smallcaps\">D</span>-glucopyranosyloxy)-3-methoxyphenyl]methyl]dihydro-, (3<em>R</em>,4<em>R</em>)-;Arctiin;2(3<em>H</em>)-Furanone, 4-[(3,4-dimethoxyphenyl)methyl]-3-[[4-(β-<span class=\"text-smallcaps\">D</span>-glucopyranosyloxy)-3-methoxyphenyl]methyl]dihydro-, (3<em>R</em>-<em>trans</em>)-;(3<em>R</em>,4<em>R</em>)-4-[(3,4-Dimethoxyphenyl)methyl]-3-[[4-(β-<span class=\"text-smallcaps\">D</span>-glucopyranosyloxy)-3-methoxyphenyl]methyl]dihydro-2(3<em>H</em>)-furanone;Arctigenin-4-glucoside;NSC 315527;Arctii;Arctin",
    "duplicated_cas_no": "27193-46-0",
    "SMILES": "C([C@@H]1[C@@H](CC2=CC(OC)=C(O[C@@H]3O[C@H](CO)[C@@H](O)[C@H](O)[C@H]3O)C=C2)C(=O)OC1)C4=CC(OC)=C(OC)C=C4",
    "meta_data": {
        "InChI": "InChI=1S/C27H34O11/c1-33-18-6-4-14(10-20(18)34-2)8-16-13-36-26(32)17(16)9-15-5-7-19(21(11-15)35-3)37-27-25(31)24(30)23(29)22(12-28)38-27/h4-7,10-11,16-17,22-25,27-31H,8-9,12-13H2,1-3H3/t16-,17+,22+,23+,24-,25+,27+/m0/s1",
        "InChIKey": null,
        "Canonical SMILES": "O=C1OCC(CC2=CC=C(OC)C(OC)=C2)C1CC3=CC=C(OC4OC(CO)C(O)C(O)C4O)C(OC)=C3",
        "Molecular Formula": "C<sub>27</sub>H<sub>34</sub>O<sub>11</sub>",
        "Molecular Mass": "534.55",
        "Melting Point": "112 °C"
    }
}