{
    "cas_no": "994-79-6",
    "key_name": "Tetrabutylsilane",
    "cn_name": "四丁[?]矽烷;四丁[?]矽烷;",
    "alternate_name": "Silane, tetrabutyl-;Tetrabutylsilane",
    "duplicated_cas_no": "",
    "SMILES": "[Si](CCCC)(CCCC)(CCCC)CCCC",
    "meta_data": {
        "InChI": "InChI=1S/C16H36Si/c1-5-9-13-17(14-10-6-2,15-11-7-3)16-12-8-4/h5-16H2,1-4H3",
        "InChIKey": null,
        "Canonical SMILES": "CCCC[Si](CCCC)(CCCC)CCCC",
        "Molecular Formula": "C<sub>16</sub>H<sub>36</sub>Si",
        "Molecular Mass": "256.54",
        "Boiling Point": "231 °C",
        "Density": "0.822 g/cm³ @ Temp: 22 °C"
    }
}