{
    "cas_no": "354-21-2",
    "key_name": "1,2,2-Trichloro-1,1-difluoroethane",
    "cn_name": "1,2,2-三氯-1,1-二氟乙烷;",
    "alternate_name": "Ethane, 1,2,2-trichloro-1,1-difluoro-;1,2,2-Trichloro-1,1-difluoroethane;Frigen 122;1,1-Difluoro-1,2,2-trichloroethane;1,1,2-Trichloro-2,2-difluoroethane;2,2-Difluoro-1,1,2-trichloroethane;R 122;Freon 122;F 122;HCFC 122;FC 122;F 122 (halocarbon);R 122 (halocarbon);Khladon 122",
    "duplicated_cas_no": "134237-33-5;62549-18-2;712351-74-1",
    "SMILES": "C(C(Cl)Cl)(Cl)(F)F",
    "meta_data": {
        "InChI": "InChI=1S/C2HCl3F2/c3-1(4)2(5,6)7/h1H",
        "InChIKey": null,
        "Canonical SMILES": "FC(F)(Cl)C(Cl)Cl",
        "Molecular Formula": "C<sub>2</sub>HCl<sub>3</sub>F<sub>2</sub>",
        "Molecular Mass": "169.39",
        "Boiling Point": "71.9 °C",
        "Density": "1.5447 g/cm³ @ Temp: 25 °C"
    }
}