{
    "cas_no": "6164-78-9",
    "key_name": "2,3-Pyrazinedicarboxamide",
    "cn_name": "2,3-吡嗪二甲酰胺;",
    "alternate_name": "2,3-Pyrazinedicarboxamide;2,3-Dicarboxamidopyrazine;NSC 93820",
    "duplicated_cas_no": "",
    "SMILES": "C(N)(=O)C=1C(C(N)=O)=NC=CN1",
    "meta_data": {
        "InChI": "InChI=1S/C6H6N4O2/c7-5(11)3-4(6(8)12)10-2-1-9-3/h1-2H,(H2,7,11)(H2,8,12)",
        "InChIKey": null,
        "Canonical SMILES": "O=C(N)C1=NC=CN=C1C(=O)N",
        "Molecular Formula": "C<sub>6</sub>H<sub>6</sub>N<sub>4</sub>O<sub>2</sub>",
        "Molecular Mass": "166.14",
        "Melting Point": "240 °C (decomp)"
    }
}