{
    "cas_no": "10447-11-7",
    "key_name": "4-Methyl-1-naphthalenesulfonyl chloride",
    "cn_name": null,
    "alternate_name": "1-Naphthalenesulfonyl chloride, 4-methyl-;4-Methyl-1-naphthalenesulfonyl chloride",
    "duplicated_cas_no": "",
    "SMILES": "S(Cl)(=O)(=O)C=1C2=C(C(C)=CC1)C=CC=C2",
    "meta_data": {
        "InChI": "InChI=1S/C11H9ClO2S/c1-8-6-7-11(15(12,13)14)10-5-3-2-4-9(8)10/h2-7H,1H3",
        "InChIKey": null,
        "Canonical SMILES": "O=S(=O)(Cl)C=1C=CC(=C2C=CC=CC21)C",
        "Molecular Formula": "C<sub>11</sub>H<sub>9</sub>ClO<sub>2</sub>S",
        "Molecular Mass": "240.71",
        "Boiling Point": "178-180 °C @ Press: 15 Torr",
        "Melting Point": "78-80 °C"
    }
}