{
    "cas_no": "13813-42-8",
    "key_name": "Erbium iodide (ErI<sub>3</sub>)",
    "cn_name": "无水碘化铒(III);超干碘化铒(III), 99.9% (REO);",
    "alternate_name": "Erbium iodide (ErI<sub>3</sub>);Erbium triiodide;Erbium iodide",
    "duplicated_cas_no": "",
    "SMILES": "[Er](I)(I)I",
    "meta_data": {
        "InChI": "InChI=1S/Er.3HI/h;3*1H/q+3;;;/p-3",
        "InChIKey": null,
        "Canonical SMILES": "I[Er](I)I",
        "Molecular Formula": "ErI<sub>3</sub>",
        "Molecular Mass": "",
        "Melting Point": "1020 °C"
    }
}