{
    "cas_no": "1703-58-8",
    "key_name": "1,2,3,4-Butanetetracarboxylic acid",
    "cn_name": "丁烷四羧;1,2,3,4-丁烷四羧酸;BTCA;",
    "alternate_name": "1,2,3,4-Butanetetracarboxylic acid;Butanetetracarboxylic acid;1,2,3,4-Tetracarboxybutane;TCB;BTCA;Rikacid BTW;NSC 21371;3,4-Dicarboxyhexanedioic acid;Crosslink RB 120",
    "duplicated_cas_no": "857152-89-7",
    "SMILES": "C(C(CC(O)=O)C(O)=O)(CC(O)=O)C(O)=O",
    "meta_data": {
        "InChI": "InChI=1S/C8H10O8/c9-5(10)1-3(7(13)14)4(8(15)16)2-6(11)12/h3-4H,1-2H2,(H,9,10)(H,11,12)(H,13,14)(H,15,16)",
        "InChIKey": null,
        "Canonical SMILES": "O=C(O)CC(C(=O)O)C(C(=O)O)CC(=O)O",
        "Molecular Formula": "C<sub>8</sub>H<sub>10</sub>O<sub>8</sub>",
        "Molecular Mass": "234.16",
        "Melting Point": "232 °C"
    }
}