{
    "cas_no": "3874-54-2",
    "key_name": "4-Chloro-1-(4-fluorophenyl)-1-butanone",
    "cn_name": "4-氯-4\"-氟苯丁酮;",
    "alternate_name": "1-Butanone, 4-chloro-1-(4-fluorophenyl)-;Butyrophenone, 4-chloro-4′-fluoro-;4-Chloro-1-(4-fluorophenyl)-1-butanone;<em>p</em>-Fluoro-ω-chlorobutyrophenone;3-(4-Fluorobenzoyl)propyl chloride;4-Chloro-<em>p</em>-fluorobutyrophenone;4-Chloro-1-(<em>p</em>-fluorophenyl)-1-butanone;4-Chloro-4′-fluorobutyrophenone;4-<em>p</em>-Fluorophenyl-4-oxo-1-chlorobutane;ω-Chloro-<em>p</em>-fluorobutyrophenone;γ-Chloro-<em>p</em>-fluorobutyrophenone;3-Chloropropyl 4-fluorophenyl ketone;<em>p</em>-Fluoro-4-chlorobutyrophenone;γ-Chloro-4-fluorobutyrophenone;4-(4-Fluorophenyl)-4-oxobutyl chloride;4-(<em>p</em>-Fluorophenyl)-4-oxobutyl chloride;4-Chloro-1-(<em>p</em>-fluorophenyl)-1-oxobutane;4′-Fluoro-4-chlorobutyrophenone;<em>p</em>-Fluoro-γ-chlorobutyrophenone;3-(<em>p</em>-Fluorobenzoyl)propyl chloride;ω-Chloro-4-fluorobutyrophenone;1-Chloro-4-(4-fluorophenyl)-4-oxobutane;ω-Chloropropyl 4-fluorophenyl ketone;4-Chloro-4′-chlorobutyrophenone;NSC 87082;3-(4-Fluorophenylcarbonyl)-1-chloropropane",
    "duplicated_cas_no": "41167-07-1;660844-72-4",
    "SMILES": "C(CCCCl)(=O)C1=CC=C(F)C=C1",
    "meta_data": {
        "InChI": "InChI=1S/C10H10ClFO/c11-7-1-2-10(13)8-3-5-9(12)6-4-8/h3-6H,1-2,7H2",
        "InChIKey": null,
        "Canonical SMILES": "O=C(C1=CC=C(F)C=C1)CCCCl",
        "Molecular Formula": "C<sub>10</sub>H<sub>10</sub>ClFO",
        "Molecular Mass": "200.64",
        "Boiling Point": "136-142 °C @ Press: 6 Torr",
        "Melting Point": "5-6 °C",
        "Density": "1.2267 g/cm³ @ Temp: 20 °C"
    }
}