{
    "cas_no": "72811-73-5",
    "key_name": "BM 960102",
    "cn_name": "4-(3-甲基苯基)氨基吡啶-3-磺酰胺;",
    "alternate_name": "3-Pyridinesulfonamide, 4-[(3-methylphenyl)amino]-;4-[(3-Methylphenyl)amino]-3-pyridinesulfonamide;3-Sulfonamido-4-(3-methylanilino)pyridine;BM 960102",
    "duplicated_cas_no": "",
    "SMILES": "N(C=1C(S(N)(=O)=O)=CN=CC1)C2=CC(C)=CC=C2",
    "meta_data": {
        "InChI": "InChI=1S/C12H13N3O2S/c1-9-3-2-4-10(7-9)15-11-5-6-14-8-12(11)18(13,16)17/h2-8H,1H3,(H,14,15)(H2,13,16,17)",
        "InChIKey": null,
        "Canonical SMILES": "O=S(=O)(N)C=1C=NC=CC1NC2=CC=CC(=C2)C",
        "Molecular Formula": "C<sub>12</sub>H<sub>13</sub>N<sub>3</sub>O<sub>2</sub>S",
        "Molecular Mass": "263.32",
        "Melting Point": "166-168 °C"
    }
}