{
    "cas_no": "67859-96-5",
    "key_name": "Cyclohexanol, 3,3,5-trimethyl-, 1-acetate",
    "cn_name": "3,3,5-三甲基乙酸环己酯;",
    "alternate_name": "Cyclohexanol, 3,3,5-trimethyl-, 1-acetate;Cyclohexanol, 3,3,5-trimethyl-, acetate;Homomenthyl acetate;Homomenthol acetate;3,3,5-Trimethylcyclohexanol acetate;Mintonat;(3,3,5-Trimethylcyclohexyl) acetate",
    "duplicated_cas_no": "",
    "SMILES": "O(C(C)=O)C1CC(C)(C)CC(C)C1",
    "meta_data": {
        "InChI": "InChI=1S/C11H20O2/c1-8-5-10(13-9(2)12)7-11(3,4)6-8/h8,10H,5-7H2,1-4H3",
        "InChIKey": null,
        "Canonical SMILES": "O=C(OC1CC(C)CC(C)(C)C1)C",
        "Molecular Formula": "C<sub>11</sub>H<sub>20</sub>O<sub>2</sub>",
        "Molecular Mass": "184.28",
        "Boiling Point": "96-97 °C @ Press: 27 Torr",
        "Density": "0.9197 g/cm³ @ Temp: 19 °C"
    }
}