{
    "cas_no": "81-04-9",
    "key_name": "1,5-Naphthalenedisulfonic acid",
    "cn_name": "1,5-萘二磺酸;",
    "alternate_name": "1,5-Naphthalenedisulfonic acid;Armstrong's acid;Napadisylic acid;NSC 9588;Naphthalene-1,5-disulfonic acid",
    "duplicated_cas_no": "46874-44-6;1431794-74-9",
    "SMILES": "S(=O)(=O)(O)C=1C2=C(C(S(=O)(=O)O)=CC=C2)C=CC1",
    "meta_data": {
        "InChI": "InChI=1S/C10H8O6S2/c11-17(12,13)9-5-1-3-7-8(9)4-2-6-10(7)18(14,15)16/h1-6H,(H,11,12,13)(H,14,15,16)",
        "InChIKey": null,
        "Canonical SMILES": "O=S(=O)(O)C=1C=CC=C2C1C=CC=C2S(=O)(=O)O",
        "Molecular Formula": "C<sub>10</sub>H<sub>8</sub>O<sub>6</sub>S<sub>2</sub>",
        "Molecular Mass": "288.30",
        "Melting Point": "242.5 °C (decomp)"
    }
}