{
    "cas_no": "2867-47-2",
    "key_name": "(Dimethylamino)ethyl methacrylate",
    "cn_name": "甲基丙烯酸二甲氨乙酯;N,N-二甲氨基甲基丙烯酸乙酯;2-(二甲基氨)乙基甲基丙烯酸盐;甲基丙烯酸二甲胺乙酯;",
    "alternate_name": "2-Propenoic acid, 2-methyl-, 2-(dimethylamino)ethyl ester;Methacrylic acid, 2-(dimethylamino)ethyl ester;<em>N</em>,<em>N</em>-Dimethylaminoethyl methacrylate;β-Dimethylaminoethyl methacrylate;2-(Dimethylamino)ethyl methacrylate;(Dimethylamino)ethyl methacrylate;2-(<em>N</em>,<em>N</em>-Dimethylamino)ethyl methacrylate;β-(<em>N</em>,<em>N</em>-Dimethylamino)ethyl methacrylate;<em>N</em>,<em>N</em>-Dimethylethanolamine methacrylate;DM (methacrylate);DM;Light Ester DM;Acryester DM;Ageflex FA 1;Mhoromer BM 601;(2-Methacryloyloxyethyl)dimethylamine;Methacryl Ester DM;NSC 20959;Ageflex FM 1;Ageflex FM 2;Methacryloyloxyethyldimethylamine;MADAM;GE 720;Dimethyl[2-(methacryloyloxy)ethyl]amine;DMAEMA;DMA 200;Methacrylate DMA;<em>N</em>,<em>N</em>′-Dimethylamino-2-ethyl methacrylate;2-(Dimethylamino)ethyl 2-methylprop-2-enoate;2-Dimethylaminoethyl 2-methylprop-2-enoate;CY-D 2 (monomethacrylate);CY-D 2",
    "duplicated_cas_no": "44919-97-3;68224-31-7;114975-29-0;124942-19-4;134946-66-0;141303-14-2;155280-46-9;303040-91-7;874217-11-5;874217-12-6;1026457-02-2;1453489-76-3;1534343-35-5;2408386-03-6;2660061-29-8",
    "SMILES": "O(C(C(C)=C)=O)CCN(C)C",
    "meta_data": {
        "InChI": "InChI=1S/C8H15NO2/c1-7(2)8(10)11-6-5-9(3)4/h1,5-6H2,2-4H3",
        "InChIKey": null,
        "Canonical SMILES": "O=C(OCCN(C)C)C(=C)C",
        "Molecular Formula": "C<sub>8</sub>H<sub>15</sub>NO<sub>2</sub>",
        "Molecular Mass": "157.21",
        "Boiling Point": "182-190 °C",
        "Melting Point": "-30 °C",
        "Density": "0.933 g/cm³ @ Temp: 25 °C"
    }
}