{
    "cas_no": "17933-85-6",
    "key_name": "1,1′-(Ethenylethoxysilylene)bis[benzene]",
    "cn_name": "二苯基乙烯基乙氧基硅烷;",
    "alternate_name": "Benzene, 1,1′-(ethenylethoxysilylene)bis-;Silane, ethenylethoxydiphenyl-;Silane, ethoxydiphenylvinyl-;1,1′-(Ethenylethoxysilylene)bis[benzene];(Ethoxy)diphenylvinylsilane;Ethenyl(ethoxy)diphenylsilane;Vinyldiphenylethoxysilane;Diphenylethoxyvinylsilane",
    "duplicated_cas_no": "",
    "SMILES": "[Si](OCC)(C=C)(C1=CC=CC=C1)C2=CC=CC=C2",
    "meta_data": {
        "InChI": "InChI=1S/C16H18OSi/c1-3-17-18(4-2,15-11-7-5-8-12-15)16-13-9-6-10-14-16/h4-14H,2-3H2,1H3",
        "InChIKey": null,
        "Canonical SMILES": "O(CC)[Si](C=C)(C=1C=CC=CC1)C=2C=CC=CC2",
        "Molecular Formula": "C<sub>16</sub>H<sub>18</sub>OSi",
        "Molecular Mass": "254.40",
        "Boiling Point": "135 °C @ Press: 13 Torr",
        "Density": "1.052 g/cm³"
    }
}