{
    "cas_no": "480424-70-2",
    "key_name": "Phenol, 4-(4,4,5,5-tetramethyl-1,3,2-dioxaborolan-2-yl)-, 1-acetate",
    "cn_name": null,
    "alternate_name": "Phenol, 4-(4,4,5,5-tetramethyl-1,3,2-dioxaborolan-2-yl)-, 1-acetate;Phenol, 4-(4,4,5,5-tetramethyl-1,3,2-dioxaborolan-2-yl)-, acetate;4-(4,4,5,5-Tetramethyl-1,3,2-dioxaborolan-2-yl)phenyl acetate;4-(4,4,5,5-Tetramethyl-1,3-dioxaboran-2-yl)phenyl acetate",
    "duplicated_cas_no": "",
    "SMILES": "CC1(C)OB(OC1(C)C)C2=CC=C(OC(C)=O)C=C2",
    "meta_data": {
        "InChI": "InChI=1S/C14H19BO4/c1-10(16)17-12-8-6-11(7-9-12)15-18-13(2,3)14(4,5)19-15/h6-9H,1-5H3",
        "InChIKey": null,
        "Canonical SMILES": "O=C(OC1=CC=C(C=C1)B2OC(C)(C)C(O2)(C)C)C",
        "Molecular Formula": "C<sub>14</sub>H<sub>19</sub>BO<sub>4</sub>",
        "Molecular Mass": "262.11",
        "Melting Point": "63-64 °C"
    }
}