{
    "cas_no": "452972-14-4",
    "key_name": "2-Fluoro-3-(4,4,5,5-tetramethyl-1,3,2-dioxaborolan-2-yl)pyridine",
    "cn_name": "2-氟吡啶-3-硼酸频哪酯;",
    "alternate_name": "Pyridine, 2-fluoro-3-(4,4,5,5-tetramethyl-1,3,2-dioxaborolan-2-yl)-;2-Fluoro-3-(4,4,5,5-tetramethyl-1,3,2-dioxaborolan-2-yl)pyridine;2-(2-Fluoro-3-pyridyl)-4,4,5,5-tetramethyl-1,3,2-dioxaborolane;2-Fluoro-3-(tetramethyl-1,3,2-dioxaborolan-2-yl)pyridine;2-Fluoropyridine-3-boronic acid pinacol ester",
    "duplicated_cas_no": "",
    "SMILES": "FC1=C(B2OC(C)(C)C(C)(C)O2)C=CC=N1",
    "meta_data": {
        "InChI": "InChI=1S/C11H15BFNO2/c1-10(2)11(3,4)16-12(15-10)8-6-5-7-14-9(8)13/h5-7H,1-4H3",
        "InChIKey": null,
        "Canonical SMILES": "FC1=NC=CC=C1B2OC(C)(C)C(O2)(C)C",
        "Molecular Formula": "C<sub>11</sub>H<sub>15</sub>BFNO<sub>2</sub>",
        "Molecular Mass": "223.05",
        "Melting Point": "37-45 °C"
    }
}