{
    "cas_no": "652-36-8",
    "key_name": "2,3,5,6-Tetrafluoro-1,4-benzenedicarboxylic acid",
    "cn_name": "2,3,5,6-四氟对苯二甲酸;",
    "alternate_name": "1,4-Benzenedicarboxylic acid, 2,3,5,6-tetrafluoro-;Terephthalic acid, tetrafluoro-;2,3,5,6-Tetrafluoro-1,4-benzenedicarboxylic acid;Tetrafluoroterephthalic acid;2,3,5,6-Tetrafluoroterephthalic acid;NSC 96897;2,3,5,6-Tetrafluorobenzene-1,4-dioic acid;2,3,5,6-Tetrafluorobenzene-1,4-dicarboxylic acid;Tetrafluoro-1,4-benzenedicarboxylic acid;<em>p</em>-Tetrafluorobenzenedicarboxylic acid",
    "duplicated_cas_no": "",
    "SMILES": "C(O)(=O)C1=C(F)C(F)=C(C(O)=O)C(F)=C1F",
    "meta_data": {
        "InChI": "InChI=1S/C8H2F4O4/c9-3-1(7(13)14)4(10)6(12)2(5(3)11)8(15)16/h(H,13,14)(H,15,16)",
        "InChIKey": null,
        "Canonical SMILES": "O=C(O)C1=C(F)C(F)=C(C(=O)O)C(F)=C1F",
        "Molecular Formula": "C<sub>8</sub>H<sub>2</sub>F<sub>4</sub>O<sub>4</sub>",
        "Molecular Mass": "238.09",
        "Melting Point": "276 °C (decomp)"
    }
}