{
    "cas_no": "33783-82-3",
    "key_name": "Hederacolchiside E",
    "cn_name": null,
    "alternate_name": "Olean-12-en-28-oic acid, 3-[(<em>O</em>-6-deoxy-α-<span class=\"text-smallcaps\">L</smallcap>-mannopyranosyl-(1→2)-<em>O</em>-[β-<smallcap>D</smallcap>-glucopyranosyl-(1→4)]-α-<smallcap>L</smallcap>-arabinopyranosyl)oxy]-, <em>O</em>-6-deoxy-α-<smallcap>L</smallcap>-mannopyranosyl-(1→4)-<em>O</em>-β-<smallcap>D</smallcap>-glucopyranosyl-(1→6)-β-<smallcap>D</span>-glucopyranosyl ester, (3β)-;Hederacolchiside E;3β-[(<em>O</em>-β-<span class=\"text-smallcaps\">D</smallcap>-Glucopyranosyl-(1→4)-<em>O</em>-[α-<smallcap>L</smallcap>-rhamnopyranosyl-(1→2)]-α-<smallcap>L</smallcap>-arabinopyranosyl)oxy]olean-18-en-28-oic acid <em>O</em>-α-<smallcap>L</smallcap>-rhamnopyranosyl-(1→4)-<em>O</em>-β-<smallcap>D</smallcap>-glucopyranosyl-(1→6)-β-<smallcap>D</span>-glucopyranosyl ester;Hederacholchiside E;3-<em>O</em>-α-<span class=\"text-smallcaps\">L</smallcap>-Rhamnopyranosyl-(1→2)[β-<smallcap>D</smallcap>-glucopyranosyl(1→4)]-α-<smallcap>L</smallcap>-arabinopyranosoleanolic acid 28-α-<smallcap>L</smallcap>-rhamnopyranosyl-(1→4)-β-<smallcap>D</smallcap>-glucopyranosyl-(1→6)-β-<smallcap>D</span>-glucopyranoside",
    "duplicated_cas_no": "96154-31-3;30283-15-9",
    "SMILES": "C(O[C@@H]1O[C@H](CO[C@@H]2O[C@H](CO)[C@@H](O[C@H]3[C@H](O)[C@H](O)[C@@H](O)[C@H](C)O3)[C@H](O)[C@H]2O)[C@@H](O)[C@H](O)[C@H]1O)(=O)[C@]45[C@](C=6[C@@](C)(CC4)[C@@]7(C)[C@](CC6)([C@]8(C)[C@@](CC7)(C(C)(C)[C@@H](O[C@H]9[C@H](O[C@H]%10[C@H](O)[C@H](O)[C@@H](O)[C@H](C)O%10)[C@@H](O)[C@@H](O[C@@H]%11O[C@H](CO)[C@@H](O)[C@H](O)[C@H]%11O)CO9)CC8)[H])[H])(CC(C)(C)CC5)[H]",
    "meta_data": {
        "InChI": "InChI=1S/C65H106O30/c1-25-36(68)41(73)46(78)54(86-25)93-51-30(22-67)89-53(50(82)45(51)77)84-23-31-39(71)44(76)49(81)57(90-31)95-59(83)65-18-16-60(3,4)20-28(65)27-10-11-34-62(7)14-13-35(61(5,6)33(62)12-15-64(34,9)63(27,8)17-19-65)92-58-52(94-55-47(79)42(74)37(69)26(2)87-55)40(72)32(24-85-58)91-56-48(80)43(75)38(70)29(21-66)88-56/h10,25-26,28-58,66-82H,11-24H2,1-9H3/t25-,26-,28-,29+,30+,31+,32-,33-,34+,35-,36-,37-,38+,39+,40-,41+,42+,43-,44-,45+,46+,47+,48+,49+,50+,51+,52+,53+,54-,55-,56-,57-,58-,62-,63+,64+,65-/m0/s1",
        "InChIKey": null,
        "Canonical SMILES": "O=C(OC1OC(COC2OC(CO)C(OC3OC(C)C(O)C(O)C3O)C(O)C2O)C(O)C(O)C1O)C45CCC(C)(C)CC5C6=CCC7C8(C)CCC(OC9OCC(OC%10OC(CO)C(O)C(O)C%10O)C(O)C9OC%11OC(C)C(O)C(O)C%11O)C(C)(C)C8CCC7(C)C6(C)CC4",
        "Molecular Formula": "C<sub>65</sub>H<sub>106</sub>O<sub>30</sub>",
        "Molecular Mass": "1367.52",
        "Melting Point": "226-228 °C"
    }
}