{
    "cas_no": "8068-05-1",
    "key_name": "Alkali lignin",
    "cn_name": null,
    "alternate_name": "Lignin, alkali;Sulfate lignin;Kraft lignin;Lignin, kraft;Lignin, soda;Alkali lignin;Lignin, sulfate;Soda lignin;Tomlinite;Sulphate lignin;Indulin AT;Reax 27;Reax 39;Meadol MRM;Indulin A;Lignac 15SP;Indulin AG;Alkali soluble lignin;Eucalin;Indulin ATR;Curan 100;PC 940C;KL 2;KL 88;KL 2 (binder);Curan 27-11;Curan;Curan (lignin);Indulin AT 1369;Curan 27-11P;Lignoboost;PC 1369;Biochoice;Protobind 1075;Mousoudake Souda Rigunin;DCL 200;NJ 23;UPM BioPiva 100;Biopiva 190;Protobind 1000;MG 3;MG 3 (lignin);BioPiva 100;Amallin A;Amallin LPH;Lineo Classic;FP 602;P 1000;UPM BioPiva 350;UPM BioPiva 199;NewPro-PF 103;HWG 25131;M 0010-25G;PB 1000 (pulp);PB 1000;BioPiva 395;BioPiva 200;UPM BioPiva 200;L 0082;BioPiva 300;Protobind P 1000",
    "duplicated_cas_no": "37225-42-6;2649799-71-1",
    "SMILES": "",
    "meta_data": {
        "InChI": "",
        "InChIKey": null,
        "Canonical SMILES": "",
        "Molecular Formula": "Unspecified",
        "Molecular Mass": "",
        "Melting Point": "210 °C",
        "Density": "1.4 g/cm³"
    }
}