{
    "cas_no": "825-56-9",
    "key_name": "5-Phenyl-1,3,4-Oxadiazole",
    "cn_name": null,
    "alternate_name": "1,3,4-Oxadiazole, 2-phenyl-;2-Phenyl-1,3,4-oxadiazole;5-Phenyl-1,3,4-Oxadiazole;2-Phenyloxadiazole;NSC 94884",
    "duplicated_cas_no": "",
    "SMILES": "C1(=NN=CO1)C2=CC=CC=C2",
    "meta_data": {
        "InChI": "InChI=1S/C8H6N2O/c1-2-4-7(5-3-1)8-10-9-6-11-8/h1-6H",
        "InChIKey": null,
        "Canonical SMILES": "N=1N=C(OC1)C=2C=CC=CC2",
        "Molecular Formula": "C<sub>8</sub>H<sub>6</sub>N<sub>2</sub>O",
        "Molecular Mass": "146.15",
        "Boiling Point": "125 °C @ Press: 5 Torr",
        "Melting Point": "34 °C"
    }
}