{
    "cas_no": "3068-88-0",
    "key_name": "β-Butyrolactone",
    "cn_name": "β-丁内酯;4-甲基-β-丙酰内酯;B-丁内酯;Β-丁内酮;",
    "alternate_name": "2-Oxetanone, 4-methyl-;Butyric acid, 3-hydroxy-, β-lactone;Butyric acid, β-hydroxy-, lactone;4-Methyl-2-oxetanone;β-Butyrolactone;3-Hydroxybutyric acid lactone;Butanoic acid, 3-hydroxy-, β-lactone;β-Methylpropiolactone;β-Methyl-β-propiolactone;(±)-β-Butyrolactone;(<em>RS</em>)-β-Butyrolactone;<span class=\"text-smallcaps\">D</smallcap><smallcap>L</span>-β-Butyrolactone;(±)-β-Methylpropiolactone;<em>rac</em>-β-Butyrolactone",
    "duplicated_cas_no": "36536-46-6;43137-57-1",
    "SMILES": "CC1CC(=O)O1",
    "meta_data": {
        "InChI": "InChI=1S/C4H6O2/c1-3-2-4(5)6-3/h3H,2H2,1H3",
        "InChIKey": null,
        "Canonical SMILES": "O=C1OC(C)C1",
        "Molecular Formula": "C<sub>4</sub>H<sub>6</sub>O<sub>2</sub>",
        "Molecular Mass": "86.09",
        "Boiling Point": "56-58 °C @ Press: 9 Torr",
        "Density": "1.044 g/cm³ @ Temp: 15.630 °C"
    }
}