{
    "cas_no": "55907-61-4",
    "key_name": "2,4-Dinitrophenylhydrazine hydrochloride",
    "cn_name": "2,4-二硝基苯肼盐酸盐;",
    "alternate_name": "Hydrazine, (2,4-dinitrophenyl)-, hydrochloride (1:1);Hydrazine, (2,4-dinitrophenyl)-, monohydrochloride;2,4-Dinitrophenylhydrazine hydrochloride",
    "duplicated_cas_no": "",
    "SMILES": "N(=O)(=O)C1=C(NN)C=CC(N(=O)=O)=C1.Cl",
    "meta_data": {
        "InChI": "InChI=1S/C6H6N4O4.ClH/c7-8-5-2-1-4(9(11)12)3-6(5)10(13)14;/h1-3,8H,7H2;1H",
        "InChIKey": null,
        "Canonical SMILES": "Cl.O=N(=O)C1=CC=C(NN)C(=C1)N(=O)=O",
        "Molecular Formula": "C<sub>6</sub>H<sub>6</sub>N<sub>4</sub>O<sub>4</sub>.ClH",
        "Molecular Mass": "",
        "Melting Point": "160 °C"
    }
}