{
    "cas_no": "7789-65-3",
    "key_name": "Selenium bromide (SeBr<sub>4</sub>), (<em>T</em>-4)-",
    "cn_name": "四溴化硒;",
    "alternate_name": "Selenium bromide (SeBr<sub>4</sub>), (<em>T</em>-4)-;Selenium bromide (SeBr<sub>4</sub>);Selenium tetrabromide",
    "duplicated_cas_no": "",
    "SMILES": "[Se](Br)(Br)(Br)Br",
    "meta_data": {
        "InChI": "InChI=1S/Br4Se/c1-5(2,3)4",
        "InChIKey": null,
        "Canonical SMILES": "Br[Se](Br)(Br)Br",
        "Molecular Formula": "Br<sub>4</sub>Se",
        "Molecular Mass": "398.58",
        "Melting Point": "123 °C"
    }
}