{
    "cas_no": "1586-73-8",
    "key_name": "1,1,1-Trimethyl-<em>N</em>,<em>N</em>-bis(trimethylsilyl)silanamine",
    "cn_name": "九甲基三硅氮烷;九甲基三硅胺;三(三甲基硅基)胺;三(三甲基硅)胺;九甲基三硅氮烷;九甲基三硅氮烷,97%;",
    "alternate_name": "Silanamine, 1,1,1-trimethyl-<em>N</em>,<em>N</em>-bis(trimethylsilyl)-;Disilazane, 1,1,1,3,3,3-hexamethyl-2-(trimethylsilyl)-;1,1,1-Trimethyl-<em>N</em>,<em>N</em>-bis(trimethylsilyl)silanamine;Tris(trimethylsilyl)amine;NSC 252162;Nonamethyltrisilazane;[[Bis(trimethylsilyl)amino]-dimethylsilyl]methane",
    "duplicated_cas_no": "",
    "SMILES": "N([Si](C)(C)C)([Si](C)(C)C)[Si](C)(C)C",
    "meta_data": {
        "InChI": "InChI=1S/C9H27NSi3/c1-11(2,3)10(12(4,5)6)13(7,8)9/h1-9H3",
        "InChIKey": null,
        "Canonical SMILES": "N([Si](C)(C)C)([Si](C)(C)C)[Si](C)(C)C",
        "Molecular Formula": "C<sub>9</sub>H<sub>27</sub>NSi<sub>3</sub>",
        "Molecular Mass": "233.57",
        "Boiling Point": "76 °C @ Press: 12 Torr",
        "Melting Point": "70-71 °C",
        "Density": "0.8436 g/cm³ @ Temp: 20 °C"
    }
}