{
    "cas_no": "43222-48-6",
    "key_name": "Difenzoquat methyl sulfate",
    "cn_name": null,
    "alternate_name": "1<em>H</em>-Pyrazolium, 1,2-dimethyl-3,5-diphenyl-, methyl sulfate (1:1);1<em>H</em>-Pyrazolium, 1,2-dimethyl-3,5-diphenyl-, methyl sulfate;1,2-Dimethyl-3,5-diphenylpyrazolium methyl sulfate;AC 84777;Avenge;Finaven;1,2-Dimethyl-3,5-diphenyl-1<em>H</em>-pyrazolium methyl sulfate;Difenzoquat methyl sulfate;Avenge SP;Yeyanku;Avenge 200C;Yanmeiku;Yanmaiku;1,2-Dimethyl-3,5-diphenyl-1<em>H</em>-pyrazol-2-ium methyl sulfate",
    "duplicated_cas_no": "74160-38-6;216306-41-1;1135442-98-6",
    "SMILES": "C[N+]1=C(C=C(N1C)C2=CC=CC=C2)C3=CC=CC=C3.S(OC)(=O)(=O)[O-]",
    "meta_data": {
        "InChI": "InChI=1S/C17H17N2.CH4O4S/c1-18-16(14-9-5-3-6-10-14)13-17(19(18)2)15-11-7-4-8-12-15;1-5-6(2,3)4/h3-13H,1-2H3;1H3,(H,2,3,4)/q+1;/p-1",
        "InChIKey": null,
        "Canonical SMILES": "O=S(=O)([O-])OC.C=1C=CC(=CC1)C2=CC(C=3C=CC=CC3)=[N+](N2C)C",
        "Molecular Formula": "C<sub>17</sub>H<sub>17</sub>N<sub>2</sub>.CH<sub>3</sub>O<sub>4</sub>S",
        "Molecular Mass": "",
        "Melting Point": "146-148 °C"
    }
}