{
    "cas_no": "2922-40-9",
    "key_name": "4-Nitro-<span class=\"text-smallcaps\">DL</span>-phenylalanine",
    "cn_name": null,
    "alternate_name": "Phenylalanine, 4-nitro-;Alanine, 3-(<em>p</em>-nitrophenyl)-, <span class=\"text-smallcaps\">DL</span>-;<span class=\"text-smallcaps\">DL</span>-Phenylalanine, 4-nitro-;4-Nitrophenylalanine;<span class=\"text-smallcaps\">DL</span>-<em>p</em>-Nitrophenylalanine;<span class=\"text-smallcaps\">DL</span>-4-Nitrophenylalanine;4-Nitro-<span class=\"text-smallcaps\">DL</span>-phenylalanine;NSC 14786;NSC 148865;α-Amino-4-nitrobenzenepropanoic acid;2-Amino-3-(4-nitrophenyl)propanoic acid",
    "duplicated_cas_no": "1991-83-9",
    "SMILES": "C(C(C(O)=O)N)C1=CC=C(N(=O)=O)C=C1",
    "meta_data": {
        "InChI": "InChI=1S/C9H10N2O4/c10-8(9(12)13)5-6-1-3-7(4-2-6)11(14)15/h1-4,8H,5,10H2,(H,12,13)",
        "InChIKey": null,
        "Canonical SMILES": "O=C(O)C(N)CC1=CC=C(C=C1)N(=O)=O",
        "Molecular Formula": "C<sub>9</sub>H<sub>10</sub>N<sub>2</sub>O<sub>4</sub>",
        "Molecular Mass": "210.19",
        "Melting Point": "233-236 °C"
    }
}