{
    "cas_no": "2942-15-6",
    "key_name": "6-Methylbenzothiazole",
    "cn_name": null,
    "alternate_name": "Benzothiazole, 6-methyl-;6-Methylbenzothiazole;5-Benzothiazol-6-ylmethylenethiazolidine-2,4-dione",
    "duplicated_cas_no": "",
    "SMILES": "CC=1C=C2C(=CC1)N=CS2",
    "meta_data": {
        "InChI": "InChI=1S/C8H7NS/c1-6-2-3-7-8(4-6)10-5-9-7/h2-5H,1H3",
        "InChIKey": null,
        "Canonical SMILES": "N1=CSC=2C=C(C=CC12)C",
        "Molecular Formula": "C<sub>8</sub>H<sub>7</sub>NS",
        "Molecular Mass": "149.21",
        "Boiling Point": "250 °C",
        "Melting Point": "15.5 °C"
    }
}