{
    "cas_no": "5124-25-4",
    "key_name": "Disperse Yellow 42",
    "cn_name": "分散黄M-FL;",
    "alternate_name": "Benzenesulfonamide, 3-nitro-<em>N</em>-phenyl-4-(phenylamino)-;Sulfanilanilide, 3-nitro-<em>N</em><sup>4</sup>-phenyl-;3-Nitro-<em>N</em>-phenyl-4-(phenylamino)benzenesulfonamide;C.I. 10338;Amacel Yellow CW;Amacron Yellow LS;Artisil Yellow FL;Belacyl Fast Yellow W;Bellechem Estracyl Yellow W;Celliton Fast Yellow GGLL-CF;Cibacet Yellow GWL;Cibacet Yellow GWN;C.I. Disperse Yellow 42;Diacelliton Fast Yellow YLP;Dianix Yellow YL;Dispersol Fast Yellow T;Esteroquinone Light Yellow 3JLL;Foron Yellow SE-FL;Interchem Acetate Yellow GSF (HDLF-40);Interchem Polydye Yellow GSFD;Interchem Yellow GSF (HDLF);Kayalon Fast Yellow YL;Kayalon Polyester Yellow YLF;Latyl Yellow YL;Lenra Yellow CW;Miketon Fast Yellow YL;Miketon Polyester Yellow YL;Polydye Disperse Yellow GSFM;Polydye Yellow GSFD;Polynal Yellow G;Setacyl Yellow FL;Setacyl Yellow P-FL;Terasil Yellow GWL;Tertranese Yellow P-GL;Kayalon Polyester Yellow YL-SE;4-Anilino-3-nitrobenzenesulfonanilide;Dispersol Yellow C-T;Tersetile Yellow GL;C.I. Disperse Yellow 37;Palanil Yellow GE;Tulasteron Fast Yellow G-C;Disperse Yellow GWL;Ostacet Yellow SE-LG;Resolin Yellow I-GGLS;Foron Yellow SE-FLI;Viosperse Yellow GL-FS;Teratop Yellow GWL;NSC 93815;Disperse Yellow 42;Resolin Yellow GGLS;Disperse Yellow MFL;Kiwalon Polyester Yellow YLSE Powder;Kiwalon Polyester Yellow YLSE;4-(Anilino)-3-nitro-<em>N</em>-phenylbenzenesulfonamide",
    "duplicated_cas_no": "37372-51-3;73299-40-8;213129-11-4",
    "SMILES": "N(C1=C(N(=O)=O)C=C(S(NC2=CC=CC=C2)(=O)=O)C=C1)C3=CC=CC=C3",
    "meta_data": {
        "InChI": "InChI=1S/C18H15N3O4S/c22-21(23)18-13-16(26(24,25)20-15-9-5-2-6-10-15)11-12-17(18)19-14-7-3-1-4-8-14/h1-13,19-20H",
        "InChIKey": null,
        "Canonical SMILES": "O=N(=O)C1=CC(=CC=C1NC=2C=CC=CC2)S(=O)(=O)NC=3C=CC=CC3",
        "Molecular Formula": "C<sub>18</sub>H<sub>15</sub>N<sub>3</sub>O<sub>4</sub>S",
        "Molecular Mass": "369.39",
        "Melting Point": "156 °C"
    }
}