{
    "cas_no": "102-39-6",
    "key_name": "2,2′-[1,3-Phenylenebis(oxy)]bis[acetic acid]",
    "cn_name": "间苯二酚-O,O\"-二乙酸;",
    "alternate_name": "Acetic acid, 2,2′-[1,3-phenylenebis(oxy)]bis-;Acetic acid, (<em>m</em>-phenylenedioxy)di-;2,2′-[1,3-Phenylenebis(oxy)]bis[acetic acid];(<em>m</em>-Phenylenedioxy)diacetic acid;(1,3-Phenylenedioxy)diacetic acid;1,3-(Dicarboxymethoxy)benzene;Benzene-1,3-dioxyacetic acid;NSC 1855;2,2′-(1,3-Phenylenebis(oxy))diacetic acid",
    "duplicated_cas_no": "",
    "SMILES": "O(CC(O)=O)C1=CC(OCC(O)=O)=CC=C1",
    "meta_data": {
        "InChI": "InChI=1S/C10H10O6/c11-9(12)5-15-7-2-1-3-8(4-7)16-6-10(13)14/h1-4H,5-6H2,(H,11,12)(H,13,14)",
        "InChIKey": null,
        "Canonical SMILES": "O=C(O)COC1=CC=CC(OCC(=O)O)=C1",
        "Molecular Formula": "C<sub>10</sub>H<sub>10</sub>O<sub>6</sub>",
        "Molecular Mass": "226.18",
        "Melting Point": "195 °C"
    }
}