{
    "cas_no": "58-27-5",
    "key_name": "Menadione",
    "cn_name": "甲萘醌;维生素K3;",
    "alternate_name": "1,4-Naphthalenedione, 2-methyl-;1,4-Naphthoquinone, 2-methyl-;2-Methyl-1,4-naphthalenedione;Aquakay;Aquinone;Hemodal;Kaergona;Kanone;Kappaxin;Kareon;Kativ-G;Kayklot;Kaykot;Kayquinone;Kolklot;Menadione;Menaphthone;Mitenone;MNQ;Panosine;Synkay;Thyloquinone;Vitamin K<sub>3</sub>;Mitenon;Vitamin K<sub>2(0)</sub>;Menadion;3-Methyl-1,4-naphthoquinone;2-Methylnaphthoquinone;Klottone;K-Thrombyl;Prokayvit;Koaxin;K-Vitan;Kipca-Oil Soluble;Karcon;Kappaxan;Kipca;Menaphthon;Menaquinone 0;2-Methyl-1,4-naphthoquinone;Vitamin K<sub>0</sub>;β-Methyl-1,4-naphthoquinone;1,4-Dihydro-1,4-dioxo-2-methylnaphthalene;2-Methyl-1,4-naphthodione;Kaynone;NSC 4170;SeaKleen 800WP;SeaKleen 500SC;2-Methyl-1,4-dihydronaphthalene-1,4-dione",
    "duplicated_cas_no": "",
    "SMILES": "O=C1C=2C(C(=O)C=C1C)=CC=CC2",
    "meta_data": {
        "InChI": "InChI=1S/C11H8O2/c1-7-6-10(12)8-4-2-3-5-9(8)11(7)13/h2-6H,1H3",
        "InChIKey": null,
        "Canonical SMILES": "O=C1C=C(C(=O)C=2C=CC=CC12)C",
        "Molecular Formula": "C<sub>11</sub>H<sub>8</sub>O<sub>2</sub>",
        "Molecular Mass": "172.18",
        "Melting Point": "105-107 °C"
    }
}