{
    "cas_no": "618-91-7",
    "key_name": "Methyl 3-iodobenzoate",
    "cn_name": "3-碘苯甲酸甲酯;间碘苯甲酸甲酯;",
    "alternate_name": "Benzoic acid, 3-iodo-, methyl ester;Benzoic acid, <em>m</em>-iodo-, methyl ester;Methyl <em>m</em>-iodobenzoate;Methyl 3-iodobenzoate;3-(Methoxycarbonyl)iodobenzene;<em>m</em>-Iodobenzoic acid methyl ester;NSC 34639;3-Iodobenzoic acid methyl ester",
    "duplicated_cas_no": "",
    "SMILES": "C(OC)(=O)C1=CC(I)=CC=C1",
    "meta_data": {
        "InChI": "InChI=1S/C8H7IO2/c1-11-8(10)6-3-2-4-7(9)5-6/h2-5H,1H3",
        "InChIKey": null,
        "Canonical SMILES": "O=C(OC)C=1C=CC=C(I)C1",
        "Molecular Formula": "C<sub>8</sub>H<sub>7</sub>IO<sub>2</sub>",
        "Molecular Mass": "262.04",
        "Boiling Point": "277 °C",
        "Melting Point": "54.5 °C"
    }
}