{
    "cas_no": "135-09-1",
    "key_name": "Hydroflumethiazide",
    "cn_name": "氢氟噻嗪;氢氟噻嗪;",
    "alternate_name": "2<em>H</em>-1,2,4-Benzothiadiazine-7-sulfonamide, 3,4-dihydro-6-(trifluoromethyl)-, 1,1-dioxide;Bristab;Dihydroflumethiazide;3,4-Dihydro-7-sulfamyl-6-trifluoromethyl-2<em>H</em>-1,2,4-benzothiadiazine 1,1-dioxide;3,4-Dihydro-6-trifluoromethyl-2<em>H</em>-1,2,4-benzothiadiazine-7-sulfonamide 1,1-dioxide;3,4-Dihydro-6-trifluoromethyl-2<em>H</em>-1,2,4-benzothiazide-7-sulfonamide 1,1-dioxide;3,4-Dihydro-6-trifluoromethyl-7-sulfamoylbenzo-1,2,4-thiadiazine 1,1-dioxide;Hydrenox;Hydroflumethiazide;Metflorylthiazidine;Olmagran;Rodiuran;Saluron;Sisuril;7-Sulfamyl-6-trifluoromethyl-3,4-dihydro-1,2,4-benzothiadiazine 1,1-dioxide;6-Trifluoromethyl-3,4-dihydro-7-sulfamoyl-2<em>H</em>-1,2,4-benzothiadiazine 1,1-dioxide;Trifluoromethylhydrothiazide;6-Trifluoromethyl-7-sulfamyl-3,4-dihydro-1,2,4-benzothiadiazine-1,1-dioxide;Methforylthiazidine;Bristurin;Di-Ademil;Elodrine;Finuret;Hydol;Leodrine;NaClex (Glaxo);Rontyl;Vergonil;3,4-Dihydro-7-sulfamyl-6-trifluoromethyl-1,2,4-benzothiadiazine 1,1-dioxide;Hidroflumetiazid;3,4-Dihydro-7-sulfamoyl-6-trifluoromethyl-2<em>H</em>-1,2,4-benzothiadiazine 1,1-dioxide;Glomerulin;Diuredemina;Hidroalogen;Diurometon;Flutizide;Spandiuril;NaClex;Diucardin;Salutensin;Diumide K;NSC 44627;1,1-Dioxo-6-(trifluoromethyl)-3,4-dihydro-2<em>H</em>-1λ6,2,4-benzothiadiazine-7-sulfonamide;1,1-Dioxo-6-(trifluoromethyl)-1,2,3,4-tetrahydro-1λ6,2,4-benzothiadiazine-7-sulfonamide;MeSH ID: D006857",
    "duplicated_cas_no": "",
    "SMILES": "O=S1(=O)C=2C(=CC(C(F)(F)F)=C(S(N)(=O)=O)C2)NCN1",
    "meta_data": {
        "InChI": "InChI=1S/C8H8F3N3O4S2/c9-8(10,11)4-1-5-7(2-6(4)19(12,15)16)20(17,18)14-3-13-5/h1-2,13-14H,3H2,(H2,12,15,16)",
        "InChIKey": null,
        "Canonical SMILES": "O=S(=O)(N)C1=CC2=C(C=C1C(F)(F)F)NCNS2(=O)=O",
        "Molecular Formula": "C<sub>8</sub>H<sub>8</sub>F<sub>3</sub>N<sub>3</sub>O<sub>4</sub>S<sub>2</sub>",
        "Molecular Mass": "331.29",
        "Melting Point": "272-273 °C"
    }
}