{
    "cas_no": "3232-36-8",
    "key_name": "Salicylaldehyde salicyloylhydrazone",
    "cn_name": null,
    "alternate_name": "Benzoic acid, 2-hydroxy-, 2-[(2-hydroxyphenyl)methylene]hydrazide;Salicylic acid, salicylidenehydrazide;Benzoic acid, 2-hydroxy-, [(2-hydroxyphenyl)methylene]hydrazide;Hydrazine, 1-salicylidene-2-salicyloyl-;Salicyl <em>N</em>-salicylidenehydrazide;<em>N</em>-Salicylidene-<em>N</em>′-salicylhydrazide;<em>N</em>-Salicylidene-<em>N</em>′-salicyloylhydrazine;<em>N</em>′-Salicylidenesalicylic acid hydrazide;Chel 180;Salicylic salicylidenehydrazide;Salicylaldehyde salicyloylhydrazone;NSC 692002;NSC 87864;Salicylaldehyde 2-hydroxybenzoylhydrazone",
    "duplicated_cas_no": "37217-87-1;1575837-08-9",
    "SMILES": "C(NN=CC1=C(O)C=CC=C1)(=O)C2=C(O)C=CC=C2",
    "meta_data": {
        "InChI": "InChI=1S/C14H12N2O3/c17-12-7-3-1-5-10(12)9-15-16-14(19)11-6-2-4-8-13(11)18/h1-9,17-18H,(H,16,19)",
        "InChIKey": null,
        "Canonical SMILES": "O=C(NN=CC=1C=CC=CC1O)C=2C=CC=CC2O",
        "Molecular Formula": "C<sub>14</sub>H<sub>12</sub>N<sub>2</sub>O<sub>3</sub>",
        "Molecular Mass": "256.26",
        "Melting Point": "277 °C"
    }
}