{
    "cas_no": "7658-80-2",
    "key_name": "2-Methylbenzohydrazide",
    "cn_name": "2-甲苯甲酰肼;邻甲苯甲酰肼;",
    "alternate_name": "Benzoic acid, 2-methyl-, hydrazide;<em>o</em>-Toluic acid, hydrazide;(<em>o</em>-Methylbenzoyl)hydrazine;<em>o</em>-Methylbenzoic acid hydrazide;2-Methylbenzoic acid hydrazide;(2-Methylbenzoyl)hydrazine;<em>o</em>-Toluoylhydrazine;2-Methylbenzohydrazide;2-Methylbenzenecarboxylic acid hydrazide;<em>o</em>-Methylbenzoyl hydrazide;2-Toluoylhydrazine;2-Methylbenzoic hydrazide;<em>o</em>-Toluic hydrazide;NSC 61566;2-Methylbenzocarbohydrazide",
    "duplicated_cas_no": "",
    "SMILES": "C(NN)(=O)C1=C(C)C=CC=C1",
    "meta_data": {
        "InChI": "InChI=1S/C8H10N2O/c1-6-4-2-3-5-7(6)8(11)10-9/h2-5H,9H2,1H3,(H,10,11)",
        "InChIKey": null,
        "Canonical SMILES": "O=C(NN)C=1C=CC=CC1C",
        "Molecular Formula": "C<sub>8</sub>H<sub>10</sub>N<sub>2</sub>O",
        "Molecular Mass": "150.18",
        "Melting Point": "153 °C"
    }
}