{
    "cas_no": "55219-65-3",
    "key_name": "Triadimenol",
    "cn_name": "三唑醇;1-(4-氯苯氧基)-1-(1H-1,2,4-三唑-1-基)-3,3-二甲基-丁-2-醇;",
    "alternate_name": "1<em>H</em>-1,2,4-Triazole-1-ethanol, β-(4-chlorophenoxy)-α-(1,1-dimethylethyl)-;β-(4-Chlorophenoxy)-α-(1,1-dimethylethyl)-1<em>H</em>-1,2,4-triazole-1-ethanol;Triadimenol;Baytan;Bayfidan;Baytan TF 3479B;Bayfidan EW;Baytan 15;UK 199;Spinnaker;KWG 0519;Shavit;Photon 60GR;Vydine;Baytan N;Tribute;Tribute (fungicide)",
    "duplicated_cas_no": "112961-06-5;131733-77-2;1135441-19-8",
    "SMILES": "C(OC1=CC=C(Cl)C=C1)(C(C(C)(C)C)O)N2C=NC=N2",
    "meta_data": {
        "InChI": "InChI=1S/C14H18ClN3O2/c1-14(2,3)12(19)13(18-9-16-8-17-18)20-11-6-4-10(15)5-7-11/h4-9,12-13,19H,1-3H3",
        "InChIKey": null,
        "Canonical SMILES": "ClC1=CC=C(OC(N2N=CN=C2)C(O)C(C)(C)C)C=C1",
        "Molecular Formula": "C<sub>14</sub>H<sub>18</sub>ClN<sub>3</sub>O<sub>2</sub>",
        "Molecular Mass": "295.76",
        "Melting Point": "124 °C"
    }
}