{
    "cas_no": "518-34-3",
    "key_name": "Tetrandrine",
    "cn_name": null,
    "alternate_name": "16<em>H</em>-1,24:6,9-Dietheno-11,15-metheno-2<em>H</em>-pyrido[2′,3′:17,18][1,11]dioxacycloeicosino[2,3,4-<em>ij</em>]isoquinoline, 3,4,4a,5,16a,17,18,19-octahydro-12,21,22,26-tetramethoxy-4,17-dimethyl-, (4a<em>S</em>,16a<em>S</em>)-;Tetrandrine;Berbaman, 6,6′,7,12-tetramethoxy-2,2′-dimethyl-, (1β)-;(4a<em>S</em>,16a<em>S</em>)-3,4,4a,5,16a,17,18,19-Octahydro-12,21,22,26-tetramethoxy-4,17-dimethyl-16<em>H</em>-1,24:6,9-dietheno-11,15-metheno-2<em>H</em>-pyrido[2′,3′:17,18][1,11]dioxacycloeicosino[2,3,4-<em>ij</em>]isoquinoline;<em>d</em>-Tetrandrine;NSC 77037;(+)-Tetrandrine;Tetrandrin;(<em>S</em>,<em>S</em>)-Tetrandrine;Sinomenine A;Fanchinine;16<em>H</em>-1,24:6,9-Dietheno-11,15-metheno-2<em>H</em>-pyrido[2′,3′:17,18][1,11]dioxacycloeicosino[2,3,4-<em>ij</em>]isoquinoline, 3,4,4a,5,16a,17,18,19-octahydro-12,21,22,26-tetramethoxy-4,17-dimethyl-, [4a<em>S</em>-(4a<em>R</em>*,16a<em>R</em>*)]-;TTD;<em>S</em>,<em>S</em>-(+)-Tetrandrine;Hanfangchin A;SC 182",
    "duplicated_cas_no": "5990-67-0;6490-80-8;607379-81-7;916770-74-6;1217517-04-8",
    "SMILES": "O(C)C1=C2C=3[C@](CC=4C=C(C(OC)=CC4)OC=5C=CC(C[C@]6(C7=CC(O2)=C(OC)C=C7CCN6C)[H])=CC5)(N(C)CCC3C=C1OC)[H]",
    "meta_data": {
        "InChI": "InChI=1S/C38H42N2O6/c1-39-15-13-25-20-32(42-4)34-22-28(25)29(39)17-23-7-10-27(11-8-23)45-33-19-24(9-12-31(33)41-3)18-30-36-26(14-16-40(30)2)21-35(43-5)37(44-6)38(36)46-34/h7-12,19-22,29-30H,13-18H2,1-6H3/t29-,30-/m0/s1",
        "InChIKey": null,
        "Canonical SMILES": "O1C2=CC=C(C=C2)CC3C4=CC(OC=5C(OC)=C(OC)C=C6C5C(N(C)CC6)CC7=CC=C(OC)C1=C7)=C(OC)C=C4CCN3C",
        "Molecular Formula": "C<sub>38</sub>H<sub>42</sub>N<sub>2</sub>O<sub>6</sub>",
        "Molecular Mass": "622.75",
        "Melting Point": "217.5 °C"
    }
}