{
    "cas_no": "14047-29-1",
    "key_name": "4-Carboxyphenylboronic acid",
    "cn_name": "4-羧基苯硼酸;4-羧基苯基硼酸;",
    "alternate_name": "Benzoic acid, 4-borono-;Benzoic acid, <em>p</em>-borono-;4-Boronobenzoic acid;4-Carboxybenzeneboronic acid;4-Carboxyphenylboronic acid;<em>p</em>-Boronobenzoic acid;<em>p</em>-Carboxyphenylboronic acid;<em>p</em>-Carboxybenzeneboronic acid;NSC 221170;4-Hydroxycarbonylphenyl boronic acid;4-(Dihydroxyboryl)benzoic acid;4-Carboxylphenylboronic acid;4-(Dihydroxyboronyl)benzoic acid;4-(Dihydroxyboranyl)benzoic acid",
    "duplicated_cas_no": "",
    "SMILES": "B(O)(O)C1=CC=C(C(O)=O)C=C1",
    "meta_data": {
        "InChI": "InChI=1S/C7H7BO4/c9-7(10)5-1-3-6(4-2-5)8(11)12/h1-4,11-12H,(H,9,10)",
        "InChIKey": null,
        "Canonical SMILES": "O=C(O)C1=CC=C(C=C1)B(O)O",
        "Molecular Formula": "C<sub>7</sub>H<sub>7</sub>BO<sub>4</sub>",
        "Molecular Mass": "165.94",
        "Melting Point": "219-220 °C"
    }
}