{
    "cas_no": "5908-87-2",
    "key_name": "Ethyl docosanoate",
    "cn_name": null,
    "alternate_name": "Docosanoic acid, ethyl ester;Ethyl behenate;Ethyl docosanoate;Behenic acid ethyl ester",
    "duplicated_cas_no": "",
    "SMILES": "C(CCCCCCCCCCCCCCCCCC)CCC(OCC)=O",
    "meta_data": {
        "InChI": "InChI=1S/C24H48O2/c1-3-5-6-7-8-9-10-11-12-13-14-15-16-17-18-19-20-21-22-23-24(25)26-4-2/h3-23H2,1-2H3",
        "InChIKey": null,
        "Canonical SMILES": "O=C(OCC)CCCCCCCCCCCCCCCCCCCCC",
        "Molecular Formula": "C<sub>24</sub>H<sub>48</sub>O<sub>2</sub>",
        "Molecular Mass": "368.64",
        "Boiling Point": "240 °C",
        "Melting Point": "50 °C"
    }
}