{
    "cas_no": "4744-08-5",
    "key_name": "1,1-Diethoxypropane",
    "cn_name": "1,1-二乙氧基丙烷;丙醛二乙基乙缩醛;",
    "alternate_name": "Propane, 1,1-diethoxy-;Propionaldehyde, diethyl acetal;1,1-Diethoxypropane;Propanal diethylacetal;Propionaldehyde ethyl acetal;NSC 227930",
    "duplicated_cas_no": "",
    "SMILES": "C(OCC)(OCC)CC",
    "meta_data": {
        "InChI": "InChI=1S/C7H16O2/c1-4-7(8-5-2)9-6-3/h7H,4-6H2,1-3H3",
        "InChIKey": null,
        "Canonical SMILES": "O(CC)C(OCC)CC",
        "Molecular Formula": "C<sub>7</sub>H<sub>16</sub>O<sub>2</sub>",
        "Molecular Mass": "132.20",
        "Boiling Point": "123 °C",
        "Density": "0.833 g/cm³ @ Temp: 25 °C"
    }
}