{
    "cas_no": "18822-59-8",
    "key_name": "<em>O</em>-<em>tert</em>-Butyl-<span class=\"text-smallcaps\">L</span>-tyrosine",
    "cn_name": "O-叔丁基-L-酪氨酸;",
    "alternate_name": "<span class=\"text-smallcaps\">L</span>-Tyrosine, <em>O</em>-(1,1-dimethylethyl)-;Alanine, 3-(<em>p</em>-<em>tert</em>-butoxyphenyl)-, <span class=\"text-smallcaps\">L</span>-;<em>O</em>-(1,1-Dimethylethyl)-<span class=\"text-smallcaps\">L</span>-tyrosine;<em>O</em>-<em>tert</em>-Butyltyrosine;<em>O</em>-<em>tert</em>-Butyl-<span class=\"text-smallcaps\">L</span>-tyrosine;Tyrosine <em>tert</em>-butyl ether;(<em>S</em>)-2-Amino-3-(4-(<em>tert</em>-butoxy)phenyl)propanoic acid",
    "duplicated_cas_no": "890652-87-6",
    "SMILES": "O(C(C)(C)C)C1=CC=C(C[C@@H](C(O)=O)N)C=C1",
    "meta_data": {
        "InChI": "InChI=1S/C13H19NO3/c1-13(2,3)17-10-6-4-9(5-7-10)8-11(14)12(15)16/h4-7,11H,8,14H2,1-3H3,(H,15,16)/t11-/m0/s1",
        "InChIKey": null,
        "Canonical SMILES": "O=C(O)C(N)CC1=CC=C(OC(C)(C)C)C=C1",
        "Molecular Formula": "C<sub>13</sub>H<sub>19</sub>NO<sub>3</sub>",
        "Molecular Mass": "237.29",
        "Melting Point": "248-249.5 °C (decomp)"
    }
}