{
    "cas_no": "144690-33-5",
    "key_name": "Ethyl 4-(1-hydroxy-1-methylethyl)-2-propyl-1-[[2′-[1-(triphenylmethyl)-1<em>H</em>-tetrazol-5-yl][1,1′-biphenyl]-4-yl]methyl]-1<em>H</em>-imidazole-5-carboxylate",
    "cn_name": null,
    "alternate_name": "1<em>H</em>-Imidazole-5-carboxylic acid, 4-(1-hydroxy-1-methylethyl)-2-propyl-1-[[2′-[1-(triphenylmethyl)-1<em>H</em>-tetrazol-5-yl][1,1′-biphenyl]-4-yl]methyl]-, ethyl ester;Ethyl 4-(1-hydroxy-1-methylethyl)-2-propyl-1-[[2′-[1-(triphenylmethyl)-1<em>H</em>-tetrazol-5-yl][1,1′-biphenyl]-4-yl]methyl]-1<em>H</em>-imidazole-5-carboxylate;Tritylolmesartan ethyl ester;Ethyl 4-(1-hydroxy-1-methylethyl)-2-propyl-1-[4-[2-(trityltetrazol-5-yl)phenyl]phenyl]methylimidazole-5-carboxylate",
    "duplicated_cas_no": "",
    "SMILES": "C(N1C(=NN=N1)C2=C(C=CC=C2)C3=CC=C(CN4C(C(OCC)=O)=C(C(C)(C)O)N=C4CCC)C=C3)(C5=CC=CC=C5)(C6=CC=CC=C6)C7=CC=CC=C7",
    "meta_data": {
        "InChI": "InChI=1S/C45H44N6O3/c1-5-18-39-46-41(44(3,4)53)40(43(52)54-6-2)50(39)31-32-27-29-33(30-28-32)37-25-16-17-26-38(37)42-47-48-49-51(42)45(34-19-10-7-11-20-34,35-21-12-8-13-22-35)36-23-14-9-15-24-36/h7-17,19-30,53H,5-6,18,31H2,1-4H3",
        "InChIKey": null,
        "Canonical SMILES": "O=C(OCC)C1=C(N=C(N1CC=2C=CC(=CC2)C=3C=CC=CC3C4=NN=NN4C(C=5C=CC=CC5)(C=6C=CC=CC6)C=7C=CC=CC7)CCC)C(O)(C)C",
        "Molecular Formula": "C<sub>45</sub>H<sub>44</sub>N<sub>6</sub>O<sub>3</sub>",
        "Molecular Mass": "716.87",
        "Melting Point": "161 °C"
    }
}