{
    "cas_no": "25193-95-7",
    "key_name": "5-Pyrimidinemethanol",
    "cn_name": "5-嘧啶甲醇;",
    "alternate_name": "5-Pyrimidinemethanol;5-(Hydroxymethyl)pyrimidine;Pyrimidin-5-ylmethanol",
    "duplicated_cas_no": "",
    "SMILES": "C(O)C=1C=NC=NC1",
    "meta_data": {
        "InChI": "InChI=1S/C5H6N2O/c8-3-5-1-6-4-7-2-5/h1-2,4,8H,3H2",
        "InChIKey": null,
        "Canonical SMILES": "OCC=1C=NC=NC1",
        "Molecular Formula": "C<sub>5</sub>H<sub>6</sub>N<sub>2</sub>O",
        "Molecular Mass": "110.11",
        "Melting Point": "51-52 °C"
    }
}