{
    "cas_no": "96195-89-0",
    "key_name": "Iodonium, (2-carboxyphenyl)phenyl-, inner salt, hydrate (1:1)",
    "cn_name": null,
    "alternate_name": "Iodonium, (2-carboxyphenyl)phenyl-, inner salt, hydrate (1:1);(<em>o</em>-Carboxyphenyl)phenyliodonium hydroxide, inner salt, monohydrate;Iodonium, (2-carboxyphenyl)phenyl-, inner salt, monohydrate",
    "duplicated_cas_no": "",
    "SMILES": "[I+](C1=C(C([O-])=O)C=CC=C1)C2=CC=CC=C2.O",
    "meta_data": {
        "InChI": "InChI=1S/C13H9IO2.H2O/c15-13(16)11-8-4-5-9-12(11)14-10-6-2-1-3-7-10;/h1-9H;1H2",
        "InChIKey": null,
        "Canonical SMILES": "O=C([O-])C=1C=CC=CC1[I+]C=2C=CC=CC2.O",
        "Molecular Formula": "C<sub>13</sub>H<sub>9</sub>IO<sub>2</sub>.H<sub>2</sub>O",
        "Molecular Mass": "",
        "Melting Point": "220-222 °C"
    }
}