{
    "cas_no": "829-84-5",
    "key_name": "Dicyclohexylphosphine",
    "cn_name": "二环己基膦;二环己基膦;",
    "alternate_name": "Phosphine, dicyclohexyl-;Dicyclohexylphosphine",
    "duplicated_cas_no": "",
    "SMILES": "P(C1CCCCC1)C2CCCCC2",
    "meta_data": {
        "InChI": "InChI=1S/C12H23P/c1-3-7-11(8-4-1)13-12-9-5-2-6-10-12/h11-13H,1-10H2",
        "InChIKey": null,
        "Canonical SMILES": "P(C1CCCCC1)C2CCCCC2",
        "Molecular Formula": "C<sub>12</sub>H<sub>23</sub>P",
        "Molecular Mass": "198.28",
        "Boiling Point": "&gt;149.4 °C"
    }
}