{
    "cas_no": "2675-89-0",
    "key_name": "2-Chloro-<em>N</em>,<em>N</em>-dimethylacetamide",
    "cn_name": "2-氯-N,N-二甲基乙酰胺;N,N-二甲基-2-氯乙酰胺;",
    "alternate_name": "Acetamide, 2-chloro-<em>N</em>,<em>N</em>-dimethyl-;2-Chloro-<em>N</em>,<em>N</em>-dimethylacetamide;α-Chloro-<em>N</em>,<em>N</em>-dimethylacetamide;<em>N</em>,<em>N</em>-Dimethylchloroacetamide;<em>N</em>,<em>N</em>-Dimethyl-2-chloroacetamide;<em>N</em>,<em>N</em>-Dimethyl-α-chloroacetamide;2-Chloro-<em>N</em>,<em>N</em>′-dimethylacetamide;2-Chlorodimethylacetamide;NSC 1193",
    "duplicated_cas_no": "",
    "SMILES": "C(N(C)C)(CCl)=O",
    "meta_data": {
        "InChI": "InChI=1S/C4H8ClNO/c1-6(2)4(7)3-5/h3H2,1-2H3",
        "InChIKey": null,
        "Canonical SMILES": "O=C(N(C)C)CCl",
        "Molecular Formula": "C<sub>4</sub>H<sub>8</sub>ClNO",
        "Molecular Mass": "121.57",
        "Boiling Point": "99-101 °C @ Press: 12 Torr",
        "Melting Point": "15-16 °C"
    }
}