{
    "cas_no": "2814-20-2",
    "key_name": "2-Isopropyl-6-methyl-4-pyrimidinol",
    "cn_name": "2-异丙基-4-甲基-6-羟基嘧啶;2-异丙基-6-甲基-4-羟基嘧啶;",
    "alternate_name": "4(3<em>H</em>)-Pyrimidinone, 6-methyl-2-(1-methylethyl)-;4(1<em>H</em>)-Pyrimidinone, 6-methyl-2-(1-methylethyl)-;4(1<em>H</em>)-Pyrimidinone, 2-isopropyl-6-methyl-;4-Pyrimidinol, 2-isopropyl-6-methyl-;6-Methyl-2-(1-methylethyl)-4(3<em>H</em>)-pyrimidinone;IMHP;2-Isopropyl-4-methyl-6-hydroxypyrimidine;2-Isopropyl-4-methylpyrimidin-6-ol;2-Isopropyl-6-methyl-4-hydroxypyrimidine;G 27550;2-Isopropyl-6-methyl-4(3<em>H</em>)-pyrimidone;2-Isopropyl-6-methyl-4-pyrimidinol;2-Isopropyl-6-methyl-4-pyrimidone;Pyrimidinol;4-Hydroxy-2-isopropyl-6-methylpyrimidine;2-Isopropyl-4-methyl-6-pyrimidinone;2-Isopropyl-4-hydroxy-6-methylpyrimidine",
    "duplicated_cas_no": "16858-17-6",
    "SMILES": "C(C)(C)C=1NC(C)=CC(=O)N1",
    "meta_data": {
        "InChI": "InChI=1S/C8H12N2O/c1-5(2)8-9-6(3)4-7(11)10-8/h4-5H,1-3H3,(H,9,10,11)",
        "InChIKey": null,
        "Canonical SMILES": "O=C1N=C(NC(=C1)C)C(C)C",
        "Molecular Formula": "C<sub>8</sub>H<sub>12</sub>N<sub>2</sub>O",
        "Molecular Mass": "152.19",
        "Melting Point": "170-172 °C"
    }
}