{
    "cas_no": "606-28-0",
    "key_name": "Methyl <em>o</em>-benzoylbenzoate",
    "cn_name": "邻苯甲酰苯甲酸甲酯;2-苯甲酰基苯甲酸甲酯;BB酸甲酯;MBB;",
    "alternate_name": "Benzoic acid, 2-benzoyl-, methyl ester;Benzoic acid, <em>o</em>-benzoyl-, methyl ester;<em>o</em>-(Methoxycarbonyl)benzophenone;Methyl <em>o</em>-benzoylbenzoate;Methyl 2-benzoylbenzoate;Speedcure MBB;NSC 3797;Initiator 1056;OBM 100;Daitocure OB;OMBB;Runtecure 1056;SB-PI 711;2-Benzoylbenzoic acid methyl ester;Genocure MBB;Omnirad OMBB;Photoinitiator MOBB;PI MBB;JRCure OMBB",
    "duplicated_cas_no": "",
    "SMILES": "C(=O)(C1=C(C(OC)=O)C=CC=C1)C2=CC=CC=C2",
    "meta_data": {
        "InChI": "InChI=1S/C15H12O3/c1-18-15(17)13-10-6-5-9-12(13)14(16)11-7-3-2-4-8-11/h2-10H,1H3",
        "InChIKey": null,
        "Canonical SMILES": "O=C(OC)C=1C=CC=CC1C(=O)C=2C=CC=CC2",
        "Molecular Formula": "C<sub>15</sub>H<sub>12</sub>O<sub>3</sub>",
        "Molecular Mass": "240.25",
        "Boiling Point": "351 °C",
        "Melting Point": "52 °C"
    }
}