{
    "cas_no": "154-06-3",
    "key_name": "<span class=\"text-smallcaps\">L</span>-5-Methyltryptophan",
    "cn_name": null,
    "alternate_name": "<span class=\"text-smallcaps\">L</span>-Tryptophan, 5-methyl-;Tryptophan, 5-methyl-, <span class=\"text-smallcaps\">L</span>-;5-Methyl-<span class=\"text-smallcaps\">L</span>-tryptophan;5-Methyltryptophan;<span class=\"text-smallcaps\">L</span>-5-Methyltryptophan;(2S)-2-Amino-3-(5-methyl-1<em>H</em>-indol-3-yl)propanoic acid",
    "duplicated_cas_no": "",
    "SMILES": "C([C@@H](C(O)=O)N)C=1C=2C(NC1)=CC=C(C)C2",
    "meta_data": {
        "InChI": "InChI=1S/C12H14N2O2/c1-7-2-3-11-9(4-7)8(6-14-11)5-10(13)12(15)16/h2-4,6,10,14H,5,13H2,1H3,(H,15,16)/t10-/m0/s1",
        "InChIKey": null,
        "Canonical SMILES": "O=C(O)C(N)CC1=CNC=2C=CC(=CC21)C",
        "Molecular Formula": "C<sub>12</sub>H<sub>14</sub>N<sub>2</sub>O<sub>2</sub>",
        "Molecular Mass": "218.25",
        "Melting Point": "272-273 °C (decomp)"
    }
}