{
    "cas_no": "4152-90-3",
    "key_name": "3-Chlorobenzylamine",
    "cn_name": "3-氯苄胺;间氯苄胺;",
    "alternate_name": "Benzenemethanamine, 3-chloro-;Benzylamine, <em>m</em>-chloro-;3-Chlorobenzenemethanamine;<em>m</em>-Chlorobenzylamine;3-Chlorobenzylamine;(3-Chlorophenyl)methanamine;[(3-Chlorophenyl)methyl]amine;1-(3-Chlorophenyl)methanamine",
    "duplicated_cas_no": "",
    "SMILES": "C(N)C1=CC(Cl)=CC=C1",
    "meta_data": {
        "InChI": "InChI=1S/C7H8ClN/c8-7-3-1-2-6(4-7)5-9/h1-4H,5,9H2",
        "InChIKey": null,
        "Canonical SMILES": "ClC1=CC=CC(=C1)CN",
        "Molecular Formula": "C<sub>7</sub>H<sub>8</sub>ClN",
        "Molecular Mass": "141.60",
        "Boiling Point": "110-112 °C @ Press: 17 Torr",
        "Melting Point": "97-98 °C"
    }
}