{
    "cas_no": "49805-30-3",
    "key_name": "(±)-2-Azabicyclo[2.2.1]hept-5-en-3-one",
    "cn_name": "2-氮杂双环[2.2.1]庚-5-烯-3-酮;",
    "alternate_name": "2-Azabicyclo[2.2.1]hept-5-en-3-one;(±)-2-Azabicyclo[2.2.1]hept-5-en-3-one;(±)-Vince lactam;Vince lactam;Rac-Vince lactam;3-Azabicyclo[2.2.1]hept-5-en-2-one",
    "duplicated_cas_no": "61865-48-3",
    "SMILES": "O=C1C2CC(N1)C=C2",
    "meta_data": {
        "InChI": "InChI=1S/C6H7NO/c8-6-4-1-2-5(3-4)7-6/h1-2,4-5H,3H2,(H,7,8)",
        "InChIKey": null,
        "Canonical SMILES": "O=C1NC2C=CC1C2",
        "Molecular Formula": "C<sub>6</sub>H<sub>7</sub>NO",
        "Molecular Mass": "109.13",
        "Melting Point": "50 °C"
    }
}