{
    "cas_no": "22118-09-8",
    "key_name": "Bromoacetyl chloride",
    "cn_name": "溴乙酰氯;",
    "alternate_name": "Acetyl chloride, 2-bromo-;Acetyl chloride, bromo-;2-Bromoacetyl chloride;Bromoacetyl chloride;NSC 97376;2-Bromo-1-chloro-ethanal",
    "duplicated_cas_no": "",
    "SMILES": "C(CBr)(Cl)=O",
    "meta_data": {
        "InChI": "InChI=1S/C2H2BrClO/c3-1-2(4)5/h1H2",
        "InChIKey": null,
        "Canonical SMILES": "O=C(Cl)CBr",
        "Molecular Formula": "C<sub>2</sub>H<sub>2</sub>BrClO",
        "Molecular Mass": "157.39",
        "Boiling Point": "115-117 °C",
        "Density": "1.914 g/cm³ @ Temp: 20 °C"
    }
}