{
    "cas_no": "139504-50-0",
    "key_name": "Maytansinoid DM 1",
    "cn_name": null,
    "alternate_name": "Maytansine, <em>N</em><sup>2′</sup>-deacetyl-<em>N</em><sup>2′</sup>-(3-mercapto-1-oxopropyl)-;<em>N</em><sup>2′</sup>-Deacetyl-<em>N</em><sup>2′</sup>-(3-mercapto-1-oxopropyl)maytansine;Maytansinoid DM 1;DM 1;Mertansine;Emtansine;DM1 maytansine",
    "duplicated_cas_no": "1194029-14-5;1613023-94-1;2159103-61-2;2230548-32-8;2768502-42-5",
    "SMILES": "C[C@]12[C@@](O1)([C@H](C)[C@@]3(C[C@](O)([C@H](OC)/C=C/C=C(\\C)/CC4=CC(N(C)C(=O)C[C@@H]2OC([C@@H](N(C(CCS)=O)C)C)=O)=C(Cl)C(OC)=C4)NC(=O)O3)[H])[H]",
    "meta_data": {
        "InChI": "InChI=1S/C35H48ClN3O10S/c1-19-10-9-11-26(46-8)35(44)18-25(47-33(43)37-35)20(2)31-34(4,49-31)27(48-32(42)21(3)38(5)28(40)12-13-50)17-29(41)39(6)23-15-22(14-19)16-24(45-7)30(23)36/h9-11,15-16,20-21,25-27,31,44,50H,12-14,17-18H2,1-8H3,(H,37,43)/b11-9+,19-10+/t20-,21+,25+,26-,27+,31+,34+,35+/m1/s1",
        "InChIKey": null,
        "Canonical SMILES": "O=C1OC2CC(O)(N1)C(OC)C=CC=C(C)CC3=CC(OC)=C(Cl)C(=C3)N(C(=O)CC(OC(=O)C(N(C(=O)CCS)C)C)C4(OC4C2C)C)C",
        "Molecular Formula": "C<sub>35</sub>H<sub>48</sub>ClN<sub>3</sub>O<sub>10</sub>S",
        "Molecular Mass": "738.29",
        "Melting Point": "190-192 °C (decomp)"
    }
}