{
    "cas_no": "59-51-8",
    "key_name": "(±)-Methionine",
    "cn_name": "DL-蛋氨酸;DL-2-氨基-4-甲硫基丁酸;",
    "alternate_name": "Methionine;Methionine, <span class=\"text-smallcaps\">D</smallcap><smallcap>L</span>-;<span class=\"text-smallcaps\">D</smallcap><smallcap>L</span>-Methionine;α-Amino-γ-methylmercaptobutyric acid;<span class=\"text-smallcaps\">DL</span>-2-Amino-4-(methylthio)butyric acid;Banthionine;Cynaron;Dyprin;Lobamine;Meonine;Methilanin;Metione;Neston;(±)-Methionine;Racemethionine;Lactet;Pedameth;Urimeth;Amurex;NSC 9241;Meprom M 85;Rhodimet NP 99;Smartamine M;Smartamine;Timet;MetAMINO;MetiPEARL;Acimetion;2-Amino-4-(methylthio)butanoic acid;2-Amino-4-(methylsulfanyl)butanoic acid;2-Azaniumyl-4-methylsulfanylbutanoate;<span class=\"text-smallcaps\">DL</span>-Methionine",
    "duplicated_cas_no": "1105707-18-3;192948-75-7",
    "SMILES": "C(C(O)=O)(CCSC)N",
    "meta_data": {
        "InChI": "InChI=1S/C5H11NO2S/c1-9-3-2-4(6)5(7)8/h4H,2-3,6H2,1H3,(H,7,8)",
        "InChIKey": null,
        "Canonical SMILES": "O=C(O)C(N)CCSC",
        "Molecular Formula": "C<sub>5</sub>H<sub>11</sub>NO<sub>2</sub>S",
        "Molecular Mass": "149.21",
        "Melting Point": "281 °C (decomp)",
        "Density": "1.3 g/cm³"
    }
}