{
    "cas_no": "25140-86-7",
    "key_name": "2-(2-Chlorophenoxy)propionic acid",
    "cn_name": "2-(2-氯苯氧基)丙酸;",
    "alternate_name": "Propanoic acid, 2-(2-chlorophenoxy)-;Propionic acid, 2-(<em>o</em>-chlorophenoxy)-;2-(2-Chlorophenoxy)propanoic acid;2-(<em>o</em>-Chlorophenoxy)propionic acid;2-(2-Chlorophenoxy)propionic acid;(±)-2-(2-Chlorophenoxy)propionic acid;(<em>RS</em>)-2-(2-Chlorophenoxy)propionic acid;(±)-2-(2-Chlorophenoxy)propanoic acid",
    "duplicated_cas_no": "76466-16-5",
    "SMILES": "O(C(C(O)=O)C)C1=C(Cl)C=CC=C1",
    "meta_data": {
        "InChI": "InChI=1S/C9H9ClO3/c1-6(9(11)12)13-8-5-3-2-4-7(8)10/h2-6H,1H3,(H,11,12)",
        "InChIKey": null,
        "Canonical SMILES": "O=C(O)C(OC=1C=CC=CC1Cl)C",
        "Molecular Formula": "C<sub>9</sub>H<sub>9</sub>ClO<sub>3</sub>",
        "Molecular Mass": "200.62",
        "Melting Point": "114-115 °C"
    }
}