{
    "cas_no": "807-38-5",
    "key_name": "Fluocinolone",
    "cn_name": null,
    "alternate_name": "Pregna-1,4-diene-3,20-dione, 6,9-difluoro-11,16,17,21-tetrahydroxy-, (6α,11β,16α)-;Pregna-1,4-diene-3,20-dione, 6α,9-difluoro-11β,16α,17,21-tetrahydroxy-;(6α,11β,16α)-6,9-Difluoro-11,16,17,21-tetrahydroxypregna-1,4-diene-3,20-dione;Fluocinolone;16α-Hydroxy-6α,9-difluoroprednisolone;6α-Fluorotriamcinolone",
    "duplicated_cas_no": "",
    "SMILES": "F[C@@]12[C@]([C@]3([C@](C)(C[C@@H]1O)[C@](C(CO)=O)(O)[C@H](O)C3)[H])(C[C@H](F)C=4[C@]2(C)C=CC(=O)C4)[H]",
    "meta_data": {
        "InChI": "InChI=1S/C21H26F2O6/c1-18-4-3-10(25)5-13(18)14(22)6-12-11-7-15(26)21(29,17(28)9-24)19(11,2)8-16(27)20(12,18)23/h3-5,11-12,14-16,24,26-27,29H,6-9H2,1-2H3/t11-,12-,14-,15+,16-,18-,19-,20-,21-/m0/s1",
        "InChIKey": null,
        "Canonical SMILES": "O=C1C=CC2(C(=C1)C(F)CC3C4CC(O)C(O)(C(=O)CO)C4(C)CC(O)C32F)C",
        "Molecular Formula": "C<sub>21</sub>H<sub>26</sub>F<sub>2</sub>O<sub>6</sub>",
        "Molecular Mass": "412.42",
        "Melting Point": "266-268 °C"
    }
}