{
    "cas_no": "1846-76-0",
    "key_name": "3-Carbethoxycoumarin",
    "cn_name": "香豆素-3-羧酸乙酯;香豆素-3-羧酸乙酯,98%;",
    "alternate_name": "2<em>H</em>-1-Benzopyran-3-carboxylic acid, 2-oxo-, ethyl ester;3-Ethoxycarbonylcoumarin;Ethyl 3-coumarincarboxylate;3-Carbethoxycoumarin;Ethyl 2-oxo-2<em>H</em>-1-benzopyran-3-carboxylate;Ethyl 2<em>H</em>-2-oxo-1-benzopyran-3-carboxylate;2-Oxo-2<em>H</em>-1-benzopyran-3-carboxylic acid ethyl ester;NSC 620;Ethyl 2<em>H</em>-1-benzopyran-2-oxo-3-carboxylate;2-Oxo-2<em>H</em>-chromene-3-carboxylic acid ethyl ester",
    "duplicated_cas_no": "",
    "SMILES": "C(OCC)(=O)C1=CC=2C(OC1=O)=CC=CC2",
    "meta_data": {
        "InChI": "InChI=1S/C12H10O4/c1-2-15-11(13)9-7-8-5-3-4-6-10(8)16-12(9)14/h3-7H,2H2,1H3",
        "InChIKey": null,
        "Canonical SMILES": "O=C1OC=2C=CC=CC2C=C1C(=O)OCC",
        "Molecular Formula": "C<sub>12</sub>H<sub>10</sub>O<sub>4</sub>",
        "Molecular Mass": "218.21",
        "Melting Point": "92-94 °C"
    }
}