{
    "cas_no": "21854-95-5",
    "key_name": "1,2-Bis(2-chlorophenyl)-1,2-ethanedione",
    "cn_name": "2,2\"-二氯联苯甲酰;",
    "alternate_name": "1,2-Ethanedione, 1,2-bis(2-chlorophenyl)-;Benzil, 2,2′-dichloro-;Ethanedione, bis(2-chlorophenyl)-;1,2-Bis(2-chlorophenyl)-1,2-ethanedione;2,2′-Dichlorobenzil;<em>o</em>,<em>o</em>′-Dichlorobenzil;NSC 114829;Bis(2-chlorophenyl)ethanedione",
    "duplicated_cas_no": "",
    "SMILES": "C(C(=O)C1=C(Cl)C=CC=C1)(=O)C2=C(Cl)C=CC=C2",
    "meta_data": {
        "InChI": "InChI=1S/C14H8Cl2O2/c15-11-7-3-1-5-9(11)13(17)14(18)10-6-2-4-8-12(10)16/h1-8H",
        "InChIKey": null,
        "Canonical SMILES": "O=C(C(=O)C=1C=CC=CC1Cl)C=2C=CC=CC2Cl",
        "Molecular Formula": "C<sub>14</sub>H<sub>8</sub>Cl<sub>2</sub>O<sub>2</sub>",
        "Molecular Mass": "279.12",
        "Melting Point": "128 °C"
    }
}