{
    "cas_no": "356-27-4",
    "key_name": "Ethyl 2,2,3,3,4,4,4-heptafluorobutanoate",
    "cn_name": "七氟丁酸乙酯;",
    "alternate_name": "Butanoic acid, 2,2,3,3,4,4,4-heptafluoro-, ethyl ester;Butyric acid, heptafluoro-, ethyl ester;Butanoic acid, heptafluoro-, ethyl ester;Ethyl 2,2,3,3,4,4,4-heptafluorobutanoate;Ethyl perfluorobutyrate;Ethyl heptafluorobutyrate;Ethyl heptafluorobutanoate;Ethyl perfluorobutanoate;NSC 3639;Ethyl 2,2,3,3,4,4,4-heptafluorobutyrate",
    "duplicated_cas_no": "",
    "SMILES": "C(C(C(F)(F)F)(F)F)(C(OCC)=O)(F)F",
    "meta_data": {
        "InChI": "InChI=1S/C6H5F7O2/c1-2-15-3(14)4(7,8)5(9,10)6(11,12)13/h2H2,1H3",
        "InChIKey": null,
        "Canonical SMILES": "O=C(OCC)C(F)(F)C(F)(F)C(F)(F)F",
        "Molecular Formula": "C<sub>6</sub>H<sub>5</sub>F<sub>7</sub>O<sub>2</sub>",
        "Molecular Mass": "242.09",
        "Boiling Point": "95 °C",
        "Density": "1.396 g/cm³"
    }
}