{
    "cas_no": "42019-78-3",
    "key_name": "4-Chloro-4′-hydroxybenzophenone",
    "cn_name": "4-氯-4\"-羟基二苯甲酮;",
    "alternate_name": "Methanone, (4-chlorophenyl)(4-hydroxyphenyl)-;Benzophenone, 4-chloro-4′-hydroxy-;(4-Chlorophenyl)(4-hydroxyphenyl)methanone;4-Hydroxy-4′-chlorobenzophenone;4-(4-Chlorobenzoyl)phenol;4-<em>p</em>-Chlorobenzoylphenol;4-Chloro-4′-hydroxybenzophenone;1-(4-Chlorophenyl)-1-(4-hydroxyphenyl)methanone;4′-Chloro-4-hydroxybenzophenone",
    "duplicated_cas_no": "",
    "SMILES": "C(=O)(C1=CC=C(Cl)C=C1)C2=CC=C(O)C=C2",
    "meta_data": {
        "InChI": "InChI=1S/C13H9ClO2/c14-11-5-1-9(2-6-11)13(16)10-3-7-12(15)8-4-10/h1-8,15H",
        "InChIKey": null,
        "Canonical SMILES": "O=C(C1=CC=C(Cl)C=C1)C2=CC=C(O)C=C2",
        "Molecular Formula": "C<sub>13</sub>H<sub>9</sub>ClO<sub>2</sub>",
        "Molecular Mass": "232.66",
        "Melting Point": "179 °C"
    }
}