{
    "cas_no": "1746-13-0",
    "key_name": "Allyl phenyl ether",
    "cn_name": "丙烯基苯基醚;",
    "alternate_name": "Benzene, (2-propen-1-yloxy)-;Ether, allyl phenyl;Benzene, (2-propenyloxy)-;(2-Propen-1-yloxy)benzene;Allyl phenyl ether;(2-Propenyloxy)benzene;Phenyl allyl ether;Allyloxybenzene;3-Phenoxypropene;Phenyl 2-propenyl ether;Phenylpropenyl ether;3-Phenoxy-1-propene;1-(2-Propenyloxy)benzene;1-Phenoxy-2-propene;NSC 4746",
    "duplicated_cas_no": "",
    "SMILES": "O(CC=C)C1=CC=CC=C1",
    "meta_data": {
        "InChI": "InChI=1S/C9H10O/c1-2-8-10-9-6-4-3-5-7-9/h2-7H,1,8H2",
        "InChIKey": null,
        "Canonical SMILES": "O(C=1C=CC=CC1)CC=C",
        "Molecular Formula": "C<sub>9</sub>H<sub>10</sub>O",
        "Molecular Mass": "134.18",
        "Boiling Point": "191.7 °C",
        "Melting Point": "90 °C"
    }
}