{
    "cas_no": "1014-69-3",
    "key_name": "Desmetryn",
    "cn_name": "敌草净;杀蔓灵;地蔓尽;敌草净;",
    "alternate_name": "1,3,5-Triazine-2,4-diamine, <em>N</em><sup>2</sup>-methyl-<em>N</em><sup>4</sup>-(1-methylethyl)-6-(methylthio)-;<em>s</em>-Triazine, 2-(isopropylamino)-4-(methylamino)-6-(methylthio)-;1,3,5-Triazine-2,4-diamine, <em>N</em>-methyl-<em>N</em>′-(1-methylethyl)-6-(methylthio)-;<em>N</em><sup>2</sup>-Methyl-<em>N</em><sup>4</sup>-(1-methylethyl)-6-(methylthio)-1,3,5-triazine-2,4-diamine;G 34360;Desmetryne;2-Isopropylamino-4-methylamino-6-methylmercapto-<em>s</em>-triazine;2-Isopropylamino-4-methylamino-6-methylthio-1,3,5-triazine;Methylmercapto-4-isopropylamino-6-methylamino-<em>s</em>-triazine;2-Methylthio-4-isopropylamino-6-methylamino-<em>s</em>-triazine;Semeron;2-(Methylthio)-4-(methylamino)-6-(isopropylamino)-<em>s</em>-triazine;2-Methylmercapto-4-methylamino-6-isopropylamino-<em>s</em>-triazine;Semeron 25;Desmetryn;Norametryne;Topusyn;Semeron 250;GS 34360",
    "duplicated_cas_no": "",
    "SMILES": "N(C(C)C)C=1N=C(NC)N=C(SC)N1",
    "meta_data": {
        "InChI": "InChI=1S/C8H15N5S/c1-5(2)10-7-11-6(9-3)12-8(13-7)14-4/h5H,1-4H3,(H2,9,10,11,12,13)",
        "InChIKey": null,
        "Canonical SMILES": "N=1C(=NC(=NC1NC)NC(C)C)SC",
        "Molecular Formula": "C<sub>8</sub>H<sub>15</sub>N<sub>5</sub>S",
        "Molecular Mass": "213.30",
        "Boiling Point": "345 °C",
        "Melting Point": "84-86 °C",
        "Density": "1.172 g/cm³ @ Temp: 20 °C"
    }
}