{
    "cas_no": "4023-53-4",
    "key_name": "Tris(2-cyanoethyl)phosphine",
    "cn_name": "三(2-氰乙基)膦;三(2-氰乙基)膦;",
    "alternate_name": "Propanenitrile, 3,3′,3′′-phosphinidynetris-;Propionitrile, 3,3′,3′′-phosphinidynetri-;Propionitrile, 3,3′,3′-phosphinidynetri-;3,3′,3′′-Phosphinidynetris[propanenitrile];Phosphine, tris(2-cyanoethyl)-;Tris(2-cyanoethyl)phosphine;Tris(β-cyanoethyl)phosphine;NSC 41940;3,3′,3′′-Phosphinetriyltripropanenitrile",
    "duplicated_cas_no": "",
    "SMILES": "P(CCC#N)(CCC#N)CCC#N",
    "meta_data": {
        "InChI": "InChI=1S/C9H12N3P/c10-4-1-7-13(8-2-5-11)9-3-6-12/h1-3,7-9H2",
        "InChIKey": null,
        "Canonical SMILES": "N#CCCP(CCC#N)CCC#N",
        "Molecular Formula": "C<sub>9</sub>H<sub>12</sub>N<sub>3</sub>P",
        "Molecular Mass": "193.19",
        "Melting Point": "97 °C"
    }
}