{
    "cas_no": "120351-90-8",
    "key_name": "2-(2-Fluorophenoxy)ethanamine",
    "cn_name": "2-(2-氟苯氧基)-1-乙胺;2-(2-氟苯氧基)乙胺;",
    "alternate_name": "Ethanamine, 2-(2-fluorophenoxy)-;2-(2-Fluorophenoxy)ethanamine;2-(2-Fluorophenoxy)ethylamine;1-(2-Aminoethoxy)-2-fluorobenzene;2-(2-Fluorophenoxy)ethan-1-amine",
    "duplicated_cas_no": "",
    "SMILES": "O(CCN)C1=C(F)C=CC=C1",
    "meta_data": {
        "InChI": "InChI=1S/C8H10FNO/c9-7-3-1-2-4-8(7)11-6-5-10/h1-4H,5-6,10H2",
        "InChIKey": null,
        "Canonical SMILES": "FC=1C=CC=CC1OCCN",
        "Molecular Formula": "C<sub>8</sub>H<sub>10</sub>FNO",
        "Molecular Mass": "155.17",
        "Boiling Point": "104-105 °C @ Press: 10 Torr"
    }
}