{
    "cas_no": "3694-57-3",
    "key_name": "4-Methoxybenzyl isothiocyanate",
    "cn_name": "4-甲氧基苄基异硫氰酸酯;",
    "alternate_name": "Benzene, 1-(isothiocyanatomethyl)-4-methoxy-;Isothiocyanic acid, <em>p</em>-methoxybenzyl ester;1-(Isothiocyanatomethyl)-4-methoxybenzene;<em>p</em>-Methoxybenzyl isothiocyanate;4-Methoxybenzyl isothiocyanate;α-Isothiocyanato-<em>p</em>-methoxytoluene;1-Isothiocyanatomethyl-4-methoxybenzene;Benzenemethanamine, 4-methoxy-, sulfide",
    "duplicated_cas_no": "2484718-24-1",
    "SMILES": "C(N=C=S)C1=CC=C(OC)C=C1",
    "meta_data": {
        "InChI": "InChI=1S/C9H9NOS/c1-11-9-4-2-8(3-5-9)6-10-7-12/h2-5H,6H2,1H3",
        "InChIKey": null,
        "Canonical SMILES": "S=C=NCC1=CC=C(OC)C=C1",
        "Molecular Formula": "C<sub>9</sub>H<sub>9</sub>NOS",
        "Molecular Mass": "179.24",
        "Boiling Point": "133 °C @ Press: 0.7 Torr"
    }
}