{
    "cas_no": "128241-72-5",
    "key_name": "3-Phosphono-<span class=\"text-smallcaps\">D</span>-alanine",
    "cn_name": "D(-)-2-Amino-3-phosphonopropionic acid;",
    "alternate_name": "<span class=\"text-smallcaps\">D</span>-Alanine, 3-phosphono-;3-Phosphono-<span class=\"text-smallcaps\">D</span>-alanine;(<em>S</em>)-2-Amino-3-phosphonopropanoic acid;<span class=\"text-smallcaps\">D</span>-2-Amino-3-phosphonopropionic acid;(2S)-2-Amino-3-phosphonopropanoic acid",
    "duplicated_cas_no": "",
    "SMILES": "[C@@H](CP(=O)(O)O)(C(O)=O)N",
    "meta_data": {
        "InChI": "InChI=1S/C3H8NO5P/c4-2(3(5)6)1-10(7,8)9/h2H,1,4H2,(H,5,6)(H2,7,8,9)/t2-/m1/s1",
        "InChIKey": null,
        "Canonical SMILES": "O=C(O)C(N)CP(=O)(O)O",
        "Molecular Formula": "C<sub>3</sub>H<sub>8</sub>NO<sub>5</sub>P",
        "Molecular Mass": "169.07",
        "Melting Point": "224-226 °C"
    }
}