{
    "cas_no": "361442-04-8",
    "key_name": "Saxagliptin",
    "cn_name": null,
    "alternate_name": "2-Azabicyclo[3.1.0]hexane-3-carbonitrile, 2-[(2<em>S</em>)-2-amino-2-(3-hydroxytricyclo[3.3.1.1<sup>3,7</sup>]dec-1-yl)acetyl]-, (1<em>S</em>,3<em>S</em>,5<em>S</em>)-;2-Azabicyclo[3.1.0]hexane-3-carbonitrile, 2-[(2<em>S</em>)-amino(3-hydroxytricyclo[3.3.1.1<sup>3,7</sup>]dec-1-yl)acetyl]-, (1<em>S</em>,3<em>S</em>,5<em>S</em>)-;(1<em>S</em>,3<em>S</em>,5<em>S</em>)-2-[(2<em>S</em>)-2-Amino-2-(3-hydroxytricyclo[3.3.1.1<sup>3,7</sup>]dec-1-yl)acetyl]-2-azabicyclo[3.1.0]hexane-3-carbonitrile;BMS 477118;Saxagliptin;BMS 477118-11;Onglyza",
    "duplicated_cas_no": "1339955-48-4",
    "SMILES": "[C@H](C(=O)N1[C@@]2([C@@](C2)(C[C@H]1C#N)[H])[H])(N)C34CC5(O)CC(C3)CC(C4)C5",
    "meta_data": {
        "InChI": "InChI=1S/C18H25N3O2/c19-8-13-2-12-3-14(12)21(13)16(22)15(20)17-4-10-1-11(5-17)7-18(23,6-10)9-17/h10-15,23H,1-7,9,20H2/t10?,11?,12-,13+,14+,15-,17?,18?/m1/s1",
        "InChIKey": null,
        "Canonical SMILES": "N#CC1N(C(=O)C(N)C23CC4CC(CC(O)(C4)C2)C3)C5CC5C1",
        "Molecular Formula": "C<sub>18</sub>H<sub>25</sub>N<sub>3</sub>O<sub>2</sub>",
        "Molecular Mass": "315.41",
        "Melting Point": "108-110 °C"
    }
}