{
    "cas_no": "31601-41-9",
    "key_name": "<em>N</em>-(4-Methoxy-2-methylphenyl)acetamide",
    "cn_name": null,
    "alternate_name": "Acetamide, <em>N</em>-(4-methoxy-2-methylphenyl)-;<em>p</em>-Acetanisidide, 2′-methyl-;<em>N</em>-(4-Methoxy-2-methylphenyl)acetamide;3-Methyl-4-acetylaminoanisole;4-Acetamido-3-methylanisole;NSC 16606;<em>N</em>-[2-Methyl-4-(methyloxy)phenyl]acetamide",
    "duplicated_cas_no": "",
    "SMILES": "N(C(C)=O)C1=C(C)C=C(OC)C=C1",
    "meta_data": {
        "InChI": "InChI=1S/C10H13NO2/c1-7-6-9(13-3)4-5-10(7)11-8(2)12/h4-6H,1-3H3,(H,11,12)",
        "InChIKey": null,
        "Canonical SMILES": "O=C(NC1=CC=C(OC)C=C1C)C",
        "Molecular Formula": "C<sub>10</sub>H<sub>13</sub>NO<sub>2</sub>",
        "Molecular Mass": "179.22",
        "Melting Point": "132-134 °C"
    }
}