{
    "cas_no": "126990-35-0",
    "key_name": "Dicyclopentyldimethoxysilane",
    "cn_name": null,
    "alternate_name": "Cyclopentane, 1,1′-(dimethoxysilylene)bis-;Silane, dicyclopentyldimethoxy-;1,1′-(Dimethoxysilylene)bis[cyclopentane];Dicyclopentyldimethoxysilane;Bis(cyclopentyl)dimethoxysilane;D-Donor;Dicyclopentanyldimethoxysilane;Z 6228;DCPMS",
    "duplicated_cas_no": "",
    "SMILES": "[Si](OC)(OC)(C1CCCC1)C2CCCC2",
    "meta_data": {
        "InChI": "InChI=1S/C12H24O2Si/c1-13-15(14-2,11-7-3-4-8-11)12-9-5-6-10-12/h11-12H,3-10H2,1-2H3",
        "InChIKey": null,
        "Canonical SMILES": "O(C)[Si](OC)(C1CCCC1)C2CCCC2",
        "Molecular Formula": "C<sub>12</sub>H<sub>24</sub>O<sub>2</sub>Si",
        "Molecular Mass": "228.40",
        "Boiling Point": "120 °C @ Press: 6 Torr",
        "Density": "1 g/cm³"
    }
}