{
    "cas_no": "2140-71-8",
    "key_name": "2′-<em>O</em>-Methylguanosine",
    "cn_name": null,
    "alternate_name": "Guanosine, 2′-<em>O</em>-methyl-;2′-<em>O</em>-Methylguanosine",
    "duplicated_cas_no": "28548-93-8",
    "SMILES": "O(C)[C@H]1[C@H](N2C3=C(N=C2)C(=O)N=C(N)N3)O[C@H](CO)[C@H]1O",
    "meta_data": {
        "InChI": "InChI=1S/C11H15N5O5/c1-20-7-6(18)4(2-17)21-10(7)16-3-13-5-8(16)14-11(12)15-9(5)19/h3-4,6-7,10,17-18H,2H2,1H3,(H3,12,14,15,19)/t4-,6-,7-,10-/m1/s1",
        "InChIKey": null,
        "Canonical SMILES": "O=C1N=C(N)NC2=C1N=CN2C3OC(CO)C(O)C3OC",
        "Molecular Formula": "C<sub>11</sub>H<sub>15</sub>N<sub>5</sub>O<sub>5</sub>",
        "Molecular Mass": "297.27",
        "Melting Point": "233-235 °C"
    }
}