{
    "cas_no": "945761-94-4",
    "key_name": "7-Iodo-1<em>H</em>-indazole",
    "cn_name": null,
    "alternate_name": "1<em>H</em>-Indazole, 7-iodo-;7-Iodo-1<em>H</em>-indazole",
    "duplicated_cas_no": "",
    "SMILES": "IC1=C2C(=CC=C1)C=NN2",
    "meta_data": {
        "InChI": "InChI=1S/C7H5IN2/c8-6-3-1-2-5-4-9-10-7(5)6/h1-4H,(H,9,10)",
        "InChIKey": null,
        "Canonical SMILES": "IC1=CC=CC=2C=NNC12",
        "Molecular Formula": "C<sub>7</sub>H<sub>5</sub>IN<sub>2</sub>",
        "Molecular Mass": "244.03",
        "Melting Point": "114.2 °C"
    }
}