{
    "cas_no": "79352-78-6",
    "key_name": "Desethylamodiaquine",
    "cn_name": null,
    "alternate_name": "Phenol, 4-[(7-chloro-4-quinolinyl)amino]-2-[(ethylamino)methyl]-;4-[(7-Chloro-4-quinolinyl)amino]-2-[(ethylamino)methyl]phenol;Monodesethylamodiaquine;<em>N</em>-Desethylamodiaquine;Desethylamodiaquine",
    "duplicated_cas_no": "",
    "SMILES": "N(C=1C2=C(N=CC1)C=C(Cl)C=C2)C3=CC(CNCC)=C(O)C=C3",
    "meta_data": {
        "InChI": "InChI=1S/C18H18ClN3O/c1-2-20-11-12-9-14(4-6-18(12)23)22-16-7-8-21-17-10-13(19)3-5-15(16)17/h3-10,20,23H,2,11H2,1H3,(H,21,22)",
        "InChIKey": null,
        "Canonical SMILES": "ClC=1C=CC=2C(=NC=CC2NC3=CC=C(O)C(=C3)CNCC)C1",
        "Molecular Formula": "C<sub>18</sub>H<sub>18</sub>ClN<sub>3</sub>O",
        "Molecular Mass": "327.81",
        "Melting Point": "177-178 °C"
    }
}