{
    "cas_no": "89604-92-2",
    "key_name": "1,1-Dimethylethyl 2-[[(<em>Z</em>)-[1-(2-amino-4-thiazolyl)-2-(2-benzothiazolylthio)-2-oxoethylidene]amino]oxy]-2-methylpropanoate",
    "cn_name": "头孢他啶侧链酸活性酯;头孢他定活性酯;BPTA;",
    "alternate_name": "Propanoic acid, 2-[[(<em>Z</em>)-[1-(2-amino-4-thiazolyl)-2-(2-benzothiazolylthio)-2-oxoethylidene]amino]oxy]-2-methyl-, 1,1-dimethylethyl ester;Propanoic acid, 2-[[[1-(2-amino-4-thiazolyl)-2-(2-benzothiazolylthio)-2-oxoethylidene]amino]oxy]-2-methyl-, 1,1-dimethylethyl ester, (<em>Z</em>)-;1,1-Dimethylethyl 2-[[(<em>Z</em>)-[1-(2-amino-4-thiazolyl)-2-(2-benzothiazolylthio)-2-oxoethylidene]amino]oxy]-2-methylpropanoate",
    "duplicated_cas_no": "1313491-99-4",
    "SMILES": "C(\\C(SC1=NC=2C(S1)=CC=CC2)=O)(=N\\OC(C(OC(C)(C)C)=O)(C)C)/C=3N=C(N)SC3",
    "meta_data": {
        "InChI": "InChI=1S/C20H22N4O4S3/c1-19(2,3)27-16(26)20(4,5)28-24-14(12-10-29-17(21)22-12)15(25)31-18-23-11-8-6-7-9-13(11)30-18/h6-10H,1-5H3,(H2,21,22)/b24-14-",
        "InChIKey": null,
        "Canonical SMILES": "O=C(SC1=NC=2C=CC=CC2S1)C(=NOC(C(=O)OC(C)(C)C)(C)C)C=3N=C(SC3)N",
        "Molecular Formula": "C<sub>20</sub>H<sub>22</sub>N<sub>4</sub>O<sub>4</sub>S<sub>3</sub>",
        "Molecular Mass": "478.61",
        "Melting Point": "139-140 °C"
    }
}