{
    "cas_no": "38762-41-3",
    "key_name": "4-Bromo-2-chloroaniline",
    "cn_name": "4-溴-2-氯苯胺;",
    "alternate_name": "Benzenamine, 4-bromo-2-chloro-;Aniline, 4-bromo-2-chloro-;4-Bromo-2-chlorobenzenamine;2-Chloro-4-bromoaniline;4-Bromo-2-chloroaniline;4-Bromo-2-chlorophenylamine",
    "duplicated_cas_no": "",
    "SMILES": "ClC1=C(N)C=CC(Br)=C1",
    "meta_data": {
        "InChI": "InChI=1S/C6H5BrClN/c7-4-1-2-6(9)5(8)3-4/h1-3H,9H2",
        "InChIKey": null,
        "Canonical SMILES": "ClC1=CC(Br)=CC=C1N",
        "Molecular Formula": "C<sub>6</sub>H<sub>5</sub>BrClN",
        "Molecular Mass": "206.47",
        "Melting Point": "70.5-72 °C"
    }
}