{
    "cas_no": "1172-76-5",
    "key_name": "1,2-Dimethyl-1,1,2,2-tetraphenyldisilane",
    "cn_name": null,
    "alternate_name": "Disilane, 1,2-dimethyl-1,1,2,2-tetraphenyl-;1,2-Dimethyl-1,1,2,2-tetraphenyldisilane;1,2-Dimethyltetraphenyldisilane",
    "duplicated_cas_no": "",
    "SMILES": "[Si]([Si](C)(C1=CC=CC=C1)C2=CC=CC=C2)(C)(C3=CC=CC=C3)C4=CC=CC=C4",
    "meta_data": {
        "InChI": "InChI=1S/C26H26Si2/c1-27(23-15-7-3-8-16-23,24-17-9-4-10-18-24)28(2,25-19-11-5-12-20-25)26-21-13-6-14-22-26/h3-22H,1-2H3",
        "InChIKey": null,
        "Canonical SMILES": "C=1C=CC(=CC1)[Si](C=2C=CC=CC2)(C)[Si](C=3C=CC=CC3)(C=4C=CC=CC4)C",
        "Molecular Formula": "C<sub>26</sub>H<sub>26</sub>Si<sub>2</sub>",
        "Molecular Mass": "394.66",
        "Melting Point": "142-144 °C"
    }
}