{
    "cas_no": "821-09-0",
    "key_name": "4-Penten-1-ol",
    "cn_name": "4-戊烯-1-醇;",
    "alternate_name": "4-Penten-1-ol;4-Pentenyl alcohol;4-Pentenol;5-Hydroxy-1-pentene;1-Penten-5-ol;1-Hydroxy-4-pentene;NSC 97503;Penta-4-ene-1-ol",
    "duplicated_cas_no": "",
    "SMILES": "C(CCO)C=C",
    "meta_data": {
        "InChI": "InChI=1S/C5H10O/c1-2-3-4-5-6/h2,6H,1,3-5H2",
        "InChIKey": null,
        "Canonical SMILES": "OCCCC=C",
        "Molecular Formula": "C<sub>5</sub>H<sub>10</sub>O",
        "Molecular Mass": "86.13",
        "Boiling Point": "141 °C",
        "Melting Point": "58-61 °C",
        "Density": "0.8457 g/cm³ @ Temp: 20 °C"
    }
}