{
    "cas_no": "5743-26-0",
    "key_name": "Calcium acetate monohydrate",
    "cn_name": "一水乙酸钙;醋酸钙(一水合物);",
    "alternate_name": "Acetic acid, calcium salt, monohydrate;Calcium acetate monohydrate;Calcium diacetate monohydrate",
    "duplicated_cas_no": "",
    "SMILES": "C(C)(O)=O.[Ca].O",
    "meta_data": {
        "InChI": "InChI=1S/C2H4O2.Ca.H2O/c1-2(3)4;;/h1H3,(H,3,4);;1H2",
        "InChIKey": null,
        "Canonical SMILES": "[Ca].O=C(O)C.O",
        "Molecular Formula": "C<sub>2</sub>H<sub>4</sub>O<sub>2</sub>.<sup>1</sup>/<sub>2</sub>Ca.<sup>1</sup>/<sub>2</sub>H<sub>2</sub>O",
        "Molecular Mass": "",
        "Melting Point": "160 °C (decomp)",
        "Density": "1.500 g/cm³"
    }
}