{
    "cas_no": "50-65-7",
    "key_name": "Niclosamide",
    "cn_name": null,
    "alternate_name": "Benzamide, 5-chloro-<em>N</em>-(2-chloro-4-nitrophenyl)-2-hydroxy-;Salicylanilide, 2′,5-dichloro-4′-nitro-;5-Chloro-<em>N</em>-(2-chloro-4-nitrophenyl)-2-hydroxybenzamide;Bayluscid;5-Chloro-2′-chloro-4′-nitrosalicylanilide;<em>N</em>-(2-Chloro-4-nitrophenyl)-5-chlorosalicylamide;2′,5-Dichloro-4′-nitrosalicylanilide;HL 2447;2-Hydroxy-5-chloro-<em>N</em>-(2-chloro-4-nitrophenyl)benzamide;Iomesan;Niclosamide;Phenasal;Vermitin;Yomesan;2-Chloro-4-nitrophenylamide-6-chlorosalicylic acid;Fenasal;<em>N</em>-(2′-Chloro-4′-nitrophenyl)-5-chlorosalicylamide;Mansonil;Radeverm;5-Chloro-<em>N</em>-(2′-chloro-4′-nitrophenyl)salicylamide;Bayer 2353;Lintex;Nasemo;Sulqui;Tredemine;Sagimid;Devermin;Devermine;Cestocid;Mato;Vermitid;Helmiantin;Fedal-Telmin;BAY 2353;Zestocarp;WR 46234;Utosamide;Niclocide;Cestocide;Ruby;NSC 178296;FW 1022;DWRX 2003;MeSH ID: D009534",
    "duplicated_cas_no": "12687-52-4",
    "SMILES": "C(NC1=C(Cl)C=C(N(=O)=O)C=C1)(=O)C2=C(O)C=CC(Cl)=C2",
    "meta_data": {
        "InChI": "InChI=1S/C13H8Cl2N2O4/c14-7-1-4-12(18)9(5-7)13(19)16-11-3-2-8(17(20)21)6-10(11)15/h1-6,18H,(H,16,19)",
        "InChIKey": null,
        "Canonical SMILES": "O=C(NC1=CC=C(C=C1Cl)N(=O)=O)C2=CC(Cl)=CC=C2O",
        "Molecular Formula": "C<sub>13</sub>H<sub>8</sub>Cl<sub>2</sub>N<sub>2</sub>O<sub>4</sub>",
        "Molecular Mass": "327.12",
        "Melting Point": "225-230 °C"
    }
}