{
    "cas_no": "649735-46-6",
    "key_name": "Brivanib",
    "cn_name": null,
    "alternate_name": "2-Propanol, 1-[[4-[(4-fluoro-2-methyl-1<em>H</em>-indol-5-yl)oxy]-5-methylpyrrolo[2,1-<em>f</em>][1,2,4]triazin-6-yl]oxy]-, (2<em>R</em>)-;(2<em>R</em>)-1-[[4-[(4-Fluoro-2-methyl-1<em>H</em>-indol-5-yl)oxy]-5-methylpyrrolo[2,1-<em>f</em>][1,2,4]triazin-6-yl]oxy]-2-propanol;BMS 540215;Brivanib;(2R)-1-[4-[(4-Fluoro-2-methyl-1<em>H</em>-indol-5-yl)oxy]-5-methylpyrrolo[2,1-<em>f</em>][1,2,4]triazin-6-yl]oxypropan-2-ol",
    "duplicated_cas_no": "",
    "SMILES": "O(C=1C=2N(C=C(OC[C@@H](C)O)C2C)N=CN1)C=3C(F)=C4C(=CC3)NC(C)=C4",
    "meta_data": {
        "InChI": "InChI=1S/C19H19FN4O3/c1-10-6-13-14(23-10)4-5-15(17(13)20)27-19-18-12(3)16(26-8-11(2)25)7-24(18)22-9-21-19/h4-7,9,11,23,25H,8H2,1-3H3/t11-/m1/s1",
        "InChIKey": null,
        "Canonical SMILES": "FC1=C(OC2=NC=NN3C=C(OCC(O)C)C(=C23)C)C=CC=4NC(=CC14)C",
        "Molecular Formula": "C<sub>19</sub>H<sub>19</sub>FN<sub>4</sub>O<sub>3</sub>",
        "Molecular Mass": "370.38",
        "Melting Point": "208-210 °C"
    }
}