{
    "cas_no": "130-01-8",
    "key_name": "(-)-Senecionine",
    "cn_name": null,
    "alternate_name": "[1,6]Dioxacyclododecino[2,3,4-<em>gh</em>]pyrrolizine-2,7-dione, 3-ethylidene-3,4,5,6,9,11,13,14,14a,14b-decahydro-6-hydroxy-5,6-dimethyl-, (3<em>Z</em>,5<em>R</em>,6<em>R</em>,14a<em>R</em>,14b<em>R</em>)-;Senecionine;Senecionan-11,16-dione, 12-hydroxy-;(3<em>Z</em>,5<em>R</em>,6<em>R</em>,14a<em>R</em>,14b<em>R</em>)-3-Ethylidene-3,4,5,6,9,11,13,14,14a,14b-decahydro-6-hydroxy-5,6-dimethyl[1,6]dioxacyclododecino[2,3,4-<em>gh</em>]pyrrolizine-2,7-dione;Aureine;Senecionin;(-)-Senecionine;[1,6]Dioxacyclododecino[2,3,4-<em>gh</em>]pyrrolizine-2,7-dione, 3-ethylidene-3,4,5,6,9,11,13,14,14a,14b-decahydro-6-hydroxy-5,6-dimethyl-, [5<em>R</em>-(3<em>Z</em>,5<em>R</em>*,6<em>R</em>*,14a<em>R</em>*,14b<em>R</em>*)]-;NSC 89935",
    "duplicated_cas_no": "11002-70-3;11024-76-3",
    "SMILES": "O=C/1O[C@]2([C@@]3(N(CC2)CC=C3COC(=O)[C@](C)(O)[C@H](C)C\\C1=C\\C)[H])[H]",
    "meta_data": {
        "InChI": "InChI=1S/C18H25NO5/c1-4-12-9-11(2)18(3,22)17(21)23-10-13-5-7-19-8-6-14(15(13)19)24-16(12)20/h4-5,11,14-15,22H,6-10H2,1-3H3/b12-4-/t11-,14-,15-,18-/m1/s1",
        "InChIKey": null,
        "Canonical SMILES": "O=C1OC2CCN3CC=C(COC(=O)C(O)(C)C(C)CC1=CC)C32",
        "Molecular Formula": "C<sub>18</sub>H<sub>25</sub>NO<sub>5</sub>",
        "Molecular Mass": "335.39",
        "Melting Point": "236 °C",
        "Density": "1.266 g/cm³"
    }
}