{
    "cas_no": "934-53-2",
    "key_name": "(1-Chloro-1-methylethyl)benzene",
    "cn_name": null,
    "alternate_name": "Benzene, (1-chloro-1-methylethyl)-;Cumene, α-chloro-;(1-Chloro-1-methylethyl)benzene;2-Chloro-2-phenylpropane;Chlorodimethylphenylmethane;α-Cumyl chloride;α-Chlorocumene;2-Phenyl-2-propyl chloride;α,α-Dimethylbenzyl chloride;<em>tert</em>-Cumyl chloride;Phenyldimethylcarbinyl chloride;(1-Methyl-1-chloroethyl)benzene;2-Phenyl-2-chloropropane;(2-Chloroprop-2-yl)benzene;(2-Chloropropan-2-yl)benzene;2-Chloropropan-2-ylbenzene",
    "duplicated_cas_no": "",
    "SMILES": "C(C)(C)(Cl)C1=CC=CC=C1",
    "meta_data": {
        "InChI": "InChI=1S/C9H11Cl/c1-9(2,10)8-6-4-3-5-7-8/h3-7H,1-2H3",
        "InChIKey": null,
        "Canonical SMILES": "ClC(C=1C=CC=CC1)(C)C",
        "Molecular Formula": "C<sub>9</sub>H<sub>11</sub>Cl",
        "Molecular Mass": "154.64",
        "Boiling Point": "56-58 °C @ Press: 1.5 Torr",
        "Density": "1.04 g/cm³ @ Temp: 18 °C"
    }
}