{
    "cas_no": "128345-57-3",
    "key_name": "(-)-3-Aminopyrrolidine",
    "cn_name": "(S)-3-氨基吡咯烷;",
    "alternate_name": "3-Pyrrolidinamine, (3<em>S</em>)-;3-Pyrrolidinamine, (<em>S</em>)-;(3<em>S</em>)-3-Pyrrolidinamine;(3<em>S</em>)-(-)-3-Aminopyrrolidine;(<em>S</em>)-3-Aminopyrrolidine;(3<em>S</em>)-Aminopyrrolidine;(3<em>S</em>)-3-Aminopyrrolidine;(-)-3-Aminopyrrolidine;(<em>S</em>)-(-)-3-Aminopyrrolidine;(<em>S</em>)-Pyrrolidin-3-amine;(3S)-Pyrrolidin-3-amine;3-Pyrrolidinamine (3S)-",
    "duplicated_cas_no": "710939-90-5",
    "SMILES": "N[C@H]1CCNC1",
    "meta_data": {
        "InChI": "InChI=1S/C4H10N2/c5-4-1-2-6-3-4/h4,6H,1-3,5H2/t4-/m0/s1",
        "InChIKey": null,
        "Canonical SMILES": "NC1CNCC1",
        "Molecular Formula": "C<sub>4</sub>H<sub>10</sub>N<sub>2</sub>",
        "Molecular Mass": "86.14",
        "Boiling Point": "80-83 °C @ Press: 300 Torr"
    }
}