{
    "cas_no": "15151-57-2",
    "key_name": "4-Hydroxy-3-nitro-2(1<em>H</em>)-quinolinone",
    "cn_name": null,
    "alternate_name": "2(1<em>H</em>)-Quinolinone, 4-hydroxy-3-nitro-;2,4-Quinolinediol, 3-nitro-;4-Hydroxy-3-nitro-2(1<em>H</em>)-quinolinone;3-Nitro-2,4-quinolinediol;2,4-Dihydroxy-3-nitroquinoline",
    "duplicated_cas_no": "",
    "SMILES": "OC=1C=2C(NC(=O)C1N(=O)=O)=CC=CC2",
    "meta_data": {
        "InChI": "InChI=1S/C9H6N2O4/c12-8-5-3-1-2-4-6(5)10-9(13)7(8)11(14)15/h1-4H,(H2,10,12,13)",
        "InChIKey": null,
        "Canonical SMILES": "O=C1NC=2C=CC=CC2C(O)=C1N(=O)=O",
        "Molecular Formula": "C<sub>9</sub>H<sub>6</sub>N<sub>2</sub>O<sub>4</sub>",
        "Molecular Mass": "206.15",
        "Melting Point": "225 °C (decomp)"
    }
}