{
    "cas_no": "98-83-9",
    "key_name": "α-Methylstyrene",
    "cn_name": "2-苯基-1-丙烯;alpha-甲基苯乙烯;苯基异丙烯;",
    "alternate_name": "Benzene, (1-methylethenyl)-;Styrene, α-methyl-;Benzene, isopropenyl-;(1-Methylethenyl)benzene;Isopropenylbenzene;α-Methylstyrene;β-Phenylpropylene;1-Propene, 2-phenyl-;α-Methylstyrol;1-Methyl-1-phenylethylene;1-Phenyl-1-methylethylene;2-Phenylpropene;2-Phenyl-1-propene;2-Phenyl-2-propene;Methylstyrene;1-Methyl-1-phenylethene;1-Methylvinyl benzene;NSC 9400;α-Methylvinylbenzene;2-Phenylpropylene;2-Phenyl-1-propylene;Prop-1-en-2-ylbenzene;K 150 (styrene)",
    "duplicated_cas_no": "2256721-46-5",
    "SMILES": "C(C)(=C)C1=CC=CC=C1",
    "meta_data": {
        "InChI": "InChI=1S/C9H10/c1-8(2)9-6-4-3-5-7-9/h3-7H,1H2,2H3",
        "InChIKey": null,
        "Canonical SMILES": "C=C(C=1C=CC=CC1)C",
        "Molecular Formula": "C<sub>9</sub>H<sub>10</sub>",
        "Molecular Mass": "118.18",
        "Boiling Point": "165.4 °C",
        "Melting Point": "-23.2 °C",
        "Density": "0.9106 g/cm³"
    }
}