{
    "cas_no": "36791-04-5",
    "key_name": "Ribavirin",
    "cn_name": "利巴韦林;1-beta-D-呋喃核糖基-1H-1,2,4,-三氮唑-3-羧酰胺;",
    "alternate_name": "1<em>H</em>-1,2,4-Triazole-3-carboxamide, 1-β-<span class=\"text-smallcaps\">D</span>-ribofuranosyl-;1-β-<span class=\"text-smallcaps\">D</span>-Ribofuranosyl-1<em>H</em>-1,2,4-triazole-3-carboxamide;Virazole;1-β-<span class=\"text-smallcaps\">D</span>-Ribofuranosyl-1,2,4-triazole-3-carboxamide;ICN 1229;Ribavirin;Viramid;1-β-<span class=\"text-smallcaps\">D</span>-Ribofuranosyl-1,2,4-triazol-3-carboxyamide;NSC 163039;Vilona;Ribamide;Ribamidil;Tribavirin;Rebetol;Ribavarin;Ravanex;Copegus;Ribasphere;Virizadole;MegaRibavirin;EBP 954;Meduna;Virin;1-[(2R,3R,4S,5R)-3,4-Dihydroxy-5-(hydroxymethyl)oxolan-2-yl]-1<em>H</em>-1,2,4-triazole-3-carboxamide;Cotronak;MeSH ID: D012254",
    "duplicated_cas_no": "66510-90-5;437710-49-1",
    "SMILES": "O[C@H]1[C@@H](O[C@H](CO)[C@H]1O)N2N=C(C(N)=O)N=C2",
    "meta_data": {
        "InChI": "InChI=1S/C8H12N4O5/c9-6(16)7-10-2-12(11-7)8-5(15)4(14)3(1-13)17-8/h2-5,8,13-15H,1H2,(H2,9,16)/t3-,4-,5-,8-/m1/s1",
        "InChIKey": null,
        "Canonical SMILES": "O=C(N)C=1N=CN(N1)C2OC(CO)C(O)C2O",
        "Molecular Formula": "C<sub>8</sub>H<sub>12</sub>N<sub>4</sub>O<sub>5</sub>",
        "Molecular Mass": "244.20",
        "Melting Point": "166-168 °C"
    }
}