{
    "cas_no": "106615-61-6",
    "key_name": "5-Fluoro-6-hydroxy-4(3<em>H</em>)-pyrimidinone",
    "cn_name": "5-氟-4,-二羟基嘧啶;4,6-二羟基-5-氟嘧啶;",
    "alternate_name": "4(3<em>H</em>)-Pyrimidinone, 5-fluoro-6-hydroxy-;4(1<em>H</em>)-Pyrimidinone, 5-fluoro-6-hydroxy-;5-Fluoro-6-hydroxy-4(3<em>H</em>)-pyrimidinone;4,6-Dihydroxy-5-fluoropyrimidine",
    "duplicated_cas_no": "",
    "SMILES": "FC=1C(=O)NC=NC1O",
    "meta_data": {
        "InChI": "InChI=1S/C4H3FN2O2/c5-2-3(8)6-1-7-4(2)9/h1H,(H2,6,7,8,9)",
        "InChIKey": null,
        "Canonical SMILES": "O=C1NC=NC(O)=C1F",
        "Molecular Formula": "C<sub>4</sub>H<sub>3</sub>FN<sub>2</sub>O<sub>2</sub>",
        "Molecular Mass": "130.08",
        "Melting Point": "&gt;300 °C"
    }
}