{
    "cas_no": "7605-28-9",
    "key_name": "(Phenylsulfonyl)acetonitrile",
    "cn_name": "苯磺酰乙腈;",
    "alternate_name": "Acetonitrile, 2-(phenylsulfonyl)-;Acetonitrile, (phenylsulfonyl)-;2-(Phenylsulfonyl)acetonitrile;Cyano(phenylsulfonyl)methane;(Phenylsulfonyl)acetonitrile;(Benzenesulfonyl)acetonitrile;Cyanomethyl phenyl sulfone;NSC 51007;2-(Benzenesulfonyl)acetonitrile",
    "duplicated_cas_no": "65950-77-8",
    "SMILES": "S(CC#N)(=O)(=O)C1=CC=CC=C1",
    "meta_data": {
        "InChI": "InChI=1S/C8H7NO2S/c9-6-7-12(10,11)8-4-2-1-3-5-8/h1-5H,7H2",
        "InChIKey": null,
        "Canonical SMILES": "N#CCS(=O)(=O)C=1C=CC=CC1",
        "Molecular Formula": "C<sub>8</sub>H<sub>7</sub>NO<sub>2</sub>S",
        "Molecular Mass": "181.21",
        "Melting Point": "112.5-113.0 °C"
    }
}