{
    "cas_no": "67868-73-9",
    "key_name": "4-Bromo-2-methoxy-1-methylbenzene",
    "cn_name": null,
    "alternate_name": "Benzene, 4-bromo-2-methoxy-1-methyl-;4-Bromo-2-methoxy-1-methylbenzene;5-Bromo-2-methylanisole;4-Bromo-2-methoxytoluene;3-Bromo-6-methylanisole;2-Methoxy-4-bromotoluene;3-Methoxy-4-methylphenyl bromide;2-Methyl-5-bromoanisole;1-Bromo-3-methoxy-4-methylbenzene",
    "duplicated_cas_no": "",
    "SMILES": "O(C)C1=C(C)C=CC(Br)=C1",
    "meta_data": {
        "InChI": "InChI=1S/C8H9BrO/c1-6-3-4-7(9)5-8(6)10-2/h3-5H,1-2H3",
        "InChIKey": null,
        "Canonical SMILES": "BrC1=CC=C(C(OC)=C1)C",
        "Molecular Formula": "C<sub>8</sub>H<sub>9</sub>BrO",
        "Molecular Mass": "201.06",
        "Boiling Point": "108 °C @ Press: 15 Torr",
        "Melting Point": "144-145 °C"
    }
}