{
    "cas_no": "16110-51-3",
    "key_name": "Cromolyn",
    "cn_name": "色甘酸;",
    "alternate_name": "4<em>H</em>-1-Benzopyran-2-carboxylic acid, 5,5′-[(2-hydroxy-1,3-propanediyl)bis(oxy)]bis[4-oxo-;4<em>H</em>-1-Benzopyran-2-carboxylic acid, 5,5′-[(2-hydroxytrimethylene)dioxy]bis[4-oxo-;5,5′-[(2-Hydroxy-1,3-propanediyl)bis(oxy)]bis[4-oxo-4<em>H</em>-1-benzopyran-2-carboxylic acid];Cromoglicic acid;5,5′-(2-Hydroxytrimethylenedioxy)bis[4-oxo-4<em>H</em>-1-benzopyran-2-carboxylic acid];Cromoglycic acid;Cromolyn;5,5′-(2-Hydroxy-1,3-propanediyldioxy)bis(4-oxo-4<em>H</em>-1-benzopyran-2-carboxylic acid);5,5′-(2-Hydroxytrimethylenedioxy)bis(4-oxochromene-2-carboxylic acid);1,3-Bis(2-carboxychromon-5-yloxy)-2-hydroxypropane;1,3-Di(2-carboxy-4-oxochromen-5-yloxy)propan-2-ol;1,3-Bis(2-carboxychromon-5-yloxy)propan-2-ol;Duracroman;1,3-Bis(2-carboxychromone-7-yloxy)-2-hydroxypropane;TS 277",
    "duplicated_cas_no": "40737-89-1",
    "SMILES": "O(CC(COC1=C2C(OC(C(O)=O)=CC2=O)=CC=C1)O)C3=C4C(OC(C(O)=O)=CC4=O)=CC=C3",
    "meta_data": {
        "InChI": "InChI=1S/C23H16O11/c24-11(9-31-14-3-1-5-16-20(14)12(25)7-18(33-16)22(27)28)10-32-15-4-2-6-17-21(15)13(26)8-19(34-17)23(29)30/h1-8,11,24H,9-10H2,(H,27,28)(H,29,30)",
        "InChIKey": null,
        "Canonical SMILES": "O=C(O)C=1OC2=CC=CC(OCC(O)COC=3C=CC=C4OC(=CC(=O)C43)C(=O)O)=C2C(=O)C1",
        "Molecular Formula": "C<sub>23</sub>H<sub>16</sub>O<sub>11</sub>",
        "Molecular Mass": "468.37",
        "Melting Point": "241-242 °C (decomp)"
    }
}