{
    "cas_no": "4112-89-4",
    "key_name": "2-Methoxyphenyl benzeneacetate",
    "cn_name": "苯乙酸-2-甲氧基苯酯;",
    "alternate_name": "Benzeneacetic acid, 2-methoxyphenyl ester;Acetic acid, phenyl-, <em>o</em>-methoxyphenyl ester;2-Methoxyphenyl benzeneacetate;Guaiacyl phenylacetate;Guaiafenolo;Gujaphenyl;Gu-Nyl;2-Methoxyphenyl phenylacetate;Guaiacol phenylacetate",
    "duplicated_cas_no": "",
    "SMILES": "O(C(CC1=CC=CC=C1)=O)C2=C(OC)C=CC=C2",
    "meta_data": {
        "InChI": "InChI=1S/C15H14O3/c1-17-13-9-5-6-10-14(13)18-15(16)11-12-7-3-2-4-8-12/h2-10H,11H2,1H3",
        "InChIKey": null,
        "Canonical SMILES": "O=C(OC=1C=CC=CC1OC)CC=2C=CC=CC2",
        "Molecular Formula": "C<sub>15</sub>H<sub>14</sub>O<sub>3</sub>",
        "Molecular Mass": "242.27",
        "Melting Point": "32 °C",
        "Density": "1.136 g/cm³"
    }
}