{
    "cas_no": "26750-81-2",
    "key_name": "Alibendol",
    "cn_name": "阿利苯多;2-羟基-N-(2-羟乙基)-3-甲氧基-5-(2-丙烯基)苯甲酰胺;",
    "alternate_name": "Benzamide, 2-hydroxy-<em>N</em>-(2-hydroxyethyl)-3-methoxy-5-(2-propen-1-yl)-;<em>m</em>-Anisamide, 5-allyl-2-hydroxy-<em>N</em>-(2-hydroxyethyl)-;Benzamide, 2-hydroxy-<em>N</em>-(2-hydroxyethyl)-3-methoxy-5-(2-propenyl)-;2-Hydroxy-<em>N</em>-(2-hydroxyethyl)-3-methoxy-5-(2-propen-1-yl)benzamide;5-Allyl-2-hydroxy-3-methoxy-<em>N</em>-(β-hydroxyethyl)benzamide;2-Hydroxy-3-methoxy-5-allyl-<em>N</em>-(β-hydroxyethyl)benzamide;Alibendol;FC 54;EB 1856;Cebera;H 3774;2-Hydroxy-<em>N</em>-(2-hydroxyethyl)-3-methoxy-5-prop-2-enylbenzamide",
    "duplicated_cas_no": "",
    "SMILES": "C(NCCO)(=O)C1=C(O)C(OC)=CC(CC=C)=C1",
    "meta_data": {
        "InChI": "InChI=1S/C13H17NO4/c1-3-4-9-7-10(13(17)14-5-6-15)12(16)11(8-9)18-2/h3,7-8,15-16H,1,4-6H2,2H3,(H,14,17)",
        "InChIKey": null,
        "Canonical SMILES": "O=C(NCCO)C1=CC(=CC(OC)=C1O)CC=C",
        "Molecular Formula": "C<sub>13</sub>H<sub>17</sub>NO<sub>4</sub>",
        "Molecular Mass": "251.28",
        "Melting Point": "95 °C"
    }
}