{
    "cas_no": "3777-69-3",
    "key_name": "2-Pentylfuran",
    "cn_name": "2-正戊基呋喃;2-戊基呋喃;",
    "alternate_name": "Furan, 2-pentyl-;2-Pentylfuran;2-<em>n</em>-Pentylfuran;2-Amylfuran;Dihydro-5-pentyl-2(hydro)-furan",
    "duplicated_cas_no": "",
    "SMILES": "C(CCCC)C1=CC=CO1",
    "meta_data": {
        "InChI": "InChI=1S/C9H14O/c1-2-3-4-6-9-7-5-8-10-9/h5,7-8H,2-4,6H2,1H3",
        "InChIKey": null,
        "Canonical SMILES": "O1C=CC=C1CCCCC",
        "Molecular Formula": "C<sub>9</sub>H<sub>14</sub>O",
        "Molecular Mass": "138.21",
        "Boiling Point": "64-65 °C @ Press: 20.5 Torr",
        "Density": "0.838 g/cm³ @ Temp: 19 °C"
    }
}