{
    "cas_no": "485-61-0",
    "key_name": "Graveoline",
    "cn_name": null,
    "alternate_name": "4(1<em>H</em>)-Quinolinone, 2-(1,3-benzodioxol-5-yl)-1-methyl-;4(1<em>H</em>)-Quinolone, 1-methyl-2-[3,4-(methylenedioxy)phenyl]-;2-(1,3-Benzodioxol-5-yl)-1-methyl-4(1<em>H</em>)-quinolinone;Graveoline;Rutamine;Graveolin;NSC 603064;2-(1,3-Benzodioxol-5-yl)-1-methylquinolin-4-one",
    "duplicated_cas_no": "",
    "SMILES": "CN1C(=CC(=O)C=2C1=CC=CC2)C=3C=C4C(=CC3)OCO4",
    "meta_data": {
        "InChI": "InChI=1S/C17H13NO3/c1-18-13-5-3-2-4-12(13)15(19)9-14(18)11-6-7-16-17(8-11)21-10-20-16/h2-9H,10H2,1H3",
        "InChIKey": null,
        "Canonical SMILES": "O=C1C=C(C=2C=CC=3OCOC3C2)N(C=4C=CC=CC14)C",
        "Molecular Formula": "C<sub>17</sub>H<sub>13</sub>NO<sub>3</sub>",
        "Molecular Mass": "279.29",
        "Melting Point": "204-205 °C"
    }
}