{
    "cas_no": "27639-98-1",
    "key_name": "2,3,3,3-Tetrafluoro-2-[1,1,2,3,3,3-hexafluoro-2-[1,1,2,3,3,3-hexafluoro-2-(1,1,2,2,3,3,3-heptafluoropropoxy)propoxy]propoxy]propanoyl fluoride",
    "cn_name": "全氟-2,5,8-三甲基-3,6,9-三氧杂十二酰氟;",
    "alternate_name": "Propanoyl fluoride, 2,3,3,3-tetrafluoro-2-[1,1,2,3,3,3-hexafluoro-2-[1,1,2,3,3,3-hexafluoro-2-(1,1,2,2,3,3,3-heptafluoropropoxy)propoxy]propoxy]-;Propionyl fluoride, tetrafluoro-2-[hexafluoro-2-[hexafluoro-2-(heptafluoropropoxy)propoxy]propoxy]-;Propanoyl fluoride, 2,3,3,3-tetrafluoro-2-[1,1,2,3,3,3-hexafluoro-2-[1,1,2,3,3,3-hexafluoro-2-(heptafluoropropoxy)propoxy]propoxy]-;2,3,3,3-Tetrafluoro-2-[1,1,2,3,3,3-hexafluoro-2-[1,1,2,3,3,3-hexafluoro-2-(1,1,2,2,3,3,3-heptafluoropropoxy)propoxy]propoxy]propanoyl fluoride;Perfluoro(2,5,8-trimethyl-3,6,9-trioxadodecanoyl) fluoride;Perfluoro-2,5,8-trimethyl-3,6,9-trioxolauroyl fluoride",
    "duplicated_cas_no": "",
    "SMILES": "C(C(OC(C(OC(C(F)(F)F)(C(F)=O)F)(F)F)(C(F)(F)F)F)(F)F)(OC(C(C(F)(F)F)(F)F)(F)F)(C(F)(F)F)F",
    "meta_data": {
        "InChI": "InChI=1S/C12F24O4/c13-1(37)2(14,6(19,20)21)38-11(33,34)4(17,8(25,26)27)40-12(35,36)5(18,9(28,29)30)39-10(31,32)3(15,16)7(22,23)24",
        "InChIKey": null,
        "Canonical SMILES": "O=C(F)C(F)(OC(F)(F)C(F)(OC(F)(F)C(F)(OC(F)(F)C(F)(F)C(F)(F)F)C(F)(F)F)C(F)(F)F)C(F)(F)F",
        "Molecular Formula": "C<sub>12</sub>F<sub>24</sub>O<sub>4</sub>",
        "Molecular Mass": "664.09",
        "Boiling Point": "114-116 °C @ Press: 760 Torr"
    }
}