{
    "cas_no": "1070-71-9",
    "key_name": "2-Propynenitrile",
    "cn_name": null,
    "alternate_name": "2-Propynenitrile;Propiolonitrile;Cyanoacetylene;Propynenitrile;Cyanoethyne;Monocyanoacetylene",
    "duplicated_cas_no": "",
    "SMILES": "C(C#N)#C",
    "meta_data": {
        "InChI": "InChI=1S/C3HN/c1-2-3-4/h1H",
        "InChIKey": null,
        "Canonical SMILES": "N#CC#C",
        "Molecular Formula": "C<sub>3</sub>HN",
        "Molecular Mass": "51.05",
        "Boiling Point": "42.5 °C @ Press: 760 Torr",
        "Melting Point": "5 °C",
        "Density": "0.8159 g/cm³ @ Temp: 17 °C"
    }
}