{
    "cas_no": "395-82-4",
    "key_name": "4-Fluoro-2-methoxybenzoic acid",
    "cn_name": "4-氟-2-甲氧基苯甲酸;",
    "alternate_name": "Benzoic acid, 4-fluoro-2-methoxy-;4-Fluoro-2-methoxybenzoic acid",
    "duplicated_cas_no": "",
    "SMILES": "O(C)C1=C(C(O)=O)C=CC(F)=C1",
    "meta_data": {
        "InChI": "InChI=1S/C8H7FO3/c1-12-7-4-5(9)2-3-6(7)8(10)11/h2-4H,1H3,(H,10,11)",
        "InChIKey": null,
        "Canonical SMILES": "O=C(O)C1=CC=C(F)C=C1OC",
        "Molecular Formula": "C<sub>8</sub>H<sub>7</sub>FO<sub>3</sub>",
        "Molecular Mass": "170.14",
        "Boiling Point": "93 °C @ Press: 10 Torr",
        "Melting Point": "136 °C"
    }
}