{
    "cas_no": "58366-64-6",
    "key_name": "2(1<em>H</em>)-Pyrimidinone, 6-amino-5-methyl-, hydrochloride (1:1)",
    "cn_name": "5-甲基胞嘧啶盐酸盐;",
    "alternate_name": "2(1<em>H</em>)-Pyrimidinone, 6-amino-5-methyl-, hydrochloride (1:1);2(1<em>H</em>)-Pyrimidinone, 4-amino-5-methyl-, monohydrochloride;Cytosine, 5-methyl-, hydrochloride;5-Methylcytosine hydrochloride",
    "duplicated_cas_no": "86018-08-8",
    "SMILES": "NC1=C(C)C=NC(=O)N1.Cl",
    "meta_data": {
        "InChI": "InChI=1S/C5H7N3O.ClH/c1-3-2-7-5(9)8-4(3)6;/h2H,1H3,(H3,6,7,8,9);1H",
        "InChIKey": null,
        "Canonical SMILES": "Cl.O=C1N=CC(=C(N)N1)C",
        "Molecular Formula": "C<sub>5</sub>H<sub>7</sub>N<sub>3</sub>O.ClH",
        "Molecular Mass": "",
        "Melting Point": "299-301 °C"
    }
}