{
    "cas_no": "123-08-0",
    "key_name": "4-Hydroxybenzaldehyde",
    "cn_name": "对羟基苯甲醛;4-羟基苯甲醛;",
    "alternate_name": "Benzaldehyde, 4-hydroxy-;Benzaldehyde, <em>p</em>-hydroxy-;4-Hydroxybenzaldehyde;4-Formylphenol;<em>p</em>-Formylphenol;<em>p</em>-Oxybenzaldehyde;Parahydroxybenzaldehyde;<em>p</em>-Hydroxybenzaldehyde;NSC 2127",
    "duplicated_cas_no": "1187488-60-3",
    "SMILES": "C(=O)C1=CC=C(O)C=C1",
    "meta_data": {
        "InChI": "InChI=1S/C7H6O2/c8-5-6-1-3-7(9)4-2-6/h1-5,9H",
        "InChIKey": null,
        "Canonical SMILES": "O=CC1=CC=C(O)C=C1",
        "Molecular Formula": "C<sub>7</sub>H<sub>6</sub>O<sub>2</sub>",
        "Molecular Mass": "122.12",
        "Boiling Point": "310 °C",
        "Melting Point": "117 °C",
        "Density": "1.1364 g/cm³ @ Temp: 119.6 °C"
    }
}