{
    "cas_no": "599-69-9",
    "key_name": "<em>N</em>,<em>N</em>-Dimethyl-<em>p</em>-toluenesulfonamide",
    "cn_name": null,
    "alternate_name": "Benzenesulfonamide, <em>N</em>,<em>N</em>,4-trimethyl-;<em>p</em>-Toluenesulfonamide, <em>N</em>,<em>N</em>-dimethyl-;<em>N</em>,<em>N</em>,4-Trimethylbenzenesulfonamide;<em>N</em>,<em>N</em>-Dimethyl-<em>p</em>-toluenesulfonamide;<em>N</em>,<em>N</em>-Dimethyl-4-toluenesulfonamide;<em>N</em>,<em>N</em>-Dimethyltosylamide;NSC 2229",
    "duplicated_cas_no": "",
    "SMILES": "S(N(C)C)(=O)(=O)C1=CC=C(C)C=C1",
    "meta_data": {
        "InChI": "InChI=1S/C9H13NO2S/c1-8-4-6-9(7-5-8)13(11,12)10(2)3/h4-7H,1-3H3",
        "InChIKey": null,
        "Canonical SMILES": "O=S(=O)(C1=CC=C(C=C1)C)N(C)C",
        "Molecular Formula": "C<sub>9</sub>H<sub>13</sub>NO<sub>2</sub>S",
        "Molecular Mass": "199.27",
        "Boiling Point": "135-137 °C @ Press: 0.1 Torr",
        "Melting Point": "86-87 °C"
    }
}