{
    "cas_no": "29605-88-7",
    "key_name": "Allethrolone",
    "cn_name": "2-丙烯基-3-甲基-4-羟基-2-环戊烯-1-酮;",
    "alternate_name": "2-Cyclopenten-1-one, 4-hydroxy-3-methyl-2-(2-propen-1-yl)-;2-Cyclopenten-1-one, 2-allyl-4-hydroxy-3-methyl-, (±)-;2-Cyclopenten-1-one, 4-hydroxy-3-methyl-2-(2-propenyl)-, (±)-;2-Cyclopenten-1-one, 4-hydroxy-3-methyl-2-(2-propenyl)-;4-Hydroxy-3-methyl-2-(2-propen-1-yl)-2-cyclopenten-1-one;<em>dl</em>-Allethrolone;(±)-Allethrolone;Allethrolone;(<em>RS</em>)-Allethrolone;(<em>RS</em>)-4-Hydroxy-3-methyl-2-(2-propenyl)-2-cyclopenten-1-one;2-Allyl-3-methyl-2-cyclopenten-1-on-4-ol;2-Allyl-4-hydroxy-3-methyl-2-cyclopenten-1-one;(±)-ALON;4-Hydroxy-3-methyl-2-(2-propenyl)-2-cyclopenten-1-one;NSC 42192",
    "duplicated_cas_no": "551-45-1",
    "SMILES": "C(C=C)C1=C(C)C(O)CC1=O",
    "meta_data": {
        "InChI": "InChI=1S/C9H12O2/c1-3-4-7-6(2)8(10)5-9(7)11/h3,8,10H,1,4-5H2,2H3",
        "InChIKey": null,
        "Canonical SMILES": "O=C1C(=C(C)C(O)C1)CC=C",
        "Molecular Formula": "C<sub>9</sub>H<sub>12</sub>O<sub>2</sub>",
        "Molecular Mass": "152.19",
        "Boiling Point": "100-103 °C @ Press: 0.15 Torr"
    }
}