{
    "cas_no": "17949-65-4",
    "key_name": "Zinc picolinate",
    "cn_name": "2-吡啶甲酸锌;",
    "alternate_name": "Zinc, bis(2-pyridinecarboxylato-κ<em>N</em><sup>1</sup>,κ<em>O</em><sup>2</sup>)-, (<em>T</em>-4)-;Zinc, bis(2-pyridinecarboxylato-<em>N</em><sup>1</sup>,<em>O</em><sup>2</sup>)-, (<em>T</em>-4)-;Zinc, bis(picolinato)-;Picolinic acid, zinc complex;2-Pyridinecarboxylic acid, zinc complex;(<em>T</em>-4)-Bis(2-pyridinecarboxylato-κ<em>N</em><sup>1</sup>,κ<em>O</em><sup>2</sup>)zinc;Zinc picolinate;Bis(picolinato)zinc",
    "duplicated_cas_no": "",
    "SMILES": "O=C1[O-][Zn+2]2([N]=3C(C(=O)[O-]2)=CC=CC3)[N]=4C1=CC=CC4",
    "meta_data": {
        "InChI": "InChI=1S/2C6H5NO2.Zn/c2*8-6(9)5-3-1-2-4-7-5;/h2*1-4H,(H,8,9);/q;;+2/p-2",
        "InChIKey": null,
        "Canonical SMILES": "O=C1[O-][Zn+2]2([O-]C(=O)C=3C=CC=C[N]32)[N]=4C=CC=CC14",
        "Molecular Formula": "C<sub>12</sub>H<sub>8</sub>N<sub>2</sub>O<sub>4</sub>Zn",
        "Molecular Mass": "",
        "Melting Point": "222-225 °C (decomp)"
    }
}