{
    "cas_no": "10344-69-1",
    "key_name": "Propanediimidic acid, 1,3-diethyl ester, hydrochloride (1:2)",
    "cn_name": null,
    "alternate_name": "Propanediimidic acid, 1,3-diethyl ester, hydrochloride (1:2);Propanediimidic acid, diethyl ester, dihydrochloride;Malonimidic acid, diethyl ester, dihydrochloride;Diethyl malonimidate dihydrochloride",
    "duplicated_cas_no": "",
    "SMILES": "C(CC(OCC)=N)(OCC)=N.Cl",
    "meta_data": {
        "InChI": "InChI=1S/C7H14N2O2.2ClH/c1-3-10-6(8)5-7(9)11-4-2;;/h8-9H,3-5H2,1-2H3;2*1H",
        "InChIKey": null,
        "Canonical SMILES": "Cl.N=C(OCC)CC(=N)OCC",
        "Molecular Formula": "C<sub>7</sub>H<sub>14</sub>N<sub>2</sub>O<sub>2</sub>.2ClH",
        "Molecular Mass": "",
        "Melting Point": "130-138 °C"
    }
}