{
    "cas_no": "34101-86-5",
    "key_name": "1,2-Bis(3,4-dimethylphenyl)ethane",
    "cn_name": "1,2-二(3,4-甲酯)乙烷;",
    "alternate_name": "Benzene, 1,1′-(1,2-ethanediyl)bis[3,4-dimethyl-;Bibenzyl, 3,3′,4,4′-tetramethyl-;1,1′-(1,2-Ethanediyl)bis[3,4-dimethylbenzene];3,3′,4,4′-Tetramethyldiphenyl-1,2-ethane;3,3′,4,4′-Tetramethylbibenzyl;3,3′,4,4′-Tetramethyldiphenylethane;1,2-Bis(3,4-dimethylphenyl)ethane;1,2-Bis(3′,4′-dimethylphenyl)ethane",
    "duplicated_cas_no": "",
    "SMILES": "C(CC1=CC(C)=C(C)C=C1)C2=CC(C)=C(C)C=C2",
    "meta_data": {
        "InChI": "InChI=1S/C18H22/c1-13-5-7-17(11-15(13)3)9-10-18-8-6-14(2)16(4)12-18/h5-8,11-12H,9-10H2,1-4H3",
        "InChIKey": null,
        "Canonical SMILES": "C=1C=C(C(=CC1CCC2=CC=C(C(=C2)C)C)C)C",
        "Molecular Formula": "C<sub>18</sub>H<sub>22</sub>",
        "Molecular Mass": "238.37",
        "Boiling Point": "170-185 °C @ Press: 15 Torr",
        "Melting Point": "112-112.5 °C"
    }
}