{
    "cas_no": "306-67-2",
    "key_name": "Spermine tetrahydrochloride",
    "cn_name": null,
    "alternate_name": "1,4-Butanediamine, <em>N</em><sup>1</sup>,<em>N</em><sup>4</sup>-bis(3-aminopropyl)-, hydrochloride (1:4);1,4-Butanediamine, <em>N</em>,<em>N</em>′-bis(3-aminopropyl)-, tetrahydrochloride;Spermine hydrochloride;Spermine tetrahydrochloride;<em>N</em>,<em>N</em>′-Bis(3-aminopropyl)-1,4-butanediamine tetrahydrochloride;1,5,10,14-Tetraazoniatetradecane tetrachloride",
    "duplicated_cas_no": "",
    "SMILES": "C(CCNCCCN)CNCCCN.Cl",
    "meta_data": {
        "InChI": "InChI=1S/C10H26N4.4ClH/c11-5-3-9-13-7-1-2-8-14-10-4-6-12;;;;/h13-14H,1-12H2;4*1H",
        "InChIKey": null,
        "Canonical SMILES": "Cl.NCCCNCCCCNCCCN",
        "Molecular Formula": "C<sub>10</sub>H<sub>26</sub>N<sub>4</sub>.4ClH",
        "Molecular Mass": "",
        "Melting Point": "310-311 °C (decomp)"
    }
}