{
    "cas_no": "17464-88-9",
    "key_name": "MX 270",
    "cn_name": "四甲氧甲基甘脲;",
    "alternate_name": "Imidazo[4,5-<em>d</em>]imidazole-2,5(1<em>H</em>,3<em>H</em>)-dione, tetrahydro-1,3,4,6-tetrakis(methoxymethyl)-;Glycoluril, 1,3,4,6-tetrakis(methoxymethyl)-;Glycoluril, tetrakis(methoxymethyl)-;Tetrahydro-1,3,4,6-tetrakis(methoxymethyl)imidazo[4,5-<em>d</em>]imidazole-2,5(1<em>H</em>,3<em>H</em>)-dione;Tetrakis(methoxymethyl)glyoxal diureine;Tetrakis(methoxymethyl)glycoluril;<em>N</em>,<em>N</em>′,<em>N</em>′′,<em>N</em>′′′-Tetrakis(methoxymethyl)glycoluril;Cymel 1174;Powderlink 1174;Tetramethoxymethyl glycoluril;1,3,4,6-Tetrakis(methoxymethyl)glycoluril;Nikalac MX 270;MX 270;Nikalac N 2702;PL 1174;PD 1174;PL-LI;Crolin 318",
    "duplicated_cas_no": "30663-28-6;136511-32-5;270583-35-2;1245626-52-1;1276117-07-7;2784620-76-2",
    "SMILES": "C(OC)N1C2C(N(COC)C(=O)N2COC)N(COC)C1=O",
    "meta_data": {
        "InChI": "InChI=1S/C12H22N4O6/c1-19-5-13-9-10(15(7-21-3)11(13)17)16(8-22-4)12(18)14(9)6-20-2/h9-10H,5-8H2,1-4H3",
        "InChIKey": null,
        "Canonical SMILES": "O=C1N(COC)C2N(C(=O)N(COC)C2N1COC)COC",
        "Molecular Formula": "C<sub>12</sub>H<sub>22</sub>N<sub>4</sub>O<sub>6</sub>",
        "Molecular Mass": "318.33",
        "Melting Point": "90 °C"
    }
}