{
    "cas_no": "144978-12-1",
    "key_name": "1-(1,1-Dimethylethyl) 2-ethyl (2<em>S</em>)-5-oxo-1,2-pyrrolidinedicarboxylate",
    "cn_name": "Boc-L-焦谷氨酸乙酯;",
    "alternate_name": "1,2-Pyrrolidinedicarboxylic acid, 5-oxo-, 1-(1,1-dimethylethyl) 2-ethyl ester, (2<em>S</em>)-;1,2-Pyrrolidinedicarboxylic acid, 5-oxo-, 1-(1,1-dimethylethyl) 2-ethyl ester, (<em>S</em>)-;1-(1,1-Dimethylethyl) 2-ethyl (2<em>S</em>)-5-oxo-1,2-pyrrolidinedicarboxylate;Ethyl <em>N</em>-<em>tert</em>-butoxycarbonylpyroglutamate;<em>N</em>-<em>tert</em>-Butoxycarbonylpyroglutamic acid ethyl ester;1-Butoxycarbonyl-<span class=\"text-smallcaps\">L</span>-pyroglutamic acid ethyl ester;Ethyl (<em>S</em>)-1-(<em>tert</em>-butoxycarbonyl)-5-oxopyrrolidine-2-carboxylate;1-<em>tert</em>-Butyl 2-ethyl (<em>S</em>)-5-oxopyrrolidine-1,2-dicarboxylate;1,2-Pyrrolidinedicarboxylic acid 5-oxo-, 1-(1,1-dimethylethyl) 2-ethyl ester (2S)-;(<em>S</em>)-1-<em>tert</em>-Butyl 2-ethyl 5-oxopyrrolidine-1,2-dicarboxylate",
    "duplicated_cas_no": "",
    "SMILES": "C(OCC)(=O)[C@H]1N(C(OC(C)(C)C)=O)C(=O)CC1",
    "meta_data": {
        "InChI": "InChI=1S/C12H19NO5/c1-5-17-10(15)8-6-7-9(14)13(8)11(16)18-12(2,3)4/h8H,5-7H2,1-4H3/t8-/m0/s1",
        "InChIKey": null,
        "Canonical SMILES": "O=C(OC(C)(C)C)N1C(=O)CCC1C(=O)OCC",
        "Molecular Formula": "C<sub>12</sub>H<sub>19</sub>NO<sub>5</sub>",
        "Molecular Mass": "257.28",
        "Melting Point": "53-54 °C"
    }
}