{
    "cas_no": "1202-25-1",
    "key_name": "Methyl 4-(dimethylamino)benzoate",
    "cn_name": "4-二甲氨基苯甲酸甲酯;",
    "alternate_name": "Benzoic acid, 4-(dimethylamino)-, methyl ester;Benzoic acid, <em>p</em>-(dimethylamino)-, methyl ester;Methyl 4-(dimethylamino)benzoate;Methyl <em>p</em>-(dimethylamino)benzoate;Methyl 4-(<em>N</em>,<em>N</em>-dimethylamino)benzoate;4-Methoxycarbonyl-<em>N</em>,<em>N</em>-dimethylaniline",
    "duplicated_cas_no": "",
    "SMILES": "C(OC)(=O)C1=CC=C(N(C)C)C=C1",
    "meta_data": {
        "InChI": "InChI=1S/C10H13NO2/c1-11(2)9-6-4-8(5-7-9)10(12)13-3/h4-7H,1-3H3",
        "InChIKey": null,
        "Canonical SMILES": "O=C(OC)C1=CC=C(C=C1)N(C)C",
        "Molecular Formula": "C<sub>10</sub>H<sub>13</sub>NO<sub>2</sub>",
        "Molecular Mass": "179.22",
        "Melting Point": "100 °C"
    }
}