{
    "cas_no": "1074-38-0",
    "key_name": "5-Methyl-2-nitropyridine",
    "cn_name": "2-硝基-5-甲基吡啶;",
    "alternate_name": "Pyridine, 5-methyl-2-nitro-;3-Picoline, 6-nitro-;5-Methyl-2-nitropyridine;2-Nitro-5-picoline;NSC 80299;3-Methyl-6-nitropyridine",
    "duplicated_cas_no": "",
    "SMILES": "N(=O)(=O)C1=CC=C(C)C=N1",
    "meta_data": {
        "InChI": "InChI=1S/C6H6N2O2/c1-5-2-3-6(7-4-5)8(9)10/h2-4H,1H3",
        "InChIKey": null,
        "Canonical SMILES": "O=N(=O)C1=NC=C(C=C1)C",
        "Molecular Formula": "C<sub>6</sub>H<sub>6</sub>N<sub>2</sub>O<sub>2</sub>",
        "Molecular Mass": "138.12",
        "Melting Point": "94-95 °C"
    }
}