{
    "cas_no": "7758-89-6",
    "key_name": "Cuprous chloride",
    "cn_name": "氯化亚铜;",
    "alternate_name": "Copper chloride (CuCl);Cuprous chloride;Copper(I) chloride;Copper chloride;Copper monochloride;Cuprous chloride (CuCl);Copper(1+) chloride;Copper chloride (Cu<sub>2</sub>Cl<sub>2</sub>);Dicopper dichloride;Cuprous chloride (Cu<sub>2</sub>Cl<sub>2</sub>)",
    "duplicated_cas_no": "11093-68-8;12258-96-7;12622-24-1;53906-72-2;53906-73-3;53906-71-1;53906-70-0",
    "SMILES": "Cl[Cu]",
    "meta_data": {
        "InChI": "InChI=1S/ClH.Cu/h1H;/q;+1/p-1",
        "InChIKey": null,
        "Canonical SMILES": "Cl[Cu]",
        "Molecular Formula": "ClCu",
        "Molecular Mass": "",
        "Melting Point": "422 °C",
        "Density": "3.692-4.14 g/cm³"
    }
}