{
    "cas_no": "619-56-7",
    "key_name": "4-Chlorobenzamide",
    "cn_name": "4-氯苯甲酰胺;对氯苯甲酰胺;",
    "alternate_name": "Benzamide, 4-chloro-;Benzamide, <em>p</em>-chloro-;4-Chlorobenzamide;<em>p</em>-Chlorobenzamide;<em>p</em>-Chlorobenzoic acid amide;NSC 406894;NSC 74687",
    "duplicated_cas_no": "",
    "SMILES": "C(N)(=O)C1=CC=C(Cl)C=C1",
    "meta_data": {
        "InChI": "InChI=1S/C7H6ClNO/c8-6-3-1-5(2-4-6)7(9)10/h1-4H,(H2,9,10)",
        "InChIKey": null,
        "Canonical SMILES": "O=C(N)C1=CC=C(Cl)C=C1",
        "Molecular Formula": "C<sub>7</sub>H<sub>6</sub>ClNO",
        "Molecular Mass": "155.58",
        "Melting Point": "174 °C"
    }
}