{
    "cas_no": "104632-25-9",
    "key_name": "Pramipexole dihydrochloride",
    "cn_name": "盐酸普拉克索;S(-)-2-氨基-6-正丙氨基-4,5,6,7-四氢苯并噻唑二盐酸盐;",
    "alternate_name": "2,6-Benzothiazolediamine, 4,5,6,7-tetrahydro-<em>N</em><sup>6</sup>-propyl-, hydrochloride (1:2), (6<em>S</em>)-;2,6-Benzothiazolediamine, 4,5,6,7-tetrahydro-<em>N</em><sup>6</sup>-propyl-, dihydrochloride, (<em>S</em>)-;2,6-Benzothiazolediamine, 4,5,6,7-tetrahydro-<em>N</em><sup>6</sup>-propyl-, dihydrochloride, (6<em>S</em>)-;Pramipexole dihydrochloride;SND 19;Pramipexole hydrochloride",
    "duplicated_cas_no": "",
    "SMILES": "NC1=NC2=C(C[C@@H](NCCC)CC2)S1.Cl",
    "meta_data": {
        "InChI": "InChI=1S/C10H17N3S.2ClH/c1-2-5-12-7-3-4-8-9(6-7)14-10(11)13-8;;/h7,12H,2-6H2,1H3,(H2,11,13);2*1H/t7-;;/m0../s1",
        "InChIKey": null,
        "Canonical SMILES": "Cl.N1=C(SC2=C1CCC(NCCC)C2)N",
        "Molecular Formula": "C<sub>10</sub>H<sub>17</sub>N<sub>3</sub>S.2ClH",
        "Molecular Mass": "",
        "Melting Point": "296-298 °C"
    }
}