{
    "cas_no": "1596-64-1",
    "key_name": "<span class=\"text-smallcaps\">L</span>-Histidinol dihydrochloride",
    "cn_name": "L-组氨醇二盐酸盐;",
    "alternate_name": "1<em>H</em>-Imidazole-5-propanol, β-amino-, hydrochloride (1:2), (β<em>S</em>)-;Imidazole-4-propanol, β-amino-, dihydrochloride, <span class=\"text-smallcaps\">L</span>-;1<em>H</em>-Imidazole-4-propanol, β-amino-, dihydrochloride, (<em>S</em>)-;1<em>H</em>-Imidazole-4-propanol, β-amino-, dihydrochloride, (β<em>S</em>)-;<span class=\"text-smallcaps\">L</span>-Histidinol dihydrochloride;<span class=\"text-smallcaps\">L</span>-(-)-Histidinoldihydrochloride;(<em>S</em>)-Histidinol dihydrochloride;(<em>S</em>)-2-Amino-3-(1<em>H</em>-imidazol-4-yl)propan-1-ol dihydrochloride;(2S)-2-Amino-3-(1<em>H</em>-imidazol-4-yl)propan-1-ol dihydrochloride",
    "duplicated_cas_no": "",
    "SMILES": "C([C@@H](CO)N)C1=CN=CN1.Cl",
    "meta_data": {
        "InChI": "InChI=1S/C6H11N3O.2ClH/c7-5(3-10)1-6-2-8-4-9-6;;/h2,4-5,10H,1,3,7H2,(H,8,9);2*1H/t5-;;/m0../s1",
        "InChIKey": null,
        "Canonical SMILES": "Cl.OCC(N)CC1=CN=CN1",
        "Molecular Formula": "C<sub>6</sub>H<sub>11</sub>N<sub>3</sub>O.2ClH",
        "Molecular Mass": "",
        "Melting Point": "193-195 °C"
    }
}