{
    "cas_no": "2009-24-7",
    "key_name": "Xanthotoxol",
    "cn_name": "花椒毒醇;花椒毒醇;",
    "alternate_name": "7<em>H</em>-Furo[3,2-<em>g</em>][1]benzopyran-7-one, 9-hydroxy-;Xanthotoxol;5-Benzofuranacrylic acid, 6,7-dihydroxy-, δ-lactone;9-Hydroxy-7<em>H</em>-furo[3,2-<em>g</em>][1]benzopyran-7-one;Psoralen, 8-hydroxy-;2-Propenoic acid, 3-(6,7-dihydroxy-5-benzofuranyl)-, δ-lactone;8-Hydroxypsoralen;NSC 401269;Xanthotol",
    "duplicated_cas_no": "",
    "SMILES": "OC=1C2=C(C=C3C1OC=C3)C=CC(=O)O2",
    "meta_data": {
        "InChI": "InChI=1S/C11H6O4/c12-8-2-1-6-5-7-3-4-14-10(7)9(13)11(6)15-8/h1-5,13H",
        "InChIKey": null,
        "Canonical SMILES": "O=C1OC2=C(O)C=3OC=CC3C=C2C=C1",
        "Molecular Formula": "C<sub>11</sub>H<sub>6</sub>O<sub>4</sub>",
        "Molecular Mass": "202.16",
        "Melting Point": "246 °C"
    }
}