{
    "cas_no": "13494-07-0",
    "key_name": "3,5-Dimethyl-1,2-cyclopentanedione",
    "cn_name": "3,5-二甲基-1,2-环戊二酮;3,5-二甲基环戊烯醇酮;",
    "alternate_name": "1,2-Cyclopentanedione, 3,5-dimethyl-;3,5-Dimethyl-1,2-cyclopentanedione;Coronol",
    "duplicated_cas_no": "",
    "SMILES": "O=C1C(=O)C(C)CC1C",
    "meta_data": {
        "InChI": "InChI=1S/C7H10O2/c1-4-3-5(2)7(9)6(4)8/h4-5H,3H2,1-2H3",
        "InChIKey": null,
        "Canonical SMILES": "O=C1C(=O)C(C)CC1C",
        "Molecular Formula": "C<sub>7</sub>H<sub>10</sub>O<sub>2</sub>",
        "Molecular Mass": "126.15",
        "Melting Point": "91-92 °C"
    }
}