{
    "cas_no": "123-07-9",
    "key_name": "4-Ethylphenol",
    "cn_name": "4-乙基苯酚;对乙基苯酚;对乙基酚;",
    "alternate_name": "Phenol, 4-ethyl-;Phenol, <em>p</em>-ethyl-;4-Ethylphenol;<em>p</em>-Ethylphenol;1-Ethyl-4-hydroxybenzene;(4-Hydroxyphenyl)ethane;(<em>p</em>-Hydroxyphenyl)ethane;<em>p</em>-Hydroxyethylbenzene;NSC 62012",
    "duplicated_cas_no": "1326305-80-9",
    "SMILES": "C(C)C1=CC=C(O)C=C1",
    "meta_data": {
        "InChI": "InChI=1S/C8H10O/c1-2-7-3-5-8(9)6-4-7/h3-6,9H,2H2,1H3",
        "InChIKey": null,
        "Canonical SMILES": "OC1=CC=C(C=C1)CC",
        "Molecular Formula": "C<sub>8</sub>H<sub>10</sub>O",
        "Molecular Mass": "122.16",
        "Boiling Point": "217.9 °C",
        "Melting Point": "46 °C",
        "Density": "1.011 g/cm³ @ Temp: 20 °C"
    }
}