{
    "cas_no": "52813-63-5",
    "key_name": "(5<em>R</em>)-Dihydro-5-(hydroxymethyl)-2(3<em>H</em>)-furanone",
    "cn_name": null,
    "alternate_name": "2(3<em>H</em>)-Furanone, dihydro-5-(hydroxymethyl)-, (5<em>R</em>)-;2(3<em>H</em>)-Furanone, dihydro-5-(hydroxymethyl)-, (<em>R</em>)-;(5<em>R</em>)-Dihydro-5-(hydroxymethyl)-2(3<em>H</em>)-furanone;(<em>R</em>)-γ-(Hydroxymethyl)-γ-butyrolactone;(<em>R</em>)-Dihydro-5-(hydroxymethyl)-2(3<em>H</em>)-furanone;(<em>R</em>)-5-(Hydroxymethyl)dihydrofuran-2-one;(<em>R</em>)-(-)-Dihydro-5-(hydroxymethyl)-2(3<em>H</em>)-furanone;(-)-(<em>R</em>)-5-(Hydroxymethyl)tetrahydrofuran-2-one;(<em>R</em>)-5-(Hydroxymethyl)dihydrofuran-2(3<em>H</em>)-one;(<em>R</em>)-5-(hydroxymethyl)dihydrofuran-2(3H)-one;(5R)-5-(Hydroxymethyl)dihydro-furan-2(3<em>H</em>)-one;(5R)-5-(Hydroxymethyl)oxolan-2-one;2(3<em>H</em>)-Furanone dihydro-5-(hydroxymethyl)-, (5R)-",
    "duplicated_cas_no": "",
    "SMILES": "C(O)[C@@H]1OC(=O)CC1",
    "meta_data": {
        "InChI": "InChI=1S/C5H8O3/c6-3-4-1-2-5(7)8-4/h4,6H,1-3H2/t4-/m1/s1",
        "InChIKey": null,
        "Canonical SMILES": "O=C1OC(CO)CC1",
        "Molecular Formula": "C<sub>5</sub>H<sub>8</sub>O<sub>3</sub>",
        "Molecular Mass": "116.12",
        "Boiling Point": "132-136 °C @ Press: 1 Torr"
    }
}