{
    "cas_no": "22503-72-6",
    "key_name": "IDRA 21",
    "cn_name": "7-氯-3-甲基-3,4-二氢-2H-1,2,4-苯并噻二嗪 1,1-二氧化物;",
    "alternate_name": "2<em>H</em>-1,2,4-Benzothiadiazine, 7-chloro-3,4-dihydro-3-methyl-, 1,1-dioxide;IDRA 21",
    "duplicated_cas_no": "",
    "SMILES": "O=S1(=O)C=2C(NC(C)N1)=CC=C(Cl)C2",
    "meta_data": {
        "InChI": "InChI=1S/C8H9ClN2O2S/c1-5-10-7-3-2-6(9)4-8(7)14(12,13)11-5/h2-5,10-11H,1H3",
        "InChIKey": null,
        "Canonical SMILES": "O=S1(=O)NC(NC2=CC=C(Cl)C=C21)C",
        "Molecular Formula": "C<sub>8</sub>H<sub>9</sub>ClN<sub>2</sub>O<sub>2</sub>S",
        "Molecular Mass": "232.69",
        "Melting Point": "209 °C"
    }
}