{
    "cas_no": "16766-90-8",
    "key_name": "1-(Trichloromethyl)-3-(trifluoromethyl)benzene",
    "cn_name": null,
    "alternate_name": "Benzene, 1-(trichloromethyl)-3-(trifluoromethyl)-;<em>m</em>-Xylene, α,α,α-trichloro-α′,α′,α′-trifluoro-;1-(Trichloromethyl)-3-(trifluoromethyl)benzene;<em>m</em>-(Trifluoromethyl)benzotrichloride;3-(Trifluoromethyl)benzotrichloride",
    "duplicated_cas_no": "",
    "SMILES": "C(Cl)(Cl)(Cl)C1=CC(C(F)(F)F)=CC=C1",
    "meta_data": {
        "InChI": "InChI=1S/C8H4Cl3F3/c9-7(10,11)5-2-1-3-6(4-5)8(12,13)14/h1-4H",
        "InChIKey": null,
        "Canonical SMILES": "FC(F)(F)C1=CC=CC(=C1)C(Cl)(Cl)Cl",
        "Molecular Formula": "C<sub>8</sub>H<sub>4</sub>Cl<sub>3</sub>F<sub>3</sub>",
        "Molecular Mass": "263.47",
        "Boiling Point": "77-78 °C @ Press: 9 Torr"
    }
}