{
    "cas_no": "3702-98-5",
    "key_name": "Butanoic acid, 4,4,4-trichloro-3-oxo-, ethyl ester",
    "cn_name": "4,4,4-三氯乙酰乙酸乙酯;",
    "alternate_name": "Butanoic acid, 4,4,4-trichloro-3-oxo-, ethyl ester;Acetoacetic acid, 4,4,4-trichloro-, ethyl ester;Ethyl 4,4,4-trichloroacetoacetate;Ethyl 4,4,4-trichloro-3-oxobutanoate",
    "duplicated_cas_no": "",
    "SMILES": "C(C(C(Cl)(Cl)Cl)=O)C(OCC)=O",
    "meta_data": {
        "InChI": "InChI=1S/C6H7Cl3O3/c1-2-12-5(11)3-4(10)6(7,8)9/h2-3H2,1H3",
        "InChIKey": null,
        "Canonical SMILES": "O=C(OCC)CC(=O)C(Cl)(Cl)Cl",
        "Molecular Formula": "C<sub>6</sub>H<sub>7</sub>Cl<sub>3</sub>O<sub>3</sub>",
        "Molecular Mass": "233.48",
        "Boiling Point": "91.5 °C @ Press: 2.5 Torr",
        "Melting Point": "126-127.5 °C"
    }
}