{
    "cas_no": "13307-05-6",
    "key_name": "1-Chloro-<em>N</em>,<em>N</em>,<em>N</em>′,<em>N</em>′,<em>N</em>′′,<em>N</em>′′-hexamethylsilanetriamine",
    "cn_name": "三(二甲氨基)氯硅烷;三(二甲氨基)氯硅烷;",
    "alternate_name": "Silanetriamine, 1-chloro-<em>N</em>,<em>N</em>,<em>N</em>′,<em>N</em>′,<em>N</em>′′,<em>N</em>′′-hexamethyl-;1-Chloro-<em>N</em>,<em>N</em>,<em>N</em>′,<em>N</em>′,<em>N</em>′′,<em>N</em>′′-hexamethylsilanetriamine;Tris(dimethylamino)chlorosilane;Tris(dimethylamino)silyl chloride;Chlorotris(dimethylamino)silane;[Chlorobis(dimethylamino)silyl]dimethylamine",
    "duplicated_cas_no": "",
    "SMILES": "[Si](N(C)C)(N(C)C)(N(C)C)Cl",
    "meta_data": {
        "InChI": "InChI=1S/C6H18ClN3Si/c1-8(2)11(7,9(3)4)10(5)6/h1-6H3",
        "InChIKey": null,
        "Canonical SMILES": "Cl[Si](N(C)C)(N(C)C)N(C)C",
        "Molecular Formula": "C<sub>6</sub>H<sub>18</sub>ClN<sub>3</sub>Si",
        "Molecular Mass": "195.77",
        "Boiling Point": "62-63 °C @ Press: 12 Torr",
        "Melting Point": "2.5-3.5 °C",
        "Density": "0.975 g/cm³"
    }
}