{
    "cas_no": "88-72-2",
    "key_name": "2-Nitrotoluene",
    "cn_name": "2-硝基甲苯;邻硝基甲苯;",
    "alternate_name": "Benzene, 1-methyl-2-nitro-;Toluene, <em>o</em>-nitro-;1-Methyl-2-nitrobenzene;<em>o</em>-Methylnitrobenzene;<em>o</em>-Nitrotoluene;2-Nitrotoluene;2-Methyl-1-nitrobenzene;2-Methylnitrobenzene;<em>o</em>-Mononitrotoluene;NSC 9577",
    "duplicated_cas_no": "57158-05-1",
    "SMILES": "N(=O)(=O)C1=C(C)C=CC=C1",
    "meta_data": {
        "InChI": "InChI=1S/C7H7NO2/c1-6-4-2-3-5-7(6)8(9)10/h2-5H,1H3",
        "InChIKey": null,
        "Canonical SMILES": "O=N(=O)C=1C=CC=CC1C",
        "Molecular Formula": "C<sub>7</sub>H<sub>7</sub>NO<sub>2</sub>",
        "Molecular Mass": "137.14",
        "Boiling Point": "222 °C",
        "Melting Point": "-10 °C",
        "Density": "1.1622 g/cm³ @ Temp: 19 °C"
    }
}