{
    "cas_no": "7318-00-5",
    "key_name": "2-Butenoic acid, 3-amino-, ethyl ester",
    "cn_name": "3-氨基巴豆酸乙酯;",
    "alternate_name": "2-Butenoic acid, 3-amino-, ethyl ester;Crotonic acid, 3-amino-, ethyl ester;Crotonic acid, β-amino-, ethyl ester;Ethyl β-aminocrotonate;β-Aminocrotonic acid ethyl ester;Ethyl 3-amino-2-butenoate;3-Aminocrotonic acid ethyl ester;Ethyl 3-aminocrotonate;Ethyl β-amino-β-methylacrylate;3-Amino-2-butenoic acid ethyl ester;NSC 1086",
    "duplicated_cas_no": "",
    "SMILES": "C(C(OCC)=O)=C(C)N",
    "meta_data": {
        "InChI": "InChI=1S/C6H11NO2/c1-3-9-6(8)4-5(2)7/h4H,3,7H2,1-2H3",
        "InChIKey": null,
        "Canonical SMILES": "O=C(OCC)C=C(N)C",
        "Molecular Formula": "C<sub>6</sub>H<sub>11</sub>NO<sub>2</sub>",
        "Molecular Mass": "129.16",
        "Boiling Point": "105.4-107.0 °C @ Press: 14.6 Torr",
        "Melting Point": "20-21 °C",
        "Density": "1.0219 g/cm³ @ Temp: 18.8 °C"
    }
}