{
    "cas_no": "61450-06-4",
    "key_name": "3-(Aminosulfonyl)-4-chlorobenzenesulfonyl chloride",
    "cn_name": null,
    "alternate_name": "Benzenesulfonyl chloride, 3-(aminosulfonyl)-4-chloro-;Benzenesulfonyl chloride, 4-chloro-3-sulfamoyl-;3-(Aminosulfonyl)-4-chlorobenzenesulfonyl chloride;4-Chloro-3-sulfamoylbenzenesulfonyl chloride;NSC 350626",
    "duplicated_cas_no": "",
    "SMILES": "S(N)(=O)(=O)C1=CC(S(Cl)(=O)=O)=CC=C1Cl",
    "meta_data": {
        "InChI": "InChI=1S/C6H5Cl2NO4S2/c7-5-2-1-4(14(8,10)11)3-6(5)15(9,12)13/h1-3H,(H2,9,12,13)",
        "InChIKey": null,
        "Canonical SMILES": "O=S(=O)(Cl)C1=CC=C(Cl)C(=C1)S(=O)(=O)N",
        "Molecular Formula": "C<sub>6</sub>H<sub>5</sub>Cl<sub>2</sub>NO<sub>4</sub>S<sub>2</sub>",
        "Molecular Mass": "290.14",
        "Melting Point": "184-186 °C"
    }
}