{
    "cas_no": "56-87-1",
    "key_name": "<span class=\"text-smallcaps\">L</span>-Lysine",
    "cn_name": "L-赖氨酸;",
    "alternate_name": "<span class=\"text-smallcaps\">L</span>-Lysine;Lysine, <span class=\"text-smallcaps\">L</span>-;Hexanoic acid, 2,6-diamino-, (<em>S</em>)-;Lysine acid;Lysine;2,6-Diaminohexanoic acid;(<em>S</em>)-α,ε-Diaminocaproic acid;<span class=\"text-smallcaps\">L</span>-(+)-Lysine;Aminutrin;(<em>S</em>)-2,6-Diaminohexanoic acid;α-Lysine;(<em>S</em>)-Lysine;(+)-<em>S</em>-Lysine;<span class=\"text-smallcaps\">L</span>-Norleucine, 6-amino-;<span class=\"text-smallcaps\">L</span>-2,6-Diaminocaproic acid;h-Lys-oh;<span class=\"text-smallcaps\">L</span>-Lys;Malandil;Biolys;LLB 50;38: PN: WO2020027640 SEQID: 101 claimed protein;38: PN: KR20200014684 SEQID: 101 claimed sequence;114: PN: WO2021061872 SEQID: 114 claimed protein;1: PN: KR20190124854 PAGE: 4 claimed sequence;520: PN: WO2022056313 SEQID: 536 claimed protein;365: PN: US20220128567 SEQID: 536 claimed protein;159: PN: WO2022103927 SEQID: 196 claimed protein;365: PN: US20220178935 SEQID: 536 claimed protein;99: PN: WO2022204151 SEQID: 99 claimed protein;MeSH ID: D008239;534: PN: WO2023172654 SEQID: 536 claimed sequence",
    "duplicated_cas_no": "6899-06-5;48050-57-3;280114-50-3;1150316-18-9;1153953-95-7;2087491-46-9;2139267-51-7;2566526-81-4",
    "SMILES": "[C@H](CCCCN)(C(O)=O)N",
    "meta_data": {
        "InChI": "InChI=1S/C6H14N2O2/c7-4-2-1-3-5(8)6(9)10/h5H,1-4,7-8H2,(H,9,10)/t5-/m0/s1",
        "InChIKey": null,
        "Canonical SMILES": "O=C(O)C(N)CCCCN",
        "Molecular Formula": "C<sub>6</sub>H<sub>14</sub>N<sub>2</sub>O<sub>2</sub>",
        "Molecular Mass": "146.19",
        "Melting Point": "5-224 °C (decomp)",
        "Density": "1.4516 g/cm³ @ Temp: 45.00 °C"
    }
}