{
    "cas_no": "22863-82-7",
    "key_name": "2-Anthracenemethanol",
    "cn_name": "2-(羟甲基)蒽;2-(羟基甲基)蒽;2-Anthracenemethanol;",
    "alternate_name": "2-Anthracenemethanol;2-Anthracenylmethanol;2-(Hydroxymethyl)anthracene",
    "duplicated_cas_no": "",
    "SMILES": "C(O)C1=CC2=C(C=C3C(=C2)C=CC=C3)C=C1",
    "meta_data": {
        "InChI": "InChI=1S/C15H12O/c16-10-11-5-6-14-8-12-3-1-2-4-13(12)9-15(14)7-11/h1-9,16H,10H2",
        "InChIKey": null,
        "Canonical SMILES": "OCC=1C=CC2=CC=3C=CC=CC3C=C2C1",
        "Molecular Formula": "C<sub>15</sub>H<sub>12</sub>O",
        "Molecular Mass": "208.26",
        "Melting Point": "223-224 °C (decomp)"
    }
}