{
    "cas_no": "65201-77-6",
    "key_name": "Tetrabutylammonium periodate",
    "cn_name": "四丁基高碘酸铵;",
    "alternate_name": "1-Butanaminium, <em>N</em>,<em>N</em>,<em>N</em>-tributyl-, periodate (1:1);1-Butanaminium, <em>N</em>,<em>N</em>,<em>N</em>-tributyl-, salt with periodic acid (HIO<sub>4</sub>) (1:1);Periodate (IO<sub>4</sub><sup>1-</sup>), <em>N</em>,<em>N</em>,<em>N</em>-tributyl-1-butanaminium;Tetrabutylammonium periodate;Tetrabutylammonium metaperiodate",
    "duplicated_cas_no": "",
    "SMILES": "I(=O)(=O)(=O)[O-].[N+](CCCC)(CCCC)(CCCC)CCCC",
    "meta_data": {
        "InChI": "InChI=1S/C16H36N.HIO4/c1-5-9-13-17(14-10-6-2,15-11-7-3)16-12-8-4;2-1(3,4)5/h5-16H2,1-4H3;(H,2,3,4,5)/q+1;/p-1",
        "InChIKey": null,
        "Canonical SMILES": "O=I(=O)(=O)[O-].CCCC[N+](CCCC)(CCCC)CCCC",
        "Molecular Formula": "C<sub>16</sub>H<sub>36</sub>N.IO<sub>4</sub>",
        "Molecular Mass": "",
        "Melting Point": "193 °C (decomp)"
    }
}