{
    "cas_no": "16689-35-3",
    "key_name": "1,1-Dimethylethyl 2-(1-methylethyl)hydrazinecarboxylate",
    "cn_name": null,
    "alternate_name": "Hydrazinecarboxylic acid, 2-(1-methylethyl)-, 1,1-dimethylethyl ester;Carbazic acid, 3-isopropyl-, <em>tert</em>-butyl ester;1,1-Dimethylethyl 2-(1-methylethyl)hydrazinecarboxylate;<em>tert</em>-Butyl 2-isopropylhydrazinecarboxylate;2-Isopropylhydrazinecarboxylic acid tert-butyl ester;1-Boc-2-isopropylhydrazine;<em>tert</em>-Butyl 3-(isopropyl)carbazate;<em>tert</em>-Butyl 2-isopropylhydrazin-1-ylformate",
    "duplicated_cas_no": "",
    "SMILES": "O(C(NNC(C)C)=O)C(C)(C)C",
    "meta_data": {
        "InChI": "InChI=1S/C8H18N2O2/c1-6(2)9-10-7(11)12-8(3,4)5/h6,9H,1-5H3,(H,10,11)",
        "InChIKey": null,
        "Canonical SMILES": "O=C(OC(C)(C)C)NNC(C)C",
        "Molecular Formula": "C<sub>8</sub>H<sub>18</sub>N<sub>2</sub>O<sub>2</sub>",
        "Molecular Mass": "174.24",
        "Melting Point": "47-51 °C"
    }
}