{
    "cas_no": "50622-09-8",
    "key_name": "(4<em>S</em>,5<em>S</em>)-2,2-Dimethyl-1,3-dioxolane-4,5-dimethanol",
    "cn_name": "(+)-2,3-O-亚异丙基-L-苏力糖醇;(4S,5S)-2,2-二甲基-1,3-二氧戊环-4,5-二甲醇;",
    "alternate_name": "1,3-Dioxolane-4,5-dimethanol, 2,2-dimethyl-, (4<em>S</em>,5<em>S</em>)-;1,3-Dioxolane-4,5-dimethanol, 2,2-dimethyl-, (4<em>S</em>-<em>trans</em>)-;(4<em>S</em>,5<em>S</em>)-2,2-Dimethyl-1,3-dioxolane-4,5-dimethanol;2,3-<em>O</em>-Isopropylidene-<span class=\"text-smallcaps\">L</span>-threitol;(+)-2,3-<em>O</em>-Isopropylidene-<span class=\"text-smallcaps\">L</span>-threitol;(4<em>S</em>,5<em>S</em>)-4,5-Bis(hydroxymethyl)-2,2-dimethyl-1,3-dioxolane;[(4<em>S</em>,5<em>S</em>)-2,2-Dimethyl-1,3-dioxolane-4,5-diyl]dimethanol;1,2-Cyclopentanedimethanol, 4,4-dimethyl-, (1<em>R</em>,2<em>R</em>)-",
    "duplicated_cas_no": "2770977-89-2",
    "SMILES": "C(O)[C@H]1[C@H](CO)OC(C)(C)O1",
    "meta_data": {
        "InChI": "InChI=1S/C7H14O4/c1-7(2)10-5(3-8)6(4-9)11-7/h5-6,8-9H,3-4H2,1-2H3/t5-,6-/m0/s1",
        "InChIKey": null,
        "Canonical SMILES": "OCC1OC(OC1CO)(C)C",
        "Molecular Formula": "C<sub>7</sub>H<sub>14</sub>O<sub>4</sub>",
        "Molecular Mass": "162.18",
        "Boiling Point": "91-93 °C @ Press: 0.01-0.02 Torr",
        "Melting Point": "48-51 °C"
    }
}