{
    "cas_no": "3147-76-0",
    "key_name": "2-(2′-Hydroxy-5′-<em>tert</em>-butylphenyl)benzotriazole",
    "cn_name": "2-(2H-苯并三唑-2-基)-4-(1,1-二甲基乙基)-苯酚;",
    "alternate_name": "Phenol, 2-(2<em>H</em>-benzotriazol-2-yl)-4-(1,1-dimethylethyl)-;Phenol, 2-(2<em>H</em>-benzotriazol-2-yl)-4-<em>tert</em>-butyl-;2-(2<em>H</em>-Benzotriazol-2-yl)-4-(1,1-dimethylethyl)phenol;2-(2′-Hydroxy-5′-<em>tert</em>-butylphenyl)benzotriazole;2-(5-<em>tert</em>-Butyl-2-hydroxyphenyl)benzotriazole;2-(2-Hydroxy-5-<em>tert</em>-butylphenyl)benzotriazole;Tinuvin PS;2-(5′-<em>tert</em>-Butyl-2′-hydroxyphenyl)benzotriazole;2-(2-Hydroxy-5-<em>tert</em>-butylphenyl)-2<em>H</em>-benzotriazole;2-(2<em>H</em>-Benzotriazol-2-yl)-4-<em>tert</em>-butylphenol;Eversorb 70;2-(2-Hydroxy-5-<em>tert</em>-butyl)benzotriazole;Tinuvin 5411;2-(2<em>H</em>-Benzo[<em>d</em>][1,2,3]triazol-2-yl)-4-(<em>tert</em>-butyl)phenol;2-(2<em>H</em>-1,2,3-Benzotriazol-2-yl)-4-<em>tert</em>-butylphenol;2-(Benzotriazol-2-yl)-4-<em>tert</em>-butylphenol;2-(2′-Hydroxy-5′-<em>tert</em>-butylphenyl)-2<em>H</em>-benzotriazole",
    "duplicated_cas_no": "86321-61-1;153613-75-3;189377-87-5;201556-41-4;206192-99-6;208761-48-2;1995114-54-9",
    "SMILES": "OC=1C(N2N=C3C(=N2)C=CC=C3)=CC(C(C)(C)C)=CC1",
    "meta_data": {
        "InChI": "InChI=1S/C16H17N3O/c1-16(2,3)11-8-9-15(20)14(10-11)19-17-12-6-4-5-7-13(12)18-19/h4-10,20H,1-3H3",
        "InChIKey": null,
        "Canonical SMILES": "OC1=CC=C(C=C1N2N=C3C=CC=CC3=N2)C(C)(C)C",
        "Molecular Formula": "C<sub>16</sub>H<sub>17</sub>N<sub>3</sub>O",
        "Molecular Mass": "267.33",
        "Melting Point": "92.4-93.6 °C"
    }
}