{
    "cas_no": "7569-62-2",
    "key_name": "5-Chloro-2-methoxybenzeneacetic acid",
    "cn_name": null,
    "alternate_name": "Benzeneacetic acid, 5-chloro-2-methoxy-;Acetic acid, (5-chloro-2-methoxyphenyl)-;5-Chloro-2-methoxybenzeneacetic acid;(5-Chloro-2-methoxyphenyl)acetic acid;[5-Chloro-2-(methyloxy)phenyl]acetic acid;2-(5-Chloro-2-methoxyphenyl)acetic acid",
    "duplicated_cas_no": "",
    "SMILES": "C(C(O)=O)C1=C(OC)C=CC(Cl)=C1",
    "meta_data": {
        "InChI": "InChI=1S/C9H9ClO3/c1-13-8-3-2-7(10)4-6(8)5-9(11)12/h2-4H,5H2,1H3,(H,11,12)",
        "InChIKey": null,
        "Canonical SMILES": "O=C(O)CC1=CC(Cl)=CC=C1OC",
        "Molecular Formula": "C<sub>9</sub>H<sub>9</sub>ClO<sub>3</sub>",
        "Molecular Mass": "200.62",
        "Melting Point": "129 °C"
    }
}