{
    "cas_no": "3160-40-5",
    "key_name": "4-(4-Chlorophenyl)-3-buten-2-one",
    "cn_name": "4-氯苯亚甲基丙酮;",
    "alternate_name": "3-Buten-2-one, 4-(4-chlorophenyl)-;3-Buten-2-one, 4-(<em>p</em>-chlorophenyl)-;4-(4-Chlorophenyl)-3-buten-2-one;(<em>p</em>-Chlorobenzylidene)acetone;(4-Chlorobenzylidene)acetone;4-(<em>p</em>-Chlorophenyl)-3-buten-2-one;4-Chlorobenzalacetone;<em>p</em>-Chlorobenzalacetone;4′-Chlorobenzylideneacetone;NSC 87353;1-(<em>p</em>-Chlorophenyl)-1-buten-3-one",
    "duplicated_cas_no": "",
    "SMILES": "C(=CC(C)=O)C1=CC=C(Cl)C=C1",
    "meta_data": {
        "InChI": "InChI=1S/C10H9ClO/c1-8(12)2-3-9-4-6-10(11)7-5-9/h2-7H,1H3",
        "InChIKey": null,
        "Canonical SMILES": "O=C(C=CC1=CC=C(Cl)C=C1)C",
        "Molecular Formula": "C<sub>10</sub>H<sub>9</sub>ClO",
        "Molecular Mass": "180.63",
        "Melting Point": "50-50.5 °C"
    }
}