{
    "cas_no": "5290-29-9",
    "key_name": "Silanol, 1,1,1-triethyl-, 1-acetate",
    "cn_name": null,
    "alternate_name": "Silanol, 1,1,1-triethyl-, 1-acetate;Silanol, triethyl-, acetate;Triethylacetoxysilane;Triethylsilyl acetate;Acetic acid triethylsilyl ester;Acetoxytriethylsilane;Triethyl-1-acetoxysilane",
    "duplicated_cas_no": "",
    "SMILES": "[Si](OC(C)=O)(CC)(CC)CC",
    "meta_data": {
        "InChI": "InChI=1S/C8H18O2Si/c1-5-11(6-2,7-3)10-8(4)9/h5-7H2,1-4H3",
        "InChIKey": null,
        "Canonical SMILES": "O=C(O[Si](CC)(CC)CC)C",
        "Molecular Formula": "C<sub>8</sub>H<sub>18</sub>O<sub>2</sub>Si",
        "Molecular Mass": "174.31",
        "Boiling Point": "173-174 °C",
        "Density": "0.893 g/cm³"
    }
}