{
    "cas_no": "122294-10-4",
    "key_name": "3′,4′-Dimethoxy[1,1′-biphenyl]-4-carboxylic acid",
    "cn_name": null,
    "alternate_name": "[1,1′-Biphenyl]-4-carboxylic acid, 3′,4′-dimethoxy-;3′,4′-Dimethoxy[1,1′-biphenyl]-4-carboxylic acid;3′,4′-Dimethoxy-[1,1′-biphenyl]-4-carboxylic acid;3′,4′-Dimethoxybiphenyl-4-carboxylic acid",
    "duplicated_cas_no": "",
    "SMILES": "O(C)C=1C=C(C=CC1OC)C2=CC=C(C(O)=O)C=C2",
    "meta_data": {
        "InChI": "InChI=1S/C15H14O4/c1-18-13-8-7-12(9-14(13)19-2)10-3-5-11(6-4-10)15(16)17/h3-9H,1-2H3,(H,16,17)",
        "InChIKey": null,
        "Canonical SMILES": "O=C(O)C1=CC=C(C=C1)C=2C=CC(OC)=C(OC)C2",
        "Molecular Formula": "C<sub>15</sub>H<sub>14</sub>O<sub>4</sub>",
        "Molecular Mass": "258.27",
        "Melting Point": "221-222 °C"
    }
}