{
    "cas_no": "614-47-1",
    "key_name": "<em>trans</em>-Chalcone",
    "cn_name": null,
    "alternate_name": "2-Propen-1-one, 1,3-diphenyl-, (2<em>E</em>)-;Chalcone, (<em>E</em>)-;2-Propen-1-one, 1,3-diphenyl-, (<em>E</em>)-;(2<em>E</em>)-1,3-Diphenyl-2-propen-1-one;<em>trans</em>-Benzalacetophenone;<em>trans</em>-Chalcone;<em>trans</em>-1,3-Diphenylpropen-3-one;(<em>E</em>)-Chalcone;<em>trans</em>-Benzylideneacetophenone;(<em>E</em>)-1,3-Diphenylpropen-3-one;(<em>E</em>)-1-Benzoyl-2-phenylethylene;Phenyl <em>trans</em>-styryl ketone;(<em>E</em>)-Benzylideneacetophenone;<em>trans</em>-1,3-Diphenyl-2-propen-1-one;(<em>E</em>)-1,3-Diphenyl-2-propen-1-one;Phenyl (<em>E</em>)-2-phenylethenyl ketone;<em>trans</em>-1,3-Diphenylprop-1-en-3-one;(<em>E</em>)-1,3-Diphenylpropenone;NSC 167107;(<em>E</em>)-Benzalacetophenone;Phenyl (<em>E</em>)-styryl ketone;(E)-1,3-Diphenyl-2-propen-1-one;(E)-Chalcone",
    "duplicated_cas_no": "",
    "SMILES": "C(/C=C/C1=CC=CC=C1)(=O)C2=CC=CC=C2",
    "meta_data": {
        "InChI": "InChI=1S/C15H12O/c16-15(14-9-5-2-6-10-14)12-11-13-7-3-1-4-8-13/h1-12H/b12-11+",
        "InChIKey": null,
        "Canonical SMILES": "O=C(C=CC=1C=CC=CC1)C=2C=CC=CC2",
        "Molecular Formula": "C<sub>15</sub>H<sub>12</sub>O",
        "Molecular Mass": "208.26",
        "Boiling Point": "218-222 °C @ Press: 4 Torr",
        "Melting Point": "59 °C"
    }
}