{
    "cas_no": "215-58-7",
    "key_name": "Benzo[<em>b</em>]triphenylene",
    "cn_name": "1,2,3,4-二苯并蒽;",
    "alternate_name": "Benzo[<em>b</em>]triphenylene;1,2:3,4-Dibenzanthracene;Dibenz[<em>a</em>,<em>c</em>]anthracene;Dibenzo[<em>a</em>,<em>c</em>]anthracene;1,2:3,4-Dibenzoanthracene;2,3-Benzotriphenylene",
    "duplicated_cas_no": "",
    "SMILES": "C12=C(C=3C(C=4C1=CC=CC4)=CC=CC3)C=C5C(=C2)C=CC=C5",
    "meta_data": {
        "InChI": "InChI=1S/C22H14/c1-2-8-16-14-22-20-12-6-4-10-18(20)17-9-3-5-11-19(17)21(22)13-15(16)7-1/h1-14H",
        "InChIKey": null,
        "Canonical SMILES": "C=1C=CC=2C=C3C=4C=CC=CC4C5=CC=CC=C5C3=CC2C1",
        "Molecular Formula": "C<sub>22</sub>H<sub>14</sub>",
        "Molecular Mass": "278.35",
        "Boiling Point": "524 °C",
        "Melting Point": "206 °C"
    }
}