{
    "cas_no": "300816-22-2",
    "key_name": "4-Chloro-6,7-dihydro-5<em>H</em>-cyclopenta[4,5]thieno[2,3-<em>d</em>]pyrimidine",
    "cn_name": null,
    "alternate_name": "5<em>H</em>-Cyclopenta[4,5]thieno[2,3-<em>d</em>]pyrimidine, 4-chloro-6,7-dihydro-;4-Chloro-6,7-dihydro-5<em>H</em>-cyclopenta[4,5]thieno[2,3-<em>d</em>]pyrimidine",
    "duplicated_cas_no": "",
    "SMILES": "ClC1=C2C3=C(SC2=NC=N1)CCC3",
    "meta_data": {
        "InChI": "InChI=1S/C9H7ClN2S/c10-8-7-5-2-1-3-6(5)13-9(7)12-4-11-8/h4H,1-3H2",
        "InChIKey": null,
        "Canonical SMILES": "ClC1=NC=NC=2SC3=C(C12)CCC3",
        "Molecular Formula": "C<sub>9</sub>H<sub>7</sub>ClN<sub>2</sub>S",
        "Molecular Mass": "210.68",
        "Melting Point": "130 °C"
    }
}