{
    "cas_no": "478556-66-0",
    "key_name": "Irgacure OXE 02",
    "cn_name": null,
    "alternate_name": "Ethanone, 1-[9-ethyl-6-(2-methylbenzoyl)-9<em>H</em>-carbazol-3-yl]-, 1-(<em>O</em>-acetyloxime);CGI 242;1-(<em>O</em>-Acetyloxime)-1-[9-ethyl-6-(2-methylbenzoyl)-9<em>H</em>-carbazol-3-yl]ethanone;Irgacure OXE 02;OXE 02;I-OXE 02;<em>O</em>-Acetyl-1-[6-(2-methylbenzoyl)-9-ethyl-9<em>H</em>-carbazol-3-yl]ethanone oxime;OXE 2;1-[9-Ethyl-6-(2-methylbenzoyl)-9H-carbazol-3-yl]ethanone-1-(O-acetyloxime)",
    "duplicated_cas_no": "1926131-93-2",
    "SMILES": "C(C)N1C=2C(C=3C1=CC=C(C(=NOC(C)=O)C)C3)=CC(C(=O)C4=C(C)C=CC=C4)=CC2",
    "meta_data": {
        "InChI": "InChI=1S/C26H24N2O3/c1-5-28-24-12-10-19(17(3)27-31-18(4)29)14-22(24)23-15-20(11-13-25(23)28)26(30)21-9-7-6-8-16(21)2/h6-15H,5H2,1-4H3",
        "InChIKey": null,
        "Canonical SMILES": "O=C(ON=C(C=1C=CC2=C(C1)C3=CC(=CC=C3N2CC)C(=O)C=4C=CC=CC4C)C)C",
        "Molecular Formula": "C<sub>26</sub>H<sub>24</sub>N<sub>2</sub>O<sub>3</sub>",
        "Molecular Mass": "412.48",
        "Melting Point": "125.5-126.1 °C"
    }
}