{
    "cas_no": "25014-41-9",
    "key_name": "Polyacrylonitrile",
    "cn_name": null,
    "alternate_name": "2-Propenenitrile, homopolymer;Acrylonitrile, polymers;Acrylonitrile homopolymer;PAN (polymer);Bulana;Acrylonitrile polymer;PAN;PAN-A 425;Taftic B;T 75;Solrox;Microza KCV 3010;Biospal 1200S;Biospal 1800S;CS Ultrafilter;PAN 200;DP 10000;PAN-CX<sub>2</sub>;PAN 20CX<sub>2</sub>;Polyacrylonitrile;ACL 1050;Barex 1000S;PAN 70;Romacril FR;Taftic CB;PAN 12CX2;MBR 500;Taftic AM;Microsphere F 80E;PAN 7A;Barex 2090;PAN 1514;Taftic A 20;High Toron BX;CMF-DY 010;CMF-DY 040;SEPA RG 03;Stork 3010;Stork 5010;PAN 17DX;Hypan HN 85;Barex 4205;Barex 3000N;Parex 4205;Barex 1000;ACP 1010;T 75 (acrylic polymer);XF 01;PAN 150SF;PAN 15SF;Nephral 500;Crystal 4000;TV 3/150/2T;GKSS HV-II;GKSS HV-III;GMT-L 6;ACP 0013;HV-II;AN 69XS;PAN 400;PAN 50;GMT-L 1;Barex 2090S;Taftic 120;YK 30;CDFH-PAN 85K;NPAN;Acrilan 16;P 300;P 700;NH4HPAN;P 300 (polymer);P 700 (PAN polymer);GMT-L 10;PAN 350;Taftic YK 30;Taftic YK 80;Taftic YK 50;AQPAN;Refleckle MTR-A;Sepro PA 200;P 60C;Sepro PA 350;PAN 2345XT;P 30T;UFBIA 250;GC-UF 0503;SolSep UF 010104;XG 12;UF 010104;PAN 1361;CP 2015;P 303199;CP 2015 (polymer);K 150 (polyacrylonitrile);K 150;UN 050;PM 05N;Dolanit H-PAN",
    "duplicated_cas_no": "25038-47-5;26298-93-1;63908-51-0;110866-54-1;131495-40-4;159704-27-5;210353-83-6;211997-96-5;220020-37-1;1201897-85-9;1815564-60-3;1887762-66-4;1908468-05-2;2047387-32-4;2086703-36-6;2664997-60-6",
    "SMILES": "C(C#N)=C",
    "meta_data": {
        "InChI": "InChI=1S/C3H3N/c1-2-3-4/h2H,1H2",
        "InChIKey": null,
        "Canonical SMILES": "N#CC=C",
        "Molecular Formula": "(C<sub>3</sub>H<sub>3</sub>N)<sub>x</sub>",
        "Molecular Mass": "",
        "Melting Point": "350 °C (decomp)",
        "Density": "1.14-1.17 g/cm³"
    }
}