{
    "cas_no": "917-92-0",
    "key_name": "3,3-Dimethyl-1-butyne",
    "cn_name": "3,3-二甲基-1-丁炔;3,3-二甲基丁炔;叔丁基乙炔;",
    "alternate_name": "1-Butyne, 3,3-dimethyl-;3,3-Dimethyl-1-butyne;3,3,3-Trimethylpropyne;<em>tert</em>-Butylacetylene;3,3-Dimethylbutyne;Neohexyne;<em>tert</em>-Butylethyne;3,3-Dimethylbut-1-yne;2,2-Dimethyl-3-butyne",
    "duplicated_cas_no": "",
    "SMILES": "C(C#C)(C)(C)C",
    "meta_data": {
        "InChI": "InChI=1S/C6H10/c1-5-6(2,3)4/h1H,2-4H3",
        "InChIKey": null,
        "Canonical SMILES": "C#CC(C)(C)C",
        "Molecular Formula": "C<sub>6</sub>H<sub>10</sub>",
        "Molecular Mass": "82.14",
        "Boiling Point": "37.7 °C",
        "Melting Point": "-78.2 °C",
        "Density": "0.6683 g/cm³ @ Temp: 20 °C"
    }
}