{
    "cas_no": "51554-95-1",
    "key_name": "1-Bromo-4-pentylbenzene",
    "cn_name": "对戊基溴苯;对溴戊基苯;",
    "alternate_name": "Benzene, 1-bromo-4-pentyl-;1-Bromo-4-pentylbenzene;<em>p</em>-Pentylbromobenzene;4-Pentylbromobenzene;<em>p</em>-Pentylphenyl bromide;4-<em>n</em>-Pentylbromobenzene",
    "duplicated_cas_no": "",
    "SMILES": "C(CCCC)C1=CC=C(Br)C=C1",
    "meta_data": {
        "InChI": "InChI=1S/C11H15Br/c1-2-3-4-5-10-6-8-11(12)9-7-10/h6-9H,2-5H2,1H3",
        "InChIKey": null,
        "Canonical SMILES": "BrC1=CC=C(C=C1)CCCCC",
        "Molecular Formula": "C<sub>11</sub>H<sub>15</sub>Br",
        "Molecular Mass": "227.14",
        "Boiling Point": "109-110 °C @ Press: 4 Torr",
        "Density": "1.2038 g/cm³ @ Temp: 20 °C"
    }
}