{
    "cas_no": "46118-95-0",
    "key_name": "2-[(4-Methyl-2-pyrimidinyl)thio]acetic acid",
    "cn_name": null,
    "alternate_name": "Acetic acid, 2-[(4-methyl-2-pyrimidinyl)thio]-;Acetic acid, [(4-methyl-2-pyrimidinyl)thio]-;2-[(4-Methyl-2-pyrimidinyl)thio]acetic acid;2-(Carboxymethylthio)-4-methylpyrimidine;[(4-Methyl-2-pyrimidinyl)sulfanyl]acetic acid;NSC 164942;2-[(4-Methylpyrimidin-2-yl)thio]acetic acid;[(4-Methyl-2-pyrimidinyl)thio]acetic acid;2-(4-Methylpyrimidin-2-yl)sulfanylacetic acid;2-[(4-Methylpyrimidin-2-yl)sulfanyl]acetic acid",
    "duplicated_cas_no": "",
    "SMILES": "S(CC(O)=O)C=1N=C(C)C=CN1",
    "meta_data": {
        "InChI": "InChI=1S/C7H8N2O2S/c1-5-2-3-8-7(9-5)12-4-6(10)11/h2-3H,4H2,1H3,(H,10,11)",
        "InChIKey": null,
        "Canonical SMILES": "O=C(O)CSC1=NC=CC(=N1)C",
        "Molecular Formula": "C<sub>7</sub>H<sub>8</sub>N<sub>2</sub>O<sub>2</sub>S",
        "Molecular Mass": "184.22",
        "Melting Point": "191 °C"
    }
}