{
    "cas_no": "3226-65-1",
    "key_name": "Methionine sulfoxide",
    "cn_name": null,
    "alternate_name": "<span class=\"text-smallcaps\">L</span>-Methionine, <em>S</em>-oxide;Butyric acid, 2-amino-4-(methylsulfinyl)-, <span class=\"text-smallcaps\">L</span>-;Butanoic acid, 2-amino-4-(methylsulfinyl)-, (2<em>S</em>)-;<span class=\"text-smallcaps\">L</span>-Methionine sulfoxide;Methionine sulfoxide;3: PN: WO2011158590 PAGE: 34 claimed protein;(2S)-2-Amino-4-(methylsulfinyl)butanoic acid",
    "duplicated_cas_no": "7314-31-0;7530-67-8;779988-65-7",
    "SMILES": "[C@H](CCS(C)=O)(C(O)=O)N",
    "meta_data": {
        "InChI": "InChI=1S/C5H11NO3S/c1-10(9)3-2-4(6)5(7)8/h4H,2-3,6H2,1H3,(H,7,8)/t4-,10?/m0/s1",
        "InChIKey": null,
        "Canonical SMILES": "O=C(O)C(N)CCS(=O)C",
        "Molecular Formula": "C<sub>5</sub>H<sub>11</sub>NO<sub>3</sub>S",
        "Molecular Mass": "165.21",
        "Melting Point": "214.8 °C (decomp)"
    }
}