{
    "cas_no": "1114-41-6",
    "key_name": "Muramic acid",
    "cn_name": "胞壁酸; 2-氨基-3-O-(1-羧乙基)-2-脱氧-D-葡萄糖;",
    "alternate_name": "Muramic acid;<span class=\"text-smallcaps\">D</smallcap>-Glucose, 2-amino-3-<em>O</em>-(<smallcap>D</span>-1-carboxyethyl)-2-deoxy-;2-Amino-3-<em>O</em>-(<span class=\"text-smallcaps\">D</smallcap>-1-carboxyethyl)-2-deoxy-<smallcap>D</span>-glucose;<span class=\"text-smallcaps\">D</span>-Glucose, 2-amino-3-<em>O</em>-(1-carboxyethyl)-2-deoxy-, (<em>R</em>)-;(<em>R</em>)-2-Amino-3-<em>O</em>-(1-carboxyethyl)-2-deoxy-<span class=\"text-smallcaps\">D</span>-glucose;2-Aminomuramic acid",
    "duplicated_cas_no": "886884-06-6;900526-68-3;1236362-97-2",
    "SMILES": "[C@@H]([C@@H]([C@@H](CO)O)O)(O[C@@H](C(O)=O)C)[C@H](C=O)N",
    "meta_data": {
        "InChI": "InChI=1S/C9H17NO7/c1-4(9(15)16)17-8(5(10)2-11)7(14)6(13)3-12/h2,4-8,12-14H,3,10H2,1H3,(H,15,16)/t4-,5+,6-,7-,8-/m1/s1",
        "InChIKey": null,
        "Canonical SMILES": "O=CC(N)C(OC(C(=O)O)C)C(O)C(O)CO",
        "Molecular Formula": "C<sub>9</sub>H<sub>17</sub>NO<sub>7</sub>",
        "Molecular Mass": "251.23",
        "Melting Point": "153 °C (decomp)"
    }
}