{
    "cas_no": "70851-50-2",
    "key_name": "Dimethoxymethyloctadecylsilane",
    "cn_name": "十八烷基甲基二甲氧基硅烷;",
    "alternate_name": "Silane, dimethoxymethyloctadecyl-;Dimethoxymethyloctadecylsilane;LSX 6816;Octadecylmethyldimethoxysilane;HD 118;SIO 6629.1",
    "duplicated_cas_no": "",
    "SMILES": "[Si](CCCCCCCCCCCCCCCCCC)(OC)(OC)C",
    "meta_data": {
        "InChI": "InChI=1S/C21H46O2Si/c1-5-6-7-8-9-10-11-12-13-14-15-16-17-18-19-20-21-24(4,22-2)23-3/h5-21H2,1-4H3",
        "InChIKey": null,
        "Canonical SMILES": "O(C)[Si](OC)(C)CCCCCCCCCCCCCCCCCC",
        "Molecular Formula": "C<sub>21</sub>H<sub>46</sub>O<sub>2</sub>Si",
        "Molecular Mass": "358.67",
        "Boiling Point": "190 °C @ Press: 3 Torr",
        "Melting Point": "12-18 °C",
        "Density": "0.85 g/cm³"
    }
}