{
    "cas_no": "704-10-9",
    "key_name": "2′,4′-Dichloro-5′-fluoroacetophenone",
    "cn_name": "2,4-二氯-5-氟苯乙酮;",
    "alternate_name": "Ethanone, 1-(2,4-dichloro-5-fluorophenyl)-;Acetophenone, 2′,4′-dichloro-5′-fluoro-;1-(2,4-Dichloro-5-fluorophenyl)ethanone;2′,4′-Dichloro-5′-fluoroacetophenone;1-(2,4-Dichloro-5-fluorophenyl)ethan-1-one",
    "duplicated_cas_no": "",
    "SMILES": "C(C)(=O)C1=C(Cl)C=C(Cl)C(F)=C1",
    "meta_data": {
        "InChI": "InChI=1S/C8H5Cl2FO/c1-4(12)5-2-8(11)7(10)3-6(5)9/h2-3H,1H3",
        "InChIKey": null,
        "Canonical SMILES": "O=C(C1=CC(F)=C(Cl)C=C1Cl)C",
        "Molecular Formula": "C<sub>8</sub>H<sub>5</sub>Cl<sub>2</sub>FO",
        "Molecular Mass": "207.03",
        "Boiling Point": "112-115 °C @ Press: 5 Torr",
        "Melting Point": "35-36 °C"
    }
}