{
    "cas_no": "10519-20-7",
    "key_name": "Ethyl 2-octynoate",
    "cn_name": "2-辛炔酸乙酯;乙基2-辛炔酸酯;",
    "alternate_name": "2-Octynoic acid, ethyl ester;Ethyl 2-octynoate;NSC 74485;Ethyl pentylpropiolate",
    "duplicated_cas_no": "",
    "SMILES": "C(C#CCCCCC)(OCC)=O",
    "meta_data": {
        "InChI": "InChI=1S/C10H16O2/c1-3-5-6-7-8-9-10(11)12-4-2/h3-7H2,1-2H3",
        "InChIKey": null,
        "Canonical SMILES": "O=C(C#CCCCCC)OCC",
        "Molecular Formula": "C<sub>10</sub>H<sub>16</sub>O<sub>2</sub>",
        "Molecular Mass": "168.23",
        "Boiling Point": "84-85 °C @ Press: 6 Torr"
    }
}