{
    "cas_no": "6911-51-9",
    "key_name": "2,2′-Dithiobis[thiophene]",
    "cn_name": "双(2-噻吩基)二硫醚;",
    "alternate_name": "Thiophene, 2,2′-dithiobis-;Thiophene, 2,2′-dithiodi-;2,2′-Dithiobis[thiophene];α,α′-Dithienyl disulfide;2,2′-Bis(thienyl) disulfide;Di-2-thienyl disulfide;Bis(2-thienyl) disulfide;1,2-Di(thien-2-yl)disulfane;2,2′-Dithiodithiophene;2-(Thiophen-2-yldisulfanyl)thiophene;2-Thienyl disulfide",
    "duplicated_cas_no": "",
    "SMILES": "S(SC1=CC=CS1)C2=CC=CS2",
    "meta_data": {
        "InChI": "InChI=1S/C8H6S4/c1-3-7(9-5-1)11-12-8-4-2-6-10-8/h1-6H",
        "InChIKey": null,
        "Canonical SMILES": "S(SC=1SC=CC1)C=2SC=CC2",
        "Molecular Formula": "C<sub>8</sub>H<sub>6</sub>S<sub>4</sub>",
        "Molecular Mass": "230.39",
        "Boiling Point": "115-145 °C @ Press: 0.02 Torr",
        "Melting Point": "56 °C"
    }
}