{
    "cas_no": "55-97-0",
    "key_name": "Hexamethonium bromide",
    "cn_name": "3,4,5,7-四甲氧基黄酮;溴化六甲双铵;",
    "alternate_name": "1,6-Hexanediaminium, <em>N</em><sup>1</sup>,<em>N</em><sup>1</sup>,<em>N</em><sup>1</sup>,<em>N</em><sup>6</sup>,<em>N</em><sup>6</sup>,<em>N</em><sup>6</sup>-hexamethyl-, bromide (1:2);Ammonium, hexamethylenebis[trimethyl-, dibromide;1,6-Hexanediaminium, <em>N</em>,<em>N</em>,<em>N</em>,<em>N</em>′,<em>N</em>′,<em>N</em>′-hexamethyl-, dibromide;Hexamethylenebis[trimethylammonium bromide];C 6;Esametina;Gangliostat;Hexamethonium bromide;Hexamethonium dibromide;Hexameton;Hexonium dibromide;Simpatoblock;Vegolysen;Vegolysin;Methobromine;<em>N</em>,<em>N</em>,<em>N</em>,<em>N</em>′,<em>N</em>′,<em>N</em>′-Hexamethyl(hexamethylene)diammonium bromide;Hexamethylenebis(trimethylammonium) dibromide;1,6-Hexanebis(trimethylammonium) dibromide;Methobromin;Hexameton bromide;Bistrium bromide;Hexanium bromide;1,6-Bis(trimethylammonium)hexane dibromide;Hexane-1,6-bis(trimethylammonium bromide);Hexamethone bromide",
    "duplicated_cas_no": "41055-63-4",
    "SMILES": "C([N+](C)(C)C)CCCCC[N+](C)(C)C.[Br-]",
    "meta_data": {
        "InChI": "InChI=1S/C12H30N2.2BrH/c1-13(2,3)11-9-7-8-10-12-14(4,5)6;;/h7-12H2,1-6H3;2*1H/q+2;;/p-2",
        "InChIKey": null,
        "Canonical SMILES": "[Br-].C[N+](C)(C)CCCCCC[N+](C)(C)C",
        "Molecular Formula": "C<sub>12</sub>H<sub>30</sub>N<sub>2</sub>.2Br",
        "Molecular Mass": "",
        "Melting Point": "274-276 °C"
    }
}