{
    "cas_no": "393553-57-6",
    "key_name": "6-Bromo-4-methoxy-1<em>H</em>-indole",
    "cn_name": null,
    "alternate_name": "1<em>H</em>-Indole, 6-bromo-4-methoxy-;6-Bromo-4-methoxy-1<em>H</em>-indole;6-Bromo-4-methoxyindole",
    "duplicated_cas_no": "",
    "SMILES": "O(C)C1=C2C(=CC(Br)=C1)NC=C2",
    "meta_data": {
        "InChI": "InChI=1S/C9H8BrNO/c1-12-9-5-6(10)4-8-7(9)2-3-11-8/h2-5,11H,1H3",
        "InChIKey": null,
        "Canonical SMILES": "BrC=1C=C(OC)C=2C=CNC2C1",
        "Molecular Formula": "C<sub>9</sub>H<sub>8</sub>BrNO",
        "Molecular Mass": "226.07",
        "Melting Point": "85.3-87.1 °C"
    }
}