{
    "cas_no": "274-45-3",
    "key_name": "Pyrrolo[1,2-<em>a</em>]pyrazine",
    "cn_name": null,
    "alternate_name": "Pyrrolo[1,2-<em>a</em>]pyrazine;7-Azaindolizine",
    "duplicated_cas_no": "",
    "SMILES": "C=12N(C=CC1)C=CN=C2",
    "meta_data": {
        "InChI": "InChI=1S/C7H6N2/c1-2-7-6-8-3-5-9(7)4-1/h1-6H",
        "InChIKey": null,
        "Canonical SMILES": "N=1C=CN2C=CC=C2C1",
        "Molecular Formula": "C<sub>7</sub>H<sub>6</sub>N<sub>2</sub>",
        "Molecular Mass": "118.14",
        "Boiling Point": "71 °C @ Press: 2 Torr"
    }
}