{
    "cas_no": "118-90-1",
    "key_name": "2-Methylbenzoic acid",
    "cn_name": "邻甲基苯甲酸;2-甲基苯甲酸;",
    "alternate_name": "Benzoic acid, 2-methyl-;<em>o</em>-Toluic acid;2-Methylbenzoic acid;<em>o</em>-Toluylic acid;<em>o</em>-Methylbenzoic acid;NSC 2193",
    "duplicated_cas_no": "",
    "SMILES": "C(O)(=O)C1=C(C)C=CC=C1",
    "meta_data": {
        "InChI": "InChI=1S/C8H8O2/c1-6-4-2-3-5-7(6)8(9)10/h2-5H,1H3,(H,9,10)",
        "InChIKey": null,
        "Canonical SMILES": "O=C(O)C=1C=CC=CC1C",
        "Molecular Formula": "C<sub>8</sub>H<sub>8</sub>O<sub>2</sub>",
        "Molecular Mass": "136.15",
        "Boiling Point": "259 °C",
        "Melting Point": "103.7 °C"
    }
}