{
    "cas_no": "2652-77-9",
    "key_name": "1,2-Diphenyl-3,5-pyrazolidinedione",
    "cn_name": "1,2-二苯-3,5吡唑二酮;",
    "alternate_name": "3,5-Pyrazolidinedione, 1,2-diphenyl-;1,2-Diphenyl-3,5-pyrazolidinedione;1,2-Diphenyl-3,5-dioxopyrazolidine",
    "duplicated_cas_no": "",
    "SMILES": "O=C1N(N(C(=O)C1)C2=CC=CC=C2)C3=CC=CC=C3",
    "meta_data": {
        "InChI": "InChI=1S/C15H12N2O2/c18-14-11-15(19)17(13-9-5-2-6-10-13)16(14)12-7-3-1-4-8-12/h1-10H,11H2",
        "InChIKey": null,
        "Canonical SMILES": "O=C1N(C=2C=CC=CC2)N(C=3C=CC=CC3)C(=O)C1",
        "Molecular Formula": "C<sub>15</sub>H<sub>12</sub>N<sub>2</sub>O<sub>2</sub>",
        "Molecular Mass": "252.27",
        "Melting Point": "178 °C"
    }
}