{
    "cas_no": "557-66-4",
    "key_name": "Ethylamine hydrochloride",
    "cn_name": "乙胺盐酸盐;盐酸乙胺;",
    "alternate_name": "Ethanamine, hydrochloride (1:1);Ethylamine, hydrochloride;Ethanamine, hydrochloride;Ethylammonium chloride;Monoethylammonium chloride;<em>N</em>-Ethylammonium chloride;Ethylamine hydrochloride",
    "duplicated_cas_no": "",
    "SMILES": "C(C)N.Cl",
    "meta_data": {
        "InChI": "InChI=1S/C2H7N.ClH/c1-2-3;/h2-3H2,1H3;1H",
        "InChIKey": null,
        "Canonical SMILES": "Cl.NCC",
        "Molecular Formula": "C<sub>2</sub>H<sub>7</sub>N.ClH",
        "Molecular Mass": "",
        "Melting Point": "109.5 °C",
        "Density": "1.22 g/cm³"
    }
}