{
    "cas_no": "700874-72-2",
    "key_name": "Galunisertib",
    "cn_name": null,
    "alternate_name": "6-Quinolinecarboxamide, 4-[5,6-dihydro-2-(6-methyl-2-pyridinyl)-4<em>H</em>-pyrrolo[1,2-<em>b</em>]pyrazol-3-yl]-;4-[5,6-Dihydro-2-(6-methyl-2-pyridinyl)-4<em>H</em>-pyrrolo[1,2-<em>b</em>]pyrazol-3-yl]-6-quinolinecarboxamide;LY 2157299;Galunisertib",
    "duplicated_cas_no": "912477-03-3",
    "SMILES": "CC1=NC(C=2C(=C3N(N2)CCC3)C=4C5=C(C=CC(C(N)=O)=C5)N=CC4)=CC=C1",
    "meta_data": {
        "InChI": "InChI=1S/C22H19N5O/c1-13-4-2-5-18(25-13)21-20(19-6-3-11-27(19)26-21)15-9-10-24-17-8-7-14(22(23)28)12-16(15)17/h2,4-5,7-10,12H,3,6,11H2,1H3,(H2,23,28)",
        "InChIKey": null,
        "Canonical SMILES": "O=C(N)C=1C=CC2=NC=CC(=C2C1)C=3C(=NN4C3CCC4)C=5N=C(C=CC5)C",
        "Molecular Formula": "C<sub>22</sub>H<sub>19</sub>N<sub>5</sub>O",
        "Molecular Mass": "369.42",
        "Melting Point": "137 °C"
    }
}