{
    "cas_no": "52334-53-9",
    "key_name": "4-Amino-3-hydroxypyridine",
    "cn_name": "3-羟基-4-氨基吡啶;",
    "alternate_name": "3-Pyridinol, 4-amino-;4-Amino-3-pyridinol;3-Hydroxy-4-aminopyridine;4-Amino-3-hydroxypyridine",
    "duplicated_cas_no": "",
    "SMILES": "NC=1C(O)=CN=CC1",
    "meta_data": {
        "InChI": "InChI=1S/C5H6N2O/c6-4-1-2-7-3-5(4)8/h1-3,8H,(H2,6,7)",
        "InChIKey": null,
        "Canonical SMILES": "OC=1C=NC=CC1N",
        "Molecular Formula": "C<sub>5</sub>H<sub>6</sub>N<sub>2</sub>O",
        "Molecular Mass": "110.11",
        "Melting Point": "240-242 °C"
    }
}