{
    "cas_no": "51596-10-2",
    "key_name": "(6<em>R</em>,25<em>R</em>)-5-<em>O</em>-Demethyl-28-deoxy-6,28-epoxy-25-methylmilbemycin B",
    "cn_name": null,
    "alternate_name": "Milbemycin B, 5-<em>O</em>-demethyl-28-deoxy-6,28-epoxy-25-methyl-, (6<em>R</em>,25<em>R</em>)-;Spiro[11,15-methano-2<em>H</em>,7<em>H</em>,13<em>H</em>-furo[4,3,2-<em>pq</em>][2,6]benzodioxacyclooctadecin-13,2′-[2<em>H</em>]pyran], milbemycin B deriv.;(6<em>R</em>,25<em>R</em>)-5-<em>O</em>-Demethyl-28-deoxy-6,28-epoxy-25-methylmilbemycin B;Antibiotic B 41A3;Milbemycin α<sub>1</sub>;Milbemycin A<sub>3</sub>;(+)-Milbemycin α<sub>1</sub>;Milbeknock;GWN 1725;Gowan 1725;Matsuguard;Koromite;Mesa;Emamectin A<sub>3</sub>;Mesa (acaricide);Ultiflora;Milbemectin",
    "duplicated_cas_no": "56197-00-3",
    "SMILES": "",
    "meta_data": {
        "InChI": "",
        "InChIKey": null,
        "Canonical SMILES": "",
        "Molecular Formula": "C<sub>31</sub>H<sub>44</sub>O<sub>7</sub>",
        "Molecular Mass": "528.68",
        "Melting Point": "213.5 °C"
    }
}