{
    "cas_no": "563-12-2",
    "key_name": "Ethion",
    "cn_name": "乙硫磷;益赛昂；易赛昂；乙赛昂；蚜螨立死；1240；FMC 1240；ENT24105；O，O，O′O′-四乙基-S，S＇-甲又二;",
    "alternate_name": "Phosphorodithioic acid, <em>S</em><sup>P</sup>,<em>S</em><sup>P′</sup>-methylene <em>O</em><sup>P</sup>,<em>O</em><sup>P</sup>,<em>O</em><sup>P′</sup>,<em>O</em><sup>P′</sup>-tetraethyl ester;Phosphorodithioic acid, <em>S</em>,<em>S</em>′-methylene <em>O</em>,<em>O</em>,<em>O</em>′,<em>O</em>′-tetraethyl ester;RP 8167;ENT 24,105;Diethion;Ethion;Ethyl methylene phosphorodithioate ([(EtO)<sub>2</sub>P(S)S]<sub>2</sub>CH<sub>2</sub>);Niagara 1240;Phosphotox E;Rodocid;Tetraethyl <em>S</em>,<em>S</em>′-methylene bis(phosphorothiolothionate);<em>O</em>,<em>O</em>,<em>O</em>′,<em>O</em>′-Tetraethyl <em>S</em>,<em>S</em>′-methylene bis(phosphorodithioate);Ethopaz;Nialate;Hylemox;Hylemax;Rodocide;Fosfatox E;Rhodocide;Ethiol 100;Match;Tomahawk",
    "duplicated_cas_no": "12676-93-6;12738-47-5",
    "SMILES": "P(SCSP(OCC)(OCC)=S)(OCC)(OCC)=S",
    "meta_data": {
        "InChI": "InChI=1S/C9H22O4P2S4/c1-5-10-14(16,11-6-2)18-9-19-15(17,12-7-3)13-8-4/h5-9H2,1-4H3",
        "InChIKey": null,
        "Canonical SMILES": "S=P(OCC)(OCC)SCSP(=S)(OCC)OCC",
        "Molecular Formula": "C<sub>9</sub>H<sub>22</sub>O<sub>4</sub>P<sub>2</sub>S<sub>4</sub>",
        "Molecular Mass": "384.48",
        "Boiling Point": "165 °C @ Press: 0.3 Torr",
        "Melting Point": "-13--12 °C",
        "Density": "1.220 g/cm³ @ Temp: 20 °C"
    }
}