{
    "cas_no": "33225-73-9",
    "key_name": "6-Nitro-3-pyridinecarboxylic acid",
    "cn_name": null,
    "alternate_name": "3-Pyridinecarboxylic acid, 6-nitro-;Nicotinic acid, 6-nitro-;6-Nitro-3-pyridinecarboxylic acid;6-Nitronicotinic acid;2-Nitro-5-carboxypyridine;NSC 170849",
    "duplicated_cas_no": "",
    "SMILES": "C(O)(=O)C=1C=CC(N(=O)=O)=NC1",
    "meta_data": {
        "InChI": "InChI=1S/C6H4N2O4/c9-6(10)4-1-2-5(7-3-4)8(11)12/h1-3H,(H,9,10)",
        "InChIKey": null,
        "Canonical SMILES": "O=C(O)C1=CN=C(C=C1)N(=O)=O",
        "Molecular Formula": "C<sub>6</sub>H<sub>4</sub>N<sub>2</sub>O<sub>4</sub>",
        "Molecular Mass": "168.11",
        "Melting Point": "179-180 °C"
    }
}