{
    "cas_no": "6900-87-4",
    "key_name": "Hypaconitine",
    "cn_name": "次乌头碱;次乌碱;",
    "alternate_name": "Aconitane-8,13,14,15-tetrol, 1,6,16-trimethoxy-4-(methoxymethyl)-20-methyl-, 8-acetate 14-benzoate, (1α,6α,14α,15α,16β)-;Hypaconitine;2<em>H</em>-12,3,6a-Ethanylylidene-7,9-methanonaphth[2,3-<em>b</em>]azocine, aconitane-8,13,14,15-tetrol deriv.",
    "duplicated_cas_no": "2632-23-7",
    "SMILES": "O(C)[C@@H]1[C@]23[C@]4([C@]5([C@@](OC(C)=O)([C@@]6([C@]2(N(C)C[C@@](COC)([C@]3([C@H]6OC)[H])CC1)[H])[H])[C@@H](O)[C@H](OC)[C@@](O)(C4)[C@@H]5OC(=O)C7=CC=CC=C7)[H])[H]",
    "meta_data": {
        "InChI": "InChI=1S/C33H45NO10/c1-17(35)44-33-21-19(14-31(38,28(42-6)26(33)36)27(21)43-29(37)18-10-8-7-9-11-18)32-20(40-4)12-13-30(16-39-3)15-34(2)25(32)22(33)23(41-5)24(30)32/h7-11,19-28,36,38H,12-16H2,1-6H3/t19-,20+,21-,22+,23+,24-,25-,26+,27-,28+,30+,31-,32+,33-/m1/s1",
        "InChIKey": null,
        "Canonical SMILES": "O=C(OC1C2C3CC1(O)C(OC)C(O)C2(OC(=O)C)C4C(OC)C5C6(COC)CN(C)C4C35C(OC)CC6)C=7C=CC=CC7",
        "Molecular Formula": "C<sub>33</sub>H<sub>45</sub>NO<sub>10</sub>",
        "Molecular Mass": "615.71",
        "Melting Point": "197-198 °C (decomp)"
    }
}