{
    "cas_no": "25683-07-2",
    "key_name": "Pyoluteorin",
    "cn_name": null,
    "alternate_name": "Methanone, (4,5-dichloro-1<em>H</em>-pyrrol-2-yl)(2,6-dihydroxyphenyl)-;Ketone, 4,5-dichloropyrrol-2-yl 2,6-dihydroxyphenyl;Pyoluteorin;(4,5-Dichloro-1<em>H</em>-pyrrol-2-yl)(2,6-dihydroxyphenyl)methanone;NSC 143092",
    "duplicated_cas_no": "",
    "SMILES": "C(=O)(C1=C(O)C=CC=C1O)C2=CC(Cl)=C(Cl)N2",
    "meta_data": {
        "InChI": "InChI=1S/C11H7Cl2NO3/c12-5-4-6(14-11(5)13)10(17)9-7(15)2-1-3-8(9)16/h1-4,14-16H",
        "InChIKey": null,
        "Canonical SMILES": "O=C(C1=CC(Cl)=C(Cl)N1)C=2C(O)=CC=CC2O",
        "Molecular Formula": "C<sub>11</sub>H<sub>7</sub>Cl<sub>2</sub>NO<sub>3</sub>",
        "Molecular Mass": "272.08",
        "Melting Point": "174-175 °C (decomp)"
    }
}