{
    "cas_no": "4857-42-5",
    "key_name": "3-Methyl-5-isoxazolecarboxylic acid",
    "cn_name": null,
    "alternate_name": "5-Isoxazolecarboxylic acid, 3-methyl-;3-Methyl-5-isoxazolecarboxylic acid;5-Carboxy-3-methylisoxazole;U 10387;3-Methyl-5-isoxazolylcarboxylic acid;3-Methyl-1,2-oxazole-5-carboxylic acid",
    "duplicated_cas_no": "",
    "SMILES": "C(O)(=O)C1=CC(C)=NO1",
    "meta_data": {
        "InChI": "InChI=1S/C5H5NO3/c1-3-2-4(5(7)8)9-6-3/h2H,1H3,(H,7,8)",
        "InChIKey": null,
        "Canonical SMILES": "O=C(O)C=1ON=C(C1)C",
        "Molecular Formula": "C<sub>5</sub>H<sub>5</sub>NO<sub>3</sub>",
        "Molecular Mass": "127.10",
        "Melting Point": "210-211 °C"
    }
}