{
    "cas_no": "4707-46-4",
    "key_name": "3-Methylorsellinic acid",
    "cn_name": "2,4-二羟基-3,6-二甲基苯甲酸;",
    "alternate_name": "Benzoic acid, 2,4-dihydroxy-3,6-dimethyl-;β-Resorcylic acid, 3,6-dimethyl-;2,4-Dihydroxy-3,6-dimethylbenzoic acid;β-Orcinolcarboxylic acid;3-Methylorsellinic acid;3,6-Dimethyl-2,4-dihydroxybenzoic acid",
    "duplicated_cas_no": "",
    "SMILES": "C(O)(=O)C1=C(O)C(C)=C(O)C=C1C",
    "meta_data": {
        "InChI": "InChI=1S/C9H10O4/c1-4-3-6(10)5(2)8(11)7(4)9(12)13/h3,10-11H,1-2H3,(H,12,13)",
        "InChIKey": null,
        "Canonical SMILES": "O=C(O)C1=C(O)C(=C(O)C=C1C)C",
        "Molecular Formula": "C<sub>9</sub>H<sub>10</sub>O<sub>4</sub>",
        "Molecular Mass": "182.17",
        "Melting Point": "185 °C"
    }
}