{
    "cas_no": "6623-41-2",
    "key_name": "2-Amino-4,5-dimethylphenol",
    "cn_name": null,
    "alternate_name": "Phenol, 2-amino-4,5-dimethyl-;3,4-Xylenol, 6-amino-;2-Amino-4,5-dimethylphenol;1-Amino-2-hydroxy-4,5-dimethylbenzene;4,5-Dimethyl-2-aminophenol;4-Amino-5-hydroxy-1,2-xylene;4,5-Dimethyl-2-hydroxyaniline;NSC 54925",
    "duplicated_cas_no": "",
    "SMILES": "CC1=C(C)C=C(O)C(N)=C1",
    "meta_data": {
        "InChI": "InChI=1S/C8H11NO/c1-5-3-7(9)8(10)4-6(5)2/h3-4,10H,9H2,1-2H3",
        "InChIKey": null,
        "Canonical SMILES": "OC=1C=C(C(=CC1N)C)C",
        "Molecular Formula": "C<sub>8</sub>H<sub>11</sub>NO",
        "Molecular Mass": "137.18",
        "Melting Point": "173-175 °C (sublm)"
    }
}