{
    "cas_no": "619-19-2",
    "key_name": "2-Hydroxy-4-nitrobenzoic acid",
    "cn_name": "4-硝基水杨酸;2-羟基-4-硝基苯甲酸;",
    "alternate_name": "Benzoic acid, 2-hydroxy-4-nitro-;Salicylic acid, 4-nitro-;2-Hydroxy-4-nitrobenzoic acid;4-Nitrosalicylic acid;4-Nitro-2-hydroxybenzoic acid;<em>p</em>-Nitrosalicylic acid;NSC 882",
    "duplicated_cas_no": "",
    "SMILES": "N(=O)(=O)C1=CC(O)=C(C(O)=O)C=C1",
    "meta_data": {
        "InChI": "InChI=1S/C7H5NO5/c9-6-3-4(8(12)13)1-2-5(6)7(10)11/h1-3,9H,(H,10,11)",
        "InChIKey": null,
        "Canonical SMILES": "O=C(O)C1=CC=C(C=C1O)N(=O)=O",
        "Molecular Formula": "C<sub>7</sub>H<sub>5</sub>NO<sub>5</sub>",
        "Molecular Mass": "183.12",
        "Melting Point": "226 °C"
    }
}