{
    "cas_no": "3741-00-2",
    "key_name": "Pentylcyclopentane",
    "cn_name": null,
    "alternate_name": "Cyclopentane, pentyl-;Pentane, 1-cyclopentyl-;Cyclopentane, amyl-;Pentylcyclopentane;<em>n</em>-Pentylcyclopentane;1-Cyclopentylpentane;NSC 174063",
    "duplicated_cas_no": "",
    "SMILES": "C(CCCC)C1CCCC1",
    "meta_data": {
        "InChI": "InChI=1S/C10H20/c1-2-3-4-7-10-8-5-6-9-10/h10H,2-9H2,1H3",
        "InChIKey": null,
        "Canonical SMILES": "CCCCCC1CCCC1",
        "Molecular Formula": "C<sub>10</sub>H<sub>20</sub>",
        "Molecular Mass": "140.27",
        "Boiling Point": "180 °C",
        "Melting Point": "-83 °C",
        "Density": "0.7898 g/cm³ @ Temp: 20 °C"
    }
}