{
    "cas_no": "2008-58-4",
    "key_name": "2,6-Dichlorobenzamide",
    "cn_name": "2,6-二氯苯甲酰胺;",
    "alternate_name": "Benzamide, 2,6-dichloro-;2,6-Dichlorobenzamide;BAM;2,6-BAM;NSC 53137;AE-C 653711",
    "duplicated_cas_no": "70852-53-8",
    "SMILES": "C(N)(=O)C1=C(Cl)C=CC=C1Cl",
    "meta_data": {
        "InChI": "InChI=1S/C7H5Cl2NO/c8-4-2-1-3-5(9)6(4)7(10)11/h1-3H,(H2,10,11)",
        "InChIKey": null,
        "Canonical SMILES": "O=C(N)C=1C(Cl)=CC=CC1Cl",
        "Molecular Formula": "C<sub>7</sub>H<sub>5</sub>Cl<sub>2</sub>NO",
        "Molecular Mass": "190.03",
        "Melting Point": "198-200 °C",
        "Density": "1.52 g/cm³"
    }
}