{
    "cas_no": "446-49-1",
    "key_name": "1-Ethyl-2-fluorobenzene",
    "cn_name": null,
    "alternate_name": "Benzene, 1-ethyl-2-fluoro-;1-Ethyl-2-fluorobenzene;2-Ethylfluorobenzene",
    "duplicated_cas_no": "",
    "SMILES": "C(C)C1=C(F)C=CC=C1",
    "meta_data": {
        "InChI": "InChI=1S/C8H9F/c1-2-7-5-3-4-6-8(7)9/h3-6H,2H2,1H3",
        "InChIKey": null,
        "Canonical SMILES": "FC=1C=CC=CC1CC",
        "Molecular Formula": "C<sub>8</sub>H<sub>9</sub>F",
        "Molecular Mass": "124.16",
        "Boiling Point": "136-137 °C",
        "Density": "0.983 g/cm³ @ Temp: 20 °C"
    }
}