{
    "cas_no": "612-13-5",
    "key_name": "2-Cyanobenzyl chloride",
    "cn_name": "邻氰基氯苄;",
    "alternate_name": "Benzonitrile, 2-(chloromethyl)-;<em>o</em>-Tolunitrile, α-chloro-;α-Tolunitrile, α-chloro-;2-(Chloromethyl)benzonitrile;<em>o</em>-Cyanobenzylchloride;<em>o</em>-(Chloromethyl)benzonitrile;α-Chloro-<em>o</em>-toluonitrile;2-Cyanobenzyl chloride;NSC 102157",
    "duplicated_cas_no": "",
    "SMILES": "C(Cl)C1=C(C#N)C=CC=C1",
    "meta_data": {
        "InChI": "InChI=1S/C8H6ClN/c9-5-7-3-1-2-4-8(7)6-10/h1-4H,5H2",
        "InChIKey": null,
        "Canonical SMILES": "N#CC=1C=CC=CC1CCl",
        "Molecular Formula": "C<sub>8</sub>H<sub>6</sub>ClN",
        "Molecular Mass": "151.59",
        "Boiling Point": "252 °C",
        "Melting Point": "61 °C"
    }
}