{
    "cas_no": "20306-75-6",
    "key_name": "<em>N</em>-Methylacetoacetamide",
    "cn_name": "N-甲基乙酰基乙酰胺;乙酰乙酰甲胺;",
    "alternate_name": "Butanamide, <em>N</em>-methyl-3-oxo-;Acetoacetamide, <em>N</em>-methyl-;<em>N</em>-Methyl-3-oxobutanamide;2-Acetyl-<em>N</em>-methylacetamide;<em>N</em>-Methylacetoacetamide",
    "duplicated_cas_no": "",
    "SMILES": "C(CC(C)=O)(NC)=O",
    "meta_data": {
        "InChI": "InChI=1S/C5H9NO2/c1-4(7)3-5(8)6-2/h3H2,1-2H3,(H,6,8)",
        "InChIKey": null,
        "Canonical SMILES": "O=C(NC)CC(=O)C",
        "Molecular Formula": "C<sub>5</sub>H<sub>9</sub>NO<sub>2</sub>",
        "Molecular Mass": "115.13",
        "Boiling Point": "170 °C @ Press: 18 Torr",
        "Melting Point": "47 °C"
    }
}