{
    "cas_no": "109-11-5",
    "key_name": "3-Morpholinone",
    "cn_name": "3-吗啉酮;",
    "alternate_name": "3-Morpholinone;3-Ketomorpholine;3-Oxomorpholine;NSC 11688;3-Morpholone",
    "duplicated_cas_no": "",
    "SMILES": "O=C1COCCN1",
    "meta_data": {
        "InChI": "InChI=1S/C4H7NO2/c6-4-3-7-2-1-5-4/h1-3H2,(H,5,6)",
        "InChIKey": null,
        "Canonical SMILES": "O=C1NCCOC1",
        "Molecular Formula": "C<sub>4</sub>H<sub>7</sub>NO<sub>2</sub>",
        "Molecular Mass": "101.10",
        "Melting Point": "105 °C"
    }
}