{
    "cas_no": "108282-38-8",
    "key_name": "4-Amino-5-chloro-2-ethoxybenzoic acid",
    "cn_name": "4-氨基-5-氯-2-乙氧基苯甲酸;",
    "alternate_name": "Benzoic acid, 4-amino-5-chloro-2-ethoxy-;4-Amino-5-chloro-2-ethoxybenzoic acid;2-Ethoxy-4-amino-5-chlorobenzoic acid",
    "duplicated_cas_no": "",
    "SMILES": "C(O)(=O)C1=C(OCC)C=C(N)C(Cl)=C1",
    "meta_data": {
        "InChI": "InChI=1S/C9H10ClNO3/c1-2-14-8-4-7(11)6(10)3-5(8)9(12)13/h3-4H,2,11H2,1H3,(H,12,13)",
        "InChIKey": null,
        "Canonical SMILES": "O=C(O)C=1C=C(Cl)C(N)=CC1OCC",
        "Molecular Formula": "C<sub>9</sub>H<sub>10</sub>ClNO<sub>3</sub>",
        "Molecular Mass": "215.63",
        "Melting Point": "167-168 °C"
    }
}