{
    "cas_no": "4694-80-8",
    "key_name": "2-Propyl-2-oxazoline",
    "cn_name": "2-丙基-2-恶唑;4,5-二氢-2-丙基异恶唑;",
    "alternate_name": "Oxazole, 4,5-dihydro-2-propyl-;2-Oxazoline, 2-propyl-;4,5-Dihydro-2-propyloxazole;2-Propyl-2-oxazoline;NSC 122378;2-Propyl-4,5-dihydro-1,3-oxazole;<em>n</em>-Propyl-2-oxazoline;2-Propyl-4,5-dihydrooxazole",
    "duplicated_cas_no": "",
    "SMILES": "C(CC)C1=NCCO1",
    "meta_data": {
        "InChI": "InChI=1S/C6H11NO/c1-2-3-6-7-4-5-8-6/h2-5H2,1H3",
        "InChIKey": null,
        "Canonical SMILES": "N1=C(OCC1)CCC",
        "Molecular Formula": "C<sub>6</sub>H<sub>11</sub>NO",
        "Molecular Mass": "113.16",
        "Boiling Point": "147 °C"
    }
}