{
    "cas_no": "5380-42-7",
    "key_name": "Methyl 2-thiophenecarboxylate",
    "cn_name": "噻吩-2-羧酸甲酯;噻吩-2-羧酸甲酯;",
    "alternate_name": "2-Thiophenecarboxylic acid, methyl ester;Methyl 2-thiophenecarboxylate;2-(Methoxycarbonyl)thiophene;2-(Carbomethoxy)thiophene;Methyl 2-thienylcarboxylate;NSC 19879",
    "duplicated_cas_no": "",
    "SMILES": "C(OC)(=O)C1=CC=CS1",
    "meta_data": {
        "InChI": "InChI=1S/C6H6O2S/c1-8-6(7)5-3-2-4-9-5/h2-4H,1H3",
        "InChIKey": null,
        "Canonical SMILES": "O=C(OC)C=1SC=CC1",
        "Molecular Formula": "C<sub>6</sub>H<sub>6</sub>O<sub>2</sub>S",
        "Molecular Mass": "142.18",
        "Boiling Point": "82-83 °C @ Press: 8 Torr",
        "Density": "1.23 g/cm³"
    }
}