{
    "cas_no": "29070-92-6",
    "key_name": "Pachymic acid",
    "cn_name": "茯苓酸;茯灵酸;",
    "alternate_name": "Lanost-8-en-21-oic acid, 3-(acetyloxy)-16-hydroxy-24-methylene-, (3β,16α)-;Lanost-8-en-21-oic acid, 3β,16α-dihydroxy-24-methylene-, 3-acetate;Eburica-8,24(28)-dien-21-oic acid, 3β,16α-dihydroxy-, 3-acetate;(3β,16α)-3-(Acetyloxy)-16-hydroxy-24-methylenelanost-8-en-21-oic acid;Pachymic acid;3-<em>O</em>-Acetyltumulosic acid;NSC 244427",
    "duplicated_cas_no": "",
    "SMILES": "C[C@]12[C@@](C)([C@@]([C@@H](CCC(C(C)C)=C)C(O)=O)([C@H](O)C1)[H])CCC3=C2CC[C@@]4([C@]3(C)CC[C@H](OC(C)=O)C4(C)C)[H]",
    "meta_data": {
        "InChI": "InChI=1S/C33H52O5/c1-19(2)20(3)10-11-22(29(36)37)28-25(35)18-33(9)24-12-13-26-30(5,6)27(38-21(4)34)15-16-31(26,7)23(24)14-17-32(28,33)8/h19,22,25-28,35H,3,10-18H2,1-2,4-9H3,(H,36,37)/t22-,25-,26+,27+,28+,31-,32-,33+/m1/s1",
        "InChIKey": null,
        "Canonical SMILES": "O=C(OC1CCC2(C3=C(CCC2C1(C)C)C4(C)CC(O)C(C(C(=O)O)CCC(=C)C(C)C)C4(C)CC3)C)C",
        "Molecular Formula": "C<sub>33</sub>H<sub>52</sub>O<sub>5</sub>",
        "Molecular Mass": "528.76",
        "Melting Point": "300 °C"
    }
}