{
    "cas_no": "17449-76-2",
    "key_name": "Cyclohexanecarboxylic acid, 4-hydroxy-, methyl ester",
    "cn_name": null,
    "alternate_name": "Cyclohexanecarboxylic acid, 4-hydroxy-, methyl ester;Methyl 4-hydroxycyclohexanecarboxylate;4-Hydroxycyclohexanecarboxylic acid methyl ester",
    "duplicated_cas_no": "",
    "SMILES": "C(OC)(=O)C1CCC(O)CC1",
    "meta_data": {
        "InChI": "InChI=1S/C8H14O3/c1-11-8(10)6-2-4-7(9)5-3-6/h6-7,9H,2-5H2,1H3",
        "InChIKey": null,
        "Canonical SMILES": "O=C(OC)C1CCC(O)CC1",
        "Molecular Formula": "C<sub>8</sub>H<sub>14</sub>O<sub>3</sub>",
        "Molecular Mass": "158.20",
        "Boiling Point": "80-100 °C @ Press: 1 Torr"
    }
}