{
    "cas_no": "7505-81-9",
    "key_name": "2-(Methylamino)benzamide",
    "cn_name": null,
    "alternate_name": "Benzamide, 2-(methylamino)-;Benzamide, <em>o</em>-(methylamino)-;2-(Methylamino)benzamide;NSC 401247;2-Carbamoyl-<em>N</em>-methylaniline",
    "duplicated_cas_no": "",
    "SMILES": "N(C)C1=C(C(N)=O)C=CC=C1",
    "meta_data": {
        "InChI": "InChI=1S/C8H10N2O/c1-10-7-5-3-2-4-6(7)8(9)11/h2-5,10H,1H3,(H2,9,11)",
        "InChIKey": null,
        "Canonical SMILES": "O=C(N)C=1C=CC=CC1NC",
        "Molecular Formula": "C<sub>8</sub>H<sub>10</sub>N<sub>2</sub>O",
        "Molecular Mass": "150.18",
        "Melting Point": "162 °C"
    }
}