{
    "cas_no": "20924-57-6",
    "key_name": "3,4-Dihydro-1<em>H</em>-2-benzopyran-4-ol",
    "cn_name": null,
    "alternate_name": "1<em>H</em>-2-Benzopyran-4-ol, 3,4-dihydro-;4-Isochromanol;3,4-Dihydro-1<em>H</em>-2-benzopyran-4-ol;3,4-Dihydro-1<em>H</em>-isochromen-4-ol",
    "duplicated_cas_no": "",
    "SMILES": "OC1C=2C(COC1)=CC=CC2",
    "meta_data": {
        "InChI": "InChI=1S/C9H10O2/c10-9-6-11-5-7-3-1-2-4-8(7)9/h1-4,9-10H,5-6H2",
        "InChIKey": null,
        "Canonical SMILES": "OC1C=2C=CC=CC2COC1",
        "Molecular Formula": "C<sub>9</sub>H<sub>10</sub>O<sub>2</sub>",
        "Molecular Mass": "150.17",
        "Melting Point": "68 °C"
    }
}