{
    "cas_no": "61422-45-5",
    "key_name": "Carmofur",
    "cn_name": "卡莫氟;1-己氨基甲酰-5-氟脲嘧啶;1-己胺基甲酰-5-氟-2,4-嘧啶二酮;",
    "alternate_name": "1(2<em>H</em>)-Pyrimidinecarboxamide, 5-fluoro-<em>N</em>-hexyl-3,4-dihydro-2,4-dioxo-;5-Fluoro-<em>N</em>-hexyl-3,4-dihydro-2,4-dioxo-1(2<em>H</em>)-pyrimidinecarboxamide;1-(Hexylcarbamoyl)-5-fluorouracil;1-(<em>n</em>-Hexylcarbamoyl)-5-fluorouracil;HCFU;1-(Hexylcarbamyl)-5-fluorouracil;Carmofur;Mifurol;Yamaful",
    "duplicated_cas_no": "",
    "SMILES": "C(NCCCCCC)(=O)N1C(=O)NC(=O)C(F)=C1",
    "meta_data": {
        "InChI": "InChI=1S/C11H16FN3O3/c1-2-3-4-5-6-13-10(17)15-7-8(12)9(16)14-11(15)18/h7H,2-6H2,1H3,(H,13,17)(H,14,16,18)",
        "InChIKey": null,
        "Canonical SMILES": "O=C1NC(=O)N(C=C1F)C(=O)NCCCCCC",
        "Molecular Formula": "C<sub>11</sub>H<sub>16</sub>FN<sub>3</sub>O<sub>3</sub>",
        "Molecular Mass": "257.26",
        "Melting Point": "110-111 °C"
    }
}