{
    "cas_no": "56210-72-1",
    "key_name": "Bis[(<em>S</em>)-1-phenylethyl]amine",
    "cn_name": null,
    "alternate_name": "Benzenemethanamine, α-methyl-<em>N</em>-[(1<em>S</em>)-1-phenylethyl]-, (α<em>S</em>)-;Benzenemethanamine, α-methyl-<em>N</em>-(1-phenylethyl)-, [<em>S</em>-(<em>R</em>*,<em>R</em>*)]-;(α<em>S</em>)-α-Methyl-<em>N</em>-[(1<em>S</em>)-1-phenylethyl]benzenemethanamine;(-)-α,α′-Dimethyldibenzylamine;(<em>S</em>,<em>S</em>)-α,α′-Dimethyldibenzylamine;(<em>S</em>,<em>S</em>)-Di(1-phenylethyl)amine;(-)-Bis[(<em>S</em>)-1-phenylethyl]amine;(<em>S</em>,<em>S</em>)-<em>N</em>,<em>N</em>-Bis(1-phenylethyl)amine;(<em>S</em>,<em>S</em>)-Bis(α-methylbenzyl)amine;(<em>S</em>,<em>S</em>)-[Bis(1-phenylethyl)]amine;Bis[(<em>S</em>)-1-phenylethyl]amine;(1S)-1-Phenyl-<em>N</em>-[(1S)-1-phenylethyl]ethanamine;Bis((1<em>S</em>)-1-phenylethyl)amine;Bis[(1S)-1-phenylethyl]amine",
    "duplicated_cas_no": "23312-49-4;169172-51-4",
    "SMILES": "[C@H](N[C@@H](C)C1=CC=CC=C1)(C)C2=CC=CC=C2",
    "meta_data": {
        "InChI": "InChI=1S/C16H19N/c1-13(15-9-5-3-6-10-15)17-14(2)16-11-7-4-8-12-16/h3-14,17H,1-2H3/t13-,14-/m0/s1",
        "InChIKey": null,
        "Canonical SMILES": "C=1C=CC(=CC1)C(NC(C=2C=CC=CC2)C)C",
        "Molecular Formula": "C<sub>16</sub>H<sub>19</sub>N",
        "Molecular Mass": "225.33",
        "Boiling Point": "78 °C @ Press: 0.021 Torr"
    }
}