{
    "cas_no": "7789-29-9",
    "key_name": "Potassium bifluoride",
    "cn_name": "氟化氢钾;氟氢化钾;酸式氟化钾;二氟氢化钾;",
    "alternate_name": "Potassium fluoride (K(HF<sub>2</sub>));Potassium acid fluoride;Potassium bifluoride;Potassium hydrogen fluoride;Potassium hydrogen difluoride;Potassium monohydrogen difluoride;Potassium bifluoride (KHF<sub>2</sub>);Potassium hydrogen fluoride (KHF<sub>2</sub>);Hydrogen potassium fluoride (HKF<sub>2</sub>);Hydrogen potassium difluoride;Hydrogen potassium fluoride;Potassium fluoride hydrofluoride;Potassium acid bifluoride;Difluoro(hydro)potassium",
    "duplicated_cas_no": "12020-82-5;18623-82-0;59111-23-8;65086-44-4;70876-63-0;140406-37-7;144705-55-5;161403-69-6;863982-24-5;1187680-46-1;2041645-28-5;2173135-22-1;2273801-31-1;2363713-88-4;2460604-27-5;2604174-52-7;2639627-69-1",
    "SMILES": "",
    "meta_data": {
        "InChI": "",
        "InChIKey": null,
        "Canonical SMILES": "",
        "Molecular Formula": "F<sub>2</sub>HK",
        "Molecular Mass": "",
        "Melting Point": "227 °C"
    }
}