{
    "uri": "substance/pt/7789299",
    "rn": "7789-29-9",
    "name": "Potassium bifluoride",
    "images": [],
    "inchi": "",
    "inchiKey": "",
    "smile": "",
    "canonicalSmile": "",
    "molecularFormula": "F<sub>2</sub>HK",
    "molecularMass": "",
    "experimentalProperties": [
        {
            "name": "Melting Point",
            "property": "227 °C",
            "sourceNumber": 1
        }
    ],
    "propertyCitations": [
        {
            "docUri": "document/pt/document/23461191",
            "sourceNumber": 1,
            "source": "Meyer, Friedrich; Berichte der Deutschen Chemischen Gesellschaft [Abteilung] B: Abhandlungen, (1921), 54B, 759-66, CAplus"
        }
    ],
    "synonyms": [
        "Potassium fluoride (K(HF<sub>2</sub>))",
        "Potassium acid fluoride",
        "Potassium bifluoride",
        "Potassium hydrogen fluoride",
        "Potassium hydrogen difluoride",
        "Potassium monohydrogen difluoride",
        "Potassium bifluoride (KHF<sub>2</sub>)",
        "Potassium hydrogen fluoride (KHF<sub>2</sub>)",
        "Hydrogen potassium fluoride (HKF<sub>2</sub>)",
        "Hydrogen potassium difluoride",
        "Hydrogen potassium fluoride",
        "Potassium fluoride hydrofluoride",
        "Potassium acid bifluoride",
        "Difluoro(hydro)potassium"
    ],
    "replacedRns": [
        "12020-82-5",
        "18623-82-0",
        "59111-23-8",
        "65086-44-4",
        "70876-63-0",
        "140406-37-7",
        "144705-55-5",
        "161403-69-6",
        "863982-24-5",
        "1187680-46-1",
        "2041645-28-5",
        "2173135-22-1",
        "2273801-31-1",
        "2363713-88-4",
        "2460604-27-5",
        "2604174-52-7",
        "2639627-69-1"
    ],
    "hasMolfile": false,
    "source": "https://commonchemistry.cas.org/detail?cas_rn=7789-29-9"
}