{
    "cas_no": "17070-70-1",
    "key_name": "Chloro(3-isocyanatopropyl)dimethylsilane",
    "cn_name": null,
    "alternate_name": "Silane, chloro(3-isocyanatopropyl)dimethyl-;Isocyanic acid, 3-(chlorodimethylsilyl)propyl ester;Chloro(3-isocyanatopropyl)dimethylsilane;3-(Dimethylchlorosilyl)propyl isocyanate;(3-Isocyanatopropyl)dimethylchlorosilane",
    "duplicated_cas_no": "1379868-65-1",
    "SMILES": "C(C[Si](C)(C)Cl)CN=C=O",
    "meta_data": {
        "InChI": "InChI=1S/C6H12ClNOSi/c1-10(2,7)5-3-4-8-6-9/h3-5H2,1-2H3",
        "InChIKey": null,
        "Canonical SMILES": "O=C=NCCC[Si](Cl)(C)C",
        "Molecular Formula": "C<sub>6</sub>H<sub>12</sub>ClNOSi",
        "Molecular Mass": "177.70",
        "Boiling Point": "62-66 °C @ Press: 0.6 Torr",
        "Density": "1.0444 g/cm³ @ Temp: 20 °C"
    }
}