{
    "cas_no": "18547-93-8",
    "key_name": "1,1′-[(1,1,3,3-Tetramethyl-1,3-disiloxanediyl)di-3,1-propanediyl] bis(2-methyl-2-propenoate)",
    "cn_name": null,
    "alternate_name": "2-Propenoic acid, 2-methyl-, 1,1′-[(1,1,3,3-tetramethyl-1,3-disiloxanediyl)di-3,1-propanediyl] ester;2-Propenoic acid, 2-methyl-, (1,1,3,3-tetramethyl-1,3-disiloxanediyl)di-3,1-propanediyl ester;Methacrylic acid, (tetramethyldisiloxanylene)bis(trimethylene) ester;1,1′-[(1,1,3,3-Tetramethyl-1,3-disiloxanediyl)di-3,1-propanediyl] bis(2-methyl-2-propenoate);TSL 9706;1,3-Bis(3-methacryloxypropyl)-1,1,3,3-tetramethyldisiloxane;1,3-Bis[3-(methacryloyloxy)propyl]tetramethyldisiloxane;1,3-Bis[3-(methacryloyloxy)propyl]-1,1,3,3-tetramethyldisiloxane;SIB 1402.0;1,3-Bis(3-methacryloxypropyl)tetramethyldisiloxane;Gelest 1402.0",
    "duplicated_cas_no": "1375360-15-8",
    "SMILES": "[Si](O[Si](CCCOC(C(C)=C)=O)(C)C)(CCCOC(C(C)=C)=O)(C)C",
    "meta_data": {
        "InChI": "InChI=1S/C18H34O5Si2/c1-15(2)17(19)21-11-9-13-24(5,6)23-25(7,8)14-10-12-22-18(20)16(3)4/h1,3,9-14H2,2,4-8H3",
        "InChIKey": null,
        "Canonical SMILES": "O=C(OCCC[Si](O[Si](C)(C)CCCOC(=O)C(=C)C)(C)C)C(=C)C",
        "Molecular Formula": "C<sub>18</sub>H<sub>34</sub>O<sub>5</sub>Si<sub>2</sub>",
        "Molecular Mass": "386.63",
        "Boiling Point": "127 °C @ Press: 3 Torr",
        "Density": "0.966 g/cm³ @ Temp: 25 °C"
    }
}