{
    "cas_no": "598-98-1",
    "key_name": "Methyl pivalate",
    "cn_name": "三甲基乙酸甲酯;叔戊酸甲酯;2,2-二甲基丙酸甲酯;",
    "alternate_name": "Propanoic acid, 2,2-dimethyl-, methyl ester;Pivalic acid, methyl ester;Methyl pivalate;Methyl trimethylacetate;Methyl 2,2-dimethylpropanoate;Methyl 2,2-dimethylpropionate;2,2-Dimethyl-propanoic acid methyl ester",
    "duplicated_cas_no": "",
    "SMILES": "C(C(C)(C)C)(OC)=O",
    "meta_data": {
        "InChI": "InChI=1S/C6H12O2/c1-6(2,3)5(7)8-4/h1-4H3",
        "InChIKey": null,
        "Canonical SMILES": "O=C(OC)C(C)(C)C",
        "Molecular Formula": "C<sub>6</sub>H<sub>12</sub>O<sub>2</sub>",
        "Molecular Mass": "116.16",
        "Boiling Point": "101.1 °C",
        "Density": "0.891 g/cm³ @ Temp: 0 °C"
    }
}