{
    "cas_no": "72135-36-5",
    "key_name": "4-Bromo-2-methoxybenzoic acid",
    "cn_name": null,
    "alternate_name": "Benzoic acid, 4-bromo-2-methoxy-;4-Bromo-2-methoxybenzoic acid;2-Methoxy-4-bromobenzoic acid;Methyl 4-bromosalicylate",
    "duplicated_cas_no": "",
    "SMILES": "O(C)C1=C(C(O)=O)C=CC(Br)=C1",
    "meta_data": {
        "InChI": "InChI=1S/C8H7BrO3/c1-12-7-4-5(9)2-3-6(7)8(10)11/h2-4H,1H3,(H,10,11)",
        "InChIKey": null,
        "Canonical SMILES": "O=C(O)C1=CC=C(Br)C=C1OC",
        "Molecular Formula": "C<sub>8</sub>H<sub>7</sub>BrO<sub>3</sub>",
        "Molecular Mass": "231.04",
        "Melting Point": "155 °C"
    }
}