{
    "cas_no": "2434-49-3",
    "key_name": "Dihydro-6-methyl-2,4(1<em>H</em>,3<em>H</em>)-pyrimidinedione",
    "cn_name": "5,6-二氢-6-甲基尿嘧啶;二氢-6-甲基-2,4-二嘧啶酮;",
    "alternate_name": "2,4(1<em>H</em>,3<em>H</em>)-Pyrimidinedione, dihydro-6-methyl-;Hydrouracil, 6-methyl-;Dihydro-6-methyl-2,4(1<em>H</em>,3<em>H</em>)-pyrimidinedione;Dihydro-6-methyluracil;6-Methyldihydrouracil;6-Methyl-5,6-dihydrouracil;5,6-Dihydro-6-methyluracil;4-Methyldihydrouracil;NSC 44127;6-Methyldihydropyrimidine-2,4(1<em>H</em>,3<em>H</em>)-dione",
    "duplicated_cas_no": "93404-43-4",
    "SMILES": "CC1CC(=O)NC(=O)N1",
    "meta_data": {
        "InChI": "InChI=1S/C5H8N2O2/c1-3-2-4(8)7-5(9)6-3/h3H,2H2,1H3,(H2,6,7,8,9)",
        "InChIKey": null,
        "Canonical SMILES": "O=C1NC(=O)CC(N1)C",
        "Molecular Formula": "C<sub>5</sub>H<sub>8</sub>N<sub>2</sub>O<sub>2</sub>",
        "Molecular Mass": "128.13",
        "Melting Point": "218 °C",
        "Density": "1.149 g/cm³"
    }
}