{
    "cas_no": "16588-34-4",
    "key_name": "4-Chloro-3-nitrobenzaldehyde",
    "cn_name": "4-氯-3-硝基苯甲醛;",
    "alternate_name": "Benzaldehyde, 4-chloro-3-nitro-;4-Chloro-3-nitrobenzaldehyde;3-Nitro-4-chlorobenzaldehyde;2-Chloro-5-formylnitrobenzene;NSC 68097",
    "duplicated_cas_no": "",
    "SMILES": "N(=O)(=O)C1=CC(C=O)=CC=C1Cl",
    "meta_data": {
        "InChI": "InChI=1S/C7H4ClNO3/c8-6-2-1-5(4-10)3-7(6)9(11)12/h1-4H",
        "InChIKey": null,
        "Canonical SMILES": "O=CC1=CC=C(Cl)C(=C1)N(=O)=O",
        "Molecular Formula": "C<sub>7</sub>H<sub>4</sub>ClNO<sub>3</sub>",
        "Molecular Mass": "185.56",
        "Melting Point": "65 °C"
    }
}