{
    "cas_no": "3040-44-6",
    "key_name": "1-Piperidineethanol",
    "cn_name": "N-羟乙基哌啶;N-哌啶乙醇;N-(2-羟乙基)哌啶;1-(2-羟乙基)哌啶;",
    "alternate_name": "1-Piperidineethanol;2-Piperidinoethanol;2-(1-Piperidinyl)ethanol;β-Piperidinoethanol;<em>N</em>-(2-Hydroxyethyl)piperidine;1-(2-Hydroxyethyl)piperidine;<em>N</em>-(β-Hydroxyethyl)piperidine;<em>N</em>-Piperidineethanol;<em>N</em>-Piperidinoethanol;2-(<em>N</em>-Piperidino)ethanol;2-(1-Piperidino)ethanol;2-(Piperid-1-yl)ethanol;NSC 3460;2-(Piperidine-1-yl)ethanol;2-(Piperidin-1-yl)ethan-1-ol",
    "duplicated_cas_no": "",
    "SMILES": "C(CO)N1CCCCC1",
    "meta_data": {
        "InChI": "InChI=1S/C7H15NO/c9-7-6-8-4-2-1-3-5-8/h9H,1-7H2",
        "InChIKey": null,
        "Canonical SMILES": "OCCN1CCCCC1",
        "Molecular Formula": "C<sub>7</sub>H<sub>15</sub>NO",
        "Molecular Mass": "129.20",
        "Boiling Point": "202 °C",
        "Melting Point": "17.9 °C",
        "Density": "0.9732 g/cm³ @ Temp: 25 °C"
    }
}