{
    "cas_no": "52617-37-5",
    "key_name": "Ponicidin",
    "cn_name": null,
    "alternate_name": "Kaur-16-en-15-one, 7,20:14,20-diepoxy-1,6,7-trihydroxy-, (1α,6β,7α,14<em>S</em>,20<em>S</em>)-;Ponicidin;4,1,5,8-[1]Propanyl[3]ylidyne-1<em>H</em>,6a<em>H</em>,8<em>H</em>-oxocino[3,2-<em>j</em>][2]benzopyran, kaur-16-en-15-one deriv.;(1α,6β,7α,14<em>S</em>,20<em>S</em>)-7,20:14,20-Diepoxy-1,6,7-trihydroxykaur-16-en-15-one;Rubescensin B;Rubescensine B",
    "duplicated_cas_no": "11031-30-4",
    "SMILES": "O[C@@]12[C@]34[C@@]5([C@@]6([C@](O1)(O[C@]3([C@](C(=C)C4=O)(CC5)[H])[H])[H])[C@]([C@@H]2O)(C(C)(C)CC[C@@H]6O)[H])[H]",
    "meta_data": {
        "InChI": "InChI=1S/C20H26O6/c1-8-9-4-5-10-18-11(21)6-7-17(2,3)12(18)14(23)20(24)19(10,13(8)22)15(9)25-16(18)26-20/h9-12,14-16,21,23-24H,1,4-7H2,2-3H3/t9-,10-,11-,12+,14-,15-,16-,18-,19-,20+/m0/s1",
        "InChIKey": null,
        "Canonical SMILES": "O=C1C(=C)C2CCC3C14C2OC5OC4(O)C(O)C6C(C)(C)CCC(O)C536",
        "Molecular Formula": "C<sub>20</sub>H<sub>26</sub>O<sub>6</sub>",
        "Molecular Mass": "362.42",
        "Melting Point": "239-242 °C"
    }
}