{
    "cas_no": "104-36-9",
    "key_name": "1,4-Dibutoxybenzene",
    "cn_name": "1,4-二丁氧基苯;",
    "alternate_name": "Benzene, 1,4-dibutoxy-;Benzene, <em>p</em>-dibutoxy-;1,4-Dibutoxybenzene;<em>p</em>-Dibutoxybenzene;Hydroquinone dibutyl ether;1,4-Bis(butoxy)benzene;NSC 2754;NSC 404303;1,4-Dibutoxyphenylene",
    "duplicated_cas_no": "",
    "SMILES": "O(CCCC)C1=CC=C(OCCCC)C=C1",
    "meta_data": {
        "InChI": "InChI=1S/C14H22O2/c1-3-5-11-15-13-7-9-14(10-8-13)16-12-6-4-2/h7-10H,3-6,11-12H2,1-2H3",
        "InChIKey": null,
        "Canonical SMILES": "O(C1=CC=C(OCCCC)C=C1)CCCC",
        "Molecular Formula": "C<sub>14</sub>H<sub>22</sub>O<sub>2</sub>",
        "Molecular Mass": "222.32",
        "Boiling Point": "125-135 °C @ Press: 5 Torr",
        "Melting Point": "45.5 °C"
    }
}