{
    "cas_no": "4611-62-5",
    "key_name": "1,2-Benzisoxazolium, 2-ethyl-, tetrafluoroborate(1-) (1:1)",
    "cn_name": "N-乙基苯异恶唑酮四氟硼酸盐;",
    "alternate_name": "1,2-Benzisoxazolium, 2-ethyl-, tetrafluoroborate(1-) (1:1);1,2-Benzisoxazolium, 2-ethyl-, tetrafluoroborate(1-);2-Ethyl-1,2-benzisoxazolium tetrafluoroborate;Borate(1-), tetrafluoro-, 2-ethyl-1,2-benzisoxazolium;NSC 308785;2-Ethyl-1,2-benzoxazol-2-ium; tetrafluoroboranuide",
    "duplicated_cas_no": "",
    "SMILES": "C(C)[N+]1=CC=2C(O1)=CC=CC2.[B+3]([F-])([F-])([F-])[F-]",
    "meta_data": {
        "InChI": "InChI=1S/C9H10NO.BF4/c1-2-10-7-8-5-3-4-6-9(8)11-10;2-1(3,4)5/h3-7H,2H2,1H3;/q+1;-1",
        "InChIKey": null,
        "Canonical SMILES": "[F-][B+3]([F-])([F-])[F-].O1C=2C=CC=CC2C=[N+]1CC",
        "Molecular Formula": "C<sub>9</sub>H<sub>10</sub>NO.BF<sub>4</sub>",
        "Molecular Mass": "",
        "Melting Point": "109.5-110.2 °C"
    }
}