{
    "cas_no": "695-12-5",
    "key_name": "Vinylcyclohexane",
    "cn_name": "乙烯基环己烷;",
    "alternate_name": "Cyclohexane, ethenyl-;Cyclohexane, vinyl-;Ethenylcyclohexane;Vinylcyclohexane;Cyclohexylethylene;Cyclohexylethene;NSC 73939;Hexahydrostyrene;4-Vinylcyclohexane;1-Cyclohexylethene",
    "duplicated_cas_no": "2056117-94-1",
    "SMILES": "C(=C)C1CCCCC1",
    "meta_data": {
        "InChI": "InChI=1S/C8H14/c1-2-8-6-4-3-5-7-8/h2,8H,1,3-7H2",
        "InChIKey": null,
        "Canonical SMILES": "C=CC1CCCCC1",
        "Molecular Formula": "C<sub>8</sub>H<sub>14</sub>",
        "Molecular Mass": "110.20",
        "Boiling Point": "128 °C",
        "Melting Point": "121 °C",
        "Density": "0.842 g/cm³ @ Temp: 0 °C"
    }
}