{
    "cas_no": "7790-53-6",
    "key_name": "Potassium metaphosphate",
    "cn_name": null,
    "alternate_name": "Metaphosphoric acid (HPO<sub>3</sub>), potassium salt (1:1);Potassium metaphosphate (KPO<sub>3</sub>);Metaphosphoric acid (HPO<sub>3</sub>), potassium salt;Kurrol's salt;Potassium phosphate (KPO<sub>3</sub>);Potassium polymetaphosphate;Potassium Kurrol's salt;Potassium metaphosphate",
    "duplicated_cas_no": "12764-57-7;151901-76-7",
    "SMILES": "P(=O)(=O)O.[K]",
    "meta_data": {
        "InChI": "InChI=1S/K.HO3P/c;1-4(2)3/h;(H,1,2,3)",
        "InChIKey": null,
        "Canonical SMILES": "[K].O=P(=O)O",
        "Molecular Formula": "HO<sub>3</sub>P.K",
        "Molecular Mass": "",
        "Melting Point": "806 °C",
        "Density": "2.48 g/cm³"
    }
}