{
    "cas_no": "175135-49-6",
    "key_name": "<em>N</em>-[2-Bromo-4-(trifluoromethyl)phenyl]acetamide",
    "cn_name": null,
    "alternate_name": "Acetamide, <em>N</em>-[2-bromo-4-(trifluoromethyl)phenyl]-;<em>N</em>-[2-Bromo-4-(trifluoromethyl)phenyl]acetamide",
    "duplicated_cas_no": "",
    "SMILES": "C(F)(F)(F)C1=CC(Br)=C(NC(C)=O)C=C1",
    "meta_data": {
        "InChI": "InChI=1S/C9H7BrF3NO/c1-5(15)14-8-3-2-6(4-7(8)10)9(11,12)13/h2-4H,1H3,(H,14,15)",
        "InChIKey": null,
        "Canonical SMILES": "O=C(NC1=CC=C(C=C1Br)C(F)(F)F)C",
        "Molecular Formula": "C<sub>9</sub>H<sub>7</sub>BrF<sub>3</sub>NO",
        "Molecular Mass": "282.06",
        "Melting Point": "146 °C"
    }
}