{
    "cas_no": "2901-75-9",
    "key_name": "<em>N</em>-Acetyl-<span class=\"text-smallcaps\">DL</span>-phenylalanine",
    "cn_name": "N-乙酰-DL-苯丙氨酸;",
    "alternate_name": "Phenylalanine, <em>N</em>-acetyl-;Alanine, <em>N</em>-acetyl-3-phenyl-, <span class=\"text-smallcaps\">DL</span>-;<span class=\"text-smallcaps\">DL</span>-Phenylalanine, <em>N</em>-acetyl-;<em>N</em>-Acetylphenylalanine;<em>N</em>-Acetyl-3-phenyl-<span class=\"text-smallcaps\">DL</span>-alanine;<em>N</em>-Acetyl-<span class=\"text-smallcaps\">DL</span>-phenylalanine;<span class=\"text-smallcaps\">DL</span>-2-Acetamido-3-phenylpropionic acid;<span class=\"text-smallcaps\">DL</span>-<em>N</em>-Acetyl-3-phenylalanine;<span class=\"text-smallcaps\">DL</span>-<em>N</em>-Acetylphenylalanine;(±)-<em>N</em>-Acetylphenylalanine;Afalanine;NSC 43242;2-Acetamido-3-phenylpropanoic acid;Phenylalanine, <em>N</em>-(1,2-dioxopropyl)-;2-Acetylamino-3-phenyl-propionic acid;MR 708",
    "duplicated_cas_no": "7782-51-6;2249737-32-2",
    "SMILES": "C(CC1=CC=CC=C1)(NC(C)=O)C(O)=O",
    "meta_data": {
        "InChI": "InChI=1S/C11H13NO3/c1-8(13)12-10(11(14)15)7-9-5-3-2-4-6-9/h2-6,10H,7H2,1H3,(H,12,13)(H,14,15)",
        "InChIKey": null,
        "Canonical SMILES": "O=C(O)C(NC(=O)C)CC=1C=CC=CC1",
        "Molecular Formula": "C<sub>11</sub>H<sub>13</sub>NO<sub>3</sub>",
        "Molecular Mass": "207.23",
        "Melting Point": "146 °C"
    }
}