{
    "cas_no": "12122-67-7",
    "key_name": "Zineb",
    "cn_name": "代森锌;1,2-亚乙基双二硫代氨基甲酸锌;乙撑-1,2-双二硫代氨基甲酸锌;",
    "alternate_name": "Zinc, [<em>N</em>-[2-[(dithiocarboxy)amino]ethyl]carbamodithioato(2-)-κ<em>S</em>,κ<em>S</em>′]-;Zinc, [ethylenebis[dithiocarbamato]]-;Zinc, [[1,2-ethanediylbis[carbamodithioato]](2-)]-;Zinc, [[2-[(dithiocarboxy)amino]ethyl]carbamodithioato(2-)-κ<em>S</em>,κ<em>S</em>′]-;Carbamodithioic acid, 1,2-ethanediylbis-, zinc complex;[<em>N</em>-[2-[(Dithiocarboxy)amino]ethyl]carbamodithioato(2-)-κ<em>S</em>,κ<em>S</em>′]zinc;Aspor;Blizene;Carbadine;Dithane Z 78;Lirotan;Lonacol;Novozir N;Parzate zineb;Zineb;Cynkotox;Hexathane;Asporum;Crittox;Micide 55;Zineb 80;Carbamodithioic acid, 1,2-ethanediylbis-, zinc salt;Zebenide;Dithane Z;Novozir N 50;Novozir;Daisen;Dithane 65;Perozine;Perozin;Zinc ethylenebis[dithiocarbamate];Discon;Perozine 75B;Perozin 75B;Ethylenebis[dithiocarbamato]zinc;Ethylenebis[dithiocarbamic acid] zinc salt;Zinc <em>N</em>,<em>N</em>′-ethylenebisdithiocarbamate;Aaphytora;Aphytora;Deikusol;Fungo-Pulvit;Thionic M;Pilzol SZ;Unizeb;Zinosan;Aspor C;Funjeb;Polyram Z;Phytox;Dipher;Tiezene;Zebtox;Tritoftorol;Curit;Turbair Zineb Fungicide;Bonzeb 10;Bonzeb;Indofil Z 78;Azzurro;NSC 49513;Zineb TC;MeSH ID: D015038",
    "duplicated_cas_no": "142-14-3;1360-39-0;12673-65-3;14039-25-9;14242-12-7;14460-17-4;20316-44-3;21512-95-8;39357-09-0;70066-35-2;84653-18-9;879637-41-9;1135443-09-2",
    "SMILES": "N(CCNC(=S)[S-])C=1[S-][Zn+2][S]1",
    "meta_data": {
        "InChI": "InChI=1S/C4H8N2S4.Zn/c7-3(8)5-1-2-6-4(9)10;/h1-2H2,(H2,5,7,8)(H2,6,9,10);/q;+2/p-2",
        "InChIKey": null,
        "Canonical SMILES": "S=C([S-])NCCNC1=[S][Zn+2][S-]1",
        "Molecular Formula": "C<sub>4</sub>H<sub>6</sub>N<sub>2</sub>S<sub>4</sub>Zn",
        "Molecular Mass": "",
        "Melting Point": "157 °C (decomp)",
        "Density": "~1.74 g/cm³ (approx) @ Temp: 20 °C"
    }
}