{
    "cas_no": "123348-27-6",
    "key_name": "2-Bromo-7-iodo-9<em>H</em>-fluorene",
    "cn_name": null,
    "alternate_name": "9<em>H</em>-Fluorene, 2-bromo-7-iodo-;2-Bromo-7-iodo-9<em>H</em>-fluorene;2-Bromo-7-iodofluorene;2-Bromo-7-iodo-9<em>H</em>-fluoren",
    "duplicated_cas_no": "",
    "SMILES": "BrC=1C=C2C(C=3C(C2)=CC(I)=CC3)=CC1",
    "meta_data": {
        "InChI": "InChI=1S/C13H8BrI/c14-10-1-3-12-8(6-10)5-9-7-11(15)2-4-13(9)12/h1-4,6-7H,5H2",
        "InChIKey": null,
        "Canonical SMILES": "BrC=1C=CC=2C3=CC=C(I)C=C3CC2C1",
        "Molecular Formula": "C<sub>13</sub>H<sub>8</sub>BrI",
        "Molecular Mass": "371.01",
        "Melting Point": "160.5 °C"
    }
}