{
    "cas_no": "1530-88-7",
    "key_name": "1-Pyrrolidinecarbonitrile",
    "cn_name": "1-氰基吡咯烷;吡咯烷-1-甲腈;",
    "alternate_name": "1-Pyrrolidinecarbonitrile;Tetramethylenecyanamide;1-Cyanopyrrolidine;<em>N</em>-Cyanopyrrolidine;Pyrrolidinocarbonitrile;1-Pyrrolidinylcyanamide;NSC 44225;1-Pyrrolidinecyanamide",
    "duplicated_cas_no": "",
    "SMILES": "C(#N)N1CCCC1",
    "meta_data": {
        "InChI": "InChI=1S/C5H8N2/c6-5-7-3-1-2-4-7/h1-4H2",
        "InChIKey": null,
        "Canonical SMILES": "N#CN1CCCC1",
        "Molecular Formula": "C<sub>5</sub>H<sub>8</sub>N<sub>2</sub>",
        "Molecular Mass": "96.13",
        "Boiling Point": "107-110 °C @ Press: 17 Torr"
    }
}