{
    "cas_no": "2210-74-4",
    "key_name": "2-[(2-Methoxyphenoxy)methyl]oxirane",
    "cn_name": "愈创木酚缩水甘油醚;[(2-甲氧基苯氧基)甲基]环氧乙烷;",
    "alternate_name": "Oxirane, 2-[(2-methoxyphenoxy)methyl]-;Benzene, 1-(2,3-epoxypropoxy)-2-methoxy-;Oxirane, [(2-methoxyphenoxy)methyl]-;2-[(2-Methoxyphenoxy)methyl]oxirane;1-(2-Methoxyphenoxy)-2,3-epoxypropane;Glycidyl 2-methoxyphenyl ether;1,2-Epoxy-3-(2-methoxyphenoxy)propane;2-Methoxyphenyl glycidyl ether;1,2-Epoxy-3-(<em>o</em>-methoxyphenoxy)propane;2-(2,3-Epoxypropoxy)anisole;2-Methoxy-1-(oxiranylmethoxy)benzene;NSC 112256;NSC 133442;Glycidyl <em>o</em>-methoxyphenyl ether;1-(2,3-Epoxypropoxy)-2-methoxybenzene",
    "duplicated_cas_no": "95721-91-8;40807-66-7",
    "SMILES": "O(CC1CO1)C2=C(OC)C=CC=C2",
    "meta_data": {
        "InChI": "InChI=1S/C10H12O3/c1-11-9-4-2-3-5-10(9)13-7-8-6-12-8/h2-5,8H,6-7H2,1H3",
        "InChIKey": null,
        "Canonical SMILES": "O(C=1C=CC=CC1OCC2OC2)C",
        "Molecular Formula": "C<sub>10</sub>H<sub>12</sub>O<sub>3</sub>",
        "Molecular Mass": "180.20",
        "Boiling Point": "88-90 °C @ Press: 0.05 Torr",
        "Melting Point": "36 °C"
    }
}