{
    "cas_no": "42288-08-4",
    "key_name": "β,β,4-Trimethylbenzenepropanoic acid",
    "cn_name": "3-甲基-3-(4-甲基苯基)丁酸;",
    "alternate_name": "Benzenepropanoic acid, β,β,4-trimethyl-;Hydrocinnamic acid, <em>p</em>,β,β-trimethyl-;β,β,4-Trimethylbenzenepropanoic acid;3-Methyl-3-(4-methylphenyl)butanoic acid;3-Methyl-3-(4-methylphenyl)butyric acid;3-Methyl-3-<em>p</em>-tolylbutanoic acid;3-Methyl-3-<em>p</em>-tolyl-butyric acid",
    "duplicated_cas_no": "",
    "SMILES": "C(CC(O)=O)(C)(C)C1=CC=C(C)C=C1",
    "meta_data": {
        "InChI": "InChI=1S/C12H16O2/c1-9-4-6-10(7-5-9)12(2,3)8-11(13)14/h4-7H,8H2,1-3H3,(H,13,14)",
        "InChIKey": null,
        "Canonical SMILES": "O=C(O)CC(C1=CC=C(C=C1)C)(C)C",
        "Molecular Formula": "C<sub>12</sub>H<sub>16</sub>O<sub>2</sub>",
        "Molecular Mass": "192.25",
        "Melting Point": "76.5-77 °C"
    }
}