{
    "cas_no": "1081-77-2",
    "key_name": "<em>n</em>-Nonylbenzene",
    "cn_name": "正壬基苯;",
    "alternate_name": "Benzene, nonyl-;Nonane, 1-phenyl-;Nonylbenzene;1-Phenylnonane;<em>n</em>-Nonylbenzene;1-Nonylbenzene",
    "duplicated_cas_no": "",
    "SMILES": "C(CCCCCCCC)C1=CC=CC=C1",
    "meta_data": {
        "InChI": "InChI=1S/C15H24/c1-2-3-4-5-6-7-9-12-15-13-10-8-11-14-15/h8,10-11,13-14H,2-7,9,12H2,1H3",
        "InChIKey": null,
        "Canonical SMILES": "C=1C=CC(=CC1)CCCCCCCCC",
        "Molecular Formula": "C<sub>15</sub>H<sub>24</sub>",
        "Molecular Mass": "204.35",
        "Boiling Point": "280.5 °C",
        "Melting Point": "-24 °C",
        "Density": "0.8636 g/cm³ @ Temp: 20 °C"
    }
}