{
    "cas_no": "117-82-8",
    "key_name": "Bis(2-methoxyethyl) phthalate",
    "cn_name": "邻苯二甲酸二甲氧乙酯;",
    "alternate_name": "1,2-Benzenedicarboxylic acid, 1,2-bis(2-methoxyethyl) ester;Phthalic acid, bis(2-methoxyethyl) ester;1,2-Benzenedicarboxylic acid, bis(2-methoxyethyl) ester;Ethanol, 2-methoxy-, phthalate (2:1);Bis(methoxyethyl) phthalate;Kesscoflex MCP;Methyl glycol phthalate;Bis(2-methoxyethyl) phthalate;2-Methoxyethyl phthalate;Dimethyl glycol phthalate;NSC 2147;KC 988;Bis(2-methoxyethyl)ester 1,2-benzenedicarboxylic acid;Di(2-methoxyethyl) phthalate",
    "duplicated_cas_no": "",
    "SMILES": "C(OCCOC)(=O)C1=C(C(OCCOC)=O)C=CC=C1",
    "meta_data": {
        "InChI": "InChI=1S/C14H18O6/c1-17-7-9-19-13(15)11-5-3-4-6-12(11)14(16)20-10-8-18-2/h3-6H,7-10H2,1-2H3",
        "InChIKey": null,
        "Canonical SMILES": "O=C(OCCOC)C=1C=CC=CC1C(=O)OCCOC",
        "Molecular Formula": "C<sub>14</sub>H<sub>18</sub>O<sub>6</sub>",
        "Molecular Mass": "282.29",
        "Boiling Point": "340 °C",
        "Melting Point": "-45 °C",
        "Density": "1 x 10<sup>-6</sup> g/cm³ @ Temp: 20 °C"
    }
}