{
    "cas_no": "851386-43-1",
    "key_name": "2,5-Difluoro-3-pyridinecarboxylic acid",
    "cn_name": null,
    "alternate_name": "3-Pyridinecarboxylic acid, 2,5-difluoro-;2,5-Difluoro-3-pyridinecarboxylic acid;2,5-Difluoropyridine-3-carboxylic acid;2,5-Difluoronicotinic acid",
    "duplicated_cas_no": "",
    "SMILES": "C(O)(=O)C1=C(F)N=CC(F)=C1",
    "meta_data": {
        "InChI": "InChI=1S/C6H3F2NO2/c7-3-1-4(6(10)11)5(8)9-2-3/h1-2H,(H,10,11)",
        "InChIKey": null,
        "Canonical SMILES": "O=C(O)C1=CC(F)=CN=C1F",
        "Molecular Formula": "C<sub>6</sub>H<sub>3</sub>F<sub>2</sub>NO<sub>2</sub>",
        "Molecular Mass": "159.09",
        "Melting Point": "90-92 °C"
    }
}