{
    "cas_no": "97-29-0",
    "key_name": "4,4′-Thiobis[1,3-benzenediol]",
    "cn_name": "2,2\",4,4\"-四羟基二苯硫醚;",
    "alternate_name": "1,3-Benzenediol, 4,4′-thiobis-;Resorcinol, 4,4′-thiodi-;4,4′-Thiobis[1,3-benzenediol];4,4′-Thiobis(resorcinol);4,4′-Diresorcyl sulfide;4,4′-Thiodiresorcinol;Bis(2,4-dihydroxyphenyl) sulfide;2,2′,4,4′-Tetrahydroxydiphenyl sulfide;2,2′,4,4′-Tetrahydroxydiphenyl thioether;NSC 59828;2,2′,4,4′-Tetrahydroxybiphenyl sulfide",
    "duplicated_cas_no": "",
    "SMILES": "S(C1=C(O)C=C(O)C=C1)C2=C(O)C=C(O)C=C2",
    "meta_data": {
        "InChI": "InChI=1S/C12H10O4S/c13-7-1-3-11(9(15)5-7)17-12-4-2-8(14)6-10(12)16/h1-6,13-16H",
        "InChIKey": null,
        "Canonical SMILES": "OC1=CC=C(SC2=CC=C(O)C=C2O)C(O)=C1",
        "Molecular Formula": "C<sub>12</sub>H<sub>10</sub>O<sub>4</sub>S",
        "Molecular Mass": "250.27",
        "Melting Point": "186-187 °C"
    }
}