{
    "cas_no": "613-97-8",
    "key_name": "<em>N</em>-Ethyl-<em>N</em>-methylaniline",
    "cn_name": null,
    "alternate_name": "Benzenamine, <em>N</em>-ethyl-<em>N</em>-methyl-;Aniline, <em>N</em>-ethyl-<em>N</em>-methyl-;<em>N</em>-Ethyl-<em>N</em>-methylbenzenamine;<em>N</em>-Ethyl-<em>N</em>-methylaniline;<em>N</em>-Methyl-<em>N</em>-ethylaniline;Ethylmethylaniline;NSC 3832",
    "duplicated_cas_no": "",
    "SMILES": "N(CC)(C)C1=CC=CC=C1",
    "meta_data": {
        "InChI": "InChI=1S/C9H13N/c1-3-10(2)9-7-5-4-6-8-9/h4-8H,3H2,1-2H3",
        "InChIKey": null,
        "Canonical SMILES": "C=1C=CC(=CC1)N(C)CC",
        "Molecular Formula": "C<sub>9</sub>H<sub>13</sub>N",
        "Molecular Mass": "135.21",
        "Boiling Point": "204 °C"
    }
}