{
    "cas_no": "618-65-5",
    "key_name": "Helicin",
    "cn_name": "水杨醛葡糖甙水合物;",
    "alternate_name": "Benzaldehyde, 2-(β-<span class=\"text-smallcaps\">D</span>-glucopyranosyloxy)-;Helicin;2-(β-<span class=\"text-smallcaps\">D</span>-Glucopyranosyloxy)benzaldehyde;Salicylaldehyde 3-<em>O</em>-acetyl-β-<span class=\"text-smallcaps\">D</span>-glucopyranoside",
    "duplicated_cas_no": "147590-47-4",
    "SMILES": "O([C@@H]1O[C@H](CO)[C@@H](O)[C@H](O)[C@H]1O)C2=C(C=O)C=CC=C2",
    "meta_data": {
        "InChI": "InChI=1S/C13H16O7/c14-5-7-3-1-2-4-8(7)19-13-12(18)11(17)10(16)9(6-15)20-13/h1-5,9-13,15-18H,6H2/t9-,10-,11+,12-,13-/m1/s1",
        "InChIKey": null,
        "Canonical SMILES": "O=CC=1C=CC=CC1OC2OC(CO)C(O)C(O)C2O",
        "Molecular Formula": "C<sub>13</sub>H<sub>16</sub>O<sub>7</sub>",
        "Molecular Mass": "284.26",
        "Melting Point": "175 °C"
    }
}