{
    "cas_no": "9003-55-8",
    "key_name": "Butadiene-styrene copolymer",
    "cn_name": null,
    "alternate_name": "Benzene, ethenyl-, polymer with 1,3-butadiene;Styrene, polymer with 1,3-butadiene;1,3-Butadiene, polymer with styrene;1,3-Butadiene, polymer with ethenylbenzene;Diarex 600;Edistir RB 268;Pliolite 491;1,3-Butadiene-styrene polymer;Styrene-butadiene copolymer;Butadiene-styrene polymer;Dienol S;Duranit 40;Polybutadiene-polystyrene copolymer;1,3-Butadiene-styrene copolymer;Thermolastic 125;Butadiene-styrene resin;Pharos 100.1;Pliolite S 5;Polyco 2410;Styrene-butadiene polymer;Styrene-1,3-butadiene copolymer;Pliolite 55B;DST 75;Duranit;Good-rite 1800X72;Hycar LX 407;K 55E;Marbon 9200;PS-SU<sub>2</sub>;UP 1E;Polyco 2415;Soil stabilizer 661;Pliolite S 5A;Afcolac B 101;Dow 460;Dow 680;Pliolite 160;K Resin KR 02;Dow Latex 612;TR 201;Pliolite S 5D;Butakon 85-71;SD 345 (polymer);Pliolite S 50;Histyrene S 6F;Nipol 407;BASF 661;Dow 234;Pliolite 151;SD 345;Lytron 5202;Marbon 8000A;Dow 612;Styronal PR 8104;Dow 636;Dow 8;TC 333;R 524;C 26-II;Denkacoat;Dow 305;Polyco 2430;EKCh 26A;Pliolite S 5B;Pliolite S 6F;Pliolite S 6H;DL 893;Dow 1571;K 900;K Resin BDF;Petroset DB;Darex 620L;Polyco 2445;Piccodiene 2212;Rhodopas SB 012;Darex 637;Dylex K 55E;Shell 333;Good-rite 2570;Butakon SL 104;R 4511;Dow 670;Dan Bond;Dunebond;XD 30374;Polylac X 211;SD 533;Nipol 2507;Rhodopas S 1B023;Erodofix;Struct-Bond 1057;Styron 461;BS 65GPN;C-Oil;Asahi Dow 2301;LS 1176B;Styrolux KR 2681;JSR-T 032;JSR-S 017G;Nipol LX 855;Litex SB 40;Nipol 415A;Struct-Bond 3522;DL 233A;DL 460E;Dow Latex DL 893;Styrene butadiene resin;76RES4402;Pliolite S 7;Butofan DS 2095;620A;Estyrene S 61;RCI 69700;Paradiene 20;Diabond 150A;Pliotone 1010;UZ 1;KK 36;P 8702;L 1235;L 1365;T 1242;JSR-PCL 640;Litex PS 5520;Litex X 5621;Lipolan NW 5022;Lipolan 4812;Lipolan NW 5522;Vestyron 620;76RES4100;Intex 2003;Intex 084;Dow 242;PT 1078;PT 1079;Lubrizol 7443;Lacstar 7440A;JSR 0693;Lacstar DS 405;LXC 8303NA;Asaflex 1015;CP 620A;Dow Latex 460;Millionate CR;RAP 344;Styrofan HD 1123;P 8Y29;P 2185;DL 945;76RES4470;Styronal PR 8669;Styronal D 718;Styronal D 808;RAP 107;Styron XL 8028;Styrolux 684D-Q188;SN 332;Arlatex 43DA;T 1443;PL 518;JSR 0624;ABR 60;Pliolite TM-S 5A;R 104;R 104 (styrene polymer);Lacstar 3500T;Patelacol HB 604;Instabond LB 320;DL 219;SN 316;L 1166;DL 219 (binder);DL 460NA;TO 135;Patelacol HB 504;JSR-T 2255;JSR-T 2250K;Nipol XS 1107;Lubrizol LZ 7342;Polylac 750K;Lacqren 7240;L 1210-01;L 1410-01;L 1233-12;Synthemul 96-023;L 2250;Genflo 5916;Reichhold 97966;L 8801;L 1612;TPS 125;DL 925;S 2567A1;S 2563C3;SSD 14;JSR-S 2567A1;JSR-S 2563C3;SS 3002;Dow 905;Polylac ML 518;L 1392;P 5838;L 1288;P 7111;P 6741;P 7698;Pliolite AC 4;P 7112;Bustilat;Styronal NX 4515X;Styronal FD 516;Styrofan LD 716;L 1876;P 5980;L 1301;Dow 316;Dow 383;Asaflex 845;Good-rite SB 1168;Styronal 328;Styronal 805;Nipol PT 1051;NSH 8003;Rhodopas SB 123;Styrene-divinyl copolymer;SKS 75;RAP 456NA;LX 407C5;Butadiene-styrene copolymer;Tuftec H 1013;XUR-YM 12274;Dow 8879;Lubrizol 5994;Kraton D 1401P;Styrofan ND 593;Smartex 752A;Poly(styrene-co-butadiene);DL 379;HOJ 4072;Estyrene HI-H 53;Rovene 4817;Estyrene HI-H 65;DL 930;Rhodopas SB 023;Pliolite S 6B;Styronal 4202;Styronal D 610;Styronal D 615;Styronal PR 8736;Styronal LD 615;L 1970;Intex 5584;Estyrene H 1H53;Snap 2048;Lacstar DS 801;Tylac 68010-01;Dow Chemical 460NA;KS 405;K 900 (vinyl polymer);Lacqren 4241;JSR-T 2537A;DL 233NA;Lacstar DS 203;PA 9000;Arolon 870W51;DL 239;EXG 11;Styron EXG 11;CP 638;PA 0339;Polylac 755;PA 9100;JSR-T 2561C;T 2561C;Nipol LX 303A;DL 242NA;Tychem 68710;DL 940;Dow Latex 940;Rhodopas SB 083;Tykote 1005;JSR-T 2540A;Rovene 4823L;PA 1071;NS 307R;Styronal PR 8726X;PR 8726X;Lutofan DS 2379X;DS 2379X;Styrofan PR 8726;PR 8726;Styrofan D 422;PA 2323;PA 2327;TR 201 (polymer);Dow Latex 921;DL 921;638A;POT 7092;Toyo Styrol H 450;SN 335R;RL 201;PA 0330;XA 7135;Poly(butadiene-styrene);Bustren 793;Toyo Styrol HI-H 450;Smartex PA 2182-2;Styrofan LD 417;XLB 115;SR 105;JG 6092-99-00;Smartex PA 9280;B 1342;Latexia 305;SBC 03;D 1-240;Dow Latex 226NF;Styronal D 536;RL 500;Epotal D 600;Styronal PR 8780X;Latrix 6300;Nipol LX 4075;Smartex PA 2327;Nova XP 808;XP 808;Smartex PA 3803;PA 9276;Genflo 557;VaporCoat 2200R;SN 113I;SR 130;L 612;JSR 2635G;E 1990.01;LX 303A;Styronal SPP;JSR-T 2542D1;JSR-T 2576B1;T 2542D1;T 2576B1;LX 407ST;Asaflex T 420;Smartex PZ 2327;Butonal NS 129;Styronal D 809;Latexia 319;LXC 803F1;Litex S 44R;K Resin DK 11NW;Kraton D 1431P;Eurolan HL;Eurolan 10W;Styronal D 537;DL 240;Latexia 304;Latexia 302S;Latexia 770;Latexia 318;Litex PX 9292;JSR-T 2581A;S 2188;SN 113K;PA 5036;HIPS 1897;DS 610;Stycar 0738;Lutex 701;SR 100;T 2500;Styronal NX 4222X;Styronal BN 4604X;JSR-SR 100;Litex P 5100;SB 690;SD 902AP;SD 2904AP;R 1395;PTR 7734;AT 008;E 1585;L 1785;492L;Instar bond LB 370;Nipol SZ 2H;JSR-SB 0589;PA 6082;PA 2070;PA 7048;Nipol POT 7432;JSR 0850Z;S 107;PT 1051;Smartex SN 113K;Smartex PA 9176;Latexia 300;OJ 3000H;JSR-OJ 3000H;ViscUp P;L 1092;JSR-T 2788G;STR 5401;Zetasizer 3000;Latexia 302;Omna-Glo 100;S 12 (styrene polymer);S 12;Litex P 6115;A 7269;S 2788K;Aquacoat 100;Aquacoat 220;Lacstar DS 233;Styronal BD 606;Styronal BN 4606;C 4850;X 4399-05;780F;631M;PA 7082;SL 14;PA 9902;G 1377;S 205;S 205 (polymer);Styronal ND 430;PB 9317;B 1840;ST 5526;JSR-T 2831G;B 1530;B 1530 (styrene polymer);ALB 1735;ALB 1443;E 1974;AT 011;Rovene 4049;Nipol SX 1105A;SX 1105A;BM 480B;Clearen 220M;Genflo 8125;Rovene 4487;Tykote 1004;MaxFoS 3620;Dow MaxFoS 3620;F 1776F;DL 936;860S;Nipol 433C;PBS;PS 3450;Smartex PA 3232;Litex PX 9272;Litex S 21C;Styronal 778;SL 803G;JSR-TED 2001;TED 2001;Styrofan 1186;HS 80;HS 80 (styrene polymer);S 2188 (polymer);PA 7017;JSR-T 2548A;JSR-T 2831H;JSR-T 2825;BA 025;S 6H;Ricon 183;LD 417;DL 233;Ricon 104H;Ricon 153H;SD 332N;Rovene 4111;KR 03NW;SL 801G;SL 805F;SL 838F;Plextol X 9110;JSR-S 2831J3;JSR-S 2831J4;PB 4460;PB 4459;XU 30570.51;PB 904;LX 407ST5674;Styrofan ECO 7623;SKS 27ARK;PA 7070;Total 7240;XQ 97908;Styrolux NB 10;Poly(styrene-butadiene);XU 31591;Lipaton SB 5841;Synthomer VL 10946;Styrofan 2430;Kanepearl HS;PBS 1000;PBS 5000;PBS 7000;PBS 11000;Styron SB 94378;NSBC 210;Michem Coat 55;Nearprint TM-PL;L 8053;XZ 92087;Styron 8476;3600H;Litex S 10714;HZ 616;Litex 6115;Foamaster MO-NXZ;PS 454N;DL 629;SPD 92;Lutex 910;PB 1537B;L 8242;JSR-T 093A;T 093A;XU 31669SB;60B11;50B30;K-Resin KR 40;SBC KR 40;HS 85;XZ 94378;Lacstar KD 5;PBS 50000;SL 803;Longju 342;HIPS 4241;Rovene 4100;DL 699;Lipaton SB 29Y57;C 3615;F 0601;Emulprene 1502;Clearen 335A;Styrofan 7528;H 450;Pliotec WPM 120;SKS 45;SKS 96;BS 450;LIGOS C 3615;SL 838;A 838;SL 825;BS 5000H;Rhenogran WPD 70SBR;Styronal S 316;Styronal 300D;Benzene, ethenyl-, compd. with 1,3-butadiene (1:1);Ligos 3693;Acronal ECO 7813;Smartex PB 6774;Rovene 4150;Ligos A 3411",
    "duplicated_cas_no": "39470-75-2;51568-96-8;51568-97-9;53124-27-9;56422-11-8;57829-19-3;60327-98-2;80236-62-0;80236-63-1;80236-64-2;80236-65-3;81406-92-0;82028-80-6;85947-40-6;87915-64-8;89771-18-6;91261-65-3;103018-34-4;110563-51-4;123584-62-3;123997-48-8;148388-44-7;151030-85-2;155123-82-3;160338-90-9;198352-23-7;252031-61-1;325787-03-9;515844-57-2;850728-14-2;876407-67-9;876407-98-6;910218-20-1;1078141-00-0;1282615-71-7;1282615-74-0;1354483-40-1;1625669-24-0;1625672-32-3;1852489-36-1;1906874-28-9;1906874-29-0;1914169-94-0;2081177-34-4;2102723-45-3;2225106-30-7;2243396-45-2;2244531-71-1;2353388-17-5",
    "SMILES": "C(C=C)=C.C(=C)C1=CC=CC=C1",
    "meta_data": {
        "InChI": "InChI=1S/C8H8.C4H6/c1-2-8-6-4-3-5-7-8;1-3-4-2/h2-7H,1H2;3-4H,1-2H2",
        "InChIKey": null,
        "Canonical SMILES": "C=CC=C.C=CC=1C=CC=CC1",
        "Molecular Formula": "(C<sub>8</sub>H<sub>8</sub>.C<sub>4</sub>H<sub>6</sub>)<sub>x</sub>",
        "Molecular Mass": "",
        "Melting Point": "253 °C",
        "Density": "0.9468 g/cm³"
    }
}