{
    "cas_no": "51498-37-4",
    "key_name": "4-Hydroxy-3-pyridinesulfonic acid",
    "cn_name": "4-羟基吡啶-3-磺酸;",
    "alternate_name": "3-Pyridinesulfonic acid, 4-hydroxy-;4-Hydroxy-3-pyridinesulfonic acid",
    "duplicated_cas_no": "",
    "SMILES": "S(=O)(=O)(O)C=1C(O)=CC=NC1",
    "meta_data": {
        "InChI": "InChI=1S/C5H5NO4S/c7-4-1-2-6-3-5(4)11(8,9)10/h1-3H,(H,6,7)(H,8,9,10)",
        "InChIKey": null,
        "Canonical SMILES": "O=S(=O)(O)C=1C=NC=CC1O",
        "Molecular Formula": "C<sub>5</sub>H<sub>5</sub>NO<sub>4</sub>S",
        "Molecular Mass": "175.16",
        "Melting Point": "265 °C"
    }
}