{
    "cas_no": "67346-49-0",
    "key_name": "Arformoterol",
    "cn_name": null,
    "alternate_name": "Formamide, <em>N</em>-[2-hydroxy-5-[(1<em>R</em>)-1-hydroxy-2-[[(1<em>R</em>)-2-(4-methoxyphenyl)-1-methylethyl]amino]ethyl]phenyl]-;Formamide, <em>N</em>-[2-hydroxy-5-[1-hydroxy-2-[[2-(4-methoxyphenyl)-1-methylethyl]amino]ethyl]phenyl]-, [<em>R</em>-(<em>R</em>*,<em>R</em>*)]-;<em>N</em>-[2-Hydroxy-5-[(1<em>R</em>)-1-hydroxy-2-[[(1<em>R</em>)-2-(4-methoxyphenyl)-1-methylethyl]amino]ethyl]phenyl]formamide;(<em>R</em>,<em>R</em>)-Formoterol;(-)-Formoterol;Arformoterol;(R,R)-Formoterol",
    "duplicated_cas_no": "289657-27-8;299964-45-7;208102-40-3",
    "SMILES": "[C@@H](CN[C@@H](CC1=CC=C(OC)C=C1)C)(O)C2=CC(NC=O)=C(O)C=C2",
    "meta_data": {
        "InChI": "InChI=1S/C19H24N2O4/c1-13(9-14-3-6-16(25-2)7-4-14)20-11-19(24)15-5-8-18(23)17(10-15)21-12-22/h3-8,10,12-13,19-20,23-24H,9,11H2,1-2H3,(H,21,22)/t13-,19+/m1/s1",
        "InChIKey": null,
        "Canonical SMILES": "O=CNC1=CC(=CC=C1O)C(O)CNC(C)CC2=CC=C(OC)C=C2",
        "Molecular Formula": "C<sub>19</sub>H<sub>24</sub>N<sub>2</sub>O<sub>4</sub>",
        "Molecular Mass": "344.40",
        "Melting Point": "73-75 °C"
    }
}