{
    "cas_no": "124-09-4",
    "key_name": "Hexamethylenediamine",
    "cn_name": "1,6-己二胺;",
    "alternate_name": "1,6-Hexanediamine;1,6-Diaminohexane;Hexamethylenediamine;HMDA;1,6-Hexylenediamine;1,6-Diamino-<em>n</em>-hexane;Hexylenediamine;α,ω-Hexanediamine;V 1;Hi Perm;NSC 9257;80HMD;Advancure;RT Advancure HD;Dytek 70;6-Aminohexylamine;Dytek HMD",
    "duplicated_cas_no": "",
    "SMILES": "C(CCCN)CCN",
    "meta_data": {
        "InChI": "InChI=1S/C6H16N2/c7-5-3-1-2-4-6-8/h1-8H2",
        "InChIKey": null,
        "Canonical SMILES": "NCCCCCCN",
        "Molecular Formula": "C<sub>6</sub>H<sub>16</sub>N<sub>2</sub>",
        "Molecular Mass": "116.20",
        "Boiling Point": "205 °C",
        "Melting Point": "42 °C",
        "Density": "0.93 g/cm³"
    }
}