{
    "cas_no": "136164-66-4",
    "key_name": "(2<em>E</em>)-2-[(4,5-Dimethoxy-2-methyl-3,6-dioxo-1,4-cyclohexadien-1-yl)methylene]undecanoic acid",
    "cn_name": null,
    "alternate_name": "Undecanoic acid, 2-[(4,5-dimethoxy-2-methyl-3,6-dioxo-1,4-cyclohexadien-1-yl)methylene]-, (2<em>E</em>)-;Undecanoic acid, 2-[(4,5-dimethoxy-2-methyl-3,6-dioxo-1,4-cyclohexadien-1-yl)methylene]-, (<em>E</em>)-;(2<em>E</em>)-2-[(4,5-Dimethoxy-2-methyl-3,6-dioxo-1,4-cyclohexadien-1-yl)methylene]undecanoic acid;E 3330;APX 3330",
    "duplicated_cas_no": "",
    "SMILES": "C(=C(\\CCCCCCCCC)/C(O)=O)\\C=1C(=O)C(OC)=C(OC)C(=O)C1C",
    "meta_data": {
        "InChI": "InChI=1S/C21H30O6/c1-5-6-7-8-9-10-11-12-15(21(24)25)13-16-14(2)17(22)19(26-3)20(27-4)18(16)23/h13H,5-12H2,1-4H3,(H,24,25)/b15-13+",
        "InChIKey": null,
        "Canonical SMILES": "O=C(O)C(=CC=1C(=O)C(OC)=C(OC)C(=O)C1C)CCCCCCCCC",
        "Molecular Formula": "C<sub>21</sub>H<sub>30</sub>O<sub>6</sub>",
        "Molecular Mass": "378.46",
        "Melting Point": "56-57 °C"
    }
}