{
    "cas_no": "443-81-2",
    "key_name": "2-Bromo-3-fluorophenol",
    "cn_name": "2-溴-3-氟苯酚;",
    "alternate_name": "Phenol, 2-bromo-3-fluoro-;2-Bromo-3-fluorophenol",
    "duplicated_cas_no": "",
    "SMILES": "BrC1=C(F)C=CC=C1O",
    "meta_data": {
        "InChI": "InChI=1S/C6H4BrFO/c7-6-4(8)2-1-3-5(6)9/h1-3,9H",
        "InChIKey": null,
        "Canonical SMILES": "FC1=CC=CC(O)=C1Br",
        "Molecular Formula": "C<sub>6</sub>H<sub>4</sub>BrFO",
        "Molecular Mass": "191.00",
        "Boiling Point": "123 °C @ Press: 50 Torr"
    }
}