{
    "cas_no": "89694-50-8",
    "key_name": "<em>B</em>-(2-Iodo-5-methoxyphenyl)boronic acid",
    "cn_name": null,
    "alternate_name": "Boronic acid, <em>B</em>-(2-iodo-5-methoxyphenyl)-;Benzeneboronic acid, 2-iodo-5-methoxy-;<em>B</em>-(2-Iodo-5-methoxyphenyl)boronic acid;(2-Iodo-5-methoxyphenyl)boronic acid;2-Iodo-5-methoxyphenylboronic acid",
    "duplicated_cas_no": "",
    "SMILES": "B(O)(O)C1=CC(OC)=CC=C1I",
    "meta_data": {
        "InChI": "InChI=1S/C7H8BIO3/c1-12-5-2-3-7(9)6(4-5)8(10)11/h2-4,10-11H,1H3",
        "InChIKey": null,
        "Canonical SMILES": "IC1=CC=C(OC)C=C1B(O)O",
        "Molecular Formula": "C<sub>7</sub>H<sub>8</sub>BIO<sub>3</sub>",
        "Molecular Mass": "277.85",
        "Melting Point": "150 °C"
    }
}