{
    "cas_no": "13287-76-8",
    "key_name": "2-[(4-Nitrophenyl)thio]ethanol",
    "cn_name": null,
    "alternate_name": "Ethanol, 2-[(4-nitrophenyl)thio]-;Ethanol, 2-[(<em>p</em>-nitrophenyl)thio]-;2-[(4-Nitrophenyl)thio]ethanol;2-Hydroxyethyl <em>p</em>-nitrophenyl sulfide;2-[(<em>p</em>-Nitrophenyl)thio]ethanol;4-Nitrophenyl 2-hydroxyethyl sulfide;2-Hydroxyethyl 4-nitrophenyl sulfide;2-(4-Nitrophenylthio)ethanol;2-[(4-Nitrophenyl)sulfanyl]ethan-1-ol;2-(4-Nitrophenyl)sulfanylethanol;2-[(4-Nitrophenyl)sulfanyl]ethanol",
    "duplicated_cas_no": "",
    "SMILES": "N(=O)(=O)C1=CC=C(SCCO)C=C1",
    "meta_data": {
        "InChI": "InChI=1S/C8H9NO3S/c10-5-6-13-8-3-1-7(2-4-8)9(11)12/h1-4,10H,5-6H2",
        "InChIKey": null,
        "Canonical SMILES": "O=N(=O)C1=CC=C(SCCO)C=C1",
        "Molecular Formula": "C<sub>8</sub>H<sub>9</sub>NO<sub>3</sub>S",
        "Molecular Mass": "199.23",
        "Melting Point": "60-61 °C"
    }
}