{
    "cas_no": "81250-34-2",
    "key_name": "5,6-Diamino-1,3-dipropyl-2,4(1<em>H</em>,3<em>H</em>)-pyrimidinedione",
    "cn_name": "5,6-二氨基-1,3-二丙基-1H-嘧啶-2,4-二酮;",
    "alternate_name": "2,4(1<em>H</em>,3<em>H</em>)-Pyrimidinedione, 5,6-diamino-1,3-dipropyl-;5,6-Diamino-1,3-dipropyl-2,4(1<em>H</em>,3<em>H</em>)-pyrimidinedione;5,6-Diamino-1,3-dipropyluracil;1,3-Dipropyl-5,6-diaminouracil;5,6-Diamino-1,3-dipropyl-1,3-dihydropyrimidine-2,4-dione;5,6-Diamino-1,3-dipropyl-1<em>H</em>-pyrimidine-2,4-dione",
    "duplicated_cas_no": "",
    "SMILES": "C(CC)N1C(=O)N(CCC)C(=O)C(N)=C1N",
    "meta_data": {
        "InChI": "InChI=1S/C10H18N4O2/c1-3-5-13-8(12)7(11)9(15)14(6-4-2)10(13)16/h3-6,11-12H2,1-2H3",
        "InChIKey": null,
        "Canonical SMILES": "O=C1C(N)=C(N)N(C(=O)N1CCC)CCC",
        "Molecular Formula": "C<sub>10</sub>H<sub>18</sub>N<sub>4</sub>O<sub>2</sub>",
        "Molecular Mass": "226.28",
        "Melting Point": "129-131 °C"
    }
}