{
    "cas_no": "33005-95-7",
    "key_name": "Tiaprofenic acid",
    "cn_name": "噻洛芬酸;2-[5-(苯甲酰基)-2-噻吩基]丙酸;",
    "alternate_name": "2-Thiopheneacetic acid, 5-benzoyl-α-methyl-;5-Benzoyl-α-methyl-2-thiopheneacetic acid;RU 15060;Tiaprofenic acid;FC 3001;Surgam;Tiaprofen;(±)-Tiaprofenic acid;(<em>RS</em>)-Tiaprofenic acid;Suralgan;α-(5-Benzoyl-2-thienyl)propionic acid;2-(5-Benzoylthiophen-2-yl)propanoic acid;2-(5-Benzoylthiophen-2-yl)propanoicacid",
    "duplicated_cas_no": "39984-70-8",
    "SMILES": "C(=O)(C=1SC(C(C(O)=O)C)=CC1)C2=CC=CC=C2",
    "meta_data": {
        "InChI": "InChI=1S/C14H12O3S/c1-9(14(16)17)11-7-8-12(18-11)13(15)10-5-3-2-4-6-10/h2-9H,1H3,(H,16,17)",
        "InChIKey": null,
        "Canonical SMILES": "O=C(O)C(C=1SC(=CC1)C(=O)C=2C=CC=CC2)C",
        "Molecular Formula": "C<sub>14</sub>H<sub>12</sub>O<sub>3</sub>S",
        "Molecular Mass": "260.31",
        "Melting Point": "96 °C"
    }
}