{
    "cas_no": "123-09-1",
    "key_name": "1-Chloro-4-(methylthio)benzene",
    "cn_name": null,
    "alternate_name": "Benzene, 1-chloro-4-(methylthio)-;Sulfide, <em>p</em>-chlorophenyl methyl;1-Chloro-4-(methylthio)benzene;<em>p</em>-Chlorothioanisole;Methyl 4-chlorophenyl sulfide;4-Chlorothioanisole;Methyl <em>p</em>-chlorophenyl sulfide;<em>p</em>-Chlorophenyl methyl sulfide;4-Chlorophenyl methyl sulfide;<em>p</em>-(Methylthio)chlorobenzene;NSC 72090;1-Chloro-4-(methylsulfanyl)benzene;1-Chloro-4-methylsulfanylbenzene;(4-Chlorophenyl)(methyl)sulfane",
    "duplicated_cas_no": "",
    "SMILES": "S(C)C1=CC=C(Cl)C=C1",
    "meta_data": {
        "InChI": "InChI=1S/C7H7ClS/c1-9-7-4-2-6(8)3-5-7/h2-5H,1H3",
        "InChIKey": null,
        "Canonical SMILES": "ClC1=CC=C(SC)C=C1",
        "Molecular Formula": "C<sub>7</sub>H<sub>7</sub>ClS",
        "Molecular Mass": "158.65",
        "Boiling Point": "170 °C",
        "Melting Point": "18-19 °C"
    }
}