{
    "cas_no": "1907-33-1",
    "key_name": "Lithium <em>tert</em>-butoxide",
    "cn_name": "叔丁醇锂;",
    "alternate_name": "2-Propanol, 2-methyl-, lithium salt (1:1);<em>tert</em>-Butyl alcohol, lithium salt;2-Propanol, 2-methyl-, lithium salt;Lithium <em>tert</em>-butoxide;(1,1-Dimethylethoxy)lithium;Lithium <em>tert</em>-butylate;<em>tert</em>-Butoxylithium;Lithium <em>tert</em>-butanolate;<em>tert</em>-Butanol lithium salt;Lithium <em>t</em>-butoxide;2-Methyl-2-propanol lithium salt;Lithium 2-methylpropan-2-olate",
    "duplicated_cas_no": "12264-86-7;49865-39-6;292140-83-1;859047-18-0;1250885-05-2;2024616-21-3",
    "SMILES": "C(C)(C)(C)O.[Li]",
    "meta_data": {
        "InChI": "InChI=1S/C4H10O.Li/c1-4(2,3)5;/h5H,1-3H3;",
        "InChIKey": null,
        "Canonical SMILES": "[Li].OC(C)(C)C",
        "Molecular Formula": "C<sub>4</sub>H<sub>10</sub>O.Li",
        "Molecular Mass": "",
        "Boiling Point": "110 °C @ Press: 0.01 Torr",
        "Density": "0.897 g/cm³"
    }
}