{
    "cas_no": "65001-79-8",
    "key_name": "Phenol, 5-chloro-4-fluoro-2-nitro-",
    "cn_name": null,
    "alternate_name": "Phenol, 5-chloro-4-fluoro-2-nitro-;5-Chloro-4-fluoro-2-nitrophenol",
    "duplicated_cas_no": "",
    "SMILES": "N(=O)(=O)C1=C(O)C=C(Cl)C(F)=C1",
    "meta_data": {
        "InChI": "InChI=1S/C6H3ClFNO3/c7-3-1-6(10)5(9(11)12)2-4(3)8/h1-2,10H",
        "InChIKey": null,
        "Canonical SMILES": "O=N(=O)C1=CC(F)=C(Cl)C=C1O",
        "Molecular Formula": "C<sub>6</sub>H<sub>3</sub>ClFNO<sub>3</sub>",
        "Molecular Mass": "191.54",
        "Melting Point": "82-83 °C"
    }
}