{
    "cas_no": "1070663-78-3",
    "key_name": "Dicyclohexyl[3,6-dimethoxy-2′,4′,6′-tris(1-methylethyl)[1,1′-biphenyl]-2-yl]phosphine",
    "cn_name": null,
    "alternate_name": "Phosphine, dicyclohexyl[3,6-dimethoxy-2′,4′,6′-tris(1-methylethyl)[1,1′-biphenyl]-2-yl]-;Dicyclohexyl[3,6-dimethoxy-2′,4′,6′-tris(1-methylethyl)[1,1′-biphenyl]-2-yl]phosphine;BrettPhos;3,6-Dimethoxy-2′,4′,6′-triisopropyl-1,1′-biphenyl-2-yl]dicyclohexylphosphine;2-Dicyclohexylphosphino-3,6-dimethoxy-2′,4′,6′-triisopropyl-1,1′-biphenyl;Dicyclohexyl(2′,4′,6′-triisopropyl-3,6-dimethoxy-[1,1′-biphenyl]-2-yl)phosphine",
    "duplicated_cas_no": "",
    "SMILES": "P(C1=C(C(OC)=CC=C1OC)C2=C(C(C)C)C=C(C(C)C)C=C2C(C)C)(C3CCCCC3)C4CCCCC4",
    "meta_data": {
        "InChI": "InChI=1S/C35H53O2P/c1-23(2)26-21-29(24(3)4)33(30(22-26)25(5)6)34-31(36-7)19-20-32(37-8)35(34)38(27-15-11-9-12-16-27)28-17-13-10-14-18-28/h19-25,27-28H,9-18H2,1-8H3",
        "InChIKey": null,
        "Canonical SMILES": "O(C1=CC=C(OC)C(=C1C=2C(=CC(=CC2C(C)C)C(C)C)C(C)C)P(C3CCCCC3)C4CCCCC4)C",
        "Molecular Formula": "C<sub>35</sub>H<sub>53</sub>O<sub>2</sub>P",
        "Molecular Mass": "536.77",
        "Melting Point": "191-193 °C"
    }
}