{
    "cas_no": "38237-76-2",
    "key_name": "1-(4-Aminophenyl)-1-hexanone",
    "cn_name": "4-己酰基苯胺;",
    "alternate_name": "1-Hexanone, 1-(4-aminophenyl)-;Hexanophenone, 4′-amino-;1-(4-Aminophenyl)-1-hexanone;4′-Aminocaprophenone",
    "duplicated_cas_no": "",
    "SMILES": "C(CCCCC)(=O)C1=CC=C(N)C=C1",
    "meta_data": {
        "InChI": "InChI=1S/C12H17NO/c1-2-3-4-5-12(14)10-6-8-11(13)9-7-10/h6-9H,2-5,13H2,1H3",
        "InChIKey": null,
        "Canonical SMILES": "O=C(C1=CC=C(N)C=C1)CCCCC",
        "Molecular Formula": "C<sub>12</sub>H<sub>17</sub>NO",
        "Molecular Mass": "191.27",
        "Melting Point": "95.0-95.5 °C"
    }
}