{
    "cas_no": "15459-50-4",
    "key_name": "4-Chloro-2,6-diiodophenol",
    "cn_name": null,
    "alternate_name": "Phenol, 4-chloro-2,6-diiodo-;4-Chloro-2,6-diiodophenol",
    "duplicated_cas_no": "",
    "SMILES": "OC1=C(I)C=C(Cl)C=C1I",
    "meta_data": {
        "InChI": "InChI=1S/C6H3ClI2O/c7-3-1-4(8)6(10)5(9)2-3/h1-2,10H",
        "InChIKey": null,
        "Canonical SMILES": "ClC=1C=C(I)C(O)=C(I)C1",
        "Molecular Formula": "C<sub>6</sub>H<sub>3</sub>ClI<sub>2</sub>O",
        "Molecular Mass": "380.35",
        "Melting Point": "107-108 °C"
    }
}