{
    "cas_no": "16118-36-8",
    "key_name": "Methionine, methyl ester, hydrochloride (1:1)",
    "cn_name": null,
    "alternate_name": "Methionine, methyl ester, hydrochloride (1:1);Methionine, methyl ester, hydrochloride, <span class=\"text-smallcaps\">DL</span>-;<span class=\"text-smallcaps\">DL</span>-Methionine, methyl ester, hydrochloride;Methionine, methyl ester, hydrochloride;2-Amino-4-methylsulfanyl-butyric acid methyl ester; hydrochloride",
    "duplicated_cas_no": "",
    "SMILES": "C(C(OC)=O)(CCSC)N.Cl",
    "meta_data": {
        "InChI": "InChI=1S/C6H13NO2S.ClH/c1-9-6(8)5(7)3-4-10-2;/h5H,3-4,7H2,1-2H3;1H",
        "InChIKey": null,
        "Canonical SMILES": "Cl.O=C(OC)C(N)CCSC",
        "Molecular Formula": "C<sub>6</sub>H<sub>13</sub>NO<sub>2</sub>S.ClH",
        "Molecular Mass": "",
        "Melting Point": "109-111 °C"
    }
}