{
    "cas_no": "352-67-0",
    "key_name": "1-Fluoro-4-(trifluoromethoxy)benzene",
    "cn_name": "4-三氟甲氧基氟苯;对氟三氟甲氧基苯;",
    "alternate_name": "Benzene, 1-fluoro-4-(trifluoromethoxy)-;Anisole, <em>p</em>,α,α,α-tetrafluoro-;1-Fluoro-4-(trifluoromethoxy)benzene;4-Fluorophenyl trifluoromethyl ether;4-(Trifluoromethoxy)fluorobenzene;4-Fluoro-α,α,α-trifluoroanisole;4-Fluoro(trifluoromethoxy)benzene;α,α,α,4-Tetrafluoroanisole;4-Trifluoromethoxyphenyl fluoride;4-Trifluoromethoxy-1-fluorobenzene",
    "duplicated_cas_no": "",
    "SMILES": "O(C(F)(F)F)C1=CC=C(F)C=C1",
    "meta_data": {
        "InChI": "InChI=1S/C7H4F4O/c8-5-1-3-6(4-2-5)12-7(9,10)11/h1-4H",
        "InChIKey": null,
        "Canonical SMILES": "FC1=CC=C(OC(F)(F)F)C=C1",
        "Molecular Formula": "C<sub>7</sub>H<sub>4</sub>F<sub>4</sub>O",
        "Molecular Mass": "180.10",
        "Boiling Point": "104-105 °C",
        "Density": "1.323 g/cm³ @ Temp: 20 °C"
    }
}