{
    "cas_no": "118307-04-3",
    "key_name": "5-(2-Chloroacetyl)-6-chlorooxindole",
    "cn_name": "5-氯乙酰-6-氯-1,3-二氢-2H-吲哚-2-酮;",
    "alternate_name": "2<em>H</em>-Indol-2-one, 6-chloro-5-(2-chloroacetyl)-1,3-dihydro-;2<em>H</em>-Indol-2-one, 6-chloro-5-(chloroacetyl)-1,3-dihydro-;6-Chloro-5-(2-chloroacetyl)-1,3-dihydro-2<em>H</em>-indol-2-one;5-(2-Chloroacetyl)-6-chlorooxindole;5-(2-Chloroacetyl)-6-chloro-2-oxindole;6-Chloro-5-chloroacetyl-2-oxoindoline;6-Chloro-5-(2-chloroacetyl)indolin-2-one;6-Chloro-5-(chloroacetyl)oxindole",
    "duplicated_cas_no": "",
    "SMILES": "C(CCl)(=O)C=1C=C2C(=CC1Cl)NC(=O)C2",
    "meta_data": {
        "InChI": "InChI=1S/C10H7Cl2NO2/c11-4-9(14)6-1-5-2-10(15)13-8(5)3-7(6)12/h1,3H,2,4H2,(H,13,15)",
        "InChIKey": null,
        "Canonical SMILES": "O=C1NC2=CC(Cl)=C(C=C2C1)C(=O)CCl",
        "Molecular Formula": "C<sub>10</sub>H<sub>7</sub>Cl<sub>2</sub>NO<sub>2</sub>",
        "Molecular Mass": "244.07",
        "Melting Point": "206-207 °C"
    }
}