{
    "cas_no": "304-28-9",
    "key_name": "<em>N</em>,<em>N</em>′-9<em>H</em>-Fluorene-2,7-diylbis[acetamide]",
    "cn_name": "二乙酰氨基芴;",
    "alternate_name": "Acetamide, <em>N</em>,<em>N</em>′-9<em>H</em>-fluorene-2,7-diylbis-;Acetamide, <em>N</em>,<em>N</em>′-fluoren-2,7-ylenebis-;<em>N</em>,<em>N</em>′-9<em>H</em>-Fluorene-2,7-diylbis[acetamide];<em>N</em>,<em>N</em>′-2,7-Fluorenylenebisacetamide;<em>N</em>,<em>N</em>′-(Fluoren-2,7-ylene)bis(acetylamine);<em>N</em>,<em>N</em>′-Fluoren-2,7-ylenebisacetamide;<em>N</em>,<em>N</em>′-2,7-Fluorenylenediacetamide;2,7-Bis(acetamido)fluorene;Bis-2,7-acetylaminofluorene;2,7-Diacetamidofluorene;NSC 12282;<em>N</em>,<em>N</em>′-9<em>H</em>-Fluorene-2,7-diylbisacetamide",
    "duplicated_cas_no": "120595-12-2",
    "SMILES": "N(C(C)=O)C=1C=C2C(C=3C(C2)=CC(NC(C)=O)=CC3)=CC1",
    "meta_data": {
        "InChI": "InChI=1S/C17H16N2O2/c1-10(20)18-14-3-5-16-12(8-14)7-13-9-15(19-11(2)21)4-6-17(13)16/h3-6,8-9H,7H2,1-2H3,(H,18,20)(H,19,21)",
        "InChIKey": null,
        "Canonical SMILES": "O=C(NC=1C=CC=2C3=CC=C(C=C3CC2C1)NC(=O)C)C",
        "Molecular Formula": "C<sub>17</sub>H<sub>16</sub>N<sub>2</sub>O<sub>2</sub>",
        "Molecular Mass": "280.32",
        "Melting Point": "281 °C"
    }
}