{
    "cas_no": "24934-91-6",
    "key_name": "Chlormephos",
    "cn_name": null,
    "alternate_name": "Phosphorodithioic acid, <em>S</em>-(chloromethyl) <em>O</em>,<em>O</em>-diethyl ester;<em>S</em>-Chloromethyl <em>O</em>,<em>O</em>-diethyl phosphorothiolothionate;MC 2188;<em>O</em>,<em>O</em>-Diethyl <em>S</em>-(chloromethyl) dithiophosphate;Chlormephos;Chlormethylfos;Dotan;Chlormephos-ethyl",
    "duplicated_cas_no": "37209-29-3",
    "SMILES": "P(OCC)(OCC)(SCCl)=S",
    "meta_data": {
        "InChI": "InChI=1S/C5H12ClO2PS2/c1-3-7-9(10,8-4-2)11-5-6/h3-5H2,1-2H3",
        "InChIKey": null,
        "Canonical SMILES": "S=P(OCC)(OCC)SCCl",
        "Molecular Formula": "C<sub>5</sub>H<sub>12</sub>ClO<sub>2</sub>PS<sub>2</sub>",
        "Molecular Mass": "234.70",
        "Boiling Point": "81-85 °C @ Press: 0.1 Torr",
        "Melting Point": "&lt;25 °C",
        "Density": "1.260 g/cm³ @ Temp: 20 °C"
    }
}