{
    "cas_no": "539-03-7",
    "key_name": "<em>N</em>-(4-Chlorophenyl)acetamide",
    "cn_name": "对氯乙酰苯胺;",
    "alternate_name": "Acetamide, <em>N</em>-(4-chlorophenyl)-;Acetanilide, 4′-chloro-;<em>N</em>-(4-Chlorophenyl)acetamide;<em>p</em>-Chloroacetanilide;4′-Chloroacetanilide;<em>N</em>-Acetyl-<em>p</em>-chloroaniline;<em>N</em>-(<em>p</em>-Chlorophenyl)acetamide;<em>N</em>-Acetyl-4-chloroaniline;NSC 40563;NSC 444;<em>N</em>-(4-Chlorophenyl)ethaneamide",
    "duplicated_cas_no": "",
    "SMILES": "N(C(C)=O)C1=CC=C(Cl)C=C1",
    "meta_data": {
        "InChI": "InChI=1S/C8H8ClNO/c1-6(11)10-8-4-2-7(9)3-5-8/h2-5H,1H3,(H,10,11)",
        "InChIKey": null,
        "Canonical SMILES": "O=C(NC1=CC=C(Cl)C=C1)C",
        "Molecular Formula": "C<sub>8</sub>H<sub>8</sub>ClNO",
        "Molecular Mass": "169.61",
        "Boiling Point": "333 °C",
        "Melting Point": "178-179 °C",
        "Density": "1.385 g/cm³ @ Temp: 22 °C"
    }
}