{
    "cas_no": "19064-68-7",
    "key_name": "1-Chloro-4-methylphthalazine",
    "cn_name": null,
    "alternate_name": "Phthalazine, 1-chloro-4-methyl-;1-Chloro-4-methylphthalazine;NSC 111227",
    "duplicated_cas_no": "",
    "SMILES": "CC=1C2=C(C(Cl)=NN1)C=CC=C2",
    "meta_data": {
        "InChI": "InChI=1S/C9H7ClN2/c1-6-7-4-2-3-5-8(7)9(10)12-11-6/h2-5H,1H3",
        "InChIKey": null,
        "Canonical SMILES": "ClC1=NN=C(C=2C=CC=CC12)C",
        "Molecular Formula": "C<sub>9</sub>H<sub>7</sub>ClN<sub>2</sub>",
        "Molecular Mass": "178.62",
        "Melting Point": "130 °C"
    }
}