{
    "cas_no": "5417-82-3",
    "key_name": "2-(1-Ethoxyethylidene)propanedinitrile",
    "cn_name": "1-(乙氧基乙烯基)丙二腈;1-(乙氧基乙烯基)丙二腈;",
    "alternate_name": "Propanedinitrile, 2-(1-ethoxyethylidene)-;Propanedinitrile, (1-ethoxyethylidene)-;Malononitrile, (1-ethoxyethylidene)-;2-(1-Ethoxyethylidene)propanedinitrile;1-Ethoxyethylidenemalononitrile;2-Cyano-3-ethoxy-3-methylacrylonitrile;α-Cyano-β-methyl-β-ethoxyacrylonitrile;NSC 11585;2-(1-Ethoxyethylidene)malononitrile;(1-Ethoxyethylidene)malonitrile",
    "duplicated_cas_no": "",
    "SMILES": "C(=C(OCC)C)(C#N)C#N",
    "meta_data": {
        "InChI": "InChI=1S/C7H8N2O/c1-3-10-6(2)7(4-8)5-9/h3H2,1-2H3",
        "InChIKey": null,
        "Canonical SMILES": "N#CC(C#N)=C(OCC)C",
        "Molecular Formula": "C<sub>7</sub>H<sub>8</sub>N<sub>2</sub>O",
        "Molecular Mass": "136.15",
        "Boiling Point": "120 °C @ Press: 2 Torr",
        "Melting Point": "91 °C"
    }
}