{
    "cas_no": "134-11-2",
    "key_name": "2-Ethoxybenzoic acid",
    "cn_name": "2-乙氧基苯甲酸;邻乙氧基苯甲酸;",
    "alternate_name": "Benzoic acid, 2-ethoxy-;Benzoic acid, <em>o</em>-ethoxy-;2-Ethoxybenzoic acid;<em>o</em>-Ethoxybenzoic acid;NSC 406710",
    "duplicated_cas_no": "",
    "SMILES": "C(O)(=O)C1=C(OCC)C=CC=C1",
    "meta_data": {
        "InChI": "InChI=1S/C9H10O3/c1-2-12-8-6-4-3-5-7(8)9(10)11/h3-6H,2H2,1H3,(H,10,11)",
        "InChIKey": null,
        "Canonical SMILES": "O=C(O)C=1C=CC=CC1OCC",
        "Molecular Formula": "C<sub>9</sub>H<sub>10</sub>O<sub>3</sub>",
        "Molecular Mass": "166.17",
        "Boiling Point": "170 °C @ Press: 0.1 Torr",
        "Melting Point": "20.7 °C"
    }
}