{
    "cas_no": "75172-81-5",
    "key_name": "Migalastat hydrochloride",
    "cn_name": null,
    "alternate_name": "3,4,5-Piperidinetriol, 2-(hydroxymethyl)-, hydrochloride (1:1), (2<em>R</em>,3<em>S</em>,4<em>R</em>,5<em>S</em>)-;3,4,5-Piperidinetriol, 2-(hydroxymethyl)-, hydrochloride, [2<em>R</em>-(2α,3α,4α,5β)]-;3,4,5-Piperidinetriol, 2-(hydroxymethyl)-, hydrochloride, (2<em>R</em>,3<em>S</em>,4<em>R</em>,5<em>S</em>)-;Migalastat hydrochloride;1-Deoxygalactonojirimycin hydrochloride;Galafold",
    "duplicated_cas_no": "",
    "SMILES": "C(O)[C@@H]1[C@H](O)[C@H](O)[C@@H](O)CN1.Cl",
    "meta_data": {
        "InChI": "InChI=1S/C6H13NO4.ClH/c8-2-3-5(10)6(11)4(9)1-7-3;/h3-11H,1-2H2;1H/t3-,4+,5+,6-;/m1./s1",
        "InChIKey": null,
        "Canonical SMILES": "Cl.OCC1NCC(O)C(O)C1O",
        "Molecular Formula": "C<sub>6</sub>H<sub>13</sub>NO<sub>4</sub>.ClH",
        "Molecular Mass": "",
        "Melting Point": "243-245 °C (decomp)"
    }
}