{
    "cas_no": "1505-50-6",
    "key_name": "3-(4-Methylphenyl)propionic acid",
    "cn_name": null,
    "alternate_name": "Benzenepropanoic acid, 4-methyl-;Hydrocinnamic acid, <em>p</em>-methyl-;4-Methylbenzenepropanoic acid;4-Methyl-β-phenylpropionic acid;<em>p</em>-Methylhydrocinnamic acid;3-(4-Methylphenyl)propanoic acid;3-<em>p</em>-Tolylpropionic acid;3-(4-Methylphenyl)propionic acid;4-Methylbenzenepropionic acid;NSC 512;3-<em>p</em>-Tolylpropanoic acid",
    "duplicated_cas_no": "",
    "SMILES": "C(CC(O)=O)C1=CC=C(C)C=C1",
    "meta_data": {
        "InChI": "InChI=1S/C10H12O2/c1-8-2-4-9(5-3-8)6-7-10(11)12/h2-5H,6-7H2,1H3,(H,11,12)",
        "InChIKey": null,
        "Canonical SMILES": "O=C(O)CCC1=CC=C(C=C1)C",
        "Molecular Formula": "C<sub>10</sub>H<sub>12</sub>O<sub>2</sub>",
        "Molecular Mass": "164.20",
        "Melting Point": "117-118 °C"
    }
}