{
    "cas_no": "5454-83-1",
    "key_name": "Methyl 5-bromopentanoate",
    "cn_name": "5-溴戊酸甲酯;",
    "alternate_name": "Pentanoic acid, 5-bromo-, methyl ester;Valeric acid, 5-bromo-, methyl ester;Methyl 5-bromopentanoate;Methyl 5-bromovalerate;Methyl ω-bromopentanoate;5-Bromovaleric acid methyl ester;Methyl δ-bromovalerate;NSC 23228;5-Bromopentanoic acid methyl ester;Methyl 5-bromobutanoate",
    "duplicated_cas_no": "",
    "SMILES": "C(CCCCBr)(OC)=O",
    "meta_data": {
        "InChI": "InChI=1S/C6H11BrO2/c1-9-6(8)4-2-3-5-7/h2-5H2,1H3",
        "InChIKey": null,
        "Canonical SMILES": "O=C(OC)CCCCBr",
        "Molecular Formula": "C<sub>6</sub>H<sub>11</sub>BrO<sub>2</sub>",
        "Molecular Mass": "195.05",
        "Boiling Point": "101.5 °C @ Press: 14 Torr"
    }
}