{
    "cas_no": "104-76-7",
    "key_name": "2-Ethylhexanol",
    "cn_name": "2-乙基己醇;2-乙基-1-己醇;异辛醇;",
    "alternate_name": "1-Hexanol, 2-ethyl-;2-Ethyl-1-hexanol;2-Ethylhexanol;2-Ethylhexyl alcohol;Ethylhexanol;(±)-2-Ethyl-1-hexanol;2-Ethyl-1-hexyl alcohol;NSC 9300;G 301;Guerbet C8",
    "duplicated_cas_no": "111675-57-1;2360922-23-0",
    "SMILES": "C(CCCC)(CC)CO",
    "meta_data": {
        "InChI": "InChI=1S/C8H18O/c1-3-5-6-8(4-2)7-9/h8-9H,3-7H2,1-2H3",
        "InChIKey": null,
        "Canonical SMILES": "OCC(CC)CCCC",
        "Molecular Formula": "C<sub>8</sub>H<sub>18</sub>O",
        "Molecular Mass": "130.23",
        "Boiling Point": "184.34 °C",
        "Melting Point": "-76 °C",
        "Density": "0.8344 g/cm³ @ Temp: 20 °C"
    }
}