{
    "cas_no": "81932-04-9",
    "key_name": "1-(Bromodifluoromethoxy)-4-nitrobenzene",
    "cn_name": null,
    "alternate_name": "Benzene, 1-(bromodifluoromethoxy)-4-nitro-;1-(Bromodifluoromethoxy)-4-nitrobenzene",
    "duplicated_cas_no": "",
    "SMILES": "O(C(Br)(F)F)C1=CC=C(N(=O)=O)C=C1",
    "meta_data": {
        "InChI": "InChI=1S/C7H4BrF2NO3/c8-7(9,10)14-6-3-1-5(2-4-6)11(12)13/h1-4H",
        "InChIKey": null,
        "Canonical SMILES": "O=N(=O)C1=CC=C(OC(F)(F)Br)C=C1",
        "Molecular Formula": "C<sub>7</sub>H<sub>4</sub>BrF<sub>2</sub>NO<sub>3</sub>",
        "Molecular Mass": "268.01",
        "Melting Point": "48 °C"
    }
}