{
    "cas_no": "624-49-7",
    "key_name": "Dimethyl fumarate",
    "cn_name": "富马酸二甲酯;",
    "alternate_name": "2-Butenedioic acid (2<em>E</em>)-, 1,4-dimethyl ester;Fumaric acid, dimethyl ester;2-Butenedioic acid (<em>E</em>)-, dimethyl ester;2-Butenedioic acid (2<em>E</em>)-, dimethyl ester;Allomaleic acid dimethyl ester;Boletic acid dimethyl ester;<em>trans</em>-Butenedioic acid dimethyl ester;Dimethyl fumarate;<em>trans</em>-1,2-Ethylenedicarboxylic acid dimethyl ester;Methyl fumarate;Dimethyl <em>trans</em>-ethylenedicarboxylate;Dimethyl (<em>E</em>)-butenedioate;(2<em>E</em>)-2-Butenedioic acid dimethyl ester;(<em>E</em>)-But-2-enedioic acid dimethyl ester;NSC 167432;NSC 25942;AZL-O 211089;Dimethyl (<em>E</em>)-2-butenedioate;BG 00012;Panaclar;BG 12;Tecfidera;Tecfira;(E)-2-Butenedioic acid dimethyl ester;Skilarence;Marclerosis",
    "duplicated_cas_no": "1017900-75-2",
    "SMILES": "C(/C=C/C(OC)=O)(OC)=O",
    "meta_data": {
        "InChI": "InChI=1S/C6H8O4/c1-9-5(7)3-4-6(8)10-2/h3-4H,1-2H3/b4-3+",
        "InChIKey": null,
        "Canonical SMILES": "O=C(OC)C=CC(=O)OC",
        "Molecular Formula": "C<sub>6</sub>H<sub>8</sub>O<sub>4</sub>",
        "Molecular Mass": "144.13",
        "Boiling Point": "193 °C",
        "Melting Point": "103.5 °C",
        "Density": "1.0283 g/cm³ @ Temp: 20 °C"
    }
}