{
    "cas_no": "4410-99-5",
    "key_name": "Benzeneethanethiol",
    "cn_name": "2-苯基乙硫醇;",
    "alternate_name": "Benzeneethanethiol;Ethanethiol, 2-phenyl-;Phenethyl mercaptan;2-Phenyl-1-ethanethiol;2-Phenylethyl mercaptan;β-Phenylethyl mercaptan;Phenethylthiol;2-Phenethylmercaptan;2-Phenylethanethiol;NSC 2616;1-Phenyl-2-mercaptoethane;2-Phenylethylthiol;Phenylethyl mercaptan",
    "duplicated_cas_no": "",
    "SMILES": "C(CS)C1=CC=CC=C1",
    "meta_data": {
        "InChI": "InChI=1S/C8H10S/c9-7-6-8-4-2-1-3-5-8/h1-5,9H,6-7H2",
        "InChIKey": null,
        "Canonical SMILES": "SCCC=1C=CC=CC1",
        "Molecular Formula": "C<sub>8</sub>H<sub>10</sub>S",
        "Molecular Mass": "138.23",
        "Boiling Point": "105 °C @ Press: 23 Torr",
        "Density": "1.032 g/cm³ @ Temp: 18 °C"
    }
}