{
    "cas_no": "2004-03-7",
    "key_name": "6-Methylpurine",
    "cn_name": "6-甲基嘌呤;",
    "alternate_name": "9<em>H</em>-Purine, 6-methyl-;Purine, 6-methyl-;1<em>H</em>-Purine, 6-methyl-;6-Methyl-9<em>H</em>-purine;6-Methylpurine;NSC 407198",
    "duplicated_cas_no": "933-68-6;13088-72-7",
    "SMILES": "CC1=C2C(=NC=N1)N=CN2",
    "meta_data": {
        "InChI": "InChI=1S/C6H6N4/c1-4-5-6(9-2-7-4)10-3-8-5/h2-3H,1H3,(H,7,8,9,10)",
        "InChIKey": null,
        "Canonical SMILES": "N1=CN=C(C=2NC=NC12)C",
        "Molecular Formula": "C<sub>6</sub>H<sub>6</sub>N<sub>4</sub>",
        "Molecular Mass": "134.14",
        "Melting Point": "235-236 °C"
    }
}