{
    "cas_no": "6149-33-3",
    "key_name": "4-(4-Nitrophenoxy)benzenamine",
    "cn_name": "4-硝基-4\"-氨基二苯醚;",
    "alternate_name": "Benzenamine, 4-(4-nitrophenoxy)-;Aniline, <em>p</em>-(<em>p</em>-nitrophenoxy)-;4-(4-Nitrophenoxy)benzenamine;4-Nitro-4′-aminodiphenyl ether;<em>p</em>-Aminophenyl <em>p</em>-nitrophenyl ether;4-Amino-4′-nitrodiphenyl ether;<em>p</em>-Nitrophenyl <em>p</em>-aminophenyl ether;4-Aminophenyl 4-nitrophenyl ether;<em>p</em>-(<em>p</em>-Nitrophenoxy)aniline;4-Amino-4′-nitrophenyl ether;4-(4-Nitrophenoxy)aniline;NSC 74273;[4-(4-Nitrophenoxy)phenyl]amine",
    "duplicated_cas_no": "2762484-85-3",
    "SMILES": "O(C1=CC=C(N(=O)=O)C=C1)C2=CC=C(N)C=C2",
    "meta_data": {
        "InChI": "InChI=1S/C12H10N2O3/c13-9-1-5-11(6-2-9)17-12-7-3-10(4-8-12)14(15)16/h1-8H,13H2",
        "InChIKey": null,
        "Canonical SMILES": "O=N(=O)C1=CC=C(OC2=CC=C(N)C=C2)C=C1",
        "Molecular Formula": "C<sub>12</sub>H<sub>10</sub>N<sub>2</sub>O<sub>3</sub>",
        "Molecular Mass": "230.22",
        "Melting Point": "134-135 °C"
    }
}