{
    "cas_no": "4273-98-7",
    "key_name": "2-(Phenylsulfonyl)aniline",
    "cn_name": "2-氨基二苯砜;",
    "alternate_name": "Benzenamine, 2-(phenylsulfonyl)-;Aniline, <em>o</em>-(phenylsulfonyl)-;2-(Phenylsulfonyl)benzenamine;C.I. 37060;C.I. Azoic Diazo Component 18;Diazo Fast Orange LG;Fast Orange LG Salt;Fast Orange Salt LG;2-Aminodiphenyl sulfone;<em>o</em>-Aminophenyl phenyl sulfone;2-Aminophenyl phenyl sulfone;2-(Phenylsulfonyl)aniline;Fast Red R Base;Fast Red RC Base;Fast Red RC Salt;2-(Benzenesulfonyl)aniline",
    "duplicated_cas_no": "",
    "SMILES": "S(=O)(=O)(C1=C(N)C=CC=C1)C2=CC=CC=C2",
    "meta_data": {
        "InChI": "InChI=1S/C12H11NO2S/c13-11-8-4-5-9-12(11)16(14,15)10-6-2-1-3-7-10/h1-9H,13H2",
        "InChIKey": null,
        "Canonical SMILES": "O=S(=O)(C=1C=CC=CC1)C=2C=CC=CC2N",
        "Molecular Formula": "C<sub>12</sub>H<sub>11</sub>NO<sub>2</sub>S",
        "Molecular Mass": "233.29",
        "Melting Point": "118-120 °C"
    }
}