{
    "cas_no": "60796-65-8",
    "key_name": "5,7,8-Trimethoxycoumarin",
    "cn_name": null,
    "alternate_name": "2<em>H</em>-1-Benzopyran-2-one, 5,7,8-trimethoxy-;5,7,8-Trimethoxy-2<em>H</em>-1-benzopyran-2-one;5,7,8-Trimethoxycoumarin",
    "duplicated_cas_no": "",
    "SMILES": "O(C)C1=C2C(=C(OC)C=C1OC)C=CC(=O)O2",
    "meta_data": {
        "InChI": "InChI=1S/C12H12O5/c1-14-8-6-9(15-2)12(16-3)11-7(8)4-5-10(13)17-11/h4-6H,1-3H3",
        "InChIKey": null,
        "Canonical SMILES": "O=C1OC=2C(OC)=C(OC)C=C(OC)C2C=C1",
        "Molecular Formula": "C<sub>12</sub>H<sub>12</sub>O<sub>5</sub>",
        "Molecular Mass": "236.22",
        "Melting Point": "178 °C"
    }
}