{
    "cas_no": "558-30-5",
    "key_name": "Isobutylene oxide",
    "cn_name": "甲基环氧丙烷;二甲基环氧乙烷;氧化异丁烯;",
    "alternate_name": "Oxirane, 2,2-dimethyl-;Propane, 1,2-epoxy-2-methyl-;Ethylene oxide, α,α-dimethyl-;2,2-Dimethyloxirane;Isobutylene oxide;Isobutylene epoxide;1,1-Dimethylethylene oxide;2-Methyl-1-propene oxide;2-Methyl-1,2-epoxypropane;Isobutene oxide;1,2-Isobutylene oxide;1,2-Epoxy-2-methylpropane;1,2-Epoxyisobutane;2-Methylpropylene oxide;NSC 24249;2-Methyl-1-propenoxide;2-Methyl-2,3-epoxypropane",
    "duplicated_cas_no": "",
    "SMILES": "CC1(C)CO1",
    "meta_data": {
        "InChI": "InChI=1S/C4H8O/c1-4(2)3-5-4/h3H2,1-2H3",
        "InChIKey": null,
        "Canonical SMILES": "O1CC1(C)C",
        "Molecular Formula": "C<sub>4</sub>H<sub>8</sub>O",
        "Molecular Mass": "72.11",
        "Boiling Point": "52 °C",
        "Density": "0.8153 g/cm³ @ Temp: 15 °C"
    }
}