{
    "cas_no": "2148-55-2",
    "key_name": "4,5-Dichloroquinazoline",
    "cn_name": "4,5-二氯喹唑啉;4,5-二氯喹唑啉;",
    "alternate_name": "Quinazoline, 4,5-dichloro-;4,5-Dichloroquinazoline;NSC 63434",
    "duplicated_cas_no": "",
    "SMILES": "ClC=1C2=C(C=CC=C2Cl)N=CN1",
    "meta_data": {
        "InChI": "InChI=1S/C8H4Cl2N2/c9-5-2-1-3-6-7(5)8(10)12-4-11-6/h1-4H",
        "InChIKey": null,
        "Canonical SMILES": "ClC1=NC=NC=2C=CC=C(Cl)C12",
        "Molecular Formula": "C<sub>8</sub>H<sub>4</sub>Cl<sub>2</sub>N<sub>2</sub>",
        "Molecular Mass": "199.04",
        "Melting Point": "131.5-133 °C"
    }
}