{
    "cas_no": "1122-71-0",
    "key_name": "6-Methyl-2-pyridinemethanol",
    "cn_name": "6-甲基吡啶-2-甲醇;2-羟甲基-6-甲基吡啶;",
    "alternate_name": "2-Pyridinemethanol, 6-methyl-;6-Methyl-2-pyridinemethanol;6-Methyl-2-pyridylmethanol;2-(Hydroxymethyl)-6-methylpyridine;6-Methyl-2-(hydroxymethyl)pyridine;NSC 164957;NSC 66528;(6-Methyl-2-pyridinyl)methanol;2-Methyl-6-pyridinemethanol",
    "duplicated_cas_no": "",
    "SMILES": "C(O)C=1N=C(C)C=CC1",
    "meta_data": {
        "InChI": "InChI=1S/C7H9NO/c1-6-3-2-4-7(5-9)8-6/h2-4,9H,5H2,1H3",
        "InChIKey": null,
        "Canonical SMILES": "OCC1=NC(=CC=C1)C",
        "Molecular Formula": "C<sub>7</sub>H<sub>9</sub>NO",
        "Molecular Mass": "123.15",
        "Boiling Point": "130-132 °C @ Press: 8 Torr",
        "Melting Point": "96 °C"
    }
}