{
    "cas_no": "622-40-2",
    "key_name": "4-Morpholineethanol",
    "cn_name": "2-吗啉乙醇;4-(2-羟乙基)吗啉;N-(2-羟乙基)吗啉;",
    "alternate_name": "4-Morpholineethanol;<em>N</em>-(2-Hydroxyethyl)morpholine;<em>N</em>-(β-Hydroxyethyl)morpholine;2-Morpholinoethanol;β-Morpholinoethanol;4-(2-Hydroxyethyl)morpholine;2-(4-Morpholinyl)ethanol;2-(4-Morpholino)ethyl alcohol;2-(4-Morpholinyl)-1-ethanol;NSC 1946;1-(2-Hydroxyethyl)morpholine;2-Morpholinoethan-1-ol;<em>N</em>-Hydroxyethyl morpholine",
    "duplicated_cas_no": "",
    "SMILES": "C(CO)N1CCOCC1",
    "meta_data": {
        "InChI": "InChI=1S/C6H13NO2/c8-4-1-7-2-5-9-6-3-7/h8H,1-6H2",
        "InChIKey": null,
        "Canonical SMILES": "OCCN1CCOCC1",
        "Molecular Formula": "C<sub>6</sub>H<sub>13</sub>NO<sub>2</sub>",
        "Molecular Mass": "131.17",
        "Boiling Point": "227 °C",
        "Melting Point": "-1.6 °C",
        "Density": "1.0733 g/cm³ @ Temp: 20 °C"
    }
}