{
    "cas_no": "730-08-5",
    "key_name": "Tyrosylalanine",
    "cn_name": null,
    "alternate_name": "<span class=\"text-smallcaps\">L</smallcap>-Alanine, <smallcap>L</span>-tyrosyl-;Alanine, <em>N</em>-<span class=\"text-smallcaps\">L</smallcap>-tyrosyl-, <smallcap>L</span>-;<span class=\"text-smallcaps\">L</smallcap>-Alanine, <em>N</em>-<smallcap>L</span>-tyrosyl-;Alanine, <em>N</em>-tyrosyl-;<span class=\"text-smallcaps\">L</smallcap>-Tyrosyl-<smallcap>L</span>-alanine;Tyrosylalanine;46: PN: WO2007067983 SEQID: 195 unclaimed protein;477: PN: EP2161028 TABLE: 5 claimed protein;35: PN: WO2011146121 PAGE: 114 claimed sequence;4: PN: KR20160105022 PAGE: 4 claimed sequence;317: PN: WO2021146320 SEQID: 317 claimed protein;26: PN: WO2021147954 SEQID: 26 claimed protein;53: PN: WO2021244721 SEQID: 68 claimed protein;159: PN: WO2022152282 SEQID: 219 claimed protein;90: PN: WO2022240360 SEQID: 98 claimed protein;139: PN: WO2023161197 SEQID: 141 claimed sequence",
    "duplicated_cas_no": "",
    "SMILES": "C([C@@H](C(N[C@H](C(O)=O)C)=O)N)C1=CC=C(O)C=C1",
    "meta_data": {
        "InChI": "InChI=1S/C12H16N2O4/c1-7(12(17)18)14-11(16)10(13)6-8-2-4-9(15)5-3-8/h2-5,7,10,15H,6,13H2,1H3,(H,14,16)(H,17,18)/t7-,10-/m0/s1",
        "InChIKey": null,
        "Canonical SMILES": "O=C(O)C(NC(=O)C(N)CC1=CC=C(O)C=C1)C",
        "Molecular Formula": "C<sub>12</sub>H<sub>16</sub>N<sub>2</sub>O<sub>4</sub>",
        "Molecular Mass": "252.27",
        "Melting Point": "230 °C (decomp)"
    }
}