{
    "cas_no": "13031-43-1",
    "key_name": "1-[4-(Acetyloxy)phenyl]ethanone",
    "cn_name": "4-乙酰氧基苯并酮;",
    "alternate_name": "Ethanone, 1-[4-(acetyloxy)phenyl]-;Acetophenone, 4′-hydroxy-, acetate;1-[4-(Acetyloxy)phenyl]ethanone;<em>p</em>-Acetoxyacetophenone;<em>p</em>-Acetylphenyl acetate;4′-Acetoxyacetophenone;4-Acetoxyacetophenone;4-Acetylphenyl acetate;NSC 41974",
    "duplicated_cas_no": "",
    "SMILES": "O(C(C)=O)C1=CC=C(C(C)=O)C=C1",
    "meta_data": {
        "InChI": "InChI=1S/C10H10O3/c1-7(11)9-3-5-10(6-4-9)13-8(2)12/h3-6H,1-2H3",
        "InChIKey": null,
        "Canonical SMILES": "O=C(OC1=CC=C(C=C1)C(=O)C)C",
        "Molecular Formula": "C<sub>10</sub>H<sub>10</sub>O<sub>3</sub>",
        "Molecular Mass": "178.18",
        "Boiling Point": "157-162 °C @ Press: 13 Torr",
        "Melting Point": "53 °C"
    }
}