{
    "cas_no": "57-33-0",
    "key_name": "Pentobarbital sodium",
    "cn_name": "戊巴比妥钠;5-乙基-5-(1-甲基丁基)-2,4,6-三氧代六氢嘧啶钠盐;",
    "alternate_name": "2,4,6(1<em>H</em>,3<em>H</em>,5<em>H</em>)-Pyrimidinetrione, 5-ethyl-5-(1-methylbutyl)-, sodium salt (1:1);Barbituric acid, 5-ethyl-5-(1-methylbutyl)-, sodium salt;2,4,6(1<em>H</em>,3<em>H</em>,5<em>H</em>)-Pyrimidinetrione, 5-ethyl-5-(1-methylbutyl)-, monosodium salt;844;Barpental;Embutal;Isobarb;Mebubarbital sodium;Napental;Nembutal sodium;Pental;Pentobarbital sodium;Pentobarbitone sodium;Pentone;Sagatal;Sodium ethaminal;Sodium 5-ethyl-5-(1-methylbutyl)barbiturate;Sodium nembutal;Sodium-Pent;Sodium pentobarbital;Sodium pentobarbitone;Sodium pentobarbiturate;Soluble pentobarbital;Sopental;Sotyl;Ethaminal sodium;5-Ethyl-5-(1-methylbutyl) barbituric acid sodium salt;Diabutal;Vetbutal;Mebumal sodium;Pacifan;Etaminal sodium;Pentonal;Auropan;Euthatal;Somnopentyl;Biosedan;Butylone;V-Pento;Mebunat;Euthanyl;<em>RS</em>-Pentobarbital sodium;Praecicalm;Narcoren;Somnotol;NSC 10816;Sodium pental;Entobar",
    "duplicated_cas_no": "8023-11-8;8050-99-5;10579-81-4;23714-57-0;317336-85-9",
    "SMILES": "C(CCC)(C)C1(CC)C(=O)NC(=O)NC1=O.[Na]",
    "meta_data": {
        "InChI": "InChI=1S/C11H18N2O3.Na/c1-4-6-7(3)11(5-2)8(14)12-10(16)13-9(11)15;/h7H,4-6H2,1-3H3,(H2,12,13,14,15,16);",
        "InChIKey": null,
        "Canonical SMILES": "[Na].O=C1NC(=O)C(C(=O)N1)(CC)C(C)CCC",
        "Molecular Formula": "C<sub>11</sub>H<sub>18</sub>N<sub>2</sub>O<sub>3</sub>.Na",
        "Molecular Mass": "",
        "Melting Point": "127 °C (decomp)"
    }
}