{
    "cas_no": "73030-71-4",
    "key_name": "Atractylenolide III",
    "cn_name": "白术内酯III;",
    "alternate_name": "Naphtho[2,3-<em>b</em>]furan-2(4<em>H</em>)-one, 4a,5,6,7,8,8a,9,9a-octahydro-9a-hydroxy-3,8a-dimethyl-5-methylene-, (4a<em>S</em>,8a<em>R</em>,9a<em>S</em>)-;Naphtho[2,3-<em>b</em>]furan-2(4<em>H</em>)-one, 4a,5,6,7,8,8a,9,9a-octahydro-9a-hydroxy-3,8a-dimethyl-5-methylene-, [4a<em>S</em>-(4aα,8aβ,9aβ)]-;(4a<em>S</em>,8a<em>R</em>,9a<em>S</em>)-4a,5,6,7,8,8a,9,9a-Octahydro-9a-hydroxy-3,8a-dimethyl-5-methylenenaphtho[2,3-<em>b</em>]furan-2(4<em>H</em>)-one;Atractylenolide III;Codonolactone;8β-Hydroxyasterolide;Atractylenolide β",
    "duplicated_cas_no": "",
    "SMILES": "O[C@@]12C(C[C@@]3([C@@](C)(C1)CCCC3=C)[H])=C(C)C(=O)O2",
    "meta_data": {
        "InChI": "InChI=1S/C15H20O3/c1-9-5-4-6-14(3)8-15(17)12(7-11(9)14)10(2)13(16)18-15/h11,17H,1,4-8H2,2-3H3/t11-,14+,15-/m0/s1",
        "InChIKey": null,
        "Canonical SMILES": "O=C1OC2(O)C(=C1C)CC3C(=C)CCCC3(C)C2",
        "Molecular Formula": "C<sub>15</sub>H<sub>20</sub>O<sub>3</sub>",
        "Molecular Mass": "248.32",
        "Melting Point": "166-169 °C"
    }
}