{
    "cas_no": "586-76-5",
    "key_name": "4-Bromobenzoic acid",
    "cn_name": "4-溴苯甲酸;对溴苯甲酸;",
    "alternate_name": "Benzoic acid, 4-bromo-;Benzoic acid, <em>p</em>-bromo-;4-Bromobenzoic acid;<em>p</em>-Bromobenzoic acid;<em>p</em>-Carboxybromobenzene;<em>p</em>-Bromobenzenecarboxylic acid;NSC 143357;NSC 17582;NSC 176126;4-Bromobenzenecarboxylic acid",
    "duplicated_cas_no": "2764684-44-6",
    "SMILES": "C(O)(=O)C1=CC=C(Br)C=C1",
    "meta_data": {
        "InChI": "InChI=1S/C7H5BrO2/c8-6-3-1-5(2-4-6)7(9)10/h1-4H,(H,9,10)",
        "InChIKey": null,
        "Canonical SMILES": "O=C(O)C1=CC=C(Br)C=C1",
        "Molecular Formula": "C<sub>7</sub>H<sub>5</sub>BrO<sub>2</sub>",
        "Molecular Mass": "201.02",
        "Boiling Point": "116 °C @ Press: 15-16 Torr",
        "Melting Point": "254.5 °C",
        "Density": "1.859 g/cm³"
    }
}