{
    "cas_no": "96-21-9",
    "key_name": "1,3-Dibromo-2-propanol",
    "cn_name": "1,3-二溴-2-丙醇;",
    "alternate_name": "2-Propanol, 1,3-dibromo-;1,3-Dibromo-2-propanol;α,γ-Dibromohydrin;1,3-Dibromo-2-hydroxypropane;α-Dibromohydrin;Glycerol 1,3-dibromohydrin;Glycerol α,γ-dibromohydrin;1,3-Dibromohydrin;2-Hydroxy-1,3-dibromopropane;1,3-Dibromopropanol;NSC 636",
    "duplicated_cas_no": "41638-27-1",
    "SMILES": "C(CBr)(CBr)O",
    "meta_data": {
        "InChI": "InChI=1S/C3H6Br2O/c4-1-3(6)2-5/h3,6H,1-2H2",
        "InChIKey": null,
        "Canonical SMILES": "BrCC(O)CBr",
        "Molecular Formula": "C<sub>3</sub>H<sub>6</sub>Br<sub>2</sub>O",
        "Molecular Mass": "217.89",
        "Boiling Point": "103-106 °C @ Press: 15 Torr",
        "Melting Point": "103-106 °C"
    }
}