{
    "cas_no": "636-99-7",
    "key_name": "Hydrazine, (4-nitrophenyl)-, hydrochloride (1:1)",
    "cn_name": "4-硝基苯肼盐酸盐;",
    "alternate_name": "Hydrazine, (4-nitrophenyl)-, hydrochloride (1:1);Hydrazine, (<em>p</em>-nitrophenyl)-, hydrochloride;Hydrazine, (4-nitrophenyl)-, monohydrochloride;<em>p</em>-Nitrophenylhydrazine hydrochloride;4-Nitrophenylhydrazine monohydrochloride;2-(4-Nitrophenyl)hydrazinium chloride",
    "duplicated_cas_no": "",
    "SMILES": "N(=O)(=O)C1=CC=C(NN)C=C1.Cl",
    "meta_data": {
        "InChI": "InChI=1S/C6H7N3O2.ClH/c7-8-5-1-3-6(4-2-5)9(10)11;/h1-4,8H,7H2;1H",
        "InChIKey": null,
        "Canonical SMILES": "Cl.O=N(=O)C1=CC=C(C=C1)NN",
        "Molecular Formula": "C<sub>6</sub>H<sub>7</sub>N<sub>3</sub>O<sub>2</sub>.ClH",
        "Molecular Mass": "",
        "Melting Point": "196-197 °C"
    }
}