{
    "cas_no": "26087-47-8",
    "key_name": "Iprobenfos",
    "cn_name": "异稻瘟净;异丙稻瘟净;O,O-二异丙基-S-苄基硫代磷酸酯;",
    "alternate_name": "Phosphorothioic acid, <em>O</em>,<em>O</em>-bis(1-methylethyl) <em>S</em>-(phenylmethyl) ester;Phosphorothioic acid, <em>S</em>-benzyl <em>O</em>,<em>O</em>-diisopropyl ester;Kitazin P;<em>S</em>-Benzyl <em>O</em>,<em>O</em>-diisopropyl phosphorothiolate;<em>S</em>-Benzyl <em>O</em>,<em>O</em>-diisopropyl phosphorothioate;<em>O</em>,<em>O</em>-Diisopropyl <em>S</em>-benzyl thiophosphate;IBP;<em>O</em>,<em>O</em>-Diisopropyl <em>S</em>-benzyl phosphorothioate;<em>S</em>-Benzyl <em>O</em>,<em>O</em>-diisopropyl thiophosphate;<em>O</em>,<em>O</em>-Diisopropyl <em>S</em>-benzyl phosphorothiolate;Kitazin L;Ricid II;Ricid P;Iprobenfos;Isokitazine;Kitazin 17;Tagkit",
    "duplicated_cas_no": "62601-78-9;72779-52-3;1135443-37-6",
    "SMILES": "P(SCC1=CC=CC=C1)(OC(C)C)(OC(C)C)=O",
    "meta_data": {
        "InChI": "InChI=1S/C13H21O3PS/c1-11(2)15-17(14,16-12(3)4)18-10-13-8-6-5-7-9-13/h5-9,11-12H,10H2,1-4H3",
        "InChIKey": null,
        "Canonical SMILES": "O=P(OC(C)C)(OC(C)C)SCC=1C=CC=CC1",
        "Molecular Formula": "C<sub>13</sub>H<sub>21</sub>O<sub>3</sub>PS",
        "Molecular Mass": "288.34",
        "Boiling Point": "126 °C",
        "Melting Point": "&lt;25 °C",
        "Density": "1.1001 g/cm³ @ Temp: 20 °C"
    }
}