{
    "cas_no": "619-72-7",
    "key_name": "4-Nitrobenzonitrile",
    "cn_name": "对硝基苯甲腈;",
    "alternate_name": "Benzonitrile, 4-nitro-;Benzonitrile, <em>p</em>-nitro-;4-Nitrobenzonitrile;<em>p</em>-Nitrobenzonitrile;<em>p</em>-Cyanonitrobenzene;4-Cyanonitrobenzene;4-Cyano-1-nitrobenzene;4-Nitrobenzenenitrile;NSC 5383;1-Cyano-4-nitrobenzene",
    "duplicated_cas_no": "",
    "SMILES": "N(=O)(=O)C1=CC=C(C#N)C=C1",
    "meta_data": {
        "InChI": "InChI=1S/C7H4N2O2/c8-5-6-1-3-7(4-2-6)9(10)11/h1-4H",
        "InChIKey": null,
        "Canonical SMILES": "N#CC1=CC=C(C=C1)N(=O)=O",
        "Molecular Formula": "C<sub>7</sub>H<sub>4</sub>N<sub>2</sub>O<sub>2</sub>",
        "Molecular Mass": "148.12",
        "Boiling Point": "50-51 °C @ Press: 11 Torr",
        "Melting Point": "146-149 °C"
    }
}