{
    "cas_no": "2386-56-3",
    "key_name": "Potassium methanesulfonate",
    "cn_name": "甲烷磺酸钾;",
    "alternate_name": "Methanesulfonic acid, potassium salt (1:1);Methanesulfonic acid, potassium salt;Potassium methanesulfonate;Potassium methylsulfonate;Potassium mesylate",
    "duplicated_cas_no": "1086230-70-7",
    "SMILES": "S(C)(=O)(=O)O.[K]",
    "meta_data": {
        "InChI": "InChI=1S/CH4O3S.K/c1-5(2,3)4;/h1H3,(H,2,3,4);",
        "InChIKey": null,
        "Canonical SMILES": "[K].O=S(=O)(O)C",
        "Molecular Formula": "CH<sub>4</sub>O<sub>3</sub>S.K",
        "Molecular Mass": "",
        "Melting Point": "&gt;360 °C"
    }
}