{
    "cas_no": "56391-56-1",
    "key_name": "Netilmicin",
    "cn_name": null,
    "alternate_name": "<span class=\"text-smallcaps\">D</smallcap>-Streptamine, <em>O</em>-3-deoxy-4-<em>C</em>-methyl-3-(methylamino)-β-<smallcap>L</smallcap>-arabinopyranosyl-(1→6)-<em>O</em>-[2,6-diamino-2,3,4,6-tetradeoxy-α-<smallcap>D</span>-<em>glycero</em>-hex-4-enopyranosyl-(1→4)]-2-deoxy-<em>N</em><sup>1</sup>-ethyl-;<em>O</em>-3-Deoxy-4-<em>C</em>-methyl-3-(methylamino)-β-<span class=\"text-smallcaps\">L</smallcap>-arabinopyranosyl-(1→6)-<em>O</em>-[2,6-diamino-2,3,4,6-tetradeoxy-α-<smallcap>D</smallcap>-<em>glycero</em>-hex-4-enopyranosyl-(1→4)]-2-deoxy-<em>N</em><sup>1</sup>-ethyl-<smallcap>D</span>-streptamine;Sch 20569;Netilmicin;1-<em>N</em>-Ethylsisomicin;1-<em>N</em>-Ethylsisomycin;Netromycin;MeSH ID: D009428",
    "duplicated_cas_no": "118964-03-7;60118-08-3",
    "SMILES": "O([C@H]1[C@H](NCC)C[C@H](N)[C@@H](O[C@H]2OC(CN)=CC[C@H]2N)[C@@H]1O)[C@@H]3[C@H](O)[C@@H](NC)[C@@](C)(O)CO3",
    "meta_data": {
        "InChI": "InChI=1S/C21H41N5O7/c1-4-26-13-7-12(24)16(32-19-11(23)6-5-10(8-22)31-19)14(27)17(13)33-20-15(28)18(25-3)21(2,29)9-30-20/h5,11-20,25-29H,4,6-9,22-24H2,1-3H3/t11-,12+,13-,14+,15-,16-,17+,18-,19-,20-,21+/m1/s1",
        "InChIKey": null,
        "Canonical SMILES": "OC1C(OC2OC(=CCC2N)CN)C(N)CC(NCC)C1OC3OCC(O)(C)C(NC)C3O",
        "Molecular Formula": "C<sub>21</sub>H<sub>41</sub>N<sub>5</sub>O<sub>7</sub>",
        "Molecular Mass": "475.58",
        "Melting Point": "100-103 °C"
    }
}