{
    "cas_no": "486-74-8",
    "key_name": "4-Quinolinecarboxylic acid",
    "cn_name": "喹啉-4-羧酸;喹啉-4-羧酸;喹啉甲酸;4-喹啉甲酸;",
    "alternate_name": "4-Quinolinecarboxylic acid;Cinchoninic acid;4-Carboxyquinoline;NSC 13138;4-Quinolinic acid;<em>N</em>-Quinoline-4-carboxylic acid",
    "duplicated_cas_no": "123574-69-6",
    "SMILES": "C(O)(=O)C=1C2=C(N=CC1)C=CC=C2",
    "meta_data": {
        "InChI": "InChI=1S/C10H7NO2/c12-10(13)8-5-6-11-9-4-2-1-3-7(8)9/h1-6H,(H,12,13)",
        "InChIKey": null,
        "Canonical SMILES": "O=C(O)C=1C=CN=C2C=CC=CC21",
        "Molecular Formula": "C<sub>10</sub>H<sub>7</sub>NO<sub>2</sub>",
        "Molecular Mass": "173.17",
        "Melting Point": "253 °C"
    }
}