{
    "cas_no": "5131-24-8",
    "key_name": "Ditalimfos",
    "cn_name": "灭菌磷;灭菌磷标准品;",
    "alternate_name": "Phosphonothioic acid, <em>P</em>-(1,3-dihydro-1,3-dioxo-2<em>H</em>-isoindol-2-yl)-, <em>O</em>,<em>O</em>-diethyl ester;Phosphonothioic acid, phthalimido-, <em>O</em>,<em>O</em>-diethyl ester;Phosphonothioic acid, (1,3-dihydro-1,3-dioxo-2<em>H</em>-isoindol-2-yl)-, <em>O</em>,<em>O</em>-diethyl ester;<em>O</em>,<em>O</em>-Diethyl phthalimidophosphonothionate;O 199;Millie;Ortho 199;Dowco 199;M 2452;<em>O</em>,<em>O</em>-Diethyl phthalimidophosphonothioate;Plondrel;Ditalimfos;RE 199;Ditalimphos;SF 101",
    "duplicated_cas_no": "",
    "SMILES": "P(OCC)(OCC)(=S)N1C(=O)C=2C(C1=O)=CC=CC2",
    "meta_data": {
        "InChI": "InChI=1S/C12H14NO4PS/c1-3-16-18(19,17-4-2)13-11(14)9-7-5-6-8-10(9)12(13)15/h5-8H,3-4H2,1-2H3",
        "InChIKey": null,
        "Canonical SMILES": "O=C1C=2C=CC=CC2C(=O)N1P(=S)(OCC)OCC",
        "Molecular Formula": "C<sub>12</sub>H<sub>14</sub>NO<sub>4</sub>PS",
        "Molecular Mass": "299.28",
        "Melting Point": "82.5-84.0 °C"
    }
}