{
    "cas_no": "4422-95-1",
    "key_name": "Trimesoyl chloride",
    "cn_name": "1,3,5-苯三甲酰氯;均苯三甲酰氯;",
    "alternate_name": "1,3,5-Benzenetricarbonyl trichloride;1,3,5-Benzenetricarbonyl chloride;Trimesoyl chloride;Trimesic acid trichloride;1,3,5-Benzenetricarboxylic acid chloride;1,3,5-Benzenetricarboxylic chloride;1,3,5-Tris(chlorocarbonyl)benzene;Trimesoyl trichloride;1,3,5-Tris(chloroformyl)benzene;Trimesinic acid trichloride;NSC 82328;1,3,5-Trimesoyl chloride;Trimesic acid chloride",
    "duplicated_cas_no": "84270-84-8;1640987-67-2",
    "SMILES": "C(Cl)(=O)C1=CC(C(Cl)=O)=CC(C(Cl)=O)=C1",
    "meta_data": {
        "InChI": "InChI=1S/C9H3Cl3O3/c10-7(13)4-1-5(8(11)14)3-6(2-4)9(12)15/h1-3H",
        "InChIKey": null,
        "Canonical SMILES": "O=C(Cl)C=1C=C(C=C(C1)C(=O)Cl)C(=O)Cl",
        "Molecular Formula": "C<sub>9</sub>H<sub>3</sub>Cl<sub>3</sub>O<sub>3</sub>",
        "Molecular Mass": "265.48",
        "Boiling Point": "175-176 °C @ Press: 15 Torr",
        "Melting Point": "36.3 °C"
    }
}