{
    "cas_no": "7621-86-5",
    "key_name": "2-(4-Aminophenyl)-5-aminobenzimidazole",
    "cn_name": "2-(4-氨基苯基)-5-氨基苯并咪唑;",
    "alternate_name": "1<em>H</em>-Benzimidazol-6-amine, 2-(4-aminophenyl)-;Benzimidazole, 5-amino-2-(<em>p</em>-aminophenyl)-;1<em>H</em>-Benzimidazol-5-amine, 2-(4-aminophenyl)-;Benzimidazole, 5(<em>or</em> 6)-amino-2-(<em>p</em>-aminophenyl)-;2-(4-Aminophenyl)-1<em>H</em>-benzimidazol-6-amine;5-Amino-2-(<em>p</em>-aminophenyl)benzimidazole;5,4′-Diamino-2-phenylbenzimidazole;2-(4-Aminophenyl)-5-aminobenzimidazole;5-Amino-2-(4-aminophenyl)benzimidazole;5(6)-Amino-2-(<em>p</em>-aminophenyl)benzimidazole;5(6)-Amino-2-(4′-aminophenyl)benzimidazole;NSC 408148;6,4′-Diamino-2-phenylbenzimidazole;5-Amino-2-(4-aminobenzene)benzimidazole;5-Amino-2-(4-aminophenyl)-1<em>H</em>-benzimidazole;BIA;2-(4-Aminophenyl)-1<em>H</em>-benzimidazol-5-amine;2-(4-Aminophenyl)-1<em>H</em>-benzimidazole-5-amine;5-Amino-2-(4-aminophenyl)benzylimidazole;2-(4-Aminophenyl)-1<em>H</em>-1,3-benzodiazol-6-amine;2-(4-Amino-phenyl)-1<em>H</em>-benzoimidazol-5-ylamine;2-(4-Aminophenyl)-1<em>H</em>-1,3-benzodiazol-5-amine;2-(4-Aminophenyl)-3<em>H</em>-benzimidazol-5-amine;2-(4-Aminophenyl)-1<em>H</em>-benzo[<em>d</em>]imidazol-5-amine;2-(4-Aminophenyl)-1<em>H</em>-benzo[<em>d</em>]imidazol-6-amine",
    "duplicated_cas_no": "67294-77-3",
    "SMILES": "NC1=CC=C(C=2NC=3C(N2)=CC(N)=CC3)C=C1",
    "meta_data": {
        "InChI": "InChI=1S/C13H12N4/c14-9-3-1-8(2-4-9)13-16-11-6-5-10(15)7-12(11)17-13/h1-7H,14-15H2,(H,16,17)",
        "InChIKey": null,
        "Canonical SMILES": "N=1C2=CC(N)=CC=C2NC1C=3C=CC(N)=CC3",
        "Molecular Formula": "C<sub>13</sub>H<sub>12</sub>N<sub>4</sub>",
        "Molecular Mass": "224.26",
        "Melting Point": "&gt;320 °C"
    }
}