{
    "cas_no": "66-81-9",
    "key_name": "(-)-Cycloheximide",
    "cn_name": "放线菌酮;3-[2-(3,5-二甲基-2-氧代环己基)-2-羧基乙基]戊二酰胺;",
    "alternate_name": "2,6-Piperidinedione, 4-[(2<em>R</em>)-2-[(1<em>S</em>,3<em>S</em>,5<em>S</em>)-3,5-dimethyl-2-oxocyclohexyl]-2-hydroxyethyl]-;Naramycin A;Glutarimide, 3-[2-(3,5-dimethyl-2-oxocyclohexyl)-2-hydroxyethyl]-;2,6-Piperidinedione, 4-[2-(3,5-dimethyl-2-oxocyclohexyl)-2-hydroxyethyl]-, [1<em>S</em>-[1α(<em>S</em>*),3α,5β]]-;4-[(2<em>R</em>)-2-[(1<em>S</em>,3<em>S</em>,5<em>S</em>)-3,5-Dimethyl-2-oxocyclohexyl]-2-hydroxyethyl]-2,6-piperidinedione;Actidion;Acti-dione;Cycloheximide;β-[2-(3,5-Dimethyl-2-oxocyclohexyl)-2-hydroxyethyl]glutarimide;3-[2-(3,5-Dimethyl-2-oxocyclohexyl)-2-hydroxyethyl]glutarimide;U 4527;TZA;Naramycin;NSC 185;Acti-Aid;Acti-dione BR;Acti-dione TGF;Acti-dione PM;Naramycin Microcapsule D 80;Cicloheximide;NM-MCD 80;Naramycin NM-MCU 80;LDN 97549;FT 3422-2;CHX;<em>l</em>-Cycloheximide;(-)-Cycloheximide;MeSH ID: D003513",
    "duplicated_cas_no": "4630-76-6;6399-67-3;17974-04-8;21059-09-6",
    "SMILES": "[C@H](CC1CC(=O)NC(=O)C1)(O)[C@]2(C(=O)[C@@H](C)C[C@H](C)C2)[H]",
    "meta_data": {
        "InChI": "InChI=1S/C15H23NO4/c1-8-3-9(2)15(20)11(4-8)12(17)5-10-6-13(18)16-14(19)7-10/h8-12,17H,3-7H2,1-2H3,(H,16,18,19)/t8-,9-,11-,12+/m0/s1",
        "InChIKey": null,
        "Canonical SMILES": "O=C1NC(=O)CC(C1)CC(O)C2C(=O)C(C)CC(C)C2",
        "Molecular Formula": "C<sub>15</sub>H<sub>23</sub>NO<sub>4</sub>",
        "Molecular Mass": "281.35",
        "Melting Point": "119.5-121 °C"
    }
}