{
    "cas_no": "13709-03-0",
    "key_name": "Cassiaside",
    "cn_name": null,
    "alternate_name": "4<em>H</em>-Naphtho[2,3-<em>b</em>]pyran-4-one, 6-(β-<span class=\"text-smallcaps\">D</span>-glucopyranosyloxy)-5,8-dihydroxy-2-methyl-;Glucopyranoside, 5,8-dihydroxy-2-methyl-4-oxo-4<em>H</em>-naphtho[2,3-<em>b</em>]pyran-6-yl, β-<span class=\"text-smallcaps\">D</span>-;6-(β-<span class=\"text-smallcaps\">D</span>-Glucopyranosyloxy)-5,8-dihydroxy-2-methyl-4<em>H</em>-naphtho[2,3-<em>b</em>]pyran-4-one;Cassiaside;Cassiaside A;Norrubrofusarin 6-β-mono-<span class=\"text-smallcaps\">D</span>-glucoside;Norrubrofusarin 6-β-<span class=\"text-smallcaps\">D</span>-glucopyranoside;Casside",
    "duplicated_cas_no": "123914-49-8",
    "SMILES": "O(C=1C2=C(C=C3C(=C2O)C(=O)C=C(C)O3)C=C(O)C1)[C@@H]4O[C@H](CO)[C@@H](O)[C@H](O)[C@H]4O",
    "meta_data": {
        "InChI": "InChI=1S/C20H20O10/c1-7-2-10(23)15-11(28-7)4-8-3-9(22)5-12(14(8)17(15)25)29-20-19(27)18(26)16(24)13(6-21)30-20/h2-5,13,16,18-22,24-27H,6H2,1H3/t13-,16-,18+,19-,20-/m1/s1",
        "InChIKey": null,
        "Canonical SMILES": "O=C1C=C(OC2=CC=3C=C(O)C=C(OC4OC(CO)C(O)C(O)C4O)C3C(O)=C12)C",
        "Molecular Formula": "C<sub>20</sub>H<sub>20</sub>O<sub>10</sub>",
        "Molecular Mass": "420.37",
        "Melting Point": "256-257 °C"
    }
}