{
    "cas_no": "6601-66-7",
    "key_name": "6-Demethoxytangeretin",
    "cn_name": null,
    "alternate_name": "4<em>H</em>-1-Benzopyran-4-one, 5,7,8-trimethoxy-2-(4-methoxyphenyl)-;Flavone, 4′,5,7,8-tetramethoxy-;5,7,8-Trimethoxy-2-(4-methoxyphenyl)-4<em>H</em>-1-benzopyran-4-one;4′,5,7,8-Tetramethoxyflavone;Tetra-<em>O</em>-methylisoscutellarein;6-Demethoxytangeritin;6-Demethoxytangeretin;5,7,8,4′-Tetramethoxyflavone",
    "duplicated_cas_no": "",
    "SMILES": "O(C)C1=C2C(=C(OC)C=C1OC)C(=O)C=C(O2)C3=CC=C(OC)C=C3",
    "meta_data": {
        "InChI": "InChI=1S/C19H18O6/c1-21-12-7-5-11(6-8-12)14-9-13(20)17-15(22-2)10-16(23-3)18(24-4)19(17)25-14/h5-10H,1-4H3",
        "InChIKey": null,
        "Canonical SMILES": "O=C1C=C(OC=2C(OC)=C(OC)C=C(OC)C12)C=3C=CC(OC)=CC3",
        "Molecular Formula": "C<sub>19</sub>H<sub>18</sub>O<sub>6</sub>",
        "Molecular Mass": "342.34",
        "Melting Point": "207-208 °C"
    }
}