{
    "cas_no": "97-54-1",
    "key_name": "Isoeugenol",
    "cn_name": "异丁香酚;4-丙烯基-2-甲氧基苯酚;异丁香子酚;2-甲氧基-(1-丙烯)酚;2-甲氧基-4-(1-丙烯基)-苯酚;对丙烯基邻;",
    "alternate_name": "Phenol, 2-methoxy-4-(1-propen-1-yl)-;Phenol, 2-methoxy-4-propenyl-;Phenol, 2-methoxy-4-(1-propenyl)-;2-Methoxy-4-(1-propen-1-yl)phenol;4-Hydroxy-3-methoxy-1-propenylbenzene;Isoeugenol;2-Methoxy-4-propenylphenol;3-Methoxy-4-hydroxy-1-propenylbenzene;4-Propenylguaiacol;2-Methoxy-4-(1-propenyl)phenol;<em>iso</em>-Eugenol;1-(3-Methoxy-4-hydroxyphenyl)-1-propene;NSC 6769;4-Hydroxy-3-methoxy-β-methylstyrene;4-(1-Propenyl) Guaiacol;4-Propenyl-2-methoxyphenol",
    "duplicated_cas_no": "",
    "SMILES": "O(C)C1=CC(C=CC)=CC=C1O",
    "meta_data": {
        "InChI": "InChI=1S/C10H12O2/c1-3-4-8-5-6-9(11)10(7-8)12-2/h3-7,11H,1-2H3",
        "InChIKey": null,
        "Canonical SMILES": "OC1=CC=C(C=CC)C=C1OC",
        "Molecular Formula": "C<sub>10</sub>H<sub>12</sub>O<sub>2</sub>",
        "Molecular Mass": "164.20",
        "Boiling Point": "266 °C",
        "Melting Point": "-10 °C",
        "Density": "1.0869 g/cm³ @ Temp: 20 °C"
    }
}