{
    "cas_no": "115-33-3",
    "key_name": "Contax",
    "cn_name": "双醋酚丁;双醋酚丁;",
    "alternate_name": "2<em>H</em>-Indol-2-one, 3,3-bis[4-(acetyloxy)phenyl]-1,3-dihydro-;2-Indolinone, 3,3-bis(<em>p</em>-hydroxyphenyl)-, diacetate (ester);2-Indolinone, 3,3-bis(<em>p</em>-hydroxyphenyl)-, diacetate;Oxindole, 3,3-bis(<em>p</em>-hydroxyphenyl)-, diacetate;3,3-Bis[4-(acetyloxy)phenyl]-1,3-dihydro-2<em>H</em>-indol-2-one;Acetophenolisatin;3,3-Bis(<em>p</em>-acetoxyphenyl)oxindole;Bisatin;3,3-Bis(<em>p</em>-hydroxyphenyl)-2-indolinone diacetate;Cirotyl;Diacetyldihydroxydiphenylisatin;Diacetyldioxyphenylisatin;Diacetyldiphenolisatin;Diphesatin;Diphesatine;Isacen;Isaphen;Isocrin;Laxo-Isatin;Lisagal;Oxyphenisatin acetate;Promassolax;Prulet;Prulet Liquitab;Purgaceen;Sanapert;Isaphenin;Isatin, <em>O</em>,<em>O</em>′-diacetyldiphenol-;Contax;3,3-Bis(<em>p</em>-acetoxyphenyl)-2-indolinone;Acelax;Acetalax;Puragaceen;Laxocol;Purgophen;Brocatine;Eulaxin;Oxyphenisatin diacetate;Diasatin;Diasatine;Phenlaxine;Fenisan;NSC 59687;Bydolax;NSC 117186;Acetphenolisatin;(2-Oxoindoline-3,3-diyl)bis(4,1-phenylene) diacetate;MeSH ID: D010114",
    "duplicated_cas_no": "8055-09-2",
    "SMILES": "O=C1C(C=2C(N1)=CC=CC2)(C3=CC=C(OC(C)=O)C=C3)C4=CC=C(OC(C)=O)C=C4",
    "meta_data": {
        "InChI": "InChI=1S/C24H19NO5/c1-15(26)29-19-11-7-17(8-12-19)24(18-9-13-20(14-10-18)30-16(2)27)21-5-3-4-6-22(21)25-23(24)28/h3-14H,1-2H3,(H,25,28)",
        "InChIKey": null,
        "Canonical SMILES": "O=C(OC1=CC=C(C=C1)C2(C(=O)NC=3C=CC=CC32)C4=CC=C(OC(=O)C)C=C4)C",
        "Molecular Formula": "C<sub>24</sub>H<sub>19</sub>NO<sub>5</sub>",
        "Molecular Mass": "401.41",
        "Melting Point": "242 °C"
    }
}