{
    "cas_no": "2159-42-4",
    "key_name": "2-(3,4-Dimethylbenzoyl)benzoic acid",
    "cn_name": null,
    "alternate_name": "Benzoic acid, 2-(3,4-dimethylbenzoyl)-;Benzoic acid, <em>o</em>-(3,4-dimethylbenzoyl)-;2-(3,4-Dimethylbenzoyl)benzoic acid;NSC 201577",
    "duplicated_cas_no": "",
    "SMILES": "C(=O)(C1=C(C(O)=O)C=CC=C1)C2=CC(C)=C(C)C=C2",
    "meta_data": {
        "InChI": "InChI=1S/C16H14O3/c1-10-7-8-12(9-11(10)2)15(17)13-5-3-4-6-14(13)16(18)19/h3-9H,1-2H3,(H,18,19)",
        "InChIKey": null,
        "Canonical SMILES": "O=C(O)C=1C=CC=CC1C(=O)C2=CC=C(C(=C2)C)C",
        "Molecular Formula": "C<sub>16</sub>H<sub>14</sub>O<sub>3</sub>",
        "Molecular Mass": "254.28",
        "Melting Point": "192 °C"
    }
}