{
    "cas_no": "168273-06-1",
    "key_name": "Rimonabant",
    "cn_name": "利莫那班;5-(4-氯苯基)-1-(2,4-二氯苯基)-4-甲基-N-(1-哌啶基)-1H-吡唑-3-甲酰胺;",
    "alternate_name": "1<em>H</em>-Pyrazole-3-carboxamide, 5-(4-chlorophenyl)-1-(2,4-dichlorophenyl)-4-methyl-<em>N</em>-1-piperidinyl-;5-(4-Chlorophenyl)-1-(2,4-dichlorophenyl)-4-methyl-<em>N</em>-1-piperidinyl-1<em>H</em>-pyrazole-3-carboxamide;SR 141716;Rimonabant;Acomplia;A 281;<em>N</em>-Piperidino-5-(4-chlorophenyl)-1-(2,4-dichlorophenyl)-4-methylpyrazole-3-carboxamide;1-(2,4-Dichlorophenyl)-5-(4-chlorophenyl)-4-methyl-<em>N</em>-(piperidin-1-yl)-1<em>H</em>-pyrazole-3-carboxamide;5-(4-Chlorophenyl)-1-(2,4-dichlorophenyl)-4-methyl-1<em>H</em>-pyrazole-3-carboxylic acid <em>N</em>-(piperidin-1-yl)amide;5-(4-Chlorophenyl)-1-(2,4-dichlorophenyl)-4-methyl-<em>N</em>-(piperidin-1-yl)-1<em>H</em>-pyrazole-3-carboxamide;SR 141617;Zimulti;ENP 9",
    "duplicated_cas_no": "948565-21-7",
    "SMILES": "CC1=C(N(N=C1C(NN2CCCCC2)=O)C3=C(Cl)C=C(Cl)C=C3)C4=CC=C(Cl)C=C4",
    "meta_data": {
        "InChI": "InChI=1S/C22H21Cl3N4O/c1-14-20(22(30)27-28-11-3-2-4-12-28)26-29(19-10-9-17(24)13-18(19)25)21(14)15-5-7-16(23)8-6-15/h5-10,13H,2-4,11-12H2,1H3,(H,27,30)",
        "InChIKey": null,
        "Canonical SMILES": "O=C(NN1CCCCC1)C2=NN(C3=CC=C(Cl)C=C3Cl)C(C=4C=CC(Cl)=CC4)=C2C",
        "Molecular Formula": "C<sub>22</sub>H<sub>21</sub>Cl<sub>3</sub>N<sub>4</sub>O",
        "Molecular Mass": "463.79",
        "Melting Point": "154.7 °C"
    }
}