{
    "cas_no": "60925-61-3",
    "key_name": "Ceforanide",
    "cn_name": "头孢雷特;(6R,7R)-7-[[2-[2-(氨基甲基)苯基]乙酰]氨基]-3-[[1-(羧甲基)四唑-5-基]硫甲基]-8-氧代-5-硫杂-1-;",
    "alternate_name": "5-Thia-1-azabicyclo[4.2.0]oct-2-ene-2-carboxylic acid, 7-[[2-[2-(aminomethyl)phenyl]acetyl]amino]-3-[[[1-(carboxymethyl)-1<em>H</em>-tetrazol-5-yl]thio]methyl]-8-oxo-, (6<em>R</em>,7<em>R</em>)-;5-Thia-1-azabicyclo[4.2.0]oct-2-ene-2-carboxylic acid, 7-[[[2-(aminomethyl)phenyl]acetyl]amino]-3-[[[1-(carboxymethyl)-1<em>H</em>-tetrazol-5-yl]thio]methyl]-8-oxo-, (6<em>R</em>-<em>trans</em>)-;5-Thia-1-azabicyclo[4.2.0]oct-2-ene-2-carboxylic acid, 7-[[[2-(aminomethyl)phenyl]acetyl]amino]-3-[[[1-(carboxymethyl)-1<em>H</em>-tetrazol-5-yl]thio]methyl]-8-oxo-, (6<em>R</em>,7<em>R</em>)-;(6<em>R</em>,7<em>R</em>)-7-[[2-[2-(Aminomethyl)phenyl]acetyl]amino]-3-[[[1-(carboxymethyl)-1<em>H</em>-tetrazol-5-yl]thio]methyl]-8-oxo-5-thia-1-azabicyclo[4.2.0]oct-2-ene-2-carboxylic acid;Antibiotic BL-S 786;BL-S 786;Ceforanide",
    "duplicated_cas_no": "",
    "SMILES": "C(O)(=O)C=1N2[C@@]([C@H](NC(CC3=C(CN)C=CC=C3)=O)C2=O)(SCC1CSC=4N(CC(O)=O)N=NN4)[H]",
    "meta_data": {
        "InChI": "InChI=1S/C20H21N7O6S2/c21-6-11-4-2-1-3-10(11)5-13(28)22-15-17(31)27-16(19(32)33)12(8-34-18(15)27)9-35-20-23-24-25-26(20)7-14(29)30/h1-4,15,18H,5-9,21H2,(H,22,28)(H,29,30)(H,32,33)/t15-,18-/m1/s1",
        "InChIKey": null,
        "Canonical SMILES": "O=C(O)C1=C(CSC2=NN=NN2CC(=O)O)CSC3N1C(=O)C3NC(=O)CC=4C=CC=CC4CN",
        "Molecular Formula": "C<sub>20</sub>H<sub>21</sub>N<sub>7</sub>O<sub>6</sub>S<sub>2</sub>",
        "Molecular Mass": "519.55",
        "Melting Point": "&gt;150 °C (decomp)"
    }
}