{
    "cas_no": "85571-15-9",
    "key_name": "Rhodionin",
    "cn_name": "草质素甙; 草质素苷;",
    "alternate_name": "4<em>H</em>-1-Benzopyran-4-one, 7-[(6-deoxy-α-<span class=\"text-smallcaps\">L</span>-mannopyranosyl)oxy]-3,5,8-trihydroxy-2-(4-hydroxyphenyl)-;7-[(6-Deoxy-α-<span class=\"text-smallcaps\">L</span>-mannopyranosyl)oxy]-3,5,8-trihydroxy-2-(4-hydroxyphenyl)-4<em>H</em>-1-benzopyran-4-one;Rhodionin;Herbacetin 7-<em>O</em>-α-<span class=\"text-smallcaps\">L</span>-rhamnopyranoside",
    "duplicated_cas_no": "",
    "SMILES": "OC1=C2C(C(=O)C(O)=C(O2)C3=CC=C(O)C=C3)=C(O)C=C1O[C@H]4[C@H](O)[C@H](O)[C@@H](O)[C@H](C)O4",
    "meta_data": {
        "InChI": "InChI=1S/C21H20O11/c1-7-13(24)16(27)18(29)21(30-7)31-11-6-10(23)12-15(26)17(28)19(32-20(12)14(11)25)8-2-4-9(22)5-3-8/h2-7,13,16,18,21-25,27-29H,1H3/t7-,13-,16+,18+,21-/m0/s1",
        "InChIKey": null,
        "Canonical SMILES": "O=C1C(O)=C(OC2=C(O)C(OC3OC(C)C(O)C(O)C3O)=CC(O)=C12)C=4C=CC(O)=CC4",
        "Molecular Formula": "C<sub>21</sub>H<sub>20</sub>O<sub>11</sub>",
        "Molecular Mass": "448.38",
        "Melting Point": "234-237 °C"
    }
}