{
    "cas_no": "7789-48-2",
    "key_name": "Magnesium bromide",
    "cn_name": "溴化镁;",
    "alternate_name": "Magnesium bromide (MgBr<sub>2</sub>);Magnesium bromide;Magnesium dibromide",
    "duplicated_cas_no": "53168-84-6",
    "SMILES": "[Mg](Br)Br",
    "meta_data": {
        "InChI": "InChI=1S/2BrH.Mg/h2*1H;/q;;+2/p-2",
        "InChIKey": null,
        "Canonical SMILES": "Br[Mg]Br",
        "Molecular Formula": "Br<sub>2</sub>Mg",
        "Molecular Mass": "",
        "Melting Point": "165 °C (decomp)",
        "Density": "3.720 g/cm³"
    }
}