{
    "cas_no": "33288-71-0",
    "key_name": "4-[2-(5-Methylpyrazine-2-carboxamido)ethyl]benzenesulfonamide",
    "cn_name": "2-[4-氨基磺酰-苯基]-乙基-5-甲基吡嗪甲酰胺;",
    "alternate_name": "2-Pyrazinecarboxamide, <em>N</em>-[2-[4-(aminosulfonyl)phenyl]ethyl]-5-methyl-;Pyrazinecarboxamide, <em>N</em>-[2-[4-(aminosulfonyl)phenyl]ethyl]-5-methyl-;Pyrazinecarboxamide, 5-methyl-<em>N</em>-(<em>p</em>-sulfamoylphenethyl)-;<em>N</em>-[2-[4-(Aminosulfonyl)phenyl]ethyl]-5-methyl-2-pyrazinecarboxamide;4-[2-(5-Methylpyrazine-2-carboxamido)ethyl]benzenesulfonamide;4-[2-(5-Methylpyrazinyl-2-carboxamido)ethyl]benzenesulfonamide",
    "duplicated_cas_no": "",
    "SMILES": "C(CNC(=O)C=1C=NC(C)=CN1)C2=CC=C(S(N)(=O)=O)C=C2",
    "meta_data": {
        "InChI": "InChI=1S/C14H16N4O3S/c1-10-8-18-13(9-17-10)14(19)16-7-6-11-2-4-12(5-3-11)22(15,20)21/h2-5,8-9H,6-7H2,1H3,(H,16,19)(H2,15,20,21)",
        "InChIKey": null,
        "Canonical SMILES": "O=C(NCCC1=CC=C(C=C1)S(=O)(=O)N)C2=NC=C(N=C2)C",
        "Molecular Formula": "C<sub>14</sub>H<sub>16</sub>N<sub>4</sub>O<sub>3</sub>S",
        "Molecular Mass": "320.37",
        "Melting Point": "228-230 °C"
    }
}