{
    "cas_no": "561-20-6",
    "key_name": "Cacotheline",
    "cn_name": "硝基马钱子碱;",
    "alternate_name": "17-Norcuran-16-propanoic acid, 19,20-didehydro-β,18-epoxy-10,11-dihydro-12-nitro-10,11-dioxo-, (β<em>S</em>,16β)-;Cacotheline;9,10-Secostrychnidin-10-oic acid, 2,3-dihydro-4-nitro-2,3-dioxo-;(β<em>S</em>,16β)-19,20-Didehydro-β,18-epoxy-10,11-dihydro-12-nitro-10,11-dioxo-17-norcuran-16-propanoic acid;Kacotheline;7,9-Methano-7<em>H</em>-oxepino[3,4-<em>a</em>]pyrrolo[2,3-<em>d</em>]carbazole-13-acetic acid, 2,3,5,6,7a,8,8a,11,13,13a,13b,14-dodecahydro-1-nitro-2,3-dioxo-, (4b<em>S</em>,7<em>S</em>,7a<em>S</em>,8a<em>R</em>,13<em>S</em>,13a<em>R</em>,13b<em>S</em>)-;NSC 5069",
    "duplicated_cas_no": "1355-04-0",
    "SMILES": "C(C(O)=O)[C@H]1[C@]2([C@]3([C@]4(C=5C(N3)=C(N(=O)=O)C(=O)C(=O)C5)[C@]6([N@@](CC4)CC([C@@]2(C6)[H])=CCO1)[H])[H])[H]",
    "meta_data": {
        "InChI": "InChI=1S/C21H21N3O7/c25-12-6-11-17(18(19(12)28)24(29)30)22-20-16-10-5-14-21(11,20)2-3-23(14)8-9(10)1-4-31-13(16)7-15(26)27/h1,6,10,13-14,16,20,22H,2-5,7-8H2,(H,26,27)/t10-,13-,14-,16-,20-,21+/m0/s1",
        "InChIKey": null,
        "Canonical SMILES": "O=C1C=C2C(NC3C4C(OCC=C5CN6CCC23C6CC54)CC(=O)O)=C(C1=O)N(=O)=O",
        "Molecular Formula": "C<sub>21</sub>H<sub>21</sub>N<sub>3</sub>O<sub>7</sub>",
        "Molecular Mass": "427.41",
        "Melting Point": "&gt;300 °C"
    }
}