{
    "cas_no": "2081-44-9",
    "key_name": "Tetrahydro-2<em>H</em>-pyran-4-ol",
    "cn_name": "四氢吡喃-4-醇;",
    "alternate_name": "2<em>H</em>-Pyran-4-ol, tetrahydro-;Pyran-4-ol, tetrahydro-;Tetrahydro-2<em>H</em>-pyran-4-ol;4-Hydroxytetrahydropyran;Tetrahydro-4-pyranol;Tetrahydro-2<em>H</em>-pyranol-4-ol;4-Hydroxytetrahydro-2<em>H</em>-pyran;Oxan-4-ol",
    "duplicated_cas_no": "",
    "SMILES": "OC1CCOCC1",
    "meta_data": {
        "InChI": "InChI=1S/C5H10O2/c6-5-1-3-7-4-2-5/h5-6H,1-4H2",
        "InChIKey": null,
        "Canonical SMILES": "OC1CCOCC1",
        "Molecular Formula": "C<sub>5</sub>H<sub>10</sub>O<sub>2</sub>",
        "Molecular Mass": "102.13",
        "Boiling Point": "60.5 °C @ Press: 0.7 Torr",
        "Density": "1.0776 g/cm³ @ Temp: 12.5 °C"
    }
}