{
    "cas_no": "2393-23-9",
    "key_name": "4-Methoxybenzylamine",
    "cn_name": "4-甲氧基苄胺;对甲氧基苄胺;",
    "alternate_name": "Benzenemethanamine, 4-methoxy-;Benzylamine, <em>p</em>-methoxy-;4-Methoxybenzenemethanamine;<em>p</em>-Methoxybenzylamine;4-Methoxybenzylamine;Anisylamine;<em>para</em>-Methoxybenzylamine;4-Methoxyphenylmethylamine;(4-Methoxyphenyl)methanamine;NSC 9269;4-Methyloxybenzylamine;1-Aminomethyl-4-methoxybenzene;1-(4-Methoxyphenyl)methanamine;[[4-(Methyloxy)phenyl]methyl]amine;(<em>p</em>-Methoxyphenyl)methanamine",
    "duplicated_cas_no": "",
    "SMILES": "C(N)C1=CC=C(OC)C=C1",
    "meta_data": {
        "InChI": "InChI=1S/C8H11NO/c1-10-8-4-2-7(6-9)3-5-8/h2-5H,6,9H2,1H3",
        "InChIKey": null,
        "Canonical SMILES": "O(C1=CC=C(C=C1)CN)C",
        "Molecular Formula": "C<sub>8</sub>H<sub>11</sub>NO",
        "Molecular Mass": "137.18",
        "Boiling Point": "236.5 °C",
        "Melting Point": "181 °C",
        "Density": "1.050 g/cm³ @ Temp: 15 °C"
    }
}