{
    "cas_no": "19686-73-8",
    "key_name": "1-Bromo-2-propanol",
    "cn_name": "1-溴-2-丙醇;",
    "alternate_name": "2-Propanol, 1-bromo-;1-Bromo-2-propanol;2-Hydroxy-2-methylethyl bromide;2-Hydroxypropyl bromide;1-Bromo-2-hydroxypropane;Propylene bromohydrin;(±)-1-Bromo-2-propanol",
    "duplicated_cas_no": "19785-84-3",
    "SMILES": "C(CBr)(C)O",
    "meta_data": {
        "InChI": "InChI=1S/C3H7BrO/c1-3(5)2-4/h3,5H,2H2,1H3",
        "InChIKey": null,
        "Canonical SMILES": "BrCC(O)C",
        "Molecular Formula": "C<sub>3</sub>H<sub>7</sub>BrO",
        "Molecular Mass": "138.99",
        "Boiling Point": "146.5 °C",
        "Density": "1.5585 g/cm³ @ Temp: 30 °C"
    }
}