{
    "cas_no": "5223-06-3",
    "key_name": "5-Ethyl-2-pyridineethanol",
    "cn_name": "5-乙基-2-吡啶乙醇;5-乙基-2-羟乙基吡啶;",
    "alternate_name": "2-Pyridineethanol, 5-ethyl-;5-Ethyl-2-pyridineethanol;5-Ethyl-2-(β-hydroxyethyl)pyridine;2-(5-Ethyl-2-pyridinyl)ethanol;2-(5-Ethyl-2-pyridyl)ethanol;2-(5-Ethylpyridin-2-yl)ethanol;5-Ethyl-2-(2-hydroxyethyl)pyridine;2-(5-Ethylpyridin-2-yl)ethan-1-ol",
    "duplicated_cas_no": "",
    "SMILES": "C(CO)C1=CC=C(CC)C=N1",
    "meta_data": {
        "InChI": "InChI=1S/C9H13NO/c1-2-8-3-4-9(5-6-11)10-7-8/h3-4,7,11H,2,5-6H2,1H3",
        "InChIKey": null,
        "Canonical SMILES": "OCCC1=NC=C(C=C1)CC",
        "Molecular Formula": "C<sub>9</sub>H<sub>13</sub>NO",
        "Molecular Mass": "151.21",
        "Boiling Point": "125 °C @ Press: 3 Torr",
        "Density": "0.042 g/cm³ @ Temp: 42 °C"
    }
}