{
    "cas_no": "52200-49-4",
    "key_name": "3-Bromo-2-(phenylmethoxy)pyridine",
    "cn_name": null,
    "alternate_name": "Pyridine, 3-bromo-2-(phenylmethoxy)-;3-Bromo-2-(phenylmethoxy)pyridine;2-(Benzyloxy)-3-bromopyridine",
    "duplicated_cas_no": "",
    "SMILES": "O(CC1=CC=CC=C1)C2=C(Br)C=CC=N2",
    "meta_data": {
        "InChI": "InChI=1S/C12H10BrNO/c13-11-7-4-8-14-12(11)15-9-10-5-2-1-3-6-10/h1-8H,9H2",
        "InChIKey": null,
        "Canonical SMILES": "BrC1=CC=CN=C1OCC=2C=CC=CC2",
        "Molecular Formula": "C<sub>12</sub>H<sub>10</sub>BrNO",
        "Molecular Mass": "264.12",
        "Boiling Point": "175-178 °C @ Press: 6 Torr"
    }
}