{
    "cas_no": "554-52-9",
    "key_name": "3-Methoxytyramine",
    "cn_name": "4-羟基-3-甲氧基苯乙胺;4-(2-氨基乙基)-2-甲氧基苯酚;",
    "alternate_name": "Phenol, 4-(2-aminoethyl)-2-methoxy-;Guaiacol, 4-(2-aminoethyl)-;4-(2-Aminoethyl)-2-methoxyphenol;Dopamine, 3-methoxy-;Homovanillylamine;3-Methoxy-4-hydroxyphenethylamine;3-Methoxy-4-hydroxyphenylethylamine;4-Hydroxy-3-methoxyphenethylamine;Homovanillinamine;3-Methoxydopamine;3-Methoxytyramine;4-Hydroxy-3-methoxy-β-phenethylamine;4-Hydroxy-3-methoxyphenylethylamine;3-<em>O</em>-Methyldopamine;4-Hydroxy-3-methoxy-2-phenethylamine;β-(4-Hydroxy-3-methoxyphenyl)ethylamine;3-MT;2-(4-Hydroxy-3-methoxyphenyl)ethylamine;3-Methoxy-<em>p</em>-tyramine;2-Methoxy-4-(2-aminoethyl)phenol",
    "duplicated_cas_no": "",
    "SMILES": "O(C)C1=CC(CCN)=CC=C1O",
    "meta_data": {
        "InChI": "InChI=1S/C9H13NO2/c1-12-9-6-7(4-5-10)2-3-8(9)11/h2-3,6,11H,4-5,10H2,1H3",
        "InChIKey": null,
        "Canonical SMILES": "OC1=CC=C(C=C1OC)CCN",
        "Molecular Formula": "C<sub>9</sub>H<sub>13</sub>NO<sub>2</sub>",
        "Molecular Mass": "167.21",
        "Melting Point": "89 °C"
    }
}