{
    "cas_no": "5751-80-4",
    "key_name": "3-Thiophenecarboxylic acid, ethyl ester",
    "cn_name": "噻吩-3-甲酸乙酯;",
    "alternate_name": "3-Thiophenecarboxylic acid, ethyl ester;Ethyl 3-thiophenecarboxylate;3-(Ethoxycarbonyl)thiophene;Ethyl thiophen-3-carboxylate",
    "duplicated_cas_no": "",
    "SMILES": "C(OCC)(=O)C=1C=CSC1",
    "meta_data": {
        "InChI": "InChI=1S/C7H8O2S/c1-2-9-7(8)6-3-4-10-5-6/h3-5H,2H2,1H3",
        "InChIKey": null,
        "Canonical SMILES": "O=C(OCC)C1=CSC=C1",
        "Molecular Formula": "C<sub>7</sub>H<sub>8</sub>O<sub>2</sub>S",
        "Molecular Mass": "156.20",
        "Boiling Point": "207-208 °C @ Press: 736 Torr",
        "Density": "1.1799 g/cm³ @ Temp: 27 °C"
    }
}