{
    "cas_no": "627-37-2",
    "key_name": "Methylallylamine",
    "cn_name": "N-甲基烯丙基胺;N-烯丙基甲基胺;",
    "alternate_name": "2-Propen-1-amine, <em>N</em>-methyl-;Allylamine, <em>N</em>-methyl-;Methylallylamine;<em>N</em>-Methyl-<em>N</em>-allylamine;<em>N</em>-Methylallylamine;Allylmethylamine;<em>N</em>-Allyl-<em>N</em>-methylamine;<em>N</em>-Allylmethylamine;<em>N</em>-Methylprop-2-enamine;<em>N</em>-Methyl-2-propen-1-amine;(Methyl)(prop-2-en-1-yl)amine",
    "duplicated_cas_no": "",
    "SMILES": "C(C=C)NC",
    "meta_data": {
        "InChI": "InChI=1S/C4H9N/c1-3-4-5-2/h3,5H,1,4H2,2H3",
        "InChIKey": null,
        "Canonical SMILES": "C=CCNC",
        "Molecular Formula": "C<sub>4</sub>H<sub>9</sub>N",
        "Molecular Mass": "71.12",
        "Boiling Point": "65 °C"
    }
}