{
    "cas_no": "3154-51-6",
    "key_name": "Glycine, <em>N</em>-formyl-, ethyl ester",
    "cn_name": "N-Fmoc-L-甘氨酸乙酯;",
    "alternate_name": "Glycine, <em>N</em>-formyl-, ethyl ester;Ethyl <em>N</em>-formylglycinate;<em>N</em>-Formylglycine ethyl ester;Ethyl formamidoacetate;Ethyl formylaminoacetate;NSC 14440;Dephenethylleccinine A;2-Formylaminoacetic acid ethyl ester",
    "duplicated_cas_no": "",
    "SMILES": "C(CNC=O)(OCC)=O",
    "meta_data": {
        "InChI": "InChI=1S/C5H9NO3/c1-2-9-5(8)3-6-4-7/h4H,2-3H2,1H3,(H,6,7)",
        "InChIKey": null,
        "Canonical SMILES": "O=CNCC(=O)OCC",
        "Molecular Formula": "C<sub>5</sub>H<sub>9</sub>NO<sub>3</sub>",
        "Molecular Mass": "131.13",
        "Boiling Point": "119-120 °C @ Press: 1 Torr"
    }
}