{
    "cas_no": "123696-02-6",
    "key_name": "3-Chloro-5-methoxypyridazine",
    "cn_name": null,
    "alternate_name": "Pyridazine, 3-chloro-5-methoxy-;3-Chloro-5-methoxypyridazine",
    "duplicated_cas_no": "",
    "SMILES": "O(C)C=1C=C(Cl)N=NC1",
    "meta_data": {
        "InChI": "InChI=1S/C5H5ClN2O/c1-9-4-2-5(6)8-7-3-4/h2-3H,1H3",
        "InChIKey": null,
        "Canonical SMILES": "ClC1=NN=CC(OC)=C1",
        "Molecular Formula": "C<sub>5</sub>H<sub>5</sub>ClN<sub>2</sub>O",
        "Molecular Mass": "144.56",
        "Melting Point": "101 °C"
    }
}