{
    "cas_no": "24916-52-7",
    "key_name": "Spiramycin III",
    "cn_name": null,
    "alternate_name": "Leucomycin V, 9-<em>O</em>-[(2<em>R</em>,5<em>S</em>,6<em>R</em>)-5-(dimethylamino)tetrahydro-6-methyl-2<em>H</em>-pyran-2-yl]-, 3-propanoate;Spiramycin C;Leucomycin V, 9-<em>O</em>-[5-(dimethylamino)tetrahydro-6-methyl-2<em>H</em>-pyran-2-yl]-, 3-propanoate, [9(2<em>R</em>,5<em>S</em>,6<em>R</em>)]-;Spiramycin III;Oxacyclohexadecane, leucomycin V deriv.;Foromacidine C;Foromacidin C;Spiramycin 3",
    "duplicated_cas_no": "1403-59-4;1405-27-2;11001-07-3;13441-33-3;13445-44-8;13429-99-7;23410-82-4;33299-71-7;708989-56-4;203005-19-0",
    "SMILES": "O([C@@H]1[C@@H](OC)[C@H](OC(CC)=O)CC(=O)O[C@H](C)C\\C=C\\C=C\\[C@H](O[C@@H]2O[C@H](C)[C@@H](N(C)C)CC2)[C@H](C)C[C@@H]1CC=O)[C@H]3[C@H](O)[C@@H](N(C)C)[C@H](O[C@H]4C[C@@](C)(O)[C@@H](O)[C@H](C)O4)[C@@H](C)O3",
    "meta_data": {
        "InChI": "InChI=1S/C46H78N2O15/c1-13-35(50)60-34-24-36(51)56-27(3)17-15-14-16-18-33(61-37-20-19-32(47(8)9)28(4)57-37)26(2)23-31(21-22-49)42(43(34)55-12)63-45-40(52)39(48(10)11)41(29(5)59-45)62-38-25-46(7,54)44(53)30(6)58-38/h14-16,18,22,26-34,37-45,52-54H,13,17,19-21,23-25H2,1-12H3/b15-14+,18-16+/t26-,27-,28-,29-,30+,31+,32+,33+,34-,37+,38+,39-,40-,41-,42+,43+,44+,45+,46-/m1/s1",
        "InChIKey": null,
        "Canonical SMILES": "O=CCC1CC(C)C(OC2OC(C)C(N(C)C)CC2)C=CC=CCC(OC(=O)CC(OC(=O)CC)C(OC)C1OC3OC(C)C(OC4OC(C)C(O)C(O)(C)C4)C(N(C)C)C3O)C",
        "Molecular Formula": "C<sub>46</sub>H<sub>78</sub>N<sub>2</sub>O<sub>15</sub>",
        "Molecular Mass": "899.12",
        "Melting Point": "128-131 °C"
    }
}