{
    "cas_no": "933-20-0",
    "key_name": "2-Amino-4,6-dichloro-1,3,5-triazine",
    "cn_name": "2-氨基-4,6-二氯-S-三嗪;2-氨基-4,6-二氯-1,3,5-三嗪;",
    "alternate_name": "1,3,5-Triazin-2-amine, 4,6-dichloro-;<em>s</em>-Triazine, 2-amino-4,6-dichloro-;4,6-Dichloro-1,3,5-triazin-2-amine;2-Amino-4,6-dichloro-<em>s</em>-triazine;2,4-Dichloro-6-amino-1,3,5-triazine;6-Amino-2,4-dichloro-<em>s</em>-triazine;2-Amino-4,6-dichloro-1,3,5-triazine;4,6-Dichloro-2-amino-<em>s</em>-triazine;2,4-Dichloro-6-amino-<em>s</em>-triazine;4,6-Dichloro-2-aminotriazine;<em>s</em>-Dichloroaminotriazine;2,6-Dichloro-4-amino-<em>s</em>-triazine;4,6-Dichloro-<em>s</em>-triazin-2-amine;Aminodichloro-<em>s</em>-triazine;6-Amino-2,4-dichloro-1,3,5-triazine;NSC 267458;NSC 71988;2-Amino-4,6-dichlorotriazine;(4,6-Dichloro-[1,3,5]triazin-2-yl)amine",
    "duplicated_cas_no": "",
    "SMILES": "ClC=1N=C(Cl)N=C(N)N1",
    "meta_data": {
        "InChI": "InChI=1S/C3H2Cl2N4/c4-1-7-2(5)9-3(6)8-1/h(H2,6,7,8,9)",
        "InChIKey": null,
        "Canonical SMILES": "ClC=1N=C(Cl)N=C(N1)N",
        "Molecular Formula": "C<sub>3</sub>H<sub>2</sub>Cl<sub>2</sub>N<sub>4</sub>",
        "Molecular Mass": "164.98",
        "Melting Point": "235-236 °C"
    }
}