{
    "cas_no": "36304-84-4",
    "key_name": "Morphinan, 3,17-dimethyl-, (9α,13α,14α)-, phosphate (1:1)",
    "cn_name": "二甲啡烷磷酸盐;磷酸二甲啡烷;",
    "alternate_name": "Morphinan, 3,17-dimethyl-, (9α,13α,14α)-, phosphate (1:1);AT 17;Dimemorfan phosphate;Astomin",
    "duplicated_cas_no": "40851-38-5",
    "SMILES": "CN1[C@@]2([C@@]3([C@@](C=4C(C2)=CC=C(C)C4)(CC1)CCCC3)[H])[H].P(=O)(O)(O)O",
    "meta_data": {
        "InChI": "InChI=1S/C18H25N.H3O4P/c1-13-6-7-14-12-17-15-5-3-4-8-18(15,16(14)11-13)9-10-19(17)2;1-5(2,3)4/h6-7,11,15,17H,3-5,8-10,12H2,1-2H3;(H3,1,2,3,4)/t15-,17+,18+;/m1./s1",
        "InChIKey": null,
        "Canonical SMILES": "O=P(O)(O)O.C=1C=C2C(=CC1C)C34CCN(C)C(C2)C4CCCC3",
        "Molecular Formula": "C<sub>18</sub>H<sub>25</sub>N.H<sub>3</sub>O<sub>4</sub>P",
        "Molecular Mass": "",
        "Melting Point": "267-269 °C"
    }
}