{
    "cas_no": "5464-79-9",
    "key_name": "4-Methoxy-2-benzothiazolamine",
    "cn_name": "2-氨基-4-甲氧基苯并噻唑;",
    "alternate_name": "2-Benzothiazolamine, 4-methoxy-;Benzothiazole, 2-amino-4-methoxy-;Benzothiazole, 1-amino-3-methoxy-;4-Methoxy-2-benzothiazolamine;2-Amino-4-methoxybenzothiazole;4-Methoxy-1,3-benzothiazol-2-ylamine;NSC 28740;4-Methoxy-1,3-benzothiazol-2-amine;(4-Methoxybenzothiazol-2-yl)amine;2-Amino-4-methoxy-1,3-benzothiazole;4-Methoxy-2-aminobenzothiazole;4-Methoxybenzo[<em>d</em>]thiazol-2-amine",
    "duplicated_cas_no": "",
    "SMILES": "O(C)C1=C2C(SC(N)=N2)=CC=C1",
    "meta_data": {
        "InChI": "InChI=1S/C8H8N2OS/c1-11-5-3-2-4-6-7(5)10-8(9)12-6/h2-4H,1H3,(H2,9,10)",
        "InChIKey": null,
        "Canonical SMILES": "N1=C(SC=2C=CC=C(OC)C12)N",
        "Molecular Formula": "C<sub>8</sub>H<sub>8</sub>N<sub>2</sub>OS",
        "Molecular Mass": "180.23",
        "Melting Point": "146 °C"
    }
}