{
    "cas_no": "1122-45-8",
    "key_name": "Pyridine, 2,4-dimethyl-, 1-oxide",
    "cn_name": null,
    "alternate_name": "Pyridine, 2,4-dimethyl-, 1-oxide;2,4-Lutidine, 1-oxide;2,4-Dimethylpyridine <em>N</em>-oxide;2,4-Lutidine <em>N</em>-oxide;2,4-Dimethylpyridine 1-oxide;2,4-Dimethyl-1-oxidopyridin-1-ium;2,4-Dimethylpyridin-1-ium-1-olate",
    "duplicated_cas_no": "",
    "SMILES": "CC=1N(=O)=CC=C(C)C1",
    "meta_data": {
        "InChI": "InChI=1S/C7H9NO/c1-6-3-4-8(9)7(2)5-6/h3-5H,1-2H3",
        "InChIKey": null,
        "Canonical SMILES": "O=N1=CC=C(C=C1C)C",
        "Molecular Formula": "C<sub>7</sub>H<sub>9</sub>NO",
        "Molecular Mass": "123.15",
        "Boiling Point": "122-123 °C @ Press: 0.01 Torr",
        "Melting Point": "280-282 °C"
    }
}