{
    "cas_no": "3076-91-3",
    "key_name": "Chloro[4-[2-(2-hydroxy-1-naphthalenyl)diazenyl]phenyl]mercury",
    "cn_name": "1-(4-氯汞苯基偶氮)-2-萘酚;1-(4-氯汞苯基偶氮)-2-萘酚;",
    "alternate_name": "Mercury, chloro[4-[2-(2-hydroxy-1-naphthalenyl)diazenyl]phenyl]-;Mercury, chloro[<em>p</em>-[(2-hydroxy-1-naphthyl)azo]phenyl]-;Mercury, chloro[4-[(2-hydroxy-1-naphthalenyl)azo]phenyl]-;2-Naphthol, 1-[[<em>p</em>-(chloromercuri)phenyl]azo]-;2-Naphthalenol, 1-(phenylazo)-, mercury complex;Chloro[4-[2-(2-hydroxy-1-naphthalenyl)diazenyl]phenyl]mercury;1-(4-Chloromercuriphenylazo)-2-naphthol;Mercury Orange;Red Sulfhydryl Reagent;1-(4-Chloromercuriphenylazo)-β-naphthol;NSC 105538",
    "duplicated_cas_no": "",
    "SMILES": "N(=NC1=CC=C([Hg]Cl)C=C1)C=2C3=C(C=CC2O)C=CC=C3",
    "meta_data": {
        "InChI": "InChI=1S/C16H11N2O.ClH.Hg/c19-15-11-10-12-6-4-5-9-14(12)16(15)18-17-13-7-2-1-3-8-13;;/h2-11,19H;1H;/q;;+1/p-1",
        "InChIKey": null,
        "Canonical SMILES": "Cl[Hg]C1=CC=C(N=NC2=C(O)C=CC=3C=CC=CC32)C=C1",
        "Molecular Formula": "C<sub>16</sub>H<sub>11</sub>ClHgN<sub>2</sub>O",
        "Molecular Mass": "",
        "Melting Point": "291.5-293 °C"
    }
}