{
    "cas_no": "211513-37-0",
    "key_name": "Dalcetrapib",
    "cn_name": null,
    "alternate_name": "Propanethioic acid, 2-methyl-, <em>S</em>-[2-[[[1-(2-ethylbutyl)cyclohexyl]carbonyl]amino]phenyl] ester;JTT 705;Dalcetrapib",
    "duplicated_cas_no": "",
    "SMILES": "C(NC1=C(SC(C(C)C)=O)C=CC=C1)(=O)C2(CC(CC)CC)CCCCC2",
    "meta_data": {
        "InChI": "InChI=1S/C23H35NO2S/c1-5-18(6-2)16-23(14-10-7-11-15-23)22(26)24-19-12-8-9-13-20(19)27-21(25)17(3)4/h8-9,12-13,17-18H,5-7,10-11,14-16H2,1-4H3,(H,24,26)",
        "InChIKey": null,
        "Canonical SMILES": "O=C(SC=1C=CC=CC1NC(=O)C2(CCCCC2)CC(CC)CC)C(C)C",
        "Molecular Formula": "C<sub>23</sub>H<sub>35</sub>NO<sub>2</sub>S",
        "Molecular Mass": "389.59",
        "Melting Point": "63-63.5 °C"
    }
}