{
    "cas_no": "1000-50-6",
    "key_name": "Butyldimethylsilyl chloride",
    "cn_name": null,
    "alternate_name": "Silane, butylchlorodimethyl-;Butylchlorodimethylsilane;Butyldimethylsilyl chloride;Chlorodimethylbutylsilane;Butyldimethylchlorosilane;Dimethyl-<em>n</em>-butylchlorosilane;<em>n</em>-Butyldimethylchlorosilane;<em>n</em>-Butyldimethylsilyl chloride;Butychlorodimethylsilane;<em>n</em>-Butylchlorodimethylsilane",
    "duplicated_cas_no": "",
    "SMILES": "C([Si](C)(C)Cl)CCC",
    "meta_data": {
        "InChI": "InChI=1S/C6H15ClSi/c1-4-5-6-8(2,3)7/h4-6H2,1-3H3",
        "InChIKey": null,
        "Canonical SMILES": "Cl[Si](C)(C)CCCC",
        "Molecular Formula": "C<sub>6</sub>H<sub>15</sub>ClSi",
        "Molecular Mass": "150.72",
        "Boiling Point": "139 °C",
        "Density": "0.875 g/cm³"
    }
}