{
    "cas_no": "50432-68-3",
    "key_name": "4-Chloro-1-methyl-1<em>H</em>-imidazo[4,5-<em>c</em>]pyridine",
    "cn_name": null,
    "alternate_name": "1<em>H</em>-Imidazo[4,5-<em>c</em>]pyridine, 4-chloro-1-methyl-;4-Chloro-1-methyl-1<em>H</em>-imidazo[4,5-<em>c</em>]pyridine",
    "duplicated_cas_no": "",
    "SMILES": "ClC1=C2C(N(C)C=N2)=CC=N1",
    "meta_data": {
        "InChI": "InChI=1S/C7H6ClN3/c1-11-4-10-6-5(11)2-3-9-7(6)8/h2-4H,1H3",
        "InChIKey": null,
        "Canonical SMILES": "ClC1=NC=CC2=C1N=CN2C",
        "Molecular Formula": "C<sub>7</sub>H<sub>6</sub>ClN<sub>3</sub>",
        "Molecular Mass": "167.60",
        "Melting Point": "168-170 °C"
    }
}