{
    "cas_no": "773-15-9",
    "key_name": "1,2-Oxathietane, 3,4,4-trifluoro-3-(trifluoromethyl)-, 2,2-dioxide",
    "cn_name": "1,2,2-三氟-2-羟基-1-三氟甲基乙烷磺酸;",
    "alternate_name": "1,2-Oxathietane, 3,4,4-trifluoro-3-(trifluoromethyl)-, 2,2-dioxide;2-Propanesulfonic acid, 1,1,1,2,3,3-hexafluoro-3-hydroxy-, β-sultone;3-(Trifluoromethyl)-3,4,4-trifluoro-1-oxa-2-thiacyclobutane 2,2-dioxide;3,4,4-Trifluoro-3-(trifluoromethyl)-1,2-oxathietane 2,2-dioxide;1,2,2-Trifluoro-2-hydroxy-1-(trifluoromethyl)ethanesulfonic acid sultone;3,4,4-Trifluoro-3-(trifluoromethyl)oxathietane 2,2-dioxide;3,4,4-Trifluoro-3-(trifluoromethyl)-1,2λ6-oxathietane-2,2-dione",
    "duplicated_cas_no": "",
    "SMILES": "C(F)(F)(F)C1(F)C(F)(F)OS1(=O)=O",
    "meta_data": {
        "InChI": "InChI=1S/C3F6O3S/c4-1(2(5,6)7)3(8,9)12-13(1,10)11",
        "InChIKey": null,
        "Canonical SMILES": "O=S1(=O)OC(F)(F)C1(F)C(F)(F)F",
        "Molecular Formula": "C<sub>3</sub>F<sub>6</sub>O<sub>3</sub>S",
        "Molecular Mass": "230.09",
        "Boiling Point": "42-43 °C",
        "Density": "1.6670 g/cm³ @ Temp: 20 °C"
    }
}