{
    "cas_no": "1029684-36-3",
    "key_name": "2-Chloro-1-(tetrahydro-2<em>H</em>-pyran-2-yl)-5-(4,4,5,5-tetramethyl-1,3,2-dioxaborolan-2-yl)-1<em>H</em>-imidazole",
    "cn_name": null,
    "alternate_name": "1<em>H</em>-Imidazole, 2-chloro-1-(tetrahydro-2<em>H</em>-pyran-2-yl)-5-(4,4,5,5-tetramethyl-1,3,2-dioxaborolan-2-yl)-;2-Chloro-1-(tetrahydro-2<em>H</em>-pyran-2-yl)-5-(4,4,5,5-tetramethyl-1,3,2-dioxaborolan-2-yl)-1<em>H</em>-imidazole;2-Chloro-1-(oxan-2-yl)-5-(4,4,5,5-tetramethyl-1,3,2-dioxaborolan-2-yl)imidazole",
    "duplicated_cas_no": "",
    "SMILES": "ClC=1N(C(=CN1)B2OC(C)(C)C(C)(C)O2)C3CCCCO3",
    "meta_data": {
        "InChI": "InChI=1S/C14H22BClN2O3/c1-13(2)14(3,4)21-15(20-13)10-9-17-12(16)18(10)11-7-5-6-8-19-11/h9,11H,5-8H2,1-4H3",
        "InChIKey": null,
        "Canonical SMILES": "ClC1=NC=C(B2OC(C)(C)C(O2)(C)C)N1C3OCCCC3",
        "Molecular Formula": "C<sub>14</sub>H<sub>22</sub>BClN<sub>2</sub>O<sub>3</sub>",
        "Molecular Mass": "312.60",
        "Melting Point": "135 °C"
    }
}