{
    "cas_no": "85908-96-9",
    "key_name": "<em>tert</em>-Butyl 2-oxopiperidine-1-carboxylate",
    "cn_name": "1-Boc-2-哌啶酮;1-叔丁氧羰基-2-哌啶酮;",
    "alternate_name": "1-Piperidinecarboxylic acid, 2-oxo-, 1,1-dimethylethyl ester;<em>tert</em>-Butyl 2-oxopiperidine-1-carboxylate;2-Oxopiperidine-1-carboxylic acid tert-butyl ester;1,1-Dimethylethyl 2-oxopiperidine-1-carboxylate;<em>N</em>-<em>tert</em>-Butoxycarbonyl-2-piperidinone;6-Oxopiperidine-1-carboxylic acid tert-butyl ester;<em>N</em>-Boc-2-piperidone;<em>N</em>-Boc-δ-valerolactam;1-(<em>tert</em>-Butoxycarbonyl)-2-piperidone;1-<em>N</em>-<em>tert</em>-Butoxycarbonyl-2-piperidone",
    "duplicated_cas_no": "",
    "SMILES": "C(OC(C)(C)C)(=O)N1C(=O)CCCC1",
    "meta_data": {
        "InChI": "InChI=1S/C10H17NO3/c1-10(2,3)14-9(13)11-7-5-4-6-8(11)12/h4-7H2,1-3H3",
        "InChIKey": null,
        "Canonical SMILES": "O=C(OC(C)(C)C)N1C(=O)CCCC1",
        "Molecular Formula": "C<sub>10</sub>H<sub>17</sub>NO<sub>3</sub>",
        "Molecular Mass": "199.25",
        "Boiling Point": "110 °C @ Press: 0.1 Torr",
        "Melting Point": "30-33 °C"
    }
}