{
    "cas_no": "18600-42-5",
    "key_name": "Benzenemethanamine, 4-nitro-, hydrochloride (1:1)",
    "cn_name": "4-硝基苄胺盐酸盐;对硝基苄胺盐酸盐;",
    "alternate_name": "Benzenemethanamine, 4-nitro-, hydrochloride (1:1);Benzylamine, <em>p</em>-nitro-, monohydrochloride;Benzenemethanamine, 4-nitro-, monohydrochloride;Benzylamine, <em>p</em>-nitro-, hydrochloride;<em>p</em>-Nitrobenzylamine hydrochloride;4-Nitrobenzylamine hydrochloride;4-Nitrobenzenemethanamine hydrochloride;(4-Nitrophenyl)methanamine hydrochloride",
    "duplicated_cas_no": "",
    "SMILES": "N(=O)(=O)C1=CC=C(CN)C=C1.Cl",
    "meta_data": {
        "InChI": "InChI=1S/C7H8N2O2.ClH/c8-5-6-1-3-7(4-2-6)9(10)11;/h1-4H,5,8H2;1H",
        "InChIKey": null,
        "Canonical SMILES": "Cl.O=N(=O)C1=CC=C(C=C1)CN",
        "Molecular Formula": "C<sub>7</sub>H<sub>8</sub>N<sub>2</sub>O<sub>2</sub>.ClH",
        "Molecular Mass": "",
        "Melting Point": "225 °C"
    }
}