{
    "cas_no": "607-99-8",
    "key_name": "2,4,6-Tribromoanisole",
    "cn_name": "2,4,6-三溴苯甲醚;",
    "alternate_name": "Benzene, 1,3,5-tribromo-2-methoxy-;Anisole, 2,4,6-tribromo-;1,3,5-Tribromo-2-methoxybenzene;2,4,6-Tribromoanisole;Methyl 2,4,6-tribromophenyl ether;NSC 2218;1-Methoxy-2,4,6-tribromobenzene;TBA",
    "duplicated_cas_no": "",
    "SMILES": "O(C)C1=C(Br)C=C(Br)C=C1Br",
    "meta_data": {
        "InChI": "InChI=1S/C7H5Br3O/c1-11-7-5(9)2-4(8)3-6(7)10/h2-3H,1H3",
        "InChIKey": null,
        "Canonical SMILES": "BrC=1C=C(Br)C(OC)=C(Br)C1",
        "Molecular Formula": "C<sub>7</sub>H<sub>5</sub>Br<sub>3</sub>O",
        "Molecular Mass": "344.83",
        "Boiling Point": "298 °C",
        "Melting Point": "88 °C",
        "Density": "2.4912 g/cm³"
    }
}