{
    "cas_no": "118292-40-3",
    "key_name": "Tazarotene",
    "cn_name": "他扎罗汀;6-[2-(4,4-二甲基二氢苯并噻喃-6-基)乙炔基]吡啶-3-甲酸乙酯;",
    "alternate_name": "3-Pyridinecarboxylic acid, 6-[2-(3,4-dihydro-4,4-dimethyl-2<em>H</em>-1-benzothiopyran-6-yl)ethynyl]-, ethyl ester;3-Pyridinecarboxylic acid, 6-[(3,4-dihydro-4,4-dimethyl-2<em>H</em>-1-benzothiopyran-6-yl)ethynyl]-, ethyl ester;2<em>H</em>-1-Benzothiopyran, 3-pyridinecarboxylic acid deriv.;AGN 190168;Tazarotene;Zorac;Tazorac;Acnitaz",
    "duplicated_cas_no": "",
    "SMILES": "CC1(C)C=2C(=CC=C(C#CC3=CC=C(C(OCC)=O)C=N3)C2)SCC1",
    "meta_data": {
        "InChI": "InChI=1S/C21H21NO2S/c1-4-24-20(23)16-7-9-17(22-14-16)8-5-15-6-10-19-18(13-15)21(2,3)11-12-25-19/h6-7,9-10,13-14H,4,11-12H2,1-3H3",
        "InChIKey": null,
        "Canonical SMILES": "O=C(OCC)C1=CN=C(C#CC2=CC=C3SCCC(C3=C2)(C)C)C=C1",
        "Molecular Formula": "C<sub>21</sub>H<sub>21</sub>NO<sub>2</sub>S",
        "Molecular Mass": "351.46",
        "Melting Point": "97-98 °C"
    }
}