{
    "cas_no": "86-51-1",
    "key_name": "2,3-Dimethoxybenzaldehyde",
    "cn_name": "2,3-二甲氧基苯甲醛;",
    "alternate_name": "Benzaldehyde, 2,3-dimethoxy-;<em>o</em>-Veratraldehyde;2,3-Dimethoxybenzaldehyde;5,6-Dimethoxybenzaldehyde;NSC 403661;NSC 51953;NSC 6314",
    "duplicated_cas_no": "",
    "SMILES": "O(C)C1=C(C=O)C=CC=C1OC",
    "meta_data": {
        "InChI": "InChI=1S/C9H10O3/c1-11-8-5-3-4-7(6-10)9(8)12-2/h3-6H,1-2H3",
        "InChIKey": null,
        "Canonical SMILES": "O=CC=1C=CC=C(OC)C1OC",
        "Molecular Formula": "C<sub>9</sub>H<sub>10</sub>O<sub>3</sub>",
        "Molecular Mass": "166.17",
        "Boiling Point": "137 °C @ Press: 12 Torr",
        "Melting Point": "51-52 °C"
    }
}