{
    "cas_no": "12075-68-2",
    "key_name": "Di-μ-chlorochlorotriethyldialuminum",
    "cn_name": "三氯三乙基络铝;乙基三氯化二铝;乙基倍半氯化铝;",
    "alternate_name": "Aluminum, di-μ-chlorochlorotriethyldi-;Aluminum, trichlorotriethyldi-;Di-μ-chlorochlorotriethyldialuminum;Triethyldialuminum trichloride;Trichlorotriethyldialuminum;Triethyltrichlorodialuminum;Triethylaluminum sesquichloride;Trichlorotriethyldialuminium;Sesquiethylaluminum chloride;Ethylaluminum sesquichloride",
    "duplicated_cas_no": "132071-39-7;8065-64-3;8067-60-5;22853-46-9;33075-37-5;55949-15-0",
    "SMILES": "[CH2-](C)[Al+3]1([CH2-]C)[Cl-][Al+3]([CH2-]C)([Cl-])[Cl-]1",
    "meta_data": {
        "InChI": "InChI=1S/3C2H5.2Al.3ClH/c3*1-2;;;;;/h3*1H2,2H3;;;3*1H/q3*-1;2*+3;;;/p-3",
        "InChIKey": null,
        "Canonical SMILES": "[Cl-][Al+3]1([Cl-][Al+3]([Cl-]1)([CH2-]C)[CH2-]C)[CH2-]C",
        "Molecular Formula": "C<sub>6</sub>H<sub>15</sub>Al<sub>2</sub>Cl<sub>3</sub>",
        "Molecular Mass": "",
        "Boiling Point": "204 °C",
        "Melting Point": "-21 °C",
        "Density": "1.092 g/cm³ @ Temp: 25 °C"
    }
}