{
    "cas_no": "63493-28-7",
    "key_name": "2-Pentanamine",
    "cn_name": null,
    "alternate_name": "2-Pentanamine;2-Pentanamine, (±)-;(±)-2-Pentylamine;(±)-2-Aminopentane;<em>dl</em>-2-Aminopentane;(<em>RS</em>)-1-Methylbutylamine;(±)-1-Methylbutylamine;1-Methylbutylamine;2-Aminopentane;1-Methyl-<em>n</em>-butylamine;2-Pentylamine;1,3-Dimethylpropylamine;1-Methylbutanamine;NSC 6367;α-Methylbutanamine;α-Methylbutylamine",
    "duplicated_cas_no": "625-30-9",
    "SMILES": "C(C(C)N)CC",
    "meta_data": {
        "InChI": "InChI=1S/C5H13N/c1-3-4-5(2)6/h5H,3-4,6H2,1-2H3",
        "InChIKey": null,
        "Canonical SMILES": "NC(C)CCC",
        "Molecular Formula": "C<sub>5</sub>H<sub>13</sub>N",
        "Molecular Mass": "87.16",
        "Boiling Point": "87 °C",
        "Melting Point": "32-34 °C",
        "Density": "0.7571 g/cm³ @ Temp: 60.000 °C; Press: 5 x 10⁵ Torr"
    }
}