{
    "cas_no": "5238-27-7",
    "key_name": "2-Methylpentanoyl chloride",
    "cn_name": "2-甲基戊酰氯;2-甲基戊酰氯;",
    "alternate_name": "Pentanoyl chloride, 2-methyl-;Valeryl chloride, 2-methyl-;2-Methylpentanoyl chloride;2-Methylvaleryl chloride;α-Methylpentanoyl chloride;α-Methylvaleryl chloride;2-Methyl pentanoic acid chloride",
    "duplicated_cas_no": "116908-84-0",
    "SMILES": "C(CCC)(C(Cl)=O)C",
    "meta_data": {
        "InChI": "InChI=1S/C6H11ClO/c1-3-4-5(2)6(7)8/h5H,3-4H2,1-2H3",
        "InChIKey": null,
        "Canonical SMILES": "O=C(Cl)C(C)CCC",
        "Molecular Formula": "C<sub>6</sub>H<sub>11</sub>ClO",
        "Molecular Mass": "134.60",
        "Boiling Point": "137-139 °C"
    }
}