{
    "cas_no": "932-16-1",
    "key_name": "2-Acetyl-1-methylpyrrole",
    "cn_name": "2-乙酰基-1-甲基吡咯;",
    "alternate_name": "Ethanone, 1-(1-methyl-1<em>H</em>-pyrrol-2-yl)-;Ketone, methyl 1-methylpyrrol-2-yl;1-(1-Methyl-1<em>H</em>-pyrrol-2-yl)ethanone;<em>N</em>-Methyl-2-acetylpyrrole;1-Methyl-2-acetylpyrrole;2-Acetyl-1-methylpyrrole;2-Acetyl-<em>N</em>-methylpyrrole;<em>N</em>-Methyl-2-pyrrolylethanone;NSC 87239;1-(1-Methyl-1<em>H</em>-pyrrol-2-yl)ethan-1-one;<em>N</em>-Methyl-5-acetylpyrrole;1-(1-Methylpyrrol-2-yl)ethanone",
    "duplicated_cas_no": "",
    "SMILES": "C(C)(=O)C=1N(C)C=CC1",
    "meta_data": {
        "InChI": "InChI=1S/C7H9NO/c1-6(9)7-4-3-5-8(7)2/h3-5H,1-2H3",
        "InChIKey": null,
        "Canonical SMILES": "O=C(C1=CC=CN1C)C",
        "Molecular Formula": "C<sub>7</sub>H<sub>9</sub>NO",
        "Molecular Mass": "123.15",
        "Boiling Point": "199-201 °C @ Press: 739 Torr",
        "Density": "1.0445 g/cm³ @ Temp: 15 °C"
    }
}