{
    "cas_no": "103177-37-3",
    "key_name": "Pranlukast",
    "cn_name": "普仑司特;4-氧代-8-(4-(4-苯基丁氧基)苯甲酰氨基)-2-(四唑-5-基)-4H-1-苯并吡喃;",
    "alternate_name": "Benzamide, <em>N</em>-[4-oxo-2-(2<em>H</em>-tetrazol-5-yl)-4<em>H</em>-1-benzopyran-8-yl]-4-(4-phenylbutoxy)-;Benzamide, <em>N</em>-[4-oxo-2-(1<em>H</em>-tetrazol-5-yl)-4<em>H</em>-1-benzopyran-8-yl]-4-(4-phenylbutoxy)-;<em>N</em>-[4-Oxo-2-(2<em>H</em>-tetrazol-5-yl)-4<em>H</em>-1-benzopyran-8-yl]-4-(4-phenylbutoxy)benzamide;RS 411;ONO 1078;Pranlukast;ONO-RS 411;SB 205312;8-[4-(4-Phenylbutoxy)benzoyl]amino-2-(5-tetrazolyl)-4-oxo-4<em>H</em>-1-benzopyran;Onon;CCN 00401;Azlaire;4-Oxo-8-[4-(4-phenylbutoxy)benzoylamino]-2-(tetrazol-5-yl)-4<em>H</em>-1-benzopyran",
    "duplicated_cas_no": "",
    "SMILES": "N(C(=O)C1=CC=C(OCCCCC2=CC=CC=C2)C=C1)C3=C4C(C(=O)C=C(O4)C=5NN=NN5)=CC=C3",
    "meta_data": {
        "InChI": "InChI=1S/C27H23N5O4/c33-23-17-24(26-29-31-32-30-26)36-25-21(23)10-6-11-22(25)28-27(34)19-12-14-20(15-13-19)35-16-5-4-9-18-7-2-1-3-8-18/h1-3,6-8,10-15,17H,4-5,9,16H2,(H,28,34)(H,29,30,31,32)",
        "InChIKey": null,
        "Canonical SMILES": "O=C1C=C(OC=2C(=CC=CC12)NC(=O)C3=CC=C(OCCCCC=4C=CC=CC4)C=C3)C5=NN=NN5",
        "Molecular Formula": "C<sub>27</sub>H<sub>23</sub>N<sub>5</sub>O<sub>4</sub>",
        "Molecular Mass": "481.50",
        "Melting Point": "231-233 °C (decomp)"
    }
}