{
    "cas_no": "66063-05-6",
    "key_name": "Pencycuron",
    "cn_name": null,
    "alternate_name": "Urea, <em>N</em>-[(4-chlorophenyl)methyl]-<em>N</em>-cyclopentyl-<em>N</em>′-phenyl-;<em>N</em>-[(4-Chlorophenyl)methyl]-<em>N</em>-cyclopentyl-<em>N</em>′-phenylurea;Pencycuron;NTN 19701;Monceren;Monceraen 250SC",
    "duplicated_cas_no": "1135443-47-8",
    "SMILES": "N(CC1=CC=C(Cl)C=C1)(C(NC2=CC=CC=C2)=O)C3CCCC3",
    "meta_data": {
        "InChI": "InChI=1S/C19H21ClN2O/c20-16-12-10-15(11-13-16)14-22(18-8-4-5-9-18)19(23)21-17-6-2-1-3-7-17/h1-3,6-7,10-13,18H,4-5,8-9,14H2,(H,21,23)",
        "InChIKey": null,
        "Canonical SMILES": "O=C(NC=1C=CC=CC1)N(CC2=CC=C(Cl)C=C2)C3CCCC3",
        "Molecular Formula": "C<sub>19</sub>H<sub>21</sub>ClN<sub>2</sub>O",
        "Molecular Mass": "328.84",
        "Melting Point": "130 °C"
    }
}