{
    "cas_no": "7037-49-2",
    "key_name": "4-Piperidinepropanol",
    "cn_name": "4-(3-羟丙基)-哌啶;4-(3-羟丙基)-哌啶;",
    "alternate_name": "4-Piperidinepropanol;3-(4-Piperidinyl)-1-propanol;4-(3-Hydroxypropyl)piperidine;3-(4-Piperidinyl)propanol;3-(4-Piperidyl)propan-1-ol",
    "duplicated_cas_no": "",
    "SMILES": "C(CCO)C1CCNCC1",
    "meta_data": {
        "InChI": "InChI=1S/C8H17NO/c10-7-1-2-8-3-5-9-6-4-8/h8-10H,1-7H2",
        "InChIKey": null,
        "Canonical SMILES": "OCCCC1CCNCC1",
        "Molecular Formula": "C<sub>8</sub>H<sub>17</sub>NO",
        "Molecular Mass": "143.23",
        "Boiling Point": "130-131 °C @ Press: 1.5 Torr",
        "Melting Point": "65 °C"
    }
}