{
    "cas_no": "16929-60-5",
    "key_name": "1,3-Bis(2-methoxyphenoxy)-2-propanol",
    "cn_name": null,
    "alternate_name": "2-Propanol, 1,3-bis(2-methoxyphenoxy)-;2-Propanol, 1,3-bis(<em>o</em>-methoxyphenoxy)-;1,3-Bis(2-methoxyphenoxy)-2-propanol;NSC 142122",
    "duplicated_cas_no": "",
    "SMILES": "O(CC(COC1=C(OC)C=CC=C1)O)C2=C(OC)C=CC=C2",
    "meta_data": {
        "InChI": "InChI=1S/C17H20O5/c1-19-14-7-3-5-9-16(14)21-11-13(18)12-22-17-10-6-4-8-15(17)20-2/h3-10,13,18H,11-12H2,1-2H3",
        "InChIKey": null,
        "Canonical SMILES": "OC(COC=1C=CC=CC1OC)COC=2C=CC=CC2OC",
        "Molecular Formula": "C<sub>17</sub>H<sub>20</sub>O<sub>5</sub>",
        "Molecular Mass": "304.34",
        "Boiling Point": "165-225 °C @ Press: 9 Torr",
        "Melting Point": "73-74.2 °C"
    }
}