{
    "cas_no": "553-27-5",
    "key_name": "Aniline mustard",
    "cn_name": null,
    "alternate_name": "Benzenamine, <em>N</em>,<em>N</em>-bis(2-chloroethyl)-;Aniline, <em>N</em>,<em>N</em>-bis(2-chloroethyl)-;<em>N</em>,<em>N</em>-Bis(2-chloroethyl)benzenamine;β,β′-Dichlorodiethylaniline;<em>N</em>,<em>N</em>-Di(2-chloroethyl)aniline;Lymphochin;Lymphocin;Lymphoquin;<em>N</em>,<em>N</em>-Bis(2-chloroethyl)aniline;NCS-18429;Aniline mustard;<em>N</em>,<em>N</em>-Bis(2′-chloroethyl)aniline;NSC 18429;MeSH ID: D000816",
    "duplicated_cas_no": "",
    "SMILES": "N(CCCl)(CCCl)C1=CC=CC=C1",
    "meta_data": {
        "InChI": "InChI=1S/C10H13Cl2N/c11-6-8-13(9-7-12)10-4-2-1-3-5-10/h1-5H,6-9H2",
        "InChIKey": null,
        "Canonical SMILES": "ClCCN(C=1C=CC=CC1)CCCl",
        "Molecular Formula": "C<sub>10</sub>H<sub>13</sub>Cl<sub>2</sub>N",
        "Molecular Mass": "218.12",
        "Boiling Point": "164 °C",
        "Melting Point": "45 °C"
    }
}