{
    "cas_no": "6960-46-9",
    "key_name": "1<em>H</em>-Indole-2-carboxylic acid, 7-nitro-, ethyl ester",
    "cn_name": "7-硝基吲哚-2-甲酸乙酯;",
    "alternate_name": "1<em>H</em>-Indole-2-carboxylic acid, 7-nitro-, ethyl ester;Indole-2-carboxylic acid, 7-nitro-, ethyl ester;NSC 69878;Ethyl 7-nitroindole-2-carboxylate;Ethyl 7-nitro-1<em>H</em>-indole-2-carboxylate",
    "duplicated_cas_no": "",
    "SMILES": "N(=O)(=O)C1=C2C(C=C(C(OCC)=O)N2)=CC=C1",
    "meta_data": {
        "InChI": "InChI=1S/C11H10N2O4/c1-2-17-11(14)8-6-7-4-3-5-9(13(15)16)10(7)12-8/h3-6,12H,2H2,1H3",
        "InChIKey": null,
        "Canonical SMILES": "O=C(OCC)C1=CC=2C=CC=C(C2N1)N(=O)=O",
        "Molecular Formula": "C<sub>11</sub>H<sub>10</sub>N<sub>2</sub>O<sub>4</sub>",
        "Molecular Mass": "234.21",
        "Melting Point": "92-93 °C"
    }
}