{
    "cas_no": "6859-99-0",
    "key_name": "3-Hydroxypiperidine",
    "cn_name": "3-羟基哌啶;3-哌啶醇;",
    "alternate_name": "3-Piperidinol;3-Piperidinol, (±)-;3-Hydroxypiperidine;3-Hydroxyhexahydropyridine;(±)-3-Hydroxypiperidine;(<em>R</em>,<em>S</em>)-3-Hydroxypiperidine;NSC 62082",
    "duplicated_cas_no": "41148-36-1",
    "SMILES": "OC1CCCNC1",
    "meta_data": {
        "InChI": "InChI=1S/C5H11NO/c7-5-2-1-3-6-4-5/h5-7H,1-4H2",
        "InChIKey": null,
        "Canonical SMILES": "OC1CNCCC1",
        "Molecular Formula": "C<sub>5</sub>H<sub>11</sub>NO",
        "Molecular Mass": "101.15",
        "Boiling Point": "113-116 °C @ Press: 26 Torr",
        "Melting Point": "60-63 °C"
    }
}