{
    "cas_no": "550-83-4",
    "key_name": "Propoxycaine hydrochloride",
    "cn_name": null,
    "alternate_name": "Benzoic acid, 4-amino-2-propoxy-, 2-(diethylamino)ethyl ester, hydrochloride (1:1);Benzoic acid, 4-amino-2-propoxy-, 2-(diethylamino)ethyl ester, monohydrochloride;4-Amino-2-propoxybenzoic acid 2-diethylaminoethyl ester hydrochloride;Blockaine hydrochloride;Blockain hydrochloride;2-Diethylaminoethyl 4-amino-2-propoxybenzoate hydrochloride;2′-Diethylaminoethyl 2-propoxy-4-aminobenzoate hydrochloride;Pravocaine hydrochloride;Propoxycaine hydrochloride;Ravocaine hydrochloride;Rovocaine hydrochloride",
    "duplicated_cas_no": "",
    "SMILES": "C(OCCN(CC)CC)(=O)C1=C(OCCC)C=C(N)C=C1.Cl",
    "meta_data": {
        "InChI": "InChI=1S/C16H26N2O3.ClH/c1-4-10-20-15-12-13(17)7-8-14(15)16(19)21-11-9-18(5-2)6-3;/h7-8,12H,4-6,9-11,17H2,1-3H3;1H",
        "InChIKey": null,
        "Canonical SMILES": "Cl.O=C(OCCN(CC)CC)C1=CC=C(N)C=C1OCCC",
        "Molecular Formula": "C<sub>16</sub>H<sub>26</sub>N<sub>2</sub>O<sub>3</sub>.ClH",
        "Molecular Mass": "",
        "Melting Point": "149 °C"
    }
}