{
    "cas_no": "616-02-4",
    "key_name": "Citraconic anhydride",
    "cn_name": "柠康酸酐;2-甲基马来酸酐;",
    "alternate_name": "2,5-Furandione, 3-methyl-;Citraconic anhydride;3-Methyl-2,5-furandione;2-Methylmaleic anhydride;3-Methylmaleic anhydride;Citraconic acid anhydride;Methylmaleic anhydride;α-Methylmaleic anhydride;Monomethylmaleic anhydride;NSC 6182;2-Methyl-2-butenedioic anhydride;3-Methyl-2,5-dihydrofuran-2,5-dione",
    "duplicated_cas_no": "19595-58-5;1123596-56-4",
    "SMILES": "CC=1C(=O)OC(=O)C1",
    "meta_data": {
        "InChI": "InChI=1S/C5H4O3/c1-3-2-4(6)8-5(3)7/h2H,1H3",
        "InChIKey": null,
        "Canonical SMILES": "O=C1OC(=O)C(=C1)C",
        "Molecular Formula": "C<sub>5</sub>H<sub>4</sub>O<sub>3</sub>",
        "Molecular Mass": "112.08",
        "Boiling Point": "213-214 °C @ Press: 760 Torr",
        "Melting Point": "7-8 °C",
        "Density": "1.2469 g/cm³ @ Temp: 16 °C"
    }
}