{
    "cas_no": "59-06-3",
    "key_name": "Ethopabate",
    "cn_name": "乙氧酰胺苯甲酯;4-乙酰胺基-2-乙氧基苯甲酸甲酯;",
    "alternate_name": "Benzoic acid, 4-(acetylamino)-2-ethoxy-, methyl ester;Benzoic acid, 4-acetamido-2-ethoxy-, methyl ester;Ethopabate;Methyl 4-acetamido-2-ethoxybenzoate;4-Acetamido-2-ethoxybenzoic acid methyl ester;Ethyl pabate;Methyl 4-(acetylamino)-2-ethoxybenzoate;Methyl 2-ethoxy-4-acetamidobenzoate;MeSH ID: D005011",
    "duplicated_cas_no": "",
    "SMILES": "C(OC)(=O)C1=C(OCC)C=C(NC(C)=O)C=C1",
    "meta_data": {
        "InChI": "InChI=1S/C12H15NO4/c1-4-17-11-7-9(13-8(2)14)5-6-10(11)12(15)16-3/h5-7H,4H2,1-3H3,(H,13,14)",
        "InChIKey": null,
        "Canonical SMILES": "O=C(OC)C1=CC=C(C=C1OCC)NC(=O)C",
        "Molecular Formula": "C<sub>12</sub>H<sub>15</sub>NO<sub>4</sub>",
        "Molecular Mass": "237.25",
        "Melting Point": "148.5 °C"
    }
}