{
    "cas_no": "2919-66-6",
    "key_name": "Melengestrol acetate",
    "cn_name": "醋酸美伦孕酮;甲烯雌醇乙酸酯;",
    "alternate_name": "Pregna-4,6-diene-3,20-dione, 17-(acetyloxy)-6-methyl-16-methylene-;Pregna-4,6-diene-3,20-dione, 17-hydroxy-6-methyl-16-methylene-, acetate;17-(Acetyloxy)-6-methyl-16-methylenepregna-4,6-diene-3,20-dione;BDH 1921;5373;NSC-70968;17α-Acetoxy-6-methyl-16-methylenepregna-4,6-diene-3,20-dione;6-Dehydro-16-methylene-17α-hydroxy-6α-methylprogesterone acetate;17-Hydroxy-6-methyl-16-methylenepregna-4,6-diene-3,20-dione acetate;Melengestrol acetate;MGA;6-Methyl-16-methylene-17α-hydroxy-4,6-pregnadiene-3,20-dione 17-acetate;17-Acetoxy-6-methyl-16-methylenepregna-4,6-diene-3,20-dione;MGA 100 (steroid);MGA 100;Heifermax 500;MGA 264",
    "duplicated_cas_no": "",
    "SMILES": "O(C(C)=O)[C@@]1(C(C)=O)[C@]2(C)[C@@](CC1=C)([C@]3([C@](CC2)([C@]4(C)C(C(C)=C3)=CC(=O)CC4)[H])[H])[H]",
    "meta_data": {
        "InChI": "InChI=1S/C25H32O4/c1-14-11-19-20(23(5)9-7-18(28)13-21(14)23)8-10-24(6)22(19)12-15(2)25(24,16(3)26)29-17(4)27/h11,13,19-20,22H,2,7-10,12H2,1,3-6H3/t19-,20+,22+,23-,24+,25+/m1/s1",
        "InChIKey": null,
        "Canonical SMILES": "O=C(OC1(C(=O)C)C(=C)CC2C3C=C(C4=CC(=O)CCC4(C)C3CCC21C)C)C",
        "Molecular Formula": "C<sub>25</sub>H<sub>32</sub>O<sub>4</sub>",
        "Molecular Mass": "396.52",
        "Melting Point": "224-226 °C"
    }
}