{
    "cas_no": "75581-11-2",
    "key_name": "4-Iodo-1-methoxy-2-methylbenzene",
    "cn_name": "4-碘-2-甲基苯甲醚;",
    "alternate_name": "Benzene, 4-iodo-1-methoxy-2-methyl-;4-Iodo-1-methoxy-2-methylbenzene;5-Iodo-2-methoxytoluene;4-Iodo-2-methylanisole;4-Methoxy-3-methyliodobenzene;4-Iodo-2-methyl-1-methoxybenzene;1-Iodo-4-methoxy-3-methylbenzene",
    "duplicated_cas_no": "",
    "SMILES": "O(C)C1=C(C)C=C(I)C=C1",
    "meta_data": {
        "InChI": "InChI=1S/C8H9IO/c1-6-5-7(9)3-4-8(6)10-2/h3-5H,1-2H3",
        "InChIKey": null,
        "Canonical SMILES": "IC1=CC=C(OC)C(=C1)C",
        "Molecular Formula": "C<sub>8</sub>H<sub>9</sub>IO",
        "Molecular Mass": "248.06",
        "Melting Point": "75-76 °C"
    }
}