{
    "cas_no": "4292-92-6",
    "key_name": "Pentylcyclohexane",
    "cn_name": "正戊基环己烷;",
    "alternate_name": "Cyclohexane, pentyl-;Pentylcyclohexane;Pentane, 1-cyclohexyl-;Amylcyclohexane",
    "duplicated_cas_no": "",
    "SMILES": "C(CCCC)C1CCCCC1",
    "meta_data": {
        "InChI": "InChI=1S/C11H22/c1-2-3-5-8-11-9-6-4-7-10-11/h11H,2-10H2,1H3",
        "InChIKey": null,
        "Canonical SMILES": "CCCCCC1CCCCC1",
        "Molecular Formula": "C<sub>11</sub>H<sub>22</sub>",
        "Molecular Mass": "154.29",
        "Boiling Point": "203.7 °C",
        "Melting Point": "-57.5 °C",
        "Density": "0.802 g/cm³ @ Temp: 20 °C"
    }
}