{
    "cas_no": "738-87-4",
    "key_name": "Sterculic acid",
    "cn_name": "苹婆酸;8-(2-辛基环丙-1-烯基)辛酸;",
    "alternate_name": "1-Cyclopropene-1-octanoic acid, 2-octyl-;2-Octyl-1-cyclopropene-1-octanoic acid;Sterculic acid;Sterculinic acid",
    "duplicated_cas_no": "",
    "SMILES": "C(CCCCCCC(O)=O)C1=C(CCCCCCCC)C1",
    "meta_data": {
        "InChI": "InChI=1S/C19H34O2/c1-2-3-4-5-7-10-13-17-16-18(17)14-11-8-6-9-12-15-19(20)21/h2-16H2,1H3,(H,20,21)",
        "InChIKey": null,
        "Canonical SMILES": "O=C(O)CCCCCCCC1=C(C1)CCCCCCCC",
        "Molecular Formula": "C<sub>19</sub>H<sub>34</sub>O<sub>2</sub>",
        "Molecular Mass": "294.47",
        "Melting Point": "19 °C"
    }
}