{
    "cas_no": "4468-59-1",
    "key_name": "(4-Hydroxy-3-methoxyphenyl)acetonitrile",
    "cn_name": "4-羟基-3-甲氧基苯乙腈;",
    "alternate_name": "Benzeneacetonitrile, 4-hydroxy-3-methoxy-;Acetonitrile, (4-hydroxy-3-methoxyphenyl)-;4-Hydroxy-3-methoxybenzeneacetonitrile;Homovanillonitrile;(4-Hydroxy-3-methoxyphenyl)acetonitrile;2-Methoxy-4-(cyanomethyl)phenol;2-(4-Hydroxy-3-methoxyphenyl)acetonitrile",
    "duplicated_cas_no": "",
    "SMILES": "O(C)C1=CC(CC#N)=CC=C1O",
    "meta_data": {
        "InChI": "InChI=1S/C9H9NO2/c1-12-9-6-7(4-5-10)2-3-8(9)11/h2-3,6,11H,4H2,1H3",
        "InChIKey": null,
        "Canonical SMILES": "N#CCC1=CC=C(O)C(OC)=C1",
        "Molecular Formula": "C<sub>9</sub>H<sub>9</sub>NO<sub>2</sub>",
        "Molecular Mass": "163.17",
        "Boiling Point": "138 °C",
        "Melting Point": "56.5 °C"
    }
}