{
    "cas_no": "1034439-57-0",
    "key_name": "Piperidine, 4-[(2,3-dihydro-5,6-dimethoxy-1<em>H</em>-inden-2-yl)methyl]-1-(phenylmethyl)-, hydrochloride (1:1)",
    "cn_name": null,
    "alternate_name": "Piperidine, 4-[(2,3-dihydro-5,6-dimethoxy-1<em>H</em>-inden-2-yl)methyl]-1-(phenylmethyl)-, hydrochloride (1:1)",
    "duplicated_cas_no": "",
    "SMILES": "O(C)C=1C=C2C(=CC1OC)CC(CC3CCN(CC4=CC=CC=C4)CC3)C2.Cl",
    "meta_data": {
        "InChI": "InChI=1S/C24H31NO2.ClH/c1-26-23-15-21-13-20(14-22(21)16-24(23)27-2)12-18-8-10-25(11-9-18)17-19-6-4-3-5-7-19;/h3-7,15-16,18,20H,8-14,17H2,1-2H3;1H",
        "InChIKey": null,
        "Canonical SMILES": "Cl.O(C=1C=C2C(=CC1OC)CC(C2)CC3CCN(CC=4C=CC=CC4)CC3)C",
        "Molecular Formula": "C<sub>24</sub>H<sub>31</sub>NO<sub>2</sub>.ClH",
        "Molecular Mass": "",
        "Melting Point": "211-213 °C"
    }
}