{
    "cas_no": "24123-14-6",
    "key_name": "<em>N</em>-(2-Aminoethyl)glycine",
    "cn_name": "N-(2-氨基乙基)甘氨酸;",
    "alternate_name": "Glycine, <em>N</em>-(2-aminoethyl)-;<em>N</em>-(2-Aminoethyl)glycine;Ethylenediaminemonoacetic acid;Ethylenediamine-<em>N</em>-acetic acid;3,6-Diazahexanoic acid;<em>N</em>-(β-Aminoethyl)glycine;2-(2-Aminoethylamino)acetic acid;2-(2-Azaniumylethylamino)acetate",
    "duplicated_cas_no": "",
    "SMILES": "C(NCCN)C(O)=O",
    "meta_data": {
        "InChI": "InChI=1S/C4H10N2O2/c5-1-2-6-3-4(7)8/h6H,1-3,5H2,(H,7,8)",
        "InChIKey": null,
        "Canonical SMILES": "O=C(O)CNCCN",
        "Molecular Formula": "C<sub>4</sub>H<sub>10</sub>N<sub>2</sub>O<sub>2</sub>",
        "Molecular Mass": "118.13",
        "Melting Point": "159-161 °C"
    }
}