{
    "cas_no": "35466-83-2",
    "key_name": "Methyl 2-propen-1-yl carbonate",
    "cn_name": "烯丙基甲基碳酸酯;",
    "alternate_name": "Carbonic acid, methyl 2-propen-1-yl ester;Carbonic acid, methyl 2-propenyl ester;Methyl 2-propen-1-yl carbonate;Allyl methyl carbonate;Methyl allyl carbonate;Methyl 2-propenyl carbonate",
    "duplicated_cas_no": "",
    "SMILES": "C(OCC=C)(OC)=O",
    "meta_data": {
        "InChI": "InChI=1S/C5H8O3/c1-3-4-8-5(6)7-2/h3H,1,4H2,2H3",
        "InChIKey": null,
        "Canonical SMILES": "O=C(OC)OCC=C",
        "Molecular Formula": "C<sub>5</sub>H<sub>8</sub>O<sub>3</sub>",
        "Molecular Mass": "116.12",
        "Boiling Point": "38 °C @ Press: 18 Torr",
        "Density": "1.0261 g/cm³ @ Temp: 420 °C"
    }
}