{
    "cas_no": "114-83-0",
    "key_name": "Acetylphenylhydrazine",
    "cn_name": "1-乙酰基-2-苯基肼;N-乙酰苯肼;",
    "alternate_name": "Acetic acid, 2-phenylhydrazide;1-Acetyl-2-phenylhydrazine;APH;Hydracetin;Pyrodin;Pyrodine;Acetylphenylhydrazine;β-Acetylphenylhydrazine;<em>N</em>-Acetyl-<em>N</em>′-phenylhydrazine;<em>N</em>′-Phenylacethydrazide;1-Phenyl-2-acetylhydrazine;Acetic acid phenylhydrazone;NSC 2064;NSC 229032;NSC 2847;<em>N</em>-(Phenylamino)acetamide;<em>N</em>′-Phenylacetohydrazide",
    "duplicated_cas_no": "",
    "SMILES": "N(NC(C)=O)C1=CC=CC=C1",
    "meta_data": {
        "InChI": "InChI=1S/C8H10N2O/c1-7(11)9-10-8-5-3-2-4-6-8/h2-6,10H,1H3,(H,9,11)",
        "InChIKey": null,
        "Canonical SMILES": "O=C(NNC=1C=CC=CC1)C",
        "Molecular Formula": "C<sub>8</sub>H<sub>10</sub>N<sub>2</sub>O",
        "Molecular Mass": "150.18",
        "Melting Point": "131 °C"
    }
}