{
    "cas_no": "6989-21-5",
    "key_name": "Atractylon",
    "cn_name": null,
    "alternate_name": "Naphtho[2,3-<em>b</em>]furan, 4,4a,5,6,7,8,8a,9-octahydro-3,8a-dimethyl-5-methylene-, (4a<em>S</em>,8a<em>R</em>)-;Naphtho[2,3-<em>b</em>]furan, 4,4aα,5,6,7,8,8a,9-octahydro-3,8aβ-dimethyl-5-methylene-;Naphtho[2,3-<em>b</em>]furan, 4,4a,5,6,7,8,8a,9-octahydro-3,8a-dimethyl-5-methylene-, (4a<em>S</em>-<em>trans</em>)-;Atractylone;(4a<em>S</em>,8a<em>R</em>)-4,4a,5,6,7,8,8a,9-Octahydro-3,8a-dimethyl-5-methylenenaphtho[2,3-<em>b</em>]furan;Atractylon;Atractyloxide;Atractylol",
    "duplicated_cas_no": "98309-94-5",
    "SMILES": "C[C@]12[C@@](CC3=C(C1)OC=C3C)(C(=C)CCC2)[H]",
    "meta_data": {
        "InChI": "InChI=1S/C15H20O/c1-10-5-4-6-15(3)8-14-12(7-13(10)15)11(2)9-16-14/h9,13H,1,4-8H2,2-3H3/t13-,15+/m0/s1",
        "InChIKey": null,
        "Canonical SMILES": "O1C=C(C2=C1CC3(C)CCCC(=C)C3C2)C",
        "Molecular Formula": "C<sub>15</sub>H<sub>20</sub>O",
        "Molecular Mass": "216.32",
        "Melting Point": "61-63 °C"
    }
}