{
    "cas_no": "6265-92-5",
    "key_name": "2-(4-Methoxyphenyl)benzothiazole",
    "cn_name": "2-(4-甲氧苯基)苯并噻唑;",
    "alternate_name": "Benzothiazole, 2-(4-methoxyphenyl)-;Benzothiazole, 2-(<em>p</em>-methoxyphenyl)-;2-(4-Methoxyphenyl)benzothiazole;2-(<em>p</em>-Methoxyphenyl)benzothiazole;NSC 33161;2-(4-Methoxyphenyl)benzo[<em>d</em>]thiazole;2-(4-Methoxyphenyl)-1,3-benzothiazole",
    "duplicated_cas_no": "",
    "SMILES": "O(C)C1=CC=C(C2=NC=3C(S2)=CC=CC3)C=C1",
    "meta_data": {
        "InChI": "InChI=1S/C14H11NOS/c1-16-11-8-6-10(7-9-11)14-15-12-4-2-3-5-13(12)17-14/h2-9H,1H3",
        "InChIKey": null,
        "Canonical SMILES": "N1=C(SC=2C=CC=CC12)C3=CC=C(OC)C=C3",
        "Molecular Formula": "C<sub>14</sub>H<sub>11</sub>NOS",
        "Molecular Mass": "241.31",
        "Melting Point": "134 °C"
    }
}