{
    "cas_no": "122-56-5",
    "key_name": "Tributylborane",
    "cn_name": "三正丁基硼;",
    "alternate_name": "Borane, tributyl-;Tributylborane;Tri-<em>n</em>-butylboron;Tributylboron;Tri-<em>n</em>-butylborane;TBB",
    "duplicated_cas_no": "31259-85-5",
    "SMILES": "B(CCCC)(CCCC)CCCC",
    "meta_data": {
        "InChI": "InChI=1S/C12H27B/c1-4-7-10-13(11-8-5-2)12-9-6-3/h4-12H2,1-3H3",
        "InChIKey": null,
        "Canonical SMILES": "B(CCCC)(CCCC)CCCC",
        "Molecular Formula": "C<sub>12</sub>H<sub>27</sub>B",
        "Molecular Mass": "182.15",
        "Boiling Point": "209 °C",
        "Melting Point": "&lt;25 °C",
        "Density": "0.8255 g/cm³ @ Temp: 25 °C"
    }
}