{
    "cas_no": "84-36-6",
    "key_name": "Syrosingopine",
    "cn_name": "乙酯利血平;",
    "alternate_name": "Yohimban-16-carboxylic acid, 18-[[4-[(ethoxycarbonyl)oxy]-3,5-dimethoxybenzoyl]oxy]-11,17-dimethoxy-, methyl ester, (3β,16β,17α,18β,20α)-;3β,20α-Yohimban-16β-carboxylic acid, 18β-hydroxy-11,17α-dimethoxy-, methyl ester, 4-hydroxy-3,5-dimethoxybenzoate (ester) ethyl carbonate (ester);Reserpic acid, methyl ester, ester with syringic acid, ethyl carbonate;Carbethoxysyringoyl methylreserpate;Methyl carbethoxysyringoyl reserpate;Methyl reserpate ester of syringic acid ethyl carbonate;Singoserp;Syringic acid ethyl carbonate ester with methyl reserpate;Syrosingopine;Su 3118;Isotense;Syrosingopin;Syringopine;Siringina;Seniramin;Londomin;Raunova;NSC 77030;SML 1908;Methyl (1S,2R,3R,4aS,13bR,14aS)-3-[[4-[(ethoxycarbonyl)oxy]-3,5-dimethoxybenzoyl]oxy]-2,11-dimethoxy-1,2,3,4,4a,5,7,8,13,13b,14,14a-dodecahydroindolo[2′,3′:3,4]pyrido[1,2-<em>b</em>]isoquinoline-1-carboxylate",
    "duplicated_cas_no": "8059-51-6;1195140-08-9",
    "SMILES": "C(OC)(=O)[C@H]1[C@]2(C[C@@]3(C4=C(C=5C(N4)=CC(OC)=CC5)CCN3C[C@]2(C[C@@H](OC(=O)C6=CC(OC)=C(OC(OCC)=O)C(OC)=C6)[C@@H]1OC)[H])[H])[H]",
    "meta_data": {
        "InChI": "InChI=1S/C35H42N2O11/c1-7-46-35(40)48-31-26(42-3)12-18(13-27(31)43-4)33(38)47-28-14-19-17-37-11-10-22-21-9-8-20(41-2)15-24(21)36-30(22)25(37)16-23(19)29(32(28)44-5)34(39)45-6/h8-9,12-13,15,19,23,25,28-29,32,36H,7,10-11,14,16-17H2,1-6H3/t19-,23+,25-,28-,29+,32+/m1/s1",
        "InChIKey": null,
        "Canonical SMILES": "O=C(OC1=C(OC)C=C(C=C1OC)C(=O)OC2CC3CN4CCC=5C=6C=CC(OC)=CC6NC5C4CC3C(C(=O)OC)C2OC)OCC",
        "Molecular Formula": "C<sub>35</sub>H<sub>42</sub>N<sub>2</sub>O<sub>11</sub>",
        "Molecular Mass": "666.71",
        "Melting Point": "177 °C"
    }
}