{
    "cas_no": "1374639-77-6",
    "key_name": "2-Chloro-7-cyclopentyl-7<em>H</em>-pyrrolo[2,3-<em>d</em>]pyrimidine-6-methanol",
    "cn_name": null,
    "alternate_name": "7<em>H</em>-Pyrrolo[2,3-<em>d</em>]pyrimidine-6-methanol, 2-chloro-7-cyclopentyl-;2-Chloro-7-cyclopentyl-7<em>H</em>-pyrrolo[2,3-<em>d</em>]pyrimidine-6-methanol;(2-Chloro-7-cyclopentyl-7<em>H</em>-pyrrolo[2,3-<em>d</em>]pyrimidin-6-yl)methanol;(2-Chloro-7-cyclopentyl-7<em>H</em>-pyrrolo[2,3-<em>d</em>]pyriMidin-6-yl)Methanol",
    "duplicated_cas_no": "",
    "SMILES": "C(O)C=1N(C=2C(C1)=CN=C(Cl)N2)C3CCCC3",
    "meta_data": {
        "InChI": "InChI=1S/C12H14ClN3O/c13-12-14-6-8-5-10(7-17)16(11(8)15-12)9-3-1-2-4-9/h5-6,9,17H,1-4,7H2",
        "InChIKey": null,
        "Canonical SMILES": "ClC=1N=CC=2C=C(N(C2N1)C3CCCC3)CO",
        "Molecular Formula": "C<sub>12</sub>H<sub>14</sub>ClN<sub>3</sub>O",
        "Molecular Mass": "251.71",
        "Melting Point": "176-178 °C"
    }
}