{
    "cas_no": "17720-63-7",
    "key_name": "<em>N</em>-Acetyl-<em>N</em>-(acetyloxy)acetamide",
    "cn_name": null,
    "alternate_name": "Acetamide, <em>N</em>-acetyl-<em>N</em>-(acetyloxy)-;Hydroxylamine, triacetyl-;<em>N</em>-Acetyl-<em>N</em>-(acetyloxy)acetamide;Triacetylhydroxylamine;<em>N</em>,<em>N</em>,<em>O</em>-Triacetylhydroxylamine;<em>N</em>-Acetoxydiacetamide",
    "duplicated_cas_no": "",
    "SMILES": "N(OC(C)=O)(C(C)=O)C(C)=O",
    "meta_data": {
        "InChI": "InChI=1S/C6H9NO4/c1-4(8)7(5(2)9)11-6(3)10/h1-3H3",
        "InChIKey": null,
        "Canonical SMILES": "O=C(ON(C(=O)C)C(=O)C)C",
        "Molecular Formula": "C<sub>6</sub>H<sub>9</sub>NO<sub>4</sub>",
        "Molecular Mass": "159.14",
        "Boiling Point": "109-111 °C @ Press: 14 Torr",
        "Density": "1.1681 g/cm³ @ Temp: 20 °C"
    }
}