{
    "cas_no": "452-84-6",
    "key_name": "2-Fluoro-5-methylaniline",
    "cn_name": "2-氟-5-甲基苯胺;3-氨基-4-氟甲苯;",
    "alternate_name": "Benzenamine, 2-fluoro-5-methyl-;<em>m</em>-Toluidine, 6-fluoro-;2-Fluoro-5-methylbenzenamine;2-Fluoro-5-methylaniline;3-Methyl-6-fluoroaniline;2-Fluoro-5-methylphenylamine;NSC 97095",
    "duplicated_cas_no": "",
    "SMILES": "NC1=C(F)C=CC(C)=C1",
    "meta_data": {
        "InChI": "InChI=1S/C7H8FN/c1-5-2-3-6(8)7(9)4-5/h2-4H,9H2,1H3",
        "InChIKey": null,
        "Canonical SMILES": "FC1=CC=C(C=C1N)C",
        "Molecular Formula": "C<sub>7</sub>H<sub>8</sub>FN",
        "Molecular Mass": "125.14",
        "Boiling Point": "88-90 °C @ Press: 17 Torr"
    }
}