{
    "cas_no": "7788-98-9",
    "key_name": "Ammonium chromate ((NH<sub>4</sub>)<sub>2</sub>CrO<sub>4</sub>)",
    "cn_name": "铬酸铵;",
    "alternate_name": "Chromic acid (H<sub>2</sub>CrO<sub>4</sub>), ammonium salt (1:2);Chromic acid (H<sub>2</sub>CrO<sub>4</sub>), diammonium salt;Ammonium chromate(VI);Ammonium chromate;Neutral ammonium chromate;Ammonium chromate ((NH<sub>4</sub>)<sub>2</sub>CrO<sub>4</sub>);Diammonium chromate;Chromic acid ammonium salt;Diammonium chromate ((NH<sub>4</sub>)<sub>2</sub>CrO<sub>4</sub>)",
    "duplicated_cas_no": "50929-82-3",
    "SMILES": "[Cr](O)(O)(=O)=O.N",
    "meta_data": {
        "InChI": "InChI=1S/Cr.2H3N.2H2O.2O/h;2*1H3;2*1H2;;/q+2;;;;;;/p-2",
        "InChIKey": null,
        "Canonical SMILES": "O=[Cr](=O)(O)O.N",
        "Molecular Formula": "CrH<sub>2</sub>O<sub>4</sub>.2H<sub>3</sub>N",
        "Molecular Mass": "",
        "Melting Point": "185 °C (decomp)",
        "Density": "1.866 g/cm³"
    }
}