{
    "cas_no": "59-42-7",
    "key_name": "(-)-Phenylephrine",
    "cn_name": "去氧肾上腺素碱;3-羟基-alpha-((甲基氨基)甲基)-苄醇;",
    "alternate_name": "Benzenemethanol, 3-hydroxy-α-[(methylamino)methyl]-, (α<em>R</em>)-;Benzyl alcohol, <em>m</em>-hydroxy-α-[(methylamino)methyl]-, (-)-;Benzenemethanol, 3-hydroxy-α-[(methylamino)methyl]-, (<em>R</em>)-;(α<em>R</em>)-3-Hydroxy-α-[(methylamino)methyl]benzenemethanol;<em>l</em>-<em>m</em>-Hydroxy-α-[(methylamino)methyl]benzyl alcohol;(-)-<em>m</em>-Hydroxy-α-(methylaminomethyl)benzyl alcohol;Mesaton;Mesatone;Metaoxedrine;Metasympatol;Metasynephrine;<em>m</em>-Methylaminoethanolphenol;Mezaton;(-)-<em>m</em>-Oxedrine;<em>m</em>-Oxedrine;(-)-Phenylephrine;Phenylephrine;<em>m</em>-Sympathol;<em>m</em>-Sympatol;<em>m</em>-Synephrine;Neo-Synephrine;Metaoxedrin;Visadron;(<em>R</em>)-(-)-Phenylephrine;(<em>R</em>)-Phenylephrine;<em>R</em>(-)-Mezaton;<em>l</em>-Phenylephrine;(-)-<em>m</em>-Synephrine;<span class=\"text-smallcaps\">L</span>-Phenylephedrine;(R)-3-[1-Hydroxy-2-(methylamino)ethyl]phenol;Iriphrin;3-[(1R)-1-Hydroxy-2-(methylamino)ethyl]phenol;Relacon-HC;MeSH ID: D010656",
    "duplicated_cas_no": "2682865-22-9",
    "SMILES": "[C@@H](CNC)(O)C1=CC(O)=CC=C1",
    "meta_data": {
        "InChI": "InChI=1S/C9H13NO2/c1-10-6-9(12)7-3-2-4-8(11)5-7/h2-5,9-12H,6H2,1H3/t9-/m0/s1",
        "InChIKey": null,
        "Canonical SMILES": "OC1=CC=CC(=C1)C(O)CNC",
        "Molecular Formula": "C<sub>9</sub>H<sub>13</sub>NO<sub>2</sub>",
        "Molecular Mass": "167.21",
        "Melting Point": "169-172 °C"
    }
}