{
    "cas_no": "85650-52-8",
    "key_name": "Mirtazapine",
    "cn_name": "米氮平;1,2,3,4,10,14b-六氢-2-甲基吡嗪基-[2,1-a]吡啶并[2,3-C]氮杂卓;",
    "alternate_name": "Pyrazino[2,1-<em>a</em>]pyrido[2,3-<em>c</em>][2]benzazepine, 1,2,3,4,10,14b-hexahydro-2-methyl-;Pyrazino[2,1-<em>a</em>]pyrido[2,3-<em>c</em>][2]benzazepine, 1,2,3,4,10,14b-hexahydro-2-methyl-, (±)-;1,2,3,4,10,14b-Hexahydro-2-methylpyrazino[2,1-<em>a</em>]pyrido[2,3-<em>c</em>][2]benzazepine;6-Azamianserin;Org 3770;Mepirzepine;Mirtazapine;Remergil;Remergon;Remeron;Rexer;Zispin;Mepirzapin;Promyrtil;Mirtazipine;Mirtazepine;Avanza;Mirtabene;Norset;Mirtaz 15;Remeron SolTab;Reflex;Zestat;Mirataz",
    "duplicated_cas_no": "61337-67-5;82601-27-2",
    "SMILES": "CN1CC2N(C=3C(CC=4C2=CC=CC4)=CC=CN3)CC1",
    "meta_data": {
        "InChI": "InChI=1S/C17H19N3/c1-19-9-10-20-16(12-19)15-7-3-2-5-13(15)11-14-6-4-8-18-17(14)20/h2-8,16H,9-12H2,1H3",
        "InChIKey": null,
        "Canonical SMILES": "N=1C=CC=C2C1N3CCN(C)CC3C=4C=CC=CC4C2",
        "Molecular Formula": "C<sub>17</sub>H<sub>19</sub>N<sub>3</sub>",
        "Molecular Mass": "265.35",
        "Melting Point": "114-116 °C"
    }
}