{
    "cas_no": "1191951-57-1",
    "key_name": "4-Dodecyl-<em>N</em>-1,3,4-thiadiazol-2-ylbenzenesulfonamide",
    "cn_name": null,
    "alternate_name": "Benzenesulfonamide, 4-dodecyl-<em>N</em>-1,3,4-thiadiazol-2-yl-;4-Dodecyl-<em>N</em>-1,3,4-thiadiazol-2-ylbenzenesulfonamide;PHT 427",
    "duplicated_cas_no": "1178893-77-0",
    "SMILES": "S(NC1=NN=CS1)(=O)(=O)C2=CC=C(CCCCCCCCCCCC)C=C2",
    "meta_data": {
        "InChI": "InChI=1S/C20H31N3O2S2/c1-2-3-4-5-6-7-8-9-10-11-12-18-13-15-19(16-14-18)27(24,25)23-20-22-21-17-26-20/h13-17H,2-12H2,1H3,(H,22,23)",
        "InChIKey": null,
        "Canonical SMILES": "O=S(=O)(NC1=NN=CS1)C2=CC=C(C=C2)CCCCCCCCCCCC",
        "Molecular Formula": "C<sub>20</sub>H<sub>31</sub>N<sub>3</sub>O<sub>2</sub>S<sub>2</sub>",
        "Molecular Mass": "409.61",
        "Melting Point": "126-127 °C"
    }
}