{
    "cas_no": "83-49-8",
    "key_name": "Hyodeoxycholic acid",
    "cn_name": "猪去氧胆酸;",
    "alternate_name": "Cholan-24-oic acid, 3,6-dihydroxy-, (3α,5β,6α)-;5β-Cholan-24-oic acid, 3α,6α-dihydroxy-;5β-Cholanic acid, 3α,6α-dihydroxy-;(3α,5β,6α)-3,6-Dihydroxycholan-24-oic acid;3α,6α-Dihydroxy-5β-cholanoic acid;3α,6α-Dihydroxy-5β-cholanic acid;Hyodeoxycholic acid;Hyodesoxycholic acid;α-Hyodeoxycholic acid;3α,6α-Dihydroxy-5β-cholan-24-oate;6α-Hydroxylithocholic acid;3α,6α-Dihydroxy-5β-cholan-24-oic acid;7-Deoxyhyocholic acid;Iodeoxycholic acid;NSC 60672",
    "duplicated_cas_no": "",
    "SMILES": "C[C@@]12[C@@]3([C@]([C@]4([C@](C)(CC3)[C@@]([C@@H](CCC(O)=O)C)(CC4)[H])[H])(C[C@H](O)[C@@]1(C[C@H](O)CC2)[H])[H])[H]",
    "meta_data": {
        "InChI": "InChI=1S/C24H40O4/c1-14(4-7-22(27)28)17-5-6-18-16-13-21(26)20-12-15(25)8-10-24(20,3)19(16)9-11-23(17,18)2/h14-21,25-26H,4-13H2,1-3H3,(H,27,28)/t14-,15-,16+,17-,18+,19+,20+,21+,23-,24-/m1/s1",
        "InChIKey": null,
        "Canonical SMILES": "O=C(O)CCC(C)C1CCC2C3CC(O)C4CC(O)CCC4(C)C3CCC12C",
        "Molecular Formula": "C<sub>24</sub>H<sub>40</sub>O<sub>4</sub>",
        "Molecular Mass": "392.57",
        "Melting Point": "198.5 °C"
    }
}