{
    "cas_no": "701-56-4",
    "key_name": "4-Methoxy-<em>N</em>,<em>N</em>-dimethylbenzenamine",
    "cn_name": null,
    "alternate_name": "Benzenamine, 4-methoxy-<em>N</em>,<em>N</em>-dimethyl-;<em>p</em>-Anisidine, <em>N</em>,<em>N</em>-dimethyl-;4-Methoxy-<em>N</em>,<em>N</em>-dimethylbenzenamine;<em>N</em>,<em>N</em>-Dimethyl-<em>p</em>-anisidine;<em>p</em>-(Dimethylamino)anisole;<em>p</em>-Methoxy-<em>N</em>,<em>N</em>-dimethylaniline;4-Methoxy-<em>N</em>,<em>N</em>-dimethylaniline;<em>N</em>,<em>N</em>-Dimethyl-4-methoxyaniline;4-(Dimethylamino)methoxybenzene;<em>N</em>,<em>N</em>-Dimethyl-<em>p</em>-methoxyaniline;4-(<em>N</em>,<em>N</em>′-Dimethylamino)methoxybenzene;4-Dimethylaminoanisole;NSC 86670;<em>N</em>,<em>N</em>-Dimethylanisidine",
    "duplicated_cas_no": "",
    "SMILES": "N(C)(C)C1=CC=C(OC)C=C1",
    "meta_data": {
        "InChI": "InChI=1S/C9H13NO/c1-10(2)8-4-6-9(11-3)7-5-8/h4-7H,1-3H3",
        "InChIKey": null,
        "Canonical SMILES": "O(C1=CC=C(C=C1)N(C)C)C",
        "Molecular Formula": "C<sub>9</sub>H<sub>13</sub>NO",
        "Molecular Mass": "151.21",
        "Boiling Point": "237 °C",
        "Melting Point": "48 °C"
    }
}