{
    "cas_no": "613-08-1",
    "key_name": "2-Anthracenecarboxylic acid",
    "cn_name": "2-蒽甲酸;",
    "alternate_name": "2-Anthracenecarboxylic acid;2-Anthroic acid;NSC 406583",
    "duplicated_cas_no": "",
    "SMILES": "C(O)(=O)C1=CC2=C(C=C3C(=C2)C=CC=C3)C=C1",
    "meta_data": {
        "InChI": "InChI=1S/C15H10O2/c16-15(17)13-6-5-12-7-10-3-1-2-4-11(10)8-14(12)9-13/h1-9H,(H,16,17)",
        "InChIKey": null,
        "Canonical SMILES": "O=C(O)C=1C=CC2=CC=3C=CC=CC3C=C2C1",
        "Molecular Formula": "C<sub>15</sub>H<sub>10</sub>O<sub>2</sub>",
        "Molecular Mass": "222.24",
        "Melting Point": "270-280 °C"
    }
}