{
    "cas_no": "622-78-6",
    "key_name": "Benzyl isothiocyanate",
    "cn_name": "异硫氰酸苄酯;",
    "alternate_name": "Benzene, (isothiocyanatomethyl)-;Isothiocyanic acid, benzyl ester;(Isothiocyanatomethyl)benzene;Benzyl mustard oil;AB 2;Tromacaps;Tromalyt;Urogran;Benzyl isothiocyanate;Phenylmethyl isothiocyanate;NSC 118976;1-(Isothiocyanatomethyl)benzene;Benzenemethanesulfenyl isocyanate",
    "duplicated_cas_no": "2921006-81-5",
    "SMILES": "C(N=C=S)C1=CC=CC=C1",
    "meta_data": {
        "InChI": "InChI=1S/C8H7NS/c10-7-9-6-8-4-2-1-3-5-8/h1-5H,6H2",
        "InChIKey": null,
        "Canonical SMILES": "S=C=NCC=1C=CC=CC1",
        "Molecular Formula": "C<sub>8</sub>H<sub>7</sub>NS",
        "Molecular Mass": "149.21",
        "Boiling Point": "243 °C",
        "Melting Point": "41 °C",
        "Density": "1.1234 g/cm³ @ Temp: 20 °C"
    }
}