{
    "cas_no": "13849-08-6",
    "key_name": "(+)-Marmesin",
    "cn_name": null,
    "alternate_name": "7<em>H</em>-Furo[3,2-<em>g</em>][1]benzopyran-7-one, 2,3-dihydro-2-(1-hydroxy-1-methylethyl)-, (2<em>S</em>)-;Marmesin;7<em>H</em>-Furo[3,2-<em>g</em>][1]benzopyran-7-one, 2,3-dihydro-2-(1-hydroxy-1-methylethyl)-, (<em>S</em>)-;7<em>H</em>-Furo[3,2-<em>g</em>][1]benzopyran-7-one, 2,3-dihydro-2-(1-hydroxy-1-methylethyl)-, (<em>S</em>)-(+)-;(2<em>S</em>)-2,3-Dihydro-2-(1-hydroxy-1-methylethyl)-7<em>H</em>-furo[3,2-<em>g</em>][1]benzopyran-7-one;(+)-Marmesin;<em>S</em>-(+)-Marmesin;(<em>S</em>)-Marmesin;NSC 340840",
    "duplicated_cas_no": "",
    "SMILES": "C(C)(C)(O)[C@@H]1CC=2C(=CC3=C(C2)C=CC(=O)O3)O1",
    "meta_data": {
        "InChI": "InChI=1S/C14H14O4/c1-14(2,16)12-6-9-5-8-3-4-13(15)18-10(8)7-11(9)17-12/h3-5,7,12,16H,6H2,1-2H3/t12-/m0/s1",
        "InChIKey": null,
        "Canonical SMILES": "O=C1OC=2C=C3OC(CC3=CC2C=C1)C(O)(C)C",
        "Molecular Formula": "C<sub>14</sub>H<sub>14</sub>O<sub>4</sub>",
        "Molecular Mass": "246.26",
        "Melting Point": "189.5 °C"
    }
}