{
    "cas_no": "3096-70-6",
    "key_name": "4-Amino-3,5-dimethylphenol",
    "cn_name": "3,5-二甲基-4-氨基苯酚;",
    "alternate_name": "Phenol, 4-amino-3,5-dimethyl-;3,5-Xylenol, 4-amino-;4-Amino-3,5-dimethylphenol;4-Hydroxy-2,6-dimethylaniline;3,5-Dimethyl-4-aminophenol;4-Hydroxy-2,6-xylidine;4-Amino-3,5-xylenol;NSC 38030",
    "duplicated_cas_no": "",
    "SMILES": "NC1=C(C)C=C(O)C=C1C",
    "meta_data": {
        "InChI": "InChI=1S/C8H11NO/c1-5-3-7(10)4-6(2)8(5)9/h3-4,10H,9H2,1-2H3",
        "InChIKey": null,
        "Canonical SMILES": "OC=1C=C(C(N)=C(C1)C)C",
        "Molecular Formula": "C<sub>8</sub>H<sub>11</sub>NO",
        "Molecular Mass": "137.18",
        "Melting Point": "163 °C"
    }
}