{
    "cas_no": "7320-37-8",
    "key_name": "1,2-Epoxyhexadecane",
    "cn_name": "1,2-环氧十六烷; 十四烷基环氧乙烷;",
    "alternate_name": "Oxirane, 2-tetradecyl-;Hexadecane, 1,2-epoxy-;Oxirane, tetradecyl-;2-Tetradecyloxirane;1,2-Epoxyhexadecane;Hexadecylene oxide;1,2-Hexadecene epoxide;Tetradecyloxirane;Vikolox 16;1,2-Hexadecylene oxide;1,2-Epoxyhexadecene;Cyracure UVR 6216;1-Hexadecene oxide;UVR 6216;1,2-Hexadecene oxide",
    "duplicated_cas_no": "151284-10-5",
    "SMILES": "C(CCCCCCCCCCCCC)C1CO1",
    "meta_data": {
        "InChI": "InChI=1S/C16H32O/c1-2-3-4-5-6-7-8-9-10-11-12-13-14-16-15-17-16/h16H,2-15H2,1H3",
        "InChIKey": null,
        "Canonical SMILES": "O1CC1CCCCCCCCCCCCCC",
        "Molecular Formula": "C<sub>16</sub>H<sub>32</sub>O",
        "Molecular Mass": "240.42",
        "Boiling Point": "175-180 °C @ Press: 12 Torr",
        "Melting Point": "21-22 °C",
        "Density": "0.8457 g/cm³ @ Temp: 20 °C"
    }
}