{
    "cas_no": "79725-98-7",
    "key_name": "Kojic acid dipalmitate",
    "cn_name": "曲酸双棕榈酸酯;曲酸二棕榈酸酯;曲酸棕榈酸酯;",
    "alternate_name": "Hexadecanoic acid, 4-oxo-6-[[(1-oxohexadecyl)oxy]methyl]-4<em>H</em>-pyran-3-yl ester;Kojic acid dipalmitate;KAD 15;(5-Hexadecanoyloxy-4-oxopyran-2-yl)methyl hexadecanoate;Kojic dipalmitate",
    "duplicated_cas_no": "",
    "SMILES": "C(OC(CCCCCCCCCCCCCCC)=O)C1=CC(=O)C(OC(CCCCCCCCCCCCCCC)=O)=CO1",
    "meta_data": {
        "InChI": "InChI=1S/C38H66O6/c1-3-5-7-9-11-13-15-17-19-21-23-25-27-29-37(40)43-32-34-31-35(39)36(33-42-34)44-38(41)30-28-26-24-22-20-18-16-14-12-10-8-6-4-2/h31,33H,3-30,32H2,1-2H3",
        "InChIKey": null,
        "Canonical SMILES": "O=C1C=C(OC=C1OC(=O)CCCCCCCCCCCCCCC)COC(=O)CCCCCCCCCCCCCCC",
        "Molecular Formula": "C<sub>38</sub>H<sub>66</sub>O<sub>6</sub>",
        "Molecular Mass": "618.93",
        "Melting Point": "92-94 °C"
    }
}