{
    "cas_no": "556-61-6",
    "key_name": "Methyl isothiocyanate",
    "cn_name": "异硫氰酸甲酯;",
    "alternate_name": "Methane, isothiocyanato-;Isothiocyanic acid, methyl ester;Isothiocyanatomethane;WN 12;Methyl isothiocyanate;Methyl mustard oil;Morton EP-161E;Trapex;Trapexide;Tropex;Methyl thioisocyanate;Methyl mustard;MIT;Methyl isothiocyanide;MIT (pesticide);Trapex (soil fumigant);Capparin;Isothocyanatomethane",
    "duplicated_cas_no": "1800084-95-0",
    "SMILES": "C(=NC)=S",
    "meta_data": {
        "InChI": "InChI=1S/C2H3NS/c1-3-2-4/h1H3",
        "InChIKey": null,
        "Canonical SMILES": "S=C=NC",
        "Molecular Formula": "C<sub>2</sub>H<sub>3</sub>NS",
        "Molecular Mass": "73.12",
        "Boiling Point": "119 °C",
        "Melting Point": "36 °C",
        "Density": "1.0691 g/cm³ @ Temp: 37 °C"
    }
}