{
    "cas_no": "41202-77-1",
    "key_name": "1-(2,3-Dichlorophenyl)piperazine",
    "cn_name": "1-(2,3-二氯苯基)哌嗪盐酸盐;",
    "alternate_name": "Piperazine, 1-(2,3-dichlorophenyl)-;1-(2,3-Dichlorophenyl)piperazine;<em>N</em>-(2,3-Dichlorophenyl)piperazine;4-(2,3-Dichlorophenyl)piperazine;DCPP",
    "duplicated_cas_no": "",
    "SMILES": "ClC1=C(C=CC=C1Cl)N2CCNCC2",
    "meta_data": {
        "InChI": "InChI=1S/C10H12Cl2N2/c11-8-2-1-3-9(10(8)12)14-6-4-13-5-7-14/h1-3,13H,4-7H2",
        "InChIKey": null,
        "Canonical SMILES": "ClC1=CC=CC(=C1Cl)N2CCNCC2",
        "Molecular Formula": "C<sub>10</sub>H<sub>12</sub>Cl<sub>2</sub>N<sub>2</sub>",
        "Molecular Mass": "231.12",
        "Boiling Point": "128-130 °C @ Press: 0.5 Torr",
        "Melting Point": "239-242 °C"
    }
}