{
    "cas_no": "19947-75-2",
    "key_name": "5-Amino-3,4-dimethylisoxazole",
    "cn_name": "5-氨基-3,4-二甲基异噁唑;",
    "alternate_name": "5-Isoxazolamine, 3,4-dimethyl-;Isoxazole, 5-amino-3,4-dimethyl-;3,4-Dimethyl-5-isoxazolamine;5-Amino-3,4-dimethylisoxazole;3,4-Dimethyl-5-isoxazolylamine;3,4-Dimethyl-5-aminoisoxazole;NSC 143787;3,4-Dimethyl-1,2-oxazol-5-amine",
    "duplicated_cas_no": "",
    "SMILES": "CC=1C(C)=NOC1N",
    "meta_data": {
        "InChI": "InChI=1S/C5H8N2O/c1-3-4(2)7-8-5(3)6/h6H2,1-2H3",
        "InChIKey": null,
        "Canonical SMILES": "N=1OC(N)=C(C1C)C",
        "Molecular Formula": "C<sub>5</sub>H<sub>8</sub>N<sub>2</sub>O",
        "Molecular Mass": "112.13",
        "Melting Point": "125 °C"
    }
}