{
    "cas_no": "154461-65-1",
    "key_name": "(2<em>E</em>)-3-[4-(β-<span class=\"text-smallcaps\">D</span>-Glucopyranosyloxy)-3,5-dimethoxyphenyl]-2-propenal",
    "cn_name": null,
    "alternate_name": "2-Propenal, 3-[4-(β-<span class=\"text-smallcaps\">D</span>-glucopyranosyloxy)-3,5-dimethoxyphenyl]-, (2<em>E</em>)-;2-Propenal, 3-[4-(β-<span class=\"text-smallcaps\">D</span>-glucopyranosyloxy)-3,5-dimethoxyphenyl]-, (<em>E</em>)-;(2<em>E</em>)-3-[4-(β-<span class=\"text-smallcaps\">D</span>-Glucopyranosyloxy)-3,5-dimethoxyphenyl]-2-propenal",
    "duplicated_cas_no": "",
    "SMILES": "O(C1=C(OC)C=C(/C=C/C=O)C=C1OC)[C@@H]2O[C@H](CO)[C@@H](O)[C@H](O)[C@H]2O",
    "meta_data": {
        "InChI": "InChI=1S/C17H22O9/c1-23-10-6-9(4-3-5-18)7-11(24-2)16(10)26-17-15(22)14(21)13(20)12(8-19)25-17/h3-7,12-15,17,19-22H,8H2,1-2H3/b4-3+/t12-,13-,14+,15-,17+/m1/s1",
        "InChIKey": null,
        "Canonical SMILES": "O=CC=CC1=CC(OC)=C(OC2OC(CO)C(O)C(O)C2O)C(OC)=C1",
        "Molecular Formula": "C<sub>17</sub>H<sub>22</sub>O<sub>9</sub>",
        "Molecular Mass": "370.35",
        "Melting Point": "221-223 °C"
    }
}