{
    "cas_no": "52432-72-1",
    "key_name": "Oxeladin citrate",
    "cn_name": null,
    "alternate_name": "Benzeneacetic acid, α,α-diethyl-, 2-[2-(diethylamino)ethoxy]ethyl ester, 2-hydroxy-1,2,3-propanetricarboxylate (1:1);Butyric acid, 2-ethyl-2-phenyl-, 2-(2-diethylaminoethoxy)ethyl ester, citrate;Oxeladin citrate;Oxeladine citrate;Pectamol;Paxeladine;Silopentol;Petcamon;2-(2-(Diethylamino)ethoxy)ethyl 2-ethyl-2-phenylbutanoate 2-hydroxypropane-1,2,3-tricarboxylate;2-(2-Diethylaminoethoxy)-ethyl 2-ethyl-2-phenylbutyrate citrate",
    "duplicated_cas_no": "16485-39-5",
    "SMILES": "C(C(OCCOCCN(CC)CC)=O)(CC)(CC)C1=CC=CC=C1.C(CC(O)=O)(CC(O)=O)(C(O)=O)O",
    "meta_data": {
        "InChI": "InChI=1S/C20H33NO3.C6H8O7/c1-5-20(6-2,18-12-10-9-11-13-18)19(22)24-17-16-23-15-14-21(7-3)8-4;7-3(8)1-6(13,5(11)12)2-4(9)10/h9-13H,5-8,14-17H2,1-4H3;13H,1-2H2,(H,7,8)(H,9,10)(H,11,12)",
        "InChIKey": null,
        "Canonical SMILES": "O=C(O)CC(O)(C(=O)O)CC(=O)O.O=C(OCCOCCN(CC)CC)C(C=1C=CC=CC1)(CC)CC",
        "Molecular Formula": "C<sub>20</sub>H<sub>33</sub>NO<sub>3</sub>.C<sub>6</sub>H<sub>8</sub>O<sub>7</sub>",
        "Molecular Mass": "",
        "Melting Point": "90-91 °C"
    }
}