{
    "cas_no": "13211-31-9",
    "key_name": "<span class=\"text-smallcaps\">L</span>-Valine, 1,1-dimethylethyl ester",
    "cn_name": "L-缬氨酸叔丁酯盐酸盐;",
    "alternate_name": "<span class=\"text-smallcaps\">L</span>-Valine, 1,1-dimethylethyl ester;Valine, <em>tert</em>-butyl ester, <span class=\"text-smallcaps\">L</span>-;<span class=\"text-smallcaps\">L</span>-Valine <em>tert</em>-butyl ester;Valine <em>tert</em>-butyl ester;(<em>S</em>)-Valine <em>tert</em>-butyl ester;<em>tert</em>-Butyl <span class=\"text-smallcaps\">L</span>-valinate;(<em>S</em>)-<em>tert</em>-Butyl 2-amino-3-methylbutanoate;(<em>S</em>)-2-Amino-3-methylbutanoic acid tert-butyl ester;<span class=\"text-smallcaps\">L</span>-Val-OtBu",
    "duplicated_cas_no": "",
    "SMILES": "C([C@H](C(C)C)N)(OC(C)(C)C)=O",
    "meta_data": {
        "InChI": "InChI=1S/C9H19NO2/c1-6(2)7(10)8(11)12-9(3,4)5/h6-7H,10H2,1-5H3/t7-/m0/s1",
        "InChIKey": null,
        "Canonical SMILES": "O=C(OC(C)(C)C)C(N)C(C)C",
        "Molecular Formula": "C<sub>9</sub>H<sub>19</sub>NO<sub>2</sub>",
        "Molecular Mass": "173.25",
        "Boiling Point": "77-78 °C @ Press: 12 Torr"
    }
}