{
    "cas_no": "94535-50-9",
    "key_name": "(-)-Cromakalim",
    "cn_name": null,
    "alternate_name": "2<em>H</em>-1-Benzopyran-6-carbonitrile, 3,4-dihydro-3-hydroxy-2,2-dimethyl-4-(2-oxo-1-pyrrolidinyl)-, (3<em>S</em>,4<em>R</em>)-;2<em>H</em>-1-Benzopyran-6-carbonitrile, 3,4-dihydro-3-hydroxy-2,2-dimethyl-4-(2-oxo-1-pyrrolidinyl)-, (3<em>S</em>-<em>trans</em>)-;(3<em>S</em>,4<em>R</em>)-3,4-Dihydro-3-hydroxy-2,2-dimethyl-4-(2-oxo-1-pyrrolidinyl)-2<em>H</em>-1-benzopyran-6-carbonitrile;(-)-Cromakalim;BRL 38227;Lemakalim;(3<em>S</em>,4<em>R</em>)-(-)-Cromakalim;Levcromakalim;Levkromakalim",
    "duplicated_cas_no": "",
    "SMILES": "O[C@H]1[C@@H](C=2C(OC1(C)C)=CC=C(C#N)C2)N3C(=O)CCC3",
    "meta_data": {
        "InChI": "InChI=1S/C16H18N2O3/c1-16(2)15(20)14(18-7-3-4-13(18)19)11-8-10(9-17)5-6-12(11)21-16/h5-6,8,14-15,20H,3-4,7H2,1-2H3/t14-,15+/m1/s1",
        "InChIKey": null,
        "Canonical SMILES": "N#CC1=CC=C2OC(C)(C)C(O)C(C2=C1)N3C(=O)CCC3",
        "Molecular Formula": "C<sub>16</sub>H<sub>18</sub>N<sub>2</sub>O<sub>3</sub>",
        "Molecular Mass": "286.33",
        "Melting Point": "242-244 °C"
    }
}