{
    "cas_no": "2941-66-4",
    "key_name": "2-Methyl-5-nitrobenzothiazole",
    "cn_name": "2-甲基-5-硝基苯并噻唑;2-甲基-5-硝基苯并噻唑,98%;",
    "alternate_name": "Benzothiazole, 2-methyl-5-nitro-;2-Methyl-5-nitrobenzothiazole;2-Methyl-5-nitro-1,3-benzothiazole",
    "duplicated_cas_no": "",
    "SMILES": "N(=O)(=O)C=1C=C2C(=CC1)SC(C)=N2",
    "meta_data": {
        "InChI": "InChI=1S/C8H6N2O2S/c1-5-9-7-4-6(10(11)12)2-3-8(7)13-5/h2-4H,1H3",
        "InChIKey": null,
        "Canonical SMILES": "O=N(=O)C=1C=CC=2SC(=NC2C1)C",
        "Molecular Formula": "C<sub>8</sub>H<sub>6</sub>N<sub>2</sub>O<sub>2</sub>S",
        "Molecular Mass": "194.21",
        "Melting Point": "140 °C"
    }
}