{
    "cas_no": "3897-89-0",
    "key_name": "3,4-Dihydroxybenzyl alcohol",
    "cn_name": "3,4-二羟基苯甲醇;",
    "alternate_name": "1,2-Benzenediol, 4-(hydroxymethyl)-;Benzyl alcohol, 3,4-dihydroxy-;4-(Hydroxymethyl)-1,2-benzenediol;Protocatechuyl alcohol;4-Hydroxymethylpyrocatechol;3,4-Dihydroxybenzyl alcohol;4,5-Dihydroxybenzyl alcohol;NSC 355645;4-Hydroxymethylcatechol",
    "duplicated_cas_no": "",
    "SMILES": "C(O)C1=CC(O)=C(O)C=C1",
    "meta_data": {
        "InChI": "InChI=1S/C7H8O3/c8-4-5-1-2-6(9)7(10)3-5/h1-3,8-10H,4H2",
        "InChIKey": null,
        "Canonical SMILES": "OC1=CC=C(C=C1O)CO",
        "Molecular Formula": "C<sub>7</sub>H<sub>8</sub>O<sub>3</sub>",
        "Molecular Mass": "140.14",
        "Melting Point": "115-116 °C"
    }
}