{
    "cas_no": "14352-61-5",
    "key_name": "Cyclohexaneacetic acid, methyl ester",
    "cn_name": "环己基乙酸甲酯;",
    "alternate_name": "Cyclohexaneacetic acid, methyl ester;Methyl cyclohexaneacetate;NSC 68511;Cyclohexylacetic acid methyl ester",
    "duplicated_cas_no": "",
    "SMILES": "C(C(OC)=O)C1CCCCC1",
    "meta_data": {
        "InChI": "InChI=1S/C9H16O2/c1-11-9(10)7-8-5-3-2-4-6-8/h8H,2-7H2,1H3",
        "InChIKey": null,
        "Canonical SMILES": "O=C(OC)CC1CCCCC1",
        "Molecular Formula": "C<sub>9</sub>H<sub>16</sub>O<sub>2</sub>",
        "Molecular Mass": "156.22",
        "Boiling Point": "85-87 °C @ Press: 25 Torr"
    }
}