{
    "cas_no": "149-64-4",
    "key_name": "Buscopan",
    "cn_name": "丁溴东莨菪碱;溴丁东莨菪碱;",
    "alternate_name": "3-Oxa-9-azoniatricyclo[3.3.1.0<sup>2,4</sup>]nonane, 9-butyl-7-[(2<em>S</em>)-3-hydroxy-1-oxo-2-phenylpropoxy]-9-methyl-, bromide (1:1), (1α,2β,4β,5α,7β)-;1α<span class=\"text-smallcaps\">H</smallcap>,5α<smallcap>H</span>-Tropanium, 8-butyl-6β,7β-epoxy-3α-hydroxy-, bromide, (-)-tropate;3-Oxa-9-azoniatricyclo[3.3.1.0<sup>2,4</sup>]nonane, 9-butyl-7-(3-hydroxy-1-oxo-2-phenylpropoxy)-9-methyl-, bromide, [7(<em>S</em>)-(1α,2β,4β,5α,7β)]-;<em>N</em>-Butylscopolammonium bromide;3-Oxa-9-azoniatricyclo[3.3.1.0<sup>2,4</sup>]nonane, 9-butyl-7-[(2<em>S</em>)-3-hydroxy-1-oxo-2-phenylpropoxy]-9-methyl-, bromide, (1α,2β,4β,5α,7β)-;Tropic acid, (-)-, ester with 8-butyl-6β,7β-epoxy-3α-hydroxy-1α<span class=\"text-smallcaps\">H</smallcap>,5α<smallcap>H</span>-tropanium bromide;Buscapine;Buscopan;<em>N</em>-Butylhyoscine bromide;Scobutyl;Scopolamine butyl bromide;Buscolysine;Joscine;<em>N</em>-Butylhyoscinium bromide;Butylscopolamine bromide;Hyoscine butyl bromide;<em>N</em>-Butylscopolamine bromide;Scobutil;Butylscopolammonium bromide;Buscolysin;Scopolamine butobromide;Hyoscine butobromide;<em>N</em>-Butylscopolaminium bromide;Scopolamine-<em>N</em>-butyl bromide;Scopolamine bromobutylate;Amisepan;Buscol;Buscolamin;Butylmin;Donopon;Monospan;Scobro;Scobron;Sparicon;Sporamin;Stibron;Tirantil;Scopolan;(-)-Scopolamine butylbromide;Sporamin (pharmaceutical);MeSH ID: D002086",
    "duplicated_cas_no": "127420-71-7;22626-85-3;38533-48-1;53832-48-7",
    "SMILES": "C(CCC)[N+]1(C)[C@]2([C@@]3([C@@](O3)([C@@]1(C[C@H](OC([C@H](CO)C4=CC=CC=C4)=O)C2)[H])[H])[H])[H].[Br-]",
    "meta_data": {
        "InChI": "InChI=1S/C21H30NO4.BrH/c1-3-4-10-22(2)17-11-15(12-18(22)20-19(17)26-20)25-21(24)16(13-23)14-8-6-5-7-9-14;/h5-9,15-20,23H,3-4,10-13H2,1-2H3;1H/q+1;/p-1/t15-,16-,17-,18+,19-,20+,22?;/m1./s1",
        "InChIKey": null,
        "Canonical SMILES": "[Br-].O=C(OC1CC2C3OC3C(C1)[N+]2(C)CCCC)C(C=4C=CC=CC4)CO",
        "Molecular Formula": "C<sub>21</sub>H<sub>30</sub>NO<sub>4</sub>.Br",
        "Molecular Mass": "",
        "Melting Point": "143 °C"
    }
}