{
    "cas_no": "496-41-3",
    "key_name": "2-Benzofurancarboxylic acid",
    "cn_name": "苯并呋喃-2-羧酸;苯并呋喃-2-甲酸;香豆基酸;",
    "alternate_name": "2-Benzofurancarboxylic acid;Coumarilic acid;2-Carboxybenzofuran;Coumarone-2-carboxylic acid;Benzo[<em>b</em>]furan-2-carboxylic acid;1-Benzofuran-2-carboxylic acid;NSC 6165;2,3-Benzofuran-2-carboxylic acid;Benzofuran-2-carboxylic acid",
    "duplicated_cas_no": "",
    "SMILES": "C(O)(=O)C1=CC=2C(O1)=CC=CC2",
    "meta_data": {
        "InChI": "InChI=1S/C9H6O3/c10-9(11)8-5-6-3-1-2-4-7(6)12-8/h1-5H,(H,10,11)",
        "InChIKey": null,
        "Canonical SMILES": "O=C(O)C=1OC=2C=CC=CC2C1",
        "Molecular Formula": "C<sub>9</sub>H<sub>6</sub>O<sub>3</sub>",
        "Molecular Mass": "162.14",
        "Boiling Point": "312.5 °C",
        "Melting Point": "192.5 °C"
    }
}