{
    "cas_no": "627-19-0",
    "key_name": "1-Pentyne",
    "cn_name": "1-戊炔;丙基乙炔;",
    "alternate_name": "1-Pentyne;1-Pentine;Propylacetylene",
    "duplicated_cas_no": "",
    "SMILES": "C(CC)C#C",
    "meta_data": {
        "InChI": "InChI=1S/C5H8/c1-3-5-4-2/h1H,4-5H2,2H3",
        "InChIKey": null,
        "Canonical SMILES": "C#CCCC",
        "Molecular Formula": "C<sub>5</sub>H<sub>8</sub>",
        "Molecular Mass": "68.12",
        "Boiling Point": "40.1 °C",
        "Melting Point": "-90 °C",
        "Density": "0.6945 g/cm³ @ Temp: 20 °C"
    }
}