{
    "cas_no": "13440-24-9",
    "key_name": "<em>meso</em>-1,2-Dibromo-1,2-diphenylethane",
    "cn_name": null,
    "alternate_name": "Benzene, 1,1′-[(1<em>R</em>,2<em>S</em>)-1,2-dibromo-2-phenylethyl]-, <em>rel</em>-;Bibenzyl, α,α′-dibromo-, <em>meso</em>-;Benzene, 1,1′-(1,2-dibromo-1,2-ethanediyl)bis-, (<em>R</em>*,<em>S</em>*)-;<em>rel</em>-1,1′-[(1<em>R</em>,2<em>S</em>)-1,2-Dibromo-2-phenylethyl]benzene;<em>meso</em>-Dibromostilbene;<em>meso</em>-1,2-Dibromo-1,2-diphenylethane;<em>meso</em>-Stilbene dibromide;<em>meso</em>-α,β-Dibromostilbene;<em>erythro</em>-1,2-Dibromo-1,2-diphenylethane",
    "duplicated_cas_no": "",
    "SMILES": "[C@H]([C@H](Br)C1=CC=CC=C1)(Br)C2=CC=CC=C2",
    "meta_data": {
        "InChI": "InChI=1/C14H12Br2/c15-13(11-7-3-1-4-8-11)14(16)12-9-5-2-6-10-12/h1-10,13-14H/t13-,14+",
        "InChIKey": null,
        "Canonical SMILES": "BrC(C=1C=CC=CC1)C(Br)C=2C=CC=CC2",
        "Molecular Formula": "C<sub>14</sub>H<sub>12</sub>Br<sub>2</sub>",
        "Molecular Mass": "340.05",
        "Melting Point": "236-237 °C"
    }
}