{
    "cas_no": "96-45-7",
    "key_name": "Ethylenethiourea",
    "cn_name": "1,2-亚乙基硫脲;乙撑硫脲;乙烯硫脲;橡胶硫化促进剂ETU;促进剂NA-22;",
    "alternate_name": "2-Imidazolidinethione;Imidazoline-2-thiol;Ethylenethiourea;<em>N</em>,<em>N</em>′-Ethylenethiourea;Warecure C;Thiourea, <em>N</em>,<em>N</em>′-1,2-ethanediyl-;NA 22;Tetrahydro-2<em>H</em>-imidazole-2-thione;Imidazoline-2(3<em>H</em>)-thione;2-Mercaptoimidazoline;Imidazolidinethione;Mercaptoimidazoline;2-Mercapto-2-imidazoline;2-Imidazoline-2-thiol;4,5-Dihydro-2-mercaptoimidazole;Rhodanin S 62;1,3-Ethylenethiourea;Pennac CRA;ETU;Mercazin I;Rhenogran ETU;Vulkacit NPV/C;Soxinol 22;Nocceler 22;2-Thioimidazolidine;Accel 22;Accel 22S;Sanceler 22;Sanceler 22C;2-Mercapto-4,5-dihydroimidazole;Ethylenethiocarbamide;ETC;END 75;Sanceler 22S;ETU 22S;ETU 80;Rhenogran ETU 80;TU 2;Sanmix 22-80E;Rhenogran ETU 75;ETU 75;Accelerator ETU;Accelerator NA 22;Rhenocure NPV/C;MeSH ID: D005031",
    "duplicated_cas_no": "96-46-8;12261-94-8;26856-29-1;71836-04-9;90613-75-5;875479-38-2;1342300-13-3",
    "SMILES": "S=C1NCCN1",
    "meta_data": {
        "InChI": "InChI=1S/C3H6N2S/c6-3-4-1-2-5-3/h1-2H2,(H2,4,5,6)",
        "InChIKey": null,
        "Canonical SMILES": "S=C1NCCN1",
        "Molecular Formula": "C<sub>3</sub>H<sub>6</sub>N<sub>2</sub>S",
        "Molecular Mass": "102.16",
        "Boiling Point": "347.18 °C",
        "Melting Point": "199-204 °C"
    }
}