{
    "cas_no": "82576-75-8",
    "key_name": "HC Violet 1",
    "cn_name": "2-[(4-氨基-2-甲基-5-硝基苯基)氨基]乙醇;",
    "alternate_name": "Ethanol, 2-[(4-amino-2-methyl-5-nitrophenyl)amino]-;2-[(4-Amino-2-methyl-5-nitrophenyl)amino]ethanol;HC Violet 1;HC Violet No. 1;2-(4-Amino-2-methyl-5-nitroanilino)ethanol",
    "duplicated_cas_no": "",
    "SMILES": "N(=O)(=O)C1=C(N)C=C(C)C(NCCO)=C1",
    "meta_data": {
        "InChI": "InChI=1S/C9H13N3O3/c1-6-4-7(10)9(12(14)15)5-8(6)11-2-3-13/h4-5,11,13H,2-3,10H2,1H3",
        "InChIKey": null,
        "Canonical SMILES": "O=N(=O)C=1C=C(NCCO)C(=CC1N)C",
        "Molecular Formula": "C<sub>9</sub>H<sub>13</sub>N<sub>3</sub>O<sub>3</sub>",
        "Molecular Mass": "211.22",
        "Melting Point": "139-140 °C"
    }
}