{
    "cas_no": "60736-71-2",
    "key_name": "4-Methoxy-3-methylbenzyl chloride",
    "cn_name": "4-甲氧基-3-甲基苯甲基氯;",
    "alternate_name": "Benzene, 4-(chloromethyl)-1-methoxy-2-methyl-;Anisole, 4-(chloromethyl)-2-methyl-;4-(Chloromethyl)-1-methoxy-2-methylbenzene;4-Methoxy-3-methylbenzyl chloride;2-Methyl-4-(chloromethyl)anisole;3-Methyl-4-methoxybenzyl chloride",
    "duplicated_cas_no": "",
    "SMILES": "C(Cl)C1=CC(C)=C(OC)C=C1",
    "meta_data": {
        "InChI": "InChI=1S/C9H11ClO/c1-7-5-8(6-10)3-4-9(7)11-2/h3-5H,6H2,1-2H3",
        "InChIKey": null,
        "Canonical SMILES": "ClCC1=CC=C(OC)C(=C1)C",
        "Molecular Formula": "C<sub>9</sub>H<sub>11</sub>ClO",
        "Molecular Mass": "170.64",
        "Boiling Point": "119 °C @ Press: 12 Torr",
        "Density": "1.13 g/cm³ @ Temp: 20 °C"
    }
}