{
    "cas_no": "23978-55-4",
    "key_name": "Diaza-18-crown-6",
    "cn_name": "1,4,10,13-四氧杂-7,16-二氮杂环十八烷;1,10-二氮杂-18-冠醚-6;",
    "alternate_name": "1,4,10,13-Tetraoxa-7,16-diazacyclooctadecane;1,7,10,16-Tetraoxa-4,13-diazacyclooctadecane;Kryptofix[2.2];Kryptand[2.2];Kryptofix 22;Cryptand 22;1,10-Diaza-4,7,13,16-tetraoxa-18-crown-6;1,10-Diaza-18-crown-6;1,10-Diaza-4,7,13,16-tetraoxacyclooctadecane;4,13-Diaza-18-crown-6;7,16-Diaza-1,4,10,13-tetraoxacyclooctadecane;2,2′-Kryptofix;Diaza crown ether 22;Crytand[2,2];7,16-Diaza-18-crown-6;1,10-Diaza-18-crown ether;Cryptand(2.2);Diaza-18-crown-6;NSC 339325;4,7,13,16-Tetraoxa-1,10-diazacyclooctadecane;4,13-Diaza-18-crown-6-ether;1,10-Diaza-4,7,13,16,24,24-hexaoxabicyclo[8.8.8]hexacontane",
    "duplicated_cas_no": "97760-34-4",
    "SMILES": "C1COCCOCCNCCOCCOCCN1",
    "meta_data": {
        "InChI": "InChI=1S/C12H26N2O4/c1-5-15-9-10-17-7-3-14-4-8-18-12-11-16-6-2-13-1/h13-14H,1-12H2",
        "InChIKey": null,
        "Canonical SMILES": "O1CCOCCNCCOCCOCCNCC1",
        "Molecular Formula": "C<sub>12</sub>H<sub>26</sub>N<sub>2</sub>O<sub>4</sub>",
        "Molecular Mass": "262.35",
        "Melting Point": "115-116 °C",
        "Density": "1.11 g/cm³"
    }
}