{
    "cas_no": "930-68-7",
    "key_name": "2-Cyclohexen-1-one",
    "cn_name": "2-环己烯-1-酮;2-环己烯酮;",
    "alternate_name": "2-Cyclohexen-1-one;2-Cyclohexenone;1-Cyclohexen-3-one;3-Oxocyclohexene;NSC 59710;Cyclohexen-3-one;Cyclohexenone",
    "duplicated_cas_no": "",
    "SMILES": "O=C1CCCC=C1",
    "meta_data": {
        "InChI": "InChI=1S/C6H8O/c7-6-4-2-1-3-5-6/h2,4H,1,3,5H2",
        "InChIKey": null,
        "Canonical SMILES": "O=C1C=CCCC1",
        "Molecular Formula": "C<sub>6</sub>H<sub>8</sub>O",
        "Molecular Mass": "96.13",
        "Boiling Point": "170 °C",
        "Melting Point": "-53 °C",
        "Density": "0.986 g/cm³ @ Temp: 20 °C"
    }
}