{
    "cas_no": "13073-35-3",
    "key_name": "<span class=\"text-smallcaps\">L</span>-Ethionine",
    "cn_name": "L-乙硫氨酸;L-乙硫氨基酪酸;L-乙硫氨基丁酸;L-乙基硫氨酸;L-乙硫基丁氨酸;",
    "alternate_name": "<span class=\"text-smallcaps\">L</span>-Homocysteine, <em>S</em>-ethyl-;Butyric acid, 2-amino-4-(ethylthio)-, <span class=\"text-smallcaps\">L</span>-;<em>S</em>-Ethyl-<span class=\"text-smallcaps\">L</span>-homocysteine;<span class=\"text-smallcaps\">L</span>-Ethionine;Ethionine;Butanoic acid, 2-amino-4-(ethylthio)-, (<em>S</em>)-;<em>S</em>-Ethylhomocysteine;ETH;NSC 82393;(2S)-2-Amino-4-(ethylsulfanyl)butanoic acid;(2S)-2-Azaniumyl-4-ethylsulfanylbutanoate",
    "duplicated_cas_no": "55-17-4;89955-21-5",
    "SMILES": "[C@H](CCSCC)(C(O)=O)N",
    "meta_data": {
        "InChI": "InChI=1S/C6H13NO2S/c1-2-10-4-3-5(7)6(8)9/h5H,2-4,7H2,1H3,(H,8,9)/t5-/m0/s1",
        "InChIKey": null,
        "Canonical SMILES": "O=C(O)C(N)CCSCC",
        "Molecular Formula": "C<sub>6</sub>H<sub>13</sub>NO<sub>2</sub>S",
        "Molecular Mass": "163.24",
        "Melting Point": "272-274 °C (decomp)"
    }
}