{
    "cas_no": "107-73-3",
    "key_name": "Phosphocholine",
    "cn_name": "磷酸胆碱;磷酸胆碱;",
    "alternate_name": "Ethanaminium, <em>N</em>,<em>N</em>,<em>N</em>-trimethyl-2-(phosphonooxy)-, chloride (1:1);Ethanaminium, <em>N</em>,<em>N</em>,<em>N</em>-trimethyl-2-(phosphonooxy)-, chloride;Choline, chloride, dihydrogen phosphate;Choline phosphate chloride;Choline phosphochloride;Phosphorylcholine chloride;Phosphorylcholine hydrochloride;Choline phosphate;Phosphorylcholine;Phosphocholine;Phosphocholine chloride;MeSH ID: D010767",
    "duplicated_cas_no": "109114-04-7;123200-23-7",
    "SMILES": "C([N+](C)(C)C)COP(=O)(O)O.[Cl-]",
    "meta_data": {
        "InChI": "InChI=1S/C5H14NO4P.ClH/c1-6(2,3)4-5-10-11(7,8)9;/h4-5H2,1-3H3,(H-,7,8,9);1H",
        "InChIKey": null,
        "Canonical SMILES": "[Cl-].O=P(O)(O)OCC[N+](C)(C)C",
        "Molecular Formula": "C<sub>5</sub>H<sub>15</sub>NO<sub>4</sub>P.Cl",
        "Molecular Mass": "",
        "Boiling Point": "103 °C @ Press: 12 Torr",
        "Melting Point": "108-111 °C (decomp)"
    }
}