{
    "cas_no": "309-00-2",
    "key_name": "Aldrin",
    "cn_name": null,
    "alternate_name": "1,4:5,8-Dimethanonaphthalene, 1,2,3,4,10,10-hexachloro-1,4,4a,5,8,8a-hexahydro-, (1<em>R</em>,4<em>S</em>,4a<em>S</em>,5<em>S</em>,8<em>R</em>,8a<em>R</em>)-<em>rel</em>-;1,4:5,8-Dimethanonaphthalene, 1,2,3,4,10,10-hexachloro-1,4,4a,5,8,8a-hexahydro-, (1α,4α,4aβ,5α,8α,8aβ)-;1,4:5,8-Dimethanonaphthalene, 1,2,3,4,10,10-hexachloro-1,4,4a,5,8,8a-hexahydro-, <em>endo</em>,<em>exo</em>-;<em>rel</em>-(1<em>R</em>,4<em>S</em>,4a<em>S</em>,5<em>S</em>,8<em>R</em>,8a<em>R</em>)-1,2,3,4,10,10-Hexachloro-1,4,4a,5,8,8a-hexahydro-1,4:5,8-dimethanonaphthalene;ENT 15,949;Aldrin;Compound 118;1,2,3,4,10,10-Hexachloro-1,4,4a,5,8,8a-hexahydro-1,4-<em>endo</em>-<em>exo</em>-5,8-dimethanonaphthalene;1,2,3,4,10,10-Hexachloro-1,4,4a,5,8,8a-hexahydro-<em>endo</em>-1,4-<em>exo</em>-5,8-dimethanonaphthalene;HHDN;Octalene;Seedrin;Tatuzinho;SD 2794;Aldocit;Kortofin;Aldrex 40;Aldrex 25;Andrex 40;Andrex;Aldrine;MeSH ID: D000452",
    "duplicated_cas_no": "6851-31-6;24562-14-9;34487-55-3",
    "SMILES": "Cl[C@]12[C@@]3([C@]([C@](Cl)([C@@]1(Cl)Cl)C(Cl)=C2Cl)([C@@]4(C[C@]3(C=C4)[H])[H])[H])[H]",
    "meta_data": {
        "InChI": "InChI=1/C12H8Cl6/c13-8-9(14)11(16)7-5-2-1-4(3-5)6(7)10(8,15)12(11,17)18/h1-2,4-7H,3H2/t4-,5+,6+,7-,10+,11-",
        "InChIKey": null,
        "Canonical SMILES": "ClC1=C(Cl)C2(Cl)C3C4C=CC(C4)C3C1(Cl)C2(Cl)Cl",
        "Molecular Formula": "C<sub>12</sub>H<sub>8</sub>Cl<sub>6</sub>",
        "Molecular Mass": "364.91",
        "Boiling Point": "145 °C @ Press: 2 Torr",
        "Melting Point": "104 °C",
        "Density": "1.6 g/cm³"
    }
}