{
    "cas_no": "35943-35-2",
    "key_name": "Triciribine",
    "cn_name": "曲西立滨;1,5-二氢-5-甲基-1-beta-D-呋喃核糖基-1,4,5,6,8-五氮杂苊-3-胺;",
    "alternate_name": "1,4,5,6,8-Pentaazaacenaphthylen-3-amine, 1,5-dihydro-5-methyl-1-β-<span class=\"text-smallcaps\">D</span>-ribofuranosyl-;1,5-Dihydro-5-methyl-1-β-<span class=\"text-smallcaps\">D</span>-ribofuranosyl-1,4,5,6,8-pentaazaacenaphthylen-3-amine;6-Amino-4-methyl-8-(β-<span class=\"text-smallcaps\">D</span>-ribofuranosyl)-4<em>H</em>,8<em>H</em>-pyrrolo[4,3,2-<em>de</em>]pyrimido[4,5-<em>c</em>]pyridazine;NSC 154020;Triciribine;TCN;API 2;AKT Inhibitor V;Triciribidine",
    "duplicated_cas_no": "",
    "SMILES": "NC=1C=2C=3C(N(C2)[C@@H]4O[C@H](CO)[C@@H](O)[C@H]4O)=NC=NC3N(C)N1",
    "meta_data": {
        "InChI": "InChI=1S/C13H16N6O4/c1-18-11-7-5(10(14)17-18)2-19(12(7)16-4-15-11)13-9(22)8(21)6(3-20)23-13/h2,4,6,8-9,13,20-22H,3H2,1H3,(H2,14,17)/t6-,8-,9-,13-/m1/s1",
        "InChIKey": null,
        "Canonical SMILES": "OCC1OC(N2C=C3C(=NN(C=4N=CN=C2C43)C)N)C(O)C1O",
        "Molecular Formula": "C<sub>13</sub>H<sub>16</sub>N<sub>6</sub>O<sub>4</sub>",
        "Molecular Mass": "320.30",
        "Melting Point": "205 °C (decomp)"
    }
}