{
    "cas_no": "1127-59-9",
    "key_name": "7-Methylisatin",
    "cn_name": null,
    "alternate_name": "1<em>H</em>-Indole-2,3-dione, 7-methyl-;Indole-2,3-dione, 7-methyl-;Isatin, 7-methyl-;7-Methyl-1<em>H</em>-indole-2,3-dione;7-Methylisatin;7-Methyl-2,3-indolinedione;NSC 3161;7-Methyl-2,3-dihydro-2,3-dioxoindole",
    "duplicated_cas_no": "",
    "SMILES": "O=C1C=2C(=C(C)C=CC2)NC1=O",
    "meta_data": {
        "InChI": "InChI=1S/C9H7NO2/c1-5-3-2-4-6-7(5)10-9(12)8(6)11/h2-4H,1H3,(H,10,11,12)",
        "InChIKey": null,
        "Canonical SMILES": "O=C1NC=2C(=CC=CC2C)C1=O",
        "Molecular Formula": "C<sub>9</sub>H<sub>7</sub>NO<sub>2</sub>",
        "Molecular Mass": "161.16",
        "Melting Point": "267 °C"
    }
}