{
    "cas_no": "26915-72-0",
    "key_name": "Polyethylene glycol methyl ether methacrylate",
    "cn_name": null,
    "alternate_name": "Poly(oxy-1,2-ethanediyl), α-(2-methyl-1-oxo-2-propen-1-yl)-ω-methoxy-;Glycols, polyethylene, monomethacrylate, methyl ether;Poly(oxy-1,2-ethanediyl), α-(2-methyl-1-oxo-2-propenyl)-ω-methoxy-;Methacrylic acid, ester with polyethylene glycol methyl ether;Polyethylene glycol monomethyl ether methacrylate;Polyethylene glycol methyl ether methacrylate;Methoxypolyethylene glycol monomethacrylate;Methoxy polyethylene glycol methacrylate;Polyethylene glycol monomethacrylate methyl ether;Polyethylene glycol methacrylate monomethyl ether;Polyethylene glycol monomethyl ether monomethacrylate;NK Ester M 23G;NK Ester M 9G;Polyethylene glycol methacrylate methyl ether;NK Ester M 1000G;NK Ester M 90G;NK Ester M 100G;Blemmer PME 4000;NK Ester M 230G;NK Ester M 40G;M 90G;M 230G;M 40G;MG 8;Blemmer PME 400;Light Ester 041MA;FA 400M;NK Ester M 230;RMA 300M;MEO 4;RMA 450M;MAE 400;Bisomer MPEG 350MA;PME 200;Blemmer PME 200;Bisomer S 10W;RMA 150M;CD 522;Bisomer S 20W;Light Ester 130MA;Light Ester 041M;NK Ester M 20;Blemmer PME 150;ME 100 (polyoxyalkylene);ME 100;NK Ester M 40GN;NF Bisomer S 20W;CD 550;ME 40;PME 400;PEO 23MA;Light Ester M 230G;Blemmer PME 1000;MPG 130MA;Polyethylene oxide monomethacrylate monomethyl ether;Bisomer MPEG 550MA;Bisomer S 7W;NK Ester M 130G;Norsocryl N 402;Plex 6934;MPEG 550MA;ME 20;ME 200;ME 200 (polyoxyalkylene);ME 20 (polyoxyalkylene);NK Oligo UA 4100;NK Ester M 900G;Bisomer 350;Blemmer PME 550;M 900G;PGM 25E;UA 4100;PME 350;Bisomer MPEG 1000MA;Plex 6850O;Blemmer PME 450;Rohamere 6850O;MPEG 550 methacrylate;CD 552;MPEG 2000MA;Polyethylene glycol monomethacrylate monomethyl ether;Sartomer SR 550;SR 550;CD 550 (polyoxyalkylene);NK Ester TM 230G;NK Ester M 450G;CD 552 (polyoxyalkylene);Blemmer PME 2000;Norsocryl N 405;Norsocryl 405;NF Bisomer S 10W;Plex 6968-0;Plex 6969-0;Plex 6965-0;Oligo(ethylene glycol) methyl ether methacrylate;Fancryl FA 400M;Poly(ethylene oxide) methyl ether methacrylate;MPEG 500MA;PEGMA 1100;NK Ester N 40G;MPEM 400;MPEM 1000;Newfrontier MPEM 400;PEGMMA;Visiomer MPEG 750MAW;Visiomer MPEG 2005MAW;Blemmer AME 4000;OEGMA;PME 1000;MPG 130MAH;PEGMA 950;MPG 056MA70;PME 4000;SR 552;NK Ester M 60G;NK-M 90G;Methoxypolyoxyethylene methacrylate;FM 401;NK Ester TM 40G;PEG 400 methyl ether methacrylate;RMA 450;Fancryl 400M;Fancryl 2000M;MPG 45;Oligo(ethylene oxide) methyl ether methacrylate;Poly(oligo(ethylene oxide) methyl ether methacrylate);Fancryl FA 2000M;FA 2000M;Visiomer MPEG 1005MA;MPEG 400MA;Sartomer 550;P 816114;Visiomer MPEG 5005MAW;P 816112;PGM 6E;Monomethyl polyethylene glycol monomethacrylate;Polyoxyethylene methacrylate;Visiomer MPEG 1005MAW;Miramer M 193;M 130G;M 23G;PME 550;MPEG 1000MA;MPEGMA 750;MPEGMA;O 950;EM 3105;Komerate A 750M;MPEG 600MA",
    "duplicated_cas_no": "78623-21-9;96256-82-5;104491-18-1;106340-32-3;110540-42-6;112352-67-7;115402-22-7;122093-20-3;133184-10-8;136036-18-5;138981-97-2;139091-15-9;142233-43-0;152730-80-8;156932-34-2;161126-65-4;161161-97-3;178602-68-1;180028-35-7;189638-26-4;191940-85-9;218956-80-0;220654-94-4;256488-92-3;292149-01-0;862118-84-1;876930-62-0;1007311-66-1;1184350-93-3;1201671-97-7;1204226-61-8;1268629-75-9;1314884-35-9;1334286-98-4;1345024-39-6;1366268-17-8;1380223-71-1;1597402-87-3;1629242-42-7;1793115-61-3;1847466-43-6;1904595-91-0;2227598-55-0;2231848-59-0;2606032-49-7;2757474-70-5;2789638-62-4",
    "SMILES": "",
    "meta_data": {
        "InChI": "",
        "InChIKey": null,
        "Canonical SMILES": "",
        "Molecular Formula": "(C<sub>2</sub>H<sub>4</sub>O)<sub>n</sub>C<sub>5</sub>H<sub>8</sub>O<sub>2</sub>",
        "Molecular Mass": "",
        "Melting Point": "104-106 °C",
        "Density": "1.105 g/cm³"
    }
}