{
    "cas_no": "3899-90-9",
    "key_name": "Benzenesulfonic acid, 4-methyl-, 3-nitrophenyl ester",
    "cn_name": null,
    "alternate_name": "Benzenesulfonic acid, 4-methyl-, 3-nitrophenyl ester;<em>p</em>-Toluenesulfonic acid, <em>m</em>-nitrophenyl ester;<em>m</em>-Nitrophenyl tosylate;3-Nitrophenyl tosylate;NSC 6905;3-Nitrophenyl 4-methylbenzene-1-sulfonate;3-Nitrophenyl 4-methylbenzenesulfonate",
    "duplicated_cas_no": "",
    "SMILES": "S(OC1=CC(N(=O)=O)=CC=C1)(=O)(=O)C2=CC=C(C)C=C2",
    "meta_data": {
        "InChI": "InChI=1S/C13H11NO5S/c1-10-5-7-13(8-6-10)20(17,18)19-12-4-2-3-11(9-12)14(15)16/h2-9H,1H3",
        "InChIKey": null,
        "Canonical SMILES": "O=N(=O)C=1C=CC=C(OS(=O)(=O)C2=CC=C(C=C2)C)C1",
        "Molecular Formula": "C<sub>13</sub>H<sub>11</sub>NO<sub>5</sub>S",
        "Molecular Mass": "293.30",
        "Melting Point": "112-113 °C"
    }
}