{
    "cas_no": "14205-65-3",
    "key_name": "Ethyl 8-hydroxy-1,3-dioxolo[4,5-<em>g</em>]quinoline-7-carboxylate",
    "cn_name": null,
    "alternate_name": "1,3-Dioxolo[4,5-<em>g</em>]quinoline-7-carboxylic acid, 8-hydroxy-, ethyl ester;Ethyl 8-hydroxy-1,3-dioxolo[4,5-<em>g</em>]quinoline-7-carboxylate;3-(Ethoxycarbonyl)-4-hydroxy-6,7-(methylenedioxy)quinoline;4-Hydroxy-6,7-methylenedioxy-3-quinolinecarboxylic acid ethyl ester",
    "duplicated_cas_no": "",
    "SMILES": "OC1=C2C(C=C3C(=C2)OCO3)=NC=C1C(OCC)=O",
    "meta_data": {
        "InChI": "InChI=1S/C13H11NO5/c1-2-17-13(16)8-5-14-9-4-11-10(18-6-19-11)3-7(9)12(8)15/h3-5H,2,6H2,1H3,(H,14,15)",
        "InChIKey": null,
        "Canonical SMILES": "O=C(OCC)C1=CN=C2C=C3OCOC3=CC2=C1O",
        "Molecular Formula": "C<sub>13</sub>H<sub>11</sub>NO<sub>5</sub>",
        "Molecular Mass": "261.23",
        "Melting Point": "276-281 °C"
    }
}