{
    "cas_no": "17760-13-3",
    "key_name": "Trichloro(trichloromethyl)silane",
    "cn_name": null,
    "alternate_name": "Silane, trichloro(trichloromethyl)-;Trichloro(trichloromethyl)silane;(Trichloromethyl)trichlorosilane",
    "duplicated_cas_no": "",
    "SMILES": "C([Si](Cl)(Cl)Cl)(Cl)(Cl)Cl",
    "meta_data": {
        "InChI": "InChI=1S/CCl6Si/c2-1(3,4)8(5,6)7",
        "InChIKey": null,
        "Canonical SMILES": "ClC(Cl)(Cl)[Si](Cl)(Cl)Cl",
        "Molecular Formula": "CCl<sub>6</sub>Si",
        "Molecular Mass": "252.81",
        "Boiling Point": "155-156 °C",
        "Melting Point": "115 °C"
    }
}