{
    "cas_no": "4122-68-3",
    "key_name": "(4-Chlorophenoxy)acetyl chloride",
    "cn_name": "(4-氯苯氧基)乙酰氯;",
    "alternate_name": "Acetyl chloride, 2-(4-chlorophenoxy)-;Acetyl chloride, (<em>p</em>-chlorophenoxy)-;Acetyl chloride, (4-chlorophenoxy)-;2-(4-Chlorophenoxy)acetyl chloride;(<em>p</em>-Chlorophenoxy)acetyl chloride;(4-Chlorophenoxy)acetyl chloride;(4-Chlorophenoxy)acetic acid chloride;NSC 20549",
    "duplicated_cas_no": "",
    "SMILES": "O(CC(Cl)=O)C1=CC=C(Cl)C=C1",
    "meta_data": {
        "InChI": "InChI=1S/C8H6Cl2O2/c9-6-1-3-7(4-2-6)12-5-8(10)11/h1-4H,5H2",
        "InChIKey": null,
        "Canonical SMILES": "O=C(Cl)COC1=CC=C(Cl)C=C1",
        "Molecular Formula": "C<sub>8</sub>H<sub>6</sub>Cl<sub>2</sub>O<sub>2</sub>",
        "Molecular Mass": "205.04",
        "Boiling Point": "167-174 °C @ Press: 59-61 Torr",
        "Melting Point": "159-161 °C"
    }
}