{
    "cas_no": "591-82-2",
    "key_name": "Isobutyl isothiocyanate",
    "cn_name": "异硫氰酸异丁酯;异丁芥子油;",
    "alternate_name": "Propane, 1-isothiocyanato-2-methyl-;Isothiocyanic acid, isobutyl ester;1-Isothiocyanato-2-methylpropane;Isobutyl isothiocyanate;2-Methyl-1-propyl isothiocyanate;2-Methylpropyl isothiocyanate",
    "duplicated_cas_no": "",
    "SMILES": "C(C(C)C)N=C=S",
    "meta_data": {
        "InChI": "InChI=1S/C5H9NS/c1-5(2)3-6-4-7/h5H,3H2,1-2H3",
        "InChIKey": null,
        "Canonical SMILES": "S=C=NCC(C)C",
        "Molecular Formula": "C<sub>5</sub>H<sub>9</sub>NS",
        "Molecular Mass": "115.20",
        "Boiling Point": "160 °C"
    }
}