{
    "cas_no": "78468-34-5",
    "key_name": "2-Amino-4-nitrobenzenemethanol",
    "cn_name": "2-氨基-4-硝基苯甲醇;",
    "alternate_name": "Benzenemethanol, 2-amino-4-nitro-;2-Amino-4-nitrobenzenemethanol;2-Amino-4-nitrobenzyl alcohol;(2-Amino-4-nitrophenyl)methanol",
    "duplicated_cas_no": "",
    "SMILES": "N(=O)(=O)C1=CC(N)=C(CO)C=C1",
    "meta_data": {
        "InChI": "InChI=1S/C7H8N2O3/c8-7-3-6(9(11)12)2-1-5(7)4-10/h1-3,10H,4,8H2",
        "InChIKey": null,
        "Canonical SMILES": "O=N(=O)C1=CC=C(C(N)=C1)CO",
        "Molecular Formula": "C<sub>7</sub>H<sub>8</sub>N<sub>2</sub>O<sub>3</sub>",
        "Molecular Mass": "168.15",
        "Melting Point": "178-180 °C"
    }
}