{
    "cas_no": "10029-04-6",
    "key_name": "Ethyl 2-(hydroxymethyl)-2-propenoate",
    "cn_name": "2-羟甲基丙烯酸乙酯;",
    "alternate_name": "2-Propenoic acid, 2-(hydroxymethyl)-, ethyl ester;Acrylic acid, 2-(hydroxymethyl)-, ethyl ester;Hydracrylic acid, 2-methylene-, ethyl ester;Ethyl 2-(hydroxymethyl)-2-propenoate;Ethyl α-(hydroxymethyl)acrylate;Ethyl 2-(hydroxymethyl)acrylate;Ethyl α-hydroxymethacrylate;Ethyl 2-hydroxymethyl-2-propenoate;RHMA-E;H 0916;2-(Hydroxymethyl)acrylic acid ethyl ester;Ethyl 2-hydroxymethacrylate",
    "duplicated_cas_no": "",
    "SMILES": "C(C(CO)=C)(OCC)=O",
    "meta_data": {
        "InChI": "InChI=1S/C6H10O3/c1-3-9-6(8)5(2)4-7/h7H,2-4H2,1H3",
        "InChIKey": null,
        "Canonical SMILES": "O=C(OCC)C(=C)CO",
        "Molecular Formula": "C<sub>6</sub>H<sub>10</sub>O<sub>3</sub>",
        "Molecular Mass": "130.14",
        "Boiling Point": "55-60 °C @ Press: 1 Torr"
    }
}