{
    "cas_no": "3815-86-9",
    "key_name": "Malonic dihydrazide",
    "cn_name": "丙二酰肼;丙二酸二酰肼;",
    "alternate_name": "Propanedioic acid, 1,3-dihydrazide;Malonic acid, dihydrazide;Propanedioic acid, dihydrazide;Malonyl dihydrazide;Malonyl hydrazide;Malonhydrazide;Malonic acid hydrazide;Malonic dihydrazide;Malonoyl dihydrazine;Malondihydrazide;NSC 649;MDH",
    "duplicated_cas_no": "",
    "SMILES": "C(C(NN)=O)C(NN)=O",
    "meta_data": {
        "InChI": "InChI=1S/C3H8N4O2/c4-6-2(8)1-3(9)7-5/h1,4-5H2,(H,6,8)(H,7,9)",
        "InChIKey": null,
        "Canonical SMILES": "O=C(NN)CC(=O)NN",
        "Molecular Formula": "C<sub>3</sub>H<sub>8</sub>N<sub>4</sub>O<sub>2</sub>",
        "Molecular Mass": "132.12",
        "Melting Point": "154 °C"
    }
}