{
    "cas_no": "6483-15-4",
    "key_name": "(-)-Sophocarpine",
    "cn_name": "槐果碱;",
    "alternate_name": "1<em>H</em>,5<em>H</em>,10<em>H</em>-Dipyrido[2,1-<em>f</em>:3′,2′,1′-<em>ij</em>][1,6]naphthyridin-10-one, 2,3,6,7,7a,8,13,13a,13b,13c-decahydro-, (7a<em>S</em>,13a<em>R</em>,13b<em>R</em>,13c<em>S</em>)-;Sophocarpine;Matridin-15-one, 13,14-didehydro-;(7a<em>S</em>,13a<em>R</em>,13b<em>R</em>,13c<em>S</em>)-2,3,6,7,7a,8,13,13a,13b,13c-Decahydro-1<em>H</em>,5<em>H</em>,10<em>H</em>-dipyrido[2,1-<em>f</em>:3′,2′,1′-<em>ij</em>][1,6]naphthyridin-10-one;(-)-Sophocarpine;13,14-Dehydromatrine;13,14-Didehydromatrine;1<em>H</em>,5<em>H</em>,10<em>H</em>-Dipyrido[2,1-<em>f</em>:3′,2′,1′-<em>ij</em>][1,6]naphthyridin-10-one, 2,3,6,7,7a,8,13,13a,13b,13c-decahydro-, [7a<em>S</em>-(7aα,13aβ,13bα,13cα)]-;1<em>H</em>,5<em>H</em>,10<em>H</em>-Dipyrido[2,1-<em>f</em>:3′,2′,1′-<em>ij</em>][1,6]naphthyridin-10-one 2,3,6,7,7a,8,13,13a,13b,13c-decahydro-, (7aS,13aR,13bR,13cS)-",
    "duplicated_cas_no": "21914-57-8;478614-26-5",
    "SMILES": "O=C1N2[C@@]([C@@]3([C@@]4([C@](C2)(CCCN4CCC3)[H])[H])[H])(CC=C1)[H]",
    "meta_data": {
        "InChI": "InChI=1S/C15H22N2O/c18-14-7-1-6-13-12-5-3-9-16-8-2-4-11(15(12)16)10-17(13)14/h1,7,11-13,15H,2-6,8-10H2/t11-,12+,13+,15-/m0/s1",
        "InChIKey": null,
        "Canonical SMILES": "O=C1C=CCC2N1CC3CCCN4CCCC2C43",
        "Molecular Formula": "C<sub>15</sub>H<sub>22</sub>N<sub>2</sub>O",
        "Molecular Mass": "246.35",
        "Boiling Point": "170-210 °C @ Press: 5 Torr",
        "Melting Point": "54-55 °C"
    }
}