{
    "cas_no": "56057-25-1",
    "key_name": "1,3-Dihydro-7-methyl-2<em>H</em>-pyrrolo[3,2-<em>b</em>]pyridin-2-one",
    "cn_name": null,
    "alternate_name": "2<em>H</em>-Pyrrolo[3,2-<em>b</em>]pyridin-2-one, 1,3-dihydro-7-methyl-;1,3-Dihydro-7-methyl-2<em>H</em>-pyrrolo[3,2-<em>b</em>]pyridin-2-one",
    "duplicated_cas_no": "",
    "SMILES": "CC1=C2C(CC(=O)N2)=NC=C1",
    "meta_data": {
        "InChI": "InChI=1S/C8H8N2O/c1-5-2-3-9-6-4-7(11)10-8(5)6/h2-3H,4H2,1H3,(H,10,11)",
        "InChIKey": null,
        "Canonical SMILES": "O=C1NC=2C(=NC=CC2C)C1",
        "Molecular Formula": "C<sub>8</sub>H<sub>8</sub>N<sub>2</sub>O",
        "Molecular Mass": "148.16",
        "Melting Point": "264 °C (decomp)"
    }
}