{
    "cas_no": "7292-16-2",
    "key_name": "Propaphos",
    "cn_name": null,
    "alternate_name": "Phosphoric acid, 4-(methylthio)phenyl dipropyl ester;Phosphoric acid, <em>p</em>-(methylthio)phenyl dipropyl ester;Propaphos;<em>O</em>,<em>O</em>-Dipropyl <em>O</em>-4-methylthiophenyl phosphate;Kayaphos;Kayphosnac",
    "duplicated_cas_no": "",
    "SMILES": "P(OC1=CC=C(SC)C=C1)(OCCC)(OCCC)=O",
    "meta_data": {
        "InChI": "InChI=1S/C13H21O4PS/c1-4-10-15-18(14,16-11-5-2)17-12-6-8-13(19-3)9-7-12/h6-9H,4-5,10-11H2,1-3H3",
        "InChIKey": null,
        "Canonical SMILES": "O=P(OC1=CC=C(SC)C=C1)(OCCC)OCCC",
        "Molecular Formula": "C<sub>13</sub>H<sub>21</sub>O<sub>4</sub>PS",
        "Molecular Mass": "304.34",
        "Boiling Point": "175-177 °C @ Press: 0.85 Torr",
        "Melting Point": "&lt;25 °C",
        "Density": "1.1504 g/cm³ @ Temp: 20 °C"
    }
}