{
    "cas_no": "53242-88-9",
    "key_name": "4-[(4-Chlorophenyl)methyl]-1(2<em>H</em>)-phthalazinone",
    "cn_name": "4-(4-氯苄基)-1-(2H)-酞嗪酮;",
    "alternate_name": "1(2<em>H</em>)-Phthalazinone, 4-[(4-chlorophenyl)methyl]-;1(2<em>H</em>)-Phthalazinone, 4-<em>p</em>-chlorobenzyl-;4-[(4-Chlorophenyl)methyl]-1(2<em>H</em>)-phthalazinone;4-(4-Chlorobenzyl)-1(2<em>H</em>)-phthalazinone",
    "duplicated_cas_no": "",
    "SMILES": "C(C=1C=2C(C(=O)NN1)=CC=CC2)C3=CC=C(Cl)C=C3",
    "meta_data": {
        "InChI": "InChI=1S/C15H11ClN2O/c16-11-7-5-10(6-8-11)9-14-12-3-1-2-4-13(12)15(19)18-17-14/h1-8H,9H2,(H,18,19)",
        "InChIKey": null,
        "Canonical SMILES": "O=C1NN=C(C=2C=CC=CC12)CC3=CC=C(Cl)C=C3",
        "Molecular Formula": "C<sub>15</sub>H<sub>11</sub>ClN<sub>2</sub>O",
        "Molecular Mass": "270.71",
        "Melting Point": "206-207 °C"
    }
}