{
    "cas_no": "2314-48-9",
    "key_name": "Dimethyl trithiocarbonate",
    "cn_name": "三硫代碳酸二甲酯;三硫代碳酸二甲酯;",
    "alternate_name": "Carbonotrithioic acid, dimethyl ester;Carbonic acid, trithio-, dimethyl ester;Dimethyl trithiocarbonate",
    "duplicated_cas_no": "",
    "SMILES": "C(SC)(SC)=S",
    "meta_data": {
        "InChI": "InChI=1S/C3H6S3/c1-5-3(4)6-2/h1-2H3",
        "InChIKey": null,
        "Canonical SMILES": "S=C(SC)SC",
        "Molecular Formula": "C<sub>3</sub>H<sub>6</sub>S<sub>3</sub>",
        "Molecular Mass": "138.27",
        "Boiling Point": "63-65 °C @ Press: 0.1 Torr",
        "Melting Point": "219-220 °C"
    }
}