{
    "cas_no": "18143-30-1",
    "key_name": "2-(Trimethylsilyl)ethanethiol",
    "cn_name": null,
    "alternate_name": "Ethanethiol, 2-(trimethylsilyl)-;2-(Trimethylsilyl)ethanethiol;2-Mercaptoethyltrimethylsilane;2-Trimethylsilanyl-ethanethiol;2-(Trimethylsilyl)ethane-1-thiol",
    "duplicated_cas_no": "",
    "SMILES": "C([Si](C)(C)C)CS",
    "meta_data": {
        "InChI": "InChI=1S/C5H14SSi/c1-7(2,3)5-4-6/h6H,4-5H2,1-3H3",
        "InChIKey": null,
        "Canonical SMILES": "SCC[Si](C)(C)C",
        "Molecular Formula": "C<sub>5</sub>H<sub>14</sub>SSi",
        "Molecular Mass": "134.32",
        "Boiling Point": "62-63 °C @ Press: 43 Torr",
        "Density": "0.8488 g/cm³ @ Temp: 20 °C"
    }
}