{
    "cas_no": "98105-79-4",
    "key_name": "7-Chloro-6-fluoro-1-(4-fluorophenyl)-1,4-dihydro-4-oxo-3-quinolinecarboxylic acid",
    "cn_name": null,
    "alternate_name": "3-Quinolinecarboxylic acid, 7-chloro-6-fluoro-1-(4-fluorophenyl)-1,4-dihydro-4-oxo-;7-Chloro-6-fluoro-1-(4-fluorophenyl)-1,4-dihydro-4-oxo-3-quinolinecarboxylic acid",
    "duplicated_cas_no": "",
    "SMILES": "C(O)(=O)C1=CN(C=2C(C1=O)=CC(F)=C(Cl)C2)C3=CC=C(F)C=C3",
    "meta_data": {
        "InChI": "InChI=1S/C16H8ClF2NO3/c17-12-6-14-10(5-13(12)19)15(21)11(16(22)23)7-20(14)9-3-1-8(18)2-4-9/h1-7H,(H,22,23)",
        "InChIKey": null,
        "Canonical SMILES": "O=C(O)C1=CN(C2=CC=C(F)C=C2)C3=CC(Cl)=C(F)C=C3C1=O",
        "Molecular Formula": "C<sub>16</sub>H<sub>8</sub>ClF<sub>2</sub>NO<sub>3</sub>",
        "Molecular Mass": "335.69",
        "Melting Point": "260-263 °C"
    }
}