{
    "cas_no": "85952-30-3",
    "key_name": "3,4-Dichlorophenylmethanesulfonyl chloride",
    "cn_name": null,
    "alternate_name": "Benzenemethanesulfonyl chloride, 3,4-dichloro-;3,4-Dichlorobenzenemethanesulfonyl chloride;3,4-Dichlorophenylmethanesulfonyl chloride;1-(3,4-Dichlorophenyl)methanesulfonyl chloride",
    "duplicated_cas_no": "",
    "SMILES": "C(S(Cl)(=O)=O)C1=CC(Cl)=C(Cl)C=C1",
    "meta_data": {
        "InChI": "InChI=1S/C7H5Cl3O2S/c8-6-2-1-5(3-7(6)9)4-13(10,11)12/h1-3H,4H2",
        "InChIKey": null,
        "Canonical SMILES": "O=S(=O)(Cl)CC1=CC=C(Cl)C(Cl)=C1",
        "Molecular Formula": "C<sub>7</sub>H<sub>5</sub>Cl<sub>3</sub>O<sub>2</sub>S",
        "Molecular Mass": "259.54",
        "Melting Point": "67-69 °C"
    }
}