{
    "cas_no": "773-01-3",
    "key_name": "Pyrylium, 2,4,6-trimethyl-, tetrafluoroborate(1-) (1:1)",
    "cn_name": "2,4,6-三甲基吡喃鎓四氟硼酸盐;",
    "alternate_name": "Pyrylium, 2,4,6-trimethyl-, tetrafluoroborate(1-) (1:1);Pyrylium, 2,4,6-trimethyl-, tetrafluoroborate(1-);2,4,6-Trimethylpyrylium fluoborate;Borate(1-), tetrafluoro-, 2,4,6-trimethylpyrylium;2,4,6-Trimethylpyrylium fluoroborate;2,4,6-Trimethylpyrylium tetrafluoroborate;2,4,6-Trimetylpyrylium tetrafluoroborate",
    "duplicated_cas_no": "",
    "SMILES": "CC=1C=C(C)[O+]=C(C)C1.[B+3]([F-])([F-])([F-])[F-]",
    "meta_data": {
        "InChI": "InChI=1S/C8H11O.BF4/c1-6-4-7(2)9-8(3)5-6;2-1(3,4)5/h4-5H,1-3H3;/q+1;-1",
        "InChIKey": null,
        "Canonical SMILES": "[F-][B+3]([F-])([F-])[F-].[O+]=1C(=CC(=CC1C)C)C",
        "Molecular Formula": "C<sub>8</sub>H<sub>11</sub>O.BF<sub>4</sub>",
        "Molecular Mass": "",
        "Melting Point": "223 °C (decomp)"
    }
}