{
    "cas_no": "130929-57-6",
    "key_name": "Entacapone",
    "cn_name": "恩他卡朋;(E)-2-氰基-3-(3,4二羟基-5-硝基苯)-N,N二乙基丙烯酰胺;",
    "alternate_name": "2-Propenamide, 2-cyano-3-(3,4-dihydroxy-5-nitrophenyl)-<em>N</em>,<em>N</em>-diethyl-, (2<em>E</em>)-;2-Propenamide, 2-cyano-3-(3,4-dihydroxy-5-nitrophenyl)-<em>N</em>,<em>N</em>-diethyl-, (<em>E</em>)-;(2<em>E</em>)-2-Cyano-3-(3,4-dihydroxy-5-nitrophenyl)-<em>N</em>,<em>N</em>-diethyl-2-propenamide;Entacapone;Comtan;OR 611;(<em>E</em>)-Entacapone;Entacom;Parkicapone;Comtess",
    "duplicated_cas_no": "116314-67-1",
    "SMILES": "C(=C(/C(N(CC)CC)=O)\\C#N)\\C1=CC(N(=O)=O)=C(O)C(O)=C1",
    "meta_data": {
        "InChI": "InChI=1S/C14H15N3O5/c1-3-16(4-2)14(20)10(8-15)5-9-6-11(17(21)22)13(19)12(18)7-9/h5-7,18-19H,3-4H2,1-2H3/b10-5+",
        "InChIKey": null,
        "Canonical SMILES": "N#CC(=CC1=CC(O)=C(O)C(=C1)N(=O)=O)C(=O)N(CC)CC",
        "Molecular Formula": "C<sub>14</sub>H<sub>15</sub>N<sub>3</sub>O<sub>5</sub>",
        "Molecular Mass": "305.29",
        "Melting Point": "162-163 °C"
    }
}