{
    "cas_no": "505-79-3",
    "key_name": "3-Methylthiopropyl isothiocyanate",
    "cn_name": "3-(甲硫基)丙基异硫氰酸酯;1-异硫氰基-3-甲硫基丙烷;",
    "alternate_name": "Propane, 1-isothiocyanato-3-(methylthio)-;Isothiocyanic acid, 3-(methylthio)propyl ester;1-Isothiocyanato-3-(methylthio)propane;3-Methylthiopropyl isothiocyanate;Iberverin;3-Methylsulfanylpropylisothiocyanate;1-Isothiocyanato-3-(methylsulfanyl)propane;1-Isothiocyanato-3-methylsulfanylpropane",
    "duplicated_cas_no": "",
    "SMILES": "C(CN=C=S)CSC",
    "meta_data": {
        "InChI": "InChI=1S/C5H9NS2/c1-8-4-2-3-6-5-7/h2-4H2,1H3",
        "InChIKey": null,
        "Canonical SMILES": "S=C=NCCCSC",
        "Molecular Formula": "C<sub>5</sub>H<sub>9</sub>NS<sub>2</sub>",
        "Molecular Mass": "147.26",
        "Boiling Point": "116 °C @ Press: 9 Torr"
    }
}