{
    "cas_no": "1006062-27-6",
    "key_name": "[2-Butyl-4-chloro-1-[[2′-(2<em>H</em>-tetrazol-5-yl)[1,1′-biphenyl]-4-yl]methyl]-1<em>H</em>-imidazol-5-yl]methyl acetate",
    "cn_name": null,
    "alternate_name": "1<em>H</em>-Imidazole-5-methanol, 2-butyl-4-chloro-1-[[2′-(2<em>H</em>-tetrazol-5-yl)[1,1′-biphenyl]-4-yl]methyl]-, 5-acetate;[2-Butyl-4-chloro-1-[[2′-(2<em>H</em>-tetrazol-5-yl)[1,1′-biphenyl]-4-yl]methyl]-1<em>H</em>-imidazol-5-yl]methyl acetate;(1-((2′-(2<em>H</em>-Tetrazol-5-yl)-[1,1′-biphenyl]-4-yl)methyl)-2-butyl-4-chloro-1<em>H</em>-imidazol-5-yl)methyl acetate",
    "duplicated_cas_no": "",
    "SMILES": "C(N1C(CCCC)=NC(Cl)=C1COC(C)=O)C2=CC=C(C=C2)C3=C(C=CC=C3)C=4NN=NN4",
    "meta_data": {
        "InChI": "InChI=1S/C24H25ClN6O2/c1-3-4-9-22-26-23(25)21(15-33-16(2)32)31(22)14-17-10-12-18(13-11-17)19-7-5-6-8-20(19)24-27-29-30-28-24/h5-8,10-13H,3-4,9,14-15H2,1-2H3,(H,27,28,29,30)",
        "InChIKey": null,
        "Canonical SMILES": "O=C(OCC1=C(Cl)N=C(N1CC=2C=CC(=CC2)C=3C=CC=CC3C4=NN=NN4)CCCC)C",
        "Molecular Formula": "C<sub>24</sub>H<sub>25</sub>ClN<sub>6</sub>O<sub>2</sub>",
        "Molecular Mass": "464.95",
        "Melting Point": "160-162 °C"
    }
}