{
    "cas_no": "7789-27-7",
    "key_name": "Thallium fluoride",
    "cn_name": "氟化铊(I);氟化铊(I);",
    "alternate_name": "Thallium fluoride (TlF);Thallium monofluoride;Thallous fluoride;Thallium fluoride (Tl<sub>4</sub>F<sub>4</sub>);Thallium fluoride",
    "duplicated_cas_no": "12507-30-1;12507-33-4",
    "SMILES": "F[Tl]",
    "meta_data": {
        "InChI": "InChI=1S/FH.Tl/h1H;/q;+1/p-1",
        "InChIKey": null,
        "Canonical SMILES": "F[Tl]",
        "Molecular Formula": "FTl",
        "Molecular Mass": "",
        "Boiling Point": "655 °C",
        "Melting Point": "327 °C",
        "Density": "8.36 g/cm³ @ Temp: 20 °C"
    }
}