{
    "cas_no": "22373-78-0",
    "key_name": "Monensin sodium",
    "cn_name": "莫能菌素钠盐;莫能霉素钠;",
    "alternate_name": "Monensin, sodium salt (1:1);1,6-Dioxaspiro[4.5]decane-7-butyric acid, 2-[5-ethyltetrahydro-5-[tetrahydro-3-methyl-5-[tetrahydro-6-hydroxy-6-(hydroxymethyl)-3,5-dimethyl-2<em>H</em>-pyran-2-yl]-2-furyl]-2-furyl]-9-hydroxy-β-methoxy-α,γ,2,8-tetramethyl-, monosodium salt;Monensin, monosodium salt;Monensin sodium salt;Monensin sodium;Rumensin;Sodium monensin;Coban 45;Coban;Monensin A sodium salt;NSC 343257;CRC Rumensin;Kexxtone",
    "duplicated_cas_no": "22136-43-2;1174161-37-5;1192220-11-3;1191082-56-0",
    "SMILES": "C[C@@]1(O[C@]2(O[C@]([C@H]([C@H]([C@@H](C(O)=O)C)OC)C)([C@H](C)[C@@H](O)C2)[H])CC1)[C@@]3(O[C@@](CC)(CC3)[C@@]4(O[C@](C[C@@H]4C)([C@]5(O[C@](CO)(O)[C@H](C)C[C@@H]5C)[H])[H])[H])[H].[Na]",
    "meta_data": {
        "InChI": "InChI=1S/C36H62O11.Na/c1-10-34(31-20(3)16-26(43-31)28-19(2)15-21(4)36(41,18-37)46-28)12-11-27(44-34)33(8)13-14-35(47-33)17-25(38)22(5)30(45-35)23(6)29(42-9)24(7)32(39)40;/h19-31,37-38,41H,10-18H2,1-9H3,(H,39,40);/t19-,20-,21+,22+,23-,24-,25-,26+,27+,28-,29+,30-,31+,33-,34-,35+,36-;/m0./s1",
        "InChIKey": null,
        "Canonical SMILES": "[Na].O=C(O)C(C)C(OC)C(C)C1OC2(OC(C)(CC2)C3OC(CC)(CC3)C4OC(CC4C)C5OC(O)(CO)C(C)CC5C)CC(O)C1C",
        "Molecular Formula": "C<sub>36</sub>H<sub>62</sub>O<sub>11</sub>.Na",
        "Molecular Mass": "",
        "Melting Point": "267-269 °C"
    }
}