{
    "cas_no": "72432-03-2",
    "key_name": "Miglitol",
    "cn_name": "米格列醇;米各尼醇;1-(2-羟乙基)-2-(羟甲基)-3,4,5-哌啶三醇;",
    "alternate_name": "3,4,5-Piperidinetriol, 1-(2-hydroxyethyl)-2-(hydroxymethyl)-, (2<em>R</em>,3<em>R</em>,4<em>R</em>,5<em>S</em>)-;3,4,5-Piperidinetriol, 1-(2-hydroxyethyl)-2-(hydroxymethyl)-, [2<em>R</em>-(2α,3β,4α,5β)]-;(2<em>R</em>,3<em>R</em>,4<em>R</em>,5<em>S</em>)-1-(2-Hydroxyethyl)-2-(hydroxymethyl)-3,4,5-piperidinetriol;BAY-m 1099;Miglitol;<em>N</em>-(2-Hydroxyethyl)moranoline;BAY 1099;<em>N</em>-(2-Hydroxyethyl)-1-deoxynojirimycin;Glyset;Diastabol;Seibule;(2<em>R</em>,3<em>R</em>,4<em>R</em>,5<em>S</em>)-1-(2-Hydroxyethyl)-2-(hydroxymethyl)piperidine-3,4,5-triol;Plumarol;<em>N</em>-(2-Hydroethyl)deoxynojirimycin;Miglitose",
    "duplicated_cas_no": "",
    "SMILES": "C(CO)N1[C@H](CO)[C@@H](O)[C@H](O)[C@@H](O)C1",
    "meta_data": {
        "InChI": "InChI=1S/C8H17NO5/c10-2-1-9-3-6(12)8(14)7(13)5(9)4-11/h5-8,10-14H,1-4H2/t5-,6+,7-,8-/m1/s1",
        "InChIKey": null,
        "Canonical SMILES": "OCCN1CC(O)C(O)C(O)C1CO",
        "Molecular Formula": "C<sub>8</sub>H<sub>17</sub>NO<sub>5</sub>",
        "Molecular Mass": "207.22",
        "Melting Point": "114 °C"
    }
}