{
    "cas_no": "90-60-8",
    "key_name": "3,5-Dichlorosalicylaldehyde",
    "cn_name": "3,5-二氯水杨醛;",
    "alternate_name": "Benzaldehyde, 3,5-dichloro-2-hydroxy-;Salicylaldehyde, 3,5-dichloro-;3,5-Dichloro-2-hydroxybenzaldehyde;3,5-Dichlorosalicylaldehyde;2-Hydroxy-3,5-dichlorobenzaldehyde;NSC 96393;2,4-Dichloro-6-formylphenol",
    "duplicated_cas_no": "",
    "SMILES": "C(=O)C1=C(O)C(Cl)=CC(Cl)=C1",
    "meta_data": {
        "InChI": "InChI=1S/C7H4Cl2O2/c8-5-1-4(3-10)7(11)6(9)2-5/h1-3,11H",
        "InChIKey": null,
        "Canonical SMILES": "O=CC=1C=C(Cl)C=C(Cl)C1O",
        "Molecular Formula": "C<sub>7</sub>H<sub>4</sub>Cl<sub>2</sub>O<sub>2</sub>",
        "Molecular Mass": "191.01",
        "Melting Point": "95 °C"
    }
}