{
    "cas_no": "477-75-8",
    "key_name": "Triptycene",
    "cn_name": "三蝶烯;三碟烯;三苯烯;",
    "alternate_name": "9,10[1′,2′]-Benzenoanthracene, 9,10-dihydro-;9,10-<em>o</em>-Benzenoanthracene, 9,10-dihydro-;9,10-Benzenoanthracene, 9,10-dihydro-;9,10-Dihydro-9,10[1′,2′]-benzenoanthracene;Triptycene;Tribenzobicyclo[2.2.2]octatriene;Tryptycene;9,10-Dihydro-9,10-<em>o</em>-benzenoanthracene;NSC 122926",
    "duplicated_cas_no": "",
    "SMILES": "C12C=3C(C(C=4C1=CC=CC4)C=5C2=CC=CC5)=CC=CC3",
    "meta_data": {
        "InChI": "InChI=1S/C20H14/c1-2-8-14-13(7-1)19-15-9-3-5-11-17(15)20(14)18-12-6-4-10-16(18)19/h1-12,19-20H",
        "InChIKey": null,
        "Canonical SMILES": "C=1C=CC2=C(C1)C3C=4C=CC=CC4C2C=5C=CC=CC53",
        "Molecular Formula": "C<sub>20</sub>H<sub>14</sub>",
        "Molecular Mass": "254.33",
        "Melting Point": "253.5 °C"
    }
}