{
    "cas_no": "821-55-6",
    "key_name": "2-Nonanone",
    "cn_name": "2-壬酮;甲基庚基甲酮;",
    "alternate_name": "2-Nonanone;Methyl heptyl ketone;Heptyl methyl ketone;Methyl <em>n</em>-heptyl ketone;NSC 14760",
    "duplicated_cas_no": "",
    "SMILES": "C(CCCCC)CC(C)=O",
    "meta_data": {
        "InChI": "InChI=1S/C9H18O/c1-3-4-5-6-7-8-9(2)10/h3-8H2,1-2H3",
        "InChIKey": null,
        "Canonical SMILES": "O=C(C)CCCCCCC",
        "Molecular Formula": "C<sub>9</sub>H<sub>18</sub>O",
        "Molecular Mass": "142.24",
        "Boiling Point": "195.3 °C",
        "Melting Point": "-7.5 °C",
        "Density": "0.8188 g/cm³ @ Temp: 22 °C"
    }
}