{
    "cas_no": "2424-92-2",
    "key_name": "Eicosanedioic acid",
    "cn_name": "二十烷二酸;",
    "alternate_name": "Eicosanedioic acid;1,18-Octadecanedicarboxylic acid;1,20-Eicosanedioic acid;SL 20-90;SL 20-93;SL 20-99;Octadecamethylenedicarboxylic acid;C 20;C 20 fatty acid;Eicosan-1,20-dioic acid;Icosanedioic acid",
    "duplicated_cas_no": "150677-24-0",
    "SMILES": "C(CC(O)=O)CCCCCCCCCCCCCCCCC(O)=O",
    "meta_data": {
        "InChI": "InChI=1S/C20H38O4/c21-19(22)17-15-13-11-9-7-5-3-1-2-4-6-8-10-12-14-16-18-20(23)24/h1-18H2,(H,21,22)(H,23,24)",
        "InChIKey": null,
        "Canonical SMILES": "O=C(O)CCCCCCCCCCCCCCCCCCC(=O)O",
        "Molecular Formula": "C<sub>20</sub>H<sub>38</sub>O<sub>4</sub>",
        "Molecular Mass": "342.51",
        "Melting Point": "125.5 °C"
    }
}