{
    "cas_no": "584-93-0",
    "key_name": "2-Bromopentanoic acid",
    "cn_name": "S-2-溴戊酸;2-溴戊酸;",
    "alternate_name": "Pentanoic acid, 2-bromo-;Valeric acid, 2-bromo-;2-Bromopentanoic acid;α-Bromovaleric acid;α-Bromopentanoic acid;2-Bromovaleric acid;<span class=\"text-smallcaps\">DL</span>-α-Bromovaleric acid;(±)-α-Bromopentanoic acid;(±)-2-Bromovaleric acid;(±)-2-Bromopentanoic acid;NSC 184",
    "duplicated_cas_no": "2681-92-7",
    "SMILES": "C(CCC)(C(O)=O)Br",
    "meta_data": {
        "InChI": "InChI=1S/C5H9BrO2/c1-2-3-4(6)5(7)8/h4H,2-3H2,1H3,(H,7,8)",
        "InChIKey": null,
        "Canonical SMILES": "O=C(O)C(Br)CCC",
        "Molecular Formula": "C<sub>5</sub>H<sub>9</sub>BrO<sub>2</sub>",
        "Molecular Mass": "181.03",
        "Boiling Point": "132-135 °C",
        "Melting Point": "252 °C (sublm)",
        "Density": "1.4750 g/cm³ @ Temp: 20 °C"
    }
}