{
    "cas_no": "16670-48-7",
    "key_name": "2-Chloroethyl benzenesulfonate",
    "cn_name": null,
    "alternate_name": "Ethanol, 2-chloro-, 1-benzenesulfonate;Ethanol, 2-chloro-, benzenesulfonate;2-Chloroethanol benzenesulfonate;β-Chloroethyl benzenesulfonate;2-Chloroethyl benzenesulfonate;2-(Benzene-sulphonyloxy)ethyl chloride",
    "duplicated_cas_no": "",
    "SMILES": "S(OCCCl)(=O)(=O)C1=CC=CC=C1",
    "meta_data": {
        "InChI": "InChI=1S/C8H9ClO3S/c9-6-7-12-13(10,11)8-4-2-1-3-5-8/h1-5H,6-7H2",
        "InChIKey": null,
        "Canonical SMILES": "O=S(=O)(OCCCl)C=1C=CC=CC1",
        "Molecular Formula": "C<sub>8</sub>H<sub>9</sub>ClO<sub>3</sub>S",
        "Molecular Mass": "220.67",
        "Boiling Point": "184 °C @ Press: 9 Torr",
        "Density": "1.353 g/cm³ @ Temp: 15 °C"
    }
}