{
    "cas_no": "3695-24-7",
    "key_name": "(±)-3-Hydroxy-4-methoxymandelic acid",
    "cn_name": null,
    "alternate_name": "Benzeneacetic acid, α,3-dihydroxy-4-methoxy-;Mandelic acid, 3-hydroxy-4-methoxy-;α,3-Dihydroxy-4-methoxybenzeneacetic acid;3-Hydroxy-4-methoxymandelic acid;(±)-3-Hydroxy-4-methoxymandelic acid;Isovanilmandelic acid;(<em>RS</em>)-3-Hydroxy-4-methoxymandelic acid;Isovanillyl-<em>dl</em>-mandelic acid;2-Hydroxy-2-(3-hydroxy-4-methoxyphenyl)acetic acid;2-(3′-Hydroxy-4′-methoxyphenyl)-2-hydroxyethanoic acid",
    "duplicated_cas_no": "91318-74-0",
    "SMILES": "C(C(O)=O)(O)C1=CC(O)=C(OC)C=C1",
    "meta_data": {
        "InChI": "InChI=1S/C9H10O5/c1-14-7-3-2-5(4-6(7)10)8(11)9(12)13/h2-4,8,10-11H,1H3,(H,12,13)",
        "InChIKey": null,
        "Canonical SMILES": "O=C(O)C(O)C1=CC=C(OC)C(O)=C1",
        "Molecular Formula": "C<sub>9</sub>H<sub>10</sub>O<sub>5</sub>",
        "Molecular Mass": "198.17",
        "Melting Point": "75 °C"
    }
}