{
    "cas_no": "111047-54-2",
    "key_name": "Methyl (α<em>S</em>)-α-[[(4-methylphenyl)sulfonyl]amino]benzeneacetate",
    "cn_name": null,
    "alternate_name": "Benzeneacetic acid, α-[[(4-methylphenyl)sulfonyl]amino]-, methyl ester, (α<em>S</em>)-;Benzeneacetic acid, α-[[(4-methylphenyl)sulfonyl]amino]-, methyl ester, (<em>S</em>)-;Methyl (α<em>S</em>)-α-[[(4-methylphenyl)sulfonyl]amino]benzeneacetate;(<em>S</em>)-Methyl 2-(4-methylphenylsulfonamido)-2-phenylacetate",
    "duplicated_cas_no": "",
    "SMILES": "[C@@H](NS(=O)(=O)C1=CC=C(C)C=C1)(C(OC)=O)C2=CC=CC=C2",
    "meta_data": {
        "InChI": "InChI=1S/C16H17NO4S/c1-12-8-10-14(11-9-12)22(19,20)17-15(16(18)21-2)13-6-4-3-5-7-13/h3-11,15,17H,1-2H3/t15-/m0/s1",
        "InChIKey": null,
        "Canonical SMILES": "O=C(OC)C(NS(=O)(=O)C1=CC=C(C=C1)C)C=2C=CC=CC2",
        "Molecular Formula": "C<sub>16</sub>H<sub>17</sub>NO<sub>4</sub>S",
        "Molecular Mass": "319.38",
        "Melting Point": "131-133 °C"
    }
}