{
    "cas_no": "5399-02-0",
    "key_name": "Heptadecanenitrile",
    "cn_name": "十七腈;",
    "alternate_name": "Heptadecanenitrile;Hexadecyl cyanide;Heptadecanonitrile;<em>n</em>-Heptadecanonitrile;NSC 3704",
    "duplicated_cas_no": "",
    "SMILES": "C(CCCCCCCC#N)CCCCCCCC",
    "meta_data": {
        "InChI": "InChI=1S/C17H33N/c1-2-3-4-5-6-7-8-9-10-11-12-13-14-15-16-17-18/h2-16H2,1H3",
        "InChIKey": null,
        "Canonical SMILES": "N#CCCCCCCCCCCCCCCCC",
        "Molecular Formula": "C<sub>17</sub>H<sub>33</sub>N",
        "Molecular Mass": "251.45",
        "Boiling Point": "349 °C",
        "Melting Point": "34 °C"
    }
}