{
    "cas_no": "13319-71-6",
    "key_name": "2-Bromo-6-methylphenol",
    "cn_name": "6-溴邻甲酚;2-溴-6-甲基苯酚;",
    "alternate_name": "Phenol, 2-bromo-6-methyl-;<em>o</em>-Cresol, 6-bromo-;2-Bromo-6-methylphenol;2-Methyl-6-bromophenol;6-Bromo-<em>o</em>-cresol",
    "duplicated_cas_no": "",
    "SMILES": "OC1=C(Br)C=CC=C1C",
    "meta_data": {
        "InChI": "InChI=1S/C7H7BrO/c1-5-3-2-4-6(8)7(5)9/h2-4,9H,1H3",
        "InChIKey": null,
        "Canonical SMILES": "BrC1=CC=CC(=C1O)C",
        "Molecular Formula": "C<sub>7</sub>H<sub>7</sub>BrO",
        "Molecular Mass": "187.03",
        "Boiling Point": "55-57 °C @ Press: 4 Torr",
        "Melting Point": "155-156 °C"
    }
}