{
    "cas_no": "1184-84-5",
    "key_name": "Vinylsulfonic acid",
    "cn_name": "乙烯基磺酸;",
    "alternate_name": "Ethenesulfonic acid;Ethylenesulfonic acid;Vinylsulfonic acid;VSA-S;VSA-H",
    "duplicated_cas_no": "88209-86-3",
    "SMILES": "S(C=C)(=O)(=O)O",
    "meta_data": {
        "InChI": "InChI=1S/C2H4O3S/c1-2-6(3,4)5/h2H,1H2,(H,3,4,5)",
        "InChIKey": null,
        "Canonical SMILES": "O=S(=O)(O)C=C",
        "Molecular Formula": "C<sub>2</sub>H<sub>4</sub>O<sub>3</sub>S",
        "Molecular Mass": "108.12",
        "Boiling Point": "125 °C",
        "Density": "1.3921 g/cm³ @ Temp: 25 °C"
    }
}