{
    "cas_no": "15829-53-5",
    "key_name": "Mercury oxide (Hg<sub>2</sub>O)",
    "cn_name": "氧化汞(Ⅰ)(黑色);氧化亚汞；黑色氧化汞；黑降汞;",
    "alternate_name": "Mercury oxide (Hg<sub>2</sub>O);Mercurous oxide;Mercury oxide black;Mercurous oxide (Hg<sub>2</sub>O)",
    "duplicated_cas_no": "1312-01-2",
    "SMILES": "O([Hg])[Hg]",
    "meta_data": {
        "InChI": "InChI=1S/2Hg.O",
        "InChIKey": null,
        "Canonical SMILES": "[Hg]O[Hg]",
        "Molecular Formula": "Hg<sub>2</sub>O",
        "Molecular Mass": "",
        "Melting Point": "100 °C (decomp)",
        "Density": "9.8 g/cm³"
    }
}