{
    "cas_no": "614-14-2",
    "key_name": "1-Phenyl-1-butanol",
    "cn_name": "1-苯基-1-丁酮;",
    "alternate_name": "Benzenemethanol, α-propyl-;Benzyl alcohol, α-propyl-;α-Propylbenzenemethanol;1-Butanol, 1-phenyl-;α-Propylbenzyl alcohol;1-Phenyl-1-butanol;1-Phenylbutanol;(±)-1-Phenyl-1-butanol;(±)-α-Propylbenzenemethanol;(±)-α-Propylbenzyl alcohol;(±)-1-Phenylbutanol;NSC 406592;NSC 4887",
    "duplicated_cas_no": "21632-18-8",
    "SMILES": "C(CCC)(O)C1=CC=CC=C1",
    "meta_data": {
        "InChI": "InChI=1S/C10H14O/c1-2-6-10(11)9-7-4-3-5-8-9/h3-5,7-8,10-11H,2,6H2,1H3",
        "InChIKey": null,
        "Canonical SMILES": "OC(C=1C=CC=CC1)CCC",
        "Molecular Formula": "C<sub>10</sub>H<sub>14</sub>O",
        "Molecular Mass": "150.22",
        "Boiling Point": "119 °C @ Press: 12 Torr",
        "Melting Point": "46-47 °C",
        "Density": "0.980 g/cm³ @ Temp: 24 °C"
    }
}