{
    "cas_no": "768-93-4",
    "key_name": "1-Iodoadamantane",
    "cn_name": null,
    "alternate_name": "Tricyclo[3.3.1.1<sup>3,7</sup>]decane, 1-iodo-;Adamantane, 1-iodo-;1-Iodotricyclo[3.3.1.1<sup>3,7</sup>]decane;Adamantyl iodide;1-Adamantyl iodide;1-Iodoadamantane;NSC 169440",
    "duplicated_cas_no": "",
    "SMILES": "IC12CC3CC(C1)CC(C2)C3",
    "meta_data": {
        "InChI": "InChI=1S/C10H15I/c11-10-4-7-1-8(5-10)3-9(2-7)6-10/h7-9H,1-6H2",
        "InChIKey": null,
        "Canonical SMILES": "IC12CC3CC(CC(C3)C1)C2",
        "Molecular Formula": "C<sub>10</sub>H<sub>15</sub>I",
        "Molecular Mass": "262.13",
        "Melting Point": "74 °C"
    }
}