{
    "cas_no": "111-03-5",
    "key_name": "Glycerol 1-monooleate",
    "cn_name": null,
    "alternate_name": "9-Octadecenoic acid (9<em>Z</em>)-, 2,3-dihydroxypropyl ester;Olein, 1-mono-;9-Octadecenoic acid (<em>Z</em>)-, 2,3-dihydroxypropyl ester;Glycerol 1-monooleate;α-Monoolein;1-Monoolein;1-Oleylglycerol;1-Oleoylglycerol;1-Monooleoylglycerol;Glycerin 1-monooleate;Glycerol α-<em>cis</em>-9-octadecenate;Glycerol α-monooleate;1-Glyceryl oleate;Glyceryl monooleate;Glycerol 1-oleate;<em>rac</em>-1-Monooleoylglycerol;<em>rac</em>-1-Monoolein;1-Monooleoyl-<em>rac</em>-glycerol;Danisco MO 90;2,3-Dihydroxypropyl oleate;1-Mono(<em>cis</em>-9-octacenoyl)glycerol;Rylo MG 19;α-Glyceryl monooloeate;1-Oleoyl-rac-glycerol;Nofable GO 991;Glycerol 1-(9<em>Z</em>-octadecenoate);1-Monooleoyl-rac-glycerol;GO 991",
    "duplicated_cas_no": "925-14-4;30836-40-9;33978-07-3",
    "SMILES": "C(CC(OCC(CO)O)=O)CCCCC/C=C\\CCCCCCCC",
    "meta_data": {
        "InChI": "InChI=1/C21H40O4/c1-2-3-4-5-6-7-8-9-10-11-12-13-14-15-16-17-21(24)25-19-20(23)18-22/h9-10,20,22-23H,2-8,11-19H2,1H3/b10-9-",
        "InChIKey": null,
        "Canonical SMILES": "O=C(OCC(O)CO)CCCCCCCC=CCCCCCCCC",
        "Molecular Formula": "C<sub>21</sub>H<sub>40</sub>O<sub>4</sub>",
        "Molecular Mass": "356.54",
        "Boiling Point": "238-240 °C @ Press: 3-4 Torr",
        "Melting Point": "35 °C",
        "Density": "0.9407 g/cm³ @ Temp: 35 °C"
    }
}