{
    "cas_no": "638-65-3",
    "key_name": "Octadecanenitrile",
    "cn_name": "硬脂腈;十八烷腈;硬脂腈;十八腈;",
    "alternate_name": "Octadecanenitrile;Stearonitrile;Octadecanonitrile;Heptadecyl cyanide;Stearic nitrile;<em>n</em>-Octadecanonitrile;1-Cyanoheptadecane;NSC 5541",
    "duplicated_cas_no": "",
    "SMILES": "C(CCCCCCCCC)CCCCCCCC#N",
    "meta_data": {
        "InChI": "InChI=1S/C18H35N/c1-2-3-4-5-6-7-8-9-10-11-12-13-14-15-16-17-18-19/h2-17H2,1H3",
        "InChIKey": null,
        "Canonical SMILES": "N#CCCCCCCCCCCCCCCCCC",
        "Molecular Formula": "C<sub>18</sub>H<sub>35</sub>N",
        "Molecular Mass": "265.48",
        "Boiling Point": "362 °C @ Press: 760 Torr",
        "Melting Point": "41 °C",
        "Density": "0.8325 g/cm³ @ Temp: 20 °C"
    }
}