{
    "cas_no": "162401-32-3",
    "key_name": "Roflumilast",
    "cn_name": null,
    "alternate_name": "Benzamide, 3-(cyclopropylmethoxy)-<em>N</em>-(3,5-dichloro-4-pyridinyl)-4-(difluoromethoxy)-;3-(Cyclopropylmethoxy)-<em>N</em>-(3,5-dichloro-4-pyridinyl)-4-(difluoromethoxy)benzamide;Roflumilast;BYK 20869;BY 217;B 9302-107;Daxas;Daliresp;ARQ 151;Libertek",
    "duplicated_cas_no": "",
    "SMILES": "O(CC1CC1)C2=C(OC(F)F)C=CC(C(NC=3C(Cl)=CN=CC3Cl)=O)=C2",
    "meta_data": {
        "InChI": "InChI=1S/C17H14Cl2F2N2O3/c18-11-6-22-7-12(19)15(11)23-16(24)10-3-4-13(26-17(20)21)14(5-10)25-8-9-1-2-9/h3-7,9,17H,1-2,8H2,(H,22,23,24)",
        "InChIKey": null,
        "Canonical SMILES": "O=C(NC=1C(Cl)=CN=CC1Cl)C2=CC=C(OC(F)F)C(OCC3CC3)=C2",
        "Molecular Formula": "C<sub>17</sub>H<sub>14</sub>Cl<sub>2</sub>F<sub>2</sub>N<sub>2</sub>O<sub>3</sub>",
        "Molecular Mass": "403.21",
        "Melting Point": "157-157.5 °C"
    }
}