{
    "cas_no": "303-38-8",
    "key_name": "2,3-Dihydroxybenzoic acid",
    "cn_name": "2,3-二羟基苯甲酸;",
    "alternate_name": "Benzoic acid, 2,3-dihydroxy-;<em>o</em>-Pyrocatechuic acid;2,3-Dihydroxybenzoic acid;Catecholcarboxylic acid;3-Hydroxysalicylic acid;Pyrocatechuic acid;NSC 27435;1,2-Dihydroxybenzene-3-carboxylic acid;Hypogallic acid",
    "duplicated_cas_no": "",
    "SMILES": "C(O)(=O)C1=C(O)C(O)=CC=C1",
    "meta_data": {
        "InChI": "InChI=1S/C7H6O4/c8-5-3-1-2-4(6(5)9)7(10)11/h1-3,8-9H,(H,10,11)",
        "InChIKey": null,
        "Canonical SMILES": "O=C(O)C=1C=CC=C(O)C1O",
        "Molecular Formula": "C<sub>7</sub>H<sub>6</sub>O<sub>4</sub>",
        "Molecular Mass": "154.12",
        "Melting Point": "204 °C"
    }
}