{
    "cas_no": "2227-13-6",
    "key_name": "Tetrasul",
    "cn_name": "杀螨硫醚;",
    "alternate_name": "Benzene, 1,2,4-trichloro-5-[(4-chlorophenyl)thio]-;Sulfide, <em>p</em>-chlorophenyl 2,4,5-trichlorophenyl;1,2,4-Trichloro-5-[(4-chlorophenyl)thio]benzene;V 101;4-Chlorophenyl 2,4,5-trichlorophenyl sulfide;<em>p</em>-Chlorophenyl 2,4,5-trichlorophenyl sulfide;2,4,4′,5-Tetrachlorodiphenyl sulfide;Tetrasul;Animert;Animert V 101;Tetradisul",
    "duplicated_cas_no": "",
    "SMILES": "S(C1=C(Cl)C=C(Cl)C(Cl)=C1)C2=CC=C(Cl)C=C2",
    "meta_data": {
        "InChI": "InChI=1S/C12H6Cl4S/c13-7-1-3-8(4-2-7)17-12-6-10(15)9(14)5-11(12)16/h1-6H",
        "InChIKey": null,
        "Canonical SMILES": "ClC1=CC=C(SC2=CC(Cl)=C(Cl)C=C2Cl)C=C1",
        "Molecular Formula": "C<sub>12</sub>H<sub>6</sub>Cl<sub>4</sub>S",
        "Molecular Mass": "324.05",
        "Melting Point": "84-85 °C"
    }
}