{
    "cas_no": "313-06-4",
    "key_name": "Estradiol cypionate",
    "cn_name": "环戊丙酸雌二醇;",
    "alternate_name": "Estra-1,3,5(10)-triene-3,17-diol (17β)-, 17-cyclopentanepropanoate;Estradiol, 17-cyclopentanepropionate;Cyclopentanepropionic acid, 3-hydroxyestra-1,3,5(10)-trien-17β-yl ester;Cyclopentanepropionic acid, 17-ester with estradiol;Depoestradiol;Depo-estradiol cyclopentylpropionate;Depofemin;Estradiol 17β-cyclopentanepropionate;Estradiol 17β-cyclopentylpropionate;Estradiol cyclopentylpropionate;17β-Estradiol 17-cyclopentylpropionate;Estradiol 17β-cypionate;Depoestradiol cypionate;Estradiol 17-cypionate;ECP;Estradep;Depo-Estradiol;Estradiol 17-cyclopentylpropionate;Estradiol cypionate;Depgynogen;NSC 3354;Estradiolum valerianicum;ECP Estradiol",
    "duplicated_cas_no": "",
    "SMILES": "C[C@@]12[C@]([C@]3([C@@](C=4C(CC3)=CC(O)=CC4)(CC1)[H])[H])(CC[C@@H]2OC(CCC5CCCC5)=O)[H]",
    "meta_data": {
        "InChI": "InChI=1S/C26H36O3/c1-26-15-14-21-20-10-8-19(27)16-18(20)7-9-22(21)23(26)11-12-24(26)29-25(28)13-6-17-4-2-3-5-17/h8,10,16-17,21-24,27H,2-7,9,11-15H2,1H3/t21-,22-,23+,24+,26+/m1/s1",
        "InChIKey": null,
        "Canonical SMILES": "O=C(OC1CCC2C3CCC4=CC(O)=CC=C4C3CCC12C)CCC5CCCC5",
        "Molecular Formula": "C<sub>26</sub>H<sub>36</sub>O<sub>3</sub>",
        "Molecular Mass": "396.56",
        "Melting Point": "151-152 °C"
    }
}