{
    "cas_no": "27464-82-0",
    "key_name": "2,5-Dimethyl-1,3,4-thiadiazole",
    "cn_name": "2,5-二甲基噻二唑;2,5-二甲基-1,3,4-噻二唑;",
    "alternate_name": "1,3,4-Thiadiazole, 2,5-dimethyl-;2,5-Dimethyl-1,3,4-thiadiazole;NSC 93787",
    "duplicated_cas_no": "",
    "SMILES": "CC=1SC(C)=NN1",
    "meta_data": {
        "InChI": "InChI=1S/C4H6N2S/c1-3-5-6-4(2)7-3/h1-2H3",
        "InChIKey": null,
        "Canonical SMILES": "N=1N=C(SC1C)C",
        "Molecular Formula": "C<sub>4</sub>H<sub>6</sub>N<sub>2</sub>S",
        "Molecular Mass": "114.17",
        "Boiling Point": "202.5 °C",
        "Melting Point": "65 °C"
    }
}