{
    "cas_no": "96232-71-2",
    "key_name": "2-Thiophenecarboxylic acid, 4,5-dibromo-3-hydroxy-, methyl ester",
    "cn_name": "4,5-二溴-3-羟基噻吩-2-羧酸甲酯;",
    "alternate_name": "2-Thiophenecarboxylic acid, 4,5-dibromo-3-hydroxy-, methyl ester;4,5-Dibromo-3-hydroxy-2-(methoxycarbonyl)thiophene;4,5-Dibromo-3-hydroxythiophene-2-carboxylic acid methyl ester;Methyl 4,5-dibromo-3-hydroxy-2-thiophenecarboxylate",
    "duplicated_cas_no": "",
    "SMILES": "C(OC)(=O)C1=C(O)C(Br)=C(Br)S1",
    "meta_data": {
        "InChI": "InChI=1S/C6H4Br2O3S/c1-11-6(10)4-3(9)2(7)5(8)12-4/h9H,1H3",
        "InChIKey": null,
        "Canonical SMILES": "O=C(OC)C=1SC(Br)=C(Br)C1O",
        "Molecular Formula": "C<sub>6</sub>H<sub>4</sub>Br<sub>2</sub>O<sub>3</sub>S",
        "Molecular Mass": "315.97",
        "Melting Point": "130-131 °C"
    }
}