{
    "cas_no": "5796-98-5",
    "key_name": "Trimethylsilyl peroxide",
    "cn_name": "双三甲基硅基过氧化物;",
    "alternate_name": "Silane, 1,1′-dioxybis[1,1,1-trimethyl-;Peroxide, bis(trimethylsilyl);Silane, dioxybis[trimethyl-;3,4-Dioxa-2,5-disilahexane, 2,2,5,5-tetramethyl-;1,1′-Dioxybis[1,1,1-trimethylsilane];Bis(trimethylsilyl) peroxide;Trimethylsilyl peroxide",
    "duplicated_cas_no": "",
    "SMILES": "O(O[Si](C)(C)C)[Si](C)(C)C",
    "meta_data": {
        "InChI": "InChI=1S/C6H18O2Si2/c1-9(2,3)7-8-10(4,5)6/h1-6H3",
        "InChIKey": null,
        "Canonical SMILES": "O(O[Si](C)(C)C)[Si](C)(C)C",
        "Molecular Formula": "C<sub>6</sub>H<sub>18</sub>O<sub>2</sub>Si<sub>2</sub>",
        "Molecular Mass": "178.38",
        "Boiling Point": "35 °C @ Press: 35 Torr",
        "Melting Point": "&gt;135 °C (decomp)",
        "Density": "0.829 g/cm³"
    }
}