{
    "cas_no": "104227-87-4",
    "key_name": "Famciclovir",
    "cn_name": "泛昔洛韦;2-[2-(2-氨基-9H-嘌呤-9-基)乙基]-1,3-丙二醇-二乙酯;",
    "alternate_name": "1,3-Propanediol, 2-[2-(2-amino-9<em>H</em>-purin-9-yl)ethyl]-, 1,3-diacetate;1,3-Propanediol, 2-[2-(2-amino-9<em>H</em>-purin-9-yl)ethyl]-, diacetate (ester);Famciclovir;BRL 42810;Famvir;FCV;9-[4-Acetoxy-3-(acetoxymethyl)butyl]-2-aminopurine;9-[4-Acetoxy-3-(acetoxymethyl)but-1-yl]-2-aminopurine;Famcyclovir;Famcivir;Famtrex;Fanxiluowei;[2-(Acetyloxymethyl)-4-(2-aminopurin-9-yl)butyl] acetate;2-[(Acetyloxy)methyl]-4-(2-amino-9<em>H</em>-purin-9-yl)butyl acetate",
    "duplicated_cas_no": "",
    "SMILES": "C(CC(COC(C)=O)COC(C)=O)N1C=2C(N=C1)=CN=C(N)N2",
    "meta_data": {
        "InChI": "InChI=1S/C14H19N5O4/c1-9(20)22-6-11(7-23-10(2)21)3-4-19-8-17-12-5-16-14(15)18-13(12)19/h5,8,11H,3-4,6-7H2,1-2H3,(H2,15,16,18)",
        "InChIKey": null,
        "Canonical SMILES": "O=C(OCC(COC(=O)C)CCN1C=NC=2C=NC(=NC21)N)C",
        "Molecular Formula": "C<sub>14</sub>H<sub>19</sub>N<sub>5</sub>O<sub>4</sub>",
        "Molecular Mass": "321.33",
        "Melting Point": "102-104 °C"
    }
}