{
    "cas_no": "37622-90-5",
    "key_name": "Ethyl 1<em>H</em>-pyrazole-4-carboxylate",
    "cn_name": "4-吡唑甲酸乙酯;",
    "alternate_name": "1<em>H</em>-Pyrazole-4-carboxylic acid, ethyl ester;Pyrazole-4-carboxylic acid, ethyl ester;Ethyl 4-pyrazolecarboxylate;Ethyl 1<em>H</em>-pyrazole-4-carboxylate;4-Ethoxycarbonyl-1<em>H</em>-pyrazole;1<em>H</em>-Pyrazol-4-carboxylic acid ethyl ester;4-Ethoxycarbonylpyrazole",
    "duplicated_cas_no": "",
    "SMILES": "C(OCC)(=O)C=1C=NNC1",
    "meta_data": {
        "InChI": "InChI=1S/C6H8N2O2/c1-2-10-6(9)5-3-7-8-4-5/h3-4H,2H2,1H3,(H,7,8)",
        "InChIKey": null,
        "Canonical SMILES": "O=C(OCC)C=1C=NNC1",
        "Molecular Formula": "C<sub>6</sub>H<sub>8</sub>N<sub>2</sub>O<sub>2</sub>",
        "Molecular Mass": "140.14",
        "Boiling Point": "138-140 °C @ Press: 3 Torr",
        "Melting Point": "76-78 °C"
    }
}