{
    "cas_no": "2832-19-1",
    "key_name": "<em>N</em>-Methylol-α-chloroacetamide",
    "cn_name": "氯乙酰胺-N-甲醇;N-羟甲基氯乙酰胺;",
    "alternate_name": "Acetamide, 2-chloro-<em>N</em>-(hydroxymethyl)-;Acetamide, α-chloro-<em>N</em>-(hydroxymethyl)-;2-Chloro-<em>N</em>-(hydroxymethyl)acetamide;<em>N</em>-Methylol-2-chloroacetamide;<em>N</em>-Methylolchloracetamide;<em>N</em>-(Hydroxymethyl)-2-chloracetamide;α-Chloro-<em>N</em>-(hydroxymethyl)acetamide;<em>N</em>-(Hydroxymethyl)chloroacetamide;Chloro-<em>N</em>-(hydroxymethyl)acetamide;<em>N</em>-(Hydroxymethyl)-2-chloroacetamide;<em>N</em>-Methylol-α-chloroacetamide;<em>N</em>-Methylolchloroacetamide;<em>N</em>-Methylol-α-chloracetamide;NSC 9963",
    "duplicated_cas_no": "",
    "SMILES": "C(NCO)(CCl)=O",
    "meta_data": {
        "InChI": "InChI=1S/C3H6ClNO2/c4-1-3(7)5-2-6/h6H,1-2H2,(H,5,7)",
        "InChIKey": null,
        "Canonical SMILES": "O=C(NCO)CCl",
        "Molecular Formula": "C<sub>3</sub>H<sub>6</sub>ClNO<sub>2</sub>",
        "Molecular Mass": "123.54",
        "Melting Point": "102 °C"
    }
}