{
    "cas_no": "120-23-0",
    "key_name": "2-Naphthoxyacetic acid",
    "cn_name": "2-萘氧乙酸;beta-萘氧乙酸;",
    "alternate_name": "Acetic acid, 2-(2-naphthalenyloxy)-;Acetic acid, (2-naphthyloxy)-;Acetic acid, (2-naphthalenyloxy)-;Acetic acid, 2-naphthoxy-;2-(2-Naphthalenyloxy)acetic acid;Betoxon;β-Naphthoxyacetic acid;<em>O</em>-(2-Naphthyl)glycolic acid;2-Naphthoxyacetic acid;NOXA;2-NOXA;(2-Naphthyloxy)acetic acid;(β-Naphthyloxy)acetic acid;(β-Naphthalenyloxy)acetic acid;Gerlach 1396;(2-Naphthalenyloxy)acetic acid;Betapal;NOA;Betokson;No Seed;Betokson Super;NSC 2070;F 31;NOXA (naphthyloxyacetic acid)",
    "duplicated_cas_no": "867181-94-0",
    "SMILES": "O(CC(O)=O)C1=CC2=C(C=C1)C=CC=C2",
    "meta_data": {
        "InChI": "InChI=1S/C12H10O3/c13-12(14)8-15-11-6-5-9-3-1-2-4-10(9)7-11/h1-7H,8H2,(H,13,14)",
        "InChIKey": null,
        "Canonical SMILES": "O=C(O)COC=1C=CC=2C=CC=CC2C1",
        "Molecular Formula": "C<sub>12</sub>H<sub>10</sub>O<sub>3</sub>",
        "Molecular Mass": "202.21",
        "Melting Point": "156 °C"
    }
}