{
    "cas_no": "401-80-9",
    "key_name": "3-Fluorobenzotrifluoride",
    "cn_name": "3-氟三氟甲苯;间氟三氟甲苯;",
    "alternate_name": "Benzene, 1-fluoro-3-(trifluoromethyl)-;Toluene, <em>m</em>,α,α,α-tetrafluoro-;1-Fluoro-3-(trifluoromethyl)benzene;<em>m</em>-Fluorobenzotrifluoride;Trifluoromethyl-3-fluorobenzene;<em>m</em>,α,α,α-Tetrafluorotoluene;3-Fluorobenzotrifluoride;<em>m</em>-Fluoro(trifluoromethyl)benzene;3-Fluoro(trifluoromethyl)benzene;<em>m</em>-(Trifluoromethyl)fluorobenzene;NSC 10315;α,α,α,3-Tetrafluorotoluene",
    "duplicated_cas_no": "",
    "SMILES": "C(F)(F)(F)C1=CC(F)=CC=C1",
    "meta_data": {
        "InChI": "InChI=1S/C7H4F4/c8-6-3-1-2-5(4-6)7(9,10)11/h1-4H",
        "InChIKey": null,
        "Canonical SMILES": "FC1=CC=CC(=C1)C(F)(F)F",
        "Molecular Formula": "C<sub>7</sub>H<sub>4</sub>F<sub>4</sub>",
        "Molecular Mass": "164.10",
        "Boiling Point": "101.5 °C",
        "Melting Point": "-81.5 °C",
        "Density": "1.2891 g/cm³ @ Temp: 25.4 °C"
    }
}