{
    "cas_no": "813-78-5",
    "key_name": "Dimethyl phosphate",
    "cn_name": "甲基磷酸二甲酯;甲基磷酸二甲酯;",
    "alternate_name": "Phosphoric acid, dimethyl ester;Methyl phosphate ((CH<sub>3</sub>O)<sub>2</sub>(HO)PO);Dimethyl phosphate;Dimethyl hydrogen phosphate;<em>O</em>,<em>O</em>-Dimethyl phosphate;<em>O</em>,<em>O</em>-Dimethyl hydrogen phosphate;DMP;NSC 2676",
    "duplicated_cas_no": "",
    "SMILES": "P(OC)(OC)(=O)O",
    "meta_data": {
        "InChI": "InChI=1S/C2H7O4P/c1-5-7(3,4)6-2/h1-2H3,(H,3,4)",
        "InChIKey": null,
        "Canonical SMILES": "O=P(O)(OC)OC",
        "Molecular Formula": "C<sub>2</sub>H<sub>7</sub>O<sub>4</sub>P",
        "Molecular Mass": "126.05",
        "Boiling Point": "113 °C @ Press: 0.023 Torr",
        "Density": "1.3337 g/cm³ @ Temp: 20 °C"
    }
}