{
    "cas_no": "120-08-1",
    "key_name": "Scoparone",
    "cn_name": "6,7-二甲氧基香豆素;东喘宁;香豆素二甲醚;",
    "alternate_name": "2<em>H</em>-1-Benzopyran-2-one, 6,7-dimethoxy-;Coumarin, 6,7-dimethoxy-;6,7-Dimethoxy-2<em>H</em>-1-benzopyran-2-one;6,7-Dimethoxycoumarin;<em>O</em>-Methylisoscopoletin;Scoparone;Aesculetin dimethyl ether;Escoparone;Scoparon;<em>O</em>,<em>O</em>-Dimethylesculetin;Esculetin dimethyl ether;Scopoletin methyl ether;<em>O</em>-Methylscopoletin;Scopoletin monomethyl ether;Esculetin 6,7-dimethyl ether;6,7-Dimethylesculetin;NRB 03190;6,7-Dimethoxy-2<em>H</em>-chromen-2-one",
    "duplicated_cas_no": "",
    "SMILES": "O(C)C=1C=C2C(=CC1OC)OC(=O)C=C2",
    "meta_data": {
        "InChI": "InChI=1S/C11H10O4/c1-13-9-5-7-3-4-11(12)15-8(7)6-10(9)14-2/h3-6H,1-2H3",
        "InChIKey": null,
        "Canonical SMILES": "O=C1OC=2C=C(OC)C(OC)=CC2C=C1",
        "Molecular Formula": "C<sub>11</sub>H<sub>10</sub>O<sub>4</sub>",
        "Molecular Mass": "206.19",
        "Melting Point": "145.5 °C",
        "Density": "1.25 g/cm³"
    }
}