{
    "cas_no": "95-13-6",
    "key_name": "Indene",
    "cn_name": "茚;茚;",
    "alternate_name": "1<em>H</em>-Indene;Indene;Indonaphthene;Inden;NSC 9270",
    "duplicated_cas_no": "",
    "SMILES": "C1=2C(C=CC1)=CC=CC2",
    "meta_data": {
        "InChI": "InChI=1S/C9H8/c1-2-5-9-7-3-6-8(9)4-1/h1-6H,7H2",
        "InChIKey": null,
        "Canonical SMILES": "C=1C=CC2=C(C1)C=CC2",
        "Molecular Formula": "C<sub>9</sub>H<sub>8</sub>",
        "Molecular Mass": "116.16",
        "Boiling Point": "181.6 °C @ Press: 760 Torr",
        "Melting Point": "-1.8 °C",
        "Density": "0.9968 g/cm³ @ Temp: 20 °C"
    }
}