{
    "cas_no": "1779-81-3",
    "key_name": "4,5-Dihydro-2-thiazolamine",
    "cn_name": "2-氨基-2-噻唑啉;",
    "alternate_name": "2-Thiazolamine, 4,5-dihydro-;2-Thiazoline, 2-amino-;Thiazolidine, 2-imino-;4,5-Dihydro-2-thiazolamine;2-Thiazolidinimine;2-Iminothiazolidine;2-Amino-2-thiazoline;2-Amino-Δ<sup>2</sup>-thiazoline;2-Aminothiazoline;2-Amino-4,5-dihydrothiazole;2-Thiazolin-2-amine;2-Amino-4,5-dihydro-1,3-thiazole;Camfazolinum;NSC 24626;NSC 3110;4,5-Dihydro-1,3-thiazol-2-amine;4,5-Dihydrothiazol-2-amine;4,5-Dihydrothiazol-2-ylamine",
    "duplicated_cas_no": "13577-63-4;64321-55-7;78788-13-3",
    "SMILES": "NC1=NCCS1",
    "meta_data": {
        "InChI": "InChI=1S/C3H6N2S/c4-3-5-1-2-6-3/h1-2H2,(H2,4,5)",
        "InChIKey": null,
        "Canonical SMILES": "N1=C(SCC1)N",
        "Molecular Formula": "C<sub>3</sub>H<sub>6</sub>N<sub>2</sub>S",
        "Molecular Mass": "102.16",
        "Melting Point": "85.3 °C"
    }
}