{
    "cas_no": "791616-63-2",
    "key_name": "Dinaphtho[2,1-<em>d</em>:1′,2′-<em>f</em>][1,3,2]dioxaphosphepin, 4-hydroxy-2,6-bis[2,4,6-tris(1-methylethyl)phenyl]-, 4-oxide, (11b<em>R</em>)-",
    "cn_name": null,
    "alternate_name": "Dinaphtho[2,1-<em>d</em>:1′,2′-<em>f</em>][1,3,2]dioxaphosphepin, 4-hydroxy-2,6-bis[2,4,6-tris(1-methylethyl)phenyl]-, 4-oxide, (11b<em>R</em>)-;(<em>R</em>)-TRIP;(R)-TRIP-PA",
    "duplicated_cas_no": "1522367-55-0;2460610-02-8",
    "SMILES": "O=P1(O)OC2=C(C3=C(C(=CC=4C3=CC=CC4)C5=C(C(C)C)C=C(C(C)C)C=C5C(C)C)O1)C=6C(C=C2C7=C(C(C)C)C=C(C(C)C)C=C7C(C)C)=CC=CC6",
    "meta_data": {
        "InChI": "InChI=1S/C50H57O4P/c1-27(2)35-23-39(29(5)6)45(40(24-35)30(7)8)43-21-33-17-13-15-19-37(33)47-48-38-20-16-14-18-34(38)22-44(50(48)54-55(51,52)53-49(43)47)46-41(31(9)10)25-36(28(3)4)26-42(46)32(11)12/h13-32H,1-12H3,(H,51,52)",
        "InChIKey": null,
        "Canonical SMILES": "O=P1(O)OC2=C(C=C3C=CC=CC3=C2C4=C(O1)C(=CC=5C=CC=CC54)C=6C(=CC(=CC6C(C)C)C(C)C)C(C)C)C=7C(=CC(=CC7C(C)C)C(C)C)C(C)C",
        "Molecular Formula": "C<sub>50</sub>H<sub>57</sub>O<sub>4</sub>P",
        "Molecular Mass": "752.96",
        "Melting Point": "&gt;290 °C"
    }
}