{
    "cas_no": "111-65-9",
    "key_name": "Octane",
    "cn_name": "正辛烷;辛烷;",
    "alternate_name": "Octane;<em>n</em>-Octane;NSC 9822",
    "duplicated_cas_no": "31372-91-5",
    "SMILES": "C(CCCC)CCC",
    "meta_data": {
        "InChI": "InChI=1S/C8H18/c1-3-5-7-8-6-4-2/h3-8H2,1-2H3",
        "InChIKey": null,
        "Canonical SMILES": "CCCCCCCC",
        "Molecular Formula": "C<sub>8</sub>H<sub>18</sub>",
        "Molecular Mass": "114.23",
        "Boiling Point": "125.67 °C @ Press: 760 Torr",
        "Melting Point": "-56.76 °C",
        "Density": "0.69862 g/cm³ @ Temp: 25 °C"
    }
}