{
    "cas_no": "2113-57-7",
    "key_name": "3-Bromobiphenyl",
    "cn_name": "3-溴联苯;",
    "alternate_name": "1,1′-Biphenyl, 3-bromo-;Biphenyl, 3-bromo-;3-Bromo-1,1′-biphenyl;3-Bromobiphenyl;<em>m</em>-Bromobiphenyl;3-Xenyl bromide;[1,1′-Biphenyl]-3-yl bromide;1-Bromo-3-phenylbenzene;NSC 407775;3-Biphenyl bromide;PBB 2",
    "duplicated_cas_no": "",
    "SMILES": "BrC=1C=C(C=CC1)C2=CC=CC=C2",
    "meta_data": {
        "InChI": "InChI=1S/C12H9Br/c13-12-8-4-7-11(9-12)10-5-2-1-3-6-10/h1-9H",
        "InChIKey": null,
        "Canonical SMILES": "BrC1=CC=CC(=C1)C=2C=CC=CC2",
        "Molecular Formula": "C<sub>12</sub>H<sub>9</sub>Br",
        "Molecular Mass": "233.10",
        "Boiling Point": "300 °C",
        "Melting Point": "93-94 °C",
        "Density": "1.410 g/cm³ @ Temp: 20 °C"
    }
}