{
    "cas_no": "79241-46-6",
    "key_name": "Fluazifop-P-butyl",
    "cn_name": "精吡氟禾草灵;2-{4-[(5-三氟甲基吡啶-2-基)氧基]苯氧基}丙酸丁酯;",
    "alternate_name": "Propanoic acid, 2-[4-[[5-(trifluoromethyl)-2-pyridinyl]oxy]phenoxy]-, butyl ester, (2<em>R</em>)-;Propanoic acid, 2-[4-[[5-(trifluoromethyl)-2-pyridinyl]oxy]phenoxy]-, butyl ester, (<em>R</em>)-;PP 005;Fusilade Super;Fluazifop-P-butyl;Fusilade 2000;(+)-Fluazifop-butyl;Fusilade S;Fusilade II;Fusilade DX;Fusilade forte;IH 773B;ICI-A 0009;ICI-A 0005;Fusilade Max;Deganol",
    "duplicated_cas_no": "",
    "SMILES": "O(C1=CC=C(C(F)(F)F)C=N1)C2=CC=C(O[C@@H](C(OCCCC)=O)C)C=C2",
    "meta_data": {
        "InChI": "InChI=1S/C19H20F3NO4/c1-3-4-11-25-18(24)13(2)26-15-6-8-16(9-7-15)27-17-10-5-14(12-23-17)19(20,21)22/h5-10,12-13H,3-4,11H2,1-2H3/t13-/m1/s1",
        "InChIKey": null,
        "Canonical SMILES": "O=C(OCCCC)C(OC1=CC=C(OC2=NC=C(C=C2)C(F)(F)F)C=C1)C",
        "Molecular Formula": "C<sub>19</sub>H<sub>20</sub>F<sub>3</sub>NO<sub>4</sub>",
        "Molecular Mass": "383.36",
        "Boiling Point": "154 °C",
        "Melting Point": "5 °C"
    }
}