{
    "cas_no": "2462-31-9",
    "key_name": "Glycine, phenylmethyl ester, hydrochloride (1:1)",
    "cn_name": "甘氨酸苄酯盐酸盐;",
    "alternate_name": "Glycine, phenylmethyl ester, hydrochloride (1:1);Glycine, benzyl ester, hydrochloride;Glycine, phenylmethyl ester, hydrochloride;Benzyl glycinate hydrochloride;Glycine benzyl ester monohydrochloride;Benzyl 2-aminoacetate hydrochloride;Aminoacetic acid benzyl ester hydrochloride;2-(Benzyloxy)-2-oxoethanaminium chloride",
    "duplicated_cas_no": "",
    "SMILES": "C(OC(CN)=O)C1=CC=CC=C1.Cl",
    "meta_data": {
        "InChI": "InChI=1S/C9H11NO2.ClH/c10-6-9(11)12-7-8-4-2-1-3-5-8;/h1-5H,6-7,10H2;1H",
        "InChIKey": null,
        "Canonical SMILES": "Cl.O=C(OCC=1C=CC=CC1)CN",
        "Molecular Formula": "C<sub>9</sub>H<sub>11</sub>NO<sub>2</sub>.ClH",
        "Molecular Mass": "",
        "Melting Point": "139-140 °C"
    }
}