{
    "cas_no": "106-99-0",
    "key_name": "1,3-Butadiene",
    "cn_name": "1,3-丁二烯;1,3-丁二烯；联乙烯;",
    "alternate_name": "1,3-Butadiene;Biethylene;Bivinyl;α,γ-Butadiene;Divinyl;Erythrene;Vinylethylene;Butadiene;Butadiene-1,3",
    "duplicated_cas_no": "130983-70-9;183592-61-2;1213224-27-1",
    "SMILES": "C(C=C)=C",
    "meta_data": {
        "InChI": "InChI=1S/C4H6/c1-3-4-2/h3-4H,1-2H2",
        "InChIKey": null,
        "Canonical SMILES": "C=CC=C",
        "Molecular Formula": "C<sub>4</sub>H<sub>6</sub>",
        "Molecular Mass": "54.09",
        "Boiling Point": "-4.5 °C @ Press: 760 Torr",
        "Melting Point": "-108.966 °C",
        "Density": "0.6149 g/cm³ @ Temp: 25 °C"
    }
}