{
    "cas_no": "29512-49-0",
    "key_name": "6′-(Diethylamino)-3′-methyl-2′-(phenylamino)spiro[isobenzofuran-1(3<em>H</em>),9′-[9<em>H</em>]xanthen]-3-one",
    "cn_name": "黑色素-1;热敏黑TF-BL1;压敏黑TF-BL1;2-苯氨基-3-甲基-6-二乙氨基荧烷;",
    "alternate_name": "Spiro[isobenzofuran-1(3<em>H</em>),9′-[9<em>H</em>]xanthen]-3-one, 6′-(diethylamino)-3′-methyl-2′-(phenylamino)-;Fluoran, 2′-anilino-6′-(diethylamino)-3′-methyl-;6′-(Diethylamino)-3′-methyl-2′-(phenylamino)spiro[isobenzofuran-1(3<em>H</em>),9′-[9<em>H</em>]xanthen]-3-one;2′-Anilino-3′-methyl-6′-(diethylamino)fluoran;2′-Anilino-6′-(diethylamino)-3′-methylfluoran;3-Diethylamino-6-methyl-7-(phenylamino)fluoran;3′-(Diethylamino)-6′-methyl-7′-anilinofluoran;Copikem IV;Copikem 4;3′-Diethylamino-6′-methyl-7′-phenylaminofluoran;6′-Diethylamino-3′-methyl-2′-phenylaminofluoran;N 102;2-Anilino-3-methyl-6-diethylaminofluoran;ODB;3-Diethylamino-6-methyl-7-anilinofluoran;Yamamoto Black N 102;Black N 102;Pergascript Black 1C;Chameleon TP Black 35;Copikem 4 Black;3-Diethylamino-6-methyl-7-phenylaminofluorane;Pergascript Black IR;Pergascript Black I-R;2-Phenylamino-3-methyl-6-diethylaminofluoran;Chameleon Black 1;2′-Anilino-6′-(diethylamino)-3′-methylspiro[2-benzofuran-3,9′-xanthene]-1-one",
    "duplicated_cas_no": "89591-41-3;96142-57-3;98565-99-2;195740-05-7",
    "SMILES": "O=C1OC2(C=3C(OC=4C2=CC=C(N(CC)CC)C4)=CC(C)=C(NC5=CC=CC=C5)C3)C=6C1=CC=CC6",
    "meta_data": {
        "InChI": "InChI=1S/C31H28N2O3/c1-4-33(5-2)22-15-16-25-29(18-22)35-28-17-20(3)27(32-21-11-7-6-8-12-21)19-26(28)31(25)24-14-10-9-13-23(24)30(34)36-31/h6-19,32H,4-5H2,1-3H3",
        "InChIKey": null,
        "Canonical SMILES": "O=C1OC2(C3=CC=C(C=C3OC=4C=C(C(=CC42)NC=5C=CC=CC5)C)N(CC)CC)C=6C=CC=CC16",
        "Molecular Formula": "C<sub>31</sub>H<sub>28</sub>N<sub>2</sub>O<sub>3</sub>",
        "Molecular Mass": "476.57",
        "Melting Point": "195-197 °C"
    }
}