{
    "cas_no": "129618-40-2",
    "key_name": "Nevirapine",
    "cn_name": "奈伟拉平;那韦拉平;萘维拉平;",
    "alternate_name": "6<em>H</em>-Dipyrido[3,2-<em>b</em>:2′,3′-<em>e</em>][1,4]diazepin-6-one, 11-cyclopropyl-5,11-dihydro-4-methyl-;11-Cyclopropyl-5,11-dihydro-4-methyl-6<em>H</em>-dipyrido[3,2-<em>b</em>:2′,3′-<em>e</em>][1,4]diazepin-6-one;BI-RG 587;Nevirapine;Nevarapine;Viramune;NSC 641530;NVP;11-Cyclopropyl-4-methylDipyrido[3,2-<em>b</em>:2′,3′-<em>e</em>][1,4]diazepin-6-one;MeSH ID: D019829;NVP 100",
    "duplicated_cas_no": "339524-51-5",
    "SMILES": "CC1=C2C(N(C=3C(C(=O)N2)=CC=CN3)C4CC4)=NC=C1",
    "meta_data": {
        "InChI": "InChI=1S/C15H14N4O/c1-9-6-8-17-14-12(9)18-15(20)11-3-2-7-16-13(11)19(14)10-4-5-10/h2-3,6-8,10H,4-5H2,1H3,(H,18,20)",
        "InChIKey": null,
        "Canonical SMILES": "O=C1NC=2C(=NC=CC2C)N(C3=NC=CC=C13)C4CC4",
        "Molecular Formula": "C<sub>15</sub>H<sub>14</sub>N<sub>4</sub>O",
        "Molecular Mass": "266.30",
        "Melting Point": "247-249 °C"
    }
}