{
    "cas_no": "78-86-4",
    "key_name": "2-Chlorobutane",
    "cn_name": "氯代仲丁烷;2-氯丁烷;",
    "alternate_name": "Butane, 2-chloro-;2-Chlorobutane;<em>sec</em>-Butyl chloride;1-Methylpropyl chloride;(±)-2-Chlorobutane",
    "duplicated_cas_no": "53178-20-4",
    "SMILES": "C(CC)(C)Cl",
    "meta_data": {
        "InChI": "InChI=1S/C4H9Cl/c1-3-4(2)5/h4H,3H2,1-2H3",
        "InChIKey": null,
        "Canonical SMILES": "ClC(C)CC",
        "Molecular Formula": "C<sub>4</sub>H<sub>9</sub>Cl",
        "Molecular Mass": "92.57",
        "Boiling Point": "68 °C",
        "Melting Point": "-140 °C",
        "Density": "0.86210 g/cm³ @ Temp: 30 °C"
    }
}