{
    "cas_no": "254-60-4",
    "key_name": "1,8-Naphthyridine",
    "cn_name": "1,8-二氮杂萘;",
    "alternate_name": "1,8-Naphthyridine;1,8-Diazanaphthalene;1,8-Pyridopyridine",
    "duplicated_cas_no": "",
    "SMILES": "C12=C(N=CC=C1)N=CC=C2",
    "meta_data": {
        "InChI": "InChI=1S/C8H6N2/c1-3-7-4-2-6-10-8(7)9-5-1/h1-6H",
        "InChIKey": null,
        "Canonical SMILES": "N=1C=CC=C2C=CC=NC12",
        "Molecular Formula": "C<sub>8</sub>H<sub>6</sub>N<sub>2</sub>",
        "Molecular Mass": "130.15",
        "Melting Point": "98-99 °C"
    }
}