{
    "cas_no": "132-65-0",
    "key_name": "Dibenzothiophene",
    "cn_name": "二苯并噻吩;",
    "alternate_name": "Dibenzothiophene;2,2′-Biphenylylene sulfide;Diphenylene sulfide;9-Thiafluorene;[1,1′-Biphenyl]-2,2′-diyl sulfide;Dibenzo[<em>b</em>,<em>d</em>]thiophene;DBT;NSC 2843",
    "duplicated_cas_no": "",
    "SMILES": "C1=2C=3C(SC1=CC=CC2)=CC=CC3",
    "meta_data": {
        "InChI": "InChI=1S/C12H8S/c1-3-7-11-9(5-1)10-6-2-4-8-12(10)13-11/h1-8H",
        "InChIKey": null,
        "Canonical SMILES": "S1C=2C=CC=CC2C=3C=CC=CC13",
        "Molecular Formula": "C<sub>12</sub>H<sub>8</sub>S",
        "Molecular Mass": "184.26",
        "Boiling Point": "332.5 °C",
        "Melting Point": "97 °C",
        "Density": "1.35 g/cm³ (crystalline)"
    }
}