{
    "cas_no": "40796-97-2",
    "key_name": "Bemesetron",
    "cn_name": "贝美司琼;",
    "alternate_name": "Benzoic acid, 3,5-dichloro-, (3-<em>endo</em>)-8-methyl-8-azabicyclo[3.2.1]oct-3-yl ester;Benzoic acid, 3,5-dichloro-, 8-methyl-8-azabicyclo[3.2.1]oct-3-yl ester, <em>endo</em>-;MDL 72222;Bemesetron",
    "duplicated_cas_no": "",
    "SMILES": "O(C(=O)C1=CC(Cl)=CC(Cl)=C1)[C@H]2C[C@@]3(N(C)[C@](C2)(CC3)[H])[H]",
    "meta_data": {
        "InChI": "InChI=1/C15H17Cl2NO2/c1-18-12-2-3-13(18)8-14(7-12)20-15(19)9-4-10(16)6-11(17)5-9/h4-6,12-14H,2-3,7-8H2,1H3/t12-,13+,14+",
        "InChIKey": null,
        "Canonical SMILES": "O=C(OC1CC2N(C)C(CC2)C1)C=3C=C(Cl)C=C(Cl)C3",
        "Molecular Formula": "C<sub>15</sub>H<sub>17</sub>Cl<sub>2</sub>NO<sub>2</sub>",
        "Molecular Mass": "314.21",
        "Melting Point": "165 °C"
    }
}