{
    "cas_no": "17356-19-3",
    "key_name": "1-Ethynylcyclopentanol",
    "cn_name": "1-乙炔环戊醇;",
    "alternate_name": "Cyclopentanol, 1-ethynyl-;1-Ethynylcyclopentanol;1-Ethynyl-1-cyclopentanol;NSC 134047",
    "duplicated_cas_no": "2360801-00-7",
    "SMILES": "C(#C)C1(O)CCCC1",
    "meta_data": {
        "InChI": "InChI=1S/C7H10O/c1-2-7(8)5-3-4-6-7/h1,8H,3-6H2",
        "InChIKey": null,
        "Canonical SMILES": "C#CC1(O)CCCC1",
        "Molecular Formula": "C<sub>7</sub>H<sub>10</sub>O",
        "Molecular Mass": "110.15",
        "Boiling Point": "157.5 °C",
        "Melting Point": "27 °C",
        "Density": "0.9746 g/cm³ @ Temp: 20 °C"
    }
}