{
    "cas_no": "73573-88-3",
    "key_name": "Mevastatin",
    "cn_name": "美伐他汀;",
    "alternate_name": "Butanoic acid, 2-methyl-, (1<em>S</em>,7<em>S</em>,8<em>S</em>,8a<em>R</em>)-1,2,3,7,8,8a-hexahydro-7-methyl-8-[2-[(2<em>R</em>,4<em>R</em>)-tetrahydro-4-hydroxy-6-oxo-2<em>H</em>-pyran-2-yl]ethyl]-1-naphthalenyl ester, (2<em>S</em>)-;Butanoic acid, 2-methyl-, 1,2,3,7,8,8a-hexahydro-7-methyl-8-[2-(tetrahydro-4-hydroxy-6-oxo-2<em>H</em>-pyran-2-yl)ethyl]-1-naphthalenyl ester, [1<em>S</em>-[1α(<em>R</em>*),7β,8β(2<em>S</em>*,4<em>S</em>*),8aβ]]-;Compactin (Penicillium);ML 236B;CS 500;(+)-Compactin;ML 236B lactone;Antibiotic ML 236B;Compactin;Mevastatin;CS 500 (antibiotic);L 637312;Statin I;NSC 281245",
    "duplicated_cas_no": "58948-09-7;60478-65-1",
    "SMILES": "C(C[C@@H]1C[C@@H](O)CC(=O)O1)[C@@H]2[C@]3([C@@H](OC([C@H](CC)C)=O)CCC=C3C=C[C@@H]2C)[H]",
    "meta_data": {
        "InChI": "InChI=1S/C23H34O5/c1-4-14(2)23(26)28-20-7-5-6-16-9-8-15(3)19(22(16)20)11-10-18-12-17(24)13-21(25)27-18/h6,8-9,14-15,17-20,22,24H,4-5,7,10-13H2,1-3H3/t14-,15-,17+,18+,19-,20-,22-/m0/s1",
        "InChIKey": null,
        "Canonical SMILES": "O=C1OC(CCC2C(C=CC3=CCCC(OC(=O)C(C)CC)C32)C)CC(O)C1",
        "Molecular Formula": "C<sub>23</sub>H<sub>34</sub>O<sub>5</sub>",
        "Molecular Mass": "390.51",
        "Melting Point": "152 °C"
    }
}