{
    "cas_no": "1122-41-4",
    "key_name": "2,4-Dichlorobenzenethiol",
    "cn_name": "2,4-二氯苯硫酚;",
    "alternate_name": "Benzenethiol, 2,4-dichloro-;2,4-Dichlorobenzenethiol;2,4-Dichlorothiophenol",
    "duplicated_cas_no": "",
    "SMILES": "ClC1=C(S)C=CC(Cl)=C1",
    "meta_data": {
        "InChI": "InChI=1S/C6H4Cl2S/c7-4-1-2-6(9)5(8)3-4/h1-3,9H",
        "InChIKey": null,
        "Canonical SMILES": "ClC1=CC=C(S)C(Cl)=C1",
        "Molecular Formula": "C<sub>6</sub>H<sub>4</sub>Cl<sub>2</sub>S",
        "Molecular Mass": "179.07",
        "Boiling Point": "115 °C @ Press: 8 Torr",
        "Melting Point": "20 °C"
    }
}