{
    "cas_no": "2566-89-4",
    "key_name": "Methyl arachidonate",
    "cn_name": "花生四烯酸甲酯;",
    "alternate_name": "5,8,11,14-Eicosatetraenoic acid, methyl ester, (5<em>Z</em>,8<em>Z</em>,11<em>Z</em>,14<em>Z</em>)-;5,8,11,14-Eicosatetraenoic acid, methyl ester, (<em>all</em>-<em>Z</em>)-;Arachidonic acid, methyl ester;Methyl <em>all</em>-<em>cis</em>-5,8,11,14-eicosatetraenoate;Methyl arachidonate;Methyl <em>cis</em>,<em>cis</em>,<em>cis</em>,<em>cis</em>-eicosa-5,8,11,14-tetraenoate;Methyl 5<em>Z</em>,8<em>Z</em>,11<em>Z</em>,14<em>Z</em>-eicosatetraenoate",
    "duplicated_cas_no": "2463-04-9",
    "SMILES": "C(=C\\C/C=C\\C/C=C\\C/C=C\\CCCCC)\\CCCC(OC)=O",
    "meta_data": {
        "InChI": "InChI=1S/C21H34O2/c1-3-4-5-6-7-8-9-10-11-12-13-14-15-16-17-18-19-20-21(22)23-2/h7-8,10-11,13-14,16-17H,3-6,9,12,15,18-20H2,1-2H3/b8-7-,11-10-,14-13-,17-16-",
        "InChIKey": null,
        "Canonical SMILES": "O=C(OC)CCCC=CCC=CCC=CCC=CCCCCC",
        "Molecular Formula": "C<sub>21</sub>H<sub>34</sub>O<sub>2</sub>",
        "Molecular Mass": "318.49",
        "Boiling Point": "200-205 °C @ Press: 1-2 Torr",
        "Density": "0.9168 g/cm³ @ Temp: 20 °C"
    }
}