{
    "cas_no": "1117-19-7",
    "key_name": "Dipropyl malonate",
    "cn_name": "丙二酸二丙酯;丙二酸二丙酯;",
    "alternate_name": "Propanedioic acid, 1,3-dipropyl ester;Malonic acid, dipropyl ester;Propanedioic acid, dipropyl ester;Dipropyl malonate;1,3-Dipropyl propanedioate",
    "duplicated_cas_no": "",
    "SMILES": "C(CC(OCCC)=O)(OCCC)=O",
    "meta_data": {
        "InChI": "InChI=1S/C9H16O4/c1-3-5-12-8(10)7-9(11)13-6-4-2/h3-7H2,1-2H3",
        "InChIKey": null,
        "Canonical SMILES": "O=C(OCCC)CC(=O)OCCC",
        "Molecular Formula": "C<sub>9</sub>H<sub>16</sub>O<sub>4</sub>",
        "Molecular Mass": "188.22",
        "Boiling Point": "229.2 °C @ Press: 760 Torr",
        "Melting Point": "-95 °C",
        "Density": "1.01453 g/cm³ @ Temp: 15 °C"
    }
}