{
    "cas_no": "98737-29-2",
    "key_name": "(2<em>S</em>,3<em>S</em>)-(-)-3-<em>tert</em>-Butoxycarbonylamino-1,2-epoxy-4-phenylbutane",
    "cn_name": "1-苄基-2,3-环氧正丙基-氨基甲酸叔丁酯;(2S,3S)-1,2-环氧-3-叔丁氧羰基氨基-4-苯基丁烷;",
    "alternate_name": "Carbamic acid, <em>N</em>-[(1<em>S</em>)-1-[(2<em>S</em>)-2-oxiranyl]-2-phenylethyl]-, 1,1-dimethylethyl ester;Carbamic acid, (1-oxiranyl-2-phenylethyl)-, 1,1-dimethylethyl ester, [<em>S</em>-(<em>R</em>*,<em>R</em>*)]-;Carbamic acid, [(1<em>S</em>)-1-(2<em>S</em>)-oxiranyl-2-phenylethyl]-, 1,1-dimethylethyl ester;(2<em>S</em>,3<em>S</em>)-(-)-3-<em>tert</em>-Butoxycarbonylamino-1,2-epoxy-4-phenylbutane;<em>tert</em>-Butyl [(1<em>S</em>)-1-((2<em>S</em>)-oxiranyl)-2-phenylethyl]carbamate;(2<em>S</em>)-[(1<em>S</em>)-1-[(<em>tert</em>-Butoxycarbonyl)amino]-2-phenylethyl]oxirane;<em>tert</em>-Butyl [(1S)-1-[(2S)-oxiranyl]-2-phenylethyl]carbamate;[(1<em>S</em>)-1-((2<em>S</em>)-Oxiranyl)-2-phenylethyl]carbamic acid tert-butyl ester;<em>tert</em>-Butyl [(1<em>S</em>)-1-((2<em>S</em>)-oxiran-2-yl)-2-phenylethyl]carbamate;(2<em>S</em>,3<em>S</em>)-3-[(<em>tert</em>-Butoxycarbonyl)amino]-1,2-epoxy-4-phenylbutane;<em>tert</em>-Butyl <em>N</em>-[(1S)-1-[(2S)-oxiran-2-yl]-2-phenylethyl]carbamate",
    "duplicated_cas_no": "2415386-85-3",
    "SMILES": "[C@@H](CC1=CC=CC=C1)(NC(OC(C)(C)C)=O)[C@]2(CO2)[H]",
    "meta_data": {
        "InChI": "InChI=1S/C15H21NO3/c1-15(2,3)19-14(17)16-12(13-10-18-13)9-11-7-5-4-6-8-11/h4-8,12-13H,9-10H2,1-3H3,(H,16,17)/t12-,13+/m0/s1",
        "InChIKey": null,
        "Canonical SMILES": "O=C(OC(C)(C)C)NC(CC=1C=CC=CC1)C2OC2",
        "Molecular Formula": "C<sub>15</sub>H<sub>21</sub>NO<sub>3</sub>",
        "Molecular Mass": "263.33",
        "Melting Point": "121-122 °C"
    }
}