{
    "cas_no": "2688-84-8",
    "key_name": "2-Phenoxyaniline",
    "cn_name": "2-氨基二苯醚;",
    "alternate_name": "Benzenamine, 2-phenoxy-;Aniline, <em>o</em>-phenoxy-;2-Phenoxybenzenamine;2-Aminodiphenyl ether;<em>o</em>-Phenoxyaniline;<em>o</em>-Aminophenyl phenyl ether;2-Phenoxyaniline;<em>o</em>-Aminodiphenyl ether;NSC 39655;2-Phenoxyphenylamine;2-Aminophenyl phenyl ether;2-Phenoxylaniline;2-Phenoxaniline",
    "duplicated_cas_no": "",
    "SMILES": "O(C1=C(N)C=CC=C1)C2=CC=CC=C2",
    "meta_data": {
        "InChI": "InChI=1S/C12H11NO/c13-11-8-4-5-9-12(11)14-10-6-2-1-3-7-10/h1-9H,13H2",
        "InChIKey": null,
        "Canonical SMILES": "O(C=1C=CC=CC1)C=2C=CC=CC2N",
        "Molecular Formula": "C<sub>12</sub>H<sub>11</sub>NO",
        "Molecular Mass": "185.22",
        "Boiling Point": "308 °C",
        "Melting Point": "45.8 °C"
    }
}