{
    "cas_no": "67686-01-5",
    "key_name": "1-(Phenylmethyl)-4-piperidinemethanol",
    "cn_name": "1-苄基-4-哌啶甲醇;",
    "alternate_name": "4-Piperidinemethanol, 1-(phenylmethyl)-;1-(Phenylmethyl)-4-piperidinemethanol;1-Benzyl-4-(hydroxymethyl)piperidine;1-Benzyl-4-piperidinemethanol;(1-Benzyl-4-piperidyl)methanol;<em>N</em>-(Phenylmethyl)piperidine-4-methanol;4-Hydroxymethyl-1-(phenylmethyl)piperidine;(1-Benzylpiperidin-4-yl)methanol;<em>N</em>-Benzyl-4-hydroxymethylpiperidine",
    "duplicated_cas_no": "",
    "SMILES": "C(N1CCC(CO)CC1)C2=CC=CC=C2",
    "meta_data": {
        "InChI": "InChI=1S/C13H19NO/c15-11-13-6-8-14(9-7-13)10-12-4-2-1-3-5-12/h1-5,13,15H,6-11H2",
        "InChIKey": null,
        "Canonical SMILES": "OCC1CCN(CC=2C=CC=CC2)CC1",
        "Molecular Formula": "C<sub>13</sub>H<sub>19</sub>NO",
        "Molecular Mass": "205.30",
        "Boiling Point": "122-123 °C @ Press: 0.3 Torr"
    }
}