{
    "cas_no": "2279-16-5",
    "key_name": "<em>N</em>-(2-Chloroacetyl)-<span class=\"text-smallcaps\">L</span>-valine",
    "cn_name": null,
    "alternate_name": "<span class=\"text-smallcaps\">L</span>-Valine, <em>N</em>-(2-chloroacetyl)-;Valine, <em>N</em>-(chloroacetyl)-, <span class=\"text-smallcaps\">L</span>-;<span class=\"text-smallcaps\">L</span>-Valine, <em>N</em>-(chloroacetyl)-;<em>N</em>-(2-Chloroacetyl)-<span class=\"text-smallcaps\">L</span>-valine;<em>N</em>-Chloroacetyl-<span class=\"text-smallcaps\">L</span>-valine;NSC 97928;(2S)-2-(2-Chloroacetamido)-3-methylbutanoic acid;(<em>S</em>)-2-(2-Chloroacetamido)-3-methylbutanoic acid;(2S)-2-[(2-Chloroacetyl)amino]-3-methyl-butanoic acid",
    "duplicated_cas_no": "",
    "SMILES": "[C@H](NC(CCl)=O)([C@H](C)C)C(O)=O",
    "meta_data": {
        "InChI": "InChI=1S/C7H12ClNO3/c1-4(2)6(7(11)12)9-5(10)3-8/h4,6H,3H2,1-2H3,(H,9,10)(H,11,12)/t6-/m0/s1",
        "InChIKey": null,
        "Canonical SMILES": "O=C(NC(C(=O)O)C(C)C)CCl",
        "Molecular Formula": "C<sub>7</sub>H<sub>12</sub>ClNO<sub>3</sub>",
        "Molecular Mass": "193.63",
        "Melting Point": "128-130 °C"
    }
}