{
    "cas_no": "1134-36-7",
    "key_name": "2-Amino-4-phenylphenol",
    "cn_name": "3-氨基-4-羟基联苯;",
    "alternate_name": "[1,1′-Biphenyl]-4-ol, 3-amino-;4-Biphenylol, 3-amino-;Phenol, 2-amino-4-phenyl-;3-Amino[1,1′-biphenyl]-4-ol;3-Amino-4-hydroxybiphenyl;2-Amino-4-phenylphenol;2-Hydroxy-5-phenylaniline;4-Phenyl-2-aminophenol;NSC 7950;3-Amino-4-biphenylol",
    "duplicated_cas_no": "",
    "SMILES": "NC=1C=C(C=CC1O)C2=CC=CC=C2",
    "meta_data": {
        "InChI": "InChI=1S/C12H11NO/c13-11-8-10(6-7-12(11)14)9-4-2-1-3-5-9/h1-8,14H,13H2",
        "InChIKey": null,
        "Canonical SMILES": "OC=1C=CC(=CC1N)C=2C=CC=CC2",
        "Molecular Formula": "C<sub>12</sub>H<sub>11</sub>NO",
        "Molecular Mass": "185.22",
        "Melting Point": "208 °C"
    }
}