{
    "cas_no": "16094-31-8",
    "key_name": "5-(1,1-Dimethylethyl)-2-hydroxybenzoic acid",
    "cn_name": null,
    "alternate_name": "Benzoic acid, 5-(1,1-dimethylethyl)-2-hydroxy-;Salicylic acid, 5-<em>tert</em>-butyl-;5-(1,1-Dimethylethyl)-2-hydroxybenzoic acid;5-<em>tert</em>-Butylsalicylic acid;5-<em>tert</em>-Butyl-2-hydroxybenzoic acid;2-Hydroxy-5-<em>tert</em>-butylbenzoic acid;5-(1,1-Dimethylethyl)salicylic acid;NSC 53153;NSC 94402",
    "duplicated_cas_no": "50274-56-1",
    "SMILES": "C(O)(=O)C1=CC(C(C)(C)C)=CC=C1O",
    "meta_data": {
        "InChI": "InChI=1S/C11H14O3/c1-11(2,3)7-4-5-9(12)8(6-7)10(13)14/h4-6,12H,1-3H3,(H,13,14)",
        "InChIKey": null,
        "Canonical SMILES": "O=C(O)C1=CC(=CC=C1O)C(C)(C)C",
        "Molecular Formula": "C<sub>11</sub>H<sub>14</sub>O<sub>3</sub>",
        "Molecular Mass": "194.23",
        "Melting Point": "151 °C"
    }
}