{
    "cas_no": "3778-73-2",
    "key_name": "Ifosfamide",
    "cn_name": "异环磷酰胺;3-(2-氯乙基)-2-[(2-氯乙基)氨基]四氢-2H-1,3,2-噁磷-2-氧化物;",
    "alternate_name": "2<em>H</em>-1,3,2-Oxazaphosphorin-2-amine, <em>N</em>,3-bis(2-chloroethyl)tetrahydro-, 2-oxide;2<em>H</em>-1,3,2-Oxazaphosphorine, 3-(2-chloroethyl)-2-[(2-chloroethyl)amino]tetrahydro-, 2-oxide;A 4942;3-(2-Chloroethyl)-2-(2-chloroethylamino)tetrahydro-2<em>H</em>-1,3,2-oxaazaphosphorin 2-oxide;Ifosfamide;3-(2-Chloroethyl)-2-(2-chloroethylamino)tetrahydro-2<em>H</em>-1,3,2-oxazaphosphorine 2-oxide;Asta Z 4942;Isoendoxan;Isophosphamide;NSC 109724;Ifosfamid;Iphosphamide;3-(2-Chloroethyl)-2-(2-chloroethylamino)tetrahydro-2<em>H</em>-1,3,2-oxazaphosphorin 2-oxide;Holoxan 1000;Isofosfamide;Z 4942;Ifomide;Ifosphamide;Mitoxana;Holoxan;(±)-Ifosfamide;Cyfos;Naxamide;Ifex;MJF 9325;Ifosfomide;(2-Chloro-ethyl)-[3-(2-chloro-ethyl)-2-oxo-2λ*5*-[1,3,2]oxazaphosphinan-2-yl]-amine;MeSH ID: D007069",
    "duplicated_cas_no": "36341-88-5;84711-20-6",
    "SMILES": "C(CCl)N1P(NCCCl)(=O)OCCC1",
    "meta_data": {
        "InChI": "InChI=1S/C7H15Cl2N2O2P/c8-2-4-10-14(12)11(6-3-9)5-1-7-13-14/h1-7H2,(H,10,12)",
        "InChIKey": null,
        "Canonical SMILES": "O=P1(OCCCN1CCCl)NCCCl",
        "Molecular Formula": "C<sub>7</sub>H<sub>15</sub>Cl<sub>2</sub>N<sub>2</sub>O<sub>2</sub>P",
        "Molecular Mass": "261.09",
        "Melting Point": "39-41 °C"
    }
}