{
    "cas_no": "626-38-0",
    "key_name": "2-Pentyl acetate",
    "cn_name": "1-甲基乙酸丁酯;醋酸仲戊酯;乙酸仲戊酯;",
    "alternate_name": "2-Pentanol, 2-acetate;2-Pentanol, acetate;1-Methylbutyl acetate;2-Acetoxypentane;2-Pentyl acetate;Pent-2-yl ethanoate;(±)-2-Pentyl acetate;<em>sec</em>-Amyl ethanoate",
    "duplicated_cas_no": "116783-17-6",
    "SMILES": "O(C(CCC)C)C(C)=O",
    "meta_data": {
        "InChI": "InChI=1S/C7H14O2/c1-4-5-6(2)9-7(3)8/h6H,4-5H2,1-3H3",
        "InChIKey": null,
        "Canonical SMILES": "O=C(OC(C)CCC)C",
        "Molecular Formula": "C<sub>7</sub>H<sub>14</sub>O<sub>2</sub>",
        "Molecular Mass": "130.18",
        "Boiling Point": "130-131 °C",
        "Melting Point": "-78.5 °C",
        "Density": "0.862-0.866 g/cm³ @ Temp: 20 °C"
    }
}