{
    "cas_no": "20826-04-4",
    "key_name": "5-Bromonicotinic acid",
    "cn_name": "5-溴烟酸;",
    "alternate_name": "3-Pyridinecarboxylic acid, 5-bromo-;Nicotinic acid, 5-bromo-;5-Bromo-3-pyridinecarboxylic acid;5-Bromonicotinic acid;3-Carboxy-5-bromopyridine;NSC 9461;5-Bromopyridinyl-3-carboxylic acid;5-Bromo-3-pyridincarboxylic acid",
    "duplicated_cas_no": "",
    "SMILES": "C(O)(=O)C=1C=C(Br)C=NC1",
    "meta_data": {
        "InChI": "InChI=1S/C6H4BrNO2/c7-5-1-4(6(9)10)2-8-3-5/h1-3H,(H,9,10)",
        "InChIKey": null,
        "Canonical SMILES": "O=C(O)C=1C=NC=C(Br)C1",
        "Molecular Formula": "C<sub>6</sub>H<sub>4</sub>BrNO<sub>2</sub>",
        "Molecular Mass": "202.01",
        "Melting Point": "182-183 °C"
    }
}