{
    "cas_no": "1540-29-0",
    "key_name": "Hexanoic acid, 2-acetyl-, ethyl ester",
    "cn_name": "2-正丁基乙酰乙酸乙酯;",
    "alternate_name": "Hexanoic acid, 2-acetyl-, ethyl ester;Caproic acid, α-acetyl-, ethyl ester;Ethyl 2-acetylhexanoate;Ethyl α-butylacetoacetate;3-Carbethoxy-2-heptanone;Ethyl 2-butylacetylacetate;Ethyl 2-butyl-3-oxobutanoate;Ethyl 2-butylacetoacetate;2-Acetylhexanoic acid ethyl ester;NSC 11771;NSC 25322;NSC 404202",
    "duplicated_cas_no": "152548-73-7",
    "SMILES": "C(C(OCC)=O)(CCCC)C(C)=O",
    "meta_data": {
        "InChI": "InChI=1S/C10H18O3/c1-4-6-7-9(8(3)11)10(12)13-5-2/h9H,4-7H2,1-3H3",
        "InChIKey": null,
        "Canonical SMILES": "O=C(OCC)C(C(=O)C)CCCC",
        "Molecular Formula": "C<sub>10</sub>H<sub>18</sub>O<sub>3</sub>",
        "Molecular Mass": "186.25",
        "Boiling Point": "221.5 °C",
        "Density": "0.9539 g/cm³ @ Temp: 16.5 °C"
    }
}