{
    "cas_no": "1192491-61-4",
    "key_name": "Avibactam sodium",
    "cn_name": null,
    "alternate_name": "Sulfuric acid, mono[(1<em>R</em>,2<em>S</em>,5<em>R</em>)-2-(aminocarbonyl)-7-oxo-1,6-diazabicyclo[3.2.1]oct-6-yl] ester, sodium salt (1:1);NXL 104;(2<em>S</em>,5<em>R</em>)-7-Oxo-6-(sulfooxy)-1,6-diazabicyclo[3.2.1]octane-2-carboxamide monosodium salt;Avibactam sodium",
    "duplicated_cas_no": "1383922-24-4",
    "SMILES": "C(N)(=O)[C@H]1[N@@]2C(=O)N(OS(=O)(=O)O)[C@@](C2)(CC1)[H].[Na]",
    "meta_data": {
        "InChI": "InChI=1S/C7H11N3O6S.Na/c8-6(11)5-2-1-4-3-9(5)7(12)10(4)16-17(13,14)15;/h4-5H,1-3H2,(H2,8,11)(H,13,14,15);/t4-,5+;/m1./s1",
        "InChIKey": null,
        "Canonical SMILES": "[Na].O=C(N)C1N2C(=O)N(OS(=O)(=O)O)C(C2)CC1",
        "Molecular Formula": "C<sub>7</sub>H<sub>11</sub>N<sub>3</sub>O<sub>6</sub>S.Na",
        "Molecular Mass": "",
        "Melting Point": "259.1-262.4 °C (decomp)"
    }
}