{
    "cas_no": "3399-73-3",
    "key_name": "1-Cyclohexene-1-ethanamine",
    "cn_name": "2-(1-环己烯基)乙胺;3-(三氯甲基)苯酚乙基呋喃;",
    "alternate_name": "1-Cyclohexene-1-ethanamine;1-Cyclohexene-1-ethylamine;1-Cyclohexen-1-ylethylamine;2-(1-Cyclohexenyl)ethylamine;2-(1-Cyclohexen-1-yl)ethylamine;2-(1-Cyclohexenyl)ethanamine;NSC 26453;1-(2-Aminoethyl)cyclohexene;Cyclohexenylethylamine;2-(Cyclohex-1-en-1-yl)ethanamine;2-(Cyclohex-1-en-1-yl)ethan-1-amine",
    "duplicated_cas_no": "",
    "SMILES": "C(CN)C=1CCCCC1",
    "meta_data": {
        "InChI": "InChI=1S/C8H15N/c9-7-6-8-4-2-1-3-5-8/h4H,1-3,5-7,9H2",
        "InChIKey": null,
        "Canonical SMILES": "NCCC1=CCCCC1",
        "Molecular Formula": "C<sub>8</sub>H<sub>15</sub>N",
        "Molecular Mass": "125.21",
        "Boiling Point": "75-76 °C @ Press: 10 Torr"
    }
}