{
    "cas_no": "24774-58-1",
    "key_name": "2,5-Dibromohexane",
    "cn_name": "2,5-二溴己烷;",
    "alternate_name": "Hexane, 2,5-dibromo-;2,5-Dibromohexane",
    "duplicated_cas_no": "",
    "SMILES": "C(CC(Br)C)C(Br)C",
    "meta_data": {
        "InChI": "InChI=1S/C6H12Br2/c1-5(7)3-4-6(2)8/h5-6H,3-4H2,1-2H3",
        "InChIKey": null,
        "Canonical SMILES": "BrC(C)CCC(Br)C",
        "Molecular Formula": "C<sub>6</sub>H<sub>12</sub>Br<sub>2</sub>",
        "Molecular Mass": "243.97",
        "Boiling Point": "205-211 °C",
        "Melting Point": "39.1-39.4 °C"
    }
}