{
    "cas_no": "84449-80-9",
    "key_name": "Benzoic acid, 4-[2-(1-piperidinyl)ethoxy]-, hydrochloride (1:1)",
    "cn_name": "4-[2-(1-吡咯烷基)乙氧基]苯甲酸盐酸盐;",
    "alternate_name": "Benzoic acid, 4-[2-(1-piperidinyl)ethoxy]-, hydrochloride (1:1);Benzoic acid, 4-[2-(1-piperidinyl)ethoxy]-, hydrochloride;4-(2-Piperidinoethoxy)benzoic acid hydrochloride;4-[2-(1-Piperidinyl)ethoxy]benzoic acid hydrochloride;1-(2-(4-Carboxyphenoxy)ethyl)piperidin-1-ium chloride",
    "duplicated_cas_no": "",
    "SMILES": "O(CCN1CCCCC1)C2=CC=C(C(O)=O)C=C2.Cl",
    "meta_data": {
        "InChI": "InChI=1S/C14H19NO3.ClH/c16-14(17)12-4-6-13(7-5-12)18-11-10-15-8-2-1-3-9-15;/h4-7H,1-3,8-11H2,(H,16,17);1H",
        "InChIKey": null,
        "Canonical SMILES": "Cl.O=C(O)C1=CC=C(OCCN2CCCCC2)C=C1",
        "Molecular Formula": "C<sub>14</sub>H<sub>19</sub>NO<sub>3</sub>.ClH",
        "Molecular Mass": "",
        "Melting Point": "276-277 °C"
    }
}