{
    "cas_no": "94160-25-5",
    "key_name": "Cyclohexanecarboxylic acid, 3-hydroxy-, ethyl ester",
    "cn_name": null,
    "alternate_name": "Cyclohexanecarboxylic acid, 3-hydroxy-, ethyl ester;Ethyl 3-hydroxycyclohexanecarboxylate",
    "duplicated_cas_no": "",
    "SMILES": "C(OCC)(=O)C1CC(O)CCC1",
    "meta_data": {
        "InChI": "InChI=1S/C9H16O3/c1-2-12-9(11)7-4-3-5-8(10)6-7/h7-8,10H,2-6H2,1H3",
        "InChIKey": null,
        "Canonical SMILES": "O=C(OCC)C1CCCC(O)C1",
        "Molecular Formula": "C<sub>9</sub>H<sub>16</sub>O<sub>3</sub>",
        "Molecular Mass": "172.22",
        "Boiling Point": "138 °C @ Press: 9 Torr"
    }
}