{
    "cas_no": "85272-31-7",
    "key_name": "Bis(1,1-dimethylethyl)[[(trifluoromethyl)sulfonyl]oxy]silyl 1,1,1-trifluoromethanesulfonate",
    "cn_name": null,
    "alternate_name": "Methanesulfonic acid, 1,1,1-trifluoro-, bis(1,1-dimethylethyl)[[(trifluoromethyl)sulfonyl]oxy]silyl ester;Methanesulfonic acid, trifluoro-, bis(1,1-dimethylethyl)silylene ester;Bis(1,1-dimethylethyl)[[(trifluoromethyl)sulfonyl]oxy]silyl 1,1,1-trifluoromethanesulfonate;Di-<em>tert</em>-butylsilyl bis(trifluoromethanesulfonate);Di-<em>tert</em>-butylbis(trifluoromethanesulfonato)silane;Di(<em>tert</em>-butyl)silyl ditriflate;(<em>tert</em>-Butyl)<sub>2</sub>(OTf)<sub>2</sub>Si;[Ditert-butyl(trifluoromethylsulfonyloxy)silyl] trifluoromethanesulfonate",
    "duplicated_cas_no": "158228-60-5;2104647-79-0",
    "SMILES": "[Si](OS(C(F)(F)F)(=O)=O)(OS(C(F)(F)F)(=O)=O)(C(C)(C)C)C(C)(C)C",
    "meta_data": {
        "InChI": "InChI=1S/C10H18F6O6S2Si/c1-7(2,3)25(8(4,5)6,21-23(17,18)9(11,12)13)22-24(19,20)10(14,15)16/h1-6H3",
        "InChIKey": null,
        "Canonical SMILES": "O=S(=O)(O[Si](OS(=O)(=O)C(F)(F)F)(C(C)(C)C)C(C)(C)C)C(F)(F)F",
        "Molecular Formula": "C<sub>10</sub>H<sub>18</sub>F<sub>6</sub>O<sub>6</sub>S<sub>2</sub>Si",
        "Molecular Mass": "440.45",
        "Boiling Point": "73-75 °C @ Press: 0.35 Torr",
        "Density": "1.358 g/cm³"
    }
}