{
    "cas_no": "34625-23-5",
    "key_name": "Ethyl glucoside",
    "cn_name": null,
    "alternate_name": "<span class=\"text-smallcaps\">D</span>-Glucopyranoside, ethyl;Ethyl <span class=\"text-smallcaps\">D</span>-glucopyranoside;Ethyl glucoside;Aqua Glucoside",
    "duplicated_cas_no": "27214-60-4",
    "SMILES": "O(CC)C1O[C@H](CO)[C@@H](O)[C@H](O)[C@H]1O",
    "meta_data": {
        "InChI": "InChI=1S/C8H16O6/c1-2-13-8-7(12)6(11)5(10)4(3-9)14-8/h4-12H,2-3H2,1H3/t4-,5-,6+,7-,8?/m1/s1",
        "InChIKey": null,
        "Canonical SMILES": "OCC1OC(OCC)C(O)C(O)C1O",
        "Molecular Formula": "C<sub>8</sub>H<sub>16</sub>O<sub>6</sub>",
        "Molecular Mass": "208.21",
        "Melting Point": "176-179 °C"
    }
}