{
    "cas_no": "866460-33-5",
    "key_name": "Setipiprant",
    "cn_name": null,
    "alternate_name": "5<em>H</em>-Pyrido[4,3-<em>b</em>]indole-5-acetic acid, 8-fluoro-1,2,3,4-tetrahydro-2-(1-naphthalenylcarbonyl)-;8-Fluoro-1,2,3,4-tetrahydro-2-(1-naphthalenylcarbonyl)-5<em>H</em>-pyrido[4,3-<em>b</em>]indole-5-acetic acid;Setipiprant;ACT 129968;2-(2-(1-Naphthoyl)-8-fluoro-1,2,3,4-tetrahydropyrido[4,3-<em>b</em>]indol-5-yl)acetic acid",
    "duplicated_cas_no": "1263765-62-3",
    "SMILES": "C(C(O)=O)N1C2=C(C=3C1=CC=C(F)C3)CN(C(=O)C=4C5=C(C=CC4)C=CC=C5)CC2",
    "meta_data": {
        "InChI": "InChI=1S/C24H19FN2O3/c25-16-8-9-21-19(12-16)20-13-26(11-10-22(20)27(21)14-23(28)29)24(30)18-7-3-5-15-4-1-2-6-17(15)18/h1-9,12H,10-11,13-14H2,(H,28,29)",
        "InChIKey": null,
        "Canonical SMILES": "O=C(O)CN1C=2C=CC(F)=CC2C3=C1CCN(C(=O)C4=CC=CC=5C=CC=CC54)C3",
        "Molecular Formula": "C<sub>24</sub>H<sub>19</sub>FN<sub>2</sub>O<sub>3</sub>",
        "Molecular Mass": "402.42",
        "Melting Point": "224 °C"
    }
}