{
    "cas_no": "89285-03-0",
    "key_name": "Carbamodithioic acid, [(4-amino-2-methyl-5-pyrimidinyl)methyl]-, 1-[2-(acetyloxy)ethyl]-2-oxopropyl ester",
    "cn_name": null,
    "alternate_name": "Carbamodithioic acid, [(4-amino-2-methyl-5-pyrimidinyl)methyl]-, 1-[2-(acetyloxy)ethyl]-2-oxopropyl ester;1-[2-(Acetoxy)ethyl]-2-oxopropyl [(4-amino-2-methyl-5-pyrimidinyl)methyl]dithiocarbamate",
    "duplicated_cas_no": "",
    "SMILES": "C(NC(SC(CCOC(C)=O)C(C)=O)=S)C=1C(N)=NC(C)=NC1",
    "meta_data": {
        "InChI": "InChI=1S/C14H20N4O3S2/c1-8(19)12(4-5-21-10(3)20)23-14(22)17-7-11-6-16-9(2)18-13(11)15/h6,12H,4-5,7H2,1-3H3,(H,17,22)(H2,15,16,18)",
        "InChIKey": null,
        "Canonical SMILES": "O=C(OCCC(SC(=S)NCC1=CN=C(N=C1N)C)C(=O)C)C",
        "Molecular Formula": "C<sub>14</sub>H<sub>20</sub>N<sub>4</sub>O<sub>3</sub>S<sub>2</sub>",
        "Molecular Mass": "356.46",
        "Melting Point": "250 °C (decomp)"
    }
}