{
    "cas_no": "128639-02-1",
    "key_name": "Carfentrazone-ethyl",
    "cn_name": null,
    "alternate_name": "Benzenepropanoic acid, α,2-dichloro-5-[4-(difluoromethyl)-4,5-dihydro-3-methyl-5-oxo-1<em>H</em>-1,2,4-triazol-1-yl]-4-fluoro-, ethyl ester;F 8426;Carfentrazone-ethyl;Aurora;Aurora 50WG;Aurora (pesticide);Spotlight;Spotlight 24EC;Kuaimieling;Aim;Aim (herbicide);Quicksilver T&amp;O;Spotlight Plus;Spotlight (triazolinone herbicide);Ethyl (RS)-2-chloro-3-[2-chloro-5-[4-(difluoromethyl)-4,5-dihydro-3-methyl-5-oxo-1<em>H</em>-1,2,4-triazol-1-yl]-4-fluorophenyl]propionate;Task;Task (herbicide);Shark EW;Zuocaotong",
    "duplicated_cas_no": "",
    "SMILES": "O=C1N(N=C(C)N1C(F)F)C2=CC(CC(C(OCC)=O)Cl)=C(Cl)C=C2F",
    "meta_data": {
        "InChI": "InChI=1S/C15H14Cl2F3N3O3/c1-3-26-13(24)10(17)4-8-5-12(11(18)6-9(8)16)23-15(25)22(14(19)20)7(2)21-23/h5-6,10,14H,3-4H2,1-2H3",
        "InChIKey": null,
        "Canonical SMILES": "O=C(OCC)C(Cl)CC1=CC(=C(F)C=C1Cl)N2N=C(N(C2=O)C(F)F)C",
        "Molecular Formula": "C<sub>15</sub>H<sub>14</sub>Cl<sub>2</sub>F<sub>3</sub>N<sub>3</sub>O<sub>3</sub>",
        "Molecular Mass": "412.19",
        "Boiling Point": "352.5 °C",
        "Melting Point": "-22.1 °C"
    }
}