{
    "cas_no": "5446-18-4",
    "key_name": "Hydrazine, (2,4-dichlorophenyl)-, hydrochloride (1:1)",
    "cn_name": "2,4-二氯苯肼盐酸盐;",
    "alternate_name": "Hydrazine, (2,4-dichlorophenyl)-, hydrochloride (1:1);Hydrazine, (2,4-dichlorophenyl)-, monohydrochloride;2,4-Dichlorophenylhydrazine hydrochloride",
    "duplicated_cas_no": "",
    "SMILES": "N(N)C1=C(Cl)C=C(Cl)C=C1.Cl",
    "meta_data": {
        "InChI": "InChI=1S/C6H6Cl2N2.ClH/c7-4-1-2-6(10-9)5(8)3-4;/h1-3,10H,9H2;1H",
        "InChIKey": null,
        "Canonical SMILES": "Cl.ClC1=CC=C(NN)C(Cl)=C1",
        "Molecular Formula": "C<sub>6</sub>H<sub>6</sub>Cl<sub>2</sub>N<sub>2</sub>.ClH",
        "Molecular Mass": "",
        "Melting Point": "191-193 °C"
    }
}