{
    "cas_no": "19013-10-6",
    "key_name": "Benzoic acid, 4-hydroxy-3-nitro-, ethyl ester",
    "cn_name": "4-羟基-3-硝基苯甲酸乙酯;",
    "alternate_name": "Benzoic acid, 4-hydroxy-3-nitro-, ethyl ester;4-Hydroxy-3-nitrobenzoic acid ethyl ester;Ethyl 4-hydroxy-3-nitrobenzoate;Ethyl 3-nitro-4-hydroxybenzoate;4-(Ethoxycarbonyl)-2-nitrophenol",
    "duplicated_cas_no": "",
    "SMILES": "N(=O)(=O)C1=CC(C(OCC)=O)=CC=C1O",
    "meta_data": {
        "InChI": "InChI=1S/C9H9NO5/c1-2-15-9(12)6-3-4-8(11)7(5-6)10(13)14/h3-5,11H,2H2,1H3",
        "InChIKey": null,
        "Canonical SMILES": "O=C(OCC)C1=CC=C(O)C(=C1)N(=O)=O",
        "Molecular Formula": "C<sub>9</sub>H<sub>9</sub>NO<sub>5</sub>",
        "Molecular Mass": "211.17",
        "Melting Point": "72-74 °C"
    }
}