{
    "cas_no": "2580-77-0",
    "key_name": "β-Hydroxyethyl sulfone",
    "cn_name": null,
    "alternate_name": "Ethanol, 2,2′-sulfonylbis-;Ethanol, 2,2′-sulfonyldi-;2,2′-Sulfonylbis[ethanol];Bis(2-hydroxyethyl) sulfone;β,β′-Dihydroxyethyl sulfone;Bis(β-hydroxyethyl) sulfone;β-Hydroxyethyl sulfone;2,2′-Sulfonyldi[ethanol];BHES 50;Thiodiglycol sulfone;NSC 32716;NSC 50845;2-(2-Hydroxyethylsulfonyl)ethanol;2-(2-Hydroxyethanesulfonyl)ethan-1-ol",
    "duplicated_cas_no": "",
    "SMILES": "S(CCO)(CCO)(=O)=O",
    "meta_data": {
        "InChI": "InChI=1S/C4H10O4S/c5-1-3-9(7,8)4-2-6/h5-6H,1-4H2",
        "InChIKey": null,
        "Canonical SMILES": "O=S(=O)(CCO)CCO",
        "Molecular Formula": "C<sub>4</sub>H<sub>10</sub>O<sub>4</sub>S",
        "Molecular Mass": "154.18",
        "Melting Point": "58.1 °C"
    }
}