{
    "cas_no": "13572-98-0",
    "key_name": "Gadolinium iodide (GdI<sub>3</sub>)",
    "cn_name": "超干碘化钆;",
    "alternate_name": "Gadolinium iodide (GdI<sub>3</sub>);Gadolinium triiodide;Gadolinium iodide",
    "duplicated_cas_no": "",
    "SMILES": "[Gd](I)(I)I",
    "meta_data": {
        "InChI": "InChI=1S/Gd.3HI/h;3*1H/q+3;;;/p-3",
        "InChIKey": null,
        "Canonical SMILES": "I[Gd](I)I",
        "Molecular Formula": "GdI<sub>3</sub>",
        "Molecular Mass": "",
        "Melting Point": "626 °C"
    }
}