{
    "cas_no": "515-64-0",
    "key_name": "Sulfisomidine",
    "cn_name": "磺胺二甲基异嘧啶;",
    "alternate_name": "Benzenesulfonamide, 4-amino-<em>N</em>-(2,6-dimethyl-4-pyrimidinyl)-;Sulfanilamide, <em>N</em><sup>1</sup>-(2,6-dimethyl-4-pyrimidinyl)-;4-Amino-<em>N</em>-(2,6-dimethyl-4-pyrimidinyl)benzenesulfonamide;6-(<em>p</em>-Aminobenzenesulfonamido)-2,4-dimethylpyrimidine;6-(4-Aminobenzenesulfonamido)-2,4-dimethylpyrimidine;6-[(<em>p</em>-Aminobenzenesulfonyl)amino]-2,4-dimethylpyrimidine;6-(<em>p</em>-Aminophenylsulfonamido)-2,4-dimethylpyrimidine;Aristamid;<em>N</em><sup>1</sup>-(2,6-Dimethyl-4-pyrimidinyl)sulfanilamide;2,4-Dimethyl-6-sulfanilamidopyrimidine;2,6-Dimethyl-4-sulfanilamidopyrimidine;Domian;Elcosine;Elkosil;Elkosin;Sulfadimetine;Sulfaisodimerazine;Sulfamethine;6-(Sulfanilamido)-2,4-dimethyl-1,3-diazine;6-Sulfanilamido-2,4-dimethylpyrimidine;Sulfasomidine;Sulfisomidine;Sulphasomidine;4-Sulfanilamido-2,6-dimethylpyrimidine;Sulfisomidin;Sulfasomidin;Mefenal;Aristogyn;Elkosine;Erycon;Sulphisomidine;Elkozin;Domain;Elcosin;4-[[(2,6-Dimethylpyrimidin-4-yl)amino]sulfonyl]aniline;MeSH ID: D013443",
    "duplicated_cas_no": "",
    "SMILES": "S(NC=1C=C(C)N=C(C)N1)(=O)(=O)C2=CC=C(N)C=C2",
    "meta_data": {
        "InChI": "InChI=1S/C12H14N4O2S/c1-8-7-12(15-9(2)14-8)16-19(17,18)11-5-3-10(13)4-6-11/h3-7H,13H2,1-2H3,(H,14,15,16)",
        "InChIKey": null,
        "Canonical SMILES": "O=S(=O)(NC1=NC(=NC(=C1)C)C)C2=CC=C(N)C=C2",
        "Molecular Formula": "C<sub>12</sub>H<sub>14</sub>N<sub>4</sub>O<sub>2</sub>S",
        "Molecular Mass": "278.33",
        "Melting Point": "243 °C",
        "Density": "1.378 g/cm³"
    }
}