{
    "cas_no": "84-81-1",
    "key_name": "Menaquinone 6",
    "cn_name": null,
    "alternate_name": "1,4-Naphthalenedione, 2-[(2<em>E</em>,6<em>E</em>,10<em>E</em>,14<em>E</em>,18<em>E</em>)-3,7,11,15,19,23-hexamethyl-2,6,10,14,18,22-tetracosahexaen-1-yl]-3-methyl-;Farnoquinone, (<em>all</em>-<em>E</em>)-;1,4-Naphthalenedione, 2-(3,7,11,15,19,23-hexamethyl-2,6,10,14,18,22-tetracosahexaenyl)-3-methyl-, (<em>all</em>-<em>E</em>)-;Farnoquinone;1,4-Naphthalenedione, 2-[(2<em>E</em>,6<em>E</em>,10<em>E</em>,14<em>E</em>,18<em>E</em>)-3,7,11,15,19,23-hexamethyl-2,6,10,14,18,22-tetracosahexaenyl]-3-methyl-;2-[(2<em>E</em>,6<em>E</em>,10<em>E</em>,14<em>E</em>,18<em>E</em>)-3,7,11,15,19,23-Hexamethyl-2,6,10,14,18,22-tetracosahexaen-1-yl]-3-methyl-1,4-naphthalenedione;Menaquinone 6;Menaquinone K<sub>6</sub>;Vitamin K<sub>2(30)</sub>;Vitamin MK<sub>6</sub>;MK-6;Vitamin K<sub>2</sub> (MK-6);Vitamin K2-6",
    "duplicated_cas_no": "13319-10-3",
    "SMILES": "O=C1C=2C(C(=O)C(C)=C1C/C=C(/CC/C=C(/CC/C=C(/CC/C=C(/CC/C=C(/CCC=C(C)C)\\C)\\C)\\C)\\C)\\C)=CC=CC2",
    "meta_data": {
        "InChI": "InChI=1S/C41H56O2/c1-30(2)16-11-17-31(3)18-12-19-32(4)20-13-21-33(5)22-14-23-34(6)24-15-25-35(7)28-29-37-36(8)40(42)38-26-9-10-27-39(38)41(37)43/h9-10,16,18,20,22,24,26-28H,11-15,17,19,21,23,25,29H2,1-8H3/b31-18+,32-20+,33-22+,34-24+,35-28+",
        "InChIKey": null,
        "Canonical SMILES": "O=C1C=2C=CC=CC2C(=O)C(=C1C)CC=C(C)CCC=C(C)CCC=C(C)CCC=C(C)CCC=C(C)CCC=C(C)C",
        "Molecular Formula": "C<sub>41</sub>H<sub>56</sub>O<sub>2</sub>",
        "Molecular Mass": "580.88",
        "Melting Point": "50 °C"
    }
}