{
    "cas_no": "1321-74-0",
    "key_name": "Divinylbenzene",
    "cn_name": null,
    "alternate_name": "Benzene, diethenyl-;Benzene, divinyl-;Diethenylbenzene;Divinylbenzene;Vinylstyrene;DVB 960;DVB 96;DVR 960;DVB-H;DVB HP",
    "duplicated_cas_no": "61804-50-0;142315-59-1;1161074-32-3;2056117-87-2",
    "SMILES": "",
    "meta_data": {
        "InChI": "",
        "InChIKey": null,
        "Canonical SMILES": "",
        "Molecular Formula": "C<sub>10</sub>H<sub>10</sub>",
        "Molecular Mass": "",
        "Boiling Point": "200 °C",
        "Melting Point": "-66.9 °C",
        "Density": "0.9 g/cm³"
    }
}