{
    "cas_no": "1929-77-7",
    "key_name": "<em>S</em>-Propyl dipropylthiocarbamate",
    "cn_name": "灭草猛;S-丙基二丙基硫代氨基甲酰酯;灭草猛;S-丙基-N,N-二丙基硫代氨基甲酸酯;灭草敌;卫农;",
    "alternate_name": "Carbamothioic acid, <em>N</em>,<em>N</em>-dipropyl-, <em>S</em>-propyl ester;Carbamic acid, dipropylthio-, <em>S</em>-propyl ester;Carbamothioic acid, dipropyl-, <em>S</em>-propyl ester;R-1607;Dipropylthiocarbamic acid <em>S</em>-propyl ester;PPTC;<em>S</em>-Propyl dipropylthiocarbamate;Propyl dipropylthiolcarbamate;Vernam;Vernolate;Vanalate;<em>S</em>-<em>n</em>-Propyl <em>N</em>,<em>N</em>-dipropylthiocarbamate;Perbulate",
    "duplicated_cas_no": "",
    "SMILES": "N(C(SCCC)=O)(CCC)CCC",
    "meta_data": {
        "InChI": "InChI=1S/C10H21NOS/c1-4-7-11(8-5-2)10(12)13-9-6-3/h4-9H2,1-3H3",
        "InChIKey": null,
        "Canonical SMILES": "O=C(SCCC)N(CCC)CCC",
        "Molecular Formula": "C<sub>10</sub>H<sub>21</sub>NOS",
        "Molecular Mass": "203.34",
        "Boiling Point": "149-150 °C @ Press: 30 Torr",
        "Melting Point": "&lt;25 °C",
        "Density": "0.954 g/cm³ @ Temp: 20 °C"
    }
}