{
    "cas_no": "951127-25-6",
    "key_name": "1,1-Dimethylethyl <em>N</em>-[(2<em>R</em>,3<em>S</em>)-2-(2,5-difluorophenyl)tetrahydro-5-oxo-2<em>H</em>-pyran-3-yl]carbamate",
    "cn_name": null,
    "alternate_name": "Carbamic acid, <em>N</em>-[(2<em>R</em>,3<em>S</em>)-2-(2,5-difluorophenyl)tetrahydro-5-oxo-2<em>H</em>-pyran-3-yl]-, 1,1-dimethylethyl ester;1,1-Dimethylethyl <em>N</em>-[(2<em>R</em>,3<em>S</em>)-2-(2,5-difluorophenyl)tetrahydro-5-oxo-2<em>H</em>-pyran-3-yl]carbamate",
    "duplicated_cas_no": "",
    "SMILES": "N(C(OC(C)(C)C)=O)[C@@H]1[C@H](OCC(=O)C1)C2=C(F)C=CC(F)=C2",
    "meta_data": {
        "InChI": "InChI=1S/C16H19F2NO4/c1-16(2,3)23-15(21)19-13-7-10(20)8-22-14(13)11-6-9(17)4-5-12(11)18/h4-6,13-14H,7-8H2,1-3H3,(H,19,21)/t13-,14+/m0/s1",
        "InChIKey": null,
        "Canonical SMILES": "O=C(OC(C)(C)C)NC1CC(=O)COC1C2=CC(F)=CC=C2F",
        "Molecular Formula": "C<sub>16</sub>H<sub>19</sub>F<sub>2</sub>NO<sub>4</sub>",
        "Molecular Mass": "327.32",
        "Melting Point": "158-160 °C"
    }
}