{
    "cas_no": "621-40-9",
    "key_name": "(3-Methylphenyl)thiourea",
    "cn_name": null,
    "alternate_name": "Thiourea, <em>N</em>-(3-methylphenyl)-;Urea, 2-thio-1-<em>m</em>-tolyl-;Thiourea, (3-methylphenyl)-;<em>N</em>-(3-Methylphenyl)thiourea;<em>m</em>-Tolylthiourea;1-(<em>m</em>-Methylphenyl)thiourea;1-<em>m</em>-Tolylthiourea;3-Tolylthiourea;(3-Methylphenyl)thiourea;NSC 635574",
    "duplicated_cas_no": "",
    "SMILES": "N(C(N)=S)C1=CC(C)=CC=C1",
    "meta_data": {
        "InChI": "InChI=1S/C8H10N2S/c1-6-3-2-4-7(5-6)10-8(9)11/h2-5H,1H3,(H3,9,10,11)",
        "InChIKey": null,
        "Canonical SMILES": "S=C(N)NC1=CC=CC(=C1)C",
        "Molecular Formula": "C<sub>8</sub>H<sub>10</sub>N<sub>2</sub>S",
        "Molecular Mass": "166.24",
        "Melting Point": "110 °C"
    }
}