{
    "cas_no": "15045-43-9",
    "key_name": "2,2,5,5-Tetramethyltetrahydrofuran",
    "cn_name": null,
    "alternate_name": "Furan, tetrahydro-2,2,5,5-tetramethyl-;Tetrahydro-2,2,5,5-tetramethylfuran;2,2,5,5-Tetramethyltetrahydrofuran;2,2,5,5-Tetramethyloxolane",
    "duplicated_cas_no": "",
    "SMILES": "CC1(C)OC(C)(C)CC1",
    "meta_data": {
        "InChI": "InChI=1S/C8H16O/c1-7(2)5-6-8(3,4)9-7/h5-6H2,1-4H3",
        "InChIKey": null,
        "Canonical SMILES": "O1C(C)(C)CCC1(C)C",
        "Molecular Formula": "C<sub>8</sub>H<sub>16</sub>O",
        "Molecular Mass": "128.21",
        "Boiling Point": "112 °C",
        "Density": "0.8013 g/cm³ @ Temp: 420 °C"
    }
}