{
    "cas_no": "12003-78-0",
    "key_name": "Aluminum nickel (AlNi)",
    "cn_name": "镍铝合金;",
    "alternate_name": "Aluminum, compd. with nickel (1:1);AlNi;Aluminum, compd. with nickel (AlNi);Nickel, compd. with aluminum (1:1);Nickel aluminide (NiAl);Aluminum nickel (AlNi);Nickel aluminide AlNi",
    "duplicated_cas_no": "54426-13-0",
    "SMILES": "[Ni].[Al]",
    "meta_data": {
        "InChI": "InChI=1S/Al.Ni",
        "InChIKey": null,
        "Canonical SMILES": "[Al].[Ni]",
        "Molecular Formula": "Al.Ni",
        "Molecular Mass": "",
        "Melting Point": "1380 °C",
        "Density": "5.85 g/cm³"
    }
}