{
    "uri": "substance/pt/12003780",
    "rn": "12003-78-0",
    "name": "Aluminum nickel (AlNi)",
    "images": [],
    "inchi": "InChI=1S/Al.Ni",
    "inchiKey": "InChIKey=NPXOKRUENSOPAO-UHFFFAOYSA-N",
    "smile": "[Ni].[Al]",
    "canonicalSmile": "[Al].[Ni]",
    "molecularFormula": "Al.Ni",
    "molecularMass": "",
    "experimentalProperties": [
        {
            "name": "Melting Point",
            "property": "1380 °C",
            "sourceNumber": 1
        },
        {
            "name": "Density",
            "property": "5.85 g/cm³",
            "sourceNumber": 2
        }
    ],
    "propertyCitations": [
        {
            "docUri": "document/pt/document/30554379",
            "sourceNumber": 1,
            "source": "Fan, Zhan-Guo; Journal of Alloys and Compounds, (2007), 436(1-2), 178-180, CAplus"
        },
        {
            "docUri": "document/pt/document/37651528",
            "sourceNumber": 2,
            "source": "Herbold, E. B.; Acta Materialia, (2011), 59(17), 6717-6728, CAplus"
        }
    ],
    "synonyms": [
        "Aluminum, compd. with nickel (1:1)",
        "AlNi",
        "Aluminum, compd. with nickel (AlNi)",
        "Nickel, compd. with aluminum (1:1)",
        "Nickel aluminide (NiAl)",
        "Aluminum nickel (AlNi)",
        "Nickel aluminide AlNi"
    ],
    "replacedRns": [
        "54426-13-0"
    ],
    "hasMolfile": true,
    "source": "https://commonchemistry.cas.org/detail?cas_rn=12003-78-0"
}