{
    "cas_no": "42728-62-1",
    "key_name": "[4-(Chloromethyl)phenyl]phenylmethanone",
    "cn_name": null,
    "alternate_name": "Methanone, [4-(chloromethyl)phenyl]phenyl-;[4-(Chloromethyl)phenyl]phenylmethanone;4-(Chloromethyl)benzophenone;<em>p</em>-Benzoylbenzyl chloride",
    "duplicated_cas_no": "",
    "SMILES": "C(=O)(C1=CC=C(CCl)C=C1)C2=CC=CC=C2",
    "meta_data": {
        "InChI": "InChI=1S/C14H11ClO/c15-10-11-6-8-13(9-7-11)14(16)12-4-2-1-3-5-12/h1-9H,10H2",
        "InChIKey": null,
        "Canonical SMILES": "O=C(C=1C=CC=CC1)C2=CC=C(C=C2)CCl",
        "Molecular Formula": "C<sub>14</sub>H<sub>11</sub>ClO",
        "Molecular Mass": "230.69",
        "Boiling Point": "200-210 °C @ Press: 4.1 Torr"
    }
}