{
    "cas_no": "5144-52-5",
    "key_name": "Naphazoline nitrate",
    "cn_name": null,
    "alternate_name": "1<em>H</em>-Imidazole, 4,5-dihydro-2-(1-naphthalenylmethyl)-, nitrate (1:1);2-Imidazoline, 2-(1-naphthylmethyl)-, mononitrate;1<em>H</em>-Imidazole, 4,5-dihydro-2-(1-naphthalenylmethyl)-, mononitrate;Naphtyzin;Naphazoline nitrate;Naphthylmethyl-2-imidazoline nitrate;Naphthisin;Naftizin;Rinazin;Naphthizin;Privine nitrate;Privine;Privine (British);Sanorin;Privina;Privin;2-(1-Naphthylmethyl)-4,5-dihydro-1<em>H</em>-imidazole nitrate",
    "duplicated_cas_no": "",
    "SMILES": "N(=O)(=O)O.C(C=1C2=C(C=CC1)C=CC=C2)C=3NCCN3",
    "meta_data": {
        "InChI": "InChI=1S/C14H14N2.HNO3/c1-2-7-13-11(4-1)5-3-6-12(13)10-14-15-8-9-16-14;2-1(3)4/h1-7H,8-10H2,(H,15,16);(H,2,3,4)",
        "InChIKey": null,
        "Canonical SMILES": "O=N(=O)O.N1=C(NCC1)CC2=CC=CC=3C=CC=CC32",
        "Molecular Formula": "C<sub>14</sub>H<sub>14</sub>N<sub>2</sub>.HNO<sub>3</sub>",
        "Molecular Mass": "",
        "Melting Point": "167-168 °C"
    }
}