{
    "cas_no": "621-27-2",
    "key_name": "3-Propylphenol",
    "cn_name": "3-正-丙基苯酚;间正丙基苯酚3-丙基苯酚;",
    "alternate_name": "Phenol, 3-propyl-;Phenol, <em>m</em>-propyl-;3-Propylphenol;<em>m</em>-Propylphenol;3-<em>n</em>-Propylphenol;NSC 46998",
    "duplicated_cas_no": "",
    "SMILES": "C(CC)C1=CC(O)=CC=C1",
    "meta_data": {
        "InChI": "InChI=1S/C9H12O/c1-2-4-8-5-3-6-9(10)7-8/h3,5-7,10H,2,4H2,1H3",
        "InChIKey": null,
        "Canonical SMILES": "OC1=CC=CC(=C1)CCC",
        "Molecular Formula": "C<sub>9</sub>H<sub>12</sub>O",
        "Molecular Mass": "136.19",
        "Boiling Point": "228 °C",
        "Melting Point": "26 °C",
        "Density": "0.9877 g/cm³ @ Temp: 20 °C"
    }
}