{
    "cas_no": "4408-60-0",
    "key_name": "2,4,6-Trimethylbenzeneacetic acid",
    "cn_name": "2,4,6-三甲基苯乙酸;",
    "alternate_name": "Benzeneacetic acid, 2,4,6-trimethyl-;Acetic acid, mesityl-;2,4,6-Trimethylbenzeneacetic acid;2,4,6-Trimethyl-α-toluic acid;2,4,6-Trimethylphenylacetic acid;Mesitylacetic acid;NSC 11348;2-(2,4,6-Trimethylphenyl)acetic acid;2-Mesitylacetic acid",
    "duplicated_cas_no": "",
    "SMILES": "C(C(O)=O)C1=C(C)C=C(C)C=C1C",
    "meta_data": {
        "InChI": "InChI=1S/C11H14O2/c1-7-4-8(2)10(6-11(12)13)9(3)5-7/h4-5H,6H2,1-3H3,(H,12,13)",
        "InChIKey": null,
        "Canonical SMILES": "O=C(O)CC=1C(=CC(=CC1C)C)C",
        "Molecular Formula": "C<sub>11</sub>H<sub>14</sub>O<sub>2</sub>",
        "Molecular Mass": "178.23",
        "Melting Point": "172-172.5 °C"
    }
}