{
    "cas_no": "125-31-5",
    "key_name": "Xylenol blue",
    "cn_name": "二甲苯酚蓝;",
    "alternate_name": "Phenol, 4,4′-(1,1-dioxido-3<em>H</em>-2,1-benzoxathiol-3-ylidene)bis[2,5-dimethyl-;<em>p</em>-Xylenolsulfonephthalein;2,5-Xylenol, 4,4′-(3<em>H</em>-2,1-benzoxathiol-3-ylidene)di-, <em>S</em>,<em>S</em>-dioxide;Phenol, 4,4′-(3<em>H</em>-2,1-benzoxathiol-3-ylidene)bis[2,5-dimethyl-, <em>S</em>,<em>S</em>-dioxide;<em>p</em>-Xylenolsulfophthalein;3<em>H</em>-2,1-Benzoxathiole, phenol deriv.;4,4′-(1,1-Dioxido-3<em>H</em>-2,1-benzoxathiol-3-ylidene)bis[2,5-dimethylphenol];1,4-Dimethyl-5-hydroxybenzenesulfonphthalein;<em>p</em>-Xylenesulfonephthalein;<em>p</em>-Xylenol blue;<em>p</em>-Xylenolsulfonphthalein;Xylenol blue;NSC 10471",
    "duplicated_cas_no": "",
    "SMILES": "CC1=C(C2(C=3C(S(=O)(=O)O2)=CC=CC3)C4=C(C)C=C(O)C(C)=C4)C=C(C)C(O)=C1",
    "meta_data": {
        "InChI": "InChI=1S/C23H22O5S/c1-13-11-20(24)15(3)9-18(13)23(19-10-16(4)21(25)12-14(19)2)17-7-5-6-8-22(17)29(26,27)28-23/h5-12,24-25H,1-4H3",
        "InChIKey": null,
        "Canonical SMILES": "O=S1(=O)OC(C2=CC(=C(O)C=C2C)C)(C3=CC(=C(O)C=C3C)C)C=4C=CC=CC41",
        "Molecular Formula": "C<sub>23</sub>H<sub>22</sub>O<sub>5</sub>S",
        "Molecular Mass": "410.48",
        "Melting Point": "215 °C"
    }
}