{
    "cas_no": "55066-48-3",
    "key_name": "3-Methyl-5-phenyl-1-pentanol",
    "cn_name": "&gamma;-甲基苯戊醇;",
    "alternate_name": "Benzenepentanol, γ-methyl-;γ-Methylbenzenepentanol;3-Methyl-5-phenylpentanol;3-Methyl-5-phenyl-1-pentanol;Phenoxanol;Mefrosol;5-Phenyl-3-methylpentanol",
    "duplicated_cas_no": "72746-98-6",
    "SMILES": "C(CC(CCO)C)C1=CC=CC=C1",
    "meta_data": {
        "InChI": "InChI=1S/C12H18O/c1-11(9-10-13)7-8-12-5-3-2-4-6-12/h2-6,11,13H,7-10H2,1H3",
        "InChIKey": null,
        "Canonical SMILES": "OCCC(C)CCC=1C=CC=CC1",
        "Molecular Formula": "C<sub>12</sub>H<sub>18</sub>O",
        "Molecular Mass": "178.27",
        "Boiling Point": "141-143 °C @ Press: 11 Torr"
    }
}