{
    "cas_no": "102-84-1",
    "key_name": "Triallyl phosphite",
    "cn_name": "亚磷酸三丙烯酯;",
    "alternate_name": "Phosphorous acid, tri-2-propen-1-yl ester;Phosphorous acid, triallyl ester;Allyl phosphite;Phosphorous acid, tri-2-propenyl ester;Triallyloxyphosphine;Triallyl phosphite;NSC 44606",
    "duplicated_cas_no": "",
    "SMILES": "P(OCC=C)(OCC=C)OCC=C",
    "meta_data": {
        "InChI": "InChI=1S/C9H15O3P/c1-4-7-10-13(11-8-5-2)12-9-6-3/h4-6H,1-3,7-9H2",
        "InChIKey": null,
        "Canonical SMILES": "O(P(OCC=C)OCC=C)CC=C",
        "Molecular Formula": "C<sub>9</sub>H<sub>15</sub>O<sub>3</sub>P",
        "Molecular Mass": "202.19",
        "Boiling Point": "71-72.5 °C @ Press: 3 Torr",
        "Density": "1.0534 g/cm³ @ Temp: 0 °C"
    }
}