{
    "cas_no": "19404-18-3",
    "key_name": "5-Chloro-3-methylbenzo[<em>b</em>]thiophene",
    "cn_name": "3-甲基-5-氯苯并噻吩;",
    "alternate_name": "Benzo[<em>b</em>]thiophene, 5-chloro-3-methyl-;5-Chloro-3-methylbenzo[<em>b</em>]thiophene;5-Chloro-3-methylbenzothiophene;NSC 248678",
    "duplicated_cas_no": "",
    "SMILES": "CC=1C=2C(=CC=C(Cl)C2)SC1",
    "meta_data": {
        "InChI": "InChI=1S/C9H7ClS/c1-6-5-11-9-3-2-7(10)4-8(6)9/h2-5H,1H3",
        "InChIKey": null,
        "Canonical SMILES": "ClC=1C=CC=2SC=C(C2C1)C",
        "Molecular Formula": "C<sub>9</sub>H<sub>7</sub>ClS",
        "Molecular Mass": "182.67",
        "Boiling Point": "92-93 °C @ Press: 0.3 Torr"
    }
}