{
    "cas_no": "3966-32-3",
    "key_name": "(-)-Methoxyphenylacetic acid",
    "cn_name": "(R)-(-)-alpha-甲氧基苯乙酸;",
    "alternate_name": "Benzeneacetic acid, α-methoxy-, (α<em>R</em>)-;Acetic acid, methoxyphenyl-, (<em>R</em>)-(-)-;Benzeneacetic acid, α-methoxy-, (<em>R</em>)-;(α<em>R</em>)-α-Methoxybenzeneacetic acid;(<em>R</em>)-(-)-<em>O</em>-Methylmandelic acid;<span class=\"text-smallcaps\">D</span>-(-)-Methoxyphenylacetic acid;(<em>R</em>)-α-Methoxyphenylacetic acid;(<em>R</em>)-<em>O</em>-Methylmandelic acid;(<em>R</em>)-(-)-α-Methoxyphenylacetic acid;(<em>R</em>)-2-Methoxy-2-phenylacetic acid;(<em>R</em>)-2-Phenyl-2-methoxyacetic acid;(2<em>R</em>)-<em>O</em>-Methylmandelic acid;<span class=\"text-smallcaps\">D</span>-α-Methoxyphenylacetic acid;(-)-α-Methoxyphenylacetic acid;(-)-2-Methoxyphenylacetic acid;(-)-(<em>R</em>)-α-Methoxyphenylacetic acid;(<em>R</em>)-α-Methoxy-α-phenylacetic acid;(R)-(-)-2-Methoxy-2-phenylacetic acid;(<em>R</em>)-α-Methoxybenzeneacetic acid;(2<em>R</em>)-2-Methoxy-2-phenylacetic acid;(-)-Methoxyphenylacetic acid;(-)-2-Methoxy-2-phenylacetic acid;(R)-Methoxyphenylacetic acid;(<em>R</em>)-Methoxy(phenyl)acetic acid;(-)-(α<em>R</em>)-α-Methoxybenzeneacetic acid;(<em>R</em>)-α-Methoxybenzeneethanoic acid;(<em>R</em>)-2-Methoxy-2-phenylethanoic acid;(R)-2-Methoxy-2-phenylacetic acid;(<em>R</em>)-(-)-α-Methoxyphenylethanoic acid;(<em>R</em>)-2-Methoxyphenylacetic acid;(2<em>R</em>)-2-Methoxy-2-phenylethanoic acid;(<em>R</em>)-(-)-α-MPA;(R)-α-Methoxy-α-phenylacetic acid;(2R)-2-Methoxy-2-phenylacetic acid;(2R)-Methoxy(phenyl)ethanoic acid;(2<em>R</em>)-Methoxy(phenyl)ethanoic acid",
    "duplicated_cas_no": "",
    "SMILES": "[C@@H](C(O)=O)(OC)C1=CC=CC=C1",
    "meta_data": {
        "InChI": "InChI=1S/C9H10O3/c1-12-8(9(10)11)7-5-3-2-4-6-7/h2-6,8H,1H3,(H,10,11)/t8-/m1/s1",
        "InChIKey": null,
        "Canonical SMILES": "O=C(O)C(OC)C=1C=CC=CC1",
        "Molecular Formula": "C<sub>9</sub>H<sub>10</sub>O<sub>3</sub>",
        "Molecular Mass": "166.17",
        "Melting Point": "65-67 °C"
    }
}