{
    "cas_no": "13570-08-6",
    "key_name": "1<em>H</em>-Benzimidazole-2-acetic acid",
    "cn_name": null,
    "alternate_name": "1<em>H</em>-Benzimidazole-2-acetic acid;2-Benzimidazoleacetic acid;2-(Carboxymethyl)benzimidazole;2-Benzimidazolylacetic acid;(1<em>H</em>-Benzimidazol-2-yl)acetic acid;NSC 525202;2-(1<em>H</em>-Benzimidazol-2-yl)acetic acid;2-(1<em>H</em>-Benzo[<em>d</em>]imidazol-2-yl)acetic acid;2-(1<em>H</em>-1,3-Benzodiazol-2-yl)acetic acid;2-(1<em>H</em>-Benzimidazol-3-ium-2-yl)acetate",
    "duplicated_cas_no": "",
    "SMILES": "C(C(O)=O)C=1NC=2C(N1)=CC=CC2",
    "meta_data": {
        "InChI": "InChI=1S/C9H8N2O2/c12-9(13)5-8-10-6-3-1-2-4-7(6)11-8/h1-4H,5H2,(H,10,11)(H,12,13)",
        "InChIKey": null,
        "Canonical SMILES": "O=C(O)CC1=NC=2C=CC=CC2N1",
        "Molecular Formula": "C<sub>9</sub>H<sub>8</sub>N<sub>2</sub>O<sub>2</sub>",
        "Molecular Mass": "176.17",
        "Melting Point": "116 °C"
    }
}