{
    "cas_no": "63-45-6",
    "key_name": "Primaquine diphosphate",
    "cn_name": "磷酸伯安喹;N4-(6-甲氧基-8-喹啉基)-1-戊二胺二磷酸盐;",
    "alternate_name": "1,4-Pentanediamine, <em>N</em><sup>4</sup>-(6-methoxy-8-quinolinyl)-, phosphate (1:2);Quinoline, 8-[(4-amino-1-methylbutyl)amino]-6-methoxy-, phosphate (1:2);Quinoline, 8-[(4-amino-1-methylbutyl)amino]-6-methoxy-, diphosphate;8-(4-Amino-1-methylbutylamino)-6-methoxyquinoline di(dihydrogen phosphate);8-(4-Amino-1-methylbutylamino)-6-methoxyquinoline diphosphate;Primaquine diphosphate;Primaquine phosphate;WR 2975;NSC 149765;Pharmaniaga;Camden;Malquine;Primaquine bisphosphate",
    "duplicated_cas_no": "84902-21-6",
    "SMILES": "P(=O)(O)(O)O.N(C(CCCN)C)C=1C2=C(C=C(OC)C1)C=CC=N2",
    "meta_data": {
        "InChI": "InChI=1S/C15H21N3O.H3O4P/c1-11(5-3-7-16)18-14-10-13(19-2)9-12-6-4-8-17-15(12)14;1-5(2,3)4/h4,6,8-11,18H,3,5,7,16H2,1-2H3;(H3,1,2,3,4)",
        "InChIKey": null,
        "Canonical SMILES": "O=P(O)(O)O.N=1C=CC=C2C=C(OC)C=C(NC(C)CCCN)C12",
        "Molecular Formula": "C<sub>15</sub>H<sub>21</sub>N<sub>3</sub>O.2H<sub>3</sub>O<sub>4</sub>P",
        "Molecular Mass": "",
        "Melting Point": "197-198 °C"
    }
}