{
    "cas_no": "77128-70-2",
    "key_name": "<em>N</em>-(9-Fluorenylmethoxycarbonyl)-<em>N</em>-methylglycine",
    "cn_name": "芴甲氧羰酰基肌氨酸一水物;",
    "alternate_name": "Glycine, <em>N</em>-[(9<em>H</em>-fluoren-9-ylmethoxy)carbonyl]-<em>N</em>-methyl-;<em>N</em>-[(9<em>H</em>-Fluoren-9-ylmethoxy)carbonyl]-<em>N</em>-methylglycine;<em>N</em>-(9-Fluorenylmethoxycarbonyl)-<em>N</em>-methylglycine;990: PN: WO2006135786 PAGE: 71 claimed protein;298: PN: US20070042401 PAGE: 38 claimed protein;2-([[(9<em>H</em>-Fluoren-9-yl)methoxy]carbonyl](methyl)amino)acetic acid;2-[9<em>H</em>-Fluoren-9-ylmethoxycarbonyl(methyl)amino]acetic acid;2-[[(9<em>H</em>-Fluoren-9-ylmethoxy)carbonyl](methyl)amino]acetic acid;Fmoc-NMeGly-OH",
    "duplicated_cas_no": "",
    "SMILES": "C(OC(N(CC(O)=O)C)=O)C1C=2C(C=3C1=CC=CC3)=CC=CC2",
    "meta_data": {
        "InChI": "InChI=1S/C18H17NO4/c1-19(10-17(20)21)18(22)23-11-16-14-8-4-2-6-12(14)13-7-3-5-9-15(13)16/h2-9,16H,10-11H2,1H3,(H,20,21)",
        "InChIKey": null,
        "Canonical SMILES": "O=C(O)CN(C(=O)OCC1C=2C=CC=CC2C=3C=CC=CC31)C",
        "Molecular Formula": "C<sub>18</sub>H<sub>17</sub>NO<sub>4</sub>",
        "Molecular Mass": "311.33",
        "Melting Point": "118-120 °C"
    }
}