{
    "cas_no": "327-97-9",
    "key_name": "Chlorogenic acid",
    "cn_name": "绿原酸;(1S,3R,4R,5R)-3-[[3-(3,4-二羟基苯基)-1-氧代-2-丙烯基]氧]-1,4,5-三羟基环己烷甲酸;",
    "alternate_name": "Cyclohexanecarboxylic acid, 3-[[3-(3,4-dihydroxyphenyl)-1-oxo-2-propen-1-yl]oxy]-1,4,5-trihydroxy-, (1<em>S</em>,3<em>R</em>,4<em>R</em>,5<em>R</em>)-;Chlorogenic acid;Cyclohexanecarboxylic acid, 3-[[3-(3,4-dihydroxyphenyl)-1-oxo-2-propenyl]oxy]-1,4,5-trihydroxy-, [1<em>S</em>-(1α,3β,4α,5α)]-;Cyclohexanecarboxylic acid, 3-[[3-(3,4-dihydroxyphenyl)-1-oxo-2-propenyl]oxy]-1,4,5-trihydroxy-, (1<em>S</em>,3<em>R</em>,4<em>R</em>,5<em>R</em>)-;(1<em>S</em>,3<em>R</em>,4<em>R</em>,5<em>R</em>)-3-[[3-(3,4-Dihydroxyphenyl)-1-oxo-2-propen-1-yl]oxy]-1,4,5-trihydroxycyclohexanecarboxylic acid;3-Caffeoylquinic acid;3-<em>O</em>-Caffeoylquinic acid;3-(3,4-Dihydroxycinnamoyl)quinic acid;Caffeoylquinic acid;3-<em>O</em>-(3,4-Dihydroxycinnamoyl)-<span class=\"text-smallcaps\">D</span>-quinic acid;NSC 407296;Heriguard;NSC 70861;SW 85834;5-Chlorogenic acid;MeSH ID: D002726",
    "duplicated_cas_no": "108657-60-9;12626-41-4;15076-00-3;16310-14-8;16431-26-8;16431-25-7",
    "SMILES": "O(C(C=CC1=CC(O)=C(O)C=C1)=O)[C@@H]2C[C@@](C(O)=O)(O)C[C@@H](O)[C@H]2O",
    "meta_data": {
        "InChI": "InChI=1S/C16H18O9/c17-9-3-1-8(5-10(9)18)2-4-13(20)25-12-7-16(24,15(22)23)6-11(19)14(12)21/h1-5,11-12,14,17-19,21,24H,6-7H2,(H,22,23)/t11-,12-,14-,16+/m1/s1",
        "InChIKey": null,
        "Canonical SMILES": "O=C(O)C1(O)CC(O)C(O)C(OC(=O)C=CC2=CC=C(O)C(O)=C2)C1",
        "Molecular Formula": "C<sub>16</sub>H<sub>18</sub>O<sub>9</sub>",
        "Molecular Mass": "354.31",
        "Melting Point": "206-207 °C"
    }
}