{
    "cas_no": "997-95-5",
    "key_name": "<em>N</em>-Nitrosodiisobutylamine",
    "cn_name": null,
    "alternate_name": "1-Propanamine, 2-methyl-<em>N</em>-(2-methylpropyl)-<em>N</em>-nitroso-;Dipropylamine, 2,2′-dimethyl-<em>N</em>-nitroso-;2-Methyl-<em>N</em>-(2-methylpropyl)-<em>N</em>-nitroso-1-propanamine;<em>N</em>-Nitrosodiisobutylamine;<em>N</em>,<em>N</em>-Diisobutylnitrosamine;Diisobutylnitrosamine;NSC 134;Diisobutylnitrosoamine;<em>N</em>-Nitroso-di-<em>iso</em>-butylamine",
    "duplicated_cas_no": "",
    "SMILES": "N(CC(C)C)(CC(C)C)N=O",
    "meta_data": {
        "InChI": "InChI=1S/C8H18N2O/c1-7(2)5-10(9-11)6-8(3)4/h7-8H,5-6H2,1-4H3",
        "InChIKey": null,
        "Canonical SMILES": "O=NN(CC(C)C)CC(C)C",
        "Molecular Formula": "C<sub>8</sub>H<sub>18</sub>N<sub>2</sub>O",
        "Molecular Mass": "158.24",
        "Boiling Point": "68 °C @ Press: 1.6 Torr"
    }
}