{
    "cas_no": "40267-72-9",
    "key_name": "Geranyl ethyl ether",
    "cn_name": null,
    "alternate_name": "2,6-Octadiene, 1-ethoxy-3,7-dimethyl-;1-Ethoxy-3,7-dimethyl-2,6-octadiene;Ethyl geranyl ether;Geranyl ethyl ether;2,6-Dimethyl-8-ethoxy-2,6-octadiene",
    "duplicated_cas_no": "",
    "SMILES": "C(CCC=C(C)C)(=CCOCC)C",
    "meta_data": {
        "InChI": "InChI=1S/C12H22O/c1-5-13-10-9-12(4)8-6-7-11(2)3/h7,9H,5-6,8,10H2,1-4H3",
        "InChIKey": null,
        "Canonical SMILES": "O(CC=C(C)CCC=C(C)C)CC",
        "Molecular Formula": "C<sub>12</sub>H<sub>22</sub>O",
        "Molecular Mass": "182.30",
        "Boiling Point": "218 °C",
        "Density": "0.864 g/cm³ @ Temp: 25 °C"
    }
}