{
    "cas_no": "466-26-2",
    "key_name": "Neoline",
    "cn_name": null,
    "alternate_name": "Aconitane-1,8,14-triol, 20-ethyl-6,16-dimethoxy-4-(methoxymethyl)-, (1α,6α,14α,16β)-;Neoline;Bullatine B;11a<em>H</em>-12,3,6a-Ethanylylidene-7,9-methanonaphth[2,3-<em>b</em>]azocine, aconitane-1,8,14-triol deriv.;(1α,6α,14α,16β)-20-Ethyl-6,16-dimethoxy-4-(methoxymethyl)aconitane-1,8,14-triol;Dideacetyldelphisine;Xuan-Wu 3",
    "duplicated_cas_no": "1354-85-4;1368-48-5;856565-15-6",
    "SMILES": "O[C@@H]1[C@@]23[C@]4([C@](COC)(CN(CC)[C@@]2([C@]([C@@H]4OC)([C@]5(O)[C@@]6([C@]3(C[C@@]([C@@H]6O)([C@@H](OC)C5)[H])[H])[H])[H])[H])CC1)[H]",
    "meta_data": {
        "InChI": "InChI=1S/C24H39NO6/c1-5-25-10-22(11-29-2)7-6-15(26)24-13-8-12-14(30-3)9-23(28,16(13)18(12)27)17(21(24)25)19(31-4)20(22)24/h12-21,26-28H,5-11H2,1-4H3/t12-,13-,14+,15+,16-,17+,18+,19+,20-,21-,22+,23-,24+/m1/s1",
        "InChIKey": null,
        "Canonical SMILES": "OC1CCC2(COC)CN(CC)C3C4C(OC)C2C13C5CC6C(O)C5C4(O)CC6OC",
        "Molecular Formula": "C<sub>24</sub>H<sub>39</sub>NO<sub>6</sub>",
        "Molecular Mass": "437.57",
        "Melting Point": "153-154 °C"
    }
}