{
    "cas_no": "591-20-8",
    "key_name": "3-Bromophenol",
    "cn_name": "间溴苯酚;3-溴苯酚;",
    "alternate_name": "Phenol, 3-bromo-;Phenol, <em>m</em>-bromo-;3-Bromophenol;<em>m</em>-Bromophenol",
    "duplicated_cas_no": "",
    "SMILES": "BrC1=CC(O)=CC=C1",
    "meta_data": {
        "InChI": "InChI=1S/C6H5BrO/c7-5-2-1-3-6(8)4-5/h1-4,8H",
        "InChIKey": null,
        "Canonical SMILES": "BrC1=CC=CC(O)=C1",
        "Molecular Formula": "C<sub>6</sub>H<sub>5</sub>BrO",
        "Molecular Mass": "173.01",
        "Boiling Point": "236.5 °C",
        "Melting Point": "33 °C"
    }
}