{
    "cas_no": "150-77-6",
    "key_name": "<em>N</em>,<em>N</em>,<em>N</em>′,<em>N</em>′-Tetraethylethylenediamine",
    "cn_name": "N,N,N,N-四乙基乙丁二胺;N,N,N\",N\"-四乙基乙二胺;",
    "alternate_name": "1,2-Ethanediamine, <em>N</em><sup>1</sup>,<em>N</em><sup>1</sup>,<em>N</em><sup>2</sup>,<em>N</em><sup>2</sup>-tetraethyl-;Ethylenediamine, <em>N</em>,<em>N</em>,<em>N</em>′,<em>N</em>′-tetraethyl-;1,2-Ethanediamine, <em>N</em>,<em>N</em>,<em>N</em>′,<em>N</em>′-tetraethyl-;<em>N</em><sup>1</sup>,<em>N</em><sup>1</sup>,<em>N</em><sup>2</sup>,<em>N</em><sup>2</sup>-Tetraethyl-1,2-ethanediamine;<em>N</em>,<em>N</em>,<em>N</em>′,<em>N</em>′-Tetraethylethylenediamine;<em>N</em>,<em>N</em>,<em>N</em>′,<em>N</em>′-Tetraethylethane-1,2-diamine;1,2-Bis(diethylamino)ethane;TEEDA;[2-(Diethylamino)ethyl]diethylamine",
    "duplicated_cas_no": "",
    "SMILES": "N(CCN(CC)CC)(CC)CC",
    "meta_data": {
        "InChI": "InChI=1S/C10H24N2/c1-5-11(6-2)9-10-12(7-3)8-4/h5-10H2,1-4H3",
        "InChIKey": null,
        "Canonical SMILES": "N(CC)(CC)CCN(CC)CC",
        "Molecular Formula": "C<sub>10</sub>H<sub>24</sub>N<sub>2</sub>",
        "Molecular Mass": "172.31",
        "Boiling Point": "192 °C",
        "Melting Point": "192 °C"
    }
}