{
    "cas_no": "101-38-2",
    "key_name": "2,6-Dichloroquinone-4-chloroimide",
    "cn_name": "2,6-二氯醌-4-氯亚胺;",
    "alternate_name": "2,5-Cyclohexadien-1-one, 2,6-dichloro-4-(chloroimino)-;<em>p</em>-Benzoquinone imine, <em>N</em>,2,6-trichloro-;2,6-Dichloro-4-(chloroimino)-2,5-cyclohexadien-1-one;Gibbs' reagent;2,6-Dichloroquinone-4-chloroimide;<em>N</em>,2,6-Trichlorobenzoquinone imine;2,6-Dichloroquinone chloroimide;2,6-Dichloroquinone-4-chloroimine;2,6-Dichloro-4-<em>N</em>-chloroquinonimine;<em>N</em>,2,6-Trichloro-<em>p</em>-benzoquinoneimine;2,6-Dichlorobenzoquinone chloroimide;<em>N</em>,2,6-Trichloro-<em>p</em>-benzoquinonimine;2,6-Dichloroquinonechloroimine;Named reagents and solutions, Gibbs';2,6-Dichloroquinone chlorimide;2,6-Dichloro-<em>p</em>-benzoquinone-4-chlorimide;2,6-Dichlorobenzoquinone-4-chloroimine;2,6-Dichlorobenzoquinone <em>N</em>-chloroimine;NSC 6293;2,6-Dichloro-4-(chloroimino)cyclohexa-2,5-dienone",
    "duplicated_cas_no": "64216-21-3",
    "SMILES": "N(Cl)=C1C=C(Cl)C(=O)C(Cl)=C1",
    "meta_data": {
        "InChI": "InChI=1S/C6H2Cl3NO/c7-4-1-3(10-9)2-5(8)6(4)11/h1-2H",
        "InChIKey": null,
        "Canonical SMILES": "O=C1C(Cl)=CC(=NCl)C=C1Cl",
        "Molecular Formula": "C<sub>6</sub>H<sub>2</sub>Cl<sub>3</sub>NO",
        "Molecular Mass": "210.45",
        "Melting Point": "66 °C"
    }
}