{
    "cas_no": "612-78-2",
    "key_name": "2,2′-Binaphthalene",
    "cn_name": null,
    "alternate_name": "2,2′-Binaphthalene;2,2′-Binaphthyl;2,2′-Dinaphthyl;β,β′-Binaphthyl;NSC 60426;2-Naphthalen-2-ylnaphthalene",
    "duplicated_cas_no": "",
    "SMILES": "C1(=CC2=C(C=C1)C=CC=C2)C3=CC4=C(C=C3)C=CC=C4",
    "meta_data": {
        "InChI": "InChI=1S/C20H14/c1-3-7-17-13-19(11-9-15(17)5-1)20-12-10-16-6-2-4-8-18(16)14-20/h1-14H",
        "InChIKey": null,
        "Canonical SMILES": "C=1C=CC=2C=C(C=CC2C1)C=3C=CC=4C=CC=CC4C3",
        "Molecular Formula": "C<sub>20</sub>H<sub>14</sub>",
        "Molecular Mass": "254.33",
        "Boiling Point": "452 °C",
        "Melting Point": "188.3 °C"
    }
}