{
    "cas_no": "521-88-0",
    "key_name": "Karanjin",
    "cn_name": "水黄皮素;",
    "alternate_name": "4<em>H</em>-Furo[2,3-<em>h</em>]-1-benzopyran-4-one, 3-methoxy-2-phenyl-;Karanjin;3-Methoxy-2-phenyl-4<em>H</em>-furo[2,3-<em>h</em>]-1-benzopyran-4-one;NSC 335755;Derisom;3-Methoxy-2-phenylfuro[2,3-<em>h</em>]chromen-4-one",
    "duplicated_cas_no": "",
    "SMILES": "O=C1C2=C(C3=C(C=C2)OC=C3)OC(=C1OC)C4=CC=CC=C4",
    "meta_data": {
        "InChI": "InChI=1S/C18H12O4/c1-20-18-15(19)13-7-8-14-12(9-10-21-14)17(13)22-16(18)11-5-3-2-4-6-11/h2-10H,1H3",
        "InChIKey": null,
        "Canonical SMILES": "O=C1C(OC)=C(OC2=C3C=COC3=CC=C12)C=4C=CC=CC4",
        "Molecular Formula": "C<sub>18</sub>H<sub>12</sub>O<sub>4</sub>",
        "Molecular Mass": "292.29",
        "Melting Point": "158 °C"
    }
}