{
    "cas_no": "13678-68-7",
    "key_name": "Furfurylthiol acetate",
    "cn_name": "硫代乙酸糠酯;醋酸糠硫醇酯;",
    "alternate_name": "Ethanethioic acid, <em>S</em>-(2-furanylmethyl) ester;Acetic acid, thio-, <em>S</em>-furfuryl ester;2-Furanmethanethiol, acetate;Furfurylthiol acetate;<em>S</em>-(2-Furanylmethyl)thioacetate",
    "duplicated_cas_no": "",
    "SMILES": "C(SC(C)=O)C1=CC=CO1",
    "meta_data": {
        "InChI": "InChI=1S/C7H8O2S/c1-6(8)10-5-7-3-2-4-9-7/h2-4H,5H2,1H3",
        "InChIKey": null,
        "Canonical SMILES": "O=C(SCC=1OC=CC1)C",
        "Molecular Formula": "C<sub>7</sub>H<sub>8</sub>O<sub>2</sub>S",
        "Molecular Mass": "156.20",
        "Boiling Point": "90-92 °C @ Press: 12 Torr"
    }
}