{
    "cas_no": "4253-22-9",
    "key_name": "Dibutyltin mercaptide",
    "cn_name": "二正丁基硫化锡;二丁基锡硫化;",
    "alternate_name": "Stannane, dibutylthioxo-;Dibutyltin sulfide;Tin, dibutylthioxo-;Dibutylthioxostannane;Tin dibutyl mercaptide;BTS 71;BTS 80;Stann BK 1100L;TN 2000SK;NSC 92620;BTS 80 (tin compound);Stann 825;Dibutyltin mercaptide",
    "duplicated_cas_no": "12737-14-3",
    "SMILES": "[Sn](CCCC)(CCCC)=S",
    "meta_data": {
        "InChI": "InChI=1S/2C4H9.S.Sn/c2*1-3-4-2;;/h2*1,3-4H2,2H3;;",
        "InChIKey": null,
        "Canonical SMILES": "S=[Sn](CCCC)CCCC",
        "Molecular Formula": "C<sub>8</sub>H<sub>18</sub>SSn",
        "Molecular Mass": "265.00",
        "Boiling Point": "210-214 °C @ Press: 1 Torr"
    }
}