{
    "cas_no": "92-79-5",
    "key_name": "3-Hydroxy-<em>N</em>-(4-methoxyphenyl)-2-naphthalenecarboxamide",
    "cn_name": "3-羟基-4\"-甲氧基-2-萘甲酰苯胺;色酚AS-RL;冰染偶合组分11;",
    "alternate_name": "2-Naphthalenecarboxamide, 3-hydroxy-<em>N</em>-(4-methoxyphenyl)-;2-Naphth-<em>p</em>-anisidide, 3-hydroxy-;3-Hydroxy-<em>N</em>-(4-methoxyphenyl)-2-naphthalenecarboxamide;C.I. 37535;Acna Naphthol R;Amanil Naphthol AS-RL;Amarthol AS-RL;Anthonaphthol MRL;Azoground RL;Azoic Coupling Component 11;Azonaphtol PA;Celcot RBL;Cibanaphthol RBL;C.I. Azoic Coupling Component 11;Daito Grounder RL;Hiltonaphthol AS-RL;3-Hydroxy-2-naphth-<em>p</em>-anisidide;<em>N</em>-[2′-Hydroxy-3′-naphthoyl]-4-methoxyaniline;Irganaphthol RBL;Naphtanilide RL;Naphtanilide RL Supra;Naphtazol RL;Naphthanil RL;Naphthoide RL;Naphthol AS-RL Dispersible;Naphthol AS-RL Supra;Naphtoelan RL;Naphtol AS-RL;Naphtol AS-RL Supra;Sanatol RL;Solunaptol PAL;Azotol PA;Naphthol AS-RL;2-Hydroxy-3-[(4-methoxyphenyl)carbamoyl]naphthalene;2-Hydroxy-3-naphth-<em>p</em>-anisidide;3-Hydroxy-4′-methoxy-2-naphthanilide;<em>N</em>-(<em>p</em>-Methoxyphenyl)-3-hydroxynaphthalene-2-carbonamide;Naphthol RL;NSC 37613;Anarthol AS-RL;Conazoic AA;Dycosthol AS-RL;Napthol ASRL;Kiwa Grounder RL;Naftol AS-RL",
    "duplicated_cas_no": "",
    "SMILES": "C(NC1=CC=C(OC)C=C1)(=O)C2=CC3=C(C=C2O)C=CC=C3",
    "meta_data": {
        "InChI": "InChI=1S/C18H15NO3/c1-22-15-8-6-14(7-9-15)19-18(21)16-10-12-4-2-3-5-13(12)11-17(16)20/h2-11,20H,1H3,(H,19,21)",
        "InChIKey": null,
        "Canonical SMILES": "O=C(NC1=CC=C(OC)C=C1)C2=CC=3C=CC=CC3C=C2O",
        "Molecular Formula": "C<sub>18</sub>H<sub>15</sub>NO<sub>3</sub>",
        "Molecular Mass": "293.32",
        "Melting Point": "218-220 °C"
    }
}