{
    "cas_no": "40828-46-4",
    "key_name": "Suprofen",
    "cn_name": "舒洛芬;2-[4-(2-噻吩甲酰基)苯基]-丙酸;",
    "alternate_name": "Benzeneacetic acid, α-methyl-4-(2-thienylcarbonyl)-;α-Methyl-4-(2-thienylcarbonyl)benzeneacetic acid;Suprofen;R 25061;TN 762;Profenal;Racemic suprofen;(±)-Suprofen;Profenol;Sulproltin;Srendam;Masterfen;Topalgic;Sutoprofen;Suprol;Supranol;Suprocil;NSC 303611;2-[4-(Thiophene-2-carbonyl)phenyl]propanoic acid;<em>p</em>-(2-Thenoyl)hydratropic acid;MeSH ID: D013496",
    "duplicated_cas_no": "64382-06-5",
    "SMILES": "C(=O)(C1=CC=C(C(C(O)=O)C)C=C1)C2=CC=CS2",
    "meta_data": {
        "InChI": "InChI=1S/C14H12O3S/c1-9(14(16)17)10-4-6-11(7-5-10)13(15)12-3-2-8-18-12/h2-9H,1H3,(H,16,17)",
        "InChIKey": null,
        "Canonical SMILES": "O=C(O)C(C1=CC=C(C=C1)C(=O)C=2SC=CC2)C",
        "Molecular Formula": "C<sub>14</sub>H<sub>12</sub>O<sub>3</sub>S",
        "Molecular Mass": "260.31",
        "Melting Point": "124.3 °C",
        "Density": "1.37 g/cm³"
    }
}