{
    "cas_no": "1104-22-9",
    "key_name": "Meclizine hydrochloride",
    "cn_name": "盐酸美克洛嗪;盐酸氯苯苄嗪;1-((4-氯苯基)苯甲基)-4-((3-甲苯基)甲基)哌嗪二盐酸盐;",
    "alternate_name": "Piperazine, 1-[(4-chlorophenyl)phenylmethyl]-4-[(3-methylphenyl)methyl]-, hydrochloride (1:2);Piperazine, 1-(<em>p</em>-chloro-α-phenylbenzyl)-4-(<em>m</em>-methylbenzyl)-, dihydrochloride;Piperazine, 1-[(4-chlorophenyl)phenylmethyl]-4-[(3-methylphenyl)methyl]-, dihydrochloride;Ancolan dihydrochloride;Meclizine dihydrochloride;Parachloramine dihydrochloride;Postafene dihydrochloride;Meclozine hydrochloride;Postafen;Diadril;Meclozine dihydrochloride;Bonamine;Meclizine hydrochloride;1-(<em>p</em>-Chloro-α-phenylbenzyl)-4-(<em>m</em>-methylbenzyl)piperazine dihydrochloride;Navidoxine;NSC 28728;1-((4-Chlorophenyl)(phenyl)methyl)-4-(3-methylbenzyl)piperazine dihydrochloride;1-[(4-Chlorophenyl)(phenyl)methyl]-4-[(3-methylphenyl)methyl]piperazine dihydrochloride;Zentrip",
    "duplicated_cas_no": "1639-65-2",
    "SMILES": "C(N1CCN(CC2=CC(C)=CC=C2)CC1)(C3=CC=C(Cl)C=C3)C4=CC=CC=C4.Cl",
    "meta_data": {
        "InChI": "InChI=1S/C25H27ClN2.2ClH/c1-20-6-5-7-21(18-20)19-27-14-16-28(17-15-27)25(22-8-3-2-4-9-22)23-10-12-24(26)13-11-23;;/h2-13,18,25H,14-17,19H2,1H3;2*1H",
        "InChIKey": null,
        "Canonical SMILES": "Cl.ClC1=CC=C(C=C1)C(C=2C=CC=CC2)N3CCN(CC=4C=CC=C(C4)C)CC3",
        "Molecular Formula": "C<sub>25</sub>H<sub>27</sub>ClN<sub>2</sub>.2ClH",
        "Molecular Mass": "",
        "Melting Point": "215 °C"
    }
}