{
    "cas_no": "487-48-9",
    "key_name": "Salacetamide",
    "cn_name": "醋水杨胺;",
    "alternate_name": "Benzamide, <em>N</em>-acetyl-2-hydroxy-;Salicylamide, <em>N</em>-acetyl-;<em>N</em>-Acetyl-2-hydroxybenzamide;<em>N</em>-Acetylsalicylamide;Salacetamide;Arthrisin;Ethrisin;Labazyl;Nacemide;Rixamone;Salicyl;Acetsalicylamide;Actylamide;2-Hydroxy-<em>N</em>-acetylbenzamide;NSC 40153;NSC 525079;NSC 631657",
    "duplicated_cas_no": "",
    "SMILES": "C(NC(C)=O)(=O)C1=C(O)C=CC=C1",
    "meta_data": {
        "InChI": "InChI=1S/C9H9NO3/c1-6(11)10-9(13)7-4-2-3-5-8(7)12/h2-5,12H,1H3,(H,10,11,13)",
        "InChIKey": null,
        "Canonical SMILES": "O=C(NC(=O)C)C=1C=CC=CC1O",
        "Molecular Formula": "C<sub>9</sub>H<sub>9</sub>NO<sub>3</sub>",
        "Molecular Mass": "179.17",
        "Melting Point": "148 °C",
        "Density": "1.39 g/cm³"
    }
}