{
    "cas_no": "59642-21-6",
    "key_name": "<em>N</em>-(4-Nitrobenzoyl)-β-alanine",
    "cn_name": "对硝基苯甲酰-beta-丙氨酸;",
    "alternate_name": "β-Alanine, <em>N</em>-(4-nitrobenzoyl)-;<em>N</em>-(4-Nitrobenzoyl)-β-alanine;3-[(4-Nitrophenyl)formamido]propanoic acid",
    "duplicated_cas_no": "",
    "SMILES": "C(NCCC(O)=O)(=O)C1=CC=C(N(=O)=O)C=C1",
    "meta_data": {
        "InChI": "InChI=1S/C10H10N2O5/c13-9(14)5-6-11-10(15)7-1-3-8(4-2-7)12(16)17/h1-4H,5-6H2,(H,11,15)(H,13,14)",
        "InChIKey": null,
        "Canonical SMILES": "O=C(O)CCNC(=O)C1=CC=C(C=C1)N(=O)=O",
        "Molecular Formula": "C<sub>10</sub>H<sub>10</sub>N<sub>2</sub>O<sub>5</sub>",
        "Molecular Mass": "238.20",
        "Melting Point": "160-161 °C"
    }
}