{
    "cas_no": "112-38-9",
    "key_name": "Undecylenic acid",
    "cn_name": "10-十一烯酸;",
    "alternate_name": "10-Undecenoic acid;Declid;10-Hendecenoic acid;ω-Hendecenoic acid;Renselin;Sevinon;10-Undecylenic acid;Undecylenic acid;Desenex solution;ω-Undecenoic acid;NSC 2013;MeSH ID: D014476",
    "duplicated_cas_no": "949900-17-8",
    "SMILES": "C(CCCCC=C)CCCC(O)=O",
    "meta_data": {
        "InChI": "InChI=1S/C11H20O2/c1-2-3-4-5-6-7-8-9-10-11(12)13/h2H,1,3-10H2,(H,12,13)",
        "InChIKey": null,
        "Canonical SMILES": "O=C(O)CCCCCCCCC=C",
        "Molecular Formula": "C<sub>11</sub>H<sub>20</sub>O<sub>2</sub>",
        "Molecular Mass": "184.28",
        "Boiling Point": "275 °C",
        "Melting Point": "24.5 °C"
    }
}