{
    "cas_no": "127-17-3",
    "key_name": "Pyruvic acid",
    "cn_name": "丙酮酸;",
    "alternate_name": "Propanoic acid, 2-oxo-;Pyruvic acid;2-Oxopropanoic acid;Acetylformic acid;BTS;α-Ketopropionic acid;Pyroracemic acid;2-Oxopropionic acid;NSC 179;MeSH ID: D019289",
    "duplicated_cas_no": "1892-67-7",
    "SMILES": "C(C(O)=O)(C)=O",
    "meta_data": {
        "InChI": "InChI=1S/C3H4O3/c1-2(4)3(5)6/h1H3,(H,5,6)",
        "InChIKey": null,
        "Canonical SMILES": "O=C(O)C(=O)C",
        "Molecular Formula": "C<sub>3</sub>H<sub>4</sub>O<sub>3</sub>",
        "Molecular Mass": "88.06",
        "Boiling Point": "58 °C @ Press: 7 Torr",
        "Melting Point": "13.8 °C",
        "Density": "1.2227 g/cm³ @ Temp: 20 °C"
    }
}