{
    "cas_no": "53636-71-8",
    "key_name": "3-Amino-6-methyl-2-pyridinecarboxylic acid",
    "cn_name": null,
    "alternate_name": "2-Pyridinecarboxylic acid, 3-amino-6-methyl-;Picolinic acid, 3-amino-6-methyl-;3-Amino-6-methyl-2-pyridinecarboxylic acid;3-Amino-6-methylpicolinic acid",
    "duplicated_cas_no": "",
    "SMILES": "C(O)(=O)C1=C(N)C=CC(C)=N1",
    "meta_data": {
        "InChI": "InChI=1S/C7H8N2O2/c1-4-2-3-5(8)6(9-4)7(10)11/h2-3H,8H2,1H3,(H,10,11)",
        "InChIKey": null,
        "Canonical SMILES": "O=C(O)C=1N=C(C=CC1N)C",
        "Molecular Formula": "C<sub>7</sub>H<sub>8</sub>N<sub>2</sub>O<sub>2</sub>",
        "Molecular Mass": "152.15",
        "Melting Point": "205 °C"
    }
}