{
    "cas_no": "1454-85-9",
    "key_name": "1-Heptadecanol",
    "cn_name": null,
    "alternate_name": "1-Heptadecanol;Heptadecyl alcohol;<em>n</em>-Heptadecanol;<em>n</em>-Heptadecyl alcohol;NSC 3921;Margaric alcohol",
    "duplicated_cas_no": "",
    "SMILES": "C(CCCCCCCCO)CCCCCCCC",
    "meta_data": {
        "InChI": "InChI=1S/C17H36O/c1-2-3-4-5-6-7-8-9-10-11-12-13-14-15-16-17-18/h18H,2-17H2,1H3",
        "InChIKey": null,
        "Canonical SMILES": "OCCCCCCCCCCCCCCCCC",
        "Molecular Formula": "C<sub>17</sub>H<sub>36</sub>O",
        "Molecular Mass": "256.47",
        "Boiling Point": "333 °C",
        "Melting Point": "53.8 °C"
    }
}