{
    "cas_no": "1640-89-7",
    "key_name": "Ethylcyclopentane",
    "cn_name": null,
    "alternate_name": "Cyclopentane, ethyl-;Ethylcyclopentane;NSC 74149",
    "duplicated_cas_no": "",
    "SMILES": "C(C)C1CCCC1",
    "meta_data": {
        "InChI": "InChI=1S/C7H14/c1-2-7-5-3-4-6-7/h7H,2-6H2,1H3",
        "InChIKey": null,
        "Canonical SMILES": "CCC1CCCC1",
        "Molecular Formula": "C<sub>7</sub>H<sub>14</sub>",
        "Molecular Mass": "98.19",
        "Boiling Point": "103.5 °C",
        "Melting Point": "-138.4 °C",
        "Density": "0.7610 g/cm³ @ Temp: 20 °C"
    }
}