{
    "cas_no": "26921-17-5",
    "key_name": "Timolol maleate",
    "cn_name": "(S)-马来酸噻吗洛尔;(S)-3-[3-(叔丁基氨基)-2-羟基丙氧基]-4-吗啉基-1,2,5-噻二唑马来酸盐;",
    "alternate_name": "2-Propanol, 1-[(1,1-dimethylethyl)amino]-3-[[4-(4-morpholinyl)-1,2,5-thiadiazol-3-yl]oxy]-, (2<em>S</em>)-, (2<em>Z</em>)-2-butenedioate (1:1);2-Propanol, 1-(<em>tert</em>-butylamino)-3-[(4-morpholino-1,2,5-thiadiazol-3-yl)oxy]-, (-)-, maleate (1:1) (salt);2-Propanol, 1-[(1,1-dimethylethyl)amino]-3-[[4-(4-morpholinyl)-1,2,5-thiadiazol-3-yl]oxy]-, (<em>S</em>)-, (<em>Z</em>)-2-butenedioate (1:1) (salt);2-Propanol, 1-[(1,1-dimethylethyl)amino]-3-[[4-(4-morpholinyl)-1,2,5-thiadiazol-3-yl]oxy]-, (2<em>S</em>)-, (2<em>Z</em>)-2-butenedioate (1:1) (salt);1,2,5-Thiadiazole, 2-propanol deriv.;MK 950;Timolol maleate;<em>l</em>-Timolol maleate;Timoptol;Timacor;Timolol hydrogen maleate;Timoptic;(-)-Timolol maleate;Betime;(<em>S</em>)-Timolol hydrogen maleate;(<em>S</em>)-(-)-Timolol maleate;<span class=\"text-smallcaps\">L</span>-Timolol maleate;Optimol;Timorom;Rysmon TG;WP 934;Blocadren;Blocanol;Aquanil;Tenopt;Proflax;Betim;Temserin;Timacar;Timoptol XE;Istalol;Timolol LA;Timabak;Timomann;Timolet;(<em>S</em>)-Timolol maleate;Apimol;Ophtamolol;Timohexal;Ocumol;Timoftol;Timoptol-LA;Isralol;Timolast",
    "duplicated_cas_no": "116475-10-6;131628-38-1;30166-36-0",
    "SMILES": "O(C[C@H](CNC(C)(C)C)O)C=1C(=NSN1)N2CCOCC2.C(=C\\C(O)=O)\\C(O)=O",
    "meta_data": {
        "InChI": "",
        "InChIKey": null,
        "Canonical SMILES": "O=C(O)C=CC(=O)O.OC(COC1=NSN=C1N2CCOCC2)CNC(C)(C)C",
        "Molecular Formula": "C<sub>13</sub>H<sub>24</sub>N<sub>4</sub>O<sub>3</sub>S.C<sub>4</sub>H<sub>4</sub>O<sub>4</sub>",
        "Molecular Mass": "",
        "Melting Point": "201.5-202.5 °C"
    }
}