{
    "cas_no": "703-33-3",
    "key_name": "5,8-Dichloropyrido[2,3-<em>d</em>]pyridazine",
    "cn_name": null,
    "alternate_name": "Pyrido[2,3-<em>d</em>]pyridazine, 5,8-dichloro-;5,8-Dichloropyrido[2,3-<em>d</em>]pyridazine;1,4-Dichloro-5-azaphthalazine;NSC 131225;5,8-Dichloropyrido[3,2-<em>d</em>]pyridazine",
    "duplicated_cas_no": "",
    "SMILES": "ClC=1C2=C(C(Cl)=NN1)N=CC=C2",
    "meta_data": {
        "InChI": "InChI=1S/C7H3Cl2N3/c8-6-4-2-1-3-10-5(4)7(9)12-11-6/h1-3H",
        "InChIKey": null,
        "Canonical SMILES": "ClC1=NN=C(Cl)C=2C=CC=NC12",
        "Molecular Formula": "C<sub>7</sub>H<sub>3</sub>Cl<sub>2</sub>N<sub>3</sub>",
        "Molecular Mass": "200.02",
        "Melting Point": "169 °C"
    }
}