{
    "cas_no": "272-62-8",
    "key_name": "Furo[3,2-<em>b</em>]pyridine",
    "cn_name": null,
    "alternate_name": "Furo[3,2-<em>b</em>]pyridine",
    "duplicated_cas_no": "",
    "SMILES": "C1=2C(OC=C1)=CC=CN2",
    "meta_data": {
        "InChI": "InChI=1S/C7H5NO/c1-2-7-6(8-4-1)3-5-9-7/h1-5H",
        "InChIKey": null,
        "Canonical SMILES": "N1=CC=CC=2OC=CC12",
        "Molecular Formula": "C<sub>7</sub>H<sub>5</sub>NO",
        "Molecular Mass": "119.12",
        "Boiling Point": "79-80 °C @ Press: 12 Torr"
    }
}