{
    "cas_no": "1140-14-3",
    "key_name": "2,4-Dimethylbenzophenone",
    "cn_name": "2,4-二甲基二苯甲酮;",
    "alternate_name": "Methanone, (2,4-dimethylphenyl)phenyl-;Benzophenone, 2,4-dimethyl-;(2,4-Dimethylphenyl)phenylmethanone;2,4-Dimethylbenzophenone;4-Benzoyl-<em>m</em>-xylene;Phenyl 2,4-dimethylphenyl ketone;NSC 825",
    "duplicated_cas_no": "",
    "SMILES": "C(=O)(C1=C(C)C=C(C)C=C1)C2=CC=CC=C2",
    "meta_data": {
        "InChI": "InChI=1S/C15H14O/c1-11-8-9-14(12(2)10-11)15(16)13-6-4-3-5-7-13/h3-10H,1-2H3",
        "InChIKey": null,
        "Canonical SMILES": "O=C(C=1C=CC=CC1)C2=CC=C(C=C2C)C",
        "Molecular Formula": "C<sub>15</sub>H<sub>14</sub>O",
        "Molecular Mass": "210.27",
        "Boiling Point": "321.5 °C",
        "Melting Point": "120-121 °C",
        "Density": "1.068 g/cm³ @ Temp: 20 °C"
    }
}