{
    "cas_no": "1421-65-4",
    "key_name": "<span class=\"text-smallcaps\">L</span>-Dopa methyl ester hydrochloride",
    "cn_name": "L-3,4-二羟基苯基丙氨酸甲酯盐酸;",
    "alternate_name": "<span class=\"text-smallcaps\">L</span>-Tyrosine, 3-hydroxy-, methyl ester, hydrochloride (1:1);Alanine, 3-(3,4-dihydroxyphenyl)-, methyl ester, hydrochloride, <span class=\"text-smallcaps\">L</span>-;<span class=\"text-smallcaps\">L</span>-Tyrosine, 3-hydroxy-, methyl ester, hydrochloride;Alanine, 3-(3,4-dihydroxyphenyl)-, methyl ester, hydrochloride;3,4-Dihydroxyphenyl-<span class=\"text-smallcaps\">L</span>-alanine methyl ester hydrochloride;Methyl <span class=\"text-smallcaps\">L</span>-3-(3,4-dihydroxyphenyl)alaninate hydrochloride;<span class=\"text-smallcaps\">L</span>-Dopa methyl ester hydrochloride;Levodopa methyl ester hydrochloride;ST 41769;L-DOPA Me ester hydrochloride;(<em>S</em>)-Dopa methyl ester hydrochloride;3-Hydroxy-<span class=\"text-smallcaps\">L</span>-tyrosine methyl ester hydrochloride;(<em>S</em>)-Methyl 2-amino-3-(3,4-dihydroxyphenyl)propanoate hydrochloride",
    "duplicated_cas_no": "52618-24-3;2029175-68-4",
    "SMILES": "C([C@@H](C(OC)=O)N)C1=CC(O)=C(O)C=C1.Cl",
    "meta_data": {
        "InChI": "InChI=1S/C10H13NO4.ClH/c1-15-10(14)7(11)4-6-2-3-8(12)9(13)5-6;/h2-3,5,7,12-13H,4,11H2,1H3;1H/t7-;/m0./s1",
        "InChIKey": null,
        "Canonical SMILES": "Cl.O=C(OC)C(N)CC1=CC=C(O)C(O)=C1",
        "Molecular Formula": "C<sub>10</sub>H<sub>13</sub>NO<sub>4</sub>.ClH",
        "Molecular Mass": "",
        "Melting Point": "170-171 °C"
    }
}