{
    "cas_no": "88040-23-7",
    "key_name": "Cefepime",
    "cn_name": "头孢吡肟;1-(6R,7R)-7-[2-(2-氨基-4-噻唑基)(甲氧基亚氨基)乙酰胺]-2-羧基-8-氧-5-硫-1-氮杂二环[4.2.0]辛-;",
    "alternate_name": "Pyrrolidinium, 1-[[(6<em>R</em>,7<em>R</em>)-7-[[(2<em>Z</em>)-2-(2-amino-4-thiazolyl)-2-(methoxyimino)acetyl]amino]-2-carboxy-8-oxo-5-thia-1-azabicyclo[4.2.0]oct-2-en-3-yl]methyl]-1-methyl-, inner salt;Pyrrolidinium, 1-[[7-[[(2-amino-4-thiazolyl)(methoxyimino)acetyl]amino]-2-carboxy-8-oxo-5-thia-1-azabicyclo[4.2.0]oct-2-en-3-yl]methyl]-1-methyl-, inner salt, [6<em>R</em>-[6α,7β(<em>Z</em>)]]-;Pyrrolidinium, 1-[[(6<em>R</em>,7<em>R</em>)-7-[[(2<em>Z</em>)-(2-amino-4-thiazolyl)(methoxyimino)acetyl]amino]-2-carboxy-8-oxo-5-thia-1-azabicyclo[4.2.0]oct-2-en-3-yl]methyl]-1-methyl-, inner salt;BMY 28142;Cefepime;FR 81335;Tsefepim;Cefimen <em>K</em>;Sefdin",
    "duplicated_cas_no": "107648-84-0",
    "SMILES": "C([O-])(=O)C=1N2[C@@]([C@H](NC(/C(=N\\OC)/C3=CSC(N)=N3)=O)C2=O)(SCC1C[N+]4(C)CCCC4)[H]",
    "meta_data": {
        "InChI": "InChI=1S/C19H24N6O5S2/c1-25(5-3-4-6-25)7-10-8-31-17-13(16(27)24(17)14(10)18(28)29)22-15(26)12(23-30-2)11-9-32-19(20)21-11/h9,13,17H,3-8H2,1-2H3,(H3-,20,21,22,26,28,29)/b23-12-/t13-,17-/m1/s1",
        "InChIKey": null,
        "Canonical SMILES": "O=C([O-])C1=C(CSC2N1C(=O)C2NC(=O)C(=NOC)C=3N=C(SC3)N)C[N+]4(C)CCCC4",
        "Molecular Formula": "C<sub>19</sub>H<sub>24</sub>N<sub>6</sub>O<sub>5</sub>S<sub>2</sub>",
        "Molecular Mass": "",
        "Melting Point": "150 °C (decomp)"
    }
}