{
    "cas_no": "1205-06-7",
    "key_name": "Benzoic acid, 4-isothiocyanato-, ethyl ester",
    "cn_name": "4-乙氧羰基苯基硫代异氰酸酯;",
    "alternate_name": "Benzoic acid, 4-isothiocyanato-, ethyl ester;Benzoic acid, <em>p</em>-isothiocyanato-, ethyl ester;4-Carbethoxyphenyl isothiocyanate;4-(Ethoxycarbonyl)phenyl isothiocyanate;<em>p</em>-Carbethoxyphenyl isothiocyanate;Ethyl 4-isothiocyanatobenzoate;NSC 294821;4-Isothiocyanatobenzoic acid ethyl ester",
    "duplicated_cas_no": "",
    "SMILES": "C(OCC)(=O)C1=CC=C(N=C=S)C=C1",
    "meta_data": {
        "InChI": "InChI=1S/C10H9NO2S/c1-2-13-10(12)8-3-5-9(6-4-8)11-7-14/h3-6H,2H2,1H3",
        "InChIKey": null,
        "Canonical SMILES": "O=C(OCC)C1=CC=C(N=C=S)C=C1",
        "Molecular Formula": "C<sub>10</sub>H<sub>9</sub>NO<sub>2</sub>S",
        "Molecular Mass": "207.25",
        "Boiling Point": "123-127 °C @ Press: 0.1 Torr",
        "Melting Point": "98 °C"
    }
}