{
    "cas_no": "2791-84-6",
    "key_name": "<span class=\"text-smallcaps\">L</span>-Glutamic acid, 1,5-bis(phenylmethyl) ester, 4-methylbenzenesulfonate (1:1)",
    "cn_name": "L-谷氨酸双苄酯对甲苯磺酸盐;",
    "alternate_name": "<span class=\"text-smallcaps\">L</span>-Glutamic acid, 1,5-bis(phenylmethyl) ester, 4-methylbenzenesulfonate (1:1);<span class=\"text-smallcaps\">L</span>-Glutamic acid, bis(phenylmethyl) ester, 4-methylbenzenesulfonate;Glutamic acid, dibenzyl ester, <em>p</em>-toluenesulfonate, <span class=\"text-smallcaps\">L</span>-;Glutamic acid, dibenzyl ester, <em>p</em>-toluenesulfonate;<span class=\"text-smallcaps\">L</span>-Glutamic acid dibenzyl ester <em>p</em>-toluenesulfonate;Dibenzyl <span class=\"text-smallcaps\">L</span>-glutamate tosylate;<span class=\"text-smallcaps\">L</span>-Glutamic acid dibenzyl ester tosylate;Dibenzyl <span class=\"text-smallcaps\">L</span>-glutamate <em>p</em>-toluenesulfonate;H-<span class=\"text-smallcaps\">L</span>-Glu(Obzl)-Obzl tosylate salt",
    "duplicated_cas_no": "16652-77-0;257941-01-8",
    "SMILES": "C(OC([C@H](CCC(OCC1=CC=CC=C1)=O)N)=O)C2=CC=CC=C2.S(=O)(=O)(O)C1=CC=C(C)C=C1",
    "meta_data": {
        "InChI": "InChI=1S/C19H21NO4.C7H8O3S/c20-17(19(22)24-14-16-9-5-2-6-10-16)11-12-18(21)23-13-15-7-3-1-4-8-15;1-6-2-4-7(5-3-6)11(8,9)10/h1-10,17H,11-14,20H2;2-5H,1H3,(H,8,9,10)/t17-;/m0./s1",
        "InChIKey": null,
        "Canonical SMILES": "O=C(OCC=1C=CC=CC1)CCC(N)C(=O)OCC=2C=CC=CC2.O=S(=O)(O)C1=CC=C(C=C1)C",
        "Molecular Formula": "C<sub>19</sub>H<sub>21</sub>NO<sub>4</sub>.C<sub>7</sub>H<sub>8</sub>O<sub>3</sub>S",
        "Molecular Mass": "",
        "Melting Point": "142 °C"
    }
}