{
    "cas_no": "5000-46-4",
    "key_name": "1-(Methylsulfonyl)-2-propanone",
    "cn_name": "甲磺酰乙酮;甲磺酰乙酮;",
    "alternate_name": "2-Propanone, 1-(methylsulfonyl)-;2-Propanone, (methylsulfonyl)-;1-(Methylsulfonyl)-2-propanone;(Methylsulfonyl)acetone;Methanesulfonylacetone;NSC 35395;1-Methanesulfonylpropan-2-one",
    "duplicated_cas_no": "",
    "SMILES": "C(S(C)(=O)=O)C(C)=O",
    "meta_data": {
        "InChI": "InChI=1S/C4H8O3S/c1-4(5)3-8(2,6)7/h3H2,1-2H3",
        "InChIKey": null,
        "Canonical SMILES": "O=C(C)CS(=O)(=O)C",
        "Molecular Formula": "C<sub>4</sub>H<sub>8</sub>O<sub>3</sub>S",
        "Molecular Mass": "136.17",
        "Melting Point": "54 °C"
    }
}