{
    "cas_no": "588702-67-4",
    "key_name": "4-(Trifluoromethyl)-2-quinolinecarboxylic acid",
    "cn_name": "4-三氟甲基喹啉-2-羧酸;",
    "alternate_name": "2-Quinolinecarboxylic acid, 4-(trifluoromethyl)-;4-(Trifluoromethyl)-2-quinolinecarboxylic acid",
    "duplicated_cas_no": "",
    "SMILES": "C(F)(F)(F)C=1C2=C(N=C(C(O)=O)C1)C=CC=C2",
    "meta_data": {
        "InChI": "InChI=1S/C11H6F3NO2/c12-11(13,14)7-5-9(10(16)17)15-8-4-2-1-3-6(7)8/h1-5H,(H,16,17)",
        "InChIKey": null,
        "Canonical SMILES": "O=C(O)C=1N=C2C=CC=CC2=C(C1)C(F)(F)F",
        "Molecular Formula": "C<sub>11</sub>H<sub>6</sub>F<sub>3</sub>NO<sub>2</sub>",
        "Molecular Mass": "241.17",
        "Melting Point": "142-143 °C"
    }
}