{
    "cas_no": "55854-46-1",
    "key_name": "5-Bromo-2-thiophenesulfonyl chloride",
    "cn_name": "5-溴噻吩-2-磺酰氯;",
    "alternate_name": "2-Thiophenesulfonyl chloride, 5-bromo-;5-Bromo-2-thiophenesulfonyl chloride",
    "duplicated_cas_no": "",
    "SMILES": "S(Cl)(=O)(=O)C=1SC(Br)=CC1",
    "meta_data": {
        "InChI": "InChI=1S/C4H2BrClO2S2/c5-3-1-2-4(9-3)10(6,7)8/h1-2H",
        "InChIKey": null,
        "Canonical SMILES": "O=S(=O)(Cl)C=1SC(Br)=CC1",
        "Molecular Formula": "C<sub>4</sub>H<sub>2</sub>BrClO<sub>2</sub>S<sub>2</sub>",
        "Molecular Mass": "261.54",
        "Boiling Point": "105-110 °C @ Press: 4 Torr"
    }
}