{
    "cas_no": "68-19-9",
    "key_name": "Vitamin B<sub>12</sub>",
    "cn_name": "维生素B12;氰钴胺;",
    "alternate_name": "Vitamin B<sub>12</sub>;Anacobin;Betalin 12;Betaline 12;Byladoce;Cobalin;Cotel;Covit;Crystamin;Cyano-B<sub>12</sub>;Cyanocobalamin;Cyanocobalamine;Cycolamin;Cykobeminet;Cytacon;Cytamen;Cytobion;5,6-Dimethylbenzimidazolyl cyanocobamide;Dobetin;Docemine;Docibin;Docigram;Dodecabee;Dodecavite;Dodex;Ducobee;Duodecibin;Embiol;Emociclina;Eritrone;Erycytol;Erythrotin;Euhaemon;Extrinsic factor;Fresmin;Hemo-<em>b</em>-doze;Hemomin;Hepagon;Hepavis;Hepcovite;Lactobacillus lactis dorner factor;LLD factor;Macrabin;Megalovel;Milbedoce;Nagravon;Normocytin;Pernaemon;Pernaevit;Pernipuron;Plecyamin;Poyamin;Rebramin;Redamina;Redisol;Rhodacryst;Rubesol;Rubramin;Rubripca;Rubrocitol;Sytobex;B-Twelve;B-Twelve Ora;Vibalt;Vibisone;Virubra;Vitarubin;Vita-rubra;Vitral;Cobalamin, cyanide;Cobalamin, cyano-;Cobamin;Cykobemin;Factor II (vitamin);Cobamide, α-5,6-dimethyl-1<em>H</em>-benzimidazolyl-, cyanide;1<em>H</em>-Benzimidazole, 5,6-dimethyl-1-(3-<em>O</em>-phosphono-α-<span class=\"text-smallcaps\">D</span>-ribofuranosyl)-, monoester with cobinamide cyanide, inner salt;Cobamide, cyano-5,6-dimethyl-1<em>H</em>-benzimidazole-;Cyano-5,6-dimethylbenzimidazolylcobamide;5,6-Dimethylbenzimidazolyl-<em>Co</em>-cyanocobamide;Vitamin B<sub>12</sub> preparation;Betolvex;Cobalamin, cyano-5,6-dimethylbenzimidazole-;CN-B<sub>12</sub>;Factor II;Depinar;Cobinamide, cyanide, dihydrogen phosphate (ester), inner salt, 3′-ester with 5,6-dimethyl-1-α-<span class=\"text-smallcaps\">D</span>-ribofuranosyl-1<em>H</em>-benzimidazole;Hepavit;Docivit;Behepan;Bedoz;Berubigen;Antipernicin;Rubramin PC;Millevit;Berubi;Vitasprint B<sub>12</sub>;Dicopac Kit;Betalin 12 Crystalline;Crystamine;Bedodeka;Cyredin;Cyomin;SMARTShot B<sub>12</sub>;NSC 80365;Cromatonbic B<sub>12</sub>;Regividerm cream;Rheumazin;Nascobal;Rubivamine;Apikobal;Eligen B12;Optovite B12;Castle's factor;Castle's extrinsic factor;Castle's gastric factor",
    "duplicated_cas_no": "8023-26-5;8039-03-0;11037-08-4;24436-34-8",
    "SMILES": "[C-](#N)[Co+3]1234[N]=5[C@@]6(C)[C@@]7([N-]1C([C@@](C)([C@H]7CC(N)=O)CCC(=O)NC[C@@H](C)OP(=O)([O-])O[C@H]8C(O)([C@@H](N9C=[N]2C=%10C9=CC(C)=C(C)C%10)O[C@@H]8CO)[H])=C(C)C%11=[N]3C(=CC%12=[N]4C(=C(C)C5[C@@H](CCC(N)=O)[C@@]6(CC(N)=O)C)[C@](CC(N)=O)(C)[C@@H]%12CCC(N)=O)C(C)(C)[C@@H]%11CCC(N)=O)[H]",
    "meta_data": {
        "InChI": "InChI=1S/C62H90N13O14P.CN.Co/c1-29-20-39-40(21-30(29)2)75(28-70-39)57-52(84)53(41(27-76)87-57)89-90(85,86)88-31(3)26-69-49(83)18-19-59(8)37(22-46(66)80)56-62(11)61(10,25-48(68)82)36(14-17-45(65)79)51(74-62)33(5)55-60(9,24-47(67)81)34(12-15-43(63)77)38(71-55)23-42-58(6,7)35(13-16-44(64)78)50(72-42)32(4)54(59)73-56;1-2;/h20-21,23,28,31,34-37,41,52-53,56-57,76,84H,12-19,22,24-27H2,1-11H3,(H15,63,64,65,66,67,68,69,71,72,73,74,77,78,79,80,81,82,83,85,86);;/q;-1;+3/p-2/t31-,34-,35-,36-,37+,41-,52?,53-,56-,57+,59-,60+,61+,62+;;/m1../s1",
        "InChIKey": null,
        "Canonical SMILES": "N#[C-][Co+3]1234[N]5=CN(C=6C=C(C(=CC65)C)C)C7OC(CO)C(OP(=O)([O-])OC(C)CNC(=O)CCC8(C9=C(C%10=[N]4C(=CC%11=[N]3C(=C(C%12=[N]2C(C)(C([N-]91)C8CC(=O)N)C(C)(CC(=O)N)C%12CCC(=O)N)C)C(C)(CC(=O)N)C%11CCC(=O)N)C(C)(C)C%10CCC(=O)N)C)C)C7O",
        "Molecular Formula": "C<sub>63</sub>H<sub>88</sub>CoN<sub>14</sub>O<sub>14</sub>P",
        "Molecular Mass": "",
        "Boiling Point": "&gt;300 °C",
        "Melting Point": "&gt;300 °C"
    }
}