{
    "cas_no": "3401-80-7",
    "key_name": "3,6-Dichlorosalicylic acid",
    "cn_name": "3,6-二氯水杨酸; 3,6-二氯-2-羟基苯甲酸;",
    "alternate_name": "Benzoic acid, 3,6-dichloro-2-hydroxy-;Salicylic acid, 3,6-dichloro-;3,6-Dichloro-2-hydroxybenzoic acid;3,6-Dichlorosalicylic acid;2-Hydroxy-3,6-dichlorobenzoic acid;3,6-DCSA",
    "duplicated_cas_no": "",
    "SMILES": "C(O)(=O)C1=C(O)C(Cl)=CC=C1Cl",
    "meta_data": {
        "InChI": "InChI=1S/C7H4Cl2O3/c8-3-1-2-4(9)6(10)5(3)7(11)12/h1-2,10H,(H,11,12)",
        "InChIKey": null,
        "Canonical SMILES": "O=C(O)C=1C(Cl)=CC=C(Cl)C1O",
        "Molecular Formula": "C<sub>7</sub>H<sub>4</sub>Cl<sub>2</sub>O<sub>3</sub>",
        "Molecular Mass": "207.01",
        "Melting Point": "187 °C"
    }
}