{
    "cas_no": "532-27-4",
    "key_name": "2-Chloroacetophenone",
    "cn_name": "alpha-氯乙酰苯;alpha-氯代苯乙酮;",
    "alternate_name": "Ethanone, 2-chloro-1-phenyl-;Acetophenone, 2-chloro-;Acetophenone, α-chloro-;2-Chloro-1-phenylethanone;CAF;2-Chloroacetophenone;α-Chloroacetophenone;ω-Chloroacetophenone;Phenacyl chloride;CN;Phenyl chloromethyl ketone;Chloracetophenone;Mace (lacrimator);1-Phenyl-2-chloro-1-ethanone;Chloromethyl phenyl ketone;Mace;Chloroacetophenone;CN (lacrimator);(2-Chloro-1-oxoethyl)benzene;Benzoylmethyl chloride;CAP;2-Chloro-1-phenyl-1-ethanone;NSC 41666;CNB;CNC;Agent CNB;Agent CNC;CNB (chemical warfare agent);(Chloroacetyl)benzene",
    "duplicated_cas_no": "",
    "SMILES": "C(CCl)(=O)C1=CC=CC=C1",
    "meta_data": {
        "InChI": "InChI=1S/C8H7ClO/c9-6-8(10)7-4-2-1-3-5-7/h1-5H,6H2",
        "InChIKey": null,
        "Canonical SMILES": "O=C(C=1C=CC=CC1)CCl",
        "Molecular Formula": "C<sub>8</sub>H<sub>7</sub>ClO",
        "Molecular Mass": "154.59",
        "Boiling Point": "244-245 °C",
        "Melting Point": "54-59 °C",
        "Density": "1.324 g/cm³ @ Temp: 15 °C"
    }
}