{
    "cas_no": "4205-91-8",
    "key_name": "Clonidine hydrochloride",
    "cn_name": "盐酸可乐定;[2-(2,6-二氯苯基)亚氨基]咪唑烷盐酸盐;",
    "alternate_name": "1<em>H</em>-Imidazol-2-amine, <em>N</em>-(2,6-dichlorophenyl)-4,5-dihydro-, hydrochloride (1:1);2-Imidazoline, 2-(2,6-dichloroanilino)-, monohydrochloride;1<em>H</em>-Imidazol-2-amine, <em>N</em>-(2,6-dichlorophenyl)-4,5-dihydro-, monohydrochloride;Catapressan;Catapres;Clonidine hydrochloride;ST 155;2-[(2,6-Dichlorophenyl)amino]-2-imidazoline monohydrochloride;Haemiton;Chlophazolin;2-[(2,6-Dichlorophenyl)amino]-2-imidazoline hydrochloride;Katapresan;Clonidine chloride;Atensina;Capresin;DCAI;Hemiton;Normopresan;Clonidine monohydrochloride;Clofelin;Isoglaucon;2-(2,6-Dichloroanilino)-2-imidazoline hydrochloride;Neuclon;Clopheline;KAPVAY;Dichloranilino imidazolin;Validive",
    "duplicated_cas_no": "7555-15-9;57665-50-6;64638-22-8;66009-47-0;66073-52-7;73121-65-0",
    "SMILES": "N(C1=C(Cl)C=CC=C1Cl)C=2NCCN2.Cl",
    "meta_data": {
        "InChI": "InChI=1S/C9H9Cl2N3.ClH/c10-6-2-1-3-7(11)8(6)14-9-12-4-5-13-9;/h1-3H,4-5H2,(H2,12,13,14);1H",
        "InChIKey": null,
        "Canonical SMILES": "Cl.ClC1=CC=CC(Cl)=C1NC2=NCCN2",
        "Molecular Formula": "C<sub>9</sub>H<sub>9</sub>Cl<sub>2</sub>N<sub>3</sub>.ClH",
        "Molecular Mass": "",
        "Melting Point": "305 °C"
    }
}