{
    "cas_no": "686347-12-6",
    "key_name": "4-Piperidinecarboxamide, 1-[8-(2-chlorophenyl)-9-(4-chlorophenyl)-9<em>H</em>-purin-6-yl]-4-(ethylamino)-, hydrochloride (1:1)",
    "cn_name": null,
    "alternate_name": "4-Piperidinecarboxamide, 1-[8-(2-chlorophenyl)-9-(4-chlorophenyl)-9<em>H</em>-purin-6-yl]-4-(ethylamino)-, hydrochloride (1:1);4-Piperidinecarboxamide, 1-[8-(2-chlorophenyl)-9-(4-chlorophenyl)-9<em>H</em>-purin-6-yl]-4-(ethylamino)-, monohydrochloride;Otenabant hydrochloride;CP 945598;CP 945598-01",
    "duplicated_cas_no": "919516-56-6",
    "SMILES": "ClC1=C(C=2N(C=3C(N2)=C(N=CN3)N4CCC(NCC)(C(N)=O)CC4)C5=CC=C(Cl)C=C5)C=CC=C1.Cl",
    "meta_data": {
        "InChI": "InChI=1S/C25H25Cl2N7O.ClH/c1-2-31-25(24(28)35)11-13-33(14-12-25)22-20-23(30-15-29-22)34(17-9-7-16(26)8-10-17)21(32-20)18-5-3-4-6-19(18)27;/h3-10,15,31H,2,11-14H2,1H3,(H2,28,35);1H",
        "InChIKey": null,
        "Canonical SMILES": "Cl.O=C(N)C1(NCC)CCN(C=2N=CN=C3C2N=C(C=4C=CC=CC4Cl)N3C5=CC=C(Cl)C=C5)CC1",
        "Molecular Formula": "C<sub>25</sub>H<sub>25</sub>Cl<sub>2</sub>N<sub>7</sub>O.ClH",
        "Molecular Mass": "",
        "Melting Point": "275-276 °C (decomp)"
    }
}