{
    "cas_no": "5321-49-3",
    "key_name": "1-(2-Phenylethyl)piperazine",
    "cn_name": "1-苯乙基哌嗪;1-(2-苯基乙基)哌嗪;",
    "alternate_name": "Piperazine, 1-(2-phenylethyl)-;Piperazine, 1-phenethyl-;1-(2-Phenylethyl)piperazine;1-Phenethylpiperazine;<em>N</em>-(β-Phenylethyl)piperazine;<em>N</em>-Phenethylpiperazine;4-Phenethylpiperazine;<em>N</em>-(2-Phenylethyl)piperazine",
    "duplicated_cas_no": "",
    "SMILES": "C(CN1CCNCC1)C2=CC=CC=C2",
    "meta_data": {
        "InChI": "InChI=1S/C12H18N2/c1-2-4-12(5-3-1)6-9-14-10-7-13-8-11-14/h1-5,13H,6-11H2",
        "InChIKey": null,
        "Canonical SMILES": "C=1C=CC(=CC1)CCN2CCNCC2",
        "Molecular Formula": "C<sub>12</sub>H<sub>18</sub>N<sub>2</sub>",
        "Molecular Mass": "190.28",
        "Boiling Point": "156-158 °C @ Press: 10 Torr",
        "Melting Point": "156 °C"
    }
}