{
    "cas_no": "10458-14-7",
    "key_name": "<em>p</em>-Menthan-3-one",
    "cn_name": "薄荷酮;5-甲基-2-(1-甲基乙基)环己酮;",
    "alternate_name": "Cyclohexanone, 5-methyl-2-(1-methylethyl)-;<em>p</em>-Menthan-3-one;5-Methyl-2-(1-methylethyl)cyclohexanone;2-Isopropyl-5-methylcyclohexanone;5-Methyl-2-isopropylcyclohexanone;NSC 113134;NSC 9280",
    "duplicated_cas_no": "39307-52-3",
    "SMILES": "C(C)(C)C1C(=O)CC(C)CC1",
    "meta_data": {
        "InChI": "InChI=1S/C10H18O/c1-7(2)9-5-4-8(3)6-10(9)11/h7-9H,4-6H2,1-3H3",
        "InChIKey": null,
        "Canonical SMILES": "O=C1CC(C)CCC1C(C)C",
        "Molecular Formula": "C<sub>10</sub>H<sub>18</sub>O",
        "Molecular Mass": "154.25",
        "Boiling Point": "210 °C",
        "Melting Point": "25.02 °C",
        "Density": "0.8975 g/cm³ @ Temp: 20 °C"
    }
}