{
    "cas_no": "4165-60-0",
    "key_name": "Nitrobenzene-<em>d</em><sub>5</sub>",
    "cn_name": "硝基苯-d5;",
    "alternate_name": "Benzene-<em>1</em>,<em>2</em>,<em>3</em>,<em>4</em>,<em>5</em>-<em>d</em><sub>5</sub>, 6-nitro-;Benzene-<em>d</em><sub>5</sub>, nitro-;6-Nitrobenzene-<em>1</em>,<em>2</em>,<em>3</em>,<em>4</em>,<em>5</em>-<em>d</em><sub>5</sub>;Perdeuteronitrobenzene;Pentadeuterionitrobenzene;Nitrobenzene-<em>d</em><sub>5</sub>;1,2,3,4,5-Pentadeuterio-6-nitrobenzene",
    "duplicated_cas_no": "",
    "SMILES": "N(=O)(=O)C1=C(C(=C(C(=C1[2H])[2H])[2H])[2H])[2H]",
    "meta_data": {
        "InChI": "InChI=1S/C6H5NO2/c8-7(9)6-4-2-1-3-5-6/h1-5H/i1D,2D,3D,4D,5D",
        "InChIKey": null,
        "Canonical SMILES": "O=N(=O)C=1C=CC=CC1",
        "Molecular Formula": "C<sub>6</sub>D<sub>5</sub>NO<sub>2</sub>",
        "Molecular Mass": "",
        "Boiling Point": "215-217 °C @ Press: 711 Torr",
        "Density": "1.2533 g/cm³ @ Temp: 25 °C"
    }
}