{
    "cas_no": "6340-79-0",
    "key_name": "4-Bromo-γ-oxobenzenebutanoic acid",
    "cn_name": null,
    "alternate_name": "Benzenebutanoic acid, 4-bromo-γ-oxo-;Propionic acid, 3-(<em>p</em>-bromobenzoyl)-;4-Bromo-γ-oxobenzenebutanoic acid;3-(<em>p</em>-Bromobenzoyl)propionic acid;<em>p</em>-Bromobenzoylpropionic acid;3-(4-Bromobenzoyl)propanoic acid;β-(4-Bromobenzoyl)propionic acid;3-(4-Bromobenzoyl)propionic acid;β-(4-Bromophenyl)propionic acid;NSC 51068;4-(4-Bromophenyl)-4-oxobutyric acid;4-(4-Bromophenyl)-4-oxobutanoic acid",
    "duplicated_cas_no": "",
    "SMILES": "C(CCC(O)=O)(=O)C1=CC=C(Br)C=C1",
    "meta_data": {
        "InChI": "InChI=1S/C10H9BrO3/c11-8-3-1-7(2-4-8)9(12)5-6-10(13)14/h1-4H,5-6H2,(H,13,14)",
        "InChIKey": null,
        "Canonical SMILES": "O=C(O)CCC(=O)C1=CC=C(Br)C=C1",
        "Molecular Formula": "C<sub>10</sub>H<sub>9</sub>BrO<sub>3</sub>",
        "Molecular Mass": "257.08",
        "Boiling Point": "147-150 °C @ Press: 760 Torr",
        "Melting Point": "140 °C"
    }
}