{
    "cas_no": "3717-28-0",
    "key_name": "2-Chlorobenzaldehyde oxime",
    "cn_name": "邻氯苯甲醛肟;",
    "alternate_name": "Benzaldehyde, 2-chloro-, oxime;Benzaldehyde, <em>o</em>-chloro-, oxime;<em>o</em>-Chlorobenzaldoxime;2-Chlorobenzaldoxime;2-Chlorobenzaldehyde oxime;<em>o</em>-Chlorobenzaldehyde oxime;NSC 61415",
    "duplicated_cas_no": "",
    "SMILES": "C(=NO)C1=C(Cl)C=CC=C1",
    "meta_data": {
        "InChI": "InChI=1S/C7H6ClNO/c8-7-4-2-1-3-6(7)5-9-10/h1-5,10H",
        "InChIKey": null,
        "Canonical SMILES": "ClC=1C=CC=CC1C=NO",
        "Molecular Formula": "C<sub>7</sub>H<sub>6</sub>ClNO",
        "Molecular Mass": "155.58",
        "Boiling Point": "214-216 °C @ Press: 760 Torr",
        "Melting Point": "100 °C"
    }
}