{
    "cas_no": "26315-61-7",
    "key_name": "(-)-Menthyl glyoxylate",
    "cn_name": null,
    "alternate_name": "Acetic acid, 2-oxo-, (1<em>R</em>,2<em>S</em>,5<em>R</em>)-5-methyl-2-(1-methylethyl)cyclohexyl ester;Acetic acid, oxo-, 5-methyl-2-(1-methylethyl)cyclohexyl ester, [1<em>R</em>-(1α,2β,5α)]-;Glyoxylic acid, <em>p</em>-menth-3-yl ester, (1<em>R</em>,3<em>R</em>,4<em>S</em>)-(-)-;Acetic acid, oxo-, (1<em>R</em>,2<em>S</em>,5<em>R</em>)-5-methyl-2-(1-methylethyl)cyclohexyl ester;(<em>R</em>)-(-)-Menthyl glyoxylate;(-)-Menthyl glyoxylate;<em>l</em>-Menthyl glyoxylate;(-)-Menthyl glyoxalate;<em>l</em>-(-)-Menthyl glyoxylate;(1<em>R</em>,2<em>S</em>,5<em>R</em>)-Menthyl glyoxylate;(1R,2S,5R)-2-Isopropyl-5-methylcyclohexyl 2-oxoacetate",
    "duplicated_cas_no": "",
    "SMILES": "O(C(C=O)=O)[C@H]1[C@H](C(C)C)CC[C@@H](C)C1",
    "meta_data": {
        "InChI": "InChI=1S/C12H20O3/c1-8(2)10-5-4-9(3)6-11(10)15-12(14)7-13/h7-11H,4-6H2,1-3H3/t9-,10+,11-/m1/s1",
        "InChIKey": null,
        "Canonical SMILES": "O=CC(=O)OC1CC(C)CCC1C(C)C",
        "Molecular Formula": "C<sub>12</sub>H<sub>20</sub>O<sub>3</sub>",
        "Molecular Mass": "212.29",
        "Boiling Point": "160 °C @ Press: 1 x 10<sup>-4</sup> Torr"
    }
}