{
    "cas_no": "437-81-0",
    "key_name": "2,6-Difluorobenzaldehyde",
    "cn_name": null,
    "alternate_name": "Benzaldehyde, 2,6-difluoro-;2,6-Difluorobenzaldehyde",
    "duplicated_cas_no": "",
    "SMILES": "C(=O)C1=C(F)C=CC=C1F",
    "meta_data": {
        "InChI": "InChI=1S/C7H4F2O/c8-6-2-1-3-7(9)5(6)4-10/h1-4H",
        "InChIKey": null,
        "Canonical SMILES": "O=CC=1C(F)=CC=CC1F",
        "Molecular Formula": "C<sub>7</sub>H<sub>4</sub>F<sub>2</sub>O",
        "Molecular Mass": "142.10",
        "Boiling Point": "190-195 °C",
        "Melting Point": "15-17 °C"
    }
}