{
    "cas_no": "5391-52-6",
    "key_name": "1-(2-Thioxo-1-imidazolidinyl)ethanone",
    "cn_name": null,
    "alternate_name": "Ethanone, 1-(2-thioxo-1-imidazolidinyl)-;2-Imidazolidinethione, 1-acetyl-;1-(2-Thioxo-1-imidazolidinyl)ethanone;1-Acetylimidazolidinethione;1-(2-Sulfanylideneimidazolidin-1-yl)ethanone;1-(2-Sulfanylideneimidazolidin-1-yl)ethan-1-one",
    "duplicated_cas_no": "",
    "SMILES": "C(C)(=O)N1C(=S)NCC1",
    "meta_data": {
        "InChI": "InChI=1S/C5H8N2OS/c1-4(8)7-3-2-6-5(7)9/h2-3H2,1H3,(H,6,9)",
        "InChIKey": null,
        "Canonical SMILES": "O=C(N1C(=S)NCC1)C",
        "Molecular Formula": "C<sub>5</sub>H<sub>8</sub>N<sub>2</sub>OS",
        "Molecular Mass": "144.19",
        "Melting Point": "161-163 °C"
    }
}