{
    "cas_no": "134308-13-7",
    "key_name": "Tolcapone",
    "cn_name": "托卡朋;(3,4-二羟基-5-硝基苯基)-(4-甲基苯基)甲酮;",
    "alternate_name": "Methanone, (3,4-dihydroxy-5-nitrophenyl)(4-methylphenyl)-;(3,4-Dihydroxy-5-nitrophenyl)(4-methylphenyl)methanone;Ro 40-7592;Tolcapone;3,4-Dihydroxy-4′-methyl-5-nitrobenzophenone;Tasmar;CAP 1160",
    "duplicated_cas_no": "",
    "SMILES": "C(=O)(C1=CC(N(=O)=O)=C(O)C(O)=C1)C2=CC=C(C)C=C2",
    "meta_data": {
        "InChI": "InChI=1S/C14H11NO5/c1-8-2-4-9(5-3-8)13(17)10-6-11(15(19)20)14(18)12(16)7-10/h2-7,16,18H,1H3",
        "InChIKey": null,
        "Canonical SMILES": "O=C(C1=CC=C(C=C1)C)C2=CC(O)=C(O)C(=C2)N(=O)=O",
        "Molecular Formula": "C<sub>14</sub>H<sub>11</sub>NO<sub>5</sub>",
        "Molecular Mass": "273.24",
        "Melting Point": "141-143 °C"
    }
}