{
    "cas_no": "406482-19-7",
    "key_name": "2-Fluoro-5-methoxyphenylboronic acid",
    "cn_name": "2-氟-5-甲氧基苯硼酸;",
    "alternate_name": "Boronic acid, <em>B</em>-(2-fluoro-5-methoxyphenyl)-;Boronic acid, (2-fluoro-5-methoxyphenyl)-;<em>B</em>-(2-Fluoro-5-methoxyphenyl)boronic acid;2-Fluoro-5-methoxyphenylboronic acid",
    "duplicated_cas_no": "",
    "SMILES": "B(O)(O)C1=CC(OC)=CC=C1F",
    "meta_data": {
        "InChI": "InChI=1S/C7H8BFO3/c1-12-5-2-3-7(9)6(4-5)8(10)11/h2-4,10-11H,1H3",
        "InChIKey": null,
        "Canonical SMILES": "FC1=CC=C(OC)C=C1B(O)O",
        "Molecular Formula": "C<sub>7</sub>H<sub>8</sub>BFO<sub>3</sub>",
        "Molecular Mass": "169.95",
        "Melting Point": "195-196 °C"
    }
}