{
    "cas_no": "392-42-7",
    "key_name": "2-Chloropentafluoro-1,3-butadiene",
    "cn_name": "2-氯代五氟-1,3-丁二烯;2-氯代五氟-1,3-丁二烯;",
    "alternate_name": "1,3-Butadiene, 2-chloro-1,1,3,4,4-pentafluoro-;1,3-Butadiene, 2-chloropentafluoro-;2-Chloro-1,1,3,4,4-pentafluoro-1,3-butadiene;2-Chloropentafluoro-1,3-butadiene",
    "duplicated_cas_no": "",
    "SMILES": "C(C(=C(F)F)F)(=C(F)F)Cl",
    "meta_data": {
        "InChI": "InChI=1S/C4ClF5/c5-1(3(7)8)2(6)4(9)10",
        "InChIKey": null,
        "Canonical SMILES": "FC(F)=C(F)C(Cl)=C(F)F",
        "Molecular Formula": "C<sub>4</sub>ClF<sub>5</sub>",
        "Molecular Mass": "178.49",
        "Boiling Point": "37 °C"
    }
}