{
    "cas_no": "50667-69-1",
    "key_name": "2,2,2-Trifluoro-<em>N</em>-(hydroxymethyl)acetamide",
    "cn_name": "N-(羟甲基)三氟乙酰胺;",
    "alternate_name": "Acetamide, 2,2,2-trifluoro-<em>N</em>-(hydroxymethyl)-;2,2,2-Trifluoro-<em>N</em>-(hydroxymethyl)acetamide;<em>N</em>-(Hydroxymethyl)trifluoroacetamide;<em>N</em>-(Hydroxymethyl)-2,2,2-trifluoroacetamide",
    "duplicated_cas_no": "",
    "SMILES": "C(C(F)(F)F)(NCO)=O",
    "meta_data": {
        "InChI": "InChI=1S/C3H4F3NO2/c4-3(5,6)2(9)7-1-8/h8H,1H2,(H,7,9)",
        "InChIKey": null,
        "Canonical SMILES": "O=C(NCO)C(F)(F)F",
        "Molecular Formula": "C<sub>3</sub>H<sub>4</sub>F<sub>3</sub>NO<sub>2</sub>",
        "Molecular Mass": "143.06",
        "Melting Point": "99 °C"
    }
}