{
    "cas_no": "152460-08-7",
    "key_name": "(2-Methyl-5-nitrophenyl)guanidine nitrate",
    "cn_name": "(2-甲基-5-硝基苯基)胍硝酸盐;",
    "alternate_name": "Guanidine, <em>N</em>-(2-methyl-5-nitrophenyl)-, nitrate (1:1);Guanidine, (2-methyl-5-nitrophenyl)-, mononitrate;(2-Methyl-5-nitrophenyl)guanidine nitrate;<em>N</em>-(2-Methyl-5-nitrophenyl)guanidine nitrate;1-(2-Methyl-5-nitrophenyl)guanidine nitrate",
    "duplicated_cas_no": "",
    "SMILES": "N(C(=N)N)C1=CC(N(=O)=O)=CC=C1C.N(=O)(=O)O",
    "meta_data": {
        "InChI": "InChI=1S/C8H10N4O2.HNO3/c1-5-2-3-6(12(13)14)4-7(5)11-8(9)10;2-1(3)4/h2-4H,1H3,(H4,9,10,11);(H,2,3,4)",
        "InChIKey": null,
        "Canonical SMILES": "O=N(=O)O.O=N(=O)C1=CC=C(C(=C1)NC(=N)N)C",
        "Molecular Formula": "C<sub>8</sub>H<sub>10</sub>N<sub>4</sub>O<sub>2</sub>.HNO<sub>3</sub>",
        "Molecular Mass": "",
        "Melting Point": "218-219 °C"
    }
}