{
    "cas_no": "3131-23-5",
    "key_name": "4-Hydroxyestrone",
    "cn_name": "4-羟雌甾酮;",
    "alternate_name": "Estra-1,3,5(10)-trien-17-one, 3,4-dihydroxy-;3,4-Dihydroxyestra-1,3,5(10)-trien-17-one;4-Hydroxyestrone;3,4-Dihydroxy-1,3,5(10)-estratrien-17-one",
    "duplicated_cas_no": "",
    "SMILES": "C[C@@]12[C@]([C@]3([C@@](C=4C(CC3)=C(O)C(O)=CC4)(CC1)[H])[H])(CCC2=O)[H]",
    "meta_data": {
        "InChI": "InChI=1S/C18H22O3/c1-18-9-8-11-10-4-6-15(19)17(21)13(10)3-2-12(11)14(18)5-7-16(18)20/h4,6,11-12,14,19,21H,2-3,5,7-9H2,1H3/t11-,12-,14+,18+/m1/s1",
        "InChIKey": null,
        "Canonical SMILES": "O=C1CCC2C3CCC4=C(O)C(O)=CC=C4C3CCC12C",
        "Molecular Formula": "C<sub>18</sub>H<sub>22</sub>O<sub>3</sub>",
        "Molecular Mass": "286.37",
        "Melting Point": "260-265 °C"
    }
}