{
    "cas_no": "7281-04-1",
    "key_name": "Benzyldimethyldodecylammonium bromide",
    "cn_name": "十二烷基二甲基苄基溴化铵;N-十二烷基-N,N-二甲基苄基溴化铵;苯扎溴铵;新洁而灭;",
    "alternate_name": "Benzenemethanaminium, <em>N</em>-dodecyl-<em>N</em>,<em>N</em>-dimethyl-, bromide (1:1);Ammonium, benzyldodecyldimethyl-, bromide;Benzenemethanaminium, <em>N</em>-dodecyl-<em>N</em>,<em>N</em>-dimethyl-, bromide;Benzyldodecyldimethylammonium bromide;Dimethyllaurylbenzylammonium bromide;Sterinol;Dodecylbenzyldimethylammonium bromide;Dimethylbenzyllaurylammonium bromide;Dodecyldimethylbenzylammonium bromide;Benzyllauryldimethylammonium bromide;Dimethylbenzyldodecylammonium bromide;Amonyl BR 1244;Lauryldimethylbenzylammonium bromide;Sinnoquat BL 80;Sinnoquat BL 95;Benzododecinium bromide;<em>N</em>-Benzyl-<em>N</em>,<em>N</em>-dimethyl-<em>N</em>-dodecylammonium bromide;Bacfor BL;Benzyldimethyldodecylammonium bromide;Cequartyl 50;AACL 6;Dimethyldodecylbenzylammonium bromide;<em>N</em>,<em>N</em>-Dimethyl-<em>N</em>-benzyldodecylammonium bromide;Benzyldimethyllaurylammonium bromide;<em>N</em>,<em>N</em>-Dimethyl-<em>N</em>-dodecylbenzylammonium bromide;Xinjieermie;Lauralkonium bromide;Benzalkonium bromide(C12)",
    "duplicated_cas_no": "",
    "SMILES": "C([N+](CCCCCCCCCCCC)(C)C)C1=CC=CC=C1.[Br-]",
    "meta_data": {
        "InChI": "InChI=1S/C21H38N.BrH/c1-4-5-6-7-8-9-10-11-12-16-19-22(2,3)20-21-17-14-13-15-18-21;/h13-15,17-18H,4-12,16,19-20H2,1-3H3;1H/q+1;/p-1",
        "InChIKey": null,
        "Canonical SMILES": "[Br-].C=1C=CC(=CC1)C[N+](C)(C)CCCCCCCCCCCC",
        "Molecular Formula": "C<sub>21</sub>H<sub>38</sub>N.Br",
        "Molecular Mass": "",
        "Melting Point": "38-43 °C"
    }
}