{
    "cas_no": "5061-21-2",
    "key_name": "2-Bromo-4-butyrolactone",
    "cn_name": "2-溴-gamma-丁内酯;alpha-溴-gamma-丁内酯;",
    "alternate_name": "2(3<em>H</em>)-Furanone, 3-bromodihydro-;Butyric acid, 2-bromo-4-hydroxy-, γ-lactone;2(3<em>H</em>)-Furanone, 3-bromodihydro-, (±)-;Butyric acid, α-bromo-γ-hydroxy-, γ-lactone;3-Bromodihydro-2(3<em>H</em>)-furanone;α-Bromo-γ-butyrolactone;α-Bromobutyric acid γ-lactone;3-Bromo-4,5-dihydro-2(3<em>H</em>)-furanone;2-Bromo-γ-butyrolactone;2-Bromo-4-butyrolactone;3-Bromo-2-oxotetrahydrofuran;(±)-3-Bromo-4,5-dihydro-2(3<em>H</em>)-furanone;NSC 11726;NSC 56959;3-Bromotetrahydrofuran-2-one;2-Bromo-4-butanolide;3-Bromooxolan-2-one",
    "duplicated_cas_no": "86362-17-6",
    "SMILES": "BrC1C(=O)OCC1",
    "meta_data": {
        "InChI": "InChI=1S/C4H5BrO2/c5-3-1-2-7-4(3)6/h3H,1-2H2",
        "InChIKey": null,
        "Canonical SMILES": "O=C1OCCC1Br",
        "Molecular Formula": "C<sub>4</sub>H<sub>5</sub>BrO<sub>2</sub>",
        "Molecular Mass": "164.99",
        "Boiling Point": "130-135 °C @ Press: 20 Torr",
        "Density": "1.825 g/cm³ @ Temp: 20 °C"
    }
}