{
    "cas_no": "57018-04-9",
    "key_name": "Tolclofos-methyl",
    "cn_name": "甲基立枯磷;O-(2,6-二氯-对-甲苯基)-O,O-二甲基硫代磷酸酯;邻-2,6-二氯-对甲苯O,O-二甲基硫代磷酸酯;",
    "alternate_name": "Phosphorothioic acid, <em>O</em>-(2,6-dichloro-4-methylphenyl) <em>O</em>,<em>O</em>-dimethyl ester;<em>O</em>,<em>O</em>-Dimethyl <em>O</em>-(2,6-dichloro-4-methylphenyl) phosphorothioate;Rizolex;Tolclofos-methyl;Rhizolex T 50;Rhizolex;Tolclophos-methyl;<em>O</em>-(2,6-Dichloro-4-methylphenyl) <em>O</em>,<em>O</em>-dimethyl phosphorothioate",
    "duplicated_cas_no": "78617-09-1;1135443-42-3",
    "SMILES": "O(P(OC)(OC)=S)C1=C(Cl)C=C(C)C=C1Cl",
    "meta_data": {
        "InChI": "InChI=1S/C9H11Cl2O3PS/c1-6-4-7(10)9(8(11)5-6)14-15(16,12-2)13-3/h4-5H,1-3H3",
        "InChIKey": null,
        "Canonical SMILES": "S=P(OC1=C(Cl)C=C(C=C1Cl)C)(OC)OC",
        "Molecular Formula": "C<sub>9</sub>H<sub>11</sub>Cl<sub>2</sub>O<sub>3</sub>PS",
        "Molecular Mass": "301.13",
        "Melting Point": "79 °C"
    }
}