{
    "cas_no": "106-28-5",
    "key_name": "<em>trans</em>-Farnesol",
    "cn_name": "金合欢醇;(2E,6E)-3,7,11-三甲基-2,6,10-十二碳三烯-1-醇;",
    "alternate_name": "2,6,10-Dodecatrien-1-ol, 3,7,11-trimethyl-, (2<em>E</em>,6<em>E</em>)-;2,6,10-Dodecatrien-1-ol, 3,7,11-trimethyl-, (<em>E</em>,<em>E</em>)-;2,6,10-Dodecatrien-1-ol, 3,7,11-trimethyl-(<em>farnesol</em>);(2<em>E</em>,6<em>E</em>)-3,7,11-Trimethyl-2,6,10-dodecatrien-1-ol;<em>trans</em>-2,<em>trans</em>-6-Farnesol;<em>trans</em>,<em>trans</em>-Farnesol;2,6-Di-<em>trans</em>-farnesol;2,6-<em>trans</em>,<em>trans</em>-Farnesol;<em>trans</em>-Farnesol;Inhibitor A<sub>2</sub>;2-<em>trans</em>,6-<em>trans</em>-Farnesol;3,7,11-Trimethyldodeca-2-<em>trans</em>,6-<em>trans</em>,10-trien-1-ol;(2<em>E</em>,6<em>E</em>)-Farnesol;<em>all</em>-<em>trans</em>-Farnesol;(<em>t</em>,<em>t</em>)-Farnesol;(<em>E</em>,<em>E</em>)-Farnesol;<em>all</em>-<em>E</em>-Farnesol;(<em>E</em>)-β-Farnesol;(<em>E</em>,<em>E</em>)-3,7,11-Trimethyl-2,6,10-dodecatrien-1-ol;(<em>E</em>,<em>E</em>)-Farnesyl alcohol;<em>trans</em>-1-Hydroxy-3,7,11-trimethyl-2,6,10-dodecatriene;(2E,6E)-3,7,11-Trimethyldodeca-2,6,10-trien-1-ol",
    "duplicated_cas_no": "",
    "SMILES": "C(=C/CC/C(=C/CO)/C)(\\CCC=C(C)C)/C",
    "meta_data": {
        "InChI": "InChI=1S/C15H26O/c1-13(2)7-5-8-14(3)9-6-10-15(4)11-12-16/h7,9,11,16H,5-6,8,10,12H2,1-4H3/b14-9+,15-11+",
        "InChIKey": null,
        "Canonical SMILES": "OCC=C(C)CCC=C(C)CCC=C(C)C",
        "Molecular Formula": "C<sub>15</sub>H<sub>26</sub>O",
        "Molecular Mass": "222.37",
        "Melting Point": "61-63 °C"
    }
}