{
    "cas_no": "7713-69-1",
    "key_name": "<em>N</em>-Methyl-2-butanamine",
    "cn_name": "N-甲基异丁胺;",
    "alternate_name": "2-Butanamine, <em>N</em>-methyl-;Propylamine, <em>N</em>,1-dimethyl-;<em>N</em>-Methyl-2-butanamine;<em>N</em>-Methyl-<em>sec</em>-butylamine;<em>N</em>-Methyl-<em>N</em>-<em>sec</em>-butylamine;<em>N</em>,1-Dimethylpropylamine;<em>N</em>-Methyl-2-butylamine;<em>sec</em>-Butylmethylamine;2-(Methylamino)butane;Methyl-<em>sec</em>-butylamine;<em>N</em>-<em>sec</em>-Butyl-<em>N</em>-methylamine;(Butan-2-yl)(methyl)amine",
    "duplicated_cas_no": "74035-99-7",
    "SMILES": "C(CC)(NC)C",
    "meta_data": {
        "InChI": "InChI=1S/C5H13N/c1-4-5(2)6-3/h5-6H,4H2,1-3H3",
        "InChIKey": null,
        "Canonical SMILES": "N(C)C(C)CC",
        "Molecular Formula": "C<sub>5</sub>H<sub>13</sub>N",
        "Molecular Mass": "87.16",
        "Boiling Point": "85-120 °C"
    }
}