{
    "cas_no": "84100-84-5",
    "key_name": "2,3,3-Trimethyl-3<em>H</em>-indole-5-carboxylic acid",
    "cn_name": null,
    "alternate_name": "3<em>H</em>-Indole-5-carboxylic acid, 2,3,3-trimethyl-;2,3,3-Trimethyl-3<em>H</em>-indole-5-carboxylic acid;2,3,3-Trimethyl-5-carboxyindolenine;5-Carboxyl-2,3,3-trimethyl-3<em>H</em>-indolenine",
    "duplicated_cas_no": "",
    "SMILES": "CC1(C)C=2C(N=C1C)=CC=C(C(O)=O)C2",
    "meta_data": {
        "InChI": "InChI=1S/C12H13NO2/c1-7-12(2,3)9-6-8(11(14)15)4-5-10(9)13-7/h4-6H,1-3H3,(H,14,15)",
        "InChIKey": null,
        "Canonical SMILES": "O=C(O)C=1C=CC=2N=C(C)C(C2C1)(C)C",
        "Molecular Formula": "C<sub>12</sub>H<sub>13</sub>NO<sub>2</sub>",
        "Molecular Mass": "203.24",
        "Melting Point": "208-210 °C"
    }
}