{
    "cas_no": "671-95-4",
    "key_name": "Clofenamide",
    "cn_name": null,
    "alternate_name": "1,3-Benzenedisulfonamide, 4-chloro-;<em>m</em>-Benzenedisulfonamide, 4-chloro-;4-Chloro-1,3-benzenedisulfonamide;Aponiere;Aquedux;4-Chloro-<em>m</em>-benzenedisulfonamide;Clofenamide;Haflutan;4-Chlorobenzene-1,3-disulfonamide;Monochlorphenamide;Saltron;Salco;Soluran;Clofenamidum;Diuretic 2822;Eleklin;Frictan;Salzen;Indigatin;Macashi;Diumide;DS (pharmaceutical)",
    "duplicated_cas_no": "",
    "SMILES": "S(N)(=O)(=O)C1=CC(S(N)(=O)=O)=CC=C1Cl",
    "meta_data": {
        "InChI": "InChI=1S/C6H7ClN2O4S2/c7-5-2-1-4(14(8,10)11)3-6(5)15(9,12)13/h1-3H,(H2,8,10,11)(H2,9,12,13)",
        "InChIKey": null,
        "Canonical SMILES": "O=S(=O)(N)C1=CC=C(Cl)C(=C1)S(=O)(=O)N",
        "Molecular Formula": "C<sub>6</sub>H<sub>7</sub>ClN<sub>2</sub>O<sub>4</sub>S<sub>2</sub>",
        "Molecular Mass": "270.71",
        "Melting Point": "207 °C"
    }
}