{
    "cas_no": "2150-11-0",
    "key_name": "3′,4′,7-Trihydroxyflavone",
    "cn_name": "3,4,7-三羟基黄酮;3,4,7-三羟基黄酮;",
    "alternate_name": "4<em>H</em>-1-Benzopyran-4-one, 2-(3,4-dihydroxyphenyl)-7-hydroxy-;Flavone, 3′,4′,7-trihydroxy-;2-(3,4-Dihydroxyphenyl)-7-hydroxy-4<em>H</em>-1-benzopyran-4-one;3′,4′,7-Trihydroxyflavone;7,3′,4′-Trihydroxyflavone;T 414;3′,4′,7-Trihydroxylflavone;5-Deoxyluteolin;2-(3,4-Dihydroxyphenyl)-7-hydroxychromen-4-one;2-(3,4-Dihydroxyphenyl)-7-hydroxy-4<em>H</em>-chromen-4-one;7,3′,4′-HOFL",
    "duplicated_cas_no": "",
    "SMILES": "O=C1C=2C(OC(=C1)C3=CC(O)=C(O)C=C3)=CC(O)=CC2",
    "meta_data": {
        "InChI": "InChI=1S/C15H10O5/c16-9-2-3-10-12(18)7-14(20-15(10)6-9)8-1-4-11(17)13(19)5-8/h1-7,16-17,19H",
        "InChIKey": null,
        "Canonical SMILES": "O=C1C=C(OC2=CC(O)=CC=C12)C=3C=CC(O)=C(O)C3",
        "Molecular Formula": "C<sub>15</sub>H<sub>10</sub>O<sub>5</sub>",
        "Molecular Mass": "270.24",
        "Melting Point": "318-322 °C"
    }
}