{
    "cas_no": "504-97-2",
    "key_name": "Sanshool",
    "cn_name": null,
    "alternate_name": "2,6,8,10-Dodecatetraenamide, <em>N</em>-(2-methylpropyl)-, (2<em>E</em>,6<em>Z</em>,8<em>E</em>,10<em>E</em>)-;2,6,8,10-Dodecatetraenamide, <em>N</em>-isobutyl-, (<em>E</em>,<em>E</em>,<em>Z</em>,<em>E</em>)-;2,6,8,10-Dodecatetraenamide, <em>N</em>-(2-methylpropyl)-, (<em>E</em>,<em>E</em>,<em>Z</em>,<em>E</em>)-;(2<em>E</em>,6<em>Z</em>,8<em>E</em>,10<em>E</em>)-<em>N</em>-(2-Methylpropyl)-2,6,8,10-dodecatetraenamide;Echinacein;α-Sanshool;α-Sanshooel;Sanshool;2<em>E</em>,6<em>Z</em>,8<em>E</em>,10<em>E</em>-Dodecatetraenoic acid <em>N</em>-(2-methylpropyl)amide;Neoherculine;Neoherculin;<em>N</em>-(2-Methylpropyl)-2<em>E</em>,6<em>Z</em>,8<em>E</em>,10<em>E</em>-dodecatetraenamide;<em>N</em>-Isobutyl-<em>trans</em>-2,<em>cis</em>-6,<em>trans</em>-8,<em>trans</em>-10-dodecatetraenamide;Echinaceine",
    "duplicated_cas_no": "119719-30-1;13430-38-1",
    "SMILES": "C(=C/CC/C=C\\C=C\\C=C\\C)\\C(NCC(C)C)=O",
    "meta_data": {
        "InChI": "InChI=1S/C16H25NO/c1-4-5-6-7-8-9-10-11-12-13-16(18)17-14-15(2)3/h4-9,12-13,15H,10-11,14H2,1-3H3,(H,17,18)/b5-4+,7-6+,9-8-,13-12+",
        "InChIKey": null,
        "Canonical SMILES": "O=C(C=CCCC=CC=CC=CC)NCC(C)C",
        "Molecular Formula": "C<sub>16</sub>H<sub>25</sub>NO",
        "Molecular Mass": "247.38",
        "Melting Point": "63-65 °C"
    }
}