{
    "cas_no": "13598-36-2",
    "key_name": "Phosphonic acid",
    "cn_name": "亚磷酸;",
    "alternate_name": "Phosphonic acid;Dihydroxyphosphine oxide",
    "duplicated_cas_no": "1135443-40-1",
    "SMILES": "P(=O)(O)O",
    "meta_data": {
        "InChI": "InChI=1S/H3O3P/c1-4(2)3/h4H,(H2,1,2,3)",
        "InChIKey": null,
        "Canonical SMILES": "O=P(O)O",
        "Molecular Formula": "H<sub>3</sub>O<sub>3</sub>P",
        "Molecular Mass": "82.00",
        "Melting Point": "~73 °C (approx)"
    }
}