{
    "cas_no": "630-19-3",
    "key_name": "Pivalaldehyde",
    "cn_name": "特戊醛;三甲基乙醛;",
    "alternate_name": "Propanal, 2,2-dimethyl-;Pivalaldehyde;Pivaldehyde;2,2-Dimethylpropanal;Trimethylacetaldehyde;Neopentanal;Pivalic aldehyde;2,2-Dimethylpropionaldehyde;α,α-Dimethylpropionaldehyde;α,α-Dimethylpropanal;<em>tert</em>-Valeraldehyde;Neopentaldehyde;<em>tert</em>-Butylformaldehyde;2,2-Dimethylpropanaldehyde;<em>tert</em>-Pentanal;NSC 22043;<em>tert</em>-Butyraldehyde;2,2′-Dimethylpropanal",
    "duplicated_cas_no": "",
    "SMILES": "C(C=O)(C)(C)C",
    "meta_data": {
        "InChI": "InChI=1S/C5H10O/c1-5(2,3)4-6/h4H,1-3H3",
        "InChIKey": null,
        "Canonical SMILES": "O=CC(C)(C)C",
        "Molecular Formula": "C<sub>5</sub>H<sub>10</sub>O",
        "Molecular Mass": "86.13",
        "Boiling Point": "77.5 °C",
        "Melting Point": "6 °C",
        "Density": "0.771 g/cm³ @ Temp: 20 °C"
    }
}