{
    "cas_no": "59-23-4",
    "key_name": "Galactose",
    "cn_name": "D-吡喃葡萄糖;D-半乳糖;",
    "alternate_name": "<span class=\"text-smallcaps\">D</span>-Galactose;Galactose, <span class=\"text-smallcaps\">D</span>-;Galactose;<span class=\"text-smallcaps\">D</span>-(+)-Galactose;(+)-Galactose",
    "duplicated_cas_no": "147-76-2;3812-56-4;400876-94-0;790999-92-7",
    "SMILES": "[C@@H]([C@@H]([C@H](C=O)O)O)([C@@H](CO)O)O",
    "meta_data": {
        "InChI": "InChI=1S/C6H12O6/c7-1-3(9)5(11)6(12)4(10)2-8/h1,3-6,8-12H,2H2/t3-,4+,5+,6-/m0/s1",
        "InChIKey": null,
        "Canonical SMILES": "O=CC(O)C(O)C(O)C(O)CO",
        "Molecular Formula": "C<sub>6</sub>H<sub>12</sub>O<sub>6</sub>",
        "Molecular Mass": "180.16",
        "Melting Point": "170 °C",
        "Density": "1.616 g/cm³ @ Temp: -5 °C"
    }
}