{
    "cas_no": "1113-68-4",
    "key_name": "<em>N</em>-Methyldiacetamide",
    "cn_name": "N-甲基二乙酰胺;",
    "alternate_name": "Acetamide, <em>N</em>-acetyl-<em>N</em>-methyl-;Diacetamide, <em>N</em>-methyl-;<em>N</em>-Acetyl-<em>N</em>-methylacetamide;<em>N</em>-Methyldiacetamide;Diacetylmethylamine",
    "duplicated_cas_no": "",
    "SMILES": "N(C(C)=O)(C(C)=O)C",
    "meta_data": {
        "InChI": "InChI=1S/C5H9NO2/c1-4(7)6(3)5(2)8/h1-3H3",
        "InChIKey": null,
        "Canonical SMILES": "O=C(N(C(=O)C)C)C",
        "Molecular Formula": "C<sub>5</sub>H<sub>9</sub>NO<sub>2</sub>",
        "Molecular Mass": "115.13",
        "Boiling Point": "195 °C",
        "Melting Point": "-25 °C",
        "Density": "1.0904 g/cm³ @ Temp: 0 °C"
    }
}