{
    "cas_no": "76-14-2",
    "key_name": "CFC 114",
    "cn_name": "1,2-二氯四氟乙烷;四氟二氯乙烷;二氯四氟乙烷;1,1,2,2-四氟-1,2-二氯乙烷;1,2-二氯四氟乙烷;氟里昂-114;氟;",
    "alternate_name": "Ethane, 1,2-dichloro-1,1,2,2-tetrafluoro-;Ethane, 1,2-dichlorotetrafluoro-;1,2-Dichloro-1,1,2,2-tetrafluoroethane;F 114 (halocarbon);Ucon 114;Arcton 33;Cryofluorane;<em>sym</em>-Dichlorotetrafluoroethane;1,2-Dichlorotetrafluoroethane;Frigen 114;Genetron 114;1,1,2,2-Tetrafluoro-1,2-dichloroethane;Freon 114;Ledon 114;1,2-Dichloroperfluoroethane;Fluorocarbon 114;R 114 (halocarbon);FC 114;Propellant 114;Frigiderm;Genetron 316;Cryofluoran;Arcton 114;Refrigerant 114;CFC 114;F 114;FKW 114;Fron 114;R 114;Dichloro-1,1,2,2-tetrafluoroethane",
    "duplicated_cas_no": "",
    "SMILES": "C(C(Cl)(F)F)(Cl)(F)F",
    "meta_data": {
        "InChI": "InChI=1S/C2Cl2F4/c3-1(5,6)2(4,7)8",
        "InChIKey": null,
        "Canonical SMILES": "FC(F)(Cl)C(F)(F)Cl",
        "Molecular Formula": "C<sub>2</sub>Cl<sub>2</sub>F<sub>4</sub>",
        "Molecular Mass": "170.92",
        "Boiling Point": "3.8 °C @ Press: 760 Torr",
        "Melting Point": "-94 °C",
        "Density": "1.455 g/cm³ @ Temp: 25 °C"
    }
}