{
    "cas_no": "7688-25-7",
    "key_name": "1,4-Bis(diphenylphosphino)butane",
    "cn_name": "1,4-双(二苯基膦)丁烷;",
    "alternate_name": "Phosphine, 1,1′-(1,4-butanediyl)bis[1,1-diphenyl-;Phosphine, tetramethylenebis[diphenyl-;Phosphine, 1,4-butanediylbis[diphenyl-;1,1′-(1,4-Butanediyl)bis[1,1-diphenylphosphine];Tetramethylenebis(diphenylphosphine);1,4-Bis(diphenylphosphino)butane;1,4-Butanediylbis[diphenylphosphine];1,4-Butylenebis(diphenylphosphine);DPPB (catalyst precursor);DPPB;1,4-Bis(diphenylphosphanyl)butane;[4-(Diphenylphosphanyl)butyl]diphenylphosphane",
    "duplicated_cas_no": "",
    "SMILES": "P(CCCCP(C1=CC=CC=C1)C2=CC=CC=C2)(C3=CC=CC=C3)C4=CC=CC=C4",
    "meta_data": {
        "InChI": "InChI=1S/C28H28P2/c1-5-15-25(16-6-1)29(26-17-7-2-8-18-26)23-13-14-24-30(27-19-9-3-10-20-27)28-21-11-4-12-22-28/h1-12,15-22H,13-14,23-24H2",
        "InChIKey": null,
        "Canonical SMILES": "C=1C=CC(=CC1)P(C=2C=CC=CC2)CCCCP(C=3C=CC=CC3)C=4C=CC=CC4",
        "Molecular Formula": "C<sub>28</sub>H<sub>28</sub>P<sub>2</sub>",
        "Molecular Mass": "426.47",
        "Melting Point": "135-136 °C"
    }
}