{
    "cas_no": "7782-89-0",
    "key_name": "Lithium amide",
    "cn_name": "氨基化锂;氨基锂;",
    "alternate_name": "Lithium amide (Li(NH<sub>2</sub>));Lithamide;Lithium amide",
    "duplicated_cas_no": "12135-17-0;1808075-59-3;2691865-42-4",
    "SMILES": "[Li]N",
    "meta_data": {
        "InChI": "InChI=1S/Li.H2N/h;1H2/q+1;-1",
        "InChIKey": null,
        "Canonical SMILES": "[Li]N",
        "Molecular Formula": "H<sub>2</sub>LiN",
        "Molecular Mass": "",
        "Melting Point": "380-400 °C",
        "Density": "1.178 g/cm³ @ Temp: 17.5 °C"
    }
}