{
    "cas_no": "529-37-3",
    "key_name": "4(1<em>H</em>)-Quinolinone",
    "cn_name": null,
    "alternate_name": "4(1<em>H</em>)-Quinolinone;4(1<em>H</em>)-Quinolone;γ-Quinolone;4-Quinolone;1,4-Dihydro-4-quinolinone;1<em>H</em>-4-Oxoquinoline;NSC 263800;1<em>H</em>-Quinolin-4-one",
    "duplicated_cas_no": "",
    "SMILES": "O=C1C=2C(NC=C1)=CC=CC2",
    "meta_data": {
        "InChI": "InChI=1S/C9H7NO/c11-9-5-6-10-8-4-2-1-3-7(8)9/h1-6H,(H,10,11)",
        "InChIKey": null,
        "Canonical SMILES": "O=C1C=CNC=2C=CC=CC12",
        "Molecular Formula": "C<sub>9</sub>H<sub>7</sub>NO",
        "Molecular Mass": "145.16",
        "Boiling Point": "80-83 °C @ Press: 1 Torr",
        "Melting Point": "208-210 °C"
    }
}