{
    "cas_no": "305-15-7",
    "key_name": "(2,5-Dichlorophenyl)hydrazine",
    "cn_name": "2,5-二氯苯肼;",
    "alternate_name": "Hydrazine, (2,5-dichlorophenyl)-;(2,5-Dichlorophenyl)hydrazine;NSC 6102;<em>N</em>-(2,5-Dichlorophenyl)hydrazine",
    "duplicated_cas_no": "",
    "SMILES": "N(N)C1=C(Cl)C=CC(Cl)=C1",
    "meta_data": {
        "InChI": "InChI=1S/C6H6Cl2N2/c7-4-1-2-5(8)6(3-4)10-9/h1-3,10H,9H2",
        "InChIKey": null,
        "Canonical SMILES": "ClC1=CC=C(Cl)C(=C1)NN",
        "Molecular Formula": "C<sub>6</sub>H<sub>6</sub>Cl<sub>2</sub>N<sub>2</sub>",
        "Molecular Mass": "177.03",
        "Melting Point": "254-256 °C"
    }
}