{
    "cas_no": "311-28-4",
    "key_name": "Tetrabutylammonium iodide",
    "cn_name": "四丁基碘化铵;N,N,N-三丁基-1-丁铵碘化物;",
    "alternate_name": "1-Butanaminium, <em>N</em>,<em>N</em>,<em>N</em>-tributyl-, iodide (1:1);Ammonium, tetrabutyl-, iodide;Tetrabutylammonium iodide;1-Butanaminium, <em>N</em>,<em>N</em>,<em>N</em>-tributyl-, iodide;Tetra-<em>n</em>-butylammonium iodide",
    "duplicated_cas_no": "",
    "SMILES": "[N+](CCCC)(CCCC)(CCCC)CCCC.[I-]",
    "meta_data": {
        "InChI": "InChI=1S/C16H36N.HI/c1-5-9-13-17(14-10-6-2,15-11-7-3)16-12-8-4;/h5-16H2,1-4H3;1H/q+1;/p-1",
        "InChIKey": null,
        "Canonical SMILES": "[I-].CCCC[N+](CCCC)(CCCC)CCCC",
        "Molecular Formula": "C<sub>16</sub>H<sub>36</sub>N.I",
        "Molecular Mass": "",
        "Melting Point": "144-145 °C"
    }
}