{
    "cas_no": "574-17-4",
    "key_name": "Acetylisatin",
    "cn_name": "1-乙酰基靛红;N-乙酰靛红;1-乙酰基-2,3-吲哚啉二酮;",
    "alternate_name": "1<em>H</em>-Indole-2,3-dione, 1-acetyl-;Indole-2,3-dione, 1-acetyl-;Isatin, 1-acetyl-;1-Acetyl-1<em>H</em>-indole-2,3-dione;Acetylisatin;1-Acetylisatin;<em>N</em>-Acetylisatin;1-Acetyl-2,3-dioxoindole;1-Acetylindole-2,3-dione;NSC 2761;<em>N</em>-Acetyl-indole-2,3-dione;1-Acetylindoline-2,3-dione;1-Acetyl-2,3-dihydro-1<em>H</em>-indole-2,3-dione",
    "duplicated_cas_no": "",
    "SMILES": "C(C)(=O)N1C=2C(C(=O)C1=O)=CC=CC2",
    "meta_data": {
        "InChI": "InChI=1S/C10H7NO3/c1-6(12)11-8-5-3-2-4-7(8)9(13)10(11)14/h2-5H,1H3",
        "InChIKey": null,
        "Canonical SMILES": "O=C1C(=O)N(C(=O)C)C=2C=CC=CC12",
        "Molecular Formula": "C<sub>10</sub>H<sub>7</sub>NO<sub>3</sub>",
        "Molecular Mass": "189.17",
        "Melting Point": "141 °C"
    }
}