{
    "cas_no": "577-59-3",
    "key_name": "2′-Nitroacetophenone",
    "cn_name": "邻硝基苯乙酮;",
    "alternate_name": "Ethanone, 1-(2-nitrophenyl)-;Acetophenone, 2′-nitro-;1-(2-Nitrophenyl)ethanone;2′-Nitroacetophenone;<em>o</em>-Nitroacetophenone;Methyl 2-nitrophenyl ketone;2-Acetylnitrobenzene;NSC 3641;1-Acetyl-2-nitrobenzene;Methyl <em>o</em>-nitrophenyl ketone;2-Nitrophenylmethylketone;1-(2-Nitrophenyl)ethan-1-one",
    "duplicated_cas_no": "",
    "SMILES": "C(C)(=O)C1=C(N(=O)=O)C=CC=C1",
    "meta_data": {
        "InChI": "InChI=1S/C8H7NO3/c1-6(10)7-4-2-3-5-8(7)9(11)12/h2-5H,1H3",
        "InChIKey": null,
        "Canonical SMILES": "O=C(C=1C=CC=CC1N(=O)=O)C",
        "Molecular Formula": "C<sub>8</sub>H<sub>7</sub>NO<sub>3</sub>",
        "Molecular Mass": "165.15",
        "Boiling Point": "178 °C",
        "Melting Point": "28.5 °C",
        "Density": "1.238 g/cm³ @ Temp: 25 °C"
    }
}