{
    "cas_no": "11072-93-8",
    "key_name": "β-Escin",
    "cn_name": "beta-七叶素;",
    "alternate_name": "β-Escin;β-Aescin;Flogencyl",
    "duplicated_cas_no": "",
    "SMILES": "",
    "meta_data": {
        "InChI": "",
        "InChIKey": null,
        "Canonical SMILES": "",
        "Molecular Formula": "Unspecified",
        "Molecular Mass": "",
        "Melting Point": "222-223 °C"
    }
}