{
    "uri": "substance/pt/11072938",
    "rn": "11072-93-8",
    "name": "β-Escin",
    "images": [],
    "inchi": "",
    "inchiKey": "",
    "smile": "",
    "canonicalSmile": "",
    "molecularFormula": "Unspecified",
    "molecularMass": "",
    "experimentalProperties": [
        {
            "name": "Melting Point",
            "property": "222-223 °C",
            "sourceNumber": 1
        }
    ],
    "propertyCitations": [
        {
            "docUri": "",
            "sourceNumber": 1,
            "source": "Drugs - Synonyms and Properties data were obtained from Ashgate Publishing Co. (US)"
        }
    ],
    "synonyms": [
        "β-Escin",
        "β-Aescin",
        "Flogencyl"
    ],
    "replacedRns": [],
    "hasMolfile": false,
    "source": "https://commonchemistry.cas.org/detail?cas_rn=11072-93-8"
}