{
    "cas_no": "6174-86-3",
    "key_name": "Chlorferon",
    "cn_name": "3-氯-7-羟基-4-甲基香豆素;",
    "alternate_name": "2<em>H</em>-1-Benzopyran-2-one, 3-chloro-7-hydroxy-4-methyl-;Coumarin, 3-chloro-7-hydroxy-4-methyl-;Umbelliferone, 3-chloro-4-methyl-;3-Chloro-7-hydroxy-4-methyl-2<em>H</em>-1-benzopyran-2-one;3-Chloro-7-hydroxy-4-methylcoumarin;3-Chloro-4-methyl-7-hydroxycoumarin;Chlorferone;7-Hydroxy-4-methyl-3-chlorocoumarin;NSC 24924;NSC 44204;Chlorferon;3-Chloro-7-hydroxy-4-methyl-2<em>H</em>-chromen-2-one;3-Chloro-7-hydroxy-4-methylchromen-2-one",
    "duplicated_cas_no": "119739-80-9",
    "SMILES": "CC=1C=2C(OC(=O)C1Cl)=CC(O)=CC2",
    "meta_data": {
        "InChI": "InChI=1S/C10H7ClO3/c1-5-7-3-2-6(12)4-8(7)14-10(13)9(5)11/h2-4,12H,1H3",
        "InChIKey": null,
        "Canonical SMILES": "O=C1OC=2C=C(O)C=CC2C(=C1Cl)C",
        "Molecular Formula": "C<sub>10</sub>H<sub>7</sub>ClO<sub>3</sub>",
        "Molecular Mass": "210.61",
        "Melting Point": "240 °C"
    }
}