{
    "cas_no": "3406-02-8",
    "key_name": "Bis(phenylsulfonyl)methane",
    "cn_name": "双苯磺酸甲烷;",
    "alternate_name": "Benzene, 1,1′-[methylenebis(sulfonyl)]bis-;Methane, bis(phenylsulfonyl)-;1,1′-[Methylenebis(sulfonyl)]bis[benzene];Bis(phenylsulfonyl)methane;Bis(benzenesulfonyl)methane;NSC 47076;(Benzenesulfonyl)methanesulfonylbenzene",
    "duplicated_cas_no": "",
    "SMILES": "S(CS(=O)(=O)C1=CC=CC=C1)(=O)(=O)C2=CC=CC=C2",
    "meta_data": {
        "InChI": "InChI=1S/C13H12O4S2/c14-18(15,12-7-3-1-4-8-12)11-19(16,17)13-9-5-2-6-10-13/h1-10H,11H2",
        "InChIKey": null,
        "Canonical SMILES": "O=S(=O)(C=1C=CC=CC1)CS(=O)(=O)C=2C=CC=CC2",
        "Molecular Formula": "C<sub>13</sub>H<sub>12</sub>O<sub>4</sub>S<sub>2</sub>",
        "Molecular Mass": "296.36",
        "Melting Point": "118-119 °C"
    }
}