{
    "cas_no": "3695-73-6",
    "key_name": "Glycyl-<span class=\"text-smallcaps\">L</span>-alanine",
    "cn_name": null,
    "alternate_name": "<span class=\"text-smallcaps\">L</span>-Alanine, glycyl-;Alanine, <em>N</em>-glycyl-, <span class=\"text-smallcaps\">L</span>-;<span class=\"text-smallcaps\">L</span>-Alanine, <em>N</em>-glycyl-;Glycyl-<span class=\"text-smallcaps\">L</span>-alanine;Glycylalanine;Glycine-alanine dipeptide;<em>N</em>-Glycyl-<span class=\"text-smallcaps\">L</span>-alanine;Glycyl-(<em>S</em>)-alanine;NSC 83246;123: PN: WO2006024694 SEQID: 123 claimed protein;121: PN: US20070015162 SEQID: 131 claimed protein;279: PN: US20070032414 SEQID: 279 claimed protein;285: PN: US20070026454 SEQID: 295 claimed protein;444: PN: US20070042361 SEQID: 454 claimed protein;198: PN: EP2161028 PAGE: 10 claimed protein;76: PN: WO2011084714 SEQID: 79 claimed sequence;21: PN: WO2011146121 PAGE: 114 claimed sequence;12: PN: WO2012061268 SEQID: 12 claimed protein;5: PN: US20150203546 PAGE: 78 claimed sequence;92: PN: WO2017078631 PAGE: 50 claimed protein;(2S)-2-(2-Aminoacetamido)propanoic acid;(2S)-2-[(2-Azaniumylacetyl)amino]propanoate;1: PN: WO2020023418 PAGE: 66 claimed sequence;4: PN: WO2021055880 SEQID: 4 claimed protein;309: PN: WO2021146320 SEQID: 309 claimed protein;72: PN: WO2021147954 SEQID: 72 claimed protein;89: PN: WO2021164722 SEQID: 89 claimed protein;31: PN: WO2021219786 SEQID: 31 claimed protein;32: PN: WO2021254574 SEQID: 32 claimed protein;92: PN: WO2022006370 SEQID: 92 claimed protein;517: PN: WO2022056313 SEQID: 533 claimed protein;363: PN: US20220128567 SEQID: 533 claimed protein;1: PN: WO2022099157 PAGE: 113 claimed sequence;103: PN: WO2022105914 SEQID: 109 claimed protein;363: PN: US20220178935 SEQID: 533 claimed protein;3: PN: WO2022144812 SEQID: 3 claimed protein;67: PN: WO2022165258 SEQID: 67 claimed protein;348: PN: WO2022177963 SEQID: 449 claimed protein;488: PN: WO2022215055 SEQID: 488 claimed protein;4: PN: WO2022218941 PAGE: 253 claimed sequence;117: PN: WO2022240360 SEQID: 125 claimed protein;43: PN: WO2023241653 SEQID: 51 claimed sequence;3: PN: WO2024009268 SEQID: 3 claimed protein",
    "duplicated_cas_no": "",
    "SMILES": "N([C@H](C(O)=O)C)C(CN)=O",
    "meta_data": {
        "InChI": "InChI=1S/C5H10N2O3/c1-3(5(9)10)7-4(8)2-6/h3H,2,6H2,1H3,(H,7,8)(H,9,10)/t3-/m0/s1",
        "InChIKey": null,
        "Canonical SMILES": "O=C(O)C(NC(=O)CN)C",
        "Molecular Formula": "C<sub>5</sub>H<sub>10</sub>N<sub>2</sub>O<sub>3</sub>",
        "Molecular Mass": "146.14",
        "Melting Point": "228 °C (decomp)",
        "Density": "1.1562-1.1584 g/cm³ @ Temp: 25.00 °C"
    }
}