{
    "cas_no": "624-29-3",
    "key_name": "<em>cis</em>-1,4-Dimethylcyclohexane",
    "cn_name": null,
    "alternate_name": "Cyclohexane, 1,4-dimethyl-, <em>cis</em>-;<em>cis</em>-1,4-Dimethylcyclohexane;1-<em>cis</em>-4-Dimethylcyclohexane",
    "duplicated_cas_no": "",
    "SMILES": "C[C@H]1CC[C@@H](C)CC1",
    "meta_data": {
        "InChI": "InChI=1/C8H16/c1-7-3-5-8(2)6-4-7/h7-8H,3-6H2,1-2H3/t7-,8+",
        "InChIKey": null,
        "Canonical SMILES": "CC1CCC(C)CC1",
        "Molecular Formula": "C<sub>8</sub>H<sub>16</sub>",
        "Molecular Mass": "112.21",
        "Boiling Point": "124.4 °C",
        "Melting Point": "-87.4 °C",
        "Density": "0.77870 g/cm³ @ Temp: 25 °C"
    }
}