{
    "cas_no": "13813-41-7",
    "key_name": "Holmium iodide (HoI<sub>3</sub>)",
    "cn_name": "碘化钬;",
    "alternate_name": "Holmium iodide (HoI<sub>3</sub>);Holmium triiodide;Holmium iodide",
    "duplicated_cas_no": "",
    "SMILES": "[Ho](I)(I)I",
    "meta_data": {
        "InChI": "InChI=1S/Ho.3HI/h;3*1H/q+3;;;/p-3",
        "InChIKey": null,
        "Canonical SMILES": "I[Ho](I)I",
        "Molecular Formula": "HoI<sub>3</sub>",
        "Molecular Mass": "",
        "Melting Point": "1010 °C"
    }
}