{
    "cas_no": "538-32-9",
    "key_name": "Benzylurea",
    "cn_name": "苄基脲;",
    "alternate_name": "Urea, <em>N</em>-(phenylmethyl)-;Urea, benzyl-;Urea, (phenylmethyl)-;<em>N</em>-(Phenylmethyl)urea;Benzylcarbamide;Benzylurea;1-Benzylurea;<em>N</em>-Benzylurea;NSC 109103",
    "duplicated_cas_no": "",
    "SMILES": "C(NC(N)=O)C1=CC=CC=C1",
    "meta_data": {
        "InChI": "InChI=1S/C8H10N2O/c9-8(11)10-6-7-4-2-1-3-5-7/h1-5H,6H2,(H3,9,10,11)",
        "InChIKey": null,
        "Canonical SMILES": "O=C(N)NCC=1C=CC=CC1",
        "Molecular Formula": "C<sub>8</sub>H<sub>10</sub>N<sub>2</sub>O",
        "Molecular Mass": "150.18",
        "Melting Point": "148 °C"
    }
}