{
    "cas_no": "33456-68-7",
    "key_name": "4-[2-(3,4-Dihydro-7-methoxy-4,4-dimethyl-1,3-dioxo-2(1<em>H</em>)-isoquinolinyl)ethyl]benzenesulfonamide",
    "cn_name": null,
    "alternate_name": "Benzenesulfonamide, 4-[2-(3,4-dihydro-7-methoxy-4,4-dimethyl-1,3-dioxo-2(1<em>H</em>)-isoquinolinyl)ethyl]-;Benzenesulfonamide, <em>p</em>-[2-(3,4-dihydro-7-methoxy-4,4-dimethyl-1,3-dioxo-2(1<em>H</em>)-isoquinolyl)ethyl]-;4-[2-(3,4-Dihydro-7-methoxy-4,4-dimethyl-1,3-dioxo-2(1<em>H</em>)-isoquinolinyl)ethyl]benzenesulfonamide",
    "duplicated_cas_no": "",
    "SMILES": "CC1(C)C=2C(C(=O)N(CCC3=CC=C(S(N)(=O)=O)C=C3)C1=O)=CC(OC)=CC2",
    "meta_data": {
        "InChI": "InChI=1S/C20H22N2O5S/c1-20(2)17-9-6-14(27-3)12-16(17)18(23)22(19(20)24)11-10-13-4-7-15(8-5-13)28(21,25)26/h4-9,12H,10-11H2,1-3H3,(H2,21,25,26)",
        "InChIKey": null,
        "Canonical SMILES": "O=C1C2=CC(OC)=CC=C2C(C(=O)N1CCC3=CC=C(C=C3)S(=O)(=O)N)(C)C",
        "Molecular Formula": "C<sub>20</sub>H<sub>22</sub>N<sub>2</sub>O<sub>5</sub>S",
        "Molecular Mass": "402.46",
        "Melting Point": "200-202 °C"
    }
}