{
    "cas_no": "170737-46-9",
    "key_name": "6-Bromo-2-naphthalenecarboxaldehyde",
    "cn_name": null,
    "alternate_name": "2-Naphthalenecarboxaldehyde, 6-bromo-;6-Bromo-2-naphthalenecarboxaldehyde;6-Bromo-2-naphthaldehyde;2-Bromo-6-naphthaldehyde;2-Formyl-6-bromonaphthalene",
    "duplicated_cas_no": "2222572-08-7",
    "SMILES": "C(=O)C1=CC2=C(C=C(Br)C=C2)C=C1",
    "meta_data": {
        "InChI": "InChI=1S/C11H7BrO/c12-11-4-3-9-5-8(7-13)1-2-10(9)6-11/h1-7H",
        "InChIKey": null,
        "Canonical SMILES": "O=CC1=CC=C2C=C(Br)C=CC2=C1",
        "Molecular Formula": "C<sub>11</sub>H<sub>7</sub>BrO",
        "Molecular Mass": "235.08",
        "Melting Point": "116-118 °C"
    }
}