{
    "cas_no": "34883-41-5",
    "key_name": "3,5-Dichlorobiphenyl",
    "cn_name": "3,5-二氯联苯;3,5-二氯联苯PCBNo14;",
    "alternate_name": "1,1′-Biphenyl, 3,5-dichloro-;Biphenyl, 3,5-dichloro-;3,5-Dichloro-1,1′-biphenyl;3,5-Dichlorobiphenyl;PCB 14;1,3-Dichloro-5-phenylbenzene",
    "duplicated_cas_no": "",
    "SMILES": "ClC=1C=C(C=C(Cl)C1)C2=CC=CC=C2",
    "meta_data": {
        "InChI": "InChI=1S/C12H8Cl2/c13-11-6-10(7-12(14)8-11)9-4-2-1-3-5-9/h1-8H",
        "InChIKey": null,
        "Canonical SMILES": "ClC=1C=C(Cl)C=C(C1)C=2C=CC=CC2",
        "Molecular Formula": "C<sub>12</sub>H<sub>8</sub>Cl<sub>2</sub>",
        "Molecular Mass": "223.10",
        "Melting Point": "62 °C"
    }
}