{
    "cas_no": "84-12-8",
    "key_name": "4,7-Phenanthroline-5,6-dione",
    "cn_name": "泛喹酮;安痢平;安妥夫百舒;菲二啶酮;",
    "alternate_name": "4,7-Phenanthroline-5,6-dione;Phenanthrolinedione;Enthobex;Entobex;Phanquinone;4,7-Phenanthroline-5,6-quinone;Phanquone;Phanquinonum;11925C;CIBA 11925;Entronon;Phanchinone",
    "duplicated_cas_no": "1337-05-9",
    "SMILES": "O=C1C=2C(C=3C(C1=O)=NC=CC3)=CC=CN2",
    "meta_data": {
        "InChI": "InChI=1S/C12H6N2O2/c15-11-9-7(3-1-5-13-9)8-4-2-6-14-10(8)12(11)16/h1-6H",
        "InChIKey": null,
        "Canonical SMILES": "O=C1C(=O)C2=NC=CC=C2C=3C=CC=NC13",
        "Molecular Formula": "C<sub>12</sub>H<sub>6</sub>N<sub>2</sub>O<sub>2</sub>",
        "Molecular Mass": "210.19",
        "Melting Point": "295 °C (decomp)"
    }
}