{
    "cas_no": "72411-89-3",
    "key_name": "4-Methoxy-5-pyrimidinecarboxylic acid",
    "cn_name": null,
    "alternate_name": "5-Pyrimidinecarboxylic acid, 4-methoxy-;4-Methoxy-5-pyrimidinecarboxylic acid",
    "duplicated_cas_no": "",
    "SMILES": "O(C)C=1C(C(O)=O)=CN=CN1",
    "meta_data": {
        "InChI": "InChI=1S/C6H6N2O3/c1-11-5-4(6(9)10)2-7-3-8-5/h2-3H,1H3,(H,9,10)",
        "InChIKey": null,
        "Canonical SMILES": "O=C(O)C=1C=NC=NC1OC",
        "Molecular Formula": "C<sub>6</sub>H<sub>6</sub>N<sub>2</sub>O<sub>3</sub>",
        "Molecular Mass": "154.12",
        "Melting Point": "200 °C"
    }
}