{
    "cas_no": "13709-52-9",
    "key_name": "Hafnium tetrafluoride",
    "cn_name": "四氟化铪;四氟化蛤;四氟化铪;Hafnium tetrafluoride;Hafnium(IV) fluoride;",
    "alternate_name": "Hafnium fluoride (HfF<sub>4</sub>), (<em>T</em>-4)-;Hafnium fluoride (HfF<sub>4</sub>);Hafnium fluoride;Hafnium tetrafluoride",
    "duplicated_cas_no": "",
    "SMILES": "[Hf](F)(F)(F)F",
    "meta_data": {
        "InChI": "InChI=1S/4FH.Hf/h4*1H;/q;;;;+4/p-4",
        "InChIKey": null,
        "Canonical SMILES": "F[Hf](F)(F)F",
        "Molecular Formula": "F<sub>4</sub>Hf",
        "Molecular Mass": "",
        "Melting Point": "762 °C",
        "Density": "6.8 g/cm³"
    }
}