{
    "cas_no": "3648-20-2",
    "key_name": "Diundecyl phthalate",
    "cn_name": "1,2-苯二羧酸双十一烷基酯;双十一烷基邻苯二甲酸酯;",
    "alternate_name": "1,2-Benzenedicarboxylic acid, 1,2-diundecyl ester;Phthalic acid, diundecyl ester;1,2-Benzenedicarboxylic acid, diundecyl ester;Undecyl alcohol, phthalate;Undecyl alcohol, phthalate (2:1);Diundecyl phthalate;DUP;Di-<em>n</em>-undecyl phthalate;Bisoflex DUP;Jayflex L 11P;Sansocizer DUP;Palatinol 11;Diplast L 11;Bis-diundecyl phthalate;L 11/ST",
    "duplicated_cas_no": "154766-25-3",
    "SMILES": "C(OCCCCCCCCCCC)(=O)C1=C(C(OCCCCCCCCCCC)=O)C=CC=C1",
    "meta_data": {
        "InChI": "InChI=1S/C30H50O4/c1-3-5-7-9-11-13-15-17-21-25-33-29(31)27-23-19-20-24-28(27)30(32)34-26-22-18-16-14-12-10-8-6-4-2/h19-20,23-24H,3-18,21-22,25-26H2,1-2H3",
        "InChIKey": null,
        "Canonical SMILES": "O=C(OCCCCCCCCCCC)C=1C=CC=CC1C(=O)OCCCCCCCCCCC",
        "Molecular Formula": "C<sub>30</sub>H<sub>50</sub>O<sub>4</sub>",
        "Molecular Mass": "474.72",
        "Boiling Point": "185 °C @ Press: 0.15 Torr",
        "Density": "1 x 10<sup>-6</sup> g/cm³ @ Temp: 20 °C"
    }
}