{
    "cas_no": "1291-47-0",
    "key_name": "1,1′-Dimethylferrocene",
    "cn_name": "1,1′-二甲基二茂铁;",
    "alternate_name": "Ferrocene, 1,1′-dimethyl-;Iron, bis(methylcyclopentadienyl)-;1,1′-Dimethylferrocene;Bis(methylcyclopentadienyl)iron;Dimethylferrocene",
    "duplicated_cas_no": "",
    "SMILES": "C[C-]12[Fe+2]3456789([C-]%10(C)[CH]3=[CH]4[CH]5=[CH]6%10)[CH]1=[CH]7[CH]8=[CH]92",
    "meta_data": {
        "InChI": "InChI=1S/2C6H7.Fe/c2*1-6-4-2-3-5-6;/h2*2-5H,1H3;/q2*-1;+2",
        "InChIKey": null,
        "Canonical SMILES": "C[C-]12[CH]3=[CH]4[CH]5=[CH]1[Fe+2]45678932[CH]=%10[CH]9=[CH]8[C-]7(C)[CH]%106",
        "Molecular Formula": "C<sub>12</sub>H<sub>14</sub>Fe",
        "Molecular Mass": "",
        "Boiling Point": "70-80 °C @ Press: 2 Torr",
        "Melting Point": "34-35 °C",
        "Density": "1.2349 g/cm³ @ Temp: 35 °C"
    }
}