{
    "cas_no": "20651-71-2",
    "key_name": "4-Butylbenzoic acid",
    "cn_name": null,
    "alternate_name": "Benzoic acid, 4-butyl-;Benzoic acid, <em>p</em>-butyl-;4-Butylbenzoic acid;<em>p</em>-Butylbenzoic acid;4-<em>n</em>-Butylbenzoic acid;<em>p</em>-<em>n</em>-Butylbenzoic acid",
    "duplicated_cas_no": "",
    "SMILES": "C(O)(=O)C1=CC=C(CCCC)C=C1",
    "meta_data": {
        "InChI": "InChI=1S/C11H14O2/c1-2-3-4-9-5-7-10(8-6-9)11(12)13/h5-8H,2-4H2,1H3,(H,12,13)",
        "InChIKey": null,
        "Canonical SMILES": "O=C(O)C1=CC=C(C=C1)CCCC",
        "Molecular Formula": "C<sub>11</sub>H<sub>14</sub>O<sub>2</sub>",
        "Molecular Mass": "178.23",
        "Boiling Point": "150-155 °C @ Press: 0.4 Torr",
        "Melting Point": "100-113 °C"
    }
}