{
    "cas_no": "500-55-0",
    "key_name": "Apoatropine",
    "cn_name": null,
    "alternate_name": "Benzeneacetic acid, α-methylene-, (3-<em>endo</em>)-8-methyl-8-azabicyclo[3.2.1]oct-3-yl ester;Apoatropine;1α<span class=\"text-smallcaps\">H</smallcap>,5α<smallcap>H</span>-Tropan-3α-ol, atropate (ester);Benzeneacetic acid, α-methylene-, 8-methyl-8-azabicyclo[3.2.1]oct-3-yl ester, <em>endo</em>-;Atropamine;Atropyltropeine;Apoatropin;Atropamin;Apohyoscyamine;Apohyoscyamin",
    "duplicated_cas_no": "78887-65-7",
    "SMILES": "O(C(C(=C)C1=CC=CC=C1)=O)[C@H]2C[C@@]3(N(C)[C@](C2)(CC3)[H])[H]",
    "meta_data": {
        "InChI": "InChI=1/C17H21NO2/c1-12(13-6-4-3-5-7-13)17(19)20-16-10-14-8-9-15(11-16)18(14)2/h3-7,14-16H,1,8-11H2,2H3/t14-,15+,16+",
        "InChIKey": null,
        "Canonical SMILES": "O=C(OC1CC2N(C)C(CC2)C1)C(=C)C=3C=CC=CC3",
        "Molecular Formula": "C<sub>17</sub>H<sub>21</sub>NO<sub>2</sub>",
        "Molecular Mass": "271.35",
        "Melting Point": "62 °C"
    }
}