{
    "cas_no": "106556-36-9",
    "key_name": "2-(2-Hydroxy-4-methoxyphenyl)-4,6-diphenyl-1,3,5-triazine",
    "cn_name": null,
    "alternate_name": "Phenol, 2-(4,6-diphenyl-1,3,5-triazin-2-yl)-5-methoxy-;2-(4,6-Diphenyl-1,3,5-triazin-2-yl)-5-methoxyphenol;2-(4,6-Diphenyl-1,3,5-triazin-2-yl)-5-(methyloxy)phenol;2-(2-Hydroxy-4-methoxyphenyl)-4,6-diphenyl-1,3,5-triazine;UV 1579",
    "duplicated_cas_no": "",
    "SMILES": "OC1=C(C=2N=C(N=C(N2)C3=CC=CC=C3)C4=CC=CC=C4)C=CC(OC)=C1",
    "meta_data": {
        "InChI": "InChI=1S/C22H17N3O2/c1-27-17-12-13-18(19(26)14-17)22-24-20(15-8-4-2-5-9-15)23-21(25-22)16-10-6-3-7-11-16/h2-14,26H,1H3",
        "InChIKey": null,
        "Canonical SMILES": "OC=1C=C(OC)C=CC1C=2N=C(N=C(N2)C=3C=CC=CC3)C=4C=CC=CC4",
        "Molecular Formula": "C<sub>22</sub>H<sub>17</sub>N<sub>3</sub>O<sub>2</sub>",
        "Molecular Mass": "355.39",
        "Melting Point": "203 °C"
    }
}