{
    "cas_no": "13311-84-7",
    "key_name": "Flutamide",
    "cn_name": "氟他胺;2-甲基-N-[4-硝基-3-(三氟甲基)苯基]丙酰胺;",
    "alternate_name": "Propanamide, 2-methyl-<em>N</em>-[4-nitro-3-(trifluoromethyl)phenyl]-;<em>m</em>-Propionotoluidide, α,α,α-trifluoro-2-methyl-4′-nitro-;2-Methyl-<em>N</em>-[4-nitro-3-(trifluoromethyl)phenyl]propanamide;Sch 13521;4′-Nitro-3′-trifluoromethylisobutyranilide;<em>N</em>-(Isopropylcarbonyl)-4-nitro-3-trifluoromethylaniline;4-Nitro-3-(trifluoromethyl)isobutyranilide;Flutamide;Niftolide;Niftholide;Eulexin;Euflex;Flucinom;NSC 147834;NSC 215876;Odyne;Grisetin;Flutopharm;MeSH ID: D005485",
    "duplicated_cas_no": "37209-54-4",
    "SMILES": "C(F)(F)(F)C1=C(N(=O)=O)C=CC(NC(C(C)C)=O)=C1",
    "meta_data": {
        "InChI": "InChI=1S/C11H11F3N2O3/c1-6(2)10(17)15-7-3-4-9(16(18)19)8(5-7)11(12,13)14/h3-6H,1-2H3,(H,15,17)",
        "InChIKey": null,
        "Canonical SMILES": "O=C(NC1=CC=C(C(=C1)C(F)(F)F)N(=O)=O)C(C)C",
        "Molecular Formula": "C<sub>11</sub>H<sub>11</sub>F<sub>3</sub>N<sub>2</sub>O<sub>3</sub>",
        "Molecular Mass": "276.21",
        "Melting Point": "110-111 °C"
    }
}