{
    "cas_no": "81486-22-8",
    "key_name": "Nipradilol",
    "cn_name": "尼普地洛;尼普洛尔;",
    "alternate_name": "2<em>H</em>-1-Benzopyran-3-ol, 3,4-dihydro-8-[2-hydroxy-3-[(1-methylethyl)amino]propoxy]-, 3-nitrate;K 351;Nipradilol;Hypadil;KT 210;Nipradolol",
    "duplicated_cas_no": "",
    "SMILES": "O(CC(CNC(C)C)O)C1=C2C(CC(ON(=O)=O)CO2)=CC=C1",
    "meta_data": {
        "InChI": "InChI=1S/C15H22N2O6/c1-10(2)16-7-12(18)8-21-14-5-3-4-11-6-13(23-17(19)20)9-22-15(11)14/h3-5,10,12-13,16,18H,6-9H2,1-2H3",
        "InChIKey": null,
        "Canonical SMILES": "O=N(=O)OC1COC=2C(OCC(O)CNC(C)C)=CC=CC2C1",
        "Molecular Formula": "C<sub>15</sub>H<sub>22</sub>N<sub>2</sub>O<sub>6</sub>",
        "Molecular Mass": "326.35",
        "Melting Point": "107-116 °C"
    }
}