{
    "cas_no": "6317-18-6",
    "key_name": "Methylene bis(thiocyanate)",
    "cn_name": "二硫氰基甲烷;",
    "alternate_name": "Thiocyanic acid, <em>C</em>,<em>C</em>′-methylene ester;Thiocyanic acid, methylene ester;Methylene bis(thiocyanate);Methylene dithiocyanate;Methylene thiocyanate;Methylenedirhodanide;Nalfloc N 206;Proxel MB;V 709;Kilstain;Slimicide MC;Antiblu 3737;Antiblu 3738;Busan 110;Nalco D 2303;Bis(thiocyanato)methane;Dithiocyanomethane;Basiment 540;Nalco 5793;Metasol T 10;MBT;NSC 40464;WT 307B",
    "duplicated_cas_no": "",
    "SMILES": "C(SC#N)SC#N",
    "meta_data": {
        "InChI": "InChI=1S/C3H2N2S2/c4-1-6-3-7-2-5/h3H2",
        "InChIKey": null,
        "Canonical SMILES": "N#CSCSC#N",
        "Molecular Formula": "C<sub>3</sub>H<sub>2</sub>N<sub>2</sub>S<sub>2</sub>",
        "Molecular Mass": "130.19",
        "Melting Point": "105-107 °C"
    }
}