{
    "cas_no": "13808-65-6",
    "key_name": "4-Bromo-3-phenyl-1<em>H</em>-pyrazole",
    "cn_name": null,
    "alternate_name": "1<em>H</em>-Pyrazole, 4-bromo-3-phenyl-;Pyrazole, 4-bromo-3-phenyl-;4-Bromo-3-phenyl-1<em>H</em>-pyrazole;4-Bromo-3-phenylpyrazole",
    "duplicated_cas_no": "",
    "SMILES": "BrC=1C(=NNC1)C2=CC=CC=C2",
    "meta_data": {
        "InChI": "InChI=1S/C9H7BrN2/c10-8-6-11-12-9(8)7-4-2-1-3-5-7/h1-6H,(H,11,12)",
        "InChIKey": null,
        "Canonical SMILES": "BrC1=CNN=C1C=2C=CC=CC2",
        "Molecular Formula": "C<sub>9</sub>H<sub>7</sub>BrN<sub>2</sub>",
        "Molecular Mass": "223.07",
        "Melting Point": "116-117 °C"
    }
}