{
    "cas_no": "38464-04-9",
    "key_name": "3,4-Diethoxybenzeneacetic acid",
    "cn_name": "3,4-二乙氧基苯乙酸;",
    "alternate_name": "Benzeneacetic acid, 3,4-diethoxy-;Acetic acid, (3,4-diethoxyphenyl)-;3,4-Diethoxybenzeneacetic acid;3,4-Diethoxyphenylacetic acid;2-(3,4-Diethoxyphenyl)acetic acid",
    "duplicated_cas_no": "",
    "SMILES": "O(CC)C1=C(OCC)C=CC(CC(O)=O)=C1",
    "meta_data": {
        "InChI": "InChI=1S/C12H16O4/c1-3-15-10-6-5-9(8-12(13)14)7-11(10)16-4-2/h5-7H,3-4,8H2,1-2H3,(H,13,14)",
        "InChIKey": null,
        "Canonical SMILES": "O=C(O)CC1=CC=C(OCC)C(OCC)=C1",
        "Molecular Formula": "C<sub>12</sub>H<sub>16</sub>O<sub>4</sub>",
        "Molecular Mass": "224.25",
        "Melting Point": "79-80 °C"
    }
}