{
    "cas_no": "16588-06-0",
    "key_name": "4-Chloro-3-nitrobenzamide",
    "cn_name": "4-氯-3-硝基苯甲酰胺;",
    "alternate_name": "Benzamide, 4-chloro-3-nitro-;4-Chloro-3-nitrobenzamide;3-Nitro-4-chlorobenzamide;NSC 127825",
    "duplicated_cas_no": "",
    "SMILES": "N(=O)(=O)C1=CC(C(N)=O)=CC=C1Cl",
    "meta_data": {
        "InChI": "InChI=1S/C7H5ClN2O3/c8-5-2-1-4(7(9)11)3-6(5)10(12)13/h1-3H,(H2,9,11)",
        "InChIKey": null,
        "Canonical SMILES": "O=C(N)C1=CC=C(Cl)C(=C1)N(=O)=O",
        "Molecular Formula": "C<sub>7</sub>H<sub>5</sub>ClN<sub>2</sub>O<sub>3</sub>",
        "Molecular Mass": "200.58",
        "Melting Point": "156 °C"
    }
}