{
    "cas_no": "103-84-4",
    "key_name": "Acetanilide",
    "cn_name": "N-乙酰苯胺;乙酰氨基苯;乙酰苯胺;",
    "alternate_name": "Acetamide, <em>N</em>-phenyl-;Acetanilide;<em>N</em>-Phenylacetamide;Acetanil;Acetylaniline;Antifebrin;Benzenamine, <em>N</em>-acetyl-;Acetamidobenzene;Acetoanilide;<em>N</em>-Acetylaniline;Phenalgene;Phenalgin;<em>N</em>-Acetylaminobenzene;NSC 203231;NSC 7636;1-Acetylaminobenzene;Anilino methyl ketone",
    "duplicated_cas_no": "",
    "SMILES": "N(C(C)=O)C1=CC=CC=C1",
    "meta_data": {
        "InChI": "InChI=1S/C8H9NO/c1-7(10)9-8-5-3-2-4-6-8/h2-6H,1H3,(H,9,10)",
        "InChIKey": null,
        "Canonical SMILES": "O=C(NC=1C=CC=CC1)C",
        "Molecular Formula": "C<sub>8</sub>H<sub>9</sub>NO",
        "Molecular Mass": "135.16",
        "Boiling Point": "304 °C @ Press: 760 Torr",
        "Melting Point": "114.3 °C",
        "Density": "1.2190 g/cm³ @ Temp: 15 °C"
    }
}