{
    "cas_no": "152-93-2",
    "key_name": "Vicine",
    "cn_name": null,
    "alternate_name": "4(1<em>H</em>)-Pyrimidinone, 2,6-diamino-5-(β-<span class=\"text-smallcaps\">D</span>-glucopyranosyloxy)-;Vicine;2,6-Diamino-5-(β-<span class=\"text-smallcaps\">D</span>-glucopyranosyloxy)-4(1<em>H</em>)-pyrimidinone;Divicine β-<span class=\"text-smallcaps\">D</span>-glucopyranoside;Vicioside;NSC 95092",
    "duplicated_cas_no": "7758-58-9",
    "SMILES": "O(C1=C(N)NC(N)=NC1=O)[C@@H]2O[C@H](CO)[C@@H](O)[C@H](O)[C@H]2O",
    "meta_data": {
        "InChI": "InChI=1S/C10H16N4O7/c11-7-6(8(19)14-10(12)13-7)21-9-5(18)4(17)3(16)2(1-15)20-9/h2-5,9,15-18H,1H2,(H5,11,12,13,14,19)/t2-,3-,4+,5-,9+/m1/s1",
        "InChIKey": null,
        "Canonical SMILES": "O=C1N=C(N)NC(N)=C1OC2OC(CO)C(O)C(O)C2O",
        "Molecular Formula": "C<sub>10</sub>H<sub>16</sub>N<sub>4</sub>O<sub>7</sub>",
        "Molecular Mass": "304.26",
        "Melting Point": "240.5 °C (decomp)"
    }
}