{
    "cas_no": "1906-79-2",
    "key_name": "Ethylpyridinium bromide",
    "cn_name": "1-乙基溴化吡啶;",
    "alternate_name": "Pyridinium, 1-ethyl-, bromide (1:1);Pyridinium, 1-ethyl-, bromide;1-Ethylpyridinium bromide;EPB;<em>N</em>-Ethylpyridinium bromide;Ethylpyridinium bromide;<em>N</em>-Ethylpyridinylium bromide",
    "duplicated_cas_no": "82305-24-6",
    "SMILES": "C(C)[N+]=1C=CC=CC1.[Br-]",
    "meta_data": {
        "InChI": "InChI=1S/C7H10N.BrH/c1-2-8-6-4-3-5-7-8;/h3-7H,2H2,1H3;1H/q+1;/p-1",
        "InChIKey": null,
        "Canonical SMILES": "[Br-].C=1C=C[N+](=CC1)CC",
        "Molecular Formula": "C<sub>7</sub>H<sub>10</sub>N.Br",
        "Molecular Mass": "",
        "Melting Point": "120-121 °C"
    }
}