{
    "cas_no": "22535-90-6",
    "key_name": "6,6′-(2,4,8,10-Tetraoxaspiro[5.5]undecane-3,9-diyldi-2,1-ethanediyl)bis[1,3,5-triazine-2,4-diamine]",
    "cn_name": "3,9-双[2-(3,5-二氨基-2,4,6-三氮杂苯基)乙基]-2,4,6,8-四氧螺[5.5]十一烷;",
    "alternate_name": "1,3,5-Triazine-2,4-diamine, 6,6′-(2,4,8,10-tetraoxaspiro[5.5]undecane-3,9-diyldi-2,1-ethanediyl)bis-;<em>s</em>-Triazine, 2,2′-(2,4,8,10-tetraoxaspiro[5.5]undec-3,9-ylenediethylene)bis[4,6-diamino-;2,4,8,10-Tetraoxaspiro[5.5]undecane, 1,3,5-triazine-2,4-diamine deriv.;6,6′-(2,4,8,10-Tetraoxaspiro[5.5]undecane-3,9-diyldi-2,1-ethanediyl)bis[1,3,5-triazine-2,4-diamine];3,9-Bis[2-(4,6-diamino-<em>s</em>-triazin-2-yl)ethyl]-2,4,8,10-tetraoxaspiro[5.5]undecane;3,9-Bis[2-(2,6-diamino-<em>s</em>-triazin-4-yl)ethyl]-2,4,8,10-tetraoxaspiro[5.5]undecane;3,9-Bis[2-(3,5-diamino-2,4,6-triazaphenyl)ethyl]-2,4,8,10-tetraoxaspiro[5,5]undecane;6,6′-(2,4,8,10-Tetraoxaspiro[5.5]undecane-3,9-diyldi-2,1-ethanediyl)bis(1,3,5-triazine-2,4-diamine);CTU-guanamine",
    "duplicated_cas_no": "99674-51-8;51237-95-7",
    "SMILES": "C(CC=1N=C(N)N=C(N)N1)C2OCC3(COC(CCC=4N=C(N)N=C(N)N4)OC3)CO2",
    "meta_data": {
        "InChI": "InChI=1S/C17H26N10O4/c18-13-22-9(23-14(19)26-13)1-3-11-28-5-17(6-29-11)7-30-12(31-8-17)4-2-10-24-15(20)27-16(21)25-10/h11-12H,1-8H2,(H4,18,19,22,23,26)(H4,20,21,24,25,27)",
        "InChIKey": null,
        "Canonical SMILES": "N=1C(=NC(=NC1N)CCC2OCC3(CO2)COC(OC3)CCC=4N=C(N=C(N4)N)N)N",
        "Molecular Formula": "C<sub>17</sub>H<sub>26</sub>N<sub>10</sub>O<sub>4</sub>",
        "Molecular Mass": "434.45",
        "Melting Point": "270-272 °C"
    }
}