{
    "cas_no": "4801-80-3",
    "key_name": "Phenylmethyl <em>N</em>-[(1<em>S</em>)-2-amino-2-oxo-1-(phenylmethyl)ethyl]carbamate",
    "cn_name": null,
    "alternate_name": "Carbamic acid, <em>N</em>-[(1<em>S</em>)-2-amino-2-oxo-1-(phenylmethyl)ethyl]-, phenylmethyl ester;Carbamic acid, (α-carbamoylphenethyl)-, benzyl ester, <span class=\"text-smallcaps\">L</span>-;Carbamic acid, [2-amino-2-oxo-1-(phenylmethyl)ethyl]-, phenylmethyl ester, (<em>S</em>)-;Carbamic acid, [(1<em>S</em>)-2-amino-2-oxo-1-(phenylmethyl)ethyl]-, phenylmethyl ester;Phenylmethyl <em>N</em>-[(1<em>S</em>)-2-amino-2-oxo-1-(phenylmethyl)ethyl]carbamate;Benzyloxycarbonyl-<span class=\"text-smallcaps\">L</span>-phenylalaninamide;<em>N</em>-Benzyloxycarbonyl-<span class=\"text-smallcaps\">L</span>-phenylalanine amide;<em>N</em>-Benzyloxycarbonylphenylalanine amide",
    "duplicated_cas_no": "2074659-44-0",
    "SMILES": "[C@@H](CC1=CC=CC=C1)(NC(OCC2=CC=CC=C2)=O)C(N)=O",
    "meta_data": {
        "InChI": "InChI=1S/C17H18N2O3/c18-16(20)15(11-13-7-3-1-4-8-13)19-17(21)22-12-14-9-5-2-6-10-14/h1-10,15H,11-12H2,(H2,18,20)(H,19,21)/t15-/m0/s1",
        "InChIKey": null,
        "Canonical SMILES": "O=C(OCC=1C=CC=CC1)NC(C(=O)N)CC=2C=CC=CC2",
        "Molecular Formula": "C<sub>17</sub>H<sub>18</sub>N<sub>2</sub>O<sub>3</sub>",
        "Molecular Mass": "298.34",
        "Melting Point": "165-166 °C"
    }
}