{
    "cas_no": "614-20-0",
    "key_name": "Benzoylacetic acid",
    "cn_name": null,
    "alternate_name": "Benzenepropanoic acid, β-oxo-;Acetic acid, benzoyl-;β-Oxobenzenepropanoic acid;Hydrocinnamic acid, β-oxo-;Benzoylacetic acid;NSC 97769;3-Oxo-3-phenylpropanoic acid;3-Oxo-3-phenylpropionic acid",
    "duplicated_cas_no": "",
    "SMILES": "C(CC(O)=O)(=O)C1=CC=CC=C1",
    "meta_data": {
        "InChI": "InChI=1S/C9H8O3/c10-8(6-9(11)12)7-4-2-1-3-5-7/h1-5H,6H2,(H,11,12)",
        "InChIKey": null,
        "Canonical SMILES": "O=C(O)CC(=O)C=1C=CC=CC1",
        "Molecular Formula": "C<sub>9</sub>H<sub>8</sub>O<sub>3</sub>",
        "Molecular Mass": "164.16",
        "Melting Point": "102 °C"
    }
}