{
    "cas_no": "1649-18-9",
    "key_name": "Azaperone",
    "cn_name": "阿扎哌隆;1-(4-氟苯基)-4-[4-(2-吡啶基)-1-哌嗪]-1-丁酮;",
    "alternate_name": "1-Butanone, 1-(4-fluorophenyl)-4-[4-(2-pyridinyl)-1-piperazinyl]-;Butyrophenone, 4′-fluoro-4-[4-(2-pyridyl)-1-piperazinyl]-;1-(4-Fluorophenyl)-4-[4-(2-pyridinyl)-1-piperazinyl]-1-butanone;4′-Fluoro-4-[4-(2-pyridyl)-1-piperazinyl]butyrophenone;Azaperone;Fluoperidol;Stresnil;R-1929;Suicalm;NSC 170976",
    "duplicated_cas_no": "",
    "SMILES": "C(CCC(=O)C1=CC=C(F)C=C1)N2CCN(CC2)C3=CC=CC=N3",
    "meta_data": {
        "InChI": "InChI=1S/C19H22FN3O/c20-17-8-6-16(7-9-17)18(24)4-3-11-22-12-14-23(15-13-22)19-5-1-2-10-21-19/h1-2,5-10H,3-4,11-15H2",
        "InChIKey": null,
        "Canonical SMILES": "O=C(C1=CC=C(F)C=C1)CCCN2CCN(C3=NC=CC=C3)CC2",
        "Molecular Formula": "C<sub>19</sub>H<sub>22</sub>FN<sub>3</sub>O",
        "Molecular Mass": "327.40",
        "Melting Point": "73-75 °C"
    }
}