{
    "cas_no": "906674-55-3",
    "key_name": "Borate(1-), trifluoro-2-thienyl-, potassium (1:1), (<em>T</em>-4)-",
    "cn_name": null,
    "alternate_name": "Borate(1-), trifluoro-2-thienyl-, potassium (1:1), (<em>T</em>-4)-;Borate(1-), trifluoro-2-thienyl-, potassium, (<em>T</em>-4)-;Potassium (2-thienyl)trifluoroborate;Potassium 2-thienyltrifluoroborate;Potassium trifluoro(2-thienyl)borate",
    "duplicated_cas_no": "",
    "SMILES": "[B+3]([F-])([F-])([F-])[C-]1=CC=CS1.[K+]",
    "meta_data": {
        "InChI": "InChI=1S/C4H3BF3S.K/c6-5(7,8)4-2-1-3-9-4;/h1-3H;/q-1;+1",
        "InChIKey": null,
        "Canonical SMILES": "[K+].[F-][B+3]([F-])([F-])[C-]=1SC=CC1",
        "Molecular Formula": "C<sub>4</sub>H<sub>3</sub>BF<sub>3</sub>S.K",
        "Molecular Mass": "",
        "Melting Point": "253 °C"
    }
}