{
    "cas_no": "127-47-9",
    "key_name": "Retinol, acetate",
    "cn_name": "维生素A醋酸酯;维生素A乙酸酯;视黄醇乙酸酯;",
    "alternate_name": "Retinol, acetate;Retinol, acetate, <em>all</em>-<em>trans</em>-;Myvak;Myvax;Retinyl acetate;<em>all</em>-<em>trans</em>-Vitamin A acetate;<em>all</em>-<em>trans</em>-Retinyl acetate;Vitamin A acetate;<em>trans</em>-Retinyl acetate;Vitamin A<sub>1</sub> acetate;Arovit;Ro 1-5275;<em>all</em>-<em>trans</em>-Retinol acetate;<em>trans</em>-Retinol acetate;NSC 122045;NSC 122760;Rovimix A 1000;Retinol acetate;Dry Vitamin A Acetate 325CWS/A",
    "duplicated_cas_no": "7095-40-1;11098-51-4;13116-20-6;80180-27-4",
    "SMILES": "C(=C/C(=C/C=C/C(=C/COC(C)=O)/C)/C)\\C=1C(C)(C)CCCC1C",
    "meta_data": {
        "InChI": "InChI=1S/C22H32O2/c1-17(9-7-10-18(2)14-16-24-20(4)23)12-13-21-19(3)11-8-15-22(21,5)6/h7,9-10,12-14H,8,11,15-16H2,1-6H3/b10-7+,13-12+,17-9+,18-14+",
        "InChIKey": null,
        "Canonical SMILES": "O=C(OCC=C(C=CC=C(C=CC1=C(C)CCCC1(C)C)C)C)C",
        "Molecular Formula": "C<sub>22</sub>H<sub>32</sub>O<sub>2</sub>",
        "Molecular Mass": "328.49",
        "Melting Point": "57-58 °C"
    }
}