{
    "cas_no": "39115-96-3",
    "key_name": "3-Bromobenzoic acid hydrazide",
    "cn_name": "3-溴苯肼;",
    "alternate_name": "Benzoic acid, 3-bromo-, hydrazide;Benzoic acid, <em>m</em>-bromo-, hydrazide;<em>m</em>-Bromobenzoic acid hydrazide;3-Bromobenzhydrazide;<em>m</em>-Bromobenzohydrazide;<em>m</em>-Bromobenzoic hydrazide;3-Bromobenzoic acid hydrazide;(<em>m</em>-Bromobenzoyl)hydrazine;(3-Bromobenzoyl)hydrazine;3-Bromobenzohydrazide;3-Bromobenzoic hydrazide;3-Bromobenzoyl hydrazide;5-Bromobenzohydrazide;<em>m</em>-Bromobenzoylhydrazide",
    "duplicated_cas_no": "",
    "SMILES": "C(NN)(=O)C1=CC(Br)=CC=C1",
    "meta_data": {
        "InChI": "InChI=1S/C7H7BrN2O/c8-6-3-1-2-5(4-6)7(11)10-9/h1-4H,9H2,(H,10,11)",
        "InChIKey": null,
        "Canonical SMILES": "O=C(NN)C=1C=CC=C(Br)C1",
        "Molecular Formula": "C<sub>7</sub>H<sub>7</sub>BrN<sub>2</sub>O",
        "Molecular Mass": "215.05",
        "Melting Point": "157-159 °C"
    }
}