{
    "cas_no": "105-11-3",
    "key_name": "Benzoquinone dioxime",
    "cn_name": "1,4-苯醌二肟;对苯醌二肟;",
    "alternate_name": "2,5-Cyclohexadiene-1,4-dione, 1,4-dioxime;<em>p</em>-Benzoquinone, dioxime;2,5-Cyclohexadiene-1,4-dione, dioxime;Benzoquinone dioxime;<em>p</em>-Quinone dioxime;<em>p</em>-Quinone oxime;1,4-Benzoquinone dioxime;Actor Q;Vulnoc GM;Quinone dioxime;Vulnoc GM-P;GM-P;NSC 14433;NSC 4774;Vulnoc DM;Luxomaxx K-CDO;RKZ 3008;Luvomaxx K-CDO 65W;GDO 65MK",
    "duplicated_cas_no": "",
    "SMILES": "N(O)=C1C=CC(=NO)C=C1",
    "meta_data": {
        "InChI": "InChI=1S/C6H6N2O2/c9-7-5-1-2-6(8-10)4-3-5/h1-4,9-10H",
        "InChIKey": null,
        "Canonical SMILES": "ON=C1C=CC(=NO)C=C1",
        "Molecular Formula": "C<sub>6</sub>H<sub>6</sub>N<sub>2</sub>O<sub>2</sub>",
        "Molecular Mass": "138.12",
        "Melting Point": "243 °C (decomp)"
    }
}