{
    "cas_no": "1877-75-4",
    "key_name": "4-Methoxyphenoxyacetic acid",
    "cn_name": "对甲氧基苯氧乙酸;4-甲氧基苯氧乙酸;",
    "alternate_name": "Acetic acid, 2-(4-methoxyphenoxy)-;Acetic acid, (<em>p</em>-methoxyphenoxy)-;Acetic acid, (4-methoxyphenoxy)-;2-(4-Methoxyphenoxy)acetic acid;4-Methoxyphenoxyacetic acid;<em>p</em>-Methoxyphenoxyacetic acid;4-Methoxyphenyloxyacetic acid;NSC 4255;NSC 45652",
    "duplicated_cas_no": "",
    "SMILES": "O(CC(O)=O)C1=CC=C(OC)C=C1",
    "meta_data": {
        "InChI": "InChI=1S/C9H10O4/c1-12-7-2-4-8(5-3-7)13-6-9(10)11/h2-5H,6H2,1H3,(H,10,11)",
        "InChIKey": null,
        "Canonical SMILES": "O=C(O)COC1=CC=C(OC)C=C1",
        "Molecular Formula": "C<sub>9</sub>H<sub>10</sub>O<sub>4</sub>",
        "Molecular Mass": "182.17",
        "Melting Point": "112 °C"
    }
}