{
    "cas_no": "59489-31-5",
    "key_name": "2,7-Dichloroquinoxaline",
    "cn_name": null,
    "alternate_name": "Quinoxaline, 2,7-dichloro-;2,7-Dichloroquinoxaline",
    "duplicated_cas_no": "",
    "SMILES": "ClC1=NC2=C(C=CC(Cl)=C2)N=C1",
    "meta_data": {
        "InChI": "InChI=1S/C8H4Cl2N2/c9-5-1-2-6-7(3-5)12-8(10)4-11-6/h1-4H",
        "InChIKey": null,
        "Canonical SMILES": "ClC1=NC2=CC(Cl)=CC=C2N=C1",
        "Molecular Formula": "C<sub>8</sub>H<sub>4</sub>Cl<sub>2</sub>N<sub>2</sub>",
        "Molecular Mass": "199.04",
        "Melting Point": "141 °C"
    }
}