{
    "cas_no": "319-03-9",
    "key_name": "4-Fluorophthalic anhydride",
    "cn_name": "4-氟酞酐;4-氟邻苯二甲酸酐;",
    "alternate_name": "1,3-Isobenzofurandione, 5-fluoro-;Phthalic anhydride, 4-fluoro-;5-Fluoro-1,3-isobenzofurandione;4-Fluorophthalic anhydride;NSC 42091;5-Fluoroisobenzofuran-1,3-dione;5-Fluoro-1,3-dihydro-2-benzofuran-1,3-dione;4-Fluorophthalic acid anhydride;3(2<em>H</em>)-Benzofuranone, 5-fluoro-, 1-oxide",
    "duplicated_cas_no": "2858743-81-2",
    "SMILES": "O=C1C=2C(C(=O)O1)=CC=C(F)C2",
    "meta_data": {
        "InChI": "InChI=1S/C8H3FO3/c9-4-1-2-5-6(3-4)8(11)12-7(5)10/h1-3H",
        "InChIKey": null,
        "Canonical SMILES": "O=C1OC(=O)C2=CC(F)=CC=C12",
        "Molecular Formula": "C<sub>8</sub>H<sub>3</sub>FO<sub>3</sub>",
        "Molecular Mass": "166.11",
        "Boiling Point": "260 °C @ Press: 746 Torr",
        "Melting Point": "76-78 °C"
    }
}