{
    "cas_no": "36436-65-4",
    "key_name": "2′-Hydroxy-4′,5′-dimethylacetophenone",
    "cn_name": "2\"-羟基-4\",5\"-二甲基苯乙酮;2ˊ-羟基-4ˊ,5ˊ-二甲基苯乙酮;",
    "alternate_name": "Ethanone, 1-(2-hydroxy-4,5-dimethylphenyl)-;Acetophenone, 2′-hydroxy-4′,5′-dimethyl-;1-(2-Hydroxy-4,5-dimethylphenyl)ethanone;2′-Hydroxy-4′,5′-dimethylacetophenone;4′,5′-Dimethyl-2′-hydroxyacetophenone;2-Acetyl-4,5-dimethylphenol;4,5-Dimethyl-2-hydroxyacetophenone;1-(4,5-Dimethyl-2-hydroxyphenyl)ethanone;1-(2-Hydroxy-4,5-dimethylphenyl)ethan-1-one",
    "duplicated_cas_no": "",
    "SMILES": "C(C)(=O)C1=C(O)C=C(C)C(C)=C1",
    "meta_data": {
        "InChI": "InChI=1S/C10H12O2/c1-6-4-9(8(3)11)10(12)5-7(6)2/h4-5,12H,1-3H3",
        "InChIKey": null,
        "Canonical SMILES": "O=C(C=1C=C(C(=CC1O)C)C)C",
        "Molecular Formula": "C<sub>10</sub>H<sub>12</sub>O<sub>2</sub>",
        "Molecular Mass": "164.20",
        "Melting Point": "71 °C"
    }
}