{
    "cas_no": "707-36-8",
    "key_name": "1-Chloro-3,5-dimethyladamantane",
    "cn_name": "1-氯-3,5-二甲基金刚烷;5-氯-1,3-二甲基金刚烷;",
    "alternate_name": "Tricyclo[3.3.1.1<sup>3,7</sup>]decane, 1-chloro-3,5-dimethyl-;Adamantane, 1-chloro-3,5-dimethyl-;1-Chloro-3,5-dimethyltricyclo[3.3.1.1<sup>3,7</sup>]decane;1-Chloro-3,5-dimethyladamantane;1,3-Dimethyl-5-chloroadamantane;5-Chloro-1,3-dimethyladamantane;3-Chloro-1,5-dimethyl-adamantane",
    "duplicated_cas_no": "1204184-76-8",
    "SMILES": "CC12CC3(C)CC(Cl)(C1)CC(C2)C3",
    "meta_data": {
        "InChI": "InChI=1S/C12H19Cl/c1-10-3-9-4-11(2,6-10)8-12(13,5-9)7-10/h9H,3-8H2,1-2H3",
        "InChIKey": null,
        "Canonical SMILES": "ClC12CC3CC(C)(C1)CC(C)(C3)C2",
        "Molecular Formula": "C<sub>12</sub>H<sub>19</sub>Cl",
        "Molecular Mass": "198.73",
        "Boiling Point": "84-87 °C @ Press: 4 Torr"
    }
}