{
    "cas_no": "12027-06-4",
    "key_name": "Ammonium iodide",
    "cn_name": "碘化铵;",
    "alternate_name": "Ammonium iodide ((NH<sub>4</sub>)I);Ammonium iodide",
    "duplicated_cas_no": "130604-19-2",
    "SMILES": "I[NH4]",
    "meta_data": {
        "InChI": "InChI=1S/HI.H3N/h1H;1H3",
        "InChIKey": null,
        "Canonical SMILES": "I[NH4]",
        "Molecular Formula": "H<sub>4</sub>IN",
        "Molecular Mass": "144.94",
        "Melting Point": "551 °C",
        "Density": "2.514 g/cm³ @ Temp: 25 °C"
    }
}