{
    "cas_no": "4124-31-6",
    "key_name": "Trichloroacetic anhydride",
    "cn_name": "三氯乙酸酐;",
    "alternate_name": "Acetic acid, 2,2,2-trichloro-, 1,1′-anhydride;Acetic acid, trichloro-, anhydride;Trichloroacetic anhydride;Trichloracetic anhydride;Trichloroacetic acid anhydride;(2,2,2-Trichloroacetyl) 2,2,2-trichloroacetate",
    "duplicated_cas_no": "",
    "SMILES": "O(C(C(Cl)(Cl)Cl)=O)C(C(Cl)(Cl)Cl)=O",
    "meta_data": {
        "InChI": "InChI=1S/C4Cl6O3/c5-3(6,7)1(11)13-2(12)4(8,9)10",
        "InChIKey": null,
        "Canonical SMILES": "O=C(OC(=O)C(Cl)(Cl)Cl)C(Cl)(Cl)Cl",
        "Molecular Formula": "C<sub>4</sub>Cl<sub>6</sub>O<sub>3</sub>",
        "Molecular Mass": "308.76",
        "Boiling Point": "96-100 °C @ Press: 10-11 Torr"
    }
}