{
    "cas_no": "6320-03-2",
    "key_name": "2-Chlorobenzenethiol",
    "cn_name": null,
    "alternate_name": "Benzenethiol, 2-chloro-;Benzenethiol, <em>o</em>-chloro-;2-Chlorobenzenethiol;<em>o</em>-Chlorobenzenethiol;2-Chlorothiophenol;<em>o</em>-Chlorothiophenol;<em>o</em>-Chloromercaptobenzene;(2-Chlorophenyl)thiol;NSC 32019;2-Chlorobenzene-1-thiol",
    "duplicated_cas_no": "1623130-97-1",
    "SMILES": "ClC1=C(S)C=CC=C1",
    "meta_data": {
        "InChI": "InChI=1S/C6H5ClS/c7-5-3-1-2-4-6(5)8/h1-4,8H",
        "InChIKey": null,
        "Canonical SMILES": "ClC=1C=CC=CC1S",
        "Molecular Formula": "C<sub>6</sub>H<sub>5</sub>ClS",
        "Molecular Mass": "144.62",
        "Boiling Point": "205.5 °C"
    }
}