{
    "cas_no": "22013-33-8",
    "key_name": "1,4-Benzodioxan-6-amine",
    "cn_name": "6-氨基-1,4-苯并二氧杂环;",
    "alternate_name": "1,4-Benzodioxin-6-amine, 2,3-dihydro-;1,4-Benzodioxan-6-amine;2,3-Dihydro-1,4-benzodioxin-6-amine;6-Amino-1,4-benzodioxane;3,4-(Ethylenedioxy)aniline;6-Amino-2,3-dihydro-1,4-benzodioxin;2,3-Dihydrobenzo[1,4]dioxin-6-ylamine;2,3-Dihydrobenzo[<em>b</em>][1,4]dioxin-6-amine;6-Amino-2,3-dihydro-1,4-benzodioxine;6-Amino-2,3-dihydrobenzo[<em>b</em>][1,4]dioxane;6-Amino-2,3-dihydrobenzo[<em>b</em>][1,4]dioxine;2,3-Dihydro-1,4-benzodioxin-6-ylamine",
    "duplicated_cas_no": "",
    "SMILES": "NC=1C=C2C(=CC1)OCCO2",
    "meta_data": {
        "InChI": "InChI=1S/C8H9NO2/c9-6-1-2-7-8(5-6)11-4-3-10-7/h1-2,5H,3-4,9H2",
        "InChIKey": null,
        "Canonical SMILES": "O1C2=CC=C(N)C=C2OCC1",
        "Molecular Formula": "C<sub>8</sub>H<sub>9</sub>NO<sub>2</sub>",
        "Molecular Mass": "151.16",
        "Boiling Point": "149-150 °C @ Press: 2 Torr",
        "Melting Point": "207-208 °C"
    }
}