{
    "cas_no": "622-08-2",
    "key_name": "Benzyloxyethanol",
    "cn_name": "2-苄氧基乙醇;2-(苯基甲氧基)乙醇;",
    "alternate_name": "Ethanol, 2-(phenylmethoxy)-;Ethanol, 2-(benzyloxy)-;2-(Phenylmethoxy)ethanol;Ethylene glycol monobenzyl ether;Glycol monobenzyl ether;2-(Benzyloxy)ethanol;1-<em>O</em>-Benzylethanediol;2-Benzyloxyethyl alcohol;Benzyl 2-hydroxyethyl ether;NSC 8886;Ethylene glycol benzyl ether;Benzyloxyethanol;BzG;2-(Benzyloxy)ethan-1-ol",
    "duplicated_cas_no": "",
    "SMILES": "C(OCCO)C1=CC=CC=C1",
    "meta_data": {
        "InChI": "InChI=1S/C9H12O2/c10-6-7-11-8-9-4-2-1-3-5-9/h1-5,10H,6-8H2",
        "InChIKey": null,
        "Canonical SMILES": "OCCOCC=1C=CC=CC1",
        "Molecular Formula": "C<sub>9</sub>H<sub>12</sub>O<sub>2</sub>",
        "Molecular Mass": "152.19",
        "Boiling Point": "256 °C @ Press: 760 Torr",
        "Melting Point": "&lt;-75 °C",
        "Density": "1.0640 g/cm³ @ Temp: 20 °C"
    }
}