{
    "cas_no": "16156-54-0",
    "key_name": "1-Methylpropyl methanesulfonate",
    "cn_name": null,
    "alternate_name": "Methanesulfonic acid, 1-methylpropyl ester;Methanesulfonic acid, <em>sec</em>-butyl ester;1-Methylpropyl methanesulfonate;<em>sec</em>-Butyl methanesulfonate;<em>sec</em>-Butyl mesylate;2-Butyl methanesulfonate;2-Butyl mesylate",
    "duplicated_cas_no": "119943-51-0",
    "SMILES": "O(S(C)(=O)=O)C(CC)C",
    "meta_data": {
        "InChI": "InChI=1S/C5H12O3S/c1-4-5(2)8-9(3,6)7/h5H,4H2,1-3H3",
        "InChIKey": null,
        "Canonical SMILES": "O=S(=O)(OC(C)CC)C",
        "Molecular Formula": "C<sub>5</sub>H<sub>12</sub>O<sub>3</sub>S",
        "Molecular Mass": "152.21",
        "Boiling Point": "61.4-61.5 °C @ Press: 0.5 Torr",
        "Density": "1.1053 g/cm³ @ Temp: 25 °C"
    }
}