{
    "cas_no": "17360-11-1",
    "key_name": "3,5-Dinitro-<span class=\"text-smallcaps\">L</span>-tyrosine",
    "cn_name": null,
    "alternate_name": "<span class=\"text-smallcaps\">L</span>-Tyrosine, 3,5-dinitro-;Tyrosine, 3,5-dinitro-, <span class=\"text-smallcaps\">L</span>-;3,5-Dinitro-<span class=\"text-smallcaps\">L</span>-tyrosine;NSC 80662;(2S)-2-Azaniumyl-3-(4-hydroxy-3,5-dinitrophenyl)propanoate;(<em>S</em>)-2-Amino-3-(4-hydroxy-3,5-dinitrophenyl)propanoicacid",
    "duplicated_cas_no": "",
    "SMILES": "N(=O)(=O)C1=C(O)C(N(=O)=O)=CC(C[C@@H](C(O)=O)N)=C1",
    "meta_data": {
        "InChI": "InChI=1S/C9H9N3O7/c10-5(9(14)15)1-4-2-6(11(16)17)8(13)7(3-4)12(18)19/h2-3,5,13H,1,10H2,(H,14,15)/t5-/m0/s1",
        "InChIKey": null,
        "Canonical SMILES": "O=C(O)C(N)CC=1C=C(C(O)=C(C1)N(=O)=O)N(=O)=O",
        "Molecular Formula": "C<sub>9</sub>H<sub>9</sub>N<sub>3</sub>O<sub>7</sub>",
        "Molecular Mass": "271.18",
        "Melting Point": "230-232 °C (decomp)"
    }
}