{
    "cas_no": "32828-81-2",
    "key_name": "Picotamide",
    "cn_name": "匹考他胺;4-甲氧基-N,N\"-二(3-吡啶甲基)-1,3-苯二甲酰胺;",
    "alternate_name": "1,3-Benzenedicarboxamide, 4-methoxy-<em>N</em><sup>1</sup>,<em>N</em><sup>3</sup>-bis(3-pyridinylmethyl)-;1,3-Benzenedicarboxamide, 4-methoxy-<em>N</em>,<em>N</em>′-bis(3-pyridinylmethyl)-;Isophthalamide, 4-methoxy-<em>N</em>,<em>N</em>′-bis(3-pyridylmethyl)-;4-Methoxy-<em>N</em><sup>1</sup>,<em>N</em><sup>3</sup>-bis(3-pyridinylmethyl)-1,3-benzenedicarboxamide;G 137;<em>N</em>,<em>N</em>′-Bis(3-picolyl)-4-methoxyisophthalamide;Picotamide",
    "duplicated_cas_no": "",
    "SMILES": "C(NCC=1C=CC=NC1)(=O)C2=C(OC)C=CC(C(NCC=3C=CC=NC3)=O)=C2",
    "meta_data": {
        "InChI": "InChI=1S/C21H20N4O3/c1-28-19-7-6-17(20(26)24-13-15-4-2-8-22-11-15)10-18(19)21(27)25-14-16-5-3-9-23-12-16/h2-12H,13-14H2,1H3,(H,24,26)(H,25,27)",
        "InChIKey": null,
        "Canonical SMILES": "O=C(NCC=1C=NC=CC1)C2=CC=C(OC)C(=C2)C(=O)NCC=3C=NC=CC3",
        "Molecular Formula": "C<sub>21</sub>H<sub>20</sub>N<sub>4</sub>O<sub>3</sub>",
        "Molecular Mass": "376.41",
        "Melting Point": "124 °C"
    }
}