{
    "cas_no": "328-38-1",
    "key_name": "<span class=\"text-smallcaps\">D</span>-Leucine",
    "cn_name": "D-亮氨酸;D-2-氨基-4-甲基戊酸;",
    "alternate_name": "<span class=\"text-smallcaps\">D</span>-Leucine;Leucine, <span class=\"text-smallcaps\">D</span>-;(<em>R</em>)-(-)-Leucine;(<em>R</em>)-Leucine;NSC 77687;(<em>R</em>)-4-Methyl-2-aminopentanoic acid;(2R)-2-Amino-4-methylpentanoic acid;(R)-2-Amino-4-methylpentanoic acid",
    "duplicated_cas_no": "1606170-98-2",
    "SMILES": "[C@@H](CC(C)C)(C(O)=O)N",
    "meta_data": {
        "InChI": "InChI=1S/C6H13NO2/c1-4(2)3-5(7)6(8)9/h4-5H,3,7H2,1-2H3,(H,8,9)/t5-/m1/s1",
        "InChIKey": null,
        "Canonical SMILES": "O=C(O)C(N)CC(C)C",
        "Molecular Formula": "C<sub>6</sub>H<sub>13</sub>NO<sub>2</sub>",
        "Molecular Mass": "131.17",
        "Melting Point": "292-294 °C (decomp)"
    }
}