{
    "cas_no": "1309-36-0",
    "key_name": "Pyrite",
    "cn_name": null,
    "alternate_name": "Pyrite (FeS<sub>2</sub>);Pyrite;Iron pyrite;Iron pyrite (FeS<sub>2</sub>);Iron ores, pyrite;Iron pyrites",
    "duplicated_cas_no": "61027-07-4",
    "SMILES": "[Fe](=S)=S",
    "meta_data": {
        "InChI": "InChI=1S/Fe.2S",
        "InChIKey": null,
        "Canonical SMILES": "S=[Fe]=S",
        "Molecular Formula": "FeS<sub>2</sub>",
        "Molecular Mass": "",
        "Melting Point": "743 °C",
        "Density": "4.7 g/cm³ @ Temp: 20 °C"
    }
}