{
    "cas_no": "13818-75-2",
    "key_name": "Gadolinium bromide (GdBr<sub>3</sub>)",
    "cn_name": "超干溴化钆;溴化钆超干;",
    "alternate_name": "Gadolinium bromide (GdBr<sub>3</sub>);Gadolinium tribromide;Gadolinium bromide",
    "duplicated_cas_no": "2755079-19-5",
    "SMILES": "[Gd](Br)(Br)Br",
    "meta_data": {
        "InChI": "InChI=1S/3BrH.Gd/h3*1H;/q;;;+3/p-3",
        "InChIKey": null,
        "Canonical SMILES": "Br[Gd](Br)Br",
        "Molecular Formula": "Br<sub>3</sub>Gd",
        "Molecular Mass": "",
        "Boiling Point": "1455 °C",
        "Melting Point": "765-786 °C"
    }
}