{
    "cas_no": "2882-19-1",
    "key_name": "Ethyl α-bromobenzeneacetate",
    "cn_name": null,
    "alternate_name": "Benzeneacetic acid, α-bromo-, ethyl ester;Acetic acid, bromophenyl-, ethyl ester;Ethyl α-bromobenzeneacetate;α-Bromophenylacetic acid ethyl ester;Ethyl α-bromophenylacetate;Ethyl bromophenylacetate;Ethyl 2-bromo-2-phenylacetate;Ethyl 2-bromophenylacetate;Ethyl α-bromo-α-phenylacetate;<span class=\"text-smallcaps\">DL</span>-α-Bromophenylacetic acid ethyl ester;Ethyl (±)-α-bromophenylacetate;Ethyl (±)-α-bromobenzeneacetate;2-Bromo-2-phenylacetic acid ethyl ester;α-Bromobenzeneacetic acid ethyl ester;NSC 38807",
    "duplicated_cas_no": "2216-90-2;1401885-38-8",
    "SMILES": "C(C(OCC)=O)(Br)C1=CC=CC=C1",
    "meta_data": {
        "InChI": "InChI=1S/C10H11BrO2/c1-2-13-10(12)9(11)8-6-4-3-5-7-8/h3-7,9H,2H2,1H3",
        "InChIKey": null,
        "Canonical SMILES": "O=C(OCC)C(Br)C=1C=CC=CC1",
        "Molecular Formula": "C<sub>10</sub>H<sub>11</sub>BrO<sub>2</sub>",
        "Molecular Mass": "243.10",
        "Boiling Point": "145 °C @ Press: 15 Torr",
        "Density": "1.386 g/cm³ @ Temp: 20 °C"
    }
}