{
    "cas_no": "16773-42-5",
    "key_name": "Ornidazole",
    "cn_name": "奥硝唑;1-(3-氯-2-羟基丙基)-2-甲基-5-硝基咪唑;",
    "alternate_name": "1<em>H</em>-Imidazole-1-ethanol, α-(chloromethyl)-2-methyl-5-nitro-;Imidazole-1-ethanol, α-(chloromethyl)-2-methyl-5-nitro-;α-(Chloromethyl)-2-methyl-5-nitro-1<em>H</em>-imidazole-1-ethanol;α-(Chloromethyl)-2-methyl-5-nitro-1-imidazoleethanol;Ro 7-0207;1-(3-Chloro-2-hydroxypropyl)-2-methyl-5-nitroimidazole;Ornidazole;Tiberal;(±)-Tiberal;Ornidal;Madelen;NSC 95075;(±)-Ornidazole;Ornisid;Ornidone;Ornitop;Giro;Ornilox;Dazolic;1-Chloro-3-(2-methyl-5-nitro-imidazol-1-yl)-propan-2-ol;1-Chloro-3-(2-methyl-5-nitro-1<em>H</em>-imidazol-1-yl)propan-2-ol;1-Chloro-3-(2-methyl-5-nitroimidazol-1-yl)propan-2-ol;MeSH ID: D009950",
    "duplicated_cas_no": "95880-34-5;166734-79-8",
    "SMILES": "C(C(CCl)O)N1C(N(=O)=O)=CN=C1C",
    "meta_data": {
        "InChI": "InChI=1S/C7H10ClN3O3/c1-5-9-3-7(11(13)14)10(5)4-6(12)2-8/h3,6,12H,2,4H2,1H3",
        "InChIKey": null,
        "Canonical SMILES": "O=N(=O)C1=CN=C(N1CC(O)CCl)C",
        "Molecular Formula": "C<sub>7</sub>H<sub>10</sub>ClN<sub>3</sub>O<sub>3</sub>",
        "Molecular Mass": "219.63",
        "Melting Point": "77-78 °C",
        "Density": "1.497 g/cm³"
    }
}