{
    "cas_no": "173089-82-2",
    "key_name": "6-Isoquinolinecarboxylic acid, methyl ester",
    "cn_name": null,
    "alternate_name": "6-Isoquinolinecarboxylic acid, methyl ester;Methyl 6-isoquinolinecarboxylate",
    "duplicated_cas_no": "",
    "SMILES": "C(OC)(=O)C1=CC2=C(C=C1)C=NC=C2",
    "meta_data": {
        "InChI": "InChI=1S/C11H9NO2/c1-14-11(13)9-2-3-10-7-12-5-4-8(10)6-9/h2-7H,1H3",
        "InChIKey": null,
        "Canonical SMILES": "O=C(OC)C=1C=CC=2C=NC=CC2C1",
        "Molecular Formula": "C<sub>11</sub>H<sub>9</sub>NO<sub>2</sub>",
        "Molecular Mass": "187.19",
        "Melting Point": "95 °C"
    }
}