{
    "cas_no": "66441-23-4",
    "key_name": "Fenoxaprop-ethyl",
    "cn_name": "恶唑禾草灵;骠马;2-[4-(6-氯-2-苯并恶唑氧基)苯氧基]丙酸乙酯;",
    "alternate_name": "Propanoic acid, 2-[4-[(6-chloro-2-benzoxazolyl)oxy]phenoxy]-, ethyl ester;Propanoic acid, 2-[4-[(6-chloro-2-benzoxazolyl)oxy]phenoxy]-, ethyl ester, (±)-;HOE-A 25-01;HOE 33171;Fenoxaprop-ethyl;Furore;Whip;Fenoxaprop ethyl ester;Acclaim;Ethyl 2-[4-(6-chlorobenzoxazolyl-2-oxy)phenoxy]propionate;(±)-Fenoxaprop-ethyl;Acclaim (herbicide)",
    "duplicated_cas_no": "116573-18-3;82110-72-3;87714-45-2",
    "SMILES": "O(C1=NC=2C(O1)=CC(Cl)=CC2)C3=CC=C(OC(C(OCC)=O)C)C=C3",
    "meta_data": {
        "InChI": "InChI=1S/C18H16ClNO5/c1-3-22-17(21)11(2)23-13-5-7-14(8-6-13)24-18-20-15-9-4-12(19)10-16(15)25-18/h4-11H,3H2,1-2H3",
        "InChIKey": null,
        "Canonical SMILES": "O=C(OCC)C(OC1=CC=C(OC2=NC=3C=CC(Cl)=CC3O2)C=C1)C",
        "Molecular Formula": "C<sub>18</sub>H<sub>16</sub>ClNO<sub>5</sub>",
        "Molecular Mass": "361.78",
        "Boiling Point": "200 °C @ Press: 0.750 Torr",
        "Melting Point": "84-85 °C"
    }
}