{
    "cas_no": "2402-79-1",
    "key_name": "2,3,5,6-Tetrachloropyridine",
    "cn_name": "2,3,5,6-四氯吡啶;",
    "alternate_name": "Pyridine, 2,3,5,6-tetrachloro-;2,3,5,6-Tetrachloropyridine;NSC 2009",
    "duplicated_cas_no": "",
    "SMILES": "ClC1=C(Cl)N=C(Cl)C(Cl)=C1",
    "meta_data": {
        "InChI": "InChI=1S/C5HCl4N/c6-2-1-3(7)5(9)10-4(2)8/h1H",
        "InChIKey": null,
        "Canonical SMILES": "ClC=1N=C(Cl)C(Cl)=CC1Cl",
        "Molecular Formula": "C<sub>5</sub>HCl<sub>4</sub>N",
        "Molecular Mass": "216.88",
        "Boiling Point": "250.5 °C",
        "Melting Point": "90.5 °C"
    }
}