{
    "cas_no": "72463-77-5",
    "key_name": "2-Butenoic acid, 2-methyl-, (9<em>R</em>,10<em>R</em>)-9,10-dihydro-8,8-dimethyl-10-(3-methyl-1-oxobutoxy)-2-oxo-2<em>H</em>,8<em>H</em>-benzo[1,2-<em>b</em>:3,4-<em>b</em>′]dipyran-9-yl ester, (2<em>Z</em>)-",
    "cn_name": null,
    "alternate_name": "2-Butenoic acid, 2-methyl-, (9<em>R</em>,10<em>R</em>)-9,10-dihydro-8,8-dimethyl-10-(3-methyl-1-oxobutoxy)-2-oxo-2<em>H</em>,8<em>H</em>-benzo[1,2-<em>b</em>:3,4-<em>b</em>′]dipyran-9-yl ester, (2<em>Z</em>)-;2-Butenoic acid, 2-methyl-, 9,10-dihydro-8,8-dimethyl-10-(3-methyl-1-oxobutoxy)-2-oxo-2<em>H</em>,8<em>H</em>-benzo[1,2-<em>b</em>:3,4-<em>b</em>′]dipyran-9-yl ester, [9<em>R</em>-[9α(<em>Z</em>),10α]]-;2<em>H</em>,8<em>H</em>-Benzo[1,2-<em>b</em>:3,4-<em>b</em>′]dipyran, 2-butenoic acid deriv.;Praeruptorin C;Wulongensin A",
    "duplicated_cas_no": "83382-71-2",
    "SMILES": "O(C(CC(C)C)=O)[C@@H]1C=2C3=C(C=CC2OC(C)(C)[C@@H]1OC(/C(=C\\C)/C)=O)C=CC(=O)O3",
    "meta_data": {
        "InChI": "InChI=1S/C24H28O7/c1-7-14(4)23(27)30-22-21(29-18(26)12-13(2)3)19-16(31-24(22,5)6)10-8-15-9-11-17(25)28-20(15)19/h7-11,13,21-22H,12H2,1-6H3/b14-7-/t21-,22-/m1/s1",
        "InChIKey": null,
        "Canonical SMILES": "O=C1OC2=C(C=C1)C=CC=3OC(C)(C)C(OC(=O)C(=CC)C)C(OC(=O)CC(C)C)C32",
        "Molecular Formula": "C<sub>24</sub>H<sub>28</sub>O<sub>7</sub>",
        "Molecular Mass": "428.47",
        "Melting Point": "132.0-133.5 °C"
    }
}