{
    "cas_no": "131747-70-1",
    "key_name": "4-Formyl-2-pyridinecarbonitrile",
    "cn_name": null,
    "alternate_name": "2-Pyridinecarbonitrile, 4-formyl-;4-Formyl-2-pyridinecarbonitrile;2-Cyanopyridine-4-carboxaldehyde;4-Formylpyridine-2-carbonitrile",
    "duplicated_cas_no": "",
    "SMILES": "C(=O)C=1C=C(C#N)N=CC1",
    "meta_data": {
        "InChI": "InChI=1S/C7H4N2O/c8-4-7-3-6(5-10)1-2-9-7/h1-3,5H",
        "InChIKey": null,
        "Canonical SMILES": "N#CC1=NC=CC(C=O)=C1",
        "Molecular Formula": "C<sub>7</sub>H<sub>4</sub>N<sub>2</sub>O",
        "Molecular Mass": "132.12",
        "Melting Point": "67-69 °C"
    }
}