{
    "cas_no": "13651-14-4",
    "key_name": "2,3-Dimethylbenzenemethanol",
    "cn_name": "2,3-二甲基苄醇;",
    "alternate_name": "Benzenemethanol, 2,3-dimethyl-;Benzyl alcohol, 2,3-dimethyl-;2,3-Dimethylbenzenemethanol;2,3-Dimethylbenzyl alcohol;Hemellitol;NSC 59890;(2,3-Dimethylphenyl)methanol",
    "duplicated_cas_no": "",
    "SMILES": "C(O)C1=C(C)C(C)=CC=C1",
    "meta_data": {
        "InChI": "InChI=1S/C9H12O/c1-7-4-3-5-9(6-10)8(7)2/h3-5,10H,6H2,1-2H3",
        "InChIKey": null,
        "Canonical SMILES": "OCC=1C=CC=C(C1C)C",
        "Molecular Formula": "C<sub>9</sub>H<sub>12</sub>O",
        "Molecular Mass": "136.19",
        "Boiling Point": "125 °C",
        "Melting Point": "64 °C"
    }
}