{
    "cas_no": "13291-18-4",
    "key_name": "Magnesium, bromo(1-methylethenyl)-",
    "cn_name": "溴化异丙烯基镁溶液;溴化异丙烯基镁溶液;",
    "alternate_name": "Magnesium, bromo(1-methylethenyl)-;Magnesium, bromoisopropenyl-;Isopropenylmagnesium bromide;α-Methylvinylmagnesium bromide;1-Methylvinylmagnesium bromide;1-Propen-2-ylmagnesium bromide;Bromo(isopropenyl)magnesium",
    "duplicated_cas_no": "",
    "SMILES": "C([Mg]Br)(C)=C",
    "meta_data": {
        "InChI": "InChI=1S/C3H5.BrH.Mg/c1-3-2;;/h1H2,2H3;1H;/q;;+1/p-1",
        "InChIKey": null,
        "Canonical SMILES": "Br[Mg]C(=C)C",
        "Molecular Formula": "C<sub>3</sub>H<sub>5</sub>BrMg",
        "Molecular Mass": "",
        "Melting Point": "102-104 °C"
    }
}