{
    "cas_no": "1401-55-4",
    "key_name": "Tannins",
    "cn_name": "单宁酸;",
    "alternate_name": "Tannins;Tannic acids;Tannin analysis;Sunlife TN;Hifix SL;Tanaphen P 500;Tanex RS 93;Hifix SLA;Floctan 1;Floctan 3;Fresh Shiraimatsu FS 500M;MP-TR;TW 75;Brewtan;Tanal 1;Resorcinex Pecan Tannin 9901L;Vitanil B;Quertanil;Vitanil IM;Weibull;Tannic Acid X;F-Tannin;Tannic Acid KT;Tannin;Gallotannic acid;Gallotannin;Tannic acid AL;Lexsod P;Tannic acid;FS 500M;Textan 3;Colatan GT 100;Bondtite 345;Excellence Vintage;Kakitafu;Tannic Acid ME;Bondtite 645;Arbor Lock 20;UT 10;UT 10 (tannin);SV 82;Makubunri Seisei Kaki Tannin H 1;Pancil;Brewtan C;Tanal 02C;Tanex A-FCC;Hifix SW-A;Hifix 45;BM 539;Bondtite 241;Pancil FG 30;DT-R 240;Pancil FG 22;Crown ATO;Pancil FG 70;Fintan OP;Tru/tan;HLE 100;Pancil PO 10;Enoxil;Basyntan AS;Baxindan AS;Galalcool;Tanigan PKA-S;JOM;Bondtite 945;Syntan WT;SETA TUN;Retan MD;Mimosa NT;DNS 101;R 129;Colatan GT 10;Fintan 737B;ATO (tannin);MeSH ID: D013634;TJ-R 369;Halox L 44;T 25 (tannin)",
    "duplicated_cas_no": "61790-06-5;67167-65-1;73891-88-0;93615-37-3;1041198-33-7;1041198-44-0;2322285-95-8",
    "SMILES": "",
    "meta_data": {
        "InChI": "",
        "InChIKey": null,
        "Canonical SMILES": "",
        "Molecular Formula": "Unspecified",
        "Molecular Mass": "",
        "Melting Point": "200 °C"
    }
}