{
    "cas_no": "10465-82-4",
    "key_name": "1,1′-(1,2-Diazenediyl)bis[1-(4-morpholinyl)methanone]",
    "cn_name": null,
    "alternate_name": "Methanone, 1,1′-(1,2-diazenediyl)bis[1-(4-morpholinyl)-;Diimide, bis(morpholinocarbonyl)-;Morpholine, 4,4′-(azodicarbonyl)bis-;Morpholine, 4,4′-(azodicarbonyl)di-;1,1′-(1,2-Diazenediyl)bis[1-(4-morpholinyl)methanone];1,1′-Azobis(<em>N</em>,<em>N</em>-oxydiethyleneformamide);NSC 356022;ADDM",
    "duplicated_cas_no": "",
    "SMILES": "C(N=NC(=O)N1CCOCC1)(=O)N2CCOCC2",
    "meta_data": {
        "InChI": "InChI=1S/C10H16N4O4/c15-9(13-1-5-17-6-2-13)11-12-10(16)14-3-7-18-8-4-14/h1-8H2",
        "InChIKey": null,
        "Canonical SMILES": "O=C(N=NC(=O)N1CCOCC1)N2CCOCC2",
        "Molecular Formula": "C<sub>10</sub>H<sub>16</sub>N<sub>4</sub>O<sub>4</sub>",
        "Molecular Mass": "256.26",
        "Melting Point": "140-141 °C"
    }
}