{
    "cas_no": "354-04-1",
    "key_name": "1,2-Dibromo-1,1,2-trifluoroethane",
    "cn_name": null,
    "alternate_name": "Ethane, 1,2-dibromo-1,1,2-trifluoro-;1,2-Dibromo-1,1,2-trifluoroethane;Halon 2302;1,2-Dibromo-1,2,2-trifluoroethane",
    "duplicated_cas_no": "66542-88-9",
    "SMILES": "C(C(Br)F)(Br)(F)F",
    "meta_data": {
        "InChI": "InChI=1S/C2HBr2F3/c3-1(5)2(4,6)7/h1H",
        "InChIKey": null,
        "Canonical SMILES": "FC(Br)C(F)(F)Br",
        "Molecular Formula": "C<sub>2</sub>HBr<sub>2</sub>F<sub>3</sub>",
        "Molecular Mass": "241.83",
        "Boiling Point": "76 °C",
        "Density": "2.274 g/cm³ @ Temp: 27.44 °C"
    }
}