{
    "cas_no": "5308-25-8",
    "key_name": "1-Ethylpiperazine",
    "cn_name": "N-乙基哌嗪;1-乙基哌嗪;",
    "alternate_name": "Piperazine, 1-ethyl-;1-Ethylpiperazine;<em>N</em>-Ethylpiperazine;NSC 60707",
    "duplicated_cas_no": "",
    "SMILES": "C(C)N1CCNCC1",
    "meta_data": {
        "InChI": "InChI=1S/C6H14N2/c1-2-8-5-3-7-4-6-8/h7H,2-6H2,1H3",
        "InChIKey": null,
        "Canonical SMILES": "N1CCN(CC)CC1",
        "Molecular Formula": "C<sub>6</sub>H<sub>14</sub>N<sub>2</sub>",
        "Molecular Mass": "114.19",
        "Boiling Point": "155-158 °C"
    }
}