{
    "cas_no": "14476-37-0",
    "key_name": "4-Undecanone",
    "cn_name": "4-十一烷酮;4-十一烷酮,98%;4-十一酮;",
    "alternate_name": "4-Undecanone;Heptyl propyl ketone;NSC 158509",
    "duplicated_cas_no": "",
    "SMILES": "C(CCCCCCC)(CCC)=O",
    "meta_data": {
        "InChI": "InChI=1S/C11H22O/c1-3-5-6-7-8-10-11(12)9-4-2/h3-10H2,1-2H3",
        "InChIKey": null,
        "Canonical SMILES": "O=C(CCC)CCCCCCC",
        "Molecular Formula": "C<sub>11</sub>H<sub>22</sub>O",
        "Molecular Mass": "170.29",
        "Boiling Point": "106-107 °C @ Press: 12 Torr",
        "Melting Point": "4.5 °C",
        "Density": "0.8274 g/cm³ @ Temp: 25 °C"
    }
}