{
    "cas_no": "53398-83-7",
    "key_name": "<em>trans</em>-2-Hexenyl butyrate",
    "cn_name": "反-2-己烯酸丁酯;",
    "alternate_name": "Butanoic acid, (2<em>E</em>)-2-hexen-1-yl ester;Butanoic acid, 2-hexenyl ester, (<em>E</em>)-;Butanoic acid, (2<em>E</em>)-2-hexenyl ester;<em>trans</em>-2-Hexenyl butyrate;<em>trans</em>-2-Hexenyl butanoate;(<em>E</em>)-2-Hexenyl butanoate;(<em>E</em>)-2-Hexenyl butyrate;(<em>E</em>)-Hex-2-en-1-yl butyrate",
    "duplicated_cas_no": "",
    "SMILES": "C(OC/C=C/CCC)(CCC)=O",
    "meta_data": {
        "InChI": "InChI=1S/C10H18O2/c1-3-5-6-7-9-12-10(11)8-4-2/h6-7H,3-5,8-9H2,1-2H3/b7-6+",
        "InChIKey": null,
        "Canonical SMILES": "O=C(OCC=CCCC)CCC",
        "Molecular Formula": "C<sub>10</sub>H<sub>18</sub>O<sub>2</sub>",
        "Molecular Mass": "170.25",
        "Boiling Point": "120 °C @ Press: 10 Torr"
    }
}