{
    "cas_no": "488-86-8",
    "key_name": "Croconic acid",
    "cn_name": "巴豆酸;",
    "alternate_name": "4-Cyclopentene-1,2,3-trione, 4,5-dihydroxy-;Croconic acid;4,5-Dihydroxy-4-cyclopentene-1,2,3-trione",
    "duplicated_cas_no": "742080-31-5",
    "SMILES": "O=C1C(=O)C(O)=C(O)C1=O",
    "meta_data": {
        "InChI": "InChI=1S/C5H2O5/c6-1-2(7)4(9)5(10)3(1)8/h6-7H",
        "InChIKey": null,
        "Canonical SMILES": "O=C1C(=O)C(O)=C(O)C1=O",
        "Molecular Formula": "C<sub>5</sub>H<sub>2</sub>O<sub>5</sub>",
        "Molecular Mass": "142.07",
        "Melting Point": "150 °C"
    }
}