{
    "cas_no": "3970-40-9",
    "key_name": "2-Chloro-1-methyl-3-nitrobenzene",
    "cn_name": "2-氯-3-硝基甲苯;",
    "alternate_name": "Benzene, 2-chloro-1-methyl-3-nitro-;Toluene, 2-chloro-3-nitro-;2-Chloro-1-methyl-3-nitrobenzene;2-Chloro-3-nitrotoluene;2-Chloro-3-methylnitrobenzene;NSC 87550;2-Chloro-3-methyl-1-nitrobenzene",
    "duplicated_cas_no": "",
    "SMILES": "N(=O)(=O)C1=C(Cl)C(C)=CC=C1",
    "meta_data": {
        "InChI": "InChI=1S/C7H6ClNO2/c1-5-3-2-4-6(7(5)8)9(10)11/h2-4H,1H3",
        "InChIKey": null,
        "Canonical SMILES": "O=N(=O)C1=CC=CC(=C1Cl)C",
        "Molecular Formula": "C<sub>7</sub>H<sub>6</sub>ClNO<sub>2</sub>",
        "Molecular Mass": "171.58",
        "Melting Point": "17 °C"
    }
}