{
    "cas_no": "4461-30-7",
    "key_name": "Chloroacetyl isocyanate",
    "cn_name": null,
    "alternate_name": "Acetyl isocyanate, 2-chloro-;Acetic acid, chloro-, anhydride with isocyanic acid;Acetyl isocyanate, chloro-;Isocyanic acid, anhydride with chloroacetic acid;2-Chloroacetyl isocyanate;Chloroacetyl isocyanate",
    "duplicated_cas_no": "",
    "SMILES": "C(N=C=O)(CCl)=O",
    "meta_data": {
        "InChI": "InChI=1S/C3H2ClNO2/c4-1-3(7)5-2-6/h1H2",
        "InChIKey": null,
        "Canonical SMILES": "O=C=NC(=O)CCl",
        "Molecular Formula": "C<sub>3</sub>H<sub>2</sub>ClNO<sub>2</sub>",
        "Molecular Mass": "119.51",
        "Boiling Point": "52.5 °C",
        "Melting Point": "&lt;25 °C"
    }
}