{
    "cas_no": "103-82-2",
    "key_name": "Phenylacetic acid",
    "cn_name": "苯乙酸;",
    "alternate_name": "Benzeneacetic acid;Acetic acid, phenyl-;Phenylacetic acid;α-Toluic acid;ω-Phenylacetic acid;2-Phenylacetic acid;Phenylethanoic acid;PAA;NSC 125718",
    "duplicated_cas_no": "",
    "SMILES": "C(C(O)=O)C1=CC=CC=C1",
    "meta_data": {
        "InChI": "InChI=1S/C8H8O2/c9-8(10)6-7-4-2-1-3-5-7/h1-5H,6H2,(H,9,10)",
        "InChIKey": null,
        "Canonical SMILES": "O=C(O)CC=1C=CC=CC1",
        "Molecular Formula": "C<sub>8</sub>H<sub>8</sub>O<sub>2</sub>",
        "Molecular Mass": "136.15",
        "Boiling Point": "265.5 °C @ Press: 760 Torr",
        "Melting Point": "76.5 °C",
        "Density": "1.091 g/cm³ @ Temp: 77 °C"
    }
}