{
    "cas_no": "14315-97-0",
    "key_name": "1,1,3-Trimethoxypropane",
    "cn_name": "1,1,3-三甲氧基丙烷;",
    "alternate_name": "Propane, 1,1,3-trimethoxy-;Propionaldehyde, 3-methoxy-, dimethyl acetal;1,1,3-Trimethoxypropane;3-Methoxypropionaldehyde dimethyl acetal;NSC 280806",
    "duplicated_cas_no": "",
    "SMILES": "C(CCOC)(OC)OC",
    "meta_data": {
        "InChI": "InChI=1S/C6H14O3/c1-7-5-4-6(8-2)9-3/h6H,4-5H2,1-3H3",
        "InChIKey": null,
        "Canonical SMILES": "O(C)CCC(OC)OC",
        "Molecular Formula": "C<sub>6</sub>H<sub>14</sub>O<sub>3</sub>",
        "Molecular Mass": "134.17",
        "Boiling Point": "148 °C",
        "Density": "0.941 g/cm³ @ Temp: 20 °C"
    }
}