{
    "cas_no": "623-81-4",
    "key_name": "Diethyl sulfite",
    "cn_name": "亚硫酸二乙酯;",
    "alternate_name": "Sulfurous acid, diethyl ester;Ethyl sulfite;Diethyl sulfite;NSC 8838",
    "duplicated_cas_no": "",
    "SMILES": "S(OCC)(OCC)=O",
    "meta_data": {
        "InChI": "InChI=1S/C4H10O3S/c1-3-6-8(5)7-4-2/h3-4H2,1-2H3",
        "InChIKey": null,
        "Canonical SMILES": "O=S(OCC)OCC",
        "Molecular Formula": "C<sub>4</sub>H<sub>10</sub>O<sub>3</sub>S",
        "Molecular Mass": "138.19",
        "Boiling Point": "158 °C",
        "Density": "1.1054 g/cm³ @ Temp: 0 °C"
    }
}