{
    "cas_no": "14165-18-5",
    "key_name": "<em>N</em><sup>1</sup>-Methyl-<em>N</em><sup>1</sup>-(phenylmethyl)-1,2-ethanediamine",
    "cn_name": null,
    "alternate_name": "1,2-Ethanediamine, <em>N</em><sup>1</sup>-methyl-<em>N</em><sup>1</sup>-(phenylmethyl)-;Ethylenediamine, <em>N</em>-benzyl-<em>N</em>-methyl-;1,2-Ethanediamine, <em>N</em>-methyl-<em>N</em>-(phenylmethyl)-;<em>N</em><sup>1</sup>-Methyl-<em>N</em><sup>1</sup>-(phenylmethyl)-1,2-ethanediamine;<em>N</em>-Benzyl-<em>N</em>-methylethylenediamine;N-Benzyl-N-methylethane-1,2-diamine;1,2-Ethanediamine N1-methyl-N1-(phenylmethyl)-",
    "duplicated_cas_no": "",
    "SMILES": "C(N(CCN)C)C1=CC=CC=C1",
    "meta_data": {
        "InChI": "InChI=1S/C10H16N2/c1-12(8-7-11)9-10-5-3-2-4-6-10/h2-6H,7-9,11H2,1H3",
        "InChIKey": null,
        "Canonical SMILES": "NCCN(C)CC=1C=CC=CC1",
        "Molecular Formula": "C<sub>10</sub>H<sub>16</sub>N<sub>2</sub>",
        "Molecular Mass": "164.25",
        "Boiling Point": "122 °C @ Press: 13 Torr",
        "Melting Point": "124-128 °C"
    }
}