{
    "cas_no": "6940-76-7",
    "key_name": "1-Chloro-3-iodopropane",
    "cn_name": "1-氯-3-碘丙烷;1-氯-3-碘丙烷;1-氯-3-碘丙烷,98%;1-氯-3-碘丙烷, 98%, STAB. WITH COPPER;",
    "alternate_name": "Propane, 1-chloro-3-iodo-;1-Chloro-3-iodopropane;3-Chloropropyl iodide;3-Iodo-1-chloropropane;3-Iodopropyl chloride;1-Iodo-3-chloropropane;3-Chloro-1-iodopropane;NSC 60189;3-Chloro-4-iodopropane",
    "duplicated_cas_no": "",
    "SMILES": "C(CCl)CI",
    "meta_data": {
        "InChI": "InChI=1S/C3H6ClI/c4-2-1-3-5/h1-3H2",
        "InChIKey": null,
        "Canonical SMILES": "ClCCCI",
        "Molecular Formula": "C<sub>3</sub>H<sub>6</sub>ClI",
        "Molecular Mass": "204.44",
        "Boiling Point": "171 °C"
    }
}