{
    "cas_no": "594-16-1",
    "key_name": "2,2-Dibromopropane",
    "cn_name": "2,2-二溴丙烷;二溴化丙酮;",
    "alternate_name": "Propane, 2,2-dibromo-;2,2-Dibromopropane",
    "duplicated_cas_no": "",
    "SMILES": "C(Br)(Br)(C)C",
    "meta_data": {
        "InChI": "InChI=1S/C3H6Br2/c1-3(2,4)5/h1-2H3",
        "InChIKey": null,
        "Canonical SMILES": "BrC(Br)(C)C",
        "Molecular Formula": "C<sub>3</sub>H<sub>6</sub>Br<sub>2</sub>",
        "Molecular Mass": "201.89",
        "Boiling Point": "115 °C",
        "Density": "1.880 g/cm³ @ Temp: 20 °C"
    }
}