{
    "cas_no": "199391-76-9",
    "key_name": "2,3-Dihydro-4-benzofuranethanol",
    "cn_name": null,
    "alternate_name": "4-Benzofuranethanol, 2,3-dihydro-;2,3-Dihydro-4-benzofuranethanol;2-(2,3-Dihydrobenzofuran-4-yl)ethanol;2-(2,3-Dihydro-1-benzofuran-4-yl)ethan-1-ol",
    "duplicated_cas_no": "",
    "SMILES": "C(CO)C1=C2C(OCC2)=CC=C1",
    "meta_data": {
        "InChI": "InChI=1S/C10H12O2/c11-6-4-8-2-1-3-10-9(8)5-7-12-10/h1-3,11H,4-7H2",
        "InChIKey": null,
        "Canonical SMILES": "OCCC=1C=CC=C2OCCC21",
        "Molecular Formula": "C<sub>10</sub>H<sub>12</sub>O<sub>2</sub>",
        "Molecular Mass": "164.20",
        "Boiling Point": "110-113 °C @ Press: 20 Torr"
    }
}