{
    "cas_no": "80-77-3",
    "key_name": "(±)-Chlormezanone",
    "cn_name": "芬那露;氯甲噻酮;氯甲嗪酮;2-(4-氯苯基)-3-甲基-4H-1,3-四氢噻嗪-4-酮-1,1-二氧化物;",
    "alternate_name": "4<em>H</em>-1,3-Thiazin-4-one, 2-(4-chlorophenyl)tetrahydro-3-methyl-, 1,1-dioxide;4<em>H</em>-1,3-Thiazin-4-one, 2-(<em>p</em>-chlorophenyl)tetrahydro-3-methyl-, 1,1-dioxide;Chlormethazone;2-(4-Chlorophenyl)-3-methyl-4-metathiazanone-1,1-dioxide;2-(<em>p</em>-Chlorophenyl)tetrahydro-3-methyl-4<em>H</em>-1,3-thiazin-4-one 1,1-dioxide;2-(<em>p</em>-Chlorphenyl)-3-methyl-1,3-perhydrothiazin-4-on-1,1-dioxide;Phenarol;Trancopal;Chlormethazanone;Chlormezanone;2-(<em>p</em>-Chlorophenyl)-3-methyl-1,3-perhydrothiazin-4-one 1,1-dioxide;Mio-Sed;Tanafol;Fenarol;Rilansyl;Rilaquil;Rilassol;Muskel Trancopal;(±)-Chlormezanone;<em>dl</em>-Chlormezanone;(±)-Fenarol;Supotran;Suprotran;Rilasol;Dichloromezanone;Lobak;Trancote;Banabin-Sintyal;Rexan;Alinam;Transanate;NSC 169108;2-(4-Chlorophenyl)-3-methyl-1,1-dioxo-1,3-thiazinan-4-one;2-(4-Chlorophenyl)-3-methyl-1λ6,3-thiazinane-1,1,4-trione;2-(4-Chlorophenyl)-3-methyl-1,3-thiazinan-4-one1,1-dioxide;2-(4-Chlorophenyl)-3-methyl-1,3-thiazinan-4-one 1,1-dioxide;MeSH ID: D002720",
    "duplicated_cas_no": "102818-65-5;1024161-45-2",
    "SMILES": "O=S1(=O)C(N(C)C(=O)CC1)C2=CC=C(Cl)C=C2",
    "meta_data": {
        "InChI": "InChI=1S/C11H12ClNO3S/c1-13-10(14)6-7-17(15,16)11(13)8-2-4-9(12)5-3-8/h2-5,11H,6-7H2,1H3",
        "InChIKey": null,
        "Canonical SMILES": "O=C1N(C)C(C2=CC=C(Cl)C=C2)S(=O)(=O)CC1",
        "Molecular Formula": "C<sub>11</sub>H<sub>12</sub>ClNO<sub>3</sub>S",
        "Molecular Mass": "273.74",
        "Melting Point": "116.2-118.2 °C"
    }
}