{
    "cas_no": "1758-33-4",
    "key_name": "<em>cis</em>-2,3-Epoxybutane",
    "cn_name": "顺式-2,3-环氧丁烷;",
    "alternate_name": "Oxirane, 2,3-dimethyl-, (2<em>R</em>,3<em>S</em>)-<em>rel</em>-;Butane, 2,3-epoxy-, <em>cis</em>-;Oxirane, 2,3-dimethyl-, <em>cis</em>-;<em>rel</em>-(2<em>R</em>,3<em>S</em>)-2,3-Dimethyloxirane;<em>cis</em>-2,3-Dimethyloxirane;<em>cis</em>-2-Butene epoxide;<em>cis</em>-2-Butylene oxide;<em>cis</em>-2,3-Epoxybutane;<em>cis</em>-2-Butene oxide;<em>cis</em>-2,3-Butylene oxide;<em>cis</em>-2,3-Butene oxide",
    "duplicated_cas_no": "925669-95-0",
    "SMILES": "C[C@H]1[C@@H](C)O1",
    "meta_data": {
        "InChI": "InChI=1/C4H8O/c1-3-4(2)5-3/h3-4H,1-2H3/t3-,4+",
        "InChIKey": null,
        "Canonical SMILES": "O1C(C)C1C",
        "Molecular Formula": "C<sub>4</sub>H<sub>8</sub>O",
        "Molecular Mass": "72.11",
        "Boiling Point": "60 °C",
        "Melting Point": "-80 °C",
        "Density": "0.8010 g/cm³ @ Temp: 25 °C"
    }
}