{
    "cas_no": "306-37-6",
    "key_name": "Dimethylhydrazine dihydrochloride",
    "cn_name": "对称二甲肼盐酸盐;1,2-二甲肼盐酸盐;",
    "alternate_name": "Hydrazine, 1,2-dimethyl-, hydrochloride (1:2);Hydrazine, 1,2-dimethyl-, dihydrochloride;1,2-Dimethylhydrazine dihydrochloride;1,2-Dimethylhydrazine hydrochloride;<em>N</em>,<em>N</em>′-Dimethylhydrazine dihydrochloride;Dimethylhydrazinium dichloride;Dimethylhydrazine dihydrochloride;<em>sym</em>-Dimethylhydrazine dihydrochloride;1,2-Dimethylhydrazinium dichloride",
    "duplicated_cas_no": "",
    "SMILES": "N(NC)C.Cl",
    "meta_data": {
        "InChI": "InChI=1S/C2H8N2.2ClH/c1-3-4-2;;/h3-4H,1-2H3;2*1H",
        "InChIKey": null,
        "Canonical SMILES": "Cl.N(NC)C",
        "Molecular Formula": "C<sub>2</sub>H<sub>8</sub>N<sub>2</sub>.2ClH",
        "Molecular Mass": "",
        "Melting Point": "164-166 °C"
    }
}