{
    "cas_no": "121216-42-0",
    "key_name": "(<em>S</em>)-(-)-2-Amino-7-methoxytetralin",
    "cn_name": "(S)-2-氨基-7-甲氧基四氢萘;",
    "alternate_name": "2-Naphthalenamine, 1,2,3,4-tetrahydro-7-methoxy-, (2<em>S</em>)-;2-Naphthalenamine, 1,2,3,4-tetrahydro-7-methoxy-, (<em>S</em>)-;(2<em>S</em>)-1,2,3,4-Tetrahydro-7-methoxy-2-naphthalenamine;(<em>S</em>)-(-)-2-Amino-7-methoxytetralin;(<em>S</em>)-7-Methoxy-2-aminotetralin;(<em>S</em>)-2-Amino-1,2,3,4-tetrahydro-7-methoxynaphthalene;(<em>S</em>)-7-Methoxy-1,2,3,4-tetrahydro-naphthalen-2-ylamine;(2S)-7-Methoxy-1,2,3,4-tetrahydronaphthalen-2-amine",
    "duplicated_cas_no": "",
    "SMILES": "O(C)C=1C=C2C(=CC1)CC[C@H](N)C2",
    "meta_data": {
        "InChI": "InChI=1S/C11H15NO/c1-13-11-5-3-8-2-4-10(12)6-9(8)7-11/h3,5,7,10H,2,4,6,12H2,1H3/t10-/m0/s1",
        "InChIKey": null,
        "Canonical SMILES": "O(C1=CC=C2C(=C1)CC(N)CC2)C",
        "Molecular Formula": "C<sub>11</sub>H<sub>15</sub>NO",
        "Molecular Mass": "177.24",
        "Melting Point": "203 °C"
    }
}