{
    "cas_no": "628-39-7",
    "key_name": "Diethyl diselenide",
    "cn_name": "二乙基二硒醚;",
    "alternate_name": "Diselenide, diethyl;Ethyl diselenide;Diethyl diselenide;(Ethyldiselanyl)ethane",
    "duplicated_cas_no": "",
    "SMILES": "[Se]([Se]CC)CC",
    "meta_data": {
        "InChI": "InChI=1S/C4H10Se2/c1-3-5-6-4-2/h3-4H2,1-2H3",
        "InChIKey": null,
        "Canonical SMILES": "[Se]([Se]CC)CC",
        "Molecular Formula": "C<sub>4</sub>H<sub>10</sub>Se<sub>2</sub>",
        "Molecular Mass": "216.04",
        "Boiling Point": "74-75 °C @ Press: 14 Torr",
        "Density": "1.6798 g/cm³ @ Temp: 20 °C"
    }
}