{
    "cas_no": "13254-34-7",
    "key_name": "2,6-Dimethyl-2-heptanol",
    "cn_name": "2,6-二甲基-2-庚醇;",
    "alternate_name": "2-Heptanol, 2,6-dimethyl-;2,6-Dimethyl-2-heptanol;Freesiol;Dimetol;2,6-Dimethyl-heptane-2-ol",
    "duplicated_cas_no": "80450-43-7",
    "SMILES": "C(CCC(C)C)C(C)(C)O",
    "meta_data": {
        "InChI": "InChI=1S/C9H20O/c1-8(2)6-5-7-9(3,4)10/h8,10H,5-7H2,1-4H3",
        "InChIKey": null,
        "Canonical SMILES": "OC(C)(C)CCCC(C)C",
        "Molecular Formula": "C<sub>9</sub>H<sub>20</sub>O",
        "Molecular Mass": "144.25",
        "Boiling Point": "173 °C"
    }
}