{
    "cas_no": "993-50-0",
    "key_name": "<em>N</em>,<em>N</em>,1,1,1-Pentamethylstannanamine",
    "cn_name": "(二甲基胺)三甲基锡(IV);",
    "alternate_name": "Stannanamine, <em>N</em>,<em>N</em>,1,1,1-pentamethyl-;Stannane, (dimethylamino)trimethyl-;Stannanamine, pentamethyl-;Tin, (dimethylamino)trimethyl-;<em>N</em>,<em>N</em>,1,1,1-Pentamethylstannanamine;(Trimethylstannyl)dimethylamine;(Dimethylamino)trimethylstannane;Trimethyl(dimethylamino)stannane;(Dimethylamino)trimethyltin;<em>N</em>,<em>N</em>-Dimethyl(trimethylstannyl)amine;Trimethyltin dimethylamide;Dimethyl(trimethylstannyl)amine;(Dimethylamino)trimethyltin(IV)",
    "duplicated_cas_no": "",
    "SMILES": "[Sn](N(C)C)(C)(C)C",
    "meta_data": {
        "InChI": "InChI=1S/C2H6N.3CH3.Sn/c1-3-2;;;;/h1-2H3;3*1H3;/q-1;;;;+1",
        "InChIKey": null,
        "Canonical SMILES": "N(C)(C)[Sn](C)(C)C",
        "Molecular Formula": "C<sub>5</sub>H<sub>15</sub>NSn",
        "Molecular Mass": "207.89",
        "Boiling Point": "126 °C",
        "Density": "1.274 g/cm³"
    }
}