{
    "cas_no": "111-67-1",
    "key_name": "2-Octene",
    "cn_name": "2-辛烯;",
    "alternate_name": "2-Octene;NSC 66572",
    "duplicated_cas_no": "",
    "SMILES": "C(CC=CC)CCC",
    "meta_data": {
        "InChI": "InChI=1S/C8H16/c1-3-5-7-8-6-4-2/h3,5H,4,6-8H2,1-2H3",
        "InChIKey": null,
        "Canonical SMILES": "C(=CCCCCC)C",
        "Molecular Formula": "C<sub>8</sub>H<sub>16</sub>",
        "Molecular Mass": "112.21",
        "Boiling Point": "124 °C",
        "Melting Point": "-80 °C",
        "Density": "0.725 g/cm³ @ Temp: 20 °C"
    }
}