{
    "cas_no": "118758-48-8",
    "key_name": "(3<em>R</em>)-3-Phenyl-<span class=\"text-smallcaps\">L</span>-proline",
    "cn_name": null,
    "alternate_name": "<span class=\"text-smallcaps\">L</span>-Proline, 3-phenyl-, (3<em>R</em>)-;<span class=\"text-smallcaps\">L</span>-Proline, 3-phenyl-, <em>trans</em>-;(3<em>R</em>)-3-Phenyl-<span class=\"text-smallcaps\">L</span>-proline;(3<em>R</em>)-Phenylpyrrolidine-(2<em>S</em>)-carboxylic acid;(2<em>S</em>,3<em>R</em>)-3-Phenylpyrrolidine-2-carboxylic acid",
    "duplicated_cas_no": "",
    "SMILES": "C(O)(=O)[C@@H]1[C@H](CCN1)C2=CC=CC=C2",
    "meta_data": {
        "InChI": "InChI=1S/C11H13NO2/c13-11(14)10-9(6-7-12-10)8-4-2-1-3-5-8/h1-5,9-10,12H,6-7H2,(H,13,14)/t9-,10+/m1/s1",
        "InChIKey": null,
        "Canonical SMILES": "O=C(O)C1NCCC1C=2C=CC=CC2",
        "Molecular Formula": "C<sub>11</sub>H<sub>13</sub>NO<sub>2</sub>",
        "Molecular Mass": "191.23",
        "Melting Point": "284-285 °C"
    }
}