{
    "cas_no": "74058-71-2",
    "key_name": "<em>N</em>-(Phenylmethyl)hexadecanamide",
    "cn_name": null,
    "alternate_name": "Hexadecanamide, <em>N</em>-(phenylmethyl)-;Hexadecanamide, <em>N</em>-benzyl-;<em>N</em>-(Phenylmethyl)hexadecanamide;<em>N</em>-Benzylpalmitamide;<em>N</em>-Benzylhexadecanamide;Macamide 1",
    "duplicated_cas_no": "",
    "SMILES": "C(NC(CCCCCCCCCCCCCCC)=O)C1=CC=CC=C1",
    "meta_data": {
        "InChI": "InChI=1S/C23H39NO/c1-2-3-4-5-6-7-8-9-10-11-12-13-17-20-23(25)24-21-22-18-15-14-16-19-22/h14-16,18-19H,2-13,17,20-21H2,1H3,(H,24,25)",
        "InChIKey": null,
        "Canonical SMILES": "O=C(NCC=1C=CC=CC1)CCCCCCCCCCCCCCC",
        "Molecular Formula": "C<sub>23</sub>H<sub>39</sub>NO",
        "Molecular Mass": "345.56",
        "Melting Point": "94.5-95 °C"
    }
}