{
    "cas_no": "15474-96-1",
    "key_name": "<em>N</em>-(2-Chloroacetyl)glycylglycine",
    "cn_name": "氯乙酰基双甘氨肽;",
    "alternate_name": "Glycine, <em>N</em>-(2-chloroacetyl)glycyl-;Glycine, <em>N</em>-[<em>N</em>-(chloroacetyl)glycyl]-;Glycine, <em>N</em>-(chloroacetyl)glycyl-;<em>N</em>-(2-Chloroacetyl)glycylglycine;<em>N</em>-Chloroacetyl diglycine;Chloroacetylglycylglycine;<em>N</em>-Chloroacetyl glycylglycine;Chloroacetyldiglycine;NSC 89653;2-[[2-[(2-Chloroacetyl)amino]acetyl]amino]acetic acid;2-[2-(2-Chloroacetamido)acetamido]acetic acid",
    "duplicated_cas_no": "",
    "SMILES": "C(CNC(CCl)=O)(NCC(O)=O)=O",
    "meta_data": {
        "InChI": "InChI=1S/C6H9ClN2O4/c7-1-4(10)8-2-5(11)9-3-6(12)13/h1-3H2,(H,8,10)(H,9,11)(H,12,13)",
        "InChIKey": null,
        "Canonical SMILES": "O=C(O)CNC(=O)CNC(=O)CCl",
        "Molecular Formula": "C<sub>6</sub>H<sub>9</sub>ClN<sub>2</sub>O<sub>4</sub>",
        "Molecular Mass": "208.60",
        "Melting Point": "175-176 °C",
        "Density": "1.564 g/cm³"
    }
}