{
    "cas_no": "1008-76-0",
    "key_name": "γ-Phenyl-γ-butyrolactone",
    "cn_name": "γ-苯基-γ-丁内酯;γ-L-苯基-γ-丁内酮;",
    "alternate_name": "2(3<em>H</em>)-Furanone, dihydro-5-phenyl-;Butyric acid, 4-hydroxy-4-phenyl-, γ-lactone;Dihydro-5-phenyl-2(3<em>H</em>)-furanone;2,3-Dihydro-5-phenyl-2-furanone;Dihydro-5-phenyl-2(3<em>H</em>)furanone;γ-Phenyl-γ-butyrolactone;4-Phenylbutanolide;4-Phenyl-4-hydroxybutanoic acid lactone;γ-Phenylbutyrolactone;4-Phenyl-4-butanolide;4-Phenyl-γ-butyrolactone;Dihydro-5-phenyl-2-furanone;γ-Phenyl-γ-butanolide;(±)-γ-Phenyl-γ-butyrolactone;5-Phenyltetrahydrofuran-2-one;5-Phenyldihydrofuran-2(3<em>H</em>)-one;(<em>RS</em>)-γ-Phenyl-γ-butyrolactone;NSC 24259;NSC 48048",
    "duplicated_cas_no": "69814-97-7",
    "SMILES": "O=C1OC(CC1)C2=CC=CC=C2",
    "meta_data": {
        "InChI": "InChI=1S/C10H10O2/c11-10-7-6-9(12-10)8-4-2-1-3-5-8/h1-5,9H,6-7H2",
        "InChIKey": null,
        "Canonical SMILES": "O=C1OC(C=2C=CC=CC2)CC1",
        "Molecular Formula": "C<sub>10</sub>H<sub>10</sub>O<sub>2</sub>",
        "Molecular Mass": "162.19",
        "Boiling Point": "175-176 °C @ Press: 11 Torr",
        "Melting Point": "37-38 °C",
        "Density": "1.5411 g/cm³ @ Temp: 23 °C"
    }
}