{
    "cas_no": "34023-62-6",
    "key_name": "1,3-Benzodioxol-5-yl-1-piperidinylmethanone",
    "cn_name": null,
    "alternate_name": "Methanone, 1,3-benzodioxol-5-yl-1-piperidinyl-;Piperidine, 1-piperonyloyl-;Piperidine, 1-(1,3-benzodioxol-5-ylcarbonyl)-;1,3-Benzodioxol-5-yl-1-piperidinylmethanone;Piperonylic acid piperidide;<em>N</em>-Piperonyloylpiperidine;3,4-Methylenedioxybenzoylpiperidine;BA 14;1-BCP;1-(2<em>H</em>-1,3-Benzodioxole-5-carbonyl)piperidine;1-(1,3-Dioxaindane-5-carbonyl)piperidine",
    "duplicated_cas_no": "",
    "SMILES": "C(=O)(C=1C=C2C(=CC1)OCO2)N3CCCCC3",
    "meta_data": {
        "InChI": "InChI=1S/C13H15NO3/c15-13(14-6-2-1-3-7-14)10-4-5-11-12(8-10)17-9-16-11/h4-5,8H,1-3,6-7,9H2",
        "InChIKey": null,
        "Canonical SMILES": "O=C(C1=CC=C2OCOC2=C1)N3CCCCC3",
        "Molecular Formula": "C<sub>13</sub>H<sub>15</sub>NO<sub>3</sub>",
        "Molecular Mass": "233.26",
        "Melting Point": "51-52 °C"
    }
}