{
    "cas_no": "19647-71-3",
    "key_name": "Phenylmethyl <em>N</em>-[(1<em>S</em>)-2-[(4-nitrophenyl)amino]-2-oxo-1-(phenylmethyl)ethyl]carbamate",
    "cn_name": "N-CBZ-L-苯丙氨酸;",
    "alternate_name": "Carbamic acid, <em>N</em>-[(1<em>S</em>)-2-[(4-nitrophenyl)amino]-2-oxo-1-(phenylmethyl)ethyl]-, phenylmethyl ester;Carbamic acid, [α-[(<em>p</em>-nitrophenyl)carbamoyl]phenethyl]-, benzyl ester, <span class=\"text-smallcaps\">L</span>-;Carbamic acid, [2-[(4-nitrophenyl)amino]-2-oxo-1-(phenylmethyl)ethyl]-, phenylmethyl ester, (<em>S</em>)-;Carbamic acid, [(1<em>S</em>)-2-[(4-nitrophenyl)amino]-2-oxo-1-(phenylmethyl)ethyl]-, phenylmethyl ester;Phenylmethyl <em>N</em>-[(1<em>S</em>)-2-[(4-nitrophenyl)amino]-2-oxo-1-(phenylmethyl)ethyl]carbamate;<em>N</em>-Benzyloxycarbonyl-<span class=\"text-smallcaps\">L</span>-phenylalanine <em>p</em>-nitroanilide;<em>N</em>-(Benzyloxycarbonyl)-<span class=\"text-smallcaps\">L</span>-phenylalanine 4-nitroanilide;<em>N</em>-Carbobenzoxy-<span class=\"text-smallcaps\">L</span>-phenylalanyl-<em>p</em>-nitroanilide",
    "duplicated_cas_no": "",
    "SMILES": "[C@H](CC1=CC=CC=C1)(C(NC2=CC=C(N(=O)=O)C=C2)=O)NC(OCC3=CC=CC=C3)=O",
    "meta_data": {
        "InChI": "InChI=1S/C23H21N3O5/c27-22(24-19-11-13-20(14-12-19)26(29)30)21(15-17-7-3-1-4-8-17)25-23(28)31-16-18-9-5-2-6-10-18/h1-14,21H,15-16H2,(H,24,27)(H,25,28)/t21-/m0/s1",
        "InChIKey": null,
        "Canonical SMILES": "O=C(OCC=1C=CC=CC1)NC(C(=O)NC2=CC=C(C=C2)N(=O)=O)CC=3C=CC=CC3",
        "Molecular Formula": "C<sub>23</sub>H<sub>21</sub>N<sub>3</sub>O<sub>5</sub>",
        "Molecular Mass": "419.43",
        "Melting Point": "159 °C"
    }
}