{
    "cas_no": "717-01-1",
    "key_name": "Benzoic acid, 3-hydroxy-4-nitro-, ethyl ester",
    "cn_name": null,
    "alternate_name": "Benzoic acid, 3-hydroxy-4-nitro-, ethyl ester;Ethyl 3-hydroxy-4-nitrobenzoate;3-Hydroxy-4-nitrobenzoic acid ethyl ester",
    "duplicated_cas_no": "",
    "SMILES": "C(OCC)(=O)C1=CC(O)=C(N(=O)=O)C=C1",
    "meta_data": {
        "InChI": "InChI=1S/C9H9NO5/c1-2-15-9(12)6-3-4-7(10(13)14)8(11)5-6/h3-5,11H,2H2,1H3",
        "InChIKey": null,
        "Canonical SMILES": "O=C(OCC)C1=CC=C(C(O)=C1)N(=O)=O",
        "Molecular Formula": "C<sub>9</sub>H<sub>9</sub>NO<sub>5</sub>",
        "Molecular Mass": "211.17",
        "Melting Point": "84 °C"
    }
}