{
    "cas_no": "7367-81-9",
    "key_name": "Methyl (<em>E</em>)-2-octenoate",
    "cn_name": null,
    "alternate_name": "2-Octenoic acid, methyl ester, (2<em>E</em>)-;2-Octenoic acid, methyl ester, (<em>E</em>)-;Methyl <em>trans</em>-2-octenoate;Methyl (<em>E</em>)-2-octenoate;(<em>E</em>)-Methyl oct-2-enoate;Methyl trans-2-octenoate",
    "duplicated_cas_no": "",
    "SMILES": "C(=C/C(OC)=O)\\CCCCC",
    "meta_data": {
        "InChI": "InChI=1S/C9H16O2/c1-3-4-5-6-7-8-9(10)11-2/h7-8H,3-6H2,1-2H3/b8-7+",
        "InChIKey": null,
        "Canonical SMILES": "O=C(OC)C=CCCCCC",
        "Molecular Formula": "C<sub>9</sub>H<sub>16</sub>O<sub>2</sub>",
        "Molecular Mass": "156.22",
        "Boiling Point": "77 °C @ Press: 12 Torr",
        "Density": "0.9010 g/cm³ @ Temp: 20 °C"
    }
}