{
    "cas_no": "942070-22-6",
    "key_name": "2-(2,5-Dibromo-3-thienyl)-4,4,5,5-tetramethyl-1,3,2-dioxaborolane",
    "cn_name": null,
    "alternate_name": "1,3,2-Dioxaborolane, 2-(2,5-dibromo-3-thienyl)-4,4,5,5-tetramethyl-;2-(2,5-Dibromo-3-thienyl)-4,4,5,5-tetramethyl-1,3,2-dioxaborolane;2-(2,5-Dibromothiophen-3-yl)-4,4,5,5-tetramethyl-1,3,2-dioxaborolane",
    "duplicated_cas_no": "",
    "SMILES": "BrC1=C(C=C(Br)S1)B2OC(C)(C)C(C)(C)O2",
    "meta_data": {
        "InChI": "InChI=1S/C10H13BBr2O2S/c1-9(2)10(3,4)15-11(14-9)6-5-7(12)16-8(6)13/h5H,1-4H3",
        "InChIKey": null,
        "Canonical SMILES": "BrC=1SC(Br)=C(C1)B2OC(C)(C)C(O2)(C)C",
        "Molecular Formula": "C<sub>10</sub>H<sub>13</sub>BBr<sub>2</sub>O<sub>2</sub>S",
        "Molecular Mass": "367.89",
        "Melting Point": "72-73 °C"
    }
}