{
    "cas_no": "87-20-7",
    "key_name": "Isoamyl salicylate",
    "cn_name": "水杨酸异戊酯;柳酸异戊酯;",
    "alternate_name": "Benzoic acid, 2-hydroxy-, 3-methylbutyl ester;Salicylic acid, isopentyl ester;Isopentyl alcohol, salicylate;Isoamyl <em>o</em>-hydroxybenzoate;Isopentyl salicylate;Isoamyl salicylate;3-Methylbutyl salicylate;NSC 7952;Isoamyl 2-hydroxybenzoate;3-Methylbutyl 2-hydroxybenzoate;Isopentyl 2-hydroxybenzoate",
    "duplicated_cas_no": "34377-38-3",
    "SMILES": "C(OCCC(C)C)(=O)C1=C(O)C=CC=C1",
    "meta_data": {
        "InChI": "InChI=1S/C12H16O3/c1-9(2)7-8-15-12(14)10-5-3-4-6-11(10)13/h3-6,9,13H,7-8H2,1-2H3",
        "InChIKey": null,
        "Canonical SMILES": "O=C(OCCC(C)C)C=1C=CC=CC1O",
        "Molecular Formula": "C<sub>12</sub>H<sub>16</sub>O<sub>3</sub>",
        "Molecular Mass": "208.25",
        "Boiling Point": "278 °C"
    }
}