{
    "cas_no": "536693-96-6",
    "key_name": "Boronic acid, [2-chloro-5-(trifluoromethyl)-3-pyridinyl]-",
    "cn_name": null,
    "alternate_name": "Boronic acid, [2-chloro-5-(trifluoromethyl)-3-pyridinyl]-;Dihydroxy(2-chloro-5-trifluoromethyl-3-pyridyl)borane;[2-Chloro-5-(trifluoromethyl)pyridin-3-yl]boronic acid;2-Chloro-5-(trifluoromethyl)pyridine-3-boronic acid",
    "duplicated_cas_no": "",
    "SMILES": "B(O)(O)C=1C=C(C(F)(F)F)C=NC1Cl",
    "meta_data": {
        "InChI": "InChI=1S/C6H4BClF3NO2/c8-5-4(7(13)14)1-3(2-12-5)6(9,10)11/h1-2,13-14H",
        "InChIKey": null,
        "Canonical SMILES": "FC(F)(F)C1=CN=C(Cl)C(=C1)B(O)O",
        "Molecular Formula": "C<sub>6</sub>H<sub>4</sub>BClF<sub>3</sub>NO<sub>2</sub>",
        "Molecular Mass": "225.36",
        "Melting Point": "138.9-141.1 °C"
    }
}