{
    "cas_no": "4985-46-0",
    "key_name": "<span class=\"text-smallcaps\">L</span>-Tyrosinamide",
    "cn_name": null,
    "alternate_name": "Benzenepropanamide, α-amino-4-hydroxy-, (α<em>S</em>)-;Tyrosinamide, <span class=\"text-smallcaps\">L</span>-;Benzenepropanamide, α-amino-4-hydroxy-, (<em>S</em>)-;Tyrosinamide;(α<em>S</em>)-α-Amino-4-hydroxybenzenepropanamide;<span class=\"text-smallcaps\">L</span>-Tyrosinamide;<span class=\"text-smallcaps\">L</span>-Tyrosine amide;(<em>S</em>)-2-Amino-3-(4-hydroxyphenyl)propanamide;(2S)-2-Amino-3-(4-hydroxyphenyl)propanamide",
    "duplicated_cas_no": "",
    "SMILES": "C([C@@H](C(N)=O)N)C1=CC=C(O)C=C1",
    "meta_data": {
        "InChI": "InChI=1S/C9H12N2O2/c10-8(9(11)13)5-6-1-3-7(12)4-2-6/h1-4,8,12H,5,10H2,(H2,11,13)/t8-/m0/s1",
        "InChIKey": null,
        "Canonical SMILES": "O=C(N)C(N)CC1=CC=C(O)C=C1",
        "Molecular Formula": "C<sub>9</sub>H<sub>12</sub>N<sub>2</sub>O<sub>2</sub>",
        "Molecular Mass": "180.20",
        "Melting Point": "153-154 °C"
    }
}