{
    "cas_no": "339-59-3",
    "key_name": "Benzoic acid, 4-(trifluoromethyl)-, hydrazide",
    "cn_name": "4-(三氟甲基)亚苯基肼;",
    "alternate_name": "Benzoic acid, 4-(trifluoromethyl)-, hydrazide;<em>p</em>-Toluic acid, α,α,α-trifluoro-, hydrazide;<em>p</em>-(Trifluoromethyl)benzoylhydrazine;4-(Trifluoromethyl)benzohydrazide;<em>p</em>-Trifluoromethylbenzoyl hydrazide;<em>p</em>-Trifluoromethylbenzoic acid hydrazide;4-Trifluoromethylbenzoic acid hydrazide;4-Trifluoromethylbenzhydrazide;4-(Trifluoromethyl)benzoic hydrazide",
    "duplicated_cas_no": "2093214-11-8",
    "SMILES": "C(F)(F)(F)C1=CC=C(C(NN)=O)C=C1",
    "meta_data": {
        "InChI": "InChI=1S/C8H7F3N2O/c9-8(10,11)6-3-1-5(2-4-6)7(14)13-12/h1-4H,12H2,(H,13,14)",
        "InChIKey": null,
        "Canonical SMILES": "O=C(NN)C1=CC=C(C=C1)C(F)(F)F",
        "Molecular Formula": "C<sub>8</sub>H<sub>7</sub>F<sub>3</sub>N<sub>2</sub>O",
        "Molecular Mass": "204.15",
        "Melting Point": "120-121 °C"
    }
}