{
    "cas_no": "10388-19-9",
    "key_name": "3-Iodobenzamide",
    "cn_name": null,
    "alternate_name": "Benzamide, 3-iodo-;Benzamide, <em>m</em>-iodo-;3-Iodobenzamide;<em>m</em>-Iodobenzamide",
    "duplicated_cas_no": "",
    "SMILES": "C(N)(=O)C1=CC(I)=CC=C1",
    "meta_data": {
        "InChI": "InChI=1S/C7H6INO/c8-6-3-1-2-5(4-6)7(9)10/h1-4H,(H2,9,10)",
        "InChIKey": null,
        "Canonical SMILES": "O=C(N)C=1C=CC=C(I)C1",
        "Molecular Formula": "C<sub>7</sub>H<sub>6</sub>INO",
        "Molecular Mass": "247.03",
        "Melting Point": "185-186 °C"
    }
}