{
    "cas_no": "552-58-9",
    "key_name": "(+)-Eriodictyol",
    "cn_name": "圣草酚; (S)-2-(3,4-二羟基苯基)-2,3-二氢-5,7-二羟基-4-香豆素;",
    "alternate_name": "4<em>H</em>-1-Benzopyran-4-one, 2-(3,4-dihydroxyphenyl)-2,3-dihydro-5,7-dihydroxy-, (2<em>S</em>)-;Eriodictyol;Flavanone, 3′,4′,5,7-tetrahydroxy-;4<em>H</em>-1-Benzopyran-4-one, 2-(3,4-dihydroxyphenyl)-2,3-dihydro-5,7-dihydroxy-, (<em>S</em>)-;(2<em>S</em>)-2-(3,4-Dihydroxyphenyl)-2,3-dihydro-5,7-dihydroxy-4<em>H</em>-1-benzopyran-4-one;(<em>S</em>)-3′,4′,5,7-Tetrahydroxyflavanone;(2<em>S</em>)-Eriodictyol;Huazhongilexone;(+)-Eriodictyol;3′,4′,5,7-Tetrahydroxyflavanone;(<em>S</em>)-2,3-Dihydroluteolin;(2S)-2-(3,4-Dihydroxyphenyl)-5,7-dihydroxy-2,3-dihydrochromen-4-one",
    "duplicated_cas_no": "17654-24-9;216973-79-4",
    "SMILES": "O=C1C=2C(O[C@@H](C1)C3=CC(O)=C(O)C=C3)=CC(O)=CC2O",
    "meta_data": {
        "InChI": "InChI=1S/C15H12O6/c16-8-4-11(19)15-12(20)6-13(21-14(15)5-8)7-1-2-9(17)10(18)3-7/h1-5,13,16-19H,6H2/t13-/m0/s1",
        "InChIKey": null,
        "Canonical SMILES": "O=C1C=2C(O)=CC(O)=CC2OC(C3=CC=C(O)C(O)=C3)C1",
        "Molecular Formula": "C<sub>15</sub>H<sub>12</sub>O<sub>6</sub>",
        "Molecular Mass": "288.25",
        "Melting Point": "267 °C (decomp)"
    }
}