{
    "cas_no": "1081-34-1",
    "key_name": "2,2′:5′,2′′-Terthiophene",
    "cn_name": "alpha-三联噻吩;[2,2\":5‘,2“]三噻吩;2,2\":5\",2\"\"-三噻吩;",
    "alternate_name": "2,2′:5′,2′′-Terthiophene;2,2′-Bithiophene, 5-(2-thienyl)-;α-Terthienyl;2,2′:5′,2′′-Terthienyl;α-Terthiophene;2,2′,2′′-Terthiophene;α-Trithienyl;Trithiophene;2,5-Di(2-thienyl)thiophene",
    "duplicated_cas_no": "",
    "SMILES": "C=1(SC(=CC1)C2=CC=CS2)C3=CC=CS3",
    "meta_data": {
        "InChI": "InChI=1S/C12H8S3/c1-3-9(13-7-1)11-5-6-12(15-11)10-4-2-8-14-10/h1-8H",
        "InChIKey": null,
        "Canonical SMILES": "S1C=CC=C1C=2SC(=CC2)C=3SC=CC3",
        "Molecular Formula": "C<sub>12</sub>H<sub>8</sub>S<sub>3</sub>",
        "Molecular Mass": "248.39",
        "Melting Point": "93-94 °C"
    }
}