{
    "cas_no": "5851-43-4",
    "key_name": "2-Isopropylbenzimidazole",
    "cn_name": "2-异丙基苯并咪唑;2-异丙基苯并咪唑;",
    "alternate_name": "1<em>H</em>-Benzimidazole, 2-(1-methylethyl)-;Benzimidazole, 2-isopropyl-;2-(1-Methylethyl)-1<em>H</em>-benzimidazole;2-Isopropylbenzimidazole;2-Isopropyl-1<em>H</em>-benzimidazole;2-Propan-2-yl-1<em>H</em>-benzimidazole;2-(Propan-2-yl)-1<em>H</em>-1,3-benzodiazole",
    "duplicated_cas_no": "",
    "SMILES": "C(C)(C)C=1NC=2C(N1)=CC=CC2",
    "meta_data": {
        "InChI": "InChI=1S/C10H12N2/c1-7(2)10-11-8-5-3-4-6-9(8)12-10/h3-7H,1-2H3,(H,11,12)",
        "InChIKey": null,
        "Canonical SMILES": "N=1C=2C=CC=CC2NC1C(C)C",
        "Molecular Formula": "C<sub>10</sub>H<sub>12</sub>N<sub>2</sub>",
        "Molecular Mass": "160.22",
        "Boiling Point": "180 °C @ Press: 15 Torr",
        "Melting Point": "223-225 °C"
    }
}