{
    "cas_no": "553-17-3",
    "key_name": "Phenol, 2-methoxy-, 1,1′-carbonate",
    "cn_name": null,
    "alternate_name": "Phenol, 2-methoxy-, 1,1′-carbonate;Carbonic acid, bis(<em>o</em>-methoxyphenyl) ester;Guaiacol carbonate;Phenol, 2-methoxy-, carbonate (2:1);Phenol, <em>o</em>-methoxy-, carbonate;Bis-<em>o</em>-methoxyphenyl carbonate;Carbonic acid bis(2-methoxyphenyl) ester;Duotal;Guaiacol carbonic acid neutral ester;Di-<em>o</em>-methoxyphenyl carbonate;Tussophob;Bis(2-methoxyphenyl) carbonate;Carbonic acid guiacol ether;Diguaiacyl carbonate;NSC 37138;NSC 3798",
    "duplicated_cas_no": "",
    "SMILES": "O(C(OC1=C(OC)C=CC=C1)=O)C2=C(OC)C=CC=C2",
    "meta_data": {
        "InChI": "InChI=1S/C15H14O5/c1-17-11-7-3-5-9-13(11)19-15(16)20-14-10-6-4-8-12(14)18-2/h3-10H,1-2H3",
        "InChIKey": null,
        "Canonical SMILES": "O=C(OC=1C=CC=CC1OC)OC=2C=CC=CC2OC",
        "Molecular Formula": "C<sub>15</sub>H<sub>14</sub>O<sub>5</sub>",
        "Molecular Mass": "274.27",
        "Melting Point": "89 °C"
    }
}