{
    "cas_no": "32986-56-4",
    "key_name": "Tobramycin",
    "cn_name": "妥布霉素;托布霉素;O-3-氨基-3-脱氧-alpha-O-葡吡喃糖基-(1→6)-O-[2,6-二氨基-2,3,6-三脱氧-alpha-D-核-己;",
    "alternate_name": "<span class=\"text-smallcaps\">D</smallcap>-Streptamine, <em>O</em>-3-amino-3-deoxy-α-<smallcap>D</smallcap>-glucopyranosyl-(1→6)-<em>O</em>-[2,6-diamino-2,3,6-trideoxy-α-<smallcap>D</span>-<em>ribo</em>-hexopyranosyl-(1→4)]-2-deoxy-;<em>O</em>-3-Amino-3-deoxy-α-<span class=\"text-smallcaps\">D</smallcap>-glucopyranosyl-(1→6)-<em>O</em>-[2,6-diamino-2,3,6-trideoxy-α-<smallcap>D</smallcap>-<em>ribo</em>-hexopyranosyl-(1→4)]-2-deoxy-<smallcap>D</span>-streptamine;Nebramycin factor 6;Tobramycin;3′-Deoxykanamycin B;Nebramycin 6;Nebramycin VI;Deoxykanamycin B;Tobramycetin;Tobramicin;Tobralex;Tobrex;Tobramaxin;NF 6;Tobradistin;Tobracin;NSC 180514;Tobramax;Tobrin;Vantobra;Tobi Podhaler;MeSH ID: D014031",
    "duplicated_cas_no": "11098-01-4;11111-45-8;34337-51-4;37321-13-4;54330-95-9;70322-33-7",
    "SMILES": "O([C@@H]1[C@@H](O)[C@H](O[C@H]2O[C@H](CN)[C@@H](O)C[C@H]2N)[C@@H](N)C[C@H]1N)[C@H]3O[C@H](CO)[C@@H](O)[C@H](N)[C@H]3O",
    "meta_data": {
        "InChI": "InChI=1S/C18H37N5O9/c19-3-9-8(25)2-7(22)17(29-9)31-15-5(20)1-6(21)16(14(15)28)32-18-13(27)11(23)12(26)10(4-24)30-18/h5-18,24-28H,1-4,19-23H2/t5-,6+,7+,8-,9+,10+,11-,12+,13+,14-,15+,16-,17+,18+/m0/s1",
        "InChIKey": null,
        "Canonical SMILES": "OCC1OC(OC2C(O)C(OC3OC(CN)C(O)CC3N)C(N)CC2N)C(O)C(N)C1O",
        "Molecular Formula": "C<sub>18</sub>H<sub>37</sub>N<sub>5</sub>O<sub>9</sub>",
        "Molecular Mass": "467.51",
        "Melting Point": "164 °C"
    }
}