{
    "cas_no": "636-32-8",
    "key_name": "1,2,4,5-Benzenetetrol",
    "cn_name": null,
    "alternate_name": "1,2,4,5-Benzenetetrol;1,2,4,5-Tetrahydroxybenzene;1,2,4,5-Benzenetetraol;2,5-Dihydroxyhydroquinone;NSC 144257",
    "duplicated_cas_no": "",
    "SMILES": "OC1=C(O)C=C(O)C(O)=C1",
    "meta_data": {
        "InChI": "InChI=1S/C6H6O4/c7-3-1-4(8)6(10)2-5(3)9/h1-2,7-10H",
        "InChIKey": null,
        "Canonical SMILES": "OC=1C=C(O)C(O)=CC1O",
        "Molecular Formula": "C<sub>6</sub>H<sub>6</sub>O<sub>4</sub>",
        "Molecular Mass": "142.11",
        "Melting Point": "210 °C"
    }
}