{
    "cas_no": "124728-93-4",
    "key_name": "1,2-Difluoro-3-propoxybenzene",
    "cn_name": null,
    "alternate_name": "Benzene, 1,2-difluoro-3-propoxy-;1,2-Difluoro-3-propoxybenzene;2,3-Difluoro-1-propyloxybenzene;1,2-Difluoro-3-propyloxybenzene;3-Propoxy-1,2-difluorobenzene;2,3-Difluorophenyl propyl ether;1-Propoxy-2,3-difluorobenzene",
    "duplicated_cas_no": "",
    "SMILES": "O(CCC)C1=C(F)C(F)=CC=C1",
    "meta_data": {
        "InChI": "InChI=1S/C9H10F2O/c1-2-6-12-8-5-3-4-7(10)9(8)11/h3-5H,2,6H2,1H3",
        "InChIKey": null,
        "Canonical SMILES": "FC1=CC=CC(OCCC)=C1F",
        "Molecular Formula": "C<sub>9</sub>H<sub>10</sub>F<sub>2</sub>O",
        "Molecular Mass": "172.17",
        "Boiling Point": "105 °C @ Press: 15 mmHg"
    }
}