{
    "cas_no": "18962-05-5",
    "key_name": "4-Isopropoxybenzaldehyde",
    "cn_name": "4-异丙氧基苯甲醛;",
    "alternate_name": "Benzaldehyde, 4-(1-methylethoxy)-;Benzaldehyde, <em>p</em>-isopropoxy-;4-(1-Methylethoxy)benzaldehyde;4-Isopropoxybenzaldehyde;<em>p</em>-Isopropoxybenzaldehyde;4-(Isopropyloxy)benzaldehyde;<em>p</em>-(Isopropyloxy)benzaldehyde;NSC 69072;4-[(1-Methylethyl)oxy]benzaldehyde;4-(Propan-2-yloxy)benzaldehyde",
    "duplicated_cas_no": "",
    "SMILES": "O(C(C)C)C1=CC=C(C=O)C=C1",
    "meta_data": {
        "InChI": "InChI=1S/C10H12O2/c1-8(2)12-10-5-3-9(7-11)4-6-10/h3-8H,1-2H3",
        "InChIKey": null,
        "Canonical SMILES": "O=CC1=CC=C(OC(C)C)C=C1",
        "Molecular Formula": "C<sub>10</sub>H<sub>12</sub>O<sub>2</sub>",
        "Molecular Mass": "164.20",
        "Boiling Point": "135-136 °C",
        "Melting Point": "167 °C"
    }
}