{
    "cas_no": "32213-95-9",
    "key_name": "<span class=\"text-smallcaps\">L</span>-Aspartic acid, 1,4-dimethyl ester, hydrochloride (1:1)",
    "cn_name": "L-天冬氨酸二甲酯盐酸盐;",
    "alternate_name": "<span class=\"text-smallcaps\">L</span>-Aspartic acid, 1,4-dimethyl ester, hydrochloride (1:1);<span class=\"text-smallcaps\">L</span>-Aspartic acid, dimethyl ester, hydrochloride;Aspartic acid, dimethyl ester, hydrochloride, <span class=\"text-smallcaps\">L</span>-;Dimethyl aspartate hydrochloride;Dimethyl <span class=\"text-smallcaps\">L</span>-aspartate hydrochloride;Dimethyl (<em>S</em>)-aspartate hydrochloride;NSC 112494;Dimethyl (<em>S</em>)-2-aminosuccinate hydrochloride;1,4-Dimethyl (2S)-2-aminobutanedioate hydrochloride;Dimethyl (2S)-2-aminobutanedioate hydrochloride",
    "duplicated_cas_no": "",
    "SMILES": "[C@H](CC(OC)=O)(C(OC)=O)N.Cl",
    "meta_data": {
        "InChI": "InChI=1S/C6H11NO4.ClH/c1-10-5(8)3-4(7)6(9)11-2;/h4H,3,7H2,1-2H3;1H/t4-;/m0./s1",
        "InChIKey": null,
        "Canonical SMILES": "Cl.O=C(OC)CC(N)C(=O)OC",
        "Molecular Formula": "C<sub>6</sub>H<sub>11</sub>NO<sub>4</sub>.ClH",
        "Molecular Mass": "",
        "Melting Point": "116-117 °C"
    }
}