{
    "cas_no": "6396-76-5",
    "key_name": "<em>N</em>-(2,6-Dimethylphenyl)thiourea",
    "cn_name": "1-(2,6-二甲苯基)硫脲;2,6-二甲基苯(基)硫脲;",
    "alternate_name": "Thiourea, <em>N</em>-(2,6-dimethylphenyl)-;Urea, 2-thio-1-(2,6-xylyl)-;Thiourea, (2,6-dimethylphenyl)-;<em>N</em>-(2,6-Dimethylphenyl)thiourea;2,6-Dimethylphenylthiourea;1-(2,6-Dimethylphenyl)thiourea;NSC 202179",
    "duplicated_cas_no": "",
    "SMILES": "N(C(N)=S)C1=C(C)C=CC=C1C",
    "meta_data": {
        "InChI": "InChI=1S/C9H12N2S/c1-6-4-3-5-7(2)8(6)11-9(10)12/h3-5H,1-2H3,(H3,10,11,12)",
        "InChIKey": null,
        "Canonical SMILES": "S=C(N)NC=1C(=CC=CC1C)C",
        "Molecular Formula": "C<sub>9</sub>H<sub>12</sub>N<sub>2</sub>S",
        "Molecular Mass": "180.27",
        "Melting Point": "202-204 °C"
    }
}