{
    "cas_no": "67083-28-7",
    "key_name": "2,6-Dimethyl-3-nitrobenzenamine",
    "cn_name": null,
    "alternate_name": "Benzenamine, 2,6-dimethyl-3-nitro-;2,6-Dimethyl-3-nitrobenzenamine;3-Nitro-2,6-xylidine;2,6-Dimethyl-3-nitroaniline;3-Nitro-2,6-dimethylaniline;NSC 44282;(2,6-Dimethyl-3-nitrophenyl)amine",
    "duplicated_cas_no": "",
    "SMILES": "N(=O)(=O)C1=C(C)C(N)=C(C)C=C1",
    "meta_data": {
        "InChI": "InChI=1S/C8H10N2O2/c1-5-3-4-7(10(11)12)6(2)8(5)9/h3-4H,9H2,1-2H3",
        "InChIKey": null,
        "Canonical SMILES": "O=N(=O)C1=CC=C(C(N)=C1C)C",
        "Molecular Formula": "C<sub>8</sub>H<sub>10</sub>N<sub>2</sub>O<sub>2</sub>",
        "Molecular Mass": "166.18",
        "Melting Point": "80-81 °C"
    }
}