{
    "cas_no": "110-46-3",
    "key_name": "Isoamyl nitrite",
    "cn_name": "亚硝酸异戊酯;",
    "alternate_name": "Nitrous acid, 3-methylbutyl ester;Isopentyl alcohol, nitrite;Isoamyl nitrite;Isopentyl nitrite;3-Methylbutanol nitrite;Vaporole;Nitrous acid, isopentyl ester;3-Methylbutyl nitrite;Amyl nitrite;Aspiral;Nitramyl;Pentyl nitrite;NSC 7903;MeSH ID: D000680",
    "duplicated_cas_no": "",
    "SMILES": "C(CON=O)C(C)C",
    "meta_data": {
        "InChI": "InChI=1S/C5H11NO2/c1-5(2)3-4-8-6-7/h5H,3-4H2,1-2H3",
        "InChIKey": null,
        "Canonical SMILES": "O=NOCCC(C)C",
        "Molecular Formula": "C<sub>5</sub>H<sub>11</sub>NO<sub>2</sub>",
        "Molecular Mass": "117.15",
        "Boiling Point": "99.2 °C",
        "Density": "0.875 g/cm³ @ Temp: 25 °C"
    }
}