{
    "cas_no": "3368-87-4",
    "key_name": "Vallesamine",
    "cn_name": null,
    "alternate_name": "2,5-Ethano-2<em>H</em>-azocino[4,3-<em>b</em>]indole-6-carboxylic acid, 4-ethylidene-1,3,4,5,6,7-hexahydro-6-(hydroxymethyl)-, methyl ester, (2<em>R</em>,4<em>E</em>,5<em>S</em>,6<em>S</em>)-;2,5-Ethano-2<em>H</em>-azocino[4,3-<em>b</em>]indole-6-carboxylic acid, 4-ethylidene-1,3,4,5,6,7-hexahydro-6-(hydroxymethyl)-, methyl ester, [5<em>S</em>-(4<em>E</em>,5α,6β)]-;Vallesamine;2,5-Ethano-2<em>H</em>-azocino[4,3-<em>b</em>]indole-6-carboxylic acid, 4-ethylidene-1,3,4,5,6,7-hexahydro-6-(hydroxymethyl)-, methyl ester, (4<em>E</em>,5<em>S</em>,6<em>R</em>)-;(+)-Vallesamine;19,20-(<em>E</em>)-Vallesamine;(<em>E</em>)-Vallesamine;19<em>E</em>-Vallesamine",
    "duplicated_cas_no": "",
    "SMILES": "C(OC)(=O)[C@]1(CO)C2=C(C=3C(N2)=CC=CC3)C[N@]4C\\C(=C\\C)\\[C@@]1(CC4)[H]",
    "meta_data": {
        "InChI": "InChI=1S/C20H24N2O3/c1-3-13-10-22-9-8-16(13)20(12-23,19(24)25-2)18-15(11-22)14-6-4-5-7-17(14)21-18/h3-7,16,21,23H,8-12H2,1-2H3/b13-3-/t16-,20-/m0/s1",
        "InChIKey": null,
        "Canonical SMILES": "O=C(OC)C1(C=2NC=3C=CC=CC3C2CN4CC(=CC)C1CC4)CO",
        "Molecular Formula": "C<sub>20</sub>H<sub>24</sub>N<sub>2</sub>O<sub>3</sub>",
        "Molecular Mass": "340.42",
        "Melting Point": "162-165 °C"
    }
}