{
    "cas_no": "420-97-3",
    "key_name": "1,2-Dichloro-2-fluoropropane",
    "cn_name": null,
    "alternate_name": "Propane, 1,2-dichloro-2-fluoro-;1,2-Dichloro-2-fluoropropane",
    "duplicated_cas_no": "",
    "SMILES": "C(CCl)(C)(Cl)F",
    "meta_data": {
        "InChI": "InChI=1S/C3H5Cl2F/c1-3(5,6)2-4/h2H2,1H3",
        "InChIKey": null,
        "Canonical SMILES": "FC(Cl)(C)CCl",
        "Molecular Formula": "C<sub>3</sub>H<sub>5</sub>Cl<sub>2</sub>F",
        "Molecular Mass": "130.98",
        "Boiling Point": "88.6 °C",
        "Melting Point": "-91.7 °C",
        "Density": "1.2618 g/cm³ @ Temp: 20 °C"
    }
}