{
    "cas_no": "1066-33-7",
    "key_name": "Ammonium bicarbonate",
    "cn_name": "碳酸氢铵;酸式碳酸铵;重碳酸铵;",
    "alternate_name": "Carbonic acid, ammonium salt (1:1);Carbonic acid, monoammonium salt;Ammonium bicarbonate;Ammonium hydrogen carbonate;Ammonium bicarbonate ((NH<sub>4</sub>)HCO<sub>3</sub>);Monoammonium carbonate;Acid ammonium carbonate;AmBic",
    "duplicated_cas_no": "114459-02-8;758-14-5;861794-52-7",
    "SMILES": "C(=O)(O)O.N",
    "meta_data": {
        "InChI": "InChI=1S/CH2O3.H3N/c2-1(3)4;/h(H2,2,3,4);1H3",
        "InChIKey": null,
        "Canonical SMILES": "O=C(O)O.N",
        "Molecular Formula": "CH<sub>2</sub>O<sub>3</sub>.H<sub>3</sub>N",
        "Molecular Mass": "",
        "Melting Point": "107 °C (decomp)",
        "Density": "1.586 g/cm³"
    }
}