{
    "cas_no": "28315-93-7",
    "key_name": "5-Hydroxy-1-tetralone",
    "cn_name": "5-羟基-1-四氢萘酮;",
    "alternate_name": "1(2<em>H</em>)-Naphthalenone, 3,4-dihydro-5-hydroxy-;3,4-Dihydro-5-hydroxy-1(2<em>H</em>)-naphthalenone;5-Hydroxy-1-tetralone;5-Hydroxytetralone;5-Hydroxy-α-tetralone;5-Hydroxy-3,4-dihydro-1(2<em>H</em>)-naphthalenone;1,2,3,4-Tetrahydro-1-oxo-5-hydroxynaphthalene;5-Hydroxy-3,4-dihydro-2<em>H</em>-naphthalen-1-one;5-Hydroxy-1,2,3,4-tetrahydronaphthalen-1-one;1,2,3,4-Tetrahydro-5-hydroxynaphthyl-1-one",
    "duplicated_cas_no": "",
    "SMILES": "O=C1C=2C(=C(O)C=CC2)CCC1",
    "meta_data": {
        "InChI": "InChI=1S/C10H10O2/c11-9-5-1-3-7-8(9)4-2-6-10(7)12/h1,3,5,11H,2,4,6H2",
        "InChIKey": null,
        "Canonical SMILES": "O=C1C=2C=CC=C(O)C2CCC1",
        "Molecular Formula": "C<sub>10</sub>H<sub>10</sub>O<sub>2</sub>",
        "Molecular Mass": "162.19",
        "Melting Point": "210-211.5 °C"
    }
}