{
    "cas_no": "54982-83-1",
    "key_name": "Ethylene dodecanedioate",
    "cn_name": "1,4-二氧杂环十六烷-5,16-二酮;",
    "alternate_name": "1,4-Dioxacyclohexadecane-5,16-dione;Ethylene dodecanedioate;Cyclic ethylene dodecanedioate;Musk C-14;Musk 144;Zenolide;Arova N",
    "duplicated_cas_no": "85024-16-4;91462-24-7",
    "SMILES": "O=C1OCCOC(=O)CCCCCCCCCC1",
    "meta_data": {
        "InChI": "InChI=1S/C14H24O4/c15-13-9-7-5-3-1-2-4-6-8-10-14(16)18-12-11-17-13/h1-12H2",
        "InChIKey": null,
        "Canonical SMILES": "O=C1OCCOC(=O)CCCCCCCCCC1",
        "Molecular Formula": "C<sub>14</sub>H<sub>24</sub>O<sub>4</sub>",
        "Molecular Mass": "256.34",
        "Boiling Point": "135 °C @ Press: 0.1 Torr"
    }
}