{
    "cas_no": "2645-08-1",
    "key_name": "<em>N</em>-Benzoyl-<span class=\"text-smallcaps\">L</span>-arginine ethyl ester hydrochloride",
    "cn_name": null,
    "alternate_name": "<span class=\"text-smallcaps\">L</span>-Arginine, <em>N</em><sup>2</sup>-benzoyl-, ethyl ester, hydrochloride (1:1);Arginine, <em>N</em><sup>2</sup>-benzoyl-, ethyl ester, monohydrochloride, <span class=\"text-smallcaps\">L</span>-;<span class=\"text-smallcaps\">L</span>-Arginine, <em>N</em><sup>2</sup>-benzoyl-, ethyl ester, monohydrochloride;<em>N</em>-Benzoyl-<span class=\"text-smallcaps\">L</span>-arginine ethyl ester hydrochloride;α-<em>N</em>-Benzoyl-<span class=\"text-smallcaps\">L</span>-arginine ethyl ester hydrochloride;Ethyl <em>N</em>-benzoyl-α-arginine hydrochloride;<em>N</em>-α-Benzoyl-<span class=\"text-smallcaps\">L</span>-arginine ethyl ester hydrochloride;NSC 86159",
    "duplicated_cas_no": "2588541-03-9",
    "SMILES": "[C@@H](NC(=O)C1=CC=CC=C1)(C(OCC)=O)CCCNC(=N)N.Cl",
    "meta_data": {
        "InChI": "InChI=1S/C15H22N4O3.ClH/c1-2-22-14(21)12(9-6-10-18-15(16)17)19-13(20)11-7-4-3-5-8-11;/h3-5,7-8,12H,2,6,9-10H2,1H3,(H,19,20)(H4,16,17,18);1H/t12-;/m0./s1",
        "InChIKey": null,
        "Canonical SMILES": "Cl.O=C(OCC)C(NC(=O)C=1C=CC=CC1)CCCNC(=N)N",
        "Molecular Formula": "C<sub>15</sub>H<sub>22</sub>N<sub>4</sub>O<sub>3</sub>.ClH",
        "Molecular Mass": "",
        "Melting Point": "121-123 °C"
    }
}