{
    "cas_no": "522-30-5",
    "key_name": "Norsanguinarine",
    "cn_name": null,
    "alternate_name": "[1,3]Benzodioxolo[5,6-<em>c</em>]-1,3-dioxolo[4,5-<em>i</em>]phenanthridine;13-Demethylsanguinarine;1,3-Dioxolo[<em>i</em>][1,3]dioxolo[4,5]benzo[1,2-<em>c</em>]phenanthridine;Norsanguinarine;<em>N</em>-Norsanguinarine;NSC 143762;Demethylsanguinarine",
    "duplicated_cas_no": "220-85-9",
    "SMILES": "C12=C(C=3C(C=C1)=CC4=C(C3)OCO4)N=CC=5C2=CC=C6C5OCO6",
    "meta_data": {
        "InChI": "InChI=1S/C19H11NO4/c1-2-12-11-3-4-15-19(24-9-21-15)14(11)7-20-18(12)13-6-17-16(5-10(1)13)22-8-23-17/h1-7H,8-9H2",
        "InChIKey": null,
        "Canonical SMILES": "N1=CC2=C3OCOC3=CC=C2C=4C=CC=5C=C6OCOC6=CC5C14",
        "Molecular Formula": "C<sub>19</sub>H<sub>11</sub>NO<sub>4</sub>",
        "Molecular Mass": "317.29",
        "Melting Point": "279-280 °C"
    }
}