{
    "cas_no": "140-28-3",
    "key_name": "Benzathine",
    "cn_name": "N,N-二苄基乙二胺;",
    "alternate_name": "1,2-Ethanediamine, <em>N</em><sup>1</sup>,<em>N</em><sup>2</sup>-bis(phenylmethyl)-;Ethylenediamine, <em>N</em>,<em>N</em>′-dibenzyl-;1,2-Ethanediamine, <em>N</em>,<em>N</em>′-bis(phenylmethyl)-;<em>N</em><sup>1</sup>,<em>N</em><sup>2</sup>-Bis(phenylmethyl)-1,2-ethanediamine;Benzathine;Benzatin;1,2-Bis(benzylamino)ethane;DBED;<em>N</em>,<em>N</em>′-Dibenzylethylenediamine;<em>N</em>,<em>N</em>′-Dibenzyl-1,2-ethanediamine;<em>N</em>,<em>N</em>′-Dibenzyl-1,2-ethylenediamine;<em>N</em>,<em>N</em>′-Dibenzyl-1,2-diaminoethane;<em>N</em>,<em>N</em>′-Bis(phenylmethyl)-1,2-ethanediamine;NSC 5632;NSC 62936;Benzyl (2-(benzylamino)ethyl)amine",
    "duplicated_cas_no": "87170-83-0",
    "SMILES": "C(NCCNCC1=CC=CC=C1)C2=CC=CC=C2",
    "meta_data": {
        "InChI": "InChI=1S/C16H20N2/c1-3-7-15(8-4-1)13-17-11-12-18-14-16-9-5-2-6-10-16/h1-10,17-18H,11-14H2",
        "InChIKey": null,
        "Canonical SMILES": "C=1C=CC(=CC1)CNCCNCC=2C=CC=CC2",
        "Molecular Formula": "C<sub>16</sub>H<sub>20</sub>N<sub>2</sub>",
        "Molecular Mass": "240.34",
        "Boiling Point": "212-213 °C",
        "Melting Point": "26 °C",
        "Density": "1.024 g/cm³ @ Temp: 20 °C"
    }
}