{
    "cas_no": "632-51-9",
    "key_name": "Tetraphenylethylene",
    "cn_name": "1,1,2,2-四苯乙烯;",
    "alternate_name": "Benzene, 1,1′,1′′,1′′′-(1,2-ethenediylidene)tetrakis-;Ethylene, tetraphenyl-;1,1′,1′′,1′′′-(1,2-Ethenediylidene)tetrakis[benzene];Tetraphenylethylene;1,1,2,2-Tetraphenylethylene;Tetraphenylethene;α,β-Diphenylstilbene;1,1,2,2-Tetraphenylethene;NSC 40472;NSC 52243;1,2,2-Triphenylethenylbenzene",
    "duplicated_cas_no": "",
    "SMILES": "C(=C(C1=CC=CC=C1)C2=CC=CC=C2)(C3=CC=CC=C3)C4=CC=CC=C4",
    "meta_data": {
        "InChI": "InChI=1S/C26H20/c1-5-13-21(14-6-1)25(22-15-7-2-8-16-22)26(23-17-9-3-10-18-23)24-19-11-4-12-20-24/h1-20H",
        "InChIKey": null,
        "Canonical SMILES": "C=1C=CC(=CC1)C(C=2C=CC=CC2)=C(C=3C=CC=CC3)C=4C=CC=CC4",
        "Molecular Formula": "C<sub>26</sub>H<sub>20</sub>",
        "Molecular Mass": "332.44",
        "Boiling Point": "420 °C",
        "Melting Point": "225 °C"
    }
}