{
    "cas_no": "3107-04-8",
    "key_name": "Alloisoleucine",
    "cn_name": null,
    "alternate_name": "Alloisoleucine;Alloisoleucine, <span class=\"text-smallcaps\">DL</span>-;(±)-<em>allo</em>-Isoleucine;<span class=\"text-smallcaps\">DL</span>-<em>allo</em>-Isoleucine;<span class=\"text-smallcaps\">DL</span>-Alloisoleucine",
    "duplicated_cas_no": "",
    "SMILES": "[C@H]([C@@H](CC)C)(C(O)=O)N",
    "meta_data": {
        "InChI": "InChI=1/C6H13NO2/c1-3-4(2)5(7)6(8)9/h4-5H,3,7H2,1-2H3,(H,8,9)/t4-,5+/s2",
        "InChIKey": null,
        "Canonical SMILES": "O=C(O)C(N)C(C)CC",
        "Molecular Formula": "C<sub>6</sub>H<sub>13</sub>NO<sub>2</sub>",
        "Molecular Mass": "131.17",
        "Melting Point": "238 °C (decomp)"
    }
}