{
    "cas_no": "1446-61-3",
    "key_name": "Dehydroabietylamine",
    "cn_name": null,
    "alternate_name": "1-Phenanthrenemethanamine, 1,2,3,4,4a,9,10,10a-octahydro-1,4a-dimethyl-7-(1-methylethyl)-, (1<em>R</em>,4a<em>S</em>,10a<em>R</em>)-;Podocarpa-8,11,13-trien-15-amine, 13-isopropyl-;1-Phenanthrenemethanamine, 1,2,3,4,4a,9,10,10a-octahydro-1,4a-dimethyl-7-(1-methylethyl)-, [1<em>R</em>-(1α,4aβ,10aα)]-;Abietylamine, dehydro-;(1<em>R</em>,4a<em>S</em>,10a<em>R</em>)-1,2,3,4,4a,9,10,10a-Octahydro-1,4a-dimethyl-7-(1-methylethyl)-1-phenanthrenemethanamine;Dehydroabietylamine;NSC 2955;(+)-Dehydroabiethylamine;Leelamine;Dehydroabietic amine",
    "duplicated_cas_no": "104530-67-8;1416-08-6;24564-18-9;25512-83-8;27174-94-3;66989-22-8;87926-74-7",
    "SMILES": "C[C@@]12C=3C(CC[C@]1([C@@](CN)(C)CCC2)[H])=CC(C(C)C)=CC3",
    "meta_data": {
        "InChI": "InChI=1S/C20H31N/c1-14(2)15-6-8-17-16(12-15)7-9-18-19(3,13-21)10-5-11-20(17,18)4/h6,8,12,14,18H,5,7,9-11,13,21H2,1-4H3/t18-,19-,20+/m0/s1",
        "InChIKey": null,
        "Canonical SMILES": "NCC1(C)CCCC2(C3=CC=C(C=C3CCC21)C(C)C)C",
        "Molecular Formula": "C<sub>20</sub>H<sub>31</sub>N",
        "Molecular Mass": "285.47",
        "Boiling Point": "~250 °C (approx) @ Press: 12 Torr",
        "Melting Point": "44.50 °C",
        "Density": "1.5460 g/cm³ @ Temp: 20 °C"
    }
}