{
    "cas_no": "719-32-4",
    "key_name": "2,3,5,6-Tetrachloro-1,4-benzenedicarbonyl dichloride",
    "cn_name": "2,3,5,6-四氯对苯二甲酰氯;",
    "alternate_name": "1,4-Benzenedicarbonyl dichloride, 2,3,5,6-tetrachloro-;Terephthaloyl chloride, tetrachloro-;2,3,5,6-Tetrachloro-1,4-benzenedicarbonyl dichloride;Tetrachloroterephthaloyl chloride;2,3,5,6-Tetrachloroterephthaloyl chloride;Tetrachloroterephthalic dichloride;2,3,5,6-Tetrachloroterephthaloyl dichloride;Perchloroterephthaloyl chloride;Tetrachloroterephthaloyl dichloride;2,3,5,6-Tetrachloroterephthalic dichloride",
    "duplicated_cas_no": "",
    "SMILES": "C(Cl)(=O)C1=C(Cl)C(Cl)=C(C(Cl)=O)C(Cl)=C1Cl",
    "meta_data": {
        "InChI": "InChI=1S/C8Cl6O2/c9-3-1(7(13)15)4(10)6(12)2(5(3)11)8(14)16",
        "InChIKey": null,
        "Canonical SMILES": "O=C(Cl)C1=C(Cl)C(Cl)=C(C(=O)Cl)C(Cl)=C1Cl",
        "Molecular Formula": "C<sub>8</sub>Cl<sub>6</sub>O<sub>2</sub>",
        "Molecular Mass": "340.80",
        "Melting Point": "144-145 °C"
    }
}