{
    "cas_no": "10312-83-1",
    "key_name": "Methoxyacetaldehyde",
    "cn_name": null,
    "alternate_name": "Acetaldehyde, 2-methoxy-;Acetaldehyde, methoxy-;2-Methoxyacetaldehyde;Methoxyacetaldehyde;α-Methoxyacetaldehyde;<em>O</em>-Methylglycolaldehyde;2-Methoxyethanal",
    "duplicated_cas_no": "",
    "SMILES": "C(C=O)OC",
    "meta_data": {
        "InChI": "InChI=1S/C3H6O2/c1-5-3-2-4/h2H,3H2,1H3",
        "InChIKey": null,
        "Canonical SMILES": "O=CCOC",
        "Molecular Formula": "C<sub>3</sub>H<sub>6</sub>O<sub>2</sub>",
        "Molecular Mass": "74.08",
        "Boiling Point": "92 °C",
        "Density": "1.005 g/cm³ @ Temp: 25 °C"
    }
}