{
    "cas_no": "2206-43-1",
    "key_name": "4-Methoxy-1,3-benzenedicarboxylic acid",
    "cn_name": "4-甲氧基异酞酸;4-甲氧基-1,3-苯二甲酸;4-甲氧基间苯二甲酸;",
    "alternate_name": "1,3-Benzenedicarboxylic acid, 4-methoxy-;Isophthalic acid, 4-methoxy-;4-Methoxy-1,3-benzenedicarboxylic acid;4-Methoxyisophthalic acid;2-Methoxy-1,5-benzenedicarboxylic acid;NSC 20694",
    "duplicated_cas_no": "",
    "SMILES": "C(O)(=O)C1=C(OC)C=CC(C(O)=O)=C1",
    "meta_data": {
        "InChI": "InChI=1S/C9H8O5/c1-14-7-3-2-5(8(10)11)4-6(7)9(12)13/h2-4H,1H3,(H,10,11)(H,12,13)",
        "InChIKey": null,
        "Canonical SMILES": "O=C(O)C1=CC=C(OC)C(=C1)C(=O)O",
        "Molecular Formula": "C<sub>9</sub>H<sub>8</sub>O<sub>5</sub>",
        "Molecular Mass": "196.16",
        "Melting Point": "265 °C"
    }
}