{
    "cas_no": "14997-58-1",
    "key_name": "<em>N</em>-[(Phenylmethoxy)carbonyl]-<span class=\"text-smallcaps\">L</span>-histidine",
    "cn_name": "N-Cbz-L-组氨酸;N-苄氧羰基-L-组氨酸;",
    "alternate_name": "<span class=\"text-smallcaps\">L</span>-Histidine, <em>N</em>-[(phenylmethoxy)carbonyl]-;Histidine, <em>N</em>-carboxy-, <em>N</em>-benzyl ester, <span class=\"text-smallcaps\">L</span>-;<em>N</em>-[(Phenylmethoxy)carbonyl]-<span class=\"text-smallcaps\">L</span>-histidine;<em>N</em>-(Benzyloxycarbonyl)-<span class=\"text-smallcaps\">L</span>-histidine;<em>N</em>-Carbobenzoxy-<span class=\"text-smallcaps\">L</span>-histidine;<em>N</em><sup>α</sup>-(Benzyloxycarbonyl)histidine;<em>N</em>-Carbobenzoxyhistidine;(Benzyloxycarbonyl)histidine;<em>N</em><sup>α</sup>-(Benzyloxycarbonyl)-<span class=\"text-smallcaps\">L</span>-histidine;<em>N</em>-(Benzyloxycarbonyl)-<em>S</em>-histidine;<em>N</em>-α-Carbobenzyloxy-<span class=\"text-smallcaps\">L</span>-histidine;(2S)-2-[[(Benzyloxy)carbonyl]amino]-3-(1<em>H</em>-imidazol-4-yl)propanoic acid",
    "duplicated_cas_no": "689268-62-0",
    "SMILES": "[C@@H](CC1=CN=CN1)(NC(OCC2=CC=CC=C2)=O)C(O)=O",
    "meta_data": {
        "InChI": "InChI=1S/C14H15N3O4/c18-13(19)12(6-11-7-15-9-16-11)17-14(20)21-8-10-4-2-1-3-5-10/h1-5,7,9,12H,6,8H2,(H,15,16)(H,17,20)(H,18,19)/t12-/m0/s1",
        "InChIKey": null,
        "Canonical SMILES": "O=C(O)C(NC(=O)OCC=1C=CC=CC1)CC2=CN=CN2",
        "Molecular Formula": "C<sub>14</sub>H<sub>15</sub>N<sub>3</sub>O<sub>4</sub>",
        "Molecular Mass": "289.29",
        "Melting Point": "209 °C"
    }
}