{
    "cas_no": "2425-74-3",
    "key_name": "<em>N</em>-(1,1-Dimethylethyl)formamide",
    "cn_name": "N-叔丁基甲胺;",
    "alternate_name": "Formamide, <em>N</em>-(1,1-dimethylethyl)-;Formamide, <em>N</em>-<em>tert</em>-butyl-;<em>N</em>-(1,1-Dimethylethyl)formamide;<em>N</em>-<em>tert</em>-Butylformamide;<em>tert</em>-Butylformamide;NSC 7082;<em>N</em>-Formyl-<em>tert</em>-butylamine",
    "duplicated_cas_no": "51597-77-4",
    "SMILES": "N(C(C)(C)C)C=O",
    "meta_data": {
        "InChI": "InChI=1S/C5H11NO/c1-5(2,3)6-4-7/h4H,1-3H3,(H,6,7)",
        "InChIKey": null,
        "Canonical SMILES": "O=CNC(C)(C)C",
        "Molecular Formula": "C<sub>5</sub>H<sub>11</sub>NO",
        "Molecular Mass": "101.15",
        "Boiling Point": "202 °C",
        "Melting Point": "16 °C"
    }
}