{
    "cas_no": "10500-64-8",
    "key_name": "4-[(7-Chloro-4-quinolinyl)amino]-1-pentanol",
    "cn_name": null,
    "alternate_name": "1-Pentanol, 4-[(7-chloro-4-quinolinyl)amino]-;1-Pentanol, 4-[(7-chloro-4-quinolyl)amino]-;4-[(7-Chloro-4-quinolinyl)amino]-1-pentanol",
    "duplicated_cas_no": "",
    "SMILES": "N(C(CCCO)C)C=1C2=C(N=CC1)C=C(Cl)C=C2",
    "meta_data": {
        "InChI": "InChI=1S/C14H17ClN2O/c1-10(3-2-8-18)17-13-6-7-16-14-9-11(15)4-5-12(13)14/h4-7,9-10,18H,2-3,8H2,1H3,(H,16,17)",
        "InChIKey": null,
        "Canonical SMILES": "ClC=1C=CC=2C(=NC=CC2NC(C)CCCO)C1",
        "Molecular Formula": "C<sub>14</sub>H<sub>17</sub>ClN<sub>2</sub>O",
        "Molecular Mass": "264.75",
        "Melting Point": "179-181 °C"
    }
}