{
    "cas_no": "20726-63-0",
    "key_name": "Diethylammonium acetate",
    "cn_name": null,
    "alternate_name": "Ethanamine, <em>N</em>-ethyl-, acetate (1:1);Diethylamine, acetate;Ethanamine, <em>N</em>-ethyl-, acetate;Diethylammonium acetate",
    "duplicated_cas_no": "856328-31-9",
    "SMILES": "N(CC)CC.C(C)(O)=O",
    "meta_data": {
        "InChI": "InChI=1S/C4H11N.C2H4O2/c1-3-5-4-2;1-2(3)4/h5H,3-4H2,1-2H3;1H3,(H,3,4)",
        "InChIKey": null,
        "Canonical SMILES": "O=C(O)C.N(CC)CC",
        "Molecular Formula": "C<sub>4</sub>H<sub>11</sub>N.C<sub>2</sub>H<sub>4</sub>O<sub>2</sub>",
        "Molecular Mass": "",
        "Melting Point": "46 °C"
    }
}