{
    "cas_no": "2224-15-9",
    "key_name": "Glycol diglycidyl ether",
    "cn_name": "乙二醇二缩水甘油醚;",
    "alternate_name": "Oxirane, 2,2′-[1,2-ethanediylbis(oxymethylene)]bis-;Ethane, 1,2-bis(2,3-epoxypropoxy)-;2,2′-[1,2-Ethanediylbis(oxymethylene)]bis[oxirane];Ethylene glycol bis(glycidyl ether);Glycol diglycidyl ether;Ethylene glycol diglycidyl ether;1,2-Bis(2,3-epoxypropoxy)ethane;1,2-Bis(glycidyloxy)ethane;Ethylene diglycidyl ether;1,2-Diglycidyloxyethane;Diglycidylethylene glycol;Ethylene glycol bis(2,3-epoxypropyl) ether;1,2-Ethanediol diglycidyl ether;1,2:9,10-Diepoxy-4,7-dioxadecane;1,2-Bis(2,3-epoxypropyloxy)ethane;NSC 54740;1,2-Bis(2,3-epoxypropyloxy)ethylene;2,2′-[Ethane-1,2-diylbis(oxymethanediyl)]dioxirane;1,2-Bis(oxiran-2-ylmethoxy)ethane;2-[[2-(Oxiran-2-ylmethoxy)ethoxy]methyl]oxirane;2-[2-(Oxiran-2-ylmethoxy)ethoxymethyl]oxirane",
    "duplicated_cas_no": "156477-59-7;162786-26-7;186355-00-0;2102862-81-5",
    "SMILES": "C(OCCOCC1CO1)C2CO2",
    "meta_data": {
        "InChI": "InChI=1S/C8H14O4/c1(9-3-7-5-11-7)2-10-4-8-6-12-8/h7-8H,1-6H2",
        "InChIKey": null,
        "Canonical SMILES": "O(CCOCC1OC1)CC2OC2",
        "Molecular Formula": "C<sub>8</sub>H<sub>14</sub>O<sub>4</sub>",
        "Molecular Mass": "174.19",
        "Boiling Point": "119 °C @ Press: 2-3 Torr",
        "Density": "1.1182 g/cm³ @ Temp: 30 °C"
    }
}