{
    "cas_no": "312746-72-8",
    "key_name": "1<em>H</em>-Indazole-7-carboxaldehyde",
    "cn_name": null,
    "alternate_name": "1<em>H</em>-Indazole-7-carboxaldehyde;1<em>H</em>-Indazole-7-carbaldehyde;2<em>H</em>-Indazole-7-carbaldehyde",
    "duplicated_cas_no": "",
    "SMILES": "C(=O)C1=C2C(C=NN2)=CC=C1",
    "meta_data": {
        "InChI": "InChI=1S/C8H6N2O/c11-5-7-3-1-2-6-4-9-10-8(6)7/h1-5H,(H,9,10)",
        "InChIKey": null,
        "Canonical SMILES": "O=CC1=CC=CC=2C=NNC12",
        "Molecular Formula": "C<sub>8</sub>H<sub>6</sub>N<sub>2</sub>O",
        "Molecular Mass": "146.15",
        "Melting Point": "120-122 °C"
    }
}