{
    "cas_no": "106795-66-8",
    "key_name": "1-(2-Fluorophenyl)cyclohexanecarboxylic acid",
    "cn_name": "1-(2-氟苯基)环已烷羧酸;",
    "alternate_name": "Cyclohexanecarboxylic acid, 1-(2-fluorophenyl)-;1-(2-Fluorophenyl)cyclohexanecarboxylic acid;1-(2-Fluorophenyl)cyclohexane-1-carboxylic acid",
    "duplicated_cas_no": "",
    "SMILES": "C(O)(=O)C1(CCCCC1)C2=C(F)C=CC=C2",
    "meta_data": {
        "InChI": "InChI=1S/C13H15FO2/c14-11-7-3-2-6-10(11)13(12(15)16)8-4-1-5-9-13/h2-3,6-7H,1,4-5,8-9H2,(H,15,16)",
        "InChIKey": null,
        "Canonical SMILES": "O=C(O)C1(C=2C=CC=CC2F)CCCCC1",
        "Molecular Formula": "C<sub>13</sub>H<sub>15</sub>FO<sub>2</sub>",
        "Molecular Mass": "222.26",
        "Melting Point": "124-125 °C"
    }
}