{
    "cas_no": "37031-30-4",
    "key_name": "4,5-Dimethyl (4<em>S</em>,5<em>S</em>)-2,2-dimethyl-1,3-dioxolane-4,5-dicarboxylate",
    "cn_name": null,
    "alternate_name": "1,3-Dioxolane-4,5-dicarboxylic acid, 2,2-dimethyl-, 4,5-dimethyl ester, (4<em>S</em>,5<em>S</em>)-;1,3-Dioxolane-4,5-dicarboxylic acid, 2,2-dimethyl-, dimethyl ester, (4<em>S</em>-<em>trans</em>)-;1,3-Dioxolane-4,5-dicarboxylic acid, 2,2-dimethyl-, dimethyl ester, (4<em>S</em>,5<em>S</em>)-;4,5-Dimethyl (4<em>S</em>,5<em>S</em>)-2,2-dimethyl-1,3-dioxolane-4,5-dicarboxylate;Dimethyl 2,3-<em>O</em>-isopropylidene-<span class=\"text-smallcaps\">D</span>-tartrate;(+)-Dimethyl-2,3-<em>O</em>-isopropylidene-<span class=\"text-smallcaps\">D</span>-tartrate",
    "duplicated_cas_no": "827032-10-0",
    "SMILES": "C(OC)(=O)[C@@H]1[C@@H](C(OC)=O)OC(C)(C)O1",
    "meta_data": {
        "InChI": "InChI=1S/C9H14O6/c1-9(2)14-5(7(10)12-3)6(15-9)8(11)13-4/h5-6H,1-4H3/t5-,6-/m0/s1",
        "InChIKey": null,
        "Canonical SMILES": "O=C(OC)C1OC(OC1C(=O)OC)(C)C",
        "Molecular Formula": "C<sub>9</sub>H<sub>14</sub>O<sub>6</sub>",
        "Molecular Mass": "218.20",
        "Boiling Point": "120-122 °C @ Press: 8 Torr"
    }
}