{
    "cas_no": "142-22-3",
    "key_name": "Diallyl diglycol carbonate",
    "cn_name": "烯丙基二甘醇二碳酸酯;",
    "alternate_name": "2,5,8,10-Tetraoxatridec-12-enoic acid, 9-oxo-, 2-propen-1-yl ester;Carbonic acid, oxydiethylene diallyl ester;2,5,8,10-Tetraoxatridec-12-enoic acid, 9-oxo-, 2-propenyl ester;Carbonic acid, allyl ester, diester with diethylene glycol;Diethylene glycol diallyl dicarbonate;Carbonic acid, oxydi-2,1-ethanediyl di-2-propenyl ester;Diallyl diglycol carbonate;01M;Transallyl CR 39;TS 16;Diethylene glycol, bis(allyl carbonate);Nouryset 200;RAV 7N;Diallyl oxydiethylene dicarbonate;High ADC-CR 39;NSC 5246;RAV 7AT;Hoya HL;RAV 7;Brite 55;CR 39R;Allyl diglycol carbonate;2,5,8-Trioxanonanedioic acid di-2-propenyl ester;CR 39 monomer;RAV 7AX",
    "duplicated_cas_no": "37248-45-6;143318-68-7;129979-20-0",
    "SMILES": "O(C(OCC=C)=O)CCOCCOC(OCC=C)=O",
    "meta_data": {
        "InChI": "InChI=1S/C12H18O7/c1-3-5-16-11(13)18-9-7-15-8-10-19-12(14)17-6-4-2/h3-4H,1-2,5-10H2",
        "InChIKey": null,
        "Canonical SMILES": "O=C(OCC=C)OCCOCCOC(=O)OCC=C",
        "Molecular Formula": "C<sub>12</sub>H<sub>18</sub>O<sub>7</sub>",
        "Molecular Mass": "274.27",
        "Boiling Point": "160 °C @ Press: 4 Torr",
        "Melting Point": "-4 °C",
        "Density": "1.143 g/cm³ @ Temp: 20 °C"
    }
}