{
    "cas_no": "42885-14-3",
    "key_name": "5-Methyl-3-pyridinecarbonitrile",
    "cn_name": "2-氰基-5-甲基吡啶;3-氰基-5-甲基吡啶;",
    "alternate_name": "3-Pyridinecarbonitrile, 5-methyl-;Nicotinonitrile, 5-methyl-;5-Methyl-3-pyridinecarbonitrile;3-Cyano-5-methylpyridine;3-Methyl-5-cyanopyridine;5-Methylnicotinonitrile;5-Cyano-3-methylpyridine",
    "duplicated_cas_no": "",
    "SMILES": "C(#N)C=1C=C(C)C=NC1",
    "meta_data": {
        "InChI": "InChI=1S/C7H6N2/c1-6-2-7(3-8)5-9-4-6/h2,4-5H,1H3",
        "InChIKey": null,
        "Canonical SMILES": "N#CC1=CN=CC(=C1)C",
        "Molecular Formula": "C<sub>7</sub>H<sub>6</sub>N<sub>2</sub>",
        "Molecular Mass": "118.14",
        "Melting Point": "56-57 °C"
    }
}