{
    "cas_no": "7689-63-6",
    "key_name": "4-Chloro-1,5-naphthyridine",
    "cn_name": null,
    "alternate_name": "1,5-Naphthyridine, 4-chloro-;4-Chloro-1,5-naphthyridine",
    "duplicated_cas_no": "",
    "SMILES": "ClC=1C2=C(N=CC1)C=CC=N2",
    "meta_data": {
        "InChI": "InChI=1S/C8H5ClN2/c9-6-3-5-10-7-2-1-4-11-8(6)7/h1-5H",
        "InChIKey": null,
        "Canonical SMILES": "ClC=1C=CN=C2C=CC=NC12",
        "Molecular Formula": "C<sub>8</sub>H<sub>5</sub>ClN<sub>2</sub>",
        "Molecular Mass": "164.59",
        "Melting Point": "102-102.5 °C"
    }
}