{
    "cas_no": "1460-16-8",
    "key_name": "Cycloheptanecarboxylic acid",
    "cn_name": "环庚甲酸;",
    "alternate_name": "Cycloheptanecarboxylic acid;Cycloheptylcarboxylic acid;NSC 18964;Cycloheptanoic acid",
    "duplicated_cas_no": "",
    "SMILES": "C(O)(=O)C1CCCCCC1",
    "meta_data": {
        "InChI": "InChI=1S/C8H14O2/c9-8(10)7-5-3-1-2-4-6-7/h7H,1-6H2,(H,9,10)",
        "InChIKey": null,
        "Canonical SMILES": "O=C(O)C1CCCCCC1",
        "Molecular Formula": "C<sub>8</sub>H<sub>14</sub>O<sub>2</sub>",
        "Molecular Mass": "142.20",
        "Boiling Point": "259 °C",
        "Melting Point": "97.5-98.0 °C",
        "Density": "1.0423 g/cm³ @ Temp: 20 °C"
    }
}