{
    "cas_no": "540-08-9",
    "key_name": "9-Heptadecanone",
    "cn_name": "9-十七酮;二辛基酮;",
    "alternate_name": "9-Heptadecanone;Dioctyl ketone;Octyl ketone;Pelargone;Di-<em>n</em>-octyl ketone;9-Oxoheptadecane;NSC 7336",
    "duplicated_cas_no": "",
    "SMILES": "C(CCCCCCCC)(CCCCCCCC)=O",
    "meta_data": {
        "InChI": "InChI=1S/C17H34O/c1-3-5-7-9-11-13-15-17(18)16-14-12-10-8-6-4-2/h3-16H2,1-2H3",
        "InChIKey": null,
        "Canonical SMILES": "O=C(CCCCCCCC)CCCCCCCC",
        "Molecular Formula": "C<sub>17</sub>H<sub>34</sub>O",
        "Molecular Mass": "254.45",
        "Boiling Point": "251.5 °C",
        "Melting Point": "53 °C",
        "Density": "0.986 g/cm³ @ Temp: 20 °C"
    }
}