{
    "cas_no": "1798-85-2",
    "key_name": "1-Bromo-3-cyclopropylbenzene",
    "cn_name": "1-溴-3-环丙烷基苯;间溴苯基环丙烷;",
    "alternate_name": "Benzene, 1-bromo-3-cyclopropyl-;1-Bromo-3-cyclopropylbenzene;<em>m</em>-Bromocyclopropylbenzene;<em>m</em>-Bromophenylcyclopropane;3-Bromo-1-(cyclopropyl)benzene",
    "duplicated_cas_no": "",
    "SMILES": "BrC=1C=C(C=CC1)C2CC2",
    "meta_data": {
        "InChI": "InChI=1S/C9H9Br/c10-9-3-1-2-8(6-9)7-4-5-7/h1-3,6-7H,4-5H2",
        "InChIKey": null,
        "Canonical SMILES": "BrC1=CC=CC(=C1)C2CC2",
        "Molecular Formula": "C<sub>9</sub>H<sub>9</sub>Br",
        "Molecular Mass": "197.07",
        "Boiling Point": "98-100 °C @ Press: 14 Torr"
    }
}