{
    "cas_no": "403-39-4",
    "key_name": "4-Fluorocumene",
    "cn_name": null,
    "alternate_name": "Benzene, 1-fluoro-4-(1-methylethyl)-;Cumene, <em>p</em>-fluoro-;1-Fluoro-4-(1-methylethyl)benzene;<em>p</em>-Fluorocumene;4-Fluorocumene;<em>p</em>-Isopropylfluorobenzene;1-Fluoro-4-isopropylbenzene;4-Fluoro-1-isopropylbenzene;NSC 79875;1-Fluoro-4-propan-2-ylbenzene;1-Fluoro-4-(propan-2-yl)benzene",
    "duplicated_cas_no": "",
    "SMILES": "C(C)(C)C1=CC=C(F)C=C1",
    "meta_data": {
        "InChI": "InChI=1S/C9H11F/c1-7(2)8-3-5-9(10)6-4-8/h3-7H,1-2H3",
        "InChIKey": null,
        "Canonical SMILES": "FC1=CC=C(C=C1)C(C)C",
        "Molecular Formula": "C<sub>9</sub>H<sub>11</sub>F",
        "Molecular Mass": "138.18",
        "Boiling Point": "54.5-55.5 °C @ Press: 20 Torr",
        "Density": "0.9783 g/cm³ @ Temp: 20 °C"
    }
}