{
    "cas_no": "1405-86-3",
    "key_name": "Glycyrrhizic acid",
    "cn_name": "甘草酸;甘草甜素;",
    "alternate_name": "α-<span class=\"text-smallcaps\">D</smallcap>-Glucopyranosiduronic acid, (3β,20β)-20-carboxy-11-oxo-30-norolean-12-en-3-yl 2-<em>O</em>-β-<smallcap>D</span>-glucopyranuronosyl-;Glycyrrhizic acid;30-Noroleanane, α-<span class=\"text-smallcaps\">D</span>-glucopyranosiduronic acid deriv.;(3β,20β)-20-Carboxy-11-oxo-30-norolean-12-en-3-yl 2-<em>O</em>-β-<span class=\"text-smallcaps\">D</smallcap>-glucopyranuronosyl-α-<smallcap>D</span>-glucopyranosiduronic acid;Glycyrrhizin;Glycyrrhizinic acid;Glycyrrhetinic acid glycoside;Glycyron;β-Glycyrrhizin;18β-Glycyrrhizic acid;Potenlini;NSC 167409;NSC 234419;18β-Glycyrrhizinic acid;Gancaotiansu",
    "duplicated_cas_no": "139014-59-8;18933-02-3;31261-47-9;47897-48-3;47897-45-0;70055-50-4;79165-07-4;947339-02-8;1208112-19-9",
    "SMILES": "C[C@]12[C@@]([C@]3(C)[C@@](CC1)(C(C)(C)[C@@H](O[C@@H]4[C@H](O[C@@H]5O[C@H](C(O)=O)[C@@H](O)[C@H](O)[C@H]5O)[C@@H](O)[C@H](O)[C@@H](C(O)=O)O4)CC3)[H])(C(=O)C=C6[C@@]2(C)CC[C@]7(C)[C@]6(C[C@](C(O)=O)(C)CC7)[H])[H]",
    "meta_data": {
        "InChI": "InChI=1S/C42H62O16/c1-37(2)21-8-11-42(7)31(20(43)16-18-19-17-39(4,36(53)54)13-12-38(19,3)14-15-41(18,42)6)40(21,5)10-9-22(37)55-35-30(26(47)25(46)29(57-35)33(51)52)58-34-27(48)23(44)24(45)28(56-34)32(49)50/h16,19,21-31,34-35,44-48H,8-15,17H2,1-7H3,(H,49,50)(H,51,52)(H,53,54)/t19-,21-,22-,23-,24-,25-,26-,27+,28-,29-,30+,31+,34-,35-,38+,39-,40-,41+,42+/m0/s1",
        "InChIKey": null,
        "Canonical SMILES": "O=C(O)C1OC(OC2C(OC(C(=O)O)C(O)C2O)OC3CCC4(C)C5C(=O)C=C6C7CC(C(=O)O)(C)CCC7(C)CCC6(C)C5(C)CCC4C3(C)C)C(O)C(O)C1O",
        "Molecular Formula": "C<sub>42</sub>H<sub>62</sub>O<sub>16</sub>",
        "Molecular Mass": "822.93",
        "Melting Point": "220 °C (decomp)"
    }
}