{
    "cas_no": "875-59-2",
    "key_name": "4′-Hydroxy-2′-methylacetophenone",
    "cn_name": null,
    "alternate_name": "Ethanone, 1-(4-hydroxy-2-methylphenyl)-;Acetophenone, 4′-hydroxy-2′-methyl-;1-(4-Hydroxy-2-methylphenyl)ethanone;4′-Hydroxy-2′-methylacetophenone;2′-Methyl-4′-hydroxyacetophenone;4-Acetyl-3-methylphenol;NSC 63364;2-Methyl-4-hydroxyacetophenone",
    "duplicated_cas_no": "1207830-20-3",
    "SMILES": "C(C)(=O)C1=C(C)C=C(O)C=C1",
    "meta_data": {
        "InChI": "InChI=1S/C9H10O2/c1-6-5-8(11)3-4-9(6)7(2)10/h3-5,11H,1-2H3",
        "InChIKey": null,
        "Canonical SMILES": "O=C(C1=CC=C(O)C=C1C)C",
        "Molecular Formula": "C<sub>9</sub>H<sub>10</sub>O<sub>2</sub>",
        "Molecular Mass": "150.17",
        "Boiling Point": "313 °C",
        "Melting Point": "128 °C"
    }
}