{
    "cas_no": "822-06-0",
    "key_name": "Hexamethylene diisocyanate",
    "cn_name": "1,6-己二异氰酸酯;六甲撑二异氰酸酯;异氰酸六亚甲酯;六亚甲基二异氰酸酯;",
    "alternate_name": "Hexane, 1,6-diisocyanato-;Isocyanic acid, hexamethylene ester;1,6-Diisocyanatohexane;Hexamethylene diisocyanate;1,6-Hexamethylene diisocyanate;Hexane 1,6-diisocyanate;1,6-Hexylene diisocyanate;HDI;HMDI;NSC 11687;GMDI;1,6-Hexane diisocyanate;HXT;1,6-Diisocyanatohexamethylene;Coronate HDI;H 106273;CK 164",
    "duplicated_cas_no": "53192-27-1;57350-77-3;63525-90-6;66368-96-5;88357-62-4;133394-59-9;141504-21-4;243121-01-9;280144-19-6;824958-44-3;1196968-38-3;1199811-16-9;1447694-90-7;1674389-30-0;1714093-54-5;1799418-17-9",
    "SMILES": "C(CCCN=C=O)CCN=C=O",
    "meta_data": {
        "InChI": "InChI=1S/C8H12N2O2/c11-7-9-5-3-1-2-4-6-10-8-12/h1-6H2",
        "InChIKey": null,
        "Canonical SMILES": "O=C=NCCCCCCN=C=O",
        "Molecular Formula": "C<sub>8</sub>H<sub>12</sub>N<sub>2</sub>O<sub>2</sub>",
        "Molecular Mass": "168.19",
        "Boiling Point": "255 °C",
        "Melting Point": "-67 °C",
        "Density": "1.04 g/cm³ @ Temp: 25 °C"
    }
}