{
    "cas_no": "86392-75-8",
    "key_name": "7-Deaza-2′-deoxyguanosine",
    "cn_name": null,
    "alternate_name": "4<em>H</em>-Pyrrolo[2,3-<em>d</em>]pyrimidin-4-one, 2-amino-7-(2-deoxy-β-<span class=\"text-smallcaps\">D</span>-<em>erythro</em>-pentofuranosyl)-1,7-dihydro-;2-Amino-7-(2-deoxy-β-<span class=\"text-smallcaps\">D</span>-<em>erythro</em>-pentofuranosyl)-1,7-dihydro-4<em>H</em>-pyrrolo[2,3-<em>d</em>]pyrimidin-4-one;7-Deaza-2′-deoxyguanosine;98: PN: US20050130918 PAGE: 60 claimed sequence",
    "duplicated_cas_no": "",
    "SMILES": "O=C1C2=C(N(C=C2)[C@@H]3O[C@H](CO)[C@@H](O)C3)NC(N)=N1",
    "meta_data": {
        "InChI": "InChI=1S/C11H14N4O4/c12-11-13-9-5(10(18)14-11)1-2-15(9)8-3-6(17)7(4-16)19-8/h1-2,6-8,16-17H,3-4H2,(H3,12,13,14,18)/t6-,7+,8+/m0/s1",
        "InChIKey": null,
        "Canonical SMILES": "O=C1N=C(N)NC2=C1C=CN2C3OC(CO)C(O)C3",
        "Molecular Formula": "C<sub>11</sub>H<sub>14</sub>N<sub>4</sub>O<sub>4</sub>",
        "Molecular Mass": "266.25",
        "Melting Point": "262-265 °C"
    }
}