{
    "cas_no": "728-40-5",
    "key_name": "2,6-Di-<em>tert</em>-butyl-4-nitrophenol",
    "cn_name": null,
    "alternate_name": "Phenol, 2,6-bis(1,1-dimethylethyl)-4-nitro-;Phenol, 2,6-di-<em>tert</em>-butyl-4-nitro-;2,6-Bis(1,1-dimethylethyl)-4-nitrophenol;BAY 28589;2,6-Di-<em>tert</em>-butyl-4-nitrophenol;Bayer 28589;4-Nitro-2,6-di-<em>tert</em>-butylphenol;4-Nitro-2,6-bis-(1,1-dimethylethyl)phenol;NSC 81682;2,6-Ditert-butyl-4-nitrophenol",
    "duplicated_cas_no": "",
    "SMILES": "C(C)(C)(C)C1=C(O)C(C(C)(C)C)=CC(N(=O)=O)=C1",
    "meta_data": {
        "InChI": "InChI=1S/C14H21NO3/c1-13(2,3)10-7-9(15(17)18)8-11(12(10)16)14(4,5)6/h7-8,16H,1-6H3",
        "InChIKey": null,
        "Canonical SMILES": "O=N(=O)C=1C=C(C(O)=C(C1)C(C)(C)C)C(C)(C)C",
        "Molecular Formula": "C<sub>14</sub>H<sub>21</sub>NO<sub>3</sub>",
        "Molecular Mass": "251.32",
        "Melting Point": "157.5 °C (decomp)"
    }
}