{
    "cas_no": "8013-90-9",
    "key_name": "Ionone",
    "cn_name": null,
    "alternate_name": "Ionone;Irisone",
    "duplicated_cas_no": "",
    "SMILES": "",
    "meta_data": {
        "InChI": "",
        "InChIKey": null,
        "Canonical SMILES": "",
        "Molecular Formula": "C<sub>13</sub>H<sub>20</sub>O",
        "Molecular Mass": "",
        "Boiling Point": "1 °C @ Press: 747 Torr",
        "Density": "0.853 g/cm³ @ Temp: 20 °C"
    }
}