{
    "cas_no": "2881-83-6",
    "key_name": "Ethyl 3-(4-methoxyphenyl)-3-oxopropanoate",
    "cn_name": null,
    "alternate_name": "Benzenepropanoic acid, 4-methoxy-β-oxo-, ethyl ester;Acetic acid, <em>p</em>-anisoyl-, ethyl ester;Ethyl <em>p</em>-anisoylacetate;2-(<em>p</em>-Methoxybenzoyl)acetic acid ethyl ester;Ethyl (4-methoxybenzoyl)acetate;Ethyl (<em>p</em>-methoxybenzoyl)acetate;Ethyl 3-(4-methoxyphenyl)-3-oxopropanoate;NSC 69701;4-Methoxy-β-oxobenzenepropanoic acid ethyl ester;Ethyl 2-(4-methoxybenzoyl)acetate;Ethyl 3-(4-methoxyphenyl)-3-oxopropionate;3-(4-Methoxyphenyl)-3-oxo-propionic acid ethyl ester;(4-Methoxybenzoyl)acetic acid ethyl ester;3-(4-Methoxyphenyl)-3-oxopropanoic acid ethyl ester;3-Oxo-3-(4-methoxyphenyl)propanoic acid ethyl ester",
    "duplicated_cas_no": "",
    "SMILES": "C(CC(OCC)=O)(=O)C1=CC=C(OC)C=C1",
    "meta_data": {
        "InChI": "InChI=1S/C12H14O4/c1-3-16-12(14)8-11(13)9-4-6-10(15-2)7-5-9/h4-7H,3,8H2,1-2H3",
        "InChIKey": null,
        "Canonical SMILES": "O=C(OCC)CC(=O)C1=CC=C(OC)C=C1",
        "Molecular Formula": "C<sub>12</sub>H<sub>14</sub>O<sub>4</sub>",
        "Molecular Mass": "222.24",
        "Boiling Point": "180-190 °C @ Press: 10-12 Torr",
        "Density": "1.1753 g/cm³ @ Temp: 0 °C"
    }
}