{
    "cas_no": "40391-99-9",
    "key_name": "Pamidronic acid",
    "cn_name": "帕米膦酸;3-氨基-1-羟基丙亚基-1,1-二磷酸;",
    "alternate_name": "Phosphonic acid, <em>P</em>,<em>P</em>′-(3-amino-1-hydroxypropylidene)bis-;Phosphonic acid, (3-amino-1-hydroxypropylidene)bis-;<em>P</em>,<em>P</em>′-(3-Amino-1-hydroxypropylidene)bis[phosphonic acid];3-Amino-1-hydroxypropane-1,1-diphosphonic acid;Propane-1-hydroxy-3-amino-1,1-diphosphonic acid;(3-Amino-1-hydroxypropylidene)-1,1-bisphosphonate;Pamidronic acid;Amidronic acid;(α-Hydroxy-γ-aminopropylidene)diphosphonic acid;3-Amino-1-hydroxypropylidenediphosphonic acid;AHPrBP;ADP;3-Amino-1-hydroxypropylidene-1,1-bisphosphonic acid;(3-Amino-1-hydroxypropylidene)bisphosphonic acid;Panolin;BPH 5;1-Hydroxy-3-aminopropane-1,1-diphosphonic acid;(3-amino-1-hydroxypropane-1,1-diyl)bis(phosphonic acid);(3-Amino-1-hydroxy-1-phosphonopropyl)phosphonic acid",
    "duplicated_cas_no": "",
    "SMILES": "C(P(=O)(O)O)(P(=O)(O)O)(CCN)O",
    "meta_data": {
        "InChI": "InChI=1S/C3H11NO7P2/c4-2-1-3(5,12(6,7)8)13(9,10)11/h5H,1-2,4H2,(H2,6,7,8)(H2,9,10,11)",
        "InChIKey": null,
        "Canonical SMILES": "O=P(O)(O)C(O)(CCN)P(=O)(O)O",
        "Molecular Formula": "C<sub>3</sub>H<sub>11</sub>NO<sub>7</sub>P<sub>2</sub>",
        "Molecular Mass": "235.07",
        "Melting Point": "&lt;300 °C"
    }
}