{
    "cas_no": "154992-24-2",
    "key_name": "4-[3-(4-Hydroxybutyl)-4,4-dimethyl-2,5-dioxo-1-imidazolidinyl]-2-(trifluoromethyl)benzonitrile",
    "cn_name": null,
    "alternate_name": "Benzonitrile, 4-[3-(4-hydroxybutyl)-4,4-dimethyl-2,5-dioxo-1-imidazolidinyl]-2-(trifluoromethyl)-;4-[3-(4-Hydroxybutyl)-4,4-dimethyl-2,5-dioxo-1-imidazolidinyl]-2-(trifluoromethyl)benzonitrile;RU 58841;4-(4,4-Dimethyl-2,5-dioxo-3-(4-hydroxybutyl)1-imidazolidinyl)-2-(trifluoromethyl)benzonitrile;4-[3-(4-Hydroxybutyl)-4,4-dimethyl-2,5-dioxo-1-imidazolidinyl]-2-trifluoromethylbenzonitrile",
    "duplicated_cas_no": "",
    "SMILES": "O=C1N(C(=O)C(C)(C)N1CCCCO)C2=CC(C(F)(F)F)=C(C#N)C=C2",
    "meta_data": {
        "InChI": "InChI=1S/C17H18F3N3O3/c1-16(2)14(25)23(15(26)22(16)7-3-4-8-24)12-6-5-11(10-21)13(9-12)17(18,19)20/h5-6,9,24H,3-4,7-8H2,1-2H3",
        "InChIKey": null,
        "Canonical SMILES": "N#CC1=CC=C(C=C1C(F)(F)F)N2C(=O)N(CCCCO)C(C2=O)(C)C",
        "Molecular Formula": "C<sub>17</sub>H<sub>18</sub>F<sub>3</sub>N<sub>3</sub>O<sub>3</sub>",
        "Molecular Mass": "369.34",
        "Melting Point": "71-72 °C"
    }
}