{
    "cas_no": "20232-39-7",
    "key_name": "Isoquinoline, 3,4-dihydro-6,7-dimethoxy-, hydrochloride (1:1)",
    "cn_name": "6,7-二甲氧基-3,4-二氢异喹啉盐酸盐;",
    "alternate_name": "Isoquinoline, 3,4-dihydro-6,7-dimethoxy-, hydrochloride (1:1);Isoquinoline, 3,4-dihydro-6,7-dimethoxy-, hydrochloride;3,4-Dihydro-6,7-dimethoxyisoquinoline hydrochloride;6,7-Dimethoxy-3,4-dihydroisoquinoline hydrochloride",
    "duplicated_cas_no": "",
    "SMILES": "O(C)C=1C=C2C(=CC1OC)C=NCC2.Cl",
    "meta_data": {
        "InChI": "InChI=1S/C11H13NO2.ClH/c1-13-10-5-8-3-4-12-7-9(8)6-11(10)14-2;/h5-7H,3-4H2,1-2H3;1H",
        "InChIKey": null,
        "Canonical SMILES": "Cl.N1=CC=2C=C(OC)C(OC)=CC2CC1",
        "Molecular Formula": "C<sub>11</sub>H<sub>13</sub>NO<sub>2</sub>.ClH",
        "Molecular Mass": "",
        "Melting Point": "75-76 °C"
    }
}