{
    "cas_no": "368-88-7",
    "key_name": "4-Fluorobenzenesulfonic acid",
    "cn_name": null,
    "alternate_name": "Benzenesulfonic acid, 4-fluoro-;Benzenesulfonic acid, <em>p</em>-fluoro-;4-Fluorobenzenesulfonic acid;<em>p</em>-Fluorobenzenesulfonic acid;Benzene-1-fluoro-4-sulfonic acid;<em>p</em>-Fluorophenylsulfonic acid;NSC 43021",
    "duplicated_cas_no": "45935-34-0",
    "SMILES": "S(=O)(=O)(O)C1=CC=C(F)C=C1",
    "meta_data": {
        "InChI": "InChI=1S/C6H5FO3S/c7-5-1-3-6(4-2-5)11(8,9)10/h1-4H,(H,8,9,10)",
        "InChIKey": null,
        "Canonical SMILES": "O=S(=O)(O)C1=CC=C(F)C=C1",
        "Molecular Formula": "C<sub>6</sub>H<sub>5</sub>FO<sub>3</sub>S",
        "Molecular Mass": "176.17",
        "Melting Point": "87 °C"
    }
}