{
    "cas_no": "8001-31-8",
    "key_name": "Coconut oil",
    "cn_name": null,
    "alternate_name": "Coconut oil;Copra oil;Hydrol 110;Oils, coconut;Oils, copra;Oils, glyceridic, coconut;Oils, glyceridic, copra;Cocos nucifera oil;Fats and Glyceridic oils, coconut;Fats and Glyceridic oils, copra;Victory 76;Koline;Koline 76;Hardko;Palmin;Trifat C 24;Nikkol Trifat C 24;Lipovol C 76;Oleum cocois;Emafat CO 7;Coconut oils;Ultimate 92;Akovir CNO",
    "duplicated_cas_no": "8038-07-1;8038-08-2;84961-48-8;890903-75-0",
    "SMILES": "",
    "meta_data": {
        "InChI": "",
        "InChIKey": null,
        "Canonical SMILES": "",
        "Molecular Formula": "Unspecified",
        "Molecular Mass": "",
        "Melting Point": "21-25 °C",
        "Density": "0.903 g/cm³ @ Temp: 0 °C"
    }
}