{
    "uri": "substance/pt/8001318",
    "rn": "8001-31-8",
    "name": "Coconut oil",
    "images": [],
    "inchi": "",
    "inchiKey": "",
    "smile": "",
    "canonicalSmile": "",
    "molecularFormula": "Unspecified",
    "molecularMass": "",
    "experimentalProperties": [
        {
            "name": "Melting Point",
            "property": "21-25 °C",
            "sourceNumber": 1
        },
        {
            "name": "Density",
            "property": "0.903 g/cm³ @ Temp: 0 °C",
            "sourceNumber": 1
        }
    ],
    "propertyCitations": [
        {
            "docUri": "",
            "sourceNumber": 1,
            "source": "Hazardous Substances Data Bank data were obtained from the National Library of Medicine (US)"
        }
    ],
    "synonyms": [
        "Coconut oil",
        "Copra oil",
        "Hydrol 110",
        "Oils, coconut",
        "Oils, copra",
        "Oils, glyceridic, coconut",
        "Oils, glyceridic, copra",
        "Cocos nucifera oil",
        "Fats and Glyceridic oils, coconut",
        "Fats and Glyceridic oils, copra",
        "Victory 76",
        "Koline",
        "Koline 76",
        "Hardko",
        "Palmin",
        "Trifat C 24",
        "Nikkol Trifat C 24",
        "Lipovol C 76",
        "Oleum cocois",
        "Emafat CO 7",
        "Coconut oils",
        "Ultimate 92",
        "Akovir CNO"
    ],
    "replacedRns": [
        "8038-07-1",
        "8038-08-2",
        "84961-48-8",
        "890903-75-0"
    ],
    "hasMolfile": false,
    "source": "https://commonchemistry.cas.org/detail?cas_rn=8001-31-8"
}