{
    "cas_no": "1973-22-4",
    "key_name": "1-Bromo-2-ethylbenzene",
    "cn_name": "2-溴乙苯;邻溴乙苯;",
    "alternate_name": "Benzene, 1-bromo-2-ethyl-;1-Bromo-2-ethylbenzene;<em>o</em>-Bromoethylbenzene;2-Bromo-1-ethylbenzene;2-Ethylbromobenzene;<em>o</em>-Ethylbromobenzene;1-Ethyl-2-bromobenzene",
    "duplicated_cas_no": "",
    "SMILES": "C(C)C1=C(Br)C=CC=C1",
    "meta_data": {
        "InChI": "InChI=1S/C8H9Br/c1-2-7-5-3-4-6-8(7)9/h3-6H,2H2,1H3",
        "InChIKey": null,
        "Canonical SMILES": "BrC=1C=CC=CC1CC",
        "Molecular Formula": "C<sub>8</sub>H<sub>9</sub>Br",
        "Molecular Mass": "185.06",
        "Boiling Point": "199.3 °C",
        "Melting Point": "-67.9 °C"
    }
}