{
    "cas_no": "18171-14-7",
    "key_name": "(3-Chloropropyl)methoxydimethylsilane",
    "cn_name": null,
    "alternate_name": "Silane, (3-chloropropyl)methoxydimethyl-;(3-Chloropropyl)methoxydimethylsilane;(3-Chloropropyl)dimethylmethoxysilane",
    "duplicated_cas_no": "",
    "SMILES": "[Si](CCCCl)(OC)(C)C",
    "meta_data": {
        "InChI": "InChI=1S/C6H15ClOSi/c1-8-9(2,3)6-4-5-7/h4-6H2,1-3H3",
        "InChIKey": null,
        "Canonical SMILES": "ClCCC[Si](OC)(C)C",
        "Molecular Formula": "C<sub>6</sub>H<sub>15</sub>ClOSi",
        "Molecular Mass": "166.72",
        "Boiling Point": "170-171 °C",
        "Density": "0.941 g/cm³"
    }
}