{
    "cas_no": "6704-40-1",
    "key_name": "<em>N</em>-(2-Chlorophenyl)-3-hydroxy-2-naphthalenecarboxamide",
    "cn_name": "2-羟基-3-萘甲酸-2-氯苯胺;",
    "alternate_name": "2-Naphthalenecarboxamide, <em>N</em>-(2-chlorophenyl)-3-hydroxy-;2-Naphthanilide, 2′-chloro-3-hydroxy-;<em>N</em>-(2-Chlorophenyl)-3-hydroxy-2-naphthalenecarboxamide;2′-Chloro-3-hydroxy-2-naphthanilide;2-Hydroxy-3-naphthoic acid <em>o</em>-chloroanilide;3-Hydroxy-2-naphthoic acid <em>o</em>-chloroanilide",
    "duplicated_cas_no": "",
    "SMILES": "C(NC1=C(Cl)C=CC=C1)(=O)C2=CC3=C(C=C2O)C=CC=C3",
    "meta_data": {
        "InChI": "InChI=1S/C17H12ClNO2/c18-14-7-3-4-8-15(14)19-17(21)13-9-11-5-1-2-6-12(11)10-16(13)20/h1-10,20H,(H,19,21)",
        "InChIKey": null,
        "Canonical SMILES": "O=C(NC=1C=CC=CC1Cl)C2=CC=3C=CC=CC3C=C2O",
        "Molecular Formula": "C<sub>17</sub>H<sub>12</sub>ClNO<sub>2</sub>",
        "Molecular Mass": "297.74",
        "Melting Point": "214-216 °C"
    }
}