{
    "cas_no": "211244-81-4",
    "key_name": "2-(Methylthio)pyrido[2,3-<em>d</em>]pyrimidin-7(8<em>H</em>)-one",
    "cn_name": null,
    "alternate_name": "Pyrido[2,3-<em>d</em>]pyrimidin-7(8<em>H</em>)-one, 2-(methylthio)-;Pyrido[2,3-<em>d</em>]pyrimidin-7(1<em>H</em>)-one, 2-(methylthio)-;2-(Methylthio)pyrido[2,3-<em>d</em>]pyrimidin-7(8<em>H</em>)-one;2-Methanethio-8<em>H</em>-pyrido[2,3-<em>d</em>]pyrimidin-7-one;2-Methylsulfanyl-8<em>H</em>-pyrido[2,3-<em>d</em>]pyrimidin-7-one;2-(Methylsulfanyl)pyrido[2,3-<em>d</em>]pyrimidin-7(8<em>H</em>)-one",
    "duplicated_cas_no": "",
    "SMILES": "S(C)C=1NC=2C(=CN1)C=CC(=O)N2",
    "meta_data": {
        "InChI": "InChI=1S/C8H7N3OS/c1-13-8-9-4-5-2-3-6(12)10-7(5)11-8/h2-4H,1H3,(H,9,10,11,12)",
        "InChIKey": null,
        "Canonical SMILES": "O=C1N=C2NC(=NC=C2C=C1)SC",
        "Molecular Formula": "C<sub>8</sub>H<sub>7</sub>N<sub>3</sub>OS",
        "Molecular Mass": "193.23",
        "Melting Point": "269-271 °C"
    }
}