{
    "cas_no": "96-22-0",
    "key_name": "Ethyl ketone",
    "cn_name": "3-戊酮;二乙基甲酮;",
    "alternate_name": "3-Pentanone;DEK;Diethyl ketone;Dimethylacetone;Ethyl ketone;Metacetone;Methacetone;Propione;ZED 2EK;NSC 8653",
    "duplicated_cas_no": "",
    "SMILES": "C(CC)(CC)=O",
    "meta_data": {
        "InChI": "InChI=1S/C5H10O/c1-3-5(6)4-2/h3-4H2,1-2H3",
        "InChIKey": null,
        "Canonical SMILES": "O=C(CC)CC",
        "Molecular Formula": "C<sub>5</sub>H<sub>10</sub>O",
        "Molecular Mass": "86.13",
        "Boiling Point": "101.9 °C",
        "Melting Point": "-39 °C",
        "Density": "0.816 g/cm³ @ Temp: 19 °C"
    }
}