{
    "cas_no": "5096-57-1",
    "key_name": "Canadine",
    "cn_name": null,
    "alternate_name": "6<em>H</em>-Benzo[<em>g</em>]-1,3-benzodioxolo[5,6-<em>a</em>]quinolizine, 5,8,13,13a-tetrahydro-9,10-dimethoxy-, (13a<em>S</em>)-;13aα-Berbine, 9,10-dimethoxy-2,3-(methylenedioxy)-;6<em>H</em>-Benzo[<em>g</em>]-1,3-benzodioxolo[5,6-<em>a</em>]quinolizine, 5,8,13,13a-tetrahydro-9,10-dimethoxy-, (<em>S</em>)-;Canadine;(13a<em>S</em>)-5,8,13,13a-Tetrahydro-9,10-dimethoxy-6<em>H</em>-benzo[<em>g</em>]-1,3-benzodioxolo[5,6-<em>a</em>]quinolizine;α-Canadine;(-)-Tetrahydroberberine;(-)-Canadine;(-)-α-Canadine;(<em>S</em>)-(-)-7,8,13,13a-Tetrahydroberberine;(<em>S</em>)-Canadine;(<em>S</em>)-(-)-Tetrahydroberberine;<em>l</em>-Canadine;(<em>S</em>)-(-)-Canadine;9,10-Dimethoxy-2,3-(methylenedioxy)-13aα-berbine;(<em>S</em>)-Tetrahydroberberine;<em>O</em>-Methyl Nandinine;(<em>S</em>)-9,10-Dimethoxy-6,8,13,13a-tetrahydro-5<em>H</em>-[1,3]dioxolo[4,5-<em>g</em>]isoquinolino[3,2-<em>a</em>]isoquinoline",
    "duplicated_cas_no": "24314-65-6",
    "SMILES": "O(C)C1=C2CN3[C@](C=4C(=CC5=C(C4)OCO5)CC3)(CC2=CC=C1OC)[H]",
    "meta_data": {
        "InChI": "InChI=1S/C20H21NO4/c1-22-17-4-3-12-7-16-14-9-19-18(24-11-25-19)8-13(14)5-6-21(16)10-15(12)20(17)23-2/h3-4,8-9,16H,5-7,10-11H2,1-2H3/t16-/m0/s1",
        "InChIKey": null,
        "Canonical SMILES": "O(C1=CC=C2C(=C1OC)CN3CCC4=CC=5OCOC5C=C4C3C2)C",
        "Molecular Formula": "C<sub>20</sub>H<sub>21</sub>NO<sub>4</sub>",
        "Molecular Mass": "339.39",
        "Melting Point": "139 °C"
    }
}