{
    "cas_no": "50-47-5",
    "key_name": "Desipramine",
    "cn_name": null,
    "alternate_name": "5<em>H</em>-Dibenz[<em>b</em>,<em>f</em>]azepine-5-propanamine, 10,11-dihydro-<em>N</em>-methyl-;5<em>H</em>-Dibenz[<em>b</em>,<em>f</em>]azepine, 10,11-dihydro-5-[3-(methylamino)propyl]-;10,11-Dihydro-<em>N</em>-methyl-5<em>H</em>-dibenz[<em>b</em>,<em>f</em>]azepine-5-propanamine;Demethylimipramine;Desimipramine;Desipramin;Imipramine, demethyl-;Methylaminopropyliminodibenzyl;Monodemethylimipramine;Norimipramine;Desipramine;Desmethylimipramine;10,11-Dihydro-5-[3-(methylamino)propyl]-5-<em>H</em>-dibenz[<em>b</em>,<em>f</em>]azepine;<em>N</em>-Desmethylimipramine;DMI;DMI (pharmaceutical);[3-(10,11-Dihydro-dibenzo[<em>b</em>,<em>f</em>]azepin-5-yl)-propyl]-methyl-amine;MeSH ID: D003891",
    "duplicated_cas_no": "",
    "SMILES": "C(CCNC)N1C=2C(CCC=3C1=CC=CC3)=CC=CC2",
    "meta_data": {
        "InChI": "InChI=1S/C18H22N2/c1-19-13-6-14-20-17-9-4-2-7-15(17)11-12-16-8-3-5-10-18(16)20/h2-5,7-10,19H,6,11-14H2,1H3",
        "InChIKey": null,
        "Canonical SMILES": "C=1C=CC2=C(C1)N(C=3C=CC=CC3CC2)CCCNC",
        "Molecular Formula": "C<sub>18</sub>H<sub>22</sub>N<sub>2</sub>",
        "Molecular Mass": "266.38",
        "Boiling Point": "172-174 °C @ Press: 0.02 Torr",
        "Melting Point": "25.0 °C"
    }
}