{
    "cas_no": "692-45-5",
    "key_name": "Vinyl formate",
    "cn_name": null,
    "alternate_name": "Formic acid, ethenyl ester;Formic acid, vinyl ester;Vinyl formate;NSC 8403",
    "duplicated_cas_no": "",
    "SMILES": "O(C=C)C=O",
    "meta_data": {
        "InChI": "InChI=1S/C3H4O2/c1-2-5-3-4/h2-3H,1H2",
        "InChIKey": null,
        "Canonical SMILES": "O=COC=C",
        "Molecular Formula": "C<sub>3</sub>H<sub>4</sub>O<sub>2</sub>",
        "Molecular Mass": "72.06",
        "Boiling Point": "46.8-47.0 °C @ Press: 766 Torr",
        "Density": "0.963 g/cm³ @ Temp: 20 °C"
    }
}