{
    "cas_no": "7147-77-5",
    "key_name": "5-(4-Nitrophenyl)-2-furancarboxaldehyde",
    "cn_name": "5-对硝基苯基糠醛;",
    "alternate_name": "2-Furancarboxaldehyde, 5-(4-nitrophenyl)-;2-Furaldehyde, 5-(<em>p</em>-nitrophenyl)-;5-(4-Nitrophenyl)-2-furancarboxaldehyde;5-(<em>p</em>-Nitrophenyl)-2-furaldehyde;5-(4-Nitrophenyl)-2-furaldehyde;5-(4-Nitrophenyl)furfural;5-(4-Nitrophenyl)furfuraldehyde;5-(<em>p</em>-Nitrophenyl)-2-furancarboxaldehyde;5-(<em>p</em>-Nitrophenyl)furfural;NSC 31431",
    "duplicated_cas_no": "",
    "SMILES": "C(=O)C=1OC(=CC1)C2=CC=C(N(=O)=O)C=C2",
    "meta_data": {
        "InChI": "InChI=1S/C11H7NO4/c13-7-10-5-6-11(16-10)8-1-3-9(4-2-8)12(14)15/h1-7H",
        "InChIKey": null,
        "Canonical SMILES": "O=CC=1OC(=CC1)C=2C=CC(=CC2)N(=O)=O",
        "Molecular Formula": "C<sub>11</sub>H<sub>7</sub>NO<sub>4</sub>",
        "Molecular Mass": "217.18",
        "Melting Point": "205-208 °C"
    }
}