{
    "cas_no": "627-13-4",
    "key_name": "Propyl nitrate",
    "cn_name": "硝酸丙酯;硝酸丙酯；硝酸正丙酯;",
    "alternate_name": "Nitric acid, propyl ester;Propyl nitrate;<em>n</em>-Propyl nitrate",
    "duplicated_cas_no": "",
    "SMILES": "O(N(=O)=O)CCC",
    "meta_data": {
        "InChI": "InChI=1S/C3H7NO3/c1-2-3-7-4(5)6/h2-3H2,1H3",
        "InChIKey": null,
        "Canonical SMILES": "O=N(=O)OCCC",
        "Molecular Formula": "C<sub>3</sub>H<sub>7</sub>NO<sub>3</sub>",
        "Molecular Mass": "105.09",
        "Boiling Point": "110 °C",
        "Melting Point": "-100 °C",
        "Density": "1.0538 g/cm³ @ Temp: 20 °C"
    }
}