{
    "cas_no": "930-88-1",
    "key_name": "<em>N</em>-Methylmaleimide",
    "cn_name": "N-甲基马来酰亚胺;N-甲基顺丁烯二酰亚胺;1-甲基-1H-吡咯-2,5-二酮;",
    "alternate_name": "1<em>H</em>-Pyrrole-2,5-dione, 1-methyl-;Maleimide, <em>N</em>-methyl-;1-Methyl-1<em>H</em>-pyrrole-2,5-dione;<em>N</em>-Methylmaleimide;<em>N</em>-Methylmaleinimide;N-Methylmaleimide;NSC 57594;<em>N</em>-Methylpyrrole-2,5-dione;1-Methylpyrrole-2,5-dione;1-Methyl-2,5-dihydro-1<em>H</em>-pyrrole-2,5-dione;<em>N</em>-Methyl maleic imide",
    "duplicated_cas_no": "",
    "SMILES": "CN1C(=O)C=CC1=O",
    "meta_data": {
        "InChI": "InChI=1S/C5H5NO2/c1-6-4(7)2-3-5(6)8/h2-3H,1H3",
        "InChIKey": null,
        "Canonical SMILES": "O=C1C=CC(=O)N1C",
        "Molecular Formula": "C<sub>5</sub>H<sub>5</sub>NO<sub>2</sub>",
        "Molecular Mass": "111.10",
        "Boiling Point": "128 °C @ Press: 35 Torr",
        "Melting Point": "67 °C"
    }
}