{
    "cas_no": "3117-03-1",
    "key_name": "2,5-Dimethoxy-2,5-cyclohexadiene-1,4-dione",
    "cn_name": "2,5-二甲氧基-1,4-苯醌;",
    "alternate_name": "2,5-Cyclohexadiene-1,4-dione, 2,5-dimethoxy-;<em>p</em>-Benzoquinone, 2,5-dimethoxy-;Quinone, 2,5-dimethoxy-;2,5-Dimethoxy-2,5-cyclohexadiene-1,4-dione;2,5-Dimethoxy-<em>p</em>-benzoquinone;2,5-Dimethoxybenzoquinone;2,5-Dimethoxy-1,4-benzoquinone;NSC 509720",
    "duplicated_cas_no": "",
    "SMILES": "O(C)C=1C(=O)C=C(OC)C(=O)C1",
    "meta_data": {
        "InChI": "InChI=1S/C8H8O4/c1-11-7-3-6(10)8(12-2)4-5(7)9/h3-4H,1-2H3",
        "InChIKey": null,
        "Canonical SMILES": "O=C1C=C(OC)C(=O)C=C1OC",
        "Molecular Formula": "C<sub>8</sub>H<sub>8</sub>O<sub>4</sub>",
        "Molecular Mass": "168.15",
        "Melting Point": "&gt;200 °C (decomp)"
    }
}