{
    "cas_no": "115-46-8",
    "key_name": "Azacyclonol",
    "cn_name": "alpha,alpha-二苯基-4-哌啶甲醇;",
    "alternate_name": "4-Piperidinemethanol, α,α-diphenyl-;α,α-Diphenyl-4-piperidinemethanol;MER 17;α-(4-Piperidyl)benzhydrol;γ-Pipradol;Azacyclonol;4-(Diphenylhydroxymethyl)piperidine;4-(Hydroxydiphenylmethyl)piperidine;MDL 4829;Ataractan;Calmeran;Diphenyl-4-piperidylmethanol;Frenoton;Psychosan;Diphenyl(piperidin-4-yl)methanol",
    "duplicated_cas_no": "595598-07-5",
    "SMILES": "C(O)(C1=CC=CC=C1)(C2=CC=CC=C2)C3CCNCC3",
    "meta_data": {
        "InChI": "InChI=1S/C18H21NO/c20-18(15-7-3-1-4-8-15,16-9-5-2-6-10-16)17-11-13-19-14-12-17/h1-10,17,19-20H,11-14H2",
        "InChIKey": null,
        "Canonical SMILES": "OC(C=1C=CC=CC1)(C=2C=CC=CC2)C3CCNCC3",
        "Molecular Formula": "C<sub>18</sub>H<sub>21</sub>NO",
        "Molecular Mass": "267.37",
        "Melting Point": "160.5 °C"
    }
}