{
    "cas_no": "78628-28-1",
    "key_name": "Roxatidine acetate",
    "cn_name": "醋酸罗沙替丁;2-乙酰氧基-N-[3-[3-(1-哌啶基甲基苯)氧基]丙基]乙酰胺;",
    "alternate_name": "Acetamide, 2-(acetyloxy)-<em>N</em>-[3-[3-(1-piperidinylmethyl)phenoxy]propyl]-;2-(Acetyloxy)-<em>N</em>-[3-[3-(1-piperidinylmethyl)phenoxy]propyl]acetamide;Roxatidine acetate;Pifatidine;Aceroxatidine;2-Oxo-2-((3-(3-(piperidin-1-ylmethyl)phenoxy)propyl)amino)ethyl acetate",
    "duplicated_cas_no": "",
    "SMILES": "C(C1=CC(OCCCNC(COC(C)=O)=O)=CC=C1)N2CCCCC2",
    "meta_data": {
        "InChI": "InChI=1S/C19H28N2O4/c1-16(22)25-15-19(23)20-9-6-12-24-18-8-5-7-17(13-18)14-21-10-3-2-4-11-21/h5,7-8,13H,2-4,6,9-12,14-15H2,1H3,(H,20,23)",
        "InChIKey": null,
        "Canonical SMILES": "O=C(OCC(=O)NCCCOC1=CC=CC(=C1)CN2CCCCC2)C",
        "Molecular Formula": "C<sub>19</sub>H<sub>28</sub>N<sub>2</sub>O<sub>4</sub>",
        "Molecular Mass": "348.44",
        "Melting Point": "59-60 °C"
    }
}