{
    "cas_no": "880-78-4",
    "key_name": "Pentafluoronitrobenzene",
    "cn_name": "五氟硝基苯;",
    "alternate_name": "Benzene, 1,2,3,4,5-pentafluoro-6-nitro-;Benzene, pentafluoronitro-;1,2,3,4,5-Pentafluoro-6-nitrobenzene;Pentafluoronitrobenzene;Nitropentafluorobenzene;Perfluoronitrobenzene;2,3,4,5,6-Pentafluoronitrobenzene",
    "duplicated_cas_no": "",
    "SMILES": "N(=O)(=O)C1=C(F)C(F)=C(F)C(F)=C1F",
    "meta_data": {
        "InChI": "InChI=1S/C6F5NO2/c7-1-2(8)4(10)6(12(13)14)5(11)3(1)9",
        "InChIKey": null,
        "Canonical SMILES": "O=N(=O)C=1C(F)=C(F)C(F)=C(F)C1F",
        "Molecular Formula": "C<sub>6</sub>F<sub>5</sub>NO<sub>2</sub>",
        "Molecular Mass": "213.06",
        "Boiling Point": "159.5 °C"
    }
}