{
    "cas_no": "2612-29-5",
    "key_name": "2-Ethyl-1,3-propanediol",
    "cn_name": null,
    "alternate_name": "1,3-Propanediol, 2-ethyl-;2-Ethyl-1,3-propanediol;1,1-Dimethylolpropane;2-Ethylpropan-1,3-diol;2-Bis(hydroxymethyl)-1-butanol",
    "duplicated_cas_no": "",
    "SMILES": "C(CC)(CO)CO",
    "meta_data": {
        "InChI": "InChI=1S/C5H12O2/c1-2-5(3-6)4-7/h5-7H,2-4H2,1H3",
        "InChIKey": null,
        "Canonical SMILES": "OCC(CO)CC",
        "Molecular Formula": "C<sub>5</sub>H<sub>12</sub>O<sub>2</sub>",
        "Molecular Mass": "104.15",
        "Boiling Point": "86-87 °C @ Press: 0.5 Torr"
    }
}