{
    "cas_no": "64657-18-7",
    "key_name": "(-)-1,9-Dideoxyforskolin",
    "cn_name": "福斯高林1,9-二脱氧;",
    "alternate_name": "1<em>H</em>-Naphtho[2,1-<em>b</em>]pyran-1-one, 5-(acetyloxy)-3-ethenyldodecahydro-6-hydroxy-3,4a,7,7,10a-pentamethyl-, (3<em>R</em>,4a<em>S</em>,5<em>S</em>,6<em>S</em>,6a<em>S</em>,10a<em>S</em>,10b<em>R</em>)-;1<em>H</em>-Naphtho[2,1-<em>b</em>]pyran-1-one, 5-(acetyloxy)-3-ethenyldodecahydro-6-hydroxy-3,4a,7,7,10a-pentamethyl-, [3<em>R</em>-(3α,4aβ,5β,6β,6aα,10aβ,10bα)]-;(3<em>R</em>,4a<em>S</em>,5<em>S</em>,6<em>S</em>,6a<em>S</em>,10a<em>S</em>,10b<em>R</em>)-5-(Acetyloxy)-3-ethenyldodecahydro-6-hydroxy-3,4a,7,7,10a-pentamethyl-1<em>H</em>-naphtho[2,1-<em>b</em>]pyran-1-one;1,9-Dideoxyforskolin;(-)-1,9-Dideoxyforskolin",
    "duplicated_cas_no": "",
    "SMILES": "C[C@]12[C@@]([C@]3(C)[C@@]([C@H](O)[C@@H]1OC(C)=O)(C(C)(C)CCC3)[H])(C(=O)C[C@@](C=C)(C)O2)[H]",
    "meta_data": {
        "InChI": "InChI=1S/C22H34O5/c1-8-20(5)12-14(24)16-21(6)11-9-10-19(3,4)17(21)15(25)18(26-13(2)23)22(16,7)27-20/h8,15-18,25H,1,9-12H2,2-7H3/t15-,16+,17-,18-,20-,21+,22-/m0/s1",
        "InChIKey": null,
        "Canonical SMILES": "O=C(OC1C(O)C2C(C)(C)CCCC2(C)C3C(=O)CC(OC13C)(C=C)C)C",
        "Molecular Formula": "C<sub>22</sub>H<sub>34</sub>O<sub>5</sub>",
        "Molecular Mass": "",
        "Melting Point": "158 °C"
    }
}