{
    "cas_no": "18389-46-3",
    "key_name": "β-Amino-2-thiophenepropanoic acid",
    "cn_name": null,
    "alternate_name": "2-Thiophenepropanoic acid, β-amino-;2-Thiophenepropionic acid, β-amino-, <span class=\"text-smallcaps\">DL</span>-;2-Thiophenepropanoic acid, β-amino-, (±)-;β-Amino-2-thiophenepropanoic acid;β-(2-Thienyl)-<span class=\"text-smallcaps\">DL</span>-β-alanine;2-Thiophenepropionic acid, β-amino-;NSC 67429;(<em>RS</em>)-3-Amino-3-(2-thienyl)propanoic acid;3-Amino-3-(2-thienyl)propionic Acid;3-Amino-3-thien-2-ylpropanoic acid;3-Amino-3-(thiophen-2-yl)propanoicacid;3-Amino-3-(thiophen-2-yl)propanoic acid;3-Amino-3-thiophen-2-ylpropanoic acid",
    "duplicated_cas_no": "3270-89-1",
    "SMILES": "C(CC(O)=O)(N)C1=CC=CS1",
    "meta_data": {
        "InChI": "InChI=1S/C7H9NO2S/c8-5(4-7(9)10)6-2-1-3-11-6/h1-3,5H,4,8H2,(H,9,10)",
        "InChIKey": null,
        "Canonical SMILES": "O=C(O)CC(N)C=1SC=CC1",
        "Molecular Formula": "C<sub>7</sub>H<sub>9</sub>NO<sub>2</sub>S",
        "Molecular Mass": "171.22",
        "Melting Point": "201-203 °C"
    }
}