{
    "cas_no": "351003-58-2",
    "key_name": "3-Chloro-2-fluorobenzenesulfonamide",
    "cn_name": null,
    "alternate_name": "Benzenesulfonamide, 3-chloro-2-fluoro-;3-Chloro-2-fluorobenzenesulfonamide;3-Chloro-2-fluorobenzene-1-sulfonamide",
    "duplicated_cas_no": "",
    "SMILES": "S(N)(=O)(=O)C1=C(F)C(Cl)=CC=C1",
    "meta_data": {
        "InChI": "InChI=1S/C6H5ClFNO2S/c7-4-2-1-3-5(6(4)8)12(9,10)11/h1-3H,(H2,9,10,11)",
        "InChIKey": null,
        "Canonical SMILES": "O=S(=O)(N)C=1C=CC=C(Cl)C1F",
        "Molecular Formula": "C<sub>6</sub>H<sub>5</sub>ClFNO<sub>2</sub>S",
        "Molecular Mass": "209.63",
        "Melting Point": "149-153 °C"
    }
}