{
    "cas_no": "910-31-6",
    "key_name": "Cholesteryl chloride",
    "cn_name": "氯化胆固醇;胆固醇氯化物;",
    "alternate_name": "Cholest-5-ene, 3-chloro-, (3β)-;Cholest-5-ene, 3β-chloro-;(3β)-3-Chlorocholest-5-ene;3-Chlorocholestene;Cholesteryl chloride;3β-Chlorocholest-5-ene;3β-Cholesteryl chloride;Cholesterol chloride;NSC 2084",
    "duplicated_cas_no": "",
    "SMILES": "C[C@@]12[C@]([C@]3([C@@]([C@]4(C)C(=CC3)C[C@@H](Cl)CC4)(CC1)[H])[H])(CC[C@@]2([C@@H](CCCC(C)C)C)[H])[H]",
    "meta_data": {
        "InChI": "InChI=1S/C27H45Cl/c1-18(2)7-6-8-19(3)23-11-12-24-22-10-9-20-17-21(28)13-15-26(20,4)25(22)14-16-27(23,24)5/h9,18-19,21-25H,6-8,10-17H2,1-5H3/t19-,21+,22+,23-,24+,25+,26+,27-/m1/s1",
        "InChIKey": null,
        "Canonical SMILES": "ClC1CC2=CCC3C(CCC4(C)C(CCC34)C(C)CCCC(C)C)C2(C)CC1",
        "Molecular Formula": "C<sub>27</sub>H<sub>45</sub>Cl",
        "Molecular Mass": "405.10",
        "Melting Point": "103.4-104.5 °C",
        "Density": "1.040 g/cm³"
    }
}