{
    "cas_no": "80336-66-9",
    "key_name": "2-Chloro-1-[4-(2-methylpropyl)phenyl]-1-propanone",
    "cn_name": null,
    "alternate_name": "1-Propanone, 2-chloro-1-[4-(2-methylpropyl)phenyl]-;2-Chloro-1-[4-(2-methylpropyl)phenyl]-1-propanone;1-Chloroethyl 4-isobutylphenyl ketone;α-Chloro-<em>p</em>-isobutylpropiophenone;2-Chloro-<em>p</em>-isobutylpropiophenone;2-Chloro-1-(4-isobutylphenyl)propan-1-one",
    "duplicated_cas_no": "154428-71-4",
    "SMILES": "C(C(C)Cl)(=O)C1=CC=C(CC(C)C)C=C1",
    "meta_data": {
        "InChI": "InChI=1S/C13H17ClO/c1-9(2)8-11-4-6-12(7-5-11)13(15)10(3)14/h4-7,9-10H,8H2,1-3H3",
        "InChIKey": null,
        "Canonical SMILES": "O=C(C1=CC=C(C=C1)CC(C)C)C(Cl)C",
        "Molecular Formula": "C<sub>13</sub>H<sub>17</sub>ClO",
        "Molecular Mass": "224.73",
        "Boiling Point": "100-105 °C @ Press: 2 Torr",
        "Melting Point": "53.5-54.5 °C"
    }
}