{
    "cas_no": "19721-22-3",
    "key_name": "3-Mercapto-1-propanol",
    "cn_name": "3-巯基-1-丙醇;3-巯基丙醇;",
    "alternate_name": "1-Propanol, 3-mercapto-;3-Mercapto-1-propanol;1-Mercapto-3-propanol;3-Hydroxypropyl mercaptan;3-Mercaptopropanol;3-Hydroxypropanethiol;NSC 46437;3-Sulfanylpropanol;3-Sulfanylpropan-1-ol",
    "duplicated_cas_no": "",
    "SMILES": "C(CO)CS",
    "meta_data": {
        "InChI": "InChI=1S/C3H8OS/c4-2-1-3-5/h4-5H,1-3H2",
        "InChIKey": null,
        "Canonical SMILES": "OCCCS",
        "Molecular Formula": "C<sub>3</sub>H<sub>8</sub>OS",
        "Molecular Mass": "92.16",
        "Boiling Point": "85-90 °C @ Press: 15 Torr"
    }
}