{
    "cas_no": "1638-63-7",
    "key_name": "<em>O</em>-Acetylmandeloyl chloride",
    "cn_name": "乙酰扁桃酰氯;1-(氯甲酰)苄基乙酸酯;",
    "alternate_name": "Benzeneacetyl chloride, α-(acetyloxy)-;Mandeloyl chloride, acetate;α-(Acetyloxy)benzeneacetyl chloride;Acetoxyphenylacetyl chloride;<em>O</em>-Acetylmandeloyl chloride;2-Acetoxy-2-phenylacetyl chloride;<em>O</em>-Acetylmandelyl chloride;α-Acetoxyphenylacetyl chloride;<em>O</em>-Acetylmandelic acid chloride;<span class=\"text-smallcaps\">DL</span>-<em>O</em>-Acetylmandeloyl chloride;NSC 28337;2-Chloro-2-oxo-1-phenylethyl acetate",
    "duplicated_cas_no": "49845-72-9;69395-42-2",
    "SMILES": "C(OC(C)=O)(C(Cl)=O)C1=CC=CC=C1",
    "meta_data": {
        "InChI": "InChI=1S/C10H9ClO3/c1-7(12)14-9(10(11)13)8-5-3-2-4-6-8/h2-6,9H,1H3",
        "InChIKey": null,
        "Canonical SMILES": "O=C(Cl)C(OC(=O)C)C=1C=CC=CC1",
        "Molecular Formula": "C<sub>10</sub>H<sub>9</sub>ClO<sub>3</sub>",
        "Molecular Mass": "212.63",
        "Boiling Point": "134-136 °C @ Press: 15 Torr",
        "Melting Point": "36 °C"
    }
}