{
    "cas_no": "17282-41-6",
    "key_name": "Pyridinium, 1-(2-oxopropyl)-, bromide (1:1)",
    "cn_name": "N-乙酰溴化吡啶;N-丙酮基吡啶溴化物;",
    "alternate_name": "Pyridinium, 1-(2-oxopropyl)-, bromide (1:1);Pyridinium, 1-acetonyl-, bromide;Pyridinium, 1-(2-oxopropyl)-, bromide;Acetonylpyridinium bromide;1-Acetonylpyridinium bromide;<em>N</em>-Acetonylpyridinium bromide",
    "duplicated_cas_no": "",
    "SMILES": "C(C(C)=O)[N+]=1C=CC=CC1.[Br-]",
    "meta_data": {
        "InChI": "InChI=1S/C8H10NO.BrH/c1-8(10)7-9-5-3-2-4-6-9;/h2-6H,7H2,1H3;1H/q+1;/p-1",
        "InChIKey": null,
        "Canonical SMILES": "[Br-].O=C(C)C[N+]=1C=CC=CC1",
        "Molecular Formula": "C<sub>8</sub>H<sub>10</sub>NO.Br",
        "Molecular Mass": "",
        "Melting Point": "201 °C (decomp)"
    }
}