{
    "cas_no": "2254-94-6",
    "key_name": "3-Methyl-2(3<em>H</em>)-benzothiazolethione",
    "cn_name": "3-甲基苯并噻唑-2-硫酮;3-甲基-2(3H)-苯并噻唑硫酮;",
    "alternate_name": "2(3<em>H</em>)-Benzothiazolethione, 3-methyl-;2-Benzothiazolinethione, 3-methyl-;3-Methyl-2(3<em>H</em>)-benzothiazolethione;3-Methylbenzothiazoline-2-thione;<em>N</em>-Methylbenzothiazoline-2-thione;3-Methyl-1,3-benzothiazoline-2-thione;3-Methylbenzothiazole-2-thione;3-Methylbenzo[<em>d</em>]thiazoline-2-thione;NSC 66551;2,3-Dihydro-3-methyl-2-benzothiazolethione;<em>N</em>-Methylbenzothiazole-2-thione;3-Methyl-2,3-dihydro-1,3-benzothiazole-2-thione;3-Methylbenzo[<em>d</em>]thiazole-2(3<em>H</em>)-thione;3-Methyl-1,3-benzothiazole-2-thione;3-Methyl-3<em>H</em>-benzothiazole-2-thione",
    "duplicated_cas_no": "112990-20-2",
    "SMILES": "CN1C=2C(SC1=S)=CC=CC2",
    "meta_data": {
        "InChI": "InChI=1S/C8H7NS2/c1-9-6-4-2-3-5-7(6)11-8(9)10/h2-5H,1H3",
        "InChIKey": null,
        "Canonical SMILES": "S=C1SC=2C=CC=CC2N1C",
        "Molecular Formula": "C<sub>8</sub>H<sub>7</sub>NS<sub>2</sub>",
        "Molecular Mass": "181.28",
        "Boiling Point": "335 °C",
        "Melting Point": "90 °C"
    }
}