{
    "cas_no": "3651-23-8",
    "key_name": "Dichlorodi-2-propen-1-ylsilane",
    "cn_name": null,
    "alternate_name": "Silane, dichlorodi-2-propen-1-yl-;Silane, diallyldichloro-;Silane, dichlorodi-2-propenyl-;Dichlorodi-2-propen-1-ylsilane;Diallyldichlorosilane",
    "duplicated_cas_no": "",
    "SMILES": "[Si](CC=C)(CC=C)(Cl)Cl",
    "meta_data": {
        "InChI": "InChI=1S/C6H10Cl2Si/c1-3-5-9(7,8)6-4-2/h3-4H,1-2,5-6H2",
        "InChIKey": null,
        "Canonical SMILES": "Cl[Si](Cl)(CC=C)CC=C",
        "Molecular Formula": "C<sub>6</sub>H<sub>10</sub>Cl<sub>2</sub>Si",
        "Molecular Mass": "181.14",
        "Boiling Point": "82-84 °C @ Press: 50 Torr",
        "Density": "1.0565 g/cm³ @ Temp: 20 °C"
    }
}