{
    "cas_no": "59937-28-9",
    "key_name": "Malotilate",
    "cn_name": "马洛替酯;1,3-二噻环戊烯-2-亚基丙二酸二异丙酯;",
    "alternate_name": "Propanedioic acid, 2-(1,3-dithiol-2-ylidene)-, 1,3-bis(1-methylethyl) ester;Propanedioic acid, 1,3-dithiol-2-ylidene-, bis(1-methylethyl) ester;1,3-Dithiole, propanedioic acid deriv.;Diisopropyl 1,3-dithiol-2-ylidenemalonate;NKK 105;Malotilate;Hepation;Kantec",
    "duplicated_cas_no": "",
    "SMILES": "C(C(OC(C)C)=O)(C(OC(C)C)=O)=C1SC=CS1",
    "meta_data": {
        "InChI": "InChI=1S/C12H16O4S2/c1-7(2)15-10(13)9(11(14)16-8(3)4)12-17-5-6-18-12/h5-8H,1-4H3",
        "InChIKey": null,
        "Canonical SMILES": "O=C(OC(C)C)C(C(=O)OC(C)C)=C1SC=CS1",
        "Molecular Formula": "C<sub>12</sub>H<sub>16</sub>O<sub>4</sub>S<sub>2</sub>",
        "Molecular Mass": "288.38",
        "Melting Point": "60.5 °C",
        "Density": "1.320 g/cm³"
    }
}