{
    "cas_no": "1035235-27-8",
    "key_name": "1,1-Dimethylethyl 4-bromo-1,3-dihydro-2<em>H</em>-isoindole-2-carboxylate",
    "cn_name": null,
    "alternate_name": "2<em>H</em>-Isoindole-2-carboxylic acid, 4-bromo-1,3-dihydro-, 1,1-dimethylethyl ester;1,1-Dimethylethyl 4-bromo-1,3-dihydro-2<em>H</em>-isoindole-2-carboxylate;<em>tert</em>-Butyl 4-bromo-1,3-dihydro-2<em>H</em>-isoindole-2-carboxylate;<em>tert</em>-Butyl 4-bromoisoindoline-2-carboxylate;4-Bromoisoindoline-2-carboxylic acid tert-butyl ester",
    "duplicated_cas_no": "",
    "SMILES": "BrC1=C2C(CN(C(OC(C)(C)C)=O)C2)=CC=C1",
    "meta_data": {
        "InChI": "InChI=1S/C13H16BrNO2/c1-13(2,3)17-12(16)15-7-9-5-4-6-11(14)10(9)8-15/h4-6H,7-8H2,1-3H3",
        "InChIKey": null,
        "Canonical SMILES": "O=C(OC(C)(C)C)N1CC=2C=CC=C(Br)C2C1",
        "Molecular Formula": "C<sub>13</sub>H<sub>16</sub>BrNO<sub>2</sub>",
        "Molecular Mass": "298.18",
        "Melting Point": "92.5-93 °C"
    }
}