{
    "cas_no": "26590-20-5",
    "key_name": "Methyltetrahydrophthalic anhydride",
    "cn_name": null,
    "alternate_name": "1,3-Isobenzofurandione, 3a,4,7,7a-tetrahydromethyl-;4-Cyclohexene-1,2-dicarboxylic anhydride, methyl-;3a,4,7,7a-Tetrahydromethyl-1,3-isobenzofurandione;Methyltetrahydrophthalic anhydride;Methyl-1,2,3,6-tetrahydrophthalic anhydride;Tetrahydromethylphthalic anhydride;Vandride 4;Methyl-Δ<sup>4</sup>-tetrahydrophthalic anhydride;B 570;Araldite Hardener HY 917;Isomethyltetrahydrophthalic anhydride;Epiclon B 570;Quinhard 200;HN 2200R;DX 126;QH 100 (crosslinking agent);QH 100;Zu Yu D 0016;Rikacid MH 700A;AC-Methyl;Araldite MY 917;Araldite HY 917;Rikacid MT 500;Lindride 12;ECA 100;Epichor B 570;HK 021;Pentahard 5000;MT 500;Araldite HY 918;Araldite HY 905;HY 905;Epicure YH 300;Epicure DX 126;JHY 906;JHY 904;JHY 904A;JHY 908;JHY 910;QH 200;HN 2000;Adeka EH 700;Adeka Hardener EH 700;Lindride 6;LHY 906;KRM 291-5;AH 2 (hardener);AH 2;AC 220J;AC 220E;YH 300;JHB 590;Aradur HY 917;NH 2200;NH 2200 (crosslinking agent);Epikure YH 300;Adeka EH 3327;Adeka Hardener EH 3326;Adeka EH 3326;HY 918;SHB 590;Aradur HY 918;LHY 908;LHY 807;H 316;Lindride 46QC;ECA 100NC;JER-YH 300;SHY 9603;JC 02B;HM 2000;Aradur 917;MTHPA;HY 2918;Aradur HY 2918;AMT 120;HY 917;Lindride 6K;Epikure 3601;HJ 2200M;Lindride 36K;Voraforce TW 152;SMS 01;Hardener XN 1045;XN 1045;XNH 5002G;Aradur HY 918-1;KBH 1089;HKR 0719;WNY 1008;Epikure MGS-RIMH 145;MGS-RIMH 145;GH 9303;Epikure RIMH 145;EDK-C 05;Aradur HY 917CH;F 0705;JHB 591A;Aradur HY 905;S 213B",
    "duplicated_cas_no": "39363-65-0;39475-52-0;78214-29-6;79217-82-6;83712-43-0;106043-39-4;107845-04-5;111366-44-0;118772-35-3;126968-21-6;162355-24-0;162774-69-8;179607-42-2;243130-22-5;851379-03-8;886841-11-8;923924-50-9;1291057-60-7;1383442-73-6;2003180-25-2;2098834-71-8",
    "SMILES": "",
    "meta_data": {
        "InChI": "",
        "InChIKey": null,
        "Canonical SMILES": "",
        "Molecular Formula": "C<sub>9</sub>H<sub>10</sub>O<sub>3</sub>",
        "Molecular Mass": "",
        "Melting Point": "63-64 °C",
        "Density": "1.162 g/cm³"
    }
}