{
    "cas_no": "79-51-6",
    "key_name": "1,1,3,3-Tetrachloro-1,3-difluoro-2-propanone",
    "cn_name": null,
    "alternate_name": "2-Propanone, 1,1,3,3-tetrachloro-1,3-difluoro-;1,1,3,3-Tetrachloro-1,3-difluoro-2-propanone;Difluorotetrachloroacetone;Tetrachlorodifluoroacetone;NSC 42760;1,3-Difluorotetrachloroacetone",
    "duplicated_cas_no": "",
    "SMILES": "C(C(Cl)(Cl)F)(C(Cl)(Cl)F)=O",
    "meta_data": {
        "InChI": "InChI=1S/C3Cl4F2O/c4-2(5,8)1(10)3(6,7)9",
        "InChIKey": null,
        "Canonical SMILES": "O=C(C(F)(Cl)Cl)C(F)(Cl)Cl",
        "Molecular Formula": "C<sub>3</sub>Cl<sub>4</sub>F<sub>2</sub>O",
        "Molecular Mass": "231.84",
        "Boiling Point": "118-122 °C"
    }
}