{
    "cas_no": "108-91-8",
    "key_name": "Cyclohexylamine",
    "cn_name": "环己胺;",
    "alternate_name": "Cyclohexanamine;Cyclohexylamine;Aminocyclohexane;Aminohexahydrobenzene;Hexahydroaniline;Benzenamine, hexahydro-;1-Aminocyclohexane;1-Cyclohexylamine;Monocyclohexylamine;HY;Biodur E 1;<em>N</em>-Cyclohexylamine",
    "duplicated_cas_no": "143247-75-0;157973-60-9;1357848-57-7;1533423-50-5",
    "SMILES": "NC1CCCCC1",
    "meta_data": {
        "InChI": "InChI=1S/C6H13N/c7-6-4-2-1-3-5-6/h6H,1-5,7H2",
        "InChIKey": null,
        "Canonical SMILES": "NC1CCCCC1",
        "Molecular Formula": "C<sub>6</sub>H<sub>13</sub>N",
        "Molecular Mass": "99.17",
        "Boiling Point": "134.5 °C @ Press: 760 Torr",
        "Melting Point": "-17.7 °C",
        "Density": "0.8647 g/cm³ @ Temp: 25 °C"
    }
}