{
    "cas_no": "109-85-3",
    "key_name": "2-Methoxyethylamine",
    "cn_name": "2-甲氧基乙胺;",
    "alternate_name": "Ethanamine, 2-methoxy-;Ethylamine, 2-methoxy-;2-Methoxyethanamine;1-Methoxy-2-aminoethane;β-Methoxyethylamine;2-Methoxyethylamine;2-Aminoethyl methyl ether;1-Amino-2-methoxyethane;2-Methoxy-1-ethanamine;<em>N</em>-(2-Methoxyethyl)amine;2-Methoxy-1-aminoethane",
    "duplicated_cas_no": "",
    "SMILES": "C(CN)OC",
    "meta_data": {
        "InChI": "InChI=1S/C3H9NO/c1-5-3-2-4/h2-4H2,1H3",
        "InChIKey": null,
        "Canonical SMILES": "O(C)CCN",
        "Molecular Formula": "C<sub>3</sub>H<sub>9</sub>NO",
        "Molecular Mass": "75.11",
        "Boiling Point": "95 °C @ Press: 758 Torr"
    }
}