{
    "cas_no": "6165-75-9",
    "key_name": "Propargyl benzenesulfonate",
    "cn_name": "炔丙基苯磺酸;",
    "alternate_name": "2-Propyn-1-ol, 1-benzenesulfonate;2-Propyn-1-ol, benzenesulfonate;2-Propynyl benzenesulfonate;Propargyl phenylsulfonate;Propargyl benzenesulfonate;Propargyl besylate;2-Propyn-1-yl benzenesulfonate",
    "duplicated_cas_no": "",
    "SMILES": "S(OCC#C)(=O)(=O)C1=CC=CC=C1",
    "meta_data": {
        "InChI": "InChI=1S/C9H8O3S/c1-2-8-12-13(10,11)9-6-4-3-5-7-9/h1,3-7H,8H2",
        "InChIKey": null,
        "Canonical SMILES": "O=S(=O)(OCC#C)C=1C=CC=CC1",
        "Molecular Formula": "C<sub>9</sub>H<sub>8</sub>O<sub>3</sub>S",
        "Molecular Mass": "196.22",
        "Boiling Point": "142-144 °C @ Press: 4 Torr",
        "Melting Point": "178 °C",
        "Density": "1.2381 g/cm³ @ Temp: 20 °C"
    }
}