{
    "cas_no": "13450-77-6",
    "key_name": "<em>N</em>-(4-Chlorobenzoyl)glycine",
    "cn_name": null,
    "alternate_name": "Glycine, <em>N</em>-(4-chlorobenzoyl)-;Hippuric acid, <em>p</em>-chloro-;<em>N</em>-(4-Chlorobenzoyl)glycine;<em>p</em>-Chlorohippuric acid;4-Chlorohippuric acid;<em>p</em>-Chlorobenzoylglycine;<em>N</em>-(<em>p</em>-Chlorobenzoyl)glycine;4-Chlorobenzoylglycine;Ro 11-1903;2-(4-Chlorobenzamido)aceticacid;2-[(4-Chlorophenyl)formamido]acetic acid;2-(4-Chlorobenzamido)acetic acid",
    "duplicated_cas_no": "80353-60-2",
    "SMILES": "C(NCC(O)=O)(=O)C1=CC=C(Cl)C=C1",
    "meta_data": {
        "InChI": "InChI=1S/C9H8ClNO3/c10-7-3-1-6(2-4-7)9(14)11-5-8(12)13/h1-4H,5H2,(H,11,14)(H,12,13)",
        "InChIKey": null,
        "Canonical SMILES": "O=C(O)CNC(=O)C1=CC=C(Cl)C=C1",
        "Molecular Formula": "C<sub>9</sub>H<sub>8</sub>ClNO<sub>3</sub>",
        "Molecular Mass": "213.62",
        "Melting Point": "143 °C"
    }
}