{
    "cas_no": "3710-30-3",
    "key_name": "1,7-Octadiene",
    "cn_name": null,
    "alternate_name": "1,7-Octadiene;α,ω-Octadiene;NSC 82324",
    "duplicated_cas_no": "",
    "SMILES": "C(CCC=C)CC=C",
    "meta_data": {
        "InChI": "InChI=1S/C8H14/c1-3-5-7-8-6-4-2/h3-4H,1-2,5-8H2",
        "InChIKey": null,
        "Canonical SMILES": "C=CCCCCC=C",
        "Molecular Formula": "C<sub>8</sub>H<sub>14</sub>",
        "Molecular Mass": "110.20",
        "Boiling Point": "114 °C",
        "Melting Point": "-70 °C",
        "Density": "0.7293 g/cm³ @ Temp: 21.44 °C"
    }
}