{
    "cas_no": "108-05-4",
    "key_name": "Vinyl acetate",
    "cn_name": "乙酸乙烯酯;醋酸乙烯;",
    "alternate_name": "Acetic acid ethenyl ester;Acetic acid vinyl ester;Ethenyl acetate;Vinyl A monomer;Vinyl acetate;1-Acetoxyethylene;Acetoxyethylene;Acetoxyethene;NSC 8404;Acetic acid, ethenyl ester;SN 12T;GC Fuji Varnish;YS 021",
    "duplicated_cas_no": "58162-13-3;61891-42-7;82041-23-4;85306-26-9;172702-77-1;220713-36-0",
    "SMILES": "O(C(C)=O)C=C",
    "meta_data": {
        "InChI": "InChI=1S/C4H6O2/c1-3-6-4(2)5/h3H,1H2,2H3",
        "InChIKey": null,
        "Canonical SMILES": "O=C(OC=C)C",
        "Molecular Formula": "C<sub>4</sub>H<sub>6</sub>O<sub>2</sub>",
        "Molecular Mass": "86.09",
        "Boiling Point": "72.7 °C",
        "Melting Point": "-93.2 °C",
        "Density": "0.932 g/cm³ @ Temp: 20 °C"
    }
}