{
    "cas_no": "2615-15-8",
    "key_name": "Hexaethylene glycol",
    "cn_name": "六聚乙二醇;六甘醇;六乙二醇;硫乙烯基乙二醇;",
    "alternate_name": "3,6,9,12,15-Pentaoxaheptadecane-1,17-diol;Hexaethylene glycol;Hexaoxyethylene glycol;Ethanol, 2,2′-[oxybis(oxy-2,1-ethanediyloxy-2,1-ethanediyloxy)]bis-;Hexagol;NSC 201209;2-[2-[2-[2-[2-(2-Hydroxyethoxy)ethoxy]ethoxy]ethoxy]ethoxy]ethanol;2,5,8,11,14-Pentaoxahexadecane-1,16-diol",
    "duplicated_cas_no": "2906183-87-5",
    "SMILES": "O(CCOCCOCCO)CCOCCOCCO",
    "meta_data": {
        "InChI": "InChI=1S/C12H26O7/c13-1-3-15-5-7-17-9-11-19-12-10-18-8-6-16-4-2-14/h13-14H,1-12H2",
        "InChIKey": null,
        "Canonical SMILES": "OCCOCCOCCOCCOCCOCCO",
        "Molecular Formula": "C<sub>12</sub>H<sub>26</sub>O<sub>7</sub>",
        "Molecular Mass": "282.33",
        "Boiling Point": "217 °C",
        "Melting Point": "5-7 °C",
        "Density": "1.0948 g/cm³ @ Temp: 60 °C"
    }
}