{
    "cas_no": "10212-20-1",
    "key_name": "2′-Deoxy-2′-fluorocytidine",
    "cn_name": "2\"-脱氧-2\"-氟胞苷;2\"-氟脱氧胞苷;",
    "alternate_name": "Cytidine, 2′-deoxy-2′-fluoro-;2′-Deoxy-2′-fluorocytidine;2′-Fluoro-2′-deoxy-β-<span class=\"text-smallcaps\">D</span>-ribofuranosylcytosine;2′-Fluoro-2′-deoxycytidine;NSC 529432;1562: PN: US6617438 TABLE: 1 claimed sequence;4-Amino-1-[3-fluoro-4-hydroxy-5-(hydroxymethyl)oxolan-2-yl]pyrimidin-2-one;2′-Fluoro-cytidine",
    "duplicated_cas_no": "25183-21-5;1044657-44-4;1056189-42-4;1236363-48-6",
    "SMILES": "F[C@H]1[C@@H](O[C@H](CO)[C@H]1O)N2C(=O)N=C(N)C=C2",
    "meta_data": {
        "InChI": "InChI=1S/C9H12FN3O4/c10-6-7(15)4(3-14)17-8(6)13-2-1-5(11)12-9(13)16/h1-2,4,6-8,14-15H,3H2,(H2,11,12,16)/t4-,6-,7-,8-/m1/s1",
        "InChIKey": null,
        "Canonical SMILES": "O=C1N=C(N)C=CN1C2OC(CO)C(O)C2F",
        "Molecular Formula": "C<sub>9</sub>H<sub>12</sub>FN<sub>3</sub>O<sub>4</sub>",
        "Molecular Mass": "245.21",
        "Melting Point": "163-167 °C"
    }
}