{
    "cas_no": "52605-96-6",
    "key_name": "2-Chloro-3-methoxypyridine",
    "cn_name": "2-氯-3-甲氧基吡啶;",
    "alternate_name": "Pyridine, 2-chloro-3-methoxy-;2-Chloro-3-methoxypyridine",
    "duplicated_cas_no": "",
    "SMILES": "O(C)C1=C(Cl)N=CC=C1",
    "meta_data": {
        "InChI": "InChI=1S/C6H6ClNO/c1-9-5-3-2-4-8-6(5)7/h2-4H,1H3",
        "InChIKey": null,
        "Canonical SMILES": "ClC1=NC=CC=C1OC",
        "Molecular Formula": "C<sub>6</sub>H<sub>6</sub>ClNO",
        "Molecular Mass": "143.57",
        "Melting Point": "46-47 °C"
    }
}