{
    "cas_no": "5453-67-8",
    "key_name": "Dimethyl 2,6-pyridinedicarboxylate",
    "cn_name": null,
    "alternate_name": "2,6-Pyridinedicarboxylic acid, 2,6-dimethyl ester;2,6-Pyridinedicarboxylic acid, dimethyl ester;Dimethyl 2,6-pyridinedicarboxylate;2,6-Dipicolinic acid dimethyl ester;Dipicolinic acid dimethyl ester;2,6-Bismethoxycarbonylpyridine;2,6-Dicarbomethoxypyridine;NSC 18855;2,6-Dimethyl pyridine-2,6-dicarboxylate",
    "duplicated_cas_no": "",
    "SMILES": "C(OC)(=O)C=1N=C(C(OC)=O)C=CC1",
    "meta_data": {
        "InChI": "InChI=1S/C9H9NO4/c1-13-8(11)6-4-3-5-7(10-6)9(12)14-2/h3-5H,1-2H3",
        "InChIKey": null,
        "Canonical SMILES": "O=C(OC)C=1N=C(C=CC1)C(=O)OC",
        "Molecular Formula": "C<sub>9</sub>H<sub>9</sub>NO<sub>4</sub>",
        "Molecular Mass": "195.17",
        "Boiling Point": "100 °C @ Press: 5 x 10<sup>-3</sup> Torr",
        "Melting Point": "122-124 °C"
    }
}