{
    "cas_no": "65408-91-5",
    "key_name": "Altholactone",
    "cn_name": null,
    "alternate_name": "<span class=\"text-smallcaps\">D</span>-<em>xylo</em>-Hept-2-enonic acid, 4,7-anhydro-2,3-dideoxy-7-<em>C</em>-phenyl-, δ-lactone, (7<em>R</em>)-;2<em>H</em>-Furo[3,2-<em>b</em>]pyran, <span class=\"text-smallcaps\">D</span>-<em>xylo</em>-hept-2-enonic acid deriv.;Altholactone;Goniothalenol;(+)-Altholactone;(+)-Goniothalenol",
    "duplicated_cas_no": "",
    "SMILES": "O[C@@H]1[C@H](O[C@@]2([C@]1(OC(=O)C=C2)[H])[H])C3=CC=CC=C3",
    "meta_data": {
        "InChI": "InChI=1S/C13H12O4/c14-10-7-6-9-13(17-10)11(15)12(16-9)8-4-2-1-3-5-8/h1-7,9,11-13,15H/t9-,11+,12+,13+/m0/s1",
        "InChIKey": null,
        "Canonical SMILES": "O=C1OC2C(OC(C=3C=CC=CC3)C2O)C=C1",
        "Molecular Formula": "C<sub>13</sub>H<sub>12</sub>O<sub>4</sub>",
        "Molecular Mass": "232.23",
        "Melting Point": "108-109 °C"
    }
}