{
    "cas_no": "539-47-9",
    "key_name": "Furylacrylic acid",
    "cn_name": "2-呋喃丙烯酸;",
    "alternate_name": "2-Propenoic acid, 3-(2-furanyl)-;2-Furanacrylic acid;3-(2-Furanyl)-2-propenoic acid;Furacrylic acid;2-Furalacetic acid;Furfurylideneacetic acid;3-(2-Furyl)acrylic acid;Furanacrylic acid;Furylacrylic acid;β-(2-Furyl)acrylic acid;FAA;3-(Furan-2-yl)acrylic acid;3-(2-Furyl)propenoic acid;3-(Furan-2-yl)propenoic acid;NSC 32626;NSC 4671;3-(2-Furyl)propenoate",
    "duplicated_cas_no": "",
    "SMILES": "C(=CC(O)=O)C1=CC=CO1",
    "meta_data": {
        "InChI": "InChI=1S/C7H6O3/c8-7(9)4-3-6-2-1-5-10-6/h1-5H,(H,8,9)",
        "InChIKey": null,
        "Canonical SMILES": "O=C(O)C=CC=1OC=CC1",
        "Molecular Formula": "C<sub>7</sub>H<sub>6</sub>O<sub>3</sub>",
        "Molecular Mass": "138.12",
        "Melting Point": "143 °C"
    }
}