{
    "cas_no": "28590-40-1",
    "key_name": "Persicogenin",
    "cn_name": null,
    "alternate_name": "4<em>H</em>-1-Benzopyran-4-one, 2,3-dihydro-5-hydroxy-2-(3-hydroxy-4-methoxyphenyl)-7-methoxy-, (2<em>S</em>)-;4<em>H</em>-1-Benzopyran-4-one, 2,3-dihydro-5-hydroxy-2-(3-hydroxy-4-methoxyphenyl)-7-methoxy-, (<em>S</em>)-;(2<em>S</em>)-2,3-Dihydro-5-hydroxy-2-(3-hydroxy-4-methoxyphenyl)-7-methoxy-4<em>H</em>-1-benzopyran-4-one;Persicogenin;Eriodictyol-4′,7-dimethyl ether;Eriodictyol 7,4′-dimethyl ether;Hesperetin 7-methyl ether;NSC 266222",
    "duplicated_cas_no": "116822-57-2",
    "SMILES": "O=C1C=2C(O[C@@H](C1)C3=CC(O)=C(OC)C=C3)=CC(OC)=CC2O",
    "meta_data": {
        "InChI": "InChI=1S/C17H16O6/c1-21-10-6-12(19)17-13(20)8-15(23-16(17)7-10)9-3-4-14(22-2)11(18)5-9/h3-7,15,18-19H,8H2,1-2H3/t15-/m0/s1",
        "InChIKey": null,
        "Canonical SMILES": "O=C1C2=C(O)C=C(OC)C=C2OC(C3=CC=C(OC)C(O)=C3)C1",
        "Molecular Formula": "C<sub>17</sub>H<sub>16</sub>O<sub>6</sub>",
        "Molecular Mass": "316.31",
        "Melting Point": "165-167 °C"
    }
}