{
    "cas_no": "34708-08-2",
    "key_name": "(3-Thiocyanatopropyl)triethoxysilane",
    "cn_name": "3-硫氰基丙基三乙氧基硅烷;",
    "alternate_name": "Thiocyanic acid, 3-(triethoxysilyl)propyl ester;Triethoxy(3-thiocyanatopropyl)silane;(3-Thiocyanatopropyl)triethoxysilane;Si 264;(γ-Thiocyanatopropyl)triethoxysilane;HP 264;SIT 7908.0;(Thiocyanatopropyl)triethoxysilane;3-Triethoxysilylpropyl thiocyanate",
    "duplicated_cas_no": "",
    "SMILES": "[Si](CCCSC#N)(OCC)(OCC)OCC",
    "meta_data": {
        "InChI": "InChI=1S/C10H21NO3SSi/c1-4-12-16(13-5-2,14-6-3)9-7-8-15-10-11/h4-9H2,1-3H3",
        "InChIKey": null,
        "Canonical SMILES": "N#CSCCC[Si](OCC)(OCC)OCC",
        "Molecular Formula": "C<sub>10</sub>H<sub>21</sub>NO<sub>3</sub>SSi",
        "Molecular Mass": "263.43",
        "Boiling Point": "95 °C @ Press: 0.1 Torr",
        "Density": "1.030 g/cm³"
    }
}