{
    "cas_no": "5053-06-5",
    "key_name": "Fenspiride",
    "cn_name": "芬司匹利;芬司匹利;",
    "alternate_name": "1-Oxa-3,8-diazaspiro[4.5]decan-2-one, 8-(2-phenylethyl)-;1-Oxa-3,8-diazaspiro[4.5]decan-2-one, 8-phenethyl-;8-(2-Phenylethyl)-1-oxa-3,8-diazaspiro[4.5]decan-2-one;Fenspiride;Respiride;DESP",
    "duplicated_cas_no": "",
    "SMILES": "O=C1OC2(CCN(CCC3=CC=CC=C3)CC2)CN1",
    "meta_data": {
        "InChI": "InChI=1S/C15H20N2O2/c18-14-16-12-15(19-14)7-10-17(11-8-15)9-6-13-4-2-1-3-5-13/h1-5H,6-12H2,(H,16,18)",
        "InChIKey": null,
        "Canonical SMILES": "O=C1OC2(CN1)CCN(CCC=3C=CC=CC3)CC2",
        "Molecular Formula": "C<sub>15</sub>H<sub>20</sub>N<sub>2</sub>O<sub>2</sub>",
        "Molecular Mass": "260.33",
        "Boiling Point": "126-127 °C @ Press: 2 Torr"
    }
}