{
    "cas_no": "75815-22-4",
    "key_name": "2-Bromo-1-(2-chlorophenyl)-1-propanone",
    "cn_name": null,
    "alternate_name": "1-Propanone, 2-bromo-1-(2-chlorophenyl)-;Propiophenone, 2-bromo-2′-chloro-;2-Bromo-1-(2-chlorophenyl)-1-propanone",
    "duplicated_cas_no": "92821-82-4",
    "SMILES": "C(C(Br)C)(=O)C1=C(Cl)C=CC=C1",
    "meta_data": {
        "InChI": "InChI=1S/C9H8BrClO/c1-6(10)9(12)7-4-2-3-5-8(7)11/h2-6H,1H3",
        "InChIKey": null,
        "Canonical SMILES": "O=C(C=1C=CC=CC1Cl)C(Br)C",
        "Molecular Formula": "C<sub>9</sub>H<sub>8</sub>BrClO",
        "Molecular Mass": "247.52",
        "Boiling Point": "115-116 °C @ Press: 4 Torr",
        "Density": "1.5233 g/cm³ @ Temp: 22 °C"
    }
}