{
    "cas_no": "20644-12-6",
    "key_name": "<em>p</em>-Carborane",
    "cn_name": null,
    "alternate_name": "1,12-Dicarbadodecaborane(12);<em>p</em>-Carborane;<em>p</em>-Dicarbadodecaborane(12);<em>p</em>-Carborane(12);1,12-Dicarba-<em>closo</em>-dodecaborane;<em>p</em>-Carborane (C<sub>2</sub>B<sub>10</sub>H<sub>12</sub>);1,12-Carborane (C<sub>2</sub>B<sub>10</sub>H<sub>12</sub>);1,12-Dicarbadodecaborane;1,12-Dicarba-<em>closo</em>-dodecaborane(12)",
    "duplicated_cas_no": "",
    "SMILES": "[BH]1234[BH]567[BH]189[BH]2%10%11[BH]3%12%13[CH]45%14[BH]6%15%16[BH]78%17[CH]%109%18[BH]%12%11%19[BH]%13%14%15[BH]%16%17%19%18",
    "meta_data": {
        "InChI": "InChI=1S/C2H12B10/c1-3-4(1)6(1)7(1)5(1,3)9(3)2-8(3,4,9)10(2,4,6)12(2,6,7)11(2,5,7)9/h1-12H",
        "InChIKey": null,
        "Canonical SMILES": "[BH]1234[BH]567[BH]189[BH]2%10%11[BH]8%12%13[BH]%10%14%15[BH]%16%17%18[BH]35([BH]6%16%19[BH]%12%17%14[CH]79%19%13)[CH]4%11%18%15",
        "Molecular Formula": "C<sub>2</sub>H<sub>12</sub>B<sub>10</sub>",
        "Molecular Mass": "",
        "Melting Point": "259-261 °C"
    }
}