{
    "cas_no": "19900-69-7",
    "key_name": "4,4′-Methylenebis(2,6-diisopropylaniline)",
    "cn_name": "4,4\"-亚甲双-(2,6-二异丙基苯胺);",
    "alternate_name": "Benzenamine, 4,4′-methylenebis[2,6-bis(1-methylethyl)-;Aniline, 4,4′-methylenebis[2,6-diisopropyl-;4,4′-Methylenebis[2,6-bis(1-methylethyl)benzenamine];3,3′,5,5′-Tetraisopropyl-4,4′-diaminodiphenylmethane;4,4′-Methylenebis(2,6-diisopropylaniline);Bis(3,5-diisopropyl-4-aminophenyl)methane;MDPA;Kayabond C 400;M-DIPA;Lonzacure M-DIPA;4,4′-Methylenebis[2,6-bis(1-methylethyl)benzeneamine]",
    "duplicated_cas_no": "66526-20-3;127738-97-0",
    "SMILES": "C(C)(C)C1=C(N)C(C(C)C)=CC(CC2=CC(C(C)C)=C(N)C(C(C)C)=C2)=C1",
    "meta_data": {
        "InChI": "InChI=1S/C25H38N2/c1-14(2)20-10-18(11-21(15(3)4)24(20)26)9-19-12-22(16(5)6)25(27)23(13-19)17(7)8/h10-17H,9,26-27H2,1-8H3",
        "InChIKey": null,
        "Canonical SMILES": "NC=1C(=CC(=CC1C(C)C)CC=2C=C(C(N)=C(C2)C(C)C)C(C)C)C(C)C",
        "Molecular Formula": "C<sub>25</sub>H<sub>38</sub>N<sub>2</sub>",
        "Molecular Mass": "366.58",
        "Boiling Point": "215-218 °C @ Press: 0.5 Torr"
    }
}