{
    "cas_no": "3538-68-9",
    "key_name": "Benzenepropanoic acid, hydrazide",
    "cn_name": null,
    "alternate_name": "Benzenepropanoic acid, hydrazide;Hydrocinnamic acid, hydrazide;3-Phenylpropionic acid hydrazide;Hydrocinnamoyl hydrazide;3-Phenylpropanoic acid hydrazide;3-Phenylpropanoylhydrazine;NSC 67600;3-Phenylpropanehydrazide",
    "duplicated_cas_no": "",
    "SMILES": "C(CC(NN)=O)C1=CC=CC=C1",
    "meta_data": {
        "InChI": "InChI=1S/C9H12N2O/c10-11-9(12)7-6-8-4-2-1-3-5-8/h1-5H,6-7,10H2,(H,11,12)",
        "InChIKey": null,
        "Canonical SMILES": "O=C(NN)CCC=1C=CC=CC1",
        "Molecular Formula": "C<sub>9</sub>H<sub>12</sub>N<sub>2</sub>O",
        "Molecular Mass": "164.20",
        "Melting Point": "48 °C"
    }
}