{
    "cas_no": "131-48-6",
    "key_name": "Acetylneuraminic acid",
    "cn_name": "N-乙酰神经氨酸;唾液酸;",
    "alternate_name": "Neuraminic acid, <em>N</em>-acetyl-;<span class=\"text-smallcaps\">D</smallcap>-<em>glycero</em>-<smallcap>D</span>-<em>galacto</em>-Nonulosonic acid, 5-acetamido-3,5-dideoxy-;Lactaminic acid;<span class=\"text-smallcaps\">D</smallcap>-<em>glycero</em>-<smallcap>D</span>-<em>galacto</em>-2-Nonulosonic acid, 5-(acetylamino)-3,5-dideoxy-;<em>N</em>-Acetylneuraminic acid;Acetylneuraminic acid;NANA;<em>N</em>-Acetyl-<span class=\"text-smallcaps\">D</span>-neuraminic acid;5-<em>N</em>-Acetyl-<span class=\"text-smallcaps\">D</span>-neuraminic acid;Aceneuramic acid;<em>N</em>-Acetylneuramic acid;<em>N</em>-Acetylsialic acid;5-<em>N</em>-Acetylneuraminic acid;UX 001",
    "duplicated_cas_no": "5977-25-3;6225-16-7;6918-20-3;11032-36-3;14752-56-8;688025-48-1;801157-24-4;1195276-57-3;1195521-74-4",
    "SMILES": "[C@H]([C@H]([C@@H]([C@@H](CO)O)O)O)([C@H](CC(C(O)=O)=O)O)NC(C)=O",
    "meta_data": {
        "InChI": "InChI=1S/C11H19NO9/c1-4(14)12-8(5(15)2-6(16)11(20)21)10(19)9(18)7(17)3-13/h5,7-10,13,15,17-19H,2-3H2,1H3,(H,12,14)(H,20,21)/t5-,7+,8+,9+,10+/m0/s1",
        "InChIKey": null,
        "Canonical SMILES": "O=C(O)C(=O)CC(O)C(NC(=O)C)C(O)C(O)C(O)CO",
        "Molecular Formula": "C<sub>11</sub>H<sub>19</sub>NO<sub>9</sub>",
        "Molecular Mass": "309.27",
        "Melting Point": "182-185 °C (decomp)"
    }
}