{
    "cas_no": "15358-48-2",
    "key_name": "Hydroxylupanine",
    "cn_name": null,
    "alternate_name": "7,14-Methano-2<em>H</em>,11<em>H</em>-dipyrido[1,2-<em>a</em>:1′,2′-<em>e</em>][1,5]diazocin-11-one, dodecahydro-2-hydroxy-, (2<em>S</em>,7<em>S</em>,7a<em>R</em>,14<em>S</em>,14a<em>S</em>)-;Lupanine, 13α-hydroxy-;Lupanine, 13-hydroxy-;Lupanine, hydroxy-;7,14-Methano-2<em>H</em>,11<em>H</em>-dipyrido[1,2-<em>a</em>:1′,2′-<em>e</em>][1,5]diazocin-11-one, dodecahydro-2-hydroxy-, [2<em>S</em>-(2α,7β,7aβ,14β,14aα)]-;(2<em>S</em>,7<em>S</em>,7a<em>R</em>,14<em>S</em>,14a<em>S</em>)-Dodecahydro-2-hydroxy-7,14-methano-2<em>H</em>,11<em>H</em>-dipyrido[1,2-<em>a</em>:1′,2′-<em>e</em>][1,5]diazocin-11-one;7,14-Methano-4<em>H</em>,6<em>H</em>-dipyrido[1,2-<em>a</em>:1′,2′-<em>e</em>][1,5]diazocin-4-one, dodecahydro-9-hydroxy-, [7<em>S</em>-(7α,7aβ,9β,14α,14aα)]-;Hydroxylupanine;13-Hydroxylupanine;13α-Hydroxylupanine;Oxylupanine;13-Hydroxylupanin;(+)-13-Hydroxylupanine;Hydroxylupanin;(+)-13α-Hydroxylupanine;NSC 70827;13α-Hydroxy-2-oxosparteine",
    "duplicated_cas_no": "492-03-5;1359-23-5;12706-15-9;26251-35-4;28604-81-1;29472-80-8;34227-14-0",
    "SMILES": "O[C@@H]1C[C@]2([C@]3(C[C@@](CN2CC1)([C@@]4(N(C3)C(=O)CCC4)[H])[H])[H])[H]",
    "meta_data": {
        "InChI": "InChI=1S/C15H24N2O2/c18-12-4-5-16-8-10-6-11(14(16)7-12)9-17-13(10)2-1-3-15(17)19/h10-14,18H,1-9H2/t10-,11-,12-,13+,14-/m0/s1",
        "InChIKey": null,
        "Canonical SMILES": "O=C1N2CC3CC(CN4CCC(O)CC43)C2CCC1",
        "Molecular Formula": "C<sub>15</sub>H<sub>24</sub>N<sub>2</sub>O<sub>2</sub>",
        "Molecular Mass": "264.36",
        "Boiling Point": "180-195 °C @ Press: 0.3 Torr",
        "Melting Point": "173-174 °C"
    }
}