{
    "cas_no": "5157-15-3",
    "key_name": "Tetrahydro-3a,6a-diphenylimidazo[4,5-<em>d</em>]imidazole-2,5(1<em>H</em>,3<em>H</em>)-dione",
    "cn_name": null,
    "alternate_name": "Imidazo[4,5-<em>d</em>]imidazole-2,5(1<em>H</em>,3<em>H</em>)-dione, tetrahydro-3a,6a-diphenyl-;Glycoluril, 3a,6a-diphenyl-;Tetrahydro-3a,6a-diphenylimidazo[4,5-<em>d</em>]imidazole-2,5(1<em>H</em>,3<em>H</em>)-dione;Diphenylglycoluril;NSC 144422;NSC 87602",
    "duplicated_cas_no": "41407-08-3",
    "SMILES": "O=C1NC2(C(NC(=O)N2)(N1)C3=CC=CC=C3)C4=CC=CC=C4",
    "meta_data": {
        "InChI": "InChI=1S/C16H14N4O2/c21-13-17-15(11-7-3-1-4-8-11)16(19-13,20-14(22)18-15)12-9-5-2-6-10-12/h1-10H,(H2,17,19,21)(H2,18,20,22)",
        "InChIKey": null,
        "Canonical SMILES": "O=C1NC2(NC(=O)NC2(N1)C=3C=CC=CC3)C=4C=CC=CC4",
        "Molecular Formula": "C<sub>16</sub>H<sub>14</sub>N<sub>4</sub>O<sub>2</sub>",
        "Molecular Mass": "294.31",
        "Melting Point": "390-394 °C"
    }
}