{
    "cas_no": "638-66-4",
    "key_name": "Octadecanal",
    "cn_name": null,
    "alternate_name": "Octadecanal;Stearaldehyde;Stearyl aldehyde;Octadecyl aldehyde;<em>n</em>-Octadecanal;Octadecanaldehyde;1-Oxooctadecane;1-Octadecanal;NSC 68100",
    "duplicated_cas_no": "136656-26-3",
    "SMILES": "C(CCCCCCCCC)CCCCCCCC=O",
    "meta_data": {
        "InChI": "InChI=1S/C18H36O/c1-2-3-4-5-6-7-8-9-10-11-12-13-14-15-16-17-18-19/h18H,2-17H2,1H3",
        "InChIKey": null,
        "Canonical SMILES": "O=CCCCCCCCCCCCCCCCCC",
        "Molecular Formula": "C<sub>18</sub>H<sub>36</sub>O",
        "Molecular Mass": "268.48",
        "Boiling Point": "200-215 °C @ Press: 20 Torr",
        "Melting Point": "55 °C"
    }
}