{
    "cas_no": "123-38-6",
    "key_name": "Propanal",
    "cn_name": "丙醛;正丙醛;",
    "alternate_name": "Propanal;Propionaldehyde;Methylacetaldehyde;Propaldehyde;Propionic aldehyde;Propylic aldehyde;Propional;Propylaldehyde;Propanaldehyde;<em>n</em>-Propanal;1-Propanal;<em>n</em>-Propionaldehyde;Ethylcarboxaldehyde;NSC 6493",
    "duplicated_cas_no": "",
    "SMILES": "C(C=O)C",
    "meta_data": {
        "InChI": "InChI=1S/C3H6O/c1-2-3-4/h3H,2H2,1H3",
        "InChIKey": null,
        "Canonical SMILES": "O=CCC",
        "Molecular Formula": "C<sub>3</sub>H<sub>6</sub>O",
        "Molecular Mass": "58.08",
        "Boiling Point": "49 °C @ Press: 760 Torr",
        "Melting Point": "-81 °C",
        "Density": "0.8657 g/cm³ @ Temp: 25 °C"
    }
}