{
    "cas_no": "106-74-1",
    "key_name": "2-Ethoxyethyl acrylate",
    "cn_name": "烯丙酸乙氧乙酯;",
    "alternate_name": "2-Propenoic acid, 2-ethoxyethyl ester;Acrylic acid, 2-ethoxyethyl ester;Ethanol, 2-ethoxy-, acrylate;Cellosolve acrylate;Ethylene glycol monoethyl ether acrylate;Ethylene glycol monoethyl ether propenoate;2-Ethoxyethyl acrylate;A-EE;NSC 72733;NSC 8390;EM 211;2-Ethoxyethyl propenoate;Ethylene glycol ethyl ether acrylate;Ethylmonoglycol acrylate",
    "duplicated_cas_no": "",
    "SMILES": "C(OCCOCC)(C=C)=O",
    "meta_data": {
        "InChI": "InChI=1S/C7H12O3/c1-3-7(8)10-6-5-9-4-2/h3H,1,4-6H2,2H3",
        "InChIKey": null,
        "Canonical SMILES": "O=C(OCCOCC)C=C",
        "Molecular Formula": "C<sub>7</sub>H<sub>12</sub>O<sub>3</sub>",
        "Molecular Mass": "144.17",
        "Boiling Point": "174 °C",
        "Melting Point": "-47 °C",
        "Density": "0.983 g/cm³ @ Temp: 20 °C"
    }
}