{
    "cas_no": "68208-25-3",
    "key_name": "γ-Amino-3-chlorobenzenepropanol",
    "cn_name": null,
    "alternate_name": "Benzenepropanol, γ-amino-3-chloro-;1-Propanol, 3-amino-3-(<em>m</em>-chlorophenyl)-;γ-Amino-3-chlorobenzenepropanol;3-Amino-3-(3-chlorophenyl)propan-1-ol;1-(3-Chlorophenyl)-3-hydroxypropylamine",
    "duplicated_cas_no": "",
    "SMILES": "C(CCO)(N)C1=CC(Cl)=CC=C1",
    "meta_data": {
        "InChI": "InChI=1S/C9H12ClNO/c10-8-3-1-2-7(6-8)9(11)4-5-12/h1-3,6,9,12H,4-5,11H2",
        "InChIKey": null,
        "Canonical SMILES": "ClC1=CC=CC(=C1)C(N)CCO",
        "Molecular Formula": "C<sub>9</sub>H<sub>12</sub>ClNO",
        "Molecular Mass": "185.65",
        "Melting Point": "63-65 °C"
    }
}