{
    "cas_no": "7412-78-4",
    "key_name": "Glycyl-<span class=\"text-smallcaps\">L</span>-glutamic acid",
    "cn_name": "甘氨酰-L-谷氨酸;甘氨酰-L-谷氨酸;",
    "alternate_name": "<span class=\"text-smallcaps\">L</span>-Glutamic acid, glycyl-;Glutamic acid, <em>N</em>-glycyl-, <span class=\"text-smallcaps\">L</span>-;<span class=\"text-smallcaps\">L</span>-Glutamic acid, <em>N</em>-glycyl-;Glycyl-<span class=\"text-smallcaps\">L</span>-glutamic acid;Glycylglutamic acid;NSC 203441;437: PN: WO2005081628 SEQID: 1546 claimed protein;534: PN: WO2006090389 SEQID: 550 unclaimed protein;44: PN: EP2161028 PAGE: 10 claimed protein;L-Selectin (human clone MMPLNHR_P2 fragment);70: PN: US20100075891 SEQID: 70 claimed protein;63: PN: WO2014063098 TABLE: 5 claimed sequence;15: PN: WO2011146121 PAGE: 113 claimed sequence;112: PN: WO2012050923 SEQID: 139 unclaimed protein;DNA (human amyloid Aβ(1-42)-specifying);170: PN: US20130123467 SEQID: 209 claimed protein;78: PN: WO2014170713 SEQID: 184 claimed protein;(2S)-2-(2-Aminoacetamido)pentanedioic acid;(2S)-2-[(2-Aminoacetyl)amino]pentanedioic acid;9: PN: KR20200105339 PAGE: 3 claimed sequence;14: PN: WO2021055880 SEQID: 15 claimed protein;1: PN: WO2022192664 PAGE: 110 claimed sequence;236: PN: WO2023119337 SEQID: 238 claimed protein",
    "duplicated_cas_no": "6085-08-1;67368-50-7",
    "SMILES": "[C@H](NC(CN)=O)(CCC(O)=O)C(O)=O",
    "meta_data": {
        "InChI": "InChI=1S/C7H12N2O5/c8-3-5(10)9-4(7(13)14)1-2-6(11)12/h4H,1-3,8H2,(H,9,10)(H,11,12)(H,13,14)/t4-/m0/s1",
        "InChIKey": null,
        "Canonical SMILES": "O=C(O)CCC(NC(=O)CN)C(=O)O",
        "Molecular Formula": "C<sub>7</sub>H<sub>12</sub>N<sub>2</sub>O<sub>5</sub>",
        "Molecular Mass": "204.18",
        "Melting Point": "160 °C"
    }
}