{
    "cas_no": "877-96-3",
    "key_name": "<em>N</em>,<em>N</em>-Dimethyl-1-piperazinepropanamine",
    "cn_name": "1-(3-二甲氨基丙基)哌嗪;1-(3-二甲胺基丙基)哌嗪;",
    "alternate_name": "1-Piperazinepropanamine, <em>N</em>,<em>N</em>-dimethyl-;Piperazine, 1-[3-(dimethylamino)propyl]-;<em>N</em>,<em>N</em>-Dimethyl-1-piperazinepropanamine;1-[3-(Dimethylamino)propyl]piperazine;4-(3-(Dimethylamino)propyl)piperazine;<em>N</em>,<em>N</em>-Dimethyl-3-(piperazin-1-yl)propan-1-amine;Dimethyl(3-piperazin-1-ylpropyl)amine",
    "duplicated_cas_no": "",
    "SMILES": "C(CCN(C)C)N1CCNCC1",
    "meta_data": {
        "InChI": "InChI=1S/C9H21N3/c1-11(2)6-3-7-12-8-4-10-5-9-12/h10H,3-9H2,1-2H3",
        "InChIKey": null,
        "Canonical SMILES": "N1CCN(CC1)CCCN(C)C",
        "Molecular Formula": "C<sub>9</sub>H<sub>21</sub>N<sub>3</sub>",
        "Molecular Mass": "171.28",
        "Boiling Point": "96-101 °C @ Press: 6 Torr"
    }
}