{
    "cas_no": "7179-96-6",
    "key_name": "Tetrahydro-<em>N</em>-methyl-2<em>H</em>-pyran-2-methanamine",
    "cn_name": null,
    "alternate_name": "2<em>H</em>-Pyran-2-methanamine, tetrahydro-<em>N</em>-methyl-;2<em>H</em>-Pyran-2-methylamine, tetrahydro-<em>N</em>-methyl-;Pyran-2-methylamine, tetrahydro-<em>N</em>-methyl-;Tetrahydro-<em>N</em>-methyl-2<em>H</em>-pyran-2-methanamine;<em>N</em>-[(Tetrahydro-2<em>H</em>-pyran-2-yl)methyl]-<em>N</em>-methylamine;<em>N</em>-Methyl-1-(tetrahydro-2<em>H</em>-pyran-2-yl)methanamine;Methyl(oxan-2-ylmethyl)amine",
    "duplicated_cas_no": "",
    "SMILES": "C(NC)C1CCCCO1",
    "meta_data": {
        "InChI": "InChI=1S/C7H15NO/c1-8-6-7-4-2-3-5-9-7/h7-8H,2-6H2,1H3",
        "InChIKey": null,
        "Canonical SMILES": "O1CCCCC1CNC",
        "Molecular Formula": "C<sub>7</sub>H<sub>15</sub>NO",
        "Molecular Mass": "129.20",
        "Boiling Point": "60-64 °C @ Press: 12 Torr",
        "Melting Point": "156 °C"
    }
}