{
    "cas_no": "60263-54-9",
    "key_name": "[1,1′-Bicyclohexyl]-1-carboxylic acid",
    "cn_name": null,
    "alternate_name": "[1,1′-Bicyclohexyl]-1-carboxylic acid;[Bicyclohexyl]-1-carboxylic acid",
    "duplicated_cas_no": "",
    "SMILES": "C(O)(=O)C1(CCCCC1)C2CCCCC2",
    "meta_data": {
        "InChI": "InChI=1S/C13H22O2/c14-12(15)13(9-5-2-6-10-13)11-7-3-1-4-8-11/h11H,1-10H2,(H,14,15)",
        "InChIKey": null,
        "Canonical SMILES": "O=C(O)C1(CCCCC1)C2CCCCC2",
        "Molecular Formula": "C<sub>13</sub>H<sub>22</sub>O<sub>2</sub>",
        "Molecular Mass": "210.31",
        "Boiling Point": "93-95 °C @ Press: 0.06 Torr",
        "Melting Point": "122-123 °C"
    }
}