{
    "cas_no": "106-71-8",
    "key_name": "2-Cyanoethyl acrylate",
    "cn_name": null,
    "alternate_name": "2-Propenoic acid, 2-cyanoethyl ester;Acrylic acid, ester with hydracrylonitrile;Hydracrylonitrile, acrylate (ester);2-Cyanoethyl acrylate;2-Cyanoethyl propenoate;NSC 18593;2-Cyanoethyl prop-2-enoate",
    "duplicated_cas_no": "",
    "SMILES": "C(OCCC#N)(C=C)=O",
    "meta_data": {
        "InChI": "InChI=1S/C6H7NO2/c1-2-6(8)9-5-3-4-7/h2H,1,3,5H2",
        "InChIKey": null,
        "Canonical SMILES": "N#CCCOC(=O)C=C",
        "Molecular Formula": "C<sub>6</sub>H<sub>7</sub>NO<sub>2</sub>",
        "Molecular Mass": "125.13",
        "Boiling Point": "108 °C @ Press: 12 Torr",
        "Density": "2.069 g/cm³"
    }
}