{
    "cas_no": "354812-41-2",
    "key_name": "1-Cyclopropyl-6-fluoro-1,4-dihydro-8-methoxy-7-(octahydro-6<em>H</em>-pyrrolo[3,4-<em>b</em>]pyridin-6-yl)-4-oxo-3-quinolinecarboxylic acid",
    "cn_name": null,
    "alternate_name": "3-Quinolinecarboxylic acid, 1-cyclopropyl-6-fluoro-1,4-dihydro-8-methoxy-7-(octahydro-6<em>H</em>-pyrrolo[3,4-<em>b</em>]pyridin-6-yl)-4-oxo-;1-Cyclopropyl-6-fluoro-1,4-dihydro-8-methoxy-7-(octahydro-6<em>H</em>-pyrrolo[3,4-<em>b</em>]pyridin-6-yl)-4-oxo-3-quinolinecarboxylic acid",
    "duplicated_cas_no": "",
    "SMILES": "O(C)C1=C2N(C=C(C(O)=O)C(=O)C2=CC(F)=C1N3CC4C(C3)NCCC4)C5CC5",
    "meta_data": {
        "InChI": "InChI=1S/C21H24FN3O4/c1-29-20-17-13(19(26)14(21(27)28)9-25(17)12-4-5-12)7-15(22)18(20)24-8-11-3-2-6-23-16(11)10-24/h7,9,11-12,16,23H,2-6,8,10H2,1H3,(H,27,28)",
        "InChIKey": null,
        "Canonical SMILES": "O=C(O)C1=CN(C2=C(OC)C(=C(F)C=C2C1=O)N3CC4NCCCC4C3)C5CC5",
        "Molecular Formula": "C<sub>21</sub>H<sub>24</sub>FN<sub>3</sub>O<sub>4</sub>",
        "Molecular Mass": "401.43",
        "Melting Point": "240-243 °C"
    }
}