{
    "cas_no": "1552-41-6",
    "key_name": "Diethyl <em>P</em>-[(4-cyanophenyl)methyl]phosphonate",
    "cn_name": "(4-氰基苄基)亚磷酸二乙酯;",
    "alternate_name": "Phosphonic acid, <em>P</em>-[(4-cyanophenyl)methyl]-, diethyl ester;Phosphonic acid, (<em>p</em>-cyanobenzyl)-, diethyl ester;Phosphonic acid, [(4-cyanophenyl)methyl]-, diethyl ester;Diethyl <em>P</em>-[(4-cyanophenyl)methyl]phosphonate;Diethyl (<em>p</em>-cyanobenzyl)phosphonate;NSC 48805;4-(Diethoxyphosphorylmethyl)benzonitrile;Diethyl [(4-cyanophenyl)methyl]phosphonate;(4-Cyanobenzyl)phosphonic acid diethyl ester;Diethyl 4-cyanobenzylphosphonate",
    "duplicated_cas_no": "",
    "SMILES": "C(P(OCC)(OCC)=O)C1=CC=C(C#N)C=C1",
    "meta_data": {
        "InChI": "InChI=1S/C12H16NO3P/c1-3-15-17(14,16-4-2)10-12-7-5-11(9-13)6-8-12/h5-8H,3-4,10H2,1-2H3",
        "InChIKey": null,
        "Canonical SMILES": "N#CC1=CC=C(C=C1)CP(=O)(OCC)OCC",
        "Molecular Formula": "C<sub>12</sub>H<sub>16</sub>NO<sub>3</sub>P",
        "Molecular Mass": "253.23",
        "Boiling Point": "146-150 °C @ Press: 0.03 Torr",
        "Melting Point": "31 °C"
    }
}