{
    "cas_no": "4600-86-6",
    "key_name": "5-(1,1-Dimethylethyl)-2,3-dihydro-1<em>H</em>-inden-1-one",
    "cn_name": null,
    "alternate_name": "1<em>H</em>-Inden-1-one, 5-(1,1-dimethylethyl)-2,3-dihydro-;1-Indanone, 5-<em>tert</em>-butyl-;5-(1,1-Dimethylethyl)-2,3-dihydro-1<em>H</em>-inden-1-one;5-<em>tert</em>-Butylindan-1-one",
    "duplicated_cas_no": "",
    "SMILES": "O=C1C=2C(=CC(C(C)(C)C)=CC2)CC1",
    "meta_data": {
        "InChI": "InChI=1S/C13H16O/c1-13(2,3)10-5-6-11-9(8-10)4-7-12(11)14/h5-6,8H,4,7H2,1-3H3",
        "InChIKey": null,
        "Canonical SMILES": "O=C1C2=CC=C(C=C2CC1)C(C)(C)C",
        "Molecular Formula": "C<sub>13</sub>H<sub>16</sub>O",
        "Molecular Mass": "188.27",
        "Melting Point": "87 °C"
    }
}