{
    "cas_no": "7737-17-9",
    "key_name": "2-Propanone, 1-amino-, hydrochloride",
    "cn_name": null,
    "alternate_name": "2-Propanone, 1-amino-, hydrochloride;2-Propanone, amino-, hydrochloride;Aminoacetone hydrochloride;2-Oxopropylammonium chloride;1-Amino-2-propanone hydrochloride;1-Aminopropan-2-one hydrochloride salt;1-Aminoacetone Hydrochloride",
    "duplicated_cas_no": "",
    "SMILES": "C(CN)(C)=O.Cl",
    "meta_data": {
        "InChI": "InChI=1S/C3H7NO.ClH/c1-3(5)2-4;/h2,4H2,1H3;1H",
        "InChIKey": null,
        "Canonical SMILES": "Cl.O=C(C)CN",
        "Molecular Formula": "C<sub>3</sub>H<sub>7</sub>NO.ClH",
        "Molecular Mass": "",
        "Melting Point": "73-74 °C"
    }
}