{
    "cas_no": "7562-61-0",
    "key_name": "(<em>R</em>)-Usnic acid",
    "cn_name": "松萝酸;D-2,6-二乙酰基-7,9-二羟基-8,9b-二甲基-1,3(2H,9bH)-二苯并呋喃二酮;",
    "alternate_name": "1,3(2<em>H</em>,9b<em>H</em>)-Dibenzofurandione, 2,6-diacetyl-7,9-dihydroxy-8,9b-dimethyl-, (9b<em>R</em>)-;Usnic acid, (<em>R</em>)-;(9b<em>R</em>)-2,6-Diacetyl-7,9-dihydroxy-8,9b-dimethyl-1,3(2<em>H</em>,9b<em>H</em>)-dibenzofurandione;(+)-Usninic acid;<em>d</em>-Usnic acid;<em>d</em>-Usninic acid;(+)-Usnic acid;NSC 685596;(<em>R</em>)-Usnic acid;(9BR)-2,6-diacetyl-7,9-dihydroxy-8,9b-dimethyldibenzofuran-1,3-dione;Usnic acid, (+)-",
    "duplicated_cas_no": "1414-34-2",
    "SMILES": "C[C@@]12C=3C(OC1=CC(=O)C(C(C)=O)C2=O)=C(C(C)=O)C(O)=C(C)C3O",
    "meta_data": {
        "InChI": "InChI=1S/C18H16O7/c1-6-14(22)12(8(3)20)16-13(15(6)23)18(4)10(25-16)5-9(21)11(7(2)19)17(18)24/h5,11,22-23H,1-4H3/t11?,18-/m0/s1",
        "InChIKey": null,
        "Canonical SMILES": "O=C(C=1C(O)=C(C(O)=C2C1OC3=CC(=O)C(C(=O)C)C(=O)C32C)C)C",
        "Molecular Formula": "C<sub>18</sub>H<sub>16</sub>O<sub>7</sub>",
        "Molecular Mass": "344.32",
        "Melting Point": "206 °C"
    }
}