{
    "cas_no": "3194-17-0",
    "key_name": "2-Pentanoylfuran",
    "cn_name": "2-戊酰呋喃,97%;",
    "alternate_name": "1-Pentanone, 1-(2-furanyl)-;1-Pentanone, 1-(2-furyl)-;1-(2-Furanyl)-1-pentanone;Butyl 2-furyl ketone;2-Valerylfuran;2-Pentanoylfuran;NSC 27359",
    "duplicated_cas_no": "",
    "SMILES": "C(CCCC)(=O)C1=CC=CO1",
    "meta_data": {
        "InChI": "InChI=1S/C9H12O2/c1-2-3-5-8(10)9-6-4-7-11-9/h4,6-7H,2-3,5H2,1H3",
        "InChIKey": null,
        "Canonical SMILES": "O=C(C=1OC=CC1)CCCC",
        "Molecular Formula": "C<sub>9</sub>H<sub>12</sub>O<sub>2</sub>",
        "Molecular Mass": "152.19",
        "Boiling Point": "108-109 °C",
        "Density": "1.012 g/cm³ @ Temp: 25 °C"
    }
}