{
    "cas_no": "56961-77-4",
    "key_name": "1-Bromo-2,3-dichlorobenzene",
    "cn_name": "2,3-二氯溴苯;",
    "alternate_name": "Benzene, 1-bromo-2,3-dichloro-;1-Bromo-2,3-dichlorobenzene;2,3-Dichloro-1-bromobenzene;2,3-Dichlorophenyl bromide;2,3-Dichlorobromobenzene",
    "duplicated_cas_no": "",
    "SMILES": "ClC1=C(Br)C=CC=C1Cl",
    "meta_data": {
        "InChI": "InChI=1S/C6H3BrCl2/c7-4-2-1-3-5(8)6(4)9/h1-3H",
        "InChIKey": null,
        "Canonical SMILES": "ClC1=CC=CC(Br)=C1Cl",
        "Molecular Formula": "C<sub>6</sub>H<sub>3</sub>BrCl<sub>2</sub>",
        "Molecular Mass": "225.90",
        "Boiling Point": "245 °C",
        "Melting Point": "60 °C"
    }
}