{
    "cas_no": "78-39-7",
    "key_name": "Triethyl orthoacetate",
    "cn_name": "原乙酸三乙酯;",
    "alternate_name": "Ethane, 1,1,1-triethoxy-;Orthoacetic acid, triethyl ester;1,1,1-Triethoxyethane;Triethyl orthoacetate;Ethyl orthoacetate;NSC 5596",
    "duplicated_cas_no": "",
    "SMILES": "C(OCC)(OCC)(OCC)C",
    "meta_data": {
        "InChI": "InChI=1S/C8H18O3/c1-5-9-8(4,10-6-2)11-7-3/h5-7H2,1-4H3",
        "InChIKey": null,
        "Canonical SMILES": "O(CC)C(OCC)(OCC)C",
        "Molecular Formula": "C<sub>8</sub>H<sub>18</sub>O<sub>3</sub>",
        "Molecular Mass": "162.23",
        "Boiling Point": "145 °C",
        "Density": "0.8847 g/cm³ @ Temp: 25 °C"
    }
}