{
    "cas_no": "63604-94-4",
    "key_name": "2-Bromo-5-methoxyphenol",
    "cn_name": "2-溴-5-甲氧基苯酚;",
    "alternate_name": "Phenol, 2-bromo-5-methoxy-;2-Bromo-5-methoxyphenol;4-Bromo-3-hydroxyanisole",
    "duplicated_cas_no": "",
    "SMILES": "O(C)C1=CC(O)=C(Br)C=C1",
    "meta_data": {
        "InChI": "InChI=1S/C7H7BrO2/c1-10-5-2-3-6(8)7(9)4-5/h2-4,9H,1H3",
        "InChIKey": null,
        "Canonical SMILES": "BrC1=CC=C(OC)C=C1O",
        "Molecular Formula": "C<sub>7</sub>H<sub>7</sub>BrO<sub>2</sub>",
        "Molecular Mass": "203.03",
        "Melting Point": "152 °C"
    }
}