{
    "cas_no": "22255-22-7",
    "key_name": "Resveratrol trimethyl ether",
    "cn_name": null,
    "alternate_name": "Benzene, 1,3-dimethoxy-5-[(1<em>E</em>)-2-(4-methoxyphenyl)ethenyl]-;Stilbene, 3,4′,5-trimethoxy-, (<em>E</em>)-;Benzene, 1,3-dimethoxy-5-[2-(4-methoxyphenyl)ethenyl]-, (<em>E</em>)-;1,3-Dimethoxy-5-[(1<em>E</em>)-2-(4-methoxyphenyl)ethenyl]benzene;3,4′,5-Trimethoxy-<em>trans</em>-stilbene;Resveratrol trimethyl ether;Tri-<em>O</em>-methylresveratrol;(<em>E</em>)-3,5,4′-Trimethoxystilbene;3,5,4′-Trimethoxy-<em>trans</em>-stilbene;(<em>E</em>)-1-(4-Methoxyphenyl)-2-(3,5-dimethoxyphenyl)ethene;(<em>E</em>)-2-(3,5-Dimethoxyphenyl)-1-(4-methoxyphenyl)ethene;(<em>E</em>)-1,3-Dimethoxy-5-(4-methoxystyryl)benzene;(<em>E</em>)-3,4′,5-Trimethoxystilbene;<em>trans</em>-Trimethoxyresveratrol;BTM 0512",
    "duplicated_cas_no": "",
    "SMILES": "C(=C/C1=CC=C(OC)C=C1)\\C2=CC(OC)=CC(OC)=C2",
    "meta_data": {
        "InChI": "InChI=1S/C17H18O3/c1-18-15-8-6-13(7-9-15)4-5-14-10-16(19-2)12-17(11-14)20-3/h4-12H,1-3H3/b5-4+",
        "InChIKey": null,
        "Canonical SMILES": "O(C1=CC=C(C=C1)C=CC=2C=C(OC)C=C(OC)C2)C",
        "Molecular Formula": "C<sub>17</sub>H<sub>18</sub>O<sub>3</sub>",
        "Molecular Mass": "270.32",
        "Melting Point": "55-57 °C"
    }
}