{
    "cas_no": "1844-09-3",
    "key_name": "Octadecyl sulfide",
    "cn_name": "十八烷基硫;",
    "alternate_name": "Octadecane, 1,1′-thiobis-;Octadecyl sulfide;1,1′-Thiobis[octadecane];Dioctadecyl sulfide;Distearyl sulfide;NSC 71652;1-Octadecylsulfanyloctadecane",
    "duplicated_cas_no": "",
    "SMILES": "S(CCCCCCCCCCCCCCCCCC)CCCCCCCCCCCCCCCCCC",
    "meta_data": {
        "InChI": "InChI=1S/C36H74S/c1-3-5-7-9-11-13-15-17-19-21-23-25-27-29-31-33-35-37-36-34-32-30-28-26-24-22-20-18-16-14-12-10-8-6-4-2/h3-36H2,1-2H3",
        "InChIKey": null,
        "Canonical SMILES": "S(CCCCCCCCCCCCCCCCCC)CCCCCCCCCCCCCCCCCC",
        "Molecular Formula": "C<sub>36</sub>H<sub>74</sub>S",
        "Molecular Mass": "539.04",
        "Melting Point": "63.5-64.5 °C"
    }
}