{
    "cas_no": "139-45-7",
    "key_name": "Tripropionin",
    "cn_name": "三丙酸甘油酯;",
    "alternate_name": "1,2,3-Propanetriol, 1,2,3-tripropanoate;1,2,3-Propanetriol, tripropanoate;Propionin, tri-;Glyceryl tripropionate;Glycerol tripropionate;Tripropionin;Glycerine tripropionate;Tripropionylglycerol;NSC 36744;Tripropanoin;2,3-Di(propanoyloxy)propyl propanoate",
    "duplicated_cas_no": "",
    "SMILES": "C(OC(CC)=O)(COC(CC)=O)COC(CC)=O",
    "meta_data": {
        "InChI": "InChI=1S/C12H20O6/c1-4-10(13)16-7-9(18-12(15)6-3)8-17-11(14)5-2/h9H,4-8H2,1-3H3",
        "InChIKey": null,
        "Canonical SMILES": "O=C(OCC(OC(=O)CC)COC(=O)CC)CC",
        "Molecular Formula": "C<sub>12</sub>H<sub>20</sub>O<sub>6</sub>",
        "Molecular Mass": "260.28",
        "Boiling Point": "175-176 °C",
        "Density": "1.100 g/cm³ @ Temp: 18 °C"
    }
}