{
    "cas_no": "42712-64-1",
    "key_name": "2-Amino-4-hydroxyquinoline",
    "cn_name": "2-氨基-4-羟基喹啉水合物;",
    "alternate_name": "4-Quinolinol, 2-amino-;2-Amino-4-quinolinol;2-Amino-4-hydroxyquinoline;2-Aminoquinolin-4(1<em>H</em>)-one;2-Amino-1<em>H</em>-quinolin-4-one",
    "duplicated_cas_no": "",
    "SMILES": "OC=1C2=C(N=C(N)C1)C=CC=C2",
    "meta_data": {
        "InChI": "InChI=1S/C9H8N2O/c10-9-5-8(12)6-3-1-2-4-7(6)11-9/h1-5H,(H3,10,11,12)",
        "InChIKey": null,
        "Canonical SMILES": "OC=1C=C(N=C2C=CC=CC12)N",
        "Molecular Formula": "C<sub>9</sub>H<sub>8</sub>N<sub>2</sub>O",
        "Molecular Mass": "160.17",
        "Melting Point": "303-304 °C"
    }
}