{
    "cas_no": "625-80-9",
    "key_name": "Diisopropyl sulfide",
    "cn_name": "二异丙硫醚;2,2\"-硫代二丙烷;",
    "alternate_name": "Propane, 2,2′-thiobis-;Isopropyl sulfide;2,2′-Thiobis[propane];2,4-Dimethyl-3-thiapentane;Diisopropyl sulfide;NSC 75121;2,2′-Thiodipropane;2-(Propan-2-ylsulfanyl)propane;2-Propan-2-ylsulfanylpropane;Diisopropylsulfane",
    "duplicated_cas_no": "",
    "SMILES": "S(C(C)C)C(C)C",
    "meta_data": {
        "InChI": "InChI=1S/C6H14S/c1-5(2)7-6(3)4/h5-6H,1-4H3",
        "InChIKey": null,
        "Canonical SMILES": "S(C(C)C)C(C)C",
        "Molecular Formula": "C<sub>6</sub>H<sub>14</sub>S",
        "Molecular Mass": "118.24",
        "Boiling Point": "120.1 °C",
        "Melting Point": "-78.1 °C",
        "Density": "0.81471 g/cm³ @ Temp: 20 °C"
    }
}