{
    "cas_no": "4813-57-4",
    "key_name": "Stearyl acrylate",
    "cn_name": "丙烯酸十八酯;",
    "alternate_name": "2-Propenoic acid, octadecyl ester;Acrylic acid, octadecyl ester;1-Octadecanol, acrylate;Stearyl acrylate;<em>n</em>-Octadecyl acrylate;Octadecyl acrylate;SR 257;Light Acrylate S-A;Blemmer SA;Exceparl S;Viscoat STA;STA;SR 257C;SR 586;EM 218;SA 001;TQ 10;Sartomer SR 257;Miramer M 180;Miramer M 181;SA 1618F;A 1011;M 180;Komerate A 189",
    "duplicated_cas_no": "1816938-06-3;1887074-74-9;1933490-59-5",
    "SMILES": "C(CCCCCCCCCCCCCCC)CCOC(C=C)=O",
    "meta_data": {
        "InChI": "InChI=1S/C21H40O2/c1-3-5-6-7-8-9-10-11-12-13-14-15-16-17-18-19-20-23-21(22)4-2/h4H,2-3,5-20H2,1H3",
        "InChIKey": null,
        "Canonical SMILES": "O=C(OCCCCCCCCCCCCCCCCCC)C=C",
        "Molecular Formula": "C<sub>21</sub>H<sub>40</sub>O<sub>2</sub>",
        "Molecular Mass": "324.54",
        "Melting Point": "29.2-29.4 °C",
        "Density": "0.8688 g/cm³ (liquid) @ Temp: 35 °C"
    }
}