{
    "cas_no": "2700-22-3",
    "key_name": "Benzylidenemalononitrile",
    "cn_name": "苄烯丙二腈;苯亚甲基丙二腈;",
    "alternate_name": "Propanedinitrile, 2-(phenylmethylene)-;Malononitrile, benzylidene-;Propanedinitrile, (phenylmethylene)-;2-(Phenylmethylene)propanedinitrile;2-Phenyl-1,1-dicyanoethylene;α-Cyanocinnamonitrile;Benzalmalononitrile;2,2-Dicyano-1-phenylethylene;Benzylidenemalonodinitrile;β,β-Dicyanostyrene;1,1-Dicyano-2-phenylethene;1,1-Dicyano-2-phenylethylene;Benzylidenemalononitrile;2-Cyano-3-phenylacrylonitrile;2-Phenyl-1,1-dicyanoethene;2-Cyano-3-phenylpropenenitrile;2-Benzylidenemalononitrile;(Phenylmethylene)propanedinitrile;(Phenylmethylene)malononitrile;1-Cyanocinnamonitrile;NSC 490;2-(Phenylmethylene)malononitrile;Benzylidenepropanedinitrile;2-Benzylidenepropanedinitrile;2-(Phenylmethylidene)propanedinitrile",
    "duplicated_cas_no": "3696-10-4",
    "SMILES": "C(=C(C#N)C#N)C1=CC=CC=C1",
    "meta_data": {
        "InChI": "InChI=1S/C10H6N2/c11-7-10(8-12)6-9-4-2-1-3-5-9/h1-6H",
        "InChIKey": null,
        "Canonical SMILES": "N#CC(C#N)=CC=1C=CC=CC1",
        "Molecular Formula": "C<sub>10</sub>H<sub>6</sub>N<sub>2</sub>",
        "Molecular Mass": "154.17",
        "Boiling Point": "120-128 °C @ Press: 0.06 Torr",
        "Melting Point": "83-85 °C"
    }
}