{
    "cas_no": "1920-66-7",
    "key_name": "2-Chloro-5-nitro-4-pyrimidinamine",
    "cn_name": "2-氯-4-氨基-5-硝基嘧啶;2-氯-4-氨基-5-硝基嘧啶;",
    "alternate_name": "4-Pyrimidinamine, 2-chloro-5-nitro-;Pyrimidine, 4-amino-2-chloro-5-nitro-;2-Chloro-5-nitro-4-pyrimidinamine;4-Amino-2-chloro-5-nitropyrimidine;2-Chloro-4-amino-5-nitropyrimidine;NSC 40838;2-Chloro-5-nitropyrimidin-4-amine;2-Chloro-5-nitro-pyrimidin-4-ylamine",
    "duplicated_cas_no": "",
    "SMILES": "N(=O)(=O)C=1C(N)=NC(Cl)=NC1",
    "meta_data": {
        "InChI": "InChI=1S/C4H3ClN4O2/c5-4-7-1-2(9(10)11)3(6)8-4/h1H,(H2,6,7,8)",
        "InChIKey": null,
        "Canonical SMILES": "O=N(=O)C1=CN=C(Cl)N=C1N",
        "Molecular Formula": "C<sub>4</sub>H<sub>3</sub>ClN<sub>4</sub>O<sub>2</sub>",
        "Molecular Mass": "174.55",
        "Melting Point": "220-221 °C"
    }
}