{
    "cas_no": "7745-92-8",
    "key_name": "2-Iodo-1-methyl-4-nitrobenzene",
    "cn_name": "2-碘-4-硝基甲苯;",
    "alternate_name": "Benzene, 2-iodo-1-methyl-4-nitro-;Toluene, 2-iodo-4-nitro-;2-Iodo-1-methyl-4-nitrobenzene;2-Iodo-4-nitrotoluene;1-Iodo-2-methyl-5-nitrobenzene;NSC 310164",
    "duplicated_cas_no": "",
    "SMILES": "N(=O)(=O)C1=CC(I)=C(C)C=C1",
    "meta_data": {
        "InChI": "InChI=1S/C7H6INO2/c1-5-2-3-6(9(10)11)4-7(5)8/h2-4H,1H3",
        "InChIKey": null,
        "Canonical SMILES": "O=N(=O)C1=CC=C(C(I)=C1)C",
        "Molecular Formula": "C<sub>7</sub>H<sub>6</sub>INO<sub>2</sub>",
        "Molecular Mass": "263.03",
        "Boiling Point": "114-116 °C @ Press: 0.2 Torr",
        "Melting Point": "58 °C"
    }
}