{
    "cas_no": "24974-73-0",
    "key_name": "3-Chlorobenzylsulfonyl chloride",
    "cn_name": "3-氯苯基甲烷磺酰氯;",
    "alternate_name": "Benzenemethanesulfonyl chloride, 3-chloro-;α-Toluenesulfonyl chloride, <em>m</em>-chloro-;3-Chlorobenzenemethanesulfonyl chloride;<em>m</em>-Chlorobenzylsulfonyl chloride;(<em>m</em>-Chlorophenyl)methanesulfonyl chloride;(3-Chlorophenyl)methanesulfonyl chloride;3-Chlorobenzylsulfonyl chloride;(3-Chlorophenyl)methanesulfonic acid chloride",
    "duplicated_cas_no": "",
    "SMILES": "C(S(Cl)(=O)=O)C1=CC(Cl)=CC=C1",
    "meta_data": {
        "InChI": "InChI=1S/C7H6Cl2O2S/c8-7-3-1-2-6(4-7)5-12(9,10)11/h1-4H,5H2",
        "InChIKey": null,
        "Canonical SMILES": "O=S(=O)(Cl)CC=1C=CC=C(Cl)C1",
        "Molecular Formula": "C<sub>7</sub>H<sub>6</sub>Cl<sub>2</sub>O<sub>2</sub>S",
        "Molecular Mass": "225.09",
        "Melting Point": "72-73 °C"
    }
}