{
    "cas_no": "1187-74-2",
    "key_name": "1,4-Diethyl 2-(2-oxopropyl)butanedioate",
    "cn_name": "丙酮基丁二酸二乙酯;丙酮基琥珀酸二乙酯;",
    "alternate_name": "Butanedioic acid, 2-(2-oxopropyl)-, 1,4-diethyl ester;Succinic acid, acetonyl-, diethyl ester;Butanedioic acid, (2-oxopropyl)-, diethyl ester;1,4-Diethyl 2-(2-oxopropyl)butanedioate;Diethyl acetonylsuccinate;(2-Oxopropyl)butanedioic acid diethyl ester",
    "duplicated_cas_no": "",
    "SMILES": "C(CC(OCC)=O)(C(OCC)=O)CC(C)=O",
    "meta_data": {
        "InChI": "InChI=1S/C11H18O5/c1-4-15-10(13)7-9(6-8(3)12)11(14)16-5-2/h9H,4-7H2,1-3H3",
        "InChIKey": null,
        "Canonical SMILES": "O=C(OCC)CC(C(=O)OCC)CC(=O)C",
        "Molecular Formula": "C<sub>11</sub>H<sub>18</sub>O<sub>5</sub>",
        "Molecular Mass": "230.26",
        "Boiling Point": "135 °C @ Press: 1.3 Torr"
    }
}