{
    "cas_no": "35150-09-5",
    "key_name": "1,1-Dimethylethyl <em>N</em>-(2-amino-2-oxoethyl)carbamate",
    "cn_name": "Boc-甘氨酰胺; N-叔丁氧羰基-L-甘氨酰胺;",
    "alternate_name": "Carbamic acid, <em>N</em>-(2-amino-2-oxoethyl)-, 1,1-dimethylethyl ester;Carbamic acid, (2-amino-2-oxoethyl)-, 1,1-dimethylethyl ester;1,1-Dimethylethyl <em>N</em>-(2-amino-2-oxoethyl)carbamate;<em>N</em>-(<em>tert</em>-Butoxycarbonyl)glycine amide;Boc-glycinamide;<em>tert</em>-Butyl <em>N</em>-(2-amino-2-oxoethyl)carbamate;<em>tert</em>-Butyl <em>N</em>-(carbamoylmethyl)carbamate;<em>tert</em>-Butyl (2-amino-2-oxoethyl)carbamate",
    "duplicated_cas_no": "",
    "SMILES": "O(C(NCC(N)=O)=O)C(C)(C)C",
    "meta_data": {
        "InChI": "InChI=1S/C7H14N2O3/c1-7(2,3)12-6(11)9-4-5(8)10/h4H2,1-3H3,(H2,8,10)(H,9,11)",
        "InChIKey": null,
        "Canonical SMILES": "O=C(OC(C)(C)C)NCC(=O)N",
        "Molecular Formula": "C<sub>7</sub>H<sub>14</sub>N<sub>2</sub>O<sub>3</sub>",
        "Molecular Mass": "174.20",
        "Melting Point": "85-87 °C"
    }
}