{
    "cas_no": "604-32-0",
    "key_name": "Cholesteryl benzoate",
    "cn_name": "胆固醇苯甲酸酯;胆固醇安息香酸酯;",
    "alternate_name": "Cholest-5-en-3-ol (3β)-, 3-benzoate;Cholesterol, benzoate;Cholest-5-en-3-ol (3β)-, benzoate;Cholesteryl benzoate;3β-(Benzoyloxy)cholest-5-ene;Cholest-5-en-3β-yl benzoate;Cholesterol 3β-benzoate;Cholest-5-en-3β-ol benzoate;Benzoate cholesterol;Benzoic acid, cholesteryl ester",
    "duplicated_cas_no": "364375-77-9;904830-50-8;2214285-39-7",
    "SMILES": "C[C@@]12[C@@]3([C@]([C@]4([C@](C)(CC3)[C@@]([C@@H](CCCC(C)C)C)(CC4)[H])[H])(CC=C1C[C@@H](OC(=O)C5=CC=CC=C5)CC2)[H])[H]",
    "meta_data": {
        "InChI": "InChI=1S/C34H50O2/c1-23(2)10-9-11-24(3)29-16-17-30-28-15-14-26-22-27(36-32(35)25-12-7-6-8-13-25)18-20-33(26,4)31(28)19-21-34(29,30)5/h6-8,12-14,23-24,27-31H,9-11,15-22H2,1-5H3/t24-,27+,28+,29-,30+,31+,33+,34-/m1/s1",
        "InChIKey": null,
        "Canonical SMILES": "O=C(OC1CC2=CCC3C(CCC4(C)C(CCC34)C(C)CCCC(C)C)C2(C)CC1)C=5C=CC=CC5",
        "Molecular Formula": "C<sub>34</sub>H<sub>50</sub>O<sub>2</sub>",
        "Molecular Mass": "490.76",
        "Melting Point": "141 °C",
        "Density": "1.231 g/cm³"
    }
}