{
    "cas_no": "620621-48-9",
    "key_name": "Benzoic acid, 2-chloro-5-iodo-, methyl ester",
    "cn_name": null,
    "alternate_name": "Benzoic acid, 2-chloro-5-iodo-, methyl ester;2-Chloro-5-iodobenzoic acid methyl ester;Methyl 2-chloro-5-iodobenzoate",
    "duplicated_cas_no": "",
    "SMILES": "C(OC)(=O)C1=C(Cl)C=CC(I)=C1",
    "meta_data": {
        "InChI": "InChI=1S/C8H6ClIO2/c1-12-8(11)6-4-5(10)2-3-7(6)9/h2-4H,1H3",
        "InChIKey": null,
        "Canonical SMILES": "O=C(OC)C1=CC(I)=CC=C1Cl",
        "Molecular Formula": "C<sub>8</sub>H<sub>6</sub>ClIO<sub>2</sub>",
        "Molecular Mass": "296.49",
        "Melting Point": "40-42 °C"
    }
}