{
    "cas_no": "23997-94-6",
    "key_name": "5-Hydroxy-2-methylbenzoxazole",
    "cn_name": null,
    "alternate_name": "5-Benzoxazolol, 2-methyl-;2-Methyl-5-benzoxazolol;5-Hydroxy-2-methylbenzoxazole;2-Methyl-5-hydroxybenzoxazole;2-Methyl-1,3-benzoxazol-5-ol;2-Methylbenzoxazol-5-ol;2-Methylbenzo[<em>d</em>]oxazol-5-ol",
    "duplicated_cas_no": "",
    "SMILES": "CC=1OC=2C(N1)=CC(O)=CC2",
    "meta_data": {
        "InChI": "InChI=1S/C8H7NO2/c1-5-9-7-4-6(10)2-3-8(7)11-5/h2-4,10H,1H3",
        "InChIKey": null,
        "Canonical SMILES": "OC=1C=CC=2OC(=NC2C1)C",
        "Molecular Formula": "C<sub>8</sub>H<sub>7</sub>NO<sub>2</sub>",
        "Molecular Mass": "149.15",
        "Melting Point": "164-165 °C"
    }
}