{
    "cas_no": "5676-57-3",
    "key_name": "5-Methoxy-2-methylbenzoxazole",
    "cn_name": "5-甲氧基-2-甲基苯并恶唑;",
    "alternate_name": "Benzoxazole, 5-methoxy-2-methyl-;5-Methoxy-2-methylbenzoxazole",
    "duplicated_cas_no": "",
    "SMILES": "CC=1OC=2C(=CC(OC)=CC2)N1",
    "meta_data": {
        "InChI": "InChI=1S/C9H9NO2/c1-6-10-8-5-7(11-2)3-4-9(8)12-6/h3-5H,1-2H3",
        "InChIKey": null,
        "Canonical SMILES": "N1=C(OC=2C=CC(OC)=CC12)C",
        "Molecular Formula": "C<sub>9</sub>H<sub>9</sub>NO<sub>2</sub>",
        "Molecular Mass": "163.17",
        "Melting Point": "32-34 °C"
    }
}