{
    "cas_no": "556-03-6",
    "key_name": "<span class=\"text-smallcaps\">DL</span>-Tyrosine",
    "cn_name": "DL-酪氨酸;3-(4-羟基苯基)-DL-丙氨酸;",
    "alternate_name": "Tyrosine;Tyrosine, <span class=\"text-smallcaps\">DL</span>-;<span class=\"text-smallcaps\">DL</span>-Tyrosine;(±)-Tyrosine;<span class=\"text-smallcaps\">DL</span>-<em>p</em>-Tyrosine;NSC 205006;2-Amino-3-(4-hydroxyphenyl)propanoic acid;<span class=\"text-smallcaps\">D</smallcap>,<smallcap>L</span>-Tyrosine;<span class=\"text-smallcaps\">DL</span>-4-Hydroxyphenylalanine;α-Amino-4-hydroxybenzenepropanoic acid;2-Azaniumyl-3-(4-hydroxyphenyl)propanoate",
    "duplicated_cas_no": "",
    "SMILES": "C(C(C(O)=O)N)C1=CC=C(O)C=C1",
    "meta_data": {
        "InChI": "InChI=1S/C9H11NO3/c10-8(9(12)13)5-6-1-3-7(11)4-2-6/h1-4,8,11H,5,10H2,(H,12,13)",
        "InChIKey": null,
        "Canonical SMILES": "O=C(O)C(N)CC1=CC=C(O)C=C1",
        "Molecular Formula": "C<sub>9</sub>H<sub>11</sub>NO<sub>3</sub>",
        "Molecular Mass": "181.19",
        "Melting Point": "325 °C (decomp)"
    }
}