{
    "cas_no": "111-66-0",
    "key_name": "1-Octene",
    "cn_name": "1-辛烯;",
    "alternate_name": "1-Octene;α-Octene;α-Octylene;<em>n</em>-1-Octene;Caprylene;1-<em>n</em>-Octene;Gulftene 8;Dialen 8;<em>n</em>-octene-1;NSC 8457;Linealene 8;Octa-1-ene",
    "duplicated_cas_no": "",
    "SMILES": "C(CCC=C)CCC",
    "meta_data": {
        "InChI": "InChI=1S/C8H16/c1-3-5-7-8-6-4-2/h3H,1,4-8H2,2H3",
        "InChIKey": null,
        "Canonical SMILES": "C=CCCCCCC",
        "Molecular Formula": "C<sub>8</sub>H<sub>16</sub>",
        "Molecular Mass": "112.21",
        "Boiling Point": "121.2 °C @ Press: 760 Torr",
        "Melting Point": "-101.7 °C",
        "Density": "0.7149 g/cm³ @ Temp: 20 °C"
    }
}