{
    "cas_no": "20859-02-3",
    "key_name": "<span class=\"text-smallcaps\">L</span>-<em>tert</em>-Leucine",
    "cn_name": "L-叔亮氨酸;",
    "alternate_name": "<span class=\"text-smallcaps\">L</span>-Valine, 3-methyl-;Butyric acid, 2-amino-3,3-dimethyl-, <span class=\"text-smallcaps\">L</span>-;3-Methyl-<span class=\"text-smallcaps\">L</span>-valine;<span class=\"text-smallcaps\">L</span>-<em>tert</em>-Leucine;β-Methyl-<span class=\"text-smallcaps\">L</span>-valine;<span class=\"text-smallcaps\">L</span>-Pseudoleucine;(<em>S</em>)-<em>tert</em>-Leucine;<span class=\"text-smallcaps\">L</span>-2-Amino-3,3-dimethylbutyric acid;<em>tert</em>-<span class=\"text-smallcaps\">L</span>-Leucine;(<em>S</em>)-<em>tert</em>-Butylglycine;<span class=\"text-smallcaps\">L</span>-<em>tert</em>-Butylglycine;(2<em>S</em>)-2-Amino-3,3-dimethylbutanoic acid;(<em>S</em>)-2-Amino-3,3-dimethylbutyric acid;NSC 203785;<em>tert</em>-Butyl-<span class=\"text-smallcaps\">L</span>-glycine;(<em>S</em>)-2-Amino-3,3-dimethylbutanoic acid",
    "duplicated_cas_no": "",
    "SMILES": "[C@H](C(C)(C)C)(C(O)=O)N",
    "meta_data": {
        "InChI": "InChI=1S/C6H13NO2/c1-6(2,3)4(7)5(8)9/h4H,7H2,1-3H3,(H,8,9)/t4-/m1/s1",
        "InChIKey": null,
        "Canonical SMILES": "O=C(O)C(N)C(C)(C)C",
        "Molecular Formula": "C<sub>6</sub>H<sub>13</sub>NO<sub>2</sub>",
        "Molecular Mass": "131.17",
        "Melting Point": "252-256 °C"
    }
}