{
    "cas_no": "12082-08-5",
    "key_name": "(η<sup>6</sup>-Benzene)tricarbonylchromium",
    "cn_name": "苯三羰基铬;",
    "alternate_name": "Chromium, (η<sup>6</sup>-benzene)tricarbonyl-;Chromium, (benzene)tricarbonyl-;Benzenechromium tricarbonyl;(η<sup>6</sup>-Benzene)tricarbonylchromium;Benchrotrene;π-Benzenetricarbonylchromium;(Benzene)tricarbonylchromium;Benzenechromotricarbonyl;π-Benzenechromium tricarbonyl;Benzenetricarbonyl chromium(0);η<sup>6</sup>-Benzenetricarbonylchromium;Tricarbonylbenzene chromium;η<sup>6</sup>-Benzenechromium tricarbonyl",
    "duplicated_cas_no": "",
    "SMILES": "C(#O)[Cr]12345(C#O)(C#O)[CH]=6[CH]1=[CH]2[CH]3=[CH]4[CH]56",
    "meta_data": {
        "InChI": "InChI=1S/C6H6.3CO.Cr/c1-2-4-6-5-3-1;3*1-2;/h1-6H;;;;",
        "InChIKey": null,
        "Canonical SMILES": "O#C[Cr]12345(C#O)(C#O)[CH]=6[CH]5=[CH]4[CH]3=[CH]2[CH]61",
        "Molecular Formula": "C<sub>9</sub>H<sub>6</sub>CrO<sub>3</sub>",
        "Molecular Mass": "",
        "Melting Point": "163-165 °C"
    }
}