{
    "cas_no": "13524-04-4",
    "key_name": "1-(2-Chlorophenyl)ethanol",
    "cn_name": "1-(2-氯苯基)-1-乙醇;",
    "alternate_name": "Benzenemethanol, 2-chloro-α-methyl-;Benzyl alcohol, <em>o</em>-chloro-α-methyl-;2-Chloro-α-methylbenzenemethanol;α-(<em>o</em>-Chlorophenyl)ethanol;1-(2-Chlorophenyl)ethanol;(±)-1-(2-Chlorophenyl)ethanol;1-(<em>o</em>-Chlorophenyl)ethanol;(±)-1-(<em>o</em>-Chlorophenyl)ethanol;1-(2-Chlorophenyl)-1-ethanol",
    "duplicated_cas_no": "132437-66-2",
    "SMILES": "C(C)(O)C1=C(Cl)C=CC=C1",
    "meta_data": {
        "InChI": "InChI=1S/C8H9ClO/c1-6(10)7-4-2-3-5-8(7)9/h2-6,10H,1H3",
        "InChIKey": null,
        "Canonical SMILES": "ClC=1C=CC=CC1C(O)C",
        "Molecular Formula": "C<sub>8</sub>H<sub>9</sub>ClO",
        "Molecular Mass": "156.61",
        "Boiling Point": "115-116 °C @ Press: 12 Torr",
        "Density": "1.355 g/cm³ @ Temp: 20 °C"
    }
}