{
    "cas_no": "23233-33-2",
    "key_name": "Benzoic acid, 3-bromo-4-fluoro-, ethyl ester",
    "cn_name": null,
    "alternate_name": "Benzoic acid, 3-bromo-4-fluoro-, ethyl ester;3-Bromo-4-fluorobenzoic acid ethyl ester;Ethyl 3-bromo-4-fluorobenzoate",
    "duplicated_cas_no": "",
    "SMILES": "C(OCC)(=O)C1=CC(Br)=C(F)C=C1",
    "meta_data": {
        "InChI": "InChI=1S/C9H8BrFO2/c1-2-13-9(12)6-3-4-8(11)7(10)5-6/h3-5H,2H2,1H3",
        "InChIKey": null,
        "Canonical SMILES": "O=C(OCC)C1=CC=C(F)C(Br)=C1",
        "Molecular Formula": "C<sub>9</sub>H<sub>8</sub>BrFO<sub>2</sub>",
        "Molecular Mass": "247.06",
        "Melting Point": "44-45 °C"
    }
}