{
    "cas_no": "41317-15-1",
    "key_name": "4-Methoxy-2-methyl-<em>N</em>-phenylbenzenamine",
    "cn_name": "2-甲基-4-甲氧基二苯胺;",
    "alternate_name": "Benzenamine, 4-methoxy-2-methyl-<em>N</em>-phenyl-;<em>p</em>-Anisidine, 2-methyl-<em>N</em>-phenyl-;4-Methoxy-2-methyl-<em>N</em>-phenylbenzenamine;2-Methyl-4-methoxydiphenylamine;3-Methoxy-6-anilinotoluene;4-Methoxy-2-methyldiphenylamine;6-Anilino-3-methoxytoluene;<em>N</em>-(2-Methyl-4-methoxyphenyl)aniline;4-Methoxy-2-methyl-<em>N</em>-phenylaniline;<em>N</em>-(4-Methoxy-2-methylphenyl)-<em>N</em>-phenylamine",
    "duplicated_cas_no": "",
    "SMILES": "N(C1=C(C)C=C(OC)C=C1)C2=CC=CC=C2",
    "meta_data": {
        "InChI": "InChI=1S/C14H15NO/c1-11-10-13(16-2)8-9-14(11)15-12-6-4-3-5-7-12/h3-10,15H,1-2H3",
        "InChIKey": null,
        "Canonical SMILES": "O(C1=CC=C(NC=2C=CC=CC2)C(=C1)C)C",
        "Molecular Formula": "C<sub>14</sub>H<sub>15</sub>NO",
        "Molecular Mass": "213.27",
        "Boiling Point": "165-171 °C @ Press: 4 Torr",
        "Melting Point": "82 °C"
    }
}