{
    "cas_no": "760-93-0",
    "key_name": "Methacrylic anhydride",
    "cn_name": "2-甲基丙烯酸酐;",
    "alternate_name": "2-Propenoic acid, 2-methyl-, 1,1′-anhydride;Methacrylic anhydride;2-Propenoic acid, 2-methyl-, anhydride;Methacrylic acid anhydride;Methacryloyl anhydride;NSC 24159;Bis(methacrylic acid) anhydride;Dimethacrylic acid anhydride;Norsocryl 500;2-Methylprop-2-enoyl 2-methylprop-2-enoate",
    "duplicated_cas_no": "1801647-10-8;2055573-68-5",
    "SMILES": "C(OC(C(C)=C)=O)(C(C)=C)=O",
    "meta_data": {
        "InChI": "InChI=1S/C8H10O3/c1-5(2)7(9)11-8(10)6(3)4/h1,3H2,2,4H3",
        "InChIKey": null,
        "Canonical SMILES": "O=C(OC(=O)C(=C)C)C(=C)C",
        "Molecular Formula": "C<sub>8</sub>H<sub>10</sub>O<sub>3</sub>",
        "Molecular Mass": "154.16",
        "Boiling Point": "89 °C @ Press: 5 Torr",
        "Density": "1.035 g/cm³"
    }
}