{
    "cas_no": "139147-73-2",
    "key_name": "1,1′-(Dichlorosilylene)bis[cyclopentane]",
    "cn_name": null,
    "alternate_name": "Cyclopentane, 1,1′-(dichlorosilylene)bis-;Silane, dichlorodicyclopentyl-;1,1′-(Dichlorosilylene)bis[cyclopentane];Dichlorodicyclopentylsilane;Dicyclopentyldichlorosilane;Dichlorobis(cyclopentyl)silane",
    "duplicated_cas_no": "",
    "SMILES": "[Si](Cl)(Cl)(C1CCCC1)C2CCCC2",
    "meta_data": {
        "InChI": "InChI=1S/C10H18Cl2Si/c11-13(12,9-5-1-2-6-9)10-7-3-4-8-10/h9-10H,1-8H2",
        "InChIKey": null,
        "Canonical SMILES": "Cl[Si](Cl)(C1CCCC1)C2CCCC2",
        "Molecular Formula": "C<sub>10</sub>H<sub>18</sub>Cl<sub>2</sub>Si",
        "Molecular Mass": "237.24",
        "Boiling Point": "105-107 °C @ Press: 10 Torr",
        "Density": "1.110 g/cm³"
    }
}