{
    "cas_no": "1663-67-8",
    "key_name": "Malonyl chloride",
    "cn_name": "丙二酰氯;",
    "alternate_name": "Propanedioyl dichloride;Malonyl chloride;Malonoyl chloride;Malonoyl dichloride;Malonyl dichloride;Malonic acid dichloride;Malonic acid chloride;NSC 66410;1,3-Dichloro-1,3-propanedione",
    "duplicated_cas_no": "",
    "SMILES": "C(C(Cl)=O)C(Cl)=O",
    "meta_data": {
        "InChI": "InChI=1S/C3H2Cl2O2/c4-2(6)1-3(5)7/h1H2",
        "InChIKey": null,
        "Canonical SMILES": "O=C(Cl)CC(=O)Cl",
        "Molecular Formula": "C<sub>3</sub>H<sub>2</sub>Cl<sub>2</sub>O<sub>2</sub>",
        "Molecular Mass": "140.95",
        "Boiling Point": "58-60 °C @ Press: 28 Torr"
    }
}