{
    "cas_no": "606-83-7",
    "key_name": "Diphenylpropionic acid",
    "cn_name": "3,3-二苯基丙酸;",
    "alternate_name": "Benzenepropanoic acid, β-phenyl-;Propionic acid, 3,3-diphenyl-;β-Phenylbenzenepropanoic acid;Diphenylpropionic acid;3,3-Diphenylpropanoic acid;3,3-Diphenylpropionic acid;NSC 631492;NSC 6797",
    "duplicated_cas_no": "",
    "SMILES": "C(CC(O)=O)(C1=CC=CC=C1)C2=CC=CC=C2",
    "meta_data": {
        "InChI": "InChI=1S/C15H14O2/c16-15(17)11-14(12-7-3-1-4-8-12)13-9-5-2-6-10-13/h1-10,14H,11H2,(H,16,17)",
        "InChIKey": null,
        "Canonical SMILES": "O=C(O)CC(C=1C=CC=CC1)C=2C=CC=CC2",
        "Molecular Formula": "C<sub>15</sub>H<sub>14</sub>O<sub>2</sub>",
        "Molecular Mass": "226.27",
        "Melting Point": "154-155 °C"
    }
}