{
    "cas_no": "101530-10-3",
    "key_name": "Lanoconazole",
    "cn_name": "拉诺康唑;兰诺康唑;[4-(2-氯苯基)-1,3-亚二硫戊环-2-基]-2-咪唑-1-基-乙腈;",
    "alternate_name": "1<em>H</em>-Imidazole-1-acetonitrile, α-[4-(2-chlorophenyl)-1,3-dithiolan-2-ylidene]-, (α<em>E</em>)-;1<em>H</em>-Imidazole-1-acetonitrile, α-[4-(2-chlorophenyl)-1,3-dithiolan-2-ylidene]-, (<em>E</em>)-(±)-;(α<em>E</em>)-α-[4-(2-Chlorophenyl)-1,3-dithiolan-2-ylidene]-1<em>H</em>-imidazole-1-acetonitrile;Latoconazole;Lanoconazole;NND 318;TJN 318;1<em>H</em>-Imidazole-1-acetonitrile, α-[4-(2-chlorophenyl)-1,3-dithiolan-2-ylidene]-, (<em>E</em>)-;Astat",
    "duplicated_cas_no": "153222-93-6",
    "SMILES": "C(\\C#N)(=C/1\\SC(CS1)C2=C(Cl)C=CC=C2)/N3C=CN=C3",
    "meta_data": {
        "InChI": "InChI=1/C14H10ClN3S2/c15-11-4-2-1-3-10(11)13-8-19-14(20-13)12(7-16)18-6-5-17-9-18/h1-6,9,13H,8H2/b14-12+",
        "InChIKey": null,
        "Canonical SMILES": "N#CC(=C1SCC(S1)C=2C=CC=CC2Cl)N3C=NC=C3",
        "Molecular Formula": "C<sub>14</sub>H<sub>10</sub>ClN<sub>3</sub>S<sub>2</sub>",
        "Molecular Mass": "319.83",
        "Melting Point": "141.5 °C"
    }
}