{
    "cas_no": "4547-43-7",
    "key_name": "Hexanoic acid, 6-hydroxy-, methyl ester",
    "cn_name": null,
    "alternate_name": "Hexanoic acid, 6-hydroxy-, methyl ester;6-Hydroxyhexanoic acid methyl ester;Methyl ε-hydroxycaproate;Methyl 6-hydroxycaproate;Methyl 6-hydroxyhexanoate;5-Methoxycarbonylpentanol;6-Hydroxycaproic acid methyl ester",
    "duplicated_cas_no": "",
    "SMILES": "C(CCCCCO)(OC)=O",
    "meta_data": {
        "InChI": "InChI=1S/C7H14O3/c1-10-7(9)5-3-2-4-6-8/h8H,2-6H2,1H3",
        "InChIKey": null,
        "Canonical SMILES": "O=C(OC)CCCCCO",
        "Molecular Formula": "C<sub>7</sub>H<sub>14</sub>O<sub>3</sub>",
        "Molecular Mass": "146.18",
        "Boiling Point": "123 °C @ Press: 12 Torr",
        "Melting Point": "123-124 °C",
        "Density": "1.0214 g/cm³ @ Temp: 20 °C"
    }
}