{
    "cas_no": "5961-55-7",
    "key_name": "4-Methoxy-1-naphthalenecarbonitrile",
    "cn_name": "4-甲氧基-1-萘甲腈;",
    "alternate_name": "1-Naphthalenecarbonitrile, 4-methoxy-;1-Naphthonitrile, 4-methoxy-;4-Methoxy-1-naphthalenecarbonitrile;1-Cyano-4-methoxynaphthalene;4-Methoxy-1-naphthonitrile",
    "duplicated_cas_no": "",
    "SMILES": "C(#N)C=1C2=C(C(OC)=CC1)C=CC=C2",
    "meta_data": {
        "InChI": "InChI=1S/C12H9NO/c1-14-12-7-6-9(8-13)10-4-2-3-5-11(10)12/h2-7H,1H3",
        "InChIKey": null,
        "Canonical SMILES": "N#CC1=CC=C(OC)C=2C=CC=CC12",
        "Molecular Formula": "C<sub>12</sub>H<sub>9</sub>NO",
        "Molecular Mass": "183.21",
        "Melting Point": "104 °C"
    }
}