{
    "cas_no": "31575-93-6",
    "key_name": "(+)-Heraclenol",
    "cn_name": null,
    "alternate_name": "7<em>H</em>-Furo[3,2-<em>g</em>][1]benzopyran-7-one, 9-[(2<em>R</em>)-2,3-dihydroxy-3-methylbutoxy]-;7<em>H</em>-Furo[3,2-<em>g</em>][1]benzopyran-7-one, 9-(2,3-dihydroxy-3-methylbutoxy)-, stereoisomer;7<em>H</em>-Furo[3,2-<em>g</em>][1]benzopyran-7-one, 9-(2,3-dihydroxy-3-methylbutoxy)-, (<em>R</em>)-;5-Benzofuranacrylic acid, 7-(2,3-dihydroxy-3-methylbutoxy)-6-hydroxy-, δ-lactone;9-[(2<em>R</em>)-2,3-Dihydroxy-3-methylbutoxy]-7<em>H</em>-furo[3,2-<em>g</em>][1]benzopyran-7-one;Komalin;Prangenin hydrate;Heraclenol;Heraclenin oxide;(+)-Heraclenol;NSC 306227",
    "duplicated_cas_no": "2817-09-6;26091-76-9",
    "SMILES": "O(C[C@H](C(C)(C)O)O)C=1C2=C(C=C3C1OC=C3)C=CC(=O)O2",
    "meta_data": {
        "InChI": "InChI=1S/C16H16O6/c1-16(2,19)11(17)8-21-15-13-10(5-6-20-13)7-9-3-4-12(18)22-14(9)15/h3-7,11,17,19H,8H2,1-2H3/t11-/m1/s1",
        "InChIKey": null,
        "Canonical SMILES": "O=C1OC=2C(C=C1)=CC=3C=COC3C2OCC(O)C(O)(C)C",
        "Molecular Formula": "C<sub>16</sub>H<sub>16</sub>O<sub>6</sub>",
        "Molecular Mass": "304.29",
        "Melting Point": "129-130 °C"
    }
}