{
    "cas_no": "348-36-7",
    "key_name": "1<em>H</em>-Indole-2-carboxylic acid, 5-fluoro-, ethyl ester",
    "cn_name": "5-氟吲哚-2-甲酸乙酯;5-氟吲哚-2-甲酸乙酯;",
    "alternate_name": "1<em>H</em>-Indole-2-carboxylic acid, 5-fluoro-, ethyl ester;Indole-2-carboxylic acid, 5-fluoro-, ethyl ester;Ethyl 5-fluoroindole-2-carboxylate;5-Fluoro-1<em>H</em>-indole-2-carboxylic acid ethyl ester;5-Fluoroindole-2-carboxylic acid ethyl ester;Ethyl 5-fluoro-1<em>H</em>-indole-2-carboxylate",
    "duplicated_cas_no": "",
    "SMILES": "C(OCC)(=O)C1=CC=2C(N1)=CC=C(F)C2",
    "meta_data": {
        "InChI": "InChI=1S/C11H10FNO2/c1-2-15-11(14)10-6-7-5-8(12)3-4-9(7)13-10/h3-6,13H,2H2,1H3",
        "InChIKey": null,
        "Canonical SMILES": "O=C(OCC)C1=CC=2C=C(F)C=CC2N1",
        "Molecular Formula": "C<sub>11</sub>H<sub>10</sub>FNO<sub>2</sub>",
        "Molecular Mass": "207.20",
        "Melting Point": "148 °C"
    }
}