{
    "cas_no": "4441-56-9",
    "key_name": "<em>B</em>-Cyclohexylboronic acid",
    "cn_name": "环己基硼酸;",
    "alternate_name": "Boronic acid, <em>B</em>-cyclohexyl-;Cyclohexaneboronic acid;Boronic acid, cyclohexyl-;<em>B</em>-Cyclohexylboronic acid;Cyclohexylboronic acid;Cyclohexylboric acid",
    "duplicated_cas_no": "",
    "SMILES": "B(O)(O)C1CCCCC1",
    "meta_data": {
        "InChI": "InChI=1S/C6H13BO2/c8-7(9)6-4-2-1-3-5-6/h6,8-9H,1-5H2",
        "InChIKey": null,
        "Canonical SMILES": "OB(O)C1CCCCC1",
        "Molecular Formula": "C<sub>6</sub>H<sub>13</sub>BO<sub>2</sub>",
        "Molecular Mass": "127.98",
        "Melting Point": "115-116 °C"
    }
}