{
    "cas_no": "51591-75-4",
    "key_name": "<em>cis</em>-1,3-Dibenzyl-2-imidazolidone-4,5-dicarboxylic acid",
    "cn_name": "顺1,3-二苄基咪唑-2-酮-4,5-二羧酸;",
    "alternate_name": "4,5-Imidazolidinedicarboxylic acid, 2-oxo-1,3-bis(phenylmethyl)-, (4<em>R</em>,5<em>S</em>)-<em>rel</em>-;4,5-Imidazolidinedicarboxylic acid, 2-oxo-1,3-bis(phenylmethyl)-, <em>cis</em>-;4,5-Imidazolidinedicarboxylic acid, 1,3-dibenzyl-2-oxo-, <em>cis</em>-;<em>rel</em>-(4<em>R</em>,5<em>S</em>)-2-Oxo-1,3-bis(phenylmethyl)-4,5-imidazolidinedicarboxylic acid;(4<em>R</em>,5<em>S</em>)-<em>rel</em>-2-Oxo-1,3-bis(phenylmethyl)-4,5-imidazolidinedicarboxylic acid;<em>cis</em>-1,3-Dibenzyl-2-imidazolidone-4,5-dicarboxylic acid;<em>cis</em>-1,3-Dibenzyl-2-oxo-4,5-imidazolidinedicarboxylic acid",
    "duplicated_cas_no": "",
    "SMILES": "C(O)(=O)[C@H]1[C@@H](C(O)=O)N(CC2=CC=CC=C2)C(=O)N1CC3=CC=CC=C3",
    "meta_data": {
        "InChI": "InChI=1/C19H18N2O5/c22-17(23)15-16(18(24)25)21(12-14-9-5-2-6-10-14)19(26)20(15)11-13-7-3-1-4-8-13/h1-10,15-16H,11-12H2,(H,22,23)(H,24,25)/t15-,16+",
        "InChIKey": null,
        "Canonical SMILES": "O=C(O)C1N(C(=O)N(CC=2C=CC=CC2)C1C(=O)O)CC=3C=CC=CC3",
        "Molecular Formula": "C<sub>19</sub>H<sub>18</sub>N<sub>2</sub>O<sub>5</sub>",
        "Molecular Mass": "354.36",
        "Melting Point": "236 °C"
    }
}