{
    "cas_no": "2439-54-5",
    "key_name": "<em>N</em>-Methyloctylamine",
    "cn_name": "N-甲基辛胺;",
    "alternate_name": "1-Octanamine, <em>N</em>-methyl-;Octylamine, <em>N</em>-methyl-;<em>N</em>-Methyl-1-octanamine;Octylmethylamine;<em>N</em>-Methyl-<em>n</em>-octylamine;<em>N</em>-Methyloctylamine;Methyloctylamine;<em>N</em>-Octyl-<em>N</em>-methylamine;<em>N</em>-Methyl-<em>N</em>-<em>n</em>-octylamine",
    "duplicated_cas_no": "",
    "SMILES": "C(CCCNC)CCCC",
    "meta_data": {
        "InChI": "InChI=1S/C9H21N/c1-3-4-5-6-7-8-9-10-2/h10H,3-9H2,1-2H3",
        "InChIKey": null,
        "Canonical SMILES": "N(C)CCCCCCCC",
        "Molecular Formula": "C<sub>9</sub>H<sub>21</sub>N",
        "Molecular Mass": "143.27",
        "Boiling Point": "78-79 °C"
    }
}