{
    "cas_no": "10469-09-7",
    "key_name": "Tetrachloropicolinic acid",
    "cn_name": "四氯吡啶甲酸;3,4,5,6-四氯吡啶-2-羧酸;",
    "alternate_name": "2-Pyridinecarboxylic acid, 3,4,5,6-tetrachloro-;Picolinic acid, tetrachloro-;Picolinic acid, 3,4,5,6-tetrachloro-;3,4,5,6-Tetrachloro-2-pyridinecarboxylic acid;Tetrachloropicolinic acid;Tetrachloro-2-pyridinecarboxylic acid;3,4,5,6-Tetrachloropicolinic acid;2,3,4,5-Tetrachloro-6-pyridinecarboxylic acid;Tetrachloro-2-picolinic acid;3,4,5,6-Tetrachloropyridine-2-carboxylic acid",
    "duplicated_cas_no": "",
    "SMILES": "C(O)(=O)C1=C(Cl)C(Cl)=C(Cl)C(Cl)=N1",
    "meta_data": {
        "InChI": "InChI=1S/C6HCl4NO2/c7-1-2(8)4(6(12)13)11-5(10)3(1)9/h(H,12,13)",
        "InChIKey": null,
        "Canonical SMILES": "O=C(O)C1=NC(Cl)=C(Cl)C(Cl)=C1Cl",
        "Molecular Formula": "C<sub>6</sub>HCl<sub>4</sub>NO<sub>2</sub>",
        "Molecular Mass": "260.89",
        "Melting Point": "170-172 °C"
    }
}