{
    "cas_no": "4783-68-0",
    "key_name": "2-Phenoxypyridine",
    "cn_name": "2-苯氧基吡啶;2-苯氧基吡啶;",
    "alternate_name": "Pyridine, 2-phenoxy-;2-Phenoxypyridine;NSC 85906",
    "duplicated_cas_no": "",
    "SMILES": "O(C1=CC=CC=C1)C2=CC=CC=N2",
    "meta_data": {
        "InChI": "InChI=1S/C11H9NO/c1-2-6-10(7-3-1)13-11-8-4-5-9-12-11/h1-9H",
        "InChIKey": null,
        "Canonical SMILES": "N=1C=CC=CC1OC=2C=CC=CC2",
        "Molecular Formula": "C<sub>11</sub>H<sub>9</sub>NO",
        "Molecular Mass": "171.20",
        "Boiling Point": "277-277.5 °C",
        "Melting Point": "46-48 °C"
    }
}