{
    "cas_no": "123-91-1",
    "key_name": "1,4-Dioxane",
    "cn_name": "1,4-二氧六环;1,4-二氧己环;1,4-二氧杂环己烷;二噁烷;",
    "alternate_name": "1,4-Dioxane;<em>p</em>-Dioxane;Diethylene dioxide;Diethylene ether;Diethylene oxide;1,4-Dioxacyclohexane;1,4-Diethylene dioxide;Dioxyethylene ether;1,4-Dioxin, tetrahydro-;Dioxane;<em>p</em>-Dioxan;Dioxan;1,4-Dioxan;NE 220;NSC 8728",
    "duplicated_cas_no": "28347-88-8;28347-91-3;39449-24-6;54841-74-6",
    "SMILES": "C1COCCO1",
    "meta_data": {
        "InChI": "InChI=1S/C4H8O2/c1-2-6-4-3-5-1/h1-4H2",
        "InChIKey": null,
        "Canonical SMILES": "O1CCOCC1",
        "Molecular Formula": "C<sub>4</sub>H<sub>8</sub>O<sub>2</sub>",
        "Molecular Mass": "88.11",
        "Boiling Point": "101.1 °C @ Press: 760 Torr",
        "Melting Point": "11.80 °C",
        "Density": "1.0337 g/cm³ @ Temp: 20 °C"
    }
}