{
    "cas_no": "68104-63-2",
    "key_name": "4-(1-Piperazinyl)benzonitrile",
    "cn_name": null,
    "alternate_name": "Benzonitrile, 4-(1-piperazinyl)-;4-(1-Piperazinyl)benzonitrile;1-(4-Cyanophenyl)piperazine;4-Piperazinylbenzenecarbonitrile;<em>N</em>-(4-Cyanophenyl)piperazine;4-Piperazinobenzonitrile",
    "duplicated_cas_no": "",
    "SMILES": "C(#N)C1=CC=C(C=C1)N2CCNCC2",
    "meta_data": {
        "InChI": "InChI=1S/C11H13N3/c12-9-10-1-3-11(4-2-10)14-7-5-13-6-8-14/h1-4,13H,5-8H2",
        "InChIKey": null,
        "Canonical SMILES": "N#CC1=CC=C(C=C1)N2CCNCC2",
        "Molecular Formula": "C<sub>11</sub>H<sub>13</sub>N<sub>3</sub>",
        "Molecular Mass": "187.24",
        "Melting Point": "65-66 °C"
    }
}