{
    "cas_no": "118134-30-8",
    "key_name": "Spiroxamine",
    "cn_name": "螺环菌胺; 螺噁茂胺; 螺恶茂胺; N-乙基-N-丙基-8-叔丁基-1,4-二氧杂螺[4.5]癸烷-2-甲胺;",
    "alternate_name": "1,4-Dioxaspiro[4.5]decane-2-methanamine, 8-(1,1-dimethylethyl)-<em>N</em>-ethyl-<em>N</em>-propyl-;8-(1,1-Dimethylethyl)-<em>N</em>-ethyl-<em>N</em>-propyl-1,4-dioxaspiro[4.5]decane-2-methanamine;KWG 4168;Spiroxamine;Spiroketalamine;Impulse;Impulse (pesticide);Prosper;Prosper (fungicide);Prosper Hoggar;(8-<em>tert</em>-Butyl-1,4-dioxa-spiro[4.5]dec-2-ylmethyl)-ethyl-propyl-amine",
    "duplicated_cas_no": "1135443-61-6",
    "SMILES": "C(N(CCC)CC)C1OC2(OC1)CCC(C(C)(C)C)CC2",
    "meta_data": {
        "InChI": "InChI=1S/C18H35NO2/c1-6-12-19(7-2)13-16-14-20-18(21-16)10-8-15(9-11-18)17(3,4)5/h15-16H,6-14H2,1-5H3",
        "InChIKey": null,
        "Canonical SMILES": "O1CC(OC12CCC(CC2)C(C)(C)C)CN(CC)CCC",
        "Molecular Formula": "C<sub>18</sub>H<sub>35</sub>NO<sub>2</sub>",
        "Molecular Mass": "297.48",
        "Melting Point": "&lt;25 °C"
    }
}