{
    "cas_no": "749875-07-8",
    "key_name": "2-Bromo-6-(trifluoromethyl)-3-pyridinecarboxylic acid",
    "cn_name": null,
    "alternate_name": "3-Pyridinecarboxylic acid, 2-bromo-6-(trifluoromethyl)-;2-Bromo-6-(trifluoromethyl)-3-pyridinecarboxylic acid;2-Bromo-6-(trifluoromethyl)nicotinic acid",
    "duplicated_cas_no": "",
    "SMILES": "C(F)(F)(F)C=1N=C(Br)C(C(O)=O)=CC1",
    "meta_data": {
        "InChI": "InChI=1S/C7H3BrF3NO2/c8-5-3(6(13)14)1-2-4(12-5)7(9,10)11/h1-2H,(H,13,14)",
        "InChIKey": null,
        "Canonical SMILES": "O=C(O)C=1C=CC(=NC1Br)C(F)(F)F",
        "Molecular Formula": "C<sub>7</sub>H<sub>3</sub>BrF<sub>3</sub>NO<sub>2</sub>",
        "Molecular Mass": "270.00",
        "Melting Point": "116-119 °C"
    }
}