{
    "cas_no": "223437-05-6",
    "key_name": "<em>N</em>-Methyl-<em>N</em>-propylpyrrolidinium bis(trifluoromethanesulfonyl)imide",
    "cn_name": null,
    "alternate_name": "Pyrrolidinium, 1-methyl-1-propyl-, salt with 1,1,1-trifluoro-<em>N</em>-[(trifluoromethyl)sulfonyl]methanesulfonamide (1:1);Methanesulfonamide, 1,1,1-trifluoro-<em>N</em>-[(trifluoromethyl)sulfonyl]-, ion(1-), 1-methyl-1-propylpyrrolidinium;1-Methyl-1-propylpyrrolidinium bis(trifluoromethylsulfonyl)imide;<em>N</em>-Methyl-<em>N</em>-propylpyrrolidinium bis(trifluoromethanesulfonyl)imide;Elexcel IL 220;<em>N</em>-Propyl-<em>N</em>-methylpyrrolidinium bis(trifluoromethylsulfonyl)imide;1-Methyl-1-propylpyrrolidinium bis(trifluoromethanesulfonyl)imide;1-Propyl-1-methyl-pyrrolidinium bis(trifluoromethanesulfonyl)imide;<em>N</em>-Methyl-<em>N</em>-propylpyrrolidinium bis(trifluoromethanesulfonyl)amide;IL 220;1-Propyl-1-methylpyrrolidinium bis(trifluoromethylsulfonyl)imide;1-Methyl-1-propylpyrrolidinium bis[(trifluoromethyl)sulfonyl]amide;<em>N</em>-Propyl-<em>N</em>-methylpyrrolidinium bis(trifluoromethanesulfonyl)imide;Methylpropylpyrrolidinium bis(trifluoromethanesulfonyl)imide;1-Methyl-<em>N</em>-propylpyrrolidinium bis(trifluoromethylsulfonyl)imide;1-Methyl-1-propylpyrrolidinium bis[(trifluoromethyl)sulfonyl]azanide;[PYR<sub>13</sub>][TFSA]",
    "duplicated_cas_no": "",
    "SMILES": "C(CC)[N+]1(C)CCCC1.S([N-]S(C(F)(F)F)(=O)=O)(C(F)(F)F)(=O)=O",
    "meta_data": {
        "InChI": "InChI=1S/C8H18N.C2F6NO4S2/c1-3-6-9(2)7-4-5-8-9;3-1(4,5)14(10,11)9-15(12,13)2(6,7)8/h3-8H2,1-2H3;/q+1;-1",
        "InChIKey": null,
        "Canonical SMILES": "O=S(=O)([N-]S(=O)(=O)C(F)(F)F)C(F)(F)F.CCC[N+]1(C)CCCC1",
        "Molecular Formula": "C<sub>8</sub>H<sub>18</sub>N.C<sub>2</sub>F<sub>6</sub>NO<sub>4</sub>S<sub>2</sub>",
        "Molecular Mass": "",
        "Melting Point": "9.1 °C",
        "Density": "1.27 g/cm³"
    }
}