{
    "cas_no": "10026-07-0",
    "key_name": "Tellurium tetrachloride",
    "cn_name": "四氯化碲;",
    "alternate_name": "Tellurium chloride (TeCl<sub>4</sub>), (<em>T</em>-4)-;Tellurium chloride (TeCl<sub>4</sub>);Telluric chloride;Tellurium tetrachloride;Tetrachlorotellurium;Tellurium(IV) chloride;Tellurium(IV) tetrachloride",
    "duplicated_cas_no": "63044-26-8;63044-25-7;63044-22-4;63091-70-3;63044-42-8",
    "SMILES": "[Te](Cl)(Cl)(Cl)Cl",
    "meta_data": {
        "InChI": "InChI=1S/Cl4Te/c1-5(2,3)4",
        "InChIKey": null,
        "Canonical SMILES": "Cl[Te](Cl)(Cl)Cl",
        "Molecular Formula": "Cl<sub>4</sub>Te",
        "Molecular Mass": "",
        "Boiling Point": "390 °C",
        "Melting Point": "225 °C"
    }
}