{
    "cas_no": "595-15-3",
    "key_name": "Soyasapogenol B",
    "cn_name": "大豆甾醇B;大豆甾醇B;",
    "alternate_name": "Olean-12-ene-3,22,23-triol, (3β,4β,22β)-;Olean-12-ene-3β,22β,24-triol;Soyasapogenol B;(3β,4β,22β)-Olean-12-ene-3,22,23-triol;3β,22β,24-Trihydroxyolean-12-ene;Soyasapogenin B;Olean-12-en-3β,22β,24-triol;Soyasapogenol I",
    "duplicated_cas_no": "1174209-23-4",
    "SMILES": "C[C@]12[C@@]3(C)C([C@]4([C@@](C)(CC3)[C@H](O)CC(C)(C)C4)[H])=CC[C@@]1([C@]5(C)[C@@](CC2)([C@](CO)(C)[C@@H](O)CC5)[H])[H]",
    "meta_data": {
        "InChI": "InChI=1S/C30H50O3/c1-25(2)16-20-19-8-9-22-27(4)12-11-23(32)28(5,18-31)21(27)10-13-30(22,7)29(19,6)15-14-26(20,3)24(33)17-25/h8,20-24,31-33H,9-18H2,1-7H3/t20-,21+,22+,23-,24+,26+,27-,28+,29+,30+/m0/s1",
        "InChIKey": null,
        "Canonical SMILES": "OCC1(C)C(O)CCC2(C)C3CC=C4C5CC(C)(C)CC(O)C5(C)CCC4(C)C3(C)CCC12",
        "Molecular Formula": "C<sub>30</sub>H<sub>50</sub>O<sub>3</sub>",
        "Molecular Mass": "458.72",
        "Melting Point": "259-260 °C"
    }
}