{
    "cas_no": "2382-79-8",
    "key_name": "<em>N</em>-Acetyl-<span class=\"text-smallcaps\">L</span>-tryptophanamide",
    "cn_name": "N-乙酰基-L-色氨酸胺;",
    "alternate_name": "1<em>H</em>-Indole-3-propanamide, α-(acetylamino)-, (α<em>S</em>)-;Indole-3-propionamide, α-acetamido-, <span class=\"text-smallcaps\">L</span>-;1<em>H</em>-Indole-3-propanamide, α-(acetylamino)-, (<em>S</em>)-;(α<em>S</em>)-α-(Acetylamino)-1<em>H</em>-indole-3-propanamide;Acetyltryptophanamide;(+)-2-Acetamido-3-(indol-3-yl)propionamide;<em>N</em>-<span class=\"text-smallcaps\">L</span>-Acetyltryptophanamide;<em>N</em>-Acetyl-<span class=\"text-smallcaps\">L</span>-tryptophanamide;NAWA;(α<em>S</em>)-<em>N</em>-Acetyl-tryptophan amide;(2S)-2-Acetamido-3-(1<em>H</em>-indol-3-yl)propanamide",
    "duplicated_cas_no": "",
    "SMILES": "C([C@H](NC(C)=O)C(N)=O)C=1C=2C(NC1)=CC=CC2",
    "meta_data": {
        "InChI": "InChI=1S/C13H15N3O2/c1-8(17)16-12(13(14)18)6-9-7-15-11-5-3-2-4-10(9)11/h2-5,7,12,15H,6H2,1H3,(H2,14,18)(H,16,17)/t12-/m0/s1",
        "InChIKey": null,
        "Canonical SMILES": "O=C(N)C(NC(=O)C)CC1=CNC=2C=CC=CC21",
        "Molecular Formula": "C<sub>13</sub>H<sub>15</sub>N<sub>3</sub>O<sub>2</sub>",
        "Molecular Mass": "245.28",
        "Melting Point": "193-194 °C"
    }
}