{
    "cas_no": "61346-19-8",
    "key_name": "1,2-Dihydro-5-nitro-3<em>H</em>-indazol-3-one",
    "cn_name": null,
    "alternate_name": "3<em>H</em>-Indazol-3-one, 1,2-dihydro-5-nitro-;3-Indazolinone, 5-nitro-;1,2-Dihydro-5-nitro-3<em>H</em>-indazol-3-one;5-Nitro-1<em>H</em>-indazol-3-ol;3-Hydroxy-5-nitro-1<em>H</em>-indazole;5-Nitro-1,2-dihydroindazol-3-one;5-Nitro-3-indazol-ol;1,2-Dihydro-5-nitroindazol-3-one",
    "duplicated_cas_no": "",
    "SMILES": "O=C1C=2C(=CC=C(N(=O)=O)C2)NN1",
    "meta_data": {
        "InChI": "InChI=1S/C7H5N3O3/c11-7-5-3-4(10(12)13)1-2-6(5)8-9-7/h1-3H,(H2,8,9,11)",
        "InChIKey": null,
        "Canonical SMILES": "O=C1NNC2=CC=C(C=C12)N(=O)=O",
        "Molecular Formula": "C<sub>7</sub>H<sub>5</sub>N<sub>3</sub>O<sub>3</sub>",
        "Molecular Mass": "179.13",
        "Melting Point": "273 °C (decomp)"
    }
}