{
    "cas_no": "7152-15-0",
    "key_name": "Ethyl isobutyrylacetate",
    "cn_name": "异丁酰乙酸乙酯;",
    "alternate_name": "Pentanoic acid, 4-methyl-3-oxo-, ethyl ester;Valeric acid, 4-methyl-3-oxo-, ethyl ester;γ,γ-Dimethylacetoacetic acid ethyl ester;Ethyl isobutyrylacetate;Ethyl 4-methyl-3-oxopentanoate;Ethyl 3-oxo-4-methylvalerate;4-Methyl-3-oxo-pentanoic acid ethyl ester;Ethyl 3-oxo-4-methylpentanoate;4-Methyl-3-oxovaleric acid ethyl ester;NSC 62029;Ethyl 4-methyl-3-oxovalerate;Isobutyrylacetic acid ethyl ester;Ethyl 2-isobutyrylacetate;Ethyl 3-isopropyl-3-oxopropanoate;3-Oxo-4-methylpentanoic acid ethyl ester",
    "duplicated_cas_no": "",
    "SMILES": "C(CC(C(C)C)=O)(OCC)=O",
    "meta_data": {
        "InChI": "InChI=1S/C8H14O3/c1-4-11-8(10)5-7(9)6(2)3/h6H,4-5H2,1-3H3",
        "InChIKey": null,
        "Canonical SMILES": "O=C(OCC)CC(=O)C(C)C",
        "Molecular Formula": "C<sub>8</sub>H<sub>14</sub>O<sub>3</sub>",
        "Molecular Mass": "158.20",
        "Boiling Point": "173 °C",
        "Melting Point": "-9 °C",
        "Density": "0.9854 g/cm³ @ Temp: 25 °C"
    }
}