{
    "cas_no": "51094-78-1",
    "key_name": "1-Butanol, tantalum(5+) salt (5:1)",
    "cn_name": "丁醇钽;",
    "alternate_name": "1-Butanol, tantalum(5+) salt (5:1);1-Butanol, tantalum(5+) salt;Tantalum butoxide;Tantalum pentabutoxide;Pentabutoxytantalum;(Penta-<em>n</em>-butoxy)tantalum;Tantalum(5+) butoxide;Tantalum(V) butoxide",
    "duplicated_cas_no": "",
    "SMILES": "C(CC)CO.[Ta]",
    "meta_data": {
        "InChI": "InChI=1S/C4H10O.Ta/c1-2-3-4-5;/h5H,2-4H2,1H3;",
        "InChIKey": null,
        "Canonical SMILES": "[Ta].OCCCC",
        "Molecular Formula": "C<sub>4</sub>H<sub>10</sub>O.<sup>1</sup>/<sub>5</sub>Ta",
        "Molecular Mass": "",
        "Boiling Point": "217 °C @ Press: 0.15 Torr",
        "Density": "1.310 g/cm³"
    }
}