{
    "cas_no": "362-08-3",
    "key_name": "2-Methoxyestrone",
    "cn_name": null,
    "alternate_name": "Estra-1,3,5(10)-trien-17-one, 3-hydroxy-2-methoxy-;Estrone, 2-methoxy-;3-Hydroxy-2-methoxyestra-1,3,5(10)-trien-17-one;2-Methoxyestrone;2-Hydroxyestrone 2-methyl ether;GSS 33;2-Methoxy-3-hydroxyestra-1,3,5(10)-trien-17-one;2-Methoxy-17-oxoestra-1,3,5(10)-trien-3-ol",
    "duplicated_cas_no": "",
    "SMILES": "C[C@@]12[C@]([C@]3([C@@](C=4C(CC3)=CC(O)=C(OC)C4)(CC1)[H])[H])(CCC2=O)[H]",
    "meta_data": {
        "InChI": "InChI=1S/C19H24O3/c1-19-8-7-12-13(15(19)5-6-18(19)21)4-3-11-9-16(20)17(22-2)10-14(11)12/h9-10,12-13,15,20H,3-8H2,1-2H3/t12-,13+,15-,19-/m0/s1",
        "InChIKey": null,
        "Canonical SMILES": "O=C1CCC2C3CCC4=CC(O)=C(OC)C=C4C3CCC12C",
        "Molecular Formula": "C<sub>19</sub>H<sub>24</sub>O<sub>3</sub>",
        "Molecular Mass": "300.39",
        "Melting Point": "187.0-189.5 °C"
    }
}