{
    "cas_no": "108-21-4",
    "key_name": "Isopropyl acetate",
    "cn_name": "醋酸异丙酯;乙酸异丙酯;",
    "alternate_name": "Acetic acid, 1-methylethyl ester;Acetic acid, isopropyl ester;Isopropyl acetate;2-Propyl acetate;2-Acetoxypropane;Isopropyl ethanoate;1-Methylethyl acetate;NSC 9295",
    "duplicated_cas_no": "",
    "SMILES": "O(C(C)C)C(C)=O",
    "meta_data": {
        "InChI": "InChI=1S/C5H10O2/c1-4(2)7-5(3)6/h4H,1-3H3",
        "InChIKey": null,
        "Canonical SMILES": "O=C(OC(C)C)C",
        "Molecular Formula": "C<sub>5</sub>H<sub>10</sub>O<sub>2</sub>",
        "Molecular Mass": "102.13",
        "Boiling Point": "88.6 °C @ Press: 760 Torr",
        "Melting Point": "-73.4 °C",
        "Density": "0.8718 g/cm³ @ Temp: 20 °C"
    }
}