{
    "cas_no": "82-92-8",
    "key_name": "Cyclizine",
    "cn_name": "苯甲嗪;塞克力嗪;1-二苯甲基-4-甲基哌嗪;",
    "alternate_name": "Piperazine, 1-(diphenylmethyl)-4-methyl-;1-(Diphenylmethyl)-4-methylpiperazine;(<em>N</em>-Benzhydryl)(<em>N</em>′-methyl)diethylenediamine;Compound 47-83;Cyclizine;Marezine;Wellcome prepn. 47-83;<em>N</em>-Benzhydryl-<em>N</em>′-methylpiperazine;<em>N</em>-Methyl-<em>N</em>′-benzhydrylpiperazine;Nautazine;Neo-Devomit;Ne-Devomit;NSC 26608;MeSH ID: D003501",
    "duplicated_cas_no": "",
    "SMILES": "C(N1CCN(C)CC1)(C2=CC=CC=C2)C3=CC=CC=C3",
    "meta_data": {
        "InChI": "InChI=1S/C18H22N2/c1-19-12-14-20(15-13-19)18(16-8-4-2-5-9-16)17-10-6-3-7-11-17/h2-11,18H,12-15H2,1H3",
        "InChIKey": null,
        "Canonical SMILES": "C=1C=CC(=CC1)C(C=2C=CC=CC2)N3CCN(C)CC3",
        "Molecular Formula": "C<sub>18</sub>H<sub>22</sub>N<sub>2</sub>",
        "Molecular Mass": "266.38",
        "Boiling Point": "150 °C @ Press: 0.09 Torr",
        "Melting Point": "105.5-107.5 °C"
    }
}