{
    "cas_no": "15104-61-7",
    "key_name": "1,1,2,3,3-Pentachloropropane",
    "cn_name": "1,1,2,3,3-五氯丙烷;",
    "alternate_name": "Propane, 1,1,2,3,3-pentachloro-;1,1,2,3,3-Pentachloropropane",
    "duplicated_cas_no": "",
    "SMILES": "C(C(Cl)Cl)(C(Cl)Cl)Cl",
    "meta_data": {
        "InChI": "InChI=1S/C3H3Cl5/c4-1(2(5)6)3(7)8/h1-3H",
        "InChIKey": null,
        "Canonical SMILES": "ClC(Cl)C(Cl)C(Cl)Cl",
        "Molecular Formula": "C<sub>3</sub>H<sub>3</sub>Cl<sub>5</sub>",
        "Molecular Mass": "216.32",
        "Boiling Point": "199 °C",
        "Melting Point": "-10 °C"
    }
}