{
    "cas_no": "661-19-8",
    "key_name": "Behenyl alcohol",
    "cn_name": "山嵛醇;1-二十二醇;",
    "alternate_name": "1-Docosanol;Docosyl alcohol;Behenyl alcohol;Behenic alcohol;Tadenan;IK 2 (alcohol);Docosanol;IK 2;<em>n</em>-Docosanol;Stenol 1822;Lanette 22;Behenyl 80 Alcohol;Abreva;NAA 422;NSC 8407;Stenol 1822A;Nacol 22-97;Kalcohl 22080;Kalcol 22080;Nacol 22-98;Toho BH 65;Hainol 22S;Conol 2265;Conol 2280;Kalcohl 220;1-Docosonol;Behenyl alc. 80;Nacol C 22;Nikkol Behenyl Alcohol 80;Ginol 22;Ranette 22;Kalkol 220-80;Nikkol Behenyl Alcohol 65;Behenyl alcohol 65;Lanette 22NF;Vegarol 2280",
    "duplicated_cas_no": "",
    "SMILES": "C(CCCCCCCCCCC)CCCCCCCCCCO",
    "meta_data": {
        "InChI": "InChI=1S/C22H46O/c1-2-3-4-5-6-7-8-9-10-11-12-13-14-15-16-17-18-19-20-21-22-23/h23H,2-22H2,1H3",
        "InChIKey": null,
        "Canonical SMILES": "OCCCCCCCCCCCCCCCCCCCCCC",
        "Molecular Formula": "C<sub>22</sub>H<sub>46</sub>O",
        "Molecular Mass": "326.60",
        "Boiling Point": "180 °C @ Press: 0.22 Torr",
        "Melting Point": "71 °C"
    }
}