{
    "cas_no": "825-25-2",
    "key_name": "2-Cyclopentylidenecyclopentanone",
    "cn_name": "2-环亚戊基环戊酮;2-环亚戊基环戊酮;",
    "alternate_name": "Cyclopentanone, 2-cyclopentylidene-;[Bicyclopentyliden]-2-one;2-Cyclopentylidenecyclopentanone;[Δ<sup>1,1′</sup>-Bicyclopentan]-2-one;2-Cyclopentylidene-1-cyclopentanone;NSC 22041;[1,1′-Bi(cyclopentylidene)]-2-one",
    "duplicated_cas_no": "28302-72-9",
    "SMILES": "O=C1C(CCC1)=C2CCCC2",
    "meta_data": {
        "InChI": "InChI=1S/C10H14O/c11-10-7-3-6-9(10)8-4-1-2-5-8/h1-7H2",
        "InChIKey": null,
        "Canonical SMILES": "O=C1C(=C2CCCC2)CCC1",
        "Molecular Formula": "C<sub>10</sub>H<sub>14</sub>O",
        "Molecular Mass": "150.22",
        "Boiling Point": "122-125 °C @ Press: 25 Torr",
        "Melting Point": "74-75 °C",
        "Density": "1.0221 g/cm³ @ Temp: 20 °C"
    }
}