{
    "cas_no": "98665-22-6",
    "key_name": "Ganoderic acid G",
    "cn_name": null,
    "alternate_name": "Lanost-8-en-26-oic acid, 3,7,12-trihydroxy-11,15,23-trioxo-, (3β,7β,12β)-;(3β,7β,12β)-3,7,12-Trihydroxy-11,15,23-trioxolanost-8-en-26-oic acid;Ganoderic acid G",
    "duplicated_cas_no": "",
    "SMILES": "CC12C3=C(C4(C)C(CC3O)C(C)(C)C(O)CC4)C(=O)C(O)C1(C)C(C(CC(CC(C(O)=O)C)=O)C)CC2=O",
    "meta_data": {
        "InChI": "InChI=1S/C30H44O8/c1-14(10-16(31)11-15(2)26(37)38)17-12-21(34)30(7)22-18(32)13-19-27(3,4)20(33)8-9-28(19,5)23(22)24(35)25(36)29(17,30)6/h14-15,17-20,25,32-33,36H,8-13H2,1-7H3,(H,37,38)",
        "InChIKey": null,
        "Canonical SMILES": "O=C(O)C(C)CC(=O)CC(C)C1CC(=O)C2(C3=C(C(=O)C(O)C12C)C4(C)CCC(O)C(C)(C)C4CC3O)C",
        "Molecular Formula": "C<sub>30</sub>H<sub>44</sub>O<sub>8</sub>",
        "Molecular Mass": "532.67",
        "Melting Point": "224-226 °C"
    }
}