{
    "cas_no": "498-02-2",
    "key_name": "Acetovanillone",
    "cn_name": "4-羟基-3-甲氧基苯乙酮;",
    "alternate_name": "Ethanone, 1-(4-hydroxy-3-methoxyphenyl)-;Acetophenone, 4′-hydroxy-3′-methoxy-;1-(4-Hydroxy-3-methoxyphenyl)ethanone;Acetoguaiacone;Acetovanillone;Apocynin;Apocynine;4-Acetyl-2-methoxyphenol;3′-Methoxy-4′-hydroxyacetophenone;4′-Hydroxy-3′-methoxyacetophenone;Acetoguaiacon;4-Hydroxy-3-methoxyphenyl methyl ketone;2-Methoxy-4-acetylphenol;4-Acetylguaiacol;Acetoguaicone;NSC 209524;NSC 2146;3-Methoxy-4-hydroxyphenylethanone;Acetoguaiacol;1-(4-Hydroxy-3-methoxyphenyl)ethan-1-one;4-Acetyl-1-hydroxy-2-methoxybenzene;4-Hydroxy-3-methoxy hypnone",
    "duplicated_cas_no": "",
    "SMILES": "O(C)C1=CC(C(C)=O)=CC=C1O",
    "meta_data": {
        "InChI": "InChI=1S/C9H10O3/c1-6(10)7-3-4-8(11)9(5-7)12-2/h3-5,11H,1-2H3",
        "InChIKey": null,
        "Canonical SMILES": "O=C(C1=CC=C(O)C(OC)=C1)C",
        "Molecular Formula": "C<sub>9</sub>H<sub>10</sub>O<sub>3</sub>",
        "Molecular Mass": "166.17",
        "Boiling Point": "297 °C",
        "Melting Point": "115 °C",
        "Density": "1.32 g/cm³ @ Temp: 25.000 °C"
    }
}