{
    "cas_no": "1987-50-4",
    "key_name": "4-<em>n</em>-Heptylphenol",
    "cn_name": "对庚基苯酚;4-庚基苯酚;",
    "alternate_name": "Phenol, 4-heptyl-;Phenol, <em>p</em>-heptyl-;4-Heptylphenol;<em>p</em>-Hydroxyheptylbenzene;<em>p</em>-Heptylphenol;4-<em>n</em>-Heptylphenol;<em>p</em>-Hydroxy-<em>n</em>-heptylbenzene",
    "duplicated_cas_no": "",
    "SMILES": "C(CCCCCC)C1=CC=C(O)C=C1",
    "meta_data": {
        "InChI": "InChI=1S/C13H20O/c1-2-3-4-5-6-7-12-8-10-13(14)11-9-12/h8-11,14H,2-7H2,1H3",
        "InChIKey": null,
        "Canonical SMILES": "OC1=CC=C(C=C1)CCCCCCC",
        "Molecular Formula": "C<sub>13</sub>H<sub>20</sub>O",
        "Molecular Mass": "192.30",
        "Boiling Point": "165 °C",
        "Melting Point": "24 °C"
    }
}