{
    "cas_no": "313545-32-3",
    "key_name": "2-Chloro-6-fluorophenylboronic acid",
    "cn_name": null,
    "alternate_name": "Boronic acid, <em>B</em>-(2-chloro-6-fluorophenyl)-;Boronic acid, (2-chloro-6-fluorophenyl)-;<em>B</em>-(2-Chloro-6-fluorophenyl)boronic acid;2-Chloro-6-fluorophenylboronic acid",
    "duplicated_cas_no": "",
    "SMILES": "B(O)(O)C1=C(Cl)C=CC=C1F",
    "meta_data": {
        "InChI": "InChI=1S/C6H5BClFO2/c8-4-2-1-3-5(9)6(4)7(10)11/h1-3,10-11H",
        "InChIKey": null,
        "Canonical SMILES": "FC1=CC=CC(Cl)=C1B(O)O",
        "Molecular Formula": "C<sub>6</sub>H<sub>5</sub>BClFO<sub>2</sub>",
        "Molecular Mass": "174.37",
        "Melting Point": "123-126 °C"
    }
}