{
    "cas_no": "71666-95-0",
    "key_name": "1<em>H</em>-Imidazole-5-propanamide, α-amino-, hydrochloride (1:2), (α<em>S</em>)-",
    "cn_name": null,
    "alternate_name": "1<em>H</em>-Imidazole-5-propanamide, α-amino-, hydrochloride (1:2), (α<em>S</em>)-;1<em>H</em>-Imidazole-4-propanamide, α-amino-, dihydrochloride, (<em>S</em>)-;1<em>H</em>-Imidazole-4-propanamide, α-amino-, dihydrochloride, (α<em>S</em>)-;(2S)-2-Amino-3-(1<em>H</em>-imidazol-4-yl)propanamide dihydrochloride;(2<em>S</em>)-2-Amino-3-(1<em>H</em>-imidazol-4-yl)propanamide dihydrochloride",
    "duplicated_cas_no": "",
    "SMILES": "C([C@@H](C(N)=O)N)C1=CN=CN1.Cl",
    "meta_data": {
        "InChI": "InChI=1S/C6H10N4O.2ClH/c7-5(6(8)11)1-4-2-9-3-10-4;;/h2-3,5H,1,7H2,(H2,8,11)(H,9,10);2*1H/t5-;;/m0../s1",
        "InChIKey": null,
        "Canonical SMILES": "Cl.O=C(N)C(N)CC1=CN=CN1",
        "Molecular Formula": "C<sub>6</sub>H<sub>10</sub>N<sub>4</sub>O.2ClH",
        "Molecular Mass": "",
        "Melting Point": "257-258 °C"
    }
}