{
    "cas_no": "122665-97-8",
    "key_name": "4,4-Difluorocyclohexanecarboxylic acid",
    "cn_name": "4,4-二氟环己甲酸;",
    "alternate_name": "Cyclohexanecarboxylic acid, 4,4-difluoro-;4,4-Difluorocyclohexanecarboxylic acid;4,4-Difluorocyclohexylcarboxylic acid;4,4′-Difluorocyclohexanecarboxylic acid;4,4-Difluorocyclohexanoic acid;4,4-Difluorocyclohexane-1-carboxylic acid;4,4-Difluorocyclohexan-1-carboxylic acid",
    "duplicated_cas_no": "",
    "SMILES": "C(O)(=O)C1CCC(F)(F)CC1",
    "meta_data": {
        "InChI": "InChI=1S/C7H10F2O2/c8-7(9)3-1-5(2-4-7)6(10)11/h5H,1-4H2,(H,10,11)",
        "InChIKey": null,
        "Canonical SMILES": "O=C(O)C1CCC(F)(F)CC1",
        "Molecular Formula": "C<sub>7</sub>H<sub>10</sub>F<sub>2</sub>O<sub>2</sub>",
        "Molecular Mass": "164.15",
        "Melting Point": "105.9 °C"
    }
}