{
    "cas_no": "1929-30-2",
    "key_name": "Ethyl <em>p</em>-methoxycinnamate",
    "cn_name": "甲氧基肉桂酸乙酯;甲氧基肉桂酸乙酯;",
    "alternate_name": "2-Propenoic acid, 3-(4-methoxyphenyl)-, ethyl ester;Cinnamic acid, <em>p</em>-methoxy-, ethyl ester;Ethyl <em>p</em>-methoxycinnamate;Methyl-<em>p</em>-coumaric acid ethyl ester;4-Methoxycinnamic acid ethyl ester;Ethyl 4-methoxycinnamate;3-(4-Methoxyphenyl)-2-propenoic acid ethyl ester;NSC 26462;NSC 44831;NSC 636698;Ethyl 3-(4-methoxyphenyl)acrylate;3-(4-Methoxyphenyl)acrylic acid ethyl ester;Ethyl 3-(4-methoxyphenyl)propenoate;Ethyl 3-(4-methoxyphenyl)-2-propenoate",
    "duplicated_cas_no": "",
    "SMILES": "C(=CC(OCC)=O)C1=CC=C(OC)C=C1",
    "meta_data": {
        "InChI": "InChI=1S/C12H14O3/c1-3-15-12(13)9-6-10-4-7-11(14-2)8-5-10/h4-9H,3H2,1-2H3",
        "InChIKey": null,
        "Canonical SMILES": "O=C(OCC)C=CC1=CC=C(OC)C=C1",
        "Molecular Formula": "C<sub>12</sub>H<sub>14</sub>O<sub>3</sub>",
        "Molecular Mass": "206.24",
        "Boiling Point": "177-180 °C @ Press: 15 Torr",
        "Melting Point": "50 °C"
    }
}