{
    "cas_no": "6842-62-2",
    "key_name": "3,4′-Dichlorodiphenyl ether",
    "cn_name": "3,4\"-二氯二苯醚;",
    "alternate_name": "Benzene, 1-chloro-3-(4-chlorophenoxy)-;Ether, <em>m</em>-chlorophenyl <em>p</em>-chlorophenyl;1-Chloro-3-(4-chlorophenoxy)benzene;3,4′-Dichlorodiphenyl ether;PCDE 13",
    "duplicated_cas_no": "",
    "SMILES": "O(C1=CC(Cl)=CC=C1)C2=CC=C(Cl)C=C2",
    "meta_data": {
        "InChI": "InChI=1S/C12H8Cl2O/c13-9-4-6-11(7-5-9)15-12-3-1-2-10(14)8-12/h1-8H",
        "InChIKey": null,
        "Canonical SMILES": "ClC1=CC=C(OC=2C=CC=C(Cl)C2)C=C1",
        "Molecular Formula": "C<sub>12</sub>H<sub>8</sub>Cl<sub>2</sub>O",
        "Molecular Mass": "239.10",
        "Boiling Point": "113 °C @ Press: 0.5 Torr",
        "Melting Point": "-10 °C"
    }
}