{
    "cas_no": "392-57-4",
    "key_name": "1,4-Diiodotetrafluorobenzene",
    "cn_name": "1,4-二碘四氟苯;",
    "alternate_name": "Benzene, 1,2,4,5-tetrafluoro-3,6-diiodo-;Benzene, tetrafluoro-1,4-diiodo-;1,2,4,5-Tetrafluoro-3,6-diiodobenzene;Tetrafluoro-1,4-diiodobenzene;1,4-Diiodotetrafluorobenzene;<em>p</em>-Diiodoperfluorobenzene;3,6-Diiodo-1,2,4,5-tetrafluorobenzene;1,4-Diiodo-2,3,5,6-tetrafluorobenzene",
    "duplicated_cas_no": "",
    "SMILES": "FC1=C(F)C(I)=C(F)C(F)=C1I",
    "meta_data": {
        "InChI": "InChI=1S/C6F4I2/c7-1-2(8)6(12)4(10)3(9)5(1)11",
        "InChIKey": null,
        "Canonical SMILES": "FC=1C(F)=C(I)C(F)=C(F)C1I",
        "Molecular Formula": "C<sub>6</sub>F<sub>4</sub>I<sub>2</sub>",
        "Molecular Mass": "401.87",
        "Melting Point": "109-111 °C"
    }
}