{
    "cas_no": "3740-18-9",
    "key_name": "2,4-Dichloro-5-(chlorosulfonyl)benzoic acid",
    "cn_name": null,
    "alternate_name": "Benzoic acid, 2,4-dichloro-5-(chlorosulfonyl)-;2,4-Dichloro-5-(chlorosulfonyl)benzoic acid;5-Carboxy-2,4-dichlorobenzenesulfonyl chloride;3-Carboxy-4,6-dichlorobenzenesulfonyl chloride;2,4-Dichloro-5-(chlorosulphonyl)benzoic acid",
    "duplicated_cas_no": "",
    "SMILES": "S(Cl)(=O)(=O)C1=CC(C(O)=O)=C(Cl)C=C1Cl",
    "meta_data": {
        "InChI": "InChI=1S/C7H3Cl3O4S/c8-4-2-5(9)6(15(10,13)14)1-3(4)7(11)12/h1-2H,(H,11,12)",
        "InChIKey": null,
        "Canonical SMILES": "O=C(O)C=1C=C(C(Cl)=CC1Cl)S(=O)(=O)Cl",
        "Molecular Formula": "C<sub>7</sub>H<sub>3</sub>Cl<sub>3</sub>O<sub>4</sub>S",
        "Molecular Mass": "289.52",
        "Melting Point": "191-192 °C"
    }
}