{
    "cas_no": "63746-12-3",
    "key_name": "1,3-Benzenedicarboxylic acid, 4-amino-, 1,3-dimethyl ester",
    "cn_name": null,
    "alternate_name": "1,3-Benzenedicarboxylic acid, 4-amino-, 1,3-dimethyl ester;1,3-Benzenedicarboxylic acid, 4-amino-, dimethyl ester;Dimethyl 4-aminoisophthalate;Dimethyl 4-aminobenzene-1,3-dicarboxylate;1,3-Dimethyl 4-aminobenzene-1,3-dicarboxylate",
    "duplicated_cas_no": "",
    "SMILES": "C(OC)(=O)C1=CC(C(OC)=O)=CC=C1N",
    "meta_data": {
        "InChI": "InChI=1S/C10H11NO4/c1-14-9(12)6-3-4-8(11)7(5-6)10(13)15-2/h3-5H,11H2,1-2H3",
        "InChIKey": null,
        "Canonical SMILES": "O=C(OC)C1=CC=C(N)C(=C1)C(=O)OC",
        "Molecular Formula": "C<sub>10</sub>H<sub>11</sub>NO<sub>4</sub>",
        "Molecular Mass": "209.20",
        "Melting Point": "120-123 °C"
    }
}