{
    "cas_no": "587-65-5",
    "key_name": "Chloroacetanilide",
    "cn_name": "2-氯乙酰苯胺;",
    "alternate_name": "Acetamide, 2-chloro-<em>N</em>-phenyl-;Acetanilide, 2-chloro-;Acetanilide, α-chloro-;2-Chloro-<em>N</em>-phenylacetamide;2-Chloroacetanilide;α-Chloroacetanilide;<em>N</em>-Phenylchloroacetamide;<em>N</em>-Phenyl-2-chloroacetamide;ω-Chloroacetanilide;<em>N</em>-(Chloroacetyl)aniline;<em>N</em>-Phenyl-2-chloroethanamide;Phenylcarbamoylmethyl chloride;NSC 311;<em>N</em>-(2-Chloroacetyl)aniline;α-Chloro-<em>N</em>-phenylacetamide;Chloroacetanilide;Chloracetanilide",
    "duplicated_cas_no": "120751-01-1",
    "SMILES": "N(C(CCl)=O)C1=CC=CC=C1",
    "meta_data": {
        "InChI": "InChI=1S/C8H8ClNO/c9-6-8(11)10-7-4-2-1-3-5-7/h1-5H,6H2,(H,10,11)",
        "InChIKey": null,
        "Canonical SMILES": "O=C(NC=1C=CC=CC1)CCl",
        "Molecular Formula": "C<sub>8</sub>H<sub>8</sub>ClNO",
        "Molecular Mass": "169.61",
        "Melting Point": "86-88 °C"
    }
}