{
    "cas_no": "2113-68-0",
    "key_name": "[1,1′-Biphenyl]-4-sulfonic acid",
    "cn_name": "联苯-4-磺酸;",
    "alternate_name": "[1,1′-Biphenyl]-4-sulfonic acid;4-Biphenylsulfonic acid;<em>p</em>-Biphenylsulfonic acid;4-Sulfobiphenyl;Diphenyl-4-sulfonic acid;NSC 158280",
    "duplicated_cas_no": "",
    "SMILES": "S(=O)(=O)(O)C1=CC=C(C=C1)C2=CC=CC=C2",
    "meta_data": {
        "InChI": "InChI=1S/C12H10O3S/c13-16(14,15)12-8-6-11(7-9-12)10-4-2-1-3-5-10/h1-9H,(H,13,14,15)",
        "InChIKey": null,
        "Canonical SMILES": "O=S(=O)(O)C=1C=CC(=CC1)C=2C=CC=CC2",
        "Molecular Formula": "C<sub>12</sub>H<sub>10</sub>O<sub>3</sub>S",
        "Molecular Mass": "234.27",
        "Melting Point": "138-140 °C"
    }
}