{
    "cas_no": "1467-05-6",
    "key_name": "4-Ethylbenzyl chloride",
    "cn_name": "4-乙基苄氯;",
    "alternate_name": "Benzene, 1-(chloromethyl)-4-ethyl-;Toluene, α-chloro-<em>p</em>-ethyl-;1-(Chloromethyl)-4-ethylbenzene;<em>p</em>-Chloromethylethylbenzene;<em>p</em>-Ethylbenzyl chloride;4-Ethylbenzyl chloride;α-Chloro-<em>p</em>-ethyltoluene;1-Chloromethyl-4-ethylbenzene;4-(Chloromethyl)-1-ethylbenzene",
    "duplicated_cas_no": "",
    "SMILES": "C(C)C1=CC=C(CCl)C=C1",
    "meta_data": {
        "InChI": "InChI=1S/C9H11Cl/c1-2-8-3-5-9(7-10)6-4-8/h3-6H,2,7H2,1H3",
        "InChIKey": null,
        "Canonical SMILES": "ClCC1=CC=C(C=C1)CC",
        "Molecular Formula": "C<sub>9</sub>H<sub>11</sub>Cl",
        "Molecular Mass": "154.64",
        "Boiling Point": "92-93 °C"
    }
}