{
    "cas_no": "10191-25-0",
    "key_name": "3-Oxopentanoic acid",
    "cn_name": null,
    "alternate_name": "Pentanoic acid, 3-oxo-;Valeric acid, 3-oxo-;3-Oxopentanoic acid;3-Oxo-<em>n</em>-valeric acid;3-Oxovaleric acid;3-Ketovaleric acid;β-Ketopentanoic acid;Propionylacetic acid;3-Ketopentanoic acid;Propanoylacetic acid;β-Ketopentanoate",
    "duplicated_cas_no": "",
    "SMILES": "C(CC(O)=O)(CC)=O",
    "meta_data": {
        "InChI": "InChI=1S/C5H8O3/c1-2-4(6)3-5(7)8/h2-3H2,1H3,(H,7,8)",
        "InChIKey": null,
        "Canonical SMILES": "O=C(O)CC(=O)CC",
        "Molecular Formula": "C<sub>5</sub>H<sub>8</sub>O<sub>3</sub>",
        "Molecular Mass": "116.12",
        "Melting Point": "65-66 °C (decomp)"
    }
}