{
    "cas_no": "13565-08-7",
    "key_name": "(<em>E</em>)-4-Fluorocinnamoyl chloride",
    "cn_name": "对氟肉桂酰氯;对氟肉桂酰氯;",
    "alternate_name": "2-Propenoyl chloride, 3-(4-fluorophenyl)-, (2<em>E</em>)-;Cinnamoyl chloride, <em>p</em>-fluoro-, (<em>E</em>)-;2-Propenoyl chloride, 3-(4-fluorophenyl)-, (<em>E</em>)-;(2<em>E</em>)-3-(4-Fluorophenyl)-2-propenoyl chloride;(E)-4-Fluorocinnamoyl chloride;(<em>E</em>)-3-(4-Fluorophenyl)-2-propenoyl chloride;<em>trans</em>-4-Fluorocinnamoyl chloride;(<em>E</em>)-3-(4-Fluorophenyl)acryloyl chloride;(<em>E</em>)-4-Fluorocinnamoyl chloride",
    "duplicated_cas_no": "",
    "SMILES": "C(=C/C(Cl)=O)\\C1=CC=C(F)C=C1",
    "meta_data": {
        "InChI": "InChI=1S/C9H6ClFO/c10-9(12)6-3-7-1-4-8(11)5-2-7/h1-6H/b6-3+",
        "InChIKey": null,
        "Canonical SMILES": "O=C(Cl)C=CC1=CC=C(F)C=C1",
        "Molecular Formula": "C<sub>9</sub>H<sub>6</sub>ClFO",
        "Molecular Mass": "184.59",
        "Boiling Point": "110 °C @ Press: 10 Torr",
        "Melting Point": "40-44 °C"
    }
}