{
    "cas_no": "101152-94-7",
    "key_name": "Milnacipran hydrochloride",
    "cn_name": "盐酸米那普仑;2-(氨甲基)-N,N-二乙基-1-苯基环丙烷甲酰胺盐酸盐;",
    "alternate_name": "Cyclopropanecarboxamide, 2-(aminomethyl)-<em>N</em>,<em>N</em>-diethyl-1-phenyl-, hydrochloride (1:1), (1<em>R</em>,2<em>S</em>)-<em>rel</em>-;Cyclopropanecarboxamide, 2-(aminomethyl)-<em>N</em>,<em>N</em>-diethyl-1-phenyl-, monohydrochloride, <em>cis</em>-(±)-;Cyclopropanecarboxamide, 2-(aminomethyl)-<em>N</em>,<em>N</em>-diethyl-1-phenyl-, monohydrochloride, (1<em>R</em>,2<em>S</em>)-<em>rel</em>-;F 2207;Milnacipran hydrochloride;Cyclopropanecarboxamide, 2-(aminomethyl)-<em>N</em>,<em>N</em>-diethyl-1-phenyl-, monohydrochloride, <em>cis</em>-;Ixel;Dalcipran;Toledomin;Savella;Tivanyl;Joncia;Milnacipran HCl",
    "duplicated_cas_no": "86181-08-0",
    "SMILES": "C(N(CC)CC)(=O)[C@]1([C@@H](CN)C1)C2=CC=CC=C2.Cl",
    "meta_data": {
        "InChI": "InChI=1/C15H22N2O.ClH/c1-3-17(4-2)14(18)15(10-13(15)11-16)12-8-6-5-7-9-12;/h5-9,13H,3-4,10-11,16H2,1-2H3;1H/t13-,15+;/s2",
        "InChIKey": null,
        "Canonical SMILES": "Cl.O=C(N(CC)CC)C1(C=2C=CC=CC2)CC1CN",
        "Molecular Formula": "C<sub>15</sub>H<sub>22</sub>N<sub>2</sub>O.ClH",
        "Molecular Mass": "",
        "Melting Point": "181-189 °C"
    }
}