{
    "cas_no": "251647-50-4",
    "key_name": "5′-<em>O</em>-[Bis(4-methoxyphenyl)phenylmethyl]-2′-<em>O</em>-(2-methoxyethyl)-<em>N</em>-(2-methyl-1-oxopropyl)guanosine",
    "cn_name": null,
    "alternate_name": "Guanosine, 5′-<em>O</em>-[bis(4-methoxyphenyl)phenylmethyl]-2′-<em>O</em>-(2-methoxyethyl)-<em>N</em>-(2-methyl-1-oxopropyl)-;5′-<em>O</em>-[Bis(4-methoxyphenyl)phenylmethyl]-2′-<em>O</em>-(2-methoxyethyl)-<em>N</em>-(2-methyl-1-oxopropyl)guanosine;23: PN: US20030198965 PAGE: 20 claimed sequence;19: PN: US20030211606 PAGE: 20 claimed sequence;26: PN: WO03106645 PAGE: 74 claimed sequence;25: PN: US20040014699 PAGE: 21 claimed sequence;24: PN: US20040014051 PAGE: 23 claimed sequence;23: PN: US20040014050 PAGE: 21 claimed sequence;22: PN: US20040014049 PAGE: 21 claimed sequence;23: PN: US20040014048 PAGE: 21 claimed sequence;22: PN: US20040014047 PAGE: 21 claimed sequence;22: PN: US20040006030 PAGE: 23 claimed sequence;26: PN: US20040006029 PAGE: 23 claimed sequence;97: PN: US20040005707 PAGE: 21 claimed sequence;23: PN: US20040005570 PAGE: 21 claimed sequence;20: PN: US20040005569 PAGE: 22 claimed sequence;24: PN: US20040005565 PAGE: 17-22 claimed sequence;5′-<em>O</em>-(4,4′-Dimethoxytrityl)-<em>N</em>-isobutyryl-2′-<em>O</em>-(2-methoxyethyl)guanosine",
    "duplicated_cas_no": "287493-24-7;1345716-48-4",
    "SMILES": "C(OC[C@H]1O[C@H]([C@H](OCCOC)[C@@H]1O)N2C3=C(N=C2)C(=O)N=C(NC(C(C)C)=O)N3)(C4=CC=C(OC)C=C4)(C5=CC=C(OC)C=C5)C6=CC=CC=C6",
    "meta_data": {
        "InChI": "InChI=1S/C38H43N5O9/c1-23(2)34(45)41-37-40-33-30(35(46)42-37)39-22-43(33)36-32(50-20-19-47-3)31(44)29(52-36)21-51-38(24-9-7-6-8-10-24,25-11-15-27(48-4)16-12-25)26-13-17-28(49-5)18-14-26/h6-18,22-23,29,31-32,36,44H,19-21H2,1-5H3,(H2,40,41,42,45,46)/t29-,31-,32-,36-/m1/s1",
        "InChIKey": null,
        "Canonical SMILES": "O=C1N=C(NC(=O)C(C)C)NC2=C1N=CN2C3OC(COC(C=4C=CC=CC4)(C5=CC=C(OC)C=C5)C6=CC=C(OC)C=C6)C(O)C3OCCOC",
        "Molecular Formula": "C<sub>38</sub>H<sub>43</sub>N<sub>5</sub>O<sub>9</sub>",
        "Molecular Mass": "713.78",
        "Melting Point": "112.5-126.6 °C"
    }
}