{
    "cas_no": "104801-96-9",
    "key_name": "(3<em>S</em>,4<em>S</em>,6<em>R</em>)-3-Hexyltetrahydro-4-hydroxy-6-undecyl-2<em>H</em>-pyran-2-one",
    "cn_name": "3-己基四氢-4-羟基-6-十一烷基-2H-吡喃-2-酮;",
    "alternate_name": "2<em>H</em>-Pyran-2-one, 3-hexyltetrahydro-4-hydroxy-6-undecyl-, (3<em>S</em>,4<em>S</em>,6<em>R</em>)-;2<em>H</em>-Pyran-2-one, 3-hexyltetrahydro-4-hydroxy-6-undecyl-, [3<em>S</em>-(3α,4α,6α)]-;(3<em>S</em>,4<em>S</em>,6<em>R</em>)-3-Hexyltetrahydro-4-hydroxy-6-undecyl-2<em>H</em>-pyran-2-one",
    "duplicated_cas_no": "",
    "SMILES": "C(CCCCCCCCCC)[C@@H]1C[C@H](O)[C@H](CCCCCC)C(=O)O1",
    "meta_data": {
        "InChI": "InChI=1S/C22H42O3/c1-3-5-7-9-10-11-12-13-14-16-19-18-21(23)20(22(24)25-19)17-15-8-6-4-2/h19-21,23H,3-18H2,1-2H3/t19-,20+,21+/m1/s1",
        "InChIKey": null,
        "Canonical SMILES": "O=C1OC(CCCCCCCCCCC)CC(O)C1CCCCCC",
        "Molecular Formula": "C<sub>22</sub>H<sub>42</sub>O<sub>3</sub>",
        "Molecular Mass": "354.57",
        "Melting Point": "108-109 °C"
    }
}