{
    "cas_no": "190788-60-4",
    "key_name": "2-(2-Methoxyphenyl)-4,4,5,5-tetramethyl-1,3,2-dioxaborolane",
    "cn_name": "2-92-甲氧基苯基)-4,4,5,5-四甲基-1,3,2-二杂氧戊硼酸;",
    "alternate_name": "1,3,2-Dioxaborolane, 2-(2-methoxyphenyl)-4,4,5,5-tetramethyl-;2-(2-Methoxyphenyl)-4,4,5,5-tetramethyl-1,3,2-dioxaborolane;<em>o</em>-(Pinacolboryl)anisole;2-Methoxyphenylboronic acid pinacol ester",
    "duplicated_cas_no": "",
    "SMILES": "O(C)C1=C(C=CC=C1)B2OC(C)(C)C(C)(C)O2",
    "meta_data": {
        "InChI": "InChI=1S/C13H19BO3/c1-12(2)13(3,4)17-14(16-12)10-8-6-7-9-11(10)15-5/h6-9H,1-5H3",
        "InChIKey": null,
        "Canonical SMILES": "O(C=1C=CC=CC1B2OC(C)(C)C(O2)(C)C)C",
        "Molecular Formula": "C<sub>13</sub>H<sub>19</sub>BO<sub>3</sub>",
        "Molecular Mass": "234.10",
        "Melting Point": "80-81 °C"
    }
}