{
    "cas_no": "4118-36-9",
    "key_name": "6,7-Dimethoxy-1-phenyl-1,2,3,4-tetrahydroisoquinoline",
    "cn_name": null,
    "alternate_name": "Isoquinoline, 1,2,3,4-tetrahydro-6,7-dimethoxy-1-phenyl-;1,2,3,4-Tetrahydro-6,7-dimethoxy-1-phenylisoquinoline;6,7-Dimethoxy-1-phenyl-1,2,3,4-tetrahydroisoquinoline",
    "duplicated_cas_no": "54329-11-2;884380-33-0",
    "SMILES": "O(C)C=1C=C2C(NCCC2=CC1OC)C3=CC=CC=C3",
    "meta_data": {
        "InChI": "InChI=1S/C17H19NO2/c1-19-15-10-13-8-9-18-17(12-6-4-3-5-7-12)14(13)11-16(15)20-2/h3-7,10-11,17-18H,8-9H2,1-2H3",
        "InChIKey": null,
        "Canonical SMILES": "O(C=1C=C2C(=CC1OC)C(NCC2)C=3C=CC=CC3)C",
        "Molecular Formula": "C<sub>17</sub>H<sub>19</sub>NO<sub>2</sub>",
        "Molecular Mass": "269.34",
        "Melting Point": "112-113 °C"
    }
}