{
    "cas_no": "11018-89-6",
    "key_name": "Card-20(22)-enolide, 3-[(6-deoxy-α-<span class=\"text-smallcaps\">L</span>-mannopyranosyl)oxy]-1,5,11,14,19-pentahydroxy-, hydrate (1:8), (1β,3β,5β,11α)-",
    "cn_name": "乌本( 箭毒) 苷, 哇巴因;",
    "alternate_name": "Card-20(22)-enolide, 3-[(6-deoxy-α-<span class=\"text-smallcaps\">L</span>-mannopyranosyl)oxy]-1,5,11,14,19-pentahydroxy-, hydrate (1:8), (1β,3β,5β,11α)-;Card-20(22)-enolide, 3-[(6-deoxy-α-<span class=\"text-smallcaps\">L</span>-mannopyranosyl)oxy]-1,5,11,14,19-pentahydroxy-, octahydrate, (1β,3β,5β,11α)-;Ouabain octahydrate;Strophantine octahydrate",
    "duplicated_cas_no": "1320-52-1",
    "SMILES": "C(O)[C@@]12[C@@]3([C@]([C@]4(O)[C@](C)(C[C@H]3O)[C@H](CC4)C=5COC(=O)C5)(CC[C@]1(O)C[C@@H](O[C@H]6[C@H](O)[C@H](O)[C@@H](O)[C@H](C)O6)C[C@H]2O)[H])[H].O",
    "meta_data": {
        "InChI": "InChI=1S/C29H44O12.8H2O/c1-13-22(34)23(35)24(36)25(40-13)41-15-8-19(32)28(12-30)21-17(3-5-27(28,37)9-15)29(38)6-4-16(14-7-20(33)39-11-14)26(29,2)10-18(21)31;;;;;;;;/h7,13,15-19,21-25,30-32,34-38H,3-6,8-12H2,1-2H3;8*1H2/t13-,15-,16+,17+,18+,19+,21+,22-,23+,24+,25-,26+,27-,28+,29-;;;;;;;;/m0......../s1",
        "InChIKey": null,
        "Canonical SMILES": "O=C1OCC(=C1)C2CCC3(O)C4CCC5(O)CC(OC6OC(C)C(O)C(O)C6O)CC(O)C5(CO)C4C(O)CC23C.O",
        "Molecular Formula": "C<sub>29</sub>H<sub>44</sub>O<sub>12</sub>.8H<sub>2</sub>O",
        "Molecular Mass": "",
        "Melting Point": "130 °C"
    }
}