{
    "cas_no": "19797-32-1",
    "key_name": "3,5-Dichlorobenzenesulfonamide",
    "cn_name": "3,5-二氯苯磺酰胺;",
    "alternate_name": "Benzenesulfonamide, 3,5-dichloro-;3,5-Dichlorobenzenesulfonamide;3,5-Dichlorophenylsulfonamide;3,5-Dichlorobenzene-1-sulfonamide",
    "duplicated_cas_no": "",
    "SMILES": "S(N)(=O)(=O)C1=CC(Cl)=CC(Cl)=C1",
    "meta_data": {
        "InChI": "InChI=1S/C6H5Cl2NO2S/c7-4-1-5(8)3-6(2-4)12(9,10)11/h1-3H,(H2,9,10,11)",
        "InChIKey": null,
        "Canonical SMILES": "O=S(=O)(N)C=1C=C(Cl)C=C(Cl)C1",
        "Molecular Formula": "C<sub>6</sub>H<sub>5</sub>Cl<sub>2</sub>NO<sub>2</sub>S",
        "Molecular Mass": "226.08",
        "Melting Point": "147-148 °C"
    }
}