{
    "cas_no": "943-15-7",
    "key_name": "1-Methyl-4-(1-methylethyl)-2-nitrobenzene",
    "cn_name": "2-硝基对甲基异丙基苯;",
    "alternate_name": "Benzene, 1-methyl-4-(1-methylethyl)-2-nitro-;<em>p</em>-Cymene, 2-nitro-;1-Methyl-4-(1-methylethyl)-2-nitrobenzene;4-Isopropyl-2-nitrotoluene;2-Nitro-<em>p</em>-cymene;2-Methyl-5-isopropylnitrobenzene;NSC 9839;5-Isopropyl-2-methyl-1-nitrobenzene;4-Isopropyl-1-methyl-2-nitrobenzene",
    "duplicated_cas_no": "",
    "SMILES": "N(=O)(=O)C1=CC(C(C)C)=CC=C1C",
    "meta_data": {
        "InChI": "InChI=1S/C10H13NO2/c1-7(2)9-5-4-8(3)10(6-9)11(12)13/h4-7H,1-3H3",
        "InChIKey": null,
        "Canonical SMILES": "O=N(=O)C1=CC(=CC=C1C)C(C)C",
        "Molecular Formula": "C<sub>10</sub>H<sub>13</sub>NO<sub>2</sub>",
        "Molecular Mass": "179.22",
        "Boiling Point": "134 °C @ Press: 15 Torr",
        "Density": "1.067 g/cm³ @ Temp: 20 °C"
    }
}