{
    "cas_no": "446-72-0",
    "key_name": "Genistein",
    "cn_name": "金雀异黄酮;4\",5,7-三羟基异黄酮;染料木黄酮;染料木素;",
    "alternate_name": "4<em>H</em>-1-Benzopyran-4-one, 5,7-dihydroxy-3-(4-hydroxyphenyl)-;Genistein;Isoflavone, 4′,5,7-trihydroxy-;5,7-Dihydroxy-3-(4-hydroxyphenyl)-4<em>H</em>-1-benzopyran-4-one;C.I. 75610;Genisteol;Prunetol;Sophoricol;4′,5,7-Trihydroxyisoflavone;Genisterin;5,7,4′-Trihydroxyisoflavone;NPI 031L;Baichanin A;SIPI 807-1;NSC 36586;Bonistein;FW 635I-2;GeniVida;Climagen F;5,7-Dihydroxy-3-(4-hydroxyphenyl)-4<em>H</em>-chromen-4-one;Genistin aglycone;CSU-1999;CSU 1999;BIO 300;MeSH ID: D019833",
    "duplicated_cas_no": "944110-99-0",
    "SMILES": "O=C1C=2C(OC=C1C3=CC=C(O)C=C3)=CC(O)=CC2O",
    "meta_data": {
        "InChI": "InChI=1S/C15H10O5/c16-9-3-1-8(2-4-9)11-7-20-13-6-10(17)5-12(18)14(13)15(11)19/h1-7,16-18H",
        "InChIKey": null,
        "Canonical SMILES": "O=C1C(=COC=2C=C(O)C=C(O)C12)C=3C=CC(O)=CC3",
        "Molecular Formula": "C<sub>15</sub>H<sub>10</sub>O<sub>5</sub>",
        "Molecular Mass": "270.24",
        "Melting Point": "301.5 °C (decomp)"
    }
}