{
    "cas_no": "1456-22-0",
    "key_name": "5-Hydroxy-3-phenyl-1,2,4-oxadiazole",
    "cn_name": null,
    "alternate_name": "1,2,4-Oxadiazol-5(2<em>H</em>)-one, 3-phenyl-;Δ<sup>2</sup>-1,2,4-Oxadiazolin-5-one, 3-phenyl-;1,2,4-Oxdiazol-5-ol, 3-phenyl-;3-Phenyl-1,2,4-oxadiazol-5(2<em>H</em>)-one;5-Hydroxy-3-phenyl-1,2,4-oxadiazole;3-Phenyl-2<em>H</em>-1,2,4-oxadiazol-5-one;3-Phenyl-5-hydroxy-1,2,4-oxadiazole;3-Phenyl-4,5-dihydro-1,2,4-oxadiazol-5-one;3-Phenyl-1,2,4-oxadiazol-5-ol;3-(Phenyl)-1,2,4-oxadiazole-5-ol",
    "duplicated_cas_no": "704-55-2",
    "SMILES": "O=C1NC(=NO1)C2=CC=CC=C2",
    "meta_data": {
        "InChI": "InChI=1S/C8H6N2O2/c11-8-9-7(10-12-8)6-4-2-1-3-5-6/h1-5H,(H,9,10,11)",
        "InChIKey": null,
        "Canonical SMILES": "O=C1ON=C(N1)C=2C=CC=CC2",
        "Molecular Formula": "C<sub>8</sub>H<sub>6</sub>N<sub>2</sub>O<sub>2</sub>",
        "Molecular Mass": "162.15",
        "Melting Point": "198 °C"
    }
}