{
    "cas_no": "475-11-6",
    "key_name": "<em>N</em>-Methyl-<span class=\"text-smallcaps\">L</span>-proline",
    "cn_name": "N-甲基L-脯氨酸;",
    "alternate_name": "<span class=\"text-smallcaps\">L</span>-Proline, 1-methyl-;Proline, 1-methyl-, <span class=\"text-smallcaps\">L</span>-;Hygric acid;1-Methyl-<span class=\"text-smallcaps\">L</span>-proline;Hygrinic acid;<em>N</em>-Methyl-<span class=\"text-smallcaps\">L</span>-proline;(-)-Hygrinic acid;(-)-Hygric acid;<em>N</em>-Methylproline;(2<em>S</em>)-1-Methyl-2-pyrrolidinecarboxylic acid;(<em>S</em>)-1-Methylpyrrolidine-2-carboxylic acid;(2S)-1-Methylpyrrolidine-2-carboxylic acid",
    "duplicated_cas_no": "",
    "SMILES": "C(O)(=O)[C@H]1N(C)CCC1",
    "meta_data": {
        "InChI": "InChI=1S/C6H11NO2/c1-7-4-2-3-5(7)6(8)9/h5H,2-4H2,1H3,(H,8,9)/t5-/m0/s1",
        "InChIKey": null,
        "Canonical SMILES": "O=C(O)C1N(C)CCC1",
        "Molecular Formula": "C<sub>6</sub>H<sub>11</sub>NO<sub>2</sub>",
        "Molecular Mass": "129.16",
        "Melting Point": "109-112 °C"
    }
}