{
    "cas_no": "56-81-5",
    "key_name": "Glycerol",
    "cn_name": "甘油;丙三醇;",
    "alternate_name": "1,2,3-Propanetriol;Glycerol;Propanetriol;2-Propanol, 1,3-dihydroxy-;Glycerin;Glycerine;Glyceritol;Glycyl alcohol;Trihydroxypropane;Glyrol;Glysanin;Osmoglyn;1,2,3-Trihydroxypropane;Pricerine 9091;Bulbold;Glyceol Opthalgan;IFP;Tryhydroxypropane;Incorporation factor;Cristal;E 422;Mackstat H 66;NSC 9230;RG-S;Emery 916;Emery 917;DG;Pricerine 9088;RG;RG (moisturizing agent);GL 300;G 101;DG Glycerin;Glycerin DG;Cognis G;M 314429;Glycerin RG;Pricerine 9090;Glycerin S;Croderol GV 9000;Oleon Nv;Palmera G 9091;Speziol G 86PF;Kollisolv G 85;Speziol G 99.8PF;Kollisolv G 99;GLY 995;Advanced Eye Relief;A 106;Imex Glycerine;Glycerin D;XR-LGLY 20L;Eyeon Protect;PZN 7474853;G 7757;Purene;YM 185;Triol VE;Triose sugar alcohol;LY 95;Civeq;Ecocerol;Glycerin 4812;HY 0;Superol K;Dagralax;PG 40 (glycerol);PG 50G;PG 40;G 9012;LBC 3H8O3;MeSH ID: D073999;Cremer GLYC 3109921;KG 03;Eloglnr 995;Glycerine 4861;BDH 1172",
    "duplicated_cas_no": "8013-25-0;29796-42-7;30049-52-6;37228-54-9;75398-78-6;78630-16-7;1400594-62-8;1422250-43-8;1629856-20-7",
    "SMILES": "C(CO)(CO)O",
    "meta_data": {
        "InChI": "InChI=1S/C3H8O3/c4-1-3(6)2-5/h3-6H,1-2H2",
        "InChIKey": null,
        "Canonical SMILES": "OCC(O)CO",
        "Molecular Formula": "C<sub>3</sub>H<sub>8</sub>O<sub>3</sub>",
        "Molecular Mass": "92.09",
        "Boiling Point": "290 °C",
        "Melting Point": "20 °C",
        "Density": "1.2613 g/cm³ @ Temp: 20 °C"
    }
}