{
    "cas_no": "497833-04-2",
    "key_name": "1-Methyl-5-(trifluoromethyl)-1<em>H</em>-pyrazole-4-carboxaldehyde",
    "cn_name": null,
    "alternate_name": "1<em>H</em>-Pyrazole-4-carboxaldehyde, 1-methyl-5-(trifluoromethyl)-;1-Methyl-5-(trifluoromethyl)-1<em>H</em>-pyrazole-4-carboxaldehyde;1-Methyl-5-trifluoromethyl-1<em>H</em>-pyrazole-4-carbaldehyde;1-Methyl-5-(trifluoromethyl)-1<em>H</em>-pyrazole-4-carbaldehyde",
    "duplicated_cas_no": "",
    "SMILES": "C(F)(F)(F)C1=C(C=O)C=NN1C",
    "meta_data": {
        "InChI": "InChI=1S/C6H5F3N2O/c1-11-5(6(7,8)9)4(3-12)2-10-11/h2-3H,1H3",
        "InChIKey": null,
        "Canonical SMILES": "O=CC=1C=NN(C1C(F)(F)F)C",
        "Molecular Formula": "C<sub>6</sub>H<sub>5</sub>F<sub>3</sub>N<sub>2</sub>O",
        "Molecular Mass": "178.11",
        "Melting Point": "56-58 °C"
    }
}