{
    "cas_no": "1191-43-1",
    "key_name": "1,6-Hexanedithiol",
    "cn_name": "1,6-己二硫醇;",
    "alternate_name": "1,6-Hexanedithiol;1,6-Dimercaptohexane;1,6-Hexanedimercaptan;1,6-Hexamethylenedithiol;NSC 29031;NSC 403684",
    "duplicated_cas_no": "1429189-90-1",
    "SMILES": "C(CCCS)CCS",
    "meta_data": {
        "InChI": "InChI=1S/C6H14S2/c7-5-3-1-2-4-6-8/h7-8H,1-6H2",
        "InChIKey": null,
        "Canonical SMILES": "SCCCCCCS",
        "Molecular Formula": "C<sub>6</sub>H<sub>14</sub>S<sub>2</sub>",
        "Molecular Mass": "150.31",
        "Boiling Point": "137-138 °C @ Press: 0.9 Torr",
        "Melting Point": "29.5-30.5 °C"
    }
}