{
    "cas_no": "4916-57-8",
    "key_name": "1,2-Bis(4-pyridyl)ethane",
    "cn_name": "1,2-双(4-吡啶基)乙烷;",
    "alternate_name": "Pyridine, 4,4′-(1,2-ethanediyl)bis-;Pyridine, 4,4′-ethylenedi-;4,4′-(1,2-Ethanediyl)bis[pyridine];1,2-Bis(4-pyridyl)ethane;1,2-Di-4-pyridylethane;1,2-Di(4-pyridinyl)ethane;1,2-Bis(4-pyridinyl)ethane;NSC 11477;1,2-Bi(4-pyridyl)ethane",
    "duplicated_cas_no": "",
    "SMILES": "C(CC=1C=CN=CC1)C=2C=CN=CC2",
    "meta_data": {
        "InChI": "InChI=1S/C12H12N2/c1(11-3-7-13-8-4-11)2-12-5-9-14-10-6-12/h3-10H,1-2H2",
        "InChIKey": null,
        "Canonical SMILES": "N=1C=CC(=CC1)CCC=2C=CN=CC2",
        "Molecular Formula": "C<sub>12</sub>H<sub>12</sub>N<sub>2</sub>",
        "Molecular Mass": "184.24",
        "Boiling Point": "95 °C @ Press: 0.6 Torr",
        "Melting Point": "110-111 °C"
    }
}