{
    "cas_no": "75338-42-0",
    "key_name": "1-Ethyl-6,7,8-trifluoro-1,4-dihydro-4-oxo-3-quinolinecarboxylic acid",
    "cn_name": null,
    "alternate_name": "3-Quinolinecarboxylic acid, 1-ethyl-6,7,8-trifluoro-1,4-dihydro-4-oxo-;1-Ethyl-6,7,8-trifluoro-1,4-dihydro-4-oxo-3-quinolinecarboxylic acid;1-Ethyl-1,4-dihydro-4-oxo-6,7,8-trifluoro-3-quinolinecarboxylic acid;1-Ethyl-6,7,8-trifluoro-4-oxo-1,4-dihydroquinoline-3-carboxylic acid",
    "duplicated_cas_no": "",
    "SMILES": "C(C)N1C=2C(C(=O)C(C(O)=O)=C1)=CC(F)=C(F)C2F",
    "meta_data": {
        "InChI": "InChI=1S/C12H8F3NO3/c1-2-16-4-6(12(18)19)11(17)5-3-7(13)8(14)9(15)10(5)16/h3-4H,2H2,1H3,(H,18,19)",
        "InChIKey": null,
        "Canonical SMILES": "O=C(O)C1=CN(C2=C(F)C(F)=C(F)C=C2C1=O)CC",
        "Molecular Formula": "C<sub>12</sub>H<sub>8</sub>F<sub>3</sub>NO<sub>3</sub>",
        "Molecular Mass": "271.19",
        "Melting Point": "211-213 °C"
    }
}