{
    "cas_no": "3290-92-4",
    "key_name": "Trimethylolpropane trimethacrylate",
    "cn_name": "三羟甲基丙烷三甲基丙烯酸酯;",
    "alternate_name": "2-Propenoic acid, 2-methyl-, 1,1′-[2-ethyl-2-[[(2-methyl-1-oxo-2-propen-1-yl)oxy]methyl]-1,3-propanediyl] ester;Methacrylic acid, triester with 2-ethyl-2-(hydroxymethyl)-1,3-propanediol;2-Propenoic acid, 2-methyl-, 2-ethyl-2-[[(2-methyl-1-oxo-2-propenyl)oxy]methyl]-1,3-propanediyl ester;PTMA;1,1,1-Trimethylolpropane trimethacrylate;SR 350;Chemlink 30;TMPT;Chemlink 3080;Monocizer TD 1500;ATM 11;Saret 515;Sartomer SR 350;NK Ester M-TMPT;Trimethylolpropane trimethacrylate;NK Ester TMPT;Hi-Cross M;Sartomer 350;Acryester TMP;Perkalink 400;TRIM (crosslinking agent);TRIM;Light Ester TMP;Blemmer PTT;2-Ethyl-2-(hydroxymethyl)-1,3-propanediol trimethacrylate;Perkalink 400-50D;TD 1500;TD 1500S;Nourycryl M 36;1,1,1-Tris(hydroxymethyl)propane trimethacrylate;SR 350 (acrylate);Lumicure TMM 300;Bisomer TMPTMA;Saret 517;Saret SR 517;SR 517;Akrosorb 9675;Hi-Cross M-P;NSC 84261;NF Bisomer TMPTMA;Ogumont T 200;TMPTMA;Ogmont T 200;PL 400;PL 400 (methacrylate);Saret 350;Saret SR 350;Etermer 331;SR 517HP;Hi-Cross MS 50;SM 632;SR 350J;Luvomaxx TMPT-DL 75;X 980 (methacrylate);X 980;Miramer M 301;EM 311;Visiomer TMPTMA;AS 1500S;AS 1500;Newfrontier NF Bisomer TMPTMA;Ebecryl 267;XL 60;PL 400-70D;TMPTM;Actigran 70;PL 500;PL 500 (methacrylate);EM 331;Newfrontier TMPTM;Actigran SO 70;2,2-Bis(2-methylprop-2-enoyloxymethyl)butyl 2-methylprop-2-enoate;SR 350FF;Laromer TMPTMA;AV 13711;SR 350NS;SR 350D;CY-D2;TP 350;Sartomer SR 350D;TMP3MA",
    "duplicated_cas_no": "12656-03-0;27441-62-9;37271-14-0;38886-95-2;39301-32-1;66451-56-7;73784-89-1;96082-02-9;102068-89-3;107711-83-1;107846-19-5;108727-84-0;109633-39-8;112291-39-1;117456-07-2;118520-52-8;177345-96-9;186262-44-2;1418179-57-3;1841444-01-6;2235393-70-9;2410578-96-8;2459675-61-5",
    "SMILES": "C(COC(C(C)=C)=O)(COC(C(C)=C)=O)(COC(C(C)=C)=O)CC",
    "meta_data": {
        "InChI": "InChI=1S/C18H26O6/c1-8-18(9-22-15(19)12(2)3,10-23-16(20)13(4)5)11-24-17(21)14(6)7/h2,4,6,8-11H2,1,3,5,7H3",
        "InChIKey": null,
        "Canonical SMILES": "O=C(OCC(COC(=O)C(=C)C)(COC(=O)C(=C)C)CC)C(=C)C",
        "Molecular Formula": "C<sub>18</sub>H<sub>26</sub>O<sub>6</sub>",
        "Molecular Mass": "338.40",
        "Boiling Point": "220 °C",
        "Melting Point": "&lt;-10 °C"
    }
}