{
    "cas_no": "1121-22-8",
    "key_name": "<em>trans</em>-1,2-Diaminocyclohexane",
    "cn_name": "反式-1,2-环己二胺;",
    "alternate_name": "1,2-Cyclohexanediamine, (1<em>R</em>,2<em>R</em>)-<em>rel</em>-;1,2-Cyclohexanediamine, <em>trans</em>-;<em>rel</em>-(1<em>R</em>,2<em>R</em>)-1,2-Cyclohexanediamine;<em>trans</em>-1,2-Cyclohexanediamine;<em>trans</em>-1,2-Diaminocyclohexane;(±)-<em>trans</em>-1,2-Diaminocyclohexane;<em>trans</em>-<em>dl</em>-1,2-Diaminocyclohexane;(±)-<em>trans</em>-1,2-Cyclohexanediamine;(1<em>R</em>,2<em>R</em>)-<em>rel</em>-1,2-Cyclohexanediamine;1,2-<em>trans</em>-Diaminocyclohexane;<em>trans</em>-<em>N</em>,<em>N</em>′-1,2-Cyclohexanediamine;<em>rel</em>-(1<em>R</em>,2<em>R</em>)-Cyclohexane-1,2-diamine;<em>S</em>,<em>S</em>-Cyclohexanediamine;<em>rac</em>-1,2-Diaminocyclohexane",
    "duplicated_cas_no": "41013-43-8;1881285-37-5",
    "SMILES": "N[C@H]1[C@H](N)CCCC1",
    "meta_data": {
        "InChI": "InChI=1/C6H14N2/c7-5-3-1-2-4-6(5)8/h5-6H,1-4,7-8H2/t5-,6-/s2",
        "InChIKey": null,
        "Canonical SMILES": "NC1CCCCC1N",
        "Molecular Formula": "C<sub>6</sub>H<sub>14</sub>N<sub>2</sub>",
        "Molecular Mass": "114.19",
        "Boiling Point": "79-81 °C @ Press: 15 Torr",
        "Melting Point": "-10 °C"
    }
}