{
    "cas_no": "17180-93-7",
    "key_name": "4-Chloropyrimidine",
    "cn_name": "4-氯嘧啶;",
    "alternate_name": "Pyrimidine, 4-chloro-;4-Chloropyrimidine",
    "duplicated_cas_no": "",
    "SMILES": "ClC=1C=CN=CN1",
    "meta_data": {
        "InChI": "InChI=1S/C4H3ClN2/c5-4-1-2-6-3-7-4/h1-3H",
        "InChIKey": null,
        "Canonical SMILES": "ClC=1N=CN=CC1",
        "Molecular Formula": "C<sub>4</sub>H<sub>3</sub>ClN<sub>2</sub>",
        "Molecular Mass": "114.53",
        "Melting Point": "160-170 °C (decomp)"
    }
}