{
    "cas_no": "102121-60-8",
    "key_name": "4-[[(5,6,7,8-Tetrahydro-5,5,8,8-tetramethyl-2-naphthalenyl)carbonyl]amino]benzoic acid",
    "cn_name": null,
    "alternate_name": "Benzoic acid, 4-[[(5,6,7,8-tetrahydro-5,5,8,8-tetramethyl-2-naphthalenyl)carbonyl]amino]-;4-[[(5,6,7,8-Tetrahydro-5,5,8,8-tetramethyl-2-naphthalenyl)carbonyl]amino]benzoic acid;Am 580;Ro 40-6055;CD 336;NSC 608001",
    "duplicated_cas_no": "",
    "SMILES": "CC1(C)C=2C(C(C)(C)CC1)=CC=C(C(NC3=CC=C(C(O)=O)C=C3)=O)C2",
    "meta_data": {
        "InChI": "InChI=1S/C22H25NO3/c1-21(2)11-12-22(3,4)18-13-15(7-10-17(18)21)19(24)23-16-8-5-14(6-9-16)20(25)26/h5-10,13H,11-12H2,1-4H3,(H,23,24)(H,25,26)",
        "InChIKey": null,
        "Canonical SMILES": "O=C(O)C1=CC=C(C=C1)NC(=O)C2=CC=C3C(=C2)C(C)(C)CCC3(C)C",
        "Molecular Formula": "C<sub>22</sub>H<sub>25</sub>NO<sub>3</sub>",
        "Molecular Mass": "351.44",
        "Melting Point": "233-235 °C"
    }
}