{
    "cas_no": "7620-28-2",
    "key_name": "<span class=\"text-smallcaps\">D</span>-α-Aminoadipic acid",
    "cn_name": "D-2-氨基己二酸;",
    "alternate_name": "Hexanedioic acid, 2-amino-, (2<em>R</em>)-;Hexanedioic acid, 2-amino-, (<em>R</em>)-(-)-;Hexanedioic acid, 2-amino-, (<em>R</em>)-;(2<em>R</em>)-2-Aminohexanedioic acid;<span class=\"text-smallcaps\">D</span>-(-)-2-Aminohexanedioic acid;<span class=\"text-smallcaps\">D</span>-α-Aminoadipic acid;<span class=\"text-smallcaps\">D</span>-2-Aminoadipic acid;(<em>R</em>)-2-Aminoadipic acid;<span class=\"text-smallcaps\">D</span>-Aminoadipic acid;(R)-2-Aminohexanedioic acid;(2R)-2-Aminohexanedioic acid",
    "duplicated_cas_no": "1783-98-8",
    "SMILES": "C([C@H](C(O)=O)N)CCC(O)=O",
    "meta_data": {
        "InChI": "InChI=1S/C6H11NO4/c7-4(6(10)11)2-1-3-5(8)9/h4H,1-3,7H2,(H,8,9)(H,10,11)/t4-/m1/s1",
        "InChIKey": null,
        "Canonical SMILES": "O=C(O)CCCC(N)C(=O)O",
        "Molecular Formula": "C<sub>6</sub>H<sub>11</sub>NO<sub>4</sub>",
        "Molecular Mass": "161.16",
        "Melting Point": "205-207 °C"
    }
}