{
    "cas_no": "2378-86-1",
    "key_name": "Phosphonium, [(4-methylphenyl)methyl]triphenyl-, bromide (1:1)",
    "cn_name": "(4-甲基苄基)三苯基溴化膦;",
    "alternate_name": "Phosphonium, [(4-methylphenyl)methyl]triphenyl-, bromide (1:1);Phosphonium, (<em>p</em>-methylbenzyl)triphenyl-, bromide;Phosphonium, [(4-methylphenyl)methyl]triphenyl-, bromide;(<em>p</em>-Methylbenzyl)triphenylphosphonium bromide;4-Methylbenzyltriphenylphosphonium bromide;NSC 77141",
    "duplicated_cas_no": "1228758-29-9;1437255-92-9",
    "SMILES": "[P+](CC1=CC=C(C)C=C1)(C2=CC=CC=C2)(C3=CC=CC=C3)C4=CC=CC=C4.[Br-]",
    "meta_data": {
        "InChI": "InChI=1S/C26H24P.BrH/c1-22-17-19-23(20-18-22)21-27(24-11-5-2-6-12-24,25-13-7-3-8-14-25)26-15-9-4-10-16-26;/h2-20H,21H2,1H3;1H/q+1;/p-1",
        "InChIKey": null,
        "Canonical SMILES": "[Br-].C=1C=CC(=CC1)[P+](C=2C=CC=CC2)(C=3C=CC=CC3)CC4=CC=C(C=C4)C",
        "Molecular Formula": "C<sub>26</sub>H<sub>24</sub>P.Br",
        "Molecular Mass": "",
        "Melting Point": "267 °C"
    }
}