{
    "cas_no": "55837-18-8",
    "key_name": "Butibufen",
    "cn_name": "布替布芬;",
    "alternate_name": "Benzeneacetic acid, α-ethyl-4-(2-methylpropyl)-;α-Ethyl-4-(2-methylpropyl)benzeneacetic acid;Butibufen;2-(4-Isobutylphenyl)butyric acid;DF 1903Y;2-[4-(2-Methylpropyl)phenyl]butanoic acid",
    "duplicated_cas_no": "",
    "SMILES": "C(C(O)=O)(CC)C1=CC=C(CC(C)C)C=C1",
    "meta_data": {
        "InChI": "InChI=1S/C14H20O2/c1-4-13(14(15)16)12-7-5-11(6-8-12)9-10(2)3/h5-8,10,13H,4,9H2,1-3H3,(H,15,16)",
        "InChIKey": null,
        "Canonical SMILES": "O=C(O)C(C1=CC=C(C=C1)CC(C)C)CC",
        "Molecular Formula": "C<sub>14</sub>H<sub>20</sub>O<sub>2</sub>",
        "Molecular Mass": "220.31",
        "Melting Point": "52 °C"
    }
}