{
    "cas_no": "6581-66-4",
    "key_name": "Tetrahydro-2-methoxy-2<em>H</em>-pyran",
    "cn_name": "2-甲氧基四氢吡喃;",
    "alternate_name": "2<em>H</em>-Pyran, tetrahydro-2-methoxy-;Pyran, tetrahydro-2-methoxy-;Tetrahydro-2-methoxy-2<em>H</em>-pyran;2-Methoxytetrahydropyran;Tetrahydro-2-methoxypyran;2-Methoxyoxane",
    "duplicated_cas_no": "141507-39-3",
    "SMILES": "O(C)C1CCCCO1",
    "meta_data": {
        "InChI": "InChI=1S/C6H12O2/c1-7-6-4-2-3-5-8-6/h6H,2-5H2,1H3",
        "InChIKey": null,
        "Canonical SMILES": "O(C)C1OCCCC1",
        "Molecular Formula": "C<sub>6</sub>H<sub>12</sub>O<sub>2</sub>",
        "Molecular Mass": "116.16",
        "Boiling Point": "128-129 °C",
        "Density": "0.969 g/cm³ @ Temp: 15 °C"
    }
}