{
    "cas_no": "591-51-5",
    "key_name": "Phenyllithium",
    "cn_name": "苯基锂;",
    "alternate_name": "Lithium, phenyl-;Phenyllithium;Lithium, diphenyldi-",
    "duplicated_cas_no": "17438-88-9;90010-41-6",
    "SMILES": "[Li]C1=CC=CC=C1",
    "meta_data": {
        "InChI": "InChI=1S/C6H5.Li/c1-2-4-6-5-3-1;/h1-5H;",
        "InChIKey": null,
        "Canonical SMILES": "[Li]C=1C=CC=CC1",
        "Molecular Formula": "C<sub>6</sub>H<sub>5</sub>Li",
        "Molecular Mass": "",
        "Melting Point": "160-163 °C"
    }
}