{
    "cas_no": "53219-21-9",
    "key_name": "Dihydromyrcenol",
    "cn_name": null,
    "alternate_name": "7-Octen-2-ol, 2-methyl-6-methylene-, dihydro deriv.;Myrcenol, dihydro-;Dihydromyrcenol",
    "duplicated_cas_no": "",
    "SMILES": "",
    "meta_data": {
        "InChI": "",
        "InChIKey": null,
        "Canonical SMILES": "",
        "Molecular Formula": "C<sub>10</sub>H<sub>20</sub>O",
        "Molecular Mass": "",
        "Boiling Point": "91 °C @ Press: 10 Torr"
    }
}