{
    "cas_no": "96-90-2",
    "key_name": "1-Chloro-2-methyl-3,5-dinitrobenzene",
    "cn_name": null,
    "alternate_name": "Benzene, 1-chloro-2-methyl-3,5-dinitro-;Toluene, 2-chloro-4,6-dinitro-;1-Chloro-2-methyl-3,5-dinitrobenzene;6-Chloro-2,4-dinitrotoluene;2-Chloro-4,6-dinitrotoluene",
    "duplicated_cas_no": "",
    "SMILES": "N(=O)(=O)C1=CC(N(=O)=O)=CC(Cl)=C1C",
    "meta_data": {
        "InChI": "InChI=1S/C7H5ClN2O4/c1-4-6(8)2-5(9(11)12)3-7(4)10(13)14/h2-3H,1H3",
        "InChIKey": null,
        "Canonical SMILES": "O=N(=O)C1=CC(Cl)=C(C(=C1)N(=O)=O)C",
        "Molecular Formula": "C<sub>7</sub>H<sub>5</sub>ClN<sub>2</sub>O<sub>4</sub>",
        "Molecular Mass": "216.58",
        "Melting Point": "49 °C"
    }
}