{
    "cas_no": "53123-88-9",
    "key_name": "Rapamycin",
    "cn_name": "雷帕霉素;",
    "alternate_name": "Rapamycin;23,27-Epoxy-3<em>H</em>-pyrido[2,1-<em>c</em>][1,4]oxaazacyclohentriacontine, rapamycin deriv.;Antibiotic AY 22989;[3<em>S</em>-[3<em>R</em>*[<em>S</em>*(1<em>R</em>*,3<em>S</em>*,4<em>S</em>*)],6<em>S</em>*,7<em>E</em>,9<em>S</em>*,10<em>S</em>*,12<em>S</em>*,14<em>R</em>*,15<em>E</em>,17<em>E</em>,19<em>E</em>,21<em>R</em>*,23<em>R</em>*,26<em>S</em>*,27<em>S</em>*,34a<em>R</em>*]]-9,10,12,13,14,21,22,23,24,25,26,27,32,33,34,34a-Hexadecahydro-9,27-dihydroxy-3-[2-(4-hydroxy-3-methoxycyclohexyl)-1-methylethyl]-10,21-dimethoxy-6,8,12,14,20,26-hexamethyl-23,27-epoxy-3<em>H</em>-pyrido[2,1-<em>c</em>][1,4]oxaazacyclohentriacontine-1,5,11,28,29(4<em>H</em>,6<em>H</em>,31<em>H</em>)-pentone;23,27-Epoxy-3<em>H</em>-pyrido[2,1-<em>c</em>][1,4]oxaazacyclohentriacontine-1,5,11,28,29(4<em>H</em>,6<em>H</em>,31<em>H</em>)-pentone, 9,10,12,13,14,21,22,23,24,25,26,27,32,33,34,34a-hexadecahydro-9,27-dihydroxy-3-[2-(4-hydroxy-3-methoxycyclohexyl)-1-methylethyl]-10,21-dimethoxy-6,8,12,14,20,26-hexamethyl-, [3<em>S</em>-[3<em>R</em>*[<em>S</em>*(1<em>R</em>*,3<em>S</em>*,4<em>S</em>*)],6<em>S</em>*,7<em>E</em>,9<em>S</em>*,10<em>S</em>*,12<em>S</em>*,14<em>R</em>*,15<em>E</em>,17<em>E</em>,19<em>E</em>,21<em>R</em>*,23<em>R</em>*,26<em>S</em>*,27<em>S</em>*,34a<em>R</em>*]]-;(3<em>S</em>,6<em>R</em>,7<em>E</em>,9<em>R</em>,10<em>R</em>,12<em>R</em>,14<em>S</em>,15<em>E</em>,17<em>E</em>,19<em>E</em>,21<em>S</em>,23<em>S</em>,26<em>R</em>,27<em>R</em>,34a<em>S</em>)-9,10,12,13,14,21,22,23,24,25,26,27,32,33,34,34a-Hexadecahydro-9,27-dihydroxy-3-[(1<em>R</em>)-2-[(1<em>S</em>,3<em>R</em>,4<em>R</em>)-4-hydroxy-3-methoxycyclohexyl]-1-methylethyl]-10,21-dimethoxy-6,8,12,14,20,26-hexamethyl-23,27-epoxy-3<em>H</em>-pyrido[2,1-<em>c</em>][1,4]oxaazacyclohentriacontine-1,5,11,28,29(4<em>H</em>,6<em>H</em>,31<em>H</em>)-pentone;AY 22989;(-)-Rapamycin;Sirolimus;SIIA 9268A;Rapamune;Rapammune;RPM;NSC 226080;RAPA;Wy 090217;Cypher;Nab rapamycin;Supralimus;14<em>S</em>-Rapamycin;Cypher Bx Velocity;PNP-sirolimus;DE 109;MS-RO01;MS-RO02;MS-RO03;Perceiva;Rapamysin;SVP-R;PTX 367",
    "duplicated_cas_no": "1179372-35-0;1189166-54-8;1233221-34-5;1353039-01-6",
    "SMILES": "",
    "meta_data": {
        "InChI": "",
        "InChIKey": null,
        "Canonical SMILES": "",
        "Molecular Formula": "C<sub>51</sub>H<sub>79</sub>NO<sub>13</sub>",
        "Molecular Mass": "914.17",
        "Melting Point": "183-185 °C"
    }
}