{
    "cas_no": "4468-02-4",
    "key_name": "Zinc gluconate",
    "cn_name": "葡萄糖酸锌;",
    "alternate_name": "Zinc, bis(<span class=\"text-smallcaps\">D</span>-gluconato-κ<em>O</em><sup>1</sup>,κ<em>O</em><sup>2</sup>)-, (<em>T</em>-4)-;Zinc gluconate;Zinc, bis(<span class=\"text-smallcaps\">D</span>-gluconato-<em>O</em><sup>1</sup>,<em>O</em><sup>2</sup>)-;<span class=\"text-smallcaps\">D</span>-Gluconic acid, zinc complex;(<em>T</em>-4)-Bis(<span class=\"text-smallcaps\">D</span>-gluconato-κ<em>O</em><sup>1</sup>,κ<em>O</em><sup>2</sup>)zinc;Rubozinc;BioZn-AAS;Zinc Verla;Givobio G Zn;Helshas Zn;Testoblock;Gluconal ZN-P",
    "duplicated_cas_no": "116088-00-7;12562-66-2;82139-35-3",
    "SMILES": "C(C(C(CO)O)O)(O)C1[OH][Zn+2]2([OH]C(C(C(C(CO)O)O)O)C(=O)[O-]2)[O-]C1=O",
    "meta_data": {
        "InChI": "InChI=1S/2C6H12O7.Zn/c2*7-1-2(8)3(9)4(10)5(11)6(12)13;/h2*2-5,7-11H,1H2,(H,12,13);/q;;+2/p-2",
        "InChIKey": null,
        "Canonical SMILES": "O=C1[O-][Zn+2]2([O-]C(=O)C([OH]2)C(O)C(O)C(O)CO)[OH]C1C(O)C(O)C(O)CO",
        "Molecular Formula": "C<sub>12</sub>H<sub>22</sub>O<sub>14</sub>Zn",
        "Molecular Mass": "",
        "Melting Point": "172-175 °C"
    }
}