{
    "cas_no": "7665-72-7",
    "key_name": "2-[(1,1-Dimethylethoxy)methyl]oxirane",
    "cn_name": "叔丁基缩水甘油基醚;叔丁基缩水甘油醚;叔丁基缩水甘油基醚;缩水甘油特丁基醚;",
    "alternate_name": "Oxirane, 2-[(1,1-dimethylethoxy)methyl]-;Oxirane, [(1,1-dimethylethoxy)methyl]-;Propane, 1-<em>tert</em>-butoxy-2,3-epoxy-;2-[(1,1-Dimethylethoxy)methyl]oxirane;<em>tert</em>-Butyl glycidyl ether;1,1-Dimethylethyl glycidyl ether;(<em>tert</em>-Butoxymethyl)oxirane;1-<em>tert</em>-Butoxy-2,3-epoxypropane;2,3-Epoxypropyl-<em>tert</em>-butyl ether;<em>tert</em>-Butyl 2,3-epoxypropyl ether;(±)-<em>tert</em>-Butylglycidyl ether;Glycidyl <em>tert</em>-butyl ether;2-(<em>tert</em>-Butoxymethyl)oxirane;3-<em>tert</em>-Butoxy-1,2-epoxypropane;2-Trimethylmethoxymethyloxirane;<em>p</em>-<em>tert</em>-Butyl glycidyl ether;2-[(2-Methylpropan-2-yl)oxymethyl]oxirane",
    "duplicated_cas_no": "126753-05-7",
    "SMILES": "C(OC(C)(C)C)C1CO1",
    "meta_data": {
        "InChI": "InChI=1S/C7H14O2/c1-7(2,3)9-5-6-4-8-6/h6H,4-5H2,1-3H3",
        "InChIKey": null,
        "Canonical SMILES": "O1CC1COC(C)(C)C",
        "Molecular Formula": "C<sub>7</sub>H<sub>14</sub>O<sub>2</sub>",
        "Molecular Mass": "130.18",
        "Boiling Point": "152 °C",
        "Melting Point": "-70 °C",
        "Density": "0.9208 g/cm³ @ Temp: 20 °C"
    }
}