{
    "cas_no": "928-49-4",
    "key_name": "3-Hexyne",
    "cn_name": "3-己炔;3-己炔；二乙基乙炔;",
    "alternate_name": "3-Hexyne;Diethylacetylene",
    "duplicated_cas_no": "",
    "SMILES": "C(#CCC)CC",
    "meta_data": {
        "InChI": "InChI=1S/C6H10/c1-3-5-6-4-2/h3-4H2,1-2H3",
        "InChIKey": null,
        "Canonical SMILES": "C(#CCC)CC",
        "Molecular Formula": "C<sub>6</sub>H<sub>10</sub>",
        "Molecular Mass": "82.14",
        "Boiling Point": "81 °C",
        "Melting Point": "-103 °C",
        "Density": "0.7231 g/cm³ @ Temp: 20 °C"
    }
}