{
    "cas_no": "5336-08-3",
    "key_name": "(+)-Ribonolactone",
    "cn_name": "D-(+)-核糖酸-1,4-内酯;",
    "alternate_name": "<span class=\"text-smallcaps\">D</span>-Ribonic acid, γ-lactone;Ribonic acid, γ-lactone, <span class=\"text-smallcaps\">D</span>-;<span class=\"text-smallcaps\">D</span>-Ribono-1,4-lactone;<span class=\"text-smallcaps\">D</span>-Ribonolactone;<span class=\"text-smallcaps\">D</span>-Ribono-γ-lactone;<span class=\"text-smallcaps\">D</span>-Ribopentono-1,4-lactone;<span class=\"text-smallcaps\">D</span>-(+)-Ribonic acid lactone;Ribonic acid 1,4-lactone;<span class=\"text-smallcaps\">D</span>-(+)-Ribonolactone;(+)-Ribonolactone;<span class=\"text-smallcaps\">D</span>-(+)-Ribonic acid γ-lactone;NSC 1031",
    "duplicated_cas_no": "",
    "SMILES": "C(O)[C@@H]1[C@@H](O)[C@@H](O)C(=O)O1",
    "meta_data": {
        "InChI": "InChI=1S/C5H8O5/c6-1-2-3(7)4(8)5(9)10-2/h2-4,6-8H,1H2/t2-,3-,4-/m1/s1",
        "InChIKey": null,
        "Canonical SMILES": "O=C1OC(CO)C(O)C1O",
        "Molecular Formula": "C<sub>5</sub>H<sub>8</sub>O<sub>5</sub>",
        "Molecular Mass": "148.11",
        "Melting Point": "77 °C"
    }
}