{
    "cas_no": "26848-40-8",
    "key_name": "<em>N</em>-(2,3-Dihydro-2-oxo-1<em>H</em>-benzimidazol-5-yl)-3-hydroxy-2-naphthalenecarboxamide",
    "cn_name": null,
    "alternate_name": "2-Naphthalenecarboxamide, <em>N</em>-(2,3-dihydro-2-oxo-1<em>H</em>-benzimidazol-5-yl)-3-hydroxy-;<em>N</em>-(2,3-Dihydro-2-oxo-1<em>H</em>-benzimidazol-5-yl)-3-hydroxy-2-naphthalenecarboxamide;5-(3-Hydroxy-2-naphthoylamino)benzimidazolin-2-one;5-(2-Hydroxy-3-naphthoylamino)benzimidazol-2-one;<em>N</em>-(2-Benzimidazolon-5-yl)-3-hydroxy-2-naphthalenecarboxamide;Naphthol AS-BI;<em>N</em>-[(2,3-Dihydro-2-oxo-1<em>H</em>-benzimidazol)-5-yl]-3-hydroxy-2-naphthalenecarbamide;<em>N</em>-[(2,3-Dihydro-2-oxo-1<em>H</em>-benzimidazol)-5-yl]-3-hydroxy-2-naphthalenecarboxamide;3-Hydroxy-<em>N</em>-(2-oxo-1,3-dihydrobenzimidazol-5-yl)naphthalene-2-carboxamide;3-Hydroxy-<em>N</em>-(2-oxo-2,3-dihydro-1<em>H</em>-benzo[<em>d</em>]imidazol-5-yl)-2-naphthamide;3-Hydroxy-<em>N</em>-(2-oxo-1,3-dihydrobenzoimidazol-5-yl)naphthalene-2-carboxamide",
    "duplicated_cas_no": "",
    "SMILES": "N(C(=O)C1=CC2=C(C=C1O)C=CC=C2)C=3C=C4C(=CC3)NC(=O)N4",
    "meta_data": {
        "InChI": "InChI=1S/C18H13N3O3/c22-16-8-11-4-2-1-3-10(11)7-13(16)17(23)19-12-5-6-14-15(9-12)21-18(24)20-14/h1-9,22H,(H,19,23)(H2,20,21,24)",
        "InChIKey": null,
        "Canonical SMILES": "O=C1NC2=CC=C(C=C2N1)NC(=O)C3=CC=4C=CC=CC4C=C3O",
        "Molecular Formula": "C<sub>18</sub>H<sub>13</sub>N<sub>3</sub>O<sub>3</sub>",
        "Molecular Mass": "319.31",
        "Melting Point": "360 °C"
    }
}