{
    "cas_no": "26661-13-2",
    "key_name": "<em>N</em><sup>4</sup>-Benzoylcytosine",
    "cn_name": "N4-苯甲酰基胞嘧啶;N-(2-氧代-3H-嘧啶-4-基)苯甲酰胺;",
    "alternate_name": "Benzamide, <em>N</em>-(2,3-dihydro-2-oxo-4-pyrimidinyl)-;Benzamide, <em>N</em>-(1,2-dihydro-2-oxo-4-pyrimidinyl)-;Cytosine, <em>N</em>-benzoyl-;<em>N</em>-(2,3-Dihydro-2-oxo-4-pyrimidinyl)benzamide;2(1<em>H</em>)-Pyrimidinone, 4-(benzoylamino)-;<em>N</em>-Benzoylcytosine;2-Hydroxy-4-benzamidopyrimidine;<em>N</em><sup>4</sup>-Benzoylcytosine;NSC 211617;4-<em>n</em>-Benzoylcytosine",
    "duplicated_cas_no": "642075-47-6;2087916-95-6",
    "SMILES": "C(NC=1NC(=O)N=CC1)(=O)C2=CC=CC=C2",
    "meta_data": {
        "InChI": "InChI=1S/C11H9N3O2/c15-10(8-4-2-1-3-5-8)13-9-6-7-12-11(16)14-9/h1-7H,(H2,12,13,14,15,16)",
        "InChIKey": null,
        "Canonical SMILES": "O=C1N=CC=C(N1)NC(=O)C=2C=CC=CC2",
        "Molecular Formula": "C<sub>11</sub>H<sub>9</sub>N<sub>3</sub>O<sub>2</sub>",
        "Molecular Mass": "215.21",
        "Melting Point": "&gt;350 °C"
    }
}