{
    "cas_no": "6628-21-3",
    "key_name": "Ethyl 2,3-dichloropropanoate",
    "cn_name": "2,3-二氯丙酸乙酯;",
    "alternate_name": "Propanoic acid, 2,3-dichloro-, ethyl ester;Propionic acid, 2,3-dichloro-, ethyl ester;Ethyl α,β-dichloropropionate;Ethyl 2,3-dichloropropionate;2,3-Dichloropropionic acid ethyl ester;α,β-Dichloropropionic acid ethyl ester;NSC 60553;Ethyl 2,3-dichloropropanoate",
    "duplicated_cas_no": "",
    "SMILES": "C(C(CCl)Cl)(OCC)=O",
    "meta_data": {
        "InChI": "InChI=1S/C5H8Cl2O2/c1-2-9-5(8)4(7)3-6/h4H,2-3H2,1H3",
        "InChIKey": null,
        "Canonical SMILES": "O=C(OCC)C(Cl)CCl",
        "Molecular Formula": "C<sub>5</sub>H<sub>8</sub>Cl<sub>2</sub>O<sub>2</sub>",
        "Molecular Mass": "171.02",
        "Boiling Point": "183.5 °C",
        "Density": "1.2505 g/cm³ @ Temp: 20 °C"
    }
}