{
    "cas_no": "21040-45-9",
    "key_name": "<em>trans</em>-Cinnamyl acetate",
    "cn_name": null,
    "alternate_name": "2-Propen-1-ol, 3-phenyl-, 1-acetate, (2<em>E</em>)-;Cinnamyl alcohol, acetate, (<em>E</em>)-;2-Propen-1-ol, 3-phenyl-, acetate, (<em>E</em>)-;2-Propen-1-ol, 3-phenyl-, acetate, (2<em>E</em>)-;<em>trans</em>-Cinnamyl acetate;(<em>E</em>)-3-Phenyl-2-propenyl acetate;(<em>E</em>)-Cinnamyl acetate;<em>trans</em>-3-Acetoxy-1-phenyl-1-propene;(<em>E</em>)-3-Acetoxy-1-phenyl-1-propene;(<em>E</em>)-3-Phenylprop-2-en-1-yl acetate;(2<em>E</em>)-3-Phenyl-2-propen-1-ol acetate;(<em>E</em>)-3-Phenylallyl acetate;<em>trans</em>-3-Phenyl-2-propenyl acetate;Acetic acid (<em>E</em>)-3-phenyl-2-propenyl ester",
    "duplicated_cas_no": "",
    "SMILES": "C(=C/COC(C)=O)\\C1=CC=CC=C1",
    "meta_data": {
        "InChI": "InChI=1S/C11H12O2/c1-10(12)13-9-5-8-11-6-3-2-4-7-11/h2-8H,9H2,1H3/b8-5+",
        "InChIKey": null,
        "Canonical SMILES": "O=C(OCC=CC=1C=CC=CC1)C",
        "Molecular Formula": "C<sub>11</sub>H<sub>12</sub>O<sub>2</sub>",
        "Molecular Mass": "176.21",
        "Boiling Point": "139-140 °C @ Press: 10 Torr",
        "Melting Point": "115-120 °C",
        "Density": "1.0520 g/cm³ @ Temp: 22 °C"
    }
}