{
    "cas_no": "10563-70-9",
    "key_name": "Melitracen hydrochloride",
    "cn_name": "盐酸美利曲辛;3-[10,10-二甲基-9(10H)-蒽亚基]-N,N-二甲基丙胺盐酸盐;",
    "alternate_name": "1-Propanamine, 3-(10,10-dimethyl-9(10<em>H</em>)-anthracenylidene)-<em>N</em>,<em>N</em>-dimethyl-, hydrochloride (1:1);Δ<sup>9(10</sup><em><sup>H</sup></em><sup>),γ</sup>-Anthracenepropylamine, <em>N</em>,<em>N</em>,10,10-tetramethyl-, hydrochloride;1-Propanamine, 3-(10,10-dimethyl-9(10<em>H</em>)-anthracenylidene)-<em>N</em>,<em>N</em>-dimethyl-, hydrochloride;9-(3-Dimethylaminopropylidene)-10,10-dimethyl-9,10-dihydroanthracene hydrochloride;Melitracen hydrochloride;U 24973A;Melixeran;Dixeran;Melitrazin hydrochloride",
    "duplicated_cas_no": "",
    "SMILES": "C(CCN(C)C)=C1C=2C(C(C)(C)C=3C1=CC=CC3)=CC=CC2.Cl",
    "meta_data": {
        "InChI": "InChI=1S/C21H25N.ClH/c1-21(2)19-13-7-5-10-17(19)16(12-9-15-22(3)4)18-11-6-8-14-20(18)21;/h5-8,10-14H,9,15H2,1-4H3;1H",
        "InChIKey": null,
        "Canonical SMILES": "Cl.C=1C=CC2=C(C1)C(=CCCN(C)C)C=3C=CC=CC3C2(C)C",
        "Molecular Formula": "C<sub>21</sub>H<sub>25</sub>N.ClH",
        "Molecular Mass": "",
        "Melting Point": "245-248 °C"
    }
}