{
    "cas_no": "12137-20-1",
    "key_name": "Titanium monoxide",
    "cn_name": "氧化钛;",
    "alternate_name": "Titanium oxide (TiO);Titanium monoxide;Titanium Black 12S;Titan Black 12S;12S",
    "duplicated_cas_no": "98226-41-6;98226-42-7;142023-00-5;853933-30-9;1309477-91-5;1471346-42-5",
    "SMILES": "O=[Ti]",
    "meta_data": {
        "InChI": "InChI=1S/O.Ti",
        "InChIKey": null,
        "Canonical SMILES": "O=[Ti]",
        "Molecular Formula": "OTi",
        "Molecular Mass": "",
        "Melting Point": "1750 °C",
        "Density": "4.93 g/cm³"
    }
}