{
    "cas_no": "23356-96-9",
    "key_name": "<span class=\"text-smallcaps\">L</span>-Prolinol",
    "cn_name": "L-脯氨醇;",
    "alternate_name": "2-Pyrrolidinemethanol, (2<em>S</em>)-;2-Pyrrolidinemethanol, (<em>S</em>)-(+)-;2-Pyrrolidinemethanol, (<em>S</em>)-;(2<em>S</em>)-2-Pyrrolidinemethanol;<span class=\"text-smallcaps\">L</span>-(+)-2-Pyrrolidinylmethanol;<span class=\"text-smallcaps\">L</span>-2-(Hydroxymethyl)pyrrolidine;<span class=\"text-smallcaps\">L</span>-Prolinol;(<em>S</em>)-(+)-Prolinol;(<em>S</em>)-(+)-2-(Hydroxymethyl)pyrrolidine;(<em>S</em>)-Prolinol;(+)-2-Pyrrolidinemethanol;(2<em>S</em>)-2-(Hydroxymethyl)pyrrolidine;(<em>S</em>)-2-Pyrrolidinemethanol;(<em>S</em>)-(+)-2-Pyrrolidinemethanol;(<em>S</em>)-(+)-Pyrrolidin-2-ylmethanol;(<em>S</em>)-2-(Hydroxymethyl)pyrrolidine;<span class=\"text-smallcaps\">L</span>-(+)-Prolinol;(<em>S</em>)-1-(Pyrrolidin-2-yl)methanol;2-(<em>S</em>)-(Hydroxymethyl)pyrrolidine;[(<em>S</em>)-Pyrrolidin-2-yl]methanol;[(2<em>S</em>)-Pyrrolidin-2-yl]methanol;(2S)-Pyrrolidin-2-ylmethanol;(2S)-2-Pyrrolidinemethanol;(2S)-2-(Hydroxymethyl)pyrrolidine",
    "duplicated_cas_no": "5044-49-5;1311182-49-6",
    "SMILES": "C(O)[C@@H]1CCCN1",
    "meta_data": {
        "InChI": "InChI=1S/C5H11NO/c7-4-5-2-1-3-6-5/h5-7H,1-4H2/t5-/m0/s1",
        "InChIKey": null,
        "Canonical SMILES": "OCC1NCCC1",
        "Molecular Formula": "C<sub>5</sub>H<sub>11</sub>NO",
        "Molecular Mass": "101.15",
        "Boiling Point": "100-105 °C @ Press: 9 Torr",
        "Melting Point": "73-76 °C",
        "Density": "1.025 g/cm³"
    }
}