{
    "cas_no": "93413-76-4",
    "key_name": "1-[Cyano(4-methoxyphenyl)methyl]cyclohexanol",
    "cn_name": null,
    "alternate_name": "Benzeneacetonitrile, α-(1-hydroxycyclohexyl)-4-methoxy-;Benzeneacetonitrile, α-(1-hydroxycyclohexyl)-4-methoxy-, (±)-;α-(1-Hydroxycyclohexyl)-4-methoxybenzeneacetonitrile;1-[Cyano(4-methoxyphenyl)methyl]cyclohexanol;α-(<em>p</em>-Methoxyphenyl)-α-(1-hydroxycyclohexyl)acetonitrile;1-[Cyano(<em>p</em>-methoxyphenyl)methyl]cyclohexanol;(4-Methoxyphenyl)-(1-hydroxycyclohex-1-yl)acetonitrile;2-(1-Hydroxycyclohexyl)-2-(4-methoxyphenyl)acetonitrile",
    "duplicated_cas_no": "131801-69-9;300827-97-8;606928-54-5",
    "SMILES": "C(C#N)(C1(O)CCCCC1)C2=CC=C(OC)C=C2",
    "meta_data": {
        "InChI": "InChI=1S/C15H19NO2/c1-18-13-7-5-12(6-8-13)14(11-16)15(17)9-3-2-4-10-15/h5-8,14,17H,2-4,9-10H2,1H3",
        "InChIKey": null,
        "Canonical SMILES": "N#CC(C1=CC=C(OC)C=C1)C2(O)CCCCC2",
        "Molecular Formula": "C<sub>15</sub>H<sub>19</sub>NO<sub>2</sub>",
        "Molecular Mass": "245.32",
        "Melting Point": "122-124 °C"
    }
}