{
    "cas_no": "446-36-6",
    "key_name": "5-Fluoro-2-nitrophenol",
    "cn_name": "5-氟-2-硝基苯酚;2-硝基-5-氟苯酚;",
    "alternate_name": "Phenol, 5-fluoro-2-nitro-;5-Fluoro-2-nitrophenol;3-Fluoro-6-nitrophenol;2-Nitro-5-fluorophenol;4-Fluoro-2-hydroxynitrobenzene;NSC 10284;4-Fluoro-2-hydroxy-1-nitrobenzene",
    "duplicated_cas_no": "",
    "SMILES": "N(=O)(=O)C1=C(O)C=C(F)C=C1",
    "meta_data": {
        "InChI": "InChI=1S/C6H4FNO3/c7-4-1-2-5(8(10)11)6(9)3-4/h1-3,9H",
        "InChIKey": null,
        "Canonical SMILES": "O=N(=O)C1=CC=C(F)C=C1O",
        "Molecular Formula": "C<sub>6</sub>H<sub>4</sub>FNO<sub>3</sub>",
        "Molecular Mass": "157.10",
        "Melting Point": "36 °C"
    }
}