{
    "cas_no": "19806-17-8",
    "key_name": "1,3-Benzenediacetic acid",
    "cn_name": null,
    "alternate_name": "1,3-Benzenediacetic acid;<em>m</em>-Benzenediacetic acid;<em>m</em>-Phenylenediacetic acid;1,3-Phenylenediacetic acid;NSC 75867;(3-Carboxymethylphenyl)acetic acid;2,2′-(1,3-Phenylene)diacetic acid;2-[3-(Carboxymethyl)phenyl]acetic acid",
    "duplicated_cas_no": "",
    "SMILES": "C(C(O)=O)C1=CC(CC(O)=O)=CC=C1",
    "meta_data": {
        "InChI": "InChI=1S/C10H10O4/c11-9(12)5-7-2-1-3-8(4-7)6-10(13)14/h1-4H,5-6H2,(H,11,12)(H,13,14)",
        "InChIKey": null,
        "Canonical SMILES": "O=C(O)CC1=CC=CC(=C1)CC(=O)O",
        "Molecular Formula": "C<sub>10</sub>H<sub>10</sub>O<sub>4</sub>",
        "Molecular Mass": "194.18",
        "Melting Point": "171.5-172 °C"
    }
}