{
    "cas_no": "123040-79-9",
    "key_name": "6-Chloro-3,4-dihydro-4-methyl-3-oxo-2<em>H</em>-1,4-benzoxazine-8-carboxylic acid",
    "cn_name": "6-氯-4-甲基-3-氧代-3,4-二氢-2H-1,4-苯并噁嗪-8-羧酸;",
    "alternate_name": "2<em>H</em>-1,4-Benzoxazine-8-carboxylic acid, 6-chloro-3,4-dihydro-4-methyl-3-oxo-;6-Chloro-3,4-dihydro-4-methyl-3-oxo-2<em>H</em>-1,4-benzoxazine-8-carboxylic acid",
    "duplicated_cas_no": "",
    "SMILES": "C(O)(=O)C1=C2C(N(C)C(=O)CO2)=CC(Cl)=C1",
    "meta_data": {
        "InChI": "InChI=1S/C10H8ClNO4/c1-12-7-3-5(11)2-6(10(14)15)9(7)16-4-8(12)13/h2-3H,4H2,1H3,(H,14,15)",
        "InChIKey": null,
        "Canonical SMILES": "O=C(O)C1=CC(Cl)=CC2=C1OCC(=O)N2C",
        "Molecular Formula": "C<sub>10</sub>H<sub>8</sub>ClNO<sub>4</sub>",
        "Molecular Mass": "241.63",
        "Melting Point": "241-243 °C"
    }
}