{
    "cas_no": "18516-37-5",
    "key_name": "2-Methyl-1-undecene",
    "cn_name": "2-甲基-1-十一烯;",
    "alternate_name": "1-Undecene, 2-methyl-;2-Methyl-1-undecene;1-Methyl-1-nonylethylene;NSC 93957",
    "duplicated_cas_no": "",
    "SMILES": "C(CCCCCC)CCC(C)=C",
    "meta_data": {
        "InChI": "InChI=1S/C12H24/c1-4-5-6-7-8-9-10-11-12(2)3/h2,4-11H2,1,3H3",
        "InChIKey": null,
        "Canonical SMILES": "C=C(C)CCCCCCCCC",
        "Molecular Formula": "C<sub>12</sub>H<sub>24</sub>",
        "Molecular Mass": "168.32",
        "Boiling Point": "101.45 °C @ Press: 20 Torr"
    }
}