{
    "cas_no": "16405-99-5",
    "key_name": "4-(Bromomethyl)-2,1,3-benzothiadiazole",
    "cn_name": null,
    "alternate_name": "2,1,3-Benzothiadiazole, 4-(bromomethyl)-;4-(Bromomethyl)-2,1,3-benzothiadiazole;4-Bromomethylbenzo[1,2,5]thiadiazole;4-(Bromomethyl)benzo[<em>c</em>][1,2,5]thiadiazole",
    "duplicated_cas_no": "1011349-38-4",
    "SMILES": "C(Br)C=1C=2C(=NSN2)C=CC1",
    "meta_data": {
        "InChI": "InChI=1S/C7H5BrN2S/c8-4-5-2-1-3-6-7(5)10-11-9-6/h1-3H,4H2",
        "InChIKey": null,
        "Canonical SMILES": "BrCC1=CC=CC2=NSN=C21",
        "Molecular Formula": "C<sub>7</sub>H<sub>5</sub>BrN<sub>2</sub>S",
        "Molecular Mass": "229.10",
        "Melting Point": "90.5-91.5 °C"
    }
}