{
    "cas_no": "5522-43-0",
    "key_name": "1-Nitropyrene",
    "cn_name": "1-硝基芘;",
    "alternate_name": "Pyrene, 1-nitro-;1-Nitropyrene;3-Nitropyrene;NSC 81340",
    "duplicated_cas_no": "",
    "SMILES": "N(=O)(=O)C1=C2C3=C4C(C=C2)=CC=CC4=CC=C3C=C1",
    "meta_data": {
        "InChI": "InChI=1S/C16H9NO2/c18-17(19)14-9-7-12-5-4-10-2-1-3-11-6-8-13(14)16(12)15(10)11/h1-9H",
        "InChIKey": null,
        "Canonical SMILES": "O=N(=O)C1=CC=C2C=CC3=CC=CC=4C=CC1=C2C34",
        "Molecular Formula": "C<sub>16</sub>H<sub>9</sub>NO<sub>2</sub>",
        "Molecular Mass": "247.25",
        "Melting Point": "155 °C"
    }
}