{
    "cas_no": "54-36-4",
    "key_name": "Metyrapone",
    "cn_name": "2-甲基-1,2-二-3-吡啶基-1-丙酮;2-甲基-1,2-二-3-吡啶基-1-丙酮;2-甲基-1,2-双(3-吡啶基)-1-丙酮;",
    "alternate_name": "1-Propanone, 2-methyl-1,2-di-3-pyridinyl-;1-Propanone, 2-methyl-1,2-di-3-pyridyl-;2-Methyl-1,2-di-3-pyridinyl-1-propanone;1,2-Bis(3-pyridyl)-2-methyl-1-propanone;Mepyrapone;Methapyrapone;Methopirapone;Methopyrapone;Methopyrinine;2-Methyl-1,2-bis(3-pyridyl)-1-propanone;2-Methyl-1,2-di(β-pyridyl)-1-propanone;2-Methyl-1,2-di-3-pyridyl-1-propanone;Metopirone;Metopyrone;Metyrapone;Su 4885;Metopiron;Metyrapon;Methopyrone;Methbipyranone;Metroprione;NSC 25265;MeSH ID: D008797",
    "duplicated_cas_no": "37245-80-0",
    "SMILES": "C(C(C)(C)C=1C=CC=NC1)(=O)C=2C=CC=NC2",
    "meta_data": {
        "InChI": "InChI=1S/C14H14N2O/c1-14(2,12-6-4-8-16-10-12)13(17)11-5-3-7-15-9-11/h3-10H,1-2H3",
        "InChIKey": null,
        "Canonical SMILES": "O=C(C=1C=NC=CC1)C(C=2C=NC=CC2)(C)C",
        "Molecular Formula": "C<sub>14</sub>H<sub>14</sub>N<sub>2</sub>O",
        "Molecular Mass": "226.27",
        "Melting Point": "50-51 °C"
    }
}