{
    "cas_no": "6848-13-1",
    "key_name": "3-Chloro-<em>N</em>,<em>N</em>-dimethylbenzenamine",
    "cn_name": "3-氯-N,N-二甲基苯胺;",
    "alternate_name": "Benzenamine, 3-chloro-<em>N</em>,<em>N</em>-dimethyl-;Aniline, <em>m</em>-chloro-<em>N</em>,<em>N</em>-dimethyl-;3-Chloro-<em>N</em>,<em>N</em>-dimethylbenzenamine;<em>m</em>-Chloro-<em>N</em>,<em>N</em>-dimethylaniline;3-Chloro-<em>N</em>,<em>N</em>-dimethylaniline;<em>N</em>,<em>N</em>-Dimethyl-<em>m</em>-chloroaniline;<em>N</em>,<em>N</em>-Dimethyl-3-chloroaniline;3-Dimethylamino-1-chlorobenzene;1-Chloro-3-dimethylaminobenzene;3-(<em>N</em>,<em>N</em>-Dimethylamino)-1-chlorobenzene",
    "duplicated_cas_no": "",
    "SMILES": "N(C)(C)C1=CC(Cl)=CC=C1",
    "meta_data": {
        "InChI": "InChI=1S/C8H10ClN/c1-10(2)8-5-3-4-7(9)6-8/h3-6H,1-2H3",
        "InChIKey": null,
        "Canonical SMILES": "ClC1=CC=CC(=C1)N(C)C",
        "Molecular Formula": "C<sub>8</sub>H<sub>10</sub>ClN",
        "Molecular Mass": "155.62",
        "Boiling Point": "251-252 °C"
    }
}