{
    "cas_no": "60142-95-2",
    "key_name": "Gabapentin hydrochloride",
    "cn_name": null,
    "alternate_name": "Cyclohexaneacetic acid, 1-(aminomethyl)-, hydrochloride (1:1);Cyclohexaneacetic acid, 1-(aminomethyl)-, hydrochloride;Gabapentin hydrochloride;2-(1-(Aminomethyl)cyclohexyl)acetic acid hydrochloride",
    "duplicated_cas_no": "",
    "SMILES": "C(C(O)=O)C1(CN)CCCCC1.Cl",
    "meta_data": {
        "InChI": "InChI=1S/C9H17NO2.ClH/c10-7-9(6-8(11)12)4-2-1-3-5-9;/h1-7,10H2,(H,11,12);1H",
        "InChIKey": null,
        "Canonical SMILES": "Cl.O=C(O)CC1(CN)CCCCC1",
        "Molecular Formula": "C<sub>9</sub>H<sub>17</sub>NO<sub>2</sub>.ClH",
        "Molecular Mass": "",
        "Melting Point": "122-124 °C"
    }
}