{
    "cas_no": "501-92-8",
    "key_name": "Chavicol",
    "cn_name": null,
    "alternate_name": "Phenol, 4-(2-propen-1-yl)-;Phenol, <em>p</em>-allyl-;Chavicol;Phenol, 4-(2-propenyl)-;4-(2-Propen-1-yl)phenol;<em>p</em>-Allylphenol;γ-(<em>p</em>-Hydroxyphenyl)-α-propylene;<em>p</em>-Hydroxyallylbenzene;4-Allylphenol;3-(<em>p</em>-Hydroxyphenyl)-1-propene;NSC 290195;4-(2-Propenyl)phenol;(4-Hydroxyphenyl)-2-propene;1-Allyl-4-hydroxybenzene",
    "duplicated_cas_no": "",
    "SMILES": "C(C=C)C1=CC=C(O)C=C1",
    "meta_data": {
        "InChI": "InChI=1S/C9H10O/c1-2-3-8-4-6-9(10)7-5-8/h2,4-7,10H,1,3H2",
        "InChIKey": null,
        "Canonical SMILES": "OC1=CC=C(C=C1)CC=C",
        "Molecular Formula": "C<sub>9</sub>H<sub>10</sub>O",
        "Molecular Mass": "134.18",
        "Boiling Point": "238 °C",
        "Melting Point": "15.8 °C"
    }
}