{
    "cas_no": "500-98-1",
    "key_name": "Phenylacetylglycine",
    "cn_name": null,
    "alternate_name": "Glycine, <em>N</em>-(2-phenylacetyl)-;Glycine, <em>N</em>-(phenylacetyl)-;Phenaceturic acid;<em>N</em>-(2-Phenylacetyl)glycine;Phenylacetylglycine;Phenacetylglycine;<em>N</em>-Phenacetylglycine;<em>N</em>-(Phenylacetyl)glycine;NSC 408424;NSC 92778;2-(2-Phenylacetamido)acetic acid;(2-Phenylacetyl)glycine;2-[(2-Phenylacetyl)amino]acetic acid",
    "duplicated_cas_no": "",
    "SMILES": "C(C(NCC(O)=O)=O)C1=CC=CC=C1",
    "meta_data": {
        "InChI": "InChI=1S/C10H11NO3/c12-9(11-7-10(13)14)6-8-4-2-1-3-5-8/h1-5H,6-7H2,(H,11,12)(H,13,14)",
        "InChIKey": null,
        "Canonical SMILES": "O=C(O)CNC(=O)CC=1C=CC=CC1",
        "Molecular Formula": "C<sub>10</sub>H<sub>11</sub>NO<sub>3</sub>",
        "Molecular Mass": "193.20",
        "Melting Point": "145 °C"
    }
}