{
    "cas_no": "81-92-5",
    "key_name": "2-[Bis(4-hydroxyphenyl)methyl]benzenemethanol",
    "cn_name": "2-BIS(4-羟苯基)甲基苄醇;",
    "alternate_name": "Benzenemethanol, 2-[bis(4-hydroxyphenyl)methyl]-;Benzyl alcohol, <em>o</em>-[bis(<em>p</em>-hydroxyphenyl)methyl]-;2-[Bis(4-hydroxyphenyl)methyl]benzenemethanol;Bis(4-hydroxyphenyl)[2-(hydroxymethyl)phenyl]methane;<em>o</em>-[Bis(<em>p</em>-hydroxyphenyl)methyl]benzyl alcohol;Egmol;Phenolphthalol;Normolax;Regmolax;Velaxin;Regolax;NSC 91527",
    "duplicated_cas_no": "",
    "SMILES": "C(C1=C(CO)C=CC=C1)(C2=CC=C(O)C=C2)C3=CC=C(O)C=C3",
    "meta_data": {
        "InChI": "InChI=1S/C20H18O3/c21-13-16-3-1-2-4-19(16)20(14-5-9-17(22)10-6-14)15-7-11-18(23)12-8-15/h1-12,20-23H,13H2",
        "InChIKey": null,
        "Canonical SMILES": "OC1=CC=C(C=C1)C(C2=CC=C(O)C=C2)C=3C=CC=CC3CO",
        "Molecular Formula": "C<sub>20</sub>H<sub>18</sub>O<sub>3</sub>",
        "Molecular Mass": "306.36",
        "Melting Point": "201.5 °C"
    }
}