{
    "cas_no": "97-93-8",
    "key_name": "Triethylaluminum",
    "cn_name": "三乙基铝;",
    "alternate_name": "Aluminum, triethyl-;Triethylaluminum;Triethylaluminium;Triethylalane;TEAL;TEAL 2",
    "duplicated_cas_no": "13482-15-0",
    "SMILES": "[Al](CC)(CC)CC",
    "meta_data": {
        "InChI": "InChI=1S/3C2H5.Al/c3*1-2;/h3*1H2,2H3;",
        "InChIKey": null,
        "Canonical SMILES": "[Al](CC)(CC)CC",
        "Molecular Formula": "C<sub>6</sub>H<sub>15</sub>Al",
        "Molecular Mass": "",
        "Boiling Point": "194 °C",
        "Melting Point": "-52.5 °C",
        "Density": "0.832 g/cm³ @ Temp: 25 °C"
    }
}