{
    "cas_no": "6575-24-2",
    "key_name": "2,6-Dichlorophenylacetic acid",
    "cn_name": "2,6-二氯苯乙酸;",
    "alternate_name": "Benzeneacetic acid, 2,6-dichloro-;Acetic acid, (2,6-dichlorophenyl)-;2,6-Dichlorobenzeneacetic acid;2,6-Dichlorophenylacetic acid;2-(2,6-Dichlorophenyl)acetic acid",
    "duplicated_cas_no": "",
    "SMILES": "C(C(O)=O)C1=C(Cl)C=CC=C1Cl",
    "meta_data": {
        "InChI": "InChI=1S/C8H6Cl2O2/c9-6-2-1-3-7(10)5(6)4-8(11)12/h1-3H,4H2,(H,11,12)",
        "InChIKey": null,
        "Canonical SMILES": "O=C(O)CC=1C(Cl)=CC=CC1Cl",
        "Molecular Formula": "C<sub>8</sub>H<sub>6</sub>Cl<sub>2</sub>O<sub>2</sub>",
        "Molecular Mass": "205.04",
        "Melting Point": "156-157 °C"
    }
}