{
    "cas_no": "385-00-2",
    "key_name": "2,6-Difluorobenzoic acid",
    "cn_name": "2,6-二氟苯甲酸;",
    "alternate_name": "Benzoic acid, 2,6-difluoro-;2,6-Difluorobenzoic acid;NSC 126584",
    "duplicated_cas_no": "852148-32-4",
    "SMILES": "C(O)(=O)C1=C(F)C=CC=C1F",
    "meta_data": {
        "InChI": "InChI=1S/C7H4F2O2/c8-4-2-1-3-5(9)6(4)7(10)11/h1-3H,(H,10,11)",
        "InChIKey": null,
        "Canonical SMILES": "O=C(O)C=1C(F)=CC=CC1F",
        "Molecular Formula": "C<sub>7</sub>H<sub>4</sub>F<sub>2</sub>O<sub>2</sub>",
        "Molecular Mass": "158.10",
        "Melting Point": "159 °C"
    }
}