{
    "cas_no": "5131-60-2",
    "key_name": "4-Chloro-<em>m</em>-phenylenediamine",
    "cn_name": "4-氯-1,3-苯二胺;4-氯间苯二胺;",
    "alternate_name": "1,3-Benzenediamine, 4-chloro-;<em>m</em>-Phenylenediamine, 4-chloro-;4-Chloro-1,3-benzenediamine;C.I. 76027;4-Chloro-<em>m</em>-phenylenediamine;4-Chloro-1,3-phenylenediamine;1-Chloro-2,4-diaminobenzene;4-Chloro-1,3-diaminobenzene;4-Chloro-3-aminoaniline;3-Amino-4-chloroaniline;2,4-Diaminochlorobenzene;NSC 6074;2-Chloro-1,5-phenylenediamine;2,4-Diamino-1-chlorobenzene",
    "duplicated_cas_no": "",
    "SMILES": "NC1=C(Cl)C=CC(N)=C1",
    "meta_data": {
        "InChI": "InChI=1S/C6H7ClN2/c7-5-2-1-4(8)3-6(5)9/h1-3H,8-9H2",
        "InChIKey": null,
        "Canonical SMILES": "ClC1=CC=C(N)C=C1N",
        "Molecular Formula": "C<sub>6</sub>H<sub>7</sub>ClN<sub>2</sub>",
        "Molecular Mass": "142.59",
        "Melting Point": "91 °C"
    }
}