{
    "cas_no": "13479-54-4",
    "key_name": "Cupric glycinate",
    "cn_name": "甘氨酸铜;",
    "alternate_name": "Copper, bis(glycinato-κ<em>N</em>,κ<em>O</em>)-;Copper, bis(glycinato)-;Copper, bis(glycinato-<em>N</em>,<em>O</em>)-;Bis(glycinato-κ<em>N</em>,κ<em>O</em>)copper;Copper glycinate;Bis(glycinato)copper;Copper diglycinate;Copper(glycine)<sub>2</sub>;Cupric glycinate;Bis(aminoacetato)copper;Copper aminoacetate;Cupric aminoacetate;Bis(glycinato)copper(II);Copper(II) glycinate;Glycine, copper(2+) salt (2:1);Copper bis(glycinate);Copper Chelazome;NSC 162736;B-Traxim 2C Cu;Luoantong",
    "duplicated_cas_no": "142-51-8;5789-40-2;1608467-77-1;2734875-29-5",
    "SMILES": "O=C1[O-][Cu+2]2([O-]C(=O)C[NH2]2)[NH2]C1",
    "meta_data": {
        "InChI": "InChI=1S/2C2H5NO2.Cu/c2*3-1-2(4)5;/h2*1,3H2,(H,4,5);/q;;+2/p-2",
        "InChIKey": null,
        "Canonical SMILES": "O=C1[O-][Cu+2]2([O-]C(=O)C[NH2]2)[NH2]C1",
        "Molecular Formula": "C<sub>4</sub>H<sub>8</sub>CuN<sub>2</sub>O<sub>4</sub>",
        "Molecular Mass": "",
        "Melting Point": "212 °C (decomp)"
    }
}