{
    "cas_no": "53784-84-2",
    "key_name": "6<sup>A</sup>,6<sup>B</sup>,6<sup>C</sup>,6<sup>D</sup>,6<sup>E</sup>,6<sup>F</sup>,6<sup>G</sup>,6<sup>H</sup>-Octabromo-6<sup>A</sup>,6<sup>B</sup>,6<sup>C</sup>,6<sup>D</sup>,6<sup>E</sup>,6<sup>F</sup>,6<sup>G</sup>,6<sup>H</sup>-octadeoxy-γ-cyclodextrin",
    "cn_name": null,
    "alternate_name": "γ-Cyclodextrin, 6<sup>A</sup>,6<sup>B</sup>,6<sup>C</sup>,6<sup>D</sup>,6<sup>E</sup>,6<sup>F</sup>,6<sup>G</sup>,6<sup>H</sup>-octabromo-6<sup>A</sup>,6<sup>B</sup>,6<sup>C</sup>,6<sup>D</sup>,6<sup>E</sup>,6<sup>F</sup>,6<sup>G</sup>,6<sup>H</sup>-octadeoxy-;2,4,7,9,12,14,17,19,22,24,27,29,32,34,37,39-Hexadecaoxanonacyclo[36.2.2.2<sup>3,6</sup>.2<sup>8,11</sup>.2<sup>13,16</sup>.2<sup>18,21</sup>.2<sup>23,26</sup>.2<sup>28,31</sup>.2<sup>33,36</sup>]hexapentacontane, γ-cyclodextrin deriv.;6<sup>A</sup>,6<sup>B</sup>,6<sup>C</sup>,6<sup>D</sup>,6<sup>E</sup>,6<sup>F</sup>,6<sup>G</sup>,6<sup>H</sup>-Octabromo-6<sup>A</sup>,6<sup>B</sup>,6<sup>C</sup>,6<sup>D</sup>,6<sup>E</sup>,6<sup>F</sup>,6<sup>G</sup>,6<sup>H</sup>-octadeoxy-γ-cyclodextrin;6-Bromo-6-deoxy-γ-cyclodextrin;Octakis-(6-bromo-6-deoxy)-γ-cyclodextrin;6-Per-deoxy-6-per-bromo-γ-cyclodextrin",
    "duplicated_cas_no": "",
    "SMILES": "C(Br)[C@@H]1[C@@]2([C@H](O)[C@@H](O)[C@](O1)(O[C@@]3([C@@H](CBr)O[C@@](C(O)[C@H]3O)(O[C@@]4([C@@H](CBr)O[C@@]([C@H](O)[C@H]4O)(O[C@@]5([C@@H](CBr)O[C@@]([C@H](O)[C@H]5O)(O[C@]6([C@H](O)[C@@H](O)[C@@](O[C@]7([C@H](O)[C@@H](O)[C@@](O[C@]8([C@H](O)[C@@H](O)[C@@](O[C@]9([C@H](O)[C@@H](O)[C@@](O2)(O[C@@H]9CBr)[H])[H])(O[C@@H]8CBr)[H])[H])(O[C@@H]7CBr)[H])[H])(O[C@@H]6CBr)[H])[H])[H])[H])[H])[H])[H])[H])[H])[H]",
    "meta_data": {
        "InChI": "InChI=1S/C48H72Br8O32/c49-1-9-33-17(57)25(65)41(73-9)82-34-10(2-50)75-43(27(67)19(34)59)84-36-12(4-52)77-45(29(69)21(36)61)86-38-14(6-54)79-47(31(71)23(38)63)88-40-16(8-56)80-48(32(72)24(40)64)87-39-15(7-55)78-46(30(70)22(39)62)85-37-13(5-53)76-44(28(68)20(37)60)83-35-11(3-51)74-42(81-33)26(66)18(35)58/h9-48,57-72H,1-8H2/t9-,10-,11-,12-,13-,14-,15-,16-,17-,18-,19-,20-,21-,22-,23-,24-,25-,26-,27-,28-,29-,30-,31-,32?,33-,34-,35-,36-,37-,38-,39-,40-,41-,42-,43-,44-,45-,46-,47-,48-/m1/s1",
        "InChIKey": null,
        "Canonical SMILES": "BrCC1OC2OC3C(O)C(O)C(OC3CBr)OC4C(O)C(O)C(OC4CBr)OC5C(O)C(O)C(OC5CBr)OC6C(O)C(O)C(OC6CBr)OC7C(O)C(O)C(OC7CBr)OC8C(O)C(O)C(OC8CBr)OC9C(O)C(O)C(OC9CBr)OC1C(O)C2O",
        "Molecular Formula": "C<sub>48</sub>H<sub>72</sub>Br<sub>8</sub>O<sub>32</sub>",
        "Molecular Mass": "1800.30",
        "Melting Point": "231 °C"
    }
}