{
    "cas_no": "768-03-6",
    "key_name": "1-Phenyl-2-propen-1-one",
    "cn_name": "1-苯基-2-丙烯基-1-酮;苯基丙烯基酮;",
    "alternate_name": "2-Propen-1-one, 1-phenyl-;Acrylophenone;1-Phenyl-2-propen-1-one;2-Methyleneacetophenone;Benzoylethylene;Vinyl phenyl ketone;Phenyl vinyl ketone;3-Oxo-3-phenylpropene;1-Phenylprop-2-enone;NSC 174109;1-Phenylpropenone",
    "duplicated_cas_no": "",
    "SMILES": "C(C=C)(=O)C1=CC=CC=C1",
    "meta_data": {
        "InChI": "InChI=1S/C9H8O/c1-2-9(10)8-6-4-3-5-7-8/h2-7H,1H2",
        "InChIKey": null,
        "Canonical SMILES": "O=C(C=C)C=1C=CC=CC1",
        "Molecular Formula": "C<sub>9</sub>H<sub>8</sub>O",
        "Molecular Mass": "132.16",
        "Boiling Point": "115 °C @ Press: 18 Torr",
        "Melting Point": "183-185 °C"
    }
}