{
    "cas_no": "107-41-5",
    "key_name": "Hexylene glycol",
    "cn_name": "2-甲基-2,4-戊二醇;",
    "alternate_name": "2,4-Pentanediol, 2-methyl-;2-Methyl-2,4-pentanediol;2,4-Dihydroxy-2-methylpentane;Diolane;Hexylene glycol;Isol;α,α,α′-Trimethyltrimethylene glycol;1,1,3-Trimethyltrimethylenediol;MPD;(±)-2-Methyl-2,4-pentanediol;NSC 8098;Hexasol;Isohexanediol",
    "duplicated_cas_no": "99113-75-4",
    "SMILES": "C(C(C)(C)O)C(C)O",
    "meta_data": {
        "InChI": "InChI=1S/C6H14O2/c1-5(7)4-6(2,3)8/h5,7-8H,4H2,1-3H3",
        "InChIKey": null,
        "Canonical SMILES": "OC(C)CC(O)(C)C",
        "Molecular Formula": "C<sub>6</sub>H<sub>14</sub>O<sub>2</sub>",
        "Molecular Mass": "118.17",
        "Boiling Point": "198 °C @ Press: 760 Torr",
        "Melting Point": "-50 °C",
        "Density": "0.92 g/cm³"
    }
}