{
    "cas_no": "7205-98-3",
    "key_name": "[(Chloromethyl)sulfonyl]benzene",
    "cn_name": "氯甲基苯砜;",
    "alternate_name": "Benzene, [(chloromethyl)sulfonyl]-;Sulfone, chloromethyl phenyl;[(Chloromethyl)sulfonyl]benzene;Phenyl chloromethyl sulfone;(Phenylsulfonyl)methyl chloride;Chloromethyl phenyl sulfone;NSC 41586;1-Chloromethylsulfonylbenzene",
    "duplicated_cas_no": "",
    "SMILES": "S(CCl)(=O)(=O)C1=CC=CC=C1",
    "meta_data": {
        "InChI": "InChI=1S/C7H7ClO2S/c8-6-11(9,10)7-4-2-1-3-5-7/h1-5H,6H2",
        "InChIKey": null,
        "Canonical SMILES": "O=S(=O)(C=1C=CC=CC1)CCl",
        "Molecular Formula": "C<sub>7</sub>H<sub>7</sub>ClO<sub>2</sub>S",
        "Molecular Mass": "190.65",
        "Melting Point": "53-55 °C"
    }
}