{
    "cas_no": "919-31-3",
    "key_name": "(2-Cyanoethyl)triethoxysilane",
    "cn_name": "3-三乙氧硅基丙腈;",
    "alternate_name": "Propanenitrile, 3-(triethoxysilyl)-;Propionitrile, 3-(triethoxysilyl)-;3-(Triethoxysilyl)propanenitrile;(β-Cyanoethyl)triethoxysilane;(2-Cyanoethyl)triethoxysilane;3-(Triethoxysilyl)propionitrile;Cyanoethyltriethoxysilane;NSC 77092",
    "duplicated_cas_no": "221363-40-2",
    "SMILES": "[Si](CCC#N)(OCC)(OCC)OCC",
    "meta_data": {
        "InChI": "InChI=1S/C9H19NO3Si/c1-4-11-14(12-5-2,13-6-3)9-7-8-10/h4-7,9H2,1-3H3",
        "InChIKey": null,
        "Canonical SMILES": "N#CCC[Si](OCC)(OCC)OCC",
        "Molecular Formula": "C<sub>9</sub>H<sub>19</sub>NO<sub>3</sub>Si",
        "Molecular Mass": "217.34",
        "Boiling Point": "224-225 °C",
        "Density": "0.979 g/cm³"
    }
}