{
    "cas_no": "21617-20-9",
    "key_name": "6-Chloro-2,3-dihydro-4(1<em>H</em>)-quinolinone",
    "cn_name": null,
    "alternate_name": "4(1<em>H</em>)-Quinolinone, 6-chloro-2,3-dihydro-;4(1<em>H</em>)-Quinolone, 6-chloro-2,3-dihydro-;6-Chloro-2,3-dihydro-4(1<em>H</em>)-quinolinone;6-Chloro-2,3-dihydro-4(1<em>H</em>)-quinolone;6-Chloro-2,3-dihydroquinolin-4(1<em>H</em>)-one",
    "duplicated_cas_no": "400714-12-7",
    "SMILES": "O=C1C=2C(=CC=C(Cl)C2)NCC1",
    "meta_data": {
        "InChI": "InChI=1S/C9H8ClNO/c10-6-1-2-8-7(5-6)9(12)3-4-11-8/h1-2,5,11H,3-4H2",
        "InChIKey": null,
        "Canonical SMILES": "O=C1C2=CC(Cl)=CC=C2NCC1",
        "Molecular Formula": "C<sub>9</sub>H<sub>8</sub>ClNO",
        "Molecular Mass": "181.62",
        "Melting Point": "112 °C"
    }
}