{
    "cas_no": "607-91-0",
    "key_name": "Myristicin",
    "cn_name": "肉豆蔻醚;5-烯丙基-2,3-(亚甲二氧基)苯甲醚;",
    "alternate_name": "1,3-Benzodioxole, 4-methoxy-6-(2-propen-1-yl)-;Myristicin;Benzene, 5-allyl-1-methoxy-2,3-(methylenedioxy)-;1,3-Benzodioxole, 4-methoxy-6-(2-propenyl)-;4-Methoxy-6-(2-propen-1-yl)-1,3-benzodioxole;5-Allyl-1-methoxy-2,3-(methylenedioxy)benzene;6-Allyl-4-methoxy-1,3-benzodioxole;Myristicine",
    "duplicated_cas_no": "",
    "SMILES": "O(C)C1=C2C(=CC(CC=C)=C1)OCO2",
    "meta_data": {
        "InChI": "InChI=1S/C11H12O3/c1-3-4-8-5-9(12-2)11-10(6-8)13-7-14-11/h3,5-6H,1,4,7H2,2H3",
        "InChIKey": null,
        "Canonical SMILES": "O(C=1C=C(C=C2OCOC12)CC=C)C",
        "Molecular Formula": "C<sub>11</sub>H<sub>12</sub>O<sub>3</sub>",
        "Molecular Mass": "192.21",
        "Boiling Point": "276.5 °C",
        "Melting Point": "&lt;-20 °C",
        "Density": "1.1437 g/cm³ @ Temp: 20 °C"
    }
}