{
    "cas_no": "29171-20-8",
    "key_name": "Dehydrolinalool",
    "cn_name": "3,7-二甲基-6-辛烯-1-炔基-3-醇;",
    "alternate_name": "6-Octen-1-yn-3-ol, 3,7-dimethyl-;Linalool, dehydro-;3,7-Dimethyl-6-octen-1-yn-3-ol;β-Linalool, dehydro-;3,7-Dimethyl-3-hydroxy-6-octen-1-yne;Dehydrolinalool;2,6-Dimethyl-2-octen-7-yn-6-ol;Dehydro-β-linalool;3-Hydroxy-3,7-dimethyl-oct-6-en-1-yne",
    "duplicated_cas_no": "5663-88-7;62055-34-9",
    "SMILES": "C(CCC=C(C)C)(C#C)(C)O",
    "meta_data": {
        "InChI": "InChI=1S/C10H16O/c1-5-10(4,11)8-6-7-9(2)3/h1,7,11H,6,8H2,2-4H3",
        "InChIKey": null,
        "Canonical SMILES": "C#CC(O)(C)CCC=C(C)C",
        "Molecular Formula": "C<sub>10</sub>H<sub>16</sub>O",
        "Molecular Mass": "152.23",
        "Boiling Point": "91-93 °C @ Press: 12 Torr",
        "Density": "0.8861 g/cm³ @ Temp: 20 °C"
    }
}