{
    "cas_no": "3658-48-8",
    "key_name": "Bis(2-ethylhexyl) phosphite",
    "cn_name": null,
    "alternate_name": "Phosphonic acid, bis(2-ethylhexyl) ester;Bis(2-ethylhexyl) hydrogen phosphite;Bis(2-ethylhexyl) phosphite;Diisooctyl phosphite;Di-2-Ethylhexyl phosphite;Bis(2-ethylhexyl) phosphonate;Di-2-ethylhexyl hydrogen phosphite;Chelex H 8;Bis(2-ethylhexyl) phosphonic acid;Phosphonic acid di(2-ethylhexyl) ester;NSC 2664;JPE 208",
    "duplicated_cas_no": "131749-47-8;103-22-0;148240-01-1",
    "SMILES": "C(COP(OCC(CCCC)CC)=O)(CCCC)CC",
    "meta_data": {
        "InChI": "InChI=1S/C16H35O3P/c1-5-9-11-15(7-3)13-18-20(17)19-14-16(8-4)12-10-6-2/h15-16,20H,5-14H2,1-4H3",
        "InChIKey": null,
        "Canonical SMILES": "O=P(OCC(CC)CCCC)OCC(CC)CCCC",
        "Molecular Formula": "C<sub>16</sub>H<sub>35</sub>O<sub>3</sub>P",
        "Molecular Mass": "306.42",
        "Boiling Point": "174 °C @ Press: 7 Torr",
        "Density": "0.940 g/cm³ @ Temp: 25 °C"
    }
}