{
    "cas_no": "70988-04-4",
    "key_name": "3,5-Dimethoxy-β-oxobenzenepropanenitrile",
    "cn_name": null,
    "alternate_name": "Benzenepropanenitrile, 3,5-dimethoxy-β-oxo-;3,5-Dimethoxy-β-oxobenzenepropanenitrile;3,5-Dimethoxybenzoylacetonitrile",
    "duplicated_cas_no": "",
    "SMILES": "C(CC#N)(=O)C1=CC(OC)=CC(OC)=C1",
    "meta_data": {
        "InChI": "InChI=1S/C11H11NO3/c1-14-9-5-8(11(13)3-4-12)6-10(7-9)15-2/h5-7H,3H2,1-2H3",
        "InChIKey": null,
        "Canonical SMILES": "N#CCC(=O)C=1C=C(OC)C=C(OC)C1",
        "Molecular Formula": "C<sub>11</sub>H<sub>11</sub>NO<sub>3</sub>",
        "Molecular Mass": "205.21",
        "Melting Point": "123.2-124.4 °C"
    }
}