{
    "cas_no": "101-75-7",
    "key_name": "4-(Phenylazo)diphenylamine",
    "cn_name": "4-苯基偶氮二苯胺;",
    "alternate_name": "Benzenamine, <em>N</em>-phenyl-4-(2-phenyldiazenyl)-;Diphenylamine, 4-(phenylazo)-;Benzenamine, <em>N</em>-phenyl-4-(phenylazo)-;<em>N</em>-Phenyl-4-(2-phenyldiazenyl)benzenamine;4-(Phenylazo)diphenylamine;<em>N</em>-Phenyl-4-aminoazobenzene;4-Anilinoazobenzene;4-(Phenylamino)azobenzene;4-Phenazodiphenylamine;NSC 74774;<em>N</em>-Phenyl-4-(phenylazo)benzenamine;<em>N</em>-Phenyl-4-(phenylazo)aniline",
    "duplicated_cas_no": "",
    "SMILES": "N(C1=CC=C(N=NC2=CC=CC=C2)C=C1)C3=CC=CC=C3",
    "meta_data": {
        "InChI": "InChI=1S/C18H15N3/c1-3-7-15(8-4-1)19-16-11-13-18(14-12-16)21-20-17-9-5-2-6-10-17/h1-14,19H",
        "InChIKey": null,
        "Canonical SMILES": "N(=NC1=CC=C(C=C1)NC=2C=CC=CC2)C=3C=CC=CC3",
        "Molecular Formula": "C<sub>18</sub>H<sub>15</sub>N<sub>3</sub>",
        "Molecular Mass": "273.33",
        "Melting Point": "80-81 °C"
    }
}