{
    "cas_no": "77326-46-6",
    "key_name": "Methyl 2-cyano-3-nitrobenzoate",
    "cn_name": null,
    "alternate_name": "Benzoic acid, 2-cyano-3-nitro-, methyl ester;Methyl 2-cyano-3-nitrobenzoate;2-Carbomethoxy-6-nitrobenzonitrile",
    "duplicated_cas_no": "",
    "SMILES": "C(#N)C1=C(C(OC)=O)C=CC=C1N(=O)=O",
    "meta_data": {
        "InChI": "InChI=1S/C9H6N2O4/c1-15-9(12)6-3-2-4-8(11(13)14)7(6)5-10/h2-4H,1H3",
        "InChIKey": null,
        "Canonical SMILES": "N#CC=1C(=CC=CC1N(=O)=O)C(=O)OC",
        "Molecular Formula": "C<sub>9</sub>H<sub>6</sub>N<sub>2</sub>O<sub>4</sub>",
        "Molecular Mass": "206.15",
        "Melting Point": "140-142 °C"
    }
}