{
    "cas_no": "98-57-7",
    "key_name": "1-Chloro-4-(methylsulfonyl)benzene",
    "cn_name": "4-氯苯基甲基砜;对氯苯甲砜;",
    "alternate_name": "Benzene, 1-chloro-4-(methylsulfonyl)-;Sulfone, <em>p</em>-chlorophenyl methyl;1-Chloro-4-(methylsulfonyl)benzene;<em>p</em>-Chlorophenyl methyl sulfone;4-Chlorophenyl methyl sulfone;Methyl 4-chlorophenyl sulfone;Methyl <em>p</em>-chlorophenyl sulfone;(4-Chlorophenylsulfonyl)methane;4-(Methylsulfonyl)phenyl chloride;NSC 74456;4-Methylsulfonylbenzene chloride;1-Chloro-4-methanesulfonylbenzene",
    "duplicated_cas_no": "",
    "SMILES": "S(C)(=O)(=O)C1=CC=C(Cl)C=C1",
    "meta_data": {
        "InChI": "InChI=1S/C7H7ClO2S/c1-11(9,10)7-4-2-6(8)3-5-7/h2-5H,1H3",
        "InChIKey": null,
        "Canonical SMILES": "O=S(=O)(C1=CC=C(Cl)C=C1)C",
        "Molecular Formula": "C<sub>7</sub>H<sub>7</sub>ClO<sub>2</sub>S",
        "Molecular Mass": "190.65",
        "Melting Point": "96 °C"
    }
}