{
    "cas_no": "83-53-4",
    "key_name": "1,4-Dibromonaphthalene",
    "cn_name": "1,4-二溴萘;1,4-二溴代萘;1,4-二溴萘;",
    "alternate_name": "Naphthalene, 1,4-dibromo-;1,4-Dibromonaphthalene",
    "duplicated_cas_no": "",
    "SMILES": "BrC=1C2=C(C(Br)=CC1)C=CC=C2",
    "meta_data": {
        "InChI": "InChI=1S/C10H6Br2/c11-9-5-6-10(12)8-4-2-1-3-7(8)9/h1-6H",
        "InChIKey": null,
        "Canonical SMILES": "BrC1=CC=C(Br)C=2C=CC=CC12",
        "Molecular Formula": "C<sub>10</sub>H<sub>6</sub>Br<sub>2</sub>",
        "Molecular Mass": "285.96",
        "Boiling Point": "310 °C",
        "Melting Point": "83 °C"
    }
}