{
    "cas_no": "593-60-2",
    "key_name": "Bromoethene",
    "cn_name": "溴乙烯;",
    "alternate_name": "Ethene, bromo-;Ethylene, bromo-;Bromoethene;Vinyl bromide;Bromoethylene;R 1140B1",
    "duplicated_cas_no": "",
    "SMILES": "C(Br)=C",
    "meta_data": {
        "InChI": "InChI=1S/C2H3Br/c1-2-3/h2H,1H2",
        "InChIKey": null,
        "Canonical SMILES": "BrC=C",
        "Molecular Formula": "C<sub>2</sub>H<sub>3</sub>Br",
        "Molecular Mass": "106.95",
        "Boiling Point": "15.8 °C @ Press: 760 Torr",
        "Melting Point": "-137.8 °C",
        "Density": "1.4933 g/cm³ @ Temp: 20 °C"
    }
}