{
    "cas_no": "1603-47-0",
    "key_name": "8-Hydroxybergapten",
    "cn_name": null,
    "alternate_name": "7<em>H</em>-Furo[3,2-<em>g</em>][1]benzopyran-7-one, 9-hydroxy-4-methoxy-;5-Benzofuranacrylic acid, 6,7-dihydroxy-4-methoxy-, δ-lactone;9-Hydroxy-4-methoxy-7<em>H</em>-furo[3,2-<em>g</em>][1]benzopyran-7-one;8-Hydroxybergapten;9-Hydroxy-4-methoxypsoralen;5-Methoxy-8-hydroxypsoralen;8-Hydroxy-5-methoxypsoralen",
    "duplicated_cas_no": "",
    "SMILES": "O(C)C=1C2=C(C(O)=C3C1C=CO3)OC(=O)C=C2",
    "meta_data": {
        "InChI": "InChI=1S/C12H8O5/c1-15-10-6-2-3-8(13)17-12(6)9(14)11-7(10)4-5-16-11/h2-5,14H,1H3",
        "InChIKey": null,
        "Canonical SMILES": "O=C1OC=2C(O)=C3OC=CC3=C(OC)C2C=C1",
        "Molecular Formula": "C<sub>12</sub>H<sub>8</sub>O<sub>5</sub>",
        "Molecular Mass": "232.19",
        "Melting Point": "221.5-222 °C"
    }
}