{
    "cas_no": "1945-84-2",
    "key_name": "2-Ethynylpyridine",
    "cn_name": "2-乙炔基吡啶;2-乙炔吡啶;2-乙炔基吡啶, 98%, INHIBITED WITH 0.01% HYDROQUINE;2-乙炔基吡啶, 98%, STAB. ;",
    "alternate_name": "Pyridine, 2-ethynyl-;2-Ethynylpyridine;2-Pyridylacetylene;Pyridin-2-ylacetylene;2-Pyridylethyne;2-Pyridinylethyne",
    "duplicated_cas_no": "",
    "SMILES": "C(#C)C1=CC=CC=N1",
    "meta_data": {
        "InChI": "InChI=1S/C7H5N/c1-2-7-5-3-4-6-8-7/h1,3-6H",
        "InChIKey": null,
        "Canonical SMILES": "C#CC1=NC=CC=C1",
        "Molecular Formula": "C<sub>7</sub>H<sub>5</sub>N",
        "Molecular Mass": "103.12",
        "Boiling Point": "86-88 °C @ Press: 14 Torr",
        "Melting Point": "76-78 °C"
    }
}