{
    "cas_no": "2210-24-4",
    "key_name": "<em>N</em>-Phenylacrylamide",
    "cn_name": "N-苯基丙烯酰胺;",
    "alternate_name": "2-Propenamide, <em>N</em>-phenyl-;Acrylanilide;<em>N</em>-Phenyl-2-propenamide;<em>N</em>-Phenylacrylamide;<em>N</em>-Acryloylaniline;NSC 6857",
    "duplicated_cas_no": "",
    "SMILES": "N(C(C=C)=O)C1=CC=CC=C1",
    "meta_data": {
        "InChI": "InChI=1S/C9H9NO/c1-2-9(11)10-8-6-4-3-5-7-8/h2-7H,1H2,(H,10,11)",
        "InChIKey": null,
        "Canonical SMILES": "O=C(C=C)NC=1C=CC=CC1",
        "Molecular Formula": "C<sub>9</sub>H<sub>9</sub>NO",
        "Molecular Mass": "147.17",
        "Boiling Point": "145-150 °C @ Press: 3 Torr",
        "Melting Point": "104 °C"
    }
}