{
    "cas_no": "18299-54-2",
    "key_name": "1,2-Ethanediamine, hydrochloride (1:1)",
    "cn_name": "乙二胺盐酸盐;",
    "alternate_name": "1,2-Ethanediamine, hydrochloride (1:1);Ethylenediamine, monohydrochloride;1,2-Ethanediamine, monohydrochloride;Ethylenediamine hydrochloride",
    "duplicated_cas_no": "",
    "SMILES": "C(CN)N.Cl",
    "meta_data": {
        "InChI": "InChI=1S/C2H8N2.ClH/c3-1-2-4;/h1-4H2;1H",
        "InChIKey": null,
        "Canonical SMILES": "Cl.NCCN",
        "Molecular Formula": "C<sub>2</sub>H<sub>8</sub>N<sub>2</sub>.ClH",
        "Molecular Mass": "",
        "Melting Point": "143 °C"
    }
}