{
    "cas_no": "3588-63-4",
    "key_name": "<em>N</em>-(Benzyloxycarbonyl)-<span class=\"text-smallcaps\">DL</span>-valine",
    "cn_name": "N-苄氧羰基-DL-缬氨酸;",
    "alternate_name": "Valine, <em>N</em>-[(phenylmethoxy)carbonyl]-;Valine, <em>N</em>-carboxy-, <em>N</em>-benzyl ester, <span class=\"text-smallcaps\">DL</span>-;<span class=\"text-smallcaps\">DL</span>-Valine, <em>N</em>-[(phenylmethoxy)carbonyl]-;<em>N</em>-[(Phenylmethoxy)carbonyl]valine;<em>N</em>-(Benzyloxycarbonyl)-<span class=\"text-smallcaps\">DL</span>-valine;<em>N</em>-Carbobenzoxy-<span class=\"text-smallcaps\">DL</span>-valine;<em>N</em>-Carbobenzyloxy-<span class=\"text-smallcaps\">DL</span>-valine;NSC 33501;<span class=\"text-smallcaps\">D</smallcap><smallcap>L</span>-Cbz-Valine;<span class=\"text-smallcaps\">DL</span>-Cbz valine;2-(((Benzyloxy)carbonyl)amino)-3-methylbutanoicacid;3-Methyl-2-(phenylmethoxycarbonylamino)butanoic acid;2-[[(Benzyloxy)carbonyl]amino]-3-methylbutanoic acid",
    "duplicated_cas_no": "95665-57-9;89684-26-4;92077-76-4",
    "SMILES": "C(NC(OCC1=CC=CC=C1)=O)(C(C)C)C(O)=O",
    "meta_data": {
        "InChI": "InChI=1S/C13H17NO4/c1-9(2)11(12(15)16)14-13(17)18-8-10-6-4-3-5-7-10/h3-7,9,11H,8H2,1-2H3,(H,14,17)(H,15,16)",
        "InChIKey": null,
        "Canonical SMILES": "O=C(OCC=1C=CC=CC1)NC(C(=O)O)C(C)C",
        "Molecular Formula": "C<sub>13</sub>H<sub>17</sub>NO<sub>4</sub>",
        "Molecular Mass": "251.28",
        "Melting Point": "72-73 °C"
    }
}