{
    "cas_no": "134521-16-7",
    "key_name": "Bis(4-cyanophenyl)methanol",
    "cn_name": "双(4-氰基苯基)甲醇;4-[alpha-(4-氰基苯基)羟甲基]苯甲腈;",
    "alternate_name": "Benzonitrile, 4,4′-(hydroxymethylene)bis-;4,4′-(Hydroxymethylene)bis[benzonitrile];CGP 44645;Bis(4-cyanophenyl)methanol;Bis(<em>p</em>-cyanophenyl)methanol;4,4′-Methanolbisbenzonitrile;4-[(4-Cyanophenyl)(hydroxy)methyl]benzonitrile",
    "duplicated_cas_no": "",
    "SMILES": "C(O)(C1=CC=C(C#N)C=C1)C2=CC=C(C#N)C=C2",
    "meta_data": {
        "InChI": "InChI=1S/C15H10N2O/c16-9-11-1-5-13(6-2-11)15(18)14-7-3-12(10-17)4-8-14/h1-8,15,18H",
        "InChIKey": null,
        "Canonical SMILES": "N#CC1=CC=C(C=C1)C(O)C2=CC=C(C#N)C=C2",
        "Molecular Formula": "C<sub>15</sub>H<sub>10</sub>N<sub>2</sub>O",
        "Molecular Mass": "234.25",
        "Melting Point": "158-159 °C"
    }
}