{
    "cas_no": "124750-99-8",
    "key_name": "Losartan potassium",
    "cn_name": "氯沙坦钾;洛沙坦钾;2-丁基-4-氯-5-(羟甲基)-[[2\"-(1H-四氮唑-5-基)联苯-4-基]甲基]咪唑钾;",
    "alternate_name": "1<em>H</em>-Imidazole-5-methanol, 2-butyl-4-chloro-1-[[2′-(2<em>H</em>-tetrazol-5-yl)[1,1′-biphenyl]-4-yl]methyl]-, potassium salt (1:1);1<em>H</em>-Imidazole-5-methanol, 2-butyl-4-chloro-1-[[2′-(1<em>H</em>-tetrazol-5-yl)[1,1′-biphenyl]-4-yl]methyl]-, monopotassium salt;DuP 753;Du Pont 753;MK 954;Losartan potassium;Cozaar;Nu-Lotan;Losartan monopotassium salt;Zaart;Losacar;Losium;Aradois;Losartan potassium salt;Losar;Presartan 50;Losata;Tancin;Amosar;Losatan potassium;Potassium 5-(4′-((2-butyl-4-chloro-5-(hydroxymethyl)-1<em>H</em>-imidazol-1-yl)methyl)-[1,1′-biphenyl]-2-yl)tetrazol-1-ide",
    "duplicated_cas_no": "405554-24-7;1017795-20-8;1202865-13-1;1262770-26-2;2387510-85-0",
    "SMILES": "C(N1C(CCCC)=NC(Cl)=C1CO)C2=CC=C(C=C2)C3=C(C=CC=C3)C=4NN=NN4.[K]",
    "meta_data": {
        "InChI": "InChI=1S/C22H23ClN6O.K/c1-2-3-8-20-24-21(23)19(14-30)29(20)13-15-9-11-16(12-10-15)17-6-4-5-7-18(17)22-25-27-28-26-22;/h4-7,9-12,30H,2-3,8,13-14H2,1H3,(H,25,26,27,28);",
        "InChIKey": null,
        "Canonical SMILES": "[K].ClC=1N=C(N(C1CO)CC=2C=CC(=CC2)C=3C=CC=CC3C4=NN=NN4)CCCC",
        "Molecular Formula": "C<sub>22</sub>H<sub>23</sub>ClN<sub>6</sub>O.K",
        "Molecular Mass": "",
        "Melting Point": "183.5-184.5 °C"
    }
}