{
    "cas_no": "117-12-4",
    "key_name": "Anthrarufin",
    "cn_name": "1,5-二羟基蒽醌;1,5-蒽醌二酚;蒽绛酚;",
    "alternate_name": "9,10-Anthracenedione, 1,5-dihydroxy-;Anthrarufin;Anthraquinone, 1,5-dihydroxy-;1,5-Dihydroxy-9,10-anthracenedione;1,5-Dihydroxyanthraquinone;1,5-Dihydroxy-9,10-anthraquinone;NSC 646570;NSC 7211;1,5-Dihydroxy-9,10-dihydroanthracene-9,10-dione",
    "duplicated_cas_no": "32073-06-6",
    "SMILES": "O=C1C=2C(C(=O)C=3C1=CC=CC3O)=CC=CC2O",
    "meta_data": {
        "InChI": "InChI=1S/C14H8O4/c15-9-5-1-3-7-11(9)14(18)8-4-2-6-10(16)12(8)13(7)17/h1-6,15-16H",
        "InChIKey": null,
        "Canonical SMILES": "O=C1C=2C=CC=C(O)C2C(=O)C=3C=CC=C(O)C13",
        "Molecular Formula": "C<sub>14</sub>H<sub>8</sub>O<sub>4</sub>",
        "Molecular Mass": "240.21",
        "Melting Point": "280 °C",
        "Density": "1.56 g/cm³"
    }
}