{
    "cas_no": "134-20-3",
    "key_name": "Methyl anthranilate",
    "cn_name": "氨茴酸甲酯;邻氨基苯甲酸甲酯;2-氨基苯甲酸甲酯;",
    "alternate_name": "Benzoic acid, 2-amino-, methyl ester;Anthranilic acid, methyl ester;Methyl 2-aminobenzoate;Methyl anthranilate;Methyl <em>o</em>-aminobenzoate;2-Aminobenzoic acid methyl ester;2-(Methoxycarbonyl)aniline;<em>o</em>-Carbomethoxyaniline;2-Carbomethoxyaniline;<em>o</em>-Aminobenzoic acid methyl ester;ReJex-iT;Bird Shield;Rejex-iT TP 40;Rejex-iT AP 50;[2-(Methoxycarbonyl)phenyl]amine;<em>o</em>-(Methoxycarbonyl)aniline;NSC 3109;Grain 96-1;Sunarome UVA;Methyl 6-aminobenzoate;Fog Force;RejeX-it Fog Force;2-Amino-1-methylbenzoate;PPC 17F",
    "duplicated_cas_no": "",
    "SMILES": "C(OC)(=O)C1=C(N)C=CC=C1",
    "meta_data": {
        "InChI": "InChI=1S/C8H9NO2/c1-11-8(10)6-4-2-3-5-7(6)9/h2-5H,9H2,1H3",
        "InChIKey": null,
        "Canonical SMILES": "O=C(OC)C=1C=CC=CC1N",
        "Molecular Formula": "C<sub>8</sub>H<sub>9</sub>NO<sub>2</sub>",
        "Molecular Mass": "151.16",
        "Boiling Point": "256 °C",
        "Melting Point": "24.5 °C",
        "Density": "1.168 g/cm³ @ Temp: 20 °C"
    }
}