{
    "cas_no": "58757-38-3",
    "key_name": "6-Chloronicotinoyl chloride",
    "cn_name": "6-氯吡啶-3-羰酰氯;6-氯烟酰氯;6-氯烟酸酰氯;6-氯-3-吡啶甲酰氯;",
    "alternate_name": "3-Pyridinecarbonyl chloride, 6-chloro-;6-Chloro-3-pyridinecarbonyl chloride;6-Chloronicotinoyl chloride;6-Chloronicotinic acid chloride;2-Chloropyridine-5-carbonyl chloride;6-Chloronicotinyl chloride;6-Chloropyridin-3-carbonyl chloride",
    "duplicated_cas_no": "",
    "SMILES": "C(Cl)(=O)C=1C=CC(Cl)=NC1",
    "meta_data": {
        "InChI": "InChI=1S/C6H3Cl2NO/c7-5-2-1-4(3-9-5)6(8)10/h1-3H",
        "InChIKey": null,
        "Canonical SMILES": "O=C(Cl)C1=CN=C(Cl)C=C1",
        "Molecular Formula": "C<sub>6</sub>H<sub>3</sub>Cl<sub>2</sub>NO",
        "Molecular Mass": "176.00",
        "Boiling Point": "85 °C",
        "Melting Point": "49-51 °C"
    }
}