{
    "cas_no": "556-91-2",
    "key_name": "Aluminum <em>tert</em>-butoxide",
    "cn_name": "叔丁氧基铝;特丁醇铝;第三丁基氧化铝;叔丁基氧化铝;",
    "alternate_name": "2-Propanol, 2-methyl-, aluminum salt (3:1);<em>tert</em>-Butyl alcohol, aluminum salt;Aluminum <em>tert</em>-butoxide;2-Propanol, 2-methyl-, aluminum salt;Aluminum <em>tert</em>-butylate;Tri-<em>tert</em>-butoxyaluminum;Aluminum <em>tert</em>-butanolate;Aluminum tri-<em>tert</em>-butoxide;Aluminum tris(<em>tert</em>-butoxide);Tris(2-methyl-2-propanolato)aluminum;Aluminum <em>t</em>-butoxide;Aluminum tris(<em>tert</em>-butylate);Aluminum (III) tert-butoxide",
    "duplicated_cas_no": "3099-76-1;144501-46-2;200575-20-8;344914-50-7;856321-03-4;918344-19-1;1498290-13-3",
    "SMILES": "C(C)(C)(C)O.[Al]",
    "meta_data": {
        "InChI": "InChI=1S/C4H10O.Al/c1-4(2,3)5;/h5H,1-3H3;",
        "InChIKey": null,
        "Canonical SMILES": "[Al].OC(C)(C)C",
        "Molecular Formula": "C<sub>4</sub>H<sub>10</sub>O.<sup>1</sup>/<sub>3</sub>Al",
        "Molecular Mass": "",
        "Boiling Point": "160-170 °C @ Press: 1 Torr"
    }
}