{
    "cas_no": "541-35-5",
    "key_name": "Butyramide",
    "cn_name": "丁酰胺;",
    "alternate_name": "Butanamide;Butyramide;<em>n</em>-Butylamide;<em>n</em>-Butyramide;Butanimidic acid;NSC 8424",
    "duplicated_cas_no": "42861-32-5",
    "SMILES": "C(C(N)=O)CC",
    "meta_data": {
        "InChI": "InChI=1S/C4H9NO/c1-2-3-4(5)6/h2-3H2,1H3,(H2,5,6)",
        "InChIKey": null,
        "Canonical SMILES": "O=C(N)CCC",
        "Molecular Formula": "C<sub>4</sub>H<sub>9</sub>NO",
        "Molecular Mass": "87.12",
        "Boiling Point": "216 °C",
        "Melting Point": "115-116 °C",
        "Density": "0.8850 g/cm³ @ Temp: 120 °C"
    }
}