{
    "cas_no": "2818-88-4",
    "key_name": "2-Methylbenzoselenazole",
    "cn_name": "2-甲基-硒氮茚;",
    "alternate_name": "Benzoselenazole, 2-methyl-;2-Methylbenzoselenazole;NSC 379483;2-Methyl-1,3-benzoselenazole",
    "duplicated_cas_no": "1195144-19-4",
    "SMILES": "CC1=NC=2C([Se]1)=CC=CC2",
    "meta_data": {
        "InChI": "InChI=1S/C8H7NSe/c1-6-9-7-4-2-3-5-8(7)10-6/h2-5H,1H3",
        "InChIKey": null,
        "Canonical SMILES": "N=1C=2C=CC=CC2[Se]C1C",
        "Molecular Formula": "C<sub>8</sub>H<sub>7</sub>NSe",
        "Molecular Mass": "196.11",
        "Boiling Point": "140 °C @ Press: 51 Torr",
        "Melting Point": "32-33 °C"
    }
}