{
    "cas_no": "89371-44-8",
    "key_name": "Imidaprilat",
    "cn_name": null,
    "alternate_name": "4-Imidazolidinecarboxylic acid, 3-[(2<em>S</em>)-2-[[(1<em>S</em>)-1-carboxy-3-phenylpropyl]amino]-1-oxopropyl]-1-methyl-2-oxo-, (4<em>S</em>)-;4-Imidazolidinecarboxylic acid, 3-[2-[(1-carboxy-3-phenylpropyl)amino]-1-oxopropyl]-1-methyl-2-oxo-, [4<em>S</em>-[3[<em>R</em>*(<em>R</em>*)],4<em>R</em>*]]-;(4<em>S</em>)-3-[(2<em>S</em>)-2-[[(1<em>S</em>)-1-Carboxy-3-phenylpropyl]amino]-1-oxopropyl]-1-methyl-2-oxo-4-imidazolidinecarboxylic acid;6366A;Imidaprilat;(4<em>S</em>)-3-[(2<em>S</em>)-<em>N</em>-[(1<em>S</em>)-1-Carboxy-3-phenylpropyl]alanyl]-1-methyl-2-oxo-4-imidazolidinecarboxylic acid;Imidaprilate",
    "duplicated_cas_no": "",
    "SMILES": "C([C@@H](N[C@@H](CCC1=CC=CC=C1)C(O)=O)C)(=O)N2[C@H](C(O)=O)CN(C)C2=O",
    "meta_data": {
        "InChI": "InChI=1S/C18H23N3O6/c1-11(15(22)21-14(17(25)26)10-20(2)18(21)27)19-13(16(23)24)9-8-12-6-4-3-5-7-12/h3-7,11,13-14,19H,8-10H2,1-2H3,(H,23,24)(H,25,26)/t11-,13-,14-/m0/s1",
        "InChIKey": null,
        "Canonical SMILES": "O=C(O)C(NC(C(=O)N1C(=O)N(C)CC1C(=O)O)C)CCC=2C=CC=CC2",
        "Molecular Formula": "C<sub>18</sub>H<sub>23</sub>N<sub>3</sub>O<sub>6</sub>",
        "Molecular Mass": "377.39",
        "Melting Point": "239-241 °C"
    }
}