{
    "cas_no": "2358-29-4",
    "key_name": "2,3,6-Trifluorobenzoic acid",
    "cn_name": "2,3,6-三氟苯甲酸;",
    "alternate_name": "Benzoic acid, 2,3,6-trifluoro-;2,3,6-Trifluorobenzoic acid;2,5,6-Trifluorobenzoic acid",
    "duplicated_cas_no": "",
    "SMILES": "C(O)(=O)C1=C(F)C(F)=CC=C1F",
    "meta_data": {
        "InChI": "InChI=1S/C7H3F3O2/c8-3-1-2-4(9)6(10)5(3)7(11)12/h1-2H,(H,11,12)",
        "InChIKey": null,
        "Canonical SMILES": "O=C(O)C=1C(F)=CC=C(F)C1F",
        "Molecular Formula": "C<sub>7</sub>H<sub>3</sub>F<sub>3</sub>O<sub>2</sub>",
        "Molecular Mass": "176.09",
        "Melting Point": "130.5 °C"
    }
}