{
    "cas_no": "1610-18-0",
    "key_name": "Prometon",
    "cn_name": "扑灭通;扑草通;扑灭通;",
    "alternate_name": "1,3,5-Triazine-2,4-diamine, 6-methoxy-<em>N</em><sup>2</sup>,<em>N</em><sup>4</sup>-bis(1-methylethyl)-;<em>s</em>-Triazine, 2,4-bis(isopropylamino)-6-methoxy-;1,3,5-Triazine-2,4-diamine, 6-methoxy-<em>N</em>,<em>N</em>′-bis(1-methylethyl)-;6-Methoxy-<em>N</em><sup>2</sup>,<em>N</em><sup>4</sup>-bis(1-methylethyl)-1,3,5-triazine-2,4-diamine;G 31435;2,4-Bis(isopropylamino)-6-methoxy-<em>s</em>-triazine;4,6-Bis(isopropylamino)-2-methoxy-<em>s</em>-triazine;Gesafram;2-Methoxy-4,6-bis(isopropylamino)-<em>s</em>-triazine;2-Methoxy-4,6-bis(isopropylamino)-1,3,5-triazine;Methoxypropazine;Prometon;Prometone;Pramitol 5P;Pramitol;NSC 163048;2,4-Bis(isopropylamino)-6-methoxy-1,3,5-triazine",
    "duplicated_cas_no": "11126-75-3",
    "SMILES": "N(C(C)C)C=1N=C(NC(C)C)N=C(OC)N1",
    "meta_data": {
        "InChI": "InChI=1S/C10H19N5O/c1-6(2)11-8-13-9(12-7(3)4)15-10(14-8)16-5/h6-7H,1-5H3,(H2,11,12,13,14,15)",
        "InChIKey": null,
        "Canonical SMILES": "N=1C(=NC(=NC1NC(C)C)NC(C)C)OC",
        "Molecular Formula": "C<sub>10</sub>H<sub>19</sub>N<sub>5</sub>O",
        "Molecular Mass": "225.29",
        "Melting Point": "91-92 °C"
    }
}