{
    "cas_no": "4621-66-3",
    "key_name": "Thionicotinamide",
    "cn_name": "硫代烟酰胺;3-吡啶基硫代甲酰胺;",
    "alternate_name": "3-Pyridinecarbothioamide;Nicotinamide, thio-;Thionicotinamide;3-Thioamidopyridine;Nicotinothioamide;3-Pyridinethiocarboxamide;Thio-3-pyridinecarboxamide;3-Thiocarbamoylpyridine;3-Pyridylthioformamide;SR 4336;Nicotinic acid thioamide;NSC 18336;3-(Aminothiocarbonyl)pyridine",
    "duplicated_cas_no": "",
    "SMILES": "C(N)(=S)C=1C=CC=NC1",
    "meta_data": {
        "InChI": "InChI=1S/C6H6N2S/c7-6(9)5-2-1-3-8-4-5/h1-4H,(H2,7,9)",
        "InChIKey": null,
        "Canonical SMILES": "S=C(N)C=1C=NC=CC1",
        "Molecular Formula": "C<sub>6</sub>H<sub>6</sub>N<sub>2</sub>S",
        "Molecular Mass": "138.19",
        "Melting Point": "180-181 °C"
    }
}