{
    "cas_no": "615-36-1",
    "key_name": "2-Bromoaniline",
    "cn_name": "2-溴苯胺;邻溴苯胺;",
    "alternate_name": "Benzenamine, 2-bromo-;Aniline, <em>o</em>-bromo-;2-Bromobenzenamine;<em>o</em>-Aminobromobenzene;<em>o</em>-Bromoaniline;2-Bromoaniline;2-Amino-1-bromobenzene;NSC 7086;2-Bromophenylamine;2-Aminobromobenzene",
    "duplicated_cas_no": "",
    "SMILES": "BrC1=C(N)C=CC=C1",
    "meta_data": {
        "InChI": "InChI=1S/C6H6BrN/c7-5-3-1-2-4-6(5)8/h1-4H,8H2",
        "InChIKey": null,
        "Canonical SMILES": "BrC=1C=CC=CC1N",
        "Molecular Formula": "C<sub>6</sub>H<sub>6</sub>BrN",
        "Molecular Mass": "172.02",
        "Boiling Point": "229 °C",
        "Melting Point": "32 °C",
        "Density": "1.52 g/cm³"
    }
}