{
    "cas_no": "22737-37-7",
    "key_name": "<em>N</em>,<em>O</em>-Bis(trimethylsilyl)hydroxylamine",
    "cn_name": "N,O-双三甲硅基羟胺;",
    "alternate_name": "Silanamine, 1,1,1-trimethyl-<em>N</em>-[(trimethylsilyl)oxy]-;Silylamine, 1,1,1-trimethyl-<em>N</em>-(trimethylsiloxy)-;1,1,1-Trimethyl-<em>N</em>-[(trimethylsilyl)oxy]silanamine;<em>N</em>,<em>O</em>-Bis(trimethylsilyl)hydroxylamine;1,1,1-Trimethyl-<em>N</em>-(trimethylsiloxy)silylamine",
    "duplicated_cas_no": "",
    "SMILES": "N(O[Si](C)(C)C)[Si](C)(C)C",
    "meta_data": {
        "InChI": "InChI=1S/C6H19NOSi2/c1-9(2,3)7-8-10(4,5)6/h7H,1-6H3",
        "InChIKey": null,
        "Canonical SMILES": "O(N[Si](C)(C)C)[Si](C)(C)C",
        "Molecular Formula": "C<sub>6</sub>H<sub>19</sub>NOSi<sub>2</sub>",
        "Molecular Mass": "177.39",
        "Boiling Point": "78-79 °C @ Press: 100 Torr",
        "Density": "0.830 g/cm³"
    }
}