{
    "cas_no": "5469-70-5",
    "key_name": "3-Pyridazinamine",
    "cn_name": "哒嗪-3-胺;",
    "alternate_name": "3-Pyridazinamine;Pyridazine, 3-amino-;3-Aminopyridazine;2,3-Dihydro-3-iminopyridazine;NSC 25228;(Pyridazin-3-yl)amine;Pyridazin-3-amine",
    "duplicated_cas_no": "37076-90-7",
    "SMILES": "NC1=CC=CN=N1",
    "meta_data": {
        "InChI": "InChI=1S/C4H5N3/c5-4-2-1-3-6-7-4/h1-3H,(H2,5,7)",
        "InChIKey": null,
        "Canonical SMILES": "N=1N=C(N)C=CC1",
        "Molecular Formula": "C<sub>4</sub>H<sub>5</sub>N<sub>3</sub>",
        "Molecular Mass": "95.10",
        "Melting Point": "168-170 °C"
    }
}