{
    "cas_no": "132622-69-6",
    "key_name": "1-(1,1-Dimethylethyl) (2<em>S</em>,4<em>R</em>)-4-amino-1,2-pyrrolidinedicarboxylate",
    "cn_name": "(2S,4R)-4-氨基吡咯烷-1,2-二甲酸 1-叔丁酯;",
    "alternate_name": "1,2-Pyrrolidinedicarboxylic acid, 4-amino-, 1-(1,1-dimethylethyl) ester, (2<em>S</em>,4<em>R</em>)-;1,2-Pyrrolidinedicarboxylic acid, 4-amino-, 1-(1,1-dimethylethyl) ester, (2<em>S</em>-<em>trans</em>)-;1-(1,1-Dimethylethyl) (2<em>S</em>,4<em>R</em>)-4-amino-1,2-pyrrolidinedicarboxylate",
    "duplicated_cas_no": "",
    "SMILES": "C(OC(C)(C)C)(=O)N1[C@H](C(O)=O)C[C@@H](N)C1",
    "meta_data": {
        "InChI": "InChI=1S/C10H18N2O4/c1-10(2,3)16-9(15)12-5-6(11)4-7(12)8(13)14/h6-7H,4-5,11H2,1-3H3,(H,13,14)/t6-,7+/m1/s1",
        "InChIKey": null,
        "Canonical SMILES": "O=C(OC(C)(C)C)N1CC(N)CC1C(=O)O",
        "Molecular Formula": "C<sub>10</sub>H<sub>18</sub>N<sub>2</sub>O<sub>4</sub>",
        "Molecular Mass": "230.26",
        "Melting Point": "228-229 °C"
    }
}