{
    "cas_no": "14456-48-5",
    "key_name": "Dysprosium bromide (DyBr<sub>3</sub>)",
    "cn_name": "超干氯化镝(III);溴化镝(III);",
    "alternate_name": "Dysprosium bromide (DyBr<sub>3</sub>);Dysprosium tribromide;Dysprosium bromide",
    "duplicated_cas_no": "",
    "SMILES": "[Dy](Br)(Br)Br",
    "meta_data": {
        "InChI": "InChI=1S/3BrH.Dy/h3*1H;/q;;;+3/p-3",
        "InChIKey": null,
        "Canonical SMILES": "Br[Dy](Br)Br",
        "Molecular Formula": "Br<sub>3</sub>Dy",
        "Molecular Mass": "",
        "Melting Point": "881 °C"
    }
}