{
    "cas_no": "128-62-1",
    "key_name": "Noscapine",
    "cn_name": "那可汀;纳可丁;",
    "alternate_name": "1(3<em>H</em>)-Isobenzofuranone, 6,7-dimethoxy-3-[(5<em>R</em>)-5,6,7,8-tetrahydro-4-methoxy-6-methyl-1,3-dioxolo[4,5-<em>g</em>]isoquinolin-5-yl]-, (3<em>S</em>)-;Narcotine;1(3<em>H</em>)-Isobenzofuranone, 6,7-dimethoxy-3-(5,6,7,8-tetrahydro-4-methoxy-6-methyl-1,3-dioxolo[4,5-<em>g</em>]isoquinolin-5-yl)-, [<em>S</em>-(<em>R</em>*,<em>S</em>*)]-;1,3-Dioxolo[4,5-<em>g</em>]isoquinoline, 1(3<em>H</em>)-isobenzofuranone deriv.;(3<em>S</em>)-6,7-Dimethoxy-3-[(5<em>R</em>)-5,6,7,8-tetrahydro-4-methoxy-6-methyl-1,3-dioxolo[4,5-<em>g</em>]isoquinolin-5-yl]-1(3<em>H</em>)-isobenzofuranone;Narcosine;Nectadon;Noscapine;α-Narcotine;Longatin;Coscopin;Coscotabs;<em>O</em>-Methylnarcotoline;Narcotin;Opianine;Narkotin;Noscapin;Opianin;Nicolane;Narcompren;Noscapalin;Narcotussin;Opian;(-)-Narcotine;(-)-α-Narcotine;Longactin;<em>l</em>-α-Narcotine;<span class=\"text-smallcaps\">L</span>-α-Noscapine;Tusscapine;Terbenol;Vadebex;NSC 5366;Methoxyhydrastine;Nipaxon;Capval;Lyobex;MeSH ID: D009665",
    "duplicated_cas_no": "567-86-2;1368-39-4;8055-18-3;8057-19-0",
    "SMILES": "O(C)C=1C=2[C@@](N(C)CCC2C=C3C1OCO3)([C@@]4(C=5C(C(=O)O4)=C(OC)C(OC)=CC5)[H])[H]",
    "meta_data": {
        "InChI": "InChI=1S/C22H23NO7/c1-23-8-7-11-9-14-20(29-10-28-14)21(27-4)15(11)17(23)18-12-5-6-13(25-2)19(26-3)16(12)22(24)30-18/h5-6,9,17-18H,7-8,10H2,1-4H3/t17-,18+/m1/s1",
        "InChIKey": null,
        "Canonical SMILES": "O=C1OC(C2=CC=C(OC)C(OC)=C12)C3C4=C(OC)C=5OCOC5C=C4CCN3C",
        "Molecular Formula": "C<sub>22</sub>H<sub>23</sub>NO<sub>7</sub>",
        "Molecular Mass": "413.42",
        "Melting Point": "176 °C",
        "Density": "1.395 g/cm³"
    }
}