{
    "cas_no": "629-97-0",
    "key_name": "Docosane",
    "cn_name": "二十二烷;",
    "alternate_name": "Docosane;<em>n</em>-Docosane;NSC 77139;Parafol 22-95",
    "duplicated_cas_no": "",
    "SMILES": "C(CCCCCCCCCCC)CCCCCCCCCC",
    "meta_data": {
        "InChI": "InChI=1S/C22H46/c1-3-5-7-9-11-13-15-17-19-21-22-20-18-16-14-12-10-8-6-4-2/h3-22H2,1-2H3",
        "InChIKey": null,
        "Canonical SMILES": "CCCCCCCCCCCCCCCCCCCCCC",
        "Molecular Formula": "C<sub>22</sub>H<sub>46</sub>",
        "Molecular Mass": "310.60",
        "Boiling Point": "368.6 °C",
        "Melting Point": "44.4 °C",
        "Density": "0.778 g/cm³"
    }
}