{
    "cas_no": "821-95-4",
    "key_name": "1-Undecene",
    "cn_name": null,
    "alternate_name": "1-Undecene;<em>n</em>-1-Undecene;α-Undecene;NSC 73983",
    "duplicated_cas_no": "",
    "SMILES": "C(CCCCC)CCCC=C",
    "meta_data": {
        "InChI": "InChI=1S/C11H22/c1-3-5-7-9-11-10-8-6-4-2/h3H,1,4-11H2,2H3",
        "InChIKey": null,
        "Canonical SMILES": "C=CCCCCCCCCC",
        "Molecular Formula": "C<sub>11</sub>H<sub>22</sub>",
        "Molecular Mass": "154.29",
        "Boiling Point": "192.7 °C @ Press: 760 Torr",
        "Melting Point": "-49.2 °C",
        "Density": "0.7503 g/cm³ @ Temp: 20 °C"
    }
}