{
    "cas_no": "550-44-7",
    "key_name": "<em>N</em>-Methylphthalimide",
    "cn_name": null,
    "alternate_name": "1<em>H</em>-Isoindole-1,3(2<em>H</em>)-dione, 2-methyl-;Phthalimide, <em>N</em>-methyl-;2-Methyl-1<em>H</em>-isoindole-1,3(2<em>H</em>)-dione;<em>N</em>-Methylphthalimide;NSC 44059;2-Methylisoindole-1,3-dione;2-Methylisoindoline-1,3-dione;2,2′-Bis(<em>N</em>-methylphthalimide);2-Methyl-2,3-dihydro-1<em>H</em>-isoindole-1,3-dione",
    "duplicated_cas_no": "",
    "SMILES": "O=C1C=2C(C(=O)N1C)=CC=CC2",
    "meta_data": {
        "InChI": "InChI=1S/C9H7NO2/c1-10-8(11)6-4-2-3-5-7(6)9(10)12/h2-5H,1H3",
        "InChIKey": null,
        "Canonical SMILES": "O=C1C=2C=CC=CC2C(=O)N1C",
        "Molecular Formula": "C<sub>9</sub>H<sub>7</sub>NO<sub>2</sub>",
        "Molecular Mass": "161.16",
        "Boiling Point": "286 °C",
        "Melting Point": "134 °C"
    }
}