{
    "cas_no": "25721-92-0",
    "key_name": "Acetic acid, lanthanum(3+) salt, hydrate (2:3)",
    "cn_name": null,
    "alternate_name": "Acetic acid, lanthanum(3+) salt, hydrate (2:3);Acetic acid, lanthanum(3+) salt, sesquihydrate;Lanthanum acetate, sesquihydrate;Lanthanum triacetate sesquihydrate",
    "duplicated_cas_no": "12550-31-1",
    "SMILES": "C(C)(O)=O.[La].O",
    "meta_data": {
        "InChI": "InChI=1S/C2H4O2.La.H2O/c1-2(3)4;;/h1H3,(H,3,4);;1H2",
        "InChIKey": null,
        "Canonical SMILES": "[La].O=C(O)C.O",
        "Molecular Formula": "C<sub>2</sub>H<sub>4</sub>O<sub>2</sub>.<sup>1</sup>/<sub>2</sub>H<sub>2</sub>O.<sup>1</sup>/<sub>3</sub>La",
        "Molecular Mass": "",
        "Melting Point": "110 °C (decomp)",
        "Density": "1.640 g/cm³"
    }
}