{
    "cas_no": "78191-00-1",
    "key_name": "N-Methoxy-N-methylacetamide",
    "cn_name": "N-甲氧基-N-甲基乙酰胺;",
    "alternate_name": "Acetamide, <em>N</em>-methoxy-<em>N</em>-methyl-;<em>N</em>-Methoxy-<em>N</em>-methylacetamide;<em>N</em>-Methyl-<em>N</em>-methoxyacetamide;<em>N</em>,<em>O</em>-Dimethylacetohydroxamic acid;N-Methoxy-N-methylacetamide",
    "duplicated_cas_no": "118564-87-7",
    "SMILES": "N(C(C)=O)(OC)C",
    "meta_data": {
        "InChI": "InChI=1S/C4H9NO2/c1-4(6)5(2)7-3/h1-3H3",
        "InChIKey": null,
        "Canonical SMILES": "O=C(N(OC)C)C",
        "Molecular Formula": "C<sub>4</sub>H<sub>9</sub>NO<sub>2</sub>",
        "Molecular Mass": "103.12",
        "Boiling Point": "70-73 °C @ Press: 1 Torr"
    }
}