{
    "cas_no": "40246-10-4",
    "key_name": "Glycitin",
    "cn_name": "黄豆黄苷;黄豆黄甙;",
    "alternate_name": "4<em>H</em>-1-Benzopyran-4-one, 7-(β-<span class=\"text-smallcaps\">D</span>-glucopyranosyloxy)-3-(4-hydroxyphenyl)-6-methoxy-;7-(β-<span class=\"text-smallcaps\">D</span>-Glucopyranosyloxy)-3-(4-hydroxyphenyl)-6-methoxy-4<em>H</em>-1-benzopyran-4-one;Glycitein 7-<em>O</em>-β-glucoside;Glycitein 7-<em>O</em>-glucoside;Glycitein-7-β-<em>O</em>-glucoside;Glycitin",
    "duplicated_cas_no": "",
    "SMILES": "O=C1C=2C(=CC(O[C@@H]3O[C@H](CO)[C@@H](O)[C@H](O)[C@H]3O)=C(OC)C2)OC=C1C4=CC=C(O)C=C4",
    "meta_data": {
        "InChI": "InChI=1S/C22H22O10/c1-29-15-6-12-14(30-9-13(18(12)25)10-2-4-11(24)5-3-10)7-16(15)31-22-21(28)20(27)19(26)17(8-23)32-22/h2-7,9,17,19-24,26-28H,8H2,1H3/t17-,19-,20+,21-,22-/m1/s1",
        "InChIKey": null,
        "Canonical SMILES": "O=C1C(=COC=2C=C(OC3OC(CO)C(O)C(O)C3O)C(OC)=CC12)C=4C=CC(O)=CC4",
        "Molecular Formula": "C<sub>22</sub>H<sub>22</sub>O<sub>10</sub>",
        "Molecular Mass": "446.40",
        "Melting Point": "203-204 °C"
    }
}