{
    "cas_no": "33912-87-7",
    "key_name": "<em>N</em>-[(Phenylmethoxy)carbonyl]glycyl-<span class=\"text-smallcaps\">L</span>-valine",
    "cn_name": null,
    "alternate_name": "<span class=\"text-smallcaps\">L</span>-Valine, <em>N</em>-[(phenylmethoxy)carbonyl]glycyl-;<span class=\"text-smallcaps\">L</span>-Valine, <em>N</em>-[<em>N</em>-[(phenylmethoxy)carbonyl]glycyl]-;Valine, <em>N</em>-(<em>N</em>-carboxyglycyl)-, <em>N</em>-benzyl ester, <span class=\"text-smallcaps\">L</span>-;<em>N</em>-[(Phenylmethoxy)carbonyl]glycyl-<span class=\"text-smallcaps\">L</span>-valine;<em>N</em>-(Benzyloxycarbonyl)glycyl-<span class=\"text-smallcaps\">L</span>-valine;(2S)-3-Methyl-2-[[2-(phenylmethoxycarbonylamino)acetyl]amino]butanoic acid",
    "duplicated_cas_no": "",
    "SMILES": "[C@H](NC(CNC(OCC1=CC=CC=C1)=O)=O)([C@H](C)C)C(O)=O",
    "meta_data": {
        "InChI": "InChI=1S/C15H20N2O5/c1-10(2)13(14(19)20)17-12(18)8-16-15(21)22-9-11-6-4-3-5-7-11/h3-7,10,13H,8-9H2,1-2H3,(H,16,21)(H,17,18)(H,19,20)/t13-/m0/s1",
        "InChIKey": null,
        "Canonical SMILES": "O=C(OCC=1C=CC=CC1)NCC(=O)NC(C(=O)O)C(C)C",
        "Molecular Formula": "C<sub>15</sub>H<sub>20</sub>N<sub>2</sub>O<sub>5</sub>",
        "Molecular Mass": "308.33",
        "Melting Point": "145 °C"
    }
}