{
    "cas_no": "31904-29-7",
    "key_name": "Butylferrocene",
    "cn_name": null,
    "alternate_name": "Ferrocene, butyl-;Iron, (butylcyclopentadienyl)cyclopentadienyl-;Butylferrocene;<em>n</em>-Butylferrocene;<em>n</em>-Butylcyclopentadienyl(cyclopentadienyl)iron",
    "duplicated_cas_no": "1273-96-7;38743-37-2",
    "SMILES": "C(CCC)[C-]12[Fe+2]3456789([CH]1=[CH]3[CH]4=[CH]52)[CH-]%10[CH]6=[CH]7[CH]8=[CH]9%10",
    "meta_data": {
        "InChI": "InChI=1S/C9H13.C5H5.Fe/c1-2-3-6-9-7-4-5-8-9;1-2-4-5-3-1;/h4-5,7-8H,2-3,6H2,1H3;1-5H;/q2*-1;+2",
        "InChIKey": null,
        "Canonical SMILES": "CCCC[C-]12[CH]3=[CH]4[CH]5=[CH]1[Fe+2]67894532[CH]=%10[CH]9=[CH]8[CH-]7[CH]%106",
        "Molecular Formula": "C<sub>14</sub>H<sub>18</sub>Fe",
        "Molecular Mass": "",
        "Boiling Point": "108 °C @ Press: 3.5 Torr",
        "Density": "1.1859 g/cm³ @ Temp: 20 °C"
    }
}