{
    "cas_no": "18197-26-7",
    "key_name": "Formamide, <em>N</em>-formyl-, sodium salt",
    "cn_name": "二甲酰氨基钠;",
    "alternate_name": "Formamide, <em>N</em>-formyl-, sodium salt;Diformamide, sodium salt;Sodium diformamide;Sodium diformylamide;Diformylimide sodium salt;Diformylamine sodium salt",
    "duplicated_cas_no": "62837-48-3",
    "SMILES": "N(C=O)C=O.[Na]",
    "meta_data": {
        "InChI": "InChI=1S/C2H3NO2.Na/c4-1-3-2-5;/h1-2H,(H,3,4,5);",
        "InChIKey": null,
        "Canonical SMILES": "[Na].O=CNC=O",
        "Molecular Formula": "C<sub>2</sub>H<sub>3</sub>NO<sub>2</sub>.Na",
        "Molecular Mass": "",
        "Melting Point": "242 °C"
    }
}