{
    "cas_no": "16773-51-6",
    "key_name": "2-Methyl-4-nitro-1-(2-oxiranylmethyl)-1<em>H</em>-imidazole",
    "cn_name": null,
    "alternate_name": "1<em>H</em>-Imidazole, 2-methyl-4-nitro-1-(2-oxiranylmethyl)-;Imidazole, 1-(2,3-epoxypropyl)-2-methyl-4-nitro-;1<em>H</em>-Imidazole, 2-methyl-4-nitro-1-(oxiranylmethyl)-;2-Methyl-4-nitro-1-(2-oxiranylmethyl)-1<em>H</em>-imidazole;NSC 330804;1-(2,3-Epoxypropyl)-2-methyl-4-nitroimidazole;2-Methyl-4-nitro-1-(oxiran-2-ylmethyl)imidazole",
    "duplicated_cas_no": "",
    "SMILES": "C(N1C=C(N(=O)=O)N=C1C)C2CO2",
    "meta_data": {
        "InChI": "InChI=1S/C7H9N3O3/c1-5-8-7(10(11)12)3-9(5)2-6-4-13-6/h3,6H,2,4H2,1H3",
        "InChIKey": null,
        "Canonical SMILES": "O=N(=O)C=1N=C(N(C1)CC2OC2)C",
        "Molecular Formula": "C<sub>7</sub>H<sub>9</sub>N<sub>3</sub>O<sub>3</sub>",
        "Molecular Mass": "183.16",
        "Melting Point": "89-91 °C"
    }
}