{
    "cas_no": "22649-04-3",
    "key_name": "Torachrysone",
    "cn_name": null,
    "alternate_name": "Ethanone, 1-(1,8-dihydroxy-6-methoxy-3-methyl-2-naphthalenyl)-;2′-Acetonaphthone, 1′,8′-dihydroxy-6′-methoxy-3′-methyl-;1-(1,8-Dihydroxy-6-methoxy-3-methyl-2-naphthalenyl)ethanone;Torachrysone;Nakahalene;Trachrysone;1,8-Dihydroxy-2-acetyl-3-methyl-6-methoxynaphthalene",
    "duplicated_cas_no": "",
    "SMILES": "OC=1C2=C(C=C(OC)C=C2O)C=C(C)C1C(C)=O",
    "meta_data": {
        "InChI": "InChI=1S/C14H14O4/c1-7-4-9-5-10(18-3)6-11(16)13(9)14(17)12(7)8(2)15/h4-6,16-17H,1-3H3",
        "InChIKey": null,
        "Canonical SMILES": "O=C(C=1C(O)=C2C(O)=CC(OC)=CC2=CC1C)C",
        "Molecular Formula": "C<sub>14</sub>H<sub>14</sub>O<sub>4</sub>",
        "Molecular Mass": "246.26",
        "Melting Point": "210-214 °C"
    }
}