{
    "cas_no": "13121-70-5",
    "key_name": "Cyhexatin",
    "cn_name": "三环锡;三环己基氢氧化锡;",
    "alternate_name": "Stannane, tricyclohexylhydroxy-;Tin, tricyclohexylhydroxy-;Tricyclohexylhydroxystannane;Plictran;Tricyclohexyltin hydroxide;Tricyclohexylhydroxytin;Plyctran;M 3180;Cyhexatin;Hydroxytricyclohexylstannane;Dowco 213;Tricyclohexylstannanol;Tricyclohexylstannyl hydroxide;Redran 25PB;Pliktran;Acarex;Acarstin;Acarstin L;NSC 179742;Sipcatin;Pennstyl;Hokko Cyhexatin",
    "duplicated_cas_no": "",
    "SMILES": "[Sn](O)(C1CCCCC1)(C2CCCCC2)C3CCCCC3",
    "meta_data": {
        "InChI": "InChI=1S/3C6H11.H2O.Sn/c3*1-2-4-6-5-3-1;;/h3*1H,2-6H2;1H2;/q;;;;+1/p-1",
        "InChIKey": null,
        "Canonical SMILES": "O[Sn](C1CCCCC1)(C2CCCCC2)C3CCCCC3",
        "Molecular Formula": "C<sub>18</sub>H<sub>34</sub>OSn",
        "Molecular Mass": "385.17",
        "Melting Point": "196 °C"
    }
}