{
    "cas_no": "6920-24-7",
    "key_name": "1,2-Hexadecanediol",
    "cn_name": "1,2-二羟基十六烷;",
    "alternate_name": "1,2-Hexadecanediol;1,2-Dihydroxyhexadecane;2-Hydroxycetyl alcohol;1,2-Hexadecylene glycol;NSC 71525",
    "duplicated_cas_no": "1191-54-4;2205885-39-6",
    "SMILES": "C(CCCCCCCCCCC)CCC(CO)O",
    "meta_data": {
        "InChI": "InChI=1S/C16H34O2/c1-2-3-4-5-6-7-8-9-10-11-12-13-14-16(18)15-17/h16-18H,2-15H2,1H3",
        "InChIKey": null,
        "Canonical SMILES": "OCC(O)CCCCCCCCCCCCCC",
        "Molecular Formula": "C<sub>16</sub>H<sub>34</sub>O<sub>2</sub>",
        "Molecular Mass": "258.44",
        "Melting Point": "73.5-73.6 °C"
    }
}