{
    "cas_no": "4196-89-8",
    "key_name": "Neopentyl glycol dibenzoate",
    "cn_name": "2,2-二甲基-1,3-丙二醇,二苯甲酸酯;",
    "alternate_name": "1,3-Propanediol, 2,2-dimethyl-, 1,3-dibenzoate;1,3-Propanediol, 2,2-dimethyl-, dibenzoate;2,2-Dimethyltrimethylene benzoate;Neopentyl glycol dibenzoate;Benzoflex S 312;2,2-Dimethyl-1,3-propanediol dibenzoate;NSC 166504;2,2-Dimethyl-1,3-propylene glycol dibenzoate;Uniplex 512",
    "duplicated_cas_no": "",
    "SMILES": "C(OCC(COC(=O)C1=CC=CC=C1)(C)C)(=O)C2=CC=CC=C2",
    "meta_data": {
        "InChI": "InChI=1S/C19H20O4/c1-19(2,13-22-17(20)15-9-5-3-6-10-15)14-23-18(21)16-11-7-4-8-12-16/h3-12H,13-14H2,1-2H3",
        "InChIKey": null,
        "Canonical SMILES": "O=C(OCC(C)(C)COC(=O)C=1C=CC=CC1)C=2C=CC=CC2",
        "Molecular Formula": "C<sub>19</sub>H<sub>20</sub>O<sub>4</sub>",
        "Molecular Mass": "312.36",
        "Melting Point": "49 °C"
    }
}