{
    "cas_no": "521-74-4",
    "key_name": "5,7-Dibromo-8-hydroxyquinoline",
    "cn_name": "5,7-二溴-8-羟基喹啉;5,7-二溴-8-氧化喹啉;5,7-二溴-8-羟基氮杂萘;",
    "alternate_name": "8-Quinolinol, 5,7-dibromo-;5,7-Dibromo-8-quinolinol;Broxyquinoline;5,7-Dibromo-8-hydroxyquinoline;5,7-Dibromooxine;Dibromoxine;Dibromoxyquinoline;Paramiba;Brodiar;Colepur;Colipar;Fenilor;Paramibe;Broxyquinolin;Dibromoxin;Dibromoksin;Dibromoquin;Intensopan;NSC 1810;NSC 74937;Dibromohydroxyquinoline",
    "duplicated_cas_no": "22307-80-8",
    "SMILES": "OC=1C2=C(C(Br)=CC1Br)C=CC=N2",
    "meta_data": {
        "InChI": "InChI=1S/C9H5Br2NO/c10-6-4-7(11)9(13)8-5(6)2-1-3-12-8/h1-4,13H",
        "InChIKey": null,
        "Canonical SMILES": "BrC1=CC(Br)=C2C=CC=NC2=C1O",
        "Molecular Formula": "C<sub>9</sub>H<sub>5</sub>Br<sub>2</sub>NO",
        "Molecular Mass": "302.95",
        "Melting Point": "196 °C",
        "Density": "2.189 g/cm³"
    }
}