{
    "cas_no": "2216-84-4",
    "key_name": "1,2,3,4,5,6-Cyclohexanehexacarboxylic acid",
    "cn_name": "1,2,3,4,5,6-环己烷六羧酸;",
    "alternate_name": "1,2,3,4,5,6-Cyclohexanehexacarboxylic acid;Hexahydromellitic acid",
    "duplicated_cas_no": "",
    "SMILES": "C(O)(=O)C1C(C(O)=O)C(C(O)=O)C(C(O)=O)C(C(O)=O)C1C(O)=O",
    "meta_data": {
        "InChI": "InChI=1S/C12H12O12/c13-7(14)1-2(8(15)16)4(10(19)20)6(12(23)24)5(11(21)22)3(1)9(17)18/h1-6H,(H,13,14)(H,15,16)(H,17,18)(H,19,20)(H,21,22)(H,23,24)",
        "InChIKey": null,
        "Canonical SMILES": "O=C(O)C1C(C(=O)O)C(C(=O)O)C(C(=O)O)C(C(=O)O)C1C(=O)O",
        "Molecular Formula": "C<sub>12</sub>H<sub>12</sub>O<sub>12</sub>",
        "Molecular Mass": "348.22",
        "Melting Point": "222-224 °C"
    }
}