{
    "cas_no": "54393-89-4",
    "key_name": "4-Propylthio-2-nitroaniline",
    "cn_name": "4-丙硫基-2-硝基苯胺;",
    "alternate_name": "Benzenamine, 2-nitro-4-(propylthio)-;2-Nitro-4-(propylthio)benzenamine;2-Nitro-4-(propylthio)aniline;[2-Nitro-4-(propylthio)phenyl]amine;4-Propylthio-2-nitroaniline;1-Amino-2-nitro-4-<em>n</em>-propylthiobenzene;2-Nitro-4-propylsulfanylaniline;2-Nitro-4-(propylsulfanyl)aniline;2-Nitro-4-propylsulfanyl-phenylamine",
    "duplicated_cas_no": "",
    "SMILES": "N(=O)(=O)C1=CC(SCCC)=CC=C1N",
    "meta_data": {
        "InChI": "InChI=1S/C9H12N2O2S/c1-2-5-14-7-3-4-8(10)9(6-7)11(12)13/h3-4,6H,2,5,10H2,1H3",
        "InChIKey": null,
        "Canonical SMILES": "O=N(=O)C1=CC(SCCC)=CC=C1N",
        "Molecular Formula": "C<sub>9</sub>H<sub>12</sub>N<sub>2</sub>O<sub>2</sub>S",
        "Molecular Mass": "212.27",
        "Melting Point": "42-43 °C"
    }
}