{
    "cas_no": "616-30-8",
    "key_name": "3-Amino-1,2-propanediol",
    "cn_name": "3-氨基-1,2-丙二醇;1-氨基-2,3-丙二醇;",
    "alternate_name": "1,2-Propanediol, 3-amino-;3-Amino-1,2-propanediol;2,3-Dihydroxypropylamine;1-Amino-2,3-propanediol;1-Aminoglycerol;1-Amino-2,3-dihydroxypropane;3-Amino-2-hydroxy-1-propanol;3-Amino-1,2-dihydroxypropane;Isoserinol;(<em>RS</em>)-3-Amino-1,2-propanediol;(±)-3-Amino-1,2-propanediol;(±)-3-Amino-1,2-dihydroxypropane;2,3-Dihydroxypropanamine;NSC 67381;1,2-Dihydroxy-3-aminopropane;3-Amino-2-hydroxypropanol;2,3-Dihydroxypropan-1-amine",
    "duplicated_cas_no": "98923-21-8;13552-31-3;586415-75-0",
    "SMILES": "C(CN)(CO)O",
    "meta_data": {
        "InChI": "InChI=1S/C3H9NO2/c4-1-3(6)2-5/h3,5-6H,1-2,4H2",
        "InChIKey": null,
        "Canonical SMILES": "OCC(O)CN",
        "Molecular Formula": "C<sub>3</sub>H<sub>9</sub>NO<sub>2</sub>",
        "Molecular Mass": "91.11",
        "Boiling Point": "95-98 °C @ Press: 3 x 10<sup>-3</sup> Torr",
        "Melting Point": "55-57 °C"
    }
}