{
    "cas_no": "288-13-1",
    "key_name": "Pyrazole",
    "cn_name": "吡唑;",
    "alternate_name": "1<em>H</em>-Pyrazole;Pyrazole;1,2-Diazole;NSC 45410;2-Azapyrrole",
    "duplicated_cas_no": "53153-43-8;116421-36-4;1352186-78-7",
    "SMILES": "C=1C=NNC1",
    "meta_data": {
        "InChI": "InChI=1S/C3H4N2/c1-2-4-5-3-1/h1-3H,(H,4,5)",
        "InChIKey": null,
        "Canonical SMILES": "N1=CC=CN1",
        "Molecular Formula": "C<sub>3</sub>H<sub>4</sub>N<sub>2</sub>",
        "Molecular Mass": "68.08",
        "Boiling Point": "187 °C",
        "Melting Point": "68 °C",
        "Density": "0.952 g/cm³ @ Temp: 155.0 °C"
    }
}