{
    "cas_no": "92-53-5",
    "key_name": "4-Phenylmorpholine",
    "cn_name": "N-苯基吗啉;",
    "alternate_name": "Morpholine, 4-phenyl-;4-Phenylmorpholine;<em>N</em>-Phenylmorpholine;Morpholinobenzene;(4-Morpholinyl)benzene;NSC 239125;NSC 2628",
    "duplicated_cas_no": "",
    "SMILES": "C1(=CC=CC=C1)N2CCOCC2",
    "meta_data": {
        "InChI": "InChI=1S/C10H13NO/c1-2-4-10(5-3-1)11-6-8-12-9-7-11/h1-5H,6-9H2",
        "InChIKey": null,
        "Canonical SMILES": "O1CCN(C=2C=CC=CC2)CC1",
        "Molecular Formula": "C<sub>10</sub>H<sub>13</sub>NO",
        "Molecular Mass": "163.22",
        "Boiling Point": "165-170 °C",
        "Melting Point": "52.5 °C"
    }
}