{
    "cas_no": "4635-87-4",
    "key_name": "3-Pentenenitrile",
    "cn_name": "3-戊烯腈;1-氰基-2-丁烯;2-丁烯-1基 氰;",
    "alternate_name": "3-Pentenenitrile;3-Pentenonitrile;Crotyl cyanide;1-Cyano-2-butene",
    "duplicated_cas_no": "",
    "SMILES": "C(CC#N)=CC",
    "meta_data": {
        "InChI": "InChI=1S/C5H7N/c1-2-3-4-5-6/h2-3H,4H2,1H3",
        "InChIKey": null,
        "Canonical SMILES": "N#CCC=CC",
        "Molecular Formula": "C<sub>5</sub>H<sub>7</sub>N",
        "Molecular Mass": "81.12",
        "Boiling Point": "85-87 °C @ Press: 110 Torr",
        "Density": "0.8430 g/cm³ @ Temp: 18.8 °C"
    }
}