{
    "cas_no": "87-67-2",
    "key_name": "Choline bitartrate",
    "cn_name": "酒石酸氢胆碱;重酒石酸胆碱;",
    "alternate_name": "Ethanaminium, 2-hydroxy-<em>N</em>,<em>N</em>,<em>N</em>-trimethyl-, (2<em>R</em>,3<em>R</em>)-2,3-dihydroxybutanedioate (1:1);Choline, tartrate (1:1) (salt);Choline tartrate;Ethanaminium, 2-hydroxy-<em>N</em>,<em>N</em>,<em>N</em>-trimethyl-, salt with [<em>R</em>-(<em>R</em>*,<em>R</em>*)]-2,3-dihydroxybutanedioic acid (1:1);Choline, hydrogen tartrate;Ethanaminium, 2-hydroxy-<em>N</em>,<em>N</em>,<em>N</em>-trimethyl-, salt with (2<em>R</em>,3<em>R</em>)-2,3-dihydroxybutanedioic acid (1:1);Tartaric acid, ion(1-), choline;Butanedioic acid, 2,3-dihydroxy-[<em>R</em>-(<em>R</em>*,<em>R</em>*)]-, ion(1-), 2-hydroxy-<em>N</em>,<em>N</em>,<em>N</em>-trimethylethanaminium;Butanedioic acid, 2,3-dihydroxy- (2<em>R</em>,3<em>R</em>)-, ion(1-), 2-hydroxy-<em>N</em>,<em>N</em>,<em>N</em>-trimethylethanaminium;Choline bitartrate;(2-Hydroxyethyl)trimethylammonium bitartrate",
    "duplicated_cas_no": "36231-32-0;56614-94-9;731004-53-8",
    "SMILES": "[C@@H]([C@H](C(O)=O)O)(C([O-])=O)O.C([N+](C)(C)C)CO",
    "meta_data": {
        "InChI": "InChI=1S/C5H14NO.C4H6O6/c1-6(2,3)4-5-7;5-1(3(7)8)2(6)4(9)10/h7H,4-5H2,1-3H3;1-2,5-6H,(H,7,8)(H,9,10)/q+1;/p-1/t;1-,2-/m.1/s1",
        "InChIKey": null,
        "Canonical SMILES": "O=C([O-])C(O)C(O)C(=O)O.OCC[N+](C)(C)C",
        "Molecular Formula": "C<sub>5</sub>H<sub>14</sub>NO.C<sub>4</sub>H<sub>5</sub>O<sub>6</sub>",
        "Molecular Mass": "",
        "Melting Point": "148.5 °C"
    }
}