{
    "cas_no": "1207-12-1",
    "key_name": "4,6-Dimethyldibenzothiophene",
    "cn_name": "4,6-二甲基二苯并噻吩;",
    "alternate_name": "Dibenzothiophene, 4,6-dimethyl-;4,6-Dimethyldibenzothiophene;4,6-DMDBT",
    "duplicated_cas_no": "",
    "SMILES": "CC1=C2C(C=3C(S2)=C(C)C=CC3)=CC=C1",
    "meta_data": {
        "InChI": "InChI=1S/C14H12S/c1-9-5-3-7-11-12-8-4-6-10(2)14(12)15-13(9)11/h3-8H,1-2H3",
        "InChIKey": null,
        "Canonical SMILES": "S1C2=C(C=CC=C2C)C3=CC=CC(=C13)C",
        "Molecular Formula": "C<sub>14</sub>H<sub>12</sub>S",
        "Molecular Mass": "212.31",
        "Boiling Point": "~340 °C (approx)",
        "Melting Point": "153-157 °C",
        "Density": "1.181 g/cm³"
    }
}