{
    "cas_no": "117572-79-9",
    "key_name": "3-Bromo-4-methoxybenzonitrile",
    "cn_name": "3-溴-4-甲氧基苯甲腈;",
    "alternate_name": "Benzonitrile, 3-bromo-4-methoxy-;3-Bromo-4-methoxybenzonitrile;3-Bromo-4-(methyloxy)benzonitrile",
    "duplicated_cas_no": "",
    "SMILES": "C(#N)C1=CC(Br)=C(OC)C=C1",
    "meta_data": {
        "InChI": "InChI=1S/C8H6BrNO/c1-11-8-3-2-6(5-10)4-7(8)9/h2-4H,1H3",
        "InChIKey": null,
        "Canonical SMILES": "N#CC1=CC=C(OC)C(Br)=C1",
        "Molecular Formula": "C<sub>8</sub>H<sub>6</sub>BrNO",
        "Molecular Mass": "212.04",
        "Melting Point": "122 °C"
    }
}