{
    "cas_no": "12013-82-0",
    "key_name": "Calcium nitride (Ca<sub>3</sub>N<sub>2</sub>)",
    "cn_name": "氮化钙;",
    "alternate_name": "Calcium nitride (Ca<sub>3</sub>N<sub>2</sub>);Tricalcium dinitride;Calcium nitride",
    "duplicated_cas_no": "1202865-29-9;1215380-28-1;2320157-06-8;2929929-16-6",
    "SMILES": "",
    "meta_data": {
        "InChI": "",
        "InChIKey": null,
        "Canonical SMILES": "",
        "Molecular Formula": "Ca<sub>3</sub>N<sub>2</sub>",
        "Molecular Mass": "",
        "Boiling Point": "1195 °C"
    }
}