{
    "uri": "substance/pt/12013820",
    "rn": "12013-82-0",
    "name": "Calcium nitride (Ca<sub>3</sub>N<sub>2</sub>)",
    "images": [],
    "inchi": "",
    "inchiKey": "",
    "smile": "",
    "canonicalSmile": "",
    "molecularFormula": "Ca<sub>3</sub>N<sub>2</sub>",
    "molecularMass": "",
    "experimentalProperties": [
        {
            "name": "Boiling Point",
            "property": "1195 °C",
            "sourceNumber": 1
        }
    ],
    "propertyCitations": [
        {
            "docUri": "document/pt/document/29041639",
            "sourceNumber": 1,
            "source": "Burkes, Douglas E.; Journal of Materials Science, (2006), 41(7), 2009-2017, CAplus"
        }
    ],
    "synonyms": [
        "Calcium nitride (Ca<sub>3</sub>N<sub>2</sub>)",
        "Tricalcium dinitride",
        "Calcium nitride"
    ],
    "replacedRns": [
        "1202865-29-9",
        "1215380-28-1",
        "2320157-06-8",
        "2929929-16-6"
    ],
    "hasMolfile": false,
    "source": "https://commonchemistry.cas.org/detail?cas_rn=12013-82-0"
}