{
    "cas_no": "5471-82-9",
    "key_name": "Benzoic acid, 3-methyl-2-nitro-, methyl ester",
    "cn_name": "3-甲基-2-硝基苯甲酸甲酯;",
    "alternate_name": "Benzoic acid, 3-methyl-2-nitro-, methyl ester;<em>m</em>-Toluic acid, 2-nitro-, methyl ester;Methyl 3-methyl-2-nitrobenzoate;NSC 28461;2-Nitro-3-methylbenzoic acid methyl ester;3-Methyl-2-nitrobenzoic acid methyl ester",
    "duplicated_cas_no": "",
    "SMILES": "C(OC)(=O)C1=C(N(=O)=O)C(C)=CC=C1",
    "meta_data": {
        "InChI": "InChI=1S/C9H9NO4/c1-6-4-3-5-7(9(11)14-2)8(6)10(12)13/h3-5H,1-2H3",
        "InChIKey": null,
        "Canonical SMILES": "O=C(OC)C1=CC=CC(=C1N(=O)=O)C",
        "Molecular Formula": "C<sub>9</sub>H<sub>9</sub>NO<sub>4</sub>",
        "Molecular Mass": "195.17",
        "Melting Point": "74 °C"
    }
}