{
    "cas_no": "1123-63-3",
    "key_name": "4-Chloro-2,6-dimethylphenol",
    "cn_name": "4-氯-2,6-二甲基苯酚;",
    "alternate_name": "Phenol, 4-chloro-2,6-dimethyl-;2,6-Xylenol, 4-chloro-;4-Chloro-2,6-dimethylphenol;4-Chloro-2,6-xylenol;2,6-Dimethyl-4-chlorophenol;NSC 5785",
    "duplicated_cas_no": "",
    "SMILES": "OC1=C(C)C=C(Cl)C=C1C",
    "meta_data": {
        "InChI": "InChI=1S/C8H9ClO/c1-5-3-7(9)4-6(2)8(5)10/h3-4,10H,1-2H3",
        "InChIKey": null,
        "Canonical SMILES": "ClC=1C=C(C(O)=C(C1)C)C",
        "Molecular Formula": "C<sub>8</sub>H<sub>9</sub>ClO",
        "Molecular Mass": "156.61",
        "Boiling Point": "100-103 °C @ Press: 3 Torr",
        "Melting Point": "83 °C"
    }
}