{
    "cas_no": "580-15-4",
    "key_name": "6-Aminoquinoline",
    "cn_name": "6-氨基喹啉;",
    "alternate_name": "6-Quinolinamine;Quinoline, 6-amino-;6-Aminoquinoline;(Quinolin-6-yl)amine;NSC 58388;6-Quinolylamine;Quinolin-6-amine",
    "duplicated_cas_no": "",
    "SMILES": "NC1=CC2=C(C=C1)N=CC=C2",
    "meta_data": {
        "InChI": "InChI=1S/C9H8N2/c10-8-3-4-9-7(6-8)2-1-5-11-9/h1-6H,10H2",
        "InChIKey": null,
        "Canonical SMILES": "N=1C=CC=C2C=C(N)C=CC12",
        "Molecular Formula": "C<sub>9</sub>H<sub>8</sub>N<sub>2</sub>",
        "Molecular Mass": "144.17",
        "Boiling Point": "187 °C",
        "Melting Point": "114 °C"
    }
}