{
    "cas_no": "486-62-4",
    "key_name": "Ononin",
    "cn_name": "芒柄花苷;刺芒柄花素-7-葡萄糖甙;",
    "alternate_name": "4<em>H</em>-1-Benzopyran-4-one, 7-(β-<span class=\"text-smallcaps\">D</span>-glucopyranosyloxy)-3-(4-methoxyphenyl)-;Ononin;7-(β-<span class=\"text-smallcaps\">D</span>-Glucopyranosyloxy)-3-(4-methoxyphenyl)-4<em>H</em>-1-benzopyran-4-one;Formononetin 7-<em>O</em>-glucoside;Formononetin 7-<em>O</em>-β-<span class=\"text-smallcaps\">D</span>-glucopyranoside;7-(β-Glucosyloxy)-3-(4-methoxyphenyl)isoflavone;Formononetin 7-<em>O</em>-β-<span class=\"text-smallcaps\">D</span>-glucoside;Ononoside;Formononetin glucoside;Formononetin 7-glucoside;7-Hydroxy-4′-methoxyisoflavone-7-<em>O</em>-β-<span class=\"text-smallcaps\">D</span>-glucoside;Formononetin 7β-<span class=\"text-smallcaps\">D</span>-glucopyranoside;Formononetin-7-<em>O</em>-β-<span class=\"text-smallcaps\">D</span>-glycoside",
    "duplicated_cas_no": "11019-68-4;31016-70-3",
    "SMILES": "O=C1C=2C(=CC(O[C@@H]3O[C@H](CO)[C@@H](O)[C@H](O)[C@H]3O)=CC2)OC=C1C4=CC=C(OC)C=C4",
    "meta_data": {
        "InChI": "InChI=1S/C22H22O9/c1-28-12-4-2-11(3-5-12)15-10-29-16-8-13(6-7-14(16)18(15)24)30-22-21(27)20(26)19(25)17(9-23)31-22/h2-8,10,17,19-23,25-27H,9H2,1H3/t17-,19-,20+,21-,22-/m1/s1",
        "InChIKey": null,
        "Canonical SMILES": "O=C1C(=COC2=CC(OC3OC(CO)C(O)C(O)C3O)=CC=C12)C=4C=CC(OC)=CC4",
        "Molecular Formula": "C<sub>22</sub>H<sub>22</sub>O<sub>9</sub>",
        "Molecular Mass": "430.40",
        "Melting Point": "245 °C"
    }
}