{
    "cas_no": "99009-85-5",
    "key_name": "<em>N</em>-(2-Methylpropyl)-3-nitro-4-quinolinamine",
    "cn_name": "4-异丁胺基-3-硝基喹啉;",
    "alternate_name": "4-Quinolinamine, <em>N</em>-(2-methylpropyl)-3-nitro-;<em>N</em>-(2-Methylpropyl)-3-nitro-4-quinolinamine;3-Nitro-4-(2-methylpropylamino)quinoline;4-Isobutylamino-3-nitroquinoline",
    "duplicated_cas_no": "",
    "SMILES": "N(CC(C)C)C=1C2=C(N=CC1N(=O)=O)C=CC=C2",
    "meta_data": {
        "InChI": "InChI=1S/C13H15N3O2/c1-9(2)7-15-13-10-5-3-4-6-11(10)14-8-12(13)16(17)18/h3-6,8-9H,7H2,1-2H3,(H,14,15)",
        "InChIKey": null,
        "Canonical SMILES": "O=N(=O)C1=CN=C2C=CC=CC2=C1NCC(C)C",
        "Molecular Formula": "C<sub>13</sub>H<sub>15</sub>N<sub>3</sub>O<sub>2</sub>",
        "Molecular Mass": "245.28",
        "Melting Point": "119-121 °C"
    }
}