{
    "cas_no": "1196-57-2",
    "key_name": "2(1<em>H</em>)-Quinoxalinone",
    "cn_name": "2-羟基喹喔啉;喹唑酮;",
    "alternate_name": "2(1<em>H</em>)-Quinoxalinone;2-Quinoxalinol;2-Hydroxyquinoxaline;3-Quinoxalinone;2-Quinoxalinone;2-Quinoxalone;1,2-Dihydroquinoxalin-2-one;NSC 13154;Quinoxaline-2-ol",
    "duplicated_cas_no": "15167-45-0",
    "SMILES": "O=C1NC=2C(N=C1)=CC=CC2",
    "meta_data": {
        "InChI": "InChI=1S/C8H6N2O/c11-8-5-9-6-3-1-2-4-7(6)10-8/h1-5H,(H,10,11)",
        "InChIKey": null,
        "Canonical SMILES": "O=C1C=NC=2C=CC=CC2N1",
        "Molecular Formula": "C<sub>8</sub>H<sub>6</sub>N<sub>2</sub>O",
        "Molecular Mass": "146.15",
        "Melting Point": "265 °C"
    }
}