{
    "cas_no": "13055-06-6",
    "key_name": "<em>N</em>-(Carboxymethyl)-<em>N</em>-(hexahydro-2,4,6-trioxo-5-pyrimidinyl)glycine",
    "cn_name": "N,N-二乙酸乌拉米尔;(六氢-2,4,6-三氧-5-嘧啶基)亚氨基二乙酸;",
    "alternate_name": "Glycine, <em>N</em>-(carboxymethyl)-<em>N</em>-(hexahydro-2,4,6-trioxo-5-pyrimidinyl)-;Acetic acid, [(hexahydro-2,4,6-trioxo-5-pyrimidinyl)imino]di-;Barbituric acid, 5-[bis(carboxymethyl)amino]-;<em>N</em>-(Carboxymethyl)-<em>N</em>-(hexahydro-2,4,6-trioxo-5-pyrimidinyl)glycine;Uramil-<em>N</em>,<em>N</em>-diacetic acid;Uramildiacetic acid;NSC 28807;2,2′-[(2,4,6-Trioxohexahydro-5-pyrimidinyl)imino]diacetic acid;2-[(Carboxymethyl)(2,4,6-trioxo-1,3-diazinan-5-yl)amino]acetic acid",
    "duplicated_cas_no": "6243-00-1;57603-24-4;90792-48-6",
    "SMILES": "N(CC(O)=O)(CC(O)=O)C1C(=O)NC(=O)NC1=O",
    "meta_data": {
        "InChI": "InChI=1S/C8H9N3O7/c12-3(13)1-11(2-4(14)15)5-6(16)9-8(18)10-7(5)17/h5H,1-2H2,(H,12,13)(H,14,15)(H2,9,10,16,17,18)",
        "InChIKey": null,
        "Canonical SMILES": "O=C1NC(=O)C(C(=O)N1)N(CC(=O)O)CC(=O)O",
        "Molecular Formula": "C<sub>8</sub>H<sub>9</sub>N<sub>3</sub>O<sub>7</sub>",
        "Molecular Mass": "259.17",
        "Melting Point": "240 °C (decomp)"
    }
}