{
    "cas_no": "144-39-8",
    "key_name": "Linalyl propionate",
    "cn_name": "3,7-二甲基-1,6-辛二烯-3-醇丙酸酯;",
    "alternate_name": "1,6-Octadien-3-ol, 3,7-dimethyl-, 3-propanoate;1,6-Octadien-3-ol, 3,7-dimethyl-, propionate;1,6-Octadien-3-ol, 3,7-dimethyl-, propanoate;Propionic acid, linalyl ester;Linalyl propionate;Linalool propionate;Linalyl propanoate;NSC 46139;(±)-Linalyl propionate;3,7-Dimethylocta-1,6-dien-3-yl propanoate",
    "duplicated_cas_no": "94346-06-2",
    "SMILES": "C(OC(CC)=O)(CCC=C(C)C)(C=C)C",
    "meta_data": {
        "InChI": "InChI=1S/C13H22O2/c1-6-12(14)15-13(5,7-2)10-8-9-11(3)4/h7,9H,2,6,8,10H2,1,3-5H3",
        "InChIKey": null,
        "Canonical SMILES": "O=C(OC(C=C)(C)CCC=C(C)C)CC",
        "Molecular Formula": "C<sub>13</sub>H<sub>22</sub>O<sub>2</sub>",
        "Molecular Mass": "210.31",
        "Boiling Point": "52-54 °C @ Press: 0.1 Torr"
    }
}