{
    "cas_no": "115-86-6",
    "key_name": "Triphenyl phosphate",
    "cn_name": "磷酸三苯酯;",
    "alternate_name": "Phosphoric acid, triphenyl ester;Celluflex TPP;Triphenyl phosphate;Phenyl phosphate ((PhO)<sub>3</sub>PO);Triphenoxyphosphine oxide;Disflamoll TP;TP;Phosflex TPP;TPP;TPPA;Reofos TPP;S 4;S 4 (phosphate);TTP;Sumilizer TPP;Wako TPP;NSC 57868;Phoscon FR 903N;TFF;WSFR-TPP;Triphenol phosphate;TTP (triphenyl phosphate);DHPF 005;Antioxidant TTP;UN 3077;Disflamoll TPP;FR 3031;DTZR-TPP;Phireguard TPP",
    "duplicated_cas_no": "402955-02-6",
    "SMILES": "P(OC1=CC=CC=C1)(OC2=CC=CC=C2)(OC3=CC=CC=C3)=O",
    "meta_data": {
        "InChI": "InChI=1S/C18H15O4P/c19-23(20-16-10-4-1-5-11-16,21-17-12-6-2-7-13-17)22-18-14-8-3-9-15-18/h1-15H",
        "InChIKey": null,
        "Canonical SMILES": "O=P(OC=1C=CC=CC1)(OC=2C=CC=CC2)OC=3C=CC=CC3",
        "Molecular Formula": "C<sub>18</sub>H<sub>15</sub>O<sub>4</sub>P",
        "Molecular Mass": "326.28",
        "Boiling Point": "370 °C",
        "Melting Point": "49-50 °C",
        "Density": "1.2055 g/cm³ @ Temp: 50 °C"
    }
}