{
    "cas_no": "501-97-3",
    "key_name": "3-(4-Hydroxyphenyl)propionic acid",
    "cn_name": "对羟基苯丙酸;",
    "alternate_name": "Benzenepropanoic acid, 4-hydroxy-;Hydrocinnamic acid, <em>p</em>-hydroxy-;4-Hydroxybenzenepropanoic acid;β-(<em>p</em>-Hydroxyphenyl)propionic acid;Phloretic acid;3-(<em>p</em>-Hydroxyphenyl)propionic acid;Hydro-<em>p</em>-coumaric acid;<em>p</em>-Hydroxyphenylpropionic acid;<em>p</em>-Hydroxyhydrocinnamic acid;3-(4-Hydroxyphenyl)propanoic acid;3-(4-Hydroxyphenyl)propionic acid;3-(4′-Hydroxyphenyl)propionic acid;Dihydro-<em>p</em>-coumaric acid;β-(4-Hydroxyphenyl)propionic acid;4-(2-Carboxyethyl)phenol;2,3-Dihydro-<em>p</em>-coumaric acid;4-Hydroxydihydrocinnamic acid;NSC 40949;NSC 65596;QuantaBlu;Desaminotyrosine;3-(<em>p</em>-Hydroxyphenyl)propanoic acid;Dihydrocoumaric acid;4-(2-Carboxylethyl)phenol;Phloretinic acid;4-Hydroxybenzenepropionic acid;<em>p</em>-Hydroxybenzene propanoic acid",
    "duplicated_cas_no": "329310-97-6",
    "SMILES": "C(CC(O)=O)C1=CC=C(O)C=C1",
    "meta_data": {
        "InChI": "InChI=1S/C9H10O3/c10-8-4-1-7(2-5-8)3-6-9(11)12/h1-2,4-5,10H,3,6H2,(H,11,12)",
        "InChIKey": null,
        "Canonical SMILES": "O=C(O)CCC1=CC=C(O)C=C1",
        "Molecular Formula": "C<sub>9</sub>H<sub>10</sub>O<sub>3</sub>",
        "Molecular Mass": "166.17",
        "Boiling Point": "208-210 °C",
        "Melting Point": "130.8 °C"
    }
}