{
    "cas_no": "18069-14-2",
    "key_name": "Polypodine B",
    "cn_name": null,
    "alternate_name": "Cholest-7-en-6-one, 2,3,5,14,20,22,25-heptahydroxy-, (2β,3β,5β,22<em>R</em>)-;5β-Cholest-7-en-6-one, 2β,3β,5,14,20,22,25-heptahydroxy-, (22<em>R</em>)-;(2β,3β,5β,22<em>R</em>)-2,3,5,14,20,22,25-Heptahydroxycholest-7-en-6-one;Polypodin B;5β-Hydroxyecdysterone;Hydroxyecdysterone;Ajugasterone A;5-Hydroxyecdysterone;5,20-Dihydroxyecdysone;Polypodine B;Polypodyne B",
    "duplicated_cas_no": "22877-75-4;25318-50-7;73416-57-6",
    "SMILES": "O[C@]12C=3[C@@]([C@]4(C)[C@](O)(C(=O)C3)C[C@@H](O)[C@@H](O)C4)(CC[C@]1(C)[C@@]([C@@]([C@@H](CCC(C)(C)O)O)(C)O)(CC2)[H])[H]",
    "meta_data": {
        "InChI": "InChI=1S/C27H44O8/c1-22(2,32)9-8-20(30)25(5,33)19-7-11-26(34)16-12-21(31)27(35)14-18(29)17(28)13-24(27,4)15(16)6-10-23(19,26)3/h12,15,17-20,28-30,32-35H,6-11,13-14H2,1-5H3/t15-,17-,18+,19-,20+,23+,24+,25+,26+,27+/m0/s1",
        "InChIKey": null,
        "Canonical SMILES": "O=C1C=C2C(CCC3(C)C(CCC23O)C(O)(C)C(O)CCC(O)(C)C)C4(C)CC(O)C(O)CC14O",
        "Molecular Formula": "C<sub>27</sub>H<sub>44</sub>O<sub>8</sub>",
        "Molecular Mass": "496.63",
        "Melting Point": "241-242 °C"
    }
}