{
    "cas_no": "540-42-1",
    "key_name": "Isobutyl propionate",
    "cn_name": "丙酸异丁酯;2-甲基-1-丙醇丙酸酯;",
    "alternate_name": "Propanoic acid, 2-methylpropyl ester;Propionic acid, isobutyl ester;Isobutyl propionate;2-Methylpropyl propionate;Isobutyl propanoate;2-Methylpropyl propanoate;NSC 8450",
    "duplicated_cas_no": "",
    "SMILES": "C(OCC(C)C)(CC)=O",
    "meta_data": {
        "InChI": "InChI=1S/C7H14O2/c1-4-7(8)9-5-6(2)3/h6H,4-5H2,1-3H3",
        "InChIKey": null,
        "Canonical SMILES": "O=C(OCC(C)C)CC",
        "Molecular Formula": "C<sub>7</sub>H<sub>14</sub>O<sub>2</sub>",
        "Molecular Mass": "130.18",
        "Boiling Point": "137 °C",
        "Melting Point": "-71.4 °C"
    }
}