{
    "cas_no": "7471-63-8",
    "key_name": "7-Methyl-8-nitroquinoline",
    "cn_name": "7-甲基-8-硝基喹啉;",
    "alternate_name": "Quinoline, 7-methyl-8-nitro-;7-Methyl-8-nitroquinoline;8-Nitro-7-methylquinoline;NSC 401260",
    "duplicated_cas_no": "",
    "SMILES": "N(=O)(=O)C=1C2=C(C=CC1C)C=CC=N2",
    "meta_data": {
        "InChI": "InChI=1S/C10H8N2O2/c1-7-4-5-8-3-2-6-11-9(8)10(7)12(13)14/h2-6H,1H3",
        "InChIKey": null,
        "Canonical SMILES": "O=N(=O)C=1C2=NC=CC=C2C=CC1C",
        "Molecular Formula": "C<sub>10</sub>H<sub>8</sub>N<sub>2</sub>O<sub>2</sub>",
        "Molecular Mass": "188.18",
        "Melting Point": "183 °C"
    }
}