{
    "cas_no": "100-02-7",
    "key_name": "4-Nitrophenol",
    "cn_name": "4-硝基苯酚;对硝基苯酚;",
    "alternate_name": "Phenol, 4-nitro-;Phenol, <em>p</em>-nitro-;4-Nitrophenol;<em>p</em>-Nitrophenol;<em>p</em>-Hydroxynitrobenzene;4-Hydroxynitrobenzene;Niphen;1-Hydroxy-4-nitrobenzene;4-Hydroxy-1-nitrobenzene;NSC 1317",
    "duplicated_cas_no": "856824-71-0;856824-67-4",
    "SMILES": "N(=O)(=O)C1=CC=C(O)C=C1",
    "meta_data": {
        "InChI": "InChI=1S/C6H5NO3/c8-6-3-1-5(2-4-6)7(9)10/h1-4,8H",
        "InChIKey": null,
        "Canonical SMILES": "O=N(=O)C1=CC=C(O)C=C1",
        "Molecular Formula": "C<sub>6</sub>H<sub>5</sub>NO<sub>3</sub>",
        "Molecular Mass": "139.11",
        "Boiling Point": "279 °C",
        "Melting Point": "113-114 °C",
        "Density": "1.5 g/cm³"
    }
}