{
    "cas_no": "579-93-1",
    "key_name": "Benzoylanthranilic acid",
    "cn_name": null,
    "alternate_name": "Benzoic acid, 2-(benzoylamino)-;Anthranilic acid, <em>N</em>-benzoyl-;2-(Benzoylamino)benzoic acid;<em>N</em>-Benzoylanthranilic acid;Benzoylanthranilic acid;2′-Carboxybenzanilide;<em>N</em>-(2-Carboxyphenyl)benzamide;NSC 3866;2-(Benzamido)benzoic acid;Dianthramide B",
    "duplicated_cas_no": "",
    "SMILES": "N(C(=O)C1=CC=CC=C1)C2=C(C(O)=O)C=CC=C2",
    "meta_data": {
        "InChI": "InChI=1S/C14H11NO3/c16-13(10-6-2-1-3-7-10)15-12-9-5-4-8-11(12)14(17)18/h1-9H,(H,15,16)(H,17,18)",
        "InChIKey": null,
        "Canonical SMILES": "O=C(O)C=1C=CC=CC1NC(=O)C=2C=CC=CC2",
        "Molecular Formula": "C<sub>14</sub>H<sub>11</sub>NO<sub>3</sub>",
        "Molecular Mass": "241.24",
        "Melting Point": "178 °C"
    }
}