{
    "cas_no": "619-86-3",
    "key_name": "4-Ethoxybenzoic acid",
    "cn_name": "对乙氧基苯甲酸;4-乙氧基苯甲酸;",
    "alternate_name": "Benzoic acid, 4-ethoxy-;Benzoic acid, <em>p</em>-ethoxy-;4-Ethoxybenzoic acid;<em>p</em>-Ethoxybenzoic acid;ACS 0393;NSC 8705;4-Ethyloxybenzoic acid",
    "duplicated_cas_no": "",
    "SMILES": "C(O)(=O)C1=CC=C(OCC)C=C1",
    "meta_data": {
        "InChI": "InChI=1S/C9H10O3/c1-2-12-8-5-3-7(4-6-8)9(10)11/h3-6H,2H2,1H3,(H,10,11)",
        "InChIKey": null,
        "Canonical SMILES": "O=C(O)C1=CC=C(OCC)C=C1",
        "Molecular Formula": "C<sub>9</sub>H<sub>10</sub>O<sub>3</sub>",
        "Molecular Mass": "166.17",
        "Melting Point": "197-199 °C",
        "Density": "1.20 g/cm³ (crystalline)"
    }
}