{
    "cas_no": "51325-91-8",
    "key_name": "4-(Dicyanomethylene)-2-methyl-6-(<em>p</em>-dimethylaminostyryl)-4<em>H</em>-pyran",
    "cn_name": "4-(二氰基亚甲基)-2-甲基-6-(4-二甲基氨基苯乙烯基)-4H-吡喃;",
    "alternate_name": "Propanedinitrile, 2-[2-[2-[4-(dimethylamino)phenyl]ethenyl]-6-methyl-4<em>H</em>-pyran-4-ylidene]-;Propanedinitrile, [2-[2-[4-(dimethylamino)phenyl]ethenyl]-6-methyl-4<em>H</em>-pyran-4-ylidene]-;4<em>H</em>-Pyran-Δ<sup>4,α</sup>-malononitrile, 2-(<em>p</em>-dimethylaminostyryl)-6-methyl-;2-[2-[2-[4-(Dimethylamino)phenyl]ethenyl]-6-methyl-4<em>H</em>-pyran-4-ylidene]propanedinitrile;DCM (dye);4-Dicyanomethylene-6-(<em>p</em>-dimethylaminostyryl)-2-methyl-4<em>H</em>-pyran;DCM 1;4-(Dicyanomethylene)-2-methyl-6-(<em>p</em>-dimethylaminostyryl)-4<em>H</em>-pyran;4-(Dicyanomethylene)-2-methyl-6-(4-dimethylaminostyryl)-4<em>H</em>-pyran;NK 3502;DCM-LC 6500;DCM 650;(4-(Dicyanomethylene)-2-methyl-6-(4-dimethylaminostyryl)-4H-pyran)",
    "duplicated_cas_no": "142347-86-2;80892-60-0;83404-52-8",
    "SMILES": "C(C#N)(C#N)=C1C=C(C=CC2=CC=C(N(C)C)C=C2)OC(C)=C1",
    "meta_data": {
        "InChI": "InChI=1S/C19H17N3O/c1-14-10-16(17(12-20)13-21)11-19(23-14)9-6-15-4-7-18(8-5-15)22(2)3/h4-11H,1-3H3",
        "InChIKey": null,
        "Canonical SMILES": "N#CC(C#N)=C1C=C(OC(=C1)C)C=CC2=CC=C(C=C2)N(C)C",
        "Molecular Formula": "C<sub>19</sub>H<sub>17</sub>N<sub>3</sub>O",
        "Molecular Mass": "303.36",
        "Melting Point": "227 °C"
    }
}