{
    "cas_no": "993-22-6",
    "key_name": "1-Butanaminium, <em>N</em>,<em>N</em>,<em>N</em>-tributyl-, azide (1:1)",
    "cn_name": "叠氮化四丁基铵;",
    "alternate_name": "1-Butanaminium, <em>N</em>,<em>N</em>,<em>N</em>-tributyl-, azide (1:1);Ammonium, tetrabutyl-, azide;Tetrabutylammonium azide;1-Butanaminium, <em>N</em>,<em>N</em>,<em>N</em>-tributyl-, azide;Tetra-<em>n</em>-butylammonium azide;Tetrabutylammonium nitride",
    "duplicated_cas_no": "",
    "SMILES": "[N+](=[N-])=[N-].[N+](CCCC)(CCCC)(CCCC)CCCC",
    "meta_data": {
        "InChI": "InChI=1S/C16H36N.N3/c1-5-9-13-17(14-10-6-2,15-11-7-3)16-12-8-4;1-3-2/h5-16H2,1-4H3;/q+1;-1",
        "InChIKey": null,
        "Canonical SMILES": "[N-]=[N+]=[N-].CCCC[N+](CCCC)(CCCC)CCCC",
        "Molecular Formula": "C<sub>16</sub>H<sub>36</sub>N.N<sub>3</sub>",
        "Molecular Mass": "",
        "Melting Point": "80 °C (decomp)"
    }
}