{
    "cas_no": "2621-80-9",
    "key_name": "Carbamic acid, <em>N</em>-(4-chlorophenyl)-, ethyl ester",
    "cn_name": null,
    "alternate_name": "Carbamic acid, <em>N</em>-(4-chlorophenyl)-, ethyl ester;Carbanilic acid, <em>p</em>-chloro-, ethyl ester;Carbamic acid, (4-chlorophenyl)-, ethyl ester;Ethyl <em>N</em>-(<em>p</em>-chlorophenyl)carbamate;<em>p</em>-Chlorophenylurethane;<em>N</em>-(4-Chlorophenyl)ethylurethane;Ethyl <em>p</em>-chlorocarbanilate;Ethyl <em>N</em>-(4-chlorophenyl)carbamate;Ethyl 4-chlorocarbanilate;Ethyl (<em>p</em>-chlorophenyl)carbamate;Ethyl 4-chlorophenylcarbamate;NSC 26960",
    "duplicated_cas_no": "",
    "SMILES": "N(C(OCC)=O)C1=CC=C(Cl)C=C1",
    "meta_data": {
        "InChI": "InChI=1S/C9H10ClNO2/c1-2-13-9(12)11-8-5-3-7(10)4-6-8/h3-6H,2H2,1H3,(H,11,12)",
        "InChIKey": null,
        "Canonical SMILES": "O=C(OCC)NC1=CC=C(Cl)C=C1",
        "Molecular Formula": "C<sub>9</sub>H<sub>10</sub>ClNO<sub>2</sub>",
        "Molecular Mass": "199.63",
        "Boiling Point": "66-68 °C",
        "Melting Point": "69 °C"
    }
}