{
    "cas_no": "100-45-8",
    "key_name": "3-Cyclohexene-1-carbonitrile",
    "cn_name": "3-环己烯-1-腈;",
    "alternate_name": "3-Cyclohexene-1-carbonitrile;3-Cyclohexenyl cyanide;4-Cyanocyclohexene;3-Cyclohexenecarbonitrile;1-Cyano-3-cyclohexene;4-Cyano-1-cyclohexene;Cyclohex-3-enenitrile;(±)-3-Cyclohexene-1-carbonitrile;NSC 7407",
    "duplicated_cas_no": "79091-85-3",
    "SMILES": "C(#N)C1CCC=CC1",
    "meta_data": {
        "InChI": "InChI=1S/C7H9N/c8-6-7-4-2-1-3-5-7/h1-2,7H,3-5H2",
        "InChIKey": null,
        "Canonical SMILES": "N#CC1CC=CCC1",
        "Molecular Formula": "C<sub>7</sub>H<sub>9</sub>N",
        "Molecular Mass": "107.15",
        "Boiling Point": "83 °C @ Press: 20 Torr",
        "Density": "0.9555 g/cm³ @ Temp: 20 °C"
    }
}