{
    "cas_no": "303-33-3",
    "key_name": "(+)-Heliotrine",
    "cn_name": null,
    "alternate_name": "Butanoic acid, 2-hydroxy-2-[(1<em>R</em>)-1-methoxyethyl]-3-methyl-, [(1<em>S</em>,7a<em>R</em>)-2,3,5,7a-tetrahydro-1-hydroxy-1<em>H</em>-pyrrolizin-7-yl]methyl ester, (2<em>S</em>)-;Heliotrine;Butanoic acid, 2-hydroxy-2-(1-methoxyethyl)-3-methyl-, (2,3,5,7a-tetrahydro-1-hydroxy-1<em>H</em>-pyrrolizin-7-yl)methyl ester, [1<em>S</em>-[1α,7[<em>R</em>*(<em>S</em>*)],7aα]]-;(+)-Heliotrine;7<em>S</em>-Heliotrine",
    "duplicated_cas_no": "",
    "SMILES": "C(OC([C@@]([C@H](OC)C)([C@@H](C)C)O)=O)C=1[C@]2(N(CC1)CC[C@@H]2O)[H]",
    "meta_data": {
        "InChI": "InChI=1S/C16H27NO5/c1-10(2)16(20,11(3)21-4)15(19)22-9-12-5-7-17-8-6-13(18)14(12)17/h5,10-11,13-14,18,20H,6-9H2,1-4H3/t11-,13+,14-,16+/m1/s1",
        "InChIKey": null,
        "Canonical SMILES": "O=C(OCC1=CCN2CCC(O)C12)C(O)(C(OC)C)C(C)C",
        "Molecular Formula": "C<sub>16</sub>H<sub>27</sub>NO<sub>5</sub>",
        "Molecular Mass": "313.39",
        "Melting Point": "125-126 °C"
    }
}