{
    "cas_no": "705-76-0",
    "key_name": "3,5-Dimethoxybenzenemethanol",
    "cn_name": "3,5-二甲氧基苄醇;3,5-二甲氧基苯甲醇;",
    "alternate_name": "Benzenemethanol, 3,5-dimethoxy-;Benzyl alcohol, 3,5-dimethoxy-;3,5-Dimethoxybenzenemethanol;3,5-Dimethoxybenzyl alcohol;(3,5-Dimethoxyphenyl)methanol",
    "duplicated_cas_no": "",
    "SMILES": "C(O)C1=CC(OC)=CC(OC)=C1",
    "meta_data": {
        "InChI": "InChI=1S/C9H12O3/c1-11-8-3-7(6-10)4-9(5-8)12-2/h3-5,10H,6H2,1-2H3",
        "InChIKey": null,
        "Canonical SMILES": "OCC=1C=C(OC)C=C(OC)C1",
        "Molecular Formula": "C<sub>9</sub>H<sub>12</sub>O<sub>3</sub>",
        "Molecular Mass": "168.19",
        "Boiling Point": "132 °C @ Press: 18 Torr",
        "Melting Point": "47-48 °C"
    }
}