{
    "cas_no": "1701-69-5",
    "key_name": "4-Propionylpyridine",
    "cn_name": "4-丙酰吡啶;4-丙酰基吡啶;",
    "alternate_name": "1-Propanone, 1-(4-pyridinyl)-;1-Propanone, 1-(4-pyridyl)-;1-(4-Pyridinyl)-1-propanone;4-Propionylpyridine;4-Pyridyl ethyl ketone;Ethyl 4-pyridyl ketone;1-(4-Pyridyl)-1-propanone;NSC 31619;1-(Pyridin-4-yl)propan-1-one",
    "duplicated_cas_no": "",
    "SMILES": "C(CC)(=O)C=1C=CN=CC1",
    "meta_data": {
        "InChI": "InChI=1S/C8H9NO/c1-2-8(10)7-3-5-9-6-4-7/h3-6H,2H2,1H3",
        "InChIKey": null,
        "Canonical SMILES": "O=C(C=1C=CN=CC1)CC",
        "Molecular Formula": "C<sub>8</sub>H<sub>9</sub>NO",
        "Molecular Mass": "135.16",
        "Boiling Point": "104-106 °C @ Press: 10 Torr"
    }
}