{
    "cas_no": "5638-78-8",
    "key_name": "4-Morpholinecarboximidamide, hydrochloride (1:1)",
    "cn_name": null,
    "alternate_name": "4-Morpholinecarboximidamide, hydrochloride (1:1);4-Morpholinecarboxamidine, monohydrochloride;4-Morpholinecarboximidamide, monohydrochloride;Morpholinoformamidine hydrochloride;Morpholine-4-carboxamidine hydrochloride",
    "duplicated_cas_no": "",
    "SMILES": "C(=N)(N)N1CCOCC1.Cl",
    "meta_data": {
        "InChI": "InChI=1S/C5H11N3O.ClH/c6-5(7)8-1-3-9-4-2-8;/h1-4H2,(H3,6,7);1H",
        "InChIKey": null,
        "Canonical SMILES": "Cl.N=C(N)N1CCOCC1",
        "Molecular Formula": "C<sub>5</sub>H<sub>11</sub>N<sub>3</sub>O.ClH",
        "Molecular Mass": "",
        "Melting Point": "130-160 °C"
    }
}