{
    "cas_no": "364-62-5",
    "key_name": "Metoclopramide",
    "cn_name": "甲氧氯普胺;N-[(2-二乙氨基)乙基]-4-氨基-2-甲氧基-5-氯-苯甲酰胺;",
    "alternate_name": "Benzamide, 4-amino-5-chloro-<em>N</em>-[2-(diethylamino)ethyl]-2-methoxy-;<em>o</em>-Anisamide, 4-amino-5-chloro-<em>N</em>-[2-(diethylamino)ethyl]-;4-Amino-5-chloro-<em>N</em>-[2-(diethylamino)ethyl]-2-methoxybenzamide;5-Chloro-2-methoxyprocainamide;<em>N</em>-(Diethylaminoethyl)-2-methoxy-4-amino-5-chlorbenzamide;<em>N</em>-(Diethylaminoethyl)-2-methoxy-4-amino-5-chlorobenzamide;Methochlopramide;2-Methoxy-5-chloroprocainamide;Metoclopramide;Plasil;Metochlopramide;<em>N</em>-(2-Diethylaminoethyl)-2-methoxy-4-amino-5-chlorobenzamide;<em>N</em>-[2-(Diethylamino)ethyl]-4-amino-5-chloro-2-methoxybenzamide;2-Methoxy-4-amino-5-chloro-<em>N</em>,<em>N</em>-dimethylaminoethylbenzamide;4-Amino-5-chloro-<em>N</em>-[2-(diethylamino)ethyl]-<em>o</em>-anisamide;4-Amino-5-chloro-<em>N</em>-[2-(diethylamino)ethyl]-o-anisamide;4-Amino-5-chloro-2-methoxy-<em>N</em>-(β-diethylaminoethyl)benzamide;DEL 1267;Reliveran;Moriperan;Metoclol;Primperan;Plasil (pharmaceutical);Parmid;Eucil;MCP-ratiopharm;Clopromate;Gastrosil;Meclopran;Gastro-tablinen;Maxeran;Draclamid;Metramid;Metamide;Gastrobid;Gastrese;Emperal;Gastromax;Regla;Gastro-Timelets;Gastrotem;Metocobil;Macperan;Orpamid;Afipran;MeSH ID: D008787",
    "duplicated_cas_no": "",
    "SMILES": "C(NCCN(CC)CC)(=O)C1=C(OC)C=C(N)C(Cl)=C1",
    "meta_data": {
        "InChI": "InChI=1S/C14H22ClN3O2/c1-4-18(5-2)7-6-17-14(19)10-8-11(15)12(16)9-13(10)20-3/h8-9H,4-7,16H2,1-3H3,(H,17,19)",
        "InChIKey": null,
        "Canonical SMILES": "O=C(NCCN(CC)CC)C=1C=C(Cl)C(N)=CC1OC",
        "Molecular Formula": "C<sub>14</sub>H<sub>22</sub>ClN<sub>3</sub>O<sub>2</sub>",
        "Molecular Mass": "299.80",
        "Melting Point": "147.25 °C"
    }
}