{
    "cas_no": "1308-96-9",
    "key_name": "Europium oxide",
    "cn_name": null,
    "alternate_name": "Europium oxide (Eu<sub>2</sub>O<sub>3</sub>);Europia;Europium sesquioxide;Dieuropium trioxide;Europium oxide;Europium(3+) oxide;Europium trioxide;Europia (Eu<sub>2</sub>O<sub>3</sub>);Europium(III) oxide;Europium oxide (EuO<sub>1.5</sub>)",
    "duplicated_cas_no": "162525-07-7;351529-40-3;959704-96-2;1046447-49-7;2988743-90-2",
    "SMILES": "",
    "meta_data": {
        "InChI": "",
        "InChIKey": null,
        "Canonical SMILES": "",
        "Molecular Formula": "Eu<sub>2</sub>O<sub>3</sub>",
        "Molecular Mass": "",
        "Melting Point": "2240 °C",
        "Density": "7.3 g/cm³"
    }
}