{
    "uri": "substance/pt/1308969",
    "rn": "1308-96-9",
    "name": "Europium oxide",
    "images": [],
    "inchi": "",
    "inchiKey": "",
    "smile": "",
    "canonicalSmile": "",
    "molecularFormula": "Eu<sub>2</sub>O<sub>3</sub>",
    "molecularMass": "",
    "experimentalProperties": [
        {
            "name": "Melting Point",
            "property": "2240 °C",
            "sourceNumber": 1
        },
        {
            "name": "Density",
            "property": "7.3 g/cm³",
            "sourceNumber": 2
        }
    ],
    "propertyCitations": [
        {
            "docUri": "document/pt/document/12381410",
            "sourceNumber": 1,
            "source": "Schneider, S. J.; Journal of Research of the National Bureau of Standards, Section A:  Physics and Chemistry, (1961), 65A, 429-34, CAplus"
        },
        {
            "docUri": "document/pt/document/47415909",
            "sourceNumber": 2,
            "source": "Grivel, J.-C.; Journal of Phase Equilibria and Diffusion, (2016), 37(5), 601-610, CAplus"
        }
    ],
    "synonyms": [
        "Europium oxide (Eu<sub>2</sub>O<sub>3</sub>)",
        "Europia",
        "Europium sesquioxide",
        "Dieuropium trioxide",
        "Europium oxide",
        "Europium(3+) oxide",
        "Europium trioxide",
        "Europia (Eu<sub>2</sub>O<sub>3</sub>)",
        "Europium(III) oxide",
        "Europium oxide (EuO<sub>1.5</sub>)"
    ],
    "replacedRns": [
        "162525-07-7",
        "351529-40-3",
        "959704-96-2",
        "1046447-49-7",
        "2988743-90-2"
    ],
    "hasMolfile": false,
    "source": "https://commonchemistry.cas.org/detail?cas_rn=1308-96-9"
}