{
    "cas_no": "568-73-0",
    "key_name": "Tanshinone I",
    "cn_name": "丹参酮I;1,6-二甲基-菲并[1,2-b]呋喃-10,11-二酮;",
    "alternate_name": "Phenanthro[1,2-<em>b</em>]furan-10,11-dione, 1,6-dimethyl-;1,6-Dimethylphenanthro[1,2-<em>b</em>]furan-10,11-dione;Tanshinone I;Tanshinon I;Tanshinone A",
    "duplicated_cas_no": "",
    "SMILES": "O=C1C=2C(C3=C(C1=O)C(C)=CO3)=CC=C4C2C=CC=C4C",
    "meta_data": {
        "InChI": "InChI=1S/C18H12O3/c1-9-4-3-5-12-11(9)6-7-13-15(12)17(20)16(19)14-10(2)8-21-18(13)14/h3-8H,1-2H3",
        "InChIKey": null,
        "Canonical SMILES": "O=C1C(=O)C2=C(OC=C2C)C=3C=CC4=C(C=CC=C4C)C13",
        "Molecular Formula": "C<sub>18</sub>H<sub>12</sub>O<sub>3</sub>",
        "Molecular Mass": "276.29",
        "Melting Point": "230-232 °C"
    }
}