{
    "cas_no": "58016-28-7",
    "key_name": "Methyl olivetolate",
    "cn_name": null,
    "alternate_name": "Benzoic acid, 2,4-dihydroxy-6-pentyl-, methyl ester;Olivetolcarboxylic acid, methyl ether;Methyl 2,4-dihydroxy-6-pentylbenzoate;Methyl olivetolate;(6-Pentyl-2,4-dihydroxybenzoic acid methyl ester",
    "duplicated_cas_no": "",
    "SMILES": "C(OC)(=O)C1=C(CCCCC)C=C(O)C=C1O",
    "meta_data": {
        "InChI": "InChI=1S/C13H18O4/c1-3-4-5-6-9-7-10(14)8-11(15)12(9)13(16)17-2/h7-8,14-15H,3-6H2,1-2H3",
        "InChIKey": null,
        "Canonical SMILES": "O=C(OC)C=1C(O)=CC(O)=CC1CCCCC",
        "Molecular Formula": "C<sub>13</sub>H<sub>18</sub>O<sub>4</sub>",
        "Molecular Mass": "238.28",
        "Melting Point": "105-106 °C"
    }
}