{
    "cas_no": "604-68-2",
    "key_name": "Penta-<em>O</em>-acetyl-α-<span class=\"text-smallcaps\">D</span>-glucopyranose",
    "cn_name": "1,2,3,4,6-alpha-D-葡萄糖五乙酸酯;",
    "alternate_name": "α-<span class=\"text-smallcaps\">D</span>-Glucopyranose, 1,2,3,4,6-pentaacetate;Glucopyranose, pentaacetate, α-<span class=\"text-smallcaps\">D</span>-;α-<span class=\"text-smallcaps\">D</span>-Glucopyranose, pentaacetate;α-<span class=\"text-smallcaps\">D</span>-Glucose pentaacetate;1,2,3,4,6-Penta-<em>O</em>-acetyl-α-<span class=\"text-smallcaps\">D</span>-glucopyranose;Pentaacetyl-α-<span class=\"text-smallcaps\">D</span>-glucose;α-<span class=\"text-smallcaps\">D</span>-Glucopyranosyl pentaacetate;Pentaacetyl-α-<span class=\"text-smallcaps\">D</span>-glucopyranose;Penta-<em>O</em>-acetyl-α-<span class=\"text-smallcaps\">D</span>-glucopyranose;NSC 119335;NSC 9290;2,3,4,6-Tetra-<em>O</em>-acetyl-α-<span class=\"text-smallcaps\">D</span>-glucopyranosyl acetate;1,2,3,4,6-Tetra-<em>O</em>-acetyl-α-<span class=\"text-smallcaps\">D</span>-glucopyranoside",
    "duplicated_cas_no": "",
    "SMILES": "O(C(C)=O)[C@H]1[C@H](OC(C)=O)[C@@H](COC(C)=O)O[C@H](OC(C)=O)[C@@H]1OC(C)=O",
    "meta_data": {
        "InChI": "InChI=1S/C16H22O11/c1-7(17)22-6-12-13(23-8(2)18)14(24-9(3)19)15(25-10(4)20)16(27-12)26-11(5)21/h12-16H,6H2,1-5H3/t12-,13-,14+,15-,16+/m1/s1",
        "InChIKey": null,
        "Canonical SMILES": "O=C(OCC1OC(OC(=O)C)C(OC(=O)C)C(OC(=O)C)C1OC(=O)C)C",
        "Molecular Formula": "C<sub>16</sub>H<sub>22</sub>O<sub>11</sub>",
        "Molecular Mass": "390.34",
        "Boiling Point": "~0.115 °C (approx) @ Press: 3 x 10<sup>-4</sup> Torr",
        "Melting Point": "113.3 °C"
    }
}