{
    "cas_no": "687-38-7",
    "key_name": "Glycylserine",
    "cn_name": "甘氨酰-DL-丝氨酸;",
    "alternate_name": "Serine, glycyl-;Serine, <em>N</em>-glycyl-, <span class=\"text-smallcaps\">DL</span>-;<span class=\"text-smallcaps\">DL</span>-Serine, <em>N</em>-glycyl-;Glycylserine;Glycyl-<span class=\"text-smallcaps\">DL</span>-serine;NSC 163326;2-(2-Aminoacetamido)-3-hydroxypropanoic acid",
    "duplicated_cas_no": "2789-31-3",
    "SMILES": "C(NC(CN)=O)(C(O)=O)CO",
    "meta_data": {
        "InChI": "InChI=1S/C5H10N2O4/c6-1-4(9)7-3(2-8)5(10)11/h3,8H,1-2,6H2,(H,7,9)(H,10,11)",
        "InChIKey": null,
        "Canonical SMILES": "O=C(O)C(NC(=O)CN)CO",
        "Molecular Formula": "C<sub>5</sub>H<sub>10</sub>N<sub>2</sub>O<sub>4</sub>",
        "Molecular Mass": "162.14",
        "Melting Point": "207 °C"
    }
}