{
    "cas_no": "108-11-2",
    "key_name": "4-Methyl-2-pentanol",
    "cn_name": "4-甲基-2-戊醇;1,3-二甲基丁醇;甲基异丁基甲醇;",
    "alternate_name": "2-Pentanol, 4-methyl-;4-Methyl-2-pentanol;3-MIC;Isobutylmethylmethanol;MAOH;2-Methyl-4-pentanol;MIBC;MIC;Methylisobutylcarbinol;Isobutylmethylcarbinol;4-Methyl-2-pentyl alcohol;1,3-Dimethyl-1-butanol;4-Methyl-2-amyl alcohol;<em>dl</em>-Methylisobutylcarbinol;(±)-4-Methyl-2-pentanol;NSC 9384;1,3-Dimethylbutyl alcohol;1,3-Dimethylbutanol",
    "duplicated_cas_no": "20281-88-3;40747-85-1;72847-31-5",
    "SMILES": "C(C(C)C)C(C)O",
    "meta_data": {
        "InChI": "InChI=1S/C6H14O/c1-5(2)4-6(3)7/h5-7H,4H2,1-3H3",
        "InChIKey": null,
        "Canonical SMILES": "OC(C)CC(C)C",
        "Molecular Formula": "C<sub>6</sub>H<sub>14</sub>O",
        "Molecular Mass": "102.17",
        "Boiling Point": "133 °C @ Press: 760 Torr",
        "Melting Point": "-90 °C",
        "Density": "0.8075 g/cm³ @ Temp: 20 °C"
    }
}