{
    "cas_no": "355-37-3",
    "key_name": "1<em>H</em>-Perfluorohexane",
    "cn_name": "1H-全氟己烷;1,1,1,2,2,3,3,4,4,5,5,6,6-十三氟己烷;1H-全氟己烷;",
    "alternate_name": "Hexane, 1,1,1,2,2,3,3,4,4,5,5,6,6-tridecafluoro-;1,1,1,2,2,3,3,4,4,5,5,6,6-Tridecafluorohexane;1<em>H</em>-Perfluorohexane;R 5213;HFC 52-13p;1-Hydrotridecafluorohexane;AC 2000;Asahiklin AC 2000",
    "duplicated_cas_no": "",
    "SMILES": "C(C(C(C(F)F)(F)F)(F)F)(C(C(F)(F)F)(F)F)(F)F",
    "meta_data": {
        "InChI": "InChI=1S/C6HF13/c7-1(8)2(9,10)3(11,12)4(13,14)5(15,16)6(17,18)19/h1H",
        "InChIKey": null,
        "Canonical SMILES": "FC(F)C(F)(F)C(F)(F)C(F)(F)C(F)(F)C(F)(F)F",
        "Molecular Formula": "C<sub>6</sub>HF<sub>13</sub>",
        "Molecular Mass": "320.05",
        "Boiling Point": "71-72 °C",
        "Density": "1.684 g/cm³ @ Temp: 25 °C"
    }
}