{
    "cas_no": "59280-70-5",
    "key_name": "<em>N</em>-(4-Chloro-2-fluorophenyl)acetamide",
    "cn_name": "4-氯-2-氟-N-乙酰基苯胺;",
    "alternate_name": "Acetamide, <em>N</em>-(4-chloro-2-fluorophenyl)-;<em>N</em>-(4-Chloro-2-fluorophenyl)acetamide;4′-Chloro-2′-fluoroacetanilide;4-Chloro-2-fluoroacetanilide",
    "duplicated_cas_no": "",
    "SMILES": "N(C(C)=O)C1=C(F)C=C(Cl)C=C1",
    "meta_data": {
        "InChI": "InChI=1S/C8H7ClFNO/c1-5(12)11-8-3-2-6(9)4-7(8)10/h2-4H,1H3,(H,11,12)",
        "InChIKey": null,
        "Canonical SMILES": "O=C(NC1=CC=C(Cl)C=C1F)C",
        "Molecular Formula": "C<sub>8</sub>H<sub>7</sub>ClFNO",
        "Molecular Mass": "187.60",
        "Melting Point": "47-50 °C"
    }
}