{
    "cas_no": "1480-91-7",
    "key_name": "5-Fluoro-2-methyl-4(3<em>H</em>)-pyrimidinone",
    "cn_name": null,
    "alternate_name": "4(3<em>H</em>)-Pyrimidinone, 5-fluoro-2-methyl-;4-Pyrimidinol, 5-fluoro-2-methyl-;4(1<em>H</em>)-Pyrimidinone, 5-fluoro-2-methyl-;5-Fluoro-2-methyl-4(3<em>H</em>)-pyrimidinone;5-Fluoro-2-methylpyrimidin-4(3<em>H</em>)-one",
    "duplicated_cas_no": "",
    "SMILES": "O=C1C(F)=CN=C(C)N1",
    "meta_data": {
        "InChI": "InChI=1S/C5H5FN2O/c1-3-7-2-4(6)5(9)8-3/h2H,1H3,(H,7,8,9)",
        "InChIKey": null,
        "Canonical SMILES": "O=C1NC(=NC=C1F)C",
        "Molecular Formula": "C<sub>5</sub>H<sub>5</sub>FN<sub>2</sub>O",
        "Molecular Mass": "128.10",
        "Melting Point": "215-217 °C"
    }
}