{
    "cas_no": "40187-51-7",
    "key_name": "5-Acetyl-2-hydroxybenzamide",
    "cn_name": "5-乙酰基水杨酰胺;5-乙酰基-2-羟基苯甲酰胺;",
    "alternate_name": "Benzamide, 5-acetyl-2-hydroxy-;5-Acetyl-2-hydroxybenzamide;5-Acetylsalicylamide",
    "duplicated_cas_no": "",
    "SMILES": "C(N)(=O)C1=CC(C(C)=O)=CC=C1O",
    "meta_data": {
        "InChI": "InChI=1S/C9H9NO3/c1-5(11)6-2-3-8(12)7(4-6)9(10)13/h2-4,12H,1H3,(H2,10,13)",
        "InChIKey": null,
        "Canonical SMILES": "O=C(N)C1=CC(=CC=C1O)C(=O)C",
        "Molecular Formula": "C<sub>9</sub>H<sub>9</sub>NO<sub>3</sub>",
        "Molecular Mass": "179.17",
        "Melting Point": "217 °C"
    }
}