{
    "cas_no": "6979-94-8",
    "key_name": "Tri-<em>O</em>-acetylguanosine",
    "cn_name": "2\",3\",5\"-三乙酰鸟苷;",
    "alternate_name": "Guanosine, 2′,3′,5′-triacetate;Triacetylguanosine;Guanosine triacetate;2′,3′,5′-Tri-<em>O</em>-acetylguanosine;Tri-<em>O</em>-acetylguanosine;NSC 66387",
    "duplicated_cas_no": "288154-85-8;331633-03-5;1276683-34-1",
    "SMILES": "O(C(C)=O)[C@H]1[C@@H](O[C@H](COC(C)=O)[C@H]1OC(C)=O)N2C3=C(N=C2)C(=O)N=C(N)N3",
    "meta_data": {
        "InChI": "InChI=1S/C16H19N5O8/c1-6(22)26-4-9-11(27-7(2)23)12(28-8(3)24)15(29-9)21-5-18-10-13(21)19-16(17)20-14(10)25/h5,9,11-12,15H,4H2,1-3H3,(H3,17,19,20,25)/t9-,11-,12-,15-/m1/s1",
        "InChIKey": null,
        "Canonical SMILES": "O=C1N=C(N)NC2=C1N=CN2C3OC(COC(=O)C)C(OC(=O)C)C3OC(=O)C",
        "Molecular Formula": "C<sub>16</sub>H<sub>19</sub>N<sub>5</sub>O<sub>8</sub>",
        "Molecular Mass": "409.35",
        "Melting Point": "226 °C"
    }
}