{
    "cas_no": "472-61-7",
    "key_name": "Astaxanthin",
    "cn_name": "虾青素;3,3\"-二羟基-beta,beta-胡萝卜素-4,4\"-二酮;",
    "alternate_name": "β,β-Carotene-4,4′-dione, 3,3′-dihydroxy-, (3<em>S</em>,3′<em>S</em>)-;β-Carotene-4,4′-dione, 3,3′-dihydroxy-, <em>all</em>-<em>trans</em>-;Astaxanthin;(3<em>S</em>,3′<em>S</em>)-3,3′-Dihydroxy-β,β-carotene-4,4′-dione;Ovoester;Astaxanthin, <em>all</em>-<em>trans</em>-;(3<em>S</em>,3′<em>S</em>)-Astaxanthin;<em>all</em>-<em>trans</em>-Astaxanthin;<em>trans</em>-Astaxanthin;(3<em>S</em>,3′<em>S</em>)-<em>all</em>-<em>trans</em>-Astaxanthin;(3S,3′<em>S</em>)-Astaxanthin;Carophyll Pink;Natupink;BioAstin oleoresin;BioAstin;Lucantin Pink;AstaREAL;NatuRose;AstaXin;Astared;Astots 10O;Astots 5O;Aquasta;(<em>S</em>,<em>S</em>)-Astaxanthin;Astabio AR 5;AstaREAL A1010;Puresta W 05;Astareal ACT;Astacarox;Astabio AR 1;Astax S;Astots ST;<em>all</em>-<em>trans</em>-(3<em>S</em>,3′<em>S</em>)-Astaxanthin;Sunactive AX 310;AstaZine;Astots AWS;Astots 50S;Astabio AP1;AstaCos;AstaFit;Panaferd D",
    "duplicated_cas_no": "346585-67-9",
    "SMILES": "C(=C/C(=C/C=C/C(=C/C=C/C=C(/C=C/C=C(/C=C/C=1C(C)(C)C[C@H](O)C(=O)C1C)\\C)\\C)/C)/C)\\C=2C(C)(C)C[C@H](O)C(=O)C2C",
    "meta_data": {
        "InChI": "InChI=1S/C40H52O4/c1-27(17-13-19-29(3)21-23-33-31(5)37(43)35(41)25-39(33,7)8)15-11-12-16-28(2)18-14-20-30(4)22-24-34-32(6)38(44)36(42)26-40(34,9)10/h11-24,35-36,41-42H,25-26H2,1-10H3/b12-11+,17-13+,18-14+,23-21+,24-22+,27-15+,28-16+,29-19+,30-20+/t35-,36-/m0/s1",
        "InChIKey": null,
        "Canonical SMILES": "O=C1C(=C(C=CC(=CC=CC(=CC=CC=C(C=CC=C(C=CC2=C(C(=O)C(O)CC2(C)C)C)C)C)C)C)C(C)(C)CC1O)C",
        "Molecular Formula": "C<sub>40</sub>H<sub>52</sub>O<sub>4</sub>",
        "Molecular Mass": "596.84",
        "Melting Point": "182.5 °C"
    }
}