{
    "cas_no": "542-58-5",
    "key_name": "2-Chloroethyl acetate",
    "cn_name": "2-氯乙基乙酸酯;",
    "alternate_name": "Ethanol, 2-chloro-, 1-acetate;Ethanol, 2-chloro-, acetate;2-Chloroethyl acetate;β-Chloroethyl acetate;2-Acetoxy-1-chloroethane;2-Acetoxyethyl chloride;1-Acetoxy-2-chloroethane;Acetic acid 2-chloroethyl ester;2-Chloroethanol acetate;NSC 77374",
    "duplicated_cas_no": "",
    "SMILES": "O(C(C)=O)CCCl",
    "meta_data": {
        "InChI": "InChI=1S/C4H7ClO2/c1-4(6)7-3-2-5/h2-3H2,1H3",
        "InChIKey": null,
        "Canonical SMILES": "O=C(OCCCl)C",
        "Molecular Formula": "C<sub>4</sub>H<sub>7</sub>ClO<sub>2</sub>",
        "Molecular Mass": "122.55",
        "Boiling Point": "145 °C",
        "Density": "1.178 g/cm³"
    }
}