{
    "cas_no": "636-73-7",
    "key_name": "3-Pyridinesulfonic acid",
    "cn_name": "3-吡啶磺酸;吡啶-3-磺酸;",
    "alternate_name": "3-Pyridinesulfonic acid;3-Pyridylsulfonic acid;β-Sulfopyridine;3-Sulfopyridine;NSC 246058",
    "duplicated_cas_no": "",
    "SMILES": "S(=O)(=O)(O)C=1C=CC=NC1",
    "meta_data": {
        "InChI": "InChI=1S/C5H5NO3S/c7-10(8,9)5-2-1-3-6-4-5/h1-4H,(H,7,8,9)",
        "InChIKey": null,
        "Canonical SMILES": "O=S(=O)(O)C=1C=NC=CC1",
        "Molecular Formula": "C<sub>5</sub>H<sub>5</sub>NO<sub>3</sub>S",
        "Molecular Mass": "159.16",
        "Melting Point": "357 °C (decomp)"
    }
}