{
    "cas_no": "1556-18-9",
    "key_name": "Iodocyclopentane",
    "cn_name": "碘代环戊烷;碘代环戊烷;",
    "alternate_name": "Cyclopentane, iodo-;Iodocyclopentane;Cyclopentyl iodide;1-Iodocyclopentane;NSC 6071;Cyclopentane iodide",
    "duplicated_cas_no": "",
    "SMILES": "IC1CCCC1",
    "meta_data": {
        "InChI": "InChI=1S/C5H9I/c6-5-3-1-2-4-5/h5H,1-4H2",
        "InChIKey": null,
        "Canonical SMILES": "IC1CCCC1",
        "Molecular Formula": "C<sub>5</sub>H<sub>9</sub>I",
        "Molecular Mass": "196.03",
        "Boiling Point": "166.5 °C",
        "Density": "1.1754 g/cm³ @ Temp: 0 °C"
    }
}