{
    "cas_no": "4246-51-9",
    "key_name": "4,7,10-Trioxatridecane-1,13-diamine",
    "cn_name": null,
    "alternate_name": "1-Propanamine, 3,3′-[oxybis(2,1-ethanediyloxy)]bis-;Propylamine, 3,3′-[oxybis(ethyleneoxy)]bis-;3,3′-[Oxybis(2,1-ethanediyloxy)]bis[1-propanamine];Diethylene glycol bis(3-aminopropyl) ether;4,7,10-Trioxatridecane-1,13-diamine;1,13-Diamino-4,7,10-trioxatridecane;Q 19262;4,7,10-Trioxa-1,13-tridecanamine;Bis[2-(3-aminopropoxy)ethyl] ether;DPA-DEG;Ancamine 1922;<em>O</em>,<em>O</em>′-Bis(3-aminopropyl)diethylene glycol;3,3′-[Oxybis(ethane-2,1-diyloxy)]dipropan-1-amine;Ancamine 1922A;3,3′-((Oxybis(ethane-2,1-diyl))bis(oxy))bis(propan-1-amine);3-[2-[2-(3-Aminopropoxy)ethoxy]ethoxy]propan-1-amine;TTD;4,7,10-Trioxa-1,1,3-tridecanediamine;Baxxodur EC 130;EC 130",
    "duplicated_cas_no": "678186-55-5;849801-57-6;1425007-66-4;1438397-27-3",
    "SMILES": "O(CCOCCCN)CCOCCCN",
    "meta_data": {
        "InChI": "InChI=1S/C10H24N2O3/c11-3-1-5-13-7-9-15-10-8-14-6-2-4-12/h1-12H2",
        "InChIKey": null,
        "Canonical SMILES": "O(CCOCCCN)CCOCCCN",
        "Molecular Formula": "C<sub>10</sub>H<sub>24</sub>N<sub>2</sub>O<sub>3</sub>",
        "Molecular Mass": "220.31",
        "Boiling Point": "108-115 °C @ Press: 4 Torr",
        "Density": "1.0110 g/cm³ @ Temp: 20 °C"
    }
}