{
    "cas_no": "104-19-8",
    "key_name": "<em>N</em>,<em>N</em>,4-Trimethyl-1-piperazineethanamine",
    "cn_name": "N,N,4-三甲基哌嗪-1-乙胺;",
    "alternate_name": "1-Piperazineethanamine, <em>N</em>,<em>N</em>,4-trimethyl-;Piperazine, 1-[2-(dimethylamino)ethyl]-4-methyl-;<em>N</em>,<em>N</em>,4-Trimethyl-1-piperazineethanamine;1-[2-(Dimethylamino)ethyl]-4-methylpiperazine;<em>N</em>-Methyl-<em>N</em>′-(dimethylaminoethyl)piperazine;<em>N</em>-Methyl-<em>N</em>′-(β-dimethylaminoethyl)piperazine;S 36081-3;Toyocat NP;Kaolizer 8;<em>N</em>-Methyl-<em>N</em>′-(<em>N</em>,<em>N</em>-dimethylaminoethyl)piperazine;NSC 79879;<em>N</em>,<em>N</em>,<em>N</em>′-Trimethylaminoethylpiperazine;KL 8;Jeffcat TR 52;<em>N</em>-Methyl-<em>N</em>′-(2-dimethylaminoethyl)piperazine;Jeffcat TAP;1-Methyl-4-[2-(dimethylamino)ethyl]piperazine;<em>N</em>-(2-Dimethylaminoethyl)-<em>N</em>′-methylpiperazine",
    "duplicated_cas_no": "100359-89-5;205657-41-6;880874-56-6",
    "SMILES": "C(CN(C)C)N1CCN(C)CC1",
    "meta_data": {
        "InChI": "InChI=1S/C9H21N3/c1-10(2)4-7-12-8-5-11(3)6-9-12/h4-9H2,1-3H3",
        "InChIKey": null,
        "Canonical SMILES": "N(C)(C)CCN1CCN(C)CC1",
        "Molecular Formula": "C<sub>9</sub>H<sub>21</sub>N<sub>3</sub>",
        "Molecular Mass": "171.28",
        "Boiling Point": "118-121 °C @ Press: 37 Torr"
    }
}