{
    "cas_no": "3984-34-7",
    "key_name": "3-(4-Chlorobenzoyl)propionic acid",
    "cn_name": "3-(4-氯苯甲酰)丙酸;4-(4-氯苯基)-4-氧代丁酸;",
    "alternate_name": "Benzenebutanoic acid, 4-chloro-γ-oxo-;Propionic acid, 3-(<em>p</em>-chlorobenzoyl)-;4-Chloro-γ-oxobenzenebutanoic acid;3-(<em>p</em>-Chlorobenzoyl)propionic acid;β-(<em>p</em>-Chlorobenzoyl)propionic acid;β-(4-Chlorobenzoyl)propionic acid;3-(4-Chlorobenzoyl)propionic acid;4-Oxo-4-(4-chlorophenyl)butanoic acid;4-(4-Chlorophenyl)-4-oxobutyric acid;β-(4-Chlorophenyl)propionic acid;NSC 5137;4-(4-Chlorophenyl)-4-oxobutanoic acid;3-(4-Chlorobenzoyl)propanoic acid",
    "duplicated_cas_no": "",
    "SMILES": "C(CCC(O)=O)(=O)C1=CC=C(Cl)C=C1",
    "meta_data": {
        "InChI": "InChI=1S/C10H9ClO3/c11-8-3-1-7(2-4-8)9(12)5-6-10(13)14/h1-4H,5-6H2,(H,13,14)",
        "InChIKey": null,
        "Canonical SMILES": "O=C(O)CCC(=O)C1=CC=C(Cl)C=C1",
        "Molecular Formula": "C<sub>10</sub>H<sub>9</sub>ClO<sub>3</sub>",
        "Molecular Mass": "212.63",
        "Melting Point": "131 °C"
    }
}