{
    "cas_no": "456-19-9",
    "key_name": "1-(Dichloromethyl)-4-fluorobenzene",
    "cn_name": null,
    "alternate_name": "Benzene, 1-(dichloromethyl)-4-fluoro-;Toluene, α,α-dichloro-<em>p</em>-fluoro-;1-(Dichloromethyl)-4-fluorobenzene;<em>p</em>-Fluorobenzal chloride;4-Fluorobenzal chloride;α,α-Dichloro-4-fluorotoluene;NSC 60716",
    "duplicated_cas_no": "",
    "SMILES": "C(Cl)(Cl)C1=CC=C(F)C=C1",
    "meta_data": {
        "InChI": "InChI=1S/C7H5Cl2F/c8-7(9)5-1-3-6(10)4-2-5/h1-4,7H",
        "InChIKey": null,
        "Canonical SMILES": "FC1=CC=C(C=C1)C(Cl)Cl",
        "Molecular Formula": "C<sub>7</sub>H<sub>5</sub>Cl<sub>2</sub>F",
        "Molecular Mass": "179.02",
        "Boiling Point": "81-83 °C @ Press: 15 Torr",
        "Density": "1.3488 g/cm³ @ Temp: 20 °C"
    }
}