{
    "cas_no": "40596-69-8",
    "key_name": "Methoprene",
    "cn_name": null,
    "alternate_name": "2,4-Dodecadienoic acid, 11-methoxy-3,7,11-trimethyl-, 1-methylethyl ester, (2<em>E</em>,4<em>E</em>)-;2,4-Dodecadienoic acid, 11-methoxy-3,7,11-trimethyl-, 1-methylethyl ester, (<em>E</em>,<em>E</em>)-;Methoprene;Altosid;Isopropyl (2<em>E</em>,4<em>E</em>)-11-methoxy-3,7,11-trimethyl-2,4-dodecadienoate;ZR 515;ENT 70460;Altosid SR 10;Manta;Kabat;ZPA 1019;Dianex;Apex 600E;Manina;Starbar Inhibitor;Juvemon;Juvenmon;Altosid XR;Methoprene S;Manta (hormone);Altosid Liquid Larvicide;<em>dl</em>-Isopropyl 11-methoxy-3,7,11-trimethyl-<em>trans</em>-<em>trans</em>-2,4-dodecadienoate;Apex;Apex 5E;Apex (pesticide);Bioprene BM Fire Ant Killer Bait;(2<em>E</em>,4<em>E</em>)-3,7,11-Trimethyl-11-methoxydodeca-2,4-dienoic acid ethyl ester;Metoprag 20CE;SB-515;MeSH ID: D008726",
    "duplicated_cas_no": "41205-06-5",
    "SMILES": "C(=C(/C=C/CC(CCCC(OC)(C)C)C)\\C)\\C(OC(C)C)=O",
    "meta_data": {
        "InChI": "InChI=1/C19H34O3/c1-15(2)22-18(20)14-17(4)11-8-10-16(3)12-9-13-19(5,6)21-7/h8,11,14-16H,9-10,12-13H2,1-7H3/b11-8+,17-14+",
        "InChIKey": null,
        "Canonical SMILES": "O=C(OC(C)C)C=C(C=CCC(C)CCCC(OC)(C)C)C",
        "Molecular Formula": "C<sub>19</sub>H<sub>34</sub>O<sub>3</sub>",
        "Molecular Mass": "310.47",
        "Boiling Point": "100 °C @ Press: 0.05 Torr",
        "Melting Point": "&lt;25 °C",
        "Density": "0.9261 g/cm³ @ Temp: 20 °C"
    }
}