{
    "cas_no": "13597-99-4",
    "key_name": "Nitric acid, beryllium salt (2:1)",
    "cn_name": null,
    "alternate_name": "Nitric acid, beryllium salt (2:1);Nitric acid, beryllium salt;Beryllium nitrate;Beryllium nitrate (Be(NO<sub>3</sub>)<sub>2</sub>);Beryllium dinitrate",
    "duplicated_cas_no": "",
    "SMILES": "N(=O)(=O)O.[Be]",
    "meta_data": {
        "InChI": "InChI=1S/Be.HNO3/c;2-1(3)4/h;(H,2,3,4)",
        "InChIKey": null,
        "Canonical SMILES": "[Be].O=N(=O)O",
        "Molecular Formula": "Be.2HNO<sub>3</sub>",
        "Molecular Mass": "",
        "Melting Point": "60.5 °C",
        "Density": "1.56 g/cm³"
    }
}