{
    "cas_no": "2438-05-3",
    "key_name": "4-Propylbenzoic acid",
    "cn_name": null,
    "alternate_name": "Benzoic acid, 4-propyl-;Benzoic acid, <em>p</em>-propyl-;4-Propylbenzoic acid;<em>p</em>-Propylbenzoic acid;4-<em>n</em>-Propylbenzoic acid;NSC 168993",
    "duplicated_cas_no": "",
    "SMILES": "C(O)(=O)C1=CC=C(CCC)C=C1",
    "meta_data": {
        "InChI": "InChI=1S/C10H12O2/c1-2-3-8-4-6-9(7-5-8)10(11)12/h4-7H,2-3H2,1H3,(H,11,12)",
        "InChIKey": null,
        "Canonical SMILES": "O=C(O)C1=CC=C(C=C1)CCC",
        "Molecular Formula": "C<sub>10</sub>H<sub>12</sub>O<sub>2</sub>",
        "Molecular Mass": "164.20",
        "Melting Point": "142-144 °C"
    }
}