{
    "cas_no": "21351-79-1",
    "key_name": "Cesium hydroxide",
    "cn_name": "氢氧化铯;",
    "alternate_name": "Cesium hydroxide (Cs(OH));Cesium hydroxide;NSC 121987",
    "duplicated_cas_no": "1308-47-0",
    "SMILES": "[Cs]O",
    "meta_data": {
        "InChI": "InChI=1S/Cs.H2O/h;1H2/q+1;/p-1",
        "InChIKey": null,
        "Canonical SMILES": "[Cs]O",
        "Molecular Formula": "CsHO",
        "Molecular Mass": "",
        "Melting Point": "272.3 °C"
    }
}