{
    "cas_no": "1839-17-4",
    "key_name": "<em>N</em><sup>4</sup>-Methyl-3,4-pyridinediamine",
    "cn_name": null,
    "alternate_name": "3,4-Pyridinediamine, <em>N</em><sup>4</sup>-methyl-;Pyridine, 3-amino-4-(methylamino)-;<em>N</em><sup>4</sup>-Methyl-3,4-pyridinediamine;4-(Methylamino)-3-aminopyridine;3-Amino-4-(methylamino)pyridine;4-(Methylamino)-3-pyridineamine",
    "duplicated_cas_no": "",
    "SMILES": "N(C)C=1C(N)=CN=CC1",
    "meta_data": {
        "InChI": "InChI=1S/C6H9N3/c1-8-6-2-3-9-4-5(6)7/h2-4H,7H2,1H3,(H,8,9)",
        "InChIKey": null,
        "Canonical SMILES": "N=1C=CC(NC)=C(N)C1",
        "Molecular Formula": "C<sub>6</sub>H<sub>9</sub>N<sub>3</sub>",
        "Molecular Mass": "123.16",
        "Melting Point": "169 °C"
    }
}