{
    "cas_no": "3945-69-5",
    "key_name": "4-(4,6-Dimethoxy-1,3,5-triazin-2-yl)-4-methylmorpholinium chloride",
    "cn_name": "4-(4,6-二甲氧基三嗪-2-基)-4-甲基吗啉盐酸盐;",
    "alternate_name": "Morpholinium, 4-(4,6-dimethoxy-1,3,5-triazin-2-yl)-4-methyl-, chloride (1:1);Morpholinium, 4-(4,6-dimethoxy-<em>s</em>-triazin-2-yl)-4-methyl-, chloride;Morpholinium, 4-(4,6-dimethoxy-1,3,5-triazin-2-yl)-4-methyl-, chloride;4-(4,6-Dimethoxy-<em>s</em>-triazin-2-yl)-4-methylmorpholinium chloride;4-(4,6-Dimethoxy-1,3,5-triazin-2-yl)-4-methylmorpholinium chloride;DMTMM;4-(4,6-Dimethoxy-1,3,5-triazin-2-yl)-4-methylmorpholin-4-ium chloride;4-(4,6-Dimethoxy-1,3,5-triazin-2-yl)-4-methylmorphonium chloride",
    "duplicated_cas_no": "",
    "SMILES": "C[N+]1(CCOCC1)C=2N=C(OC)N=C(OC)N2.[Cl-]",
    "meta_data": {
        "InChI": "InChI=1S/C10H17N4O3.ClH/c1-14(4-6-17-7-5-14)8-11-9(15-2)13-10(12-8)16-3;/h4-7H2,1-3H3;1H/q+1;/p-1",
        "InChIKey": null,
        "Canonical SMILES": "[Cl-].N=1C(=NC(=NC1OC)[N+]2(C)CCOCC2)OC",
        "Molecular Formula": "C<sub>10</sub>H<sub>17</sub>N<sub>4</sub>O<sub>3</sub>.Cl",
        "Molecular Mass": "",
        "Melting Point": "120-122 °C (decomp)"
    }
}