{
    "cas_no": "4441-12-7",
    "key_name": "Morpholine, 4,4′,4′′-phosphinylidynetris-",
    "cn_name": "三(4-吗啉基)氧化膦;三(4-吗啉基)磷酸;",
    "alternate_name": "Morpholine, 4,4′,4′′-phosphinylidynetris-;Phosphine oxide, trimorpholino-;Phosphoryl trimorpholide;Phosphoric acid trimorpholide;Phosphoric trimorpholide;Tris(morpholino)phosphine oxide;NSC 41250",
    "duplicated_cas_no": "",
    "SMILES": "P(=O)(N1CCOCC1)(N2CCOCC2)N3CCOCC3",
    "meta_data": {
        "InChI": "InChI=1S/C12H24N3O4P/c16-20(13-1-7-17-8-2-13,14-3-9-18-10-4-14)15-5-11-19-12-6-15/h1-12H2",
        "InChIKey": null,
        "Canonical SMILES": "O=P(N1CCOCC1)(N2CCOCC2)N3CCOCC3",
        "Molecular Formula": "C<sub>12</sub>H<sub>24</sub>N<sub>3</sub>O<sub>4</sub>P",
        "Molecular Mass": "305.31",
        "Melting Point": "186-188 °C"
    }
}