{
    "cas_no": "14028-44-5",
    "key_name": "Amoxapine",
    "cn_name": "阿莫沙平;2-氯-11-(1-哌嗪基)二苯并[b,f][1,4]氧氮杂卓;",
    "alternate_name": "Dibenz[<em>b</em>,<em>f</em>][1,4]oxazepine, 2-chloro-11-(1-piperazinyl)-;2-Chloro-11-(1-piperazinyl)dibenz[<em>b</em>,<em>f</em>][1,4]oxazepine;Amoxapine;CL 67772;Demolox;Moxadil;Amoxan;Asendin;Asendis;2-Chloro-11-(piperazin-1-yl)dibenzo[<em>b</em>,<em>f</em>][1,4]oxazepine;MeSH ID: D000657",
    "duplicated_cas_no": "",
    "SMILES": "ClC=1C=C2C(=NC=3C(OC2=CC1)=CC=CC3)N4CCNCC4",
    "meta_data": {
        "InChI": "InChI=1S/C17H16ClN3O/c18-12-5-6-15-13(11-12)17(21-9-7-19-8-10-21)20-14-3-1-2-4-16(14)22-15/h1-6,11,19H,7-10H2",
        "InChIKey": null,
        "Canonical SMILES": "ClC=1C=CC=2OC=3C=CC=CC3N=C(C2C1)N4CCNCC4",
        "Molecular Formula": "C<sub>17</sub>H<sub>16</sub>ClN<sub>3</sub>O",
        "Molecular Mass": "313.78",
        "Melting Point": "175.5 °C"
    }
}