{
    "cas_no": "355-17-9",
    "key_name": "3,3,4,4,5,5,5-Heptafluoro-2-pentanone",
    "cn_name": "3,3,4,4,5,5,5-七氟戊-2-酮;3,3,4,4,5,5,5-七氟戊-2-酮;",
    "alternate_name": "2-Pentanone, 3,3,4,4,5,5,5-heptafluoro-;3,3,4,4,5,5,5-Heptafluoro-2-pentanone;Heptafluoropropyl methyl ketone;HFK 447mcc;3,3,4,4,5,5,5-Heptafluoropentan-2-one",
    "duplicated_cas_no": "",
    "SMILES": "C(C(C(C)=O)(F)F)(C(F)(F)F)(F)F",
    "meta_data": {
        "InChI": "InChI=1S/C5H3F7O/c1-2(13)3(6,7)4(8,9)5(10,11)12/h1H3",
        "InChIKey": null,
        "Canonical SMILES": "O=C(C)C(F)(F)C(F)(F)C(F)(F)F",
        "Molecular Formula": "C<sub>5</sub>H<sub>3</sub>F<sub>7</sub>O",
        "Molecular Mass": "212.07",
        "Boiling Point": "63.5 °C @ Press: 740 Torr",
        "Density": "1.424 g/cm³ @ Temp: 20 °C"
    }
}