{
    "cas_no": "4543-96-8",
    "key_name": "<em>N</em>,<em>N</em>,<em>N</em>′-Trimethyl-1,3-propanediamine",
    "cn_name": "N,N,N\"-三甲基-1,3-丙二胺;三甲基-1,3-丙二胺;",
    "alternate_name": "1,3-Propanediamine, <em>N</em><sup>1</sup>,<em>N</em><sup>1</sup>,<em>N</em><sup>3</sup>-trimethyl-;1,3-Propanediamine, <em>N</em>,<em>N</em>,<em>N</em>′-trimethyl-;<em>N</em><sup>1</sup>,<em>N</em><sup>1</sup>,<em>N</em><sup>3</sup>-Trimethyl-1,3-propanediamine;<em>N</em>,<em>N</em>,<em>N</em>′-Trimethyltrimethylenediamine;<em>N</em>,<em>N</em>,<em>N</em>′-Trimethyl-1,3-propanediamine;<em>N</em>,<em>N</em>,<em>N</em>′-Trimethyl-1,3-diaminopropane;<em>N</em>-(3-Dimethylaminopropyl)-<em>N</em>-methylamine;(3-Dimethylaminopropyl)methylamine;Methyl[3-(dimethylamino)propyl]amine;3-(Dimethylamino)-<em>N</em>-methylpropylamine;<em>N</em>-(3-Dimethylaminopropyl)methylamine;<em>N</em>,<em>N</em>,<em>N</em>′-Trimethylpropan-1,3-diamine;N1,N1,N3-Trimethylpropane-1,3-diamine",
    "duplicated_cas_no": "210102-02-6",
    "SMILES": "C(CCNC)N(C)C",
    "meta_data": {
        "InChI": "InChI=1S/C6H16N2/c1-7-5-4-6-8(2)3/h7H,4-6H2,1-3H3",
        "InChIKey": null,
        "Canonical SMILES": "N(C)CCCN(C)C",
        "Molecular Formula": "C<sub>6</sub>H<sub>16</sub>N<sub>2</sub>",
        "Molecular Mass": "116.20",
        "Boiling Point": "140-142 °C"
    }
}