{
    "cas_no": "372-20-3",
    "key_name": "3-Fluorophenol",
    "cn_name": "3-氟苯酚;",
    "alternate_name": "Phenol, 3-fluoro-;Phenol, <em>m</em>-fluoro-;3-Fluorophenol;<em>m</em>-Fluorophenol;NSC 87078",
    "duplicated_cas_no": "",
    "SMILES": "FC1=CC(O)=CC=C1",
    "meta_data": {
        "InChI": "InChI=1S/C6H5FO/c7-5-2-1-3-6(8)4-5/h1-4,8H",
        "InChIKey": null,
        "Canonical SMILES": "FC1=CC=CC(O)=C1",
        "Molecular Formula": "C<sub>6</sub>H<sub>5</sub>FO",
        "Molecular Mass": "112.10",
        "Boiling Point": "178 °C",
        "Melting Point": "13.7 °C"
    }
}