{
    "cas_no": "102-25-0",
    "key_name": "1,3,5-Triethylbenzene",
    "cn_name": "1,3,5-三乙苯;",
    "alternate_name": "Benzene, 1,3,5-triethyl-;1,3,5-Triethylbenzene;NSC 406584",
    "duplicated_cas_no": "",
    "SMILES": "C(C)C1=CC(CC)=CC(CC)=C1",
    "meta_data": {
        "InChI": "InChI=1S/C12H18/c1-4-10-7-11(5-2)9-12(6-3)8-10/h7-9H,4-6H2,1-3H3",
        "InChIKey": null,
        "Canonical SMILES": "C=1C(=CC(=CC1CC)CC)CC",
        "Molecular Formula": "C<sub>12</sub>H<sub>18</sub>",
        "Molecular Mass": "162.27",
        "Boiling Point": "215.9 °C",
        "Melting Point": "-66.5 °C",
        "Density": "0.8621 g/cm³ @ Temp: 20 °C"
    }
}