{
    "cas_no": "20970-75-6",
    "key_name": "3-Methyl-2-pyridinecarbonitrile",
    "cn_name": "2-氰基-3-甲基吡啶;",
    "alternate_name": "2-Pyridinecarbonitrile, 3-methyl-;Picolinonitrile, 3-methyl-;3-Methyl-2-pyridinecarbonitrile;2-Cyano-3-methylpyridine;3-Methylpicolinonitrile;2-Cyano-3-picoline;3-Methyl-2-cyanopyridine;3-Methylpicolonitrile",
    "duplicated_cas_no": "",
    "SMILES": "C(#N)C1=C(C)C=CC=N1",
    "meta_data": {
        "InChI": "InChI=1S/C7H6N2/c1-6-3-2-4-9-7(6)5-8/h2-4H,1H3",
        "InChIKey": null,
        "Canonical SMILES": "N#CC1=NC=CC=C1C",
        "Molecular Formula": "C<sub>7</sub>H<sub>6</sub>N<sub>2</sub>",
        "Molecular Mass": "118.14",
        "Boiling Point": "120 °C @ Press: 15 Torr",
        "Melting Point": "85-86 °C"
    }
}