{
    "cas_no": "9003-35-4",
    "key_name": "Formaldehyde-phenol copolymer",
    "cn_name": null,
    "alternate_name": "Formaldehyde, polymer with phenol;Phenol, polymer with formaldehyde;Kerite (polymer);Renoterm 67;Phenol-formaldehyde resin;Phenol-formaldehyde polymer;Phenol-formaldehyde condensate;BRLY 1215;Ironsides 1111;Formaldehyde-phenol resin;Resinox 773;ATM 2;Corephenit HB;Corephenit;FL 1 (phenolic resin);FO 80;Formaldehyde-phenol polymer;Rousselot 75.00;FKP;FFR;Alpit;Phenodur PR 897;Novolak 18;ATM 1;AW 1;BRL 2741;BRPA 5570;BRR 5555;BSL (phenolic resin);Cellobond J 1010;CTL 91LD;Durez 12686;Durez 12687;F 50 (phenolic resin);FRP 1A;I 21-22;K 15-2;K 21-22;MILR 9299-II;Modofen 53;Modofen 56;P 3-1;P 5-2;Phenodur PR 141;Resol 300;RFN 60;RI 4009;SBS 1;SNK 2-27;Tegofilm M 12B;TsNIIF;Varcum 2406;VFT;VIAM-B 3;Voloknit VL 2;Pololit E;MDPV;VRB;Resopen;Corephenit HBZ;FK 20;KDFF;Kaproplast KSG;SBS 11;FFB;Foundrez 23-703;Rezocol;Kreodur;Retinax FK 16L;FRV 1;ZhN;FRV 4;DN;R 300;Albertol 626L;VW 65059;Bakelite 207;Bakelite 222;Tegocoll DO 1;ZkN;K 18-2;LBS 3;RA 51;N 1320;K 4;NS (resin);TS (resin);K 18;Bakelite BRL 2760;18U;DPK;CR 9357;Noburit HH;Phenodur PR 722;Novogen P 40;Kauresin 250;FK 24A;6KKh1B;Vulkadur A;Novolak 18u;R 10993;Heresite;AG 4B;AG 4C;PM 932;M 0;RP 902;SBS (phenolic resin);Alnovol 844K;K 17-2;VIAM-B;Iditol (polymer);ZhB;F 110;Cellobond J 1990/60;2P1000;Caproplast;Kaproplast;Duroplast 9001;Cascophen W 166;W 166F;SFK 2;SF 339;PF 541;PF 544;Amres 5581;Kaproplast KS;MP 120 (phenolic resin);K 4 (phenolic resin);Phenodur PR 101;R 2 (phenolic resin);BLS;BKS 2600;FRP 5;Rezopen;SF 010;Rezokol;SP 8855;Bakelite 1003;Varcum 5485;Bakelite BRL 1100;Durez 7421A;Plyophen 5010;TS;S 1;ATM 2 (phenolic resin);FO 64;OF 1;AG 4V (phenolic resin);BSL;M 1;SBS;FL 1;R 2;Porofen FSzG 2;FK 161;Porofen FF 1;Porofen F 1-36;UBF;Cerac 303;Cerac 312;LBS 1;101M;KAST-V;Cellobond J 1006W;Retinaks FK 24a;STEF;K 18 (polymer);Vilares 5;FP-B;AF 3T;Bakelite 433;Textolite KAST-V;NS;BZh 3;SPLBS 1;SP 18 (polymer);LARS 5;CP 152C;Bakelite 3087;K 18-2FG;LBS 9;Kerite;VGS 18;Metallogen AT 3;Aerophene 0808;BRPE 4035;FPF 1F;Alnovol PN 429;BZh 1 (phenolic resin);SBS 1 (phenolic resin);Iditol Extra;HP 203N;HP 607N;1000WS;Dorolac IX;Bornum 6101;SF 015;SF 241;SF 015M;BRZ 7541;PB 2V;LATOS 31;AG 4S;Fenopreg;LT;Bakelite BRRE 5833;Bakelite BRZ 7541;DSV 4R2M;FNSL;NSB 153;NTK 246;NOB 246;NSB 146;Phenodur PR 281;DSV 4-2R2M;Durez 14000;DS 9-2816;Bakelite R 10993;K 124P50;Koroset;E 14;IMC Self-Set 130;Chem-Rez 480;Chem-Set 700P;FRV 1A;K 124-38;Resin LARS;LARS;Si 14E;FRA;SF 3024B;S 1 (phenolic resin);LAF 1;P 42;Chembond Cerac 312;SFZh 3016;SF 010A;Bakelite TP;AG 4W;Resinox 753;FL 03K;Sumilit PR 9300;Porofen S;Formalin-phenol copolymer;AST 2A;Vx 2-090-68;Vx 4-080-34;Fenoform 31-14P;Fenoform 12P;Fenoform 1H/P;FFS 01;T 77 (phenolic resin);Arzamit 5;Plyophen TD 2307;Plyophen J 303;E 12;SF 50;VP 13N;Resophene 71DAS;RSF;LT (polymer);E 12 (phenolic resin);Sirfen 1025;Sirfen 1027;Oktofor O;FRV;Durez 12763;RCI 25-114;LBS;Umaform LV 1;SF 260;BZh 8;Bakelite R 19595;GSP 32;Fenolit 43;Poltec 2;F 5243;Fenokol;Umaform B 115;F 20;F 5250;F 5215;Umaform B 116;Umaform LE;Umaform TVD;BLS 2700;FRP (polymer);FRP;VP 24N;U-Loid PL 250;SF 011;P 42 (phenolic resin);ATM 1T;Sirfen N 3;FFS-K 124;SFZh 309;SFKh;Methylon 11;BZh 4;SFP 012A;RSF 3043;MP 120HH;SFZh 3012;MP 120H;TSKGS 75-90;SF 480;F 50;Bakelite CKR 2400;Bakelite 2432;Phenodur PR 121;Phenodur PR 373;Phenodur PR 285;SFZh 3014;MNG-FF;TR 18176;Plyophen TD 2302;F 5238;WR 40AS;Alnovol PN 430;GSP 400;WR 40;F 47;W 31-46B;W 31-54B;W 31-131C;RSF 3040;Bakelite R 5468/1;Bakelite R 10840;MR 800N;LBS 4;LBS 20;FP-RN 7;E 2-330-02;F 6-337-67;VKh 1-090-34;U 2-301-07;U 1-307-07;SP 342-02;O 3-010-02;Zh 2-010-60;E 1-340-02;RN 7 (phenolic resin);SF 0112;Arofene 700;Uranol L 9;Colloid 8440;Varcum 24-655;Varcum 29703;Plenco 402;OFPR-II;OFPR 2;SF 3024B20;Basyntan M;SF 100;SF 0116F;SF 0112A;Bakelite 882712;Peracit 5044;Peracit 5061;Bakelite 881712;Peracit 5048;Bakelite 221834;Bakelite SP 222-25/40;Peracit 5046;Peracit 5042;Bakelite SP 222-18/26;80FV;Bakelite SP 222-14/17;J 1011H;J 1008H;Bakelite 887912;Resinox 7280;ATM 10;Haveg H 41N;AG;Hitanol 4020;Umacol B;AG (phenolic resin);SFZh 3037;Phenodur VPW 9340;Mitsui Toatsu 2000;K 6;KHD III;SLK 621;Rezotsel;K 6 (polymer);Rezocel;PL 3812D;SF 0119;AV Lite 450M;SFZh 3032;SFZh 3013;SFKh 3013;SFZh 3024;Gumifen 11;SF 3021;FFO 1;FFO 2;Koroset A;Fiberite MXG 6070;MPC-S;MPC-R;SF 262;Plastasol L 47N;Resinox 594;Bakelite BLS 2700;GP 5137;Cascophen PC 100;Varcum 22-655;SPF 012;Uravar 75778;BRL 2760;SF 121;SF 104;80FU;MY 106;Zh 5-010-78;S 1-25;BV 01;FL 2 (phenolic resin);FL 2;SFP 011;550PL;PS 2178;Haveg AF;Phenorez PB 71DA;WR-AS;Sumilit PC 1;MS 7814;PN 80;Fenokol 43;FX 101;Umaform 116;F 5245;Plastatherm 2355;FFS 79;Resitop PSK 2225;Resitop PSK 4300;Tegocoll DO 2;SFN 2;Delta Kure Resin;ES 31B2;Resitop PSF 4224;Shonol BRG 557;Foundrez 96-880;PSM 2240A;Mitsui Toatsu 3000;Phenolic resins, phenol-formaldehyde copolymers;R 300 (phenolic resin);FK 74;SFZh;LB 21;LB 2 (binder);LB 2;BZh 1-4559-71;SFP (polymer);SFP 011A;SFZh 305;IF;SFP;Paraformaldehyde-phenol copolymer;WR 36AS;IF (polymer);SP 690;Acme Super Set 970;EG-FF;Resitop PSK 2320;Resinox SD 7280;PR 51470;Bellpearl R 900;Bellpearl S 970;Resitop PL 2211;Uravar L 9;F 20 (phenolic resin);PN 430;FPF 1M;SF 012;Alnovol PN 320;Novolak 70;Bakelite 92113;Bakelite 92055;Rousselot 7515;FL (phenolic resin);Bellpearl S 930;Bellpearl R 800;Durez 50000;SF 381 (phenolic resin);SF 381;Rezine 75-30;Plastasol L 47;Bakelite SW 361;Plenco 650;Shonol BKS 316;Novolak 1000;Sumilit PR 50716;SK 3 (phenolic resin);SK 3;Resitop RSF 4261;Phenodur PR 217;Resitop PSF 4261;Mitsui Toatsu 1000;Cascophen SP 5520D;Sumilit PR 1050;BRG 557;Phenodur 217;X 34-45DF006;ITD 320Z;FSF 65;ACL 141;PSF 4261;SFP 0119A;Resitop PSK 4261;Sumilit PR 50731;Borofen DX 26;Tungophen B;BZh 2;M 2;U-Loid PL 283;BLS 362;FFK 39;FL 5280;SF 0113;PSF 4224;SF 3021s;Tamanol 745;PS 2176;PS 4113;PSM 2207;PSM 4448;PL 2975;Sumilit PR 10694;Polofen FE 18-1;Polofen F 1;PL 2640;Unilam ABT;Printan G;Novolak 2000;H 41N;GP 553;BRG 556;R 1974;Durez 12704;Resine 75-30;Neoresin PX 310;F 47 (polymer);U-Loid PL 281;LBS 16;Sumilit PR 50235;SFP 118;FK 75;Hitanol HP 607N;Shonol BRG 556;PN;BRG 555;Shonol BRG 555;PN (phenolic resin);Fenoterm;Cerac 6010;PR 50731;Bakelite 7716;TD 2254;Plyophen TD 2254;Fenokol A;Cascophen 3128M;K 50 (phenolic resin);KF 74;PS 2207;K 50;HX 5211PF;H 1S;PF 109;HRJ 652;Finetex PF 20;F 110 (polymer);Chemplex 775;E 14 (phenolic resin);GP 3195;NRV 125;Peracit A 177;Selphen OG 2000;Selphen OG 1000;Sumilit Resin PR 50622;Resitop PSM 4228;Sumilit PR 50622;Fenakol 43;RP 912;Suspendol PPK;SF 29;Sintek 2;Resitop PL 2207;TD 2093;Varcum TD 2093;K 266;Tamanol PA;FRV 1 (phenolic resin);Resitop PSM 6820;Resitop PSM 4261;PN 46;PN 152;Phenol-formalin copolymer;CD 208-34A;CD 208-34B;Fiberite MXB 360;AV Lite;Vulkadur RB;SP 18;GP 2074;Bellpearl S 890;BLS (polymer);PN 154;BD 909;GP 5415;Fenokol 35;K 641;Fiberite K 641;Formaldehyde-phenol copolymer;Tamanol P 180;Cascophen SP 5300D;TD 2307;M 1 (phenolic resin);HP 401SD;IB 215;PI 260;F 24;PZR (phenolic resin);HRJ 2210;RN 7;Tackirol 160;Sumilit PR 51470;SF 341;S 191;SFO 1;R 8821/1;Cellobond J 2015A;Fenolit R 1;SFZh 3061;SFZh 3066;SFZh 339;T 77;P 65 (phenolic resin);Shonol PCL 681;P 65;GP 2804;SF 29 (phenolic resin);Novaset 735;PSM 4261;PL 2211;337T28;MPD 8515;Phenolite TD 2254;Cascophen PB 306;Alnovol 320K;Shonol BRG 559;F 24 (phenolic resin);PR 50716;Phenolite PE 203;Phenolite TD 2090P;Phenolite PE 205;BB 062;Cascophen C 271;BRG 559;Sumilit Resin PR 51470;Rutaphen GC 75;Resorciphen 2074A2026B;Sumilit PR-Q 221;Sumilit PR-Q 121;PF 750;Phenolite TD 2090-60M;RB 125S;Shonol BRN 2120;Epicure DX 200N60;BRN 2120;1940H;Durez 175;Varcum 29219;PR 311;Durez PR311;RSF 014;PR 53120;Resitop PS 2607;KRD-HM 2;Umaform F;Fenokol 40;Fenochem 35;Novokol E 15;HRJ 1166;GP 2037;N 16 (novolak);FD 14;Cascophen 1701;N 16;Retinax FK 24A;Sumilit Resin PR 50731;Retinaks FK 16L;GP 5833;Resi-Stran;Fiberite CMXR 6055;Oshika Resin D 17;D 17 (polymer);D 17;Plyophen TD 2093;BZh 1;Phenolite TD 2093;CS 100;FL;CS 100 (phenolic resin);Isocure LF 305;Plenco 11956;Plenco 21483;R 17620;Tamanol 758;RFL 3;NKTV-A 62;HF 1 (phenolic resin);HF 1;Alnovol PN 844;Ucar CK 1635;Ucar BKR 2620;SF 141S;PR 100;Phenolite 5010;GP 6777;Ablaphene RA 101;RA 101;OCF-RE 131;SD 1731;Durite SD 1731;Aerofix N;Gascofix NY;Oshika Resin D 100;Casconol PF 1555;Sumilit PR 940;GP 144D64;Borofen DL 702;Borofen BPF 70;Rezofen CS;PF 2-0823;Bakelite LG 724;Novolak LG 724;N 101;N 101 (phenolic resin);Arofene 72155;LG 724;Neosyn CPP 48;BB 143;Cascophen W 91B;Resitop PL 4708;BRG 85;HRJ 11722;SG 3100;VP 300N;Tembec CL 300;PF 270;PN 320;FRD 5002;Tilen A;Oshika Resin PB 1310;Atanor R 619;Atanor R 435;R 619;R 435;SD 140;PR 50235;Bakelite 8978FL;HRJ 11482;SF 100 (phenolic resin);BFOS;Araldite K 6;Ucar GP 5200;Kemfix HB 96/200;CB 8081;Sylvic DUO-A 133;HPN-X;Fenolit TL 706;Fenolit TL 706/3;Umaform MVU;Umaform B 118;Ebolit FF;Sumiresin PR 50235;RL 628;GP 5479;HRJ 12700;Phenolbil;K 48;UKF;Cascophen PR 511;K 48 (phenolic resin);UBF (phenolic resin);Sumilit HPN-X;LBS 3 (polymer);LBS 1 (polymer);Phenolite TD 4304;Interac 1168;T 266;T 214;T 110;T 250;O 203;O 122;Hitanol 3013;SF 50 (phenolic resin);XR 14277A;T 110 (phenolic resin);T 214 (phenolic resin);P 963;101M (phenolic resin);R 8210;HF 3;SFP 470;A 407-901;Cellobond J 1002G;GP 3121;FSJ-III;Peracit 4536K;XR 4364;Acme Flow 2012;SFP 011L;Arrotex 2035;FFB (phenolic resin);Cascophen OS 707;386ST;GSP 32 (phenolic resin);Cascophen AL 5309;Durite SD 446A;BPR 572A;BKS 316;Resi-Lam GP 5236;GP 5236;GP 4445;CB 050;PRN 1200;CB 050 (conductive polymer);SFP 015A;Phenol-formaldehyde copolymer;SFZh 306;SF 14;GIPK 114;FUT;JDW 2;FF 65S;SD 1708;MER 7930;SFZh 3102;Phenoset 5001;Akrochem P 86;Netbond FRB;SVF 3;STF 2;ATF 1;UVF 3;UTF 1;ATF 1 (phenolic resin);PR 100 (phenolic resin);BRWE 5555;BRWE 5853;Plenco 12631;LBR 6;PR 940;J 60/2325L;S 205;SF 022;OF 1 (phenolic resin);SF 14 (polymer);FPR 520;Cascophen 433-156;AW 1 (binder);KPE-F 2000;KPH-F 2001;KPH-F 2002;HF 1M;ST 1138;Shonol BRP 572A;Univeks C;GP 5778;Varcum TD 2090P, homopolymer;L 252G;Varcum TD 2090P;P 180;O 250 (polymer);O 251;O 250;SPF 011L;Bakelite BB 7/138;SFZh 304;JDW 3;JDW 1;KNB 100PL;KPD-L 777;FDP;SFZh 3027;PF 307;PFC 04;SP 2611;TD 2090-60M;PF 329;020-210-75SK;Zh 13-010-89;O 20-210-75SK;E 39-0127-48;SFZh 301;LBS 29;Durez 7716;7510P;SFZh 3027B;Resitop PL 4667;AML Resin AMCR 01;AMCR 01;SF 014;SF 010M;FS 117;SF 3021K;UVS 10T;UVS 350T;IZ 6635;Prefere 13B024;Santolink EB 560;Phenolite J 325;J 325;Plyophen J 325;Dynosol S 175;PF 76;PN 80 (phenolic resin);SFZh 302;Ekoakoru;Sumilit Resin PR 311;Sumilit PR 311;Bakelite LB-SP;Cellobond 85S;Bakelite 2506HW;Bakelite 1842HW;PF 330;R 330 (phenolic resin);R 330;Bakelite PF 6520LB;LPF 101K2;HPC 51;W 800C;L 998;Bakelite PF 0790K01;PF 336;Polofen FF 1WHG;F 2450;PHS 600;Shonol BKS 377F;Resitop PL 4646;PG 700;PG 700 (phenolic resin);Phenolic resin 2123;Sumilit PR 217;PR 217;Bakelite LBS 5;Carbolic acid-formaldehyde copolymer;Resol 472;R 472;Baqphen 4051-3;Phenolic resin 2130;PL 2207;Cascophen BD 4503;Cascophen BD 4507;Cascophen BD 4509;BZh 6;BZh 3A;Sumilit Resin PR 50235;BF 4N;EX 262E;SD 909A;SD 672D;Cascophen W 3154;GP 594G04;GP 548G51;PS 2607;W 3154;FDU 14;Prefere 14J021;FDU 15;Prefere 72-6410M;Prefere 70-7012L;Prefere 70-7530L;PR 281;GP 3110;GP 5102;Durite 1731;SFZ 3013VL;SFZ 3014;Novolak EXP-E 069;Dynea 13D036;SMD 30207;PF 328;Cascophen 1770TO3;TSP-F;MA 15;GP 205C;Dynea 1385C;Dynea 1355F;PF 785;13B122;Polycol N;Amberol T 137;Cascophen OS 703A;Cascophen O 303D;SF 030A;Borofen DX 30;GP 155C42;Phenol-paraformaldehyde copolymer;Rhenosin RB;Sumilit PR 5064;AG 4V;PSK 2320;BF 01;Modofen 54S;Alnovol PN 350;Resital 6358/1;Dynea 13B410;NVG 2000;SFZh 3031;Lignofen 15/2;LV 70S;W 1601;GP-RPPY 5779;GP 5779;Durez 29095;BB 634;Sumilite Resin PR 217;E 97783;Dynea E 97783;Bakelite 1279HW;Bakelite PF 1804PS;SuperEko NFC;HY 2000;WoodWeld GP 190073;WoodWeld GP 145C48;Plenco 11936;PF 8010;Durite SC 830A;Ablaphene RS 101;HW 1842;HRJ 12362;Sumilite PR 217;MP 120;Imprezin 01;SFF 3031;ReziCure 3057;Prefere 4976;Fenokol UA;MXB 360;Phenodur PR 612/80B;Cascophen SLPF 55V2;Sumilite Resin PR 51470;PF 201;Poly[[(phenylmethoxy)phenylene]methylene];Sumilite Resin PR 50716;Abifen 130D;SFZh 3011;Arofene 8426ME63;Resibond GP 169C21;GP 169C21 Resi-Bond;Corrodur 7839;FL 5111;Durite SD 672D;BCW 2022;GP-RPPY 5757;Borofen B 1606A;Cascophen BCW 2021;Cascophen GD 3-147;Cascophen GD 3-146;Sinotherm 8426;Plenco 14695;PR 285;Muromac WAP 9211;Dynea 4976PF;Askocure 300EP3901;Avecure 330;SFZh 323;CR 4871D;SH 1098;Sumilite Resin PR 940;Cellobond PA 2276;PA 2276;GP 486G34;Resitop LVR 8210;2E4MZ-CN-Phenolic resin 2130 copolymer;Pli-O-Phen J 325;PF 190080;JA 10;HRJ 12952;HN 7310A;Phenolite J 235;PF 162510;FRV-EM;Resi-Bond 6773;Longlife 1120;SPWC 190054PF;TD 4304;Woodweld 190080;Resi-Stran 240C11;SL 2005;Reslink GTC 50;Apinee 80R;FRJ 425;Prefere 16J536;RL 43003;Cascophen P 6619;GPR 5815;Formaldehyde-phenol-2-phenylimidazole copolymer;STN 150;PF 2;Phenalloy 2870;PH 4055;J 871;PF 0235DP;Resin 2162;Resin 2173F;Fenotam GR 326;PF 16L510;PF 2512;Resol A;Novolac Z;Ribetak R 7515P;Cascophen 54774TJ;T 383J;R 330U;GP 240C11 Resi-Stran;GP 190C80 Woodweld;Polifen 47;SFP 012A3;Prefere 72-5648L;Prefere 91-5701Lx;Phenolic resin 2127;Prefere 72-5593M;CR 4510;WE 1029;F 3620-3;RT 1201;KM 220J;Lignofen G 3P;Hexion 13BO33;D 26GPB;Bakelite 8505F;R 7515P;Plenco 12114;Bakelite PF 6510;Bakelite PF 6680;EL 03;Plenco 14845;8020-65M;PF 8020-65M;Curaphen B 60;SL 2201;SFG 3014;Primere 14J;F 908 (phenolic resin);F 908;NC 58;SF 0121;ST 2025;Elaztobond A 250LP;Resicare 3010;Resicare 3015;MK 95;204PF;SFP 012A2;Bakelite 5520;Cycom 799H;Supraplast PK 3280;Carbolic acid-formalin copolymer;Bakelite PF 2453HW;Phenolic BB 007",
    "duplicated_cas_no": "9038-25-9;9048-48-0;9048-61-7;9049-60-9;9050-10-6;9050-11-7;9050-66-2;9073-89-6;9079-79-2;9082-36-4;9082-37-5;9087-36-9;9087-71-2;11120-43-7;11138-48-0;12619-76-0;12773-09-0;12773-11-4;12773-12-5;12773-14-7;12798-23-1;37187-19-2;37191-60-9;37209-25-9;37211-56-6;37218-05-6;37260-15-4;37281-00-8;37281-33-7;37291-51-3;37328-79-3;37331-31-0;37331-34-3;37336-53-1;37339-83-6;39277-48-0;39284-11-2;39284-12-3;39284-17-8;39320-26-8;39339-94-1;39382-13-3;39389-44-1;39389-57-6;39412-69-6;39423-38-6;39435-45-5;50642-82-5;50642-83-6;50809-13-7;50809-44-4;50922-32-2;51108-93-1;51358-41-9;51426-07-4;51540-79-5;51812-00-1;51888-99-4;52038-54-7;52038-55-8;52229-83-1;52276-50-3;52433-93-9;53237-77-7;53523-20-9;53571-85-0;53800-73-0;53986-85-9;54174-24-2;55126-07-3;55126-53-9;55799-50-3;57608-76-1;57851-91-9;58250-18-3;58318-30-2;59029-77-5;59764-46-4;60476-15-5;60617-31-4;61162-32-1;61840-47-9;62996-09-2;63799-27-9;64093-71-6;65035-27-0;65324-69-8;65381-55-7;65430-77-5;67775-26-2;67775-27-3;67775-28-4;67775-29-5;68040-01-7;69073-18-3;69106-52-1;69279-87-4;69345-00-2;69494-40-2;69772-46-9;70226-36-7;70323-28-3;71077-79-7;72270-48-5;73560-33-5;73699-75-9;74092-44-7;74900-13-3;75882-39-2;79468-82-9;80400-11-9;82115-83-1;82375-98-2;82785-50-0;82851-99-8;84069-62-5;84136-19-6;84503-72-0;84684-10-6;85411-27-4;86003-96-5;86243-63-2;86297-83-8;87915-86-4;88161-89-1;88747-54-0;90250-02-5;95032-38-5;96230-44-3;97599-27-4;99401-12-4;99676-06-9;100919-45-7;101484-09-7;103598-71-6;103735-96-2;104041-95-4;104041-96-5;104708-68-1;105634-75-1;107231-31-2;107248-34-0;107339-18-4;108066-67-7;109945-82-6;111565-41-4;111566-49-5;112955-72-3;113255-58-6;113355-90-1;113451-34-6;114013-78-4;114512-96-8;115566-67-1;115727-60-1;117925-67-4;118550-44-0;119166-75-5;123896-31-1;124365-50-0;125524-52-9;126879-05-8;128415-73-6;130501-39-2;135151-82-5;137398-63-1;139690-92-9;142369-02-6;142582-76-1;148057-94-7;152742-69-3;157321-45-4;163649-32-9;165039-55-4;171402-43-0;172307-85-6;174593-62-5;180189-89-3;202421-30-5;227316-00-9;259746-92-4;262358-41-8;264918-74-3;293300-82-0;305798-25-8;316805-83-1;319482-35-4;333304-30-6;491576-78-4;491610-09-4;537006-16-9;545434-92-2;777071-53-1;842143-46-8;1017595-08-2;1061634-82-9;1061635-06-0;1061635-92-4;1161834-65-6;1187363-80-9;1276683-17-0;1642140-70-2;1715945-24-6;1820793-16-5;1821114-17-3;1881245-15-3;2015955-55-0;2086293-81-2;2131748-14-4;2180992-35-0;2247367-03-7;2374152-29-9;2378867-57-1;2413933-00-1;2417799-49-4",
    "SMILES": "OC1=CC=CC=C1.C=O",
    "meta_data": {
        "InChI": "InChI=1S/C6H6O.CH2O/c7-6-4-2-1-3-5-6;1-2/h1-5,7H;1H2",
        "InChIKey": null,
        "Canonical SMILES": "O=C.OC=1C=CC=CC1",
        "Molecular Formula": "(C<sub>6</sub>H<sub>6</sub>O.CH<sub>2</sub>O)<sub>x</sub>",
        "Molecular Mass": "",
        "Melting Point": "94 °C",
        "Density": "1.10 g/cm³"
    }
}