{
    "cas_no": "455-18-5",
    "key_name": "4-(Trifluoromethyl)benzonitrile",
    "cn_name": "对三氟甲基苯腈;",
    "alternate_name": "Benzonitrile, 4-(trifluoromethyl)-;<em>p</em>-Tolunitrile, α,α,α-trifluoro-;4-(Trifluoromethyl)benzonitrile;<em>p</em>-(Trifluoromethyl)benzonitrile;<em>p</em>-Cyanobenzotrifluoride;<em>p</em>-(Trifluoromethyl)cyanobenzene;α,α,α-Trifluoro-<em>p</em>-tolunitrile;4-Cyano-α,α,α-trifluorotoluene;NSC 88340;4-Trifluoromethyl-1-cyanobenzene;4-Cyanobenzotrifluoride;1-Cyano-4-trifluoromethylbenzene",
    "duplicated_cas_no": "",
    "SMILES": "C(F)(F)(F)C1=CC=C(C#N)C=C1",
    "meta_data": {
        "InChI": "InChI=1S/C8H4F3N/c9-8(10,11)7-3-1-6(5-12)2-4-7/h1-4H",
        "InChIKey": null,
        "Canonical SMILES": "N#CC1=CC=C(C=C1)C(F)(F)F",
        "Molecular Formula": "C<sub>8</sub>H<sub>4</sub>F<sub>3</sub>N",
        "Molecular Mass": "171.12",
        "Boiling Point": "80-81 °C @ Press: 20 Torr",
        "Melting Point": "36-37 °C",
        "Density": "1.2784 g/cm³ @ Temp: 20 °C"
    }
}