{
    "cas_no": "58749-23-8",
    "key_name": "Licochalcone B",
    "cn_name": null,
    "alternate_name": "2-Propen-1-one, 3-(3,4-dihydroxy-2-methoxyphenyl)-1-(4-hydroxyphenyl)-, (2<em>E</em>)-;2-Propen-1-one, 3-(3,4-dihydroxy-2-methoxyphenyl)-1-(4-hydroxyphenyl)-, (<em>E</em>)-;(2<em>E</em>)-3-(3,4-Dihydroxy-2-methoxyphenyl)-1-(4-hydroxyphenyl)-2-propen-1-one;Licochalcone B",
    "duplicated_cas_no": "",
    "SMILES": "C(=C/C(=O)C1=CC=C(O)C=C1)\\C2=C(OC)C(O)=C(O)C=C2",
    "meta_data": {
        "InChI": "InChI=1S/C16H14O5/c1-21-16-11(5-9-14(19)15(16)20)4-8-13(18)10-2-6-12(17)7-3-10/h2-9,17,19-20H,1H3/b8-4+",
        "InChIKey": null,
        "Canonical SMILES": "O=C(C=CC1=CC=C(O)C(O)=C1OC)C2=CC=C(O)C=C2",
        "Molecular Formula": "C<sub>16</sub>H<sub>14</sub>O<sub>5</sub>",
        "Molecular Mass": "286.28",
        "Melting Point": "196-197 °C"
    }
}