{
    "cas_no": "619-55-6",
    "key_name": "4-Methylbenzamide",
    "cn_name": null,
    "alternate_name": "Benzamide, 4-methyl-;<em>p</em>-Toluamide;4-Methylbenzamide;<em>p</em>-Methylbenzamide;<em>p</em>-Tolylamide;NSC 2163",
    "duplicated_cas_no": "",
    "SMILES": "C(N)(=O)C1=CC=C(C)C=C1",
    "meta_data": {
        "InChI": "InChI=1S/C8H9NO/c1-6-2-4-7(5-3-6)8(9)10/h2-5H,1H3,(H2,9,10)",
        "InChIKey": null,
        "Canonical SMILES": "O=C(N)C1=CC=C(C=C1)C",
        "Molecular Formula": "C<sub>8</sub>H<sub>9</sub>NO",
        "Molecular Mass": "135.16",
        "Melting Point": "161-163 °C",
        "Density": "1.18 g/cm³"
    }
}