{
    "cas_no": "3977-23-9",
    "key_name": "2-Amino-5,6-dimethyl-4(3<em>H</em>)-pyrimidinone",
    "cn_name": null,
    "alternate_name": "4(3<em>H</em>)-Pyrimidinone, 2-amino-5,6-dimethyl-;4-Pyrimidinol, 2-amino-5,6-dimethyl-;4(1<em>H</em>)-Pyrimidinone, 2-amino-5,6-dimethyl-;2-Amino-5,6-dimethyl-4(3<em>H</em>)-pyrimidinone;2-Amino-4-hydroxy-5,6-dimethylpyrimidine;2-Amino-5,6-dimethyl-4-pyrimidinol;5,6-Dimethylisocytosine;2-Amino-5,6-dimethyl-4(1<em>H</em>)-pyrimidinone;2-Amino-5,6-dimethyl-4-hydroxypyrimidine;NSC 66052;2-Amino-5,6-dimethyl-1,4-dihydropyrimidin-4-one;2-Amino-5,6-dimethyl-1<em>H</em>-pyrimidin-4-one;2-Amino-5,6-dimethyl-3<em>H</em>-pyrimidin-4-one;2-Amino-5,6-dimethyl-3,4-dihydropyrimidin-4-one",
    "duplicated_cas_no": "24885-50-5",
    "SMILES": "CC1=C(C)NC(N)=NC1=O",
    "meta_data": {
        "InChI": "InChI=1S/C6H9N3O/c1-3-4(2)8-6(7)9-5(3)10/h1-2H3,(H3,7,8,9,10)",
        "InChIKey": null,
        "Canonical SMILES": "O=C1N=C(N)NC(=C1C)C",
        "Molecular Formula": "C<sub>6</sub>H<sub>9</sub>N<sub>3</sub>O",
        "Molecular Mass": "139.16",
        "Melting Point": "330 °C"
    }
}