{
    "cas_no": "6642-29-1",
    "key_name": "4-Nitro-1,8-naphthalic anhydride",
    "cn_name": null,
    "alternate_name": "1<em>H</em>,3<em>H</em>-Naphtho[1,8-<em>cd</em>]pyran-1,3-dione, 6-nitro-;Naphthalic anhydride, 4-nitro-;6-Nitro-1<em>H</em>,3<em>H</em>-naphtho[1,8-<em>cd</em>]pyran-1,3-dione;4-Nitronaphthalene-1,8-dicarboxylic anhydride;4-Nitronaphthalic anhydride;4-Nitro-1,8-naphthalic anhydride;5-Nitronaphthalic anhydride;NSC 15356;4-Nitro-<em>N</em>-(3-hydroxyphenyl)-1,8-naphthalimide;4-Nitro-1,8-naphthalimide anhydride",
    "duplicated_cas_no": "",
    "SMILES": "N(=O)(=O)C=1C2=C3C(=CC1)C(=O)OC(=O)C3=CC=C2",
    "meta_data": {
        "InChI": "InChI=1S/C12H5NO5/c14-11-7-3-1-2-6-9(13(16)17)5-4-8(10(6)7)12(15)18-11/h1-5H",
        "InChIKey": null,
        "Canonical SMILES": "O=C1OC(=O)C2=CC=C(C=3C=CC=C1C23)N(=O)=O",
        "Molecular Formula": "C<sub>12</sub>H<sub>5</sub>NO<sub>5</sub>",
        "Molecular Mass": "243.17",
        "Melting Point": "220 °C"
    }
}