{
    "cas_no": "1825-31-6",
    "key_name": "1,4-Dichloronaphthalene",
    "cn_name": "1,4-二氯萘;1,4-二氯萘;",
    "alternate_name": "Naphthalene, 1,4-dichloro-;1,4-Dichloronaphthalene;PCN 5;NSC 90291",
    "duplicated_cas_no": "",
    "SMILES": "ClC=1C2=C(C(Cl)=CC1)C=CC=C2",
    "meta_data": {
        "InChI": "InChI=1S/C10H6Cl2/c11-9-5-6-10(12)8-4-2-1-3-7(8)9/h1-6H",
        "InChIKey": null,
        "Canonical SMILES": "ClC1=CC=C(Cl)C=2C=CC=CC12",
        "Molecular Formula": "C<sub>10</sub>H<sub>6</sub>Cl<sub>2</sub>",
        "Molecular Mass": "197.06",
        "Boiling Point": "288 °C",
        "Melting Point": "67.5 °C"
    }
}