{
    "cas_no": "101-61-1",
    "key_name": "Tetramethyldiaminodiphenylmethane",
    "cn_name": "米氏碱;4,4\"-(对二甲氨基)二苯基甲烷;N,N,N\"N\"-四甲基-4,4\"-二氨基二苯甲烷;4,4\"-亚甲基双(N,N-二甲基苯胺);",
    "alternate_name": "Benzenamine, 4,4′-methylenebis[<em>N</em>,<em>N</em>-dimethyl-;Aniline, 4,4′-methylenebis[<em>N</em>,<em>N</em>-dimethyl-;Aniline, <em>p</em>,<em>p</em>′-methylenebis[<em>N</em>,<em>N</em>-dimethyl-;4,4′-Methylenebis[<em>N</em>,<em>N</em>-dimethylbenzenamine];<em>p</em>,<em>p</em>′-Bis(dimethylamino)diphenylmethane;Bis[<em>p</em>-(<em>N</em>,<em>N</em>-dimethylamino)phenyl]methane;Michler's Base;Michler's hydride;Michler's methane;Tetrabase;4,4′-Bis(dimethylamino)diphenylmethane;<em>N</em>,<em>N</em>,<em>N</em>′,<em>N</em>′-Tetramethyl-<em>p</em>,<em>p</em>′-diaminodiphenylmethane;<em>p</em>,<em>p</em>′-Tetramethyldiaminodiphenylmethane;Bis[4-(<em>N</em>,<em>N</em>-dimethylamino)phenyl]methane;Bis[4-(dimethylamino)phenyl]methane;Bis[<em>p</em>-(dimethylamino)phenyl]methane;<em>N</em>,<em>N</em>,<em>N</em>′,<em>N</em>′-Tetramethyl-4,4′-diaminodiphenylmethane;4,4′-Tetramethyldiaminodiphenylmethane;4,4′-(Dimethylamino)diphenylmethane;Tetramethyldiaminodiphenylmethane;4,4′-Methylenebis[<em>N</em>,<em>N</em>-dimethylaniline];Arnold's base;Reduced Michler's ketone;4,4′-Bis(dimethylaminophenyl)methane;NSC 36782;NSC 4892;NSC 9029;<em>N</em>,<em>N</em>,<em>N</em>′,<em>N</em>-Tetramethyl-4,4′-methylenedianiline;Bis(<em>N</em>,<em>N</em>-Dimethylaminophenyl)methane",
    "duplicated_cas_no": "30135-64-9",
    "SMILES": "C(C1=CC=C(N(C)C)C=C1)C2=CC=C(N(C)C)C=C2",
    "meta_data": {
        "InChI": "InChI=1S/C17H22N2/c1-18(2)16-9-5-14(6-10-16)13-15-7-11-17(12-8-15)19(3)4/h5-12H,13H2,1-4H3",
        "InChIKey": null,
        "Canonical SMILES": "C=1C=C(C=CC1N(C)C)CC2=CC=C(C=C2)N(C)C",
        "Molecular Formula": "C<sub>17</sub>H<sub>22</sub>N<sub>2</sub>",
        "Molecular Mass": "254.37",
        "Boiling Point": "155-157 °C @ Press: 0.1 Torr",
        "Melting Point": "90-91 °C"
    }
}