{
    "cas_no": "349-55-3",
    "key_name": "3-Methoxy-5-(trifluoromethyl)aniline",
    "cn_name": "3-甲氧基-5-三氟甲基苯胺;3-氨基-5-甲氧基三氟甲苯;",
    "alternate_name": "Benzenamine, 3-methoxy-5-(trifluoromethyl)-;<em>m</em>-Anisidine, 5-(trifluoromethyl)-;3-Methoxy-5-(trifluoromethyl)benzenamine;3-Methoxy-5-(trifluoromethyl)aniline;3-(Trifluoromethyl)-5-methoxyaniline;5-Methoxy-3-(trifluoromethyl)aniline;(3-Methoxy-5-trifluoromethylphenyl)amine;5-Methoxy-3-trifluoromethylbenzenamine;3-(Methyloxy)-5-(trifluoromethyl)aniline",
    "duplicated_cas_no": "853767-14-3",
    "SMILES": "C(F)(F)(F)C1=CC(OC)=CC(N)=C1",
    "meta_data": {
        "InChI": "InChI=1S/C8H8F3NO/c1-13-7-3-5(8(9,10)11)2-6(12)4-7/h2-4H,12H2,1H3",
        "InChIKey": null,
        "Canonical SMILES": "FC(F)(F)C=1C=C(OC)C=C(N)C1",
        "Molecular Formula": "C<sub>8</sub>H<sub>8</sub>F<sub>3</sub>NO",
        "Molecular Mass": "191.15",
        "Melting Point": "151 °C"
    }
}