{
    "cas_no": "109-68-2",
    "key_name": "2-Pentene",
    "cn_name": "2-戊烯;",
    "alternate_name": "2-Pentene;β-<em>n</em>-Amylene;<em>sym</em>-Methylethylethylene;1-Methyl-2-ethylethylene;3-Pentene;β-Amylene;NSC 7894",
    "duplicated_cas_no": "",
    "SMILES": "C(CC)=CC",
    "meta_data": {
        "InChI": "InChI=1S/C5H10/c1-3-5-4-2/h3,5H,4H2,1-2H3",
        "InChIKey": null,
        "Canonical SMILES": "C(=CCC)C",
        "Molecular Formula": "C<sub>5</sub>H<sub>10</sub>",
        "Molecular Mass": "70.13",
        "Boiling Point": "37 °C",
        "Melting Point": "-147 °C",
        "Density": "0.6595 g/cm³ @ Temp: 11 °C"
    }
}