{
    "cas_no": "553-72-0",
    "key_name": "Zinc benzoate",
    "cn_name": "苯甲酸锌盐;",
    "alternate_name": "Benzoic acid, zinc salt (2:1);Benzoic acid, zinc salt;Zinc benzoate;Zinc dibenzoate;Z 00160",
    "duplicated_cas_no": "33636-59-8",
    "SMILES": "C(O)(=O)C1=CC=CC=C1.[Zn]",
    "meta_data": {
        "InChI": "InChI=1S/C7H6O2.Zn/c8-7(9)6-4-2-1-3-5-6;/h1-5H,(H,8,9);",
        "InChIKey": null,
        "Canonical SMILES": "[Zn].O=C(O)C=1C=CC=CC1",
        "Molecular Formula": "C<sub>7</sub>H<sub>6</sub>O<sub>2</sub>.<sup>1</sup>/<sub>2</sub>Zn",
        "Molecular Mass": "",
        "Melting Point": "313.9-316.2 °C"
    }
}