{
    "cas_no": "21888-98-2",
    "key_name": "Dexetimide",
    "cn_name": null,
    "alternate_name": "[3,4′-Bipiperidine]-2,6-dione, 3-phenyl-1′-(phenylmethyl)-, (3<em>S</em>)-;[3,4′-Bipiperidine]-2,6-dione, 3-phenyl-1′-(phenylmethyl)-, (<em>S</em>)-;Glutarimide, 2-(1-benzyl-4-piperidyl)-2-phenyl-, (<em>S</em>)-(+)-;(3<em>S</em>)-3-Phenyl-1′-(phenylmethyl)[3,4′-bipiperidine]-2,6-dione;Dexetimide;Dexbenzetimide;(+)-2-(1-Benzyl-4-piperidyl)-2-phenylglutarimide;(+)-Benzetimide;(<em>S</em>)-(+)-Dexetimide",
    "duplicated_cas_no": "",
    "SMILES": "O=C1[C@@](CCC(=O)N1)(C2CCN(CC3=CC=CC=C3)CC2)C4=CC=CC=C4",
    "meta_data": {
        "InChI": "InChI=1S/C23H26N2O2/c26-21-11-14-23(22(27)24-21,19-9-5-2-6-10-19)20-12-15-25(16-13-20)17-18-7-3-1-4-8-18/h1-10,20H,11-17H2,(H,24,26,27)/t23-/m1/s1",
        "InChIKey": null,
        "Canonical SMILES": "O=C1NC(=O)C(C=2C=CC=CC2)(CC1)C3CCN(CC=4C=CC=CC4)CC3",
        "Molecular Formula": "C<sub>23</sub>H<sub>26</sub>N<sub>2</sub>O<sub>2</sub>",
        "Molecular Mass": "362.46",
        "Melting Point": "181-183 °C"
    }
}