{
    "cas_no": "104612-36-4",
    "key_name": "5-Bromo-1,2-dihydro-2-oxo-3-pyridinecarboxylic acid",
    "cn_name": "5-溴-2-羟基烟酸;",
    "alternate_name": "3-Pyridinecarboxylic acid, 5-bromo-1,2-dihydro-2-oxo-;5-Bromo-1,2-dihydro-2-oxo-3-pyridinecarboxylic acid;5-Bromo-2-hydroxy-3-pyridinecarboxylic acid;5-Bromo-2-hydroxynicotinic acid;2-Hydroxy-5-bromonicotinic acid;5-Bromo-2-oxo-1,2-dihydropyridine-3-carboxylic acid",
    "duplicated_cas_no": "",
    "SMILES": "C(O)(=O)C=1C(=O)NC=C(Br)C1",
    "meta_data": {
        "InChI": "InChI=1S/C6H4BrNO3/c7-3-1-4(6(10)11)5(9)8-2-3/h1-2H,(H,8,9)(H,10,11)",
        "InChIKey": null,
        "Canonical SMILES": "O=C(O)C1=CC(Br)=CNC1=O",
        "Molecular Formula": "C<sub>6</sub>H<sub>4</sub>BrNO<sub>3</sub>",
        "Molecular Mass": "218.00",
        "Melting Point": "245 °C"
    }
}