{
    "cas_no": "50709-33-6",
    "key_name": "2-Bromophenylhydrazine hydrochloride",
    "cn_name": "2-溴苯肼盐酸盐;",
    "alternate_name": "Hydrazine, (2-bromophenyl)-, hydrochloride (1:1);Hydrazine, (2-bromophenyl)-, monohydrochloride;Hydrazine, (<em>o</em>-bromophenyl)-, hydrochloride;2-Bromophenylhydrazine hydrochloride",
    "duplicated_cas_no": "",
    "SMILES": "N(N)C1=C(Br)C=CC=C1.Cl",
    "meta_data": {
        "InChI": "InChI=1S/C6H7BrN2.ClH/c7-5-3-1-2-4-6(5)9-8;/h1-4,9H,8H2;1H",
        "InChIKey": null,
        "Canonical SMILES": "Cl.BrC=1C=CC=CC1NN",
        "Molecular Formula": "C<sub>6</sub>H<sub>7</sub>BrN<sub>2</sub>.ClH",
        "Molecular Mass": "",
        "Melting Point": "196-198 °C (decomp)"
    }
}