{
    "cas_no": "3401-74-9",
    "key_name": "Dilauryldimethylammonium chloride",
    "cn_name": "双十二烷基二甲基氯化铵;",
    "alternate_name": "1-Dodecanaminium, <em>N</em>-dodecyl-<em>N</em>,<em>N</em>-dimethyl-, chloride (1:1);Ammonium, didodecyldimethyl-, chloride;1-Dodecanaminium, <em>N</em>-dodecyl-<em>N</em>,<em>N</em>-dimethyl-, chloride;Didodecyldimethylammonium chloride;Dimethyldilaurylammonium chloride;Isothan DL;Aliquat 204;Dilauryldimethylammonium chloride;Isothan DL 1;Dimethyldidodecylammonium chloride;Quaternium 47;AQ 212;Quartamin D 24E",
    "duplicated_cas_no": "942915-51-7",
    "SMILES": "[N+](CCCCCCCCCCCC)(CCCCCCCCCCCC)(C)C.[Cl-]",
    "meta_data": {
        "InChI": "InChI=1S/C26H56N.ClH/c1-5-7-9-11-13-15-17-19-21-23-25-27(3,4)26-24-22-20-18-16-14-12-10-8-6-2;/h5-26H2,1-4H3;1H/q+1;/p-1",
        "InChIKey": null,
        "Canonical SMILES": "[Cl-].CCCCCCCCCCCC[N+](C)(C)CCCCCCCCCCCC",
        "Molecular Formula": "C<sub>26</sub>H<sub>56</sub>N.Cl",
        "Molecular Mass": "",
        "Melting Point": "175 °C"
    }
}