{
    "cas_no": "131-58-8",
    "key_name": "2-Methylbenzophenone",
    "cn_name": "2-甲基二苯甲酮;",
    "alternate_name": "Methanone, (2-methylphenyl)phenyl-;Benzophenone, 2-methyl-;(2-Methylphenyl)phenylmethanone;<em>o</em>-Methylbenzophenone;<em>o</em>-Tolyl phenyl ketone;2-Methylbenzophenone;Phenyl <em>o</em>-tolyl ketone;<em>o</em>-Benzoyltoluene;2-Methylphenyl phenyl ketone;Phenyl 2-methylphenyl ketone;Phenyl 2-tolyl ketone;Phenyl(2-tolyl)methanone;NSC 67362;(Phenyl)(<em>o</em>-tolyl)methanone",
    "duplicated_cas_no": "",
    "SMILES": "C(=O)(C1=C(C)C=CC=C1)C2=CC=CC=C2",
    "meta_data": {
        "InChI": "InChI=1S/C14H12O/c1-11-7-5-6-10-13(11)14(15)12-8-3-2-4-9-12/h2-10H,1H3",
        "InChIKey": null,
        "Canonical SMILES": "O=C(C=1C=CC=CC1)C=2C=CC=CC2C",
        "Molecular Formula": "C<sub>14</sub>H<sub>12</sub>O",
        "Molecular Mass": "196.24",
        "Boiling Point": "308 °C",
        "Melting Point": "&lt;-18 °C",
        "Density": "1.1098 g/cm³ @ Temp: 20 °C"
    }
}