{
    "cas_no": "13038-22-7",
    "key_name": "8-Nonen-1-ol, 1-acetate",
    "cn_name": "壬烯醋酸酯;",
    "alternate_name": "8-Nonen-1-ol, 1-acetate;8-Nonen-1-ol, acetate;8-Nonen-1-yl acetate;8-Nonenyl acetate",
    "duplicated_cas_no": "",
    "SMILES": "C(CCCCC=C)CCOC(C)=O",
    "meta_data": {
        "InChI": "InChI=1S/C11H20O2/c1-3-4-5-6-7-8-9-10-13-11(2)12/h3H,1,4-10H2,2H3",
        "InChIKey": null,
        "Canonical SMILES": "O=C(OCCCCCCCC=C)C",
        "Molecular Formula": "C<sub>11</sub>H<sub>20</sub>O<sub>2</sub>",
        "Molecular Mass": "184.28",
        "Boiling Point": "138-140 °C @ Press: 50 Torr"
    }
}