{
    "cas_no": "7730-20-3",
    "key_name": "6-Fluorotryptophan",
    "cn_name": null,
    "alternate_name": "Tryptophan, 6-fluoro-;Tryptophan, 6-fluoro-, <span class=\"text-smallcaps\">DL</span>-;<span class=\"text-smallcaps\">DL</span>-Tryptophan, 6-fluoro-;6-Fluorotryptophan;<span class=\"text-smallcaps\">DL</span>-6-Fluorotryptophan;<span class=\"text-smallcaps\">DL</span>-6-Fluorotryptophane;6-Fluoro-<span class=\"text-smallcaps\">DL</span>-tryptophan;(±)-6-Fluorotryptophan;NSC 9364;2-Amino-3-(6-fluoro-1<em>H</em>-indol-3-yl)propanoic acid",
    "duplicated_cas_no": "343-92-0",
    "SMILES": "C(C(C(O)=O)N)C=1C=2C(NC1)=CC(F)=CC2",
    "meta_data": {
        "InChI": "InChI=1S/C11H11FN2O2/c12-7-1-2-8-6(3-9(13)11(15)16)5-14-10(8)4-7/h1-2,4-5,9,14H,3,13H2,(H,15,16)",
        "InChIKey": null,
        "Canonical SMILES": "O=C(O)C(N)CC1=CNC=2C=C(F)C=CC21",
        "Molecular Formula": "C<sub>11</sub>H<sub>11</sub>FN<sub>2</sub>O<sub>2</sub>",
        "Molecular Mass": "222.22",
        "Melting Point": "255 °C"
    }
}