{
    "cas_no": "2243-54-1",
    "key_name": "2-Naphthyl isocyanate",
    "cn_name": "2-萘基异氰酸酯;2-异氰酸合萘;异氰酸-β-萘酯;2-萘基异氰酸酯;异氰酸-2-萘酸酯;異氰酸酯;異氰酸Α-萘酯;Β-;",
    "alternate_name": "Naphthalene, 2-isocyanato-;2-Isocyanatonaphthalene;2-Naphthyl isocyanate;β-Naphthyl isocyanate;(Naphthalen-2-yl)isocyanate;NSC 5529",
    "duplicated_cas_no": "",
    "SMILES": "N(=C=O)C1=CC2=C(C=C1)C=CC=C2",
    "meta_data": {
        "InChI": "InChI=1S/C11H7NO/c13-8-12-11-6-5-9-3-1-2-4-10(9)7-11/h1-7H",
        "InChIKey": null,
        "Canonical SMILES": "O=C=NC=1C=CC=2C=CC=CC2C1",
        "Molecular Formula": "C<sub>11</sub>H<sub>7</sub>NO",
        "Molecular Mass": "169.18",
        "Boiling Point": "144 °C @ Press: 14 Torr",
        "Melting Point": "56 °C"
    }
}