{
    "cas_no": "647-12-1",
    "key_name": "2,2,3,3,4,4,5,5,6,6,7,7,8,8,8-Pentadecafluorooctanenitrile",
    "cn_name": "全氟辛腈;",
    "alternate_name": "Octanenitrile, 2,2,3,3,4,4,5,5,6,6,7,7,8,8,8-pentadecafluoro-;Octanenitrile, pentadecafluoro-;2,2,3,3,4,4,5,5,6,6,7,7,8,8,8-Pentadecafluorooctanenitrile;Perfluorooctanonitrile;Perfluorooctanenitrile;NSC 71019",
    "duplicated_cas_no": "",
    "SMILES": "C(C(C(C(C#N)(F)F)(F)F)(F)F)(C(C(C(F)(F)F)(F)F)(F)F)(F)F",
    "meta_data": {
        "InChI": "InChI=1S/C8F15N/c9-2(10,1-24)3(11,12)4(13,14)5(15,16)6(17,18)7(19,20)8(21,22)23",
        "InChIKey": null,
        "Canonical SMILES": "N#CC(F)(F)C(F)(F)C(F)(F)C(F)(F)C(F)(F)C(F)(F)C(F)(F)F",
        "Molecular Formula": "C<sub>8</sub>F<sub>15</sub>N",
        "Molecular Mass": "395.07",
        "Boiling Point": "103-104 °C"
    }
}