{
    "cas_no": "22940-86-9",
    "key_name": "1-(3,5-Dimethyl-2-furanyl)ethanone",
    "cn_name": null,
    "alternate_name": "Ethanone, 1-(3,5-dimethyl-2-furanyl)-;Ketone, 3,5-dimethyl-2-furyl methyl;1-(3,5-Dimethyl-2-furanyl)ethanone;2-Acetyl-3,5-dimethylfuran;1-(3,5-Dimethylfuran-2-yl)ethan-1-one",
    "duplicated_cas_no": "",
    "SMILES": "C(C)(=O)C=1OC(C)=CC1C",
    "meta_data": {
        "InChI": "InChI=1S/C8H10O2/c1-5-4-6(2)10-8(5)7(3)9/h4H,1-3H3",
        "InChIKey": null,
        "Canonical SMILES": "O=C(C=1OC(=CC1C)C)C",
        "Molecular Formula": "C<sub>8</sub>H<sub>10</sub>O<sub>2</sub>",
        "Molecular Mass": "138.16",
        "Boiling Point": "195 °C @ Press: 760 Torr",
        "Melting Point": "18 °C",
        "Density": "1.035 g/cm³ @ Temp: 20 °C"
    }
}