{
    "cas_no": "68858-20-8",
    "key_name": "FMOC-<span class=\"text-smallcaps\">L</span>-valine",
    "cn_name": null,
    "alternate_name": "<span class=\"text-smallcaps\">L</span>-Valine, <em>N</em>-[(9<em>H</em>-fluoren-9-ylmethoxy)carbonyl]-;<em>N</em>-[(9<em>H</em>-Fluoren-9-ylmethoxy)carbonyl]-<span class=\"text-smallcaps\">L</span>-valine;<em>N</em>-(9-Fluorenylmethoxycarbonyl)-<span class=\"text-smallcaps\">L</span>-valine;<em>N</em>-(9-Fluorenylmethoxycarbonyl)valine;(9-Fluorenylmethoxycarbonyl)valine;FMOC-<span class=\"text-smallcaps\">L</span>-valine;(<em>S</em>)-<em>N</em>-Fmoc-valine;Fmoc-valine;NSC 334304;125: PN: WO2004099237 PAGE: 36 claimed protein;912: PN: WO2006135786 PAGE: 59 claimed protein;221: PN: US20070042401 PAGE: 29 claimed protein;(<em>S</em>)-2-(9<em>H</em>-Fluoren-9-ylmethoxycarbonylamino)-3-methylbutanoic acid;(2<em>S</em>)-2-[[[(9<em>H</em>-Fluoren-9-yl)methoxy]carbonyl]amino]-3-methylbutanoic acid;Fmoc-L-Val-OH",
    "duplicated_cas_no": "725247-19-8",
    "SMILES": "C(OC(N[C@@H](C(C)C)C(O)=O)=O)C1C=2C(C=3C1=CC=CC3)=CC=CC2",
    "meta_data": {
        "InChI": "InChI=1S/C20H21NO4/c1-12(2)18(19(22)23)21-20(24)25-11-17-15-9-5-3-7-13(15)14-8-4-6-10-16(14)17/h3-10,12,17-18H,11H2,1-2H3,(H,21,24)(H,22,23)/t18-/m0/s1",
        "InChIKey": null,
        "Canonical SMILES": "O=C(OCC1C=2C=CC=CC2C=3C=CC=CC31)NC(C(=O)O)C(C)C",
        "Molecular Formula": "C<sub>20</sub>H<sub>21</sub>NO<sub>4</sub>",
        "Molecular Mass": "339.39",
        "Melting Point": "144-145 °C (decomp)"
    }
}