{
    "cas_no": "586-77-6",
    "key_name": "4-Bromo-<em>N</em>′,<em>N</em>′-dimethylaniline",
    "cn_name": "4-溴-N,N-二甲基苯胺;",
    "alternate_name": "Benzenamine, 4-bromo-<em>N</em>,<em>N</em>-dimethyl-;Aniline, <em>p</em>-bromo-<em>N</em>,<em>N</em>-dimethyl-;4-Bromo-<em>N</em>,<em>N</em>-dimethylbenzenamine;1-Bromo-4-(dimethylamino)benzene;4-Bromo-<em>N</em>,<em>N</em>-dimethylaniline;<em>p</em>-Bromo-<em>N</em>,<em>N</em>-dimethylaniline;4-Dimethylaminobromobenzene;<em>p</em>-Bromo(dimethylamino)benzene;<em>p</em>-Dimethylaminobromobenzene;<em>p</em>-(Dimethylamino)phenyl bromide;<em>N</em>,<em>N</em>-Dimethyl-<em>p</em>-bromoaniline;<em>p</em>-<em>N</em>,<em>N</em>-Dimethylaminobromobenzene;<em>N</em>,<em>N</em>-Dimethyl-4-bromoaniline;4-(Dimethylamino)phenyl bromide;4-Dimethylamino-1-bromobenzene;(4-Bromophenyl)dimethylamine;NSC 8056;4-Bromo-<em>N</em>′,<em>N</em>′-dimethylaniline",
    "duplicated_cas_no": "508191-89-7",
    "SMILES": "N(C)(C)C1=CC=C(Br)C=C1",
    "meta_data": {
        "InChI": "InChI=1S/C8H10BrN/c1-10(2)8-5-3-7(9)4-6-8/h3-6H,1-2H3",
        "InChIKey": null,
        "Canonical SMILES": "BrC1=CC=C(C=C1)N(C)C",
        "Molecular Formula": "C<sub>8</sub>H<sub>10</sub>BrN",
        "Molecular Mass": "200.08",
        "Boiling Point": "264 °C",
        "Melting Point": "55 °C"
    }
}