{
    "cas_no": "463-18-3",
    "key_name": "1-Fluorononane",
    "cn_name": "1-氟壬烷;",
    "alternate_name": "Nonane, 1-fluoro-;1-Fluorononane;Nonyl fluoride",
    "duplicated_cas_no": "",
    "SMILES": "C(CCCCF)CCCC",
    "meta_data": {
        "InChI": "InChI=1S/C9H19F/c1-2-3-4-5-6-7-8-9-10/h2-9H2,1H3",
        "InChIKey": null,
        "Canonical SMILES": "FCCCCCCCCC",
        "Molecular Formula": "C<sub>9</sub>H<sub>19</sub>F",
        "Molecular Mass": "146.25",
        "Boiling Point": "167.5 °C",
        "Melting Point": "1 °C"
    }
}