{
    "cas_no": "873054-44-5",
    "key_name": "Ivacaftor",
    "cn_name": null,
    "alternate_name": "3-Quinolinecarboxamide, <em>N</em>-[2,4-bis(1,1-dimethylethyl)-5-hydroxyphenyl]-1,4-dihydro-4-oxo-;<em>N</em>-[2,4-Bis(1,1-dimethylethyl)-5-hydroxyphenyl]-1,4-dihydro-4-oxo-3-quinolinecarboxamide;VX 770;Ivacaftor;Kalydeco;<em>N</em>-(2,4-Di-<em>tert</em>-butyl-5-hydroxyphenyl)-4-oxo-1,4-dihydroquinoline-3-carboxamide;<em>N</em>-[2,4-Bis(1,1-dimethylethyl)-5-hydroxyphenyl]-1,4-dihydro-4-oxoquinoline-3-carboxamide;<em>N</em>-[2,4-Di(<em>tert</em>-butyl)-5-hydroxyphenyl]-4-oxo-1<em>H</em>,4<em>H</em>-quinoline-3-carboxamide;<em>N</em>-(5-Hydroxy-2,4-di-<em>tert</em>-butylphenyl)-4-oxo-1<em>H</em>-quinoline-3-carboxamide",
    "duplicated_cas_no": "1174930-71-2",
    "SMILES": "C(C)(C)(C)C1=C(NC(=O)C=2C(=O)C=3C(NC2)=CC=CC3)C=C(O)C(C(C)(C)C)=C1",
    "meta_data": {
        "InChI": "InChI=1S/C24H28N2O3/c1-23(2,3)16-11-17(24(4,5)6)20(27)12-19(16)26-22(29)15-13-25-18-10-8-7-9-14(18)21(15)28/h7-13,27H,1-6H3,(H,25,28)(H,26,29)",
        "InChIKey": null,
        "Canonical SMILES": "O=C(NC1=CC(O)=C(C=C1C(C)(C)C)C(C)(C)C)C2=CNC=3C=CC=CC3C2=O",
        "Molecular Formula": "C<sub>24</sub>H<sub>28</sub>N<sub>2</sub>O<sub>3</sub>",
        "Molecular Mass": "392.49",
        "Melting Point": "124-128 °C"
    }
}