{
    "cas_no": "10540-39-3",
    "key_name": "4′-Fluoro[1,1′-biphenyl]-3-carboxylic acid",
    "cn_name": "4-氟-联苯-3-甲酸;",
    "alternate_name": "[1,1′-Biphenyl]-3-carboxylic acid, 4′-fluoro-;3-Biphenylcarboxylic acid, 4′-fluoro-;4′-Fluoro[1,1′-biphenyl]-3-carboxylic acid;3-(4-Fluorophenyl)benzoic acid;4′-Fluorobiphenyl-3-carboxylic acid",
    "duplicated_cas_no": "",
    "SMILES": "C(O)(=O)C=1C=C(C=CC1)C2=CC=C(F)C=C2",
    "meta_data": {
        "InChI": "InChI=1S/C13H9FO2/c14-12-6-4-9(5-7-12)10-2-1-3-11(8-10)13(15)16/h1-8H,(H,15,16)",
        "InChIKey": null,
        "Canonical SMILES": "O=C(O)C=1C=CC=C(C1)C=2C=CC(F)=CC2",
        "Molecular Formula": "C<sub>13</sub>H<sub>9</sub>FO<sub>2</sub>",
        "Molecular Mass": "216.21",
        "Melting Point": "298-299 °C"
    }
}