{
    "cas_no": "82654-98-6",
    "key_name": "Vanillyl butyl ether",
    "cn_name": null,
    "alternate_name": "Phenol, 4-(butoxymethyl)-2-methoxy-;4-(Butoxymethyl)-2-methoxyphenol;Vanillyl butyl ether;Hotact VBE;Vanillyl alcohol butyl ether;Sensehot",
    "duplicated_cas_no": "",
    "SMILES": "C(OCCCC)C1=CC(OC)=C(O)C=C1",
    "meta_data": {
        "InChI": "InChI=1S/C12H18O3/c1-3-4-7-15-9-10-5-6-11(13)12(8-10)14-2/h5-6,8,13H,3-4,7,9H2,1-2H3",
        "InChIKey": null,
        "Canonical SMILES": "OC1=CC=C(C=C1OC)COCCCC",
        "Molecular Formula": "C<sub>12</sub>H<sub>18</sub>O<sub>3</sub>",
        "Molecular Mass": "210.27",
        "Boiling Point": "240-241 °C"
    }
}