{
    "cas_no": "33467-73-1",
    "key_name": "<em>cis</em>-3-Hexenyl formate",
    "cn_name": "顺式-3-己烯醇甲酸酯;甲酸叶醇酯;",
    "alternate_name": "3-Hexen-1-ol, 1-formate, (3<em>Z</em>)-;3-Hexen-1-ol, formate, (<em>Z</em>)-;3-Hexen-1-ol, formate, (3<em>Z</em>)-;<em>cis</em>-3-Hexenyl formate;(<em>Z</em>)-3-Hexen-1-yl formate;(<em>Z</em>)-3-Hexenyl formate;(Z)-Hex-3-enyl formate;(3<em>Z</em>)-3-Hexenyl formate",
    "duplicated_cas_no": "",
    "SMILES": "C(/C=C\\CC)COC=O",
    "meta_data": {
        "InChI": "InChI=1S/C7H12O2/c1-2-3-4-5-6-9-7-8/h3-4,7H,2,5-6H2,1H3/b4-3-",
        "InChIKey": null,
        "Canonical SMILES": "O=COCCC=CCC",
        "Molecular Formula": "C<sub>7</sub>H<sub>12</sub>O<sub>2</sub>",
        "Molecular Mass": "128.17",
        "Boiling Point": "155 °C",
        "Density": "0.90915 g/cm³ @ Temp: 20.00 °C"
    }
}