{
    "cas_no": "629-66-3",
    "key_name": "2-Nonadecanone",
    "cn_name": "2-十九烷酮;甲基十七烷基甲酮;",
    "alternate_name": "2-Nonadecanone;Methyl heptadecyl ketone;2-Oxononadecane;Heptadecyl methyl ketone",
    "duplicated_cas_no": "",
    "SMILES": "C(CCCCCCCCCCC)CCCCCC(C)=O",
    "meta_data": {
        "InChI": "InChI=1S/C19H38O/c1-3-4-5-6-7-8-9-10-11-12-13-14-15-16-17-18-19(2)20/h3-18H2,1-2H3",
        "InChIKey": null,
        "Canonical SMILES": "O=C(C)CCCCCCCCCCCCCCCCC",
        "Molecular Formula": "C<sub>19</sub>H<sub>38</sub>O",
        "Molecular Mass": "282.50",
        "Boiling Point": "162 °C @ Press: 1.5 Torr",
        "Melting Point": "57 °C"
    }
}