{
    "cas_no": "26830-95-5",
    "key_name": "4-Methyl-2-nitrobenzonitrile",
    "cn_name": "4-甲基-2-硝基苯腈;4-甲基-2-硝基苯甲腈;",
    "alternate_name": "Benzonitrile, 4-methyl-2-nitro-;<em>p</em>-Tolunitrile, 2-nitro-;4-Methyl-2-nitrobenzonitrile;4-Cyano-3-nitrotoluene;NSC 60828",
    "duplicated_cas_no": "",
    "SMILES": "N(=O)(=O)C1=C(C#N)C=CC(C)=C1",
    "meta_data": {
        "InChI": "InChI=1S/C8H6N2O2/c1-6-2-3-7(5-9)8(4-6)10(11)12/h2-4H,1H3",
        "InChIKey": null,
        "Canonical SMILES": "N#CC1=CC=C(C=C1N(=O)=O)C",
        "Molecular Formula": "C<sub>8</sub>H<sub>6</sub>N<sub>2</sub>O<sub>2</sub>",
        "Molecular Mass": "162.15",
        "Boiling Point": "134-137 °C",
        "Melting Point": "96 °C"
    }
}