{
    "cas_no": "2623-82-7",
    "key_name": "2-Bromooctanoic acid",
    "cn_name": "2-溴正辛酸;",
    "alternate_name": "Octanoic acid, 2-bromo-;2-Bromooctanoic acid;α-Bromooctanoic acid;(±)-2-Bromooctanoic acid;(±)-α-Bromooctanoic acid;2-Bromocaprylic acid",
    "duplicated_cas_no": "70610-87-6",
    "SMILES": "C(CCCCCC)(C(O)=O)Br",
    "meta_data": {
        "InChI": "InChI=1S/C8H15BrO2/c1-2-3-4-5-6-7(9)8(10)11/h7H,2-6H2,1H3,(H,10,11)",
        "InChIKey": null,
        "Canonical SMILES": "O=C(O)C(Br)CCCCCC",
        "Molecular Formula": "C<sub>8</sub>H<sub>15</sub>BrO<sub>2</sub>",
        "Molecular Mass": "223.11",
        "Boiling Point": "118-121 °C @ Press: 0.6 Torr"
    }
}