{
    "cas_no": "4045-29-8",
    "key_name": "3-Methoxypiperidine",
    "cn_name": "3-甲氧基哌啶;",
    "alternate_name": "Piperidine, 3-methoxy-;3-Methoxypiperidine",
    "duplicated_cas_no": "",
    "SMILES": "O(C)C1CCCNC1",
    "meta_data": {
        "InChI": "InChI=1S/C6H13NO/c1-8-6-3-2-4-7-5-6/h6-7H,2-5H2,1H3",
        "InChIKey": null,
        "Canonical SMILES": "O(C)C1CNCCC1",
        "Molecular Formula": "C<sub>6</sub>H<sub>13</sub>NO",
        "Molecular Mass": "115.17",
        "Boiling Point": "159-160 °C @ Press: 748 Torr"
    }
}