{
    "cas_no": "7780-20-3",
    "key_name": "Piperidine, 1-[5-(1,3-benzodioxol-5-yl)-1-oxo-2,4-pentadienyl]-",
    "cn_name": null,
    "alternate_name": "2,4-Pentadien-1-one, 5-(1,3-benzodioxol-5-yl)-1-(1-piperidinyl)-;Piperidine, 1-piperoyl-;Piperidine, 1-[5-(1,3-benzodioxol-5-yl)-1-oxo-2,4-pentadienyl]-;5-(1,3-Benzodioxol-5-yl)-1-(1-piperidinyl)-2,4-pentadien-1-one;NSC 242267",
    "duplicated_cas_no": "",
    "SMILES": "C(=CC=CC(=O)N1CCCCC1)C=2C=C3C(=CC2)OCO3",
    "meta_data": {
        "InChI": "InChI=1S/C17H19NO3/c19-17(18-10-4-1-5-11-18)7-3-2-6-14-8-9-15-16(12-14)21-13-20-15/h2-3,6-9,12H,1,4-5,10-11,13H2",
        "InChIKey": null,
        "Canonical SMILES": "O=C(C=CC=CC1=CC=C2OCOC2=C1)N3CCCCC3",
        "Molecular Formula": "C<sub>17</sub>H<sub>19</sub>NO<sub>3</sub>",
        "Molecular Mass": "285.34",
        "Melting Point": "129 °C"
    }
}