{
    "cas_no": "121-21-1",
    "key_name": "Pyrethrin I",
    "cn_name": null,
    "alternate_name": "Cyclopropanecarboxylic acid, 2,2-dimethyl-3-(2-methyl-1-propen-1-yl)-, (1<em>S</em>)-2-methyl-4-oxo-3-(2<em>Z</em>)-2,4-pentadien-1-yl-2-cyclopenten-1-yl ester, (1<em>R</em>,3<em>R</em>)-;Cyclopropanecarboxylic acid, 2,2-dimethyl-3-(2-methylpropenyl)-, ester with 4-hydroxy-3-methyl-2-(2,4-pentadienyl)-2-cyclopenten-1-one;Pyrethrin 1;Cyclopropanecarboxylic acid, 2,2-dimethyl-3-(2-methyl-1-propenyl)-, 2-methyl-4-oxo-3-(2,4-pentadienyl)-2-cyclopenten-1-yl ester, [1<em>R</em>-[1α[<em>S</em>*(<em>Z</em>)],3β]]-;Cyclopropanecarboxylic acid, 2,2-dimethyl-3-(2-methyl-1-propenyl)-, (1<em>S</em>)-2-methyl-4-oxo-3-(2<em>Z</em>)-2,4-pentadienyl-2-cyclopenten-1-yl ester, (1<em>R</em>,3<em>R</em>)-;Chrysanthemummonocarboxylic acid pyrethrolone ester;Pyrethrin I;(+)-Pyrethronyl (+)-<em>trans</em>-chrysanthemate;Pyrethrin A",
    "duplicated_cas_no": "3903-69-3;39668-01-4",
    "SMILES": "C(O[C@@H]1C(C)=C(C/C=C\\C=C)C(=O)C1)(=O)[C@@H]2[C@@H](C=C(C)C)C2(C)C",
    "meta_data": {
        "InChI": "InChI=1S/C21H28O3/c1-7-8-9-10-15-14(4)18(12-17(15)22)24-20(23)19-16(11-13(2)3)21(19,5)6/h7-9,11,16,18-19H,1,10,12H2,2-6H3/b9-8-/t16-,18+,19+/m1/s1",
        "InChIKey": null,
        "Canonical SMILES": "O=C(OC1C(=C(C(=O)C1)CC=CC=C)C)C2C(C=C(C)C)C2(C)C",
        "Molecular Formula": "C<sub>21</sub>H<sub>28</sub>O<sub>3</sub>",
        "Molecular Mass": "328.45",
        "Boiling Point": "146-150 °C @ Press: 5 x 10<sup>-4</sup> Torr",
        "Density": "1.5192 g/cm³ @ Temp: 18 °C"
    }
}