{
    "cas_no": "970-73-0",
    "key_name": "Gallocatechin",
    "cn_name": null,
    "alternate_name": "2<em>H</em>-1-Benzopyran-3,5,7-triol, 3,4-dihydro-2-(3,4,5-trihydroxyphenyl)-, (2<em>R</em>,3<em>S</em>)-;Gallocatechol;2<em>H</em>-1-Benzopyran-3,5,7-triol, 3,4-dihydro-2-(3,4,5-trihydroxyphenyl)-, (2<em>R</em>-<em>trans</em>)-;Gallocatechol, <em>d</em>-;(2<em>R</em>,3<em>S</em>)-3,4-Dihydro-2-(3,4,5-trihydroxyphenyl)-2<em>H</em>-1-benzopyran-3,5,7-triol;(+)-Gallocatechin;(+)-Gallocatechol;<em>d</em>-Gallocatechin;Gallocatechin;NSC 674038;(2<em>R</em>,3<em>S</em>)-(+)-Gallocatechin;Sunphenon EGC-OP",
    "duplicated_cas_no": "528-54-1;13425-13-3;24987-87-9",
    "SMILES": "O[C@@H]1[C@H](OC=2C(C1)=C(O)C=C(O)C2)C3=CC(O)=C(O)C(O)=C3",
    "meta_data": {
        "InChI": "InChI=1S/C15H14O7/c16-7-3-9(17)8-5-12(20)15(22-13(8)4-7)6-1-10(18)14(21)11(19)2-6/h1-4,12,15-21H,5H2/t12-,15+/m0/s1",
        "InChIKey": null,
        "Canonical SMILES": "OC=1C=C(O)C2=C(OC(C3=CC(O)=C(O)C(O)=C3)C(O)C2)C1",
        "Molecular Formula": "C<sub>15</sub>H<sub>14</sub>O<sub>7</sub>",
        "Molecular Mass": "306.27",
        "Melting Point": "185-190 °C"
    }
}