{
    "cas_no": "102123-74-0",
    "key_name": "<em>N</em>-Boc phenylalanyl chloride",
    "cn_name": "(3S)-3-(叔丁氧羰基)氨基-1-氯-4-苯基-2-丁酮;",
    "alternate_name": "Carbamic acid, <em>N</em>-[(1<em>S</em>)-3-chloro-2-oxo-1-(phenylmethyl)propyl]-, 1,1-dimethylethyl ester;Carbamic acid, [3-chloro-2-oxo-1-(phenylmethyl)propyl]-, 1,1-dimethylethyl ester, (<em>S</em>)-;Carbamic acid, [(1<em>S</em>)-3-chloro-2-oxo-1-(phenylmethyl)propyl]-, 1,1-dimethylethyl ester;(3<em>S</em>)-(-)-3-<em>tert</em>-Butoxycarbonylamino-1-chloro-4-phenyl-2-butanone;(3<em>S</em>)-3-(<em>tert</em>-Butoxycarbonylamino)-1-chloro-4-phenyl-2-butanone;<em>N</em>-Boc phenylalanyl chloride;(3S)-3-(<em>tert</em>-Butoxycarbonyl)amino-1-chloro-4-phenyl-2-butanone;(<em>S</em>)-<em>tert</em>-Butyl (4-chloro-3-oxo-1-phenylbutan-2-yl)carbamate",
    "duplicated_cas_no": "",
    "SMILES": "[C@@H](CC1=CC=CC=C1)(NC(OC(C)(C)C)=O)C(CCl)=O",
    "meta_data": {
        "InChI": "InChI=1S/C15H20ClNO3/c1-15(2,3)20-14(19)17-12(13(18)10-16)9-11-7-5-4-6-8-11/h4-8,12H,9-10H2,1-3H3,(H,17,19)/t12-/m0/s1",
        "InChIKey": null,
        "Canonical SMILES": "O=C(OC(C)(C)C)NC(C(=O)CCl)CC=1C=CC=CC1",
        "Molecular Formula": "C<sub>15</sub>H<sub>20</sub>ClNO<sub>3</sub>",
        "Molecular Mass": "297.78",
        "Melting Point": "103 °C"
    }
}