{
    "cas_no": "95-83-0",
    "key_name": "4-Chloro-1,2-phenylenediamine",
    "cn_name": "4-氯-1,2-苯二胺;4-氯邻苯二胺;1,2-二氨基-4-氯苯;",
    "alternate_name": "1,2-Benzenediamine, 4-chloro-;<em>o</em>-Phenylenediamine, 4-chloro-;4-Chloro-1,2-benzenediamine;C.I. 76015;4-Chloro-1,2-diaminobenzene;Ursol Olive 6G;1,2-Diamino-4-chlorobenzene;4-Chloro-<em>o</em>-phenylenediamine;3-Chloro-1,6-phenylenediamine;4-Chloro-1,2-phenylenediamine;2-Amino-4-chloroaniline;3,4-Diamino-1-chlorobenzene;3,4-Diaminochlorobenzene;4-Chloro-2-aminoaniline;2-Amino-5-chloroaniline;<em>p</em>-Chloro-<em>o</em>-phenylenediamine;2-Amino-4-chlorobenzenamine;5-Chloro-1,2-phenylenediamine;NSC 6157;4-Chlorophenyldiamine;4-Chlorobenzen-1,2-diamine;4-Chlorophenylenediamine;5-Chlorobenzene-1,2-diamine",
    "duplicated_cas_no": "",
    "SMILES": "NC1=C(N)C=CC(Cl)=C1",
    "meta_data": {
        "InChI": "InChI=1S/C6H7ClN2/c7-4-1-2-5(8)6(9)3-4/h1-3H,8-9H2",
        "InChIKey": null,
        "Canonical SMILES": "ClC1=CC=C(N)C(N)=C1",
        "Molecular Formula": "C<sub>6</sub>H<sub>7</sub>ClN<sub>2</sub>",
        "Molecular Mass": "142.59",
        "Boiling Point": "229.3 °C",
        "Melting Point": "76 °C"
    }
}