{
    "cas_no": "506-78-5",
    "key_name": "Iodine cyanide",
    "cn_name": "碘化氰;",
    "alternate_name": "Iodine cyanide (I(CN));Cyanogen iodide;Iodine monocyanide (ICN);Iodine monocyanide;Cyanogen monoiodide;Iodocyanide (ICN);Iodine cyanide",
    "duplicated_cas_no": "",
    "SMILES": "C(I)#N",
    "meta_data": {
        "InChI": "InChI=1S/CIN/c2-1-3",
        "InChIKey": null,
        "Canonical SMILES": "N#CI",
        "Molecular Formula": "CIN",
        "Molecular Mass": "152.92",
        "Melting Point": "148 °C",
        "Density": "2.84 g/cm³ @ Temp: 18 °C"
    }
}