{
    "cas_no": "1416439-08-1",
    "key_name": "Spiro[3.3]heptan-2-amine, hydrochloride (1:1)",
    "cn_name": null,
    "alternate_name": "Spiro[3.3]heptan-2-amine, hydrochloride (1:1);Spiro[3.3]heptan-2-amine hydrochloride",
    "duplicated_cas_no": "",
    "SMILES": "NC1CC2(C1)CCC2.Cl",
    "meta_data": {
        "InChI": "InChI=1S/C7H13N.ClH/c8-6-4-7(5-6)2-1-3-7;/h6H,1-5,8H2;1H",
        "InChIKey": null,
        "Canonical SMILES": "Cl.NC1CC2(CCC2)C1",
        "Molecular Formula": "C<sub>7</sub>H<sub>13</sub>N.ClH",
        "Molecular Mass": "",
        "Melting Point": "236-237 °C"
    }
}