{
    "cas_no": "4547-57-3",
    "key_name": "4-Butoxybenzeneacetic acid",
    "cn_name": null,
    "alternate_name": "Benzeneacetic acid, 4-butoxy-;Acetic acid, (<em>p</em>-butoxyphenyl)-;4-Butoxybenzeneacetic acid;4-<em>n</em>-Butoxybenzeneacetic acid;4-Butoxyphenylacetic acid;(<em>p</em>-Butoxyphenyl)acetic acid;4-<em>n</em>-Butoxyphenylacetic acid;2-(4-Butoxyphenyl)acetic acid",
    "duplicated_cas_no": "",
    "SMILES": "C(C(O)=O)C1=CC=C(OCCCC)C=C1",
    "meta_data": {
        "InChI": "InChI=1S/C12H16O3/c1-2-3-8-15-11-6-4-10(5-7-11)9-12(13)14/h4-7H,2-3,8-9H2,1H3,(H,13,14)",
        "InChIKey": null,
        "Canonical SMILES": "O=C(O)CC1=CC=C(OCCCC)C=C1",
        "Molecular Formula": "C<sub>12</sub>H<sub>16</sub>O<sub>3</sub>",
        "Molecular Mass": "208.25",
        "Boiling Point": "86-87 °C @ Press: 1 Torr",
        "Melting Point": "88.5 °C"
    }
}