{
    "cas_no": "92-89-7",
    "key_name": "4′-Nitro[1,1′-biphenyl]-4-carboxylic acid",
    "cn_name": "4-(4\"-硝基苯基)苯甲酸;",
    "alternate_name": "[1,1′-Biphenyl]-4-carboxylic acid, 4′-nitro-;4-Biphenylcarboxylic acid, 4′-nitro-;4′-Nitro[1,1′-biphenyl]-4-carboxylic acid;4′-Nitrobiphenyl-4-carboxylic acid;4-Nitro-4′-biphenylcarboxylic acid;4-Carboxy-4′-nitrobiphenyl;4-(4-Nitrophenyl)benzoic acid;4′-Nitro-1,1′-biphenyl-4-carboxylic acid;NSC 210796",
    "duplicated_cas_no": "",
    "SMILES": "C(O)(=O)C1=CC=C(C=C1)C2=CC=C(N(=O)=O)C=C2",
    "meta_data": {
        "InChI": "InChI=1S/C13H9NO4/c15-13(16)11-3-1-9(2-4-11)10-5-7-12(8-6-10)14(17)18/h1-8H,(H,15,16)",
        "InChIKey": null,
        "Canonical SMILES": "O=C(O)C=1C=CC(=CC1)C2=CC=C(C=C2)N(=O)=O",
        "Molecular Formula": "C<sub>13</sub>H<sub>9</sub>NO<sub>4</sub>",
        "Molecular Mass": "243.21",
        "Melting Point": "340 °C"
    }
}