{
    "cas_no": "13374-31-7",
    "key_name": "Cyclohexanol, 2-amino-, hydrochloride (1:1), (1<em>R</em>,2<em>R</em>)-",
    "cn_name": null,
    "alternate_name": "Cyclohexanol, 2-amino-, hydrochloride (1:1), (1<em>R</em>,2<em>R</em>)-;Cyclohexanol, 2-amino-, hydrochloride, (1<em>R</em>,2<em>R</em>)-;Cyclohexanol, 2-amino-, hydrochloride, (1<em>R</em>-<em>trans</em>)-;(1<em>R</em>,2<em>R</em>)-2-Aminocyclohexanol hydrochloride (1:1);(1<em>R</em>,2<em>R</em>)-2-Aminocyclohexanol hydrochloride",
    "duplicated_cas_no": "",
    "SMILES": "N[C@H]1[C@H](O)CCCC1.Cl",
    "meta_data": {
        "InChI": "InChI=1S/C6H13NO.ClH/c7-5-3-1-2-4-6(5)8;/h5-6,8H,1-4,7H2;1H/t5-,6-;/m1./s1",
        "InChIKey": null,
        "Canonical SMILES": "Cl.OC1CCCCC1N",
        "Molecular Formula": "C<sub>6</sub>H<sub>13</sub>NO.ClH",
        "Molecular Mass": "",
        "Melting Point": "176-177 °C"
    }
}