{
    "cas_no": "6117-91-5",
    "key_name": "2-Buten-1-ol",
    "cn_name": "巴豆醇;丁烯醇;2-丁烯-1-醇;2-丁烯醇;",
    "alternate_name": "2-Buten-1-ol;Crotonyl alcohol;Crotyl alcohol;2-Butenyl alcohol;3-Methylallyl alcohol;1-Hydroxy-2-butene;Crotonol;NSC 17480",
    "duplicated_cas_no": "",
    "SMILES": "C(=CC)CO",
    "meta_data": {
        "InChI": "InChI=1S/C4H8O/c1-2-3-4-5/h2-3,5H,4H2,1H3",
        "InChIKey": null,
        "Canonical SMILES": "OCC=CC",
        "Molecular Formula": "C<sub>4</sub>H<sub>8</sub>O",
        "Molecular Mass": "72.11",
        "Boiling Point": "119-120 °C @ Press: 759 Torr"
    }
}