{
    "cas_no": "1632-76-4",
    "key_name": "3-Methylpyridazine",
    "cn_name": "3-甲基哒嗪;",
    "alternate_name": "Pyridazine, 3-methyl-;3-Methylpyridazine;3-Methyl-1,2-diazine;NSC 96966",
    "duplicated_cas_no": "",
    "SMILES": "CC1=CC=CN=N1",
    "meta_data": {
        "InChI": "InChI=1S/C5H6N2/c1-5-3-2-4-6-7-5/h2-4H,1H3",
        "InChIKey": null,
        "Canonical SMILES": "N=1N=C(C=CC1)C",
        "Molecular Formula": "C<sub>5</sub>H<sub>6</sub>N<sub>2</sub>",
        "Molecular Mass": "94.11",
        "Boiling Point": "214 °C",
        "Melting Point": "184 °C"
    }
}