{
    "cas_no": "18524-94-2",
    "key_name": "(-)-Loganin",
    "cn_name": "马钱子苷;马钱苷;番木鳖苷;",
    "alternate_name": "Cyclopenta[<em>c</em>]pyran-4-carboxylic acid, 1-(β-<span class=\"text-smallcaps\">D</span>-glucopyranosyloxy)-1,4a,5,6,7,7a-hexahydro-6-hydroxy-7-methyl-, methyl ester, (1<em>S</em>,4a<em>S</em>,6<em>S</em>,7<em>R</em>,7a<em>S</em>)-;Loganin;Cyclopenta[<em>c</em>]pyran-4-carboxylic acid, 1-(β-<span class=\"text-smallcaps\">D</span>-glucopyranosyloxy)-1,4a,5,6,7,7a-hexahydro-6-hydroxy-7-methyl-, methyl ester, [1<em>S</em>-(1α,4aα,6α,7α,7aα)]-;Cyclopenta[<em>c</em>]pyran-4-carboxylic acid, 1-(β-<span class=\"text-smallcaps\">D</span>-glucopyranosyloxy)-1,4a,5,6,7,7a-hexahydro-6-hydroxy-7-methyl-, methyl ester;(1<em>S</em>)-1α-(β-<span class=\"text-smallcaps\">D</span>-Glucopyranosyloxy)-1,4aα,5,6,7,7aα-hexahydro-6α-hydroxy-7α-methylcyclopenta[<em>c</em>]pyran-4-carboxylic acid methyl ester;7-Hydroxy-6-desoxyverbenalin;Loganoside;(-)-Loganin;NSC 606403",
    "duplicated_cas_no": "1416-12-2;28629-68-7",
    "SMILES": "O([C@H]1[C@]2([C@@](C(C(OC)=O)=CO1)(C[C@H](O)[C@@H]2C)[H])[H])[C@@H]3O[C@H](CO)[C@@H](O)[C@H](O)[C@H]3O",
    "meta_data": {
        "InChI": "InChI=1S/C17H26O10/c1-6-9(19)3-7-8(15(23)24-2)5-25-16(11(6)7)27-17-14(22)13(21)12(20)10(4-18)26-17/h5-7,9-14,16-22H,3-4H2,1-2H3/t6-,7+,9-,10+,11+,12+,13-,14+,16-,17-/m0/s1",
        "InChIKey": null,
        "Canonical SMILES": "O=C(OC)C1=COC(OC2OC(CO)C(O)C(O)C2O)C3C1CC(O)C3C",
        "Molecular Formula": "C<sub>17</sub>H<sub>26</sub>O<sub>10</sub>",
        "Molecular Mass": "390.38",
        "Melting Point": "223 °C"
    }
}