{
    "cas_no": "51-61-6",
    "key_name": "Dopamine",
    "cn_name": "多巴胺;2-(3,4-二羟基苯基)乙胺;",
    "alternate_name": "1,2-Benzenediol, 4-(2-aminoethyl)-;Pyrocatechol, 4-(2-aminoethyl)-;4-(2-Aminoethyl)-1,2-benzenediol;4-(2-Aminoethyl)pyrocatechol;DA;3,4-Dihydroxyphenethylamine;3,4-Dihydroxyphenylethylamine;Dopamine;3-Hydroxytyramine;Oxytyramine;2-(3,4-Dihydroxyphenyl)ethylamine;α-(3,4-Dihydroxyphenyl)-β-aminoethane;Dopamin;Hydroxytyramin;4-(2-Aminoethyl)catechol;Dophamine;NSC 173182;2-(3,4-Dihydroxyphenyl)-1-ethanamine;Duobaan;ZL 01310021;MeSH ID: D004298",
    "duplicated_cas_no": "",
    "SMILES": "C(CN)C1=CC(O)=C(O)C=C1",
    "meta_data": {
        "InChI": "InChI=1S/C8H11NO2/c9-4-3-6-1-2-7(10)8(11)5-6/h1-2,5,10-11H,3-4,9H2",
        "InChIKey": null,
        "Canonical SMILES": "OC1=CC=C(C=C1O)CCN",
        "Molecular Formula": "C<sub>8</sub>H<sub>11</sub>NO<sub>2</sub>",
        "Molecular Mass": "153.18",
        "Boiling Point": "227 °C",
        "Melting Point": "128 °C"
    }
}