{
    "cas_no": "14425-64-0",
    "key_name": "1-(2-Bromoethyl)-4-methoxybenzene",
    "cn_name": null,
    "alternate_name": "Benzene, 1-(2-bromoethyl)-4-methoxy-;Anisole, <em>p</em>-(2-bromoethyl)-;1-(2-Bromoethyl)-4-methoxybenzene;<em>p</em>-Methoxyphenethyl bromide;4-Methoxyphenethyl bromide;<em>p</em>-(2-Bromoethyl)anisole;<em>p</em>-Methoxyphenylethyl bromide;1-Bromo-2-(4-methoxyphenyl)ethane;2-(4-Methoxyphenyl)ethyl bromide;NSC 211474",
    "duplicated_cas_no": "",
    "SMILES": "C(CBr)C1=CC=C(OC)C=C1",
    "meta_data": {
        "InChI": "InChI=1S/C9H11BrO/c1-11-9-4-2-8(3-5-9)6-7-10/h2-5H,6-7H2,1H3",
        "InChIKey": null,
        "Canonical SMILES": "BrCCC1=CC=C(OC)C=C1",
        "Molecular Formula": "C<sub>9</sub>H<sub>11</sub>BrO",
        "Molecular Mass": "215.09",
        "Boiling Point": "130-131 °C @ Press: 11 Torr",
        "Melting Point": "160-200 °C",
        "Density": "1.3872 g/cm³ @ Temp: 27 °C"
    }
}