{
    "cas_no": "873-83-6",
    "key_name": "6-Aminouracil",
    "cn_name": "4-氨基-2,6-二羟基嘧啶;6-氨基尿嘧啶;4-氨基尿嘧啶;",
    "alternate_name": "2,4(1<em>H</em>,3<em>H</em>)-Pyrimidinedione, 6-amino-;Uracil, 6-amino-;6-Amino-2,4(1<em>H</em>,3<em>H</em>)-pyrimidinedione;6-Aminouracil;6-Amino-2,4-dihydroxypyrimidine;4-Aminouracil;2,4-Dihydroxy-6-aminopyrimidine;4-Amino-2,6-dihydroxypyrimidine;6-Amino-2,4-dioxo-1,2,3,4-tetrahydropyrimidine;NSC 15919;NSC 7367;6-Aminopyrimidine-2,4(1<em>H</em>,3<em>H</em>)-dione;6-Aminopyrimidine-2,4-diol",
    "duplicated_cas_no": "56-07-5",
    "SMILES": "NC1=CC(=O)NC(=O)N1",
    "meta_data": {
        "InChI": "InChI=1S/C4H5N3O2/c5-2-1-3(8)7-4(9)6-2/h1H,(H4,5,6,7,8,9)",
        "InChIKey": null,
        "Canonical SMILES": "O=C1C=C(N)NC(=O)N1",
        "Molecular Formula": "C<sub>4</sub>H<sub>5</sub>N<sub>3</sub>O<sub>2</sub>",
        "Molecular Mass": "127.10",
        "Melting Point": "310-312 °C"
    }
}