{
    "cas_no": "1079-66-9",
    "key_name": "Chlorodiphenylphosphine",
    "cn_name": "二苯基氯化膦;",
    "alternate_name": "Phosphinous chloride, <em>P</em>,<em>P</em>-diphenyl-;Phosphinous chloride, diphenyl-;<em>P</em>,<em>P</em>-Diphenylphosphinous chloride;Chlorodiphenylphosphine;Diphenylphosphinous chloride;Diphenylchlorophosphine;Phosphine, chlorodiphenyl-;Diphenylphosphine chloride;Diphenylphosphorus chloride;NSC 60407",
    "duplicated_cas_no": "74391-44-9;100111-43-1;1393091-04-7",
    "SMILES": "P(Cl)(C1=CC=CC=C1)C2=CC=CC=C2",
    "meta_data": {
        "InChI": "InChI=1S/C12H10ClP/c13-14(11-7-3-1-4-8-11)12-9-5-2-6-10-12/h1-10H",
        "InChIKey": null,
        "Canonical SMILES": "ClP(C=1C=CC=CC1)C=2C=CC=CC2",
        "Molecular Formula": "C<sub>12</sub>H<sub>10</sub>ClP",
        "Molecular Mass": "220.63",
        "Boiling Point": "100-102 °C @ Press: 1 Torr",
        "Melting Point": "15-16 °C",
        "Density": "1.19 g/cm³"
    }
}