{
    "cas_no": "431-35-6",
    "key_name": "3-Bromo-1,1,1-trifluoro-2-propanone",
    "cn_name": "3-溴-1,1,1-三氟丙酮;",
    "alternate_name": "2-Propanone, 3-bromo-1,1,1-trifluoro-;3-Bromo-1,1,1-trifluoro-2-propanone;Bromotrifluoro-2-propanone;1,1,1-Trifluoro-3-bromoacetone;3-Bromo-1,1,1-trifluoropropanone;3,3,3-Trifluorobromoacetone;3-Bromo-1,1,1-trifluoroacetone;1,1,1-Trifluoro-3-bromopropanone;1-Bromo-3,3,3-trifluoro-2-propanone;Bromotrifluoroacetone;Bromomethyl trifluoromethyl ketone;1,1,1-Trifluoro-3-bromo-2-propanone;1-Bromo-3,3,3-trifluoroacetone;3-Bromo-1,1,1-trifuoroacetone",
    "duplicated_cas_no": "",
    "SMILES": "C(C(F)(F)F)(CBr)=O",
    "meta_data": {
        "InChI": "InChI=1S/C3H2BrF3O/c4-1-2(8)3(5,6)7/h1H2",
        "InChIKey": null,
        "Canonical SMILES": "O=C(CBr)C(F)(F)F",
        "Molecular Formula": "C<sub>3</sub>H<sub>2</sub>BrF<sub>3</sub>O",
        "Molecular Mass": "190.95",
        "Boiling Point": "84.7 °C @ Press: 743.8 Torr"
    }
}