{
    "cas_no": "106-31-0",
    "key_name": "Butyric anhydride",
    "cn_name": "丁酸酐;正丁酸酐;",
    "alternate_name": "Butanoic acid, 1,1′-anhydride;Butyric anhydride;Butanoic acid, anhydride;Butanoic anhydride;Butyryl oxide;Butyric acid anhydride;<em>n</em>-Butyric acid anhydride;<em>n</em>-Butyric anhydride;Butanoyl anhydride;Butanoyl butanoate;Butyryl anhydride",
    "duplicated_cas_no": "86977-44-8",
    "SMILES": "C(OC(CCC)=O)(CCC)=O",
    "meta_data": {
        "InChI": "InChI=1S/C8H14O3/c1-3-5-7(9)11-8(10)6-4-2/h3-6H2,1-2H3",
        "InChIKey": null,
        "Canonical SMILES": "O=C(OC(=O)CCC)CCC",
        "Molecular Formula": "C<sub>8</sub>H<sub>14</sub>O<sub>3</sub>",
        "Molecular Mass": "158.20",
        "Boiling Point": "199.4-201.4 °C",
        "Melting Point": "-75 °C",
        "Density": "0.9668 g/cm³ @ Temp: 20 °C"
    }
}