{
    "cas_no": "1445-19-8",
    "key_name": "1-Naphthalenesulfonic acid, 8-(phenylamino)-, sodium salt (1:1)",
    "cn_name": "8-苯胺基-1-萘磺酸钠;",
    "alternate_name": "1-Naphthalenesulfonic acid, 8-(phenylamino)-, sodium salt (1:1);1-Naphthalenesulfonic acid, 8-anilino-, monosodium salt;1-Naphthalenesulfonic acid, 8-(phenylamino)-, monosodium salt;1-Naphthalenesulfonic acid, 8-anilino-, sodium salt;Sodium 8-anilino-1-naphthalenesulfonate;Sodium 1-anilino-8-naphthalenesulfonate",
    "duplicated_cas_no": "",
    "SMILES": "S(=O)(=O)(O)C=1C=2C(NC3=CC=CC=C3)=CC=CC2C=CC1.[Na]",
    "meta_data": {
        "InChI": "InChI=1S/C16H13NO3S.Na/c18-21(19,20)15-11-5-7-12-6-4-10-14(16(12)15)17-13-8-2-1-3-9-13;/h1-11,17H,(H,18,19,20);",
        "InChIKey": null,
        "Canonical SMILES": "[Na].O=S(=O)(O)C1=CC=CC2=CC=CC(NC=3C=CC=CC3)=C21",
        "Molecular Formula": "C<sub>16</sub>H<sub>13</sub>NO<sub>3</sub>S.Na",
        "Molecular Mass": "",
        "Melting Point": "&gt;300 °C"
    }
}