{
    "cas_no": "940-62-5",
    "key_name": "(2<em>E</em>)-3-(4-Chlorophenyl)-2-propenoic acid",
    "cn_name": null,
    "alternate_name": "2-Propenoic acid, 3-(4-chlorophenyl)-, (2<em>E</em>)-;Cinnamic acid, <em>p</em>-chloro-, (<em>E</em>)-;2-Propenoic acid, 3-(4-chlorophenyl)-, (<em>E</em>)-;(2<em>E</em>)-3-(4-Chlorophenyl)-2-propenoic acid;<em>trans</em>-<em>p</em>-Chlorocinnamic acid;(<em>E</em>)-<em>p</em>-Chlorocinnamic acid;(<em>E</em>)-4-Chlorocinnamic acid;<em>trans</em>-4-Chlorocinnamic acid;(<em>E</em>)-3-(4-Chlorophenyl)acrylic acid;NSC 52172;<em>trans</em>-3-(4-Chlorophenyl)-2-propenoic acid;(<em>E</em>)-3-(4-Chlorophenyl)-2-propenoic acid;(E)-3-(4-Chlorophenyl)acrylic acid",
    "duplicated_cas_no": "",
    "SMILES": "C(=C/C(O)=O)\\C1=CC=C(Cl)C=C1",
    "meta_data": {
        "InChI": "InChI=1S/C9H7ClO2/c10-8-4-1-7(2-5-8)3-6-9(11)12/h1-6H,(H,11,12)/b6-3+",
        "InChIKey": null,
        "Canonical SMILES": "O=C(O)C=CC1=CC=C(Cl)C=C1",
        "Molecular Formula": "C<sub>9</sub>H<sub>7</sub>ClO<sub>2</sub>",
        "Molecular Mass": "182.60",
        "Melting Point": "241 °C"
    }
}