{
    "cas_no": "483-04-5",
    "key_name": "Ajmalicine",
    "cn_name": "萝巴新;阿吗碱;",
    "alternate_name": "Oxayohimban-16-carboxylic acid, 16,17-didehydro-19-methyl-, methyl ester, (19α)-;Raubasine;Ajmalicine;4<em>H</em>-Indolo[2,3-<em>a</em>]pyrano[3,4-<em>g</em>]quinolizine, oxayohimban-16-carboxylic acid deriv.;Hydrosarpan;Py-tetrahydroserpentine;δ-Yohimbine;Lamuran;Tetrahydroserpentine;Ajmalicin;Raubasin;Vincain;Vincein;Vinceine;Raumalina;Rauvasan;Sarpan;Tensyl;Ranitol;Raubaserp;Raubasil;(-)-Ajmalicine;Vincaine;4<em>H</em>-Indolo[2,3-<em>a</em>]pyrano[3,4-<em>g</em>]quinolizine-1-carboxylic acid, 4a,5,7,8,13,13b,14,14a-octahydro-4-methyl-, methyl ester, (4<em>S</em>,4a<em>R</em>,13b<em>S</em>,14a<em>S</em>)-;Circolene;Isoarteril;NSC 72133;NSC 95087",
    "duplicated_cas_no": "478483-39-5",
    "SMILES": "C(OC)(=O)C=1[C@]2(C[C@]3(C4=C(C=5C(N4)=CC=CC5)CCN3C[C@@]2([C@H](C)OC1)[H])[H])[H]",
    "meta_data": {
        "InChI": "InChI=1S/C21H24N2O3/c1-12-16-10-23-8-7-14-13-5-3-4-6-18(13)22-20(14)19(23)9-15(16)17(11-26-12)21(24)25-2/h3-6,11-12,15-16,19,22H,7-10H2,1-2H3/t12-,15-,16+,19-/m0/s1",
        "InChIKey": null,
        "Canonical SMILES": "O=C(OC)C1=COC(C)C2CN3CCC=4C=5C=CC=CC5NC4C3CC12",
        "Molecular Formula": "C<sub>21</sub>H<sub>24</sub>N<sub>2</sub>O<sub>3</sub>",
        "Molecular Mass": "352.43",
        "Melting Point": "258 °C (decomp)"
    }
}