{
    "cas_no": "71418-44-5",
    "key_name": "Monobromobimane",
    "cn_name": null,
    "alternate_name": "1<em>H</em>,7<em>H</em>-Pyrazolo[1,2-<em>a</em>]pyrazole-1,7-dione, 3-(bromomethyl)-2,5,6-trimethyl-;3-(Bromomethyl)-2,5,6-trimethyl-1<em>H</em>,7<em>H</em>-pyrazolo[1,2-<em>a</em>]pyrazole-1,7-dione;Monobromobimane;Thiolyte MB;Bromobimane;NSC 608544",
    "duplicated_cas_no": "",
    "SMILES": "C(Br)C=1N2N(C(=O)C1C)C(=O)C(C)=C2C",
    "meta_data": {
        "InChI": "InChI=1S/C10H11BrN2O2/c1-5-7(3)12-8(4-11)6(2)10(15)13(12)9(5)14/h4H2,1-3H3",
        "InChIKey": null,
        "Canonical SMILES": "O=C1C(=C(N2C(=C(C(=O)N12)C)CBr)C)C",
        "Molecular Formula": "C<sub>10</sub>H<sub>11</sub>BrN<sub>2</sub>O<sub>2</sub>",
        "Molecular Mass": "271.11",
        "Melting Point": "142 °C"
    }
}