{
    "cas_no": "13775-80-9",
    "key_name": "Hydrazine, hydrobromide (1:1)",
    "cn_name": null,
    "alternate_name": "Hydrazine, hydrobromide (1:1);Hydrazine, monohydrobromide;Hydrazine, hydrobromide;Hydrazinium bromide",
    "duplicated_cas_no": "",
    "SMILES": "NN.Br",
    "meta_data": {
        "InChI": "InChI=1S/BrH.H4N2/c;1-2/h1H;1-2H2",
        "InChIKey": null,
        "Canonical SMILES": "Br.NN",
        "Molecular Formula": "BrH.H<sub>4</sub>N<sub>2</sub>",
        "Molecular Mass": "",
        "Melting Point": "84 °C"
    }
}