{
    "cas_no": "473923-97-6",
    "key_name": "3-Chloro-5-hydroxybenzonitrile",
    "cn_name": null,
    "alternate_name": "Benzonitrile, 3-chloro-5-hydroxy-;3-Chloro-5-hydroxybenzonitrile;3-Chloro-5-cyanophenol",
    "duplicated_cas_no": "",
    "SMILES": "C(#N)C1=CC(Cl)=CC(O)=C1",
    "meta_data": {
        "InChI": "InChI=1S/C7H4ClNO/c8-6-1-5(4-9)2-7(10)3-6/h1-3,10H",
        "InChIKey": null,
        "Canonical SMILES": "N#CC=1C=C(Cl)C=C(O)C1",
        "Molecular Formula": "C<sub>7</sub>H<sub>4</sub>ClNO",
        "Molecular Mass": "153.57",
        "Melting Point": "165-166 °C"
    }
}