{
    "cas_no": "10205-34-2",
    "key_name": "Methyl 3-(dimethylamino)-2-methylpropanoate",
    "cn_name": "3-二甲基氨基-2-甲基丙酸甲酯;β-二甲氨基异丁酸甲酯;Methyl β-dimethylaminoisobutyrate;",
    "alternate_name": "Propanoic acid, 3-(dimethylamino)-2-methyl-, methyl ester;β-Alanine, <em>N</em>,<em>N</em>,2-trimethyl-, methyl ester;Methyl 3-(dimethylamino)-2-methylpropanoate;Methyl 3-(dimethylamino)isobutyrate;Methyl 3-(dimethylamino)-2-methylpropionate;Methyl 2-methyl-3-dimethylaminopropionate",
    "duplicated_cas_no": "",
    "SMILES": "C(C(OC)=O)(CN(C)C)C",
    "meta_data": {
        "InChI": "InChI=1S/C7H15NO2/c1-6(5-8(2)3)7(9)10-4/h6H,5H2,1-4H3",
        "InChIKey": null,
        "Canonical SMILES": "O=C(OC)C(C)CN(C)C",
        "Molecular Formula": "C<sub>7</sub>H<sub>15</sub>NO<sub>2</sub>",
        "Molecular Mass": "145.20",
        "Boiling Point": "60 °C @ Press: 15 Torr"
    }
}