{
    "cas_no": "6920-22-5",
    "key_name": "1,2-Hexanediol",
    "cn_name": "DL-1,2-己二醇;1,2-己二醇;",
    "alternate_name": "1,2-Hexanediol;5,6-Dihydroxyhexane;1,2-Dihydroxyhexane;(±)-Hexane-1,2-diol;<span class=\"text-smallcaps\">DL</span>-1,2-Hexanediol;1,2-Hexyleneglycol;KMO 6;Hydrolite 6;Dermosoft Hexiol;Dermasoft Hexiol;Microcare Emollient HXD",
    "duplicated_cas_no": "87760-48-3",
    "SMILES": "C(CCCC)(CO)O",
    "meta_data": {
        "InChI": "InChI=1S/C6H14O2/c1-2-3-4-6(8)5-7/h6-8H,2-5H2,1H3",
        "InChIKey": null,
        "Canonical SMILES": "OCC(O)CCCC",
        "Molecular Formula": "C<sub>6</sub>H<sub>14</sub>O<sub>2</sub>",
        "Molecular Mass": "118.17",
        "Boiling Point": "96-98 °C @ Press: 1.0 Torr"
    }
}