{
    "cas_no": "2935-63-9",
    "key_name": "2-(2,3-Dimethylphenoxy)acetic acid",
    "cn_name": "2,3-二甲基苯氧基乙酸;",
    "alternate_name": "Acetic acid, 2-(2,3-dimethylphenoxy)-;Acetic acid, (2,3-xylyloxy)-;Acetic acid, (2,3-dimethylphenoxy)-;2-(2,3-Dimethylphenoxy)acetic acid;(2,3-Dimethylphenoxy)acetic acid;NSC 62095",
    "duplicated_cas_no": "",
    "SMILES": "O(CC(O)=O)C1=C(C)C(C)=CC=C1",
    "meta_data": {
        "InChI": "InChI=1S/C10H12O3/c1-7-4-3-5-9(8(7)2)13-6-10(11)12/h3-5H,6H2,1-2H3,(H,11,12)",
        "InChIKey": null,
        "Canonical SMILES": "O=C(O)COC1=CC=CC(=C1C)C",
        "Molecular Formula": "C<sub>10</sub>H<sub>12</sub>O<sub>3</sub>",
        "Molecular Mass": "180.20",
        "Melting Point": "116-118 °C"
    }
}