{
    "cas_no": "5128-44-9",
    "key_name": "5-Hydroxy-7,4′-dimethoxyflavone",
    "cn_name": null,
    "alternate_name": "4<em>H</em>-1-Benzopyran-4-one, 5-hydroxy-7-methoxy-2-(4-methoxyphenyl)-;Flavone, 5-hydroxy-4′,7-dimethoxy-;5-Hydroxy-7-methoxy-2-(4-methoxyphenyl)-4<em>H</em>-1-benzopyran-4-one;5-Hydroxy-7,4′-dimethoxyflavone;Apigenin 4′,7-dimethyl ether;Genkwanin 4′-methyl ether;5-Hydroxy-4′,7-dimethoxyflavone;4′,7-Dimethylapigenin;Apigenin dimethyl ether;4′,7-Di-<em>O</em>-methylapigenin;Acacetin 7-methyl ether;7,4′-Dimethylapigenin;7,4′-Di-<em>O</em>-methylapigenin;7-<em>O</em>-Methylacacetin;Apigenin 7,4′-dimethyl ether;4′-Methoxytectochrysin;NSC 94547;7-Methylacacetin;5-Hydroxy-7-methoxy-2-(4-methoxyphenyl)-4<em>H</em>-chromen-4-one;Apigenin-7,4-dimethyl ether;5-OH-7,4′-dimethoxyflavone",
    "duplicated_cas_no": "",
    "SMILES": "O=C1C=2C(OC(=C1)C3=CC=C(OC)C=C3)=CC(OC)=CC2O",
    "meta_data": {
        "InChI": "InChI=1S/C17H14O5/c1-20-11-5-3-10(4-6-11)15-9-14(19)17-13(18)7-12(21-2)8-16(17)22-15/h3-9,18H,1-2H3",
        "InChIKey": null,
        "Canonical SMILES": "O=C1C=C(OC=2C=C(OC)C=C(O)C12)C=3C=CC(OC)=CC3",
        "Molecular Formula": "C<sub>17</sub>H<sub>14</sub>O<sub>5</sub>",
        "Molecular Mass": "298.29",
        "Melting Point": "171-172 °C"
    }
}