{
    "cas_no": "1654-86-0",
    "key_name": "Decyl decanoate",
    "cn_name": "癸酸酯;",
    "alternate_name": "Decanoic acid, decyl ester;Decyl caprate;1-Decyl decanoate;Decyl decanoate;Capryl caprate",
    "duplicated_cas_no": "",
    "SMILES": "C(OCCCCCCCCCC)(CCCCCCCCC)=O",
    "meta_data": {
        "InChI": "InChI=1S/C20H40O2/c1-3-5-7-9-11-13-15-17-19-22-20(21)18-16-14-12-10-8-6-4-2/h3-19H2,1-2H3",
        "InChIKey": null,
        "Canonical SMILES": "O=C(OCCCCCCCCCC)CCCCCCCCC",
        "Molecular Formula": "C<sub>20</sub>H<sub>40</sub>O<sub>2</sub>",
        "Molecular Mass": "312.53",
        "Boiling Point": "219.0-219.4 °C @ Press: 15 Torr",
        "Melting Point": "9.7 °C",
        "Density": "0.8586 g/cm³ @ Temp: 20 °C"
    }
}