{
    "cas_no": "57-57-8",
    "key_name": "β-Propiolactone",
    "cn_name": "beta-丙内酯;",
    "alternate_name": "2-Oxetanone;Hydracrylic acid, β-lactone;Betaprone;BPL;Propanolide;Propiolactone;β-Propiolactone;β-Propionolactone;Propanoic acid, 3-hydroxy-, β-lactone;1,3-Propiolactone;3-Hydroxypropionic acid lactone;3-Propanolide;3-Propiolactone;NSC 21626;MeSH ID: D011420",
    "duplicated_cas_no": "",
    "SMILES": "O=C1CCO1",
    "meta_data": {
        "InChI": "InChI=1S/C3H4O2/c4-3-1-2-5-3/h1-2H2",
        "InChIKey": null,
        "Canonical SMILES": "O=C1OCC1",
        "Molecular Formula": "C<sub>3</sub>H<sub>4</sub>O<sub>2</sub>",
        "Molecular Mass": "72.06",
        "Boiling Point": "61 °C @ Press: 20 Torr",
        "Melting Point": "-33.4 °C",
        "Density": "1.1460 g/cm³ @ Temp: 20 °C"
    }
}