{
    "cas_no": "5080-22-8",
    "key_name": "Isopropylhydroxylamine",
    "cn_name": "N-异丙基羟胺;IPHA;",
    "alternate_name": "2-Propanamine, <em>N</em>-hydroxy-;Hydroxylamine, <em>N</em>-isopropyl-;<em>N</em>-Hydroxy-2-propanamine;<em>N</em>-Isopropylhydroxylamine;Isopropylhydroxylamine;Isopropyl hydroxyamine;Hydroguard I 15",
    "duplicated_cas_no": "",
    "SMILES": "C(NO)(C)C",
    "meta_data": {
        "InChI": "InChI=1S/C3H9NO/c1-3(2)4-5/h3-5H,1-2H3",
        "InChIKey": null,
        "Canonical SMILES": "ONC(C)C",
        "Molecular Formula": "C<sub>3</sub>H<sub>9</sub>NO",
        "Molecular Mass": "75.11",
        "Melting Point": "87 °C"
    }
}