{
    "cas_no": "10210-68-1",
    "key_name": "Dicobalt octacarbonyl",
    "cn_name": "八羰基二钴;",
    "alternate_name": "Cobalt, di-μ-carbonylhexacarbonyldi-, (<em>Co</em>-<em>Co</em>);Cobalt carbonyl (Co<sub>2</sub>(CO)<sub>8</sub>);Dicobalt octacarbonyl;Cobalt tetracarbonyl dimer;Di-μ-carbonylhexacarbonyldicobalt;Octacarbonyldicobalt;Dicobalt carbonyl (Co<sub>2</sub>(CO)<sub>8</sub>);Cobalt octacarbonyl (Co<sub>2</sub>(CO)<sub>8</sub>)",
    "duplicated_cas_no": "12553-61-6;14525-26-9;19998-88-0;24917-04-2;90043-99-5",
    "SMILES": "C(#O)[Co+2]12(C#O)(C#O)[Co+2](C#O)(C#O)(C#O)([C-2]1=O)[C-2]2=O",
    "meta_data": {
        "InChI": "InChI=1S/8CO.2Co/c8*1-2;;/q;;;;;;2*-2;2*+2",
        "InChIKey": null,
        "Canonical SMILES": "O#C[Co+2]12(C#O)(C#O)[C-2](=O)[Co+2]2(C#O)(C#O)(C#O)[C-2]1=O",
        "Molecular Formula": "C<sub>8</sub>Co<sub>2</sub>O<sub>8</sub>",
        "Molecular Mass": "",
        "Boiling Point": "95 °C",
        "Melting Point": "51 °C (decomp)",
        "Density": "1.78 g/cm³ @ Temp: 25 °C"
    }
}