{
    "cas_no": "7589-27-7",
    "key_name": "4-Fluorobenzeneethanol",
    "cn_name": "对氟苯乙醇;4-氟苯乙醇;",
    "alternate_name": "Benzeneethanol, 4-fluoro-;Phenethyl alcohol, <em>p</em>-fluoro-;4-Fluorobenzeneethanol;<em>p</em>-Fluorophenethyl alcohol;2-(4-Fluorophenyl)ethanol;4-Fluorophenethyl alcohol;2-(4-Fluorophenyl)ethyl alcohol;2-(4-Fluorophenyl)ethan-1-ol",
    "duplicated_cas_no": "",
    "SMILES": "C(CO)C1=CC=C(F)C=C1",
    "meta_data": {
        "InChI": "InChI=1S/C8H9FO/c9-8-3-1-7(2-4-8)5-6-10/h1-4,10H,5-6H2",
        "InChIKey": null,
        "Canonical SMILES": "FC1=CC=C(C=C1)CCO",
        "Molecular Formula": "C<sub>8</sub>H<sub>9</sub>FO",
        "Molecular Mass": "140.15",
        "Boiling Point": "117-118 °C @ Press: 20 Torr",
        "Density": "1.137 g/cm³ @ Temp: 20 °C"
    }
}