{
    "cas_no": "74772-17-1",
    "key_name": "3-(1<em>H</em>-Pyrrol-1-yl)-2-thiophenecarboxylic acid",
    "cn_name": null,
    "alternate_name": "2-Thiophenecarboxylic acid, 3-(1<em>H</em>-pyrrol-1-yl)-;3-(1<em>H</em>-Pyrrol-1-yl)-2-thiophenecarboxylic acid;3-(Pyrrol-1-yl)thiophene-2-carboxylic acid;CC 22101",
    "duplicated_cas_no": "",
    "SMILES": "C(O)(=O)C1=C(C=CS1)N2C=CC=C2",
    "meta_data": {
        "InChI": "InChI=1S/C9H7NO2S/c11-9(12)8-7(3-6-13-8)10-4-1-2-5-10/h1-6H,(H,11,12)",
        "InChIKey": null,
        "Canonical SMILES": "O=C(O)C=1SC=CC1N2C=CC=C2",
        "Molecular Formula": "C<sub>9</sub>H<sub>7</sub>NO<sub>2</sub>S",
        "Molecular Mass": "193.22",
        "Melting Point": "185 °C"
    }
}