{
    "cas_no": "73568-26-0",
    "key_name": "2-Chloro-8-methylquinoline-3-carboxaldehyde",
    "cn_name": "2-氯-8-甲基喹啉-3-甲醛;",
    "alternate_name": "3-Quinolinecarboxaldehyde, 2-chloro-8-methyl-;2-Chloro-8-methyl-3-quinolinecarboxaldehyde;2-Chloro-3-formyl-8-methylquinoline;2-Chloro-8-methyl-3-quinolinecarbaldehyde;2-Chloro-8-methylquinoline-3-carboxaldehyde",
    "duplicated_cas_no": "",
    "SMILES": "CC=1C2=C(C=C(C=O)C(Cl)=N2)C=CC1",
    "meta_data": {
        "InChI": "InChI=1S/C11H8ClNO/c1-7-3-2-4-8-5-9(6-14)11(12)13-10(7)8/h2-6H,1H3",
        "InChIKey": null,
        "Canonical SMILES": "O=CC=1C=C2C=CC=C(C2=NC1Cl)C",
        "Molecular Formula": "C<sub>11</sub>H<sub>8</sub>ClNO",
        "Molecular Mass": "205.64",
        "Melting Point": "138 °C"
    }
}