{
    "cas_no": "560-66-7",
    "key_name": "Eburicoic acid",
    "cn_name": null,
    "alternate_name": "Lanost-8-en-21-oic acid, 3-hydroxy-24-methylene-, (3β)-;Lanost-8-en-21-oic acid, 3β-hydroxy-24-methylene-;(3β)-3-Hydroxy-24-methylenelanost-8-en-21-oic acid;Eburicoic acid;3β-Hydroxy-24-methylene-8-lanosten-21-oic acid;NSC 41969;Eburcoic acid",
    "duplicated_cas_no": "24160-39-2",
    "SMILES": "C[C@]12C3=C([C@]4(C)[C@@](CC3)(C(C)(C)[C@@H](O)CC4)[H])CC[C@]1(C)[C@@]([C@@H](CCC(C(C)C)=C)C(O)=O)(CC2)[H]",
    "meta_data": {
        "InChI": "InChI=1S/C31H50O3/c1-19(2)20(3)9-10-21(27(33)34)22-13-17-31(8)24-11-12-25-28(4,5)26(32)15-16-29(25,6)23(24)14-18-30(22,31)7/h19,21-22,25-26,32H,3,9-18H2,1-2,4-8H3,(H,33,34)/t21-,22-,25+,26+,29-,30-,31+/m1/s1",
        "InChIKey": null,
        "Canonical SMILES": "O=C(O)C(CCC(=C)C(C)C)C1CCC2(C3=C(CCC12C)C4(C)CCC(O)C(C)(C)C4CC3)C",
        "Molecular Formula": "C<sub>31</sub>H<sub>50</sub>O<sub>3</sub>",
        "Molecular Mass": "470.73",
        "Melting Point": "283 °C"
    }
}