{
    "cas_no": "589-81-1",
    "key_name": "3-Methylheptane",
    "cn_name": "3-甲基庚烷;",
    "alternate_name": "Heptane, 3-methyl-;3-Methylheptane;2-Ethylhexane;(±)-3-Methylheptane;NSC 24845",
    "duplicated_cas_no": "116502-43-3",
    "SMILES": "C(CCCC)(CC)C",
    "meta_data": {
        "InChI": "InChI=1S/C8H18/c1-4-6-7-8(3)5-2/h8H,4-7H2,1-3H3",
        "InChIKey": null,
        "Canonical SMILES": "CCCCC(C)CC",
        "Molecular Formula": "C<sub>8</sub>H<sub>18</sub>",
        "Molecular Mass": "114.23",
        "Boiling Point": "118 °C",
        "Melting Point": "-100 °C",
        "Density": "0.7167 g/cm³ @ Temp: 20 °C"
    }
}