{
    "cas_no": "102877-50-9",
    "key_name": "1,2,3,4-Tetrahydro-5-isoquinolinol",
    "cn_name": null,
    "alternate_name": "5-Isoquinolinol, 1,2,3,4-tetrahydro-;1,2,3,4-Tetrahydro-5-isoquinolinol;1,2,3,4-Tetrahydroisoquinolin-5-ol",
    "duplicated_cas_no": "",
    "SMILES": "OC1=C2C(=CC=C1)CNCC2",
    "meta_data": {
        "InChI": "InChI=1S/C9H11NO/c11-9-3-1-2-7-6-10-5-4-8(7)9/h1-3,10-11H,4-6H2",
        "InChIKey": null,
        "Canonical SMILES": "OC1=CC=CC2=C1CCNC2",
        "Molecular Formula": "C<sub>9</sub>H<sub>11</sub>NO",
        "Molecular Mass": "149.19",
        "Melting Point": "273 °C"
    }
}