{
    "cas_no": "535-80-8",
    "key_name": "3-Chlorobenzoic acid",
    "cn_name": "3-氯苯甲酸;间氯苯甲酸;",
    "alternate_name": "Benzoic acid, 3-chloro-;Benzoic acid, <em>m</em>-chloro-;3-Chlorobenzoic acid;<em>m</em>-Chlorobenzoic acid;NSC 8443",
    "duplicated_cas_no": "",
    "SMILES": "C(O)(=O)C1=CC(Cl)=CC=C1",
    "meta_data": {
        "InChI": "InChI=1S/C7H5ClO2/c8-6-3-1-2-5(4-6)7(9)10/h1-4H,(H,9,10)",
        "InChIKey": null,
        "Canonical SMILES": "O=C(O)C=1C=CC=C(Cl)C1",
        "Molecular Formula": "C<sub>7</sub>H<sub>5</sub>ClO<sub>2</sub>",
        "Molecular Mass": "156.57",
        "Melting Point": "158 °C",
        "Density": "1.496 g/cm³ @ Temp: 25 °C"
    }
}