{
    "cas_no": "13463-28-0",
    "key_name": "Eriocitrin",
    "cn_name": null,
    "alternate_name": "4<em>H</em>-1-Benzopyran-4-one, 7-[[6-<em>O</em>-(6-deoxy-α-<span class=\"text-smallcaps\">L</smallcap>-mannopyranosyl)-β-<smallcap>D</span>-glucopyranosyl]oxy]-2-(3,4-dihydroxyphenyl)-2,3-dihydro-5-hydroxy-, (2<em>S</em>)-;Eriocitrin;Flavanone, 3′,4′,5,7-tetrahydroxy-, 7-[6-<em>O</em>-(6-deoxy-α-<span class=\"text-smallcaps\">L</smallcap>-mannopyranosyl)-β-<smallcap>D</span>-glucopyranoside];4<em>H</em>-1-Benzopyran-4-one, 7-[[6-<em>O</em>-(6-deoxy-α-<span class=\"text-smallcaps\">L</smallcap>-mannopyranosyl)-β-<smallcap>D</span>-glucopyranosyl]oxy]-2-(3,4-dihydroxyphenyl)-2,3-dihydro-5-hydroxy-, (<em>S</em>)-;Glucopyranoside, eriodictyol-7 6-<em>O</em>-(6-deoxy-α-<span class=\"text-smallcaps\">L</smallcap>-mannopyranosyl)-, β-<smallcap>D</span>-;(2<em>S</em>)-7-[[6-<em>O</em>-(6-Deoxy-α-<span class=\"text-smallcaps\">L</smallcap>-mannopyranosyl)-β-<smallcap>D</span>-glucopyranosyl]oxy]-2-(3,4-dihydroxyphenyl)-2,3-dihydro-5-hydroxy-4<em>H</em>-1-benzopyran-4-one;Eriodictyol 7-<em>O</em>-rutinoside;Eriodictioside",
    "duplicated_cas_no": "32737-63-6;52389-55-6",
    "SMILES": "O=C1C=2C(O[C@@H](C1)C3=CC(O)=C(O)C=C3)=CC(O[C@@H]4O[C@H](CO[C@H]5[C@H](O)[C@H](O)[C@@H](O)[C@H](C)O5)[C@@H](O)[C@H](O)[C@H]4O)=CC2O",
    "meta_data": {
        "InChI": "InChI=1S/C27H32O15/c1-9-20(32)22(34)24(36)26(39-9)38-8-18-21(33)23(35)25(37)27(42-18)40-11-5-14(30)19-15(31)7-16(41-17(19)6-11)10-2-3-12(28)13(29)4-10/h2-6,9,16,18,20-30,32-37H,7-8H2,1H3/t9-,16-,18+,20-,21+,22+,23-,24+,25+,26+,27+/m0/s1",
        "InChIKey": null,
        "Canonical SMILES": "O=C1C2=C(O)C=C(OC3OC(COC4OC(C)C(O)C(O)C4O)C(O)C(O)C3O)C=C2OC(C5=CC=C(O)C(O)=C5)C1",
        "Molecular Formula": "C<sub>27</sub>H<sub>32</sub>O<sub>15</sub>",
        "Molecular Mass": "596.53",
        "Melting Point": "154-164 °C"
    }
}