{
    "cas_no": "2855-27-8",
    "key_name": "1,2,4-Trivinylcyclohexane",
    "cn_name": "1,2,4-三乙基环己烷;",
    "alternate_name": "Cyclohexane, 1,2,4-triethenyl-;Cyclohexane, 1,2,4-trivinyl-;1,2,4-Triethenylcyclohexane;1,2,4-Trivinylcyclohexane;NSC 78467;1,2,4-Tris(ethenyl)cyclohexane",
    "duplicated_cas_no": "",
    "SMILES": "C(=C)C1C(C=C)CCC(C=C)C1",
    "meta_data": {
        "InChI": "InChI=1S/C12H18/c1-4-10-7-8-11(5-2)12(6-3)9-10/h4-6,10-12H,1-3,7-9H2",
        "InChIKey": null,
        "Canonical SMILES": "C=CC1CCC(C=C)C(C=C)C1",
        "Molecular Formula": "C<sub>12</sub>H<sub>18</sub>",
        "Molecular Mass": "162.27",
        "Boiling Point": "90 °C @ Press: 11 Torr"
    }
}