{
    "cas_no": "15356-74-8",
    "key_name": "5,6,7,7a-Tetrahydro-4,4,7a-trimethyl-2(4<em>H</em>)-benzofuranone",
    "cn_name": null,
    "alternate_name": "2(4<em>H</em>)-Benzofuranone, 5,6,7,7a-tetrahydro-4,4,7a-trimethyl-;5,6,7,7a-Tetrahydro-4,4,7a-trimethyl-2(4<em>H</em>)-benzofuranone;2-Hydroxy-2,6,6-trimethylcyclohexylidene-1-acetic acid lactone;(2,6,6-Trimethyl-2-hydroxycyclohexylidene)acetic acid lactone;2,4,5,6,7,7a-Hexahydro-4,4,7a-trimethylbenzofuran-2-one;4,5,7,7a-Tetrahydro-4,4,7a-trimethyl-2(6<em>H</em>)-benzofuranone;9-Oxa-1,5,5-trimethylbicyclo[4.3.0]non-6-en-8-one;Dihydroactinolide;(±)-Dihydroactinidiolide;Dihydroactindiolide;5,8,7,7-Tetrahydro-4,4,7a-trimethyl-α-benzofuranone;5,6,7,7α-Tetrahydro-4,4,7α-trimethyl-2(4<em>H</em>)-benzofuranone",
    "duplicated_cas_no": "19432-05-4",
    "SMILES": "CC12C(=CC(=O)O1)C(C)(C)CCC2",
    "meta_data": {
        "InChI": "InChI=1S/C11H16O2/c1-10(2)5-4-6-11(3)8(10)7-9(12)13-11/h7H,4-6H2,1-3H3",
        "InChIKey": null,
        "Canonical SMILES": "O=C1OC2(C(=C1)C(C)(C)CCC2)C",
        "Molecular Formula": "C<sub>11</sub>H<sub>16</sub>O<sub>2</sub>",
        "Molecular Mass": "180.24",
        "Boiling Point": "63 °C @ Press: 0.01 Torr",
        "Melting Point": "40-41 °C"
    }
}