{
    "cas_no": "5398-29-8",
    "key_name": "3-[(Aminoiminomethyl)thio]propanoic acid",
    "cn_name": "3-[(氨基亚氨基甲基)硫基]丙酸;ATPN;",
    "alternate_name": "Propanoic acid, 3-[(aminoiminomethyl)thio]-;Propionic acid, 3-(amidinothio)-;3-[(Aminoiminomethyl)thio]propanoic acid;β-Isothiureidopropionic acid;3-(Amidinothio)propionic acid;NSC 4453;ATPN",
    "duplicated_cas_no": "",
    "SMILES": "C(CC(O)=O)SC(=N)N",
    "meta_data": {
        "InChI": "InChI=1S/C4H8N2O2S/c5-4(6)9-2-1-3(7)8/h1-2H2,(H3,5,6)(H,7,8)",
        "InChIKey": null,
        "Canonical SMILES": "O=C(O)CCSC(=N)N",
        "Molecular Formula": "C<sub>4</sub>H<sub>8</sub>N<sub>2</sub>O<sub>2</sub>S",
        "Molecular Mass": "148.18",
        "Melting Point": "183-184 °C"
    }
}