{
    "cas_no": "2531-80-8",
    "key_name": "Propanoic acid, 2-nitro-, ethyl ester",
    "cn_name": "2-硝基丙酸乙酯;",
    "alternate_name": "Propanoic acid, 2-nitro-, ethyl ester;Propionic acid, 2-nitro-, ethyl ester;Ethyl 2-nitropropionate;Ethyl α-nitropropionate;2-Nitropropionic acid ethyl ester;Ethyl 2-nitropropanoate;NSC 63896",
    "duplicated_cas_no": "152310-05-9;1438271-67-0",
    "SMILES": "C(C(OCC)=O)(N(=O)=O)C",
    "meta_data": {
        "InChI": "InChI=1S/C5H9NO4/c1-3-10-5(7)4(2)6(8)9/h4H,3H2,1-2H3",
        "InChIKey": null,
        "Canonical SMILES": "O=C(OCC)C(N(=O)=O)C",
        "Molecular Formula": "C<sub>5</sub>H<sub>9</sub>NO<sub>4</sub>",
        "Molecular Mass": "147.13",
        "Boiling Point": "190.5 °C",
        "Density": "1.1385 g/cm³ @ Temp: 20 °C"
    }
}