{
    "cas_no": "60547-97-9",
    "key_name": "2-(1-Piperazinyl)-4-amino-6,7-dimethoxyquinazoline",
    "cn_name": "2-哌嗪基-4-氨基-6,7-二甲氧基喹唑啉;",
    "alternate_name": "4-Quinazolinamine, 6,7-dimethoxy-2-(1-piperazinyl)-;6,7-Dimethoxy-2-(1-piperazinyl)-4-quinazolinamine;4-Amino-6,7-dimethoxy-2-(1-piperazinyl)quinazoline;4-Amino-2-(1-piperazinyl)-6,7-dimethoxyquinazoline;2-(1-Piperazinyl)-4-amino-6,7-dimethoxyquinazoline;2-(4-Piperazinyl)-4-amino-6,7-dimethoxyquinazoline;2-Piperazino-6,7-dimethoxy-4-quinazolinamine",
    "duplicated_cas_no": "",
    "SMILES": "NC=1C2=C(N=C(N1)N3CCNCC3)C=C(OC)C(OC)=C2",
    "meta_data": {
        "InChI": "InChI=1S/C14H19N5O2/c1-20-11-7-9-10(8-12(11)21-2)17-14(18-13(9)15)19-5-3-16-4-6-19/h7-8,16H,3-6H2,1-2H3,(H2,15,17,18)",
        "InChIKey": null,
        "Canonical SMILES": "N=1C(=NC=2C=C(OC)C(OC)=CC2C1N)N3CCNCC3",
        "Molecular Formula": "C<sub>14</sub>H<sub>19</sub>N<sub>5</sub>O<sub>2</sub>",
        "Molecular Mass": "289.33",
        "Melting Point": "230-232 °C"
    }
}