{
    "cas_no": "19549-80-5",
    "key_name": "4,6-Dimethyl-2-heptanone",
    "cn_name": null,
    "alternate_name": "2-Heptanone, 4,6-dimethyl-;4,6-Dimethyl-2-heptanone;2,4-Dimethyl-6-heptanone",
    "duplicated_cas_no": "",
    "SMILES": "C(C(CC(C)=O)C)C(C)C",
    "meta_data": {
        "InChI": "InChI=1S/C9H18O/c1-7(2)5-8(3)6-9(4)10/h7-8H,5-6H2,1-4H3",
        "InChIKey": null,
        "Canonical SMILES": "O=C(C)CC(C)CC(C)C",
        "Molecular Formula": "C<sub>9</sub>H<sub>18</sub>O",
        "Molecular Mass": "142.24",
        "Boiling Point": "190-191 °C",
        "Density": "0.9024 g/cm³ @ Temp: 0 °C"
    }
}