{
    "cas_no": "150-38-9",
    "key_name": "Trisodium EDTA",
    "cn_name": "N,N\"-1,2-乙烷基双[N-(羧甲基)-甘氨酸]三钠盐;乙烯二胺四乙酸三钠盐;乙二胺四乙酸三钠;",
    "alternate_name": "Glycine, <em>N</em>,<em>N</em>′-1,2-ethanediylbis[<em>N</em>-(carboxymethyl)-, sodium salt (1:3);Acetic acid, (ethylenedinitrilo)tetra-, trisodium salt;Glycine, <em>N</em>,<em>N</em>′-1,2-ethanediylbis[<em>N</em>-(carboxymethyl)-, trisodium salt;EDTA trisodium salt;Perma Kleer 50, trisodium salt;Sequestrene trisodium;Sequestrene trisodium salt;Trilon AO;Trisodium edetate;Trisodium hydrogen ethylenediaminetetraacetate;Trisodium hydrogen (ethylenedinitrilo)tetraacetate;Trisodium versenate;Versene 9;Ethylenediaminetetraacetic acid trisodium salt;Nevanaid-B powder;Trisodium ethylenediaminetetraacetate;Sequestrene Na<sub>3</sub>;Edetate trisodium;Trisodium EDTA;Clewat 300A;Trisodium ETDA;Chelest C;Limclair;Sequestrene NA 3T;EDTA-3Na;Chelest 2CS;Chelate C;Zonon T;Chelest 2C-SD;Clewat 3Na;EDTA trisodium",
    "duplicated_cas_no": "8014-66-2;97928-92-2;2588541-22-2",
    "SMILES": "N(CCN(CC(O)=O)CC(O)=O)(CC(O)=O)CC(O)=O.[Na]",
    "meta_data": {
        "InChI": "InChI=1S/C10H16N2O8.3Na/c13-7(14)3-11(4-8(15)16)1-2-12(5-9(17)18)6-10(19)20;;;/h1-6H2,(H,13,14)(H,15,16)(H,17,18)(H,19,20);;;",
        "InChIKey": null,
        "Canonical SMILES": "[Na].O=C(O)CN(CC(=O)O)CCN(CC(=O)O)CC(=O)O",
        "Molecular Formula": "C<sub>10</sub>H<sub>16</sub>N<sub>2</sub>O<sub>8</sub>.3Na",
        "Molecular Mass": "",
        "Melting Point": "&gt;300 °C"
    }
}