{
    "cas_no": "35897-13-3",
    "key_name": "1-Pentanol, 3-methyl-, 1-acetate",
    "cn_name": "3-甲基戊基醋酸酯;3-甲基-1-戊醇乙酸酯;",
    "alternate_name": "1-Pentanol, 3-methyl-, 1-acetate;1-Pentanol, 3-methyl-, acetate;3-Methyl-1-pentyl acetate;3-Methylpentyl acetate",
    "duplicated_cas_no": "",
    "SMILES": "C(CCOC(C)=O)(CC)C",
    "meta_data": {
        "InChI": "InChI=1S/C8H16O2/c1-4-7(2)5-6-10-8(3)9/h7H,4-6H2,1-3H3",
        "InChIKey": null,
        "Canonical SMILES": "O=C(OCCC(C)CC)C",
        "Molecular Formula": "C<sub>8</sub>H<sub>16</sub>O<sub>2</sub>",
        "Molecular Mass": "144.21",
        "Boiling Point": "164-165 °C"
    }
}