{
    "cas_no": "23056-33-9",
    "key_name": "2-Chloro-4-methyl-5-nitropyridine",
    "cn_name": "2-氯-5-硝基-4-甲基吡啶;",
    "alternate_name": "Pyridine, 2-chloro-4-methyl-5-nitro-;4-Picoline, 2-chloro-5-nitro-;2-Chloro-4-methyl-5-nitropyridine;2-Chloro-5-nitro-4-methylpyridine;NSC 402978;2-Chloro-5-nitro-4-picoline",
    "duplicated_cas_no": "",
    "SMILES": "N(=O)(=O)C=1C(C)=CC(Cl)=NC1",
    "meta_data": {
        "InChI": "InChI=1S/C6H5ClN2O2/c1-4-2-6(7)8-3-5(4)9(10)11/h2-3H,1H3",
        "InChIKey": null,
        "Canonical SMILES": "O=N(=O)C1=CN=C(Cl)C=C1C",
        "Molecular Formula": "C<sub>6</sub>H<sub>5</sub>ClN<sub>2</sub>O<sub>2</sub>",
        "Molecular Mass": "172.57",
        "Boiling Point": "91.2 °C @ Press: 5 Torr",
        "Melting Point": "38.5-39.5 °C"
    }
}