{
    "cas_no": "140-18-1",
    "key_name": "Phenylmethyl 2-chloroacetate",
    "cn_name": "氯乙酸苄酯;",
    "alternate_name": "Acetic acid, 2-chloro-, phenylmethyl ester;Acetic acid, chloro-, benzyl ester;Acetic acid, chloro-, phenylmethyl ester;Phenylmethyl 2-chloroacetate;Benzyl chloroacetate;Benzyl α-chloroacetate;Chloroacetic acid benzyl ester;NSC 8061;Benzyl 2-chloroacetate",
    "duplicated_cas_no": "",
    "SMILES": "C(OC(CCl)=O)C1=CC=CC=C1",
    "meta_data": {
        "InChI": "InChI=1S/C9H9ClO2/c10-6-9(11)12-7-8-4-2-1-3-5-8/h1-5H,6-7H2",
        "InChIKey": null,
        "Canonical SMILES": "O=C(OCC=1C=CC=CC1)CCl",
        "Molecular Formula": "C<sub>9</sub>H<sub>9</sub>ClO<sub>2</sub>",
        "Molecular Mass": "184.62",
        "Boiling Point": "132 °C @ Press: 12 Torr"
    }
}