{
    "cas_no": "26993-30-6",
    "key_name": "Sphingosine-1-phosphate",
    "cn_name": "D-赤型神经胺磷酸盐;",
    "alternate_name": "4-Octadecene-1,3-diol, 2-amino-, 1-(dihydrogen phosphate), (2<em>S</em>,3<em>R</em>,4<em>E</em>)-;4-Octadecene-1,3-diol, 2-amino-, 1-(dihydrogen phosphate), (<em>E</em>)-<span class=\"text-smallcaps\">D</span>-<em>erythro</em>-;4-Octadecene-1,3-diol, 2-amino-, 1-(dihydrogen phosphate), [<em>R</em>-[<em>R</em>*,<em>S</em>*-(<em>E</em>)]]-;Sphingosine 1-phosphate;<span class=\"text-smallcaps\">D</span>-<em>erythro</em>-Sphingosine-1-phosphate;C<sub>18</sub>-Sphingosine 1-phosphate;Sphingosine-1-phosphate;S1P;Proteins, S1P;S1P protein;Proteins, S1P",
    "duplicated_cas_no": "26993-39-5",
    "SMILES": "[C@@H]([C@@H](/C=C/CCCCCCCCCCCCC)O)(COP(=O)(O)O)N",
    "meta_data": {
        "InChI": "InChI=1S/C18H38NO5P/c1-2-3-4-5-6-7-8-9-10-11-12-13-14-15-18(20)17(19)16-24-25(21,22)23/h14-15,17-18,20H,2-13,16,19H2,1H3,(H2,21,22,23)/b15-14+/t17-,18+/m0/s1",
        "InChIKey": null,
        "Canonical SMILES": "O=P(O)(O)OCC(N)C(O)C=CCCCCCCCCCCCCC",
        "Molecular Formula": "C<sub>18</sub>H<sub>38</sub>NO<sub>5</sub>P",
        "Molecular Mass": "379.47",
        "Melting Point": "&gt;200 °C"
    }
}