{
    "cas_no": "16042-25-4",
    "key_name": "1<em>H</em>-Imidazole-2-carboxylic acid",
    "cn_name": "咪唑-2-甲酸;1H-咪唑-2-羧酸;",
    "alternate_name": "1<em>H</em>-Imidazole-2-carboxylic acid;Imidazole-2-carboxylic acid;2-Imidazocarboxylic acid",
    "duplicated_cas_no": "",
    "SMILES": "C(O)(=O)C=1NC=CN1",
    "meta_data": {
        "InChI": "InChI=1S/C4H4N2O2/c7-4(8)3-5-1-2-6-3/h1-2H,(H,5,6)(H,7,8)",
        "InChIKey": null,
        "Canonical SMILES": "O=C(O)C1=NC=CN1",
        "Molecular Formula": "C<sub>4</sub>H<sub>4</sub>N<sub>2</sub>O<sub>2</sub>",
        "Molecular Mass": "112.09",
        "Melting Point": "163-164 °C (decomp)"
    }
}