{
    "cas_no": "87-11-6",
    "key_name": "Thiolutin",
    "cn_name": "硫藤黄菌素;",
    "alternate_name": "Acetamide, <em>N</em>-(4,5-dihydro-4-methyl-5-oxo-1,2-dithiolo[4,3-<em>b</em>]pyrrol-6-yl)-;1,2-Dithiolo[4,3-<em>b</em>]pyrrol-5(4<em>H</em>)-one, 6-acetamido-4-methyl-;1,2-Dithiolo[4,3-<em>b</em>]pyrrole, acetamide deriv.;<em>N</em>-(4,5-Dihydro-4-methyl-5-oxo-1,2-dithiolo[4,3-<em>b</em>]pyrrol-6-yl)acetamide;3-Acetamido-5-methylpyrrolin-4-one[4,3-<em>d</em>]-1,2-dithiole;Thiolutin;Acetopyrrothin;NSC 3927",
    "duplicated_cas_no": "",
    "SMILES": "N(C(C)=O)C1=C2C(N(C)C1=O)=CSS2",
    "meta_data": {
        "InChI": "InChI=1S/C8H8N2O2S2/c1-4(11)9-6-7-5(3-13-14-7)10(2)8(6)12/h3H,1-2H3,(H,9,11)",
        "InChIKey": null,
        "Canonical SMILES": "O=C(NC=1C(=O)N(C2=CSSC12)C)C",
        "Molecular Formula": "C<sub>8</sub>H<sub>8</sub>N<sub>2</sub>O<sub>2</sub>S<sub>2</sub>",
        "Molecular Mass": "228.29",
        "Boiling Point": "200 °C",
        "Melting Point": "256-257 °C (decomp)"
    }
}