{
    "cas_no": "2432-11-3",
    "key_name": "2,6-Diphenylphenol",
    "cn_name": "2,6-二苯基苯酚;",
    "alternate_name": "[1,1′:3′,1′′-Terphenyl]-2′-ol;[<em>m</em>-Terphenyl]-2′-ol;Phenol, 2,6-diphenyl-;2,6-Diphenylphenol;2′-Hydroxy-<em>m</em>-terphenyl",
    "duplicated_cas_no": "",
    "SMILES": "OC1=C(C=CC=C1C2=CC=CC=C2)C3=CC=CC=C3",
    "meta_data": {
        "InChI": "InChI=1S/C18H14O/c19-18-16(14-8-3-1-4-9-14)12-7-13-17(18)15-10-5-2-6-11-15/h1-13,19H",
        "InChIKey": null,
        "Canonical SMILES": "OC1=C(C=CC=C1C=2C=CC=CC2)C=3C=CC=CC3",
        "Molecular Formula": "C<sub>18</sub>H<sub>14</sub>O",
        "Molecular Mass": "246.30",
        "Boiling Point": "230-235 °C @ Press: 14 Torr",
        "Melting Point": "101 °C"
    }
}