{
    "cas_no": "1000-86-8",
    "key_name": "2,4-Dimethyl-1,3-pentadiene",
    "cn_name": "2,4-二甲基-1,3-戊二烯;",
    "alternate_name": "1,3-Pentadiene, 2,4-dimethyl-;2,4-Dimethyl-1,3-pentadiene;1,1,3-Trimethylbutadiene;2,4-Dimethylpenta-2,4-diene;NSC 123451",
    "duplicated_cas_no": "",
    "SMILES": "C(C(C)=C)=C(C)C",
    "meta_data": {
        "InChI": "InChI=1S/C7H12/c1-6(2)5-7(3)4/h5H,1H2,2-4H3",
        "InChIKey": null,
        "Canonical SMILES": "C=C(C=C(C)C)C",
        "Molecular Formula": "C<sub>7</sub>H<sub>12</sub>",
        "Molecular Mass": "96.17",
        "Boiling Point": "93.2 °C",
        "Melting Point": "-114 °C",
        "Density": "0.7368 g/cm³ @ Temp: 20 °C"
    }
}