{
    "cas_no": "1940-18-7",
    "key_name": "1-Ethylcyclohexanol",
    "cn_name": "1-乙基环己醇;",
    "alternate_name": "Cyclohexanol, 1-ethyl-;1-Ethylcyclohexanol;1-Ethyl-1-hydroxycyclohexane;1-Ethyl-1-cyclohexanol;NSC 25550;1-Hydroxy-1-ethylcyclohexane",
    "duplicated_cas_no": "",
    "SMILES": "C(C)C1(O)CCCCC1",
    "meta_data": {
        "InChI": "InChI=1S/C8H16O/c1-2-8(9)6-4-3-5-7-8/h9H,2-7H2,1H3",
        "InChIKey": null,
        "Canonical SMILES": "OC1(CC)CCCCC1",
        "Molecular Formula": "C<sub>8</sub>H<sub>16</sub>O",
        "Molecular Mass": "128.21",
        "Boiling Point": "166 °C",
        "Melting Point": "34.5 °C",
        "Density": "0.9226 g/cm³ @ Temp: 25 °C"
    }
}