{
    "cas_no": "1671-82-5",
    "key_name": "1-Methyl-2-nitroimidazole",
    "cn_name": null,
    "alternate_name": "1<em>H</em>-Imidazole, 1-methyl-2-nitro-;Imidazole, 1-methyl-2-nitro-;1-Methyl-2-nitro-1<em>H</em>-imidazole;1-Methyl-2-nitroimidazole;KA 111;SR 2519;2-Nitro-1-methylimidazole;NSC 307223",
    "duplicated_cas_no": "176738-19-5",
    "SMILES": "N(=O)(=O)C=1N(C)C=CN1",
    "meta_data": {
        "InChI": "InChI=1S/C4H5N3O2/c1-6-3-2-5-4(6)7(8)9/h2-3H,1H3",
        "InChIKey": null,
        "Canonical SMILES": "O=N(=O)C1=NC=CN1C",
        "Molecular Formula": "C<sub>4</sub>H<sub>5</sub>N<sub>3</sub>O<sub>2</sub>",
        "Molecular Mass": "127.10",
        "Melting Point": "100-102 °C"
    }
}