{
    "cas_no": "14861-16-6",
    "key_name": "2-Phenylethyl β-<span class=\"text-smallcaps\">D</span>-galactopyranoside",
    "cn_name": null,
    "alternate_name": "β-<span class=\"text-smallcaps\">D</span>-Galactopyranoside, 2-phenylethyl;Galactopyranoside, phenethyl, β-<span class=\"text-smallcaps\">D</span>-;2-Phenylethyl β-<span class=\"text-smallcaps\">D</span>-galactopyranoside;Phenethyl β-<span class=\"text-smallcaps\">D</span>-galactopyranoside;Phenethyl β-<span class=\"text-smallcaps\">D</span>-galactoside;2-Phenylethyl β-<span class=\"text-smallcaps\">D</span>-galactoside",
    "duplicated_cas_no": "55520-11-1",
    "SMILES": "O(CCC1=CC=CC=C1)[C@@H]2O[C@H](CO)[C@H](O)[C@H](O)[C@H]2O",
    "meta_data": {
        "InChI": "InChI=1S/C14H20O6/c15-8-10-11(16)12(17)13(18)14(20-10)19-7-6-9-4-2-1-3-5-9/h1-5,10-18H,6-8H2/t10-,11+,12+,13-,14-/m1/s1",
        "InChIKey": null,
        "Canonical SMILES": "OCC1OC(OCCC=2C=CC=CC2)C(O)C(O)C1O",
        "Molecular Formula": "C<sub>14</sub>H<sub>20</sub>O<sub>6</sub>",
        "Molecular Mass": "284.30",
        "Melting Point": "97-98 °C"
    }
}