{
    "cas_no": "855-96-9",
    "key_name": "Eupatorin",
    "cn_name": "3,5-二羟基-4,6,7-三甲氧基黄酮;半齿泽兰素;",
    "alternate_name": "4<em>H</em>-1-Benzopyran-4-one, 5-hydroxy-2-(3-hydroxy-4-methoxyphenyl)-6,7-dimethoxy-;Flavone, 3′,5-dihydroxy-4′,6,7-trimethoxy-;5-Hydroxy-2-(3-hydroxy-4-methoxyphenyl)-6,7-dimethoxy-4<em>H</em>-1-benzopyran-4-one;Eupatorin;Eupatorine;3′,5-Dihydroxy-4′,6,7-trimethoxyflavone;6-Methoxyluteolin 4′,7-dimethyl ether;NSC 106402;5,3′-Dihydroxy-6,7,4′-trimethoxyflavone;E 4660;5,3′-Didemethylsinensetin",
    "duplicated_cas_no": "1391-48-6",
    "SMILES": "OC1=C2C(OC(=CC2=O)C3=CC(O)=C(OC)C=C3)=CC(OC)=C1OC",
    "meta_data": {
        "InChI": "InChI=1S/C18H16O7/c1-22-12-5-4-9(6-10(12)19)13-7-11(20)16-14(25-13)8-15(23-2)18(24-3)17(16)21/h4-8,19,21H,1-3H3",
        "InChIKey": null,
        "Canonical SMILES": "O=C1C=C(OC=2C=C(OC)C(OC)=C(O)C12)C=3C=CC(OC)=C(O)C3",
        "Molecular Formula": "C<sub>18</sub>H<sub>16</sub>O<sub>7</sub>",
        "Molecular Mass": "344.32",
        "Melting Point": "190-193 °C"
    }
}