{
    "cas_no": "58-94-6",
    "key_name": "Chlorothiazide",
    "cn_name": "氯噻嗪;6-氯-2H-1,2,4-苯并噻二嗪-7-磺酰胺-1,1-二氧化物;",
    "alternate_name": "2<em>H</em>-1,2,4-Benzothiadiazine-7-sulfonamide, 6-chloro-, 1,1-dioxide;Alurene;6-Chloro-2<em>H</em>-1,2,4-benzothiadiazine-7-sulfonamide 1,1-dioxide;6-Chloro-7-sulfamoyl-2<em>H</em>-1,2,4-benzothiadiazine 1,1-dioxide;Chlorothiazide;Chlorthiazide;Chlotride;Diuresal;Diurilix;Diutrid;Minzil;Neo-Dema;Salisan;Saluretil;Saluric;Yadalan;Chlorurit;Diuril;6-Chloro-7-sulfamyl-1,2,4-benzothiadiazine 1,1-dioxide;Chlorosal;Clotride;Diurite;Flumen;Salunil;Warduzide;Urinex;Chlorothiazid;Thiazide;Diuril Boluses;NSC 25693;MeSH ID: D002740",
    "duplicated_cas_no": "",
    "SMILES": "O=S1(=O)C=2C(=CC(Cl)=C(S(N)(=O)=O)C2)NC=N1",
    "meta_data": {
        "InChI": "InChI=1S/C7H6ClN3O4S2/c8-4-1-5-7(2-6(4)16(9,12)13)17(14,15)11-3-10-5/h1-3H,(H,10,11)(H2,9,12,13)",
        "InChIKey": null,
        "Canonical SMILES": "O=S1(=O)N=CNC2=CC(Cl)=C(C=C21)S(=O)(=O)N",
        "Molecular Formula": "C<sub>7</sub>H<sub>6</sub>ClN<sub>3</sub>O<sub>4</sub>S<sub>2</sub>",
        "Molecular Mass": "295.72",
        "Melting Point": "342.5-343 °C (decomp)"
    }
}