{
    "cas_no": "93-09-4",
    "key_name": "2-Naphthoic acid",
    "cn_name": "2-萘甲酸;",
    "alternate_name": "2-Naphthalenecarboxylic acid;2-Naphthoic acid;Isonaphthoic acid;2-Maythic acid;β-Naphthalenecarboxylic acid;β-Naphthoic acid;2-Carboxynaphthalene;2-Naphthylcarboxylic acid;NSC 59901",
    "duplicated_cas_no": "",
    "SMILES": "C(O)(=O)C1=CC2=C(C=C1)C=CC=C2",
    "meta_data": {
        "InChI": "InChI=1S/C11H8O2/c12-11(13)10-6-5-8-3-1-2-4-9(8)7-10/h1-7H,(H,12,13)",
        "InChIKey": null,
        "Canonical SMILES": "O=C(O)C=1C=CC=2C=CC=CC2C1",
        "Molecular Formula": "C<sub>11</sub>H<sub>8</sub>O<sub>2</sub>",
        "Molecular Mass": "172.18",
        "Boiling Point": "&gt;300 °C",
        "Melting Point": "185.5 °C",
        "Density": "0.9629 g/cm³"
    }
}