{
    "cas_no": "6836-19-7",
    "key_name": "7-Methoxy-1-tetralone",
    "cn_name": "7-甲氧基-1-萘满酮;",
    "alternate_name": "1(2<em>H</em>)-Naphthalenone, 3,4-dihydro-7-methoxy-;3,4-Dihydro-7-methoxy-1(2<em>H</em>)-naphthalenone;7-Methoxy-1-tetralone;7-Methoxy-α-tetralone;7-Methoxy-3,4-dihydro-1(2<em>H</em>)-naphthalenone;7-Methoxytetralone;7-Methoxy-3,4-dihydro-2<em>H</em>-naphthalen-1-one;NSC 97611;7-Methoxy-1,2,3,4-tetrahydro-1-oxonaphthalene;7-Methoxy-1,2,3,4-tetrahydro-1-naphthalenone;7-Methoxytetralin-1-one",
    "duplicated_cas_no": "",
    "SMILES": "O=C1C=2C(=CC=C(OC)C2)CCC1",
    "meta_data": {
        "InChI": "InChI=1S/C11H12O2/c1-13-9-6-5-8-3-2-4-11(12)10(8)7-9/h5-7H,2-4H2,1H3",
        "InChIKey": null,
        "Canonical SMILES": "O=C1C2=CC(OC)=CC=C2CCC1",
        "Molecular Formula": "C<sub>11</sub>H<sub>12</sub>O<sub>2</sub>",
        "Molecular Mass": "176.21",
        "Boiling Point": "140 °C @ Press: 0.1 Torr",
        "Melting Point": "67-68 °C"
    }
}