{
    "cas_no": "2476-35-9",
    "key_name": "5-Bromo-2-methoxybenzoic acid",
    "cn_name": "5-溴-2-甲氧基苯甲酸;2-甲氧基-5-溴苯甲酸;",
    "alternate_name": "Benzoic acid, 5-bromo-2-methoxy-;<em>o</em>-Anisic acid, 5-bromo-;5-Bromo-2-methoxybenzoic acid;5-Bromo-<em>o</em>-anisic acid;2-Methoxy-5-bromobenzoic acid;Benzoic acid, 3-(bromocarbonyl)-4-methoxy-",
    "duplicated_cas_no": "2375204-57-0",
    "SMILES": "C(O)(=O)C1=C(OC)C=CC(Br)=C1",
    "meta_data": {
        "InChI": "InChI=1S/C8H7BrO3/c1-12-7-3-2-5(9)4-6(7)8(10)11/h2-4H,1H3,(H,10,11)",
        "InChIKey": null,
        "Canonical SMILES": "O=C(O)C1=CC(Br)=CC=C1OC",
        "Molecular Formula": "C<sub>8</sub>H<sub>7</sub>BrO<sub>3</sub>",
        "Molecular Mass": "231.04",
        "Melting Point": "121 °C"
    }
}