{
    "cas_no": "2564-83-2",
    "key_name": "Tempo",
    "cn_name": "2,2,6,6-四甲基哌啶氧化物;",
    "alternate_name": "1-Piperidinyloxy, 2,2,6,6-tetramethyl-;Piperidinooxy, 2,2,6,6-tetramethyl-;2,2,6,6-Tetramethyl-1-piperidinyloxy;1,1,5,5-Tetramethylpentamethylene nitroxide;2,2,6,6-Tetramethylpiperidinooxy;2,2,6,6-Tetramethylpiperidine-1-oxyl;2,2,6,6-Tetramethylpiperidine <em>N</em>-oxyl;2,2,6,6-Tetramethylpiperidin-1-oxy;2,2,6,6-Tetramethylpiperidinooxy radical;2,2,6,6-Tetramethylpiperidinoxyl radical;Tanane;Tanan;2,2,6,6-Tetramethylpiperidine <em>N</em>-oxide radical;2,2,6,6-Tetramethylpiperidine <em>N</em>-oxyl radical;2,2,6,6-Tetramethylpiperidinoxyl;2,2,6,6-Tetramethyl-1-piperadoxyl;2,2,6,6-Tetramethylpiperidoxyl;2,2,6,6-Tetramethylpiperidinyloxy;2,2,6,6-Tetramethylpiperidinyl-<em>N</em>-oxy;1-Oxyl-2,2,6,6-tetramethylpiperidine;2,2,6,6-Tetramethyl-1-piperidinoxyl;2,2,6,6-Tetramethyl-1-oxylpiperidine;2,2,6,6-Tetramethylpiperidinooxyl;2,2,6,6-Tetramethylpiperidinyl-1-oxyl;2,2,6,6-Tetramethylpiperidine nitroxide;2,2,6,6-Tetramethyl-1-piperidyloxy;2,2,6,6-Tetramethylpiperidine nitroxide radical;Tempo;2,2,6,6-Tetramethylpiperidinyl 1-oxide;2,2,6,6-Tetramethylpiperidin-1-oxyl radical;HO 6;2,2,6,6-Tetramethylpiperidino-1-oxy;2,2,6,6-Tetramethylpiperidin-<em>N</em>-oxyl;2,2,6,6-Tetramethylpiperidine <em>N</em>-oxy;2,2,6,6-Tetramethylpiperidine <em>N</em>-oxide;2,2,6,6-Tetramethylpiperidine oxide;TMPO;2,2,6,6-Tetramethyl-1-piperidine-<em>N</em>-oxyl;2,2,6,6-Tetramethylpiperidinoxy;T 3751",
    "duplicated_cas_no": "25657-03-8;26933-82-4;54637-06-8;64104-42-3;125012-91-1;126517-51-9;1357396-80-5",
    "SMILES": "",
    "meta_data": {
        "InChI": "",
        "InChIKey": null,
        "Canonical SMILES": "",
        "Molecular Formula": "C<sub>9</sub>H<sub>18</sub>NO",
        "Molecular Mass": "",
        "Melting Point": "35 °C"
    }
}