{
    "cas_no": "2338-20-7",
    "key_name": "3,4,5-Triiodobenzoic acid",
    "cn_name": "3,4,5-三碘苯甲酸;",
    "alternate_name": "Benzoic acid, 3,4,5-triiodo-;3,4,5-Triiodobenzoic acid;NSC 11811",
    "duplicated_cas_no": "",
    "SMILES": "C(O)(=O)C1=CC(I)=C(I)C(I)=C1",
    "meta_data": {
        "InChI": "InChI=1S/C7H3I3O2/c8-4-1-3(7(11)12)2-5(9)6(4)10/h1-2H,(H,11,12)",
        "InChIKey": null,
        "Canonical SMILES": "O=C(O)C1=CC(I)=C(I)C(I)=C1",
        "Molecular Formula": "C<sub>7</sub>H<sub>3</sub>I<sub>3</sub>O<sub>2</sub>",
        "Molecular Mass": "499.81",
        "Melting Point": "288 °C"
    }
}