{
    "cas_no": "1520-21-4",
    "key_name": "4-Aminostyrene",
    "cn_name": "4-氨基苯乙烯;",
    "alternate_name": "Benzenamine, 4-ethenyl-;Aniline, <em>p</em>-vinyl-;4-Ethenylbenzenamine;<em>p</em>-Vinylaniline;4-Aminostyrene;4-Vinylaniline;<em>p</em>-Aminostyrene;<em>p</em>-Ethenylaniline;4-Vinylphenylamine;4-Vinylbenzenamine;1-Amino-4-vinylbenzene;4-Ethenylaniline",
    "duplicated_cas_no": "",
    "SMILES": "C(=C)C1=CC=C(N)C=C1",
    "meta_data": {
        "InChI": "InChI=1S/C8H9N/c1-2-7-3-5-8(9)6-4-7/h2-6H,1,9H2",
        "InChIKey": null,
        "Canonical SMILES": "C=CC1=CC=C(N)C=C1",
        "Molecular Formula": "C<sub>8</sub>H<sub>9</sub>N",
        "Molecular Mass": "119.16",
        "Boiling Point": "98-100 °C @ Press: 4 Torr",
        "Melting Point": "23.5 °C",
        "Density": "1.012 g/cm³ @ Temp: 21 °C"
    }
}