{
    "cas_no": "4500-12-3",
    "key_name": "Adamantanone oxime",
    "cn_name": "2-金刚烷酮肟;",
    "alternate_name": "Tricyclo[3.3.1.1<sup>3,7</sup>]decan-2-one, oxime;2-Adamantanone, oxime;Tricyclo[3.3.1.1<sup>3,7</sup>]decanone, oxime;Adamantanone oxime;2-Hydroxyiminoadamantane;NSC 127840",
    "duplicated_cas_no": "",
    "SMILES": "N(O)=C1C2CC3CC1CC(C2)C3",
    "meta_data": {
        "InChI": "InChI=1S/C10H15NO/c12-11-10-8-2-6-1-7(4-8)5-9(10)3-6/h6-9,12H,1-5H2",
        "InChIKey": null,
        "Canonical SMILES": "ON=C1C2CC3CC1CC(C2)C3",
        "Molecular Formula": "C<sub>10</sub>H<sub>15</sub>NO",
        "Molecular Mass": "165.23",
        "Melting Point": "162.8-163.6 °C"
    }
}