{
    "cas_no": "630-08-0",
    "key_name": "Carbon monoxide",
    "cn_name": "纯一氧化碳;一氧化碳;",
    "alternate_name": "Carbon monoxide;Carbon oxide (CO);Carbon monooxide;N 37;HBI 002",
    "duplicated_cas_no": "18421-60-8;82063-46-5;153929-54-5;155399-52-3;162342-48-5;167416-30-0;192819-80-0;201230-82-2;724693-69-0;740776-49-2;807306-74-7;1976049-23-6",
    "SMILES": "[C-]#[O+]",
    "meta_data": {
        "InChI": "InChI=1S/CO/c1-2",
        "InChIKey": null,
        "Canonical SMILES": "[C-]#[O+]",
        "Molecular Formula": "CO",
        "Molecular Mass": "",
        "Boiling Point": "-191.5 °C",
        "Melting Point": "-205 °C",
        "Density": "1.25 x 10<sup>-3</sup> g/cm³ @ Temp: 0 °C"
    }
}