{
    "cas_no": "59-87-0",
    "key_name": "Nitrofurazone",
    "cn_name": "呋喃西林;硝呋醛;呋喃新;呋喃星;硝基呋喃腙;",
    "alternate_name": "Hydrazinecarboxamide, 2-[(5-nitro-2-furanyl)methylene]-;2-Furaldehyde, 5-nitro-, semicarbazone;Semioxamazide, 1-(5-nitrofurfurylidene)-;2-[(5-Nitro-2-furanyl)methylene]hydrazinecarboxamide;Aldomycin;Babrocid;Chemofuran;Furacycline;Furacin;Furaskin;Furesol;Nefco;NFS;Nifuzon;5-Nitro-2-furaldehyde semicarbazone;Nitrofurazone;5-Nitro-2-furfuraldehyde semicarbazone;5-Nitrofurfural semicarbazone;1-(5-Nitro-2-furfurylidene)semicarbazide;Vabrocid;Veterinary nitrofurazone;Furacilin;Furaziline;Nitrofuraldehyde semicarbazone;5-Nitro-2-furfural semicarbazone;2-Furancarboxaldehyde, 5-nitro-, semicarbazone;Furacine;(5-Nitro-2-furfurylidenamino)urea;Monafuracin;Nitrofural;Amifur;Nfz mix;Nitrofuran (bactericide);Mastofuran;Alfucin;Furaldon;Otofural;5-Nitrofurazone;Nifucin;Nitrofuran;Furaplast;Furalcyn;Furacilinum;Furacoccid;Coxistat;Mammex;Furazol W;Nitrozone;Furacinetten;NSC 1602;NSC 2100;NSC 44009;FuraZin;Fura-Septin;Furaseen;Topifuran;MeSH ID: D009583",
    "duplicated_cas_no": "8027-71-2;60051-85-6",
    "SMILES": "N(=O)(=O)C=1OC(C=NNC(N)=O)=CC1",
    "meta_data": {
        "InChI": "InChI=1S/C6H6N4O4/c7-6(11)9-8-3-4-1-2-5(14-4)10(12)13/h1-3H,(H3,7,9,11)",
        "InChIKey": null,
        "Canonical SMILES": "O=C(N)NN=CC=1OC(=CC1)N(=O)=O",
        "Molecular Formula": "C<sub>6</sub>H<sub>6</sub>N<sub>4</sub>O<sub>4</sub>",
        "Molecular Mass": "198.14",
        "Boiling Point": "236-240 °C",
        "Melting Point": "238 °C (decomp)"
    }
}