{
    "cas_no": "2457-47-8",
    "key_name": "3,5-Dichloropyridine",
    "cn_name": "3,5-二氯吡啶;",
    "alternate_name": "Pyridine, 3,5-dichloro-;3,5-Dichloropyridine;NSC 60546",
    "duplicated_cas_no": "",
    "SMILES": "ClC=1C=C(Cl)C=NC1",
    "meta_data": {
        "InChI": "InChI=1S/C5H3Cl2N/c6-4-1-5(7)3-8-2-4/h1-3H",
        "InChIKey": null,
        "Canonical SMILES": "ClC1=CN=CC(Cl)=C1",
        "Molecular Formula": "C<sub>5</sub>H<sub>3</sub>Cl<sub>2</sub>N",
        "Molecular Mass": "147.99",
        "Melting Point": "65-67 °C"
    }
}