{
    "cas_no": "610-93-5",
    "key_name": "6-Nitrophthalide",
    "cn_name": null,
    "alternate_name": "1(3<em>H</em>)-Isobenzofuranone, 6-nitro-;Phthalide, 6-nitro-;6-Nitro-1(3<em>H</em>)-isobenzofuranone;6-Nitrophthalide;NSC 11332",
    "duplicated_cas_no": "",
    "SMILES": "O=C1C=2C(=CC=C(N(=O)=O)C2)CO1",
    "meta_data": {
        "InChI": "InChI=1S/C8H5NO4/c10-8-7-3-6(9(11)12)2-1-5(7)4-13-8/h1-3H,4H2",
        "InChIKey": null,
        "Canonical SMILES": "O=C1OCC2=CC=C(C=C12)N(=O)=O",
        "Molecular Formula": "C<sub>8</sub>H<sub>5</sub>NO<sub>4</sub>",
        "Molecular Mass": "179.13",
        "Melting Point": "145 °C"
    }
}