{
    "cas_no": "49697-38-3",
    "key_name": "Rimexolone",
    "cn_name": null,
    "alternate_name": "Androsta-1,4-dien-3-one, 11-hydroxy-16,17-dimethyl-17-(1-oxopropyl)-, (11β,16α,17β)-;(11β,16α,17β)-11-Hydroxy-16,17-dimethyl-17-(1-oxopropyl)androsta-1,4-dien-3-one;11β-Hydroxy-16α,17,21-trimethylpregna-1,4-diene-3,20-dione;Org 6216;Rimexolone;11β-Hydroxy-16α,17α,21-trimethyl-5α-pregna-1,4-diene-3,20-dione;Vexol;Trimexolone;Rimexel",
    "duplicated_cas_no": "",
    "SMILES": "C[C@@]12[C@]([C@]3([C@]([C@@H](O)C1)([C@]4(C)C(CC3)=CC(=O)C=C4)[H])[H])(C[C@@H](C)[C@@]2(C(CC)=O)C)[H]",
    "meta_data": {
        "InChI": "InChI=1S/C24H34O3/c1-6-20(27)24(5)14(2)11-18-17-8-7-15-12-16(25)9-10-22(15,3)21(17)19(26)13-23(18,24)4/h9-10,12,14,17-19,21,26H,6-8,11,13H2,1-5H3/t14-,17+,18+,19+,21-,22+,23+,24-/m1/s1",
        "InChIKey": null,
        "Canonical SMILES": "O=C1C=CC2(C(=C1)CCC3C4CC(C)C(C(=O)CC)(C)C4(C)CC(O)C32)C",
        "Molecular Formula": "C<sub>24</sub>H<sub>34</sub>O<sub>3</sub>",
        "Molecular Mass": "370.52",
        "Melting Point": "258-268 °C"
    }
}