{
    "cas_no": "54914-85-1",
    "key_name": "1,2-Bis(3′-methylphenoxy)ethane",
    "cn_name": "1,2-双(3-甲基苯氧基)乙烷;1,2-二间甲苯氧基乙烷;",
    "alternate_name": "Benzene, 1,1′-[1,2-ethanediylbis(oxy)]bis[3-methyl-;1,1′-[1,2-Ethanediylbis(oxy)]bis[3-methylbenzene];1,2-Di(3-methylphenoxy)ethane;1,2-Bis(3-methylphenoxy)ethane;1,2-Bis(<em>m</em>-tolyloxy)ethane;1,2-Di(<em>m</em>-tolyloxy)ethane;1,2-Bis(3′-methylphenoxy)ethane;Ethylene glycol bis(<em>m</em>-tolyl ether);NSC 117525;KS 232;1-Methyl-3-[2-(3-methylphenoxy)ethoxy]benzene;1,1′-[ethane-1,2-diylbis(oxy)]bis(3-methylbenzene)",
    "duplicated_cas_no": "",
    "SMILES": "O(CCOC1=CC(C)=CC=C1)C2=CC(C)=CC=C2",
    "meta_data": {
        "InChI": "InChI=1S/C16H18O2/c1-13-5-3-7-15(11-13)17-9-10-18-16-8-4-6-14(2)12-16/h3-8,11-12H,9-10H2,1-2H3",
        "InChIKey": null,
        "Canonical SMILES": "O(C1=CC=CC(=C1)C)CCOC2=CC=CC(=C2)C",
        "Molecular Formula": "C<sub>16</sub>H<sub>18</sub>O<sub>2</sub>",
        "Molecular Mass": "242.31",
        "Melting Point": "98 °C"
    }
}