{
    "cas_no": "120014-07-5",
    "key_name": "1-Benzyl-4-[(5,6-dimethoxy-1-oxoindan-2-ylidene)methyl]piperidine",
    "cn_name": null,
    "alternate_name": "1<em>H</em>-Inden-1-one, 2,3-dihydro-5,6-dimethoxy-2-[[1-(phenylmethyl)-4-piperidinyl]methylene]-;2,3-Dihydro-5,6-dimethoxy-2-[[1-(phenylmethyl)-4-piperidinyl]methylene]-1<em>H</em>-inden-1-one;1-Benzyl-4-[(5,6-dimethoxy-1-oxoindan-2-ylidene)methyl]piperidine;2-(1-Benzylpiperidin-4-ylmethylidene)-5,6-dimethoxyindan-1-one;2-[(1-Benzylpiperidin-4-yl)methylidene]-5,6-dimethoxy-3<em>H</em>-inden-1-one;2-((1-Benzylpiperidin-4-yl)methylene)-5,6-dimethoxy-2,3-dihydro-1<em>H</em>-inden-1-one",
    "duplicated_cas_no": "",
    "SMILES": "O=C1C=2C(=CC(OC)=C(OC)C2)CC1=CC3CCN(CC4=CC=CC=C4)CC3",
    "meta_data": {
        "InChI": "InChI=1S/C24H27NO3/c1-27-22-14-19-13-20(24(26)21(19)15-23(22)28-2)12-17-8-10-25(11-9-17)16-18-6-4-3-5-7-18/h3-7,12,14-15,17H,8-11,13,16H2,1-2H3",
        "InChIKey": null,
        "Canonical SMILES": "O=C1C2=CC(OC)=C(OC)C=C2CC1=CC3CCN(CC=4C=CC=CC4)CC3",
        "Molecular Formula": "C<sub>24</sub>H<sub>27</sub>NO<sub>3</sub>",
        "Molecular Mass": "377.48",
        "Melting Point": "171-174 °C"
    }
}