{
    "cas_no": "68-12-2",
    "key_name": "Dimethylformamide",
    "cn_name": "N,N-二甲基甲酰胺;",
    "alternate_name": "Formamide, <em>N</em>,<em>N</em>-dimethyl-;<em>N</em>,<em>N</em>-Dimethylformamide;Dimethylformamide;DMF;<em>N</em>-Formyldimethylamine;DMFA;DMF (amide);<em>N</em>,<em>N</em>-Dimethylmethanamide;<em>N</em>,<em>N</em>-Dimethylformaldehyde;Virodene-P 058;NSC 5356;D 165635;MeSH ID: D004126;PHR 1553;D 0722",
    "duplicated_cas_no": "114057-15-7;15175-63-0;15175-77-6;33513-42-7",
    "SMILES": "N(C=O)(C)C",
    "meta_data": {
        "InChI": "InChI=1S/C3H7NO/c1-4(2)3-5/h3H,1-2H3",
        "InChIKey": null,
        "Canonical SMILES": "O=CN(C)C",
        "Molecular Formula": "C<sub>3</sub>H<sub>7</sub>NO",
        "Molecular Mass": "73.09",
        "Boiling Point": "153 °C @ Press: 760 Torr",
        "Melting Point": "-61 °C",
        "Density": "0.9445 g/cm³ @ Temp: 25 °C"
    }
}