{
    "cas_no": "1963-21-9",
    "key_name": "Glycyl-<span class=\"text-smallcaps\">L</span>-valine",
    "cn_name": "甘氨酰-L-缬氨酸;",
    "alternate_name": "<span class=\"text-smallcaps\">L</span>-Valine, glycyl-;Valine, <em>N</em>-glycyl-, <span class=\"text-smallcaps\">L</span>-;<span class=\"text-smallcaps\">L</span>-Valine, <em>N</em>-glycyl-;Glycyl-<span class=\"text-smallcaps\">L</span>-valine;Glycylvaline;<em>N</em>-Glycyl-<span class=\"text-smallcaps\">L</span>-valine;NSC 163327;NSC 83255;48: PN: EP2161028 PAGE: 10 claimed protein;43: PN: WO2014063098 TABLE: 5 claimed sequence;158: PN: US20130123467 SEQID: 189 claimed protein;19: PN: WO2014120891 PAGE: 141 claimed sequence;4: PN: US20150203546 PAGE: 78 claimed sequence;(2S)-2-(2-Aminoacetamido)-3-methylbutanoic acid;(<em>S</em>)-2-(2-Aminoacetamido)-3-methylbutanoic acid;84: PN: WO2021147954 SEQID: 84 claimed protein;487: PN: WO2022215055 SEQID: 487 claimed protein;107: PN: WO2023161197 SEQID: 109 claimed sequence",
    "duplicated_cas_no": "171920-33-5",
    "SMILES": "[C@H](NC(CN)=O)([C@H](C)C)C(O)=O",
    "meta_data": {
        "InChI": "InChI=1S/C7H14N2O3/c1-4(2)6(7(11)12)9-5(10)3-8/h4,6H,3,8H2,1-2H3,(H,9,10)(H,11,12)/t6-/m0/s1",
        "InChIKey": null,
        "Canonical SMILES": "O=C(O)C(NC(=O)CN)C(C)C",
        "Molecular Formula": "C<sub>7</sub>H<sub>14</sub>N<sub>2</sub>O<sub>3</sub>",
        "Molecular Mass": "174.20",
        "Melting Point": "242-243 °C (decomp)"
    }
}