{
    "cas_no": "5653-67-8",
    "key_name": "2,3-Dimethoxybenzyl alcohol",
    "cn_name": "2,3-二甲氧基苄醇;",
    "alternate_name": "Benzenemethanol, 2,3-dimethoxy-;<em>o</em>-Veratryl alcohol;2,3-Dimethoxybenzenemethanol;2,3-Dimethoxybenzyl alcohol;NSC 403220;NSC 87568;(2,3-Dimethoxyphenyl)methanol;2,3-Dimethoxybenzylic alcohol;Vetatryl alcohol",
    "duplicated_cas_no": "",
    "SMILES": "O(C)C1=C(CO)C=CC=C1OC",
    "meta_data": {
        "InChI": "InChI=1S/C9H12O3/c1-11-8-5-3-4-7(6-10)9(8)12-2/h3-5,10H,6H2,1-2H3",
        "InChIKey": null,
        "Canonical SMILES": "OCC=1C=CC=C(OC)C1OC",
        "Molecular Formula": "C<sub>9</sub>H<sub>12</sub>O<sub>3</sub>",
        "Molecular Mass": "168.19",
        "Boiling Point": "145-150 °C @ Press: 12 Torr",
        "Melting Point": "48 °C"
    }
}