{
    "cas_no": "137-06-4",
    "key_name": "2-Methylbenzenethiol",
    "cn_name": "2-甲基苯硫酚;邻甲苯硫酚;2-巯基甲苯;",
    "alternate_name": "Benzenethiol, 2-methyl-;<em>o</em>-Toluenethiol;2-Methylbenzenethiol;<em>o</em>-Thiocresol;<em>o</em>-Methylbenzenethiol;<em>o</em>-Methylthiophenol;2-Methylthiophenol;<em>o</em>-Mercaptotoluene;2-Toluenethiol;<em>o</em>-Tolyl mercaptan;2-Methylphenylthiol;<em>o</em>-Tolylthiol;NSC 80655;2-Methylbenzothiol;2-Methylbenzene-1-thiol",
    "duplicated_cas_no": "1623130-96-0",
    "SMILES": "CC1=C(S)C=CC=C1",
    "meta_data": {
        "InChI": "InChI=1S/C7H8S/c1-6-4-2-3-5-7(6)8/h2-5,8H,1H3",
        "InChIKey": null,
        "Canonical SMILES": "SC=1C=CC=CC1C",
        "Molecular Formula": "C<sub>7</sub>H<sub>8</sub>S",
        "Molecular Mass": "124.20",
        "Boiling Point": "195 °C",
        "Melting Point": "15 °C",
        "Density": "1.041 g/cm³ @ Temp: 20 °C"
    }
}