{
    "cas_no": "2840-00-8",
    "key_name": "3,5-Dichloro-2,6-difluoro-4-pyridinamine",
    "cn_name": "4-氨基-3,5-二氯-2,6-二氟吡啶;",
    "alternate_name": "4-Pyridinamine, 3,5-dichloro-2,6-difluoro-;Pyridine, 4-amino-3,5-dichloro-2,6-difluoro-;3,5-Dichloro-2,6-difluoro-4-pyridinamine;4-Amino-3,5-dichloro-2,6-difluoropyridine;4-Amino-3,5-dichlorodifluoropyridine;3,5-Dichloro-2,6-difluoropyrid-4-ylamine;2,6-Difluoro-3,5-dichloro-4-aminopyridine;(3,5-Dichloro-2,6-difluoropyridin-4-yl)amine",
    "duplicated_cas_no": "",
    "SMILES": "ClC=1C(N)=C(Cl)C(F)=NC1F",
    "meta_data": {
        "InChI": "InChI=1S/C5H2Cl2F2N2/c6-1-3(10)2(7)5(9)11-4(1)8/h(H2,10,11)",
        "InChIKey": null,
        "Canonical SMILES": "FC=1N=C(F)C(Cl)=C(N)C1Cl",
        "Molecular Formula": "C<sub>5</sub>H<sub>2</sub>Cl<sub>2</sub>F<sub>2</sub>N<sub>2</sub>",
        "Molecular Mass": "198.99",
        "Melting Point": "112-113 °C"
    }
}