{
    "cas_no": "56718-71-9",
    "key_name": "4-(2-Methoxyethyl)phenol",
    "cn_name": "对甲氧基乙基苯酚;",
    "alternate_name": "Phenol, 4-(2-methoxyethyl)-;Phenol, <em>p</em>-(2-methoxyethyl)-;4-(2-Methoxyethyl)phenol;<em>p</em>-(2-Methoxyethyl)phenol;<em>p</em>-Hydroxyphenethyl methyl ether",
    "duplicated_cas_no": "",
    "SMILES": "C(COC)C1=CC=C(O)C=C1",
    "meta_data": {
        "InChI": "InChI=1S/C9H12O2/c1-11-7-6-8-2-4-9(10)5-3-8/h2-5,10H,6-7H2,1H3",
        "InChIKey": null,
        "Canonical SMILES": "OC1=CC=C(C=C1)CCOC",
        "Molecular Formula": "C<sub>9</sub>H<sub>12</sub>O<sub>2</sub>",
        "Molecular Mass": "152.19",
        "Boiling Point": "142 °C @ Press: 2 Torr",
        "Melting Point": "42-43 °C"
    }
}