{
    "cas_no": "7789-42-6",
    "key_name": "Cadmium bromide",
    "cn_name": null,
    "alternate_name": "Cadmium bromide (CdBr<sub>2</sub>);Cadmium bromide;Cadmium dibromide",
    "duplicated_cas_no": "53168-83-5",
    "SMILES": "[Cd](Br)Br",
    "meta_data": {
        "InChI": "InChI=1S/2BrH.Cd/h2*1H;/q;;+2/p-2",
        "InChIKey": null,
        "Canonical SMILES": "Br[Cd]Br",
        "Molecular Formula": "Br<sub>2</sub>Cd",
        "Molecular Mass": "",
        "Boiling Point": "963 °C",
        "Melting Point": "566 °C",
        "Density": "5.192 g/cm³"
    }
}