{
    "cas_no": "117390-39-3",
    "key_name": "Thieno[3,2-<em>b</em>]pyridine-6-carboxylic acid",
    "cn_name": null,
    "alternate_name": "Thieno[3,2-<em>b</em>]pyridine-6-carboxylic acid",
    "duplicated_cas_no": "",
    "SMILES": "C(O)(=O)C=1C=C2C(=NC1)C=CS2",
    "meta_data": {
        "InChI": "InChI=1S/C8H5NO2S/c10-8(11)5-3-7-6(9-4-5)1-2-12-7/h1-4H,(H,10,11)",
        "InChIKey": null,
        "Canonical SMILES": "O=C(O)C=1C=NC=2C=CSC2C1",
        "Molecular Formula": "C<sub>8</sub>H<sub>5</sub>NO<sub>2</sub>S",
        "Molecular Mass": "179.20",
        "Melting Point": "&gt;250 °C"
    }
}