{
    "cas_no": "14376-79-5",
    "key_name": "3,3,5,5-Tetramethylcyclohexanone",
    "cn_name": "3,3,5,5-四甲基环己酮;3,3,5,5-四甲基环己酮;",
    "alternate_name": "Cyclohexanone, 3,3,5,5-tetramethyl-;3,3,5,5-Tetramethylcyclohexanone;NSC 91511;3,3,5,5-Tetramethylcyclohexan-1-one",
    "duplicated_cas_no": "",
    "SMILES": "CC1(C)CC(C)(C)CC(=O)C1",
    "meta_data": {
        "InChI": "InChI=1S/C10H18O/c1-9(2)5-8(11)6-10(3,4)7-9/h5-7H2,1-4H3",
        "InChIKey": null,
        "Canonical SMILES": "O=C1CC(C)(C)CC(C)(C)C1",
        "Molecular Formula": "C<sub>10</sub>H<sub>18</sub>O",
        "Molecular Mass": "154.25",
        "Boiling Point": "196-197 °C @ Press: 760 Torr",
        "Density": "0.8914 g/cm³ @ Temp: 20 °C"
    }
}