{
    "cas_no": "26391-06-0",
    "key_name": "2-Cyano-<em>N</em>,<em>N</em>-diethylacetamide",
    "cn_name": "N,N-二乙基氰乙酰胺;",
    "alternate_name": "Acetamide, 2-cyano-<em>N</em>,<em>N</em>-diethyl-;2-Cyano-<em>N</em>,<em>N</em>-diethylacetamide;<em>N</em>,<em>N</em>-Diethylcyanoacetamide;<em>N</em>,<em>N</em>-Diethyl-2-cyanoacetamide",
    "duplicated_cas_no": "",
    "SMILES": "N(C(CC#N)=O)(CC)CC",
    "meta_data": {
        "InChI": "InChI=1S/C7H12N2O/c1-3-9(4-2)7(10)5-6-8/h3-5H2,1-2H3",
        "InChIKey": null,
        "Canonical SMILES": "N#CCC(=O)N(CC)CC",
        "Molecular Formula": "C<sub>7</sub>H<sub>12</sub>N<sub>2</sub>O",
        "Molecular Mass": "140.18",
        "Boiling Point": "105-114 °C @ Press: 4 Torr",
        "Melting Point": "121 °C"
    }
}