{
    "cas_no": "1780-26-3",
    "key_name": "4,6-Dichloro-2-methylpyrimidine",
    "cn_name": "4,6-二氯-2-甲基嘧啶;2-甲基-4,6-二氯嘧啶;",
    "alternate_name": "Pyrimidine, 4,6-dichloro-2-methyl-;4,6-Dichloro-2-methylpyrimidine;2-Methyl-4,6-dichloropyrimidine;NSC 35923",
    "duplicated_cas_no": "",
    "SMILES": "ClC=1C=C(Cl)N=C(C)N1",
    "meta_data": {
        "InChI": "InChI=1S/C5H4Cl2N2/c1-3-8-4(6)2-5(7)9-3/h2H,1H3",
        "InChIKey": null,
        "Canonical SMILES": "ClC=1N=C(N=C(Cl)C1)C",
        "Molecular Formula": "C<sub>5</sub>H<sub>4</sub>Cl<sub>2</sub>N<sub>2</sub>",
        "Molecular Mass": "163.00",
        "Melting Point": "162-163 °C"
    }
}