{
    "cas_no": "484-76-4",
    "key_name": "Okanin",
    "cn_name": null,
    "alternate_name": "2-Propen-1-one, 3-(3,4-dihydroxyphenyl)-1-(2,3,4-trihydroxyphenyl)-, (2<em>E</em>)-;Chalcone, 2′,3,3′,4,4′-pentahydroxy-, (<em>E</em>)-;2-Propen-1-one, 3-(3,4-dihydroxyphenyl)-1-(2,3,4-trihydroxyphenyl)-, (<em>E</em>)-;(2<em>E</em>)-3-(3,4-Dihydroxyphenyl)-1-(2,3,4-trihydroxyphenyl)-2-propen-1-one;Okanin;<em>trans</em>-3,4,2′,3′,4′-Pentahydroxychalcone",
    "duplicated_cas_no": "",
    "SMILES": "C(/C=C/C1=CC(O)=C(O)C=C1)(=O)C2=C(O)C(O)=C(O)C=C2",
    "meta_data": {
        "InChI": "InChI=1S/C15H12O6/c16-10(9-3-6-12(18)15(21)14(9)20)4-1-8-2-5-11(17)13(19)7-8/h1-7,17-21H/b4-1+",
        "InChIKey": null,
        "Canonical SMILES": "O=C(C=CC1=CC=C(O)C(O)=C1)C2=CC=C(O)C(O)=C2O",
        "Molecular Formula": "C<sub>15</sub>H<sub>12</sub>O<sub>6</sub>",
        "Molecular Mass": "288.25",
        "Melting Point": "235-242 °C"
    }
}