{
    "cas_no": "13074-65-2",
    "key_name": "2-Hexylcyclopentanone",
    "cn_name": "2-己基环戊酮;贾士玛酮;",
    "alternate_name": "Cyclopentanone, 2-hexyl-;2-Hexylcyclopentanone;2-<em>n</em>-Hexylcyclopentanone;2-Hexyl-1-cyclopentanone;Jasmatone",
    "duplicated_cas_no": "160637-62-7",
    "SMILES": "C(CCCCC)C1C(=O)CCC1",
    "meta_data": {
        "InChI": "InChI=1S/C11H20O/c1-2-3-4-5-7-10-8-6-9-11(10)12/h10H,2-9H2,1H3",
        "InChIKey": null,
        "Canonical SMILES": "O=C1CCCC1CCCCCC",
        "Molecular Formula": "C<sub>11</sub>H<sub>20</sub>O",
        "Molecular Mass": "168.28",
        "Boiling Point": "118 °C @ Press: 10 Torr"
    }
}