{
    "cas_no": "6366-70-7",
    "key_name": "<span class=\"text-smallcaps\">L</span>-Lysine, <em>N</em><sup>6</sup>-[(phenylmethoxy)carbonyl]-, phenylmethyl ester, hydrochloride (1:1)",
    "cn_name": "N6-Cbz-L-赖氨酸苄酯盐酸盐;N6-苄氧羰基-L-赖氨酸苄酯盐酸盐;",
    "alternate_name": "<span class=\"text-smallcaps\">L</span>-Lysine, <em>N</em><sup>6</sup>-[(phenylmethoxy)carbonyl]-, phenylmethyl ester, hydrochloride (1:1);Lysine, <em>N</em><sup>6</sup>-carboxy-, dibenzyl ester, hydrochloride, <span class=\"text-smallcaps\">L</span>-;<span class=\"text-smallcaps\">L</span>-Lysine, <em>N</em><sup>6</sup>-[(phenylmethoxy)carbonyl]-, phenylmethyl ester, monohydrochloride;Lysine, <em>N</em><sup>6</sup>-carboxy-, dibenzyl ester, hydrochloride;<em>N</em><sup>6</sup>-Carbobenzoxy-<span class=\"text-smallcaps\">L</span>-lysine benzyl ester hydrochloride;NSC 88180;(<em>S</em>)-Benzyl 2-amino-6-(((benzyloxy)carbonyl)amino)hexanoate hydrochloride",
    "duplicated_cas_no": "73747-57-6",
    "SMILES": "C(OC([C@H](CCCCNC(OCC1=CC=CC=C1)=O)N)=O)C2=CC=CC=C2.Cl",
    "meta_data": {
        "InChI": "InChI=1S/C21H26N2O4.ClH/c22-19(20(24)26-15-17-9-3-1-4-10-17)13-7-8-14-23-21(25)27-16-18-11-5-2-6-12-18;/h1-6,9-12,19H,7-8,13-16,22H2,(H,23,25);1H/t19-;/m0./s1",
        "InChIKey": null,
        "Canonical SMILES": "Cl.O=C(OCC=1C=CC=CC1)NCCCCC(N)C(=O)OCC=2C=CC=CC2",
        "Molecular Formula": "C<sub>21</sub>H<sub>26</sub>N<sub>2</sub>O<sub>4</sub>.ClH",
        "Molecular Mass": "",
        "Melting Point": "139 °C"
    }
}