{
    "cas_no": "56469-10-4",
    "key_name": "5-(1,1-Dimethylheptyl)resorcinol",
    "cn_name": null,
    "alternate_name": "1,3-Benzenediol, 5-(1,1-dimethylheptyl)-;5-(1,1-Dimethylheptyl)-1,3-benzenediol;5-(1,1-Dimethylheptyl)resorcinol;5-(1,1-Dimethylheptyl)benzene-1,3-diol",
    "duplicated_cas_no": "",
    "SMILES": "C(CCCCCC)(C)(C)C1=CC(O)=CC(O)=C1",
    "meta_data": {
        "InChI": "InChI=1S/C15H24O2/c1-4-5-6-7-8-15(2,3)12-9-13(16)11-14(17)10-12/h9-11,16-17H,4-8H2,1-3H3",
        "InChIKey": null,
        "Canonical SMILES": "OC=1C=C(O)C=C(C1)C(C)(C)CCCCCC",
        "Molecular Formula": "C<sub>15</sub>H<sub>24</sub>O<sub>2</sub>",
        "Molecular Mass": "236.35",
        "Boiling Point": "161-163 °C @ Press: 0.5 Torr",
        "Melting Point": "99 °C"
    }
}