{
    "cas_no": "129-73-7",
    "key_name": "Leucomalachite green",
    "cn_name": "隐色孔雀石绿;",
    "alternate_name": "Benzenamine, 4,4′-(phenylmethylene)bis[<em>N</em>,<em>N</em>-dimethyl-;Aniline, 4,4′-benzylidenebis[<em>N</em>,<em>N</em>-dimethyl-;4,4′-(Phenylmethylene)bis[<em>N</em>,<em>N</em>-dimethylbenzenamine];4,4′-Benzylidene bis[<em>N</em>,<em>N</em>-dimethylaniline];Bis[<em>p</em>-(<em>N</em>,<em>N</em>-dimethylamino)phenyl]phenylmethane;C.I. Basic Green 4, leuco base;Leucomalachite green;Malachite green leuco;Malachite green leuco base;<em>p</em>,<em>p</em>′-Benzylidenebis(<em>N</em>,<em>N</em>-dimethylaniline);4,4′-Bis(dimethylamino)triphenylmethane;4,4′-Bis(<em>N</em>,<em>N</em>-dimethylaminophenyl)phenylmethane;Bis(<em>p</em>-dimethylaminophenyl)phenylmethane;NSC 36379;Bis(4-dimethylaminophenyl)phenylmethane",
    "duplicated_cas_no": "",
    "SMILES": "C(C1=CC=C(N(C)C)C=C1)(C2=CC=C(N(C)C)C=C2)C3=CC=CC=C3",
    "meta_data": {
        "InChI": "InChI=1S/C23H26N2/c1-24(2)21-14-10-19(11-15-21)23(18-8-6-5-7-9-18)20-12-16-22(17-13-20)25(3)4/h5-17,23H,1-4H3",
        "InChIKey": null,
        "Canonical SMILES": "C=1C=CC(=CC1)C(C2=CC=C(C=C2)N(C)C)C3=CC=C(C=C3)N(C)C",
        "Molecular Formula": "C<sub>23</sub>H<sub>26</sub>N<sub>2</sub>",
        "Molecular Mass": "330.47",
        "Melting Point": "92 °C"
    }
}