{
    "cas_no": "29876-14-0",
    "key_name": "Tryptamide",
    "cn_name": null,
    "alternate_name": "3-Pyridinecarboxamide, <em>N</em>-[2-(1<em>H</em>-indol-3-yl)ethyl]-;Nicotinamide, <em>N</em>-(2-indol-3-ylethyl)-;<em>N</em>-[2-(1<em>H</em>-Indol-3-yl)ethyl]-3-pyridinecarboxamide;<em>N</em>-Nicotinoyltryptamine;Tryptamide;<em>N</em>-(2-Indol-3-ylethyl)nicotinamide;Nicotredole;NSC 138472",
    "duplicated_cas_no": "",
    "SMILES": "C(CNC(=O)C=1C=CC=NC1)C=2C=3C(NC2)=CC=CC3",
    "meta_data": {
        "InChI": "InChI=1S/C16H15N3O/c20-16(13-4-3-8-17-10-13)18-9-7-12-11-19-15-6-2-1-5-14(12)15/h1-6,8,10-11,19H,7,9H2,(H,18,20)",
        "InChIKey": null,
        "Canonical SMILES": "O=C(NCCC1=CNC=2C=CC=CC21)C=3C=NC=CC3",
        "Molecular Formula": "C<sub>16</sub>H<sub>15</sub>N<sub>3</sub>O",
        "Molecular Mass": "265.31",
        "Melting Point": "151-154 °C"
    }
}