{
    "cas_no": "98389-04-9",
    "key_name": "Pyrazosulfuron",
    "cn_name": "吡嘧磺隆(母酸);5-(4,6-二甲氧基嘧啶-2-基氨基甲酰氨基磺酰基)-1-甲基吡唑-4-羧酸;",
    "alternate_name": "1<em>H</em>-Pyrazole-4-carboxylic acid, 5-[[[[(4,6-dimethoxy-2-pyrimidinyl)amino]carbonyl]amino]sulfonyl]-1-methyl-;5-[[[[(4,6-Dimethoxy-2-pyrimidinyl)amino]carbonyl]amino]sulfonyl]-1-methyl-1<em>H</em>-pyrazole-4-carboxylic acid;Pyrazosulfuron",
    "duplicated_cas_no": "",
    "SMILES": "S(NC(NC=1N=C(OC)C=C(OC)N1)=O)(=O)(=O)C2=C(C(O)=O)C=NN2C",
    "meta_data": {
        "InChI": "InChI=1S/C12H14N6O7S/c1-18-9(6(5-13-18)10(19)20)26(22,23)17-12(21)16-11-14-7(24-2)4-8(15-11)25-3/h4-5H,1-3H3,(H,19,20)(H2,14,15,16,17,21)",
        "InChIKey": null,
        "Canonical SMILES": "O=C(O)C=1C=NN(C1S(=O)(=O)NC(=O)NC=2N=C(OC)C=C(N2)OC)C",
        "Molecular Formula": "C<sub>12</sub>H<sub>14</sub>N<sub>6</sub>O<sub>7</sub>S",
        "Molecular Mass": "386.34",
        "Melting Point": "202-204 °C"
    }
}