{
    "cas_no": "1132-26-9",
    "key_name": "<span class=\"text-smallcaps\">DL</span>-α-Methylphenylalanine",
    "cn_name": "alpha-甲基-DL-苯丙氨酸;2-氨基-2-甲基-3-苯基丙酸;",
    "alternate_name": "Phenylalanine, α-methyl-;Alanine, 2-methyl-3-phenyl-, <span class=\"text-smallcaps\">DL</span>-;<span class=\"text-smallcaps\">DL</span>-Phenylalanine, α-methyl-;α-Methylphenylalanine;<span class=\"text-smallcaps\">DL</span>-α-Methylphenylalanine;α-Methyl-<span class=\"text-smallcaps\">DL</span>-phenylalanine;2-Methyl-3-phenylalanine;NSC 11202;2-Amino-2-methyl-3-phenylpropanoic acid;2-Amino-2-methyl-3-phenylpropionic acid",
    "duplicated_cas_no": "4415-69-4",
    "SMILES": "C(C(C(O)=O)(C)N)C1=CC=CC=C1",
    "meta_data": {
        "InChI": "InChI=1S/C10H13NO2/c1-10(11,9(12)13)7-8-5-3-2-4-6-8/h2-6H,7,11H2,1H3,(H,12,13)",
        "InChIKey": null,
        "Canonical SMILES": "O=C(O)C(N)(C)CC=1C=CC=CC1",
        "Molecular Formula": "C<sub>10</sub>H<sub>13</sub>NO<sub>2</sub>",
        "Molecular Mass": "179.22",
        "Melting Point": "293-294 °C"
    }
}