{
    "cas_no": "558-43-0",
    "key_name": "2-Methyl-1,2-propanediol",
    "cn_name": null,
    "alternate_name": "1,2-Propanediol, 2-methyl-;2-Methyl-1,2-propanediol;Isobutylene glycol;Isobutene glycol;2-Hydroxy-2-methylpropanol;1,2-Dihydroxyisobutane;2-Methyl-2-hydroxypropanol;1,2-Dihydroxy-2-methylpropane;1,1-Dimethyl-1,2-ethanediol;2-Methyl-2-hydroxy-1-propanol;2-Hydroxy-2-methyl-1-propyl alcohol;2-Methyl-2-hydroxy-1-propyl alcohol;1,1-Dimethylethylene glycol",
    "duplicated_cas_no": "857344-15-1",
    "SMILES": "C(CO)(C)(C)O",
    "meta_data": {
        "InChI": "InChI=1S/C4H10O2/c1-4(2,6)3-5/h5-6H,3H2,1-2H3",
        "InChIKey": null,
        "Canonical SMILES": "OCC(O)(C)C",
        "Molecular Formula": "C<sub>4</sub>H<sub>10</sub>O<sub>2</sub>",
        "Molecular Mass": "90.12",
        "Boiling Point": "176 °C",
        "Density": "0.997 g/cm³ @ Temp: 20 °C"
    }
}