{
    "cas_no": "105-36-2",
    "key_name": "Ethyl bromoacetate",
    "cn_name": "溴乙酸乙酯;溴代乙酸乙酯;",
    "alternate_name": "Acetic acid, 2-bromo-, ethyl ester;Acetic acid, bromo-, ethyl ester;Antol;Ethyl bromoacetate;Ethyl monobromoacetate;Ethyl α-bromoacetate;Bromoacetic acid ethyl ester;Ethyl bromacetate;(Ethoxycarbonyl)methyl bromide;Ethyl 2-bromoacetate;Ethyl bromoethanoate;α-Bromoacetic acid ethyl ester;Ethyl 2-bromoethanoate;NSC 8832;2-Bromoacetic acid ethyl ester",
    "duplicated_cas_no": "679806-14-5;2374896-00-9",
    "SMILES": "C(OCC)(CBr)=O",
    "meta_data": {
        "InChI": "InChI=1S/C4H7BrO2/c1-2-7-4(6)3-5/h2-3H2,1H3",
        "InChIKey": null,
        "Canonical SMILES": "O=C(OCC)CBr",
        "Molecular Formula": "C<sub>4</sub>H<sub>7</sub>BrO<sub>2</sub>",
        "Molecular Mass": "167.00",
        "Boiling Point": "168.5 °C",
        "Density": "1.5032 g/cm³ @ Temp: 20 °C"
    }
}