{
    "cas_no": "1077-28-7",
    "key_name": "(±)-Lipoic acid",
    "cn_name": "alpha-硫辛酸;",
    "alternate_name": "1,2-Dithiolane-3-pentanoic acid;1,2-Dithiolane-3-valeric acid, (±)-;1,2-Dithiolane-3-pentanoic acid, (±)-;<em>dl</em>-Thioctic acid;<span class=\"text-smallcaps\">D</smallcap><smallcap>L</span>-α-Lipoic acid;<span class=\"text-smallcaps\">D</smallcap><smallcap>L</span>-6-Thioctic acid;<span class=\"text-smallcaps\">D</smallcap><smallcap>L</span>-6,8-Thioctic acid;(±)-Thioctic acid;(±)-α-Lipoic acid;<span class=\"text-smallcaps\">D</smallcap><smallcap>L</span>-Thioctic acid;(<em>RS</em>)-Lipoic acid;(<em>RS</em>)-α-Lipoic acid;5-(1,2-Dithiolan-3-yl)pentanoic acid;5-(1,2-Dithiolan-3-yl)valeric acid;Protogen A;Pyruvate oxidation factor;Thioctacid;Thioctic acid;6,8-Thioctic acid;Tioctidasi;Tioctidasi acetate replacing factor;1,2-Dithiolane-3-valeric acid;6-Thioctic acid;α-Liponic acid;Tioctacid;Biletan;Thioctsan;Liposan;Lipothion;(±)-Lipoic acid;NSC 628502;<em>dl</em>-Lipoic acid;NSC 90788;Alipure;Espa-lipon;Thiotacid;<em>dl</em>-α-Lipoic acid;α-lipon 300;α-(±)-Lipoic acid;<span class=\"text-smallcaps\">D</smallcap><smallcap>L</span>-Lipoic acid;Byodinoral-R;Octolipen;Oktolipen",
    "duplicated_cas_no": "62-46-4;27779-68-6",
    "SMILES": "C(CCCC(O)=O)C1CCSS1",
    "meta_data": {
        "InChI": "InChI=1S/C8H14O2S2/c9-8(10)4-2-1-3-7-5-6-11-12-7/h7H,1-6H2,(H,9,10)",
        "InChIKey": null,
        "Canonical SMILES": "O=C(O)CCCCC1SSCC1",
        "Molecular Formula": "C<sub>8</sub>H<sub>14</sub>O<sub>2</sub>S<sub>2</sub>",
        "Molecular Mass": "206.33",
        "Boiling Point": "160-165 °C",
        "Melting Point": "60-61 °C"
    }
}