{
    "cas_no": "111-85-3",
    "key_name": "1-Chlorooctane",
    "cn_name": "1-氯辛烷;",
    "alternate_name": "Octane, 1-chloro-;1-Chlorooctane;Octyl chloride;<em>n</em>-Octyl chloride;1-Octyl chloride;Caprylyl chloride;NSC 5406",
    "duplicated_cas_no": "",
    "SMILES": "C(CCCC)CCCCl",
    "meta_data": {
        "InChI": "InChI=1S/C8H17Cl/c1-2-3-4-5-6-7-8-9/h2-8H2,1H3",
        "InChIKey": null,
        "Canonical SMILES": "ClCCCCCCCC",
        "Molecular Formula": "C<sub>8</sub>H<sub>17</sub>Cl",
        "Molecular Mass": "148.67",
        "Boiling Point": "181.5 °C @ Press: 760 Torr",
        "Melting Point": "-57.8 °C",
        "Density": "0.8738 g/cm³ @ Temp: 20 °C"
    }
}