{
    "cas_no": "109-63-7",
    "key_name": "Boron trifluoride etherate",
    "cn_name": "三氟化硼乙醚;三氟化硼乙醚络合物;",
    "alternate_name": "Boron, trifluoro[1,1′-oxybis[ethane]]-, (<em>T</em>-4)-;Ethyl ether, compd. with boron fluoride (BF<sub>3</sub>) (1:1);Borane, trifluoro-, compd. with 1,1′-oxybis[ethane] (1:1);Ethyl ether, compd. with BF<sub>3</sub> (1:1);Ethane, 1,1′-oxybis-, compd. with trifluoroborane (1:1);Boron fluoride (BF<sub>3</sub>), compd. with ethyl ether (1:1);(<em>T</em>-4)-Trifluoro[1,1′-oxybis[ethane]]boron;Boron fluoride diethyl etherate;Boron fluoride etherate;Boron fluoride-ethyl etherate;Boron fluoride-ethyl ether complex;Boron trifluoride-ether complex;Boron trifluoride-ethyl ether;Boron trifluoride-ethyl etherate;Boron trifluoride-ethyl ether complex;Ethyl ether-boron trifluoride complex;Boron trifluoride etherate;Boron fluoride diethyl ether complex;Boron trifluoride-diethyl ether complex;Boron fluoride (BF<sub>3</sub>)-ethyl ether compound;Boron trifluoride ethyl etherate (1:1);Boron fluoride monoetherate;Boron trifluoride-diethyl ether complex (1:1);Boron trifluoride-ethyl ether (1:1);Trifluoroboron etherate;Boron fluoride-diethyl ether compound;Trifluoroborane-1,1′-oxybis[ethane] (1:1);Boron trifluoride-diethyl etherate;Diethyl ether trifluoroborane complex;Trifluoroborane diethyl etherate;Boron trifluoride-diethyl ether 1:1 complex;Diethyl ether compound with boron trifluoride;Boron trifluoride etherate (1:1);Boron trifluoride monoetherate;Boron trifluoride-diethyl ether (1:1);Diethyl ether-trifluoroborane (1:1);Trifluoroboron-diethyl ether (1:1);(Diethyl ether)trifluoroboron;(Diethyl ether)trifluoroborane;Trifluoro(diethyl ether)boron;Trifluoro[1,1′-oxybis[ethane]]boron;Boron trifluoride diethyl ether adduct;Trifluoroborane diethyl ether complex",
    "duplicated_cas_no": "109704-88-3;110622-74-7;118648-53-6;125391-69-7;2167-26-2;14480-05-8;15688-21-8;89513-75-7;145459-43-4;147102-03-2;171915-81-4",
    "SMILES": "O([B+3]([F-])([F-])[F-])(CC)CC",
    "meta_data": {
        "InChI": "InChI=1S/C4H10BF3O/c1-3-9(4-2)5(6,7)8/h3-4H2,1-2H3",
        "InChIKey": null,
        "Canonical SMILES": "[F-][B+3]([F-])([F-])O(CC)CC",
        "Molecular Formula": "C<sub>4</sub>H<sub>10</sub>BF<sub>3</sub>O",
        "Molecular Mass": "",
        "Boiling Point": "125.7 °C",
        "Melting Point": "-60.4 °C",
        "Density": "1.3572 g/cm³ @ Temp: 20 °C"
    }
}