{
    "cas_no": "1912-47-6",
    "key_name": "5-Methyl-3-indoleacetic acid",
    "cn_name": "5-甲基吲哚-3-乙酸;",
    "alternate_name": "1<em>H</em>-Indole-3-acetic acid, 5-methyl-;Indole-3-acetic acid, 5-methyl-;5-Methyl-1<em>H</em>-indole-3-acetic acid;5-Methyl-3-indoleacetic acid;2-(5-Methyl-1<em>H</em>-indol-3-yl)acetic acid;NSC 21428",
    "duplicated_cas_no": "",
    "SMILES": "C(C(O)=O)C=1C=2C(NC1)=CC=C(C)C2",
    "meta_data": {
        "InChI": "InChI=1S/C11H11NO2/c1-7-2-3-10-9(4-7)8(6-12-10)5-11(13)14/h2-4,6,12H,5H2,1H3,(H,13,14)",
        "InChIKey": null,
        "Canonical SMILES": "O=C(O)CC1=CNC=2C=CC(=CC21)C",
        "Molecular Formula": "C<sub>11</sub>H<sub>11</sub>NO<sub>2</sub>",
        "Molecular Mass": "189.21",
        "Melting Point": "151 °C"
    }
}