{
    "cas_no": "115-32-2",
    "key_name": "Dicofol",
    "cn_name": "三氯杀螨醇;2,2,2-三氯-1,1-双(4-氯苯基)乙醇;",
    "alternate_name": "Benzenemethanol, 4-chloro-α-(4-chlorophenyl)-α-(trichloromethyl)-;Benzhydrol, 4,4′-dichloro-α-(trichloromethyl)-;4-Chloro-α-(4-chlorophenyl)-α-(trichloromethyl)benzenemethanol;ENT 23,648;1,1-Bis(4-chlorophenyl)-2,2,2-trichloroethanol;1,1-Bis(<em>p</em>-chlorophenyl)-2,2,2-trichloroethanol;CPCA;Dicofol;DTMC;FW 293;Kelthanethanol;2,2,2-Trichloro-1,1-di(4-chlorophenyl)ethanol;Kelthane;Acarin;Mitigan;<em>p</em>,<em>p</em>′-Kelthane;Decofol;Ethanol, 2,2,2-trichloro-1,1-bis(4-chlorophenyl)-;Kelthane A;2,2,2-Trichloro-1,1-bis(4-chlorophenyl)ethanol;4,4′-Dichloro-α-(trichloromethyl)benzhydrol;Keltane;Dichlorokelthane;Milbol;2,2,2-Trichloro-1,1-bis(<em>p</em>-chlorophenyl)ethanol;<em>p</em>,<em>p</em>′-Dicofol;Chloretanol;Agravertin;AFD 25;Colonel-S;Dacomain;Dicofol kelthene;MeSH ID: D004010",
    "duplicated_cas_no": "55599-54-7",
    "SMILES": "C(C(Cl)(Cl)Cl)(O)(C1=CC=C(Cl)C=C1)C2=CC=C(Cl)C=C2",
    "meta_data": {
        "InChI": "InChI=1S/C14H9Cl5O/c15-11-5-1-9(2-6-11)13(20,14(17,18)19)10-3-7-12(16)8-4-10/h1-8,20H",
        "InChIKey": null,
        "Canonical SMILES": "ClC1=CC=C(C=C1)C(O)(C2=CC=C(Cl)C=C2)C(Cl)(Cl)Cl",
        "Molecular Formula": "C<sub>14</sub>H<sub>9</sub>Cl<sub>5</sub>O",
        "Molecular Mass": "370.49",
        "Boiling Point": "180 °C @ Press: 0.1 Torr",
        "Melting Point": "77-78 °C",
        "Density": "1.130 g/cm³ @ Temp: 20 °C"
    }
}