{
    "cas_no": "13224-94-7",
    "key_name": "3-<em>O</em>-Methyl-α-<span class=\"text-smallcaps\">D</span>-glucopyranose",
    "cn_name": null,
    "alternate_name": "α-<span class=\"text-smallcaps\">D</span>-Glucopyranose, 3-<em>O</em>-methyl-;Glucopyranose, 3-<em>O</em>-methyl-, α-<span class=\"text-smallcaps\">D</span>-;3-<em>O</em>-Methyl-α-<span class=\"text-smallcaps\">D</span>-glucopyranose;3-<em>O</em>-Methyl-α-<span class=\"text-smallcaps\">D</span>-glucose",
    "duplicated_cas_no": "",
    "SMILES": "O(C)[C@H]1[C@H](O)[C@@H](CO)O[C@H](O)[C@@H]1O",
    "meta_data": {
        "InChI": "InChI=1S/C7H14O6/c1-12-6-4(9)3(2-8)13-7(11)5(6)10/h3-11H,2H2,1H3/t3-,4-,5-,6+,7+/m1/s1",
        "InChIKey": null,
        "Canonical SMILES": "OCC1OC(O)C(O)C(OC)C1O",
        "Molecular Formula": "C<sub>7</sub>H<sub>14</sub>O<sub>6</sub>",
        "Molecular Mass": "194.18",
        "Melting Point": "163-167 °C"
    }
}