{
    "cas_no": "33371-00-5",
    "key_name": "4-Chloro-6,7,8-trimethoxyquinazoline",
    "cn_name": null,
    "alternate_name": "Quinazoline, 4-chloro-6,7,8-trimethoxy-;4-Chloro-6,7,8-trimethoxyquinazoline;NSC 345681",
    "duplicated_cas_no": "",
    "SMILES": "O(C)C=1C2=C(C=C(OC)C1OC)C(Cl)=NC=N2",
    "meta_data": {
        "InChI": "InChI=1S/C11H11ClN2O3/c1-15-7-4-6-8(13-5-14-11(6)12)10(17-3)9(7)16-2/h4-5H,1-3H3",
        "InChIKey": null,
        "Canonical SMILES": "ClC1=NC=NC=2C(OC)=C(OC)C(OC)=CC12",
        "Molecular Formula": "C<sub>11</sub>H<sub>11</sub>ClN<sub>2</sub>O<sub>3</sub>",
        "Molecular Mass": "254.67",
        "Melting Point": "101-103 °C"
    }
}