{
    "cas_no": "5465-29-2",
    "key_name": "2-Propyl-1<em>H</em>-benzimidazole",
    "cn_name": "2-丙基苯并咪唑;",
    "alternate_name": "1<em>H</em>-Benzimidazole, 2-propyl-;Benzimidazole, 2-propyl-;2-Propyl-1<em>H</em>-benzimidazole;2-Propylbenzimidazole;NSC 28962;NSC 40172;2-Propyl-1<em>H</em>-1,3-benzodiazole",
    "duplicated_cas_no": "",
    "SMILES": "C(CC)C=1NC=2C(N1)=CC=CC2",
    "meta_data": {
        "InChI": "InChI=1S/C10H12N2/c1-2-5-10-11-8-6-3-4-7-9(8)12-10/h3-4,6-7H,2,5H2,1H3,(H,11,12)",
        "InChIKey": null,
        "Canonical SMILES": "N=1C=2C=CC=CC2NC1CCC",
        "Molecular Formula": "C<sub>10</sub>H<sub>12</sub>N<sub>2</sub>",
        "Molecular Mass": "160.22",
        "Boiling Point": "220 °C",
        "Melting Point": "152-153 °C"
    }
}