{
    "cas_no": "2051-24-3",
    "key_name": "2,2′,3,3′,4,4′, 5,5′,6,6′-Decachlorobiphenyl",
    "cn_name": "十氯联苯;十氯联苯PCBNo209solution;",
    "alternate_name": "1,1′-Biphenyl, 2,2′,3,3′,4,4′,5,5′,6,6′-decachloro-;Biphenyl, decachloro-;2,2′,3,3′,4,4′,5,5′,6,6′-Decachloro-1,1′-biphenyl;Perchlorobiphenyl;Decachlorobiphenyl;2,2′,3,3′,4,4′, 5,5′,6,6′-Decachlorobiphenyl;PCB 209;DCB;CB 209;DTXSID4047541",
    "duplicated_cas_no": "",
    "SMILES": "ClC1=C(C(Cl)=C(Cl)C(Cl)=C1Cl)C2=C(Cl)C(Cl)=C(Cl)C(Cl)=C2Cl",
    "meta_data": {
        "InChI": "InChI=1S/C12Cl10/c13-3-1(4(14)8(18)11(21)7(3)17)2-5(15)9(19)12(22)10(20)6(2)16",
        "InChIKey": null,
        "Canonical SMILES": "ClC=1C(Cl)=C(Cl)C(=C(Cl)C1Cl)C=2C(Cl)=C(Cl)C(Cl)=C(Cl)C2Cl",
        "Molecular Formula": "C<sub>12</sub>Cl<sub>10</sub>",
        "Molecular Mass": "498.66",
        "Melting Point": "305.8 °C"
    }
}