{
    "cas_no": "77-49-6",
    "key_name": "2-Methyl-2-nitro-1,3-propanediol",
    "cn_name": "2-甲基-2-硝基-1,3-丙二醇;2-硝基-2-甲基-1,3-丙二醇;2-甲基-2-硝基-1,3-丙烷二醇;",
    "alternate_name": "1,3-Propanediol, 2-methyl-2-nitro-;2-Methyl-2-nitro-1,3-propanediol;1,1-Dimethylol-1-nitroethane;2-Nitro-2-methyl-1,3-propanediol;NMPD;Nitroisobutylglycol;NSC 5372",
    "duplicated_cas_no": "",
    "SMILES": "C(N(=O)=O)(CO)(CO)C",
    "meta_data": {
        "InChI": "InChI=1S/C4H9NO4/c1-4(2-6,3-7)5(8)9/h6-7H,2-3H2,1H3",
        "InChIKey": null,
        "Canonical SMILES": "O=N(=O)C(C)(CO)CO",
        "Molecular Formula": "C<sub>4</sub>H<sub>9</sub>NO<sub>4</sub>",
        "Molecular Mass": "135.12",
        "Melting Point": "150.1 °C"
    }
}