{
    "cas_no": "62-57-7",
    "key_name": "Aminoisobutyric acid",
    "cn_name": "2-氨基异丁酸;2-甲基丙氨酸;",
    "alternate_name": "Alanine, 2-methyl-;2-Methylalanine;AIB;α-Aminoisobutyric acid;α-Methylalanine;Aminoisobutyric acid;2-Amino-2-methylpropanoic acid;2-Aminoisobutyric acid;α,α-Dimethylglycine;α-Aminoisobutanoic acid;2-Amino-2-methylpropionic acid;2,2-Dimethylglycine;NSC 16590;21: PN: WO2005055994 PAGE: 50 claimed sequence",
    "duplicated_cas_no": "18389-23-6;765258-64-8",
    "SMILES": "C(C(O)=O)(C)(C)N",
    "meta_data": {
        "InChI": "InChI=1S/C4H9NO2/c1-4(2,5)3(6)7/h5H2,1-2H3,(H,6,7)",
        "InChIKey": null,
        "Canonical SMILES": "O=C(O)C(N)(C)C",
        "Molecular Formula": "C<sub>4</sub>H<sub>9</sub>NO<sub>2</sub>",
        "Molecular Mass": "103.12",
        "Melting Point": "335 °C"
    }
}