{
    "cas_no": "22015-35-6",
    "key_name": "Europium iodide (EuI<sub>2</sub>)",
    "cn_name": null,
    "alternate_name": "Europium iodide (EuI<sub>2</sub>);Europium diiodide;Europium(II) iodide",
    "duplicated_cas_no": "",
    "SMILES": "[Eu](I)I",
    "meta_data": {
        "InChI": "InChI=1S/Eu.2HI/h;2*1H/q+2;;/p-2",
        "InChIKey": null,
        "Canonical SMILES": "I[Eu]I",
        "Molecular Formula": "EuI<sub>2</sub>",
        "Molecular Mass": "",
        "Melting Point": "510 °C",
        "Density": "5.50 g/cm³ @ Temp: 25 °C"
    }
}