{
    "cas_no": "5788-17-0",
    "key_name": "2-Propenoic acid, 3-methoxy-, methyl ester, (2<em>E</em>)-",
    "cn_name": "反-3-甲氧基丙烯酸甲酯;3-甲氧基丙烯酸甲酯;",
    "alternate_name": "2-Propenoic acid, 3-methoxy-, methyl ester, (2<em>E</em>)-;Acrylic acid, 3-methoxy-, methyl ester, (<em>E</em>)-;2-Propenoic acid, 3-methoxy-, methyl ester, (<em>E</em>)-;Methyl <em>trans</em>-β-methoxyacrylate;Methyl (<em>E</em>)-3-methoxy-2-propenoate;Methyl (<em>E</em>)-β-methoxyacrylate;<em>trans</em>-Methyl 3-methoxyacrylate;(<em>E</em>)-3-Methoxyacrylic acid methyl ester;Methyl trans-3-methoxy-2-propenoate;Methyl (2E)-3-methoxy-2-propenoate;Methyl trans-3-methoxyacrylate;Methyl (<em>E</em>)-3-methoxyacrylate;Methyl (E)-3-methoxyacrylate;Methyl (E)-3-methoxyprop-2-enoate;Methyl (2<em>E</em>)-3-methoxy-2-propenoate;Methyl (2<em>E</em>)-3-methoxyprop-2-enoate",
    "duplicated_cas_no": "",
    "SMILES": "C(/C=C/OC)(OC)=O",
    "meta_data": {
        "InChI": "InChI=1S/C5H8O3/c1-7-4-3-5(6)8-2/h3-4H,1-2H3/b4-3+",
        "InChIKey": null,
        "Canonical SMILES": "O=C(OC)C=COC",
        "Molecular Formula": "C<sub>5</sub>H<sub>8</sub>O<sub>3</sub>",
        "Molecular Mass": "116.12",
        "Boiling Point": "63 °C @ Press: 15 Torr"
    }
}