{
    "cas_no": "89-01-0",
    "key_name": "2,3-Pyrazinedicarboxylic acid",
    "cn_name": "2,3-吡嗪二羧酸;吡嗪-2,3-二羧酸;",
    "alternate_name": "2,3-Pyrazinedicarboxylic acid;2,3-Dicarboxypyrazine;NSC 1908",
    "duplicated_cas_no": "",
    "SMILES": "C(O)(=O)C=1C(C(O)=O)=NC=CN1",
    "meta_data": {
        "InChI": "InChI=1S/C6H4N2O4/c9-5(10)3-4(6(11)12)8-2-1-7-3/h1-2H,(H,9,10)(H,11,12)",
        "InChIKey": null,
        "Canonical SMILES": "O=C(O)C1=NC=CN=C1C(=O)O",
        "Molecular Formula": "C<sub>6</sub>H<sub>4</sub>N<sub>2</sub>O<sub>4</sub>",
        "Molecular Mass": "168.11",
        "Melting Point": "193 °C (decomp)"
    }
}