{
    "cas_no": "7550-35-8",
    "key_name": "Lithium bromide",
    "cn_name": "溴化锂;",
    "alternate_name": "Lithium bromide (LiBr);Lithium bromide;Lithium monobromide",
    "duplicated_cas_no": "14644-35-0;59217-62-8;128084-72-0;2764904-35-8",
    "SMILES": "Br[Li]",
    "meta_data": {
        "InChI": "InChI=1S/BrH.Li/h1H;/q;+1/p-1",
        "InChIKey": null,
        "Canonical SMILES": "[Li]Br",
        "Molecular Formula": "BrLi",
        "Molecular Mass": "",
        "Melting Point": "547 °C",
        "Density": "3.464 g/cm³ @ Temp: 825 °C"
    }
}