{
    "cas_no": "115-21-9",
    "key_name": "Ethyltrichlorosilane",
    "cn_name": "乙基三氯硅烷;三氯乙基硅烷;",
    "alternate_name": "Silane, trichloroethyl-;Trichloroethylsilane;Ethyl silicon trichloride;Ethyltrichlorosilane;Trichloroethylsilicon;TSL 8226;LS 120;LS 120 (silane derivative);SIE 4901.0",
    "duplicated_cas_no": "",
    "SMILES": "[Si](CC)(Cl)(Cl)Cl",
    "meta_data": {
        "InChI": "InChI=1S/C2H5Cl3Si/c1-2-6(3,4)5/h2H2,1H3",
        "InChIKey": null,
        "Canonical SMILES": "Cl[Si](Cl)(Cl)CC",
        "Molecular Formula": "C<sub>2</sub>H<sub>5</sub>Cl<sub>3</sub>Si",
        "Molecular Mass": "163.51",
        "Boiling Point": "97.9 °C @ Press: 760 Torr",
        "Melting Point": "-105.6 °C",
        "Density": "1.2381 g/cm³ @ Temp: 20 °C"
    }
}