{
    "cas_no": "174484-41-4",
    "key_name": "Tipranavir",
    "cn_name": "替拉那韦;N-[3-[(1R)-1-[(6R)-2-羟基-4-氧代-6-苯乙基-6-丙基-5H-吡喃-3-基]丙基]苯基]-5-(三氟甲基)吡啶-2;",
    "alternate_name": "2-Pyridinesulfonamide, <em>N</em>-[3-[(1<em>R</em>)-1-[(6<em>R</em>)-5,6-dihydro-4-hydroxy-2-oxo-6-(2-phenylethyl)-6-propyl-2<em>H</em>-pyran-3-yl]propyl]phenyl]-5-(trifluoromethyl)-;2-Pyridinesulfonamide, <em>N</em>-[3-[1-[5,6-dihydro-4-hydroxy-2-oxo-6-(2-phenylethyl)-6-propyl-2<em>H</em>-pyran-3-yl]propyl]phenyl]-5-(trifluoromethyl)-, [<em>R</em>-(<em>R</em>*,<em>R</em>*)]-;<em>N</em>-[3-[(1<em>R</em>)-1-[(6<em>R</em>)-5,6-Dihydro-4-hydroxy-2-oxo-6-(2-phenylethyl)-6-propyl-2<em>H</em>-pyran-3-yl]propyl]phenyl]-5-(trifluoromethyl)-2-pyridinesulfonamide;U 140690;PNU 140690;Tipranavir;Aptivus;TPV",
    "duplicated_cas_no": "",
    "SMILES": "C(CC1=CC=CC=C1)[C@]2(CCC)CC(O)=C([C@H](CC)C3=CC(NS(=O)(=O)C4=CC=C(C(F)(F)F)C=N4)=CC=C3)C(=O)O2",
    "meta_data": {
        "InChI": "InChI=1S/C31H33F3N2O5S/c1-3-16-30(17-15-21-9-6-5-7-10-21)19-26(37)28(29(38)41-30)25(4-2)22-11-8-12-24(18-22)36-42(39,40)27-14-13-23(20-35-27)31(32,33)34/h5-14,18,20,25,36-37H,3-4,15-17,19H2,1-2H3/t25-,30-/m1/s1",
        "InChIKey": null,
        "Canonical SMILES": "O=C1OC(CC(O)=C1C(C=2C=CC=C(C2)NS(=O)(=O)C3=NC=C(C=C3)C(F)(F)F)CC)(CCC=4C=CC=CC4)CCC",
        "Molecular Formula": "C<sub>31</sub>H<sub>33</sub>F<sub>3</sub>N<sub>2</sub>O<sub>5</sub>S",
        "Molecular Mass": "602.66",
        "Melting Point": "86-89 °C"
    }
}