{
    "cas_no": "620-32-6",
    "key_name": "Dibenzyl sulfone",
    "cn_name": null,
    "alternate_name": "Benzene, 1,1′-[sulfonylbis(methylene)]bis-;Benzyl sulfone;1,1′-[Sulfonylbis(methylene)]bis[benzene];Dibenzyl sulfone;NSC 212545;NSC 67;(Sulfonylbis(methylene))dibenzene",
    "duplicated_cas_no": "",
    "SMILES": "C(S(CC1=CC=CC=C1)(=O)=O)C2=CC=CC=C2",
    "meta_data": {
        "InChI": "InChI=1S/C14H14O2S/c15-17(16,11-13-7-3-1-4-8-13)12-14-9-5-2-6-10-14/h1-10H,11-12H2",
        "InChIKey": null,
        "Canonical SMILES": "O=S(=O)(CC=1C=CC=CC1)CC=2C=CC=CC2",
        "Molecular Formula": "C<sub>14</sub>H<sub>14</sub>O<sub>2</sub>S",
        "Molecular Mass": "246.32",
        "Melting Point": "152 °C"
    }
}