{
    "cas_no": "3071-70-3",
    "key_name": "3,3′-Diethylthiatricarbocyanine iodide",
    "cn_name": "3-乙基-2-[7-(3-乙基-2-苯并噻唑啉)-1,3,5-庚三烯]碘化苯并噻唑;",
    "alternate_name": "Benzothiazolium, 3-ethyl-2-[7-(3-ethyl-2(3<em>H</em>)-benzothiazolylidene)-1,3,5-heptatrien-1-yl]-, iodide (1:1);Benzothiazolium, 3-ethyl-2-[7-(3-ethyl-2-benzothiazolinylidene)-1,3,5-heptatrienyl]-, iodide;Benzothiazolium, 3-ethyl-2-[7-(3-ethyl-2(3<em>H</em>)-benzothiazolylidene)-1,3,5-heptatrienyl]-, iodide;3-Ethyl-2-[7-(3-ethyl-2-benzothiazolinylidene)-1,3,5-heptatrienyl]benzothiazolium iodide;Thiatricarbocyanine iodide, 3,3′-diethyl-;3,3′-Diethylthiatricarbocyanine iodide;3,3′-Diethyl-2,2′-thiatricarbocyanine iodide;DTTC;NK 126;DTTCI;D 4773",
    "duplicated_cas_no": "51895-79-5;89013-15-0;1201170-50-4",
    "SMILES": "C(C)N1C=2C(SC1=CC=CC=CC=CC3=[N+](CC)C=4C(S3)=CC=CC4)=CC=CC2.[I-]",
    "meta_data": {
        "InChI": "InChI=1S/C25H25N2S2.HI/c1-3-26-20-14-10-12-16-22(20)28-24(26)18-8-6-5-7-9-19-25-27(4-2)21-15-11-13-17-23(21)29-25;/h5-19H,3-4H2,1-2H3;1H/q+1;/p-1",
        "InChIKey": null,
        "Canonical SMILES": "[I-].S1C=2C=CC=CC2N(C1=CC=CC=CC=CC=3SC=4C=CC=CC4[N+]3CC)CC",
        "Molecular Formula": "C<sub>25</sub>H<sub>25</sub>N<sub>2</sub>S<sub>2</sub>.I",
        "Molecular Mass": "",
        "Melting Point": "183-184 °C"
    }
}