{
    "cas_no": "653-35-0",
    "key_name": "2,3,4,5,6-Pentafluorobenzyl chloride",
    "cn_name": "2,3,4,5,6-五氟苄基氯;2,3,4,5,6-五氟苯甲基氯;",
    "alternate_name": "Benzene, 1-(chloromethyl)-2,3,4,5,6-pentafluoro-;Toluene, α-chloro-2,3,4,5,6-pentafluoro-;Benzene, (chloromethyl)pentafluoro-;1-(Chloromethyl)-2,3,4,5,6-pentafluorobenzene;α-Chloro-2,3,4,5,6-pentafluorotoluene;2,3,4,5,6-Pentafluorobenzyl chloride;Chloromethylpentafluorobenzene;(Pentafluorophenyl)methyl chloride",
    "duplicated_cas_no": "",
    "SMILES": "C(Cl)C1=C(F)C(F)=C(F)C(F)=C1F",
    "meta_data": {
        "InChI": "InChI=1S/C7H2ClF5/c8-1-2-3(9)5(11)7(13)6(12)4(2)10/h1H2",
        "InChIKey": null,
        "Canonical SMILES": "FC=1C(F)=C(F)C(=C(F)C1F)CCl",
        "Molecular Formula": "C<sub>7</sub>H<sub>2</sub>ClF<sub>5</sub>",
        "Molecular Mass": "216.54",
        "Boiling Point": "160-163 °C"
    }
}