{
    "cas_no": "206181-90-0",
    "key_name": "3-Chloro-2-pyridinecarboxaldehyde",
    "cn_name": null,
    "alternate_name": "2-Pyridinecarboxaldehyde, 3-chloro-;3-Chloro-2-pyridinecarboxaldehyde;3-Chloropyridine-2-carboxaldehyde;3-Chloro-2-formylpyridine;3-Chloropicolinaldehyde;3-Chloro-pyridine-2-carbaldehyde;3-Chloropyridine-2-carbaldehyde",
    "duplicated_cas_no": "",
    "SMILES": "C(=O)C1=C(Cl)C=CC=N1",
    "meta_data": {
        "InChI": "InChI=1S/C6H4ClNO/c7-5-2-1-3-8-6(5)4-9/h1-4H",
        "InChIKey": null,
        "Canonical SMILES": "O=CC1=NC=CC=C1Cl",
        "Molecular Formula": "C<sub>6</sub>H<sub>4</sub>ClNO",
        "Molecular Mass": "141.56",
        "Melting Point": "52-56.2 °C"
    }
}