{
    "cas_no": "141-82-2",
    "key_name": "Malonic acid",
    "cn_name": "丙二酸;",
    "alternate_name": "Propanedioic acid;Malonic acid;Carboxyacetic acid;Dicarboxymethane;Methanedicarboxylic acid;1,3-Propanedioic acid;NSC 8124;Malonates;MeSH ID: D008314",
    "duplicated_cas_no": "211863-95-5",
    "SMILES": "C(C(O)=O)C(O)=O",
    "meta_data": {
        "InChI": "InChI=1S/C3H4O4/c4-2(5)1-3(6)7/h1H2,(H,4,5)(H,6,7)",
        "InChIKey": null,
        "Canonical SMILES": "O=C(O)CC(=O)O",
        "Molecular Formula": "C<sub>3</sub>H<sub>4</sub>O<sub>4</sub>",
        "Molecular Mass": "104.06",
        "Boiling Point": "215 °C @ Press: 14 Torr",
        "Melting Point": "135 °C (decomp)",
        "Density": "1.6 g/cm³"
    }
}