{
    "cas_no": "437-50-3",
    "key_name": "Gentisin",
    "cn_name": "??根素;??根素;",
    "alternate_name": "9<em>H</em>-Xanthen-9-one, 1,7-dihydroxy-3-methoxy-;Xanthen-9-one, 1,7-dihydroxy-3-methoxy-;1,7-Dihydroxy-3-methoxy-9<em>H</em>-xanthen-9-one;Gentianic acid;Gentianin;Gentisin;Gentisine;1,7-Dihydroxy-3-methoxyxanthone",
    "duplicated_cas_no": "",
    "SMILES": "O=C1C=2C(OC=3C1=CC(O)=CC3)=CC(OC)=CC2O",
    "meta_data": {
        "InChI": "InChI=1S/C14H10O5/c1-18-8-5-10(16)13-12(6-8)19-11-3-2-7(15)4-9(11)14(13)17/h2-6,15-16H,1H3",
        "InChIKey": null,
        "Canonical SMILES": "O=C1C2=CC(O)=CC=C2OC3=CC(OC)=CC(O)=C13",
        "Molecular Formula": "C<sub>14</sub>H<sub>10</sub>O<sub>5</sub>",
        "Molecular Mass": "258.23",
        "Melting Point": "266.5 °C"
    }
}