{
    "cas_no": "620-19-9",
    "key_name": "3-Methylbenzyl chloride",
    "cn_name": "3-甲基苄基氯;间甲基氯苄;",
    "alternate_name": "Benzene, 1-(chloromethyl)-3-methyl-;<em>m</em>-Xylene, α-chloro-;1-(Chloromethyl)-3-methylbenzene;<em>m</em>-Xylyl chloride;<em>m</em>-Xylyl-α-chloride;α-Chloro-<em>m</em>-xylene;<em>m</em>-(Chloromethyl)toluene;<em>m</em>-Methylbenzyl chloride;3-Methylbenzyl chloride;3-(Chloromethyl)toluene;3-Methylphenylmethyl chloride;1-Chloromethyl-3-methylbenzene;1-Methyl-3-chloromethylbenzene;NSC 76592",
    "duplicated_cas_no": "",
    "SMILES": "C(Cl)C1=CC(C)=CC=C1",
    "meta_data": {
        "InChI": "InChI=1S/C8H9Cl/c1-7-3-2-4-8(5-7)6-9/h2-5H,6H2,1H3",
        "InChIKey": null,
        "Canonical SMILES": "ClCC=1C=CC=C(C1)C",
        "Molecular Formula": "C<sub>8</sub>H<sub>9</sub>Cl",
        "Molecular Mass": "140.61",
        "Boiling Point": "195.5 °C",
        "Melting Point": "48-49 °C",
        "Density": "1.072 g/cm³ @ Temp: 20 °C"
    }
}