{
    "cas_no": "1313-82-2",
    "key_name": "Disodium sulfide",
    "cn_name": "硫化钠;硫化碱;",
    "alternate_name": "Sodium sulfide (Na<sub>2</sub>S);Sodium monosulfide;Sodium sulphide;Disodium sulfide;Sodium sulfide;Disodium monosulfide;Disodium sulfide (Na<sub>2</sub>S);NSC 41874",
    "duplicated_cas_no": "113584-74-0;1447694-91-8;2694817-63-3",
    "SMILES": "S([Na])[Na]",
    "meta_data": {
        "InChI": "InChI=1S/2Na.S",
        "InChIKey": null,
        "Canonical SMILES": "[Na]S[Na]",
        "Molecular Formula": "Na<sub>2</sub>S",
        "Molecular Mass": "",
        "Melting Point": "&gt;1200 °C",
        "Density": "1.856 g/cm³ @ Temp: 14 °C"
    }
}