{
    "cas_no": "95-92-1",
    "key_name": "Diethyl oxalate",
    "cn_name": "草酸二乙酯;乙二酸二乙酯;",
    "alternate_name": "Ethanedioic acid, 1,2-diethyl ester;Oxalic acid, diethyl ester;Ethanedioic acid, diethyl ester;Diethyl ethanedioate;Diethyl oxalate;Ethyl oxalate;NSC 8851",
    "duplicated_cas_no": "",
    "SMILES": "C(C(OCC)=O)(OCC)=O",
    "meta_data": {
        "InChI": "InChI=1S/C6H10O4/c1-3-9-5(7)6(8)10-4-2/h3-4H2,1-2H3",
        "InChIKey": null,
        "Canonical SMILES": "O=C(OCC)C(=O)OCC",
        "Molecular Formula": "C<sub>6</sub>H<sub>10</sub>O<sub>4</sub>",
        "Molecular Mass": "146.14",
        "Boiling Point": "185.7 °C @ Press: 760 Torr",
        "Melting Point": "-38.5 °C",
        "Density": "1.0785 g/cm³ @ Temp: 20 °C"
    }
}