{
    "cas_no": "463-71-8",
    "key_name": "Thiophosgene",
    "cn_name": "硫光气;硫羰化二氯;",
    "alternate_name": "Carbonothioic dichloride;Thiophosgene;Carbon chlorosulfide;Thiocarbonyl chloride;Carbonic dichloride, thio-;Thiocarbonyl dichloride;Dichlorothiocarbonyl;Thiocarbonic dichloride;Dichlorothioformaldehyde;Carbonyl sulfide dichloride;Carbon dichloride sulfide",
    "duplicated_cas_no": "",
    "SMILES": "C(Cl)(Cl)=S",
    "meta_data": {
        "InChI": "InChI=1S/CCl2S/c2-1(3)4",
        "InChIKey": null,
        "Canonical SMILES": "S=C(Cl)Cl",
        "Molecular Formula": "CCl<sub>2</sub>S",
        "Molecular Mass": "114.98",
        "Boiling Point": "73 °C",
        "Melting Point": "&lt;25 °C",
        "Density": "1.508 g/cm³ @ Temp: 15 °C"
    }
}