{
    "cas_no": "6972-61-8",
    "key_name": "2,4-Dimethoxycinnamic acid",
    "cn_name": "2,4-二甲氧基肉桂酸;2,4-二甲氧基肉桂酸;2,4-二甲基肉桂酸;2,4-二甲氧基苯丙烯酸, 98+%;",
    "alternate_name": "2-Propenoic acid, 3-(2,4-dimethoxyphenyl)-;Cinnamic acid, 2,4-dimethoxy-;3-(2,4-Dimethoxyphenyl)-2-propenoic acid;2,4-Dimethoxycinnamic acid;NSC 62137",
    "duplicated_cas_no": "",
    "SMILES": "C(=CC(O)=O)C1=C(OC)C=C(OC)C=C1",
    "meta_data": {
        "InChI": "InChI=1S/C11H12O4/c1-14-9-5-3-8(4-6-11(12)13)10(7-9)15-2/h3-7H,1-2H3,(H,12,13)",
        "InChIKey": null,
        "Canonical SMILES": "O=C(O)C=CC1=CC=C(OC)C=C1OC",
        "Molecular Formula": "C<sub>11</sub>H<sub>12</sub>O<sub>4</sub>",
        "Molecular Mass": "208.21",
        "Melting Point": "182-184 °C"
    }
}