{
    "cas_no": "69304-47-8",
    "key_name": "Brivudine",
    "cn_name": "溴夫定;溴乙烯尿苷;5-[(E)-2-溴乙烯基]-1-[(2R,4S,5R)-4-羟基-5-(羟甲基)氧杂环戊-2-基]嘧啶-2,4-二酮;",
    "alternate_name": "Uridine, 5-[(1<em>E</em>)-2-bromoethenyl]-2′-deoxy-;Uridine, 5-(2-bromoethenyl)-2′-deoxy-, (<em>E</em>)-;5-[(1<em>E</em>)-2-Bromoethenyl]-2′-deoxyuridine;BVDU;(<em>E</em>)-5-(2-Bromovinyl)deoxyuridine;(<em>E</em>)-5-<em>O</em>-(2-bromoethenyl)-2′-deoxyuridine;Brivudine;5-[(<em>E</em>)-2-Bromoethenyl]-2′-deoxyuridine;Helpin;(<em>E</em>)-5-(2-Bromovinyl)-2′-deoxyuridine;Brivudin;Bromovinyldeoxyuridine;RP 101",
    "duplicated_cas_no": "102040-00-6;155203-57-9;286419-83-8",
    "SMILES": "O=C1N([C@@H]2O[C@H](CO)[C@@H](O)C2)C=C(/C=C/Br)C(=O)N1",
    "meta_data": {
        "InChI": "InChI=1S/C11H13BrN2O5/c12-2-1-6-4-14(11(18)13-10(6)17)9-3-7(16)8(5-15)19-9/h1-2,4,7-9,15-16H,3,5H2,(H,13,17,18)/b2-1+/t7-,8+,9+/m0/s1",
        "InChIKey": null,
        "Canonical SMILES": "O=C1NC(=O)N(C=C1C=CBr)C2OC(CO)C(O)C2",
        "Molecular Formula": "C<sub>11</sub>H<sub>13</sub>BrN<sub>2</sub>O<sub>5</sub>",
        "Molecular Mass": "333.14",
        "Melting Point": "164-166 °C"
    }
}