{
    "cas_no": "5394-36-5",
    "key_name": "5-Ethyl-5-methylhydantoin",
    "cn_name": "5-甲基-5-乙基海因;5-甲基-5-乙基乙内酰脲;",
    "alternate_name": "2,4-Imidazolidinedione, 5-ethyl-5-methyl-;Hydantoin, 5-ethyl-5-methyl-;5-Ethyl-5-methyl-2,4-imidazolidinedione;Methylethylhydantoin;5-Ethyl-5-methylhydantoin;5-Methyl-5-ethylhydantoin;NSC 1020",
    "duplicated_cas_no": "16820-12-5",
    "SMILES": "C(C)C1(C)C(=O)NC(=O)N1",
    "meta_data": {
        "InChI": "InChI=1S/C6H10N2O2/c1-3-6(2)4(9)7-5(10)8-6/h3H2,1-2H3,(H2,7,8,9,10)",
        "InChIKey": null,
        "Canonical SMILES": "O=C1NC(=O)C(N1)(C)CC",
        "Molecular Formula": "C<sub>6</sub>H<sub>10</sub>N<sub>2</sub>O<sub>2</sub>",
        "Molecular Mass": "142.16",
        "Melting Point": "149 °C"
    }
}