{
    "cas_no": "2486-75-1",
    "key_name": "4-Amino-2-methylbenzoic acid",
    "cn_name": "4-氨基-2-甲基苯甲酸;",
    "alternate_name": "Benzoic acid, 4-amino-2-methyl-;<em>o</em>-Toluic acid, 4-amino-;4-Amino-2-methylbenzoic acid;2-Methyl-4-aminobenzoic acid;2-Methyl-<em>p</em>-aminobenzoic acid;NSC 49299",
    "duplicated_cas_no": "",
    "SMILES": "C(O)(=O)C1=C(C)C=C(N)C=C1",
    "meta_data": {
        "InChI": "InChI=1S/C8H9NO2/c1-5-4-6(9)2-3-7(5)8(10)11/h2-4H,9H2,1H3,(H,10,11)",
        "InChIKey": null,
        "Canonical SMILES": "O=C(O)C1=CC=C(N)C=C1C",
        "Molecular Formula": "C<sub>8</sub>H<sub>9</sub>NO<sub>2</sub>",
        "Molecular Mass": "151.16",
        "Melting Point": "158-164 °C (decomp)"
    }
}