{
    "cas_no": "3074-03-1",
    "key_name": "Benzo[<em>b</em>]fluoren-11-one",
    "cn_name": null,
    "alternate_name": "11<em>H</em>-Benzo[<em>b</em>]fluoren-11-one;Benzo[<em>b</em>]fluoren-11-one;NSC 113028;11<em>H</em>-Benzo(b)fluoren-11-one",
    "duplicated_cas_no": "",
    "SMILES": "O=C1C=2C(C=3C1=CC=CC3)=CC=4C(C2)=CC=CC4",
    "meta_data": {
        "InChI": "InChI=1S/C17H10O/c18-17-14-8-4-3-7-13(14)15-9-11-5-1-2-6-12(11)10-16(15)17/h1-10H",
        "InChIKey": null,
        "Canonical SMILES": "O=C1C=2C=CC=CC2C3=CC=4C=CC=CC4C=C13",
        "Molecular Formula": "C<sub>17</sub>H<sub>10</sub>O",
        "Molecular Mass": "230.26",
        "Melting Point": "153.5 °C"
    }
}