{
    "cas_no": "7782-44-7",
    "key_name": "Oxygen",
    "cn_name": null,
    "alternate_name": "Oxygen;Oxygen molecule;Molecular oxygen;Dioxygen;Phoenix I 2 A 7;Oxygen gas;Medicinal Oxygen;MeSH ID: D010100",
    "duplicated_cas_no": "1338-93-8;14797-70-7;80217-98-7;80937-33-3;1053656-93-1;1173018-52-4;1397194-37-4",
    "SMILES": "O=O",
    "meta_data": {
        "InChI": "InChI=1S/O2/c1-2",
        "InChIKey": null,
        "Canonical SMILES": "O=O",
        "Molecular Formula": "O<sub>2</sub>",
        "Molecular Mass": "32.00",
        "Boiling Point": "-182.96 °C",
        "Melting Point": "-218.4 °C",
        "Density": "3.419 g/cm³"
    }
}