{
    "cas_no": "26825-94-5",
    "key_name": "Decanoic acid, 10-bromo-, methyl ester",
    "cn_name": "甲基10-溴癸酸;",
    "alternate_name": "Decanoic acid, 10-bromo-, methyl ester;Capric acid, ι-bromo-, methyl ester;Methyl 10-bromodecanoate;10-Bromodecanoic acid methyl ester",
    "duplicated_cas_no": "",
    "SMILES": "C(CCC(OC)=O)CCCCCCBr",
    "meta_data": {
        "InChI": "InChI=1S/C11H21BrO2/c1-14-11(13)9-7-5-3-2-4-6-8-10-12/h2-10H2,1H3",
        "InChIKey": null,
        "Canonical SMILES": "O=C(OC)CCCCCCCCCBr",
        "Molecular Formula": "C<sub>11</sub>H<sub>21</sub>BrO<sub>2</sub>",
        "Molecular Mass": "265.19",
        "Boiling Point": "165 °C @ Press: 12 Torr",
        "Melting Point": "-8.3 °C"
    }
}