{
    "cas_no": "16462-27-4",
    "key_name": "2,4-Diaminopyrimidine-5-carbonitrile",
    "cn_name": "2,4-二氨基嘧啶-5-腈;2,4-二氨基嘧啶-5-腈;2,4-二氨基-5-氰基嘧啶;2,4-二氨基嘧啶-5-甲腈;",
    "alternate_name": "5-Pyrimidinecarbonitrile, 2,4-diamino-;2,4-Diamino-5-pyrimidinecarbonitrile;2,4-Diamino-5-cyanopyrimidine;NSC 135235;2,4-Diaminopyrimidine-5-carbonitrile",
    "duplicated_cas_no": "",
    "SMILES": "C(#N)C=1C(N)=NC(N)=NC1",
    "meta_data": {
        "InChI": "InChI=1S/C5H5N5/c6-1-3-2-9-5(8)10-4(3)7/h2H,(H4,7,8,9,10)",
        "InChIKey": null,
        "Canonical SMILES": "N#CC1=CN=C(N=C1N)N",
        "Molecular Formula": "C<sub>5</sub>H<sub>5</sub>N<sub>5</sub>",
        "Molecular Mass": "135.13",
        "Melting Point": "318 °C (decomp)"
    }
}