{
    "cas_no": "1761-61-1",
    "key_name": "5-Bromosalicylaldehyde",
    "cn_name": "5-溴水杨醛;",
    "alternate_name": "Benzaldehyde, 5-bromo-2-hydroxy-;Salicylaldehyde, 5-bromo-;5-Bromo-2-hydroxybenzaldehyde;5-Bromosalicylaldehyde;2-Hydroxy-5-bromobenzaldehyde;4-Bromo-2-formylphenol;3-Bromo-6-hydroxybenzaldehyde;NSC 7310;NSC 9258",
    "duplicated_cas_no": "",
    "SMILES": "C(=O)C1=C(O)C=CC(Br)=C1",
    "meta_data": {
        "InChI": "InChI=1S/C7H5BrO2/c8-6-1-2-7(10)5(3-6)4-9/h1-4,10H",
        "InChIKey": null,
        "Canonical SMILES": "O=CC1=CC(Br)=CC=C1O",
        "Molecular Formula": "C<sub>7</sub>H<sub>5</sub>BrO<sub>2</sub>",
        "Molecular Mass": "201.02",
        "Melting Point": "105 °C"
    }
}