{
    "cas_no": "1303-11-3",
    "key_name": "Indium arsenide",
    "cn_name": "砷化铟;",
    "alternate_name": "Indium arsenide (InAs);Indium arsenide;Indium monoarsenide (InAs);Indium monoarsenide",
    "duplicated_cas_no": "817163-79-4;1018852-65-7;1370553-14-2;2245726-18-3",
    "SMILES": "[As]#[In]",
    "meta_data": {
        "InChI": "InChI=1S/As.In",
        "InChIKey": null,
        "Canonical SMILES": "[As]#[In]",
        "Molecular Formula": "AsIn",
        "Molecular Mass": "",
        "Melting Point": "943.3 °C",
        "Density": "5.69 g/cm³"
    }
}