{
    "cas_no": "10230-69-0",
    "key_name": "1-[(Phenylmethyl)thio]-2-propanone",
    "cn_name": "1-(苄硫基)丙酮;",
    "alternate_name": "2-Propanone, 1-[(phenylmethyl)thio]-;2-Propanone, (benzylthio)-;2-Propanone, 1-(benzylthio)-;1-[(Phenylmethyl)thio]-2-propanone;Benzylthio-2-propanone;1-(Benzylthio)-2-propanone;(Benzylthio)acetone;1-(Benzylthio)acetone;1-Benzylsulfanylpropan-2-one;1-(Benzylsulfanyl)propan-2-one",
    "duplicated_cas_no": "",
    "SMILES": "C(SCC(C)=O)C1=CC=CC=C1",
    "meta_data": {
        "InChI": "InChI=1S/C10H12OS/c1-9(11)7-12-8-10-5-3-2-4-6-10/h2-6H,7-8H2,1H3",
        "InChIKey": null,
        "Canonical SMILES": "O=C(C)CSCC=1C=CC=CC1",
        "Molecular Formula": "C<sub>10</sub>H<sub>12</sub>OS",
        "Molecular Mass": "180.27",
        "Boiling Point": "155 °C",
        "Melting Point": "53-54 °C",
        "Density": "1.0820 g/cm³ @ Temp: 20 °C"
    }
}