{
    "cas_no": "935-02-4",
    "key_name": "3-Phenyl-2-propynenitrile",
    "cn_name": null,
    "alternate_name": "2-Propynenitrile, 3-phenyl-;Propiolonitrile, phenyl-;3-Phenyl-2-propynenitrile;Phenylcyanoacetylene;Cyanophenylacetylene;Phenylpropiolonitrile;Phenylpropynenitrile;1-Cyano-2-phenylacetylene;3-Phenylpropynenitrile;NSC 71547;1-Phenyl-2-cyanoacetylene;3-Phenylpropiolonitrile",
    "duplicated_cas_no": "",
    "SMILES": "C(#CC#N)C1=CC=CC=C1",
    "meta_data": {
        "InChI": "InChI=1S/C9H5N/c10-8-4-7-9-5-2-1-3-6-9/h1-3,5-6H",
        "InChIKey": null,
        "Canonical SMILES": "N#CC#CC=1C=CC=CC1",
        "Molecular Formula": "C<sub>9</sub>H<sub>5</sub>N",
        "Molecular Mass": "127.14",
        "Boiling Point": "73-74 °C @ Press: 3 Torr",
        "Melting Point": "38-40 °C"
    }
}