{
    "cas_no": "72-48-0",
    "key_name": "Alizarin",
    "cn_name": "1,2-二羟基蒽醌;茜素;",
    "alternate_name": "9,10-Anthracenedione, 1,2-dihydroxy-;Alizarin B;Anthraquinone, 1,2-dihydroxy-;1,2-Dihydroxy-9,10-anthracenedione;C.I. 58000;Alizarin;Alizarina;Alizarine;Alizarine B;Alizarine 3B;Alizarine Indicator;Alizarine Lake Red 2P;Alizarine Lake Red IPX;Alizarine NAC;Alizarine L Paste;Alizarine Paste 20 percent Bluish;Alizarine Red;Alizarine Red B;Alizarine Red B2;Alizarine Red L;Alizarine Red IP;Alizarine Red IPP;1,2-Anthraquinonediol;Alizarine Lake Red 3P;Certiqual Alizarine;C.I. Mordant Red 11;1,2-Dihydroxyanthraquinone;Eljon Madder;Mitsui Alizarine B;Turkey red;Alizarin Red;D And C Orange Number 15;Deep Crimson Madder 10821;1,2-Dihydroxy-9,10-anthraquinone;Mordant Red 11;C Ext. Red 62;Acid Metachrome Red B;Acid Mordant Red B;NSC 7212;Qiansu;CSU-1585;CSU 1585;Rubican;1,2-Dihydroxy-9,10-dihydroanthracene-9,10-dione;Alizarin Red assay;Alizarin Red staining;Alizarin Red stain",
    "duplicated_cas_no": "1328-02-5;84754-86-9",
    "SMILES": "O=C1C=2C(C(=O)C=3C1=CC=CC3)=CC=C(O)C2O",
    "meta_data": {
        "InChI": "InChI=1S/C14H8O4/c15-10-6-5-9-11(14(10)18)13(17)8-4-2-1-3-7(8)12(9)16/h1-6,15,18H",
        "InChIKey": null,
        "Canonical SMILES": "O=C1C=2C=CC=CC2C(=O)C3=C(O)C(O)=CC=C13",
        "Molecular Formula": "C<sub>14</sub>H<sub>8</sub>O<sub>4</sub>",
        "Molecular Mass": "240.21",
        "Boiling Point": "430 °C",
        "Melting Point": "289.5 °C"
    }
}