{
    "cas_no": "459-19-8",
    "key_name": "Benzeneethanamine, 4-fluoro-, hydrochloride (1:1)",
    "cn_name": null,
    "alternate_name": "Benzeneethanamine, 4-fluoro-, hydrochloride (1:1);Phenethylamine, <em>p</em>-fluoro-, hydrochloride;Benzeneethanamine, 4-fluoro-, hydrochloride;<em>p</em>-Fluorophenethylamine hydrochloride;2-(4-Fluorophenyl)ethylamine hydrochloride;4-Fluorophenethylamine hydrochloride;2-(4-Fluorophenyl)ethanamine hydrochloride",
    "duplicated_cas_no": "",
    "SMILES": "C(CN)C1=CC=C(F)C=C1.Cl",
    "meta_data": {
        "InChI": "InChI=1S/C8H10FN.ClH/c9-8-3-1-7(2-4-8)5-6-10;/h1-4H,5-6,10H2;1H",
        "InChIKey": null,
        "Canonical SMILES": "Cl.FC1=CC=C(C=C1)CCN",
        "Molecular Formula": "C<sub>8</sub>H<sub>10</sub>FN.ClH",
        "Molecular Mass": "",
        "Melting Point": "206-208 °C"
    }
}