{
    "cas_no": "37148-47-3",
    "key_name": "1-(4-Amino-3,5-dichlorophenyl)-2-bromoethanone",
    "cn_name": "4-氨基-3,5-二氯-2ˊ-溴苯乙酮;",
    "alternate_name": "Ethanone, 1-(4-amino-3,5-dichlorophenyl)-2-bromo-;1-(4-Amino-3,5-dichlorophenyl)-2-bromoethanone;4-Amino-ω-bromo-3,5-dichloroacetophenone;4-Amino-3,5-dichlorophenacyl bromide;4-Amino-α-bromo-3,5-dichloroacetophenone;1-(4-Amino-3,5-dichlorophenyl)-2-bromoethan-1-one;1-(4-Amino-3,5-dichlorophenyl)-2-bromo-1-ethanone",
    "duplicated_cas_no": "",
    "SMILES": "C(CBr)(=O)C1=CC(Cl)=C(N)C(Cl)=C1",
    "meta_data": {
        "InChI": "InChI=1S/C8H6BrCl2NO/c9-3-7(13)4-1-5(10)8(12)6(11)2-4/h1-2H,3,12H2",
        "InChIKey": null,
        "Canonical SMILES": "O=C(C1=CC(Cl)=C(N)C(Cl)=C1)CBr",
        "Molecular Formula": "C<sub>8</sub>H<sub>6</sub>BrCl<sub>2</sub>NO",
        "Molecular Mass": "282.95",
        "Melting Point": "140-142 °C"
    }
}