{
    "cas_no": "123-39-7",
    "key_name": "<em>N</em>-Methylformamide",
    "cn_name": "N-甲基甲酰胺;",
    "alternate_name": "Formamide, <em>N</em>-methyl-;<em>N</em>-Methylformamide;Monomethylformamide;Methylformamide;<em>N</em>-Monomethylformamide;NSC 3051;<em>N</em>-Methylformimidic acid;Methyl methanamide",
    "duplicated_cas_no": "",
    "SMILES": "C(NC)=O",
    "meta_data": {
        "InChI": "InChI=1S/C2H5NO/c1-3-2-4/h2H,1H3,(H,3,4)",
        "InChIKey": null,
        "Canonical SMILES": "O=CNC",
        "Molecular Formula": "C<sub>2</sub>H<sub>5</sub>NO",
        "Molecular Mass": "59.07",
        "Boiling Point": "180-185 °C",
        "Melting Point": "-5.4 °C",
        "Density": "0.9961 g/cm³ @ Temp: 25 °C"
    }
}