{
    "cas_no": "1750-12-5",
    "key_name": "4-Amino-3-hydrazino-5-mercapto-1,2,4-triazole",
    "cn_name": "4-氨基-3-肼基-5-巯基-1,2,4-三氮唑;",
    "alternate_name": "3<em>H</em>-1,2,4-Triazole-3-thione, 4-amino-5-hydrazinyl-2,4-dihydro-;Δ<sup>2</sup>-1,2,4-Triazoline-5-thione, 4-amino-3-hydrazino-;1,2,4-Triazolidin-3-one, 4-amino-5-thioxo-, hydrazone;4<em>H</em>-1,2,4-Triazole-3-thiol, 4-amino-5-hydrazino-;4-Amino-5-hydrazinyl-2,4-dihydro-3<em>H</em>-1,2,4-triazole-3-thione;4-Amino-3-hydrazino-5-mercapto-1,2,4-triazole;4-Amino-5-hydrazino-1,2,4-triazole-3-thiol;Purpald;AHMT;4-Amino-3-hydrazino-5-thio-1,2,4-triazole;4-Amino-3-hydrazino-1,2,4-triazole-5-thiol;AHMT (hydrazone);NSC 12519;NSC 49106;NSC 682569;4-Amino-5-hydrazino-4<em>H</em>-[1,2,4]triazol-3-thiol;4-Amino-5-hydrazino-4<em>H</em>-1,2,4-triazole-3-thiol",
    "duplicated_cas_no": "29070-01-7;72170-33-3",
    "SMILES": "N(N)=C1N(N)C(=S)NN1",
    "meta_data": {
        "InChI": "InChI=1S/C2H6N6S/c3-5-1-6-7-2(9)8(1)4/h3-4H2,(H,5,6)(H,7,9)",
        "InChIKey": null,
        "Canonical SMILES": "S=C1NNC(=NN)N1N",
        "Molecular Formula": "C<sub>2</sub>H<sub>6</sub>N<sub>6</sub>S",
        "Molecular Mass": "146.17",
        "Melting Point": "228 °C"
    }
}