{
    "cas_no": "1817-74-9",
    "key_name": "1,1′-Methylenebis[4-nitrobenzene]",
    "cn_name": "4,4-二苯基甲烷二硝基;",
    "alternate_name": "Benzene, 1,1′-methylenebis[4-nitro-;Methane, bis(<em>p</em>-nitrophenyl)-;1,1′-Methylenebis[4-nitrobenzene];4,4′-Dinitrodiphenylmethane;Bis(4-nitrophenyl)methane;Bis(<em>p</em>-nitrophenyl)methane;<em>p</em>,<em>p</em>′-Dinitrodiphenylmethane;NSC 631621;NSC 6337;1-Nitro-4-[(4-nitrophenyl)methyl]benzene",
    "duplicated_cas_no": "",
    "SMILES": "C(C1=CC=C(N(=O)=O)C=C1)C2=CC=C(N(=O)=O)C=C2",
    "meta_data": {
        "InChI": "InChI=1S/C13H10N2O4/c16-14(17)12-5-1-10(2-6-12)9-11-3-7-13(8-4-11)15(18)19/h1-8H,9H2",
        "InChIKey": null,
        "Canonical SMILES": "O=N(=O)C1=CC=C(C=C1)CC2=CC=C(C=C2)N(=O)=O",
        "Molecular Formula": "C<sub>13</sub>H<sub>10</sub>N<sub>2</sub>O<sub>4</sub>",
        "Molecular Mass": "258.23",
        "Melting Point": "187 °C"
    }
}