{
    "cas_no": "10032-02-7",
    "key_name": "Geranyl hexanoate",
    "cn_name": "己酸香叶酯;",
    "alternate_name": "Hexanoic acid, (2<em>E</em>)-3,7-dimethyl-2,6-octadien-1-yl ester;Hexanoic acid, 3,7-dimethyl-2,6-octadienyl ester, (<em>E</em>)-;Hexanoic acid, (2<em>E</em>)-3,7-dimethyl-2,6-octadienyl ester;2,6-Octadien-1-ol, 3,7-dimethyl-, hexanoate, (<em>E</em>)-;Geranyl caproate;Geranyl hexanoate;Geraniol caproate;Geraniol hexanoate",
    "duplicated_cas_no": "",
    "SMILES": "C(/C=C(/CCC=C(C)C)\\C)OC(CCCCC)=O",
    "meta_data": {
        "InChI": "InChI=1S/C16H28O2/c1-5-6-7-11-16(17)18-13-12-15(4)10-8-9-14(2)3/h9,12H,5-8,10-11,13H2,1-4H3/b15-12+",
        "InChIKey": null,
        "Canonical SMILES": "O=C(OCC=C(C)CCC=C(C)C)CCCCC",
        "Molecular Formula": "C<sub>16</sub>H<sub>28</sub>O<sub>2</sub>",
        "Molecular Mass": "252.39",
        "Boiling Point": "103-106 °C @ Press: 0.8 Torr"
    }
}