{
    "cas_no": "17817-31-1",
    "key_name": "6,7,4′-Trihydroxyisoflavone",
    "cn_name": null,
    "alternate_name": "4<em>H</em>-1-Benzopyran-4-one, 6,7-dihydroxy-3-(4-hydroxyphenyl)-;Isoflavone, 4′,6,7-trihydroxy-;6,7-Dihydroxy-3-(4-hydroxyphenyl)-4<em>H</em>-1-benzopyran-4-one;4′,6,7-Trihydroxyisoflavone;6,7,4′-Trihydroxyisoflavone;6-Hydroxydaidzein;Desmethylglycitein",
    "duplicated_cas_no": "",
    "SMILES": "O=C1C=2C(=CC(O)=C(O)C2)OC=C1C3=CC=C(O)C=C3",
    "meta_data": {
        "InChI": "InChI=1S/C15H10O5/c16-9-3-1-8(2-4-9)11-7-20-14-6-13(18)12(17)5-10(14)15(11)19/h1-7,16-18H",
        "InChIKey": null,
        "Canonical SMILES": "O=C1C(=COC2=CC(O)=C(O)C=C12)C=3C=CC(O)=CC3",
        "Molecular Formula": "C<sub>15</sub>H<sub>10</sub>O<sub>5</sub>",
        "Molecular Mass": "270.24",
        "Melting Point": "322 °C (decomp)"
    }
}