{
    "cas_no": "6373-73-5",
    "key_name": "Disperse Yellow 9",
    "cn_name": "分散黄9;",
    "alternate_name": "1,4-Benzenediamine, <em>N</em><sup>1</sup>-(2,4-dinitrophenyl)-;<em>p</em>-Phenylenediamine, <em>N</em>-(2,4-dinitrophenyl)-;1,4-Benzenediamine, <em>N</em>-(2,4-dinitrophenyl)-;<em>N</em><sup>1</sup>-(2,4-Dinitrophenyl)-1,4-benzenediamine;C.I. 10375;C.I. Solvent Orange 53;2,4-Dinitro-4′-aminodiphenylamine;Seriplas Yellow PL;Serisol Fast Yellow PL;SRA Golden Yellow IX;Supracet Yellow 5RD;C.I. Disperse Yellow 9;4-Amino-2′,4′-dinitrodiphenylamine;<em>N</em>-(2,4-Dinitrophenyl)-1,4-phenylenediamine;Serisol Fast Yellow PL 150;Solvent Orange 53;Disperse Yellow 9;NSC 60560;1-<em>N</em>-(2,4-Dinitrophenyl)benzene-1,4-diamine",
    "duplicated_cas_no": "",
    "SMILES": "N(=O)(=O)C1=C(NC2=CC=C(N)C=C2)C=CC(N(=O)=O)=C1",
    "meta_data": {
        "InChI": "InChI=1S/C12H10N4O4/c13-8-1-3-9(4-2-8)14-11-6-5-10(15(17)18)7-12(11)16(19)20/h1-7,14H,13H2",
        "InChIKey": null,
        "Canonical SMILES": "O=N(=O)C1=CC=C(NC2=CC=C(N)C=C2)C(=C1)N(=O)=O",
        "Molecular Formula": "C<sub>12</sub>H<sub>10</sub>N<sub>4</sub>O<sub>4</sub>",
        "Molecular Mass": "274.23",
        "Melting Point": "188 °C"
    }
}