{
    "cas_no": "105-57-7",
    "key_name": "Diethyl acetal",
    "cn_name": "1,1-二乙氧基乙烷;乙叉二乙基醚;二乙醇缩乙醛;乙缩醛;",
    "alternate_name": "Ethane, 1,1-diethoxy-;Acetaldehyde, diethyl acetal;1,1-Diethoxyethane;Acetal;Diethyl acetal;Ethylidene diethyl ether;Acetaldehyde ethyl acetal;Ethanal diethyl acetal;NSC 7624",
    "duplicated_cas_no": "",
    "SMILES": "C(OCC)(OCC)C",
    "meta_data": {
        "InChI": "InChI=1S/C6H14O2/c1-4-7-6(3)8-5-2/h6H,4-5H2,1-3H3",
        "InChIKey": null,
        "Canonical SMILES": "O(CC)C(OCC)C",
        "Molecular Formula": "C<sub>6</sub>H<sub>14</sub>O<sub>2</sub>",
        "Molecular Mass": "118.17",
        "Boiling Point": "-23 °C @ Press: 1.0 Torr",
        "Melting Point": "-100 °C",
        "Density": "0.8254 g/cm³ @ Temp: 20 °C"
    }
}