{
    "cas_no": "253-72-5",
    "key_name": "1,6-Naphthyridine",
    "cn_name": "1,6-萘啶;1,6-二氮萘;Naphthyridine;1,6-Naphthyridine;",
    "alternate_name": "1,6-Naphthyridine;1,6-Diazanaphthalene;1,6-Pyridopyridine",
    "duplicated_cas_no": "",
    "SMILES": "C12=C(C=CN=C1)N=CC=C2",
    "meta_data": {
        "InChI": "InChI=1S/C8H6N2/c1-2-7-6-9-5-3-8(7)10-4-1/h1-6H",
        "InChIKey": null,
        "Canonical SMILES": "N=1C=CC=2N=CC=CC2C1",
        "Molecular Formula": "C<sub>8</sub>H<sub>6</sub>N<sub>2</sub>",
        "Molecular Mass": "130.15",
        "Melting Point": "31.5 °C"
    }
}