{
    "cas_no": "3731-51-9",
    "key_name": "2-Pyridinemethanamine",
    "cn_name": "2-氨甲基吡啶;",
    "alternate_name": "2-Pyridinemethanamine;Pyridine, 2-(aminomethyl)-;2-(Aminomethyl)pyridine;2-Picolylamine;2-Picolinamine;2-Pyridinemethylamine;(2-Pyridylmethyl)amine;α-(Aminomethyl)pyridine;α-Picolylamine;2-Pyridinylmethylamine;1-(Pyridin-2-yl)methanamine;NSC 59705;Pyridin-2-ylmethanamine;2-(2-Aminomethyl)pyridine;(Pyridin-2-ylmethyl)amine;2-Pyridylmethanamine;<em>o</em>-Picolylamine",
    "duplicated_cas_no": "",
    "SMILES": "C(N)C1=CC=CC=N1",
    "meta_data": {
        "InChI": "InChI=1S/C6H8N2/c7-5-6-3-1-2-4-8-6/h1-4H,5,7H2",
        "InChIKey": null,
        "Canonical SMILES": "N=1C=CC=CC1CN",
        "Molecular Formula": "C<sub>6</sub>H<sub>8</sub>N<sub>2</sub>",
        "Molecular Mass": "108.14",
        "Boiling Point": "203 °C",
        "Melting Point": "81 °C",
        "Density": "1.105 g/cm³ @ Temp: 20 °C"
    }
}