{
    "cas_no": "50375-10-5",
    "key_name": "2,3,6-Trichloroanisole",
    "cn_name": null,
    "alternate_name": "Benzene, 1,2,4-trichloro-3-methoxy-;1,2,4-Trichloro-3-methoxybenzene;2,3,6-Trichloroanisole",
    "duplicated_cas_no": "",
    "SMILES": "O(C)C1=C(Cl)C(Cl)=CC=C1Cl",
    "meta_data": {
        "InChI": "InChI=1S/C7H5Cl3O/c1-11-7-5(9)3-2-4(8)6(7)10/h2-3H,1H3",
        "InChIKey": null,
        "Canonical SMILES": "ClC1=CC=C(Cl)C(OC)=C1Cl",
        "Molecular Formula": "C<sub>7</sub>H<sub>5</sub>Cl<sub>3</sub>O",
        "Molecular Mass": "211.47",
        "Boiling Point": "227 °C",
        "Melting Point": "45 °C"
    }
}