{
    "cas_no": "128-04-1",
    "key_name": "Sodium dimethyldithiocarbamate",
    "cn_name": "二甲基二硫代氨基甲酸钠;福美钠;",
    "alternate_name": "Carbamodithioic acid, <em>N</em>,<em>N</em>-dimethyl-, sodium salt (1:1);Carbamic acid, dimethyldithio-, sodium salt;Carbamodithioic acid, dimethyl-, sodium salt;Aceto SDD 40;Alcobam NM;Methyl Namate;SDDC;Sodium dimethyldithiocarbamate;Thiostop N;Vulnopol NM;Wing Stop B;Sharstop 204;Sodium <em>N</em>,<em>N</em>-dimethyldithiocarbamate;Dimethyldithiocarbamic acid sodium salt;<em>N</em>,<em>N</em>-Dimethyldithiocarbamic acid sodium salt;Sodium dimethylaminocarbodithioate;MSL;Nocceler S;DDC;Sanceler S;Carbam S;Sodam;Dibam;Vinditat;Sodium dimethylaminodithiocarbamate;Amersep MP 3R;(Dimethyldithiocarbamato)sodium;Midfloc 1300L;MSL (carbamate);Diaprosim AB 13;Diram;MetalPlex 143;Nalmet A 1;Nocceler S 35;Sanceler S 40;SDD;SDD (polymerization inhibitor);Sodium <em>N</em>,<em>N</em>-dimethylcarbamodithioate;Preventol Z-L;Sodium 2-(dimethylamino)-2-thioxoethanethiolate;SMC;R 051044",
    "duplicated_cas_no": "122544-46-1;165724-02-7;191490-26-3",
    "SMILES": "C(N(C)C)(=S)S.[Na]",
    "meta_data": {
        "InChI": "InChI=1S/C3H7NS2.Na/c1-4(2)3(5)6;/h1-2H3,(H,5,6);",
        "InChIKey": null,
        "Canonical SMILES": "[Na].S=C(S)N(C)C",
        "Molecular Formula": "C<sub>3</sub>H<sub>7</sub>NS<sub>2</sub>.Na",
        "Molecular Mass": "",
        "Melting Point": "106-108 °C",
        "Density": "1.18 g/cm³"
    }
}