{
    "cas_no": "21298-55-5",
    "key_name": "2-(3-Thienyl)pyridine",
    "cn_name": "2-(3-噻吩)嘧啶;",
    "alternate_name": "Pyridine, 2-(3-thienyl)-;2-(3-Thienyl)pyridine;2-(3′-Thienyl)pyridine;2-Pyridyl-3-thiophene;2-(Thiophen-3-yl)pyridine;2-Thiophen-3-ylpyridine",
    "duplicated_cas_no": "",
    "SMILES": "C=1(C=CSC1)C2=CC=CC=N2",
    "meta_data": {
        "InChI": "InChI=1S/C9H7NS/c1-2-5-10-9(3-1)8-4-6-11-7-8/h1-7H",
        "InChIKey": null,
        "Canonical SMILES": "N1=CC=CC=C1C2=CSC=C2",
        "Molecular Formula": "C<sub>9</sub>H<sub>7</sub>NS",
        "Molecular Mass": "161.22",
        "Boiling Point": "90-92 °C @ Press: 0.5 Torr",
        "Melting Point": "251.8-252.6 °C"
    }
}