{
    "cas_no": "101-06-4",
    "key_name": "2-[Bis(phenylmethyl)amino]ethanol",
    "cn_name": "N,N-二苄基乙醇胺;",
    "alternate_name": "Ethanol, 2-[bis(phenylmethyl)amino]-;Ethanol, 2-(dibenzylamino)-;2-[Bis(phenylmethyl)amino]ethanol;<em>N</em>,<em>N</em>-Dibenzylethanolamine;D Ol;2-(Dibenzylamino)ethanol;<em>N</em>,<em>N</em>-Dibenzyl-β-aminoethanol;β-(<em>N</em>,<em>N</em>-Dibenzylamino)ethanol;<em>N</em>,<em>N</em>-Dibenzyl-2-aminoethanol;Dibenzylaminoethanol;<em>N</em>,<em>N</em>-Dibenzylaminoethanol;2-(Dibenzylamino)ethan-1-ol",
    "duplicated_cas_no": "",
    "SMILES": "N(CC1=CC=CC=C1)(CC2=CC=CC=C2)CCO",
    "meta_data": {
        "InChI": "InChI=1S/C16H19NO/c18-12-11-17(13-15-7-3-1-4-8-15)14-16-9-5-2-6-10-16/h1-10,18H,11-14H2",
        "InChIKey": null,
        "Canonical SMILES": "OCCN(CC=1C=CC=CC1)CC=2C=CC=CC2",
        "Molecular Formula": "C<sub>16</sub>H<sub>19</sub>NO",
        "Molecular Mass": "241.33",
        "Boiling Point": "170-175 °C @ Press: 3 Torr",
        "Melting Point": "46-47 °C"
    }
}