{
    "cas_no": "67-47-0",
    "key_name": "5-(Hydroxymethyl)furfural",
    "cn_name": "5-羟甲基糠醛;",
    "alternate_name": "2-Furancarboxaldehyde, 5-(hydroxymethyl)-;2-Furaldehyde, 5-(hydroxymethyl)-;5-(Hydroxymethyl)-2-furancarboxaldehyde;HMF;5-Hydroxymethyl-2-formylfuran;5-Hydroxymethylfuraldehyde;5-(Hydroxymethyl)-2-furaldehyde;5-(Hydroxymethyl)-2-furancarbonal;5-(Hydroxymethyl)-2-furfural;5-(Hydroxymethyl)furfural;5-Oxymethylfurfurole;5-(Hydroxymethyl)-2-furfuraldehyde;5-Hydroxymethylfuran-2-aldehyde;Hydroxymethylfurfuraldehyde;5-Hydroxymethylfurfuraldehyde;2-Hydroxymethyl-5-furfural;Hydroxymethylfurfuralaldehyde;Hydroxymethylfurfural;NSC 40738;5-Hydroxymethylfurfurol;2-Formyl-5-hydroxymethylfuran;5-(Hydroxymethyl)furancarboxaldehyde;Aes 103;Hydroxymethylfuraldehyde;BAX 555;5-Hmf;5-Hydroxymethylfurfural",
    "duplicated_cas_no": "76330-16-0",
    "SMILES": "C(O)C=1OC(C=O)=CC1",
    "meta_data": {
        "InChI": "InChI=1S/C6H6O3/c7-3-5-1-2-6(4-8)9-5/h1-3,8H,4H2",
        "InChIKey": null,
        "Canonical SMILES": "O=CC=1OC(=CC1)CO",
        "Molecular Formula": "C<sub>6</sub>H<sub>6</sub>O<sub>3</sub>",
        "Molecular Mass": "126.11",
        "Boiling Point": "115-120 °C @ Press: 0.5 Torr",
        "Melting Point": "31.5 °C",
        "Density": "1.23946 g/cm³ @ Temp: 50.000 °C"
    }
}