{
    "cas_no": "376348-78-6",
    "key_name": "4,4-Difluoro-<em>N</em>-[(1<em>S</em>)-3-oxo-1-phenylpropyl]cyclohexanecarboxamide",
    "cn_name": null,
    "alternate_name": "Cyclohexanecarboxamide, 4,4-difluoro-<em>N</em>-[(1<em>S</em>)-3-oxo-1-phenylpropyl]-;4,4-Difluoro-<em>N</em>-[(1<em>S</em>)-3-oxo-1-phenylpropyl]cyclohexanecarboxamide;4,4-Difluorocyclohexanecarboxylic acid <em>N</em>-((1S)-3-oxo-1-phenylpropyl)amide;(<em>s</em>)-4,4-Difluoro-<em>n</em>-(3-oxo-1-phenylpropyl)cyclohexanecarboxamide",
    "duplicated_cas_no": "",
    "SMILES": "[C@H](NC(=O)C1CCC(F)(F)CC1)(CC=O)C2=CC=CC=C2",
    "meta_data": {
        "InChI": "InChI=1S/C16H19F2NO2/c17-16(18)9-6-13(7-10-16)15(21)19-14(8-11-20)12-4-2-1-3-5-12/h1-5,11,13-14H,6-10H2,(H,19,21)/t14-/m0/s1",
        "InChIKey": null,
        "Canonical SMILES": "O=CCC(NC(=O)C1CCC(F)(F)CC1)C=2C=CC=CC2",
        "Molecular Formula": "C<sub>16</sub>H<sub>19</sub>F<sub>2</sub>NO<sub>2</sub>",
        "Molecular Mass": "295.32",
        "Melting Point": "119.0 °C"
    }
}