{
    "cas_no": "104-87-0",
    "key_name": "4-Methylbenzaldehyde",
    "cn_name": "对甲基苯甲醛;",
    "alternate_name": "Benzaldehyde, 4-methyl-;<em>p</em>-Tolualdehyde;4-Methylbenzaldehyde;<em>p</em>-Methylbenzaldehyde;4-Tolualdehyde;<em>p</em>-Formyltoluene;NSC 2224;<em>p</em>-Toluic aldehyde;PTAL",
    "duplicated_cas_no": "2324860-99-1",
    "SMILES": "C(=O)C1=CC=C(C)C=C1",
    "meta_data": {
        "InChI": "InChI=1S/C8H8O/c1-7-2-4-8(6-9)5-3-7/h2-6H,1H3",
        "InChIKey": null,
        "Canonical SMILES": "O=CC1=CC=C(C=C1)C",
        "Molecular Formula": "C<sub>8</sub>H<sub>8</sub>O",
        "Molecular Mass": "120.15",
        "Boiling Point": "204 °C @ Press: 760 Torr",
        "Melting Point": "-6 °C",
        "Density": "1.0194 g/cm³ @ Temp: 17 °C"
    }
}