{
    "cas_no": "865-77-0",
    "key_name": "1,1,1,2,3,3,4,4,5,5,6,6,7,7,8,8-Hexadecafluoro-8-iodo-2-(trifluoromethyl)octane",
    "cn_name": "全氟异壬基碘;",
    "alternate_name": "Octane, 1,1,1,2,3,3,4,4,5,5,6,6,7,7,8,8-hexadecafluoro-8-iodo-2-(trifluoromethyl)-;Octane, hexadecafluoro-1-iodo-7-(trifluoromethyl)-;1,1,1,2,3,3,4,4,5,5,6,6,7,7,8,8-Hexadecafluoro-8-iodo-2-(trifluoromethyl)octane;Nonadecafluoro-1-iodo-7-methyloctane;1-Iodo-7-(trifluoromethyl)perfluorooctane;1-Iodoperfluoro-7-methyloctane",
    "duplicated_cas_no": "",
    "SMILES": "C(C(C(F)(F)F)(C(F)(F)F)F)(C(C(C(C(C(F)(F)I)(F)F)(F)F)(F)F)(F)F)(F)F",
    "meta_data": {
        "InChI": "InChI=1S/C9F19I/c10-1(7(21,22)23,8(24,25)26)2(11,12)3(13,14)4(15,16)5(17,18)6(19,20)9(27,28)29",
        "InChIKey": null,
        "Canonical SMILES": "FC(F)(F)C(F)(C(F)(F)F)C(F)(F)C(F)(F)C(F)(F)C(F)(F)C(F)(F)C(F)(F)I",
        "Molecular Formula": "C<sub>9</sub>F<sub>19</sub>I",
        "Molecular Mass": "595.97",
        "Boiling Point": "189.5 °C"
    }
}