{
    "cas_no": "59113-36-9",
    "key_name": "Diglycerin",
    "cn_name": null,
    "alternate_name": "Propanediol, oxybis-;Diglycerin;Glycerol dimer;Diglycerol;K-COL-II;Great Oil DI 1;Diglycerin S;DIG-S;Resassol DN;Diglycerin 801;Glycerin 801",
    "duplicated_cas_no": "111569-93-8;56491-52-2;902146-48-9;51555-30-7",
    "SMILES": "",
    "meta_data": {
        "InChI": "",
        "InChIKey": null,
        "Canonical SMILES": "",
        "Molecular Formula": "C<sub>6</sub>H<sub>14</sub>O<sub>5</sub>",
        "Molecular Mass": "",
        "Boiling Point": "173 °C @ Press: 14 Torr",
        "Melting Point": "96-97 °C",
        "Density": "1.2774 g/cm³ @ Temp: 20 °C"
    }
}