{
    "uri": "substance/pt/59113369",
    "rn": "59113-36-9",
    "name": "Diglycerin",
    "images": [],
    "inchi": "",
    "inchiKey": "",
    "smile": "",
    "canonicalSmile": "",
    "molecularFormula": "C<sub>6</sub>H<sub>14</sub>O<sub>5</sub>",
    "molecularMass": "",
    "experimentalProperties": [
        {
            "name": "Boiling Point",
            "property": "173 °C @ Press: 14 Torr",
            "sourceNumber": 1
        },
        {
            "name": "Melting Point",
            "property": "96-97 °C",
            "sourceNumber": 1
        },
        {
            "name": "Density",
            "property": "1.2774 g/cm³ @ Temp: 20 °C",
            "sourceNumber": 2
        }
    ],
    "propertyCitations": [
        {
            "docUri": "document/pt/document/23298129",
            "sourceNumber": 1,
            "source": "Battegay, M.; Compt. rend., (1929), 188, 796-8, CAplus"
        },
        {
            "docUri": "document/pt/document/21978484",
            "sourceNumber": 2,
            "source": "Wright, H. J.; Journal of the American Chemical Society, (1946), 68, 446-8, CAplus"
        }
    ],
    "synonyms": [
        "Propanediol, oxybis-",
        "Diglycerin",
        "Glycerol dimer",
        "Diglycerol",
        "K-COL-II",
        "Great Oil DI 1",
        "Diglycerin S",
        "DIG-S",
        "Resassol DN",
        "Diglycerin 801",
        "Glycerin 801"
    ],
    "replacedRns": [
        "111569-93-8",
        "56491-52-2",
        "902146-48-9",
        "51555-30-7"
    ],
    "hasMolfile": false,
    "source": "https://commonchemistry.cas.org/detail?cas_rn=59113-36-9"
}