{
    "cas_no": "7579-36-4",
    "key_name": "Dibenzyl oxalate",
    "cn_name": "草酸二苄酯;乙二酸二苄酯;",
    "alternate_name": "Ethanedioic acid, 1,2-bis(phenylmethyl) ester;Oxalic acid, dibenzyl ester;Ethanedioic acid, bis(phenylmethyl) ester;Dibenzyl oxalate;Benzyl oxalate;HS 2046;NSC 52550",
    "duplicated_cas_no": "",
    "SMILES": "C(OC(C(OCC1=CC=CC=C1)=O)=O)C2=CC=CC=C2",
    "meta_data": {
        "InChI": "InChI=1S/C16H14O4/c17-15(19-11-13-7-3-1-4-8-13)16(18)20-12-14-9-5-2-6-10-14/h1-10H,11-12H2",
        "InChIKey": null,
        "Canonical SMILES": "O=C(OCC=1C=CC=CC1)C(=O)OCC=2C=CC=CC2",
        "Molecular Formula": "C<sub>16</sub>H<sub>14</sub>O<sub>4</sub>",
        "Molecular Mass": "270.28",
        "Melting Point": "80 °C"
    }
}