{
    "cas_no": "5470-70-2",
    "key_name": "Methyl 6-methylnicotinate",
    "cn_name": "6-甲基烟酸甲酯;",
    "alternate_name": "3-Pyridinecarboxylic acid, 6-methyl-, methyl ester;Nicotinic acid, 6-methyl-, methyl ester;Methyl 6-methylnicotinate;Methyl 6-methyl-3-pyridinecarboxylate;6-Methylnicotinic acid methyl ester;3-(Methoxycarbonyl)-6-methylpyridine;5-Methoxycarbonyl-2-methylpyridine;Methyl 6-methylaminonicotinate;6-Methyl-3-pyridinecarboxylic acid methyl ester;NSC 27973",
    "duplicated_cas_no": "",
    "SMILES": "C(OC)(=O)C=1C=CC(C)=NC1",
    "meta_data": {
        "InChI": "InChI=1S/C8H9NO2/c1-6-3-4-7(5-9-6)8(10)11-2/h3-5H,1-2H3",
        "InChIKey": null,
        "Canonical SMILES": "O=C(OC)C1=CN=C(C=C1)C",
        "Molecular Formula": "C<sub>8</sub>H<sub>9</sub>NO<sub>2</sub>",
        "Molecular Mass": "151.16",
        "Boiling Point": "106-108 °C @ Press: 18 Torr",
        "Melting Point": "32 °C"
    }
}