{
    "cas_no": "10026-13-8",
    "key_name": "Phosphorus pentachloride",
    "cn_name": "五氯化磷;",
    "alternate_name": "Phosphorane, pentachloro-;Phosphorus chloride (PCl<sub>5</sub>);Pentachlorophosphorane;Phosphoric chloride;Phosphorus pentachloride;Phosphorus perchloride;Phosphorus(V) chloride;Pentachlorophosphorus",
    "duplicated_cas_no": "",
    "SMILES": "P(Cl)(Cl)(Cl)(Cl)Cl",
    "meta_data": {
        "InChI": "InChI=1S/Cl5P/c1-6(2,3,4)5",
        "InChIKey": null,
        "Canonical SMILES": "ClP(Cl)(Cl)(Cl)Cl",
        "Molecular Formula": "Cl<sub>5</sub>P",
        "Molecular Mass": "208.24",
        "Melting Point": "160.5 °C",
        "Density": "2.114 g/cm³ @ Temp: 20 °C"
    }
}