{
    "cas_no": "1821-52-9",
    "key_name": "Indole-3-lactic acid",
    "cn_name": null,
    "alternate_name": "1<em>H</em>-Indole-3-propanoic acid, α-hydroxy-;Indole-3-lactic acid;Indolelactic acid;α-Hydroxy-1<em>H</em>-indole-3-propanoic acid;3-Indolyllactic acid;β-(3-Indolyl)lactic acid;β-Indolyllactic acid;2-Hydroxy-3-(3-indolyl)propanoic acid;3-(3-Indolyl)-2-hydroxypropionic acid;<span class=\"text-smallcaps\">DL</span>-Indole-3-lactic acid;2-Hydroxy-3-(1<em>H</em>-indol-3-yl)propanoic acid;3-(3-Indolyl)-<span class=\"text-smallcaps\">DL</span>-lactic acid",
    "duplicated_cas_no": "832-97-3",
    "SMILES": "C(C(C(O)=O)O)C=1C=2C(NC1)=CC=CC2",
    "meta_data": {
        "InChI": "InChI=1S/C11H11NO3/c13-10(11(14)15)5-7-6-12-9-4-2-1-3-8(7)9/h1-4,6,10,12-13H,5H2,(H,14,15)",
        "InChIKey": null,
        "Canonical SMILES": "O=C(O)C(O)CC1=CNC=2C=CC=CC21",
        "Molecular Formula": "C<sub>11</sub>H<sub>11</sub>NO<sub>3</sub>",
        "Molecular Mass": "205.21",
        "Melting Point": "97-100 °C"
    }
}