{
    "cas_no": "1571-13-7",
    "key_name": "Tetrachlorophthalimide",
    "cn_name": "4,5,6,7-四氯邻苯二甲酰亚胺;",
    "alternate_name": "1<em>H</em>-Isoindole-1,3(2<em>H</em>)-dione, 4,5,6,7-tetrachloro-;Phthalimide, 3,4,5,6-tetrachloro-;4,5,6,7-Tetrachloro-1<em>H</em>-isoindole-1,3(2<em>H</em>)-dione;Tetrachlorophthalimide;3,4,5,6-Tetrachlorophthalimide;NSC 72066;4,5,6,7-Tetrachloroisoindole-1,3-dione;4,5,6,7-Tetrachloroisoindoline-1,3-dione",
    "duplicated_cas_no": "",
    "SMILES": "ClC1=C2C(=C(Cl)C(Cl)=C1Cl)C(=O)NC2=O",
    "meta_data": {
        "InChI": "InChI=1S/C8HCl4NO2/c9-3-1-2(8(15)13-7(1)14)4(10)6(12)5(3)11/h(H,13,14,15)",
        "InChIKey": null,
        "Canonical SMILES": "O=C1NC(=O)C=2C(Cl)=C(Cl)C(Cl)=C(Cl)C12",
        "Molecular Formula": "C<sub>8</sub>HCl<sub>4</sub>NO<sub>2</sub>",
        "Molecular Mass": "284.91",
        "Melting Point": "341-343 °C"
    }
}