{
    "cas_no": "35853-55-5",
    "key_name": "[2,8-Bis(trifluoromethyl)-4-quinolinyl]-2-pyridinylmethanone",
    "cn_name": null,
    "alternate_name": "Methanone, [2,8-bis(trifluoromethyl)-4-quinolinyl]-2-pyridinyl-;[2,8-Bis(trifluoromethyl)-4-quinolinyl]-2-pyridinylmethanone;2-Pyridyl 2,8-bis(trifluoromethyl)-4-quinolyl ketone",
    "duplicated_cas_no": "",
    "SMILES": "C(F)(F)(F)C=1C2=C(C(C(=O)C3=CC=CC=N3)=CC(C(F)(F)F)=N2)C=CC1",
    "meta_data": {
        "InChI": "InChI=1S/C17H8F6N2O/c18-16(19,20)11-5-3-4-9-10(15(26)12-6-1-2-7-24-12)8-13(17(21,22)23)25-14(9)11/h1-8H",
        "InChIKey": null,
        "Canonical SMILES": "O=C(C1=NC=CC=C1)C=2C=C(N=C3C2C=CC=C3C(F)(F)F)C(F)(F)F",
        "Molecular Formula": "C<sub>17</sub>H<sub>8</sub>F<sub>6</sub>N<sub>2</sub>O",
        "Molecular Mass": "370.25",
        "Melting Point": "128-130 °C"
    }
}