{
    "cas_no": "137-44-0",
    "key_name": "5-Pyrazolone",
    "cn_name": "二?吡唑酮;二?吡唑酮;",
    "alternate_name": "3<em>H</em>-Pyrazol-3-one, 2,4-dihydro-;2-Pyrazolin-5-one;2,4-Dihydro-3<em>H</em>-pyrazol-3-one;5-Pyrazolone;1<em>H</em>-Pyrazol-5(4<em>H</em>)-one;NSC 243823;1,4-Dihydropyrazol-5-one",
    "duplicated_cas_no": "",
    "SMILES": "O=C1CC=NN1",
    "meta_data": {
        "InChI": "InChI=1S/C3H4N2O/c6-3-1-2-4-5-3/h2H,1H2,(H,5,6)",
        "InChIKey": null,
        "Canonical SMILES": "O=C1NN=CC1",
        "Molecular Formula": "C<sub>3</sub>H<sub>4</sub>N<sub>2</sub>O",
        "Molecular Mass": "84.08",
        "Boiling Point": "143-144 °C @ Press: 0.3 Torr",
        "Melting Point": "268 °C"
    }
}