{
    "cas_no": "1067-53-4",
    "key_name": "Vinyltris(2-methoxyethoxy)silane",
    "cn_name": "乙烯基三(2-甲氧基乙氧基)硅烷;",
    "alternate_name": "2,5,7,10-Tetraoxa-6-silaundecane, 6-ethenyl-6-(2-methoxyethoxy)-;Silane, tris(2-methoxyethoxy)vinyl-;6-Ethenyl-6-(2-methoxyethoxy)-2,5,7,10-tetraoxa-6-silaundecane;A 172;GF 58;Tris(methoxyethoxy)vinylsilane;Tris(β-methoxyethoxy)vinylsilane;Tris(2-methoxyethoxy)vinylsilane;NUCA 172;KBC 1003;Vinyltris(2-methoxyethoxy)silane;V 5000;VTS-ME;SZ 6082;Vinyltris(β-methoxyethoxy)silane;SH 6082;UNC-A 172;Z 6082;A 172 (coupling agent);Silquest A 172;Silane A 172;Vinyltri(β-methoxyethoxy)silane;Dynasylan VTMOEO;NSC 78465;Silox VS 924;VTMOEO;KH 172;Struktol SCA 972;Z 6172;U 613;WD 27;SCA 972;YGO 1204;VTMES-SCA 972;Fibnasil;Geniosil GF 58;SG-SI 172;A 173;AC 77;DB 172;DB 172 (coupling agent);WD 72;Tri(2-methoxyethoxy)vinylsilane;Vinyltri(methoxyethoxy)silane;A 172NT;Silquest A 172NT;CG 172;KH-A 172;Crosile 172;SCA-A 172;SCA-V 71C;FD 172;LT 172",
    "duplicated_cas_no": "59250-02-1;609347-89-9;947734-83-0;1108196-61-7;1637457-78-3;1887095-48-8;2231320-04-8",
    "SMILES": "[Si](OCCOC)(OCCOC)(OCCOC)C=C",
    "meta_data": {
        "InChI": "InChI=1S/C11H24O6Si/c1-5-18(15-9-6-12-2,16-10-7-13-3)17-11-8-14-4/h5H,1,6-11H2,2-4H3",
        "InChIKey": null,
        "Canonical SMILES": "O(C)CCO[Si](OCCOC)(OCCOC)C=C",
        "Molecular Formula": "C<sub>11</sub>H<sub>24</sub>O<sub>6</sub>Si",
        "Molecular Mass": "280.39",
        "Boiling Point": "284-286 °C",
        "Density": "1.033 g/cm³ @ Temp: 25 °C"
    }
}