{
    "cas_no": "12055-23-1",
    "key_name": "Hafnium oxide",
    "cn_name": "氧化铪;",
    "alternate_name": "Hafnium oxide (HfO<sub>2</sub>);Hafnium dioxide;Hafnium dioxide (HfO<sub>2</sub>);Hafnia;Hafnotrast;Hafnia (HfO<sub>2</sub>);Hafnium oxide;NSC 158931;Hf 05 (oxide);Hf 05",
    "duplicated_cas_no": "597552-83-5;939428-39-4;939429-00-2;2813874-92-7",
    "SMILES": "[Hf](=O)=O",
    "meta_data": {
        "InChI": "InChI=1S/Hf.2O",
        "InChIKey": null,
        "Canonical SMILES": "O=[Hf]=O",
        "Molecular Formula": "HfO<sub>2</sub>",
        "Molecular Mass": "",
        "Melting Point": "2780 °C",
        "Density": "9.7 g/cm³"
    }
}