{
    "cas_no": "78-07-9",
    "key_name": "Ethyltriethoxysilane",
    "cn_name": "三乙氧基乙基硅烷;乙基三乙氧基硅烷;",
    "alternate_name": "Silane, triethoxyethyl-;Triethoxyethylsilane;Ethaneorthosiliconic acid, triethyl ester;Ethyltriethoxysilane;A 15 (silane);MTS 32;A 15;NSC 5230;ETES;Dow Norning 1-6321",
    "duplicated_cas_no": "1086266-62-7",
    "SMILES": "[Si](OCC)(OCC)(OCC)CC",
    "meta_data": {
        "InChI": "InChI=1S/C8H20O3Si/c1-5-9-12(8-4,10-6-2)11-7-3/h5-8H2,1-4H3",
        "InChIKey": null,
        "Canonical SMILES": "O(CC)[Si](OCC)(OCC)CC",
        "Molecular Formula": "C<sub>8</sub>H<sub>20</sub>O<sub>3</sub>Si",
        "Molecular Mass": "192.33",
        "Boiling Point": "158.5 °C",
        "Melting Point": "-78 °C",
        "Density": "0.896 g/cm³"
    }
}