{
    "cas_no": "4066-02-8",
    "key_name": "2,2′-Methylenebis(4-methyl-6-cyclohexylphenol)",
    "cn_name": "2,2\"-甲亚基双(6-环己基-4-甲基酚);抗氧剂ZKF;",
    "alternate_name": "Phenol, 2,2′-methylenebis[6-cyclohexyl-4-methyl-;<em>p</em>-Cresol, 2,2′-methylenebis[6-cyclohexyl-;2,2′-Methylenebis[6-cyclohexyl-4-methylphenol];2,2′-Methylenebis(4-methyl-6-cyclohexylphenol);Bis(3-cyclohexyl-5-methyl-2-hydroxyphenyl)methane;Antioxidant ZKF;ZKF;Bis(3-cyclohexyl-2-hydroxy-5-methylphenyl)methane;Vulkanox ZKF;2,2′-Methylenebis[6-cyclohexyl-<em>p</em>-cresol];Bis(2-hydroxy-3-cyclohexyl-5-methylphenyl)methane;2-Cyclohexyl-6-[(3-cyclohexyl-2-hydroxy-5-methylphenyl)methyl]-4-methylphenol",
    "duplicated_cas_no": "12789-72-9;52622-56-7",
    "SMILES": "OC1=C(C=C(C)C=C1CC2=C(O)C(=CC(C)=C2)C3CCCCC3)C4CCCCC4",
    "meta_data": {
        "InChI": "InChI=1S/C27H36O2/c1-18-13-22(26(28)24(15-18)20-9-5-3-6-10-20)17-23-14-19(2)16-25(27(23)29)21-11-7-4-8-12-21/h13-16,20-21,28-29H,3-12,17H2,1-2H3",
        "InChIKey": null,
        "Canonical SMILES": "OC=1C(=CC(=CC1C2CCCCC2)C)CC3=CC(=CC(=C3O)C4CCCCC4)C",
        "Molecular Formula": "C<sub>27</sub>H<sub>36</sub>O<sub>2</sub>",
        "Molecular Mass": "392.57",
        "Melting Point": "134 °C"
    }
}