{
    "cas_no": "4434-13-3",
    "key_name": "5-Methylpicolinic acid",
    "cn_name": null,
    "alternate_name": "2-Pyridinecarboxylic acid, 5-methyl-;Picolinic acid, 5-methyl-;5-Methyl-2-pyridinecarboxylic acid;5-Methylpicolinic acid;2-Carboxy-5-methylpyridine",
    "duplicated_cas_no": "",
    "SMILES": "C(O)(=O)C1=CC=C(C)C=N1",
    "meta_data": {
        "InChI": "InChI=1S/C7H7NO2/c1-5-2-3-6(7(9)10)8-4-5/h2-4H,1H3,(H,9,10)",
        "InChIKey": null,
        "Canonical SMILES": "O=C(O)C1=NC=C(C=C1)C",
        "Molecular Formula": "C<sub>7</sub>H<sub>7</sub>NO<sub>2</sub>",
        "Molecular Mass": "137.14",
        "Melting Point": "164-166 °C"
    }
}