{
    "cas_no": "198561-07-8",
    "key_name": "Fmoc-<span class=\"text-smallcaps\">L</span>-propargylglycine",
    "cn_name": "Fmoc-L-炔丙基甘氨酸; Fmoc-L-2-氨基-4-戊炔酸; N-芴甲氧羰基-L-炔丙基甘氨酸; N-芴甲氧羰基-L-2-氨基-4-戊;",
    "alternate_name": "4-Pentynoic acid, 2-[[(9<em>H</em>-fluoren-9-ylmethoxy)carbonyl]amino]-, (2<em>S</em>)-;4-Pentynoic acid, 2-[[(9<em>H</em>-fluoren-9-ylmethoxy)carbonyl]amino]-, (<em>S</em>)-;(2<em>S</em>)-2-[[(9<em>H</em>-Fluoren-9-ylmethoxy)carbonyl]amino]-4-pentynoic acid;Fmoc-<span class=\"text-smallcaps\">L</span>-propargylglycine;(2S)-2-(9<em>H</em>-Fluoren-9-ylmethoxycarbonylamino)pent-4-ynoic acid",
    "duplicated_cas_no": "1267449-00-2;1334222-10-4;1421510-74-8;1637379-10-2;2361136-52-7",
    "SMILES": "C(OC(N[C@@H](CC#C)C(O)=O)=O)C1C=2C(C=3C1=CC=CC3)=CC=CC2",
    "meta_data": {
        "InChI": "InChI=1S/C20H17NO4/c1-2-7-18(19(22)23)21-20(24)25-12-17-15-10-5-3-8-13(15)14-9-4-6-11-16(14)17/h1,3-6,8-11,17-18H,7,12H2,(H,21,24)(H,22,23)/t18-/m0/s1",
        "InChIKey": null,
        "Canonical SMILES": "O=C(OCC1C=2C=CC=CC2C=3C=CC=CC31)NC(C(=O)O)CC#C",
        "Molecular Formula": "C<sub>20</sub>H<sub>17</sub>NO<sub>4</sub>",
        "Molecular Mass": "335.35",
        "Melting Point": "175-177 °C"
    }
}