{
    "cas_no": "2954-50-9",
    "key_name": "2-Aminotetralin",
    "cn_name": "1,2,3,4-四氢-2-萘胺;1,2,3,4-四氢-2-萘胺;",
    "alternate_name": "2-Naphthalenamine, 1,2,3,4-tetrahydro-;2-Naphthylamine, 1,2,3,4-tetrahydro-;1,2,3,4-Tetrahydro-2-naphthalenamine;2-Aminotetralin;β-1,2,3,4-Tetrahydronaphthylamine;1,2,3,4-Tetrahydro-2-naphthylamine;2-Amino-1,2,3,4-tetrahydronaphthalene;JGC 127;(±)-2-Aminotetralin;(<em>RS</em>)-2-Aminotetralin;3-Amino-1,2,3,4-tetrahydronaphthalene;(1,2,3,4-Tetrahydronaphthalen-2-yl)amine;2-Aminotetraline;Tetralin-2-amine",
    "duplicated_cas_no": "2217-42-7;94115-84-1",
    "SMILES": "NC1CC=2C(CC1)=CC=CC2",
    "meta_data": {
        "InChI": "InChI=1S/C10H13N/c11-10-6-5-8-3-1-2-4-9(8)7-10/h1-4,10H,5-7,11H2",
        "InChIKey": null,
        "Canonical SMILES": "NC1CC=2C=CC=CC2CC1",
        "Molecular Formula": "C<sub>10</sub>H<sub>13</sub>N",
        "Molecular Mass": "147.22",
        "Boiling Point": "118.5 °C @ Press: 12 Torr",
        "Melting Point": "149-151 °C"
    }
}