{
    "cas_no": "5000-66-8",
    "key_name": "2-Bromo-1-(2-chlorophenyl)ethanone",
    "cn_name": "2-溴-2\"-氯苯乙酮;alpha-溴代邻氯苯乙酮;",
    "alternate_name": "Ethanone, 2-bromo-1-(2-chlorophenyl)-;Acetophenone, 2-bromo-2′-chloro-;2-Bromo-1-(2-chlorophenyl)ethanone;2-Bromo-2′-chloroacetophenone;<em>o</em>-Chlorophenacyl bromide;2-Chlorophenacyl bromide;2-Bromo-<em>o</em>-chloroacetophenone;2-Bromo-1-(2′-chlorophenyl)ethanone;Bromomethyl 2-chlorophenyl ketone;2-Bromo-1-(2-chlorophenyl)-1-ethanone",
    "duplicated_cas_no": "",
    "SMILES": "C(CBr)(=O)C1=C(Cl)C=CC=C1",
    "meta_data": {
        "InChI": "InChI=1S/C8H6BrClO/c9-5-8(11)6-3-1-2-4-7(6)10/h1-4H,5H2",
        "InChIKey": null,
        "Canonical SMILES": "O=C(C=1C=CC=CC1Cl)CBr",
        "Molecular Formula": "C<sub>8</sub>H<sub>6</sub>BrClO",
        "Molecular Mass": "233.49",
        "Boiling Point": "97.5-98 °C @ Press: 1 Torr",
        "Melting Point": "25-28 °C"
    }
}