{
    "cas_no": "17231-95-7",
    "key_name": "2,3-Dichlorobenzenethiol",
    "cn_name": "2,3-二氯苯硫酚;",
    "alternate_name": "Benzenethiol, 2,3-dichloro-;2,3-Dichlorobenzenethiol;2,3-Dichlorothiophenol",
    "duplicated_cas_no": "",
    "SMILES": "ClC1=C(Cl)C=CC=C1S",
    "meta_data": {
        "InChI": "InChI=1S/C6H4Cl2S/c7-4-2-1-3-5(9)6(4)8/h1-3,9H",
        "InChIKey": null,
        "Canonical SMILES": "ClC1=CC=CC(S)=C1Cl",
        "Molecular Formula": "C<sub>6</sub>H<sub>4</sub>Cl<sub>2</sub>S",
        "Molecular Mass": "179.07",
        "Melting Point": "46.5 °C"
    }
}