{
    "cas_no": "601-89-8",
    "key_name": "2-Nitroresorcinol",
    "cn_name": "2-硝基间苯二酚;",
    "alternate_name": "1,3-Benzenediol, 2-nitro-;Resorcinol, 2-nitro-;2-Nitro-1,3-benzenediol;2-Nitroresorcinol;1,3-Dihydroxy-2-nitrobenzene;2,6-Dihydroxynitrobenzene;NSC 1542",
    "duplicated_cas_no": "",
    "SMILES": "N(=O)(=O)C1=C(O)C=CC=C1O",
    "meta_data": {
        "InChI": "InChI=1S/C6H5NO4/c8-4-2-1-3-5(9)6(4)7(10)11/h1-3,8-9H",
        "InChIKey": null,
        "Canonical SMILES": "O=N(=O)C=1C(O)=CC=CC1O",
        "Molecular Formula": "C<sub>6</sub>H<sub>5</sub>NO<sub>4</sub>",
        "Molecular Mass": "155.11",
        "Melting Point": "82 °C"
    }
}