{
    "cas_no": "62-75-9",
    "key_name": "<em>N</em>-Nitrosodimethylamine",
    "cn_name": "N-甲基-N-亚硝基甲胺;亚硝基替二甲胺;N-二甲基亚硝胺;",
    "alternate_name": "Methanamine, <em>N</em>-methyl-<em>N</em>-nitroso-;Dimethylamine, <em>N</em>-nitroso-;<em>N</em>-Methyl-<em>N</em>-nitrosomethanamine;Dimethylnitrosamine;DMN;DMNA;<em>N</em>-Nitrosodimethylamine;<em>N</em>-Nitroso-<em>N</em>,<em>N</em>-dimethylamine;NDMA;NSC 23226;MeSH ID: D004128",
    "duplicated_cas_no": "",
    "SMILES": "N(N=O)(C)C",
    "meta_data": {
        "InChI": "InChI=1S/C2H6N2O/c1-4(2)3-5/h1-2H3",
        "InChIKey": null,
        "Canonical SMILES": "O=NN(C)C",
        "Molecular Formula": "C<sub>2</sub>H<sub>6</sub>N<sub>2</sub>O",
        "Molecular Mass": "74.08",
        "Boiling Point": "151-153 °C",
        "Melting Point": "&lt;25 °C",
        "Density": "1.0048 g/cm³ @ Temp: 20 °C"
    }
}