{
    "cas_no": "100959-22-6",
    "key_name": "Methyl 2-bromo-4-nitrobenzoate",
    "cn_name": "2-溴-4-硝基苯甲酸甲酯;",
    "alternate_name": "Benzoic acid, 2-bromo-4-nitro-, methyl ester;Methyl 2-bromo-4-nitrobenzoate;2-Bromo-4-nitro-benzoic acid methyl ester",
    "duplicated_cas_no": "",
    "SMILES": "C(OC)(=O)C1=C(Br)C=C(N(=O)=O)C=C1",
    "meta_data": {
        "InChI": "InChI=1S/C8H6BrNO4/c1-14-8(11)6-3-2-5(10(12)13)4-7(6)9/h2-4H,1H3",
        "InChIKey": null,
        "Canonical SMILES": "O=C(OC)C1=CC=C(C=C1Br)N(=O)=O",
        "Molecular Formula": "C<sub>8</sub>H<sub>6</sub>BrNO<sub>4</sub>",
        "Molecular Mass": "260.04",
        "Melting Point": "82-85 °C"
    }
}