{
    "cas_no": "25372-07-0",
    "key_name": "1,1′-(1,4-Phenylene)bis[1<em>H</em>-imidazole]",
    "cn_name": null,
    "alternate_name": "1<em>H</em>-Imidazole, 1,1′-(1,4-phenylene)bis-;Imidazole, 1,1′-<em>p</em>-phenylenedi-;1,1′-(1,4-Phenylene)bis[1<em>H</em>-imidazole];1-[4-(1-Imidazolyl)phenyl]imidazole;1,4-Bis(1-imidazolyl)benzene;1,4-Di(1<em>H</em>-imidazol-1-yl)benzene;1,4-Di(imidazol-1-yl)benzene;1,4-Bis(1<em>H</em>-imidazol-1-yl)benzene",
    "duplicated_cas_no": "",
    "SMILES": "C1(=CC=C(C=C1)N2C=CN=C2)N3C=CN=C3",
    "meta_data": {
        "InChI": "InChI=1S/C12H10N4/c1-2-12(16-8-6-14-10-16)4-3-11(1)15-7-5-13-9-15/h1-10H",
        "InChIKey": null,
        "Canonical SMILES": "N=1C=CN(C1)C2=CC=C(C=C2)N3C=NC=C3",
        "Molecular Formula": "C<sub>12</sub>H<sub>10</sub>N<sub>4</sub>",
        "Molecular Mass": "210.23",
        "Melting Point": "216-217 °C"
    }
}