{
    "cas_no": "506-37-6",
    "key_name": "Nervonic acid",
    "cn_name": "神经酸;顺-15-二十四碳烯酸;鲨油酸;",
    "alternate_name": "15-Tetracosenoic acid, (15<em>Z</em>)-;15-Tetracosenoic acid, (<em>Z</em>)-;15-Tetracosenoic acid, <em>cis</em>-;(15<em>Z</em>)-15-Tetracosenoic acid;<em>cis</em>-15-Tetracosenoic acid;Nervonic acid;Nevonic acid;Selacholeic acid;(<em>Z</em>)-15-Tetracosenoic acid;(15<em>Z</em>)-Tetracosenoic acid;15Z-Tetracosenoic acid",
    "duplicated_cas_no": "26566-53-0",
    "SMILES": "C(CCCCCC/C=C\\CCCCCCCC)CCCCCCC(O)=O",
    "meta_data": {
        "InChI": "InChI=1S/C24H46O2/c1-2-3-4-5-6-7-8-9-10-11-12-13-14-15-16-17-18-19-20-21-22-23-24(25)26/h9-10H,2-8,11-23H2,1H3,(H,25,26)/b10-9-",
        "InChIKey": null,
        "Canonical SMILES": "O=C(O)CCCCCCCCCCCCCC=CCCCCCCCC",
        "Molecular Formula": "C<sub>24</sub>H<sub>46</sub>O<sub>2</sub>",
        "Molecular Mass": "366.62",
        "Melting Point": "40-41 °C"
    }
}