{
    "cas_no": "63873-61-0",
    "key_name": "4-Chlorothieno[2,3-<em>b</em>]pyridine-5-carbonitrile",
    "cn_name": null,
    "alternate_name": "Thieno[2,3-<em>b</em>]pyridine-5-carbonitrile, 4-chloro-;4-Chlorothieno[2,3-<em>b</em>]pyridine-5-carbonitrile",
    "duplicated_cas_no": "",
    "SMILES": "ClC1=C2C(=NC=C1C#N)SC=C2",
    "meta_data": {
        "InChI": "InChI=1S/C8H3ClN2S/c9-7-5(3-10)4-11-8-6(7)1-2-12-8/h1-2,4H",
        "InChIKey": null,
        "Canonical SMILES": "N#CC1=CN=C2SC=CC2=C1Cl",
        "Molecular Formula": "C<sub>8</sub>H<sub>3</sub>ClN<sub>2</sub>S",
        "Molecular Mass": "194.64",
        "Melting Point": "100-103 °C"
    }
}