{
    "cas_no": "373-49-9",
    "key_name": "Palmitoleic acid",
    "cn_name": "棕榈油酸;9-十六碳烯酸;棕榈油酸;顺-9-十六烯酸;棕榈油酸/顺-9-十六烯酸;9-十六烯酸/棕榈油酸;軟脂油酸;棕;",
    "alternate_name": "9-Hexadecenoic acid, (9<em>Z</em>)-;9-Hexadecenoic acid, (<em>Z</em>)-;Palmitoleic acid;(9<em>Z</em>)-9-Hexadecenoic acid;<em>cis</em>-Δ<sup>9</sup>-Hexadecenoic acid;<em>cis</em>-9-Hexadecenoic acid;9-<em>cis</em>-Hexadecenoic acid;(<em>Z</em>)-9-Hexadecenoic acid;Zoomeric acid;<em>cis</em>-Palmitoleic acid;C16:1;Oleopalmitic acid;9<em>Z</em>-Hexadecenoic acid;9-Hexadecenoic acid;(<em>Z</em>)-Hexadec-9-enoic acid",
    "duplicated_cas_no": "",
    "SMILES": "C(CC/C=C\\CCCCCC)CCCCC(O)=O",
    "meta_data": {
        "InChI": "InChI=1S/C16H30O2/c1-2-3-4-5-6-7-8-9-10-11-12-13-14-15-16(17)18/h7-8H,2-6,9-15H2,1H3,(H,17,18)/b8-7-",
        "InChIKey": null,
        "Canonical SMILES": "O=C(O)CCCCCCCC=CCCCCCC",
        "Molecular Formula": "C<sub>16</sub>H<sub>30</sub>O<sub>2</sub>",
        "Molecular Mass": "254.41",
        "Boiling Point": "146 °C @ Press: 0.4 Torr",
        "Melting Point": "-0.1 °C",
        "Density": "0.8538 g/cm³ (liquid) @ Temp: 15 °C"
    }
}