{
    "cas_no": "6879-01-2",
    "key_name": "Tuberostemonine",
    "cn_name": null,
    "alternate_name": "Furo[2,3-<em>h</em>]pyrrolo[3,2,1-<em>jk</em>][1]benzazepin-10(2<em>H</em>)-one, 8-ethyldodecahydro-11-methyl-2-[(2<em>S</em>,4<em>S</em>)-tetrahydro-4-methyl-5-oxo-2-furanyl]-, (2<em>S</em>,7a<em>R</em>,8<em>R</em>,8a<em>S</em>,11<em>S</em>,11a<em>S</em>,11b<em>R</em>,11c<em>R</em>)-;Tuberostemonine;Stenine, 2-(tetrahydro-4-methyl-5-oxo-2-furanyl)-, [2β(2<em>S</em>,4<em>S</em>)]-;Furo[2,3-<em>h</em>]pyrrolo[3,2,1-<em>jk</em>][1]benzazepin-10(2<em>H</em>)-one, 8-ethyldodecahydro-11-methyl-2-[(2<em>S</em>,5<em>S</em>)-tetrahydro-4-methyl-5-oxo-2-furanyl]-, (2<em>S</em>,7a<em>R</em>,8<em>R</em>,8a<em>S</em>,11<em>S</em>,11a<em>S</em>,11b<em>R</em>,11c<em>R</em>)-;(2<em>S</em>,7a<em>R</em>,8<em>R</em>,8a<em>S</em>,11<em>S</em>,11a<em>S</em>,11b<em>R</em>,11c<em>R</em>)-8-Ethyldodecahydro-11-methyl-2-[(2<em>S</em>,4<em>S</em>)-tetrahydro-4-methyl-5-oxo-2-furanyl]furo[2,3-<em>h</em>]pyrrolo[3,2,1-<em>jk</em>][1]benzazepin-10(2<em>H</em>)-one;Furo[2,3-<em>h</em>]pyrrolo[3,2,1-<em>jk</em>][1]benzazepin-10(2<em>H</em>)-one, 8-ethyldodecahydro-11-methyl-2-(tetrahydro-4-methyl-5-oxo-2-furanyl)-, [2<em>S</em>-[2α(2<em>R</em>*,4<em>R</em>*),7aα,8α,8aα,11α,11aα,11bβ,11cα]]-;Tuberostemonin;NSC 366235",
    "duplicated_cas_no": "32639-06-8",
    "SMILES": "C(C)[C@@H]1[C@@]2([C@@]3([C@@]([C@@]4([C@]1(OC(=O)[C@H]4C)[H])[H])(C[C@](N3CCCC2)([C@@]5(C[C@H](C)C(=O)O5)[H])[H])[H])[H])[H]",
    "meta_data": {
        "InChI": "InChI=1S/C22H33NO4/c1-4-13-14-7-5-6-8-23-16(17-9-11(2)21(24)26-17)10-15(19(14)23)18-12(3)22(25)27-20(13)18/h11-20H,4-10H2,1-3H3/t11-,12-,13+,14+,15+,16-,17-,18+,19+,20-/m0/s1",
        "InChIKey": null,
        "Canonical SMILES": "O=C1OC(CC1C)C2N3CCCCC4C3C(C2)C5C(C(=O)OC5C4CC)C",
        "Molecular Formula": "C<sub>22</sub>H<sub>33</sub>NO<sub>4</sub>",
        "Molecular Mass": "375.50",
        "Melting Point": "85-88 °C"
    }
}