{
    "cas_no": "1572-84-5",
    "key_name": "1,1′-(2-Butene-1,4-diyl) dibutanoate",
    "cn_name": "2-丁烯-1,4-二醇双丁酸酯;2-丁烯-1,4-二正丁酯;",
    "alternate_name": "Butanoic acid, 1,1′-(2-butene-1,4-diyl) ester;Butanoic acid, 2-butene-1,4-diyl ester;Butyric acid, 2-butenylene ester;1,1′-(2-Butene-1,4-diyl) dibutanoate;2-Butene-1,4-diol dibutyrate",
    "duplicated_cas_no": "1195670-03-1",
    "SMILES": "C(OCC=CCOC(CCC)=O)(CCC)=O",
    "meta_data": {
        "InChI": "InChI=1S/C12H20O4/c1-3-7-11(13)15-9-5-6-10-16-12(14)8-4-2/h5-6H,3-4,7-10H2,1-2H3",
        "InChIKey": null,
        "Canonical SMILES": "O=C(OCC=CCOC(=O)CCC)CCC",
        "Molecular Formula": "C<sub>12</sub>H<sub>20</sub>O<sub>4</sub>",
        "Molecular Mass": "228.28",
        "Boiling Point": "158-159 °C @ Press: 22 Torr"
    }
}