{
    "cas_no": "18622-23-6",
    "key_name": "[1,1′-Biphenyl]-4-carboxylic acid, hydrazide",
    "cn_name": "4-联苯基羧酸肼;",
    "alternate_name": "[1,1′-Biphenyl]-4-carboxylic acid, hydrazide;4-Biphenylcarboxylic acid, hydrazide;<em>p</em>-Phenylbenzoic acid hydrazide;<em>p</em>-Phenylbenzhydrazide;4-Phenylbenzhydrazide;1-Phenylbenzene-4-carbohydrazide;[1,1′-Biphenyl]-4-carbohydrazide;NSC 234750",
    "duplicated_cas_no": "",
    "SMILES": "C(NN)(=O)C1=CC=C(C=C1)C2=CC=CC=C2",
    "meta_data": {
        "InChI": "InChI=1S/C13H12N2O/c14-15-13(16)12-8-6-11(7-9-12)10-4-2-1-3-5-10/h1-9H,14H2,(H,15,16)",
        "InChIKey": null,
        "Canonical SMILES": "O=C(NN)C=1C=CC(=CC1)C=2C=CC=CC2",
        "Molecular Formula": "C<sub>13</sub>H<sub>12</sub>N<sub>2</sub>O",
        "Molecular Mass": "212.25",
        "Melting Point": "189 °C"
    }
}