{
    "cas_no": "122-60-1",
    "key_name": "Phenyl glycidyl ether",
    "cn_name": "苯基缩水甘油醚;1,2-环氧-3-苯氧基丙烷;2,3-环氧丙基苯醚;",
    "alternate_name": "Oxirane, 2-(phenoxymethyl)-;Propane, 1,2-epoxy-3-phenoxy-;Oxirane, (phenoxymethyl)-;2-(Phenoxymethyl)oxirane;1,2-Epoxy-3-phenoxypropane;Glycidyl phenyl ether;Phenol glycidyl ether;Phenyl 2,3-epoxypropyl ether;Phenyl glycidyl ether;3-Phenoxy-1,2-epoxypropane;3-Phenoxy-1,2-propylene oxide;γ-Phenoxypropylene oxide;1-Phenoxy-2,3-epoxypropane;2,3-Epoxypropyl phenyl ether;Glycidol phenyl ether;3-(Phenyloxy)-1,2-epoxypropane;(Phenoxymethyl)oxirane;2,3-Epoxy-1-phenoxypropane;2,3-Epoxypropoxybenzene;3-Phenoxy-1-propene oxide;Oxiranylmethyl phenyl ether;3-Phenoxypropylene oxide;(±)-Phenyl glycidyl ether;(±)-1,2-Epoxy-3-phenoxypropane;(±)-(Phenoxymethyl)oxirane;(±)-Glycidyl phenyl ether;Denacol EX 141;Heloxy 63;Heloxy Modifier 63;NSC 53476;NSC 635;PGE-H;Epoxy 690;(Phenyloxymethyl)oxirane;EX 141;Epiol P;K 103;YS 690;JX 016;<em>O</em>-Phenylglycidol;3-(Phenoxy)propylene epoxide;Diluent 690;Beihe CGE;XY 690;G 830179;KF-Epiol ME 700",
    "duplicated_cas_no": "66527-93-3",
    "SMILES": "O(CC1CO1)C2=CC=CC=C2",
    "meta_data": {
        "InChI": "InChI=1S/C9H10O2/c1-2-4-8(5-3-1)10-6-9-7-11-9/h1-5,9H,6-7H2",
        "InChIKey": null,
        "Canonical SMILES": "O(C=1C=CC=CC1)CC2OC2",
        "Molecular Formula": "C<sub>9</sub>H<sub>10</sub>O<sub>2</sub>",
        "Molecular Mass": "150.17",
        "Boiling Point": "245 °C @ Press: 760 Torr",
        "Melting Point": "3.5 °C",
        "Density": "1.1092 g/cm³"
    }
}