{
    "cas_no": "399-76-8",
    "key_name": "5-Fluoroindole-2-carboxylic acid",
    "cn_name": "5-氟吲哚-2-羧酸;",
    "alternate_name": "1<em>H</em>-Indole-2-carboxylic acid, 5-fluoro-;Indole-2-carboxylic acid, 5-fluoro-;5-Fluoro-1<em>H</em>-indole-2-carboxylic acid;5-Fluoroindole-2-carboxylic acid;2-Carboxy-5-fluoroindole",
    "duplicated_cas_no": "",
    "SMILES": "C(O)(=O)C=1NC=2C(C1)=CC(F)=CC2",
    "meta_data": {
        "InChI": "InChI=1S/C9H6FNO2/c10-6-1-2-7-5(3-6)4-8(11-7)9(12)13/h1-4,11H,(H,12,13)",
        "InChIKey": null,
        "Canonical SMILES": "O=C(O)C1=CC=2C=C(F)C=CC2N1",
        "Molecular Formula": "C<sub>9</sub>H<sub>6</sub>FNO<sub>2</sub>",
        "Molecular Mass": "179.15",
        "Melting Point": "248-249 °C (decomp)"
    }
}