{
    "cas_no": "491-50-9",
    "key_name": "Quercetin 7-<em>O</em>-glucoside",
    "cn_name": "槲皮素-7-葡萄糖苷; 槲皮素-7-O-beta-D-吡喃葡萄糖苷;",
    "alternate_name": "4<em>H</em>-1-Benzopyran-4-one, 2-(3,4-dihydroxyphenyl)-7-(β-<span class=\"text-smallcaps\">D</span>-glucopyranosyloxy)-3,5-dihydroxy-;Quercimeritrin;2-(3,4-Dihydroxyphenyl)-7-(β-<span class=\"text-smallcaps\">D</span>-glucopyranosyloxy)-3,5-dihydroxy-4<em>H</em>-1-benzopyran-4-one;C.I. 75710;Quercimeritroside;Quercetin 7-<em>O</em>-β-<span class=\"text-smallcaps\">D</span>-glucopyranoside;Quercetin 7-β-<span class=\"text-smallcaps\">D</span>-glucopyranoside;Quercetin 7-<em>O</em>-glucoside;Quercetin 7-<em>O</em>-β-<span class=\"text-smallcaps\">D</span>-glucoside;NSC 115917;Quercimetrin;Quercetin 7-<em>O</em>-β-glucopyranoside",
    "duplicated_cas_no": "133-97-1;1331-97-1;30113-30-5",
    "SMILES": "O=C1C=2C(OC(=C1O)C3=CC(O)=C(O)C=C3)=CC(O[C@@H]4O[C@H](CO)[C@@H](O)[C@H](O)[C@H]4O)=CC2O",
    "meta_data": {
        "InChI": "InChI=1S/C21H20O12/c22-6-13-15(26)17(28)19(30)21(33-13)31-8-4-11(25)14-12(5-8)32-20(18(29)16(14)27)7-1-2-9(23)10(24)3-7/h1-5,13,15,17,19,21-26,28-30H,6H2/t13-,15-,17+,19-,21-/m1/s1",
        "InChIKey": null,
        "Canonical SMILES": "O=C1C(O)=C(OC2=CC(OC3OC(CO)C(O)C(O)C3O)=CC(O)=C12)C=4C=CC(O)=C(O)C4",
        "Molecular Formula": "C<sub>21</sub>H<sub>20</sub>O<sub>12</sub>",
        "Molecular Mass": "464.38",
        "Melting Point": "248 °C"
    }
}