{
    "cas_no": "629-83-4",
    "key_name": "Methyl triacontanoate",
    "cn_name": "三十酸甲酯;三十烷酸甲酯;蜂花酸甲酯;",
    "alternate_name": "Triacontanoic acid, methyl ester;Methyl melissate;Methyl melissicate;Methyl triacontanoate;NSC 20743;Methyl ester of <em>n</em>-triaconatanoic acid",
    "duplicated_cas_no": "",
    "SMILES": "C(CCCCCCCCCCCCCCCCCCCCCC)CCCCCCC(OC)=O",
    "meta_data": {
        "InChI": "InChI=1S/C31H62O2/c1-3-4-5-6-7-8-9-10-11-12-13-14-15-16-17-18-19-20-21-22-23-24-25-26-27-28-29-30-31(32)33-2/h3-30H2,1-2H3",
        "InChIKey": null,
        "Canonical SMILES": "O=C(OC)CCCCCCCCCCCCCCCCCCCCCCCCCCCCC",
        "Molecular Formula": "C<sub>31</sub>H<sub>62</sub>O<sub>2</sub>",
        "Molecular Mass": "466.82",
        "Melting Point": "71.5 °C"
    }
}