{
    "cas_no": "3018-12-0",
    "key_name": "Dichloroacetonitrile",
    "cn_name": "二氯乙腈;",
    "alternate_name": "Acetonitrile, dichloro-;Dichloroacetonitrile;Dichloromethyl cyanide;NSC 60511;2,2-Dichloroacetonitrile",
    "duplicated_cas_no": "",
    "SMILES": "C(C#N)(Cl)Cl",
    "meta_data": {
        "InChI": "InChI=1S/C2HCl2N/c3-2(4)1-5/h2H",
        "InChIKey": null,
        "Canonical SMILES": "N#CC(Cl)Cl",
        "Molecular Formula": "C<sub>2</sub>HCl<sub>2</sub>N",
        "Molecular Mass": "109.94",
        "Boiling Point": "112.5 °C",
        "Density": "1.369 g/cm³ @ Temp: 20 °C"
    }
}