{
    "cas_no": "12034-09-2",
    "key_name": "Sodium niobate (NaNbO<sub>3</sub>)",
    "cn_name": null,
    "alternate_name": "Niobium sodium oxide (NbNaO<sub>3</sub>);Niobium sodium oxide (NaNbO<sub>3</sub>);Sodium niobate(V) (NaNbO<sub>3</sub>);Sodium niobium oxide (NaNbO<sub>3</sub>);Sodium niobate (NaNbO<sub>3</sub>)",
    "duplicated_cas_no": "851016-22-3",
    "SMILES": "[O].[Na].[Nb]",
    "meta_data": {
        "InChI": "InChI=1S/Na.Nb.O",
        "InChIKey": null,
        "Canonical SMILES": "[O].[Na].[Nb]",
        "Molecular Formula": "Na.Nb.O",
        "Molecular Mass": "",
        "Melting Point": "1422 °C"
    }
}