{
    "uri": "substance/pt/12034092",
    "rn": "12034-09-2",
    "name": "Sodium niobate (NaNbO<sub>3</sub>)",
    "images": [],
    "inchi": "InChI=1S/Na.Nb.O",
    "inchiKey": "InChIKey=BNZCAZRBNRCULM-UHFFFAOYSA-N",
    "smile": "[O].[Na].[Nb]",
    "canonicalSmile": "[O].[Na].[Nb]",
    "molecularFormula": "Na.Nb.O",
    "molecularMass": "",
    "experimentalProperties": [
        {
            "name": "Melting Point",
            "property": "1422 °C",
            "sourceNumber": 1
        }
    ],
    "propertyCitations": [
        {
            "docUri": "document/pt/document/28474034",
            "sourceNumber": 1,
            "source": "Brooks, David J.; Advanced Materials (Weinheim, Germany), (2005), 17(20), 2474-2477, CAplus"
        }
    ],
    "synonyms": [
        "Niobium sodium oxide (NbNaO<sub>3</sub>)",
        "Niobium sodium oxide (NaNbO<sub>3</sub>)",
        "Sodium niobate(V) (NaNbO<sub>3</sub>)",
        "Sodium niobium oxide (NaNbO<sub>3</sub>)",
        "Sodium niobate (NaNbO<sub>3</sub>)"
    ],
    "replacedRns": [
        "851016-22-3"
    ],
    "hasMolfile": true,
    "source": "https://commonchemistry.cas.org/detail?cas_rn=12034-09-2"
}