{
    "cas_no": "635-46-1",
    "key_name": "1,2,3,4-Tetrahydroquinoline",
    "cn_name": "1,2,3,4-四氢喹啉;",
    "alternate_name": "Quinoline, 1,2,3,4-tetrahydro-;1,2,3,4-Tetrahydroquinoline;Kusol;THQ;NSC 15311;1,2,3,4-Hydroquinoline;3,4-Dihydro-2<em>H</em>-quinoline;1,2,3,4-Tetrahydroquinline",
    "duplicated_cas_no": "86433-95-6;165057-15-8",
    "SMILES": "C=12C(=CC=CC1)NCCC2",
    "meta_data": {
        "InChI": "InChI=1S/C9H11N/c1-2-6-9-8(4-1)5-3-7-10-9/h1-2,4,6,10H,3,5,7H2",
        "InChIKey": null,
        "Canonical SMILES": "C=1C=CC2=C(C1)NCCC2",
        "Molecular Formula": "C<sub>9</sub>H<sub>11</sub>N",
        "Molecular Mass": "133.19",
        "Boiling Point": "251 °C",
        "Melting Point": "20 °C",
        "Density": "1.0599 g/cm³ @ Temp: 20 °C"
    }
}