{
    "cas_no": "591-93-5",
    "key_name": "1,4-Pentadiene",
    "cn_name": "1,4-戊二烯;1,4-戊二烯;",
    "alternate_name": "1,4-Pentadiene;NSC 73902",
    "duplicated_cas_no": "4264-99-7;39610-14-5",
    "SMILES": "C(C=C)C=C",
    "meta_data": {
        "InChI": "InChI=1S/C5H8/c1-3-5-4-2/h3-4H,1-2,5H2",
        "InChIKey": null,
        "Canonical SMILES": "C=CCC=C",
        "Molecular Formula": "C<sub>5</sub>H<sub>8</sub>",
        "Molecular Mass": "68.12",
        "Boiling Point": "26 °C",
        "Melting Point": "-148.8 °C",
        "Density": "0.6594 g/cm³ @ Temp: 20 °C"
    }
}