{
    "cas_no": "2124-57-4",
    "key_name": "Menaquinone 7",
    "cn_name": "维生素K2(35);甲萘醌-7;",
    "alternate_name": "1,4-Naphthalenedione, 2-[(2<em>E</em>,6<em>E</em>,10<em>E</em>,14<em>E</em>,18<em>E</em>,22<em>E</em>)-3,7,11,15,19,23,27-heptamethyl-2,6,10,14,18,22,26-octacosaheptaen-1-yl]-3-methyl-;1,4-Naphthoquinone, 2-(3,7,11,15,19,23,27-heptamethyl-2,6,10,14,18,22,26-octacosaheptaenyl)-3-methyl-, (<em>all</em>-<em>E</em>)-;1,4-Naphthalenedione, 2-(3,7,11,15,19,23,27-heptamethyl-2,6,10,14,18,22,26-octacosaheptaenyl)-3-methyl-, (<em>all</em>-<em>E</em>)-;1,4-Naphthalenedione, 2-[(2<em>E</em>,6<em>E</em>,10<em>E</em>,14<em>E</em>,18<em>E</em>,22<em>E</em>)-3,7,11,15,19,23,27-heptamethyl-2,6,10,14,18,22,26-octacosaheptaenyl]-3-methyl-;2-[(2<em>E</em>,6<em>E</em>,10<em>E</em>,14<em>E</em>,18<em>E</em>,22<em>E</em>)-3,7,11,15,19,23,27-Heptamethyl-2,6,10,14,18,22,26-octacosaheptaen-1-yl]-3-methyl-1,4-naphthalenedione;Vitamin K<sub>2(35)</sub>;Menaquinone K<sub>7</sub>;Menaquinone 7;MK-7;Vitamin MK 7;K 2 Oil M 1500;Vitamin K2-7",
    "duplicated_cas_no": "18749-18-3;27670-94-6;2797196-90-6",
    "SMILES": "O=C1C=2C(C(=O)C(C)=C1C/C=C(/CC/C=C(/CC/C=C(/CC/C=C(/CC/C=C(/CC/C=C(/CCC=C(C)C)\\C)\\C)\\C)\\C)\\C)\\C)=CC=CC2",
    "meta_data": {
        "InChI": "InChI=1S/C46H64O2/c1-34(2)18-12-19-35(3)20-13-21-36(4)22-14-23-37(5)24-15-25-38(6)26-16-27-39(7)28-17-29-40(8)32-33-42-41(9)45(47)43-30-10-11-31-44(43)46(42)48/h10-11,18,20,22,24,26,28,30-32H,12-17,19,21,23,25,27,29,33H2,1-9H3/b35-20+,36-22+,37-24+,38-26+,39-28+,40-32+",
        "InChIKey": null,
        "Canonical SMILES": "O=C1C=2C=CC=CC2C(=O)C(=C1C)CC=C(C)CCC=C(C)CCC=C(C)CCC=C(C)CCC=C(C)CCC=C(C)CCC=C(C)C",
        "Molecular Formula": "C<sub>46</sub>H<sub>64</sub>O<sub>2</sub>",
        "Molecular Mass": "649.00",
        "Melting Point": "54 °C"
    }
}