{
    "cas_no": "74050-98-9",
    "key_name": "Ketanserin",
    "cn_name": "酮色林;酮舍林;凯坦色林;凯他色林;3-[2-[4-(4-氟苯甲酰)-1-哌啶基]乙基]-2,4[1H,3H]-喹唑二酮;",
    "alternate_name": "2,4(1<em>H</em>,3<em>H</em>)-Quinazolinedione, 3-[2-[4-(4-fluorobenzoyl)-1-piperidinyl]ethyl]-;3-[2-[4-(4-Fluorobenzoyl)-1-piperidinyl]ethyl]-2,4(1<em>H</em>,3<em>H</em>)-quinazolinedione;R 41468;Ketanserin;Ketensin;Vulketan Gel;Suffrexal;MeSH ID: D007650",
    "duplicated_cas_no": "78168-89-5",
    "SMILES": "O=C1C=2C(NC(=O)N1CCN3CCC(C(=O)C4=CC=C(F)C=C4)CC3)=CC=CC2",
    "meta_data": {
        "InChI": "InChI=1S/C22H22FN3O3/c23-17-7-5-15(6-8-17)20(27)16-9-11-25(12-10-16)13-14-26-21(28)18-3-1-2-4-19(18)24-22(26)29/h1-8,16H,9-14H2,(H,24,29)",
        "InChIKey": null,
        "Canonical SMILES": "O=C1NC=2C=CC=CC2C(=O)N1CCN3CCC(C(=O)C4=CC=C(F)C=C4)CC3",
        "Molecular Formula": "C<sub>22</sub>H<sub>22</sub>FN<sub>3</sub>O<sub>3</sub>",
        "Molecular Mass": "395.43",
        "Melting Point": "231 °C"
    }
}