{
    "cas_no": "86776-50-3",
    "key_name": "4-Cyano-3-fluorophenyl 4-ethylbenzoate",
    "cn_name": "4-乙基苯甲酸-3-氟-4-氰基苯酯;",
    "alternate_name": "Benzoic acid, 4-ethyl-, 4-cyano-3-fluorophenyl ester;4-Cyano-3-fluorophenyl 4-ethylbenzoate;3-Fluoro-4-cyanophenyl 4-ethylbenzoate;4-Cyano-1-(4-ethylbenzoyloxy)-3-fluorobenzene;ME 2N.F;2-BEB(F)-C;PZG-2-N",
    "duplicated_cas_no": "",
    "SMILES": "C(OC1=CC(F)=C(C#N)C=C1)(=O)C2=CC=C(CC)C=C2",
    "meta_data": {
        "InChI": "InChI=1S/C16H12FNO2/c1-2-11-3-5-12(6-4-11)16(19)20-14-8-7-13(10-18)15(17)9-14/h3-9H,2H2,1H3",
        "InChIKey": null,
        "Canonical SMILES": "N#CC1=CC=C(OC(=O)C2=CC=C(C=C2)CC)C=C1F",
        "Molecular Formula": "C<sub>16</sub>H<sub>12</sub>FNO<sub>2</sub>",
        "Molecular Mass": "269.27",
        "Boiling Point": "29.5 °C"
    }
}