{
    "cas_no": "645-65-8",
    "key_name": "1<em>H</em>-Imidazole-5-acetic acid",
    "cn_name": "咪唑-4-乙酸;",
    "alternate_name": "1<em>H</em>-Imidazole-5-acetic acid;Imidazole-4-acetic acid;1<em>H</em>-Imidazole-4-acetic acid;Imidazole-4(<em>or</em> 5)-acetic acid;Imidazoleacetic acid;(Imidazol-4-yl)acetic acid;Imidazol-4(5)-ylacetic acid;NSC 60104;(3<em>H</em>-Imidazol-4-yl)acetic acid;I-4-AA;4-(Carboxymethyl)-1<em>H</em>-imidazole;(1<em>H</em>-Imidazol-4-yl)acetic acid;2-(1<em>H</em>-Imidazol-5-yl)acetic acid;Imidazole-5-acetic acid;2-(1<em>H</em>-Imidazol-4-yl)acetic acid;5-(2-Carboxymethyl)imidazole",
    "duplicated_cas_no": "873-79-0",
    "SMILES": "C(C(O)=O)C1=CN=CN1",
    "meta_data": {
        "InChI": "InChI=1S/C5H6N2O2/c8-5(9)1-4-2-6-3-7-4/h2-3H,1H2,(H,6,7)(H,8,9)",
        "InChIKey": null,
        "Canonical SMILES": "O=C(O)CC1=CN=CN1",
        "Molecular Formula": "C<sub>5</sub>H<sub>6</sub>N<sub>2</sub>O<sub>2</sub>",
        "Molecular Mass": "126.11",
        "Melting Point": "217-219 °C (decomp)"
    }
}