{
    "cas_no": "606-18-8",
    "key_name": "2-Amino-3-nitrobenzoic acid",
    "cn_name": "2-氨基-3-硝基苯甲酸;",
    "alternate_name": "Benzoic acid, 2-amino-3-nitro-;Anthranilic acid, 3-nitro-;2-Amino-3-nitrobenzoic acid;3-Nitroanthranilic acid;NSC 1162",
    "duplicated_cas_no": "",
    "SMILES": "C(O)(=O)C1=C(N)C(N(=O)=O)=CC=C1",
    "meta_data": {
        "InChI": "InChI=1S/C7H6N2O4/c8-6-4(7(10)11)2-1-3-5(6)9(12)13/h1-3H,8H2,(H,10,11)",
        "InChIKey": null,
        "Canonical SMILES": "O=C(O)C1=CC=CC(=C1N)N(=O)=O",
        "Molecular Formula": "C<sub>7</sub>H<sub>6</sub>N<sub>2</sub>O<sub>4</sub>",
        "Molecular Mass": "182.13",
        "Melting Point": "208-209 °C"
    }
}