{
    "cas_no": "627-83-8",
    "key_name": "Glycol distearate",
    "cn_name": null,
    "alternate_name": "Octadecanoic acid, 1,1′-(1,2-ethanediyl) ester;Stearic acid, ethylene ester;Octadecanoic acid, 1,2-ethanediyl ester;Ethylene glycol, distearate;Ethylene glycol, diester with stearic acid;Ethylene distearate;Ethylene stearate;Elfan L 310;Ethylene glycol dioctadecanoate;Ethylene dioctadecanoate;Nissan Unister E 275;Emalex EG-diS;Unister E 275;Emerest 2355;Cutina AGS;Glycol distearate;Emanon 3201M;Glycolube 674;Cutina K 2-2747;Kemester EGDS;Croda EGDS;EGDS;Kessco EGDS;Pegosperse 50DS;Pegnol EDS;Empilan EGDS/A;Santopearl GE 70;Emanon 3201;Tegin G 1100;Lipo EGDS;NSC 6820;PK 3000AM;Genapol PMS;Mackester EGDS;Tegin BL 315;B-DSP 60;Estepearl 15V;Cithrol EGDS 3432;Emanon 3201MH-V;Galaxy 610;Loxiol EP 237;Pegnol EDS 98K;Tegin EGS;Ethylene glycol distearate;SS-Emalex EG-di-S;DM 125H;Emanon 3201M-V;Estepearl 10V;E 275;Jeechem EGDS;Nikkol Estepearl 10V;Hallstar EGDS",
    "duplicated_cas_no": "",
    "SMILES": "O(CCOC(CCCCCCCCCCCCCCCCC)=O)C(CCCCCCCCCCCCCCCCC)=O",
    "meta_data": {
        "InChI": "InChI=1S/C38H74O4/c1-3-5-7-9-11-13-15-17-19-21-23-25-27-29-31-33-37(39)41-35-36-42-38(40)34-32-30-28-26-24-22-20-18-16-14-12-10-8-6-4-2/h3-36H2,1-2H3",
        "InChIKey": null,
        "Canonical SMILES": "O=C(OCCOC(=O)CCCCCCCCCCCCCCCCC)CCCCCCCCCCCCCCCCC",
        "Molecular Formula": "C<sub>38</sub>H<sub>74</sub>O<sub>4</sub>",
        "Molecular Mass": "594.99",
        "Melting Point": "79 °C",
        "Density": "0.8581 g/cm³ @ Temp: 78 °C"
    }
}