{
    "cas_no": "6681-18-1",
    "key_name": "Magnoflorine, chloride",
    "cn_name": "木兰花碱(氯化物);",
    "alternate_name": "4<em>H</em>-Dibenzo[<em>de</em>,<em>g</em>]quinolinium, 5,6,6a,7-tetrahydro-1,11-dihydroxy-2,10-dimethoxy-6,6-dimethyl-, chloride (1:1), (6a<em>S</em>)-;6aα-Aporphinium, 1,11-dihydroxy-2,10-dimethoxy-6-methyl-, chloride;4<em>H</em>-Dibenzo[<em>de</em>,<em>g</em>]quinolinium, 5,6,6a,7-tetrahydro-1,11-dihydroxy-2,10-dimethoxy-6,6-dimethyl-, chloride, (<em>S</em>)-;Magnoflorine, chloride;4<em>H</em>-Dibenzo[<em>de</em>,<em>g</em>]quinolinium, 5,6,6a,7-tetrahydro-1,11-dihydroxy-2,10-dimethoxy-6,6-dimethyl-, chloride, (6a<em>S</em>)-;Corytuberine methochloride;Escholine chloride;Thalictrine chloride;NSC 150443",
    "duplicated_cas_no": "",
    "SMILES": "OC1=C2C=3[C@](CC=4C2=C(O)C(OC)=CC4)([N+](C)(C)CCC3C=C1OC)[H].[Cl-]",
    "meta_data": {
        "InChI": "InChI=1S/C20H23NO4.ClH/c1-21(2)8-7-12-10-15(25-4)20(23)18-16(12)13(21)9-11-5-6-14(24-3)19(22)17(11)18;/h5-6,10,13H,7-9H2,1-4H3,(H-,22,23);1H/t13-;/m0./s1",
        "InChIKey": null,
        "Canonical SMILES": "[Cl-].OC=1C(OC)=CC=C2C1C=3C(O)=C(OC)C=C4C3C(C2)[N+](C)(C)CC4",
        "Molecular Formula": "C<sub>20</sub>H<sub>24</sub>NO<sub>4</sub>.Cl",
        "Molecular Mass": "",
        "Melting Point": "236-237 °C"
    }
}