{
    "cas_no": "5344-82-1",
    "key_name": "<em>N</em>-(2-Chlorophenyl)thiourea",
    "cn_name": "邻氯苯基硫脲;",
    "alternate_name": "Thiourea, <em>N</em>-(2-chlorophenyl)-;Urea, 1-(<em>o</em>-chlorophenyl)-2-thio-;Thiourea, (2-chlorophenyl)-;<em>N</em>-(2-Chlorophenyl)thiourea;(<em>o</em>-Chlorophenyl)thiourea;1-(2-Chlorophenyl)-2-thiourea;1-(2-Chlorophenyl)thiourea;1-(<em>o</em>-Chlorophenyl)thiourea;2-Chlorophenylthiourea;NSC 1165",
    "duplicated_cas_no": "",
    "SMILES": "N(C(N)=S)C1=C(Cl)C=CC=C1",
    "meta_data": {
        "InChI": "InChI=1S/C7H7ClN2S/c8-5-3-1-2-4-6(5)10-7(9)11/h1-4H,(H3,9,10,11)",
        "InChIKey": null,
        "Canonical SMILES": "S=C(N)NC=1C=CC=CC1Cl",
        "Molecular Formula": "C<sub>7</sub>H<sub>7</sub>ClN<sub>2</sub>S",
        "Molecular Mass": "186.66",
        "Melting Point": "146 °C"
    }
}