{
    "cas_no": "2687-94-7",
    "key_name": "<em>N</em>-Octylpyrrolidone",
    "cn_name": "N-辛基吡咯烷酮;",
    "alternate_name": "2-Pyrrolidinone, 1-octyl-;1-Octyl-2-pyrrolidinone;<em>N</em>-Octylpyrrolidone;<em>N</em>-Octyl-2-pyrrolidone;Surfadone LP 100;<em>N</em>-Octylpyrrolidinone;<em>N</em>-Octyl-2-pyrrolidinone;AgsolEx 8;<em>N</em>-Octylbutyrolactam;1-Octyl-2-pyrrolidone;ISP-LP 100;<em>N</em>-<em>n</em>-Octyl-α-pyrrolidone;LP 100;<em>N</em>-<em>n</em>-Octyl-2-pyrrolidone;Flexidone 100",
    "duplicated_cas_no": "",
    "SMILES": "C(CCCCCCC)N1C(=O)CCC1",
    "meta_data": {
        "InChI": "InChI=1S/C12H23NO/c1-2-3-4-5-6-7-10-13-11-8-9-12(13)14/h2-11H2,1H3",
        "InChIKey": null,
        "Canonical SMILES": "O=C1N(CCC1)CCCCCCCC",
        "Molecular Formula": "C<sub>12</sub>H<sub>23</sub>NO",
        "Molecular Mass": "197.32",
        "Boiling Point": "170-172 °C @ Press: 15 Torr",
        "Melting Point": "-25 °C",
        "Density": "0.92 g/cm³"
    }
}