{
    "cas_no": "174603-49-7",
    "key_name": "6-Chloro-4-fluoro-2,3-dihydro-1<em>H</em>-inden-1-one",
    "cn_name": null,
    "alternate_name": "1<em>H</em>-Inden-1-one, 6-chloro-4-fluoro-2,3-dihydro-;6-Chloro-4-fluoro-2,3-dihydro-1<em>H</em>-inden-1-one;6-Chloro-4-fluoroindan-1-one",
    "duplicated_cas_no": "",
    "SMILES": "FC1=C2C(=CC(Cl)=C1)C(=O)CC2",
    "meta_data": {
        "InChI": "InChI=1S/C9H6ClFO/c10-5-3-7-6(8(11)4-5)1-2-9(7)12/h3-4H,1-2H2",
        "InChIKey": null,
        "Canonical SMILES": "O=C1C=2C=C(Cl)C=C(F)C2CC1",
        "Molecular Formula": "C<sub>9</sub>H<sub>6</sub>ClFO",
        "Molecular Mass": "184.59",
        "Melting Point": "105-107 °C"
    }
}