{
    "cas_no": "452-08-4",
    "key_name": "2-Bromo-4-fluoro-1-methoxybenzene",
    "cn_name": "2-溴-4-氟苯甲醚;",
    "alternate_name": "Benzene, 2-bromo-4-fluoro-1-methoxy-;Anisole, 2-bromo-4-fluoro-;2-Bromo-4-fluoro-1-methoxybenzene;2-Bromo-4-fluoroanisole;NSC 10328;4-Fluoro-2-bromoanisole",
    "duplicated_cas_no": "",
    "SMILES": "O(C)C1=C(Br)C=C(F)C=C1",
    "meta_data": {
        "InChI": "InChI=1S/C7H6BrFO/c1-10-7-3-2-5(9)4-6(7)8/h2-4H,1H3",
        "InChIKey": null,
        "Canonical SMILES": "FC1=CC=C(OC)C(Br)=C1",
        "Molecular Formula": "C<sub>7</sub>H<sub>6</sub>BrFO",
        "Molecular Mass": "205.02",
        "Boiling Point": "79 °C @ Press: 5 Torr"
    }
}