{
    "cas_no": "360-65-6",
    "key_name": "Glycodeoxycholic acid",
    "cn_name": "甘油脱氧胆酸;N-(3α,12α-二羟基-24-氧胆)甘氨酸;",
    "alternate_name": "Glycine, <em>N</em>-[(3α,5β,12α)-3,12-dihydroxy-24-oxocholan-24-yl]-;Glycodeoxycholic acid;Glycine, <em>N</em>-(3α,12α-dihydroxy-5β-cholan-24-oyl)-;5β-Cholan-24-amide, <em>N</em>-(carboxymethyl)-3α,12α-dihydroxy-;Cholane, glycine deriv.;<em>N</em>-[(3α,5β,12α)-3,12-Dihydroxy-24-oxocholan-24-yl]glycine;Deoxycholic acid glycine conjugate;Deoxycholylglycine;Glycodesoxycholic acid;Glycyldeoxycholic acid;Deoxyglycocholic acid;3α,12α-Dihydroxy-5β-cholanic acid-24-glycine;ZINC 08837267;MeSH ID: D006002",
    "duplicated_cas_no": "125757-76-8;36258-34-1",
    "SMILES": "C[C@@]12[C@]([C@]3([C@@]([C@]4(C)[C@](CC3)(C[C@H](O)CC4)[H])(C[C@@H]1O)[H])[H])(CC[C@@]2([C@@H](CCC(NCC(O)=O)=O)C)[H])[H]",
    "meta_data": {
        "InChI": "InChI=1S/C26H43NO5/c1-15(4-9-23(30)27-14-24(31)32)19-7-8-20-18-6-5-16-12-17(28)10-11-25(16,2)21(18)13-22(29)26(19,20)3/h15-22,28-29H,4-14H2,1-3H3,(H,27,30)(H,31,32)/t15-,16-,17-,18+,19-,20+,21+,22+,25+,26-/m1/s1",
        "InChIKey": null,
        "Canonical SMILES": "O=C(O)CNC(=O)CCC(C)C1CCC2C3CCC4CC(O)CCC4(C)C3CC(O)C12C",
        "Molecular Formula": "C<sub>26</sub>H<sub>43</sub>NO<sub>5</sub>",
        "Molecular Mass": "449.62",
        "Melting Point": "184 °C"
    }
}