{
    "cas_no": "4136-21-4",
    "key_name": "2-Hydroxy-1-(4-methoxyphenyl)ethanone",
    "cn_name": null,
    "alternate_name": "Ethanone, 2-hydroxy-1-(4-methoxyphenyl)-;Acetophenone, 2-hydroxy-4′-methoxy-;2-Hydroxy-1-(4-methoxyphenyl)ethanone;2-Hydroxy-4′-methoxyacetophenone;1-<em>p</em>-Anisyl-2-hydroxyethanone;α-Hydroxy-4-methoxyacetophenone;NSC 67341;1-(4-Methoxyphenyl)-2-hydroxyethanone;2-Hydroxy-1-(4-methoxyphenyl)ethan-1-one",
    "duplicated_cas_no": "",
    "SMILES": "C(CO)(=O)C1=CC=C(OC)C=C1",
    "meta_data": {
        "InChI": "InChI=1S/C9H10O3/c1-12-8-4-2-7(3-5-8)9(11)6-10/h2-5,10H,6H2,1H3",
        "InChIKey": null,
        "Canonical SMILES": "O=C(C1=CC=C(OC)C=C1)CO",
        "Molecular Formula": "C<sub>9</sub>H<sub>10</sub>O<sub>3</sub>",
        "Molecular Mass": "166.17",
        "Melting Point": "105 °C"
    }
}