{
    "cas_no": "612-60-2",
    "key_name": "7-Methylquinoline",
    "cn_name": "7-甲基喹啉;",
    "alternate_name": "Quinoline, 7-methyl-;7-Methylquinoline;<em>m</em>-Toluquinoline;NSC 65665",
    "duplicated_cas_no": "",
    "SMILES": "CC1=CC2=C(C=C1)C=CC=N2",
    "meta_data": {
        "InChI": "InChI=1S/C10H9N/c1-8-4-5-9-3-2-6-11-10(9)7-8/h2-7H,1H3",
        "InChIKey": null,
        "Canonical SMILES": "N1=CC=CC2=CC=C(C=C12)C",
        "Molecular Formula": "C<sub>10</sub>H<sub>9</sub>N",
        "Molecular Mass": "143.19",
        "Boiling Point": "257.6 °C",
        "Melting Point": "39 °C"
    }
}