{
    "cas_no": "1013-25-8",
    "key_name": "1-(2,5-Dimethylphenyl)piperazine",
    "cn_name": "1-(2,5-二甲基苯基)哌嗪;",
    "alternate_name": "Piperazine, 1-(2,5-dimethylphenyl)-;Piperazine, 1-(2,5-xylyl)-;1-(2,5-Dimethylphenyl)piperazine;1-(2,5-Xylyl)piperazine;<em>N</em>-2,5-Xylylpiperazine;<em>N</em>-(2,5-Dimethylphenyl)piperazine",
    "duplicated_cas_no": "",
    "SMILES": "CC1=C(C=C(C)C=C1)N2CCNCC2",
    "meta_data": {
        "InChI": "InChI=1S/C12H18N2/c1-10-3-4-11(2)12(9-10)14-7-5-13-6-8-14/h3-4,9,13H,5-8H2,1-2H3",
        "InChIKey": null,
        "Canonical SMILES": "C=1C=C(C(=CC1C)N2CCNCC2)C",
        "Molecular Formula": "C<sub>12</sub>H<sub>18</sub>N<sub>2</sub>",
        "Molecular Mass": "190.28",
        "Boiling Point": "105-108 °C @ Press: 1 Torr"
    }
}