{
    "cas_no": "601-57-0",
    "key_name": "Cholest-4-en-3-one",
    "cn_name": "4-胆甾烯-3-酮;",
    "alternate_name": "Cholest-4-en-3-one;Δ<sup>4</sup>-Cholesten-3-one;Δ<sup>4</sup>-Cholestenone;3-Oxocholest-4-ene;Cholesterone;(17β)-17-Octylandrost-4-en-3-one;NSC 134926;NSC 63000;4-Cholestenone;(+)-4-Cholesten-3-one;4-Cholesten-3-one",
    "duplicated_cas_no": "127794-09-6;80868-58-2;378185-04-7",
    "SMILES": "C[C@@]12[C@]([C@]3([C@@]([C@]4(C)C(CC3)=CC(=O)CC4)(CC1)[H])[H])(CC[C@@]2([C@@H](CCCC(C)C)C)[H])[H]",
    "meta_data": {
        "InChI": "InChI=1S/C27H44O/c1-18(2)7-6-8-19(3)23-11-12-24-22-10-9-20-17-21(28)13-15-26(20,4)25(22)14-16-27(23,24)5/h17-19,22-25H,6-16H2,1-5H3/t19-,22+,23-,24+,25+,26+,27-/m1/s1",
        "InChIKey": null,
        "Canonical SMILES": "O=C1C=C2CCC3C(CCC4(C)C(CCC34)C(C)CCCC(C)C)C2(C)CC1",
        "Molecular Formula": "C<sub>27</sub>H<sub>44</sub>O",
        "Molecular Mass": "384.64",
        "Melting Point": "80 °C"
    }
}