{
    "cas_no": "51-93-4",
    "key_name": "Ethanaminium, <em>N</em>,<em>N</em>,<em>N</em>-trimethyl-, iodide (1:1)",
    "cn_name": "乙基三甲基碘化胺;",
    "alternate_name": "Ethanaminium, <em>N</em>,<em>N</em>,<em>N</em>-trimethyl-, iodide (1:1);Ammonium, ethyltrimethyl-, iodide;Ethyltrimethylammonium iodide;Ethanaminium, <em>N</em>,<em>N</em>,<em>N</em>-trimethyl-, iodide;Trimethylethylammonium iodide",
    "duplicated_cas_no": "",
    "SMILES": "[N+](CC)(C)(C)C.[I-]",
    "meta_data": {
        "InChI": "InChI=1S/C5H14N.HI/c1-5-6(2,3)4;/h5H2,1-4H3;1H/q+1;/p-1",
        "InChIKey": null,
        "Canonical SMILES": "[I-].CC[N+](C)(C)C",
        "Molecular Formula": "C<sub>5</sub>H<sub>14</sub>N.I",
        "Molecular Mass": "",
        "Melting Point": "245 °C (decomp)"
    }
}