{
    "cas_no": "3526-43-0",
    "key_name": "4-Methoxy-<em>N</em>-phenylbenzenemethanamine",
    "cn_name": null,
    "alternate_name": "Benzenemethanamine, 4-methoxy-<em>N</em>-phenyl-;Benzylamine, <em>p</em>-methoxy-<em>N</em>-phenyl-;4-Methoxy-<em>N</em>-phenylbenzenemethanamine;<em>p</em>-Methoxy-<em>N</em>-phenylbenzylamine;<em>N</em>-(4-Methoxybenzyl)aniline;<em>N</em>-Phenyl-4-methoxybenzylamine;4-Methoxybenzyl(phenyl)amine;<em>N</em>-(<em>p</em>-Methoxybenzyl)aniline",
    "duplicated_cas_no": "",
    "SMILES": "C(NC1=CC=CC=C1)C2=CC=C(OC)C=C2",
    "meta_data": {
        "InChI": "InChI=1S/C14H15NO/c1-16-14-9-7-12(8-10-14)11-15-13-5-3-2-4-6-13/h2-10,15H,11H2,1H3",
        "InChIKey": null,
        "Canonical SMILES": "O(C1=CC=C(C=C1)CNC=2C=CC=CC2)C",
        "Molecular Formula": "C<sub>14</sub>H<sub>15</sub>NO",
        "Molecular Mass": "213.27",
        "Boiling Point": "170-177 °C @ Press: 2.5 Torr",
        "Melting Point": "64.5 °C"
    }
}