{
    "cas_no": "92-67-1",
    "key_name": "4-Aminobiphenyl",
    "cn_name": "4-氨基联苯;对氨基联苯;",
    "alternate_name": "[1,1′-Biphenyl]-4-amine;4-Biphenylamine;<em>p</em>-Aminobiphenyl;4-Aminobiphenyl;<em>p</em>-Aminodiphenyl;4-Aminodiphenyl;<em>p</em>-Phenylaniline;Xenylamine;<em>p</em>-Biphenylamine;<em>p</em>-Xenylamine;4-Biphenylylamine;4-Phenylaniline;4-Phenylbenzenamine;(1,1′-Biphenyl-4-yl)amine;NSC 7660;4-Amino-1,1′-biphenyl;<em>p</em>-Aminophenyl benzene",
    "duplicated_cas_no": "",
    "SMILES": "NC1=CC=C(C=C1)C2=CC=CC=C2",
    "meta_data": {
        "InChI": "InChI=1S/C12H11N/c13-12-8-6-11(7-9-12)10-4-2-1-3-5-10/h1-9H,13H2",
        "InChIKey": null,
        "Canonical SMILES": "NC=1C=CC(=CC1)C=2C=CC=CC2",
        "Molecular Formula": "C<sub>12</sub>H<sub>11</sub>N",
        "Molecular Mass": "169.22",
        "Boiling Point": "302 °C",
        "Melting Point": "53.5 °C",
        "Density": "1.16 g/cm³"
    }
}