{
    "cas_no": "40172-65-4",
    "key_name": "Naphtho[1,2-<em>d</em>]thiazol-2-amine",
    "cn_name": null,
    "alternate_name": "Naphtho[1,2-<em>d</em>]thiazol-2-amine;Naphtho[1,2-<em>d</em>]thiazole, 2-amino-;α-Naphthothiazole, 1-amino-;2-Aminonaphtho[1,2-<em>d</em>]thiazole;2-Aminonaphthiazole;NSC 6278;SKA 31",
    "duplicated_cas_no": "",
    "SMILES": "NC1=NC=2C=3C(C=CC2S1)=CC=CC3",
    "meta_data": {
        "InChI": "InChI=1S/C11H8N2S/c12-11-13-10-8-4-2-1-3-7(8)5-6-9(10)14-11/h1-6H,(H2,12,13)",
        "InChIKey": null,
        "Canonical SMILES": "N1=C(SC2=CC=C3C=CC=CC3=C12)N",
        "Molecular Formula": "C<sub>11</sub>H<sub>8</sub>N<sub>2</sub>S",
        "Molecular Mass": "200.26",
        "Melting Point": "235-237 °C"
    }
}