{
    "cas_no": "77-93-0",
    "key_name": "Triethyl citrate",
    "cn_name": "柠檬酸三乙酯;",
    "alternate_name": "1,2,3-Propanetricarboxylic acid, 2-hydroxy-, 1,2,3-triethyl ester;Citric acid, triethyl ester;1,2,3-Propanetricarboxylic acid, 2-hydroxy-, triethyl ester;Citroflex 2;Ethyl citrate;Triethyl citrate;Hydragen CAT;Eudraflex;Citroflex C 2;Citroflex EC;NSC 8907;Morflex C 2;Citrofol AI;Citroflex SC 60;Morflex TEC;Naugalube 810;Triethyl 2-hydroxypropane-1,2,3-tricarboxylate;Citroflex 2SC60;Dermofeel TEC Eco",
    "duplicated_cas_no": "",
    "SMILES": "C(CC(OCC)=O)(CC(OCC)=O)(C(OCC)=O)O",
    "meta_data": {
        "InChI": "InChI=1S/C12H20O7/c1-4-17-9(13)7-12(16,11(15)19-6-3)8-10(14)18-5-2/h16H,4-8H2,1-3H3",
        "InChIKey": null,
        "Canonical SMILES": "O=C(OCC)CC(O)(C(=O)OCC)CC(=O)OCC",
        "Molecular Formula": "C<sub>12</sub>H<sub>20</sub>O<sub>7</sub>",
        "Molecular Mass": "276.28",
        "Boiling Point": "294 °C",
        "Melting Point": "-55 °C",
        "Density": "1.1369 g/cm³ @ Temp: 20 °C"
    }
}