{
    "cas_no": "683-57-8",
    "key_name": "Bromoacetamide",
    "cn_name": "2-溴乙酰胺;",
    "alternate_name": "Acetamide, 2-bromo-;Bromoacetamide;2-Bromoacetamide;NSC 77371;α-Bromoacetamide",
    "duplicated_cas_no": "",
    "SMILES": "C(CBr)(N)=O",
    "meta_data": {
        "InChI": "InChI=1S/C2H4BrNO/c3-1-2(4)5/h1H2,(H2,4,5)",
        "InChIKey": null,
        "Canonical SMILES": "O=C(N)CBr",
        "Molecular Formula": "C<sub>2</sub>H<sub>4</sub>BrNO",
        "Molecular Mass": "137.96",
        "Melting Point": "88-90 °C"
    }
}