{
    "cas_no": "95847-70-4",
    "key_name": "Ipsapirone",
    "cn_name": null,
    "alternate_name": "1,2-Benzisothiazol-3(2<em>H</em>)-one, 2-[4-[4-(2-pyrimidinyl)-1-piperazinyl]butyl]-, 1,1-dioxide;Ipsapirone",
    "duplicated_cas_no": "",
    "SMILES": "O=S1(=O)C=2C(C(=O)N1CCCCN3CCN(CC3)C=4N=CC=CN4)=CC=CC2",
    "meta_data": {
        "InChI": "InChI=1S/C19H23N5O3S/c25-18-16-6-1-2-7-17(16)28(26,27)24(18)11-4-3-10-22-12-14-23(15-13-22)19-20-8-5-9-21-19/h1-2,5-9H,3-4,10-15H2",
        "InChIKey": null,
        "Canonical SMILES": "O=C1C=2C=CC=CC2S(=O)(=O)N1CCCCN3CCN(C4=NC=CC=N4)CC3",
        "Molecular Formula": "C<sub>19</sub>H<sub>23</sub>N<sub>5</sub>O<sub>3</sub>S",
        "Molecular Mass": "401.48",
        "Melting Point": "137-138 °C"
    }
}