{
    "cas_no": "6132-04-3",
    "key_name": "Sodium citrate dihydrate",
    "cn_name": "柠檬酸钠;枸橼酸钠;2-羟基丙烷-1,2,3-三羧酸钠;",
    "alternate_name": "1,2,3-Propanetricarboxylic acid, 2-hydroxy-, sodium salt, hydrate (1:3:2);Citric acid, trisodium salt, dihydrate;1,2,3-Propanetricarboxylic acid, 2-hydroxy-, trisodium salt, dihydrate;Sodium citrate dihydrate;Trisodium citrate dihydrate;N 1560",
    "duplicated_cas_no": "943143-17-7;2594426-28-3;2697169-41-6;2768336-37-2;2954823-68-6",
    "SMILES": "C(CC(O)=O)(CC(O)=O)(C(O)=O)O.[Na].O",
    "meta_data": {
        "InChI": "InChI=1S/C6H8O7.3Na.2H2O/c7-3(8)1-6(13,5(11)12)2-4(9)10;;;;;/h13H,1-2H2,(H,7,8)(H,9,10)(H,11,12);;;;2*1H2",
        "InChIKey": null,
        "Canonical SMILES": "[Na].O=C(O)CC(O)(C(=O)O)CC(=O)O.O",
        "Molecular Formula": "C<sub>6</sub>H<sub>8</sub>O<sub>7</sub>.2H<sub>2</sub>O.3Na",
        "Molecular Mass": "",
        "Melting Point": "150 °C (decomp)"
    }
}