{
    "cas_no": "57381-26-7",
    "key_name": "Irsogladine",
    "cn_name": "伊索拉定;2,4-二氨基-6-(2,5-二氯苯基)-1,3,5-三嗪;",
    "alternate_name": "1,3,5-Triazine-2,4-diamine, 6-(2,5-dichlorophenyl)-;6-(2,5-Dichlorophenyl)-1,3,5-triazine-2,4-diamine;2,4-Diamino-6-(2,5-dichlorophenyl)-<em>s</em>-triazine;2,4-Diamino-6-(2,5-dichlorophenyl)-1,3,5-triazine;Irsogladine;Dicloguamine",
    "duplicated_cas_no": "",
    "SMILES": "ClC1=C(C=2N=C(N)N=C(N)N2)C=C(Cl)C=C1",
    "meta_data": {
        "InChI": "InChI=1S/C9H7Cl2N5/c10-4-1-2-6(11)5(3-4)7-14-8(12)16-9(13)15-7/h1-3H,(H4,12,13,14,15,16)",
        "InChIKey": null,
        "Canonical SMILES": "ClC=1C=CC(Cl)=C(C1)C=2N=C(N=C(N2)N)N",
        "Molecular Formula": "C<sub>9</sub>H<sub>7</sub>Cl<sub>2</sub>N<sub>5</sub>",
        "Molecular Mass": "256.09",
        "Melting Point": "268-269 °C"
    }
}