{
    "cas_no": "10030-85-0",
    "key_name": "<span class=\"text-smallcaps\">L</span>-Rhamnose monohydrate",
    "cn_name": "L-鼠李糖;L-异甜醇;",
    "alternate_name": "<span class=\"text-smallcaps\">L</span>-Mannose, 6-deoxy-, hydrate (1:1);Rhamnose, monohydrate, <span class=\"text-smallcaps\">L</span>-;<span class=\"text-smallcaps\">L</span>-Mannose, 6-deoxy-, monohydrate;<span class=\"text-smallcaps\">L</span>-Rhamnose monohydrate;Rhamnose monohydrate",
    "duplicated_cas_no": "",
    "SMILES": "[C@@H]([C@H]([C@H](C)O)O)([C@H](C=O)O)O.O",
    "meta_data": {
        "InChI": "InChI=1S/C6H12O5.H2O/c1-3(8)5(10)6(11)4(9)2-7;/h2-6,8-11H,1H3;1H2/t3-,4-,5-,6-;/m0./s1",
        "InChIKey": null,
        "Canonical SMILES": "O=CC(O)C(O)C(O)C(O)C.O",
        "Molecular Formula": "C<sub>6</sub>H<sub>12</sub>O<sub>5</sub>.H<sub>2</sub>O",
        "Molecular Mass": "",
        "Melting Point": "95 °C"
    }
}