{
    "cas_no": "1617-90-9",
    "key_name": "Vincamine",
    "cn_name": "长春胺;",
    "alternate_name": "Eburnamenine-14-carboxylic acid, 14,15-dihydro-14-hydroxy-, methyl ester, (3α,14β,16α)-;Vincamine;Minorine;1<em>H</em>-Indolo[3,2,1-<em>de</em>]pyrido[3,2,1-<em>ij</em>][1,5]naphthyridine, eburnamenine-14-carboxylic acid deriv.;Devincan;(+)-Vincamine;Devinkan;Vincamin;Minorin;Pervincamine;Vincafor;(+)-<em>cis</em>-Vincamine;Methyl vincaminate;<em>cis</em>-Vincamine;Vincapan;Vraap;Arteriovinca;Vincagil;Tripervan;Ocu-vinc;Vincalen;Novicet;Vincadar;Vincafolina;NSC 91998;Sostenil;Perval;Vinvasaunier;Equipur;Angiopac;Vincapront;Vincamidol;Vincafarm;Oxygeron;Vincimax;Vinodrel Retard;Pervone;Oxybral;MeSH ID: D014749",
    "duplicated_cas_no": "10597-62-3",
    "SMILES": "C(OC)(=O)[C@]1(O)N2C=3[C@@]4([C@](CC)(C1)CCCN4CCC3C=5C2=CC=CC5)[H]",
    "meta_data": {
        "InChI": "InChI=1S/C21H26N2O3/c1-3-20-10-6-11-22-12-9-15-14-7-4-5-8-16(14)23(17(15)18(20)22)21(25,13-20)19(24)26-2/h4-5,7-8,18,25H,3,6,9-13H2,1-2H3/t18-,20+,21+/m1/s1",
        "InChIKey": null,
        "Canonical SMILES": "O=C(OC)C1(O)N2C=3C=CC=CC3C4=C2C5N(CC4)CCCC5(CC)C1",
        "Molecular Formula": "C<sub>21</sub>H<sub>26</sub>N<sub>2</sub>O<sub>3</sub>",
        "Molecular Mass": "354.44",
        "Melting Point": "232-233 °C"
    }
}