{
    "cas_no": "76981-71-0",
    "key_name": "Ethyl 2-amino-4,5,6,7-tetrahydro-6-methylbenzo[<em>b</em>]thiophene-3-carboxylate",
    "cn_name": null,
    "alternate_name": "Benzo[<em>b</em>]thiophene-3-carboxylic acid, 2-amino-4,5,6,7-tetrahydro-6-methyl-, ethyl ester;Ethyl 2-amino-4,5,6,7-tetrahydro-6-methylbenzo[<em>b</em>]thiophene-3-carboxylate;(<em>RS</em>)-Ethyl 2-amino-6-methyl-4,5,6,7-tetrahydro-1-benzothiophene-3-carboxylate;Ethyl 2-amino-6-methyl-4,5,6,7-tetrahydrobenzo[<em>b</em>]thiophene-3-carboxylate;Ethyl 2-amino-6-methyl-4,5,6,7-tetrahydro-1-benzothiophene-3-carboxylate;2-Amino-6-methyl-4,5,6,7-tetrahydro-benzo[<em>b</em>]thiophene-3-carboxylic acid ethyl ester",
    "duplicated_cas_no": "",
    "SMILES": "C(OCC)(=O)C=1C2=C(SC1N)CC(C)CC2",
    "meta_data": {
        "InChI": "InChI=1S/C12H17NO2S/c1-3-15-12(14)10-8-5-4-7(2)6-9(8)16-11(10)13/h7H,3-6,13H2,1-2H3",
        "InChIKey": null,
        "Canonical SMILES": "O=C(OCC)C1=C(SC2=C1CCC(C)C2)N",
        "Molecular Formula": "C<sub>12</sub>H<sub>17</sub>NO<sub>2</sub>S",
        "Molecular Mass": "239.33",
        "Melting Point": "110 °C"
    }
}