{
    "cas_no": "54932-72-8",
    "key_name": "5-Bromo-2-chlorotoluene",
    "cn_name": "5-溴-2-氯甲苯;",
    "alternate_name": "Benzene, 4-bromo-1-chloro-2-methyl-;Toluene, 5-bromo-2-chloro-;4-Bromo-1-chloro-2-methylbenzene;4-Chloro-3-methylbromobenzene;5-Bromo-2-chlorotoluene;2-Chloro-5-bromotoluene;5-Bromo-2-chloro-1-methylbenzene",
    "duplicated_cas_no": "",
    "SMILES": "CC1=C(Cl)C=CC(Br)=C1",
    "meta_data": {
        "InChI": "InChI=1S/C7H6BrCl/c1-5-4-6(8)2-3-7(5)9/h2-4H,1H3",
        "InChIKey": null,
        "Canonical SMILES": "ClC1=CC=C(Br)C=C1C",
        "Molecular Formula": "C<sub>7</sub>H<sub>6</sub>BrCl",
        "Molecular Mass": "205.48",
        "Boiling Point": "90-93 °C"
    }
}