{
    "cas_no": "25712-33-8",
    "key_name": "<em>rel</em>-(1<em>R</em>,2<em>R</em>)-1,2-Cyclohexanedimethanol",
    "cn_name": null,
    "alternate_name": "1,2-Cyclohexanedimethanol, (1<em>R</em>,2<em>R</em>)-<em>rel</em>-;1,2-Cyclohexanedimethanol, <em>trans</em>-;<em>rel</em>-(1<em>R</em>,2<em>R</em>)-1,2-Cyclohexanedimethanol;<em>trans</em>-1,2-Cyclohexanedimethanol;<em>trans</em>-1,2-Bis(hydroxymethyl)cyclohexane;(1<em>R</em>,2<em>R</em>)-<em>rel</em>-1,2-Cyclohexanedimethanol;(<em>trans</em>-Cyclohexane-1,2-diyl)dimethanol",
    "duplicated_cas_no": "76155-27-6",
    "SMILES": "C(O)[C@H]1[C@H](CO)CCCC1",
    "meta_data": {
        "InChI": "InChI=1/C8H16O2/c9-5-7-3-1-2-4-8(7)6-10/h7-10H,1-6H2/t7-,8-/s2",
        "InChIKey": null,
        "Canonical SMILES": "OCC1CCCCC1CO",
        "Molecular Formula": "C<sub>8</sub>H<sub>16</sub>O<sub>2</sub>",
        "Molecular Mass": "144.21",
        "Boiling Point": "130-131 °C @ Press: 0.5 Torr",
        "Melting Point": "57 °C"
    }
}