{
    "cas_no": "24812-90-6",
    "key_name": "Benzoic acid, 3-amino-4-methoxy-, methyl ester",
    "cn_name": "3-氨基-4-甲氧基苯甲酸甲酯;",
    "alternate_name": "Benzoic acid, 3-amino-4-methoxy-, methyl ester;<em>p</em>-Anisic acid, 3-amino-, methyl ester;Methyl 3-amino-4-methoxybenzoate;3-Amino-4-methoxybenzoic acid methyl ester;Methyl 4-methoxy-3-aminobenzoate;2-Methoxy-5-methoxycarbonylaniline",
    "duplicated_cas_no": "",
    "SMILES": "C(OC)(=O)C1=CC(N)=C(OC)C=C1",
    "meta_data": {
        "InChI": "InChI=1S/C9H11NO3/c1-12-8-4-3-6(5-7(8)10)9(11)13-2/h3-5H,10H2,1-2H3",
        "InChIKey": null,
        "Canonical SMILES": "O=C(OC)C1=CC=C(OC)C(N)=C1",
        "Molecular Formula": "C<sub>9</sub>H<sub>11</sub>NO<sub>3</sub>",
        "Molecular Mass": "181.19",
        "Melting Point": "83-85 °C"
    }
}