{
    "cas_no": "7462-86-4",
    "key_name": "4-Piperidinecarboxylic acid, methyl ester, hydrochloride (1:1)",
    "cn_name": "4-哌啶甲酸甲酯;",
    "alternate_name": "4-Piperidinecarboxylic acid, methyl ester, hydrochloride (1:1);4-Piperidinecarboxylic acid, methyl ester, hydrochloride;Methyl isonipecotate hydrochloride;Methyl piperidine-4-carboxylate hydrochloride;Piperidin-4-carboxylic acid methyl ester hydrochloride",
    "duplicated_cas_no": "",
    "SMILES": "C(OC)(=O)C1CCNCC1.Cl",
    "meta_data": {
        "InChI": "InChI=1S/C7H13NO2.ClH/c1-10-7(9)6-2-4-8-5-3-6;/h6,8H,2-5H2,1H3;1H",
        "InChIKey": null,
        "Canonical SMILES": "Cl.O=C(OC)C1CCNCC1",
        "Molecular Formula": "C<sub>7</sub>H<sub>13</sub>NO<sub>2</sub>.ClH",
        "Molecular Mass": "",
        "Melting Point": "160-161 °C"
    }
}