{
    "cas_no": "1836-75-5",
    "key_name": "Nitrofen",
    "cn_name": "除草醚;2,4-二氯-4\"-硝基二苯醚;2,4-二氯苯基-4\"-硝基苯基醚;2,4-二氯-1-(4-硝基苯氧基)苯;",
    "alternate_name": "Benzene, 2,4-dichloro-1-(4-nitrophenoxy)-;Ether, 2,4-dichlorophenyl <em>p</em>-nitrophenyl;2,4-Dichloro-1-(4-nitrophenoxy)benzene;2,4-Dichlorophenyl <em>p</em>-nitrophenyl ether;FW 925;2,4-Dichloro-4′-nitrodiphenyl ether;NIP;Nitrofen;Nitrophen;Nitrophene;TOK E 25;TOK (ether);2,4-Dichlorophenyl 4-nitrophenyl ether;4-(2,4-Dichlorophenoxy)nitrobenzene;4-Nitro-2′,4′-dichlorophenyl ether;4′-Nitro-2,4-dichlorodiphenyl ether;TOK E;Niclofen;Nitrochlor;Mezotox;Preparation 125;TOK E 40;Nitrofen (pesticide);Trizilin;2′,4′-Dichloro-4-nitrodiphenyl ether;Trizilin 25;TOK",
    "duplicated_cas_no": "51274-07-8",
    "SMILES": "O(C1=C(Cl)C=C(Cl)C=C1)C2=CC=C(N(=O)=O)C=C2",
    "meta_data": {
        "InChI": "InChI=1S/C12H7Cl2NO3/c13-8-1-6-12(11(14)7-8)18-10-4-2-9(3-5-10)15(16)17/h1-7H",
        "InChIKey": null,
        "Canonical SMILES": "O=N(=O)C1=CC=C(OC2=CC=C(Cl)C=C2Cl)C=C1",
        "Molecular Formula": "C<sub>12</sub>H<sub>7</sub>Cl<sub>2</sub>NO<sub>3</sub>",
        "Molecular Mass": "284.09",
        "Boiling Point": "180-190 °C @ Press: 0.25 Torr",
        "Melting Point": "70-71 °C",
        "Density": "1.33 g/cm³ @ Temp: 90 °C"
    }
}