{
    "cas_no": "1190-92-7",
    "key_name": "<em>N</em>,<em>N</em>-Dimethyl-2-nitroethenamine",
    "cn_name": null,
    "alternate_name": "Ethenamine, <em>N</em>,<em>N</em>-dimethyl-2-nitro-;Vinylamine, <em>N</em>,<em>N</em>-dimethyl-2-nitro-;<em>N</em>,<em>N</em>-Dimethyl-2-nitroethenamine;<em>N</em>,<em>N</em>-Dimethyl-2-nitrovinylamine;1-Nitro-2-(dimethylamino)ethylene;1-(Dimethylamino)-2-nitroethylene;<em>N</em>-(2-Nitrovinyl)dimethylamine;1-(<em>N</em>,<em>N</em>-Dimethylamino)-2-nitroethylene;1-(Dimethylamino)-2-nitroethene",
    "duplicated_cas_no": "",
    "SMILES": "C(=CN(=O)=O)N(C)C",
    "meta_data": {
        "InChI": "InChI=1S/C4H8N2O2/c1-5(2)3-4-6(7)8/h3-4H,1-2H3",
        "InChIKey": null,
        "Canonical SMILES": "O=N(=O)C=CN(C)C",
        "Molecular Formula": "C<sub>4</sub>H<sub>8</sub>N<sub>2</sub>O<sub>2</sub>",
        "Molecular Mass": "116.12",
        "Melting Point": "104 °C"
    }
}