{
    "cas_no": "90-12-0",
    "key_name": "1-Methylnaphthalene",
    "cn_name": "1-甲基萘;alpha-甲基萘;",
    "alternate_name": "Naphthalene, 1-methyl-;1-Methylnaphthalene;α-Methylnaphthalene;NSC 3574;Methynaph H;Mechinafu H",
    "duplicated_cas_no": "",
    "SMILES": "CC=1C2=C(C=CC1)C=CC=C2",
    "meta_data": {
        "InChI": "InChI=1S/C11H10/c1-9-5-4-7-10-6-2-3-8-11(9)10/h2-8H,1H3",
        "InChIKey": null,
        "Canonical SMILES": "C=1C=CC2=C(C1)C=CC=C2C",
        "Molecular Formula": "C<sub>11</sub>H<sub>10</sub>",
        "Molecular Mass": "142.20",
        "Boiling Point": "240-243 °C",
        "Melting Point": "-22 °C",
        "Density": "1.025 g/cm³"
    }
}