{
    "cas_no": "16642-94-7",
    "key_name": "(2<em>E</em>)-3-(4-Cyanophenyl)-2-propenoic acid",
    "cn_name": null,
    "alternate_name": "2-Propenoic acid, 3-(4-cyanophenyl)-, (2<em>E</em>)-;Cinnamic acid, <em>p</em>-cyano-, (<em>E</em>)-;2-Propenoic acid, 3-(4-cyanophenyl)-, (<em>E</em>)-;(2<em>E</em>)-3-(4-Cyanophenyl)-2-propenoic acid;(<em>E</em>)-4-Cyanocinnamic acid;<em>trans</em>-3-(4-Cyanophenyl)-2-propenoic acid;(<em>E</em>)-3-(4-Cyanophenyl)-2-propenoic acid;<em>trans</em>-4-Cyanocinnamic acid;(E)-3-(4-Cyanophenyl)acrylic acid;(2E)-3-(4-Cyanophenyl)prop-2-enoic acid",
    "duplicated_cas_no": "",
    "SMILES": "C(=C/C(O)=O)\\C1=CC=C(C#N)C=C1",
    "meta_data": {
        "InChI": "InChI=1S/C10H7NO2/c11-7-9-3-1-8(2-4-9)5-6-10(12)13/h1-6H,(H,12,13)/b6-5+",
        "InChIKey": null,
        "Canonical SMILES": "N#CC1=CC=C(C=CC(=O)O)C=C1",
        "Molecular Formula": "C<sub>10</sub>H<sub>7</sub>NO<sub>2</sub>",
        "Molecular Mass": "173.17",
        "Melting Point": "245.0-249.0 °C"
    }
}