{
    "cas_no": "7481-89-2",
    "key_name": "Dideoxycytidine",
    "cn_name": "扎西他滨;2\",3\"-二脱氧胞苷;2\",3\"-二脱氧胞甙;双脱氧胞嘧啶核苷;",
    "alternate_name": "Cytidine, 2′,3′-dideoxy-;2′,3′-Dideoxycytidine;NSC 606170;ddC;Dideoxycytidine;Ro 24-2027/000;Zalcitabine;D 2C;Hivid;Dideoxycytosine",
    "duplicated_cas_no": "176485-55-5",
    "SMILES": "O=C1N([C@@H]2O[C@H](CO)CC2)C=CC(N)=N1",
    "meta_data": {
        "InChI": "InChI=1S/C9H13N3O3/c10-7-3-4-12(9(14)11-7)8-2-1-6(5-13)15-8/h3-4,6,8,13H,1-2,5H2,(H2,10,11,14)/t6-,8+/m0/s1",
        "InChIKey": null,
        "Canonical SMILES": "O=C1N=C(N)C=CN1C2OC(CO)CC2",
        "Molecular Formula": "C<sub>9</sub>H<sub>13</sub>N<sub>3</sub>O<sub>3</sub>",
        "Molecular Mass": "211.22",
        "Melting Point": "217-218 °C"
    }
}