{
    "cas_no": "80-00-2",
    "key_name": "4-Chlorophenyl phenyl sulfone",
    "cn_name": "杀螨砜;氯苯砜;4-氯二苯砜;",
    "alternate_name": "Benzene, 1-chloro-4-(phenylsulfonyl)-;Sulfone, <em>p</em>-chlorophenyl phenyl;1-Chloro-4-(phenylsulfonyl)benzene;R 242;4-Chlorodiphenyl sulfone;<em>p</em>-Chlorophenyl phenyl sulfone;Sulphenone;4-Chlorophenyl phenyl sulfone;Sulfenon;<em>p</em>-Chlorodiphenyl sulfone;NSC 404335;1-(Benzenesulfonyl)-4-chlorobenzene",
    "duplicated_cas_no": "8012-45-1",
    "SMILES": "S(=O)(=O)(C1=CC=C(Cl)C=C1)C2=CC=CC=C2",
    "meta_data": {
        "InChI": "InChI=1S/C12H9ClO2S/c13-10-6-8-12(9-7-10)16(14,15)11-4-2-1-3-5-11/h1-9H",
        "InChIKey": null,
        "Canonical SMILES": "O=S(=O)(C=1C=CC=CC1)C2=CC=C(Cl)C=C2",
        "Molecular Formula": "C<sub>12</sub>H<sub>9</sub>ClO<sub>2</sub>S",
        "Molecular Mass": "252.72",
        "Boiling Point": "382-386 °C",
        "Melting Point": "94 °C"
    }
}