{
    "cas_no": "765-34-4",
    "key_name": "Glycidaldehyde",
    "cn_name": "2,3-环氧丙醛;缩水甘油醛;",
    "alternate_name": "2-Oxiranecarboxaldehyde;Glycidaldehyde;Oxiranecarboxaldehyde;Epihydrinaldehyde;Glycidal;2,3-Epoxypropanal;Epoxypropanal;Formyloxirane;NSC 521506",
    "duplicated_cas_no": "103729-45-9",
    "SMILES": "C(=O)C1CO1",
    "meta_data": {
        "InChI": "InChI=1S/C3H4O2/c4-1-3-2-5-3/h1,3H,2H2",
        "InChIKey": null,
        "Canonical SMILES": "O=CC1OC1",
        "Molecular Formula": "C<sub>3</sub>H<sub>4</sub>O<sub>2</sub>",
        "Molecular Mass": "72.06",
        "Boiling Point": "112.5 °C",
        "Melting Point": "-62 °C",
        "Density": "1.1403 g/cm³ @ Temp: 20 °C"
    }
}