{
    "cas_no": "99-43-4",
    "key_name": "Oxybuprocaine",
    "cn_name": "丁氧卡因;奥布卡因;丁氧普鲁卡因;4-氨基-3-丁氧基苯甲酸二乙基氨基乙基酯;",
    "alternate_name": "Benzoic acid, 4-amino-3-butoxy-, 2-(diethylamino)ethyl ester;4-Amino-3-butoxybenzoic acid 2-diethylaminoethyl ester;Benoxinate;3-Butoxy-4-aminobenzoic acid 2-diethylaminoethyl ester;2-Diethylaminoethyl 4-amino-3-butoxybenzoate;Dorsacain;Oxybucaine;Oxybuprocaine;Conjucain;Novesinol;Prescaina;Benoxy",
    "duplicated_cas_no": "",
    "SMILES": "C(OCCN(CC)CC)(=O)C1=CC(OCCCC)=C(N)C=C1",
    "meta_data": {
        "InChI": "InChI=1S/C17H28N2O3/c1-4-7-11-21-16-13-14(8-9-15(16)18)17(20)22-12-10-19(5-2)6-3/h8-9,13H,4-7,10-12,18H2,1-3H3",
        "InChIKey": null,
        "Canonical SMILES": "O=C(OCCN(CC)CC)C1=CC=C(N)C(OCCCC)=C1",
        "Molecular Formula": "C<sub>17</sub>H<sub>28</sub>N<sub>2</sub>O<sub>3</sub>",
        "Molecular Mass": "308.42",
        "Boiling Point": "216.5 °C"
    }
}