{
    "cas_no": "4338-47-0",
    "key_name": "Kinetin riboside",
    "cn_name": "激动素核苷;",
    "alternate_name": "Adenosine, <em>N</em>-(2-furanylmethyl)-;Adenosine, <em>N</em>-furfuryl-;<em>N</em>-(2-Furanylmethyl)adenosine;Kinetin riboside;Riboside, kinetin;Furfuryladenosine;<em>N</em><sup>6</sup>-Furfuryladenosine;Ribosylkinetin;6-Furfuryladenosine;NSC 120958;<em>N</em><sup>6</sup>-(2-Furanylmethyl)adenosine;Kinetinα riboside;MB 801",
    "duplicated_cas_no": "1093650-52-2;1194710-12-7",
    "SMILES": "O[C@H]1[C@H](N2C=3C(N=C2)=C(NCC4=CC=CO4)N=CN3)O[C@H](CO)[C@H]1O",
    "meta_data": {
        "InChI": "InChI=1S/C15H17N5O5/c21-5-9-11(22)12(23)15(25-9)20-7-19-10-13(17-6-18-14(10)20)16-4-8-2-1-3-24-8/h1-3,6-7,9,11-12,15,21-23H,4-5H2,(H,16,17,18)/t9-,11-,12-,15-/m1/s1",
        "InChIKey": null,
        "Canonical SMILES": "OCC1OC(N2C=NC=3C(=NC=NC32)NCC=4OC=CC4)C(O)C1O",
        "Molecular Formula": "C<sub>15</sub>H<sub>17</sub>N<sub>5</sub>O<sub>5</sub>",
        "Molecular Mass": "347.33",
        "Melting Point": "151-152 °C"
    }
}