{
    "cas_no": "118-04-7",
    "key_name": "2-(3-Amino-4-chlorobenzoyl)benzoic acid",
    "cn_name": "2-(3-氨基-4-氯苯甲酰)苯甲酸;",
    "alternate_name": "Benzoic acid, 2-(3-amino-4-chlorobenzoyl)-;Benzoic acid, <em>o</em>-(3-amino-4-chlorobenzoyl)-;2-(3-Amino-4-chlorobenzoyl)benzoic acid;<em>o</em>-(3-Amino-4-chlorobenzoyl)benzoic acid;3′-Amino-4′-chloro-<em>o</em>-benzoylbenzoic acid;4-Chloro-3-aminobenzophenone-2′-carboxylic acid;2-[(3-Amino-4-chlorophenyl)carbonyl]benzoic acid;NSC 74496",
    "duplicated_cas_no": "",
    "SMILES": "C(=O)(C1=C(C(O)=O)C=CC=C1)C2=CC(N)=C(Cl)C=C2",
    "meta_data": {
        "InChI": "InChI=1S/C14H10ClNO3/c15-11-6-5-8(7-12(11)16)13(17)9-3-1-2-4-10(9)14(18)19/h1-7H,16H2,(H,18,19)",
        "InChIKey": null,
        "Canonical SMILES": "O=C(O)C=1C=CC=CC1C(=O)C2=CC=C(Cl)C(N)=C2",
        "Molecular Formula": "C<sub>14</sub>H<sub>10</sub>ClNO<sub>3</sub>",
        "Molecular Mass": "275.69",
        "Melting Point": "181.5-182.0 °C"
    }
}