{
    "cas_no": "15205-57-9",
    "key_name": "Tris(phenylmethyl) phosphite",
    "cn_name": null,
    "alternate_name": "Phosphorous acid, tris(phenylmethyl) ester;Phosphorous acid, tribenzyl ester;Tris(phenylmethyl) phosphite;Tribenzyl phosphite",
    "duplicated_cas_no": "",
    "SMILES": "P(OCC1=CC=CC=C1)(OCC2=CC=CC=C2)OCC3=CC=CC=C3",
    "meta_data": {
        "InChI": "InChI=1S/C21H21O3P/c1-4-10-19(11-5-1)16-22-25(23-17-20-12-6-2-7-13-20)24-18-21-14-8-3-9-15-21/h1-15H,16-18H2",
        "InChIKey": null,
        "Canonical SMILES": "O(P(OCC=1C=CC=CC1)OCC=2C=CC=CC2)CC=3C=CC=CC3",
        "Molecular Formula": "C<sub>21</sub>H<sub>21</sub>O<sub>3</sub>P",
        "Molecular Mass": "352.36",
        "Boiling Point": "180-195 °C @ Press: 0.05 Torr",
        "Melting Point": "52 °C"
    }
}