{
    "cas_no": "961-07-9",
    "key_name": "Deoxyguanosine",
    "cn_name": null,
    "alternate_name": "Guanosine, 2′-deoxy-;2′-Deoxyguanosine;Deoxyguanosine;Guanine, 9-(2-deoxy-β-<span class=\"text-smallcaps\">D</span>-<em>erythro</em>-pentofuranosyl)-;Guanine deoxyriboside;NSC 22837;9-(2-Deoxy-β-<span class=\"text-smallcaps\">D</span>-<em>erythro</em>-pentofuranosyl)guanine;212: PN: WO2012148497 TABLE: 6 claimed sequence;13: PN: CN104513856 PAGE: 2 claimed sequence;2′-Deoxyguanine;4: PN: WO2022090733 SEQID: 576 claimed sequence;59: PN: WO2022263569 PAGE: 208 claimed sequence;11: PN: EP4155418 SEQID: 65 claimed sequence;6: PN: US20230098408 SEQID: 65 claimed sequence;MeSH ID: D003849;1: PN: WO2024041641 PAGE: 23 claimed sequence",
    "duplicated_cas_no": "961-06-8;6949-74-2",
    "SMILES": "O=C1C2=C(N(C=N2)[C@@H]3O[C@H](CO)[C@@H](O)C3)NC(N)=N1",
    "meta_data": {
        "InChI": "InChI=1S/C10H13N5O4/c11-10-13-8-7(9(18)14-10)12-3-15(8)6-1-4(17)5(2-16)19-6/h3-6,16-17H,1-2H2,(H3,11,13,14,18)/t4-,5+,6+/m0/s1",
        "InChIKey": null,
        "Canonical SMILES": "O=C1N=C(N)NC2=C1N=CN2C3OC(CO)C(O)C3",
        "Molecular Formula": "C<sub>10</sub>H<sub>13</sub>N<sub>5</sub>O<sub>4</sub>",
        "Molecular Mass": "267.24",
        "Melting Point": "250 °C"
    }
}