{
    "cas_no": "1795-48-8",
    "key_name": "Isopropyl isocyanate",
    "cn_name": "异氰酸异丙酯;",
    "alternate_name": "Propane, 2-isocyanato-;Isocyanic acid, isopropyl ester;2-Isocyanatopropane;Isopropyl isocyanate;1-Methylethyl isocyanate;<em>n</em>-Isopropyl isocyanate;Propan-2-yl isocyanate;Methyl ethyl isocyanate",
    "duplicated_cas_no": "",
    "SMILES": "N(C(C)C)=C=O",
    "meta_data": {
        "InChI": "InChI=1S/C4H7NO/c1-4(2)5-3-6/h4H,1-2H3",
        "InChIKey": null,
        "Canonical SMILES": "O=C=NC(C)C",
        "Molecular Formula": "C<sub>4</sub>H<sub>7</sub>NO",
        "Molecular Mass": "85.10",
        "Boiling Point": "74.5 °C"
    }
}