{
    "cas_no": "879-39-0",
    "key_name": "1,2,3,4-Tetrachloro-5-nitrobenzene",
    "cn_name": "2,3,4,5-四氯硝基苯;",
    "alternate_name": "Benzene, 1,2,3,4-tetrachloro-5-nitro-;1,2,3,4-Tetrachloro-5-nitrobenzene;2,3,4,5-Tetrachloro-1-nitrobenzene;1-Nitro-2,3,4,5-tetrachlorobenzene;NSC 5577;NSC 57752",
    "duplicated_cas_no": "",
    "SMILES": "N(=O)(=O)C1=C(Cl)C(Cl)=C(Cl)C(Cl)=C1",
    "meta_data": {
        "InChI": "InChI=1S/C6HCl4NO2/c7-2-1-3(11(12)13)5(9)6(10)4(2)8/h1H",
        "InChIKey": null,
        "Canonical SMILES": "O=N(=O)C1=CC(Cl)=C(Cl)C(Cl)=C1Cl",
        "Molecular Formula": "C<sub>6</sub>HCl<sub>4</sub>NO<sub>2</sub>",
        "Molecular Mass": "260.89",
        "Melting Point": "65-66 °C"
    }
}