{
    "cas_no": "2398-81-4",
    "key_name": "Nicotinic acid <em>N</em>-oxide",
    "cn_name": "氧烟酸;N-氧烟酸;",
    "alternate_name": "3-Pyridinecarboxylic acid, 1-oxide;Nicotinic acid, 1-oxide;Nicotinic acid <em>N</em>-oxide;<em>N</em>-Hydroxynicotinic acid;Pyridine-3-carboxylic acid <em>N</em>-oxide;Oxiniacic acid;Nicotinic acid oxide;3-Carboxypyridine <em>N</em>-oxide;3-Pyridinecarboxylic acid oxide;NSC 93890;3-Carboxypyridine 1-oxide;1-Oxidopyridin-1-ium-3-carboxylic acid;3-Carboxypyridin-1-ium-1-olate",
    "duplicated_cas_no": "2758-22-7",
    "SMILES": "C(O)(=O)C1=CN(=O)=CC=C1",
    "meta_data": {
        "InChI": "InChI=1S/C6H5NO3/c8-6(9)5-2-1-3-7(10)4-5/h1-4H,(H,8,9)",
        "InChIKey": null,
        "Canonical SMILES": "O=C(O)C1=CC=CN(=O)=C1",
        "Molecular Formula": "C<sub>6</sub>H<sub>5</sub>NO<sub>3</sub>",
        "Molecular Mass": "139.11",
        "Melting Point": "254.5 °C (decomp)"
    }
}