{
    "cas_no": "515-94-6",
    "key_name": "2,3-Diaminopropionic acid",
    "cn_name": "2,3-二氨基丙酸;",
    "alternate_name": "Alanine, 3-amino-;Propionic acid, 2,3-diamino-;3-Aminoalanine;2,3-Diaminopropanoic acid;α,β-Diaminopropionic acid;2,3-Diaminopropionic acid;β-Alanine, 2-amino-;β-Aminoalanine;Propanoic acid, 2,3-diamino-;2-Amino-β-alanine;<span class=\"text-smallcaps\">DL</span>-α,β-Diaminopropionic acid;<span class=\"text-smallcaps\">DL</span>-2,3-Diaminopropanoic acid;<span class=\"text-smallcaps\">DL</span>-3-Aminoalanine;(<em>RS</em>)-2,3-Diaminopropionic acid;(±)-2,3-Diaminopropionic acid;<span class=\"text-smallcaps\">D</smallcap><smallcap>L</span>-2,3-Diaminopropionic acid;3-Amino-<span class=\"text-smallcaps\">DL</span>-alanine",
    "duplicated_cas_no": "6018-54-8",
    "SMILES": "C(C(O)=O)(CN)N",
    "meta_data": {
        "InChI": "InChI=1S/C3H8N2O2/c4-1-2(5)3(6)7/h2H,1,4-5H2,(H,6,7)",
        "InChIKey": null,
        "Canonical SMILES": "O=C(O)C(N)CN",
        "Molecular Formula": "C<sub>3</sub>H<sub>8</sub>N<sub>2</sub>O<sub>2</sub>",
        "Molecular Mass": "104.11",
        "Melting Point": "243-245 °C (decomp)"
    }
}