{
    "cas_no": "3855-32-1",
    "key_name": "<em>N</em><sup>1</sup>-[3-(Dimethylamino)propyl]-<em>N</em><sup>1</sup>,<em>N</em><sup>3</sup>,<em>N</em><sup>3</sup>-trimethyl-1,3-propanediamine",
    "cn_name": "五甲基二丙烯三胺;N,N,N\",N\"\",N\"\"-五甲基二丙烯三胺;N-[3-(二甲氨基)丙基]-N,N\",N\"-三甲基-1,3丙二胺;",
    "alternate_name": "1,3-Propanediamine, <em>N</em><sup>1</sup>-[3-(dimethylamino)propyl]-<em>N</em><sup>1</sup>,<em>N</em><sup>3</sup>,<em>N</em><sup>3</sup>-trimethyl-;Dipropylamine, 3,3′-bis(dimethylamino)-<em>N</em>-methyl-;1,3-Propanediamine, <em>N</em>-[3-(dimethylamino)propyl]-<em>N</em>,<em>N</em>′,<em>N</em>′-trimethyl-;<em>N</em><sup>1</sup>-[3-(Dimethylamino)propyl]-<em>N</em><sup>1</sup>,<em>N</em><sup>3</sup>,<em>N</em><sup>3</sup>-trimethyl-1,3-propanediamine;Polycat 77;<em>N</em>,<em>N</em>,<em>N</em>′,<em>N</em>′′,<em>N</em>′′-Pentamethyldipropylenetriamine;<em>N</em>,<em>N</em>,<em>N</em>′,<em>N</em>′,<em>N</em>′′-Pentamethyliminobis(propylamine);2,6,10-Trimethyl-2,6,10-triazaundecane;<em>N</em>,<em>N</em>,<em>N</em>′,<em>N</em>′′,<em>N</em>′′-Pentamethyldi-1,3-propylenetriamine;3,3′-Bis(dimethylaminopropyl)methylamine;Pentamethyliminobispropylamine;<em>N</em>,<em>N</em>,<em>N</em>′,<em>N</em>′,<em>N</em>′-Pentamethyldipropylenetriamine;NSC 123346;<em>N</em>-[3-(Dimethylamino)propyl]-<em>N</em>,<em>N</em>′,<em>N</em>′-trimethyl-1,3-propanediamine;3,3′-Bis(dimethylamino)-<em>N</em>-methyldipropylamine;<em>N</em>-Methyl-<em>N</em>,<em>N</em>-bis(3-dimethylaminopropyl)amine;Jeffcat ZR 40",
    "duplicated_cas_no": "89126-78-3;880874-60-2",
    "SMILES": "N(CCCN(C)C)(CCCN(C)C)C",
    "meta_data": {
        "InChI": "InChI=1S/C11H27N3/c1-12(2)8-6-10-14(5)11-7-9-13(3)4/h6-11H2,1-5H3",
        "InChIKey": null,
        "Canonical SMILES": "N(C)(C)CCCN(C)CCCN(C)C",
        "Molecular Formula": "C<sub>11</sub>H<sub>27</sub>N<sub>3</sub>",
        "Molecular Mass": "201.35",
        "Boiling Point": "100-102 °C @ Press: 11 Torr"
    }
}