{
    "cas_no": "15760-36-8",
    "key_name": "3-Methylenecyclobutanecarboxylic acid",
    "cn_name": null,
    "alternate_name": "Cyclobutanecarboxylic acid, 3-methylene-;3-Methylenecyclobutanecarboxylic acid;3-Methylenecyclobutylcarboxylic acid;3-Methylidenecyclobutanecarboxylic acid;3-(Methylene)cyclobutane-1-carboxylic acid;3-Methylidenecyclobutane-1-carboxylic acid;Acetic acid, 2-(3-methylenecyclobutylidene)-",
    "duplicated_cas_no": "2763787-05-7",
    "SMILES": "C(O)(=O)C1CC(=C)C1",
    "meta_data": {
        "InChI": "InChI=1S/C6H8O2/c1-4-2-5(3-4)6(7)8/h5H,1-3H2,(H,7,8)",
        "InChIKey": null,
        "Canonical SMILES": "O=C(O)C1CC(=C)C1",
        "Molecular Formula": "C<sub>6</sub>H<sub>8</sub>O<sub>2</sub>",
        "Molecular Mass": "112.13",
        "Boiling Point": "102.5-103 °C @ Press: 11 Torr"
    }
}