{
    "cas_no": "23964-57-0",
    "key_name": "Articaine hydrochloride",
    "cn_name": "盐酸阿替卡因;4-甲基-3-(2-丙氨基丙酰基氨基)-2-噻吩羧酸甲酯盐酸盐;",
    "alternate_name": "2-Thiophenecarboxylic acid, 4-methyl-3-[[1-oxo-2-(propylamino)propyl]amino]-, methyl ester, hydrochloride (1:1);2-Thiophenecarboxylic acid, 4-methyl-3-[2-(propylamino)propionamido]-, methyl ester, monohydrochloride;2-Thiophenecarboxylic acid, 4-methyl-3-[[1-oxo-2-(propylamino)propyl]amino]-, methyl ester, monohydrochloride;Methyl 4-methyl-3-[[1-oxo-2-(propylamino)propyl]amino]-2-thiophenecarboxylate hydrochloride;Carticaine hydrochloride;Ultracaine;Ultracain;HOE 045;Carticain;Articaine hydrochloride;Septanest;HOE 40045;Ultacain;Carticaine chlorhydrate;Ubistesine;Articadent Dental",
    "duplicated_cas_no": "",
    "SMILES": "N(C(C(NCCC)C)=O)C1=C(C(OC)=O)SC=C1C.Cl",
    "meta_data": {
        "InChI": "InChI=1S/C13H20N2O3S.ClH/c1-5-6-14-9(3)12(16)15-10-8(2)7-19-11(10)13(17)18-4;/h7,9,14H,5-6H2,1-4H3,(H,15,16);1H",
        "InChIKey": null,
        "Canonical SMILES": "Cl.O=C(OC)C=1SC=C(C1NC(=O)C(NCCC)C)C",
        "Molecular Formula": "C<sub>13</sub>H<sub>20</sub>N<sub>2</sub>O<sub>3</sub>S.ClH",
        "Molecular Mass": "",
        "Melting Point": "177-178 °C"
    }
}