{
    "cas_no": "78712-43-3",
    "key_name": "Ozagrel hydrochloride",
    "cn_name": "盐酸奥扎格雷;反式-3-[4-(1H-咪唑-1-甲基)苯基]-2-丙烯酸盐酸盐;",
    "alternate_name": "2-Propenoic acid, 3-[4-(1<em>H</em>-imidazol-1-ylmethyl)phenyl]-, hydrochloride (1:1), (2<em>E</em>)-;2-Propenoic acid, 3-[4-(1<em>H</em>-imidazol-1-ylmethyl)phenyl]-, monohydrochloride, (<em>E</em>)-;2-Propenoic acid, 3-[4-(1<em>H</em>-imidazol-1-ylmethyl)phenyl]-, monohydrochloride, (2<em>E</em>)-;OKY 046;Ozagrel hydrochloride;Xanbon",
    "duplicated_cas_no": "74003-18-2",
    "SMILES": "C(C1=CC=C(/C=C/C(O)=O)C=C1)N2C=CN=C2.Cl",
    "meta_data": {
        "InChI": "InChI=1S/C13H12N2O2.ClH/c16-13(17)6-5-11-1-3-12(4-2-11)9-15-8-7-14-10-15;/h1-8,10H,9H2,(H,16,17);1H/b6-5+;",
        "InChIKey": null,
        "Canonical SMILES": "Cl.O=C(O)C=CC1=CC=C(C=C1)CN2C=NC=C2",
        "Molecular Formula": "C<sub>13</sub>H<sub>12</sub>N<sub>2</sub>O<sub>2</sub>.ClH",
        "Molecular Mass": "",
        "Melting Point": "214-217 °C"
    }
}