{
    "cas_no": "2222-33-5",
    "key_name": "Dibenzo[<em>a</em>,<em>d</em>]cyclohepten-5-one",
    "cn_name": "5-二苯并环庚烯酮;二苯并[a,d]环庚烯-5-酮;",
    "alternate_name": "5<em>H</em>-Dibenzo[<em>a</em>,<em>d</em>]cyclohepten-5-one;2,3:6,7-Dibenzotropone;Dibenzo[<em>a</em>,<em>d</em>]cyclohepten-5-one;5<em>H</em>-Dibenzo[<em>a</em>,<em>d</em>]cycloheptenone;Dibenzosuberenone;5-Dibenzosuberenone;NSC 86151;Didehydrodibenzosuberone",
    "duplicated_cas_no": "",
    "SMILES": "O=C1C=2C(C=CC=3C1=CC=CC3)=CC=CC2",
    "meta_data": {
        "InChI": "InChI=1S/C15H10O/c16-15-13-7-3-1-5-11(13)9-10-12-6-2-4-8-14(12)15/h1-10H",
        "InChIKey": null,
        "Canonical SMILES": "O=C1C=2C=CC=CC2C=CC=3C=CC=CC31",
        "Molecular Formula": "C<sub>15</sub>H<sub>10</sub>O",
        "Molecular Mass": "206.24",
        "Boiling Point": "220 °C @ Press: 8 Torr",
        "Melting Point": "88.4-89.2 °C"
    }
}