{
    "cas_no": "14101-04-3",
    "key_name": "Frangulin B",
    "cn_name": null,
    "alternate_name": "9,10-Anthracenedione, 3-(<span class=\"text-smallcaps\">D</smallcap>-apio-β-<smallcap>D</span>-furanosyloxy)-1,8-dihydroxy-6-methyl-;Frangulin B;3-(<span class=\"text-smallcaps\">D</smallcap>-Apio-β-<smallcap>D</span>-furanosyloxy)-1,8-dihydroxy-6-methyl-9,10-anthracenedione",
    "duplicated_cas_no": "",
    "SMILES": "O=C1C=2C(C(=O)C=3C1=CC(C)=CC3O)=C(O)C=C(OC4C(O)C(CO)(O)CO4)C2",
    "meta_data": {
        "InChI": "InChI=1S/C20H18O9/c1-8-2-10-14(12(22)3-8)17(25)15-11(16(10)24)4-9(5-13(15)23)29-19-18(26)20(27,6-21)7-28-19/h2-5,18-19,21-23,26-27H,6-7H2,1H3",
        "InChIKey": null,
        "Canonical SMILES": "O=C1C2=CC(OC3OCC(O)(CO)C3O)=CC(O)=C2C(=O)C4=C(O)C=C(C=C14)C",
        "Molecular Formula": "C<sub>20</sub>H<sub>18</sub>O<sub>9</sub>",
        "Molecular Mass": "402.35",
        "Melting Point": "196 °C"
    }
}