{
    "cas_no": "4640-67-9",
    "key_name": "4-Fluoro-β-oxobenzenepropanenitrile",
    "cn_name": "4-氟苯甲酰基乙腈;",
    "alternate_name": "Benzenepropanenitrile, 4-fluoro-β-oxo-;Acetonitrile, (<em>p</em>-fluorobenzoyl)-;4-Fluoro-β-oxobenzenepropanenitrile;<em>p</em>-Fluorobenzoylacetonitrile;4-Fluorobenzoylacetonitrile;3-(4-Fluorophenyl)-3-oxopropanenitrile;3-(4-Fluorophenyl)-3-oxopropionitrile;3-Oxo-3-(4-fluorophenyl)propanenitrile;α-Cyano-4-fluoroacetophenone",
    "duplicated_cas_no": "",
    "SMILES": "C(CC#N)(=O)C1=CC=C(F)C=C1",
    "meta_data": {
        "InChI": "InChI=1S/C9H6FNO/c10-8-3-1-7(2-4-8)9(12)5-6-11/h1-4H,5H2",
        "InChIKey": null,
        "Canonical SMILES": "N#CCC(=O)C1=CC=C(F)C=C1",
        "Molecular Formula": "C<sub>9</sub>H<sub>6</sub>FNO",
        "Molecular Mass": "163.15",
        "Melting Point": "77-78 °C"
    }
}