{
    "cas_no": "13294-71-8",
    "key_name": "2-Bromo-2-butene",
    "cn_name": null,
    "alternate_name": "2-Butene, 2-bromo-;2-Bromo-2-butene",
    "duplicated_cas_no": "",
    "SMILES": "C(=CC)(Br)C",
    "meta_data": {
        "InChI": "InChI=1S/C4H7Br/c1-3-4(2)5/h3H,1-2H3",
        "InChIKey": null,
        "Canonical SMILES": "BrC(=CC)C",
        "Molecular Formula": "C<sub>4</sub>H<sub>7</sub>Br",
        "Molecular Mass": "135.00",
        "Boiling Point": "95 °C",
        "Melting Point": "-114.65 °C",
        "Density": "1.320 g/cm³ @ Temp: 23 °C"
    }
}