{
    "cas_no": "1713-15-1",
    "key_name": "2,4-D Isobutyl ester",
    "cn_name": "2,4-滴异丁酯;2,4-二氯苯氧乙酸异丁酯;",
    "alternate_name": "Acetic acid, 2-(2,4-dichlorophenoxy)-, 2-methylpropyl ester;Acetic acid, (2,4-dichlorophenoxy)-, isobutyl ester;Acetic acid, (2,4-dichlorophenoxy)-, 2-methylpropyl ester;Isobutyl 2,4-dichlorophenoxyacetate;2,4-Dichlorophenoxyacetic acid isobutyl ester;Isobutyl 2,4-D;2,4-D Isobutyl ester;NSC 409768",
    "duplicated_cas_no": "",
    "SMILES": "O(CC(OCC(C)C)=O)C1=C(Cl)C=C(Cl)C=C1",
    "meta_data": {
        "InChI": "InChI=1S/C12H14Cl2O3/c1-8(2)6-17-12(15)7-16-11-4-3-9(13)5-10(11)14/h3-5,8H,6-7H2,1-2H3",
        "InChIKey": null,
        "Canonical SMILES": "O=C(OCC(C)C)COC1=CC=C(Cl)C=C1Cl",
        "Molecular Formula": "C<sub>12</sub>H<sub>14</sub>Cl<sub>2</sub>O<sub>3</sub>",
        "Molecular Mass": "277.14",
        "Boiling Point": "133-134 °C @ Press: 1 Torr"
    }
}