{
    "cas_no": "8003-22-3",
    "key_name": "Solvent Yellow 33",
    "cn_name": null,
    "alternate_name": "C.I. Solvent Yellow 33;C.I. 47000;Chinoline Yellow D Sol.in Spirits;Chinoline Yellow ZSS;Nitro Fast Yellow SL;Oil Yellow SIS;Petrol Yellow C;Quinoline Yellow Base;Quinoline Yellow Spirit Soluble;Quinoline Yellow A Spirit Soluble;Waxoline Yellow T;Arlosol Yellow S;D and C Yellow No. 11;Quinoline Yellow SS;Solvent Yellow 33;D&amp;C Yellow No. 11;Japan Yellow 204;Japan Yellow No. 204;1,3-Isobenzofurandione, reaction products with dimethylquinoline and methylquinoline;Kayaset Yellow 2G;Polysolve Yellow 33G;Oplas Yellow 136;D &amp; C Yellow 11;Yellow 11;KP Plast Yellow 2G;Sumiplast Olive MR;Yellow No. 204;Plast Yellow 8005;CI 47000;Sol. Yellow 33",
    "duplicated_cas_no": "8002-87-7;2953255-49-5",
    "SMILES": "",
    "meta_data": {
        "InChI": "",
        "InChIKey": null,
        "Canonical SMILES": "",
        "Molecular Formula": "Unspecified",
        "Molecular Mass": "",
        "Melting Point": "241 °C"
    }
}