{
    "cas_no": "837-18-3",
    "key_name": "<em>N</em>-(Phenylmethyl)benzenesulfonamide",
    "cn_name": null,
    "alternate_name": "Benzenesulfonamide, <em>N</em>-(phenylmethyl)-;Benzenesulfonamide, <em>N</em>-benzyl-;<em>N</em>-(Phenylmethyl)benzenesulfonamide;<em>N</em>-Benzylbenzenesulfonamide;NSC 25016;<em>N</em>-Benzenesulfonyl-<em>N</em>-benzylamine;AZVIII 44D",
    "duplicated_cas_no": "",
    "SMILES": "S(NCC1=CC=CC=C1)(=O)(=O)C2=CC=CC=C2",
    "meta_data": {
        "InChI": "InChI=1S/C13H13NO2S/c15-17(16,13-9-5-2-6-10-13)14-11-12-7-3-1-4-8-12/h1-10,14H,11H2",
        "InChIKey": null,
        "Canonical SMILES": "O=S(=O)(NCC=1C=CC=CC1)C=2C=CC=CC2",
        "Molecular Formula": "C<sub>13</sub>H<sub>13</sub>NO<sub>2</sub>S",
        "Molecular Mass": "247.31",
        "Melting Point": "85-86 °C"
    }
}