{
    "cas_no": "14885-29-1",
    "key_name": "Ipronidazole",
    "cn_name": null,
    "alternate_name": "1<em>H</em>-Imidazole, 1-methyl-2-(1-methylethyl)-5-nitro-;Imidazole, 2-isopropyl-1-methyl-5-nitro-;1-Methyl-2-(1-methylethyl)-5-nitro-1<em>H</em>-imidazole;Ipronidazole;1-Methyl-2-isopropyl-5-nitroimidazole;Ipropran;2-Isopropyl-1-methyl-5-nitroimidazole;Ro 07-1554;NSC 109212;1-Methyl-5-nitro-2-propan-2-ylimidazole;1-Methyl-5-nitro-2-(propan-2-yl)-1<em>H</em>-imidazole",
    "duplicated_cas_no": "",
    "SMILES": "C(C)(C)C=1N(C)C(N(=O)=O)=CN1",
    "meta_data": {
        "InChI": "InChI=1S/C7H11N3O2/c1-5(2)7-8-4-6(9(7)3)10(11)12/h4-5H,1-3H3",
        "InChIKey": null,
        "Canonical SMILES": "O=N(=O)C1=CN=C(N1C)C(C)C",
        "Molecular Formula": "C<sub>7</sub>H<sub>11</sub>N<sub>3</sub>O<sub>2</sub>",
        "Molecular Mass": "169.18",
        "Melting Point": "60 °C"
    }
}