{
    "cas_no": "6621-59-6",
    "key_name": "6-Bromohexanenitrile",
    "cn_name": "6-溴己腈;6-溴己腈;",
    "alternate_name": "Hexanenitrile, 6-bromo-;6-Bromohexanenitrile;5-Bromopentyl cyanide;6-Bromohexanonitrile;6-Bromocapronitrile;NSC 59712",
    "duplicated_cas_no": "",
    "SMILES": "C(CCC#N)CCBr",
    "meta_data": {
        "InChI": "InChI=1S/C6H10BrN/c7-5-3-1-2-4-6-8/h1-5H2",
        "InChIKey": null,
        "Canonical SMILES": "N#CCCCCCBr",
        "Molecular Formula": "C<sub>6</sub>H<sub>10</sub>BrN",
        "Molecular Mass": "176.05",
        "Boiling Point": "134.4 °C @ Press: 15 Torr",
        "Density": "1.328 g/cm³ @ Temp: 24 °C"
    }
}