{
    "cas_no": "554-00-7",
    "key_name": "2,4-Dichloroaniline",
    "cn_name": "2,4-二氯苯胺;",
    "alternate_name": "Benzenamine, 2,4-dichloro-;Aniline, 2,4-dichloro-;2,4-Dichlorobenzenamine;2,4-Dichloroaniline;<em>o</em>,<em>p</em>-Dichloroaniline;2,4-Dichlorophenylamine;NSC 8756",
    "duplicated_cas_no": "",
    "SMILES": "ClC1=C(N)C=CC(Cl)=C1",
    "meta_data": {
        "InChI": "InChI=1S/C6H5Cl2N/c7-4-1-2-6(9)5(8)3-4/h1-3H,9H2",
        "InChIKey": null,
        "Canonical SMILES": "ClC1=CC=C(N)C(Cl)=C1",
        "Molecular Formula": "C<sub>6</sub>H<sub>5</sub>Cl<sub>2</sub>N",
        "Molecular Mass": "162.02",
        "Boiling Point": "245 °C @ Press: 760 Torr",
        "Melting Point": "63-64 °C",
        "Density": "1.567 g/cm³ @ Temp: 20 °C"
    }
}