{
    "cas_no": "77-60-1",
    "key_name": "Tigogenin",
    "cn_name": "剑麻皂苷元;剑麻皂甙元;剑麻皂素;",
    "alternate_name": "Spirostan-3-ol, (3β,5α,25<em>R</em>)-;Tigogenin;5α-Spirostan-3β-ol, (25<em>R</em>)-;5α-Spirostan-3β-ol;(3β,5α,25<em>R</em>)-Spirostan-3-ol;(25<em>R</em>)-5α-Spirostan-3β-ol;Ticogenin;NSC 93754",
    "duplicated_cas_no": "100083-79-2",
    "SMILES": "C[C@@H]1[C@]2(O[C@@]3([C@]1([C@]4(C)[C@@](C3)([C@]5([C@](CC4)([C@]6(C)[C@@](CC5)(C[C@@H](O)CC6)[H])[H])[H])[H])[H])[H])CC[C@@H](C)CO2",
    "meta_data": {
        "InChI": "InChI=1S/C27H44O3/c1-16-7-12-27(29-15-16)17(2)24-23(30-27)14-22-20-6-5-18-13-19(28)8-10-25(18,3)21(20)9-11-26(22,24)4/h16-24,28H,5-15H2,1-4H3/t16-,17+,18+,19+,20-,21+,22+,23+,24+,25+,26+,27-/m1/s1",
        "InChIKey": null,
        "Canonical SMILES": "OC1CCC2(C)C(CCC3C2CCC4(C)C3CC5OC6(OCC(C)CC6)C(C)C54)C1",
        "Molecular Formula": "C<sub>27</sub>H<sub>44</sub>O<sub>3</sub>",
        "Molecular Mass": "416.64",
        "Melting Point": "205.5 °C"
    }
}