{
    "cas_no": "19342-01-9",
    "key_name": "(α<em>R</em>)-<em>N</em>,<em>N</em>,α-Trimethylbenzenemethanamine",
    "cn_name": null,
    "alternate_name": "Benzenemethanamine, <em>N</em>,<em>N</em>,α-trimethyl-, (α<em>R</em>)-;Benzylamine, <em>N</em>,<em>N</em>,α-trimethyl-, <span class=\"text-smallcaps\">L</span>-(+)-;Benzenemethanamine, <em>N</em>,<em>N</em>,α-trimethyl-, (<em>R</em>)-;(α<em>R</em>)-<em>N</em>,<em>N</em>,α-Trimethylbenzenemethanamine;(<em>R</em>)-(+)-<em>N</em>,<em>N</em>-Dimethyl-1-phenylethylamine;(+)-<em>N</em>,<em>N</em>-Dimethyl-α-methylbenzylamine;(+)-(<em>R</em>)-<em>N</em>,<em>N</em>-Dimethyl-α-phenylethylamine;(+)-<em>N</em>,<em>N</em>,α-Trimethylbenzylamine;(<em>R</em>)-α-Methylbenzyldimethylamine;(<em>R</em>)-<em>N</em>,<em>N</em>-Dimethyl-1-phenylethylamine;(<em>R</em>)-Dimethyl(1-phenylethyl)amine;(<em>R</em>)-[1-(Dimethylamino)ethyl]benzene;(R)-(+)-<em>N</em>,<em>N</em>-Dimethyl-1-phenylethylamine;(1R)-<em>N</em>,<em>N</em>-Dimethyl-1-phenylethanamine",
    "duplicated_cas_no": "",
    "SMILES": "[C@@H](N(C)C)(C)C1=CC=CC=C1",
    "meta_data": {
        "InChI": "InChI=1S/C10H15N/c1-9(11(2)3)10-7-5-4-6-8-10/h4-9H,1-3H3/t9-/m1/s1",
        "InChIKey": null,
        "Canonical SMILES": "C=1C=CC(=CC1)C(N(C)C)C",
        "Molecular Formula": "C<sub>10</sub>H<sub>15</sub>N",
        "Molecular Mass": "149.23",
        "Boiling Point": "78-78.5 °C @ Press: 15 Torr",
        "Density": "0.9027 g/cm³ @ Temp: 20 °C"
    }
}