{
    "cas_no": "15721-02-5",
    "key_name": "2,2′,5,5′-Tetrachlorobenzidine",
    "cn_name": "2,2\",5,5\"-四氯二苯胺;TCB;",
    "alternate_name": "[1,1′-Biphenyl]-4,4′-diamine, 2,2′,5,5′-tetrachloro-;Benzidine, 2,2′,5,5′-tetrachloro-;2,2′,5,5′-Tetrachloro[1,1′-biphenyl]-4,4′-diamine;2,2′,5,5′-Tetrachlorobenzidine;3,3′,6,6′-Tetrachlorobenzidine;4,4′-Diamino-2,2′,5,5′-tetrachlorobiphenyl;Tetradine;2,2′,5,5′-Tetrachlorobiphenyl-4,4′-diamine",
    "duplicated_cas_no": "",
    "SMILES": "ClC1=C(C=C(Cl)C(N)=C1)C2=C(Cl)C=C(N)C(Cl)=C2",
    "meta_data": {
        "InChI": "InChI=1S/C12H8Cl4N2/c13-7-3-11(17)9(15)1-5(7)6-2-10(16)12(18)4-8(6)14/h1-4H,17-18H2",
        "InChIKey": null,
        "Canonical SMILES": "ClC=1C=C(C(Cl)=CC1N)C=2C=C(Cl)C(N)=CC2Cl",
        "Molecular Formula": "C<sub>12</sub>H<sub>8</sub>Cl<sub>4</sub>N<sub>2</sub>",
        "Molecular Mass": "322.02",
        "Melting Point": "135 °C"
    }
}