{
    "cas_no": "6967-29-9",
    "key_name": "2-Chloro-<em>N</em>-(2,6-diethylphenyl)acetamide",
    "cn_name": "N-氯乙酰-2,6-二乙基苯胺;",
    "alternate_name": "Acetamide, 2-chloro-<em>N</em>-(2,6-diethylphenyl)-;Acetanilide, 2-chloro-2′,6′-diethyl-;2-Chloro-<em>N</em>-(2,6-diethylphenyl)acetamide;2-Chloro-2′,6′-diethylacetanilide;2′,6′-Diethyl-2-chloroacetanilide;2′,6′-Diethylchloroacetanilide;ω-Chloro-2′,6′-diethylacetanilide;NSC 68291;<em>N</em>-(2,6-Diethylphenyl)chloroacetamide;<em>N</em>-(2,6-Diethylphenyl)-2-chloroacetamide",
    "duplicated_cas_no": "",
    "SMILES": "N(C(CCl)=O)C1=C(CC)C=CC=C1CC",
    "meta_data": {
        "InChI": "InChI=1S/C12H16ClNO/c1-3-9-6-5-7-10(4-2)12(9)14-11(15)8-13/h5-7H,3-4,8H2,1-2H3,(H,14,15)",
        "InChIKey": null,
        "Canonical SMILES": "O=C(NC=1C(=CC=CC1CC)CC)CCl",
        "Molecular Formula": "C<sub>12</sub>H<sub>16</sub>ClNO",
        "Molecular Mass": "225.71",
        "Melting Point": "125-128 °C"
    }
}