{
    "cas_no": "7487-88-9",
    "key_name": "Sulfuric acid magnesium salt (1:1)",
    "cn_name": "硫酸镁;",
    "alternate_name": "Sulfuric acid magnesium salt (1:1);Magnesium sulfate (1:1);Magnesium sulfate;Sulfuric acid magnesium salt;Epsom salts;Epsom salt;Magnesium sulphate;Tomix OT;OT-S;OT-S (drying agent);Mg-OK;MN 00;MG-OK 100;Sulfuric acid, magnesium salt (1:1);MN 30;Arrosalt 2327;SN 00;M-HOS;Magnesii sulfas;TC-P;MG 3K;Epso Top;WS 1S;NP-YW 1;USN 00;MN 70;SSN 00;MG-N;Sunmate;MeSH ID: D008278",
    "duplicated_cas_no": "139939-75-6;849607-35-8",
    "SMILES": "S(=O)(=O)(O)O.[Mg]",
    "meta_data": {
        "InChI": "InChI=1S/Mg.H2O4S/c;1-5(2,3)4/h;(H2,1,2,3,4)",
        "InChIKey": null,
        "Canonical SMILES": "[Mg].O=S(=O)(O)O",
        "Molecular Formula": "H<sub>2</sub>O<sub>4</sub>S.Mg",
        "Molecular Mass": "",
        "Melting Point": "1124 °C (decomp)",
        "Density": "2.66 g/cm³"
    }
}