{
    "cas_no": "1632-16-2",
    "key_name": "2-Ethyl-1-hexene",
    "cn_name": null,
    "alternate_name": "Heptane, 3-methylene-;1-Hexene, 2-ethyl-;3-Methyleneheptane;2-Ethyl-1-hexene;2-Ethylhexene;NSC 19874;3-Methylideneheptane",
    "duplicated_cas_no": "",
    "SMILES": "C(CCCC)(CC)=C",
    "meta_data": {
        "InChI": "InChI=1S/C8H16/c1-4-6-7-8(3)5-2/h3-7H2,1-2H3",
        "InChIKey": null,
        "Canonical SMILES": "C=C(CC)CCCC",
        "Molecular Formula": "C<sub>8</sub>H<sub>16</sub>",
        "Molecular Mass": "112.21",
        "Boiling Point": "120 °C",
        "Density": "0.7267 g/cm³ @ Temp: 20 °C"
    }
}