{
    "cas_no": "52-68-6",
    "key_name": "Chlorofos",
    "cn_name": "敌百虫;O,O-二甲基-(2,2,2-三氯-1-羟基乙基)磷酸酯;",
    "alternate_name": "Phosphonic acid, <em>P</em>-(2,2,2-trichloro-1-hydroxyethyl)-, dimethyl ester;Phosphonic acid, (2,2,2-trichloro-1-hydroxyethyl)-, dimethyl ester;ENT 19,763;Agroforotox;Chlorophos;<em>O</em>,<em>O</em>-Dimethyl (1-hydroxy-2,2,2-trichloroethyl)phosphonate;<em>O</em>,<em>O</em>-Dimethyl-1-oxy-2,2,2-trichloroethyl phosphonate;Dipterex;Dylox;Dyrex;Dyvon;Forotox;Methyl chlorophos;Metrifonate;Metriphonate;Neguvon;Phoschlor;Soldep;Trichlorfon;Trichlorphon;Tugon;Wotexit;Chlorofos;Ditrifon;Foschlor;DEP;Foschlor R;Foschlor R 50;WEC 50;<em>O</em>,<em>O</em>-Dimethyl (2,2,2-trichloro-1-hydroxyethyl)phosphonate;Polfoschlor;Flibol E;Dimethyl (2,2,2-trichloro-1-hydroxyethyl)phosphonate;Chloroxyphos;Votexit;Chlorophthalm;Ritsifon;Anthon;Combot;Fliegenteller;Trichlorphon FN;Sotipox;Chloroftalm;Dipterex 50;DETF;Loisol;Dimethyl 1-hydroxy-2,2,2-trichloroethylphosphonate;Mazoten;Volfartol;Masoten;Diptevur;Ricifon;DEP (pesticide);Hypodermacid;Dimetox;Aerol 1 (pesticide);Depthon;Satox 20WSC;Chlorak;Danex;Dioxaphos;Proxol;Dipterex SL;Onefon;Ditriphon 50;BAY-L 1359;(±)-Trichlorfon;Dipterex WP 80;BAY-a 9826;1-Hydroxy-2,2,2-trichloroethylphosphonate-<em>O</em>,<em>O</em>-dimethyl ester;Dipterex 500;NSC 8923;Promem;<em>O</em>,<em>O</em>-Dimethyl <em>O</em>-(1-hydroxy-2,2,2-trichloroethyl) phosphonate;Dibaichong;Bayer Advanced 24hr Grub control;Vulcano 420;MeSH ID: D014236",
    "duplicated_cas_no": "37333-09-8;50924-44-2;56042-25-2;66758-31-4;1081812-64-7",
    "SMILES": "C(P(OC)(OC)=O)(C(Cl)(Cl)Cl)O",
    "meta_data": {
        "InChI": "InChI=1S/C4H8Cl3O4P/c1-10-12(9,11-2)3(8)4(5,6)7/h3,8H,1-2H3",
        "InChIKey": null,
        "Canonical SMILES": "O=P(OC)(OC)C(O)C(Cl)(Cl)Cl",
        "Molecular Formula": "C<sub>4</sub>H<sub>8</sub>Cl<sub>3</sub>O<sub>4</sub>P",
        "Molecular Mass": "257.44",
        "Boiling Point": "100 °C @ Press: 1 Torr",
        "Melting Point": "83-84 °C",
        "Density": "1.73 g/cm³ @ Temp: 20 °C"
    }
}