{
    "cas_no": "32161-06-1",
    "key_name": "1-Acetyl-4-piperidone",
    "cn_name": null,
    "alternate_name": "4-Piperidinone, 1-acetyl-;4-Piperidone, 1-acetyl-;1-Acetyl-4-piperidinone;1-Acetyl-4-piperidone;1-Acetyl-4-oxopiperidine;<em>N</em>-Acetyl-4-piperidinone;<em>N</em>-Acetyl-4-piperidone",
    "duplicated_cas_no": "",
    "SMILES": "C(C)(=O)N1CCC(=O)CC1",
    "meta_data": {
        "InChI": "InChI=1S/C7H11NO2/c1-6(9)8-4-2-7(10)3-5-8/h2-5H2,1H3",
        "InChIKey": null,
        "Canonical SMILES": "O=C(N1CCC(=O)CC1)C",
        "Molecular Formula": "C<sub>7</sub>H<sub>11</sub>NO<sub>2</sub>",
        "Molecular Mass": "141.17",
        "Boiling Point": "218 °C",
        "Density": "1.144 g/cm³"
    }
}