{
    "cas_no": "20595-30-6",
    "key_name": "(2<em>E</em>)-3-(3-Fluorophenyl)-2-propenoic acid",
    "cn_name": null,
    "alternate_name": "2-Propenoic acid, 3-(3-fluorophenyl)-, (2<em>E</em>)-;Cinnamic acid, <em>m</em>-fluoro-, (<em>E</em>)-;2-Propenoic acid, 3-(3-fluorophenyl)-, (<em>E</em>)-;(2<em>E</em>)-3-(3-Fluorophenyl)-2-propenoic acid;<em>trans</em>-3-Fluorocinnamic acid;(<em>E</em>)-<em>m</em>-Fluorocinnamic acid;<em>trans</em>-3-(3-Fluorophenyl)-2-propenoic acid;(<em>E</em>)-3-Fluorocinnamic acid;(E)-3-Fluorocinnamic acid;(<em>E</em>)-3-(3-Fluorophenyl)acrylic acid",
    "duplicated_cas_no": "",
    "SMILES": "C(=C/C(O)=O)\\C1=CC(F)=CC=C1",
    "meta_data": {
        "InChI": "InChI=1S/C9H7FO2/c10-8-3-1-2-7(6-8)4-5-9(11)12/h1-6H,(H,11,12)/b5-4+",
        "InChIKey": null,
        "Canonical SMILES": "O=C(O)C=CC=1C=CC=C(F)C1",
        "Molecular Formula": "C<sub>9</sub>H<sub>7</sub>FO<sub>2</sub>",
        "Molecular Mass": "166.15",
        "Melting Point": "98-100 °C"
    }
}