{
    "cas_no": "5616-51-3",
    "key_name": "2-Methyl-1,3-dithiolane",
    "cn_name": "2-甲基-1,3-二硫环戊环;2-甲基-1,3-二硫戊环;",
    "alternate_name": "1,3-Dithiolane, 2-methyl-;2-Methyl-1,3-dithiolane;2-Methyl-1,3-dithiacyclopentane;NSC 227863;1,3-Dithia-2-methylcyclopentane",
    "duplicated_cas_no": "",
    "SMILES": "CC1SCCS1",
    "meta_data": {
        "InChI": "InChI=1S/C4H8S2/c1-4-5-2-3-6-4/h4H,2-3H2,1H3",
        "InChIKey": null,
        "Canonical SMILES": "S1CCSC1C",
        "Molecular Formula": "C<sub>4</sub>H<sub>8</sub>S<sub>2</sub>",
        "Molecular Mass": "120.24",
        "Boiling Point": "66-67 °C @ Press: 15 Torr",
        "Density": "1.1510 g/cm³ @ Temp: 20 °C"
    }
}