{
    "cas_no": "624-92-0",
    "key_name": "Dimethyl disulfide",
    "cn_name": "二甲基二硫;",
    "alternate_name": "Disulfide, dimethyl;Methyl disulfide;Dimethyl disulfide;2,3-Dithiabutane;(Methyldithio)methane;Dimethyl disulphide;Sulfa-Hitech;NSC 9370;DMDS;Paladin;1,2-Dimethyldisulfane;(Methyldisulfanyl)methane",
    "duplicated_cas_no": "",
    "SMILES": "S(SC)C",
    "meta_data": {
        "InChI": "InChI=1S/C2H6S2/c1-3-4-2/h1-2H3",
        "InChIKey": null,
        "Canonical SMILES": "S(SC)C",
        "Molecular Formula": "C<sub>2</sub>H<sub>6</sub>S<sub>2</sub>",
        "Molecular Mass": "94.20",
        "Boiling Point": "109.8 °C",
        "Melting Point": "-85 °C",
        "Density": "1.0625 g/cm³ @ Temp: 20 °C"
    }
}