{
    "cas_no": "2363-71-5",
    "key_name": "Heneicosanoic acid",
    "cn_name": null,
    "alternate_name": "Heneicosanoic acid;<em>n</em>-Heneicosanoic acid;Heneicosylic acid",
    "duplicated_cas_no": "",
    "SMILES": "C(CCCCCCCCCCCCC)CCCCCCC(O)=O",
    "meta_data": {
        "InChI": "InChI=1S/C21H42O2/c1-2-3-4-5-6-7-8-9-10-11-12-13-14-15-16-17-18-19-20-21(22)23/h2-20H2,1H3,(H,22,23)",
        "InChIKey": null,
        "Canonical SMILES": "O=C(O)CCCCCCCCCCCCCCCCCCCC",
        "Molecular Formula": "C<sub>21</sub>H<sub>42</sub>O<sub>2</sub>",
        "Molecular Mass": "326.56",
        "Boiling Point": "168-171 °C @ Press: 2 Torr",
        "Melting Point": "75-76 °C"
    }
}