{
    "cas_no": "863453-61-6",
    "key_name": "1,2,3-Oxathiazolidine-3-carboxylic acid, 5-methyl-, 1,1-dimethylethyl ester, 2,2-dioxide, (5<em>R</em>)-",
    "cn_name": null,
    "alternate_name": "1,2,3-Oxathiazolidine-3-carboxylic acid, 5-methyl-, 1,1-dimethylethyl ester, 2,2-dioxide, (5<em>R</em>)-;(r)-<em>tert</em>-Butyl 5-methyl-1,2,3-oxathiazolidine-3-carboxylate 2,2-dioxide",
    "duplicated_cas_no": "",
    "SMILES": "C(OC(C)(C)C)(=O)N1S(=O)(=O)O[C@H](C)C1",
    "meta_data": {
        "InChI": "InChI=1S/C8H15NO5S/c1-6-5-9(15(11,12)14-6)7(10)13-8(2,3)4/h6H,5H2,1-4H3/t6-/m1/s1",
        "InChIKey": null,
        "Canonical SMILES": "O=C(OC(C)(C)C)N1CC(OS1(=O)=O)C",
        "Molecular Formula": "C<sub>8</sub>H<sub>15</sub>NO<sub>5</sub>S",
        "Molecular Mass": "237.27",
        "Melting Point": "117-118 °C"
    }
}