{
    "cas_no": "2615-25-0",
    "key_name": "<em>trans</em>-1,4-Diaminocyclohexane",
    "cn_name": "反式-1,4-环己二胺;",
    "alternate_name": "1,4-Cyclohexanediamine, <em>trans</em>-;<em>trans</em>-1,4-Cyclohexanediamine;<em>trans</em>-1,4-Diaminocyclohexane;<em>trans</em>-1,4-Bisaminocyclohexane;1,4-<em>trans</em>-Diaminocyclohexane",
    "duplicated_cas_no": "",
    "SMILES": "N[C@H]1CC[C@H](N)CC1",
    "meta_data": {
        "InChI": "InChI=1/C6H14N2/c7-5-1-2-6(8)4-3-5/h5-6H,1-4,7-8H2/t5-,6-",
        "InChIKey": null,
        "Canonical SMILES": "NC1CCC(N)CC1",
        "Molecular Formula": "C<sub>6</sub>H<sub>14</sub>N<sub>2</sub>",
        "Molecular Mass": "114.19",
        "Melting Point": "258-260 °C"
    }
}