{
    "cas_no": "2039-83-0",
    "key_name": "1,2-Dichloro-4-ethenylbenzene",
    "cn_name": "3,4-二氯苯乙烯;",
    "alternate_name": "Benzene, 1,2-dichloro-4-ethenyl-;Styrene, 3,4-dichloro-;1,2-Dichloro-4-ethenylbenzene;3,4-Dichlorostyrene;(3,4-Dichlorophenyl)ethylene",
    "duplicated_cas_no": "",
    "SMILES": "C(=C)C1=CC(Cl)=C(Cl)C=C1",
    "meta_data": {
        "InChI": "InChI=1S/C8H6Cl2/c1-2-6-3-4-7(9)8(10)5-6/h2-5H,1H2",
        "InChIKey": null,
        "Canonical SMILES": "ClC1=CC=C(C=C)C=C1Cl",
        "Molecular Formula": "C<sub>8</sub>H<sub>6</sub>Cl<sub>2</sub>",
        "Molecular Mass": "173.04",
        "Boiling Point": "69-70 °C @ Press: 4 Torr",
        "Melting Point": "166 °C",
        "Density": "1.256 g/cm³ @ Temp: 20 °C"
    }
}