{
    "cas_no": "36357-38-7",
    "key_name": "1-(6-Methyl-3-pyridinyl)ethanone",
    "cn_name": "5-乙酰基-2-甲基嘧啶;",
    "alternate_name": "Ethanone, 1-(6-methyl-3-pyridinyl)-;Ketone, methyl 6-methyl-3-pyridyl;1-(6-Methyl-3-pyridinyl)ethanone;2-Methyl-5-acetylpyridine;5-Acetyl-2-methylpyridine;5-Acetyl-2-picoline;NSC 27972;1-(6-Methylpyridin-3-yl)ethanone;3-Acetyl-6-methylpyridine;1-(6-Methyl-3-pyridyl)-1-ethanone;6-Methyl-3-acetylpyridine;1-(6-Methylpyridin-3-yl)ethan-1-one",
    "duplicated_cas_no": "",
    "SMILES": "C(C)(=O)C=1C=CC(C)=NC1",
    "meta_data": {
        "InChI": "InChI=1S/C8H9NO/c1-6-3-4-8(5-9-6)7(2)10/h3-5H,1-2H3",
        "InChIKey": null,
        "Canonical SMILES": "O=C(C1=CN=C(C=C1)C)C",
        "Molecular Formula": "C<sub>8</sub>H<sub>9</sub>NO",
        "Molecular Mass": "135.16",
        "Boiling Point": "231-232 °C",
        "Melting Point": "17.6 °C",
        "Density": "1.0661 g/cm³ @ Temp: 20 °C"
    }
}