{
    "cas_no": "13551-87-6",
    "key_name": "Misonidazole",
    "cn_name": null,
    "alternate_name": "1<em>H</em>-Imidazole-1-ethanol, α-(methoxymethyl)-2-nitro-;Imidazole-1-ethanol, α-(methoxymethyl)-2-nitro-;α-(Methoxymethyl)-2-nitro-1<em>H</em>-imidazole-1-ethanol;1-(2-Nitro-1-imidazolyl)-3-methoxy-2-propanol;Ro 7-0582;2-Nitro-1<em>H</em>-imidazole-1-(3-methoxy-2-propanol);1-(2-Hydroxy-3-methoxypropyl)-2-nitroimidazole;Misonidazole;SRI 1354;SR 1354;NSC 261037;Racemic misonidazole;1-(2′-Hydroxy-3′-methoxypropyl)-2-nitroimidazole;1-Methoxy-3-(2-nitroimidazol-1-yl)propan-2-ol;MISO;MISO (misonidazole);Misonidazole (MISO);MeSH ID: D008920",
    "duplicated_cas_no": "95120-44-8",
    "SMILES": "N(=O)(=O)C=1N(CC(COC)O)C=CN1",
    "meta_data": {
        "InChI": "InChI=1S/C7H11N3O4/c1-14-5-6(11)4-9-3-2-8-7(9)10(12)13/h2-3,6,11H,4-5H2,1H3",
        "InChIKey": null,
        "Canonical SMILES": "O=N(=O)C1=NC=CN1CC(O)COC",
        "Molecular Formula": "C<sub>7</sub>H<sub>11</sub>N<sub>3</sub>O<sub>4</sub>",
        "Molecular Mass": "201.18",
        "Melting Point": "110-111 °C"
    }
}