{
    "cas_no": "121-52-8",
    "key_name": "3-Nitrobenzenesulfonamide",
    "cn_name": "3-硝基苯磺酰胺;",
    "alternate_name": "Benzenesulfonamide, 3-nitro-;Benzenesulfonamide, <em>m</em>-nitro-;3-Nitrobenzenesulfonamide;<em>m</em>-Nitrobenzenesulfonamide;3-Nitrobenzolesulfamide;NSC 407487;3-Nitrobenzene-1-sulfonamide",
    "duplicated_cas_no": "",
    "SMILES": "S(N)(=O)(=O)C1=CC(N(=O)=O)=CC=C1",
    "meta_data": {
        "InChI": "InChI=1S/C6H6N2O4S/c7-13(11,12)6-3-1-2-5(4-6)8(9)10/h1-4H,(H2,7,11,12)",
        "InChIKey": null,
        "Canonical SMILES": "O=N(=O)C1=CC=CC(=C1)S(=O)(=O)N",
        "Molecular Formula": "C<sub>6</sub>H<sub>6</sub>N<sub>2</sub>O<sub>4</sub>S",
        "Molecular Mass": "202.19",
        "Melting Point": "167 °C"
    }
}