{
    "cas_no": "29682-44-8",
    "key_name": "1-Bromo-2,4,5-trichlorobenzene",
    "cn_name": null,
    "alternate_name": "Benzene, 1-bromo-2,4,5-trichloro-;1-Bromo-2,4,5-trichlorobenzene;Bromo-2,4,5-trichlorobenzene;2,4,5-Trichlorobromobenzene",
    "duplicated_cas_no": "",
    "SMILES": "BrC1=C(Cl)C=C(Cl)C(Cl)=C1",
    "meta_data": {
        "InChI": "InChI=1S/C6H2BrCl3/c7-3-1-5(9)6(10)2-4(3)8/h1-2H",
        "InChIKey": null,
        "Canonical SMILES": "ClC=1C=C(Cl)C(Br)=CC1Cl",
        "Molecular Formula": "C<sub>6</sub>H<sub>2</sub>BrCl<sub>3</sub>",
        "Molecular Mass": "260.34",
        "Boiling Point": "71 °C @ Press: 0.098 Torr",
        "Melting Point": "139 °C"
    }
}