{
    "cas_no": "4160-82-1",
    "key_name": "Dihydro-4,4-dimethyl-2<em>H</em>-pyran-2,6(3<em>H</em>)-dione",
    "cn_name": "3,3-二甲基戊二酸酐;3,3-二甲基戊二酸酐;",
    "alternate_name": "2<em>H</em>-Pyran-2,6(3<em>H</em>)-dione, dihydro-4,4-dimethyl-;Glutaric anhydride, 3,3-dimethyl-;Dihydro-4,4-dimethyl-2<em>H</em>-pyran-2,6(3<em>H</em>)-dione;3,3-Dimethylglutaric anhydride;β,β-Dimethylglutaric anhydride;3,3-Dimethylglutaric acid anhydride;NSC 2827;4,4-Dimethyldihydropyran-2,6-dione;4,4-Dimethyldihydro-2<em>H</em>-pyran-2,6(3<em>H</em>)-dione;4,4-Dimethyltetrahydropyran-2,6-dione",
    "duplicated_cas_no": "",
    "SMILES": "CC1(C)CC(=O)OC(=O)C1",
    "meta_data": {
        "InChI": "InChI=1S/C7H10O3/c1-7(2)3-5(8)10-6(9)4-7/h3-4H2,1-2H3",
        "InChIKey": null,
        "Canonical SMILES": "O=C1OC(=O)CC(C)(C)C1",
        "Molecular Formula": "C<sub>7</sub>H<sub>10</sub>O<sub>3</sub>",
        "Molecular Mass": "142.15",
        "Melting Point": "123-124 °C"
    }
}