{
    "cas_no": "81840-15-5",
    "key_name": "Vesnarinone",
    "cn_name": "维司力农;",
    "alternate_name": "2(1<em>H</em>)-Quinolinone, 6-[4-(3,4-dimethoxybenzoyl)-1-piperazinyl]-3,4-dihydro-;Piperazine, 1-(3,4-dimethoxybenzoyl)-4-(1,2,3,4-tetrahydro-2-oxo-6-quinolinyl)-;6-[4-(3,4-Dimethoxybenzoyl)-1-piperazinyl]-3,4-dihydro-2(1<em>H</em>)-quinolinone;OPC 8212;Vesnarinone;Arkin;Pieranometazine",
    "duplicated_cas_no": "",
    "SMILES": "C(=O)(N1CCN(C=2C=C3C(=CC2)NC(=O)CC3)CC1)C4=CC(OC)=C(OC)C=C4",
    "meta_data": {
        "InChI": "InChI=1S/C22H25N3O4/c1-28-19-7-3-16(14-20(19)29-2)22(27)25-11-9-24(10-12-25)17-5-6-18-15(13-17)4-8-21(26)23-18/h3,5-7,13-14H,4,8-12H2,1-2H3,(H,23,26)",
        "InChIKey": null,
        "Canonical SMILES": "O=C(C1=CC=C(OC)C(OC)=C1)N2CCN(C3=CC=C4NC(=O)CCC4=C3)CC2",
        "Molecular Formula": "C<sub>22</sub>H<sub>25</sub>N<sub>3</sub>O<sub>4</sub>",
        "Molecular Mass": "395.45",
        "Melting Point": "238.1-239.5 °C"
    }
}