{
    "cas_no": "598-32-3",
    "key_name": "3-Buten-2-ol",
    "cn_name": null,
    "alternate_name": "3-Buten-2-ol;3-Hydroxy-1-butene;1-Buten-3-ol;1-Methyl-2-propen-1-ol;Methylvinylcarbinol;1-Methyl-2-propenol;1-Methylallyl alcohol;α-Methylallyl alcohol;2-Hydroxy-3-butene;(±)-3-Buten-2-ol;Racemic-3-buten-2-ol;NSC 17481;1-Methylprop-2-enyl alcohol",
    "duplicated_cas_no": "6118-14-5",
    "SMILES": "C(C=C)(C)O",
    "meta_data": {
        "InChI": "InChI=1S/C4H8O/c1-3-4(2)5/h3-5H,1H2,2H3",
        "InChIKey": null,
        "Canonical SMILES": "OC(C=C)C",
        "Molecular Formula": "C<sub>4</sub>H<sub>8</sub>O",
        "Molecular Mass": "72.11",
        "Boiling Point": "96-97 °C @ Press: 756 Torr",
        "Melting Point": "59-59.5 °C",
        "Density": "0.8318 g/cm³ @ Temp: 20 °C"
    }
}