{
    "cas_no": "109887-53-8",
    "key_name": "<em>rel</em>-(3<em>R</em>,4<em>S</em>)-4-(4-Fluorophenyl)-1-methyl-3-piperidinemethanol",
    "cn_name": "4-(4-氟苯基)-3-羟甲基-1-甲基哌啶;",
    "alternate_name": "3-Piperidinemethanol, 4-(4-fluorophenyl)-1-methyl-, (3<em>R</em>,4<em>S</em>)-<em>rel</em>-;3-Piperidinemethanol, 4-(4-fluorophenyl)-1-methyl-, <em>trans</em>-(±)-;<em>rel</em>-(3<em>R</em>,4<em>S</em>)-4-(4-Fluorophenyl)-1-methyl-3-piperidinemethanol;<em>trans</em>-4-(<em>p</em>-Fluorophenyl)-1-methyl-3-piperidinecarbinol;3-Piperidinemethanol, 4-(4-fluorophenyl)-1-methyl-, <em>trans</em>-;(±)-<em>trans</em>-4-(4-Fluorophenyl)-3-(hydroxymethyl)-1-methylpiperidine;<em>trans</em>-4-(4-Fluorophenyl)-3-hydroxymethyl-<em>N</em>-methylpiperidine;(±)-<em>trans</em>-4-(<em>p</em>-Fluorophenyl)-3-(hydroxymethyl)-1-methylpiperidine;<em>trans</em>-<em>N</em>-Methyl-4-(4-fluorophenyl)-3-(hydroxymethyl)piperidine;<em>trans</em>-4-(4-Fluorophenyl)-3-(hydroxymethyl)-1-methylpiperidine;(±)-<em>trans</em>-4-(4′-Fluorophenyl)-3-hydroxymethyl-1-methylpiperidine;<em>trans</em>-3-Hydroxymethyl-4-(4-fluorophenyl)-<em>N</em>-methylpiperidine;(±)-Paroxol",
    "duplicated_cas_no": "",
    "SMILES": "C(O)[C@H]1[C@@H](CCN(C)C1)C2=CC=C(F)C=C2",
    "meta_data": {
        "InChI": "InChI=1/C13H18FNO/c1-15-7-6-13(11(8-15)9-16)10-2-4-12(14)5-3-10/h2-5,11,13,16H,6-9H2,1H3/t11-,13-/s2",
        "InChIKey": null,
        "Canonical SMILES": "FC1=CC=C(C=C1)C2CCN(C)CC2CO",
        "Molecular Formula": "C<sub>13</sub>H<sub>18</sub>FNO",
        "Molecular Mass": "223.29",
        "Melting Point": "122.5-122.9 °C"
    }
}