{
    "cas_no": "189028-93-1",
    "key_name": "(<em>S</em>)-1-(4-Fluorophenyl)-5-(2-oxo-4-phenyloxazolidin-3-yl)pentane-1,5-dione",
    "cn_name": "(4S)-3-[5-(4-氟苯基)-1,5-二氧代戊基]-4-苯基-2-恶唑烷酮;",
    "alternate_name": "1,5-Pentanedione, 1-(4-fluorophenyl)-5-[(4<em>S</em>)-2-oxo-4-phenyl-3-oxazolidinyl]-;2-Oxazolidinone, 3-[5-(4-fluorophenyl)-1,5-dioxopentyl]-4-phenyl-, (<em>S</em>)-;2-Oxazolidinone, 3-[5-(4-fluorophenyl)-1,5-dioxopentyl]-4-phenyl-, (4<em>S</em>)-;1-(4-Fluorophenyl)-5-[(4<em>S</em>)-2-oxo-4-phenyl-3-oxazolidinyl]-1,5-pentanedione;(4<em>S</em>)-4-Phenyl-3-[5-(4-fluorophenyl)-5-oxopentanoyl]-1,3-oxazolidin-2-one;(<em>S</em>)-3-[5-(4-Fluorophenyl)-1,5-dioxopentyl]-4-phenyloxazolidin-2-one;(<em>S</em>)-3-[4-(4-Fluorobenzoyl)-1-oxobutyl]-4-phenyloxazolidin-2-one;(<em>S</em>)-1-(4-Fluorophenyl)-5-(2-oxo-4-phenyloxazolidin-3-yl)pentane-1,5-dione;1-(4-Fluorophenyl)-5-[(4S)-2-oxo-4-phenyl-1,3-oxazolidin-3-yl]pentane-1,5-dione",
    "duplicated_cas_no": "",
    "SMILES": "C(CCCC(=O)C1=CC=C(F)C=C1)(=O)N2[C@H](COC2=O)C3=CC=CC=C3",
    "meta_data": {
        "InChI": "InChI=1S/C20H18FNO4/c21-16-11-9-15(10-12-16)18(23)7-4-8-19(24)22-17(13-26-20(22)25)14-5-2-1-3-6-14/h1-3,5-6,9-12,17H,4,7-8,13H2/t17-/m1/s1",
        "InChIKey": null,
        "Canonical SMILES": "O=C1OCC(C=2C=CC=CC2)N1C(=O)CCCC(=O)C3=CC=C(F)C=C3",
        "Molecular Formula": "C<sub>20</sub>H<sub>18</sub>FNO<sub>4</sub>",
        "Molecular Mass": "355.36",
        "Melting Point": "94-95 °C"
    }
}