{
    "cas_no": "58-25-3",
    "key_name": "Chlordiazepoxide",
    "cn_name": "氯氮卓;甲氨二氮卓;7-氯-2-甲氨基-5-苯基-3H-1,4-苯并二氮杂卓-4-氧化物;",
    "alternate_name": "3<em>H</em>-1,4-Benzodiazepin-2-amine, 7-chloro-<em>N</em>-methyl-5-phenyl-, 4-oxide;3<em>H</em>-1,4-Benzodiazepine, 7-chloro-2-(methylamino)-5-phenyl-, 4-oxide;CDO;Chlordiazepoxide;Chlorodiazepoxide;7-Chloro-2-(methylamino)-5-phenyl-3<em>H</em>-1,4-benzodiazepine 4-oxide;Clopoxide;Librinin;Methaminodiazepoxide;Elenium;Napoton;Psicosan;Kalmocaps;Eden;Mesural;Mildmen;Decacil;Viopsicol;Ifibrium;Radepur;Chlozepid;Control;Balance;Chlordiazepoxid;Balance (pharmaceutical);Multum;Risolid;Libritabs;Helogaphen;Silibrin;Menrium;Tropium;Librelease;Abboxide;7-Chloro-<em>N</em>-methyl-5-phenyl-3<em>H</em>-1,4-benzodiazepin-2-yl-amine 4-oxide;MeSH ID: D002707",
    "duplicated_cas_no": "",
    "SMILES": "O=N1=C(C=2C(N=C(NC)C1)=CC=C(Cl)C2)C3=CC=CC=C3",
    "meta_data": {
        "InChI": "InChI=1S/C16H14ClN3O/c1-18-15-10-20(21)16(11-5-3-2-4-6-11)13-9-12(17)7-8-14(13)19-15/h2-9H,10H2,1H3,(H,18,19)",
        "InChIKey": null,
        "Canonical SMILES": "O=N1=C(C=2C=CC=CC2)C=3C=C(Cl)C=CC3N=C(NC)C1",
        "Molecular Formula": "C<sub>16</sub>H<sub>14</sub>ClN<sub>3</sub>O",
        "Molecular Mass": "299.75",
        "Melting Point": "236-236.5 °C"
    }
}