{
    "cas_no": "6141-14-6",
    "key_name": "2-Chloro-4-methylquinazoline",
    "cn_name": null,
    "alternate_name": "Quinazoline, 2-chloro-4-methyl-;2-Chloro-4-methylquinazoline",
    "duplicated_cas_no": "",
    "SMILES": "CC=1C2=C(N=C(Cl)N1)C=CC=C2",
    "meta_data": {
        "InChI": "InChI=1S/C9H7ClN2/c1-6-7-4-2-3-5-8(7)12-9(10)11-6/h2-5H,1H3",
        "InChIKey": null,
        "Canonical SMILES": "ClC=1N=C2C=CC=CC2=C(N1)C",
        "Molecular Formula": "C<sub>9</sub>H<sub>7</sub>ClN<sub>2</sub>",
        "Molecular Mass": "178.62",
        "Melting Point": "185-187 °C"
    }
}