{
    "cas_no": "368-39-8",
    "key_name": "Triethyloxonium tetrafluoroborate",
    "cn_name": "三乙基氧翁四氟硼酸;三乙基氧四氟硼酸;",
    "alternate_name": "Oxonium, triethyl-, tetrafluoroborate(1-) (1:1);Oxonium, triethyl-, tetrafluoroborate(1-);Triethyloxonium tetrafluoroborate;Triethyloxonium fluoborate;Borate(1-), tetrafluoro-, triethyloxonium;Triethyloxonium fluoroborate;Triethyloxonium tetrafluoroborate(1-);Boron tetrafluoride triethyloxonium;Triethyloxonium borofluoride;Meerwein's reagent;Reagents, Meerwein's;NSC 176023;Et<sub>3</sub>OBF<sub>4</sub>",
    "duplicated_cas_no": "1868-76-4;14323-65-0;15930-18-4;28535-03-7",
    "SMILES": "[O+](CC)(CC)CC.[B+3]([F-])([F-])([F-])[F-]",
    "meta_data": {
        "InChI": "InChI=1S/C6H15O.BF4/c1-4-7(5-2)6-3;2-1(3,4)5/h4-6H2,1-3H3;/q+1;-1",
        "InChIKey": null,
        "Canonical SMILES": "[F-][B+3]([F-])([F-])[F-].[O+](CC)(CC)CC",
        "Molecular Formula": "C<sub>6</sub>H<sub>15</sub>O.BF<sub>4</sub>",
        "Molecular Mass": "",
        "Melting Point": "92 °C (decomp)"
    }
}