{
    "cas_no": "3681-78-5",
    "key_name": "Propyl laurate",
    "cn_name": null,
    "alternate_name": "Dodecanoic acid, propyl ester;Lauric acid, propyl ester;Propyl laurate;Propyl dodecanoate;NSC 42573",
    "duplicated_cas_no": "",
    "SMILES": "C(CC(OCCC)=O)CCCCCCCCC",
    "meta_data": {
        "InChI": "InChI=1S/C15H30O2/c1-3-5-6-7-8-9-10-11-12-13-15(16)17-14-4-2/h3-14H2,1-2H3",
        "InChIKey": null,
        "Canonical SMILES": "O=C(OCCC)CCCCCCCCCCC",
        "Molecular Formula": "C<sub>15</sub>H<sub>30</sub>O<sub>2</sub>",
        "Molecular Mass": "242.40",
        "Boiling Point": "204 °C @ Press: 60 Torr"
    }
}