{
    "cas_no": "4160-63-8",
    "key_name": "(4-Methoxyphenyl)-2-thienylmethanone",
    "cn_name": "2-(4-甲氧基苯甲酰)噻吩;2-(4-甲氧基苄氧基)噻吩;",
    "alternate_name": "Methanone, (4-methoxyphenyl)-2-thienyl-;Ketone, <em>p</em>-methoxyphenyl 2-thienyl;(4-Methoxyphenyl)-2-thienylmethanone;<em>p</em>-Methoxyphenyl 2-thienyl ketone;2-(4-Methoxybenzoyl)thiophene;2-(<em>p</em>-Methoxybenzoyl)thiophene;2-<em>p</em>-Anisoylthiophene;NSC 151248;4-Methoxyphenyl thiophene-2-yl ketone;4-Methoxyphenyl 2-thienyl ketone;(4-Methoxyphenyl)(thiophen-2-yl)methanone;(4-Methoxyphenyl)-thiophen-2-ylmethanone",
    "duplicated_cas_no": "",
    "SMILES": "C(=O)(C1=CC=C(OC)C=C1)C2=CC=CS2",
    "meta_data": {
        "InChI": "InChI=1S/C12H10O2S/c1-14-10-6-4-9(5-7-10)12(13)11-3-2-8-15-11/h2-8H,1H3",
        "InChIKey": null,
        "Canonical SMILES": "O=C(C=1SC=CC1)C2=CC=C(OC)C=C2",
        "Molecular Formula": "C<sub>12</sub>H<sub>10</sub>O<sub>2</sub>S",
        "Molecular Mass": "218.27",
        "Boiling Point": "225 °C @ Press: 15 Torr",
        "Melting Point": "73 °C"
    }
}