{
    "cas_no": "75-82-1",
    "key_name": "1,2-Dibromo-1,1-difluoroethane",
    "cn_name": "1,2-二溴-1,1-二氟乙烷;二溴二氟乙烷;1，2-二溴-1，1-二氟乙烷;",
    "alternate_name": "Ethane, 1,2-dibromo-1,1-difluoro-;1,2-Dibromo-1,1-difluoroethane;Genetron 132b-B2;1,1-Difluoro-1,2-dibromoethane",
    "duplicated_cas_no": "",
    "SMILES": "C(CBr)(Br)(F)F",
    "meta_data": {
        "InChI": "InChI=1S/C2H2Br2F2/c3-1-2(4,5)6/h1H2",
        "InChIKey": null,
        "Canonical SMILES": "FC(F)(Br)CBr",
        "Molecular Formula": "C<sub>2</sub>H<sub>2</sub>Br<sub>2</sub>F<sub>2</sub>",
        "Molecular Mass": "223.84",
        "Boiling Point": "92.5 °C",
        "Melting Point": "-61.3 °C",
        "Density": "2.2238 g/cm³ @ Temp: 20.0 °C"
    }
}