{
    "cas_no": "789-61-7",
    "key_name": "2′-Deoxy-6-thioguanosine",
    "cn_name": null,
    "alternate_name": "Guanosine, 2′-deoxy-6-thio-;9<em>H</em>-Purine-6(1<em>H</em>)-thione, 2-amino-9-(2-deoxy-β-<span class=\"text-smallcaps\">D</span>-<em>erythro</em>-pentofuranosyl)-;2′-Deoxy-6-thioguanosine;Thioguanine deoxyriboside;2′-Deoxythioguanosine;2′-Desoxy-6-thioguanosine;NSC 71261;β-Thioguanine deoxyriboside;2-Amino-9-(2-deoxy-β-<span class=\"text-smallcaps\">D</span>-<em>erythro</em>-pentofuranosyl)-6-mercaptopurine;TGdR;β-TGdR;Ateganosine",
    "duplicated_cas_no": "1688-22-8;2239-63-6;30241-92-0;1630035-44-7",
    "SMILES": "S=C1C2=C(N(C=N2)[C@@H]3O[C@H](CO)[C@@H](O)C3)NC(N)=N1",
    "meta_data": {
        "InChI": "InChI=1S/C10H13N5O3S/c11-10-13-8-7(9(19)14-10)12-3-15(8)6-1-4(17)5(2-16)18-6/h3-6,16-17H,1-2H2,(H3,11,13,14,19)/t4-,5+,6+/m0/s1",
        "InChIKey": null,
        "Canonical SMILES": "S=C1N=C(N)NC2=C1N=CN2C3OC(CO)C(O)C3",
        "Molecular Formula": "C<sub>10</sub>H<sub>13</sub>N<sub>5</sub>O<sub>3</sub>S",
        "Molecular Mass": "283.31",
        "Melting Point": "190-192 °C"
    }
}