{
    "cas_no": "12065-11-1",
    "key_name": "Germanium diselenide",
    "cn_name": "Germanium selenide;",
    "alternate_name": "Germanium selenide (GeSe<sub>2</sub>);Germanium diselenide;Germanium selenide (Ge<sub>0.33</sub>Se<sub>0.67</sub>)",
    "duplicated_cas_no": "",
    "SMILES": "[Ge](=[Se])=[Se]",
    "meta_data": {
        "InChI": "InChI=1S/GeSe2/c2-1-3",
        "InChIKey": null,
        "Canonical SMILES": "[Se]=[Ge]=[Se]",
        "Molecular Formula": "GeSe<sub>2</sub>",
        "Molecular Mass": "230.56",
        "Melting Point": "707 °C",
        "Density": "4.56 g/cm³"
    }
}