{
    "cas_no": "106-65-0",
    "key_name": "Dimethyl succinate",
    "cn_name": "丁二酸二甲酯;",
    "alternate_name": "Butanedioic acid, 1,4-dimethyl ester;Succinic acid, dimethyl ester;Butanedioic acid, dimethyl ester;Dimethyl succinate;Methyl succinate;Dimethyl butanedioate;DBE 4;NSC 52209;Rhodiasolv RDEP;Dimethyl 1,4-butanedioate;Provichem 2511;Proviron 2511ECO",
    "duplicated_cas_no": "",
    "SMILES": "C(CCC(OC)=O)(OC)=O",
    "meta_data": {
        "InChI": "InChI=1S/C6H10O4/c1-9-5(7)3-4-6(8)10-2/h3-4H2,1-2H3",
        "InChIKey": null,
        "Canonical SMILES": "O=C(OC)CCC(=O)OC",
        "Molecular Formula": "C<sub>6</sub>H<sub>10</sub>O<sub>4</sub>",
        "Molecular Mass": "146.14",
        "Boiling Point": "195.3 °C @ Press: 760 Torr",
        "Melting Point": "19.5 °C",
        "Density": "1.1202 g/cm³ @ Temp: 18 °C"
    }
}