{
    "cas_no": "2840-29-1",
    "key_name": "3-Amino-4-bromobenzoic acid",
    "cn_name": "3-氨基-4-溴苯甲酸;",
    "alternate_name": "Benzoic acid, 3-amino-4-bromo-;3-Amino-4-bromobenzoic acid",
    "duplicated_cas_no": "",
    "SMILES": "C(O)(=O)C1=CC(N)=C(Br)C=C1",
    "meta_data": {
        "InChI": "InChI=1S/C7H6BrNO2/c8-5-2-1-4(7(10)11)3-6(5)9/h1-3H,9H2,(H,10,11)",
        "InChIKey": null,
        "Canonical SMILES": "O=C(O)C1=CC=C(Br)C(N)=C1",
        "Molecular Formula": "C<sub>7</sub>H<sub>6</sub>BrNO<sub>2</sub>",
        "Molecular Mass": "216.03",
        "Melting Point": "206-210 °C"
    }
}