{
    "cas_no": "452-58-4",
    "key_name": "2,3-Diaminopyridine",
    "cn_name": "2,3-二氨基吡啶;",
    "alternate_name": "2,3-Pyridinediamine;Pyridine, 2,3-diamino-;2,3-Diaminopyridine;NSC 45406",
    "duplicated_cas_no": "",
    "SMILES": "NC1=C(N)N=CC=C1",
    "meta_data": {
        "InChI": "InChI=1S/C5H7N3/c6-4-2-1-3-8-5(4)7/h1-3H,6H2,(H2,7,8)",
        "InChIKey": null,
        "Canonical SMILES": "N=1C=CC=C(N)C1N",
        "Molecular Formula": "C<sub>5</sub>H<sub>7</sub>N<sub>3</sub>",
        "Molecular Mass": "109.13",
        "Boiling Point": "165 °C @ Press: 5 x 10<sup>-3</sup>-0.01 Torr",
        "Melting Point": "120.8 °C"
    }
}