{
    "cas_no": "7251-61-8",
    "key_name": "2-Methylquinoxaline",
    "cn_name": "2-甲基喹喔啉;",
    "alternate_name": "Quinoxaline, 2-methyl-;2-Methylquinoxaline;NSC 65587",
    "duplicated_cas_no": "139257-48-0",
    "SMILES": "CC1=NC2=C(N=C1)C=CC=C2",
    "meta_data": {
        "InChI": "InChI=1S/C9H8N2/c1-7-6-10-8-4-2-3-5-9(8)11-7/h2-6H,1H3",
        "InChIKey": null,
        "Canonical SMILES": "N1=CC(=NC2=CC=CC=C12)C",
        "Molecular Formula": "C<sub>9</sub>H<sub>8</sub>N<sub>2</sub>",
        "Molecular Mass": "144.17",
        "Boiling Point": "244 °C",
        "Melting Point": "180.5 °C"
    }
}