{
    "cas_no": "1123-09-7",
    "key_name": "3,5-Dimethyl-2-cyclohexen-1-one",
    "cn_name": "3,5-二甲基-2-环己烯-1-酮;",
    "alternate_name": "2-Cyclohexen-1-one, 3,5-dimethyl-;3,5-Dimethyl-2-cyclohexen-1-one;NSC 10113;NSC 845",
    "duplicated_cas_no": "70354-96-0",
    "SMILES": "CC1CC(C)=CC(=O)C1",
    "meta_data": {
        "InChI": "InChI=1S/C8H12O/c1-6-3-7(2)5-8(9)4-6/h4,7H,3,5H2,1-2H3",
        "InChIKey": null,
        "Canonical SMILES": "O=C1C=C(C)CC(C)C1",
        "Molecular Formula": "C<sub>8</sub>H<sub>12</sub>O",
        "Molecular Mass": "124.18",
        "Boiling Point": "208.5 °C",
        "Melting Point": "166 °C"
    }
}