{
    "cas_no": "23414-72-4",
    "key_name": "Zinc permanganate",
    "cn_name": null,
    "alternate_name": "Permanganic acid (HMnO<sub>4</sub>), zinc salt (2:1);Permanganic acid (HMnO<sub>4</sub>), zinc salt;Zinc permanganate;Zinc manganate [Zn(MnO<sub>4</sub>)<sub>2</sub>]",
    "duplicated_cas_no": "",
    "SMILES": "[Mn](O)(=O)(=O)=O.[Zn]",
    "meta_data": {
        "InChI": "InChI=1S/Mn.H2O.3O.Zn/h;1H2;;;;/q+1;;;;;/p-1",
        "InChIKey": null,
        "Canonical SMILES": "[Zn].O=[Mn](=O)(=O)O",
        "Molecular Formula": "HMnO<sub>4</sub>.<sup>1</sup>/<sub>2</sub>Zn",
        "Molecular Mass": "",
        "Melting Point": "90-105 °C (decomp)",
        "Density": "2.45 g/cm³"
    }
}