{
    "cas_no": "16652-75-8",
    "key_name": "<span class=\"text-smallcaps\">L</span>-Isoleucine, phenylmethyl ester, 4-methylbenzenesulfonate (1:1)",
    "cn_name": null,
    "alternate_name": "<span class=\"text-smallcaps\">L</span>-Isoleucine, phenylmethyl ester, 4-methylbenzenesulfonate (1:1);Isoleucine, benzyl ester, <em>p</em>-toluenesulfonate, <span class=\"text-smallcaps\">L</span>-;<span class=\"text-smallcaps\">L</span>-Isoleucine, phenylmethyl ester, 4-methylbenzenesulfonate;<span class=\"text-smallcaps\">L</span>-Isoleucine benzyl ester <em>p</em>-toluenesulfonate;Isoleucine benzyl ester tosylate;<span class=\"text-smallcaps\">L</span>-Isoleucine benzyl ester tosylate;Isoleucine benzyl ester <em>p</em>-toluenesulfonate;Benzyl <span class=\"text-smallcaps\">L</span>-isoleucinate tosylate;Benzyl <span class=\"text-smallcaps\">L</span>-isoleucinate <em>p</em>-toluenesulfonate",
    "duplicated_cas_no": "51186-47-1",
    "SMILES": "C(OC([C@H]([C@H](CC)C)N)=O)C1=CC=CC=C1.S(=O)(=O)(O)C1=CC=C(C)C=C1",
    "meta_data": {
        "InChI": "InChI=1S/C13H19NO2.C7H8O3S/c1-3-10(2)12(14)13(15)16-9-11-7-5-4-6-8-11;1-6-2-4-7(5-3-6)11(8,9)10/h4-8,10,12H,3,9,14H2,1-2H3;2-5H,1H3,(H,8,9,10)/t10-,12-;/m0./s1",
        "InChIKey": null,
        "Canonical SMILES": "O=C(OCC=1C=CC=CC1)C(N)C(C)CC.O=S(=O)(O)C1=CC=C(C=C1)C",
        "Molecular Formula": "C<sub>13</sub>H<sub>19</sub>NO<sub>2</sub>.C<sub>7</sub>H<sub>8</sub>O<sub>3</sub>S",
        "Molecular Mass": "",
        "Melting Point": "153-155 °C"
    }
}