{
    "cas_no": "7432-24-8",
    "key_name": "γ-<span class=\"text-smallcaps\">L</smallcap>-Glutamyl-<smallcap>L</span>-phenylalanine",
    "cn_name": null,
    "alternate_name": "<span class=\"text-smallcaps\">L</smallcap>-Phenylalanine, <smallcap>L</span>-γ-glutamyl-;Glutamine, <em>N</em>-(α-carboxyphenethyl)-, <span class=\"text-smallcaps\">L</span>-;<span class=\"text-smallcaps\">L</smallcap>-Phenylalanine, <em>N</em>-<smallcap>L</span>-γ-glutamyl-;Glutamine, <em>N</em>-(α-carboxyphenethyl)-;<span class=\"text-smallcaps\">L</smallcap>-γ-Glutamyl-<smallcap>L</span>-phenylalanine;γ-Glutamylphenylalanine;γ-Glutamyl-<span class=\"text-smallcaps\">L</span>-phenylalanine;γ-<span class=\"text-smallcaps\">L</smallcap>-Glutamyl-<smallcap>L</span>-phenylalanine;8: PN: WO2011158590 PAGE: 34 claimed sequence;γ-Glu-Phe",
    "duplicated_cas_no": "6810-81-7",
    "SMILES": "C([C@H](NC(CC[C@@H](C(O)=O)N)=O)C(O)=O)C1=CC=CC=C1",
    "meta_data": {
        "InChI": "InChI=1S/C14H18N2O5/c15-10(13(18)19)6-7-12(17)16-11(14(20)21)8-9-4-2-1-3-5-9/h1-5,10-11H,6-8,15H2,(H,16,17)(H,18,19)(H,20,21)/t10-,11-/m0/s1",
        "InChIKey": null,
        "Canonical SMILES": "O=C(O)C(N)CCC(=O)NC(C(=O)O)CC=1C=CC=CC1",
        "Molecular Formula": "C<sub>14</sub>H<sub>18</sub>N<sub>2</sub>O<sub>5</sub>",
        "Molecular Mass": "294.30",
        "Melting Point": "194-197 °C"
    }
}