{
    "cas_no": "13089-18-4",
    "key_name": "Phenyl <em>N</em>-acetyl-α-<span class=\"text-smallcaps\">D</span>-galactosaminide",
    "cn_name": null,
    "alternate_name": "α-<span class=\"text-smallcaps\">D</span>-Galactopyranoside, phenyl 2-(acetylamino)-2-deoxy-;Galactopyranoside, phenyl 2-acetamido-2-deoxy-, α-<span class=\"text-smallcaps\">D</span>-;Phenyl 2-(acetylamino)-2-deoxy-α-<span class=\"text-smallcaps\">D</span>-galactopyranoside;Phenyl 2-acetamido-2-deoxy-α-<span class=\"text-smallcaps\">D</span>-galactopyranoside;Phenyl <em>N</em>-acetyl-α-<span class=\"text-smallcaps\">D</span>-galactosaminoside;Phenyl α-<em>N</em>-acetylgalactosaminide;Phenyl <em>N</em>-acetyl-α-<span class=\"text-smallcaps\">D</span>-galactosaminide",
    "duplicated_cas_no": "",
    "SMILES": "N(C(C)=O)[C@H]1[C@@H](OC2=CC=CC=C2)O[C@H](CO)[C@H](O)[C@@H]1O",
    "meta_data": {
        "InChI": "InChI=1S/C14H19NO6/c1-8(17)15-11-13(19)12(18)10(7-16)21-14(11)20-9-5-3-2-4-6-9/h2-6,10-14,16,18-19H,7H2,1H3,(H,15,17)/t10-,11-,12+,13-,14+/m1/s1",
        "InChIKey": null,
        "Canonical SMILES": "O=C(NC1C(OC=2C=CC=CC2)OC(CO)C(O)C1O)C",
        "Molecular Formula": "C<sub>14</sub>H<sub>19</sub>NO<sub>6</sub>",
        "Molecular Mass": "297.30",
        "Melting Point": "248 °C (decomp)"
    }
}