{
    "cas_no": "123-51-3",
    "key_name": "Isoamyl alcohol",
    "cn_name": null,
    "alternate_name": "1-Butanol, 3-methyl-;Isopentyl alcohol;3-Methyl-1-butanol;Isoamyl alcohol;Isoamylol;Isopentanol;2-Methyl-4-butanol;Isobutyl carbinol;<em>iso</em>-Amyl alcohol;<em>iso</em>-Pentanol;3-Methylbutyl alcohol;NSC 1029;NSC 7905;3-Methylbutane-1-ol",
    "duplicated_cas_no": "",
    "SMILES": "C(C(C)C)CO",
    "meta_data": {
        "InChI": "InChI=1S/C5H12O/c1-5(2)3-4-6/h5-6H,3-4H2,1-2H3",
        "InChIKey": null,
        "Canonical SMILES": "OCCC(C)C",
        "Molecular Formula": "C<sub>5</sub>H<sub>12</sub>O",
        "Molecular Mass": "88.15",
        "Boiling Point": "132.5 °C",
        "Melting Point": "-117.2 °C",
        "Density": "0.813 g/cm³ @ Temp: 15 °C"
    }
}