{
    "cas_no": "510-75-8",
    "key_name": "Gibberellin A<sub>7</sub>",
    "cn_name": "赤霉素A7;",
    "alternate_name": "Gibb-3-ene-1,10-dicarboxylic acid, 2,4a-dihydroxy-1-methyl-8-methylene-, 1,4a-lactone, (1α,2β,4aα,4bβ,10β)-;Gibberellin A<sub>7</sub>;4aα,4bβ-Gibb-3-ene-1α,10β-dicarboxylic acid, 2β,4a-dihydroxy-1-methyl-8-methylene-, 1,4a-lactone;1<em>H</em>-7,9a-Methanobenz[<em>a</em>]azulene-1,10-dicarboxylic acid, 2,4a,4b,5,6,7,8,9,10,10a-decahydro-2,4a-dihydroxy-1-methyl-8-methylene-, 1,4a-lactone;4a,1-(Epoxymethano)-7,9a-methanobenz[<em>a</em>]azulene, gibb-3-ene-1,10-dicarboxylic acid deriv.;GA<sub>7</sub>",
    "duplicated_cas_no": "",
    "SMILES": "C(O)(=O)[C@H]1[C@]2([C@@]3([C@]4([C@]15CC(CC4)(C(=C)C5)[H])[H])OC(=O)[C@]2(C)[C@@H](O)C=C3)[H]",
    "meta_data": {
        "InChI": "InChI=1S/C19H22O5/c1-9-7-18-8-10(9)3-4-11(18)19-6-5-12(20)17(2,16(23)24-19)14(19)13(18)15(21)22/h5-6,10-14,20H,1,3-4,7-8H2,2H3,(H,21,22)/t10?,11-,12+,13-,14-,17-,18+,19-/m1/s1",
        "InChIKey": null,
        "Canonical SMILES": "O=C(O)C1C2C3(OC(=O)C2(C)C(O)C=C3)C4CCC5C(=C)CC14C5",
        "Molecular Formula": "C<sub>19</sub>H<sub>22</sub>O<sub>5</sub>",
        "Molecular Mass": "330.38",
        "Melting Point": "227-230 °C"
    }
}