{
    "cas_no": "75844-41-6",
    "key_name": "5-Methyl-4(3<em>H</em>)-quinazolinone",
    "cn_name": null,
    "alternate_name": "4(3<em>H</em>)-Quinazolinone, 5-methyl-;4(1<em>H</em>)-Quinazolinone, 5-methyl-;5-Methyl-4(3<em>H</em>)-quinazolinone;5-Methyl-4-quinazolone;4-Hydroxy-5-methylquinazoline;5-Methylquinazolin-4(3<em>H</em>)-one",
    "duplicated_cas_no": "",
    "SMILES": "O=C1C=2C(=CC=CC2C)NC=N1",
    "meta_data": {
        "InChI": "InChI=1S/C9H8N2O/c1-6-3-2-4-7-8(6)9(12)11-5-10-7/h2-5H,1H3,(H,10,11,12)",
        "InChIKey": null,
        "Canonical SMILES": "O=C1N=CNC2=CC=CC(=C12)C",
        "Molecular Formula": "C<sub>9</sub>H<sub>8</sub>N<sub>2</sub>O",
        "Molecular Mass": "160.17",
        "Melting Point": "224 °C"
    }
}