{
    "cas_no": "80-18-2",
    "key_name": "Methyl benzenesulfonate",
    "cn_name": "苯磺酸甲酯;",
    "alternate_name": "Benzenesulfonic acid, methyl ester;Methyl benzenesulfonate;20ND3-5;NSC 3214;Methyl besylate",
    "duplicated_cas_no": "",
    "SMILES": "S(OC)(=O)(=O)C1=CC=CC=C1",
    "meta_data": {
        "InChI": "InChI=1S/C7H8O3S/c1-10-11(8,9)7-5-3-2-4-6-7/h2-6H,1H3",
        "InChIKey": null,
        "Canonical SMILES": "O=S(=O)(OC)C=1C=CC=CC1",
        "Molecular Formula": "C<sub>7</sub>H<sub>8</sub>O<sub>3</sub>S",
        "Molecular Mass": "172.20",
        "Boiling Point": "278-280 °C",
        "Melting Point": "149 °C"
    }
}