{
    "cas_no": "490-91-5",
    "key_name": "Thymoquinone",
    "cn_name": "百里醌;2-异丙基-5-甲基-1,4-苯并醌;2-Isopropyl-5-methyl-1,4-benzoquinone;",
    "alternate_name": "2,5-Cyclohexadiene-1,4-dione, 2-methyl-5-(1-methylethyl)-;<em>p</em>-Mentha-3,6-diene-2,5-dione;2-Methyl-5-(1-methylethyl)-2,5-cyclohexadiene-1,4-dione;<em>p</em>-Cymene-2,5-dione;2-Isopropyl-5-methylbenzoquinone;2-Methyl-5-isopropyl-<em>p</em>-benzoquinone;Thymoquinone;2-Isopropyl-5-methyl-<em>p</em>-benzoquinone;Thymoquinon;5-Isopropyl-2-methyl-1,4-benzoquinone;2-Methyl-5-isopropyl-1,4-benzoquinone;2-Isopropyl-5-methyl-1,4-benzoquinone;5-Isopropyl-2-methyl-<em>p</em>-benzoquinone;NSC 2228;2-Isopropyl-5-methyl-<em>p</em>-benzophenone;2-Methyl-5-(propan-2-yl)cyclohexa-2,5-diene-1,4-dione;2-Methyl-5-propan-2-ylcyclohexa-2,5-diene-1,4-dione;5-Isopropyl-2-methylbenzo-quinone;Thymoquin",
    "duplicated_cas_no": "",
    "SMILES": "C(C)(C)C=1C(=O)C=C(C)C(=O)C1",
    "meta_data": {
        "InChI": "InChI=1S/C10H12O2/c1-6(2)8-5-9(11)7(3)4-10(8)12/h4-6H,1-3H3",
        "InChIKey": null,
        "Canonical SMILES": "O=C1C=C(C(=O)C=C1C)C(C)C",
        "Molecular Formula": "C<sub>10</sub>H<sub>12</sub>O<sub>2</sub>",
        "Molecular Mass": "164.20",
        "Boiling Point": "232 °C",
        "Melting Point": "45.5 °C",
        "Density": "0.694 g/cm³ @ Temp: 45 °C; Press: 97508 Torr"
    }
}