{
    "cas_no": "679-87-8",
    "key_name": "1,1,2,2-Tetrafluoro-3-iodopropane",
    "cn_name": null,
    "alternate_name": "Propane, 1,1,2,2-tetrafluoro-3-iodo-;1,1,2,2-Tetrafluoro-3-iodopropane;2,2,3,3-Tetrafluoropropyl iodide;2,2,3,3-Tetrafluoro-1-iodopropane;1-Iodo-2,2,3,3-tetrafluoropropane;3-Iodo-1,1,2,2-tetrafluoropropane",
    "duplicated_cas_no": "",
    "SMILES": "C(C(F)F)(CI)(F)F",
    "meta_data": {
        "InChI": "InChI=1S/C3H3F4I/c4-2(5)3(6,7)1-8/h2H,1H2",
        "InChIKey": null,
        "Canonical SMILES": "FC(F)C(F)(F)CI",
        "Molecular Formula": "C<sub>3</sub>H<sub>3</sub>F<sub>4</sub>I",
        "Molecular Mass": "241.95",
        "Boiling Point": "95 °C"
    }
}