{
    "cas_no": "66256-28-8",
    "key_name": "4-Fluoro-1-iodo-2-methylbenzene",
    "cn_name": null,
    "alternate_name": "Benzene, 4-fluoro-1-iodo-2-methyl-;4-Fluoro-1-iodo-2-methylbenzene;5-Fluoro-2-iodotoluene;2-Methyl-4-fluoroiodobenzene;4-Fluoro-2-methyliodobenzene",
    "duplicated_cas_no": "",
    "SMILES": "CC1=C(I)C=CC(F)=C1",
    "meta_data": {
        "InChI": "InChI=1S/C7H6FI/c1-5-4-6(8)2-3-7(5)9/h2-4H,1H3",
        "InChIKey": null,
        "Canonical SMILES": "FC1=CC=C(I)C(=C1)C",
        "Molecular Formula": "C<sub>7</sub>H<sub>6</sub>FI",
        "Molecular Mass": "236.03",
        "Boiling Point": "138-139 °C @ Press: 9 Torr"
    }
}