{
    "cas_no": "21124-40-3",
    "key_name": "α-Amino-2-thiopheneacetic acid",
    "cn_name": null,
    "alternate_name": "2-Thiopheneacetic acid, α-amino-;2-Thiopheneacetic acid, α-amino-, <span class=\"text-smallcaps\">DL</span>-;2-Thiopheneacetic acid, α-amino-, (±)-;α-Amino-2-thiopheneacetic acid;<span class=\"text-smallcaps\">DL</span>-2-Amino-2-thien-2-ylacetic acid;<span class=\"text-smallcaps\">DL</span>-2-Thienylglycine;α-Amino-2-thienylacetic acid;2-Amino-2-(2-Thienyl)acetic acid;<span class=\"text-smallcaps\">DL</span>-α-Amino-2-thiopheneacetic acid;<span class=\"text-smallcaps\">DL</span>-α-Amino-2-thienylacetic acid;2-Amino-2-(thiophen-2-yl)acetic acid",
    "duplicated_cas_no": "61261-51-6",
    "SMILES": "C(C(O)=O)(N)C1=CC=CS1",
    "meta_data": {
        "InChI": "InChI=1S/C6H7NO2S/c7-5(6(8)9)4-2-1-3-10-4/h1-3,5H,7H2,(H,8,9)",
        "InChIKey": null,
        "Canonical SMILES": "O=C(O)C(N)C=1SC=CC1",
        "Molecular Formula": "C<sub>6</sub>H<sub>7</sub>NO<sub>2</sub>S",
        "Molecular Mass": "157.19",
        "Melting Point": "233-236 °C"
    }
}