{
    "cas_no": "1115-30-6",
    "key_name": "Butanedioic acid, 2-acetyl-, 1,4-diethyl ester",
    "cn_name": "乙酰琥珀酸二乙酯;",
    "alternate_name": "Butanedioic acid, 2-acetyl-, 1,4-diethyl ester;Succinic acid, acetyl-, diethyl ester;Butanedioic acid, acetyl-, diethyl ester;Diethyl 2-acetylsuccinate;Diethyl acetylsuccinate;Acetylsuccinic acid diethyl ester;Ethyl acetylsuccinate;Diethyl acetosuccinate;NSC 233;2-Acetylsuccinic acid diethyl ester;1,4-Diethyl 2-acetylbutanedioate",
    "duplicated_cas_no": "",
    "SMILES": "C(CC(OCC)=O)(C(OCC)=O)C(C)=O",
    "meta_data": {
        "InChI": "InChI=1S/C10H16O5/c1-4-14-9(12)6-8(7(3)11)10(13)15-5-2/h8H,4-6H2,1-3H3",
        "InChIKey": null,
        "Canonical SMILES": "O=C(OCC)CC(C(=O)OCC)C(=O)C",
        "Molecular Formula": "C<sub>10</sub>H<sub>16</sub>O<sub>5</sub>",
        "Molecular Mass": "216.23",
        "Boiling Point": "255 °C",
        "Density": "1.0783 g/cm³ @ Temp: 25 °C"
    }
}