{
    "cas_no": "64706-54-3",
    "key_name": "Bepridil",
    "cn_name": "苄普地尔;",
    "alternate_name": "1-Pyrrolidineethanamine, β-[(2-methylpropoxy)methyl]-<em>N</em>-phenyl-<em>N</em>-(phenylmethyl)-;β-[(2-Methylpropoxy)methyl]-<em>N</em>-phenyl-<em>N</em>-(phenylmethyl)-1-pyrrolidineethanamine;Bepridil;Org 5730;(±)-Bepridil;<em>dl</em>-Bepridil;MeSH ID: D015764",
    "duplicated_cas_no": "99239-95-9;89035-90-5",
    "SMILES": "N(CC(COCC(C)C)N1CCCC1)(CC2=CC=CC=C2)C3=CC=CC=C3",
    "meta_data": {
        "InChI": "InChI=1S/C24H34N2O/c1-21(2)19-27-20-24(25-15-9-10-16-25)18-26(23-13-7-4-8-14-23)17-22-11-5-3-6-12-22/h3-8,11-14,21,24H,9-10,15-20H2,1-2H3",
        "InChIKey": null,
        "Canonical SMILES": "O(CC(N1CCCC1)CN(C=2C=CC=CC2)CC=3C=CC=CC3)CC(C)C",
        "Molecular Formula": "C<sub>24</sub>H<sub>34</sub>N<sub>2</sub>O",
        "Molecular Mass": "366.54",
        "Boiling Point": "184 °C @ Press: 0.1 Torr"
    }
}