{
    "cas_no": "121219-08-7",
    "key_name": "<em>B</em>-[4-(Hexyloxy)phenyl]boronic acid",
    "cn_name": null,
    "alternate_name": "Boronic acid, <em>B</em>-[4-(hexyloxy)phenyl]-;Boronic acid, [4-(hexyloxy)phenyl]-;<em>B</em>-[4-(Hexyloxy)phenyl]boronic acid;(4-Hexyloxyphenyl)boronic acid;4-Hexyloxybenzeneboronic acid;<em>p</em>-Hexyloxyphenylboronic acid;Para-hexyloxyphenylboronic acid;4-(<em>n</em>-Hexyl-1-oxy)phenylboronic acid;(4-Hexoxyphenyl)boronic acid",
    "duplicated_cas_no": "",
    "SMILES": "O(CCCCCC)C1=CC=C(B(O)O)C=C1",
    "meta_data": {
        "InChI": "InChI=1S/C12H19BO3/c1-2-3-4-5-10-16-12-8-6-11(7-9-12)13(14)15/h6-9,14-15H,2-5,10H2,1H3",
        "InChIKey": null,
        "Canonical SMILES": "OB(O)C1=CC=C(OCCCCCC)C=C1",
        "Molecular Formula": "C<sub>12</sub>H<sub>19</sub>BO<sub>3</sub>",
        "Molecular Mass": "222.09",
        "Melting Point": "89-91 °C"
    }
}