{
    "cas_no": "19983-44-9",
    "key_name": "Stattic",
    "cn_name": null,
    "alternate_name": "Benzo[<em>b</em>]thiophene, 6-nitro-, 1,1-dioxide;6-Nitrobenzo[<em>b</em>]thiophene 1,1-dioxide;Stattic",
    "duplicated_cas_no": "",
    "SMILES": "O=S1(=O)C=2C(C=C1)=CC=C(N(=O)=O)C2",
    "meta_data": {
        "InChI": "InChI=1S/C8H5NO4S/c10-9(11)7-2-1-6-3-4-14(12,13)8(6)5-7/h1-5H",
        "InChIKey": null,
        "Canonical SMILES": "O=N(=O)C=1C=CC=2C=CS(=O)(=O)C2C1",
        "Molecular Formula": "C<sub>8</sub>H<sub>5</sub>NO<sub>4</sub>S",
        "Molecular Mass": "211.19",
        "Melting Point": "187-188 °C"
    }
}