{
    "cas_no": "26519-91-5",
    "key_name": "Methylcyclopentadiene",
    "cn_name": null,
    "alternate_name": "1,3-Cyclopentadiene, methyl-;Cyclopentadiene, methyl-;Methyl-1,3-cyclopentadiene;Methylcyclopentadiene;Monomethylcyclopentadiene",
    "duplicated_cas_no": "",
    "SMILES": "",
    "meta_data": {
        "InChI": "",
        "InChIKey": null,
        "Canonical SMILES": "",
        "Molecular Formula": "C<sub>6</sub>H<sub>8</sub>",
        "Molecular Mass": "",
        "Boiling Point": "70-73 °C",
        "Density": "0.804 g/cm³ @ Temp: 20 °C"
    }
}