{
    "cas_no": "520-34-3",
    "key_name": "Diosmetin",
    "cn_name": "香叶木素;香叶木素;",
    "alternate_name": "4<em>H</em>-1-Benzopyran-4-one, 5,7-dihydroxy-2-(3-hydroxy-4-methoxyphenyl)-;Diosmetin;Flavone, 3′,5,7-trihydroxy-4′-methoxy-;5,7-Dihydroxy-2-(3-hydroxy-4-methoxyphenyl)-4<em>H</em>-1-benzopyran-4-one;Diosmetol;Diosmetine;3′,5,7-Trihydroxy-4′-methoxyflavone;Luteolin 4′-methyl ether;5,7,3′-Trihydroxy-4′-methoxyflavone;4′-Methylluteolin;Pillon",
    "duplicated_cas_no": "",
    "SMILES": "O=C1C=2C(OC(=C1)C3=CC(O)=C(OC)C=C3)=CC(O)=CC2O",
    "meta_data": {
        "InChI": "InChI=1S/C16H12O6/c1-21-13-3-2-8(4-10(13)18)14-7-12(20)16-11(19)5-9(17)6-15(16)22-14/h2-7,17-19H,1H3",
        "InChIKey": null,
        "Canonical SMILES": "O=C1C=C(OC=2C=C(O)C=C(O)C12)C=3C=CC(OC)=C(O)C3",
        "Molecular Formula": "C<sub>16</sub>H<sub>12</sub>O<sub>6</sub>",
        "Molecular Mass": "300.26",
        "Melting Point": "253.5 °C"
    }
}