{
    "cas_no": "20201-24-5",
    "key_name": "Ethyl 3-methyl-2-oxobutanoate",
    "cn_name": "3-甲基-2-氧代丁酰乙酯;",
    "alternate_name": "Butanoic acid, 3-methyl-2-oxo-, ethyl ester;Butyric acid, 3-methyl-2-oxo-, ethyl ester;Ethyl α-ketoisovalerate;Ethyl 3-methyl-2-oxobutanoate;Ethyl 3-methyl-2-oxobutyrate;Ethyl 2-oxo-3-methylbutyrate;Ethyl 2-oxo-3-methylbutanoate;Ethyl isopropylglyoxylate;3-Methyl-2-oxobutanoic acid ethyl ester;2-Oxo-3-methylbutyric acid ethyl ester",
    "duplicated_cas_no": "",
    "SMILES": "C(C(OCC)=O)(C(C)C)=O",
    "meta_data": {
        "InChI": "InChI=1S/C7H12O3/c1-4-10-7(9)6(8)5(2)3/h5H,4H2,1-3H3",
        "InChIKey": null,
        "Canonical SMILES": "O=C(OCC)C(=O)C(C)C",
        "Molecular Formula": "C<sub>7</sub>H<sub>12</sub>O<sub>3</sub>",
        "Molecular Mass": "144.17",
        "Boiling Point": "65.5 °C @ Press: 16 Torr",
        "Density": "0.973 g/cm³ @ Temp: 20 °C"
    }
}