{
    "cas_no": "6320-42-9",
    "key_name": "7-Hydroxy-2-methyl-4<em>H</em>-1-benzopyran-4-one",
    "cn_name": null,
    "alternate_name": "4<em>H</em>-1-Benzopyran-4-one, 7-hydroxy-2-methyl-;Chromone, 7-hydroxy-2-methyl-;7-Hydroxy-2-methyl-4<em>H</em>-1-benzopyran-4-one;7-Hydroxy-2-methylchromone;NSC 31894",
    "duplicated_cas_no": "",
    "SMILES": "O=C1C=2C(OC(C)=C1)=CC(O)=CC2",
    "meta_data": {
        "InChI": "InChI=1S/C10H8O3/c1-6-4-9(12)8-3-2-7(11)5-10(8)13-6/h2-5,11H,1H3",
        "InChIKey": null,
        "Canonical SMILES": "O=C1C=C(OC2=CC(O)=CC=C12)C",
        "Molecular Formula": "C<sub>10</sub>H<sub>8</sub>O<sub>3</sub>",
        "Molecular Mass": "176.17",
        "Melting Point": "253-254 °C"
    }
}