{
    "cas_no": "59-47-2",
    "key_name": "(±)-Mephenesin",
    "cn_name": "甲酚甘油醚;3-(2-甲基苯氧基)-1,2-丙烷二醇;",
    "alternate_name": "1,2-Propanediol, 3-(2-methylphenoxy)-;1,2-Propanediol, 3-(<em>o</em>-tolyloxy)-;3-(2-Methylphenoxy)-1,2-propanediol;BDH 312;RP 3602;Atensin;Avosyl;<em>o</em>-Cresyl α-glyceryl ether;Daserol;Decontractyl;1,2-Dihydroxy-3-(2-methylphenoxy)propane;Dioloxol;Glykresin;Glyotol;Kinavosyl;Lissephen;Mephedan;Mephelor;Mephenesin;Mephenesine;Mephensin;Mepherol;Mephson;3-(<em>o</em>-Methylphenoxy)-1,2-propanediol;Myanesin;Myanol;Myasin;Mycocuran;Myodetensine;Myopan;Myoserol;Myoten;Myoxane;Oranixon;Prolax;Relaxar;Relaxil;Sinan;Spartoloxyn;Spasmolyn;Stilalgin;Thoxidil;Tolansin;Tolax;Tolcil;Tolhart;Tolosate;Toloxyn;3-<em>o</em>-Toloxy-1,2-propanediol;Tolserol;Tolseron;Tolsin;Tolulexin;Tolulox;Tolyspaz;Cresoxydiol;3-(<em>o</em>-Tolyloxy)-1,2-propanediol;Glyceryl <em>o</em>-tolyl ether;<em>o</em>-Cresyl glycerol ether;Cresoxypropanediol;Avoxyl;Curythan;Memphenesin;Mephesin;Myolysin;Renarcol;Sansdolor;Walconesin;Mervaldin;Mephin;Daserd;Myodetensin;3-(2-Tolyloxy)-1,2-propanediol;3-(2-Methylphenoxy)propane-1,2-diol;(±)-Mephenesin;Rhex;NSC 25234;NSC 36140;NSC 50788;NSC 8134;MeSH ID: D008615",
    "duplicated_cas_no": "118205-96-2",
    "SMILES": "O(CC(CO)O)C1=C(C)C=CC=C1",
    "meta_data": {
        "InChI": "InChI=1S/C10H14O3/c1-8-4-2-3-5-10(8)13-7-9(12)6-11/h2-5,9,11-12H,6-7H2,1H3",
        "InChIKey": null,
        "Canonical SMILES": "OCC(O)COC=1C=CC=CC1C",
        "Molecular Formula": "C<sub>10</sub>H<sub>14</sub>O<sub>3</sub>",
        "Molecular Mass": "182.22",
        "Boiling Point": "180-184 °C @ Press: 9 Torr",
        "Melting Point": "70 °C (decomp)"
    }
}