{
    "cas_no": "6344-62-3",
    "key_name": "1-Aminofluorenone",
    "cn_name": "1-氨基-9-芴酮;",
    "alternate_name": "9<em>H</em>-Fluoren-9-one, 1-amino-;Fluoren-9-one, 1-amino-;1-Amino-9<em>H</em>-fluoren-9-one;1-Aminofluorenone;1-Aminofluoren-9-one;NSC 51311",
    "duplicated_cas_no": "",
    "SMILES": "O=C1C=2C(C=3C1=CC=CC3)=CC=CC2N",
    "meta_data": {
        "InChI": "InChI=1S/C13H9NO/c14-11-7-3-6-9-8-4-1-2-5-10(8)13(15)12(9)11/h1-7H,14H2",
        "InChIKey": null,
        "Canonical SMILES": "O=C1C=2C=CC=CC2C=3C=CC=C(N)C13",
        "Molecular Formula": "C<sub>13</sub>H<sub>9</sub>NO",
        "Molecular Mass": "195.22",
        "Melting Point": "118-118.5 °C"
    }
}