{
    "cas_no": "128455-63-0",
    "key_name": "5-Chloro-1-methyl-3-(trifluoromethyl)-1<em>H</em>-pyrazole-4-carboxylic acid",
    "cn_name": null,
    "alternate_name": "1<em>H</em>-Pyrazole-4-carboxylic acid, 5-chloro-1-methyl-3-(trifluoromethyl)-;5-Chloro-1-methyl-3-(trifluoromethyl)-1<em>H</em>-pyrazole-4-carboxylic acid;1-Methyl-3-trifluoromethyl-5-chloropyrazole-4-carboxylic acid;5-Chloro-1-methyl-3-trifluoromethyl-4-pyrazolecarboxylic acid;3-(Trifluoromethyl)-5-chloro-1-methyl-1<em>H</em>-pyrazole-4-carboxylic acid",
    "duplicated_cas_no": "",
    "SMILES": "C(O)(=O)C=1C(C(F)(F)F)=NN(C)C1Cl",
    "meta_data": {
        "InChI": "InChI=1S/C6H4ClF3N2O2/c1-12-4(7)2(5(13)14)3(11-12)6(8,9)10/h1H3,(H,13,14)",
        "InChIKey": null,
        "Canonical SMILES": "O=C(O)C1=C(Cl)N(N=C1C(F)(F)F)C",
        "Molecular Formula": "C<sub>6</sub>H<sub>4</sub>ClF<sub>3</sub>N<sub>2</sub>O<sub>2</sub>",
        "Molecular Mass": "228.56",
        "Melting Point": "198-201 °C"
    }
}