{
    "cas_no": "762287-58-1",
    "key_name": "2-Fluoro-3-methylphenylboronic acid",
    "cn_name": null,
    "alternate_name": "Boronic acid, <em>B</em>-(2-fluoro-3-methylphenyl)-;Boronic acid, (2-fluoro-3-methylphenyl)-;<em>B</em>-(2-Fluoro-3-methylphenyl)boronic acid;2-Fluoro-3-methylphenylboronic acid",
    "duplicated_cas_no": "",
    "SMILES": "B(O)(O)C1=C(F)C(C)=CC=C1",
    "meta_data": {
        "InChI": "InChI=1S/C7H8BFO2/c1-5-3-2-4-6(7(5)9)8(10)11/h2-4,10-11H,1H3",
        "InChIKey": null,
        "Canonical SMILES": "FC=1C(=CC=CC1C)B(O)O",
        "Molecular Formula": "C<sub>7</sub>H<sub>8</sub>BFO<sub>2</sub>",
        "Molecular Mass": "153.95",
        "Melting Point": "160-161 °C"
    }
}