{
    "cas_no": "1171-47-7",
    "key_name": "2,2-Bis(4-carboxyphenyl)hexafluoropropane",
    "cn_name": "2,2-双(4-羧基苯基)六氟丙烷;",
    "alternate_name": "Benzoic acid, 4,4′-[2,2,2-trifluoro-1-(trifluoromethyl)ethylidene]bis-;Benzoic acid, 4,4′-[trifluoro-1-(trifluoromethyl)ethylidene]di-;Benzoic acid, 4,4′-[2,2,2-trifluoro-1-(trifluoromethyl)ethylidene]di-;4,4′-[2,2,2-Trifluoro-1-(trifluoromethyl)ethylidene]bis[benzoic acid];4,4′-(Hexafluoroisopropylidene)dibenzoic acid;2,2-Bis(<em>p</em>-carboxyphenyl)hexafluoropropane;2,2-Bis(4-carboxyphenyl)hexafluoropropane;Hexafluoro-2,2-bis(4-carboxyphenyl)propane;4,4′-Hexafluoroisopropylidenediphenyl-1,1′-dicarboxylic acid;4,4′-(Hexafluoroisopropylidene)bis[benzoic acid];4,4′-(1,1,1,3,3,3-Hexafluoropropane-2,2-diyl)dibenzoic acid;2,2-Bis(4-carboxylphenyl)-1,1,1,3,3,3-hexafluoropropane;2,2-Bis(4-carboxyphenyl)-1,1,1,3,3,3-hexafluoropropane",
    "duplicated_cas_no": "936941-90-1",
    "SMILES": "C(C(F)(F)F)(C(F)(F)F)(C1=CC=C(C(O)=O)C=C1)C2=CC=C(C(O)=O)C=C2",
    "meta_data": {
        "InChI": "InChI=1S/C17H10F6O4/c18-16(19,20)15(17(21,22)23,11-5-1-9(2-6-11)13(24)25)12-7-3-10(4-8-12)14(26)27/h1-8H,(H,24,25)(H,26,27)",
        "InChIKey": null,
        "Canonical SMILES": "O=C(O)C1=CC=C(C=C1)C(C2=CC=C(C=C2)C(=O)O)(C(F)(F)F)C(F)(F)F",
        "Molecular Formula": "C<sub>17</sub>H<sub>10</sub>F<sub>6</sub>O<sub>4</sub>",
        "Molecular Mass": "392.25",
        "Melting Point": "296 °C"
    }
}