{
    "cas_no": "83-79-4",
    "key_name": "Rotenone",
    "cn_name": "鱼藤酮;鱼藤精;鱼藤素;(2R,6aS,12aS)-1,2,6,6a,12,12a-六氢-2-(1-甲基乙烯基)-8,9-二甲氧基苯并吡喃[3,4-b];",
    "alternate_name": "[1]Benzopyrano[3,4-<em>b</em>]furo[2,3-<em>h</em>][1]benzopyran-6(6a<em>H</em>)-one, 1,2,12,12a-tetrahydro-8,9-dimethoxy-2-(1-methylethenyl)-, (2<em>R</em>,6a<em>S</em>,12a<em>S</em>)-;Rotenone;[1]Benzopyrano[3,4-<em>b</em>]furo[2,3-<em>h</em>][1]benzopyran-6(6aα<em>H</em>)-one, 1,2,12,12aα-tetrahydro-2α-isopropenyl-8,9-dimethoxy-;[1]Benzopyrano[3,4-<em>b</em>]furo[2,3-<em>h</em>][1]benzopyran-6(6a<em>H</em>)-one, 1,2,12,12a-tetrahydro-8,9-dimethoxy-2-(1-methylethenyl)-, [2<em>R</em>-(2α,6aα,12aα)]-;(2<em>R</em>,6a<em>S</em>,12a<em>S</em>)-1,2,12,12a-Tetrahydro-8,9-dimethoxy-2-(1-methylethenyl)[1]benzopyrano[3,4-<em>b</em>]furo[2,3-<em>h</em>][1]benzopyran-6(6a<em>H</em>)-one;Derrin;Nicouline;Ronone;Rotenon;Rotocide;Tubatoxin;5′β-Rotenone;Derris (insecticide);(-)-Rotenone;Dactinol;Liquid Derris;Cube-Pulver;Deril;Paraderil;Noxfish;Dri-kil;Derris;Rotenox;(-)-<em>cis</em>-Rotenone;NSC 26258;NSC 8505;Rotena;CFT Legumine;TIFA Chem Fish;Chem Fish;Prentox Prenfish Toxicant;Prentox Prenfish;Prenfish Toxicant;Cuberol;Fish Tox 5;Fish Tox;Noxfire;Rotacide;Rotacide EC;Sinid;Tox-R;Curex flea duster;Cenol Garden Dust;Chem-Mite;Green cross warble powder;YuTengTong;MeSH ID: D012402",
    "duplicated_cas_no": "12679-58-2",
    "SMILES": "O=C1C=2C(=C3C(O[C@@H](C(C)=C)C3)=CC2)O[C@]4([C@@]1(C=5C(OC4)=CC(OC)=C(OC)C5)[H])[H]",
    "meta_data": {
        "InChI": "InChI=1S/C23H22O6/c1-11(2)16-8-14-15(28-16)6-5-12-22(24)21-13-7-18(25-3)19(26-4)9-17(13)27-10-20(21)29-23(12)14/h5-7,9,16,20-21H,1,8,10H2,2-4H3/t16-,20-,21+/m1/s1",
        "InChIKey": null,
        "Canonical SMILES": "O=C1C2=CC=C3OC(C(=C)C)CC3=C2OC4COC5=CC(OC)=C(OC)C=C5C14",
        "Molecular Formula": "C<sub>23</sub>H<sub>22</sub>O<sub>6</sub>",
        "Molecular Mass": "394.42",
        "Boiling Point": "210-220 °C @ Press: 0.5 Torr",
        "Melting Point": "165-166 °C",
        "Density": "1.27 g/cm³ @ Temp: 20 °C"
    }
}