{
    "cas_no": "107-31-3",
    "key_name": "Methyl formate",
    "cn_name": "甲酸甲酯;",
    "alternate_name": "Formic acid, methyl ester;Methyl formate;Methyl methanoate;Methanoic acid methyl ester;R 611;Greenmate",
    "duplicated_cas_no": "1053659-55-4;1173023-73-8;1196157-81-9",
    "SMILES": "C(OC)=O",
    "meta_data": {
        "InChI": "InChI=1S/C2H4O2/c1-4-2-3/h2H,1H3",
        "InChIKey": null,
        "Canonical SMILES": "O=COC",
        "Molecular Formula": "C<sub>2</sub>H<sub>4</sub>O<sub>2</sub>",
        "Molecular Mass": "60.05",
        "Boiling Point": "31.5 °C",
        "Melting Point": "-99.8 °C",
        "Density": "0.987 g/cm³ @ Temp: 15 °C"
    }
}