{
    "cas_no": "1624-01-7",
    "key_name": "Tetrakis(dimethylamino)silane",
    "cn_name": "四(二甲基氨基)硅烷;四(二甲基氨基)硅烷,99%;四(二甲基氨基)硅烷;四(二甲基氨)硅烷;",
    "alternate_name": "Silanetetramine, <em>N</em>,<em>N</em>,<em>N</em>′,<em>N</em>′,<em>N</em>′′,<em>N</em>′′,<em>N</em>′′′,<em>N</em>′′′-octamethyl-;Silanetetramine, octamethyl-;<em>N</em>,<em>N</em>,<em>N</em>′,<em>N</em>′,<em>N</em>′′,<em>N</em>′′,<em>N</em>′′′,<em>N</em>′′′-Octamethylsilanetetramine;Octamethylsilanetetramine;Tetrakis(dimethylamino)silane;Tetrakis(dimethylamido)silicon;NSC 130238;Tetra(dimethylamino)silane;Tetrakis(dimethylamino)silicon",
    "duplicated_cas_no": "",
    "SMILES": "[Si](N(C)C)(N(C)C)(N(C)C)N(C)C",
    "meta_data": {
        "InChI": "InChI=1S/C8H24N4Si/c1-9(2)13(10(3)4,11(5)6)12(7)8/h1-8H3",
        "InChIKey": null,
        "Canonical SMILES": "N(C)(C)[Si](N(C)C)(N(C)C)N(C)C",
        "Molecular Formula": "C<sub>8</sub>H<sub>24</sub>N<sub>4</sub>Si",
        "Molecular Mass": "204.39",
        "Boiling Point": "74-75 °C @ Press: 19 Torr",
        "Melting Point": "16 °C",
        "Density": "0.885 g/cm³"
    }
}