{
    "cas_no": "18824-63-0",
    "key_name": "1,1-Dimethoxynonane",
    "cn_name": null,
    "alternate_name": "Nonane, 1,1-dimethoxy-;Nonanal, dimethyl acetal;1,1-Dimethoxynonane;Pelargonic aldehyde dimethyl acetal;Pelargonaldehyde dimethyl acetal",
    "duplicated_cas_no": "",
    "SMILES": "C(CCCCCCCC)(OC)OC",
    "meta_data": {
        "InChI": "InChI=1S/C11H24O2/c1-4-5-6-7-8-9-10-11(12-2)13-3/h11H,4-10H2,1-3H3",
        "InChIKey": null,
        "Canonical SMILES": "O(C)C(OC)CCCCCCCC",
        "Molecular Formula": "C<sub>11</sub>H<sub>24</sub>O<sub>2</sub>",
        "Molecular Mass": "188.31",
        "Boiling Point": "96-98 °C @ Press: 15 Torr",
        "Density": "0.8733 g/cm³ @ Temp: 18 °C"
    }
}