{
    "cas_no": "637-65-0",
    "key_name": "Tetrahydrofurfuryl propionate",
    "cn_name": "四氢糠醇丙酸酯;",
    "alternate_name": "2-Furanmethanol, tetrahydro-, 2-propanoate;Furfuryl alcohol, tetrahydro-, propionate;2-Furanmethanol, tetrahydro-, propanoate;Propionic acid, tetrahydrofurfuryl ester;Tetrahydrofurfuryl propionate;ENT 4296;(Oxolan-2-yl)methyl propanoate;(Tetrahydrofuran-2-yl)methylpropionate",
    "duplicated_cas_no": "",
    "SMILES": "C(OC(CC)=O)C1CCCO1",
    "meta_data": {
        "InChI": "InChI=1S/C8H14O3/c1-2-8(9)11-6-7-4-3-5-10-7/h7H,2-6H2,1H3",
        "InChIKey": null,
        "Canonical SMILES": "O=C(OCC1OCCC1)CC",
        "Molecular Formula": "C<sub>8</sub>H<sub>14</sub>O<sub>3</sub>",
        "Molecular Mass": "158.20",
        "Boiling Point": "205.5 °C"
    }
}