{
    "cas_no": "107-97-1",
    "key_name": "Sarcosine",
    "cn_name": "肌氨酸;N-甲基氨基乙酸;",
    "alternate_name": "Glycine, <em>N</em>-methyl-;Sarcosine;<em>N</em>-Methylglycine;Acetic acid, (methylamino)-;(Methylamino)acetic acid;<em>N</em>-Methylaminoacetic acid;(Methylamino)ethanoic acid;Sarcosinic acid;Sarcosin;Methylglycine;2-(Methylamino)acetic acid;2-(Methylazaniumyl)acetate;H-NMeGly-OH;MeSH ID: D012521",
    "duplicated_cas_no": "783292-49-9",
    "SMILES": "C(C(O)=O)NC",
    "meta_data": {
        "InChI": "InChI=1S/C3H7NO2/c1-4-2-3(5)6/h4H,2H2,1H3,(H,5,6)",
        "InChIKey": null,
        "Canonical SMILES": "O=C(O)CNC",
        "Molecular Formula": "C<sub>3</sub>H<sub>7</sub>NO<sub>2</sub>",
        "Molecular Mass": "89.09",
        "Melting Point": "212.5 °C (decomp)"
    }
}