{
    "cas_no": "75-02-5",
    "key_name": "Fluoroethylene",
    "cn_name": "氟乙烯;氟乙烯；乙烯基氟;",
    "alternate_name": "Ethene, fluoro-;Ethylene, fluoro-;Fluoroethene;Fluoroethylene;Vinyl fluoride;Monofluoroethylene;Monofluoroethene;1-Fluoroethene;1-Fluoroethylene;R 1141;FC 1141;HFO-1141",
    "duplicated_cas_no": "1800084-77-8;2253988-70-2",
    "SMILES": "C(=C)F",
    "meta_data": {
        "InChI": "InChI=1S/C2H3F/c1-2-3/h2H,1H2",
        "InChIKey": null,
        "Canonical SMILES": "FC=C",
        "Molecular Formula": "C<sub>2</sub>H<sub>3</sub>F",
        "Molecular Mass": "46.04",
        "Boiling Point": "-72 °C",
        "Melting Point": "-160.5 °C"
    }
}