{
    "cas_no": "25569-53-3",
    "key_name": "Ethylene glycol-succinic acid copolymer",
    "cn_name": "聚乙二醇丁二酸酯;丁二酸乙二醇聚酯;",
    "alternate_name": "Butanedioic acid, polymer with 1,2-ethanediol;Succinic acid, polyester with ethylene glycol;Ethylene glycol, polyester with succinic acid;1,2-Ethanediol, polymer with butanedioic acid;Ethylene glycol-succinic acid polymer;Poly(ethylene succinate);Ethylene glycol-succinic acid copolymer;Butanedioic acid-ethylene glycol copolymer;Succinic acid-ethylene glycol copolymer;Poly(ethylene succinate) monomer based;1,2-Ethanediol-succinic acid copolymer;Ethylene glycol-1,4-butanedioic acid copolymer;1,4-Butanedioic acid-ethylene glycol copolymer",
    "duplicated_cas_no": "331745-56-3;331745-57-4;2376707-35-4",
    "SMILES": "C(CC(O)=O)C(O)=O.C(CO)O",
    "meta_data": {
        "InChI": "InChI=1S/C4H6O4.C2H6O2/c5-3(6)1-2-4(7)8;3-1-2-4/h1-2H2,(H,5,6)(H,7,8);3-4H,1-2H2",
        "InChIKey": null,
        "Canonical SMILES": "O=C(O)CCC(=O)O.OCCO",
        "Molecular Formula": "(C<sub>4</sub>H<sub>6</sub>O<sub>4</sub>.C<sub>2</sub>H<sub>6</sub>O<sub>2</sub>)<sub>x</sub>",
        "Molecular Mass": "",
        "Melting Point": "103.9 °C"
    }
}