{
    "cas_no": "99-10-5",
    "key_name": "3,5-Dihydroxybenzoic acid",
    "cn_name": "3,5-二羟基苯甲酸;",
    "alternate_name": "Benzoic acid, 3,5-dihydroxy-;α-Resorcylic acid;3,5-Dihydroxybenzoic acid;5-Carboxyresorcinol;NSC 22948;CY-Y 3Y",
    "duplicated_cas_no": "",
    "SMILES": "C(O)(=O)C1=CC(O)=CC(O)=C1",
    "meta_data": {
        "InChI": "InChI=1S/C7H6O4/c8-5-1-4(7(10)11)2-6(9)3-5/h1-3,8-9H,(H,10,11)",
        "InChIKey": null,
        "Canonical SMILES": "O=C(O)C=1C=C(O)C=C(O)C1",
        "Molecular Formula": "C<sub>7</sub>H<sub>6</sub>O<sub>4</sub>",
        "Molecular Mass": "154.12",
        "Melting Point": "237 °C (decomp)"
    }
}