{
    "cas_no": "404-82-0",
    "key_name": "Fenfluramine hydrochloride",
    "cn_name": "盐酸芬氟拉明;N-乙基-alpha-甲基-3-三氟甲基苯乙胺盐酸盐;",
    "alternate_name": "Benzeneethanamine, <em>N</em>-ethyl-α-methyl-3-(trifluoromethyl)-, hydrochloride (1:1);Phenethylamine, <em>N</em>-ethyl-α-methyl-<em>m</em>-(trifluoromethyl)-, hydrochloride;Benzeneethanamine, <em>N</em>-ethyl-α-methyl-3-(trifluoromethyl)-, hydrochloride;HHR-965;<em>N</em>-Ethyl-α-methyl-<em>m</em>-(trifluoromethyl)phenethylamine hydrochloride;Fenfluramine hydrochloride;Ponderal;Ponderax;Ponderex;1-(<em>m</em>-Trifluoromethylphenyl)-2-(ethylamino)propane hydrochloride;Ganal;Pondimin;(±)-Fenfluramine chloride;(±)-Fenfluramine hydrochloride;<em>dl</em>-Fenfluramine hydrochloride;Racemic fenfluramine hydrochloride;Pondmin;S 768;ZX 008;Fintepla",
    "duplicated_cas_no": "16105-77-4",
    "SMILES": "C(C(NCC)C)C1=CC(C(F)(F)F)=CC=C1.Cl",
    "meta_data": {
        "InChI": "InChI=1S/C12H16F3N.ClH/c1-3-16-9(2)7-10-5-4-6-11(8-10)12(13,14)15;/h4-6,8-9,16H,3,7H2,1-2H3;1H",
        "InChIKey": null,
        "Canonical SMILES": "Cl.FC(F)(F)C=1C=CC=C(C1)CC(NCC)C",
        "Molecular Formula": "C<sub>12</sub>H<sub>16</sub>F<sub>3</sub>N.ClH",
        "Molecular Mass": "",
        "Boiling Point": "108-112 °C @ Press: 12 Torr",
        "Melting Point": "160-161 °C"
    }
}