{
    "cas_no": "61296-22-8",
    "key_name": "2-Thiazolamine, 5-bromo-, hydrobromide (1:1)",
    "cn_name": "2-氨基-5-溴-噻唑氢溴酸盐;",
    "alternate_name": "2-Thiazolamine, 5-bromo-, hydrobromide (1:1);2-Thiazolamine, 5-bromo-, monohydrobromide;2-Amino-5-bromo-1,3-thiazole hydrobromide;5-Bromo-2-aminothiazole hydrobromide;2-Amino-5-bromothiazole hydrobromide;5-Bromo-1,3-thiazol-2-amine hydrobromide;2-Amino-5-bromothiazole monohydrobromide;(5-Bromothiazol-2-yl)amine hydrobromide;5-Bromothiazol-2-amine hydrobromide",
    "duplicated_cas_no": "",
    "SMILES": "BrC=1SC(N)=NC1.Br",
    "meta_data": {
        "InChI": "InChI=1S/C3H3BrN2S.BrH/c4-2-1-6-3(5)7-2;/h1H,(H2,5,6);1H",
        "InChIKey": null,
        "Canonical SMILES": "Br.BrC=1SC(=NC1)N",
        "Molecular Formula": "C<sub>3</sub>H<sub>3</sub>BrN<sub>2</sub>S.BrH",
        "Molecular Mass": "",
        "Melting Point": "163-164 °C"
    }
}