{
    "cas_no": "594-89-8",
    "key_name": "1,1,1,2,2,3,3-Heptachloropropane",
    "cn_name": "七氯丙烷;",
    "alternate_name": "Propane, 1,1,1,2,2,3,3-heptachloro-;1,1,1,2,2,3,3-Heptachloropropane;1,1,2,2,3,3,3-Heptachloropropane;NSC 7298",
    "duplicated_cas_no": "",
    "SMILES": "C(C(Cl)(Cl)Cl)(C(Cl)Cl)(Cl)Cl",
    "meta_data": {
        "InChI": "InChI=1S/C3HCl7/c4-1(5)2(6,7)3(8,9)10/h1H",
        "InChIKey": null,
        "Canonical SMILES": "ClC(Cl)C(Cl)(Cl)C(Cl)(Cl)Cl",
        "Molecular Formula": "C<sub>3</sub>HCl<sub>7</sub>",
        "Molecular Mass": "285.21",
        "Boiling Point": "247.5 °C",
        "Melting Point": "29.4 °C",
        "Density": "1.8048 g/cm³ @ Temp: 34 °C"
    }
}