{
    "cas_no": "36997-31-6",
    "key_name": "1,3,5-Benzenetricarboxylic acid, trihydrazide",
    "cn_name": null,
    "alternate_name": "1,3,5-Benzenetricarboxylic acid, 1,3,5-trihydrazide;Trimesic acid trihydrazide;1,3,5-Benzenetricarboxylic acid, trihydrazide;Trimesic trihydrazide",
    "duplicated_cas_no": "",
    "SMILES": "C(NN)(=O)C1=CC(C(NN)=O)=CC(C(NN)=O)=C1",
    "meta_data": {
        "InChI": "InChI=1S/C9H12N6O3/c10-13-7(16)4-1-5(8(17)14-11)3-6(2-4)9(18)15-12/h1-3H,10-12H2,(H,13,16)(H,14,17)(H,15,18)",
        "InChIKey": null,
        "Canonical SMILES": "O=C(NN)C=1C=C(C=C(C1)C(=O)NN)C(=O)NN",
        "Molecular Formula": "C<sub>9</sub>H<sub>12</sub>N<sub>6</sub>O<sub>3</sub>",
        "Molecular Mass": "252.23",
        "Melting Point": "300 °C (decomp)"
    }
}