{
    "cas_no": "84954-92-7",
    "key_name": "Rosavin",
    "cn_name": null,
    "alternate_name": "β-<span class=\"text-smallcaps\">D</smallcap>-Glucopyranoside, (2<em>E</em>)-3-phenyl-2-propen-1-yl 6-<em>O</em>-α-<smallcap>L</span>-arabinopyranosyl-;β-<span class=\"text-smallcaps\">D</smallcap>-Glucopyranoside, 3-phenyl-2-propenyl 6-<em>O</em>-α-<smallcap>L</span>-arabinopyranosyl-, (<em>E</em>)-;β-<span class=\"text-smallcaps\">D</smallcap>-Glucopyranoside, (2<em>E</em>)-3-phenyl-2-propenyl 6-<em>O</em>-α-<smallcap>L</span>-arabinopyranosyl-;(2<em>E</em>)-3-Phenyl-2-propen-1-yl 6-<em>O</em>-α-<span class=\"text-smallcaps\">L</smallcap>-arabinopyranosyl-β-<smallcap>D</span>-glucopyranoside;Rosavin;Rosavidin",
    "duplicated_cas_no": "",
    "SMILES": "C(O[C@H]1[C@H](O)[C@@H](O)[C@@H](O)CO1)[C@H]2O[C@@H](OC/C=C/C3=CC=CC=C3)[C@H](O)[C@@H](O)[C@@H]2O",
    "meta_data": {
        "InChI": "InChI=1S/C20H28O10/c21-12-9-28-19(17(25)14(12)22)29-10-13-15(23)16(24)18(26)20(30-13)27-8-4-7-11-5-2-1-3-6-11/h1-7,12-26H,8-10H2/b7-4+/t12-,13+,14-,15+,16-,17+,18+,19-,20+/m0/s1",
        "InChIKey": null,
        "Canonical SMILES": "OC1COC(OCC2OC(OCC=CC=3C=CC=CC3)C(O)C(O)C2O)C(O)C1O",
        "Molecular Formula": "C<sub>20</sub>H<sub>28</sub>O<sub>10</sub>",
        "Molecular Mass": "428.43",
        "Melting Point": "97.0-99.0 °C"
    }
}