{
    "cas_no": "67973-32-4",
    "key_name": "3,5-Dibromo-4-methylbenzoic acid",
    "cn_name": "3,5-二溴-4-甲基苯甲酸;",
    "alternate_name": "Benzoic acid, 3,5-dibromo-4-methyl-;<em>p</em>-Toluic acid, 3,5-dibromo-;3,5-Dibromo-4-methylbenzoic acid",
    "duplicated_cas_no": "",
    "SMILES": "C(O)(=O)C1=CC(Br)=C(C)C(Br)=C1",
    "meta_data": {
        "InChI": "InChI=1S/C8H6Br2O2/c1-4-6(9)2-5(8(11)12)3-7(4)10/h2-3H,1H3,(H,11,12)",
        "InChIKey": null,
        "Canonical SMILES": "O=C(O)C1=CC(Br)=C(C(Br)=C1)C",
        "Molecular Formula": "C<sub>8</sub>H<sub>6</sub>Br<sub>2</sub>O<sub>2</sub>",
        "Molecular Mass": "293.94",
        "Melting Point": "239.5-240.5 °C"
    }
}