{
    "cas_no": "15674-67-6",
    "key_name": "β-Alanine, <em>N</em>,<em>N</em>-diethyl-, hydrochloride (1:1)",
    "cn_name": "3-二乙氨基丙酸盐酸盐;",
    "alternate_name": "β-Alanine, <em>N</em>,<em>N</em>-diethyl-, hydrochloride (1:1);β-Alanine, <em>N</em>,<em>N</em>-diethyl-, hydrochloride;3-(Diethylamino)propionic acid hydrochloride;3-(Diethylamino)propanoic acid hydrochloride;<em>N</em>,<em>N</em>-Diethyl-β-alanine hydrochloride;3-(<em>N</em>,<em>N</em>-Diethylamino)propionic acid hydrochloride",
    "duplicated_cas_no": "",
    "SMILES": "N(CCC(O)=O)(CC)CC.Cl",
    "meta_data": {
        "InChI": "InChI=1S/C7H15NO2.ClH/c1-3-8(4-2)6-5-7(9)10;/h3-6H2,1-2H3,(H,9,10);1H",
        "InChIKey": null,
        "Canonical SMILES": "Cl.O=C(O)CCN(CC)CC",
        "Molecular Formula": "C<sub>7</sub>H<sub>15</sub>NO<sub>2</sub>.ClH",
        "Molecular Mass": "",
        "Melting Point": "137-139 °C"
    }
}