{
    "cas_no": "7738-93-4",
    "key_name": "Androsta-1,4-diene-3,11,17-trione",
    "cn_name": null,
    "alternate_name": "Androsta-1,4-diene-3,11,17-trione;Δ<sup>1</sup>-Adrenosterone;NSC 82849;1-Dehydroadrenosterone",
    "duplicated_cas_no": "",
    "SMILES": "C[C@@]12[C@@]3([C@]([C@]4([C@](C)(CC3=O)C(=O)CC4)[H])(CCC1=CC(=O)C=C2)[H])[H]",
    "meta_data": {
        "InChI": "InChI=1S/C19H22O3/c1-18-8-7-12(20)9-11(18)3-4-13-14-5-6-16(22)19(14,2)10-15(21)17(13)18/h7-9,13-14,17H,3-6,10H2,1-2H3/t13-,14-,17+,18-,19-/m0/s1",
        "InChIKey": null,
        "Canonical SMILES": "O=C1C=CC2(C(=C1)CCC3C2C(=O)CC4(C(=O)CCC34)C)C",
        "Molecular Formula": "C<sub>19</sub>H<sub>22</sub>O<sub>3</sub>",
        "Molecular Mass": "298.38",
        "Melting Point": "193-195 °C"
    }
}