{
    "cas_no": "590-93-2",
    "key_name": "2-Butynoic acid",
    "cn_name": "2-丁炔酸;",
    "alternate_name": "2-Butynoic acid;Tetrolic acid;3-Methylpropiolic acid;1-Propynecarboxylic acid;Methylpropynoic acid;Methylacetylenecarboxylic acid;NSC 174116;Methylpropiolic acid",
    "duplicated_cas_no": "",
    "SMILES": "C(C(O)=O)#CC",
    "meta_data": {
        "InChI": "InChI=1S/C4H4O2/c1-2-3-4(5)6/h1H3,(H,5,6)",
        "InChIKey": null,
        "Canonical SMILES": "O=C(O)C#CC",
        "Molecular Formula": "C<sub>4</sub>H<sub>4</sub>O<sub>2</sub>",
        "Molecular Mass": "84.07",
        "Boiling Point": "203 °C",
        "Melting Point": "78 °C"
    }
}