{
    "cas_no": "1112-54-5",
    "key_name": "Ethenyltriethylsilane",
    "cn_name": "三乙基乙烯基硅烷;",
    "alternate_name": "Silane, ethenyltriethyl-;Silane, triethylvinyl-;Ethenyltriethylsilane;Triethylvinylsilane;Vinyltriethylsilane;Triethylsilylethene;(Ethenyl)triethylsilane",
    "duplicated_cas_no": "",
    "SMILES": "[Si](CC)(CC)(CC)C=C",
    "meta_data": {
        "InChI": "InChI=1S/C8H18Si/c1-5-9(6-2,7-3)8-4/h5H,1,6-8H2,2-4H3",
        "InChIKey": null,
        "Canonical SMILES": "C=C[Si](CC)(CC)CC",
        "Molecular Formula": "C<sub>8</sub>H<sub>18</sub>Si",
        "Molecular Mass": "142.31",
        "Boiling Point": "146-147 °C",
        "Density": "0.771 g/cm³"
    }
}