{
    "cas_no": "21392-57-4",
    "key_name": "5,7-Dimethoxyflavone",
    "cn_name": null,
    "alternate_name": "4<em>H</em>-1-Benzopyran-4-one, 5,7-dimethoxy-2-phenyl-;Flavone, 5,7-dimethoxy-;5,7-Dimethoxy-2-phenyl-4<em>H</em>-1-benzopyran-4-one;5,7-Dimethoxyflavone;Chrysin dimethyl ether;5,7-Dimethoxy-4-oxo-2-phenyl-4<em>H</em>-1-benzopyran;5,7-Dimethoxy-2-phenyl-4<em>H</em>-chromen-4-one;5,7-Di-<em>O</em>-methylchrysin;5,7-Di-<em>O</em>-methoxy chrysin",
    "duplicated_cas_no": "",
    "SMILES": "O(C)C1=C2C(OC(=CC2=O)C3=CC=CC=C3)=CC(OC)=C1",
    "meta_data": {
        "InChI": "InChI=1S/C17H14O4/c1-19-12-8-15(20-2)17-13(18)10-14(21-16(17)9-12)11-6-4-3-5-7-11/h3-10H,1-2H3",
        "InChIKey": null,
        "Canonical SMILES": "O=C1C=C(OC2=CC(OC)=CC(OC)=C12)C=3C=CC=CC3",
        "Molecular Formula": "C<sub>17</sub>H<sub>14</sub>O<sub>4</sub>",
        "Molecular Mass": "282.29",
        "Melting Point": "115-117 °C"
    }
}