{
    "cas_no": "7443-70-1",
    "key_name": "<em>cis</em>-2-Methylcyclohexanol",
    "cn_name": null,
    "alternate_name": "Cyclohexanol, 2-methyl-, (1<em>R</em>,2<em>S</em>)-<em>rel</em>-;Cyclohexanol, 2-methyl-, <em>cis</em>-;<em>rel</em>-(1<em>R</em>,2<em>S</em>)-2-Methylcyclohexanol;<em>cis</em>-2-Methylcyclohexanol;<em>cis</em>-2-Methyl-1-cyclohexanol;(±)-<em>cis</em>-2-Methylcyclohexanol;NSC 100902;<em>rel</em>-(1R,2S)-2-Methylcyclohexanol",
    "duplicated_cas_no": "615-38-3",
    "SMILES": "C[C@H]1[C@@H](O)CCCC1",
    "meta_data": {
        "InChI": "InChI=1/C7H14O/c1-6-4-2-3-5-7(6)8/h6-8H,2-5H2,1H3/t6-,7+/s2",
        "InChIKey": null,
        "Canonical SMILES": "OC1CCCCC1C",
        "Molecular Formula": "C<sub>7</sub>H<sub>14</sub>O",
        "Molecular Mass": "114.19",
        "Boiling Point": "165 °C",
        "Melting Point": "7 °C",
        "Density": "0.9280 g/cm³ @ Temp: 20 °C"
    }
}