{
    "cas_no": "54245-33-9",
    "key_name": "3-Bromo-2-naphthalenamine",
    "cn_name": null,
    "alternate_name": "2-Naphthalenamine, 3-bromo-;2-Naphthylamine, 3-bromo-;3-Bromo-2-naphthalenamine;3-Bromo-2-naphthylamine;2-Amino-3-bromonaphthalene;NSC 97229;3-Bromo-2-aminonaphthalene",
    "duplicated_cas_no": "",
    "SMILES": "BrC1=CC2=C(C=C1N)C=CC=C2",
    "meta_data": {
        "InChI": "InChI=1S/C10H8BrN/c11-9-5-7-3-1-2-4-8(7)6-10(9)12/h1-6H,12H2",
        "InChIKey": null,
        "Canonical SMILES": "BrC1=CC=2C=CC=CC2C=C1N",
        "Molecular Formula": "C<sub>10</sub>H<sub>8</sub>BrN",
        "Molecular Mass": "222.08",
        "Melting Point": "168 °C"
    }
}