{
    "cas_no": "1623-93-4",
    "key_name": "[1,1′-Biphenyl]-4-sulfonyl chloride",
    "cn_name": null,
    "alternate_name": "[1,1′-Biphenyl]-4-sulfonyl chloride;4-Biphenylsulfonyl chloride;4-(Chlorosulfonyl)biphenyl;<em>p</em>-Phenylbenzenesulfonyl chloride;(4-Biphenylyl)sulfonyl chloride;4-Phenylbenzenesulfonic acid chloride;4-Phenylbenzenesulfonyl chloride;<em>p</em>-Biphenylsulfonyl chloride;([1,1′-Biphenyl]-4-yl)sulfonyl chloride",
    "duplicated_cas_no": "",
    "SMILES": "S(Cl)(=O)(=O)C1=CC=C(C=C1)C2=CC=CC=C2",
    "meta_data": {
        "InChI": "InChI=1S/C12H9ClO2S/c13-16(14,15)12-8-6-11(7-9-12)10-4-2-1-3-5-10/h1-9H",
        "InChIKey": null,
        "Canonical SMILES": "O=S(=O)(Cl)C=1C=CC(=CC1)C=2C=CC=CC2",
        "Molecular Formula": "C<sub>12</sub>H<sub>9</sub>ClO<sub>2</sub>S",
        "Molecular Mass": "252.72",
        "Melting Point": "114-115 °C"
    }
}