{
    "cas_no": "18097-52-4",
    "key_name": "Methanone, (2-amino-5-chlorophenyl)phenyl-, oxime",
    "cn_name": "2-氨基-5-氯二苯酮肟;",
    "alternate_name": "Methanone, (2-amino-5-chlorophenyl)phenyl-, oxime;Benzophenone, 2-amino-5-chloro-, oxime;2-Amino-5-chlorobenzophenone oxime;5-Chloro-2-aminobenzophenone oxime;NSC 86144;(2-Amino-5-chlorophenyl)(phenyl)methanoneoxime;(2-Amino-5-chlorophenyl)-phenylmethanone oxime",
    "duplicated_cas_no": "",
    "SMILES": "C(=NO)(C1=C(N)C=CC(Cl)=C1)C2=CC=CC=C2",
    "meta_data": {
        "InChI": "InChI=1S/C13H11ClN2O/c14-10-6-7-12(15)11(8-10)13(16-17)9-4-2-1-3-5-9/h1-8,17H,15H2",
        "InChIKey": null,
        "Canonical SMILES": "ClC1=CC=C(N)C(=C1)C(=NO)C=2C=CC=CC2",
        "Molecular Formula": "C<sub>13</sub>H<sub>11</sub>ClN<sub>2</sub>O",
        "Molecular Mass": "246.69",
        "Melting Point": "164-167 °C"
    }
}