{
    "cas_no": "7697-46-3",
    "key_name": "2-Benzoylpyrrole",
    "cn_name": "2-苯甲酰基吡咯;",
    "alternate_name": "Methanone, phenyl-1<em>H</em>-pyrrol-2-yl-;Ketone, phenyl pyrrol-2-yl;Phenyl-1<em>H</em>-pyrrol-2-ylmethanone;2-Benzoylpyrrole;Pyrrol-2-yl phenyl ketone;Phenyl(1<em>H</em>-pyrrol-2-yl)methanone;NSC 75585;2-Benzoyl-1<em>H</em>-pyrrole;Phenyl pyrrol-2-yl ketone",
    "duplicated_cas_no": "",
    "SMILES": "C(=O)(C1=CC=CN1)C2=CC=CC=C2",
    "meta_data": {
        "InChI": "InChI=1S/C11H9NO/c13-11(10-7-4-8-12-10)9-5-2-1-3-6-9/h1-8,12H",
        "InChIKey": null,
        "Canonical SMILES": "O=C(C=1C=CC=CC1)C2=CC=CN2",
        "Molecular Formula": "C<sub>11</sub>H<sub>9</sub>NO",
        "Molecular Mass": "171.20",
        "Boiling Point": "175-180 °C @ Press: 0.25 Torr",
        "Melting Point": "78-79 °C"
    }
}