{
    "cas_no": "1684-14-6",
    "key_name": "2,3-Diphenylquinoxaline",
    "cn_name": "2,3-联苯基喹喔啉;2,3-二苯基喹喔啉;",
    "alternate_name": "Quinoxaline, 2,3-diphenyl-;2,3-Diphenylquinoxaline;2,3-Diphenyl-1,4-quinoxaline;NSC 15232",
    "duplicated_cas_no": "",
    "SMILES": "C=1(C(=NC2=C(N1)C=CC=C2)C3=CC=CC=C3)C4=CC=CC=C4",
    "meta_data": {
        "InChI": "InChI=1S/C20H14N2/c1-3-9-15(10-4-1)19-20(16-11-5-2-6-12-16)22-18-14-8-7-13-17(18)21-19/h1-14H",
        "InChIKey": null,
        "Canonical SMILES": "N1=C2C=CC=CC2=NC(C3=CC=CC=C3)=C1C=4C=CC=CC4",
        "Molecular Formula": "C<sub>20</sub>H<sub>14</sub>N<sub>2</sub>",
        "Molecular Mass": "282.34",
        "Melting Point": "124 °C"
    }
}