{
    "cas_no": "7631-95-0",
    "key_name": "Sodium molybdate (Na<sub>2</sub>MoO<sub>4</sub>)",
    "cn_name": "钼酸钠;",
    "alternate_name": "Molybdate (MoO<sub>4</sub><sup>2-</sup>), sodium (1:2), (<em>T</em>-4)-;Molybdic acid (H<sub>2</sub>MoO<sub>4</sub>), disodium salt;Molybdate (MoO<sub>4</sub><sup>2-</sup>), disodium, (<em>T</em>-4)-;Disodium molybdate;Sodium molybdenum oxide (Na<sub>2</sub>MoO<sub>4</sub>);Sodium molybdate (Na<sub>2</sub>MoO<sub>4</sub>);Disodium molybdate (Na<sub>2</sub>MoO<sub>4</sub>);Disodium tetraoxomolybdate(2-);Sodium molybdate;Sodium tetraoxomolybdate(2-);Sodium molybdenate (Na<sub>2</sub>MoO<sub>4</sub>);Disodium tetraoxomolybdate;Molybdenum sodium oxide (Na<sub>2</sub>MoO<sub>4</sub>);NSC 77389;Molybdenum sodium oxide (MoNa<sub>2</sub>O<sub>4</sub>);HS 458",
    "duplicated_cas_no": "14666-91-2;106463-33-6;1224508-55-7;1351977-28-0;2122817-03-0;2130740-17-7;2243916-43-8;2303937-63-3;2664845-88-7",
    "SMILES": "[Mo-2](=O)(=O)(=O)=O.[Na+]",
    "meta_data": {
        "InChI": "InChI=1S/Mo.2Na.4O/q-2;2*+1;;;;",
        "InChIKey": null,
        "Canonical SMILES": "[Na+].O=[Mo-2](=O)(=O)=O",
        "Molecular Formula": "MoO<sub>4</sub>.2Na",
        "Molecular Mass": "",
        "Melting Point": "685 °C"
    }
}