{
    "cas_no": "129-79-3",
    "key_name": "Trinitrofluorenone",
    "cn_name": "2,4,7-三硝基芴酮;2,4,7-三硝基芴酮;",
    "alternate_name": "9<em>H</em>-Fluoren-9-one, 2,4,7-trinitro-;Fluoren-9-one, 2,4,7-trinitro-;2,4,7-Trinitro-9<em>H</em>-fluoren-9-one;Trinitrofluorenone;2,4,7-Trinitrofluoren-9-one;2,4,7-Trinitrofluorenone;TNF (ketone);2,4,7-Trinitrofluorone;9-Oxo-2,4,7-trinitrofluorene;NSC 12367",
    "duplicated_cas_no": "",
    "SMILES": "N(=O)(=O)C1=C2C=3C(C(=O)C2=CC(N(=O)=O)=C1)=CC(N(=O)=O)=CC3",
    "meta_data": {
        "InChI": "InChI=1S/C13H5N3O7/c17-13-9-3-6(14(18)19)1-2-8(9)12-10(13)4-7(15(20)21)5-11(12)16(22)23/h1-5H",
        "InChIKey": null,
        "Canonical SMILES": "O=C1C=2C=C(C=CC2C3=C1C=C(C=C3N(=O)=O)N(=O)=O)N(=O)=O",
        "Molecular Formula": "C<sub>13</sub>H<sub>5</sub>N<sub>3</sub>O<sub>7</sub>",
        "Molecular Mass": "315.19",
        "Melting Point": "175.2-176 °C"
    }
}