{
    "cas_no": "1003-04-9",
    "key_name": "Tetrahydrothiophen-3-one",
    "cn_name": "四氢噻吩-3-酮;四氢噻吩酮;",
    "alternate_name": "3(2<em>H</em>)-Thiophenone, dihydro-;Dihydro-3(2<em>H</em>)-thiophenone;3-Thiophanone;3-Thiacyclopentanone;Tetrahydrothiophen-3-one;4,5-Dihydrothiophen-3(2<em>H</em>)-one;3-Oxo-2,3,4,5-tetrahydrothiophene;3-Oxotetrahydrothiophene;Thiolan-3-one;NSC 241151;Dihydrothiophen-3-one;Tetrahydrothien-3-one;Dihydrothien-3(2<em>H</em>)-one",
    "duplicated_cas_no": "",
    "SMILES": "O=C1CCSC1",
    "meta_data": {
        "InChI": "InChI=1S/C4H6OS/c5-4-1-2-6-3-4/h1-3H2",
        "InChIKey": null,
        "Canonical SMILES": "O=C1CSCC1",
        "Molecular Formula": "C<sub>4</sub>H<sub>6</sub>OS",
        "Molecular Mass": "102.15",
        "Boiling Point": "58.2-58.4 °C @ Press: 7 Torr"
    }
}