{
    "cas_no": "40497-11-8",
    "key_name": "Propanoic acid, 2,3-dicyano-, ethyl ester",
    "cn_name": "2,3-二氰基丙酸乙酯;",
    "alternate_name": "Propanoic acid, 2,3-dicyano-, ethyl ester;Propionic acid, 2,3-dicyano-, ethyl ester;Ethyl 2,3-dicyanopropionate;Ethyl 2,3-dicyanopropanoate;2,3-Dicyanopropionic acid ethyl ester;2,3-Dicyanopropanoic acid ethyl ester",
    "duplicated_cas_no": "1903014-12-9",
    "SMILES": "C(C(OCC)=O)(CC#N)C#N",
    "meta_data": {
        "InChI": "InChI=1S/C7H8N2O2/c1-2-11-7(10)6(5-9)3-4-8/h6H,2-3H2,1H3",
        "InChIKey": null,
        "Canonical SMILES": "N#CCC(C#N)C(=O)OCC",
        "Molecular Formula": "C<sub>7</sub>H<sub>8</sub>N<sub>2</sub>O<sub>2</sub>",
        "Molecular Mass": "152.15",
        "Boiling Point": "120-135 °C"
    }
}