{
    "cas_no": "2150-40-5",
    "key_name": "Benzoic acid, 2,5-dimethoxy-, methyl ester",
    "cn_name": null,
    "alternate_name": "Benzoic acid, 2,5-dimethoxy-, methyl ester;Methyl 2,5-dimethoxybenzoate",
    "duplicated_cas_no": "",
    "SMILES": "C(OC)(=O)C1=C(OC)C=CC(OC)=C1",
    "meta_data": {
        "InChI": "InChI=1S/C10H12O4/c1-12-7-4-5-9(13-2)8(6-7)10(11)14-3/h4-6H,1-3H3",
        "InChIKey": null,
        "Canonical SMILES": "O=C(OC)C1=CC(OC)=CC=C1OC",
        "Molecular Formula": "C<sub>10</sub>H<sub>12</sub>O<sub>4</sub>",
        "Molecular Mass": "196.20",
        "Boiling Point": "95-98 °C @ Press: 1 Torr"
    }
}