{
    "cas_no": "137628-17-2",
    "key_name": "2,3-Dibromo-5-chloropyridine",
    "cn_name": null,
    "alternate_name": "Pyridine, 2,3-dibromo-5-chloro-;2,3-Dibromo-5-chloropyridine",
    "duplicated_cas_no": "",
    "SMILES": "BrC1=C(Br)N=CC(Cl)=C1",
    "meta_data": {
        "InChI": "InChI=1S/C5H2Br2ClN/c6-4-1-3(8)2-9-5(4)7/h1-2H",
        "InChIKey": null,
        "Canonical SMILES": "ClC1=CN=C(Br)C(Br)=C1",
        "Molecular Formula": "C<sub>5</sub>H<sub>2</sub>Br<sub>2</sub>ClN",
        "Molecular Mass": "271.34",
        "Melting Point": "38-41 °C"
    }
}