{
    "cas_no": "458-37-7",
    "key_name": "Curcumin",
    "cn_name": "姜黄素;克扣明;1,7-双(4-羟基-3-甲氧基苯基)-1,6-庚二烯-3,5-二酮;",
    "alternate_name": "1,6-Heptadiene-3,5-dione, 1,7-bis(4-hydroxy-3-methoxyphenyl)-, (1<em>E</em>,6<em>E</em>)-;Curcumin;1,6-Heptadiene-3,5-dione, 1,7-bis(4-hydroxy-3-methoxyphenyl)-, (<em>E</em>,<em>E</em>)-;(1<em>E</em>,6<em>E</em>)-1,7-Bis(4-hydroxy-3-methoxyphenyl)-1,6-heptadiene-3,5-dione;C.I. 75300;C.I. Natural Yellow 3;Curcuma;Haidr;Halad;Haldar;Halud;Indian Saffron;Kacha Haldi;Merita Earth;Souchet;Terra Merita;Turmeric yellow;Yellow Ginger;Yellow Root;Yo-Kin;(<em>E</em>,<em>E</em>)-1,7-Bis(4-hydroxy-3-methoxyphenyl)-1,6-heptadiene-3,5-dione;Diferuloylmethane;E 100 (dye);E 100;<em>trans</em>,<em>trans</em>-Curcumin;Turmeric (dye);Turmeric;Natural Yellow 3;C Yellow 15;Ukon (dye);Ukon;Curcumin I;Curcumine;San-Ei Curcumine AL;San-Ei Gen Curcumine AL;NSC 32982;(<em>E</em>)-1,7-Bis(4-hydroxy-3-methoxyphenyl)-1,6-heptadiene-3,5-dione;Jianghuangsu;Curcumin W;Colorant E 100;NanoCurc;Theracurmin;Biocurcumax;BR 213;INS 100i;Lipocurc;Natxtra;Vacurin;Cureit;Longvida;Curcumax;Kiriyasu Oil Yellow U;Theracurmin CR 011L;(E,E)-1,7-Bis(4-hydroxy-3-methoxyphenyl)-1,6-heptadien-3,5-dione;Curcuma yellow;KB 2399;MeSH ID: D003474",
    "duplicated_cas_no": "15845-47-3;33171-04-9;73729-23-4;79257-48-0;91884-86-5;2103286-06-0",
    "SMILES": "C(=C/C(CC(/C=C/C1=CC(OC)=C(O)C=C1)=O)=O)\\C2=CC(OC)=C(O)C=C2",
    "meta_data": {
        "InChI": "InChI=1S/C21H20O6/c1-26-20-11-14(5-9-18(20)24)3-7-16(22)13-17(23)8-4-15-6-10-19(25)21(12-15)27-2/h3-12,24-25H,13H2,1-2H3/b7-3+,8-4+",
        "InChIKey": null,
        "Canonical SMILES": "O=C(C=CC1=CC=C(O)C(OC)=C1)CC(=O)C=CC2=CC=C(O)C(OC)=C2",
        "Molecular Formula": "C<sub>21</sub>H<sub>20</sub>O<sub>6</sub>",
        "Molecular Mass": "368.38",
        "Melting Point": "183 °C",
        "Density": "1.374 g/cm³ (Solid)"
    }
}