{
    "cas_no": "544-16-1",
    "key_name": "Butyl nitrite",
    "cn_name": "亚硝酸丁酯;",
    "alternate_name": "Nitrous acid, butyl ester;Butyl nitrite;<em>n</em>-Butyl nitrite;NSC 8426",
    "duplicated_cas_no": "",
    "SMILES": "C(CCC)ON=O",
    "meta_data": {
        "InChI": "InChI=1S/C4H9NO2/c1-2-3-4-7-5-6/h2-4H2,1H3",
        "InChIKey": null,
        "Canonical SMILES": "O=NOCCCC",
        "Molecular Formula": "C<sub>4</sub>H<sub>9</sub>NO<sub>2</sub>",
        "Molecular Mass": "103.12",
        "Boiling Point": "78 °C"
    }
}