{
    "cas_no": "6443-69-2",
    "key_name": "3,4,5-Trimethoxytoluene",
    "cn_name": "3,4,5-三甲氧基甲苯;",
    "alternate_name": "Benzene, 1,2,3-trimethoxy-5-methyl-;Toluene, 3,4,5-trimethoxy-;1,2,3-Trimethoxy-5-methylbenzene;3,4,5-Trimethoxytoluene;1-Methyl-3,4,5-trimethoxybenzene;3,4,5-Trimethoxy-1-methylbenzene;5-Methylpyrogallol trimethyl ether;2,6-Dimethoxy-4-methylanisole;5-Methyl-1,2,3-trimethoxybenzene",
    "duplicated_cas_no": "",
    "SMILES": "O(C)C1=C(OC)C=C(C)C=C1OC",
    "meta_data": {
        "InChI": "InChI=1S/C10H14O3/c1-7-5-8(11-2)10(13-4)9(6-7)12-3/h5-6H,1-4H3",
        "InChIKey": null,
        "Canonical SMILES": "O(C=1C=C(C=C(OC)C1OC)C)C",
        "Molecular Formula": "C<sub>10</sub>H<sub>14</sub>O<sub>3</sub>",
        "Molecular Mass": "182.22",
        "Boiling Point": "68 °C @ Press: 0.03 Torr",
        "Melting Point": "32.7-35.4 °C"
    }
}