{
    "cas_no": "4110-35-4",
    "key_name": "3,5-Dinitrobenzonitrile",
    "cn_name": "3,5-二硝基苯甲腈;",
    "alternate_name": "Benzonitrile, 3,5-dinitro-;3,5-Dinitrobenzonitrile;1,3-Dinitro-5-cyanobenzene",
    "duplicated_cas_no": "",
    "SMILES": "N(=O)(=O)C1=CC(N(=O)=O)=CC(C#N)=C1",
    "meta_data": {
        "InChI": "InChI=1S/C7H3N3O4/c8-4-5-1-6(9(11)12)3-7(2-5)10(13)14/h1-3H",
        "InChIKey": null,
        "Canonical SMILES": "N#CC=1C=C(C=C(C1)N(=O)=O)N(=O)=O",
        "Molecular Formula": "C<sub>7</sub>H<sub>3</sub>N<sub>3</sub>O<sub>4</sub>",
        "Molecular Mass": "193.12",
        "Melting Point": "127 °C"
    }
}