{
    "cas_no": "618-89-3",
    "key_name": "Methyl 3-bromobenzoate",
    "cn_name": "3-溴苯甲酸甲酯;",
    "alternate_name": "Benzoic acid, 3-bromo-, methyl ester;Benzoic acid, <em>m</em>-bromo-, methyl ester;Methyl <em>m</em>-bromobenzoate;3-Bromobenzoic acid, methyl ester;Methyl 3-bromobenzoate;NSC 7319",
    "duplicated_cas_no": "",
    "SMILES": "C(OC)(=O)C1=CC(Br)=CC=C1",
    "meta_data": {
        "InChI": "InChI=1S/C8H7BrO2/c1-11-8(10)6-3-2-4-7(9)5-6/h2-5H,1H3",
        "InChIKey": null,
        "Canonical SMILES": "O=C(OC)C=1C=CC=C(Br)C1",
        "Molecular Formula": "C<sub>8</sub>H<sub>7</sub>BrO<sub>2</sub>",
        "Molecular Mass": "215.04",
        "Boiling Point": "69-70 °C @ Press: 0.2 Torr",
        "Melting Point": "32 °C"
    }
}