{
    "cas_no": "24584-09-6",
    "key_name": "Dexrazoxane",
    "cn_name": "右雷佐生;右丙亚胺;：(S)-4,4\"-(1-甲基-1,2-乙二基)双-2,6-哌嗪二酮;",
    "alternate_name": "2,6-Piperazinedione, 4,4′-[(1<em>S</em>)-1-methyl-1,2-ethanediyl]bis-;2,6-Piperazinedione, 4,4′-propylenedi-, (+)-;2,6-Piperazinedione, 4,4′-(1-methyl-1,2-ethanediyl)bis-, (<em>S</em>)-;4,4′-[(1<em>S</em>)-1-Methyl-1,2-ethanediyl]bis[2,6-piperazinedione];(+)-1,2-Bis(3,5-dioxopiperazin-1-yl)propane;ICRF 187;NSC 169780;(<em>S</em>)-(+)-1,2-Bis(3,5-dioxopiperazin-1-yl)propane;Dexrazoxane;ADR 529;(S)-4,4′-(Propane-1,2-diyl)bis(piperazine-2,6-dione);MeSH ID: D064730",
    "duplicated_cas_no": "",
    "SMILES": "C([C@H](C)N1CC(=O)NC(=O)C1)N2CC(=O)NC(=O)C2",
    "meta_data": {
        "InChI": "InChI=1S/C11H16N4O4/c1-7(15-5-10(18)13-11(19)6-15)2-14-3-8(16)12-9(17)4-14/h7H,2-6H2,1H3,(H,12,16,17)(H,13,18,19)/t7-/m0/s1",
        "InChIKey": null,
        "Canonical SMILES": "O=C1NC(=O)CN(C1)CC(N2CC(=O)NC(=O)C2)C",
        "Molecular Formula": "C<sub>11</sub>H<sub>16</sub>N<sub>4</sub>O<sub>4</sub>",
        "Molecular Mass": "268.27",
        "Melting Point": "193 °C"
    }
}