{
    "cas_no": "87120-72-7",
    "key_name": "<em>tert</em>-Butyl 4-aminopiperidine-1-carboxylate",
    "cn_name": "1-Boc-4-氨基哌啶;1-叔丁氧羰基-4-氨基哌啶;",
    "alternate_name": "1-Piperidinecarboxylic acid, 4-amino-, 1,1-dimethylethyl ester;4-Amino-1-<em>tert</em>-butoxycarbonylpiperidine;1-(<em>t</em>-Butoxycarbonyl)-4-aminopiperidine;1-<em>tert</em>-Butoxycarbonyl-4-aminopiperidine;<em>tert</em>-Butyl 4-aminopiperidine-1-carboxylate;4-Amino-1-BOC-piperidine;4-Aminopiperidine-1-carboxylic acid <em>tert</em>-butyl ester;<em>N</em>-<em>tert</em>-Butoxycarbonyl-4-aminopiperidine;1,1-Dimethylethyl 4-amino-1-piperidinecarboxylate;[<em>N</em>-(<em>tert</em>-Butoxycarbonyl)piperidin-4-yl]amine;<em>N</em>-Boc-4-aminopiperidine;4-Amino-1-piperidinecarboxylic acid 1,1-dimethylethyl ester;4-Amino-<em>N</em>-Boc-piperidine;4-Amino-1-(<em>tert</em>-butyloxycarbonyl)piperidine;<em>tert</em>-Butyl (4-aminopiperidin-1-yl)carbamate;1-<em>tert</em>-Butyloxycarbonyl-4-aminopiperidine;2-Methylpropan-2-yl 4-aminopiperidine-1-carboxylate;1-Boc-piperidin-4-amine;4-Amino-1-<em>N</em>-<em>tert</em>-butoxycarbonylpiperidine",
    "duplicated_cas_no": "1013111-64-2",
    "SMILES": "C(OC(C)(C)C)(=O)N1CCC(N)CC1",
    "meta_data": {
        "InChI": "InChI=1S/C10H20N2O2/c1-10(2,3)14-9(13)12-6-4-8(11)5-7-12/h8H,4-7,11H2,1-3H3",
        "InChIKey": null,
        "Canonical SMILES": "O=C(OC(C)(C)C)N1CCC(N)CC1",
        "Molecular Formula": "C<sub>10</sub>H<sub>20</sub>N<sub>2</sub>O<sub>2</sub>",
        "Molecular Mass": "200.28",
        "Melting Point": "66-67 °C"
    }
}