{
    "cas_no": "7488-56-4",
    "key_name": "Selenium sulfide",
    "cn_name": null,
    "alternate_name": "Selenium sulfide (SeS<sub>2</sub>);Selenium disulfide;Selenium sulfide;Selsun;Seleen;Exsel;Seledruff",
    "duplicated_cas_no": "12299-46-6",
    "SMILES": "[Se](=S)=S",
    "meta_data": {
        "InChI": "InChI=1S/S2Se/c1-3-2",
        "InChIKey": null,
        "Canonical SMILES": "S=[Se]=S",
        "Molecular Formula": "S<sub>2</sub>Se",
        "Molecular Mass": "143.09",
        "Melting Point": "&lt;100 °C"
    }
}