{
    "cas_no": "15121-84-3",
    "key_name": "2-Nitrobenzeneethanol",
    "cn_name": "2-(2-硝基苯基)乙醇;",
    "alternate_name": "Benzeneethanol, 2-nitro-;Phenethyl alcohol, <em>o</em>-nitro-;2-Nitrobenzeneethanol;2-(<em>o</em>-Nitrophenyl)ethanol;<em>o</em>-Nitrophenethyl alcohol;2-(<em>o</em>-Nitrophenyl)ethyl alcohol;2-Nitrophenethyl alcohol;2-(2-Nitrophenyl)ethanol;2-(2-Hydroxyethyl)nitrobenzene;1-(2-Hydroxyethyl)-2-nitrobenzene;2-(2-Nitrophenyl)ethan-1-ol",
    "duplicated_cas_no": "",
    "SMILES": "N(=O)(=O)C1=C(CCO)C=CC=C1",
    "meta_data": {
        "InChI": "InChI=1S/C8H9NO3/c10-6-5-7-3-1-2-4-8(7)9(11)12/h1-4,10H,5-6H2",
        "InChIKey": null,
        "Canonical SMILES": "O=N(=O)C=1C=CC=CC1CCO",
        "Molecular Formula": "C<sub>8</sub>H<sub>9</sub>NO<sub>3</sub>",
        "Molecular Mass": "167.16",
        "Boiling Point": "267 °C",
        "Melting Point": "2 °C",
        "Density": "1.253 g/cm³ @ Temp: 22 °C"
    }
}