{
    "cas_no": "870-50-8",
    "key_name": "Di-<em>tert</em>-butyl azodicarboxylate",
    "cn_name": "偶氮二甲酸二叔丁酯;",
    "alternate_name": "1,2-Diazenedicarboxylic acid, 1,2-bis(1,1-dimethylethyl) ester;Formic acid, azodi-, di-<em>tert</em>-butyl ester;Diazenedicarboxylic acid, bis(1,1-dimethylethyl) ester;Di-<em>tert</em>-butyl azodiformate;Di-<em>tert</em>-butyl azodicarboxylate;Azodicarboxylic acid di-<em>tert</em>-butyl ester;Di-<em>tert</em>-butyl diazodicarboxylate;DBAD;NSC 109889;Bis(1,1-dimethylethyl)azodicarboxylate",
    "duplicated_cas_no": "",
    "SMILES": "O(C(C)(C)C)C(N=NC(OC(C)(C)C)=O)=O",
    "meta_data": {
        "InChI": "InChI=1S/C10H18N2O4/c1-9(2,3)15-7(13)11-12-8(14)16-10(4,5)6/h1-6H3",
        "InChIKey": null,
        "Canonical SMILES": "O=C(N=NC(=O)OC(C)(C)C)OC(C)(C)C",
        "Molecular Formula": "C<sub>10</sub>H<sub>18</sub>N<sub>2</sub>O<sub>4</sub>",
        "Molecular Mass": "230.26",
        "Melting Point": "85-87 °C"
    }
}