{
    "cas_no": "13902-62-0",
    "key_name": "Oplodiol",
    "cn_name": null,
    "alternate_name": "1,4-Naphthalenediol, 1,2,3,4,4a,5,8,8a-octahydro-1,4a-dimethyl-7-(1-methylethyl)-, (1<em>S</em>,4<em>R</em>,4a<em>R</em>,8a<em>R</em>)-;Eudesm-7-ene-1β,4-diol;1,4-Naphthalenediol, 1,2,3,4,4a,5,8,8a-octahydro-1,4a-dimethyl-7-(1-methylethyl)-, [1<em>S</em>-(1α,4α,4aα,8aβ)]-;(1<em>S</em>,4<em>R</em>,4a<em>R</em>,8a<em>R</em>)-1,2,3,4,4a,5,8,8a-Octahydro-1,4a-dimethyl-7-(1-methylethyl)-1,4-naphthalenediol;Oplodiol;(-)-Oplodiol",
    "duplicated_cas_no": "11046-45-0",
    "SMILES": "C[C@@]12[C@]([C@@](C)(O)CC[C@H]1O)(CC(C(C)C)=CC2)[H]",
    "meta_data": {
        "InChI": "InChI=1S/C15H26O2/c1-10(2)11-5-7-14(3)12(9-11)15(4,17)8-6-13(14)16/h5,10,12-13,16-17H,6-9H2,1-4H3/t12-,13-,14-,15+/m1/s1",
        "InChIKey": null,
        "Canonical SMILES": "OC1CCC(O)(C)C2CC(=CCC12C)C(C)C",
        "Molecular Formula": "C<sub>15</sub>H<sub>26</sub>O<sub>2</sub>",
        "Molecular Mass": "238.37",
        "Melting Point": "106-107 °C"
    }
}