{
    "cas_no": "619-23-8",
    "key_name": "3-Nitrobenzyl chloride",
    "cn_name": "间硝基氯化苄;",
    "alternate_name": "Benzene, 1-(chloromethyl)-3-nitro-;Toluene, α-chloro-<em>m</em>-nitro-;1-(Chloromethyl)-3-nitrobenzene;<em>m</em>-Nitrobenzyl chloride;α-Chloro-<em>m</em>-nitrotoluene;3-Nitrobenzyl chloride;m-Nitrobenzyl chloride;NSC 9802",
    "duplicated_cas_no": "",
    "SMILES": "N(=O)(=O)C1=CC(CCl)=CC=C1",
    "meta_data": {
        "InChI": "InChI=1S/C7H6ClNO2/c8-5-6-2-1-3-7(4-6)9(10)11/h1-4H,5H2",
        "InChIKey": null,
        "Canonical SMILES": "O=N(=O)C1=CC=CC(=C1)CCl",
        "Molecular Formula": "C<sub>7</sub>H<sub>6</sub>ClNO<sub>2</sub>",
        "Molecular Mass": "171.58",
        "Boiling Point": "175-183 °C @ Press: 30-35 Torr",
        "Melting Point": "45-47 °C"
    }
}