{
    "cas_no": "3342-78-7",
    "key_name": "2-Aminophenylacetic acid",
    "cn_name": "2-氨基苯乙酸;",
    "alternate_name": "Benzeneacetic acid, 2-amino-;Acetic acid, (<em>o</em>-aminophenyl)-;2-Aminobenzeneacetic acid;2-Aminophenylacetic acid;(<em>o</em>-Aminophenyl)acetic acid;2-(2-Aminophenyl)acetic acid",
    "duplicated_cas_no": "",
    "SMILES": "C(C(O)=O)C1=C(N)C=CC=C1",
    "meta_data": {
        "InChI": "InChI=1S/C8H9NO2/c9-7-4-2-1-3-6(7)5-8(10)11/h1-4H,5,9H2,(H,10,11)",
        "InChIKey": null,
        "Canonical SMILES": "O=C(O)CC=1C=CC=CC1N",
        "Molecular Formula": "C<sub>8</sub>H<sub>9</sub>NO<sub>2</sub>",
        "Molecular Mass": "151.16",
        "Melting Point": "119 °C"
    }
}