{
    "cas_no": "5259-88-1",
    "key_name": "Oxycarboxine",
    "cn_name": "氧化萎锈灵;2，3-二氢-6-甲基-5-苯基-氨基甲酰-1，4-氧硫杂芑-4，4-二氧化物;",
    "alternate_name": "1,4-Oxathiin-3-carboxamide, 5,6-dihydro-2-methyl-<em>N</em>-phenyl-, 4,4-dioxide;1,4-Oxathiin-3-carboxanilide, 5,6-dihydro-2-methyl-, 4,4-dioxide;F 461;DCMOD;Plantvax;5,6-Dihydro-2-methyl-1,4-oxathiin-3-carboxanilide 4,4-dioxide;Oxycarboxin;Oxycarboxine;Carboxin sulfone;Vitavax sulfone;Oxicarboxin;F 461 (pesticide);Plantvax 20;Rendor;NSC 232673",
    "duplicated_cas_no": "1135441-66-5",
    "SMILES": "C(NC1=CC=CC=C1)(=O)C=2S(=O)(=O)CCOC2C",
    "meta_data": {
        "InChI": "InChI=1S/C12H13NO4S/c1-9-11(18(15,16)8-7-17-9)12(14)13-10-5-3-2-4-6-10/h2-6H,7-8H2,1H3,(H,13,14)",
        "InChIKey": null,
        "Canonical SMILES": "O=C(NC=1C=CC=CC1)C2=C(OCCS2(=O)=O)C",
        "Molecular Formula": "C<sub>12</sub>H<sub>13</sub>NO<sub>4</sub>S",
        "Molecular Mass": "267.30",
        "Melting Point": "127.5-130 °C"
    }
}