{
    "cas_no": "4053-45-6",
    "key_name": "5-(Chloromethyl)-8-hydroxyquinoline hydrochloride",
    "cn_name": "5-(氯甲基)-8-羟基喹啉盐酸盐;",
    "alternate_name": "8-Quinolinol, 5-(chloromethyl)-, hydrochloride (1:1);8-Quinolinol, 5-(chloromethyl)-, hydrochloride;5-(Chloromethyl)-8-hydroxyquinoline hydrochloride;5-(Chloromethyl)-8-quinolinol hydrochloride",
    "duplicated_cas_no": "",
    "SMILES": "C(Cl)C=1C2=C(C(O)=CC1)N=CC=C2.Cl",
    "meta_data": {
        "InChI": "InChI=1S/C10H8ClNO.ClH/c11-6-7-3-4-9(13)10-8(7)2-1-5-12-10;/h1-5,13H,6H2;1H",
        "InChIKey": null,
        "Canonical SMILES": "Cl.ClCC=1C=CC(O)=C2N=CC=CC21",
        "Molecular Formula": "C<sub>10</sub>H<sub>8</sub>ClNO.ClH",
        "Molecular Mass": "",
        "Melting Point": "280 °C (decomp)"
    }
}