{
    "cas_no": "455-40-3",
    "key_name": "3,5-Difluorobenzoic acid",
    "cn_name": "3,5-二氟苯甲酸;",
    "alternate_name": "Benzoic acid, 3,5-difluoro-;3,5-Difluorobenzoic acid;NSC 403726",
    "duplicated_cas_no": "",
    "SMILES": "C(O)(=O)C1=CC(F)=CC(F)=C1",
    "meta_data": {
        "InChI": "InChI=1S/C7H4F2O2/c8-5-1-4(7(10)11)2-6(9)3-5/h1-3H,(H,10,11)",
        "InChIKey": null,
        "Canonical SMILES": "O=C(O)C=1C=C(F)C=C(F)C1",
        "Molecular Formula": "C<sub>7</sub>H<sub>4</sub>F<sub>2</sub>O<sub>2</sub>",
        "Molecular Mass": "158.10",
        "Melting Point": "122 °C"
    }
}