{
    "cas_no": "3124-01-4",
    "key_name": "1,1,1,2,2,2-Hexaphenyldiplumbane",
    "cn_name": "六苯基二铅;",
    "alternate_name": "Diplumbane, 1,1,1,2,2,2-hexaphenyl-;Diplumbane, hexaphenyl-;Lead, hexaphenyldi-;1,1,1,2,2,2-Hexaphenyldiplumbane;Dilead, hexaphenyl-;Hexaphenyldilead;Hexaphenyldiplumbane;NSC 68064",
    "duplicated_cas_no": "",
    "SMILES": "[Pb]([Pb](C1=CC=CC=C1)(C2=CC=CC=C2)C3=CC=CC=C3)(C4=CC=CC=C4)(C5=CC=CC=C5)C6=CC=CC=C6",
    "meta_data": {
        "InChI": "InChI=1S/6C6H5.2Pb/c6*1-2-4-6-5-3-1;;/h6*1-5H;;",
        "InChIKey": null,
        "Canonical SMILES": "C=1C=CC(=CC1)[Pb](C=2C=CC=CC2)(C=3C=CC=CC3)[Pb](C=4C=CC=CC4)(C=5C=CC=CC5)C=6C=CC=CC6",
        "Molecular Formula": "C<sub>36</sub>H<sub>30</sub>Pb<sub>2</sub>",
        "Molecular Mass": "877.02",
        "Melting Point": "155 °C (decomp)"
    }
}