{
    "cas_no": "1199-08-2",
    "key_name": "2-Ethyl-1,4-dimethoxybenzene",
    "cn_name": "2-乙基-1,4-二甲氧基苯;",
    "alternate_name": "Benzene, 2-ethyl-1,4-dimethoxy-;2-Ethyl-1,4-dimethoxybenzene;1,4-Dimethoxy-2-ethylbenzene",
    "duplicated_cas_no": "",
    "SMILES": "C(C)C1=C(OC)C=CC(OC)=C1",
    "meta_data": {
        "InChI": "InChI=1S/C10H14O2/c1-4-8-7-9(11-2)5-6-10(8)12-3/h5-7H,4H2,1-3H3",
        "InChIKey": null,
        "Canonical SMILES": "O(C1=CC=C(OC)C(=C1)CC)C",
        "Molecular Formula": "C<sub>10</sub>H<sub>14</sub>O<sub>2</sub>",
        "Molecular Mass": "166.22",
        "Boiling Point": "120 °C @ Press: 15 Torr",
        "Melting Point": "-4-6.5 °C"
    }
}