{
    "cas_no": "39774-26-0",
    "key_name": "2-Bromo-6-phenylpyridine",
    "cn_name": "2-溴-6-苯基吡啶;",
    "alternate_name": "Pyridine, 2-bromo-6-phenyl-;2-Bromo-6-phenylpyridine;6-Bromo-2-phenylpyridine",
    "duplicated_cas_no": "",
    "SMILES": "BrC1=NC(=CC=C1)C2=CC=CC=C2",
    "meta_data": {
        "InChI": "InChI=1S/C11H8BrN/c12-11-8-4-7-10(13-11)9-5-2-1-3-6-9/h1-8H",
        "InChIKey": null,
        "Canonical SMILES": "BrC=1N=C(C=CC1)C=2C=CC=CC2",
        "Molecular Formula": "C<sub>11</sub>H<sub>8</sub>BrN",
        "Molecular Mass": "234.09",
        "Melting Point": "51-52 °C"
    }
}