{
    "cas_no": "58-60-6",
    "key_name": "Aminonucleoside",
    "cn_name": "嘌呤霉素氨基核苷;",
    "alternate_name": "Adenosine, 3′-amino-3′-deoxy-<em>N</em>,<em>N</em>-dimethyl-;3′-Amino-3′-deoxy-<em>N</em>,<em>N</em>-dimethyladenosine;SAN;Stylomycin aminonucleoside;Aminonucleoside;Puromycin, aminonucleoside;9-(3-Amino-3-deoxy-β-<span class=\"text-smallcaps\">D</span>-ribofuranosyl)-6-(dimethylamino)-9<em>H</em>-purine;6-(Dimethylamino)-9-(3-amino-3-deoxy-β-<span class=\"text-smallcaps\">D</span>-ribofuranosyl)purine;Aminonucleoside puromycin;3′-Amino-3′-deoxy-<em>N</em><sup>6</sup>,<em>N</em><sup>6</sup>-dimethyladenosine;6-Dimethylamino-9-(3-amino-3-deoxyribosyl)purine;NSC 3056;PANS",
    "duplicated_cas_no": "136680-68-7;28315-29-9;54833-68-0",
    "SMILES": "O[C@H]1[C@H](N2C=3C(N=C2)=C(N(C)C)N=CN3)O[C@H](CO)[C@H]1N",
    "meta_data": {
        "InChI": "InChI=1S/C12H18N6O3/c1-17(2)10-8-11(15-4-14-10)18(5-16-8)12-9(20)7(13)6(3-19)21-12/h4-7,9,12,19-20H,3,13H2,1-2H3/t6-,7-,9-,12-/m1/s1",
        "InChIKey": null,
        "Canonical SMILES": "OCC1OC(N2C=NC=3C2=NC=NC3N(C)C)C(O)C1N",
        "Molecular Formula": "C<sub>12</sub>H<sub>18</sub>N<sub>6</sub>O<sub>3</sub>",
        "Molecular Mass": "294.31",
        "Melting Point": "215-216 °C"
    }
}