{
    "cas_no": "5197-66-0",
    "key_name": "2-[2-[2-(2-Chloroethoxy)ethoxy]ethoxy]ethanol",
    "cn_name": null,
    "alternate_name": "Ethanol, 2-[2-[2-(2-chloroethoxy)ethoxy]ethoxy]-;2-[2-[2-(2-Chloroethoxy)ethoxy]ethoxy]ethanol;11-Chloro-3,6,9-trioxa-1-undecanol;Triethylene glycol mono(2-chloroethyl)ether;11-Chloro-3,6,9-trioxaundecanol;2-(2-(2-(2-Chloroethoxy)ethoxy)ethoxyethanol",
    "duplicated_cas_no": "",
    "SMILES": "O(CCOCCCl)CCOCCO",
    "meta_data": {
        "InChI": "InChI=1S/C8H17ClO4/c9-1-3-11-5-7-13-8-6-12-4-2-10/h10H,1-8H2",
        "InChIKey": null,
        "Canonical SMILES": "ClCCOCCOCCOCCO",
        "Molecular Formula": "C<sub>8</sub>H<sub>17</sub>ClO<sub>4</sub>",
        "Molecular Mass": "212.67",
        "Boiling Point": "281.54 °C"
    }
}