{
    "cas_no": "6622-76-0",
    "key_name": "Methyl tiglate",
    "cn_name": "惕各酸甲酯;2-甲基丁烯酸甲酯;",
    "alternate_name": "2-Butenoic acid, 2-methyl-, methyl ester, (2<em>E</em>)-;Crotonic acid, 2-methyl-, methyl ester, (<em>E</em>)-;2-Butenoic acid, 2-methyl-, methyl ester, (<em>E</em>)-;Tiglic acid, methyl ester;Methyl tiglate;Methyl (<em>E</em>)-2-methylcrotonate;Methyl <em>trans</em>-2-methylcrotonate;Methyl α-methylcrotonate;(<em>E</em>)-Methyl 2-methyl-2-butenoate;NSC 55277;Methyl <em>trans</em>-2-methyl-2-butenoate",
    "duplicated_cas_no": "",
    "SMILES": "C(\\C(OC)=O)(=C/C)/C",
    "meta_data": {
        "InChI": "InChI=1S/C6H10O2/c1-4-5(2)6(7)8-3/h4H,1-3H3/b5-4+",
        "InChIKey": null,
        "Canonical SMILES": "O=C(OC)C(=CC)C",
        "Molecular Formula": "C<sub>6</sub>H<sub>10</sub>O<sub>2</sub>",
        "Molecular Mass": "114.14",
        "Boiling Point": "139 °C",
        "Melting Point": "124-125 °C",
        "Density": "0.94980 g/cm³ @ Temp: 20 °C"
    }
}