{
    "cas_no": "110235-47-7",
    "key_name": "Mepanipyrim",
    "cn_name": "嘧菌胺;N-(4-甲基-6-丙炔基嘧啶-2-基)苯胺;",
    "alternate_name": "2-Pyrimidinamine, 4-methyl-<em>N</em>-phenyl-6-(1-propyn-1-yl)-;2-Pyrimidinamine, 4-methyl-<em>N</em>-phenyl-6-(1-propynyl)-;4-Methyl-<em>N</em>-phenyl-6-(1-propyn-1-yl)-2-pyrimidinamine;KIF 3535;Mepanipyrim;2-Anilino-4-methyl-6-(1-propynyl)pyrimidine;Frupica;KUF 6201;Fulpica",
    "duplicated_cas_no": "1135442-59-9",
    "SMILES": "N(C=1N=C(C#CC)C=C(C)N1)C2=CC=CC=C2",
    "meta_data": {
        "InChI": "InChI=1S/C14H13N3/c1-3-7-13-10-11(2)15-14(17-13)16-12-8-5-4-6-9-12/h4-6,8-10H,1-2H3,(H,15,16,17)",
        "InChIKey": null,
        "Canonical SMILES": "C(#CC)C=1N=C(N=C(C1)C)NC=2C=CC=CC2",
        "Molecular Formula": "C<sub>14</sub>H<sub>13</sub>N<sub>3</sub>",
        "Molecular Mass": "223.27",
        "Melting Point": "132.8 °C"
    }
}