{
    "cas_no": "35900-26-6",
    "key_name": "4-Methyl-5-nonanone",
    "cn_name": "4-甲基-5-壬酮;",
    "alternate_name": "5-Nonanone, 4-methyl-;4-Methyl-5-nonanone",
    "duplicated_cas_no": "",
    "SMILES": "C(C(CCC)C)(CCCC)=O",
    "meta_data": {
        "InChI": "InChI=1S/C10H20O/c1-4-6-8-10(11)9(3)7-5-2/h9H,4-8H2,1-3H3",
        "InChIKey": null,
        "Canonical SMILES": "O=C(CCCC)C(C)CCC",
        "Molecular Formula": "C<sub>10</sub>H<sub>20</sub>O",
        "Molecular Mass": "156.27",
        "Melting Point": "85 °C"
    }
}