{
    "cas_no": "623-69-8",
    "key_name": "1,3-Dimethoxy-2-propanol",
    "cn_name": "1,3-二甲氧基-2-丙醇;",
    "alternate_name": "2-Propanol, 1,3-dimethoxy-;1,3-Dimethoxy-2-propanol;Glycerol 1,3-dimethyl ether;1,3-Dimethoxy-2-hydroxypropane;NSC 263483;1,3-Dimethoxypropane-2-ol",
    "duplicated_cas_no": "",
    "SMILES": "C(COC)(COC)O",
    "meta_data": {
        "InChI": "InChI=1S/C5H12O3/c1-7-3-5(6)4-8-2/h5-6H,3-4H2,1-2H3",
        "InChIKey": null,
        "Canonical SMILES": "OC(COC)COC",
        "Molecular Formula": "C<sub>5</sub>H<sub>12</sub>O<sub>3</sub>",
        "Molecular Mass": "120.15",
        "Boiling Point": "169 °C",
        "Density": "1.0085 g/cm³ @ Temp: 20 °C"
    }
}