{
    "cas_no": "88-03-9",
    "key_name": "2-Methyl-1,3,5-benzenetriol",
    "cn_name": "2,4,6-三?甲苯;2,4,6-三?甲苯;",
    "alternate_name": "1,3,5-Benzenetriol, 2-methyl-;Phloroglucinol, methyl-;2-Methyl-1,3,5-benzenetriol;Toluene-2,4,6-triol;2,4,6-Trihydroxytoluene;2-Methylphloroglucinol;Methylphloroglucinol;NSC 112934;NSC 72168;1,3,5-Trihydroxy-2-methylbenzene",
    "duplicated_cas_no": "",
    "SMILES": "CC1=C(O)C=C(O)C=C1O",
    "meta_data": {
        "InChI": "InChI=1S/C7H8O3/c1-4-6(9)2-5(8)3-7(4)10/h2-3,8-10H,1H3",
        "InChIKey": null,
        "Canonical SMILES": "OC=1C=C(O)C(=C(O)C1)C",
        "Molecular Formula": "C<sub>7</sub>H<sub>8</sub>O<sub>3</sub>",
        "Molecular Mass": "140.14",
        "Melting Point": "213-215 °C"
    }
}