{
    "cas_no": "283173-50-2",
    "key_name": "Rucaparib",
    "cn_name": null,
    "alternate_name": "6<em>H</em>-Pyrrolo[4,3,2-<em>ef</em>][2]benzazepin-6-one, 8-fluoro-1,3,4,5-tetrahydro-2-[4-[(methylamino)methyl]phenyl]-;6<em>H</em>-Azepino[5,4,3-<em>cd</em>]indol-6-one, 8-fluoro-1,3,4,5-tetrahydro-2-[4-[(methylamino)methyl]phenyl]-;8-Fluoro-1,3,4,5-tetrahydro-2-[4-[(methylamino)methyl]phenyl]-6<em>H</em>-pyrrolo[4,3,2-<em>ef</em>][2]benzazepin-6-one;8-Fluoro-2-[4-[(methylamino)methyl]phenyl]-1,3,4,5-tetrahydro-6<em>H</em>-azepino[5,4,3-<em>cd</em>]indol-6-one;Rucaparib;Rubraca;8-Fluoro-5-(4-((methylamino)methyl)phenyl)-2,3,4,6-tetrahydro-1<em>H</em>-azepino[5,4,3-<em>cd</em>]indol-1-one",
    "duplicated_cas_no": "2442568-54-7",
    "SMILES": "O=C1C2=C3C(=C(NC3=CC(F)=C2)C4=CC=C(CNC)C=C4)CCN1",
    "meta_data": {
        "InChI": "InChI=1S/C19H18FN3O/c1-21-10-11-2-4-12(5-3-11)18-14-6-7-22-19(24)15-8-13(20)9-16(23-18)17(14)15/h2-5,8-9,21,23H,6-7,10H2,1H3,(H,22,24)",
        "InChIKey": null,
        "Canonical SMILES": "O=C1NCCC2=C(NC3=CC(F)=CC1=C32)C4=CC=C(C=C4)CNC",
        "Molecular Formula": "C<sub>19</sub>H<sub>18</sub>FN<sub>3</sub>O",
        "Molecular Mass": "323.36",
        "Melting Point": "220 °C"
    }
}