{
    "cas_no": "21286-54-4",
    "key_name": "10-Camphorsulfonyl chloride",
    "cn_name": "右旋樟脑-10-磺酰氯;",
    "alternate_name": "Bicyclo[2.2.1]heptane-1-methanesulfonyl chloride, 7,7-dimethyl-2-oxo-, (1<em>S</em>,4<em>R</em>)-;10-Bornanesulfonyl chloride, 2-oxo-, (+)-;Bicyclo[2.2.1]heptane-1-methanesulfonyl chloride, 7,7-dimethyl-2-oxo-, (1<em>S</em>)-;10-Camphorsulfonyl chloride;(1<em>S</em>,4<em>R</em>)-7,7-Dimethyl-2-oxobicyclo[2.2.1]heptane-1-methanesulfonyl chloride;<em>d</em>-Camphorsulfonyl chloride;(+)-Camphorsulfonyl chloride;(+)-10-Camphorsulfonyl chloride;<em>d</em>-10-Camphorsulfonyl chloride;(1<em>S</em>)-Camphor-10-sulfonyl chloride;(1<em>S</em>)-(+)-Camphorsulfonyl chloride;(1<em>S</em>)-(+)-10-Camphorsulfonyl chloride;(1<em>S</em>)-10-Camphorsulfonyl chloride;(1<em>S</em>)-1-[(Chlorosulfonyl)methyl]-7,7-dimethylbicyclo[2.2.1]heptan-2-one;(<em>S</em>)-(+)-10-Camphorsulfonyl chloride;(+)-10-Camphorsulfonic acid chloride;(<em>S</em>)-Camphor-10-sulfonyl chloride;(<em>S</em>)-(+)-Camphorsulfonyl chloride;((1S,4R)-7,7-Dimethyl-2-oxobicyclo[2.2.1]heptan-1-yl)methanesulfonyl chloride;d-Camphorsulfonyl chloride;<span class=\"text-smallcaps\">D</span>-(+)-10-Camphorsulfonyl chloride",
    "duplicated_cas_no": "123932-72-9;207672-90-0;214153-63-6;1217510-10-5;1234783-94-8;1788307-42-5;1822302-32-8;2089598-50-3;2095396-54-4;2098163-60-9;2210268-86-1;2648901-59-9;2925658-62-2",
    "SMILES": "C(S(Cl)(=O)=O)[C@@]12C(C)(C)[C@@](CC1=O)(CC2)[H]",
    "meta_data": {
        "InChI": "InChI=1S/C10H15ClO3S/c1-9(2)7-3-4-10(9,8(12)5-7)6-15(11,13)14/h7H,3-6H2,1-2H3/t7-,10-/m1/s1",
        "InChIKey": null,
        "Canonical SMILES": "O=C1CC2CCC1(CS(=O)(=O)Cl)C2(C)C",
        "Molecular Formula": "C<sub>10</sub>H<sub>15</sub>ClO<sub>3</sub>S",
        "Molecular Mass": "250.74",
        "Boiling Point": "40-60 °C",
        "Melting Point": "68 °C"
    }
}