{
    "cas_no": "1463-17-8",
    "key_name": "2,8-Dimethylquinoline",
    "cn_name": "2,8-二甲基喹啉;",
    "alternate_name": "Quinoline, 2,8-dimethyl-;2,8-Dimethylquinoline;<em>o</em>-Toluquinaldine;8-Methylquinaldine;NSC 62133",
    "duplicated_cas_no": "",
    "SMILES": "CC=1C2=C(C=CC(C)=N2)C=CC1",
    "meta_data": {
        "InChI": "InChI=1S/C11H11N/c1-8-4-3-5-10-7-6-9(2)12-11(8)10/h3-7H,1-2H3",
        "InChIKey": null,
        "Canonical SMILES": "N=1C(=CC=C2C=CC=C(C12)C)C",
        "Molecular Formula": "C<sub>11</sub>H<sub>11</sub>N",
        "Molecular Mass": "157.21",
        "Boiling Point": "255.3 °C",
        "Melting Point": "27 °C",
        "Density": "1.036 g/cm³ @ Temp: 20 °C"
    }
}