{
    "cas_no": "1594-57-6",
    "key_name": "<em>N</em>-Hydroxyisonicotinamidine",
    "cn_name": "4-吡啶基偕胺肟;",
    "alternate_name": "4-Pyridinecarboximidamide, <em>N</em>-hydroxy-;Isonicotinamidoxime;<em>N</em>-Hydroxy-4-pyridinecarboximidamide;Pyridine-4-amidoxime;4-Pyridinecarboxamide oxime;4-Pyridinecarboxamidoxime;<em>N</em>-Hydroxyisonicotinamidine;NSC 43969;Isonicotinamide oxime;<em>N</em>′-Hydroxypyridine-4-carboximidamide;<em>N</em>′-Hydroxyisonicotinimidamide",
    "duplicated_cas_no": "",
    "SMILES": "C(NO)(=N)C=1C=CN=CC1",
    "meta_data": {
        "InChI": "InChI=1S/C6H7N3O/c7-6(9-10)5-1-3-8-4-2-5/h1-4,10H,(H2,7,9)",
        "InChIKey": null,
        "Canonical SMILES": "N=C(NO)C=1C=CN=CC1",
        "Molecular Formula": "C<sub>6</sub>H<sub>7</sub>N<sub>3</sub>O",
        "Molecular Mass": "137.14",
        "Melting Point": "178-179 °C"
    }
}