{
    "cas_no": "103884-98-6",
    "key_name": "2-Amino-9-(2-deoxy-2-fluoro-β-<span class=\"text-smallcaps\">D</span>-arabinofuranosyl)-1,9-dihydro-6<em>H</em>-purin-6-one",
    "cn_name": "9-(2-脱氧-2-氟阿拉伯呋喃基)鸟嘌呤;",
    "alternate_name": "6<em>H</em>-Purin-6-one, 2-amino-9-(2-deoxy-2-fluoro-β-<span class=\"text-smallcaps\">D</span>-arabinofuranosyl)-1,9-dihydro-;2-Amino-9-(2-deoxy-2-fluoro-β-<span class=\"text-smallcaps\">D</span>-arabinofuranosyl)-1,9-dihydro-6<em>H</em>-purin-6-one;2′-Fluoro-Arabinoguanosine;NUK-2",
    "duplicated_cas_no": "",
    "SMILES": "O=C1C2=C(N(C=N2)[C@@H]3O[C@H](CO)[C@@H](O)[C@@H]3F)NC(N)=N1",
    "meta_data": {
        "InChI": "InChI=1S/C10H12FN5O4/c11-4-6(18)3(1-17)20-9(4)16-2-13-5-7(16)14-10(12)15-8(5)19/h2-4,6,9,17-18H,1H2,(H3,12,14,15,19)/t3-,4+,6-,9-/m1/s1",
        "InChIKey": null,
        "Canonical SMILES": "O=C1N=C(N)NC2=C1N=CN2C3OC(CO)C(O)C3F",
        "Molecular Formula": "C<sub>10</sub>H<sub>12</sub>FN<sub>5</sub>O<sub>4</sub>",
        "Molecular Mass": "285.23",
        "Melting Point": "275-279 °C"
    }
}