{
    "cas_no": "370-78-5",
    "key_name": "1-Fluoro-4-(phenylmethoxy)benzene",
    "cn_name": null,
    "alternate_name": "Benzene, 1-fluoro-4-(phenylmethoxy)-;Ether, benzyl <em>p</em>-fluorophenyl;1-Fluoro-4-(phenylmethoxy)benzene;Benzyl <em>p</em>-fluorophenyl ether;Benzyl 4-fluorophenyl ether;4-Benzyloxy-1-fluorobenzene;1-(Benzyloxy)-4-fluorobenzene",
    "duplicated_cas_no": "",
    "SMILES": "O(CC1=CC=CC=C1)C2=CC=C(F)C=C2",
    "meta_data": {
        "InChI": "InChI=1S/C13H11FO/c14-12-6-8-13(9-7-12)15-10-11-4-2-1-3-5-11/h1-9H,10H2",
        "InChIKey": null,
        "Canonical SMILES": "FC1=CC=C(OCC=2C=CC=CC2)C=C1",
        "Molecular Formula": "C<sub>13</sub>H<sub>11</sub>FO",
        "Molecular Mass": "202.22",
        "Melting Point": "55.5 °C"
    }
}