{
    "cas_no": "73834-77-2",
    "key_name": "9<em>H</em>-Pyrido[3,4-<em>b</em>]indol-3-amine",
    "cn_name": null,
    "alternate_name": "9<em>H</em>-Pyrido[3,4-<em>b</em>]indol-3-amine;3-Amino-9<em>H</em>-pyrido[3,4-<em>b</em>]indole;3-Amino-β-carboline",
    "duplicated_cas_no": "",
    "SMILES": "NC=1C=C2C=3C(NC2=CN1)=CC=CC3",
    "meta_data": {
        "InChI": "InChI=1S/C11H9N3/c12-11-5-8-7-3-1-2-4-9(7)14-10(8)6-13-11/h1-6,14H,(H2,12,13)",
        "InChIKey": null,
        "Canonical SMILES": "N=1C=C2NC=3C=CC=CC3C2=CC1N",
        "Molecular Formula": "C<sub>11</sub>H<sub>9</sub>N<sub>3</sub>",
        "Molecular Mass": "183.21",
        "Melting Point": "289-291 °C"
    }
}