{
    "cas_no": "5631-68-5",
    "key_name": "2,4-Dihydroxybenzenepropanoic acid",
    "cn_name": "3-(2,4-二羟基苯基)丙酸;",
    "alternate_name": "Benzenepropanoic acid, 2,4-dihydroxy-;Hydrocinnamic acid, 2,4-dihydroxy-;2,4-Dihydroxybenzenepropanoic acid;2,4-Dihydroxy-β-phenylpropionic acid;2,4-Dihydroxyphenylpropionic acid;3-(2,4-Dihydroxyphenyl)propionic acid;NSC 71551;2,4-Dihydroxyhydrocinnamic acid",
    "duplicated_cas_no": "",
    "SMILES": "C(CC(O)=O)C1=C(O)C=C(O)C=C1",
    "meta_data": {
        "InChI": "InChI=1S/C9H10O4/c10-7-3-1-6(8(11)5-7)2-4-9(12)13/h1,3,5,10-11H,2,4H2,(H,12,13)",
        "InChIKey": null,
        "Canonical SMILES": "O=C(O)CCC1=CC=C(O)C=C1O",
        "Molecular Formula": "C<sub>9</sub>H<sub>10</sub>O<sub>4</sub>",
        "Molecular Mass": "182.17",
        "Melting Point": "165 °C"
    }
}