{
    "cas_no": "1227311-09-2",
    "key_name": "4-Iodo-3,5-dimethylbenzonitrile",
    "cn_name": null,
    "alternate_name": "Benzonitrile, 4-iodo-3,5-dimethyl-;4-Iodo-3,5-dimethylbenzonitrile",
    "duplicated_cas_no": "",
    "SMILES": "C(#N)C1=CC(C)=C(I)C(C)=C1",
    "meta_data": {
        "InChI": "InChI=1S/C9H8IN/c1-6-3-8(5-11)4-7(2)9(6)10/h3-4H,1-2H3",
        "InChIKey": null,
        "Canonical SMILES": "N#CC=1C=C(C(I)=C(C1)C)C",
        "Molecular Formula": "C<sub>9</sub>H<sub>8</sub>IN",
        "Molecular Mass": "257.07",
        "Melting Point": "147-148 °C"
    }
}