{
    "cas_no": "5441-52-1",
    "key_name": "3,5-Dimethylcyclohexanol",
    "cn_name": null,
    "alternate_name": "Cyclohexanol, 3,5-dimethyl-;3,5-Dimethylcyclohexanol;NSC 21130",
    "duplicated_cas_no": "",
    "SMILES": "CC1CC(C)CC(O)C1",
    "meta_data": {
        "InChI": "InChI=1S/C8H16O/c1-6-3-7(2)5-8(9)4-6/h6-9H,3-5H2,1-2H3",
        "InChIKey": null,
        "Canonical SMILES": "OC1CC(C)CC(C)C1",
        "Molecular Formula": "C<sub>8</sub>H<sub>16</sub>O",
        "Molecular Mass": "128.21",
        "Boiling Point": "187 °C",
        "Melting Point": "11.6 °C",
        "Density": "0.8806 g/cm³ @ Temp: 38.90001953125 °C"
    }
}