{
    "cas_no": "342417-01-0",
    "key_name": "4-(2-Methylphenyl)-6-(4-methyl-1-piperazinyl)-3-pyridinecarboxamide",
    "cn_name": null,
    "alternate_name": "3-Pyridinecarboxamide, 4-(2-methylphenyl)-6-(4-methyl-1-piperazinyl)-;4-(2-Methylphenyl)-6-(4-methyl-1-piperazinyl)-3-pyridinecarboxamide;6-(4-Methylpiperazin-1-yl)-4-<em>o</em>-tolylnicotinamide",
    "duplicated_cas_no": "",
    "SMILES": "C(N)(=O)C=1C(=CC(=NC1)N2CCN(C)CC2)C3=C(C)C=CC=C3",
    "meta_data": {
        "InChI": "InChI=1S/C18H22N4O/c1-13-5-3-4-6-14(13)15-11-17(20-12-16(15)18(19)23)22-9-7-21(2)8-10-22/h3-6,11-12H,7-10H2,1-2H3,(H2,19,23)",
        "InChIKey": null,
        "Canonical SMILES": "O=C(N)C1=CN=C(C=C1C=2C=CC=CC2C)N3CCN(C)CC3",
        "Molecular Formula": "C<sub>18</sub>H<sub>22</sub>N<sub>4</sub>O",
        "Molecular Mass": "310.39",
        "Melting Point": "163.6-164.5 °C"
    }
}