{
    "cas_no": "6006-15-1",
    "key_name": "<em>N</em>,<em>N</em>-Diethyl-2-propanamine",
    "cn_name": null,
    "alternate_name": "2-Propanamine, <em>N</em>,<em>N</em>-diethyl-;Triethylamine, 1-methyl-;<em>N</em>,<em>N</em>-Diethyl-2-propanamine;Diethylisopropylamine;<em>N</em>,<em>N</em>-Diethylisopropylamine;<em>N</em>-Isopropyldiethylamine",
    "duplicated_cas_no": "",
    "SMILES": "N(C(C)C)(CC)CC",
    "meta_data": {
        "InChI": "InChI=1S/C7H17N/c1-5-8(6-2)7(3)4/h7H,5-6H2,1-4H3",
        "InChIKey": null,
        "Canonical SMILES": "N(CC)(CC)C(C)C",
        "Molecular Formula": "C<sub>7</sub>H<sub>17</sub>N",
        "Molecular Mass": "115.22",
        "Boiling Point": "108 °C",
        "Melting Point": "131-132 °C",
        "Density": "0.75 g/cm³"
    }
}