{
    "cas_no": "66246-88-6",
    "key_name": "Penconazole",
    "cn_name": "戊菌唑;1-[2-(2,4-二氯苯基)戊基]-1H-1,2,4-三唑;",
    "alternate_name": "1<em>H</em>-1,2,4-Triazole, 1-[2-(2,4-dichlorophenyl)pentyl]-;1-[2-(2,4-Dichlorophenyl)pentyl]-1<em>H</em>-1,2,4-triazole;CGA 71818;Penconazole;Topaze;Topas;Ofir;Pine gel;Regal gel;(±)-Penconazole;Omnex;Omnex WP 10;Topas (fungicide);Erluejunzuo;Pentos",
    "duplicated_cas_no": "87501-25-5;205862-71-1;1135441-14-3",
    "SMILES": "C(CN1C=NC=N1)(CCC)C2=C(Cl)C=C(Cl)C=C2",
    "meta_data": {
        "InChI": "InChI=1S/C13H15Cl2N3/c1-2-3-10(7-18-9-16-8-17-18)12-5-4-11(14)6-13(12)15/h4-6,8-10H,2-3,7H2,1H3",
        "InChIKey": null,
        "Canonical SMILES": "ClC1=CC=C(C(Cl)=C1)C(CN2N=CN=C2)CCC",
        "Molecular Formula": "C<sub>13</sub>H<sub>15</sub>Cl<sub>2</sub>N<sub>3</sub>",
        "Molecular Mass": "284.18",
        "Melting Point": "58.5 °C"
    }
}