{
    "cas_no": "75-43-4",
    "key_name": "Dichlorofluoromethane",
    "cn_name": "二氯一氟甲烷;一氟二氯甲烷;",
    "alternate_name": "Methane, dichlorofluoro-;Dichlorofluoromethane;F 21;Algofrene Type 5;Arcton 7;Dichloromonofluoromethane;Fluorodichloromethane;Freon 21;Genetron 21;Monofluorodichloromethane;FC 21;Fluorocarbon-21;R 21;R 21 (refrigerant);CFC 21;HCFC 21;AF 22;AF 22 (fluorocarbon);F 21 (fluorocarbon);FCFC 141b",
    "duplicated_cas_no": "39289-28-6",
    "SMILES": "C(Cl)(Cl)F",
    "meta_data": {
        "InChI": "InChI=1S/CHCl2F/c2-1(3)4/h1H",
        "InChIKey": null,
        "Canonical SMILES": "FC(Cl)Cl",
        "Molecular Formula": "CHCl<sub>2</sub>F",
        "Molecular Mass": "102.92",
        "Boiling Point": "8.9 °C @ Press: 760 Torr",
        "Melting Point": "-135 °C",
        "Density": "1.405 g/cm³ @ Temp: 9 °C"
    }
}