{
    "cas_no": "42783-78-8",
    "key_name": "[(2,2-Diethoxyethoxy)methyl]benzene",
    "cn_name": null,
    "alternate_name": "Benzene, [(2,2-diethoxyethoxy)methyl]-;[(2,2-Diethoxyethoxy)methyl]benzene;Benzyloxyacetaldehyde diethyl acetal",
    "duplicated_cas_no": "",
    "SMILES": "C(OCC(OCC)OCC)C1=CC=CC=C1",
    "meta_data": {
        "InChI": "InChI=1S/C13H20O3/c1-3-15-13(16-4-2)11-14-10-12-8-6-5-7-9-12/h5-9,13H,3-4,10-11H2,1-2H3",
        "InChIKey": null,
        "Canonical SMILES": "O(CC=1C=CC=CC1)CC(OCC)OCC",
        "Molecular Formula": "C<sub>13</sub>H<sub>20</sub>O<sub>3</sub>",
        "Molecular Mass": "224.30",
        "Boiling Point": "143 °C @ Press: 12 Torr",
        "Density": "1.0020 g/cm³ @ Temp: 24.5 °C"
    }
}