{
    "cas_no": "629-74-3",
    "key_name": "1-Hexadecyne",
    "cn_name": "1-十六炔;",
    "alternate_name": "1-Hexadecyne",
    "duplicated_cas_no": "",
    "SMILES": "C(CCCCCCC#C)CCCCCCC",
    "meta_data": {
        "InChI": "InChI=1S/C16H30/c1-3-5-7-9-11-13-15-16-14-12-10-8-6-4-2/h1H,4-16H2,2H3",
        "InChIKey": null,
        "Canonical SMILES": "C#CCCCCCCCCCCCCCC",
        "Molecular Formula": "C<sub>16</sub>H<sub>30</sub>",
        "Molecular Mass": "222.41",
        "Boiling Point": "284 °C",
        "Melting Point": "15 °C"
    }
}