{
    "cas_no": "1406-18-4",
    "key_name": "Vitamin E",
    "cn_name": null,
    "alternate_name": "Vitamin E;Erevit forte;Aquasol E;Rontex 201;Rocavit E;Fujimix E 20N;E-Mix 40;Hydrovit E forte;Irganox E 218;Irganox E 217;Juvela E;Juvela Food 500;Palmvitee;MDE 6000;E-Mix 70L;Sunactive VE 202;Sunactive VE 720;Riken E Oil 100;Riken E Oil 400;Sursum;Riken E Oil 805;Riken E Oil 800;Tocofer 400;Riken E Oil 600;T 50 vitamin E oil;Riken E Oil 1000;E Gems Liquid;Novatol 5-67S;Bio-E 400;Envirose 100;Vea lipogel;Polfamix E;Evitam 400;E-Oil Gold 80S;DeltaGold;DeltaGold (tocopherol);E-Mix S 4α;T 3251;Vitamin E α50A;MeSH ID: D014810;Navitae 90",
    "duplicated_cas_no": "11105-14-9",
    "SMILES": "",
    "meta_data": {
        "InChI": "",
        "InChIKey": null,
        "Canonical SMILES": "",
        "Molecular Formula": "Unspecified",
        "Molecular Mass": "",
        "Melting Point": "292 °C",
        "Density": "0.95 g/cm³ @ Temp: 20 °C"
    }
}