{
    "uri": "substance/pt/1406184",
    "rn": "1406-18-4",
    "name": "Vitamin E",
    "images": [],
    "inchi": "",
    "inchiKey": "",
    "smile": "",
    "canonicalSmile": "",
    "molecularFormula": "Unspecified",
    "molecularMass": "",
    "experimentalProperties": [
        {
            "name": "Melting Point",
            "property": "292 °C",
            "sourceNumber": 1
        },
        {
            "name": "Density",
            "property": "0.95 g/cm³ @ Temp: 20 °C",
            "sourceNumber": 2
        }
    ],
    "propertyCitations": [
        {
            "docUri": "document/pt/document/12249594",
            "sourceNumber": 1,
            "source": "FR1330108, 1963, CAplus"
        },
        {
            "docUri": "document/pt/document/46792785",
            "sourceNumber": 2,
            "source": "Lipsa, Rodica; International Journal of Biological Macromolecules, (2016), 88, 515-526, CAplus"
        }
    ],
    "synonyms": [
        "Vitamin E",
        "Erevit forte",
        "Aquasol E",
        "Rontex 201",
        "Rocavit E",
        "Fujimix E 20N",
        "E-Mix 40",
        "Hydrovit E forte",
        "Irganox E 218",
        "Irganox E 217",
        "Juvela E",
        "Juvela Food 500",
        "Palmvitee",
        "MDE 6000",
        "E-Mix 70L",
        "Sunactive VE 202",
        "Sunactive VE 720",
        "Riken E Oil 100",
        "Riken E Oil 400",
        "Sursum",
        "Riken E Oil 805",
        "Riken E Oil 800",
        "Tocofer 400",
        "Riken E Oil 600",
        "T 50 vitamin E oil",
        "Riken E Oil 1000",
        "E Gems Liquid",
        "Novatol 5-67S",
        "Bio-E 400",
        "Envirose 100",
        "Vea lipogel",
        "Polfamix E",
        "Evitam 400",
        "E-Oil Gold 80S",
        "DeltaGold",
        "DeltaGold (tocopherol)",
        "E-Mix S 4α",
        "T 3251",
        "Vitamin E α50A",
        "MeSH ID: D014810",
        "Navitae 90"
    ],
    "replacedRns": [
        "11105-14-9"
    ],
    "hasMolfile": false,
    "source": "https://commonchemistry.cas.org/detail?cas_rn=1406-18-4"
}