{
    "cas_no": "13361-31-4",
    "key_name": "2-Methylpropyl 2-cyanoacetate",
    "cn_name": "氰乙酸异丁酯;",
    "alternate_name": "Acetic acid, 2-cyano-, 2-methylpropyl ester;Acetic acid, cyano-, isobutyl ester;Acetic acid, cyano-, 2-methylpropyl ester;Acetic acid, cyano-, <em>iso</em>-butyl ester;2-Methylpropyl 2-cyanoacetate;Isobutyl cyanoacetate;Cyanoacetic acid isobutyl ester;Isobutyl 2-cyanoacetate",
    "duplicated_cas_no": "",
    "SMILES": "C(OCC(C)C)(CC#N)=O",
    "meta_data": {
        "InChI": "InChI=1S/C7H11NO2/c1-6(2)5-10-7(9)3-4-8/h6H,3,5H2,1-2H3",
        "InChIKey": null,
        "Canonical SMILES": "N#CCC(=O)OCC(C)C",
        "Molecular Formula": "C<sub>7</sub>H<sub>11</sub>NO<sub>2</sub>",
        "Molecular Mass": "141.17",
        "Boiling Point": "222.8-223.3 °C @ Press: 757 Torr",
        "Density": "0.99342 g/cm³ @ Temp: 20 °C"
    }
}