{
    "cas_no": "295-48-7",
    "key_name": "Cyclopentadecane",
    "cn_name": "环15烷;",
    "alternate_name": "Cyclopentadecane",
    "duplicated_cas_no": "",
    "SMILES": "C1CCCCCCCCCCCCCC1",
    "meta_data": {
        "InChI": "InChI=1S/C15H30/c1-2-4-6-8-10-12-14-15-13-11-9-7-5-3-1/h1-15H2",
        "InChIKey": null,
        "Canonical SMILES": "C1CCCCCCCCCCCCCC1",
        "Molecular Formula": "C<sub>15</sub>H<sub>30</sub>",
        "Molecular Mass": "210.40",
        "Boiling Point": "45-60 °C @ Press: 5 Torr",
        "Melting Point": "61.3 °C",
        "Density": "0.8364 g/cm³ @ Temp: 61.5 °C"
    }
}