{
    "cas_no": "94344-54-4",
    "key_name": "Sappanchalcone",
    "cn_name": null,
    "alternate_name": "2-Propen-1-one, 3-(3,4-dihydroxyphenyl)-1-(4-hydroxy-2-methoxyphenyl)-, (2<em>E</em>)-;2-Propen-1-one, 3-(3,4-dihydroxyphenyl)-1-(4-hydroxy-2-methoxyphenyl)-, (<em>E</em>)-;(2<em>E</em>)-3-(3,4-Dihydroxyphenyl)-1-(4-hydroxy-2-methoxyphenyl)-2-propen-1-one;Sappanchalcone",
    "duplicated_cas_no": "1170676-18-2",
    "SMILES": "C(/C=C/C1=CC(O)=C(O)C=C1)(=O)C2=C(OC)C=C(O)C=C2",
    "meta_data": {
        "InChI": "InChI=1S/C16H14O5/c1-21-16-9-11(17)4-5-12(16)13(18)6-2-10-3-7-14(19)15(20)8-10/h2-9,17,19-20H,1H3/b6-2+",
        "InChIKey": null,
        "Canonical SMILES": "O=C(C=CC1=CC=C(O)C(O)=C1)C2=CC=C(O)C=C2OC",
        "Molecular Formula": "C<sub>16</sub>H<sub>14</sub>O<sub>5</sub>",
        "Molecular Mass": "286.28",
        "Melting Point": "198-199 °C"
    }
}