{
    "cas_no": "822-67-3",
    "key_name": "2-Cyclohexen-1-ol",
    "cn_name": "2-环己烯-1-醇;2-环己烯醇;2-环己烯-1-醇;3-羥環己烯;",
    "alternate_name": "2-Cyclohexen-1-ol;Cyclohexen-3-ol;2-Cyclohexenol;3-Hydroxycyclohexene;1-Cyclohexen-3-ol;1-Hydroxy-2-cyclohexene;(±)-2-Cyclohexen-1-ol;3-Hydroxy-1-cyclohexene;NSC 64656;2-Cyclohexenyl alcohol",
    "duplicated_cas_no": "62860-38-2",
    "SMILES": "OC1CCCC=C1",
    "meta_data": {
        "InChI": "InChI=1S/C6H10O/c7-6-4-2-1-3-5-6/h2,4,6-7H,1,3,5H2",
        "InChIKey": null,
        "Canonical SMILES": "OC1C=CCCC1",
        "Molecular Formula": "C<sub>6</sub>H<sub>10</sub>O",
        "Molecular Mass": "98.14",
        "Boiling Point": "164 °C",
        "Melting Point": "107-108 °C",
        "Density": "1.00 g/cm³ @ Temp: 28 °C"
    }
}