{
    "cas_no": "3724-55-8",
    "key_name": "Methyl 3-butenoate",
    "cn_name": "3-丁烯酸甲酯;",
    "alternate_name": "3-Butenoic acid, methyl ester;Methyl 3-butenoate;NSC 250983",
    "duplicated_cas_no": "",
    "SMILES": "C(CC=C)(OC)=O",
    "meta_data": {
        "InChI": "InChI=1S/C5H8O2/c1-3-4-5(6)7-2/h3H,1,4H2,2H3",
        "InChIKey": null,
        "Canonical SMILES": "O=C(OC)CC=C",
        "Molecular Formula": "C<sub>5</sub>H<sub>8</sub>O<sub>2</sub>",
        "Molecular Mass": "100.12",
        "Boiling Point": "107 °C @ Press: 742 Torr"
    }
}