{
    "cas_no": "294-90-6",
    "key_name": "1,4,7,10-Tetraazacyclododecane",
    "cn_name": "轮环藤宁;1,4,7,10-四氮杂环十二烷;",
    "alternate_name": "1,4,7,10-Tetraazacyclododecane;Cyclen;Tetraaza-12-crown-4;NSC 629374;1,4,7,10-Tetrazacyclododecane",
    "duplicated_cas_no": "",
    "SMILES": "C1CNCCNCCNCCN1",
    "meta_data": {
        "InChI": "InChI=1S/C8H20N4/c1-2-10-5-6-12-8-7-11-4-3-9-1/h9-12H,1-8H2",
        "InChIKey": null,
        "Canonical SMILES": "N1CCNCCNCCNCC1",
        "Molecular Formula": "C<sub>8</sub>H<sub>20</sub>N<sub>4</sub>",
        "Molecular Mass": "172.27",
        "Melting Point": "110-113 °C"
    }
}