{
    "cas_no": "629-90-3",
    "key_name": "Heptadecanal",
    "cn_name": null,
    "alternate_name": "Heptadecanal;Margaric aldehyde;<em>n</em>-Heptadecanal;1-Heptadecanal",
    "duplicated_cas_no": "",
    "SMILES": "C(CCCCCCCC=O)CCCCCCCC",
    "meta_data": {
        "InChI": "InChI=1S/C17H34O/c1-2-3-4-5-6-7-8-9-10-11-12-13-14-15-16-17-18/h17H,2-16H2,1H3",
        "InChIKey": null,
        "Canonical SMILES": "O=CCCCCCCCCCCCCCCCC",
        "Molecular Formula": "C<sub>17</sub>H<sub>34</sub>O",
        "Molecular Mass": "254.45",
        "Boiling Point": "173-176 °C",
        "Melting Point": "36 °C"
    }
}