{
    "cas_no": "13958-99-1",
    "key_name": "3-Bromo-4-pyridinecarboxamide",
    "cn_name": null,
    "alternate_name": "4-Pyridinecarboxamide, 3-bromo-;Isonicotinamide, 3-bromo-;3-Bromo-4-pyridinecarboxamide;3-Bromopyridine-4-carboxamide;3-Bromoisonicotinamide",
    "duplicated_cas_no": "",
    "SMILES": "C(N)(=O)C=1C(Br)=CN=CC1",
    "meta_data": {
        "InChI": "InChI=1S/C6H5BrN2O/c7-5-3-9-2-1-4(5)6(8)10/h1-3H,(H2,8,10)",
        "InChIKey": null,
        "Canonical SMILES": "O=C(N)C=1C=CN=CC1Br",
        "Molecular Formula": "C<sub>6</sub>H<sub>5</sub>BrN<sub>2</sub>O",
        "Molecular Mass": "201.02",
        "Melting Point": "149-150 °C"
    }
}