{
    "cas_no": "17075-03-5",
    "key_name": "4-Pyrenamine",
    "cn_name": null,
    "alternate_name": "4-Pyrenamine;4-Aminopyrene",
    "duplicated_cas_no": "",
    "SMILES": "NC=1C=2C3=C4C(C1)=CC=CC4=CC=C3C=CC2",
    "meta_data": {
        "InChI": "InChI=1S/C16H11N/c17-14-9-12-5-1-3-10-7-8-11-4-2-6-13(14)16(11)15(10)12/h1-9H,17H2",
        "InChIKey": null,
        "Canonical SMILES": "NC1=CC=2C=CC=C3C=CC4=CC=CC1=C4C32",
        "Molecular Formula": "C<sub>16</sub>H<sub>11</sub>N",
        "Molecular Mass": "217.27",
        "Melting Point": "207 °C"
    }
}