{
    "cas_no": "2711-58-2",
    "key_name": "1<em>H</em>-Indole-3-ethanamine, 5-fluoro-, hydrochloride (1:1)",
    "cn_name": "5-氟色胺盐酸盐;3-(2-氨乙基)-5-氟吲哚盐酸盐;",
    "alternate_name": "1<em>H</em>-Indole-3-ethanamine, 5-fluoro-, hydrochloride (1:1);Indole, 3-(2-aminoethyl)-5-fluoro-, hydrochloride;1<em>H</em>-Indole-3-ethanamine, 5-fluoro-, monohydrochloride;5-Fluorotryptamine hydrochloride;2-(5-Fluoro-1<em>H</em>-indol-3-yl)ethan-1-amine hydrochloride;2-(5-Fluoro-1<em>H</em>-indol-3-yl)-ethylamine; hydrochloride;2-(5-Fluoro-1<em>H</em>-indol-3-yl)ethanamine hydrochloride;5-fluorotryptammonium chloride",
    "duplicated_cas_no": "",
    "SMILES": "C(CN)C=1C=2C(NC1)=CC=C(F)C2.Cl",
    "meta_data": {
        "InChI": "InChI=1S/C10H11FN2.ClH/c11-8-1-2-10-9(5-8)7(3-4-12)6-13-10;/h1-2,5-6,13H,3-4,12H2;1H",
        "InChIKey": null,
        "Canonical SMILES": "Cl.FC=1C=CC=2NC=C(C2C1)CCN",
        "Molecular Formula": "C<sub>10</sub>H<sub>11</sub>FN<sub>2</sub>.ClH",
        "Molecular Mass": "",
        "Melting Point": "282 °C"
    }
}