{
    "cas_no": "15404-76-9",
    "key_name": "Fuscaxanthone C",
    "cn_name": null,
    "alternate_name": "9<em>H</em>-Xanthen-9-one, 1-hydroxy-3,6,7-trimethoxy-2,8-bis(3-methyl-2-buten-1-yl)-;Xanthen-9-one, 1-hydroxy-3,6,7-trimethoxy-2,8-bis(3-methyl-2-butenyl)-;Mangostin, dimethyl-;9<em>H</em>-Xanthen-9-one, 1-hydroxy-3,6,7-trimethoxy-2,8-bis(3-methyl-2-butenyl)-;1-Hydroxy-3,6,7-trimethoxy-2,8-bis(3-methyl-2-buten-1-yl)-9<em>H</em>-xanthen-9-one;Fuscaxanthone C;NSC 27594;1-Hydroxy-3,6,7-trimethoxy-2,8-bis(3-methylbut-2-enyl)xanthen-9-one",
    "duplicated_cas_no": "11039-30-8",
    "SMILES": "C(C=C(C)C)C1=C2C(OC=3C(C2=O)=C(O)C(CC=C(C)C)=C(OC)C3)=CC(OC)=C1OC",
    "meta_data": {
        "InChI": "InChI=1S/C26H30O6/c1-14(2)8-10-16-18(29-5)12-20-23(24(16)27)25(28)22-17(11-9-15(3)4)26(31-7)21(30-6)13-19(22)32-20/h8-9,12-13,27H,10-11H2,1-7H3",
        "InChIKey": null,
        "Canonical SMILES": "O=C1C2=C(OC=3C=C(OC)C(OC)=C(C13)CC=C(C)C)C=C(OC)C(=C2O)CC=C(C)C",
        "Molecular Formula": "C<sub>26</sub>H<sub>30</sub>O<sub>6</sub>",
        "Molecular Mass": "438.51",
        "Melting Point": "119-122 °C"
    }
}