{
    "cas_no": "6091-44-7",
    "key_name": "Piperidine, hydrochloride",
    "cn_name": "哌啶盐酸盐;",
    "alternate_name": "Piperidine, hydrochloride (1:1);Piperidine, hydrochloride;Piperidinium chloride",
    "duplicated_cas_no": "884242-34-6",
    "SMILES": "C1CCNCC1.Cl",
    "meta_data": {
        "InChI": "InChI=1S/C5H11N.ClH/c1-2-4-6-5-3-1;/h6H,1-5H2;1H",
        "InChIKey": null,
        "Canonical SMILES": "Cl.N1CCCCC1",
        "Molecular Formula": "C<sub>5</sub>H<sub>11</sub>N.ClH",
        "Molecular Mass": "",
        "Melting Point": "245-248 °C"
    }
}