{
    "cas_no": "58-22-0",
    "key_name": "Testosterone",
    "cn_name": "睾酮;",
    "alternate_name": "Androst-4-en-3-one, 17-hydroxy-, (17β)-;Testosterone;(17β)-17-Hydroxyandrost-4-en-3-one;Androlin;Andronaq;Androst-4-en-17β-ol-3-one;Andrusol;Geno-cristaux Gremy;Homosteron;Homosterone;17β-Hydroxy-Δ<sup>4</sup>-androsten-3-one;17β-Hydroxyandrost-4-en-3-one;Mertestate;Orquisteron;Percutacrine androgenique;Primotest;Primoteston;Teslen;Testandrone;Testiculosterone;Testobase;Testosteroid;Testoviron Schering;Testrone;Testryl;Virormone;Virosterone;17β-Hydroxyandrost-4-ene-3-one;Testosteron;Cristerona T;Testopropon;Perandren;Testoviron T;Neotestis;Δ<sup>4</sup>-Androsten-17β-ol-3-one;4-Androsten-3-one-17β-ol;Androst-4-ene-17β-ol-3-one;Testolent;Testoderm;Androderm;CDB 111C;Relibra;AndroGel;Viatrel;Tostrelle;Andro 100;Testolin;Testro AQ;Synandrol F;Oreton;CP 601B;NSC 9700;Testim;AA 2500;Andropatch;Tostrex;17β-Testosterone;COL 1621;Testogel;Intrinsa;Striant;Opterone;(+)-Testosterone;Noseafix;Glowmin;Nasobol;Compleo;Testopatch;Testopel;Axiron;AndroForte 5;(8R,9S,10R,13S,14S,17S)-17-Hydroxy-10,13-dimethyl-6,7,8,9,10,11,12,13,14,15,16,17-dodecahydro-1<em>H</em>-cyclopenta[<em>a</em>]phenanthren-3(2<em>H</em>)-one;Natesto;Livensa;LPCN 1144;MeSH ID: D013739",
    "duplicated_cas_no": "1050678-68-6",
    "SMILES": "C[C@@]12[C@@]3([C@]([C@]4([C@](C)(CC3)[C@@H](O)CC4)[H])(CCC1=CC(=O)CC2)[H])[H]",
    "meta_data": {
        "InChI": "InChI=1S/C19H28O2/c1-18-9-7-13(20)11-12(18)3-4-14-15-5-6-17(21)19(15,2)10-8-16(14)18/h11,14-17,21H,3-10H2,1-2H3/t14-,15-,16-,17-,18-,19-/m0/s1",
        "InChIKey": null,
        "Canonical SMILES": "O=C1C=C2CCC3C(CCC4(C)C(O)CCC34)C2(C)CC1",
        "Molecular Formula": "C<sub>19</sub>H<sub>28</sub>O<sub>2</sub>",
        "Molecular Mass": "288.42",
        "Melting Point": "155 °C"
    }
}