{
    "cas_no": "13939-06-5",
    "key_name": "Molybdenum hexacarbonyl",
    "cn_name": "六羰基钼;",
    "alternate_name": "Molybdenum carbonyl (Mo(CO)<sub>6</sub>), (<em>OC</em>-6-11)-;Molybdenum carbonyl (Mo(CO)<sub>6</sub>);Hexacarbonylmolybdenum;Molybdenum hexacarbonyl;Molybdenum hexacarbonyl (Mo(CO)<sub>6</sub>);Hexacarbonylmolybdenum(0);NSC 173702;NSC 215198",
    "duplicated_cas_no": "11065-25-1;28896-18-6;56779-83-0;78778-54-8;164115-69-9;2243461-20-1",
    "SMILES": "[Mo](C#O)(C#O)(C#O)(C#O)(C#O)C#O",
    "meta_data": {
        "InChI": "InChI=1S/6CO.Mo/c6*1-2;",
        "InChIKey": null,
        "Canonical SMILES": "O#C[Mo](C#O)(C#O)(C#O)(C#O)C#O",
        "Molecular Formula": "C<sub>6</sub>MoO<sub>6</sub>",
        "Molecular Mass": "",
        "Boiling Point": "155 °C @ Press: 754 Torr",
        "Melting Point": "150-151 °C (decomp)",
        "Density": "1.96 g/cm³"
    }
}