{
    "cas_no": "22564-43-8",
    "key_name": "<em>N</em>-(2-Chloroethyl)-<em>N</em>-ethyl-3-methylbenzenamine",
    "cn_name": "N-乙基-N-氯乙基-3-甲基苯胺;",
    "alternate_name": "Benzenamine, <em>N</em>-(2-chloroethyl)-<em>N</em>-ethyl-3-methyl-;<em>m</em>-Toluidine, <em>N</em>-(2-chloroethyl)-<em>N</em>-ethyl-;<em>N</em>-(2-Chloroethyl)-<em>N</em>-ethyl-3-methylbenzenamine;<em>N</em>-Chloroethyl-<em>N</em>-ethyl-<em>m</em>-toluidine;<em>N</em>-Ethyl-<em>N</em>-β-chloroethyl-<em>m</em>-toluidine;1-[<em>N</em>-Ethyl-<em>N</em>-(β-chloroethyl)amino]-3-methylbenzene;<em>N</em>-(2-Chloroethyl)-<em>N</em>-ethyl-<em>m</em>-toluidine;<em>N</em>-Ethyl-<em>N</em>-(2-chloroethyl)-<em>m</em>-toluidine;<em>N</em>-(2-Chloroethyl)-<em>N</em>-ethyl-<em>N</em>-toluidine;<em>N</em>-(2-Chloroethyl)-<em>N</em>-ethyl-3-methylaniline",
    "duplicated_cas_no": "",
    "SMILES": "N(CCCl)(CC)C1=CC(C)=CC=C1",
    "meta_data": {
        "InChI": "InChI=1S/C11H16ClN/c1-3-13(8-7-12)11-6-4-5-10(2)9-11/h4-6,9H,3,7-8H2,1-2H3",
        "InChIKey": null,
        "Canonical SMILES": "ClCCN(C1=CC=CC(=C1)C)CC",
        "Molecular Formula": "C<sub>11</sub>H<sub>16</sub>ClN",
        "Molecular Mass": "197.70",
        "Boiling Point": "143-144 °C @ Press: 13-14 Torr"
    }
}