{
    "cas_no": "210880-92-5",
    "key_name": "Clothianidin",
    "cn_name": "可尼丁;噻虫胺;(E)-1-(2-氯-1,3-噻唑-5-基甲基)-3-甲基-2-硝基胍;",
    "alternate_name": "Guanidine, <em>N</em>-[(2-chloro-5-thiazolyl)methyl]-<em>N</em>′-methyl-<em>N</em>′′-nitro-, [<em>C</em>(<em>E</em>)]-;[<em>C</em>(<em>E</em>)]-<em>N</em>-[(2-Chloro-5-thiazolyl)methyl]-<em>N</em>′-methyl-<em>N</em>′′-nitroguanidine;TI 435;Clothianidin;Poncho;Dantotsu;Fullswing;Apacz;Clutch;Clutch (insecticide);Belay;TM 44401;Arena;V 10170;Takeloc MC 50E;Takeloc CLMN 10;Celero;(E)-1-(2-Chloro-1,3-thiazol-5-yl methyl)-3-methyl-2-nitroguanidine;Poncho 600;Dantop;(E)-1-(2-Chloro-1,3-thiazole-5-ylmethyl)-3-methyl-2-nitroguanidine;Poncho 250;NipsIt Inside;Titan ST;Dantotsu 16WSG;Takeloc MC 50 Super;NipsIt;(<em>E</em>)-1-(2-Chloro-1,3-thiazol-5-ylmethyl)-3-methyl-2-nitroguanidine;Nipsit Inside Insecticide;Takelock MC 50 super;Poncho 60 FS",
    "duplicated_cas_no": "205510-53-8",
    "SMILES": "C(N/C(=N/N(=O)=O)/NC)C1=CN=C(Cl)S1",
    "meta_data": {
        "InChI": "InChI=1S/C6H8ClN5O2S/c1-8-6(11-12(13)14)10-3-4-2-9-5(7)15-4/h2H,3H2,1H3,(H2,8,10,11)",
        "InChIKey": null,
        "Canonical SMILES": "O=N(=O)N=C(NC)NCC=1SC(Cl)=NC1",
        "Molecular Formula": "C<sub>6</sub>H<sub>8</sub>ClN<sub>5</sub>O<sub>2</sub>S",
        "Molecular Mass": "249.68",
        "Melting Point": "172-174 °C"
    }
}