{
    "cas_no": "935-79-5",
    "key_name": "<em>cis</em>-1,2,3,6-Tetrahydrophthalic anhydride",
    "cn_name": "四氢苯酐;",
    "alternate_name": "1,3-Isobenzofurandione, 3a,4,7,7a-tetrahydro-, (3a<em>R</em>,7a<em>S</em>)-<em>rel</em>-;4-Cyclohexene-1,2-dicarboxylic anhydride, <em>cis</em>-;1,3-Isobenzofurandione, 3a,4,7,7a-tetrahydro-, <em>cis</em>-;<em>rel</em>-(3a<em>R</em>,7a<em>S</em>)-3a,4,7,7a-Tetrahydro-1,3-isobenzofurandione;<em>cis</em>-1,2,3,6-Tetrahydrophthalic anhydride;<em>cis</em>-4-Cyclohexene-1,2-dicarboxylic anhydride;<em>cis</em>-Δ<sup>4</sup>-Tetrahydrophthalic anhydride;<em>cis</em>-1,2,3,6-Tetrahydrophthalic acid anhydride;<em>cis</em>-4-Cyclohexene-1,2-dicarboxylic acid anhydride;NSC 49672;<em>meso</em>-1,2,3,6-Tetrahydrophthalic anhydride",
    "duplicated_cas_no": "54684-06-9;439919-47-8;478856-60-9;954148-35-7;1446101-65-0;1632398-54-9;1639268-88-4;1690350-49-2;2226787-93-3;2497588-65-3;3032077-86-1",
    "SMILES": "O=C1[C@@]2([C@](C(=O)O1)(CC=CC2)[H])[H]",
    "meta_data": {
        "InChI": "InChI=1/C8H8O3/c9-7-5-3-1-2-4-6(5)8(10)11-7/h1-2,5-6H,3-4H2/t5-,6+",
        "InChIKey": null,
        "Canonical SMILES": "O=C1OC(=O)C2CC=CCC12",
        "Molecular Formula": "C<sub>8</sub>H<sub>8</sub>O<sub>3</sub>",
        "Molecular Mass": "152.15",
        "Melting Point": "103-104 °C"
    }
}