{
    "cas_no": "2870-71-5",
    "key_name": "Atropine methyl bromide",
    "cn_name": null,
    "alternate_name": "8-Azoniabicyclo[3.2.1]octane, 3-(3-hydroxy-1-oxo-2-phenylpropoxy)-8,8-dimethyl-, bromide (1:1), (3-<em>endo</em>)-;8-Methylatropinium bromide;1α<span class=\"text-smallcaps\">H</smallcap>,5α<smallcap>H</span>-Tropanium, 3α-hydroxy-8-methyl-, bromide, (±)-tropate;8-Azoniabicyclo[3.2.1]octane, 3-(3-hydroxy-1-oxo-2-phenylpropoxy)-8,8-dimethyl-, bromide, <em>endo</em>-(±)-;8-Azoniabicyclo[3.2.1]octane, 3-(3-hydroxy-1-oxo-2-phenylpropoxy)-8,8-dimethyl-, bromide, (3-<em>endo</em>)-;Atropine methobromide;Hyoscyamine methyl bromide;Methylatropine bromide;Atropine methyl bromide;Methylatropinium bromide;<em>N</em>-Methylatropine bromide;Mintussin;Mydriasin;Tropin;<em>N</em>-Methylatropinium bromide;8-Azoniabicyclo[3.2.1]octane, 3-(3-hydroxy-1-oxo-2-phenylpropoxy)-8,8-dimethyl-, bromide, <em>endo</em>-;NSC 61810",
    "duplicated_cas_no": "",
    "SMILES": "C[N+]1(C)[C@]2(C[C@H](OC(C(CO)C3=CC=CC=C3)=O)C[C@@]1(CC2)[H])[H].[Br-]",
    "meta_data": {
        "InChI": "InChI=1/C18H26NO3.BrH/c1-19(2)14-8-9-15(19)11-16(10-14)22-18(21)17(12-20)13-6-4-3-5-7-13;/h3-7,14-17,20H,8-12H2,1-2H3;1H/q+1;/p-1/t14-,15+,16+,17?;",
        "InChIKey": null,
        "Canonical SMILES": "[Br-].O=C(OC1CC2CCC(C1)[N+]2(C)C)C(C=3C=CC=CC3)CO",
        "Molecular Formula": "C<sub>18</sub>H<sub>26</sub>NO<sub>3</sub>.Br",
        "Molecular Mass": "",
        "Melting Point": "222-223 °C"
    }
}