{
    "cas_no": "105748-59-2",
    "key_name": "Brassinin",
    "cn_name": "芸薹宁;(1H-吲哚-3-基甲基)-二硫代氨基甲酸甲酯;",
    "alternate_name": "Carbamodithioic acid, <em>N</em>-(1<em>H</em>-indol-3-ylmethyl)-, methyl ester;Carbamodithioic acid, (1<em>H</em>-indol-3-ylmethyl)-, methyl ester;Brassinine;Brassinin;SML 1635",
    "duplicated_cas_no": "",
    "SMILES": "C(NC(SC)=S)C=1C=2C(NC1)=CC=CC2",
    "meta_data": {
        "InChI": "InChI=1S/C11H12N2S2/c1-15-11(14)13-7-8-6-12-10-5-3-2-4-9(8)10/h2-6,12H,7H2,1H3,(H,13,14)",
        "InChIKey": null,
        "Canonical SMILES": "S=C(SC)NCC1=CNC=2C=CC=CC21",
        "Molecular Formula": "C<sub>11</sub>H<sub>12</sub>N<sub>2</sub>S<sub>2</sub>",
        "Molecular Mass": "236.36",
        "Melting Point": "133-135 °C"
    }
}