{
    "cas_no": "40432-52-8",
    "key_name": "1-(Diphenylmethyl)-3-azetidinamine",
    "cn_name": null,
    "alternate_name": "3-Azetidinamine, 1-(diphenylmethyl)-;1-(Diphenylmethyl)-3-azetidinamine;1-(Diphenylmethyl)-3-aminoazetidine;1-Benzhydrylazetidin-3-ylamine;3-Amino-1-(diphenylmethyl)azetidine;3-Amino-1-benzhydrylazetidine;1-Benzhydrylazetidin-3-amine;1-Benzhydryl-3-aminoazetidine",
    "duplicated_cas_no": "",
    "SMILES": "C(N1CC(N)C1)(C2=CC=CC=C2)C3=CC=CC=C3",
    "meta_data": {
        "InChI": "InChI=1S/C16H18N2/c17-15-11-18(12-15)16(13-7-3-1-4-8-13)14-9-5-2-6-10-14/h1-10,15-16H,11-12,17H2",
        "InChIKey": null,
        "Canonical SMILES": "NC1CN(C1)C(C=2C=CC=CC2)C=3C=CC=CC3",
        "Molecular Formula": "C<sub>16</sub>H<sub>18</sub>N<sub>2</sub>",
        "Molecular Mass": "238.33",
        "Melting Point": "84-87 °C"
    }
}