{
    "cas_no": "162358-08-9",
    "key_name": "1,3-Diethyl 2-(acetylamino)-2-[2-(4-octylphenyl)ethyl]propanedioate",
    "cn_name": null,
    "alternate_name": "Propanedioic acid, 2-(acetylamino)-2-[2-(4-octylphenyl)ethyl]-, 1,3-diethyl ester;Propanedioic acid, (acetylamino)[2-(4-octylphenyl)ethyl]-, diethyl ester;1,3-Diethyl 2-(acetylamino)-2-[2-(4-octylphenyl)ethyl]propanedioate;(Acetylamino)[2-(4-octylphenyl)ethyl]propanedioic acid diethyl ester;Diethyl 2-(acetamido)-2-(2-(4-octylphenyl)ethyl)propanedioate;2-Acetylamino-2-(2-(4-octylphenyl)ethyl)propanedioic acid diethyl ester;Diethyl 2-[2-(4-<em>n</em>-octylphenyl)ethyl]-2-acetamidomalonate",
    "duplicated_cas_no": "",
    "SMILES": "C(CCC1=CC=C(CCCCCCCC)C=C1)(C(OCC)=O)(C(OCC)=O)NC(C)=O",
    "meta_data": {
        "InChI": "InChI=1S/C25H39NO5/c1-5-8-9-10-11-12-13-21-14-16-22(17-15-21)18-19-25(26-20(4)27,23(28)30-6-2)24(29)31-7-3/h14-17H,5-13,18-19H2,1-4H3,(H,26,27)",
        "InChIKey": null,
        "Canonical SMILES": "O=C(OCC)C(NC(=O)C)(C(=O)OCC)CCC1=CC=C(C=C1)CCCCCCCC",
        "Molecular Formula": "C<sub>25</sub>H<sub>39</sub>NO<sub>5</sub>",
        "Molecular Mass": "433.58",
        "Melting Point": "51-53 °C"
    }
}