{
    "cas_no": "483-66-9",
    "key_name": "Sphondin",
    "cn_name": null,
    "alternate_name": "2<em>H</em>-Furo[2,3-<em>h</em>]-1-benzopyran-2-one, 6-methoxy-;Sphondin;5-Benzofuranacrylic acid, 4-hydroxy-7-methoxy-, δ-lactone;6-Methoxy-2<em>H</em>-furo[2,3-<em>h</em>]-1-benzopyran-2-one;Sfondin;6-Methoxyangelicin;6-Methoxy-7,8-furanocoumarin",
    "duplicated_cas_no": "",
    "SMILES": "O(C)C=1C2=C(C3=C(C1)C=CC(=O)O3)C=CO2",
    "meta_data": {
        "InChI": "InChI=1S/C12H8O4/c1-14-9-6-7-2-3-10(13)16-11(7)8-4-5-15-12(8)9/h2-6H,1H3",
        "InChIKey": null,
        "Canonical SMILES": "O=C1OC=2C(C=C1)=CC(OC)=C3OC=CC32",
        "Molecular Formula": "C<sub>12</sub>H<sub>8</sub>O<sub>4</sub>",
        "Molecular Mass": "216.19",
        "Melting Point": "189-191 °C"
    }
}