{
    "cas_no": "461-82-5",
    "key_name": "4-(Trifluoromethoxy)aniline",
    "cn_name": "对三氟甲氧基苯胺;对氨基三氟甲氧基苯;",
    "alternate_name": "Benzenamine, 4-(trifluoromethoxy)-;<em>p</em>-Anisidine, α,α,α-trifluoro-;4-(Trifluoromethoxy)benzenamine;<em>p</em>-(Trifluoromethoxy)aniline;4-(Trifluoromethoxy)aniline;α,α,α-Trifluoro-<em>p</em>-anisidine;<em>p</em>-Trifluoromethoxyphenylamine;(4-(Trifluoromethoxy)phenyl)amine;4-Trifluoromethoxybenzeneamine;1-Amino-4-(trifluoromethoxy)benzene;4-[(Trifluoromethyl)oxy]aniline",
    "duplicated_cas_no": "",
    "SMILES": "O(C(F)(F)F)C1=CC=C(N)C=C1",
    "meta_data": {
        "InChI": "InChI=1S/C7H6F3NO/c8-7(9,10)12-6-3-1-5(11)2-4-6/h1-4H,11H2",
        "InChIKey": null,
        "Canonical SMILES": "FC(F)(F)OC1=CC=C(N)C=C1",
        "Molecular Formula": "C<sub>7</sub>H<sub>6</sub>F<sub>3</sub>NO",
        "Molecular Mass": "177.12",
        "Boiling Point": "73-75 °C @ Press: 10 Torr"
    }
}