{
    "cas_no": "6153-56-6",
    "key_name": "Ethanedioic acid hydrate (1:2)",
    "cn_name": "二水合草酸;乙二酸(二水合);",
    "alternate_name": "Ethanedioic acid, hydrate (1:2);Oxalic acid, dihydrate;Ethanedioic acid, dihydrate;Ethanedioic acid hydrate (1:2);Oxybee;Dany's BienenWohl",
    "duplicated_cas_no": "2602619-84-9;2770108-61-5;2958638-19-0",
    "SMILES": "C(C(O)=O)(O)=O.O",
    "meta_data": {
        "InChI": "InChI=1S/C2H2O4.2H2O/c3-1(4)2(5)6;;/h(H,3,4)(H,5,6);2*1H2",
        "InChIKey": null,
        "Canonical SMILES": "O=C(O)C(=O)O.O",
        "Molecular Formula": "C<sub>2</sub>H<sub>2</sub>O<sub>4</sub>.2H<sub>2</sub>O",
        "Molecular Mass": "",
        "Melting Point": "102 °C",
        "Density": "1.0318 g/cm³ @ Temp: 15 °C"
    }
}