{
    "cas_no": "4702-34-5",
    "key_name": "3,4-Dihydroisocoumarin",
    "cn_name": null,
    "alternate_name": "1<em>H</em>-2-Benzopyran-1-one, 3,4-dihydro-;Isocoumarin, 3,4-dihydro-;3,4-Dihydro-1<em>H</em>-2-benzopyran-1-one;1-Isochromanone;3,4-Dihydroisocoumarin;3,4-Dihydroisochromen-1-one",
    "duplicated_cas_no": "",
    "SMILES": "O=C1C=2C(CCO1)=CC=CC2",
    "meta_data": {
        "InChI": "InChI=1S/C9H8O2/c10-9-8-4-2-1-3-7(8)5-6-11-9/h1-4H,5-6H2",
        "InChIKey": null,
        "Canonical SMILES": "O=C1OCCC=2C=CC=CC12",
        "Molecular Formula": "C<sub>9</sub>H<sub>8</sub>O<sub>2</sub>",
        "Molecular Mass": "148.16",
        "Boiling Point": "165 °C @ Press: 16 Torr",
        "Melting Point": "37-39 °C",
        "Density": "1.203 g/cm³ @ Temp: 18.5 °C"
    }
}