{
    "cas_no": "4500-58-7",
    "key_name": "2-Ethylbenzenethiol",
    "cn_name": "2-乙基苯硫酚;",
    "alternate_name": "Benzenethiol, 2-ethyl-;Benzenethiol, <em>o</em>-ethyl-;2-Ethylbenzenethiol;<em>o</em>-Ethylbenzenethiol;2-Ethylbenzothiol;2-Ethylthiophenol",
    "duplicated_cas_no": "",
    "SMILES": "C(C)C1=C(S)C=CC=C1",
    "meta_data": {
        "InChI": "InChI=1S/C8H10S/c1-2-7-5-3-4-6-8(7)9/h3-6,9H,2H2,1H3",
        "InChIKey": null,
        "Canonical SMILES": "SC=1C=CC=CC1CC",
        "Molecular Formula": "C<sub>8</sub>H<sub>10</sub>S",
        "Molecular Mass": "138.23",
        "Boiling Point": "207-209 °C @ Press: 730 Torr",
        "Density": "1.0349 g/cm³ @ Temp: 20 °C"
    }
}