{
    "cas_no": "17890-10-7",
    "key_name": "<em>N</em>-[(Dimethoxymethylsilyl)methyl]benzenamine",
    "cn_name": "苯胺甲基甲基二甲氧基硅烷;",
    "alternate_name": "Benzenamine, <em>N</em>-[(dimethoxymethylsilyl)methyl]-;Aniline, <em>N</em>-[(dimethoxymethylsilyl)methyl]-;<em>N</em>-[(Dimethoxymethylsilyl)methyl]benzenamine;<em>N</em>-Phenylaminomethyldimethoxymethylsilane;Geniosil XL 972;XL 972;(Anilinomethyl)(dimethoxy)(methyl)silane;(<em>N</em>-Phenylaminomethyl)methyldimethoxysilane;(Methyl)(phenylaminomethyl)dimethoxysilane;α-<em>N</em>-Phenylaminomethyldimethoxymethylsilane;Anilinomethylmethyldimethoxysilane",
    "duplicated_cas_no": "",
    "SMILES": "[Si](CNC1=CC=CC=C1)(OC)(OC)C",
    "meta_data": {
        "InChI": "InChI=1S/C10H17NO2Si/c1-12-14(3,13-2)9-11-10-7-5-4-6-8-10/h4-8,11H,9H2,1-3H3",
        "InChIKey": null,
        "Canonical SMILES": "O(C)[Si](OC)(C)CNC=1C=CC=CC1",
        "Molecular Formula": "C<sub>10</sub>H<sub>17</sub>NO<sub>2</sub>Si",
        "Molecular Mass": "211.33",
        "Boiling Point": "255 °C",
        "Density": "1.04 g/cm³"
    }
}