{
    "cas_no": "298-81-7",
    "key_name": "8-Methoxypsoralen",
    "cn_name": "8-甲氧基补骨脂素;花椒毒素;",
    "alternate_name": "7<em>H</em>-Furo[3,2-<em>g</em>][1]benzopyran-7-one, 9-methoxy-;5-Benzofuranacrylic acid, 6-hydroxy-7-methoxy-, δ-lactone;9-Methoxy-7<em>H</em>-furo[3,2-<em>g</em>][1]benzopyran-7-one;8-MOP;Ammoidin;Meladinin;Meloxine;Methoxa-Dome;Methoxsalen;8-Methoxy[furano-3′,2′:6,7-coumarin];8-Methoxypsoralen;Oxsoralen;Xanthotoxin;8-Methoxypsoralene;Xanthotoxine;Meladoxen;Meladinine;Oxypsoralen;8-MP;New-Meladinin;Puvalen;8-Methoxy-6,7-furanocoumarin;Puvamet;Geroxalen;Uvadex;Oxsoralen-Ultra;Oxsoralen Lotion;Ammodin;NSC 45923;Deltapsoralen;Methoxsalene;Vitpso;5-Demethoxyisoimpinellin",
    "duplicated_cas_no": "12692-94-3",
    "SMILES": "O(C)C=1C2=C(C=C3C1OC=C3)C=CC(=O)O2",
    "meta_data": {
        "InChI": "InChI=1S/C12H8O4/c1-14-12-10-8(4-5-15-10)6-7-2-3-9(13)16-11(7)12/h2-6H,1H3",
        "InChIKey": null,
        "Canonical SMILES": "O=C1OC2=C(OC)C=3OC=CC3C=C2C=C1",
        "Molecular Formula": "C<sub>12</sub>H<sub>8</sub>O<sub>4</sub>",
        "Molecular Mass": "216.19",
        "Melting Point": "148 °C",
        "Density": "1.539 g/cm³"
    }
}