{
    "cas_no": "373-04-6",
    "key_name": "6-Aminohexanamide",
    "cn_name": null,
    "alternate_name": "Hexanamide, 6-amino-;Caproamide, ε-amino-;6-Aminohexanamide;ε-Aminocaproamide;6-Aminocaproic amide;6-Aminocaproamide;6-Aminocapronamide",
    "duplicated_cas_no": "",
    "SMILES": "C(CC(N)=O)CCCN",
    "meta_data": {
        "InChI": "InChI=1S/C6H14N2O/c7-5-3-1-2-4-6(8)9/h1-5,7H2,(H2,8,9)",
        "InChIKey": null,
        "Canonical SMILES": "O=C(N)CCCCCN",
        "Molecular Formula": "C<sub>6</sub>H<sub>14</sub>N<sub>2</sub>O",
        "Molecular Mass": "130.19",
        "Boiling Point": "165-167 °C @ Press: 1 Torr",
        "Melting Point": "50-51 °C"
    }
}