{
    "cas_no": "124-83-4",
    "key_name": "<span class=\"text-smallcaps\">D</span>-Camphoric acid",
    "cn_name": "D-樟脑酸;D-(+)-樟脑酸;(1R,3S)-樟脑酸;(1R,3S)-1,2,2-三甲基-1,3-环戊烷二羧酸;",
    "alternate_name": "1,3-Cyclopentanedicarboxylic acid, 1,2,2-trimethyl-, (1<em>R</em>,3<em>S</em>)-;Camphoric acid, (1<em>R</em>,3<em>S</em>)-(+)-;1,3-Cyclopentanedicarboxylic acid, 1,2,2-trimethyl-, (1<em>R</em>-<em>cis</em>)-;(1<em>R</em>,3<em>S</em>)-1,2,2-Trimethyl-1,3-cyclopentanedicarboxylic acid;<em>d</em>-Camphoric acid;Dextrocamphoric acid;<em>d</em>-(+)-Camphoric acid;(+)-Camphoric acid;(1<em>R</em>)-<em>cis</em>-Camphoric acid;<span class=\"text-smallcaps\">D</span>-Camphoric acid;(+)-(1<em>R</em>,3<em>S</em>)-1,2,2-trimethyl-1,3-cyclopentanedicarboxylic acid;(1<em>R</em>,3<em>S</em>)-Camphoric acid;<span class=\"text-smallcaps\">D</span>-(+)-Camphoric acid;(1R,3S)-(+)-<em>cis</em>-1,2,2-Trimethylcyclopentane-1,3-dicarboxylic acid;(1R,3S)-1,2,2-Trimethylcyclopentane-1,3-dicarboxylic acid;(1R,3S)-(+)-Camphoric acid",
    "duplicated_cas_no": "881883-82-5",
    "SMILES": "C(O)(=O)[C@@]1(C)C(C)(C)[C@@H](C(O)=O)CC1",
    "meta_data": {
        "InChI": "InChI=1S/C10H16O4/c1-9(2)6(7(11)12)4-5-10(9,3)8(13)14/h6H,4-5H2,1-3H3,(H,11,12)(H,13,14)/t6-,10+/m1/s1",
        "InChIKey": null,
        "Canonical SMILES": "O=C(O)C1CCC(C(=O)O)(C)C1(C)C",
        "Molecular Formula": "C<sub>10</sub>H<sub>16</sub>O<sub>4</sub>",
        "Molecular Mass": "200.23",
        "Melting Point": "189.1 °C",
        "Density": "1.219 g/cm³ @ Temp: -123 °C"
    }
}