{
    "cas_no": "550-89-0",
    "key_name": "1-Phenazinecarboxamide",
    "cn_name": null,
    "alternate_name": "1-Phenazinecarboxamide;Oxychloraphin;Oxychlororaphine;Phenazine-1-carboxyamide",
    "duplicated_cas_no": "",
    "SMILES": "C(N)(=O)C=1C2=C(N=C3C(=N2)C=CC=C3)C=CC1",
    "meta_data": {
        "InChI": "InChI=1S/C13H9N3O/c14-13(17)8-4-3-7-11-12(8)16-10-6-2-1-5-9(10)15-11/h1-7H,(H2,14,17)",
        "InChIKey": null,
        "Canonical SMILES": "O=C(N)C=1C=CC=C2N=C3C=CC=CC3=NC21",
        "Molecular Formula": "C<sub>13</sub>H<sub>9</sub>N<sub>3</sub>O",
        "Molecular Mass": "223.23",
        "Melting Point": "241 °C"
    }
}