{
    "cas_no": "4781-83-3",
    "key_name": "2-Iminothiolane hydrochloride",
    "cn_name": null,
    "alternate_name": "2(3<em>H</em>)-Thiophenimine, dihydro-, hydrochloride (1:1);2(3<em>H</em>)-Thiophenimine, dihydro-, hydrochloride;2-Iminothiolane hydrochloride;Traut's reagent",
    "duplicated_cas_no": "",
    "SMILES": "N=C1CCCS1.Cl",
    "meta_data": {
        "InChI": "InChI=1S/C4H7NS.ClH/c5-4-2-1-3-6-4;/h5H,1-3H2;1H",
        "InChIKey": null,
        "Canonical SMILES": "Cl.N=C1SCCC1",
        "Molecular Formula": "C<sub>4</sub>H<sub>7</sub>NS.ClH",
        "Molecular Mass": "",
        "Melting Point": "190-195 °C"
    }
}