{
    "cas_no": "7416-34-4",
    "key_name": "(±)-Molindone",
    "cn_name": "吗茚酮;吗吲酮;3-乙基-2-甲基-5-(吗啉-4-基甲基)-1,5,6,7-四氢吲哚-4-酮;",
    "alternate_name": "4<em>H</em>-Indol-4-one, 3-ethyl-1,5,6,7-tetrahydro-2-methyl-5-(4-morpholinylmethyl)-;Indol-4(5<em>H</em>)-one, 3-ethyl-6,7-dihydro-2-methyl-5-(morpholinomethyl)-;3-Ethyl-1,5,6,7-tetrahydro-2-methyl-5-(4-morpholinylmethyl)-4<em>H</em>-indol-4-one;3-Ethyl-6,7-dihydro-2-methyl-5-(morpholinomethyl)indol-4(5<em>H</em>)-one;Molindone;(±)-Molindone;3-Ethyl-2-methyl-5-[(morpholin-4-yl)methyl]-4,5,6,7-tetrahydro-1<em>H</em>-indol-4-one;3-Ethyl-2-methyl-5-(morpholin-4-ylmethyl)-4,5,6,7-tetrahydro-1<em>H</em>-indol-4-one",
    "duplicated_cas_no": "65973-37-7",
    "SMILES": "C(C)C=1C2=C(NC1C)CCC(CN3CCOCC3)C2=O",
    "meta_data": {
        "InChI": "InChI=1S/C16H24N2O2/c1-3-13-11(2)17-14-5-4-12(16(19)15(13)14)10-18-6-8-20-9-7-18/h12,17H,3-10H2,1-2H3",
        "InChIKey": null,
        "Canonical SMILES": "O=C1C2=C(NC(=C2CC)C)CCC1CN3CCOCC3",
        "Molecular Formula": "C<sub>16</sub>H<sub>24</sub>N<sub>2</sub>O<sub>2</sub>",
        "Molecular Mass": "276.37",
        "Melting Point": "180-181 °C"
    }
}