{
    "cas_no": "1770782-39-2",
    "key_name": "(9<em>S</em>,11b<em>S</em>)-1,8,9,11b-Tetrahydro-7,11-dihydroxy-3,4,9,11b-tetramethylphenanthro[3,2-<em>b</em>]furan-6(2<em>H</em>)-one",
    "cn_name": null,
    "alternate_name": "Phenanthro[3,2-<em>b</em>]furan-6(2<em>H</em>)-one, 1,8,9,11b-tetrahydro-7,11-dihydroxy-3,4,9,11b-tetramethyl-, (9<em>S</em>,11b<em>S</em>)-;(9<em>S</em>,11b<em>S</em>)-1,8,9,11b-Tetrahydro-7,11-dihydroxy-3,4,9,11b-tetramethylphenanthro[3,2-<em>b</em>]furan-6(2<em>H</em>)-one;Uncinatone;2-Deoxycaryopincaolide F",
    "duplicated_cas_no": "99624-92-7",
    "SMILES": "C[C@@]12C=3C(=C(O)C4=C(C3O)O[C@@H](C)C4)C(=O)C=C1C(C)=C(C)CC2",
    "meta_data": {
        "InChI": "InChI=1S/C20H22O4/c1-9-5-6-20(4)13(11(9)3)8-14(21)15-16(20)18(23)19-12(17(15)22)7-10(2)24-19/h8,10,22-23H,5-7H2,1-4H3/t10-,20-/m0/s1",
        "InChIKey": null,
        "Canonical SMILES": "O=C1C=C2C(=C(C)CCC2(C=3C(O)=C4OC(C)CC4=C(O)C13)C)C",
        "Molecular Formula": "C<sub>20</sub>H<sub>22</sub>O<sub>4</sub>",
        "Molecular Mass": "326.39",
        "Melting Point": "193.2 °C"
    }
}