{
    "cas_no": "7693-52-9",
    "key_name": "4-Bromo-2-nitrophenol",
    "cn_name": "4-溴-2-硝基苯酚;2-硝基-4-溴苯酚;",
    "alternate_name": "Phenol, 4-bromo-2-nitro-;4-Bromo-2-nitrophenol;NSC 402972",
    "duplicated_cas_no": "",
    "SMILES": "N(=O)(=O)C1=C(O)C=CC(Br)=C1",
    "meta_data": {
        "InChI": "InChI=1S/C6H4BrNO3/c7-4-1-2-6(9)5(3-4)8(10)11/h1-3,9H",
        "InChIKey": null,
        "Canonical SMILES": "O=N(=O)C1=CC(Br)=CC=C1O",
        "Molecular Formula": "C<sub>6</sub>H<sub>4</sub>BrNO<sub>3</sub>",
        "Molecular Mass": "218.00",
        "Boiling Point": "82-83 °C",
        "Melting Point": "92 °C"
    }
}