{
    "cas_no": "122-99-6",
    "key_name": "Phenoxyethanol",
    "cn_name": "乙二醇苯醚;2-苯氧基乙醇;",
    "alternate_name": "Ethanol, 2-phenoxy-;2-Phenoxyethanol;Arosol;Dowanol EP;Ethylene glycol monophenyl ether;β-Hydroxyethyl phenyl ether;1-Hydroxy-2-phenoxyethane;Phenoxethol;Phenoxetol;Phenoxyethyl alcohol;Phenyl cellosolve;Phenoxyethanol;2-Hydroxyethyl phenyl ether;β-Phenoxyethyl alcohol;β-Phenoxyethanol;2-Phenoxyethyl alcohol;Ethylene glycol phenyl ether;Dalpad A;Dowanol EPh;H 4644;Newpol EFP;(2-Hydroxyethoxy)benzene;Rokafenol F 1;Plastilit DS 3431;PHE-G;Phenova;PHE;PHE (alcohol);PHE-S;NSC 1864;Sepicide LD;Hisolve EPH;Emeressence 1160;Euxyl PE 90120;Agrisol PX 401;Ultrasolve P 240A;PhG;RGP 55;Protectol PE;Glycol Ether EPh;Phenyl Glycol;JS-EPh;Neolone PH 100;HYSOLVE EPH;Kafurekuto PE 1;Phenoxyethanol SP;Acticide PHE;Microcare PE;Phenoxitol;Phenoxetol NF 272556;Acticide SR 150;PHG-S;Protectol PE-CO;Phenoxetol NF",
    "duplicated_cas_no": "37220-49-8;56257-90-0;1020398-73-5;1630984-41-6;2975567-02-1",
    "SMILES": "O(CCO)C1=CC=CC=C1",
    "meta_data": {
        "InChI": "InChI=1S/C8H10O2/c9-6-7-10-8-4-2-1-3-5-8/h1-5,9H,6-7H2",
        "InChIKey": null,
        "Canonical SMILES": "OCCOC=1C=CC=CC1",
        "Molecular Formula": "C<sub>8</sub>H<sub>10</sub>O<sub>2</sub>",
        "Molecular Mass": "138.16",
        "Boiling Point": "245.2 °C @ Press: 760 Torr",
        "Melting Point": "14 °C",
        "Density": "1.1094 g/cm³ @ Temp: 20 °C"
    }
}