{
    "cas_no": "1193-11-9",
    "key_name": "2,2,4-Trimethyl-1,3-dioxolane",
    "cn_name": "2,2,4-三甲基-1,3-二氧杂戊烷;",
    "alternate_name": "1,3-Dioxolane, 2,2,4-trimethyl-;2,2,4-Trimethyl-1,3-dioxolane;NSC 87545",
    "duplicated_cas_no": "99676-60-5",
    "SMILES": "CC1(C)OC(C)CO1",
    "meta_data": {
        "InChI": "InChI=1S/C6H12O2/c1-5-4-7-6(2,3)8-5/h5H,4H2,1-3H3",
        "InChIKey": null,
        "Canonical SMILES": "O1CC(OC1(C)C)C",
        "Molecular Formula": "C<sub>6</sub>H<sub>12</sub>O<sub>2</sub>",
        "Molecular Mass": "116.16",
        "Boiling Point": "99-100 °C",
        "Density": "0.9090 g/cm³ @ Temp: 18.5 °C"
    }
}