{
    "cas_no": "16846-10-9",
    "key_name": "Methyl 2,6-dihydroxy-4-methylbenzoate",
    "cn_name": null,
    "alternate_name": "Benzoic acid, 2,6-dihydroxy-4-methyl-, methyl ester;γ-Resorcylic acid, 4-methyl-, methyl ester;Methyl γ-orsellinate;Methyl 2,6-dihydroxy-4-methylbenzoate;Methyl <em>p</em>-orsellinate;<em>p</em>-Orsellinic acid methyl ester;Methyl 2,6-dihydroxy-<em>p</em>-toluate;Methyl 4-methyl-2,6-dihydroxybenzoate;NSC 37990",
    "duplicated_cas_no": "",
    "SMILES": "C(OC)(=O)C1=C(O)C=C(C)C=C1O",
    "meta_data": {
        "InChI": "InChI=1S/C9H10O4/c1-5-3-6(10)8(7(11)4-5)9(12)13-2/h3-4,10-11H,1-2H3",
        "InChIKey": null,
        "Canonical SMILES": "O=C(OC)C1=C(O)C=C(C=C1O)C",
        "Molecular Formula": "C<sub>9</sub>H<sub>10</sub>O<sub>4</sub>",
        "Molecular Mass": "182.17",
        "Melting Point": "98 °C"
    }
}