{
    "cas_no": "588-32-9",
    "key_name": "3-Chlorophenoxyacetic acid",
    "cn_name": "间氯苯氧乙酸;3-氯苯氧乙酸;",
    "alternate_name": "Acetic acid, 2-(3-chlorophenoxy)-;Acetic acid, (<em>m</em>-chlorophenoxy)-;Acetic acid, (3-chlorophenoxy)-;2-(3-Chlorophenoxy)acetic acid;3-Chlorophenoxyacetic acid;<em>m</em>-Chlorophenoxyacetic acid;NSC 30115",
    "duplicated_cas_no": "",
    "SMILES": "O(CC(O)=O)C1=CC(Cl)=CC=C1",
    "meta_data": {
        "InChI": "InChI=1S/C8H7ClO3/c9-6-2-1-3-7(4-6)12-5-8(10)11/h1-4H,5H2,(H,10,11)",
        "InChIKey": null,
        "Canonical SMILES": "O=C(O)COC=1C=CC=C(Cl)C1",
        "Molecular Formula": "C<sub>8</sub>H<sub>7</sub>ClO<sub>3</sub>",
        "Molecular Mass": "186.59",
        "Melting Point": "109.7-110.2 °C"
    }
}