{
    "cas_no": "2366-52-1",
    "key_name": "1-Fluorobutane",
    "cn_name": "氟化丁基;",
    "alternate_name": "Butane, 1-fluoro-;1-Fluorobutane",
    "duplicated_cas_no": "",
    "SMILES": "C(CC)CF",
    "meta_data": {
        "InChI": "InChI=1S/C4H9F/c1-2-3-4-5/h2-4H2,1H3",
        "InChIKey": null,
        "Canonical SMILES": "FCCCC",
        "Molecular Formula": "C<sub>4</sub>H<sub>9</sub>F",
        "Molecular Mass": "76.11",
        "Boiling Point": "32.5 °C",
        "Melting Point": "-134 °C",
        "Density": "0.7761 g/cm³ @ Temp: 20 °C"
    }
}