{
    "cas_no": "2189-60-8",
    "key_name": "Octylbenzene",
    "cn_name": "1-苯基辛烷;",
    "alternate_name": "Benzene, octyl-;Octane, 1-phenyl-;Octylbenzene;<em>n</em>-Octylbenzene;1-Phenyloctane;Octylbenzol;NSC 404115",
    "duplicated_cas_no": "",
    "SMILES": "C(CCCCCCC)C1=CC=CC=C1",
    "meta_data": {
        "InChI": "InChI=1S/C14H22/c1-2-3-4-5-6-8-11-14-12-9-7-10-13-14/h7,9-10,12-13H,2-6,8,11H2,1H3",
        "InChIKey": null,
        "Canonical SMILES": "C=1C=CC(=CC1)CCCCCCCC",
        "Molecular Formula": "C<sub>14</sub>H<sub>22</sub>",
        "Molecular Mass": "190.32",
        "Boiling Point": "264.5 °C",
        "Melting Point": "-36 °C",
        "Density": "0.8582 g/cm³ @ Temp: 20 °C"
    }
}