{
    "cas_no": "18531-94-7",
    "key_name": "(+)-BINOL",
    "cn_name": null,
    "alternate_name": "[1,1′-Binaphthalene]-2,2′-diol, (1<em>R</em>)-;[1,1′-Binaphthalene]-2,2′-diol, (<em>R</em>)-(+)-;[1,1′-Binaphthalene]-2,2′-diol, (<em>R</em>)-;(1<em>R</em>)-[1,1′-Binaphthalene]-2,2′-diol;(<em>R</em>)-(+)-2,2′-Dihydroxy-1,1′-binaphthyl;(<em>R</em>)-(+)-Bi-β-naphthol;(+)-2,2′-Dihydroxy-1,1′-binaphthyl;(<em>R</em>)-1,1′-Bis-2-naphthol;(+)-Bi-β-naphthol;(+)-2,2′-Dihydroxy-1,1′-binaphthalene;(+)-1,1′-Binaphthyl-2,2′-diol;(+)-(<em>R</em>)-2,2′-Dihydroxy-1,1′-binaphthyl;(<em>R</em>)-(+)-1,1′-Bi-2-naphthol;(+)-2,2′-Dihydroxy-1,1′-dinaphthyl;(<em>R</em>)-(+)-[1,1′-Binaphthalene]-2,2′-diol;(+)-1,1′-Bi-2-naphthol;(<em>R</em>)-2,2′-Dihydroxy-1,1′-binaphthyl;(<em>R</em>)-1,1′-Bi-2-naphthol;(<em>R</em>)-[1,1′-Binaphthalene]-2,2′-diol;(<em>R</em>)-Bi-2-naphthol;(<em>R</em>)-BINOL;(<em>R</em>)-1,1′-Binaphth-2,2′-diol;(<em>R</em>)-2,2′-Dihydroxy-1,1′-binaphthalene;(+)-Bi-2-naphthol;(+)-(1<em>R</em>)-[1,1′-Binaphthalene]-2,2′-diol;(R)-1,1′-Bi-2-naphthol;(<em>R</em>)-2,2′-Binaphthol;(<em>R</em>)-1,1′-Binaphthyl-2,2′-diol;(<em>R</em>)-(+)-2,2′-Dihydroxy-1,1′-binaphthalene;(<em>R</em>)-(+)-BINOL;(+)-1,1′-Bis(2-naphthol);(+)-2,2′-Binaphthol;(<em>R</em>)-Binaphthol;(+)-BINOL;(+)-2,2′-Dihydroxydinaphthyl",
    "duplicated_cas_no": "",
    "SMILES": "OC1=C(C2=C(C=C1)C=CC=C2)C=3C4=C(C=CC3O)C=CC=C4",
    "meta_data": {
        "InChI": "InChI=1S/C20H14O2/c21-17-11-9-13-5-1-3-7-15(13)19(17)20-16-8-4-2-6-14(16)10-12-18(20)22/h1-12,21-22H",
        "InChIKey": null,
        "Canonical SMILES": "OC=1C=CC=2C=CC=CC2C1C3=C(O)C=CC=4C=CC=CC43",
        "Molecular Formula": "C<sub>20</sub>H<sub>14</sub>O<sub>2</sub>",
        "Molecular Mass": "286.32",
        "Melting Point": "206-208 °C"
    }
}