{
    "cas_no": "58864-81-6",
    "key_name": "<em>d</em>-α-Tocotrienol",
    "cn_name": null,
    "alternate_name": "2<em>H</em>-1-Benzopyran-6-ol, 3,4-dihydro-2,5,7,8-tetramethyl-2-[(3<em>E</em>,7<em>E</em>)-4,8,12-trimethyl-3,7,11-tridecatrien-1-yl]-, (2<em>R</em>)-;2<em>H</em>-1-Benzopyran-6-ol, 3,4-dihydro-2,5,7,8-tetramethyl-2-(4,8,12-trimethyl-3,7,11-tridecatrienyl)-, [<em>R</em>-(<em>E</em>,<em>E</em>)]-;2<em>H</em>-1-Benzopyran-6-ol, 3,4-dihydro-2,5,7,8-tetramethyl-2-[(3<em>E</em>,7<em>E</em>)-4,8,12-trimethyl-3,7,11-tridecatrienyl]-, (2<em>R</em>)-;(2<em>R</em>)-3,4-Dihydro-2,5,7,8-tetramethyl-2-[(3<em>E</em>,7<em>E</em>)-4,8,12-trimethyl-3,7,11-tridecatrien-1-yl]-2<em>H</em>-1-benzopyran-6-ol;(2<em>R</em>,3′<em>E</em>,7′<em>E</em>)-α-Tocotrienol;(<em>R</em>)-α-Tocotrienol;<em>d</em>-α-Tocotrienol",
    "duplicated_cas_no": "",
    "SMILES": "CC1=C2C(CC[C@](CC/C=C(/CC/C=C(/CCC=C(C)C)\\C)\\C)(C)O2)=C(C)C(O)=C1C",
    "meta_data": {
        "InChI": "InChI=1S/C29H44O2/c1-20(2)12-9-13-21(3)14-10-15-22(4)16-11-18-29(8)19-17-26-25(7)27(30)23(5)24(6)28(26)31-29/h12,14,16,30H,9-11,13,15,17-19H2,1-8H3/b21-14+,22-16+/t29-/m1/s1",
        "InChIKey": null,
        "Canonical SMILES": "OC=1C(=C(C=2OC(C)(CCC=C(C)CCC=C(C)CCC=C(C)C)CCC2C1C)C)C",
        "Molecular Formula": "C<sub>29</sub>H<sub>44</sub>O<sub>2</sub>",
        "Molecular Mass": "424.66",
        "Melting Point": "30-31 °C"
    }
}