{
    "cas_no": "147-47-7",
    "key_name": "2,2,4-Trimethyl-1,2-dihydroquinoline",
    "cn_name": "2,2,4-三甲基-1,2-二氢喹啉;",
    "alternate_name": "Quinoline, 1,2-dihydro-2,2,4-trimethyl-;1,2-Dihydro-2,2,4-trimethylquinoline;2,2,4-Trimethyl-1,2-dihydroquinoline;Acetone anil (quinoline derivative);Acetone anil;2,2,4-Trimethyl-1,2-dihydroquinone;Polnox R;Good-rite 3140;Hydroquin;NSC 4175;1,2-Dihydro-2,2,4-trimethylquinolene;Antioxidant FR-SB;Antioxidant DQ;2,2,4-Trimethyl-1<em>H</em>-quinoline;ASM-TMQ;Pilnox TMQ;Mernox TQ;2,2,4-Trimethyl-1,3-dihydroquinoline;Quinoline, 1,2,3,8a-tetrahydro-2,2,4-trimethyl-;1,2,3,8a-Tetrahydro-2,2,4-trimethylquinoline",
    "duplicated_cas_no": "389806-19-3;1641794-16-2",
    "SMILES": "CC=1C=2C(NC(C)(C)C1)=CC=CC2",
    "meta_data": {
        "InChI": "InChI=1S/C12H15N/c1-9-8-12(2,3)13-11-7-5-4-6-10(9)11/h4-8,13H,1-3H3",
        "InChIKey": null,
        "Canonical SMILES": "C=1C=CC2=C(C1)NC(C=C2C)(C)C",
        "Molecular Formula": "C<sub>12</sub>H<sub>15</sub>N",
        "Molecular Mass": "173.25",
        "Boiling Point": "260 °C",
        "Melting Point": "120 °C",
        "Density": "1.08 g/cm³ @ Temp: 25 °C"
    }
}