{
    "cas_no": "16284-60-9",
    "key_name": "Isovalerylglycine",
    "cn_name": null,
    "alternate_name": "Glycine, <em>N</em>-(3-methyl-1-oxobutyl)-;Glycine, <em>N</em>-isovaleryl-;<em>N</em>-(3-Methyl-1-oxobutyl)glycine;<em>N</em>-Isovalerylglycine;Isovalerylglycine;<em>N</em>-Isovaleroylglycine;2-(3-Methylbutanamido)acetic acid;2-(3-Methylbutanoylamino)acetic acid",
    "duplicated_cas_no": "",
    "SMILES": "C(NCC(O)=O)(CC(C)C)=O",
    "meta_data": {
        "InChI": "InChI=1S/C7H13NO3/c1-5(2)3-6(9)8-4-7(10)11/h5H,3-4H2,1-2H3,(H,8,9)(H,10,11)",
        "InChIKey": null,
        "Canonical SMILES": "O=C(O)CNC(=O)CC(C)C",
        "Molecular Formula": "C<sub>7</sub>H<sub>13</sub>NO<sub>3</sub>",
        "Molecular Mass": "159.18",
        "Melting Point": "87-90 °C"
    }
}