{
    "cas_no": "56882-52-1",
    "key_name": "Benzoic acid, 2,4-dichloro-, ethyl ester",
    "cn_name": "2,4-二氯苯甲酸乙酯;",
    "alternate_name": "Benzoic acid, 2,4-dichloro-, ethyl ester;Ethyl 2,4-dichlorobenzoate;2,4-Dichlorobenzoic acid ethyl ester",
    "duplicated_cas_no": "",
    "SMILES": "C(OCC)(=O)C1=C(Cl)C=C(Cl)C=C1",
    "meta_data": {
        "InChI": "InChI=1S/C9H8Cl2O2/c1-2-13-9(12)7-4-3-6(10)5-8(7)11/h3-5H,2H2,1H3",
        "InChIKey": null,
        "Canonical SMILES": "O=C(OCC)C1=CC=C(Cl)C=C1Cl",
        "Molecular Formula": "C<sub>9</sub>H<sub>8</sub>Cl<sub>2</sub>O<sub>2</sub>",
        "Molecular Mass": "219.06",
        "Boiling Point": "83-85 °C @ Press: 0.2 Torr",
        "Melting Point": "53-55 °C"
    }
}