{
    "cas_no": "764-99-8",
    "key_name": "Diethylene glycol divinyl ether",
    "cn_name": "二乙二醇二乙烯基醚;",
    "alternate_name": "Ethene, 1,1′-[oxybis(2,1-ethanediyloxy)]bis-;Ether, bis[2-(vinyloxy)ethyl];1,1′-[Oxybis(2,1-ethanediyloxy)]bis[ethene];Diethylene glycol divinyl ether;3,6,9-Trioxaundeca-1,10-diene;Bis[2-(vinyloxy)ethyl] ether;Divinylcarbitol;Rapi-Cure DVE 2;NSC 6117;DEGV;DEGDVE;1-Ethenoxy-2-(2-ethenoxyethoxy)ethane;D 0498;DVE 2",
    "duplicated_cas_no": "1532529-11-5",
    "SMILES": "O(CCOC=C)CCOC=C",
    "meta_data": {
        "InChI": "InChI=1S/C8H14O3/c1-3-9-5-7-11-8-6-10-4-2/h3-4H,1-2,5-8H2",
        "InChIKey": null,
        "Canonical SMILES": "O(C=C)CCOCCOC=C",
        "Molecular Formula": "C<sub>8</sub>H<sub>14</sub>O<sub>3</sub>",
        "Molecular Mass": "158.20",
        "Boiling Point": "100-110 °C @ Press: 18 Torr",
        "Density": "0.9712 g/cm³ @ Temp: 20 °C"
    }
}