{
    "cas_no": "20776-50-5",
    "key_name": "2-Amino-4-bromobenzoic acid",
    "cn_name": "2-氨基-4-溴苯甲酸;4-溴-2-氨基苯甲酸;",
    "alternate_name": "Benzoic acid, 2-amino-4-bromo-;Anthranilic acid, 4-bromo-;2-Amino-4-bromobenzoic acid;4-Bromoanthranilic acid;5-Bromo-2-carboxyaniline",
    "duplicated_cas_no": "",
    "SMILES": "C(O)(=O)C1=C(N)C=C(Br)C=C1",
    "meta_data": {
        "InChI": "InChI=1S/C7H6BrNO2/c8-4-1-2-5(7(10)11)6(9)3-4/h1-3H,9H2,(H,10,11)",
        "InChIKey": null,
        "Canonical SMILES": "O=C(O)C1=CC=C(Br)C=C1N",
        "Molecular Formula": "C<sub>7</sub>H<sub>6</sub>BrNO<sub>2</sub>",
        "Molecular Mass": "216.03",
        "Melting Point": "222 °C"
    }
}