{
    "cas_no": "5117-19-1",
    "key_name": "Octaethylene glycol",
    "cn_name": "3,6,9,12,15,18,21-七氧杂二十三烷-21,23-二醇;",
    "alternate_name": "3,6,9,12,15,18,21-Heptaoxatricosane-1,23-diol;Octaethylene glycol;2-[2-[2-[2-[2-[2-[2-(2-Hydroxyethoxy)ethoxy]ethoxy]ethoxy]ethoxy]ethoxy]ethoxy]ethanol",
    "duplicated_cas_no": "137378-28-0",
    "SMILES": "O(CCOCCOCCOCCO)CCOCCOCCOCCO",
    "meta_data": {
        "InChI": "InChI=1S/C16H34O9/c17-1-3-19-5-7-21-9-11-23-13-15-25-16-14-24-12-10-22-8-6-20-4-2-18/h17-18H,1-16H2",
        "InChIKey": null,
        "Canonical SMILES": "OCCOCCOCCOCCOCCOCCOCCOCCO",
        "Molecular Formula": "C<sub>16</sub>H<sub>34</sub>O<sub>9</sub>",
        "Molecular Mass": "370.44",
        "Boiling Point": "175 °C @ Press: 0.01 Torr"
    }
}