{
    "cas_no": "540-36-3",
    "key_name": "1,4-Difluorobenzene",
    "cn_name": null,
    "alternate_name": "Benzene, 1,4-difluoro-;Benzene, <em>p</em>-difluoro-;1,4-Difluorobenzene;<em>p</em>-Difluorobenzene;NSC 10286;2,5-Difluorobenzene",
    "duplicated_cas_no": "",
    "SMILES": "FC1=CC=C(F)C=C1",
    "meta_data": {
        "InChI": "InChI=1S/C6H4F2/c7-5-1-2-6(8)4-3-5/h1-4H",
        "InChIKey": null,
        "Canonical SMILES": "FC1=CC=C(F)C=C1",
        "Molecular Formula": "C<sub>6</sub>H<sub>4</sub>F<sub>2</sub>",
        "Molecular Mass": "114.09",
        "Boiling Point": "89 °C",
        "Melting Point": "-13 °C",
        "Density": "1.1725 g/cm³ @ Temp: 18.5 °C"
    }
}