{
    "cas_no": "96-77-5",
    "key_name": "Phenol-2,4-disulfonic acid",
    "cn_name": "5-羟基-4-辛酮;4-羟基-1,3-苯二磺酸;苯酚-2,4-二磺酸;",
    "alternate_name": "1,3-Benzenedisulfonic acid, 4-hydroxy-;<em>m</em>-Benzenedisulfonic acid, 4-hydroxy-;Phenoldisulfonic acid;4-Hydroxy-1,3-benzenedisulfonic acid;4-Hydroxy-<em>m</em>-benzenedisulfonic acid;Phenol-2,4-disulfonic acid;1-Hydroxy-2,4-disulfobenzene;NSC 227947;NSC 9798",
    "duplicated_cas_no": "",
    "SMILES": "S(=O)(=O)(O)C1=CC(S(=O)(=O)O)=CC=C1O",
    "meta_data": {
        "InChI": "InChI=1S/C6H6O7S2/c7-5-2-1-4(14(8,9)10)3-6(5)15(11,12)13/h1-3,7H,(H,8,9,10)(H,11,12,13)",
        "InChIKey": null,
        "Canonical SMILES": "O=S(=O)(O)C1=CC=C(O)C(=C1)S(=O)(=O)O",
        "Molecular Formula": "C<sub>6</sub>H<sub>6</sub>O<sub>7</sub>S<sub>2</sub>",
        "Molecular Mass": "254.24",
        "Melting Point": "&gt;100 °C (decomp)"
    }
}