{
    "cas_no": "102849-49-0",
    "key_name": "UCB-L 057",
    "cn_name": "(2S)-2-(2-氧代吡咯烷-1-基)丁酸;",
    "alternate_name": "1-Pyrrolidineacetic acid, α-ethyl-2-oxo-, (α<em>S</em>)-;1-Pyrrolidineacetic acid, α-ethyl-2-oxo-, (<em>S</em>)-;(α<em>S</em>)-α-Ethyl-2-oxo-1-pyrrolidineacetic acid;UCB-L 057;2-Pyrrolidinone-<em>n</em>-butyric acid;1-Pyrrolidineacetic acid α-ethyl-2-oxo-, (αS)-",
    "duplicated_cas_no": "",
    "SMILES": "[C@@H](C(O)=O)(CC)N1C(=O)CCC1",
    "meta_data": {
        "InChI": "InChI=1S/C8H13NO3/c1-2-6(8(11)12)9-5-3-4-7(9)10/h6H,2-5H2,1H3,(H,11,12)/t6-/m0/s1",
        "InChIKey": null,
        "Canonical SMILES": "O=C(O)C(N1C(=O)CCC1)CC",
        "Molecular Formula": "C<sub>8</sub>H<sub>13</sub>NO<sub>3</sub>",
        "Molecular Mass": "171.19",
        "Melting Point": "124-126 °C"
    }
}