{
    "cas_no": "69045-79-0",
    "key_name": "2-Chloro-5-iodopyridine",
    "cn_name": "2-氯-5-碘吡啶;",
    "alternate_name": "Pyridine, 2-chloro-5-iodo-;2-Chloro-5-iodopyridine;5-Iodo-2-chloropyridine",
    "duplicated_cas_no": "",
    "SMILES": "IC=1C=CC(Cl)=NC1",
    "meta_data": {
        "InChI": "InChI=1S/C5H3ClIN/c6-5-2-1-4(7)3-8-5/h1-3H",
        "InChIKey": null,
        "Canonical SMILES": "ClC1=NC=C(I)C=C1",
        "Molecular Formula": "C<sub>5</sub>H<sub>3</sub>ClIN",
        "Molecular Mass": "239.44",
        "Melting Point": "99 °C"
    }
}