{
    "cas_no": "3694-45-9",
    "key_name": "1-Chloro-4-(isothiocyanatomethyl)benzene",
    "cn_name": "4-氯苄基硫代异氰酸酯;",
    "alternate_name": "Benzene, 1-chloro-4-(isothiocyanatomethyl)-;Isothiocyanic acid, <em>p</em>-chlorobenzyl ester;Toluene, <em>p</em>-chloro-α-isothiocyanato-;1-Chloro-4-(isothiocyanatomethyl)benzene;<em>p</em>-Chlorobenzyl isothiocyanate;4-Chlorobenzyl isothiocyanate;1-Isothiocyanatomethyl-4-chlorobenzene;NSC 221238",
    "duplicated_cas_no": "",
    "SMILES": "C(N=C=S)C1=CC=C(Cl)C=C1",
    "meta_data": {
        "InChI": "InChI=1S/C8H6ClNS/c9-8-3-1-7(2-4-8)5-10-6-11/h1-4H,5H2",
        "InChIKey": null,
        "Canonical SMILES": "S=C=NCC1=CC=C(Cl)C=C1",
        "Molecular Formula": "C<sub>8</sub>H<sub>6</sub>ClNS",
        "Molecular Mass": "183.66",
        "Boiling Point": "105-108 °C @ Press: 0.35 Torr",
        "Density": "1.291 g/cm³ @ Temp: 20 °C"
    }
}