{
    "cas_no": "14531-52-3",
    "key_name": "Dihydropinosylvin",
    "cn_name": null,
    "alternate_name": "1,3-Benzenediol, 5-(2-phenylethyl)-;Resorcinol, 5-phenethyl-;5-(2-Phenylethyl)-1,3-benzenediol;Dihydropinosylvin;5-Phenethylresorcinol",
    "duplicated_cas_no": "",
    "SMILES": "C(CC1=CC=CC=C1)C2=CC(O)=CC(O)=C2",
    "meta_data": {
        "InChI": "InChI=1S/C14H14O2/c15-13-8-12(9-14(16)10-13)7-6-11-4-2-1-3-5-11/h1-5,8-10,15-16H,6-7H2",
        "InChIKey": null,
        "Canonical SMILES": "OC=1C=C(O)C=C(C1)CCC=2C=CC=CC2",
        "Molecular Formula": "C<sub>14</sub>H<sub>14</sub>O<sub>2</sub>",
        "Molecular Mass": "214.26",
        "Boiling Point": "167-169 °C @ Press: 1 Torr"
    }
}