{
    "cas_no": "16004-77-6",
    "key_name": "Tricyclo[3.3.1.1<sup>3,7</sup>]decane-1,3,5,7-tetramine",
    "cn_name": null,
    "alternate_name": "Tricyclo[3.3.1.1<sup>3,7</sup>]decane-1,3,5,7-tetramine;1,3,5,7-Adamantanetetramine;1,3,5,7-Tetraaminoadamantane",
    "duplicated_cas_no": "",
    "SMILES": "NC12CC3(N)CC(N)(C1)CC(N)(C2)C3",
    "meta_data": {
        "InChI": "InChI=1S/C10H20N4/c11-7-1-8(12)4-9(13,2-7)6-10(14,3-7)5-8/h1-6,11-14H2",
        "InChIKey": null,
        "Canonical SMILES": "NC12CC3(N)CC(N)(C1)CC(N)(C2)C3",
        "Molecular Formula": "C<sub>10</sub>H<sub>20</sub>N<sub>4</sub>",
        "Molecular Mass": "196.29",
        "Melting Point": "193-195 °C"
    }
}