{
    "cas_no": "33142-21-1",
    "key_name": "Ethyl 2-chloro-3-oxopropanoate",
    "cn_name": null,
    "alternate_name": "Propanoic acid, 2-chloro-3-oxo-, ethyl ester;Malonaldehydic acid, chloro-, ethyl ester;Ethyl chloromalonaldehydate;Ethyl 2-chloro-3-oxopropionate;Ethyl 2-chloro-2-formylacetate;Ethyl formylchloroacetate;Ethyl 2-chloro-3-oxopropanoate;Ethyl α-formyl-α-chloroacetate;2-Chloro-3-oxopropanoic acid ethyl ester;2-Chloro-2-formylacetic acid ethyl ester",
    "duplicated_cas_no": "",
    "SMILES": "C(C(C=O)Cl)(OCC)=O",
    "meta_data": {
        "InChI": "InChI=1S/C5H7ClO3/c1-2-9-5(8)4(6)3-7/h3-4H,2H2,1H3",
        "InChIKey": null,
        "Canonical SMILES": "O=CC(Cl)C(=O)OCC",
        "Molecular Formula": "C<sub>5</sub>H<sub>7</sub>ClO<sub>3</sub>",
        "Molecular Mass": "150.56",
        "Boiling Point": "68-70 °C @ Press: 20 Torr",
        "Melting Point": "88-90 °C"
    }
}