{
    "cas_no": "25639-21-8",
    "key_name": "Poly(octadecyl methacrylate)",
    "cn_name": null,
    "alternate_name": "2-Propenoic acid, 2-methyl-, octadecyl ester, homopolymer;Methacrylic acid, octadecyl ester, polymers;Poly(<em>n</em>-octadecyl methacrylate);Poly(octadecyl methacrylate);Poly(stearyl methacrylate);Octadecyl methacrylate polymer;Stearyl methacrylate homopolymer;Octadecyl methacrylate homopolymer;Light Ester S homopolymer;<em>n</em>-Octadecyl methacrylate homopolymer",
    "duplicated_cas_no": "138232-65-2;181123-70-6",
    "SMILES": "C(CCCCCCCCCCCCCCCC)COC(C(C)=C)=O",
    "meta_data": {
        "InChI": "InChI=1S/C22H42O2/c1-4-5-6-7-8-9-10-11-12-13-14-15-16-17-18-19-20-24-22(23)21(2)3/h2,4-20H2,1,3H3",
        "InChIKey": null,
        "Canonical SMILES": "O=C(OCCCCCCCCCCCCCCCCCC)C(=C)C",
        "Molecular Formula": "(C<sub>22</sub>H<sub>42</sub>O<sub>2</sub>)<sub>x</sub>",
        "Molecular Mass": "",
        "Melting Point": "36 °C"
    }
}