{
    "cas_no": "3046-94-4",
    "key_name": "2-(Butylphenylamino)ethanol",
    "cn_name": "N-丁基-N-羟乙基苯胺;",
    "alternate_name": "Ethanol, 2-(butylphenylamino)-;Ethanol, 2-(<em>N</em>-butylanilino)-;2-(Butylphenylamino)ethanol;<em>N</em>-Hydroxyethyl-<em>N</em>-butylaniline;<em>N</em>-Butyl-<em>N</em>-(2-hydroxyethyl)aniline;2-(<em>N</em>-Butylanilino)ethanol;2-[Butyl(phenyl)amino]ethan-1-ol",
    "duplicated_cas_no": "",
    "SMILES": "N(CCCC)(CCO)C1=CC=CC=C1",
    "meta_data": {
        "InChI": "InChI=1S/C12H19NO/c1-2-3-9-13(10-11-14)12-7-5-4-6-8-12/h4-8,14H,2-3,9-11H2,1H3",
        "InChIKey": null,
        "Canonical SMILES": "OCCN(C=1C=CC=CC1)CCCC",
        "Molecular Formula": "C<sub>12</sub>H<sub>19</sub>NO",
        "Molecular Mass": "193.29",
        "Boiling Point": "143-145 °C @ Press: 1.5 Torr"
    }
}