{
    "cas_no": "10051-45-3",
    "key_name": "Sodium heptanoate",
    "cn_name": null,
    "alternate_name": "Heptanoic acid, sodium salt (1:1);Heptanoic acid, sodium salt;Enanthic acid, sodium salt;Sodium heptanoate;Sodium enanthate;Sodium <em>n</em>-heptanoate",
    "duplicated_cas_no": "",
    "SMILES": "C(CC(O)=O)CCCC.[Na]",
    "meta_data": {
        "InChI": "InChI=1S/C7H14O2.Na/c1-2-3-4-5-6-7(8)9;/h2-6H2,1H3,(H,8,9);",
        "InChIKey": null,
        "Canonical SMILES": "[Na].O=C(O)CCCCCC",
        "Molecular Formula": "C<sub>7</sub>H<sub>14</sub>O<sub>2</sub>.Na",
        "Molecular Mass": "",
        "Melting Point": "350 °C",
        "Density": "1.204 g/cm³"
    }
}