{
    "cas_no": "506-03-6",
    "key_name": "Chimyl alcohol",
    "cn_name": "3-(氧代十六烷)-1,2-丙二醇;鲛肝醇;α-十六烷基丙三醇醚;",
    "alternate_name": "1,2-Propanediol, 3-(hexadecyloxy)-, (2<em>S</em>)-;1,2-Propanediol, 3-(hexadecyloxy)-, (<em>S</em>)-;(2<em>S</em>)-3-(Hexadecyloxy)-1,2-propanediol;Chimyl alcohol;Testriol;1-<em>O</em>-Hexadecyl-<em>sn</em>-glycerol;α-Chimyl alcohol;1-Hexadecyl-<em>sn</em>-glycerol;(<em>S</em>)-(+)-Chimyl alcohol;(2S)-3-Hexadecoxypropane-1,2-diol;1-<em>O</em>-Hexadecyl-sn-glycerol",
    "duplicated_cas_no": "45269-30-5",
    "SMILES": "C(CCCCCCCCCCCCCC)COC[C@H](CO)O",
    "meta_data": {
        "InChI": "InChI=1S/C19H40O3/c1-2-3-4-5-6-7-8-9-10-11-12-13-14-15-16-22-18-19(21)17-20/h19-21H,2-18H2,1H3/t19-/m0/s1",
        "InChIKey": null,
        "Canonical SMILES": "OCC(O)COCCCCCCCCCCCCCCCC",
        "Molecular Formula": "C<sub>19</sub>H<sub>40</sub>O<sub>3</sub>",
        "Molecular Mass": "316.52",
        "Melting Point": "64 °C"
    }
}