{
    "cas_no": "103-67-3",
    "key_name": "<em>N</em>-Methylbenzylamine",
    "cn_name": "N-甲基苄胺;",
    "alternate_name": "Benzenemethanamine, <em>N</em>-methyl-;Benzylamine, <em>N</em>-methyl-;<em>N</em>-Methylbenzenemethanamine;<em>N</em>-Benzylmethylamine;<em>N</em>-Methylbenzylamine;Benzylmethylamine;<em>N</em>-Benzyl-<em>N</em>-methylamine;<em>N</em>-(Phenylmethyl)methylamine;<em>N</em>-Methyl-<em>N</em>-benzylamine;<em>N</em>-Methyl-<em>N</em>-(phenylmethyl)amine;NSC 8059;<em>N</em>-Methyl-1-phenylmethanamine;<em>N</em>-Benzylmethanamine",
    "duplicated_cas_no": "854881-74-6",
    "SMILES": "C(NC)C1=CC=CC=C1",
    "meta_data": {
        "InChI": "InChI=1S/C8H11N/c1-9-7-8-5-3-2-4-6-8/h2-6,9H,7H2,1H3",
        "InChIKey": null,
        "Canonical SMILES": "C=1C=CC(=CC1)CNC",
        "Molecular Formula": "C<sub>8</sub>H<sub>11</sub>N",
        "Molecular Mass": "121.18",
        "Boiling Point": "180.5 °C",
        "Melting Point": "59.60 °C",
        "Density": "0.90119 g/cm³ (liquid) @ Temp: 70.000 °C; Press: ≈750 Torr"
    }
}