{
    "cas_no": "26328-11-0",
    "key_name": "(-)-Pindolol",
    "cn_name": null,
    "alternate_name": "2-Propanol, 1-(1<em>H</em>-indol-4-yloxy)-3-[(1-methylethyl)amino]-, (2<em>S</em>)-;2-Propanol, 1-(indol-4-yloxy)-3-(isopropylamino)-, (-)-;2-Propanol, 1-(1<em>H</em>-indol-4-yloxy)-3-[(1-methylethyl)amino]-, (<em>S</em>)-;(2<em>S</em>)-1-(1<em>H</em>-Indol-4-yloxy)-3-[(1-methylethyl)amino]-2-propanol;<em>l</em>-Pindolol;(-)-Pindolol;<em>S</em>-Pindolol;(<em>S</em>)-(-)-Pindolol;2-Propanol 1-(1<em>H</em>-indol-4-yloxy)-3-[(1-methylethyl)amino]-, (2S)-",
    "duplicated_cas_no": "",
    "SMILES": "O(C[C@H](CNC(C)C)O)C1=C2C(NC=C2)=CC=C1",
    "meta_data": {
        "InChI": "InChI=1S/C14H20N2O2/c1-10(2)16-8-11(17)9-18-14-5-3-4-13-12(14)6-7-15-13/h3-7,10-11,15-17H,8-9H2,1-2H3/t11-/m0/s1",
        "InChIKey": null,
        "Canonical SMILES": "OC(COC1=CC=CC=2NC=CC12)CNC(C)C",
        "Molecular Formula": "C<sub>14</sub>H<sub>20</sub>N<sub>2</sub>O<sub>2</sub>",
        "Molecular Mass": "248.32",
        "Melting Point": "138-173 °C"
    }
}