{
    "cas_no": "4755-72-0",
    "key_name": "α-Chlorobenzeneacetic acid",
    "cn_name": null,
    "alternate_name": "Benzeneacetic acid, α-chloro-;Acetic acid, chlorophenyl-;α-Chlorobenzeneacetic acid;α-Chlorophenylacetic acid;Chlorophenylacetic acid;2-Chloro-2-phenylacetic acid;Phenylchloroacetic acid;(±)-Phenylchloroacetic acid;NSC 152981;NSC 175545",
    "duplicated_cas_no": "39266-56-3",
    "SMILES": "C(C(O)=O)(Cl)C1=CC=CC=C1",
    "meta_data": {
        "InChI": "InChI=1S/C8H7ClO2/c9-7(8(10)11)6-4-2-1-3-5-6/h1-5,7H,(H,10,11)",
        "InChIKey": null,
        "Canonical SMILES": "O=C(O)C(Cl)C=1C=CC=CC1",
        "Molecular Formula": "C<sub>8</sub>H<sub>7</sub>ClO<sub>2</sub>",
        "Molecular Mass": "170.59",
        "Boiling Point": "125-140 °C @ Press: 3 Torr",
        "Melting Point": "60-61 °C"
    }
}