{
    "cas_no": "55921-65-8",
    "key_name": "Triaminodil",
    "cn_name": null,
    "alternate_name": "2,4-Pyrimidinediamine, 6-(1-pyrrolidinyl)-, 3-oxide;2,4-Diamino-6-pyrrolidinopyrimidine 3-oxide;Triaminodil;2,6-Diamino-4-(pyrrolidin-1-yl)pyrimidine 1-oxide;Nanoxidil",
    "duplicated_cas_no": "",
    "SMILES": "NC1=CC(=NC(N)=N1=O)N2CCCC2",
    "meta_data": {
        "InChI": "InChI=1S/C8H13N5O/c9-6-5-7(11-8(10)13(6)14)12-3-1-2-4-12/h5H,1-4,9H2,(H2,10,11)",
        "InChIKey": null,
        "Canonical SMILES": "O=N1=C(N=C(C=C1N)N2CCCC2)N",
        "Molecular Formula": "C<sub>8</sub>H<sub>13</sub>N<sub>5</sub>O",
        "Molecular Mass": "195.22",
        "Melting Point": "278 °C (decomp)"
    }
}