{
    "cas_no": "106700-29-2",
    "key_name": "Pethoxamid",
    "cn_name": null,
    "alternate_name": "Acetamide, 2-chloro-<em>N</em>-(2-ethoxyethyl)-<em>N</em>-(2-methyl-1-phenyl-1-propen-1-yl)-;Acetamide, 2-chloro-<em>N</em>-(2-ethoxyethyl)-<em>N</em>-(2-methyl-1-phenyl-1-propenyl)-;2-Chloro-<em>N</em>-(2-ethoxyethyl)-<em>N</em>-(2-methyl-1-phenyl-1-propen-1-yl)acetamide;2-Chloro-<em>N</em>-(2-ethoxyethyl)-<em>N</em>-(2-methyl-1-phenyl-1-propenyl)acetamide;Pethoxamid;Successor 600;Pethoxamide",
    "duplicated_cas_no": "",
    "SMILES": "C(N(CCOCC)C(CCl)=O)(=C(C)C)C1=CC=CC=C1",
    "meta_data": {
        "InChI": "InChI=1S/C16H22ClNO2/c1-4-20-11-10-18(15(19)12-17)16(13(2)3)14-8-6-5-7-9-14/h5-9H,4,10-12H2,1-3H3",
        "InChIKey": null,
        "Canonical SMILES": "O=C(N(C(C=1C=CC=CC1)=C(C)C)CCOCC)CCl",
        "Molecular Formula": "C<sub>16</sub>H<sub>22</sub>ClNO<sub>2</sub>",
        "Molecular Mass": "295.80",
        "Boiling Point": "145-146 °C @ Press: 0.17 Torr"
    }
}