{
    "cas_no": "15520-10-2",
    "key_name": "2-Methyl-1,5-pentanediamine",
    "cn_name": "2-甲基-1,5-戊二胺;",
    "alternate_name": "1,5-Pentanediamine, 2-methyl-;2-Methyl-1,5-pentanediamine;2-Methylpentamethylenediamine;2-Methyl-1,5-diaminopentane;Dytek A;2-Methyl-1,5-pentamethylenediamine;1,5-Diamino-2-methylpentane;2-Methylpentanediamine",
    "duplicated_cas_no": "122303-44-0",
    "SMILES": "C(CCCN)(CN)C",
    "meta_data": {
        "InChI": "InChI=1S/C6H16N2/c1-6(5-8)3-2-4-7/h6H,2-5,7-8H2,1H3",
        "InChIKey": null,
        "Canonical SMILES": "NCCCC(C)CN",
        "Molecular Formula": "C<sub>6</sub>H<sub>16</sub>N<sub>2</sub>",
        "Molecular Mass": "116.20",
        "Boiling Point": "78 °C @ Press: 11 Torr"
    }
}