{
    "cas_no": "7380-40-7",
    "key_name": "Bergamottin",
    "cn_name": "佛手柑素;香柠檬素;佛手柑亭;香柠檬亭;",
    "alternate_name": "7<em>H</em>-Furo[3,2-<em>g</em>][1]benzopyran-7-one, 4-[[(2<em>E</em>)-3,7-dimethyl-2,6-octadien-1-yl]oxy]-;7<em>H</em>-Furo[3,2-<em>g</em>][1]benzopyran-7-one, 4-[(3,7-dimethyl-2,6-octadienyl)oxy]-, (<em>E</em>)-;Bergamottin;7<em>H</em>-Furo[3,2-<em>g</em>][1]benzopyran-7-one, 4-[[(2<em>E</em>)-3,7-dimethyl-2,6-octadienyl]oxy]-;4-[[(2<em>E</em>)-3,7-Dimethyl-2,6-octadien-1-yl]oxy]-7<em>H</em>-furo[3,2-<em>g</em>][1]benzopyran-7-one;Bergamotine;Bergaptin;5-Geranoxypsoralen",
    "duplicated_cas_no": "",
    "SMILES": "O(C/C=C(/CCC=C(C)C)\\C)C=1C2=C(C=C3C1C=CO3)OC(=O)C=C2",
    "meta_data": {
        "InChI": "InChI=1S/C21H22O4/c1-14(2)5-4-6-15(3)9-11-24-21-16-7-8-20(22)25-19(16)13-18-17(21)10-12-23-18/h5,7-10,12-13H,4,6,11H2,1-3H3/b15-9+",
        "InChIKey": null,
        "Canonical SMILES": "O=C1OC=2C=C3OC=CC3=C(OCC=C(C)CCC=C(C)C)C2C=C1",
        "Molecular Formula": "C<sub>21</sub>H<sub>22</sub>O<sub>4</sub>",
        "Molecular Mass": "338.40",
        "Melting Point": "53.5-54.5 °C"
    }
}