{
    "cas_no": "5144-89-8",
    "key_name": "1,10-Phenanthroline, monohydrate",
    "cn_name": "1,10-菲罗啉(一水合物);一水合邻菲罗啉;",
    "alternate_name": "1,10-Phenanthroline, hydrate (1:1);1,10-Phenanthroline, monohydrate;4,5-Phenanthroline monohydrate;<em>o</em>-Phenanthroline monohydrate",
    "duplicated_cas_no": "",
    "SMILES": "C12=C3C(=CC=C1C=CC=N2)C=CC=N3.O",
    "meta_data": {
        "InChI": "InChI=1S/C12H8N2.H2O/c1-3-9-5-6-10-4-2-8-14-12(10)11(9)13-7-1;/h1-8H;1H2",
        "InChIKey": null,
        "Canonical SMILES": "O.N=1C=CC=C2C=CC=3C=CC=NC3C12",
        "Molecular Formula": "C<sub>12</sub>H<sub>8</sub>N<sub>2</sub>.H<sub>2</sub>O",
        "Molecular Mass": "",
        "Melting Point": "103 °C"
    }
}