{
    "cas_no": "542-56-3",
    "key_name": "Isobutyl nitrite",
    "cn_name": "亚硝酸异丁酯;",
    "alternate_name": "Nitrous acid, 2-methylpropyl ester;Nitrous acid, isobutyl ester;Isobutyl nitrite;<em>iso</em>-Butyl nitrite;Blackjack;2-Methylpropyl nitrite",
    "duplicated_cas_no": "",
    "SMILES": "C(C(C)C)ON=O",
    "meta_data": {
        "InChI": "InChI=1S/C4H9NO2/c1-4(2)3-7-5-6/h4H,3H2,1-2H3",
        "InChIKey": null,
        "Canonical SMILES": "O=NOCC(C)C",
        "Molecular Formula": "C<sub>4</sub>H<sub>9</sub>NO<sub>2</sub>",
        "Molecular Mass": "103.12",
        "Boiling Point": "67 °C",
        "Density": "0.870 g/cm³ @ Temp: 22 °C"
    }
}