{
    "cas_no": "25186-47-4",
    "key_name": "1,3-Dichloro-5-methylbenzene",
    "cn_name": "3,5-二氯甲苯;",
    "alternate_name": "Benzene, 1,3-dichloro-5-methyl-;Toluene, 3,5-dichloro-;1,3-Dichloro-5-methylbenzene;3,5-Dichlorotoluene",
    "duplicated_cas_no": "",
    "SMILES": "CC1=CC(Cl)=CC(Cl)=C1",
    "meta_data": {
        "InChI": "InChI=1S/C7H6Cl2/c1-5-2-6(8)4-7(9)3-5/h2-4H,1H3",
        "InChIKey": null,
        "Canonical SMILES": "ClC=1C=C(Cl)C=C(C1)C",
        "Molecular Formula": "C<sub>7</sub>H<sub>6</sub>Cl<sub>2</sub>",
        "Molecular Mass": "161.03",
        "Boiling Point": "201.5 °C",
        "Melting Point": "26 °C"
    }
}