{
    "cas_no": "32737-14-7",
    "key_name": "2-Ethoxy-3-methylpyrazine",
    "cn_name": "2-乙氧基-3-甲基吡嗪;",
    "alternate_name": "Pyrazine, 2-ethoxy-3-methyl-;2-Ethoxy-3-methylpyrazine;2-Methyl-3-ethoxypyrazine",
    "duplicated_cas_no": "",
    "SMILES": "O(CC)C=1C(C)=NC=CN1",
    "meta_data": {
        "InChI": "InChI=1S/C7H10N2O/c1-3-10-7-6(2)8-4-5-9-7/h4-5H,3H2,1-2H3",
        "InChIKey": null,
        "Canonical SMILES": "N=1C=CN=C(C1OCC)C",
        "Molecular Formula": "C<sub>7</sub>H<sub>10</sub>N<sub>2</sub>O",
        "Molecular Mass": "138.17",
        "Boiling Point": "88-90 °C @ Press: 48 Torr"
    }
}