{
    "cas_no": "480-91-1",
    "key_name": "Isoindolinone",
    "cn_name": "异吲哚啉-1-酮;",
    "alternate_name": "1<em>H</em>-Isoindol-1-one, 2,3-dihydro-;Phthalimidine;2,3-Dihydro-1<em>H</em>-isoindol-1-one;1-Isoindolinone;Isoindolinone;1-Oxoisoindoline;3,4-Benzopyrrolidone;1-Oxodihydroisoindole;NSC 3689;2,3-Dihydroisoindol-1-one;1,3-Dihydroisoindol-1-one",
    "duplicated_cas_no": "",
    "SMILES": "O=C1C=2C(=CC=CC2)CN1",
    "meta_data": {
        "InChI": "InChI=1S/C8H7NO/c10-8-7-4-2-1-3-6(7)5-9-8/h1-4H,5H2,(H,9,10)",
        "InChIKey": null,
        "Canonical SMILES": "O=C1NCC=2C=CC=CC12",
        "Molecular Formula": "C<sub>8</sub>H<sub>7</sub>NO",
        "Molecular Mass": "133.15",
        "Boiling Point": "338 °C",
        "Melting Point": "151 °C"
    }
}