{
    "cas_no": "2753-30-2",
    "key_name": "Gedunin",
    "cn_name": "葛杜宁;",
    "alternate_name": "Oxireno[<em>c</em>]phenanthro[1,2-<em>d</em>]pyran-3,8(3a<em>H</em>,4b<em>H</em>)-dione, 5-(acetyloxy)-1-(3-furanyl)-1,5,6,6a,7,10a,10b,11,12,12a-decahydro-4b,7,7,10a,12a-pentamethyl-, (1<em>S</em>,3a<em>S</em>,4a<em>R</em>,4b<em>S</em>,5<em>R</em>,6a<em>R</em>,10a<em>R</em>,10b<em>R</em>,12a<em>S</em>)-;Gedunin;16,17-Seco-24-nor-5α,13α,14β,17α-chola-1,20,22-trien-16-oic acid, 14,15β:21,23-diepoxy-7α,17-dihydroxy-4,4,8-trimethyl-3-oxo-, 16,17-lactone, acetate;<em>D</em>-Homo-24-nor-17-oxachola-1,20,22-triene-3,16-dione, 7-(acetyloxy)-14,15:21,23-diepoxy-4,4,8-trimethyl-, (5α,7α,13α,14β,15β,17aα)-;(1<em>S</em>,3a<em>S</em>,4a<em>R</em>,4b<em>S</em>,5<em>R</em>,6a<em>R</em>,10a<em>R</em>,10b<em>R</em>,12a<em>S</em>)-5-(Acetyloxy)-1-(3-furanyl)-1,5,6,6a,7,10a,10b,11,12,12a-decahydro-4b,7,7,10a,12a-pentamethyloxireno[<em>c</em>]phenanthro[1,2-<em>d</em>]pyran-3,8(3a<em>H</em>,4b<em>H</em>)-dione;Gedunine;NSC 113497",
    "duplicated_cas_no": "6512-19-2;1164129-40-1",
    "SMILES": "C[C@]12[C@]34[C@](C)([C@@H](OC(=O)[C@]3(O4)[H])C=5C=COC5)CC[C@@]1([C@]6(C)[C@@](C[C@H]2OC(C)=O)(C(C)(C)C(=O)C=C6)[H])[H]",
    "meta_data": {
        "InChI": "InChI=1S/C28H34O7/c1-15(29)33-20-13-18-24(2,3)19(30)8-10-25(18,4)17-7-11-26(5)21(16-9-12-32-14-16)34-23(31)22-28(26,35-22)27(17,20)6/h8-10,12,14,17-18,20-22H,7,11,13H2,1-6H3/t17-,18+,20-,21+,22-,25-,26+,27+,28-/m1/s1",
        "InChIKey": null,
        "Canonical SMILES": "O=C(OC1CC2C(C=CC(=O)C2(C)C)(C)C3CCC4(C)C(OC(=O)C5OC54C13C)C6=COC=C6)C",
        "Molecular Formula": "C<sub>28</sub>H<sub>34</sub>O<sub>7</sub>",
        "Molecular Mass": "482.57",
        "Melting Point": "218 °C"
    }
}