{
    "cas_no": "2467-03-0",
    "key_name": "2,4′-Dihydroxydiphenylmethane",
    "cn_name": "2,4-双-(羟基苯基)甲烷;",
    "alternate_name": "Phenol, 2-[(4-hydroxyphenyl)methyl]-;Phenol, 2,4′-methylenedi-;2-[(4-Hydroxyphenyl)methyl]phenol;2,4′-Methylenediphenol;2,4′-Dihydroxydiphenylmethane;<em>o</em>-(<em>p</em>-Hydroxybenzyl)phenol;(2-Hydroxyphenyl)(4-hydroxyphenyl)methane;2,4′-Bis(hydroxyphenyl)methane;<em>o</em>,<em>p</em>′-Bis(hydroxyphenyl)methane;NSC 36395;2,4′-Methylenebisphenol;2-(4-Hydroxybenzyl)phenol",
    "duplicated_cas_no": "",
    "SMILES": "C(C1=C(O)C=CC=C1)C2=CC=C(O)C=C2",
    "meta_data": {
        "InChI": "InChI=1S/C13H12O2/c14-12-7-5-10(6-8-12)9-11-3-1-2-4-13(11)15/h1-8,14-15H,9H2",
        "InChIKey": null,
        "Canonical SMILES": "OC1=CC=C(C=C1)CC=2C=CC=CC2O",
        "Molecular Formula": "C<sub>13</sub>H<sub>12</sub>O<sub>2</sub>",
        "Molecular Mass": "200.23",
        "Boiling Point": "204-208 °C @ Press: 6 Torr",
        "Melting Point": "117-118 °C"
    }
}