{
    "cas_no": "94525-05-0",
    "key_name": "4,4′-[1,4-Phenylenebis(oxy)]bis[3-(trifluoromethyl)benzenamine]",
    "cn_name": "4,4\"-[1,4-苯基双(氧)]双[3-(三氟甲基)苯胺];",
    "alternate_name": "Benzenamine, 4,4′-[1,4-phenylenebis(oxy)]bis[3-(trifluoromethyl)-;4,4′-[1,4-Phenylenebis(oxy)]bis[3-(trifluoromethyl)benzenamine];1,4-Bis(4-amino-2-trifluoromethylphenoxy)benzene;Bis(4-amino-2-trifluoromethylphenyloxyl)benzene;4,4′-Bis(4-amino-2-trifluoromethylphenoxy)phenyl;1,4-Bis(2-trifluoromethyl-4-aminophenoxy)benzene;p-6FAPB",
    "duplicated_cas_no": "",
    "SMILES": "C(F)(F)(F)C1=C(OC2=CC=C(OC3=C(C(F)(F)F)C=C(N)C=C3)C=C2)C=CC(N)=C1",
    "meta_data": {
        "InChI": "InChI=1S/C20H14F6N2O2/c21-19(22,23)15-9-11(27)1-7-17(15)29-13-3-5-14(6-4-13)30-18-8-2-12(28)10-16(18)20(24,25)26/h1-10H,27-28H2",
        "InChIKey": null,
        "Canonical SMILES": "FC(F)(F)C1=CC(N)=CC=C1OC2=CC=C(OC3=CC=C(N)C=C3C(F)(F)F)C=C2",
        "Molecular Formula": "C<sub>20</sub>H<sub>14</sub>F<sub>6</sub>N<sub>2</sub>O<sub>2</sub>",
        "Molecular Mass": "428.33",
        "Melting Point": "132-133 °C"
    }
}