{
    "cas_no": "539-90-2",
    "key_name": "Isobutyl butyrate",
    "cn_name": "丁酸异丁酯;2-甲基-1-丙醇丁酸酯;",
    "alternate_name": "Butanoic acid, 2-methylpropyl ester;Butyric acid, isobutyl ester;Isobutyl butyrate;2-Methylpropyl butyrate;Isobutyl <em>n</em>-butyrate;Isobutyl butanoate;2-Methylpropyl butanoate;NSC 406938",
    "duplicated_cas_no": "",
    "SMILES": "C(OCC(C)C)(CCC)=O",
    "meta_data": {
        "InChI": "InChI=1S/C8H16O2/c1-4-5-8(9)10-6-7(2)3/h7H,4-6H2,1-3H3",
        "InChIKey": null,
        "Canonical SMILES": "O=C(OCC(C)C)CCC",
        "Molecular Formula": "C<sub>8</sub>H<sub>16</sub>O<sub>2</sub>",
        "Molecular Mass": "144.21",
        "Boiling Point": "156.9 °C"
    }
}