{
    "cas_no": "492-37-5",
    "key_name": "2-Phenylpropionic acid",
    "cn_name": "2-苯基丙酸;",
    "alternate_name": "Benzeneacetic acid, α-methyl-;Hydratropic acid;α-Methylbenzeneacetic acid;2-Phenylpropionic acid;α-Phenylpropionic acid;2-Phenylpropanoic acid;α-Methylphenylacetic acid;(±)-Hydratropic acid;(±)-2-Phenylpropionic acid;(±)-α-Methylphenylacetic acid;(±)-2-Phenylpropanoic acid;(<em>RS</em>)-2-Phenylpropionic acid;<em>dl</em>-PPA;<span class=\"text-smallcaps\">D</smallcap><smallcap>L</span>-2-Phenylpropionic acid;(<em>RS</em>)-2-Phenylpropanoic acid;NSC 245033;NSC 42872;α-Phenylpropanoic acid",
    "duplicated_cas_no": "2328-24-7",
    "SMILES": "C(C(O)=O)(C)C1=CC=CC=C1",
    "meta_data": {
        "InChI": "InChI=1S/C9H10O2/c1-7(9(10)11)8-5-3-2-4-6-8/h2-7H,1H3,(H,10,11)",
        "InChIKey": null,
        "Canonical SMILES": "O=C(O)C(C=1C=CC=CC1)C",
        "Molecular Formula": "C<sub>9</sub>H<sub>10</sub>O<sub>2</sub>",
        "Molecular Mass": "150.17",
        "Boiling Point": "261 °C",
        "Melting Point": "46 °C"
    }
}