{
    "cas_no": "14774-37-9",
    "key_name": "(Tetrahydro-2<em>H</em>-pyran-4-yl)methanol",
    "cn_name": "(四氢-2H-吡喃-4-基)甲醇;",
    "alternate_name": "2<em>H</em>-Pyran-4-methanol, tetrahydro-;Tetrahydro-2<em>H</em>-pyran-4-methanol;4-(Hydroxymethyl)tetrahydro-2<em>H</em>-pyran;4-(Hydroxymethyl)tetrahydropyran;(Tetrahydropyran-4-yl)methanol;(Tetrahydro-2<em>H</em>-pyran-4-yl)methanol;Tetrahydropyran-4-methanol;Oxan-4-ylmethanol",
    "duplicated_cas_no": "",
    "SMILES": "C(O)C1CCOCC1",
    "meta_data": {
        "InChI": "InChI=1S/C6H12O2/c7-5-6-1-3-8-4-2-6/h6-7H,1-5H2",
        "InChIKey": null,
        "Canonical SMILES": "OCC1CCOCC1",
        "Molecular Formula": "C<sub>6</sub>H<sub>12</sub>O<sub>2</sub>",
        "Molecular Mass": "116.16",
        "Boiling Point": "210-214 °C"
    }
}