{
    "cas_no": "5736-88-9",
    "key_name": "4-Butoxybenzaldehyde",
    "cn_name": "4-丁氧基苯甲醛;",
    "alternate_name": "Benzaldehyde, 4-butoxy-;Benzaldehyde, <em>p</em>-butoxy-;4-Butoxybenzaldehyde;<em>p</em>-Butoxybenzaldehyde;NSC 508762;4-<em>n</em>-Butoxybenzaldehyde",
    "duplicated_cas_no": "",
    "SMILES": "O(CCCC)C1=CC=C(C=O)C=C1",
    "meta_data": {
        "InChI": "InChI=1S/C11H14O2/c1-2-3-8-13-11-6-4-10(9-12)5-7-11/h4-7,9H,2-3,8H2,1H3",
        "InChIKey": null,
        "Canonical SMILES": "O=CC1=CC=C(OCCCC)C=C1",
        "Molecular Formula": "C<sub>11</sub>H<sub>14</sub>O<sub>2</sub>",
        "Molecular Mass": "178.23",
        "Boiling Point": "285 °C",
        "Melting Point": "184 °C"
    }
}