{
    "cas_no": "18294-87-6",
    "key_name": "1-Cyclohexene-1-acetic acid",
    "cn_name": "1-环己烯-1-乙酸;",
    "alternate_name": "1-Cyclohexene-1-acetic acid;1-Cyclohexenylacetic acid;Cyclohexene-1-acetic acid;2-(Cyclohex-1-enyl)acetic acid;NSC 14103;(1-Cyclohexen-1-yl)acetic acid;2-(1-Cyclohexen-1-yl)acetic acid",
    "duplicated_cas_no": "",
    "SMILES": "C(C(O)=O)C=1CCCCC1",
    "meta_data": {
        "InChI": "InChI=1S/C8H12O2/c9-8(10)6-7-4-2-1-3-5-7/h4H,1-3,5-6H2,(H,9,10)",
        "InChIKey": null,
        "Canonical SMILES": "O=C(O)CC1=CCCCC1",
        "Molecular Formula": "C<sub>8</sub>H<sub>12</sub>O<sub>2</sub>",
        "Molecular Mass": "140.18",
        "Boiling Point": "140 °C @ Press: 12 Torr",
        "Melting Point": "38 °C"
    }
}