{
    "cas_no": "375-85-9",
    "key_name": "Perfluoroheptanoic acid",
    "cn_name": "全氟庚酸;十三氟庚酸;",
    "alternate_name": "Heptanoic acid, 2,2,3,3,4,4,5,5,6,6,7,7,7-tridecafluoro-;Heptanoic acid, tridecafluoro-;2,2,3,3,4,4,5,5,6,6,7,7,7-Tridecafluoroheptanoic acid;Perfluoroenanthic acid;Perfluoroheptanoic acid;Tridecafluoroheptanoic acid;Perfluoro-<em>n</em>-heptanoic acid;PFHpA",
    "duplicated_cas_no": "",
    "SMILES": "C(C(C(C(F)(F)F)(F)F)(F)F)(C(C(C(O)=O)(F)F)(F)F)(F)F",
    "meta_data": {
        "InChI": "InChI=1S/C7HF13O2/c8-2(9,1(21)22)3(10,11)4(12,13)5(14,15)6(16,17)7(18,19)20/h(H,21,22)",
        "InChIKey": null,
        "Canonical SMILES": "O=C(O)C(F)(F)C(F)(F)C(F)(F)C(F)(F)C(F)(F)C(F)(F)F",
        "Molecular Formula": "C<sub>7</sub>HF<sub>13</sub>O<sub>2</sub>",
        "Molecular Mass": "364.06",
        "Boiling Point": "177 °C",
        "Melting Point": "31-36 °C"
    }
}