{
    "cas_no": "136426-54-5",
    "key_name": "Fluquinconazole",
    "cn_name": "氟喹唑;3-(2，4-二氯苯基)-6-氟-2-(1H-1，2，4-三唑-1-基)喹唑啉-4-(3H)-酮;SN597265;",
    "alternate_name": "4(3<em>H</em>)-Quinazolinone, 3-(2,4-dichlorophenyl)-6-fluoro-2-(1<em>H</em>-1,2,4-triazol-1-yl)-;3-(2,4-Dichlorophenyl)-6-fluoro-2-(1<em>H</em>-1,2,4-triazol-1-yl)-4(3<em>H</em>)-quinazolinone;Fluquinconazole;SN 597265;Palisade;Castellan;Flamenco;Flamenco (pesticide);Palisade PM;Jockey;Jockey 201 FS;Jockey (pesticide)",
    "duplicated_cas_no": "1135441-00-7",
    "SMILES": "O=C1N(C(=NC=2C1=CC(F)=CC2)N3C=NC=N3)C4=C(Cl)C=C(Cl)C=C4",
    "meta_data": {
        "InChI": "InChI=1S/C16H8Cl2FN5O/c17-9-1-4-14(12(18)5-9)24-15(25)11-6-10(19)2-3-13(11)22-16(24)23-8-20-7-21-23/h1-8H",
        "InChIKey": null,
        "Canonical SMILES": "O=C1C=2C=C(F)C=CC2N=C(N3N=CN=C3)N1C4=CC=C(Cl)C=C4Cl",
        "Molecular Formula": "C<sub>16</sub>H<sub>8</sub>Cl<sub>2</sub>FN<sub>5</sub>O",
        "Molecular Mass": "376.17",
        "Melting Point": "192 °C"
    }
}