{
    "cas_no": "65146-54-5",
    "key_name": "Ethanone, 2-amino-1-(2,4-dichlorophenyl)-, hydrochloride (1:1)",
    "cn_name": null,
    "alternate_name": "Ethanone, 2-amino-1-(2,4-dichlorophenyl)-, hydrochloride (1:1);Ethanone, 2-amino-1-(2,4-dichlorophenyl)-, hydrochloride;2-Amino-2′,4′-dichloroacetophenone hydrochloride;2-Amino-1-(2,4-dichlorophenyl)ethan-1-one hydrochloride",
    "duplicated_cas_no": "",
    "SMILES": "C(CN)(=O)C1=C(Cl)C=C(Cl)C=C1.Cl",
    "meta_data": {
        "InChI": "InChI=1S/C8H7Cl2NO.ClH/c9-5-1-2-6(7(10)3-5)8(12)4-11;/h1-3H,4,11H2;1H",
        "InChIKey": null,
        "Canonical SMILES": "Cl.O=C(C1=CC=C(Cl)C=C1Cl)CN",
        "Molecular Formula": "C<sub>8</sub>H<sub>7</sub>Cl<sub>2</sub>NO.ClH",
        "Molecular Mass": "",
        "Melting Point": "231.5-231.9 °C"
    }
}