{
    "cas_no": "40236-20-2",
    "key_name": "3,5-Dimethyl-4-nitro-1<em>H</em>-pyrrole-2-carboxaldehyde",
    "cn_name": null,
    "alternate_name": "1<em>H</em>-Pyrrole-2-carboxaldehyde, 3,5-dimethyl-4-nitro-;3,5-Dimethyl-4-nitro-1<em>H</em>-pyrrole-2-carboxaldehyde;3,5-Dimethyl-4-nitro-2-pyrrolecarboxaldehyde;3,5-Dimethyl-4-nitro-1<em>H</em>-pyrrole-2-carbaldehyde",
    "duplicated_cas_no": "",
    "SMILES": "N(=O)(=O)C=1C(C)=C(C=O)NC1C",
    "meta_data": {
        "InChI": "InChI=1S/C7H8N2O3/c1-4-6(3-10)8-5(2)7(4)9(11)12/h3,8H,1-2H3",
        "InChIKey": null,
        "Canonical SMILES": "O=CC=1NC(=C(C1C)N(=O)=O)C",
        "Molecular Formula": "C<sub>7</sub>H<sub>8</sub>N<sub>2</sub>O<sub>3</sub>",
        "Molecular Mass": "168.15",
        "Melting Point": "220-229 °C (decomp)"
    }
}