{
    "cas_no": "4462-96-8",
    "key_name": "3-Oxabicyclo[3.2.0]heptane-2,4-dione",
    "cn_name": "环丁烷-1,2-二甲酸酐;",
    "alternate_name": "3-Oxabicyclo[3.2.0]heptane-2,4-dione;1,2-Cyclobutanedicarboxylic anhydride;1,2-Cyclobutanedicarboxylic acid anhydride;<em>cis</em>-1,2-Cyclobutanedicarboxylic anhydride;NSC 119923;NSC 134999;NSC 148995",
    "duplicated_cas_no": "118554-23-7;7687-27-6",
    "SMILES": "O=C1C2C(C(=O)O1)CC2",
    "meta_data": {
        "InChI": "InChI=1S/C6H6O3/c7-5-3-1-2-4(3)6(8)9-5/h3-4H,1-2H2",
        "InChIKey": null,
        "Canonical SMILES": "O=C1OC(=O)C2CCC12",
        "Molecular Formula": "C<sub>6</sub>H<sub>6</sub>O<sub>3</sub>",
        "Molecular Mass": "126.11",
        "Boiling Point": "90-100 °C @ Press: 0.5 Torr",
        "Melting Point": "77-78 °C"
    }
}