{
    "cas_no": "3006-93-7",
    "key_name": "<em>m</em>-Phenylenebismaleimide",
    "cn_name": "N,N\"-间苯撑双马来酰亚胺;防老剂PM;",
    "alternate_name": "1<em>H</em>-Pyrrole-2,5-dione, 1,1′-(1,3-phenylene)bis-;Maleimide, <em>N</em>,<em>N</em>′-<em>m</em>-phenylenedi-;1,1′-(1,3-Phenylene)bis[1<em>H</em>-pyrrole-2,5-dione];<em>N</em>,<em>N</em>′-<em>m</em>-Phenylenebis[maleimide];1,3-Phenylenebismaleimide;<em>m</em>-Phenylenebismaleimide;1,3-Bismaleimidobenzene;HVA 2;<em>N</em>,<em>N</em>′-1,3-Phenylenedimaleimide;<em>m</em>-Phenylenedimaleimide;1,3-Dimaleimidobenzene;<em>m</em>-Dimaleimidobenzene;Vulkanox PM;Burnock PM;Vulnoc PM;Sumifine BM;Sanfel BM-G;BMI-MP;Sumilizer BM;Actor PBM-R;<em>N</em>,<em>N</em>′-<em>m</em>-Phenylenedimaleimide;NSC 19639;PMI;Vulnoc PM-P;SR 525;Vanax MBM;BMI 3000;<em>N</em>,<em>N</em>′-1,3-Phenylenebismaleimide;SR 525A;Balnoc PM;HAV 2;TAC 50;BMI 3000H;Vulcofac 13PDM;Deltagran HVA 2-70GE;Vulcanizer PM;PM;HVA 22;Antioxidant PM;<em>N</em>,<em>N</em>-<em>m</em>-Phenylenedimaleimide;<em>N</em>,<em>N</em>-<em>m</em>-Phenylene dimaleimide;1-[3-(2,5-Dioxopyrrol-1-yl)phenyl]pyrrole-2,5-dione;P 0976;1,1′-(1,3-phenylene)bis(1H-pyrrole-2,5-dione);Accelerator PBM;HA 8;Homide 125;PDM;Maleid F;Actor PBM;Vanax MBM-PWDR",
    "duplicated_cas_no": "116899-38-8;188855-93-8;1289634-93-0;1323144-31-5",
    "SMILES": "O=C1N(C(=O)C=C1)C2=CC(=CC=C2)N3C(=O)C=CC3=O",
    "meta_data": {
        "InChI": "InChI=1S/C14H8N2O4/c17-11-4-5-12(18)15(11)9-2-1-3-10(8-9)16-13(19)6-7-14(16)20/h1-8H",
        "InChIKey": null,
        "Canonical SMILES": "O=C1C=CC(=O)N1C2=CC=CC(=C2)N3C(=O)C=CC3=O",
        "Molecular Formula": "C<sub>14</sub>H<sub>8</sub>N<sub>2</sub>O<sub>4</sub>",
        "Molecular Mass": "268.22",
        "Melting Point": "198-199 °C",
        "Density": "1.44 g/cm³"
    }
}