{
    "cas_no": "39961-95-0",
    "key_name": "(<em>R</em>,<em>R</em>)-1,2-Diammoniumcyclohexane mono-(+)-tartrate",
    "cn_name": "(1R,2R)-(+)-1,2-环己二胺L-酒石酸盐;",
    "alternate_name": "1,2-Cyclohexanediamine, (1<em>R</em>,2<em>R</em>)-, (2<em>R</em>,3<em>R</em>)-2,3-dihydroxybutanedioate (1:1);1,2-Cyclohexanediamine, (1<em>R</em>-<em>trans</em>)-, [<em>R</em>-(<em>R</em>*,<em>R</em>*)]-2,3-dihydroxybutanedioate (1:1);<em>trans</em>-(<em>R</em>,<em>R</em>)-1,2-Cyclohexanediammonium (+)-tartrate;(<em>R</em>,<em>R</em>)-1,2-Diaminocyclohexane tartrate (1:1);(1R,2R)-Diaminocyclohexane <span class=\"text-smallcaps\">L</span>-tartrate;(<em>R</em>,<em>R</em>)-1,2-Diaminocyclohexane <span class=\"text-smallcaps\">L</span>-tartrate;(<em>R</em>,<em>R</em>)-1,2-Cyclohexanediamine (+)-tartrate (1:1);(<em>R</em>,<em>R</em>)-1,2-Diammoniumcyclohexane mono-(+)-tartrate;(<em>R</em>,<em>R</em>)-1,2-Cyclohexanediamine (+)-tartrate;(1R,2R)-1,2-Diaminocyclohexane <span class=\"text-smallcaps\">L</span>-tartaric acid salt;(1<em>R</em>,2<em>R</em>)-1,2-Cyclohexanediamine <span class=\"text-smallcaps\">L</span>-tartrate;(<em>R</em>,<em>R</em>)-Cyclohexane-1,2-diammonium (<em>R</em>,<em>R</em>)-tartrate",
    "duplicated_cas_no": "501011-42-3",
    "SMILES": "N[C@H]1[C@H](N)CCCC1.[C@@H]([C@H](C(O)=O)O)(C(O)=O)O",
    "meta_data": {
        "InChI": "InChI=1S/C6H14N2.C4H6O6/c7-5-3-1-2-4-6(5)8;5-1(3(7)8)2(6)4(9)10/h5-6H,1-4,7-8H2;1-2,5-6H,(H,7,8)(H,9,10)/t5-,6-;1-,2-/m11/s1",
        "InChIKey": null,
        "Canonical SMILES": "O=C(O)C(O)C(O)C(=O)O.NC1CCCCC1N",
        "Molecular Formula": "C<sub>6</sub>H<sub>14</sub>N<sub>2</sub>.C<sub>4</sub>H<sub>6</sub>O<sub>6</sub>",
        "Molecular Mass": "",
        "Melting Point": "252.5-256 °C"
    }
}