{
    "cas_no": "10429-82-0",
    "key_name": "Benzenemethanamine, <em>N</em>,<em>N</em>-bis(2-chloroethyl)-, hydrochloride (1:1)",
    "cn_name": null,
    "alternate_name": "Benzenemethanamine, <em>N</em>,<em>N</em>-bis(2-chloroethyl)-, hydrochloride (1:1);Benzylamine, <em>N</em>,<em>N</em>-bis(2-chloroethyl)-, hydrochloride;Benzenemethanamine, <em>N</em>,<em>N</em>-bis(2-chloroethyl)-, hydrochloride;<em>N</em>-Benzylbis(2-chloroethyl)amine hydrochloride;Benzylbis(2-chloroethyl)amine hydrochloride;<em>N</em>-Benzyl-2-chloro-<em>N</em>-(2-chloroethyl)ethan-1-amine hydrochloride",
    "duplicated_cas_no": "",
    "SMILES": "N(CC1=CC=CC=C1)(CCCl)CCCl.Cl",
    "meta_data": {
        "InChI": "InChI=1S/C11H15Cl2N.ClH/c12-6-8-14(9-7-13)10-11-4-2-1-3-5-11;/h1-5H,6-10H2;1H",
        "InChIKey": null,
        "Canonical SMILES": "Cl.ClCCN(CC=1C=CC=CC1)CCCl",
        "Molecular Formula": "C<sub>11</sub>H<sub>15</sub>Cl<sub>2</sub>N.ClH",
        "Molecular Mass": "",
        "Melting Point": "148-150 °C"
    }
}