{
    "cas_no": "22625-57-6",
    "key_name": "5-(Chloromethyl)-2-oxazolidinone",
    "cn_name": "5-氯甲基-2-噁唑烷酮;5-氯甲基-2-氧唑啉酮;5-Chloromethyloxazolidin-2-one;5-Chloromethyl-2-oxazolidone;",
    "alternate_name": "2-Oxazolidinone, 5-(chloromethyl)-;5-(Chloromethyl)-2-oxazolidinone;NSC 111158;5-(Chloromethyl)-1,3-oxazolidin-2-one;5-Chloromethyl-2-oxooxazolidine",
    "duplicated_cas_no": "",
    "SMILES": "C(Cl)C1OC(=O)NC1",
    "meta_data": {
        "InChI": "InChI=1S/C4H6ClNO2/c5-1-3-2-6-4(7)8-3/h3H,1-2H2,(H,6,7)",
        "InChIKey": null,
        "Canonical SMILES": "O=C1OC(CCl)CN1",
        "Molecular Formula": "C<sub>4</sub>H<sub>6</sub>ClNO<sub>2</sub>",
        "Molecular Mass": "135.55",
        "Melting Point": "105-106 °C"
    }
}