{
    "cas_no": "122-47-4",
    "key_name": "1,2-Dimethoxy-4-(2-nitro-1-propen-1-yl)benzene",
    "cn_name": null,
    "alternate_name": "Benzene, 1,2-dimethoxy-4-(2-nitro-1-propen-1-yl)-;Benzene, 1,2-dimethoxy-4-(2-nitropropenyl)-;Benzene, 1,2-dimethoxy-4-(2-nitro-1-propenyl)-;1,2-Dimethoxy-4-(2-nitro-1-propen-1-yl)benzene;1,2-Dimethoxy-4-(2-nitropropenyl)benzene;NSC 105317;NSC 12113;NSC 243016;NSC 54548;1,2-Dimethoxy-4-(2-nitroprop-1-enyl)benzene;3,4-Dimethoxy-β-methyl-β-nitrostyrene",
    "duplicated_cas_no": "",
    "SMILES": "C(=C(N(=O)=O)C)C1=CC(OC)=C(OC)C=C1",
    "meta_data": {
        "InChI": "InChI=1S/C11H13NO4/c1-8(12(13)14)6-9-4-5-10(15-2)11(7-9)16-3/h4-7H,1-3H3",
        "InChIKey": null,
        "Canonical SMILES": "O=N(=O)C(=CC1=CC=C(OC)C(OC)=C1)C",
        "Molecular Formula": "C<sub>11</sub>H<sub>13</sub>NO<sub>4</sub>",
        "Molecular Mass": "223.23",
        "Melting Point": "73 °C"
    }
}