{
    "cas_no": "106-73-0",
    "key_name": "Methyl heptanoate",
    "cn_name": "庚酸甲酯;",
    "alternate_name": "Heptanoic acid, methyl ester;Methyl enanthate;Methyl heptanoate;Methyl heptoate;Methyl <em>n</em>-heptylate;Methyl oenanthylate;Methyl <em>n</em>-heptanoate;Radia 30159;Enanthic methyl ester",
    "duplicated_cas_no": "",
    "SMILES": "C(CCCCCC)(OC)=O",
    "meta_data": {
        "InChI": "InChI=1S/C8H16O2/c1-3-4-5-6-7-8(9)10-2/h3-7H2,1-2H3",
        "InChIKey": null,
        "Canonical SMILES": "O=C(OC)CCCCCC",
        "Molecular Formula": "C<sub>8</sub>H<sub>16</sub>O<sub>2</sub>",
        "Molecular Mass": "144.21",
        "Boiling Point": "174 °C",
        "Melting Point": "-56 °C",
        "Density": "0.8788 g/cm³ @ Temp: 20 °C"
    }
}