{
    "cas_no": "77-55-4",
    "key_name": "1-Phenylcyclopentanecarboxylic acid",
    "cn_name": "1-苯基环戊烷羧酸;",
    "alternate_name": "Cyclopentanecarboxylic acid, 1-phenyl-;1-Phenylcyclopentanecarboxylic acid;1-Phenylcyclopentane-1-carboxylic acid;NSC 19462;1-Phenylcyclopentan-1-carboxylic acid",
    "duplicated_cas_no": "",
    "SMILES": "C(O)(=O)C1(CCCC1)C2=CC=CC=C2",
    "meta_data": {
        "InChI": "InChI=1S/C12H14O2/c13-11(14)12(8-4-5-9-12)10-6-2-1-3-7-10/h1-3,6-7H,4-5,8-9H2,(H,13,14)",
        "InChIKey": null,
        "Canonical SMILES": "O=C(O)C1(C=2C=CC=CC2)CCCC1",
        "Molecular Formula": "C<sub>12</sub>H<sub>14</sub>O<sub>2</sub>",
        "Molecular Mass": "190.24",
        "Boiling Point": "107-108 °C @ Press: 0.3 Torr",
        "Melting Point": "158-159 °C"
    }
}