{
    "cas_no": "1116-73-0",
    "key_name": "Trihexylaluminum",
    "cn_name": "三己基铝;",
    "alternate_name": "Aluminum, trihexyl-;Trihexylaluminum;Tri-<em>n</em>-hexylaluminum;Trihexylalane;Tri-<em>n</em>-hexylaluminum (Al(C<sub>6</sub>H<sub>13</sub>)<sub>3</sub>)",
    "duplicated_cas_no": "",
    "SMILES": "[Al](CCCCCC)(CCCCCC)CCCCCC",
    "meta_data": {
        "InChI": "InChI=1S/3C6H13.Al/c3*1-3-5-6-4-2;/h3*1,3-6H2,2H3;",
        "InChIKey": null,
        "Canonical SMILES": "[Al](CCCCCC)(CCCCCC)CCCCCC",
        "Molecular Formula": "C<sub>18</sub>H<sub>39</sub>Al",
        "Molecular Mass": "",
        "Boiling Point": "105 °C @ Press: 1 x 10<sup>-3</sup> Torr",
        "Melting Point": "-87 °C",
        "Density": "0.8374 g/cm³ @ Temp: 35 °C"
    }
}