{
    "cas_no": "849762-24-9",
    "key_name": "(3,6-Dioxo-1,4-cyclohexadien-1-yl)methyl 3-methylbutanoate",
    "cn_name": null,
    "alternate_name": "Butanoic acid, 3-methyl-, (3,6-dioxo-1,4-cyclohexadien-1-yl)methyl ester;(3,6-Dioxo-1,4-cyclohexadien-1-yl)methyl 3-methylbutanoate;Blattellaquinone;Gentisylquinone isovalerate",
    "duplicated_cas_no": "",
    "SMILES": "C(OC(CC(C)C)=O)C=1C(=O)C=CC(=O)C1",
    "meta_data": {
        "InChI": "InChI=1S/C12H14O4/c1-8(2)5-12(15)16-7-9-6-10(13)3-4-11(9)14/h3-4,6,8H,5,7H2,1-2H3",
        "InChIKey": null,
        "Canonical SMILES": "O=C1C=CC(=O)C(=C1)COC(=O)CC(C)C",
        "Molecular Formula": "C<sub>12</sub>H<sub>14</sub>O<sub>4</sub>",
        "Molecular Mass": "222.24",
        "Melting Point": "46-47 °C"
    }
}