{
    "cas_no": "1975-50-4",
    "key_name": "2-Methyl-3-nitrobenzoic acid",
    "cn_name": "2-甲基-3-硝基苯甲酸;",
    "alternate_name": "Benzoic acid, 2-methyl-3-nitro-;<em>o</em>-Toluic acid, 3-nitro-;2-Methyl-3-nitrobenzoic acid;3-Nitro-2-methylbenzoic acid;3-Nitro-<em>o</em>-toluic acid",
    "duplicated_cas_no": "",
    "SMILES": "C(O)(=O)C1=C(C)C(N(=O)=O)=CC=C1",
    "meta_data": {
        "InChI": "InChI=1S/C8H7NO4/c1-5-6(8(10)11)3-2-4-7(5)9(12)13/h2-4H,1H3,(H,10,11)",
        "InChIKey": null,
        "Canonical SMILES": "O=C(O)C1=CC=CC(=C1C)N(=O)=O",
        "Molecular Formula": "C<sub>8</sub>H<sub>7</sub>NO<sub>4</sub>",
        "Molecular Mass": "181.15",
        "Melting Point": "152 °C"
    }
}