{
    "cas_no": "5428-54-6",
    "key_name": "2-Methyl-5-nitrophenol",
    "cn_name": "5-硝基-2-甲基苯酚;5-硝基邻甲酚;",
    "alternate_name": "Phenol, 2-methyl-5-nitro-;<em>o</em>-Cresol, 5-nitro-;2-Methyl-5-nitrophenol;5-Nitro-2-cresol;2-Hydroxy-4-nitrotoluene;5-Nitro-2-methylphenol;5-Nitro-<em>o</em>-cresol;NSC 12987;NSC 41203;NSC 50664;5-Nitro-<em>o</em>-methylphenol",
    "duplicated_cas_no": "",
    "SMILES": "N(=O)(=O)C1=CC(O)=C(C)C=C1",
    "meta_data": {
        "InChI": "InChI=1S/C7H7NO3/c1-5-2-3-6(8(10)11)4-7(5)9/h2-4,9H,1H3",
        "InChIKey": null,
        "Canonical SMILES": "O=N(=O)C1=CC=C(C(O)=C1)C",
        "Molecular Formula": "C<sub>7</sub>H<sub>7</sub>NO<sub>3</sub>",
        "Molecular Mass": "153.14",
        "Melting Point": "86 °C"
    }
}