{
    "cas_no": "530-93-8",
    "key_name": "2-Tetralone",
    "cn_name": "beta-四氢萘酮;1,2,3,4-四氢-2-萘酮;",
    "alternate_name": "2(1<em>H</em>)-Naphthalenone, 3,4-dihydro-;3,4-Dihydro-2(1<em>H</em>)-naphthalenone;β-Tetralone;2-Tetralone;2-Oxotetralin;1,2,3,4-Tetrahydro-2-naphthalenone;NSC 87083;1,2,3,4-Tetrahydro-2-oxonaphthalene;3,4-Dihydro-1<em>H</em>-naphthalen-2-one",
    "duplicated_cas_no": "",
    "SMILES": "O=C1CC=2C(CC1)=CC=CC2",
    "meta_data": {
        "InChI": "InChI=1S/C10H10O/c11-10-6-5-8-3-1-2-4-9(8)7-10/h1-4H,5-7H2",
        "InChIKey": null,
        "Canonical SMILES": "O=C1CC=2C=CC=CC2CC1",
        "Molecular Formula": "C<sub>10</sub>H<sub>10</sub>O",
        "Molecular Mass": "146.19",
        "Boiling Point": "237 °C",
        "Melting Point": "18 °C"
    }
}