{
    "cas_no": "926-06-7",
    "key_name": "Isopropyl methanesulfonate",
    "cn_name": "甲磺酸异丙酯;",
    "alternate_name": "Methanesulfonic acid, 1-methylethyl ester;Methanesulfonic acid, isopropyl ester;Isopropyl methanesulphonate;Isopropyl methanesulfonate;Isopropyl mesylate;2-Propyl methanesulfonate",
    "duplicated_cas_no": "",
    "SMILES": "O(S(C)(=O)=O)C(C)C",
    "meta_data": {
        "InChI": "InChI=1S/C4H10O3S/c1-4(2)7-8(3,5)6/h4H,1-3H3",
        "InChIKey": null,
        "Canonical SMILES": "O=S(=O)(OC(C)C)C",
        "Molecular Formula": "C<sub>4</sub>H<sub>10</sub>O<sub>3</sub>S",
        "Molecular Mass": "138.19",
        "Boiling Point": "30 °C @ Press: 0.02 Torr",
        "Melting Point": "5.5-6.5 °C",
        "Density": "1.145 g/cm³ @ Temp: 20 °C"
    }
}