{
    "cas_no": "6639-79-8",
    "key_name": "6-Chloro-1,4-dihydro-2,3-quinoxalinedione",
    "cn_name": null,
    "alternate_name": "2,3-Quinoxalinedione, 6-chloro-1,4-dihydro-;2,3-Quinoxalinediol, 6-chloro-;6-Chloro-1,4-dihydro-2,3-quinoxalinedione;6-Chloro-1,4-dihydroquinoxaline-2,3-dione;NSC 48940;6-Chloroquinoxaline-2,3(1<em>H</em>,4<em>H</em>)-dione",
    "duplicated_cas_no": "",
    "SMILES": "O=C1NC=2C(NC1=O)=CC=C(Cl)C2",
    "meta_data": {
        "InChI": "InChI=1S/C8H5ClN2O2/c9-4-1-2-5-6(3-4)11-8(13)7(12)10-5/h1-3H,(H,10,12)(H,11,13)",
        "InChIKey": null,
        "Canonical SMILES": "O=C1NC2=CC=C(Cl)C=C2NC1=O",
        "Molecular Formula": "C<sub>8</sub>H<sub>5</sub>ClN<sub>2</sub>O<sub>2</sub>",
        "Molecular Mass": "196.59",
        "Melting Point": "&gt;350 °C"
    }
}