{
    "cas_no": "18143-33-4",
    "key_name": "(Chloromethyl)methoxydimethylsilane",
    "cn_name": "氯甲基(二甲基)甲氧基硅烷;",
    "alternate_name": "Silane, (chloromethyl)methoxydimethyl-;(Chloromethyl)methoxydimethylsilane;(Chloromethyl)dimethyl(methoxy)silane",
    "duplicated_cas_no": "",
    "SMILES": "[Si](CCl)(OC)(C)C",
    "meta_data": {
        "InChI": "InChI=1S/C4H11ClOSi/c1-6-7(2,3)4-5/h4H2,1-3H3",
        "InChIKey": null,
        "Canonical SMILES": "ClC[Si](OC)(C)C",
        "Molecular Formula": "C<sub>4</sub>H<sub>11</sub>ClOSi",
        "Molecular Mass": "138.67",
        "Boiling Point": "116.5-117 °C",
        "Density": "0.989 g/cm³ @ Temp: 20 °C"
    }
}