{
    "cas_no": "3261-62-9",
    "key_name": "2-(<em>p</em>-Tolyl)ethylamine",
    "cn_name": "4-甲基苯乙胺;对甲基苯乙胺;",
    "alternate_name": "Benzeneethanamine, 4-methyl-;Phenethylamine, <em>p</em>-methyl-;4-Methylbenzeneethanamine;<em>p</em>-Methylphenethylamine;<em>p</em>-Methyl-β-phenylethylamine;2-(<em>p</em>-Tolyl)ethylamine;<em>p</em>-Methyl-2-phenylethylamine;2-(4-Methylphenyl)ethylamine;4-Methylphenethylamine;NSC 30278;2-(4-Tolyl)ethylamine;2-(<em>p</em>-Tolyl)ethanamine;2-(4-Methylphenyl)ethanamine;4-Methylphenylethylamine;2-(4-Methylphenyl)ethan-1-amine",
    "duplicated_cas_no": "",
    "SMILES": "C(CN)C1=CC=C(C)C=C1",
    "meta_data": {
        "InChI": "InChI=1S/C9H13N/c1-8-2-4-9(5-3-8)6-7-10/h2-5H,6-7,10H2,1H3",
        "InChIKey": null,
        "Canonical SMILES": "NCCC1=CC=C(C=C1)C",
        "Molecular Formula": "C<sub>9</sub>H<sub>13</sub>N",
        "Molecular Mass": "135.21",
        "Boiling Point": "214 °C"
    }
}