{
    "cas_no": "1823-63-8",
    "key_name": "2,2,2-Trifluoro-1-(4-hydroxyphenyl)ethanone",
    "cn_name": null,
    "alternate_name": "Ethanone, 2,2,2-trifluoro-1-(4-hydroxyphenyl)-;Acetophenone, 2,2,2-trifluoro-4′-hydroxy-;2,2,2-Trifluoro-1-(4-hydroxyphenyl)ethanone;4′-Hydroxy-2,2,2-trifluoroacetophenone;4-(Trifluoroacetyl)phenol;2,2,2-Trifluoro-1-(4-hydroxyphenyl)ethan-1-one",
    "duplicated_cas_no": "",
    "SMILES": "C(C(F)(F)F)(=O)C1=CC=C(O)C=C1",
    "meta_data": {
        "InChI": "InChI=1S/C8H5F3O2/c9-8(10,11)7(13)5-1-3-6(12)4-2-5/h1-4,12H",
        "InChIKey": null,
        "Canonical SMILES": "O=C(C1=CC=C(O)C=C1)C(F)(F)F",
        "Molecular Formula": "C<sub>8</sub>H<sub>5</sub>F<sub>3</sub>O<sub>2</sub>",
        "Molecular Mass": "190.12",
        "Melting Point": "114 °C"
    }
}