{
    "cas_no": "3211-20-9",
    "key_name": "<em>trans</em>-1,2-Dicyanocyclobutane",
    "cn_name": "反式-1,2-环丁腈;",
    "alternate_name": "1,2-Cyclobutanedicarbonitrile, (1<em>R</em>,2<em>R</em>)-<em>rel</em>-;1,2-Cyclobutanedicarbonitrile, <em>trans</em>-;<em>rel</em>-(1<em>R</em>,2<em>R</em>)-1,2-Cyclobutanedicarbonitrile;<em>trans</em>-1,2-Dicyanocyclobutane;<em>trans</em>-1,2-Cyclobutanedicarbonitrile;NSC 73704",
    "duplicated_cas_no": "",
    "SMILES": "C(#N)[C@H]1[C@H](C#N)CC1",
    "meta_data": {
        "InChI": "InChI=1/C6H6N2/c7-3-5-1-2-6(5)4-8/h5-6H,1-2H2/t5-,6-/s2",
        "InChIKey": null,
        "Canonical SMILES": "N#CC1CCC1C#N",
        "Molecular Formula": "C<sub>6</sub>H<sub>6</sub>N<sub>2</sub>",
        "Molecular Mass": "106.13",
        "Boiling Point": "115 °C @ Press: 2 Torr"
    }
}