{
    "cas_no": "2873-97-4",
    "key_name": "<em>N</em>-(1,1-Dimethyl-3-oxobutyl)-2-propenamide",
    "cn_name": "双丙酮丙烯酰胺;N-(1,1-二甲基-3-氧代丁基)丙烯酰胺;",
    "alternate_name": "2-Propenamide, <em>N</em>-(1,1-dimethyl-3-oxobutyl)-;Acrylamide, <em>N</em>-(1,1-dimethyl-3-oxobutyl)-;<em>N</em>-(1,1-Dimethyl-3-oxobutyl)-2-propenamide;<em>N</em>-(1,1-Dimethyl-3-oxobutyl)acrylamide;Diacetone acrylamide;NSC 130565;Diacetonylacrylamide;Kohsylmer DAAM;DAAM",
    "duplicated_cas_no": "19910-59-9;45002-23-1;56891-28-2;66251-70-5",
    "SMILES": "C(NC(C=C)=O)(CC(C)=O)(C)C",
    "meta_data": {
        "InChI": "InChI=1S/C9H15NO2/c1-5-8(12)10-9(3,4)6-7(2)11/h5H,1,6H2,2-4H3,(H,10,12)",
        "InChIKey": null,
        "Canonical SMILES": "O=C(C=C)NC(C)(C)CC(=O)C",
        "Molecular Formula": "C<sub>9</sub>H<sub>15</sub>NO<sub>2</sub>",
        "Molecular Mass": "169.22",
        "Boiling Point": "120 °C @ Press: 8 Torr",
        "Melting Point": "57-58 °C"
    }
}