{
    "cas_no": "762-29-8",
    "key_name": "6,10,14-Trimethyl-5,9,13-pentadecatrien-2-one",
    "cn_name": "金合欢基丙酮;2,6,10-三甲基-2,6,10-十五碳三烯-14-酮;",
    "alternate_name": "5,9,13-Pentadecatrien-2-one, 6,10,14-trimethyl-;6,10,14-Trimethyl-5,9,13-pentadecatrien-2-one;Farnesalacetone",
    "duplicated_cas_no": "",
    "SMILES": "C(=CCCC(=CCCC(C)=O)C)(CCC=C(C)C)C",
    "meta_data": {
        "InChI": "InChI=1S/C18H30O/c1-15(2)9-6-10-16(3)11-7-12-17(4)13-8-14-18(5)19/h9,11,13H,6-8,10,12,14H2,1-5H3",
        "InChIKey": null,
        "Canonical SMILES": "O=C(C)CCC=C(C)CCC=C(C)CCC=C(C)C",
        "Molecular Formula": "C<sub>18</sub>H<sub>30</sub>O",
        "Molecular Mass": "262.43",
        "Boiling Point": "120-121 °C @ Press: 0.45 Torr",
        "Melting Point": "80.5-81.5 °C",
        "Density": "0.8835 g/cm³ @ Temp: 20 °C"
    }
}