{
    "cas_no": "26675-46-7",
    "key_name": "Isoflurane",
    "cn_name": "异氟醚;异氟烷;2-氯-2-(二氟甲氧基)-1,1,1-三氟乙烷;",
    "alternate_name": "Ethane, 2-chloro-2-(difluoromethoxy)-1,1,1-trifluoro-;Ether, 1-chloro-2,2,2-trifluoroethyl difluoromethyl;2-Chloro-2-(difluoromethoxy)-1,1,1-trifluoroethane;Forane;Difluoromethyl 1-chloro-2,2,2-trifluoroethyl ether;1-Chloro-2,2,2-trifluoroethyl difluoromethyl ether;Isoflurane;R-E 235da1;(±)-Isoflurane;HCFE 235da2;Forene;Aerrane;Compound 469;IsoFlo;IsoFlo (anesthetic);Isoforine;Attane;Isorrane;Isoba;Isofor;Escain;MeSH ID: D007530",
    "duplicated_cas_no": "132998-92-6",
    "SMILES": "C(OC(F)F)(C(F)(F)F)Cl",
    "meta_data": {
        "InChI": "InChI=1S/C3H2ClF5O/c4-1(3(7,8)9)10-2(5)6/h1-2H",
        "InChIKey": null,
        "Canonical SMILES": "FC(F)OC(Cl)C(F)(F)F",
        "Molecular Formula": "C<sub>3</sub>H<sub>2</sub>ClF<sub>5</sub>O",
        "Molecular Mass": "184.49",
        "Boiling Point": "48.5 °C",
        "Density": "1.5 g/cm³"
    }
}