{
    "cas_no": "486-56-6",
    "key_name": "Cotinine",
    "cn_name": "吡啶吡咯酮;(-)-可替宁;",
    "alternate_name": "2-Pyrrolidinone, 1-methyl-5-(3-pyridinyl)-, (5<em>S</em>)-;Cotinine;2-Pyrrolidinone, 1-methyl-5-(3-pyridinyl)-, (<em>S</em>)-;(5<em>S</em>)-1-Methyl-5-(3-pyridinyl)-2-pyrrolidinone;(-)-Cotinine;<em>S</em>-(-)-Cotinine;(<em>S</em>)-Cotinine;NIH 10498;(5S)-1-Methyl-5-pyridin-3-ylpyrrolidin-2-one;MeSH ID: D003367",
    "duplicated_cas_no": "318-36-5",
    "SMILES": "CN1[C@@H](CCC1=O)C=2C=CC=NC2",
    "meta_data": {
        "InChI": "InChI=1S/C10H12N2O/c1-12-9(4-5-10(12)13)8-3-2-6-11-7-8/h2-3,6-7,9H,4-5H2,1H3/t9-/m0/s1",
        "InChIKey": null,
        "Canonical SMILES": "O=C1N(C)C(C=2C=NC=CC2)CC1",
        "Molecular Formula": "C<sub>10</sub>H<sub>12</sub>N<sub>2</sub>O",
        "Molecular Mass": "176.22",
        "Boiling Point": "250 °C",
        "Melting Point": "41 °C"
    }
}