{
    "cas_no": "18956-15-5",
    "key_name": "Pinostrobin chalcone",
    "cn_name": null,
    "alternate_name": "2-Propen-1-one, 1-(2,6-dihydroxy-4-methoxyphenyl)-3-phenyl-, (2<em>E</em>)-;Chalcone, 2′,6′-dihydroxy-4′-methoxy-;2-Propen-1-one, 1-(2,6-dihydroxy-4-methoxyphenyl)-3-phenyl-, (<em>E</em>)-;(2<em>E</em>)-1-(2,6-Dihydroxy-4-methoxyphenyl)-3-phenyl-2-propen-1-one;Pinostrobin chalcone;2′,6′-Dihydroxy-4′-methoxychalcone;(<em>E</em>)-1-(2,6-Dihydroxy-4-methoxyphenyl)-3-phenyl-2-propen-1-one",
    "duplicated_cas_no": "",
    "SMILES": "C(/C=C/C1=CC=CC=C1)(=O)C2=C(O)C=C(OC)C=C2O",
    "meta_data": {
        "InChI": "InChI=1S/C16H14O4/c1-20-12-9-14(18)16(15(19)10-12)13(17)8-7-11-5-3-2-4-6-11/h2-10,18-19H,1H3/b8-7+",
        "InChIKey": null,
        "Canonical SMILES": "O=C(C=CC=1C=CC=CC1)C=2C(O)=CC(OC)=CC2O",
        "Molecular Formula": "C<sub>16</sub>H<sub>14</sub>O<sub>4</sub>",
        "Molecular Mass": "270.28",
        "Melting Point": "152-154 °C"
    }
}