{
    "cas_no": "83164-33-4",
    "key_name": "Diflufenican",
    "cn_name": "吡氟草胺;2\",4\"-二氟-[2-(3-三氟甲基苯氧基)]-3-吡啶酰苯胺;",
    "alternate_name": "3-Pyridinecarboxamide, <em>N</em>-(2,4-difluorophenyl)-2-[3-(trifluoromethyl)phenoxy]-;<em>N</em>-(2,4-Difluorophenyl)-2-[3-(trifluoromethyl)phenoxy]-3-pyridinecarboxamide;Diflufenican;FR 1078;Kwarc;Brodal;Diflufenicanil;Canyon;Legato;Hurricane (herbicide);AG-D1-500 SC;Hurricane;Hurricane SC",
    "duplicated_cas_no": "",
    "SMILES": "O(C1=C(C(NC2=C(F)C=C(F)C=C2)=O)C=CC=N1)C3=CC(C(F)(F)F)=CC=C3",
    "meta_data": {
        "InChI": "InChI=1S/C19H11F5N2O2/c20-12-6-7-16(15(21)10-12)26-17(27)14-5-2-8-25-18(14)28-13-4-1-3-11(9-13)19(22,23)24/h1-10H,(H,26,27)",
        "InChIKey": null,
        "Canonical SMILES": "O=C(NC1=CC=C(F)C=C1F)C2=CC=CN=C2OC3=CC=CC(=C3)C(F)(F)F",
        "Molecular Formula": "C<sub>19</sub>H<sub>11</sub>F<sub>5</sub>N<sub>2</sub>O<sub>2</sub>",
        "Molecular Mass": "394.29",
        "Melting Point": "160 °C"
    }
}