{
    "cas_no": "97-87-0",
    "key_name": "Butyl isobutyrate",
    "cn_name": "异丁酸丁酯;2-甲基丙酸丁酯;",
    "alternate_name": "Propanoic acid, 2-methyl-, butyl ester;Isobutyric acid, butyl ester;Butyl isobutyrate;<em>n</em>-Butyl isobutyrate;1-Butyl 2-methylpropionate;1-Butyl isobutyrate;Butyl isobutanoate;Butyl 2-methylpropanoate;Butyl 2-methylpropionate;Butyl 2-methyl-1-propanoate",
    "duplicated_cas_no": "",
    "SMILES": "C(OCCCC)(C(C)C)=O",
    "meta_data": {
        "InChI": "InChI=1S/C8H16O2/c1-4-5-6-10-8(9)7(2)3/h7H,4-6H2,1-3H3",
        "InChIKey": null,
        "Canonical SMILES": "O=C(OCCCC)C(C)C",
        "Molecular Formula": "C<sub>8</sub>H<sub>16</sub>O<sub>2</sub>",
        "Molecular Mass": "144.21",
        "Boiling Point": "154-155 °C",
        "Density": "0.8721 g/cm³ @ Temp: 20 °C"
    }
}