{
    "cas_no": "60-10-6",
    "key_name": "Dithizone",
    "cn_name": "双硫腙;二苯基硫卡巴腙;",
    "alternate_name": "Diazenecarbothioic acid, 2-phenyl-, 2-phenylhydrazide;Formic acid, (phenylazo)thio-, 2-phenylhydrazide;Diazenecarbothioic acid, phenyl-, 2-phenylhydrazide;Diphenylthiocarbazone;Dithizon;Dithizone;Diazenecarbohydrazonothioic acid, <em>N</em>,2-diphenyl-;(Phenylazo)thioformic acid 2-phenylhydrazide;DIZO;NSC 215189;NSC 4275;NSC 97262;NSC 97264;NSC 97353;NSC 99124;1,5-Diphenyl-3-thiocarbazone;1-Anilino-3-phenyliminothiourea;MeSH ID: D004230",
    "duplicated_cas_no": "555-88-4;30827-05-5",
    "SMILES": "N(NC(N=NC1=CC=CC=C1)=S)C2=CC=CC=C2",
    "meta_data": {
        "InChI": "InChI=1S/C13H12N4S/c18-13(16-14-11-7-3-1-4-8-11)17-15-12-9-5-2-6-10-12/h1-10,14H,(H,16,18)",
        "InChIKey": null,
        "Canonical SMILES": "S=C(N=NC=1C=CC=CC1)NNC=2C=CC=CC2",
        "Molecular Formula": "C<sub>13</sub>H<sub>12</sub>N<sub>4</sub>S",
        "Molecular Mass": "256.33",
        "Melting Point": "167 °C (decomp)"
    }
}