{
    "cas_no": "2207-27-4",
    "key_name": "1,2,3,4-Tetrachloro-5,5-dimethoxy-1,3-cyclopentadiene",
    "cn_name": "5,5-二甲氧基-1,2,3,4-四氯环戊二烯;",
    "alternate_name": "1,3-Cyclopentadiene, 1,2,3,4-tetrachloro-5,5-dimethoxy-;2,4-Cyclopentadien-1-one, 2,3,4,5-tetrachloro-, dimethyl acetal;Cyclopentadienone, tetrachloro-, dimethyl acetal;Cyclopentadiene, 1,2,3,4-tetrachloro-5,5-dimethoxy-;1,2,3,4-Tetrachloro-5,5-dimethoxy-1,3-cyclopentadiene;1,2,3,4-Tetrachloro-5,5-dimethoxycyclopentadiene;5,5-Dimethoxytetrachlorocyclopentadiene;Tetrachlorocyclopentadienone dimethyl acetal;2,3,4,5-Tetrachlorocyclopentadienone dimethyl acetal;2,3,4,5-Tetrachloro-2,4-cyclopentadien-1-one dimethyl acetal;5,5-Dimethoxy-1,2,3,4-tetrachlorocyclopentadiene;2,3,4,5-Tetrachloro-1,1-dimethoxycyclopentadiene;1,1-Dimethoxy-2,3,4,5-tetrachloro-2,4-cyclopentadiene;Tetrachlorocyclopentadienone dimethyl ketal;1,1-Dimethoxy-2,3,4,5-tetrachlorocyclopentadiene;5,5-Dimethoxy-1,2,3,4-tetrachloro-1,3-cyclopentadiene;1,1-Dimethoxytetrachlorocyclopentadiene;NSC 5584",
    "duplicated_cas_no": "",
    "SMILES": "O(C)C1(OC)C(Cl)=C(Cl)C(Cl)=C1Cl",
    "meta_data": {
        "InChI": "InChI=1S/C7H6Cl4O2/c1-12-7(13-2)5(10)3(8)4(9)6(7)11/h1-2H3",
        "InChIKey": null,
        "Canonical SMILES": "ClC=1C(Cl)=C(Cl)C(OC)(OC)C1Cl",
        "Molecular Formula": "C<sub>7</sub>H<sub>6</sub>Cl<sub>4</sub>O<sub>2</sub>",
        "Molecular Mass": "263.93",
        "Boiling Point": "109 °C",
        "Melting Point": "27-28 °C",
        "Density": "1.5010 g/cm³ @ Temp: 20 °C"
    }
}