{
    "cas_no": "1079-46-5",
    "key_name": "1<em>H</em>-Indazole-3-carboxylic acid, 5-chloro-, methyl ester",
    "cn_name": null,
    "alternate_name": "1<em>H</em>-Indazole-3-carboxylic acid, 5-chloro-, methyl ester;Methyl 5-chloro-1<em>H</em>-indazole-3-carboxylate",
    "duplicated_cas_no": "",
    "SMILES": "C(OC)(=O)C=1C=2C(NN1)=CC=C(Cl)C2",
    "meta_data": {
        "InChI": "InChI=1S/C9H7ClN2O2/c1-14-9(13)8-6-4-5(10)2-3-7(6)11-12-8/h2-4H,1H3,(H,11,12)",
        "InChIKey": null,
        "Canonical SMILES": "O=C(OC)C1=NNC=2C=CC(Cl)=CC12",
        "Molecular Formula": "C<sub>9</sub>H<sub>7</sub>ClN<sub>2</sub>O<sub>2</sub>",
        "Molecular Mass": "210.62",
        "Melting Point": "207 °C"
    }
}