{
    "cas_no": "2402-83-7",
    "key_name": "3,3-Bis(bromomethyl)oxetane",
    "cn_name": null,
    "alternate_name": "Oxetane, 3,3-bis(bromomethyl)-;3,3-Bis(bromomethyl)oxetane;BBMO;NSC 281665;Cyclobutene, 3,3-bis(bromomethyl)-",
    "duplicated_cas_no": "2804066-91-7",
    "SMILES": "C(Br)C1(CBr)COC1",
    "meta_data": {
        "InChI": "InChI=1S/C5H8Br2O/c6-1-5(2-7)3-8-4-5/h1-4H2",
        "InChIKey": null,
        "Canonical SMILES": "BrCC1(CBr)COC1",
        "Molecular Formula": "C<sub>5</sub>H<sub>8</sub>Br<sub>2</sub>O",
        "Molecular Mass": "243.92",
        "Boiling Point": "121 °C @ Press: 1.8 Torr",
        "Melting Point": "25 °C",
        "Density": "1.83 g/cm³ @ Temp: 25 °C"
    }
}