{
    "cas_no": "12036-22-5",
    "key_name": "Tungsten oxide (WO<sub>2</sub>)",
    "cn_name": "氧化钨;氧化钨(IV);二氧化钨;",
    "alternate_name": "Tungsten oxide (WO<sub>2</sub>);Tungsten dioxide;Tungsten oxide (O<sub>2</sub>W);Tungsten(IV) oxide;JCPDS 71-614",
    "duplicated_cas_no": "2771090-52-7",
    "SMILES": "[W](=O)=O",
    "meta_data": {
        "InChI": "InChI=1S/2O.W",
        "InChIKey": null,
        "Canonical SMILES": "O=[W]=O",
        "Molecular Formula": "O<sub>2</sub>W",
        "Molecular Mass": "",
        "Melting Point": "1500-1600 °C",
        "Density": "10.80 g/cm³"
    }
}