{
    "cas_no": "144171-61-9",
    "key_name": "(±)-Indoxacarb",
    "cn_name": null,
    "alternate_name": "Indeno[1,2-<em>e</em>][1,3,4]oxadiazine-4a(3<em>H</em>)-carboxylic acid, 7-chloro-2,5-dihydro-2-[[(methoxycarbonyl)[4-(trifluoromethoxy)phenyl]amino]carbonyl]-, methyl ester;DPX-MP 062;DPX-JW 062;Tornado 10FL;Tornado;(±)-Indoxacarb",
    "duplicated_cas_no": "",
    "SMILES": "C(OC)(=O)C12C(C=3C(C1)=CC(Cl)=CC3)=NN(C(N(C(OC)=O)C4=CC=C(OC(F)(F)F)C=C4)=O)CO2",
    "meta_data": {
        "InChI": "InChI=1S/C22H17ClF3N3O7/c1-33-18(30)21-10-12-9-13(23)3-8-16(12)17(21)27-28(11-35-21)19(31)29(20(32)34-2)14-4-6-15(7-5-14)36-22(24,25)26/h3-9H,10-11H2,1-2H3",
        "InChIKey": null,
        "Canonical SMILES": "O=C(OC)N(C(=O)N1N=C2C=3C=CC(Cl)=CC3CC2(OC1)C(=O)OC)C4=CC=C(OC(F)(F)F)C=C4",
        "Molecular Formula": "C<sub>22</sub>H<sub>17</sub>ClF<sub>3</sub>N<sub>3</sub>O<sub>7</sub>",
        "Molecular Mass": "527.83",
        "Melting Point": "140.5 °C"
    }
}