{
    "cas_no": "550-24-3",
    "key_name": "Embelin",
    "cn_name": "恩贝酸/恩贝灵;恩贝酸/恩贝灵;",
    "alternate_name": "2,5-Cyclohexadiene-1,4-dione, 2,5-dihydroxy-3-undecyl-;<em>p</em>-Benzoquinone, 2,5-dihydroxy-3-undecyl-;Embelin;2,5-Dihydroxy-3-undecyl-2,5-cyclohexadiene-1,4-dione;Embelic acid;Emberine;NSC 91874;2,5-Dihydroxy-3-undecyl-1,4-benzoquinone;2,5-Dihydroxy-3-undecylcyclohexa-2,5-dien-1,4-dione",
    "duplicated_cas_no": "",
    "SMILES": "C(CCCCCCCCCC)C=1C(=O)C(O)=CC(=O)C1O",
    "meta_data": {
        "InChI": "InChI=1S/C17H26O4/c1-2-3-4-5-6-7-8-9-10-11-13-16(20)14(18)12-15(19)17(13)21/h12,18,21H,2-11H2,1H3",
        "InChIKey": null,
        "Canonical SMILES": "O=C1C=C(O)C(=O)C(=C1O)CCCCCCCCCCC",
        "Molecular Formula": "C<sub>17</sub>H<sub>26</sub>O<sub>4</sub>",
        "Molecular Mass": "294.39",
        "Melting Point": "142.5 °C",
        "Density": "0.27 g/cm³"
    }
}