{
    "cas_no": "71989-35-0",
    "key_name": "<em>N</em>-(9-Fluorenylmethoxycarbonyl)-<em>O</em>-<em>tert</em>-butylthreonine",
    "cn_name": "Fmoc-O-叔丁基-L-苏氨酸;芴甲氧羰基-O-叔丁基-L-苏氨酸;",
    "alternate_name": "<span class=\"text-smallcaps\">L</span>-Threonine, <em>O</em>-(1,1-dimethylethyl)-<em>N</em>-[(9<em>H</em>-fluoren-9-ylmethoxy)carbonyl]-;<em>O</em>-(1,1-Dimethylethyl)-<em>N</em>-[(9<em>H</em>-fluoren-9-ylmethoxy)carbonyl]-<span class=\"text-smallcaps\">L</span>-threonine;<em>N</em>-(9-Fluorenylmethoxycarbonyl)-<em>O</em>-<em>tert</em>-butylthreonine;(2<em>S</em>,3<em>R</em>)-2-(((9-Fluorenylmethoxy)carbonyl)amino)-3-(<em>tert</em>-butoxy)butanoic acid;(2<em>S</em>,3<em>R</em>)-3-<em>tert</em>-Butoxy-2-[[[[9<em>H</em>-fluoren-9-yl]methoxy]carbonyl]amino)butanoic acid;Fmoc-L-Thr(tBu)-OH;Fmoc-<em>O</em>-<em>tert</em>-butyl-<span class=\"text-smallcaps\">L</span>-threonine",
    "duplicated_cas_no": "199116-71-7;487011-59-6;1485522-58-4",
    "SMILES": "C(OC(N[C@@H]([C@H](OC(C)(C)C)C)C(O)=O)=O)C1C=2C(C=3C1=CC=CC3)=CC=CC2",
    "meta_data": {
        "InChI": "InChI=1S/C23H27NO5/c1-14(29-23(2,3)4)20(21(25)26)24-22(27)28-13-19-17-11-7-5-9-15(17)16-10-6-8-12-18(16)19/h5-12,14,19-20H,13H2,1-4H3,(H,24,27)(H,25,26)/t14-,20+/m1/s1",
        "InChIKey": null,
        "Canonical SMILES": "O=C(OCC1C=2C=CC=CC2C=3C=CC=CC31)NC(C(=O)O)C(OC(C)(C)C)C",
        "Molecular Formula": "C<sub>23</sub>H<sub>27</sub>NO<sub>5</sub>",
        "Molecular Mass": "397.46",
        "Melting Point": "131-132 °C"
    }
}