{
    "cas_no": "6153-92-0",
    "key_name": "4,4′-Diphenyl-2,2′-bipyridine",
    "cn_name": "4,4-二苯基-2,2-二联吡啶;",
    "alternate_name": "2,2′-Bipyridine, 4,4′-diphenyl-;4,4′-Diphenyl-2,2′-bipyridine;4,4′-Diphenyl-2,2′-dipyridyl;4,4′-Diphenyl-2,2′-bipyridyl;4,4′Diphenyl-2,2′-dippyridyl",
    "duplicated_cas_no": "",
    "SMILES": "C1(=CC(=CC=N1)C2=CC=CC=C2)C3=CC(=CC=N3)C4=CC=CC=C4",
    "meta_data": {
        "InChI": "InChI=1S/C22H16N2/c1-3-7-17(8-4-1)19-11-13-23-21(15-19)22-16-20(12-14-24-22)18-9-5-2-6-10-18/h1-16H",
        "InChIKey": null,
        "Canonical SMILES": "N=1C=CC(=CC1C2=NC=CC(=C2)C3=CC=CC=C3)C=4C=CC=CC4",
        "Molecular Formula": "C<sub>22</sub>H<sub>16</sub>N<sub>2</sub>",
        "Molecular Mass": "308.38",
        "Melting Point": "187-188 °C"
    }
}