{
    "cas_no": "97858-62-3",
    "key_name": "(1<em>S</em>,1′<em>S</em>)-1,1′-(1,2-Ethanediyl)bis[1-(2-methoxyphenyl)-1-phenylphosphine]",
    "cn_name": null,
    "alternate_name": "Phosphine, 1,1′-(1,2-ethanediyl)bis[1-(2-methoxyphenyl)-1-phenyl-, (1<em>S</em>,1′<em>S</em>)-;Phosphine, 1,2-ethanediylbis[(2-methoxyphenyl)phenyl-, [<em>S</em>-(<em>R</em>*,<em>R</em>*)]-;Phosphine, 1,2-ethanediylbis[(2-methoxyphenyl)phenyl-, (1<em>S</em>,1′<em>S</em>)-;(1<em>S</em>,1′<em>S</em>)-1,1′-(1,2-Ethanediyl)bis[1-(2-methoxyphenyl)-1-phenylphosphine];(<em>S</em>,<em>S</em>)-DIPAMP;(S,S)-DIPAMP",
    "duplicated_cas_no": "",
    "SMILES": "[P@@](CC[P@](C1=C(OC)C=CC=C1)C2=CC=CC=C2)(C3=C(OC)C=CC=C3)C4=CC=CC=C4",
    "meta_data": {
        "InChI": "InChI=1S/C28H28O2P2/c1-29-25-17-9-11-19-27(25)31(23-13-5-3-6-14-23)21-22-32(24-15-7-4-8-16-24)28-20-12-10-18-26(28)30-2/h3-20H,21-22H2,1-2H3/t31-,32-/m0/s1",
        "InChIKey": null,
        "Canonical SMILES": "O(C=1C=CC=CC1P(C=2C=CC=CC2)CCP(C=3C=CC=CC3)C=4C=CC=CC4OC)C",
        "Molecular Formula": "C<sub>28</sub>H<sub>28</sub>O<sub>2</sub>P<sub>2</sub>",
        "Molecular Mass": "458.47",
        "Melting Point": "102-103 °C"
    }
}