{
    "cas_no": "5819-40-9",
    "key_name": "4-Bromo-5-methyl-3-isoxazolamine",
    "cn_name": "3-氨基-4-溴-5-甲基异噁唑;4-溴-5-甲基异恶唑-3-胺;3-氨基-4-溴-5-甲基异唑;",
    "alternate_name": "3-Isoxazolamine, 4-bromo-5-methyl-;Isoxazole, 3-amino-4-bromo-5-methyl-;4-Bromo-5-methyl-3-isoxazolamine;3-Amino-4-bromo-5-methylisoxazole;4-Bromo-5-methylisoxazol-3-ylamine;4-Bromo-5-methylisoxazole-3-amine",
    "duplicated_cas_no": "",
    "SMILES": "BrC=1C(N)=NOC1C",
    "meta_data": {
        "InChI": "InChI=1S/C4H5BrN2O/c1-2-3(5)4(6)7-8-2/h1H3,(H2,6,7)",
        "InChIKey": null,
        "Canonical SMILES": "BrC=1C(=NOC1C)N",
        "Molecular Formula": "C<sub>4</sub>H<sub>5</sub>BrN<sub>2</sub>O",
        "Molecular Mass": "177.00",
        "Melting Point": "81-82 °C"
    }
}