{
    "cas_no": "1095173-27-5",
    "key_name": "<em>N</em>-[(2<em>R</em>,4<em>R</em>)-2-(1<em>H</em>-Benzimidazol-2-yl)-1-methyl-4-piperidinyl]-<em>N</em>′-(4-cyanophenyl)urea",
    "cn_name": null,
    "alternate_name": "Urea, <em>N</em>-[(2<em>R</em>,4<em>R</em>)-2-(1<em>H</em>-benzimidazol-2-yl)-1-methyl-4-piperidinyl]-<em>N</em>′-(4-cyanophenyl)-;<em>N</em>-[(2<em>R</em>,4<em>R</em>)-2-(1<em>H</em>-Benzimidazol-2-yl)-1-methyl-4-piperidinyl]-<em>N</em>′-(4-cyanophenyl)urea;PF 04449913;Glasdegib",
    "duplicated_cas_no": "",
    "SMILES": "CN1[C@@H](C=2NC=3C(N2)=CC=CC3)C[C@H](NC(NC4=CC=C(C#N)C=C4)=O)CC1",
    "meta_data": {
        "InChI": "InChI=1S/C21H22N6O/c1-27-11-10-16(24-21(28)23-15-8-6-14(13-22)7-9-15)12-19(27)20-25-17-4-2-3-5-18(17)26-20/h2-9,16,19H,10-12H2,1H3,(H,25,26)(H2,23,24,28)/t16-,19-/m1/s1",
        "InChIKey": null,
        "Canonical SMILES": "N#CC1=CC=C(C=C1)NC(=O)NC2CCN(C)C(C3=NC=4C=CC=CC4N3)C2",
        "Molecular Formula": "C<sub>21</sub>H<sub>22</sub>N<sub>6</sub>O",
        "Molecular Mass": "374.44",
        "Melting Point": "223-224 °C"
    }
}