{
    "cas_no": "54354-62-0",
    "key_name": "1-Methoxy[1,3]benzodioxolo[5,6-<em>c</em>]phenanthridin-2-ol",
    "cn_name": null,
    "alternate_name": "[1,3]Benzodioxolo[5,6-<em>c</em>]phenanthridin-2-ol, 1-methoxy-;1-Methoxy[1,3]benzodioxolo[5,6-<em>c</em>]phenanthridin-2-ol;Decarine;Rutaceline;Zanthoxyline;Zanthoxylin",
    "duplicated_cas_no": "",
    "SMILES": "O(C)C1=C2C(C=3C(=C4C(=CC3)C=C5C(=C4)OCO5)N=C2)=CC=C1O",
    "meta_data": {
        "InChI": "InChI=1S/C19H13NO4/c1-22-19-14-8-20-18-12(11(14)4-5-15(19)21)3-2-10-6-16-17(7-13(10)18)24-9-23-16/h2-8,21H,9H2,1H3",
        "InChIKey": null,
        "Canonical SMILES": "OC1=CC=C2C=3C=CC=4C=C5OCOC5=CC4C3N=CC2=C1OC",
        "Molecular Formula": "C<sub>19</sub>H<sub>13</sub>NO<sub>4</sub>",
        "Molecular Mass": "319.31",
        "Melting Point": "243-244.5 °C"
    }
}