{
    "cas_no": "1196-29-8",
    "key_name": "1-(2-Hydroxyphenyl)ethanone oxime",
    "cn_name": null,
    "alternate_name": "Ethanone, 1-(2-hydroxyphenyl)-, oxime;Acetophenone, 2′-hydroxy-, oxime;1-(2-Hydroxyphenyl)ethanone oxime;<em>o</em>-Hydroxyacetophenone oxime;2′-Hydroxyacetophenone oxime;Methyl 2-hydroxyphenyl ketoxime;2-Hydroxyacetophenoxime;2-Hydroxyacetophenone oxime;1-(2-Hydroxyphenyl)-1-ethanone oxime",
    "duplicated_cas_no": "",
    "SMILES": "C(=NO)(C)C1=C(O)C=CC=C1",
    "meta_data": {
        "InChI": "InChI=1S/C8H9NO2/c1-6(9-11)7-4-2-3-5-8(7)10/h2-5,10-11H,1H3",
        "InChIKey": null,
        "Canonical SMILES": "ON=C(C=1C=CC=CC1O)C",
        "Molecular Formula": "C<sub>8</sub>H<sub>9</sub>NO<sub>2</sub>",
        "Molecular Mass": "151.16",
        "Melting Point": "195 °C"
    }
}