{
    "cas_no": "102-08-9",
    "key_name": "Diphenylthiourea",
    "cn_name": "N,N\"-二苯基硫脲;硫化促进剂DPTU;",
    "alternate_name": "Thiourea, <em>N</em>,<em>N</em>′-diphenyl-;Carbanilide, thio-;<em>N</em>,<em>N</em>′-Diphenylthiourea;<em>s</em>-Diphenylthiocarbamide;<em>sym</em>-Diphenylthiourea;1,3-Diphenyl-2-thiourea;Sulfocarbanilide;Thiocarbanilide;<em>N</em>,<em>N</em>′-Diphenylthiocarbamide;1,3-Diphenylthiourea;Diphenylthiourea;Stabilisator C;Vulkacit CA;Rhenocure CA;Nocceler C;NSC 28134;NSC 686;Accelerant CA;1,3-Bis(phenyl)thiourea;CA;Accelerator CA;CA 50;Accelerator C",
    "duplicated_cas_no": "1198616-09-9",
    "SMILES": "N(C(NC1=CC=CC=C1)=S)C2=CC=CC=C2",
    "meta_data": {
        "InChI": "InChI=1S/C13H12N2S/c16-13(14-11-7-3-1-4-8-11)15-12-9-5-2-6-10-12/h1-10H,(H2,14,15,16)",
        "InChIKey": null,
        "Canonical SMILES": "S=C(NC=1C=CC=CC1)NC=2C=CC=CC2",
        "Molecular Formula": "C<sub>13</sub>H<sub>12</sub>N<sub>2</sub>S",
        "Molecular Mass": "228.31",
        "Melting Point": "154 °C",
        "Density": "1.32 g/cm³"
    }
}