{
    "cas_no": "1163-67-3",
    "key_name": "3-(Acetyloxy)-<em>N</em>-phenyl-2-naphthalenecarboxamide",
    "cn_name": "色酚AS醋酸盐;乙酸萘酚AS;3-乙酰氧基-2-萘甲酰替苯胺;萘酚AS醋酸酯;乙酸萘酚;2-乙酰氧基-3-萘甲酰苯胺;",
    "alternate_name": "2-Naphthalenecarboxamide, 3-(acetyloxy)-<em>N</em>-phenyl-;2-Naphthanilide, 3-hydroxy-, acetate;3-(Acetyloxy)-<em>N</em>-phenyl-2-naphthalenecarboxamide;Naphthol AS acetate;NSC 49740;[3-(Phenylcarbamoyl)naphthalen-2-yl] acetate;2-Acetoxy-3-naphthoic acid anilide",
    "duplicated_cas_no": "",
    "SMILES": "O(C(C)=O)C=1C(C(NC2=CC=CC=C2)=O)=CC3=C(C1)C=CC=C3",
    "meta_data": {
        "InChI": "InChI=1S/C19H15NO3/c1-13(21)23-18-12-15-8-6-5-7-14(15)11-17(18)19(22)20-16-9-3-2-4-10-16/h2-12H,1H3,(H,20,22)",
        "InChIKey": null,
        "Canonical SMILES": "O=C(OC1=CC=2C=CC=CC2C=C1C(=O)NC=3C=CC=CC3)C",
        "Molecular Formula": "C<sub>19</sub>H<sub>15</sub>NO<sub>3</sub>",
        "Molecular Mass": "305.33",
        "Melting Point": "152 °C"
    }
}