{
    "cas_no": "2854-09-3",
    "key_name": "1-(2-Hydroxyethyl)-5-nitro-1<em>H</em>-pyrrole-2-carboxamide",
    "cn_name": null,
    "alternate_name": "1<em>H</em>-Pyrrole-2-carboxamide, 1-(2-hydroxyethyl)-5-nitro-;Pyrrole-2-carboxamide, 1-(2-hydroxyethyl)-5-nitro-;1-(2-Hydroxyethyl)-5-nitro-1<em>H</em>-pyrrole-2-carboxamide;15960RP;1-(2-Hydroxyethyl)-2-carbamoyl-5-nitropyrrole;NP 10;NP 10 (pharmaceutical);1-(2-Hydroxyethyl)-5-nitropyrrole-2-carboxamide",
    "duplicated_cas_no": "",
    "SMILES": "C(CO)N1C(C(N)=O)=CC=C1N(=O)=O",
    "meta_data": {
        "InChI": "InChI=1S/C7H9N3O4/c8-7(12)5-1-2-6(10(13)14)9(5)3-4-11/h1-2,11H,3-4H2,(H2,8,12)",
        "InChIKey": null,
        "Canonical SMILES": "O=C(N)C1=CC=C(N(=O)=O)N1CCO",
        "Molecular Formula": "C<sub>7</sub>H<sub>9</sub>N<sub>3</sub>O<sub>4</sub>",
        "Molecular Mass": "199.16",
        "Melting Point": "175-176 °C"
    }
}