{
    "cas_no": "13695-31-3",
    "key_name": "2,2,3,3,4,4,4-Heptafluorobutyl 2-methyl-2-propenoate",
    "cn_name": null,
    "alternate_name": "2-Propenoic acid, 2-methyl-, 2,2,3,3,4,4,4-heptafluorobutyl ester;Methacrylic acid, 2,2,3,3,4,4,4-heptafluorobutyl ester;1-Butanol, 2,2,3,3,4,4,4-heptafluoro-, methacrylate;2,2,3,3,4,4,4-Heptafluorobutyl 2-methyl-2-propenoate;2,2,3,3,4,4,4-Heptafluorobutyl methacrylate;2,2,3,3,4,4,4-Hexafluorobutyl methacrylate;1<em>H</em>,1<em>H</em>-Heptafluorobutyl methacrylate;2,2,3,3,4,4,4-Heptafluorobutyl 2-methylprop-2-enoate",
    "duplicated_cas_no": "152272-38-3;152751-58-1",
    "SMILES": "C(C(COC(C(C)=C)=O)(F)F)(C(F)(F)F)(F)F",
    "meta_data": {
        "InChI": "InChI=1S/C8H7F7O2/c1-4(2)5(16)17-3-6(9,10)7(11,12)8(13,14)15/h1,3H2,2H3",
        "InChIKey": null,
        "Canonical SMILES": "O=C(OCC(F)(F)C(F)(F)C(F)(F)F)C(=C)C",
        "Molecular Formula": "C<sub>8</sub>H<sub>7</sub>F<sub>7</sub>O<sub>2</sub>",
        "Molecular Mass": "268.13",
        "Boiling Point": "55-56 °C @ Press: 30 Torr"
    }
}