{
    "cas_no": "219921-94-5",
    "key_name": "<span class=\"text-smallcaps\">L</span>-Glutamic acid, <em>N</em>-acetyl-, compd. with (α<em>S</em>)-α-(2-methylpropyl)-2-(1-piperidinyl)benzenemethanamine (1:1)",
    "cn_name": "(S)-3-甲基-1-[2-(1-哌啶基)苯基]丁胺.N-乙酰-L-谷氨酸盐;",
    "alternate_name": "<span class=\"text-smallcaps\">L</span>-Glutamic acid, <em>N</em>-acetyl-, compd. with (α<em>S</em>)-α-(2-methylpropyl)-2-(1-piperidinyl)benzenemethanamine (1:1);Benzenemethanamine, α-(2-methylpropyl)-2-(1-piperidinyl)-, (α<em>S</em>)-, <em>N</em>-acetyl-<span class=\"text-smallcaps\">L</span>-glutamate (1:1)",
    "duplicated_cas_no": "947515-69-7",
    "SMILES": "[C@@H](CC(C)C)(N)C1=C(C=CC=C1)N2CCCCC2.[C@@H](CCC(O)=O)(NC(C)=O)C(O)=O",
    "meta_data": {
        "InChI": "InChI=1S/C16H26N2.C7H11NO5/c1-13(2)12-15(17)14-8-4-5-9-16(14)18-10-6-3-7-11-18;1-4(9)8-5(7(12)13)2-3-6(10)11/h4-5,8-9,13,15H,3,6-7,10-12,17H2,1-2H3;5H,2-3H2,1H3,(H,8,9)(H,10,11)(H,12,13)/t15-;5-/m00/s1",
        "InChIKey": null,
        "Canonical SMILES": "O=C(O)CCC(NC(=O)C)C(=O)O.NC(C=1C=CC=CC1N2CCCCC2)CC(C)C",
        "Molecular Formula": "C<sub>16</sub>H<sub>26</sub>N<sub>2</sub>.C<sub>7</sub>H<sub>11</sub>NO<sub>5</sub>",
        "Molecular Mass": "",
        "Melting Point": "169-171 °C"
    }
}