{
    "cas_no": "7789-75-5",
    "key_name": "Calcium fluoride",
    "cn_name": "氟化钙;",
    "alternate_name": "Calcium fluoride (CaF<sub>2</sub>);Calcium fluoride;Irtran 3;Calcium difluoride;Calcium difluoride (CaF<sub>2</sub>);HO 100;Calcarea fluorica;HO 100W;Fluorite Powder Calcium Fluoride;MeSH ID: D002124",
    "duplicated_cas_no": "29070-15-3;1357089-75-8;1414597-93-5;2821798-34-7",
    "SMILES": "[Ca](F)F",
    "meta_data": {
        "InChI": "InChI=1S/Ca.2FH/h;2*1H/q+2;;/p-2",
        "InChIKey": null,
        "Canonical SMILES": "F[Ca]F",
        "Molecular Formula": "CaF<sub>2</sub>",
        "Molecular Mass": "",
        "Boiling Point": "2500 °C",
        "Melting Point": "1403 °C",
        "Density": "3.18 g/cm³"
    }
}