{
    "cas_no": "2052-14-4",
    "key_name": "Butyl salicylate",
    "cn_name": null,
    "alternate_name": "Benzoic acid, 2-hydroxy-, butyl ester;Salicylic acid, butyl ester;Butyl salicylate;Butyl 2-hydroxybenzoate;Butyl <em>o</em>-hydroxybenzoate;<em>n</em>-Butyl salicylate;NSC 1511;NSC 403676",
    "duplicated_cas_no": "",
    "SMILES": "C(OCCCC)(=O)C1=C(O)C=CC=C1",
    "meta_data": {
        "InChI": "InChI=1S/C11H14O3/c1-2-3-8-14-11(13)9-6-4-5-7-10(9)12/h4-7,12H,2-3,8H2,1H3",
        "InChIKey": null,
        "Canonical SMILES": "O=C(OCCCC)C=1C=CC=CC1O",
        "Molecular Formula": "C<sub>11</sub>H<sub>14</sub>O<sub>3</sub>",
        "Molecular Mass": "194.23",
        "Boiling Point": "271 °C",
        "Melting Point": "-5.9 °C",
        "Density": "1.0253 g/cm³ @ Temp: 20 °C"
    }
}