{
    "cas_no": "106-92-3",
    "key_name": "Allyl glycidyl ether",
    "cn_name": "烯丙基缩水甘油醚;1-烯丙氧基-2,3-环氧丙烷;",
    "alternate_name": "Oxirane, 2-[(2-propen-1-yloxy)methyl]-;Propane, 1-(allyloxy)-2,3-epoxy-;Oxirane, [(2-propenyloxy)methyl]-;2-[(2-Propen-1-yloxy)methyl]oxirane;Allyl 2,3-epoxypropyl ether;Allyl glycidyl ether;Glycidyl allyl ether;1,2-Epoxy-3-allyloxypropane;1-Allyloxy-2,3-epoxypropane;[(Allyloxy)methyl]oxirane;Glycidyl 2-propenyl ether;Allyl oxiranemethyl ether;(±)-Allyl glycidyl ether;[(2-Propenyloxy)methyl]oxirane;Denacol EX 111;AGE;NSC 18596;NSC 631;1-(2-Propenyloxy)-2,3-epoxypropane;A 32608;2-[(2-Propenyloxy)methyl]oxirane;2-(Allyloxymethyl)oxirane;2-[(Prop-2-en-1-yloxy)methyl]oxirane;AGE 500;Silong 191;2-(Prop-2-enoxymethyl)oxirane;AGE 501;R 003047;A 106314;Diluent 680",
    "duplicated_cas_no": "112186-06-8;90907-93-0",
    "SMILES": "C(OCC=C)C1CO1",
    "meta_data": {
        "InChI": "InChI=1S/C6H10O2/c1-2-3-7-4-6-5-8-6/h2,6H,1,3-5H2",
        "InChIKey": null,
        "Canonical SMILES": "O(CC=C)CC1OC1",
        "Molecular Formula": "C<sub>6</sub>H<sub>10</sub>O<sub>2</sub>",
        "Molecular Mass": "114.14",
        "Boiling Point": "153.9 °C @ Press: 760 Torr",
        "Melting Point": "-100 °C",
        "Density": "0.9698 g/cm³ @ Temp: 20 °C"
    }
}