{
    "cas_no": "4241-27-4",
    "key_name": "1,2-Dihydro-6-methyl-2-oxo-3-pyridinecarbonitrile",
    "cn_name": "3-氰基-6-甲基-2(1H)-吡啶酮;6-甲基-3-氰基-2-吡啶酮;",
    "alternate_name": "3-Pyridinecarbonitrile, 1,2-dihydro-6-methyl-2-oxo-;Nicotinonitrile, 1,2-dihydro-6-methyl-2-oxo-;1,2-Dihydro-6-methyl-2-oxo-3-pyridinecarbonitrile;3-Cyano-6-methyl-2-pyridone;2-Hydroxy-6-methylnicotinonitrile;3-Cyano-6-methyl-2(1<em>H</em>)-pyridinone;3-Cyano-2-hydroxy-6-methylpyridine;6-Methyl-2-oxo-1,2-dihydro-3-pyridinecarbonitrile;NSC 15124;3-Cyano-6-methyl-2-pyridinone;2-Hydroxy-6-methylpyridine-3-carbonitrile;3-Cyano-6-methyl-2(1<em>H</em>)-pyridone",
    "duplicated_cas_no": "39215-39-9",
    "SMILES": "C(#N)C=1C(=O)NC(C)=CC1",
    "meta_data": {
        "InChI": "InChI=1S/C7H6N2O/c1-5-2-3-6(4-8)7(10)9-5/h2-3H,1H3,(H,9,10)",
        "InChIKey": null,
        "Canonical SMILES": "N#CC1=CC=C(NC1=O)C",
        "Molecular Formula": "C<sub>7</sub>H<sub>6</sub>N<sub>2</sub>O",
        "Molecular Mass": "134.14",
        "Melting Point": "276-278 °C"
    }
}