{
    "cas_no": "140-25-0",
    "key_name": "Benzyl laurate",
    "cn_name": "十二酸苯甲酯;",
    "alternate_name": "Dodecanoic acid, phenylmethyl ester;Lauric acid, benzyl ester;Benzyl dodecanoate;Benzyl laurate;NSC 404342",
    "duplicated_cas_no": "",
    "SMILES": "C(OC(CCCCCCCCCCC)=O)C1=CC=CC=C1",
    "meta_data": {
        "InChI": "InChI=1S/C19H30O2/c1-2-3-4-5-6-7-8-9-13-16-19(20)21-17-18-14-11-10-12-15-18/h10-12,14-15H,2-9,13,16-17H2,1H3",
        "InChIKey": null,
        "Canonical SMILES": "O=C(OCC=1C=CC=CC1)CCCCCCCCCCC",
        "Molecular Formula": "C<sub>19</sub>H<sub>30</sub>O<sub>2</sub>",
        "Molecular Mass": "290.44",
        "Boiling Point": "209-211 °C @ Press: 12 Torr",
        "Melting Point": "8.5 °C",
        "Density": "0.9457 g/cm³ @ Temp: 25 °C"
    }
}