{
    "cas_no": "616-47-7",
    "key_name": "1-Methylimidazole",
    "cn_name": "N-甲基咪唑;",
    "alternate_name": "1<em>H</em>-Imidazole, 1-methyl-;Imidazole, 1-methyl-;1-Methyl-1<em>H</em>-imidazole;<em>N</em><sup>1</sup>-Methylimidazole;<em>N</em>-Methylimidazole;1-Methylimidazole;N-methylimidazole;Araldite DY 070;DY 070;NSC 88064;Imicure AMI 1;Epikure 201;Kaolizer 110;Biresin CA 141;KL 110",
    "duplicated_cas_no": "69723-05-3;110069-11-9;120418-32-8;142504-34-5;674282-80-5;864745-22-2;955156-62-4;1167574-49-3;1174917-56-6;1179540-68-1;1235442-19-9;1246941-20-7;1259523-87-9;1357171-90-4;1359978-71-4;1532594-45-8;1626357-11-6;1799662-03-5;1848219-06-6;2210264-93-8;2619397-41-8",
    "SMILES": "CN1C=CN=C1",
    "meta_data": {
        "InChI": "InChI=1S/C4H6N2/c1-6-3-2-5-4-6/h2-4H,1H3",
        "InChIKey": null,
        "Canonical SMILES": "N=1C=CN(C1)C",
        "Molecular Formula": "C<sub>4</sub>H<sub>6</sub>N<sub>2</sub>",
        "Molecular Mass": "82.10",
        "Boiling Point": "195.5 °C",
        "Melting Point": "-6 °C",
        "Density": "1.0370 g/cm³ @ Temp: 20.00 °C"
    }
}