{
    "cas_no": "69097-20-7",
    "key_name": "2,2,7,7-Tetramethyl-4-[(trimethylsilyl)oxy]-3,6-dioxa-2,7-disilaoct-4-ene",
    "cn_name": "三(三甲基硅氧基)乙烯;",
    "alternate_name": "3,6-Dioxa-2,7-disilaoct-4-ene, 2,2,7,7-tetramethyl-4-[(trimethylsilyl)oxy]-;2,2,7,7-Tetramethyl-4-[(trimethylsilyl)oxy]-3,6-dioxa-2,7-disilaoct-4-ene;Tris[(trimethylsilyl)oxy]ethylene;Tris(trimethylsiloxy)ethylene;Tris(trimethylsiloxy)ethene;1,1,2-Tris(trimethylsilyloxy)ethene;1,2-Bis(trimethylsilyloxy)ethenoxy-trimethylsilane",
    "duplicated_cas_no": "",
    "SMILES": "C(=CO[Si](C)(C)C)(O[Si](C)(C)C)O[Si](C)(C)C",
    "meta_data": {
        "InChI": "InChI=1S/C11H28O3Si3/c1-15(2,3)12-10-11(13-16(4,5)6)14-17(7,8)9/h10H,1-9H3",
        "InChIKey": null,
        "Canonical SMILES": "O(C=C(O[Si](C)(C)C)O[Si](C)(C)C)[Si](C)(C)C",
        "Molecular Formula": "C<sub>11</sub>H<sub>28</sub>O<sub>3</sub>Si<sub>3</sub>",
        "Molecular Mass": "292.59",
        "Boiling Point": "90 °C @ Press: 1 Torr",
        "Density": "0.885 g/cm³"
    }
}