{
    "cas_no": "3947-65-7",
    "key_name": "Neamine",
    "cn_name": "新霉胺;新霉胺;",
    "alternate_name": "<span class=\"text-smallcaps\">D</smallcap>-Streptamine, 2-deoxy-4-<em>O</em>-(2,6-diamino-2,6-dideoxy-α-<smallcap>D</span>-glucopyranosyl)-;Neomycin A;2-Deoxy-4-<em>O</em>-(2,6-diamino-2,6-dideoxy-α-<span class=\"text-smallcaps\">D</smallcap>-glucopyranosyl)-<smallcap>D</span>-streptamine;Neamine;Neamin;Negamicin;Nebramycin X;Dekamycin V;<em>O</em>-2,6-Diamino-2,6-dideoxy-α-<span class=\"text-smallcaps\">D</smallcap>-glucopyranosyl-(1→4)-1,3-diamino-1,2,3-trideoxy-<smallcap>D</span>-<em>myo</em>-inositol;ST 7 (neomycin A);(+)-Neamine",
    "duplicated_cas_no": "1392-64-9;1400-49-3;157719-56-7;1195510-56-5;1346823-96-8",
    "SMILES": "O([C@H]1[C@H](O)[C@@H](O)[C@H](N)C[C@@H]1N)[C@H]2O[C@H](CN)[C@@H](O)[C@H](O)[C@H]2N",
    "meta_data": {
        "InChI": "InChI=1S/C12H26N4O6/c13-2-5-8(18)9(19)6(16)12(21-5)22-11-4(15)1-3(14)7(17)10(11)20/h3-12,17-20H,1-2,13-16H2/t3-,4+,5-,6-,7+,8-,9-,10-,11-,12-/m1/s1",
        "InChIKey": null,
        "Canonical SMILES": "OC1C(O)C(N)C(OC1CN)OC2C(O)C(O)C(N)CC2N",
        "Molecular Formula": "C<sub>12</sub>H<sub>26</sub>N<sub>4</sub>O<sub>6</sub>",
        "Molecular Mass": "322.36",
        "Melting Point": "256 °C (decomp)"
    }
}