{
    "cas_no": "5337-93-9",
    "key_name": "4′-Methylpropiophenone",
    "cn_name": "对甲基苯丙酮;",
    "alternate_name": "1-Propanone, 1-(4-methylphenyl)-;Propiophenone, 4′-methyl-;1-(4-Methylphenyl)-1-propanone;4′-Methylpropiophenone;<em>p</em>-Methylpropiophenone;Ethyl <em>p</em>-tolyl ketone;Ethyl 4-methylphenyl ketone;1-(4-Tolyl)-1-propanone;NSC 852;1-<em>p</em>-Tolylpropan-1-one",
    "duplicated_cas_no": "",
    "SMILES": "C(CC)(=O)C1=CC=C(C)C=C1",
    "meta_data": {
        "InChI": "InChI=1S/C10H12O/c1-3-10(11)9-6-4-8(2)5-7-9/h4-7H,3H2,1-2H3",
        "InChIKey": null,
        "Canonical SMILES": "O=C(C1=CC=C(C=C1)C)CC",
        "Molecular Formula": "C<sub>10</sub>H<sub>12</sub>O",
        "Molecular Mass": "148.20",
        "Boiling Point": "236 °C",
        "Melting Point": "7.2 °C",
        "Density": "0.9883 g/cm³ @ Temp: 21.7 °C"
    }
}