{
    "cas_no": "1070-89-9",
    "key_name": "Sodium bis(trimethylsilyl)amide",
    "cn_name": "双(三甲基硅基)氨基钠;",
    "alternate_name": "Silanamine, 1,1,1-trimethyl-<em>N</em>-(trimethylsilyl)-, sodium salt (1:1);Silanamine, 1,1,1-trimethyl-<em>N</em>-(trimethylsilyl)-, sodium salt;Sodium, [bis(trimethylsilyl)amino]-;Disilazane, 1,1,1,3,3,3-hexamethyl-, sodium deriv.;Sodium hexamethyldisilazane;Hexamethyldisilazylsodium;<em>N</em>-Sodiohexamethyldisilazane;Bis(trimethylsilyl)amine sodium salt;Sodium hexamethyldisilylamide;Sodiobis(trimethylsilyl)amine;Sodium hexamethyldisilazide;Sodium bis(trimethylsilyl)amine;1,1,1,3,3,3-Hexamethyldisilazane sodium salt;Sodium bis(trimethylsilyl)amide;Hexamethyldisilazane sodium salt;Sodium <em>N</em>,<em>N</em>-bis(trimethylsilyl)amide;<em>N</em>,<em>N</em>-Bis(trimethylsilyl)amine sodium salt;Sodium bis(trimethylsilyl)amide(1-)",
    "duplicated_cas_no": "133766-08-2;42954-57-4;1081831-84-6",
    "SMILES": "N([Si](C)(C)C)[Si](C)(C)C.[Na]",
    "meta_data": {
        "InChI": "InChI=1S/C6H19NSi2.Na/c1-8(2,3)7-9(4,5)6;/h7H,1-6H3;",
        "InChIKey": null,
        "Canonical SMILES": "[Na].N([Si](C)(C)C)[Si](C)(C)C",
        "Molecular Formula": "C<sub>6</sub>H<sub>19</sub>NSi<sub>2</sub>.Na",
        "Molecular Mass": "",
        "Boiling Point": "202 °C @ Press: 1-2 Torr",
        "Melting Point": "165-167 °C"
    }
}