{
    "cas_no": "1123-54-2",
    "key_name": "3<em>H</em>-1,2,3-Triazolo[4,5-<em>d</em>]pyrimidin-7-amine",
    "cn_name": "8-氮杂腺嘌呤;",
    "alternate_name": "3<em>H</em>-1,2,3-Triazolo[4,5-<em>d</em>]pyrimidin-7-amine;1<em>H</em>-1,2,3-Triazolo[4,5-<em>d</em>]pyrimidin-7-amine;1<em>H</em>-<em>v</em>-Triazolo[4,5-<em>d</em>]pyrimidine, 7-amino-;7-Amino-1-<em>v</em>-triazolo[<em>d</em>]pyrimidine;8-Azaadenine;7-Amino-<em>v</em>-triazolo[<em>d</em>]pyrimidine;6-Amino-8-azapurine;8-Aza-6-aminopurine;NSC 32797",
    "duplicated_cas_no": "2001-92-5;212954-76-2;213139-41-4;213139-42-5",
    "SMILES": "NC1=C2C(=NC=N1)N=NN2",
    "meta_data": {
        "InChI": "InChI=1S/C4H4N6/c5-3-2-4(7-1-6-3)9-10-8-2/h1H,(H3,5,6,7,8,9,10)",
        "InChIKey": null,
        "Canonical SMILES": "N1=NC=2N=CN=C(N)C2N1",
        "Molecular Formula": "C<sub>4</sub>H<sub>4</sub>N<sub>6</sub>",
        "Molecular Mass": "136.11",
        "Melting Point": "&gt;300 °C"
    }
}