{
    "cas_no": "127-63-9",
    "key_name": "Phenyl sulfone",
    "cn_name": "二苯砜;",
    "alternate_name": "Benzene, 1,1′-sulfonylbis-;Phenyl sulfone;1,1′-Sulfonylbis[benzene];Diphenyl sulfone;Diphenyl sulphone;DPS;Phenyl sulphone;Sulfobenzide;NSC 627706;NSC 6780;Sulfonyldibenzene;1,1′-Sulfonyldibenzene",
    "duplicated_cas_no": "",
    "SMILES": "S(=O)(=O)(C1=CC=CC=C1)C2=CC=CC=C2",
    "meta_data": {
        "InChI": "InChI=1S/C12H10O2S/c13-15(14,11-7-3-1-4-8-11)12-9-5-2-6-10-12/h1-10H",
        "InChIKey": null,
        "Canonical SMILES": "O=S(=O)(C=1C=CC=CC1)C=2C=CC=CC2",
        "Molecular Formula": "C<sub>12</sub>H<sub>10</sub>O<sub>2</sub>S",
        "Molecular Mass": "218.27",
        "Boiling Point": "279 °C",
        "Melting Point": "128.5 °C"
    }
}