{
    "cas_no": "2437-17-4",
    "key_name": "6-Hydroxy-1-naphthoic acid",
    "cn_name": "6-羟基-1-萘甲酸;",
    "alternate_name": "1-Naphthalenecarboxylic acid, 6-hydroxy-;1-Naphthoic acid, 6-hydroxy-;6-Hydroxy-1-naphthalenecarboxylic acid;6-Hydroxy-1-naphthoic acid;2-Hydroxy-5-naphthoic acid",
    "duplicated_cas_no": "",
    "SMILES": "C(O)(=O)C=1C2=C(C=C(O)C=C2)C=CC1",
    "meta_data": {
        "InChI": "InChI=1S/C11H8O3/c12-8-4-5-9-7(6-8)2-1-3-10(9)11(13)14/h1-6,12H,(H,13,14)",
        "InChIKey": null,
        "Canonical SMILES": "O=C(O)C1=CC=CC2=CC(O)=CC=C21",
        "Molecular Formula": "C<sub>11</sub>H<sub>8</sub>O<sub>3</sub>",
        "Molecular Mass": "188.18",
        "Melting Point": "208-209 °C"
    }
}