{
    "cas_no": "762-51-6",
    "key_name": "Ethane, 1-fluoro-2-iodo-",
    "cn_name": "1-氟-2-碘乙烷;",
    "alternate_name": "Ethane, 1-fluoro-2-iodo-;1-Iodo-2-fluoroethane;1-Fluoro-2-iodoethane;2-Iodoethyl fluoride;2-Fluoroethyl iodide;2-Fluoro-1-iodoethane",
    "duplicated_cas_no": "",
    "SMILES": "C(CI)F",
    "meta_data": {
        "InChI": "InChI=1S/C2H4FI/c3-1-2-4/h1-2H2",
        "InChIKey": null,
        "Canonical SMILES": "FCCI",
        "Molecular Formula": "C<sub>2</sub>H<sub>4</sub>FI",
        "Molecular Mass": "173.96",
        "Boiling Point": "98-102 °C @ Press: 760 Torr",
        "Density": "2.136 g/cm³ @ Temp: 25 °C"
    }
}