{
    "cas_no": "107-43-7",
    "key_name": "Betaine",
    "cn_name": "甜菜碱;甘氨酸三甲胺内盐;",
    "alternate_name": "Methanaminium, 1-carboxy-<em>N</em>,<em>N</em>,<em>N</em>-trimethyl-, inner salt;Betaine;Methanaminium, 1-carboxy-<em>N</em>,<em>N</em>,<em>N</em>-trimethyl-, hydroxide, inner salt;Ammonium compounds, substituted, (carboxymethyl)trimethyl-, hydroxide, inner salt;α-Earleine;Glycine, trimethylbetaine;Glycine betaine;Glycocoll betaine;Lycine;Oxyneurine;Trimethylglycine;Trimethylglycocoll;Glycylbetaine;(Carboxymethyl)trimethylammonium hydroxide inner salt;Abromine;Loramine AMB 13;Rubrine C;(Trimethylammonio)acetate;Aminocoat;<em>N</em>,<em>N</em>,<em>N</em>-Trimethylglycine;Aquadew AN 100;FinnStim;Betafin BCR;Greenstim;Betafin;Betafin BP;Cystadane;Betafin BP 20;Trimethylbetaine;Fencaijian;Bluestim;Auqadew AN 100;Genecare OSMS BA;Intracell;2-(Trimethylazaniumyl)acetate;Genencare OSMS BA;Agro FKC 540 K;Agro FKC 540K;NMF 50;Genencare OSMS Pro;Tego Natural Betaine",
    "duplicated_cas_no": "590-30-7;11042-12-9;24980-93-6;45631-77-4",
    "SMILES": "C([N+](C)(C)C)C([O-])=O",
    "meta_data": {
        "InChI": "InChI=1S/C5H11NO2/c1-6(2,3)4-5(7)8/h4H2,1-3H3",
        "InChIKey": null,
        "Canonical SMILES": "O=C([O-])C[N+](C)(C)C",
        "Molecular Formula": "C<sub>5</sub>H<sub>11</sub>NO<sub>2</sub>",
        "Molecular Mass": "",
        "Melting Point": "293 °C (decomp)",
        "Density": "1.197 x 10⁻³ g/cm³ @ Temp: 25 °C; Press: 750 Torr"
    }
}