{
    "cas_no": "103-65-1",
    "key_name": "Propylbenzene",
    "cn_name": null,
    "alternate_name": "Benzene, propyl-;Propylbenzene;Isocumene;1-Phenylpropane;<em>n</em>-Propylbenzene;1-Propylbenzene;NSC 16941",
    "duplicated_cas_no": "74296-31-4",
    "SMILES": "C(CC)C1=CC=CC=C1",
    "meta_data": {
        "InChI": "InChI=1S/C9H12/c1-2-6-9-7-4-3-5-8-9/h3-5,7-8H,2,6H2,1H3",
        "InChIKey": null,
        "Canonical SMILES": "C=1C=CC(=CC1)CCC",
        "Molecular Formula": "C<sub>9</sub>H<sub>12</sub>",
        "Molecular Mass": "120.19",
        "Boiling Point": "159.2 °C",
        "Melting Point": "-99.5 °C",
        "Density": "0.8620 g/cm³ @ Temp: 20 °C"
    }
}