{
    "cas_no": "13683-41-5",
    "key_name": "(1-Bromoethenyl)trimethylsilane",
    "cn_name": "1-(溴乙烯基)三甲基硅烷;α-(三甲基硅烷基)乙烯基溴;",
    "alternate_name": "Silane, (1-bromoethenyl)trimethyl-;Silane, (1-bromovinyl)trimethyl-;(1-Bromoethenyl)trimethylsilane;1-Bromo-1-(trimethylsilyl)ethylene;α-(Trimethylsilyl)vinyl bromide;1-(Trimethylsilyl)vinyl bromide;(1-Bromovinyl)trimethylsilane;1-(Trimethylsilyl)ethenyl bromide;(α-Bromovinyl)trimethylsilane;1-Bromo-1-(trimethylsilyl)ethene",
    "duplicated_cas_no": "",
    "SMILES": "[Si](C(Br)=C)(C)(C)C",
    "meta_data": {
        "InChI": "InChI=1S/C5H11BrSi/c1-5(6)7(2,3)4/h1H2,2-4H3",
        "InChIKey": null,
        "Canonical SMILES": "BrC(=C)[Si](C)(C)C",
        "Molecular Formula": "C<sub>5</sub>H<sub>11</sub>BrSi",
        "Molecular Mass": "179.13",
        "Boiling Point": "55-57 °C @ Press: 80 Torr",
        "Density": "1.163 g/cm³"
    }
}