{
    "cas_no": "83890-22-6",
    "key_name": "Dimethylsila-17-crown-6",
    "cn_name": "2,2-二甲基-1,3,6,9,12,15-六氧杂-2-硅杂十七烷;2,2-二甲基-1,3,6,9,12,15-六氧杂-2-硅杂十七烷;1,1-二甲基;",
    "alternate_name": "1,3,6,9,12,15-Hexaoxa-2-silacycloheptadecane, 2,2-dimethyl-;2,2-Dimethyl-1,3,6,9,12,15-hexaoxa-2-silacycloheptadecane;Dimethylsila-17-crown-6",
    "duplicated_cas_no": "",
    "SMILES": "C[Si]1(C)OCCOCCOCCOCCOCCO1",
    "meta_data": {
        "InChI": "InChI=1S/C12H26O6Si/c1-19(2)17-11-9-15-7-5-13-3-4-14-6-8-16-10-12-18-19/h3-12H2,1-2H3",
        "InChIKey": null,
        "Canonical SMILES": "O1CCOCCOCCO[Si](OCCOCC1)(C)C",
        "Molecular Formula": "C<sub>12</sub>H<sub>26</sub>O<sub>6</sub>Si",
        "Molecular Mass": "294.42",
        "Boiling Point": "168-170 °C @ Press: 0.3 Torr",
        "Density": "1.090 g/cm³"
    }
}