{
    "cas_no": "3122-87-0",
    "key_name": "Sideroxylin",
    "cn_name": null,
    "alternate_name": "4<em>H</em>-1-Benzopyran-4-one, 5-hydroxy-2-(4-hydroxyphenyl)-7-methoxy-6,8-dimethyl-;Flavone, 4′,5-dihydroxy-7-methoxy-6,8-dimethyl-;5-Hydroxy-2-(4-hydroxyphenyl)-7-methoxy-6,8-dimethyl-4<em>H</em>-1-benzopyran-4-one;Sideroxylin;4′,5-Dihydroxy-7-methoxy-6,8-dimethylflavone;Sideroxyline",
    "duplicated_cas_no": "",
    "SMILES": "CC1=C2C(=C(O)C(C)=C1OC)C(=O)C=C(O2)C3=CC=C(O)C=C3",
    "meta_data": {
        "InChI": "InChI=1S/C18H16O5/c1-9-16(21)15-13(20)8-14(11-4-6-12(19)7-5-11)23-18(15)10(2)17(9)22-3/h4-8,19,21H,1-3H3",
        "InChIKey": null,
        "Canonical SMILES": "O=C1C=C(OC2=C1C(O)=C(C(OC)=C2C)C)C=3C=CC(O)=CC3",
        "Molecular Formula": "C<sub>18</sub>H<sub>16</sub>O<sub>5</sub>",
        "Molecular Mass": "312.32",
        "Melting Point": "284-286 °C"
    }
}