{
    "cas_no": "77-57-6",
    "key_name": "1-Phenylcyclopentanecarbonitrile",
    "cn_name": "1-苯基-1-氰基环戊烷;1-苯基-1-环戊烷甲腈;",
    "alternate_name": "Cyclopentanecarbonitrile, 1-phenyl-;1-Phenylcyclopentanecarbonitrile;1-Phenylcyclopentanenitrile;1-Cyano-1-phenylcyclopentane;NSC 18928;1-Phenylcyclopentane-1-carbonitrile",
    "duplicated_cas_no": "",
    "SMILES": "C(#N)C1(CCCC1)C2=CC=CC=C2",
    "meta_data": {
        "InChI": "InChI=1S/C12H13N/c13-10-12(8-4-5-9-12)11-6-2-1-3-7-11/h1-3,6-7H,4-5,8-9H2",
        "InChIKey": null,
        "Canonical SMILES": "N#CC1(C=2C=CC=CC2)CCCC1",
        "Molecular Formula": "C<sub>12</sub>H<sub>13</sub>N",
        "Molecular Mass": "171.24",
        "Boiling Point": "145-160 °C @ Press: 25-30 Torr"
    }
}