{
    "cas_no": "111957-48-3",
    "key_name": "3-[[6-Deoxy-2-<em>O</em>-[6-<em>O</em>-[(2<em>E</em>)-3-(4-hydroxyphenyl)-1-oxo-2-propen-1-yl]-β-<span class=\"text-smallcaps\">D</smallcap>-glucopyranosyl]-α-<smallcap>L</span>-mannopyranosyl]oxy]-5,7-dihydroxy-2-(4-hydroxyphenyl)-4<em>H</em>-1-benzopyran-4-one",
    "cn_name": null,
    "alternate_name": "4<em>H</em>-1-Benzopyran-4-one, 3-[[6-deoxy-2-<em>O</em>-[6-<em>O</em>-[(2<em>E</em>)-3-(4-hydroxyphenyl)-1-oxo-2-propen-1-yl]-β-<span class=\"text-smallcaps\">D</smallcap>-glucopyranosyl]-α-<smallcap>L</span>-mannopyranosyl]oxy]-5,7-dihydroxy-2-(4-hydroxyphenyl)-;4<em>H</em>-1-Benzopyran-4-one, 3-[[6-deoxy-2-<em>O</em>-[6-<em>O</em>-[(2<em>E</em>)-3-(4-hydroxyphenyl)-1-oxo-2-propenyl]-β-<span class=\"text-smallcaps\">D</smallcap>-glucopyranosyl]-α-<smallcap>L</span>-mannopyranosyl]oxy]-5,7-dihydroxy-2-(4-hydroxyphenyl)-;3-[[6-Deoxy-2-<em>O</em>-[6-<em>O</em>-[(2<em>E</em>)-3-(4-hydroxyphenyl)-1-oxo-2-propen-1-yl]-β-<span class=\"text-smallcaps\">D</smallcap>-glucopyranosyl]-α-<smallcap>L</span>-mannopyranosyl]oxy]-5,7-dihydroxy-2-(4-hydroxyphenyl)-4<em>H</em>-1-benzopyran-4-one;Kaempferol 3-<em>O</em>-β-<span class=\"text-smallcaps\">D</smallcap>-(6′′-<em>p</em>-coumaroyl)glucopyranosyl(1→2)-α-<smallcap>L</span>-rhamnopyranoside;NP-008297",
    "duplicated_cas_no": "155655-58-6;1621462-69-8;1641924-40-4",
    "SMILES": "O(C1=C(OC=2C(C1=O)=C(O)C=C(O)C2)C3=CC=C(O)C=C3)[C@H]4[C@H](O[C@@H]5O[C@H](COC(/C=C/C6=CC=C(O)C=C6)=O)[C@@H](O)[C@H](O)[C@H]5O)[C@H](O)[C@@H](O)[C@H](C)O4",
    "meta_data": {
        "InChI": "InChI=1S/C36H36O17/c1-15-26(42)30(46)34(53-35-31(47)29(45)27(43)23(51-35)14-48-24(41)11-4-16-2-7-18(37)8-3-16)36(49-15)52-33-28(44)25-21(40)12-20(39)13-22(25)50-32(33)17-5-9-19(38)10-6-17/h2-13,15,23,26-27,29-31,34-40,42-43,45-47H,14H2,1H3/b11-4+/t15-,23+,26-,27+,29-,30+,31+,34+,35-,36-/m0/s1",
        "InChIKey": null,
        "Canonical SMILES": "O=C(OCC1OC(OC2C(O)C(O)C(OC2OC=3C(=O)C=4C(O)=CC(O)=CC4OC3C=5C=CC(O)=CC5)C)C(O)C(O)C1O)C=CC6=CC=C(O)C=C6",
        "Molecular Formula": "C<sub>36</sub>H<sub>36</sub>O<sub>17</sub>",
        "Molecular Mass": "740.66",
        "Melting Point": "195 °C"
    }
}