{
    "cas_no": "307-60-8",
    "key_name": "Perfluorododecyl iodide",
    "cn_name": "1-碘全氟十二烷;全氟十二烷基碘;全氟碘代十二烷;",
    "alternate_name": "Dodecane, 1,1,1,2,2,3,3,4,4,5,5,6,6,7,7,8,8,9,9,10,10,11,11,12,12-pentacosafluoro-12-iodo-;Dodecane, pentacosafluoro-1-iodo-;1,1,1,2,2,3,3,4,4,5,5,6,6,7,7,8,8,9,9,10,10,11,11,12,12-Pentacosafluoro-12-iodododecane;Pentacosafluoro-1-iodododecane;Perfluorododecyl iodide;1-Iodoperfluorododecane",
    "duplicated_cas_no": "",
    "SMILES": "C(C(C(C(C(C(C(F)(F)I)(F)F)(F)F)(F)F)(F)F)(F)F)(C(C(C(C(C(F)(F)F)(F)F)(F)F)(F)F)(F)F)(F)F",
    "meta_data": {
        "InChI": "InChI=1S/C12F25I/c13-1(14,3(17,18)5(21,22)7(25,26)9(29,30)11(33,34)35)2(15,16)4(19,20)6(23,24)8(27,28)10(31,32)12(36,37)38",
        "InChIKey": null,
        "Canonical SMILES": "FC(F)(F)C(F)(F)C(F)(F)C(F)(F)C(F)(F)C(F)(F)C(F)(F)C(F)(F)C(F)(F)C(F)(F)C(F)(F)C(F)(F)I",
        "Molecular Formula": "C<sub>12</sub>F<sub>25</sub>I",
        "Molecular Mass": "745.99",
        "Boiling Point": "108-110 °C @ Press: 18 Torr",
        "Melting Point": "99-101 °C"
    }
}