{
    "cas_no": "629-78-7",
    "key_name": "Heptadecane",
    "cn_name": "十七烷;正十七烷;",
    "alternate_name": "Heptadecane;<em>n</em>-Heptadecane;NSC 172782;TS 7;Ecojour TS 7;PCM 17",
    "duplicated_cas_no": "",
    "SMILES": "C(CCCCCCCC)CCCCCCCC",
    "meta_data": {
        "InChI": "InChI=1S/C17H36/c1-3-5-7-9-11-13-15-17-16-14-12-10-8-6-4-2/h3-17H2,1-2H3",
        "InChIKey": null,
        "Canonical SMILES": "CCCCCCCCCCCCCCCCC",
        "Molecular Formula": "C<sub>17</sub>H<sub>36</sub>",
        "Molecular Mass": "240.47",
        "Boiling Point": "302 °C",
        "Melting Point": "22 °C",
        "Density": "0.7732 g/cm³ @ Temp: 30 °C"
    }
}