{
    "cas_no": "62-49-7",
    "key_name": "Choline",
    "cn_name": "L-胆碱;",
    "alternate_name": "Ethanaminium, 2-hydroxy-<em>N</em>,<em>N</em>,<em>N</em>-trimethyl-;Choline;2-Hydroxy-<em>N</em>,<em>N</em>,<em>N</em>-trimethylethanaminium;Bilineurine;(2-Hydroxyethyl)trimethylammonium;Choline ion;Choline cation;PubChem CID: 305;Nanoveson C;Vitamin J;Ethanol, 2-(trimethylamino)-, ion(1-);MeSH ID: D002794;DrugBank AC: DB00122",
    "duplicated_cas_no": "139741-81-4;2072809-41-5;2087491-45-8",
    "SMILES": "C([N+](C)(C)C)CO",
    "meta_data": {
        "InChI": "InChI=1S/C5H14NO/c1-6(2,3)4-5-7/h7H,4-5H2,1-3H3/q+1",
        "InChIKey": null,
        "Canonical SMILES": "OCC[N+](C)(C)C",
        "Molecular Formula": "C<sub>5</sub>H<sub>14</sub>NO",
        "Molecular Mass": "",
        "Boiling Point": "155-230 °C",
        "Melting Point": "232-233 °C (decomp)"
    }
}