{
    "cas_no": "5703-21-9",
    "key_name": "3,4-Dimethoxybenzeneacetaldehyde",
    "cn_name": null,
    "alternate_name": "Benzeneacetaldehyde, 3,4-dimethoxy-;Acetaldehyde, (3,4-dimethoxyphenyl)-;3,4-Dimethoxybenzeneacetaldehyde;Homoveratraldehyde;Homoveratrylaldehyde;(3,4-Dimethoxyphenyl)acetaldehyde;2-(3,4-Dimethoxyphenyl)acetaldehyde;Homoveratric aldehyde",
    "duplicated_cas_no": "",
    "SMILES": "O(C)C1=C(OC)C=CC(CC=O)=C1",
    "meta_data": {
        "InChI": "InChI=1S/C10H12O3/c1-12-9-4-3-8(5-6-11)7-10(9)13-2/h3-4,6-7H,5H2,1-2H3",
        "InChIKey": null,
        "Canonical SMILES": "O=CCC1=CC=C(OC)C(OC)=C1",
        "Molecular Formula": "C<sub>10</sub>H<sub>12</sub>O<sub>3</sub>",
        "Molecular Mass": "180.20",
        "Boiling Point": "121 °C @ Press: 0.3-0.4 Torr",
        "Density": "1.15500061035156 g/cm³ @ Temp: 20 °C"
    }
}