{
    "cas_no": "882-09-7",
    "key_name": "Clofibric acid",
    "cn_name": "4-氯苯氧异丁酸;对氯苯氧异丁酸;2-(4-氯苯氧基)-2-甲基丙酸;",
    "alternate_name": "Propanoic acid, 2-(4-chlorophenoxy)-2-methyl-;Propionic acid, 2-(<em>p</em>-chlorophenoxy)-2-methyl-;2-(4-Chlorophenoxy)-2-methylpropanoic acid;α-(<em>p</em>-Chlorophenoxy)isobutyric acid;PCIB;α-(4-Chlorophenoxy)-α-methylpropionic acid;α-(4-Chlorophenoxy)isobutyric acid;Regadrin;Clofibric acid;Clofibrate free acid;2-(<em>p</em>-Chlorophenoxy)isobutyric acid;Chlorophibrinic acid;PCPIB;2-(<em>p</em>-Chlorophenoxy)-2-methylpropionic acid;2-(4-Chlorophenoxy)-2-methylpropionic acid;4-Chlorophenoxyisobutyric acid;(<em>p</em>-Chlorophenoxy)isobutyric acid;Clofibrin;Chlorofibrinic acid;Chlorfibrinic acid;Clofibrinic acid;CPIBA;CPIB;Clofibrilic acid;Regulipid;Arteriohom;NSC 1149;2-[(4-Chlorophenyl)oxy]-2-methylpropionic acid;2-(<em>p</em>-Chlorophenoxy)-2-methylpropanoic acid;2-(4-Chlorophenoxy)-2-methylpropanic acid;MeSH ID: D002995;2-Propanol, 2-(4-chlorophenoxy)-",
    "duplicated_cas_no": "60120-73-2;94592-92-4;3033604-66-6",
    "SMILES": "O(C(C(O)=O)(C)C)C1=CC=C(Cl)C=C1",
    "meta_data": {
        "InChI": "InChI=1S/C10H11ClO3/c1-10(2,9(12)13)14-8-5-3-7(11)4-6-8/h3-6H,1-2H3,(H,12,13)",
        "InChIKey": null,
        "Canonical SMILES": "O=C(O)C(OC1=CC=C(Cl)C=C1)(C)C",
        "Molecular Formula": "C<sub>10</sub>H<sub>11</sub>ClO<sub>3</sub>",
        "Molecular Mass": "214.65",
        "Melting Point": "118-119 °C"
    }
}