{
    "cas_no": "7432-21-5",
    "key_name": "Benzyloxycarbonyl-<span class=\"text-smallcaps\">L</span>-tryptophan",
    "cn_name": "N-苄氧羰基-L-色氨酸;",
    "alternate_name": "<span class=\"text-smallcaps\">L</span>-Tryptophan, <em>N</em>-[(phenylmethoxy)carbonyl]-;Tryptophan, <em>N</em>-carboxy-, <em>N</em>-benzyl ester, <span class=\"text-smallcaps\">L</span>-;<em>N</em>-[(Phenylmethoxy)carbonyl]-<span class=\"text-smallcaps\">L</span>-tryptophan;Carbobenzoxy-<span class=\"text-smallcaps\">L</span>-tryptophan;<em>N</em>-Carbobenzoxy-<span class=\"text-smallcaps\">L</span>-tryptophan;<em>N</em>-Benzyloxycarbonyl-<span class=\"text-smallcaps\">L</span>-tryptophan;Benzyloxycarbonyl-<span class=\"text-smallcaps\">L</span>-tryptophan;<em>N</em>-(Benzyloxycarbonyl)tryptophan;<em>N</em><sup>α</sup>-Benzyloxycarbonyl-<span class=\"text-smallcaps\">L</span>-tryptophan;<span class=\"text-smallcaps\">L</span>-(Carbobenzyloxy)tryptophan;<em>N</em>-Cbz-<span class=\"text-smallcaps\">L</span>-Tryptophan;<em>N</em>-Carbobenzyloxy-<span class=\"text-smallcaps\">L</span>-tryptophan;NSC 521831;(<em>S</em>)-2-(((Benzyloxy)carbonyl)amino)-3-(1<em>H</em>-indol-3-yl)propanoic acid;<em>N</em>-Cbz-<span class=\"text-smallcaps\">L</span>-Trp-Oh;(2S)-2-[[(Benzyloxy)carbonyl]amino]-3-(1<em>H</em>-indol-3-yl)propanoic acid;(2S)-3-(1<em>H</em>-Indol-3-yl)-2-(phenylmethoxycarbonylamino)propanoic acid",
    "duplicated_cas_no": "7431-99-4;906325-56-2",
    "SMILES": "C([C@H](NC(OCC1=CC=CC=C1)=O)C(O)=O)C=2C=3C(NC2)=CC=CC3",
    "meta_data": {
        "InChI": "InChI=1S/C19H18N2O4/c22-18(23)17(10-14-11-20-16-9-5-4-8-15(14)16)21-19(24)25-12-13-6-2-1-3-7-13/h1-9,11,17,20H,10,12H2,(H,21,24)(H,22,23)/t17-/m0/s1",
        "InChIKey": null,
        "Canonical SMILES": "O=C(OCC=1C=CC=CC1)NC(C(=O)O)CC2=CNC=3C=CC=CC32",
        "Molecular Formula": "C<sub>19</sub>H<sub>18</sub>N<sub>2</sub>O<sub>4</sub>",
        "Molecular Mass": "338.36",
        "Melting Point": "123-125 °C"
    }
}