{
    "cas_no": "23885-43-0",
    "key_name": "(1<em>S</em>,3a<em>S</em>,4a<em>R</em>,4b<em>R</em>,6a<em>R</em>,11a<em>R</em>,11b<em>R</em>,12<em>S</em>,13a<em>S</em>)-1-(3-Furanyl)-1,6a,7,11a,11b,12,13,13a-octahydro-12-hydroxy-4b,7,7,11a,13a-pentamethyloxireno[4,4a]-2-benzopyrano[6,5-<em>g</em>][2]benzoxepin-3,5,9(3a<em>H</em>,4b<em>H</em>,6<em>H</em>)-trione",
    "cn_name": null,
    "alternate_name": "Oxireno[4,4a]-2-benzopyrano[6,5-<em>g</em>][2]benzoxepin-3,5,9(3a<em>H</em>,4b<em>H</em>,6<em>H</em>)-trione, 1-(3-furanyl)-1,6a,7,11a,11b,12,13,13a-octahydro-12-hydroxy-4b,7,7,11a,13a-pentamethyl-, (1<em>S</em>,3a<em>S</em>,4a<em>R</em>,4b<em>R</em>,6a<em>R</em>,11a<em>R</em>,11b<em>R</em>,12<em>S</em>,13a<em>S</em>)-;Oxireno[4,4a]-2-benzopyrano[6,5-<em>g</em>][2]benzoxepin-3,5,9(3aα<span class=\"text-smallcaps\">H</span>,4b<em>H</em>,6<em>H</em>)-trione, 1α-(3-furyl)-1,6aα,7,11a,11bα,12,13,13a-octahydro-12β-hydroxy-4bβ,7,7,11aβ,13aα-pentamethyl-;Obacunoic acid, 11-hydroxy-, 3,4-lactone, (11β)-;(1<em>S</em>,3a<em>S</em>,4a<em>R</em>,4b<em>R</em>,6a<em>R</em>,11a<em>R</em>,11b<em>R</em>,12<em>S</em>,13a<em>S</em>)-1-(3-Furanyl)-1,6a,7,11a,11b,12,13,13a-octahydro-12-hydroxy-4b,7,7,11a,13a-pentamethyloxireno[4,4a]-2-benzopyrano[6,5-<em>g</em>][2]benzoxepin-3,5,9(3a<em>H</em>,4b<em>H</em>,6<em>H</em>)-trione;Zapoterin;Oxireno[4,4a]-2-benzopyrano[6,5-<em>g</em>][2]benzoxepin-3,5,9(3a<em>H</em>,4b<em>H</em>,6<em>H</em>)-trione, 1-(3-furanyl)-1,6a,7,11a,11b,12,13,13a-octahydro-12-hydroxy-4b,7,7,11a,13a-pentamethyl-, [1<em>R</em>-(1α,3aα,4a<em>R</em>*,4bβ,6aα,11aβ,11bα,12β,13aα)]-;11β-Hydroxyobacunone",
    "duplicated_cas_no": "17182-57-9;35796-71-5",
    "SMILES": "C[C@]12[C@]34[C@](O3)(C(=O)O[C@H]([C@]4(C)C[C@H](O)[C@@]1([C@]5(C)[C@@](CC2=O)(C(C)(C)OC(=O)C=C5)[H])[H])C=6C=COC6)[H]",
    "meta_data": {
        "InChI": "InChI=1S/C26H30O8/c1-22(2)15-10-16(28)25(5)18(23(15,3)8-6-17(29)33-22)14(27)11-24(4)19(13-7-9-31-12-13)32-21(30)20-26(24,25)34-20/h6-9,12,14-15,18-20,27H,10-11H2,1-5H3/t14-,15-,18+,19-,20+,23-,24-,25+,26+/m0/s1",
        "InChIKey": null,
        "Canonical SMILES": "O=C1OC(C)(C)C2CC(=O)C3(C)C(C(O)CC4(C)C(OC(=O)C5OC534)C6=COC=C6)C2(C=C1)C",
        "Molecular Formula": "C<sub>26</sub>H<sub>30</sub>O<sub>8</sub>",
        "Molecular Mass": "470.51",
        "Melting Point": "257-259 °C"
    }
}