{
    "cas_no": "5327-44-6",
    "key_name": "1-Methoxy-3,5-dinitrobenzene",
    "cn_name": "3,5-二硝基苯甲醚;",
    "alternate_name": "Benzene, 1-methoxy-3,5-dinitro-;Anisole, 3,5-dinitro-;1-Methoxy-3,5-dinitrobenzene;3,5-Dinitroanisole;NSC 3331",
    "duplicated_cas_no": "",
    "SMILES": "N(=O)(=O)C1=CC(N(=O)=O)=CC(OC)=C1",
    "meta_data": {
        "InChI": "InChI=1S/C7H6N2O5/c1-14-7-3-5(8(10)11)2-6(4-7)9(12)13/h2-4H,1H3",
        "InChIKey": null,
        "Canonical SMILES": "O=N(=O)C1=CC(OC)=CC(=C1)N(=O)=O",
        "Molecular Formula": "C<sub>7</sub>H<sub>6</sub>N<sub>2</sub>O<sub>5</sub>",
        "Molecular Mass": "198.13",
        "Melting Point": "105.3 °C",
        "Density": "1.61 g/cm³"
    }
}