{
    "cas_no": "975-17-7",
    "key_name": "Phenylfluorone",
    "cn_name": "苯芴酮;锗试剂;2,6,7-三羟基-9-苯基-6-荧光酮;2,6,7-三羟基-9-苯基-3H-呫吨-3-酮;",
    "alternate_name": "3<em>H</em>-Xanthen-3-one, 2,6,7-trihydroxy-9-phenyl-;2,6,7-Trihydroxy-9-phenyl-3<em>H</em>-xanthen-3-one;Phenylfluorone;Fluorone, phenyl-;9-Phenyl-2,3,7-trihydroxy-6-fluorone;Fluorone black;2,3,7-Trihydroxy-9-phenyl-6-fluorone;9-Phenyl-2,3,7-trihydroxy-6-flurone;2,3,7-Trihydroxy-9-phenylxanthen-6-one;NSC 2608;NSC 66463;2,6,7-Trihydroxy-9-phenylxanthen-3-one",
    "duplicated_cas_no": "",
    "SMILES": "OC=1C=C2C(=C3C(OC2=CC1O)=CC(=O)C(O)=C3)C4=CC=CC=C4",
    "meta_data": {
        "InChI": "InChI=1S/C19H12O5/c20-13-6-11-17(8-15(13)22)24-18-9-16(23)14(21)7-12(18)19(11)10-4-2-1-3-5-10/h1-9,20-22H",
        "InChIKey": null,
        "Canonical SMILES": "O=C1C=C2OC=3C=C(O)C(O)=CC3C(C=4C=CC=CC4)=C2C=C1O",
        "Molecular Formula": "C<sub>19</sub>H<sub>12</sub>O<sub>5</sub>",
        "Molecular Mass": "320.30",
        "Melting Point": "204 °C"
    }
}