{
    "cas_no": "1927-25-9",
    "key_name": "Homoserine",
    "cn_name": "DL-高丝氨酸;DL-2-氨基-4-羟基丁酸;",
    "alternate_name": "Homoserine;Butyric acid, 2-amino-4-hydroxy-, <span class=\"text-smallcaps\">DL</span>-;<span class=\"text-smallcaps\">DL</span>-Homoserine;<span class=\"text-smallcaps\">DL</span>-α-Amino-γ-hydroxybutyric acid;NSC 37755;2-Azaniumyl-4-hydroxybutanoate;2-Amino-4-hydroxybutanoic acid",
    "duplicated_cas_no": "",
    "SMILES": "C(CCO)(C(O)=O)N",
    "meta_data": {
        "InChI": "InChI=1S/C4H9NO3/c5-3(1-2-6)4(7)8/h3,6H,1-2,5H2,(H,7,8)",
        "InChIKey": null,
        "Canonical SMILES": "O=C(O)C(N)CCO",
        "Molecular Formula": "C<sub>4</sub>H<sub>9</sub>NO<sub>3</sub>",
        "Molecular Mass": "119.12",
        "Melting Point": "187 °C"
    }
}