{
    "cas_no": "107-99-3",
    "key_name": "2-(Dimethylamino)ethyl chloride",
    "cn_name": null,
    "alternate_name": "Ethanamine, 2-chloro-<em>N</em>,<em>N</em>-dimethyl-;Ethylamine, 2-chloro-<em>N</em>,<em>N</em>-dimethyl-;2-Chloro-<em>N</em>,<em>N</em>-dimethylethanamine;NSC 1917;Dimethyl(2-chloroethyl)amine;2-(Dimethylamino)ethyl chloride;1-Chloro-2-(dimethylamino)ethane;Chloro(dimethylamino)ethane;Dimethylaminoethyl chloride;<em>N</em>-(2-Chloroethyl)dimethylamine;<em>N</em>-(2-Chloroethyl)-<em>N</em>,<em>N</em>-dimethylamine;2-Chloro-<em>N</em>,<em>N</em>-dimethylethylamine;β-(Dimethylamino)ethyl chloride;<em>N</em>,<em>N</em>-Dimethyl-2-chloroethylamine;(2-Chloroethyl)dimethylamine;<em>N</em>,<em>N</em>-Dimethyl-β-chloroethylamine;2-Chloro-1-(dimethylamino)ethane;β-Chloroethyldimethylamine;2-(Dimethylamino)-1-chloroethane;β-(<em>N</em>,<em>N</em>-Dimethylamino)ethyl chloride;<em>N</em>,<em>N</em>-Dimethyl-<em>N</em>-(2-chloroethyl)amine;1-Dimethylamino-2-chloroethane;2-Chloro-<em>N</em>,<em>N</em>-dimethylaminoethane;2-(<em>N</em>,<em>N</em>-Dimethylamino)-1-chloroethane;1-Chloro-2-<em>N</em>,<em>N</em>-dimethylaminoethane;NSC 123444;2-Chloro-<em>N</em>,<em>N</em>-dimethylethan-1-amine",
    "duplicated_cas_no": "",
    "SMILES": "C(N(C)C)CCl",
    "meta_data": {
        "InChI": "InChI=1S/C4H10ClN/c1-6(2)4-3-5/h3-4H2,1-2H3",
        "InChIKey": null,
        "Canonical SMILES": "ClCCN(C)C",
        "Molecular Formula": "C<sub>4</sub>H<sub>10</sub>ClN",
        "Molecular Mass": "107.58",
        "Boiling Point": "109 °C @ Press: 750 Torr"
    }
}