{
    "cas_no": "19172-47-5",
    "key_name": "Lawesson's reagent",
    "cn_name": "劳森试剂;",
    "alternate_name": "1,3,2,4-Dithiadiphosphetane, 2,4-bis(4-methoxyphenyl)-, 2,4-disulfide;Phosphonotrithioic acid, (<em>p</em>-methoxyphenyl)-, bimol. cyclic anhydrosulfide;<em>p</em>-Anisyldithiophosphonic anhydride;2,4-Bis(<em>p</em>-methoxyphenyl)-1,3,2,4-dithiadiphosphetane 2,4-disulfide;Lawesson's reagent;2,4-Bis(4-methoxyphenyl)-1,3-dithia-2,4-diphosphetane 2,4-disulfide;Reagents, Lawesson's;2,4-Di(<em>p</em>-methoxyphenyl)-1,3-dithiadiphosphetane disulfide;NSC 150550;2,4-Bis(4-methoxyphenyl)-2,4-dithioxo-1,3,2,4-dithiadiphosphetane;2,4-Bis(4-methoxyphenyl)-1,3,2,4-dithiadiphosphetane-2,4-disulfide;Lawesson reagent;2,4-(4-Methoxyphenyl)-1,3,2,4-dithiadiphosphetane-2,4-disulfide;2,4-Bis(4-methoxyphenyl)-1,3,2,4-dithiadiphosphetan-2,4-disulfide",
    "duplicated_cas_no": "114668-60-9;136390-48-2;72728-81-5;94367-93-8",
    "SMILES": "S=P1(SP(=S)(S1)C2=CC=C(OC)C=C2)C3=CC=C(OC)C=C3",
    "meta_data": {
        "InChI": "InChI=1S/C14H14O2P2S4/c1-15-11-3-7-13(8-4-11)17(19)21-18(20,22-17)14-9-5-12(16-2)6-10-14/h3-10H,1-2H3",
        "InChIKey": null,
        "Canonical SMILES": "S=P1(SP(=S)(S1)C2=CC=C(OC)C=C2)C3=CC=C(OC)C=C3",
        "Molecular Formula": "C<sub>14</sub>H<sub>14</sub>O<sub>2</sub>P<sub>2</sub>S<sub>4</sub>",
        "Molecular Mass": "404.47",
        "Melting Point": "229 °C"
    }
}