{
    "cas_no": "610-34-4",
    "key_name": "Benzoic acid, 2-nitro-, ethyl ester",
    "cn_name": "2-硝基苯甲酸乙酯;",
    "alternate_name": "Benzoic acid, 2-nitro-, ethyl ester;Benzoic acid, <em>o</em>-nitro-, ethyl ester;Ethyl <em>o</em>-nitrobenzoate;Ethyl 2-nitrobenzoate;NSC 4685",
    "duplicated_cas_no": "",
    "SMILES": "C(OCC)(=O)C1=C(N(=O)=O)C=CC=C1",
    "meta_data": {
        "InChI": "InChI=1S/C9H9NO4/c1-2-14-9(11)7-5-3-4-6-8(7)10(12)13/h3-6H,2H2,1H3",
        "InChIKey": null,
        "Canonical SMILES": "O=C(OCC)C=1C=CC=CC1N(=O)=O",
        "Molecular Formula": "C<sub>9</sub>H<sub>9</sub>NO<sub>4</sub>",
        "Molecular Mass": "195.17",
        "Boiling Point": "275 °C",
        "Melting Point": "30 °C"
    }
}