{
    "cas_no": "4080-98-2",
    "key_name": "Dodecanedioic acid dihydrazide",
    "cn_name": "十二烷二羧酸二酰肼;",
    "alternate_name": "Dodecanedioic acid, 1,12-dihydrazide;Dodecanedioic acid, dihydrazide;N 12 (hydrazide);N 12;Dodecanedioic dihydrazide;DDH-S;DDH;1,12-Dodecandioic acid dihydrazide;Dodecanedioic acid dihydrazide",
    "duplicated_cas_no": "",
    "SMILES": "C(CCCCCCCCCCC(NN)=O)(NN)=O",
    "meta_data": {
        "InChI": "InChI=1S/C12H26N4O2/c13-15-11(17)9-7-5-3-1-2-4-6-8-10-12(18)16-14/h1-10,13-14H2,(H,15,17)(H,16,18)",
        "InChIKey": null,
        "Canonical SMILES": "O=C(NN)CCCCCCCCCCC(=O)NN",
        "Molecular Formula": "C<sub>12</sub>H<sub>26</sub>N<sub>4</sub>O<sub>2</sub>",
        "Molecular Mass": "258.36",
        "Melting Point": "184-185 °C"
    }
}