{
    "cas_no": "1757-42-2",
    "key_name": "3-Methylcyclopentanone",
    "cn_name": "DL-3-甲基环戊酮;3-甲基环戊酮;",
    "alternate_name": "Cyclopentanone, 3-methyl-;3-Methylcyclopentanone;3-Methyl-1-cyclopentanone;1-Methyl-3-cyclopentanone;(±)-3-Methylcyclopentanone;NSC 25212",
    "duplicated_cas_no": "6195-92-2",
    "SMILES": "CC1CC(=O)CC1",
    "meta_data": {
        "InChI": "InChI=1S/C6H10O/c1-5-2-3-6(7)4-5/h5H,2-4H2,1H3",
        "InChIKey": null,
        "Canonical SMILES": "O=C1CCC(C)C1",
        "Molecular Formula": "C<sub>6</sub>H<sub>10</sub>O",
        "Molecular Mass": "98.14",
        "Boiling Point": "143 °C",
        "Melting Point": "57.5-59.5 °C",
        "Density": "0.8593 g/cm³ @ Temp: 81.8 °C"
    }
}