{
    "cas_no": "17249-80-8",
    "key_name": "3-Chlorothiophene",
    "cn_name": "3-氯噻吩;",
    "alternate_name": "Thiophene, 3-chloro-;3-Chlorothiophene",
    "duplicated_cas_no": "",
    "SMILES": "ClC=1C=CSC1",
    "meta_data": {
        "InChI": "InChI=1S/C4H3ClS/c5-4-1-2-6-3-4/h1-3H",
        "InChIKey": null,
        "Canonical SMILES": "ClC1=CSC=C1",
        "Molecular Formula": "C<sub>4</sub>H<sub>3</sub>ClS",
        "Molecular Mass": "118.58",
        "Boiling Point": "136-137 °C",
        "Melting Point": "-62 °C"
    }
}