{
    "cas_no": "100-80-1",
    "key_name": "3-Methylstyrene",
    "cn_name": "间乙烯基甲苯;",
    "alternate_name": "Benzene, 1-ethenyl-3-methyl-;Styrene, <em>m</em>-methyl-;1-Ethenyl-3-methylbenzene;<em>m</em>-Methylstyrene;3-Methylstyrene;<em>m</em>-Vinyltoluene;1-Methyl-3-vinylbenzene;3-Vinyltoluene;3-Ethenylmethylbenzene;1-(3-Methylphenyl)-1-ethene",
    "duplicated_cas_no": "",
    "SMILES": "C(=C)C1=CC(C)=CC=C1",
    "meta_data": {
        "InChI": "InChI=1S/C9H10/c1-3-9-6-4-5-8(2)7-9/h3-7H,1H2,2H3",
        "InChIKey": null,
        "Canonical SMILES": "C=CC1=CC=CC(=C1)C",
        "Molecular Formula": "C<sub>9</sub>H<sub>10</sub>",
        "Molecular Mass": "118.18",
        "Boiling Point": "172 °C",
        "Melting Point": "-86.3 °C",
        "Density": "0.91 g/cm³"
    }
}