{
    "cas_no": "29026-74-2",
    "key_name": "2-(1-Methylethoxy)benzenamine",
    "cn_name": null,
    "alternate_name": "Benzenamine, 2-(1-methylethoxy)-;Aniline, <em>o</em>-isopropoxy-;2-(1-Methylethoxy)benzenamine;<em>o</em>-Isopropoxyaniline;2-Isopropoxyaniline;2-(1-Methylethoxy)aniline;2-Propan-2-yloxyaniline;2-(Propan-2-yloxy)aniline;2-Isopropoxy-phenylamine",
    "duplicated_cas_no": "",
    "SMILES": "O(C(C)C)C1=C(N)C=CC=C1",
    "meta_data": {
        "InChI": "InChI=1S/C9H13NO/c1-7(2)11-9-6-4-3-5-8(9)10/h3-7H,10H2,1-2H3",
        "InChIKey": null,
        "Canonical SMILES": "O(C=1C=CC=CC1N)C(C)C",
        "Molecular Formula": "C<sub>9</sub>H<sub>13</sub>NO",
        "Molecular Mass": "151.21",
        "Boiling Point": "107-110 °C @ Press: 10 mmHg",
        "Melting Point": "139-141 °C"
    }
}