{
    "cas_no": "110-70-3",
    "key_name": "<em>N</em>,<em>N</em>′-Dimethylethylenediamine",
    "cn_name": "N,N\"-二甲基乙二胺;",
    "alternate_name": "1,2-Ethanediamine, <em>N</em><sup>1</sup>,<em>N</em><sup>2</sup>-dimethyl-;Ethylenediamine, <em>N</em>,<em>N</em>′-dimethyl-;1,2-Ethanediamine, <em>N</em>,<em>N</em>′-dimethyl-;<em>N</em><sup>1</sup>,<em>N</em><sup>2</sup>-Dimethyl-1,2-ethanediamine;2,5-Diazahexane;<em>N</em>,<em>N</em>′-Dimethyldiaminoethane;<em>N</em>,<em>N</em>′-Dimethylethylenediamine;<em>N</em>,<em>N</em>′-Dimethylethanediamine;<em>N</em>,<em>N</em>′-Dimethyl-1,2-ethanediamine;<em>sym</em>-Dimethylethylenediamine;1,2-Bis(methylamino)ethane;<em>N</em>,<em>N</em>′-Dimethyl-1,2-diaminoethane;Symmetrical dimethylethylenediamine;<em>N</em>,<em>N</em>′-Dimethyl-1,2-ethylenediamine;<em>N</em>-Methyl-<em>N</em>-[2-(methylamino)ethyl]amine;(Methyl)[2-(methylamino)ethyl]amine;DMEDA;<em>N</em><sup>1</sup>,<em>N</em><sup>2</sup>-Dimethylethane-1,2-diamine;<em>N</em>,<em>N</em>′-Dimethylethane-1,2-diamine",
    "duplicated_cas_no": "",
    "SMILES": "C(CNC)NC",
    "meta_data": {
        "InChI": "InChI=1S/C4H12N2/c1-5-3-4-6-2/h5-6H,3-4H2,1-2H3",
        "InChIKey": null,
        "Canonical SMILES": "N(C)CCNC",
        "Molecular Formula": "C<sub>4</sub>H<sub>12</sub>N<sub>2</sub>",
        "Molecular Mass": "88.15",
        "Boiling Point": "120 °C"
    }
}