{
    "cas_no": "98619-07-9",
    "key_name": "4-Acetyl-3-fluorophenol",
    "cn_name": "2\"-氟-4\"-羟基苯乙酮;4-羟基-2-氟苯乙酮;",
    "alternate_name": "Ethanone, 1-(2-fluoro-4-hydroxyphenyl)-;1-(2-Fluoro-4-hydroxyphenyl)ethanone;4-Acetyl-3-fluorophenol;2′-Fluoro-4′-hydroxyacetophenone;1-(2-Fluoro-4-hydroxyphenyl)-1-ethanone;3-Fluoro-4-acetylphenol",
    "duplicated_cas_no": "",
    "SMILES": "C(C)(=O)C1=C(F)C=C(O)C=C1",
    "meta_data": {
        "InChI": "InChI=1S/C8H7FO2/c1-5(10)7-3-2-6(11)4-8(7)9/h2-4,11H,1H3",
        "InChIKey": null,
        "Canonical SMILES": "O=C(C1=CC=C(O)C=C1F)C",
        "Molecular Formula": "C<sub>8</sub>H<sub>7</sub>FO<sub>2</sub>",
        "Molecular Mass": "154.14",
        "Melting Point": "120-121 °C"
    }
}