{
    "cas_no": "19013-03-7",
    "key_name": "Eupatoriochromene",
    "cn_name": null,
    "alternate_name": "Ethanone, 1-(7-hydroxy-2,2-dimethyl-2<em>H</em>-1-benzopyran-6-yl)-;Ketone, 7-hydroxy-2,2-dimethyl-2<em>H</em>-1-benzopyran-6-yl methyl;1-(7-Hydroxy-2,2-dimethyl-2<em>H</em>-1-benzopyran-6-yl)ethanone;Eupatoriochromene;Desmethylencecalin;De(methyl)encecalin;6-Acetyl-7-hydroxy-2,2-dimethylchromene;NSC 363789",
    "duplicated_cas_no": "",
    "SMILES": "C(C)(=O)C=1C=C2C(=CC1O)OC(C)(C)C=C2",
    "meta_data": {
        "InChI": "InChI=1S/C13H14O3/c1-8(14)10-6-9-4-5-13(2,3)16-12(9)7-11(10)15/h4-7,15H,1-3H3",
        "InChIKey": null,
        "Canonical SMILES": "O=C(C1=CC=2C=CC(OC2C=C1O)(C)C)C",
        "Molecular Formula": "C<sub>13</sub>H<sub>14</sub>O<sub>3</sub>",
        "Molecular Mass": "218.25",
        "Melting Point": "80 °C"
    }
}