{
    "cas_no": "98-85-1",
    "key_name": "1-Phenylethanol",
    "cn_name": "甲基苯甲醇;alpha-苯乙醇;alpha-甲基苯基甲醇;苯基甲基甲醇;alpha-甲基苄醇;苏合香醇;1-苯基乙醇;",
    "alternate_name": "Benzenemethanol, α-methyl-;Benzyl alcohol, α-methyl-;α-Methylbenzenemethanol;Ethanol, 1-phenyl-;Methylphenylcarbinol;α-Phenethyl alcohol;1-Phenylethanol;Phenylmethylcarbinol;Styralyl alcohol;α-Methylbenzyl alcohol;α-Phenylethyl alcohol;1-Phenyl-1-hydroxyethane;(1-Hydroxyethyl)benzene;α-Phenylethanol;1-Phenethyl alcohol;1-Phenylethyl alcohol;1-Phenyl-1-ethanol;Styrallyl alcohol;<em>sec</em>-Phenethyl alcohol;α-Hydroxyethylbenzene;<span class=\"text-smallcaps\">DL</span>-Methyl phenyl carbinol;(<em>RS</em>)-1-Phenylethanol;(±)-1-Phenylethanol;<span class=\"text-smallcaps\">DL</span>-α-Phenylethyl alcohol;<em>dl</em>-1-Phenylethanol;Synthacolin;(±)-α-Phenylethanol;(±)-α-Methylbenzyl alcohol;(±)-1-Phenylethyl alcohol;(<em>RS</em>)-α-Phenylethanol;(±)-α-Methylbenzenemethanol;(±)-α-Phenethyl alcohol;(±)-<em>sec</em>-Phenethyl alcohol;(<em>RS</em>)-<em>sec</em>-Phenethyl alcohol;(±)-<em>sec</em>-Phenylethanol;1-Hydroxy-1-phenylethane;α-Methylphenylmethanol;NSC 25502;1-Phenylethane-1-ol",
    "duplicated_cas_no": "13323-81-4",
    "SMILES": "C(C)(O)C1=CC=CC=C1",
    "meta_data": {
        "InChI": "InChI=1S/C8H10O/c1-7(9)8-5-3-2-4-6-8/h2-7,9H,1H3",
        "InChIKey": null,
        "Canonical SMILES": "OC(C=1C=CC=CC1)C",
        "Molecular Formula": "C<sub>8</sub>H<sub>10</sub>O",
        "Molecular Mass": "122.16",
        "Boiling Point": "204 °C",
        "Melting Point": "20.7 °C",
        "Density": "1.013 g/cm³ @ Temp: 25 °C"
    }
}