{
    "cas_no": "135861-56-2",
    "key_name": "Bis(3,4-dimethylbenzylidene) sorbitol",
    "cn_name": null,
    "alternate_name": "<span class=\"text-smallcaps\">D</span>-Glucitol, 1,3:2,4-bis-<em>O</em>-[(3,4-dimethylphenyl)methylene]-;[1,3]Dioxino[5,4-<em>d</em>]-1,3-dioxin, <span class=\"text-smallcaps\">D</span>-glucitol deriv.;1,3:2,4-Bis-<em>O</em>-[(3,4-dimethylphenyl)methylene]-<span class=\"text-smallcaps\">D</span>-glucitol;1,3:2,4-Bis(3,4-dimethylbenzylidene)sorbitol;1,3:2,4-Bis-<em>O</em>-(3,4-dimethylbenzylidene)-<span class=\"text-smallcaps\">D</span>-sorbitol;1,3:2,4-Bis(3′,4′-dimethylbenzylidene)sorbitol;Millad 3988;Millad 8C41-10;1,3:2,4-Di(3,4-dimethylbenzylidene)sorbitol;Bis(3,4-dimethylbenzylidene) sorbitol;Millad 3988I;DMDBS;1,3:2,4-Di(3,4-dimethylbenzylidene)-<span class=\"text-smallcaps\">D</span>-sorbitol;ZC 3;1,3:2,4-Di-<em>O</em>-3,4-dimethylbenzylidene-<span class=\"text-smallcaps\">D</span>-sorbitol;Chiclear 390;Millad 3998;Geniset DXR;Nucleating Agent 3988;Jadewin 3988;TH 3988;ST-NC 38;ZN 3S;Gel All DXR;Uclear 183;HX 3 (carbohydrate);HX 3",
    "duplicated_cas_no": "182077-81-2;475558-57-7;1171816-77-5;1242238-46-5;1581883-40-0;2156603-15-3;2230169-59-0",
    "SMILES": "[C@H](CO)(O)[C@@]1([C@]2([C@@](OC(O1)C3=CC(C)=C(C)C=C3)(COC(O2)C4=CC(C)=C(C)C=C4)[H])[H])[H]",
    "meta_data": {
        "InChI": "InChI=1S/C24H30O6/c1-13-5-7-17(9-15(13)3)23-27-12-20-22(30-23)21(19(26)11-25)29-24(28-20)18-8-6-14(2)16(4)10-18/h5-10,19-26H,11-12H2,1-4H3/t19-,20+,21-,22-,23?,24?/m1/s1",
        "InChIKey": null,
        "Canonical SMILES": "OCC(O)C1OC(OC2COC(OC21)C3=CC=C(C(=C3)C)C)C4=CC=C(C(=C4)C)C",
        "Molecular Formula": "C<sub>24</sub>H<sub>30</sub>O<sub>6</sub>",
        "Molecular Mass": "414.49",
        "Melting Point": "267.1-267.9 °C"
    }
}