{
    "cas_no": "606-23-5",
    "key_name": "1,3-Indandione",
    "cn_name": "1,3-茚满二酮;",
    "alternate_name": "1<em>H</em>-Indene-1,3(2<em>H</em>)-dione;1,3-Indandione;Indandione;1,3-Diketohydrindene;1,3-Indanedione;Indene-1,3(2<em>H</em>)-dione;NSC 26329;NSC 6312;1,3-Dioxobenzocyclopentane;2<em>H</em>-Indene-1,3-dione",
    "duplicated_cas_no": "823271-74-5",
    "SMILES": "O=C1C=2C(C(=O)C1)=CC=CC2",
    "meta_data": {
        "InChI": "InChI=1S/C9H6O2/c10-8-5-9(11)7-4-2-1-3-6(7)8/h1-4H,5H2",
        "InChIKey": null,
        "Canonical SMILES": "O=C1C=2C=CC=CC2C(=O)C1",
        "Molecular Formula": "C<sub>9</sub>H<sub>6</sub>O<sub>2</sub>",
        "Molecular Mass": "146.14",
        "Boiling Point": "112-115 °C @ Press: 9-10 Torr",
        "Melting Point": "131.5 °C (decomp)"
    }
}