{
    "cas_no": "13870-29-6",
    "key_name": "Sodium pyrosulfate",
    "cn_name": "焦硫酸钠;",
    "alternate_name": "Disulfuric acid, sodium salt (1:2);Pyrosulfuric acid, disodium salt;Sodium pyrosulfate;Disulfuric acid, disodium salt;Disodium pyrosulfate;Sodium disulfate;Sodium pyrosulfate (Na<sub>2</sub>S<sub>2</sub>O<sub>7</sub>);Disodium disulfate;Sodium sulfate (Na<sub>2</sub>S<sub>2</sub>O<sub>7</sub>);Pyrosulfuric acid sodium salt (1:2)",
    "duplicated_cas_no": "958848-90-3;2450405-08-8",
    "SMILES": "O(S(=O)(=O)O)S(=O)(=O)O.[Na]",
    "meta_data": {
        "InChI": "InChI=1S/2Na.H2O7S2/c;;1-8(2,3)7-9(4,5)6/h;;(H,1,2,3)(H,4,5,6)",
        "InChIKey": null,
        "Canonical SMILES": "[Na].O=S(=O)(O)OS(=O)(=O)O",
        "Molecular Formula": "H<sub>2</sub>O<sub>7</sub>S<sub>2</sub>.2Na",
        "Molecular Mass": "",
        "Melting Point": "396 °C"
    }
}