{
    "cas_no": "1792-17-2",
    "key_name": "Dibutylurea",
    "cn_name": "1,3-二丁基脲;N,N\"-二正丁基脲;二丁脲;",
    "alternate_name": "Urea, <em>N</em>,<em>N</em>′-dibutyl-;Urea, 1,3-dibutyl-;<em>N</em>,<em>N</em>′-Dibutylurea;1,3-Di-<em>n</em>-butylurea;1,3-Dibutylurea;Dibutylurea;SRI 434-37;<em>N</em>,<em>N</em>′-Di-<em>n</em>-butylurea;NSC 131939",
    "duplicated_cas_no": "",
    "SMILES": "N(C(NCCCC)=O)CCCC",
    "meta_data": {
        "InChI": "InChI=1S/C9H20N2O/c1-3-5-7-10-9(12)11-8-6-4-2/h3-8H2,1-2H3,(H2,10,11,12)",
        "InChIKey": null,
        "Canonical SMILES": "O=C(NCCCC)NCCCC",
        "Molecular Formula": "C<sub>9</sub>H<sub>20</sub>N<sub>2</sub>O",
        "Molecular Mass": "172.27",
        "Boiling Point": "115-120 °C @ Press: 5 x 10<sup>-3</sup> Torr",
        "Melting Point": "70.5-71.0 °C"
    }
}