{
    "cas_no": "1005-38-5",
    "key_name": "6-Chloro-2-(methylthio)pyrimidin-4-amine",
    "cn_name": "4-氨基-6-氯-2-甲硫基嘧啶;",
    "alternate_name": "4-Pyrimidinamine, 6-chloro-2-(methylthio)-;Pyrimidine, 4-amino-6-chloro-2-(methylthio)-;6-Chloro-2-(methylthio)-4-pyrimidinamine;U 8342;4-Amino-6-chloro-2-methylthiopyrimidine;4-Amino-6-chloro-2-methylsulfanylpyrimidine;NSC 19859;6-Chloro-2-methylthiopyrimidin-4-ylamine;6-Chloro-2-(methylthio)pyrimidin-4-amine;(6-Chloro-2-methylsulfanylpyrimidin-4-yl)amine;6-Amino-4-chloro-2-(methylsulfanyl)pyrimidine;6-Chloro-2-methylsulfanyl-pyrimidin-4-amine",
    "duplicated_cas_no": "",
    "SMILES": "S(C)C=1N=C(Cl)C=C(N)N1",
    "meta_data": {
        "InChI": "InChI=1S/C5H6ClN3S/c1-10-5-8-3(6)2-4(7)9-5/h2H,1H3,(H2,7,8,9)",
        "InChIKey": null,
        "Canonical SMILES": "ClC=1N=C(N=C(N)C1)SC",
        "Molecular Formula": "C<sub>5</sub>H<sub>6</sub>ClN<sub>3</sub>S",
        "Molecular Mass": "175.64",
        "Melting Point": "126-127 °C"
    }
}