{
    "cas_no": "3055-98-9",
    "key_name": "C<sub>12</sub>E<sub>8</sub>",
    "cn_name": null,
    "alternate_name": "3,6,9,12,15,18,21,24-Octaoxahexatriacontan-1-ol;Dodecyl octaethylene glycol ether;Ethanol, 2-[2-[2-[2-[2-[2-[2-[2-(dodecyloxy)ethoxy]ethoxy]ethoxy]ethoxy]ethoxy]ethoxy]ethoxy]-;Octaoxyethylene glycol monododecyl ether;Octaethylene glycol monododecyl ether;Octaoxyethylene dodecyl ether;Octaethylene glycol monolauryl ether;<em>n</em>-Dodecyl octaethylene glycol monoether;Dodecyl octaethylene glycol monoether;Octaethylene glycol dodecyl ether;Octaoxyethylene glycol dodecyl ether;Octaoxyethylene monododecyl ether;Octaethylene glycol mono(<em>n</em>-dodecyl)ether;α-Dodecyl-ω-hydroxyoctakis(oxyethylene);C<sub>12</sub>E<sub>8</sub>;C<sub>12</sub>EO<sub>8</sub>;Octa(ethylene oxide) dodecyl ether;Octaethylene glycol lauryl ether;Empilan KBS 8;Anapoe C<sub>12</sub>E<sub>8</sub>;Octaoxyethylene lauryl ether;LAE 8;Slovasol 248;2-[2-[2-[2-[2-[2-[2-(2-Dodecoxyethoxy)ethoxy]ethoxy]ethoxy]ethoxy]ethoxy]ethoxy]ethanol",
    "duplicated_cas_no": "81208-94-8;101226-62-4;2091900-71-7",
    "SMILES": "O(CCOCCOCCCCCCCCCCCC)CCOCCOCCOCCOCCOCCO",
    "meta_data": {
        "InChI": "InChI=1S/C28H58O9/c1-2-3-4-5-6-7-8-9-10-11-13-30-15-17-32-19-21-34-23-25-36-27-28-37-26-24-35-22-20-33-18-16-31-14-12-29/h29H,2-28H2,1H3",
        "InChIKey": null,
        "Canonical SMILES": "OCCOCCOCCOCCOCCOCCOCCOCCOCCCCCCCCCCCC",
        "Molecular Formula": "C<sub>28</sub>H<sub>58</sub>O<sub>9</sub>",
        "Molecular Mass": "538.75",
        "Melting Point": "30.6-30.9 °C"
    }
}