{
    "cas_no": "7779-65-9",
    "key_name": "Isoamyl cinnamate",
    "cn_name": "桂酸异戊酯;肉桂酸异戊酯;",
    "alternate_name": "2-Propenoic acid, 3-phenyl-, 3-methylbutyl ester;Cinnamic acid, isopentyl ester;Isopentyl alcohol, cinnamate;Isoamyl cinnamate",
    "duplicated_cas_no": "",
    "SMILES": "C(=CC(OCCC(C)C)=O)C1=CC=CC=C1",
    "meta_data": {
        "InChI": "InChI=1S/C14H18O2/c1-12(2)10-11-16-14(15)9-8-13-6-4-3-5-7-13/h3-9,12H,10-11H2,1-2H3",
        "InChIKey": null,
        "Canonical SMILES": "O=C(OCCC(C)C)C=CC=1C=CC=CC1",
        "Molecular Formula": "C<sub>14</sub>H<sub>18</sub>O<sub>2</sub>",
        "Molecular Mass": "218.29",
        "Boiling Point": "182-183 °C @ Press: 17 Torr",
        "Density": "0.9988 g/cm³ @ Temp: 20 °C"
    }
}