{
    "cas_no": "1604-11-1",
    "key_name": "Dimethyl methylsuccinate",
    "cn_name": "甲基丁二酸二甲酯;",
    "alternate_name": "Butanedioic acid, 2-methyl-, 1,4-dimethyl ester;Succinic acid, methyl-, dimethyl ester;Butanedioic acid, methyl-, dimethyl ester;Pyrotartaric acid, dimethyl ester;Dimethyl methylsuccinate;Methylsuccinic acid dimethyl ester;Dimethyl 2-methylsuccinate;Dimethyl α-methylsuccinate;(±)-Dimethyl methylsuccinate;Dimethyl (±)-2-methylsuccinate;(Methyl)butanedioic acid dimethyl ester;Dimethyl 2-methylbutane-1,4-dioate;Dimethyl 2-methylbutanedioate",
    "duplicated_cas_no": "21307-96-0;1162674-64-7",
    "SMILES": "C(CC(OC)=O)(C(OC)=O)C",
    "meta_data": {
        "InChI": "InChI=1S/C7H12O4/c1-5(7(9)11-3)4-6(8)10-2/h5H,4H2,1-3H3",
        "InChIKey": null,
        "Canonical SMILES": "O=C(OC)CC(C(=O)OC)C",
        "Molecular Formula": "C<sub>7</sub>H<sub>12</sub>O<sub>4</sub>",
        "Molecular Mass": "160.17",
        "Boiling Point": "196 °C"
    }
}