{
    "cas_no": "87808-49-9",
    "key_name": "Methyl 2-bromo-4-methylbenzoate",
    "cn_name": "2-溴-4-甲基苯甲酸甲酯;",
    "alternate_name": "Benzoic acid, 2-bromo-4-methyl-, methyl ester;Methyl 2-bromo-4-methylbenzoate;2-Bromo-4-methylbenzoic acid methyl ester",
    "duplicated_cas_no": "",
    "SMILES": "C(OC)(=O)C1=C(Br)C=C(C)C=C1",
    "meta_data": {
        "InChI": "InChI=1S/C9H9BrO2/c1-6-3-4-7(8(10)5-6)9(11)12-2/h3-5H,1-2H3",
        "InChIKey": null,
        "Canonical SMILES": "O=C(OC)C1=CC=C(C=C1Br)C",
        "Molecular Formula": "C<sub>9</sub>H<sub>9</sub>BrO<sub>2</sub>",
        "Molecular Mass": "229.07",
        "Boiling Point": "161-164 °C @ Press: 32 Torr"
    }
}