{
    "cas_no": "24796-94-9",
    "key_name": "Phenoxazin-5-ium, 3,7-bis(diethylamino)-, perchlorate (1:1)",
    "cn_name": "恶嗪-1;",
    "alternate_name": "Phenoxazin-5-ium, 3,7-bis(diethylamino)-, perchlorate (1:1);Phenoxazin-5-ium, 3,7-bis(diethylamino)-, perchlorate;Oxazine 1 perchlorate;7-(Diethylamino)-3-(ethylimino)-3<em>H</em>-phenoxazine ethoperchlorate;Oxazine 725P;Oxazine 725;Oxazine I;OX 725",
    "duplicated_cas_no": "134556-72-2;25489-52-5;54576-80-6;75634-70-7;217457-25-5",
    "SMILES": "N(CC)(CC)C1=CC2=C(N=C3C(=[O+]2)C=C(N(CC)CC)C=C3)C=C1.Cl(=O)(=O)(=O)[O-]",
    "meta_data": {
        "InChI": "InChI=1S/C20H26N3O.ClHO4/c1-5-22(6-2)15-9-11-17-19(13-15)24-20-14-16(23(7-3)8-4)10-12-18(20)21-17;2-1(3,4)5/h9-14H,5-8H2,1-4H3;(H,2,3,4,5)/q+1;/p-1",
        "InChIKey": null,
        "Canonical SMILES": "O=Cl(=O)(=O)[O-].N=1C2=CC=C(C=C2[O+]=C3C=C(C=CC13)N(CC)CC)N(CC)CC",
        "Molecular Formula": "C<sub>20</sub>H<sub>26</sub>N<sub>3</sub>O.ClO<sub>4</sub>",
        "Molecular Mass": "",
        "Melting Point": "228-230 °C"
    }
}