{
    "cas_no": "106-63-8",
    "key_name": "Isobutyl acrylate",
    "cn_name": "丙烯酸异丁酯;",
    "alternate_name": "2-Propenoic acid, 2-methylpropyl ester;Acrylic acid, isobutyl ester;Isobutyl acrylate;Isobutyl 2-propenoate;NSC 20949;Light Acrylate AIB;IBA;2-Methylpropyl prop-2-enoate;HCA 101 (acrylate);HCA 101",
    "duplicated_cas_no": "1401517-00-7;2056117-89-4",
    "SMILES": "C(OCC(C)C)(C=C)=O",
    "meta_data": {
        "InChI": "InChI=1S/C7H12O2/c1-4-7(8)9-5-6(2)3/h4,6H,1,5H2,2-3H3",
        "InChIKey": null,
        "Canonical SMILES": "O=C(OCC(C)C)C=C",
        "Molecular Formula": "C<sub>7</sub>H<sub>12</sub>O<sub>2</sub>",
        "Molecular Mass": "128.17",
        "Boiling Point": "132 °C",
        "Melting Point": "-61 °C",
        "Density": "0.8498 g/cm³ @ Temp: 22 °C"
    }
}