{
    "cas_no": "86-22-6",
    "key_name": "(±)-Brompheniramine",
    "cn_name": "溴苯那敏;3-(4-溴苯基)-N,N-二甲基-3-吡啶-2-基-1-丙胺;",
    "alternate_name": "2-Pyridinepropanamine, γ-(4-bromophenyl)-<em>N</em>,<em>N</em>-dimethyl-;Pyridine, 2-[<em>p</em>-bromo-α-[2-(dimethylamino)ethyl]benzyl]-;γ-(4-Bromophenyl)-<em>N</em>,<em>N</em>-dimethyl-2-pyridinepropanamine;2-[<em>p</em>-Bromo-α-(2-dimethylaminoethyl)benzyl]pyridine;1-(<em>p</em>-Bromophenyl)-1-(2-pyridyl)-3-dimethylaminopropane;3-(<em>p</em>-Bromophenyl)-3-(2-pyridyl)-<em>N</em>,<em>N</em>-dimethylpropylamine;Brompheniramine;Parabromdylamine;Bromopheniramine;Parabromodylamine;(±)-Brompheniramine;Bromphen;[3-(4-Bromo-phenyl)-3-pyridin-2-yl-propyl]-dimethyl-amine;MeSH ID: D001977",
    "duplicated_cas_no": "32188-07-1;156428-33-0",
    "SMILES": "C(CCN(C)C)(C1=CC=C(Br)C=C1)C2=CC=CC=N2",
    "meta_data": {
        "InChI": "InChI=1S/C16H19BrN2/c1-19(2)12-10-15(16-5-3-4-11-18-16)13-6-8-14(17)9-7-13/h3-9,11,15H,10,12H2,1-2H3",
        "InChIKey": null,
        "Canonical SMILES": "BrC1=CC=C(C=C1)C(C2=NC=CC=C2)CCN(C)C",
        "Molecular Formula": "C<sub>16</sub>H<sub>19</sub>BrN<sub>2</sub>",
        "Molecular Mass": "319.24",
        "Boiling Point": "147-152 °C @ Press: 0.5 Torr",
        "Melting Point": "&lt;25 °C"
    }
}