{
    "cas_no": "100-57-2",
    "key_name": "Phenylmercuric hydroxide",
    "cn_name": "苯基氢氧化汞;苯基氢氧化汞;",
    "alternate_name": "Mercury, hydroxyphenyl-;Phenylmercury hydroxide;Hydroxyphenylmercury;Mersolite 1;Phenyl hydroxymercury;Phenylmercuric hydroxide;NSC 4773;Phenylmercury (II) hydroxide",
    "duplicated_cas_no": "",
    "SMILES": "[Hg](O)C1=CC=CC=C1",
    "meta_data": {
        "InChI": "InChI=1S/C6H5.Hg.H2O/c1-2-4-6-5-3-1;;/h1-5H;;1H2/q;+1;/p-1",
        "InChIKey": null,
        "Canonical SMILES": "O[Hg]C=1C=CC=CC1",
        "Molecular Formula": "C<sub>6</sub>H<sub>6</sub>HgO",
        "Molecular Mass": "",
        "Melting Point": "190 °C (decomp)"
    }
}