{
    "cas_no": "5457-44-3",
    "key_name": "Hexanedioic acid, 3-oxo-, 1,6-dimethyl ester",
    "cn_name": "3-氧己二酸二甲酯;3-氧己二酸二甲酯;",
    "alternate_name": "Hexanedioic acid, 3-oxo-, 1,6-dimethyl ester;Hexanedioic acid, 3-oxo-, dimethyl ester;Dimethyl 3-oxohexanedioate;Dimethyl 3-oxoadipate;Dimethyl β-ketoadipate;NSC 24878;3-Oxoadipic acid dimethyl ester;1,6-Dimethyl 3-oxohexanedioate;3-Ketohexanedioic acid dimethyl ester",
    "duplicated_cas_no": "",
    "SMILES": "C(C(CCC(OC)=O)=O)C(OC)=O",
    "meta_data": {
        "InChI": "InChI=1S/C8H12O5/c1-12-7(10)4-3-6(9)5-8(11)13-2/h3-5H2,1-2H3",
        "InChIKey": null,
        "Canonical SMILES": "O=C(OC)CC(=O)CCC(=O)OC",
        "Molecular Formula": "C<sub>8</sub>H<sub>12</sub>O<sub>5</sub>",
        "Molecular Mass": "188.18",
        "Boiling Point": "122 °C @ Press: 0.5 Torr"
    }
}