{
    "cas_no": "5843-65-2",
    "key_name": "Higenamine",
    "cn_name": null,
    "alternate_name": "6,7-Isoquinolinediol, 1,2,3,4-tetrahydro-1-[(4-hydroxyphenyl)methyl]-;Coclaurine, <em>O</em>-demethyl-, (±)-;6,7-Isoquinolinediol, 1,2,3,4-tetrahydro-1-[(4-hydroxyphenyl)methyl]-, (±)-;1,2,3,4-Tetrahydro-1-[(4-hydroxyphenyl)methyl]-6,7-isoquinolinediol;(±)-Norcoclaurine;Higenamine;<em>dl</em>-Demethylcoclaurine;(±)-<em>O</em>-Demethylcoclaurine;(±)-Demethylcoclaurine;(<em>RS</em>)-Norcoclaurine;1-[(4-Hydroxyphenyl)methyl]-1,2,3,4-tetrahydroisoquinoline-6,7-diol;Demethylcoclaurine",
    "duplicated_cas_no": "17072-47-8",
    "SMILES": "C(C1C=2C(=CC(O)=C(O)C2)CCN1)C3=CC=C(O)C=C3",
    "meta_data": {
        "InChI": "InChI=1S/C16H17NO3/c18-12-3-1-10(2-4-12)7-14-13-9-16(20)15(19)8-11(13)5-6-17-14/h1-4,8-9,14,17-20H,5-7H2",
        "InChIKey": null,
        "Canonical SMILES": "OC1=CC=C(C=C1)CC2NCCC3=CC(O)=C(O)C=C32",
        "Molecular Formula": "C<sub>16</sub>H<sub>17</sub>NO<sub>3</sub>",
        "Molecular Mass": "271.31",
        "Melting Point": "208-210 °C"
    }
}