{
    "cas_no": "5292-43-3",
    "key_name": "<em>tert</em>-Butyl bromoacetate",
    "cn_name": "溴乙酸叔丁酯;",
    "alternate_name": "Acetic acid, 2-bromo-, 1,1-dimethylethyl ester;Acetic acid, bromo-, <em>tert</em>-butyl ester;Acetic acid, bromo-, 1,1-dimethylethyl ester;<em>tert</em>-Butyl bromoacetate;<em>tert</em>-Butyl α-bromoacetate;1,1-Dimethylethyl bromoacetate;1,1-Dimethylethyl monobromoacetate;Bromoacetic acid <em>tert</em>-butyl ester;<em>tert</em>-Butyl 2-bromoacetate;1,1-Dimethylethyl 2-bromoacetate;NSC 82470;Bromoacetic acid 1,1-dimethylethyl ester;2-Bromoacetic acid tert-butyl ester;t-Butyl bromoacetate;<em>tert</em>-Butyl 2-bromoethanoate",
    "duplicated_cas_no": "2676972-35-1",
    "SMILES": "O(C(C)(C)C)C(CBr)=O",
    "meta_data": {
        "InChI": "InChI=1S/C6H11BrO2/c1-6(2,3)9-5(8)4-7/h4H2,1-3H3",
        "InChIKey": null,
        "Canonical SMILES": "O=C(OC(C)(C)C)CBr",
        "Molecular Formula": "C<sub>6</sub>H<sub>11</sub>BrO<sub>2</sub>",
        "Molecular Mass": "195.05",
        "Boiling Point": "50 °C @ Press: 10 Torr",
        "Melting Point": "44-47 °C"
    }
}