{
    "cas_no": "5100-34-5",
    "key_name": "Propanoic acid, 3-isocyanato-, ethyl ester",
    "cn_name": "3-异氰酰丙酸乙酯;乙基3-丙烯酸酯;3-异氰酰丙酸乙酯;3-异氰酰丙酸乙酯,98%;",
    "alternate_name": "Propanoic acid, 3-isocyanato-, ethyl ester;Propionic acid, 3-isocyanato-, ethyl ester;Ethyl 3-isocyanatopropanoate;Ethyl 3-isocyanatopropionate;3-Isocyanatopropanoic acid ethyl ester;3-Isocyanato-propionic acid ethyl ester",
    "duplicated_cas_no": "1025436-15-0",
    "SMILES": "C(C(OCC)=O)CN=C=O",
    "meta_data": {
        "InChI": "InChI=1S/C6H9NO3/c1-2-10-6(9)3-4-7-5-8/h2-4H2,1H3",
        "InChIKey": null,
        "Canonical SMILES": "O=C=NCCC(=O)OCC",
        "Molecular Formula": "C<sub>6</sub>H<sub>9</sub>NO<sub>3</sub>",
        "Molecular Mass": "143.14",
        "Boiling Point": "94-95 °C @ Press: 20 Torr"
    }
}