{
    "cas_no": "23964-58-1",
    "key_name": "Articaine",
    "cn_name": "阿替卡因;4-甲基-3-[[1-氧代-2-(丙氨基)丙基]氨基]-2-噻吩羧酸甲酯;",
    "alternate_name": "2-Thiophenecarboxylic acid, 4-methyl-3-[[1-oxo-2-(propylamino)propyl]amino]-, methyl ester;2-Thiophenecarboxylic acid, 4-methyl-3-[2-(propylamino)propionamido]-, methyl ester;Carticaine;Articaine",
    "duplicated_cas_no": "161449-10-1",
    "SMILES": "N(C(C(NCCC)C)=O)C1=C(C(OC)=O)SC=C1C",
    "meta_data": {
        "InChI": "InChI=1S/C13H20N2O3S/c1-5-6-14-9(3)12(16)15-10-8(2)7-19-11(10)13(17)18-4/h7,9,14H,5-6H2,1-4H3,(H,15,16)",
        "InChIKey": null,
        "Canonical SMILES": "O=C(OC)C=1SC=C(C1NC(=O)C(NCCC)C)C",
        "Molecular Formula": "C<sub>13</sub>H<sub>20</sub>N<sub>2</sub>O<sub>3</sub>S",
        "Molecular Mass": "284.37",
        "Boiling Point": "162-167 °C @ Press: 0.3 Torr",
        "Melting Point": "175-176 °C"
    }
}