{
    "cas_no": "4542-57-8",
    "key_name": "Dodecyl ether",
    "cn_name": null,
    "alternate_name": "Dodecane, 1,1′-oxybis-;Dodecyl ether;1,1′-Oxybis[dodecane];Didodecyl ether;Dilauryl ether;NSC 6816;Nacol Ether 12;1-Dodecoxydodecane",
    "duplicated_cas_no": "",
    "SMILES": "O(CCCCCCCCCCCC)CCCCCCCCCCCC",
    "meta_data": {
        "InChI": "InChI=1S/C24H50O/c1-3-5-7-9-11-13-15-17-19-21-23-25-24-22-20-18-16-14-12-10-8-6-4-2/h3-24H2,1-2H3",
        "InChIKey": null,
        "Canonical SMILES": "O(CCCCCCCCCCCC)CCCCCCCCCCCC",
        "Molecular Formula": "C<sub>24</sub>H<sub>50</sub>O",
        "Molecular Mass": "354.65",
        "Melting Point": "32-33 °C",
        "Density": "0.8107 g/cm³ @ Temp: 36 °C"
    }
}