{
    "cas_no": "450-83-9",
    "key_name": "4-Fluoro-2-methoxybenzaldehyde",
    "cn_name": "4-氟-2-甲氧基苯甲醛;",
    "alternate_name": "Benzaldehyde, 4-fluoro-2-methoxy-;4-Fluoro-2-methoxybenzaldehyde",
    "duplicated_cas_no": "",
    "SMILES": "C(=O)C1=C(OC)C=C(F)C=C1",
    "meta_data": {
        "InChI": "InChI=1S/C8H7FO2/c1-11-8-4-7(9)3-2-6(8)5-10/h2-5H,1H3",
        "InChIKey": null,
        "Canonical SMILES": "O=CC1=CC=C(F)C=C1OC",
        "Molecular Formula": "C<sub>8</sub>H<sub>7</sub>FO<sub>2</sub>",
        "Molecular Mass": "154.14",
        "Melting Point": "53 °C"
    }
}