{
    "cas_no": "926-66-9",
    "key_name": "2-Ethoxy-1-propene",
    "cn_name": "2-乙氧基丙烯;",
    "alternate_name": "1-Propene, 2-ethoxy-;Ether, ethyl isopropenyl;2-Ethoxy-1-propene;Ethyl 1-methylvinyl ether;Ethyl isopropenyl ether;2-Ethoxypropene;Isopropenyl ethyl ether",
    "duplicated_cas_no": "",
    "SMILES": "O(C(C)=C)CC",
    "meta_data": {
        "InChI": "InChI=1S/C5H10O/c1-4-6-5(2)3/h2,4H2,1,3H3",
        "InChIKey": null,
        "Canonical SMILES": "O(C(=C)C)CC",
        "Molecular Formula": "C<sub>5</sub>H<sub>10</sub>O",
        "Molecular Mass": "86.13",
        "Boiling Point": "61.2-61.8 °C @ Press: 760 Torr",
        "Density": "0.7713 g/cm³ @ Temp: 20 °C"
    }
}