{
    "cas_no": "7790-98-9",
    "key_name": "Ammonium perchlorate",
    "cn_name": "高氯酸铵;过氯酸铵；高氯酸铵;",
    "alternate_name": "Perchloric acid, ammonium salt (1:1);Perchloric acid, ammonium salt;Ammonium perchlorate;Ammonium perchlorate (NH<sub>4</sub>ClO<sub>4</sub>);PKhA;NK 270;Arcite 322;Arcite 155;Arcadene 426;HT 398;Dyno AP;PChA;AP;Arcadene 451",
    "duplicated_cas_no": "13777-04-3;19166-97-3;28499-39-0;53026-82-7;87110-01-8;642089-67-6;222532-79-8;1124383-17-0",
    "SMILES": "Cl(=O)(=O)(=O)O.N",
    "meta_data": {
        "InChI": "InChI=1S/ClHO4.H3N/c2-1(3,4)5;/h(H,2,3,4,5);1H3",
        "InChIKey": null,
        "Canonical SMILES": "O=Cl(=O)(=O)O.N",
        "Molecular Formula": "ClHO<sub>4</sub>.H<sub>3</sub>N",
        "Molecular Mass": "",
        "Melting Point": "&gt;300 °C",
        "Density": "1.95 g/cm³"
    }
}