{
    "cas_no": "3425-61-4",
    "key_name": "<em>tert</em>-Amyl hydroperoxide",
    "cn_name": "特戊基过氧化氢;",
    "alternate_name": "Hydroperoxide, 1,1-dimethylpropyl;<em>tert</em>-Pentyl hydroperoxide;1,1-Dimethylpropyl hydroperoxide;<em>tert</em>-Amyl hydroperoxide;2-Ethyl-2-propyl hydroperoxide;<em>t</em>-Amyl hydroperoxide;Trigonox TAHP;<em>tert</em>-Amyl hydrogen peroxide;TAH 85;Luperox TAH;Luperox TAH 85;Luperox TAHP;Peroxan AHP;2-Hydroperoxy-2-methylbutane",
    "duplicated_cas_no": "",
    "SMILES": "C(CC)(OO)(C)C",
    "meta_data": {
        "InChI": "InChI=1S/C5H12O2/c1-4-5(2,3)7-6/h6H,4H2,1-3H3",
        "InChIKey": null,
        "Canonical SMILES": "OOC(C)(C)CC",
        "Molecular Formula": "C<sub>5</sub>H<sub>12</sub>O<sub>2</sub>",
        "Molecular Mass": "104.15",
        "Boiling Point": "26 °C @ Press: 3.5 Torr",
        "Density": "0.903 g/cm³"
    }
}