{
    "cas_no": "6935-27-9",
    "key_name": "2-(Benzylamino)pyridine",
    "cn_name": "2-苄氨基吡啶;2-苯甲基氨基吡啶;",
    "alternate_name": "2-Pyridinamine, <em>N</em>-(phenylmethyl)-;Pyridine, 2-(benzylamino)-;<em>N</em>-(Phenylmethyl)-2-pyridinamine;2-(Benzylamino)pyridine;<em>N</em>-Benzyl-2-pyridinamine;<em>N</em>-Benzyl-2-aminopyridine;NSC 59833;<em>N</em>-Benzylpyridine-2-amine;Benzyl(2-pyridyl)amine;1(2<em>H</em>)-Pyridinamine, <em>N</em>-(phenylmethyl)-",
    "duplicated_cas_no": "2743473-61-0",
    "SMILES": "C(NC1=CC=CC=N1)C2=CC=CC=C2",
    "meta_data": {
        "InChI": "InChI=1S/C12H12N2/c1-2-6-11(7-3-1)10-14-12-8-4-5-9-13-12/h1-9H,10H2,(H,13,14)",
        "InChIKey": null,
        "Canonical SMILES": "N=1C=CC=CC1NCC=2C=CC=CC2",
        "Molecular Formula": "C<sub>12</sub>H<sub>12</sub>N<sub>2</sub>",
        "Molecular Mass": "184.24",
        "Boiling Point": "147-150 °C @ Press: 2.5 Torr",
        "Melting Point": "93-94 °C"
    }
}