{
    "cas_no": "633-03-4",
    "key_name": "Brilliant Green",
    "cn_name": "碱性绿1;碱性艳绿;亮绿;N-[4-[(4-二乙氨基)苯基]苯基亚甲基]-2,5-环己二烯-1-基亚基-N-乙基乙铵硫酸盐;",
    "alternate_name": "Ethanaminium, <em>N</em>-[4-[[4-(diethylamino)phenyl]phenylmethylene]-2,5-cyclohexadien-1-ylidene]-<em>N</em>-ethyl-, sulfate (1:1);C.I. Basic Green 1;12415 Green;C.I. 42040;ADC Brilliant Green Crystals;Aizen Diamond Green GH;Astra Diamond Green GX;Avon Green A 4379;Basic Green V;Brilliant Green BPC;Brilliant Green BP Crystals;Brilliant Green B;Brilliant Green G;Brilliant Green P;Brilliant Green Y;Brilliant Green Crystals;Brilliant Green Crystals H;Brilliant Green DSC;Brilliant Green GX;Brilliant Green Lake;Brilliant Green Sulfate;Brilliant Green WP Crystals;Brilliant Green YN;Brilliant Lake Green Y;Calcozine Brilliant Green G;Deorlene Green JJO;Diamond Green G;Ethyl green;Fast Green J;Fast Green JJO;Green EN;Hidaco Brilliant Green;Malachite Green G;Mitsui Brilliant Green GX;Solid Green;Tertrophene Brilliant Green G;Tokyo Aniline Brilliant Green;Brilliant Green Special;Brilliant Green;Brilliant Green YNS;Basic Brilliant Green;Brilliant green aseptic;Basic Bright Green Sulfate;Aizen Malachite Green GH;Basic Bright Green;Basic Green 1;Astrazon Green D;Brilliant Green BP;Resplendency Green;NSC 5011;Diamond Green GH;Fluka Brilliant Green",
    "duplicated_cas_no": "98712-72-2;56730-57-5;70165-37-6;820975-89-1;1051370-53-6",
    "SMILES": "C(C1=CC=C(N(CC)CC)C=C1)(=C2C=CC(=[N+](CC)CC)C=C2)C3=CC=CC=C3.S(=O)(=O)([O-])O",
    "meta_data": {
        "InChI": "InChI=1S/C27H33N2.H2O4S/c1-5-28(6-2)25-18-14-23(15-19-25)27(22-12-10-9-11-13-22)24-16-20-26(21-17-24)29(7-3)8-4;1-5(2,3)4/h9-21H,5-8H2,1-4H3;(H2,1,2,3,4)/q+1;/p-1",
        "InChIKey": null,
        "Canonical SMILES": "O=S(=O)([O-])O.C=1C=CC(=CC1)C(C2=CC=C(C=C2)N(CC)CC)=C3C=CC(C=C3)=[N+](CC)CC",
        "Molecular Formula": "C<sub>27</sub>H<sub>33</sub>N<sub>2</sub>.HO<sub>4</sub>S",
        "Molecular Mass": "",
        "Melting Point": "210 °C (decomp)"
    }
}