{
    "cas_no": "1054-88-2",
    "key_name": "Spiroxatrine",
    "cn_name": "三氮螺癸苯噁烷;三氮螺癸苯恶烷;螺沙群;",
    "alternate_name": "1,3,8-Triazaspiro[4.5]decan-4-one, 8-[(2,3-dihydro-1,4-benzodioxin-2-yl)methyl]-1-phenyl-;1,3,8-Triazaspiro[4.5]decan-4-one, 8-(1,4-benzodioxan-2-ylmethyl)-1-phenyl-;1,4-Benzodioxin, 1,3,8-triazaspiro[4.5]decan-4-one deriv.;8-[(2,3-Dihydro-1,4-benzodioxin-2-yl)methyl]-1-phenyl-1,3,8-triazaspiro[4.5]decan-4-one;8-(1,4-Benzodioxan-2-ylmethyl)-1-phenyl-1,3,8-triazaspiro[4.5]decan-4-one;Spiroxatrine;R 5188",
    "duplicated_cas_no": "132603-40-8",
    "SMILES": "O=C1C2(N(CN1)C3=CC=CC=C3)CCN(CC4OC=5C(OC4)=CC=CC5)CC2",
    "meta_data": {
        "InChI": "InChI=1S/C22H25N3O3/c26-21-22(25(16-23-21)17-6-2-1-3-7-17)10-12-24(13-11-22)14-18-15-27-19-8-4-5-9-20(19)28-18/h1-9,18H,10-16H2,(H,23,26)",
        "InChIKey": null,
        "Canonical SMILES": "O=C1NCN(C=2C=CC=CC2)C13CCN(CC3)CC4OC=5C=CC=CC5OC4",
        "Molecular Formula": "C<sub>22</sub>H<sub>25</sub>N<sub>3</sub>O<sub>3</sub>",
        "Molecular Mass": "379.45",
        "Melting Point": "215.8-218.0 °C"
    }
}