{
    "cas_no": "688-84-6",
    "key_name": "Ethylhexyl methacrylate",
    "cn_name": "甲基丙烯酸2-乙基己酯;",
    "alternate_name": "2-Propenoic acid, 2-methyl-, 2-ethylhexyl ester;Methacrylic acid, 2-ethylhexyl ester;1-Hexanol, 2-ethyl-, methacrylate;2-Ethylhexyl methacrylate;NSC 24173;NSC 32647;H 22 (methacrylate);H 22;Acryester EH;Blemmer EHMA 25;Light Ester EH;Ethylhexyl methacrylate;Visiomer EHMA;Light Ester 2EH",
    "duplicated_cas_no": "100242-87-3;118955-12-7;64125-64-0;75577-75-2;94290-92-3;153286-32-9",
    "SMILES": "C(COC(C(C)=C)=O)(CCCC)CC",
    "meta_data": {
        "InChI": "InChI=1S/C12H22O2/c1-5-7-8-11(6-2)9-14-12(13)10(3)4/h11H,3,5-9H2,1-2,4H3",
        "InChIKey": null,
        "Canonical SMILES": "O=C(OCC(CC)CCCC)C(=C)C",
        "Molecular Formula": "C<sub>12</sub>H<sub>22</sub>O<sub>2</sub>",
        "Molecular Mass": "198.30",
        "Boiling Point": "110 °C @ Press: 14 Torr",
        "Density": "0.880 g/cm³ @ Temp: 25 °C"
    }
}