{
    "cas_no": "2374-05-2",
    "key_name": "4-Bromo-2,6-dimethylphenol",
    "cn_name": "4-溴-2,6-二甲基苯酚;",
    "alternate_name": "Phenol, 4-bromo-2,6-dimethyl-;2,6-Xylenol, 4-bromo-;4-Bromo-2,6-dimethylphenol;4-Bromo-2,6-xylenol;2,6-Dimethyl-4-bromophenol;NSC 63922",
    "duplicated_cas_no": "",
    "SMILES": "OC1=C(C)C=C(Br)C=C1C",
    "meta_data": {
        "InChI": "InChI=1S/C8H9BrO/c1-5-3-7(9)4-6(2)8(5)10/h3-4,10H,1-2H3",
        "InChIKey": null,
        "Canonical SMILES": "BrC=1C=C(C(O)=C(C1)C)C",
        "Molecular Formula": "C<sub>8</sub>H<sub>9</sub>BrO",
        "Molecular Mass": "201.06",
        "Melting Point": "79.5 °C"
    }
}