{
    "cas_no": "1449-09-8",
    "key_name": "24-Methylenecycloartanol",
    "cn_name": null,
    "alternate_name": "9,19-Cyclolanostan-3-ol, 24-methylene-, (3β)-;9,19-Cyclo-9β-lanostan-3β-ol, 24-methylene-;Cycloartanol, 24-methylene-;1<em>H</em>,19<em>H</em>-Cyclopropa[9,10]cyclopenta[<em>a</em>]phenanthrene, 9,19-cyclolanostan-3-ol deriv.;(3β)-24-Methylene-9,19-cyclolanostan-3-ol;24-Methylene-9,19-cyclolanostan-3β-ol;9,19-Cyclo-24-methylenelanostan-3β-ol;24-Methylenecycloartanol;24-Methylenecycloartan-3β-ol;24(28)-Methylenecycloartanol;3β-Hydroxy-24-methylenecycloartane;24-Methylencycloartan-3β-ol;24-Methylidenecycloartanol",
    "duplicated_cas_no": "84474-37-3;93129-99-8;96018-97-2;109007-54-7;117654-05-4;861404-89-9",
    "SMILES": "C[C@]12[C@]3([C@]4([C@]5(C4)[C@](C(C)(C)[C@@H](O)CC5)(CC3)[H])CC[C@]1(C)[C@@]([C@@H](CCC(C(C)C)=C)C)(CC2)[H])[H]",
    "meta_data": {
        "InChI": "InChI=1S/C31H52O/c1-20(2)21(3)9-10-22(4)23-13-15-29(8)25-12-11-24-27(5,6)26(32)14-16-30(24)19-31(25,30)18-17-28(23,29)7/h20,22-26,32H,3,9-19H2,1-2,4-8H3/t22-,23-,24+,25+,26+,28-,29+,30-,31+/m1/s1",
        "InChIKey": null,
        "Canonical SMILES": "OC1CCC23CC43CCC5(C)C(CCC5(C)C4CCC2C1(C)C)C(C)CCC(=C)C(C)C",
        "Molecular Formula": "C<sub>31</sub>H<sub>52</sub>O",
        "Molecular Mass": "440.74",
        "Melting Point": "121-122 °C"
    }
}