{
    "cas_no": "16078-71-0",
    "key_name": "1<em>H</em>-Pyrazole-4-carboxylic acid, 5-amino-1-phenyl-, ethyl ester",
    "cn_name": null,
    "alternate_name": "1<em>H</em>-Pyrazole-4-carboxylic acid, 5-amino-1-phenyl-, ethyl ester;Pyrazole-4-carboxylic acid, 5-amino-1-phenyl-, ethyl ester;Ethyl 5-amino-1-phenyl-4-pyrazolecarboxylate;5-Amino-4-ethoxycarbonyl-1-phenylpyrazole;Ethyl 5-amino-1-phenyl-1<em>H</em>-pyrazole-4-carboxylate;NSC 221275;NSC 75788;5-Amino-1-phenyl-1<em>H</em>-pyrazole-4-carboxylic acid ethyl ester",
    "duplicated_cas_no": "",
    "SMILES": "NC=1N(N=CC1C(OCC)=O)C2=CC=CC=C2",
    "meta_data": {
        "InChI": "InChI=1S/C12H13N3O2/c1-2-17-12(16)10-8-14-15(11(10)13)9-6-4-3-5-7-9/h3-8H,2,13H2,1H3",
        "InChIKey": null,
        "Canonical SMILES": "O=C(OCC)C=1C=NN(C=2C=CC=CC2)C1N",
        "Molecular Formula": "C<sub>12</sub>H<sub>13</sub>N<sub>3</sub>O<sub>2</sub>",
        "Molecular Mass": "231.25",
        "Melting Point": "103-105 °C"
    }
}