{
    "cas_no": "14813-01-5",
    "key_name": "1-Benzyl-3-hydroxypiperidine",
    "cn_name": "1-苄基-3-哌啶醇;1-苄基-3-羟基哌啶;",
    "alternate_name": "3-Piperidinol, 1-(phenylmethyl)-;3-Piperidinol, 1-benzyl-;1-(Phenylmethyl)-3-piperidinol;1-Benzyl-3-piperidinol;3-Hydroxy-<em>N</em>-benzylpiperidine;1-Benzyl-3-hydroxypiperidine;NSC 111182;<em>N</em>-Benzyl-3-piperidinol;<em>N</em>-Benzyl-3-hydroxypiperidine",
    "duplicated_cas_no": "121157-14-0",
    "SMILES": "C(N1CC(O)CCC1)C2=CC=CC=C2",
    "meta_data": {
        "InChI": "InChI=1S/C12H17NO/c14-12-7-4-8-13(10-12)9-11-5-2-1-3-6-11/h1-3,5-6,12,14H,4,7-10H2",
        "InChIKey": null,
        "Canonical SMILES": "OC1CN(CC=2C=CC=CC2)CCC1",
        "Molecular Formula": "C<sub>12</sub>H<sub>17</sub>NO",
        "Molecular Mass": "191.27",
        "Boiling Point": "103-104 °C @ Press: 0.1 Torr"
    }
}