{
    "cas_no": "65002-17-7",
    "key_name": "Bucillamine",
    "cn_name": "布西拉明;布昔洛韦;N-(2-巯基-2-甲基丙酰基)-L-半胱氨酸;",
    "alternate_name": "<span class=\"text-smallcaps\">L</span>-Cysteine, <em>N</em>-(2-mercapto-2-methyl-1-oxopropyl)-;<em>N</em>-(2-Mercapto-2-methyl-1-oxopropyl)-<span class=\"text-smallcaps\">L</span>-cysteine;SA 96;<em>N</em>-(2-Mercapto-2-methylpropanoyl)-<span class=\"text-smallcaps\">L</span>-cysteine;<em>N</em>-(2-Mercapto-2-methylpropionyl)-<span class=\"text-smallcaps\">L</span>-cysteine;Thiobutarit;<em>N</em>-(2-Mercaptoisobutyryl)cysteine;Bucillamine;Tiobutarit;Rimatil;DE 019;(2R)-2-(2-Methyl-2-sulfanylpropanamido)-3-sulfanylpropanoic acid;(R)-3-Mercapto-2-(2-mercapto-2-methylpropanamido)propanoic acid",
    "duplicated_cas_no": "",
    "SMILES": "[C@@H](NC(C(C)(C)S)=O)(C(O)=O)CS",
    "meta_data": {
        "InChI": "InChI=1S/C7H13NO3S2/c1-7(2,13)6(11)8-4(3-12)5(9)10/h4,12-13H,3H2,1-2H3,(H,8,11)(H,9,10)/t4-/m0/s1",
        "InChIKey": null,
        "Canonical SMILES": "O=C(O)C(NC(=O)C(S)(C)C)CS",
        "Molecular Formula": "C<sub>7</sub>H<sub>13</sub>NO<sub>3</sub>S<sub>2</sub>",
        "Molecular Mass": "223.31",
        "Melting Point": "139-140 °C"
    }
}