{
    "cas_no": "2035-99-6",
    "key_name": "Isoamyl octanoate",
    "cn_name": "辛酸3-甲基丁酯;",
    "alternate_name": "Octanoic acid, 3-methylbutyl ester;Octanoic acid, isopentyl ester;Isopentyl alcohol, octanoate;Isoamyl caprylate;Isoamyl octanoate;Isopentyl octanoate;3-Methylbutyl octanoate",
    "duplicated_cas_no": "",
    "SMILES": "O(C(CCCCCCC)=O)CCC(C)C",
    "meta_data": {
        "InChI": "InChI=1S/C13H26O2/c1-4-5-6-7-8-9-13(14)15-11-10-12(2)3/h12H,4-11H2,1-3H3",
        "InChIKey": null,
        "Canonical SMILES": "O=C(OCCC(C)C)CCCCCCC",
        "Molecular Formula": "C<sub>13</sub>H<sub>26</sub>O<sub>2</sub>",
        "Molecular Mass": "214.34",
        "Boiling Point": "267-268 °C"
    }
}