{
    "cas_no": "64211-46-7",
    "key_name": "Oxiconazole nitrate",
    "cn_name": "硝酸奥昔康唑;(Z)-2\"-(1-咪唑基)-O-(2,4-二氯苄基)-2,4-二氯苯乙酮肟硝酸盐;",
    "alternate_name": "Ethanone, 1-(2,4-dichlorophenyl)-2-(1<em>H</em>-imidazol-1-yl)-, <em>O</em>-[(2,4-dichlorophenyl)methyl]oxime, (1<em>Z</em>)-, mononitrate (1:1);Ethanone, 1-(2,4-dichlorophenyl)-2-(1<em>H</em>-imidazol-1-yl)-, <em>O</em>-[(2,4-dichlorophenyl)methyl]oxime, (<em>Z</em>)-, mononitrate;Ethanone, 1-(2,4-dichlorophenyl)-2-(1<em>H</em>-imidazol-1-yl)-, <em>O</em>-[(2,4-dichlorophenyl)methyl]oxime, (1<em>Z</em>)-, mononitrate;Oxiconazole nitrate;Oxistat;Ro 13-8996;Gyno-Myfungar;Oceral;Sgd 301-76;Myfungar;ST 813;Scorba LX",
    "duplicated_cas_no": "104360-36-3",
    "SMILES": "C(\\CN1C=CN=C1)(=N\\OCC2=C(Cl)C=C(Cl)C=C2)/C3=C(Cl)C=C(Cl)C=C3.N(=O)(=O)O",
    "meta_data": {
        "InChI": "InChI=1S/C18H13Cl4N3O.HNO3/c19-13-2-1-12(16(21)7-13)10-26-24-18(9-25-6-5-23-11-25)15-4-3-14(20)8-17(15)22;2-1(3)4/h1-8,11H,9-10H2;(H,2,3,4)/b24-18+;",
        "InChIKey": null,
        "Canonical SMILES": "O=N(=O)O.ClC1=CC=C(C(Cl)=C1)C(=NOCC2=CC=C(Cl)C=C2Cl)CN3C=NC=C3",
        "Molecular Formula": "C<sub>18</sub>H<sub>13</sub>Cl<sub>4</sub>N<sub>3</sub>O.HNO<sub>3</sub>",
        "Molecular Mass": "",
        "Melting Point": "137-138 °C"
    }
}