{
    "cas_no": "5832-44-0",
    "key_name": "4-Methyl-3-nitropyridine",
    "cn_name": "3-硝基-4-甲基吡啶;4-甲基-3-硝基吡啶;",
    "alternate_name": "Pyridine, 4-methyl-3-nitro-;4-Picoline, 3-nitro-;4-Methyl-3-nitropyridine;3-Nitro-4-picoline",
    "duplicated_cas_no": "",
    "SMILES": "N(=O)(=O)C=1C(C)=CC=NC1",
    "meta_data": {
        "InChI": "InChI=1S/C6H6N2O2/c1-5-2-3-7-4-6(5)8(9)10/h2-4H,1H3",
        "InChIKey": null,
        "Canonical SMILES": "O=N(=O)C=1C=NC=CC1C",
        "Molecular Formula": "C<sub>6</sub>H<sub>6</sub>N<sub>2</sub>O<sub>2</sub>",
        "Molecular Mass": "138.12",
        "Boiling Point": "85 °C @ Press: 3 Torr"
    }
}