{
    "cas_no": "23328-88-3",
    "key_name": "2-Bromo-4-methylimidazole",
    "cn_name": null,
    "alternate_name": "1<em>H</em>-Imidazole, 2-bromo-5-methyl-;Imidazole, 2-bromo-4-methyl-;1<em>H</em>-Imidazole, 2-bromo-4-methyl-;2-Bromo-5-methyl-1<em>H</em>-imidazole;2-Bromo-4-methylimidazole;2-Bromo-4-methyl-1<em>H</em>-imidazole",
    "duplicated_cas_no": "",
    "SMILES": "CC=1NC(Br)=NC1",
    "meta_data": {
        "InChI": "InChI=1S/C4H5BrN2/c1-3-2-6-4(5)7-3/h2H,1H3,(H,6,7)",
        "InChIKey": null,
        "Canonical SMILES": "BrC1=NC=C(N1)C",
        "Molecular Formula": "C<sub>4</sub>H<sub>5</sub>BrN<sub>2</sub>",
        "Molecular Mass": "161.00",
        "Melting Point": "124-125 °C"
    }
}