{
    "cas_no": "19437-20-8",
    "key_name": "2-Phthalimidopropiophenone",
    "cn_name": "alpha-邻苯二甲酰亚氨基苯丙酮;2-(1-甲基-2-氧代-2-苯基乙基)-1H-异吲哚-1,3(2H)-二酮;",
    "alternate_name": "1<em>H</em>-Isoindole-1,3(2<em>H</em>)-dione, 2-(1-methyl-2-oxo-2-phenylethyl)-;Phthalimide, <em>N</em>-(α-methylphenacyl)-;2-(1-Methyl-2-oxo-2-phenylethyl)-1<em>H</em>-isoindole-1,3(2<em>H</em>)-dione;2-Phthalimidopropiophenone;2-(1-Oxo-1-phenylpropan-2-yl)isoindole-1,3-dione;2-(1-Oxo-1-phenylpropan-2-yl)isoindoline-1,3-dione;2-(1-Oxo-1-phenylpropan-2-yl)-2,3-dihydro-1<em>H</em>-isoindole-1,3-dione",
    "duplicated_cas_no": "",
    "SMILES": "C(C(=O)C1=CC=CC=C1)(C)N2C(=O)C=3C(C2=O)=CC=CC3",
    "meta_data": {
        "InChI": "InChI=1S/C17H13NO3/c1-11(15(19)12-7-3-2-4-8-12)18-16(20)13-9-5-6-10-14(13)17(18)21/h2-11H,1H3",
        "InChIKey": null,
        "Canonical SMILES": "O=C1C=2C=CC=CC2C(=O)N1C(C(=O)C=3C=CC=CC3)C",
        "Molecular Formula": "C<sub>17</sub>H<sub>13</sub>NO<sub>3</sub>",
        "Molecular Mass": "279.29",
        "Melting Point": "87-88 °C"
    }
}