{
    "cas_no": "452-76-6",
    "key_name": "2,4-Difluoro-1-methylbenzene",
    "cn_name": "2,4-二氟甲苯;",
    "alternate_name": "Benzene, 2,4-difluoro-1-methyl-;Toluene, 2,4-difluoro-;2,4-Difluoro-1-methylbenzene;2,4-Difluorotoluene;2,4-Difluorobenzyl;NSC 3465",
    "duplicated_cas_no": "",
    "SMILES": "FC1=C(C)C=CC(F)=C1",
    "meta_data": {
        "InChI": "InChI=1S/C7H6F2/c1-5-2-3-6(8)4-7(5)9/h2-4H,1H3",
        "InChIKey": null,
        "Canonical SMILES": "FC1=CC=C(C(F)=C1)C",
        "Molecular Formula": "C<sub>7</sub>H<sub>6</sub>F<sub>2</sub>",
        "Molecular Mass": "128.12",
        "Boiling Point": "117 °C @ Press: 775 Torr",
        "Melting Point": "-35 °C"
    }
}