{
    "uri": "substance/pt/1338234",
    "rn": "1338-23-4",
    "name": "Methyl ethyl ketone peroxide",
    "images": [],
    "inchi": "",
    "inchiKey": "",
    "smile": "",
    "canonicalSmile": "",
    "molecularFormula": "Unspecified",
    "molecularMass": "",
    "experimentalProperties": [
        {
            "name": "Boiling Point",
            "property": "19 °C",
            "sourceNumber": 1
        },
        {
            "name": "Melting Point",
            "property": "&lt;25 °C",
            "sourceNumber": 2
        },
        {
            "name": "Density",
            "property": "1.05 g/cm³",
            "sourceNumber": 3
        }
    ],
    "propertyCitations": [
        {
            "docUri": "",
            "sourceNumber": 1,
            "source": "Hazardous Substances Data Bank data were obtained from the National Library of Medicine (US)"
        },
        {
            "docUri": "",
            "sourceNumber": 2,
            "source": "PhysProp data were obtained from Syracuse Research Corporation of Syracuse, New York (US)"
        },
        {
            "docUri": "document/pt/document/48344916",
            "sourceNumber": 3,
            "source": "Sharifi Olyaei, Nafiseh; Journal of the American Ceramic Society, (2017), 100(4), 1432-1439, CAplus"
        }
    ],
    "synonyms": [
        "2-Butanone, peroxide",
        "Methyl ethyl ketone peroxide",
        "Ethyl methyl ketone peroxide",
        "Lucidol Delta X",
        "Methyl ethyl ketone hydroperoxide",
        "Permek N",
        "Butanox M 50",
        "Ketonox",
        "Lupersol DSW",
        "Lupersol DNF",
        "Lupersol DDM",
        "Hi-Point 180",
        "Lupersol Delta X",
        "Lupersol DDA 30",
        "Butanox M 105",
        "Butanox LPT",
        "FR 222",
        "Chaloxyd MEKP-HA 1",
        "Chaloxyd MEKP-LA 1",
        "MEK peroxide",
        "Kayamek A",
        "Lupersol Delta X 9",
        "Permek G",
        "Lupersol DDM 9",
        "Mepox",
        "Kayamek M",
        "Lucidol DDM 9",
        "MEKPO",
        "Lupersol DHD 9",
        "Superox 46-710",
        "Permek H",
        "Delta X 9",
        "Diprometil LA 50R",
        "Mepox 55",
        "Hi-Point 90",
        "Cat-M",
        "MEKP-NA 1",
        "DDM 9",
        "Butanox M 60",
        "MEKP 9",
        "Luperox K 1",
        "Peroximon K 4",
        "Superox 46-747",
        "Luperox K 12",
        "Luperox K 18",
        "Peroximon 41",
        "Norox MEKP 925H",
        "ME 50L",
        "Butanox LA",
        "Butanox 50",
        "Norpol Peroxide 11",
        "Norox 925H",
        "Andonox KP 9",
        "Norox MEKP 925",
        "Andonox Pulcat Super",
        "Andonox MEC",
        "Andonox MCP 75",
        "Andonox CHM 50",
        "Benox B 50",
        "EPerox P",
        "MEKP-M 60",
        "MEKP-WA 50",
        "Luperox DDM 9",
        "Superox 46-702",
        "M 50",
        "808A",
        "Akzo M 50",
        "Trigonox V 388",
        "V 388",
        "Trigonox V 328",
        "V 328",
        "MEKP 925H",
        "Butanox V 388",
        "Cadox M 50a",
        "Peroxan ME 50L",
        "MEKP-NR 20",
        "Peroxan ME 60L",
        "Akperox A 60",
        "Butanox M 50A",
        "Permek S",
        "Metox 50",
        "Cadox 50",
        "F 534B",
        "Unicat 1000",
        "Akperox A 50",
        "KP 100",
        "Curox M 102",
        "TY-D",
        "Norox KP 925H",
        "Promox P 211TX",
        "Jiaying M 90",
        "M 90",
        "Permec D 45",
        "MEKP-LA 3",
        "Mepoxe",
        "Akperox A 1",
        "Hi-Point PD 1",
        "Norox MCP 75",
        "Akperox LPT"
    ],
    "replacedRns": [
        "9042-65-3",
        "37228-09-4",
        "37332-21-1",
        "37364-68-4",
        "39386-16-8",
        "50927-89-4",
        "99676-02-5",
        "1175509-65-5",
        "1403779-89-4",
        "2199458-55-2"
    ],
    "hasMolfile": false,
    "source": "https://commonchemistry.cas.org/detail?cas_rn=1338-23-4"
}