{
    "cas_no": "93804-29-6",
    "key_name": "Methoxydimethyloctylsilane",
    "cn_name": "正辛基二甲基甲氧基硅烷;甲氧基(二甲基)辛基硅烷;",
    "alternate_name": "Silane, methoxydimethyloctyl-;Methoxydimethyloctylsilane;Dimethylmethoxy-<em>n</em>-octylsilane;Dimethylmethoxyoctylsilane;Dimethyloctylmethoxysilane",
    "duplicated_cas_no": "",
    "SMILES": "C(C[Si](OC)(C)C)CCCCCC",
    "meta_data": {
        "InChI": "InChI=1S/C11H26OSi/c1-5-6-7-8-9-10-11-13(3,4)12-2/h5-11H2,1-4H3",
        "InChIKey": null,
        "Canonical SMILES": "O(C)[Si](C)(C)CCCCCCCC",
        "Molecular Formula": "C<sub>11</sub>H<sub>26</sub>OSi",
        "Molecular Mass": "202.41",
        "Boiling Point": "221-223 °C",
        "Density": "0.813 g/cm³"
    }
}