{
    "cas_no": "4519-39-5",
    "key_name": "2,3-Difluorobenzoic acid",
    "cn_name": "2,3-二氟苯甲酸;",
    "alternate_name": "Benzoic acid, 2,3-difluoro-;2,3-Difluorobenzoic acid",
    "duplicated_cas_no": "",
    "SMILES": "C(O)(=O)C1=C(F)C(F)=CC=C1",
    "meta_data": {
        "InChI": "InChI=1S/C7H4F2O2/c8-5-3-1-2-4(6(5)9)7(10)11/h1-3H,(H,10,11)",
        "InChIKey": null,
        "Canonical SMILES": "O=C(O)C=1C=CC=C(F)C1F",
        "Molecular Formula": "C<sub>7</sub>H<sub>4</sub>F<sub>2</sub>O<sub>2</sub>",
        "Molecular Mass": "158.10",
        "Melting Point": "164 °C"
    }
}