{
    "cas_no": "36953-41-0",
    "key_name": "3-Bromo-4-pyridinol",
    "cn_name": "3-溴-4-羟基吡啶;",
    "alternate_name": "4-Pyridinol, 3-bromo-;3-Bromo-4-pyridinol;3-Bromo-4-hydroxypyridine;3-Bromo-1<em>H</em>-pyridin-4-one",
    "duplicated_cas_no": "",
    "SMILES": "BrC=1C(O)=CC=NC1",
    "meta_data": {
        "InChI": "InChI=1S/C5H4BrNO/c6-4-3-7-2-1-5(4)8/h1-3H,(H,7,8)",
        "InChIKey": null,
        "Canonical SMILES": "BrC=1C=NC=CC1O",
        "Molecular Formula": "C<sub>5</sub>H<sub>4</sub>BrNO",
        "Molecular Mass": "174.00",
        "Melting Point": "229-230 °C"
    }
}