{
    "cas_no": "104227-88-5",
    "key_name": "2-[2-(2-Amino-9<em>H</em>-purin-9-yl)ethyl]-3-hydroxypropyl acetate",
    "cn_name": null,
    "alternate_name": "1,3-Propanediol, 2-[2-(2-amino-9<em>H</em>-purin-9-yl)ethyl]-, 1-acetate;1,3-Propanediol, 2-[2-(2-amino-9<em>H</em>-purin-9-yl)ethyl]-, monoacetate (ester);2-[2-(2-Amino-9<em>H</em>-purin-9-yl)ethyl]-3-hydroxypropyl acetate;BRL 43594;2-(Hydroxymethyl)-4-(2-imino-1<em>H</em>-purin-9(2<em>H</em>)-yl)butyl acetate",
    "duplicated_cas_no": "120687-07-2",
    "SMILES": "C(CC(COC(C)=O)CO)N1C=2C(N=C1)=CN=C(N)N2",
    "meta_data": {
        "InChI": "InChI=1S/C12H17N5O3/c1-8(19)20-6-9(5-18)2-3-17-7-15-10-4-14-12(13)16-11(10)17/h4,7,9,18H,2-3,5-6H2,1H3,(H2,13,14,16)",
        "InChIKey": null,
        "Canonical SMILES": "O=C(OCC(CO)CCN1C=NC=2C=NC(=NC21)N)C",
        "Molecular Formula": "C<sub>12</sub>H<sub>17</sub>N<sub>5</sub>O<sub>3</sub>",
        "Molecular Mass": "279.30",
        "Melting Point": "166-168 °C"
    }
}