{
    "cas_no": "3547-33-9",
    "key_name": "2-(Octylthio)ethanol",
    "cn_name": "避虫醇;避虫醇;",
    "alternate_name": "Ethanol, 2-(octylthio)-;2-(Octylthio)ethanol;MGK Repellent 874;2-Hydroxyethyl <em>n</em>-octyl sulfide;MGK 874;R 874;2-Hydroxyethyl octyl sulfide;NSC 163967;2-(Octylsulfanyl)ethan-1-ol;2-Octylsulfanyl-ethanol",
    "duplicated_cas_no": "",
    "SMILES": "C(CCSCCO)CCCCC",
    "meta_data": {
        "InChI": "InChI=1S/C10H22OS/c1-2-3-4-5-6-7-9-12-10-8-11/h11H,2-10H2,1H3",
        "InChIKey": null,
        "Canonical SMILES": "OCCSCCCCCCCC",
        "Molecular Formula": "C<sub>10</sub>H<sub>22</sub>OS",
        "Molecular Mass": "190.35",
        "Boiling Point": "98 °C",
        "Melting Point": "0 °C",
        "Density": "0.9285 g/cm³ @ Temp: 20 °C"
    }
}