{
    "cas_no": "645-67-0",
    "key_name": "Propyl 4-oxopentanoate",
    "cn_name": null,
    "alternate_name": "Pentanoic acid, 4-oxo-, propyl ester;Levulinic acid, propyl ester;Propyl 4-oxopentanoate;Propyl levulinate;NSC 4876;<em>n</em>-Propyl levulinate",
    "duplicated_cas_no": "",
    "SMILES": "C(CCC(C)=O)(OCCC)=O",
    "meta_data": {
        "InChI": "InChI=1S/C8H14O3/c1-3-6-11-8(10)5-4-7(2)9/h3-6H2,1-2H3",
        "InChIKey": null,
        "Canonical SMILES": "O=C(OCCC)CCC(=O)C",
        "Molecular Formula": "C<sub>8</sub>H<sub>14</sub>O<sub>3</sub>",
        "Molecular Mass": "158.20",
        "Boiling Point": "214-216 °C",
        "Density": "0.98988 g/cm³ @ Temp: 20 °C"
    }
}