{
    "cas_no": "119-56-2",
    "key_name": "4-Chlorobenzhydrol",
    "cn_name": "4-氯二苯甲醇;",
    "alternate_name": "Benzenemethanol, 4-chloro-α-phenyl-;Benzhydrol, 4-chloro-;4-Chloro-α-phenylbenzenemethanol;<em>p</em>-Chlorobenzhydrol;4-Chlorobenzhydrol;(4-Chlorophenyl)phenylmethanol;NSC 59990;α-(4-Chlorophenyl)benzyl alcohol",
    "duplicated_cas_no": "118014-08-7",
    "SMILES": "C(O)(C1=CC=C(Cl)C=C1)C2=CC=CC=C2",
    "meta_data": {
        "InChI": "InChI=1S/C13H11ClO/c14-12-8-6-11(7-9-12)13(15)10-4-2-1-3-5-10/h1-9,13,15H",
        "InChIKey": null,
        "Canonical SMILES": "ClC1=CC=C(C=C1)C(O)C=2C=CC=CC2",
        "Molecular Formula": "C<sub>13</sub>H<sub>11</sub>ClO",
        "Molecular Mass": "218.68",
        "Boiling Point": "130 °C @ Press: 0.01 Torr",
        "Melting Point": "60.75 °C"
    }
}