{
    "cas_no": "133-59-5",
    "key_name": "2-Methylbenzenesulfonyl chloride",
    "cn_name": "邻甲苯磺酰氯;邻氯化四苯砜;",
    "alternate_name": "Benzenesulfonyl chloride, 2-methyl-;<em>o</em>-Toluenesulfonyl chloride;2-Methylbenzenesulfonyl chloride;<em>o</em>-Tosyl chloride;<em>o</em>-Tolylsulfonyl chloride;2-Methylphenylsulfonyl chloride;<em>o</em>-Methylbenzenesulfonyl chloride;2-Toluenesulfonyl chloride;NSC 9354;2-Methylbenzene-1-sulfonyl chloride",
    "duplicated_cas_no": "",
    "SMILES": "S(Cl)(=O)(=O)C1=C(C)C=CC=C1",
    "meta_data": {
        "InChI": "InChI=1S/C7H7ClO2S/c1-6-4-2-3-5-7(6)11(8,9)10/h2-5H,1H3",
        "InChIKey": null,
        "Canonical SMILES": "O=S(=O)(Cl)C=1C=CC=CC1C",
        "Molecular Formula": "C<sub>7</sub>H<sub>7</sub>ClO<sub>2</sub>S",
        "Molecular Mass": "190.65",
        "Boiling Point": "154 °C @ Press: 36 Torr",
        "Melting Point": "10.2 °C",
        "Density": "1.3383 g/cm³ @ Temp: 20 °C"
    }
}