{
    "cas_no": "28322-02-3",
    "key_name": "4-Acetylaminofluorene",
    "cn_name": "4-乙酰氨基芴;",
    "alternate_name": "Acetamide, <em>N</em>-9<em>H</em>-fluoren-4-yl-;Acetamide, <em>N</em>-fluoren-4-yl-;<em>N</em>-9<em>H</em>-Fluoren-4-ylacetamide;4-Acetylaminofluorene;<em>N</em>-4-Fluorenylacetamide;4-Fluorenylacetamide;NSC 9866",
    "duplicated_cas_no": "",
    "SMILES": "N(C(C)=O)C1=C2C=3C(CC2=CC=C1)=CC=CC3",
    "meta_data": {
        "InChI": "InChI=1S/C15H13NO/c1-10(17)16-14-8-4-6-12-9-11-5-2-3-7-13(11)15(12)14/h2-8H,9H2,1H3,(H,16,17)",
        "InChIKey": null,
        "Canonical SMILES": "O=C(NC1=CC=CC2=C1C3=CC=CC=C3C2)C",
        "Molecular Formula": "C<sub>15</sub>H<sub>13</sub>NO",
        "Molecular Mass": "223.27",
        "Melting Point": "199-200 °C"
    }
}