{
    "cas_no": "1310-73-2",
    "key_name": "Sodium hydroxide",
    "cn_name": null,
    "alternate_name": "Sodium hydroxide (Na(OH));Sodium hydroxide;Caustic soda;White caustic;Ascarite;Collo-Grillrein;Collo-Tapetta;Aetznatron;Soda, caustic;GR (sodium hydroxide);GR (alkali reagent);NSC 135799;E 33;E 33 (degreasing agent);MO 67;FC 4370;StamperPrep;Tosoh Pearl;DL α;Promoter 3308B;ma-D 331;BO-200B;Caustic Solution 70TW;Reasol;S/4920/AP1;G 19852H;RNase AWAY;MeSH ID: D012972",
    "duplicated_cas_no": "8012-01-9;1418731-95-9;2319645-49-1;2391974-94-8;2803584-94-1",
    "SMILES": "[Na]O",
    "meta_data": {
        "InChI": "InChI=1S/Na.H2O/h;1H2/q+1;/p-1",
        "InChIKey": null,
        "Canonical SMILES": "[Na]O",
        "Molecular Formula": "HNaO",
        "Molecular Mass": "",
        "Boiling Point": "1388 °C",
        "Melting Point": "323 °C",
        "Density": "2.13 g/cm³ @ Temp: 25 °C"
    }
}