{
    "cas_no": "18053-31-1",
    "key_name": "Fominoben",
    "cn_name": "福米诺苯;胺酰苯吗琳;N-[3-氯-2-[[甲基-(2-吗啉-4-基-2-氧代乙基)氨基]甲基]苯基]苯甲酰胺;",
    "alternate_name": "Benzamide, <em>N</em>-[3-chloro-2-[[methyl[2-(4-morpholinyl)-2-oxoethyl]amino]methyl]phenyl]-;<em>o</em>-Benzotoluidide, 3′-chloro-α-[methyl[(morpholinocarbonyl)methyl]amino]-;<em>N</em>-[3-Chloro-2-[[methyl[2-(4-morpholinyl)-2-oxoethyl]amino]methyl]phenyl]benzamide;<em>N</em>-(2-Benzoylamino-6-chlorobenzyl)-<em>N</em>-methylglycine morpholide;Fominoben;3′-Chloro-α-[methyl[(morpholinocarbonyl)methyl]amino]-<em>o</em>-benzotoluidide;3′-Chloro-β-[<em>N</em>-methyl-<em>N</em>-[(morpholinocarbonyl)methyl]aminomethyl]benzanilide;Terion",
    "duplicated_cas_no": "",
    "SMILES": "C(N(CC(=O)N1CCOCC1)C)C2=C(NC(=O)C3=CC=CC=C3)C=CC=C2Cl",
    "meta_data": {
        "InChI": "InChI=1S/C21H24ClN3O3/c1-24(15-20(26)25-10-12-28-13-11-25)14-17-18(22)8-5-9-19(17)23-21(27)16-6-3-2-4-7-16/h2-9H,10-15H2,1H3,(H,23,27)",
        "InChIKey": null,
        "Canonical SMILES": "O=C(NC=1C=CC=C(Cl)C1CN(C)CC(=O)N2CCOCC2)C=3C=CC=CC3",
        "Molecular Formula": "C<sub>21</sub>H<sub>24</sub>ClN<sub>3</sub>O<sub>3</sub>",
        "Molecular Mass": "401.89",
        "Melting Point": "122.75 °C"
    }
}