{
    "cas_no": "1120-71-4",
    "key_name": "Propane sultone",
    "cn_name": "1,3-丙烷磺内酯;",
    "alternate_name": "1,2-Oxathiolane, 2,2-dioxide;1-Propanesulfonic acid, 3-hydroxy-, γ-sultone;1,3-Propane sultone;γ-Propane sultone;Propane sultone;3-Hydroxy-1-propanesulfonic acid sultone;Propyl sultone;3-Hydroxy-1-propanesulfonic acid γ-sultone;NSC 42386;1,3-Trimethylene sultone;1,2-Oxathiolan-2,2-dioxide;1,2-Oxathiolane-2,2-dioxide;ES 200L;1,2λ<sup>6</sup>-Oxathiolane-2,2-dione",
    "duplicated_cas_no": "",
    "SMILES": "O=S1(=O)CCCO1",
    "meta_data": {
        "InChI": "InChI=1S/C3H6O3S/c4-7(5)3-1-2-6-7/h1-3H2",
        "InChIKey": null,
        "Canonical SMILES": "O=S1(=O)OCCC1",
        "Molecular Formula": "C<sub>3</sub>H<sub>6</sub>O<sub>3</sub>S",
        "Molecular Mass": "122.14",
        "Boiling Point": "180 °C @ Press: 30 Torr",
        "Melting Point": "31 °C",
        "Density": "1.393 g/cm³ @ Temp: 40 °C"
    }
}