{
    "cas_no": "42422-68-4",
    "key_name": "β-Zearalanol",
    "cn_name": "B-赤霉醇;",
    "alternate_name": "1<em>H</em>-2-Benzoxacyclotetradecin-1-one, 3,4,5,6,7,8,9,10,11,12-decahydro-7,14,16-trihydroxy-3-methyl-, (3<em>S</em>,7<em>S</em>)-;1<em>H</em>-2-Benzoxacyclotetradecin-1-one, 3,4,5,6,7,8,9,10,11,12-decahydro-7,14,16-trihydroxy-3-methyl-, [3<em>S</em>-(3<em>R</em>*,7<em>R</em>*)]-;(3<em>S</em>,7<em>S</em>)-3,4,5,6,7,8,9,10,11,12-Decahydro-7,14,16-trihydroxy-3-methyl-1<em>H</em>-2-benzoxacyclotetradecin-1-one;Taleranol;P 1560 (pharmaceutical);P 1560;β-Zearalanol;β-Zeranol;β-Zearanol;(+)-β-Zearalanol",
    "duplicated_cas_no": "21307-28-8",
    "SMILES": "OC1=C2C(=CC(O)=C1)CCCCC[C@H](O)CCC[C@H](C)OC2=O",
    "meta_data": {
        "InChI": "InChI=1S/C18H26O5/c1-12-6-5-9-14(19)8-4-2-3-7-13-10-15(20)11-16(21)17(13)18(22)23-12/h10-12,14,19-21H,2-9H2,1H3/t12-,14-/m0/s1",
        "InChIKey": null,
        "Canonical SMILES": "O=C1OC(C)CCCC(O)CCCCCC=2C=C(O)C=C(O)C12",
        "Molecular Formula": "C<sub>18</sub>H<sub>26</sub>O<sub>5</sub>",
        "Molecular Mass": "322.40",
        "Melting Point": "156-158 °C"
    }
}