{
    "cas_no": "4093-29-2",
    "key_name": "Benzoic acid, 4-(acetylamino)-2-methoxy-, methyl ester",
    "cn_name": "4-乙酰氨基-2-甲氧基苯甲酸甲酯;2-甲氧基-4-乙酰胺基苯甲酸甲酯;",
    "alternate_name": "Benzoic acid, 4-(acetylamino)-2-methoxy-, methyl ester;<em>o</em>-Anisic acid, 4-acetamido-, methyl ester;4-Acetamido-2-methoxybenzoic acid, methyl ester;Methyl 4-acetamido-2-methoxybenzoate;Methyl 4-acetylamino-2-methoxybenzoate",
    "duplicated_cas_no": "",
    "SMILES": "C(OC)(=O)C1=C(OC)C=C(NC(C)=O)C=C1",
    "meta_data": {
        "InChI": "InChI=1S/C11H13NO4/c1-7(13)12-8-4-5-9(11(14)16-3)10(6-8)15-2/h4-6H,1-3H3,(H,12,13)",
        "InChIKey": null,
        "Canonical SMILES": "O=C(OC)C1=CC=C(C=C1OC)NC(=O)C",
        "Molecular Formula": "C<sub>11</sub>H<sub>13</sub>NO<sub>4</sub>",
        "Molecular Mass": "223.23",
        "Melting Point": "127 °C"
    }
}