{
    "cas_no": "1839-63-0",
    "key_name": "1,3,5-Trimethylcyclohexane",
    "cn_name": null,
    "alternate_name": "Cyclohexane, 1,3,5-trimethyl-;1,3,5-Trimethylcyclohexane",
    "duplicated_cas_no": "",
    "SMILES": "CC1CC(C)CC(C)C1",
    "meta_data": {
        "InChI": "InChI=1S/C9H18/c1-7-4-8(2)6-9(3)5-7/h7-9H,4-6H2,1-3H3",
        "InChIKey": null,
        "Canonical SMILES": "CC1CC(C)CC(C)C1",
        "Molecular Formula": "C<sub>9</sub>H<sub>18</sub>",
        "Molecular Mass": "126.24",
        "Boiling Point": "137.5 °C",
        "Density": "0.772 g/cm³ @ Temp: 20 °C"
    }
}