{
    "cas_no": "40811-49-2",
    "key_name": "2-[(1-Methylethyl)thio]ethanol",
    "cn_name": "2-羟基乙基异丙基硫醚;",
    "alternate_name": "Ethanol, 2-[(1-methylethyl)thio]-;Ethanol, 2-(isopropylthio)-;2-[(1-Methylethyl)thio]ethanol;2-(Isopropylthio)ethanol;2-[(1-Methyl)ethylthio]ethanol;NSC 403991;Isopropylthioethanol;2-(Propan-2-ylsulfanyl)ethan-1-ol;2-Propan-2-ylsulfanylethanol",
    "duplicated_cas_no": "",
    "SMILES": "S(C(C)C)CCO",
    "meta_data": {
        "InChI": "InChI=1S/C5H12OS/c1-5(2)7-4-3-6/h5-6H,3-4H2,1-2H3",
        "InChIKey": null,
        "Canonical SMILES": "OCCSC(C)C",
        "Molecular Formula": "C<sub>5</sub>H<sub>12</sub>OS",
        "Molecular Mass": "120.21",
        "Boiling Point": "82-83 °C @ Press: 12 Torr",
        "Density": "0.9613 g/cm³ @ Temp: 20 °C"
    }
}