{
    "cas_no": "13183-79-4",
    "key_name": "5-Mercapto-1-methyltetrazole",
    "cn_name": "1-甲基-5-巯基-1H-四氮唑;1-甲基-1H-四氮唑-5-硫醇;1-甲基-5-巯基-1,2,3,4-四氮唑;甲巯四氮唑;",
    "alternate_name": "5<em>H</em>-Tetrazole-5-thione, 1,2-dihydro-1-methyl-;1<em>H</em>-Tetrazole-5-thiol, 1-methyl-;2-Tetrazoline-5-thione, 1-methyl-;1,2,3,4-Tetrazole-5-thiol, 1-methyl-;1,2-Dihydro-1-methyl-5<em>H</em>-tetrazole-5-thione;1-Methyl-5-mercapto-1,2,3,4-tetrazole;1-Methyltetrazole-5-thiol;5-Mercapto-1-methyltetrazole;1-Methyl-5-mercaptotetrazole;1-Methyl-5-tetrazolethione;1-Methyl-1<em>H</em>-tetrazole-5-thiol;1-Methyl-1,2,3,4-tetrazole-5-thiol;5-Mercapto-1-methyl-1,2,3,4-tetrazole;5-Mercapto-1-methyl-1<em>H</em>-tetrazole;1-Methyl-5-tetrazolinethione;1-Methyl-1,2,3,4-tetrazoline-5-thione;1-Methyl-5-mercapto-1<em>H</em>-tetrazole;T 1982F;1-Methyl-1<em>H</em>-tetrazol-5-thiol;1-Methyl-5-thiotetrazole;<em>N</em>-Methyl-5-tetrazolethiol;NSC 520787;[1-Methyl-1<em>H</em>-1<em>H</em>-tetrazol-5-yl]thiol;1-Methyl-1<em>H</em>-1,2,3,4-tetrazole-5-thiol;1-Methyl-2,5-dihydro-1<em>H</em>-1,2,3,4-tetrazole-5-thione;1-Methyl-2<em>H</em>-tetrazole-5-thione",
    "duplicated_cas_no": "69713-31-1",
    "SMILES": "S=C1N(C)N=NN1",
    "meta_data": {
        "InChI": "InChI=1S/C2H4N4S/c1-6-2(7)3-4-5-6/h1H3,(H,3,5,7)",
        "InChIKey": null,
        "Canonical SMILES": "S=C1NN=NN1C",
        "Molecular Formula": "C<sub>2</sub>H<sub>4</sub>N<sub>4</sub>S",
        "Molecular Mass": "116.14",
        "Melting Point": "126 °C"
    }
}