{
    "cas_no": "10315-98-7",
    "key_name": "4-(2-Methylpropyl)morpholine",
    "cn_name": "4-异丁基吗啉;4-(2-甲基丙基)吗啉;",
    "alternate_name": "Morpholine, 4-(2-methylpropyl)-;Morpholine, 4-isobutyl-;4-(2-Methylpropyl)morpholine;<em>N</em>-Isobutylmorpholine;4-Isobutylmorpholine;NSC 158332",
    "duplicated_cas_no": "",
    "SMILES": "C(C(C)C)N1CCOCC1",
    "meta_data": {
        "InChI": "InChI=1S/C8H17NO/c1-8(2)7-9-3-5-10-6-4-9/h8H,3-7H2,1-2H3",
        "InChIKey": null,
        "Canonical SMILES": "O1CCN(CC1)CC(C)C",
        "Molecular Formula": "C<sub>8</sub>H<sub>17</sub>NO",
        "Molecular Mass": "143.23",
        "Boiling Point": "181 °C",
        "Melting Point": "&lt;-10 °C"
    }
}