{
    "cas_no": "1271-55-2",
    "key_name": "Acetylferrocene",
    "cn_name": "乙酰基二茂铁;",
    "alternate_name": "Ferrocene, acetyl-;Ketone, ferrocenyl methyl;Iron, (acetylcyclopentadienyl)cyclopentadienyl-;Acetylferrocene;Ethanone, 1-ferrocenyl-;Acetoferrocene;Monoacetylferrocene;1-Acetylferrocene;Ferrocenyl methyl ketone;(η<sup>5</sup>-Acetylcyclopentadienyl)(η<sup>5</sup>-cyclopentadienyl)iron;1-Ferrocenylethanone;NSC 115511",
    "duplicated_cas_no": "",
    "SMILES": "C(C)(=O)[C-]12[Fe+2]3456789([CH]1=[CH]3[CH]4=[CH]52)[CH-]%10[CH]6=[CH]7[CH]8=[CH]9%10",
    "meta_data": {
        "InChI": "InChI=1S/C7H7O.C5H5.Fe/c1-6(8)7-4-2-3-5-7;1-2-4-5-3-1;/h2-5H,1H3;1-5H;/q2*-1;+2",
        "InChIKey": null,
        "Canonical SMILES": "O=C(C)[C-]12[CH]3=[CH]4[CH]5=[CH]1[Fe+2]67894532[CH]=%10[CH]9=[CH]8[CH-]7[CH]%106",
        "Molecular Formula": "C<sub>12</sub>H<sub>12</sub>FeO",
        "Molecular Mass": "",
        "Melting Point": "85 °C"
    }
}