{
    "cas_no": "6034-46-4",
    "key_name": "(2<em>S</em>)-2-(Acetyloxy)propanoic acid",
    "cn_name": null,
    "alternate_name": "Propanoic acid, 2-(acetyloxy)-, (2<em>S</em>)-;Lactic acid, acetate, <span class=\"text-smallcaps\">L</span>-;Propanoic acid, 2-(acetyloxy)-, (<em>S</em>)-;(2<em>S</em>)-2-(Acetyloxy)propanoic acid;(+)-Lactic acid acetate;(+)-α-Acetoxypropionic acid;α-(Acetyloxy)-<span class=\"text-smallcaps\">L</span>-propionic acid;2(<em>S</em>)-Acetoxypropionic acid;<span class=\"text-smallcaps\">L</span>-Lactic acid acetate;(<em>S</em>)-2-Acetoxypropionic acid;<em>O</em>-Acetyl-(<em>S</em>)-lactic acid;<span class=\"text-smallcaps\">L</span>-(+)-<em>O</em>-Acetylactic acid;(<em>S</em>)-2-Acetoxypropanoic acid;(<em>S</em>)-(+)-2-Acetoxypropionic acid;(<em>S</em>)-<em>O</em>-Acetyllactic acid;(2<em>S</em>)-2-Acetoxypropanoic acid;(<em>S</em>)-(+)-2-Acetoxypropanoic acid;(<em>S</em>)-(-)-2-Acetoxypropanoic acid;(2<em>S</em>)-2-Acetyloxypropionic acid;(-)-<em>O</em>-Acetyl-<span class=\"text-smallcaps\">L</span>-lactic acid;(<em>S</em>)-(-)-2-Acetoxypropionic acid;(2S)-2-Acetyloxypropanoic acid",
    "duplicated_cas_no": "13650-71-0;395105-18-7",
    "SMILES": "[C@@H](OC(C)=O)(C(O)=O)C",
    "meta_data": {
        "InChI": "InChI=1S/C5H8O4/c1-3(5(7)8)9-4(2)6/h3H,1-2H3,(H,7,8)/t3-/m0/s1",
        "InChIKey": null,
        "Canonical SMILES": "O=C(O)C(OC(=O)C)C",
        "Molecular Formula": "C<sub>5</sub>H<sub>8</sub>O<sub>4</sub>",
        "Molecular Mass": "132.11",
        "Boiling Point": "137-138 °C @ Press: 15 Torr"
    }
}