{
    "cas_no": "531-67-9",
    "key_name": "2,2′-Bipiperidine",
    "cn_name": null,
    "alternate_name": "2,2′-Bipiperidine;2,2′-Bipiperidyl;α,α′-Dipiperidyl;2-(Piperidin-2-yl)piperidine;2-Piperidin-2-ylpiperidine",
    "duplicated_cas_no": "84123-93-3",
    "SMILES": "C1(CCCCN1)C2CCCCN2",
    "meta_data": {
        "InChI": "InChI=1S/C10H20N2/c1-3-7-11-9(5-1)10-6-2-4-8-12-10/h9-12H,1-8H2",
        "InChIKey": null,
        "Canonical SMILES": "N1CCCCC1C2NCCCC2",
        "Molecular Formula": "C<sub>10</sub>H<sub>20</sub>N<sub>2</sub>",
        "Molecular Mass": "168.28",
        "Boiling Point": "100-105 °C @ Press: 6 Torr"
    }
}