{
    "cas_no": "1019-57-4",
    "key_name": "Ethanal-2,4-dinitrophenylhydrazone",
    "cn_name": null,
    "alternate_name": "Acetaldehyde, 2-(2,4-dinitrophenyl)hydrazone;Acetaldehyde, (2,4-dinitrophenyl)hydrazone;Ethanal-2,4-dinitrophenylhydrazone;NSC 403216",
    "duplicated_cas_no": "",
    "SMILES": "N(=O)(=O)C1=C(NN=CC)C=CC(N(=O)=O)=C1",
    "meta_data": {
        "InChI": "InChI=1S/C8H8N4O4/c1-2-9-10-7-4-3-6(11(13)14)5-8(7)12(15)16/h2-5,10H,1H3",
        "InChIKey": null,
        "Canonical SMILES": "O=N(=O)C1=CC=C(NN=CC)C(=C1)N(=O)=O",
        "Molecular Formula": "C<sub>8</sub>H<sub>8</sub>N<sub>4</sub>O<sub>4</sub>",
        "Molecular Mass": "224.17",
        "Melting Point": "147 °C"
    }
}