{
    "cas_no": "110-76-9",
    "key_name": "Ethoxyethylamine",
    "cn_name": "2-乙氧基乙胺;",
    "alternate_name": "Ethanamine, 2-ethoxy-;Ethylamine, 2-ethoxy-;2-Ethoxyethanamine;2-Ethoxyethylamine;Ethoxyethylamine;β-Ethoxyethylamine;Ethyl aminoethyl ether;2-Aminoethyl ethyl ether;Ethyl 2-aminoethyl ether;Ethanolamine ethyl ether;2-Ethoxyethan-1-amine;2-Ethoxy-1-ethanamine",
    "duplicated_cas_no": "",
    "SMILES": "C(OCC)CN",
    "meta_data": {
        "InChI": "InChI=1S/C4H11NO/c1-2-6-4-3-5/h2-5H2,1H3",
        "InChIKey": null,
        "Canonical SMILES": "O(CC)CCN",
        "Molecular Formula": "C<sub>4</sub>H<sub>11</sub>NO",
        "Molecular Mass": "89.14",
        "Boiling Point": "108 °C"
    }
}