{
    "cas_no": "58011-68-0",
    "key_name": "Pyrazolate",
    "cn_name": "吡唑特;4-(2,4-二氯苄氧基)-1,3-二甲基-5-吡唑基甲苯磺酸盐;苄草唑;4-(2,4-二氯苯甲酰基0-1,3-二甲基-5-吡;",
    "alternate_name": "Methanone, (2,4-dichlorophenyl)[1,3-dimethyl-5-[[(4-methylphenyl)sulfonyl]oxy]-1<em>H</em>-pyrazol-4-yl]-;(2,4-Dichlorophenyl)[1,3-dimethyl-5-[[(4-methylphenyl)sulfonyl]oxy]-1<em>H</em>-pyrazol-4-yl]methanone;SW 751;Pyrazolate;A 544;Sanbird;H 468T;Pyrazolynate",
    "duplicated_cas_no": "103678-91-7",
    "SMILES": "C(=O)(C1=C(OS(=O)(=O)C2=CC=C(C)C=C2)N(C)N=C1C)C3=C(Cl)C=C(Cl)C=C3",
    "meta_data": {
        "InChI": "InChI=1S/C19H16Cl2N2O4S/c1-11-4-7-14(8-5-11)28(25,26)27-19-17(12(2)22-23(19)3)18(24)15-9-6-13(20)10-16(15)21/h4-10H,1-3H3",
        "InChIKey": null,
        "Canonical SMILES": "O=C(C1=CC=C(Cl)C=C1Cl)C=2C(=NN(C2OS(=O)(=O)C3=CC=C(C=C3)C)C)C",
        "Molecular Formula": "C<sub>19</sub>H<sub>16</sub>Cl<sub>2</sub>N<sub>2</sub>O<sub>4</sub>S",
        "Molecular Mass": "439.31",
        "Melting Point": "118 °C"
    }
}