{
    "cas_no": "10199-34-5",
    "key_name": "Dichlorobis(triphenylphosphine)platinum",
    "cn_name": "双(三苯基膦)氯化铂(II);",
    "alternate_name": "Platinum, dichlorobis(triphenylphosphine)-;Dichlorobis(triphenylphosphine)platinum;Bis(triphenylphosphine)platinum dichloride;Dichlorobis(triphenylphosphine)platinum(II);NSC 168797;Bis(triphenylphosphine)dichloroplatinum",
    "duplicated_cas_no": "14056-90-7",
    "SMILES": "[P]([Pt+2]([P](C1=CC=CC=C1)(C2=CC=CC=C2)C3=CC=CC=C3)([Cl-])[Cl-])(C4=CC=CC=C4)(C5=CC=CC=C5)C6=CC=CC=C6",
    "meta_data": {
        "InChI": "InChI=1S/2C18H15P.2ClH.Pt/c2*1-4-10-16(11-5-1)19(17-12-6-2-7-13-17)18-14-8-3-9-15-18;;;/h2*1-15H;2*1H;/q;;;;+2/p-2",
        "InChIKey": null,
        "Canonical SMILES": "[Cl-][Pt+2]([Cl-])([P](C=1C=CC=CC1)(C=2C=CC=CC2)C=3C=CC=CC3)[P](C=4C=CC=CC4)(C=5C=CC=CC5)C=6C=CC=CC6",
        "Molecular Formula": "C<sub>36</sub>H<sub>30</sub>Cl<sub>2</sub>P<sub>2</sub>Pt",
        "Molecular Mass": "",
        "Melting Point": "308 °C (decomp)"
    }
}