{
    "cas_no": "33045-53-3",
    "key_name": "Benzoic acid, 5-(aminosulfonyl)-2-methoxy-, ethyl ester",
    "cn_name": "2-甲氧基-5-磺酰胺基苯甲酸乙酯;",
    "alternate_name": "Benzoic acid, 5-(aminosulfonyl)-2-methoxy-, ethyl ester;<em>o</em>-Anisic acid, 5-sulfamoyl-, ethyl ester;Ethyl 2-methoxy-5-sulfonamidobenzoate;Ethyl 2-methoxy-5-sulfamoylbenzoate;Ethyl 5-(aminosulfonyl)-2-methoxybenzoate",
    "duplicated_cas_no": "",
    "SMILES": "C(OCC)(=O)C1=C(OC)C=CC(S(N)(=O)=O)=C1",
    "meta_data": {
        "InChI": "InChI=1S/C10H13NO5S/c1-3-16-10(12)8-6-7(17(11,13)14)4-5-9(8)15-2/h4-6H,3H2,1-2H3,(H2,11,13,14)",
        "InChIKey": null,
        "Canonical SMILES": "O=C(OCC)C1=CC(=CC=C1OC)S(=O)(=O)N",
        "Molecular Formula": "C<sub>10</sub>H<sub>13</sub>NO<sub>5</sub>S",
        "Molecular Mass": "259.28",
        "Melting Point": "148-151 °C"
    }
}