{
    "cas_no": "767-10-2",
    "key_name": "1-Butylpyrrolidine",
    "cn_name": "1-丁基吡咯烷;",
    "alternate_name": "Pyrrolidine, 1-butyl-;1-Butylpyrrolidine;<em>N</em>-Butylpyrrolidine;<em>N</em>-Butyltetrahydropyrrole",
    "duplicated_cas_no": "",
    "SMILES": "C(CCC)N1CCCC1",
    "meta_data": {
        "InChI": "InChI=1S/C8H17N/c1-2-3-6-9-7-4-5-8-9/h2-8H2,1H3",
        "InChIKey": null,
        "Canonical SMILES": "N1(CCCC)CCCC1",
        "Molecular Formula": "C<sub>8</sub>H<sub>17</sub>N",
        "Molecular Mass": "127.23",
        "Boiling Point": "154.5 °C",
        "Density": "0.8143 g/cm³ @ Temp: 20 °C"
    }
}