{
    "cas_no": "51-55-8",
    "key_name": "(±)-Atropine",
    "cn_name": "阿托品;(8-甲基-8-氮杂双环[3.2.1]辛-3-基)endo-(+/-)-alpha-(羟甲基)苯乙酸酯;",
    "alternate_name": "Benzeneacetic acid, α-(hydroxymethyl)- (3-<em>endo</em>)-8-methyl-8-azabicyclo[3.2.1]oct-3-yl ester;1α<em>H</em>,5α<em>H</em>-Tropan-3α-ol (±)-tropate (ester);Benzeneacetic acid, α-(hydroxymethyl)-, 8-methyl-8-azabicyclo[3.2.1]oct-3-yl ester, <em>endo</em>-;(3-<em>endo</em>)-8-Methyl-8-azabicyclo[3.2.1]oct-3-yl α-(hydroxymethyl)benzeneacetate;<em>dl</em>-Hyoscyamine;Atropine;<em>dl</em>-Tropyl tropate;Tropine (±)-tropate;Atropin;(±)-Hyoscyamine;(±)-Atropine;<span class=\"text-smallcaps\">DL</span>-Hyoscyamine;Tropine tropate;Atropinum sulphuricum;MeSH ID: D001285",
    "duplicated_cas_no": "78597-12-3;1445960-43-9",
    "SMILES": "O(C(C(CO)C1=CC=CC=C1)=O)[C@H]2C[C@@]3(N(C)[C@](C2)(CC3)[H])[H]",
    "meta_data": {
        "InChI": "InChI=1/C17H23NO3/c1-18-13-7-8-14(18)10-15(9-13)21-17(20)16(11-19)12-5-3-2-4-6-12/h2-6,13-16,19H,7-11H2,1H3/t13-,14+,15+,16?",
        "InChIKey": null,
        "Canonical SMILES": "O=C(OC1CC2N(C)C(CC2)C1)C(C=3C=CC=CC3)CO",
        "Molecular Formula": "C<sub>17</sub>H<sub>23</sub>NO<sub>3</sub>",
        "Molecular Mass": "289.37",
        "Melting Point": "118.5 °C"
    }
}