{
    "cas_no": "359-10-4",
    "key_name": "Ethene, 2-chloro-1,1-difluoro-",
    "cn_name": "2-氯-1,1-二氟乙烯;2-氯-1,1-二氟乙烯;",
    "alternate_name": "Ethene, 2-chloro-1,1-difluoro-;Ethylene, 2-chloro-1,1-difluoro-;1,1-Difluoro-2-chloroethylene;1,1-Difluoro-2-chloroethene;2-Chloro-1,1-difluoroethene;2,2-Difluoro-1-chloroethene;2-Chloro-1,1-difluoroethylene;1,1-Difluorochloroethylene;HCFC 1122;R 1122;FC 1122;F 1122;1-Chloro-2,2-difluoroethylene;1-Chloro-2,2-difluoroethene;HCFO 1122;HFO 1122",
    "duplicated_cas_no": "",
    "SMILES": "C(=CCl)(F)F",
    "meta_data": {
        "InChI": "InChI=1S/C2HClF2/c3-1-2(4)5/h1H",
        "InChIKey": null,
        "Canonical SMILES": "FC(F)=CCl",
        "Molecular Formula": "C<sub>2</sub>HClF<sub>2</sub>",
        "Molecular Mass": "98.48",
        "Boiling Point": "-18.5 °C",
        "Melting Point": "-138.5 °C"
    }
}