{
    "cas_no": "634-47-9",
    "key_name": "2-Chloro-4-methylquinoline",
    "cn_name": "2-氯-4-甲基喹啉;4-甲基-2-氯喹啉;",
    "alternate_name": "Quinoline, 2-chloro-4-methyl-;Lepidine, 2-chloro-;2-Chloro-4-methylquinoline;2-Chlorolepidine;NSC 96476",
    "duplicated_cas_no": "",
    "SMILES": "CC=1C2=C(N=C(Cl)C1)C=CC=C2",
    "meta_data": {
        "InChI": "InChI=1S/C10H8ClN/c1-7-6-10(11)12-9-5-3-2-4-8(7)9/h2-6H,1H3",
        "InChIKey": null,
        "Canonical SMILES": "ClC=1N=C2C=CC=CC2=C(C1)C",
        "Molecular Formula": "C<sub>10</sub>H<sub>8</sub>ClN",
        "Molecular Mass": "177.63",
        "Boiling Point": "296 °C",
        "Melting Point": "59 °C"
    }
}