{
    "cas_no": "74896-24-5",
    "key_name": "4-Amino-3,5-dimethylbenzonitrile",
    "cn_name": "4-氨基-3,5-二甲基苯氰;",
    "alternate_name": "Benzonitrile, 4-amino-3,5-dimethyl-;4-Amino-3,5-dimethylbenzonitrile;NSC 128902",
    "duplicated_cas_no": "",
    "SMILES": "C(#N)C1=CC(C)=C(N)C(C)=C1",
    "meta_data": {
        "InChI": "InChI=1S/C9H10N2/c1-6-3-8(5-10)4-7(2)9(6)11/h3-4H,11H2,1-2H3",
        "InChIKey": null,
        "Canonical SMILES": "N#CC=1C=C(C(N)=C(C1)C)C",
        "Molecular Formula": "C<sub>9</sub>H<sub>10</sub>N<sub>2</sub>",
        "Molecular Mass": "146.19",
        "Melting Point": "106.0-107.5 °C"
    }
}