{
    "cas_no": "63655-40-3",
    "key_name": "2-Amino-1<em>H</em>-benzimidazole-6-carbonitrile",
    "cn_name": null,
    "alternate_name": "1<em>H</em>-Benzimidazole-6-carbonitrile, 2-amino-;1<em>H</em>-Benzimidazole-5-carbonitrile, 2-amino-;2-Amino-1<em>H</em>-benzimidazole-6-carbonitrile;5-Cyano-2-aminobenzimidazole;2-Amino-1<em>H</em>-benzimidazole-5-carbonitrile;2-Amino-5(6)-cyano-1<em>H</em>-benzimidazole;2-Amino-5-cyanobenzimidazole;2-Amino-1<em>H</em>-1,3-benzodiazole-6-carbonitrile;2-Amino-3<em>H</em>-benzimidazole-5-carbonitrile;2-Amino-1<em>H</em>-1,3-benzodiazole-5-carbonitrile",
    "duplicated_cas_no": "",
    "SMILES": "NC=1NC=2C(=CC(C#N)=CC2)N1",
    "meta_data": {
        "InChI": "InChI=1S/C8H6N4/c9-4-5-1-2-6-7(3-5)12-8(10)11-6/h1-3H,(H3,10,11,12)",
        "InChIKey": null,
        "Canonical SMILES": "N#CC=1C=CC=2NC(=NC2C1)N",
        "Molecular Formula": "C<sub>8</sub>H<sub>6</sub>N<sub>4</sub>",
        "Molecular Mass": "158.16",
        "Melting Point": "190-192 °C"
    }
}