{
    "cas_no": "271-89-6",
    "key_name": "Benzofuran",
    "cn_name": "氧茚;苯并呋喃;2,3-苯并呋喃;",
    "alternate_name": "Benzofuran;2,3-Benzofuran;Coumarone;1-Oxindene;Benzofurfuran;Benzo[<em>b</em>]furan;R 7204;AT 33852;NSC 1255;1-Benzofuran",
    "duplicated_cas_no": "",
    "SMILES": "C1=2C(OC=C1)=CC=CC2",
    "meta_data": {
        "InChI": "InChI=1S/C8H6O/c1-2-4-8-7(3-1)5-6-9-8/h1-6H",
        "InChIKey": null,
        "Canonical SMILES": "O1C=CC=2C=CC=CC12",
        "Molecular Formula": "C<sub>8</sub>H<sub>6</sub>O",
        "Molecular Mass": "118.13",
        "Boiling Point": "174 °C @ Press: 760 Torr",
        "Melting Point": "&lt;-18 °C",
        "Density": "1.0913 g/cm³ @ Temp: 25 °C"
    }
}