{
    "cas_no": "57-74-9",
    "key_name": "1,2,4,5,6,7,8,8-Octachloro-2,3,3a,4,7,7a-hexahydro-4,7-methano-1<em>H</em>-indene",
    "cn_name": "氯丹;氯化茚；1068；1，2，4，5，6，7，8，8-八氯-2，3，3α，4，7，7α-六氢化-4，7-亚甲茚;",
    "alternate_name": "4,7-Methano-1<em>H</em>-indene, 1,2,4,5,6,7,8,8-octachloro-2,3,3a,4,7,7a-hexahydro-;4,7-Methanoindan, 1,2,4,5,6,7,8,8-octachloro-3a,4,7,7a-tetrahydro-;1,2,4,5,6,7,8,8-Octachloro-2,3,3a,4,7,7a-hexahydro-4,7-methano-1<em>H</em>-indene;CD 68;M 140;Octachloro-4,7-methanotetrahydroindane;1,2,4,5,6,7,8,8-Octachloro-4,7-methano-3a,4,7,7a-tetrahydroindane;1,2,4,5,6,7,10,10-Octachloro-4,7,8,9-tetrahydro-4,7-endomethyleneindane;1,2,4,5,6,7,10,10-Octachloro-4,7,8,9-tetrahydro-4,7-methyleneindane;Tat Chlor 4;Toxichlor;Chlorindan;ENT 9932;HCS 3260;Cortilan-neu;Dowchlor;Oktaterr;NSC 8931",
    "duplicated_cas_no": "39400-80-1;53637-13-1",
    "SMILES": "ClC12C3C(C(Cl)(C1(Cl)Cl)C(Cl)=C2Cl)C(Cl)C(Cl)C3",
    "meta_data": {
        "InChI": "InChI=1S/C10H6Cl8/c11-3-1-2-4(5(3)12)9(16)7(14)6(13)8(2,15)10(9,17)18/h2-5H,1H2",
        "InChIKey": null,
        "Canonical SMILES": "ClC1=C(Cl)C2(Cl)C3C(Cl)C(Cl)CC3C1(Cl)C2(Cl)Cl",
        "Molecular Formula": "C<sub>10</sub>H<sub>6</sub>Cl<sub>8</sub>",
        "Molecular Mass": "409.78",
        "Boiling Point": "175 °C @ Press: 1 Torr",
        "Melting Point": "106 °C",
        "Density": "1.59-1.63 g/cm³ @ Temp: 25 °C"
    }
}