{
    "cas_no": "5683-30-7",
    "key_name": "3-(Trimethylsilyl)propionic acid",
    "cn_name": null,
    "alternate_name": "Propanoic acid, 3-(trimethylsilyl)-;Propionic acid, 3-(trimethylsilyl)-;3-(Trimethylsilyl)propanoic acid;2-Silapentan-5-oic acid, 2,2-dimethyl-;3-(Trimethylsilyl)propionic acid;NSC 93018;3-(Trimethylsilanyl)propionic acid",
    "duplicated_cas_no": "",
    "SMILES": "C([Si](C)(C)C)CC(O)=O",
    "meta_data": {
        "InChI": "InChI=1S/C6H14O2Si/c1-9(2,3)5-4-6(7)8/h4-5H2,1-3H3,(H,7,8)",
        "InChIKey": null,
        "Canonical SMILES": "O=C(O)CC[Si](C)(C)C",
        "Molecular Formula": "C<sub>6</sub>H<sub>14</sub>O<sub>2</sub>Si",
        "Molecular Mass": "146.26",
        "Boiling Point": "100 °C @ Press: 6 Torr",
        "Melting Point": "22 °C",
        "Density": "0.9196 g/cm³ @ Temp: 20 °C"
    }
}