{
    "cas_no": "1129-69-7",
    "key_name": "2-Hexylpyridine",
    "cn_name": "2-己基吡啶;",
    "alternate_name": "Pyridine, 2-hexyl-;2-Hexylpyridine;2-(<em>n</em>-Hexyl)pyridine",
    "duplicated_cas_no": "",
    "SMILES": "C(CCCCC)C1=CC=CC=N1",
    "meta_data": {
        "InChI": "InChI=1S/C11H17N/c1-2-3-4-5-8-11-9-6-7-10-12-11/h6-7,9-10H,2-5,8H2,1H3",
        "InChIKey": null,
        "Canonical SMILES": "N=1C=CC=CC1CCCCCC",
        "Molecular Formula": "C<sub>11</sub>H<sub>17</sub>N",
        "Molecular Mass": "163.26",
        "Boiling Point": "100 °C @ Press: 0.1 Torr"
    }
}