{
    "cas_no": "171096-33-6",
    "key_name": "Methyl 4,6-dichloro-5-pyrimidineacetate",
    "cn_name": null,
    "alternate_name": "5-Pyrimidineacetic acid, 4,6-dichloro-, methyl ester;Methyl 4,6-dichloro-5-pyrimidineacetate;Methyl 2-(4,6-Dichloropyrimidin-5-yl)acetate",
    "duplicated_cas_no": "",
    "SMILES": "C(C(OC)=O)C=1C(Cl)=NC=NC1Cl",
    "meta_data": {
        "InChI": "InChI=1S/C7H6Cl2N2O2/c1-13-5(12)2-4-6(8)10-3-11-7(4)9/h3H,2H2,1H3",
        "InChIKey": null,
        "Canonical SMILES": "O=C(OC)CC=1C(Cl)=NC=NC1Cl",
        "Molecular Formula": "C<sub>7</sub>H<sub>6</sub>Cl<sub>2</sub>N<sub>2</sub>O<sub>2</sub>",
        "Molecular Mass": "221.04",
        "Melting Point": "65-67 °C"
    }
}