{
    "cas_no": "1314-87-0",
    "key_name": "Lead sulfide (PbS)",
    "cn_name": "硫化铅;方铅矿;硫化铅晶体;",
    "alternate_name": "Lead sulfide (PbS);C.I. 77640;Natural lead sulfide;Plumbous sulfide;Lead monosulfide;P 128 (sulfide);Lead sulfide;Lead(2+) sulfide;Lead(II) sulfide;P 37;P 37 (filter);Lead sulfide (1:1);P 128;Lead sulfide (Pb<sub>2</sub>S<sub>2</sub>)",
    "duplicated_cas_no": "51682-73-6;2068005-40-1;2222122-63-4;2516245-98-8;2568498-72-4;3009879-02-8",
    "SMILES": "[Pb]=S",
    "meta_data": {
        "InChI": "InChI=1S/Pb.S",
        "InChIKey": null,
        "Canonical SMILES": "S=[Pb]",
        "Molecular Formula": "PbS",
        "Molecular Mass": "",
        "Boiling Point": "1281 °C @ Press: 800 Torr",
        "Melting Point": "1114 °C",
        "Density": "7.57-7.59 g/cm³"
    }
}