{
    "cas_no": "543-90-8",
    "key_name": "Cadmium acetate",
    "cn_name": "乙酸镉;醋酸镉;",
    "alternate_name": "Acetic acid, cadmium salt (2:1);Cadmium acetate;Acetic acid, cadmium salt;C.I. 77185;Bis(acetoxy)cadmium;Cadmium diacetate;Cadmium ethanoate;Cadmium(II) acetate",
    "duplicated_cas_no": "24558-49-4;29398-76-3;245727-62-2",
    "SMILES": "C(C)(O)=O.[Cd]",
    "meta_data": {
        "InChI": "InChI=1S/C2H4O2.Cd/c1-2(3)4;/h1H3,(H,3,4);",
        "InChIKey": null,
        "Canonical SMILES": "[Cd].O=C(O)C",
        "Molecular Formula": "C<sub>2</sub>H<sub>4</sub>O<sub>2</sub>.<sup>1</sup>/<sub>2</sub>Cd",
        "Molecular Mass": "",
        "Melting Point": "255 °C",
        "Density": "2.341 g/cm³"
    }
}