{
    "cas_no": "758-08-7",
    "key_name": "Mercaptoacetamide",
    "cn_name": "2-巯基乙胺;",
    "alternate_name": "Acetamide, 2-mercapto-;α-Mercaptoacetamide;Mercaptoacetamide;Thioglycolamide;2-Mercaptoacetamide;Thiolacetamide;NSC 524366;2-Sulfanylacetamide",
    "duplicated_cas_no": "",
    "SMILES": "C(CS)(N)=O",
    "meta_data": {
        "InChI": "InChI=1S/C2H5NOS/c3-2(4)1-5/h5H,1H2,(H2,3,4)",
        "InChIKey": null,
        "Canonical SMILES": "O=C(N)CS",
        "Molecular Formula": "C<sub>2</sub>H<sub>5</sub>NOS",
        "Molecular Mass": "91.13",
        "Melting Point": "157.5-158.5 °C"
    }
}