{
    "cas_no": "28282-25-9",
    "key_name": "Elemonic acid",
    "cn_name": null,
    "alternate_name": "Lanosta-8,24-dien-21-oic acid, 3-oxo-, (13α,14β,17α,20<em>S</em>)-;13α,14β,17β<span class=\"text-smallcaps\">H</span>-Lanosta-8,24-dien-21-oic acid, 3-oxo-, (20<em>S</em>)-;(13α,14β,17α,20<em>S</em>)-3-Oxolanosta-8,24-dien-21-oic acid;Elemadienonic acid;Elemonic acid;β-Elemonic acid;3-Oxotirucallic acid;3-Ketotirucalla-8,24-dien-21-oic acid;3-Oxotirucalla-8,24-dien-21-oic acid;3-Oxotirucallenoic acid;3-Oxo-8,24-tirucalledien-21-oic acid",
    "duplicated_cas_no": "872292-47-2",
    "SMILES": "C[C@@]12C3=C([C@]4(C)[C@@](CC3)(C(C)(C)C(=O)CC4)[H])CC[C@@]1(C)[C@]([C@H](CCC=C(C)C)C(O)=O)(CC2)[H]",
    "meta_data": {
        "InChI": "InChI=1S/C30H46O3/c1-19(2)9-8-10-20(26(32)33)21-13-17-30(7)23-11-12-24-27(3,4)25(31)15-16-28(24,5)22(23)14-18-29(21,30)6/h9,20-21,24H,8,10-18H2,1-7H3,(H,32,33)/t20-,21-,24-,28+,29-,30+/m0/s1",
        "InChIKey": null,
        "Canonical SMILES": "O=C(O)C(CCC=C(C)C)C1CCC2(C3=C(CCC12C)C4(C)CCC(=O)C(C)(C)C4CC3)C",
        "Molecular Formula": "C<sub>30</sub>H<sub>46</sub>O<sub>3</sub>",
        "Molecular Mass": "454.68",
        "Melting Point": "274 °C"
    }
}