{
    "cas_no": "911-40-0",
    "key_name": "7-Ketodeoxycholic acid",
    "cn_name": null,
    "alternate_name": "Cholan-24-oic acid, 3,12-dihydroxy-7-oxo-, (3α,5β,12α)-;5β-Cholan-24-oic acid, 3α,12α-dihydroxy-7-oxo-;5β-Cholanic acid, 3α,12α-dihydroxy-7-oxo-;(3α,5β,12α)-3,12-Dihydroxy-7-oxocholan-24-oic acid;3α,12α-Dihydroxy-7-oxo-5β-cholanoic acid;3α,12α-Dihydroxy-7-ketocholanic acid;3α,12α-Dihydroxy-7-oxo-5β-cholan-24-oic acid;7-Ketodeoxycholic acid;7-Oxo-3α,12α-dihydroxycholan-24-oic acid;3α,12α-Dihydroxy-7-<em>keto</em>-5β-cholanic acid;5β-Cholanic acid-3α,12α-diol-7-one;7-<em>keto</em>-3α,12α-Dihydroxy-5β-cholanic acid;7-Oxodeoxycholic acid;7-Oxo-3α,12α-dihydroxy-5β-cholanoic acid;7-<em>keto</em>-Deoxycholic acid",
    "duplicated_cas_no": "",
    "SMILES": "O=C1[C@]2([C@]3([C@@](C)([C@@]([C@@H](CCC(O)=O)C)(CC3)[H])[C@@H](O)C[C@@]2([C@]4(C)[C@](C1)(C[C@H](O)CC4)[H])[H])[H])[H]",
    "meta_data": {
        "InChI": "InChI=1S/C24H38O5/c1-13(4-7-21(28)29)16-5-6-17-22-18(12-20(27)24(16,17)3)23(2)9-8-15(25)10-14(23)11-19(22)26/h13-18,20,22,25,27H,4-12H2,1-3H3,(H,28,29)/t13-,14+,15-,16-,17+,18+,20+,22+,23+,24-/m1/s1",
        "InChIKey": null,
        "Canonical SMILES": "O=C(O)CCC(C)C1CCC2C3C(=O)CC4CC(O)CCC4(C)C3CC(O)C12C",
        "Molecular Formula": "C<sub>24</sub>H<sub>38</sub>O<sub>5</sub>",
        "Molecular Mass": "406.56",
        "Melting Point": "140-145 °C"
    }
}