{
    "cas_no": "96-13-9",
    "key_name": "2,3-Dibromo-1-propanol",
    "cn_name": "2,3-二溴-1-丙醇;",
    "alternate_name": "1-Propanol, 2,3-dibromo-;2,3-Dibromo-1-propanol;2,3-Dibromopropyl alcohol;1,2-Dibromopropan-3-ol;Brominex 257;DBP (flame retardant);DBP;NSC 6203",
    "duplicated_cas_no": "116499-75-3;204570-16-1",
    "SMILES": "C(CBr)(CO)Br",
    "meta_data": {
        "InChI": "InChI=1S/C3H6Br2O/c4-1-3(5)2-6/h3,6H,1-2H2",
        "InChIKey": null,
        "Canonical SMILES": "BrCC(Br)CO",
        "Molecular Formula": "C<sub>3</sub>H<sub>6</sub>Br<sub>2</sub>O",
        "Molecular Mass": "217.89",
        "Boiling Point": "219 °C",
        "Density": "2.120 g/cm³ @ Temp: 20 °C"
    }
}