{
    "cas_no": "1589-62-4",
    "key_name": "Cyclohexanone 2-(2,4-dinitrophenyl)hydrazone",
    "cn_name": "环己酮-2,4-二硝基苯腙;",
    "alternate_name": "Cyclohexanone, 2-(2,4-dinitrophenyl)hydrazone;Cyclohexanone, (2,4-dinitrophenyl)hydrazone;Cyclohexanone 2-(2,4-dinitrophenyl)hydrazone;NSC 6125;1-Cyclohexylidene-2-(2,4-dinitrophenyl)hydrazine",
    "duplicated_cas_no": "",
    "SMILES": "N(N=C1CCCCC1)C2=C(N(=O)=O)C=C(N(=O)=O)C=C2",
    "meta_data": {
        "InChI": "InChI=1S/C12H14N4O4/c17-15(18)10-6-7-11(12(8-10)16(19)20)14-13-9-4-2-1-3-5-9/h6-8,14H,1-5H2",
        "InChIKey": null,
        "Canonical SMILES": "O=N(=O)C1=CC=C(NN=C2CCCCC2)C(=C1)N(=O)=O",
        "Molecular Formula": "C<sub>12</sub>H<sub>14</sub>N<sub>4</sub>O<sub>4</sub>",
        "Molecular Mass": "278.26",
        "Melting Point": "156.5-157 °C"
    }
}