{
    "cas_no": "2524-76-7",
    "key_name": "1-(Methylthio)-3-nitrobenzene",
    "cn_name": "3-硝基茴香硫醚;间硝基茴香硫醚;",
    "alternate_name": "Benzene, 1-(methylthio)-3-nitro-;Sulfide, methyl <em>m</em>-nitrophenyl;1-(Methylthio)-3-nitrobenzene;Methyl <em>m</em>-nitrophenyl sulfide;<em>m</em>-Nitrothioanisole;<em>m</em>-Nitrophenyl methyl sulfide;Methyl 3-nitrophenyl sulfide;NSC 53644;1-(Methylsulfanyl)-3-nitrobenzene;3-Nitrothioanisole",
    "duplicated_cas_no": "",
    "SMILES": "N(=O)(=O)C1=CC(SC)=CC=C1",
    "meta_data": {
        "InChI": "InChI=1S/C7H7NO2S/c1-11-7-4-2-3-6(5-7)8(9)10/h2-5H,1H3",
        "InChIKey": null,
        "Canonical SMILES": "O=N(=O)C=1C=CC=C(SC)C1",
        "Molecular Formula": "C<sub>7</sub>H<sub>7</sub>NO<sub>2</sub>S",
        "Molecular Mass": "169.20",
        "Boiling Point": "133-134 °C @ Press: 4 Torr",
        "Melting Point": "14.5 °C"
    }
}