{
    "cas_no": "36978-41-3",
    "key_name": "2,3′,3,4′-Biphenyltetracarboxylic dianhydride",
    "cn_name": "2,3,3\",4\"-联苯四甲酸二酐;",
    "alternate_name": "[4,5′-Biisobenzofuran]-1,1′,3,3′-tetrone;2,3,3′,4′-Biphenyltetracarboxylic dianhydride;2,3,3′,4′-Biphenyltetracarboxylic acid dianhydride;1,1′-Biphenyl-2,3,3′,4′-tetracarboxylic acid dianhydride;2,3,3′,4′-Biphenyltetracarboxylic anhydride;2,3′,3,4′-Biphenyltetracarboxylic acid dianhydride;4,3′-Biphthalic anhydride;2,3′,3,4′-Biphenyltetracarboxylic dianhydride;2,3,3′,4′-Diphenyltetracarboxylic dianhydride;[4,5′-Biisobenzofuran]-1,1′,3,3′-tetraone;2,3,3′,4′-Biphenyltetracarbocylic dianhydride;a-BPDA",
    "duplicated_cas_no": "",
    "SMILES": "O=C1C2=C(C=CC=C2C(=O)O1)C=3C=C4C(=CC3)C(=O)OC4=O",
    "meta_data": {
        "InChI": "InChI=1S/C16H6O6/c17-13-9-5-4-7(6-11(9)15(19)21-13)8-2-1-3-10-12(8)16(20)22-14(10)18/h1-6H",
        "InChIKey": null,
        "Canonical SMILES": "O=C1OC(=O)C2=CC(=CC=C12)C=3C=CC=C4C(=O)OC(=O)C43",
        "Molecular Formula": "C<sub>16</sub>H<sub>6</sub>O<sub>6</sub>",
        "Molecular Mass": "294.22",
        "Melting Point": "199 °C"
    }
}