{
    "cas_no": "1946-82-3",
    "key_name": "<em>N</em>-Acetyl-<span class=\"text-smallcaps\">L</span>-lysine",
    "cn_name": null,
    "alternate_name": "<span class=\"text-smallcaps\">L</span>-Lysine, <em>N</em><sup>2</sup>-acetyl-;Lysine, <em>N</em><sup>2</sup>-acetyl-, <span class=\"text-smallcaps\">L</span>-;<em>N</em><sup>2</sup>-Acetyl-<span class=\"text-smallcaps\">L</span>-lysine;<em>N</em><sup>α</sup>-Acetyl-<span class=\"text-smallcaps\">L</span>-lysine;<em>N</em><sup>α</sup>-Acetyllysine;6-Amino-<span class=\"text-smallcaps\">L</span>-2-acetamidohexanoic acid;<em>N</em>-Acetyl-<span class=\"text-smallcaps\">L</span>-lysine;<em>N</em><sup>2</sup>-Acetyllysine;(2S)-6-Amino-2-acetamidohexanoic acid;(2S)-2-Acetamido-6-aminohexanoic acid;<em>N</em>-Acetyllysine",
    "duplicated_cas_no": "",
    "SMILES": "[C@@H](CCCCN)(NC(C)=O)C(O)=O",
    "meta_data": {
        "InChI": "InChI=1S/C8H16N2O3/c1-6(11)10-7(8(12)13)4-2-3-5-9/h7H,2-5,9H2,1H3,(H,10,11)(H,12,13)/t7-/m0/s1",
        "InChIKey": null,
        "Canonical SMILES": "O=C(NC(C(=O)O)CCCCN)C",
        "Molecular Formula": "C<sub>8</sub>H<sub>16</sub>N<sub>2</sub>O<sub>3</sub>",
        "Molecular Mass": "188.22",
        "Melting Point": "250 °C (decomp)"
    }
}