{
    "cas_no": "2150-38-1",
    "key_name": "Methyl 3,4-dimethoxybenzoate",
    "cn_name": "3,4-二甲氧基苯甲酸甲酯;",
    "alternate_name": "Benzoic acid, 3,4-dimethoxy-, methyl ester;Veratric acid, methyl ester;Methyl veratrate;Methyl 3,4-dimethoxybenzoate;3,4-Dimethoxybenzoic acid methyl ester;NSC 15668",
    "duplicated_cas_no": "",
    "SMILES": "O(C)C1=C(OC)C=CC(C(OC)=O)=C1",
    "meta_data": {
        "InChI": "InChI=1S/C10H12O4/c1-12-8-5-4-7(10(11)14-3)6-9(8)13-2/h4-6H,1-3H3",
        "InChIKey": null,
        "Canonical SMILES": "O=C(OC)C1=CC=C(OC)C(OC)=C1",
        "Molecular Formula": "C<sub>10</sub>H<sub>12</sub>O<sub>4</sub>",
        "Molecular Mass": "196.20",
        "Boiling Point": "283 °C",
        "Melting Point": "60.8 °C"
    }
}