{
    "cas_no": "120-47-8",
    "key_name": "Ethylparaben",
    "cn_name": "尼泊金乙酯;对羟基苯甲酸乙酯;",
    "alternate_name": "Benzoic acid, 4-hydroxy-, ethyl ester;Benzoic acid, <em>p</em>-hydroxy-, ethyl ester;Aseptoform E;Bonomold OE;<em>p</em>-Carbethoxyphenol;Easeptol;Ethyl <em>p</em>-hydroxybenzoate;Ethyl parasept;<em>p</em>-Hydroxybenzoic acid ethyl ester;Nipagin A;Nipazin A;Solbrol A;Tegosept E;Ethylparaben;Ethyl 4-hydroxybenzoate;4-Hydroxybenzoic acid ethyl ester;<em>p</em>-(Ethoxycarbonyl)phenol;Napagin A;Sobrol A;Ethyl Butex;Mycocten;<em>p</em>-Hydroxybenzoate ethyl ester;4-(Ethoxycarbonyl)phenol;4-Carbethoxyphenol;Aseptine A;Aseptin A;Mekkings E;Ethyl nipagin;NSC 23514;NSC 8510;E 214;4-Hydroxybenzoic ethyl ester;Ethyl parahydroxybenzoate;Ethyparaben",
    "duplicated_cas_no": "",
    "SMILES": "C(OCC)(=O)C1=CC=C(O)C=C1",
    "meta_data": {
        "InChI": "InChI=1S/C9H10O3/c1-2-12-9(11)7-3-5-8(10)6-4-7/h3-6,10H,2H2,1H3",
        "InChIKey": null,
        "Canonical SMILES": "O=C(OCC)C1=CC=C(O)C=C1",
        "Molecular Formula": "C<sub>9</sub>H<sub>10</sub>O<sub>3</sub>",
        "Molecular Mass": "166.17",
        "Boiling Point": "297.5 °C",
        "Melting Point": "116 °C",
        "Density": "1.291 g/cm³ @ Press: 750 Torr"
    }
}