{
    "cas_no": "104-63-2",
    "key_name": "Benzylethanolamine",
    "cn_name": "N-苄基乙醇胺;羟乙基苄胺;",
    "alternate_name": "Ethanol, 2-[(phenylmethyl)amino]-;Ethanol, 2-(benzylamino)-;2-[(Phenylmethyl)amino]ethanol;<em>N</em>-Benzylethanolamine;Benzylethanolamine;<em>N</em>-Benzylaminoethanol;2-(Benzylamino)ethanol;Benzylaminoethanol;Benzyl(2-hydroxyethyl)amine;<em>N</em>-Benzyl-2-hydroxyethylamine;2-(<em>N</em>-Benzylamino)ethanol;<em>N</em>-Benzyl-2-aminoethanol;<em>N</em>-(2-Hydroxyethyl)benzenemethanamine;NSC 11271;NSC 177008;NSC 60267;<em>N</em>-(2-Hydroxyethyl)benzylamine;2-(Benzylamino)ethan-1-ol",
    "duplicated_cas_no": "",
    "SMILES": "C(NCCO)C1=CC=CC=C1",
    "meta_data": {
        "InChI": "InChI=1S/C9H13NO/c11-7-6-10-8-9-4-2-1-3-5-9/h1-5,10-11H,6-8H2",
        "InChIKey": null,
        "Canonical SMILES": "OCCNCC=1C=CC=CC1",
        "Molecular Formula": "C<sub>9</sub>H<sub>13</sub>NO",
        "Molecular Mass": "151.21",
        "Boiling Point": "153-156 °C",
        "Melting Point": "94-95 °C",
        "Density": "1.179 g/cm³ @ Temp: 25 °C"
    }
}