{
    "cas_no": "7149-79-3",
    "key_name": "<em>N</em>-(3-Chloro-4-methylphenyl)acetamide",
    "cn_name": "3-氟-4-甲基乙酰苯胺;",
    "alternate_name": "Acetamide, <em>N</em>-(3-chloro-4-methylphenyl)-;<em>p</em>-Acetotoluidide, 3′-chloro-;<em>N</em>-(3-Chloro-4-methylphenyl)acetamide;3′-Chloro-4′-acetotoluidide;4-(Acetylamino)-2-chlorotoluene;DRC 2698;<em>N</em>-Acetyl-3-chloro-4-methylaniline;3′-Chloro-4′-methylacetanilide;NSC 72333",
    "duplicated_cas_no": "",
    "SMILES": "N(C(C)=O)C1=CC(Cl)=C(C)C=C1",
    "meta_data": {
        "InChI": "InChI=1S/C9H10ClNO/c1-6-3-4-8(5-9(6)10)11-7(2)12/h3-5H,1-2H3,(H,11,12)",
        "InChIKey": null,
        "Canonical SMILES": "O=C(NC1=CC=C(C(Cl)=C1)C)C",
        "Molecular Formula": "C<sub>9</sub>H<sub>10</sub>ClNO",
        "Molecular Mass": "183.63",
        "Melting Point": "105 °C"
    }
}