{
    "cas_no": "589-35-5",
    "key_name": "3-Methyl-1-pentanol",
    "cn_name": "3-甲基-1-戊醇;",
    "alternate_name": "1-Pentanol, 3-methyl-;3-Methyl-1-pentanol;2-Ethyl-4-butanol;3-Ethyl-1-butanol;3-Methylpentanol;(<span class=\"text-smallcaps\">DL</span>)-3-Methylpentyl alcohol;(±)-3-Methyl-1-pentanol;NSC 9466;3-Ethylbutanol",
    "duplicated_cas_no": "20281-83-8;343268-11-1",
    "SMILES": "C(CCO)(CC)C",
    "meta_data": {
        "InChI": "InChI=1S/C6H14O/c1-3-6(2)4-5-7/h6-7H,3-5H2,1-2H3",
        "InChIKey": null,
        "Canonical SMILES": "OCCC(C)CC",
        "Molecular Formula": "C<sub>6</sub>H<sub>14</sub>O",
        "Molecular Mass": "102.17",
        "Boiling Point": "72 °C @ Press: 25 Torr",
        "Density": "0.822 g/cm³ @ Temp: 27 °C"
    }
}