{
    "cas_no": "375-88-2",
    "key_name": "1-Bromo-1,1,2,2,3,3,4,4,5,5,6,6,7,7,7-pentadecafluoroheptane",
    "cn_name": "全氟溴庚烷;1-溴全氟庚烷;全氟溴庚烷;",
    "alternate_name": "Heptane, 1-bromo-1,1,2,2,3,3,4,4,5,5,6,6,7,7,7-pentadecafluoro-;Heptane, 1-bromopentadecafluoro-;1-Bromo-1,1,2,2,3,3,4,4,5,5,6,6,7,7,7-pentadecafluoroheptane;Pentadecafluoro-1-bromoheptane;1-Bromopentadecafluoroheptane;Perfluoroheptyl bromide;1-Bromoperfluoroheptane",
    "duplicated_cas_no": "",
    "SMILES": "C(C(C(C(Br)(F)F)(F)F)(F)F)(C(C(C(F)(F)F)(F)F)(F)F)(F)F",
    "meta_data": {
        "InChI": "InChI=1S/C7BrF15/c8-6(19,20)4(15,16)2(11,12)1(9,10)3(13,14)5(17,18)7(21,22)23",
        "InChIKey": null,
        "Canonical SMILES": "FC(F)(F)C(F)(F)C(F)(F)C(F)(F)C(F)(F)C(F)(F)C(F)(F)Br",
        "Molecular Formula": "C<sub>7</sub>BrF<sub>15</sub>",
        "Molecular Mass": "448.95",
        "Boiling Point": "118 °C"
    }
}