{
    "cas_no": "2735-62-8",
    "key_name": "1-Methyl-1<em>H</em>-benzimidazole-2-acetonitrile",
    "cn_name": "1-甲基-2-苯并咪唑乙腈;N-甲基-2-苯并咪唑乙腈;",
    "alternate_name": "1<em>H</em>-Benzimidazole-2-acetonitrile, 1-methyl-;2-Benzimidazoleacetonitrile, 1-methyl-;1-Methyl-1<em>H</em>-benzimidazole-2-acetonitrile;1-Methyl-2-benzimidazoleacetonitrile;1-Methyl-2-benzimidazolylacetonitrile;2-(Cyanomethyl)-1-methylbenzimidazole;1-Methyl-2-(cyanomethyl)benzimidazole;2-(1-Methyl-1<em>H</em>-benzo[<em>d</em>]imidazol-2-yl)acetonitrile;2-(1-Methyl-1<em>H</em>-1,3-benzodiazol-2-yl)acetonitrile;2-(1-Methylbenzimidazol-2-yl)acetonitrile",
    "duplicated_cas_no": "",
    "SMILES": "CN1C=2C(N=C1CC#N)=CC=CC2",
    "meta_data": {
        "InChI": "InChI=1S/C10H9N3/c1-13-9-5-3-2-4-8(9)12-10(13)6-7-11/h2-5H,6H2,1H3",
        "InChIKey": null,
        "Canonical SMILES": "N#CCC1=NC=2C=CC=CC2N1C",
        "Molecular Formula": "C<sub>10</sub>H<sub>9</sub>N<sub>3</sub>",
        "Molecular Mass": "171.20",
        "Melting Point": "132-134 °C"
    }
}