{
    "cas_no": "5442-24-0",
    "key_name": "6-Amino-5-nitroso-2,4(1<em>H</em>,3<em>H</em>)-pyrimidinedione",
    "cn_name": "4-氨基-2,6-二羟基-5-亚硝基嘧啶;",
    "alternate_name": "2,4(1<em>H</em>,3<em>H</em>)-Pyrimidinedione, 6-amino-5-nitroso-;Uracil, 6-amino-5-nitroso-;6-Amino-5-nitroso-2,4(1<em>H</em>,3<em>H</em>)-pyrimidinedione;6-Amino-5-nitrosouracil;4-Amino-5-nitroso-2,6-pyrimidinediol;5-Nitroso-6-aminouracil;6-Amino-5-nitroso-2,4-pyrimidinediol;NSC 11446;NSC 14287;NSC 3101;NSC 677501;NSC 94946;6-Amino-5-nitroso-22,4(1<em>H</em>,3<em>H</em>)-pyrimidinedione",
    "duplicated_cas_no": "34407-58-4;43109-91-7",
    "SMILES": "N(=O)C1=C(N)NC(=O)NC1=O",
    "meta_data": {
        "InChI": "InChI=1S/C4H4N4O3/c5-2-1(8-11)3(9)7-4(10)6-2/h(H4,5,6,7,9,10)",
        "InChIKey": null,
        "Canonical SMILES": "O=NC=1C(=O)NC(=O)NC1N",
        "Molecular Formula": "C<sub>4</sub>H<sub>4</sub>N<sub>4</sub>O<sub>3</sub>",
        "Molecular Mass": "156.10",
        "Melting Point": "&gt;300 °C"
    }
}