{
    "cas_no": "4168-79-0",
    "key_name": "4-Piperidinone, 2,2,6,6-tetramethyl-, oxime",
    "cn_name": "2,2,6,6-四甲基-4-二乙哌啶二酮肟;",
    "alternate_name": "4-Piperidinone, 2,2,6,6-tetramethyl-, oxime;4-Piperidone, 2,2,6,6-tetramethyl-, oxime;EX 4826;2,2,6,6-Tetramethyl-4-piperidinone oxime;Triacetonamine oxime;4-(Hydroxyimino)-2,2,6,6-tetramethylpiperidine;2,2,6,6-Tetramethyl-4-oxopiperidine oxime;IKh 86;2,2,6,6-Tetramethyl-4-piperidone oxime",
    "duplicated_cas_no": "",
    "SMILES": "CC1(C)NC(C)(C)CC(=NO)C1",
    "meta_data": {
        "InChI": "InChI=1S/C9H18N2O/c1-8(2)5-7(10-12)6-9(3,4)11-8/h11-12H,5-6H2,1-4H3",
        "InChIKey": null,
        "Canonical SMILES": "ON=C1CC(NC(C)(C)C1)(C)C",
        "Molecular Formula": "C<sub>9</sub>H<sub>18</sub>N<sub>2</sub>O",
        "Molecular Mass": "170.25",
        "Melting Point": "155 °C"
    }
}