{
    "cas_no": "18294-85-4",
    "key_name": "2-Hydroxyadipic acid",
    "cn_name": null,
    "alternate_name": "Hexanedioic acid, 2-hydroxy-;2-Hydroxyhexanedioic acid;α-Hydroxyadipic acid;2-Hydroxyadipic acid;2,3,4-Trideoxyhexaric acid;<span class=\"text-smallcaps\">DL</span>-2-Hydroxyadipic acid",
    "duplicated_cas_no": "77286-86-3",
    "SMILES": "C(C(C(O)=O)O)CCC(O)=O",
    "meta_data": {
        "InChI": "InChI=1S/C6H10O5/c7-4(6(10)11)2-1-3-5(8)9/h4,7H,1-3H2,(H,8,9)(H,10,11)",
        "InChIKey": null,
        "Canonical SMILES": "O=C(O)CCCC(O)C(=O)O",
        "Molecular Formula": "C<sub>6</sub>H<sub>10</sub>O<sub>5</sub>",
        "Molecular Mass": "162.14",
        "Melting Point": "151 °C"
    }
}