{
    "cas_no": "73013-68-0",
    "key_name": "1-(6-Quinolinyl)ethanone",
    "cn_name": null,
    "alternate_name": "Ethanone, 1-(6-quinolinyl)-;Ketone, methyl 6-quinolyl;1-(6-Quinolinyl)ethanone;6-Acetylquinoline;NSC 87613",
    "duplicated_cas_no": "",
    "SMILES": "C(C)(=O)C1=CC2=C(C=C1)N=CC=C2",
    "meta_data": {
        "InChI": "InChI=1S/C11H9NO/c1-8(13)9-4-5-11-10(7-9)3-2-6-12-11/h2-7H,1H3",
        "InChIKey": null,
        "Canonical SMILES": "O=C(C1=CC=C2N=CC=CC2=C1)C",
        "Molecular Formula": "C<sub>11</sub>H<sub>9</sub>NO",
        "Molecular Mass": "171.20",
        "Boiling Point": "145 °C @ Press: 2 Torr",
        "Melting Point": "77 °C"
    }
}