{
    "cas_no": "16634-90-5",
    "key_name": "5-Chloro-2-hydroxy-3-nitrobenzaldehyde",
    "cn_name": "5-氯-3-硝基水杨醛;",
    "alternate_name": "Benzaldehyde, 5-chloro-2-hydroxy-3-nitro-;Salicylaldehyde, 5-chloro-3-nitro-;5-Chloro-2-hydroxy-3-nitrobenzaldehyde;5-Chloro-3-nitrosalicylaldehyde;3-Nitro-5-chlorosalicylaldehyde",
    "duplicated_cas_no": "",
    "SMILES": "N(=O)(=O)C1=C(O)C(C=O)=CC(Cl)=C1",
    "meta_data": {
        "InChI": "InChI=1S/C7H4ClNO4/c8-5-1-4(3-10)7(11)6(2-5)9(12)13/h1-3,11H",
        "InChIKey": null,
        "Canonical SMILES": "O=CC1=CC(Cl)=CC(=C1O)N(=O)=O",
        "Molecular Formula": "C<sub>7</sub>H<sub>4</sub>ClNO<sub>4</sub>",
        "Molecular Mass": "201.56",
        "Melting Point": "108-109 °C"
    }
}