{
    "cas_no": "118-41-2",
    "key_name": "3,4,5-Trimethoxybenzoic acid",
    "cn_name": "3,4,5-三甲氧基苯甲酸;",
    "alternate_name": "Benzoic acid, 3,4,5-trimethoxy-;3,4,5-Trimethoxybenzoic acid;Eudesmic acid;Gallic acid trimethyl ether;Tri-<em>O</em>-methylgallic acid;Trimethylgallic acid;NSC 2525",
    "duplicated_cas_no": "1195674-42-0",
    "SMILES": "O(C)C1=C(OC)C=C(C(O)=O)C=C1OC",
    "meta_data": {
        "InChI": "InChI=1S/C10H12O5/c1-13-7-4-6(10(11)12)5-8(14-2)9(7)15-3/h4-5H,1-3H3,(H,11,12)",
        "InChIKey": null,
        "Canonical SMILES": "O=C(O)C1=CC(OC)=C(OC)C(OC)=C1",
        "Molecular Formula": "C<sub>10</sub>H<sub>12</sub>O<sub>5</sub>",
        "Molecular Mass": "212.20",
        "Melting Point": "172.3 °C"
    }
}