{
    "cas_no": "97-41-6",
    "key_name": "Ethyl chrysanthemate",
    "cn_name": "菊酸乙酯;2,2-二甲基-3-(2-甲基-1-丙烯基)环丙烷羧酸乙酯;",
    "alternate_name": "Cyclopropanecarboxylic acid, 2,2-dimethyl-3-(2-methyl-1-propen-1-yl)-, ethyl ester;Cyclopropanecarboxylic acid, 2,2-dimethyl-3-(2-methylpropenyl)-, ethyl ester;Cyclopropanecarboxylic acid, 2,2-dimethyl-3-(2-methyl-1-propenyl)-, ethyl ester;Chrysanthemummonocarboxylic acid, ethyl ester;Ethyl chrysanthemate;Ethyl chrysanthemumate;Chrysanthemic acid ethyl ester;Chrysanthemumic acid ethyl ester;Ethyl 2,2-dimethyl-3-(2-methyl-1-propenyl)cyclopropanecarboxylate;NSC 10819",
    "duplicated_cas_no": "",
    "SMILES": "C(=C(C)C)C1C(C(OCC)=O)C1(C)C",
    "meta_data": {
        "InChI": "InChI=1S/C12H20O2/c1-6-14-11(13)10-9(7-8(2)3)12(10,4)5/h7,9-10H,6H2,1-5H3",
        "InChIKey": null,
        "Canonical SMILES": "O=C(OCC)C1C(C=C(C)C)C1(C)C",
        "Molecular Formula": "C<sub>12</sub>H<sub>20</sub>O<sub>2</sub>",
        "Molecular Mass": "196.29",
        "Boiling Point": "34-37 °C @ Press: 0.05 Torr"
    }
}