{
    "cas_no": "156-28-5",
    "key_name": "2-Phenylethylamine hydrochloride",
    "cn_name": "2-苯乙胺盐酸盐;beta-苯乙胺盐酸盐;",
    "alternate_name": "Benzeneethanamine, hydrochloride (1:1);Phenethylamine, hydrochloride;Benzeneethanamine, hydrochloride;β-Phenethylamine hydrochloride;β-Phenylethylamine hydrochloride;2-Phenylethylamine hydrochloride;Phenethylammonium chloride;2-Phenethylamine hydrochloride;2-Phenethylammonium chloride;2-Phenylethylammonium chloride;2-Phenylethan-1-amine hydrochloride;Phenethylamine chloride;Phenylethylammonium chloride",
    "duplicated_cas_no": "2606144-89-0",
    "SMILES": "C(CN)C1=CC=CC=C1.Cl",
    "meta_data": {
        "InChI": "InChI=1S/C8H11N.ClH/c9-7-6-8-4-2-1-3-5-8;/h1-5H,6-7,9H2;1H",
        "InChIKey": null,
        "Canonical SMILES": "Cl.NCCC=1C=CC=CC1",
        "Molecular Formula": "C<sub>8</sub>H<sub>11</sub>N.ClH",
        "Molecular Mass": "",
        "Melting Point": "223-224 °C"
    }
}