{
    "cas_no": "617-85-6",
    "key_name": "Triethylstibine",
    "cn_name": "三乙基锑;三乙基锑;",
    "alternate_name": "Stibine, triethyl-;Triethylstibine;Triethylantimony",
    "duplicated_cas_no": "",
    "SMILES": "[Sb](CC)(CC)CC",
    "meta_data": {
        "InChI": "InChI=1S/3C2H5.Sb/c3*1-2;/h3*1H2,2H3;",
        "InChIKey": null,
        "Canonical SMILES": "[Sb](CC)(CC)CC",
        "Molecular Formula": "C<sub>6</sub>H<sub>15</sub>Sb",
        "Molecular Mass": "",
        "Boiling Point": "161.4 °C",
        "Melting Point": "-98 °C",
        "Density": "1.322 g/cm³ @ Temp: 20 °C"
    }
}