{
    "cas_no": "15022-08-9",
    "key_name": "Allyl carbonate",
    "cn_name": "碳酸二烯丙酯;",
    "alternate_name": "Carbonic acid, di-2-propen-1-yl ester;Carbonic acid, di-2-propenyl ester;Carbonic acid, diallyl ester;Diallyl carbonate;Allyl carbonate;NSC 19177",
    "duplicated_cas_no": "",
    "SMILES": "C(OCC=C)(OCC=C)=O",
    "meta_data": {
        "InChI": "InChI=1S/C7H10O3/c1-3-5-9-7(8)10-6-4-2/h3-4H,1-2,5-6H2",
        "InChIKey": null,
        "Canonical SMILES": "O=C(OCC=C)OCC=C",
        "Molecular Formula": "C<sub>7</sub>H<sub>10</sub>O<sub>3</sub>",
        "Molecular Mass": "142.15",
        "Boiling Point": "142 °C",
        "Melting Point": "&lt;25 °C"
    }
}