{
    "cas_no": "5153-71-9",
    "key_name": "<em>trans</em>-4-Bromo-β-nitrostyrene",
    "cn_name": null,
    "alternate_name": "Benzene, 1-bromo-4-[(1<em>E</em>)-2-nitroethenyl]-;Styrene, <em>p</em>-bromo-β-nitro-, (<em>E</em>)-;Benzene, 1-bromo-4-(2-nitroethenyl)-, (<em>E</em>)-;1-Bromo-4-[(1<em>E</em>)-2-nitroethenyl]benzene;<em>trans</em>-<em>p</em>-Bromo-β-nitrostyrene;(<em>E</em>)-1-Bromo-4-(2-nitroethenyl)benzene;1-Bromo-4-((<em>E</em>)-2-nitroethenyl)benzene;(<em>E</em>)-1-(4-Bromophenyl)-2-nitroethene;(<em>E</em>)-2-(4-Bromophenyl)-1-nitroethene;<em>trans</em>-<em>p</em>-Bromonitrostyrene;<em>E</em>-4-Bromo-β-nitrostyrene;<em>trans</em>-4-Bromo-β-nitrostyrene;(E)-1-Bromo-4-(2-nitroethenyl)benzene;(<em>E</em>)-β-Nitro-4-bromostyrene;(E)-4-Bromo-(2-nitrovinyl)benzene;(E)-1-Bromo-4-(2-nitrovinyl)benzene",
    "duplicated_cas_no": "1402933-32-7",
    "SMILES": "C(=C/N(=O)=O)\\C1=CC=C(Br)C=C1",
    "meta_data": {
        "InChI": "InChI=1S/C8H6BrNO2/c9-8-3-1-7(2-4-8)5-6-10(11)12/h1-6H/b6-5+",
        "InChIKey": null,
        "Canonical SMILES": "O=N(=O)C=CC1=CC=C(Br)C=C1",
        "Molecular Formula": "C<sub>8</sub>H<sub>6</sub>BrNO<sub>2</sub>",
        "Molecular Mass": "228.04",
        "Boiling Point": "-148-150 °C",
        "Melting Point": "147 °C"
    }
}