{
    "cas_no": "72-56-0",
    "key_name": "Perthane",
    "cn_name": "乙滴涕;",
    "alternate_name": "Benzene, 1,1′-(2,2-dichloroethylidene)bis[4-ethyl-;Ethane, 1,1-dichloro-2,2-bis(<em>p</em>-ethylphenyl)-;1,1′-(2,2-Dichloroethylidene)bis[4-ethylbenzene];Q 137;1,1-Bis(<em>p</em>-ethylphenyl)-2,2-dichloroethane;2,2-Bis(<em>p</em>-ethylphenyl)-1,1-dichloroethane;1,1-Dichloro-2,2-bis(<em>p</em>-ethylphenyl)ethane;2,2-Dichloro-1,1-bis(<em>p</em>-ethylphenyl)ethane;Di(<em>p</em>-ethylphenyl)dichloroethane;Ethylan (insecticide);Perthane;ENT 17082;<em>p</em>,<em>p</em>′-Perthane;1,1-Dichloro-2,2-bis(4-ethylphenyl)ethane;Ethylan;Ethyl-DDD;1-[2,2-Dichloro-1-(4-ethylphenyl)ethyl]-4-ethylbenzene",
    "duplicated_cas_no": "",
    "SMILES": "C(C(Cl)Cl)(C1=CC=C(CC)C=C1)C2=CC=C(CC)C=C2",
    "meta_data": {
        "InChI": "InChI=1S/C18H20Cl2/c1-3-13-5-9-15(10-6-13)17(18(19)20)16-11-7-14(4-2)8-12-16/h5-12,17-18H,3-4H2,1-2H3",
        "InChIKey": null,
        "Canonical SMILES": "ClC(Cl)C(C1=CC=C(C=C1)CC)C2=CC=C(C=C2)CC",
        "Molecular Formula": "C<sub>18</sub>H<sub>20</sub>Cl<sub>2</sub>",
        "Molecular Mass": "307.26",
        "Melting Point": "56 °C"
    }
}