{
    "cas_no": "592-85-8",
    "key_name": "Mercuric thiocyanate",
    "cn_name": "硫氰酸汞;硫氰酸汞;硫氰化汞;",
    "alternate_name": "Thiocyanic acid, mercury(2+) salt (2:1);Thiocyanic acid, mercury(2+) salt;Mercuric sulfocyanate;Mercuric sulfocyanide;Mercuric thiocyanate;Mercury thiocyanate (Hg(SCN)<sub>2</sub>);Mercury(II) thiocyanate;Mercury di(thiocyanate);Mercuric isothiocyanate",
    "duplicated_cas_no": "7451-91-4;879681-01-3;1267499-88-6",
    "SMILES": "C(#N)S.[Hg]",
    "meta_data": {
        "InChI": "InChI=1S/CHNS.Hg/c2-1-3;/h3H;",
        "InChIKey": null,
        "Canonical SMILES": "[Hg].N#CS",
        "Molecular Formula": "CHNS.<sup>1</sup>/<sub>2</sub>Hg",
        "Molecular Mass": "",
        "Melting Point": "165 °C (decomp)",
        "Density": "~4.0 g/cm³ (approx)"
    }
}