{
    "cas_no": "24544-08-9",
    "key_name": "2,6-Diethyl-4-methylbenzenamine",
    "cn_name": "2,6-二乙基-4-甲基苯胺;DEMA;",
    "alternate_name": "Benzenamine, 2,6-diethyl-4-methyl-;<em>p</em>-Toluidine, 2,6-diethyl-;2,6-Diethyl-4-methylbenzenamine;2,6-Diethyl-4-methylaniline;2,6-Diethyl-<em>p</em>-toluidine;4-Methyl-2,6-diethylaniline;NSC 203033",
    "duplicated_cas_no": "",
    "SMILES": "C(C)C1=C(N)C(CC)=CC(C)=C1",
    "meta_data": {
        "InChI": "InChI=1S/C11H17N/c1-4-9-6-8(3)7-10(5-2)11(9)12/h6-7H,4-5,12H2,1-3H3",
        "InChIKey": null,
        "Canonical SMILES": "NC=1C(=CC(=CC1CC)C)CC",
        "Molecular Formula": "C<sub>11</sub>H<sub>17</sub>N",
        "Molecular Mass": "163.26",
        "Boiling Point": "113-115 °C @ Press: 4.5 Torr"
    }
}