{
    "cas_no": "4743-58-2",
    "key_name": "1,3-Dihydro-3-oxo-1-isobenzofuranacetic acid",
    "cn_name": null,
    "alternate_name": "1-Isobenzofuranacetic acid, 1,3-dihydro-3-oxo-;1-Phthalanacetic acid, 3-oxo-;1,3-Dihydro-3-oxo-1-isobenzofuranacetic acid;3-Phthalideacetic acid;Benzenepropanoic acid, 2-carboxy-β-hydroxy-, γ-lactone;(3-Oxo-1,3-dihydro-2-benzofuran-1-yl)acetic acid;2-(3-Oxo-1<em>H</em>-2-benzofuran-1-yl)acetic acid;2-(3-Oxo-1,3-dihydro-2-benzofuran-1-yl)acetic acid;2-(3-Oxo-1,3-dihydroisobenzofuran-1-yl)acetic acid",
    "duplicated_cas_no": "",
    "SMILES": "C(C(O)=O)C1C=2C(C(=O)O1)=CC=CC2",
    "meta_data": {
        "InChI": "InChI=1S/C10H8O4/c11-9(12)5-8-6-3-1-2-4-7(6)10(13)14-8/h1-4,8H,5H2,(H,11,12)",
        "InChIKey": null,
        "Canonical SMILES": "O=C(O)CC1OC(=O)C=2C=CC=CC21",
        "Molecular Formula": "C<sub>10</sub>H<sub>8</sub>O<sub>4</sub>",
        "Molecular Mass": "192.17",
        "Melting Point": "151 °C"
    }
}