{
    "cas_no": "732-11-6",
    "key_name": "Phosmet",
    "cn_name": "亚胺硫磷;酞胺硫磷;O,O-二甲基-S-(邻苯二甲酰亚氨基甲基)二硫代磷酸酯;",
    "alternate_name": "Phosphorodithioic acid, <em>S</em>-[(1,3-dihydro-1,3-dioxo-2<em>H</em>-isoindol-2-yl)methyl] <em>O</em>,<em>O</em>-dimethyl ester;Phosphorodithioic acid, <em>O</em>,<em>O</em>-dimethyl ester, <em>S</em>-ester with <em>N</em>-(mercaptomethyl)phthalimide;Phosphorodithioic acid, <em>O</em>,<em>O</em>-dimethyl <em>S</em>-phthalimidomethyl ester;R 1504;<em>O</em>,<em>O</em>-Dimethyl <em>S</em>-phthalimidomethyl phosphorodithioate;Imidan;Phthalophos;Prolate;Stauffer R 1504;<em>N</em>-(Mercaptomethyl)phthalimide <em>S</em>-(<em>O</em>,<em>O</em>-dimethyl phosphorodithioate);Decemthion;Phosmet;O,O-Dimethyl S-phthalimidomethyl phosphorodithioate;<em>O</em>,<em>O</em>-Dimethyl <em>S</em>-(phthalimidomethyl) dithiophosphate;PMP (pesticide);<em>S</em>-Phthalimidomethyl <em>O</em>,<em>O</em>-dimethyl phosphorodithioate;Ftalophos;Decemthion P-6;Safidon;PMP;Imidathion;Simidan;Orbisect;Porect;Decemthion EK 20;Decemtion;Ordatox;Fosmet;Starbar GX 118;GWN 1976;Imidan 70WP;MeSH ID: D010706",
    "duplicated_cas_no": "",
    "SMILES": "O=C1C=2C(C(=O)N1CSP(OC)(OC)=S)=CC=CC2",
    "meta_data": {
        "InChI": "InChI=1S/C11H12NO4PS2/c1-15-17(18,16-2)19-7-12-10(13)8-5-3-4-6-9(8)11(12)14/h3-6H,7H2,1-2H3",
        "InChIKey": null,
        "Canonical SMILES": "O=C1C=2C=CC=CC2C(=O)N1CSP(=S)(OC)OC",
        "Molecular Formula": "C<sub>11</sub>H<sub>12</sub>NO<sub>4</sub>PS<sub>2</sub>",
        "Molecular Mass": "317.32",
        "Melting Point": "71.9 °C",
        "Density": "1.03 g/cm³ @ Temp: 20 °C"
    }
}