{
    "cas_no": "928-45-0",
    "key_name": "Butyl nitrate",
    "cn_name": "硝酸丁酯;",
    "alternate_name": "Nitric acid, butyl ester;Butyl nitrate;<em>n</em>-Butyl nitrate",
    "duplicated_cas_no": "",
    "SMILES": "O(CCCC)N(=O)=O",
    "meta_data": {
        "InChI": "InChI=1S/C4H9NO3/c1-2-3-4-8-5(6)7/h2-4H2,1H3",
        "InChIKey": null,
        "Canonical SMILES": "O=N(=O)OCCCC",
        "Molecular Formula": "C<sub>4</sub>H<sub>9</sub>NO<sub>3</sub>",
        "Molecular Mass": "119.12",
        "Boiling Point": "133 °C",
        "Melting Point": "&lt;0 °C",
        "Density": "1.10153 g/cm³ @ Temp: 20 °C"
    }
}