{
    "cas_no": "5870-38-2",
    "key_name": "Diethyl 2,5-dihydroxyterephthalate",
    "cn_name": "2,5-二羟基-1,4-苯二甲酸二乙酯;",
    "alternate_name": "1,4-Benzenedicarboxylic acid, 2,5-dihydroxy-, 1,4-diethyl ester;Terephthalic acid, 2,5-dihydroxy-, diethyl ester;1,4-Benzenedicarboxylic acid, 2,5-dihydroxy-, diethyl ester;Diethyl 2,5-dihydroxyterephthalate;2,5-Dihydroxyterephthalic acid diethyl ester;NSC 177975;Diethyl 2,5-dihydroxy-1,4-terephthalate",
    "duplicated_cas_no": "",
    "SMILES": "C(OCC)(=O)C1=C(O)C=C(C(OCC)=O)C(O)=C1",
    "meta_data": {
        "InChI": "InChI=1S/C12H14O6/c1-3-17-11(15)7-5-10(14)8(6-9(7)13)12(16)18-4-2/h5-6,13-14H,3-4H2,1-2H3",
        "InChIKey": null,
        "Canonical SMILES": "O=C(OCC)C1=CC(O)=C(C=C1O)C(=O)OCC",
        "Molecular Formula": "C<sub>12</sub>H<sub>14</sub>O<sub>6</sub>",
        "Molecular Mass": "254.24",
        "Melting Point": "125-127 °C"
    }
}