{
    "cas_no": "123-00-2",
    "key_name": "4-(3-Aminopropyl)morpholine",
    "cn_name": "N-(3-氨丙基)吗啉;3-吗啉-1-丙胺;4-吗啉基丙胺;",
    "alternate_name": "4-Morpholinepropanamine;Morpholine, 4-(3-aminopropyl)-;γ-Morpholinopropylamine;<em>N</em>-(3-Aminopropyl)morpholine;4-(γ-Aminopropyl)morpholine;1-Amino-3-morpholinopropane;3-Morpholinopropylamine;3-Amino-1-(morpholino)propane;4-(3-Aminopropyl)morpholine;3-(4-Morpholinyl)propylamine;3-(<em>N</em>-Morpholino)-1-aminopropane;3-Morpholinopropanamine;3-(Morpholino)-<em>n</em>-propylamine;3-(4-Morpholinyl)propanamine;3-(4-Morpholinyl)-1-propanamine;1-Morpholino-3-aminopropane;NSC 1081;3-(4-Morpholinyl)-1-propylamine;3-(Morpholin-4-yl)propylamine;3-(4-Morpholino)propylamine;[3-(4-Morpholinyl)propan-1-yl]amine;[3-(Morpholino)propan-1-yl]amine;<em>N</em>-Morpholino-3-propylamine;3-(Morpholin-4-yl)propan-1-amine",
    "duplicated_cas_no": "",
    "SMILES": "C(CCN)N1CCOCC1",
    "meta_data": {
        "InChI": "InChI=1S/C7H16N2O/c8-2-1-3-9-4-6-10-7-5-9/h1-8H2",
        "InChIKey": null,
        "Canonical SMILES": "O1CCN(CC1)CCCN",
        "Molecular Formula": "C<sub>7</sub>H<sub>16</sub>N<sub>2</sub>O",
        "Molecular Mass": "144.21",
        "Boiling Point": "220 °C",
        "Melting Point": "-15 °C",
        "Density": "0.9902 g/cm³ @ Temp: 15 °C"
    }
}