{
    "cas_no": "13402-02-3",
    "key_name": "Hexadecyl acrylate",
    "cn_name": null,
    "alternate_name": "2-Propenoic acid, hexadecyl ester;Acrylic acid, hexadecyl ester;1-Hexadecanol, acrylate;Palmityl acrylate;Hexadecyl acrylate;Cetyl acrylate;<em>n</em>-Hexadecyl acrylate;NSC 72788;Photomer 4816;Hexadecanyl acrylate;CD 585;Blemmer CA;Komerate A 169",
    "duplicated_cas_no": "199685-43-3;917592-28-0;1020213-44-8",
    "SMILES": "C(CCCCCCCCCCCC)CCCOC(C=C)=O",
    "meta_data": {
        "InChI": "InChI=1S/C19H36O2/c1-3-5-6-7-8-9-10-11-12-13-14-15-16-17-18-21-19(20)4-2/h4H,2-3,5-18H2,1H3",
        "InChIKey": null,
        "Canonical SMILES": "O=C(OCCCCCCCCCCCCCCCC)C=C",
        "Molecular Formula": "C<sub>19</sub>H<sub>36</sub>O<sub>2</sub>",
        "Molecular Mass": "296.49",
        "Boiling Point": "148 °C @ Press: 0.04 Torr",
        "Melting Point": "24 °C",
        "Density": "0.8628 g/cm³ @ Temp: 30 °C"
    }
}