{
    "cas_no": "104-95-0",
    "key_name": "4-Bromothioanisole",
    "cn_name": "4-溴硫代苯甲醚;对溴茴香硫醚;",
    "alternate_name": "Benzene, 1-bromo-4-(methylthio)-;Sulfide, <em>p</em>-bromophenyl methyl;1-Bromo-4-(methylthio)benzene;<em>p</em>-Bromophenyl methyl sulfide;4-Bromothioanisole;Methyl 4-bromophenyl sulfide;4-Bromo-1-(methylthio)benzene;<em>p</em>-Bromo(methylthio)benzene;<em>p</em>-Bromothioanisole;4-Bromophenyl methyl sulfide;<em>p</em>-(Methylthio)phenyl bromide;Methyl <em>p</em>-bromophenyl sulfide;1-Bromo-4-(methylsulfanyl)benzene;NSC 73383;4-(Methylthio)bromobenzene;4-Methylthiophenyl bromide;4-(Methylthio)-1-bromobenzene;(4-Bromophenyl)(methyl)sulfane",
    "duplicated_cas_no": "87494-90-4",
    "SMILES": "S(C)C1=CC=C(Br)C=C1",
    "meta_data": {
        "InChI": "InChI=1S/C7H7BrS/c1-9-7-4-2-6(8)3-5-7/h2-5H,1H3",
        "InChIKey": null,
        "Canonical SMILES": "BrC1=CC=C(SC)C=C1",
        "Molecular Formula": "C<sub>7</sub>H<sub>7</sub>BrS",
        "Molecular Mass": "203.10",
        "Boiling Point": "230-232 °C",
        "Melting Point": "32 °C",
        "Density": "1.465 g/cm³ @ Temp: 1 °C"
    }
}