{
    "cas_no": "7440-15-5",
    "key_name": "Rhenium",
    "cn_name": "铼,粉状;铼棒;",
    "alternate_name": "Rhenium;Rhenium element;NSC 600662;MeSH ID: D012211",
    "duplicated_cas_no": "",
    "SMILES": "[Re]",
    "meta_data": {
        "InChI": "InChI=1S/Re",
        "InChIKey": null,
        "Canonical SMILES": "[Re]",
        "Molecular Formula": "Re",
        "Molecular Mass": "",
        "Melting Point": "3440 °C",
        "Density": "20.9 g/cm³"
    }
}