{
    "cas_no": "94-21-3",
    "key_name": "3-[(4-Formylphenyl)methylamino]propanenitrile",
    "cn_name": "4-(N-甲基-N-氰乙基)氨基苯甲醛;N-甲基-N-氰乙基-4-氨基苯甲醛;",
    "alternate_name": "Propanenitrile, 3-[(4-formylphenyl)methylamino]-;Propionitrile, 3-(<em>p</em>-formyl-<em>N</em>-methylanilino)-;Benzaldehyde, <em>p</em>-[(2-cyanoethyl)methylamino]-;3-[(4-Formylphenyl)methylamino]propanenitrile;4-[(2-Cyanoethyl)methylamino]benzaldehyde;4-(<em>N</em>-Methyl-<em>N</em>-(2-cyanoethyl)amino)benzaldehyde;<em>N</em>-Methyl-<em>N</em>-(2-cyanoethyl)-4-aminobenzaldehyde;4-(<em>N</em>-Methyl-<em>N</em>-(cyanoethyl)amino)benzaldehyde;4-Cyanoethylmethylaminobenzaldehyde",
    "duplicated_cas_no": "",
    "SMILES": "N(CCC#N)(C)C1=CC=C(C=O)C=C1",
    "meta_data": {
        "InChI": "InChI=1S/C11H12N2O/c1-13(8-2-7-12)11-5-3-10(9-14)4-6-11/h3-6,9H,2,8H2,1H3",
        "InChIKey": null,
        "Canonical SMILES": "N#CCCN(C1=CC=C(C=O)C=C1)C",
        "Molecular Formula": "C<sub>11</sub>H<sub>12</sub>N<sub>2</sub>O",
        "Molecular Mass": "188.23",
        "Melting Point": "68-71 °C"
    }
}