{
    "cas_no": "536760-32-4",
    "key_name": "4-Iodo-1-(phenylmethyl)-1<em>H</em>-imidazole",
    "cn_name": "1-苄基-4-碘咪唑;",
    "alternate_name": "1<em>H</em>-Imidazole, 4-iodo-1-(phenylmethyl)-;4-Iodo-1-(phenylmethyl)-1<em>H</em>-imidazole;1-Benzyl-4-iodo-1<em>H</em>-imidazole;1-Benzyl-4-iodoimidazole",
    "duplicated_cas_no": "",
    "SMILES": "C(N1C=NC(I)=C1)C2=CC=CC=C2",
    "meta_data": {
        "InChI": "InChI=1S/C10H9IN2/c11-10-7-13(8-12-10)6-9-4-2-1-3-5-9/h1-5,7-8H,6H2",
        "InChIKey": null,
        "Canonical SMILES": "IC=1N=CN(C1)CC=2C=CC=CC2",
        "Molecular Formula": "C<sub>10</sub>H<sub>9</sub>IN<sub>2</sub>",
        "Molecular Mass": "284.10",
        "Melting Point": "99-100 °C"
    }
}