{
    "cas_no": "609-86-9",
    "key_name": "2-Amino-3,5-diiodobenzoic acid",
    "cn_name": "2-氨基-3,5-二碘苯甲酸;",
    "alternate_name": "Benzoic acid, 2-amino-3,5-diiodo-;Anthranilic acid, 3,5-diiodo-;2-Amino-3,5-diiodobenzoic acid;3,5-Diiodoanthranilic acid;NSC 4508",
    "duplicated_cas_no": "",
    "SMILES": "C(O)(=O)C1=C(N)C(I)=CC(I)=C1",
    "meta_data": {
        "InChI": "InChI=1S/C7H5I2NO2/c8-3-1-4(7(11)12)6(10)5(9)2-3/h1-2H,10H2,(H,11,12)",
        "InChIKey": null,
        "Canonical SMILES": "O=C(O)C=1C=C(I)C=C(I)C1N",
        "Molecular Formula": "C<sub>7</sub>H<sub>5</sub>I<sub>2</sub>NO<sub>2</sub>",
        "Molecular Mass": "388.93",
        "Melting Point": "230-232 °C"
    }
}