{
    "cas_no": "25876-10-2",
    "key_name": "Gentamicin C<sub>1</sub>",
    "cn_name": null,
    "alternate_name": "<span class=\"text-smallcaps\">D</smallcap>-Streptamine, <em>O</em>-2-amino-2,3,4,6,7-pentadeoxy-6-(methylamino)-α-<smallcap>D</smallcap>-<em>ribo</em>-heptopyranosyl-(1→4)-<em>O</em>-[3-deoxy-4-<em>C</em>-methyl-3-(methylamino)-β-<smallcap>L</span>-arabinopyranosyl-(1→6)]-2-deoxy-;Gentamicin C<sub>1</sub>;<em>O</em>-2-Amino-2,3,4,6,7-pentadeoxy-6-(methylamino)-α-<span class=\"text-smallcaps\">D</smallcap>-<em>ribo</em>-heptopyranosyl-(1→4)-<em>O</em>-[3-deoxy-4-<em>C</em>-methyl-3-(methylamino)-β-<smallcap>L</smallcap>-arabinopyranosyl-(1→6)]-2-deoxy-<smallcap>D</span>-streptamine",
    "duplicated_cas_no": "11087-77-7;1120351-21-4;1120351-23-6;1120351-24-7;1260781-82-5",
    "SMILES": "O([C@@H]1[C@@H](O)[C@H](O[C@H]2O[C@]([C@H](NC)C)(CC[C@H]2N)[H])[C@@H](N)C[C@H]1N)[C@@H]3[C@H](O)[C@@H](NC)[C@@](C)(O)CO3",
    "meta_data": {
        "InChI": "InChI=1S/C21H43N5O7/c1-9(25-3)13-6-5-10(22)19(31-13)32-16-11(23)7-12(24)17(14(16)27)33-20-15(28)18(26-4)21(2,29)8-30-20/h9-20,25-29H,5-8,22-24H2,1-4H3/t9-,10-,11+,12-,13+,14+,15-,16-,17+,18-,19-,20-,21+/m1/s1",
        "InChIKey": null,
        "Canonical SMILES": "OC1C(OC2OCC(O)(C)C(NC)C2O)C(N)CC(N)C1OC3OC(CCC3N)C(NC)C",
        "Molecular Formula": "C<sub>21</sub>H<sub>43</sub>N<sub>5</sub>O<sub>7</sub>",
        "Molecular Mass": "477.60",
        "Melting Point": "94-100 °C"
    }
}