{
    "cas_no": "5400-80-6",
    "key_name": "2-Bromo-1-indanol",
    "cn_name": "2-溴-1-茚醇;2-溴-1-茚满醇;",
    "alternate_name": "1<em>H</em>-Inden-1-ol, 2-bromo-2,3-dihydro-;1-Indanol, 2-bromo-;2-Bromo-2,3-dihydro-1<em>H</em>-inden-1-ol;2-Bromo-1-indanol;NSC 10389",
    "duplicated_cas_no": "",
    "SMILES": "OC1C=2C(CC1Br)=CC=CC2",
    "meta_data": {
        "InChI": "InChI=1S/C9H9BrO/c10-8-5-6-3-1-2-4-7(6)9(8)11/h1-4,8-9,11H,5H2",
        "InChIKey": null,
        "Canonical SMILES": "BrC1CC=2C=CC=CC2C1O",
        "Molecular Formula": "C<sub>9</sub>H<sub>9</sub>BrO",
        "Molecular Mass": "213.07",
        "Melting Point": "128-129 °C"
    }
}