{
    "cas_no": "61501-04-0",
    "key_name": "α-(1,1-Dimethylethyl)benzenemethanamine",
    "cn_name": null,
    "alternate_name": "Benzenemethanamine, α-(1,1-dimethylethyl)-;Benzylamine, α-<em>tert</em>-butyl-;α-(1,1-Dimethylethyl)benzenemethanamine;α-<em>tert</em>-Butylbenzylamine;2,2-Dimethyl-1-phenylpropylamine;2,2-Dimethyl-1-phenyl-propylamine;2,2-Dimethyl-1-phenylpropan-1-amine",
    "duplicated_cas_no": "42070-95-1",
    "SMILES": "C(C(C)(C)C)(N)C1=CC=CC=C1",
    "meta_data": {
        "InChI": "InChI=1S/C11H17N/c1-11(2,3)10(12)9-7-5-4-6-8-9/h4-8,10H,12H2,1-3H3",
        "InChIKey": null,
        "Canonical SMILES": "NC(C=1C=CC=CC1)C(C)(C)C",
        "Molecular Formula": "C<sub>11</sub>H<sub>17</sub>N",
        "Molecular Mass": "163.26",
        "Boiling Point": "115 °C @ Press: 22 Torr"
    }
}