{
    "cas_no": "55444-68-3",
    "key_name": "(3a<em>R</em>,4<em>R</em>,5<em>R</em>,6a<em>S</em>)-5-(Benzoyloxy)hexahydro-4-[(1<em>E</em>,3<em>S</em>)-3-hydroxy-5-phenyl-1-penten-1-yl]-2<em>H</em>-cyclopenta[<em>b</em>]furan-2-one",
    "cn_name": null,
    "alternate_name": "2<em>H</em>-Cyclopenta[<em>b</em>]furan-2-one, 5-(benzoyloxy)hexahydro-4-[(1<em>E</em>,3<em>S</em>)-3-hydroxy-5-phenyl-1-penten-1-yl]-, (3a<em>R</em>,4<em>R</em>,5<em>R</em>,6a<em>S</em>)-;2<em>H</em>-Cyclopenta[<em>b</em>]furan-2-one, 5-(benzoyloxy)hexahydro-4-(3-hydroxy-5-phenyl-1-pentenyl)-, [3a<em>R</em>-[3aα,4a(1<em>E</em>,3<em>S</em>*),5β,6aα]]-;2<em>H</em>-Cyclopenta[<em>b</em>]furan-2-one, 5-(benzoyloxy)hexahydro-4-[(1<em>E</em>,3<em>S</em>)-3-hydroxy-5-phenyl-1-pentenyl]-, (3a<em>R</em>,4<em>R</em>,5<em>R</em>,6a<em>S</em>)-;(3a<em>R</em>,4<em>R</em>,5<em>R</em>,6a<em>S</em>)-5-(Benzoyloxy)hexahydro-4-[(1<em>E</em>,3<em>S</em>)-3-hydroxy-5-phenyl-1-penten-1-yl]-2<em>H</em>-cyclopenta[<em>b</em>]furan-2-one;PGX 7;(3<em>a</em>R,4R,5R,6<em>a</em>S)-4-((3S,E)-3-Hydroxy-5-phenyl-1-penten-1-yl)-2-oxohexahydro-2<em>H</em>-cyclopenta[<em>b</em>]furan-5-yl benzoate",
    "duplicated_cas_no": "",
    "SMILES": "C(=C/[C@H](CCC1=CC=CC=C1)O)\\[C@@H]2[C@@]3([C@](C[C@H]2OC(=O)C4=CC=CC=C4)(OC(=O)C3)[H])[H]",
    "meta_data": {
        "InChI": "InChI=1S/C25H26O5/c26-19(12-11-17-7-3-1-4-8-17)13-14-20-21-15-24(27)29-23(21)16-22(20)30-25(28)18-9-5-2-6-10-18/h1-10,13-14,19-23,26H,11-12,15-16H2/b14-13+/t19-,20+,21+,22+,23-/m0/s1",
        "InChIKey": null,
        "Canonical SMILES": "O=C(OC1CC2OC(=O)CC2C1C=CC(O)CCC=3C=CC=CC3)C=4C=CC=CC4",
        "Molecular Formula": "C<sub>25</sub>H<sub>26</sub>O<sub>5</sub>",
        "Molecular Mass": "406.47",
        "Melting Point": "78-81 °C"
    }
}