{
    "cas_no": "2949-42-0",
    "key_name": "Tetrakis(1-methylethyl)stannane",
    "cn_name": "四异丙基锡;",
    "alternate_name": "Stannane, tetrakis(1-methylethyl)-;Stannane, tetraisopropyl-;Tin, tetraisopropyl-;Tetrakis(1-methylethyl)stannane;Tetraisopropyltin;Tetraisopropylstannane",
    "duplicated_cas_no": "",
    "SMILES": "[Sn](C(C)C)(C(C)C)(C(C)C)C(C)C",
    "meta_data": {
        "InChI": "InChI=1S/4C3H7.Sn/c4*1-3-2;/h4*3H,1-2H3;",
        "InChIKey": null,
        "Canonical SMILES": "CC(C)[Sn](C(C)C)(C(C)C)C(C)C",
        "Molecular Formula": "C<sub>12</sub>H<sub>28</sub>Sn",
        "Molecular Mass": "291.06",
        "Boiling Point": "89 °C @ Press: 4 Torr",
        "Density": "1.124 g/cm³"
    }
}