{
    "cas_no": "38675-10-4",
    "key_name": "<em>N</em>-[(1,1-Dimethylethoxy)carbonyl]-<span class=\"text-smallcaps\">D</smallcap>-phenylalanyl-<smallcap>L</span>-proline",
    "cn_name": null,
    "alternate_name": "<span class=\"text-smallcaps\">L</smallcap>-Proline, <em>N</em>-[(1,1-dimethylethoxy)carbonyl]-<smallcap>D</span>-phenylalanyl-;<span class=\"text-smallcaps\">L</smallcap>-Proline, 1-[<em>N</em>-[(1,1-dimethylethoxy)carbonyl]-<smallcap>D</span>-phenylalanyl]-;<em>N</em>-[(1,1-Dimethylethoxy)carbonyl]-<span class=\"text-smallcaps\">D</smallcap>-phenylalanyl-<smallcap>L</span>-proline;<em>tert</em>-Butoxycarbonyl-<span class=\"text-smallcaps\">D</smallcap>-phenylalanyl-<smallcap>L</span>-proline;<em>N</em>-(<em>tert</em>-Butoxycarbonyl)-<span class=\"text-smallcaps\">D</smallcap>-phenylalanyl-<smallcap>L</span>-proline",
    "duplicated_cas_no": "",
    "SMILES": "C([C@@H](CC1=CC=CC=C1)NC(OC(C)(C)C)=O)(=O)N2[C@H](C(O)=O)CCC2",
    "meta_data": {
        "InChI": "InChI=1S/C19H26N2O5/c1-19(2,3)26-18(25)20-14(12-13-8-5-4-6-9-13)16(22)21-11-7-10-15(21)17(23)24/h4-6,8-9,14-15H,7,10-12H2,1-3H3,(H,20,25)(H,23,24)/t14-,15+/m1/s1",
        "InChIKey": null,
        "Canonical SMILES": "O=C(OC(C)(C)C)NC(C(=O)N1CCCC1C(=O)O)CC=2C=CC=CC2",
        "Molecular Formula": "C<sub>19</sub>H<sub>26</sub>N<sub>2</sub>O<sub>5</sub>",
        "Molecular Mass": "362.42",
        "Melting Point": "171-174 °C"
    }
}