{
    "cas_no": "528-21-2",
    "key_name": "Gallacetophenone",
    "cn_name": "2\",3\",4\"-三羟基苯乙酮;",
    "alternate_name": "Ethanone, 1-(2,3,4-trihydroxyphenyl)-;Acetophenone, 2′,3′,4′-trihydroxy-;Gallacetophenone;1-(2,3,4-Trihydroxyphenyl)ethanone;C.I. 57000;Alizarine Yellow C;Alizarin Yellow C;2′,3′,4′-Trihydroxyacetophenone;4-Acetylpyrogallol;NSC 66553;1-(2,3,4-Trihydroxyphenyl)ethan-1-one",
    "duplicated_cas_no": "",
    "SMILES": "C(C)(=O)C1=C(O)C(O)=C(O)C=C1",
    "meta_data": {
        "InChI": "InChI=1S/C8H8O4/c1-4(9)5-2-3-6(10)8(12)7(5)11/h2-3,10-12H,1H3",
        "InChIKey": null,
        "Canonical SMILES": "O=C(C1=CC=C(O)C(O)=C1O)C",
        "Molecular Formula": "C<sub>8</sub>H<sub>8</sub>O<sub>4</sub>",
        "Molecular Mass": "168.15",
        "Melting Point": "173 °C"
    }
}