{
    "cas_no": "24372-49-4",
    "key_name": "5-(4-Morpholinyl)-2-thiophenecarboxaldehyde",
    "cn_name": null,
    "alternate_name": "2-Thiophenecarboxaldehyde, 5-(4-morpholinyl)-;2-Thiophenecarboxaldehyde, 5-morpholino-;5-(4-Morpholinyl)-2-thiophenecarboxaldehyde;5-Morpholino-2-thiophenecarboxaldehyde",
    "duplicated_cas_no": "",
    "SMILES": "C(=O)C=1SC(=CC1)N2CCOCC2",
    "meta_data": {
        "InChI": "InChI=1S/C9H11NO2S/c11-7-8-1-2-9(13-8)10-3-5-12-6-4-10/h1-2,7H,3-6H2",
        "InChIKey": null,
        "Canonical SMILES": "O=CC=1SC(=CC1)N2CCOCC2",
        "Molecular Formula": "C<sub>9</sub>H<sub>11</sub>NO<sub>2</sub>S",
        "Molecular Mass": "197.25",
        "Melting Point": "127 °C"
    }
}