{
    "cas_no": "35065-29-3",
    "key_name": "PCB 180",
    "cn_name": "2,2,3,4,4,5,5-七氯联苯;2,2,3,4,4,5,5-七氯联苯PCBNo180;",
    "alternate_name": "1,1′-Biphenyl, 2,2′,3,4,4′,5,5′-heptachloro-;2,2′,3,4,4′,5,5′-Heptachloro-1,1′-biphenyl;2,2′,3,4,4′,5,5′-Heptachlorobiphenyl;2,3,4,5,2′,4′,5′-Heptachlorobiphenyl;PCB 180;K 180;CB 180;DTXSID6038299",
    "duplicated_cas_no": "",
    "SMILES": "ClC1=C(C=C(Cl)C(Cl)=C1Cl)C2=C(Cl)C=C(Cl)C(Cl)=C2",
    "meta_data": {
        "InChI": "InChI=1S/C12H3Cl7/c13-6-3-8(15)7(14)1-4(6)5-2-9(16)11(18)12(19)10(5)17/h1-3H",
        "InChIKey": null,
        "Canonical SMILES": "ClC=1C=C(Cl)C(=CC1Cl)C=2C=C(Cl)C(Cl)=C(Cl)C2Cl",
        "Molecular Formula": "C<sub>12</sub>H<sub>3</sub>Cl<sub>7</sub>",
        "Molecular Mass": "395.32",
        "Boiling Point": "240-280 °C",
        "Melting Point": "114 °C",
        "Density": "1.64 g/cm³ @ Temp: 65 °C"
    }
}