{
    "cas_no": "70356-09-1",
    "key_name": "Avobenzone",
    "cn_name": null,
    "alternate_name": "1,3-Propanedione, 1-[4-(1,1-dimethylethyl)phenyl]-3-(4-methoxyphenyl)-;1-[4-(1,1-Dimethylethyl)phenyl]-3-(4-methoxyphenyl)-1,3-propanedione;Parsol 1789;Parsol A;Avobenzone;4-(1,1-Dimethylethyl)-4′-methoxydibenzoylmethane;Photoplex;4-<em>tert</em>-Butyl-4′-methoxydibenzoylmethane;4-Methoxy-4′-<em>tert</em>-butyldibenzoylmethane;1-(4-<em>tert</em>-Butylphenyl)-3-(4-methoxyphenyl)propane-1,3-dione;Butylmethoxydibenzoylmethane;Eusolex 9020;Uvinul BMBM;Parsol RTM 1789;NeoHeliopan 357;1-(4-Methoxyphenyl)-3-(4-<em>tert</em>-butylphenyl)propane-1,3-dione;Escalol 517;1-(4-<em>tert</em>-Butylphenyl)-3-(4-methoxyphenyl)propan-1,3-dione;1-(4-tert-Butylphenyl)-3-(4-methoxyphenyl)propane-1,3-dione;Solarom BMBM;1-(4′-tert-Butylphenyl)-3-(4′-methoxyphenyl)propane-1,3-dione;3-(4-Methoxyphenyl)-1-(4-<em>tert</em>-butylphenyl)-1,3-propanedione;Milestab 1789;B 3382",
    "duplicated_cas_no": "112725-59-4;87075-14-7;185160-18-3",
    "SMILES": "C(CC(=O)C1=CC=C(OC)C=C1)(=O)C2=CC=C(C(C)(C)C)C=C2",
    "meta_data": {
        "InChI": "InChI=1S/C20H22O3/c1-20(2,3)16-9-5-14(6-10-16)18(21)13-19(22)15-7-11-17(23-4)12-8-15/h5-12H,13H2,1-4H3",
        "InChIKey": null,
        "Canonical SMILES": "O=C(C1=CC=C(OC)C=C1)CC(=O)C2=CC=C(C=C2)C(C)(C)C",
        "Molecular Formula": "C<sub>20</sub>H<sub>22</sub>O<sub>3</sub>",
        "Molecular Mass": "310.39",
        "Melting Point": "83.5 °C"
    }
}