{
    "cas_no": "515-84-4",
    "key_name": "Ethyl trichloroacetate",
    "cn_name": "三氯乙酸乙酯;",
    "alternate_name": "Acetic acid, 2,2,2-trichloro-, ethyl ester;Acetic acid, trichloro-, ethyl ester;Ethyl trichloroacetate;NSC 8829",
    "duplicated_cas_no": "",
    "SMILES": "C(C(Cl)(Cl)Cl)(OCC)=O",
    "meta_data": {
        "InChI": "InChI=1S/C4H5Cl3O2/c1-2-9-3(8)4(5,6)7/h2H2,1H3",
        "InChIKey": null,
        "Canonical SMILES": "O=C(OCC)C(Cl)(Cl)Cl",
        "Molecular Formula": "C<sub>4</sub>H<sub>5</sub>Cl<sub>3</sub>O<sub>2</sub>",
        "Molecular Mass": "191.44",
        "Boiling Point": "167.5 °C",
        "Density": "1.3886 g/cm³ @ Temp: 20 °C"
    }
}