{
    "cas_no": "3310-41-6",
    "key_name": "6-Hydrazinyl-2(1<em>H</em>)-pyrimidinone",
    "cn_name": "2-羟基-4-肼基嘧啶;2-羟基-4-肼基嘧啶;",
    "alternate_name": "2(1<em>H</em>)-Pyrimidinone, 6-hydrazinyl-;2(1<em>H</em>)-Pyrimidinone, 4-hydrazino-;2,4(1<em>H</em>,3<em>H</em>)-Pyrimidinedione, 4-hydrazone;6-Hydrazinyl-2(1<em>H</em>)-pyrimidinone;<em>N</em><sup>4</sup>-Aminocytosine;4-(Hydrazino)pyrimidin-2(1<em>H</em>)-one",
    "duplicated_cas_no": "",
    "SMILES": "N(N)=C1NC(=O)NC=C1",
    "meta_data": {
        "InChI": "InChI=1S/C4H6N4O/c5-8-3-1-2-6-4(9)7-3/h1-2H,5H2,(H2,6,7,8,9)",
        "InChIKey": null,
        "Canonical SMILES": "O=C1NC=CC(=NN)N1",
        "Molecular Formula": "C<sub>4</sub>H<sub>6</sub>N<sub>4</sub>O",
        "Molecular Mass": "126.12",
        "Melting Point": "305-310 °C (decomp)"
    }
}