{
    "cas_no": "66584-32-5",
    "key_name": "3-Bromo-<em>N</em>-methylbenzenamine",
    "cn_name": null,
    "alternate_name": "Benzenamine, 3-bromo-<em>N</em>-methyl-;3-Bromo-<em>N</em>-methylbenzenamine;3-Bromo-<em>N</em>-methylaniline;<em>N</em>-(3-Bromophenyl)-<em>N</em>-methylamine;(3-Bromophenyl)methylamine;<em>N</em>-Methyl-3-bromoaniline;(3-Bromophenyl)-<em>N</em>-methylamine",
    "duplicated_cas_no": "",
    "SMILES": "N(C)C1=CC(Br)=CC=C1",
    "meta_data": {
        "InChI": "InChI=1S/C7H8BrN/c1-9-7-4-2-3-6(8)5-7/h2-5,9H,1H3",
        "InChIKey": null,
        "Canonical SMILES": "BrC1=CC=CC(=C1)NC",
        "Molecular Formula": "C<sub>7</sub>H<sub>8</sub>BrN",
        "Molecular Mass": "186.05",
        "Boiling Point": "~253 °C (approx) @ Press: 760 Torr"
    }
}