{
    "cas_no": "30090-17-6",
    "key_name": "4-(2-Methylpropyl)benzenamine",
    "cn_name": null,
    "alternate_name": "Benzenamine, 4-(2-methylpropyl)-;Aniline, <em>p</em>-isobutyl-;4-(2-Methylpropyl)benzenamine;<em>p</em>-Isobutylaniline;4-Isobutylaniline",
    "duplicated_cas_no": "",
    "SMILES": "C(C(C)C)C1=CC=C(N)C=C1",
    "meta_data": {
        "InChI": "InChI=1S/C10H15N/c1-8(2)7-9-3-5-10(11)6-4-9/h3-6,8H,7,11H2,1-2H3",
        "InChIKey": null,
        "Canonical SMILES": "NC1=CC=C(C=C1)CC(C)C",
        "Molecular Formula": "C<sub>10</sub>H<sub>15</sub>N",
        "Molecular Mass": "149.23",
        "Boiling Point": "238 °C"
    }
}