{
    "cas_no": "3346-63-2",
    "key_name": "3-Nitro-2,6-pyridinediamine",
    "cn_name": null,
    "alternate_name": "2,6-Pyridinediamine, 3-nitro-;Pyridine, 2,6-diamino-3-nitro-;3-Nitro-2,6-pyridinediamine;2,6-Diamino-3-nitropyridine;NSC 404692",
    "duplicated_cas_no": "",
    "SMILES": "N(=O)(=O)C1=C(N)N=C(N)C=C1",
    "meta_data": {
        "InChI": "InChI=1S/C5H6N4O2/c6-4-2-1-3(9(10)11)5(7)8-4/h1-2H,(H4,6,7,8)",
        "InChIKey": null,
        "Canonical SMILES": "O=N(=O)C1=CC=C(N=C1N)N",
        "Molecular Formula": "C<sub>5</sub>H<sub>6</sub>N<sub>4</sub>O<sub>2</sub>",
        "Molecular Mass": "154.13",
        "Melting Point": "230 °C"
    }
}