{
    "cas_no": "3377-92-2",
    "key_name": "Vinyl pivalate",
    "cn_name": "2,2-二甲基丙酸乙烯酯;",
    "alternate_name": "Propanoic acid, 2,2-dimethyl-, ethenyl ester;Pivalic acid, vinyl ester;Vinyl pivalate;Vinyl trimethylacetate;Vynate Neo 5;VeoVa 5;NSC 83563",
    "duplicated_cas_no": "",
    "SMILES": "C(C(C)(C)C)(OC=C)=O",
    "meta_data": {
        "InChI": "InChI=1S/C7H12O2/c1-5-9-6(8)7(2,3)4/h5H,1H2,2-4H3",
        "InChIKey": null,
        "Canonical SMILES": "O=C(OC=C)C(C)(C)C",
        "Molecular Formula": "C<sub>7</sub>H<sub>12</sub>O<sub>2</sub>",
        "Molecular Mass": "128.17",
        "Boiling Point": "113-114 °C @ Press: 760 Torr",
        "Density": "0.882 g/cm³ @ Temp: 20 °C"
    }
}