{
    "cas_no": "1227-49-2",
    "key_name": "3,3′-Dithiobis[benzoic acid]",
    "cn_name": null,
    "alternate_name": "Benzoic acid, 3,3′-dithiobis-;Benzoic acid, 3,3′-dithiodi-;3,3′-Dithiobis[benzoic acid];3,3′-Dithiodibenzoic acid;NSC 113997;3,3′-Disulfanediyldibenzoic acid;3-[(3-Carboxyphenyl)disulfanyl]benzoic acid",
    "duplicated_cas_no": "",
    "SMILES": "S(SC1=CC(C(O)=O)=CC=C1)C2=CC(C(O)=O)=CC=C2",
    "meta_data": {
        "InChI": "InChI=1S/C14H10O4S2/c15-13(16)9-3-1-5-11(7-9)19-20-12-6-2-4-10(8-12)14(17)18/h1-8H,(H,15,16)(H,17,18)",
        "InChIKey": null,
        "Canonical SMILES": "O=C(O)C=1C=CC=C(SSC2=CC=CC(=C2)C(=O)O)C1",
        "Molecular Formula": "C<sub>14</sub>H<sub>10</sub>O<sub>4</sub>S<sub>2</sub>",
        "Molecular Mass": "306.36",
        "Melting Point": "246 °C"
    }
}