{
    "cas_no": "42137-24-6",
    "key_name": "4-Nitro-2-thiophenecarbonitrile",
    "cn_name": null,
    "alternate_name": "2-Thiophenecarbonitrile, 4-nitro-;4-Nitro-2-thiophenecarbonitrile;5-Cyano-3-nitrothiophene;2-Cyano-4-nitrothiophene;4-Nitro-2-cyanothiophene",
    "duplicated_cas_no": "",
    "SMILES": "N(=O)(=O)C=1C=C(C#N)SC1",
    "meta_data": {
        "InChI": "InChI=1S/C5H2N2O2S/c6-2-5-1-4(3-10-5)7(8)9/h1,3H",
        "InChIKey": null,
        "Canonical SMILES": "N#CC=1SC=C(C1)N(=O)=O",
        "Molecular Formula": "C<sub>5</sub>H<sub>2</sub>N<sub>2</sub>O<sub>2</sub>S",
        "Molecular Mass": "154.15",
        "Melting Point": "102 °C"
    }
}