{
    "cas_no": "489-40-7",
    "key_name": "α-Gurjunene",
    "cn_name": null,
    "alternate_name": "1<em>H</em>-Cycloprop[<em>e</em>]azulene, 1a,2,3,4,4a,5,6,7b-octahydro-1,1,4,7-tetramethyl-, (1a<em>R</em>,4<em>R</em>,4a<em>R</em>,7b<em>S</em>)-;1<em>H</em>-Cycloprop[<em>e</em>]azulene, 1a,2,3,4,4a,5,6,7b-octahydro-1,1,4,7-tetramethyl-, [1a<em>R</em>-(1aα,4α,4aβ,7bα)]-;α-Gurjunene;1<em>H</em>-Cycloprop[<em>e</em>]azulene, 1aβ,2,3,4,4aα,5,6,7bβ-octahydro-1,1,4β,7-tetramethyl-;(1a<em>R</em>,4<em>R</em>,4a<em>R</em>,7b<em>S</em>)-1a,2,3,4,4a,5,6,7b-Octahydro-1,1,4,7-tetramethyl-1<em>H</em>-cycloprop[<em>e</em>]azulene;α-Gurjunene, (-)-;(-)-α-Gurjunene;1a,2,3,4,4a,5,6,7b-Octahydro-1,1,4,7-tetramethyl-[1a<em>R</em>-(1aα,4α,4aβ,7bα)]-1<em>H</em>-cycloprop[<em>e</em>]azulene",
    "duplicated_cas_no": "",
    "SMILES": "CC1(C)[C@]2(C=3[C@@]([C@H](C)CC[C@]21[H])(CCC3C)[H])[H]",
    "meta_data": {
        "InChI": "InChI=1S/C15H24/c1-9-6-8-12-14(15(12,3)4)13-10(2)5-7-11(9)13/h9,11-12,14H,5-8H2,1-4H3/t9-,11-,12-,14-/m1/s1",
        "InChIKey": null,
        "Canonical SMILES": "C1(=C2C(CC1)C(C)CCC3C2C3(C)C)C",
        "Molecular Formula": "C<sub>15</sub>H<sub>24</sub>",
        "Molecular Mass": "204.35",
        "Boiling Point": "76-77 °C @ Press: 3 Torr",
        "Density": "0.9176 g/cm³ @ Temp: 20 °C"
    }
}