{
    "cas_no": "1315-11-3",
    "key_name": "Zinc telluride",
    "cn_name": "碲化锌;",
    "alternate_name": "Zinc telluride (ZnTe);Zinc monotelluride;Zinc telluride;Zinc telluride (Zn<sub>0.5</sub>Te<sub>0.5</sub>)",
    "duplicated_cas_no": "162410-92-6;1520097-11-3;2265910-00-5;2459171-11-8;2500974-51-4;3024098-11-8",
    "SMILES": "[Te]=[Zn]",
    "meta_data": {
        "InChI": "InChI=1S/Te.Zn",
        "InChIKey": null,
        "Canonical SMILES": "[Zn]=[Te]",
        "Molecular Formula": "TeZn",
        "Molecular Mass": "",
        "Melting Point": "1300 °C",
        "Density": "5.54 g/cm³ (Crystal)"
    }
}