{
    "cas_no": "88-74-4",
    "key_name": "2-Nitroaniline",
    "cn_name": "2-硝基苯胺;邻硝基苯胺;1-氨基-2-硝基苯;",
    "alternate_name": "Benzenamine, 2-nitro-;Aniline, <em>o</em>-nitro-;2-Nitrobenzenamine;Azoene Fast Orange GR Base;Azoene Fast Orange GR Salt;Azofix Orange GR Salt;Azogene Fast Orange GR;Brentamine Fast Orange GR Base;Brentamine Fast Orange GR Salt;Devol Orange B;Devol Orange Salt B;Fast Orange O Base;Fast Orange Base JR;Fast Orange GR Base;Fast Orange O Salt;Fast Orange Salt JR;Hiltonil Fast Orange GR Base;Hiltosal Fast Orange GR Salt;Hindasol Orange GR Salt;Natasol Fast Orange GR Salt;<em>o</em>-Nitroaniline;ONA;Orange Base Ciba II;Orange Base Irga II;Orange GRS Salt;Orange Salt Ciba II;Orange Salt Irga II;2-Nitroaniline;1-Amino-2-nitrobenzene;<em>o</em>-Nitrophenylamine;2-Nitrophenylamine;2-Aminonitrobenzene;<em>o</em>-Aminonitrobenzene;1-Nitro-2-aminobenzene;<em>o</em>-Nitrobenzenamine;NSC 9796",
    "duplicated_cas_no": "",
    "SMILES": "N(=O)(=O)C1=C(N)C=CC=C1",
    "meta_data": {
        "InChI": "InChI=1S/C6H6N2O2/c7-5-3-1-2-4-6(5)8(9)10/h1-4H,7H2",
        "InChIKey": null,
        "Canonical SMILES": "O=N(=O)C=1C=CC=CC1N",
        "Molecular Formula": "C<sub>6</sub>H<sub>6</sub>N<sub>2</sub>O<sub>2</sub>",
        "Molecular Mass": "138.12",
        "Boiling Point": "284 °C",
        "Melting Point": "69-71 °C",
        "Density": "0.9015 g/cm³ @ Temp: 25 °C"
    }
}