{
    "cas_no": "100-11-8",
    "key_name": "4-Nitrobenzyl bromide",
    "cn_name": "对硝基溴化苄;对硝基苄溴;",
    "alternate_name": "Benzene, 1-(bromomethyl)-4-nitro-;Toluene, α-bromo-<em>p</em>-nitro-;1-(Bromomethyl)-4-nitrobenzene;α-Bromo-4-nitrotoluene;4-Nitrobenzyl bromide;<em>p</em>-(Bromomethyl)nitrobenzene;4-(Bromomethyl)nitrobenzene;α-Bromo-<em>p</em>-nitrotoluene;<em>p</em>-Nitro-α-bromotoluene;NSC 4609;<em>p</em>-Nitrobenzyl bromide;4-Nitrophenylmethyl bromide",
    "duplicated_cas_no": "",
    "SMILES": "N(=O)(=O)C1=CC=C(CBr)C=C1",
    "meta_data": {
        "InChI": "InChI=1S/C7H6BrNO2/c8-5-6-1-3-7(4-2-6)9(10)11/h1-4H,5H2",
        "InChIKey": null,
        "Canonical SMILES": "O=N(=O)C1=CC=C(C=C1)CBr",
        "Molecular Formula": "C<sub>7</sub>H<sub>6</sub>BrNO<sub>2</sub>",
        "Molecular Mass": "216.03",
        "Melting Point": "99.0 °C"
    }
}