{
    "cas_no": "129322-83-4",
    "key_name": "1-(2,4,5-Trifluorophenyl)ethanone",
    "cn_name": "2\",4\",5\"-三氟苯乙酮;",
    "alternate_name": "Ethanone, 1-(2,4,5-trifluorophenyl)-;1-(2,4,5-Trifluorophenyl)ethanone;2,4,5-Trifluoroacetophenone;2′,4′,5′-Trifluoroacetophenone;1-(2,4,5-Trifluorophenyl)ethan-1-one",
    "duplicated_cas_no": "",
    "SMILES": "C(C)(=O)C1=C(F)C=C(F)C(F)=C1",
    "meta_data": {
        "InChI": "InChI=1S/C8H5F3O/c1-4(12)5-2-7(10)8(11)3-6(5)9/h2-3H,1H3",
        "InChIKey": null,
        "Canonical SMILES": "O=C(C1=CC(F)=C(F)C=C1F)C",
        "Molecular Formula": "C<sub>8</sub>H<sub>5</sub>F<sub>3</sub>O",
        "Molecular Mass": "174.12",
        "Boiling Point": "63-64 °C @ Press: 7.5 Torr"
    }
}