{
    "cas_no": "13349-91-2",
    "key_name": "Piperazine, 1-(2,2,2-trifluoroethyl)-, hydrochloride (1:2)",
    "cn_name": "1-(2,2,2-三氟乙基)哌嗪二盐酸盐;",
    "alternate_name": "Piperazine, 1-(2,2,2-trifluoroethyl)-, hydrochloride (1:2);Piperazine, 1-(2,2,2-trifluoroethyl)-, dihydrochloride;4-(2,2,2-Trifluoroethyl)piperazine bishydrochloride;1-(2,2,2-Trifluoroethyl)piperazine dihydrochloride",
    "duplicated_cas_no": "",
    "SMILES": "C(C(F)(F)F)N1CCNCC1.Cl",
    "meta_data": {
        "InChI": "InChI=1S/C6H11F3N2.2ClH/c7-6(8,9)5-11-3-1-10-2-4-11;;/h10H,1-5H2;2*1H",
        "InChIKey": null,
        "Canonical SMILES": "Cl.FC(F)(F)CN1CCNCC1",
        "Molecular Formula": "C<sub>6</sub>H<sub>11</sub>F<sub>3</sub>N<sub>2</sub>.2ClH",
        "Molecular Mass": "",
        "Melting Point": "198-205 °C"
    }
}