{
    "cas_no": "2155-74-0",
    "key_name": "1-Butanol, antimony(3+) salt (3:1)",
    "cn_name": "丁氧化锑;",
    "alternate_name": "1-Butanol, antimony(3+) salt (3:1);Antimonic acid (H<sub>3</sub>SbO<sub>3</sub>), tributyl ester;1-Butanol, antimony(3+) salt;Butyl antimonate(III);Tributoxyantimony;Antimony tributoxide;Tributoxystibine;Tributylantimonite;Antimony butoxide;Alcofine SB 40;Antimony(III) butoxide;Butyl antimonite ((BuO)<sub>3</sub>Sb)",
    "duplicated_cas_no": "694503-46-3;3046152-87-5",
    "SMILES": "C(CC)CO.[Sb]",
    "meta_data": {
        "InChI": "InChI=1S/C4H10O.Sb/c1-2-3-4-5;/h5H,2-4H2,1H3;",
        "InChIKey": null,
        "Canonical SMILES": "[Sb].OCCCC",
        "Molecular Formula": "C<sub>4</sub>H<sub>10</sub>O.<sup>1</sup>/<sub>3</sub>Sb",
        "Molecular Mass": "",
        "Boiling Point": "138.5-139.5 °C @ Press: 5.5 Torr",
        "Density": "1.2804 g/cm³ @ Temp: 20 °C"
    }
}