{
    "cas_no": "2941-64-2",
    "key_name": "Ethyl chlorothioformate",
    "cn_name": "硫代氯甲酸乙酯;",
    "alternate_name": "Carbonochloridothioic acid, <em>S</em>-ethyl ester;Formic acid, chlorothio-, <em>S</em>-ethyl ester;<em>S</em>-Ethyl chlorothioformate;Ethyl chlorothioformate;Ethylthiol chloroformate;<em>S</em>-Ethyl thiochloroformate;Ethyl thiochloroformate;<em>S</em>-Ethyl carbonochloridothioate;<em>S</em>-Ethyl chlorothiocarbonate;Thioethoxycarbonyl chloride;Ethylthiocarbonyl chloride",
    "duplicated_cas_no": "1082068-75-4",
    "SMILES": "S(C(Cl)=O)CC",
    "meta_data": {
        "InChI": "InChI=1S/C3H5ClOS/c1-2-6-3(4)5/h2H2,1H3",
        "InChIKey": null,
        "Canonical SMILES": "O=C(Cl)SCC",
        "Molecular Formula": "C<sub>3</sub>H<sub>5</sub>ClOS",
        "Molecular Mass": "124.59",
        "Boiling Point": "136 °C @ Press: 760 Torr",
        "Density": "1.84 g/cm³"
    }
}