{
    "cas_no": "703-80-0",
    "key_name": "3-Acetylindole",
    "cn_name": "3-乙酰吲哚;",
    "alternate_name": "Ethanone, 1-(1<em>H</em>-indol-3-yl)-;Ketone, indol-3-yl methyl;1-(1<em>H</em>-Indol-3-yl)ethanone;3-Acetylindole;3-Acetyl-1<em>H</em>-indole;3-Indolyl methyl ketone;NSC 47180;NSC 58084;1-(1<em>H</em>-Indol-3-yl)ethan-1-one;1<em>H</em>-3-Acetylindole",
    "duplicated_cas_no": "343332-28-5",
    "SMILES": "C(C)(=O)C=1C=2C(NC1)=CC=CC2",
    "meta_data": {
        "InChI": "InChI=1S/C10H9NO/c1-7(12)9-6-11-10-5-3-2-4-8(9)10/h2-6,11H,1H3",
        "InChIKey": null,
        "Canonical SMILES": "O=C(C1=CNC=2C=CC=CC21)C",
        "Molecular Formula": "C<sub>10</sub>H<sub>9</sub>NO",
        "Molecular Mass": "159.18",
        "Melting Point": "192.3 °C"
    }
}