{
    "cas_no": "504-02-9",
    "key_name": "1,3-Cyclohexanedione",
    "cn_name": "1,3-环己二酮;",
    "alternate_name": "1,3-Cyclohexanedione;Dihydroresorcinol;Hydroresorcinol;Resorcinol, dihydro-;1,3-Benzenediol, dihydro-;1,3-Dioxocyclohexane;NSC 57477;Cyclohexane-1,3-dione",
    "duplicated_cas_no": "",
    "SMILES": "O=C1CC(=O)CCC1",
    "meta_data": {
        "InChI": "InChI=1S/C6H8O2/c7-5-2-1-3-6(8)4-5/h1-4H2",
        "InChIKey": null,
        "Canonical SMILES": "O=C1CC(=O)CCC1",
        "Molecular Formula": "C<sub>6</sub>H<sub>8</sub>O<sub>2</sub>",
        "Molecular Mass": "112.13",
        "Melting Point": "105.5 °C",
        "Density": "1.0861 g/cm³ @ Temp: 91 °C"
    }
}