{
    "cas_no": "1205-08-9",
    "key_name": "Methyl hippurate",
    "cn_name": null,
    "alternate_name": "Glycine, <em>N</em>-benzoyl-, methyl ester;Hippuric acid, methyl ester;Methyl hippurate;<em>N</em>-Benzoylglycine methyl ester;Methyl <em>N</em>-benzoylglycinate;Methyl benzoylglycinate;Methyl benzoylaminoacetate",
    "duplicated_cas_no": "",
    "SMILES": "C(NCC(OC)=O)(=O)C1=CC=CC=C1",
    "meta_data": {
        "InChI": "InChI=1S/C10H11NO3/c1-14-9(12)7-11-10(13)8-5-3-2-4-6-8/h2-6H,7H2,1H3,(H,11,13)",
        "InChIKey": null,
        "Canonical SMILES": "O=C(OC)CNC(=O)C=1C=CC=CC1",
        "Molecular Formula": "C<sub>10</sub>H<sub>11</sub>NO<sub>3</sub>",
        "Molecular Mass": "193.20",
        "Melting Point": "82-83 °C"
    }
}