{
    "cas_no": "634-83-3",
    "key_name": "2,3,4,5-Tetrachloroaniline",
    "cn_name": null,
    "alternate_name": "Benzenamine, 2,3,4,5-tetrachloro-;Aniline, 2,3,4,5-tetrachloro-;2,3,4,5-Tetrachlorobenzenamine;2,3,4,5-Tetrachloroaniline",
    "duplicated_cas_no": "",
    "SMILES": "ClC1=C(Cl)C(Cl)=C(N)C=C1Cl",
    "meta_data": {
        "InChI": "InChI=1S/C6H3Cl4N/c7-2-1-3(11)5(9)6(10)4(2)8/h1H,11H2",
        "InChIKey": null,
        "Canonical SMILES": "ClC=1C=C(N)C(Cl)=C(Cl)C1Cl",
        "Molecular Formula": "C<sub>6</sub>H<sub>3</sub>Cl<sub>4</sub>N",
        "Molecular Mass": "230.91",
        "Melting Point": "121 °C"
    }
}