{
    "cas_no": "94-41-7",
    "key_name": "Chalcone",
    "cn_name": "苯亚甲基苯乙酮;苯亚甲基苯乙酮;",
    "alternate_name": "2-Propen-1-one, 1,3-diphenyl-;Chalcone;1,3-Diphenyl-2-propen-1-one;Benzalacetophenone;β-Benzoylstyrene;Benzylideneacetophenone;Chalkone;Cinnamophenone;3-Phenylacrylophenone;Phenyl styryl ketone;β-Phenylacrylophenone;2-Benzylideneacetophenone;1,3-Diphenyl-1-propen-3-one;Benzylidenecetophenone;1-Phenyl-2-benzoylethylene;2-Benzalacetophenone;α-Benzylideneacetophenone;1-Benzoyl-2-phenylethene;Phenyl 2-phenylvinyl ketone;1,3-Diphenylpropenone;Styryl phenyl ketone;1-Benzoyl-2-phenylethylene;ω-Benzylideneacetophenone;1,3-Diphenyl-2-propenone;1,3-Diphenylpropen-3-one;BAP;Phenyl 2-phenylethenyl ketone;NSC 26612;NSC 4523;1,3-Diphenyl-3-oxo-1-propene;MeSH ID: D002599",
    "duplicated_cas_no": "1081515-13-0;1801869-81-7",
    "SMILES": "C(C=CC1=CC=CC=C1)(=O)C2=CC=CC=C2",
    "meta_data": {
        "InChI": "InChI=1S/C15H12O/c16-15(14-9-5-2-6-10-14)12-11-13-7-3-1-4-8-13/h1-12H",
        "InChIKey": null,
        "Canonical SMILES": "O=C(C=CC=1C=CC=CC1)C=2C=CC=CC2",
        "Molecular Formula": "C<sub>15</sub>H<sub>12</sub>O",
        "Molecular Mass": "208.26",
        "Boiling Point": "346.5 °C",
        "Melting Point": "57.5 °C"
    }
}