{
    "cas_no": "2577-46-0",
    "key_name": "<span class=\"text-smallcaps\">L</span>-Isoleucine, methyl ester",
    "cn_name": "L-异亮氨酸甲酯;",
    "alternate_name": "<span class=\"text-smallcaps\">L</span>-Isoleucine, methyl ester;Isoleucine, methyl ester, <span class=\"text-smallcaps\">L</span>-;Isoleucine methyl ester;Methyl <span class=\"text-smallcaps\">L</span>-isoleucinate",
    "duplicated_cas_no": "431949-44-9;479552-52-8;1069054-79-0;1172693-29-6;1252800-16-0;1315690-69-7;1391151-84-0;1396967-00-2;1398144-40-5;1416506-54-1;1537945-97-3;1631196-28-5;1936458-87-5",
    "SMILES": "[C@H]([C@H](CC)C)(C(OC)=O)N",
    "meta_data": {
        "InChI": "InChI=1S/C7H15NO2/c1-4-5(2)6(8)7(9)10-3/h5-6H,4,8H2,1-3H3/t5-,6-/m0/s1",
        "InChIKey": null,
        "Canonical SMILES": "O=C(OC)C(N)C(C)CC",
        "Molecular Formula": "C<sub>7</sub>H<sub>15</sub>NO<sub>2</sub>",
        "Molecular Mass": "145.20",
        "Boiling Point": "74 °C @ Press: 11 Torr"
    }
}