{
    "cas_no": "6925-69-5",
    "key_name": "Solvent Orange 60",
    "cn_name": "溶剂橙60;",
    "alternate_name": "12<em>H</em>-Phthaloperin-12-one;12-Phthaloperinone;Aminoplast Orange LFP;10<em>H</em>-Perimidino[2,1-<em>a</em>]isoindol-10-one;Phthaloperinone;Oplas Orange 230;C.I. Solvent Orange 60;Oracet Orange G;Solvent Orange 60;C.I. Solvent Orange 78;Solvent Orange 78;Sumiplast Orange HRP;Macrolex Orange 3G;Diaresin Orange HS;C.I. 564100;Sandoplast Orange 3G;C.I. Disperse Orange 24;Disperse Orange 24;KP Plast Orange 8150;KP Plast Orange HG;Plast Orange 8150;Oracet Orange 230;12<em>H</em>-Isoindolo[2,1-<em>a</em>]perimidin-12-one;Solvaperm Orange 3G",
    "duplicated_cas_no": "59459-24-4;61969-47-9;61725-13-1",
    "SMILES": "O=C1N2C(C=3C1=CC=CC3)=NC=4C5=C2C=CC=C5C=CC4",
    "meta_data": {
        "InChI": "InChI=1S/C18H10N2O/c21-18-13-8-2-1-7-12(13)17-19-14-9-3-5-11-6-4-10-15(16(11)14)20(17)18/h1-10H",
        "InChIKey": null,
        "Canonical SMILES": "O=C1C=2C=CC=CC2C3=NC4=CC=CC=5C=CC=C(C45)N13",
        "Molecular Formula": "C<sub>18</sub>H<sub>10</sub>N<sub>2</sub>O",
        "Molecular Mass": "270.28",
        "Melting Point": "228-230 °C"
    }
}