{
    "cas_no": "10366-05-9",
    "key_name": "5,11-Dichlorotricyclo[8.2.2.2<sup>4,7</sup>]hexadeca-4,6,10,12,13,15-hexaene",
    "cn_name": null,
    "alternate_name": "Tricyclo[8.2.2.2<sup>4,7</sup>]hexadeca-4,6,10,12,13,15-hexaene, 5,11-dichloro-;5,11-Dichlorotricyclo[8.2.2.2<sup>4,7</sup>]hexadeca-4,6,10,12,13,15-hexaene;Dichlorodi-<em>p</em>-xylylene;Galxyl C;6,12-Dichlorobis(<em>p</em>-xylylene)",
    "duplicated_cas_no": "",
    "SMILES": "ClC=1C=2CCC=3C=C(Cl)C(CCC(C1)=CC2)=CC3",
    "meta_data": {
        "InChI": "InChI=1S/C16H14Cl2/c17-15-9-11-1-5-13(15)8-4-12-2-6-14(7-3-11)16(18)10-12/h1-2,5-6,9-10H,3-4,7-8H2",
        "InChIKey": null,
        "Canonical SMILES": "ClC1=CC2=CC=C1CCC3=CC=C(C(Cl)=C3)CC2",
        "Molecular Formula": "C<sub>16</sub>H<sub>14</sub>Cl<sub>2</sub>",
        "Molecular Mass": "277.19",
        "Melting Point": "163-165 °C"
    }
}