{
    "cas_no": "51938-32-0",
    "key_name": "Schaftoside",
    "cn_name": "夏佛塔苷;",
    "alternate_name": "4<em>H</em>-1-Benzopyran-4-one, 8-α-<span class=\"text-smallcaps\">L</smallcap>-arabinopyranosyl-6-β-<smallcap>D</span>-glucopyranosyl-5,7-dihydroxy-2-(4-hydroxyphenyl)-;8-α-<span class=\"text-smallcaps\">L</smallcap>-Arabinopyranosyl-6-β-<smallcap>D</span>-glucopyranosyl-5,7-dihydroxy-2-(4-hydroxyphenyl)-4<em>H</em>-1-benzopyran-4-one;Schaftoside;6-<em>C</em>-β-<span class=\"text-smallcaps\">D</smallcap>-Glucosyl-8-<em>C</em>-α-<smallcap>L</span>-arabinosylapigenin;Apigenin 8-<em>C</em>-α-<span class=\"text-smallcaps\">L</smallcap>-arabinoside 6-<em>C</em>-β-<smallcap>D</span>-glucoside;Shaftoside;Apigenin 6-<em>C</em>-β-<span class=\"text-smallcaps\">D</smallcap>-glucoside 8-<em>C</em>-α-<smallcap>L</span>-arabinoside;Apigenin (8-<em>C</em>-α-<span class=\"text-smallcaps\">L</smallcap>-arabinosyl) 6-<em>C</em>-β-<smallcap>D</span>-glucopyranoside;Apigenin 6-<em>C</em>-glucoside-8-<em>C</em>-arabinoside",
    "duplicated_cas_no": "1367372-85-7;1373344-46-7",
    "SMILES": "OC=1C(=C2C(=C(O)C1[C@@H]3O[C@H](CO)[C@@H](O)[C@H](O)[C@H]3O)C(=O)C=C(O2)C4=CC=C(O)C=C4)[C@H]5[C@H](O)[C@@H](O)[C@@H](O)CO5",
    "meta_data": {
        "InChI": "InChI=1S/C26H28O14/c27-6-13-18(32)21(35)23(37)26(40-13)15-19(33)14-10(29)5-12(8-1-3-9(28)4-2-8)39-24(14)16(20(15)34)25-22(36)17(31)11(30)7-38-25/h1-5,11,13,17-18,21-23,25-28,30-37H,6-7H2/t11-,13+,17-,18+,21-,22+,23+,25-,26-/m0/s1",
        "InChIKey": null,
        "Canonical SMILES": "O=C1C=C(OC2=C1C(O)=C(C(O)=C2C3OCC(O)C(O)C3O)C4OC(CO)C(O)C(O)C4O)C=5C=CC(O)=CC5",
        "Molecular Formula": "C<sub>26</sub>H<sub>28</sub>O<sub>14</sub>",
        "Molecular Mass": "564.49",
        "Melting Point": "228 °C"
    }
}