{
    "cas_no": "462-60-2",
    "key_name": "Hydantoic acid",
    "cn_name": "海因酸;脲基乙酸;氨基甲酰甘氨酸;海因酸;N-Carbamoylglycine;N-Carboxymethylurea;",
    "alternate_name": "Glycine, <em>N</em>-(aminocarbonyl)-;Hydantoic acid;Glycine, <em>N</em>-carbamoyl-;<em>N</em>-(Aminocarbonyl)glycine;Ureidoacetic acid;Carbamoylglycine;Glycoluric acid;<em>N</em>-Carbamoylglycine;Urea, (carboxymethyl)-;Acetic acid, [(aminocarbonyl)amino]-;<em>N</em>-Carbamylglycine;<em>N</em>-(Carboxymethyl)urea;NSC 49417;2-Ureidoacetic acid;2-(Carbamoylamino)acetic acid",
    "duplicated_cas_no": "",
    "SMILES": "C(NC(N)=O)C(O)=O",
    "meta_data": {
        "InChI": "InChI=1S/C3H6N2O3/c4-3(8)5-1-2(6)7/h1H2,(H,6,7)(H3,4,5,8)",
        "InChIKey": null,
        "Canonical SMILES": "O=C(N)NCC(=O)O",
        "Molecular Formula": "C<sub>3</sub>H<sub>6</sub>N<sub>2</sub>O<sub>3</sub>",
        "Molecular Mass": "118.09",
        "Melting Point": "179-180 °C"
    }
}