{
    "cas_no": "18820-82-1",
    "key_name": "Pyridine, hydrobromide (1:1)",
    "cn_name": "吡啶溴化氢盐;",
    "alternate_name": "Pyridine, hydrobromide (1:1);Pyridine, hydrobromide;Pyridinium bromide;Pyridinium hydrobromide;Pyridine, compd. with hydrogen bromide (1:1);NSC 167065;NSC 620577",
    "duplicated_cas_no": "103779-27-7",
    "SMILES": "C=1C=CN=CC1.Br",
    "meta_data": {
        "InChI": "InChI=1S/C5H5N.BrH/c1-2-4-6-5-3-1;/h1-5H;1H",
        "InChIKey": null,
        "Canonical SMILES": "Br.N=1C=CC=CC1",
        "Molecular Formula": "C<sub>5</sub>H<sub>5</sub>N.BrH",
        "Molecular Mass": "",
        "Melting Point": "155-156 °C"
    }
}