{
    "cas_no": "40932-60-3",
    "key_name": "2,3,5-Trichloro-6-hydroxybenzoic acid",
    "cn_name": "3,5,6-三氯水杨酸;",
    "alternate_name": "Benzoic acid, 2,3,5-trichloro-6-hydroxy-;Salicylic acid, 3,5,6-trichloro-;2,3,5-Trichloro-6-hydroxybenzoic acid;3,5,6-Trichlorosalicylic acid;3,5,6-Trichloro-2-hydroxybenzoic acid",
    "duplicated_cas_no": "",
    "SMILES": "C(O)(=O)C1=C(Cl)C(Cl)=CC(Cl)=C1O",
    "meta_data": {
        "InChI": "InChI=1S/C7H3Cl3O3/c8-2-1-3(9)6(11)4(5(2)10)7(12)13/h1,11H,(H,12,13)",
        "InChIKey": null,
        "Canonical SMILES": "O=C(O)C=1C(Cl)=C(Cl)C=C(Cl)C1O",
        "Molecular Formula": "C<sub>7</sub>H<sub>3</sub>Cl<sub>3</sub>O<sub>3</sub>",
        "Molecular Mass": "241.46",
        "Melting Point": "207 °C"
    }
}