{
    "cas_no": "7779-78-4",
    "key_name": "α-(2-Methylpropyl)benzeneethanol",
    "cn_name": null,
    "alternate_name": "Benzeneethanol, α-(2-methylpropyl)-;Phenethyl alcohol, α-isobutyl-;2-Pentanol, 4-methyl-1-phenyl-;α-(2-Methylpropyl)benzeneethanol;Isobutyl benzyl carbinol;α-Isobutylphenethyl alcohol;4-Methyl-1-phenylpentan-2-ol",
    "duplicated_cas_no": "",
    "SMILES": "C(C(CC(C)C)O)C1=CC=CC=C1",
    "meta_data": {
        "InChI": "InChI=1S/C12H18O/c1-10(2)8-12(13)9-11-6-4-3-5-7-11/h3-7,10,12-13H,8-9H2,1-2H3",
        "InChIKey": null,
        "Canonical SMILES": "OC(CC=1C=CC=CC1)CC(C)C",
        "Molecular Formula": "C<sub>12</sub>H<sub>18</sub>O",
        "Molecular Mass": "178.27",
        "Melting Point": "129 °C"
    }
}