{
    "cas_no": "99-57-0",
    "key_name": "2-Amino-4-nitrophenol",
    "cn_name": "2-氨基-4-硝基苯酚;4-硝基-2-氨基苯酚;4-NAP;",
    "alternate_name": "Phenol, 2-amino-4-nitro-;2-Amino-4-nitrophenol;C.I. 76530;<em>p</em>-Nitro-<em>o</em>-aminophenol;4-Nitro-2-aminophenol;2-Hydroxy-5-nitroaniline;4-Nitro-2-amino-1-hydroxybenzene;1-Amino-2-hydroxy-5-nitrobenzene;1-Hydroxy-2-amino-4-nitrobenzene;5-Nitro-2-hydroxyaniline;NSC 4664",
    "duplicated_cas_no": "",
    "SMILES": "N(=O)(=O)C1=CC(N)=C(O)C=C1",
    "meta_data": {
        "InChI": "InChI=1S/C6H6N2O3/c7-5-3-4(8(10)11)1-2-6(5)9/h1-3,9H,7H2",
        "InChIKey": null,
        "Canonical SMILES": "O=N(=O)C1=CC=C(O)C(N)=C1",
        "Molecular Formula": "C<sub>6</sub>H<sub>6</sub>N<sub>2</sub>O<sub>3</sub>",
        "Molecular Mass": "154.12",
        "Melting Point": "145-147 °C"
    }
}