{
    "cas_no": "41570-61-0",
    "key_name": "(±)-Tulobuterol",
    "cn_name": null,
    "alternate_name": "Benzenemethanol, 2-chloro-α-[[(1,1-dimethylethyl)amino]methyl]-;2-Chloro-α-[[(1,1-dimethylethyl)amino]methyl]benzenemethanol;<em>o</em>-Chloro-α-[(<em>tert</em>-butylamino)methyl]benzyl alcohol;Tulobuterol;(±)-Tulobuterol;HN 078;2-(<em>tert</em>-Butylamino)-1-(2-chlorophenyl)ethan-1-ol;2-(<em>tert</em>-Butylamino)-1-(2-chlorophenyl)ethanol",
    "duplicated_cas_no": "73575-60-7",
    "SMILES": "C(CNC(C)(C)C)(O)C1=C(Cl)C=CC=C1",
    "meta_data": {
        "InChI": "InChI=1S/C12H18ClNO/c1-12(2,3)14-8-11(15)9-6-4-5-7-10(9)13/h4-7,11,14-15H,8H2,1-3H3",
        "InChIKey": null,
        "Canonical SMILES": "ClC=1C=CC=CC1C(O)CNC(C)(C)C",
        "Molecular Formula": "C<sub>12</sub>H<sub>18</sub>ClNO",
        "Molecular Mass": "227.73",
        "Melting Point": "89-91 °C"
    }
}