{
    "cas_no": "6297-53-6",
    "key_name": "Methionine, ethyl ester, hydrochloride (1:1)",
    "cn_name": "DL-蛋氨酸乙酯盐酸盐;",
    "alternate_name": "Methionine, ethyl ester, hydrochloride (1:1);Methionine, ethyl ester, hydrochloride, <span class=\"text-smallcaps\">DL</span>-;<span class=\"text-smallcaps\">DL</span>-Methionine, ethyl ester, hydrochloride;Methionine, ethyl ester, hydrochloride;NSC 46033",
    "duplicated_cas_no": "",
    "SMILES": "C(C(OCC)=O)(CCSC)N.Cl",
    "meta_data": {
        "InChI": "InChI=1S/C7H15NO2S.ClH/c1-3-10-7(9)6(8)4-5-11-2;/h6H,3-5,8H2,1-2H3;1H",
        "InChIKey": null,
        "Canonical SMILES": "Cl.O=C(OCC)C(N)CCSC",
        "Molecular Formula": "C<sub>7</sub>H<sub>15</sub>NO<sub>2</sub>S.ClH",
        "Molecular Mass": "",
        "Melting Point": "81-82 °C"
    }
}