{
    "cas_no": "5521-55-1",
    "key_name": "5-Methyl-2-pyrazinecarboxylic acid",
    "cn_name": "2-羧基-5-甲基吡嗪;5-甲基吡嗪-2-羧酸;",
    "alternate_name": "2-Pyrazinecarboxylic acid, 5-methyl-;Pyrazinecarboxylic acid, 5-methyl-;5-Methyl-2-pyrazinecarboxylic acid;2-Methylpyrazine-5-carboxylic acid;5-Methyl-2-pyrazinoic acid;5-Methylpyrazine carboxylic acid",
    "duplicated_cas_no": "",
    "SMILES": "C(O)(=O)C=1C=NC(C)=CN1",
    "meta_data": {
        "InChI": "InChI=1S/C6H6N2O2/c1-4-2-8-5(3-7-4)6(9)10/h2-3H,1H3,(H,9,10)",
        "InChIKey": null,
        "Canonical SMILES": "O=C(O)C1=NC=C(N=C1)C",
        "Molecular Formula": "C<sub>6</sub>H<sub>6</sub>N<sub>2</sub>O<sub>2</sub>",
        "Molecular Mass": "138.12",
        "Melting Point": "164-165 °C"
    }
}