{
    "cas_no": "41965-95-1",
    "key_name": "Benzenemethanamine, 3-chloro-4-methoxy-, hydrochloride (1:1)",
    "cn_name": null,
    "alternate_name": "Benzenemethanamine, 3-chloro-4-methoxy-, hydrochloride (1:1);Benzenemethanamine, 3-chloro-4-methoxy-, hydrochloride;3-Chloro-4-methoxybenzylamine hydrochloride",
    "duplicated_cas_no": "",
    "SMILES": "C(N)C1=CC(Cl)=C(OC)C=C1.Cl",
    "meta_data": {
        "InChI": "InChI=1S/C8H10ClNO.ClH/c1-11-8-3-2-6(5-10)4-7(8)9;/h2-4H,5,10H2,1H3;1H",
        "InChIKey": null,
        "Canonical SMILES": "Cl.ClC1=CC(=CC=C1OC)CN",
        "Molecular Formula": "C<sub>8</sub>H<sub>10</sub>ClNO.ClH",
        "Molecular Mass": "",
        "Melting Point": "231-234 °C"
    }
}