{
    "cas_no": "2834-79-9",
    "key_name": "4-[1,1′-Biphenyl]-4-yl-2-thiazolamine",
    "cn_name": "2-氨基-4-(4-联苯基)噻唑;2-氨基-4-(4-联苯基)噻唑;2-氨基-4-(对联苯)噻唑;",
    "alternate_name": "2-Thiazolamine, 4-[1,1′-biphenyl]-4-yl-;Thiazole, 2-amino-4-(4-biphenylyl)-;4-[1,1′-Biphenyl]-4-yl-2-thiazolamine;4-(1,1′-Biphenyl-4-yl)-2-amino-1,3-thiazole;4-(4-Phenylphenyl)thiazol-2-amine",
    "duplicated_cas_no": "2230882-80-9",
    "SMILES": "NC1=NC(=CS1)C2=CC=C(C=C2)C3=CC=CC=C3",
    "meta_data": {
        "InChI": "InChI=1S/C15H12N2S/c16-15-17-14(10-18-15)13-8-6-12(7-9-13)11-4-2-1-3-5-11/h1-10H,(H2,16,17)",
        "InChIKey": null,
        "Canonical SMILES": "N1=C(SC=C1C=2C=CC(=CC2)C=3C=CC=CC3)N",
        "Molecular Formula": "C<sub>15</sub>H<sub>12</sub>N<sub>2</sub>S",
        "Molecular Mass": "252.33",
        "Melting Point": "207-208 °C"
    }
}