{
    "cas_no": "2305-05-7",
    "key_name": "γ-Dodecalactone",
    "cn_name": "丙位十二内酯;",
    "alternate_name": "2(3<em>H</em>)-Furanone, dihydro-5-octyl-;Dodecanoic acid, 4-hydroxy-, γ-lactone;Dihydro-5-octyl-2(3<em>H</em>)-furanone;γ-Dodecalactone;4-Dodecanolide;γ-Octyl-γ-butyrolactone;4-Hydroxydodecanoic acid lactone;γ-Dodecanolactone;4-Hydroxydodecanoic acid γ-lactone;5-Octyltetrahydro-2-furanone;(±)-4-<em>n</em>-Octylbutyrolactone;(<em>RS</em>)-γ-Dodecalactone;(±)-γ-Dodecalactone;NSC 26511;γ-Laurolactone;5-Octyldihydrofuran-2(3<em>H</em>)-one",
    "duplicated_cas_no": "57084-18-1",
    "SMILES": "C(CCCCCCC)C1OC(=O)CC1",
    "meta_data": {
        "InChI": "InChI=1S/C12H22O2/c1-2-3-4-5-6-7-8-11-9-10-12(13)14-11/h11H,2-10H2,1H3",
        "InChIKey": null,
        "Canonical SMILES": "O=C1OC(CC1)CCCCCCCC",
        "Molecular Formula": "C<sub>12</sub>H<sub>22</sub>O<sub>2</sub>",
        "Molecular Mass": "198.30",
        "Boiling Point": "130 °C @ Press: 0.51 Torr",
        "Melting Point": "17-18 °C",
        "Density": "0.9383 g/cm³ @ Temp: 20 °C"
    }
}