{
    "cas_no": "175203-82-4",
    "key_name": "Ethyl 5-(trifluoromethoxy)-1<em>H</em>-indole-2-carboxylate",
    "cn_name": "5-(三氟甲氧基)-1H-吲哚-2-羧酸乙酯;",
    "alternate_name": "1<em>H</em>-Indole-2-carboxylic acid, 5-(trifluoromethoxy)-, ethyl ester;Ethyl 5-(trifluoromethoxy)-1<em>H</em>-indole-2-carboxylate;5-(Trifluoromethoxy)indole-2-carboxylic acid ethyl ester;Ethyl 5-trifluoromethyloxy-1<em>H</em>-indole-2-carboxylate;Ethyl 5-trifluoromethoxy-1<em>H</em>-indole-2-carboxylate",
    "duplicated_cas_no": "",
    "SMILES": "C(OCC)(=O)C=1NC=2C(C1)=CC(OC(F)(F)F)=CC2",
    "meta_data": {
        "InChI": "InChI=1S/C12H10F3NO3/c1-2-18-11(17)10-6-7-5-8(19-12(13,14)15)3-4-9(7)16-10/h3-6,16H,2H2,1H3",
        "InChIKey": null,
        "Canonical SMILES": "O=C(OCC)C1=CC=2C=C(OC(F)(F)F)C=CC2N1",
        "Molecular Formula": "C<sub>12</sub>H<sub>10</sub>F<sub>3</sub>NO<sub>3</sub>",
        "Molecular Mass": "273.21",
        "Melting Point": "138-140 °C"
    }
}