{
    "cas_no": "51336-95-9",
    "key_name": "2-Chloro-1-(3,4-difluorophenyl)ethanone",
    "cn_name": "2-氯-1-(3,4-二氟苯基)乙酮;",
    "alternate_name": "Ethanone, 2-chloro-1-(3,4-difluorophenyl)-;2-Chloro-1-(3,4-difluorophenyl)ethanone;2-Chloro-3′,4′-difluoroacetophenone;2-Chloro-1-(3,4-difluorophenyl)ethan-1-one",
    "duplicated_cas_no": "",
    "SMILES": "C(CCl)(=O)C1=CC(F)=C(F)C=C1",
    "meta_data": {
        "InChI": "InChI=1S/C8H5ClF2O/c9-4-8(12)5-1-2-6(10)7(11)3-5/h1-3H,4H2",
        "InChIKey": null,
        "Canonical SMILES": "O=C(C1=CC=C(F)C(F)=C1)CCl",
        "Molecular Formula": "C<sub>8</sub>H<sub>5</sub>ClF<sub>2</sub>O",
        "Molecular Mass": "190.57",
        "Melting Point": "31-32 °C"
    }
}