{
    "cas_no": "20139-55-3",
    "key_name": "<em>N</em>-(4-Chloro-2-methylphenyl)-3-oxobutanamide",
    "cn_name": null,
    "alternate_name": "Butanamide, <em>N</em>-(4-chloro-2-methylphenyl)-3-oxo-;<em>o</em>-Acetoacetotoluidide, 4′-chloro-;<em>N</em>-(4-Chloro-2-methylphenyl)-3-oxobutanamide;NSC 87579",
    "duplicated_cas_no": "",
    "SMILES": "N(C(CC(C)=O)=O)C1=C(C)C=C(Cl)C=C1",
    "meta_data": {
        "InChI": "InChI=1S/C11H12ClNO2/c1-7-5-9(12)3-4-10(7)13-11(15)6-8(2)14/h3-5H,6H2,1-2H3,(H,13,15)",
        "InChIKey": null,
        "Canonical SMILES": "O=C(NC1=CC=C(Cl)C=C1C)CC(=O)C",
        "Molecular Formula": "C<sub>11</sub>H<sub>12</sub>ClNO<sub>2</sub>",
        "Molecular Mass": "225.67",
        "Melting Point": "102 °C"
    }
}