{
    "cas_no": "841-06-5",
    "key_name": "Methoprotryne",
    "cn_name": "甲氧丙净;甲氧丙净;格草净;",
    "alternate_name": "1,3,5-Triazine-2,4-diamine, <em>N</em><sup>2</sup>-(3-methoxypropyl)-<em>N</em><sup>4</sup>-(1-methylethyl)-6-(methylthio)-;<em>s</em>-Triazine, 2-(isopropylamino)-4-[(3-methoxypropyl)amino]-6-(methylthio)-;1,3,5-Triazine-2,4-diamine, <em>N</em>-(3-methoxypropyl)-<em>N</em>′-(1-methylethyl)-6-(methylthio)-;<em>N</em><sup>2</sup>-(3-Methoxypropyl)-<em>N</em><sup>4</sup>-(1-methylethyl)-6-(methylthio)-1,3,5-triazine-2,4-diamine;G 36393;2-Isopropylamino-4-(3-methoxypropylamino)-6-methylthio-<em>s</em>-triazine;Methoproptryne;Gesaran 25;Methotryne;2-(Methylthio)-4-(isopropylamino)-6-(3-methoxypropylamino)-<em>s</em>-triazine;2-Methylthio-4-isopropylamino-6-(γ-methoxypropyl)amino-1,3,5-triazine;2-Methylthio-4-isopropylamino-6-(γ-methoxypropylamino)-<em>s</em>-triazine;Methoprotryne;Metoprotryn;Methoprotryn;Metoprotryne;Gesaran;2-Isopropylamino-4-(γ-methoxypropylamino)-6-methylthiotriazine",
    "duplicated_cas_no": "",
    "SMILES": "N(C(C)C)C=1N=C(NCCCOC)N=C(SC)N1",
    "meta_data": {
        "InChI": "InChI=1S/C11H21N5OS/c1-8(2)13-10-14-9(12-6-5-7-17-3)15-11(16-10)18-4/h8H,5-7H2,1-4H3,(H2,12,13,14,15,16)",
        "InChIKey": null,
        "Canonical SMILES": "N=1C(=NC(=NC1NCCCOC)NC(C)C)SC",
        "Molecular Formula": "C<sub>11</sub>H<sub>21</sub>N<sub>5</sub>OS",
        "Molecular Mass": "271.38",
        "Melting Point": "68-70 °C",
        "Density": "1.186 g/cm³ @ Temp: 20 °C"
    }
}