{
    "cas_no": "641571-11-1",
    "key_name": "5-(4-Methyl-1<em>H</em>-imidazol-1-yl)-3-(trifluoromethyl)benzenamine",
    "cn_name": "3-(4-甲基-1H-咪唑-1-基)-5-(三氟甲基)苯胺;",
    "alternate_name": "Benzenamine, 3-(4-methyl-1<em>H</em>-imidazol-1-yl)-5-(trifluoromethyl)-;3-(4-Methyl-1<em>H</em>-imidazol-1-yl)-5-(trifluoromethyl)benzenamine;5-(4-Methyl-1<em>H</em>-imidazol-1-yl)-3-(trifluoromethyl)benzenamine;1-(3-Amino-5-trifluoromethylphenyl)-4-methylimidazole;3-(4-Methyl-1<em>H</em>-imidazol-1-yl)-5-trifluoromethylaniline;3-(4-Methylimidazol-1-yl)-5-trifluoromethylphenylamine;5-(4-Methyl-1<em>H</em>-imidazol-1-yl)-3-(trifluoromethyl)benzeneamine",
    "duplicated_cas_no": "2842084-06-2",
    "SMILES": "C(F)(F)(F)C=1C=C(C=C(N)C1)N2C=C(C)N=C2",
    "meta_data": {
        "InChI": "InChI=1S/C11H10F3N3/c1-7-5-17(6-16-7)10-3-8(11(12,13)14)2-9(15)4-10/h2-6H,15H2,1H3",
        "InChIKey": null,
        "Canonical SMILES": "FC(F)(F)C=1C=C(N)C=C(C1)N2C=NC(=C2)C",
        "Molecular Formula": "C<sub>11</sub>H<sub>10</sub>F<sub>3</sub>N<sub>3</sub>",
        "Molecular Mass": "",
        "Melting Point": "126-129 °C"
    }
}