{
    "cas_no": "4430-36-8",
    "key_name": "Erucin",
    "cn_name": "三芥子酸甘油酯;",
    "alternate_name": "Butane, 1-isothiocyanato-4-(methylthio)-;Isothiocyanic acid, 4-(methylthio)butyl ester;1-Isothiocyanato-4-(methylthio)butane;4-(Methylthio)butyl isothiocyanate;Erucin;1-Isothiocyanato-4-methylsulfanylbutane;4-(Methylsulfanyl)butyl isothiocyanate",
    "duplicated_cas_no": "",
    "SMILES": "C(CCSC)CN=C=S",
    "meta_data": {
        "InChI": "InChI=1S/C6H11NS2/c1-9-5-3-2-4-7-6-8/h2-5H2,1H3",
        "InChIKey": null,
        "Canonical SMILES": "S=C=NCCCCSC",
        "Molecular Formula": "C<sub>6</sub>H<sub>11</sub>NS<sub>2</sub>",
        "Molecular Mass": "161.29",
        "Boiling Point": "130-140 °C @ Press: 9 Torr",
        "Melting Point": "50 °C"
    }
}