{
    "cas_no": "14432-12-3",
    "key_name": "4-Amino-2-chloropyridine",
    "cn_name": "2-氯-4-氨基吡啶;4-氨基-2-氯吡啶;",
    "alternate_name": "4-Pyridinamine, 2-chloro-;Pyridine, 4-amino-2-chloro-;2-Chloro-4-pyridinamine;4-Amino-2-chloropyridine;2-Chloro-4-aminopyridine;(2-Chloropyridin-4-yl)amine;2-Chloropyridin-4-amine",
    "duplicated_cas_no": "",
    "SMILES": "NC=1C=C(Cl)N=CC1",
    "meta_data": {
        "InChI": "InChI=1S/C5H5ClN2/c6-5-3-4(7)1-2-8-5/h1-3H,(H2,7,8)",
        "InChIKey": null,
        "Canonical SMILES": "ClC1=NC=CC(N)=C1",
        "Molecular Formula": "C<sub>5</sub>H<sub>5</sub>ClN<sub>2</sub>",
        "Molecular Mass": "128.56",
        "Melting Point": "91-91.5 °C"
    }
}