{
    "cas_no": "63547-24-0",
    "key_name": "Modafinil acid",
    "cn_name": null,
    "alternate_name": "Acetic acid, 2-[(diphenylmethyl)sulfinyl]-;Acetic acid, [(diphenylmethyl)sulfinyl]-;2-[(Diphenylmethyl)sulfinyl]acetic acid;(Benzhydrylsulfinyl)acetic acid;CRL 40467;Modafinil acid;(±)-Modafinic acid;Modafinilic acid;2-Benzhydrylsulphinylacetic acid;2-Diphenylmethanesulfinylacetic acid;2-(Benzhydrylsulfinyl)acetic acid",
    "duplicated_cas_no": "",
    "SMILES": "C(S(CC(O)=O)=O)(C1=CC=CC=C1)C2=CC=CC=C2",
    "meta_data": {
        "InChI": "InChI=1S/C15H14O3S/c16-14(17)11-19(18)15(12-7-3-1-4-8-12)13-9-5-2-6-10-13/h1-10,15H,11H2,(H,16,17)",
        "InChIKey": null,
        "Canonical SMILES": "O=C(O)CS(=O)C(C=1C=CC=CC1)C=2C=CC=CC2",
        "Molecular Formula": "C<sub>15</sub>H<sub>14</sub>O<sub>3</sub>S",
        "Molecular Mass": "274.33",
        "Melting Point": "118-120 °C"
    }
}