{
    "cas_no": "294-62-2",
    "key_name": "Cyclododecane",
    "cn_name": "环十二烷;",
    "alternate_name": "Cyclododecane",
    "duplicated_cas_no": "46133-53-3",
    "SMILES": "C1CCCCCCCCCCC1",
    "meta_data": {
        "InChI": "InChI=1S/C12H24/c1-2-4-6-8-10-12-11-9-7-5-3-1/h1-12H2",
        "InChIKey": null,
        "Canonical SMILES": "C1CCCCCCCCCCC1",
        "Molecular Formula": "C<sub>12</sub>H<sub>24</sub>",
        "Molecular Mass": "168.32",
        "Boiling Point": "247 °C",
        "Melting Point": "60.4 °C",
        "Density": "0.82 g/cm³ @ Temp: 80 °C"
    }
}