{
    "cas_no": "5586-70-9",
    "key_name": "Hexamethylene diisothiocyanate",
    "cn_name": "1,6-己二异氰酸脂;1,6-己二异氰酸脂;",
    "alternate_name": "Hexane, 1,6-diisothiocyanato-;Isothiocyanic acid, hexamethylene ester;1,6-Diisothiocyanatohexane;Hexamethylene diisothiocyanate;1,6-Hexanediisothiocyanate;NSC 202579",
    "duplicated_cas_no": "",
    "SMILES": "C(CCCN=C=S)CCN=C=S",
    "meta_data": {
        "InChI": "InChI=1S/C8H12N2S2/c11-7-9-5-3-1-2-4-6-10-8-12/h1-6H2",
        "InChIKey": null,
        "Canonical SMILES": "S=C=NCCCCCCN=C=S",
        "Molecular Formula": "C<sub>8</sub>H<sub>12</sub>N<sub>2</sub>S<sub>2</sub>",
        "Molecular Mass": "200.32",
        "Boiling Point": "183-184 °C @ Press: 6 Torr"
    }
}