{
    "cas_no": "62-68-0",
    "key_name": "Proadifen hydrochloride",
    "cn_name": "普罗地芬盐酸盐;",
    "alternate_name": "Benzeneacetic acid, α-phenyl-α-propyl-, 2-(diethylamino)ethyl ester, hydrochloride (1:1);Valeric acid, 2,2-diphenyl-, 2-(diethylamino)ethyl ester hydrochloride;Benzeneacetic acid, α-phenyl-α-propyl-, 2-(diethylamino)ethyl ester, hydrochloride;SKF 525A;U 5446;2<sup>′</sup>-Diethylaminoethyl 2,2-diphenylpentanoate hydrochloride;β-Diethylaminoethyl diphenylpropylacetate hydrochloride;2-(Diethylamino)ethyl 2,2-diphenylvalerate hydrochloride;Proadifen hydrochloride;RP 5171;SKF 525",
    "duplicated_cas_no": "",
    "SMILES": "C(C(OCCN(CC)CC)=O)(CCC)(C1=CC=CC=C1)C2=CC=CC=C2.Cl",
    "meta_data": {
        "InChI": "InChI=1S/C23H31NO2.ClH/c1-4-17-23(20-13-9-7-10-14-20,21-15-11-8-12-16-21)22(25)26-19-18-24(5-2)6-3;/h7-16H,4-6,17-19H2,1-3H3;1H",
        "InChIKey": null,
        "Canonical SMILES": "Cl.O=C(OCCN(CC)CC)C(C=1C=CC=CC1)(C=2C=CC=CC2)CCC",
        "Molecular Formula": "C<sub>23</sub>H<sub>31</sub>NO<sub>2</sub>.ClH",
        "Molecular Mass": "",
        "Melting Point": "120 °C"
    }
}