{
    "cas_no": "5333-86-8",
    "key_name": "Benzenecarboximidic acid, ethyl ester, hydrochloride (1:1)",
    "cn_name": "苯甲亚胺酸乙酯盐酸盐;",
    "alternate_name": "Benzenecarboximidic acid, ethyl ester, hydrochloride (1:1);Benzimidic acid, ethyl ester, hydrochloride;Benzenecarboximidic acid, ethyl ester, hydrochloride;Ethyl benzimidate hydrochloride;Benzimidoyl ethyl ether hydrochloride;Ethyl iminobenzoate hydrochloride;Ethyl benzenecarboximidate hydrochloride",
    "duplicated_cas_no": "",
    "SMILES": "C(OCC)(=N)C1=CC=CC=C1.Cl",
    "meta_data": {
        "InChI": "InChI=1S/C9H11NO.ClH/c1-2-11-9(10)8-6-4-3-5-7-8;/h3-7,10H,2H2,1H3;1H",
        "InChIKey": null,
        "Canonical SMILES": "Cl.N=C(OCC)C=1C=CC=CC1",
        "Molecular Formula": "C<sub>9</sub>H<sub>11</sub>NO.ClH",
        "Molecular Mass": "",
        "Melting Point": "119-120 °C"
    }
}