{
    "cas_no": "88784-33-2",
    "key_name": "5-(Phenylmethyl) (2<em>S</em>)-2-(1,3-dihydro-1,3-dioxo-2<em>H</em>-isoindol-2-yl)pentanedioate",
    "cn_name": "(S)-2-(1,3-二氧代-1,3-二氢异吲哚-2-基)戊二酸-5-苄酯;",
    "alternate_name": "Pentanedioic acid, 2-(1,3-dihydro-1,3-dioxo-2<em>H</em>-isoindol-2-yl)-, 5-(phenylmethyl) ester, (2<em>S</em>)-;Pentanedioic acid, 2-(1,3-dihydro-1,3-dioxo-2<em>H</em>-isoindol-2-yl)-, 5-(phenylmethyl) ester, (<em>S</em>)-;5-(Phenylmethyl) (2<em>S</em>)-2-(1,3-dihydro-1,3-dioxo-2<em>H</em>-isoindol-2-yl)pentanedioate;(<em>S</em>)-2-(1,3-Dioxo-1,3-dihydroisoindol-2-yl)pentanedioic acid 5-benzyl ester;(<em>S</em>)-5-(Benzyloxy)-2-(1,3-dioxoisoindolin-2-yl)-5-oxopentanoic acid",
    "duplicated_cas_no": "",
    "SMILES": "[C@H](CCC(OCC1=CC=CC=C1)=O)(C(O)=O)N2C(=O)C=3C(C2=O)=CC=CC3",
    "meta_data": {
        "InChI": "InChI=1S/C20H17NO6/c22-17(27-12-13-6-2-1-3-7-13)11-10-16(20(25)26)21-18(23)14-8-4-5-9-15(14)19(21)24/h1-9,16H,10-12H2,(H,25,26)/t16-/m0/s1",
        "InChIKey": null,
        "Canonical SMILES": "O=C(O)C(N1C(=O)C=2C=CC=CC2C1=O)CCC(=O)OCC=3C=CC=CC3",
        "Molecular Formula": "C<sub>20</sub>H<sub>17</sub>NO<sub>6</sub>",
        "Molecular Mass": "367.35",
        "Melting Point": "135-136 °C"
    }
}