{
    "cas_no": "27673-48-9",
    "key_name": "5,8-Dihydro-1-naphthol",
    "cn_name": "5,8-二氢萘酚;5,8-二氢-1-萘酚;",
    "alternate_name": "1-Naphthalenol, 5,8-dihydro-;1-Naphthol, 5,8-dihydro-;5,8-Dihydro-1-naphthalenol;5,8-Dihydro-1-naphthol;NSC 125584;5-Hydroxy-1,4-dihydronaphthalene;5,8-Dihydronaphthalen-1-ol",
    "duplicated_cas_no": "",
    "SMILES": "OC1=C2C(=CC=C1)CC=CC2",
    "meta_data": {
        "InChI": "InChI=1S/C10H10O/c11-10-7-3-5-8-4-1-2-6-9(8)10/h1-3,5,7,11H,4,6H2",
        "InChIKey": null,
        "Canonical SMILES": "OC1=CC=CC2=C1CC=CC2",
        "Molecular Formula": "C<sub>10</sub>H<sub>10</sub>O",
        "Molecular Mass": "146.19",
        "Boiling Point": "120 °C @ Press: 1 Torr",
        "Melting Point": "75 °C"
    }
}