{
    "cas_no": "18725-37-6",
    "key_name": "<em>N</em>,<em>S</em>-Diacetylcysteine",
    "cn_name": null,
    "alternate_name": "<span class=\"text-smallcaps\">L</span>-Cysteine, <em>N</em>,<em>S</em>-diacetyl-;Cysteine, <em>N</em>-acetyl-, acetate (ester), <span class=\"text-smallcaps\">L</span>-;<span class=\"text-smallcaps\">L</span>-Cysteine, <em>N</em>-acetyl-, acetate (ester);Cysteine, <em>N</em>-acetyl-, acetate;Acetic acid, thio-, <em>S</em>-ester with <em>N</em>-acetyl-<span class=\"text-smallcaps\">L</span>-cysteine;<em>N</em>,<em>S</em>-Diacetyl-<span class=\"text-smallcaps\">L</span>-cysteine;<em>N</em>-Acetylcysteine <em>S</em>-acetate;Dacisteine;<em>N</em>,<em>S</em>-Diacetylcysteine;(2R)-3-(Acetylsulfanyl)-2-acetamidopropanoic acid",
    "duplicated_cas_no": "17693-66-2;850079-22-0",
    "SMILES": "[C@@H](CSC(C)=O)(NC(C)=O)C(O)=O",
    "meta_data": {
        "InChI": "InChI=1S/C7H11NO4S/c1-4(9)8-6(7(11)12)3-13-5(2)10/h6H,3H2,1-2H3,(H,8,9)(H,11,12)/t6-/m0/s1",
        "InChIKey": null,
        "Canonical SMILES": "O=C(SCC(NC(=O)C)C(=O)O)C",
        "Molecular Formula": "C<sub>7</sub>H<sub>11</sub>NO<sub>4</sub>S",
        "Molecular Mass": "205.23",
        "Melting Point": "111-112 °C"
    }
}