{
    "cas_no": "13083-94-8",
    "key_name": "1,1′-(1,6-Hexanediyl)bis[1,1,1-trichlorosilane]",
    "cn_name": "1,6-二(三氯甲硅烷基)己烷;1,6-二(三氯甲硅烷基)己烷;",
    "alternate_name": "Silane, 1,1′-(1,6-hexanediyl)bis[1,1,1-trichloro-;1,8-Disilaoctane, 1,1,1,8,8,8-hexachloro-;Silane, 1,6-hexanediylbis[trichloro-;1,1′-(1,6-Hexanediyl)bis[1,1,1-trichlorosilane];1,6-Bis(trichlorosilyl)hexane",
    "duplicated_cas_no": "",
    "SMILES": "C([Si](Cl)(Cl)Cl)CCCCC[Si](Cl)(Cl)Cl",
    "meta_data": {
        "InChI": "InChI=1S/C6H12Cl6Si2/c7-13(8,9)5-3-1-2-4-6-14(10,11)12/h1-6H2",
        "InChIKey": null,
        "Canonical SMILES": "Cl[Si](Cl)(Cl)CCCCCC[Si](Cl)(Cl)Cl",
        "Molecular Formula": "C<sub>6</sub>H<sub>12</sub>Cl<sub>6</sub>Si<sub>2</sub>",
        "Molecular Mass": "353.05",
        "Boiling Point": "148-150 °C @ Press: 10 Torr",
        "Density": "1.327 g/cm³"
    }
}