{
    "cas_no": "503-29-7",
    "key_name": "Azetidine",
    "cn_name": "杂氮环丁烷;",
    "alternate_name": "Azetidine;Azacyclobutane;Azete, tetrahydro-;Trimethylenimine;1,3-Propylenimine",
    "duplicated_cas_no": "156423-81-3",
    "SMILES": "C1CNC1",
    "meta_data": {
        "InChI": "InChI=1S/C3H7N/c1-2-4-3-1/h4H,1-3H2",
        "InChIKey": null,
        "Canonical SMILES": "N1CCC1",
        "Molecular Formula": "C<sub>3</sub>H<sub>7</sub>N",
        "Molecular Mass": "57.09",
        "Boiling Point": "63 °C",
        "Melting Point": "-45.3 °C",
        "Density": "0.8412 g/cm³ @ Temp: 24 °C"
    }
}