{
    "cas_no": "126456-43-7",
    "key_name": "(1<em>S</em>,2<em>R</em>)-(-)-1-Amino-2-indanol",
    "cn_name": "(1S,2R)-(-)-1-氨基-2-茚醇;(1S,2R)-(-)-氨基茚醇;",
    "alternate_name": "1<em>H</em>-Inden-2-ol, 1-amino-2,3-dihydro-, (1<em>S</em>,2<em>R</em>)-;1<em>H</em>-Inden-2-ol, 1-amino-2,3-dihydro-, (1<em>S</em>-<em>cis</em>)-;(1<em>S</em>,2<em>R</em>)-1-Amino-2,3-dihydro-1<em>H</em>-inden-2-ol;(1<em>S</em>-<em>cis</em>)-1-Amino-2-indanol;2(<em>R</em>)-Hydroxy-1(<em>S</em>)-aminoindane;(2<em>R</em>-<em>cis</em>)-1-Amino-2,3-dihydro-1<em>H</em>-inden-2-ol;(1<em>S</em>,2<em>R</em>)-1-Aminoindan-2-ol;(1<em>S</em>,2<em>R</em>)-1-Amino-2-hydroxyindan;<em>cis</em>-(1<em>S</em>,2<em>R</em>)-1-Amino-2-indanol;(1<em>S</em>)-Amino-(2<em>R</em>)-indanol;(-)-<em>cis</em>-1-Aminoindan-2-ol;2(<em>R</em>)-Hydroxy-1(<em>S</em>)-aminoindan;(1<em>S</em>,2<em>R</em>)-<em>cis</em>-1-Amino-2-indanol;(1<em>S</em>,2<em>R</em>)-(-)-<em>cis</em>-1-Amino-2-indanol;[(1<em>S</em>,2<em>R</em>)-2-Hydroxy-2,3-dihydro-1<em>H</em>-inden-1-yl]amine;(1<em>S</em>,2<em>R</em>)-(-)-1-Amino-2-indanol;(1S,2R)-1-Amino-2,3-dihydro-1<em>H</em>-inden-2-ol;(1S,2R)-1-Amino-2,3-dihydro-1-inden-2-ol",
    "duplicated_cas_no": "164906-51-8",
    "SMILES": "N[C@H]1C=2C(C[C@H]1O)=CC=CC2",
    "meta_data": {
        "InChI": "InChI=1S/C9H11NO/c10-9-7-4-2-1-3-6(7)5-8(9)11/h1-4,8-9,11H,5,10H2/t8-,9+/m1/s1",
        "InChIKey": null,
        "Canonical SMILES": "OC1CC=2C=CC=CC2C1N",
        "Molecular Formula": "C<sub>9</sub>H<sub>11</sub>NO",
        "Molecular Mass": "149.19",
        "Melting Point": "117-118 °C"
    }
}