{
    "cas_no": "992-92-7",
    "key_name": "Titanium tetramethoxide",
    "cn_name": "甲醇钛;四甲醇钛(IV);",
    "alternate_name": "Methanol, titanium(4+) salt (4:1);Methanol, titanium(4+) salt;Methyl titanate(IV);Methyl titanate(IV) (Ti(OMe)<sub>4</sub>);Titanium methoxide (Ti(OMe)<sub>4</sub>);Titanium, tetramethoxy-;Tetramethyl titanate;Titanium tetramethoxide;Tetramethoxytitanium;Titanic acid methyl ester;Methyl orthotitanate;Tetramethyl orthotitanate;Tetrakis(methanolato)titanium;Orgatix TA 70;Methyl titanate, (MeO)<sub>4</sub>Ti;(<em>T</em>-4)-Tetramethoxytitanium;Tetramethoxychinium",
    "duplicated_cas_no": "12563-47-2;856206-12-7;1204129-92-9",
    "SMILES": "CO.[Ti]",
    "meta_data": {
        "InChI": "InChI=1S/CH4O.Ti/c1-2;/h2H,1H3;",
        "InChIKey": null,
        "Canonical SMILES": "[Ti].OC",
        "Molecular Formula": "CH<sub>4</sub>O.<sup>1</sup>/<sub>4</sub>Ti",
        "Molecular Mass": "",
        "Melting Point": "205-206 °C"
    }
}