{
    "cas_no": "998-40-3",
    "key_name": "Tributylphosphine",
    "cn_name": "三丁基膦;三正丁基膦;",
    "alternate_name": "Phosphine, tributyl-;Tributylphosphine;Tri-<em>n</em>-butylphosphine;NSC 91700;TBP;Hishicolin P 4;Cytop 340",
    "duplicated_cas_no": "141898-63-7",
    "SMILES": "P(CCCC)(CCCC)CCCC",
    "meta_data": {
        "InChI": "InChI=1S/C12H27P/c1-4-7-10-13(11-8-5-2)12-9-6-3/h4-12H2,1-3H3",
        "InChIKey": null,
        "Canonical SMILES": "P(CCCC)(CCCC)CCCC",
        "Molecular Formula": "C<sub>12</sub>H<sub>27</sub>P",
        "Molecular Mass": "202.32",
        "Boiling Point": "149.5 °C @ Press: 12 Torr",
        "Density": "0.8118 g/cm³ @ Temp: 20 °C"
    }
}