{
    "cas_no": "504-20-1",
    "key_name": "Phorone",
    "cn_name": "2,6-二甲基-2,5-庚二烯-4-酮;佛尔酮;",
    "alternate_name": "2,5-Heptadien-4-one, 2,6-dimethyl-;2,6-Dimethyl-2,5-heptadien-4-one;Diisopropylidene acetone;<em>sym</em>-Diisopropylidene acetone;Phorone;Diisobutenyl ketone;Foron;NSC 38718;NSC 403517",
    "duplicated_cas_no": "",
    "SMILES": "C(C(C=C(C)C)=O)=C(C)C",
    "meta_data": {
        "InChI": "InChI=1S/C9H14O/c1-7(2)5-9(10)6-8(3)4/h5-6H,1-4H3",
        "InChIKey": null,
        "Canonical SMILES": "O=C(C=C(C)C)C=C(C)C",
        "Molecular Formula": "C<sub>9</sub>H<sub>14</sub>O",
        "Molecular Mass": "138.21",
        "Boiling Point": "198 °C",
        "Melting Point": "28 °C",
        "Density": "0.9 g/cm³"
    }
}