{
    "cas_no": "2855-13-2",
    "key_name": "Isophorone diamine",
    "cn_name": "异佛尔酮二胺;5-氨基-1,3,3-三甲基环己甲胺;",
    "alternate_name": "Cyclohexanemethanamine, 5-amino-1,3,3-trimethyl-;Cyclohexanemethylamine, 5-amino-1,3,3-trimethyl-;5-Amino-1,3,3-trimethylcyclohexanemethanamine;3-Aminomethyl-3,5,5-trimethylcyclohexylamine;1-Amino-3-(aminomethyl)-3,5,5-trimethylcyclohexane;Isophorone diamine;1-Amino-3,3,5-trimethyl-5-aminomethylcyclohexane;5-Amino-1,3,3-trimethylcyclohexanemethylamine;1,3,3-Trimethyl-1-aminomethyl-5-aminocyclohexane;3,3,5-Trimethyl-5-aminomethylcyclohexylamine;IPD;Araldite HY 5083;Vestamin IPD;Chemammina CA 17;Luxam IPD;Polypox IPD;IPDA;Rutadur SG;HY 3484;Epilox IPD;LH 281;Araldite HY 5161;HY 5161;3-Aminomethyl-3,5,5-trimethyl-1-cyclohexylamine;Rutapox H 550L;Vestamine IPDA;RIM 137;D 230;CeTePox 1314NFN;Epikure 943;3-Amino-1,5,5-trimethyl-1-cyclohexanemathanamine;Vestanat IPD;Baxxodur EC 201;EPH 943;Epikure 3300;Epicure 3300;3-(Aminomethyl)-3,5,5-trimethylcyclohexanamine;Vestamid IPD;Chemcure 331;Aradur 42;Isophorondiamine;Aradur 42BD;1-Aminomethyl-5-amino-1,3,3-trimethyl cyclohexane;Nitoprime 25 Hardener;Wanamine IPDA;KH 816;ER 2943;Surf Clear SCD;Docure KH 816;Hardener 200B;Cyclohexanemethanamine, 4-amino-2,2,6-trimethyl-;ED 46;3-Aminomethyl-3,5,5-trimethyl-1-aminocyclohexane",
    "duplicated_cas_no": "25495-81-2;45981-71-3;50858-71-4;52004-55-4;52697-24-2;116723-72-9;129050-51-7;161544-44-1;177646-11-6;500567-32-8;906545-76-4;1186017-38-8;2760864-65-9",
    "SMILES": "C(N)C1(C)CC(C)(C)CC(N)C1",
    "meta_data": {
        "InChI": "InChI=1S/C10H22N2/c1-9(2)4-8(12)5-10(3,6-9)7-11/h8H,4-7,11-12H2,1-3H3",
        "InChIKey": null,
        "Canonical SMILES": "NCC1(C)CC(N)CC(C)(C)C1",
        "Molecular Formula": "C<sub>10</sub>H<sub>22</sub>N<sub>2</sub>",
        "Molecular Mass": "170.30",
        "Boiling Point": "247 °C",
        "Melting Point": "10 °C",
        "Density": "0.922 g/cm³"
    }
}