{
    "cas_no": "128-42-7",
    "key_name": "4,4′-Dinitro-2,2′-stilbenedisulfonic acid",
    "cn_name": "4,4\"-二硝基二苯乙烯-2,2\"-二磺酸;",
    "alternate_name": "Benzenesulfonic acid, 2,2′-(1,2-ethenediyl)bis[5-nitro-;2,2′-Stilbenedisulfonic acid, 4,4′-dinitro-;2,2′-(1,2-Ethenediyl)bis[5-nitrobenzenesulfonic acid];4,4′-Dinitro-2,2′-stilbenedisulfonic acid;Dinitrostilbenedisulfonic acid;DNS;DNDS;NSC 1793",
    "duplicated_cas_no": "1185243-97-3",
    "SMILES": "S(=O)(=O)(O)C1=C(C=CC2=C(S(=O)(=O)O)C=C(N(=O)=O)C=C2)C=CC(N(=O)=O)=C1",
    "meta_data": {
        "InChI": "InChI=1S/C14H10N2O10S2/c17-15(18)11-5-3-9(13(7-11)27(21,22)23)1-2-10-4-6-12(16(19)20)8-14(10)28(24,25)26/h1-8H,(H,21,22,23)(H,24,25,26)",
        "InChIKey": null,
        "Canonical SMILES": "O=N(=O)C1=CC=C(C=CC2=CC=C(C=C2S(=O)(=O)O)N(=O)=O)C(=C1)S(=O)(=O)O",
        "Molecular Formula": "C<sub>14</sub>H<sub>10</sub>N<sub>2</sub>O<sub>10</sub>S<sub>2</sub>",
        "Molecular Mass": "430.37",
        "Melting Point": "266 °C"
    }
}