{
    "cas_no": "6011-14-9",
    "key_name": "Acetonitrile, 2-amino-, hydrochloride (1:1)",
    "cn_name": "氨基乙腈盐酸盐;",
    "alternate_name": "Acetonitrile, 2-amino-, hydrochloride (1:1);Glycinonitrile, monohydrochloride;Acetonitrile, amino-, monohydrochloride;Aminoacetonitrile hydrochloride;Aminoacetonitrile monohydrochloride;Glycinonitrile hydrochloride;2-Aminoacetonitrile hydrochloride;α-Aminoacetonitrile hydrochloride;Cyanomethanamine hydrochloride",
    "duplicated_cas_no": "2361025-46-7",
    "SMILES": "C(C#N)N.Cl",
    "meta_data": {
        "InChI": "InChI=1S/C2H4N2.ClH/c3-1-2-4;/h1,3H2;1H",
        "InChIKey": null,
        "Canonical SMILES": "Cl.N#CCN",
        "Molecular Formula": "C<sub>2</sub>H<sub>4</sub>N<sub>2</sub>.ClH",
        "Molecular Mass": "",
        "Melting Point": "160-166 °C (decomp)"
    }
}