{
    "cas_no": "5472-70-8",
    "key_name": "3-Methylphenylalanine",
    "cn_name": "DL-3-甲基苯丙氨酸;DL-3-甲基苯丙氨酸;",
    "alternate_name": "Phenylalanine, 3-methyl-;Alanine, 3-<em>m</em>-tolyl-, <span class=\"text-smallcaps\">DL</span>-;<span class=\"text-smallcaps\">DL</span>-Phenylalanine, 3-methyl-;3-Methylphenylalanine;<span class=\"text-smallcaps\">DL</span>-3-Methylphenylalanine;NSC 14793;NSC 29447;2-Amino-3-(3-methylphenyl)propanoic acid;2-Amino-3-<em>m</em>-tolyl-propionic acid",
    "duplicated_cas_no": "2283-42-3",
    "SMILES": "C(C(C(O)=O)N)C1=CC(C)=CC=C1",
    "meta_data": {
        "InChI": "InChI=1S/C10H13NO2/c1-7-3-2-4-8(5-7)6-9(11)10(12)13/h2-5,9H,6,11H2,1H3,(H,12,13)",
        "InChIKey": null,
        "Canonical SMILES": "O=C(O)C(N)CC=1C=CC=C(C1)C",
        "Molecular Formula": "C<sub>10</sub>H<sub>13</sub>NO<sub>2</sub>",
        "Molecular Mass": "179.22",
        "Melting Point": "245 °C"
    }
}