{
    "cas_no": "7207-92-3",
    "key_name": "Nandrolone propionate",
    "cn_name": null,
    "alternate_name": "Estr-4-en-3-one, 17-(1-oxopropoxy)-, (17β)-;Estr-4-en-3-one, 17β-hydroxy-, propionate;(17β)-17-(1-Oxopropoxy)estr-4-en-3-one;Nandrolone propionate;19-Nortestosterone propionate;Nortestosterone propionate;Nandrolone 17-propionate;Anabolicus;Nor-Anabol;Nortesto;Norybol 19;Pondus;Testobolin;Norandrostenolone propionate",
    "duplicated_cas_no": "21373-32-0",
    "SMILES": "C[C@@]12[C@]([C@]3([C@@]([C@@]4(C(CC3)=CC(=O)CC4)[H])(CC1)[H])[H])(CC[C@@H]2OC(CC)=O)[H]",
    "meta_data": {
        "InChI": "InChI=1S/C21H30O3/c1-3-20(23)24-19-9-8-18-17-6-4-13-12-14(22)5-7-15(13)16(17)10-11-21(18,19)2/h12,15-19H,3-11H2,1-2H3/t15-,16+,17+,18-,19-,21-/m0/s1",
        "InChIKey": null,
        "Canonical SMILES": "O=C(OC1CCC2C3CCC4=CC(=O)CCC4C3CCC12C)CC",
        "Molecular Formula": "C<sub>21</sub>H<sub>30</sub>O<sub>3</sub>",
        "Molecular Mass": "330.46",
        "Melting Point": "55-60 °C"
    }
}