{
    "cas_no": "80-33-1",
    "key_name": "Chlorfenson",
    "cn_name": null,
    "alternate_name": "Benzenesulfonic acid, 4-chloro-, 4-chlorophenyl ester;Benzenesulfonic acid, <em>p</em>-chloro-, <em>p</em>-chlorophenyl ester;D 854;C 1006;K 6451;Acaricydol E 20;Chlorfenson;<em>p</em>-Chlorophenyl <em>p</em>-chlorobenzenesulfonate;<em>p</em>-Chlorophenyl <em>p</em>-chlorobenzenesulphonate;CPCBS;Estonmite;Genite 883;Lethalaire G-58;Miticide K 101;Onex;Orthotran;Otracid;Ovex;Ovochlor;Ovotox;Ovotran;PCPCBS;4-Chlorophenyl 4-chlorobenzenesulfonate;4-Chlorophenyl 4-chlorobenzenesulphonate;CCS;Sappilan;Chlorofenizon;Ethersulfonate;Chlorbenzolsulfonat;Chlorfensin;Benzolsulfonat;Erysit;Roztoczol fluid;Ovatran;Danicut;NSC 5618;Ephirsulfonate",
    "duplicated_cas_no": "",
    "SMILES": "S(OC1=CC=C(Cl)C=C1)(=O)(=O)C2=CC=C(Cl)C=C2",
    "meta_data": {
        "InChI": "InChI=1S/C12H8Cl2O3S/c13-9-1-5-11(6-2-9)17-18(15,16)12-7-3-10(14)4-8-12/h1-8H",
        "InChIKey": null,
        "Canonical SMILES": "O=S(=O)(OC1=CC=C(Cl)C=C1)C2=CC=C(Cl)C=C2",
        "Molecular Formula": "C<sub>12</sub>H<sub>8</sub>Cl<sub>2</sub>O<sub>3</sub>S",
        "Molecular Mass": "303.16",
        "Melting Point": "86.5 °C"
    }
}