{
    "cas_no": "1078-71-3",
    "key_name": "Heptylbenzene",
    "cn_name": "正庚基苯;",
    "alternate_name": "Benzene, heptyl-;Heptane, 1-phenyl-;Heptylbenzene;<em>n</em>-Heptylbenzene;Heptane, 1(<em>or</em> 7)-phenyl-;1-Phenylheptane;1-Heptylbenzene;NSC 97413",
    "duplicated_cas_no": "",
    "SMILES": "C(CCCCCC)C1=CC=CC=C1",
    "meta_data": {
        "InChI": "InChI=1S/C13H20/c1-2-3-4-5-7-10-13-11-8-6-9-12-13/h6,8-9,11-12H,2-5,7,10H2,1H3",
        "InChIKey": null,
        "Canonical SMILES": "C=1C=CC(=CC1)CCCCCCC",
        "Molecular Formula": "C<sub>13</sub>H<sub>20</sub>",
        "Molecular Mass": "176.30",
        "Boiling Point": "240 °C",
        "Melting Point": "-48 °C",
        "Density": "0.8570 g/cm³ @ Temp: 20 °C"
    }
}