{
    "cas_no": "3061-88-9",
    "key_name": "<span class=\"text-smallcaps\">L</smallcap>-Alanyl-<smallcap>L</span>-tyrosine",
    "cn_name": "丙氨酰-L-酪氨酸;",
    "alternate_name": "<span class=\"text-smallcaps\">L</smallcap>-Tyrosine, <smallcap>L</span>-alanyl-;Tyrosine, <em>N</em>-<span class=\"text-smallcaps\">L</smallcap>-alanyl-, <smallcap>L</span>-;<span class=\"text-smallcaps\">L</smallcap>-Tyrosine, <em>N</em>-<smallcap>L</span>-alanyl-;Tyrosine, <em>N</em>-<span class=\"text-smallcaps\">L</span>-alanyl-;Tyrosine, <em>N</em>-alanyl-;<span class=\"text-smallcaps\">L</smallcap>-Alanyl-<smallcap>L</span>-tyrosine;10: PN: JP2006248976 SEQID: 10 claimed protein;73: PN: US20070066537 PAGE: 17 claimed protein;48: PN: WO2007067983 SEQID: 197 unclaimed protein;183: PN: EP2161028 PAGE: 10 claimed protein;8: PN: WO2017060857 PAGE: 86 claimed sequence;165: PN: WO2023161197 SEQID: 167 claimed sequence",
    "duplicated_cas_no": "",
    "SMILES": "[C@H](NC([C@H](C)N)=O)(CC1=CC=C(O)C=C1)C(O)=O",
    "meta_data": {
        "InChI": "InChI=1S/C12H16N2O4/c1-7(13)11(16)14-10(12(17)18)6-8-2-4-9(15)5-3-8/h2-5,7,10,15H,6,13H2,1H3,(H,14,16)(H,17,18)/t7-,10-/m0/s1",
        "InChIKey": null,
        "Canonical SMILES": "O=C(O)C(NC(=O)C(N)C)CC1=CC=C(O)C=C1",
        "Molecular Formula": "C<sub>12</sub>H<sub>16</sub>N<sub>2</sub>O<sub>4</sub>",
        "Molecular Mass": "252.27",
        "Melting Point": "238-240 °C (decomp)"
    }
}