{
    "cas_no": "25436-07-1",
    "key_name": "Acetic acid, 2,2,2-trichloro-, trimethylsilyl ester",
    "cn_name": "三甲基硅基三氯乙酸;",
    "alternate_name": "Acetic acid, 2,2,2-trichloro-, trimethylsilyl ester;Acetic acid, trichloro-, trimethylsilyl ester;Silanol, trimethyl-, trichloroacetate;Trimethylsilyl trichloroacetate",
    "duplicated_cas_no": "",
    "SMILES": "C(O[Si](C)(C)C)(C(Cl)(Cl)Cl)=O",
    "meta_data": {
        "InChI": "InChI=1S/C5H9Cl3O2Si/c1-11(2,3)10-4(9)5(6,7)8/h1-3H3",
        "InChIKey": null,
        "Canonical SMILES": "O=C(O[Si](C)(C)C)C(Cl)(Cl)Cl",
        "Molecular Formula": "C<sub>5</sub>H<sub>9</sub>Cl<sub>3</sub>O<sub>2</sub>Si",
        "Molecular Mass": "235.57",
        "Boiling Point": "70-73 °C @ Press: 12 Torr",
        "Density": "1.237 g/cm³"
    }
}