{
    "cas_no": "1075-49-6",
    "key_name": "4-Vinylbenzoic acid",
    "cn_name": "4-乙烯基苯甲酸;对乙烯基苯甲酸;",
    "alternate_name": "Benzoic acid, 4-ethenyl-;Benzoic acid, <em>p</em>-vinyl-;4-Ethenylbenzoic acid;<em>p</em>-Vinylbenzoic acid;4-Carboxystyrene;<em>p</em>-Carboxystyrene;4-Vinylbenzoic acid;NSC 176003",
    "duplicated_cas_no": "2764684-48-0",
    "SMILES": "C(O)(=O)C1=CC=C(C=C)C=C1",
    "meta_data": {
        "InChI": "InChI=1S/C9H8O2/c1-2-7-3-5-8(6-4-7)9(10)11/h2-6H,1H2,(H,10,11)",
        "InChIKey": null,
        "Canonical SMILES": "O=C(O)C1=CC=C(C=C)C=C1",
        "Molecular Formula": "C<sub>9</sub>H<sub>8</sub>O<sub>2</sub>",
        "Molecular Mass": "148.16",
        "Melting Point": "143-144 °C"
    }
}