{
    "cas_no": "615-42-9",
    "key_name": "1,2-Diiodobenzene",
    "cn_name": "1,2-二碘苯;邻二碘苯;",
    "alternate_name": "Benzene, 1,2-diiodo-;Benzene, <em>o</em>-diiodo-;1,2-Diiodobenzene;<em>o</em>-Diiodobenzene;1,2-Phenylene diiodide;NSC 29029",
    "duplicated_cas_no": "",
    "SMILES": "IC1=C(I)C=CC=C1",
    "meta_data": {
        "InChI": "InChI=1S/C6H4I2/c7-5-3-1-2-4-6(5)8/h1-4H",
        "InChIKey": null,
        "Canonical SMILES": "IC=1C=CC=CC1I",
        "Molecular Formula": "C<sub>6</sub>H<sub>4</sub>I<sub>2</sub>",
        "Molecular Mass": "329.90",
        "Boiling Point": "287 °C",
        "Melting Point": "27 °C"
    }
}