{
    "cas_no": "23779-95-5",
    "key_name": "4-Hydroxy-8-(trifluoromethyl)-3-quinolinecarboxylic acid",
    "cn_name": null,
    "alternate_name": "3-Quinolinecarboxylic acid, 4-hydroxy-8-(trifluoromethyl)-;4-Hydroxy-8-(trifluoromethyl)-3-quinolinecarboxylic acid;NSC 102792;4-Hydroxy-8-trifluoromethylquinoline-3-carboxylic acid",
    "duplicated_cas_no": "",
    "SMILES": "C(F)(F)(F)C=1C2=C(C(O)=C(C(O)=O)C=N2)C=CC1",
    "meta_data": {
        "InChI": "InChI=1S/C11H6F3NO3/c12-11(13,14)7-3-1-2-5-8(7)15-4-6(9(5)16)10(17)18/h1-4H,(H,15,16)(H,17,18)",
        "InChIKey": null,
        "Canonical SMILES": "O=C(O)C1=CN=C2C(C=CC=C2C(F)(F)F)=C1O",
        "Molecular Formula": "C<sub>11</sub>H<sub>6</sub>F<sub>3</sub>NO<sub>3</sub>",
        "Molecular Mass": "257.17",
        "Melting Point": "292 °C"
    }
}