{
    "cas_no": "764-93-2",
    "key_name": "1-Decyne",
    "cn_name": "1-癸炔;",
    "alternate_name": "1-Decyne;Octylacetylene;<em>n</em>-Octylacetylene",
    "duplicated_cas_no": "",
    "SMILES": "C(CCCC#C)CCCC",
    "meta_data": {
        "InChI": "InChI=1S/C10H18/c1-3-5-7-9-10-8-6-4-2/h1H,4-10H2,2H3",
        "InChIKey": null,
        "Canonical SMILES": "C#CCCCCCCCC",
        "Molecular Formula": "C<sub>10</sub>H<sub>18</sub>",
        "Molecular Mass": "138.25",
        "Boiling Point": "174 °C",
        "Melting Point": "-44 °C",
        "Density": "0.791 g/cm³"
    }
}