{
    "cas_no": "2302-30-9",
    "key_name": "4,5-Dibromo-1<em>H</em>-imidazole",
    "cn_name": "4,5-二碘-1H-咪唑;",
    "alternate_name": "1<em>H</em>-Imidazole, 4,5-dibromo-;Imidazole, 4,5-dibromo-;4,5-Dibromo-1<em>H</em>-imidazole;4,5-Dibromoimidazole",
    "duplicated_cas_no": "",
    "SMILES": "BrC1=C(Br)N=CN1",
    "meta_data": {
        "InChI": "InChI=1S/C3H2Br2N2/c4-2-3(5)7-1-6-2/h1H,(H,6,7)",
        "InChIKey": null,
        "Canonical SMILES": "BrC=1N=CNC1Br",
        "Molecular Formula": "C<sub>3</sub>H<sub>2</sub>Br<sub>2</sub>N<sub>2</sub>",
        "Molecular Mass": "225.87",
        "Melting Point": "225 °C"
    }
}