{
    "cas_no": "18202-73-8",
    "key_name": "Propanimidamide, 2,2-dimethyl-, hydrochloride (1:1)",
    "cn_name": "2,2-二甲基丙亚胺盐酸;",
    "alternate_name": "Propanimidamide, 2,2-dimethyl-, hydrochloride (1:1);Pivalamidine, monohydrochloride;Propanimidamide, 2,2-dimethyl-, monohydrochloride;Pivalamidine, hydrochloride;2,2-Dimethylpropionamidine hydrochloride;<em>tert</em>-Butylcarbamidine hydrochloride;<em>tert</em>-Butylamidinium chloride;2,2-Dimethylpropionimidamide hydrochloride;<em>tert</em>-Butanecarboximidamide hydrochloride;Pivalimidamide hydrochloride;2,2-Dimethylpropanamidine hydrochloride;1-Imino-2,2-dimethylpropan-1-aminium chloride",
    "duplicated_cas_no": "",
    "SMILES": "C(C(=N)N)(C)(C)C.Cl",
    "meta_data": {
        "InChI": "InChI=1S/C5H12N2.ClH/c1-5(2,3)4(6)7;/h1-3H3,(H3,6,7);1H",
        "InChIKey": null,
        "Canonical SMILES": "Cl.N=C(N)C(C)(C)C",
        "Molecular Formula": "C<sub>5</sub>H<sub>12</sub>N<sub>2</sub>.ClH",
        "Molecular Mass": "",
        "Melting Point": "191-192 °C"
    }
}