{
    "cas_no": "18270-17-2",
    "key_name": "Trimethyl-1-pentyn-1-ylsilane",
    "cn_name": "1-三甲硅基-1-戊炔;",
    "alternate_name": "Silane, trimethyl-1-pentyn-1-yl-;Silane, trimethyl-1-pentynyl-;Trimethyl-1-pentyn-1-ylsilane;1-(Trimethylsilyl)-1-pentyne;Trimethyl-1-pentynylsilane;Propyl(trimethylsilyl)acetylene;(1-Pentyn-1-yl)trimethylsilane",
    "duplicated_cas_no": "",
    "SMILES": "C([Si](C)(C)C)#CCCC",
    "meta_data": {
        "InChI": "InChI=1S/C8H16Si/c1-5-6-7-8-9(2,3)4/h5-6H2,1-4H3",
        "InChIKey": null,
        "Canonical SMILES": "C(#C[Si](C)(C)C)CCC",
        "Molecular Formula": "C<sub>8</sub>H<sub>16</sub>Si",
        "Molecular Mass": "140.30",
        "Boiling Point": "133-134 °C",
        "Density": "0.765 g/cm³ @ Temp: 25 °C"
    }
}