{
    "cas_no": "196618-13-0",
    "key_name": "Oseltamivir",
    "cn_name": "奥司他韦;",
    "alternate_name": "1-Cyclohexene-1-carboxylic acid, 4-(acetylamino)-5-amino-3-(1-ethylpropoxy)-, ethyl ester, (3<em>R</em>,4<em>R</em>,5<em>S</em>)-;1-Cyclohexene-1-carboxylic acid, 4-(acetylamino)-5-amino-3-(1-ethylpropoxy)-, ethyl ester, [3<em>R</em>-(3α,4β,5α)]-;GS 4104;Oseltamivir;Tamvir;Tamiflu-Free;GOP-A-Flu;(-)-Oseltamivir;Enfluvir;Ethyl (3<em>R</em>,4<em>R</em>,5<em>S</em>)-5-amino-4-acetamido-3-(pentan-3-yloxy)cyclohex-1-ene-1-carboxylate;ZINC 039295508;Ebilfumin;MeSH ID: D053139",
    "duplicated_cas_no": "",
    "SMILES": "O(C(CC)CC)[C@H]1[C@H](NC(C)=O)[C@@H](N)CC(C(OCC)=O)=C1",
    "meta_data": {
        "InChI": "InChI=1S/C16H28N2O4/c1-5-12(6-2)22-14-9-11(16(20)21-7-3)8-13(17)15(14)18-10(4)19/h9,12-15H,5-8,17H2,1-4H3,(H,18,19)/t13-,14+,15+/m0/s1",
        "InChIKey": null,
        "Canonical SMILES": "O=C(OCC)C1=CC(OC(CC)CC)C(NC(=O)C)C(N)C1",
        "Molecular Formula": "C<sub>16</sub>H<sub>28</sub>N<sub>2</sub>O<sub>4</sub>",
        "Molecular Mass": "312.40",
        "Melting Point": "107-108 °C"
    }
}