{
    "cas_no": "935-13-7",
    "key_name": "2-Furanpropanoic acid",
    "cn_name": "3-(2-呋喃)丙酸;",
    "alternate_name": "2-Furanpropanoic acid;2-Furanpropionic acid;β-(2-Furyl)propionic acid;3-(2-Furyl)propanoic acid;3-Furan-2-ylpropionic acid;3-(2-Furyl)propionic acid;3-(Furan-2-yl)propanoic acid",
    "duplicated_cas_no": "",
    "SMILES": "C(CC(O)=O)C1=CC=CO1",
    "meta_data": {
        "InChI": "InChI=1S/C7H8O3/c8-7(9)4-3-6-2-1-5-10-6/h1-2,5H,3-4H2,(H,8,9)",
        "InChIKey": null,
        "Canonical SMILES": "O=C(O)CCC=1OC=CC1",
        "Molecular Formula": "C<sub>7</sub>H<sub>8</sub>O<sub>3</sub>",
        "Molecular Mass": "140.14",
        "Boiling Point": "229 °C",
        "Melting Point": "58 °C"
    }
}