{
    "cas_no": "2279-15-4",
    "key_name": "<em>N</em>-(Benzyloxycarbonyl)-<span class=\"text-smallcaps\">D</span>-tryptophan",
    "cn_name": null,
    "alternate_name": "<span class=\"text-smallcaps\">D</span>-Tryptophan, <em>N</em>-[(phenylmethoxy)carbonyl]-;Tryptophan, <em>N</em>-carboxy-, <em>N</em>-benzyl ester, <span class=\"text-smallcaps\">D</span>-;<em>N</em>-[(Phenylmethoxy)carbonyl]-<span class=\"text-smallcaps\">D</span>-tryptophan;<em>N</em>-(Benzyloxycarbonyl)-<span class=\"text-smallcaps\">D</span>-tryptophan;<span class=\"text-smallcaps\">D</span>-(Carbobenzyloxy)tryptophan;<em>N</em>-CBZ-<span class=\"text-smallcaps\">D</span>-tryptophan;<em>N</em>-Carbobenzyloxy-<span class=\"text-smallcaps\">D</span>-tryptophan;(2R)-2-(Benzyloxycarbonylamino)-3-(1<em>H</em>-indol-3-yl)propionic acid;Cbz-<span class=\"text-smallcaps\">D</span>-tryptophan;(R)-2-(((Benzyloxy)carbonyl)amino)-3-(1<em>H</em>-indol-3-yl)propanoic acid;<em>N</em>-Carbobenzoxy-<span class=\"text-smallcaps\">D</span>-tryptophan;(2R)-3-(1<em>H</em>-Indol-3-yl)-2-(phenylmethoxycarbonylamino)propanoic acid",
    "duplicated_cas_no": "",
    "SMILES": "C([C@@H](NC(OCC1=CC=CC=C1)=O)C(O)=O)C=2C=3C(NC2)=CC=CC3",
    "meta_data": {
        "InChI": "InChI=1S/C19H18N2O4/c22-18(23)17(10-14-11-20-16-9-5-4-8-15(14)16)21-19(24)25-12-13-6-2-1-3-7-13/h1-9,11,17,20H,10,12H2,(H,21,24)(H,22,23)/t17-/m1/s1",
        "InChIKey": null,
        "Canonical SMILES": "O=C(OCC=1C=CC=CC1)NC(C(=O)O)CC2=CNC=3C=CC=CC32",
        "Molecular Formula": "C<sub>19</sub>H<sub>18</sub>N<sub>2</sub>O<sub>4</sub>",
        "Molecular Mass": "338.36",
        "Melting Point": "128-129 °C"
    }
}