{
    "cas_no": "527-85-5",
    "key_name": "2-Methylbenzamide",
    "cn_name": "527-85-5;",
    "alternate_name": "Benzamide, 2-methyl-;<em>o</em>-Toluamide;2-Methylbenzamide;<em>o</em>-Toluic amide;<em>o</em>-Methylbenzamide;2-Toluamide;NSC 2169",
    "duplicated_cas_no": "",
    "SMILES": "C(N)(=O)C1=C(C)C=CC=C1",
    "meta_data": {
        "InChI": "InChI=1S/C8H9NO/c1-6-4-2-3-5-7(6)8(9)10/h2-5H,1H3,(H2,9,10)",
        "InChIKey": null,
        "Canonical SMILES": "O=C(N)C=1C=CC=CC1C",
        "Molecular Formula": "C<sub>8</sub>H<sub>9</sub>NO",
        "Molecular Mass": "135.16",
        "Melting Point": "147 °C",
        "Density": "1.16 g/cm³"
    }
}