{
    "cas_no": "25808-30-4",
    "key_name": "Acetonitrile, 2-(methylamino)-, hydrochloride (1:1)",
    "cn_name": "甲氨基乙腈盐酸盐;",
    "alternate_name": "Acetonitrile, 2-(methylamino)-, hydrochloride (1:1);Acetonitrile, (methylamino)-, monohydrochloride;<em>N</em>-Methylaminoacetonitrile hydrochloride;(Methylamino)acetonitrile hydrochloride;(Methylamino)acetonitrile monohydrochloride;2-(Methylamino)acetonitrile hydrochloride",
    "duplicated_cas_no": "",
    "SMILES": "C(C#N)NC.Cl",
    "meta_data": {
        "InChI": "InChI=1S/C3H6N2.ClH/c1-5-3-2-4;/h5H,3H2,1H3;1H",
        "InChIKey": null,
        "Canonical SMILES": "Cl.N#CCNC",
        "Molecular Formula": "C<sub>3</sub>H<sub>6</sub>N<sub>2</sub>.ClH",
        "Molecular Mass": "",
        "Melting Point": "104 °C"
    }
}