{
    "cas_no": "188417-26-7",
    "key_name": "Ethylvanillin isobutyrate",
    "cn_name": null,
    "alternate_name": "Propanoic acid, 2-methyl-, 2-ethoxy-4-formylphenyl ester;4-Isobutanoyloxy-3-ethoxybenzaldehyde;Ethylvanillin isobutyrate;2-Ethoxy-4-formylphenyl 2-methylpropanoate;2-Ethoxy-4-formylphenyl isobutyrate",
    "duplicated_cas_no": "",
    "SMILES": "O(C(C(C)C)=O)C1=C(OCC)C=C(C=O)C=C1",
    "meta_data": {
        "InChI": "InChI=1S/C13H16O4/c1-4-16-12-7-10(8-14)5-6-11(12)17-13(15)9(2)3/h5-9H,4H2,1-3H3",
        "InChIKey": null,
        "Canonical SMILES": "O=CC1=CC=C(OC(=O)C(C)C)C(OCC)=C1",
        "Molecular Formula": "C<sub>13</sub>H<sub>16</sub>O<sub>4</sub>",
        "Molecular Mass": "236.26",
        "Melting Point": "45-46 °C"
    }
}