{
    "cas_no": "3531-19-9",
    "key_name": "6-Chloro-2,4-dinitroaniline",
    "cn_name": "6-氯-2,4-二硝基苯胺;2-氯-4,6-二硝基苯胺;",
    "alternate_name": "Benzenamine, 2-chloro-4,6-dinitro-;Aniline, 2-chloro-4,6-dinitro-;2-Chloro-4,6-dinitrobenzenamine;2-Chloro-4,6-dinitroaniline;6-Chloro-2,4-dinitroaniline;2,4-Dinitro-6-chloroaniline",
    "duplicated_cas_no": "",
    "SMILES": "N(=O)(=O)C1=CC(N(=O)=O)=CC(Cl)=C1N",
    "meta_data": {
        "InChI": "InChI=1S/C6H4ClN3O4/c7-4-1-3(9(11)12)2-5(6(4)8)10(13)14/h1-2H,8H2",
        "InChIKey": null,
        "Canonical SMILES": "O=N(=O)C1=CC(Cl)=C(N)C(=C1)N(=O)=O",
        "Molecular Formula": "C<sub>6</sub>H<sub>4</sub>ClN<sub>3</sub>O<sub>4</sub>",
        "Molecular Mass": "217.57",
        "Melting Point": "157 °C"
    }
}