{
    "cas_no": "34981-25-4",
    "key_name": "Kuraridin",
    "cn_name": null,
    "alternate_name": "2-Propen-1-one, 1-[2,4-dihydroxy-6-methoxy-3-[(2<em>R</em>)-5-methyl-2-(1-methylethenyl)-4-hexen-1-yl]phenyl]-3-(2,4-dihydroxyphenyl)-, (2<em>E</em>)-;2-Propen-1-one, 1-[2,4-dihydroxy-6-methoxy-3-[5-methyl-2-(1-methylethenyl)-4-hexenyl]phenyl]-3-(2,4-dihydroxyphenyl)-, (<em>E</em>)-(+)-;2-Propen-1-one, 1-[2,4-dihydroxy-6-methoxy-3-[(2<em>R</em>)-5-methyl-2-(1-methylethenyl)-4-hexenyl]phenyl]-3-(2,4-dihydroxyphenyl)-, (2<em>E</em>)-;(2<em>E</em>)-1-[2,4-Dihydroxy-6-methoxy-3-[(2<em>R</em>)-5-methyl-2-(1-methylethenyl)-4-hexen-1-yl]phenyl]-3-(2,4-dihydroxyphenyl)-2-propen-1-one;Kuraridin;2,2′,4,4′-Tetrahydroxy-6′-methoxy-3′-(5-methyl-2-isopropenylhex-4-enyl)chalcone;Kuraridine",
    "duplicated_cas_no": "36676-45-6",
    "SMILES": "C(/C=C/C1=C(O)C=C(O)C=C1)(=O)C2=C(OC)C=C(O)C(C[C@@H](CC=C(C)C)C(C)=C)=C2O",
    "meta_data": {
        "InChI": "InChI=1S/C26H30O6/c1-15(2)6-7-18(16(3)4)12-20-23(30)14-24(32-5)25(26(20)31)21(28)11-9-17-8-10-19(27)13-22(17)29/h6,8-11,13-14,18,27,29-31H,3,7,12H2,1-2,4-5H3/b11-9+/t18-/m1/s1",
        "InChIKey": null,
        "Canonical SMILES": "O=C(C=CC1=CC=C(O)C=C1O)C2=C(O)C(=C(O)C=C2OC)CC(C(=C)C)CC=C(C)C",
        "Molecular Formula": "C<sub>26</sub>H<sub>30</sub>O<sub>6</sub>",
        "Molecular Mass": "438.51",
        "Melting Point": "114-116 °C"
    }
}