{
    "cas_no": "33719-74-3",
    "key_name": "1,3-Dichloro-5-methoxybenzene",
    "cn_name": "3,5-二氯苯甲醚;",
    "alternate_name": "Benzene, 1,3-dichloro-5-methoxy-;Anisole, 3,5-dichloro-;1,3-Dichloro-5-methoxybenzene;3,5-Dichloroanisole",
    "duplicated_cas_no": "721942-51-4",
    "SMILES": "O(C)C1=CC(Cl)=CC(Cl)=C1",
    "meta_data": {
        "InChI": "InChI=1S/C7H6Cl2O/c1-10-7-3-5(8)2-6(9)4-7/h2-4H,1H3",
        "InChIKey": null,
        "Canonical SMILES": "ClC=1C=C(Cl)C=C(OC)C1",
        "Molecular Formula": "C<sub>7</sub>H<sub>6</sub>Cl<sub>2</sub>O",
        "Molecular Mass": "177.03",
        "Melting Point": "40-42 °C",
        "Density": "1.46 g/cm³"
    }
}