{
    "cas_no": "814-94-8",
    "key_name": "Stannous oxalate",
    "cn_name": "草酸亚锡;",
    "alternate_name": "Ethanedioic acid, tin(2+) salt (1:1);Oxalic acid, tin(2+) salt (1:1);Tin oxalate (SnC<sub>2</sub>O<sub>4</sub>);Stannous oxalate;Tin(II) oxalate;Tin(2+) oxalate;Fascat 2001;SV CAT-100;TIB KAT 160",
    "duplicated_cas_no": "1801857-79-3;2568167-13-3",
    "SMILES": "C(C(O)=O)(O)=O.[Sn]",
    "meta_data": {
        "InChI": "InChI=1S/C2H2O4.Sn/c3-1(4)2(5)6;/h(H,3,4)(H,5,6);",
        "InChIKey": null,
        "Canonical SMILES": "[Sn].O=C(O)C(=O)O",
        "Molecular Formula": "C<sub>2</sub>H<sub>2</sub>O<sub>4</sub>.Sn",
        "Molecular Mass": "",
        "Melting Point": "280 °C (decomp)",
        "Density": "3.560 g/cm³"
    }
}