{
    "cas_no": "122-37-2",
    "key_name": "4-Hydroxydiphenylamine",
    "cn_name": "对羟基二苯胺;",
    "alternate_name": "Phenol, 4-(phenylamino)-;Phenol, <em>p</em>-anilino-;4-(Phenylamino)phenol;<em>p</em>-Hydroxydiphenylamine;<em>N</em>-Phenyl-<em>p</em>-aminophenol;<em>p</em>-(Phenylamino)phenol;<em>p</em>-Anilinophenol;<em>p</em>-Oxydiphenylamine;4-Hydroxydiphenylamine;VTI 1;4-Anilinophenol;<em>N</em>-(4-Hydroxyphenyl)aniline;VTI 1 (phenol);<em>p</em>-Hydroxyldiphenylamine;NSC 1543",
    "duplicated_cas_no": "2388535-72-4",
    "SMILES": "N(C1=CC=C(O)C=C1)C2=CC=CC=C2",
    "meta_data": {
        "InChI": "InChI=1S/C12H11NO/c14-12-8-6-11(7-9-12)13-10-4-2-1-3-5-10/h1-9,13-14H",
        "InChIKey": null,
        "Canonical SMILES": "OC1=CC=C(C=C1)NC=2C=CC=CC2",
        "Molecular Formula": "C<sub>12</sub>H<sub>11</sub>NO",
        "Molecular Mass": "185.22",
        "Boiling Point": "330 °C",
        "Melting Point": "73 °C"
    }
}