{
    "cas_no": "113028-17-4",
    "key_name": "Ethyl 6-fluoro-1-methyl-4-oxo-7-(1-piperazinyl)-1<em>H</em>,4<em>H</em>-[1,3]thiazeto[3,2-<em>a</em>]quinoline-3-carboxylate",
    "cn_name": "6-氟-7-哌嗪-1-甲基-4-氧代-[1,3]硫氮杂环[3,2-a]喹啉-3-羧酸乙酯;",
    "alternate_name": "1<em>H</em>,4<em>H</em>-[1,3]Thiazeto[3,2-<em>a</em>]quinoline-3-carboxylic acid, 6-fluoro-1-methyl-4-oxo-7-(1-piperazinyl)-, ethyl ester;Ethyl 6-fluoro-1-methyl-4-oxo-7-(1-piperazinyl)-1<em>H</em>,4<em>H</em>-[1,3]thiazeto[3,2-<em>a</em>]quinoline-3-carboxylate",
    "duplicated_cas_no": "",
    "SMILES": "CC1N2C=3C(C(=O)C(C(OCC)=O)=C2S1)=CC(F)=C(C3)N4CCNCC4",
    "meta_data": {
        "InChI": "InChI=1S/C18H20FN3O3S/c1-3-25-18(24)15-16(23)11-8-12(19)14(21-6-4-20-5-7-21)9-13(11)22-10(2)26-17(15)22/h8-10,20H,3-7H2,1-2H3",
        "InChIKey": null,
        "Canonical SMILES": "O=C(OCC)C=1C(=O)C2=CC(F)=C(C=C2N3C1SC3C)N4CCNCC4",
        "Molecular Formula": "C<sub>18</sub>H<sub>20</sub>FN<sub>3</sub>O<sub>3</sub>S",
        "Molecular Mass": "377.43",
        "Melting Point": "224 °C"
    }
}