{
    "cas_no": "1614-12-6",
    "key_name": "1-Aminobenzotriazole",
    "cn_name": "1-氨基苯并三唑;1-氨基苯并三氮唑;",
    "alternate_name": "1<em>H</em>-Benzotriazol-1-amine;1<em>H</em>-Benzotriazole, 1-amino-;1-Aminobenzotriazole;1-Benzotriazolylamine;NSC 114498;NSC 656987;3-Aminobenzotriazole;1-Amino-1,2,3-benzotriazole;1<em>H</em>-Benzo[<em>d</em>][1,2,3]triazol-1-amine;1<em>H</em>-1,2,3-Benzotriazol-1-amine",
    "duplicated_cas_no": "",
    "SMILES": "NN1C=2C(=CC=CC2)N=N1",
    "meta_data": {
        "InChI": "InChI=1S/C6H6N4/c7-10-6-4-2-1-3-5(6)8-9-10/h1-4H,7H2",
        "InChIKey": null,
        "Canonical SMILES": "N1=NN(N)C=2C=CC=CC12",
        "Molecular Formula": "C<sub>6</sub>H<sub>6</sub>N<sub>4</sub>",
        "Molecular Mass": "134.14",
        "Melting Point": "84 °C"
    }
}