{
    "cas_no": "2687-25-4",
    "key_name": "2,3-Diaminotoluene",
    "cn_name": "2,3-二氨基甲苯;",
    "alternate_name": "1,2-Benzenediamine, 3-methyl-;Toluene-2,3-diamine;3-Methyl-1,2-benzenediamine;2,3-Diaminotoluene;2,3-Tolylenediamine;3-Methyl-<em>o</em>-phenylenediamine;3-Methyl-1,2-phenylenediamine;1,2-Diamino-3-methylbenzene;2,3-Toluylenediamine;1-Methyl-2,3-phenylenediamine;2-Amino-3-methylaniline;3-Methyl-1,2-diaminobenzene;2-Methyl-1,6-benzenediamine",
    "duplicated_cas_no": "",
    "SMILES": "NC1=C(C)C=CC=C1N",
    "meta_data": {
        "InChI": "InChI=1S/C7H10N2/c1-5-3-2-4-6(8)7(5)9/h2-4H,8-9H2,1H3",
        "InChIKey": null,
        "Canonical SMILES": "NC1=CC=CC(=C1N)C",
        "Molecular Formula": "C<sub>7</sub>H<sub>10</sub>N<sub>2</sub>",
        "Molecular Mass": "122.17",
        "Boiling Point": "255 °C",
        "Melting Point": "63-64 °C"
    }
}