{
    "cas_no": "3586-12-7",
    "key_name": "3-Phenoxybenzenamine",
    "cn_name": null,
    "alternate_name": "Benzenamine, 3-phenoxy-;Aniline, <em>m</em>-phenoxy-;3-Phenoxybenzenamine;3-Phenoxyaniline;<em>m</em>-Aminophenyl phenyl ether;3-Aminodiphenyl ether;<em>m</em>-Phenoxyaniline;NSC 57083;(3-Phenoxyphenyl)amine;3-(Phenyloxy)aniline",
    "duplicated_cas_no": "",
    "SMILES": "O(C1=CC(N)=CC=C1)C2=CC=CC=C2",
    "meta_data": {
        "InChI": "InChI=1S/C12H11NO/c13-10-5-4-8-12(9-10)14-11-6-2-1-3-7-11/h1-9H,13H2",
        "InChIKey": null,
        "Canonical SMILES": "O(C=1C=CC=CC1)C2=CC=CC(N)=C2",
        "Molecular Formula": "C<sub>12</sub>H<sub>11</sub>NO",
        "Molecular Mass": "185.22",
        "Boiling Point": "315 °C",
        "Melting Point": "37 °C"
    }
}