{
    "cas_no": "4816-80-2",
    "key_name": "<em>N</em>-[(4-Methylphenyl)sulfonyl]-<span class=\"text-smallcaps\">L</span>-glutamic acid",
    "cn_name": "N-(4-甲基苯磺酰基)-L-谷氨酸;2-(对甲基苯磺酰氨基)戊二酸;",
    "alternate_name": "<span class=\"text-smallcaps\">L</span>-Glutamic acid, <em>N</em>-[(4-methylphenyl)sulfonyl]-;Glutamic acid, <em>N</em>-(<em>p</em>-tolylsulfonyl)-, <span class=\"text-smallcaps\">L</span>-;Glutamic acid, <em>N</em>-(<em>p</em>-tolylsulfonyl)-;<em>N</em>-[(4-Methylphenyl)sulfonyl]-<span class=\"text-smallcaps\">L</span>-glutamic acid;<em>p</em>-Toluenesulfonyl-<span class=\"text-smallcaps\">L</span>-glutamic acid;<em>N</em>-Tosyl-<span class=\"text-smallcaps\">L</span>-glutamic acid;Tosylglutamic acid;(+)-<em>p</em>-Toluenesulfonylglutamic acid;<em>N</em>-<em>p</em>-Tolylsulfonyl-<span class=\"text-smallcaps\">L</span>-glutamic acid;NSC 109186;(+)-<em>N</em>-Tosyl-<span class=\"text-smallcaps\">L</span>-glutamic acid;(<em>S</em>)-2-[[[4-Methylphenyl)sulfonyl]amino]pentanedioic acid;(2S)-2-(4-Methylbenzenesulfonamido)pentanedioic acid",
    "duplicated_cas_no": "",
    "SMILES": "S(N[C@@H](CCC(O)=O)C(O)=O)(=O)(=O)C1=CC=C(C)C=C1",
    "meta_data": {
        "InChI": "InChI=1S/C12H15NO6S/c1-8-2-4-9(5-3-8)20(18,19)13-10(12(16)17)6-7-11(14)15/h2-5,10,13H,6-7H2,1H3,(H,14,15)(H,16,17)/t10-/m0/s1",
        "InChIKey": null,
        "Canonical SMILES": "O=C(O)CCC(NS(=O)(=O)C1=CC=C(C=C1)C)C(=O)O",
        "Molecular Formula": "C<sub>12</sub>H<sub>15</sub>NO<sub>6</sub>S",
        "Molecular Mass": "301.32",
        "Melting Point": "131 °C"
    }
}