{
    "cas_no": "1192-34-3",
    "key_name": "1,3-Dihydro-4-methyl-2<em>H</em>-imidazol-2-one",
    "cn_name": "4-甲基-1,3-二氢咪唑-2-酮;",
    "alternate_name": "2<em>H</em>-Imidazol-2-one, 1,3-dihydro-4-methyl-;4-Imidazolin-2-one, 4-methyl-;1,3-Dihydro-4-methyl-2<em>H</em>-imidazol-2-one;4-Methyl-4-imidazolin-2-one;4-Methyl-2-(1<em>H</em>)imidazolone;NSC 186756;2-Hydroxy-4-methyl-1<em>H</em>-imidazole",
    "duplicated_cas_no": "",
    "SMILES": "CC=1NC(=O)NC1",
    "meta_data": {
        "InChI": "InChI=1S/C4H6N2O/c1-3-2-5-4(7)6-3/h2H,1H3,(H2,5,6,7)",
        "InChIKey": null,
        "Canonical SMILES": "O=C1NC=C(N1)C",
        "Molecular Formula": "C<sub>4</sub>H<sub>6</sub>N<sub>2</sub>O",
        "Molecular Mass": "98.10",
        "Melting Point": "202.5-204.5 °C"
    }
}