{
    "cas_no": "372-31-6",
    "key_name": "Ethyl 4,4,4-trifluoroacetoacetate",
    "cn_name": "三氟乙酰乙酸乙酯;",
    "alternate_name": "Butanoic acid, 4,4,4-trifluoro-3-oxo-, ethyl ester;Acetoacetic acid, 4,4,4-trifluoro-, ethyl ester;Ethyl 4,4,4-trifluoroacetoacetate;Ethyl (trifluoroacetyl)acetate;Ethyl γ,γ,γ-trifluoroacetoacetate;Ethyl 4,4,4-trifluoro-3-oxobutanoate;Ethyl 4,4,4-trifluoro-3-oxobutyrate;Ethyl 3-oxo-4,4,4-trifluorobutanoate;Ethyl trifluoroacetoacetate;Ethyl ω,ω,ω-trifluoroacetoacetate;Ethyl 4,4,4-trifluoroacetylacetonate;1-Ethoxy-4,4,4-trifluorobutane-1,3-dione;4,4,4-Trifluoro-3-oxobutanoic acid ethyl ester;4,4,4-Trifluoroacetoacetic acid ethyl ester;NSC 42739;NSC 49750;4,4,4-Trifluoro-3-oxo-butyric acid ethyl ester;Ethyl-4,4,4-trifloro-3-oxo-butanoate",
    "duplicated_cas_no": "",
    "SMILES": "C(C(C(F)(F)F)=O)C(OCC)=O",
    "meta_data": {
        "InChI": "InChI=1S/C6H7F3O3/c1-2-12-5(11)3-4(10)6(7,8)9/h2-3H2,1H3",
        "InChIKey": null,
        "Canonical SMILES": "O=C(OCC)CC(=O)C(F)(F)F",
        "Molecular Formula": "C<sub>6</sub>H<sub>7</sub>F<sub>3</sub>O<sub>3</sub>",
        "Molecular Mass": "184.11",
        "Boiling Point": "133 °C"
    }
}