{
    "cas_no": "135-88-6",
    "key_name": "<em>N</em>-Phenyl-2-naphthylamine",
    "cn_name": "N-苯基-2-萘胺;防老剂D;",
    "alternate_name": "2-Naphthalenamine, <em>N</em>-phenyl-;2-Naphthylamine, <em>N</em>-phenyl-;<em>N</em>-Phenyl-2-naphthalenamine;Aceto PBN;AgeRite Powder;2-Anilinonaphthalene;<em>N</em>-(2-Naphthyl)aniline;Neosone D;Neozone D;PBNA;2-(Phenylamino)naphthalene;Phenyl-2-naphthylamine;Neozone;Nilox PBNA;Neozon D;2-Naphthylphenylamine;β-Naphthylphenylamine;Stabilizator AR;Nonox D;Phenyl-β-naphthylamine;<em>N</em>-Phenyl-β-naphthylamine;Antioxidant PBN;Antioxidant 116;Vulkanox PBN;Nonox DN;<em>N</em>-Phenyl-2-naphthylamine;<em>N</em>-(2-Naphthyl)-<em>N</em>-phenylamine;Stabilizer AR;Antioxidant D;Nocrac D;Naftam 2;<em>N</em>-β-Naphthyl-<em>N</em>-phenylamine;PNA;AK 1 (stabilizer);AK 1;Noclizer D;<em>N</em>-Phenyl-<em>N</em>-(2-naphthyl)amine;NSC 37151;<em>N</em>-Phenylnaphthalene-2-amine;<em>N</em>-(Naphthalen-2-yl)aniline",
    "duplicated_cas_no": "52907-17-2;84420-28-0",
    "SMILES": "N(C1=CC2=C(C=C1)C=CC=C2)C3=CC=CC=C3",
    "meta_data": {
        "InChI": "InChI=1S/C16H13N/c1-2-8-15(9-3-1)17-16-11-10-13-6-4-5-7-14(13)12-16/h1-12,17H",
        "InChIKey": null,
        "Canonical SMILES": "C=1C=CC(=CC1)NC=2C=CC=3C=CC=CC3C2",
        "Molecular Formula": "C<sub>16</sub>H<sub>13</sub>N",
        "Molecular Mass": "219.28",
        "Boiling Point": "395.5 °C",
        "Melting Point": "108 °C",
        "Density": "1.24 g/cm³"
    }
}