{
    "cas_no": "1277-47-0",
    "key_name": "Vanadocene",
    "cn_name": null,
    "alternate_name": "Vanadocene;Vanadium, di-π-cyclopentadienyl-;Vanadium, dicyclopentadienyl-;Di-π-Cyclopentadienylvanadium;Dicyclopentadienylvanadium;Vanadium, bis(η<sup>5</sup>-2,4-cyclopentadien-1-yl)-;Bis(cyclopentadienyl)vanadium;Bis(π-cyclopentadienyl)vanadium;Bis(cyclopentadiene)vanadium;Bis(η<sup>5</sup>-cyclopentadienyl)vanadium",
    "duplicated_cas_no": "",
    "SMILES": "[V+2]12345678([CH]=9[CH]1=[CH]2[CH-]3[CH]49)[CH-]%10[CH]5=[CH]6[CH]7=[CH]8%10",
    "meta_data": {
        "InChI": "InChI=1S/2C5H5.V/c2*1-2-4-5-3-1;/h2*1-5H;/q2*-1;+2",
        "InChIKey": null,
        "Canonical SMILES": "[CH]=12[CH]3=[CH]4[CH-]5[CH]1[V+2]23678945[CH]=%10[CH]9=[CH]8[CH-]7[CH]%106",
        "Molecular Formula": "C<sub>10</sub>H<sub>10</sub>V",
        "Molecular Mass": "",
        "Melting Point": "166 °C"
    }
}