{
    "cas_no": "54-96-6",
    "key_name": "3,4-Diaminopyridine",
    "cn_name": "3,4-二氨基吡啶;",
    "alternate_name": "3,4-Pyridinediamine;Pyridine, 3,4-diamino-;3,4-Diaminopyridine;4,5-Diaminopyridine;NSC 521760;Amifampridine;Pyridine-4,5-diamine;DAP;3,4-DAP;Ruzurgi",
    "duplicated_cas_no": "",
    "SMILES": "NC=1C(N)=CN=CC1",
    "meta_data": {
        "InChI": "InChI=1S/C5H7N3/c6-4-1-2-8-3-5(4)7/h1-3H,7H2,(H2,6,8)",
        "InChIKey": null,
        "Canonical SMILES": "N=1C=CC(N)=C(N)C1",
        "Molecular Formula": "C<sub>5</sub>H<sub>7</sub>N<sub>3</sub>",
        "Molecular Mass": "109.13",
        "Melting Point": "220 °C"
    }
}