{
    "cas_no": "54231-35-5",
    "key_name": "3-Fluoro-2-nitropyridine",
    "cn_name": "3-氟-2-硝基吡啶;",
    "alternate_name": "Pyridine, 3-fluoro-2-nitro-;3-Fluoro-2-nitropyridine;2-Nitro-3-fluoropyridine",
    "duplicated_cas_no": "",
    "SMILES": "N(=O)(=O)C1=C(F)C=CC=N1",
    "meta_data": {
        "InChI": "InChI=1S/C5H3FN2O2/c6-4-2-1-3-7-5(4)8(9)10/h1-3H",
        "InChIKey": null,
        "Canonical SMILES": "O=N(=O)C1=NC=CC=C1F",
        "Molecular Formula": "C<sub>5</sub>H<sub>3</sub>FN<sub>2</sub>O<sub>2</sub>",
        "Molecular Mass": "142.09",
        "Melting Point": "35 °C"
    }
}