{
    "cas_no": "148-24-3",
    "key_name": "8-Hydroxyquinoline",
    "cn_name": "8-羟基喹啉;8-氢氧化喹啉;喔星;8-羟基氮萘;喹啉醇;",
    "alternate_name": "8-Quinolinol;8-OQ;8-Hydroxyquinoline;Oxin;Oxine;Oxychinolin;8-Oxyquinoline;Tumex;8-Quinol;Oxyquinoline;Phenopyridine;Quinophenol;8-Hydroxychinolin;1-Azanaphthalene-8-ol;Fennosan H 30;Albisal;Oxoquinoline;NSC 2039;NSC 285166;NSC 402623;NSC 48037;NSC 54230;NSC 615011;NSC 82404;NSC 82405;NSC 82409;NSC 82410;NSC 82412;AQ<sup>+</sup>",
    "duplicated_cas_no": "123574-67-4;24804-14-6",
    "SMILES": "OC=1C2=C(C=CC1)C=CC=N2",
    "meta_data": {
        "InChI": "InChI=1S/C9H7NO/c11-8-5-1-3-7-4-2-6-10-9(7)8/h1-6,11H",
        "InChIKey": null,
        "Canonical SMILES": "OC=1C=CC=C2C=CC=NC12",
        "Molecular Formula": "C<sub>9</sub>H<sub>7</sub>NO",
        "Molecular Mass": "145.16",
        "Boiling Point": "~267 °C (approx)",
        "Melting Point": "73-75 °C",
        "Density": "1.034 g/cm³ @ Temp: 20 °C"
    }
}