{
    "cas_no": "529-21-5",
    "key_name": "3-Ethyl-4-methylpyridine",
    "cn_name": "3-乙基-4-甲基吡啶;4-甲基-3-乙基吡啶;Β-可力丁;",
    "alternate_name": "Pyridine, 3-ethyl-4-methyl-;4-Picoline, 3-ethyl-;3-Ethyl-4-methylpyridine;β-Collidine;β-Ethyl-γ-methylpyridine;3-Ethyl-γ-picoline;3-Ethyl-4-picoline;4-Methyl-3-ethylpyridine;NSC 62016",
    "duplicated_cas_no": "",
    "SMILES": "C(C)C=1C(C)=CC=NC1",
    "meta_data": {
        "InChI": "InChI=1S/C8H11N/c1-3-8-6-9-5-4-7(8)2/h4-6H,3H2,1-2H3",
        "InChIKey": null,
        "Canonical SMILES": "N=1C=CC(=C(C1)CC)C",
        "Molecular Formula": "C<sub>8</sub>H<sub>11</sub>N",
        "Molecular Mass": "121.18",
        "Boiling Point": "198 °C",
        "Density": "0.9458 g/cm³ @ Temp: 20 °C"
    }
}