{
    "cas_no": "112-25-4",
    "key_name": "Glycol monohexyl ether",
    "cn_name": null,
    "alternate_name": "Ethanol, 2-(hexyloxy)-;2-(Hexyloxy)ethanol;Ethylene glycol <em>n</em>-hexyl ether;Ethylene glycol monohexyl ether;Glycol monohexyl ether;<em>n</em>-Hexyl Cellosolve;Hexyl cellosolve;3-Oxa-1-nonanol;Ethylene glycol mono-<em>n</em>-hexyl ether;Ethylene glycol hexyl ether;Hexyl glycol;2-(Hexyloxy)ethan-1-ol",
    "duplicated_cas_no": "",
    "SMILES": "C(COCCO)CCCC",
    "meta_data": {
        "InChI": "InChI=1S/C8H18O2/c1-2-3-4-5-7-10-8-6-9/h9H,2-8H2,1H3",
        "InChIKey": null,
        "Canonical SMILES": "OCCOCCCCCC",
        "Molecular Formula": "C<sub>8</sub>H<sub>18</sub>O<sub>2</sub>",
        "Molecular Mass": "146.23",
        "Boiling Point": "208 °C @ Press: 760 Torr",
        "Melting Point": "-45.1 °C",
        "Density": "0.8894 g/cm³ @ Temp: 20 °C"
    }
}