{
    "cas_no": "618-87-1",
    "key_name": "3,5-Dinitroaniline",
    "cn_name": "3,5-二硝基苯胺;",
    "alternate_name": "Benzenamine, 3,5-dinitro-;Aniline, 3,5-dinitro-;3,5-Dinitrobenzenamine;3,5-Dinitroaniline;1-Amino-3,5-dinitrobenzene;Dinitroaniline;NSC 284;(3,5-Dinitrophenyl)amine",
    "duplicated_cas_no": "",
    "SMILES": "N(=O)(=O)C1=CC(N(=O)=O)=CC(N)=C1",
    "meta_data": {
        "InChI": "InChI=1S/C6H5N3O4/c7-4-1-5(8(10)11)3-6(2-4)9(12)13/h1-3H,7H2",
        "InChIKey": null,
        "Canonical SMILES": "O=N(=O)C1=CC(N)=CC(=C1)N(=O)=O",
        "Molecular Formula": "C<sub>6</sub>H<sub>5</sub>N<sub>3</sub>O<sub>4</sub>",
        "Molecular Mass": "183.12",
        "Melting Point": "163 °C"
    }
}