{
    "cas_no": "22996-21-0",
    "key_name": "4-Methoxy-2-nitrobenzaldehyde",
    "cn_name": "2-硝基-4-甲氧基苯甲醛;",
    "alternate_name": "Benzaldehyde, 4-methoxy-2-nitro-;<em>p</em>-Anisaldehyde, 2-nitro-;4-Methoxy-2-nitrobenzaldehyde;2-Nitro-4-methoxybenzaldehyde;NSC 617208",
    "duplicated_cas_no": "",
    "SMILES": "N(=O)(=O)C1=C(C=O)C=CC(OC)=C1",
    "meta_data": {
        "InChI": "InChI=1S/C8H7NO4/c1-13-7-3-2-6(5-10)8(4-7)9(11)12/h2-5H,1H3",
        "InChIKey": null,
        "Canonical SMILES": "O=CC1=CC=C(OC)C=C1N(=O)=O",
        "Molecular Formula": "C<sub>8</sub>H<sub>7</sub>NO<sub>4</sub>",
        "Molecular Mass": "181.15",
        "Melting Point": "95.5-96 °C"
    }
}