{
    "cas_no": "34580-14-8",
    "key_name": "Ketotifen fumarate",
    "cn_name": "富马酸酮替芬;4,9-二氢-4-(1-甲基-4-亚哌啶基)-10H-苯并[4,5]环庚[1,2-b]噻吩-10-酮富马酸盐;",
    "alternate_name": "10<em>H</em>-Benzo[4,5]cyclohepta[1,2-<em>b</em>]thiophen-10-one, 4,9-dihydro-4-(1-methyl-4-piperidinylidene)-, (2<em>E</em>)-2-butenedioate (1:1);10<em>H</em>-Benzo[4,5]cyclohepta[1,2-<em>b</em>]thiophen-10-one, 4,9-dihydro-4-(1-methyl-4-piperidinylidene)-, (<em>E</em>)-2-butenedioate (1:1);Ketotifen fumarate;Zaditen;Ketotifen hydrogen fumarate;Zaditor;Totifen;HC 20511;Allerkif;Zasten;HC 20511 fumarate;Alaway",
    "duplicated_cas_no": "126939-14-8",
    "SMILES": "O=C1C2=C(C(C=3C(C1)=CC=CC3)=C4CCN(C)CC4)C=CS2.C(=C/C(O)=O)\\C(O)=O",
    "meta_data": {
        "InChI": "InChI=1S/C19H19NOS.C4H4O4/c1-20-9-6-13(7-10-20)18-15-5-3-2-4-14(15)12-17(21)19-16(18)8-11-22-19;5-3(6)1-2-4(7)8/h2-5,8,11H,6-7,9-10,12H2,1H3;1-2H,(H,5,6)(H,7,8)/b;2-1+",
        "InChIKey": null,
        "Canonical SMILES": "O=C(O)C=CC(=O)O.O=C1C=2SC=CC2C(C=3C=CC=CC3C1)=C4CCN(C)CC4",
        "Molecular Formula": "C<sub>19</sub>H<sub>19</sub>NOS.C<sub>4</sub>H<sub>4</sub>O<sub>4</sub>",
        "Molecular Mass": "",
        "Melting Point": "192 °C (decomp)"
    }
}