{
    "cas_no": "1121-03-5",
    "key_name": "2,4-Butanesultone",
    "cn_name": "2,4-丁磺内酯;2,4-丁烷磺内酯;4-羟基-2-丁烷磺酸gamma-内酯;",
    "alternate_name": "1,2-Oxathiolane, 3-methyl-, 2,2-dioxide;2-Butanesulfonic acid, 4-hydroxy-, γ-sultone;2,4-Butanesultone;3-Methyloxathiolane 2,2-dioxide;3-Methyl-1,2λ6-oxathiolane-2,2-dione",
    "duplicated_cas_no": "",
    "SMILES": "O=S1(=O)C(C)CCO1",
    "meta_data": {
        "InChI": "InChI=1S/C4H8O3S/c1-4-2-3-7-8(4,5)6/h4H,2-3H2,1H3",
        "InChIKey": null,
        "Canonical SMILES": "O=S1(=O)OCCC1C",
        "Molecular Formula": "C<sub>4</sub>H<sub>8</sub>O<sub>3</sub>S",
        "Molecular Mass": "136.17",
        "Boiling Point": "150 °C @ Press: 15 Torr",
        "Melting Point": "-14 °C",
        "Density": "1.31 g/cm³ @ Temp: 18 °C"
    }
}