{
    "cas_no": "1190-32-5",
    "key_name": "<em>N</em>-(2-Chloroacetyl)alanine",
    "cn_name": "氯乙酰基-DL-丙氨酸;",
    "alternate_name": "Alanine, <em>N</em>-(2-chloroacetyl)-;Alanine, <em>N</em>-(chloroacetyl)-, <span class=\"text-smallcaps\">DL</span>-;Alanine, <em>N</em>-(chloroacetyl)-;<em>N</em>-(2-Chloroacetyl)alanine;<em>N</em>-Chloroacetyl-<span class=\"text-smallcaps\">DL</span>-alanine;2-(2-Chloroacetamido)propanoic acid;2-[(2-Chloroacetyl)amino]propanoic acid",
    "duplicated_cas_no": "",
    "SMILES": "N(C(C(O)=O)C)C(CCl)=O",
    "meta_data": {
        "InChI": "InChI=1S/C5H8ClNO3/c1-3(5(9)10)7-4(8)2-6/h3H,2H2,1H3,(H,7,8)(H,9,10)",
        "InChIKey": null,
        "Canonical SMILES": "O=C(O)C(NC(=O)CCl)C",
        "Molecular Formula": "C<sub>5</sub>H<sub>8</sub>ClNO<sub>3</sub>",
        "Molecular Mass": "165.57",
        "Melting Point": "126-127 °C"
    }
}