{
    "cas_no": "622-58-2",
    "key_name": "4-Methylphenyl isocyanate",
    "cn_name": "对甲苯异氰酸酯;异氰酸对甲苯酯;",
    "alternate_name": "Benzene, 1-isocyanato-4-methyl-;Isocyanic acid, <em>p</em>-tolyl ester;1-Isocyanato-4-methylbenzene;<em>p</em>-Tolyl isocyanate;<em>p</em>-Methylphenyl isocyanate;4-Methylphenyl isocyanate;4-Tolyl isocyanate;4-Isocyanatotoluene;<em>p</em>-Isocyanatotoluene",
    "duplicated_cas_no": "863480-54-0",
    "SMILES": "N(=C=O)C1=CC=C(C)C=C1",
    "meta_data": {
        "InChI": "InChI=1S/C8H7NO/c1-7-2-4-8(5-3-7)9-6-10/h2-5H,1H3",
        "InChIKey": null,
        "Canonical SMILES": "O=C=NC1=CC=C(C=C1)C",
        "Molecular Formula": "C<sub>8</sub>H<sub>7</sub>NO",
        "Molecular Mass": "133.15",
        "Boiling Point": "71-72 °C @ Press: 13 Torr",
        "Melting Point": "155-156 °C"
    }
}