{
    "cas_no": "25109-28-8",
    "key_name": "1-Bromo-4-cyclohexylbenzene",
    "cn_name": "1-溴-4-环己基苯;",
    "alternate_name": "Benzene, 1-bromo-4-cyclohexyl-;Cyclohexane, (<em>p</em>-bromophenyl)-;1-Bromo-4-cyclohexylbenzene;4-Cyclohexylbromobenzene;4-Bromocyclohexylbenzene;<em>p</em>-Bromocyclohexylbenzene;NSC 67355;(4-Bromophenyl)cyclohexane",
    "duplicated_cas_no": "",
    "SMILES": "BrC1=CC=C(C=C1)C2CCCCC2",
    "meta_data": {
        "InChI": "InChI=1S/C12H15Br/c13-12-8-6-11(7-9-12)10-4-2-1-3-5-10/h6-10H,1-5H2",
        "InChIKey": null,
        "Canonical SMILES": "BrC1=CC=C(C=C1)C2CCCCC2",
        "Molecular Formula": "C<sub>12</sub>H<sub>15</sub>Br",
        "Molecular Mass": "239.15",
        "Boiling Point": "153-155 °C @ Press: 9 Torr",
        "Density": "1.288 g/cm³ @ Temp: 18 °C"
    }
}