{
    "cas_no": "23210-58-4",
    "key_name": "Ifenprodil tartrate",
    "cn_name": "酒石酸艾芬地尔;",
    "alternate_name": "1-Piperidineethanol, α-(4-hydroxyphenyl)-β-methyl-4-(phenylmethyl)-, (2<em>R</em>,3<em>R</em>)-2,3-dihydroxybutanedioate (2:1);1-Piperidineethanol, 4-benzyl-α-(<em>p</em>-hydroxyphenyl)-β-methyl-, tartrate (salt);1-Piperidineethanol, α-(4-hydroxyphenyl)-β-methyl-4-(phenylmethyl)-, [<em>R</em>-(<em>R</em>*,<em>R</em>*)]-2,3-dihydroxybutanedioate (2:1) (salt);1-Piperidineethanol, α-(4-hydroxyphenyl)-β-methyl-4-(phenylmethyl)-, (2<em>R</em>,3<em>R</em>)-2,3-dihydroxybutanedioate (2:1) (salt);Ifenprodil tartrate;Ifenprodil <span class=\"text-smallcaps\">L</span>-(+)-tartrate",
    "duplicated_cas_no": "66157-43-5;88020-88-6",
    "SMILES": "C(C1CCN(C(C(O)C2=CC=C(O)C=C2)C)CC1)C3=CC=CC=C3.[C@@H]([C@H](C(O)=O)O)(C(O)=O)O",
    "meta_data": {
        "InChI": "InChI=1S/C21H27NO2.C4H6O6/c1-16(21(24)19-7-9-20(23)10-8-19)22-13-11-18(12-14-22)15-17-5-3-2-4-6-17;5-1(3(7)8)2(6)4(9)10/h2-10,16,18,21,23-24H,11-15H2,1H3;1-2,5-6H,(H,7,8)(H,9,10)/t;1-,2-/m.1/s1",
        "InChIKey": null,
        "Canonical SMILES": "O=C(O)C(O)C(O)C(=O)O.OC1=CC=C(C=C1)C(O)C(N2CCC(CC=3C=CC=CC3)CC2)C",
        "Molecular Formula": "C<sub>21</sub>H<sub>27</sub>NO<sub>2</sub>.<sup>1</sup>/<sub>2</sub>C<sub>4</sub>H<sub>6</sub>O<sub>6</sub>",
        "Molecular Mass": "",
        "Melting Point": "178-180 °C"
    }
}