{
    "cas_no": "326-56-7",
    "key_name": "Methyl piperonylate",
    "cn_name": null,
    "alternate_name": "1,3-Benzodioxole-5-carboxylic acid, methyl ester;Piperonylic acid, methyl ester;Methyl piperonylate;Methyl 3,4-methylenedioxybenzoate;NSC 21790;Methyl 1,3-benzodioxole-5-carboxylate;Methyl benzo[<em>d</em>]dioxole-5-carboxylate;Methyl benzo[<em>d</em>][1,3]dioxole-5-carboxylate",
    "duplicated_cas_no": "",
    "SMILES": "C(OC)(=O)C=1C=C2C(=CC1)OCO2",
    "meta_data": {
        "InChI": "InChI=1S/C9H8O4/c1-11-9(10)6-2-3-7-8(4-6)13-5-12-7/h2-4H,5H2,1H3",
        "InChIKey": null,
        "Canonical SMILES": "O=C(OC)C1=CC=C2OCOC2=C1",
        "Molecular Formula": "C<sub>9</sub>H<sub>8</sub>O<sub>4</sub>",
        "Molecular Mass": "180.16",
        "Boiling Point": "146 °C @ Press: 11 Torr",
        "Melting Point": "53 °C"
    }
}