{
    "cas_no": "5445-26-1",
    "key_name": "Benzeneacetic acid, 4-nitro-, ethyl ester",
    "cn_name": "4-硝基苯乙酸乙酯;对硝基苯乙酸乙酯;",
    "alternate_name": "Benzeneacetic acid, 4-nitro-, ethyl ester;Acetic acid, (<em>p</em>-nitrophenyl)-, ethyl ester;Ethyl <em>p</em>-nitrophenylacetate;Ethyl 4-nitrobenzeneacetate;Ethyl (4-nitrophenyl)acetate;4-Nitrobenzeneacetic acid ethyl ester;(4-Nitrophenyl)acetic acid ethyl ester;NSC 21986;Ethyl 2-(4-nitrophenyl)acetate",
    "duplicated_cas_no": "",
    "SMILES": "C(C(OCC)=O)C1=CC=C(N(=O)=O)C=C1",
    "meta_data": {
        "InChI": "InChI=1S/C10H11NO4/c1-2-15-10(12)7-8-3-5-9(6-4-8)11(13)14/h3-6H,2,7H2,1H3",
        "InChIKey": null,
        "Canonical SMILES": "O=C(OCC)CC1=CC=C(C=C1)N(=O)=O",
        "Molecular Formula": "C<sub>10</sub>H<sub>11</sub>NO<sub>4</sub>",
        "Molecular Mass": "209.20",
        "Boiling Point": "125-150 °C @ Press: 0.1 Torr",
        "Melting Point": "69 °C"
    }
}