{
    "cas_no": "2309-49-1",
    "key_name": "Theacrine",
    "cn_name": null,
    "alternate_name": "1<em>H</em>-Purine-2,6,8(3<em>H</em>)-trione, 7,9-dihydro-1,3,7,9-tetramethyl-;Uric acid, 1,3,7,9-tetramethyl-;7,9-Dihydro-1,3,7,9-tetramethyl-1<em>H</em>-purine-2,6,8(3<em>H</em>)-trione;Tetramethyluric acid;Temorine;Ba 2750;1,3,7,9-Tetramethyluric acid;Temurin;Theacrine;NSC 8809;TeaCrine;1,3,7,9-Tetramethylpurine-2,6,8-trione",
    "duplicated_cas_no": "",
    "SMILES": "CN1C2=C(N(C)C1=O)N(C)C(=O)N(C)C2=O",
    "meta_data": {
        "InChI": "InChI=1S/C9H12N4O3/c1-10-5-6(11(2)8(10)15)12(3)9(16)13(4)7(5)14/h1-4H3",
        "InChIKey": null,
        "Canonical SMILES": "O=C1C2=C(N(C(=O)N1C)C)N(C(=O)N2C)C",
        "Molecular Formula": "C<sub>9</sub>H<sub>12</sub>N<sub>4</sub>O<sub>3</sub>",
        "Molecular Mass": "224.22",
        "Melting Point": "226 °C"
    }
}