{
    "cas_no": "138642-97-4",
    "key_name": "6-Chloroimidazo[1,2-<em>a</em>]pyridine-3-carboxylic acid",
    "cn_name": null,
    "alternate_name": "Imidazo[1,2-<em>a</em>]pyridine-3-carboxylic acid, 6-chloro-;6-Chloroimidazo[1,2-<em>a</em>]pyridine-3-carboxylic acid",
    "duplicated_cas_no": "",
    "SMILES": "C(O)(=O)C=1N2C(=NC1)C=CC(Cl)=C2",
    "meta_data": {
        "InChI": "InChI=1S/C8H5ClN2O2/c9-5-1-2-7-10-3-6(8(12)13)11(7)4-5/h1-4H,(H,12,13)",
        "InChIKey": null,
        "Canonical SMILES": "O=C(O)C1=CN=C2C=CC(Cl)=CN21",
        "Molecular Formula": "C<sub>8</sub>H<sub>5</sub>ClN<sub>2</sub>O<sub>2</sub>",
        "Molecular Mass": "196.59",
        "Melting Point": "206 °C"
    }
}