{
    "cas_no": "4271-30-1",
    "key_name": "<em>N</em>-(4-Aminobenzoyl)-<span class=\"text-smallcaps\">L</span>-glutamic acid",
    "cn_name": "N-(4-氨基苯甲酰)-L-谷氨酸;",
    "alternate_name": "<span class=\"text-smallcaps\">L</span>-Glutamic acid, <em>N</em>-(4-aminobenzoyl)-;Glutamic acid, <em>N</em>-(<em>p</em>-aminobenzoyl)-, <span class=\"text-smallcaps\">L</span>-;Glutamic acid, <em>N</em>-(<em>p</em>-aminobenzoyl)-;<em>N</em>-(4-Aminobenzoyl)-<span class=\"text-smallcaps\">L</span>-glutamic acid;<em>N</em>-(<em>p</em>-Aminobenzoyl)-<span class=\"text-smallcaps\">L</span>-glutamic acid;(<em>p</em>-Aminobenzoyl)glutamic acid;(<em>p</em>-Aminobenzoyl)-<span class=\"text-smallcaps\">L</span>-glutamic acid;<em>N</em>-(<em>p</em>-Aminobenzoyl)glutamic acid;<em>N</em>-(<em>p</em>-Aminobenzoyl)-<span class=\"text-smallcaps\">L</span>(+)-glutamic acid;(4-Aminobenzoyl)-<span class=\"text-smallcaps\">L</span>-glutamic acid;NSC 71042;(2S)-2-[(4-Aminobenzoyl)amino]pentanedioic acid;(<em>S</em>)-2-(4-Aminobenzamido)pentanedioicacid;BL436",
    "duplicated_cas_no": "",
    "SMILES": "C(N[C@@H](CCC(O)=O)C(O)=O)(=O)C1=CC=C(N)C=C1",
    "meta_data": {
        "InChI": "InChI=1S/C12H14N2O5/c13-8-3-1-7(2-4-8)11(17)14-9(12(18)19)5-6-10(15)16/h1-4,9H,5-6,13H2,(H,14,17)(H,15,16)(H,18,19)/t9-/m0/s1",
        "InChIKey": null,
        "Canonical SMILES": "O=C(O)CCC(NC(=O)C1=CC=C(N)C=C1)C(=O)O",
        "Molecular Formula": "C<sub>12</sub>H<sub>14</sub>N<sub>2</sub>O<sub>5</sub>",
        "Molecular Mass": "266.25",
        "Melting Point": "173 °C"
    }
}