{
    "cas_no": "65-46-3",
    "key_name": "Cytidine",
    "cn_name": "胞苷;胞甙;胞嘧啶核苷;",
    "alternate_name": "Cytidine;Cytosine, 1-β-<span class=\"text-smallcaps\">D</span>-ribosyl-;Cytosine riboside;1-β-<span class=\"text-smallcaps\">D</span>-Ribofuranosylcytosine;β-<span class=\"text-smallcaps\">D</span>-Ribofuranoside, cytosine-1;1-(β-<span class=\"text-smallcaps\">D</span>-Ribofuranosyl)-2-oxo-4-amino-1,2-dihydro-1,3-diazine;2(1<em>H</em>)-Pyrimidinone, 4-amino-1-β-<span class=\"text-smallcaps\">D</span>-ribofuranosyl-;4-Amino-1-β-<span class=\"text-smallcaps\">D</span>-ribofuranosyl-2(1<em>H</em>)-pyrimidinone;NSC 20258;β-<span class=\"text-smallcaps\">D</span>-Cytidine;1-((2R,3R,4S,5R)-3,4-Dihydroxy-5-(hydroxymethyl)tetrahydrofuran-2-yl)-4-(amino)pyrimidin-2(1<em>H</em>)-one;MeSH ID: D003562",
    "duplicated_cas_no": "4395-95-3;494210-74-1;873077-03-3",
    "SMILES": "O[C@H]1[C@@H](O[C@H](CO)[C@H]1O)N2C(=O)N=C(N)C=C2",
    "meta_data": {
        "InChI": "InChI=1S/C9H13N3O5/c10-5-1-2-12(9(16)11-5)8-7(15)6(14)4(3-13)17-8/h1-2,4,6-8,13-15H,3H2,(H2,10,11,16)/t4-,6-,7-,8-/m1/s1",
        "InChIKey": null,
        "Canonical SMILES": "O=C1N=C(N)C=CN1C2OC(CO)C(O)C2O",
        "Molecular Formula": "C<sub>9</sub>H<sub>13</sub>N<sub>3</sub>O<sub>5</sub>",
        "Molecular Mass": "243.22",
        "Melting Point": "230.5 °C (decomp)"
    }
}