{
    "cas_no": "60-32-2",
    "key_name": "6-Aminohexanoic acid",
    "cn_name": "6-氨基己酸;",
    "alternate_name": "Hexanoic acid, 6-amino-;Caproic acid, ε-amino-;6-Aminohexanoic acid;CY 116;177 J.D.;CL 10304;ACS;Amicar;ε-Aminocaproic acid;ω-Aminocaproic acid;ε-Aminohexanoic acid;Caprocid;EACA;Epsilon S;Hemocaprol;6-Aminocaproic acid;Aminokapron;ε-Leucine;Acepramine;Acepramin;ω-Aminohexanoic acid;Epsilcapramin;Ipsilon;Capramol;EACS;Afibrin;Epsamon;Hepin;ε-Norleucine;Amikar;Caprolisin;Respramin;Caplamin;Hemopar;Epsicapron;Epsikapron;ε-Amino-<em>n</em>-hexanoic acid;6-Amino-<em>n</em>-hexanoic acid;NSC 26154;NSC 212532;NSC 400230;Acikaprin;A 14719;ε-Amino-<em>n</em>-caproic acid;AN 0064-1",
    "duplicated_cas_no": "87867-96-7;93208-38-9;1153953-92-4",
    "SMILES": "C(CC(O)=O)CCCN",
    "meta_data": {
        "InChI": "InChI=1S/C6H13NO2/c7-5-3-1-2-4-6(8)9/h1-5,7H2,(H,8,9)",
        "InChIKey": null,
        "Canonical SMILES": "O=C(O)CCCCCN",
        "Molecular Formula": "C<sub>6</sub>H<sub>13</sub>NO<sub>2</sub>",
        "Molecular Mass": "131.17",
        "Melting Point": "202-203 °C"
    }
}