{
    "cas_no": "124-76-5",
    "key_name": "Isoborneol",
    "cn_name": "异龙脑;DL-异冰片醇;1,7,7-三甲基双环[2.2.1]庚-2-醇;",
    "alternate_name": "Bicyclo[2.2.1]heptan-2-ol, 1,7,7-trimethyl-, (1<em>R</em>,2<em>R</em>,4<em>R</em>)-<em>rel</em>-;Isoborneol;Bicyclo[2.2.1]heptan-2-ol, 1,7,7-trimethyl-, <em>exo</em>-;<em>rel</em>-(1<em>R</em>,2<em>R</em>,4<em>R</em>)-1,7,7-Trimethylbicyclo[2.2.1]heptan-2-ol;Isobornyl alcohol;<em>exo</em>-2-Hydroxy-1,7,7-trimethylnorbornane;2-<em>exo</em>-Bornyl alcohol;(±)-Isoborneol;<em>dl</em>-Isoborneol;<span class=\"text-smallcaps\">DL</span>-Isoborneol;NSC 26350",
    "duplicated_cas_no": "24393-70-2;2966768-92-1",
    "SMILES": "C[C@@]12C(C)(C)[C@@](C[C@H]1O)(CC2)[H]",
    "meta_data": {
        "InChI": "InChI=1/C10H18O/c1-9(2)7-4-5-10(9,3)8(11)6-7/h7-8,11H,4-6H2,1-3H3/t7-,8-,10+/s2",
        "InChIKey": null,
        "Canonical SMILES": "OC1CC2CCC1(C)C2(C)C",
        "Molecular Formula": "C<sub>10</sub>H<sub>18</sub>O",
        "Molecular Mass": "154.25",
        "Boiling Point": "76-77 °C @ Press: 3 Torr",
        "Melting Point": "213 °C",
        "Density": "0.9867 g/cm³ @ Temp: 20 °C"
    }
}