{
    "cas_no": "822-85-5",
    "key_name": "2-Bromocyclohexanone",
    "cn_name": null,
    "alternate_name": "Cyclohexanone, 2-bromo-;Cyclohexanone, 2-bromo-, (±)-;2-Bromocyclohexanone;α-Bromocyclohexanone;2-Bromo-1-cyclohexanone;α-Monobromocyclohexanone;(±)-2-Bromo-1-cyclohexanone",
    "duplicated_cas_no": "74034-83-6",
    "SMILES": "BrC1C(=O)CCCC1",
    "meta_data": {
        "InChI": "InChI=1S/C6H9BrO/c7-5-3-1-2-4-6(5)8/h5H,1-4H2",
        "InChIKey": null,
        "Canonical SMILES": "O=C1CCCCC1Br",
        "Molecular Formula": "C<sub>6</sub>H<sub>9</sub>BrO",
        "Molecular Mass": "177.04",
        "Boiling Point": "89-90 °C @ Press: 14 Torr",
        "Melting Point": "74-75 °C",
        "Density": "1.350 g/cm³ @ Temp: 25 °C"
    }
}