{
    "cas_no": "5931-53-3",
    "key_name": "Diphenyl-<em>o</em>-tolylphosphine",
    "cn_name": "二苯基(o-甲苯基)膦;联苯基(邻-甲苯基)膦;(C6H5)2PC6H4CH3;",
    "alternate_name": "Phosphine, (2-methylphenyl)diphenyl-;Phosphine, diphenyl-<em>o</em>-tolyl-;(2-Methylphenyl)diphenylphosphine;Diphenyl-<em>o</em>-tolylphosphine;(<em>o</em>-Methylphenyl)diphenylphosphine;Diphenyl(2-tolyl)phosphine;<em>o</em>-Tolyldiphenylphosphine;(2-Methylphenyl)-diphenylphosphane",
    "duplicated_cas_no": "",
    "SMILES": "P(C1=C(C)C=CC=C1)(C2=CC=CC=C2)C3=CC=CC=C3",
    "meta_data": {
        "InChI": "InChI=1S/C19H17P/c1-16-10-8-9-15-19(16)20(17-11-4-2-5-12-17)18-13-6-3-7-14-18/h2-15H,1H3",
        "InChIKey": null,
        "Canonical SMILES": "C=1C=CC(=CC1)P(C=2C=CC=CC2)C=3C=CC=CC3C",
        "Molecular Formula": "C<sub>19</sub>H<sub>17</sub>P",
        "Molecular Mass": "276.31",
        "Melting Point": "67-68 °C"
    }
}