{
    "cas_no": "3724-43-4",
    "key_name": "(Chloromethylene)dimethylammonium chloride",
    "cn_name": "(氯亚甲基)二甲基氯化铵;维尔斯梅尔试剂;",
    "alternate_name": "Methanaminium, <em>N</em>-(chloromethylene)-<em>N</em>-methyl-, chloride (1:1);Ammonium, (chloromethylene)dimethyl-, chloride;Methanaminium, <em>N</em>-(chloromethylene)-<em>N</em>-methyl-, chloride;(Chloromethylene)dimethylammonium chloride;Chlorodimethylformiminium chloride;Dimethyl(chloromethylene)ammonium chloride;Dimethylchloroformiminium chloride;Chloro(dimethylamino)methylium chloride;Arnold's reagent;<em>N</em>,<em>N</em>-Dimethylchloroformiminium chloride;Reagents, Arnold's;<em>N</em>-(Chloromethylene)-<em>N</em>-methylmethanaminium chloride",
    "duplicated_cas_no": "1487-66-7;92458-33-8;1512534-40-5",
    "SMILES": "[N+](=CCl)(C)C.[Cl-]",
    "meta_data": {
        "InChI": "InChI=1S/C3H7ClN.ClH/c1-5(2)3-4;/h3H,1-2H3;1H/q+1;/p-1",
        "InChIKey": null,
        "Canonical SMILES": "[Cl-].ClC=[N+](C)C",
        "Molecular Formula": "C<sub>3</sub>H<sub>7</sub>ClN.Cl",
        "Molecular Mass": "",
        "Melting Point": "135.5-138.0 °C"
    }
}