{
    "cas_no": "142874-81-5",
    "key_name": "2,3-Dihydro-2,2,4,6,7-pentamethylbenzofuran",
    "cn_name": "2,2,4,6,7-五甲基苯并呋喃;",
    "alternate_name": "Benzofuran, 2,3-dihydro-2,2,4,6,7-pentamethyl-;2,3-Dihydro-2,2,4,6,7-pentamethylbenzofuran",
    "duplicated_cas_no": "",
    "SMILES": "CC1=C2C(OC(C)(C)C2)=C(C)C(C)=C1",
    "meta_data": {
        "InChI": "InChI=1S/C13H18O/c1-8-6-9(2)11-7-13(4,5)14-12(11)10(8)3/h6H,7H2,1-5H3",
        "InChIKey": null,
        "Canonical SMILES": "O1C=2C(=C(C=C(C2CC1(C)C)C)C)C",
        "Molecular Formula": "C<sub>13</sub>H<sub>18</sub>O",
        "Molecular Mass": "190.28",
        "Melting Point": "44-46 °C"
    }
}