{
    "cas_no": "41059-02-3",
    "key_name": "9-Bromononanoic acid",
    "cn_name": null,
    "alternate_name": "Nonanoic acid, 9-bromo-;9-Bromononanoic acid",
    "duplicated_cas_no": "",
    "SMILES": "C(CCCCCBr)CCC(O)=O",
    "meta_data": {
        "InChI": "InChI=1S/C9H17BrO2/c10-8-6-4-2-1-3-5-7-9(11)12/h1-8H2,(H,11,12)",
        "InChIKey": null,
        "Canonical SMILES": "O=C(O)CCCCCCCCBr",
        "Molecular Formula": "C<sub>9</sub>H<sub>17</sub>BrO<sub>2</sub>",
        "Molecular Mass": "237.13",
        "Boiling Point": "160-161 °C @ Press: 2 Torr",
        "Melting Point": "36-36.5 °C"
    }
}