{
    "cas_no": "28537-70-4",
    "key_name": "1,4-Bis(maleimido)butane",
    "cn_name": null,
    "alternate_name": "1<em>H</em>-Pyrrole-2,5-dione, 1,1′-(1,4-butanediyl)bis-;Maleimide, <em>N</em>,<em>N</em>′-tetramethylenedi-;1,1′-(1,4-Butanediyl)bis[1<em>H</em>-pyrrole-2,5-dione];<em>N</em>,<em>N</em>′-Tetramethylenebis[maleimide];Tetramethylenebismaleimide;Tetramethylenedimaleimide;1,4-Bis(maleimido)butane;<em>N</em>,<em>N</em>′-Tetramethylenedimaleimide;<em>N</em>,<em>N</em>′-1,4-Butylenebismaleimide;NSC 44747;BMB Crosslinker;1,4-Di(maleimido)butane;1,4-Bis(maleimide)butane;1-[4-(2,5-Dioxopyrrol-1-yl)butyl]pyrrole-2,5-dione",
    "duplicated_cas_no": "",
    "SMILES": "C(CCCN1C(=O)C=CC1=O)N2C(=O)C=CC2=O",
    "meta_data": {
        "InChI": "InChI=1S/C12H12N2O4/c15-9-3-4-10(16)13(9)7-1-2-8-14-11(17)5-6-12(14)18/h3-6H,1-2,7-8H2",
        "InChIKey": null,
        "Canonical SMILES": "O=C1C=CC(=O)N1CCCCN2C(=O)C=CC2=O",
        "Molecular Formula": "C<sub>12</sub>H<sub>12</sub>N<sub>2</sub>O<sub>4</sub>",
        "Molecular Mass": "248.23",
        "Melting Point": "206 °C"
    }
}