{
    "cas_no": "830-09-1",
    "key_name": "4-Methoxycinnamic acid",
    "cn_name": "4-甲氧基肉桂酸;对甲氧基肉桂酸;",
    "alternate_name": "2-Propenoic acid, 3-(4-methoxyphenyl)-;Cinnamic acid, <em>p</em>-methoxy-;3-(4-Methoxyphenyl)-2-propenoic acid;<em>p</em>-Methoxycinnamic acid;4-Methoxycinnamic acid;<em>O</em>-Methyl-<em>p</em>-coumaric acid;3-(4-Methoxyphenyl)propenoic acid;3-(4-Methoxyphenyl)acrylic acid;4′-Methoxycinnamic acid;NSC 5303;NSC 623437;Bernel hydro;4-Methyoxycinnamic acid",
    "duplicated_cas_no": "",
    "SMILES": "C(=CC(O)=O)C1=CC=C(OC)C=C1",
    "meta_data": {
        "InChI": "InChI=1S/C10H10O3/c1-13-9-5-2-8(3-6-9)4-7-10(11)12/h2-7H,1H3,(H,11,12)",
        "InChIKey": null,
        "Canonical SMILES": "O=C(O)C=CC1=CC=C(OC)C=C1",
        "Molecular Formula": "C<sub>10</sub>H<sub>10</sub>O<sub>3</sub>",
        "Molecular Mass": "178.18",
        "Melting Point": "170-171 °C"
    }
}