{
    "cas_no": "618-58-6",
    "key_name": "3,5-Dibromobenzoic acid",
    "cn_name": "3,5-二溴苯甲酸;",
    "alternate_name": "Benzoic acid, 3,5-dibromo-;3,5-Dibromobenzoic acid",
    "duplicated_cas_no": "",
    "SMILES": "C(O)(=O)C1=CC(Br)=CC(Br)=C1",
    "meta_data": {
        "InChI": "InChI=1S/C7H4Br2O2/c8-5-1-4(7(10)11)2-6(9)3-5/h1-3H,(H,10,11)",
        "InChIKey": null,
        "Canonical SMILES": "O=C(O)C=1C=C(Br)C=C(Br)C1",
        "Molecular Formula": "C<sub>7</sub>H<sub>4</sub>Br<sub>2</sub>O<sub>2</sub>",
        "Molecular Mass": "279.91",
        "Melting Point": "209 °C"
    }
}