{
    "cas_no": "608-72-0",
    "key_name": "1,3,5-Tribromo-2,4,6-trimethylbenzene",
    "cn_name": null,
    "alternate_name": "Benzene, 1,3,5-tribromo-2,4,6-trimethyl-;Mesitylene, 2,4,6-tribromo-;1,3,5-Tribromo-2,4,6-trimethylbenzene;2,4,6-Tribromomesitylene;<em>ar</em>-Tribromomesitylene;1,3,5-Tribromotrimethylbenzene;NSC 97124;1,3,5-Trisbromomesitylene",
    "duplicated_cas_no": "",
    "SMILES": "BrC1=C(C)C(Br)=C(C)C(Br)=C1C",
    "meta_data": {
        "InChI": "InChI=1S/C9H9Br3/c1-4-7(10)5(2)9(12)6(3)8(4)11/h1-3H3",
        "InChIKey": null,
        "Canonical SMILES": "BrC=1C(=C(Br)C(=C(Br)C1C)C)C",
        "Molecular Formula": "C<sub>9</sub>H<sub>9</sub>Br<sub>3</sub>",
        "Molecular Mass": "356.88",
        "Melting Point": "222 °C"
    }
}