{
    "cas_no": "2768-02-7",
    "key_name": "Vinyltrimethoxysilane",
    "cn_name": "乙烯基三甲氧基硅烷;硅烷偶联剂JH-V171;",
    "alternate_name": "Silane, ethenyltrimethoxy-;Silane, trimethoxyvinyl-;Ethenyltrimethoxysilane;Vinyltrimethoxysilane;Trimethoxyvinylsilane;Y 4302;(Trimethoxysilyl)ethene;A 171;SZ 6300;VTS-M;KBM 1003;V 4917;SH 6300;S 210;Sila-Ace S 210;SB 6301;Silquest A 171;NUC-Y 9818;Dynasylan Silfin;TSL 8310;SL 815;KH 921;CV 4917;Dynasylan VTMO;VTMO;Silox VS 911;XL 10;U 611;LS 815;XL 10 (silane);Z 6300;Sigma T 5051;Geniosil XL 10;Silfin 22;Q 9-6300;V 0042;SIV 9220.0;DB 171;KH 171;VTMS;Penta 1002;Dynasylan Si 108;EMI 1833;Silfin 13;Dynasylan Silfin 24;Silfin 24;SCA 1603;YGO 1202;UN 1993;Geniosil X 10GS;Sila-Ace 210;Silane A 171;KBM 3100;DL 171;Dow Corning 6300;AC 71;LMD 171;A 101;A 101 (silane);YDH 171;Silaplane S 210;UP 171;Silfin 59;WD 21;LT 171;Xiameter OFS 6300;V 06;V 06 (coupling agent);KHA 171;Silopren TP 3625;GX 171;SG-Si 171;Silane V Trimethoxy;NUC Silicone A 171;(Vinyl)trimethoxylsilane;JH-V 171;SV 002;LKS 015;WM 171;YHD 171;V 171;AP Silane 21;CoatOSil VX 193;Si 171;AH 171;YS-A 151;LJ 171;SCA-V 71M;VV 6770000;V 162969;Silquest Y 9818;Dowsil SZ 6300;CG-V 171;SF-Y 171",
    "duplicated_cas_no": "119684-24-1;810682-79-2;959151-93-0;1029220-78-7;1189330-51-5;1613718-40-3;1983951-27-4",
    "SMILES": "[Si](C=C)(OC)(OC)OC",
    "meta_data": {
        "InChI": "InChI=1S/C5H12O3Si/c1-5-9(6-2,7-3)8-4/h5H,1H2,2-4H3",
        "InChIKey": null,
        "Canonical SMILES": "O(C)[Si](OC)(OC)C=C",
        "Molecular Formula": "C<sub>5</sub>H<sub>12</sub>O<sub>3</sub>Si",
        "Molecular Mass": "148.23",
        "Boiling Point": "123 °C",
        "Density": "0.970 g/cm³"
    }
}