{
    "cas_no": "2696-85-7",
    "key_name": "2-Butylaniline",
    "cn_name": "2-丁基苯胺;",
    "alternate_name": "Benzenamine, 2-butyl-;Aniline, <em>o</em>-butyl-;2-Butylbenzenamine;2-Butylaniline;<em>o</em>-Aminobutylbenzene",
    "duplicated_cas_no": "",
    "SMILES": "C(CCC)C1=C(N)C=CC=C1",
    "meta_data": {
        "InChI": "InChI=1S/C10H15N/c1-2-3-6-9-7-4-5-8-10(9)11/h4-5,7-8H,2-3,6,11H2,1H3",
        "InChIKey": null,
        "Canonical SMILES": "NC=1C=CC=CC1CCCC",
        "Molecular Formula": "C<sub>10</sub>H<sub>15</sub>N",
        "Molecular Mass": "149.23",
        "Boiling Point": "122-125 °C @ Press: 12 Torr",
        "Density": "0.953 g/cm³ @ Temp: 20 °C"
    }
}