{
    "cas_no": "35833-69-3",
    "key_name": "18-Norcholan-24-oic acid, 3,20-dihydroxy-4,4,8,14-tetramethyl-, γ-lactone, (3α,5α)-",
    "cn_name": null,
    "alternate_name": "18-Norcholan-24-oic acid, 3,20-dihydroxy-4,4,8,14-tetramethyl-, γ-lactone, (3α,5α)-;Cabraleahydroxylactone",
    "duplicated_cas_no": "",
    "SMILES": "C[C@]12[C@@]([C@]3(C)[C@@](CC1)(C(C)(C)[C@H](O)CC3)[H])(CC[C@]4([C@@]2(C)CC[C@@]4([C@@]5(C)OC(=O)CC5)[H])[H])[H]",
    "meta_data": {
        "InChI": "InChI=1S/C27H44O3/c1-23(2)19-10-15-26(5)20(24(19,3)13-11-21(23)28)8-7-17-18(9-14-25(17,26)4)27(6)16-12-22(29)30-27/h17-21,28H,7-16H2,1-6H3/t17-,18+,19+,20-,21-,24+,25-,26-,27+/m1/s1",
        "InChIKey": null,
        "Canonical SMILES": "O=C1OC(C)(CC1)C2CCC3(C)C2CCC4C5(C)CCC(O)C(C)(C)C5CCC43C",
        "Molecular Formula": "C<sub>27</sub>H<sub>44</sub>O<sub>3</sub>",
        "Molecular Mass": "416.64",
        "Melting Point": "242-245 °C"
    }
}