{
    "cas_no": "622-04-8",
    "key_name": "1,3-Diphenoxy-2-propanol",
    "cn_name": "1,3-二苯氧基-2-丙醇;甘油1,3-二苯醚;",
    "alternate_name": "2-Propanol, 1,3-diphenoxy-;1,3-Diphenoxy-2-propanol;Glycerol 1,3-diphenyl ether;Glyceryl 1,3-diphenyl ether;1,3-Diphenyl glyceryl ether;1,3-Diphenoxy-2-hydroxypropane;Glycerol α,γ-diphenyl ether;NSC 6802;NSC 71510;(2-Hydroxy-3-phenoxypropoxy)benzene",
    "duplicated_cas_no": "",
    "SMILES": "O(CC(COC1=CC=CC=C1)O)C2=CC=CC=C2",
    "meta_data": {
        "InChI": "InChI=1S/C15H16O3/c16-13(11-17-14-7-3-1-4-8-14)12-18-15-9-5-2-6-10-15/h1-10,13,16H,11-12H2",
        "InChIKey": null,
        "Canonical SMILES": "OC(COC=1C=CC=CC1)COC=2C=CC=CC2",
        "Molecular Formula": "C<sub>15</sub>H<sub>16</sub>O<sub>3</sub>",
        "Molecular Mass": "244.29",
        "Boiling Point": "258-259 °C @ Press: 763 Torr",
        "Melting Point": "81.5 °C",
        "Density": "1.179 g/cm³ @ Temp: 24 °C"
    }
}