{
    "cas_no": "22921-72-8",
    "key_name": "[(5-Bromopentyl)oxy]benzene",
    "cn_name": null,
    "alternate_name": "Benzene, [(5-bromopentyl)oxy]-;Ether, 5-bromopentyl phenyl;[(5-Bromopentyl)oxy]benzene;5-Phenoxypentyl bromide;5-Bromopentyl phenyl ether;1-Bromo-5-phenoxypentane;5-Phenoxy-1-bromopentane",
    "duplicated_cas_no": "",
    "SMILES": "O(CCCCCBr)C1=CC=CC=C1",
    "meta_data": {
        "InChI": "InChI=1S/C11H15BrO/c12-9-5-2-6-10-13-11-7-3-1-4-8-11/h1,3-4,7-8H,2,5-6,9-10H2",
        "InChIKey": null,
        "Canonical SMILES": "BrCCCCCOC=1C=CC=CC1",
        "Molecular Formula": "C<sub>11</sub>H<sub>15</sub>BrO",
        "Molecular Mass": "243.14",
        "Boiling Point": "160-165 °C @ Press: 11 Torr"
    }
}