{
    "cas_no": "93-67-4",
    "key_name": "5-Chloro-2-phenoxybenzenamine",
    "cn_name": "2-氨基-4-氯二苯醚;4-氯-2-氨基二苯醚;",
    "alternate_name": "Benzenamine, 5-chloro-2-phenoxy-;Aniline, 5-chloro-2-phenoxy-;5-Chloro-2-phenoxybenzenamine;5-Chloro-2-phenoxyaniline;4-Chloro-2-aminodiphenyl ether;2-Amino-4-chlorodiphenyl ether;NSC 59759;5-Chloro-2-phenoxyphenylamine;1-Amino-5-chloro-2-phenoxybenzene",
    "duplicated_cas_no": "",
    "SMILES": "O(C1=C(N)C=C(Cl)C=C1)C2=CC=CC=C2",
    "meta_data": {
        "InChI": "InChI=1S/C12H10ClNO/c13-9-6-7-12(11(14)8-9)15-10-4-2-1-3-5-10/h1-8H,14H2",
        "InChIKey": null,
        "Canonical SMILES": "ClC1=CC=C(OC=2C=CC=CC2)C(N)=C1",
        "Molecular Formula": "C<sub>12</sub>H<sub>10</sub>ClNO",
        "Molecular Mass": "219.67",
        "Boiling Point": "190-192 °C @ Press: 8 Torr",
        "Melting Point": "39-41 °C"
    }
}