{
    "cas_no": "110-01-0",
    "key_name": "Tetrahydrothiophene",
    "cn_name": "四氢噻吩;THT;",
    "alternate_name": "Thiophene, tetrahydro-;Tetrahydrothiophene;Tetramethylene sulfide;Thiacyclopentane;Thilane;Thiolane;Thiophane;Tetrahydrothiophen;THT;NSC 5272",
    "duplicated_cas_no": "",
    "SMILES": "C1CCSC1",
    "meta_data": {
        "InChI": "InChI=1S/C4H8S/c1-2-4-5-3-1/h1-4H2",
        "InChIKey": null,
        "Canonical SMILES": "S1CCCC1",
        "Molecular Formula": "C<sub>4</sub>H<sub>8</sub>S",
        "Molecular Mass": "88.17",
        "Boiling Point": "121.12 °C @ Press: 760 Torr",
        "Melting Point": "-96.16 °C",
        "Density": "0.9987 g/cm³ @ Temp: 20 °C"
    }
}