{
    "cas_no": "719-22-2",
    "key_name": "2,6-Di-<em>tert</em>-butyl-1,4-benzoquinone",
    "cn_name": "2,6-二叔丁基苯醌;2,6-二叔丁基-1,4-苯醌;",
    "alternate_name": "2,5-Cyclohexadiene-1,4-dione, 2,6-bis(1,1-dimethylethyl)-;<em>p</em>-Benzoquinone, 2,6-di-<em>tert</em>-butyl-;2,6-Bis(1,1-dimethylethyl)-2,5-cyclohexadiene-1,4-dione;2,6-Di-<em>tert</em>-butyl-1,4-benzoquinone;2,6-Di-<em>tert</em>-butyl-<em>p</em>-quinone;2,6-Di-<em>tert</em>-butylbenzoquinone;2,6-Di-<em>tert</em>-butyl-<em>p</em>-benzoquinone;2,6-Di-<em>tert</em>-butylquinone;3,5-Di-<em>tert</em>-butyl-<em>p</em>-benzoquinone;3,5-Di-<em>tert</em>-butylquinone;2,6-Di-<em>tert</em>-butyl-2,5-cyclohexadiene-1,4-dione;NSC 14448;2,6-Di-<em>tert</em>-butyl-2,5-cyclohexadien-1,4-dione;2,6-Bis[1,1-dimethyl ethyl]quinone;2,6-Ditert-butylcyclohexa-2,5-diene-1,4-dione",
    "duplicated_cas_no": "",
    "SMILES": "C(C)(C)(C)C=1C(=O)C(C(C)(C)C)=CC(=O)C1",
    "meta_data": {
        "InChI": "InChI=1S/C14H20O2/c1-13(2,3)10-7-9(15)8-11(12(10)16)14(4,5)6/h7-8H,1-6H3",
        "InChIKey": null,
        "Canonical SMILES": "O=C1C=C(C(=O)C(=C1)C(C)(C)C)C(C)(C)C",
        "Molecular Formula": "C<sub>14</sub>H<sub>20</sub>O<sub>2</sub>",
        "Molecular Mass": "220.31",
        "Boiling Point": "65-67 °C @ Press: 1 Torr",
        "Melting Point": "65-67 °C"
    }
}