{
    "cas_no": "7706-67-4",
    "key_name": "3-(2,4-Dimethoxyphenyl)-2-butenoic acid",
    "cn_name": "地美罗酸;(E)-3-(2,4-二甲氧基苯基)丁-2-烯酸;",
    "alternate_name": "2-Butenoic acid, 3-(2,4-dimethoxyphenyl)-;Cinnamic acid, 2,4-dimethoxy-β-methyl-;3-(2,4-Dimethoxyphenyl)-2-butenoic acid;Dimecrotic acid;2,4-Dimethoxy-β-methylcinnamic acid;3-(2,4-Dimethoxyphenyl)crotonic acid",
    "duplicated_cas_no": "",
    "SMILES": "C(=CC(O)=O)(C)C1=C(OC)C=C(OC)C=C1",
    "meta_data": {
        "InChI": "InChI=1S/C12H14O4/c1-8(6-12(13)14)10-5-4-9(15-2)7-11(10)16-3/h4-7H,1-3H3,(H,13,14)",
        "InChIKey": null,
        "Canonical SMILES": "O=C(O)C=C(C1=CC=C(OC)C=C1OC)C",
        "Molecular Formula": "C<sub>12</sub>H<sub>14</sub>O<sub>4</sub>",
        "Molecular Mass": "222.24",
        "Melting Point": "149 °C"
    }
}