{
    "cas_no": "141-62-8",
    "key_name": "Decamethyltetrasiloxane",
    "cn_name": "十甲基四硅氧烷;",
    "alternate_name": "Tetrasiloxane, 1,1,1,3,3,5,5,7,7,7-decamethyl-;Tetrasiloxane, decamethyl-;1,1,1,3,3,5,5,7,7,7-Decamethyltetrasiloxane;Decamethyltetrasiloxane;KF 96L1.5;DC 200 Fluid 1.5;1,1,3,3-Tetramethyl-1,3-bis(trimethylsiloxy)disiloxane;SH 200-1.5CS;KF 96L1.5CS;MD 2M (siloxane derivative);Xiameter PMX 200 Silicone Fluid 1.5CS;Xiameter PMX 200-1.5CS;OS 30 Fluid;OS 30;Dow Corning OS 30;[Dimethyl(trimethylsilyloxy)silyl]oxy-dimethyl-trimethylsilyloxysilane;SF 1.5",
    "duplicated_cas_no": "",
    "SMILES": "O([Si](O[Si](C)(C)C)(C)C)[Si](O[Si](C)(C)C)(C)C",
    "meta_data": {
        "InChI": "InChI=1S/C10H30O3Si4/c1-14(2,3)11-16(7,8)13-17(9,10)12-15(4,5)6/h1-10H3",
        "InChIKey": null,
        "Canonical SMILES": "O([Si](O[Si](C)(C)C)(C)C)[Si](O[Si](C)(C)C)(C)C",
        "Molecular Formula": "C<sub>10</sub>H<sub>30</sub>O<sub>3</sub>Si<sub>4</sub>",
        "Molecular Mass": "310.69",
        "Boiling Point": "194 °C",
        "Melting Point": "-76 °C",
        "Density": "0.853 g/cm³"
    }
}