{
    "cas_no": "555-44-2",
    "key_name": "Tripalmitin",
    "cn_name": "棕榈精;三棕榈酸甘油酯;",
    "alternate_name": "Hexadecanoic acid, 1,1′,1′′-(1,2,3-propanetriyl) ester;Palmitin, tri-;Hexadecanoic acid, 1,2,3-propanetriyl ester;Glycerol tripalmitate;Glyceryl tripalmitate;Tripalmitin;Palmitic triglyceride;Triglyceryl palmitate;Tripalmitoylglycerol;Spezialfett 116;Barolub LCD;Dynasan 116;Tripalmitate;Glycerin tripalmitate;Triglyceride PPP;Glyceryl trihexadecanoate;Dynosan 114;Palmitic acid triglyceride;2,3-Di(hexadecanoyloxy)propyl hexadecanoate;Sterotex GTP",
    "duplicated_cas_no": "",
    "SMILES": "C(OC(CCCCCCCCCCCCCCC)=O)(COC(CCCCCCCCCCCCCCC)=O)COC(CCCCCCCCCCCCCCC)=O",
    "meta_data": {
        "InChI": "InChI=1S/C51H98O6/c1-4-7-10-13-16-19-22-25-28-31-34-37-40-43-49(52)55-46-48(57-51(54)45-42-39-36-33-30-27-24-21-18-15-12-9-6-3)47-56-50(53)44-41-38-35-32-29-26-23-20-17-14-11-8-5-2/h48H,4-47H2,1-3H3",
        "InChIKey": null,
        "Canonical SMILES": "O=C(OCC(OC(=O)CCCCCCCCCCCCCCC)COC(=O)CCCCCCCCCCCCCCC)CCCCCCCCCCCCCCC",
        "Molecular Formula": "C<sub>51</sub>H<sub>98</sub>O<sub>6</sub>",
        "Molecular Mass": "807.32",
        "Boiling Point": "315 °C",
        "Melting Point": "66.5 °C",
        "Density": "0.866 g/cm³ @ Temp: 80 °C"
    }
}