{
    "cas_no": "4943-86-6",
    "key_name": "2-Amino-<em>N</em>-(4-chlorophenyl)benzamide",
    "cn_name": null,
    "alternate_name": "Benzamide, 2-amino-<em>N</em>-(4-chlorophenyl)-;Benzanilide, 2-amino-4′-chloro-;2-Amino-<em>N</em>-(4-chlorophenyl)benzamide;4-Chloroanthranilanilide;2-Amino-4′-chlorobenzanilide",
    "duplicated_cas_no": "",
    "SMILES": "C(NC1=CC=C(Cl)C=C1)(=O)C2=C(N)C=CC=C2",
    "meta_data": {
        "InChI": "InChI=1S/C13H11ClN2O/c14-9-5-7-10(8-6-9)16-13(17)11-3-1-2-4-12(11)15/h1-8H,15H2,(H,16,17)",
        "InChIKey": null,
        "Canonical SMILES": "O=C(NC1=CC=C(Cl)C=C1)C=2C=CC=CC2N",
        "Molecular Formula": "C<sub>13</sub>H<sub>11</sub>ClN<sub>2</sub>O",
        "Molecular Mass": "246.69",
        "Melting Point": "148-149 °C"
    }
}