{
    "cas_no": "150-39-0",
    "key_name": "HEDTA",
    "cn_name": "N-羟乙基乙二胺三乙酸;N-(2-羟乙基)乙二胺-N,N\",N\"-三乙酸;HEDTA;",
    "alternate_name": "Glycine, <em>N</em>-[2-[bis(carboxymethyl)amino]ethyl]-<em>N</em>-(2-hydroxyethyl)-;Glycine, <em>N</em>-(carboxymethyl)-<em>N</em>′-(2-hydroxyethyl)-<em>N</em>,<em>N</em>′-ethylenedi-;<em>N</em>-[2-[Bis(carboxymethyl)amino]ethyl]-<em>N</em>-(2-hydroxyethyl)glycine;Chel DM Acid;HEDTA;HEEDTA;<em>N</em>-(2-Hydroxyethyl)ethylenediaminetriacetic acid;<em>N</em>′-(2-Hydroxyethyl)ethylenediamine-<em>N</em>,<em>N</em>,<em>N</em>′-triacetic acid;(Hydroxyethyl)ethylenediaminetriacetic acid;Hydroxyethylethylenediaminotriacetic acid;<em>N</em>-(Hydroxyethyl)ethylenediaminetriacetic acid;<em>N</em>-(Hydroxyethyl)ethylenediamine-<em>N</em>,<em>N</em>′,<em>N</em>′-triacetic acid;<em>N</em>-(2-Hydroxyethyl)ethylenediamine-<em>N</em>,<em>N</em>′,<em>N</em>′-triacetic acid;(2-Hydroxyethyl)ethylenediaminetriacetic acid;Oxyethylethylenediaminetriacetic acid;Detarol;Hamp-OL;Dissolvine H;NSC 7341;Chelest HA;2-[2-[Bis(carboxymethyl)amino]ethyl-(2-hydroxyethyl)amino]acetic acid",
    "duplicated_cas_no": "125317-19-3;178394-29-1",
    "SMILES": "N(CCN(CC(O)=O)CCO)(CC(O)=O)CC(O)=O",
    "meta_data": {
        "InChI": "InChI=1S/C10H18N2O7/c13-4-3-11(5-8(14)15)1-2-12(6-9(16)17)7-10(18)19/h13H,1-7H2,(H,14,15)(H,16,17)(H,18,19)",
        "InChIKey": null,
        "Canonical SMILES": "O=C(O)CN(CC(=O)O)CCN(CC(=O)O)CCO",
        "Molecular Formula": "C<sub>10</sub>H<sub>18</sub>N<sub>2</sub>O<sub>7</sub>",
        "Molecular Mass": "278.26",
        "Melting Point": "159 °C"
    }
}