{
    "cas_no": "368-90-1",
    "key_name": "4-Trifluoromethylphenylhydrazine",
    "cn_name": "4-(三氟甲基)苯肼;对三氟甲基苯肼;",
    "alternate_name": "Hydrazine, [4-(trifluoromethyl)phenyl]-;Hydrazine, (α,α,α-trifluoro-<em>p</em>-tolyl)-;[4-(Trifluoromethyl)phenyl]hydrazine;4-Trifluoromethylphenylhydrazine;<em>p</em>-Trifluoromethylphenylhydrazine;1-(4-Trifluoromethylphenyl)hydrazine",
    "duplicated_cas_no": "",
    "SMILES": "C(F)(F)(F)C1=CC=C(NN)C=C1",
    "meta_data": {
        "InChI": "InChI=1S/C7H7F3N2/c8-7(9,10)5-1-3-6(12-11)4-2-5/h1-4,12H,11H2",
        "InChIKey": null,
        "Canonical SMILES": "FC(F)(F)C1=CC=C(C=C1)NN",
        "Molecular Formula": "C<sub>7</sub>H<sub>7</sub>F<sub>3</sub>N<sub>2</sub>",
        "Molecular Mass": "176.14",
        "Boiling Point": "118-122 °C @ Press: 17 Torr"
    }
}