{
    "cas_no": "83048-65-1",
    "key_name": "Heptadecafluorodecyltrimethoxysilane",
    "cn_name": "3,3,4,4,5,5,6,6,7,7,8,8,9,9,10,10,10-十七氟癸基三甲氧基硅烷;",
    "alternate_name": "Silane, (3,3,4,4,5,5,6,6,7,7,8,8,9,9,10,10,10-heptadecafluorodecyl)trimethoxy-;(3,3,4,4,5,5,6,6,7,7,8,8,9,9,10,10,10-Heptadecafluorodecyl)trimethoxysilane;LP 8T;KBM 7803;TSL 8233;Heptadecafluorodecyltrimethoxysilane;XC 95-470;2-Perfluorooctylethyltrimethoxysilane;2-Heptadecafluorooctylethyltrimethoxysilane;XC 98A5382;(Heptadecafluoro-1,1,2,2-tetrahydrodecyl)trimethoxysilane;TSLB 8233;1<em>H</em>,1<em>H</em>,2<em>H</em>,2<em>H</em>-Perfluorodecyltrimethoxysilane;FAS 17;1,1,2,2-Tetrahydroperfluorodecyltrimethoxysilane;SG-SiF 17;LS 4875;Trimethoxy(1<em>H</em>,1<em>H</em>,2<em>H</em>,2<em>H</em>-heptadecafluorodecyl)silane;SIH 5841.5;(Heptadecafluoro-1,1,2,2-tetradecyl)trimethoxysilane;Hetadecafluoro-1,1,2,2-tetrahydrodecyltrimethoxysilane;WS 1160;DMT 17;SiSiB PC 9751;T 2917;F 1013 (coupling agent);F 1013",
    "duplicated_cas_no": "118607-08-2;136510-90-2",
    "SMILES": "[Si](CCC(C(C(C(C(C(C(C(F)(F)F)(F)F)(F)F)(F)F)(F)F)(F)F)(F)F)(F)F)(OC)(OC)OC",
    "meta_data": {
        "InChI": "InChI=1S/C13H13F17O3Si/c1-31-34(32-2,33-3)5-4-6(14,15)7(16,17)8(18,19)9(20,21)10(22,23)11(24,25)12(26,27)13(28,29)30/h4-5H2,1-3H3",
        "InChIKey": null,
        "Canonical SMILES": "FC(F)(F)C(F)(F)C(F)(F)C(F)(F)C(F)(F)C(F)(F)C(F)(F)C(F)(F)CC[Si](OC)(OC)OC",
        "Molecular Formula": "C<sub>13</sub>H<sub>13</sub>F<sub>17</sub>O<sub>3</sub>Si",
        "Molecular Mass": "568.30",
        "Boiling Point": "247 °C",
        "Density": "1.54 g/cm³"
    }
}