{
    "cas_no": "3350-78-5",
    "key_name": "3-Methyl-2-butenoyl chloride",
    "cn_name": "3,3-二甲基丙烯酰氯;3-甲基巴豆酰氯;",
    "alternate_name": "2-Butenoyl chloride, 3-methyl-;Crotonoyl chloride, 3-methyl-;Senecioyl chloride;3-Methyl-2-butenoyl chloride;β,β-Dimethylacryloyl chloride;β,β-Dimethylacrylyl chloride;β-Methylcrotonoyl chloride;β,β-Dimethylacrylic acid chloride;3,3-Dimethylacryloyl chloride;3-Methylcrotonoyl chloride;γ,γ-Dimethylacryloyl chloride;3,3-Dimethylacrylic acid chloride;3,3-Dimethylacrylyl chloride",
    "duplicated_cas_no": "",
    "SMILES": "C(=C(C)C)C(Cl)=O",
    "meta_data": {
        "InChI": "InChI=1S/C5H7ClO/c1-4(2)3-5(6)7/h3H,1-2H3",
        "InChIKey": null,
        "Canonical SMILES": "O=C(Cl)C=C(C)C",
        "Molecular Formula": "C<sub>5</sub>H<sub>7</sub>ClO",
        "Molecular Mass": "118.56",
        "Boiling Point": "146 °C"
    }
}