{
    "cas_no": "1655-52-3",
    "key_name": "2,4-Dinitrophenyl-<span class=\"text-smallcaps\">L</span>-alanine",
    "cn_name": "二硝基苯丙氨酸;二硝基苯丙氨酸;",
    "alternate_name": "<span class=\"text-smallcaps\">L</span>-Alanine, <em>N</em>-(2,4-dinitrophenyl)-;Alanine, <em>N</em>-(2,4-dinitrophenyl)-, <span class=\"text-smallcaps\">L</span>-;<em>N</em>-(2,4-Dinitrophenyl)-<span class=\"text-smallcaps\">L</span>-alanine;2,4-Dinitrophenyl-<span class=\"text-smallcaps\">L</span>-alanine;1-<em>N</em>-2,4-Dinitrophenyl-<span class=\"text-smallcaps\">L</span>-alanine;DNP-<span class=\"text-smallcaps\">L</span>-alanine;NSC 89605;(<em>S</em>)-2-((2,4-Dinitrophenyl)amino)propanoic acid",
    "duplicated_cas_no": "10333-81-0;14380-06-4;191669-23-5",
    "SMILES": "N(=O)(=O)C1=C(N[C@H](C(O)=O)C)C=CC(N(=O)=O)=C1",
    "meta_data": {
        "InChI": "InChI=1S/C9H9N3O6/c1-5(9(13)14)10-7-3-2-6(11(15)16)4-8(7)12(17)18/h2-5,10H,1H3,(H,13,14)/t5-/m0/s1",
        "InChIKey": null,
        "Canonical SMILES": "O=C(O)C(NC1=CC=C(C=C1N(=O)=O)N(=O)=O)C",
        "Molecular Formula": "C<sub>9</sub>H<sub>9</sub>N<sub>3</sub>O<sub>6</sub>",
        "Molecular Mass": "255.18",
        "Melting Point": "175-178 °C (decomp)"
    }
}