{
    "cas_no": "1344-48-5",
    "key_name": "Mercury sulfide (HgS)",
    "cn_name": null,
    "alternate_name": "Mercury sulfide (HgS);C.I. 77766;Chinese Vermilion;C.I. Pigment Red 106;Ethiops mineral;Mercuric sulfide;Mercuric sulfide red;Mercury sulphide;Orange Vermilion;Pure English (Quicksilver) Vermilion;Red Cinnabar;Red Mercury Sulphide;Scarlet Vermilion;Vermilion;Mercury monosulfide;Monomercury sulfide;β-Mercuric sulfide;Mercuric Sulfide, Black;Mercury(2+) sulfide;Mercury sulfide;Almaden;Pigment Red 106;Vermilion (HgS);Red mercuric sulfide;Mercury(II) sulfide;Syu;Vermillion",
    "duplicated_cas_no": "",
    "SMILES": "[Hg]=S",
    "meta_data": {
        "InChI": "InChI=1S/Hg.S",
        "InChIKey": null,
        "Canonical SMILES": "S=[Hg]",
        "Molecular Formula": "HgS",
        "Molecular Mass": "",
        "Melting Point": "160 °C (decomp)",
        "Density": "8.10 g/cm³ (solid)"
    }
}