{
    "cas_no": "18708-70-8",
    "key_name": "2,4,6-Trichloronitrobenzene",
    "cn_name": "2,4,6-三氯硝基苯;",
    "alternate_name": "Benzene, 1,3,5-trichloro-2-nitro-;1,3,5-Trichloro-2-nitrobenzene;2,4,6-Trichloro-1-nitrobenzene;2,4,6-Trichloronitrobenzene;NSC 10244",
    "duplicated_cas_no": "",
    "SMILES": "N(=O)(=O)C1=C(Cl)C=C(Cl)C=C1Cl",
    "meta_data": {
        "InChI": "InChI=1S/C6H2Cl3NO2/c7-3-1-4(8)6(10(11)12)5(9)2-3/h1-2H",
        "InChIKey": null,
        "Canonical SMILES": "O=N(=O)C=1C(Cl)=CC(Cl)=CC1Cl",
        "Molecular Formula": "C<sub>6</sub>H<sub>2</sub>Cl<sub>3</sub>NO<sub>2</sub>",
        "Molecular Mass": "226.44",
        "Melting Point": "72 °C"
    }
}