{
    "cas_no": "19099-93-5",
    "key_name": "Benzyl 4-oxo-1-piperidinecarboxylate",
    "cn_name": "1-Cbz-4-哌啶酮;N-苄氧羰基-4-哌啶酮;",
    "alternate_name": "1-Piperidinecarboxylic acid, 4-oxo-, phenylmethyl ester;1-Piperidinecarboxylic acid, 4-oxo-, benzyl ester;<em>N</em>-Carbobenzyloxy-4-piperidone;<em>N</em>-(Carbobenzyloxy)-4-piperidinone;1-Carbobenzoxy-4-piperidone;<em>N</em>-(Benzyloxycarbonyl)-4-piperidone;1-Benzyloxycarbonyl-4-piperidone;1-(Benzyloxycarbonyl)-4-piperidinone;<em>N</em>-(Benzyloxycarbonyl)-4-oxopiperidine;Benzyl 4-oxo-1-piperidinecarboxylate;4-Oxopiperidine-1-carboxylic acid benzyl ester;1-Benzyloxycarbonyl-4-oxopiperidine;(<em>N</em>-Benzyloxycarbonyl)piperidin-4-one;4-Oxopiperidin-1-carboxylic acid benzyl ester;1-CBZ-4-piperidone;Phenylmethyl 4-oxo-1-piperidinecarboxylate;<em>N</em>-Cbz-4-piperidinone",
    "duplicated_cas_no": "",
    "SMILES": "C(OCC1=CC=CC=C1)(=O)N2CCC(=O)CC2",
    "meta_data": {
        "InChI": "InChI=1S/C13H15NO3/c15-12-6-8-14(9-7-12)13(16)17-10-11-4-2-1-3-5-11/h1-5H,6-10H2",
        "InChIKey": null,
        "Canonical SMILES": "O=C(OCC=1C=CC=CC1)N2CCC(=O)CC2",
        "Molecular Formula": "C<sub>13</sub>H<sub>15</sub>NO<sub>3</sub>",
        "Molecular Mass": "233.26",
        "Boiling Point": "125-131 °C @ Press: 4 x 10<sup>-3</sup> Torr",
        "Melting Point": "37-38 °C"
    }
}