{
    "cas_no": "59-97-2",
    "key_name": "Tolazoline hydrochloride",
    "cn_name": "盐酸妥拉唑林;盐酸苯甲唑林;苄唑啉;苯甲唑啉;妥拉苏林;2-苄基-2-咪唑啉盐酸盐;",
    "alternate_name": "1<em>H</em>-Imidazole, 4,5-dihydro-2-(phenylmethyl)-, hydrochloride (1:1);2-Imidazoline, 2-benzyl-, monohydrochloride;1<em>H</em>-Imidazole, 4,5-dihydro-2-(phenylmethyl)-, monohydrochloride;Arterodyl;Benzazoline hydrochloride;Imidaline hydrochloride;Priscoline hydrochloride;Tolavad;Tolazoline chloride;Tolazoline hydrochloride;Tolpal;2-Benzyl-4,5-dihydroimidazole hydrochloride;2-Benzyl-2-imidazoline hydrochloride;2-Benzylimidazoline hydrochloride;Totazoline;Lambral;Vaso-Dilatan;2-Benzyl-4,5-dihydro-1<em>H</em>-imidazole hydrochloride",
    "duplicated_cas_no": "7380-28-1;245547-27-7",
    "SMILES": "C(C1=CC=CC=C1)C=2NCCN2.Cl",
    "meta_data": {
        "InChI": "InChI=1S/C10H12N2.ClH/c1-2-4-9(5-3-1)8-10-11-6-7-12-10;/h1-5H,6-8H2,(H,11,12);1H",
        "InChIKey": null,
        "Canonical SMILES": "Cl.N1=C(NCC1)CC=2C=CC=CC2",
        "Molecular Formula": "C<sub>10</sub>H<sub>12</sub>N<sub>2</sub>.ClH",
        "Molecular Mass": "",
        "Melting Point": "174 °C"
    }
}