{
    "cas_no": "54-71-7",
    "key_name": "Pilocarpine hydrochloride",
    "cn_name": "盐酸毛果芸香碱;(+)-毛果芸香碱盐酸盐;(3S,4R)-4,5-二氢-3-乙基-4-(1-甲基-1H-咪唑-5-基甲基)-2(3H)-呋喃酮;",
    "alternate_name": "2(3<em>H</em>)-Furanone, 3-ethyldihydro-4-[(1-methyl-1<em>H</em>-imidazol-5-yl)methyl]-, hydrochloride (1:1), (3<em>S</em>,4<em>R</em>)-;Pilocarpine, monohydrochloride;2(3<em>H</em>)-Furanone, 3-ethyldihydro-4-[(1-methyl-1<em>H</em>-imidazol-5-yl)methyl]-, monohydrochloride, (3<em>S</em>-<em>cis</em>)-;2(3<em>H</em>)-Furanone, 3-ethyldihydro-4-[(1-methyl-1<em>H</em>-imidazol-5-yl)methyl]-, monohydrochloride, (3<em>S</em>,4<em>R</em>)-;Pilocarpine hydrochloride;Pilocarpine muriate;Pilocar SMP;Pilocel;Pilovisc;Pilocarpine chloride;Almocarpine;Pilocarpal;Pilocarpinium chloride;(+)-Pilocarpine hydrochloride;Salagen;Isopto Carpine;Adsorbocarpine;NSC 5746;Vistacarpin N;Pilocar;Sanpilo;Pilogel;Vuity",
    "duplicated_cas_no": "",
    "SMILES": "C([C@@H]1[C@H](CC)C(=O)OC1)C=2N(C)C=NC2.Cl",
    "meta_data": {
        "InChI": "InChI=1S/C11H16N2O2.ClH/c1-3-10-8(6-15-11(10)14)4-9-5-12-7-13(9)2;/h5,7-8,10H,3-4,6H2,1-2H3;1H/t8-,10-;/m0./s1",
        "InChIKey": null,
        "Canonical SMILES": "Cl.O=C1OCC(CC2=CN=CN2C)C1CC",
        "Molecular Formula": "C<sub>11</sub>H<sub>16</sub>N<sub>2</sub>O<sub>2</sub>.ClH",
        "Molecular Mass": "",
        "Melting Point": "204-205 °C"
    }
}