{
    "cas_no": "117976-90-6",
    "key_name": "Rabeprazole sodium",
    "cn_name": "雷贝拉唑钠;2-{[4-(3-甲氧基丙氧基)-3-甲基吡啶-2-基]甲亚磺酰基}-1H-苯并咪唑钠;",
    "alternate_name": "1<em>H</em>-Benzimidazole, 2-[[[4-(3-methoxypropoxy)-3-methyl-2-pyridinyl]methyl]sulfinyl]-, sodium salt (1:1);1<em>H</em>-Benzimidazole, 2-[[[4-(3-methoxypropoxy)-3-methyl-2-pyridinyl]methyl]sulfinyl]-, sodium salt;E 3810;LY 307640 sodium;Rabeprazole sodium;Pariprazole;Pariet;Aciphex;2-[[[4-(3-Methoxypropoxy)-3-methylpyridin-2-yl]methyl]sulfinyl]-1<em>H</em>-benzimidazole sodium salt;Rabicip;Pepcia;Razo",
    "duplicated_cas_no": "129982-41-8;226904-80-9;1017795-22-0",
    "SMILES": "S(CC1=C(C)C(OCCCOC)=CC=N1)(=O)C=2NC=3C(N2)=CC=CC3.[Na]",
    "meta_data": {
        "InChI": "InChI=1S/C18H21N3O3S.Na/c1-13-16(19-9-8-17(13)24-11-5-10-23-2)12-25(22)18-20-14-6-3-4-7-15(14)21-18;/h3-4,6-9H,5,10-12H2,1-2H3,(H,20,21);",
        "InChIKey": null,
        "Canonical SMILES": "[Na].O=S(C1=NC=2C=CC=CC2N1)CC3=NC=CC(OCCCOC)=C3C",
        "Molecular Formula": "C<sub>18</sub>H<sub>21</sub>N<sub>3</sub>O<sub>3</sub>S.Na",
        "Molecular Mass": "",
        "Melting Point": "140-141 °C (decomp)"
    }
}