{
    "cas_no": "99519-84-3",
    "key_name": "Carboxyamidotriazole",
    "cn_name": null,
    "alternate_name": "1<em>H</em>-1,2,3-Triazole-4-carboxamide, 5-amino-1-[[3,5-dichloro-4-(4-chlorobenzoyl)phenyl]methyl]-;5-Amino-1-[[3,5-dichloro-4-(4-chlorobenzoyl)phenyl]methyl]-1<em>H</em>-1,2,3-triazole-4-carboxamide;L 651582;NSC 609974;CAI;Carboxyamidotriazole",
    "duplicated_cas_no": "197445-54-8",
    "SMILES": "C(=O)(C1=C(Cl)C=C(CN2C(N)=C(C(N)=O)N=N2)C=C1Cl)C3=CC=C(Cl)C=C3",
    "meta_data": {
        "InChI": "InChI=1S/C17H12Cl3N5O2/c18-10-3-1-9(2-4-10)15(26)13-11(19)5-8(6-12(13)20)7-25-16(21)14(17(22)27)23-24-25/h1-6H,7,21H2,(H2,22,27)",
        "InChIKey": null,
        "Canonical SMILES": "O=C(N)C=1N=NN(C1N)CC2=CC(Cl)=C(C(=O)C3=CC=C(Cl)C=C3)C(Cl)=C2",
        "Molecular Formula": "C<sub>17</sub>H<sub>12</sub>Cl<sub>3</sub>N<sub>5</sub>O<sub>2</sub>",
        "Molecular Mass": "424.67",
        "Melting Point": "200-202 °C"
    }
}