{
    "cas_no": "3849-33-0",
    "key_name": "1,1,1,2,3,3,3-Heptachloropropane",
    "cn_name": "1,1,1,2,3,3,3-七氯丙烷;七氯丙烷;",
    "alternate_name": "Propane, 1,1,1,2,3,3,3-heptachloro-;1,1,1,2,3,3,3-Heptachloropropane",
    "duplicated_cas_no": "",
    "SMILES": "C(C(Cl)(Cl)Cl)(C(Cl)(Cl)Cl)Cl",
    "meta_data": {
        "InChI": "InChI=1S/C3HCl7/c4-1(2(5,6)7)3(8,9)10/h1H",
        "InChIKey": null,
        "Canonical SMILES": "ClC(C(Cl)(Cl)Cl)C(Cl)(Cl)Cl",
        "Molecular Formula": "C<sub>3</sub>HCl<sub>7</sub>",
        "Molecular Mass": "285.21",
        "Boiling Point": "249 °C",
        "Melting Point": "11 °C"
    }
}