{
    "cas_no": "5543-57-7",
    "key_name": "(-)-Warfarin",
    "cn_name": "(S)-(-)-华法令;",
    "alternate_name": "2<em>H</em>-1-Benzopyran-2-one, 4-hydroxy-3-[(1<em>S</em>)-3-oxo-1-phenylbutyl]-;Coumarin, 3-(α-acetonylbenzyl)-4-hydroxy-, (<em>S</em>)-(-)-;2<em>H</em>-1-Benzopyran-2-one, 4-hydroxy-3-(3-oxo-1-phenylbutyl)-, (<em>S</em>)-;4-Hydroxy-3-[(1<em>S</em>)-3-oxo-1-phenylbutyl]-2<em>H</em>-1-benzopyran-2-one;(-)-Warfarin;(<em>S</em>)-Warfarin;(<em>S</em>)-4-Hydroxy-3-(3-oxo-1-phenylbutyl)-2<em>H</em>-chromen-2-one",
    "duplicated_cas_no": "",
    "SMILES": "[C@@H](CC(C)=O)(C1=C(O)C=2C(OC1=O)=CC=CC2)C3=CC=CC=C3",
    "meta_data": {
        "InChI": "InChI=1S/C19H16O4/c1-12(20)11-15(13-7-3-2-4-8-13)17-18(21)14-9-5-6-10-16(14)23-19(17)22/h2-10,15,21H,11H2,1H3/t15-/m0/s1",
        "InChIKey": null,
        "Canonical SMILES": "O=C1OC=2C=CC=CC2C(O)=C1C(C=3C=CC=CC3)CC(=O)C",
        "Molecular Formula": "C<sub>19</sub>H<sub>16</sub>O<sub>4</sub>",
        "Molecular Mass": "",
        "Melting Point": "172-173 °C"
    }
}