{
    "cas_no": "694-87-1",
    "key_name": "Benzocyclobutene",
    "cn_name": "苯并环丁烯;",
    "alternate_name": "Bicyclo[4.2.0]octa-1,3,5-triene;Cardene;1,2-Dihydrobenzocyclobutene;Benzocyclobutane;Cyclobutabenzene;Bicyclo[4.2.0]octa-2,4,6-triene;1,2-Dihydrocyclobutabenzene;Benzocyclobutene",
    "duplicated_cas_no": "101420-78-4",
    "SMILES": "C1=2C(CC1)=CC=CC2",
    "meta_data": {
        "InChI": "InChI=1S/C8H8/c1-2-4-8-6-5-7(8)3-1/h1-4H,5-6H2",
        "InChIKey": null,
        "Canonical SMILES": "C=1C=CC2=C(C1)CC2",
        "Molecular Formula": "C<sub>8</sub>H<sub>8</sub>",
        "Molecular Mass": "104.15",
        "Boiling Point": "77 °C @ Press: 70 Torr"
    }
}