{
    "cas_no": "3592-12-9",
    "key_name": "2,2-Dimethyltrimethylene carbonate",
    "cn_name": "5,5-二甲-1,3-二噁烷-2-酮;5,5-二甲-1,3-二噁烷-2-酮;",
    "alternate_name": "1,3-Dioxan-2-one, 5,5-dimethyl-;Carbonic acid, cyclic 2,2-dimethyltrimethylene ester;Carbonic acid, 2,2-dimethyltrimethylene ester;5,5-Dimethyl-1,3-dioxan-2-one;Cyclic 2,2-dimethyltrimethylene carbonate;Neopentylene carbonate;5,5-Dimethyl-2-oxo-1,3-dioxane;5,5-Dimethyl-1,3-dioxane-2-one;2,2-Dimethyltrimethylene carbonate;Neopentyl glycol carbonate;NSC 14669;Cyclic 2,2-dimethylpropane carbonate;5,5-Dimethyltrimethylene carbonate",
    "duplicated_cas_no": "",
    "SMILES": "CC1(C)COC(=O)OC1",
    "meta_data": {
        "InChI": "InChI=1S/C6H10O3/c1-6(2)3-8-5(7)9-4-6/h3-4H2,1-2H3",
        "InChIKey": null,
        "Canonical SMILES": "O=C1OCC(C)(C)CO1",
        "Molecular Formula": "C<sub>6</sub>H<sub>10</sub>O<sub>3</sub>",
        "Molecular Mass": "130.14",
        "Boiling Point": "110-120 °C @ Press: 1 Torr",
        "Melting Point": "110-111 °C"
    }
}