{
    "cas_no": "10294-29-8",
    "key_name": "Gold(I) chloride",
    "cn_name": "氯化金;",
    "alternate_name": "Gold chloride (AuCl);Aurous chloride;Gold monochloride;Gold(1+) chloride;Gold(I) chloride",
    "duplicated_cas_no": "11092-54-9;13464-29-4",
    "SMILES": "[Au]Cl",
    "meta_data": {
        "InChI": "InChI=1S/Au.ClH/h;1H/q+1;/p-1",
        "InChIKey": null,
        "Canonical SMILES": "Cl[Au]",
        "Molecular Formula": "AuCl",
        "Molecular Mass": "",
        "Melting Point": "342 °C (decomp)"
    }
}