{
    "cas_no": "62433-26-5",
    "key_name": "(4-Chlorophenyl)(5-fluoro-2-hydroxyphenyl)methanone",
    "cn_name": "4-氯-5-氟-2-羟基二苯甲酮;",
    "alternate_name": "Methanone, (4-chlorophenyl)(5-fluoro-2-hydroxyphenyl)-;(4-Chlorophenyl)(5-fluoro-2-hydroxyphenyl)methanone;SL 79-182;SL 79-182-00;4′-Chloro-5-fluoro-2-hydroxybenzophenone;4-Chloro-2′-hydroxy-5′-fluorobenzophenone;2-(4-Chlorobenzoyl)-4-fluorophenol",
    "duplicated_cas_no": "",
    "SMILES": "C(=O)(C1=C(O)C=CC(F)=C1)C2=CC=C(Cl)C=C2",
    "meta_data": {
        "InChI": "InChI=1S/C13H8ClFO2/c14-9-3-1-8(2-4-9)13(17)11-7-10(15)5-6-12(11)16/h1-7,16H",
        "InChIKey": null,
        "Canonical SMILES": "O=C(C1=CC=C(Cl)C=C1)C2=CC(F)=CC=C2O",
        "Molecular Formula": "C<sub>13</sub>H<sub>8</sub>ClFO<sub>2</sub>",
        "Molecular Mass": "250.65",
        "Melting Point": "65-66 °C"
    }
}