{
    "cas_no": "49627-27-2",
    "key_name": "Sulindac sulfide",
    "cn_name": null,
    "alternate_name": "1<em>H</em>-Indene-3-acetic acid, 5-fluoro-2-methyl-1-[[4-(methylthio)phenyl]methylene]-, (1<em>Z</em>)-;1<em>H</em>-Indene-3-acetic acid, 5-fluoro-2-methyl-1-[[4-(methylthio)phenyl]methylene]-, (<em>Z</em>)-;(1<em>Z</em>)-5-Fluoro-2-methyl-1-[[4-(methylthio)phenyl]methylene]-1<em>H</em>-indene-3-acetic acid;Sulindac sulfide;<em>Z</em>-Sulindac sulfide;<em>cis</em>-Sulindac sulfide",
    "duplicated_cas_no": "",
    "SMILES": "C(=C/1\\C=2C(C(CC(O)=O)=C1C)=CC(F)=CC2)\\C3=CC=C(SC)C=C3",
    "meta_data": {
        "InChI": "InChI=1S/C20H17FO2S/c1-12-17(9-13-3-6-15(24-2)7-4-13)16-8-5-14(21)10-19(16)18(12)11-20(22)23/h3-10H,11H2,1-2H3,(H,22,23)/b17-9-",
        "InChIKey": null,
        "Canonical SMILES": "O=C(O)CC=1C=2C=C(F)C=CC2C(=CC3=CC=C(SC)C=C3)C1C",
        "Molecular Formula": "C<sub>20</sub>H<sub>17</sub>FO<sub>2</sub>S",
        "Molecular Mass": "340.41",
        "Melting Point": "186-190 °C"
    }
}