{
    "cas_no": "329-59-9",
    "key_name": "Methyl 4-fluoro-3-nitrobenzoate",
    "cn_name": "4-氟-3-硝基苯甲酸甲酯;",
    "alternate_name": "Benzoic acid, 4-fluoro-3-nitro-, methyl ester;Methyl 4-fluoro-3-nitrobenzoate;4-Fluoro-3-nitrobenzoic acid methyl ester;3-Nitro-4-fluorobenzoic acid methyl ester",
    "duplicated_cas_no": "",
    "SMILES": "C(OC)(=O)C1=CC(N(=O)=O)=C(F)C=C1",
    "meta_data": {
        "InChI": "InChI=1S/C8H6FNO4/c1-14-8(11)5-2-3-6(9)7(4-5)10(12)13/h2-4H,1H3",
        "InChIKey": null,
        "Canonical SMILES": "O=C(OC)C1=CC=C(F)C(=C1)N(=O)=O",
        "Molecular Formula": "C<sub>8</sub>H<sub>6</sub>FNO<sub>4</sub>",
        "Molecular Mass": "199.14",
        "Boiling Point": "116-119 °C @ Press: 1 Torr",
        "Melting Point": "55-58 °C"
    }
}