{
    "cas_no": "166330-10-5",
    "key_name": "Bis[2-(diphenylphosphino)phenyl] ether",
    "cn_name": null,
    "alternate_name": "Phosphine, 1,1′-[(oxydi-2,1-phenylene)]bis[1,1-diphenyl-;Phosphine, (oxydi-2,1-phenylene)bis[diphenyl-;1,1′-[(Oxydi-2,1-phenylene)]bis[1,1-diphenylphosphine];DPE-phos;(Oxydi-2,1-phenylene)bis[diphenylphosphine];Bis[2-(diphenylphosphino)phenyl] ether;1,1′-Oxybis[2,1-phenylenebis(diphenylphosphine)];Bis[2-(diphenylphosphanyl)phenyl] ether;2,2′-Bis(diphenylphosphino)diphenyl ether;Bis[2-(diphenylphosphine)phenyl] ether;[2-[2-(Diphenylphosphanyl)phenoxy]phenyl]diphenylphosphane;[2-(2-Diphenylphosphanylphenoxy)phenyl]-diphenylphosphane",
    "duplicated_cas_no": "",
    "SMILES": "P(C1=C(OC2=C(P(C3=CC=CC=C3)C4=CC=CC=C4)C=CC=C2)C=CC=C1)(C5=CC=CC=C5)C6=CC=CC=C6",
    "meta_data": {
        "InChI": "InChI=1S/C36H28OP2/c1-5-17-29(18-6-1)38(30-19-7-2-8-20-30)35-27-15-13-25-33(35)37-34-26-14-16-28-36(34)39(31-21-9-3-10-22-31)32-23-11-4-12-24-32/h1-28H",
        "InChIKey": null,
        "Canonical SMILES": "O(C=1C=CC=CC1P(C=2C=CC=CC2)C=3C=CC=CC3)C=4C=CC=CC4P(C=5C=CC=CC5)C=6C=CC=CC6",
        "Molecular Formula": "C<sub>36</sub>H<sub>28</sub>OP<sub>2</sub>",
        "Molecular Mass": "538.55",
        "Melting Point": "175 °C"
    }
}