{
    "cas_no": "1302-42-7",
    "key_name": "Sodium metaaluminate",
    "cn_name": "铝酸钠;",
    "alternate_name": "Aluminate (AlO<sub>2</sub><sup>1-</sup>), sodium (1:1);Aluminate (AlO<sub>2</sub><sup>1-</sup>), sodium;Sodium aluminate (NaAlO<sub>2</sub>);Sodium metaaluminate;Aluminum sodium oxide (AlNaO<sub>2</sub>);Sodium aluminum oxide (NaAlO<sub>2</sub>);Sodium aluminate;Sodium metaaluminate (NaAlO<sub>2</sub>);Sodium aluminum dioxide;Aluminum sodium dioxide;Aluminum sodium oxide (Al<sub>2</sub>Na<sub>2</sub>O<sub>4</sub>);Sodium aluminate (Na<sub>2</sub>Al<sub>2</sub>O<sub>4</sub>);Kitakurito 10;Fimar A 2527;P 100;SAX 220;Gilunal A",
    "duplicated_cas_no": "7758-17-0;12393-50-9;12598-12-8;162264-71-3;180395-80-6;1228935-67-8;1424805-45-7;1424809-08-4;2378116-02-8",
    "SMILES": "[Al-](=O)=O.[Na+]",
    "meta_data": {
        "InChI": "InChI=1S/Al.Na.2O/q-1;+1;;",
        "InChIKey": null,
        "Canonical SMILES": "[Na+].O=[Al-]=O",
        "Molecular Formula": "AlO<sub>2</sub>.Na",
        "Molecular Mass": "",
        "Melting Point": "1650 °C",
        "Density": "1.5 g/cm³"
    }
}