{
    "cas_no": "868-54-2",
    "key_name": "2-Amino-1-propene-1,1,3-tricarbonitrile",
    "cn_name": "2-氨基-1,1,3-三氰基-1-丙烯;2-氨基-1-丙烯基-1,1,3-三甲腈;2-氨基-1-丙烯-1,1,3-三碳腈;",
    "alternate_name": "1-Propene-1,1,3-tricarbonitrile, 2-amino-;2-Amino-1-propene-1,1,3-tricarbonitrile;U 9189;2-Amino-1,1,3-tricyanopropene;2-Amino-1,1,3-tricyano-1-propene;TCAP;TRIAP;1,1,3-Tricyano-2-aminopropene;1,1,3-Tricyano-2-amino-1-propene;Upjohn 9189;Malononitrile, dimer;(1-Amino-2-cyanoethylidene)malononitrile;NSC 77901;2-Amino-1,1,3-propenetricarbonitrile",
    "duplicated_cas_no": "100032-66-4;112752-99-5;135345-20-9",
    "SMILES": "C(=C(CC#N)N)(C#N)C#N",
    "meta_data": {
        "InChI": "InChI=1S/C6H4N4/c7-2-1-6(10)5(3-8)4-9/h1,10H2",
        "InChIKey": null,
        "Canonical SMILES": "N#CC(C#N)=C(N)CC#N",
        "Molecular Formula": "C<sub>6</sub>H<sub>4</sub>N<sub>4</sub>",
        "Molecular Mass": "132.12",
        "Melting Point": "170-173 °C"
    }
}