{
    "cas_no": "26250-90-8",
    "key_name": "α-[[[(1,1-Dimethylethoxy)carbonyl]amino]methyl]benzenepropanoic acid",
    "cn_name": "2-苄基-3-叔丁氧羰基氨基丙酸;",
    "alternate_name": "Benzenepropanoic acid, α-[[[(1,1-dimethylethoxy)carbonyl]amino]methyl]-;Hydrocinnamic acid, α-[(carboxyamino)methyl]-, <em>N</em>-<em>tert</em>-butyl ester, <span class=\"text-smallcaps\">DL</span>-;α-[[[(1,1-Dimethylethoxy)carbonyl]amino]methyl]benzenepropanoic acid;2-Benzyl-3-[(<em>tert</em>-butoxycarbonyl)amino]propanoic acid;3-[[[(1,1-Dimethylethyl)oxy]carbonyl]amino]-2-(phenylmethyl)propanoic acid",
    "duplicated_cas_no": "",
    "SMILES": "C(C(CNC(OC(C)(C)C)=O)C(O)=O)C1=CC=CC=C1",
    "meta_data": {
        "InChI": "InChI=1S/C15H21NO4/c1-15(2,3)20-14(19)16-10-12(13(17)18)9-11-7-5-4-6-8-11/h4-8,12H,9-10H2,1-3H3,(H,16,19)(H,17,18)",
        "InChIKey": null,
        "Canonical SMILES": "O=C(OC(C)(C)C)NCC(C(=O)O)CC=1C=CC=CC1",
        "Molecular Formula": "C<sub>15</sub>H<sub>21</sub>NO<sub>4</sub>",
        "Molecular Mass": "279.33",
        "Melting Point": "74 °C"
    }
}