{
    "cas_no": "3392-08-3",
    "key_name": "<span class=\"text-smallcaps\">L</span>-Isoleucine, <em>N</em>-[(1,1-dimethylethoxy)carbonyl]-, 2,5-dioxo-1-pyrrolidinyl ester",
    "cn_name": null,
    "alternate_name": "<span class=\"text-smallcaps\">L</span>-Isoleucine, <em>N</em>-[(1,1-dimethylethoxy)carbonyl]-, 2,5-dioxo-1-pyrrolidinyl ester;Succinimide, <em>N</em>-[(<em>N</em>-carboxy-<span class=\"text-smallcaps\">L</span>-isoleucyl)oxy]-, <em>tert</em>-butyl ester;Carbamic acid, [1-[[(2,5-dioxo-1-pyrrolidinyl)oxy]carbonyl]-2-methylbutyl]-, 1,1-dimethylethyl ester, [<em>S</em>-(<em>R</em>*,<em>R</em>*)]-;Carbamic acid, [(1<em>S</em>,2<em>S</em>)-1-[[(2,5-dioxo-1-pyrrolidinyl)oxy]carbonyl]-2-methylbutyl]-, 1,1-dimethylethyl ester;<span class=\"text-smallcaps\">L</span>-Isoleucine, 2,5-pyrrolidinedione deriv.;<em>N</em>-(<em>tert</em>-Butyloxycarbonyl)-<span class=\"text-smallcaps\">L</span>-isoleucine <em>N</em>-hydroxysuccinimide ester;<em>N</em>-(<em>tert</em>-Butoxycarbonyl)-<span class=\"text-smallcaps\">L</span>-isoleucine succinimide ester;2,5-Pyrrolidinedione, 1-[[<em>N</em>-[(1,1-dimethylethoxy)carbonyl]-<span class=\"text-smallcaps\">L</span>-isoleucyl]oxy]-;NSC 334339;33: PN: US20070066537 PAGE: 12 claimed protein",
    "duplicated_cas_no": "",
    "SMILES": "O(C([C@@H](NC(OC(C)(C)C)=O)[C@H](CC)C)=O)N1C(=O)CCC1=O",
    "meta_data": {
        "InChI": "InChI=1S/C15H24N2O6/c1-6-9(2)12(16-14(21)22-15(3,4)5)13(20)23-17-10(18)7-8-11(17)19/h9,12H,6-8H2,1-5H3,(H,16,21)/t9-,12-/m0/s1",
        "InChIKey": null,
        "Canonical SMILES": "O=C(OC(C)(C)C)NC(C(=O)ON1C(=O)CCC1=O)C(C)CC",
        "Molecular Formula": "C<sub>15</sub>H<sub>24</sub>N<sub>2</sub>O<sub>6</sub>",
        "Molecular Mass": "328.36",
        "Melting Point": "92-93 °C"
    }
}