{
    "cas_no": "5344-88-7",
    "key_name": "1,2-Diphenyl-1,2-ethanedione 1-hydrazone",
    "cn_name": "苯偶酰腙;苯偶酰一腙;",
    "alternate_name": "1,2-Ethanedione, 1,2-diphenyl-, 1-hydrazone;Benzil, monohydrazone;Ethanedione, diphenyl-, monohydrazone;Benzil, hydrazone;1,2-Diphenyl-1,2-ethanedione 1-hydrazone;NSC 1171;NSC 5323;2-Hydrazinylidene-1,2-diphenylethanone",
    "duplicated_cas_no": "823182-17-8;1081818-79-2",
    "SMILES": "C(C(=O)C1=CC=CC=C1)(=NN)C2=CC=CC=C2",
    "meta_data": {
        "InChI": "InChI=1S/C14H12N2O/c15-16-13(11-7-3-1-4-8-11)14(17)12-9-5-2-6-10-12/h1-10H,15H2",
        "InChIKey": null,
        "Canonical SMILES": "O=C(C=1C=CC=CC1)C(=NN)C=2C=CC=CC2",
        "Molecular Formula": "C<sub>14</sub>H<sub>12</sub>N<sub>2</sub>O",
        "Molecular Mass": "224.26",
        "Melting Point": "151 °C"
    }
}