{
    "cas_no": "31645-39-3",
    "key_name": "<em>N</em>,<em>N</em>′-Bis(2-chloroethyl)phosphorodiamidic acid",
    "cn_name": "帕利伐米;N,N\"-双(2-氯乙基)二氨基膦酸;",
    "alternate_name": "Phosphorodiamidic acid, <em>N</em>,<em>N</em>′-bis(2-chloroethyl)-;<em>N</em>,<em>N</em>′-Bis(2-chloroethyl)phosphorodiamidic acid;<em>N</em><sup>1</sup>,<em>N</em><sup>2</sup>-Bis(2-chloroethyl)phosphoric acid diamide;<em>N</em>,<em>N</em>′-Di(2-chloroethyl)phosphorodiamidic acid;Isophosphoramide mustard;Ifosfamide mustard;NSC 297900;ZIO 201;IPM;Palifosfamide",
    "duplicated_cas_no": "131636-51-6",
    "SMILES": "P(NCCCl)(NCCCl)(=O)O",
    "meta_data": {
        "InChI": "InChI=1S/C4H11Cl2N2O2P/c5-1-3-7-11(9,10)8-4-2-6/h1-4H2,(H3,7,8,9,10)",
        "InChIKey": null,
        "Canonical SMILES": "O=P(O)(NCCCl)NCCCl",
        "Molecular Formula": "C<sub>4</sub>H<sub>11</sub>Cl<sub>2</sub>N<sub>2</sub>O<sub>2</sub>P",
        "Molecular Mass": "221.02",
        "Melting Point": "106-107 °C"
    }
}