{
    "cas_no": "574-12-9",
    "key_name": "Isoflavone",
    "cn_name": "异黄酮;3-苯基-4H-1-苯并呋喃-4-酮;",
    "alternate_name": "4<em>H</em>-1-Benzopyran-4-one, 3-phenyl-;Isoflavone;3-Phenyl-4<em>H</em>-1-benzopyran-4-one;3-Phenylchromone;Isoflavone 80;NSC 135405;3-Phenyl-4-chromone;Isoflavone 20;3-Phenyl-4<em>H</em>-chromen-4-one;3-Phenylchromen-4-one",
    "duplicated_cas_no": "",
    "SMILES": "O=C1C(=COC=2C1=CC=CC2)C3=CC=CC=C3",
    "meta_data": {
        "InChI": "InChI=1S/C15H10O2/c16-15-12-8-4-5-9-14(12)17-10-13(15)11-6-2-1-3-7-11/h1-10H",
        "InChIKey": null,
        "Canonical SMILES": "O=C1C(=COC=2C=CC=CC21)C=3C=CC=CC3",
        "Molecular Formula": "C<sub>15</sub>H<sub>10</sub>O<sub>2</sub>",
        "Molecular Mass": "222.24",
        "Melting Point": "132 °C"
    }
}