{
    "cas_no": "1948-48-7",
    "key_name": "3-Aminopentanedioic acid",
    "cn_name": null,
    "alternate_name": "Pentanedioic acid, 3-amino-;Glutaric acid, 3-amino-;3-Aminopentanedioic acid;β-Glutamic acid;3-Aminoglutaric acid;β-Aminoglutaric acid;NSC 341646",
    "duplicated_cas_no": "",
    "SMILES": "C(C(CC(O)=O)N)C(O)=O",
    "meta_data": {
        "InChI": "InChI=1S/C5H9NO4/c6-3(1-4(7)8)2-5(9)10/h3H,1-2,6H2,(H,7,8)(H,9,10)",
        "InChIKey": null,
        "Canonical SMILES": "O=C(O)CC(N)CC(=O)O",
        "Molecular Formula": "C<sub>5</sub>H<sub>9</sub>NO<sub>4</sub>",
        "Molecular Mass": "147.13",
        "Melting Point": "268-272 °C (decomp)"
    }
}