{
    "cas_no": "52697-38-8",
    "key_name": "<em>N</em>-[2-[2-(2-Bromo-4,6-dinitrophenyl)diazenyl]-5-(diethylamino)phenyl]acetamide",
    "cn_name": "分散紫93;N-[2-[(2-溴-4,6-二硝基苯基)偶氮]-5-(二乙氨基)苯基]乙酰胺;",
    "alternate_name": "Acetamide, <em>N</em>-[2-[2-(2-bromo-4,6-dinitrophenyl)diazenyl]-5-(diethylamino)phenyl]-;Acetamide, <em>N</em>-[2-[(2-bromo-4,6-dinitrophenyl)azo]-5-(diethylamino)phenyl]-;<em>N</em>-[2-[2-(2-Bromo-4,6-dinitrophenyl)diazenyl]-5-(diethylamino)phenyl]acetamide;Disperse Violet CW",
    "duplicated_cas_no": "",
    "SMILES": "N(=NC1=C(NC(C)=O)C=C(N(CC)CC)C=C1)C2=C(N(=O)=O)C=C(N(=O)=O)C=C2Br",
    "meta_data": {
        "InChI": "InChI=1S/C18H19BrN6O5/c1-4-23(5-2)12-6-7-15(16(9-12)20-11(3)26)21-22-18-14(19)8-13(24(27)28)10-17(18)25(29)30/h6-10H,4-5H2,1-3H3,(H,20,26)",
        "InChIKey": null,
        "Canonical SMILES": "O=C(NC1=CC(=CC=C1N=NC2=C(Br)C=C(C=C2N(=O)=O)N(=O)=O)N(CC)CC)C",
        "Molecular Formula": "C<sub>18</sub>H<sub>19</sub>BrN<sub>6</sub>O<sub>5</sub>",
        "Molecular Mass": "479.28",
        "Melting Point": "184-186 °C"
    }
}