{
    "cas_no": "420-56-4",
    "key_name": "Fluorotrimethylsilane",
    "cn_name": "三甲基氟硅烷;",
    "alternate_name": "Silane, fluorotrimethyl-;Fluorotrimethylsilane;Trimethylfluorosilane;Trimethylsilicon fluoride;Trimethylsilyl fluoride",
    "duplicated_cas_no": "",
    "SMILES": "[Si](C)(C)(C)F",
    "meta_data": {
        "InChI": "InChI=1S/C3H9FSi/c1-5(2,3)4/h1-3H3",
        "InChIKey": null,
        "Canonical SMILES": "F[Si](C)(C)C",
        "Molecular Formula": "C<sub>3</sub>H<sub>9</sub>FSi",
        "Molecular Mass": "92.19",
        "Boiling Point": "16-18 °C",
        "Melting Point": "-74 °C",
        "Density": "0.793 g/cm³ @ Temp: 0 °C"
    }
}