{
    "cas_no": "13631-21-5",
    "key_name": "4-Bromo-3-chlorophenol",
    "cn_name": "4-溴-3-氯酚;4-溴-3-氯苯酚;",
    "alternate_name": "Phenol, 4-bromo-3-chloro-;4-Bromo-3-chlorophenol;3-Chloro-4-bromophenol",
    "duplicated_cas_no": "",
    "SMILES": "ClC1=C(Br)C=CC(O)=C1",
    "meta_data": {
        "InChI": "InChI=1S/C6H4BrClO/c7-5-2-1-4(9)3-6(5)8/h1-3,9H",
        "InChIKey": null,
        "Canonical SMILES": "ClC1=CC(O)=CC=C1Br",
        "Molecular Formula": "C<sub>6</sub>H<sub>4</sub>BrClO",
        "Molecular Mass": "207.45",
        "Melting Point": "63 °C"
    }
}