{
    "cas_no": "105-55-5",
    "key_name": "<em>N</em>,<em>N</em>′-Diethylthiourea",
    "cn_name": "1,3-二乙基硫脲;",
    "alternate_name": "Thiourea, <em>N</em>,<em>N</em>′-diethyl-;Urea, 1,3-diethyl-2-thio-;<em>N</em>,<em>N</em>′-Diethylthiourea;1,3-Diethylthiourea;1,3-Diethyl-2-thiourea;Pennzone E;U 15030;<em>N</em>,<em>N</em>′-Diethylthiocarbamide;Thiate H;Accel EUR;Nocceler EUR;NSC 3507;Robac DETU;Rhenogran DETU;Sanceler EUR;Diethylthiourea;Accelerator DETU;Accelerator EUR;Rhenogran DETU 80",
    "duplicated_cas_no": "27598-95-4",
    "SMILES": "C(NCC)(NCC)=S",
    "meta_data": {
        "InChI": "InChI=1S/C5H12N2S/c1-3-6-5(8)7-4-2/h3-4H2,1-2H3,(H2,6,7,8)",
        "InChIKey": null,
        "Canonical SMILES": "S=C(NCC)NCC",
        "Molecular Formula": "C<sub>5</sub>H<sub>12</sub>N<sub>2</sub>S",
        "Molecular Mass": "132.23",
        "Melting Point": "68-71 °C"
    }
}