{
    "cas_no": "38092-89-6",
    "key_name": "<em>N</em>-Methyldesloratadine",
    "cn_name": "8-氯-6,11-二氢-11-(1-甲基-4-哌啶叉)-5H-苯并[5,6]环庚烷[1,2-b]吡啶;",
    "alternate_name": "5<em>H</em>-Benzo[5,6]cyclohepta[1,2-<em>b</em>]pyridine, 8-chloro-6,11-dihydro-11-(1-methyl-4-piperidinylidene)-;8-Chloro-6,11-dihydro-11-(1-methyl-4-piperidinylidene)-5<em>H</em>-benzo[5,6]cyclohepta[1,2-<em>b</em>]pyridine;<em>N</em>-Methyldesloratadine",
    "duplicated_cas_no": "",
    "SMILES": "ClC=1C=C2C(C(C=3C(CC2)=CC=CN3)=C4CCN(C)CC4)=CC1",
    "meta_data": {
        "InChI": "InChI=1S/C20H21ClN2/c1-23-11-8-14(9-12-23)19-18-7-6-17(21)13-16(18)5-4-15-3-2-10-22-20(15)19/h2-3,6-7,10,13H,4-5,8-9,11-12H2,1H3",
        "InChIKey": null,
        "Canonical SMILES": "ClC=1C=CC2=C(C1)CCC=3C=CC=NC3C2=C4CCN(C)CC4",
        "Molecular Formula": "C<sub>20</sub>H<sub>21</sub>ClN<sub>2</sub>",
        "Molecular Mass": "324.85",
        "Melting Point": "116-119 °C"
    }
}