{
    "cas_no": "2219-51-4",
    "key_name": "1,2-Ethane-<em>1</em>,<em>1</em>,<em>2</em>,<em>2</em>-<em>d</em><sub>4</sub>-diol",
    "cn_name": "乙烯-d4乙二醇;",
    "alternate_name": "1,2-Ethane-<em>1</em>,<em>1</em>,<em>2</em>,<em>2</em>-<em>d</em><sub>4</sub>-diol;Ethylene-<em>d</em><sub>4</sub> glycol;Ethylene-<em>1</em>,<em>1</em>,<em>2</em>,<em>2</em>-<em>d</em><sub>4</sub> glycol;1,2-Ethane-<em>d</em><sub>4</sub>-diol;Perdeuterated ethylene glycol",
    "duplicated_cas_no": "",
    "SMILES": "C(C(O)([2H])[2H])(O)([2H])[2H]",
    "meta_data": {
        "InChI": "InChI=1S/C2H6O2/c3-1-2-4/h3-4H,1-2H2/i1D2,2D2",
        "InChIKey": null,
        "Canonical SMILES": "OCCO",
        "Molecular Formula": "C<sub>2</sub>H<sub>2</sub>D<sub>4</sub>O<sub>2</sub>",
        "Molecular Mass": "",
        "Boiling Point": "86-87 °C @ Press: 8 Torr",
        "Density": "1.1894 g/cm³ @ Temp: 20 °C"
    }
}