{
    "cas_no": "117391-53-4",
    "key_name": "β-Amino-4-(1-methylethyl)benzenepropanoic acid",
    "cn_name": "3-氨基-3-(4-异丙基苯基)丙酸;",
    "alternate_name": "Benzenepropanoic acid, β-amino-4-(1-methylethyl)-;β-Amino-4-(1-methylethyl)benzenepropanoic acid;3-Amino-3-[4-(propan-2-yl)phenyl]propanoic acid;3-Amino-3-(4-isopropyl-phenyl)-propionic acid;3-Amino-3-(4-isopropylphenyl)propanoic acid;3-Amino-3-(4-propan-2-ylphenyl)propanoic acid",
    "duplicated_cas_no": "",
    "SMILES": "C(CC(O)=O)(N)C1=CC=C(C(C)C)C=C1",
    "meta_data": {
        "InChI": "InChI=1S/C12H17NO2/c1-8(2)9-3-5-10(6-4-9)11(13)7-12(14)15/h3-6,8,11H,7,13H2,1-2H3,(H,14,15)",
        "InChIKey": null,
        "Canonical SMILES": "O=C(O)CC(N)C1=CC=C(C=C1)C(C)C",
        "Molecular Formula": "C<sub>12</sub>H<sub>17</sub>NO<sub>2</sub>",
        "Molecular Mass": "207.27",
        "Melting Point": "243.1-243.4 °C"
    }
}