{
    "cas_no": "91-48-5",
    "key_name": "(<em>E</em>)-α-Phenylcinnamic acid",
    "cn_name": "α-苯基肉桂酸;",
    "alternate_name": "Benzeneacetic acid, α-(phenylmethylene)-, (α<em>E</em>)-;Acrylic acid, 2,3-diphenyl-, (<em>E</em>)-;Benzeneacetic acid, α-(phenylmethylene)-, (<em>E</em>)-;Acrylic acid, 2,3-diphenyl-, <em>trans</em>-;(α<em>E</em>)-α-(Phenylmethylene)benzeneacetic acid;<em>trans</em>-2,3-Diphenylacrylic acid;<em>trans</em>-2,3-Diphenylpropenoic acid;<em>trans</em>-α-Phenylcinnamic acid;(<em>E</em>)-α-Stilbenecarboxylic acid;(<em>E</em>)-2,3-Diphenylpropenoic acid;(<em>E</em>)-α-(Phenylmethylene)benzeneacetic acid;(<em>E</em>)-α-Phenylcinnamic acid;(<em>E</em>)-2,3-Diphenyl-2-propenoic acid;(<em>E</em>)-2,3-Diphenylacrylic acid;<em>trans</em>-2,3-Diphenyl-2-propenoic acid;(E)-2,3-Diphenylacrylic acid",
    "duplicated_cas_no": "2699-90-3",
    "SMILES": "C(=C/C1=CC=CC=C1)(\\C(O)=O)/C2=CC=CC=C2",
    "meta_data": {
        "InChI": "InChI=1S/C15H12O2/c16-15(17)14(13-9-5-2-6-10-13)11-12-7-3-1-4-8-12/h1-11H,(H,16,17)/b14-11+",
        "InChIKey": null,
        "Canonical SMILES": "O=C(O)C(=CC=1C=CC=CC1)C=2C=CC=CC2",
        "Molecular Formula": "C<sub>15</sub>H<sub>12</sub>O<sub>2</sub>",
        "Molecular Mass": "224.25",
        "Melting Point": "170 °C"
    }
}