{
    "cas_no": "10516-71-9",
    "key_name": "3-(3-Methoxyphenyl)propionic acid",
    "cn_name": "3-(3-甲氧基苯基)丙酸;",
    "alternate_name": "Benzenepropanoic acid, 3-methoxy-;Hydrocinnamic acid, <em>m</em>-methoxy-;3-Methoxybenzenepropanoic acid;3-(<em>m</em>-Methoxyphenyl)propionic acid;<em>m</em>-Methoxyhydrocinnamic acid;3-Methoxybenzenepropionic acid;3-Methoxydihydrocinnamic acid;3-(3-Methoxyphenyl)propanoic acid;3-(3-Methoxyphenyl)propionic acid;NSC 78456",
    "duplicated_cas_no": "",
    "SMILES": "C(CC(O)=O)C1=CC(OC)=CC=C1",
    "meta_data": {
        "InChI": "InChI=1S/C10H12O3/c1-13-9-4-2-3-8(7-9)5-6-10(11)12/h2-4,7H,5-6H2,1H3,(H,11,12)",
        "InChIKey": null,
        "Canonical SMILES": "O=C(O)CCC=1C=CC=C(OC)C1",
        "Molecular Formula": "C<sub>10</sub>H<sub>12</sub>O<sub>3</sub>",
        "Molecular Mass": "180.20",
        "Melting Point": "48-49 °C"
    }
}