{
    "cas_no": "49674-15-9",
    "key_name": "3-Bromo-5-nitrobenzonitrile",
    "cn_name": "3-溴-5-硝基苯腈;",
    "alternate_name": "Benzonitrile, 3-bromo-5-nitro-;3-Bromo-5-nitrobenzonitrile;3-Nitro-5-bromobenzonitrile",
    "duplicated_cas_no": "",
    "SMILES": "N(=O)(=O)C1=CC(C#N)=CC(Br)=C1",
    "meta_data": {
        "InChI": "InChI=1S/C7H3BrN2O2/c8-6-1-5(4-9)2-7(3-6)10(11)12/h1-3H",
        "InChIKey": null,
        "Canonical SMILES": "N#CC1=CC(Br)=CC(=C1)N(=O)=O",
        "Molecular Formula": "C<sub>7</sub>H<sub>3</sub>BrN<sub>2</sub>O<sub>2</sub>",
        "Molecular Mass": "227.01",
        "Melting Point": "84-85 °C"
    }
}