{
    "cas_no": "4250-38-8",
    "key_name": "Nonacosanoic acid",
    "cn_name": null,
    "alternate_name": "Nonacosanoic acid;<em>n</em>-Nonacosanoic acid",
    "duplicated_cas_no": "",
    "SMILES": "C(CCCCCCCCCCCCCCCCCCC)CCCCCCCCC(O)=O",
    "meta_data": {
        "InChI": "InChI=1S/C29H58O2/c1-2-3-4-5-6-7-8-9-10-11-12-13-14-15-16-17-18-19-20-21-22-23-24-25-26-27-28-29(30)31/h2-28H2,1H3,(H,30,31)",
        "InChIKey": null,
        "Canonical SMILES": "O=C(O)CCCCCCCCCCCCCCCCCCCCCCCCCCCC",
        "Molecular Formula": "C<sub>29</sub>H<sub>58</sub>O<sub>2</sub>",
        "Molecular Mass": "438.77",
        "Melting Point": "90.1-90.4 °C"
    }
}