{
    "cas_no": "156463-85-3",
    "key_name": "3-Amino-4-cyanofurazan",
    "cn_name": null,
    "alternate_name": "1,2,5-Oxadiazole-3-carbonitrile, 4-amino-;4-Amino-1,2,5-oxadiazole-3-carbonitrile;3-Amino-1,2,5-oxadiazole-4-carbonitrile;3-Amino-4-cyano-1,2,5-oxadiazole;3-Amino-4-cyanofurazan;4-Aminofurazan-3-carbonitrile",
    "duplicated_cas_no": "",
    "SMILES": "C(#N)C=1C(N)=NON1",
    "meta_data": {
        "InChI": "InChI=1S/C3H2N4O/c4-1-2-3(5)7-8-6-2/h(H2,5,7)",
        "InChIKey": null,
        "Canonical SMILES": "N#CC1=NON=C1N",
        "Molecular Formula": "C<sub>3</sub>H<sub>2</sub>N<sub>4</sub>O",
        "Molecular Mass": "110.07",
        "Melting Point": "85-87 °C"
    }
}