{
    "cas_no": "963-14-4",
    "key_name": "Sulfaethoxypyridazine",
    "cn_name": null,
    "alternate_name": "Benzenesulfonamide, 4-amino-<em>N</em>-(6-ethoxy-3-pyridazinyl)-;Sulfanilamide, <em>N</em><sup>1</sup>-(6-ethoxy-3-pyridazinyl)-;Sulfanilamide, N1-(6-ethoxy-3-pyridazinyl)-;4-Amino-<em>N</em>-(6-ethoxy-3-pyridazinyl)benzenesulfonamide;Sulfaethoxypyridazine;Sulfanilamido-6-ethoxy-3-pyridazine;Cysul",
    "duplicated_cas_no": "",
    "SMILES": "S(NC1=CC=C(OCC)N=N1)(=O)(=O)C2=CC=C(N)C=C2",
    "meta_data": {
        "InChI": "InChI=1S/C12H14N4O3S/c1-2-19-12-8-7-11(14-15-12)16-20(17,18)10-5-3-9(13)4-6-10/h3-8H,2,13H2,1H3,(H,14,16)",
        "InChIKey": null,
        "Canonical SMILES": "O=S(=O)(NC1=NN=C(OCC)C=C1)C2=CC=C(N)C=C2",
        "Molecular Formula": "C<sub>12</sub>H<sub>14</sub>N<sub>4</sub>O<sub>3</sub>S",
        "Molecular Mass": "294.33",
        "Melting Point": "183 °C"
    }
}