{
    "cas_no": "18227-41-3",
    "key_name": "Propylhydantoin",
    "cn_name": "5-正丙基乙内酰脲;",
    "alternate_name": "2,4-Imidazolidinedione, 5-propyl-;Hydantoin, 5-propyl-;5-Propyl-2,4-imidazolidinedione;Propylhydantoin;5-Propylhydantoin",
    "duplicated_cas_no": "77733-34-7",
    "SMILES": "C(CC)C1C(=O)NC(=O)N1",
    "meta_data": {
        "InChI": "InChI=1S/C6H10N2O2/c1-2-3-4-5(9)8-6(10)7-4/h4H,2-3H2,1H3,(H2,7,8,9,10)",
        "InChIKey": null,
        "Canonical SMILES": "O=C1NC(=O)C(N1)CCC",
        "Molecular Formula": "C<sub>6</sub>H<sub>10</sub>N<sub>2</sub>O<sub>2</sub>",
        "Molecular Mass": "142.16",
        "Melting Point": "134-136 °C"
    }
}