{
    "cas_no": "31508-00-6",
    "key_name": "PCB 118",
    "cn_name": null,
    "alternate_name": "1,1′-Biphenyl, 2,3′,4,4′,5-pentachloro-;Biphenyl, 2,3′,4,4′,5-pentachloro-;2,3′,4,4′,5-Pentachloro-1,1′-biphenyl;2,3′,4,4′,5-Pentachlorobiphenyl;3,4,2′,4′,5′-Pentachlorobiphenyl;2,4,5,3′,4′-Pentachlorobiphenyl;PCB 118;CB 118;2,3′,4,4′,5-PeCB;CDE-99",
    "duplicated_cas_no": "",
    "SMILES": "ClC1=C(C2=CC(Cl)=C(Cl)C=C2)C=C(Cl)C(Cl)=C1",
    "meta_data": {
        "InChI": "InChI=1S/C12H5Cl5/c13-8-2-1-6(3-10(8)15)7-4-11(16)12(17)5-9(7)14/h1-5H",
        "InChIKey": null,
        "Canonical SMILES": "ClC=1C=CC(=CC1Cl)C2=CC(Cl)=C(Cl)C=C2Cl",
        "Molecular Formula": "C<sub>12</sub>H<sub>5</sub>Cl<sub>5</sub>",
        "Molecular Mass": "326.43",
        "Boiling Point": "195-220 °C",
        "Melting Point": "111 °C",
        "Density": "1.5 g/cm³ @ Temp: 65 °C"
    }
}