{
    "cas_no": "886-74-8",
    "key_name": "Chlorphenesin carbamate",
    "cn_name": "氯苯氨酸甘油酯;氯苯氨酸甘油酯;",
    "alternate_name": "1,2-Propanediol, 3-(4-chlorophenoxy)-, 1-carbamate;1,2-Propanediol, 3-(<em>p</em>-chlorophenoxy)-, 1-carbamate;Carbamic acid, 3-(<em>p</em>-chlorophenoxy)-2-hydroxypropyl ester;U-19,646;3-(<em>p</em>-Chlorophenoxy)-2-hydroxypropyl carbamate;3-[<em>p</em>-Chlorophenoxy]-1,2-propanediol-1-carbamate;Chlorphenesin carbamate;Maolate;3-(4-Chlorophenoxy)-2-hydroxypropyl carbamate;Rinlaxer;U 19646;NSC 82943;Rhnesicn;OC-201",
    "duplicated_cas_no": "126632-51-7",
    "SMILES": "O(CC(COC(N)=O)O)C1=CC=C(Cl)C=C1",
    "meta_data": {
        "InChI": "InChI=1S/C10H12ClNO4/c11-7-1-3-9(4-2-7)15-5-8(13)6-16-10(12)14/h1-4,8,13H,5-6H2,(H2,12,14)",
        "InChIKey": null,
        "Canonical SMILES": "O=C(OCC(O)COC1=CC=C(Cl)C=C1)N",
        "Molecular Formula": "C<sub>10</sub>H<sub>12</sub>ClNO<sub>4</sub>",
        "Molecular Mass": "245.66",
        "Melting Point": "89-91 °C"
    }
}