{
    "cas_no": "594-68-3",
    "key_name": "2,2,2-Triiodoacetic acid",
    "cn_name": "三碘乙酸;",
    "alternate_name": "Acetic acid, 2,2,2-triiodo-;Acetic acid, triiodo-;2,2,2-Triiodoacetic acid;Triiodoacetic acid;Triiododoacetic acid",
    "duplicated_cas_no": "",
    "SMILES": "C(C(O)=O)(I)(I)I",
    "meta_data": {
        "InChI": "InChI=1S/C2HI3O2/c3-2(4,5)1(6)7/h(H,6,7)",
        "InChIKey": null,
        "Canonical SMILES": "O=C(O)C(I)(I)I",
        "Molecular Formula": "C<sub>2</sub>HI<sub>3</sub>O<sub>2</sub>",
        "Molecular Mass": "437.74",
        "Melting Point": "150 °C (decomp)"
    }
}