{
    "cas_no": "479-33-4",
    "key_name": "2,3,4,5-Tetraphenyl-2,4-cyclopentadien-1-one",
    "cn_name": null,
    "alternate_name": "2,4-Cyclopentadien-1-one, 2,3,4,5-tetraphenyl-;Cyclopentadienone, tetraphenyl-;2,3,4,5-Tetraphenyl-2,4-cyclopentadien-1-one;Tetracyclone;Cyclone (compound);Tetraphenylcyclopentadienone;Tetraphenyl-2,4-cyclopentadien-1-one;2,3,4,5-Tetraphenylcyclopentadienone;Cyclone;Tetracyclon;2,3,4,5-Tetraphenylcyclopenta-2,4-dienone;NSC 2060;NSC 220314;NSC 243761",
    "duplicated_cas_no": "56195-73-4",
    "SMILES": "O=C1C(=C(C(=C1C2=CC=CC=C2)C3=CC=CC=C3)C4=CC=CC=C4)C5=CC=CC=C5",
    "meta_data": {
        "InChI": "InChI=1S/C29H20O/c30-29-27(23-17-9-3-10-18-23)25(21-13-5-1-6-14-21)26(22-15-7-2-8-16-22)28(29)24-19-11-4-12-20-24/h1-20H",
        "InChIKey": null,
        "Canonical SMILES": "O=C1C(C=2C=CC=CC2)=C(C=3C=CC=CC3)C(C=4C=CC=CC4)=C1C=5C=CC=CC5",
        "Molecular Formula": "C<sub>29</sub>H<sub>20</sub>O",
        "Molecular Mass": "384.47",
        "Melting Point": "217-218 °C"
    }
}