{
    "cas_no": "22972-51-6",
    "key_name": "(1<em>S</em>,4<em>R</em>)-1-Methyl-4-(1-methylethenyl)-2-cyclohexen-1-ol",
    "cn_name": null,
    "alternate_name": "2-Cyclohexen-1-ol, 1-methyl-4-(1-methylethenyl)-, (1<em>S</em>,4<em>R</em>)-;<em>p</em>-Mentha-2,8-dien-1-ol, stereoisomer;2-Cyclohexen-1-ol, 1-methyl-4-(1-methylethenyl)-, (1<em>S</em>-<em>cis</em>)-;(1<em>S</em>,4<em>R</em>)-1-Methyl-4-(1-methylethenyl)-2-cyclohexen-1-ol;<em>cis</em>-Isolimonenol;<em>p</em>-Mentha-2,8-dien-1-β-ol;(+)-<em>cis</em>-<em>p</em>-Mentha-2,8-dien-1-ol;(+)-(1<em>S</em>,4<em>R</em>)-<em>p</em>-Mentha-2,8-dien-1-ol;(+)-<em>p</em>-Mentha-2,8-dien-1-ol;(1<em>S</em>,4<em>R</em>)-<em>p</em>-Menth-2,8-dien-1-ol",
    "duplicated_cas_no": "",
    "SMILES": "C(C)(=C)[C@@H]1CC[C@](C)(O)C=C1",
    "meta_data": {
        "InChI": "InChI=1S/C10H16O/c1-8(2)9-4-6-10(3,11)7-5-9/h4,6,9,11H,1,5,7H2,2-3H3/t9-,10+/m0/s1",
        "InChIKey": null,
        "Canonical SMILES": "OC1(C=CC(C(=C)C)CC1)C",
        "Molecular Formula": "C<sub>10</sub>H<sub>16</sub>O",
        "Molecular Mass": "152.23",
        "Boiling Point": "69-70 °C @ Press: 3 Torr",
        "Density": "0.9380 g/cm³ @ Temp: 20 °C"
    }
}