{
    "cas_no": "1454-53-1",
    "key_name": "3-Piperidinecarboxylic acid, 4-oxo-1-(phenylmethyl)-, ethyl ester, hydrochloride (1:1)",
    "cn_name": "1-苄基-3-乙氧羰基-4-哌啶酮盐酸盐;",
    "alternate_name": "3-Piperidinecarboxylic acid, 4-oxo-1-(phenylmethyl)-, ethyl ester, hydrochloride (1:1);Nipecotic acid, 1-benzyl-4-oxo-, ethyl ester, hydrochloride;3-Piperidinecarboxylic acid, 4-oxo-1-(phenylmethyl)-, ethyl ester, hydrochloride;1-Benzyl-3-(ethoxycarbonyl)-4-piperidone hydrochloride;<em>N</em>-Benzyl-3-carbethoxy-4-piperidone hydrochloride;Ethyl 1-benzyl-4-oxopiperidine-3-carboxylate hydrochloride;NSC 15156;1-Benzyl-4-oxopiperidine-3-carboxylic acid ethyl ester hydrochloride;1-Benzyl-3-carbethoxy-4-piperidone hydrochloride",
    "duplicated_cas_no": "156633-62-4",
    "SMILES": "C(N1CC(C(OCC)=O)C(=O)CC1)C2=CC=CC=C2.Cl",
    "meta_data": {
        "InChI": "InChI=1S/C15H19NO3.ClH/c1-2-19-15(18)13-11-16(9-8-14(13)17)10-12-6-4-3-5-7-12;/h3-7,13H,2,8-11H2,1H3;1H",
        "InChIKey": null,
        "Canonical SMILES": "Cl.O=C(OCC)C1C(=O)CCN(CC=2C=CC=CC2)C1",
        "Molecular Formula": "C<sub>15</sub>H<sub>19</sub>NO<sub>3</sub>.ClH",
        "Molecular Mass": "",
        "Melting Point": "175 °C (decomp)"
    }
}