{
    "cas_no": "4838-65-7",
    "key_name": "1-Hexyl-2-pyrrolidone",
    "cn_name": null,
    "alternate_name": "2-Pyrrolidinone, 1-hexyl-;1-Hexyl-2-pyrrolidinone;<em>N</em>-Hexyl-2-pyrrolidinone;1-<em>n</em>-Hexylazacyclopentan-2-one;1-Hexyl-2-pyrrolidone;<em>N</em>-Hexyl-2-pyrrolidone;<em>N</em>-Hexylbutyrolactam",
    "duplicated_cas_no": "",
    "SMILES": "C(CCCCC)N1C(=O)CCC1",
    "meta_data": {
        "InChI": "InChI=1S/C10H19NO/c1-2-3-4-5-8-11-9-6-7-10(11)12/h2-9H2,1H3",
        "InChIKey": null,
        "Canonical SMILES": "O=C1N(CCC1)CCCCCC",
        "Molecular Formula": "C<sub>10</sub>H<sub>19</sub>NO",
        "Molecular Mass": "169.26",
        "Boiling Point": "87-88 °C @ Press: 0.8 Torr",
        "Melting Point": "4 °C",
        "Density": "0.9311 g/cm³ @ Temp: 20 °C"
    }
}