{
    "cas_no": "2551-62-4",
    "key_name": "Sulfur hexafluoride",
    "cn_name": "六氟化硫;",
    "alternate_name": "Sulfur fluoride (SF<sub>6</sub>), (<em>OC</em>-6-11)-;Sulfur fluoride (SF<sub>6</sub>);Sulfur hexafluoride;Elegas;Sulphur hexafluoride;Hexafluorosulfur;Sulfur fluoride;R 7146;SonoVue;BRI;Lumason;MeSH ID: D013459",
    "duplicated_cas_no": "29267-82-1;36575-03-8;59109-69-2",
    "SMILES": "S(F)(F)(F)(F)(F)F",
    "meta_data": {
        "InChI": "InChI=1S/F6S/c1-7(2,3,4,5)6",
        "InChIKey": null,
        "Canonical SMILES": "FS(F)(F)(F)(F)F",
        "Molecular Formula": "F<sub>6</sub>S",
        "Molecular Mass": "146.06",
        "Boiling Point": "-64 °C",
        "Melting Point": "-50.8 °C",
        "Density": "6.602 x 10<sup>-3</sup> g/cm³"
    }
}