{
    "cas_no": "583-53-9",
    "key_name": "1,2-Dibromobenzene",
    "cn_name": "1,2-二溴苯;邻二溴代苯;",
    "alternate_name": "Benzene, 1,2-dibromo-;Benzene, <em>o</em>-dibromo-;1,2-Dibromobenzene;<em>o</em>-Dibromobenzene;NSC 60643",
    "duplicated_cas_no": "",
    "SMILES": "BrC1=C(Br)C=CC=C1",
    "meta_data": {
        "InChI": "InChI=1S/C6H4Br2/c7-5-3-1-2-4-6(5)8/h1-4H",
        "InChIKey": null,
        "Canonical SMILES": "BrC=1C=CC=CC1Br",
        "Molecular Formula": "C<sub>6</sub>H<sub>4</sub>Br<sub>2</sub>",
        "Molecular Mass": "235.90",
        "Boiling Point": "225 °C",
        "Melting Point": "7.1 °C",
        "Density": "1.9940 g/cm³ @ Temp: 11 °C"
    }
}