{
    "cas_no": "628-94-4",
    "key_name": "Hexanediamide",
    "cn_name": "己二酰二胺;己二酰胺;己二酸二酰胺;",
    "alternate_name": "Hexanediamide;Adipamide;1,4-Butanedicarboxamide;Adipic acid diamide;Adipic diamide;Adipic acid amide;NSC 7623",
    "duplicated_cas_no": "",
    "SMILES": "C(CCC(N)=O)CC(N)=O",
    "meta_data": {
        "InChI": "InChI=1S/C6H12N2O2/c7-5(9)3-1-2-4-6(8)10/h1-4H2,(H2,7,9)(H2,8,10)",
        "InChIKey": null,
        "Canonical SMILES": "O=C(N)CCCCC(=O)N",
        "Molecular Formula": "C<sub>6</sub>H<sub>12</sub>N<sub>2</sub>O<sub>2</sub>",
        "Molecular Mass": "144.17",
        "Melting Point": "220 °C",
        "Density": "1.360 g/cm³"
    }
}