{
    "cas_no": "4733-50-0",
    "key_name": "3,6-Dihydroxy-1,2-benzenedicarbonitrile",
    "cn_name": "3,6-二羟基邻苯二甲腈;2,3-二氰基对苯二酚;",
    "alternate_name": "1,2-Benzenedicarbonitrile, 3,6-dihydroxy-;Phthalonitrile, 3,6-dihydroxy-;3,6-Dihydroxy-1,2-benzenedicarbonitrile;2,3-Dicyanohydroquinone;2,3-Dicyano-<em>p</em>-hydroquinone;2,3-Dicyanobenzene-1,4-diol;3,6-Dihydroxyphthalodinitrile;3,6-Dihydroxyphthalonitrile;2,3-Dicyanoquinol;2,3-Dicyano-1,4-dihydroxybenzene;NSC 43554;1,4-Dihydroxy-2,3-dicyanobenzene;2,6-Dihydroxyphthalonitrile",
    "duplicated_cas_no": "",
    "SMILES": "C(#N)C1=C(C#N)C(O)=CC=C1O",
    "meta_data": {
        "InChI": "InChI=1S/C8H4N2O2/c9-3-5-6(4-10)8(12)2-1-7(5)11/h1-2,11-12H",
        "InChIKey": null,
        "Canonical SMILES": "N#CC=1C(O)=CC=C(O)C1C#N",
        "Molecular Formula": "C<sub>8</sub>H<sub>4</sub>N<sub>2</sub>O<sub>2</sub>",
        "Molecular Mass": "160.13",
        "Melting Point": "230 °C (decomp)"
    }
}