{
    "cas_no": "630-04-6",
    "key_name": "Hentriacontane",
    "cn_name": null,
    "alternate_name": "Hentriacontane;<em>n</em>-Hentriacontane;Untriacontane",
    "duplicated_cas_no": "",
    "SMILES": "C(CCCCCCCCCCCCCCC)CCCCCCCCCCCCCCC",
    "meta_data": {
        "InChI": "InChI=1S/C31H64/c1-3-5-7-9-11-13-15-17-19-21-23-25-27-29-31-30-28-26-24-22-20-18-16-14-12-10-8-6-4-2/h3-31H2,1-2H3",
        "InChIKey": null,
        "Canonical SMILES": "CCCCCCCCCCCCCCCCCCCCCCCCCCCCCCC",
        "Molecular Formula": "C<sub>31</sub>H<sub>64</sub>",
        "Molecular Mass": "436.84",
        "Boiling Point": "458 °C",
        "Melting Point": "67.9 °C"
    }
}