{
    "cas_no": "2503-46-0",
    "key_name": "Guaiacylacetone",
    "cn_name": null,
    "alternate_name": "2-Propanone, 1-(4-hydroxy-3-methoxyphenyl)-;2-Propanone, (4-hydroxy-3-methoxyphenyl)-;1-(4-Hydroxy-3-methoxyphenyl)-2-propanone;Guaiacylacetone;Vanillyl methyl ketone;(4-Hydroxy-3-methoxyphenyl)acetone;Methyl vanillyl ketone;2-Propiovanillone;NSC 16690;4-Hydroxy-3-methoxyphenyl-2-propanone",
    "duplicated_cas_no": "280142-99-6",
    "SMILES": "C(C(C)=O)C1=CC(OC)=C(O)C=C1",
    "meta_data": {
        "InChI": "InChI=1S/C10H12O3/c1-7(11)5-8-3-4-9(12)10(6-8)13-2/h3-4,6,12H,5H2,1-2H3",
        "InChIKey": null,
        "Canonical SMILES": "O=C(C)CC1=CC=C(O)C(OC)=C1",
        "Molecular Formula": "C<sub>10</sub>H<sub>12</sub>O<sub>3</sub>",
        "Molecular Mass": "180.20",
        "Boiling Point": "115 °C @ Press: 0.15 Torr"
    }
}