{
    "cas_no": "452-70-0",
    "key_name": "4-Fluoro-3-methylphenol",
    "cn_name": "4-氟-3-甲基苯酚;",
    "alternate_name": "Phenol, 4-fluoro-3-methyl-;<em>m</em>-Cresol, 4-fluoro-;4-Fluoro-3-methylphenol;4-Fluoro-<em>m</em>-cresol;3-Methyl-4-fluorophenol;2-Fluoro-5-hydroxytoluene",
    "duplicated_cas_no": "",
    "SMILES": "CC1=C(F)C=CC(O)=C1",
    "meta_data": {
        "InChI": "InChI=1S/C7H7FO/c1-5-4-6(9)2-3-7(5)8/h2-4,9H,1H3",
        "InChIKey": null,
        "Canonical SMILES": "FC1=CC=C(O)C=C1C",
        "Molecular Formula": "C<sub>7</sub>H<sub>7</sub>FO",
        "Molecular Mass": "126.13",
        "Boiling Point": "98-99 °C @ Press: 12 Torr"
    }
}