{
    "cas_no": "4075-07-4",
    "key_name": "Androsta-4,16-dien-3-one",
    "cn_name": null,
    "alternate_name": "Androsta-4,16-dien-3-one;Δ<sup>4,16</sup>-Androstadien-3-one;Androstadienone;NSC 93234;4,16-Androstadien-3-one",
    "duplicated_cas_no": "",
    "SMILES": "C[C@@]12[C@@]3([C@]([C@]4([C@](C)(CC3)C=CC4)[H])(CCC1=CC(=O)CC2)[H])[H]",
    "meta_data": {
        "InChI": "InChI=1S/C19H26O/c1-18-9-3-4-16(18)15-6-5-13-12-14(20)7-11-19(13,2)17(15)8-10-18/h3,9,12,15-17H,4-8,10-11H2,1-2H3/t15-,16-,17-,18-,19-/m0/s1",
        "InChIKey": null,
        "Canonical SMILES": "O=C1C=C2CCC3C4CC=CC4(C)CCC3C2(C)CC1",
        "Molecular Formula": "C<sub>19</sub>H<sub>26</sub>O",
        "Molecular Mass": "270.41",
        "Melting Point": "131.5-133.5 °C"
    }
}