{
    "cas_no": "2360-45-4",
    "key_name": "2-Propionylbenzoic acid",
    "cn_name": null,
    "alternate_name": "Benzoic acid, 2-(1-oxopropyl)-;Benzoic acid, <em>o</em>-propionyl-;2-(1-Oxopropyl)benzoic acid;2-Propionylbenzoic acid;Propiophenone-2-carboxylic acid;2-(1-Oxopropyl)-1-benzoic acid;2-Propanoylbenzoic acid",
    "duplicated_cas_no": "",
    "SMILES": "C(CC)(=O)C1=C(C(O)=O)C=CC=C1",
    "meta_data": {
        "InChI": "InChI=1S/C10H10O3/c1-2-9(11)7-5-3-4-6-8(7)10(12)13/h3-6H,2H2,1H3,(H,12,13)",
        "InChIKey": null,
        "Canonical SMILES": "O=C(O)C=1C=CC=CC1C(=O)CC",
        "Molecular Formula": "C<sub>10</sub>H<sub>10</sub>O<sub>3</sub>",
        "Molecular Mass": "178.18",
        "Melting Point": "93 °C",
        "Density": "1.1402 g/cm³ @ Temp: 99.1 °C"
    }
}