{
    "cas_no": "482-68-8",
    "key_name": "Sarpagine",
    "cn_name": null,
    "alternate_name": "Sarpagan-10,17-diol;Raupine;Sarpagine;(+)-Sarpagine;Raupin",
    "duplicated_cas_no": "31621-29-1;1079438-91-7;1085561-78-9",
    "SMILES": "C(O)[C@H]1[C@]2([N@@]3[C@](C4=C(C=5C(N4)=CC=C(O)C5)C2)(C[C@]1(/C(=C\\C)/C3)[H])[H])[H]",
    "meta_data": {
        "InChI": "InChI=1S/C19H22N2O2/c1-2-10-8-21-17-7-14-13-5-11(23)3-4-16(13)20-19(14)18(21)6-12(10)15(17)9-22/h2-5,12,15,17-18,20,22-23H,6-9H2,1H3/b10-2-/t12-,15+,17-,18-/m0/s1",
        "InChIKey": null,
        "Canonical SMILES": "OC=1C=CC=2NC3=C(C2C1)CC4N5CC(=CC)C(CC35)C4CO",
        "Molecular Formula": "C<sub>19</sub>H<sub>22</sub>N<sub>2</sub>O<sub>2</sub>",
        "Molecular Mass": "310.39",
        "Melting Point": "325 °C (decomp)"
    }
}