{
    "cas_no": "2380-63-4",
    "key_name": "1<em>H</em>-Pyrazolo[3,4-<em>d</em>]pyrimidin-4-amine",
    "cn_name": "4-氨基吡唑并[3,4-d]嘧啶;",
    "alternate_name": "1<em>H</em>-Pyrazolo[3,4-<em>d</em>]pyrimidin-4-amine;1<em>H</em>-Pyrazolo[3,4-<em>d</em>]pyrimidine, 4-amino-;4-Aminopyrazolo[3,4-<em>d</em>]pyrimidine;4-Amino-1<em>H</em>-pyrazolo[3,4-<em>d</em>]pyrimidine;8-Aza-7-deazaadenine;1<em>H</em>-Pyrazolo[3,4-<em>d</em>]pyrimidin-4-ylamine;NSC 1393;7-Deaza-8-azaadenine;7-Deaza-8-aza-adenine",
    "duplicated_cas_no": "",
    "SMILES": "NC1=C2C(=NC=N1)NN=C2",
    "meta_data": {
        "InChI": "InChI=1S/C5H5N5/c6-4-3-1-9-10-5(3)8-2-7-4/h1-2H,(H3,6,7,8,9,10)",
        "InChIKey": null,
        "Canonical SMILES": "N1=CC=2C(=NC=NC2N1)N",
        "Molecular Formula": "C<sub>5</sub>H<sub>5</sub>N<sub>5</sub>",
        "Molecular Mass": "135.13",
        "Melting Point": "353-356 °C"
    }
}