{
    "cas_no": "84163-13-3",
    "key_name": "6-Fluoro-3-(4-piperidinyl)-1,2-benzisoxazole hydrochloride",
    "cn_name": "6-氟-3-哌啶-4-基-1,2-苯并异噁唑盐酸盐;",
    "alternate_name": "1,2-Benzisoxazole, 6-fluoro-3-(4-piperidinyl)-, hydrochloride (1:1);1,2-Benzisoxazole, 6-fluoro-3-(4-piperidinyl)-, monohydrochloride;4-(6-Fluoro-1,2-benzisoxazol-3-yl)piperidine hydrochloride;6-Fluoro-3-(4-piperidinyl)-1,2-benzisoxazole hydrochloride;6-Fluoro-3-(4-piperidinyl)benzisoxazole hydrochloride;6-Fluoro-3-(piperidin-4-yl)benzo[<em>d</em>]isoxazole hydrochloride;6-Fluoro-3-(piperidinyl-4-yl)-benzisoxazole hydrochloride;6-Fluoro-3-(4-piperidinyl)-1,2-benzisoxazole monohydrochloride",
    "duplicated_cas_no": "",
    "SMILES": "FC=1C=C2C(C(=NO2)C3CCNCC3)=CC1.Cl",
    "meta_data": {
        "InChI": "InChI=1S/C12H13FN2O.ClH/c13-9-1-2-10-11(7-9)16-15-12(10)8-3-5-14-6-4-8;/h1-2,7-8,14H,3-6H2;1H",
        "InChIKey": null,
        "Canonical SMILES": "Cl.FC=1C=CC2=C(ON=C2C3CCNCC3)C1",
        "Molecular Formula": "C<sub>12</sub>H<sub>13</sub>FN<sub>2</sub>O.ClH",
        "Molecular Mass": "",
        "Melting Point": "293-295 °C"
    }
}