{
    "cas_no": "2040-07-5",
    "key_name": "1-(2,4,5-Trimethylphenyl)ethanone",
    "cn_name": null,
    "alternate_name": "Ethanone, 1-(2,4,5-trimethylphenyl)-;Acetophenone, 2′,4′,5′-trimethyl-;1-(2,4,5-Trimethylphenyl)ethanone;2′,4′,5′-Trimethylacetophenone;2,4,5-Trimethylacetophenone;NSC 833;1-(2,4,5-Trimethylphenyl)ethan-1-one",
    "duplicated_cas_no": "",
    "SMILES": "C(C)(=O)C1=C(C)C=C(C)C(C)=C1",
    "meta_data": {
        "InChI": "InChI=1S/C11H14O/c1-7-5-9(3)11(10(4)12)6-8(7)2/h5-6H,1-4H3",
        "InChIKey": null,
        "Canonical SMILES": "O=C(C=1C=C(C(=CC1C)C)C)C",
        "Molecular Formula": "C<sub>11</sub>H<sub>14</sub>O",
        "Molecular Mass": "162.23",
        "Boiling Point": "246.5 °C",
        "Melting Point": "10.5 °C"
    }
}