{
    "cas_no": "938-95-4",
    "key_name": "4-Chloro-α-methylbenzeneacetic acid",
    "cn_name": null,
    "alternate_name": "Benzeneacetic acid, 4-chloro-α-methyl-;Hydratropic acid, <em>p</em>-chloro-;4-Chloro-α-methylbenzeneacetic acid;2-(4-Chlorophenyl)propionic acid;2-(<em>p</em>-Chlorophenyl)propionic acid;<em>p</em>-Chloro-α-methylphenylacetic acid;2-(4-Chlorophenyl)propanoic acid;(±)-2-(<em>p</em>-Chlorophenyl)propionic acid;(±)-2-(4-Chlorophenyl)propionic acid;4-Chloro-α-methylphenylacetic acid",
    "duplicated_cas_no": "73037-67-9",
    "SMILES": "C(C(O)=O)(C)C1=CC=C(Cl)C=C1",
    "meta_data": {
        "InChI": "InChI=1S/C9H9ClO2/c1-6(9(11)12)7-2-4-8(10)5-3-7/h2-6H,1H3,(H,11,12)",
        "InChIKey": null,
        "Canonical SMILES": "O=C(O)C(C1=CC=C(Cl)C=C1)C",
        "Molecular Formula": "C<sub>9</sub>H<sub>9</sub>ClO<sub>2</sub>",
        "Molecular Mass": "184.62",
        "Melting Point": "58-58.5 °C"
    }
}