{
    "cas_no": "62-56-6",
    "key_name": "Thiourea",
    "cn_name": "硫脲;",
    "alternate_name": "Thiourea;Urea, thio-;Pseudourea, 2-thio-;Pseudourea (NH<sub>2</sub>.C(OH):NH), thio-;Thiocarbamide;THU;β-Thiopseudourea;2-Thiourea;Pseudothiourea;Isothiourea;TsIZP 34;NSC 5033;MeSH ID: D013890",
    "duplicated_cas_no": "1032826-45-1;1429623-74-4;1803177-22-1",
    "SMILES": "C(N)(N)=S",
    "meta_data": {
        "InChI": "InChI=1S/CH4N2S/c2-1(3)4/h(H4,2,3,4)",
        "InChIKey": null,
        "Canonical SMILES": "S=C(N)N",
        "Molecular Formula": "CH<sub>4</sub>N<sub>2</sub>S",
        "Molecular Mass": "76.12",
        "Melting Point": "176-178 °C",
        "Density": "1.405 g/cm³"
    }
}