{
    "cas_no": "118289-17-1",
    "key_name": "2-Bromo-4-pyridinecarboxaldehyde",
    "cn_name": "2-溴吡啶-4-甲醛;4-醛基-2-溴吡啶;",
    "alternate_name": "4-Pyridinecarboxaldehyde, 2-bromo-;2-Bromo-4-pyridinecarboxaldehyde;2-Bromo-4-formylpyridine;2-Bromoisonicotinaldehyde;2-Bromopyridine-4-carbaldehyde",
    "duplicated_cas_no": "",
    "SMILES": "C(=O)C=1C=C(Br)N=CC1",
    "meta_data": {
        "InChI": "InChI=1S/C6H4BrNO/c7-6-3-5(4-9)1-2-8-6/h1-4H",
        "InChIKey": null,
        "Canonical SMILES": "O=CC=1C=CN=C(Br)C1",
        "Molecular Formula": "C<sub>6</sub>H<sub>4</sub>BrNO",
        "Molecular Mass": "186.01",
        "Melting Point": "52.6-53.5 °C"
    }
}