{
    "cas_no": "19794-93-5",
    "key_name": "Trazodone",
    "cn_name": "曲唑酮;",
    "alternate_name": "1,2,4-Triazolo[4,3-<em>a</em>]pyridin-3(2<em>H</em>)-one, 2-[3-[4-(3-chlorophenyl)-1-piperazinyl]propyl]-;<em>s</em>-Triazolo[4,3-<em>a</em>]pyridin-3(2<em>H</em>)-one, 2-[3-[4-(<em>m</em>-chlorophenyl)-1-piperazinyl]propyl]-;2-[3-[4-(3-Chlorophenyl)-1-piperazinyl]propyl]-1,2,4-triazolo[4,3-<em>a</em>]pyridin-3(2<em>H</em>)-one;Trazodone;Trazodon;Trazalon;2-[3-[4-(3-Chlorophenyl)piperazin-1-yl]propyl]-2<em>H</em>,3<em>H</em>-[1,2,4]triazolo[4,3-<em>a</em>]pyridin-3-one;2-[3-[4-(3-Chlorophenyl)piperazin-1-yl]propyl]-[1,2,4]triazolo[4,3-<em>a</em>]pyridin-3-one;Beneficat;Trazadone;MeSH ID: D014196",
    "duplicated_cas_no": "",
    "SMILES": "O=C1N2C(=NN1CCCN3CCN(CC3)C4=CC(Cl)=CC=C4)C=CC=C2",
    "meta_data": {
        "InChI": "InChI=1S/C19H22ClN5O/c20-16-5-3-6-17(15-16)23-13-11-22(12-14-23)8-4-10-25-19(26)24-9-2-1-7-18(24)21-25/h1-3,5-7,9,15H,4,8,10-14H2",
        "InChIKey": null,
        "Canonical SMILES": "O=C1N2C=CC=CC2=NN1CCCN3CCN(C=4C=CC=C(Cl)C4)CC3",
        "Molecular Formula": "C<sub>19</sub>H<sub>22</sub>ClN<sub>5</sub>O",
        "Molecular Mass": "371.86",
        "Melting Point": "87 °C"
    }
}