{
    "cas_no": "3385-34-0",
    "key_name": "Ethyl 4,6-dimethyl-2-oxo-2<em>H</em>-pyran-5-carboxylate",
    "cn_name": "4,6-二甲基阔马酸乙酯;5-乙氧羰基-4,6-二甲基-2-吡喃酮;4,6-二甲基-2-氧-2H-吡喃-5-甲酸乙酯;",
    "alternate_name": "2<em>H</em>-Pyran-5-carboxylic acid, 4,6-dimethyl-2-oxo-, ethyl ester;Glutaconic acid, 4-(1-hydroxyethylidene)-3-methyl-, δ-lactone, ethyl ester;Coumalic acid, 4,6-dimethyl-, ethyl ester;Ethyl 4,6-dimethyl-2-oxo-2<em>H</em>-pyran-5-carboxylate;Ethyl isodehydroacetate;Ethyl 4,6-dimethyl-5-coumalate;5-(Ethoxycarbonyl)-4,6-dimethyl-α-pyrone;Ethyl isodehydracetate;NSC 18911;NSC 602920;2,4-Dimethyl-6-oxo-6<em>H</em>-pyran-3-carboxylic acid ethyl ester",
    "duplicated_cas_no": "",
    "SMILES": "C(OCC)(=O)C=1C(C)=CC(=O)OC1C",
    "meta_data": {
        "InChI": "InChI=1S/C10H12O4/c1-4-13-10(12)9-6(2)5-8(11)14-7(9)3/h5H,4H2,1-3H3",
        "InChIKey": null,
        "Canonical SMILES": "O=C1OC(=C(C(=O)OCC)C(=C1)C)C",
        "Molecular Formula": "C<sub>10</sub>H<sub>12</sub>O<sub>4</sub>",
        "Molecular Mass": "196.20",
        "Boiling Point": "150-176 °C",
        "Melting Point": "18-20 °C",
        "Density": "1.1619 g/cm³ @ Temp: 25 °C"
    }
}