{
    "cas_no": "67843-74-7",
    "key_name": "(+)-Epichlorohydrin",
    "cn_name": "右旋环氧氯丙烷;(S)-环氧氯丙烷;",
    "alternate_name": "Oxirane, 2-(chloromethyl)-, (2<em>S</em>)-;Oxirane, (chloromethyl)-, (<em>S</em>)-;Oxirane, (chloromethyl)-, (2<em>S</em>)-;(2<em>S</em>)-2-(Chloromethyl)oxirane;(<em>S</em>)-Epichlorohydrin;(<em>S</em>)-(+)-Epichlorohydrin;(<em>S</em>)-1-Chloro-2,3-epoxypropane;(<em>S</em>)-(Chloromethyl)oxirane;(+)-Epichlorohydrin;2(<em>S</em>)-Epichlorohydrin;(<em>S</em>)-Epichlorhydrin;(+)-2-(Chloromethyl)oxirane;(<em>S</em>)-2-Chloromethyloxirane;(2S)-2-(Chloromethyl)oxirane",
    "duplicated_cas_no": "",
    "SMILES": "C(Cl)[C@@H]1CO1",
    "meta_data": {
        "InChI": "InChI=1S/C3H5ClO/c4-1-3-2-5-3/h3H,1-2H2/t3-/m1/s1",
        "InChIKey": null,
        "Canonical SMILES": "ClCC1OC1",
        "Molecular Formula": "C<sub>3</sub>H<sub>5</sub>ClO",
        "Molecular Mass": "92.52",
        "Boiling Point": "116 °C"
    }
}