{
    "cas_no": "19116-90-6",
    "key_name": "2,5-Dimethoxybenzenesulfonamide",
    "cn_name": "2,5-二甲氧基苯磺胺;",
    "alternate_name": "Benzenesulfonamide, 2,5-dimethoxy-;2,5-Dimethoxybenzenesulfonamide;2,5-Dimethoxybenzene-1-sulfonamide;2,5-Dimethoxy-benzenesulfonic acid amide",
    "duplicated_cas_no": "",
    "SMILES": "S(N)(=O)(=O)C1=C(OC)C=CC(OC)=C1",
    "meta_data": {
        "InChI": "InChI=1S/C8H11NO4S/c1-12-6-3-4-7(13-2)8(5-6)14(9,10)11/h3-5H,1-2H3,(H2,9,10,11)",
        "InChIKey": null,
        "Canonical SMILES": "O=S(=O)(N)C1=CC(OC)=CC=C1OC",
        "Molecular Formula": "C<sub>8</sub>H<sub>11</sub>NO<sub>4</sub>S",
        "Molecular Mass": "217.24",
        "Melting Point": "47.5-48.5 °C"
    }
}