{
    "cas_no": "6233-20-1",
    "key_name": "Trichloro(2-chloroethyl)silane",
    "cn_name": null,
    "alternate_name": "Silane, trichloro(2-chloroethyl)-;Trichloro(2-chloroethyl)silane;(β-Chloroethyl)trichlorosilane;(2-Chloroethyl)trichlorosilane;NSC 139828",
    "duplicated_cas_no": "",
    "SMILES": "C([Si](Cl)(Cl)Cl)CCl",
    "meta_data": {
        "InChI": "InChI=1S/C2H4Cl4Si/c3-1-2-7(4,5)6/h1-2H2",
        "InChIKey": null,
        "Canonical SMILES": "ClCC[Si](Cl)(Cl)Cl",
        "Molecular Formula": "C<sub>2</sub>H<sub>4</sub>Cl<sub>4</sub>Si",
        "Molecular Mass": "197.95",
        "Boiling Point": "152-153 °C",
        "Density": "1.419 g/cm³"
    }
}