{
    "cas_no": "3484-22-8",
    "key_name": "2,3,3-Trimethyl-5-nitroindolenine",
    "cn_name": "5-硝基-2,3,3-三甲基吲哚;",
    "alternate_name": "3<em>H</em>-Indole, 2,3,3-trimethyl-5-nitro-;2,3,3-Trimethyl-5-nitro-3<em>H</em>-indole;2,3,3-Trimethyl-5-nitroindolenine;5-Nitro-2,3,3-trimethyl-3<em>H</em>-indole;5-Nitro-2,3,3-trimethylindole;NSC 131893;5-Nitro-2,3,3-trimethylindolenine;2,3,3-Trimethyl-5-nitroindole",
    "duplicated_cas_no": "",
    "SMILES": "CC1(C)C=2C(N=C1C)=CC=C(N(=O)=O)C2",
    "meta_data": {
        "InChI": "InChI=1S/C11H12N2O2/c1-7-11(2,3)9-6-8(13(14)15)4-5-10(9)12-7/h4-6H,1-3H3",
        "InChIKey": null,
        "Canonical SMILES": "O=N(=O)C=1C=CC=2N=C(C)C(C2C1)(C)C",
        "Molecular Formula": "C<sub>11</sub>H<sub>12</sub>N<sub>2</sub>O<sub>2</sub>",
        "Molecular Mass": "204.23",
        "Melting Point": "130-131 °C"
    }
}