{
    "cas_no": "1967-31-3",
    "key_name": "2-Chloro-1,4-benzenedicarboxylic acid",
    "cn_name": null,
    "alternate_name": "1,4-Benzenedicarboxylic acid, 2-chloro-;Terephthalic acid, chloro-;2-Chloro-1,4-benzenedicarboxylic acid;2-Chloroterephthalic acid;Chloroterephthalic acid;3-Chloro-4-carboxybenzoic acid;NSC 20548;2-Chlorobenzene-1,4-dicarboxylic acid",
    "duplicated_cas_no": "",
    "SMILES": "C(O)(=O)C1=CC(Cl)=C(C(O)=O)C=C1",
    "meta_data": {
        "InChI": "InChI=1S/C8H5ClO4/c9-6-3-4(7(10)11)1-2-5(6)8(12)13/h1-3H,(H,10,11)(H,12,13)",
        "InChIKey": null,
        "Canonical SMILES": "O=C(O)C1=CC=C(C(=O)O)C(Cl)=C1",
        "Molecular Formula": "C<sub>8</sub>H<sub>5</sub>ClO<sub>4</sub>",
        "Molecular Mass": "200.58",
        "Melting Point": "306-308 °C"
    }
}