{
    "cas_no": "7623-13-4",
    "key_name": "2,3-Dichloropropanoyl chloride",
    "cn_name": null,
    "alternate_name": "Propanoyl chloride, 2,3-dichloro-;Propionyl chloride, 2,3-dichloro-;2,3-Dichloropropanoyl chloride;2,3-Dichloropropionyl chloride;α,β-Dichloropropionyl chloride;α,β-Dichloropropionic acid chloride",
    "duplicated_cas_no": "",
    "SMILES": "C(C(Cl)=O)(CCl)Cl",
    "meta_data": {
        "InChI": "InChI=1S/C3H3Cl3O/c4-1-2(5)3(6)7/h2H,1H2",
        "InChIKey": null,
        "Canonical SMILES": "O=C(Cl)C(Cl)CCl",
        "Molecular Formula": "C<sub>3</sub>H<sub>3</sub>Cl<sub>3</sub>O",
        "Molecular Mass": "161.41",
        "Boiling Point": "140-144 °C @ Press: 720 Torr"
    }
}