{
    "cas_no": "2872-48-2",
    "key_name": "Disperse Red 11",
    "cn_name": "分散红11;1,4-二氨基-2-甲氧基-9,10-蒽醌;",
    "alternate_name": "9,10-Anthracenedione, 1,4-diamino-2-methoxy-;Anthraquinone, 1,4-diamino-2-methoxy-;1,4-Diamino-2-methoxy-9,10-anthracenedione;C.I. 62015;Acetate Fast Pink 3B;Amacel Cerise B;Artisil Brilliant Rose 5BP;Celanthrene Fast Pink 3B;Celliton Fast Pink FF 3B;Celliton Fast Pink FF 3BA-CF;Celliton Rose FF 3B;Cibacet Brilliant Pink 4BN;Cilla Fast Pink FF 3B;C.I. Solvent Violet 26;Fenacet Fast Pink 3BE;Interchem Acetate Pink 3B;Miketon Fast Pink FF 3B;Nacelan Pink 3B;Palanil Violet 6R;Perliton Red Violet FFB;Samaron Red Violet F 3B;Seriplas Red X 3B;Setacyl Red P 3B;Supracet Fast Pink 3B;Terasil Brilliant Pink 4BN;C.I. Disperse Red 11;Duranol Red X 3B;1,4-Diamino-2-methoxyanthraquinone;Disperse Brilliant Pink;Serisol Brilliant Red X 3B;1,4-Diamino-2-methoxyanthroquinone;Disperse Red 11;Solvent Violet 26;Dispersol Red B 3B;Disperse Brilliant Rose;Celliton Pink FF 3B;Navilene Violet 6R;Serisol Brilliant Red X 3B200;Foron Brilliant Pink E 5BPW;NSC 81266;Akasperse Pink 5B;1,4-Diamino-2-methoxy-9,10-dihydroanthracene-9,10-dione",
    "duplicated_cas_no": "11116-38-4",
    "SMILES": "O=C1C=2C(C(=O)C=3C1=CC=CC3)=C(N)C=C(OC)C2N",
    "meta_data": {
        "InChI": "InChI=1S/C15H12N2O3/c1-20-10-6-9(16)11-12(13(10)17)15(19)8-5-3-2-4-7(8)14(11)18/h2-6H,16-17H2,1H3",
        "InChIKey": null,
        "Canonical SMILES": "O=C1C=2C=CC=CC2C(=O)C=3C(N)=C(OC)C=C(N)C13",
        "Molecular Formula": "C<sub>15</sub>H<sub>12</sub>N<sub>2</sub>O<sub>3</sub>",
        "Molecular Mass": "268.27",
        "Melting Point": "242 °C"
    }
}