{
    "cas_no": "347-63-7",
    "key_name": "3-Fluoro-4-methoxy-γ-oxobenzenebutanoic acid",
    "cn_name": "3-(3-氟-4-甲氧基苯甲酰)丙酸;",
    "alternate_name": "Benzenebutanoic acid, 3-fluoro-4-methoxy-γ-oxo-;Propionic acid, 3-(3-fluoro-<em>p</em>-anisoyl)-;3-Fluoro-4-methoxy-γ-oxobenzenebutanoic acid;3-(3-Fluoro-4-methoxybenzoyl)propionic acid;NSC 87577;3-(4-Methoxy-3-fluorobenzoyl)propanoic acid;4-(3-Fluoro-4-methoxyphenyl)-4-oxobutanoic acid",
    "duplicated_cas_no": "",
    "SMILES": "C(CCC(O)=O)(=O)C1=CC(F)=C(OC)C=C1",
    "meta_data": {
        "InChI": "InChI=1S/C11H11FO4/c1-16-10-4-2-7(6-8(10)12)9(13)3-5-11(14)15/h2,4,6H,3,5H2,1H3,(H,14,15)",
        "InChIKey": null,
        "Canonical SMILES": "O=C(O)CCC(=O)C1=CC=C(OC)C(F)=C1",
        "Molecular Formula": "C<sub>11</sub>H<sub>11</sub>FO<sub>4</sub>",
        "Molecular Mass": "226.20",
        "Melting Point": "168-170 °C"
    }
}