{
    "cas_no": "22688-79-5",
    "key_name": "Quercetin 3-glucuronide",
    "cn_name": null,
    "alternate_name": "β-<span class=\"text-smallcaps\">D</span>-Glucopyranosiduronic acid, 2-(3,4-dihydroxyphenyl)-5,7-dihydroxy-4-oxo-4<em>H</em>-1-benzopyran-3-yl;Glucopyranosiduronic acid, 2-(3,4-dihydroxyphenyl)-5,7-dihydroxy-4-oxo-4<em>H</em>-1-benzopyran-3-yl, β-<span class=\"text-smallcaps\">D</span>-;Miquelianin;2-(3,4-Dihydroxyphenyl)-5,7-dihydroxy-4-oxo-4<em>H</em>-1-benzopyran-3-yl β-<span class=\"text-smallcaps\">D</span>-glucopyranosiduronic acid;Quercetin 3-glucuronide;Querciturone;Quercetin 3-β-glucuronide;Quercetin 3-β-<span class=\"text-smallcaps\">D</span>-glucuronide;Quercetin 3-<em>O</em>-β-<span class=\"text-smallcaps\">D</span>-glucuronopyranoside;Quercetin 3-<em>O</em>-β-<span class=\"text-smallcaps\">D</span>-glucuronide;Quercituron;Quercetin 3-<em>O</em>-glucuronide;Quercetin-3-<em>O</em>-β-glucuronide;Mikwelianin;Quercetin 3-β-<span class=\"text-smallcaps\">D</span>-glucuronopyranoside;Quercetin 3-<em>O</em>-β-<span class=\"text-smallcaps\">D</span>-glucopyranosiduronic acid;Q3GA",
    "duplicated_cas_no": "27253-19-6;30484-87-8;30675-99-1;83348-86-1;625835-16-7;778593-28-5;1463778-13-3",
    "SMILES": "O(C1=C(OC=2C(C1=O)=C(O)C=C(O)C2)C3=CC(O)=C(O)C=C3)[C@@H]4O[C@H](C(O)=O)[C@@H](O)[C@H](O)[C@H]4O",
    "meta_data": {
        "InChI": "InChI=1S/C21H18O13/c22-7-4-10(25)12-11(5-7)32-17(6-1-2-8(23)9(24)3-6)18(13(12)26)33-21-16(29)14(27)15(28)19(34-21)20(30)31/h1-5,14-16,19,21-25,27-29H,(H,30,31)/t14-,15-,16+,19-,21+/m0/s1",
        "InChIKey": null,
        "Canonical SMILES": "O=C(O)C1OC(OC=2C(=O)C=3C(O)=CC(O)=CC3OC2C=4C=CC(O)=C(O)C4)C(O)C(O)C1O",
        "Molecular Formula": "C<sub>21</sub>H<sub>18</sub>O<sub>13</sub>",
        "Molecular Mass": "478.36",
        "Melting Point": "190-192 °C"
    }
}