{
    "cas_no": "7519-36-0",
    "key_name": "<em>N</em>-Nitroso-<span class=\"text-smallcaps\">L</span>-proline",
    "cn_name": null,
    "alternate_name": "<span class=\"text-smallcaps\">L</span>-Proline, 1-nitroso-;Proline, 1-nitroso-, <span class=\"text-smallcaps\">L</span>-;1-Nitroso-<span class=\"text-smallcaps\">L</span>-proline;<em>N</em>-Nitrosoproline;<em>N</em>-Nitroso-<span class=\"text-smallcaps\">L</span>-proline;NSC 109545",
    "duplicated_cas_no": "37114-16-2;39723-42-7;68374-64-1;86941-92-6;89299-44-5",
    "SMILES": "N(=O)N1[C@H](C(O)=O)CCC1",
    "meta_data": {
        "InChI": "InChI=1S/C5H8N2O3/c8-5(9)4-2-1-3-7(4)6-10/h4H,1-3H2,(H,8,9)/t4-/m0/s1",
        "InChIKey": null,
        "Canonical SMILES": "O=NN1CCCC1C(=O)O",
        "Molecular Formula": "C<sub>5</sub>H<sub>8</sub>N<sub>2</sub>O<sub>3</sub>",
        "Molecular Mass": "144.13",
        "Melting Point": "100-102 °C"
    }
}