{
    "cas_no": "1829-37-4",
    "key_name": "2-Bromophenyl acetate",
    "cn_name": null,
    "alternate_name": "Phenol, 2-bromo-, 1-acetate;Phenol, <em>o</em>-bromo-, acetate;Phenol, 2-bromo-, acetate;<em>o</em>-Bromophenyl acetate;<em>o</em>-Acetoxybromobenzene;2-Bromophenol acetate;2-Bromophenyl acetate;NSC 404082;1-Acetoxy-2-bromobenzene",
    "duplicated_cas_no": "",
    "SMILES": "O(C(C)=O)C1=C(Br)C=CC=C1",
    "meta_data": {
        "InChI": "InChI=1S/C8H7BrO2/c1-6(10)11-8-5-3-2-4-7(8)9/h2-5H,1H3",
        "InChIKey": null,
        "Canonical SMILES": "O=C(OC=1C=CC=CC1Br)C",
        "Molecular Formula": "C<sub>8</sub>H<sub>7</sub>BrO<sub>2</sub>",
        "Molecular Mass": "215.04",
        "Boiling Point": "147-150 °C @ Press: 25 Torr",
        "Density": "1.4924 g/cm³ @ Temp: 20 °C"
    }
}