{
    "cas_no": "655-14-1",
    "key_name": "2,5-Difluoro-1,4-benzenedicarboxylic acid",
    "cn_name": null,
    "alternate_name": "1,4-Benzenedicarboxylic acid, 2,5-difluoro-;Terephthalic acid, 2,5-difluoro-;2,5-Difluoro-1,4-benzenedicarboxylic acid;2,5-Difluoroterephthalic acid;2,5-Difluorobenzene-1,4-dicarboxylic acid",
    "duplicated_cas_no": "",
    "SMILES": "C(O)(=O)C1=C(F)C=C(C(O)=O)C(F)=C1",
    "meta_data": {
        "InChI": "InChI=1S/C8H4F2O4/c9-5-1-3(7(11)12)6(10)2-4(5)8(13)14/h1-2H,(H,11,12)(H,13,14)",
        "InChIKey": null,
        "Canonical SMILES": "O=C(O)C1=CC(F)=C(C=C1F)C(=O)O",
        "Molecular Formula": "C<sub>8</sub>H<sub>4</sub>F<sub>2</sub>O<sub>4</sub>",
        "Molecular Mass": "202.11",
        "Melting Point": "325-330 °C"
    }
}