{
    "cas_no": "13684-63-4",
    "key_name": "Phenmedipham",
    "cn_name": null,
    "alternate_name": "Carbamic acid, <em>N</em>-(3-methylphenyl)-, 3-[(methoxycarbonyl)amino]phenyl ester;Carbanilic acid, <em>m</em>-hydroxy-, methyl ester, <em>m</em>-methylcarbanilate (ester);Carbamic acid, (3-methylphenyl)-, 3-[(methoxycarbonyl)amino]phenyl ester;Carbanilic acid, <em>m</em>-methyl-, ester with methyl <em>m</em>-hydroxycarbanilate;Betanal;Phenmedipham;Methyl <em>N</em>-[3-[<em>N</em>′-(3′-methylphenyl)carbamoyloxy]phenyl]carbamate;Methyl <em>m</em>-hydroxycarbanilate <em>m</em>-methylcarbanilate;Methyl <em>N</em>-[3-[<em>N</em>-(3-methylphenyl)carbamoyloxy]phenyl]carbamate;3-(Carbomethoxyamino)phenyl 3-methylcarbanilate;3-[(Methoxycarbonyl)amino]phenyl <em>N</em>-(3-methylphenyl)carbamate;Fenmedifam;SN 38584;Synbetan P;Vangard;Stepham;Kemifam;Kemifam FL;Kontakt FCS;Methyl 3-(<em>m</em>-tolylcarbamoyl)carbanilate;Kontakt;Kontakt (herbicide);Fenifan;3-((Methoxycarbonyl)amino)phenyl <em>m</em>-tolylcarbamate;Betasana",
    "duplicated_cas_no": "35067-67-5",
    "SMILES": "O(C(NC1=CC(C)=CC=C1)=O)C2=CC(NC(OC)=O)=CC=C2",
    "meta_data": {
        "InChI": "InChI=1S/C16H16N2O4/c1-11-5-3-6-12(9-11)18-16(20)22-14-8-4-7-13(10-14)17-15(19)21-2/h3-10H,1-2H3,(H,17,19)(H,18,20)",
        "InChIKey": null,
        "Canonical SMILES": "O=C(OC1=CC=CC(=C1)NC(=O)OC)NC2=CC=CC(=C2)C",
        "Molecular Formula": "C<sub>16</sub>H<sub>16</sub>N<sub>2</sub>O<sub>4</sub>",
        "Molecular Mass": "300.31",
        "Melting Point": "143 °C"
    }
}