{
    "cas_no": "6964-21-2",
    "key_name": "3-Thiopheneacetic acid",
    "cn_name": "3-噻吩乙酸;",
    "alternate_name": "3-Thiopheneacetic acid;3-Thienylacetic acid;3-Thiopheneethanoic acid;2-(Thiophen-3-yl)acetic acid;Thiophen-3-ylacetic acid;NSC 66315;2-(3-Thienyl)acetic acid;3-Thiophenacetic acid",
    "duplicated_cas_no": "",
    "SMILES": "C(C(O)=O)C=1C=CSC1",
    "meta_data": {
        "InChI": "InChI=1S/C6H6O2S/c7-6(8)3-5-1-2-9-4-5/h1-2,4H,3H2,(H,7,8)",
        "InChIKey": null,
        "Canonical SMILES": "O=C(O)CC1=CSC=C1",
        "Molecular Formula": "C<sub>6</sub>H<sub>6</sub>O<sub>2</sub>S",
        "Molecular Mass": "142.18",
        "Melting Point": "79-80 °C"
    }
}