{
    "cas_no": "624-80-6",
    "key_name": "Ethylhydrazine",
    "cn_name": "乙基肼;乙肼;",
    "alternate_name": "Hydrazine, ethyl-;Ethylhydrazine;<em>N</em>-Ethylhydrazine;1-Ethylhydrazine",
    "duplicated_cas_no": "",
    "SMILES": "C(NN)C",
    "meta_data": {
        "InChI": "InChI=1S/C2H8N2/c1-2-4-3/h4H,2-3H2,1H3",
        "InChIKey": null,
        "Canonical SMILES": "NNCC",
        "Molecular Formula": "C<sub>2</sub>H<sub>8</sub>N<sub>2</sub>",
        "Molecular Mass": "60.10",
        "Boiling Point": "97-101 °C @ Press: 744 Torr",
        "Melting Point": "110-120 °C",
        "Density": "0.8461 g/cm³ @ Temp: 20 °C"
    }
}