{
    "cas_no": "13209-15-9",
    "key_name": "α,α,α′,α′-Tetrabromo-<em>o</em>-xylene",
    "cn_name": "1,2-双(二溴甲基)苯;alpha,alpha,alpha\",alpha\"-四溴邻二甲苯;",
    "alternate_name": "Benzene, 1,2-bis(dibromomethyl)-;<em>o</em>-Xylene, α,α,α′,α′-tetrabromo-;1,2-Bis(dibromomethyl)benzene;α,α,α′,α′-Tetrabromo-<em>o</em>-xylene;NSC 38607",
    "duplicated_cas_no": "",
    "SMILES": "C(Br)(Br)C1=C(C(Br)Br)C=CC=C1",
    "meta_data": {
        "InChI": "InChI=1S/C8H6Br4/c9-7(10)5-3-1-2-4-6(5)8(11)12/h1-4,7-8H",
        "InChIKey": null,
        "Canonical SMILES": "BrC(Br)C=1C=CC=CC1C(Br)Br",
        "Molecular Formula": "C<sub>8</sub>H<sub>6</sub>Br<sub>4</sub>",
        "Molecular Mass": "421.75",
        "Melting Point": "115-116 °C"
    }
}