{
    "cas_no": "116-26-7",
    "key_name": "Safranal",
    "cn_name": "2,3-二氢-2,2,6-三甲基苯甲醛;",
    "alternate_name": "1,3-Cyclohexadiene-1-carboxaldehyde, 2,6,6-trimethyl-;2,6,6-Trimethyl-1,3-cyclohexadiene-1-carboxaldehyde;Safranal;2,2,6-Trimethyl-4,6-cyclohexadien-1-aldehyde;2,6,6-Trimethyl-1,3-cyclohexadiene-1-aldehyde;2,6,6-Trimethylcyclohexa-1,3-dienecarboxaldehyde;2,6,6-Trimethylcyclohexa-1,3-diene-1-carbaldehyde;2,6,6-Trimethylcyclohexa-1,3-dienecarbaldehyde;2,3-Dihydro-2,2,6-trimethylbenzaldehyde",
    "duplicated_cas_no": "",
    "SMILES": "C(=O)C=1C(C)(C)CC=CC1C",
    "meta_data": {
        "InChI": "InChI=1S/C10H14O/c1-8-5-4-6-10(2,3)9(8)7-11/h4-5,7H,6H2,1-3H3",
        "InChIKey": null,
        "Canonical SMILES": "O=CC1=C(C=CCC1(C)C)C",
        "Molecular Formula": "C<sub>10</sub>H<sub>14</sub>O",
        "Molecular Mass": "150.22",
        "Boiling Point": "70 °C",
        "Melting Point": "&lt;25 °C"
    }
}