{
    "cas_no": "161599-46-8",
    "key_name": "Cytidine, 5′-deoxy-5-fluoro-, 2′,3′-diacetate",
    "cn_name": "2\",3\"-二-O-乙酰基-5\"-脱氧-5-氟-D-胞啶;",
    "alternate_name": "Cytidine, 5′-deoxy-5-fluoro-, 2′,3′-diacetate;5′-Deoxy-2′,3′-di-<em>O</em>-acetyl-5-fluorocytidine;2′,3′-Di-<em>O</em>-acetyl-5′-deoxy-5-fluorocytidine;2′,3′-Di-O-acetyl-5′-deoxy-5-fluorocytidine",
    "duplicated_cas_no": "",
    "SMILES": "O(C(C)=O)[C@H]1[C@@H](O[C@H](C)[C@H]1OC(C)=O)N2C(=O)N=C(N)C(F)=C2",
    "meta_data": {
        "InChI": "InChI=1S/C13H16FN3O6/c1-5-9(22-6(2)18)10(23-7(3)19)12(21-5)17-4-8(14)11(15)16-13(17)20/h4-5,9-10,12H,1-3H3,(H2,15,16,20)/t5-,9-,10-,12-/m1/s1",
        "InChIKey": null,
        "Canonical SMILES": "O=C1N=C(N)C(F)=CN1C2OC(C)C(OC(=O)C)C2OC(=O)C",
        "Molecular Formula": "C<sub>13</sub>H<sub>16</sub>FN<sub>3</sub>O<sub>6</sub>",
        "Molecular Mass": "329.28",
        "Melting Point": "81-83 °C"
    }
}