{
    "cas_no": "4352-42-5",
    "key_name": "α-Propylcyclohexanemethanol",
    "cn_name": "1-环己基-1-丁醇;",
    "alternate_name": "Cyclohexanemethanol, α-propyl-;α-Propylcyclohexanemethanol;1-Butanol, 1-cyclohexyl-;1-Cyclohexyl-1-butanol",
    "duplicated_cas_no": "106756-99-4",
    "SMILES": "C(CCC)(O)C1CCCCC1",
    "meta_data": {
        "InChI": "InChI=1S/C10H20O/c1-2-6-10(11)9-7-4-3-5-8-9/h9-11H,2-8H2,1H3",
        "InChIKey": null,
        "Canonical SMILES": "OC(CCC)C1CCCCC1",
        "Molecular Formula": "C<sub>10</sub>H<sub>20</sub>O",
        "Molecular Mass": "156.27",
        "Boiling Point": "112 °C @ Press: 14 Torr",
        "Density": "0.905 g/cm³ @ Temp: 17 °C"
    }
}