{
    "cas_no": "4819-67-4",
    "key_name": "2-Pentylcyclopentanone",
    "cn_name": "2-戊基环戊酮;2-戊基环戊酮;",
    "alternate_name": "Cyclopentanone, 2-pentyl-;2-Pentylcyclopentanone;2-<em>n</em>-Amylcyclopentanone;2-<em>n</em>-Pentyl cyclopentanone;Delphone;2-Pentyl-1-cyclopentanone",
    "duplicated_cas_no": "116877-29-3",
    "SMILES": "C(CCCC)C1C(=O)CCC1",
    "meta_data": {
        "InChI": "InChI=1S/C10H18O/c1-2-3-4-6-9-7-5-8-10(9)11/h9H,2-8H2,1H3",
        "InChIKey": null,
        "Canonical SMILES": "O=C1CCCC1CCCCC",
        "Molecular Formula": "C<sub>10</sub>H<sub>18</sub>O",
        "Molecular Mass": "154.25",
        "Boiling Point": "90 °C @ Press: 10 Torr"
    }
}