{
    "cas_no": "98665-14-6",
    "key_name": "Ganoderic acid E",
    "cn_name": null,
    "alternate_name": "Lanost-8-en-26-oic acid, 3,7,11,15,23-pentaoxo-, (25<em>R</em>)-;(25<em>R</em>)-3,7,11,15,23-Pentaoxolanost-8-en-26-oic acid;Ganoderic acid E;Ganoderic acid F",
    "duplicated_cas_no": "",
    "SMILES": "C[C@]12C3=C([C@]4(C)[C@@](CC3=O)(C(C)(C)C(=O)CC4)[H])C(=O)C[C@]1(C)[C@@]([C@@H](CC(C[C@H](C(O)=O)C)=O)C)(CC2=O)[H]",
    "meta_data": {
        "InChI": "InChI=1S/C30H40O7/c1-15(10-17(31)11-16(2)26(36)37)18-12-23(35)30(7)25-19(32)13-21-27(3,4)22(34)8-9-28(21,5)24(25)20(33)14-29(18,30)6/h15-16,18,21H,8-14H2,1-7H3,(H,36,37)/t15-,16-,18-,21+,28+,29-,30+/m1/s1",
        "InChIKey": null,
        "Canonical SMILES": "O=C1C2=C(C(=O)CC3(C)C(CC(=O)C23C)C(C)CC(=O)CC(C(=O)O)C)C4(C)CCC(=O)C(C)(C)C4C1",
        "Molecular Formula": "C<sub>30</sub>H<sub>40</sub>O<sub>7</sub>",
        "Molecular Mass": "512.63",
        "Melting Point": "120-122 °C"
    }
}