{
    "cas_no": "3473-63-0",
    "key_name": "Formamidine acetate",
    "cn_name": "醋酸甲脒;乙酸甲脒;甲脒乙酸盐;",
    "alternate_name": "Methanimidamide, acetate (1:1);Formamidine, monoacetate;Methanimidamide, monoacetate;Formamidine acetate;Formamidinium acetate;Methanimidamide acetate;Formamidine acetate (1:1);NSC 96608;Formimidamide acetate;Acetic acid methanimidamide",
    "duplicated_cas_no": "40730-94-7;87667-19-4;146797-05-9",
    "SMILES": "C(=N)N.C(C)(O)=O",
    "meta_data": {
        "InChI": "InChI=1S/C2H4O2.CH4N2/c1-2(3)4;2-1-3/h1H3,(H,3,4);1H,(H3,2,3)",
        "InChIKey": null,
        "Canonical SMILES": "O=C(O)C.N=CN",
        "Molecular Formula": "C<sub>2</sub>H<sub>4</sub>O<sub>2</sub>.CH<sub>4</sub>N<sub>2</sub>",
        "Molecular Mass": "",
        "Melting Point": "162-164 °C"
    }
}