{
    "cas_no": "3327-22-8",
    "key_name": "(3-Chloro-2-hydroxypropyl)trimethylammonium chloride",
    "cn_name": "3-氯-2-羟丙基三甲基氯化铵;",
    "alternate_name": "1-Propanaminium, 3-chloro-2-hydroxy-<em>N</em>,<em>N</em>,<em>N</em>-trimethyl-, chloride (1:1);Ammonium, (3-chloro-2-hydroxypropyl)trimethyl-, chloride;(3-Chloro-2-hydroxypropyl)trimethylammonium chloride;1-Propanaminium, 3-chloro-2-hydroxy-<em>N</em>,<em>N</em>,<em>N</em>-trimethyl-, chloride;Trimethyl(2-hydroxy-3-chloropropyl)ammonium chloride;(2-Hydroxy-3-chloropropyl)trimethylammonium chloride;NT 21;1-Chloro-3-(trimethylammonio)-2-propanol chloride;(3-Chloro-2-hydroxypropyl)-<em>N</em>,<em>N</em>,<em>N</em>-trimethylammonium chloride;Quat 188;Dextrosil;Dextrosil KA;Verolan KAF;QUAB;Dowquat 188;QUAB 188;Catiomaster C;QUAB 218;COPA 60S;<em>N</em>-(3-Chloro-2-hydroxypropyl)-<em>N</em>,<em>N</em>,<em>N</em>-trimethylammonium chloride;Vircotone ECO;CR 2000;CR 2000 (fixative);NSC 51216;Reagens CFZ;Catiomaster C 60;Cation Master C;Reagens S-CFZ;1-Chloro-3-trimethylammonium-2-propanol chloride;1-Chloro-2-hydroxypropane-3-trimethylammonium chloride;Reagens S;HAC 65;CTA;EcoFAST CR 2000;CTA 65;3-Chloro-2-hydroxy-<em>N</em>,<em>N</em>,<em>N</em>-trimethylpropan-1-aminium chloride;ZPYM 8069;CHPTAC;Rishlyte 9098;CTA-YK",
    "duplicated_cas_no": "58128-36-2;73935-21-4;101360-39-8;115993-13-0;126845-69-0;181939-29-7;1331834-62-8;2803335-13-7",
    "SMILES": "C([N+](C)(C)C)C(CCl)O.[Cl-]",
    "meta_data": {
        "InChI": "InChI=1S/C6H15ClNO.ClH/c1-8(2,3)5-6(9)4-7;/h6,9H,4-5H2,1-3H3;1H/q+1;/p-1",
        "InChIKey": null,
        "Canonical SMILES": "[Cl-].ClCC(O)C[N+](C)(C)C",
        "Molecular Formula": "C<sub>6</sub>H<sub>15</sub>ClNO.Cl",
        "Molecular Mass": "",
        "Melting Point": "190 °C"
    }
}