{
    "cas_no": "530-53-0",
    "key_name": "Deoxyvasicinone",
    "cn_name": null,
    "alternate_name": "Pyrrolo[2,1-<em>b</em>]quinazolin-9(1<em>H</em>)-one, 2,3-dihydro-;2,3-Dihydropyrrolo[2,1-<em>b</em>]quinazolin-9(1<em>H</em>)-one;Pegenone;Deoxyvasicinone;9-Oxodeoxypeganine;1,2,3,9-Tetrahydropyrrolo[2,1-<em>b</em>]quinazolin-9-one;2,3-Trimethylene-4-quinazolone;NSC 159478;2,3-Dihydro-1<em>H</em>-pyrrolo[2,1-<em>b</em>]quinazolin-9-one",
    "duplicated_cas_no": "",
    "SMILES": "O=C1N2C(=NC=3C1=CC=CC3)CCC2",
    "meta_data": {
        "InChI": "InChI=1S/C11H10N2O/c14-11-8-4-1-2-5-9(8)12-10-6-3-7-13(10)11/h1-2,4-5H,3,6-7H2",
        "InChIKey": null,
        "Canonical SMILES": "O=C1C=2C=CC=CC2N=C3N1CCC3",
        "Molecular Formula": "C<sub>11</sub>H<sub>10</sub>N<sub>2</sub>O",
        "Molecular Mass": "186.21",
        "Melting Point": "110-110.5 °C"
    }
}