{
    "cas_no": "132871-11-5",
    "key_name": "(3<em>R</em>)-3-Methyl-1-(phenylmethyl)piperazine",
    "cn_name": "(R)-1-苄基-3-甲基哌嗪;",
    "alternate_name": "Piperazine, 3-methyl-1-(phenylmethyl)-, (3<em>R</em>)-;Piperazine, 3-methyl-1-(phenylmethyl)-, (<em>R</em>)-;(3<em>R</em>)-3-Methyl-1-(phenylmethyl)piperazine;(<em>R</em>)-1-Benzyl-3-methylpiperazine;1-Benzyl-3(<em>R</em>)-methylpiperazine;(3<em>R</em>)-1-Benzyl-3-methylpiperazine;(3R)-1-Benzyl-3-methylpiperazine;1-Benzyl-3(R)-methyl-piperazine",
    "duplicated_cas_no": "",
    "SMILES": "C(N1C[C@@H](C)NCC1)C2=CC=CC=C2",
    "meta_data": {
        "InChI": "InChI=1S/C12H18N2/c1-11-9-14(8-7-13-11)10-12-5-3-2-4-6-12/h2-6,11,13H,7-10H2,1H3/t11-/m1/s1",
        "InChIKey": null,
        "Canonical SMILES": "C=1C=CC(=CC1)CN2CCNC(C)C2",
        "Molecular Formula": "C<sub>12</sub>H<sub>18</sub>N<sub>2</sub>",
        "Molecular Mass": "190.28",
        "Melting Point": "30-32 °C"
    }
}