{
    "cas_no": "21691-44-1",
    "key_name": "<em>N</em>-[(Phenylmethoxy)carbonyl]-<span class=\"text-smallcaps\">L</span>-norvaline",
    "cn_name": null,
    "alternate_name": "<span class=\"text-smallcaps\">L</span>-Norvaline, <em>N</em>-[(phenylmethoxy)carbonyl]-;Norvaline, <em>N</em>-carboxy-, <em>N</em>-benzyl ester, <span class=\"text-smallcaps\">L</span>-;<em>N</em>-[(Phenylmethoxy)carbonyl]-<span class=\"text-smallcaps\">L</span>-norvaline;<em>N</em>-(Benzyloxycarbonyl)-<span class=\"text-smallcaps\">L</span>-norvaline;<em>N</em>-(Carbobenzoxy)norvaline;(Benzyloxycarbonyl)norvaline;<em>N</em>-(Benzyloxycarbonyl)norvaline;<span class=\"text-smallcaps\">L</span>-(Carbobenzyloxy)norvaline;Z-<span class=\"text-smallcaps\">L</span>-Norvaline;<em>N</em>-Carbobenzyloxy-<span class=\"text-smallcaps\">L</span>-norvaline;Cbz-<span class=\"text-smallcaps\">L</span>-norvaline;(2S)-2-(Phenylmethoxycarbonylamino)pentanoic acid",
    "duplicated_cas_no": "",
    "SMILES": "[C@H](NC(OCC1=CC=CC=C1)=O)(CCC)C(O)=O",
    "meta_data": {
        "InChI": "InChI=1S/C13H17NO4/c1-2-6-11(12(15)16)14-13(17)18-9-10-7-4-3-5-8-10/h3-5,7-8,11H,2,6,9H2,1H3,(H,14,17)(H,15,16)/t11-/m0/s1",
        "InChIKey": null,
        "Canonical SMILES": "O=C(OCC=1C=CC=CC1)NC(C(=O)O)CCC",
        "Molecular Formula": "C<sub>13</sub>H<sub>17</sub>NO<sub>4</sub>",
        "Molecular Mass": "251.28",
        "Melting Point": "85-86 °C"
    }
}