{
    "cas_no": "5409-58-5",
    "key_name": "1-Propanone, 3-(dimethylamino)-1-(1-naphthalenyl)-, hydrochloride (1:1)",
    "cn_name": null,
    "alternate_name": "1-Propanone, 3-(dimethylamino)-1-(1-naphthalenyl)-, hydrochloride (1:1);1′-Propionaphthone, 3-(dimethylamino)-, hydrochloride;1-Propanone, 3-(dimethylamino)-1-(1-naphthalenyl)-, hydrochloride;3-Dimethylamino-1-(naphthalen-1-yl)propan-1-one hydrochloride",
    "duplicated_cas_no": "",
    "SMILES": "C(CCN(C)C)(=O)C=1C2=C(C=CC1)C=CC=C2.Cl",
    "meta_data": {
        "InChI": "InChI=1S/C15H17NO.ClH/c1-16(2)11-10-15(17)14-9-5-7-12-6-3-4-8-13(12)14;/h3-9H,10-11H2,1-2H3;1H",
        "InChIKey": null,
        "Canonical SMILES": "Cl.O=C(C1=CC=CC=2C=CC=CC21)CCN(C)C",
        "Molecular Formula": "C<sub>15</sub>H<sub>17</sub>NO.ClH",
        "Molecular Mass": "",
        "Melting Point": "165 °C"
    }
}