{
    "cas_no": "2199-64-6",
    "key_name": "Ethyl 4-formyl-3,5-dimethyl-1<em>H</em>-pyrrole-2-carboxylate",
    "cn_name": null,
    "alternate_name": "1<em>H</em>-Pyrrole-2-carboxylic acid, 4-formyl-3,5-dimethyl-, ethyl ester;Pyrrole-2-carboxylic acid, 4-formyl-3,5-dimethyl-, ethyl ester;Ethyl 4-formyl-3,5-dimethyl-1<em>H</em>-pyrrole-2-carboxylate;Ethyl 4-formyl-3,5-dimethylpyrrole-2-carboxylate;NSC 13665",
    "duplicated_cas_no": "",
    "SMILES": "C(OCC)(=O)C1=C(C)C(C=O)=C(C)N1",
    "meta_data": {
        "InChI": "InChI=1S/C10H13NO3/c1-4-14-10(13)9-6(2)8(5-12)7(3)11-9/h5,11H,4H2,1-3H3",
        "InChIKey": null,
        "Canonical SMILES": "O=CC1=C(NC(C(=O)OCC)=C1C)C",
        "Molecular Formula": "C<sub>10</sub>H<sub>13</sub>NO<sub>3</sub>",
        "Molecular Mass": "195.22",
        "Melting Point": "145 °C"
    }
}