{
    "cas_no": "32137-19-2",
    "key_name": "1,2-Difluoro-4-(trifluoromethyl)benzene",
    "cn_name": "3,4-二氟三氟甲苯;",
    "alternate_name": "Benzene, 1,2-difluoro-4-(trifluoromethyl)-;Toluene, α,α,α,3,4-pentafluoro-;1,2-Difluoro-4-(trifluoromethyl)benzene;3,4-Difluorobenzotrifluoride;α,α,α,3,4-Pentafluorotoluene",
    "duplicated_cas_no": "",
    "SMILES": "C(F)(F)(F)C1=CC(F)=C(F)C=C1",
    "meta_data": {
        "InChI": "InChI=1S/C7H3F5/c8-5-2-1-4(3-6(5)9)7(10,11)12/h1-3H",
        "InChIKey": null,
        "Canonical SMILES": "FC1=CC=C(C=C1F)C(F)(F)F",
        "Molecular Formula": "C<sub>7</sub>H<sub>3</sub>F<sub>5</sub>",
        "Molecular Mass": "182.09",
        "Boiling Point": "104 °C @ Press: 760 Torr",
        "Melting Point": "95-98 °C"
    }
}