{
    "cas_no": "59729-37-2",
    "key_name": "Fexinidazole",
    "cn_name": null,
    "alternate_name": "1<em>H</em>-Imidazole, 1-methyl-2-[[4-(methylthio)phenoxy]methyl]-5-nitro-;1-Methyl-2-[[4-(methylthio)phenoxy]methyl]-5-nitro-1<em>H</em>-imidazole;Fexinidazole;HOE 239;1-Methyl-2-[(4-methylsulfanylphenoxy)methyl]-5-nitroimidazole",
    "duplicated_cas_no": "",
    "SMILES": "C(OC1=CC=C(SC)C=C1)C=2N(C)C(N(=O)=O)=CN2",
    "meta_data": {
        "InChI": "InChI=1S/C12H13N3O3S/c1-14-11(13-7-12(14)15(16)17)8-18-9-3-5-10(19-2)6-4-9/h3-7H,8H2,1-2H3",
        "InChIKey": null,
        "Canonical SMILES": "O=N(=O)C1=CN=C(N1C)COC2=CC=C(SC)C=C2",
        "Molecular Formula": "C<sub>12</sub>H<sub>13</sub>N<sub>3</sub>O<sub>3</sub>S",
        "Molecular Mass": "279.31",
        "Boiling Point": "501 °C",
        "Melting Point": "51-55 °C"
    }
}