{
    "cas_no": "3430-27-1",
    "key_name": "3-Amino-4-methylpyridine",
    "cn_name": "3-氨基-4-甲基吡啶;",
    "alternate_name": "3-Pyridinamine, 4-methyl-;4-Picoline, 3-amino-;4-Methyl-3-pyridinamine;3-Amino-4-methylpyridine;3-Amino-4-picoline;3-Amino-γ-picoline;Ampic;4-Methylpyridin-3-ylamine;4-Methylpyridin-3-amine",
    "duplicated_cas_no": "",
    "SMILES": "CC=1C(N)=CN=CC1",
    "meta_data": {
        "InChI": "InChI=1S/C6H8N2/c1-5-2-3-8-4-6(5)7/h2-4H,7H2,1H3",
        "InChIKey": null,
        "Canonical SMILES": "N=1C=CC(=C(N)C1)C",
        "Molecular Formula": "C<sub>6</sub>H<sub>8</sub>N<sub>2</sub>",
        "Molecular Mass": "108.14",
        "Melting Point": "104-105 °C"
    }
}