{
    "cas_no": "532-48-9",
    "key_name": "Euparin",
    "cn_name": "泽兰素;泽兰素;",
    "alternate_name": "Ethanone, 1-[6-hydroxy-2-(1-methylethenyl)-5-benzofuranyl]-;Ketone, 6-hydroxy-2-isopropenyl-5-benzofuranyl methyl;1-[6-Hydroxy-2-(1-methylethenyl)-5-benzofuranyl]ethanone;Euparin;Euparine;1-[6-Hydroxy-2-(prop-1-en-2-yl)-1-benzofuran-5-yl]ethan-1-one",
    "duplicated_cas_no": "",
    "SMILES": "C(C)(=C)C=1OC=2C(=CC(C(C)=O)=C(O)C2)C1",
    "meta_data": {
        "InChI": "InChI=1S/C13H12O3/c1-7(2)12-5-9-4-10(8(3)14)11(15)6-13(9)16-12/h4-6,15H,1H2,2-3H3",
        "InChIKey": null,
        "Canonical SMILES": "O=C(C1=CC=2C=C(OC2C=C1O)C(=C)C)C",
        "Molecular Formula": "C<sub>13</sub>H<sub>12</sub>O<sub>3</sub>",
        "Molecular Mass": "216.23",
        "Melting Point": "118.5 °C"
    }
}