{
    "cas_no": "1450-74-4",
    "key_name": "5′-Chloro-2′-hydroxyacetophenone",
    "cn_name": "2-羟基-5-氯苯乙酮;",
    "alternate_name": "Ethanone, 1-(5-chloro-2-hydroxyphenyl)-;Acetophenone, 5′-chloro-2′-hydroxy-;1-(5-Chloro-2-hydroxyphenyl)ethanone;5′-Chloro-2′-hydroxyacetophenone;2-Acetyl-4-chlorophenol;2′-Hydroxy-5′-chloroacetophenone;NSC 46622;3-Chloro-6-hydroxyacetophenone;1-(5-Chloro-2-hydroxyphenyl)ethan-1-one",
    "duplicated_cas_no": "1039416-31-3",
    "SMILES": "C(C)(=O)C1=C(O)C=CC(Cl)=C1",
    "meta_data": {
        "InChI": "InChI=1S/C8H7ClO2/c1-5(10)7-4-6(9)2-3-8(7)11/h2-4,11H,1H3",
        "InChIKey": null,
        "Canonical SMILES": "O=C(C1=CC(Cl)=CC=C1O)C",
        "Molecular Formula": "C<sub>8</sub>H<sub>7</sub>ClO<sub>2</sub>",
        "Molecular Mass": "170.59",
        "Boiling Point": "126-128 °C @ Press: 28 Torr",
        "Melting Point": "54 °C"
    }
}