{
    "cas_no": "5301-78-0",
    "key_name": "1-Oxo-4-hydroxymethyl-2,6,7-trioxa-1-phosphabicyclo[2.2.2]octane",
    "cn_name": "2,6,7-三氧杂-1-磷杂双环(2.2.2)辛烷-4-甲醇-1-氧化物;",
    "alternate_name": "2,6,7-Trioxa-1-phosphabicyclo[2.2.2]octane-4-methanol, 1-oxide;Pentaerythritol, cyclic phosphate (1:1);Pentaerythritol, cyclic phosphate;4-(Hydroxymethyl)-1-oxido-2,6,7-trioxa-1-phosphabicyclo[2.2.2]octane;Pentaerythritol phosphate alcohol;CN 1137;2,6,7-Trioxaphosphobicyclo[2.2.2]octane-4-methanol 1-oxide;NH 1197;PEPA;1-Oxo-4-hydroxymethyl-2,6,7-trioxa-1-phosphabicyclo[2.2.2]octane;4-Hydroxymethyl-2,6,7-trioxa-1-phosphabicyclo[2.2.2]octane 1-oxide",
    "duplicated_cas_no": "",
    "SMILES": "C(O)C12COP(=O)(OC1)OC2",
    "meta_data": {
        "InChI": "InChI=1S/C5H9O5P/c6-1-5-2-8-11(7,9-3-5)10-4-5/h6H,1-4H2",
        "InChIKey": null,
        "Canonical SMILES": "O=P12OCC(CO)(CO1)CO2",
        "Molecular Formula": "C<sub>5</sub>H<sub>9</sub>O<sub>5</sub>P",
        "Molecular Mass": "180.10",
        "Melting Point": "207.4-214.0 °C"
    }
}