{
    "cas_no": "578-46-1",
    "key_name": "5-Methyl-2-nitroaniline",
    "cn_name": "5-甲基-2-硝基苯胺;",
    "alternate_name": "Benzenamine, 5-methyl-2-nitro-;<em>m</em>-Toluidine, 6-nitro-;5-Methyl-2-nitrobenzenamine;4-Nitro-3-aminotoluene;5-Methyl-<em>o</em>-nitroaniline;3-Amino-4-nitrotoluene;1-Amino-3-methyl-6-nitrobenzene;6-Nitro-<em>m</em>-toluidine;2-Nitro-5-methylaniline;5-Methyl-2-nitroaniline;3-Methyl-6-nitroaniline;NSC 28586;NSC 404025;(5-Methyl-2-nitrophenyl)amine",
    "duplicated_cas_no": "",
    "SMILES": "N(=O)(=O)C1=C(N)C=C(C)C=C1",
    "meta_data": {
        "InChI": "InChI=1S/C7H8N2O2/c1-5-2-3-7(9(10)11)6(8)4-5/h2-4H,8H2,1H3",
        "InChIKey": null,
        "Canonical SMILES": "O=N(=O)C1=CC=C(C=C1N)C",
        "Molecular Formula": "C<sub>7</sub>H<sub>8</sub>N<sub>2</sub>O<sub>2</sub>",
        "Molecular Mass": "152.15",
        "Melting Point": "133 °C"
    }
}