{
    "cas_no": "40817-03-6",
    "key_name": "Phosphonium, 1,1′-[1,4-phenylenebis(methylene)]bis[1,1,1-triphenyl-, bromide (1:2)",
    "cn_name": null,
    "alternate_name": "Phosphonium, 1,1′-[1,4-phenylenebis(methylene)]bis[1,1,1-triphenyl-, bromide (1:2);Phosphonium, [1,4-phenylenebis(methylene)]bis[triphenyl-, dibromide;(<em>p</em>-Phenylenedimethylene)bis[triphenylphosphonium bromide];[1,4-Bis(triphenylphosphoniummethyl)benzene]dibromide;<em>P</em>,<em>P</em>′-(<em>p</em>-Phenylenedimethylene)bis(triphenylphosphonium bromide);<em>p</em>-Xylylenebis(triphenylphosphonium bromide);1,4-Xylylenebis(triphenylphosphonium bromide);1,4-Bis[(triphenylphosphonio)methyl]benzene dibromide;[1,4-Phenylenebis(methylene)]bis[triphenylphosphonium dibromide];1,4-Bis(triphenylphosphonium bromide)benzene",
    "duplicated_cas_no": "66726-76-9;342595-84-0;2488466-80-2",
    "SMILES": "[P+](CC1=CC=C(C[P+](C2=CC=CC=C2)(C3=CC=CC=C3)C4=CC=CC=C4)C=C1)(C5=CC=CC=C5)(C6=CC=CC=C6)C7=CC=CC=C7.[Br-]",
    "meta_data": {
        "InChI": "InChI=1S/C44H38P2.2BrH/c1-7-19-39(20-8-1)45(40-21-9-2-10-22-40,41-23-11-3-12-24-41)35-37-31-33-38(34-32-37)36-46(42-25-13-4-14-26-42,43-27-15-5-16-28-43)44-29-17-6-18-30-44;;/h1-34H,35-36H2;2*1H/q+2;;/p-2",
        "InChIKey": null,
        "Canonical SMILES": "[Br-].C=1C=CC(=CC1)[P+](C=2C=CC=CC2)(C=3C=CC=CC3)CC4=CC=C(C=C4)C[P+](C=5C=CC=CC5)(C=6C=CC=CC6)C=7C=CC=CC7",
        "Molecular Formula": "C<sub>44</sub>H<sub>38</sub>P<sub>2</sub>.2Br",
        "Molecular Mass": "",
        "Melting Point": "&gt;300 °C"
    }
}