{
    "cas_no": "68892-07-9",
    "key_name": "Methyl 2,3-dihydro-3-methyl-2-thioxo-1<em>H</em>-imidazole-4-carboxylate",
    "cn_name": null,
    "alternate_name": "1<em>H</em>-Imidazole-4-carboxylic acid, 2,3-dihydro-3-methyl-2-thioxo-, methyl ester;Imidazole-5-carboxylic acid, 2-mercapto-1-methyl-, methyl ester;Methyl 2,3-dihydro-3-methyl-2-thioxo-1<em>H</em>-imidazole-4-carboxylate;NSC 313360;1-Methyl-2-sulfanylimidazole-5-carboxylic acid methyl ester",
    "duplicated_cas_no": "",
    "SMILES": "C(OC)(=O)C=1N(C)C(=S)NC1",
    "meta_data": {
        "InChI": "InChI=1S/C6H8N2O2S/c1-8-4(5(9)10-2)3-7-6(8)11/h3H,1-2H3,(H,7,11)",
        "InChIKey": null,
        "Canonical SMILES": "O=C(OC)C1=CNC(=S)N1C",
        "Molecular Formula": "C<sub>6</sub>H<sub>8</sub>N<sub>2</sub>O<sub>2</sub>S",
        "Molecular Mass": "172.20",
        "Melting Point": "193-194 °C"
    }
}