{
    "cas_no": "27912-14-7",
    "key_name": "Levobunolol hydrochloride",
    "cn_name": "盐酸左布诺洛尔;5-[3-叔丁基氨基-2-羟基丙氧基]-3,4-二氢-2H-萘-1-酮盐酸盐;",
    "alternate_name": "1(2<em>H</em>)-Naphthalenone, 5-[(2<em>S</em>)-3-[(1,1-dimethylethyl)amino]-2-hydroxypropoxy]-3,4-dihydro-, hydrochloride (1:1);1(2<em>H</em>)-Naphthalenone, 5-[3-(<em>tert</em>-butylamino)-2-hydroxypropoxy]-3,4-dihydro-, hydrochloride, (-)-;1(2<em>H</em>)-Naphthalenone, 5-[3-[(1,1-dimethylethyl)amino]-2-hydroxypropoxy]-3,4-dihydro-, hydrochloride, (<em>S</em>)-;1(2<em>H</em>)-Naphthalenone, 5-[(2<em>S</em>)-3-[(1,1-dimethylethyl)amino]-2-hydroxypropoxy]-3,4-dihydro-, hydrochloride;<em>l</em>-Bunolol hydrochloride;Levobunolol hydrochloride;W 7000A;Betagan;AG 901;Gotensin;Vitagan;(<em>S</em>)-5-(3-(<em>tert</em>-Butylamino)-2-hydroxypropoxy)-3,4-dihydronaphthalen-1(2<em>H</em>)-one hydrochloride",
    "duplicated_cas_no": "",
    "SMILES": "O(C[C@H](CNC(C)(C)C)O)C1=C2C(=CC=C1)C(=O)CCC2.Cl",
    "meta_data": {
        "InChI": "InChI=1S/C17H25NO3.ClH/c1-17(2,3)18-10-12(19)11-21-16-9-5-6-13-14(16)7-4-8-15(13)20;/h5-6,9,12,18-19H,4,7-8,10-11H2,1-3H3;1H/t12-;/m0./s1",
        "InChIKey": null,
        "Canonical SMILES": "Cl.O=C1C=2C=CC=C(OCC(O)CNC(C)(C)C)C2CCC1",
        "Molecular Formula": "C<sub>17</sub>H<sub>25</sub>NO<sub>3</sub>.ClH",
        "Molecular Mass": "",
        "Melting Point": "209-211 °C"
    }
}