{
    "cas_no": "123-19-3",
    "key_name": "4-Heptanone",
    "cn_name": "4-庚酮;二丙基甲酮;",
    "alternate_name": "4-Heptanone;Butyrone;Dipropyl ketone;GBL;Propyl ketone;Di-<em>n</em>-Propyl ketone;4-Oxoheptane;NSC 8692",
    "duplicated_cas_no": "",
    "SMILES": "C(CCC)(CCC)=O",
    "meta_data": {
        "InChI": "InChI=1S/C7H14O/c1-3-5-7(8)6-4-2/h3-6H2,1-2H3",
        "InChIKey": null,
        "Canonical SMILES": "O=C(CCC)CCC",
        "Molecular Formula": "C<sub>7</sub>H<sub>14</sub>O",
        "Molecular Mass": "114.19",
        "Boiling Point": "144-146 °C",
        "Melting Point": "-33 °C",
        "Density": "0.8 g/cm³"
    }
}