{
    "cas_no": "188347-49-1",
    "key_name": "3,5-Dibromobenzeneacetic acid",
    "cn_name": "3,5-二溴苯乙酸;",
    "alternate_name": "Benzeneacetic acid, 3,5-dibromo-;3,5-Dibromobenzeneacetic acid;3,5-Dibromophenylacetic acid;2-(3,5-Dibromophenyl)acetic acid",
    "duplicated_cas_no": "",
    "SMILES": "C(C(O)=O)C1=CC(Br)=CC(Br)=C1",
    "meta_data": {
        "InChI": "InChI=1S/C8H6Br2O2/c9-6-1-5(3-8(11)12)2-7(10)4-6/h1-2,4H,3H2,(H,11,12)",
        "InChIKey": null,
        "Canonical SMILES": "O=C(O)CC=1C=C(Br)C=C(Br)C1",
        "Molecular Formula": "C<sub>8</sub>H<sub>6</sub>Br<sub>2</sub>O<sub>2</sub>",
        "Molecular Mass": "293.94",
        "Melting Point": "133-135 °C"
    }
}