{
    "cas_no": "59-46-1",
    "key_name": "Procaine",
    "cn_name": "普鲁卡因;奴夫卡因;",
    "alternate_name": "Benzoic acid, 4-amino-, 2-(diethylamino)ethyl ester;Benzoic acid, <em>p</em>-amino-, 2-(diethylamino)ethyl ester;4-Aminobenzoic acid diethylaminoethyl ester;<em>p</em>-Aminobenzoic acid 2-diethylaminoethyl ester;Diethylaminoethyl <em>p</em>-aminobenzoate;β-Diethylaminoethyl 4-aminobenzoate;Nissocaine;Procain;Spinocaine;Procaine;2-(Diethylamino)ethyl <em>p</em>-aminobenzoate;β-(Diethylamino)ethyl <em>p</em>-aminobenzoate;Vitamin H<sub>3</sub>;Duracaine;2-Diethylaminoethyl 4-aminobenzoate;Procaine base;4-Aminobenzoic acid 2-(diethylamino)ethyl ester;NSC 169497;SP 01;Pfizerpen AS;MeSH ID: D011343",
    "duplicated_cas_no": "91484-72-9",
    "SMILES": "C(OCCN(CC)CC)(=O)C1=CC=C(N)C=C1",
    "meta_data": {
        "InChI": "InChI=1S/C13H20N2O2/c1-3-15(4-2)9-10-17-13(16)11-5-7-12(14)8-6-11/h5-8H,3-4,9-10,14H2,1-2H3",
        "InChIKey": null,
        "Canonical SMILES": "O=C(OCCN(CC)CC)C1=CC=C(N)C=C1",
        "Molecular Formula": "C<sub>13</sub>H<sub>20</sub>N<sub>2</sub>O<sub>2</sub>",
        "Molecular Mass": "236.31",
        "Boiling Point": "228-231 °C @ Press: 6 Torr",
        "Melting Point": "61 °C",
        "Density": "1.17 g/cm³"
    }
}