{
    "cas_no": "3619-17-8",
    "key_name": "Propanoic acid, 2-methyl-, hydrazide",
    "cn_name": "异丁酰肼;",
    "alternate_name": "Propanoic acid, 2-methyl-, hydrazide;Isobutyric acid, hydrazide;Isobutyrohydrazide;Isobutyryl hydrazide;Isobutyrylhydrazine;Isobutyric hydrazide;2-Methylpropionic acid hydrazide;Isobutanoic acid hydrazide;NSC 141139;2-Methylpropanoic acid hydrazide;2-Methylpropanehydrazide;2-Methylpropanohydrazide",
    "duplicated_cas_no": "2250430-93-2",
    "SMILES": "C(C(C)C)(NN)=O",
    "meta_data": {
        "InChI": "InChI=1S/C4H10N2O/c1-3(2)4(7)6-5/h3H,5H2,1-2H3,(H,6,7)",
        "InChIKey": null,
        "Canonical SMILES": "O=C(NN)C(C)C",
        "Molecular Formula": "C<sub>4</sub>H<sub>10</sub>N<sub>2</sub>O",
        "Molecular Mass": "102.14",
        "Melting Point": "98 °C"
    }
}