{
    "cas_no": "602-60-8",
    "key_name": "9-Nitroanthracene",
    "cn_name": "9-硝基蒽;",
    "alternate_name": "Anthracene, 9-nitro-;9-Nitroanthracene;5-Nitroanthracene;NSC 47175",
    "duplicated_cas_no": "",
    "SMILES": "N(=O)(=O)C=1C2=C(C=C3C1C=CC=C3)C=CC=C2",
    "meta_data": {
        "InChI": "InChI=1S/C14H9NO2/c16-15(17)14-12-7-3-1-5-10(12)9-11-6-2-4-8-13(11)14/h1-9H",
        "InChIKey": null,
        "Canonical SMILES": "O=N(=O)C=1C=2C=CC=CC2C=C3C=CC=CC31",
        "Molecular Formula": "C<sub>14</sub>H<sub>9</sub>NO<sub>2</sub>",
        "Molecular Mass": "223.23",
        "Boiling Point": "275 °C",
        "Melting Point": "146 °C"
    }
}