{
    "cas_no": "1762-46-5",
    "key_name": "5,5′-Diethyl [2,2′-bipyridine]-5,5′-dicarboxylate",
    "cn_name": null,
    "alternate_name": "[2,2′-Bipyridine]-5,5′-dicarboxylic acid, 5,5′-diethyl ester;6,6′-Binicotinic acid, diethyl ester;[2,2′-Bipyridine]-5,5′-dicarboxylic acid, diethyl ester;5,5′-Diethyl [2,2′-bipyridine]-5,5′-dicarboxylate;5,5′-Diethoxycarbonyl-2,2′-bipyridine;5,5′-Dicarbethoxy-2,2′-bipyridine;Diethyl 2,2′-bipyridyl-5,5′-dicarboxylate;Diethyl 2,2′-bipyridine-5,5′-dicarboxylate;5,5′-Bis(ethoxycarbonyl)-2,2′-bipyridine;5,5-Bis(carboxyethyl)-2,2′-bipyridine;[2,2′]-Bipyridinyl-5,5′-dicarboxylic acid diethyl ester",
    "duplicated_cas_no": "",
    "SMILES": "C(OCC)(=O)C1=CC=C(N=C1)C2=CC=C(C(OCC)=O)C=N2",
    "meta_data": {
        "InChI": "InChI=1S/C16H16N2O4/c1-3-21-15(19)11-5-7-13(17-9-11)14-8-6-12(10-18-14)16(20)22-4-2/h5-10H,3-4H2,1-2H3",
        "InChIKey": null,
        "Canonical SMILES": "O=C(OCC)C1=CN=C(C=C1)C=2N=CC(=CC2)C(=O)OCC",
        "Molecular Formula": "C<sub>16</sub>H<sub>16</sub>N<sub>2</sub>O<sub>4</sub>",
        "Molecular Mass": "300.31",
        "Melting Point": "145-147 °C"
    }
}