{
    "cas_no": "50-48-6",
    "key_name": "Amitriptyline",
    "cn_name": "阿米替林;3-(10,11-二氢-5H-二苯并[a,d]环庚烯-5-亚基)-N,N-二甲基-1-丙胺;",
    "alternate_name": "1-Propanamine, 3-(10,11-dihydro-5<em>H</em>-dibenzo[<em>a</em>,<em>d</em>]cyclohepten-5-ylidene)-<em>N</em>,<em>N</em>-dimethyl-;5<em>H</em>-Dibenzo[<em>a</em>,<em>d</em>]cycloheptene-Δ<sup>5,γ</sup>-propylamine, 10,11-dihydro-<em>N</em>,<em>N</em>-dimethyl-;3-(10,11-Dihydro-5<em>H</em>-dibenzo[<em>a</em>,<em>d</em>]cyclohepten-5-ylidene)-<em>N</em>,<em>N</em>-dimethyl-1-propanamine;Amitriptyline;Damilen;5-(3′-Dimethylaminopropylidene)-dibenzo-[<em>a</em>,<em>d</em>][1,4]-cycloheptadiene;5-(3-Dimethylaminopropylidene)-5<em>H</em>-dibenzo[<em>a</em>,<em>d</em>]-10,11-dihydrocycloheptene;5-(γ-Dimethylaminopropylidene)-10,11-dihydro-5<em>H</em>-dibenzo[<em>a</em>,<em>d</em>]cycloheptene;Proheptadiene;Flavyl;5-(γ-Dimethylaminopropylidene)-5<em>H</em>-dibenzo(<em>a</em>,<em>d</em>)(1,4)cycloheptadiene;Amitriptylin;Seroten;Triptisol;Damitriptyline;Triptanol;Adepress;MK 230;N 750;Amitriprolidine;MeSH ID: D000639",
    "duplicated_cas_no": "",
    "SMILES": "C(CCN(C)C)=C1C=2C(CCC=3C1=CC=CC3)=CC=CC2",
    "meta_data": {
        "InChI": "InChI=1S/C20H23N/c1-21(2)15-7-12-20-18-10-5-3-8-16(18)13-14-17-9-4-6-11-19(17)20/h3-6,8-12H,7,13-15H2,1-2H3",
        "InChIKey": null,
        "Canonical SMILES": "C=1C=CC2=C(C1)C(=CCCN(C)C)C=3C=CC=CC3CC2",
        "Molecular Formula": "C<sub>20</sub>H<sub>23</sub>N",
        "Molecular Mass": "277.40",
        "Boiling Point": "195-205 °C",
        "Melting Point": "196.5 °C"
    }
}