{
    "cas_no": "4753-59-7",
    "key_name": "1-Butanol, 4-bromo-, 1-acetate",
    "cn_name": null,
    "alternate_name": "1-Butanol, 4-bromo-, 1-acetate;1-Butanol, 4-bromo-, acetate;4-Bromobutyl acetate;4-Acetoxybutyl bromide;1-Acetoxy-4-bromobutane;4-Acetoxy-1-bromobutane;4-Bromo-1-butyl acetate;4-Bromo-1-acetoxybutane;4-Bromo-1-butanol acetate;NSC 33919;Acetic acid 4-bromobutyl ester",
    "duplicated_cas_no": "",
    "SMILES": "C(OC(C)=O)CCCBr",
    "meta_data": {
        "InChI": "InChI=1S/C6H11BrO2/c1-6(8)9-5-3-2-4-7/h2-5H2,1H3",
        "InChIKey": null,
        "Canonical SMILES": "O=C(OCCCCBr)C",
        "Molecular Formula": "C<sub>6</sub>H<sub>11</sub>BrO<sub>2</sub>",
        "Molecular Mass": "195.05",
        "Boiling Point": "95-96 °C @ Press: 14 Torr",
        "Density": "1.3771 g/cm³ @ Temp: 19.5 °C"
    }
}