{
    "cas_no": "619-66-9",
    "key_name": "4-Formylbenzoic acid",
    "cn_name": "对醛基苯甲酸;对羧基苯醛;",
    "alternate_name": "Benzoic acid, 4-formyl-;Terephthalaldehydic acid;4-Formylbenzoic acid;<em>p</em>-Formylbenzoic acid;<em>p</em>-Carboxybenzaldehyde;4-Carboxybenzaldehyde;Terephthaldehydic acid;4-Carboxylbenzaldehyde;NSC 15797;Terephthalaldehyde acid;<em>p</em>-Benzoic acid aldehyde;4-CBA",
    "duplicated_cas_no": "",
    "SMILES": "C(O)(=O)C1=CC=C(C=O)C=C1",
    "meta_data": {
        "InChI": "InChI=1S/C8H6O3/c9-5-6-1-3-7(4-2-6)8(10)11/h1-5H,(H,10,11)",
        "InChIKey": null,
        "Canonical SMILES": "O=CC1=CC=C(C=C1)C(=O)O",
        "Molecular Formula": "C<sub>8</sub>H<sub>6</sub>O<sub>3</sub>",
        "Molecular Mass": "150.13",
        "Melting Point": "256 °C"
    }
}