{
    "cas_no": "6914-74-5",
    "key_name": "1-Carbamoylcyclopropanecarboxylic acid",
    "cn_name": null,
    "alternate_name": "Cyclopropanecarboxylic acid, 1-(aminocarbonyl)-;Cyclopropanecarboxylic acid, 1-carbamoyl-;1-(Aminocarbonyl)cyclopropanecarboxylic acid;1-Carbamoylcyclopropanecarboxylic acid;1-(Aminocarbonyl)-1-cyclopropanecarboxylic acid;1-Carbamoyl-1-cyclopropanecarboxylic acid;Cyclopropanamide-1-carboxylic acid;1-Carbamylcyclopropane-1-carboxylic acid;1-Carboxycyclopropane-1-carboxamide;1-Carboxycyclopropanecarboxamide",
    "duplicated_cas_no": "",
    "SMILES": "C(N)(=O)C1(C(O)=O)CC1",
    "meta_data": {
        "InChI": "InChI=1S/C5H7NO3/c6-3(7)5(1-2-5)4(8)9/h1-2H2,(H2,6,7)(H,8,9)",
        "InChIKey": null,
        "Canonical SMILES": "O=C(O)C1(C(=O)N)CC1",
        "Molecular Formula": "C<sub>5</sub>H<sub>7</sub>NO<sub>3</sub>",
        "Molecular Mass": "129.11",
        "Melting Point": "188-189 °C"
    }
}