{
    "cas_no": "10040-98-9",
    "key_name": "4-(1<em>H</em>-Imidazol-1-yl)benzaldehyde",
    "cn_name": null,
    "alternate_name": "Benzaldehyde, 4-(1<em>H</em>-imidazol-1-yl)-;Benzaldehyde, <em>p</em>-imidazol-1-yl-;4-(1<em>H</em>-Imidazol-1-yl)benzaldehyde;<em>p</em>-(1-Imidazolyl)benzaldehyde;4-(Imidazol-1-yl)benzaldehyde;1-(4-Formylphenyl)-1<em>H</em>-imidazole;4-(3<em>H</em>-Imidazol-3-yl)benzaldehyde;<em>N</em>-(4-Formylphenyl)imidazole;1-(4-Formylphenyl)imidazole;4-(1<em>H</em>-Imidazo-1-yl)benzaldehyde;(4-Formylphenyl)-1<em>H</em>-imidazole",
    "duplicated_cas_no": "",
    "SMILES": "C(=O)C1=CC=C(C=C1)N2C=CN=C2",
    "meta_data": {
        "InChI": "InChI=1S/C10H8N2O/c13-7-9-1-3-10(4-2-9)12-6-5-11-8-12/h1-8H",
        "InChIKey": null,
        "Canonical SMILES": "O=CC1=CC=C(C=C1)N2C=NC=C2",
        "Molecular Formula": "C<sub>10</sub>H<sub>8</sub>N<sub>2</sub>O",
        "Molecular Mass": "172.18",
        "Melting Point": "139-140 °C"
    }
}