{
    "cas_no": "821-10-3",
    "key_name": "1,4-Dichloro-2-butyne",
    "cn_name": "1,4-二氯-2-丁炔;丁炔二氯;",
    "alternate_name": "2-Butyne, 1,4-dichloro-;1,4-Dichloro-2-butyne;1,4-Dichlorobutyne;Bis(chloromethyl)acetylene;NSC 30603",
    "duplicated_cas_no": "",
    "SMILES": "C(#CCCl)CCl",
    "meta_data": {
        "InChI": "InChI=1S/C4H4Cl2/c5-3-1-2-4-6/h3-4H2",
        "InChIKey": null,
        "Canonical SMILES": "ClCC#CCCl",
        "Molecular Formula": "C<sub>4</sub>H<sub>4</sub>Cl<sub>2</sub>",
        "Molecular Mass": "122.98",
        "Boiling Point": "165.5 °C",
        "Melting Point": "162-165 °C",
        "Density": "1.258 g/cm³ @ Temp: 20 °C"
    }
}