{
    "cas_no": "81919-14-4",
    "key_name": "<span class=\"text-smallcaps\">L</span>-Lysine, 2-[[1-(phenylmethyl)-1<em>H</em>-indazol-3-yl]oxy]acetate (1:1)",
    "cn_name": "苄达赖氨酸;赖氨酸-((1-苄基-1H-吲唑-3-基)氧)乙酸;",
    "alternate_name": "<span class=\"text-smallcaps\">L</span>-Lysine, 2-[[1-(phenylmethyl)-1<em>H</em>-indazol-3-yl]oxy]acetate (1:1);<span class=\"text-smallcaps\">L</span>-Lysine, mono[[[1-(phenylmethyl)-1<em>H</em>-indazol-3-yl]oxy]acetate];Acetic acid, [[1-(phenylmethyl)-1<em>H</em>-indazol-3-yl]oxy]-, compd. with <span class=\"text-smallcaps\">L</span>-lysine (1:1);Bendazac <span class=\"text-smallcaps\">L</span>-lysine salt;Bendazac lysine salt;Bendaline;AF 1934;Bendazac lysine",
    "duplicated_cas_no": "82576-52-1",
    "SMILES": "C(N1C=2C(C(OCC(O)=O)=N1)=CC=CC2)C3=CC=CC=C3.[C@H](CCCCN)(C(O)=O)N",
    "meta_data": {
        "InChI": "InChI=1S/C16H14N2O3.C6H14N2O2/c19-15(20)11-21-16-13-8-4-5-9-14(13)18(17-16)10-12-6-2-1-3-7-12;7-4-2-1-3-5(8)6(9)10/h1-9H,10-11H2,(H,19,20);5H,1-4,7-8H2,(H,9,10)/t;5-/m.0/s1",
        "InChIKey": null,
        "Canonical SMILES": "O=C(O)COC1=NN(C=2C=CC=CC12)CC=3C=CC=CC3.O=C(O)C(N)CCCCN",
        "Molecular Formula": "C<sub>16</sub>H<sub>14</sub>N<sub>2</sub>O<sub>3</sub>.C<sub>6</sub>H<sub>14</sub>N<sub>2</sub>O<sub>2</sub>",
        "Molecular Mass": "",
        "Melting Point": "178-181 °C"
    }
}