{
    "cas_no": "7801-71-0",
    "key_name": "<em>N</em>-[(Phenylmethoxy)carbonyl]-<span class=\"text-smallcaps\">L</smallcap>-leucyl-<smallcap>L</span>-leucine",
    "cn_name": null,
    "alternate_name": "<span class=\"text-smallcaps\">L</smallcap>-Leucine, <em>N</em>-[(phenylmethoxy)carbonyl]-<smallcap>L</span>-leucyl-;Leucine, <em>N</em>-(<em>N</em>-carboxy-<span class=\"text-smallcaps\">L</smallcap>-leucyl)-, <em>N</em>-benzyl ester, <smallcap>L</span>-;<span class=\"text-smallcaps\">L</smallcap>-Leucine, <em>N</em>-[<em>N</em>-[(phenylmethoxy)carbonyl]-<smallcap>L</span>-leucyl]-;<em>N</em>-[(Phenylmethoxy)carbonyl]-<span class=\"text-smallcaps\">L</smallcap>-leucyl-<smallcap>L</span>-leucine;<em>N</em>-Carbobenzoxy-<span class=\"text-smallcaps\">L</smallcap>-leucyl-<smallcap>L</span>-leucine;Benzyloxycarbonyl-<span class=\"text-smallcaps\">L</smallcap>-leucyl-<smallcap>L</span>-leucine;Carbobenzoxy-<span class=\"text-smallcaps\">L</smallcap>-leucyl-<smallcap>L</span>-leucine;NSC 335978",
    "duplicated_cas_no": "198830-08-9",
    "SMILES": "[C@H](C(N[C@@H](CC(C)C)C(O)=O)=O)(NC(OCC1=CC=CC=C1)=O)CC(C)C",
    "meta_data": {
        "InChI": "InChI=1S/C20H30N2O5/c1-13(2)10-16(18(23)21-17(19(24)25)11-14(3)4)22-20(26)27-12-15-8-6-5-7-9-15/h5-9,13-14,16-17H,10-12H2,1-4H3,(H,21,23)(H,22,26)(H,24,25)/t16-,17-/m0/s1",
        "InChIKey": null,
        "Canonical SMILES": "O=C(OCC=1C=CC=CC1)NC(C(=O)NC(C(=O)O)CC(C)C)CC(C)C",
        "Molecular Formula": "C<sub>20</sub>H<sub>30</sub>N<sub>2</sub>O<sub>5</sub>",
        "Molecular Mass": "378.46",
        "Melting Point": "114-116 °C"
    }
}