{
    "cas_no": "873-64-3",
    "key_name": "2-Ethyl-4,5-dimethylthiazole",
    "cn_name": "2-乙基-4,5-二甲基噻唑;2-乙基-4,5-二甲基-1,3-噻唑;",
    "alternate_name": "Thiazole, 2-ethyl-4,5-dimethyl-;2-Ethyl-4,5-dimethylthiazole;4,5-Dimethyl-2-ethylthiazole;2-Ethyl-4,5-dimethyl-1,3-thiazole",
    "duplicated_cas_no": "",
    "SMILES": "C(C)C1=NC(C)=C(C)S1",
    "meta_data": {
        "InChI": "InChI=1S/C7H11NS/c1-4-7-8-5(2)6(3)9-7/h4H2,1-3H3",
        "InChIKey": null,
        "Canonical SMILES": "N=1C(=C(SC1CC)C)C",
        "Molecular Formula": "C<sub>7</sub>H<sub>11</sub>NS",
        "Molecular Mass": "141.23",
        "Boiling Point": "63-64 °C @ Press: 3 Torr"
    }
}