{
    "cas_no": "10574-69-3",
    "key_name": "3-Benzylrhodanine",
    "cn_name": "3-苄基若丹宁;3-苯甲基罗丹宁;N-benzylrhodanine;",
    "alternate_name": "4-Thiazolidinone, 3-(phenylmethyl)-2-thioxo-;Rhodanine, 3-benzyl-;3-(Phenylmethyl)-2-thioxo-4-thiazolidinone;<em>N</em>-Benzylrhodanine;3-Benzylrhodanine;3-Benzyl-2-thioxo-4-thiazolidone;NSC 142477;3-Benzyl-2-thioxothiazolidin-4-one;3-Benzyl-2-sulfanylidene-1,3-thiazolidin-4-one",
    "duplicated_cas_no": "",
    "SMILES": "C(N1C(=O)CSC1=S)C2=CC=CC=C2",
    "meta_data": {
        "InChI": "InChI=1S/C10H9NOS2/c12-9-7-14-10(13)11(9)6-8-4-2-1-3-5-8/h1-5H,6-7H2",
        "InChIKey": null,
        "Canonical SMILES": "O=C1N(C(=S)SC1)CC=2C=CC=CC2",
        "Molecular Formula": "C<sub>10</sub>H<sub>9</sub>NOS<sub>2</sub>",
        "Molecular Mass": "223.31",
        "Melting Point": "83 °C"
    }
}