{
    "cas_no": "111-92-2",
    "key_name": "Dibutylamine",
    "cn_name": "二正丁胺;二丁基胺;二丁胺;",
    "alternate_name": "1-Butanamine, <em>N</em>-butyl-;Dibutylamine;<em>N</em>-Butyl-1-butanamine;Di-<em>n</em>-butylamine;<em>N</em>,<em>N</em>-Di-<em>n</em>-butylamine;<em>N</em>,<em>N</em>-Dibutylamine;<em>n</em>-Dibutylamine",
    "duplicated_cas_no": "1357848-56-6",
    "SMILES": "N(CCCC)CCCC",
    "meta_data": {
        "InChI": "InChI=1S/C8H19N/c1-3-5-7-9-8-6-4-2/h9H,3-8H2,1-2H3",
        "InChIKey": null,
        "Canonical SMILES": "N(CCCC)CCCC",
        "Molecular Formula": "C<sub>8</sub>H<sub>19</sub>N",
        "Molecular Mass": "129.24",
        "Boiling Point": "159-160 °C",
        "Melting Point": "-60--59 °C",
        "Density": "0.7601 g/cm³ @ Temp: 20 °C"
    }
}