{
    "cas_no": "702-03-4",
    "key_name": "3-(Cyclohexylamino)propanenitrile",
    "cn_name": null,
    "alternate_name": "Propanenitrile, 3-(cyclohexylamino)-;Propionitrile, 3-(cyclohexylamino)-;3-(Cyclohexylamino)propanenitrile;<em>N</em>-(2-Cyanoethyl)cyclohexylamine;3-(Cyclohexylamino)propionitrile;<em>N</em>-(2-Cyanoethyl)-<em>N</em>-cyclohexylamine",
    "duplicated_cas_no": "",
    "SMILES": "N(CCC#N)C1CCCCC1",
    "meta_data": {
        "InChI": "InChI=1S/C9H16N2/c10-7-4-8-11-9-5-2-1-3-6-9/h9,11H,1-6,8H2",
        "InChIKey": null,
        "Canonical SMILES": "N#CCCNC1CCCCC1",
        "Molecular Formula": "C<sub>9</sub>H<sub>16</sub>N<sub>2</sub>",
        "Molecular Mass": "152.24",
        "Boiling Point": "149-151 °C @ Press: 11 Torr"
    }
}