{
    "cas_no": "56069-39-7",
    "key_name": "Diethyl <em>P</em>-[(phenylsulfonyl)methyl]phosphonate",
    "cn_name": null,
    "alternate_name": "Phosphonic acid, <em>P</em>-[(phenylsulfonyl)methyl]-, diethyl ester;Phosphonic acid, [(phenylsulfonyl)methyl]-, diethyl ester;Diethyl <em>P</em>-[(phenylsulfonyl)methyl]phosphonate;Diethyl (phenylsulfonyl)methanephosphonate;Diethyl (phenylsulfonyl)methylphosphonate",
    "duplicated_cas_no": "",
    "SMILES": "P(CS(=O)(=O)C1=CC=CC=C1)(OCC)(OCC)=O",
    "meta_data": {
        "InChI": "InChI=1S/C11H17O5PS/c1-3-15-17(12,16-4-2)10-18(13,14)11-8-6-5-7-9-11/h5-9H,3-4,10H2,1-2H3",
        "InChIKey": null,
        "Canonical SMILES": "O=P(OCC)(OCC)CS(=O)(=O)C=1C=CC=CC1",
        "Molecular Formula": "C<sub>11</sub>H<sub>17</sub>O<sub>5</sub>PS",
        "Molecular Mass": "292.29",
        "Boiling Point": "182-184 °C @ Press: 0.25 Torr",
        "Melting Point": "145-148 °C"
    }
}