{
    "cas_no": "77168-85-5",
    "key_name": "2-Pyrazinecarboxylic acid, 5-chloro-6-methyl-, methyl ester",
    "cn_name": null,
    "alternate_name": "2-Pyrazinecarboxylic acid, 5-chloro-6-methyl-, methyl ester;Pyrazinecarboxylic acid, 5-chloro-6-methyl-, methyl ester;Methyl 5-chloro-6-methylpyrazine-2-carboxylate",
    "duplicated_cas_no": "",
    "SMILES": "C(OC)(=O)C1=NC(C)=C(Cl)N=C1",
    "meta_data": {
        "InChI": "InChI=1S/C7H7ClN2O2/c1-4-6(8)9-3-5(10-4)7(11)12-2/h3H,1-2H3",
        "InChIKey": null,
        "Canonical SMILES": "O=C(OC)C=1N=C(C(Cl)=NC1)C",
        "Molecular Formula": "C<sub>7</sub>H<sub>7</sub>ClN<sub>2</sub>O<sub>2</sub>",
        "Molecular Mass": "186.60",
        "Melting Point": "40-43 °C"
    }
}