{
    "cas_no": "17200-29-2",
    "key_name": "5-Chlorobenzoxazole",
    "cn_name": "5-氯苯并唑;",
    "alternate_name": "Benzoxazole, 5-chloro-;5-Chlorobenzoxazole;NSC 24984;5-Chlorobenzo[<em>d</em>]oxazole",
    "duplicated_cas_no": "",
    "SMILES": "ClC=1C=C2C(=CC1)OC=N2",
    "meta_data": {
        "InChI": "InChI=1S/C7H4ClNO/c8-5-1-2-7-6(3-5)9-4-10-7/h1-4H",
        "InChIKey": null,
        "Canonical SMILES": "ClC=1C=CC=2OC=NC2C1",
        "Molecular Formula": "C<sub>7</sub>H<sub>4</sub>ClNO",
        "Molecular Mass": "153.57",
        "Boiling Point": "201-203 °C",
        "Melting Point": "40-41 °C"
    }
}