{
    "cas_no": "420-04-2",
    "key_name": "Cyanamide",
    "cn_name": "氰胺;氨基氰;单氰胺;",
    "alternate_name": "Cyanamide;Amidocyanogen;Cyanogenamide;Cyanogen nitride;Carbamonitrile;Cyanoamine;Hydrogen cyanamide;<em>N</em>-Cyanoamine;Alzogur;Carbimide;TsAKS;NSC 24133;Dormex;Deurbraak;Cyanamide F 1000;F 1000;Dyhard VP 111;Amino cyanide;CY 100;Dormax;MeSH ID: D003484",
    "duplicated_cas_no": "32729-71-8;65931-45-5",
    "SMILES": "C(N)#N",
    "meta_data": {
        "InChI": "InChI=1S/CH2N2/c2-1-3/h2H2",
        "InChIKey": null,
        "Canonical SMILES": "N#CN",
        "Molecular Formula": "CH<sub>2</sub>N<sub>2</sub>",
        "Molecular Mass": "42.04",
        "Boiling Point": "83 °C @ Press: 0.5 Torr",
        "Melting Point": "45-46 °C",
        "Density": "1.282 g/cm³ @ Temp: 20 °C"
    }
}