{
    "cas_no": "351-38-2",
    "key_name": "2-Chloro-<em>N</em>-[3-(trifluoromethyl)phenyl]acetamide",
    "cn_name": "N-(氯乙酰)-3-(三氟甲基) 苯胺;",
    "alternate_name": "Acetamide, 2-chloro-<em>N</em>-[3-(trifluoromethyl)phenyl]-;<em>m</em>-Acetotoluidide, 2-chloro-α,α,α-trifluoro-;2-Chloro-<em>N</em>-[3-(trifluoromethyl)phenyl]acetamide;<em>N</em>-(3-Trifluoromethylphenyl)-2-chloroacetamide;2-Chloro-<em>m</em>-trifluoromethylacetanilide;[(3-Trifluoromethylphenyl)aminocarbonylmethyl]chloride",
    "duplicated_cas_no": "886792-81-0",
    "SMILES": "N(C(CCl)=O)C1=CC(C(F)(F)F)=CC=C1",
    "meta_data": {
        "InChI": "InChI=1S/C9H7ClF3NO/c10-5-8(15)14-7-3-1-2-6(4-7)9(11,12)13/h1-4H,5H2,(H,14,15)",
        "InChIKey": null,
        "Canonical SMILES": "O=C(NC1=CC=CC(=C1)C(F)(F)F)CCl",
        "Molecular Formula": "C<sub>9</sub>H<sub>7</sub>ClF<sub>3</sub>NO",
        "Molecular Mass": "237.61",
        "Melting Point": "68 °C"
    }
}