{
    "cas_no": "194423-06-8",
    "key_name": "<em>N</em>-[4-[(3-Bromophenyl)amino]-6-quinazolinyl]-2-butynamide",
    "cn_name": null,
    "alternate_name": "2-Butynamide, <em>N</em>-[4-[(3-bromophenyl)amino]-6-quinazolinyl]-;<em>N</em>-[4-[(3-Bromophenyl)amino]-6-quinazolinyl]-2-butynamide;CL 387785;EKI 785;WAY-EKI 785;EKB 785",
    "duplicated_cas_no": "253310-44-0",
    "SMILES": "N(C=1C2=C(C=CC(NC(C#CC)=O)=C2)N=CN1)C3=CC(Br)=CC=C3",
    "meta_data": {
        "InChI": "InChI=1S/C18H13BrN4O/c1-2-4-17(24)22-14-7-8-16-15(10-14)18(21-11-20-16)23-13-6-3-5-12(19)9-13/h3,5-11H,1H3,(H,22,24)(H,20,21,23)",
        "InChIKey": null,
        "Canonical SMILES": "O=C(C#CC)NC=1C=CC2=NC=NC(NC=3C=CC=C(Br)C3)=C2C1",
        "Molecular Formula": "C<sub>18</sub>H<sub>13</sub>BrN<sub>4</sub>O",
        "Molecular Mass": "381.23",
        "Melting Point": "274-276 °C"
    }
}