{
    "cas_no": "18087-76-8",
    "key_name": "6-Chloro-3-nitroimidazo[1,2-<em>b</em>]pyridazine",
    "cn_name": null,
    "alternate_name": "Imidazo[1,2-<em>b</em>]pyridazine, 6-chloro-3-nitro-;6-Chloro-3-nitroimidazo[1,2-<em>b</em>]pyridazine",
    "duplicated_cas_no": "",
    "SMILES": "N(=O)(=O)C=1N2C(=NC1)C=CC(Cl)=N2",
    "meta_data": {
        "InChI": "InChI=1S/C6H3ClN4O2/c7-4-1-2-5-8-3-6(11(12)13)10(5)9-4/h1-3H",
        "InChIKey": null,
        "Canonical SMILES": "O=N(=O)C1=CN=C2C=CC(Cl)=NN21",
        "Molecular Formula": "C<sub>6</sub>H<sub>3</sub>ClN<sub>4</sub>O<sub>2</sub>",
        "Molecular Mass": "198.57",
        "Melting Point": "210 °C"
    }
}