{
    "cas_no": "35602-69-8",
    "key_name": "Cholesteryl stearate",
    "cn_name": "胆甾醇硬脂酸酯;胆固醇硬脂酸酯;",
    "alternate_name": "Cholest-5-en-3-ol (3β)-, 3-octadecanoate;Cholest-5-en-3-ol (3β)-, octadecanoate;Cholesterol, stearate;Stearic acid, cholesteryl ester;Cholesteryl octadecanoate;Cholesteryl stearate;Cholesterol <em>n</em>-octanoate;NSC 59693;Nikkol Cholesteryl Stearate;CE(18:0)",
    "duplicated_cas_no": "1184-05-0;7212-33-1;494202-18-5",
    "SMILES": "C[C@@]12[C@@]3([C@]([C@]4([C@](C)(CC3)[C@@]([C@@H](CCCC(C)C)C)(CC4)[H])[H])(CC=C1C[C@@H](OC(CCCCCCCCCCCCCCCCC)=O)CC2)[H])[H]",
    "meta_data": {
        "InChI": "InChI=1S/C45H80O2/c1-7-8-9-10-11-12-13-14-15-16-17-18-19-20-21-25-43(46)47-38-30-32-44(5)37(34-38)26-27-39-41-29-28-40(36(4)24-22-23-35(2)3)45(41,6)33-31-42(39)44/h26,35-36,38-42H,7-25,27-34H2,1-6H3/t36-,38+,39+,40-,41+,42+,44+,45-/m1/s1",
        "InChIKey": null,
        "Canonical SMILES": "O=C(OC1CC2=CCC3C(CCC4(C)C(CCC34)C(C)CCCC(C)C)C2(C)CC1)CCCCCCCCCCCCCCCCC",
        "Molecular Formula": "C<sub>45</sub>H<sub>80</sub>O<sub>2</sub>",
        "Molecular Mass": "653.12",
        "Melting Point": "82.5 °C"
    }
}