{
    "cas_no": "376-71-6",
    "key_name": "2,2,3,3,4,4,5,5-Octafluoropentanoyl chloride",
    "cn_name": "5H-八氟氯戊醇;5H-辛氟戊酰氯;",
    "alternate_name": "Pentanoyl chloride, 2,2,3,3,4,4,5,5-octafluoro-;Valeryl chloride, 2,2,3,3,4,4,5,5-octafluoro-;2,2,3,3,4,4,5,5-Octafluoropentanoyl chloride;2,2,3,3,4,4,5,5-Octafluorovaleryl chloride",
    "duplicated_cas_no": "",
    "SMILES": "C(C(C(Cl)=O)(F)F)(C(C(F)F)(F)F)(F)F",
    "meta_data": {
        "InChI": "InChI=1S/C5HClF8O/c6-1(15)3(9,10)5(13,14)4(11,12)2(7)8/h2H",
        "InChIKey": null,
        "Canonical SMILES": "O=C(Cl)C(F)(F)C(F)(F)C(F)(F)C(F)F",
        "Molecular Formula": "C<sub>5</sub>HClF<sub>8</sub>O",
        "Molecular Mass": "264.50",
        "Boiling Point": "84.5-86.5 °C"
    }
}