{
    "cas_no": "1176-08-5",
    "key_name": "Phenyltoloxamine citrate",
    "cn_name": "柠檬酸苯托沙敏;N,N-二甲基-2-(alpha-苯基邻甲苯氧基)乙胺柠檬酸盐;",
    "alternate_name": "Ethanamine, <em>N</em>,<em>N</em>-dimethyl-2-[2-(phenylmethyl)phenoxy]-, 2-hydroxy-1,2,3-propanetricarboxylate (1:1);Ethylamine, <em>N</em>,<em>N</em>-dimethyl-2-[(α-phenyl-<em>o</em>-tolyl)oxy]-, citrate (1:1);Phenoxadrine citrate;Phenyltoloxamine citrate;NIH 10121;Sinubid;Mobigesic;Kutrase;NSC 148352;NSC 169860;2-(2-Benzylphenoxy)-<em>N</em>,<em>N</em>-dimethylethanamine 2-hydroxypropane-1,2,3-tricarboxylate",
    "duplicated_cas_no": "",
    "SMILES": "C(C1=C(OCCN(C)C)C=CC=C1)C2=CC=CC=C2.C(CC(O)=O)(CC(O)=O)(C(O)=O)O",
    "meta_data": {
        "InChI": "InChI=1S/C17H21NO.C6H8O7/c1-18(2)12-13-19-17-11-7-6-10-16(17)14-15-8-4-3-5-9-15;7-3(8)1-6(13,5(11)12)2-4(9)10/h3-11H,12-14H2,1-2H3;13H,1-2H2,(H,7,8)(H,9,10)(H,11,12)",
        "InChIKey": null,
        "Canonical SMILES": "O=C(O)CC(O)(C(=O)O)CC(=O)O.O(C=1C=CC=CC1CC=2C=CC=CC2)CCN(C)C",
        "Molecular Formula": "C<sub>17</sub>H<sub>21</sub>NO.C<sub>6</sub>H<sub>8</sub>O<sub>7</sub>",
        "Molecular Mass": "",
        "Melting Point": "138-140 °C"
    }
}