{
    "cas_no": "1071-22-3",
    "key_name": "3-(Trichlorosilyl)propanenitrile",
    "cn_name": "三氯-2-碳硅烷;三氯-2-碳硅烷;",
    "alternate_name": "Propanenitrile, 3-(trichlorosilyl)-;Propionitrile, 3-(trichlorosilyl)-;3-(Trichlorosilyl)propanenitrile;β-Cyanoethyltrichlorosilane;2-Cyanoethyltrichlorosilane;Trichloro(2-cyanoethyl)silane;3-Trichlorosilylpropionitrile;β-(Trichlorosilyl)propionitrile;Trichloro-β-cyanoethylsilane",
    "duplicated_cas_no": "",
    "SMILES": "C([Si](Cl)(Cl)Cl)CC#N",
    "meta_data": {
        "InChI": "InChI=1S/C3H4Cl3NSi/c4-8(5,6)3-1-2-7/h1,3H2",
        "InChIKey": null,
        "Canonical SMILES": "N#CCC[Si](Cl)(Cl)Cl",
        "Molecular Formula": "C<sub>3</sub>H<sub>4</sub>Cl<sub>3</sub>NSi",
        "Molecular Mass": "188.52",
        "Boiling Point": "84-86 °C @ Press: 10 Torr",
        "Melting Point": "32-33 °C",
        "Density": "1.356 g/cm³"
    }
}