{
    "cas_no": "1675-66-7",
    "key_name": "Adelmidrol",
    "cn_name": null,
    "alternate_name": "Nonanediamide, <em>N</em><sup>1</sup>,<em>N</em><sup>9</sup>-bis(2-hydroxyethyl)-;Nonanediamide, <em>N</em>,<em>N</em>′-bis(2-hydroxyethyl)-;<em>N</em><sup>1</sup>,<em>N</em><sup>9</sup>-Bis(2-hydroxyethyl)nonanediamide;Adelmidrol;<em>N</em>,<em>N</em>′-Bis(2-hydroxyethyl)nonanediamide;NSC 27132;<em>N</em>,<em>N</em>′-Bis(2-hydroxyethyl)nonandiamide",
    "duplicated_cas_no": "",
    "SMILES": "C(C(NCCO)=O)CCCCCCC(NCCO)=O",
    "meta_data": {
        "InChI": "InChI=1S/C13H26N2O4/c16-10-8-14-12(18)6-4-2-1-3-5-7-13(19)15-9-11-17/h16-17H,1-11H2,(H,14,18)(H,15,19)",
        "InChIKey": null,
        "Canonical SMILES": "O=C(NCCO)CCCCCCCC(=O)NCCO",
        "Molecular Formula": "C<sub>13</sub>H<sub>26</sub>N<sub>2</sub>O<sub>4</sub>",
        "Molecular Mass": "274.36",
        "Melting Point": "132-134 °C"
    }
}