{
    "cas_no": "922-15-6",
    "key_name": "Methyl 2-(chloromethyl)-2-propenoate",
    "cn_name": "2-(氯甲基)丙烯酸甲酯;",
    "alternate_name": "2-Propenoic acid, 2-(chloromethyl)-, methyl ester;Acrylic acid, 2-(chloromethyl)-, methyl ester;Methyl 2-(chloromethyl)-2-propenoate;Methyl 2-(chloromethyl)acrylate;Methyl α-(chloromethyl)acrylate",
    "duplicated_cas_no": "",
    "SMILES": "C(C(OC)=O)(CCl)=C",
    "meta_data": {
        "InChI": "InChI=1S/C5H7ClO2/c1-4(3-6)5(7)8-2/h1,3H2,2H3",
        "InChIKey": null,
        "Canonical SMILES": "O=C(OC)C(=C)CCl",
        "Molecular Formula": "C<sub>5</sub>H<sub>7</sub>ClO<sub>2</sub>",
        "Molecular Mass": "134.56",
        "Boiling Point": "57-58 °C @ Press: 13 Torr",
        "Density": "1.1899 g/cm³ @ Temp: 20 °C"
    }
}