{
    "cas_no": "1589-49-7",
    "key_name": "3-Methoxy-1-propanol",
    "cn_name": "3-甲氧基-1-丙醇;",
    "alternate_name": "1-Propanol, 3-methoxy-;3-Methoxy-1-propanol;β-Propylene glycol monomethyl ether;Trimethylene glycol monomethyl ether;3-Methoxypropanol;3-(Methyloxy)propan-1-ol;1-Methoxy-3-hydroxypropane",
    "duplicated_cas_no": "",
    "SMILES": "C(COC)CO",
    "meta_data": {
        "InChI": "InChI=1S/C4H10O2/c1-6-4-2-3-5/h5H,2-4H2,1H3",
        "InChIKey": null,
        "Canonical SMILES": "OCCCOC",
        "Molecular Formula": "C<sub>4</sub>H<sub>10</sub>O<sub>2</sub>",
        "Molecular Mass": "90.12",
        "Boiling Point": "66 °C",
        "Density": "0.9455 g/cm³ @ Temp: 20 °C"
    }
}