{
    "cas_no": "6057-60-9",
    "key_name": "[1,1′-Biphenyl]-4-butanoic acid",
    "cn_name": null,
    "alternate_name": "[1,1′-Biphenyl]-4-butanoic acid;Butyric acid, 4-(4-biphenylyl)-;4-Biphenylbutyric acid;Butyric acid, γ-4-biphenylyl-;γ-(4-Biphenylyl)butyric acid;γ-(4-Diphenylyl)butyric acid;γ-(<em>p</em>-Xenyl)butyric acid;4-<em>p</em>-Biphenylylbutanoic acid;4-(4-Phenylphenyl)butyric acid;4-([1,1′-Biphenyl]-4-yl)butanoic acid",
    "duplicated_cas_no": "",
    "SMILES": "C(CCC(O)=O)C1=CC=C(C=C1)C2=CC=CC=C2",
    "meta_data": {
        "InChI": "InChI=1S/C16H16O2/c17-16(18)8-4-5-13-9-11-15(12-10-13)14-6-2-1-3-7-14/h1-3,6-7,9-12H,4-5,8H2,(H,17,18)",
        "InChIKey": null,
        "Canonical SMILES": "O=C(O)CCCC=1C=CC(=CC1)C=2C=CC=CC2",
        "Molecular Formula": "C<sub>16</sub>H<sub>16</sub>O<sub>2</sub>",
        "Molecular Mass": "240.30",
        "Boiling Point": "190 °C @ Press: 0.3 Torr",
        "Melting Point": "118 °C"
    }
}