{
    "cas_no": "3747-74-8",
    "key_name": "2-(Chloromethyl)quinoline hydrochloride",
    "cn_name": "2-氯甲基喹啉盐酸盐;alpha-氯甲基喹啉盐酸盐;",
    "alternate_name": "Quinoline, 2-(chloromethyl)-, hydrochloride (1:1);Quinoline, 2-(chloromethyl)-, hydrochloride;2-(Chloromethyl)quinoline hydrochloride;2-(Chloromethyl)quinoline monohydrochloride;2-Chloromethylchinoline hydrochloride",
    "duplicated_cas_no": "",
    "SMILES": "C(Cl)C1=NC2=C(C=C1)C=CC=C2.Cl",
    "meta_data": {
        "InChI": "InChI=1S/C10H8ClN.ClH/c11-7-9-6-5-8-3-1-2-4-10(8)12-9;/h1-6H,7H2;1H",
        "InChIKey": null,
        "Canonical SMILES": "Cl.ClCC1=NC=2C=CC=CC2C=C1",
        "Molecular Formula": "C<sub>10</sub>H<sub>8</sub>ClN.ClH",
        "Molecular Mass": "",
        "Melting Point": "190-192 °C"
    }
}