{
    "cas_no": "1420-06-0",
    "key_name": "Trifenmorph",
    "cn_name": "蜗螺净;",
    "alternate_name": "Morpholine, 4-(triphenylmethyl)-;Morpholine, 4-trityl-;4-(Triphenylmethyl)morpholine;<em>N</em>-Tritylmorpholine;Shell WL 8008;WL 8008;Frescon;Trifenmorph;Triphenmorphe",
    "duplicated_cas_no": "",
    "SMILES": "C(C1=CC=CC=C1)(C2=CC=CC=C2)(C3=CC=CC=C3)N4CCOCC4",
    "meta_data": {
        "InChI": "InChI=1S/C23H23NO/c1-4-10-20(11-5-1)23(21-12-6-2-7-13-21,22-14-8-3-9-15-22)24-16-18-25-19-17-24/h1-15H,16-19H2",
        "InChIKey": null,
        "Canonical SMILES": "O1CCN(CC1)C(C=2C=CC=CC2)(C=3C=CC=CC3)C=4C=CC=CC4",
        "Molecular Formula": "C<sub>23</sub>H<sub>23</sub>NO",
        "Molecular Mass": "329.43",
        "Melting Point": "174-176 °C"
    }
}