{
    "cas_no": "728919-25-3",
    "key_name": "3-(1-Naphthalenyl)benzenamine",
    "cn_name": null,
    "alternate_name": "Benzenamine, 3-(1-naphthalenyl)-;3-(1-Naphthalenyl)benzenamine;3-(Naphthalen-1-yl)aniline",
    "duplicated_cas_no": "",
    "SMILES": "NC=1C=C(C=2C3=C(C=CC2)C=CC=C3)C=CC1",
    "meta_data": {
        "InChI": "InChI=1S/C16H13N/c17-14-8-3-7-13(11-14)16-10-4-6-12-5-1-2-9-15(12)16/h1-11H,17H2",
        "InChIKey": null,
        "Canonical SMILES": "NC=1C=CC=C(C1)C2=CC=CC=3C=CC=CC32",
        "Molecular Formula": "C<sub>16</sub>H<sub>13</sub>N",
        "Molecular Mass": "219.28",
        "Melting Point": "77-78 °C"
    }
}