{
    "cas_no": "1016-78-0",
    "key_name": "3-Chlorobenzophenone",
    "cn_name": "3-氯二苯甲酮;",
    "alternate_name": "Methanone, (3-chlorophenyl)phenyl-;Benzophenone, 3-chloro-;(3-Chlorophenyl)phenylmethanone;3-Chlorobenzophenone;<em>m</em>-Chlorobenzophenone;NSC 5456;3-Chlorophenyl phenyl ketone;(3-Chlorophenyl)(phenyl)methanone",
    "duplicated_cas_no": "",
    "SMILES": "C(=O)(C1=CC(Cl)=CC=C1)C2=CC=CC=C2",
    "meta_data": {
        "InChI": "InChI=1S/C13H9ClO/c14-12-8-4-7-11(9-12)13(15)10-5-2-1-3-6-10/h1-9H",
        "InChIKey": null,
        "Canonical SMILES": "O=C(C=1C=CC=CC1)C=2C=CC=C(Cl)C2",
        "Molecular Formula": "C<sub>13</sub>H<sub>9</sub>ClO",
        "Molecular Mass": "216.66",
        "Boiling Point": "83.0-83.5 °C",
        "Melting Point": "84 °C"
    }
}