{
    "cas_no": "2402-77-9",
    "key_name": "2,3-Dichloropyridine",
    "cn_name": "2,3-二氯吡啶;",
    "alternate_name": "Pyridine, 2,3-dichloro-;2,3-Dichloropyridine;NSC 298535",
    "duplicated_cas_no": "",
    "SMILES": "ClC1=C(Cl)N=CC=C1",
    "meta_data": {
        "InChI": "InChI=1S/C5H3Cl2N/c6-4-2-1-3-8-5(4)7/h1-3H",
        "InChIKey": null,
        "Canonical SMILES": "ClC1=NC=CC=C1Cl",
        "Molecular Formula": "C<sub>5</sub>H<sub>3</sub>Cl<sub>2</sub>N",
        "Molecular Mass": "147.99",
        "Melting Point": "65-67 °C"
    }
}