{
    "cas_no": "6952-89-2",
    "key_name": "(4-Bromophenyl)cyclopropylmethanone",
    "cn_name": "(4-溴苯基)环丙基甲酮;",
    "alternate_name": "Methanone, (4-bromophenyl)cyclopropyl-;Ketone, <em>p</em>-bromophenyl cyclopropyl;(4-Bromophenyl)cyclopropylmethanone;<em>p</em>-Bromophenyl cyclopropyl ketone;4-Bromophenyl cyclopropyl ketone;Cyclopropyl 4-bromophenyl ketone;NSC 70846",
    "duplicated_cas_no": "",
    "SMILES": "C(=O)(C1CC1)C2=CC=C(Br)C=C2",
    "meta_data": {
        "InChI": "InChI=1S/C10H9BrO/c11-9-5-3-8(4-6-9)10(12)7-1-2-7/h3-7H,1-2H2",
        "InChIKey": null,
        "Canonical SMILES": "O=C(C1=CC=C(Br)C=C1)C2CC2",
        "Molecular Formula": "C<sub>10</sub>H<sub>9</sub>BrO",
        "Molecular Mass": "225.08",
        "Boiling Point": "108-110 °C @ Press: 4-5 Torr",
        "Melting Point": "41-43 °C"
    }
}