{
    "cas_no": "76-21-1",
    "key_name": "2,2,3,3,4,4,5,5,6,6,7,7,8,8,9,9-Hexadecafluorononanoic acid",
    "cn_name": "9H-十六氟壬酸;",
    "alternate_name": "Nonanoic acid, 2,2,3,3,4,4,5,5,6,6,7,7,8,8,9,9-hexadecafluoro-;2,2,3,3,4,4,5,5,6,6,7,7,8,8,9,9-Hexadecafluorononanoic acid;9-H-Hexadecafluorononanoic acid;C 5800",
    "duplicated_cas_no": "1413536-18-1",
    "SMILES": "C(C(C(C(C(F)F)(F)F)(F)F)(F)F)(C(C(C(C(O)=O)(F)F)(F)F)(F)F)(F)F",
    "meta_data": {
        "InChI": "InChI=1S/C9H2F16O2/c10-1(11)3(12,13)5(16,17)7(20,21)9(24,25)8(22,23)6(18,19)4(14,15)2(26)27/h1H,(H,26,27)",
        "InChIKey": null,
        "Canonical SMILES": "O=C(O)C(F)(F)C(F)(F)C(F)(F)C(F)(F)C(F)(F)C(F)(F)C(F)(F)C(F)F",
        "Molecular Formula": "C<sub>9</sub>H<sub>2</sub>F<sub>16</sub>O<sub>2</sub>",
        "Molecular Mass": "446.09",
        "Boiling Point": "220-230 °C",
        "Melting Point": "62-68 °C"
    }
}