{
    "cas_no": "2451-01-6",
    "key_name": "Terpin hydrate",
    "cn_name": "萜品(1,8-萜二醇);",
    "alternate_name": "Cyclohexanemethanol, 4-hydroxy-α,α,4-trimethyl-, hydrate (1:1), <em>cis</em>-;<em>p</em>-Menthane-1,8-diol, monohydrate;Cyclohexanemethanol, 4-hydroxy-α,α,4-trimethyl-, monohydrate, <em>cis</em>-;Terpin hydrate;Terpin monohydrate;Terpinol hydrate;<em>cis</em>-<em>p</em>-Menthane-1,8-diol monohydrate;<em>cis</em>-Terpin hydrate;Terpinene hydrate",
    "duplicated_cas_no": "16485-15-7",
    "SMILES": "C(C)(C)(O)[C@H]1CC[C@@](C)(O)CC1.O",
    "meta_data": {
        "InChI": "InChI=1/C10H20O2.H2O/c1-9(2,11)8-4-6-10(3,12)7-5-8;/h8,11-12H,4-7H2,1-3H3;1H2/t8-,10+;",
        "InChIKey": null,
        "Canonical SMILES": "O.OC1(C)CCC(CC1)C(O)(C)C",
        "Molecular Formula": "C<sub>10</sub>H<sub>20</sub>O<sub>2</sub>.H<sub>2</sub>O",
        "Molecular Mass": "",
        "Melting Point": "116 °C"
    }
}