{
    "cas_no": "539-44-6",
    "key_name": "(4-Methylphenyl)hydrazine",
    "cn_name": "对甲基苯肼;",
    "alternate_name": "Hydrazine, (4-methylphenyl)-;Hydrazine, <em>p</em>-tolyl-;(4-Methylphenyl)hydrazine;<em>p</em>-Tolylhydrazine;<em>p</em>-Methylphenylhydrazine;<em>N</em>-<em>p</em>-Methylphenylhydrazine;1-(4-Methylphenyl)hydrazine",
    "duplicated_cas_no": "",
    "SMILES": "N(N)C1=CC=C(C)C=C1",
    "meta_data": {
        "InChI": "InChI=1S/C7H10N2/c1-6-2-4-7(9-8)5-3-6/h2-5,9H,8H2,1H3",
        "InChIKey": null,
        "Canonical SMILES": "NNC1=CC=C(C=C1)C",
        "Molecular Formula": "C<sub>7</sub>H<sub>10</sub>N<sub>2</sub>",
        "Molecular Mass": "122.17",
        "Melting Point": "61-65 °C"
    }
}