{
    "cas_no": "35081-45-9",
    "key_name": "2-Bromo-1-[4-(phenylmethoxy)phenyl]-1-propanone",
    "cn_name": "4\"-苯甲氧基-2-溴苯丙酮;4-苄氧基-2-溴苯丙酮;",
    "alternate_name": "1-Propanone, 2-bromo-1-[4-(phenylmethoxy)phenyl]-;Propiophenone, 4′-(benzyloxy)-2-bromo-;2-Bromo-1-[4-(phenylmethoxy)phenyl]-1-propanone;<em>p</em>-Benzyloxy-α-bromopropiophenone;4′-(Benzyloxy)-2-bromopropiophenone;2-Bromo-1-(4-benzyloxyphenyl)-1-propanone;NSC 321048;1-(4-Benzyloxyphenyl)-2-bromopropan-1-one",
    "duplicated_cas_no": "66414-19-5",
    "SMILES": "C(C(Br)C)(=O)C1=CC=C(OCC2=CC=CC=C2)C=C1",
    "meta_data": {
        "InChI": "InChI=1S/C16H15BrO2/c1-12(17)16(18)14-7-9-15(10-8-14)19-11-13-5-3-2-4-6-13/h2-10,12H,11H2,1H3",
        "InChIKey": null,
        "Canonical SMILES": "O=C(C1=CC=C(OCC=2C=CC=CC2)C=C1)C(Br)C",
        "Molecular Formula": "C<sub>16</sub>H<sub>15</sub>BrO<sub>2</sub>",
        "Molecular Mass": "319.19",
        "Melting Point": "78-80 °C"
    }
}