{
    "cas_no": "115-17-3",
    "key_name": "Tribromoacetaldehyde",
    "cn_name": "三溴乙醛;",
    "alternate_name": "Acetaldehyde, 2,2,2-tribromo-;Bromal;Acetaldehyde, tribromo-;2,2,2-Tribromoacetaldehyde;Tribromoacetaldehyde;NSC 66406;2,2,2-Tribromoethanal",
    "duplicated_cas_no": "29986-20-7",
    "SMILES": "C(C=O)(Br)(Br)Br",
    "meta_data": {
        "InChI": "InChI=1S/C2HBr3O/c3-2(4,5)1-6/h1H",
        "InChIKey": null,
        "Canonical SMILES": "O=CC(Br)(Br)Br",
        "Molecular Formula": "C<sub>2</sub>HBr<sub>3</sub>O",
        "Molecular Mass": "280.74",
        "Boiling Point": "174 °C",
        "Melting Point": "-57.5 °C",
        "Density": "2.66 g/cm³"
    }
}