{
    "cas_no": "6429-04-5",
    "key_name": "Isoquinoline, 1-[(3,4-dimethoxyphenyl)methyl]-1,2,3,4-tetrahydro-6,7-dimethoxy-, hydrochloride (1:1)",
    "cn_name": "四氢罂粟碱盐酸盐;1-(3,4-二甲氧基苄基)-6,7-二甲氧基-1,2,3,4-四氢异喹啉盐酸盐;",
    "alternate_name": "Isoquinoline, 1-[(3,4-dimethoxyphenyl)methyl]-1,2,3,4-tetrahydro-6,7-dimethoxy-, hydrochloride (1:1);Isoquinoline, 1,2,3,4-tetrahydro-6,7-dimethoxy-1-veratryl-, hydrochloride;Isoquinoline, 1-[(3,4-dimethoxyphenyl)methyl]-1,2,3,4-tetrahydro-6,7-dimethoxy-, hydrochloride;Tetrahydropapaverine hydrochloride;1,2,3,4-Tetrahydropapaverine hydrochloride;(±)-Tetrahydropapaverine hydrochloride;(±)-Norlaudanosine hydrochloride;NSC 118072;NZ 54;1-(3,4-Dimethoxybenzyl)-6,7-dimethoxy-1,2,3,4-tetrahydroisoquinoline hydrochloride",
    "duplicated_cas_no": "66820-84-6",
    "SMILES": "C(C1C=2C(=CC(OC)=C(OC)C2)CCN1)C3=CC(OC)=C(OC)C=C3.Cl",
    "meta_data": {
        "InChI": "InChI=1S/C20H25NO4.ClH/c1-22-17-6-5-13(10-18(17)23-2)9-16-15-12-20(25-4)19(24-3)11-14(15)7-8-21-16;/h5-6,10-12,16,21H,7-9H2,1-4H3;1H",
        "InChIKey": null,
        "Canonical SMILES": "Cl.O(C1=CC=C(C=C1OC)CC2NCCC3=CC(OC)=C(OC)C=C32)C",
        "Molecular Formula": "C<sub>20</sub>H<sub>25</sub>NO<sub>4</sub>.ClH",
        "Molecular Mass": "",
        "Melting Point": "216-218 °C"
    }
}