{
    "cas_no": "84225-95-6",
    "key_name": "Raclopride",
    "cn_name": "雷氯必利;",
    "alternate_name": "Benzamide, 3,5-dichloro-<em>N</em>-[[(2<em>S</em>)-1-ethyl-2-pyrrolidinyl]methyl]-2-hydroxy-6-methoxy-;Benzamide, 3,5-dichloro-<em>N</em>-[(1-ethyl-2-pyrrolidinyl)methyl]-2-hydroxy-6-methoxy-, (<em>S</em>)-;3,5-Dichloro-<em>N</em>-[[(2<em>S</em>)-1-ethyl-2-pyrrolidinyl]methyl]-2-hydroxy-6-methoxybenzamide;FLA 870;Raclopride;(-)-Raclopride;(<em>S</em>)-3,5-Dichloro-<em>N</em>-((1-ethylpyrrolidin-2-yl)methyl)-2-hydroxy-6-methoxybenzamide;3,5-Dichloro-<em>N</em>-[[(2S)-1-ethylpyrrolidin-2-yl]methyl]-2-hydroxy-6-methoxybenzamide",
    "duplicated_cas_no": "104953-11-9",
    "SMILES": "C(NC[C@H]1N(CC)CCC1)(=O)C2=C(OC)C(Cl)=CC(Cl)=C2O",
    "meta_data": {
        "InChI": "InChI=1S/C15H20Cl2N2O3/c1-3-19-6-4-5-9(19)8-18-15(21)12-13(20)10(16)7-11(17)14(12)22-2/h7,9,20H,3-6,8H2,1-2H3,(H,18,21)/t9-/m0/s1",
        "InChIKey": null,
        "Canonical SMILES": "O=C(NCC1N(CC)CCC1)C=2C(O)=C(Cl)C=C(Cl)C2OC",
        "Molecular Formula": "C<sub>15</sub>H<sub>20</sub>Cl<sub>2</sub>N<sub>2</sub>O<sub>3</sub>",
        "Molecular Mass": "347.24",
        "Melting Point": "49-50 °C"
    }
}