{
    "cas_no": "3681-99-0",
    "key_name": "Puerarin",
    "cn_name": "葛根素;葛根黄酮;8-beta-D-葡萄吡喃糖-4\",7-二羟基异黄酮;",
    "alternate_name": "4<em>H</em>-1-Benzopyran-4-one, 8-β-<span class=\"text-smallcaps\">D</span>-glucopyranosyl-7-hydroxy-3-(4-hydroxyphenyl)-;Puerarin;8-β-<span class=\"text-smallcaps\">D</span>-Glucopyranosyl-7-hydroxy-3-(4-hydroxyphenyl)-4<em>H</em>-1-benzopyran-4-one;NPI 031G;Kakonein;Daidzein 8-<em>C</em>-glucoside",
    "duplicated_cas_no": "",
    "SMILES": "OC=1C(=C2C(C(=O)C(=CO2)C3=CC=C(O)C=C3)=CC1)[C@@H]4O[C@H](CO)[C@@H](O)[C@H](O)[C@H]4O",
    "meta_data": {
        "InChI": "InChI=1S/C21H20O9/c22-7-14-17(26)18(27)19(28)21(30-14)15-13(24)6-5-11-16(25)12(8-29-20(11)15)9-1-3-10(23)4-2-9/h1-6,8,14,17-19,21-24,26-28H,7H2/t14-,17-,18+,19-,21+/m1/s1",
        "InChIKey": null,
        "Canonical SMILES": "O=C1C(=COC=2C1=CC=C(O)C2C3OC(CO)C(O)C(O)C3O)C=4C=CC(O)=CC4",
        "Molecular Formula": "C<sub>21</sub>H<sub>20</sub>O<sub>9</sub>",
        "Molecular Mass": "416.38",
        "Melting Point": "187 °C (decomp)"
    }
}