{
    "cas_no": "4885-02-3",
    "key_name": "Dichloromethyl methyl ether",
    "cn_name": "1,1-二氯甲醚;",
    "alternate_name": "Methane, dichloromethoxy-;Ether, dichloromethyl methyl;Dichloromethoxymethane;Dichloromethyl methyl ether;1,1-Dichlorodimethyl ether;1,1-Dichloromethyl methyl ether;α,α-Dichloromethyl methyl ether;Methoxydichloromethane;Methyl α,α-dichloromethyl ether;Chloromyl;NSC 91480",
    "duplicated_cas_no": "",
    "SMILES": "C(OC)(Cl)Cl",
    "meta_data": {
        "InChI": "InChI=1S/C2H4Cl2O/c1-5-2(3)4/h2H,1H3",
        "InChIKey": null,
        "Canonical SMILES": "ClC(Cl)OC",
        "Molecular Formula": "C<sub>2</sub>H<sub>4</sub>Cl<sub>2</sub>O",
        "Molecular Mass": "114.96",
        "Boiling Point": "84-86.5 °C",
        "Density": "1.4299 g/cm³ @ Temp: 20 °C"
    }
}