{
    "cas_no": "123-31-9",
    "key_name": "Hydroquinone",
    "cn_name": "1,4-苯二酚;对苯二酚;",
    "alternate_name": "1,4-Benzenediol;Hydroquinone;Arctuvin;<em>p</em>-Benzenediol;Benzohydroquinone;Benzoquinol;<em>p</em>-Dihydroxybenzene;Eldoquin;Hydroquinol;Quinol;Tecquinol;Tenox HQ;<em>p</em>-Dioxybenzene;<em>p</em>-Hydroquinone;1,4-Dihydroxybenzene;<em>p</em>-Hydroxyphenol;HE 5;Diak 5;Eldopaque;Phiaquin;4-Hydroxyphenol;Dihydroquinone;<em>p</em>-Quinol;BQ(H);<em>p</em>-Dihydroquinone;1,4-Benzoquinol;<em>p</em>-Phenylenediol;Eldoquin Forte;Solaquin Forte;Black &amp; White Bleaching Cream;Eldopacque;Aida;Eldopaque Forte;NSC 9247;Solution Q;1,4-<em>p</em>-Benzenediol;1,4-Phenylenediol;1,4-Benzenediol (hydroquinone)",
    "duplicated_cas_no": "8027-02-9;57534-13-1",
    "SMILES": "OC1=CC=C(O)C=C1",
    "meta_data": {
        "InChI": "InChI=1S/C6H6O2/c7-5-1-2-6(8)4-3-5/h1-4,7-8H",
        "InChIKey": null,
        "Canonical SMILES": "OC1=CC=C(O)C=C1",
        "Molecular Formula": "C<sub>6</sub>H<sub>6</sub>O<sub>2</sub>",
        "Molecular Mass": "110.11",
        "Boiling Point": "285-287 °C",
        "Melting Point": "170-171 °C",
        "Density": "1.332 g/cm³"
    }
}