{
    "cas_no": "479-92-5",
    "key_name": "Propyphenazone",
    "cn_name": "异丙安替比林;1,5-二甲基-4-异丙基-2-苯基-1,2-二氢-3H-吡唑-3-酮;",
    "alternate_name": "3<em>H</em>-Pyrazol-3-one, 1,2-dihydro-1,5-dimethyl-4-(1-methylethyl)-2-phenyl-;Antipyrine, 4-isopropyl-;1,2-Dihydro-1,5-dimethyl-4-(1-methylethyl)-2-phenyl-3<em>H</em>-pyrazol-3-one;Isopropylantipyrine;4-Isopropyl-2,3-dimethyl-1-phenyl-3-pyrazolin-5-one;Isopropylphenazone;Larodon;1-Phenyl-2,3-dimethyl-4-isopropyl-3-pyrazolin-5-one;1-Phenyl-2,3-dimethyl-4-isopropylpyrazol-5-one;Propyphenazone;4-Isopropylantipyrine;1,2-Dihydro-1,5-dimethyl-2-phenyl-4-isopropyl-3<em>H</em>-pyrazol-3-one;Isopropylantipyrin;Isopropyrine;Propyfenazone;Arantil P;Isopropchin;4-Isopropylphenazone;Budirol;Eufibron;Cibalgina;Causyth;1,5-Dimethyl-2-phenyl-4-propan-2-ylpyrazol-3-one",
    "duplicated_cas_no": "128065-64-5;12542-35-7;88205-06-5",
    "SMILES": "O=C1N(N(C)C(C)=C1C(C)C)C2=CC=CC=C2",
    "meta_data": {
        "InChI": "InChI=1S/C14H18N2O/c1-10(2)13-11(3)15(4)16(14(13)17)12-8-6-5-7-9-12/h5-10H,1-4H3",
        "InChIKey": null,
        "Canonical SMILES": "O=C1C(=C(N(N1C=2C=CC=CC2)C)C)C(C)C",
        "Molecular Formula": "C<sub>14</sub>H<sub>18</sub>N<sub>2</sub>O",
        "Molecular Mass": "230.31",
        "Melting Point": "103 °C"
    }
}