{
    "cas_no": "88887-87-0",
    "key_name": "Cyclopropanamine, 1-methyl-, hydrochloride (1:1)",
    "cn_name": null,
    "alternate_name": "Cyclopropanamine, 1-methyl-, hydrochloride (1:1);Cyclopropanamine, 1-methyl-, hydrochloride;1-Methylcyclopropylamine hydrochloride;1-Methyl-1-cyclopropanamine hydrochloride;1-Methylcyclopropanamine hydrochloride;1-Methylcyclopropanaminium chloride;1-Methylcyclopropaneamine hydrochloride",
    "duplicated_cas_no": "2305069-99-0",
    "SMILES": "CC1(N)CC1.Cl",
    "meta_data": {
        "InChI": "InChI=1S/C4H9N.ClH/c1-4(5)2-3-4;/h2-3,5H2,1H3;1H",
        "InChIKey": null,
        "Canonical SMILES": "Cl.NC1(C)CC1",
        "Molecular Formula": "C<sub>4</sub>H<sub>9</sub>N.ClH",
        "Molecular Mass": "",
        "Melting Point": "204-205 °C"
    }
}