{
    "cas_no": "5810-56-0",
    "key_name": "<em>N</em>-4-Piperidinylacetamide",
    "cn_name": "4-乙酰胺基-哌啶;",
    "alternate_name": "Acetamide, <em>N</em>-4-piperidinyl-;Piperidine, 4-acetamido-;<em>N</em>-4-Piperidinylacetamide;4-Acetamidopiperidine;4-Acetylaminopiperidine;<em>N</em>-(4-Piperidinyl)acetamide;4-(<em>N</em>-Ethanoylamino)piperidine;<em>N</em>-(4-Piperidyl)acetamide",
    "duplicated_cas_no": "1198795-18-4",
    "SMILES": "N(C(C)=O)C1CCNCC1",
    "meta_data": {
        "InChI": "InChI=1S/C7H14N2O/c1-6(10)9-7-2-4-8-5-3-7/h7-8H,2-5H2,1H3,(H,9,10)",
        "InChIKey": null,
        "Canonical SMILES": "O=C(NC1CCNCC1)C",
        "Molecular Formula": "C<sub>7</sub>H<sub>14</sub>N<sub>2</sub>O",
        "Molecular Mass": "142.20",
        "Melting Point": "137.8-141 °C"
    }
}