{
    "cas_no": "3377-87-5",
    "key_name": "3-Bromohexane",
    "cn_name": "3-溴己烷;3-溴己烷;",
    "alternate_name": "Hexane, 3-bromo-;3-Bromohexane",
    "duplicated_cas_no": "",
    "SMILES": "C(CCC)(CC)Br",
    "meta_data": {
        "InChI": "InChI=1S/C6H13Br/c1-3-5-6(7)4-2/h6H,3-5H2,1-2H3",
        "InChIKey": null,
        "Canonical SMILES": "BrC(CC)CCC",
        "Molecular Formula": "C<sub>6</sub>H<sub>13</sub>Br",
        "Molecular Mass": "165.07",
        "Boiling Point": "142 °C",
        "Density": "1.1799 g/cm³ @ Temp: 20 °C"
    }
}