{
    "cas_no": "1708-39-0",
    "key_name": "2-Phenyl-1,3-dioxolane-4-methanol",
    "cn_name": "苯甲醛甘油缩醛;",
    "alternate_name": "1,3-Dioxolane-4-methanol, 2-phenyl-;2-Phenyl-1,3-dioxolane-4-methanol;1,2-Benzylideneglycerol;4-(Hydroxymethyl)-2-phenyldioxolane;Benzylideneglycerol;NSC 78968;4-Hydroxymethyl-2-phenyl-1,3-dioxolane;4-Methylol-2-phenyl-1,3-dioxolane;(2-Phenyl-1,3-dioxolan-4-yl)methanol",
    "duplicated_cas_no": "",
    "SMILES": "C(O)C1OC(OC1)C2=CC=CC=C2",
    "meta_data": {
        "InChI": "InChI=1S/C10H12O3/c11-6-9-7-12-10(13-9)8-4-2-1-3-5-8/h1-5,9-11H,6-7H2",
        "InChIKey": null,
        "Canonical SMILES": "OCC1OC(OC1)C=2C=CC=CC2",
        "Molecular Formula": "C<sub>10</sub>H<sub>12</sub>O<sub>3</sub>",
        "Molecular Mass": "180.20",
        "Boiling Point": "145-152 °C @ Press: 3 Torr",
        "Melting Point": "84 °C",
        "Density": "1.190 g/cm³ @ Temp: 25 °C"
    }
}