{
    "cas_no": "1681-37-4",
    "key_name": "4-Amino-3-nitropyridine",
    "cn_name": "4-氨基-3-硝基吡啶;3-硝基-4-氨基吡啶;",
    "alternate_name": "4-Pyridinamine, 3-nitro-;Pyridine, 4-amino-3-nitro-;3-Nitro-4-pyridinamine;4-Amino-3-nitropyridine;3-Nitro-4-aminopyridine",
    "duplicated_cas_no": "",
    "SMILES": "N(=O)(=O)C=1C(N)=CC=NC1",
    "meta_data": {
        "InChI": "InChI=1S/C5H5N3O2/c6-4-1-2-7-3-5(4)8(9)10/h1-3H,(H2,6,7)",
        "InChIKey": null,
        "Canonical SMILES": "O=N(=O)C=1C=NC=CC1N",
        "Molecular Formula": "C<sub>5</sub>H<sub>5</sub>N<sub>3</sub>O<sub>2</sub>",
        "Molecular Mass": "139.11",
        "Melting Point": "203 °C"
    }
}