{
    "cas_no": "15307-79-6",
    "key_name": "Diclofenac sodium",
    "cn_name": "双氯芬酸钠;双氯灭痛;2-[(2,6-二氯苯基)氨基]-苯乙酸钠;",
    "alternate_name": "Benzeneacetic acid, 2-[(2,6-dichlorophenyl)amino]-, sodium salt (1:1);Acetic acid, [<em>o</em>-(2,6-dichloroanilino)phenyl]-, monosodium salt;Benzeneacetic acid, 2-[(2,6-dichlorophenyl)amino]-, monosodium salt;<em>N</em>-(2,6-Dichlorophenyl)-<em>o</em>-aminophenylacetic acid sodium salt;GP 45840;[<em>o</em>-(2,6-Dichloroanilino)phenyl]acetic acid sodium salt;Diclofenac sodium;Voltaren;Diclophenac sodium;Sodium [<em>o</em>-(2,6-dichloroanilino)phenyl]acetate;Sodium diclofenac;Voltarol;Diclofenac sodium salt;Feloran;Orthofen;2-(2,6-Dichloroanilino)phenylacetic acid sodium salt;Orthophen;Hyanalgese D;Inflaban;Naclof;Diklovit;SR 318B;Diclofen SR 100;Sorelmon;Voltaren Ophtha CD;Voltaren Ophtha;Voveran;Voldal;Rhumalgan;Kriplex;Effekton;Duravolten;Dicloreum;Evofenac;Diclo-Puren;Valetan;Neriodin;Dichronic;Novapirina;Dolobasan;Primofenac;Diclord;Diclo-Phlogont;Delphimix;Assaren;Prophenatin;Diclobenin;Xenid;Allvoran;Benfofen;Tsudohmin;Profenac;Fortfen;Diclofenac-Na Emulgel;Diclofenacsodium Emulgel;Dyclo;Diclokalium;Diclorep;Diclodyn;Diacron;Dyloject;Diclobene;Naclofen;Dicloberl Retard;Dicloberl;Dicloran CP;Diclofenac retard;Declophen;Naclofen Duo;diclotard;Refen retard;Refen;Diclon;Dicloflex;Panamor;Modifenac;Abitren;Olfen;Dedolor;Deflamat;Dicloran Plus;Dolaut;Dikloron;Saffrac;Daispas;Bolabomin;Voltral;Diclogesic;2-[2-[(2,6-Dichlorophenyl)amino]phenyl]acetic acid sodium salt;Neurodiclovit;Neurofenac;Phlogin;Diclomol;Dynapar;Voveran Plus;Difene",
    "duplicated_cas_no": "1147187-62-9",
    "SMILES": "N(C1=C(CC(O)=O)C=CC=C1)C2=C(Cl)C=CC=C2Cl.[Na]",
    "meta_data": {
        "InChI": "InChI=1S/C14H11Cl2NO2.Na/c15-10-5-3-6-11(16)14(10)17-12-7-2-1-4-9(12)8-13(18)19;/h1-7,17H,8H2,(H,18,19);",
        "InChIKey": null,
        "Canonical SMILES": "[Na].O=C(O)CC=1C=CC=CC1NC=2C(Cl)=CC=CC2Cl",
        "Molecular Formula": "C<sub>14</sub>H<sub>11</sub>Cl<sub>2</sub>NO<sub>2</sub>.Na",
        "Molecular Mass": "",
        "Melting Point": "283-285 °C",
        "Density": "0.563 g/cm³"
    }
}