{
    "cas_no": "828-01-3",
    "key_name": "(±)-3-Phenyllactic acid",
    "cn_name": null,
    "alternate_name": "Benzenepropanoic acid, α-hydroxy-;Lactic acid, 3-phenyl-, <span class=\"text-smallcaps\">DL</span>-;Benzenepropanoic acid, α-hydroxy-, (±)-;Lactic acid, β-phenyl-;α-Hydroxybenzenepropanoic acid;<span class=\"text-smallcaps\">DL</span>-β-Phenyllactic acid;Ba 2653;<span class=\"text-smallcaps\">DL</span>-3-Phenyllactic acid;(±)-3-Phenyllactic acid;<span class=\"text-smallcaps\">DL</span>-2-Hydroxy-3-phenylpropionic acid;(<em>RS</em>)-3-Phenyllactic acid;3-Phenyllactic acid;β-Phenyllactic acid;2-Hydroxy-3-phenylpropionic acid;α-Hydroxy-β-phenylpropionic acid;3-Phenyl-2-hydroxypropanoic acid;(±)-β-Phenyllactic acid;2-Hydroxy-3-phenylpropanoic acid;NSC 2627;(±)-2-Hydroxy-3-phenylpropanoic acid;α-Hydroxyphenylpropanoic acid;<em>dl</em>-Phenyllactic acid;Rac-Phenyllactic acid;phenylenolpyruvate",
    "duplicated_cas_no": "156-05-8",
    "SMILES": "C(C(C(O)=O)O)C1=CC=CC=C1",
    "meta_data": {
        "InChI": "InChI=1S/C9H10O3/c10-8(9(11)12)6-7-4-2-1-3-5-7/h1-5,8,10H,6H2,(H,11,12)",
        "InChIKey": null,
        "Canonical SMILES": "O=C(O)C(O)CC=1C=CC=CC1",
        "Molecular Formula": "C<sub>9</sub>H<sub>10</sub>O<sub>3</sub>",
        "Molecular Mass": "166.17",
        "Boiling Point": "136 °C @ Press: 0.2 Torr",
        "Melting Point": "98 °C"
    }
}