{
    "cas_no": "280-64-8",
    "key_name": "9-Borabicyclo[3.3.1]nonane",
    "cn_name": "9-硼双环[3.3.1]壬烷;",
    "alternate_name": "9-Borabicyclo[3.3.1]nonane;9-BBN;9-Borylbicyclo[3.3.1]nonane;9-Borabicyclononane",
    "duplicated_cas_no": "",
    "SMILES": "C12BC(CCC1)CCC2",
    "meta_data": {
        "InChI": "InChI=1S/C8H15B/c1-3-7-5-2-6-8(4-1)9-7/h7-9H,1-6H2",
        "InChIKey": null,
        "Canonical SMILES": "B1C2CCCC1CCC2",
        "Molecular Formula": "C<sub>8</sub>H<sub>15</sub>B",
        "Molecular Mass": "122.02",
        "Melting Point": "140-142 °C"
    }
}