{
    "cas_no": "108511-98-4",
    "key_name": "4-Isoxazolamine, hydrochloride (1:1)",
    "cn_name": null,
    "alternate_name": "4-Isoxazolamine, hydrochloride (1:1);4-Isoxazolamine, monohydrochloride;Isoxazol-4-amine hydrochloride;1,2-Oxazol-4-amine hydrochloride;4-Aminoisoxazole hydrochloride",
    "duplicated_cas_no": "",
    "SMILES": "NC=1C=NOC1.Cl",
    "meta_data": {
        "InChI": "InChI=1S/C3H4N2O.ClH/c4-3-1-5-6-2-3;/h1-2H,4H2;1H",
        "InChIKey": null,
        "Canonical SMILES": "Cl.N=1OC=C(N)C1",
        "Molecular Formula": "C<sub>3</sub>H<sub>4</sub>N<sub>2</sub>O.ClH",
        "Molecular Mass": "",
        "Melting Point": "160-163 °C"
    }
}