{
    "cas_no": "1570-64-5",
    "key_name": "4-Chloro-2-methylphenol",
    "cn_name": "4-氯-2-甲基苯酚;4-氯邻甲酚;",
    "alternate_name": "Phenol, 4-chloro-2-methyl-;<em>o</em>-Cresol, 4-chloro-;4-Chloro-2-methylphenol;4-Chloro-<em>o</em>-cresol;<em>p</em>-Chloro-<em>o</em>-cresol;4-Chloro-2-cresol;5-Chloro-2-hydroxytoluene;PCOC;NSC 2851;4-Chlorocresol",
    "duplicated_cas_no": "",
    "SMILES": "CC1=C(O)C=CC(Cl)=C1",
    "meta_data": {
        "InChI": "InChI=1S/C7H7ClO/c1-5-4-6(8)2-3-7(5)9/h2-4,9H,1H3",
        "InChIKey": null,
        "Canonical SMILES": "ClC1=CC=C(O)C(=C1)C",
        "Molecular Formula": "C<sub>7</sub>H<sub>7</sub>ClO",
        "Molecular Mass": "142.58",
        "Boiling Point": "223 °C",
        "Melting Point": "51 °C",
        "Density": "1.2 g/cm³"
    }
}