{
    "cas_no": "152684-26-9",
    "key_name": "5-Bromo-3-methoxy-2-nitropyridine",
    "cn_name": null,
    "alternate_name": "Pyridine, 5-bromo-3-methoxy-2-nitro-;5-Bromo-3-methoxy-2-nitropyridine;3-Bromo-5-methoxy-6-nitropyridine",
    "duplicated_cas_no": "",
    "SMILES": "O(C)C1=C(N(=O)=O)N=CC(Br)=C1",
    "meta_data": {
        "InChI": "InChI=1S/C6H5BrN2O3/c1-12-5-2-4(7)3-8-6(5)9(10)11/h2-3H,1H3",
        "InChIKey": null,
        "Canonical SMILES": "O=N(=O)C1=NC=C(Br)C=C1OC",
        "Molecular Formula": "C<sub>6</sub>H<sub>5</sub>BrN<sub>2</sub>O<sub>3</sub>",
        "Molecular Mass": "233.02",
        "Melting Point": "111.5-112.0 °C"
    }
}