{
    "cas_no": "753-73-1",
    "key_name": "Dimethyltin dichloride",
    "cn_name": "二甲基二氯化锡;二甲基锡;",
    "alternate_name": "Stannane, dichlorodimethyl-;Tin, dimethyl-, dichloride;Dichlorodimethylstannane;Dimethyltin dichloride;Dichlorodimethyltin;Dimethyldichlorostannane;Dimethyldichlorotin;Dimethylstannyl dichloride;Cotin 210;NSC 55159;Dimethyltin(IV) dichloride;Nesstin P",
    "duplicated_cas_no": "",
    "SMILES": "[Sn](C)(C)(Cl)Cl",
    "meta_data": {
        "InChI": "InChI=1S/2CH3.2ClH.Sn/h2*1H3;2*1H;/q;;;;+2/p-2",
        "InChIKey": null,
        "Canonical SMILES": "Cl[Sn](Cl)(C)C",
        "Molecular Formula": "C<sub>2</sub>H<sub>6</sub>Cl<sub>2</sub>Sn",
        "Molecular Mass": "219.68",
        "Boiling Point": "189 °C",
        "Melting Point": "106.5 °C",
        "Density": "1.397 g/cm³"
    }
}