{
    "cas_no": "6214-65-9",
    "key_name": "5-Acetyl-2,4(1<em>H</em>,3<em>H</em>)-pyrimidinedione",
    "cn_name": "5-乙酰基尿嘧啶;",
    "alternate_name": "2,4(1<em>H</em>,3<em>H</em>)-Pyrimidinedione, 5-acetyl-;Uracil, 5-acetyl-;5-Acetyl-2,4(1<em>H</em>,3<em>H</em>)-pyrimidinedione;5-Acetouracil;5-Acetyluracil;NSC 34716;1-(2,4-Dihydroxy-pyrimidin-5-yl)-ethanone",
    "duplicated_cas_no": "",
    "SMILES": "C(C)(=O)C=1C(=O)NC(=O)NC1",
    "meta_data": {
        "InChI": "InChI=1S/C6H6N2O3/c1-3(9)4-2-7-6(11)8-5(4)10/h2H,1H3,(H2,7,8,10,11)",
        "InChIKey": null,
        "Canonical SMILES": "O=C1NC=C(C(=O)N1)C(=O)C",
        "Molecular Formula": "C<sub>6</sub>H<sub>6</sub>N<sub>2</sub>O<sub>3</sub>",
        "Molecular Mass": "154.12",
        "Melting Point": "294 °C (decomp)"
    }
}