{
    "cas_no": "67604-48-2",
    "key_name": "(±)-Naringenin",
    "cn_name": "4\",5,7-三羟基黄烷酮;柚皮素;(±)-2,3-二氢-5,7-二羟基-2-(4-羟苯基)-4H-1-苯并吡喃-4-酮;",
    "alternate_name": "4<em>H</em>-1-Benzopyran-4-one, 2,3-dihydro-5,7-dihydroxy-2-(4-hydroxyphenyl)-;2,3-Dihydro-5,7-dihydroxy-2-(4-hydroxyphenyl)-4<em>H</em>-1-benzopyran-4-one;4′,5,7-Trihydroxyflavanone;5,7,4′-Trihydroxyflavanone;(<em>R</em>,<em>S</em>)-Naringenin;(±)-Naringenin;(<em>RS</em>)-Naringenin;(±)-5,7,4′-Trihydroxyflavanone;ST 057236;5,7-Dihydroxy-2-(4-hydroxyphenyl)-4<em>H</em>-chroman-4-one;5,7-Dihydroxy-2-(4-hydroxyphenyl)chroman-4-one;TCI-CA 03",
    "duplicated_cas_no": "93602-28-9",
    "SMILES": "O=C1C=2C(OC(C1)C3=CC=C(O)C=C3)=CC(O)=CC2O",
    "meta_data": {
        "InChI": "InChI=1S/C15H12O5/c16-9-3-1-8(2-4-9)13-7-12(19)15-11(18)5-10(17)6-14(15)20-13/h1-6,13,16-18H,7H2",
        "InChIKey": null,
        "Canonical SMILES": "O=C1C=2C(O)=CC(O)=CC2OC(C3=CC=C(O)C=C3)C1",
        "Molecular Formula": "C<sub>15</sub>H<sub>12</sub>O<sub>5</sub>",
        "Molecular Mass": "272.25",
        "Melting Point": "248 °C"
    }
}