{
    "cas_no": "56073-07-5",
    "key_name": "Difenacoum",
    "cn_name": "鼠得克;联苯杀鼠萘;3-(3-联苯基-1,2,3,4-四氢萘基-1-基)-4-羟基-2H-1-苯并吡喃-2-酮;",
    "alternate_name": "2<em>H</em>-1-Benzopyran-2-one, 3-(3-[1,1′-biphenyl]-4-yl-1,2,3,4-tetrahydro-1-naphthalenyl)-4-hydroxy-;3-(3-[1,1′-Biphenyl]-4-yl-1,2,3,4-tetrahydro-1-naphthalenyl)-4-hydroxy-2<em>H</em>-1-benzopyran-2-one;Difenacoum;Neosorexa;Diphenacoum;Ratak",
    "duplicated_cas_no": "",
    "SMILES": "OC1=C(C2C=3C(CC(C2)C4=CC=C(C=C4)C5=CC=CC=C5)=CC=CC3)C(=O)OC=6C1=CC=CC6",
    "meta_data": {
        "InChI": "InChI=1S/C31H24O3/c32-30-26-12-6-7-13-28(26)34-31(33)29(30)27-19-24(18-23-10-4-5-11-25(23)27)22-16-14-21(15-17-22)20-8-2-1-3-9-20/h1-17,24,27,32H,18-19H2",
        "InChIKey": null,
        "Canonical SMILES": "O=C1OC=2C=CC=CC2C(O)=C1C3C=4C=CC=CC4CC(C=5C=CC(=CC5)C=6C=CC=CC6)C3",
        "Molecular Formula": "C<sub>31</sub>H<sub>24</sub>O<sub>3</sub>",
        "Molecular Mass": "444.52",
        "Melting Point": "228-232 °C"
    }
}