{
    "cas_no": "522-27-0",
    "key_name": "Furil, dioxime",
    "cn_name": "α-联糠酰二肟;A-联呋喃甲酰二肟;A-联麸酰二肟;A-联糠醛肟;A-联糠肟;α-联糠醛肟;",
    "alternate_name": "1,2-Ethanedione, 1,2-di-2-furanyl-, 1,2-dioxime;Furil, dioxime;Ethanedione, di-2-furanyl-, dioxime;Di-2-furylglyoxime;α-Furil dioxime;Bis(2-furyl)glyoxime;NSC 5055",
    "duplicated_cas_no": "1139-80-6;157524-09-9",
    "SMILES": "C(C(=NO)C1=CC=CO1)(=NO)C2=CC=CO2",
    "meta_data": {
        "InChI": "InChI=1S/C10H8N2O4/c13-11-9(7-3-1-5-15-7)10(12-14)8-4-2-6-16-8/h1-6,13-14H",
        "InChIKey": null,
        "Canonical SMILES": "ON=C(C=1OC=CC1)C(=NO)C=2OC=CC2",
        "Molecular Formula": "C<sub>10</sub>H<sub>8</sub>N<sub>2</sub>O<sub>4</sub>",
        "Molecular Mass": "220.18",
        "Melting Point": "167 °C"
    }
}