{
    "cas_no": "115250-38-9",
    "key_name": "(2<em>R</em>,3<em>S</em>,4<em>S</em>,5<em>S</em>)-5-Hydroxy-2,3,4-tris(phenylmethoxy)-5-[(phenylmethoxy)methyl]cyclohexanone",
    "cn_name": "(2R,3S,4S,5S)-5-羟基-2,3,4-三(苄氧基)-5-[(苄氧基)甲基]-环己酮;",
    "alternate_name": "Cyclohexanone, 5-hydroxy-2,3,4-tris(phenylmethoxy)-5-[(phenylmethoxy)methyl]-, (2<em>R</em>,3<em>S</em>,4<em>S</em>,5<em>S</em>)-;Cyclohexanone, 5-hydroxy-2,3,4-tris(phenylmethoxy)-5-[(phenylmethoxy)methyl]-, [2<em>R</em>-(2α,3β,4α,5α)]-;(2<em>R</em>,3<em>S</em>,4<em>S</em>,5<em>S</em>)-5-Hydroxy-2,3,4-tris(phenylmethoxy)-5-[(phenylmethoxy)methyl]cyclohexanone",
    "duplicated_cas_no": "2348476-17-3",
    "SMILES": "O(CC1=CC=CC=C1)[C@H]2[C@H](OCC3=CC=CC=C3)[C@](COCC4=CC=CC=C4)(O)CC(=O)[C@@H]2OCC5=CC=CC=C5",
    "meta_data": {
        "InChI": "InChI=1S/C35H36O6/c36-31-21-35(37,26-38-22-27-13-5-1-6-14-27)34(41-25-30-19-11-4-12-20-30)33(40-24-29-17-9-3-10-18-29)32(31)39-23-28-15-7-2-8-16-28/h1-20,32-34,37H,21-26H2/t32-,33+,34-,35-/m0/s1",
        "InChIKey": null,
        "Canonical SMILES": "O=C1CC(O)(COCC=2C=CC=CC2)C(OCC=3C=CC=CC3)C(OCC=4C=CC=CC4)C1OCC=5C=CC=CC5",
        "Molecular Formula": "C<sub>35</sub>H<sub>36</sub>O<sub>6</sub>",
        "Molecular Mass": "552.66",
        "Melting Point": "84-85 °C"
    }
}