{
    "cas_no": "103909-75-7",
    "key_name": "Maxacalcitol",
    "cn_name": "马沙骨化醇;",
    "alternate_name": "1,3-Cyclohexanediol, 4-methylene-5-[(2<em>E</em>)-2-[(1<em>S</em>,3a<em>S</em>,7a<em>S</em>)-octahydro-1-[(1<em>S</em>)-1-(3-hydroxy-3-methylbutoxy)ethyl]-7a-methyl-4<em>H</em>-inden-4-ylidene]ethylidene]-, (1<em>R</em>,3<em>S</em>,5<em>Z</em>)-;1,3-Cyclohexanediol, 4-methylene-5-[2-[octahydro-1-[1-(3-hydroxy-3-methylbutoxy)ethyl]-7a-methyl-4<em>H</em>-inden-4-ylidene]ethylidene]-, [1<em>S</em>-[1α(<em>R</em>*),3aβ,4<em>E</em>(1<em>S</em>*,3<em>R</em>*,5<em>Z</em>),7aα]]-;1,3-Cyclohexanediol, 4-methylene-5-[(2<em>E</em>)-[(1<em>S</em>,3a<em>S</em>,7a<em>S</em>)-octahydro-1-[(1<em>S</em>)-1-(3-hydroxy-3-methylbutoxy)ethyl]-7a-methyl-4<em>H</em>-inden-4-ylidene]ethylidene]-, (1<em>R</em>,3<em>S</em>,5<em>Z</em>)-;(1<em>R</em>,3<em>S</em>,5<em>Z</em>)-4-Methylene-5-[(2<em>E</em>)-2-[(1<em>S</em>,3a<em>S</em>,7a<em>S</em>)-octahydro-1-[(1<em>S</em>)-1-(3-hydroxy-3-methylbutoxy)ethyl]-7a-methyl-4<em>H</em>-inden-4-ylidene]ethylidene]-1,3-cyclohexanediol;22-Oxacalcitriol;22-Oxa-1α,25-dihydroxyvitamin D<sub>3</sub>;22-Oxa-1,25-dihydroxyvitamin D<sub>3</sub>;MC 1275;1α,25-Dihydroxy-22-oxavitamin D<sub>3</sub>;Maxacalcitol;OCT;Sch 209579;Prezios;OCT (steroid);Oxarol",
    "duplicated_cas_no": "",
    "SMILES": "C[C@@]12[C@](\\C(=C\\C=C\\3/C(=C)[C@@H](O)C[C@H](O)C3)\\CCC1)(CC[C@@]2([C@@H](OCCC(C)(C)O)C)[H])[H]",
    "meta_data": {
        "InChI": "InChI=1S/C26H42O4/c1-17-20(15-21(27)16-24(17)28)9-8-19-7-6-12-26(5)22(10-11-23(19)26)18(2)30-14-13-25(3,4)29/h8-9,18,21-24,27-29H,1,6-7,10-16H2,2-5H3/b19-8+,20-9-/t18-,21+,22+,23-,24-,26+/m0/s1",
        "InChIKey": null,
        "Canonical SMILES": "OC1C(=C)C(=CC=C2CCCC3(C)C2CCC3C(OCCC(O)(C)C)C)CC(O)C1",
        "Molecular Formula": "C<sub>26</sub>H<sub>42</sub>O<sub>4</sub>",
        "Molecular Mass": "418.61",
        "Melting Point": "122 °C"
    }
}