{
    "cas_no": "38966-21-1",
    "key_name": "Aphidicolin",
    "cn_name": null,
    "alternate_name": "8,11a-Methano-11a<em>H</em>-cyclohepta[<em>a</em>]naphthalene-4,9-dimethanol, tetradecahydro-3,9-dihydroxy-4,11b-dimethyl-, (3<em>R</em>,4<em>R</em>,4a<em>R</em>,6a<em>S</em>,8<em>R</em>,9<em>R</em>,11a<em>S</em>,11b<em>S</em>)-;9,15-Cyclo-<em>C</em>,18-dinor-14,15-secoandrostane-4,17-dimethanol, 3,17-dihydroxy-4-methyl-, (3α,4α,5α,17α)-;(3<em>R</em>,4<em>R</em>,4a<em>R</em>,6a<em>S</em>,8<em>R</em>,9<em>R</em>,11a<em>S</em>,11b<em>S</em>)-Tetradecahydro-3,9-dihydroxy-4,11b-dimethyl-8,11a-methano-11a<em>H</em>-cyclohepta[<em>a</em>]naphthalene-4,9-dimethanol;8,11a-Methano-11a<em>H</em>-cyclohepta[<em>a</em>]naphthalene-4,9-dimethanol, tetradecahydro-3,9-dihydroxy-4,11b-dimethyl-, [3<em>R</em>-(3α,4α,4aα,6aβ,8β,9β,11aβ,11bβ)]-;Aphidicolin;ICI 69653;NSC 234714;(+)-Aphidicolin;MeSH ID: D016590",
    "duplicated_cas_no": "53334-90-0",
    "SMILES": "C[C@@]12[C@]34[C@](C[C@](C3)([C@](CO)(O)CC4)[H])(CC[C@]1([C@@](CO)(C)[C@H](O)CC2)[H])[H]",
    "meta_data": {
        "InChI": "InChI=1S/C20H34O4/c1-17(11-21)15-4-3-13-9-14-10-19(13,7-8-20(14,24)12-22)18(15,2)6-5-16(17)23/h13-16,21-24H,3-12H2,1-2H3/t13-,14+,15-,16+,17-,18-,19-,20-/m0/s1",
        "InChIKey": null,
        "Canonical SMILES": "OCC1(O)CCC23CC1CC3CCC4C(C)(CO)C(O)CCC42C",
        "Molecular Formula": "C<sub>20</sub>H<sub>34</sub>O<sub>4</sub>",
        "Molecular Mass": "338.48",
        "Melting Point": "227-233 °C"
    }
}