{
    "cas_no": "6338-55-2",
    "key_name": "2-[2-(2-Aminoethoxy)ethoxy]ethanol",
    "cn_name": null,
    "alternate_name": "Ethanol, 2-[2-(2-aminoethoxy)ethoxy]-;2-[2-(2-Aminoethoxy)ethoxy]ethanol;Triethylene glycol monoamine;T<sub>3</sub>EGMA;8-Amino-3,6-dioxa-1-octanol;Triglycolamine;MA 10;NSC 40760;8-Amino-3,6-dioxaoctanol;2-[2-(2-Hydroxyethoxy)ethoxy]ethylamine;3,6,9-Trioxadecylamine;2-[2-(2-Aminoethoxy)ethoxy]ethan-1-ol",
    "duplicated_cas_no": "",
    "SMILES": "C(COCCO)OCCN",
    "meta_data": {
        "InChI": "InChI=1S/C6H15NO3/c7-1-3-9-5-6-10-4-2-8/h8H,1-7H2",
        "InChIKey": null,
        "Canonical SMILES": "OCCOCCOCCN",
        "Molecular Formula": "C<sub>6</sub>H<sub>15</sub>NO<sub>3</sub>",
        "Molecular Mass": "149.19",
        "Boiling Point": "120-130 °C @ Press: 4 Torr",
        "Density": "1.0773 g/cm³ @ Temp: 20 °C"
    }
}