{
    "cas_no": "1195-14-8",
    "key_name": "2-Methylbenzothiophene",
    "cn_name": "2-甲基苯并噻吩;",
    "alternate_name": "Benzo[<em>b</em>]thiophene, 2-methyl-;2-Methylbenzo[<em>b</em>]thiophene;2-Methylbenzothiophene;2-Methyl-1-benzothiophene;2-Methylthianaphthene;NSC 18869",
    "duplicated_cas_no": "",
    "SMILES": "CC1=CC=2C(S1)=CC=CC2",
    "meta_data": {
        "InChI": "InChI=1S/C9H8S/c1-7-6-8-4-2-3-5-9(8)10-7/h2-6H,1H3",
        "InChIKey": null,
        "Canonical SMILES": "S1C=2C=CC=CC2C=C1C",
        "Molecular Formula": "C<sub>9</sub>H<sub>8</sub>S",
        "Molecular Mass": "148.22",
        "Boiling Point": "105-108 °C @ Press: 10 Torr",
        "Melting Point": "51-52 °C",
        "Density": "1.27 g/cm³"
    }
}