{
    "cas_no": "6164-79-0",
    "key_name": "Methyl 2-pyrazinecarboxylate",
    "cn_name": "吡嗪-2-羧酸甲酯;吡嗪-2-羧酸甲酯;吡嗪羧酸甲酯;",
    "alternate_name": "2-Pyrazinecarboxylic acid, methyl ester;Pyrazinecarboxylic acid, methyl ester;Pyrazinoic acid methyl ester;Methyl 2-pyrazinecarboxylate;Pyrazine-2-carboxylic acid, methyl ester;Methyl pyrazinoate;Methyl pyrazinecarboxylate;2-Methoxycarbonylpyrazine;NSC 32337",
    "duplicated_cas_no": "",
    "SMILES": "C(OC)(=O)C=1C=NC=CN1",
    "meta_data": {
        "InChI": "InChI=1S/C6H6N2O2/c1-10-6(9)5-4-7-2-3-8-5/h2-4H,1H3",
        "InChIKey": null,
        "Canonical SMILES": "O=C(OC)C1=NC=CN=C1",
        "Molecular Formula": "C<sub>6</sub>H<sub>6</sub>N<sub>2</sub>O<sub>2</sub>",
        "Molecular Mass": "138.12",
        "Melting Point": "59 °C"
    }
}