{
    "cas_no": "1892-43-9",
    "key_name": "2-(4-Chlorophenoxy)ethanol",
    "cn_name": "2-(4-氯苯氧基)乙醇;2-(4-氯苯氧)乙醇;",
    "alternate_name": "Ethanol, 2-(4-chlorophenoxy)-;Ethanol, 2-(<em>p</em>-chlorophenoxy)-;2-(4-Chlorophenoxy)ethanol;2-(<em>p</em>-Chlorophenoxy)ethanol;Chloro-<em>p</em>-phenoxetol;<em>p</em>-Chlorophenyl monoglycol ether;<em>p</em>-Chlorophenyl glycol ether;Chlorophetanol;Fungisan;<em>p</em>-Chlorophenyl 2-hydroxyethyl ether;Mycotetracid;4-(2-Hydroxyethoxy)chlorobenzene;β-(<em>p</em>-Chlorophenoxy)ethanol;FKE 01;NSC 8133;2-(4-Chlorophenoxy)ethan-1-ol",
    "duplicated_cas_no": "",
    "SMILES": "O(CCO)C1=CC=C(Cl)C=C1",
    "meta_data": {
        "InChI": "InChI=1S/C8H9ClO2/c9-7-1-3-8(4-2-7)11-6-5-10/h1-4,10H,5-6H2",
        "InChIKey": null,
        "Canonical SMILES": "ClC1=CC=C(OCCO)C=C1",
        "Molecular Formula": "C<sub>8</sub>H<sub>9</sub>ClO<sub>2</sub>",
        "Molecular Mass": "172.61",
        "Boiling Point": "178 °C @ Press: 35 Torr",
        "Melting Point": "28 °C"
    }
}