{
    "cas_no": "3637-26-1",
    "key_name": "Sulfobetaine methacrylate",
    "cn_name": "3-[N,N-二甲基-[2-(2-甲基丙-2-烯酰氧基)乙基]铵]丙烷-1-磺酸内盐;甲基丙烯酰乙基磺基甜菜碱;",
    "alternate_name": "1-Propanaminium, <em>N</em>,<em>N</em>-dimethyl-<em>N</em>-[2-[(2-methyl-1-oxo-2-propen-1-yl)oxy]ethyl]-3-sulfo-, inner salt;Ammonium, (2-hydroxyethyl)dimethyl(3-sulfopropyl)-, hydroxide, inner salt, methacrylate;1-Propanaminium, <em>N</em>,<em>N</em>-dimethyl-<em>N</em>-[2-[(2-methyl-1-oxo-2-propenyl)oxy]ethyl]-3-sulfo-, hydroxide, inner salt;(2-Hydroxyethyl)dimethyl(3-sulfopropyl)ammonium hydroxide, inner salt, methacrylate;1-Propanaminium, <em>N</em>,<em>N</em>-dimethyl-<em>N</em>-[2-[(2-methyl-1-oxo-2-propenyl)oxy]ethyl]-3-sulfo-, inner salt;<em>N</em>-[2-(Methacryloyloxy)ethyl]-<em>N</em>,<em>N</em>-dimethyl-<em>N</em>-(3-sulfopropyl)betaine;[2-(Methacryloyloxy)ethyl]dimethyl(3-sulfopropyl)ammonium hydroxide inner salt;SPE;Hartomer HB 6380;Dimethyl(2-methacryloyloxyethyl)(3-sulfopropyl)ammonium;3-[Dimethyl(methacryloyloxyethyl)ammonium]propanesulfonate;3-[<em>N</em>,<em>N</em>-Dimethyl-<em>N</em>-(methacryloyloxyethyl)ammonium]propanesulfonate;<em>N</em>-(3-Sulfopropyl)-<em>N</em>-(methacryloyloxyethyl)-<em>N</em>,<em>N</em>-dimethylammonium betaine;<em>N</em>,<em>N</em>-Dimethyl-<em>N</em>-methacryloyloxyethyl-<em>N</em>-(3-sulfopropyl)ammonium inner salt;<em>N</em>,<em>N</em>-Dimethyl-<em>N</em>-[2-(methacryloyloxy)ethyl]-<em>N</em>-(3-sulfopropyl)ammonium betaine;<em>N</em>,<em>N</em>-Dimethyl(methacryloyloxyethyl)ammonium propanesulfonate;DMAPS;<em>N</em>-(2-Methacryloyloxyethyl)-<em>N</em>,<em>N</em>-dimethyl-<em>N</em>-(sulfopropyl)betain;Ralu Mer SPE;Sulfobetaine methacrylate;[2-(Methacryloyloxy)ethyl]dimethyl(3-sulfopropyl)ammonium hydroxide;<em>N</em>,<em>N</em>-Dimethyl-<em>N</em>-(3-sulfonatopropyl)-2-(methacryloyloxy)ethane-1-aminium;<em>N</em>-(3-Sulfopropyl)-<em>N</em>-(methacryloxyethyl)-<em>N</em>,<em>N</em>-dimethylammonium betaine;<em>N</em>,<em>N</em>-Dimethyl-<em>N</em>-(2-methacryloxyethyl)-<em>N</em>-(3-sulfopropyl)ammonium betaine;<em>N</em>-(2-Methacryloyloxy)ethyl-<em>N</em>,<em>N</em>-dimethylammonio propanesulfonate",
    "duplicated_cas_no": "129159-69-9;173688-20-5;286466-39-5;856584-82-2;856584-83-3;1217193-22-0;1217193-24-2;1309761-98-5;1574377-20-0;2593567-28-1",
    "SMILES": "[N+](CCOC(C(C)=C)=O)(CCCS(=O)(=O)[O-])(C)C",
    "meta_data": {
        "InChI": "InChI=1S/C11H21NO5S/c1-10(2)11(13)17-8-7-12(3,4)6-5-9-18(14,15)16/h1,5-9H2,2-4H3",
        "InChIKey": null,
        "Canonical SMILES": "O=C(OCC[N+](C)(C)CCCS(=O)(=O)[O-])C(=C)C",
        "Molecular Formula": "C<sub>11</sub>H<sub>21</sub>NO<sub>5</sub>S",
        "Molecular Mass": "",
        "Melting Point": "148-149 °C",
        "Density": "1.30 g/cm³"
    }
}