{
    "cas_no": "69064-37-5",
    "key_name": "<em>trans</em>-2-Dodecen-1-ol",
    "cn_name": null,
    "alternate_name": "2-Dodecen-1-ol, (2<em>E</em>)-;2-Dodecen-1-ol, (<em>E</em>)-;(2<em>E</em>)-2-Dodecen-1-ol;(<em>E</em>)-2-Dodecen-1-ol;<em>trans</em>-2-Dodecen-1-ol;(E)-Dodec-2-en-1-ol",
    "duplicated_cas_no": "",
    "SMILES": "C(CCCCCC)CC/C=C/CO",
    "meta_data": {
        "InChI": "InChI=1S/C12H24O/c1-2-3-4-5-6-7-8-9-10-11-12-13/h10-11,13H,2-9,12H2,1H3/b11-10+",
        "InChIKey": null,
        "Canonical SMILES": "OCC=CCCCCCCCCC",
        "Molecular Formula": "C<sub>12</sub>H<sub>24</sub>O",
        "Molecular Mass": "184.32",
        "Boiling Point": "104 °C @ Press: 4 Torr"
    }
}