{
    "cas_no": "115-69-5",
    "key_name": "2-Amino-2-methyl-1,3-propanediol",
    "cn_name": "2-氨基-2-甲基-1,3-丙二醇;",
    "alternate_name": "1,3-Propanediol, 2-amino-2-methyl-;2-Amino-2-methyl-1,3-propanediol;Aminoglycol;AMPD;1,1-Di(hydroxymethyl)ethylamine;1,3-Dihydroxy-2-amino-2-methylpropane;1,3-Dihydroxy-2-methyl-2-propylamine;2-Methyl-2-amino-1,3-propanediol;Amediol;Ammediol;Bis;2-Amino-2-methylpropan-1,3-diol;NSC 6364;AMPD Ultra PC;2-Amino-2-methyl-1,3-propanol;2-Amino-2-methylpropane-l,3-diol",
    "duplicated_cas_no": "17162-11-7",
    "SMILES": "C(CO)(CO)(C)N",
    "meta_data": {
        "InChI": "InChI=1S/C4H11NO2/c1-4(5,2-6)3-7/h6-7H,2-3,5H2,1H3",
        "InChIKey": null,
        "Canonical SMILES": "OCC(N)(C)CO",
        "Molecular Formula": "C<sub>4</sub>H<sub>11</sub>NO<sub>2</sub>",
        "Molecular Mass": "105.14",
        "Boiling Point": "151-152 °C",
        "Melting Point": "110 °C"
    }
}