{
    "cas_no": "4727-41-7",
    "key_name": "Dimethylsulfonioacetate",
    "cn_name": "二甲基乙酸噻亭;",
    "alternate_name": "Sulfonium, (carboxymethyl)dimethyl-, inner salt;Sulfonium, (carboxymethyl)dimethyl-, hydroxide, inner salt;(Carboxymethyl)dimethylsulfonium hydroxide, inner salt;Acetothetin, dimethyl-;Thiobetaine;Dimethylthetin;Dimethylsulfonioacetate;Thetin, dimethyl-;2,2-Dimethylthetin;Sulfobetaine;2-(Dimethylsulfaniumyl)acetate;2-Dimethylsulfonioacetate",
    "duplicated_cas_no": "13201-64-4",
    "SMILES": "C(C([O-])=O)[S+](C)C",
    "meta_data": {
        "InChI": "InChI=1S/C4H8O2S/c1-7(2)3-4(5)6/h3H2,1-2H3",
        "InChIKey": null,
        "Canonical SMILES": "O=C([O-])C[S+](C)C",
        "Molecular Formula": "C<sub>4</sub>H<sub>8</sub>O<sub>2</sub>S",
        "Molecular Mass": "",
        "Melting Point": "241-242 °C"
    }
}