{
    "cas_no": "112-39-0",
    "key_name": "Methyl palmitate",
    "cn_name": "棕榈酸甲酯;十六酸甲酯;十六烷酸甲酯;",
    "alternate_name": "Hexadecanoic acid, methyl ester;Palmitic acid, methyl ester;Metholene 2216;Methyl hexadecanoate;Methyl palmitate;Uniphat A60;Methyl <em>n</em>-hexadecanoate;<em>n</em>-Hexadecanoic acid methyl ester;Emery 2216;Pastell M 16;NSC 4197;Edenor ME-C 16-80MY;Edenor ME C16-98;Radia 7120;Radia 7916",
    "duplicated_cas_no": "",
    "SMILES": "C(CCCCCCCCCCC)CCCC(OC)=O",
    "meta_data": {
        "InChI": "InChI=1S/C17H34O2/c1-3-4-5-6-7-8-9-10-11-12-13-14-15-16-17(18)19-2/h3-16H2,1-2H3",
        "InChIKey": null,
        "Canonical SMILES": "O=C(OC)CCCCCCCCCCCCCCC",
        "Molecular Formula": "C<sub>17</sub>H<sub>34</sub>O<sub>2</sub>",
        "Molecular Mass": "270.45",
        "Boiling Point": "417 °C",
        "Melting Point": "30 °C",
        "Density": "8.674 x 10⁻⁴ g/cm³ @ Temp: 20 °C"
    }
}