{
    "cas_no": "110-62-3",
    "key_name": "Pentanal",
    "cn_name": "戊醛;正戊醛;",
    "alternate_name": "Pentanal;Valeraldehyde;Valeral;Valeric aldehyde;<em>n</em>-Valeraldehyde;<em>n</em>-Pentanal;Valeric acid aldehyde;Pentylaldehyde;NSC 35404;Amyl aldehyde",
    "duplicated_cas_no": "",
    "SMILES": "C(CC=O)CC",
    "meta_data": {
        "InChI": "InChI=1S/C5H10O/c1-2-3-4-5-6/h5H,2-4H2,1H3",
        "InChIKey": null,
        "Canonical SMILES": "O=CCCCC",
        "Molecular Formula": "C<sub>5</sub>H<sub>10</sub>O",
        "Molecular Mass": "86.13",
        "Boiling Point": "103 °C @ Press: 760 Torr",
        "Melting Point": "-91.5 °C",
        "Density": "0.8095 g/cm³ @ Temp: 20 °C"
    }
}