{
    "cas_no": "119169-78-7",
    "key_name": "Epristeride",
    "cn_name": "爱普列特;17b-(N-叔丁基氨基甲酰基)雄甾-3,5-二烯-3-羧酸;",
    "alternate_name": "Androsta-3,5-diene-3-carboxylic acid, 17-[[(1,1-dimethylethyl)amino]carbonyl]-, (17β)-;(17β)-17-[[(1,1-Dimethylethyl)amino]carbonyl]androsta-3,5-diene-3-carboxylic acid;SKF 105657;17β-(<em>tert</em>-Butylcarbamoyl)androsta-3,5-diene-3-carboxylic acid;Epristeride;<em>N</em>-<em>tert</em>-Butylandrosta-3,5-diene-17β-carboxamide-3-carboxylic acid;ONO 9302",
    "duplicated_cas_no": "",
    "SMILES": "C[C@@]12[C@]([C@]3([C@@]([C@]4(C)C(=CC3)C=C(C(O)=O)CC4)(CC1)[H])[H])(CC[C@@H]2C(NC(C)(C)C)=O)[H]",
    "meta_data": {
        "InChI": "InChI=1S/C25H37NO3/c1-23(2,3)26-21(27)20-9-8-18-17-7-6-16-14-15(22(28)29)10-12-24(16,4)19(17)11-13-25(18,20)5/h6,14,17-20H,7-13H2,1-5H3,(H,26,27)(H,28,29)/t17-,18-,19-,20+,24-,25-/m0/s1",
        "InChIKey": null,
        "Canonical SMILES": "O=C(O)C1=CC2=CCC3C(CCC4(C)C(C(=O)NC(C)(C)C)CCC34)C2(C)CC1",
        "Molecular Formula": "C<sub>25</sub>H<sub>37</sub>NO<sub>3</sub>",
        "Molecular Mass": "399.57",
        "Melting Point": "242-249 °C"
    }
}