{
    "cas_no": "31599-60-7",
    "key_name": "1-Iodo-2,3-dimethylbenzene",
    "cn_name": "1,2-二甲基-3-碘苯;3-碘邻二甲苯;",
    "alternate_name": "Benzene, 1-iodo-2,3-dimethyl-;<em>o</em>-Xylene, 3-iodo-;1-Iodo-2,3-dimethylbenzene;3-Iodo-<em>o</em>-xylene;1,2-Dimethyl-3-iodobenzene;3-Iodo-1,2-dimethylbenzene;2,3-Dimethyl-1-iodobenzene;2,3-Dimethyliodobenzene",
    "duplicated_cas_no": "",
    "SMILES": "CC1=C(C)C=CC=C1I",
    "meta_data": {
        "InChI": "InChI=1S/C8H9I/c1-6-4-3-5-8(9)7(6)2/h3-5H,1-2H3",
        "InChIKey": null,
        "Canonical SMILES": "IC1=CC=CC(=C1C)C",
        "Molecular Formula": "C<sub>8</sub>H<sub>9</sub>I",
        "Molecular Mass": "232.06",
        "Boiling Point": "80-82 °C @ Press: 2 Torr"
    }
}