{
    "cas_no": "4965-36-0",
    "key_name": "7-Bromoquinoline",
    "cn_name": "7-溴喹啉;",
    "alternate_name": "Quinoline, 7-bromo-;7-Bromoquinoline",
    "duplicated_cas_no": "",
    "SMILES": "BrC1=CC2=C(C=C1)C=CC=N2",
    "meta_data": {
        "InChI": "InChI=1S/C9H6BrN/c10-8-4-3-7-2-1-5-11-9(7)6-8/h1-6H",
        "InChIKey": null,
        "Canonical SMILES": "BrC1=CC=C2C=CC=NC2=C1",
        "Molecular Formula": "C<sub>9</sub>H<sub>6</sub>BrN",
        "Molecular Mass": "208.05",
        "Boiling Point": "290 °C",
        "Melting Point": "34 °C"
    }
}