{
    "cas_no": "2768-90-3",
    "key_name": "Pinacyanol chloride",
    "cn_name": "胰岛素原;1-乙基-2-[3-[1-乙基-2-(1H)-喹啉亚基]-1-丙烯基]喹啉翁氯;氯化频哪氰醇;",
    "alternate_name": "Quinolinium, 1-ethyl-2-[3-(1-ethyl-2(1<em>H</em>)-quinolinylidene)-1-propen-1-yl]-, chloride (1:1);Quinolinium, 1-ethyl-2-[3-(1-ethyl-2(1<em>H</em>)-quinolylidene)propenyl]-, chloride;Quinolinium, 1-ethyl-2-[3-(1-ethyl-2(1<em>H</em>)-quinolinylidene)-1-propenyl]-, chloride;1-Ethyl-2-[3-(1-ethyl-2(1<em>H</em>)-quinolylidene)propenyl]quinolinium chloride;Quinaldine blue;Vernitest reagent;Pinacyanol chloride;1,1′-Diethyl-2,2′-carbocyanine chloride;1,1′-Diethyl-2,2′-quinocarbocyanine chloride;Vernitest",
    "duplicated_cas_no": "",
    "SMILES": "C(C)N1C=2C(C=CC1=CC=CC3=[N+](CC)C4=C(C=C3)C=CC=C4)=CC=CC2.[Cl-]",
    "meta_data": {
        "InChI": "InChI=1S/C25H25N2.ClH/c1-3-26-22(18-16-20-10-5-7-14-24(20)26)12-9-13-23-19-17-21-11-6-8-15-25(21)27(23)4-2;/h5-19H,3-4H2,1-2H3;1H/q+1;/p-1",
        "InChIKey": null,
        "Canonical SMILES": "[Cl-].C=1C=CC2=C(C1)C=CC(=CC=CC=3C=CC=4C=CC=CC4[N+]3CC)N2CC",
        "Molecular Formula": "C<sub>25</sub>H<sub>25</sub>N<sub>2</sub>.Cl",
        "Molecular Mass": "",
        "Melting Point": "263 °C (decomp)"
    }
}