{
    "cas_no": "555-21-5",
    "key_name": "4-Nitrophenylacetonitrile",
    "cn_name": "对硝基苯乙腈;",
    "alternate_name": "Benzeneacetonitrile, 4-nitro-;Acetonitrile, (<em>p</em>-nitrophenyl)-;4-Nitrobenzeneacetonitrile;<em>p</em>-Nitrobenzyl cyanide;<em>p</em>-Nitro-α-tolunitrile;(<em>p</em>-Nitrophenyl)acetonitrile;<em>p</em>-Nitrobenzeneacetonitrile;4-Nitrobenzyl cyanide;4-Nitrophenylacetonitrile;NSC 5396;4-Nitrobenzyl nitrile;1-(4-Nitrophenyl)acetonitrile;2-(4-Nitrophenyl)acetonitrile",
    "duplicated_cas_no": "",
    "SMILES": "N(=O)(=O)C1=CC=C(CC#N)C=C1",
    "meta_data": {
        "InChI": "InChI=1S/C8H6N2O2/c9-6-5-7-1-3-8(4-2-7)10(11)12/h1-4H,5H2",
        "InChIKey": null,
        "Canonical SMILES": "N#CCC1=CC=C(C=C1)N(=O)=O",
        "Molecular Formula": "C<sub>8</sub>H<sub>6</sub>N<sub>2</sub>O<sub>2</sub>",
        "Molecular Mass": "162.15",
        "Melting Point": "117 °C"
    }
}