{
    "cas_no": "14959-86-5",
    "key_name": "(<em>Z</em>)-7-Dodecenyl acetate",
    "cn_name": null,
    "alternate_name": "7-Dodecen-1-ol, acetate, (7<em>Z</em>)-;7-Dodecen-1-ol, acetate, (<em>Z</em>)-;<em>cis</em>-7-Dodecenyl acetate;<em>cis</em>-7-Dodecen-1-ol acetate;<em>cis</em>-7-Dodecen-1-yl acetate;Looplure;(<em>Z</em>)-7-Dodecen-1-ol acetate;<em>cis</em>-1-Acetoxy-7-dodecene;(<em>Z</em>)-7-Dodecenyl acetate;(<em>Z</em>)-7-Dodecen-1-yl acetate;(<em>Z</em>)-1-Acetoxy-7-dodecene;MK 26;Z7-Dodecenyl acetate",
    "duplicated_cas_no": "105421-22-5;110413-75-7",
    "SMILES": "C(CC/C=C\\CCCC)CCCOC(C)=O",
    "meta_data": {
        "InChI": "InChI=1S/C14H26O2/c1-3-4-5-6-7-8-9-10-11-12-13-16-14(2)15/h6-7H,3-5,8-13H2,1-2H3/b7-6-",
        "InChIKey": null,
        "Canonical SMILES": "O=C(OCCCCCCC=CCCCC)C",
        "Molecular Formula": "C<sub>14</sub>H<sub>26</sub>O<sub>2</sub>",
        "Molecular Mass": "226.35",
        "Boiling Point": "98-100 °C"
    }
}