{
    "cas_no": "978-86-9",
    "key_name": "4-(Triphenylmethyl)phenol",
    "cn_name": "4-三苯代甲基苯酚;三苯甲基苯酚;",
    "alternate_name": "Phenol, 4-(triphenylmethyl)-;<em>p</em>-Cresol, α,α,α-triphenyl-;4-(Triphenylmethyl)phenol;4-Tritylphenol;<em>p</em>-Tritylphenol;NSC 39742;NSC 56593",
    "duplicated_cas_no": "",
    "SMILES": "C(C1=CC=C(O)C=C1)(C2=CC=CC=C2)(C3=CC=CC=C3)C4=CC=CC=C4",
    "meta_data": {
        "InChI": "InChI=1S/C25H20O/c26-24-18-16-23(17-19-24)25(20-10-4-1-5-11-20,21-12-6-2-7-13-21)22-14-8-3-9-15-22/h1-19,26H",
        "InChIKey": null,
        "Canonical SMILES": "OC1=CC=C(C=C1)C(C=2C=CC=CC2)(C=3C=CC=CC3)C=4C=CC=CC4",
        "Molecular Formula": "C<sub>25</sub>H<sub>20</sub>O",
        "Molecular Mass": "336.43",
        "Melting Point": "282 °C"
    }
}