{
    "cas_no": "430-66-0",
    "key_name": "1,1,2-Trifluoroethane",
    "cn_name": null,
    "alternate_name": "Ethane, 1,1,2-trifluoro-;1,1,2-Trifluoroethane;R 143;FC 143;HFC 143;R 143b;HFA 143",
    "duplicated_cas_no": "406952-38-3",
    "SMILES": "C(CF)(F)F",
    "meta_data": {
        "InChI": "InChI=1S/C2H3F3/c3-1-2(4)5/h2H,1H2",
        "InChIKey": null,
        "Canonical SMILES": "FCC(F)F",
        "Molecular Formula": "C<sub>2</sub>H<sub>3</sub>F<sub>3</sub>",
        "Molecular Mass": "84.04",
        "Boiling Point": "5 °C",
        "Melting Point": "-84 °C"
    }
}