{
    "cas_no": "677-21-4",
    "key_name": "3,3,3-Trifluoropropene",
    "cn_name": null,
    "alternate_name": "1-Propene, 3,3,3-trifluoro-;Propene, 3,3,3-trifluoro-;3,3,3-Trifluoro-1-propene;3,3,3-Trifluoropropylene;1,1,1-Trifluoropropene;3,3,3-Trifluoropropene;(Trifluoromethyl)ethylene;1,1,1-Trifluoro-2-propene;R 1243;(Trifluoromethyl)ethene;HFC 1243zf;HFO 1243zf;R 1243zf;(Perfluoromethyl)ethylene;1243zf;HFO 1343zf",
    "duplicated_cas_no": "",
    "SMILES": "C(C=C)(F)(F)F",
    "meta_data": {
        "InChI": "InChI=1S/C3H3F3/c1-2-3(4,5)6/h2H,1H2",
        "InChIKey": null,
        "Canonical SMILES": "FC(F)(F)C=C",
        "Molecular Formula": "C<sub>3</sub>H<sub>3</sub>F<sub>3</sub>",
        "Molecular Mass": "96.05",
        "Boiling Point": "-17 °C",
        "Density": "0.9961 g/cm³"
    }
}