{
    "cas_no": "1131-17-5",
    "key_name": "5-Chloro-3-methyl-1-phenyl-1<em>H</em>-pyrazole",
    "cn_name": "5-氯-3-甲基-1-苯基吡唑;",
    "alternate_name": "1<em>H</em>-Pyrazole, 5-chloro-3-methyl-1-phenyl-;Pyrazole, 5-chloro-3-methyl-1-phenyl-;5-Chloro-3-methyl-1-phenyl-1<em>H</em>-pyrazole;5-Chloro-3-methyl-1-phenylpyrazole",
    "duplicated_cas_no": "",
    "SMILES": "ClC=1N(N=C(C)C1)C2=CC=CC=C2",
    "meta_data": {
        "InChI": "InChI=1S/C10H9ClN2/c1-8-7-10(11)13(12-8)9-5-3-2-4-6-9/h2-7H,1H3",
        "InChIKey": null,
        "Canonical SMILES": "ClC1=CC(=NN1C=2C=CC=CC2)C",
        "Molecular Formula": "C<sub>10</sub>H<sub>9</sub>ClN<sub>2</sub>",
        "Molecular Mass": "192.64",
        "Boiling Point": "81 °C @ Press: 0.04 Torr",
        "Density": "1.1901 g/cm³ @ Temp: 20 °C"
    }
}