{
    "cas_no": "65-86-1",
    "key_name": "Orotic acid",
    "cn_name": "乳清酸;1,2,3,6-四氢-2,6-二氧代-4-嘧啶羧酸;",
    "alternate_name": "4-Pyrimidinecarboxylic acid, 1,2,3,6-tetrahydro-2,6-dioxo-;Orotic acid;1,2,3,6-Tetrahydro-2,6-dioxo-4-pyrimidinecarboxylic acid;Animal galactose factor;6-Carboxyuracil;6-Uracilcarboxylic acid;Whey factor;2,6-Dihydroxy-4-pyrimidinecarboxylic acid;Oroturic;Orotyl;Orodin;Orotonin;2,6-Dioxo-1,2,3,6-tetrahydropyrimidine-4-carboxylic acid;NSC 79560;NSC 9791;Vitamin B<sub>13</sub>;2,4-Dihydroxypyrimidine-6-carboxylic acid;2,4-Dioxo-1<em>H</em>-pyrimidine-6-carboxylic acid;2-Hydroxy-6-oxo-1,6-dihydropyrimidine-4-carboxylic acid;MeSH ID: D009963",
    "duplicated_cas_no": "6784-70-9;58915-47-2",
    "SMILES": "C(O)(=O)C1=CC(=O)NC(=O)N1",
    "meta_data": {
        "InChI": "InChI=1S/C5H4N2O4/c8-3-1-2(4(9)10)6-5(11)7-3/h1H,(H,9,10)(H2,6,7,8,11)",
        "InChIKey": null,
        "Canonical SMILES": "O=C1C=C(NC(=O)N1)C(=O)O",
        "Molecular Formula": "C<sub>5</sub>H<sub>4</sub>N<sub>2</sub>O<sub>4</sub>",
        "Molecular Mass": "156.10",
        "Melting Point": "345-346 °C"
    }
}