{
    "cas_no": "19885-10-0",
    "key_name": "Alisol A",
    "cn_name": "泽泻醇A;泽泻萜醇A;",
    "alternate_name": "Dammar-13(17)-en-3-one, 11,23,24,25-tetrahydroxy-, (8α,9β,11β,14β,23<em>S</em>,24<em>R</em>)-;8α,9β,14β-Dammar-13(17)-en-3-one, 11β,23,24,25-tetrahydroxy-, (23<em>S</em>,24<em>R</em>)-;(8α,9β,11β,14β,23<em>S</em>,24<em>R</em>)-11,23,24,25-Tetrahydroxydammar-13(17)-en-3-one;Alisol A",
    "duplicated_cas_no": "26576-08-9",
    "SMILES": "C[C@@]12[C@]([C@]3(C)[C@@](CC1)(C(C)(C)C(=O)CC3)[H])([C@@H](O)CC=4[C@]2(C)CCC4[C@@H](C[C@@H]([C@H](C(C)(C)O)O)O)C)[H]",
    "meta_data": {
        "InChI": "InChI=1S/C30H50O5/c1-17(15-21(32)25(34)27(4,5)35)18-9-13-29(7)19(18)16-20(31)24-28(6)12-11-23(33)26(2,3)22(28)10-14-30(24,29)8/h17,20-22,24-25,31-32,34-35H,9-16H2,1-8H3/t17-,20+,21+,22+,24+,25-,28+,29+,30+/m1/s1",
        "InChIKey": null,
        "Canonical SMILES": "O=C1CCC2(C)C(CCC3(C)C2C(O)CC4=C(CCC43C)C(C)CC(O)C(O)C(O)(C)C)C1(C)C",
        "Molecular Formula": "C<sub>30</sub>H<sub>50</sub>O<sub>5</sub>",
        "Molecular Mass": "490.71",
        "Melting Point": "90-91 °C"
    }
}