{
    "cas_no": "96-37-7",
    "key_name": "Methylcyclopentane",
    "cn_name": "甲基环戊烷;",
    "alternate_name": "Cyclopentane, methyl-;Methylcyclopentane;NSC 24836;Methycyclopentane",
    "duplicated_cas_no": "",
    "SMILES": "CC1CCCC1",
    "meta_data": {
        "InChI": "InChI=1S/C6H12/c1-6-4-2-3-5-6/h6H,2-5H2,1H3",
        "InChIKey": null,
        "Canonical SMILES": "CC1CCCC1",
        "Molecular Formula": "C<sub>6</sub>H<sub>12</sub>",
        "Molecular Mass": "84.16",
        "Boiling Point": "71.8 °C @ Press: 760 Torr",
        "Melting Point": "-142.5 °C",
        "Density": "0.7486 g/cm³ @ Temp: 20 °C"
    }
}