{
    "cas_no": "3511-16-8",
    "key_name": "Hetacillin",
    "cn_name": "缩酮氨苄青霉素;",
    "alternate_name": "4-Thia-1-azabicyclo[3.2.0]heptane-2-carboxylic acid, 6-[(4<em>R</em>)-2,2-dimethyl-5-oxo-4-phenyl-1-imidazolidinyl]-3,3-dimethyl-7-oxo-, (2<em>S</em>,5<em>R</em>,6<em>R</em>)-;4-Thia-1-azabicyclo[3.2.0]heptane-2-carboxylic acid, 6-(2,2-dimethyl-5-oxo-4-phenyl-1-imidazolidinyl)-3,3-dimethyl-7-oxo-, <span class=\"text-smallcaps\">D</span>-(-)-;4-Thia-1-azabicyclo[3.2.0]heptane-2-carboxylic acid, 6-(2,2-dimethyl-5-oxo-4-phenyl-1-imidazolidinyl)-3,3-dimethyl-7-oxo-, [2<em>S</em>-[2α,5α,6β(<em>S</em>*)]]-;(2<em>S</em>,5<em>R</em>,6<em>R</em>)-6-[(4<em>R</em>)-2,2-Dimethyl-5-oxo-4-phenyl-1-imidazolidinyl]-3,3-dimethyl-7-oxo-4-thia-1-azabicyclo[3.2.0]heptane-2-carboxylic acid;BRL 804;BL-P 804;Hetacillin;Phenazacillin;Versapen;Vimocilin;Penplenum;Etacillin;Versatrex",
    "duplicated_cas_no": "14537-96-3",
    "SMILES": "O=C1[C@H]([C@@]2(N1[C@@H](C(O)=O)C(C)(C)S2)[H])N3C(=O)[C@H](NC3(C)C)C4=CC=CC=C4",
    "meta_data": {
        "InChI": "InChI=1S/C19H23N3O4S/c1-18(2)13(17(25)26)21-15(24)12(16(21)27-18)22-14(23)11(20-19(22,3)4)10-8-6-5-7-9-10/h5-9,11-13,16,20H,1-4H3,(H,25,26)/t11-,12-,13+,16-/m1/s1",
        "InChIKey": null,
        "Canonical SMILES": "O=C(O)C1N2C(=O)C(N3C(=O)C(NC3(C)C)C=4C=CC=CC4)C2SC1(C)C",
        "Molecular Formula": "C<sub>19</sub>H<sub>23</sub>N<sub>3</sub>O<sub>4</sub>S",
        "Molecular Mass": "389.47",
        "Melting Point": "190 °C"
    }
}