{
    "cas_no": "330-17-6",
    "key_name": "4-[(Trifluoromethyl)thio]benzoic acid",
    "cn_name": "4-三氟甲硫基苯甲酸;对三氟甲硫基苯甲酸;",
    "alternate_name": "Benzoic acid, 4-[(trifluoromethyl)thio]-;Benzoic acid, <em>p</em>-[(trifluoromethyl)thio]-;4-[(Trifluoromethyl)thio]benzoic acid;4-Trifluoromethylsulfanylbenzoic acid",
    "duplicated_cas_no": "",
    "SMILES": "S(C(F)(F)F)C1=CC=C(C(O)=O)C=C1",
    "meta_data": {
        "InChI": "InChI=1S/C8H5F3O2S/c9-8(10,11)14-6-3-1-5(2-4-6)7(12)13/h1-4H,(H,12,13)",
        "InChIKey": null,
        "Canonical SMILES": "O=C(O)C1=CC=C(SC(F)(F)F)C=C1",
        "Molecular Formula": "C<sub>8</sub>H<sub>5</sub>F<sub>3</sub>O<sub>2</sub>S",
        "Molecular Mass": "222.18",
        "Melting Point": "160-161 °C"
    }
}