{
    "cas_no": "76410-58-7",
    "key_name": "<span class=\"text-smallcaps\">L</span>-<em>p</em>-Boronophenylalanine",
    "cn_name": "4-硼-L-苯丙氨酸;",
    "alternate_name": "<span class=\"text-smallcaps\">L</span>-Phenylalanine, 4-borono-;4-Borono-<span class=\"text-smallcaps\">L</span>-phenylalanine;<span class=\"text-smallcaps\">L</span>-<em>p</em>-Boronophenylalanine;<span class=\"text-smallcaps\">L</span>-BPA;4-(Dihydroxyboryl)-<span class=\"text-smallcaps\">L</span>-phenylalanine;4-Dihydroxyborylphenylalanine",
    "duplicated_cas_no": "177797-95-4",
    "SMILES": "C([C@@H](C(O)=O)N)C1=CC=C(B(O)O)C=C1",
    "meta_data": {
        "InChI": "InChI=1S/C9H12BNO4/c11-8(9(12)13)5-6-1-3-7(4-2-6)10(14)15/h1-4,8,14-15H,5,11H2,(H,12,13)/t8-/m0/s1",
        "InChIKey": null,
        "Canonical SMILES": "O=C(O)C(N)CC1=CC=C(C=C1)B(O)O",
        "Molecular Formula": "C<sub>9</sub>H<sub>12</sub>BNO<sub>4</sub>",
        "Molecular Mass": "209.01",
        "Melting Point": "285-293 °C (decomp)"
    }
}