{
    "cas_no": "7554-28-1",
    "key_name": "Diethyl <span class=\"text-smallcaps\">D</span>-malate",
    "cn_name": "D-(+)-苹果酸二乙酯;",
    "alternate_name": "Butanedioic acid, 2-hydroxy-, 1,4-diethyl ester, (2<em>R</em>)-;Malic acid, diethyl ester, <span class=\"text-smallcaps\">D</span>-(+)-;Butanedioic acid, hydroxy-, diethyl ester, (<em>R</em>)-;Butanedioic acid, hydroxy-, diethyl ester, (2<em>R</em>)-;Diethyl <span class=\"text-smallcaps\">D</span>-malate;Diethyl (2<em>R</em>)-malate;Diethyl (<em>R</em>)-malate;Diethyl (<em>R</em>)-2-hydroxysuccinate;(2<em>R</em>)-2-Hydroxybutanedioic acid diethyl ester;1,4-Diethyl (2R)-2-hydroxybutanedioate",
    "duplicated_cas_no": "",
    "SMILES": "C([C@H](C(OCC)=O)O)C(OCC)=O",
    "meta_data": {
        "InChI": "InChI=1S/C8H14O5/c1-3-12-7(10)5-6(9)8(11)13-4-2/h6,9H,3-5H2,1-2H3/t6-/m1/s1",
        "InChIKey": null,
        "Canonical SMILES": "O=C(OCC)CC(O)C(=O)OCC",
        "Molecular Formula": "C<sub>8</sub>H<sub>14</sub>O<sub>5</sub>",
        "Molecular Mass": "190.19",
        "Boiling Point": "80 °C @ Press: 8 x 10<sup>-3</sup> Torr"
    }
}