{
    "cas_no": "37693-01-9",
    "key_name": "Clofoctol",
    "cn_name": null,
    "alternate_name": "Phenol, 2-[(2,4-dichlorophenyl)methyl]-4-(1,1,3,3-tetramethylbutyl)-;2-[(2,4-Dichlorophenyl)methyl]-4-(1,1,3,3-tetramethylbutyl)phenol;2-(2,4-Dichlorobenzyl)-4-(1,1,3,3-tetramethylbutyl)phenol;2-(2,4-Dichlorobenzyl)-4-(2,4,4-trimethyl-2-pentyl)phenol;Clofoctol;Octofene;2-[(2,4-Dichlorophenyl)methyl]-4-(2,4,4-trimethylpentan-2-yl)phenol",
    "duplicated_cas_no": "",
    "SMILES": "C(C1=CC(C(CC(C)(C)C)(C)C)=CC=C1O)C2=C(Cl)C=C(Cl)C=C2",
    "meta_data": {
        "InChI": "InChI=1S/C21H26Cl2O/c1-20(2,3)13-21(4,5)16-7-9-19(24)15(11-16)10-14-6-8-17(22)12-18(14)23/h6-9,11-12,24H,10,13H2,1-5H3",
        "InChIKey": null,
        "Canonical SMILES": "ClC1=CC=C(C(Cl)=C1)CC2=CC(=CC=C2O)C(C)(C)CC(C)(C)C",
        "Molecular Formula": "C<sub>21</sub>H<sub>26</sub>Cl<sub>2</sub>O",
        "Molecular Mass": "365.34",
        "Melting Point": "78 °C"
    }
}