{
    "cas_no": "74711-43-6",
    "key_name": "Zaltoprofen",
    "cn_name": "扎托布洛芬;10,11-二氢-alpha-甲基-10-氧代-二苯并[b,f]硫卓-2-乙酸;",
    "alternate_name": "Dibenzo[<em>b</em>,<em>f</em>]thiepin-2-acetic acid, 10,11-dihydro-α-methyl-10-oxo-;10,11-Dihydro-α-methyl-10-oxodibenzo[<em>b</em>,<em>f</em>]thiepin-2-acetic acid;CN 100;Zaltoprofen;CN 100 (antiphlogistic);Soleton;2-(10,11-Dihydro-10-oxodibenzo[<em>b</em>,<em>f</em>]thiepin-2-yl)propionic acid;2-(10-Oxo-10,11-dihydrodibenzo[<em>b</em>,<em>f</em>]thiepin-2-yl)propanoic acid",
    "duplicated_cas_no": "89482-00-8",
    "SMILES": "C(C(O)=O)(C)C=1C=C2C(SC=3C(C(=O)C2)=CC=CC3)=CC1",
    "meta_data": {
        "InChI": "InChI=1S/C17H14O3S/c1-10(17(19)20)11-6-7-15-12(8-11)9-14(18)13-4-2-3-5-16(13)21-15/h2-8,10H,9H2,1H3,(H,19,20)",
        "InChIKey": null,
        "Canonical SMILES": "O=C(O)C(C1=CC=C2SC=3C=CC=CC3C(=O)CC2=C1)C",
        "Molecular Formula": "C<sub>17</sub>H<sub>14</sub>O<sub>3</sub>S",
        "Molecular Mass": "298.36",
        "Melting Point": "130-133 °C"
    }
}