{
    "cas_no": "1528-74-1",
    "key_name": "4,4′-Dinitro-1,1′-biphenyl",
    "cn_name": "4,4-二硝基联苯;4,4-二硝基联苯;",
    "alternate_name": "1,1′-Biphenyl, 4,4′-dinitro-;Biphenyl, 4,4′-dinitro-;4,4′-Dinitro-1,1′-biphenyl;4,4′-Dinitrobiphenyl;4,4′-Dinitrodiphenyl;NSC 8738;1-Nitro-4-(4-nitrophenyl)benzene",
    "duplicated_cas_no": "",
    "SMILES": "N(=O)(=O)C1=CC=C(C=C1)C2=CC=C(N(=O)=O)C=C2",
    "meta_data": {
        "InChI": "InChI=1S/C12H8N2O4/c15-13(16)11-5-1-9(2-6-11)10-3-7-12(8-4-10)14(17)18/h1-8H",
        "InChIKey": null,
        "Canonical SMILES": "O=N(=O)C1=CC=C(C=C1)C=2C=CC(=CC2)N(=O)=O",
        "Molecular Formula": "C<sub>12</sub>H<sub>8</sub>N<sub>2</sub>O<sub>4</sub>",
        "Molecular Mass": "244.20",
        "Melting Point": "240-243 °C"
    }
}