{
    "cas_no": "1892-29-1",
    "key_name": "Hydroxyethyl disulfide",
    "cn_name": "2,2\"-二硫二乙醇;",
    "alternate_name": "Ethanol, 2,2′-dithiobis-;Ethanol, 2,2′-dithiodi-;2,2′-Dithiobis[ethanol];Diethanol disulfide;2,2′-Dithiodiethanol;2-Hydroxyethyl disulfide;Bis(2-hydroxyethyl) disulfide;Dithiodiglycol;Hydroxyethyl disulfide;2-Hydroxyethane disulfide;3,4-Dithia-1,6-hexanediol;β-Hydroxyethyl disulfide;2-Mercaptoethanol disulfide;NSC 33920;Di(hydroxyethyl) disulfide;2,2′-Dihydroxyethyl disulfide;2,2′-Disulfanediyldiethanol;2-(2-Hydroxyethyldisulfanyl)ethanol",
    "duplicated_cas_no": "",
    "SMILES": "S(SCCO)CCO",
    "meta_data": {
        "InChI": "InChI=1S/C4H10O2S2/c5-1-3-7-8-4-2-6/h5-6H,1-4H2",
        "InChIKey": null,
        "Canonical SMILES": "OCCSSCCO",
        "Molecular Formula": "C<sub>4</sub>H<sub>10</sub>O<sub>2</sub>S<sub>2</sub>",
        "Molecular Mass": "154.25",
        "Boiling Point": "106 °C @ Press: 0.015 Torr",
        "Melting Point": "25-26 °C",
        "Density": "1.172 g/cm³ @ Temp: 25 °C"
    }
}