{
    "cas_no": "143-24-8",
    "key_name": "Tetraglyme",
    "cn_name": "四乙二醇二甲醚;四甘醇二甲醚;",
    "alternate_name": "2,5,8,11,14-Pentaoxapentadecane;Ansul Ether 181AT;Bis[2-(2-methoxyethoxy)ethyl] ether;Dimethoxytetraethylene glycol;Dimethoxytetraglycol;Ether, bis[2-(2-methoxyethoxy)ethyl];Tetraglyme;Glyme 5;Tetraethylene glycol dimethyl ether;E 181 (ether);E 181;Nissan Uniox MM 200;Methyltetraglyme;NSC 65624;Hisolve MTEM;TEGDME;tetraethylene glycol di-Me ether;1-Methoxy-2-[2-[2-(2-methoxyethoxy)ethoxy]ethoxy]ethane;Hisorb MTEM",
    "duplicated_cas_no": "70992-84-6;2377495-23-1",
    "SMILES": "O(CCOCCOC)CCOCCOC",
    "meta_data": {
        "InChI": "InChI=1S/C10H22O5/c1-11-3-5-13-7-9-15-10-8-14-6-4-12-2/h3-10H2,1-2H3",
        "InChIKey": null,
        "Canonical SMILES": "O(C)CCOCCOCCOCCOC",
        "Molecular Formula": "C<sub>10</sub>H<sub>22</sub>O<sub>5</sub>",
        "Molecular Mass": "222.28",
        "Boiling Point": "275.3 °C",
        "Density": "1.01 g/cm³ (liquid)"
    }
}