{
    "cas_no": "51076-95-0",
    "key_name": "2-Chloro-1,1,1-triethoxyethane",
    "cn_name": "2-氯-1,1,1-三乙氧基乙烷;",
    "alternate_name": "Ethane, 2-chloro-1,1,1-triethoxy-;Orthoacetic acid, chloro-, triethyl ester;2-Chloro-1,1,1-triethoxyethane;Ethyl orthochloroacetate;1-Chloro-2,2,2-triethoxyethane;NSC 203073;Triethyl orthochloroacetate",
    "duplicated_cas_no": "",
    "SMILES": "C(OCC)(OCC)(OCC)CCl",
    "meta_data": {
        "InChI": "InChI=1S/C8H17ClO3/c1-4-10-8(7-9,11-5-2)12-6-3/h4-7H2,1-3H3",
        "InChIKey": null,
        "Canonical SMILES": "ClCC(OCC)(OCC)OCC",
        "Molecular Formula": "C<sub>8</sub>H<sub>17</sub>ClO<sub>3</sub>",
        "Molecular Mass": "196.67",
        "Boiling Point": "74-75 °C @ Press: 13 Torr",
        "Melting Point": "60-68 °C",
        "Density": "1.0349 g/cm³ @ Temp: 25 °C"
    }
}