{
    "cas_no": "14721-66-5",
    "key_name": "Phytanic acid",
    "cn_name": null,
    "alternate_name": "Hexadecanoic acid, 3,7,11,15-tetramethyl-;Phytanic acid;3,7,11,15-Tetramethylhexadecanoic acid;Phytanoic acid;NSC 108698",
    "duplicated_cas_no": "2258-05-1;18717-98-1",
    "SMILES": "C(C(CCCC(CCCC(C)C)C)C)CCC(CC(O)=O)C",
    "meta_data": {
        "InChI": "InChI=1S/C20H40O2/c1-16(2)9-6-10-17(3)11-7-12-18(4)13-8-14-19(5)15-20(21)22/h16-19H,6-15H2,1-5H3,(H,21,22)",
        "InChIKey": null,
        "Canonical SMILES": "O=C(O)CC(C)CCCC(C)CCCC(C)CCCC(C)C",
        "Molecular Formula": "C<sub>20</sub>H<sub>40</sub>O<sub>2</sub>",
        "Molecular Mass": "312.53",
        "Boiling Point": "221 °C @ Press: 7.5 Torr",
        "Melting Point": "&lt;-10 °C",
        "Density": "0.8761 g/cm³ @ Temp: 20 °C"
    }
}