{
    "cas_no": "35256-85-0",
    "key_name": "Tebutam",
    "cn_name": "牧草胺;丙戊草胺；N-苄基-N-异丙基-2，2-二甲基丙酰胺;",
    "alternate_name": "Propanamide, 2,2-dimethyl-<em>N</em>-(1-methylethyl)-<em>N</em>-(phenylmethyl)-;2,2-Dimethyl-<em>N</em>-(1-methylethyl)-<em>N</em>-(phenylmethyl)propanamide;<em>N</em>-Benzyl-<em>N</em>-isopropyltrimethylacetamide;Butam;<em>N</em>-Benzyl-<em>N</em>-isopropylpivalamide;Comodor;Tebutam",
    "duplicated_cas_no": "",
    "SMILES": "N(C(C(C)(C)C)=O)(CC1=CC=CC=C1)C(C)C",
    "meta_data": {
        "InChI": "InChI=1S/C15H23NO/c1-12(2)16(14(17)15(3,4)5)11-13-9-7-6-8-10-13/h6-10,12H,11H2,1-5H3",
        "InChIKey": null,
        "Canonical SMILES": "O=C(N(CC=1C=CC=CC1)C(C)C)C(C)(C)C",
        "Molecular Formula": "C<sub>15</sub>H<sub>23</sub>NO",
        "Molecular Mass": "233.35",
        "Boiling Point": "96 °C",
        "Melting Point": "&lt;25 °C"
    }
}