{
    "cas_no": "2039-88-5",
    "key_name": "2-Bromostyrene",
    "cn_name": "2-溴苯乙烯;",
    "alternate_name": "Benzene, 1-bromo-2-ethenyl-;Styrene, <em>o</em>-bromo-;1-Bromo-2-ethenylbenzene;<em>o</em>-Bromostyrene;2-Bromostyrene;<em>o</em>-Bromovinylbenzene;1-Bromo-2-vinylbenzene;2-Vinylphenyl bromide;2-Vinyl-1-bromobenzene",
    "duplicated_cas_no": "",
    "SMILES": "C(=C)C1=C(Br)C=CC=C1",
    "meta_data": {
        "InChI": "InChI=1S/C8H7Br/c1-2-7-5-3-4-6-8(7)9/h2-6H,1H2",
        "InChIKey": null,
        "Canonical SMILES": "BrC=1C=CC=CC1C=C",
        "Molecular Formula": "C<sub>8</sub>H<sub>7</sub>Br",
        "Molecular Mass": "183.05",
        "Boiling Point": "209.2 °C",
        "Melting Point": "-52.5 °C",
        "Density": "1.409 g/cm³ @ Temp: 15 °C"
    }
}