{
    "cas_no": "51115-67-4",
    "key_name": "<em>N</em>,2,3-Trimethyl-2-isopropylbutanamide",
    "cn_name": null,
    "alternate_name": "Butanamide, <em>N</em>,2,3-trimethyl-2-(1-methylethyl)-;<em>N</em>,2,3-Trimethyl-2-(1-methylethyl)butanamide;2-Isopropyl-<em>N</em>,2,3-trimethylbutanamide;WS 23;WS 23 (cooling agent);Cooling Sensate WS 23;<em>N</em>,2,3-Trimethyl-2-isopropylbutanamide;2-Isopropyl-<em>N</em>,2,3-trimethylbutyramide;<em>N</em>-2,3-Trimethyl-2-isopropylbutane amide;<em>N</em>-Methyl-2,3-dimethyl-2-isopropylbutanamide;FEMA 3804;<em>N</em>,2,3-Trimethyl-2-propan-2-ylbutanamide",
    "duplicated_cas_no": "",
    "SMILES": "C(C(NC)=O)(C(C)C)(C(C)C)C",
    "meta_data": {
        "InChI": "InChI=1S/C10H21NO/c1-7(2)10(5,8(3)4)9(12)11-6/h7-8H,1-6H3,(H,11,12)",
        "InChIKey": null,
        "Canonical SMILES": "O=C(NC)C(C)(C(C)C)C(C)C",
        "Molecular Formula": "C<sub>10</sub>H<sub>21</sub>NO",
        "Molecular Mass": "171.28",
        "Boiling Point": "84 °C",
        "Melting Point": "60 °C"
    }
}