{
    "cas_no": "13149-00-3",
    "key_name": "<em>cis</em>-1,2-Cyclohexanedicarboxylic anhydride",
    "cn_name": "六氢-1,3-异苯并呋喃二酮;顺式六氢化邻苯二甲酸酐;顺式六氢苯酐;2-氰基-3-乙氧基-2-丙烯酸乙酯;",
    "alternate_name": "1,3-Isobenzofurandione, hexahydro-, (3a<em>R</em>,7a<em>S</em>)-<em>rel</em>-;1,2-Cyclohexanedicarboxylic anhydride, <em>cis</em>-;1,3-Isobenzofurandione, hexahydro-, <em>cis</em>-;<em>rel</em>-(3a<em>R</em>,7a<em>S</em>)-Hexahydro-1,3-isobenzofurandione;<em>cis</em>-1,2-Cyclohexanedicarboxylic anhydride;<em>cis</em>-Hexahydrophthalic anhydride;<em>cis</em>-Cyclohexane-1,2-dicarboxylic acid anhydride;<em>rel</em>-(3<em>a</em>R,7<em>a</em>S)-Hexahydroisobenzofuran-1,3-dione;<em>cis</em>-1,2-Cyclohexanecarboxylic acid anhydride",
    "duplicated_cas_no": "111720-41-3;127946-28-5;201815-17-0;279240-32-3;634193-83-2;743438-36-0;1446101-64-9;1632398-68-5;1639268-89-5;1644180-18-6;1690350-50-5;1819340-95-8;1827590-18-0;2589090-39-9",
    "SMILES": "O=C1[C@@]2([C@](C(=O)O1)(CCCC2)[H])[H]",
    "meta_data": {
        "InChI": "InChI=1/C8H10O3/c9-7-5-3-1-2-4-6(5)8(10)11-7/h5-6H,1-4H2/t5-,6+",
        "InChIKey": null,
        "Canonical SMILES": "O=C1OC(=O)C2CCCCC12",
        "Molecular Formula": "C<sub>8</sub>H<sub>10</sub>O<sub>3</sub>",
        "Molecular Mass": "154.16",
        "Boiling Point": "158-160 °C @ Press: 17 Torr",
        "Melting Point": "72.0-72.5 °C"
    }
}