{
    "cas_no": "585-50-2",
    "key_name": "3-(3-Trifluoromethylphenyl)propanoic acid",
    "cn_name": "3-(3-三氟甲基苯基)丙酸;",
    "alternate_name": "Benzenepropanoic acid, 3-(trifluoromethyl)-;Hydrocinnamic acid, <em>m</em>-(trifluoromethyl)-;3-(Trifluoromethyl)benzenepropanoic acid;<em>m</em>-(Trifluoromethyl)hydrocinnamic acid;3-[3-(Trifluoromethyl)phenyl]propionic acid;3-Trifluoromethylbenzenepropanoic acid;3-(3-Trifluoromethylphenyl)propanoic acid",
    "duplicated_cas_no": "",
    "SMILES": "C(F)(F)(F)C1=CC(CCC(O)=O)=CC=C1",
    "meta_data": {
        "InChI": "InChI=1S/C10H9F3O2/c11-10(12,13)8-3-1-2-7(6-8)4-5-9(14)15/h1-3,6H,4-5H2,(H,14,15)",
        "InChIKey": null,
        "Canonical SMILES": "O=C(O)CCC1=CC=CC(=C1)C(F)(F)F",
        "Molecular Formula": "C<sub>10</sub>H<sub>9</sub>F<sub>3</sub>O<sub>2</sub>",
        "Molecular Mass": "218.17",
        "Boiling Point": "149 °C @ Press: 11 Torr",
        "Melting Point": "130-131 °C"
    }
}