{
    "cas_no": "4535-90-4",
    "key_name": "Ethanamine, 2-chloro-<em>N</em>-methyl-, hydrochloride (1:1)",
    "cn_name": null,
    "alternate_name": "Ethanamine, 2-chloro-<em>N</em>-methyl-, hydrochloride (1:1);Ethylamine, 2-chloro-<em>N</em>-methyl-, hydrochloride;Ethanamine, 2-chloro-<em>N</em>-methyl-, hydrochloride;2-(Methylamino)ethyl chloride hydrochloride;2-Chloro-<em>N</em>-methylethylamine hydrochloride;<em>N</em>-Methyl-2-chloroethylamine hydrochloride;2-Chloro-<em>N</em>-methylethanamine hydrochloride;(2-Chloroethyl)(methyl)amine hydrochloride",
    "duplicated_cas_no": "",
    "SMILES": "C(CCl)NC.Cl",
    "meta_data": {
        "InChI": "InChI=1S/C3H8ClN.ClH/c1-5-3-2-4;/h5H,2-3H2,1H3;1H",
        "InChIKey": null,
        "Canonical SMILES": "Cl.ClCCNC",
        "Molecular Formula": "C<sub>3</sub>H<sub>8</sub>ClN.ClH",
        "Molecular Mass": "",
        "Melting Point": "89 °C"
    }
}