{
    "cas_no": "13072-69-0",
    "key_name": "1-Adamantylurea",
    "cn_name": "N-(1-金刚烷)脲素;",
    "alternate_name": "Urea, <em>N</em>-tricyclo[3.3.1.1<sup>3,7</sup>]dec-1-yl-;Urea, (1-adamantyl)-;Urea, tricyclo[3.3.1.1<sup>3,7</sup>]dec-1-yl-;<em>N</em>-Tricyclo[3.3.1.1<sup>3,7</sup>]dec-1-ylurea;1-Adamantylurea;1-(1-Adamantyl)urea;<em>N</em>-(1-Adamantyl)urea;NSC 114904",
    "duplicated_cas_no": "",
    "SMILES": "N(C(N)=O)C12CC3CC(C1)CC(C2)C3",
    "meta_data": {
        "InChI": "InChI=1S/C11H18N2O/c12-10(14)13-11-4-7-1-8(5-11)3-9(2-7)6-11/h7-9H,1-6H2,(H3,12,13,14)",
        "InChIKey": null,
        "Canonical SMILES": "O=C(N)NC12CC3CC(CC(C3)C1)C2",
        "Molecular Formula": "C<sub>11</sub>H<sub>18</sub>N<sub>2</sub>O",
        "Molecular Mass": "194.27",
        "Melting Point": "158-161 °C"
    }
}