{
    "cas_no": "1082-85-5",
    "key_name": "<em>N</em>-(4-Acetylphenyl)maleimide",
    "cn_name": "N-(4-乙酰苯)马来酰胺;N-(4-乙酰苯基)-2,5-马来酰亚胺;",
    "alternate_name": "1<em>H</em>-Pyrrole-2,5-dione, 1-(4-acetylphenyl)-;Maleimide, <em>N</em>-(<em>p</em>-acetylphenyl)-;1-(4-Acetylphenyl)-1<em>H</em>-pyrrole-2,5-dione;<em>N</em>-(4-Acetylphenyl)maleimide;<em>N</em>-(<em>p</em>-Acetylphenyl)maleimide;NSC 209075;1-(4-Acetylphenyl)-2,5-dihydro-1<em>H</em>-pyrrole-2,5-dione;1-(4-Acetylphenyl)pyrrole-2,5-dione",
    "duplicated_cas_no": "",
    "SMILES": "O=C1N(C2=CC=C(C(C)=O)C=C2)C(=O)C=C1",
    "meta_data": {
        "InChI": "InChI=1S/C12H9NO3/c1-8(14)9-2-4-10(5-3-9)13-11(15)6-7-12(13)16/h2-7H,1H3",
        "InChIKey": null,
        "Canonical SMILES": "O=C1C=CC(=O)N1C2=CC=C(C=C2)C(=O)C",
        "Molecular Formula": "C<sub>12</sub>H<sub>9</sub>NO<sub>3</sub>",
        "Molecular Mass": "215.20",
        "Melting Point": "157.5-160 °C"
    }
}