{
    "cas_no": "3697-66-3",
    "key_name": "1-(Ethoxycarbonyl)cyclopropanecarboxylic acid",
    "cn_name": null,
    "alternate_name": "1,1-Cyclopropanedicarboxylic acid, 1-ethyl ester;1,1-Cyclopropanedicarboxylic acid, monoethyl ester;1,1-Cyclopropanedicarboxylic acid, ethyl ester;1-(Ethoxycarbonyl)cyclopropanecarboxylic acid;1-Ethoxycarbonylcyclopropane-1-carboxylic acid",
    "duplicated_cas_no": "",
    "SMILES": "C(OCC)(=O)C1(C(O)=O)CC1",
    "meta_data": {
        "InChI": "InChI=1S/C7H10O4/c1-2-11-6(10)7(3-4-7)5(8)9/h2-4H2,1H3,(H,8,9)",
        "InChIKey": null,
        "Canonical SMILES": "O=C(O)C1(C(=O)OCC)CC1",
        "Molecular Formula": "C<sub>7</sub>H<sub>10</sub>O<sub>4</sub>",
        "Molecular Mass": "158.15",
        "Boiling Point": "66-69 °C @ Press: 0.15 Torr"
    }
}