{
    "cas_no": "2028-63-9",
    "key_name": "3-Butyn-2-ol",
    "cn_name": null,
    "alternate_name": "3-Butyn-2-ol;Methyl ethynyl carbinol;1-Butyn-3-ol;1-Methyl-2-propyn-1-ol;3-Methyl-1-propyn-3-ol;3-Hydroxy-1-butyne;α-Methylpropargyl alcohol;1-Methylpropargyl alcohol;1-Methyl-2-propynyl alcohol;2-Hydroxy-3-butyne;(±)-But-1-yn-3-ol;(±)-3-Butyn-2-ol;(<em>RS</em>)-1-Butyn-3-ol;<span class=\"text-smallcaps\">DL</span>-1-Butyn-3-ol;NSC 222370",
    "duplicated_cas_no": "123362-54-9;65337-13-5",
    "SMILES": "C(C#C)(C)O",
    "meta_data": {
        "InChI": "InChI=1S/C4H6O/c1-3-4(2)5/h1,4-5H,2H3",
        "InChIKey": null,
        "Canonical SMILES": "C#CC(O)C",
        "Molecular Formula": "C<sub>4</sub>H<sub>6</sub>O",
        "Molecular Mass": "70.09",
        "Boiling Point": "106.5 °C",
        "Melting Point": "-3 °C",
        "Density": "0.8858 g/cm³ @ Temp: 20 °C"
    }
}