{
    "cas_no": "78-80-8",
    "key_name": "2-Methyl-1-buten-3-yne",
    "cn_name": "2-甲基-1-丁烯-3-炔;异丙烯基乙炔;2-甲-3-炔-1-丁烯;2-Methyl-1-butenyne;2-Methylbutenyne;1-Butene-3-yne;",
    "alternate_name": "1-Buten-3-yne, 2-methyl-;2-Methyl-1-buten-3-yne;Isopropenylacetylene;3-Methyl-3-buten-1-yne;2-Methyl-1-butene-3-yne;2-Methylbutenyne;2-Methyl-1-butenyne;Valylene;NSC 9296;3-Methyl-3-butene-1-yne;2-Methyl-1-buten-1-yne",
    "duplicated_cas_no": "",
    "SMILES": "C(C#C)(C)=C",
    "meta_data": {
        "InChI": "InChI=1S/C5H6/c1-4-5(2)3/h1H,2H2,3H3",
        "InChIKey": null,
        "Canonical SMILES": "C#CC(=C)C",
        "Molecular Formula": "C<sub>5</sub>H<sub>6</sub>",
        "Molecular Mass": "66.10",
        "Boiling Point": "32 °C",
        "Melting Point": "-113 °C",
        "Density": "0.7064 g/cm³ @ Temp: 20 °C"
    }
}