{
    "cas_no": "78804-17-8",
    "key_name": "Zeylenol",
    "cn_name": null,
    "alternate_name": "5-Cyclohexene-1,2,3,4-tetrol, 2-[(benzoyloxy)methyl]-, 4-benzoate, (1<em>S</em>,2<em>R</em>,3<em>S</em>,4<em>R</em>)-;5-Cyclohexene-1,2,3,4-tetrol, 2-[(benzoyloxy)methyl]-, 4-benzoate, [1<em>S</em>-(1α,2β,3β,4α)]-;Zeylenol;(-)-Zeylenol",
    "duplicated_cas_no": "",
    "SMILES": "C(OC(=O)C1=CC=CC=C1)[C@]2(O)[C@@H](O)[C@H](OC(=O)C3=CC=CC=C3)C=C[C@@H]2O",
    "meta_data": {
        "InChI": "InChI=1S/C21H20O7/c22-17-12-11-16(28-20(25)15-9-5-2-6-10-15)18(23)21(17,26)13-27-19(24)14-7-3-1-4-8-14/h1-12,16-18,22-23,26H,13H2/t16-,17+,18+,21-/m1/s1",
        "InChIKey": null,
        "Canonical SMILES": "O=C(OCC1(O)C(O)C=CC(OC(=O)C=2C=CC=CC2)C1O)C=3C=CC=CC3",
        "Molecular Formula": "C<sub>21</sub>H<sub>20</sub>O<sub>7</sub>",
        "Molecular Mass": "384.38",
        "Melting Point": "131-132 °C"
    }
}