{
    "cas_no": "1501-27-5",
    "key_name": "Monomethyl glutarate",
    "cn_name": "戊二酸氢甲酯;戊二酸单乙酯;戊二酸氢甲酯;戊二酸单甲酯;戊二酸氢甲酯,97%;",
    "alternate_name": "Pentanedioic acid, 1-methyl ester;Glutaric acid, monomethyl ester;Pentanedioic acid, monomethyl ester;Glutaric acid, methyl ester;Monomethyl glutarate;Methyl glutarate;Methyl hydrogen glutarate;Glutaric acid methyl half ester;4-(Methoxycarbonyl)butyric acid;4-Methoxycarbonylbutanoic acid;4-Carboxybutanoic acid methyl ester;NSC 93807;5-Methoxy-5-oxopentanoic acid;Monomethyl pentanedioate;1,5-Pentanedioic acid monomethyl ester",
    "duplicated_cas_no": "",
    "SMILES": "C(CCCC(O)=O)(OC)=O",
    "meta_data": {
        "InChI": "InChI=1S/C6H10O4/c1-10-6(9)4-2-3-5(7)8/h2-4H2,1H3,(H,7,8)",
        "InChIKey": null,
        "Canonical SMILES": "O=C(O)CCCC(=O)OC",
        "Molecular Formula": "C<sub>6</sub>H<sub>10</sub>O<sub>4</sub>",
        "Molecular Mass": "146.14",
        "Boiling Point": "150-151 °C @ Press: 10 Torr",
        "Density": "1.164 g/cm³ @ Temp: 13 °C"
    }
}