{
    "cas_no": "536-43-6",
    "key_name": "Dyclonine",
    "cn_name": "盐酸达克罗宁;4\"-丁氧基-3-哌啶基苯丙酮盐酸盐;",
    "alternate_name": "1-Propanone, 1-(4-butoxyphenyl)-3-(1-piperidinyl)-, hydrochloride (1:1);Propiophenone, 4′-butoxy-3-piperidino-, hydrochloride;1-Propanone, 1-(4-butoxyphenyl)-3-(1-piperidinyl)-, hydrochloride;4′-Butoxy-3-piperidinopropiophenone hydrochloride;Dyclone;Dyclonine hydrochloride;Dyclonine;Diclonina;Dyclothane;Tanaclone;Dyclocaine hydrochloride;Diclonine;1-(4-Butoxyphenyl)-3-(piperidin-1-yl)propan-1-one hydrochloride",
    "duplicated_cas_no": "",
    "SMILES": "C(CCN1CCCCC1)(=O)C2=CC=C(OCCCC)C=C2.Cl",
    "meta_data": {
        "InChI": "InChI=1S/C18H27NO2.ClH/c1-2-3-15-21-17-9-7-16(8-10-17)18(20)11-14-19-12-5-4-6-13-19;/h7-10H,2-6,11-15H2,1H3;1H",
        "InChIKey": null,
        "Canonical SMILES": "Cl.O=C(C1=CC=C(OCCCC)C=C1)CCN2CCCCC2",
        "Molecular Formula": "C<sub>18</sub>H<sub>27</sub>NO<sub>2</sub>.ClH",
        "Molecular Mass": "",
        "Melting Point": "175-176 °C"
    }
}