{
    "cas_no": "5355-48-6",
    "key_name": "β-Acetyldigoxin",
    "cn_name": null,
    "alternate_name": "Card-20(22)-enolide, 3-[(<em>O</em>-4-<em>O</em>-acetyl-2,6-dideoxy-β-<span class=\"text-smallcaps\">D</smallcap>-<em>ribo</em>-hexopyranosyl-(1→4)-<em>O</em>-2,6-dideoxy-β-<smallcap>D</smallcap>-<em>ribo</em>-hexopyranosyl-(1→4)-2,6-dideoxy-β-<smallcap>D</span>-<em>ribo</em>-hexopyranosyl)oxy]-12,14-dihydroxy-, (3β,5β,12β)-;Digoxin, 4′′′-acetate;(3β,5β,12β)-3-[(<em>O</em>-4-<em>O</em>-Acetyl-2,6-dideoxy-β-<span class=\"text-smallcaps\">D</smallcap>-<em>ribo</em>-hexopyranosyl-(1→4)-<em>O</em>-2,6-dideoxy-β-<smallcap>D</smallcap>-<em>ribo</em>-hexopyranosyl-(1→4)-2,6-dideoxy-β-<smallcap>D</span>-<em>ribo</em>-hexopyranosyl)oxy]-12,14-dihydroxycard-20(22)-enolide;β-Acetyldigoxin;Novodigal;16′-Acetyldigoxin;β-Acetodigoxin;4′′′-Acetyldigoxin;Digoxigenin tridigitoxoside-β-acetate",
    "duplicated_cas_no": "26257-18-1;29026-23-1;34212-05-0",
    "SMILES": "O[C@@]12[C@]3([C@@]([C@]4(C)[C@](CC3)(C[C@@H](O[C@H]5C[C@H](O)[C@H](O[C@H]6C[C@H](O)[C@H](O[C@H]7C[C@H](O)[C@H](OC(C)=O)[C@@H](C)O7)[C@@H](C)O6)[C@@H](C)O5)CC4)[H])(C[C@@H](O)[C@]1(C)[C@H](CC2)C=8COC(=O)C8)[H])[H]",
    "meta_data": {
        "InChI": "InChI=1S/C43H66O15/c1-20-38(55-23(4)44)30(45)17-36(53-20)57-40-22(3)54-37(18-32(40)47)58-39-21(2)52-35(16-31(39)46)56-26-9-11-41(5)25(14-26)7-8-28-29(41)15-33(48)42(6)27(10-12-43(28,42)50)24-13-34(49)51-19-24/h13,20-22,25-33,35-40,45-48,50H,7-12,14-19H2,1-6H3/t20-,21-,22-,25-,26+,27-,28-,29+,30+,31+,32+,33-,35+,36+,37+,38-,39-,40-,41+,42+,43+/m1/s1",
        "InChIKey": null,
        "Canonical SMILES": "O=C1OCC(=C1)C2CCC3(O)C4CCC5CC(OC6OC(C)C(OC7OC(C)C(OC8OC(C)C(OC(=O)C)C(O)C8)C(O)C7)C(O)C6)CCC5(C)C4CC(O)C23C",
        "Molecular Formula": "C<sub>43</sub>H<sub>66</sub>O<sub>15</sub>",
        "Molecular Mass": "822.98",
        "Melting Point": "170 °C"
    }
}