{
    "cas_no": "1985-12-2",
    "key_name": "4-Bromophenyl isothiocyanate",
    "cn_name": "4-溴异硫氰酸苯酯;",
    "alternate_name": "Benzene, 1-bromo-4-isothiocyanato-;Isothiocyanic acid, <em>p</em>-bromophenyl ester;1-Bromo-4-isothiocyanatobenzene;<em>p</em>-Bromophenyl isothiocyanate;4-Bromophenyl isothiocyanate;Bromobenzene-4-isothiocyanate;Trichofytocid;Trichophytocid;NSC 72012;1-Isothiocyanato-4-bromobenzene",
    "duplicated_cas_no": "",
    "SMILES": "N(=C=S)C1=CC=C(Br)C=C1",
    "meta_data": {
        "InChI": "InChI=1S/C7H4BrNS/c8-6-1-3-7(4-2-6)9-5-10/h1-4H",
        "InChIKey": null,
        "Canonical SMILES": "S=C=NC1=CC=C(Br)C=C1",
        "Molecular Formula": "C<sub>7</sub>H<sub>4</sub>BrNS",
        "Molecular Mass": "214.08",
        "Boiling Point": "140 °C @ Press: 13 Torr",
        "Melting Point": "60-61 °C"
    }
}