{
    "cas_no": "68208-19-5",
    "key_name": "3-Amino-3-(3-methoxyphenyl)propionic acid",
    "cn_name": "3-氨基-3-(3-甲氧苯基)丙酸;",
    "alternate_name": "Benzenepropanoic acid, β-amino-3-methoxy-;Hydrocinnamic acid, β-amino-<em>m</em>-methoxy-;β-Amino-3-methoxybenzenepropanoic acid;3-Amino-3-(3-methoxyphenyl)propionic acid;β-Amino-<em>m</em>-methoxyhydrocinnamic acid;3-Azaniumyl-3-(3-methoxyphenyl)propanoate;3-Amino-3-(3-methoxyphenyl)propanoic acid",
    "duplicated_cas_no": "",
    "SMILES": "C(CC(O)=O)(N)C1=CC(OC)=CC=C1",
    "meta_data": {
        "InChI": "InChI=1S/C10H13NO3/c1-14-8-4-2-3-7(5-8)9(11)6-10(12)13/h2-5,9H,6,11H2,1H3,(H,12,13)",
        "InChIKey": null,
        "Canonical SMILES": "O=C(O)CC(N)C=1C=CC=C(OC)C1",
        "Molecular Formula": "C<sub>10</sub>H<sub>13</sub>NO<sub>3</sub>",
        "Molecular Mass": "195.22",
        "Melting Point": "216 °C (decomp)"
    }
}