{
    "cas_no": "22282-73-1",
    "key_name": "3-Fluoro-4-pyridinol",
    "cn_name": null,
    "alternate_name": "4-Pyridinol, 3-fluoro-;3-Fluoro-4-pyridinol;3-Fluoropyridin-4-ol;3-Fluoro-1<em>H</em>-pyridin-4-one;3-Fluoro-4-hydroxypyridine",
    "duplicated_cas_no": "",
    "SMILES": "FC=1C(O)=CC=NC1",
    "meta_data": {
        "InChI": "InChI=1S/C5H4FNO/c6-4-3-7-2-1-5(4)8/h1-3H,(H,7,8)",
        "InChIKey": null,
        "Canonical SMILES": "FC=1C=NC=CC1O",
        "Molecular Formula": "C<sub>5</sub>H<sub>4</sub>FNO",
        "Molecular Mass": "113.09",
        "Melting Point": "153 °C"
    }
}