{
    "cas_no": "59084-16-1",
    "key_name": "1-Acetyl-4-piperidinecarbonyl chloride",
    "cn_name": "N-乙酰基哌啶-4-酰氯;",
    "alternate_name": "4-Piperidinecarbonyl chloride, 1-acetyl-;1-Acetyl-4-piperidinecarbonyl chloride;1-Acetylisonipecotoyl chloride;1-Acetyl-4-piperidylcarbonyl chloride;<em>N</em>-Acetylisonipecotoyl chloride;1-Acetylpiperidin-4-ylcarbonyl chloride",
    "duplicated_cas_no": "64638-19-3;1235301-71-9",
    "SMILES": "C(Cl)(=O)C1CCN(C(C)=O)CC1",
    "meta_data": {
        "InChI": "InChI=1S/C8H12ClNO2/c1-6(11)10-4-2-7(3-5-10)8(9)12/h7H,2-5H2,1H3",
        "InChIKey": null,
        "Canonical SMILES": "O=C(Cl)C1CCN(C(=O)C)CC1",
        "Molecular Formula": "C<sub>8</sub>H<sub>12</sub>ClNO<sub>2</sub>",
        "Molecular Mass": "189.64",
        "Melting Point": "130-138 °C"
    }
}