{
    "cas_no": "939-55-9",
    "key_name": "Ethanol, 2-chloro-, 1-benzoate",
    "cn_name": "苯甲酸2-氯乙酯;2-氯苯甲酸;",
    "alternate_name": "Ethanol, 2-chloro-, 1-benzoate;Ethanol, 2-chloro-, benzoate;2-Chloroethyl benzoate;Benzoic acid 2-chloroethyl ester;β-Chloroethyl benzoate;NSC 44612;Chloroethylbenzoate",
    "duplicated_cas_no": "",
    "SMILES": "C(OCCCl)(=O)C1=CC=CC=C1",
    "meta_data": {
        "InChI": "InChI=1S/C9H9ClO2/c10-6-7-12-9(11)8-4-2-1-3-5-8/h1-5H,6-7H2",
        "InChIKey": null,
        "Canonical SMILES": "O=C(OCCCl)C=1C=CC=CC1",
        "Molecular Formula": "C<sub>9</sub>H<sub>9</sub>ClO<sub>2</sub>",
        "Molecular Mass": "184.62",
        "Boiling Point": "256-257 °C @ Press: 752 Torr",
        "Melting Point": "129-130 °C",
        "Density": "1.1789 g/cm³ @ Temp: 20 °C"
    }
}