{
    "cas_no": "1625-91-8",
    "key_name": "4,4′-Bis(1,1-dimethylethyl)-1,1′-biphenyl",
    "cn_name": null,
    "alternate_name": "1,1′-Biphenyl, 4,4′-bis(1,1-dimethylethyl)-;Biphenyl, 4,4′-di-<em>tert</em>-butyl-;4,4′-Bis(1,1-dimethylethyl)-1,1′-biphenyl;<em>p</em>,<em>p</em>′-Di-<em>tert</em>-butylbiphenyl;4,4′-Di-<em>tert</em>-butylbiphenyl;DBB;4,4′-Di-<em>tert</em>-butyl-1,1′-biphenyl;1-<em>tert</em>-Butyl-4-(4-<em>tert</em>-butylphenyl)benzene",
    "duplicated_cas_no": "",
    "SMILES": "C(C)(C)(C)C1=CC=C(C=C1)C2=CC=C(C(C)(C)C)C=C2",
    "meta_data": {
        "InChI": "InChI=1S/C20H26/c1-19(2,3)17-11-7-15(8-12-17)16-9-13-18(14-10-16)20(4,5)6/h7-14H,1-6H3",
        "InChIKey": null,
        "Canonical SMILES": "C=1C=C(C=CC1C=2C=CC(=CC2)C(C)(C)C)C(C)(C)C",
        "Molecular Formula": "C<sub>20</sub>H<sub>26</sub>",
        "Molecular Mass": "266.42",
        "Boiling Point": "326 °C",
        "Melting Point": "122 °C",
        "Density": "0.9502 g/cm³ @ Temp: 20 °C"
    }
}