{
    "cas_no": "1072-53-3",
    "key_name": "1,3,2-Dioxathiolane, 2,2-dioxide",
    "cn_name": "2-氧代-1,3,2-二氧硫杂戊烷;亚硫酸乙二醇酯;",
    "alternate_name": "1,3,2-Dioxathiolane, 2,2-dioxide;Ethylene glycol, cyclic sulfate;Ethylene sulfate (((CH<sub>2</sub>O)<sub>2</sub>SO<sub>2</sub>));Ethylene sulfate;1,2-Ethylene sulfate;NSC 526594;1,3,2-Dioxathiolan-2,2-dioxide;1,3,2λ6-Dioxathiolane-2,2-dione",
    "duplicated_cas_no": "",
    "SMILES": "O=S1(=O)OCCO1",
    "meta_data": {
        "InChI": "InChI=1S/C2H4O4S/c3-7(4)5-1-2-6-7/h1-2H2",
        "InChIKey": null,
        "Canonical SMILES": "O=S1(=O)OCCO1",
        "Molecular Formula": "C<sub>2</sub>H<sub>4</sub>O<sub>4</sub>S",
        "Molecular Mass": "124.12",
        "Melting Point": "99 °C"
    }
}