{
    "cas_no": "1515-72-6",
    "key_name": "<em>N</em>-Butylphthalimide",
    "cn_name": "N-正丁基邻苯二甲酰亚胺;N-丁基酞酰亚胺;",
    "alternate_name": "1<em>H</em>-Isoindole-1,3(2<em>H</em>)-dione, 2-butyl-;Phthalimide, <em>N</em>-butyl-;2-Butyl-1<em>H</em>-isoindole-1,3(2<em>H</em>)-dione;<em>N</em>-Butylphthalimide;N-Butylphthalimide;<em>N</em>-<em>n</em>-Butylphthalimide;NSC 3559;Levegal EAP 4;2-Butylisoindole-1,3-dione;2-Butyl-2,3-dihydro-1<em>H</em>-isoindole-1,3-dione;2-Butyl-isoindole-1,3-dione;2-Butylisoindoline-1,3-dione",
    "duplicated_cas_no": "",
    "SMILES": "O=C1C=2C(C(=O)N1CCCC)=CC=CC2",
    "meta_data": {
        "InChI": "InChI=1S/C12H13NO2/c1-2-3-8-13-11(14)9-6-4-5-7-10(9)12(13)15/h4-7H,2-3,8H2,1H3",
        "InChIKey": null,
        "Canonical SMILES": "O=C1C=2C=CC=CC2C(=O)N1CCCC",
        "Molecular Formula": "C<sub>12</sub>H<sub>13</sub>NO<sub>2</sub>",
        "Molecular Mass": "203.24",
        "Boiling Point": "311.8 °C",
        "Melting Point": "34 °C"
    }
}