{
    "cas_no": "6218-29-7",
    "key_name": "17β-Hydroxyestra-4,9-dien-3-one",
    "cn_name": "甲基双烯醇酮;17b-羟基雌甾-4,9-二烯-3-酮;",
    "alternate_name": "Estra-4,9-dien-3-one, 17-hydroxy-, (17β)-;Estra-4,9-dien-3-one, 17β-hydroxy-;(17β)-17-Hydroxyestra-4,9-dien-3-one;17β-Hydroxyestra-4,9-dien-3-one;9,10-Dehydro-19-nortestosterone;4,9-Estradien-17β-ol-3-one;3-Oxo-4,9-estradien-17β-ol;RU 3118",
    "duplicated_cas_no": "",
    "SMILES": "C[C@@]12[C@]([C@]3(C(=C4C(CC3)=CC(=O)CC4)CC1)[H])(CC[C@@H]2O)[H]",
    "meta_data": {
        "InChI": "InChI=1S/C18H24O2/c1-18-9-8-14-13-5-3-12(19)10-11(13)2-4-15(14)16(18)6-7-17(18)20/h10,15-17,20H,2-9H2,1H3/t15-,16+,17+,18+/m1/s1",
        "InChIKey": null,
        "Canonical SMILES": "O=C1C=C2C(=C3CCC4(C)C(O)CCC4C3CC2)CC1",
        "Molecular Formula": "C<sub>18</sub>H<sub>24</sub>O<sub>2</sub>",
        "Molecular Mass": "272.38",
        "Melting Point": "187-188 °C"
    }
}