{
    "cas_no": "61189-99-9",
    "key_name": "2,2-Diethoxyacetamide",
    "cn_name": null,
    "alternate_name": "Acetamide, 2,2-diethoxy-;Glyoxylamide, diethyl acetal;2,2-Diethoxyacetamide;NSC 363000",
    "duplicated_cas_no": "",
    "SMILES": "C(OCC)(OCC)C(N)=O",
    "meta_data": {
        "InChI": "InChI=1S/C6H13NO3/c1-3-9-6(5(7)8)10-4-2/h6H,3-4H2,1-2H3,(H2,7,8)",
        "InChIKey": null,
        "Canonical SMILES": "O=C(N)C(OCC)OCC",
        "Molecular Formula": "C<sub>6</sub>H<sub>13</sub>NO<sub>3</sub>",
        "Molecular Mass": "147.17",
        "Melting Point": "81.5 °C"
    }
}