{
    "cas_no": "133408-50-1",
    "key_name": "Metominostrobin",
    "cn_name": "(E)-苯氧菌胺;",
    "alternate_name": "Benzeneacetamide, α-(methoxyimino)-<em>N</em>-methyl-2-phenoxy-, (α<em>E</em>)-;Benzeneacetamide, α-(methoxyimino)-<em>N</em>-methyl-2-phenoxy-, (<em>E</em>)-;(α<em>E</em>)-α-(Methoxyimino)-<em>N</em>-methyl-2-phenoxybenzeneacetamide;SSF 126;(<em>E</em>)-2-(Methoxyimino)-<em>N</em>-methyl-2-(2-phenoxyphenyl)acetamide;Metominostrobin;Oribright;E-Metominostrobin;(<em>E</em>)-Metominostrobin",
    "duplicated_cas_no": "1135441-45-0",
    "SMILES": "C(\\C(NC)=O)(=N/OC)/C1=C(OC2=CC=CC=C2)C=CC=C1",
    "meta_data": {
        "InChI": "InChI=1S/C16H16N2O3/c1-17-16(19)15(18-20-2)13-10-6-7-11-14(13)21-12-8-4-3-5-9-12/h3-11H,1-2H3,(H,17,19)/b18-15+",
        "InChIKey": null,
        "Canonical SMILES": "O=C(NC)C(=NOC)C=1C=CC=CC1OC=2C=CC=CC2",
        "Molecular Formula": "C<sub>16</sub>H<sub>16</sub>N<sub>2</sub>O<sub>3</sub>",
        "Molecular Mass": "284.31",
        "Melting Point": "88 °C"
    }
}