{
    "cas_no": "96182-53-5",
    "key_name": "Tebupirimfos",
    "cn_name": "丁基嘧啶磷;O，2-特丁基嘧啶-5-基-O-乙基-O-异丙基磷酸酯;",
    "alternate_name": "Phosphorothioic acid, <em>O</em>-[2-(1,1-dimethylethyl)-5-pyrimidinyl] <em>O</em>-ethyl <em>O</em>-(1-methylethyl) ester;MAT 7484;BAY-MAT 7484;Tebupirimphos;Tebupirimfos;Phostebupirim",
    "duplicated_cas_no": "",
    "SMILES": "O(P(OC(C)C)(OCC)=S)C=1C=NC(C(C)(C)C)=NC1",
    "meta_data": {
        "InChI": "InChI=1S/C13H23N2O3PS/c1-7-16-19(20,17-10(2)3)18-11-8-14-12(15-9-11)13(4,5)6/h8-10H,7H2,1-6H3",
        "InChIKey": null,
        "Canonical SMILES": "S=P(OC1=CN=C(N=C1)C(C)(C)C)(OCC)OC(C)C",
        "Molecular Formula": "C<sub>13</sub>H<sub>23</sub>N<sub>2</sub>O<sub>3</sub>PS",
        "Molecular Mass": "318.37",
        "Boiling Point": "152 °C"
    }
}