{
    "cas_no": "33252-32-3",
    "key_name": "4-Ethyl-2-pyridinamine",
    "cn_name": "2-氨基-4-乙基吡啶;",
    "alternate_name": "2-Pyridinamine, 4-ethyl-;Pyridine, 2-amino-4-ethyl-;4-Ethyl-2-pyridinamine;2-Amino-4-ethylpyridine;(4-Ethylpyridin-2-yl)amine;4-Ethyl-2-Aminopyridine",
    "duplicated_cas_no": "",
    "SMILES": "C(C)C=1C=C(N)N=CC1",
    "meta_data": {
        "InChI": "InChI=1S/C7H10N2/c1-2-6-3-4-9-7(8)5-6/h3-5H,2H2,1H3,(H2,8,9)",
        "InChIKey": null,
        "Canonical SMILES": "N=1C=CC(=CC1N)CC",
        "Molecular Formula": "C<sub>7</sub>H<sub>10</sub>N<sub>2</sub>",
        "Molecular Mass": "122.17",
        "Boiling Point": "140-148 °C @ Press: 20 Torr",
        "Melting Point": "66.5-67.5 °C"
    }
}