{
    "cas_no": "62269-44-7",
    "key_name": "Methyl 3-[(trimethylsilyl)oxy]-2-butenoate",
    "cn_name": null,
    "alternate_name": "2-Butenoic acid, 3-[(trimethylsilyl)oxy]-, methyl ester;Methyl 3-[(trimethylsilyl)oxy]-2-butenoate;Methyl 3-(trimethylsiloxy)-2-butenoate;Methyl (Z/E)-3-((trimethylsilyl)oxy)but-2-enoate",
    "duplicated_cas_no": "",
    "SMILES": "O([Si](C)(C)C)C(=CC(OC)=O)C",
    "meta_data": {
        "InChI": "InChI=1S/C8H16O3Si/c1-7(6-8(9)10-2)11-12(3,4)5/h6H,1-5H3",
        "InChIKey": null,
        "Canonical SMILES": "O=C(OC)C=C(O[Si](C)(C)C)C",
        "Molecular Formula": "C<sub>8</sub>H<sub>16</sub>O<sub>3</sub>Si",
        "Molecular Mass": "188.30",
        "Boiling Point": "57-59 °C @ Press: 9 Torr",
        "Density": "0.939 g/cm³"
    }
}