{
    "cas_no": "52055-23-9",
    "key_name": "1<em>H</em>-Indole-3-ethanamine, 5-(phenylmethoxy)-, hydrochloride (1:1)",
    "cn_name": null,
    "alternate_name": "1<em>H</em>-Indole-3-ethanamine, 5-(phenylmethoxy)-, hydrochloride (1:1);1<em>H</em>-Indole-3-ethanamine, 5-(phenylmethoxy)-, monohydrochloride;5-(Benzyloxy)tryptamine monohydrochloride;5-Benzyloxytryptamine hydrochloride;2-[5-(Benzyloxy)-1<em>H</em>-indol-3-yl]ethan-1-amine hydrochloride",
    "duplicated_cas_no": "",
    "SMILES": "C(CN)C=1C=2C(NC1)=CC=C(OCC3=CC=CC=C3)C2.Cl",
    "meta_data": {
        "InChI": "InChI=1S/C17H18N2O.ClH/c18-9-8-14-11-19-17-7-6-15(10-16(14)17)20-12-13-4-2-1-3-5-13;/h1-7,10-11,19H,8-9,12,18H2;1H",
        "InChIKey": null,
        "Canonical SMILES": "Cl.O(C=1C=CC=2NC=C(C2C1)CCN)CC=3C=CC=CC3",
        "Molecular Formula": "C<sub>17</sub>H<sub>18</sub>N<sub>2</sub>O.ClH",
        "Molecular Mass": "",
        "Melting Point": "265 °C"
    }
}