{
    "cas_no": "69372-19-6",
    "key_name": "Pemirolast",
    "cn_name": "吡嘧司特;吡嘧司特;9-甲基-3-(1H-四唑-5-基)-4H-吡啶并[1,2-Α]嘧啶-4-酮;哌罗司特;",
    "alternate_name": "4<em>H</em>-Pyrido[1,2-<em>a</em>]pyrimidin-4-one, 9-methyl-3-(2<em>H</em>-tetrazol-5-yl)-;4<em>H</em>-Pyrido[1,2-<em>a</em>]pyrimidin-4-one, 9-methyl-3-(1<em>H</em>-tetrazol-5-yl)-;9-Methyl-3-(2<em>H</em>-tetrazol-5-yl)-4<em>H</em>-pyrido[1,2-<em>a</em>]pyrimidin-4-one;9-Methyl-3-(1<em>H</em>-tetrazol-5-yl)-4<em>H</em>-pyrido[1,2-<em>a</em>]pyrimidin-4-one;Pemirolast",
    "duplicated_cas_no": "",
    "SMILES": "O=C1N2C(C(C)=CC=C2)=NC=C1C=3NN=NN3",
    "meta_data": {
        "InChI": "InChI=1S/C10H8N6O/c1-6-3-2-4-16-9(6)11-5-7(10(16)17)8-12-14-15-13-8/h2-5H,1H3,(H,12,13,14,15)",
        "InChIKey": null,
        "Canonical SMILES": "O=C1C(=CN=C2C(=CC=CN12)C)C3=NN=NN3",
        "Molecular Formula": "C<sub>10</sub>H<sub>8</sub>N<sub>6</sub>O",
        "Molecular Mass": "228.21",
        "Melting Point": "310-311 °C (decomp)"
    }
}