{
    "cas_no": "18204-93-8",
    "key_name": "Dichlorodihexylsilane",
    "cn_name": "二氯二己基硅烷;",
    "alternate_name": "Silane, dichlorodihexyl-;Dichlorodihexylsilane;LS 4460;Dihexyldichlorosilane",
    "duplicated_cas_no": "",
    "SMILES": "C([Si](CCCCCC)(Cl)Cl)CCCCC",
    "meta_data": {
        "InChI": "InChI=1S/C12H26Cl2Si/c1-3-5-7-9-11-15(13,14)12-10-8-6-4-2/h3-12H2,1-2H3",
        "InChIKey": null,
        "Canonical SMILES": "Cl[Si](Cl)(CCCCCC)CCCCCC",
        "Molecular Formula": "C<sub>12</sub>H<sub>26</sub>Cl<sub>2</sub>Si",
        "Molecular Mass": "269.33",
        "Boiling Point": "111-113 °C @ Press: 6 Torr",
        "Density": "0.9617 g/cm³ @ Temp: 420 °C"
    }
}