{
    "cas_no": "89-98-5",
    "key_name": "2-Chlorobenzaldehyde",
    "cn_name": "邻氯苯甲醛;2-氯苯甲醛;OCBA;",
    "alternate_name": "Benzaldehyde, 2-chloro-;Benzaldehyde, <em>o</em>-chloro-;2-Chlorobenzaldehyde;<em>o</em>-Chlorobenzaldehyde;<em>o</em>-Chlorobenzenecarboxaldehyde;2-Chlorobenzoic aldehyde;<em>o</em>-Chloroformylbenzene;NSC 15347;2-Chlorophenylcarboxaldehyde",
    "duplicated_cas_no": "",
    "SMILES": "C(=O)C1=C(Cl)C=CC=C1",
    "meta_data": {
        "InChI": "InChI=1S/C7H5ClO/c8-7-4-2-1-3-6(7)5-9/h1-5H",
        "InChIKey": null,
        "Canonical SMILES": "O=CC=1C=CC=CC1Cl",
        "Molecular Formula": "C<sub>7</sub>H<sub>5</sub>ClO",
        "Molecular Mass": "140.57",
        "Boiling Point": "211.9 °C @ Press: 760 Torr",
        "Melting Point": "12.39 °C",
        "Density": "1.2483 g/cm³ @ Temp: 20 °C"
    }
}