{
    "cas_no": "119171-18-5",
    "key_name": "1-Methyl-3-propylimidazolium iodide",
    "cn_name": "1-甲基-3-丙基碘化咪唑嗡;",
    "alternate_name": "1<em>H</em>-Imidazolium, 1-methyl-3-propyl-, iodide (1:1);1<em>H</em>-Imidazolium, 1-methyl-3-propyl-, iodide;1-Methyl-3-propylimidazolium iodide;1-Propyl-3-methylimidazolium iodide;1-Methyl-3-<em>n</em>-propylimidazolium iodide;Methylpropylimidazolium iodide;MPII;MPrZ-I;3-Propyl-1-methylimidazolium iodide;PMII;3-Methyl-1-propylimidazolium iodide;1-Methyl-3-propyl-1<em>H</em>-imidazolium iodide;1-Methyl-3-propyl-1<em>H</em>-imidazol-3-ium iodide;3-Methyl-1-propyl-1<em>H</em>-imidazol-3-ium iodide;1-Propyl-3-methyl-1<em>H</em>-imidazol-3-ium iodide",
    "duplicated_cas_no": "1357083-38-5",
    "SMILES": "C(CC)[N+]1=CN(C)C=C1.[I-]",
    "meta_data": {
        "InChI": "InChI=1S/C7H13N2.HI/c1-3-4-9-6-5-8(2)7-9;/h5-7H,3-4H2,1-2H3;1H/q+1;/p-1",
        "InChIKey": null,
        "Canonical SMILES": "[I-].C1=C[N+](=CN1C)CCC",
        "Molecular Formula": "C<sub>7</sub>H<sub>13</sub>N<sub>2</sub>.I",
        "Molecular Mass": "",
        "Melting Point": "17.0 °C",
        "Density": "1.49 g/cm³ @ Temp: 85 °C"
    }
}