{
    "cas_no": "897-55-2",
    "key_name": "<em>N</em>,<em>N</em>-Dimethyl-4-[2-(4-quinolinyl)ethenyl]benzenamine",
    "cn_name": "4-(4-二甲氨基苯乙烯)喹啉;",
    "alternate_name": "Benzenamine, <em>N</em>,<em>N</em>-dimethyl-4-[2-(4-quinolinyl)ethenyl]-;Quinoline, 4-[<em>p</em>-(dimethylamino)styryl]-;<em>N</em>,<em>N</em>-Dimethyl-4-[2-(4-quinolinyl)ethenyl]benzenamine;4M20;4-(<em>p</em>-Dimethylaminostyryl)quinoline;4-(4-Dimethylaminostyryl)quinoline;NK 1837;NSC 4236",
    "duplicated_cas_no": "66796-38-1;82735-46-4",
    "SMILES": "C(=CC1=CC=C(N(C)C)C=C1)C=2C3=C(N=CC2)C=CC=C3",
    "meta_data": {
        "InChI": "InChI=1S/C19H18N2/c1-21(2)17-11-8-15(9-12-17)7-10-16-13-14-20-19-6-4-3-5-18(16)19/h3-14H,1-2H3",
        "InChIKey": null,
        "Canonical SMILES": "N=1C=CC(C=CC2=CC=C(C=C2)N(C)C)=C3C=CC=CC13",
        "Molecular Formula": "C<sub>19</sub>H<sub>18</sub>N<sub>2</sub>",
        "Molecular Mass": "274.36",
        "Melting Point": "141-142 °C"
    }
}