{
    "cas_no": "502-65-8",
    "key_name": "Lycopene",
    "cn_name": "番茄红素;茄红素;",
    "alternate_name": "ψ,ψ-Carotene;Lycopene, <em>all</em>-<em>trans</em>-;C.I. 75125;Lycopene 7;<em>trans</em>-Lycopene;Lycopene;<em>all</em>-<em>trans</em>-Lycopene;(<em>all</em>-<em>E</em>)-2,6,10,14,19,23,27,31-Octamethyl-2,6,8,10,12,14,16,18,20,22,24,26,30-dotriacontatridecaene;2,6,8,10,12,14,16,18,20,22,24,26,30-Dotriacontatridecaene, 2,6,10,14,19,23,27,31-octamethyl-, (6<em>E</em>,8<em>E</em>,10<em>E</em>,12<em>E</em>,14<em>E</em>,16<em>E</em>,18<em>E</em>,20<em>E</em>,22<em>E</em>,24<em>E</em>,26<em>E</em>)-;(6<em>E</em>,8<em>E</em>,10<em>E</em>,12<em>E</em>,14<em>E</em>,16<em>E</em>,18<em>E</em>,20<em>E</em>,22<em>E</em>,24<em>E</em>,26<em>E</em>)-2,6,10,14,19,23,27,31-Octamethyl-2,6,8,10,12,14,16,18,20,22,24,26,30-dotriacontatridecaene;Lyco Vit;NSC 407322;Lycored;Redivivo;E 160d;Mexoryl SAQ;Tomat-<em>O</em>-Red;Lycopene Base;Lyconat;(<em>all</em>-<em>E</em>)-Lycopene;Solanorubin;Lycopene 18;Lycovit D 10",
    "duplicated_cas_no": "7634-65-3;25453-98-9;360790-67-6",
    "SMILES": "C(=C/C=C/C(=C/C=C/C=C(/C=C/C=C(/C=C/C=C(/CCC=C(C)C)\\C)\\C)\\C)/C)(\\C=C\\C=C(\\CCC=C(C)C)/C)/C",
    "meta_data": {
        "InChI": "InChI=1S/C40H56/c1-33(2)19-13-23-37(7)27-17-31-39(9)29-15-25-35(5)21-11-12-22-36(6)26-16-30-40(10)32-18-28-38(8)24-14-20-34(3)4/h11-12,15-22,25-32H,13-14,23-24H2,1-10H3/b12-11+,25-15+,26-16+,31-17+,32-18+,35-21+,36-22+,37-27+,38-28+,39-29+,40-30+",
        "InChIKey": null,
        "Canonical SMILES": "C(=CC=C(C=CC=C(C=CC=C(C)CCC=C(C)C)C)C)C=C(C=CC=C(C=CC=C(C)CCC=C(C)C)C)C",
        "Molecular Formula": "C<sub>40</sub>H<sub>56</sub>",
        "Molecular Mass": "536.87",
        "Melting Point": "175 °C"
    }
}