{
    "cas_no": "923-37-5",
    "key_name": "Ureidosuccinic acid",
    "cn_name": "氨基甲酰基-DL-天冬氨酸;",
    "alternate_name": "Aspartic acid, <em>N</em>-(aminocarbonyl)-;Aspartic acid, <em>N</em>-carbamoyl-, <span class=\"text-smallcaps\">DL</span>-;<span class=\"text-smallcaps\">DL</span>-Aspartic acid, <em>N</em>-(aminocarbonyl)-;Aspartic acid, <em>N</em>-carbamoyl-;<em>N</em>-(Aminocarbonyl)aspartic acid;<span class=\"text-smallcaps\">DL</span>-2-Ureidobutanedioic acid;Carbamyl-<span class=\"text-smallcaps\">DL</span>-aspartic acid;Ureidosuccinic acid;<em>N</em>-Carbamoyl-<span class=\"text-smallcaps\">DL</span>-aspartic acid;NSC 120033;2-Ureidosuccinic acid;2-(Carbamoylamino)butanedioic acid",
    "duplicated_cas_no": "",
    "SMILES": "C(CC(O)=O)(NC(N)=O)C(O)=O",
    "meta_data": {
        "InChI": "InChI=1S/C5H8N2O5/c6-5(12)7-2(4(10)11)1-3(8)9/h2H,1H2,(H,8,9)(H,10,11)(H3,6,7,12)",
        "InChIKey": null,
        "Canonical SMILES": "O=C(N)NC(C(=O)O)CC(=O)O",
        "Molecular Formula": "C<sub>5</sub>H<sub>8</sub>N<sub>2</sub>O<sub>5</sub>",
        "Molecular Mass": "176.13",
        "Melting Point": "178-180 °C",
        "Density": "1.65 g/cm³"
    }
}