{
    "cas_no": "14976-57-9",
    "key_name": "Clemastine fumarate",
    "cn_name": "富马酸氯马斯汀;(R-(R*,R*))-1-甲基-2-(2-(1-(4-氯苯基)-1-苯乙氧基)乙基)-吡咯烷(E)-2-丁烯二酸盐;",
    "alternate_name": "Pyrrolidine, 2-[2-[(1<em>R</em>)-1-(4-chlorophenyl)-1-phenylethoxy]ethyl]-1-methyl-, (2<em>R</em>)-, (2<em>E</em>)-2-butenedioate (1:1);Pyrrolidine, 2-[2-[(<em>p</em>-chloro-α-methyl-α-phenylbenzyl)oxy]ethyl]-1-methyl-, (+)-, fumarate (1:1);Pyrrolidine, 2-[2-[1-(4-chlorophenyl)-1-phenylethoxy]ethyl]-1-methyl-, [<em>R</em>-(<em>R</em>*,<em>R</em>*)]-, (<em>E</em>)-2-butenedioate (1:1);HS 592;Tavegil;(+)-2-[2-[(<em>p</em>-Chloro-α-methyl-α-phenylbenzyl)oxy]ethyl]-1-methylpyrrolidine fumarate;Clemastine fumarate;Clemastine hydrogen fumarate;Tavegyl;Agasten;Tavist;Meclastine fumarate;Mecloprodine;Telgin G;Lacretin;Kinotomin;Marsthine;Masletine;Inbestan;Lecasol;Maikohis;Piloral;Alphamin;Fuluminol;Mallermin F;Trabest;Xolamin;Anhistan;Aloginan;Reconin;Bravegyl;Telgin",
    "duplicated_cas_no": "52205-67-1",
    "SMILES": "[C@@](OCC[C@@H]1N(C)CCC1)(C)(C2=CC=C(Cl)C=C2)C3=CC=CC=C3.C(=C/C(O)=O)\\C(O)=O",
    "meta_data": {
        "InChI": "",
        "InChIKey": null,
        "Canonical SMILES": "O=C(O)C=CC(=O)O.ClC1=CC=C(C=C1)C(OCCC2N(C)CCC2)(C=3C=CC=CC3)C",
        "Molecular Formula": "C<sub>21</sub>H<sub>26</sub>ClNO.C<sub>4</sub>H<sub>4</sub>O<sub>4</sub>",
        "Molecular Mass": "",
        "Boiling Point": "154 °C @ Press: 0.02 Torr",
        "Melting Point": "177-178 °C"
    }
}