{
    "cas_no": "3113-71-1",
    "key_name": "3-Methyl-4-nitrobenzoic acid",
    "cn_name": "3-甲基-4-硝基苯甲酸;",
    "alternate_name": "Benzoic acid, 3-methyl-4-nitro-;<em>m</em>-Toluic acid, 4-nitro-;3-Methyl-4-nitrobenzoic acid;4-Nitro-<em>m</em>-toluic acid;<em>m</em>-Methyl-<em>p</em>-nitrobenzoic acid;4-Nitro-3-methylbenzoic acid;NSC 28455",
    "duplicated_cas_no": "",
    "SMILES": "C(O)(=O)C1=CC(C)=C(N(=O)=O)C=C1",
    "meta_data": {
        "InChI": "InChI=1S/C8H7NO4/c1-5-4-6(8(10)11)2-3-7(5)9(12)13/h2-4H,1H3,(H,10,11)",
        "InChIKey": null,
        "Canonical SMILES": "O=C(O)C1=CC=C(C(=C1)C)N(=O)=O",
        "Molecular Formula": "C<sub>8</sub>H<sub>7</sub>NO<sub>4</sub>",
        "Molecular Mass": "181.15",
        "Melting Point": "211 °C"
    }
}