{
    "cas_no": "64544-07-6",
    "key_name": "Cefuroxime axetil",
    "cn_name": "头孢呋辛酯;(6R,7R)-7-[2-呋喃基(甲氧亚氨基)乙酰氨基]-3-氨基甲酰氧甲基-8-氧代-5-硫杂-1-氮杂双环[4.2.0];",
    "alternate_name": "5-Thia-1-azabicyclo[4.2.0]oct-2-ene-2-carboxylic acid, 3-[[(aminocarbonyl)oxy]methyl]-7-[[(2<em>Z</em>)-2-(2-furanyl)-2-(methoxyimino)acetyl]amino]-8-oxo-, 1-(acetyloxy)ethyl ester, (6<em>R</em>,7<em>R</em>)-;5-Thia-1-azabicyclo[4.2.0]oct-2-ene-2-carboxylic acid, 3-[[(aminocarbonyl)oxy]methyl]-7-[[2-furanyl(methoxyimino)acetyl]amino]-8-oxo-, 1-(acetyloxy)ethyl ester, [6<em>R</em>-[6α,7β(<em>Z</em>)]]-;5-Thia-1-azabicyclo[4.2.0]oct-2-ene-2-carboxylic acid, 3-[[(aminocarbonyl)oxy]methyl]-7-[[(2<em>Z</em>)-2-furanyl(methoxyimino)acetyl]amino]-8-oxo-, 1-(acetyloxy)ethyl ester, (6<em>R</em>,7<em>R</em>)-;Cefuroxime axetil;Ceftin;Elobact;Cefuroxime 1-acetoxyethyl ester;Zinnat;Cefurax;Oraxim;CCI 15641;Cefazine;Zinat;Bioracef;Cefaks;Altacef;Forcef;Bioxime;Xorimax",
    "duplicated_cas_no": "",
    "SMILES": "C(OC(OC(C)=O)C)(=O)C=1N2[C@@]([C@H](NC(/C(=N\\OC)/C3=CC=CO3)=O)C2=O)(SCC1COC(N)=O)[H]",
    "meta_data": {
        "InChI": "InChI=1S/C20H22N4O10S/c1-9(25)33-10(2)34-19(28)15-11(7-32-20(21)29)8-35-18-14(17(27)24(15)18)22-16(26)13(23-30-3)12-5-4-6-31-12/h4-6,10,14,18H,7-8H2,1-3H3,(H2,21,29)(H,22,26)/b23-13-/t10?,14-,18-/m1/s1",
        "InChIKey": null,
        "Canonical SMILES": "O=C(OCC1=C(C(=O)OC(OC(=O)C)C)N2C(=O)C(NC(=O)C(=NOC)C=3OC=CC3)C2SC1)N",
        "Molecular Formula": "C<sub>20</sub>H<sub>22</sub>N<sub>4</sub>O<sub>10</sub>S",
        "Molecular Mass": "510.47",
        "Melting Point": "175-180 °C"
    }
}