{
    "cas_no": "108-86-1",
    "key_name": "Bromobenzene",
    "cn_name": "溴苯;",
    "alternate_name": "Benzene, bromo-;Bromobenzene;Monobromobenzene;Phenyl bromide;NSC 6529;1-Bromobenzene;Bromobenzol;Bromobenzene dimer",
    "duplicated_cas_no": "2692599-16-7",
    "SMILES": "BrC1=CC=CC=C1",
    "meta_data": {
        "InChI": "InChI=1S/C6H5Br/c7-6-4-2-1-3-5-6/h1-5H",
        "InChIKey": null,
        "Canonical SMILES": "BrC=1C=CC=CC1",
        "Molecular Formula": "C<sub>6</sub>H<sub>5</sub>Br",
        "Molecular Mass": "157.01",
        "Boiling Point": "156.2 °C @ Press: 760 Torr",
        "Melting Point": "-30.7 °C",
        "Density": "1.5 g/cm³"
    }
}