{
    "cas_no": "973-21-7",
    "key_name": "2-<em>sec</em>-Butyl-4,6-dinitrophenyl isopropyl carbonate",
    "cn_name": "消螨通;敌螨通；2－另丁基－4，6－二硝基苯基异丙基碳酸酯;",
    "alternate_name": "Carbonic acid, 1-methylethyl 2-(1-methylpropyl)-4,6-dinitrophenyl ester;Carbonic acid, 2-<em>sec</em>-butyl-4,6-dinitrophenyl isopropyl ester;2,4-Dinitro-6-<em>sec</em>-butylphenyl-isopropylcarbonate;Dinobuton;Isopropyl 2,4-dinitro-6-<em>sec</em>-butylphenyl carbonate;UC 19786;Union Carbide 19786;Dessin;Kasebon;2,4-Dinitro-6-<em>sec</em>-butylphenyl-<em>O</em>-isopropyl carbonate;Acrex;MC 1053;2-<em>sec</em>-Butyl-4,6-dinitrophenyl isopropyl carbonate;Drawinol;Isophen;Isophen (pesticide);Akrex",
    "duplicated_cas_no": "61840-20-8;1135443-32-1",
    "SMILES": "O(C(OC(C)C)=O)C1=C(C(CC)C)C=C(N(=O)=O)C=C1N(=O)=O",
    "meta_data": {
        "InChI": "InChI=1S/C14H18N2O7/c1-5-9(4)11-6-10(15(18)19)7-12(16(20)21)13(11)23-14(17)22-8(2)3/h6-9H,5H2,1-4H3",
        "InChIKey": null,
        "Canonical SMILES": "O=C(OC=1C(=CC(=CC1C(C)CC)N(=O)=O)N(=O)=O)OC(C)C",
        "Molecular Formula": "C<sub>14</sub>H<sub>18</sub>N<sub>2</sub>O<sub>7</sub>",
        "Molecular Mass": "326.30",
        "Melting Point": "56-57 °C"
    }
}