{
    "cas_no": "61676-87-7",
    "key_name": "Cymiazole",
    "cn_name": "螨蜱胺;N-3-甲基-4-亚噻唑-2-基-2,4-二甲基苯胺;",
    "alternate_name": "Benzenamine, 2,4-dimethyl-<em>N</em>-(3-methyl-2(3<em>H</em>)-thiazolylidene)-;2,4-Dimethyl-<em>N</em>-(3-methyl-2(3<em>H</em>)-thiazolylidene)benzenamine;CGA 50439;Tifatol;Xymiazole;Besuntol;2-(2′,4′-Dimethylphenylimino)-3-methylthiazoline;Cymiazole;2,4-Dimethyl-<em>N</em>-(3-methylthiazol-2(3<em>H</em>)-ylidene)aniline",
    "duplicated_cas_no": "",
    "SMILES": "N(C1=C(C)C=C(C)C=C1)=C2N(C)C=CS2",
    "meta_data": {
        "InChI": "InChI=1S/C12H14N2S/c1-9-4-5-11(10(2)8-9)13-12-14(3)6-7-15-12/h4-8H,1-3H3",
        "InChIKey": null,
        "Canonical SMILES": "N(C1=CC=C(C=C1C)C)=C2SC=CN2C",
        "Molecular Formula": "C<sub>12</sub>H<sub>14</sub>N<sub>2</sub>S",
        "Molecular Mass": "218.32",
        "Melting Point": "44 °C"
    }
}