{
    "cas_no": "15513-52-7",
    "key_name": "2,6-Dimethyl-3-nitropyridine",
    "cn_name": "2,6-二甲基-3-硝基吡啶;",
    "alternate_name": "Pyridine, 2,6-dimethyl-3-nitro-;2,6-Lutidine, 3-nitro-;2,6-Dimethyl-3-nitropyridine;3-Nitro-2,6-dimethylpyridine;3-Nitro-2,6-lutidine;NSC 88939",
    "duplicated_cas_no": "",
    "SMILES": "N(=O)(=O)C1=C(C)N=C(C)C=C1",
    "meta_data": {
        "InChI": "InChI=1S/C7H8N2O2/c1-5-3-4-7(9(10)11)6(2)8-5/h3-4H,1-2H3",
        "InChIKey": null,
        "Canonical SMILES": "O=N(=O)C1=CC=C(N=C1C)C",
        "Molecular Formula": "C<sub>7</sub>H<sub>8</sub>N<sub>2</sub>O<sub>2</sub>",
        "Molecular Mass": "152.15",
        "Boiling Point": "220-230 °C",
        "Melting Point": "37 °C"
    }
}