{
    "cas_no": "13831-30-6",
    "key_name": "Acetoxyacetic acid",
    "cn_name": "乙酰氧基乙酸;",
    "alternate_name": "Acetic acid, 2-(acetyloxy)-;Glycolic acid, acetate;Acetic acid, (acetyloxy)-;2-(Acetyloxy)acetic acid;α-Acetoxyacetic acid;2-Hydroxyacetic acid acetate;Acetylglycolic acid;(Acetyloxy)acetic acid;Acetoxyacetic acid;<em>O</em>-Acetylglycolic acid;NSC 72984;2-Acetoxyacetic acid",
    "duplicated_cas_no": "",
    "SMILES": "C(OC(C)=O)C(O)=O",
    "meta_data": {
        "InChI": "InChI=1S/C4H6O4/c1-3(5)8-2-4(6)7/h2H2,1H3,(H,6,7)",
        "InChIKey": null,
        "Canonical SMILES": "O=C(O)COC(=O)C",
        "Molecular Formula": "C<sub>4</sub>H<sub>6</sub>O<sub>4</sub>",
        "Molecular Mass": "118.09",
        "Boiling Point": "141-142 °C @ Press: 12 Torr",
        "Melting Point": "67.5 °C"
    }
}