{
    "cas_no": "629-08-3",
    "key_name": "Heptanenitrile",
    "cn_name": null,
    "alternate_name": "Heptanenitrile;Enanthonitrile;Heptanonitrile;Hexyl cyanide;1-Cyanohexane;<em>n</em>-Heptanenitrile;NSC 2172",
    "duplicated_cas_no": "1885-40-1;73833-76-8",
    "SMILES": "C(CCC#N)CCC",
    "meta_data": {
        "InChI": "InChI=1S/C7H13N/c1-2-3-4-5-6-7-8/h2-6H2,1H3",
        "InChIKey": null,
        "Canonical SMILES": "N#CCCCCCC",
        "Molecular Formula": "C<sub>7</sub>H<sub>13</sub>N",
        "Molecular Mass": "111.18",
        "Boiling Point": "183 °C",
        "Melting Point": "-64 °C"
    }
}