{
    "cas_no": "152-58-9",
    "key_name": "11-Deoxycortisol",
    "cn_name": null,
    "alternate_name": "Pregn-4-ene-3,20-dione, 17,21-dihydroxy-;17,21-Dihydroxypregn-4-ene-3,20-dione;Cortexolone;Cortisol, 11-deoxy-;Cortodoxone;11-Deoxycortisol;11-Deoxyhydrocortisone;11-Desoxyhydrocortisone;17α,21-Dihydroxypregn-4-ene-3,20-dione;17α-Hydroxycortexone;17-Hydroxy-11-deoxycorticosterone;Δ<sup>4</sup>-Pregnene-17α,21-diol-3,20-dione;4-Pregnene-17α,21-diol-3,20-dione;Reichstein S;Reichstein's compound S;Reichstein's substance S;Substance S;17,21-Dihydroxyprogesterone;11-Deoxy-17-hydroxycorticosterone;11-Desoxycortisol;17α,21-Dihydroxyprogesterone;17,21-Dihydroxypregn-4-en-3,20-dione;4-Pregnen-17α,21-diol-3,20-dione;SKF 3050;11-Deoxycortisone;11-Desoxy-17α-hydroxycorticosterone;11-Deoxy-17-hydrocorticosterone;Cortifen;17α,21-Dihydroxy-4-pregnen-3,20-dione;NSC 18317;Reichstein substance S;4-Pregnene-11β,17,21-triol-3,20-dione;11-Desoxycortisone",
    "duplicated_cas_no": "37-60-5;188561-67-3;478614-16-3",
    "SMILES": "C[C@@]12[C@]([C@]3([C@@]([C@]4(C)C(CC3)=CC(=O)CC4)(CC1)[H])[H])(CC[C@@]2(C(CO)=O)O)[H]",
    "meta_data": {
        "InChI": "InChI=1S/C21H30O4/c1-19-8-5-14(23)11-13(19)3-4-15-16(19)6-9-20(2)17(15)7-10-21(20,25)18(24)12-22/h11,15-17,22,25H,3-10,12H2,1-2H3/t15-,16+,17+,19+,20+,21+/m1/s1",
        "InChIKey": null,
        "Canonical SMILES": "O=C1C=C2CCC3C(CCC4(C)C3CCC4(O)C(=O)CO)C2(C)CC1",
        "Molecular Formula": "C<sub>21</sub>H<sub>30</sub>O<sub>4</sub>",
        "Molecular Mass": "346.46",
        "Melting Point": "215 °C"
    }
}