{
    "cas_no": "13590-42-6",
    "key_name": "Phenylmethyl (4<em>S</em>)-2,5-dioxo-4-oxazolidineacetate",
    "cn_name": null,
    "alternate_name": "4-Oxazolidineacetic acid, 2,5-dioxo-, phenylmethyl ester, (4<em>S</em>)-;4-Oxazolidineacetic acid, 2,5-dioxo-, benzyl ester, <span class=\"text-smallcaps\">L</span>-;4-Oxazolidineacetic acid, 2,5-dioxo-, phenylmethyl ester, (<em>S</em>)-;Phenylmethyl (4<em>S</em>)-2,5-dioxo-4-oxazolidineacetate;β-Benzyl <span class=\"text-smallcaps\">L</span>-aspartate <em>N</em>-carboxyanhydride;β-Benzyl <span class=\"text-smallcaps\">L</span>-aspartic acid <em>N</em>-carboxyanhydride;<span class=\"text-smallcaps\">L</span>-Aspartic acid β-benzyl ester <em>N</em>-carboxylic acid anhydride;β-Benzyl <span class=\"text-smallcaps\">L</span>-aspartate-<em>N</em>-carboxylic acid anhydride;L-Asp-NCA",
    "duplicated_cas_no": "928757-88-4;1188299-38-8;1311126-82-5;1590345-89-3",
    "SMILES": "C(C(OCC1=CC=CC=C1)=O)C2C(=O)OC(=O)N2",
    "meta_data": {
        "InChI": "InChI=1S/C12H11NO5/c14-10(6-9-11(15)18-12(16)13-9)17-7-8-4-2-1-3-5-8/h1-5,9H,6-7H2,(H,13,16)",
        "InChIKey": null,
        "Canonical SMILES": "O=C1OC(=O)C(N1)CC(=O)OCC=2C=CC=CC2",
        "Molecular Formula": "C<sub>12</sub>H<sub>11</sub>NO<sub>5</sub>",
        "Molecular Mass": "249.22",
        "Melting Point": "120-122 °C"
    }
}