{
    "cas_no": "51012-65-8",
    "key_name": "2-Bromo-1-(2-methylphenyl)ethanone",
    "cn_name": null,
    "alternate_name": "Ethanone, 2-bromo-1-(2-methylphenyl)-;2-Bromo-1-(2-methylphenyl)ethanone;2-Bromo-2′-methylacetophenone;2-Methylphenacyl bromide;2-Bromo-1-<em>o</em>-tolylethanone;α-Bromo-2-methylacetophenone;2-Bromo-1-(2-methylphenyl)ethan-1-one",
    "duplicated_cas_no": "",
    "SMILES": "C(CBr)(=O)C1=C(C)C=CC=C1",
    "meta_data": {
        "InChI": "InChI=1S/C9H9BrO/c1-7-4-2-3-5-8(7)9(11)6-10/h2-5H,6H2,1H3",
        "InChIKey": null,
        "Canonical SMILES": "O=C(C=1C=CC=CC1C)CBr",
        "Molecular Formula": "C<sub>9</sub>H<sub>9</sub>BrO",
        "Molecular Mass": "213.07",
        "Boiling Point": "138-140 °C @ Press: 16 Torr"
    }
}