{
    "cas_no": "3564-73-6",
    "key_name": "10,11-Dihydrocarbamazepine",
    "cn_name": "10,11-二氢酰胺咪嗪;双氢卡马西平;",
    "alternate_name": "5<em>H</em>-Dibenz[<em>b</em>,<em>f</em>]azepine-5-carboxamide, 10,11-dihydro-;10,11-Dihydro-5<em>H</em>-dibenz[<em>b</em>,<em>f</em>]azepine-5-carboxamide;10,11-Dihydrocarbamazepine;GP 26-301",
    "duplicated_cas_no": "",
    "SMILES": "C(N)(=O)N1C=2C(=CC=CC2)CCC=3C1=CC=CC3",
    "meta_data": {
        "InChI": "InChI=1S/C15H14N2O/c16-15(18)17-13-7-3-1-5-11(13)9-10-12-6-2-4-8-14(12)17/h1-8H,9-10H2,(H2,16,18)",
        "InChIKey": null,
        "Canonical SMILES": "O=C(N)N1C=2C=CC=CC2CCC=3C=CC=CC31",
        "Molecular Formula": "C<sub>15</sub>H<sub>14</sub>N<sub>2</sub>O",
        "Molecular Mass": "238.28",
        "Melting Point": "210 °C"
    }
}