{
    "cas_no": "6834-92-0",
    "key_name": "Sodium metasilicate (Na<sub>2</sub>SiO<sub>3</sub>)",
    "cn_name": null,
    "alternate_name": "Silicic acid (H<sub>2</sub>SiO<sub>3</sub>), sodium salt (1:2);Silicic acid (H<sub>2</sub>SiO<sub>3</sub>), disodium salt;Orthosil;Sodium metasilicate;Sodium silicate (Na<sub>2</sub>SiO<sub>3</sub>);Sodium metasilicate (Na<sub>2</sub>SiO<sub>3</sub>);Simet A;Disodium metasilicate;Crystamet;Silicon sodium oxide (SiNa<sub>2</sub>O<sub>3</sub>);Disodium monosilicate;Metso Pentabead 20;Disodium silicate;Simet AP;Simet 5G;Sodium silicon oxide (Na<sub>2</sub>SiO<sub>3</sub>);Simet GA 5;P 84 (silicate);P 84;Metso 510;SP 20;SMS;SP 20 (silicate);Starso;Metso 2048;Simet AG;Blue Meta;Metso-Beads 2048;Sodium silicate (Na<sub>2</sub>(SiO<sub>3</sub>));Drymet 59;Purifeed 6N;Sodium Metasilicate Anhydrous Granular D;Sodium silicate (Na<sub>6</sub>(SiO<sub>3</sub>)<sub>3</sub>);R-SIL;Stixso NN;Mead Beads 2048;Metso 20;S 108358;Sodium silicate (Na<sub>3</sub>(SiO<sub>3</sub>));Sodium silicate (Na<sub>4</sub>(SiO<sub>3</sub>)<sub>2</sub>)",
    "duplicated_cas_no": "8014-92-4;57447-81-1;1033016-09-9;1173151-60-4;1374246-85-1;1678537-99-9;1884160-94-4;1919815-82-9;2764688-18-6;2932501-00-1;2943989-32-8;3037393-70-4",
    "SMILES": "[Si](O)(O)=O.[Na]",
    "meta_data": {
        "InChI": "InChI=1S/2Na.H2O3Si/c;;1-4(2)3/h;;1-2H",
        "InChIKey": null,
        "Canonical SMILES": "[Na].O=[Si](O)O",
        "Molecular Formula": "H<sub>2</sub>O<sub>3</sub>Si.2Na",
        "Molecular Mass": "",
        "Melting Point": "1089 °C",
        "Density": "2.614 g/cm³"
    }
}