{
    "cas_no": "931-54-4",
    "key_name": "Isocyanobenzene",
    "cn_name": "1-异苯甲腈;",
    "alternate_name": "Benzene, isocyano-;Phenyl isocyanide;Isocyanobenzene;Phenyl isonitrile;Benzoisonitrile",
    "duplicated_cas_no": "128202-85-7",
    "SMILES": "[N+](#[C-])C1=CC=CC=C1",
    "meta_data": {
        "InChI": "InChI=1S/C7H5N/c1-8-7-5-3-2-4-6-7/h2-6H",
        "InChIKey": null,
        "Canonical SMILES": "[C-]#[N+]C=1C=CC=CC1",
        "Molecular Formula": "C<sub>7</sub>H<sub>5</sub>N",
        "Molecular Mass": "",
        "Boiling Point": "50.5 °C"
    }
}