{
    "cas_no": "141-72-0",
    "key_name": "1,1′-[(1-Methylethylidene)bis(oxy)]bis[butane]",
    "cn_name": "3,4,5-三氟溴苄;",
    "alternate_name": "Butane, 1,1′-[(1-methylethylidene)bis(oxy)]bis-;Acetone, dibutyl acetal;Propane, 2,2-dibutoxy-;1,1′-[(1-Methylethylidene)bis(oxy)]bis[butane];2,2-Dibutoxypropane;Acetone dibutyl ketal;2,2-Di-<em>n</em>-butoxypropane;NSC 58115",
    "duplicated_cas_no": "",
    "SMILES": "O(C(OCCCC)(C)C)CCCC",
    "meta_data": {
        "InChI": "InChI=1S/C11H24O2/c1-5-7-9-12-11(3,4)13-10-8-6-2/h5-10H2,1-4H3",
        "InChIKey": null,
        "Canonical SMILES": "O(CCCC)C(OCCCC)(C)C",
        "Molecular Formula": "C<sub>11</sub>H<sub>24</sub>O<sub>2</sub>",
        "Molecular Mass": "188.31",
        "Boiling Point": "70 °C @ Press: 24 Torr",
        "Density": "0.8363 g/cm³ @ Temp: 20 °C"
    }
}