{
    "cas_no": "78-89-7",
    "key_name": "Propylene chlorohydrin",
    "cn_name": "2-氯-1-丙醇;2-氯-1-羟基丙烷;",
    "alternate_name": "1-Propanol, 2-chloro-;2-Chloro-1-propanol;2-Chloropropyl alcohol;Propylene chlorohydrin;2-Chloropropanol;1-Hydroxy-2-chloropropane;β-Propylene chlorohydrin;NSC 122672",
    "duplicated_cas_no": "60828-60-6;1253945-51-5",
    "SMILES": "C(CO)(C)Cl",
    "meta_data": {
        "InChI": "InChI=1S/C3H7ClO/c1-3(4)2-5/h3,5H,2H2,1H3",
        "InChIKey": null,
        "Canonical SMILES": "ClC(C)CO",
        "Molecular Formula": "C<sub>3</sub>H<sub>7</sub>ClO",
        "Molecular Mass": "94.54",
        "Boiling Point": "133-134 °C",
        "Melting Point": "&lt;25 °C",
        "Density": "1.103 g/cm³ @ Temp: 20 °C"
    }
}