{
    "cas_no": "16088-19-0",
    "key_name": "3-(Dimethylamino)phenyl <em>N</em>,<em>N</em>-dimethylcarbamate",
    "cn_name": "N,N-二甲基氨基甲酸3-(二甲基氨基)苯酯;N,N-二甲基氨基甲酸3-(二甲基氨基)苯酯;N,N-二甲基氨基甲酸间(二甲;",
    "alternate_name": "Carbamic acid, <em>N</em>,<em>N</em>-dimethyl-, 3-(dimethylamino)phenyl ester;Carbamic acid, dimethyl-, <em>m</em>-(dimethylamino)phenyl ester;Carbamic acid, dimethyl-, 3-(dimethylamino)phenyl ester;3-(Dimethylamino)phenyl <em>N</em>,<em>N</em>-dimethylcarbamate;3-(Dimethylamino)phenyl dimethylcarbamate;Norneostigmine",
    "duplicated_cas_no": "23136-21-2",
    "SMILES": "O(C(N(C)C)=O)C1=CC(N(C)C)=CC=C1",
    "meta_data": {
        "InChI": "InChI=1S/C11H16N2O2/c1-12(2)9-6-5-7-10(8-9)15-11(14)13(3)4/h5-8H,1-4H3",
        "InChIKey": null,
        "Canonical SMILES": "O=C(OC1=CC=CC(=C1)N(C)C)N(C)C",
        "Molecular Formula": "C<sub>11</sub>H<sub>16</sub>N<sub>2</sub>O<sub>2</sub>",
        "Molecular Mass": "208.26",
        "Boiling Point": "195 °C @ Press: 20 Torr"
    }
}