{
    "cas_no": "21462-39-5",
    "key_name": "Clindamycin hydrochloride",
    "cn_name": "盐酸克林霉素;",
    "alternate_name": "<span class=\"text-smallcaps\">L</smallcap>-<em>threo</em>-α-<smallcap>D</span>-<em>galacto</em>-Octopyranoside, methyl 7-chloro-6,7,8-trideoxy-6-[[[(2<em>S</em>,4<em>R</em>)-1-methyl-4-propyl-2-pyrrolidinyl]carbonyl]amino]-1-thio-, hydrochloride (1:1);<span class=\"text-smallcaps\">L</smallcap>-<em>threo</em>-α-<smallcap>D</span>-<em>galacto</em>-Octopyranoside, methyl 7-chloro-6,7,8-trideoxy-6-[[(1-methyl-4-propyl-2-pyrrolidinyl)carbonyl]amino]-1-thio-, monohydrochloride, (2<em>S</em>-<em>trans</em>)-;<span class=\"text-smallcaps\">L</smallcap>-<em>threo</em>-α-<smallcap>D</smallcap>-<em>galacto</em>-Octopyranoside, methyl 7-chloro-6,7,8-trideoxy-6-(1-methyl-4-propyl-<smallcap>L</span>-2-pyrrolidinecarboxamido)-1-thio-, monohydrochloride, <em>trans</em>- α-;<span class=\"text-smallcaps\">L</smallcap>-<em>threo</em>-α-<smallcap>D</span>-<em>galacto</em>-Octopyranoside, methyl 7-chloro-6,7,8-trideoxy-6-[[[(2<em>S</em>,4<em>R</em>)-1-methyl-4-propyl-2-pyrrolidinyl]carbonyl]amino]-1-thio-, monohydrochloride;Clindamycin hydrochloride;Clindomycin hydrochloride;7(<em>S</em>)-Chloro-7-deoxylincomycin hydrochloride;Clindimycin hydrochloride;7-Chloro-7-deoxylincomycin hydrochloride;Cleocin hydrochloride;Dalacina;Antirobe vet.;Clindavet;Clinacin",
    "duplicated_cas_no": "26884-28-6;32795-16-7",
    "SMILES": "[C@@H](NC(=O)[C@@H]1C[C@@H](CCC)CN1C)([C@H](C)Cl)[C@]2(O[C@H](SC)[C@H](O)[C@@H](O)[C@H]2O)[H].Cl",
    "meta_data": {
        "InChI": "InChI=1S/C18H33ClN2O5S.ClH/c1-5-6-10-7-11(21(3)8-10)17(25)20-12(9(2)19)16-14(23)13(22)15(24)18(26-16)27-4;/h9-16,18,22-24H,5-8H2,1-4H3,(H,20,25);1H/t9-,10+,11-,12+,13-,14+,15+,16+,18+;/m0./s1",
        "InChIKey": null,
        "Canonical SMILES": "Cl.O=C(NC(C(Cl)C)C1OC(SC)C(O)C(O)C1O)C2N(C)CC(CCC)C2",
        "Molecular Formula": "C<sub>18</sub>H<sub>33</sub>ClN<sub>2</sub>O<sub>5</sub>S.ClH",
        "Molecular Mass": "",
        "Melting Point": "144 °C"
    }
}