{
    "cas_no": "6108-17-4",
    "key_name": "Lithium acetate dihydrate",
    "cn_name": "乙酸锂;醋酸锂;二水醋酸锂;",
    "alternate_name": "Acetic acid, lithium salt, dihydrate;Lithium acetate dihydrate",
    "duplicated_cas_no": "2367044-27-5",
    "SMILES": "C(C)(O)=O.[Li].O",
    "meta_data": {
        "InChI": "InChI=1S/C2H4O2.Li.2H2O/c1-2(3)4;;;/h1H3,(H,3,4);;2*1H2",
        "InChIKey": null,
        "Canonical SMILES": "[Li].O=C(O)C.O",
        "Molecular Formula": "C<sub>2</sub>H<sub>4</sub>O<sub>2</sub>.2H<sub>2</sub>O.Li",
        "Molecular Mass": "",
        "Melting Point": "28.3 °C",
        "Density": "1.102 g/cm³ @ Temp: 25.000 °C"
    }
}