{
    "cas_no": "499-75-2",
    "key_name": "Carvacrol",
    "cn_name": "香芹酚;5-异丙基-2-甲基苯酚;",
    "alternate_name": "Phenol, 2-methyl-5-(1-methylethyl)-;Carvacrol;2-Methyl-5-(1-methylethyl)phenol;Antioxine;<em>p</em>-Cymen-2-ol;2-Hydroxy-<em>p</em>-cymene;2-Methyl-5-isopropylphenol;5-Isopropyl-2-methylphenol;5-Isopropyl-<em>o</em>-cresol;6-Methyl-3-isopropylphenol;2-Hydroxy-1-methyl-4-(1-methylethyl)benzene;3-Isopropyl-6-methylphenol;Isopropyl <em>o</em>-cresol;Isothymol;NSC 6188;Dentol;2-Methyl-5-(propan-2-yl)phenol",
    "duplicated_cas_no": "",
    "SMILES": "C(C)(C)C1=CC(O)=C(C)C=C1",
    "meta_data": {
        "InChI": "InChI=1S/C10H14O/c1-7(2)9-5-4-8(3)10(11)6-9/h4-7,11H,1-3H3",
        "InChIKey": null,
        "Canonical SMILES": "OC1=CC(=CC=C1C)C(C)C",
        "Molecular Formula": "C<sub>10</sub>H<sub>14</sub>O",
        "Molecular Mass": "150.22",
        "Boiling Point": "237-238 °C @ Press: 760 Torr",
        "Melting Point": "1 °C",
        "Density": "0.976 g/cm³ @ Temp: 20 °C"
    }
}