{
    "cas_no": "681-84-5",
    "key_name": "Tetramethoxysilane",
    "cn_name": null,
    "alternate_name": "Silicic acid (H<sub>4</sub>SiO<sub>4</sub>), tetramethyl ester;Methyl silicate ((MeO)<sub>4</sub>Si);Tetramethoxysilane;Silane, tetramethoxy-;Tetramethyl silicate;Tetramethyl orthosilicate;Methyl orthosilicate;Methyl silicate ((CH<sub>3</sub>)<sub>4</sub>SiO<sub>4</sub>);Methyl silicate;Silicon tetramethoxide;Silicon methoxide (Si(OMe)<sub>4</sub>);TMOS;KBM 04;Methyl Silicate 39;Methyl Silicate 28;T 1980;LS 540;SIT 7510.0;TSL 8114;Siluplex;Dynasil M;NSC 67383;OCD-T 2;MZ 51;MKC Silicate MS 39;Methyl Silicate 40;Methyl Silicate 51L;WD 931;TO 588;NIC-C 5;Tetramethoxy orthosilicate;Dynasylan M;CG 501",
    "duplicated_cas_no": "12547-31-8",
    "SMILES": "[Si](OC)(OC)(OC)OC",
    "meta_data": {
        "InChI": "InChI=1S/C4H12O4Si/c1-5-9(6-2,7-3)8-4/h1-4H3",
        "InChIKey": null,
        "Canonical SMILES": "O(C)[Si](OC)(OC)OC",
        "Molecular Formula": "C<sub>4</sub>H<sub>12</sub>O<sub>4</sub>Si",
        "Molecular Mass": "152.22",
        "Boiling Point": "121-122 °C @ Press: 760 Torr",
        "Melting Point": "-2 °C",
        "Density": "1.032 g/cm³ @ Temp: 20 °C"
    }
}