{
    "cas_no": "1205-17-0",
    "key_name": "Helional",
    "cn_name": "胡椒基丙醛;新洋茉莉醛;2-甲基-3-(3,4-亚甲基二氧苯基)丙醛;",
    "alternate_name": "1,3-Benzodioxole-5-propanal, α-methyl-;Hydrocinnamaldehyde, α-methyl-3,4-(methylenedioxy)-;α-Methyl-1,3-benzodioxole-5-propanal;Helional;3-(3,4-Methylenedioxyphenyl)-2-methylpropanal;2-Methyl-3-(3,4-methylenedioxyphenyl)propionaldehyde;Tropional;NSC 22282;2-Methyl-3-(3,4-methylenedioxyphenyl)propanal;Helipropanal;α-Methyl-3,4-(methylenedioxy)hydrocinnamaldehyde;Heliogan;Heliobouquet;Heliofresh;3-(Benzo[<em>d</em>][1,3]dioxol-5-yl)-2-methylpropanal;3-(1,3-Benzodioxol-5-yl)-2-methylpropanal;Floramelon",
    "duplicated_cas_no": "",
    "SMILES": "C(C(C=O)C)C=1C=C2C(=CC1)OCO2",
    "meta_data": {
        "InChI": "InChI=1S/C11H12O3/c1-8(6-12)4-9-2-3-10-11(5-9)14-7-13-10/h2-3,5-6,8H,4,7H2,1H3",
        "InChIKey": null,
        "Canonical SMILES": "O=CC(C)CC1=CC=C2OCOC2=C1",
        "Molecular Formula": "C<sub>11</sub>H<sub>12</sub>O<sub>3</sub>",
        "Molecular Mass": "192.21",
        "Boiling Point": "128 °C @ Press: 3 Torr",
        "Density": "1.1637 g/cm³ @ Temp: 20 °C"
    }
}