{
    "cas_no": "18559-94-9",
    "key_name": "Salbutamol",
    "cn_name": "沙丁胺醇;1-(4-羟基-3-羟甲基苯基-2-(叔丁氨基)乙醇;",
    "alternate_name": "1,3-Benzenedimethanol, α<sup>1</sup>-[[(1,1-dimethylethyl)amino]methyl]-4-hydroxy-;<em>m</em>-Xylene-α,α′-diol, α<sup>1</sup>-[(<em>tert</em>-butylamino)methyl]-4-hydroxy-;α<sup>1</sup>-[[(1,1-Dimethylethyl)amino]methyl]-4-hydroxy-1,3-benzenedimethanol;α<sup>1</sup>-<em>tert</em>-Butylaminomethyl-4-hydroxy-<em>m</em>-xylene-α<sup>1</sup>,α<sup>3</sup>-diol;Salbutamol;AH 3365;1-(<em>tert</em>-Butylaminomethyl)-4-hydroxy-<em>m</em>-xylene-α<sup>1</sup>,α<sup>3</sup>-diol;2-(<em>tert</em>-Butylamino)-1-[(4-hydroxy-3-hydroxymethyl)phenyl]ethanol;Albuterol;Sultanol;Ventolin;<em>m</em>-Xylene α,α′-diol, α-[(<em>tert</em>-butylamino)methyl]-4-hydroxy-;Saventol;Volmax;(±)-Salbutamol;<span class=\"text-smallcaps\">DL</span>-<em>N</em>-<em>tert</em>-Butyl-2(4-hydroxy-3-hydroxymethylphenyl)2-hydroxyethylamine;<em>dl</em>-Salbutamol;<em>dl</em>-Albuterol;(±)-Albuterol;Proventil HFA;Sultanol N;Ventoline;Eolene;Spreor;Airomir;Ventalin Inhaler;Proventil Inhaler;Etinoline;Sabumol;4-Hydroxy-3-(hydroxymethyl)-α-[[(1,1-dimethylethyl)amino]methyl]benzenemethanol;Salamol EB;Salbiar;ProAir HFA;Ventolin HFA",
    "duplicated_cas_no": "35763-26-9",
    "SMILES": "C(CNC(C)(C)C)(O)C1=CC(CO)=C(O)C=C1",
    "meta_data": {
        "InChI": "InChI=1S/C13H21NO3/c1-13(2,3)14-7-12(17)9-4-5-11(16)10(6-9)8-15/h4-6,12,14-17H,7-8H2,1-3H3",
        "InChIKey": null,
        "Canonical SMILES": "OC1=CC=C(C=C1CO)C(O)CNC(C)(C)C",
        "Molecular Formula": "C<sub>13</sub>H<sub>21</sub>NO<sub>3</sub>",
        "Molecular Mass": "239.31",
        "Melting Point": "151 °C",
        "Density": "1.0035 g/cm³"
    }
}