{
    "cas_no": "2358-84-1",
    "key_name": "Diethylene glycol, dimethacrylate",
    "cn_name": "二乙二醇二甲基丙烯酸酯;2-甲基-2-丙烯酸二甘醇酯;",
    "alternate_name": "2-Propenoic acid, 2-methyl-, 1,1′-(oxydi-2,1-ethanediyl) ester;Methacrylic acid, oxydiethylene ester;2-Propenoic acid, 2-methyl-, oxydi-2,1-ethanediyl ester;Methacrylic acid, diester with diethylene glycol;Diethylene glycol, dimethacrylate;Diethylene glycol bis(methacrylate);Oxydiethylene methacrylate;DGM 2;TGM 2;NK Ester 2G;Blemmer PDE 100;2,2′-Oxybisethanol dimethacrylate;2,2′-Oxydiethyl dimethacrylate;SR 231;2G;Light Ester 2EG;PDE 100;SR 231E;Sartomer SR 231;EM 329;Bisomer DEGDMA HI;2-[2-(2-Methylprop-2-enoyloxy)ethoxy]ethyl 2-methylprop-2-enoate;Diethylene glycol dimethacylate",
    "duplicated_cas_no": "67957-99-7;76611-52-4;77302-64-8;129011-76-3;171428-77-6;1081804-95-6;1565841-57-7",
    "SMILES": "O(C(C(C)=C)=O)CCOCCOC(C(C)=C)=O",
    "meta_data": {
        "InChI": "InChI=1S/C12H18O5/c1-9(2)11(13)16-7-5-15-6-8-17-12(14)10(3)4/h1,3,5-8H2,2,4H3",
        "InChIKey": null,
        "Canonical SMILES": "O=C(OCCOCCOC(=O)C(=C)C)C(=C)C",
        "Molecular Formula": "C<sub>12</sub>H<sub>18</sub>O<sub>5</sub>",
        "Molecular Mass": "242.27",
        "Boiling Point": "120-125 °C @ Press: 2.0 Torr",
        "Melting Point": "&lt;25 °C",
        "Density": "1.056 g/cm³ @ Temp: 20 °C"
    }
}