{
    "cas_no": "3375-38-0",
    "key_name": "1,6-Diphenyl-1,6-hexanedione",
    "cn_name": "1,4-二苯甲酰丁烷;",
    "alternate_name": "1,6-Hexanedione, 1,6-diphenyl-;1,6-Diphenyl-1,6-hexanedione;Butane, 1,4-dibenzoyl-;1,4-Dibenzoylbutane;NSC 105666;NSC 1159;NSC 22675",
    "duplicated_cas_no": "",
    "SMILES": "C(CCCCC(=O)C1=CC=CC=C1)(=O)C2=CC=CC=C2",
    "meta_data": {
        "InChI": "InChI=1S/C18H18O2/c19-17(15-9-3-1-4-10-15)13-7-8-14-18(20)16-11-5-2-6-12-16/h1-6,9-12H,7-8,13-14H2",
        "InChIKey": null,
        "Canonical SMILES": "O=C(C=1C=CC=CC1)CCCCC(=O)C=2C=CC=CC2",
        "Molecular Formula": "C<sub>18</sub>H<sub>18</sub>O<sub>2</sub>",
        "Molecular Mass": "266.33",
        "Melting Point": "107 °C"
    }
}