{
    "cas_no": "14371-10-9",
    "key_name": "<em>trans</em>-Cinnamaldehyde",
    "cn_name": null,
    "alternate_name": "2-Propenal, 3-phenyl-, (2<em>E</em>)-;Cinnamaldehyde, (<em>E</em>)-;2-Propenal, 3-phenyl-, (<em>E</em>)-;(2<em>E</em>)-3-Phenyl-2-propenal;<em>trans</em>-Cinnamaldehyde;(<em>E</em>)-Cinnamaldehyde;<em>trans</em>-Cinnamic aldehyde;<em>trans</em>-3-Phenyl-2-propenal;<em>trans</em>-Cinnamylaldehyde;(<em>E</em>)-3-Phenylprop-2-enal;(<em>E</em>)-3-Phenylpropenal;<em>E</em>-Cinnamyl aldehyde;<em>trans</em>-3-Phenylpropenal;<em>trans</em>-Benzenepropenal;(<em>E</em>)-3-Phenylacrolein;(<em>E</em>)-3-Phenylprop-2-enone;(<em>E</em>)-3-Phenylprop-2-en-1-al;(E)-3-Phenylpropenal",
    "duplicated_cas_no": "",
    "SMILES": "C(=C/C=O)\\C1=CC=CC=C1",
    "meta_data": {
        "InChI": "InChI=1S/C9H8O/c10-8-4-7-9-5-2-1-3-6-9/h1-8H/b7-4+",
        "InChIKey": null,
        "Canonical SMILES": "O=CC=CC=1C=CC=CC1",
        "Molecular Formula": "C<sub>9</sub>H<sub>8</sub>O",
        "Molecular Mass": "132.16",
        "Boiling Point": "120-121 °C @ Press: 12 Torr",
        "Melting Point": "-7.5 °C",
        "Density": "1.0436 g/cm³ @ Temp: 20 °C"
    }
}