{
    "cas_no": "66-56-8",
    "key_name": "2,3-Dinitrophenol",
    "cn_name": null,
    "alternate_name": "Phenol, 2,3-dinitro-;2,3-Dinitrophenol;2,3-DNP;NSC 156083",
    "duplicated_cas_no": "",
    "SMILES": "N(=O)(=O)C1=C(N(=O)=O)C=CC=C1O",
    "meta_data": {
        "InChI": "InChI=1S/C6H4N2O5/c9-5-3-1-2-4(7(10)11)6(5)8(12)13/h1-3,9H",
        "InChIKey": null,
        "Canonical SMILES": "O=N(=O)C=1C=CC=C(O)C1N(=O)=O",
        "Molecular Formula": "C<sub>6</sub>H<sub>4</sub>N<sub>2</sub>O<sub>5</sub>",
        "Molecular Mass": "184.11",
        "Melting Point": "144.5 °C"
    }
}