{
    "cas_no": "67852-79-3",
    "key_name": "Benzoic acid, 2,3,4,5-tetrafluoro-, sodium salt (1:1)",
    "cn_name": null,
    "alternate_name": "Benzoic acid, 2,3,4,5-tetrafluoro-, sodium salt (1:1);Benzoic acid, 2,3,4,5-tetrafluoro-, sodium salt;Sodium 2,3,4,5-tetrafluorobenzoate",
    "duplicated_cas_no": "",
    "SMILES": "C(O)(=O)C1=C(F)C(F)=C(F)C(F)=C1.[Na]",
    "meta_data": {
        "InChI": "InChI=1S/C7H2F4O2.Na/c8-3-1-2(7(12)13)4(9)6(11)5(3)10;/h1H,(H,12,13);",
        "InChIKey": null,
        "Canonical SMILES": "[Na].O=C(O)C1=CC(F)=C(F)C(F)=C1F",
        "Molecular Formula": "C<sub>7</sub>H<sub>2</sub>F<sub>4</sub>O<sub>2</sub>.Na",
        "Molecular Mass": "",
        "Melting Point": "&gt;280 °C"
    }
}