{
    "cas_no": "4507-13-5",
    "key_name": "Ethyl 2-amino-5-ethylthiophene-3-carboxylate",
    "cn_name": "净司他丁;净司他丁;",
    "alternate_name": "3-Thiophenecarboxylic acid, 2-amino-5-ethyl-, ethyl ester;Ethyl 2-amino-5-ethyl-3-thiophenecarboxylate;NSC 159633;Ethyl 2-amino-5-ethylthiophene-3-carboxylate;2-Amino-5-ethylthiophene-3-carboxylic acid ethyl ester;5-Ethyl-3-methyl-thiophen-2-amine",
    "duplicated_cas_no": "",
    "SMILES": "C(OCC)(=O)C1=C(N)SC(CC)=C1",
    "meta_data": {
        "InChI": "InChI=1S/C9H13NO2S/c1-3-6-5-7(8(10)13-6)9(11)12-4-2/h5H,3-4,10H2,1-2H3",
        "InChIKey": null,
        "Canonical SMILES": "O=C(OCC)C=1C=C(SC1N)CC",
        "Molecular Formula": "C<sub>9</sub>H<sub>13</sub>NO<sub>2</sub>S",
        "Molecular Mass": "199.27",
        "Melting Point": "67-68 °C"
    }
}