{
    "cas_no": "773-82-0",
    "key_name": "Pentafluorobenzonitrile",
    "cn_name": "五氟苯腈;2,3,4,5,6-五氟苯腈;",
    "alternate_name": "Benzonitrile, 2,3,4,5,6-pentafluoro-;Benzonitrile, pentafluoro-;2,3,4,5,6-Pentafluorobenzonitrile;Pentafluorobenzonitrile;Perfluorobenzonitrile;Pentafluorocyanobenzene;Cyanopentafluorobenzene;Pentafluorophenyl cyanide;NSC 88294",
    "duplicated_cas_no": "",
    "SMILES": "C(#N)C1=C(F)C(F)=C(F)C(F)=C1F",
    "meta_data": {
        "InChI": "InChI=1S/C7F5N/c8-3-2(1-13)4(9)6(11)7(12)5(3)10",
        "InChIKey": null,
        "Canonical SMILES": "N#CC=1C(F)=C(F)C(F)=C(F)C1F",
        "Molecular Formula": "C<sub>7</sub>F<sub>5</sub>N",
        "Molecular Mass": "193.07",
        "Boiling Point": "162 °C",
        "Melting Point": "2.4 °C"
    }
}