{
    "cas_no": "6212-33-5",
    "key_name": "α-Amino-4-chlorobenzeneacetic acid",
    "cn_name": "DL-对氯苯甘氨酸;",
    "alternate_name": "Benzeneacetic acid, α-amino-4-chloro-;Glycine, 2-(<em>p</em>-chlorophenyl)-;α-Amino-4-chlorobenzeneacetic acid;2-(4-Chlorophenyl)glycine;<span class=\"text-smallcaps\">D</smallcap><smallcap>L</span>-2-(<em>p</em>-Chlorophenyl)glycine;<span class=\"text-smallcaps\">D</smallcap><smallcap>L</span>-(4-Chlorophenyl)glycine;2-Amino-2-(4-chlorophenyl)acetic acid;α-(<em>p</em>-Chlorophenyl)glycine",
    "duplicated_cas_no": "7292-70-8",
    "SMILES": "C(C(O)=O)(N)C1=CC=C(Cl)C=C1",
    "meta_data": {
        "InChI": "InChI=1S/C8H8ClNO2/c9-6-3-1-5(2-4-6)7(10)8(11)12/h1-4,7H,10H2,(H,11,12)",
        "InChIKey": null,
        "Canonical SMILES": "O=C(O)C(N)C1=CC=C(Cl)C=C1",
        "Molecular Formula": "C<sub>8</sub>H<sub>8</sub>ClNO<sub>2</sub>",
        "Molecular Mass": "185.61",
        "Melting Point": "141 °C"
    }
}