{
    "cas_no": "2682-49-7",
    "key_name": "2-Thiazolidinone",
    "cn_name": "1,3-噻唑烷-2-酮;1,3-噻唑烷-2-酮;",
    "alternate_name": "2-Thiazolidinone;2-Oxothiazolidine;1,3-Thiazolidin-2-one;NSC 122613",
    "duplicated_cas_no": "",
    "SMILES": "O=C1NCCS1",
    "meta_data": {
        "InChI": "InChI=1S/C3H5NOS/c5-3-4-1-2-6-3/h1-2H2,(H,4,5)",
        "InChIKey": null,
        "Canonical SMILES": "O=C1SCCN1",
        "Molecular Formula": "C<sub>3</sub>H<sub>5</sub>NOS",
        "Molecular Mass": "103.14",
        "Boiling Point": "160 °C @ Press: 20 Torr",
        "Melting Point": "54 °C"
    }
}