{
    "cas_no": "12069-89-5",
    "key_name": "Molybdenum carbide (Mo<sub>2</sub>C)",
    "cn_name": null,
    "alternate_name": "Molybdenum carbide (Mo<sub>2</sub>C);Dimolybdenum carbide;Dimolybdenum monocarbide;Molybdenum carbide (MoC<sub>0.5</sub>)",
    "duplicated_cas_no": "1012044-78-8;1150493-60-9;1422970-52-2",
    "SMILES": "",
    "meta_data": {
        "InChI": "",
        "InChIKey": null,
        "Canonical SMILES": "",
        "Molecular Formula": "CMo<sub>2</sub>",
        "Molecular Mass": "",
        "Melting Point": "2960 °C",
        "Density": "9.00 g/cm³"
    }
}