{
    "uri": "substance/pt/12069895",
    "rn": "12069-89-5",
    "name": "Molybdenum carbide (Mo<sub>2</sub>C)",
    "images": [],
    "inchi": "",
    "inchiKey": "",
    "smile": "",
    "canonicalSmile": "",
    "molecularFormula": "CMo<sub>2</sub>",
    "molecularMass": "",
    "experimentalProperties": [
        {
            "name": "Melting Point",
            "property": "2960 °C",
            "sourceNumber": 1
        },
        {
            "name": "Density",
            "property": "9.00 g/cm³",
            "sourceNumber": 2
        }
    ],
    "propertyCitations": [
        {
            "docUri": "document/pt/document/23106267",
            "sourceNumber": 1,
            "source": "Agte, C.; Zeitschrift fuer Technische Physik, (1930), 11, 182-91, CAplus"
        },
        {
            "docUri": "document/pt/document/48469873",
            "sourceNumber": 2,
            "source": "Ma, Songdi; Applied Surface Science, (2017), 402, 372-383, CAplus"
        }
    ],
    "synonyms": [
        "Molybdenum carbide (Mo<sub>2</sub>C)",
        "Dimolybdenum carbide",
        "Dimolybdenum monocarbide",
        "Molybdenum carbide (MoC<sub>0.5</sub>)"
    ],
    "replacedRns": [
        "1012044-78-8",
        "1150493-60-9",
        "1422970-52-2"
    ],
    "hasMolfile": false,
    "source": "https://commonchemistry.cas.org/detail?cas_rn=12069-89-5"
}