{
    "cas_no": "536-66-3",
    "key_name": "4-Isopropylbenzoic acid",
    "cn_name": "4-异丙基苯甲酸;对异丙基苯甲酸;",
    "alternate_name": "Benzoic acid, 4-(1-methylethyl)-;Benzoic acid, <em>p</em>-isopropyl-;4-(1-Methylethyl)benzoic acid;Cumic acid;Cuminic acid;4-Isopropylbenzoic acid;<em>p</em>-Isopropylbenzoic acid;NSC 1907;NSC 20083;4-(Propan-2-yl)benzoic acid;Cumate",
    "duplicated_cas_no": "",
    "SMILES": "C(C)(C)C1=CC=C(C(O)=O)C=C1",
    "meta_data": {
        "InChI": "InChI=1S/C10H12O2/c1-7(2)8-3-5-9(6-4-8)10(11)12/h3-7H,1-2H3,(H,11,12)",
        "InChIKey": null,
        "Canonical SMILES": "O=C(O)C1=CC=C(C=C1)C(C)C",
        "Molecular Formula": "C<sub>10</sub>H<sub>12</sub>O<sub>2</sub>",
        "Molecular Mass": "164.20",
        "Melting Point": "117.5 °C"
    }
}