{
    "cas_no": "131-89-5",
    "key_name": "Dinex",
    "cn_name": "消螨酚;消螨酚;二硝环已酚;",
    "alternate_name": "Phenol, 2-cyclohexyl-4,6-dinitro-;2-Cyclohexyl-4,6-dinitrophenol;DN 1;SN 46;Dinex;2,4-Dinitro-6-cyclohexylphenol;4,6-Dinitro-<em>o</em>-cyclohexylphenol;DNOCHP;Dry Mix No. 1;DN;DN (pesticide);NSC 403662;NSC 7739",
    "duplicated_cas_no": "",
    "SMILES": "OC1=C(C=C(N(=O)=O)C=C1N(=O)=O)C2CCCCC2",
    "meta_data": {
        "InChI": "InChI=1S/C12H14N2O5/c15-12-10(8-4-2-1-3-5-8)6-9(13(16)17)7-11(12)14(18)19/h6-8,15H,1-5H2",
        "InChIKey": null,
        "Canonical SMILES": "O=N(=O)C=1C=C(C(O)=C(C1)C2CCCCC2)N(=O)=O",
        "Molecular Formula": "C<sub>12</sub>H<sub>14</sub>N<sub>2</sub>O<sub>5</sub>",
        "Molecular Mass": "266.25",
        "Melting Point": "106.5-107.5 °C"
    }
}