{
    "cas_no": "18233-70-0",
    "key_name": "Monoacetyl-1,4-diaminobutane hydrochloride",
    "cn_name": null,
    "alternate_name": "Acetamide, <em>N</em>-(4-aminobutyl)-, hydrochloride (1:1);Acetamide, <em>N</em>-(4-aminobutyl)-, monohydrochloride;Acetamide, <em>N</em>-(4-aminobutyl)-, hydrochloride;Monoacetyl-1,4-diaminobutane hydrochloride;<em>N</em>-(4-Aminobutyl)acetamide hydrochloride",
    "duplicated_cas_no": "",
    "SMILES": "C(NC(C)=O)CCCN.Cl",
    "meta_data": {
        "InChI": "InChI=1S/C6H14N2O.ClH/c1-6(9)8-5-3-2-4-7;/h2-5,7H2,1H3,(H,8,9);1H",
        "InChIKey": null,
        "Canonical SMILES": "Cl.O=C(NCCCCN)C",
        "Molecular Formula": "C<sub>6</sub>H<sub>14</sub>N<sub>2</sub>O.ClH",
        "Molecular Mass": "",
        "Melting Point": "140-141 °C"
    }
}