{
    "cas_no": "3010-02-4",
    "key_name": "2-(Diethylamino)acetonitrile",
    "cn_name": "N,N-二乙氨基乙腈;",
    "alternate_name": "Acetonitrile, 2-(diethylamino)-;Acetonitrile, (diethylamino)-;Glycinonitrile, <em>N</em>,<em>N</em>-diethyl-;2-(Diethylamino)acetonitrile;<em>N</em>,<em>N</em>-Diethylaminoacetonitrile;Diethylaminoacetonitrile;NSC 15878",
    "duplicated_cas_no": "",
    "SMILES": "N(CC#N)(CC)CC",
    "meta_data": {
        "InChI": "InChI=1S/C6H12N2/c1-3-8(4-2)6-5-7/h3-4,6H2,1-2H3",
        "InChIKey": null,
        "Canonical SMILES": "N#CCN(CC)CC",
        "Molecular Formula": "C<sub>6</sub>H<sub>12</sub>N<sub>2</sub>",
        "Molecular Mass": "112.17",
        "Boiling Point": "170 °C"
    }
}