{
    "cas_no": "2345-51-9",
    "key_name": "3-Butynoic acid",
    "cn_name": null,
    "alternate_name": "3-Butynoic acid;2-Ethynylacetic acid",
    "duplicated_cas_no": "",
    "SMILES": "C(C(O)=O)C#C",
    "meta_data": {
        "InChI": "InChI=1S/C4H4O2/c1-2-3-4(5)6/h1H,3H2,(H,5,6)",
        "InChIKey": null,
        "Canonical SMILES": "O=C(O)CC#C",
        "Molecular Formula": "C<sub>4</sub>H<sub>4</sub>O<sub>2</sub>",
        "Molecular Mass": "84.07",
        "Melting Point": "83 °C",
        "Density": "1.32 g/cm³"
    }
}