{
    "cas_no": "59662-47-4",
    "key_name": "4′-Pentyl[1,1′-biphenyl]-4-carboxylic acid",
    "cn_name": "4-戊基联苯-4\"-羧酸;",
    "alternate_name": "[1,1′-Biphenyl]-4-carboxylic acid, 4′-pentyl-;4′-Pentyl[1,1′-biphenyl]-4-carboxylic acid;4′-Pentyl-4-biphenylcarboxylic acid;4′-<em>n</em>-Pentylbiphenyl-4-carboxylic acid;4-Pentyl-4′-biphenylcarboxylic acid;4′-Carboxy-4-pentylbiphenyl",
    "duplicated_cas_no": "",
    "SMILES": "C(CCCC)C1=CC=C(C=C1)C2=CC=C(C(O)=O)C=C2",
    "meta_data": {
        "InChI": "InChI=1S/C18H20O2/c1-2-3-4-5-14-6-8-15(9-7-14)16-10-12-17(13-11-16)18(19)20/h6-13H,2-5H2,1H3,(H,19,20)",
        "InChIKey": null,
        "Canonical SMILES": "O=C(O)C=1C=CC(=CC1)C2=CC=C(C=C2)CCCCC",
        "Molecular Formula": "C<sub>18</sub>H<sub>20</sub>O<sub>2</sub>",
        "Molecular Mass": "268.35",
        "Melting Point": "176 °C (polymorph)"
    }
}