{
    "cas_no": "25035-71-6",
    "key_name": "Formaldehyde-<em>p</em>-toluenesulfonamide copolymer",
    "cn_name": "对甲苯磺酰胺甲醛树脂;",
    "alternate_name": "Benzenesulfonamide, 4-methyl-, polymer with formaldehyde;<em>p</em>-Toluenesulfonamide, polymer with formaldehyde;Formaldehyde, polymer with 4-methylbenzenesulfonamide;<em>p</em>-Toluenesulfonamide-formaldehyde resin;Formaldehyde-<em>p</em>-toluenesulfonamide resin;Santolite MHP;Formaldehyde-<em>p</em>-toluenesulfonamide polymer;p-Toluenesulfonamide-formaldehyde copolymer;Formaldehyde-<em>p</em>-toluenesulfonamide copolymer;Formalin-<em>p</em>-toluenesulfonic acid amide copolymer;Santolite MS 80;Sulfonex EST 100;Santolite MS;Ketjenflex MH;Ultralac;Topler;Resimpol 80;Formaldehyde-tosylamide copolymer;Rit-O-Lite MHP",
    "duplicated_cas_no": "9009-95-4;9009-96-5;150522-85-3",
    "SMILES": "S(N)(=O)(=O)C1=CC=C(C)C=C1.C=O",
    "meta_data": {
        "InChI": "InChI=1S/C7H9NO2S.CH2O/c1-6-2-4-7(5-3-6)11(8,9)10;1-2/h2-5H,1H3,(H2,8,9,10);1H2",
        "InChIKey": null,
        "Canonical SMILES": "O=C.O=S(=O)(N)C1=CC=C(C=C1)C",
        "Molecular Formula": "(C<sub>7</sub>H<sub>9</sub>NO<sub>2</sub>S.CH<sub>2</sub>O)<sub>x</sub>",
        "Molecular Mass": "",
        "Melting Point": "82 °C"
    }
}