{
    "cas_no": "66280-25-9",
    "key_name": "Gomisin J",
    "cn_name": null,
    "alternate_name": "Dibenzo[<em>a</em>,<em>c</em>]cyclooctene-3,10-diol, 5,6,7,8-tetrahydro-1,2,11,12-tetramethoxy-6,7-dimethyl-, (6<em>R</em>,7<em>S</em>,12a<em>S</em>)-;Dibenzo[<em>a</em>,<em>c</em>]cyclooctene-3,10-diol, 5,6,7,8-tetrahydro-1,2,11,12-tetramethoxy-6,7-dimethyl-, stereoisomer;(6<em>R</em>,7<em>S</em>,12a<em>S</em>)-5,6,7,8-Tetrahydro-1,2,11,12-tetramethoxy-6,7-dimethyldibenzo[<em>a</em>,<em>c</em>]cyclooctene-3,10-diol;Gomisin J;(-)-Gomisin J",
    "duplicated_cas_no": "",
    "SMILES": "O(C)C1=C2C3=C(OC)C(OC)=C(O)C=C3CC(C)C(C)CC2=CC(O)=C1OC",
    "meta_data": {
        "InChI": "InChI=1S/C22H28O6/c1-11-7-13-9-15(23)19(25-3)21(27-5)17(13)18-14(8-12(11)2)10-16(24)20(26-4)22(18)28-6/h9-12,23-24H,7-8H2,1-6H3",
        "InChIKey": null,
        "Canonical SMILES": "OC1=CC2=C(C(OC)=C1OC)C3=C(OC)C(OC)=C(O)C=C3CC(C)C(C)C2",
        "Molecular Formula": "C<sub>22</sub>H<sub>28</sub>O<sub>6</sub>",
        "Molecular Mass": "388.45",
        "Melting Point": "148-149 °C"
    }
}