{
    "cas_no": "349-95-1",
    "key_name": "4-(Trifluoromethyl)benzenemethanol",
    "cn_name": "4-(三氟甲基)苄醇;对三氟甲基苯甲醇;",
    "alternate_name": "Benzenemethanol, 4-(trifluoromethyl)-;Benzyl alcohol, <em>p</em>-(trifluoromethyl)-;4-(Trifluoromethyl)benzenemethanol;<em>p</em>-(Trifluoromethyl)benzyl alcohol;4-(Trifluoromethyl)benzyl alcohol;(4-Trifluoromethylphenyl)methanol;<em>p</em>-(Trifluoromethyl)phenylmethanol",
    "duplicated_cas_no": "185532-80-3",
    "SMILES": "C(F)(F)(F)C1=CC=C(CO)C=C1",
    "meta_data": {
        "InChI": "InChI=1S/C8H7F3O/c9-8(10,11)7-3-1-6(5-12)2-4-7/h1-4,12H,5H2",
        "InChIKey": null,
        "Canonical SMILES": "FC(F)(F)C1=CC=C(C=C1)CO",
        "Molecular Formula": "C<sub>8</sub>H<sub>7</sub>F<sub>3</sub>O",
        "Molecular Mass": "176.14",
        "Boiling Point": "78.5-80 °C @ Press: 4 Torr"
    }
}