{
    "cas_no": "80510-09-4",
    "key_name": "<em>N</em>-<em>cis</em>-Feruloyl tyramine",
    "cn_name": null,
    "alternate_name": "2-Propenamide, 3-(4-hydroxy-3-methoxyphenyl)-<em>N</em>-[2-(4-hydroxyphenyl)ethyl]-, (2<em>Z</em>)-;2-Propenamide, 3-(4-hydroxy-3-methoxyphenyl)-<em>N</em>-[2-(4-hydroxyphenyl)ethyl]-, (<em>Z</em>)-;(2<em>Z</em>)-3-(4-Hydroxy-3-methoxyphenyl)-<em>N</em>-[2-(4-hydroxyphenyl)ethyl]-2-propenamide;<em>N</em>-<em>cis</em>-Feruloyl tyramine;<em>Z</em>-<em>N</em>-Feruloyltyramine;<em>cis</em>-<em>N</em>-Feruloyltyramine;<em>cis</em>-<em>N</em>-(4-Hydroxyphenethyl) ferulamide;<em>cis</em>-Feruloyl-<em>p</em>-hydroxybenzenethylamine",
    "duplicated_cas_no": "",
    "SMILES": "C(=C\\C(NCCC1=CC=C(O)C=C1)=O)\\C2=CC(OC)=C(O)C=C2",
    "meta_data": {
        "InChI": "InChI=1S/C18H19NO4/c1-23-17-12-14(4-8-16(17)21)5-9-18(22)19-11-10-13-2-6-15(20)7-3-13/h2-9,12,20-21H,10-11H2,1H3,(H,19,22)/b9-5-",
        "InChIKey": null,
        "Canonical SMILES": "O=C(C=CC1=CC=C(O)C(OC)=C1)NCCC2=CC=C(O)C=C2",
        "Molecular Formula": "C<sub>18</sub>H<sub>19</sub>NO<sub>4</sub>",
        "Molecular Mass": "313.35",
        "Melting Point": "128-132 °C"
    }
}