{
    "cas_no": "150-78-7",
    "key_name": "1,4-Dimethoxybenzene",
    "cn_name": "对苯二甲醚;对二甲氧基苯;对苯二酚二甲醚;",
    "alternate_name": "Benzene, 1,4-dimethoxy-;Benzene, <em>p</em>-dimethoxy-;1,4-Dimethoxybenzene;<em>p</em>-Dimethoxybenzene;DMB;Hydroquinone dimethyl ether;Quinol dimethyl ether;<em>p</em>-Methoxyanisole;4-Methoxyanisole;Methyl <em>p</em>-methoxyphenyl ether;1,4-Dimethoxybenzol;<em>p</em>-Hydroquinone dimethyl ether;Methyl 4-methoxyphenyl ether;NSC 7483",
    "duplicated_cas_no": "",
    "SMILES": "O(C)C1=CC=C(OC)C=C1",
    "meta_data": {
        "InChI": "InChI=1S/C8H10O2/c1-9-7-3-5-8(10-2)6-4-7/h3-6H,1-2H3",
        "InChIKey": null,
        "Canonical SMILES": "O(C1=CC=C(OC)C=C1)C",
        "Molecular Formula": "C<sub>8</sub>H<sub>10</sub>O<sub>2</sub>",
        "Molecular Mass": "138.16",
        "Boiling Point": "212.6 °C",
        "Melting Point": "58-60 °C",
        "Density": "1.0526 g/cm³ @ Temp: 55 °C"
    }
}