{
    "cas_no": "112410-23-8",
    "key_name": "Tebufenozide",
    "cn_name": "虫酰肼;N-特丁基-N\"-(4-乙基苯甲酰基)-3,5-二甲基苯酰肼;",
    "alternate_name": "Benzoic acid, 3,5-dimethyl-, 1-(1,1-dimethylethyl)-2-(4-ethylbenzoyl)hydrazide;RH 5992;Mimic;Tebufenozide;Confirm;Mimic 240LV;3,5-Dimethylbenzoic acid <em>N</em>-<em>tert</em>-butyl-<em>N</em>-(4-ethylbenzoyl)hydrazide;1-<em>tert</em>-Butyl-1-(3,5-dimethylbenzoyl)-2-(4-ethylbenzoyl)hydrazine;Mimic 700WP;Romdan",
    "duplicated_cas_no": "142583-69-5;468062-57-9",
    "SMILES": "N(C(=O)C1=CC(C)=CC(C)=C1)(NC(=O)C2=CC=C(CC)C=C2)C(C)(C)C",
    "meta_data": {
        "InChI": "InChI=1S/C22H28N2O2/c1-7-17-8-10-18(11-9-17)20(25)23-24(22(4,5)6)21(26)19-13-15(2)12-16(3)14-19/h8-14H,7H2,1-6H3,(H,23,25)",
        "InChIKey": null,
        "Canonical SMILES": "O=C(NN(C(=O)C=1C=C(C=C(C1)C)C)C(C)(C)C)C2=CC=C(C=C2)CC",
        "Molecular Formula": "C<sub>22</sub>H<sub>28</sub>N<sub>2</sub>O<sub>2</sub>",
        "Molecular Mass": "352.47",
        "Melting Point": "191 °C"
    }
}