{
    "cas_no": "1780-27-4",
    "key_name": "4,5,6-Trichloropyrimidine",
    "cn_name": "4,5,6-三氯嘧啶;",
    "alternate_name": "Pyrimidine, 4,5,6-trichloro-;4,5,6-Trichloropyrimidine",
    "duplicated_cas_no": "",
    "SMILES": "ClC=1C(Cl)=NC=NC1Cl",
    "meta_data": {
        "InChI": "InChI=1S/C4HCl3N2/c5-2-3(6)8-1-9-4(2)7/h1H",
        "InChIKey": null,
        "Canonical SMILES": "ClC1=NC=NC(Cl)=C1Cl",
        "Molecular Formula": "C<sub>4</sub>HCl<sub>3</sub>N<sub>2</sub>",
        "Molecular Mass": "183.42",
        "Boiling Point": "87 °C @ Press: 12 Torr",
        "Melting Point": "51-52 °C"
    }
}