{
    "cas_no": "107007-99-8",
    "key_name": "Granisetron hydrochloride",
    "cn_name": null,
    "alternate_name": "1<em>H</em>-Indazole-3-carboxamide, 1-methyl-<em>N</em>-[(3-<em>endo</em>)-9-methyl-9-azabicyclo[3.3.1]non-3-yl]-, hydrochloride (1:1);1<em>H</em>-Indazole-3-carboxamide, 1-methyl-<em>N</em>-(9-methyl-9-azabicyclo[3.3.1]non-3-yl)-, monohydrochloride, <em>endo</em>-;1<em>H</em>-Indazole-3-carboxamide, 1-methyl-<em>N</em>-[(3-<em>endo</em>)-9-methyl-9-azabicyclo[3.3.1]non-3-yl]-, monohydrochloride;9-Azabicyclo[3.3.1]nonane, 1<em>H</em>-indazole-3-carboxamide deriv.;BRL 43694A;Granisetron hydrochloride;Kytril",
    "duplicated_cas_no": "",
    "SMILES": "C(N[C@H]1C[C@@]2(N(C)[C@](C1)(CCC2)[H])[H])(=O)C=3C=4C(N(C)N3)=CC=CC4.Cl",
    "meta_data": {
        "InChI": "InChI=1/C18H24N4O.ClH/c1-21-13-6-5-7-14(21)11-12(10-13)19-18(23)17-15-8-3-4-9-16(15)22(2)20-17;/h3-4,8-9,12-14H,5-7,10-11H2,1-2H3,(H,19,23);1H/t12-,13+,14-;",
        "InChIKey": null,
        "Canonical SMILES": "Cl.O=C(NC1CC2N(C)C(CCC2)C1)C3=NN(C=4C=CC=CC34)C",
        "Molecular Formula": "C<sub>18</sub>H<sub>24</sub>N<sub>4</sub>O.ClH",
        "Molecular Mass": "",
        "Melting Point": "290-292 °C"
    }
}