{
    "cas_no": "531-81-7",
    "key_name": "Coumarin-3-carboxylic acid",
    "cn_name": "香豆素-3-羧酸;",
    "alternate_name": "2<em>H</em>-1-Benzopyran-3-carboxylic acid, 2-oxo-;1,2-Benzopyran-3-carboxylic acid, 2-keto-;2-Oxo-2<em>H</em>-1-benzopyran-3-carboxylic acid;Coumarin-3-carboxylic acid;G 1 (rodenticide);3-Carboxycoumarin;G 1;3-Carboxylcoumarin;NSC 14797;NSC 44926;NSC 53239;2<em>H</em>-1-Benzopyran-2-one-3-carboxylic acid;2-Oxo-2<em>H</em>-chromene-3-carboxylic acid;2-Oxochromene-3-carboxylic acid;2-Oxo-2H-1-benzopyran-3-carboxylic acid",
    "duplicated_cas_no": "",
    "SMILES": "C(O)(=O)C1=CC=2C(OC1=O)=CC=CC2",
    "meta_data": {
        "InChI": "InChI=1S/C10H6O4/c11-9(12)7-5-6-3-1-2-4-8(6)14-10(7)13/h1-5H,(H,11,12)",
        "InChIKey": null,
        "Canonical SMILES": "O=C(O)C1=CC=2C=CC=CC2OC1=O",
        "Molecular Formula": "C<sub>10</sub>H<sub>6</sub>O<sub>4</sub>",
        "Molecular Mass": "190.15",
        "Melting Point": "190 °C (decomp)"
    }
}