{
    "cas_no": "2150-42-7",
    "key_name": "Methyl 2,3-dimethoxybenzoate",
    "cn_name": "2,3-二甲氧基苯甲酸甲酯;",
    "alternate_name": "Benzoic acid, 2,3-dimethoxy-, methyl ester;<em>o</em>-Veratric acid, methyl ester;Methyl 2,3-dimethoxybenzoate;Methyl <em>o</em>-veratrate;NSC 146462;2,3-Dimethoxybenzoic acid methyl ester;2,3-Dimethoxy-benzoic acid methyl ester",
    "duplicated_cas_no": "",
    "SMILES": "C(OC)(=O)C1=C(OC)C(OC)=CC=C1",
    "meta_data": {
        "InChI": "InChI=1S/C10H12O4/c1-12-8-6-4-5-7(9(8)13-2)10(11)14-3/h4-6H,1-3H3",
        "InChIKey": null,
        "Canonical SMILES": "O=C(OC)C=1C=CC=C(OC)C1OC",
        "Molecular Formula": "C<sub>10</sub>H<sub>12</sub>O<sub>4</sub>",
        "Molecular Mass": "196.20",
        "Boiling Point": "180-185 °C @ Press: 50 Torr",
        "Melting Point": "47 °C"
    }
}