{
    "cas_no": "57378-68-4",
    "key_name": "δ-Damascone",
    "cn_name": "δ-突厥酮;δ-大马酮；4-(2，6，6-三甲基-3-环己烯-1-基)2-丁烯-1-酮;",
    "alternate_name": "2-Buten-1-one, 1-(2,6,6-trimethyl-3-cyclohexen-1-yl)-;1-(2,6,6-Trimethyl-3-cyclohexen-1-yl)-2-buten-1-one;δ-Damascone;1-(2,6,6-Trimethyl-3-cyclohexenyl)-2-buten-1-one",
    "duplicated_cas_no": "",
    "SMILES": "C(C=CC)(=O)C1C(C)(C)CC=CC1C",
    "meta_data": {
        "InChI": "InChI=1S/C13H20O/c1-5-7-11(14)12-10(2)8-6-9-13(12,3)4/h5-8,10,12H,9H2,1-4H3",
        "InChIKey": null,
        "Canonical SMILES": "O=C(C=CC)C1C(C=CCC1(C)C)C",
        "Molecular Formula": "C<sub>13</sub>H<sub>20</sub>O",
        "Molecular Mass": "192.30",
        "Boiling Point": "253 °C"
    }
}