{
    "cas_no": "38076-81-2",
    "key_name": "1,2-Dihydro-4-methyl-2-oxo-3-pyridinecarboxylic acid",
    "cn_name": "2-羟基-4-甲基烟酸;2-羟基-4-甲基吡啶-3-甲酸;",
    "alternate_name": "3-Pyridinecarboxylic acid, 1,2-dihydro-4-methyl-2-oxo-;1,2-Dihydro-4-methyl-2-oxo-3-pyridinecarboxylic acid;2-Hydroxy-4-methylnicotinic acid;2-Hydroxy-4-methyl-3-pyridinecarboxylic acid;4-Methyl-2-oxo-1,2-dihydro-3-pyridinecarboxylic acid;4-Methyl-1,2-dihydro-2-oxopyridine-3-carboxylic acid",
    "duplicated_cas_no": "",
    "SMILES": "C(O)(=O)C1=C(C)C=CNC1=O",
    "meta_data": {
        "InChI": "InChI=1S/C7H7NO3/c1-4-2-3-8-6(9)5(4)7(10)11/h2-3H,1H3,(H,8,9)(H,10,11)",
        "InChIKey": null,
        "Canonical SMILES": "O=C(O)C=1C(=O)NC=CC1C",
        "Molecular Formula": "C<sub>7</sub>H<sub>7</sub>NO<sub>3</sub>",
        "Molecular Mass": "153.14",
        "Melting Point": "247 °C"
    }
}