{
    "cas_no": "4525-44-4",
    "key_name": "Dichloroethylmethylsilane",
    "cn_name": null,
    "alternate_name": "Silane, dichloroethylmethyl-;Dichloroethylmethylsilane;Methylethyldichlorosilane;(Ethyl)(methyl)dichlorosilane",
    "duplicated_cas_no": "",
    "SMILES": "[Si](CC)(C)(Cl)Cl",
    "meta_data": {
        "InChI": "InChI=1S/C3H8Cl2Si/c1-3-6(2,4)5/h3H2,1-2H3",
        "InChIKey": null,
        "Canonical SMILES": "Cl[Si](Cl)(C)CC",
        "Molecular Formula": "C<sub>3</sub>H<sub>8</sub>Cl<sub>2</sub>Si",
        "Molecular Mass": "143.09",
        "Boiling Point": "101 °C",
        "Density": "1.063 g/cm³"
    }
}