{
    "cas_no": "19158-51-1",
    "key_name": "4-Methylbenzenesulfonyl cyanide",
    "cn_name": "4-甲苯磺酰氰;对甲苯磺酰氰;",
    "alternate_name": "Benzenesulfonyl cyanide, 4-methyl-;<em>p</em>-Toluenesulfonyl cyanide;4-Methylbenzenesulfonyl cyanide;Tosyl cyanide;<em>p</em>-Tolylsulfonyl cyanide;4-Toluenesulfonyl cyanide;(4-Methylphenyl)sulfonylformonitrile",
    "duplicated_cas_no": "",
    "SMILES": "S(C#N)(=O)(=O)C1=CC=C(C)C=C1",
    "meta_data": {
        "InChI": "InChI=1S/C8H7NO2S/c1-7-2-4-8(5-3-7)12(10,11)6-9/h2-5H,1H3",
        "InChIKey": null,
        "Canonical SMILES": "N#CS(=O)(=O)C1=CC=C(C=C1)C",
        "Molecular Formula": "C<sub>8</sub>H<sub>7</sub>NO<sub>2</sub>S",
        "Molecular Mass": "181.21",
        "Melting Point": "46-48 °C"
    }
}