{
    "cas_no": "1808-12-4",
    "key_name": "Bromodiphenhydramine hydrochloride",
    "cn_name": null,
    "alternate_name": "Ethanamine, 2-[(4-bromophenyl)phenylmethoxy]-<em>N</em>,<em>N</em>-dimethyl-, hydrochloride (1:1);Ethylamine, 2-[(<em>p</em>-bromo-α-phenylbenzyl)oxy]-<em>N</em>,<em>N</em>-dimethyl-, hydrochloride;Ethanamine, 2-[(4-bromophenyl)phenylmethoxy]-<em>N</em>,<em>N</em>-dimethyl-, hydrochloride;Ambodryl hydrochloride;Bromdiphenylhydramine hydrochloride;β-(<em>p</em>-Bromobenzhydryloxy)ethyldimethylamine hydrochloride;Bromodiphenhydramine hydrochloride;2-(4-Bromodiphenylmethoxy)ethyldimethylamine hydrochloride;4-Bromo-α-phenylbenzyl 2-dimethylaminoethyl ether hydrochloride;Bromdiphenhydramine hydrochloride;Bromazine hydrochloride;NSC 36113",
    "duplicated_cas_no": "",
    "SMILES": "C(OCCN(C)C)(C1=CC=C(Br)C=C1)C2=CC=CC=C2.Cl",
    "meta_data": {
        "InChI": "InChI=1S/C17H20BrNO.ClH/c1-19(2)12-13-20-17(14-6-4-3-5-7-14)15-8-10-16(18)11-9-15;/h3-11,17H,12-13H2,1-2H3;1H",
        "InChIKey": null,
        "Canonical SMILES": "Cl.BrC1=CC=C(C=C1)C(OCCN(C)C)C=2C=CC=CC2",
        "Molecular Formula": "C<sub>17</sub>H<sub>20</sub>BrNO.ClH",
        "Molecular Mass": "",
        "Melting Point": "144-145 °C"
    }
}