{
    "cas_no": "1838-39-7",
    "key_name": "Ethyl 4-(ethoxycarbonyl)-1-piperidineacetate",
    "cn_name": null,
    "alternate_name": "1-Piperidineacetic acid, 4-(ethoxycarbonyl)-, ethyl ester;1-Piperidineacetic acid, 4-carboxy-, diethyl ester;Ethyl 4-(ethoxycarbonyl)-1-piperidineacetate;1-Carbethoxymethyl-4-carbethoxypiperidine;1-Carboethoxymethyl-4-carboethoxypiperidine;NSC 100756",
    "duplicated_cas_no": "",
    "SMILES": "C(C(OCC)=O)N1CCC(C(OCC)=O)CC1",
    "meta_data": {
        "InChI": "InChI=1S/C12H21NO4/c1-3-16-11(14)9-13-7-5-10(6-8-13)12(15)17-4-2/h10H,3-9H2,1-2H3",
        "InChIKey": null,
        "Canonical SMILES": "O=C(OCC)CN1CCC(C(=O)OCC)CC1",
        "Molecular Formula": "C<sub>12</sub>H<sub>21</sub>NO<sub>4</sub>",
        "Molecular Mass": "243.30",
        "Boiling Point": "101-103 °C",
        "Density": "1.057 g/cm³ @ Temp: 15 °C"
    }
}