{
    "cas_no": "73942-87-7",
    "key_name": "1,3-Dihydro-7,8-dimethoxy-2<em>H</em>-3-benzazepin-2-one",
    "cn_name": "7,8-二甲氧基-1,3-二氢-2H-3-苯并氮杂卓-2-酮;",
    "alternate_name": "2<em>H</em>-3-Benzazepin-2-one, 1,3-dihydro-7,8-dimethoxy-;1,3-Dihydro-7,8-dimethoxy-2<em>H</em>-3-benzazepin-2-one;7,8-Dimethoxy-1,2-dihydro-3<em>H</em>-3-benzazepin-2-one",
    "duplicated_cas_no": "1202000-61-0",
    "SMILES": "O(C)C=1C=C2C(=CC1OC)C=CNC(=O)C2",
    "meta_data": {
        "InChI": "InChI=1S/C12H13NO3/c1-15-10-5-8-3-4-13-12(14)7-9(8)6-11(10)16-2/h3-6H,7H2,1-2H3,(H,13,14)",
        "InChIKey": null,
        "Canonical SMILES": "O=C1NC=CC=2C=C(OC)C(OC)=CC2C1",
        "Molecular Formula": "C<sub>12</sub>H<sub>13</sub>NO<sub>3</sub>",
        "Molecular Mass": "219.24",
        "Melting Point": "236-238 °C"
    }
}