{
    "cas_no": "31252-42-3",
    "key_name": "4-Benzylpiperidine",
    "cn_name": "4-苄基哌啶;",
    "alternate_name": "Piperidine, 4-(phenylmethyl)-;Piperidine, 4-benzyl-;4-(Phenylmethyl)piperidine;4-Benzylpiperidine;NSC 30346",
    "duplicated_cas_no": "",
    "SMILES": "C(C1=CC=CC=C1)C2CCNCC2",
    "meta_data": {
        "InChI": "InChI=1S/C12H17N/c1-2-4-11(5-3-1)10-12-6-8-13-9-7-12/h1-5,12-13H,6-10H2",
        "InChIKey": null,
        "Canonical SMILES": "C=1C=CC(=CC1)CC2CCNCC2",
        "Molecular Formula": "C<sub>12</sub>H<sub>17</sub>N",
        "Molecular Mass": "175.27",
        "Boiling Point": "270 °C",
        "Melting Point": "16.8 °C",
        "Density": "0.997 g/cm³"
    }
}