{
    "cas_no": "118-58-1",
    "key_name": "Benzyl salicylate",
    "cn_name": "柳酸苄酯;水杨酸苄酯;",
    "alternate_name": "Benzoic acid, 2-hydroxy-, phenylmethyl ester;Salicylic acid, benzyl ester;Benzyl <em>o</em>-hydroxybenzoate;Benzyl salicylate;Benzyl 2-hydroxybenzoate;NSC 6647",
    "duplicated_cas_no": "",
    "SMILES": "C(OCC1=CC=CC=C1)(=O)C2=C(O)C=CC=C2",
    "meta_data": {
        "InChI": "InChI=1S/C14H12O3/c15-13-9-5-4-8-12(13)14(16)17-10-11-6-2-1-3-7-11/h1-9,15H,10H2",
        "InChIKey": null,
        "Canonical SMILES": "O=C(OCC=1C=CC=CC1)C=2C=CC=CC2O",
        "Molecular Formula": "C<sub>14</sub>H<sub>12</sub>O<sub>3</sub>",
        "Molecular Mass": "228.24",
        "Boiling Point": "320 °C",
        "Melting Point": "130.5 °C",
        "Density": "1.1751 g/cm³ @ Temp: 25 °C"
    }
}