{
    "cas_no": "1113-21-9",
    "key_name": "Geranyllinalool",
    "cn_name": "香叶基芳樟醇;香叶基里哪醇;香叶里拉醇;3,7,11,15-四甲基-1,6,10,14-十六碳四烯-3-醇;",
    "alternate_name": "1,6,10,14-Hexadecatetraen-3-ol, 3,7,11,15-tetramethyl-, (6<em>E</em>,10<em>E</em>)-;1,6,10,14-Hexadecatetraen-3-ol, 3,7,11,15-tetramethyl-, (<em>E</em>,<em>E</em>)-;(6<em>E</em>,10<em>E</em>)-3,7,11,15-Tetramethyl-1,6,10,14-hexadecatetraen-3-ol;Geranyllinalool;Linalool, geranyl-;(±)-Geranyllinalool;(<em>E</em>,<em>E</em>)-Geranyllinalool;(<em>E</em>,<em>E</em>)-3,7,11,15-Tetramethyl-1,6,10,14-Hexadecatetraen-3-ol;Geranyl linalool",
    "duplicated_cas_no": "2211-30-5;3790-75-8",
    "SMILES": "C(CC(C=C)(C)O)/C=C(/CC/C=C(/CCC=C(C)C)\\C)\\C",
    "meta_data": {
        "InChI": "InChI=1/C20H34O/c1-7-20(6,21)16-10-15-19(5)14-9-13-18(4)12-8-11-17(2)3/h7,11,13,15,21H,1,8-10,12,14,16H2,2-6H3/b18-13+,19-15+",
        "InChIKey": null,
        "Canonical SMILES": "OC(C=C)(C)CCC=C(C)CCC=C(C)CCC=C(C)C",
        "Molecular Formula": "C<sub>20</sub>H<sub>34</sub>O",
        "Molecular Mass": "290.48",
        "Boiling Point": "130-136 °C",
        "Density": "0.8850 g/cm³ @ Temp: 19 °C"
    }
}