{
    "cas_no": "5431-44-7",
    "key_name": "2,6-Pyridinedicarboxaldehyde",
    "cn_name": "吡啶-2,6-二甲醛;",
    "alternate_name": "2,6-Pyridinedicarboxaldehyde;2,6-Diformylpyridine;Pyridine-2,6-dicarbaldehyde;2,6-Pyridinedialdehyde;NSC 13393;2,6-Bis(formyl)pyridine",
    "duplicated_cas_no": "",
    "SMILES": "C(=O)C=1N=C(C=O)C=CC1",
    "meta_data": {
        "InChI": "InChI=1S/C7H5NO2/c9-4-6-2-1-3-7(5-10)8-6/h1-5H",
        "InChIKey": null,
        "Canonical SMILES": "O=CC=1N=C(C=O)C=CC1",
        "Molecular Formula": "C<sub>7</sub>H<sub>5</sub>NO<sub>2</sub>",
        "Molecular Mass": "135.12",
        "Boiling Point": "152-154 °C @ Press: 103 Torr",
        "Melting Point": "124 °C"
    }
}