{
    "cas_no": "117428-22-5",
    "key_name": "Picoxystrobin",
    "cn_name": "啶氧菌酯;(E)-3-甲氧基-2-{2-[6-(三氟甲基)-2-吡啶氧甲基]苯基}丙烯酸甲酯;",
    "alternate_name": "Benzeneacetic acid, α-(methoxymethylene)-2-[[[6-(trifluoromethyl)-2-pyridinyl]oxy]methyl]-, methyl ester, (α<em>E</em>)-;Benzeneacetic acid, α-(methoxymethylene)-2-[[[6-(trifluoromethyl)-2-pyridinyl]oxy]methyl]-, methyl ester, (<em>E</em>)-;Picoxystrobin;ZEN 90160;Acanto;Acapela;Aproach",
    "duplicated_cas_no": "",
    "SMILES": "C(\\C(OC)=O)(=C/OC)/C1=C(COC=2N=C(C(F)(F)F)C=CC2)C=CC=C1",
    "meta_data": {
        "InChI": "InChI=1S/C18H16F3NO4/c1-24-11-14(17(23)25-2)13-7-4-3-6-12(13)10-26-16-9-5-8-15(22-16)18(19,20)21/h3-9,11H,10H2,1-2H3/b14-11+",
        "InChIKey": null,
        "Canonical SMILES": "O=C(OC)C(=COC)C=1C=CC=CC1COC=2N=C(C=CC2)C(F)(F)F",
        "Molecular Formula": "C<sub>18</sub>H<sub>16</sub>F<sub>3</sub>NO<sub>4</sub>",
        "Molecular Mass": "367.32",
        "Melting Point": "68-69 °C"
    }
}