{
    "cas_no": "622-45-7",
    "key_name": "Cyclohexyl acetate",
    "cn_name": "乙酸环己酯;醋酸环己酯;",
    "alternate_name": "Acetic acid, cyclohexyl ester;Cyclohexanol, acetate;Cyclohexyl acetate;NSC 8772;Acetoxycyclohexane;Acetic acid cyclohexanyl ester;Rhodiasolv AC 6;Celtol CHXA",
    "duplicated_cas_no": "",
    "SMILES": "O(C(C)=O)C1CCCCC1",
    "meta_data": {
        "InChI": "InChI=1S/C8H14O2/c1-7(9)10-8-5-3-2-4-6-8/h8H,2-6H2,1H3",
        "InChIKey": null,
        "Canonical SMILES": "O=C(OC1CCCCC1)C",
        "Molecular Formula": "C<sub>8</sub>H<sub>14</sub>O<sub>2</sub>",
        "Molecular Mass": "142.20",
        "Boiling Point": "173 °C",
        "Melting Point": "-77 °C",
        "Density": "0.968 g/cm³ @ Temp: 20 °C"
    }
}