{
    "cas_no": "1208-86-2",
    "key_name": "<em>N</em>-(4-Methoxyphenyl)aniline",
    "cn_name": "N-(4-甲氧基苯基)苯胺;4-甲氧基二苯胺;",
    "alternate_name": "Benzenamine, 4-methoxy-<em>N</em>-phenyl-;<em>p</em>-Anisidine, <em>N</em>-phenyl-;4-Methoxy-<em>N</em>-phenylbenzenamine;<em>p</em>-Methoxydiphenylamine;<em>N</em>-Phenyl-<em>p</em>-anisidine;4-Methoxydiphenylamine;<em>N</em>-Phenyl-<em>p</em>-methoxyaniline;<em>N</em>-(4-Methoxyphenyl)aniline;(4-Methoxyphenyl)phenylamine;<em>N</em>-Phenyl-4-methoxyaniline;NSC 31630;<em>N</em>-(4-Methoxyphenyl)phenylamine;4-Methoxy-<em>N</em>-phenylaniline;<em>N</em>-(4-Methoxyphenyl)-<em>N</em>-phenylamine;<em>N</em>-(<em>p</em>-Methoxyphenyl)aniline",
    "duplicated_cas_no": "",
    "SMILES": "N(C1=CC=C(OC)C=C1)C2=CC=CC=C2",
    "meta_data": {
        "InChI": "InChI=1S/C13H13NO/c1-15-13-9-7-12(8-10-13)14-11-5-3-2-4-6-11/h2-10,14H,1H3",
        "InChIKey": null,
        "Canonical SMILES": "O(C1=CC=C(C=C1)NC=2C=CC=CC2)C",
        "Molecular Formula": "C<sub>13</sub>H<sub>13</sub>NO",
        "Molecular Mass": "199.25",
        "Boiling Point": "195 °C @ Press: 12 Torr",
        "Melting Point": "105 °C"
    }
}