{
    "cas_no": "7244-78-2",
    "key_name": "1-Butoxy-4-nitrobenzene",
    "cn_name": "1-丁氧基-4-硝基苯;",
    "alternate_name": "Benzene, 1-butoxy-4-nitro-;Ether, butyl <em>p</em>-nitrophenyl;1-Butoxy-4-nitrobenzene;Butyl <em>p</em>-nitrophenyl ether;Ba 2692;<em>p</em>-Nitrophenyl butyl ether;<em>p</em>-Nitrobutoxybenzene;Butyl 4-nitrophenyl ether;4-Butoxynitrobenzene;<em>p</em>-(Butoxy)nitrobenzene;NSC 86583",
    "duplicated_cas_no": "",
    "SMILES": "O(CCCC)C1=CC=C(N(=O)=O)C=C1",
    "meta_data": {
        "InChI": "InChI=1S/C10H13NO3/c1-2-3-8-14-10-6-4-9(5-7-10)11(12)13/h4-7H,2-3,8H2,1H3",
        "InChIKey": null,
        "Canonical SMILES": "O=N(=O)C1=CC=C(OCCCC)C=C1",
        "Molecular Formula": "C<sub>10</sub>H<sub>13</sub>NO<sub>3</sub>",
        "Molecular Mass": "195.22",
        "Boiling Point": "150-154 °C @ Press: 5 Torr",
        "Melting Point": "32 °C"
    }
}