{
    "cas_no": "3435-51-6",
    "key_name": "4-Ethenylbenzonitrile",
    "cn_name": "4-氰基苯乙烯;",
    "alternate_name": "Benzonitrile, 4-ethenyl-;Benzonitrile, <em>p</em>-vinyl-;4-Ethenylbenzonitrile;<em>p</em>-Vinylbenzonitrile;<em>p</em>-Cyanostyrene;4-Cyanostyrene;4-Vinylbenzonitrile;4-Nitrilestyrene",
    "duplicated_cas_no": "",
    "SMILES": "C(=C)C1=CC=C(C#N)C=C1",
    "meta_data": {
        "InChI": "InChI=1S/C9H7N/c1-2-8-3-5-9(7-10)6-4-8/h2-6H,1H2",
        "InChIKey": null,
        "Canonical SMILES": "N#CC1=CC=C(C=C)C=C1",
        "Molecular Formula": "C<sub>9</sub>H<sub>7</sub>N",
        "Molecular Mass": "129.16",
        "Boiling Point": "102-104 °C @ Press: 9 Torr"
    }
}