{
    "cas_no": "1519-39-7",
    "key_name": "(+)-Methyl <em>p</em>-tolyl sulfoxide",
    "cn_name": "(R)-(+)-甲基对甲苯砜;",
    "alternate_name": "Benzene, 1-methyl-4-[(<em>R</em>)-methylsulfinyl]-;Sulfoxide, methyl <em>p</em>-tolyl, (<em>R</em>)-(+)-;Benzene, 1-methyl-4-(methylsulfinyl)-, (<em>R</em>)-;1-Methyl-4-[(<em>R</em>)-methylsulfinyl]benzene;(+)-(<em>R</em>)-Methyl <em>p</em>-tolyl sulfoxide;(<em>R</em>)-(+)-Methyl <em>p</em>-tolyl sulfoxide;(<em>R</em>)-Methyl <em>p</em>-tolyl sulfoxide;(+)-Methyl <em>p</em>-tolyl sulfoxide;(<em>R</em>)-<em>p</em>-Tolyl methyl sulfoxide;(+)-(<em>R</em>)-Methyl 4-tolyl sulfoxide;(<em>R</em>)-Methyl 4-tolyl sulfoxide;(<em>R</em>)-Methyl <em>p</em>-methylphenyl sulfoxide;(<em>R</em>)-(+)-Methyl 4-methylphenyl sulfoxide;(<em>R</em>)-(+)-Methyl 4-tolyl sulfoxide;(<em>R</em>)-1-Methyl-4-methylsulfinylbenzene;(R)-(+)-Methyl <em>p</em>-tolylsulfoxide;(<em>R</em>)-Methyl <em>p</em>-tolyl sulfone;Methyl <em>p</em>-tolyl (<em>R</em>)-sulfone;(<em>R</em>)-4-Methylphenyl methyl sulfoxide;1-Methyl-4-[(R)-methylsulfinyl]benzene",
    "duplicated_cas_no": "",
    "SMILES": "S(C)(=O)C1=CC=C(C)C=C1",
    "meta_data": {
        "InChI": "InChI=1S/C8H10OS/c1-7-3-5-8(6-4-7)10(2)9/h3-6H,1-2H3/t10-/m1/s1",
        "InChIKey": null,
        "Canonical SMILES": "O=S(C1=CC=C(C=C1)C)C",
        "Molecular Formula": "C<sub>8</sub>H<sub>10</sub>OS",
        "Molecular Mass": "154.23",
        "Melting Point": "75-76 °C"
    }
}