{
    "cas_no": "422-63-9",
    "key_name": "2,2,3,3,3-Pentafluoro-1,1-propanediol",
    "cn_name": "五氟丙醛水合物;五氟丙醛水合物, TECH;",
    "alternate_name": "1,1-Propanediol, 2,2,3,3,3-pentafluoro-;2,2,3,3,3-Pentafluoro-1,1-propanediol",
    "duplicated_cas_no": "",
    "SMILES": "C(C(F)(F)F)(C(O)O)(F)F",
    "meta_data": {
        "InChI": "InChI=1S/C3H3F5O2/c4-2(5,1(9)10)3(6,7)8/h1,9-10H",
        "InChIKey": null,
        "Canonical SMILES": "FC(F)(F)C(F)(F)C(O)O",
        "Molecular Formula": "C<sub>3</sub>H<sub>3</sub>F<sub>5</sub>O<sub>2</sub>",
        "Molecular Mass": "166.05",
        "Boiling Point": "92 °C @ Press: 732 Torr",
        "Melting Point": "52-53 °C"
    }
}