{
    "cas_no": "2682-20-4",
    "key_name": "Methylisothiazolinone",
    "cn_name": "异噻唑啉酮;2-甲基异噻唑啉-3-酮;卡松;",
    "alternate_name": "3(2<em>H</em>)-Isothiazolone, 2-methyl-;4-Isothiazolin-3-one, 2-methyl-;2-Methyl-3(2<em>H</em>)-isothiazolone;2-Methyl-3-isothiazolone;2-Methyl-4-isothiazolin-3-one;<em>N</em>-Methylisothiazolin-3-one;Kathon CG 243;2-Methyl-4-isothiazoline-3-one;<em>N</em>-Methylisothiazolone;MIT;Methylisothiazolinone;Kordek 50;Neolone;Neolone M 50;Neolone M 10;Kordek 50C;2-Methyl-2<em>H</em>-isothiazol-3-one;ProClin 950;Kordek MLX;Neolone 950;Neolone PE;Zonen MT;KB 838;Neolone CapG;Optiphen MIT;SPX;ZONEN-MT 10;Kordek 573F;Microcare MT;2-Methyl-4-isothiazoline-3-ketone;MIT (biocide);ProClin 5000;MT 10;Bestcide 600;2-Methyl-3(2<em>H</em>)-isothiazolinone;MIT 950;2-Methyl-2<em>H</em>-isothiazolin-3-one;Acticide M 10;Acticide M 20;Kordek LX 5000;MIT 10;M 20;S 1206;2-Methyl-1,2-thiazol-3(2<em>H</em>)-one;2-Methyl-2,3-dihydro-1,2-thiazol-3-one;2-Methyl-1,2-thiazol-3-one;Isocil MI 10;Lonza MI 10;LA-S 1;Acticide ICB 6",
    "duplicated_cas_no": "125794-71-0;184720-17-0;1610617-47-4",
    "SMILES": "O=C1N(C)SC=C1",
    "meta_data": {
        "InChI": "InChI=1S/C4H5NOS/c1-5-4(6)2-3-7-5/h2-3H,1H3",
        "InChIKey": null,
        "Canonical SMILES": "O=C1C=CSN1C",
        "Molecular Formula": "C<sub>4</sub>H<sub>5</sub>NOS",
        "Molecular Mass": "115.15",
        "Boiling Point": "85 °C @ Press: 1.0 Torr",
        "Melting Point": "50-51 °C"
    }
}