{
    "cas_no": "605-38-9",
    "key_name": "2,3-Dimethyl 2,3-pyridinedicarboxylate",
    "cn_name": "2,3-吡啶二甲酸二甲酯;",
    "alternate_name": "2,3-Pyridinedicarboxylic acid, 2,3-dimethyl ester;2,3-Pyridinedicarboxylic acid, dimethyl ester;2,3-Dimethyl 2,3-pyridinedicarboxylate;Dimethyl quinolinate;Dimethyl 2,3-pyridinedicarboxylate;2,3-Bis(methoxycarbonyl)pyridine;Quinolinic acid dimethyl ester;NSC 17026;2,3-Dimethyl pyridine-2,3-dicarboxylate",
    "duplicated_cas_no": "",
    "SMILES": "C(OC)(=O)C1=C(C(OC)=O)N=CC=C1",
    "meta_data": {
        "InChI": "InChI=1S/C9H9NO4/c1-13-8(11)6-4-3-5-10-7(6)9(12)14-2/h3-5H,1-2H3",
        "InChIKey": null,
        "Canonical SMILES": "O=C(OC)C1=NC=CC=C1C(=O)OC",
        "Molecular Formula": "C<sub>9</sub>H<sub>9</sub>NO<sub>4</sub>",
        "Molecular Mass": "195.17",
        "Melting Point": "52-53.5 °C"
    }
}