{
    "cas_no": "58-86-6",
    "key_name": "(+)-Xylose",
    "cn_name": "木糖;五碳醛糖;",
    "alternate_name": "<span class=\"text-smallcaps\">D</span>-Xylose;Xylose, <span class=\"text-smallcaps\">D</span>-;Xylose;(+)-Xylose;Wood sugar;<span class=\"text-smallcaps\">D</span>-(+)-Xylose;(2<em>R</em>,3<em>S</em>,4<em>R</em>)-2,3,4,5-Tetrahydroxypentanal",
    "duplicated_cas_no": "141492-19-5;133-56-2",
    "SMILES": "[C@H]([C@@H](CO)O)([C@H](C=O)O)O",
    "meta_data": {
        "InChI": "InChI=1S/C5H10O5/c6-1-3(8)5(10)4(9)2-7/h1,3-5,7-10H,2H2/t3-,4+,5+/m0/s1",
        "InChIKey": null,
        "Canonical SMILES": "O=CC(O)C(O)C(O)CO",
        "Molecular Formula": "C<sub>5</sub>H<sub>10</sub>O<sub>5</sub>",
        "Molecular Mass": "150.13",
        "Melting Point": "153-154 °C",
        "Density": "1.525 g/cm³ @ Temp: 20 °C"
    }
}