{
    "cas_no": "1068-55-9",
    "key_name": "Chloro(1-methylethyl)magnesium",
    "cn_name": "异丙基氯化镁;异丙基氯化镁;",
    "alternate_name": "Magnesium, chloro(1-methylethyl)-;Magnesium, chloroisopropyl-;Isopropylmagnesium chloride;Chloro(1-methylethyl)magnesium;Chloroisopropylmagnesium;2-Propylmagnesium chloride;Chloro(propan-2-yl)magnesium",
    "duplicated_cas_no": "",
    "SMILES": "C([Mg]Cl)(C)C",
    "meta_data": {
        "InChI": "InChI=1S/C3H7.ClH.Mg/c1-3-2;;/h3H,1-2H3;1H;/q;;+1/p-1",
        "InChIKey": null,
        "Canonical SMILES": "Cl[Mg]C(C)C",
        "Molecular Formula": "C<sub>3</sub>H<sub>7</sub>ClMg",
        "Molecular Mass": "",
        "Melting Point": "155-157 °C"
    }
}