{
    "cas_no": "14486-03-4",
    "key_name": "<span class=\"text-smallcaps\">L</span>-Methionylglycine",
    "cn_name": "L-蛋氨酰基甘氨酸;",
    "alternate_name": "Glycine, <span class=\"text-smallcaps\">L</span>-methionyl-;Glycine, <em>N</em>-<span class=\"text-smallcaps\">L</span>-methionyl-;<span class=\"text-smallcaps\">L</span>-Methionylglycine;NSC 88865;317: PN: WO2008077945 SEQID: 323 claimed protein;205: PN: WO2008142164 SEQID: 206 claimed protein;38: PN: US20100104568 SEQID: 206 claimed protein;218: PN: WO2010066835 SEQID: 262 unclaimed sequence;61: PN: WO2010070145 SEQID: 219 unclaimed sequence;34: PN: FR2949473 SEQID: 18 unclaimed protein;21: PN: WO2011023914 SEQID: 18 unclaimed protein;5: PN: WO2017095140 PAGE: 4 claimed sequence;16: PN: WO2018144831 SEQID: 16 claimed protein;5: PN: CN110031621 SEQID: 5 claimed sequence;11: PN: WO2020046069 SEQID: 12 claimed protein;2-[[(2S)-2-Amino-4-methylsulfanylbutanoyl]amino]acetic acid;2-[(2S)-2-Amino-4-(methylsulfanyl)butanamido]acetic acid;5: PN: WO2022093718 PAGE: 104 claimed sequence;67: PN: WO2022171113 SEQID: 77 claimed protein",
    "duplicated_cas_no": "13111-10-9",
    "SMILES": "C([C@H](CCSC)N)(NCC(O)=O)=O",
    "meta_data": {
        "InChI": "InChI=1S/C7H14N2O3S/c1-13-3-2-5(8)7(12)9-4-6(10)11/h5H,2-4,8H2,1H3,(H,9,12)(H,10,11)/t5-/m0/s1",
        "InChIKey": null,
        "Canonical SMILES": "O=C(O)CNC(=O)C(N)CCSC",
        "Molecular Formula": "C<sub>7</sub>H<sub>14</sub>N<sub>2</sub>O<sub>3</sub>S",
        "Molecular Mass": "206.26",
        "Melting Point": "182-183 °C"
    }
}