{
    "cas_no": "1706-12-3",
    "key_name": "1-Methyl-4-phenoxybenzene",
    "cn_name": null,
    "alternate_name": "Benzene, 1-methyl-4-phenoxy-;Ether, phenyl <em>p</em>-tolyl;1-Methyl-4-phenoxybenzene;<em>p</em>-Cresol phenyl ether;Phenyl <em>p</em>-tolyl ether;<em>p</em>-Phenoxytoluene;4-Methyldiphenyl ether;<em>p</em>-Methylphenyl phenyl ether;<em>p</em>-Tolyl phenyl ether;4-Methylphenyl phenyl ether;4-Phenoxytoluene;NSC 83594",
    "duplicated_cas_no": "",
    "SMILES": "O(C1=CC=C(C)C=C1)C2=CC=CC=C2",
    "meta_data": {
        "InChI": "InChI=1S/C13H12O/c1-11-7-9-13(10-8-11)14-12-5-3-2-4-6-12/h2-10H,1H3",
        "InChIKey": null,
        "Canonical SMILES": "O(C=1C=CC=CC1)C2=CC=C(C=C2)C",
        "Molecular Formula": "C<sub>13</sub>H<sub>12</sub>O",
        "Molecular Mass": "184.23",
        "Boiling Point": "277-278 °C @ Press: 145.5 Torr",
        "Melting Point": "104 °C"
    }
}