{
    "cas_no": "19264-68-7",
    "key_name": "9<em>H</em>-Carbazol-9-ylphenylmethanone",
    "cn_name": "9-苯甲酰咔唑;",
    "alternate_name": "Methanone, 9<em>H</em>-carbazol-9-ylphenyl-;Carbazole, 9-benzoyl-;9<em>H</em>-Carbazole, 9-benzoyl-;9<em>H</em>-Carbazol-9-ylphenylmethanone;<em>N</em>-Benzoylcarbazole;9-Benzoylcarbazole;NSC 14861",
    "duplicated_cas_no": "",
    "SMILES": "C(=O)(N1C=2C(C=3C1=CC=CC3)=CC=CC2)C4=CC=CC=C4",
    "meta_data": {
        "InChI": "InChI=1S/C19H13NO/c21-19(14-8-2-1-3-9-14)20-17-12-6-4-10-15(17)16-11-5-7-13-18(16)20/h1-13H",
        "InChIKey": null,
        "Canonical SMILES": "O=C(C=1C=CC=CC1)N2C=3C=CC=CC3C=4C=CC=CC42",
        "Molecular Formula": "C<sub>19</sub>H<sub>13</sub>NO",
        "Molecular Mass": "271.31",
        "Melting Point": "97-98 °C"
    }
}