{
    "cas_no": "440-17-5",
    "key_name": "Trifluoperazine hydrochloride",
    "cn_name": "盐酸三氟拉嗪;10-[3-(4-甲基-1-哌嗪基)丙基]-2-(三氟甲基)-10H-吩噻嗪二盐酸盐;",
    "alternate_name": "10<em>H</em>-Phenothiazine, 10-[3-(4-methyl-1-piperazinyl)propyl]-2-(trifluoromethyl)-, hydrochloride (1:2);Phenothiazine, 10-[3-(4-methyl-1-piperazinyl)propyl]-2-(trifluoromethyl)-, dihydrochloride;10<em>H</em>-Phenothiazine, 10-[3-(4-methyl-1-piperazinyl)propyl]-2-(trifluoromethyl)-, dihydrochloride;Trifluoperazine dihydrochloride;2-Trifluoromethyl-10-[3′-(1-methyl-4-piperazinyl)propyl]phenothiazine dihydrochloride;Fluoperazine;Trifluoperazine hydrochloride;Trifluoroperazine hydrochloride;Stelazine;Jatroneural;2-Trifluoromethyl-10-[3-(1-methyl-4-piperazinyl)propyl]phenothiazine dihydrochloride;Triphthazine dihydrochloride;Tryptazine dihydrochloride;Eskazine;Trifluoroperazine dihydrochloride;SKF 5019;Terfluzine;Triftazin;Tryptazine;Triphthazine;Eskazinyl;Trazine;Modalina;Triphthasine;TFP;Stellasil;10-[3-(4-Methylpiperazin-1-yl)propyl]-2-(trifluoromethyl)-10<em>H</em>-phenothiazine dihydrochloride",
    "duplicated_cas_no": "",
    "SMILES": "C(CCN1CCN(C)CC1)N2C=3C(SC=4C2=CC=CC4)=CC=C(C(F)(F)F)C3.Cl",
    "meta_data": {
        "InChI": "InChI=1S/C21H24F3N3S.2ClH/c1-25-11-13-26(14-12-25)9-4-10-27-17-5-2-3-6-19(17)28-20-8-7-16(15-18(20)27)21(22,23)24;;/h2-3,5-8,15H,4,9-14H2,1H3;2*1H",
        "InChIKey": null,
        "Canonical SMILES": "Cl.FC(F)(F)C1=CC=C2SC=3C=CC=CC3N(C2=C1)CCCN4CCN(C)CC4",
        "Molecular Formula": "C<sub>21</sub>H<sub>24</sub>F<sub>3</sub>N<sub>3</sub>S.2ClH",
        "Molecular Mass": "",
        "Melting Point": "242-243 °C"
    }
}