{
    "cas_no": "88196-70-7",
    "key_name": "(<em>R</em>)-1-(3-Methoxyphenyl)ethylamine",
    "cn_name": "(R)-1-(3-甲氧基苯基)乙胺;",
    "alternate_name": "Benzenemethanamine, 3-methoxy-α-methyl-, (α<em>R</em>)-;Benzenemethanamine, 3-methoxy-α-methyl-, (<em>R</em>)-;(α<em>R</em>)-3-Methoxy-α-methylbenzenemethanamine;(<em>R</em>)-<em>m</em>-Methoxy-α-phenethylamine;(<em>R</em>)-1-(3-Methoxyphenyl)ethylamine;(<em>R</em>)-<em>m</em>-Methoxy-α-phenylethylamine;(R)-1-(3-Methoxyphenyl)ethylamine;(<em>R</em>)-3-Methoxy-α-methylbenzylamine;(<em>R</em>)-1-(3-Methoxyphenyl)ethanamine;(<em>R</em>)-(+)-1-(3-Methoxyphenyl)ethylamine;(1R)-1-(3-Methoxyphenyl)ethan-1-amine;(1R)-1-(3-Methoxyphenyl)ethanamine",
    "duplicated_cas_no": "",
    "SMILES": "[C@H](C)(N)C1=CC(OC)=CC=C1",
    "meta_data": {
        "InChI": "InChI=1S/C9H13NO/c1-7(10)8-4-3-5-9(6-8)11-2/h3-7H,10H2,1-2H3/t7-/m1/s1",
        "InChIKey": null,
        "Canonical SMILES": "O(C1=CC=CC(=C1)C(N)C)C",
        "Molecular Formula": "C<sub>9</sub>H<sub>13</sub>NO",
        "Molecular Mass": "151.21",
        "Boiling Point": "118-120 °C @ Press: 2.5 mmHg"
    }
}