{
    "cas_no": "1558-17-4",
    "key_name": "4,6-Dimethylpyrimidine",
    "cn_name": "4,6-二甲基嘧啶;4,6-二甲基嘧啶;4,6-二甲基嘧啶, TECH;4,6-二甲基嘧啶,TECH.94%;",
    "alternate_name": "Pyrimidine, 4,6-dimethyl-;4,6-Dimethylpyrimidine;NSC 60686",
    "duplicated_cas_no": "",
    "SMILES": "CC=1C=C(C)N=CN1",
    "meta_data": {
        "InChI": "InChI=1S/C6H8N2/c1-5-3-6(2)8-4-7-5/h3-4H,1-2H3",
        "InChIKey": null,
        "Canonical SMILES": "N=1C=NC(=CC1C)C",
        "Molecular Formula": "C<sub>6</sub>H<sub>8</sub>N<sub>2</sub>",
        "Molecular Mass": "108.14",
        "Boiling Point": "159 °C",
        "Melting Point": "25 °C"
    }
}