{
    "cas_no": "616-84-2",
    "key_name": "4-Amino-3-nitrobenzenesulfonic acid",
    "cn_name": "2-硝基苯胺-4-磺酸;",
    "alternate_name": "Benzenesulfonic acid, 4-amino-3-nitro-;Sulfanilic acid, 3-nitro-;4-Amino-3-nitrobenzenesulfonic acid;2-Nitroaniline-4-sulfonic acid;NSC 39866;NSC 51813;NSC 638700;1-Amino-6-nitrobenzene-4-sulphonic acid",
    "duplicated_cas_no": "",
    "SMILES": "N(=O)(=O)C1=CC(S(=O)(=O)O)=CC=C1N",
    "meta_data": {
        "InChI": "InChI=1S/C6H6N2O5S/c7-5-2-1-4(14(11,12)13)3-6(5)8(9)10/h1-3H,7H2,(H,11,12,13)",
        "InChIKey": null,
        "Canonical SMILES": "O=N(=O)C1=CC(=CC=C1N)S(=O)(=O)O",
        "Molecular Formula": "C<sub>6</sub>H<sub>6</sub>N<sub>2</sub>O<sub>5</sub>S",
        "Molecular Mass": "218.19",
        "Melting Point": "&gt;300 °C"
    }
}