{
    "cas_no": "92-33-1",
    "key_name": "1-(10<em>H</em>-Phenothiazin-2-yl)-1-propanone",
    "cn_name": null,
    "alternate_name": "1-Propanone, 1-(10<em>H</em>-phenothiazin-2-yl)-;1-Propanone, 1-phenothiazin-2-yl-;1-(10<em>H</em>-Phenothiazin-2-yl)-1-propanone;2-Propionylphenothiazine",
    "duplicated_cas_no": "",
    "SMILES": "C(CC)(=O)C=1C=C2C(SC=3C(N2)=CC=CC3)=CC1",
    "meta_data": {
        "InChI": "InChI=1S/C15H13NOS/c1-2-13(17)10-7-8-15-12(9-10)16-11-5-3-4-6-14(11)18-15/h3-9,16H,2H2,1H3",
        "InChIKey": null,
        "Canonical SMILES": "O=C(C1=CC=C2SC=3C=CC=CC3NC2=C1)CC",
        "Molecular Formula": "C<sub>15</sub>H<sub>13</sub>NOS",
        "Molecular Mass": "255.33",
        "Melting Point": "172-173 °C"
    }
}