{
    "cas_no": "50458-79-2",
    "key_name": "3-Isoquinolinecarboxylic acid, ethyl ester",
    "cn_name": "3-异喹啉甲酸乙酯;",
    "alternate_name": "3-Isoquinolinecarboxylic acid, ethyl ester;Ethyl 3-isoquinolinecarboxylate",
    "duplicated_cas_no": "",
    "SMILES": "C(OCC)(=O)C1=CC2=C(C=N1)C=CC=C2",
    "meta_data": {
        "InChI": "InChI=1S/C12H11NO2/c1-2-15-12(14)11-7-9-5-3-4-6-10(9)8-13-11/h3-8H,2H2,1H3",
        "InChIKey": null,
        "Canonical SMILES": "O=C(OCC)C=1N=CC2=CC=CC=C2C1",
        "Molecular Formula": "C<sub>12</sub>H<sub>11</sub>NO<sub>2</sub>",
        "Molecular Mass": "201.22",
        "Boiling Point": "165-170 °C @ Press: 2 Torr",
        "Melting Point": "40-46 °C"
    }
}