{
    "cas_no": "68-36-0",
    "key_name": "1,4-Bis(trichloromethyl)benzene",
    "cn_name": "1，4-双(三氯甲基)苯;",
    "alternate_name": "Benzene, 1,4-bis(trichloromethyl)-;<em>p</em>-Xylene, α,α,α,α′,α′,α′-hexachloro-;1,4-Bis(trichloromethyl)benzene;Chloxyl;Hetol;<em>p</em>-Bis(trichloromethyl)benzene;Bitriben;α,α,α,α′,α′,α′-Hexachloro-<em>p</em>-xylene;ω,ω′-Hexachloro-<em>p</em>-xylene;ω-Hexachloro-<em>p</em>-xylene;<em>p</em>-Bis(perchloromethyl)benzene;1,4-di(Trichloromethyl)benzene;Hexachloroparaxylol;Chloksil;Cloxil;Chloxil;Khloxil;Hexachloroxylene;Hexichol;NSC 41883;Geksol;Chloxyle;Polytrem",
    "duplicated_cas_no": "133137-04-9",
    "SMILES": "C(Cl)(Cl)(Cl)C1=CC=C(C(Cl)(Cl)Cl)C=C1",
    "meta_data": {
        "InChI": "InChI=1S/C8H4Cl6/c9-7(10,11)5-1-2-6(4-3-5)8(12,13)14/h1-4H",
        "InChIKey": null,
        "Canonical SMILES": "ClC(Cl)(Cl)C1=CC=C(C=C1)C(Cl)(Cl)Cl",
        "Molecular Formula": "C<sub>8</sub>H<sub>4</sub>Cl<sub>6</sub>",
        "Molecular Mass": "312.84",
        "Boiling Point": "213 °C",
        "Melting Point": "108-110 °C",
        "Density": "1.778 g/cm³"
    }
}