{
    "cas_no": "54903-86-5",
    "key_name": "3-Bromo-2,6-pyridinediamine",
    "cn_name": "2，6-二氨基-3-溴吡啶;",
    "alternate_name": "2,6-Pyridinediamine, 3-bromo-;3-Bromo-2,6-pyridinediamine;3-Bromo-2,6-diaminopyridine;2,6-Diamino-3-bromopyridine;3-Bromopyridine-2,6-diamine",
    "duplicated_cas_no": "",
    "SMILES": "NC1=C(Br)C=CC(N)=N1",
    "meta_data": {
        "InChI": "InChI=1S/C5H6BrN3/c6-3-1-2-4(7)9-5(3)8/h1-2H,(H4,7,8,9)",
        "InChIKey": null,
        "Canonical SMILES": "BrC1=CC=C(N=C1N)N",
        "Molecular Formula": "C<sub>5</sub>H<sub>6</sub>BrN<sub>3</sub>",
        "Molecular Mass": "188.03",
        "Melting Point": "171-172 °C"
    }
}