{
    "cas_no": "27512-72-7",
    "key_name": "Ethychlozate",
    "cn_name": null,
    "alternate_name": "1<em>H</em>-Indazole-3-acetic acid, 5-chloro-, ethyl ester;J 455;IZAA;Etychlozate;Ethychlozate;Figaron;Ethyl 5-chloro-1<em>H</em>-indazole-3-acetate;Figarin;Ethylchlozate",
    "duplicated_cas_no": "",
    "SMILES": "C(C(OCC)=O)C=1C=2C(NN1)=CC=C(Cl)C2",
    "meta_data": {
        "InChI": "InChI=1S/C11H11ClN2O2/c1-2-16-11(15)6-10-8-5-7(12)3-4-9(8)13-14-10/h3-5H,2,6H2,1H3,(H,13,14)",
        "InChIKey": null,
        "Canonical SMILES": "O=C(OCC)CC1=NNC=2C=CC(Cl)=CC21",
        "Molecular Formula": "C<sub>11</sub>H<sub>11</sub>ClN<sub>2</sub>O<sub>2</sub>",
        "Molecular Mass": "238.67",
        "Melting Point": "77 °C"
    }
}