{
    "cas_no": "37784-63-7",
    "key_name": "Ethyl 3-thiopheneacetate",
    "cn_name": "噻吩-3-乙酸乙酯;",
    "alternate_name": "3-Thiopheneacetic acid, ethyl ester;Ethyl 3-thiopheneacetate;Ethyl 3-thienylacetate;Ethyl 2-(thiophen-3-yl)acetate;Ethyl 2-(thien-3-yl)acetate",
    "duplicated_cas_no": "",
    "SMILES": "C(C(OCC)=O)C=1C=CSC1",
    "meta_data": {
        "InChI": "InChI=1S/C8H10O2S/c1-2-10-8(9)5-7-3-4-11-6-7/h3-4,6H,2,5H2,1H3",
        "InChIKey": null,
        "Canonical SMILES": "O=C(OCC)CC1=CSC=C1",
        "Molecular Formula": "C<sub>8</sub>H<sub>10</sub>O<sub>2</sub>S",
        "Molecular Mass": "170.23",
        "Boiling Point": "107-115 °C @ Press: 6 Torr",
        "Density": "1.137 g/cm³"
    }
}