{
    "cas_no": "73-32-5",
    "key_name": "<span class=\"text-smallcaps\">L</span>-Isoleucine",
    "cn_name": "L-异亮氨酸;L-2-氨基-3-甲基戊酸;",
    "alternate_name": "<span class=\"text-smallcaps\">L</span>-Isoleucine;Isoleucine, <span class=\"text-smallcaps\">L</span>-;Isoleucine;<em>erythro</em>-<span class=\"text-smallcaps\">L</span>-Isoleucine;2-Amino-3-methylvaleric acid;(2<em>S</em>,3<em>S</em>)-α-Amino-β-methylvaleric acid;<span class=\"text-smallcaps\">L</span>-(+)-Isoleucine;[<em>S</em>-(<em>R</em>*,<em>R</em>*)]-2-Amino-3-methylpentanoic acid;(<em>S</em>)-Isoleucine;(2<em>S</em>,3<em>S</em>)-α-Amino-β-methyl-<em>n</em>-valeric acid;(2<em>S</em>,3<em>S</em>)-2-Amino-3-methylpentanoic acid;(<em>S</em>,<em>S</em>)-Isoleucine;2<em>S</em>,3<em>S</em>-Isoleucine;<span class=\"text-smallcaps\">L</span>-Norvaline, 3-methyl-, <em>erythro</em>-;<span class=\"text-smallcaps\">L</span>-Ile;Pentanoic acid, 2-amino-3-methyl-, (2<em>S</em>,3<em>S</em>)-;NSC 46708;Isoleucine, (2<em>S</em>,3ξ)-;516: PN: WO2022056313 SEQID: 532 claimed protein;362: PN: US20220128567 SEQID: 532 claimed protein;362: PN: US20220178935 SEQID: 532 claimed protein;MeSH ID: D007532;530: PN: WO2023172654 SEQID: 532 claimed sequence",
    "duplicated_cas_no": "7004-09-3;410078-51-2;501028-75-7;807611-99-0;959215-79-3;1050482-26-2;1131911-83-5;1186126-44-2;1431840-86-6;2012595-46-7;2110474-15-0;2230755-14-1",
    "SMILES": "[C@H]([C@H](CC)C)(C(O)=O)N",
    "meta_data": {
        "InChI": "InChI=1S/C6H13NO2/c1-3-4(2)5(7)6(8)9/h4-5H,3,7H2,1-2H3,(H,8,9)/t4-,5-/m0/s1",
        "InChIKey": null,
        "Canonical SMILES": "O=C(O)C(N)C(C)CC",
        "Molecular Formula": "C<sub>6</sub>H<sub>13</sub>NO<sub>2</sub>",
        "Molecular Mass": "131.17",
        "Melting Point": "285.5 °C (decomp)"
    }
}