{
    "cas_no": "4316-42-1",
    "key_name": "Butylimidazole",
    "cn_name": "N-丁基咪唑;",
    "alternate_name": "1<em>H</em>-Imidazole, 1-butyl-;Imidazole, 1-butyl-;1-Butyl-1<em>H</em>-imidazole;Butylimidazole;1-Butylimidazole;<em>N</em>-Butylimidazole;<em>N</em>-Butyl-1<em>H</em>-imidazole;NSC 158165;<em>N</em>-(<em>n</em>-Butyl)imidazole;1-<em>n</em>-Butylimidazole;<em>N</em>-Butylimidazolium",
    "duplicated_cas_no": "949154-82-9;1190866-09-1;1426999-44-1;1919829-26-7;2364343-23-5",
    "SMILES": "C(CCC)N1C=CN=C1",
    "meta_data": {
        "InChI": "InChI=1S/C7H12N2/c1-2-3-5-9-6-4-8-7-9/h4,6-7H,2-3,5H2,1H3",
        "InChIKey": null,
        "Canonical SMILES": "N=1C=CN(C1)CCCC",
        "Molecular Formula": "C<sub>7</sub>H<sub>12</sub>N<sub>2</sub>",
        "Molecular Mass": "124.18",
        "Boiling Point": "114-116 °C @ Press: 13 Torr",
        "Melting Point": "114-116 °C",
        "Density": "0.945 g/cm³ (oily liquid)"
    }
}