{
    "cas_no": "90-74-4",
    "key_name": "Rutinose",
    "cn_name": "芦丁糖;芸香糖;6-O-(6-脱氧-α-L-低聚吡喃基)-D-葡萄糖;",
    "alternate_name": "<span class=\"text-smallcaps\">D</smallcap>-Glucose, 6-<em>O</em>-(6-deoxy-α-<smallcap>L</span>-mannopyranosyl)-;Rutinose;6-<em>O</em>-(6-Deoxy-α-<span class=\"text-smallcaps\">L</smallcap>-mannopyranosyl)-<smallcap>D</span>-glucose",
    "duplicated_cas_no": "17073-58-4;75795-34-5",
    "SMILES": "O(C[C@H]([C@H]([C@@H]([C@H](C=O)O)O)O)O)[C@H]1[C@H](O)[C@H](O)[C@@H](O)[C@H](C)O1",
    "meta_data": {
        "InChI": "InChI=1S/C12H22O10/c1-4-7(16)10(19)11(20)12(22-4)21-3-6(15)9(18)8(17)5(14)2-13/h2,4-12,14-20H,3H2,1H3/t4-,5-,6+,7-,8+,9+,10+,11+,12+/m0/s1",
        "InChIKey": null,
        "Canonical SMILES": "O=CC(O)C(O)C(O)C(O)COC1OC(C)C(O)C(O)C1O",
        "Molecular Formula": "C<sub>12</sub>H<sub>22</sub>O<sub>10</sub>",
        "Molecular Mass": "326.30",
        "Melting Point": "190.5 °C (decomp)"
    }
}