{
    "cas_no": "101-43-9",
    "key_name": "Cyclohexyl methacrylate",
    "cn_name": "环己基异丁烯酸酯;异丁烯酸环己酯;2-甲基丙烯酸环己酯;",
    "alternate_name": "2-Propenoic acid, 2-methyl-, cyclohexyl ester;Methacrylic acid, cyclohexyl ester;Cyclohexanol, methacrylate;Cyclohexyl methacrylate;SR 208;Light Ester CH;Blemmer CHMA;Acryester CH;NSC 20968;Mhoromer BM 711;Acryester CHMA;EM 71;EM 71 (acrylate);Visiomer C-HMA",
    "duplicated_cas_no": "2056117-96-3",
    "SMILES": "O(C(C(C)=C)=O)C1CCCCC1",
    "meta_data": {
        "InChI": "InChI=1S/C10H16O2/c1-8(2)10(11)12-9-6-4-3-5-7-9/h9H,1,3-7H2,2H3",
        "InChIKey": null,
        "Canonical SMILES": "O=C(OC1CCCCC1)C(=C)C",
        "Molecular Formula": "C<sub>10</sub>H<sub>16</sub>O<sub>2</sub>",
        "Molecular Mass": "168.23",
        "Boiling Point": "210 °C",
        "Density": "0.9626 g/cm³ @ Temp: 20 °C"
    }
}