{
    "cas_no": "84311-19-3",
    "key_name": "<em>N</em>-[(1,1-Dimethylethoxy)carbonyl]-2-methyl-<span class=\"text-smallcaps\">L</span>-serine",
    "cn_name": null,
    "alternate_name": "<span class=\"text-smallcaps\">L</span>-Serine, <em>N</em>-[(1,1-dimethylethoxy)carbonyl]-2-methyl-;<em>N</em>-[(1,1-Dimethylethoxy)carbonyl]-2-methyl-<span class=\"text-smallcaps\">L</span>-serine;(<em>S</em>)-2-(<em>tert</em>-Butoxycarbonylamino)-3-hydroxy-2-methylpropanoic acid;(2S)-2-[[(<em>tert</em>-Butoxy)carbonyl]amino]-3-hydroxy-2-methylpropanoic acid",
    "duplicated_cas_no": "",
    "SMILES": "N([C@](C(O)=O)(CO)C)C(OC(C)(C)C)=O",
    "meta_data": {
        "InChI": "InChI=1S/C9H17NO5/c1-8(2,3)15-7(14)10-9(4,5-11)6(12)13/h11H,5H2,1-4H3,(H,10,14)(H,12,13)/t9-/m0/s1",
        "InChIKey": null,
        "Canonical SMILES": "O=C(OC(C)(C)C)NC(C(=O)O)(C)CO",
        "Molecular Formula": "C<sub>9</sub>H<sub>17</sub>NO<sub>5</sub>",
        "Molecular Mass": "219.24",
        "Melting Point": "114-117 °C (decomp)"
    }
}