{
    "cas_no": "101-17-7",
    "key_name": "3-Chlorodiphenylamine",
    "cn_name": "3-氯二苯胺;",
    "alternate_name": "Benzenamine, 3-chloro-<em>N</em>-phenyl-;Diphenylamine, 3-chloro-;3-Chloro-<em>N</em>-phenylbenzenamine;3-Chlorodiphenylamine;Phenyl(<em>m</em>-chlorophenyl)amine;<em>N</em>-(<em>m</em>-Chlorophenyl)aniline;<em>N</em>-(3-Chlorophenyl)aniline;<em>m</em>-Chlorodiphenylamine;<em>N</em>-(3-Chlorophenyl)-<em>N</em>-phenylamine;3-Chloro-<em>N</em>-phenylaniline",
    "duplicated_cas_no": "",
    "SMILES": "N(C1=CC(Cl)=CC=C1)C2=CC=CC=C2",
    "meta_data": {
        "InChI": "InChI=1S/C12H10ClN/c13-10-5-4-8-12(9-10)14-11-6-2-1-3-7-11/h1-9,14H",
        "InChIKey": null,
        "Canonical SMILES": "ClC1=CC=CC(=C1)NC=2C=CC=CC2",
        "Molecular Formula": "C<sub>12</sub>H<sub>10</sub>ClN",
        "Molecular Mass": "203.67",
        "Boiling Point": "338 °C",
        "Melting Point": "112 °C"
    }
}