{
    "cas_no": "142946-80-3",
    "key_name": "5,5′-Bis(trifluoromethyl)-2,2′-bipyridine",
    "cn_name": null,
    "alternate_name": "2,2′-Bipyridine, 5,5′-bis(trifluoromethyl)-;5,5′-Bis(trifluoromethyl)-2,2′-bipyridine;5,5′-Di(trifluoromethyl)-2,2′-bypyridine",
    "duplicated_cas_no": "",
    "SMILES": "C(F)(F)(F)C1=CC=C(N=C1)C2=CC=C(C(F)(F)F)C=N2",
    "meta_data": {
        "InChI": "InChI=1S/C12H6F6N2/c13-11(14,15)7-1-3-9(19-5-7)10-4-2-8(6-20-10)12(16,17)18/h1-6H",
        "InChIKey": null,
        "Canonical SMILES": "FC(F)(F)C1=CN=C(C=C1)C=2N=CC(=CC2)C(F)(F)F",
        "Molecular Formula": "C<sub>12</sub>H<sub>6</sub>F<sub>6</sub>N<sub>2</sub>",
        "Molecular Mass": "292.18",
        "Melting Point": "128-130 °C"
    }
}