{
    "cas_no": "3287-99-8",
    "key_name": "Benzylammonium chloride",
    "cn_name": "苯甲胺盐酸盐;苄胺盐酸盐;",
    "alternate_name": "Benzenemethanamine, hydrochloride (1:1);Benzylamine, hydrochloride;Benzenemethanamine, hydrochloride;Benzylammonium chloride;Phenylmethanamine hydrochloride",
    "duplicated_cas_no": "2366968-95-6",
    "SMILES": "C(N)C1=CC=CC=C1.Cl",
    "meta_data": {
        "InChI": "InChI=1S/C7H9N.ClH/c8-6-7-4-2-1-3-5-7;/h1-5H,6,8H2;1H",
        "InChIKey": null,
        "Canonical SMILES": "Cl.NCC=1C=CC=CC1",
        "Molecular Formula": "C<sub>7</sub>H<sub>9</sub>N.ClH",
        "Molecular Mass": "",
        "Melting Point": "262-263 °C"
    }
}