{
    "cas_no": "700-57-2",
    "key_name": "2-Adamantanol",
    "cn_name": "2-金刚烷醇;",
    "alternate_name": "Tricyclo[3.3.1.1<sup>3,7</sup>]decan-2-ol;2-Adamantanol;2-Hydroxyadamantane;NSC 193480;2-Tricyclo[3.3.1.1<sup>3,7</sup>]decanol",
    "duplicated_cas_no": "",
    "SMILES": "OC1C2CC3CC1CC(C2)C3",
    "meta_data": {
        "InChI": "InChI=1S/C10H16O/c11-10-8-2-6-1-7(4-8)5-9(10)3-6/h6-11H,1-5H2",
        "InChIKey": null,
        "Canonical SMILES": "OC1C2CC3CC(C2)CC1C3",
        "Molecular Formula": "C<sub>10</sub>H<sub>16</sub>O",
        "Molecular Mass": "152.23",
        "Melting Point": "296-300 °C"
    }
}