{
    "cas_no": "83657-24-3",
    "key_name": "Diniconazole",
    "cn_name": null,
    "alternate_name": "1<em>H</em>-1,2,4-Triazole-1-ethanol, β-[(2,4-dichlorophenyl)methylene]-α-(1,1-dimethylethyl)-, (β<em>E</em>)-;1<em>H</em>-1,2,4-Triazole-1-ethanol, β-[(2,4-dichlorophenyl)methylene]-α-(1,1-dimethylethyl)-, (<em>E</em>)-(±)-;(β<em>E</em>)-β-[(2,4-Dichlorophenyl)methylene]-α-(1,1-dimethylethyl)-1<em>H</em>-1,2,4-triazole-1-ethanol;Diniconazole;S 3308-10;Sumi 8;XE 779;Nb 2;S 3308;S 3308L;Spotless;Nb 2 (pesticide);Sumi;Mixor;Sumi 8-12.5WP;1<em>H</em>-1,2,4-Triazole-1-ethanol, β-[(2,4-dichlorophenyl)methylene]-α-(1,1-dimethylethyl)-, (<em>E</em>)-;(<em>E</em>)-1-(2,4-Dichlorophenyl)-4,4-dimethyl-2-(1,2,4-triazol-1-yl)-1-penten-3-ol;Sumi 8-020FS;Rac-diniconazole",
    "duplicated_cas_no": "101179-53-7;76714-88-0;1135441-04-1",
    "SMILES": "C(=C\\C1=C(Cl)C=C(Cl)C=C1)(\\C(C(C)(C)C)O)/N2C=NC=N2",
    "meta_data": {
        "InChI": "InChI=1/C15H17Cl2N3O/c1-15(2,3)14(21)13(20-9-18-8-19-20)6-10-4-5-11(16)7-12(10)17/h4-9,14,21H,1-3H3/b13-6+",
        "InChIKey": null,
        "Canonical SMILES": "ClC1=CC=C(C=C(N2N=CN=C2)C(O)C(C)(C)C)C(Cl)=C1",
        "Molecular Formula": "C<sub>15</sub>H<sub>17</sub>Cl<sub>2</sub>N<sub>3</sub>O",
        "Molecular Mass": "326.22",
        "Melting Point": "148-149 °C",
        "Density": "1.323 g/cm³ @ Temp: 22.9 °C; Press: Atm pressure"
    }
}