{
    "cas_no": "635-67-6",
    "key_name": "Catechol diacetate",
    "cn_name": "邻苯二酚二乙酸酯;1,2-二乙酰氧基苯;二醋酸儿茶酚;邻苯二酚二醋酸酯;",
    "alternate_name": "1,2-Benzenediol, 1,2-diacetate;Pyrocatechol, diacetate;1,2-Benzenediol, diacetate;Catechol diacetate;1,2-Diacetoxybenzene;<em>o</em>-Acetoxyphenyl acetate;<em>o</em>-Phenylene diacetate;<em>o</em>-Diacetoxybenzene;1,2-Bis(acetyloxy)benzene;<em>o</em>-Dihydroxybenzene diacetate;2-Acetoxyphenyl acetate;NSC 27802;Benzene-1,2-diacetate;1,2-Phenylene diacetate",
    "duplicated_cas_no": "",
    "SMILES": "O(C(C)=O)C1=C(OC(C)=O)C=CC=C1",
    "meta_data": {
        "InChI": "InChI=1S/C10H10O4/c1-7(11)13-9-5-3-4-6-10(9)14-8(2)12/h3-6H,1-2H3",
        "InChIKey": null,
        "Canonical SMILES": "O=C(OC=1C=CC=CC1OC(=O)C)C",
        "Molecular Formula": "C<sub>10</sub>H<sub>10</sub>O<sub>4</sub>",
        "Molecular Mass": "194.18",
        "Melting Point": "64.5 °C"
    }
}