{
    "cas_no": "3374-22-9",
    "key_name": "Cysteine",
    "cn_name": "DL-半胱氨酸;",
    "alternate_name": "Cysteine;Cysteine, <span class=\"text-smallcaps\">DL</span>-;<span class=\"text-smallcaps\">DL</span>-Cysteine;(±)-Cysteine;NSC 63864;(±)-2-Amino-3-mercaptopropionic acid;2-Amino-3-sulfanylpropanoic acid",
    "duplicated_cas_no": "",
    "SMILES": "C(C(O)=O)(CS)N",
    "meta_data": {
        "InChI": "InChI=1S/C3H7NO2S/c4-2(1-7)3(5)6/h2,7H,1,4H2,(H,5,6)",
        "InChIKey": null,
        "Canonical SMILES": "O=C(O)C(N)CS",
        "Molecular Formula": "C<sub>3</sub>H<sub>7</sub>NO<sub>2</sub>S",
        "Molecular Mass": "121.16",
        "Melting Point": "222-225 °C"
    }
}