{
    "cas_no": "4334-88-7",
    "key_name": "4-(Ethoxycarbonyl)phenylboronic acid",
    "cn_name": "4-乙氧羰基苯硼酸;",
    "alternate_name": "Benzoic acid, 4-borono-, 1-ethyl ester;Benzoic acid, <em>p</em>-borono-, 1-ethyl ester;Benzoic acid, <em>p</em>-borono-, ethyl ester;4-Carboethoxybenzeneboronic acid;4-(Ethoxycarbonyl)phenylboronic acid;Ethyl 4-boronobenzoate;[4-[(Ethyloxy)carbonyl]phenyl]boronic acid;[<em>p</em>-(Ethoxycarbonyl)phenyl]boronic acid;4-(Ethoxylcarbonyl)phenylboronic acid;(4-(Ethoxycarbonyl)phenyl)boronic acid;Ethyl 4-dihydroxyborylbenzoate",
    "duplicated_cas_no": "",
    "SMILES": "C(OCC)(=O)C1=CC=C(B(O)O)C=C1",
    "meta_data": {
        "InChI": "InChI=1S/C9H11BO4/c1-2-14-9(11)7-3-5-8(6-4-7)10(12)13/h3-6,12-13H,2H2,1H3",
        "InChIKey": null,
        "Canonical SMILES": "O=C(OCC)C1=CC=C(C=C1)B(O)O",
        "Molecular Formula": "C<sub>9</sub>H<sub>11</sub>BO<sub>4</sub>",
        "Molecular Mass": "193.99",
        "Melting Point": "175-176 °C"
    }
}