{
    "cas_no": "321-54-0",
    "key_name": "Coumaphos oxon",
    "cn_name": null,
    "alternate_name": "Phosphoric acid, 3-chloro-4-methyl-2-oxo-2<em>H</em>-1-benzopyran-7-yl diethyl ester;Coumarin, 3-chloro-7-hydroxy-4-methyl-, diethyl phosphate;Umbelliferone, 3-chloro-4-methyl-, diethyl phosphate;3-Chloro-4-methylumbelliferone diethyl phosphate;Coroxon;Diethyl 3-chloro-4-methylcoumarin-7-yl phosphate;<em>O</em>,<em>O</em>-Diethyl <em>O</em>-(3-chloro-4-methylcoumarin-7-yl) phosphate;Coumaphos <em>O</em>-analog;Coralox;Coumaphoxon;Coumaphos oxon;Co-ral <em>O</em>-analog",
    "duplicated_cas_no": "",
    "SMILES": "CC=1C=2C(=CC(OP(OCC)(OCC)=O)=CC2)OC(=O)C1Cl",
    "meta_data": {
        "InChI": "InChI=1S/C14H16ClO6P/c1-4-18-22(17,19-5-2)21-10-6-7-11-9(3)13(15)14(16)20-12(11)8-10/h6-8H,4-5H2,1-3H3",
        "InChIKey": null,
        "Canonical SMILES": "O=C1OC=2C=C(OP(=O)(OCC)OCC)C=CC2C(=C1Cl)C",
        "Molecular Formula": "C<sub>14</sub>H<sub>16</sub>ClO<sub>6</sub>P",
        "Molecular Mass": "346.70",
        "Melting Point": "68-69 °C"
    }
}