{
    "cas_no": "6881-57-8",
    "key_name": "Benzylphosphonic acid",
    "cn_name": "苄基磷酸;苄基磷酸,97%;苄基磷酸;",
    "alternate_name": "Phosphonic acid, <em>P</em>-(phenylmethyl)-;Phosphonic acid, benzyl-;Phosphonic acid, (phenylmethyl)-;<em>P</em>-(Phenylmethyl)phosphonic acid;α-Toluenephosphonic acid;Phenylmethanephosphonic acid;Benzylphosphonic acid",
    "duplicated_cas_no": "",
    "SMILES": "C(P(=O)(O)O)C1=CC=CC=C1",
    "meta_data": {
        "InChI": "InChI=1S/C7H9O3P/c8-11(9,10)6-7-4-2-1-3-5-7/h1-5H,6H2,(H2,8,9,10)",
        "InChIKey": null,
        "Canonical SMILES": "O=P(O)(O)CC=1C=CC=CC1",
        "Molecular Formula": "C<sub>7</sub>H<sub>9</sub>O<sub>3</sub>P",
        "Molecular Mass": "172.12",
        "Melting Point": "165 °C"
    }
}