{
    "cas_no": "34980-39-7",
    "key_name": "Laminaribiose",
    "cn_name": null,
    "alternate_name": "<span class=\"text-smallcaps\">D</smallcap>-Glucose, 3-<em>O</em>-β-<smallcap>D</span>-glucopyranosyl-;Laminaribiose;3-<em>O</em>-β-<span class=\"text-smallcaps\">D</smallcap>-Glucopyranosyl-<smallcap>D</span>-glucose;Laminariose",
    "duplicated_cas_no": "497-47-2;13311-22-3;20237-59-6",
    "SMILES": "O([C@@H]([C@@H]([C@@H](CO)O)O)[C@H](C=O)O)[C@@H]1O[C@H](CO)[C@@H](O)[C@H](O)[C@H]1O",
    "meta_data": {
        "InChI": "InChI=1S/C12H22O11/c13-1-4(16)7(18)11(5(17)2-14)23-12-10(21)9(20)8(19)6(3-15)22-12/h2,4-13,15-21H,1,3H2/t4-,5+,6-,7-,8-,9+,10-,11-,12+/m1/s1",
        "InChIKey": null,
        "Canonical SMILES": "O=CC(O)C(OC1OC(CO)C(O)C(O)C1O)C(O)C(O)CO",
        "Molecular Formula": "C<sub>12</sub>H<sub>22</sub>O<sub>11</sub>",
        "Molecular Mass": "342.30",
        "Melting Point": "204-206 °C"
    }
}