{
    "cas_no": "1707-03-5",
    "key_name": "Diphenylphosphinic acid",
    "cn_name": "二苯基磷酸;",
    "alternate_name": "Phosphinic acid, <em>P</em>,<em>P</em>-diphenyl-;Phosphinic acid, diphenyl-;<em>P</em>,<em>P</em>-Diphenylphosphinic acid;Diphenylphosphinic acid;Hydroxydiphenylphosphine oxide;NSC 13583",
    "duplicated_cas_no": "",
    "SMILES": "P(=O)(O)(C1=CC=CC=C1)C2=CC=CC=C2",
    "meta_data": {
        "InChI": "InChI=1S/C12H11O2P/c13-15(14,11-7-3-1-4-8-11)12-9-5-2-6-10-12/h1-10H,(H,13,14)",
        "InChIKey": null,
        "Canonical SMILES": "O=P(O)(C=1C=CC=CC1)C=2C=CC=CC2",
        "Molecular Formula": "C<sub>12</sub>H<sub>11</sub>O<sub>2</sub>P",
        "Molecular Mass": "218.19",
        "Boiling Point": "194 °C",
        "Melting Point": "195-196 °C"
    }
}