{
    "cas_no": "150-61-8",
    "key_name": "<em>N</em>,<em>N</em>′-Diphenylethylenediamine",
    "cn_name": "1,2-双苯胺基乙烷;1,4-二叠氮双环[2.2.2]辛烷;三乙基二胺;1,2-二苯胺乙烷;1,2-双苯胺基乙烷;N,N\"-二苯[伸];",
    "alternate_name": "1,2-Ethanediamine, <em>N</em><sup>1</sup>,<em>N</em><sup>2</sup>-diphenyl-;Ethylenediamine, <em>N</em>,<em>N</em>′-diphenyl-;1,2-Ethanediamine, <em>N</em>,<em>N</em>′-diphenyl-;<em>N</em><sup>1</sup>,<em>N</em><sup>2</sup>-Diphenyl-1,2-ethanediamine;1,2-Dianilinoethane;<em>N</em>,<em>N</em>′-Diphenyl-α,ω-diaminoethane;<em>N</em>,<em>N</em>′-Diphenylethylenediamine;NODX;<em>N</em>,<em>N</em>′-Diphenyl-1,2-ethylenediamine;<em>sym</em>-Diphenylethylenediamine;Benzenamine, <em>N</em>,<em>N</em>′-1,2-ethanediylbis-;<em>N</em>,<em>N</em>′-Ethylenedianiline;Stabilite;<em>N</em>,<em>N</em>′-Diphenyl-1,2-ethanediamine;Stabilite (antioxidant);1,2-Bis(phenylamino)ethane;<em>N</em>,<em>N</em>′-Diphenyl-1,2-diaminoethane;NSC 8719;N1,N2-Diphenylethane-1,2-diamine;1,2-Ethanediamine N1,N2-diphenyl-",
    "duplicated_cas_no": "",
    "SMILES": "N(CCNC1=CC=CC=C1)C2=CC=CC=C2",
    "meta_data": {
        "InChI": "InChI=1S/C14H16N2/c1-3-7-13(8-4-1)15-11-12-16-14-9-5-2-6-10-14/h1-10,15-16H,11-12H2",
        "InChIKey": null,
        "Canonical SMILES": "C=1C=CC(=CC1)NCCNC=2C=CC=CC2",
        "Molecular Formula": "C<sub>14</sub>H<sub>16</sub>N<sub>2</sub>",
        "Molecular Mass": "212.29",
        "Boiling Point": "178-182 °C @ Press: 2 Torr",
        "Melting Point": "74 °C"
    }
}