{
    "cas_no": "119452-66-3",
    "key_name": "(2,6-Difluorophenyl)hydrazine",
    "cn_name": "2,6-二氟苯肼;2,6-二氟苯基肼;",
    "alternate_name": "Hydrazine, (2,6-difluorophenyl)-;(2,6-Difluorophenyl)hydrazine",
    "duplicated_cas_no": "",
    "SMILES": "N(N)C1=C(F)C=CC=C1F",
    "meta_data": {
        "InChI": "InChI=1S/C6H6F2N2/c7-4-2-1-3-5(8)6(4)10-9/h1-3,10H,9H2",
        "InChIKey": null,
        "Canonical SMILES": "FC1=CC=CC(F)=C1NN",
        "Molecular Formula": "C<sub>6</sub>H<sub>6</sub>F<sub>2</sub>N<sub>2</sub>",
        "Molecular Mass": "144.12",
        "Melting Point": "49-50 °C"
    }
}