{
    "cas_no": "6734-33-4",
    "key_name": "4-Methylumbelliferyl β-<span class=\"text-smallcaps\">D</span>-xyloside",
    "cn_name": "4-甲基伞形酮酰-Β-D-吡喃木糖苷;",
    "alternate_name": "2<em>H</em>-1-Benzopyran-2-one, 4-methyl-7-(β-<span class=\"text-smallcaps\">D</span>-xylopyranosyloxy)-;Coumarin, 4-methyl-7-(β-<span class=\"text-smallcaps\">D</span>-xylopyranosyloxy)-;4-Methyl-7-(β-<span class=\"text-smallcaps\">D</span>-xylopyranosyloxy)-2<em>H</em>-1-benzopyran-2-one;4-Methylumbelliferyl β-<span class=\"text-smallcaps\">D</span>-xyloside;4-Methylumbelliferyl β-<span class=\"text-smallcaps\">D</span>-xylopyranoside;4-Methylumbelliferone-β-<span class=\"text-smallcaps\">D</span>-xyloside",
    "duplicated_cas_no": "65502-34-3;72359-91-2;145730-07-0;298212-32-5;840502-13-8;882048-88-6;1417358-19-0",
    "SMILES": "CC=1C=2C(=CC(O[C@H]3[C@H](O)[C@@H](O)[C@H](O)CO3)=CC2)OC(=O)C1",
    "meta_data": {
        "InChI": "InChI=1S/C15H16O7/c1-7-4-12(17)22-11-5-8(2-3-9(7)11)21-15-14(19)13(18)10(16)6-20-15/h2-5,10,13-16,18-19H,6H2,1H3/t10-,13+,14-,15+/m1/s1",
        "InChIKey": null,
        "Canonical SMILES": "O=C1OC=2C=C(OC3OCC(O)C(O)C3O)C=CC2C(=C1)C",
        "Molecular Formula": "C<sub>15</sub>H<sub>16</sub>O<sub>7</sub>",
        "Molecular Mass": "308.28",
        "Melting Point": "213-214 °C"
    }
}