{
    "cas_no": "620-13-3",
    "key_name": "3-Methylbenzyl bromide",
    "cn_name": "3-甲基苄溴;间甲基溴苄;",
    "alternate_name": "Benzene, 1-(bromomethyl)-3-methyl-;<em>m</em>-Xylene, α-bromo-;1-(Bromomethyl)-3-methylbenzene;<em>m</em>-Xylyl bromide;<em>m</em>-Methylbenzyl bromide;3-Methylbenzyl bromide;α-Bromo-<em>m</em>-xylene;3-(Bromomethyl)toluene;NSC 60146",
    "duplicated_cas_no": "",
    "SMILES": "C(Br)C1=CC(C)=CC=C1",
    "meta_data": {
        "InChI": "InChI=1S/C8H9Br/c1-7-3-2-4-8(5-7)6-9/h2-5H,6H2,1H3",
        "InChIKey": null,
        "Canonical SMILES": "BrCC=1C=CC=C(C1)C",
        "Molecular Formula": "C<sub>8</sub>H<sub>9</sub>Br",
        "Molecular Mass": "185.06",
        "Boiling Point": "212.5 °C",
        "Density": "1.3711 g/cm³ @ Temp: 23 °C"
    }
}