{
    "cas_no": "576-22-7",
    "key_name": "2-Bromo-1,3-dimethylbenzene",
    "cn_name": "2,6-二甲基溴苯;",
    "alternate_name": "Benzene, 2-bromo-1,3-dimethyl-;<em>m</em>-Xylene, 2-bromo-;2-Bromo-1,3-dimethylbenzene;2,6-Dimethylbromobenzene;2-Bromo-<em>m</em>-xylene;1-Bromo-2,6-dimethylbenzene;2,6-Dimethylphenyl bromide;2,6-Dimethyl-1-bromobenzene;2,6-Xylyl bromide;1,3-Dimethyl-2-bromobenzene",
    "duplicated_cas_no": "",
    "SMILES": "BrC1=C(C)C=CC=C1C",
    "meta_data": {
        "InChI": "InChI=1S/C8H9Br/c1-6-4-3-5-7(2)8(6)9/h3-5H,1-2H3",
        "InChIKey": null,
        "Canonical SMILES": "BrC=1C(=CC=CC1C)C",
        "Molecular Formula": "C<sub>8</sub>H<sub>9</sub>Br",
        "Molecular Mass": "185.06",
        "Boiling Point": "203.5 °C"
    }
}