{
    "cas_no": "1118-68-9",
    "key_name": "<em>N</em>,<em>N</em>-Dimethylglycine",
    "cn_name": "N,N-二甲基甘氨酸;",
    "alternate_name": "Glycine, <em>N</em>,<em>N</em>-dimethyl-;<em>N</em>,<em>N</em>-Dimethylglycine;Dimethylglycine;<em>N</em>-Methylsarcosine;(Dimethylamino)acetic acid;<em>N</em>,<em>N</em>-Dimethylaminoacetic acid;2-(Dimethylamino)acetic acid;2-(<em>N</em>,<em>N</em>-Dimethylamino)acetic acid;46: PN: WO2008005407 PAGE: 5 claimed protein;DMG;2-(Dimethylazaniumyl)acetate;Vitamin B16",
    "duplicated_cas_no": "780741-89-1",
    "SMILES": "C(C(O)=O)N(C)C",
    "meta_data": {
        "InChI": "InChI=1S/C4H9NO2/c1-5(2)3-4(6)7/h3H2,1-2H3,(H,6,7)",
        "InChIKey": null,
        "Canonical SMILES": "O=C(O)CN(C)C",
        "Molecular Formula": "C<sub>4</sub>H<sub>9</sub>NO<sub>2</sub>",
        "Molecular Mass": "103.12",
        "Melting Point": "182-183 °C"
    }
}