{
    "cas_no": "126-99-8",
    "key_name": "Chloroprene",
    "cn_name": "2-氯-1,3-丁二烯;氯丁二烯;",
    "alternate_name": "1,3-Butadiene, 2-chloro-;2-Chloro-1,3-butadiene;Chloroprene;2-Chlorobutadiene;β-Chloroprene;NSC 18589;2-Chloro-1,3-buatdiene;MeSH ID: D002737",
    "duplicated_cas_no": "184963-09-5",
    "SMILES": "C(C=C)(=C)Cl",
    "meta_data": {
        "InChI": "InChI=1S/C4H5Cl/c1-3-4(2)5/h3H,1-2H2",
        "InChIKey": null,
        "Canonical SMILES": "ClC(=C)C=C",
        "Molecular Formula": "C<sub>4</sub>H<sub>5</sub>Cl",
        "Molecular Mass": "88.54",
        "Boiling Point": "59.4 °C",
        "Melting Point": "-130 °C",
        "Density": "0.956 g/cm³ @ Temp: 20 °C"
    }
}