{
    "cas_no": "1133-80-8",
    "key_name": "2-Bromofluorene",
    "cn_name": "2-溴芴;",
    "alternate_name": "9<em>H</em>-Fluorene, 2-bromo-;Fluorene, 2-bromo-;2-Bromo-9<em>H</em>-fluorene;2-Bromofluorene;NSC 1463",
    "duplicated_cas_no": "",
    "SMILES": "BrC=1C=C2C(C=3C(C2)=CC=CC3)=CC1",
    "meta_data": {
        "InChI": "InChI=1S/C13H9Br/c14-11-5-6-13-10(8-11)7-9-3-1-2-4-12(9)13/h1-6,8H,7H2",
        "InChIKey": null,
        "Canonical SMILES": "BrC1=CC=C2C=3C=CC=CC3CC2=C1",
        "Molecular Formula": "C<sub>13</sub>H<sub>9</sub>Br",
        "Molecular Mass": "245.11",
        "Boiling Point": "185 °C",
        "Melting Point": "113.5 °C"
    }
}