{
    "cas_no": "3777-71-7",
    "key_name": "2-Heptylfuran",
    "cn_name": "2-庚基呋喃;",
    "alternate_name": "Furan, 2-heptyl-;2-Heptylfuran;2-<em>n</em>-Heptylfuran",
    "duplicated_cas_no": "",
    "SMILES": "C(CCCCCC)C1=CC=CO1",
    "meta_data": {
        "InChI": "InChI=1S/C11H18O/c1-2-3-4-5-6-8-11-9-7-10-12-11/h7,9-10H,2-6,8H2,1H3",
        "InChIKey": null,
        "Canonical SMILES": "O1C=CC=C1CCCCCCC",
        "Molecular Formula": "C<sub>11</sub>H<sub>18</sub>O",
        "Molecular Mass": "166.26",
        "Boiling Point": "83-84 °C @ Press: 11 Torr",
        "Density": "0.8794 g/cm³ @ Temp: 20 °C"
    }
}