{
    "cas_no": "58068-97-6",
    "key_name": "<em>N</em>-[3-(Triethoxysilyl)propyl]-4,5-dihydroimidazole",
    "cn_name": "N-[3-(三乙氧硅烷基)丙基]-4,5-双氢咪唑;",
    "alternate_name": "1<em>H</em>-Imidazole, 4,5-dihydro-1-[3-(triethoxysilyl)propyl]-;4,5-Dihydro-1-[3-(triethoxysilyl)propyl]-1<em>H</em>-imidazole;3-(Triethoxysilylpropyl)imidazoline;Dynasylan IMEO;<em>N</em>-[3-(Triethoxysilyl)propyl]-4,5-dihydroimidazole;[3-(2-Imidazolin-1-yl)propyl]triethoxysilane;Triethoxy(3-(2-imidazolin-1-yl)propyl)silane;3-(4,5-Dihydroimidazol-1-yl)propyltriethoxysilane;1-[3-(Triethoxysilyl)propyl]-2-imidazoline;[3-(4,5-Dihydro-1<em>H</em>-imidazol-1-yl)propyl]triethoxysilane;Triethoxy[3-(4,5-dihydro-1<em>H</em>-imidazol-1-yl)propyl]silane;1-[3-(Triethoxysilyl)propyl]-4,5-dihydro-1<em>H</em>-imidazole;SIT 8187.5",
    "duplicated_cas_no": "",
    "SMILES": "[Si](CCCN1CCN=C1)(OCC)(OCC)OCC",
    "meta_data": {
        "InChI": "InChI=1S/C12H26N2O3Si/c1-4-15-18(16-5-2,17-6-3)11-7-9-14-10-8-13-12-14/h12H,4-11H2,1-3H3",
        "InChIKey": null,
        "Canonical SMILES": "N1=CN(CC1)CCC[Si](OCC)(OCC)OCC",
        "Molecular Formula": "C<sub>12</sub>H<sub>26</sub>N<sub>2</sub>O<sub>3</sub>Si",
        "Molecular Mass": "274.43",
        "Boiling Point": "134 °C @ Press: 2 Torr",
        "Density": "1.005 g/cm³"
    }
}