{
    "cas_no": "5545-54-0",
    "key_name": "<em>O</em>-(1,1-Dimethylethyl)-<em>N</em>-[(phenylmethoxy)carbonyl]-<span class=\"text-smallcaps\">L</span>-tyrosine",
    "cn_name": null,
    "alternate_name": "<span class=\"text-smallcaps\">L</span>-Tyrosine, <em>O</em>-(1,1-dimethylethyl)-<em>N</em>-[(phenylmethoxy)carbonyl]-;Alanine, 3-(<em>p</em>-<em>tert</em>-butoxyphenyl)-<em>N</em>-carboxy-, <em>N</em>-benzyl ester, <span class=\"text-smallcaps\">L</span>-;Alanine, 3-(<em>p</em>-<em>tert</em>-butoxyphenyl)-<em>N</em>-carboxy-, <em>N</em>-benzyl ester;<em>O</em>-(1,1-Dimethylethyl)-<em>N</em>-[(phenylmethoxy)carbonyl]-<span class=\"text-smallcaps\">L</span>-tyrosine;<em>N</em><sup>α</sup>-(Benzyloxycarbonyl)-<em>O</em>-<em>tert</em>-butyl-<span class=\"text-smallcaps\">L</span>-tyrosine;<em>N</em>-(Benzyloxycarbonyl)-<em>O</em>-<em>tert</em>-butyltyrosine;<em>N</em>-(Benzyloxycarbonyl)-<em>O</em>-<em>tert</em>-butyl-<span class=\"text-smallcaps\">L</span>-tyrosine;(<em>S</em>)-2-(((Benzyloxy)carbonyl)amino)-3-(4-(<em>tert</em>-butoxy)phenyl)propanoic acid",
    "duplicated_cas_no": "211186-24-2",
    "SMILES": "C([C@H](NC(OCC1=CC=CC=C1)=O)C(O)=O)C2=CC=C(OC(C)(C)C)C=C2",
    "meta_data": {
        "InChI": "InChI=1S/C21H25NO5/c1-21(2,3)27-17-11-9-15(10-12-17)13-18(19(23)24)22-20(25)26-14-16-7-5-4-6-8-16/h4-12,18H,13-14H2,1-3H3,(H,22,25)(H,23,24)/t18-/m0/s1",
        "InChIKey": null,
        "Canonical SMILES": "O=C(OCC=1C=CC=CC1)NC(C(=O)O)CC2=CC=C(OC(C)(C)C)C=C2",
        "Molecular Formula": "C<sub>21</sub>H<sub>25</sub>NO<sub>5</sub>",
        "Molecular Mass": "371.43",
        "Melting Point": "76-78 °C"
    }
}