{
    "cas_no": "42509-80-8",
    "key_name": "Isazofos",
    "cn_name": "氯唑磷;",
    "alternate_name": "Phosphorothioic acid, <em>O</em>-[5-chloro-1-(1-methylethyl)-1<em>H</em>-1,2,4-triazol-3-yl] <em>O</em>,<em>O</em>-diethyl ester;CGA 12223;Miral;Ciba-Geigy A 12223;A 12223;Isazophos;CIBA 12223;Miral 10G;Isazofos;Triumph;Brace 10G;Brace;Triumph (insecticide)",
    "duplicated_cas_no": "57425-06-6;65357-77-9",
    "SMILES": "P(OC1=NN(C(C)C)C(Cl)=N1)(OCC)(OCC)=S",
    "meta_data": {
        "InChI": "InChI=1S/C9H17ClN3O3PS/c1-5-14-17(18,15-6-2)16-9-11-8(10)13(12-9)7(3)4/h7H,5-6H2,1-4H3",
        "InChIKey": null,
        "Canonical SMILES": "S=P(OC=1N=C(Cl)N(N1)C(C)C)(OCC)OCC",
        "Molecular Formula": "C<sub>9</sub>H<sub>17</sub>ClN<sub>3</sub>O<sub>3</sub>PS",
        "Molecular Mass": "313.74",
        "Boiling Point": "170 °C @ Press: 760 Torr",
        "Melting Point": "&lt;25 °C",
        "Density": "1.22 g/cm³ @ Temp: 20 °C"
    }
}