{
    "cas_no": "25637-99-4",
    "key_name": "Hexabromocyclododecane",
    "cn_name": "六溴环十二烷;",
    "alternate_name": "Cyclododecane, hexabromo-;Hexabromocyclododecane;Bromkal 73-6CD;Pyrovatex 3887;Pyroguard SR 103;Pyroguard F 800;Pyroguard SR 103A;Saytex HBCD;CD 75;Saytex HBCD-SF;CD 75P;Nicca Fi-None CG 1;Nicca Fi-None TS 1;HBCD-LMS;Saytex HBCD-LM;HBCD-LM;YM 88;Saytex HP 900;SR 103;Nicca Fi-None TS 3;Myflam 11645;BRE 5300;Safron 5261;Pyroguard SR 103HR;FR 104;FR 104 (fireproofing agent);FR 1206ILM;HBCD-SP 75;Saytex HP 900G;FR-CD;HP 900G;SP 75;Nicca Fi-None TS 88;HP 900;FR 1010;HBCD;YB 74PS",
    "duplicated_cas_no": "22374-57-8",
    "SMILES": "",
    "meta_data": {
        "InChI": "",
        "InChIKey": null,
        "Canonical SMILES": "",
        "Molecular Formula": "C<sub>12</sub>H<sub>18</sub>Br<sub>6</sub>",
        "Molecular Mass": "",
        "Melting Point": "178-183 °C",
        "Density": "1.05 g/cm³"
    }
}