{
    "cas_no": "119-44-8",
    "key_name": "Xanthopterin",
    "cn_name": null,
    "alternate_name": "4,6-Pteridinedione, 2-amino-3,5-dihydro-;4,6-Pteridinedione, 2-amino-1,5-dihydro-;4,6-Pteridinediol, 2-amino-;4(1<em>H</em>)-Pteridinone, 2,3-dihydro-6-hydroxy-2-imino-;2-Amino-3,5-dihydro-4,6-pteridinedione;2-Amino-4,6-dihydroxypteridine;2-Amino-4,6-dihydroxypyrimido[4,5-<em>b</em>]pyrazine;Xanthopterin;6-Hydroxy-2-amino-4-hydroxypteridine;2-Amino-4,6(3<em>H</em>,5<em>H</em>)-pteridinedione;NSC 41836;NSC 91557;2-Aminopteridine-4,6-diol;2-Amino-1,5-dihydropteridine-4,6-dione;2-Amino-3,4,5,6-tetrahydropteridine-4,6-dione;MeSH ID: D014976",
    "duplicated_cas_no": "2142-48-5;34896-99-6",
    "SMILES": "O=C1C2=C(NC(N)=N1)N=CC(=O)N2",
    "meta_data": {
        "InChI": "InChI=1S/C6H5N5O2/c7-6-10-4-3(5(13)11-6)9-2(12)1-8-4/h1H,(H,9,12)(H3,7,8,10,11,13)",
        "InChIKey": null,
        "Canonical SMILES": "O=C1N=C(N)NC=2N=CC(=O)NC12",
        "Molecular Formula": "C<sub>6</sub>H<sub>5</sub>N<sub>5</sub>O<sub>2</sub>",
        "Molecular Mass": "179.14",
        "Boiling Point": "98-100 °C @ Press: 18 Torr",
        "Melting Point": "&gt;410 °C (decomp)",
        "Density": "1.559 g/cm³"
    }
}