{
    "cas_no": "55-27-6",
    "key_name": "(±)-Norepinephrine hydrochloride",
    "cn_name": "DL-去甲肾上腺素盐酸盐;DL-去甲肾上腺素盐酸盐;盐酸-DL-去甲肾上腺素；DL-盐酸降肾上腺素；DL-降肾上腺素盐;",
    "alternate_name": "1,2-Benzenediol, 4-(2-amino-1-hydroxyethyl)-, hydrochloride (1:1);Benzyl alcohol, α-(aminomethyl)-3,4-dihydroxy-, hydrochloride, (±)-;1,2-Benzenediol, 4-(2-amino-1-hydroxyethyl)-, hydrochloride, (±)-;1,2-Benzenediol, 4-(2-amino-1-hydroxyethyl)-, hydrochloride;(±)-Noradrenaline hydrochloride;<em>dl</em>-Norepinephrine hydrochloride;<em>dl</em>-Noradrenaline hydrochloride;<span class=\"text-smallcaps\">DL</span>-Arterenol hydrochloride;(±)-Norepinephrine hydrochloride;<span class=\"text-smallcaps\">DL</span>-Norepinephrine hydrochloride;NSC 7930",
    "duplicated_cas_no": "13948-44-2",
    "SMILES": "C(CN)(O)C1=CC(O)=C(O)C=C1.Cl",
    "meta_data": {
        "InChI": "InChI=1S/C8H11NO3.ClH/c9-4-8(12)5-1-2-6(10)7(11)3-5;/h1-3,8,10-12H,4,9H2;1H",
        "InChIKey": null,
        "Canonical SMILES": "Cl.OC1=CC=C(C=C1O)C(O)CN",
        "Molecular Formula": "C<sub>8</sub>H<sub>11</sub>NO<sub>3</sub>.ClH",
        "Molecular Mass": "",
        "Melting Point": "292 °C (decomp)"
    }
}