{
    "cas_no": "101385-90-4",
    "key_name": "(3<em>S</em>)-1-(Phenylmethyl)-3-pyrrolidinol",
    "cn_name": null,
    "alternate_name": "3-Pyrrolidinol, 1-(phenylmethyl)-, (3<em>S</em>)-;3-Pyrrolidinol, 1-(phenylmethyl)-, (<em>S</em>)-;(3<em>S</em>)-1-(Phenylmethyl)-3-pyrrolidinol;<em>S</em>-(-)-1-Benzyl-3-hydroxypyrrolidine;(<em>S</em>)-1-(Phenylmethyl)-3-pyrrolidinol;(<em>S</em>)-1-Benzyl-3-hydroxypyrrolidine;1-Benzyl-3(<em>S</em>)-pyrrolidinol;(<em>S</em>)-1-Benzyl-3-pyrrolidinol;(<em>S</em>)-<em>N</em>-Benzyl-3-hydroxypyrrolidine;(3<em>S</em>)-<em>N</em>-Benzyl-3-hydroxypyrrolidine;(3<em>S</em>)-1-Benzylpyrrolidin-3-ol;(-)-(3<em>S</em>)-1-(phenylmethyl)-3-pyrrolidinol;3-Pyrrolidinol 1-(phenylmethyl)-, (3S)-",
    "duplicated_cas_no": "",
    "SMILES": "C(N1CC[C@H](O)C1)C2=CC=CC=C2",
    "meta_data": {
        "InChI": "InChI=1S/C11H15NO/c13-11-6-7-12(9-11)8-10-4-2-1-3-5-10/h1-5,11,13H,6-9H2/t11-/m0/s1",
        "InChIKey": null,
        "Canonical SMILES": "OC1CN(CC=2C=CC=CC2)CC1",
        "Molecular Formula": "C<sub>11</sub>H<sub>15</sub>NO",
        "Molecular Mass": "177.24",
        "Boiling Point": "89-90 °C @ Press: 1 Torr"
    }
}