{
    "cas_no": "18583-60-3",
    "key_name": "Borate(1-), hydrotris(1<em>H</em>-pyrazolato-κ<em>N</em><sup>1</sup>)-, potassium (1:1), (<em>T</em>-4)-",
    "cn_name": "三吡唑啉基硼氢钾;",
    "alternate_name": "Borate(1-), hydrotris(1<em>H</em>-pyrazolato-κ<em>N</em><sup>1</sup>)-, potassium (1:1), (<em>T</em>-4)-;Borate(1-), hydrotris(pyrazolato)-, potassium;Borate(1-), hydrotris(1<em>H</em>-pyrazolato-<em>N</em><sup>1</sup>)-, potassium, (<em>T</em>-4)-;Borate(1-), hydrotris(1<em>H</em>-pyrazolato-κ<em>N</em><sup>1</sup>)-, potassium, (<em>T</em>-4)-;1<em>H</em>-Pyrazole, boron complex;Potassium hydrotris(pyrazolato)borate(1-);Potassium trispyrazolylborate;Potassium hydrotris(pyrazol-1-yl)borate;Potassium hydridotris(1-pyrazolyl)borate;Potassium hydrotris(pyrazolyl)borate;Potassium hydrotris(pyrazolyl)borate(1-);Potassium hydrotripyrazolylborate;Potassium tris(1-pyrazolyl)borate;Potassium tripyrazolylborate;Potassium tris(1-pyrazolyl)hydroborate;Potassium hydrotris(1<em>H</em>-pyrazol-1-yl)borate;Potassium hydrotris(1-pyrazolyl)borate(1-);Potassium hydrotris(1-pyrazolyl)borate;Potassium hydrotris(pyrazolato)borate;Potassium tris(1-pyrazolyl)borohydride",
    "duplicated_cas_no": "",
    "SMILES": "[B+3]([H-])([N-]1C=CC=N1)([N-]2C=CC=N2)[N-]3C=CC=N3.[K+]",
    "meta_data": {
        "InChI": "InChI=1S/C9H10BN6.K/c1-4-11-14(7-1)10(15-8-2-5-12-15)16-9-3-6-13-16;/h1-10H;/q-1;+1",
        "InChIKey": null,
        "Canonical SMILES": "[K+].[H-][B+3]([N-]1N=CC=C1)([N-]2N=CC=C2)[N-]3N=CC=C3",
        "Molecular Formula": "C<sub>9</sub>H<sub>10</sub>BN<sub>6</sub>.K",
        "Molecular Mass": "",
        "Melting Point": "185-190 °C"
    }
}