{
    "cas_no": "102229-10-7",
    "key_name": "2-(<em>tert</em>-Butyldimethylsiloxy)ethanol",
    "cn_name": null,
    "alternate_name": "Ethanol, 2-[[(1,1-dimethylethyl)dimethylsilyl]oxy]-;2-[[(1,1-Dimethylethyl)dimethylsilyl]oxy]ethanol;2-<em>tert</em>-Butyldimethylsilyloxyethanol;2-(<em>tert</em>-Butyldimethylsilanyloxy)ethanol;2-(<em>tert</em>-Butyldimethylsiloxy)ethanol;2-[(<em>tert</em>-Butyldimethylsilyl)oxy]-1-ethanol;2-(<em>tert</em>-Butyldimethylsiloxy)ethyl alcohol",
    "duplicated_cas_no": "313681-40-2;2259616-25-4",
    "SMILES": "[Si](C(C)(C)C)(OCCO)(C)C",
    "meta_data": {
        "InChI": "InChI=1S/C8H20O2Si/c1-8(2,3)11(4,5)10-7-6-9/h9H,6-7H2,1-5H3",
        "InChIKey": null,
        "Canonical SMILES": "OCCO[Si](C)(C)C(C)(C)C",
        "Molecular Formula": "C<sub>8</sub>H<sub>20</sub>O<sub>2</sub>Si",
        "Molecular Mass": "176.33",
        "Boiling Point": "74-80 °C @ Press: 17 Torr"
    }
}