{
    "cas_no": "1512-30-7",
    "key_name": "1,1-Difluoromethanesulfonyl chloride",
    "cn_name": null,
    "alternate_name": "Methanesulfonyl chloride, 1,1-difluoro-;Methanesulfonyl chloride, difluoro-;1,1-Difluoromethanesulfonyl chloride;Difluoromethanesulfonyl chloride",
    "duplicated_cas_no": "",
    "SMILES": "S(C(F)F)(Cl)(=O)=O",
    "meta_data": {
        "InChI": "InChI=1S/CHClF2O2S/c2-7(5,6)1(3)4/h1H",
        "InChIKey": null,
        "Canonical SMILES": "O=S(=O)(Cl)C(F)F",
        "Molecular Formula": "CHClF<sub>2</sub>O<sub>2</sub>S",
        "Molecular Mass": "150.53",
        "Boiling Point": "95-99 °C"
    }
}