{
    "cas_no": "93697-74-6",
    "key_name": "Pyrazosulfuron-ethyl",
    "cn_name": "吡嘧磺隆;5-(4,6-二甲氧基嘧啶基-2-氨基甲酰氨基磺酰-1-甲基吡唑-4-羧酸乙酯;",
    "alternate_name": "1<em>H</em>-Pyrazole-4-carboxylic acid, 5-[[[[(4,6-dimethoxy-2-pyrimidinyl)amino]carbonyl]amino]sulfonyl]-1-methyl-, ethyl ester;Pyrazosulfuron-ethyl;Agreen;Sirius;Ethyl 5-(4,6-dimethoxy pyrimidine-2-ylcarbamoylsulfamoyl)-1-methylpyrazole-4-carboxylate;Ethyl-5-(4,6-dimethoxypyrimidin-2-ylcarbamoyl sulfamoyl)-1-methylpyrazole-4-carboxylate;Saathi;Pyrasulfuron-ethyl",
    "duplicated_cas_no": "129271-63-2",
    "SMILES": "C(OCC)(=O)C1=C(S(NC(NC=2N=C(OC)C=C(OC)N2)=O)(=O)=O)N(C)N=C1",
    "meta_data": {
        "InChI": "InChI=1S/C14H18N6O7S/c1-5-27-12(21)8-7-15-20(2)11(8)28(23,24)19-14(22)18-13-16-9(25-3)6-10(17-13)26-4/h6-7H,5H2,1-4H3,(H2,16,17,18,19,22)",
        "InChIKey": null,
        "Canonical SMILES": "O=C(OCC)C=1C=NN(C1S(=O)(=O)NC(=O)NC=2N=C(OC)C=C(N2)OC)C",
        "Molecular Formula": "C<sub>14</sub>H<sub>18</sub>N<sub>6</sub>O<sub>7</sub>S",
        "Molecular Mass": "414.39",
        "Melting Point": "181.5 °C"
    }
}