{
    "cas_no": "54239-37-1",
    "key_name": "Cimaterol",
    "cn_name": "西马特罗;",
    "alternate_name": "Benzonitrile, 2-amino-5-[1-hydroxy-2-[(1-methylethyl)amino]ethyl]-;2-Amino-5-[1-hydroxy-2-[(1-methylethyl)amino]ethyl]benzonitrile;Cimaterol;CL 263780;2-Amino-5-[1-hydroxy-2-(propan-2-ylamino)ethyl]benzonitrile;2-Amino-5-[1-hydroxy-2-[(propan-2-yl)amino]ethyl]benzonitrile",
    "duplicated_cas_no": "161403-54-9",
    "SMILES": "C(CNC(C)C)(O)C1=CC(C#N)=C(N)C=C1",
    "meta_data": {
        "InChI": "InChI=1S/C12H17N3O/c1-8(2)15-7-12(16)9-3-4-11(14)10(5-9)6-13/h3-5,8,12,15-16H,7,14H2,1-2H3",
        "InChIKey": null,
        "Canonical SMILES": "N#CC1=CC(=CC=C1N)C(O)CNC(C)C",
        "Molecular Formula": "C<sub>12</sub>H<sub>17</sub>N<sub>3</sub>O",
        "Molecular Mass": "219.28",
        "Melting Point": "160-165 °C"
    }
}