{
    "cas_no": "130263-10-4",
    "key_name": "Demethoxypiplartine",
    "cn_name": null,
    "alternate_name": "2(1<em>H</em>)-Pyridinone, 1-[3-(3,4-dimethoxyphenyl)-1-oxo-2-propenyl]-5,6-dihydro-, (<em>E</em>)-;<em>N</em>-(3,4-Dimethoxy-(<em>E</em>)-cinnamoyl)-Δ<sup>3</sup>-pyridin-2-one;Demethoxypiplartine",
    "duplicated_cas_no": "",
    "SMILES": "O(C)C1=C(OC)C=CC(/C=C/C(=O)N2C(=O)C=CCC2)=C1",
    "meta_data": {
        "InChI": "InChI=1S/C16H17NO4/c1-20-13-8-6-12(11-14(13)21-2)7-9-16(19)17-10-4-3-5-15(17)18/h3,5-9,11H,4,10H2,1-2H3/b9-7+",
        "InChIKey": null,
        "Canonical SMILES": "O=C(C=CC1=CC=C(OC)C(OC)=C1)N2C(=O)C=CCC2",
        "Molecular Formula": "C<sub>16</sub>H<sub>17</sub>NO<sub>4</sub>",
        "Molecular Mass": "287.31",
        "Melting Point": "116-117 °C"
    }
}