{
    "cas_no": "139306-10-8",
    "key_name": "(<em>S</em>)-3-[1-(Dimethylamino)ethyl]phenol",
    "cn_name": "3-(1-(S)-(N,N-二甲基氨基)乙基)苯酚;",
    "alternate_name": "Phenol, 3-[(1<em>S</em>)-1-(dimethylamino)ethyl]-;Phenol, 3-[1-(dimethylamino)ethyl]-, (<em>S</em>)-;3-[(1<em>S</em>)-1-(Dimethylamino)ethyl]phenol;NAP 226-90;(<em>S</em>)-3-[1-(Dimethylamino)ethyl]phenol;3-[(1S)-1-(Dimethylamino)ethyl]phenol",
    "duplicated_cas_no": "263368-69-0",
    "SMILES": "[C@H](N(C)C)(C)C1=CC(O)=CC=C1",
    "meta_data": {
        "InChI": "InChI=1S/C10H15NO/c1-8(11(2)3)9-5-4-6-10(12)7-9/h4-8,12H,1-3H3/t8-/m0/s1",
        "InChIKey": null,
        "Canonical SMILES": "OC1=CC=CC(=C1)C(N(C)C)C",
        "Molecular Formula": "C<sub>10</sub>H<sub>15</sub>NO",
        "Molecular Mass": "165.23",
        "Melting Point": "101-102 °C"
    }
}