{
    "cas_no": "2873-36-1",
    "key_name": "<span class=\"text-smallcaps\">L</smallcap>-Leucyl-<smallcap>L</span>-proline lactam",
    "cn_name": null,
    "alternate_name": "Pyrrolo[1,2-<em>a</em>]pyrazine-1,4-dione, hexahydro-3-(2-methylpropyl)-, (3<em>S</em>,8a<em>S</em>)-;Pyrrolo[1,2-<em>a</em>]pyrazine-1,4-dione, hexahydro-3-(2-methylpropyl)-, (3<em>S</em>-<em>trans</em>)-;Pyrrolo[1,2-<em>a</em>]pyrazine-1,4-dione, hexahydro-3-isobutyl-, stereoisomer;(3<em>S</em>,8a<em>S</em>)-Hexahydro-3-(2-methylpropyl)pyrrolo[1,2-<em>a</em>]pyrazine-1,4-dione;<span class=\"text-smallcaps\">L</smallcap>-Leucyl-<smallcap>L</span>-proline lactam;Cyclo(<span class=\"text-smallcaps\">L</smallcap>-prolyl-<smallcap>L</span>-leucyl);Cyclo-<span class=\"text-smallcaps\">L</smallcap>-prolyl-<smallcap>L</span>-leucine;Cyclo(proline-leucine);<span class=\"text-smallcaps\">L</smallcap>-Leucyl-<smallcap>L</span>-prolyl lactam;Gancidin W;Cyclo(<span class=\"text-smallcaps\">L</smallcap>-Leu-<smallcap>L</span>-Pro);Cyclo(Pro-Leu);Maculosin 6;Cyclo(<span class=\"text-smallcaps\">L</smallcap>-Pro-<smallcap>L</span>-Leu);Cyclo(<span class=\"text-smallcaps\">L</smallcap>-leucyl-<smallcap>L</span>-prolyl);<em>cis</em>-Cyclo(<span class=\"text-smallcaps\">L</smallcap>-Leu-<smallcap>L</span>-Pro);Cyclo(Leu-Pro)",
    "duplicated_cas_no": "33405-64-0",
    "SMILES": "O=C1N2[C@](C(=O)N[C@H]1CC(C)C)(CCC2)[H]",
    "meta_data": {
        "InChI": "InChI=1S/C11H18N2O2/c1-7(2)6-8-11(15)13-5-3-4-9(13)10(14)12-8/h7-9H,3-6H2,1-2H3,(H,12,14)/t8-,9-/m0/s1",
        "InChIKey": null,
        "Canonical SMILES": "O=C1NC(C(=O)N2CCCC12)CC(C)C",
        "Molecular Formula": "C<sub>11</sub>H<sub>18</sub>N<sub>2</sub>O<sub>2</sub>",
        "Molecular Mass": "210.27",
        "Melting Point": "163-165 °C"
    }
}