{
    "cas_no": "18776-12-0",
    "key_name": "3-Chloro-1-phenyl-1-propanol",
    "cn_name": null,
    "alternate_name": "Benzenemethanol, α-(2-chloroethyl)-;Benzyl alcohol, α-(2-chloroethyl)-;α-(2-Chloroethyl)benzenemethanol;α-(2-Chloroethyl)benzyl alcohol;3-Chloro-1-phenyl-1-propanol;(±)-3-Chloro-1-phenyl-1-propanol;3-Chloro-1-phenylpropanol",
    "duplicated_cas_no": "125712-82-5",
    "SMILES": "C(CCCl)(O)C1=CC=CC=C1",
    "meta_data": {
        "InChI": "InChI=1S/C9H11ClO/c10-7-6-9(11)8-4-2-1-3-5-8/h1-5,9,11H,6-7H2",
        "InChIKey": null,
        "Canonical SMILES": "ClCCC(O)C=1C=CC=CC1",
        "Molecular Formula": "C<sub>9</sub>H<sub>11</sub>ClO",
        "Molecular Mass": "170.64",
        "Boiling Point": "130-132 °C",
        "Melting Point": "30-32 °C",
        "Density": "1.1344 g/cm³ @ Temp: 20 °C"
    }
}