{
    "cas_no": "56-35-9",
    "key_name": "Tributyltin oxide",
    "cn_name": "三丁基氧化锡;双三丁基氧化锡;",
    "alternate_name": "Distannoxane, 1,1,1,3,3,3-hexabutyl-;Bis(tributyltin) oxide;Distannoxane, hexabutyl-;1,1,1,3,3,3-Hexabutyldistannoxane;BioMeT TBTO;Butinox;Oxybis[tributyltin];TBTO;6-Oxa-5,7-distannaundecane, 5,5,7,7-tetrabutyl-;Lastanox T;Lastanox Q;Stannicide A;Di-tributyl tin oxide;Tributyltin oxide;Mykolastanox F;Bis(tributylstannic oxide);Lastanox F;Vikol AF 25;Vikol LO 25;BioMeT 66;Oxybis(tributylstannane);BioMeT SRM;Lastanox T 20;Bis(tributylstannyl) oxide;Lastanox Q<sub>1</sub>;MT 1E;Stannicide O;Lastanox Super;Intercide 340A;Aceto TBTO;Diall;Hexabutyldistannoxane;Hexabutylditin oxide;Bis(tributylstannyl) ether;NSC 22332;NSC 28132;TnBTO;Tri-<em>n</em>-butyltin oxide",
    "duplicated_cas_no": "1353053-96-9",
    "SMILES": "[Sn](O[Sn](CCCC)(CCCC)CCCC)(CCCC)(CCCC)CCCC",
    "meta_data": {
        "InChI": "InChI=1S/6C4H9.O.2Sn/c6*1-3-4-2;;;/h6*1,3-4H2,2H3;;;",
        "InChIKey": null,
        "Canonical SMILES": "O([Sn](CCCC)(CCCC)CCCC)[Sn](CCCC)(CCCC)CCCC",
        "Molecular Formula": "C<sub>24</sub>H<sub>54</sub>OSn<sub>2</sub>",
        "Molecular Mass": "596.10",
        "Boiling Point": "180 °C @ Press: 2 Torr",
        "Melting Point": "-45 °C",
        "Density": "1.17 g/cm³ @ Temp: 25 °C"
    }
}