{
    "cas_no": "1563-38-8",
    "key_name": "Carbofuran phenol",
    "cn_name": "呋喃酚;2,3-二氢-2,2-二甲基-7-羟基苯并呋喃;",
    "alternate_name": "7-Benzofuranol, 2,3-dihydro-2,2-dimethyl-;2,3-Dihydro-2,2-dimethyl-7-benzofuranol;2,3-Dihydro-2,2-dimethyl-7-hydroxybenzofuran;NIA 10272;2,3-Dihydro-7-hydroxy-2,2-dimethyl benzofuran;Carbofuran phenol;2,2-Dimethyl-2,3-dihydro-7-benzofuranol;2,2-Dimethyl-7-hydroxy-2,3-dihydrobenzofuran;7-Hydroxy-2,2-dimethyl-2,3-dihydrobenzofuran;Carbofuran 7-phenol;2,2-Dimethyl-2,3-dihydro-1-benzofuran-7-ol;7-Hydroxy-2,2-dimethyl-2,3-dihydrobenzo[<em>b</em>]furan;2,2-Dimethyl-2,3-dihydrobenzo[<em>b</em>]furan-7-ol;2,2-Dimethyl-3<em>H</em>-1-benzofuran-7-ol",
    "duplicated_cas_no": "",
    "SMILES": "OC1=C2C(CC(C)(C)O2)=CC=C1",
    "meta_data": {
        "InChI": "InChI=1S/C10H12O2/c1-10(2)6-7-4-3-5-8(11)9(7)12-10/h3-5,11H,6H2,1-2H3",
        "InChIKey": null,
        "Canonical SMILES": "OC1=CC=CC2=C1OC(C)(C)C2",
        "Molecular Formula": "C<sub>10</sub>H<sub>12</sub>O<sub>2</sub>",
        "Molecular Mass": "164.20",
        "Boiling Point": "120.5 °C"
    }
}