{
    "cas_no": "26510-95-2",
    "key_name": "Ethyl 4-bromo-β-oxobenzenepropanoate",
    "cn_name": "(4-溴苯甲酰)乙酸乙酯;",
    "alternate_name": "Benzenepropanoic acid, 4-bromo-β-oxo-, ethyl ester;Acetic acid, (<em>p</em>-bromobenzoyl)-, ethyl ester;Ethyl 4-bromo-β-oxobenzenepropanoate;Ethyl (4-bromobenzoyl)acetate;Ethyl (<em>p</em>-bromobenzoyl)acetate;Ethyl 3-(4-bromophenyl)-3-oxo-propanoate;Ethyl 2-(4-bromobenzoyl)acetate;3-(4-Bromophenyl)-3-oxopropanoic acid ethyl ester;(4-Bromobenzoyl)acetic acid ethyl ester;Ethyl 3-oxo-3-(4-bromophenyl)propanoate",
    "duplicated_cas_no": "",
    "SMILES": "C(CC(OCC)=O)(=O)C1=CC=C(Br)C=C1",
    "meta_data": {
        "InChI": "InChI=1S/C11H11BrO3/c1-2-15-11(14)7-10(13)8-3-5-9(12)6-4-8/h3-6H,2,7H2,1H3",
        "InChIKey": null,
        "Canonical SMILES": "O=C(OCC)CC(=O)C1=CC=C(Br)C=C1",
        "Molecular Formula": "C<sub>11</sub>H<sub>11</sub>BrO<sub>3</sub>",
        "Molecular Mass": "271.11",
        "Boiling Point": "129-131 °C @ Press: 0.6 Torr"
    }
}