{
    "cas_no": "624-20-4",
    "key_name": "1,2-Dibromohexane",
    "cn_name": "1,2-二溴己烷;",
    "alternate_name": "Hexane, 1,2-dibromo-;1,2-Dibromohexane;(±)-1,2-Dibromohexane",
    "duplicated_cas_no": "152212-24-3",
    "SMILES": "C(CCCC)(CBr)Br",
    "meta_data": {
        "InChI": "InChI=1S/C6H12Br2/c1-2-3-4-6(8)5-7/h6H,2-5H2,1H3",
        "InChIKey": null,
        "Canonical SMILES": "BrCC(Br)CCCC",
        "Molecular Formula": "C<sub>6</sub>H<sub>12</sub>Br<sub>2</sub>",
        "Molecular Mass": "243.97",
        "Boiling Point": "87-87.2 °C",
        "Density": "1.6079 g/cm³ @ Temp: 0 °C"
    }
}