{
    "cas_no": "68027-15-6",
    "key_name": "Pulsatilla saponin D",
    "cn_name": null,
    "alternate_name": "Olean-12-en-28-oic acid, 3-[[<em>O</em>-6-deoxy-α-<span class=\"text-smallcaps\">L</smallcap>-mannopyranosyl-(1→2)-<em>O</em>-[β-<smallcap>D</smallcap>-glucopyranosyl-(1→4)]-α-<smallcap>L</span>-arabinopyranosyl]oxy]-23-hydroxy-, (3β,4α)-;(3β,4α)-3-[[<em>O</em>-6-Deoxy-α-<span class=\"text-smallcaps\">L</smallcap>-mannopyranosyl-(1→2)-<em>O</em>-[β-<smallcap>D</smallcap>-glucopyranosyl-(1→4)]-α-<smallcap>L</span>-arabinopyranosyl]oxy]-23-hydroxyolean-12-en-28-oic acid;Hederagenin 3-<em>O</em>-α-<span class=\"text-smallcaps\">L</smallcap>-rhamnopyranosyl-(1 → 2)-[β-<smallcap>D</smallcap>-glucopyranosyl-(1 → 4)]-α-<smallcap>L</span>-arabinopyranoside;Pulsatilla saponin D;Hederacolchiside A;SB 365;Hederagenin 3-<em>O</em>-[β-<span class=\"text-smallcaps\">D</smallcap>-glucopyranosyl(1→4)-[α-<smallcap>L</smallcap>-rhamnopyranosyl(1→2)]]-α-<smallcap>L</span>-arabinopyranoside;3β-[(<em>O</em>-β-<span class=\"text-smallcaps\">D</smallcap>-Glucopyranosyl-(1→4)-<em>O</em>-[α-<smallcap>L</smallcap>-rhamnopyranosyl-(1→2)]-α-<smallcap>L</span>-arabinopyranosyl)oxy]-23-hydroxyolean-12-en-28-oic acid;Pulchinenoside B3",
    "duplicated_cas_no": "",
    "SMILES": "C[C@]12[C@@]3(C)C([C@]4([C@@](C(O)=O)(CC3)CCC(C)(C)C4)[H])=CC[C@@]1([C@]5(C)[C@@](CC2)([C@@](CO)(C)[C@@H](O[C@H]6[C@H](O[C@H]7[C@H](O)[C@H](O)[C@@H](O)[C@H](C)O7)[C@@H](O)[C@@H](O[C@@H]8O[C@H](CO)[C@@H](O)[C@H](O)[C@H]8O)CO6)CC5)[H])[H]",
    "meta_data": {
        "InChI": "InChI=1S/C47H76O17/c1-22-30(50)33(53)35(55)38(60-22)64-37-32(52)26(62-39-36(56)34(54)31(51)25(19-48)61-39)20-59-40(37)63-29-11-12-43(4)27(44(29,5)21-49)10-13-46(7)28(43)9-8-23-24-18-42(2,3)14-16-47(24,41(57)58)17-15-45(23,46)6/h8,22,24-40,48-56H,9-21H2,1-7H3,(H,57,58)/t22-,24-,25+,26-,27+,28+,29-,30-,31+,32-,33+,34-,35+,36+,37+,38-,39-,40-,43-,44-,45+,46+,47-/m0/s1",
        "InChIKey": null,
        "Canonical SMILES": "O=C(O)C12CCC(C)(C)CC2C3=CCC4C5(C)CCC(OC6OCC(OC7OC(CO)C(O)C(O)C7O)C(O)C6OC8OC(C)C(O)C(O)C8O)C(C)(CO)C5CCC4(C)C3(C)CC1",
        "Molecular Formula": "C<sub>47</sub>H<sub>76</sub>O<sub>17</sub>",
        "Molecular Mass": "913.10",
        "Melting Point": "239-241 °C"
    }
}