{
    "cas_no": "213697-53-1",
    "key_name": "2′-(Dicyclohexylphosphino)-<em>N</em>,<em>N</em>-dimethyl[1,1′-biphenyl]-2-amine",
    "cn_name": "2-二环己膦基-2\"-(N,N-二甲胺)-联苯;",
    "alternate_name": "[1,1′-Biphenyl]-2-amine, 2′-(dicyclohexylphosphino)-<em>N</em>,<em>N</em>-dimethyl-;2′-(Dicyclohexylphosphino)-<em>N</em>,<em>N</em>-dimethyl[1,1′-biphenyl]-2-amine;2′-(Dicyclohexylphosphino)-<em>N</em>,<em>N</em>-dimethyl-[1,1′-biphenyl]-2-amine;2-(<em>N</em>,<em>N</em>-Dimethylamino)-2′-(dicyclohexylphosphino)biphenyl;2-Dicyclohexylphosphino-2′-(<em>N</em>,<em>N</em>-dimethylamino)biphenyl;2-(Dicyclohexylphosphino)-2′-(dimethylamino)biphenyl;2-Dicyclohexylphosphino-2′-dimethylamino-1,1′-biphenyl;DavePhos;Dicyclohexyl[2′-(dimethylamino)biphenyl-2-yl]phosphine;2′-(Dicyclohexylphosphino)-<em>N</em>,<em>N</em>-dimethylbiphenyl-2-amine;(2-Dimethylamino-1,1′-biphenyl-2-yl)dicyclohexylphosphine;2′-(Dicyclohexylphosphanyl)-<em>N</em>,<em>N</em>-dimethylbiphenyl-2-amine;2-[2-(Dicyclohexylphosphanyl)phenyl]-<em>N</em>,<em>N</em>-dimethylaniline;2-(2-Dicyclohexylphosphanylphenyl)-<em>N</em>,<em>N</em>-dimethylaniline",
    "duplicated_cas_no": "",
    "SMILES": "P(C1=C(C=CC=C1)C2=C(N(C)C)C=CC=C2)(C3CCCCC3)C4CCCCC4",
    "meta_data": {
        "InChI": "InChI=1S/C26H36NP/c1-27(2)25-19-11-9-17-23(25)24-18-10-12-20-26(24)28(21-13-5-3-6-14-21)22-15-7-4-8-16-22/h9-12,17-22H,3-8,13-16H2,1-2H3",
        "InChIKey": null,
        "Canonical SMILES": "C=1C=CC(=C(C1)C=2C=CC=CC2P(C3CCCCC3)C4CCCCC4)N(C)C",
        "Molecular Formula": "C<sub>26</sub>H<sub>36</sub>NP",
        "Molecular Mass": "393.54",
        "Melting Point": "116-118 °C"
    }
}