{
    "cas_no": "23597-82-2",
    "key_name": "Hexyl nicotinate",
    "cn_name": "烟酸己酯;",
    "alternate_name": "3-Pyridinecarboxylic acid, hexyl ester;Nicotinic acid, hexyl ester;Hexyl nicotinate;Nicotherm;Hexyl 3-pyridinecarboxylate;<em>n</em>-Hexyl nicotinate;Nicotinic acid <em>n</em>-hexyl ester;NSC 72758",
    "duplicated_cas_no": "",
    "SMILES": "C(OCCCCCC)(=O)C=1C=CC=NC1",
    "meta_data": {
        "InChI": "InChI=1S/C12H17NO2/c1-2-3-4-5-9-15-12(14)11-7-6-8-13-10-11/h6-8,10H,2-5,9H2,1H3",
        "InChIKey": null,
        "Canonical SMILES": "O=C(OCCCCCC)C=1C=NC=CC1",
        "Molecular Formula": "C<sub>12</sub>H<sub>17</sub>NO<sub>2</sub>",
        "Molecular Mass": "207.27",
        "Boiling Point": "147 °C",
        "Density": "1.0133 g/cm³ @ Temp: 25 °C"
    }
}