{
    "cas_no": "2859-68-9",
    "key_name": "2-Pyridinepropanol",
    "cn_name": "2-丙醇吡啶;2-吡啶丙醇;",
    "alternate_name": "2-Pyridinepropanol;3-(2-Pyridyl)-1-propanol;2-Pyridylpropanol;3-(2-Pyridyl)propanol;2-(3-Hydroxypropyl)pyridine;3-(α-Pyridyl)propanol;2-(γ-Hydroxypropyl)pyridine;3-Pyridin-2-ylpropanol;3-Pyridin-2-ylpropan-1-ol;NSC 2243;Pyripropanol",
    "duplicated_cas_no": "",
    "SMILES": "C(CCO)C1=CC=CC=N1",
    "meta_data": {
        "InChI": "InChI=1S/C8H11NO/c10-7-3-5-8-4-1-2-6-9-8/h1-2,4,6,10H,3,5,7H2",
        "InChIKey": null,
        "Canonical SMILES": "OCCCC1=NC=CC=C1",
        "Molecular Formula": "C<sub>8</sub>H<sub>11</sub>NO",
        "Molecular Mass": "137.18",
        "Boiling Point": "260.2 °C",
        "Melting Point": "34 °C"
    }
}