{
    "cas_no": "11031-45-1",
    "key_name": "Santalol",
    "cn_name": null,
    "alternate_name": "Santalol",
    "duplicated_cas_no": "",
    "SMILES": "",
    "meta_data": {
        "InChI": "",
        "InChIKey": null,
        "Canonical SMILES": "",
        "Molecular Formula": "C<sub>15</sub>H<sub>24</sub>O",
        "Molecular Mass": "",
        "Boiling Point": "300-310 °C",
        "Density": "0.978 g/cm³ @ Temp: 16 °C"
    }
}