{
    "cas_no": "470-90-6",
    "key_name": "Chlorfenvinphos",
    "cn_name": "毒虫畏;杀螟畏;2-氯-1-(2,4-二氯苯基)乙烯基二乙基磷酸酯;",
    "alternate_name": "Phosphoric acid, 2-chloro-1-(2,4-dichlorophenyl)ethenyl diethyl ester;Phosphoric acid, 2-chloro-1-(2,4-dichlorophenyl)vinyl diethyl ester;Benzyl alcohol, 2,4-dichloro-α-(chloromethylene)-, diethyl phosphate;GC 4072;SD 7859;ENT 24969;Birlane;Chlorfenvinfos;Chlorfenvinphos;2-Chloro-1-(2,4-dichlorophenyl)vinyl diethyl phosphate;Compound 4072;CVP;Diethyl 1-(2,4-dichlorophenyl)-2-chlorovinyl phosphate;Supona;Chlorphenvinfos;Chlorphenvinphos;OMS 1328;Sapecron;Vinyphate;Birlan;<em>O</em>,<em>O</em>-Diethyl <em>O</em>-[1-(2,4-dichlorophenyl)-2-chlorovinyl] phosphate;Sapecron 50EC;Birlane 10G;Dermaton;Diethyl 2-chloro-1-(2,4-dichlorophenyl)vinyl phosphate;<em>O</em>,<em>O</em>-Diethyl <em>O</em>-[2-chloro-1-(2,4-dichlorophenyl)vinyl] phosphate;2,4-Dichloro-α-(chloromethylene)benzyldiethyl phosphate;CVP (pesticide);Tarene;Enolofos;Haptasol;Zaprawa enolofos;Unitox;Clofenvinfos;Defiance S;Quirlan;Birlane Z 110;Z 110;Chlorfenviphose;MeSH ID: D002709",
    "duplicated_cas_no": "8018-06-2;8067-67-2;39378-41-1",
    "SMILES": "P(OC(=CCl)C1=C(Cl)C=C(Cl)C=C1)(OCC)(OCC)=O",
    "meta_data": {
        "InChI": "InChI=1S/C12H14Cl3O4P/c1-3-17-20(16,18-4-2)19-12(8-13)10-6-5-9(14)7-11(10)15/h5-8H,3-4H2,1-2H3",
        "InChIKey": null,
        "Canonical SMILES": "O=P(OC(=CCl)C1=CC=C(Cl)C=C1Cl)(OCC)OCC",
        "Molecular Formula": "C<sub>12</sub>H<sub>14</sub>Cl<sub>3</sub>O<sub>4</sub>P",
        "Molecular Mass": "359.57",
        "Boiling Point": "167-170 °C",
        "Melting Point": "-23--19 °C",
        "Density": "1.36 g/cm³ @ Temp: 20 °C"
    }
}