{
    "cas_no": "398-23-2",
    "key_name": "4,4′-Difluoro-1,1′-biphenyl",
    "cn_name": "4,4\"-二氟联苯;",
    "alternate_name": "1,1′-Biphenyl, 4,4′-difluoro-;Biphenyl, 4,4′-difluoro-;4,4′-Difluoro-1,1′-biphenyl;4,4′-Difluorodiphenyl;4,4′-Difluorobiphenyl;<em>p</em>,<em>p</em>′-Difluorobiphenyl;NSC 4173;1-Fluoro-4-(4-fluorophenyl)benzene",
    "duplicated_cas_no": "",
    "SMILES": "FC1=CC=C(C=C1)C2=CC=C(F)C=C2",
    "meta_data": {
        "InChI": "InChI=1S/C12H8F2/c13-11-5-1-9(2-6-11)10-3-7-12(14)8-4-10/h1-8H",
        "InChIKey": null,
        "Canonical SMILES": "FC=1C=CC(=CC1)C2=CC=C(F)C=C2",
        "Molecular Formula": "C<sub>12</sub>H<sub>8</sub>F<sub>2</sub>",
        "Molecular Mass": "190.19",
        "Boiling Point": "254.5 °C",
        "Melting Point": "94.5 °C",
        "Density": "1.328 g/cm³ @ Temp: 25 °C"
    }
}