{
    "cas_no": "31230-17-8",
    "key_name": "3-Amino-5-methylpyrazole",
    "cn_name": "3-氨基-5-甲基吡唑;5-甲基-3-氨基吡唑;3-甲基-1H-吡唑-5-胺;",
    "alternate_name": "1<em>H</em>-Pyrazol-3-amine, 5-methyl-;Pyrazole, 3-amino-5-methyl-;Pyrazole, 3(<em>or</em> 5)-amino-5(<em>or</em> 3)-methyl-;5-Methyl-1<em>H</em>-pyrazol-3-amine;3-Amino-5-methylpyrazole;3-Methyl-5-aminopyrazole;5-Amino-3-methylpyrazole;3-Methyl-5-pyrazolamine;5-Amino-3-methyl-1<em>H</em>-pyrazole;3-Amino-5-methyl-1<em>H</em>-pyrazole;5-Methylpyrazol-3-ylamine;5-Methyl-1<em>H</em>-pyrazol-3-ylamine;5-Methyl-3-aminopyrazole;5-Methyl-2<em>H</em>-pyrazol-3-ylamine;5-Methylpyrazol-3-amine;5-Methyl-3-amino-1<em>H</em>-pyrazole",
    "duplicated_cas_no": "103060-66-8;109929-36-4;110580-32-0;116313-67-8;118188-85-5;127201-91-6;130314-08-8;131610-33-8;133284-55-6;137267-18-6;142351-86-8;30036-75-0;71349-04-7;73616-31-6;77696-52-7;148291-52-5;159873-54-8;161321-86-4;174469-64-8;182359-89-3;186956-14-9;187867-92-1;192317-76-3;194345-55-6;198349-44-9;202746-47-2;223391-35-3",
    "SMILES": "CC1=CC(N)=NN1",
    "meta_data": {
        "InChI": "InChI=1S/C4H7N3/c1-3-2-4(5)7-6-3/h2H,1H3,(H3,5,6,7)",
        "InChIKey": null,
        "Canonical SMILES": "N=1NC(=CC1N)C",
        "Molecular Formula": "C<sub>4</sub>H<sub>7</sub>N<sub>3</sub>",
        "Molecular Mass": "97.12",
        "Boiling Point": "213 °C @ Press: 14 Torr",
        "Melting Point": "94 °C"
    }
}