{
    "cas_no": "7149-42-0",
    "key_name": "(1-Methylpiperidin-4-yl)methanamine",
    "cn_name": "(1-甲基-4-哌啶)甲胺; (1-甲基哌啶-4-基)甲胺; 4-氨甲基-1-甲基哌啶;",
    "alternate_name": "4-Piperidinemethanamine, 1-methyl-;Piperidine, 4-(aminomethyl)-1-methyl-;1-Methyl-4-piperidinemethanamine;4-Aminomethyl-1-methylpiperidine;NSC 72092;1-Methyl-4-(aminomethyl)piperidine;1-(1-Methylpiperidin-4-yl)methanamine;(1-Methylpiperidin-4-yl)methanamine;[(1-Methylpiperidin-4-yl)methyl]amine;(1-Methyl-4-piperidyl)methanamine;(1-Methylpiperidin-4-yl)methaneamine",
    "duplicated_cas_no": "2260902-99-4",
    "SMILES": "C(N)C1CCN(C)CC1",
    "meta_data": {
        "InChI": "InChI=1S/C7H16N2/c1-9-4-2-7(6-8)3-5-9/h7H,2-6,8H2,1H3",
        "InChIKey": null,
        "Canonical SMILES": "NCC1CCN(C)CC1",
        "Molecular Formula": "C<sub>7</sub>H<sub>16</sub>N<sub>2</sub>",
        "Molecular Mass": "128.22",
        "Boiling Point": "80-81 °C @ Press: 20 Torr"
    }
}