{
    "cas_no": "25429-29-2",
    "key_name": "Pentachlorobiphenyl",
    "cn_name": null,
    "alternate_name": "1,1′-Biphenyl, pentachloro-;Biphenyl, pentachloro-;Pentachloro-1,1′-biphenyl;Pentachlorodiphenyl;Pentachlorobiphenyl;Pyralene 1476;Kanekrol 500;Diphenyl pentachloride;Apirolio 1476C;Pyroclor 5;DP 5",
    "duplicated_cas_no": "27417-48-7;64427-28-7",
    "SMILES": "",
    "meta_data": {
        "InChI": "",
        "InChIKey": null,
        "Canonical SMILES": "",
        "Molecular Formula": "C<sub>12</sub>H<sub>5</sub>Cl<sub>5</sub>",
        "Molecular Mass": "",
        "Boiling Point": "168-175 °C @ Press: 1 Torr"
    }
}