{
    "cas_no": "6330-25-2",
    "key_name": "<em>N</em>-Methylcyanoacetamide",
    "cn_name": "2-氰基-N-甲基乙酰胺;",
    "alternate_name": "Acetamide, 2-cyano-<em>N</em>-methyl-;2-Cyano-<em>N</em>-methylacetamide;Cyanoacetic acid methylamide;<em>N</em>-Methylcyanoacetamide;<em>N</em>-Methyl-2-cyanoacetamide;Cyanoacetic acid monomethylamide;NSC 47005",
    "duplicated_cas_no": "",
    "SMILES": "C(CC#N)(NC)=O",
    "meta_data": {
        "InChI": "InChI=1S/C4H6N2O/c1-6-4(7)2-3-5/h2H2,1H3,(H,6,7)",
        "InChIKey": null,
        "Canonical SMILES": "N#CCC(=O)NC",
        "Molecular Formula": "C<sub>4</sub>H<sub>6</sub>N<sub>2</sub>O",
        "Molecular Mass": "98.10",
        "Melting Point": "98-100 °C"
    }
}