{
    "cas_no": "53267-01-9",
    "key_name": "Cibenzoline",
    "cn_name": "西苯唑啉;2-(2,2-二苯基环丙基)-4,5-二氢-1H-咪唑;",
    "alternate_name": "1<em>H</em>-Imidazole, 2-(2,2-diphenylcyclopropyl)-4,5-dihydro-;2-(2,2-Diphenylcyclopropyl)-4,5-dihydro-1<em>H</em>-imidazole;Cibenzoline;Cifenline;(<em>RS</em>)-Cibenzoline;(±)-Cibenzoline;UP 33-901;Ro 22-7796",
    "duplicated_cas_no": "125876-54-2",
    "SMILES": "C1(C(C1)C=2NCCN2)(C3=CC=CC=C3)C4=CC=CC=C4",
    "meta_data": {
        "InChI": "InChI=1S/C18H18N2/c1-3-7-14(8-4-1)18(15-9-5-2-6-10-15)13-16(18)17-19-11-12-20-17/h1-10,16H,11-13H2,(H,19,20)",
        "InChIKey": null,
        "Canonical SMILES": "N1=C(NCC1)C2CC2(C=3C=CC=CC3)C=4C=CC=CC4",
        "Molecular Formula": "C<sub>18</sub>H<sub>18</sub>N<sub>2</sub>",
        "Molecular Mass": "262.35",
        "Melting Point": "103.5 °C"
    }
}