{
    "cas_no": "67914-86-7",
    "key_name": "1,3-Dioxolane-4-methanol, 2-(2,4-dichlorophenyl)-2-(1<em>H</em>-1,2,4-triazol-1-ylmethyl)-, 4-methanesulfonate, (2<em>R</em>,4<em>R</em>)-<em>rel</em>-",
    "cn_name": "cis-甲磺酸-[2-(2,4-二氯苯基)-2-(1H-1,2,4-三唑-1-基甲基)-1,3-二氧戊环-4-基]甲酯;",
    "alternate_name": "1,3-Dioxolane-4-methanol, 2-(2,4-dichlorophenyl)-2-(1<em>H</em>-1,2,4-triazol-1-ylmethyl)-, 4-methanesulfonate, (2<em>R</em>,4<em>R</em>)-<em>rel</em>-;1,3-Dioxolane-4-methanol, 2-(2,4-dichlorophenyl)-2-(1<em>H</em>-1,2,4-triazol-1-ylmethyl)-, methanesulfonate (ester), <em>cis</em>-;1,3-Dioxolane-4-methanol, 2-(2,4-dichlorophenyl)-2-(1<em>H</em>-1,2,4-triazol-1-ylmethyl)-, methanesulfonate (ester), (2<em>R</em>,4<em>R</em>)-<em>rel</em>-",
    "duplicated_cas_no": "68377-24-2;79538-83-3",
    "SMILES": "C([C@]1(O[C@@H](COS(C)(=O)=O)CO1)C2=C(Cl)C=C(Cl)C=C2)N3C=NC=N3",
    "meta_data": {
        "InChI": "InChI=1/C14H15Cl2N3O5S/c1-25(20,21)23-6-11-5-22-14(24-11,7-19-9-17-8-18-19)12-3-2-10(15)4-13(12)16/h2-4,8-9,11H,5-7H2,1H3/t11-,14+/s2",
        "InChIKey": null,
        "Canonical SMILES": "O=S(=O)(OCC1OC(OC1)(C2=CC=C(Cl)C=C2Cl)CN3N=CN=C3)C",
        "Molecular Formula": "C<sub>14</sub>H<sub>15</sub>Cl<sub>2</sub>N<sub>3</sub>O<sub>5</sub>S",
        "Molecular Mass": "408.26",
        "Melting Point": "98 °C"
    }
}