{
    "cas_no": "504-53-0",
    "key_name": "18-Pentatriacontanone",
    "cn_name": "18-三十五烷基酮;18-三十五烷酮;硬脂酮;18-三十五烷基酮;18-三十五酮;",
    "alternate_name": "18-Pentatriacontanone;Stearone;Di-<em>n</em>-heptadecyl ketone;Heptadecyl ketone;Diheptadecyl ketone;EP 2036-18;Wax KS;NSC 83612",
    "duplicated_cas_no": "",
    "SMILES": "C(C(CCCCCCCCCCCCCCCCC)=O)CCCCCCCCCCCCCCCC",
    "meta_data": {
        "InChI": "InChI=1S/C35H70O/c1-3-5-7-9-11-13-15-17-19-21-23-25-27-29-31-33-35(36)34-32-30-28-26-24-22-20-18-16-14-12-10-8-6-4-2/h3-34H2,1-2H3",
        "InChIKey": null,
        "Canonical SMILES": "O=C(CCCCCCCCCCCCCCCCC)CCCCCCCCCCCCCCCCC",
        "Molecular Formula": "C<sub>35</sub>H<sub>70</sub>O",
        "Molecular Mass": "506.93",
        "Melting Point": "89 °C"
    }
}