{
    "cas_no": "13101-54-7",
    "key_name": "Erlose",
    "cn_name": null,
    "alternate_name": "α-<span class=\"text-smallcaps\">D</smallcap>-Glucopyranoside, β-<smallcap>D</smallcap>-fructofuranosyl <em>O</em>-α-<smallcap>D</span>-glucopyranosyl-(1→4)-;Glucopyranoside, β-<span class=\"text-smallcaps\">D</smallcap>-fructofuranosyl 4-<em>O</em>-α-<smallcap>D</smallcap>-glucopyranosyl-, α-<smallcap>D</span>-;Fructofuranoside, <em>O</em>-α-<span class=\"text-smallcaps\">D</smallcap>-glucopyranosyl-(1→4)-α-<smallcap>D</smallcap>-glucopyranosyl, β-<smallcap>D</span>-;Fructofuranoside, α-maltosyl, β-<span class=\"text-smallcaps\">D</span>-;β-<span class=\"text-smallcaps\">D</smallcap>-Fructofuranosyl <em>O</em>-α-<smallcap>D</smallcap>-glucopyranosyl-(1→4)-α-<smallcap>D</span>-glucopyranoside;Fructomaltose;Erlose",
    "duplicated_cas_no": "894412-27-2",
    "SMILES": "O([C@]1(CO)O[C@H](CO)[C@@H](O)[C@@H]1O)[C@H]2O[C@H](CO)[C@@H](O[C@H]3O[C@H](CO)[C@@H](O)[C@H](O)[C@H]3O)[C@H](O)[C@H]2O",
    "meta_data": {
        "InChI": "InChI=1S/C18H32O16/c19-1-5-8(23)10(25)12(27)16(30-5)32-14-7(3-21)31-17(13(28)11(14)26)34-18(4-22)15(29)9(24)6(2-20)33-18/h5-17,19-29H,1-4H2/t5-,6-,7-,8-,9-,10+,11-,12-,13-,14-,15+,16-,17-,18+/m1/s1",
        "InChIKey": null,
        "Canonical SMILES": "OCC1OC(OC2C(O)C(O)C(OC2CO)OC3(OC(CO)C(O)C3O)CO)C(O)C(O)C1O",
        "Molecular Formula": "C<sub>18</sub>H<sub>32</sub>O<sub>16</sub>",
        "Molecular Mass": "504.44",
        "Melting Point": "105 °C"
    }
}