{
    "cas_no": "127-91-3",
    "key_name": "β-Pinene",
    "cn_name": "β-蒎烯;beta-蒎烯;6,6-二甲基-2-亚甲基双环[3.1.1]庚烷;",
    "alternate_name": "Bicyclo[3.1.1]heptane, 6,6-dimethyl-2-methylene-;2(10)-Pinene;6,6-Dimethyl-2-methylenebicyclo[3.1.1]heptane;Nopinene;Terebenthene;β-Pinene;Pseudopinen;Pseudopinene;Nopinen;PC 600;(±)-2(10)-Pinene;(±)-β-Pinene;(±)-6,6-Dimethyl-2-methylenebicyclo[3.1.1]heptane;PC 600 (pesticide);NSC 21447;NSC 406265;NSC 59190;beta-Pinene",
    "duplicated_cas_no": "23089-32-9",
    "SMILES": "CC1(C)C2CC1CCC2=C",
    "meta_data": {
        "InChI": "InChI=1S/C10H16/c1-7-4-5-8-6-9(7)10(8,2)3/h8-9H,1,4-6H2,2-3H3",
        "InChIKey": null,
        "Canonical SMILES": "C=C1CCC2CC1C2(C)C",
        "Molecular Formula": "C<sub>10</sub>H<sub>16</sub>",
        "Molecular Mass": "136.23",
        "Boiling Point": "166 °C",
        "Melting Point": "-61.5 °C",
        "Density": "0.860 g/cm³ @ Temp: 25 °C"
    }
}