{
    "cas_no": "1530-34-3",
    "key_name": "Phosphonium, (3-methyl-2-buten-1-yl)triphenyl-, bromide (1:1)",
    "cn_name": null,
    "alternate_name": "Phosphonium, (3-methyl-2-buten-1-yl)triphenyl-, bromide (1:1);Phosphonium, (3-methyl-2-butenyl)triphenyl-, bromide;(3-Methylbut-2-enyl)triphenylphosphonium bromide;(3,3-Dimethylallyl)triphenylphosphonium bromide;NSC 219242;Triphenylprenylphosphonium bromide",
    "duplicated_cas_no": "118499-23-3",
    "SMILES": "[P+](CC=C(C)C)(C1=CC=CC=C1)(C2=CC=CC=C2)C3=CC=CC=C3.[Br-]",
    "meta_data": {
        "InChI": "InChI=1S/C23H24P.BrH/c1-20(2)18-19-24(21-12-6-3-7-13-21,22-14-8-4-9-15-22)23-16-10-5-11-17-23;/h3-18H,19H2,1-2H3;1H/q+1;/p-1",
        "InChIKey": null,
        "Canonical SMILES": "[Br-].C=1C=CC(=CC1)[P+](C=2C=CC=CC2)(C=3C=CC=CC3)CC=C(C)C",
        "Molecular Formula": "C<sub>23</sub>H<sub>24</sub>P.Br",
        "Molecular Mass": "",
        "Melting Point": "242 °C"
    }
}