{
    "cas_no": "120-32-1",
    "key_name": "Chlorophene",
    "cn_name": "4-氯-2-苄基苯酚;",
    "alternate_name": "Phenol, 4-chloro-2-(phenylmethyl)-;<em>o</em>-Cresol, 4-chloro-α-phenyl-;4-Chloro-2-(phenylmethyl)phenol;2-Benzyl-4-chlorophenol;5-Chloro-2-hydroxydiphenylmethane;4-Chloro-α-phenyl-<em>o</em>-cresol;Clorofene;Clorophene;Santophen 1;Santophen;Ketolin H;Neosabenyl;<em>o</em>-Benzyl-<em>p</em>-chlorophenol;4-Chloro-2-benzylphenol;Chlorophene;Bio-Clave;Septiphene;<em>p</em>-Chloro-<em>o</em>-benzylphenol;2-Hydroxy-5-chlorodiphenylmethane;Preventol BP;Nipacide BCP;NSC 59989;Nipacide BCP 50;Septol",
    "duplicated_cas_no": "8013-49-8;144246-47-9",
    "SMILES": "C(C1=C(O)C=CC(Cl)=C1)C2=CC=CC=C2",
    "meta_data": {
        "InChI": "InChI=1S/C13H11ClO/c14-12-6-7-13(15)11(9-12)8-10-4-2-1-3-5-10/h1-7,9,15H,8H2",
        "InChIKey": null,
        "Canonical SMILES": "ClC1=CC=C(O)C(=C1)CC=2C=CC=CC2",
        "Molecular Formula": "C<sub>13</sub>H<sub>11</sub>ClO",
        "Molecular Mass": "218.68",
        "Boiling Point": "160-162 °C @ Press: 3.5 Torr",
        "Melting Point": "48.5 °C"
    }
}