{
    "cas_no": "2862-39-7",
    "key_name": "(2-Bromoethyl)dimethylamine hydrobromide",
    "cn_name": null,
    "alternate_name": "Ethanamine, 2-bromo-<em>N</em>,<em>N</em>-dimethyl-, hydrobromide (1:1);Ethylamine, 2-bromo-<em>N</em>,<em>N</em>-dimethyl-, hydrobromide;Ethanamine, 2-bromo-<em>N</em>,<em>N</em>-dimethyl-, hydrobromide;2-Dimethylamino-1-bromoethane hydrobromide;β-Dimethylaminoethyl bromide hydrobromide;(2-Bromoethyl)dimethylamine hydrobromide;2-(Dimethylamino)ethyl bromide hydrobromide;2-(<em>N</em>,<em>N</em>-Dimethylamino)ethyl bromide hydrobromide;<em>N</em>-(2-Bromoethyl)dimethylamine hydrobromide;2-Bromo-<em>N</em>,<em>N</em>-dimethylethan-1-amine hydrobromide;2-Bromo-<em>N</em>,<em>N</em>-dimethylethanamine hydrobromide;2-bromo-N,N-dimethylethan-1-amine hydrobromide (1:1)",
    "duplicated_cas_no": "",
    "SMILES": "C(N(C)C)CBr.Br",
    "meta_data": {
        "InChI": "InChI=1S/C4H10BrN.BrH/c1-6(2)4-3-5;/h3-4H2,1-2H3;1H",
        "InChIKey": null,
        "Canonical SMILES": "Br.BrCCN(C)C",
        "Molecular Formula": "C<sub>4</sub>H<sub>10</sub>BrN.BrH",
        "Molecular Mass": "",
        "Melting Point": "188.5-188.9 °C"
    }
}