{
    "cas_no": "4295-55-0",
    "key_name": "2-[(2,3-Dichlorophenyl)amino]benzoic acid",
    "cn_name": "氯灭酸;",
    "alternate_name": "Benzoic acid, 2-[(2,3-dichlorophenyl)amino]-;Anthranilic acid, <em>N</em>-(2,3-dichlorophenyl)-;2-[(2,3-Dichlorophenyl)amino]benzoic acid;Clofenamic acid;<em>N</em>-(2,3-Dichlorophenyl)anthranilic acid;2-(2,3-Dichloroanilino)benzoic acid",
    "duplicated_cas_no": "",
    "SMILES": "N(C1=C(C(O)=O)C=CC=C1)C2=C(Cl)C(Cl)=CC=C2",
    "meta_data": {
        "InChI": "InChI=1S/C13H9Cl2NO2/c14-9-5-3-7-11(12(9)15)16-10-6-2-1-4-8(10)13(17)18/h1-7,16H,(H,17,18)",
        "InChIKey": null,
        "Canonical SMILES": "O=C(O)C=1C=CC=CC1NC=2C=CC=C(Cl)C2Cl",
        "Molecular Formula": "C<sub>13</sub>H<sub>9</sub>Cl<sub>2</sub>NO<sub>2</sub>",
        "Molecular Mass": "282.12",
        "Melting Point": "256-257 °C"
    }
}