{
    "cas_no": "127510-96-7",
    "key_name": "Benzoic acid, 2-cyano-4-fluoro-, methyl ester",
    "cn_name": null,
    "alternate_name": "Benzoic acid, 2-cyano-4-fluoro-, methyl ester;Methyl 2-cyano-4-fluorobenzoate",
    "duplicated_cas_no": "",
    "SMILES": "C(OC)(=O)C1=C(C#N)C=C(F)C=C1",
    "meta_data": {
        "InChI": "InChI=1S/C9H6FNO2/c1-13-9(12)8-3-2-7(10)4-6(8)5-11/h2-4H,1H3",
        "InChIKey": null,
        "Canonical SMILES": "N#CC1=CC(F)=CC=C1C(=O)OC",
        "Molecular Formula": "C<sub>9</sub>H<sub>6</sub>FNO<sub>2</sub>",
        "Molecular Mass": "179.15",
        "Melting Point": "104-106 °C"
    }
}