{
    "cas_no": "59690-88-9",
    "key_name": "Urea, <em>N</em>-(3-aminophenyl)-, hydrochloride (1:1)",
    "cn_name": "间氨基苯脲盐酸盐;间脲酰苯胺盐酸盐;",
    "alternate_name": "Urea, <em>N</em>-(3-aminophenyl)-, hydrochloride (1:1);Urea, (3-aminophenyl)-, monohydrochloride;1-(3-Aminophenyl)urea hydrochloride;(3-Aminophenyl)-urea monohydrochloride;(3-Aminophenyl)-urea hydrochloride",
    "duplicated_cas_no": "",
    "SMILES": "N(C(N)=O)C1=CC(N)=CC=C1.Cl",
    "meta_data": {
        "InChI": "InChI=1S/C7H9N3O.ClH/c8-5-2-1-3-6(4-5)10-7(9)11;/h1-4H,8H2,(H3,9,10,11);1H",
        "InChIKey": null,
        "Canonical SMILES": "Cl.O=C(N)NC=1C=CC=C(N)C1",
        "Molecular Formula": "C<sub>7</sub>H<sub>9</sub>N<sub>3</sub>O.ClH",
        "Molecular Mass": "",
        "Melting Point": "&gt;275 °C"
    }
}