{
    "cas_no": "928-65-4",
    "key_name": "Hexyltrichlorosilane",
    "cn_name": "n-己基三氯甲硅烷;三氯(己基)硅烷;",
    "alternate_name": "Silane, trichlorohexyl-;Trichlorohexylsilane;Hexyltrichlorosilane;<em>n</em>-Hexyltrichlorosilane;NSC 139843;1,1,1-Trichloro-1-silaheptane;1-Hexyltrichlorosilane",
    "duplicated_cas_no": "",
    "SMILES": "C(C[Si](Cl)(Cl)Cl)CCCC",
    "meta_data": {
        "InChI": "InChI=1S/C6H13Cl3Si/c1-2-3-4-5-6-10(7,8)9/h2-6H2,1H3",
        "InChIKey": null,
        "Canonical SMILES": "Cl[Si](Cl)(Cl)CCCCCC",
        "Molecular Formula": "C<sub>6</sub>H<sub>13</sub>Cl<sub>3</sub>Si",
        "Molecular Mass": "219.61",
        "Boiling Point": "190 °C",
        "Density": "1.1100 g/cm³ @ Temp: 20 °C"
    }
}