{
    "cas_no": "1535-73-5",
    "key_name": "3-(Trifluoromethoxy)aniline",
    "cn_name": "3-三氟甲氧基苯胺;间三氟甲氧基苯胺;",
    "alternate_name": "Benzenamine, 3-(trifluoromethoxy)-;<em>m</em>-Anisidine, α,α,α-trifluoro-;3-(Trifluoromethoxy)benzenamine;<em>m</em>-(Trifluoromethoxy)aniline;3-(Trifluoromethoxy)aniline;(3-(Trifluoromethoxy)phenyl)amine;3-[(Trifluoromethyl)oxy]aniline;1-Trifluoromethoxy-3-aminobenzene",
    "duplicated_cas_no": "",
    "SMILES": "O(C(F)(F)F)C1=CC(N)=CC=C1",
    "meta_data": {
        "InChI": "InChI=1S/C7H6F3NO/c8-7(9,10)12-6-3-1-2-5(11)4-6/h1-4H,11H2",
        "InChIKey": null,
        "Canonical SMILES": "FC(F)(F)OC1=CC=CC(N)=C1",
        "Molecular Formula": "C<sub>7</sub>H<sub>6</sub>F<sub>3</sub>NO",
        "Molecular Mass": "177.12",
        "Boiling Point": "72-73 °C @ Press: 8 Torr",
        "Density": "1.3254 g/cm³ @ Temp: 20 °C"
    }
}