{
    "cas_no": "3970-35-2",
    "key_name": "2-Chloro-3-nitrobenzoic acid",
    "cn_name": "2-氯-3-硝基苯甲酸;",
    "alternate_name": "Benzoic acid, 2-chloro-3-nitro-;2-Chloro-3-nitrobenzoic acid;2-Chloro-3-carboxynitrobenzene;NSC 92742",
    "duplicated_cas_no": "",
    "SMILES": "C(O)(=O)C1=C(Cl)C(N(=O)=O)=CC=C1",
    "meta_data": {
        "InChI": "InChI=1S/C7H4ClNO4/c8-6-4(7(10)11)2-1-3-5(6)9(12)13/h1-3H,(H,10,11)",
        "InChIKey": null,
        "Canonical SMILES": "O=C(O)C1=CC=CC(=C1Cl)N(=O)=O",
        "Molecular Formula": "C<sub>7</sub>H<sub>4</sub>ClNO<sub>4</sub>",
        "Molecular Mass": "201.56",
        "Melting Point": "183.5 °C"
    }
}