{
    "cas_no": "5381-24-8",
    "key_name": "Benzo[<em>b</em>]thiophene-3-methanol",
    "cn_name": "3-羟甲基苯并噻吩;",
    "alternate_name": "Benzo[<em>b</em>]thiophene-3-methanol;3-(Hydroxymethyl)benzothiophene;[Benzo[<em>b</em>]thien-3-yl]methanol;3-Benzothiophenemethanol;1-Benzothiophen-3-ylmethanol;(1-Benzothiophen-3-yl)methanol",
    "duplicated_cas_no": "",
    "SMILES": "C(O)C=1C=2C(SC1)=CC=CC2",
    "meta_data": {
        "InChI": "InChI=1S/C9H8OS/c10-5-7-6-11-9-4-2-1-3-8(7)9/h1-4,6,10H,5H2",
        "InChIKey": null,
        "Canonical SMILES": "OCC1=CSC=2C=CC=CC21",
        "Molecular Formula": "C<sub>9</sub>H<sub>8</sub>OS",
        "Molecular Mass": "164.22",
        "Boiling Point": "124-125 °C @ Press: 1.5 Torr"
    }
}