{
    "cas_no": "3316-09-4",
    "key_name": "4-Nitrocatechol",
    "cn_name": "1,2-二羟基-4-硝基苯;4-硝基邻苯二酚;4-硝基儿茶酚;",
    "alternate_name": "1,2-Benzenediol, 4-nitro-;Pyrocatechol, 4-nitro-;4-Nitro-1,2-benzenediol;4-Nitropyrocatechol;4-Nitrocatechol;4-Nitro-1,2-dihydroxybenzene;1,2-Dihydroxy-4-nitrobenzene;3,4-Dihydroxynitrobenzene;<em>p</em>-Nitrocatechol;4-Nitrobenzcatechin;NSC 80651;3,4-Dihydroxy-1-nitrobenzene",
    "duplicated_cas_no": "959316-69-9",
    "SMILES": "N(=O)(=O)C1=CC(O)=C(O)C=C1",
    "meta_data": {
        "InChI": "InChI=1S/C6H5NO4/c8-5-2-1-4(7(10)11)3-6(5)9/h1-3,8-9H",
        "InChIKey": null,
        "Canonical SMILES": "O=N(=O)C1=CC=C(O)C(O)=C1",
        "Molecular Formula": "C<sub>6</sub>H<sub>5</sub>NO<sub>4</sub>",
        "Molecular Mass": "155.11",
        "Melting Point": "174-176 °C"
    }
}