{
    "cas_no": "52645-53-1",
    "key_name": "Permethrin",
    "cn_name": "氯菊酯;二氯苯醚菊酯;3-苯氧基苄基(RS)-3-(2,2-二氯乙烯基)-2,2-二甲基环丙烷羧酸酯;",
    "alternate_name": "Cyclopropanecarboxylic acid, 3-(2,2-dichloroethenyl)-2,2-dimethyl-, (3-phenoxyphenyl)methyl ester;NRDC 143;NIA 33297;<em>m</em>-Methoxybenzyl 3-(2,2-dichlorovinyl)-2,2-dimethylcyclopropanecarboxylate;FMC 33297;Permethrin;SBP 1513;3-Phenoxybenzyl 2,2-dimethyl-3-(2,2-dichlorovinyl)cyclopropanecarboxylate;<em>m</em>-Phenoxybenzyl 3-(2,2-dichlorovinyl)-2,2-dimethylcyclopropanecarboxylate;S 3151;Exmin;WL 43479;ICI-PP 557;FMC 41655;Ectiban;Ambush;PP 557;Kestrel (pesticide);Kestrel;Pounce;SBP 15131TEC;Coopex;Perigen W;Chinetrin;Permasect;3-Phenoxybenzyl 3-(2,2-dichlorovinyl)-2,2-dimethylcyclopropanecarboxylate;Perigen;MP 79;Ecsumin;Antiborer 3768;Ipitox;Efmethrin;Corsair;Diffusil H;Stomoxin;Anomethrin N;Kavil;Spartan;Stomozan;Mitin BC;Permanone;Damminix;JF 7065;Imperator;Dragon;Cooper;Kaleait;Kudos;Dragnet;Dragnet FT;Insorbcid MP;Riapan A;Spartan (pesticide);Adion;Permanone 80;Pertrin E;Bematin 987;(3-Phenoxyphenyl)methyl 2,2-dimethyl-3-(2,2-dichlorovinyl)cyclopropanecarboxylate;Lyclear;Sharkesuper;Permethrine;Acticin;Elimite;Piredam;MP 79 (ester);Eulan SPA;Pulvex;Ridect Pour-On;Pynosect;Nix;BioKill;Smite EC 10;Last Call;Permectin II;Permitrine;Aninsen Per-30;Repel Permanone;Butox 50;Nix (insecticide);Eliminator Ant, Flea &amp; Tick Killer;Permanone 90;Skintex MR-III;Dancide PS 150;Dichlorophenothrin;Astro;Bansect;Insectal Plus;InfectoPedicul;Everwood PC 30W;Nedax;Permanone 40;Timbertreat ICP 5;Aqua-Kontrol;Preventol HS 75;Perm-UP;Tanalith T;Perigen Defense;Perigen 500;Permethrin I;Permethrin II;Top Spot on Stronger;Torpedo;AM 23-24;Sanitized AM 23-24;MeSH ID: D026023",
    "duplicated_cas_no": "57608-04-5;60018-94-2;63364-00-1;75497-64-2;93388-66-0;1422185-05-4;2048189-28-0;2048189-55-3",
    "SMILES": "C(=C(Cl)Cl)C1C(C(OCC2=CC(OC3=CC=CC=C3)=CC=C2)=O)C1(C)C",
    "meta_data": {
        "InChI": "InChI=1S/C21H20Cl2O3/c1-21(2)17(12-18(22)23)19(21)20(24)25-13-14-7-6-10-16(11-14)26-15-8-4-3-5-9-15/h3-12,17,19H,13H2,1-2H3",
        "InChIKey": null,
        "Canonical SMILES": "O=C(OCC=1C=CC=C(OC=2C=CC=CC2)C1)C3C(C=C(Cl)Cl)C3(C)C",
        "Molecular Formula": "C<sub>21</sub>H<sub>20</sub>Cl<sub>2</sub>O<sub>3</sub>",
        "Molecular Mass": "391.29",
        "Boiling Point": "&gt;290 °C @ Press: 760 Torr",
        "Melting Point": "34-35 °C",
        "Density": "1.19-1.27 g/cm³ @ Temp: 20 °C"
    }
}