{
    "cas_no": "4762-26-9",
    "key_name": "Phosphonium, hexyltriphenyl-, bromide (1:1)",
    "cn_name": "(1-己基)三苯基溴化磷;(1-己基)三苯基溴化磷;",
    "alternate_name": "Phosphonium, hexyltriphenyl-, bromide (1:1);Phosphonium, hexyltriphenyl-, bromide;Hexyltriphenylphosphonium bromide;<em>n</em>-Hexyltriphenylphosphonium bromide;1-Hexyltriphenylphosphonium bromide;NSC 151420;TP 6",
    "duplicated_cas_no": "39521-32-9;1965266-56-1",
    "SMILES": "[P+](CCCCCC)(C1=CC=CC=C1)(C2=CC=CC=C2)C3=CC=CC=C3.[Br-]",
    "meta_data": {
        "InChI": "InChI=1S/C24H28P.BrH/c1-2-3-4-14-21-25(22-15-8-5-9-16-22,23-17-10-6-11-18-23)24-19-12-7-13-20-24;/h5-13,15-20H,2-4,14,21H2,1H3;1H/q+1;/p-1",
        "InChIKey": null,
        "Canonical SMILES": "[Br-].C=1C=CC(=CC1)[P+](C=2C=CC=CC2)(C=3C=CC=CC3)CCCCCC",
        "Molecular Formula": "C<sub>24</sub>H<sub>28</sub>P.Br",
        "Molecular Mass": "",
        "Melting Point": "195-198 °C"
    }
}