{
    "cas_no": "2378-95-2",
    "key_name": "1,5-Diethyl <em>N</em>-[4-(methylamino)benzoyl]-<span class=\"text-smallcaps\">L</span>-glutamate",
    "cn_name": "对甲胺基苯甲酰谷氨酸二乙酯;",
    "alternate_name": "<span class=\"text-smallcaps\">L</span>-Glutamic acid, <em>N</em>-[4-(methylamino)benzoyl]-, 1,5-diethyl ester;Glutamic acid, <em>N</em>-[<em>p</em>-(methylamino)benzoyl]-, diethyl ester, <span class=\"text-smallcaps\">L</span>-;<span class=\"text-smallcaps\">L</span>-Glutamic acid, <em>N</em>-[4-(methylamino)benzoyl]-, diethyl ester;Glutamic acid, <em>N</em>-[<em>p</em>-(methylamino)benzoyl]-, diethyl ester;1,5-Diethyl <em>N</em>-[4-(methylamino)benzoyl]-<span class=\"text-smallcaps\">L</span>-glutamate;<em>N</em>-(<em>p</em>-Methylaminobenzoyl)glutamic acid diethyl ester;Diethyl <em>N</em>-(<em>p</em>-<em>N</em>-methylaminobenzoyl)glutamate;Diethyl <em>N</em>-[4-(methylamino)benzoyl]-<span class=\"text-smallcaps\">L</span>-glutamate;(<em>S</em>)-Diethyl 2-(4-(methylamino)benzamido)pentanedioate",
    "duplicated_cas_no": "",
    "SMILES": "[C@H](NC(=O)C1=CC=C(NC)C=C1)(CCC(OCC)=O)C(OCC)=O",
    "meta_data": {
        "InChI": "InChI=1S/C17H24N2O5/c1-4-23-15(20)11-10-14(17(22)24-5-2)19-16(21)12-6-8-13(18-3)9-7-12/h6-9,14,18H,4-5,10-11H2,1-3H3,(H,19,21)/t14-/m0/s1",
        "InChIKey": null,
        "Canonical SMILES": "O=C(OCC)CCC(NC(=O)C1=CC=C(C=C1)NC)C(=O)OCC",
        "Molecular Formula": "C<sub>17</sub>H<sub>24</sub>N<sub>2</sub>O<sub>5</sub>",
        "Molecular Mass": "336.38",
        "Melting Point": "88-89 °C"
    }
}