{
    "cas_no": "25189-55-3",
    "key_name": "Poly(<em>N</em>-isopropylacrylamide)",
    "cn_name": null,
    "alternate_name": "2-Propenamide, <em>N</em>-(1-methylethyl)-, homopolymer;Acrylamide, <em>N</em>-isopropyl-, polymers;Acrylamide, <em>N</em>-isopropyl-, homopolymer;Poly(<em>N</em>-isopropylacrylamide);Poly(isopropylacrylamide);<em>N</em>-Isopropylacrylamide polymer;<em>N</em>-Isopropylacrylamide homopolymer;Thermogel 250;P 2991;P 604;P 1239;P 604 (acrylic resin);PolyNIPAAm;NIPAM homopolymer;PNIPAM;Isopropylacrylamide homopolymer",
    "duplicated_cas_no": "192708-92-2;199926-52-8;224453-15-0;1048697-88-6;1083059-37-3;1299467-49-4;1307226-00-1;1346810-17-0;1374294-84-4;1374294-85-5;1422717-50-7;1454601-27-4;1622299-96-0;1675241-20-9;1997298-94-8;2083714-24-1;2235386-48-6",
    "SMILES": "C(NC(C)C)(C=C)=O",
    "meta_data": {
        "InChI": "InChI=1S/C6H11NO/c1-4-6(8)7-5(2)3/h4-5H,1H2,2-3H3,(H,7,8)",
        "InChIKey": null,
        "Canonical SMILES": "O=C(C=C)NC(C)C",
        "Molecular Formula": "(C<sub>6</sub>H<sub>11</sub>NO)<sub>x</sub>",
        "Molecular Mass": "",
        "Melting Point": "64 °C",
        "Density": "1.386 g/cm³"
    }
}