{
    "cas_no": "2304-98-5",
    "key_name": "<em>N</em><sup>5</sup>-[Imino(nitroamino)methyl]-<em>N</em><sup>2</sup>-[(phenylmethoxy)carbonyl]-<span class=\"text-smallcaps\">L</span>-ornithine",
    "cn_name": "Cbz-N\"-硝基-L-精氨酸; 苄氧羰基-N\"-硝基-L-精氨酸;",
    "alternate_name": "<span class=\"text-smallcaps\">L</span>-Ornithine, <em>N</em><sup>5</sup>-[imino(nitroamino)methyl]-<em>N</em><sup>2</sup>-[(phenylmethoxy)carbonyl]-;Ornithine, <em>N</em><sup>2</sup>-carboxy-<em>N</em><sup>5</sup>-(nitroamidino)-, <em>N</em><sup>2</sup>-benzyl ester, <span class=\"text-smallcaps\">L</span>-;<em>N</em><sup>5</sup>-[Imino(nitroamino)methyl]-<em>N</em><sup>2</sup>-[(phenylmethoxy)carbonyl]-<span class=\"text-smallcaps\">L</span>-ornithine;<em>N</em><sup>2</sup>-Carbobenzoxy-<em>N</em><sup>ω</sup>-nitro-<span class=\"text-smallcaps\">L</span>-arginine;<em>N</em><sup>α</sup>-(Benzyloxycarbonyl)-<em>N</em><sup>ω</sup>-nitroarginine;<em>N</em><sup>α</sup>-Benzyloxycarbonyl-<em>N</em><sup>ω</sup>-nitro-<span class=\"text-smallcaps\">L</span>-arginine;<em>N</em><sup>2</sup>-Benzyloxycarbonyl-<em>N</em><sup>G</sup>-nitroarginine;Benzyloxycarbonylnitro-<span class=\"text-smallcaps\">L</span>-arginine;<em>N</em><sup>2</sup>-Benzyloxycarbonyl-<em>N</em><sup>G</sup>-nitro-<span class=\"text-smallcaps\">L</span>-arginine;<em>N</em><sup>α</sup>-Benzyloxycarbonyl-<em>N</em><sup>G</sup>-nitroarginine",
    "duplicated_cas_no": "",
    "SMILES": "C(OC(N[C@@H](CCCNC(NN(=O)=O)=N)C(O)=O)=O)C1=CC=CC=C1",
    "meta_data": {
        "InChI": "InChI=1S/C14H19N5O6/c15-13(18-19(23)24)16-8-4-7-11(12(20)21)17-14(22)25-9-10-5-2-1-3-6-10/h1-3,5-6,11H,4,7-9H2,(H,17,22)(H,20,21)(H3,15,16,18)/t11-/m0/s1",
        "InChIKey": null,
        "Canonical SMILES": "O=C(OCC=1C=CC=CC1)NC(C(=O)O)CCCNC(=N)NN(=O)=O",
        "Molecular Formula": "C<sub>14</sub>H<sub>19</sub>N<sub>5</sub>O<sub>6</sub>",
        "Molecular Mass": "353.33",
        "Melting Point": "132-134 °C"
    }
}