{
    "cas_no": "18052-92-1",
    "key_name": "(Dimethylphenylsilyl)methyl 2-methyl-2-propenoate",
    "cn_name": null,
    "alternate_name": "2-Propenoic acid, 2-methyl-, (dimethylphenylsilyl)methyl ester;Methacrylic acid, (dimethylphenylsilyl)methyl ester;(Dimethylphenylsilyl)methyl 2-methyl-2-propenoate;(Methacryloxymethyl)phenyldimethylsilane;[Dimethyl(phenyl)silyl]methyl 2-methylprop-2-enoate",
    "duplicated_cas_no": "",
    "SMILES": "[Si](COC(C(C)=C)=O)(C)(C)C1=CC=CC=C1",
    "meta_data": {
        "InChI": "InChI=1S/C13H18O2Si/c1-11(2)13(14)15-10-16(3,4)12-8-6-5-7-9-12/h5-9H,1,10H2,2-4H3",
        "InChIKey": null,
        "Canonical SMILES": "O=C(OC[Si](C=1C=CC=CC1)(C)C)C(=C)C",
        "Molecular Formula": "C<sub>13</sub>H<sub>18</sub>O<sub>2</sub>Si",
        "Molecular Mass": "234.37",
        "Boiling Point": "106-107 °C @ Press: 1 Torr",
        "Density": "0.991 g/cm³ @ Temp: 25 °C"
    }
}