{
    "cas_no": "98-79-3",
    "key_name": "<span class=\"text-smallcaps\">L</span>-Pyroglutamic acid",
    "cn_name": "L-焦谷氨酸;(S)-(-)-2-吡咯烷酮-5-羧酸;5-羧基吡咯烷酮;",
    "alternate_name": "<span class=\"text-smallcaps\">L</span>-Proline, 5-oxo-;Proline, 5-oxo-, <span class=\"text-smallcaps\">L</span>-;5-Oxo-<span class=\"text-smallcaps\">L</span>-proline;<span class=\"text-smallcaps\">L</span>-5-Carboxy-2-pyrrolidinone;<span class=\"text-smallcaps\">L</span>-Pyroglutamic acid;<span class=\"text-smallcaps\">L</span>-Pyrrolidonecarboxylic acid;<span class=\"text-smallcaps\">L</span>-Pyrrolidinonecarboxylic acid;<span class=\"text-smallcaps\">L</span>-5-Oxoproline;(-)-Pyroglutamic acid;Glutimic acid;Glutiminic acid;(<em>S</em>)-(-)-γ-Butyrolactam-γ-carboxylic acid;2-Pyrrolidinone-5-carboxylic acid;Pyroglutamic acid;Oxoproline;Pyrrolidinonecarboxylic acid;5-Oxoproline;Pyrrolidonecarboxylic acid;Pyrrolidone-5-carboxylic acid;<span class=\"text-smallcaps\">L</span>-2-Pyrrolidone-5-carboxylic acid;5-Pyrrolidinone-2-carboxylic acid;<span class=\"text-smallcaps\">L</span>-5-Oxo-2-pyrrolidinecarboxylic acid;5-Carboxy-2-pyrrolidinone;<span class=\"text-smallcaps\">L</span>-Glutamic acid, γ-lactam;PCA;Ajidew A 100;2-<span class=\"text-smallcaps\">L</span>-Pyrrolidone-5-carboxylic acid;<span class=\"text-smallcaps\">L</span>-Glutimic acid;<span class=\"text-smallcaps\">L</span>-Glutiminic acid;(<em>S</em>)-Pyroglutamic acid;(<em>S</em>)-5-Oxo-2-pyrrolidinecarboxylic acid;Pidolic acid;(-)-2-Pyrrolidone-5-carboxylic acid;(5<em>S</em>)-2-Oxopyrrolidine-5-carboxylic acid;(<em>S</em>)-(-)-2-Pyrrolidone-5-carboxylic acid;(<em>S</em>)-2-Pyrrolidone-5-carboxylic acid;Pidolidone;2-Oxopyrrolidine-5(<em>S</em>)-carboxylic acid;Oxopyrrolidinecarboxylic acid;NSC 143034;(2<em>S</em>)-5-Oxopyrrolidine-2-carboxylic acid;PCA 50;(<em>S</em>)-5-Oxoproline;<span class=\"text-smallcaps\">L</span>-(-)-Pyroglutamic acid;(<em>S</em>)-5-Oxo-1<em>H</em>-pyrrolidine-2-carboxylic acid;Pyroglutamine;<span class=\"text-smallcaps\">L</span>-Pyroglutamine;Take Off Booster;VLS 3000-01;163: PN: US20220128567 SEQID: 525 claimed sequence;163: PN: US20220178935 SEQID: 525 claimed sequence;523: PN: WO2023172654 SEQID: 525 claimed sequence",
    "duplicated_cas_no": "498-91-9;6886-28-8;16891-48-8;29222-42-2;87430-62-4;312618-42-1;95650-42-3",
    "SMILES": "C(O)(=O)[C@H]1NC(=O)CC1",
    "meta_data": {
        "InChI": "InChI=1S/C5H7NO3/c7-4-2-1-3(6-4)5(8)9/h3H,1-2H2,(H,6,7)(H,8,9)/t3-/m0/s1",
        "InChIKey": null,
        "Canonical SMILES": "O=C(O)C1NC(=O)CC1",
        "Molecular Formula": "C<sub>5</sub>H<sub>7</sub>NO<sub>3</sub>",
        "Molecular Mass": "129.11",
        "Melting Point": "184.7 °C"
    }
}