{
    "cas_no": "139356-37-9",
    "key_name": "2-[(3<em>R</em>,5<em>R</em>)-3,5-Bis[[(1,1-dimethylethyl)dimethylsilyl]oxy]cyclohexylidene]ethanol",
    "cn_name": null,
    "alternate_name": "Ethanol, 2-[(3<em>R</em>,5<em>R</em>)-3,5-bis[[(1,1-dimethylethyl)dimethylsilyl]oxy]cyclohexylidene]-;Ethanol, 2-[3,5-bis[[(1,1-dimethylethyl)dimethylsilyl]oxy]cyclohexylidene]-, (3<em>R</em>-<em>trans</em>)-;2-[(3<em>R</em>,5<em>R</em>)-3,5-Bis[[(1,1-dimethylethyl)dimethylsilyl]oxy]cyclohexylidene]ethanol",
    "duplicated_cas_no": "",
    "SMILES": "O([Si](C(C)(C)C)(C)C)[C@H]1C[C@H](O[Si](C(C)(C)C)(C)C)CC(=CCO)C1",
    "meta_data": {
        "InChI": "InChI=1S/C20H42O3Si2/c1-19(2,3)24(7,8)22-17-13-16(11-12-21)14-18(15-17)23-25(9,10)20(4,5)6/h11,17-18,21H,12-15H2,1-10H3/t17-,18-/m1/s1",
        "InChIKey": null,
        "Canonical SMILES": "OCC=C1CC(O[Si](C)(C)C(C)(C)C)CC(O[Si](C)(C)C(C)(C)C)C1",
        "Molecular Formula": "C<sub>20</sub>H<sub>42</sub>O<sub>3</sub>Si<sub>2</sub>",
        "Molecular Mass": "386.72",
        "Melting Point": "63-65 °C"
    }
}