{
    "cas_no": "74-85-1",
    "key_name": "Ethylene",
    "cn_name": "乙烯;液化乙烯;高纯乙烯;",
    "alternate_name": "Ethene;Ethylene;Acetene;Bicarburetted hydrogen;Elayl;Olefiant gas;R 1150;218W050;Betafoam AFI-G 1;N 25;EGF 34;Bynel 21E4817;Tymax 7501",
    "duplicated_cas_no": "33060-30-9;87701-64-2;87701-65-3",
    "SMILES": "C=C",
    "meta_data": {
        "InChI": "InChI=1S/C2H4/c1-2/h1-2H2",
        "InChIKey": null,
        "Canonical SMILES": "C=C",
        "Molecular Formula": "C<sub>2</sub>H<sub>4</sub>",
        "Molecular Mass": "28.05",
        "Boiling Point": "-102.4 °C @ Press: 700 Torr",
        "Melting Point": "-169 °C",
        "Density": "0.56737 g/cm³ @ Temp: -103.8 °C"
    }
}