{
    "cas_no": "3351-86-8",
    "key_name": "Fucoxanthin",
    "cn_name": "岩藻黄质;3\"-(乙酰氧基)-6\",7\"-二脱氢-5,6-环氧-5,5\",6,6\",7,8-六氢-3,5\"-二羟基-8-氧代-beta,beta-胡萝卜;",
    "alternate_name": "β,β-Carotene, 3′-(acetyloxy)-6′,7′-didehydro-5,6-epoxy-5,5′,6,6′,7,8-hexahydro-3,5′-dihydroxy-8-oxo-, (3<em>S</em>,3′<em>S</em>,5<em>R</em>,5′<em>R</em>,6<em>S</em>,6′<em>R</em>)-;α-Carotene, 6′,7′-didehydro-5,6-epoxy-4′,5,5′,6,7,8-hexahydro-3,3′,5′-trihydroxy-8-oxo-, 3′-acetate, <em>all</em>-<em>trans</em>-;α-Carotene, 6′,7′-didehydro-5,6-epoxy-4′,5,5′,6,7,8-hexahydro-3,3′,5′-trihydroxy-8-oxo-, 3′-acetate;(3<em>S</em>,3′<em>S</em>,5<em>R</em>,5′<em>R</em>,6<em>S</em>,6′<em>R</em>)-3′-(Acetyloxy)-6′,7′-didehydro-5,6-epoxy-5,5′,6,6′,7,8-hexahydro-3,5′-dihydroxy-8-oxo-β,β-carotene;Fucoxanthin;Fucoxanthin, <em>all</em>-<em>trans</em>-;<em>all</em>-<em>trans</em>-Fucoxanthin;<em>all</em>-<em>E</em>-(3<em>S</em>,5<em>R</em>,6<em>S</em>,3′<em>S</em>,5′<em>R</em>,6′<em>R</em>)-Fucoxanthin;Sebatrol;Infinity 50",
    "duplicated_cas_no": "31063-71-5",
    "SMILES": "C(C(/C(=C/C=C/C(=C/C=C/C=C(/C=C/C=C(/C=[C@@]=C1C(C)(C)C[C@H](OC(C)=O)C[C@@]1(C)O)\\C)\\C)/C)/C)=O)[C@]23[C@](C)(O2)C[C@@H](O)CC3(C)C",
    "meta_data": {
        "InChI": "InChI=1S/C42H58O6/c1-29(18-14-19-31(3)22-23-37-38(6,7)26-35(47-33(5)43)27-40(37,10)46)16-12-13-17-30(2)20-15-21-32(4)36(45)28-42-39(8,9)24-34(44)25-41(42,11)48-42/h12-22,34-35,44,46H,24-28H2,1-11H3/b13-12+,18-14+,20-15+,29-16+,30-17+,31-19+,32-21+/t23-,34-,35-,40+,41+,42-/m0/s1",
        "InChIKey": null,
        "Canonical SMILES": "O=C(OC1CC(O)(C(=C=CC(=CC=CC(=CC=CC=C(C=CC=C(C(=O)CC23OC3(C)CC(O)CC2(C)C)C)C)C)C)C(C)(C)C1)C)C",
        "Molecular Formula": "C<sub>42</sub>H<sub>58</sub>O<sub>6</sub>",
        "Molecular Mass": "658.91",
        "Melting Point": "168 °C"
    }
}