{
    "cas_no": "107-20-0",
    "key_name": "Chloroacetaldehyde",
    "cn_name": null,
    "alternate_name": "Acetaldehyde, 2-chloro-;Acetaldehyde, chloro-;2-Chloroacetaldehyde;Chloroacetaldehyde;2-Chloro-1-ethanal;Monochloroacetaldehyde;α-Chloroacetaldehyde;2-Chloroethanal",
    "duplicated_cas_no": "",
    "SMILES": "C(C=O)Cl",
    "meta_data": {
        "InChI": "InChI=1S/C2H3ClO/c3-1-2-4/h2H,1H2",
        "InChIKey": null,
        "Canonical SMILES": "O=CCCl",
        "Molecular Formula": "C<sub>2</sub>H<sub>3</sub>ClO",
        "Molecular Mass": "78.50",
        "Boiling Point": "85-86 °C @ Press: 760 Torr",
        "Melting Point": "-16.3 °C",
        "Density": "1.19 g/cm³"
    }
}