{
    "cas_no": "2274-66-0",
    "key_name": "2,2-Dichloro-1-(2,4-dichlorophenyl)ethanone",
    "cn_name": "2,2,2\",4\"-四氯苯乙酮;2,2,2\",4\"-四氯苯乙酮;",
    "alternate_name": "Ethanone, 2,2-dichloro-1-(2,4-dichlorophenyl)-;Acetophenone, 2,2,2′,4′-tetrachloro-;2,2-Dichloro-1-(2,4-dichlorophenyl)ethanone;2,2,2′,4′-Tetrachloroacetophenone;2,4-Dichlorophenacylidene dichloride;α,α,2′,4′-Tetrachloroacetophenone;NSC 81222;2,2-Dichloro-1-(2,4-dichlorophenyl)ethan-1-one",
    "duplicated_cas_no": "",
    "SMILES": "C(C(Cl)Cl)(=O)C1=C(Cl)C=C(Cl)C=C1",
    "meta_data": {
        "InChI": "InChI=1S/C8H4Cl4O/c9-4-1-2-5(6(10)3-4)7(13)8(11)12/h1-3,8H",
        "InChIKey": null,
        "Canonical SMILES": "O=C(C1=CC=C(Cl)C=C1Cl)C(Cl)Cl",
        "Molecular Formula": "C<sub>8</sub>H<sub>4</sub>Cl<sub>4</sub>O",
        "Molecular Mass": "257.93",
        "Boiling Point": "94 °C @ Press: 0.2 Torr"
    }
}