{
    "cas_no": "61196-37-0",
    "key_name": "1,2,3,6,7,11b-Hexahydro-4<em>H</em>-pyrazino[2,1-<em>a</em>]isoquinolin-4-one",
    "cn_name": null,
    "alternate_name": "4<em>H</em>-Pyrazino[2,1-<em>a</em>]isoquinolin-4-one, 1,2,3,6,7,11b-hexahydro-;1,2,3,6,7,11b-Hexahydro-4<em>H</em>-pyrazino[2,1-<em>a</em>]isoquinolin-4-one;(±)-Praziquanamine;<span class=\"text-smallcaps\">DL</span>-Praziquanamine;1,2,3,6,7,11b-Hexahydropyrazino[2,1-<em>a</em>]isoquinolin-4-one;Praziquanamine;4-oxo-1,2,3,6,7,11b-hexahydro-4H-pyrazino[2,1-a]isoquinoline;2,3,6,7-Tetrahydro-1<em>H</em>-pyrazino[2,1-<em>a</em>]isoquinolin-4(11b<em>H</em>)-one",
    "duplicated_cas_no": "55375-90-1",
    "SMILES": "O=C1N2C(C=3C(CC2)=CC=CC3)CNC1",
    "meta_data": {
        "InChI": "InChI=1S/C12H14N2O/c15-12-8-13-7-11-10-4-2-1-3-9(10)5-6-14(11)12/h1-4,11,13H,5-8H2",
        "InChIKey": null,
        "Canonical SMILES": "O=C1N2CCC=3C=CC=CC3C2CNC1",
        "Molecular Formula": "C<sub>12</sub>H<sub>14</sub>N<sub>2</sub>O",
        "Molecular Mass": "202.25",
        "Melting Point": "116-118 °C"
    }
}