{
    "cas_no": "2527-58-4",
    "key_name": "Densil P",
    "cn_name": "亚二硫基二(苯甲酰甲胺);",
    "alternate_name": "Benzamide, 2,2′-dithiobis[<em>N</em>-methyl-;2,2′-Dithiobis[<em>N</em>-methylbenzamide];Dithio-2,2′-bis(<em>N</em>-methylbenzamide);Densil P",
    "duplicated_cas_no": "",
    "SMILES": "S(SC1=C(C(NC)=O)C=CC=C1)C2=C(C(NC)=O)C=CC=C2",
    "meta_data": {
        "InChI": "InChI=1S/C16H16N2O2S2/c1-17-15(19)11-7-3-5-9-13(11)21-22-14-10-6-4-8-12(14)16(20)18-2/h3-10H,1-2H3,(H,17,19)(H,18,20)",
        "InChIKey": null,
        "Canonical SMILES": "O=C(NC)C=1C=CC=CC1SSC=2C=CC=CC2C(=O)NC",
        "Molecular Formula": "C<sub>16</sub>H<sub>16</sub>N<sub>2</sub>O<sub>2</sub>S<sub>2</sub>",
        "Molecular Mass": "332.44",
        "Melting Point": "216.5 °C"
    }
}