{
    "cas_no": "4439-02-5",
    "key_name": "1,3-Benzodioxole-5-acetonitrile",
    "cn_name": "1,3-苯并二氧杂环戊烯-5-乙腈;",
    "alternate_name": "1,3-Benzodioxole-5-acetonitrile;Acetonitrile, [3,4-(methylenedioxy)phenyl]-;Homopiperonylonitrile;5-Cyanomethyl-1,3-benzodioxole;3,4-Methylenedioxybenzyl cyanide;[3,4-(Methylenedioxy)phenyl]acetonitrile;Piperonylacetonitrile;(Benzo[1,3]dioxol-5-yl)acetonitrile;Benzodioxole-5-acetonitrile;(Benzodioxol-5-yl)acetonitrile;Piperonyl cyanide;2-(Benzo[<em>d</em>][1,3]dioxol-5-yl)acetonitrile;2-(3,4-Methylenedioxyphenyl)acetonitrile;2-(1,3-Benzodioxol-5-yl)acetonitrile;2-(2<em>H</em>-1,3-Benzodioxol-5-yl)acetonitrile;2-(1,3-Dioxaindan-5-yl)acetonitrile",
    "duplicated_cas_no": "",
    "SMILES": "C(C#N)C=1C=C2C(=CC1)OCO2",
    "meta_data": {
        "InChI": "InChI=1S/C9H7NO2/c10-4-3-7-1-2-8-9(5-7)12-6-11-8/h1-2,5H,3,6H2",
        "InChIKey": null,
        "Canonical SMILES": "N#CCC1=CC=C2OCOC2=C1",
        "Molecular Formula": "C<sub>9</sub>H<sub>7</sub>NO<sub>2</sub>",
        "Molecular Mass": "161.16",
        "Boiling Point": "160 °C @ Press: 10 Torr",
        "Melting Point": "49 °C"
    }
}