{
    "cas_no": "567-35-1",
    "key_name": "<em>cis</em>-3-Hydroxy-<span class=\"text-smallcaps\">L</span>-proline",
    "cn_name": null,
    "alternate_name": "<span class=\"text-smallcaps\">L</span>-Proline, 3-hydroxy-, (3<em>R</em>)-;Proline, 3-hydroxy-, <span class=\"text-smallcaps\">L</span>-<em>cis</em>-;<span class=\"text-smallcaps\">L</span>-Proline, 3-hydroxy-, <em>cis</em>-;(3<em>R</em>)-3-Hydroxy-<span class=\"text-smallcaps\">L</span>-proline;3-Allohydroxy-<span class=\"text-smallcaps\">L</span>-proline;<em>cis</em>-3-Hydroxyproline;<em>cis</em>-3-Hydroxy-<span class=\"text-smallcaps\">L</span>-proline;(2<em>S</em>,3<em>R</em>)-3-Hydroxypyrrolidine-2-carboxylic acid;(2S,3R)-3-Hydroxypyrrolidine-2-carboxylic acid",
    "duplicated_cas_no": "1855-80-7;19246-26-5;29887-44-3",
    "SMILES": "C(O)(=O)[C@@H]1[C@H](O)CCN1",
    "meta_data": {
        "InChI": "InChI=1S/C5H9NO3/c7-3-1-2-6-4(3)5(8)9/h3-4,6-7H,1-2H2,(H,8,9)/t3-,4+/m1/s1",
        "InChIKey": null,
        "Canonical SMILES": "O=C(O)C1NCCC1O",
        "Molecular Formula": "C<sub>5</sub>H<sub>9</sub>NO<sub>3</sub>",
        "Molecular Mass": "131.13",
        "Melting Point": "198-200 °C (decomp)"
    }
}