{
    "cas_no": "49608-01-7",
    "key_name": "3-Pyridinecarboxylic acid, 6-chloro-, ethyl ester",
    "cn_name": "6-氯烟酸乙酯;",
    "alternate_name": "3-Pyridinecarboxylic acid, 6-chloro-, ethyl ester;Ethyl 6-chloronicotinate;Ethyl 2-chloro-5-pyridinecarboxylate;6-Chloronicotinic acid ethyl ester;Ethyl 6-chloro-3-pyridinecarboxylate;2-Chloropyridine-5-carboxylic acid ethyl ester;Ethyl 6-chloro-3-nicotinate",
    "duplicated_cas_no": "",
    "SMILES": "C(OCC)(=O)C=1C=CC(Cl)=NC1",
    "meta_data": {
        "InChI": "InChI=1S/C8H8ClNO2/c1-2-12-8(11)6-3-4-7(9)10-5-6/h3-5H,2H2,1H3",
        "InChIKey": null,
        "Canonical SMILES": "O=C(OCC)C1=CN=C(Cl)C=C1",
        "Molecular Formula": "C<sub>8</sub>H<sub>8</sub>ClNO<sub>2</sub>",
        "Molecular Mass": "185.61",
        "Boiling Point": "150 °C @ Press: 18 Torr",
        "Melting Point": "195 °C (decomp)"
    }
}