{
    "cas_no": "3844-54-0",
    "key_name": "<span class=\"text-smallcaps\">L</span>-Norleucine, methyl ester, hydrochloride (1:1)",
    "cn_name": "H-Nle-OMe盐酸盐;",
    "alternate_name": "<span class=\"text-smallcaps\">L</span>-Norleucine, methyl ester, hydrochloride (1:1);<span class=\"text-smallcaps\">L</span>-Norleucine, methyl ester, hydrochloride;Norleucine, methyl ester, hydrochloride, <span class=\"text-smallcaps\">L</span>-;Methyl (2<em>S</em>)-2-aminohexanoate hydrochloride;Methyl <span class=\"text-smallcaps\">L</span>-norleucinate hydrochloride;(<em>S</em>)-2-Aminohexanoic acid methyl ester hydrochloride",
    "duplicated_cas_no": "",
    "SMILES": "[C@@H](C(OC)=O)(CCCC)N.Cl",
    "meta_data": {
        "InChI": "InChI=1S/C7H15NO2.ClH/c1-3-4-5-6(8)7(9)10-2;/h6H,3-5,8H2,1-2H3;1H/t6-;/m0./s1",
        "InChIKey": null,
        "Canonical SMILES": "Cl.O=C(OC)C(N)CCCC",
        "Molecular Formula": "C<sub>7</sub>H<sub>15</sub>NO<sub>2</sub>.ClH",
        "Molecular Mass": "",
        "Melting Point": "55-57 °C"
    }
}