{
    "cas_no": "14676-01-8",
    "key_name": "β-[[(1,1-Dimethylethoxy)carbonyl]amino]benzenepropanoic acid",
    "cn_name": "3-(Boc-氨基)-3-苯基丙酸;3-(叔丁氧羰基氨基)-3-苯基丙酸;",
    "alternate_name": "Benzenepropanoic acid, β-[[(1,1-dimethylethoxy)carbonyl]amino]-;Hydrocinnamic acid, β-(carboxyamino)-, <em>N</em>-<em>tert</em>-butyl ester;β-[[(1,1-Dimethylethoxy)carbonyl]amino]benzenepropanoic acid;3-[<em>N</em>-(<em>tert</em>-Butoxycarbonyl)amino]-3-phenylpropionic acid;3-Phenyl-3-[<em>N</em>-(<em>tert</em>-butoxycarbonyl)amino]propionic acid;3-[(<em>tert</em>-Butoxycarbonyl)amino]-3-phenylpropionic acid;3-[[[(1,1-Dimethylethyl)oxy]carbonyl]amino]-3-phenylpropanoic acid;Boc-<span class=\"text-smallcaps\">D</smallcap><smallcap>L</span>-β-phenylalanine;β-[[(1,1-Dimethylethoxyl)carbonyl]amino]benzenepropanoic acid;3-((<em>tert</em>-Butoxycarbonyl)amino)-3-phenylpropanoicacid;3-[[(<em>tert</em>-Butoxy)carbonyl]amino]-3-phenylpropanoic acid",
    "duplicated_cas_no": "53030-48-1",
    "SMILES": "C(NC(OC(C)(C)C)=O)(CC(O)=O)C1=CC=CC=C1",
    "meta_data": {
        "InChI": "InChI=1S/C14H19NO4/c1-14(2,3)19-13(18)15-11(9-12(16)17)10-7-5-4-6-8-10/h4-8,11H,9H2,1-3H3,(H,15,18)(H,16,17)",
        "InChIKey": null,
        "Canonical SMILES": "O=C(OC(C)(C)C)NC(C=1C=CC=CC1)CC(=O)O",
        "Molecular Formula": "C<sub>14</sub>H<sub>19</sub>NO<sub>4</sub>",
        "Molecular Mass": "265.30",
        "Melting Point": "143-145 °C"
    }
}