{
    "cas_no": "2516-34-9",
    "key_name": "Cyclobutylamine",
    "cn_name": "环丁基胺;环丁胺;",
    "alternate_name": "Cyclobutanamine;Cyclobutylamine;Aminocyclobutane;1-Aminocyclobutane",
    "duplicated_cas_no": "",
    "SMILES": "NC1CCC1",
    "meta_data": {
        "InChI": "InChI=1S/C4H9N/c5-4-2-1-3-4/h4H,1-3,5H2",
        "InChIKey": null,
        "Canonical SMILES": "NC1CCC1",
        "Molecular Formula": "C<sub>4</sub>H<sub>9</sub>N",
        "Molecular Mass": "71.12",
        "Boiling Point": "82 °C"
    }
}