{
    "cas_no": "549-32-6",
    "key_name": "Reynoutrin",
    "cn_name": null,
    "alternate_name": "4<em>H</em>-1-Benzopyran-4-one, 2-(3,4-dihydroxyphenyl)-5,7-dihydroxy-3-(β-<span class=\"text-smallcaps\">D</span>-xylopyranosyloxy)-;Reynoutrin;2-(3,4-Dihydroxyphenyl)-5,7-dihydroxy-3-(β-<span class=\"text-smallcaps\">D</span>-xylopyranosyloxy)-4<em>H</em>-1-benzopyran-4-one;Reinutrin;3,3′,4′,5,7-Pentahydroxyflavone 3β-<span class=\"text-smallcaps\">D</span>-xylopyranoside;Quercetin 3-β-<span class=\"text-smallcaps\">D</span>-xylopyranoside;Quercetin-3-<em>O</em>-β-<span class=\"text-smallcaps\">D</span>-xylopyranoside;Quercetin 3-<em>O</em>-β-xyloside;Quercetin 3-<em>O</em>-β-<span class=\"text-smallcaps\">D</span>-xyloside;Quercetin 3-<em>O</em>-β-xylopyranoside",
    "duplicated_cas_no": "6743-88-0;28452-85-9;28553-04-0",
    "SMILES": "O(C1=C(OC=2C(C1=O)=C(O)C=C(O)C2)C3=CC(O)=C(O)C=C3)[C@H]4[C@H](O)[C@@H](O)[C@H](O)CO4",
    "meta_data": {
        "InChI": "InChI=1S/C20H18O11/c21-8-4-11(24)14-13(5-8)30-18(7-1-2-9(22)10(23)3-7)19(16(14)27)31-20-17(28)15(26)12(25)6-29-20/h1-5,12,15,17,20-26,28H,6H2/t12-,15+,17-,20+/m1/s1",
        "InChIKey": null,
        "Canonical SMILES": "O=C1C(OC2OCC(O)C(O)C2O)=C(OC=3C=C(O)C=C(O)C13)C=4C=CC(O)=C(O)C4",
        "Molecular Formula": "C<sub>20</sub>H<sub>18</sub>O<sub>11</sub>",
        "Molecular Mass": "434.35",
        "Melting Point": "201-203 °C"
    }
}