{
    "cas_no": "13709-46-1",
    "key_name": "Praseodymium fluoride",
    "cn_name": "氟化镨;无水氟化镨(III);",
    "alternate_name": "Praseodymium fluoride (PrF<sub>3</sub>);Praseodymium trifluoride;Praseodymium fluoride",
    "duplicated_cas_no": "",
    "SMILES": "[Pr](F)(F)F",
    "meta_data": {
        "InChI": "InChI=1S/3FH.Pr/h3*1H;/q;;;+3/p-3",
        "InChIKey": null,
        "Canonical SMILES": "F[Pr](F)F",
        "Molecular Formula": "F<sub>3</sub>Pr",
        "Molecular Mass": "",
        "Melting Point": "1370 °C",
        "Density": "6.267 g/cm³"
    }
}