{
    "cas_no": "17701-76-7",
    "key_name": "2-Isothiocyanato-2,4,4-trimethylpentane",
    "cn_name": "异硫氰酸叔辛酯;",
    "alternate_name": "Pentane, 2-isothiocyanato-2,4,4-trimethyl-;Isothiocyanic acid, 1,1,3,3-tetramethylbutyl ester;2-Isothiocyanato-2,4,4-trimethylpentane;2-(Isothiocyanato)-2,4,4-trimethylpentane;NSC 65473",
    "duplicated_cas_no": "",
    "SMILES": "C(C(N=C=S)(C)C)C(C)(C)C",
    "meta_data": {
        "InChI": "InChI=1S/C9H17NS/c1-8(2,3)6-9(4,5)10-7-11/h6H2,1-5H3",
        "InChIKey": null,
        "Canonical SMILES": "S=C=NC(C)(C)CC(C)(C)C",
        "Molecular Formula": "C<sub>9</sub>H<sub>17</sub>NS",
        "Molecular Mass": "171.30",
        "Boiling Point": "91-97 °C @ Press: 10 Torr",
        "Density": "0.91 g/cm³ @ Temp: 25 °C"
    }
}