{
    "cas_no": "7459-63-4",
    "key_name": "6-Phenyl-1,3,5-triazine-2,4(1<em>H</em>,3<em>H</em>)-dione",
    "cn_name": "2,4-二羟基-6-苯基-1,3,5-三嗪;6-苯基-1,3,5-三嗪-2,4(1H,3H)-二酮;",
    "alternate_name": "1,3,5-Triazine-2,4(1<em>H</em>,3<em>H</em>)-dione, 6-phenyl-;<em>s</em>-Triazine-2,4-diol, 6-phenyl-;<em>s</em>-Triazine-2,4(1<em>H</em>,3<em>H</em>)-dione, 6-phenyl-;6-Phenyl-1,3,5-triazine-2,4(1<em>H</em>,3<em>H</em>)-dione;2,4-Dihydroxy-6-phenyl-<em>s</em>-triazine",
    "duplicated_cas_no": "2060-79-9",
    "SMILES": "O=C1NC(=NC(=O)N1)C2=CC=CC=C2",
    "meta_data": {
        "InChI": "InChI=1S/C9H7N3O2/c13-8-10-7(11-9(14)12-8)6-4-2-1-3-5-6/h1-5H,(H2,10,11,12,13,14)",
        "InChIKey": null,
        "Canonical SMILES": "O=C1N=C(NC(=O)N1)C=2C=CC=CC2",
        "Molecular Formula": "C<sub>9</sub>H<sub>7</sub>N<sub>3</sub>O<sub>2</sub>",
        "Molecular Mass": "189.17",
        "Melting Point": "283-284 °C"
    }
}