{
    "cas_no": "1911-78-0",
    "key_name": "(-)-Oplopanone",
    "cn_name": null,
    "alternate_name": "Ethanone, 1-[(1<em>S</em>,3a<em>R</em>,4<em>R</em>,7<em>S</em>,7a<em>S</em>)-octahydro-4-hydroxy-4-methyl-7-(1-methylethyl)-1<em>H</em>-inden-1-yl]-;Oplopanone;Ketone, 3aα,4,5,6,7,7aβ-hexahydro-4α-hydroxy-7β-isopropyl-4-methyl-1β-indanyl methyl, (-)-;Ethanone, 1-[octahydro-4-hydroxy-4-methyl-7-(1-methylethyl)-1<em>H</em>-inden-1-yl]-, [1<em>S</em>-(1α,3aβ,4β,7α,7aα)]-;1-[(1<em>S</em>,3a<em>R</em>,4<em>R</em>,7<em>S</em>,7a<em>S</em>)-Octahydro-4-hydroxy-4-methyl-7-(1-methylethyl)-1<em>H</em>-inden-1-yl]ethanone;Oplopanon;(-)-Oplopanone;10α-Hydroxyoplopan-4-one",
    "duplicated_cas_no": "108654-34-8",
    "SMILES": "C(C)(=O)[C@@H]1[C@@]2([C@@](CC1)([C@](C)(O)CC[C@H]2[C@@H](C)C)[H])[H]",
    "meta_data": {
        "InChI": "InChI=1S/C15H26O2/c1-9(2)11-7-8-15(4,17)13-6-5-12(10(3)16)14(11)13/h9,11-14,17H,5-8H2,1-4H3/t11-,12+,13+,14+,15+/m0/s1",
        "InChIKey": null,
        "Canonical SMILES": "O=C(C)C1CCC2C1C(CCC2(O)C)C(C)C",
        "Molecular Formula": "C<sub>15</sub>H<sub>26</sub>O<sub>2</sub>",
        "Molecular Mass": "238.37",
        "Melting Point": "96-97 °C"
    }
}