{
    "cas_no": "25784-91-2",
    "key_name": "2-Chloro-5-nitrobenzoyl chloride",
    "cn_name": "2-氯-5-硝基苯甲酰氯;",
    "alternate_name": "Benzoyl chloride, 2-chloro-5-nitro-;2-Chloro-5-nitrobenzoyl chloride",
    "duplicated_cas_no": "",
    "SMILES": "C(Cl)(=O)C1=CC(N(=O)=O)=CC=C1Cl",
    "meta_data": {
        "InChI": "InChI=1S/C7H3Cl2NO3/c8-6-2-1-4(10(12)13)3-5(6)7(9)11/h1-3H",
        "InChIKey": null,
        "Canonical SMILES": "O=C(Cl)C1=CC(=CC=C1Cl)N(=O)=O",
        "Molecular Formula": "C<sub>7</sub>H<sub>3</sub>Cl<sub>2</sub>NO<sub>3</sub>",
        "Molecular Mass": "220.01",
        "Melting Point": "60-61 °C"
    }
}