{
    "cas_no": "21911-84-2",
    "key_name": "<em>N</em>-Phenyl-β-alanine methyl ester",
    "cn_name": null,
    "alternate_name": "β-Alanine, <em>N</em>-phenyl-, methyl ester;<em>N</em>-Phenyl-β-alanine methyl ester;Methyl β-(<em>N</em>-phenyl)aminopropionate;<em>N</em>-[(Methoxycarbonyl)ethyl]aniline;Methyl 3-anilinopropionate;Methyl β-anilinopropionate;3-(Phenylamino)propanoic acid methyl ester;NSC 144467;<em>N</em>-[2-(Methoxycarbonyl)ethyl]aniline;Methyl 3-(phenylamino)propanoate;Methyl 3-(<em>N</em>-phenylamino)propionate;3-Phenyl-amino-propionic acid methyl ester",
    "duplicated_cas_no": "",
    "SMILES": "N(CCC(OC)=O)C1=CC=CC=C1",
    "meta_data": {
        "InChI": "InChI=1S/C10H13NO2/c1-13-10(12)7-8-11-9-5-3-2-4-6-9/h2-6,11H,7-8H2,1H3",
        "InChIKey": null,
        "Canonical SMILES": "O=C(OC)CCNC=1C=CC=CC1",
        "Molecular Formula": "C<sub>10</sub>H<sub>13</sub>NO<sub>2</sub>",
        "Molecular Mass": "179.22",
        "Boiling Point": "125-126 °C @ Press: 3 Torr",
        "Melting Point": "37.6-38.3 °C"
    }
}