{
    "cas_no": "19408-84-5",
    "key_name": "Dihydrocapsaicin",
    "cn_name": "二氢辣椒素;N-(4-羟基-3-甲氧基苄基)-8-甲基壬酰胺;",
    "alternate_name": "Nonanamide, <em>N</em>-[(4-hydroxy-3-methoxyphenyl)methyl]-8-methyl-;Nonanamide, 8-methyl-<em>N</em>-vanillyl-;<em>N</em>-[(4-Hydroxy-3-methoxyphenyl)methyl]-8-methylnonanamide;Dihydrocapsaicin;6,7-Dihydrocapsaicin;Capsaicin, dihydro-",
    "duplicated_cas_no": "912457-64-8",
    "SMILES": "C(NC(CCCCCCC(C)C)=O)C1=CC(OC)=C(O)C=C1",
    "meta_data": {
        "InChI": "InChI=1S/C18H29NO3/c1-14(2)8-6-4-5-7-9-18(21)19-13-15-10-11-16(20)17(12-15)22-3/h10-12,14,20H,4-9,13H2,1-3H3,(H,19,21)",
        "InChIKey": null,
        "Canonical SMILES": "O=C(NCC1=CC=C(O)C(OC)=C1)CCCCCCC(C)C",
        "Molecular Formula": "C<sub>18</sub>H<sub>29</sub>NO<sub>3</sub>",
        "Molecular Mass": "307.43",
        "Melting Point": "65.6-65.8 °C"
    }
}