{
    "cas_no": "828-51-3",
    "key_name": "1-Adamantanecarboxylic acid",
    "cn_name": "1-金刚烷甲酸;",
    "alternate_name": "Tricyclo[3.3.1.1<sup>3,7</sup>]decane-1-carboxylic acid;1-Adamantanecarboxylic acid;Adamantoic acid;1-Carboxyadamantane;1-Adamantane-1-carboxylic acid;NSC 94182;1-Adamantylcarboxylic acid;Adamantan-1-carboxylic acid",
    "duplicated_cas_no": "",
    "SMILES": "C(O)(=O)C12CC3CC(C1)CC(C2)C3",
    "meta_data": {
        "InChI": "InChI=1S/C11H16O2/c12-10(13)11-4-7-1-8(5-11)3-9(2-7)6-11/h7-9H,1-6H2,(H,12,13)",
        "InChIKey": null,
        "Canonical SMILES": "O=C(O)C12CC3CC(CC(C3)C1)C2",
        "Molecular Formula": "C<sub>11</sub>H<sub>16</sub>O<sub>2</sub>",
        "Molecular Mass": "180.24",
        "Melting Point": "181 °C"
    }
}