{
    "cas_no": "61-33-6",
    "key_name": "Penicillin G",
    "cn_name": "青霉素;苄青霉素;青霉素G;盘尼西林;(2S,5R,6R)-3,3-二甲基-6-(2-苯乙酰氨基)-7-氧代-4-硫杂-1-氮杂双环[3.2;",
    "alternate_name": "4-Thia-1-azabicyclo[3.2.0]heptane-2-carboxylic acid, 3,3-dimethyl-7-oxo-6-[(2-phenylacetyl)amino]- (2<em>S</em>,5<em>R</em>,6<em>R</em>)-;Penicillin G;4-Thia-1-azabicyclo[3.2.0]heptane-2-carboxylic acid, 3,3-dimethyl-7-oxo-6-(2-phenylacetamido)-;4-Thia-1-azabicyclo[3.2.0]heptane-2-carboxylic acid, 3,3-dimethyl-7-oxo-6-[(phenylacetyl)amino]- [2<em>S</em>-(2α,5α,6β)]-;4-Thia-1-azabicyclo[3.2.0]heptane-2-carboxylic acid, 3,3-dimethyl-7-oxo-6-[(phenylacetyl)amino]- (2<em>S</em>,5<em>R</em>,6<em>R</em>)-;(2<em>S</em>,5<em>R</em>,6<em>R</em>)-3,3-Dimethyl-7-oxo-6-[(2-phenylacetyl)amino]-4-thia-1-azabicyclo[3.2.0]heptane-2-carboxylic acid;Benzyl-6-aminopenicillinic acid;Benzylpenicillin;Liquacillin;Phenylacetamidopenicillanic acid;Benzylpenicillin G;Cilopen;Penicillinic acid, (phenylmethyl)-;Penicillin, (phenylmethyl)-;Specilline G;Benzylpenicillinic acid;Gelacillin;Pradupen;Dropcillin;Pharmacillin;Cilloral;Penicillin;(5<em>R</em>,6<em>R</em>)-Benzylpenicillin;Ursopen;Phenylacetyl-6-aminopenicillanic acid;Free penicillin G;Free penicillin II;Free benzylpenicillin;NSC 193396;Crysticillin 300 AS;(2S,5R,6R)-3,3-Dimethyl-6-(2-(phenylacetylamino)-7-oxo-4-thia-1-azabicyclo[3.2.0]heptane-2-carboxylic acid;Allpen;(2S,5R,6R)-3,3-Dimethyl-7-oxo-6-(2-phenylacetamido)-4-thia-1-azabicyclo[3.2.0]heptan-2-carboxylic acid;MeSH ID: D010400",
    "duplicated_cas_no": "8050-59-7;22418-08-2;878042-30-9;888714-93-0",
    "SMILES": "C(O)(=O)[C@@H]1N2[C@@]([C@H](NC(CC3=CC=CC=C3)=O)C2=O)(SC1(C)C)[H]",
    "meta_data": {
        "InChI": "InChI=1S/C16H18N2O4S/c1-16(2)12(15(21)22)18-13(20)11(14(18)23-16)17-10(19)8-9-6-4-3-5-7-9/h3-7,11-12,14H,8H2,1-2H3,(H,17,19)(H,21,22)/t11-,12+,14-/m1/s1",
        "InChIKey": null,
        "Canonical SMILES": "O=C(O)C1N2C(=O)C(NC(=O)CC=3C=CC=CC3)C2SC1(C)C",
        "Molecular Formula": "C<sub>16</sub>H<sub>18</sub>N<sub>2</sub>O<sub>4</sub>S",
        "Molecular Mass": "334.39",
        "Melting Point": "82-83 °C"
    }
}