{
    "cas_no": "7250-52-4",
    "key_name": "4-Methyl-3-pyridinecarboxamide",
    "cn_name": "4-甲基烟酰胺;4-甲基吡啶-3-甲酰胺;",
    "alternate_name": "3-Pyridinecarboxamide, 4-methyl-;Nicotinamide, 4-methyl-;4-Methyl-3-pyridinecarboxamide;4-Methylnicotinamide;NSC 131712;NSC 30041;4-Methylpyridine-3-carboxamide",
    "duplicated_cas_no": "",
    "SMILES": "C(N)(=O)C=1C(C)=CC=NC1",
    "meta_data": {
        "InChI": "InChI=1S/C7H8N2O/c1-5-2-3-9-4-6(5)7(8)10/h2-4H,1H3,(H2,8,10)",
        "InChIKey": null,
        "Canonical SMILES": "O=C(N)C=1C=NC=CC1C",
        "Molecular Formula": "C<sub>7</sub>H<sub>8</sub>N<sub>2</sub>O",
        "Molecular Mass": "136.15",
        "Melting Point": "167-167.5 °C"
    }
}