{
    "cas_no": "6939-93-1",
    "key_name": "4-Bromo-1,3-benzenedicarboxylic acid",
    "cn_name": "4-溴-1,3-苯二甲酸;4-溴间苯二甲酸;",
    "alternate_name": "1,3-Benzenedicarboxylic acid, 4-bromo-;Isophthalic acid, 4-bromo-;4-Bromo-1,3-benzenedicarboxylic acid;4-Bromoisophthalic acid;1,3-Dicarboxy-4-bromobenzene;NSC 38770;1-Bromobenzene-2,4-dicarboxylic acid;2-Bromobenzene-1,5-dicarboxylic acid",
    "duplicated_cas_no": "",
    "SMILES": "C(O)(=O)C1=CC(C(O)=O)=CC=C1Br",
    "meta_data": {
        "InChI": "InChI=1S/C8H5BrO4/c9-6-2-1-4(7(10)11)3-5(6)8(12)13/h1-3H,(H,10,11)(H,12,13)",
        "InChIKey": null,
        "Canonical SMILES": "O=C(O)C1=CC=C(Br)C(=C1)C(=O)O",
        "Molecular Formula": "C<sub>8</sub>H<sub>5</sub>BrO<sub>4</sub>",
        "Molecular Mass": "245.03",
        "Melting Point": "303-304 °C"
    }
}