{
    "cas_no": "15471-17-7",
    "key_name": "3-(1-Pyridinio)-1-propanesulfonate",
    "cn_name": "丙烷磺酸吡啶嗡盐;",
    "alternate_name": "Pyridinium, 1-(3-sulfopropyl)-, inner salt;Pyridinium, 1-(3-sulfopropyl)-, hydroxide, inner salt;1-(3-Sulfopropyl)pyridinium hydroxide, inner salt;<em>N</em>-Propylpyridinesulfonic acid betaine;1-Pyridiniumpropane-3-sulfonate;1-(3-Sulfopropyl)pyridinium betaine;NDSB 201;PPS;3-(1-Pyridinio)-1-propanesulfonate;3-Pyridin-1-ium-1-ylpropane-1-sulfonate;3-(1-Pyridino)-1-propane sulfonate",
    "duplicated_cas_no": "",
    "SMILES": "C(CCS(=O)(=O)[O-])[N+]=1C=CC=CC1",
    "meta_data": {
        "InChI": "InChI=1S/C8H11NO3S/c10-13(11,12)8-4-7-9-5-2-1-3-6-9/h1-3,5-6H,4,7-8H2",
        "InChIKey": null,
        "Canonical SMILES": "O=S(=O)([O-])CCC[N+]=1C=CC=CC1",
        "Molecular Formula": "C<sub>8</sub>H<sub>11</sub>NO<sub>3</sub>S",
        "Molecular Mass": "",
        "Melting Point": "272-274 °C"
    }
}