{
    "cas_no": "829-85-6",
    "key_name": "Diphenylphosphine",
    "cn_name": "二苯基膦;",
    "alternate_name": "Phosphine, diphenyl-;Diphenylphosphine;NSC 152123",
    "duplicated_cas_no": "145382-52-1",
    "SMILES": "P(C1=CC=CC=C1)C2=CC=CC=C2",
    "meta_data": {
        "InChI": "InChI=1S/C12H11P/c1-3-7-11(8-4-1)13-12-9-5-2-6-10-12/h1-10,13H",
        "InChIKey": null,
        "Canonical SMILES": "C=1C=CC(=CC1)PC=2C=CC=CC2",
        "Molecular Formula": "C<sub>12</sub>H<sub>11</sub>P",
        "Molecular Mass": "186.19",
        "Boiling Point": "280 °C",
        "Melting Point": "-14.5 °C",
        "Density": "1.070 g/cm³"
    }
}