{
    "cas_no": "4694-91-1",
    "key_name": "6-Nitro-2-benzoxazolone",
    "cn_name": "6-硝基-2(3H)-苯唑酮;6-硝基苯并恶唑-2(3H)-酮;",
    "alternate_name": "2(3<em>H</em>)-Benzoxazolone, 6-nitro-;2-Benzoxazolinone, 6-nitro-;6-Nitro-2(3<em>H</em>)-benzoxazolone;6-Nitrobenzoxazolone;6-Nitrobenzoxazolin-2-one;6-Nitro-2-benzoxazolone;6-Nitro-3<em>H</em>-benzoxazol-2-one;6-Nitrobenzo[<em>d</em>]oxazol-2(3<em>H</em>)-one",
    "duplicated_cas_no": "32850-87-6",
    "SMILES": "N(=O)(=O)C=1C=C2C(=CC1)NC(=O)O2",
    "meta_data": {
        "InChI": "InChI=1S/C7H4N2O4/c10-7-8-5-2-1-4(9(11)12)3-6(5)13-7/h1-3H,(H,8,10)",
        "InChIKey": null,
        "Canonical SMILES": "O=C1OC2=CC(=CC=C2N1)N(=O)=O",
        "Molecular Formula": "C<sub>7</sub>H<sub>4</sub>N<sub>2</sub>O<sub>4</sub>",
        "Molecular Mass": "180.12",
        "Melting Point": "241 °C"
    }
}