{
    "cas_no": "634-66-2",
    "key_name": "1,2,3,4-Tetrachlorobenzene",
    "cn_name": null,
    "alternate_name": "Benzene, 1,2,3,4-tetrachloro-;1,2,3,4-Tetrachlorobenzene;NSC 50729",
    "duplicated_cas_no": "",
    "SMILES": "ClC1=C(Cl)C(Cl)=CC=C1Cl",
    "meta_data": {
        "InChI": "InChI=1S/C6H2Cl4/c7-3-1-2-4(8)6(10)5(3)9/h1-2H",
        "InChIKey": null,
        "Canonical SMILES": "ClC1=CC=C(Cl)C(Cl)=C1Cl",
        "Molecular Formula": "C<sub>6</sub>H<sub>2</sub>Cl<sub>4</sub>",
        "Molecular Mass": "215.89",
        "Boiling Point": "254 °C @ Press: 760 Torr",
        "Melting Point": "47.5 °C",
        "Density": "170 g/cm³"
    }
}