{
    "cas_no": "6396-07-2",
    "key_name": "Diiodotriphenylphosphorane",
    "cn_name": "三苯基膦二碘化物;",
    "alternate_name": "Phosphorane, diiodotriphenyl-;Diiodotriphenylphosphorane;Triphenylphosphine diiodide",
    "duplicated_cas_no": "",
    "SMILES": "P(I)(I)(C1=CC=CC=C1)(C2=CC=CC=C2)C3=CC=CC=C3",
    "meta_data": {
        "InChI": "InChI=1S/C18H15I2P/c19-21(20,16-10-4-1-5-11-16,17-12-6-2-7-13-17)18-14-8-3-9-15-18/h1-15H",
        "InChIKey": null,
        "Canonical SMILES": "IP(I)(C=1C=CC=CC1)(C=2C=CC=CC2)C=3C=CC=CC3",
        "Molecular Formula": "C<sub>18</sub>H<sub>15</sub>I<sub>2</sub>P",
        "Molecular Mass": "516.09",
        "Melting Point": "171-172 °C"
    }
}