{
    "cas_no": "139-13-9",
    "key_name": "Nitrilotriacetic acid",
    "cn_name": "氮川三乙酸;次氮基三乙酸;三乙酸基氨;",
    "alternate_name": "Glycine, <em>N</em>,<em>N</em>-bis(carboxymethyl)-;Acetic acid, nitrilotri-;<em>N</em>,<em>N</em>-Bis(carboxymethyl)glycine;Chel 300;Complexon I;Nitrilotriacetic acid;NTA;Triglycollamic acid;Nitrilo-2,2′,2′′-triacetic acid;Titriplex I;α,α′,α′′-Trimethylaminetricarboxylic acid;Triglycine;Hampshire NTA acid;Versene NTA acid;Chelest NT;Nitrilotris(methylenecarboxylic acid);Dissolvine A;NSC 2121;Tris(hydroxycarbonylmethyl)amine;Nitrilo-<em>N</em>,<em>N</em>,<em>N</em>-triacetic acid;412: PN: WO2007070372 PAGE: 72 claimed protein;Trilon AS;Tris(carboxymethyl)amine;Dissolvine AZ;N 0098;(Bis-carboxymethyl-amino)-acetic acid;Glycine-<em>N</em>,<em>N</em>-diacetic acid;2-[Bis(carboxymethyl)amino]acetic acid;MeSH ID: D009571",
    "duplicated_cas_no": "26627-44-1;26627-45-2;80751-51-5;1082646-60-3;1428376-78-6",
    "SMILES": "N(CC(O)=O)(CC(O)=O)CC(O)=O",
    "meta_data": {
        "InChI": "InChI=1S/C6H9NO6/c8-4(9)1-7(2-5(10)11)3-6(12)13/h1-3H2,(H,8,9)(H,10,11)(H,12,13)",
        "InChIKey": null,
        "Canonical SMILES": "O=C(O)CN(CC(=O)O)CC(=O)O",
        "Molecular Formula": "C<sub>6</sub>H<sub>9</sub>NO<sub>6</sub>",
        "Molecular Mass": "191.14",
        "Melting Point": "242 °C (decomp)",
        "Density": "&gt;1 g/cm³ @ Temp: 20 °C"
    }
}