{
    "cas_no": "612-57-7",
    "key_name": "6-Chloroquinoline",
    "cn_name": "6-氯喹啉;",
    "alternate_name": "Quinoline, 6-chloro-;6-Chloroquinoline;NSC 4682",
    "duplicated_cas_no": "",
    "SMILES": "ClC1=CC2=C(C=C1)N=CC=C2",
    "meta_data": {
        "InChI": "InChI=1S/C9H6ClN/c10-8-3-4-9-7(6-8)2-1-5-11-9/h1-6H",
        "InChIKey": null,
        "Canonical SMILES": "ClC=1C=CC2=NC=CC=C2C1",
        "Molecular Formula": "C<sub>9</sub>H<sub>6</sub>ClN",
        "Molecular Mass": "163.60",
        "Boiling Point": "263 °C",
        "Melting Point": "43.8 °C"
    }
}