{
    "cas_no": "75-22-9",
    "key_name": "Trimethylamineborane",
    "cn_name": "硼烷-三甲胺络合物;",
    "alternate_name": "Boron, (<em>N</em>,<em>N</em>-dimethylmethanamine)trihydro-, (<em>T</em>-4)-;Trimethylamine, compd. with borane (1:1);Methanamine, <em>N</em>,<em>N</em>-dimethyl-, compd. with borane (1:1);Borine, compd. with Me<sub>3</sub>N (1:1);Borane, compd. with trimethylamine (1:1);Borane, compd. with <em>N</em>,<em>N</em>-dimethylmethanamine (1:1);(<em>T</em>-4)-(<em>N</em>,<em>N</em>-Dimethylmethanamine)trihydroboron;Borane complex with trimethylamine (1:1);Trimethylamine-borane (1:1);Borane-trimethylamine (1:1);Trimethylamineborane;Trimethylamine borane(3);Trihydro(trimethylamine)boron;NSC 10220;NSC 145941;NSC 53323;Trimethylamine compound with borane (1:1);Me<sub>3</sub>NBH<sub>3</sub>;(Trimethylazaniumyl)boranuide;Borane(2), (<em>N</em>,<em>N</em>,<em>N</em>-trimethylammonio)-",
    "duplicated_cas_no": "16089-83-1;33981-22-5;34432-27-4;83475-25-6;122600-40-2;328404-31-5;716326-25-9;879669-63-3;1087345-28-5;1231953-83-5",
    "SMILES": "[B+3]([N](C)(C)C)([H-])([H-])[H-]",
    "meta_data": {
        "InChI": "InChI=1S/C3H12BN/c1-5(2,3)4/h1-4H3",
        "InChIKey": null,
        "Canonical SMILES": "[H-][B+3]([H-])([H-])[N](C)(C)C",
        "Molecular Formula": "C<sub>3</sub>H<sub>12</sub>BN",
        "Molecular Mass": "",
        "Boiling Point": "172 °C",
        "Melting Point": "94 °C"
    }
}