{
    "cas_no": "51-60-5",
    "key_name": "Proserine",
    "cn_name": "甲磺酸新斯的明;甲基硫酸新斯的明;N,N,N-三甲基-2-[(二甲氨基)甲酰氧基]苯铵甲磺酸盐;",
    "alternate_name": "Benzenaminium, 3-[[(dimethylamino)carbonyl]oxy]-<em>N</em>,<em>N</em>,<em>N</em>-trimethyl-, methyl sulfate (1:1);Ammonium, (<em>m</em>-hydroxyphenyl)trimethyl-, methyl sulfate, dimethylcarbamate;Benzenaminium, 3-[[(dimethylamino)carbonyl]oxy]-<em>N</em>,<em>N</em>,<em>N</em>-trimethyl-, methyl sulfate;3-(Dimethylcarbamoxy)phenyl trimethylammonium methyl sulfate;Hodostin;(<em>m</em>-Hydroxyphenyl)trimethylammonium methyl sulfate dimethylcarbamate;(3-Hydroxyphenyl)trimethylammonium methyl sulfate dimethylcarbamic ester;Kirkstigmine methyl sulfate;Leostigmine methyl sulfate;Neoeserine methyl sulfate;Neostigmeth;Neostigmine methosulfate;Neostigmine methyl sulfate;Normastigmin;Philostigmin methyl sulfate;Polstigmine;Proserine methyl sulfate;Stigmanol methyl sulfate;Stigmosan methyl sulfate;Vagostigmine methyl sulfate;Neostigmine mono(methyl sulfate);Prostigmine methyl sulfate;(3-Dimethylcarbamoyloxyphenyl)trimethylammonium methyl sulfate;Eustigmin methyl sulfate;Prostigmin methyl sulfate;Synstigmine;Syntostigmin;Syntostigmin (injection);Vagostigmin;Proserine;GD 65;Stiglyn;Intrastigmina;Metastigmin;NSC 93753;3-[(Dimethylcarbamoyl)oxy]-<em>N</em>,<em>N</em>,<em>N</em>-trimethylanilinium methyl sulfate;Bloxiverz",
    "duplicated_cas_no": "59954-03-9",
    "SMILES": "S(OC)(=O)(=O)[O-].O(C(N(C)C)=O)C1=CC([N+](C)(C)C)=CC=C1",
    "meta_data": {
        "InChI": "InChI=1S/C12H19N2O2.CH4O4S/c1-13(2)12(15)16-11-8-6-7-10(9-11)14(3,4)5;1-5-6(2,3)4/h6-9H,1-5H3;1H3,(H,2,3,4)/q+1;/p-1",
        "InChIKey": null,
        "Canonical SMILES": "O=C(OC1=CC=CC(=C1)[N+](C)(C)C)N(C)C.O=S(=O)([O-])OC",
        "Molecular Formula": "C<sub>12</sub>H<sub>19</sub>N<sub>2</sub>O<sub>2</sub>.CH<sub>3</sub>O<sub>4</sub>S",
        "Molecular Mass": "",
        "Melting Point": "142-145 °C"
    }
}