{
    "cas_no": "13716-89-7",
    "key_name": "<span class=\"text-smallcaps\">L</span>-Glutamyl-glycine",
    "cn_name": null,
    "alternate_name": "Glycine, <span class=\"text-smallcaps\">L</span>-α-glutamyl-;Glutaramic acid, 4-amino-<em>N</em>-(carboxymethyl)-, stereoisomer;Glycine, <em>N</em>-<span class=\"text-smallcaps\">L</span>-α-glutamyl-;<span class=\"text-smallcaps\">L</span>-α-Glutamylglycine;Glutamylglycine;<span class=\"text-smallcaps\">L</span>-Glutamyl-glycine;α-Glutamylglycine;α-<span class=\"text-smallcaps\">L</span>-Glutamylglycine;H-Glu-Gly-OH;NSC 186906;Immune disease-associated protein PRO91025 (human);4408: PN: WO2005019258 SEQID: 4850 claimed protein;4408: PN: WO2005016962 SEQID: 4850 claimed protein;116: PN: US20130123467 SEQID: 140 claimed protein;α-Glu-Gly;(4S)-4-Amino-5-(carboxymethylamino)-5-oxopentanoic acid",
    "duplicated_cas_no": "30587-49-6",
    "SMILES": "[C@@H](C(NCC(O)=O)=O)(CCC(O)=O)N",
    "meta_data": {
        "InChI": "InChI=1S/C7H12N2O5/c8-4(1-2-5(10)11)7(14)9-3-6(12)13/h4H,1-3,8H2,(H,9,14)(H,10,11)(H,12,13)/t4-/m0/s1",
        "InChIKey": null,
        "Canonical SMILES": "O=C(O)CNC(=O)C(N)CCC(=O)O",
        "Molecular Formula": "C<sub>7</sub>H<sub>12</sub>N<sub>2</sub>O<sub>5</sub>",
        "Molecular Mass": "204.18",
        "Melting Point": "175-176 °C"
    }
}