{
    "cas_no": "5341-58-2",
    "key_name": "3-Hydroxy-2-naphthoic acid hydrazide",
    "cn_name": null,
    "alternate_name": "2-Naphthalenecarboxylic acid, 3-hydroxy-, hydrazide;2-Naphthoic acid, 3-hydroxy-, hydrazide;2-Hydroxy-3-naphthoic acid hydrazide;3-Hydroxy-2-naphthoic acid hydrazide;2-Hydroxy-3-naphthoylhydrazine;3-Hydroxy-2-naphthoylhydrazine;2-Hydroxy-3-naphthoic hydrazide;NSC 2117;NSC 49198;3-Hydroxynaphthalene-2-carboxylic acid hydrazide;3-Hydroxynaphthalene-2-carboxylic hydrazide;3-Hydroxynaphthalene-2-carbohydrazide;3-Hydroxy-2-naphthoic hydrazide;3-Hydroxy-2-naphthohydrazide;[N-(3-Hydroxy-2-naphthoyl)]hydrazone",
    "duplicated_cas_no": "",
    "SMILES": "C(NN)(=O)C1=CC2=C(C=C1O)C=CC=C2",
    "meta_data": {
        "InChI": "InChI=1S/C11H10N2O2/c12-13-11(15)9-5-7-3-1-2-4-8(7)6-10(9)14/h1-6,14H,12H2,(H,13,15)",
        "InChIKey": null,
        "Canonical SMILES": "O=C(NN)C1=CC=2C=CC=CC2C=C1O",
        "Molecular Formula": "C<sub>11</sub>H<sub>10</sub>N<sub>2</sub>O<sub>2</sub>",
        "Molecular Mass": "202.21",
        "Melting Point": "209-211 °C"
    }
}