{
    "cas_no": "19832-98-5",
    "key_name": "4-Methyl-1-tetralone",
    "cn_name": "4-甲基-3,4-二氢-2H-1-萘酮;4-甲基-1-四氢萘酮;",
    "alternate_name": "1(2<em>H</em>)-Naphthalenone, 3,4-dihydro-4-methyl-;3,4-Dihydro-4-methyl-1(2<em>H</em>)-naphthalenone;4-Methyl-1-tetralone;3,4-Dihydro-4-methylnaphthalen-1(2<em>H</em>)-one;4-Methyl-α-tetralone;4-Methyltetralone;(±)-4-Methyl-1-tetralone;(±)-4-Methyl-α-tetralone;(<em>RS</em>)-4-Methyl-1-tetralone;(±)-1-Methyl-4-tetralone;NSC 65631;4-Methyl-3,4-dihydro-2<em>H</em>-naphthalen-1-one",
    "duplicated_cas_no": "98301-33-8",
    "SMILES": "CC1C=2C(C(=O)CC1)=CC=CC2",
    "meta_data": {
        "InChI": "InChI=1S/C11H12O/c1-8-6-7-11(12)10-5-3-2-4-9(8)10/h2-5,8H,6-7H2,1H3",
        "InChIKey": null,
        "Canonical SMILES": "O=C1C=2C=CC=CC2C(C)CC1",
        "Molecular Formula": "C<sub>11</sub>H<sub>12</sub>O",
        "Molecular Mass": "160.21",
        "Boiling Point": "145-160 °C",
        "Density": "1.0779 g/cm³ @ Temp: 19 °C"
    }
}