{
    "cas_no": "6876-13-7",
    "key_name": "<em>cis</em>-Pinane",
    "cn_name": "蒎烷;(1alpha,2beta,5alpha)-2,6,6-三甲基二环[3.1.1]庚烷;",
    "alternate_name": "Bicyclo[3.1.1]heptane, 2,6,6-trimethyl-, (1<em>R</em>,2<em>S</em>,5<em>R</em>)-<em>rel</em>-;Pinane, stereoisomer;Bicyclo[3.1.1]heptane, 2,6,6-trimethyl-, (1α,2β,5α)-;<em>rel</em>-(1<em>R</em>,2<em>S</em>,5<em>R</em>)-2,6,6-Trimethylbicyclo[3.1.1]heptane;<em>cis</em>-Pinane;(±)-<em>trans</em>-Pinane",
    "duplicated_cas_no": "112456-47-0",
    "SMILES": "CC1(C)[C@]2(C[C@@]1(CC[C@H]2C)[H])[H]",
    "meta_data": {
        "InChI": "InChI=1/C10H18/c1-7-4-5-8-6-9(7)10(8,2)3/h7-9H,4-6H2,1-3H3/t7-,8+,9+/s2",
        "InChIKey": null,
        "Canonical SMILES": "CC1CCC2CC1C2(C)C",
        "Molecular Formula": "C<sub>10</sub>H<sub>18</sub>",
        "Molecular Mass": "138.25",
        "Boiling Point": "167-168 °C @ Press: 760 Torr",
        "Density": "0.8590 g/cm³ @ Temp: 20 °C"
    }
}