{
    "cas_no": "125-60-0",
    "key_name": "Fenpiverinium bromide",
    "cn_name": "苯维溴铵;苯维溴铵;",
    "alternate_name": "Piperidinium, 1-(4-amino-4-oxo-3,3-diphenylbutyl)-1-methyl-, bromide (1:1);Piperidinium, 1-(3-carbamoyl-3,3-diphenylpropyl)-1-methyl-, bromide;1-(3-Carbamoyl-3,3-diphenylpropyl)-1-methylpiperidinium bromide;Piperidinium, 1-(4-amino-4-oxo-3,3-diphenylbutyl)-1-methyl-, bromide;2-(Diphenylpiperidinoethyl)acetamide methobromide;α,α-Diphenyl-γ-piperidylbutyramide methobromide;Resantin;U 0385;Fenpiverinium bromide;α,α-Diphenyl-1-piperidinebutyramide methobromide;2,2-Diphenyl-2-(2-piperidinoethyl)acetamide methyl bromide;2-(Diphenylpiperidinoethyl)acetamide methyl bromide;12494Hoechst;Hoechst 12494;Bulgar amide;Baralgin-Amid;Baralgin-Amide;Fenpipramide methobromide",
    "duplicated_cas_no": "13987-04-7",
    "SMILES": "C(CC[N+]1(C)CCCCC1)(C(N)=O)(C2=CC=CC=C2)C3=CC=CC=C3.[Br-]",
    "meta_data": {
        "InChI": "InChI=1S/C22H28N2O.BrH/c1-24(16-9-4-10-17-24)18-15-22(21(23)25,19-11-5-2-6-12-19)20-13-7-3-8-14-20;/h2-3,5-8,11-14H,4,9-10,15-18H2,1H3,(H-,23,25);1H",
        "InChIKey": null,
        "Canonical SMILES": "[Br-].O=C(N)C(C=1C=CC=CC1)(C=2C=CC=CC2)CC[N+]3(C)CCCCC3",
        "Molecular Formula": "C<sub>22</sub>H<sub>29</sub>N<sub>2</sub>O.Br",
        "Molecular Mass": "",
        "Melting Point": "178 °C"
    }
}