{
    "cas_no": "4849-32-5",
    "key_name": "Karbutilate",
    "cn_name": "隆草特;FMC 11092;NIA 11092;特威隆;",
    "alternate_name": "Carbamic acid, <em>N</em>-(1,1-dimethylethyl)-, 3-[[(dimethylamino)carbonyl]amino]phenyl ester;Carbamic acid, <em>tert</em>-butyl-, ester with 3-(<em>m</em>-hydroxyphenyl)-1,1-dimethylurea;Carbamic acid, (1,1-dimethylethyl)-, 3-[[(dimethylamino)carbonyl]amino]phenyl ester;<em>m</em>-(3,3-Dimethylureido)phenyl <em>tert</em>-butylcarbamate;Tandex;NIA 11092;1,1-Dimethyl-3-(<em>m</em>-<em>tert</em>-butylcarbamoyloxyphenyl)urea;1,1-Dimethyl-3-[3-(<em>N</em>-<em>tert</em>-butylcarbamoyloxy)phenyl]urea;Karbutilate;3-(3,3-Dimethylureido)phenyl <em>N</em>-<em>tert</em>-butylcarbamate;3-(3,3-Dimethylureido)phenyl <em>tert</em>-butylcarbamate;Carbutilate;NSC 222508;Backup Flowable;Karbutylate",
    "duplicated_cas_no": "12705-28-1;37270-98-7",
    "SMILES": "N(C(N(C)C)=O)C1=CC(OC(NC(C)(C)C)=O)=CC=C1",
    "meta_data": {
        "InChI": "InChI=1S/C14H21N3O3/c1-14(2,3)16-13(19)20-11-8-6-7-10(9-11)15-12(18)17(4)5/h6-9H,1-5H3,(H,15,18)(H,16,19)",
        "InChIKey": null,
        "Canonical SMILES": "O=C(OC1=CC=CC(=C1)NC(=O)N(C)C)NC(C)(C)C",
        "Molecular Formula": "C<sub>14</sub>H<sub>21</sub>N<sub>3</sub>O<sub>3</sub>",
        "Molecular Mass": "279.33",
        "Melting Point": "169-169.5 °C"
    }
}