{
    "cas_no": "22246-05-5",
    "key_name": "3,4-Dihydro-7-hydroxy-1(2<em>H</em>)-isoquinolinone",
    "cn_name": null,
    "alternate_name": "1(2<em>H</em>)-Isoquinolinone, 3,4-dihydro-7-hydroxy-;Isocarbostyril, 3,4-dihydro-7-hydroxy-;3,4-Dihydro-7-hydroxy-1(2<em>H</em>)-isoquinolinone;7-Hydroxy-3,4-dihydro-2<em>H</em>-isoquinolin-1-one;7-Hydroxy-3,4-dihydroisoquinolin-1(2<em>H</em>)-one",
    "duplicated_cas_no": "",
    "SMILES": "O=C1C=2C(=CC=C(O)C2)CCN1",
    "meta_data": {
        "InChI": "InChI=1S/C9H9NO2/c11-7-2-1-6-3-4-10-9(12)8(6)5-7/h1-2,5,11H,3-4H2,(H,10,12)",
        "InChIKey": null,
        "Canonical SMILES": "O=C1NCCC2=CC=C(O)C=C12",
        "Molecular Formula": "C<sub>9</sub>H<sub>9</sub>NO<sub>2</sub>",
        "Molecular Mass": "163.17",
        "Melting Point": "204-206 °C"
    }
}