{
    "cas_no": "609-85-8",
    "key_name": "2-Amino-3,5-dibromobenzoic acid",
    "cn_name": "2-氨基-3,5-二溴苯甲酸;",
    "alternate_name": "Benzoic acid, 2-amino-3,5-dibromo-;Anthranilic acid, 3,5-dibromo-;2-Amino-3,5-dibromobenzoic acid;3,5-Dibromoanthranilic acid;NA 693;NSC 886",
    "duplicated_cas_no": "",
    "SMILES": "C(O)(=O)C1=C(N)C(Br)=CC(Br)=C1",
    "meta_data": {
        "InChI": "InChI=1S/C7H5Br2NO2/c8-3-1-4(7(11)12)6(10)5(9)2-3/h1-2H,10H2,(H,11,12)",
        "InChIKey": null,
        "Canonical SMILES": "O=C(O)C=1C=C(Br)C=C(Br)C1N",
        "Molecular Formula": "C<sub>7</sub>H<sub>5</sub>Br<sub>2</sub>NO<sub>2</sub>",
        "Molecular Mass": "294.93",
        "Melting Point": "235-235.5 °C"
    }
}