{
    "cas_no": "18220-90-1",
    "key_name": "4-Ethylbenzophenone",
    "cn_name": "4-乙基苯甲酮;4-乙基苯并苯基酮,96%;4-乙基二苯酮;",
    "alternate_name": "Methanone, (4-ethylphenyl)phenyl-;Benzophenone, 4-ethyl-;(4-Ethylphenyl)phenylmethanone;<em>p</em>-Ethylbenzophenone;4-Ethylbenzophenone",
    "duplicated_cas_no": "",
    "SMILES": "C(=O)(C1=CC=C(CC)C=C1)C2=CC=CC=C2",
    "meta_data": {
        "InChI": "InChI=1S/C15H14O/c1-2-12-8-10-14(11-9-12)15(16)13-6-4-3-5-7-13/h3-11H,2H2,1H3",
        "InChIKey": null,
        "Canonical SMILES": "O=C(C=1C=CC=CC1)C2=CC=C(C=C2)CC",
        "Molecular Formula": "C<sub>15</sub>H<sub>14</sub>O",
        "Molecular Mass": "210.27",
        "Boiling Point": "325-326 °C @ Press: 720 Torr",
        "Density": "1.0690 g/cm³ @ Temp: 20 °C"
    }
}