{
    "cas_no": "50488-44-3",
    "key_name": "4-Bromo-2-methylquinoline",
    "cn_name": "4-溴-2-甲基喹啉;",
    "alternate_name": "Quinoline, 4-bromo-2-methyl-;4-Bromo-2-methylquinoline;4-Bromoquinaldine",
    "duplicated_cas_no": "",
    "SMILES": "BrC=1C2=C(N=C(C)C1)C=CC=C2",
    "meta_data": {
        "InChI": "InChI=1S/C10H8BrN/c1-7-6-9(11)8-4-2-3-5-10(8)12-7/h2-6H,1H3",
        "InChIKey": null,
        "Canonical SMILES": "BrC1=CC(=NC=2C=CC=CC12)C",
        "Molecular Formula": "C<sub>10</sub>H<sub>8</sub>BrN",
        "Molecular Mass": "222.08",
        "Boiling Point": "88-90 °C @ Press: 1 Torr"
    }
}