{
    "cas_no": "25067-59-8",
    "key_name": "Poly(<em>N</em>-vinylcarbazole)",
    "cn_name": null,
    "alternate_name": "9<em>H</em>-Carbazole, 9-ethenyl-, homopolymer;Carbazole, 9-vinyl-, polymers;Carbazole, 9-vinyl-, homopolymer;Carbazole, 9-vinyl-, polymer;Poly(<em>N</em>-vinylcarbazole);Poly(9-vinylcarbazole);Poly(vinylcarbazole);<em>N</em>-Vinylcarbazole polymer;Vinylcarbazole polymer;9-Vinylcarbazole polymer;Luvican M 150;9-Vinylcarbazole homopolymer;Luvican M 170;Tuvical 210;<em>N</em>-Vinylcarbazole homopolymer;DH 700;PVK;GH 17;GH 17 (vinyl polymer);PVCz;9-Vinyl-9<em>H</em>-carbazole homopolymer;PVCz 8K",
    "duplicated_cas_no": "12626-84-5;94525-95-8;130243-04-8;130243-05-9;170473-87-7;187681-10-3;831215-86-2;1632315-32-2;2922663-10-1",
    "SMILES": "C(=C)N1C=2C(C=3C1=CC=CC3)=CC=CC2",
    "meta_data": {
        "InChI": "InChI=1S/C14H11N/c1-2-15-13-9-5-3-7-11(13)12-8-4-6-10-14(12)15/h2-10H,1H2",
        "InChIKey": null,
        "Canonical SMILES": "C=CN1C=2C=CC=CC2C=3C=CC=CC31",
        "Molecular Formula": "(C<sub>14</sub>H<sub>11</sub>N)<sub>x</sub>",
        "Molecular Mass": "",
        "Melting Point": "220-225 °C",
        "Density": "1.2 g/cm³"
    }
}