{
    "cas_no": "1711-05-3",
    "key_name": "3-Methoxybenzoyl chloride",
    "cn_name": "3-甲氧基苯甲酰氯;",
    "alternate_name": "Benzoyl chloride, 3-methoxy-;<em>m</em>-Anisoyl chloride;3-Methoxybenzoyl chloride;<em>m</em>-Methoxybenzoyl chloride;3-Methoxybenzoic acid chloride;3-Anisoyl chloride;m-Anisoyl chloride",
    "duplicated_cas_no": "",
    "SMILES": "C(Cl)(=O)C1=CC(OC)=CC=C1",
    "meta_data": {
        "InChI": "InChI=1S/C8H7ClO2/c1-11-7-4-2-3-6(5-7)8(9)10/h2-5H,1H3",
        "InChIKey": null,
        "Canonical SMILES": "O=C(Cl)C=1C=CC=C(OC)C1",
        "Molecular Formula": "C<sub>8</sub>H<sub>7</sub>ClO<sub>2</sub>",
        "Molecular Mass": "170.59",
        "Boiling Point": "118-120 °C @ Press: 11 Torr",
        "Melting Point": "101-104 °C"
    }
}