{
    "cas_no": "2446-83-5",
    "key_name": "Diisopropyl azodicarboxylate",
    "cn_name": "偶氮二甲酸二异丙酯;",
    "alternate_name": "1,2-Diazenedicarboxylic acid, 1,2-bis(1-methylethyl) ester;Formic acid, azodi-, diisopropyl ester;Diazenedicarboxylic acid, bis(1-methylethyl) ester;Diisopropyl azodiformate;Diisopropyl azodicarboxylate;Diisopropyl diazodicarboxylate;DIAD;Azodicarboxylic acid diisopropyl ester;Diisopropyl diazene-1,2-dicarboxylate",
    "duplicated_cas_no": "1002737-17-8;1954716-05-2",
    "SMILES": "C(N=NC(OC(C)C)=O)(OC(C)C)=O",
    "meta_data": {
        "InChI": "InChI=1S/C8H14N2O4/c1-5(2)13-7(11)9-10-8(12)14-6(3)4/h5-6H,1-4H3",
        "InChIKey": null,
        "Canonical SMILES": "O=C(N=NC(=O)OC(C)C)OC(C)C",
        "Molecular Formula": "C<sub>8</sub>H<sub>14</sub>N<sub>2</sub>O<sub>4</sub>",
        "Molecular Mass": "202.21",
        "Boiling Point": "75.5 °C @ Press: 0.25 Torr",
        "Density": "1.420 g/cm³ (liquid)"
    }
}