{
    "cas_no": "83-33-0",
    "key_name": "1-Indanone",
    "cn_name": "1-茚酮;",
    "alternate_name": "1<em>H</em>-Inden-1-one, 2,3-dihydro-;1-Indanone;Indanone;2,3-Dihydro-1<em>H</em>-inden-1-one;α-Hydrindone;1-Indone;α-Indanone;2,3-Dihydro-1-indenone;NSC 2581;1<em>H</em>-Indan-1-one;1-Oxobenzocyclopentane",
    "duplicated_cas_no": "",
    "SMILES": "O=C1C=2C(=CC=CC2)CC1",
    "meta_data": {
        "InChI": "InChI=1S/C9H8O/c10-9-6-5-7-3-1-2-4-8(7)9/h1-4H,5-6H2",
        "InChIKey": null,
        "Canonical SMILES": "O=C1C=2C=CC=CC2CC1",
        "Molecular Formula": "C<sub>9</sub>H<sub>8</sub>O",
        "Molecular Mass": "132.16",
        "Boiling Point": "243 °C",
        "Melting Point": "42 °C",
        "Density": "1.1030 g/cm³"
    }
}