{
    "cas_no": "77-79-2",
    "key_name": "3-Sulfolene",
    "cn_name": null,
    "alternate_name": "Thiophene, 2,5-dihydro-, 1,1-dioxide;2,5-Dihydrothiophene 1,1-dioxide;3-Sulfolene;2,5-Dihydrothiophene sulfone;2,5-Dihydrothiophene dioxide;β-Sulfolene;2,5-Dihydrothiophene <em>S</em>,<em>S</em>-dioxide;Sulfolene;Sulpholene;NSC 48532;NSC 56373;2,5-Dihydrothiophen-1,1-dioxide;Butadiene sulfone;2,5-Dihydro-1λ6-thiophene-1,1-dione",
    "duplicated_cas_no": "",
    "SMILES": "O=S1(=O)CC=CC1",
    "meta_data": {
        "InChI": "InChI=1S/C4H6O2S/c5-7(6)3-1-2-4-7/h1-2H,3-4H2",
        "InChIKey": null,
        "Canonical SMILES": "O=S1(=O)CC=CC1",
        "Molecular Formula": "C<sub>4</sub>H<sub>6</sub>O<sub>2</sub>S",
        "Molecular Mass": "118.15",
        "Boiling Point": "149.5-150 °C @ Press: 15 Torr",
        "Melting Point": "64-65.5 °C"
    }
}