{
    "cas_no": "877060-48-5",
    "key_name": "1,1-Dimethylethyl 3-iodo-1<em>H</em>-pyrrolo[3,2-<em>c</em>]pyridine-1-carboxylate",
    "cn_name": null,
    "alternate_name": "1<em>H</em>-Pyrrolo[3,2-<em>c</em>]pyridine-1-carboxylic acid, 3-iodo-, 1,1-dimethylethyl ester;1,1-Dimethylethyl 3-iodo-1<em>H</em>-pyrrolo[3,2-<em>c</em>]pyridine-1-carboxylate;3-Iodopyrrolo[3,2-<em>c</em>]pyridine-1-carboxylic acid tert-butyl ester",
    "duplicated_cas_no": "",
    "SMILES": "C(OC(C)(C)C)(=O)N1C=2C(C(I)=C1)=CN=CC2",
    "meta_data": {
        "InChI": "InChI=1S/C12H13IN2O2/c1-12(2,3)17-11(16)15-7-9(13)8-6-14-5-4-10(8)15/h4-7H,1-3H3",
        "InChIKey": null,
        "Canonical SMILES": "O=C(OC(C)(C)C)N1C=C(I)C=2C=NC=CC21",
        "Molecular Formula": "C<sub>12</sub>H<sub>13</sub>IN<sub>2</sub>O<sub>2</sub>",
        "Molecular Mass": "344.15",
        "Melting Point": "127-128 °C"
    }
}