{
    "cas_no": "50712-63-5",
    "key_name": "α-Methyl-4-nitrobenzeneacetonitrile",
    "cn_name": "2-(4-硝基苯基)丙腈;",
    "alternate_name": "Benzeneacetonitrile, α-methyl-4-nitro-;α-Methyl-4-nitrobenzeneacetonitrile;2-(4-Nitrophenyl)propionitrile;2-(4-Nitrophenyl)propiononitrile;2-(4-Nitrophenyl)propanenitrile",
    "duplicated_cas_no": "",
    "SMILES": "C(C#N)(C)C1=CC=C(N(=O)=O)C=C1",
    "meta_data": {
        "InChI": "InChI=1S/C9H8N2O2/c1-7(6-10)8-2-4-9(5-3-8)11(12)13/h2-5,7H,1H3",
        "InChIKey": null,
        "Canonical SMILES": "N#CC(C1=CC=C(C=C1)N(=O)=O)C",
        "Molecular Formula": "C<sub>9</sub>H<sub>8</sub>N<sub>2</sub>O<sub>2</sub>",
        "Molecular Mass": "176.17",
        "Melting Point": "73-75 °C"
    }
}