{
    "cas_no": "15872-44-3",
    "key_name": "4-(Undecyloxy)benzoic acid",
    "cn_name": "4-十一氧基苯甲酸;",
    "alternate_name": "Benzoic acid, 4-(undecyloxy)-;Benzoic acid, <em>p</em>-(undecyloxy)-;4-(Undecyloxy)benzoic acid;<em>p</em>-<em>n</em>-Undecyloxybenzoic acid",
    "duplicated_cas_no": "",
    "SMILES": "O(CCCCCCCCCCC)C1=CC=C(C(O)=O)C=C1",
    "meta_data": {
        "InChI": "InChI=1S/C18H28O3/c1-2-3-4-5-6-7-8-9-10-15-21-17-13-11-16(12-14-17)18(19)20/h11-14H,2-10,15H2,1H3,(H,19,20)",
        "InChIKey": null,
        "Canonical SMILES": "O=C(O)C1=CC=C(OCCCCCCCCCCC)C=C1",
        "Molecular Formula": "C<sub>18</sub>H<sub>28</sub>O<sub>3</sub>",
        "Molecular Mass": "292.41",
        "Melting Point": "121 °C (polymorph)"
    }
}