{
    "cas_no": "2873-29-2",
    "key_name": "Tri-<em>O</em>-acetyl-<span class=\"text-smallcaps\">D</span>-glucal",
    "cn_name": "乙酰化葡萄烯糖;3,4,6-三乙酰基-D-葡萄烯糖;",
    "alternate_name": "<span class=\"text-smallcaps\">D</span>-<em>arabino</em>-Hex-1-enitol, 1,5-anhydro-2-deoxy-, 3,4,6-triacetate;<span class=\"text-smallcaps\">D</span>-<em>arabino</em>-Hex-1-enopyranose, 1,2-dideoxy-, triacetate;<span class=\"text-smallcaps\">D</span>-<em>arabino</em>-Hex-1-enitol, 1,5-anhydro-2-deoxy-, triacetate;3,4,6-Tri-<em>O</em>-acetyl-<span class=\"text-smallcaps\">D</span>-glucal;3,4,6-Tri-<em>O</em>-acetyl-1,2-dideoxy-<span class=\"text-smallcaps\">D</span>-<em>arabino</em>-hex-1-enopyranose;<span class=\"text-smallcaps\">D</span>-Glucal triacetate;Tri-<em>O</em>-acetyl-<span class=\"text-smallcaps\">D</span>-glucal;Triacetyl-<span class=\"text-smallcaps\">D</span>-glucal;Tri-<em>O</em>-acetylglucal;3,4,6-Tri-<em>O</em>-acetylglucal;3,4,6-Tris-<em>O</em>-acetyl-<span class=\"text-smallcaps\">D</span>-glucal",
    "duplicated_cas_no": "111160-65-7",
    "SMILES": "O(C(C)=O)[C@H]1[C@H](OC(C)=O)C=CO[C@@H]1COC(C)=O",
    "meta_data": {
        "InChI": "InChI=1S/C12H16O7/c1-7(13)17-6-11-12(19-9(3)15)10(4-5-16-11)18-8(2)14/h4-5,10-12H,6H2,1-3H3/t10-,11-,12+/m1/s1",
        "InChIKey": null,
        "Canonical SMILES": "O=C(OCC1OC=CC(OC(=O)C)C1OC(=O)C)C",
        "Molecular Formula": "C<sub>12</sub>H<sub>16</sub>O<sub>7</sub>",
        "Molecular Mass": "272.25",
        "Boiling Point": "115-125 °C @ Press: 0.01 Torr",
        "Melting Point": "54-55 °C"
    }
}