{
    "cas_no": "15690-25-2",
    "key_name": "(2<em>E</em>)-3-(2-Thienyl)-2-propenoic acid",
    "cn_name": "3-(2-噻吩基)丙烯酸;3-(2-噻吩基)丙烯酸;3-(2-噻吩基)丙烯酸, 98+%;3-(2-噻吩基)丙烯酸, 99+%;2-噻吩丙烯酸;",
    "alternate_name": "2-Propenoic acid, 3-(2-thienyl)-, (2<em>E</em>)-;2-Thiopheneacrylic acid, (<em>E</em>)-;2-Propenoic acid, 3-(2-thienyl)-, (<em>E</em>)-;(2<em>E</em>)-3-(2-Thienyl)-2-propenoic acid;(<em>E</em>)-3-(2-Thienyl)acrylic acid;(<em>E</em>)-3-(Thiophen-2-yl)acrylic acid;<em>trans</em>-3-Thiopheneacrylic acid;(<em>E</em>)-3-(Thiophen-2-yl)-2-propenoic acid;(2E)-3-(2-Thiophenyl)-2-propenoic acid;<em>trans</em>-3-(2-Thienyl)acrylic acid;<em>trans</em>-3-(2-Thienyl)-2-propenoic acid;(E)-3-(Thien-2-yl)acrylic acid",
    "duplicated_cas_no": "",
    "SMILES": "C(=C/C(O)=O)\\C1=CC=CS1",
    "meta_data": {
        "InChI": "InChI=1S/C7H6O2S/c8-7(9)4-3-6-2-1-5-10-6/h1-5H,(H,8,9)/b4-3+",
        "InChIKey": null,
        "Canonical SMILES": "O=C(O)C=CC=1SC=CC1",
        "Molecular Formula": "C<sub>7</sub>H<sub>6</sub>O<sub>2</sub>S",
        "Molecular Mass": "154.19",
        "Melting Point": "146-148 °C"
    }
}