{
    "cas_no": "675-09-2",
    "key_name": "Mesitene lactone",
    "cn_name": "4,6-二甲基-2-吡喃酮;",
    "alternate_name": "2<em>H</em>-Pyran-2-one, 4,6-dimethyl-;Sorbic acid, 5-hydroxy-3-methyl-, δ-lactone;4,6-Dimethyl-2<em>H</em>-pyran-2-one;4,6-Dimethyl-α-pyrone;Mesitene lactone;2,4-Dimethyl-α-pyrone;4,6-Dimethyl-2-pyrone;4,6-Dimethyl-2-pyranone;NSC 402790;4,6-Dimethylpyran-2-one",
    "duplicated_cas_no": "",
    "SMILES": "CC=1C=C(C)OC(=O)C1",
    "meta_data": {
        "InChI": "InChI=1S/C7H8O2/c1-5-3-6(2)9-7(8)4-5/h3-4H,1-2H3",
        "InChIKey": null,
        "Canonical SMILES": "O=C1OC(=CC(=C1)C)C",
        "Molecular Formula": "C<sub>7</sub>H<sub>8</sub>O<sub>2</sub>",
        "Molecular Mass": "124.14",
        "Boiling Point": "245 °C",
        "Melting Point": "51.5 °C"
    }
}