{
    "cas_no": "4098-30-0",
    "key_name": "1,1,2,2,3,3,4,4,5,5,6,6-Dodecamethylcyclohexasilane",
    "cn_name": "十二甲基环己硅烷;",
    "alternate_name": "Cyclohexasilane, 1,1,2,2,3,3,4,4,5,5,6,6-dodecamethyl-;Cyclohexasilane, dodecamethyl-;1,1,2,2,3,3,4,4,5,5,6,6-Dodecamethylcyclohexasilane;Dodecamethylcyclohexasilane;Dodecamethylcyclohexasilylene;NSC 635060;Dodecamethylhexasilacyclohexane;1,1,2,2,3,3,4,4,5,5,6,6-Dodecamethyl-hexasilinane;1,1,2,2,3,3,4,4,5,5,6,6-Dodecamethylhexasilinane",
    "duplicated_cas_no": "37249-18-6",
    "SMILES": "C[Si]1(C)[Si](C)(C)[Si](C)(C)[Si](C)(C)[Si](C)(C)[Si]1(C)C",
    "meta_data": {
        "InChI": "InChI=1S/C12H36Si6/c1-13(2)14(3,4)16(7,8)18(11,12)17(9,10)15(13,5)6/h1-12H3",
        "InChIKey": null,
        "Canonical SMILES": "C[Si]1(C)[Si](C)(C)[Si](C)(C)[Si](C)(C)[Si](C)(C)[Si]1(C)C",
        "Molecular Formula": "C<sub>12</sub>H<sub>36</sub>Si<sub>6</sub>",
        "Molecular Mass": "348.93",
        "Melting Point": "207-209 °C"
    }
}