{
    "cas_no": "403-24-7",
    "key_name": "2-Fluoro-4-nitrobenzoic acid",
    "cn_name": "2-氟-4-硝基苯甲酸;",
    "alternate_name": "Benzoic acid, 2-fluoro-4-nitro-;2-Fluoro-4-nitrobenzoic acid;NSC 190361;2-Fluoro-4-nitrobenzenecarboxylic acid",
    "duplicated_cas_no": "",
    "SMILES": "N(=O)(=O)C1=CC(F)=C(C(O)=O)C=C1",
    "meta_data": {
        "InChI": "InChI=1S/C7H4FNO4/c8-6-3-4(9(12)13)1-2-5(6)7(10)11/h1-3H,(H,10,11)",
        "InChIKey": null,
        "Canonical SMILES": "O=C(O)C1=CC=C(C=C1F)N(=O)=O",
        "Molecular Formula": "C<sub>7</sub>H<sub>4</sub>FNO<sub>4</sub>",
        "Molecular Mass": "185.11",
        "Melting Point": "176-177 °C"
    }
}