{
    "cas_no": "10168-60-2",
    "key_name": "4-Bromo-3-ethylpyridine",
    "cn_name": null,
    "alternate_name": "Pyridine, 4-bromo-3-ethyl-;4-Bromo-3-ethylpyridine",
    "duplicated_cas_no": "",
    "SMILES": "C(C)C=1C(Br)=CC=NC1",
    "meta_data": {
        "InChI": "InChI=1S/C7H8BrN/c1-2-6-5-9-4-3-7(6)8/h3-5H,2H2,1H3",
        "InChIKey": null,
        "Canonical SMILES": "BrC=1C=CN=CC1CC",
        "Molecular Formula": "C<sub>7</sub>H<sub>8</sub>BrN",
        "Molecular Mass": "186.05",
        "Boiling Point": "104 °C @ Press: 24 Torr"
    }
}