{
    "cas_no": "26348-70-9",
    "key_name": "<span class=\"text-smallcaps\">L</span>-Lysine, methyl ester, hydrochloride (1:2)",
    "cn_name": "L-赖氨酸甲酯盐酸盐;L-赖氨酸甲酯二盐酸盐;",
    "alternate_name": "<span class=\"text-smallcaps\">L</span>-Lysine, methyl ester, hydrochloride (1:2);Lysine, methyl ester, dihydrochloride, <span class=\"text-smallcaps\">L</span>-;<span class=\"text-smallcaps\">L</span>-Lysine, methyl ester, dihydrochloride;Methyl <span class=\"text-smallcaps\">L</span>-lysinate dihydrochloride;Lysine methyl ester dihydrochloride;NSC 83256;<span class=\"text-smallcaps\">L</span>-Lysine dihydrochloride methyl ester",
    "duplicated_cas_no": "1926-88-1",
    "SMILES": "[C@H](CCCCN)(C(OC)=O)N.Cl",
    "meta_data": {
        "InChI": "InChI=1S/C7H16N2O2.2ClH/c1-11-7(10)6(9)4-2-3-5-8;;/h6H,2-5,8-9H2,1H3;2*1H/t6-;;/m0../s1",
        "InChIKey": null,
        "Canonical SMILES": "Cl.O=C(OC)C(N)CCCCN",
        "Molecular Formula": "C<sub>7</sub>H<sub>16</sub>N<sub>2</sub>O<sub>2</sub>.2ClH",
        "Molecular Mass": "",
        "Melting Point": "211-212 °C"
    }
}