{
    "cas_no": "585-48-8",
    "key_name": "2,6-Di-<em>tert</em>-butylpyridine",
    "cn_name": "2,6-二叔丁基吡啶;",
    "alternate_name": "Pyridine, 2,6-bis(1,1-dimethylethyl)-;Pyridine, 2,6-di-<em>tert</em>-butyl-;2,6-Bis(1,1-dimethylethyl)pyridine;2,6-Di-<em>tert</em>-butylpyridine;NSC 175805;2,6-Ditert-butylpyridine",
    "duplicated_cas_no": "",
    "SMILES": "C(C)(C)(C)C=1N=C(C(C)(C)C)C=CC1",
    "meta_data": {
        "InChI": "InChI=1S/C13H21N/c1-12(2,3)10-8-7-9-11(14-10)13(4,5)6/h7-9H,1-6H3",
        "InChIKey": null,
        "Canonical SMILES": "N=1C(=CC=CC1C(C)(C)C)C(C)(C)C",
        "Molecular Formula": "C<sub>13</sub>H<sub>21</sub>N",
        "Molecular Mass": "191.31",
        "Boiling Point": "100-101 °C",
        "Melting Point": "2.2 °C",
        "Density": "0.852 g/cm³"
    }
}