{
    "cas_no": "2924-16-5",
    "key_name": "3-Fluorophenylhydrazine hydrochloride",
    "cn_name": null,
    "alternate_name": "Hydrazine, (3-fluorophenyl)-, hydrochloride (1:1);Hydrazine, (<em>m</em>-fluorophenyl)-, hydrochloride;Hydrazine, (3-fluorophenyl)-, monohydrochloride;3-Fluorophenylhydrazine hydrochloride;<em>m</em>-Fluorophenylhydrazine hydrochloride;2-(3-Fluorophenyl)hydrazinium chloride",
    "duplicated_cas_no": "",
    "SMILES": "N(N)C1=CC(F)=CC=C1.Cl",
    "meta_data": {
        "InChI": "InChI=1S/C6H7FN2.ClH/c7-5-2-1-3-6(4-5)9-8;/h1-4,9H,8H2;1H",
        "InChIKey": null,
        "Canonical SMILES": "Cl.FC1=CC=CC(=C1)NN",
        "Molecular Formula": "C<sub>6</sub>H<sub>7</sub>FN<sub>2</sub>.ClH",
        "Molecular Mass": "",
        "Melting Point": "247 °C (decomp)"
    }
}