{
    "cas_no": "376348-67-3",
    "key_name": "2-Methyl-<em>N</em>-[(3-<em>exo</em>)-8-(phenylmethyl)-8-azabicyclo[3.2.1]oct-3-yl]propanamide",
    "cn_name": "N-(8-苄基-8-氮杂双环[3.2.1]辛-3-基-外向)-2-甲基丙酰胺;",
    "alternate_name": "Propanamide, 2-methyl-<em>N</em>-[(3-<em>exo</em>)-8-(phenylmethyl)-8-azabicyclo[3.2.1]oct-3-yl]-;2-Methyl-<em>N</em>-[(3-<em>exo</em>)-8-(phenylmethyl)-8-azabicyclo[3.2.1]oct-3-yl]propanamide",
    "duplicated_cas_no": "1072916-76-7",
    "SMILES": "C(N1[C@]2(C[C@@H](NC(C(C)C)=O)C[C@@]1(CC2)[H])[H])C3=CC=CC=C3",
    "meta_data": {
        "InChI": "InChI=1/C18H26N2O/c1-13(2)18(21)19-15-10-16-8-9-17(11-15)20(16)12-14-6-4-3-5-7-14/h3-7,13,15-17H,8-12H2,1-2H3,(H,19,21)/t15-,16-,17+",
        "InChIKey": null,
        "Canonical SMILES": "O=C(NC1CC2N(CC=3C=CC=CC3)C(CC2)C1)C(C)C",
        "Molecular Formula": "C<sub>18</sub>H<sub>26</sub>N<sub>2</sub>O",
        "Molecular Mass": "286.41",
        "Melting Point": "138-140 °C"
    }
}