{
    "cas_no": "530-44-9",
    "key_name": "4-(Dimethylamino)benzophenone",
    "cn_name": "对二甲氨基二苯甲酮;",
    "alternate_name": "Methanone, [4-(dimethylamino)phenyl]phenyl-;Benzophenone, 4-(dimethylamino)-;[4-(Dimethylamino)phenyl]phenylmethanone;4-(Dimethylamino)benzophenone;<em>p</em>-Benzoyl-<em>N</em>,<em>N</em>-dimethylaniline;<em>N</em>,<em>N</em>-Dimethyl-<em>p</em>-aminobenzophenone;4-Benzoyl-<em>N</em>,<em>N</em>-dimethylaniline;NSC 15962;NSC 28935;4-(Dimethylamino)phenyl phenyl ketone",
    "duplicated_cas_no": "",
    "SMILES": "C(=O)(C1=CC=C(N(C)C)C=C1)C2=CC=CC=C2",
    "meta_data": {
        "InChI": "InChI=1S/C15H15NO/c1-16(2)14-10-8-13(9-11-14)15(17)12-6-4-3-5-7-12/h3-11H,1-2H3",
        "InChIKey": null,
        "Canonical SMILES": "O=C(C=1C=CC=CC1)C2=CC=C(C=C2)N(C)C",
        "Molecular Formula": "C<sub>15</sub>H<sub>15</sub>NO",
        "Molecular Mass": "225.29",
        "Melting Point": "92.5 °C"
    }
}