{
    "cas_no": "108-78-1",
    "key_name": "Melamine",
    "cn_name": "三聚氰胺;蜜胺;",
    "alternate_name": "1,3,5-Triazine-2,4,6-triamine;Melamine;<em>s</em>-Triazine, 4,6-diamino-1,2-dihydro-2-imino-;Cyanuramide;Cyanurotriamide;Cyanurotriamine;2,4,6-Triamino-<em>s</em>-triazine;1,3,5-Triazine-2,4,6(1<em>H</em>,3<em>H</em>,5<em>H</em>)-triimine;Triaminotriazine;Isomelamine;2,4,6-Triaminotriazine;Teoharn;Theoharn;Virset 656-4;2,4,6-Triamino-1,3,5-triazine;<em>s</em>-Triazinetriamine;Pluragard C 133;Pluragard;Triamino-<em>s</em>-triazine;DG 002 (amine);DG 002;ZS 27;ADK Stab ZS 27;Mark ZS 27;Yukamelamine;Spinflam ML 94M;2,4,6-Triamino-1,2,3-triazine;PC 1;NSC 2130;Flammex MEL;Mitsui 2020A;Melamine 2020A;Melafine;Mel F 40;Melamine HM;Micromel 325;T 518;H 882;PMN 500;M 2659;Relugan XD;SM 1013;D-ACE 557;GPH-LD;JLS Melamine;A 11295;Aflammit PMN 500;AF-PMN 500;MEL AR;MC 30;MC 30 (flame retardant);Metopac MMSCC 99;MH 00121;LF 8500 (amine);LF 8500;LF 8500 (crosslinking agent);QY 041;HT 209;Melapure 200;Euban 28-60",
    "duplicated_cas_no": "504-18-7;65544-34-5;67757-43-1;68379-55-5;70371-19-6;94977-27-2;130392-03-9;169314-62-9;1228929-27-8;1399841-69-0;1399841-71-4;1399841-73-6",
    "SMILES": "NC=1N=C(N)N=C(N)N1",
    "meta_data": {
        "InChI": "InChI=1S/C3H6N6/c4-1-7-2(5)9-3(6)8-1/h(H6,4,5,6,7,8,9)",
        "InChIKey": null,
        "Canonical SMILES": "N=1C(=NC(=NC1N)N)N",
        "Molecular Formula": "C<sub>3</sub>H<sub>6</sub>N<sub>6</sub>",
        "Molecular Mass": "126.12",
        "Melting Point": "&lt;250 °C",
        "Density": "1.573 g/cm³ @ Temp: 14 °C"
    }
}