{
    "cas_no": "2892-62-8",
    "key_name": "Dibutyl squarate",
    "cn_name": "方酸二正丁酯;方形酸二丁酯;3,4-二正丁氧基-3-环丁烯-1,2-二酮;",
    "alternate_name": "3-Cyclobutene-1,2-dione, 3,4-dibutoxy-;Cyclobutenedione, dibutoxy-;3,4-Dibutoxy-3-cyclobutene-1,2-dione;1,2-Dibutoxy-1-cyclobutene-3,4-dione;1,2-Dibutoxycyclobutene-3,4-dione;Dibutyl squarate;Squaric acid dibutyl ether;Dibutylquadratate;Squaric acid dibutyl ester;3,4-Dibutoxycyclobut-3-ene-1,2-dione;NSC 113489;Dibutoxy-3-cyclobutene-1,2-dione;Pentanoic acid, 2,3-dioxo-4-[(1-oxopentyl)oxy]cyclobutyl ester",
    "duplicated_cas_no": "1799840-04-2",
    "SMILES": "O(CCCC)C1=C(OCCCC)C(=O)C1=O",
    "meta_data": {
        "InChI": "InChI=1S/C12H18O4/c1-3-5-7-15-11-9(13)10(14)12(11)16-8-6-4-2/h3-8H2,1-2H3",
        "InChIKey": null,
        "Canonical SMILES": "O=C1C(=O)C(OCCCC)=C1OCCCC",
        "Molecular Formula": "C<sub>12</sub>H<sub>18</sub>O<sub>4</sub>",
        "Molecular Mass": "226.27",
        "Boiling Point": "139 °C @ Press: 0.5 Torr"
    }
}