{
    "cas_no": "6485-40-1",
    "key_name": "(-)-Carvone",
    "cn_name": "左旋香芹酮;",
    "alternate_name": "2-Cyclohexen-1-one, 2-methyl-5-(1-methylethenyl)-, (5<em>R</em>)-;<em>p</em>-Mentha-6,8-dien-2-one, (<em>R</em>)-(-)-;2-Cyclohexen-1-one, 2-methyl-5-(1-methylethenyl)-, (<em>R</em>)-;(5<em>R</em>)-2-Methyl-5-(1-methylethenyl)-2-cyclohexen-1-one;(-)-Carvone;<em>l</em>-Carvone;<em>l</em>-1-Methyl-4-isopropenyl-6-cyclohexen-2-one;(-)-(<em>R</em>)-Carvone;(-)-<em>p</em>-Mentha-6,8-dien-2-one;(<em>R</em>)-Carvone;(<em>R</em>)-(-)-Carvone;<span class=\"text-smallcaps\">L</span>-(-)-Carvone;(4<em>R</em>)-(-)-Carvone;<span class=\"text-smallcaps\">L</span>-Carvone;R-(-)-Carvone;(R)-Carvone;(-)-(5<em>R</em>)-Carvone;(5R)-2-Methyl-5-(prop-1-en-2-yl)cyclohex-2-en-1-one;Laevo carvone;(5<em>R</em>)-2-Methyl-5-prop-1-en-2-ylcyclohex-2-en-1-one",
    "duplicated_cas_no": "3031166-06-7",
    "SMILES": "C(C)(=C)[C@H]1CC(=O)C(C)=CC1",
    "meta_data": {
        "InChI": "InChI=1S/C10H14O/c1-7(2)9-5-4-8(3)10(11)6-9/h4,9H,1,5-6H2,2-3H3/t9-/m1/s1",
        "InChIKey": null,
        "Canonical SMILES": "O=C1C(=CCC(C(=C)C)C1)C",
        "Molecular Formula": "C<sub>10</sub>H<sub>14</sub>O",
        "Molecular Mass": "150.22",
        "Boiling Point": "228.5 °C",
        "Melting Point": "&lt;25 °C",
        "Density": "0.9543 g/cm³ @ Temp: 25 °C"
    }
}