{
    "cas_no": "496-63-9",
    "key_name": "3-Hydroxy-4-pyrone",
    "cn_name": null,
    "alternate_name": "4<em>H</em>-Pyran-4-one, 3-hydroxy-;3-Hydroxy-4<em>H</em>-pyran-4-one;Pyromeconic acid;3-Hydroxypyran-4-one;Pyrocomenic acid;3-Hydroxy-4-pyrone;NSC 78608",
    "duplicated_cas_no": "",
    "SMILES": "O=C1C(O)=COC=C1",
    "meta_data": {
        "InChI": "InChI=1S/C5H4O3/c6-4-1-2-8-3-5(4)7/h1-3,7H",
        "InChIKey": null,
        "Canonical SMILES": "O=C1C=COC=C1O",
        "Molecular Formula": "C<sub>5</sub>H<sub>4</sub>O<sub>3</sub>",
        "Molecular Mass": "112.08",
        "Melting Point": "117-118 °C"
    }
}