{
    "cas_no": "58186-27-9",
    "key_name": "Idebenone",
    "cn_name": "艾地苯醌;6-(10-羟基癸基)-2,3-二甲氧基-5-甲基-1,4-苯醌;",
    "alternate_name": "2,5-Cyclohexadiene-1,4-dione, 2-(10-hydroxydecyl)-5,6-dimethoxy-3-methyl-;2-(10-Hydroxydecyl)-5,6-dimethoxy-3-methyl-2,5-cyclohexadiene-1,4-dione;2,3-Dimethoxy-5-methyl-6-(10-hydroxydecyl)-1,4-benzoquinone;CV 2619;Idebenone;2,3-Dimethoxy-6-(10-hydroxydecyl)-5-methyl-1,4-benzoquinone;Avan;Daruma;Mnesis;2-(10-Hydroxydecyl)-5,6-dimethoxy-3-methylcyclohexa-2,5-diene-1,4-dione;Raxone;2-(10-Hydroxy-decyl)-5,6-dimethoxy-3-methyl-[1,4]benzoquinone;Sovrima;Hydroxydecyl ubiquinone",
    "duplicated_cas_no": "",
    "SMILES": "O(C)C1=C(OC)C(=O)C(C)=C(CCCCCCCCCCO)C1=O",
    "meta_data": {
        "InChI": "InChI=1S/C19H30O5/c1-14-15(12-10-8-6-4-5-7-9-11-13-20)17(22)19(24-3)18(23-2)16(14)21/h20H,4-13H2,1-3H3",
        "InChIKey": null,
        "Canonical SMILES": "O=C1C(OC)=C(OC)C(=O)C(=C1C)CCCCCCCCCCO",
        "Molecular Formula": "C<sub>19</sub>H<sub>30</sub>O<sub>5</sub>",
        "Molecular Mass": "338.44",
        "Melting Point": "46-50 °C"
    }
}