{
    "cas_no": "1527-12-4",
    "key_name": "2-(Phenylthio)benzoic acid",
    "cn_name": null,
    "alternate_name": "Benzoic acid, 2-(phenylthio)-;Benzoic acid, <em>o</em>-(phenylthio)-;2-(Phenylthio)benzoic acid;2-Carboxydiphenyl sulfide;NSC 40917;EN 300-91827;2-Phenylsulfanylbenzoic acid",
    "duplicated_cas_no": "",
    "SMILES": "S(C1=C(C(O)=O)C=CC=C1)C2=CC=CC=C2",
    "meta_data": {
        "InChI": "InChI=1S/C13H10O2S/c14-13(15)11-8-4-5-9-12(11)16-10-6-2-1-3-7-10/h1-9H,(H,14,15)",
        "InChIKey": null,
        "Canonical SMILES": "O=C(O)C=1C=CC=CC1SC=2C=CC=CC2",
        "Molecular Formula": "C<sub>13</sub>H<sub>10</sub>O<sub>2</sub>S",
        "Molecular Mass": "230.28",
        "Melting Point": "167 °C"
    }
}