{
    "cas_no": "2147-83-3",
    "key_name": "1,3-Dihydro-1-(1,2,3,6-tetrahydro-4-pyridinyl)-2<em>H</em>-benzimidazole-2-one",
    "cn_name": "1,3-二氢-1-(1,2,3,6-四氢-4-吡啶基)-2H-苯并咪唑-2-酮;",
    "alternate_name": "2<em>H</em>-Benzimidazol-2-one, 1,3-dihydro-1-(1,2,3,6-tetrahydro-4-pyridinyl)-;2-Benzimidazolinone, 1-(1,2,3,6-tetrahydro-4-pyridyl)-;1,3-Dihydro-1-(1,2,3,6-tetrahydro-4-pyridinyl)-2<em>H</em>-benzimidazol-2-one;1-(1,2,3,6-Tetrahydro-4-pyridyl)-2-benzimidazolinone;R 4748;1,3-Dihydro-1-(1,2,3,6-tetrahydro-4-pyridinyl)-2<em>H</em>-benzimidazole-2-one;NSC 88883;1-(1,2,3,6-Tetrahydropyridin-4-yl)-1,3-dihydrobenzimidazol-2-one;1-(1,2,3,6-Tetrahydropyridin-4-yl)-1<em>H</em>-benzo[<em>d</em>]imidazol-2(3<em>H</em>)-one;1-(1,2,3,6-Tetrahydropyridin-4-yl)-2,3-dihydro-1<em>H</em>-1,3-benzodiazol-2-one;3-(1,2,3,6-Tetrahydropyridin-4-yl)-1<em>H</em>-benzimidazol-2-one",
    "duplicated_cas_no": "",
    "SMILES": "O=C1N(C=2C(N1)=CC=CC2)C=3CCNCC3",
    "meta_data": {
        "InChI": "InChI=1S/C12H13N3O/c16-12-14-10-3-1-2-4-11(10)15(12)9-5-7-13-8-6-9/h1-5,13H,6-8H2,(H,14,16)",
        "InChIKey": null,
        "Canonical SMILES": "O=C1NC=2C=CC=CC2N1C3=CCNCC3",
        "Molecular Formula": "C<sub>12</sub>H<sub>13</sub>N<sub>3</sub>O",
        "Molecular Mass": "215.25",
        "Melting Point": "184-190 °C"
    }
}