{
    "cas_no": "51851-37-7",
    "key_name": "1<em>H</em>,1<em>H</em>,2<em>H</em>,2<em>H</em>-Perfluorooctyltriethoxysilane",
    "cn_name": "全氟辛基三乙氧基硅烷;1H,1H,2H,2H-全氟辛基三乙氧基硅烷;",
    "alternate_name": "Silane, triethoxy(3,3,4,4,5,5,6,6,7,7,8,8,8-tridecafluorooctyl)-;Triethoxy(3,3,4,4,5,5,6,6,7,7,8,8,8-tridecafluorooctyl)silane;1,1,2,2-Tetrahydroperfluorooctyltriethoxysilane;2-Perfluorohexylethyltriethoxysilane;1<em>H</em>,1<em>H</em>,2<em>H</em>,2<em>H</em>-Perfluorooctyltriethoxysilane;VPS 8261;Dynasylan F 8261;T 2494;Tridecafluoro-1,1,2,2-tetrahydrooctyltriethoxysilane;Dynasylan F 8262;SIT 8175;13F (fluorosilane);13F;Dynasylan DSF 8261;DSF 8261;F 8261;3,3,4,4,5,5,6,6,7,7,8,8,8-Tridecafluorooctyltriethoxysilane;SIT 8175.0;Repell 2111;T 1770;Triethoxy-1<em>H</em>,1<em>H</em>,2<em>H</em>,2<em>H</em>-tridecafluorooctylsilane;Tridecafluorooctyltriethoxysilane;Dynasylan 8261;FAS 13;Actyflon G 617;Triethoxy-1H,1H,2H,2H-tridecafluoro-n-octylsilane;(3,3,4,4,5,5,6,6,7,7,8,8,8-Tridecafluoroctyl)triethoxysilane;FAS 14;FAS 13E;G 617;FAS 1313;Triethoxy-1<em>H</em>,1<em>H</em>,2<em>H</em>,2<em>H</em>-tridecafluoro-<em>n</em>-octylsilane;Sylan F 8263;Dynasylan F 8263;F 8263;Triethoxy(1<em>H</em>,1<em>H</em>,2<em>H</em>,2<em>H</em>-perfluoro-1-octyl)silane;Fluowet FS 600;KH-F 823",
    "duplicated_cas_no": "295329-01-0;1220778-92-6",
    "SMILES": "[Si](CCC(C(C(C(C(C(F)(F)F)(F)F)(F)F)(F)F)(F)F)(F)F)(OCC)(OCC)OCC",
    "meta_data": {
        "InChI": "InChI=1S/C14H19F13O3Si/c1-4-28-31(29-5-2,30-6-3)8-7-9(15,16)10(17,18)11(19,20)12(21,22)13(23,24)14(25,26)27/h4-8H2,1-3H3",
        "InChIKey": null,
        "Canonical SMILES": "FC(F)(F)C(F)(F)C(F)(F)C(F)(F)C(F)(F)C(F)(F)CC[Si](OCC)(OCC)OCC",
        "Molecular Formula": "C<sub>14</sub>H<sub>19</sub>F<sub>13</sub>O<sub>3</sub>Si",
        "Molecular Mass": "510.36",
        "Boiling Point": "86 °C @ Press: 1.5 Torr",
        "Melting Point": "&lt;-38 °C",
        "Density": "1.351 g/cm³"
    }
}