{
    "cas_no": "5334-56-5",
    "key_name": "1-Methyl-1,5-dihydropyrazolo[3,4-<em>d</em>]pyrimidin-4-one",
    "cn_name": null,
    "alternate_name": "4<em>H</em>-Pyrazolo[3,4-<em>d</em>]pyrimidin-4-one, 1,5-dihydro-1-methyl-;1<em>H</em>-Pyrazolo[3,4-<em>d</em>]pyrimidin-4-ol, 1-methyl-;1,5-Dihydro-1-methyl-4<em>H</em>-pyrazolo[3,4-<em>d</em>]pyrimidin-4-one;4-Hydroxy-1-methylpyrazolo[3,4-<em>d</em>]pyrimidine;9-Methylallopurinol;NSC 1439;NSC 635171;1-Methyl-1,5-dihydropyrazolo[3,4-<em>d</em>]pyrimidin-4-one;1-Methyl-1<em>H</em>-pyrazolo[3,4-<em>d</em>]pyrimidin-4-ol;1-Methyl-1<em>H</em>-pyrazolo[3,4-<em>d</em>]pyrimidin-4(5<em>H</em>)-one;1-Methyl-1<em>H</em>,4<em>H</em>,5<em>H</em>-pyrazolo[3,4-<em>d</em>]pyrimidin-4-one;1-Methyl-1,5-dihydro-4<em>H</em>-pyrazolo[3,4-<em>d</em>]pyrimidin-4-one",
    "duplicated_cas_no": "",
    "SMILES": "O=C1C2=C(N(C)N=C2)NC=N1",
    "meta_data": {
        "InChI": "InChI=1S/C6H6N4O/c1-10-5-4(2-9-10)6(11)8-3-7-5/h2-3H,1H3,(H,7,8,11)",
        "InChIKey": null,
        "Canonical SMILES": "O=C1N=CNC2=C1C=NN2C",
        "Molecular Formula": "C<sub>6</sub>H<sub>6</sub>N<sub>4</sub>O",
        "Molecular Mass": "150.14",
        "Melting Point": "&gt;300 °C"
    }
}