{
    "cas_no": "5558-04-3",
    "key_name": "α-Cyclopropyl-α-methylbenzenemethanol",
    "cn_name": "1-环丙基-1-苯基乙醇;",
    "alternate_name": "Benzenemethanol, α-cyclopropyl-α-methyl-;Benzyl alcohol, α-cyclopropyl-α-methyl-;α-Cyclopropyl-α-methylbenzenemethanol;1-Phenyl-1-cyclopropylethanol;1-Cyclopropyl-1-phenylethanol;NSC 77105;1-Cyclopropyl-1-phenylethan-1-ol",
    "duplicated_cas_no": "",
    "SMILES": "C(C)(O)(C1CC1)C2=CC=CC=C2",
    "meta_data": {
        "InChI": "InChI=1S/C11H14O/c1-11(12,10-7-8-10)9-5-3-2-4-6-9/h2-6,10,12H,7-8H2,1H3",
        "InChIKey": null,
        "Canonical SMILES": "OC(C=1C=CC=CC1)(C)C2CC2",
        "Molecular Formula": "C<sub>11</sub>H<sub>14</sub>O",
        "Molecular Mass": "162.23",
        "Boiling Point": "241-242 °C @ Press: 38 Torr",
        "Density": "1.0316 g/cm³ @ Temp: 20 °C"
    }
}