{
    "cas_no": "2127-03-9",
    "key_name": "2,2′-Dipyridyl disulfide",
    "cn_name": "2,2\"-二硫二吡啶;2,2\"-二吡啶基二硫;",
    "alternate_name": "Pyridine, 2,2′-dithiobis-;Pyridine, 2,2′-dithiodi-;2,2′-Dithiobis[pyridine];2,2′-Dithiodipyridine;2,2′-Dipyridyl disulfide;Bis(2-pyridyl) disulfide;Di-2-pyridyl disulfide;Bis(2-pyridinyl) disulfide;2-Pyridyl disulfide;Aldrithiol 2;2,2′-Dipyridinyl disulfide;NSC 677438;2-Aldrithiol;NSC 94055;Bis(pyridin-2-yl) disulfide;1,2-Bis(2-pyridinyl) disulfide;2,2′-Bipyridyl disulfide;2′-Aldrithiol;Di-2-pyridinyl disulfide;2,2′-Disulfanediyldipyridine;1,2-Di(pyridin-2-yl)disulfane;2,2-Dithiobispyridine;2-(Pyridin-2-yldisulfanyl)pyridine;Aldrithiol;QA 4326",
    "duplicated_cas_no": "219143-69-8;1623131-06-5",
    "SMILES": "S(SC1=CC=CC=N1)C2=CC=CC=N2",
    "meta_data": {
        "InChI": "InChI=1S/C10H8N2S2/c1-3-7-11-9(5-1)13-14-10-6-2-4-8-12-10/h1-8H",
        "InChIKey": null,
        "Canonical SMILES": "N=1C=CC=CC1SSC2=NC=CC=C2",
        "Molecular Formula": "C<sub>10</sub>H<sub>8</sub>N<sub>2</sub>S<sub>2</sub>",
        "Molecular Mass": "220.31",
        "Boiling Point": "57-57 °C",
        "Melting Point": "51-52 °C"
    }
}