{
    "cas_no": "2578-84-9",
    "key_name": "<em>N</em>-[(Phenylmethoxy)carbonyl]-<span class=\"text-smallcaps\">L</span>-phenylalanine 4-nitrophenyl ester",
    "cn_name": "N-苄氧羰基-L-苯丙氨酸对硝基苯酯;N-苄氧羰基-L-苯丙氨酸对硝基苯酯;",
    "alternate_name": "<span class=\"text-smallcaps\">L</span>-Phenylalanine, <em>N</em>-[(phenylmethoxy)carbonyl]-, 4-nitrophenyl ester;Alanine, <em>N</em>-carboxy-3-phenyl-, <em>N</em>-benzyl <em>p</em>-nitrophenyl ester, <span class=\"text-smallcaps\">L</span>-;<em>N</em>-[(Phenylmethoxy)carbonyl]-<span class=\"text-smallcaps\">L</span>-phenylalanine 4-nitrophenyl ester;<em>p</em>-Nitrophenyl <em>N</em>-carbobenzoxy-<span class=\"text-smallcaps\">L</span>-phenylalaninate;<em>p</em>-Nitrophenyl <em>N</em>-(benzyloxycarbonyl)-<span class=\"text-smallcaps\">L</span>-2-amino-3-phenylpropionate;<em>N</em>-(Benzyloxycarbonyl)-<span class=\"text-smallcaps\">L</span>-phenylalanine <em>p</em>-nitrophenyl ester;<em>N</em>-Carbobenzoxy-<span class=\"text-smallcaps\">L</span>-phenylalanine <em>p</em>-nitrophenyl ester;<em>N</em>-(Carbobenzoxy)phenylalanine <em>p</em>-nitrophenyl ester;<em>N</em>-α-Carbobenzoxy-<span class=\"text-smallcaps\">L</span>-phenylalanine <em>p</em>-nitrophenyl ester;<em>N</em>-(Benzyloxycarbonyl)phenylalanine 4-nitrophenyl ester;<em>N</em>-(Benzyloxycarbonyl)phenylalanine <em>p</em>-nitrophenyl ester;(4-Nitrophenyl) (2S)-3-phenyl-2-(phenylmethoxycarbonylamino)propanoate",
    "duplicated_cas_no": "18893-70-4",
    "SMILES": "[C@H](CC1=CC=CC=C1)(C(OC2=CC=C(N(=O)=O)C=C2)=O)NC(OCC3=CC=CC=C3)=O",
    "meta_data": {
        "InChI": "InChI=1S/C23H20N2O6/c26-22(31-20-13-11-19(12-14-20)25(28)29)21(15-17-7-3-1-4-8-17)24-23(27)30-16-18-9-5-2-6-10-18/h1-14,21H,15-16H2,(H,24,27)/t21-/m0/s1",
        "InChIKey": null,
        "Canonical SMILES": "O=C(OCC=1C=CC=CC1)NC(C(=O)OC2=CC=C(C=C2)N(=O)=O)CC=3C=CC=CC3",
        "Molecular Formula": "C<sub>23</sub>H<sub>20</sub>N<sub>2</sub>O<sub>6</sub>",
        "Molecular Mass": "420.41",
        "Melting Point": "126-126.5 °C"
    }
}