{
    "cas_no": "1123-00-8",
    "key_name": "Cyclopentaneacetic acid",
    "cn_name": "环戊乙酸;",
    "alternate_name": "Cyclopentaneacetic acid;Cyclopentylacetic acid;2-Cyclopentylacetic acid;NSC 60134;2-Cyclopentaneacetic acid",
    "duplicated_cas_no": "",
    "SMILES": "C(C(O)=O)C1CCCC1",
    "meta_data": {
        "InChI": "InChI=1S/C7H12O2/c8-7(9)5-6-3-1-2-4-6/h6H,1-5H2,(H,8,9)",
        "InChIKey": null,
        "Canonical SMILES": "O=C(O)CC1CCCC1",
        "Molecular Formula": "C<sub>7</sub>H<sub>12</sub>O<sub>2</sub>",
        "Molecular Mass": "128.17",
        "Boiling Point": "228 °C",
        "Melting Point": "13.5 °C",
        "Density": "1.0216 g/cm³ @ Temp: 18 °C"
    }
}