{
    "cas_no": "615-60-1",
    "key_name": "4-Chloro-1,2-dimethylbenzene",
    "cn_name": "4-氯-1,2-二甲基苯;4-氯邻二甲苯;",
    "alternate_name": "Benzene, 4-chloro-1,2-dimethyl-;<em>o</em>-Xylene, 4-chloro-;4-Chloro-1,2-dimethylbenzene;4-Chloro-<em>o</em>-xylene;1-Chloro-3,4-dimethylbenzene;3,4-Dimethylchlorobenzene;<em>p</em>-Chloro-<em>o</em>-xylene;1,2-Dimethyl-4-chlorobenzene;3,4-Dimethylphenyl chloride",
    "duplicated_cas_no": "",
    "SMILES": "CC1=C(C)C=CC(Cl)=C1",
    "meta_data": {
        "InChI": "InChI=1S/C8H9Cl/c1-6-3-4-8(9)5-7(6)2/h3-5H,1-2H3",
        "InChIKey": null,
        "Canonical SMILES": "ClC1=CC=C(C(=C1)C)C",
        "Molecular Formula": "C<sub>8</sub>H<sub>9</sub>Cl",
        "Molecular Mass": "140.61",
        "Boiling Point": "194 °C",
        "Melting Point": "-6 °C"
    }
}