{
    "cas_no": "614-68-6",
    "key_name": "2-Methylphenyl isocyanate",
    "cn_name": "邻甲苯异氰酸酯;异氰酸邻甲苯酯;",
    "alternate_name": "Benzene, 1-isocyanato-2-methyl-;Isocyanic acid, <em>o</em>-tolyl ester;1-Isocyanato-2-methylbenzene;<em>o</em>-Tolyl isocyanate;<em>o</em>-Methylphenyl isocyanate;2-Methylphenyl isocyanate;<em>o</em>-Toluene isocyanate;2-Tolyl isocyanate",
    "duplicated_cas_no": "",
    "SMILES": "N(=C=O)C1=C(C)C=CC=C1",
    "meta_data": {
        "InChI": "InChI=1S/C8H7NO/c1-7-4-2-3-5-8(7)9-6-10/h2-5H,1H3",
        "InChIKey": null,
        "Canonical SMILES": "O=C=NC=1C=CC=CC1C",
        "Molecular Formula": "C<sub>8</sub>H<sub>7</sub>NO",
        "Molecular Mass": "133.15",
        "Boiling Point": "185 °C"
    }
}