{
    "cas_no": "4068-75-1",
    "key_name": "Methyl 5-iodosalicylate",
    "cn_name": "5-碘水杨酸甲酯;",
    "alternate_name": "Benzoic acid, 2-hydroxy-5-iodo-, methyl ester;Salicylic acid, 5-iodo-, methyl ester;Methyl 5-iodosalicylate;Methyl 2-hydroxy-5-iodobenzoate;2-Hydroxy-5-iodobenzoic acid methyl ester;NSC 66548;5-Iodo-2-hydroxybenzoic acid methyl ester;Methyl 5-iodo-2-hydroxybenzoate;3-Methoxycarbonyl-4-iodophenol",
    "duplicated_cas_no": "",
    "SMILES": "C(OC)(=O)C1=C(O)C=CC(I)=C1",
    "meta_data": {
        "InChI": "InChI=1S/C8H7IO3/c1-12-8(11)6-4-5(9)2-3-7(6)10/h2-4,10H,1H3",
        "InChIKey": null,
        "Canonical SMILES": "O=C(OC)C1=CC(I)=CC=C1O",
        "Molecular Formula": "C<sub>8</sub>H<sub>7</sub>IO<sub>3</sub>",
        "Molecular Mass": "278.04",
        "Boiling Point": "100-110 °C @ Press: 0.3-0.5 Torr",
        "Melting Point": "163-164 °C"
    }
}