{
    "cas_no": "3905-64-4",
    "key_name": "2,6-Di-<em>tert</em>-butylnaphthalene",
    "cn_name": "2,6-二叔丁基萘;",
    "alternate_name": "Naphthalene, 2,6-bis(1,1-dimethylethyl)-;Naphthalene, 2,6-di-<em>tert</em>-butyl-;2,6-Bis(1,1-dimethylethyl)naphthalene;2,6-Di-<em>tert</em>-butylnaphthalene;NSC 91463;2,6-Di-<em>t</em>-butylnaphthalene;2,6-Ditert-butylnaphthalene",
    "duplicated_cas_no": "",
    "SMILES": "C(C)(C)(C)C1=CC2=C(C=C(C(C)(C)C)C=C2)C=C1",
    "meta_data": {
        "InChI": "InChI=1S/C18H24/c1-17(2,3)15-9-7-14-12-16(18(4,5)6)10-8-13(14)11-15/h7-12H,1-6H3",
        "InChIKey": null,
        "Canonical SMILES": "C=1C=C(C=C2C=CC(=CC12)C(C)(C)C)C(C)(C)C",
        "Molecular Formula": "C<sub>18</sub>H<sub>24</sub>",
        "Molecular Mass": "240.38",
        "Melting Point": "145-146 °C"
    }
}