{
    "cas_no": "1319-77-3",
    "key_name": "Cresol",
    "cn_name": null,
    "alternate_name": "Phenol, methyl-;Cresol;Methylphenol;<em>ar</em>-Toluenol;Cresylic acid;Tricresol;Tekresol;Bacillol;Hydroxytoluene;Cresylol;Cresols",
    "duplicated_cas_no": "116804-25-2;8003-33-6;8006-62-0;8026-94-6;8027-16-5;52037-47-5",
    "SMILES": "",
    "meta_data": {
        "InChI": "",
        "InChIKey": null,
        "Canonical SMILES": "",
        "Molecular Formula": "C<sub>7</sub>H<sub>8</sub>O",
        "Molecular Mass": "",
        "Boiling Point": "191-203 °C",
        "Density": "1.030-1.038 g/cm³ @ Temp: 25 °C"
    }
}