{
    "cas_no": "756491-54-0",
    "key_name": "(1<em>R</em>)-3,3′-Bis[3,5-bis(trifluoromethyl)phenyl][1,1′-binaphthalene]-2,2′-diol",
    "cn_name": null,
    "alternate_name": "[1,1′-Binaphthalene]-2,2′-diol, 3,3′-bis[3,5-bis(trifluoromethyl)phenyl]-, (1<em>R</em>)-;(1<em>R</em>)-3,3′-Bis[3,5-bis(trifluoromethyl)phenyl][1,1′-binaphthalene]-2,2′-diol;(<em>R</em>)-3,3′-Bis[3,5-bis(trifluoromethyl)phenyl]-1,1′-binaphthol",
    "duplicated_cas_no": "",
    "SMILES": "OC1=C(C2=C(C=C1C3=CC(C(F)(F)F)=CC(C(F)(F)F)=C3)C=CC=C2)C=4C5=C(C=C(C4O)C6=CC(C(F)(F)F)=CC(C(F)(F)F)=C6)C=CC=C5",
    "meta_data": {
        "InChI": "InChI=1S/C36H18F12O2/c37-33(38,39)21-9-19(10-22(15-21)34(40,41)42)27-13-17-5-1-3-7-25(17)29(31(27)49)30-26-8-4-2-6-18(26)14-28(32(30)50)20-11-23(35(43,44)45)16-24(12-20)36(46,47)48/h1-16,49-50H",
        "InChIKey": null,
        "Canonical SMILES": "FC(F)(F)C1=CC(=CC(=C1)C(F)(F)F)C=2C=C3C=CC=CC3=C(C2O)C4=C(O)C(=CC=5C=CC=CC54)C=6C=C(C=C(C6)C(F)(F)F)C(F)(F)F",
        "Molecular Formula": "C<sub>36</sub>H<sub>18</sub>F<sub>12</sub>O<sub>2</sub>",
        "Molecular Mass": "710.51",
        "Melting Point": "97-99 °C"
    }
}