{
    "cas_no": "21020-24-6",
    "key_name": "3-Chloro-1-butyne",
    "cn_name": "3-氯-1-丁炔;",
    "alternate_name": "1-Butyne, 3-chloro-;3-Chloro-1-butyne;2-Chloro-3-butyne;1-Butyn-3-yl chloride;1-Methylpropargyl chloride",
    "duplicated_cas_no": "",
    "SMILES": "C(C#C)(C)Cl",
    "meta_data": {
        "InChI": "InChI=1S/C4H5Cl/c1-3-4(2)5/h1,4H,2H3",
        "InChIKey": null,
        "Canonical SMILES": "ClC(C#C)C",
        "Molecular Formula": "C<sub>4</sub>H<sub>5</sub>Cl",
        "Molecular Mass": "88.54",
        "Boiling Point": "68.5 °C",
        "Density": "0.9466 g/cm³ @ Temp: 25 °C"
    }
}