{
    "cas_no": "209481-20-9",
    "key_name": "5-Chloro-<em>N</em>-[4-methoxy-3-(1-piperazinyl)phenyl]-3-methylbenzo[<em>b</em>]thiophene-2-sulfonamide",
    "cn_name": null,
    "alternate_name": "Benzo[<em>b</em>]thiophene-2-sulfonamide, 5-chloro-<em>N</em>-[4-methoxy-3-(1-piperazinyl)phenyl]-3-methyl-;5-Chloro-<em>N</em>-[4-methoxy-3-(1-piperazinyl)phenyl]-3-methylbenzo[<em>b</em>]thiophene-2-sulfonamide;SB 271046;SB 737050;SB 270146",
    "duplicated_cas_no": "",
    "SMILES": "CC=1C=2C(SC1S(NC3=CC(=C(OC)C=C3)N4CCNCC4)(=O)=O)=CC=C(Cl)C2",
    "meta_data": {
        "InChI": "InChI=1S/C20H22ClN3O3S2/c1-13-16-11-14(21)3-6-19(16)28-20(13)29(25,26)23-15-4-5-18(27-2)17(12-15)24-9-7-22-8-10-24/h3-6,11-12,22-23H,7-10H2,1-2H3",
        "InChIKey": null,
        "Canonical SMILES": "O=S(=O)(NC1=CC=C(OC)C(=C1)N2CCNCC2)C=3SC=4C=CC(Cl)=CC4C3C",
        "Molecular Formula": "C<sub>20</sub>H<sub>22</sub>ClN<sub>3</sub>O<sub>3</sub>S<sub>2</sub>",
        "Molecular Mass": "451.99",
        "Melting Point": "240-241 °C (decomp)"
    }
}