{
    "cas_no": "6291-89-0",
    "key_name": "Phenylguanidine carbonate",
    "cn_name": null,
    "alternate_name": "Carbonic acid, compd. with <em>N</em>-phenylguanidine (1:2);Carbonic acid, compd. with phenylguanidine (1:2);Guanidine, phenyl-, carbonate (2:1);Phenylguanidine carbonate",
    "duplicated_cas_no": "",
    "SMILES": "N(C(=N)N)C1=CC=CC=C1.C(=O)(O)O",
    "meta_data": {
        "InChI": "InChI=1S/C7H9N3.CH2O3/c8-7(9)10-6-4-2-1-3-5-6;2-1(3)4/h1-5H,(H4,8,9,10);(H2,2,3,4)",
        "InChIKey": null,
        "Canonical SMILES": "O=C(O)O.N=C(N)NC=1C=CC=CC1",
        "Molecular Formula": "C<sub>7</sub>H<sub>9</sub>N<sub>3</sub>.<sup>1</sup>/<sub>2</sub>CH<sub>2</sub>O<sub>3</sub>",
        "Molecular Mass": "",
        "Melting Point": "147-150 °C (decomp)"
    }
}