{
    "cas_no": "15058-19-2",
    "key_name": "4-Thiazolecarboxylic acid, 4,5-dihydro-2-methyl-, sodium salt (1:1)",
    "cn_name": null,
    "alternate_name": "4-Thiazolecarboxylic acid, 4,5-dihydro-2-methyl-, sodium salt (1:1);2-Thiazoline-4-carboxylic acid, 2-methyl-, sodium salt;4-Thiazolecarboxylic acid, 4,5-dihydro-2-methyl-, sodium salt",
    "duplicated_cas_no": "15263-38-4",
    "SMILES": "C(O)(=O)C1N=C(C)SC1.[Na]",
    "meta_data": {
        "InChI": "InChI=1S/C5H7NO2S.Na/c1-3-6-4(2-9-3)5(7)8;/h4H,2H2,1H3,(H,7,8);",
        "InChIKey": null,
        "Canonical SMILES": "[Na].O=C(O)C1N=C(SC1)C",
        "Molecular Formula": "C<sub>5</sub>H<sub>7</sub>NO<sub>2</sub>S.Na",
        "Molecular Mass": "",
        "Melting Point": "214-216 °C (decomp)"
    }
}