{
    "cas_no": "5805-76-5",
    "key_name": "1-Ethyl-2-methyl-1<em>H</em>-benzimidazole",
    "cn_name": "N-乙基-2-甲基苯并咪唑;",
    "alternate_name": "1<em>H</em>-Benzimidazole, 1-ethyl-2-methyl-;Benzimidazole, 1-ethyl-2-methyl-;1-Ethyl-2-methyl-1<em>H</em>-benzimidazole;1-Ethyl-2-methylbenzimidazole;NSC 93793;1-Ethyl-2-methyl-1<em>H</em>-benzo[<em>d</em>]imidazole;1-Ethyl-2-methyl-1<em>H</em>-1,3-benzodiazole",
    "duplicated_cas_no": "42846-39-9",
    "SMILES": "C(C)N1C=2C(N=C1C)=CC=CC2",
    "meta_data": {
        "InChI": "InChI=1S/C10H12N2/c1-3-12-8(2)11-9-6-4-5-7-10(9)12/h4-7H,3H2,1-2H3",
        "InChIKey": null,
        "Canonical SMILES": "N=1C=2C=CC=CC2N(C1C)CC",
        "Molecular Formula": "C<sub>10</sub>H<sub>12</sub>N<sub>2</sub>",
        "Molecular Mass": "160.22",
        "Boiling Point": "296 °C",
        "Melting Point": "51 °C"
    }
}