{
    "cas_no": "7126-57-0",
    "key_name": "Ethyl 4-formyl-1<em>H</em>-pyrrole-2-carboxylate",
    "cn_name": null,
    "alternate_name": "1<em>H</em>-Pyrrole-2-carboxylic acid, 4-formyl-, ethyl ester;Pyrrole-2-carboxylic acid, 4-formyl-, ethyl ester;Ethyl 4-formyl-1<em>H</em>-pyrrole-2-carboxylate;2-Ethoxycarbonyl-4-formylpyrrole;NSC 272668;4-Formylpyrrole-2-carboxylic acid ethyl ester;Ethyl 4-formyl-2-pyrrolecarboxylate;4-Formyl-1<em>H</em>-pyrrole-2-carboxylic acid ethyl ester",
    "duplicated_cas_no": "",
    "SMILES": "C(OCC)(=O)C1=CC(C=O)=CN1",
    "meta_data": {
        "InChI": "InChI=1S/C8H9NO3/c1-2-12-8(11)7-3-6(5-10)4-9-7/h3-5,9H,2H2,1H3",
        "InChIKey": null,
        "Canonical SMILES": "O=CC1=CNC(=C1)C(=O)OCC",
        "Molecular Formula": "C<sub>8</sub>H<sub>9</sub>NO<sub>3</sub>",
        "Molecular Mass": "167.16",
        "Boiling Point": "126-127 °C @ Press: 0.05 Torr",
        "Melting Point": "106-107 °C"
    }
}