{
    "cas_no": "51-59-2",
    "key_name": "<em>N</em>-Acetyl-5-aminosalicylic acid",
    "cn_name": "5-乙酰氨基水杨酸;",
    "alternate_name": "Benzoic acid, 5-(acetylamino)-2-hydroxy-;Salicylic acid, 5-acetamido-;5-(Acetylamino)-2-hydroxybenzoic acid;5-Acetamidosalicylic acid;5-(Acetylamino)salicylic acid;2-Hydroxy-5-(acetylamino)benzoic acid;<em>N</em>-Acetyl-5-aminosalicylic acid;CJ 46A;2-Hydroxy-5-acetamidobenzoic acid;5-Acetamido-2-hydroxybenzoic acid;3-Carboxyparacetamol;Acetylmesalazine;NSC 54183",
    "duplicated_cas_no": "858370-63-5",
    "SMILES": "N(C(C)=O)C1=CC(C(O)=O)=C(O)C=C1",
    "meta_data": {
        "InChI": "InChI=1S/C9H9NO4/c1-5(11)10-6-2-3-8(12)7(4-6)9(13)14/h2-4,12H,1H3,(H,10,11)(H,13,14)",
        "InChIKey": null,
        "Canonical SMILES": "O=C(O)C1=CC(=CC=C1O)NC(=O)C",
        "Molecular Formula": "C<sub>9</sub>H<sub>9</sub>NO<sub>4</sub>",
        "Molecular Mass": "195.17",
        "Melting Point": "218 °C"
    }
}