{
    "cas_no": "91-57-6",
    "key_name": "2-Methylnaphthalene",
    "cn_name": "2-甲基萘;beta-甲基萘;",
    "alternate_name": "Naphthalene, 2-methyl-;2-Methylnaphthalene;β-Methylnaphthalene;NSC 3575",
    "duplicated_cas_no": "",
    "SMILES": "CC1=CC2=C(C=C1)C=CC=C2",
    "meta_data": {
        "InChI": "InChI=1S/C11H10/c1-9-6-7-10-4-2-3-5-11(10)8-9/h2-8H,1H3",
        "InChIKey": null,
        "Canonical SMILES": "C=1C=CC=2C=C(C=CC2C1)C",
        "Molecular Formula": "C<sub>11</sub>H<sub>10</sub>",
        "Molecular Mass": "142.20",
        "Boiling Point": "241.1 °C",
        "Melting Point": "37-38 °C",
        "Density": "0.99 g/cm³"
    }
}