{
    "cas_no": "4920-79-0",
    "key_name": "2-Chloro-1-methoxy-4-nitrobenzene",
    "cn_name": "2-氯-4-硝基苯甲醚;",
    "alternate_name": "Benzene, 2-chloro-1-methoxy-4-nitro-;Anisole, 2-chloro-4-nitro-;2-Chloro-1-methoxy-4-nitrobenzene;3-Chloro-4-methoxynitrobenzene;2-Chloro-4-nitroanisole",
    "duplicated_cas_no": "",
    "SMILES": "N(=O)(=O)C1=CC(Cl)=C(OC)C=C1",
    "meta_data": {
        "InChI": "InChI=1S/C7H6ClNO3/c1-12-7-3-2-5(9(10)11)4-6(7)8/h2-4H,1H3",
        "InChIKey": null,
        "Canonical SMILES": "O=N(=O)C1=CC=C(OC)C(Cl)=C1",
        "Molecular Formula": "C<sub>7</sub>H<sub>6</sub>ClNO<sub>3</sub>",
        "Molecular Mass": "187.58",
        "Melting Point": "62 °C"
    }
}