{
    "cas_no": "17342-08-4",
    "key_name": "(5<em>S</em>)-5-(Hydroxymethyl)-2-pyrrolidinone",
    "cn_name": "L-焦谷氨醇;L-焦谷氨酸醇;(S)-(+)-5-羟甲基-2-吡咯烷酮;",
    "alternate_name": "2-Pyrrolidinone, 5-(hydroxymethyl)-, (5<em>S</em>)-;2-Pyrrolidinone, 5-(hydroxymethyl)-, (<em>S</em>)-;(5<em>S</em>)-5-(Hydroxymethyl)-2-pyrrolidinone;(+)-5-(Hydroxymethyl)-2-pyrrolidinone;(<em>S</em>)-5-(Hydroxymethyl)-2-pyrrolidone;(<em>S</em>)-Pyroglutaminol;(<em>S</em>)-5-(Hydroxymethyl)-2-pyrrolidinone;(<em>S</em>)-2-(Hydroxymethyl)pyrrolidin-5-one;(<em>S</em>)-(+)-5-(Hydroxymethyl)-2-pyrrolidinone;(5<em>S</em>)-5-(hydroxymethyl)-2-pyrrolidinone;(2S)-2-(Hydroxymethyl)-5-oxopyrrolidine;2-Pyrrolidinone 5-(hydroxymethyl)-, (5S)-",
    "duplicated_cas_no": "2209874-20-2",
    "SMILES": "C(O)[C@H]1NC(=O)CC1",
    "meta_data": {
        "InChI": "InChI=1S/C5H9NO2/c7-3-4-1-2-5(8)6-4/h4,7H,1-3H2,(H,6,8)/t4-/m0/s1",
        "InChIKey": null,
        "Canonical SMILES": "O=C1NC(CO)CC1",
        "Molecular Formula": "C<sub>5</sub>H<sub>9</sub>NO<sub>2</sub>",
        "Molecular Mass": "115.13",
        "Boiling Point": "147-149 °C @ Press: 0.06 Torr",
        "Melting Point": "86-87 °C"
    }
}