{
    "cas_no": "546-45-2",
    "key_name": "Trimethyltriphenylcyclotrisiloxane",
    "cn_name": null,
    "alternate_name": "Cyclotrisiloxane, 2,4,6-trimethyl-2,4,6-triphenyl-;2,4,6-Trimethyl-2,4,6-triphenylcyclotrisiloxane;Phenylmethylsiloxane cyclic trimer;Trimethyltriphenylcyclotrisiloxane;LS 8490;Trimethyltriphenylcyclotrisiloane;Triphenyltrimethylcyclotrisiloxane;2,4,6-Trimethyl-2,4,6-triphenyl-1,3,5,2,4,6-trioxatrisilinane",
    "duplicated_cas_no": "1569493-03-3",
    "SMILES": "C[Si]1(O[Si](C)(O[Si](C)(O1)C2=CC=CC=C2)C3=CC=CC=C3)C4=CC=CC=C4",
    "meta_data": {
        "InChI": "InChI=1S/C21H24O3Si3/c1-25(19-13-7-4-8-14-19)22-26(2,20-15-9-5-10-16-20)24-27(3,23-25)21-17-11-6-12-18-21/h4-18H,1-3H3",
        "InChIKey": null,
        "Canonical SMILES": "O1[Si](O[Si](O[Si]1(C=2C=CC=CC2)C)(C=3C=CC=CC3)C)(C=4C=CC=CC4)C",
        "Molecular Formula": "C<sub>21</sub>H<sub>24</sub>O<sub>3</sub>Si<sub>3</sub>",
        "Molecular Mass": "408.67",
        "Boiling Point": "190 °C @ Press: 1.5 Torr",
        "Melting Point": "100 °C",
        "Density": "1.192 g/cm³"
    }
}