{
    "cas_no": "628-44-4",
    "key_name": "2-Methyl-2-octanol",
    "cn_name": null,
    "alternate_name": "2-Octanol, 2-methyl-;2-Methyl-2-octanol;<em>n</em>-Hexyldimethylcarbinol;NSC 21984;1,1-Dimethylheptyl alcohol;1,1-Dimethyl-1-heptanol",
    "duplicated_cas_no": "",
    "SMILES": "C(CC(C)(C)O)CCCC",
    "meta_data": {
        "InChI": "InChI=1S/C9H20O/c1-4-5-6-7-8-9(2,3)10/h10H,4-8H2,1-3H3",
        "InChIKey": null,
        "Canonical SMILES": "OC(C)(C)CCCCCC",
        "Molecular Formula": "C<sub>9</sub>H<sub>20</sub>O",
        "Molecular Mass": "144.25",
        "Boiling Point": "178 °C",
        "Density": "0.8239 g/cm³ @ Temp: 20 °C"
    }
}