{
    "cas_no": "1559-02-0",
    "key_name": "Diethyl 1,1-cyclopropanedicarboxylate",
    "cn_name": "1,1-环丙基二羧酸二乙酯;",
    "alternate_name": "1,1-Cyclopropanedicarboxylic acid, 1,1-diethyl ester;1,1-Cyclopropanedicarboxylic acid, diethyl ester;Diethyl 1,1-cyclopropanedicarboxylate;1,1-Dicarbethoxycyclopropane;1,1-Bis(ethoxycarbonyl)cyclopropane;NSC 21376;1,1-Diethyl cyclopropane-1,1-dicarboxylate",
    "duplicated_cas_no": "",
    "SMILES": "C(OCC)(=O)C1(C(OCC)=O)CC1",
    "meta_data": {
        "InChI": "InChI=1S/C9H14O4/c1-3-12-7(10)9(5-6-9)8(11)13-4-2/h3-6H2,1-2H3",
        "InChIKey": null,
        "Canonical SMILES": "O=C(OCC)C1(C(=O)OCC)CC1",
        "Molecular Formula": "C<sub>9</sub>H<sub>14</sub>O<sub>4</sub>",
        "Molecular Mass": "186.21",
        "Boiling Point": "216 °C"
    }
}