{
    "cas_no": "14804-31-0",
    "key_name": "4-Bromo-2-methylanisole",
    "cn_name": "4-溴-2-甲基苯甲醚;",
    "alternate_name": "Benzene, 4-bromo-1-methoxy-2-methyl-;Anisole, 4-bromo-2-methyl-;4-Bromo-1-methoxy-2-methylbenzene;2-Methoxy-5-bromotoluene;5-Bromo-2-methoxytoluene;4-Bromo-2-methylanisole;1-Bromo-4-methoxy-3-methylbenzene;1-Methoxy-2-methyl-4-bromobenzene;1-Bromo-3-methyl-4-methoxybenzene",
    "duplicated_cas_no": "",
    "SMILES": "O(C)C1=C(C)C=C(Br)C=C1",
    "meta_data": {
        "InChI": "InChI=1S/C8H9BrO/c1-6-5-7(9)3-4-8(6)10-2/h3-5H,1-2H3",
        "InChIKey": null,
        "Canonical SMILES": "BrC1=CC=C(OC)C(=C1)C",
        "Molecular Formula": "C<sub>8</sub>H<sub>9</sub>BrO",
        "Molecular Mass": "201.06",
        "Boiling Point": "126-128 °C @ Press: 10 Torr",
        "Melting Point": "67.5-68.5 °C"
    }
}