{
    "cas_no": "24448-20-2",
    "key_name": "Diacryl",
    "cn_name": "2,2-双[4-(异丁烯酰氧基乙氧基)苯基]丙烷;2,2-双[4-(异丁烯酰氧基乙氧基)苯基]丙烷;",
    "alternate_name": "2-Propenoic acid, 2-methyl-, 1,1′-[(1-methylethylidene)bis(4,1-phenyleneoxy-2,1-ethanediyl)] ester;Methacrylic acid, isopropylidenebis(<em>p</em>-phenyleneoxyethylene) ester;2-Propenoic acid, 2-methyl-, (1-methylethylidene)bis(4,1-phenyleneoxy-2,1-ethanediyl) ester;Ethanol, 2,2′-[isopropylidenebis(<em>p</em>-phenyleneoxy)]di-, dimethacrylate;Bisphenol A bis(methacryloyloxyethyl) ether;2,2-Bis(<em>p</em>-hydroxyethoxyphenyl)propane dimethacrylate;Diacryl;Diacryl 101;Diacryl 101P;Bisphenol A bis(2-methacrylatoethyl) ether;Bisphenol A bis(2-hydroxyethyl ether) dimethacrylate;2,2-Bis[4-(2-methacryloyloxyethoxy)phenyl]propane;Bis(2-hydroxyethyl)bisphenol-A dimethacrylate;SR 348;Polybisacryl;DEBPADMA;Diacryl 103;Al-co-cure EBDMA;NK Ester BPE 100;Sartomer 348;Photomer 2028;BPE 100;Sartomer SR 348;Nouryset 110;SR 348L;Sartomer 348L;SR 348L-NS;EBPADMA;Bisphenol A-ethylene oxide 1:2 adduct dimethacrylate",
    "duplicated_cas_no": "58517-98-9;144233-27-2;162515-87-9;178557-93-2;2098710-50-8",
    "SMILES": "C(C)(C)(C1=CC=C(OCCOC(C(C)=C)=O)C=C1)C2=CC=C(OCCOC(C(C)=C)=O)C=C2",
    "meta_data": {
        "InChI": "InChI=1S/C27H32O6/c1-19(2)25(28)32-17-15-30-23-11-7-21(8-12-23)27(5,6)22-9-13-24(14-10-22)31-16-18-33-26(29)20(3)4/h7-14H,1,3,15-18H2,2,4-6H3",
        "InChIKey": null,
        "Canonical SMILES": "O=C(OCCOC1=CC=C(C=C1)C(C2=CC=C(OCCOC(=O)C(=C)C)C=C2)(C)C)C(=C)C",
        "Molecular Formula": "C<sub>27</sub>H<sub>32</sub>O<sub>6</sub>",
        "Molecular Mass": "452.54",
        "Melting Point": "44-45 °C"
    }
}