{
    "cas_no": "94718-79-3",
    "key_name": "Benzenamine, 2-bromo-, hydrochloride (1:1)",
    "cn_name": "2-溴苯胺盐酸盐;",
    "alternate_name": "Benzenamine, 2-bromo-, hydrochloride (1:1);Benzenamine, 2-bromo-, hydrochloride;<em>o</em>-Bromoaniline hydrochloride;2-Bromoaniline hydrochloride;2-Bromobenzenamine hydrochloride",
    "duplicated_cas_no": "",
    "SMILES": "BrC1=C(N)C=CC=C1.Cl",
    "meta_data": {
        "InChI": "InChI=1S/C6H6BrN.ClH/c7-5-3-1-2-4-6(5)8;/h1-4H,8H2;1H",
        "InChIKey": null,
        "Canonical SMILES": "Cl.BrC=1C=CC=CC1N",
        "Molecular Formula": "C<sub>6</sub>H<sub>6</sub>BrN.ClH",
        "Molecular Mass": "",
        "Melting Point": "217-220 °C (decomp)"
    }
}