{
    "cas_no": "772-00-9",
    "key_name": "4-Phenyl-1,3-dioxane",
    "cn_name": "4-苯基-1,3-二氧杂环乙烷;4-苯基-1,3-二氧杂环乙烷;",
    "alternate_name": "1,3-Dioxane, 4-phenyl-;<em>m</em>-Dioxane, 4-phenyl-;4-Phenyl-1,3-dioxane;4-Phenyl-<em>m</em>-dioxane;(±)-4-Phenyl-<em>m</em>-dioxane;(±)-4-Phenyl-1,3-dioxane;NSC 406730",
    "duplicated_cas_no": "99494-18-5",
    "SMILES": "C1(=CC=CC=C1)C2CCOCO2",
    "meta_data": {
        "InChI": "InChI=1S/C10H12O2/c1-2-4-9(5-3-1)10-6-7-11-8-12-10/h1-5,10H,6-8H2",
        "InChIKey": null,
        "Canonical SMILES": "O1COC(C=2C=CC=CC2)CC1",
        "Molecular Formula": "C<sub>10</sub>H<sub>12</sub>O<sub>2</sub>",
        "Molecular Mass": "164.20",
        "Boiling Point": "247 °C",
        "Density": "1.101 g/cm³ @ Temp: 25 °C"
    }
}