{
    "cas_no": "16063-70-0",
    "key_name": "2,3,5-Trichloropyridine",
    "cn_name": "2,3,5-三氯吡啶;",
    "alternate_name": "Pyridine, 2,3,5-trichloro-;2,3,5-Trichloropyridine",
    "duplicated_cas_no": "",
    "SMILES": "ClC1=C(Cl)N=CC(Cl)=C1",
    "meta_data": {
        "InChI": "InChI=1S/C5H2Cl3N/c6-3-1-4(7)5(8)9-2-3/h1-2H",
        "InChIKey": null,
        "Canonical SMILES": "ClC1=CN=C(Cl)C(Cl)=C1",
        "Molecular Formula": "C<sub>5</sub>H<sub>2</sub>Cl<sub>3</sub>N",
        "Molecular Mass": "182.44",
        "Boiling Point": "219 °C",
        "Melting Point": "48-50 °C"
    }
}