{
    "cas_no": "142-28-9",
    "key_name": "1,3-Dichloropropane",
    "cn_name": "1,3-二氯丙烷;",
    "alternate_name": "Propane, 1,3-dichloro-;1,3-Dichloropropane;Trimethylene dichloride;R 270fa;NSC 6204",
    "duplicated_cas_no": "",
    "SMILES": "C(CCl)CCl",
    "meta_data": {
        "InChI": "InChI=1S/C3H6Cl2/c4-2-1-3-5/h1-3H2",
        "InChIKey": null,
        "Canonical SMILES": "ClCCCCl",
        "Molecular Formula": "C<sub>3</sub>H<sub>6</sub>Cl<sub>2</sub>",
        "Molecular Mass": "112.99",
        "Boiling Point": "120.4 °C @ Press: 760 Torr",
        "Melting Point": "-99.5 °C",
        "Density": "1.1876 g/cm³ @ Temp: 20 °C"
    }
}