{
    "cas_no": "2215-63-6",
    "key_name": "1-Benzyl-1<em>H</em>-indazol-3-ol",
    "cn_name": "1-苄基-3-羟基-1H-吲唑;1-苄基吲唑-3-酮;",
    "alternate_name": "3<em>H</em>-Indazol-3-one, 1,2-dihydro-1-(phenylmethyl)-;1<em>H</em>-Indazol-3-ol, 1-benzyl-;3-Indazolinone, 1-benzyl-;1,2-Dihydro-1-(phenylmethyl)-3<em>H</em>-indazol-3-one;1-Benzyl-3-hydroxy-1<em>H</em>-indazole;1-Benzyl-3-hydroxyindazole;1-Benzyl-1<em>H</em>-indazolone;1-Benzyl-1<em>H</em>-indazol-3-ol;3-Hydroxy-1-benzyl-1<em>H</em>-indazole;1-Benzyl-1<em>H</em>-indazol-3-one;1-Benzyl-3-indazolinone;1-Benzyl-3-indazolone;1-Benzyl-1,2-dihydro-3<em>H</em>-indazol-3-one;NSC 247064;1-Benzyl-2<em>H</em>-indazol-3-one;1-Benzyl-1<em>H</em>-indazol-3(2<em>H</em>)-one;1-Benzyl-2,3-dihydro-1<em>H</em>-indazol-3-one",
    "duplicated_cas_no": "40428-01-1",
    "SMILES": "C(N1C=2C(C(=O)N1)=CC=CC2)C3=CC=CC=C3",
    "meta_data": {
        "InChI": "InChI=1S/C14H12N2O/c17-14-12-8-4-5-9-13(12)16(15-14)10-11-6-2-1-3-7-11/h1-9H,10H2,(H,15,17)",
        "InChIKey": null,
        "Canonical SMILES": "O=C1NN(C=2C=CC=CC12)CC=3C=CC=CC3",
        "Molecular Formula": "C<sub>14</sub>H<sub>12</sub>N<sub>2</sub>O",
        "Molecular Mass": "224.26",
        "Melting Point": "167 °C"
    }
}