{
    "cas_no": "163702-07-6",
    "key_name": "Methyl nonafluorobutyl ether",
    "cn_name": "甲基九氟丁醚;",
    "alternate_name": "Butane, 1,1,1,2,2,3,3,4,4-nonafluoro-4-methoxy-;1,1,1,2,2,3,3,4,4-Nonafluoro-4-methoxybutane;Perfluorobutyl methyl ether;1-Methoxynonafluorobutane;HFC 7100;Methyl nonafluorobutyl ether;Methyl perfluorobutyl ether;HFE 449;Nonafluorobutyl methyl ether;CF 61;Cosmetic Fluid CF 61;Methoxyperfluorobutane;(Perfluorobutoxy)methane;Methyl 1,1,2,2,3,3,4,4,4-nonafluorobutyl ether;HFE 449mccc;GransilSiW 7100;1-Methoxy-1,1,2,2,3,3,4,4,4-nonafluorobutane",
    "duplicated_cas_no": "",
    "SMILES": "C(C(C(F)(F)F)(F)F)(C(OC)(F)F)(F)F",
    "meta_data": {
        "InChI": "InChI=1S/C5H3F9O/c1-15-5(13,14)3(8,9)2(6,7)4(10,11)12/h1H3",
        "InChIKey": null,
        "Canonical SMILES": "FC(F)(F)C(F)(F)C(F)(F)C(F)(F)OC",
        "Molecular Formula": "C<sub>5</sub>H<sub>3</sub>F<sub>9</sub>O",
        "Molecular Mass": "250.06",
        "Boiling Point": "64.5 °C",
        "Density": "1.50 g/cm³"
    }
}