{
    "cas_no": "19415-51-1",
    "key_name": "5-Fluoro-2-methoxybenzaldehyde",
    "cn_name": "5-氟-2-甲氧基苯甲醛;",
    "alternate_name": "Benzaldehyde, 5-fluoro-2-methoxy-;<em>o</em>-Anisaldehyde, 5-fluoro-;5-Fluoro-2-methoxybenzaldehyde;3-Fluoro-6-methoxybenzaldehyde;5-Fluoro-<em>o</em>-anisaldehyde;2-Methoxy-5-fluorobenzaldehyde",
    "duplicated_cas_no": "",
    "SMILES": "O(C)C1=C(C=O)C=C(F)C=C1",
    "meta_data": {
        "InChI": "InChI=1S/C8H7FO2/c1-11-8-3-2-7(9)4-6(8)5-10/h2-5H,1H3",
        "InChIKey": null,
        "Canonical SMILES": "O=CC1=CC(F)=CC=C1OC",
        "Molecular Formula": "C<sub>8</sub>H<sub>7</sub>FO<sub>2</sub>",
        "Molecular Mass": "154.14",
        "Melting Point": "45-45.0 °C"
    }
}