{
    "cas_no": "2199-46-4",
    "key_name": "Ethyl 3,4,5-trimethyl-1<em>H</em>-pyrrole-2-carboxylate",
    "cn_name": "3,4,5-三甲基吡咯-2-甲基乙酯;",
    "alternate_name": "1<em>H</em>-Pyrrole-2-carboxylic acid, 3,4,5-trimethyl-, ethyl ester;Pyrrole-2-carboxylic acid, 3,4,5-trimethyl-, ethyl ester;Ethyl 3,4,5-trimethyl-1<em>H</em>-pyrrole-2-carboxylate;2,3,4-Trimethyl-5-carbethoxypyrrole;Ethyl 3,4,5-trimethylpyrrole-2-carboxylate;NSC 15767;2-Ethoxycarbonyl-3,4,5-trimethylpyrrole;3,4,5-Trimethyl-1<em>H</em>-pyrrole-2-carboxylic acid ethyl ester",
    "duplicated_cas_no": "",
    "SMILES": "C(OCC)(=O)C1=C(C)C(C)=C(C)N1",
    "meta_data": {
        "InChI": "InChI=1S/C10H15NO2/c1-5-13-10(12)9-7(3)6(2)8(4)11-9/h11H,5H2,1-4H3",
        "InChIKey": null,
        "Canonical SMILES": "O=C(OCC)C=1NC(=C(C1C)C)C",
        "Molecular Formula": "C<sub>10</sub>H<sub>15</sub>NO<sub>2</sub>",
        "Molecular Mass": "181.23",
        "Melting Point": "128 °C"
    }
}