{
    "cas_no": "280-57-9",
    "key_name": "Dabco",
    "cn_name": "三乙烯二胺;三亚乙基二胺;1,4-二叠氮双环辛烷;",
    "alternate_name": "1,4-Diazabicyclo[2.2.2]octane;Bicyclo[2.2.2]-1,4-diazaoctane;<em>N</em>,<em>N</em>′-<em>endo</em>-Ethylenepiperazine;Triethylenediamine;Dabco;1,4-Ethylenepiperazine;Dabco 33LV;D 33LV;Thancat TD 33;TED;TEDA;Texacat TD 100;L 33;Niax A 33;Tegamine 33;Thancat TD 33A;Texacat TD 33;A 33;Dabco L 1202;Minico L 1020;Dabco S 25;TEDA L 33;LC 96003;Toral SM 2;Dabco Crystalline;Toyocat L 33;Dabco 3LV;PC CAT TD 33;NSC 56362;Polycat 33LV;Tego Amine;Jeffcat TD 100;TD 100;Toyocat TEDA L 33;L 33E;33LV;Activator 105E;Dabco Crystal;LV 33;Kaolizer 31;PC-TD;AE 33;Tegoamin 33;S 25;TEDA-L 33B;Dabco A 33;PT 301;PT 301 (catalyst);A 33LV;Catalyst A 33;TEDA 33P;33LSI;Lupragen N 201;Dabco H 1010;Amicure TEDA;S 33;Dabco D 0134;Dabco 33;PUR 812;Dabco 33S;TEDA-L 25B;TEDA 33;Dabco LV 33;A 98 (amine);A 98;A 300 (diamine);Dabco 33LX;33LX;Wanalyst KC 152;KC 152",
    "duplicated_cas_no": "23790-33-2;88935-43-7;101484-19-9;150605-01-9;165724-47-0;203072-11-1;309955-09-7;682335-96-2;746642-46-6;903524-95-8;1354649-42-5;1357848-51-1;2260745-52-4;2759154-44-2",
    "SMILES": "N12CCN(CC1)CC2",
    "meta_data": {
        "InChI": "InChI=1S/C6H12N2/c1-2-8-5-3-7(1)4-6-8/h1-6H2",
        "InChIKey": null,
        "Canonical SMILES": "N12CCN(CC1)CC2",
        "Molecular Formula": "C<sub>6</sub>H<sub>12</sub>N<sub>2</sub>",
        "Molecular Mass": "112.17",
        "Boiling Point": "174 °C",
        "Melting Point": "158 °C",
        "Density": "1.14 g/cm³ @ Temp: 28 °C"
    }
}