{
    "cas_no": "3190-70-3",
    "key_name": "<span class=\"text-smallcaps\">L</span>-Leucine <em>N</em>-carboxy anhydride",
    "cn_name": "(S)-(-)-4-异丁基氧氮杂环戊烷-2,5-二酮;(S)-(-)-4-异丁基氧氮杂环戊烷-2,5-二酮;",
    "alternate_name": "2,5-Oxazolidinedione, 4-(2-methylpropyl)-, (4<em>S</em>)-;2,5-Oxazolidinedione, 4-isobutyl-, <span class=\"text-smallcaps\">L</span>-;2,5-Oxazolidinedione, 4-(2-methylpropyl)-, (<em>S</em>)-;(4<em>S</em>)-4-(2-Methylpropyl)-2,5-oxazolidinedione;<em>N</em>-Carboxyleucine anhydride;<em>N</em>-Carboxy-<span class=\"text-smallcaps\">L</span>-leucine anhydride;<span class=\"text-smallcaps\">L</span>-Leucine <em>N</em>-carboxy anhydride;(<em>S</em>)-4-(2-Methylpropyl)-2,5-oxazolidinedione;NSC 351903;<span class=\"text-smallcaps\">L</span>-Leucine NCA;<em>N</em>-Carboxyanhydride <span class=\"text-smallcaps\">L</span>-leucine;(<em>S</em>)-4-Isobutyloxazolidine-2,5-dione",
    "duplicated_cas_no": "1260213-90-8",
    "SMILES": "C(C(C)C)C1NC(=O)OC1=O",
    "meta_data": {
        "InChI": "InChI=1S/C7H11NO3/c1-4(2)3-5-6(9)11-7(10)8-5/h4-5H,3H2,1-2H3,(H,8,10)",
        "InChIKey": null,
        "Canonical SMILES": "O=C1OC(=O)C(N1)CC(C)C",
        "Molecular Formula": "C<sub>7</sub>H<sub>11</sub>NO<sub>3</sub>",
        "Molecular Mass": "157.17",
        "Melting Point": "76.5-78 °C"
    }
}