{
    "cas_no": "98549-88-3",
    "key_name": "1<em>H</em>-Pyrrolo[2,3-<em>b</em>]pyridin-5-ol",
    "cn_name": "1H-吡咯并[2,3-B]吡啶-5-醇;",
    "alternate_name": "1<em>H</em>-Pyrrolo[2,3-<em>b</em>]pyridin-5-ol;5-Hydroxy-1<em>H</em>-pyrrolo[2,3-<em>b</em>]pyridine;5-Hydroxy-7-azaindole",
    "duplicated_cas_no": "288384-79-2",
    "SMILES": "OC=1C=C2C(=NC1)NC=C2",
    "meta_data": {
        "InChI": "InChI=1S/C7H6N2O/c10-6-3-5-1-2-8-7(5)9-4-6/h1-4,10H,(H,8,9)",
        "InChIKey": null,
        "Canonical SMILES": "OC=1C=NC=2NC=CC2C1",
        "Molecular Formula": "C<sub>7</sub>H<sub>6</sub>N<sub>2</sub>O",
        "Molecular Mass": "134.14",
        "Melting Point": "206.5-207.5 °C (decomp)"
    }
}