{
    "cas_no": "4569-77-1",
    "key_name": "2-Amino-3-hydroxyphenazine",
    "cn_name": "2-氨基-3-羟基吩嗪;2-氨基-3-羟基吩嗪;",
    "alternate_name": "2-Phenazinol, 3-amino-;3-Amino-2-phenazinol;3-Amino-2-hydroxyphenazine;2-Hydroxy-3-aminophenazine;2-Amino-3-hydroxyphenazine;NSC 52575",
    "duplicated_cas_no": "",
    "SMILES": "NC1=CC2=C(N=C3C(=N2)C=CC=C3)C=C1O",
    "meta_data": {
        "InChI": "InChI=1S/C12H9N3O/c13-7-5-10-11(6-12(7)16)15-9-4-2-1-3-8(9)14-10/h1-6,16H,13H2",
        "InChIKey": null,
        "Canonical SMILES": "OC=1C=C2N=C3C=CC=CC3=NC2=CC1N",
        "Molecular Formula": "C<sub>12</sub>H<sub>9</sub>N<sub>3</sub>O",
        "Molecular Mass": "211.22",
        "Melting Point": "&gt;300 °C"
    }
}