{
    "cas_no": "104612-35-3",
    "key_name": "(<em>S</em>)-<em>N</em>-Methylhydroxysuccinimide",
    "cn_name": null,
    "alternate_name": "2,5-Pyrrolidinedione, 3-hydroxy-1-methyl-, (3<em>S</em>)-;2,5-Pyrrolidinedione, 3-hydroxy-1-methyl-, (<em>S</em>)-;(3<em>S</em>)-3-Hydroxy-1-methyl-2,5-pyrrolidinedione;(<em>S</em>)-<em>N</em>-Methylhydroxysuccinimide;2,5-Pyrrolidinedione 3-hydroxy-1-methyl-, (3S)-;(<em>S</em>)-(-)-2-Hydroxy-<em>N</em>-methylsuccinimide",
    "duplicated_cas_no": "",
    "SMILES": "O=C1N(C)C(=O)C[C@@H]1O",
    "meta_data": {
        "InChI": "InChI=1S/C5H7NO3/c1-6-4(8)2-3(7)5(6)9/h3,7H,2H2,1H3/t3-/m0/s1",
        "InChIKey": null,
        "Canonical SMILES": "O=C1N(C(=O)C(O)C1)C",
        "Molecular Formula": "C<sub>5</sub>H<sub>7</sub>NO<sub>3</sub>",
        "Molecular Mass": "129.11",
        "Boiling Point": "140 °C @ Press: 2 Torr",
        "Melting Point": "87-89 °C"
    }
}