{
    "cas_no": "39905-57-2",
    "key_name": "4-(Hexyloxy)aniline",
    "cn_name": "4-己氧基苯胺;",
    "alternate_name": "Benzenamine, 4-(hexyloxy)-;Aniline, <em>p</em>-(hexyloxy)-;4-(Hexyloxy)benzenamine;4-(Hexyloxy)aniline;<em>p</em>-(Hexyloxy)aniline;4-(<em>n</em>-Hexyloxy)aniline;4-Hexyloxyphenylamine;1-Amino-4-(hexyloxy)benzene",
    "duplicated_cas_no": "",
    "SMILES": "O(CCCCCC)C1=CC=C(N)C=C1",
    "meta_data": {
        "InChI": "InChI=1S/C12H19NO/c1-2-3-4-5-10-14-12-8-6-11(13)7-9-12/h6-9H,2-5,10,13H2,1H3",
        "InChIKey": null,
        "Canonical SMILES": "O(C1=CC=C(N)C=C1)CCCCCC",
        "Molecular Formula": "C<sub>12</sub>H<sub>19</sub>NO",
        "Molecular Mass": "193.29",
        "Boiling Point": "153-155 °C @ Press: 0.5 Torr",
        "Melting Point": "62-63 °C"
    }
}