{
    "cas_no": "54716-02-8",
    "key_name": "Ethyl (2<em>E</em>)-3-(1-pyrrolidinyl)-2-butenoate",
    "cn_name": "(E)-3-(1-吡咯烷酮)巴豆酸乙酯;",
    "alternate_name": "2-Butenoic acid, 3-(1-pyrrolidinyl)-, ethyl ester, (2<em>E</em>)-;2-Butenoic acid, 3-(1-pyrrolidinyl)-, ethyl ester, (<em>E</em>)-;Ethyl (2<em>E</em>)-3-(1-pyrrolidinyl)-2-butenoate;Ethyl acetoacetate pyrrolidinyl enamine;Ethyl (<em>E</em>)-3-(pyrrolidino)-2-butenoate;(E)-Ethyl 3-(pyrrolidin-1-yl)but-2-enoate",
    "duplicated_cas_no": "",
    "SMILES": "C(=C\\C(OCC)=O)(\\C)/N1CCCC1",
    "meta_data": {
        "InChI": "InChI=1S/C10H17NO2/c1-3-13-10(12)8-9(2)11-6-4-5-7-11/h8H,3-7H2,1-2H3/b9-8+",
        "InChIKey": null,
        "Canonical SMILES": "O=C(OCC)C=C(N1CCCC1)C",
        "Molecular Formula": "C<sub>10</sub>H<sub>17</sub>NO<sub>2</sub>",
        "Molecular Mass": "183.25",
        "Boiling Point": "110 °C @ Press: 0.02 Torr",
        "Melting Point": "25-26 °C"
    }
}