{
    "cas_no": "62-13-5",
    "key_name": "Ethanone, 1-(3,4-dihydroxyphenyl)-2-(methylamino)-, hydrochloride (1:1)",
    "cn_name": "盐酸肾上腺酮;肾上腺素盐酸盐;3\",4\"-二羟基-2-(甲基氨基)苯乙酮盐酸盐;",
    "alternate_name": "Ethanone, 1-(3,4-dihydroxyphenyl)-2-(methylamino)-, hydrochloride (1:1);Acetophenone, 3′,4′-dihydroxy-2-(methylamino)-, hydrochloride;Adrenalone hydrochloride;Ethanone, 1-(3,4-dihydroxyphenyl)-2-(methylamino)-, hydrochloride;Adrenone hydrochloride;Kephrine hydrochloride;α-Methylamino-3′,4′-dihydroxyacetophenone hydrochloride;α-Methylamino-3,4-dihydroxyacetophenone hydrochloride;Styphnonasal;[2-(3,4-Dihydroxyphenyl)-2-oxoethyl](methyl)azanium chloride;1-(3,4-Dihydroxyphenyl)-2-(methylamino)ethan-1-one hydrochloride",
    "duplicated_cas_no": "",
    "SMILES": "C(CNC)(=O)C1=CC(O)=C(O)C=C1.Cl",
    "meta_data": {
        "InChI": "InChI=1S/C9H11NO3.ClH/c1-10-5-9(13)6-2-3-7(11)8(12)4-6;/h2-4,10-12H,5H2,1H3;1H",
        "InChIKey": null,
        "Canonical SMILES": "Cl.O=C(C1=CC=C(O)C(O)=C1)CNC",
        "Molecular Formula": "C<sub>9</sub>H<sub>11</sub>NO<sub>3</sub>.ClH",
        "Molecular Mass": "",
        "Melting Point": "243 °C"
    }
}