{
    "cas_no": "21331-43-1",
    "key_name": "2-Amino-4-(2-naphthyl)thiazole",
    "cn_name": "2-氨基-4-(2-萘基)噻唑;",
    "alternate_name": "2-Thiazolamine, 4-(2-naphthalenyl)-;Thiazole, 2-amino-4-(2-naphthyl)-;4-(2-Naphthalenyl)-2-thiazolamine;2-Amino-4-β-naphthylthiazole;2-Amino-4-(2-naphthyl)thiazole;4-(2-Naphthyl)-2-amino-1,3-thiazole;2-Amino-4-(naphthalen-2-yl)thiazole",
    "duplicated_cas_no": "2230882-81-0",
    "SMILES": "NC1=NC(C2=CC3=C(C=C2)C=CC=C3)=CS1",
    "meta_data": {
        "InChI": "InChI=1S/C13H10N2S/c14-13-15-12(8-16-13)11-6-5-9-3-1-2-4-10(9)7-11/h1-8H,(H2,14,15)",
        "InChIKey": null,
        "Canonical SMILES": "N1=C(SC=C1C=2C=CC=3C=CC=CC3C2)N",
        "Molecular Formula": "C<sub>13</sub>H<sub>10</sub>N<sub>2</sub>S",
        "Molecular Mass": "226.30",
        "Melting Point": "153-154 °C"
    }
}