{
    "cas_no": "3796-23-4",
    "key_name": "3-(Trifluoromethyl)pyridine",
    "cn_name": "3-三氟甲基吡啶;",
    "alternate_name": "Pyridine, 3-(trifluoromethyl)-;3-(Trifluoromethyl)pyridine;5-(Trifluoromethyl)pyridine",
    "duplicated_cas_no": "",
    "SMILES": "C(F)(F)(F)C=1C=CC=NC1",
    "meta_data": {
        "InChI": "InChI=1S/C6H4F3N/c7-6(8,9)5-2-1-3-10-4-5/h1-4H",
        "InChIKey": null,
        "Canonical SMILES": "FC(F)(F)C=1C=NC=CC1",
        "Molecular Formula": "C<sub>6</sub>H<sub>4</sub>F<sub>3</sub>N",
        "Molecular Mass": "147.10",
        "Boiling Point": "114 °C"
    }
}