{
    "cas_no": "36823-84-4",
    "key_name": "4-Pentyloxybenzoyl chloride",
    "cn_name": "对戊氧基苯甲酰氯;",
    "alternate_name": "Benzoyl chloride, 4-(pentyloxy)-;Benzoyl chloride, <em>p</em>-pentyloxy-;4-(Pentyloxy)benzoyl chloride;4-Pentyloxybenzoyl chloride;<em>p</em>-(Pentyloxy)benzoyl chloride;<em>p</em>-Pentoxybenzoyl chloride;4-(Amyloxy)benzoyl chloride;NSC 7951;4-Pentyloxybenzoic acid chloride",
    "duplicated_cas_no": "",
    "SMILES": "C(Cl)(=O)C1=CC=C(OCCCCC)C=C1",
    "meta_data": {
        "InChI": "InChI=1S/C12H15ClO2/c1-2-3-4-9-15-11-7-5-10(6-8-11)12(13)14/h5-8H,2-4,9H2,1H3",
        "InChIKey": null,
        "Canonical SMILES": "O=C(Cl)C1=CC=C(OCCCCC)C=C1",
        "Molecular Formula": "C<sub>12</sub>H<sub>15</sub>ClO<sub>2</sub>",
        "Molecular Mass": "226.70",
        "Boiling Point": "198-200 °C @ Press: 30 Torr"
    }
}