{
    "cas_no": "10140-89-3",
    "key_name": "2,3-Dichloropropanal",
    "cn_name": "二氯丙醛;",
    "alternate_name": "Propanal, 2,3-dichloro-;Propionaldehyde, 2,3-dichloro-;2,3-Dichloropropanal;α,β-Dichloropropionaldehyde;2,3-Dichloropropionaldehyde",
    "duplicated_cas_no": "",
    "SMILES": "C(CCl)(C=O)Cl",
    "meta_data": {
        "InChI": "InChI=1S/C3H4Cl2O/c4-1-3(5)2-6/h2-3H,1H2",
        "InChIKey": null,
        "Canonical SMILES": "O=CC(Cl)CCl",
        "Molecular Formula": "C<sub>3</sub>H<sub>4</sub>Cl<sub>2</sub>O",
        "Molecular Mass": "126.97",
        "Boiling Point": "48 °C @ Press: 14 Torr",
        "Density": "1.426 g/cm³ @ Temp: 0 °C"
    }
}