{
    "cas_no": "115-70-8",
    "key_name": "2-Amino-2-ethyl-1,3-propanediol",
    "cn_name": "2-氨基-2-乙基-1,3-丙二醇;",
    "alternate_name": "1,3-Propanediol, 2-amino-2-ethyl-;2-Amino-2-ethyl-1,3-propanediol;AEPD;2-Amino-2-ethylpropanediol;2-Ethyl-2-aminopropanediol;2-Ethyl-2-amino-1,3-propanediol;NSC 8803;(1,1-Bis(hydroxymethyl)propyl)amine;AEPD-VOX 1000;VOX 1000;2-Amino-2-ethylpropan-1,3-diol;AEPD 85",
    "duplicated_cas_no": "",
    "SMILES": "C(CC)(CO)(CO)N",
    "meta_data": {
        "InChI": "InChI=1S/C5H13NO2/c1-2-5(6,3-7)4-8/h7-8H,2-4,6H2,1H3",
        "InChIKey": null,
        "Canonical SMILES": "OCC(N)(CO)CC",
        "Molecular Formula": "C<sub>5</sub>H<sub>13</sub>NO<sub>2</sub>",
        "Molecular Mass": "119.16",
        "Boiling Point": "152.5 °C",
        "Melting Point": "37.5 °C"
    }
}