{
    "cas_no": "2351-36-2",
    "key_name": "2,6-Naphthalenedicarbonyl dichloride",
    "cn_name": null,
    "alternate_name": "2,6-Naphthalenedicarbonyl dichloride;2,6-Naphthalenedicarbonyl chloride;2,6-Naphthalenedicarboxylic chloride;2,6-Naphthoyl chloride;2,6-Naphthalenedicarboxylic dichloride;2,6-Naphthalenedicarboxylic acid dichloride;2,6-Naphthaloyl dichloride;26NADOC",
    "duplicated_cas_no": "",
    "SMILES": "C(Cl)(=O)C1=CC2=C(C=C(C(Cl)=O)C=C2)C=C1",
    "meta_data": {
        "InChI": "InChI=1S/C12H6Cl2O2/c13-11(15)9-3-1-7-5-10(12(14)16)4-2-8(7)6-9/h1-6H",
        "InChIKey": null,
        "Canonical SMILES": "O=C(Cl)C=1C=CC2=CC(=CC=C2C1)C(=O)Cl",
        "Molecular Formula": "C<sub>12</sub>H<sub>6</sub>Cl<sub>2</sub>O<sub>2</sub>",
        "Molecular Mass": "253.08",
        "Melting Point": "185-185.5 °C"
    }
}