{
    "cas_no": "106-14-9",
    "key_name": "12-Hydroxystearic acid",
    "cn_name": "12-羟基硬脂酸;12-羟基-十八酸;",
    "alternate_name": "Octadecanoic acid, 12-hydroxy-;Stearic acid, λ-hydroxy-;12-Hydroxyoctadecanoic acid;Hydrofol Acid 200;12-Hydroxystearic acid;Harwax A;Cerit Fac 3;Barolub FTO;Ceroxin GL;Loxiol G 21;KOW;G 21;12-HSA;<span class=\"text-smallcaps\">DL</span>-12-Hydroxystearic acid;<span class=\"text-smallcaps\">DL</span>-12-Hydroxyoctadecanoic acid;Solsperse 2000;Hoctol A;HSIM 160;Hydroxystearin R;NSC 2385;ADK Stab LS 12;Pelemol HSA;H 0308;Solid X;12HAS-I;HSA;12-Hydroacid;12-Hydroacid HP;Solplus D 310",
    "duplicated_cas_no": "8039-23-4;36377-33-0;78642-86-1;860114-96-1;1629856-01-4",
    "SMILES": "C(CCCCCCCCCCC(O)=O)(CCCCCC)O",
    "meta_data": {
        "InChI": "InChI=1S/C18H36O3/c1-2-3-4-11-14-17(19)15-12-9-7-5-6-8-10-13-16-18(20)21/h17,19H,2-16H2,1H3,(H,20,21)",
        "InChIKey": null,
        "Canonical SMILES": "O=C(O)CCCCCCCCCCC(O)CCCCCC",
        "Molecular Formula": "C<sub>18</sub>H<sub>36</sub>O<sub>3</sub>",
        "Molecular Mass": "300.48",
        "Melting Point": "82 °C"
    }
}