{
    "cas_no": "24683-20-3",
    "key_name": "1,2-Benzisothiazole-2(3<em>H</em>)-acetic acid, 3-oxo-, ethyl ester, 1,1-dioxide",
    "cn_name": "2,3-二氢-3-氧代-1,2-苯并异噻唑-2-乙酸乙酯-1,1-二氧化物;",
    "alternate_name": "1,2-Benzisothiazole-2(3<em>H</em>)-acetic acid, 3-oxo-, ethyl ester, 1,1-dioxide;1,2-Benzisothiazoline-2-acetic acid, 3-oxo-, ethyl ester, 1,1-dioxide;(1,1,3-Trioxo-1,3-dihydro-1λ*6*-benzo[<em>d</em>]isothiazol-2-yl)-acetic acid ethyl ester",
    "duplicated_cas_no": "",
    "SMILES": "O=S1(=O)C=2C(C(=O)N1CC(OCC)=O)=CC=CC2",
    "meta_data": {
        "InChI": "InChI=1S/C11H11NO5S/c1-2-17-10(13)7-12-11(14)8-5-3-4-6-9(8)18(12,15)16/h3-6H,2,7H2,1H3",
        "InChIKey": null,
        "Canonical SMILES": "O=C(OCC)CN1C(=O)C=2C=CC=CC2S1(=O)=O",
        "Molecular Formula": "C<sub>11</sub>H<sub>11</sub>NO<sub>5</sub>S",
        "Molecular Mass": "269.27",
        "Melting Point": "104-105 °C"
    }
}