{
    "cas_no": "947-72-8",
    "key_name": "9-Chlorophenanthrene",
    "cn_name": "9-氯代菲;",
    "alternate_name": "Phenanthrene, 9-chloro-;9-Chlorophenanthrene;10-Chlorophenanthrene;NSC 8552",
    "duplicated_cas_no": "",
    "SMILES": "ClC1=C2C(=C3C(=C1)C=CC=C3)C=CC=C2",
    "meta_data": {
        "InChI": "InChI=1S/C14H9Cl/c15-14-9-10-5-1-2-6-11(10)12-7-3-4-8-13(12)14/h1-9H",
        "InChIKey": null,
        "Canonical SMILES": "ClC1=CC=2C=CC=CC2C=3C=CC=CC13",
        "Molecular Formula": "C<sub>14</sub>H<sub>9</sub>Cl",
        "Molecular Mass": "212.67",
        "Boiling Point": "370 °C @ Press: 737 Torr",
        "Melting Point": "53-53.5 °C",
        "Density": "1.2310 g/cm³ @ Temp: 44 °C"
    }
}