{
    "cas_no": "1889-59-4",
    "key_name": "(Ethylsulfonyl)ethene",
    "cn_name": "乙基乙烯基砜;乙烯乙基砜;",
    "alternate_name": "Ethene, (ethylsulfonyl)-;Sulfone, ethyl vinyl;(Ethylsulfonyl)ethene;Ethyl vinyl sulfone;Vinyl ethyl sulfone;NSC 186282;(Ethanesulfonyl)ethene;1-Ethenylsulfonylethane;1-Vinylsulfonylethane",
    "duplicated_cas_no": "",
    "SMILES": "S(CC)(C=C)(=O)=O",
    "meta_data": {
        "InChI": "InChI=1S/C4H8O2S/c1-3-7(5,6)4-2/h3H,1,4H2,2H3",
        "InChIKey": null,
        "Canonical SMILES": "O=S(=O)(C=C)CC",
        "Molecular Formula": "C<sub>4</sub>H<sub>8</sub>O<sub>2</sub>S",
        "Molecular Mass": "120.17",
        "Boiling Point": "110-112 °C @ Press: 8 Torr",
        "Density": "1.1407 g/cm³ @ Temp: 20 °C"
    }
}