{
    "cas_no": "2216-34-4",
    "key_name": "(±)-4-Methyloctane",
    "cn_name": "4-甲基辛烷;",
    "alternate_name": "Octane, 4-methyl-;4-Methyloctane;NSC 23691;(±)-4-Methyloctane",
    "duplicated_cas_no": "116783-16-5",
    "SMILES": "C(CCCC)(CCC)C",
    "meta_data": {
        "InChI": "InChI=1S/C9H20/c1-4-6-8-9(3)7-5-2/h9H,4-8H2,1-3H3",
        "InChIKey": null,
        "Canonical SMILES": "CCCCC(C)CCC",
        "Molecular Formula": "C<sub>9</sub>H<sub>20</sub>",
        "Molecular Mass": "128.26",
        "Boiling Point": "142.4 °C",
        "Melting Point": "-113.3 °C",
        "Density": "0.7320 g/cm³ @ Temp: 16 °C"
    }
}