{
    "cas_no": "3102-87-2",
    "key_name": "2,3,5,6-Tetramethyl-1,4-phenylenediamine",
    "cn_name": "2,3,5,6-四甲基-1,4-苯二胺;四甲基对苯二胺;2,3,5,6-四甲基对苯二胺;",
    "alternate_name": "1,4-Benzenediamine, 2,3,5,6-tetramethyl-;<em>p</em>-Phenylenediamine, 2,3,5,6-tetramethyl-;2,3,5,6-Tetramethyl-1,4-benzenediamine;Diaminodurol;Diaminodurene;1,4-Diamino-2,3,5,6-tetramethylbenzene;Durenediamine;2,3,5,6-Tetramethyl-<em>p</em>-phenylenediamine;2,3,5,6-Tetramethylphenylenediamine;DAD(H);2,3,5,6-Tetramethyl-1,4-phenylenediamine;Tetramethyl-<em>p</em>-phenylenediamine;NSC 158251;T 1457;1,4-Diaminodurene",
    "duplicated_cas_no": "142373-32-8",
    "SMILES": "CC1=C(C)C(N)=C(C)C(C)=C1N",
    "meta_data": {
        "InChI": "InChI=1S/C10H16N2/c1-5-6(2)10(12)8(4)7(3)9(5)11/h11-12H2,1-4H3",
        "InChIKey": null,
        "Canonical SMILES": "NC=1C(=C(C(N)=C(C1C)C)C)C",
        "Molecular Formula": "C<sub>10</sub>H<sub>16</sub>N<sub>2</sub>",
        "Molecular Mass": "164.25",
        "Melting Point": "149-150 °C"
    }
}