{
    "cas_no": "34981-26-5",
    "key_name": "Kurarinone",
    "cn_name": null,
    "alternate_name": "4<em>H</em>-1-Benzopyran-4-one, 2-(2,4-dihydroxyphenyl)-2,3-dihydro-7-hydroxy-5-methoxy-8-[(2<em>R</em>)-5-methyl-2-(1-methylethenyl)-4-hexen-1-yl]-, (2<em>S</em>)-;4<em>H</em>-1-Benzopyran-4-one, 2-(2,4-dihydroxyphenyl)-2,3-dihydro-7-hydroxy-5-methoxy-8-[(2<em>R</em>)-5-methyl-2-(1-methylethenyl)-4-hexenyl]-, (2<em>S</em>)-;(2<em>S</em>)-2-(2,4-Dihydroxyphenyl)-2,3-dihydro-7-hydroxy-5-methoxy-8-[(2<em>R</em>)-5-methyl-2-(1-methylethenyl)-4-hexen-1-yl]-4<em>H</em>-1-benzopyran-4-one;Kurarinone;(-)-Kurarinone;Marini;SML 1843",
    "duplicated_cas_no": "36545-62-7;270249-39-3",
    "SMILES": "C([C@@H](CC=C(C)C)C(C)=C)C1=C2C(=C(OC)C=C1O)C(=O)C[C@H](O2)C3=C(O)C=C(O)C=C3",
    "meta_data": {
        "InChI": "InChI=1S/C26H30O6/c1-14(2)6-7-16(15(3)4)10-19-21(29)12-24(31-5)25-22(30)13-23(32-26(19)25)18-9-8-17(27)11-20(18)28/h6,8-9,11-12,16,23,27-29H,3,7,10,13H2,1-2,4-5H3/t16-,23+/m1/s1",
        "InChIKey": null,
        "Canonical SMILES": "O=C1C=2C(OC)=CC(O)=C(C2OC(C3=CC=C(O)C=C3O)C1)CC(C(=C)C)CC=C(C)C",
        "Molecular Formula": "C<sub>26</sub>H<sub>30</sub>O<sub>6</sub>",
        "Molecular Mass": "438.51",
        "Melting Point": "115-117 °C"
    }
}