{
    "cas_no": "13211-01-3",
    "key_name": "1-[1,1′-Biphenyl]-4-yl-1-butanone",
    "cn_name": "4-丁酰基联苯;二苯丁酮;",
    "alternate_name": "1-Butanone, 1-[1,1′-biphenyl]-4-yl-;Butyrophenone, 4′-phenyl-;1-[1,1′-Biphenyl]-4-yl-1-butanone;<em>p</em>-Phenylbutyrophenone;4′-Phenylbutyrophenone;1-<em>p</em>-Biphenylyl-1-butanone;4-Butyrylbiphenyl;NSC 24804;4-Butanoylbiphenyl;1-(4-Biphenylyl)-1-butanone;1-(4-Phenylphenyl)butan-1-one",
    "duplicated_cas_no": "",
    "SMILES": "C(CCC)(=O)C1=CC=C(C=C1)C2=CC=CC=C2",
    "meta_data": {
        "InChI": "InChI=1S/C16H16O/c1-2-6-16(17)15-11-9-14(10-12-15)13-7-4-3-5-8-13/h3-5,7-12H,2,6H2,1H3",
        "InChIKey": null,
        "Canonical SMILES": "O=C(C=1C=CC(=CC1)C=2C=CC=CC2)CCC",
        "Molecular Formula": "C<sub>16</sub>H<sub>16</sub>O",
        "Molecular Mass": "224.30",
        "Boiling Point": "187-190 °C @ Press: 1 Torr",
        "Melting Point": "94 °C"
    }
}