{
    "cas_no": "13688-90-9",
    "key_name": "Trichloro[4-(chloromethyl)phenyl]silane",
    "cn_name": null,
    "alternate_name": "Benzene, 1-(chloromethyl)-4-(trichlorosilyl)-;Silane, trichloro(α-chloro-<em>p</em>-tolyl)-;Silane, trichloro[4-(chloromethyl)phenyl]-;1-(Chloromethyl)-4-(trichlorosilyl)benzene;[4-(Chloromethyl)phenyl]trichlorosilane;Trichloro[4-(chloromethyl)phenyl]silane;[<em>p</em>-(Chloromethyl)phenyl]trichlorosilane;4-(Trichlorosilyl)benzyl chloride",
    "duplicated_cas_no": "",
    "SMILES": "[Si](Cl)(Cl)(Cl)C1=CC=C(CCl)C=C1",
    "meta_data": {
        "InChI": "InChI=1S/C7H6Cl4Si/c8-5-6-1-3-7(4-2-6)12(9,10)11/h1-4H,5H2",
        "InChIKey": null,
        "Canonical SMILES": "ClCC1=CC=C(C=C1)[Si](Cl)(Cl)Cl",
        "Molecular Formula": "C<sub>7</sub>H<sub>6</sub>Cl<sub>4</sub>Si",
        "Molecular Mass": "260.02",
        "Boiling Point": "142-144 °C @ Press: 15 Torr",
        "Density": "1.361 g/cm³"
    }
}