{
    "cas_no": "22433-89-2",
    "key_name": "4-Bromo-1,3-benzenedicarbonitrile",
    "cn_name": null,
    "alternate_name": "1,3-Benzenedicarbonitrile, 4-bromo-;Isophthalonitrile, 4-bromo-;4-Bromo-1,3-benzenedicarbonitrile;4-Bromoisophthalonitrile;2,4-Dicyanobromobenzene",
    "duplicated_cas_no": "",
    "SMILES": "C(#N)C1=CC(C#N)=CC=C1Br",
    "meta_data": {
        "InChI": "InChI=1S/C8H3BrN2/c9-8-2-1-6(4-10)3-7(8)5-11/h1-3H",
        "InChIKey": null,
        "Canonical SMILES": "N#CC1=CC=C(Br)C(C#N)=C1",
        "Molecular Formula": "C<sub>8</sub>H<sub>3</sub>BrN<sub>2</sub>",
        "Molecular Mass": "207.03",
        "Melting Point": "191-193 °C"
    }
}