{
    "cas_no": "3663-82-9",
    "key_name": "2,3-Dihydro-1,4-benzodioxin-2-methanol",
    "cn_name": "2-羟甲基-1,4-苯二恶;2-羟甲基-1,4-苯并二噁烷;1,4-苯并二噁烷-2-甲醇;",
    "alternate_name": "1,4-Benzodioxin-2-methanol, 2,3-dihydro-;1,4-Benzodioxan-2-methanol;2,3-Dihydro-1,4-benzodioxin-2-methanol;2-(Hydroxymethyl)-1,4-benzodioxan;2-(Hydroxymethyl)-1,4-benzodioxane;1,4-Benzodioxane-2-methanol;(2,3-Dihydro-1,4-benzodioxin-2-yl)methanol;NSC 1880;NSC 24520;NSC 36118;NSC 36578;NSC 403800;NSC 51502;(1,4-Benzodioxan-2-yl)methanol;2-(Hydroxymethyl)-2,3-dihydro-1,4-benzodioxane;2,3-Dihydro-1,4-benzodioxin-3-ylmethanol;2-Hydroxymethyl-2,3-dihydrobenzo[1,4]dioxin;2-Hydroxymethyl-5,6-benzo-1,4-dioxane",
    "duplicated_cas_no": "128387-53-1",
    "SMILES": "C(O)C1OC=2C(OC1)=CC=CC2",
    "meta_data": {
        "InChI": "InChI=1S/C9H10O3/c10-5-7-6-11-8-3-1-2-4-9(8)12-7/h1-4,7,10H,5-6H2",
        "InChIKey": null,
        "Canonical SMILES": "OCC1OC=2C=CC=CC2OC1",
        "Molecular Formula": "C<sub>9</sub>H<sub>10</sub>O<sub>3</sub>",
        "Molecular Mass": "166.17",
        "Boiling Point": "154-155 °C @ Press: 12 Torr",
        "Melting Point": "86 °C"
    }
}