{
    "cas_no": "1653-16-3",
    "key_name": "3-(Iodomethyl)heptane",
    "cn_name": "2-乙基碘己烷;",
    "alternate_name": "Heptane, 3-(iodomethyl)-;3-(Iodomethyl)heptane;2-Ethylhexyl iodide",
    "duplicated_cas_no": "",
    "SMILES": "C(CCCC)(CC)CI",
    "meta_data": {
        "InChI": "InChI=1S/C8H17I/c1-3-5-6-8(4-2)7-9/h8H,3-7H2,1-2H3",
        "InChIKey": null,
        "Canonical SMILES": "ICC(CC)CCCC",
        "Molecular Formula": "C<sub>8</sub>H<sub>17</sub>I",
        "Molecular Mass": "240.12",
        "Boiling Point": "89-90 °C @ Press: 11 Torr",
        "Density": "1.3398 g/cm³ @ Temp: 25 °C"
    }
}