{
    "cas_no": "226256-56-0",
    "key_name": "Cinacalcet",
    "cn_name": "甲状旁腺激素;西那卡塞;N-((1R)-1-(1-萘基)乙基)-3-(3-(三氟甲基)苯基)丙-1-胺;",
    "alternate_name": "1-Naphthalenemethanamine, α-methyl-<em>N</em>-[3-[3-(trifluoromethyl)phenyl]propyl]-, (α<em>R</em>)-;(α<em>R</em>)-α-Methyl-<em>N</em>-[3-[3-(trifluoromethyl)phenyl]propyl]-1-naphthalenemethanamine;Cinacalcet;AMG 073;<em>N</em>-[(1<em>R</em>)-1-(1-Naphthyl)ethyl]-3-[3-(trifluoromethyl)phenyl]propan-1-amine;Parareg",
    "duplicated_cas_no": "",
    "SMILES": "[C@@H](NCCCC1=CC(C(F)(F)F)=CC=C1)(C)C=2C3=C(C=CC2)C=CC=C3",
    "meta_data": {
        "InChI": "InChI=1S/C22H22F3N/c1-16(20-13-5-10-18-9-2-3-12-21(18)20)26-14-6-8-17-7-4-11-19(15-17)22(23,24)25/h2-5,7,9-13,15-16,26H,6,8,14H2,1H3/t16-/m1/s1",
        "InChIKey": null,
        "Canonical SMILES": "FC(F)(F)C=1C=CC=C(C1)CCCNC(C2=CC=CC=3C=CC=CC32)C",
        "Molecular Formula": "C<sub>22</sub>H<sub>22</sub>F<sub>3</sub>N",
        "Molecular Mass": "357.41",
        "Boiling Point": "178.2 °C"
    }
}