{
    "cas_no": "6975-71-9",
    "key_name": "1-Cyclohexene-1-acetonitrile",
    "cn_name": "1-环己烯乙腈;",
    "alternate_name": "1-Cyclohexene-1-acetonitrile;1-Cyclohexen-1-ylacetonitrile;2-(1-Cyclohexenyl)acetonitrile;1-Cyclohexenylacetonitrile;NSC 21642;2-(Cyclohex-1-en-1-yl)acetonitrile",
    "duplicated_cas_no": "",
    "SMILES": "C(C#N)C=1CCCCC1",
    "meta_data": {
        "InChI": "InChI=1S/C8H11N/c9-7-6-8-4-2-1-3-5-8/h4H,1-3,5-6H2",
        "InChIKey": null,
        "Canonical SMILES": "N#CCC1=CCCCC1",
        "Molecular Formula": "C<sub>8</sub>H<sub>11</sub>N",
        "Molecular Mass": "121.18",
        "Boiling Point": "112 °C @ Press: 27 Torr",
        "Melting Point": "225-227 °C",
        "Density": "0.94727 g/cm³ @ Temp: 21.1 °C"
    }
}