{
    "cas_no": "10094-36-7",
    "key_name": "Ethyl cyclohexanepropionate",
    "cn_name": null,
    "alternate_name": "Cyclohexanepropanoic acid, ethyl ester;Cyclohexanepropionic acid, ethyl ester;Ethyl cyclohexanepropionate;Ethyl cyclohexylpropanoate;Ethyl 3-cyclohexylpropionate;Ethyl 3-cyclohexylpropanoate;3-Cyclohexylpropionic acid ethyl ester;NSC 71463;Ethyl 3-cyclohexanepropionate",
    "duplicated_cas_no": "",
    "SMILES": "C(CC(OCC)=O)C1CCCCC1",
    "meta_data": {
        "InChI": "InChI=1S/C11H20O2/c1-2-13-11(12)9-8-10-6-4-3-5-7-10/h10H,2-9H2,1H3",
        "InChIKey": null,
        "Canonical SMILES": "O=C(OCC)CCC1CCCCC1",
        "Molecular Formula": "C<sub>11</sub>H<sub>20</sub>O<sub>2</sub>",
        "Molecular Mass": "184.28",
        "Boiling Point": "105-113 °C @ Press: 17 Torr"
    }
}