{
    "cas_no": "135-64-8",
    "key_name": "3-Hydroxy-<em>N</em>-2-naphthalenyl-2-naphthalenecarboxamide",
    "cn_name": "N-2-萘基-3-羟基-2-萘甲酰胺;萘酚AS-SW;纳夫妥AS-SW;冰染偶合组分7;",
    "alternate_name": "2-Naphthalenecarboxamide, 3-hydroxy-<em>N</em>-2-naphthalenyl-;2-Naphthamide, 3-hydroxy-<em>N</em>-2-naphthyl-;3-Hydroxy-<em>N</em>-2-naphthalenyl-2-naphthalenecarboxamide;C.I. 37565;Acco Naf-Sol AS-SW;Acco Naphthol AS-SW;Acna Naphthol D;Amanil Naphthol AS-SW;Amarthol AS-SW;Anthonaphthol SW;Celcot RA;Cibanaphthol RA;C.I. Azoic Coupling Component 7;Diathol SW;Dragonthol SW;Hiltonaphthol AS-SW;3-Hydroxy-<em>N</em>-2-naphthyl-2-naphthamide;Mitsui Naphthozol SW;Naftolo MSW;Naphtanilide SW;Naphtazol SW;Naphthanilid SW;Naphthanil SW;Naphthoide SW;Naphthol AS-SW Dispersible;Naphtholate AS-SW Soln;Naphthol AS-SW;Naphthosol SWF;<em>N</em>-(β-Naphthyl)-2-hydroxy-3-naphthamide;Naphtoelan SW;Naphtol AS-SW;Naphtol AS-SWLL;Naphtol AS-SWN;Naphtol AS-SW Supra;Naphtolate AS-SW Conc. Soln.;Solunaptol BNXL;Tulathol AS-SW;C.I. Developer 23;Miketazol Developer HF;WR 81231;Naphthol SW;NSC 37622;NSC 42112;Dycosthol AS-SW;Hebeithol AS-SW;Anarthol AS-SW;Napthol ASSW;Conazoic L;Naftol AS-SW",
    "duplicated_cas_no": "12235-64-2",
    "SMILES": "C(NC1=CC2=C(C=C1)C=CC=C2)(=O)C3=CC4=C(C=C3O)C=CC=C4",
    "meta_data": {
        "InChI": "InChI=1S/C21H15NO2/c23-20-13-17-8-4-3-7-16(17)12-19(20)21(24)22-18-10-9-14-5-1-2-6-15(14)11-18/h1-13,23H,(H,22,24)",
        "InChIKey": null,
        "Canonical SMILES": "O=C(NC=1C=CC=2C=CC=CC2C1)C3=CC=4C=CC=CC4C=C3O",
        "Molecular Formula": "C<sub>21</sub>H<sub>15</sub>NO<sub>2</sub>",
        "Molecular Mass": "313.35",
        "Melting Point": "258-260 °C"
    }
}