{
    "cas_no": "507-40-4",
    "key_name": "<em>tert</em>-Butyl hypochlorite",
    "cn_name": "次氨酸叔丁基酯;",
    "alternate_name": "Hypochlorous acid, 1,1-dimethylethyl ester;Hypochlorous acid, <em>tert</em>-butyl ester;<em>tert</em>-Butyl hypochlorite;1,1-Dimethylethyl hypochlorite",
    "duplicated_cas_no": "",
    "SMILES": "C(OCl)(C)(C)C",
    "meta_data": {
        "InChI": "InChI=1S/C4H9ClO/c1-4(2,3)6-5/h1-3H3",
        "InChIKey": null,
        "Canonical SMILES": "ClOC(C)(C)C",
        "Molecular Formula": "C<sub>4</sub>H<sub>9</sub>ClO",
        "Molecular Mass": "108.57",
        "Boiling Point": "77.5 °C",
        "Density": "0.9583 g/cm³ @ Temp: 18 °C"
    }
}