{
    "cas_no": "95-01-2",
    "key_name": "2,4-Dihydroxybenzaldehyde",
    "cn_name": "2,4-二羟基苯甲醛;",
    "alternate_name": "Benzaldehyde, 2,4-dihydroxy-;β-Resorcylaldehyde;2,4-Dihydroxybenzaldehyde;2,4-Dihydroxybenzenecarbonal;β-Resorcylic aldehyde;4-Hydroxysalicylaldehyde;β-Resorcaldehyde;β-Resorcinaldehyde;4-Formylresorcinol;6-Formylresorcinol;NC 012;2,4-Dihydroxysalicylaldehyde;NSC 8690;2,4-Dihydroxybezaldehyde;4-Formylbenzene-1,3-diol",
    "duplicated_cas_no": "1060789-59-4;2295913-47-0",
    "SMILES": "C(=O)C1=C(O)C=C(O)C=C1",
    "meta_data": {
        "InChI": "InChI=1S/C7H6O3/c8-4-5-1-2-6(9)3-7(5)10/h1-4,9-10H",
        "InChIKey": null,
        "Canonical SMILES": "O=CC1=CC=C(O)C=C1O",
        "Molecular Formula": "C<sub>7</sub>H<sub>6</sub>O<sub>3</sub>",
        "Molecular Mass": "138.12",
        "Boiling Point": "85-90 °C @ Press: 0.03 Torr",
        "Melting Point": "135 °C"
    }
}