{
    "cas_no": "138-32-9",
    "key_name": "Cetyltrimethylammonium tosylate",
    "cn_name": "西曲铵对甲苯磺酸盐;十六烷基三甲基对甲苯磺酸铵;",
    "alternate_name": "1-Hexadecanaminium, <em>N</em>,<em>N</em>,<em>N</em>-trimethyl-, 4-methylbenzenesulfonate (1:1);Ammonium, hexadecyltrimethyl-, <em>p</em>-toluenesulfonate;Hexadecyltrimethylammonium <em>p</em>-toluenesulfonate;1-Hexadecanaminium, <em>N</em>,<em>N</em>,<em>N</em>-trimethyl-, salt with 4-methylbenzenesulfonic acid (1:1);Tricetol;Cetats;Cetyltrimethylammonium <em>p</em>-toluenesulfonate;Cetyltrimethylammonium tosylate;Quatrol;Cetyltrimethylammonium 4-toluenesulfonate;CTAOTOS;Hexadecyltrimethylammonium <em>p</em>-tosylate;Cetrimonium tosylate;Hexadecyltrimethylammonium tosylate",
    "duplicated_cas_no": "57158-41-5;84505-77-1",
    "SMILES": "S(=O)(=O)([O-])C1=CC=C(C)C=C1.C(CCCCCCCCCCCCC)CC[N+](C)(C)C",
    "meta_data": {
        "InChI": "InChI=1S/C19H42N.C7H8O3S/c1-5-6-7-8-9-10-11-12-13-14-15-16-17-18-19-20(2,3)4;1-6-2-4-7(5-3-6)11(8,9)10/h5-19H2,1-4H3;2-5H,1H3,(H,8,9,10)/q+1;/p-1",
        "InChIKey": null,
        "Canonical SMILES": "O=S(=O)([O-])C1=CC=C(C=C1)C.CCCCCCCCCCCCCCCC[N+](C)(C)C",
        "Molecular Formula": "C<sub>19</sub>H<sub>42</sub>N.C<sub>7</sub>H<sub>7</sub>O<sub>3</sub>S",
        "Molecular Mass": "",
        "Melting Point": "223-229 °C (decomp)"
    }
}