{
    "cas_no": "5231-60-7",
    "key_name": "Vindorosine",
    "cn_name": null,
    "alternate_name": "Aspidospermidine-3-carboxylic acid, 4-(acetyloxy)-6,7-didehydro-3-hydroxy-1-methyl-, methyl ester, (2β,3β,4β,5α,12<em>R</em>,19α)-;Vindorosine;Aspidospermidine-3-carboxylic acid, 4-(acetyloxy)-6,7-didehydro-3-hydroxy-1-methyl-, methyl ester, (2β,3β,4β,5α,12β,19α)-;1<em>H</em>-Indolizino[8,1-<em>cd</em>]carbazole, aspidospermidine-3-carboxylic acid deriv.;Vindolidine;Demethoxyvindoline;Vindorosin;Vindolidin;(+)-Vindorosine;NSC 94038",
    "duplicated_cas_no": "884483-71-0",
    "SMILES": "C(C)[C@@]12[C@]3([C@@]4([C@]([C@](C(OC)=O)(O)[C@@H]1OC(C)=O)(N(C)C=5C4=CC=CC5)[H])CCN3CC=C2)[H]",
    "meta_data": {
        "InChI": "InChI=1S/C24H30N2O5/c1-5-22-11-8-13-26-14-12-23(18(22)26)16-9-6-7-10-17(16)25(3)19(23)24(29,21(28)30-4)20(22)31-15(2)27/h6-11,18-20,29H,5,12-14H2,1-4H3/t18-,19+,20+,22+,23+,24-/m0/s1",
        "InChIKey": null,
        "Canonical SMILES": "O=C(OC1C(O)(C(=O)OC)C2N(C=3C=CC=CC3C42CCN5CC=CC1(CC)C54)C)C",
        "Molecular Formula": "C<sub>24</sub>H<sub>30</sub>N<sub>2</sub>O<sub>5</sub>",
        "Molecular Mass": "426.51",
        "Melting Point": "167 °C"
    }
}