{
    "cas_no": "1461-22-9",
    "key_name": "Tributyltin chloride",
    "cn_name": "三丁基氯化锡;",
    "alternate_name": "Stannane, tributylchloro-;Tributyltin chloride;Tributylchlorostannane;Chlorotri-<em>n</em>-butyltin;Chlorotributylstannane;Tributylchlorotin;Tri-<em>n</em>-butylchlorotin;Tributylstannyl chloride;Monochlorotributyltin;WR 3396;Chlorotributyltin;Tri-<em>n</em>-butylchlorostannane;Chlorotri-<em>n</em>-butylstannane;Tri-<em>n</em>-butylstannyl chloride;NSC 22323",
    "duplicated_cas_no": "",
    "SMILES": "[Sn](CCCC)(CCCC)(CCCC)Cl",
    "meta_data": {
        "InChI": "InChI=1S/3C4H9.ClH.Sn/c3*1-3-4-2;;/h3*1,3-4H2,2H3;1H;/q;;;;+1/p-1",
        "InChIKey": null,
        "Canonical SMILES": "Cl[Sn](CCCC)(CCCC)CCCC",
        "Molecular Formula": "C<sub>12</sub>H<sub>27</sub>ClSn",
        "Molecular Mass": "325.51",
        "Boiling Point": "171-173 °C @ Press: 25 Torr",
        "Melting Point": "-19 °C",
        "Density": "1.20 g/cm³ @ Temp: 20 °C"
    }
}