{
    "cas_no": "84888-35-7",
    "key_name": "<em>N</em>-[(1,1-Dimethylethoxy)carbonyl]-<em>S</em>-(9<em>H</em>-fluoren-9-ylmethyl)-<span class=\"text-smallcaps\">L</span>-cysteine",
    "cn_name": null,
    "alternate_name": "<span class=\"text-smallcaps\">L</span>-Cysteine, <em>N</em>-[(1,1-dimethylethoxy)carbonyl]-<em>S</em>-(9<em>H</em>-fluoren-9-ylmethyl)-;<em>N</em>-[(1,1-Dimethylethoxy)carbonyl]-<em>S</em>-(9<em>H</em>-fluoren-9-ylmethyl)-<span class=\"text-smallcaps\">L</span>-cysteine",
    "duplicated_cas_no": "",
    "SMILES": "C(SC[C@H](NC(OC(C)(C)C)=O)C(O)=O)C1C=2C(C=3C1=CC=CC3)=CC=CC2",
    "meta_data": {
        "InChI": "InChI=1S/C22H25NO4S/c1-22(2,3)27-21(26)23-19(20(24)25)13-28-12-18-16-10-6-4-8-14(16)15-9-5-7-11-17(15)18/h4-11,18-19H,12-13H2,1-3H3,(H,23,26)(H,24,25)/t19-/m0/s1",
        "InChIKey": null,
        "Canonical SMILES": "O=C(OC(C)(C)C)NC(C(=O)O)CSCC1C=2C=CC=CC2C=3C=CC=CC31",
        "Molecular Formula": "C<sub>22</sub>H<sub>25</sub>NO<sub>4</sub>S",
        "Molecular Mass": "399.50",
        "Melting Point": "74-75 °C"
    }
}