{
    "cas_no": "5408-74-2",
    "key_name": "2-Ethenyl-5-ethylpyridine",
    "cn_name": "5-乙基-2-乙烯基吡啶;",
    "alternate_name": "Pyridine, 2-ethenyl-5-ethyl-;Pyridine, 5-ethyl-2-vinyl-;2-Ethenyl-5-ethylpyridine;5-Ethyl-2-vinylpyridine;NSC 8395;2-Vinyl-5-ethylpyridine",
    "duplicated_cas_no": "",
    "SMILES": "C(C)C=1C=CC(C=C)=NC1",
    "meta_data": {
        "InChI": "InChI=1S/C9H11N/c1-3-8-5-6-9(4-2)10-7-8/h4-7H,2-3H2,1H3",
        "InChIKey": null,
        "Canonical SMILES": "N=1C=C(C=CC1C=C)CC",
        "Molecular Formula": "C<sub>9</sub>H<sub>11</sub>N",
        "Molecular Mass": "133.19",
        "Boiling Point": "64-65 °C @ Press: 3 Torr"
    }
}