{
    "cas_no": "710-04-3",
    "key_name": "δ-Undecalactone",
    "cn_name": "丁位十一内酯;",
    "alternate_name": "2<em>H</em>-Pyran-2-one, 6-hexyltetrahydro-;Undecanoic acid, 5-hydroxy-, δ-lactone;Hendecanoic acid, 5-hydroxy-, lactone;6-Hexyltetrahydro-2<em>H</em>-pyran-2-one;δ-Hexylvalerolactone;Δ-Hexyl-Δ-valerolactone;5-Hydroxyundecanoic acid lactone;δ-Undecalactone;5-Undecanolide;(±)-δ-Undecalactone;(<em>RS</em>)-δ-Undecalactone;δ-Undecanolactone;6-Hexyl-2<em>H</em>-tetrahydropyran-2-one;Undecanoic-δ-lactone;6-Hexyloxan-2-one",
    "duplicated_cas_no": "118100-37-1",
    "SMILES": "C(CCCCC)C1OC(=O)CCC1",
    "meta_data": {
        "InChI": "InChI=1S/C11H20O2/c1-2-3-4-5-7-10-8-6-9-11(12)13-10/h10H,2-9H2,1H3",
        "InChIKey": null,
        "Canonical SMILES": "O=C1OC(CCC1)CCCCCC",
        "Molecular Formula": "C<sub>11</sub>H<sub>20</sub>O<sub>2</sub>",
        "Molecular Mass": "184.28",
        "Boiling Point": "145 °C @ Press: 8 Torr"
    }
}