{
    "cas_no": "578-74-5",
    "key_name": "Apigenin 7-<em>O</em>-glucoside",
    "cn_name": "芹甙元-7-葡萄糖苷;",
    "alternate_name": "4<em>H</em>-1-Benzopyran-4-one, 7-(β-<span class=\"text-smallcaps\">D</span>-glucopyranosyloxy)-5-hydroxy-2-(4-hydroxyphenyl)-;Cosmosiin;Apigenin, 7-β-<span class=\"text-smallcaps\">D</span>-glucopyranoside;7-(β-<span class=\"text-smallcaps\">D</span>-Glucopyranosyloxy)-5-hydroxy-2-(4-hydroxyphenyl)-4<em>H</em>-1-benzopyran-4-one;Cosmetin;Cosmosiine;Cosmosioside;7-<em>O</em>-β-<span class=\"text-smallcaps\">D</span>-Glucopyranosylapigenin;Apigenin 7-<em>O</em>-β-<span class=\"text-smallcaps\">D</span>-glucopyranoside;Apigetrin;Apigenin 7-β-<span class=\"text-smallcaps\">D</span>-glucoside;7-<em>O</em>-β-<span class=\"text-smallcaps\">D</span>-Glucosylapigenin;Apigenin 7-<em>O</em>-β-<span class=\"text-smallcaps\">D</span>-glucoside;4′,5,7-Trihydroxyflavone 7-β-<span class=\"text-smallcaps\">D</span>-glucoside;NSC 407303;Cosmociin;Cosmoside;Apigenin 7-<em>O</em>-glucoside;Apigenin 7-<em>O</em>-β-glucopyranoside;Apigenin 7-glucoside;Apigenin 7-<em>O</em>-β-glucoside;Apigenin-7-<em>O</em>-<sup>4</sup>C<sub>1</sub>-β-<span class=\"text-smallcaps\">D</span>-glucoside;AGI 6481",
    "duplicated_cas_no": "104119-99-5;116895-83-1;1329-13-1;5254-82-0;11019-02-6;30965-72-1;31923-09-8;734470-36-1",
    "SMILES": "O=C1C=2C(OC(=C1)C3=CC=C(O)C=C3)=CC(O[C@@H]4O[C@H](CO)[C@@H](O)[C@H](O)[C@H]4O)=CC2O",
    "meta_data": {
        "InChI": "InChI=1S/C21H20O10/c22-8-16-18(26)19(27)20(28)21(31-16)29-11-5-12(24)17-13(25)7-14(30-15(17)6-11)9-1-3-10(23)4-2-9/h1-7,16,18-24,26-28H,8H2/t16-,18-,19+,20-,21-/m1/s1",
        "InChIKey": null,
        "Canonical SMILES": "O=C1C=C(OC2=CC(OC3OC(CO)C(O)C(O)C3O)=CC(O)=C12)C=4C=CC(O)=CC4",
        "Molecular Formula": "C<sub>21</sub>H<sub>20</sub>O<sub>10</sub>",
        "Molecular Mass": "432.38",
        "Melting Point": "229-232 °C"
    }
}