{
    "cas_no": "153254-09-2",
    "key_name": "2,4-Bis(trifluoromethyl)phenylboronic acid",
    "cn_name": "2,4-双三氟甲基苯硼酸;2,4-双(三氟甲基)苯硼酸;",
    "alternate_name": "Boronic acid, <em>B</em>-[2,4-bis(trifluoromethyl)phenyl]-;Boronic acid, [2,4-bis(trifluoromethyl)phenyl]-;<em>B</em>-[2,4-Bis(trifluoromethyl)phenyl]boronic acid;2,4-Bis(trifluoromethyl)phenylboronic acid;2,4-Bis(trifluoromethyl)benzeneboronic acid;2,4-Di(trifluoromethyl)benzeneboronic acid;[2′,4′-Bis(trifluoromethyl)phenyl]boronic acid;(2,4-Ditrifluoromethylphenyl)boronic acid",
    "duplicated_cas_no": "",
    "SMILES": "C(F)(F)(F)C1=C(B(O)O)C=CC(C(F)(F)F)=C1",
    "meta_data": {
        "InChI": "InChI=1S/C8H5BF6O2/c10-7(11,12)4-1-2-6(9(16)17)5(3-4)8(13,14)15/h1-3,16-17H",
        "InChIKey": null,
        "Canonical SMILES": "FC(F)(F)C1=CC=C(B(O)O)C(=C1)C(F)(F)F",
        "Molecular Formula": "C<sub>8</sub>H<sub>5</sub>BF<sub>6</sub>O<sub>2</sub>",
        "Molecular Mass": "257.93",
        "Melting Point": "109-110 °C"
    }
}