{
    "cas_no": "555-68-0",
    "key_name": "3-(3-Nitrophenyl)-2-propenoic acid",
    "cn_name": "间硝基肉桂酸;",
    "alternate_name": "2-Propenoic acid, 3-(3-nitrophenyl)-;Cinnamic acid, <em>m</em>-nitro-;3-(3-Nitrophenyl)-2-propenoic acid;<em>m</em>-Nitrocinnamic acid;3-Nitrocinnamic acid;3-Nitrobenzenepropenoic acid;3-(3-Nitrophenyl)acrylic acid;3′-Nitrocinnamic acid;Ethyl 3-(3-nitrophenyl)-2-propenoate;NSC 5408",
    "duplicated_cas_no": "",
    "SMILES": "C(=CC(O)=O)C1=CC(N(=O)=O)=CC=C1",
    "meta_data": {
        "InChI": "InChI=1S/C9H7NO4/c11-9(12)5-4-7-2-1-3-8(6-7)10(13)14/h1-6H,(H,11,12)",
        "InChIKey": null,
        "Canonical SMILES": "O=C(O)C=CC1=CC=CC(=C1)N(=O)=O",
        "Molecular Formula": "C<sub>9</sub>H<sub>7</sub>NO<sub>4</sub>",
        "Molecular Mass": "193.16",
        "Melting Point": "179 °C"
    }
}