{
    "cas_no": "368-94-5",
    "key_name": "4-(Trifluoromethyl)benzoyl fluoride",
    "cn_name": "4-(三氟甲基)苯甲酰氟;",
    "alternate_name": "Benzoyl fluoride, 4-(trifluoromethyl)-;<em>p</em>-Toluoyl fluoride, α,α,α-trifluoro-;4-(Trifluoromethyl)benzoyl fluoride;<em>p</em>-(Trifluoromethyl)benzoyl fluoride",
    "duplicated_cas_no": "",
    "SMILES": "C(F)(F)(F)C1=CC=C(C(F)=O)C=C1",
    "meta_data": {
        "InChI": "InChI=1S/C8H4F4O/c9-7(13)5-1-3-6(4-2-5)8(10,11)12/h1-4H",
        "InChIKey": null,
        "Canonical SMILES": "O=C(F)C1=CC=C(C=C1)C(F)(F)F",
        "Molecular Formula": "C<sub>8</sub>H<sub>4</sub>F<sub>4</sub>O",
        "Molecular Mass": "192.11",
        "Boiling Point": "156 °C"
    }
}