{
    "cas_no": "1802-29-5",
    "key_name": "[2,2′-Bipyridine]-5,5′-dicarbonitrile",
    "cn_name": null,
    "alternate_name": "[2,2′-Bipyridine]-5,5′-dicarbonitrile;6,6′-Binicotinonitrile;5,5′-Dicyano-2,2′-bipyridine;[2,2′-Bipyridinyl]-5,5′-dicarbonitrile",
    "duplicated_cas_no": "",
    "SMILES": "C(#N)C1=CC=C(N=C1)C2=CC=C(C#N)C=N2",
    "meta_data": {
        "InChI": "InChI=1S/C12H6N4/c13-5-9-1-3-11(15-7-9)12-4-2-10(6-14)8-16-12/h1-4,7-8H",
        "InChIKey": null,
        "Canonical SMILES": "N#CC1=CN=C(C=C1)C=2N=CC(C#N)=CC2",
        "Molecular Formula": "C<sub>12</sub>H<sub>6</sub>N<sub>4</sub>",
        "Molecular Mass": "206.20",
        "Melting Point": "272-273 °C"
    }
}