{
    "cas_no": "504-33-6",
    "key_name": "(±)-Homocysteic acid",
    "cn_name": "DL-高磺基丙氨酸;",
    "alternate_name": "Butanoic acid, 2-amino-4-sulfo-;Butyric acid, 2-amino-4-sulfo-, <span class=\"text-smallcaps\">DL</span>-;Butanoic acid, 2-amino-4-sulfo-, (±)-;2-Amino-4-sulfobutanoic acid;<span class=\"text-smallcaps\">DL</span>-Homocysteic acid;(±)-Homocysteic acid;<em>dl</em>-Homocysteic acid;Homocysteic acid",
    "duplicated_cas_no": "1001-13-4",
    "SMILES": "C(C(C(O)=O)N)CS(=O)(=O)O",
    "meta_data": {
        "InChI": "InChI=1S/C4H9NO5S/c5-3(4(6)7)1-2-11(8,9)10/h3H,1-2,5H2,(H,6,7)(H,8,9,10)",
        "InChIKey": null,
        "Canonical SMILES": "O=C(O)C(N)CCS(=O)(=O)O",
        "Molecular Formula": "C<sub>4</sub>H<sub>9</sub>NO<sub>5</sub>S",
        "Molecular Mass": "183.18",
        "Melting Point": "261-262 °C (decomp)",
        "Density": "1.709 g/cm³"
    }
}