{
    "cas_no": "83-66-9",
    "key_name": "Musk ambrette",
    "cn_name": "2,6-二硝基-3-甲氧基-4-叔丁基甲苯;葵子麝香;",
    "alternate_name": "Benzene, 1-(1,1-dimethylethyl)-2-methoxy-4-methyl-3,5-dinitro-;Anisole, 6-<em>tert</em>-butyl-3-methyl-2,4-dinitro-;1-(1,1-Dimethylethyl)-2-methoxy-4-methyl-3,5-dinitrobenzene;Musk ambrette;2,6-Dinitro-3-methoxy-4-<em>tert</em>-butyltoluene;Amber musk;Synthetic musk ambrette;6-<em>tert</em>-Butyl-3-methyl-2,4-dinitroanisole;Musk ambrette (artificial);Artificial musk ambrette;4-<em>tert</em>-Butyl-3-methoxy-2,6-dinitrotoluene;Ambrette musk;NSC 46122;NSC 59845;2,6-Dinitro-3-methoxy-4-tetra-butyl toluene;1-<em>tert</em>-Butyl-2-methoxy-4-methyl-3,5-dinitrobenzene;1-(<em>tert</em>-Butyl)-2-methoxy-4-methyl-3,5-dinitrobenzene;4-<em>tert</em>-Butyl-2,6-dinitro-3-methoxytoluene",
    "duplicated_cas_no": "",
    "SMILES": "O(C)C1=C(N(=O)=O)C(C)=C(N(=O)=O)C=C1C(C)(C)C",
    "meta_data": {
        "InChI": "InChI=1S/C12H16N2O5/c1-7-9(13(15)16)6-8(12(2,3)4)11(19-5)10(7)14(17)18/h6H,1-5H3",
        "InChIKey": null,
        "Canonical SMILES": "O=N(=O)C=1C=C(C(OC)=C(C1C)N(=O)=O)C(C)(C)C",
        "Molecular Formula": "C<sub>12</sub>H<sub>16</sub>N<sub>2</sub>O<sub>5</sub>",
        "Molecular Mass": "268.27",
        "Melting Point": "85 °C"
    }
}