{
    "cas_no": "3958-57-4",
    "key_name": "3-Nitrobenzyl bromide",
    "cn_name": "间硝基溴苄;3-硝基溴苄;",
    "alternate_name": "Benzene, 1-(bromomethyl)-3-nitro-;Toluene, α-bromo-<em>m</em>-nitro-;1-(Bromomethyl)-3-nitrobenzene;<em>m</em>-Nitrobenzyl bromide;α-Bromo-<em>m</em>-nitrotoluene;3-Nitrobenzyl bromide;<em>m</em>-Nitro-α-bromotoluene;α-Bromo-3-nitrotoluene;3-(Bromomethyl)nitrobenzene;<em>m</em>-(Bromomethyl)nitrobenzene;m-Nitrobenzyl bromide;3-(Bromomethyl)-1-nitrobenzene;NSC 66499",
    "duplicated_cas_no": "",
    "SMILES": "N(=O)(=O)C1=CC(CBr)=CC=C1",
    "meta_data": {
        "InChI": "InChI=1S/C7H6BrNO2/c8-5-6-2-1-3-7(4-6)9(10)11/h1-4H,5H2",
        "InChIKey": null,
        "Canonical SMILES": "O=N(=O)C1=CC=CC(=C1)CBr",
        "Molecular Formula": "C<sub>7</sub>H<sub>6</sub>BrNO<sub>2</sub>",
        "Molecular Mass": "216.03",
        "Boiling Point": "160-162 °C @ Press: 14 Torr",
        "Melting Point": "59.3 °C"
    }
}