{
    "cas_no": "110-95-2",
    "key_name": "Tetramethyl-1,3-propanediamine",
    "cn_name": "四甲基丙二胺;",
    "alternate_name": "1,3-Propanediamine, <em>N</em><sup>1</sup>,<em>N</em><sup>1</sup>,<em>N</em><sup>3</sup>,<em>N</em><sup>3</sup>-tetramethyl-;1,3-Propanediamine, <em>N</em>,<em>N</em>,<em>N</em>′,<em>N</em>′-tetramethyl-;<em>N</em><sup>1</sup>,<em>N</em><sup>1</sup>,<em>N</em><sup>3</sup>,<em>N</em><sup>3</sup>-Tetramethyl-1,3-propanediamine;<em>N</em>,<em>N</em>,<em>N</em>′,<em>N</em>′-Tetramethyl-1,3-diaminopropane;<em>N</em>,<em>N</em>,<em>N</em>′,<em>N</em>′-Tetramethyl-1,3-propanediamine;<em>N</em>,<em>N</em>,<em>N</em>′,<em>N</em>′-Tetramethyltrimethylenediamine;1,3-Bis(dimethylamino)propane;Bis[(dimethylamino)methyl]methane;2,6-Dimethyl-2,6-diazaheptane;1,3-(<em>N</em>,<em>N</em>,<em>N</em>′,<em>N</em>′-Tetramethyldiamino)propane;Koei 3310;Tetramethyl-1,3-propanediamine;TMPDA;Tetramethylpropylenediamine;C 1303;<em>N</em>,<em>N</em>,<em>N</em>′,<em>N</em>′-Tetramethylpropanediamine;<em>N</em>,<em>N</em>,<em>N</em>′,<em>N</em>′-Tetramethyl-1,3-propananediamine;Kaolizer 2;Kaolizer no. 2;[3-(Dimethylamino)propyl]dimethylamine",
    "duplicated_cas_no": "99233-35-9;210102-01-5;1262586-00-4",
    "SMILES": "C(CN(C)C)CN(C)C",
    "meta_data": {
        "InChI": "InChI=1S/C7H18N2/c1-8(2)6-5-7-9(3)4/h5-7H2,1-4H3",
        "InChIKey": null,
        "Canonical SMILES": "N(C)(C)CCCN(C)C",
        "Molecular Formula": "C<sub>7</sub>H<sub>18</sub>N<sub>2</sub>",
        "Molecular Mass": "130.23",
        "Boiling Point": "144 °C",
        "Melting Point": "37 °C",
        "Density": "0.7837 g/cm³ @ Temp: 18.7 °C"
    }
}