{
    "cas_no": "18146-00-4",
    "key_name": "Allyl trimethylsilyl ether",
    "cn_name": "烯丙氧基三甲硅烷;三甲基(2-丙基氧)硅烷;",
    "alternate_name": "Silane, trimethyl(2-propen-1-yloxy)-;Silane, (allyloxy)trimethyl-;Silane, trimethyl(2-propenyloxy)-;Trimethyl(2-propen-1-yloxy)silane;(Allyloxy)trimethylsilane;1-Trimethylsiloxy-2-propene;Allyl trimethylsilyl ether;Trimethylallyloxysilane;1-Trimethylsilyloxy-2-propene;Trimethylsilylallyl ether;Trimethyl(2-propenyloxy)silane;3-Trimethylsiloxy-1-propene",
    "duplicated_cas_no": "",
    "SMILES": "O([Si](C)(C)C)CC=C",
    "meta_data": {
        "InChI": "InChI=1S/C6H14OSi/c1-5-6-7-8(2,3)4/h5H,1,6H2,2-4H3",
        "InChIKey": null,
        "Canonical SMILES": "O(CC=C)[Si](C)(C)C",
        "Molecular Formula": "C<sub>6</sub>H<sub>14</sub>OSi",
        "Molecular Mass": "130.26",
        "Boiling Point": "100-102 °C",
        "Melting Point": "98-99 °C",
        "Density": "0.789 g/cm³"
    }
}