{
    "cas_no": "1658-42-0",
    "key_name": "2-Pyridineacetic acid, methyl ester",
    "cn_name": "2-吡啶乙酸甲酯;",
    "alternate_name": "2-Pyridineacetic acid, methyl ester;Methyl 2-pyridineacetate;Methyl 2-(2-pyridyl)acetate;Methyl 2-pyridylacetate;Methyl 2-pyridinylacetate;NSC 72093;2-[(Methoxycarbonyl)methyl]pyridine;2-Pyridylacetic acid methyl ester;Pyridin-2-ylacetic acid methyl ester;Methyl 2-(pyridin-2-yl)acetate",
    "duplicated_cas_no": "",
    "SMILES": "C(C(OC)=O)C1=CC=CC=N1",
    "meta_data": {
        "InChI": "InChI=1S/C8H9NO2/c1-11-8(10)6-7-4-2-3-5-9-7/h2-5H,6H2,1H3",
        "InChIKey": null,
        "Canonical SMILES": "O=C(OC)CC1=NC=CC=C1",
        "Molecular Formula": "C<sub>8</sub>H<sub>9</sub>NO<sub>2</sub>",
        "Molecular Mass": "151.16",
        "Boiling Point": "120 °C @ Press: 10 Torr"
    }
}