{
    "cas_no": "6055-52-3",
    "key_name": "1,6-Hexanediamine, hydrochloride (1:2)",
    "cn_name": "1,6-己二胺盐酸盐;",
    "alternate_name": "1,6-Hexanediamine, hydrochloride (1:2);1,6-Hexanediamine, dihydrochloride;Hexamethylenediamine dihydrochloride;Hexanediamine dihydrochloride;1,6-Diaminohexane dihydrochloride;1,6-Hexamethylenediamine dihydrochloride",
    "duplicated_cas_no": "",
    "SMILES": "C(CCCN)CCN.Cl",
    "meta_data": {
        "InChI": "InChI=1S/C6H16N2.2ClH/c7-5-3-1-2-4-6-8;;/h1-8H2;2*1H",
        "InChIKey": null,
        "Canonical SMILES": "Cl.NCCCCCCN",
        "Molecular Formula": "C<sub>6</sub>H<sub>16</sub>N<sub>2</sub>.2ClH",
        "Molecular Mass": "",
        "Melting Point": "248 °C"
    }
}