{
    "cas_no": "7254-34-4",
    "key_name": "2-Methoxy-3-pyridinecarbonitrile",
    "cn_name": "3-氰基-2-甲氧基吡啶;",
    "alternate_name": "3-Pyridinecarbonitrile, 2-methoxy-;Nicotinonitrile, 2-methoxy-;2-Methoxy-3-pyridinecarbonitrile;3-Cyano-2-methoxypyridine;NSC 73298;2-Methoxynicotinonitrile;2-Methoxypyridine-3-carbonitrile;2-Methoxy-3-cyanopyridine",
    "duplicated_cas_no": "",
    "SMILES": "C(#N)C1=C(OC)N=CC=C1",
    "meta_data": {
        "InChI": "InChI=1S/C7H6N2O/c1-10-7-6(5-8)3-2-4-9-7/h2-4H,1H3",
        "InChIKey": null,
        "Canonical SMILES": "N#CC1=CC=CN=C1OC",
        "Molecular Formula": "C<sub>7</sub>H<sub>6</sub>N<sub>2</sub>O",
        "Molecular Mass": "134.14",
        "Melting Point": "78 °C"
    }
}