{
    "cas_no": "97-78-9",
    "key_name": "Lauroylsarcosine",
    "cn_name": "2,6-二苯亚甲基环己酮;N-甲基-N-(1-氧代十二烷基)-甘氨酸;N-十二烷酰基肌氨酸;N-十二酰基-N-甲基甘氨酸;",
    "alternate_name": "Glycine, <em>N</em>-methyl-<em>N</em>-(1-oxododecyl)-;Sarcosine, <em>N</em>-lauroyl-;<em>N</em>-Methyl-<em>N</em>-(1-oxododecyl)glycine;Lauroylsarcosine;<em>N</em>-Lauroylsarcosine;Sarkosyl L;<em>N</em>-Lauroyl-<em>N</em>-methylaminoacetic acid;Sarcosyl L;<em>N</em>-Laurylsarcosine;Hamposyl L;Maprosyl L;<em>N</em>-Dodecanoylsarcosine;Nikkol Sarcosinate LH;Crodasinic L;Sarcosinate LH;<em>N</em>-Dodecanoyl-<em>N</em>-methylglycine;<em>N</em>-Lauroyl-<em>N</em>-methylglycine;NSC 96994;<em>N</em>-Dodecanoylsarcosinate;Lauroylsarcosinate;Soypon SLA;2-(<em>N</em>-Methyldodecanamido)acetic acid;2-[Dodecanoyl(methyl)amino]acetic acid",
    "duplicated_cas_no": "15535-18-9;58392-41-9",
    "SMILES": "C(CCCCCCCCCCC)(N(CC(O)=O)C)=O",
    "meta_data": {
        "InChI": "InChI=1S/C15H29NO3/c1-3-4-5-6-7-8-9-10-11-12-14(17)16(2)13-15(18)19/h3-13H2,1-2H3,(H,18,19)",
        "InChIKey": null,
        "Canonical SMILES": "O=C(O)CN(C(=O)CCCCCCCCCCC)C",
        "Molecular Formula": "C<sub>15</sub>H<sub>29</sub>NO<sub>3</sub>",
        "Molecular Mass": "271.40",
        "Melting Point": "45-47 °C"
    }
}