{
    "cas_no": "7436-22-8",
    "key_name": "Methan-<em>d</em><sub>3</sub>-amine, hydrochloride",
    "cn_name": "氘代甲胺盐酸盐;",
    "alternate_name": "Methan-<em>d</em><sub>3</sub>-amine, hydrochloride;Methyl-<em>d</em><sub>3</sub>-amine, hydrochloride;Methyl-d<sub>3</sub>-ammonium chloride;Methyl-<em>d</em><sub>3</sub>-amine monohydrochloride;Monomethyl-<em>d</em><sub>3</sub>-ammonium chloride",
    "duplicated_cas_no": "",
    "SMILES": "C(N)([2H])([2H])[2H].Cl",
    "meta_data": {
        "InChI": "InChI=1S/CH5N.ClH/c1-2;/h2H2,1H3;1H/i1D3;",
        "InChIKey": null,
        "Canonical SMILES": "Cl.NC",
        "Molecular Formula": "CH<sub>2</sub>D<sub>3</sub>N.ClH",
        "Molecular Mass": "",
        "Melting Point": "215-220 °C"
    }
}