{
    "cas_no": "101-97-3",
    "key_name": "Ethyl phenylacetate",
    "cn_name": "苯乙酸乙酯;",
    "alternate_name": "Benzeneacetic acid, ethyl ester;Acetic acid, phenyl-, ethyl ester;Ethyl phenylacetate;Ethyl α-toluate;α-Toluic acid ethyl ester;Phenylacetic acid ethyl ester;Ethyl benzeneacetate;Ethyl phenacetate;Ethyl 2-phenylethanoate;2-Phenylacetic acid ethyl ester;Ethyl 2-phenylacetate;NSC 406259;NSC 8894;Ethyl α-phenylacetate",
    "duplicated_cas_no": "",
    "SMILES": "C(C(OCC)=O)C1=CC=CC=C1",
    "meta_data": {
        "InChI": "InChI=1S/C10H12O2/c1-2-12-10(11)8-9-6-4-3-5-7-9/h3-7H,2,8H2,1H3",
        "InChIKey": null,
        "Canonical SMILES": "O=C(OCC)CC=1C=CC=CC1",
        "Molecular Formula": "C<sub>10</sub>H<sub>12</sub>O<sub>2</sub>",
        "Molecular Mass": "164.20",
        "Boiling Point": "227 °C",
        "Melting Point": "-29.4 °C",
        "Density": "0.9537 g/cm³ @ Temp: 14 °C"
    }
}