{
    "cas_no": "139756-22-2",
    "key_name": "5-(5-Chlorosulfonyl-2-ethoxyphenyl)-1-methyl-3-propyl-1,6-dihydro-7<em>H</em>-pyrazolo[4,3-<em>d</em>]pyrimidin-7-one",
    "cn_name": null,
    "alternate_name": "Benzenesulfonyl chloride, 3-(6,7-dihydro-1-methyl-7-oxo-3-propyl-1<em>H</em>-pyrazolo[4,3-<em>d</em>]pyrimidin-5-yl)-4-ethoxy-;Benzenesulfonyl chloride, 3-(4,7-dihydro-1-methyl-7-oxo-3-propyl-1<em>H</em>-pyrazolo[4,3-<em>d</em>]pyrimidin-5-yl)-4-ethoxy-;1<em>H</em>-Pyrazolo[4,3-<em>d</em>]pyrimidine, benzenesulfonyl chloride deriv.;3-(6,7-Dihydro-1-methyl-7-oxo-3-propyl-1<em>H</em>-pyrazolo[4,3-<em>d</em>]pyrimidin-5-yl)-4-ethoxybenzenesulfonyl chloride;5-(5-Chlorosulfonyl-2-ethoxyphenyl)-1-methyl-3-propyl-1,6-dihydro-7<em>H</em>-pyrazolo[4,3-<em>d</em>]pyrimidin-7-one;4-Ethoxy-3-(6,7-dihydro-1-methyl-7-oxo-3-propyl-1<em>H</em>-pyrazolo[4,3-<em>d</em>]pyrimidin-5-yl)benzene-1-sulfonyl chloride;4-Ethoxy-3-(1-methyl-7-oxo-3-propyl-6,7-dihydro-1<em>H</em>-pyrazolo[4,3-<em>d</em>]pyrimidin-5-yl)benzenesulfonyl chloride",
    "duplicated_cas_no": "",
    "SMILES": "C(CC)C=1C2=C(C(=O)N=C(N2)C3=C(OCC)C=CC(S(Cl)(=O)=O)=C3)N(C)N1",
    "meta_data": {
        "InChI": "InChI=1S/C17H19ClN4O4S/c1-4-6-12-14-15(22(3)21-12)17(23)20-16(19-14)11-9-10(27(18,24)25)7-8-13(11)26-5-2/h7-9H,4-6H2,1-3H3,(H,19,20,23)",
        "InChIKey": null,
        "Canonical SMILES": "O=C1N=C(NC=2C(=NN(C12)C)CCC)C=3C=C(C=CC3OCC)S(=O)(=O)Cl",
        "Molecular Formula": "C<sub>17</sub>H<sub>19</sub>ClN<sub>4</sub>O<sub>4</sub>S",
        "Molecular Mass": "410.88",
        "Melting Point": "179-181 °C"
    }
}