{
    "cas_no": "3888-65-1",
    "key_name": "4-(4-Fluorophenyl)-4-hydroxypiperidine",
    "cn_name": null,
    "alternate_name": "4-Piperidinol, 4-(4-fluorophenyl)-;4-Piperidinol, 4-(<em>p</em>-fluorophenyl)-;4-(4-Fluorophenyl)-4-piperidinol;4-(<em>p</em>-Fluorophenyl)-4-piperidinol;4-(4-Fluorophenyl)-4-hydroxypiperidine;4-Hydroxy-4-(4-fluorophenyl)piperidine;NSC 90449",
    "duplicated_cas_no": "",
    "SMILES": "OC1(CCNCC1)C2=CC=C(F)C=C2",
    "meta_data": {
        "InChI": "InChI=1S/C11H14FNO/c12-10-3-1-9(2-4-10)11(14)5-7-13-8-6-11/h1-4,13-14H,5-8H2",
        "InChIKey": null,
        "Canonical SMILES": "FC1=CC=C(C=C1)C2(O)CCNCC2",
        "Molecular Formula": "C<sub>11</sub>H<sub>14</sub>FNO",
        "Molecular Mass": "195.23",
        "Melting Point": "116.4-117.6 °C"
    }
}