{
    "cas_no": "949-99-5",
    "key_name": "<em>p</em>-Nitrophenylalanine",
    "cn_name": "4-硝基-L-苯丙氨酸;L-对硝基苯丙氨酸;",
    "alternate_name": "<span class=\"text-smallcaps\">L</span>-Phenylalanine, 4-nitro-;Alanine, 3-(<em>p</em>-nitrophenyl)-, <span class=\"text-smallcaps\">L</span>-;4-Nitro-<span class=\"text-smallcaps\">L</span>-phenylalanine;<em>p</em>-Nitro-<span class=\"text-smallcaps\">L</span>-phenylalanine;3-(4-Nitrophenyl)-<span class=\"text-smallcaps\">L</span>-alanine;<span class=\"text-smallcaps\">L</span>-<em>p</em>-Nitrophenylalanine;<em>p</em>-Nitrophenylalanine;<span class=\"text-smallcaps\">L</span>-4-Nitrophenylalanine;(<em>S</em>)-4-Nitrophenylalanine;NSC 152925;(2S)-2-Azaniumyl-3-(4-nitrophenyl)propanoate;(2S)-2-Amino-3-(4-nitrophenyl)propanoic acid;(<em>S</em>)-2-Amino-3-(4-nitrophenyl)propanoic acid",
    "duplicated_cas_no": "",
    "SMILES": "C([C@@H](C(O)=O)N)C1=CC=C(N(=O)=O)C=C1",
    "meta_data": {
        "InChI": "InChI=1S/C9H10N2O4/c10-8(9(12)13)5-6-1-3-7(4-2-6)11(14)15/h1-4,8H,5,10H2,(H,12,13)/t8-/m0/s1",
        "InChIKey": null,
        "Canonical SMILES": "O=C(O)C(N)CC1=CC=C(C=C1)N(=O)=O",
        "Molecular Formula": "C<sub>9</sub>H<sub>10</sub>N<sub>2</sub>O<sub>4</sub>",
        "Molecular Mass": "210.19",
        "Melting Point": "240-245 °C (decomp)"
    }
}