{
    "cas_no": "5142-22-3",
    "key_name": "<em>N</em><sup>1</sup>-Methyladenine",
    "cn_name": "1-甲基腺嘌呤;1-甲基腺嘌呤;",
    "alternate_name": "1<em>H</em>-Purin-6-amine, 1-methyl-;Adenine, 1-methyl-;1-Methyl-1<em>H</em>-purin-6-amine;1-Methyladenine;<em>N</em><sup>1</sup>-Methyladenine;1-Methyl-6-aminopurine;6-Amino-1-methylpurine;NSC 70896;1-Methylpurin-6-amine",
    "duplicated_cas_no": "",
    "SMILES": "NC1=C2C(N=CN1C)=NC=N2",
    "meta_data": {
        "InChI": "InChI=1S/C6H7N5/c1-11-3-10-6-4(5(11)7)8-2-9-6/h2-3H,7H2,1H3",
        "InChIKey": null,
        "Canonical SMILES": "N=1C=NC=2C1N=CN(C2N)C",
        "Molecular Formula": "C<sub>6</sub>H<sub>7</sub>N<sub>5</sub>",
        "Molecular Mass": "149.15",
        "Melting Point": "&gt;300 °C"
    }
}