{
    "cas_no": "399-75-7",
    "key_name": "5-Fluoro-2-methylbenzothiazole",
    "cn_name": "5-氟-2-甲基苯并噻唑;",
    "alternate_name": "Benzothiazole, 5-fluoro-2-methyl-;5-Fluoro-2-methylbenzothiazole;5-Fluoro-2-methyl-1,3-benzothiazole",
    "duplicated_cas_no": "",
    "SMILES": "CC=1SC=2C(N1)=CC(F)=CC2",
    "meta_data": {
        "InChI": "InChI=1S/C8H6FNS/c1-5-10-7-4-6(9)2-3-8(7)11-5/h2-4H,1H3",
        "InChIKey": null,
        "Canonical SMILES": "FC=1C=CC=2SC(=NC2C1)C",
        "Molecular Formula": "C<sub>8</sub>H<sub>6</sub>FNS",
        "Molecular Mass": "167.20",
        "Boiling Point": "110-112 °C @ Press: 7 Torr"
    }
}