{
    "cas_no": "10282-31-2",
    "key_name": "4-Morpholinobenzonitrile",
    "cn_name": "4-(4-苯氰基)吗啉;",
    "alternate_name": "Benzonitrile, 4-(4-morpholinyl)-;Benzonitrile, <em>p</em>-morpholino-;4-(4-Morpholinyl)benzonitrile;4-(4-Cyanophenyl)morpholine;<em>N</em>-(4-Cyanophenyl)morpholine;4-(Morpholin-4-yl)benzonitrile;4-Morpholinobenzonitrile;NSC 698610",
    "duplicated_cas_no": "",
    "SMILES": "C(#N)C1=CC=C(C=C1)N2CCOCC2",
    "meta_data": {
        "InChI": "InChI=1S/C11H12N2O/c12-9-10-1-3-11(4-2-10)13-5-7-14-8-6-13/h1-4H,5-8H2",
        "InChIKey": null,
        "Canonical SMILES": "N#CC1=CC=C(C=C1)N2CCOCC2",
        "Molecular Formula": "C<sub>11</sub>H<sub>12</sub>N<sub>2</sub>O",
        "Molecular Mass": "188.23",
        "Melting Point": "65-66 °C"
    }
}