{
    "cas_no": "757-86-8",
    "key_name": "Acetic acid, 2-[(dimethoxyphosphinothioyl)thio]-, methyl ester",
    "cn_name": "二甲氧基二硫代磷酸基乙酸甲酯;",
    "alternate_name": "Acetic acid, 2-[(dimethoxyphosphinothioyl)thio]-, methyl ester;Acetic acid, [(dimethoxyphosphinothioyl)thio]-, methyl ester;Acetic acid, mercapto-, methyl ester, <em>O</em>,<em>O</em>-dimethyl phosphorodithioate;Acetic acid, mercapto-, methyl ester, <em>S</em>-ester with <em>O</em>,<em>O</em>-dimethyl phosphorodithioate;Acetic acid, mercapto-, <em>S</em>-ester with <em>O</em>,<em>O</em>-dimethyl phosphorodithioate, methyl ester;Phosphorodithioic acid, <em>O</em>,<em>O</em>-dimethyl ester, <em>S</em>-ester with methyl mercaptoacetate;<em>O</em>,<em>O</em>-Dimethyl <em>S</em>-(methoxycarbonylmethyl)phosphorodithioate;<em>O</em>,<em>O</em>-Dimethyl-<em>S</em>-(methoxycarbonylmethyl)dithiophosphate;<em>S</em>-[(Methoxycarbonyl)methyl] <em>O</em>,<em>O</em>-dimethyl phosphorodithioate;Dimethoic acid methyl ester",
    "duplicated_cas_no": "",
    "SMILES": "P(SCC(OC)=O)(OC)(OC)=S",
    "meta_data": {
        "InChI": "InChI=1S/C5H11O4PS2/c1-7-5(6)4-12-10(11,8-2)9-3/h4H2,1-3H3",
        "InChIKey": null,
        "Canonical SMILES": "O=C(OC)CSP(=S)(OC)OC",
        "Molecular Formula": "C<sub>5</sub>H<sub>11</sub>O<sub>4</sub>PS<sub>2</sub>",
        "Molecular Mass": "230.24",
        "Boiling Point": "110 °C @ Press: 0.1 Torr",
        "Density": "1.3094 g/cm³ @ Temp: 20 °C"
    }
}