{
    "cas_no": "643-58-3",
    "key_name": "2-Methylbiphenyl",
    "cn_name": "2-苯基甲苯;2-甲基联苯;",
    "alternate_name": "1,1′-Biphenyl, 2-methyl-;Biphenyl, 2-methyl-;2-Methyl-1,1′-biphenyl;2-Methylbiphenyl;<em>o</em>-Methylbiphenyl;<em>o</em>-Phenyltoluene;2-Phenyltoluene;NSC 5321;<em>o</em>-Methylphenyl benzene;1-Methyl-2-phenylbenzene",
    "duplicated_cas_no": "",
    "SMILES": "CC1=C(C2=CC=CC=C2)C=CC=C1",
    "meta_data": {
        "InChI": "InChI=1S/C13H12/c1-11-7-5-6-10-13(11)12-8-3-2-4-9-12/h2-10H,1H3",
        "InChIKey": null,
        "Canonical SMILES": "C=1C=CC(=CC1)C=2C=CC=CC2C",
        "Molecular Formula": "C<sub>13</sub>H<sub>12</sub>",
        "Molecular Mass": "168.23",
        "Boiling Point": "255.5 °C",
        "Melting Point": "-0.2 °C",
        "Density": "1.01134 g/cm³ @ Temp: 20 °C"
    }
}