{
    "cas_no": "700-06-1",
    "key_name": "Indole-3-carbinol",
    "cn_name": "吲哚-3-甲醇;",
    "alternate_name": "1<em>H</em>-Indole-3-methanol;Indole-3-methanol;Indole-3-carbinol;3-(Hydroxymethyl)indole;3-Indolylcarbinol;3-Indolylmethanol;NSC 525801;Indinol;1<em>H</em>-Indol-3-ylmethanol;(1<em>H</em>-Indol-3-yl)methanol",
    "duplicated_cas_no": "",
    "SMILES": "C(O)C=1C=2C(NC1)=CC=CC2",
    "meta_data": {
        "InChI": "InChI=1S/C9H9NO/c11-6-7-5-10-9-4-2-1-3-8(7)9/h1-5,10-11H,6H2",
        "InChIKey": null,
        "Canonical SMILES": "OCC1=CNC=2C=CC=CC21",
        "Molecular Formula": "C<sub>9</sub>H<sub>9</sub>NO",
        "Molecular Mass": "147.17",
        "Melting Point": "90 °C"
    }
}