{
    "cas_no": "502-41-0",
    "key_name": "Cycloheptanol",
    "cn_name": "环庚醇;",
    "alternate_name": "Cycloheptanol;Cycloheptyl alcohol;NSC 52221",
    "duplicated_cas_no": "",
    "SMILES": "OC1CCCCCC1",
    "meta_data": {
        "InChI": "InChI=1S/C7H14O/c8-7-5-3-1-2-4-6-7/h7-8H,1-6H2",
        "InChIKey": null,
        "Canonical SMILES": "OC1CCCCCC1",
        "Molecular Formula": "C<sub>7</sub>H<sub>14</sub>O",
        "Molecular Mass": "114.19",
        "Boiling Point": "185 °C",
        "Melting Point": "2 °C",
        "Density": "0.9478 g/cm³"
    }
}