{
    "cas_no": "19774-82-4",
    "key_name": "Amiodarone hydrochloride",
    "cn_name": "盐酸胺碘酮;2-丁基-3-苯并呋喃基-4-[2-(二乙氨基)乙氧基]-3,5-二碘苯基甲酮盐酸盐;",
    "alternate_name": "Methanone, (2-butyl-3-benzofuranyl)[4-[2-(diethylamino)ethoxy]-3,5-diiodophenyl]-, hydrochloride (1:1);Ketone, 2-butyl-3-benzofuranyl 4-[2-(diethylamino)ethoxy]-3,5-diiodophenyl, hydrochloride;Methanone, (2-butyl-3-benzofuranyl)[4-[2-(diethylamino)ethoxy]-3,5-diiodophenyl]-, hydrochloride;SKF 33134A;2-Butyl-3-benzofuranyl 4-[2-(diethylamino)ethoxy]-3,5-diiodophenyl ketone hydrochloride;L 3428;Amiodarone hydrochloride;Amiodaronum hydrochloride;Cordarone;L 3428-Labaz;Trangorex;Pacerone;Miodaron;Angiodarona;Ritmocardyl;Ortacrone;Cordarex;Amiodar;Rythmarone;Cordarone X;Atlansil;Ancoron;Miocard;Nexterone;NSC 85442",
    "duplicated_cas_no": "2374796-33-3",
    "SMILES": "C(=O)(C=1C=2C(OC1CCCC)=CC=CC2)C3=CC(I)=C(OCCN(CC)CC)C(I)=C3.Cl",
    "meta_data": {
        "InChI": "InChI=1S/C25H29I2NO3.ClH/c1-4-7-11-22-23(18-10-8-9-12-21(18)31-22)24(29)17-15-19(26)25(20(27)16-17)30-14-13-28(5-2)6-3;/h8-10,12,15-16H,4-7,11,13-14H2,1-3H3;1H",
        "InChIKey": null,
        "Canonical SMILES": "Cl.O=C(C1=CC(I)=C(OCCN(CC)CC)C(I)=C1)C=2C=3C=CC=CC3OC2CCCC",
        "Molecular Formula": "C<sub>25</sub>H<sub>29</sub>I<sub>2</sub>NO<sub>3</sub>.ClH",
        "Molecular Mass": "",
        "Melting Point": "156 °C"
    }
}