{
    "cas_no": "1011-47-8",
    "key_name": "2-Acetylquinoline",
    "cn_name": null,
    "alternate_name": "Ethanone, 1-(2-quinolinyl)-;Ketone, methyl 2-quinolyl;1-(2-Quinolinyl)ethanone;2-Acetylquinoline;NSC 256937;1-(Quinolin-2-yl)ethanone;Methyl 2-quinolyl ketone;1-(Quinolin-2-yl)ethan-1-one",
    "duplicated_cas_no": "",
    "SMILES": "C(C)(=O)C1=NC2=C(C=C1)C=CC=C2",
    "meta_data": {
        "InChI": "InChI=1S/C11H9NO/c1-8(13)10-7-6-9-4-2-3-5-11(9)12-10/h2-7H,1H3",
        "InChIKey": null,
        "Canonical SMILES": "O=C(C1=NC=2C=CC=CC2C=C1)C",
        "Molecular Formula": "C<sub>11</sub>H<sub>9</sub>NO",
        "Molecular Mass": "171.20",
        "Boiling Point": "146-148 °C @ Press: 13 Torr",
        "Melting Point": "52 °C"
    }
}