{
    "cas_no": "529-68-0",
    "key_name": "Ethyl 2-acetoxybenzoate",
    "cn_name": "乙酰水杨酸乙酯;",
    "alternate_name": "Benzoic acid, 2-(acetyloxy)-, ethyl ester;Salicylic acid, ethyl ester, acetate;Acetylsalicylic acid, ethyl ester;Ethyl acetylsalicylate;2-Carbethoxyphenyl acetate;Ethyl <em>o</em>-acetoxybenzoate;Ethyl 2-acetoxybenzoate;2-(Acetyloxy)benzoic acid ethyl ester",
    "duplicated_cas_no": "",
    "SMILES": "O(C(C)=O)C1=C(C(OCC)=O)C=CC=C1",
    "meta_data": {
        "InChI": "InChI=1S/C11H12O4/c1-3-14-11(13)9-6-4-5-7-10(9)15-8(2)12/h4-7H,3H2,1-2H3",
        "InChIKey": null,
        "Canonical SMILES": "O=C(OCC)C=1C=CC=CC1OC(=O)C",
        "Molecular Formula": "C<sub>11</sub>H<sub>12</sub>O<sub>4</sub>",
        "Molecular Mass": "208.21",
        "Melting Point": "70-71 °C"
    }
}