{
    "cas_no": "19752-55-7",
    "key_name": "Bromo-3,5-dichlorobenzene",
    "cn_name": "3,5-二氯-1-溴苯;3,5-二氯溴苯;",
    "alternate_name": "Benzene, 1-bromo-3,5-dichloro-;1-Bromo-3,5-dichlorobenzene;3,5-Dichlorobromobenzene;Bromo-3,5-dichlorobenzene;3,5-Dichloro-1-bromobenzene",
    "duplicated_cas_no": "",
    "SMILES": "BrC1=CC(Cl)=CC(Cl)=C1",
    "meta_data": {
        "InChI": "InChI=1S/C6H3BrCl2/c7-4-1-5(8)3-6(9)2-4/h1-3H",
        "InChIKey": null,
        "Canonical SMILES": "ClC=1C=C(Cl)C=C(Br)C1",
        "Molecular Formula": "C<sub>6</sub>H<sub>3</sub>BrCl<sub>2</sub>",
        "Molecular Mass": "225.90",
        "Boiling Point": "232 °C",
        "Melting Point": "83 °C"
    }
}