{
    "cas_no": "1323-39-3",
    "key_name": "Propylene glycol monostearate",
    "cn_name": "十八烷酸-1,2-丙二醇单酯;",
    "alternate_name": "Octadecanoic acid, monoester with 1,2-propanediol;Stearic acid, monoester with 1,2-propanediol;Stearic acid, ester with 1,2-propanediol;1,2-Propanediol, monostearate;Crill 26;Nonex 32;Cerasynt PA;Cerasynt PN;Dragil P;Emcol PS 50RHP;Monosteol;Monosteol TG;Noca;Propylene glycol monostearate;Prostearin;Tegin P;1,2-Propylene glycol monostearate;Propylene glycol stearate;Propylene glycol stearic acid ester;Emerest 2381;Pegosperse PS;Propylene glycol monooctadecanoate;Nikkol PMS;Hodag PGS;Nikkol PMS 1CSE;Nikkol PMS 1C;Mazol PGMS;Tegin P 411;Rikemal PS 100;RX 13305;EMP 1800;Myverol P 06;Witconol 2380;Aldo PGHMS;Grindsted PGMS;PS 100;Sunsoft 25CD;Hydroxypropyl stearate;NSC 4841;Grindtek PGMS 90;Grindsted PGMS 90;Nikkol PMS-SE;Homotex PS 200V;Atlas G 2158;Emcol PS 50;Atlas G 922;Emalex PGMS;Nikkol PMS 1CV;Grindsted Citrem PGMS USV-M;PMS 1CV",
    "duplicated_cas_no": "8028-46-4;8034-39-7;73297-79-7;136440-98-7;184594-14-7;240406-43-3;1228175-27-6;1256465-94-7",
    "SMILES": "",
    "meta_data": {
        "InChI": "",
        "InChIKey": null,
        "Canonical SMILES": "",
        "Molecular Formula": "C<sub>21</sub>H<sub>42</sub>O<sub>3</sub>",
        "Molecular Mass": "",
        "Melting Point": "44.4 °C"
    }
}