{
    "cas_no": "77-23-6",
    "key_name": "Carbetapentane",
    "cn_name": "喷托维林;1-苯基环戊烷-1-羧酸2-(2-二乙胺基乙氧基)乙酯;",
    "alternate_name": "Cyclopentanecarboxylic acid, 1-phenyl-, 2-[2-(diethylamino)ethoxy]ethyl ester;Carbetapentane;2-(Diethylaminoethoxy)ethyl 1-phenyl-1-cyclopentanecarboxylate;2-(2-Diethylaminoethoxy)ethyl 1-phenylcyclopentanecarboxylate;Pentoxyverine;1-Phenylcyclopentane-1-carboxylic acid diethylaminoethoxyethyl ester;Atussil;Pentoxiverine",
    "duplicated_cas_no": "",
    "SMILES": "C(OCCOCCN(CC)CC)(=O)C1(CCCC1)C2=CC=CC=C2",
    "meta_data": {
        "InChI": "InChI=1S/C20H31NO3/c1-3-21(4-2)14-15-23-16-17-24-19(22)20(12-8-9-13-20)18-10-6-5-7-11-18/h5-7,10-11H,3-4,8-9,12-17H2,1-2H3",
        "InChIKey": null,
        "Canonical SMILES": "O=C(OCCOCCN(CC)CC)C1(C=2C=CC=CC2)CCCC1",
        "Molecular Formula": "C<sub>20</sub>H<sub>31</sub>NO<sub>3</sub>",
        "Molecular Mass": "333.46",
        "Boiling Point": "165-170 °C @ Press: 0.01 Torr"
    }
}