{
    "cas_no": "31058-81-8",
    "key_name": "2-Chloro-<em>N</em>,<em>N</em>-dimethyl-4-pyrimidinamine",
    "cn_name": null,
    "alternate_name": "4-Pyrimidinamine, 2-chloro-<em>N</em>,<em>N</em>-dimethyl-;Pyrimidine, 2-chloro-4-(dimethylamino)-;2-Chloro-<em>N</em>,<em>N</em>-dimethyl-4-pyrimidinamine;2-Chloro-4-(dimethylamino)pyrimidine;2-Chloro-4-(<em>N</em>,<em>N</em>-dimethylamino)pyrimidine;NSC 45769;(2-Chloropyrimidin-4-yl)dimethylamine;2-Chloro-<em>N</em>,<em>N</em>-dimethylpyrimidin-4-amine",
    "duplicated_cas_no": "",
    "SMILES": "N(C)(C)C1=NC(Cl)=NC=C1",
    "meta_data": {
        "InChI": "InChI=1S/C6H8ClN3/c1-10(2)5-3-4-8-6(7)9-5/h3-4H,1-2H3",
        "InChIKey": null,
        "Canonical SMILES": "ClC1=NC=CC(=N1)N(C)C",
        "Molecular Formula": "C<sub>6</sub>H<sub>8</sub>ClN<sub>3</sub>",
        "Molecular Mass": "157.60",
        "Melting Point": "81 °C"
    }
}