{
    "cas_no": "781649-84-1",
    "key_name": "1-Piperidin-4-yl-1,3-dihydroimidazo[4,5-<em>b</em>]pyridin-2-one dihydrochloride",
    "cn_name": null,
    "alternate_name": "2<em>H</em>-Imidazo[4,5-<em>b</em>]pyridin-2-one, 1,3-dihydro-1-(4-piperidinyl)-, hydrochloride (1:2);2<em>H</em>-Imidazo[4,5-<em>b</em>]pyridin-2-one, 1,3-dihydro-1-(4-piperidinyl)-, dihydrochloride;2-Oxo-1-(4-piperidinyl)-2,3-dihydro-1<em>H</em>-imidazo[4,5-<em>b</em>]pyridine dihydrochloride;1-(Piperidin-4-yl)-1,3-dihydro-2<em>H</em>-imidazo[4,5-<em>b</em>]pyridin-2-one dihydrochloride;1-Piperidin-4-yl-1,3-dihydroimidazo[4,5-<em>b</em>]pyridin-2-one dihydrochloride;1-(Piperidin-4-yl)-1<em>H</em>-imidazo[4,5-<em>b</em>]pyridin-2(3<em>H</em>)-one dihydrochloride",
    "duplicated_cas_no": "",
    "SMILES": "O=C1N(C=2C(N1)=NC=CC2)C3CCNCC3.Cl",
    "meta_data": {
        "InChI": "InChI=1S/C11H14N4O.2ClH/c16-11-14-10-9(2-1-5-13-10)15(11)8-3-6-12-7-4-8;;/h1-2,5,8,12H,3-4,6-7H2,(H,13,14,16);2*1H",
        "InChIKey": null,
        "Canonical SMILES": "Cl.O=C1NC2=NC=CC=C2N1C3CCNCC3",
        "Molecular Formula": "C<sub>11</sub>H<sub>14</sub>N<sub>4</sub>O.2ClH",
        "Molecular Mass": "",
        "Melting Point": "357.3 °C"
    }
}