{
    "cas_no": "50-63-5",
    "key_name": "(±)-Chloroquine diphosphate",
    "cn_name": "磷酸氯喹;",
    "alternate_name": "1,4-Pentanediamine, <em>N</em><sup>4</sup>-(7-chloro-4-quinolinyl)-<em>N</em><sup>1</sup>,<em>N</em><sup>1</sup>-diethyl-, phosphate (1:2);Quinoline, 7-chloro-4-[[4-(diethylamino)-1-methylbutyl]amino]-, phosphate (1:2);Quinoline, 7-chloro-4-[(4-diethylamino-1-methylbutyl)amino]-, diphosphate;3377RP;SN 7618;Aralen diphosphate;Aralen phosphate;Avloclor;Bemaphate;7-Chloro-4-[(4′-diethylamino-1-methylbutyl)amino]quinoline diphosphate;Chloroquin diphosphate;Chloroquine diphosphate;Chloroquine phosphate;Nivaquine B;Resoquine;Sanoquin;Tanakan;Arechin;Resochin;Delagil;Quingamine;Chingamin;Chingamin phosphate;Gontochin phosphate;Khingamin;Chlorochin diphosphate;WR 1522;Chloroquine dihydrogen phosphate (1:2);Tanakan (antimalarial);(±)-Chloroquine diphosphate;<em>dl</em>-Chloroquine diphosphate;NSC 14050;Tresochin;Imagon;Malaquin;Alexoquine;Cidoquine;Maladrin;Quivaclor;Aralen",
    "duplicated_cas_no": "6384-82-3;69698-56-2",
    "SMILES": "P(=O)(O)(O)O.N(C(CCCN(CC)CC)C)C=1C2=C(N=CC1)C=C(Cl)C=C2",
    "meta_data": {
        "InChI": "InChI=1S/C18H26ClN3.H3O4P/c1-4-22(5-2)12-6-7-14(3)21-17-10-11-20-18-13-15(19)8-9-16(17)18;1-5(2,3)4/h8-11,13-14H,4-7,12H2,1-3H3,(H,20,21);(H3,1,2,3,4)",
        "InChIKey": null,
        "Canonical SMILES": "O=P(O)(O)O.ClC=1C=CC=2C(=NC=CC2NC(C)CCCN(CC)CC)C1",
        "Molecular Formula": "C<sub>18</sub>H<sub>26</sub>ClN<sub>3</sub>.2H<sub>3</sub>O<sub>4</sub>P",
        "Molecular Mass": "",
        "Boiling Point": "189-193 °C @ Press: 0.2-0.3 Torr",
        "Melting Point": "193-195 °C"
    }
}