{
    "cas_no": "4018-65-9",
    "key_name": "3-Chlorocatechol",
    "cn_name": null,
    "alternate_name": "1,2-Benzenediol, 3-chloro-;Pyrocatechol, 3-chloro-;3-Chloro-1,2-benzenediol;3-Chlorocatechol;3-Chloropyrocatechol;3-Chloro-1,2-dihydroxybenzene",
    "duplicated_cas_no": "",
    "SMILES": "OC1=C(Cl)C=CC=C1O",
    "meta_data": {
        "InChI": "InChI=1S/C6H5ClO2/c7-4-2-1-3-5(8)6(4)9/h1-3,8-9H",
        "InChIKey": null,
        "Canonical SMILES": "ClC1=CC=CC(O)=C1O",
        "Molecular Formula": "C<sub>6</sub>H<sub>5</sub>ClO<sub>2</sub>",
        "Molecular Mass": "144.56",
        "Boiling Point": "110-111 °C @ Press: 11 Torr",
        "Melting Point": "48.5 °C"
    }
}