{
    "cas_no": "50606-96-7",
    "key_name": "4-Heptylbenzoyl chloride",
    "cn_name": "对庚基苯甲酰氯;",
    "alternate_name": "Benzoyl chloride, 4-heptyl-;4-Heptylbenzoyl chloride;<em>p</em>-Heptylbenzoyl chloride;<em>p</em>-<em>n</em>-Heptylbenzoyl chloride",
    "duplicated_cas_no": "",
    "SMILES": "C(CCCCCC)C1=CC=C(C(Cl)=O)C=C1",
    "meta_data": {
        "InChI": "InChI=1S/C14H19ClO/c1-2-3-4-5-6-7-12-8-10-13(11-9-12)14(15)16/h8-11H,2-7H2,1H3",
        "InChIKey": null,
        "Canonical SMILES": "O=C(Cl)C1=CC=C(C=C1)CCCCCCC",
        "Molecular Formula": "C<sub>14</sub>H<sub>19</sub>ClO",
        "Molecular Mass": "238.75",
        "Boiling Point": "160 °C @ Press: 5 Torr"
    }
}