{
    "cas_no": "7440-55-3",
    "key_name": "Gallium",
    "cn_name": null,
    "alternate_name": "Gallium;Gallium element;MeSH ID: D005708",
    "duplicated_cas_no": "",
    "SMILES": "[Ga]",
    "meta_data": {
        "InChI": "InChI=1S/Ga",
        "InChIKey": null,
        "Canonical SMILES": "[Ga]",
        "Molecular Formula": "Ga",
        "Molecular Mass": "",
        "Boiling Point": "~2400 °C (approx)",
        "Melting Point": "29.78 °C",
        "Density": "5.91 g/cm³ @ Temp: 20 °C"
    }
}