{
    "cas_no": "4919-37-3",
    "key_name": "4-Hydroxy-3,5-dimethylbenzoic acid",
    "cn_name": "4-羟基-3,5-二甲基苯甲酸;",
    "alternate_name": "Benzoic acid, 4-hydroxy-3,5-dimethyl-;4-Hydroxy-3,5-dimethylbenzoic acid;3,5-Dimethyl-4-hydroxybenzoic acid;2,6-Dimethyl-4-carboxyphenol;NSC 68319",
    "duplicated_cas_no": "",
    "SMILES": "C(O)(=O)C1=CC(C)=C(O)C(C)=C1",
    "meta_data": {
        "InChI": "InChI=1S/C9H10O3/c1-5-3-7(9(11)12)4-6(2)8(5)10/h3-4,10H,1-2H3,(H,11,12)",
        "InChIKey": null,
        "Canonical SMILES": "O=C(O)C=1C=C(C(O)=C(C1)C)C",
        "Molecular Formula": "C<sub>9</sub>H<sub>10</sub>O<sub>3</sub>",
        "Molecular Mass": "166.17",
        "Melting Point": "221-224.5 °C"
    }
}