{
    "cas_no": "2497-18-9",
    "key_name": "<em>trans</em>-2-Hexenyl acetate",
    "cn_name": "(E)-乙酸-2-己烯-1-醇酯;",
    "alternate_name": "2-Hexen-1-ol, 1-acetate, (2<em>E</em>)-;2-Hexen-1-ol, acetate, (<em>E</em>)-;2-Hexen-1-ol, acetate, (2<em>E</em>)-;<em>trans</em>-2-Hexenyl acetate;(<em>E</em>)-2-Hexenyl acetate;(<em>E</em>)-2-Hexen-1-yl acetate;(2<em>E</em>)-Hexenyl acetate;(<em>E</em>)-1-Acetoxy-2-hexene;(<em>E</em>)-2-Hexen-1-ol acetate;Acetic acid (<em>E</em>)-2-hexenyl ester",
    "duplicated_cas_no": "",
    "SMILES": "C(/C=C/CCC)OC(C)=O",
    "meta_data": {
        "InChI": "InChI=1S/C8H14O2/c1-3-4-5-6-7-10-8(2)9/h5-6H,3-4,7H2,1-2H3/b6-5+",
        "InChIKey": null,
        "Canonical SMILES": "O=C(OCC=CCCC)C",
        "Molecular Formula": "C<sub>8</sub>H<sub>14</sub>O<sub>2</sub>",
        "Molecular Mass": "142.20",
        "Boiling Point": "166 °C"
    }
}