{
    "cas_no": "2426-08-6",
    "key_name": "Butyl glycidyl ether",
    "cn_name": "正丁基缩水甘油醚;2,3-环氧丙基丁醚;",
    "alternate_name": "Oxirane, 2-(butoxymethyl)-;Propane, 1-butoxy-2,3-epoxy-;Oxirane, (butoxymethyl)-;2-(Butoxymethyl)oxirane;Butyl glycidyl ether;2,3-Epoxypropyl butyl ether;Glycidyl butyl ether;1-Butoxy-2,3-epoxypropane;3-Butoxy-1,2-epoxypropane;ERL 0810;<em>n</em>-Butyl glycidyl ether;(Butoxymethyl)oxirane;Glycidyl <em>n</em>-butyl ether;Epi-Rez 501;1-Butyl glycidyl ether;Butyl 2,3-epoxypropyl ether;BGE;(±)-Butyl glycidyl ether;DY-BP;BGE-R;Epodil 741;BGE-C;NSC 83413;DY-BP (epoxide);N 10 (ether);N 10;Epodil 741HP;Epiol B 4;660A;Epogosey BA;Laproxid 201B;Epoxide 660;SM 660A;XY 501;<em>O</em>-Butylglycidol;NPEK 041;XY 501P;BGE 501;Erisys GE 5;501B;Diluent 501;Diluent 660;Y 501;Y 501 (epoxide);DGE 501;Xinyuan 501A;501A;3-Butoxy-1,2-propylene oxide;Epothin 1014;Heloxy 61;DGE 5101;LS-501A;<em>n</em>-Butyl 2,3-epoxypropyl ether",
    "duplicated_cas_no": "85858-60-2;144376-83-0;342395-38-4;921213-37-8;2560549-27-9",
    "SMILES": "C(OCCCC)C1CO1",
    "meta_data": {
        "InChI": "InChI=1S/C7H14O2/c1-2-3-4-8-5-7-6-9-7/h7H,2-6H2,1H3",
        "InChIKey": null,
        "Canonical SMILES": "O(CCCC)CC1OC1",
        "Molecular Formula": "C<sub>7</sub>H<sub>14</sub>O<sub>2</sub>",
        "Molecular Mass": "130.18",
        "Boiling Point": "164 °C",
        "Melting Point": "59 °C",
        "Density": "0.908 g/cm³ @ Temp: 25 °C"
    }
}