{
    "cas_no": "75507-68-5",
    "key_name": "Flupirtine maleate",
    "cn_name": "马来酸氟吡汀;2-氨基-6-[(4-氟苄基)氨基]吡啶-3-氨基甲酸乙酯马来酸盐;",
    "alternate_name": "Carbamic acid, <em>N</em>-[2-amino-6-[[(4-fluorophenyl)methyl]amino]-3-pyridinyl]-, ethyl ester, (2<em>Z</em>)-2-butenedioate (1:1);Carbamic acid, [2-amino-6-[[(4-fluorophenyl)methyl]amino]-3-pyridinyl]-, ethyl ester, (<em>Z</em>)-2-butenedioate (1:1);Carbamic acid, [2-amino-6-[[(4-fluorophenyl)methyl]amino]-3-pyridinyl]-, ethyl ester, (2<em>Z</em>)-2-butenedioate (1:1);Flupirtine maleate;W 2964M;Efiret",
    "duplicated_cas_no": "56995-21-2",
    "SMILES": "N(C(OCC)=O)C1=C(N)N=C(NCC2=CC=C(F)C=C2)C=C1.C(=C\\C(O)=O)\\C(O)=O",
    "meta_data": {
        "InChI": "InChI=1S/C15H17FN4O2.C4H4O4/c1-2-22-15(21)19-12-7-8-13(20-14(12)17)18-9-10-3-5-11(16)6-4-10;5-3(6)1-2-4(7)8/h3-8H,2,9H2,1H3,(H,19,21)(H3,17,18,20);1-2H,(H,5,6)(H,7,8)/b;2-1-",
        "InChIKey": null,
        "Canonical SMILES": "O=C(O)C=CC(=O)O.O=C(OCC)NC1=CC=C(N=C1N)NCC2=CC=C(F)C=C2",
        "Molecular Formula": "C<sub>15</sub>H<sub>17</sub>FN<sub>4</sub>O<sub>2</sub>.C<sub>4</sub>H<sub>4</sub>O<sub>4</sub>",
        "Molecular Mass": "",
        "Melting Point": "175.5-176 °C"
    }
}