{
    "cas_no": "59870-65-4",
    "key_name": "Glabrol",
    "cn_name": "光甘草酚;",
    "alternate_name": "4<em>H</em>-1-Benzopyran-4-one, 2,3-dihydro-7-hydroxy-2-[4-hydroxy-3-(3-methyl-2-buten-1-yl)phenyl]-8-(3-methyl-2-buten-1-yl)-, (2<em>S</em>)-;4<em>H</em>-1-Benzopyran-4-one, 2,3-dihydro-7-hydroxy-2-[4-hydroxy-3-(3-methyl-2-butenyl)phenyl]-8-(3-methyl-2-butenyl)-, (<em>S</em>)-;4<em>H</em>-1-Benzopyran-4-one, 2,3-dihydro-7-hydroxy-2-[4-hydroxy-3-(3-methyl-2-butenyl)phenyl]-8-(3-methyl-2-butenyl)-, (2<em>S</em>)-;(2<em>S</em>)-2,3-Dihydro-7-hydroxy-2-[4-hydroxy-3-(3-methyl-2-buten-1-yl)phenyl]-8-(3-methyl-2-buten-1-yl)-4<em>H</em>-1-benzopyran-4-one;Glabrol",
    "duplicated_cas_no": "",
    "SMILES": "C(C=C(C)C)C1=C2C(C(=O)C[C@H](O2)C3=CC(CC=C(C)C)=C(O)C=C3)=CC=C1O",
    "meta_data": {
        "InChI": "InChI=1S/C25H28O4/c1-15(2)5-7-17-13-18(8-11-21(17)26)24-14-23(28)20-10-12-22(27)19(25(20)29-24)9-6-16(3)4/h5-6,8,10-13,24,26-27H,7,9,14H2,1-4H3/t24-/m0/s1",
        "InChIKey": null,
        "Canonical SMILES": "O=C1C2=CC=C(O)C(=C2OC(C3=CC=C(O)C(=C3)CC=C(C)C)C1)CC=C(C)C",
        "Molecular Formula": "C<sub>25</sub>H<sub>28</sub>O<sub>4</sub>",
        "Molecular Mass": "392.49",
        "Melting Point": "121-123 °C"
    }
}