{
    "cas_no": "59-49-4",
    "key_name": "2(3<em>H</em>)-Benzoxazolone",
    "cn_name": "2-苯并噁唑啉酮;",
    "alternate_name": "2(3<em>H</em>)-Benzoxazolone;2-Benzoxazolinone;Carbamic acid, (2-hydroxyphenyl)-, γ-lactone;2-Benzoxazolol;2-Hydroxybenzoxazole;2(3<em>H</em>)-Benzoxazolinone;1,3-Benzoxazol-2(3<em>H</em>)-one;NSC 3812;2-Oxo-2,3-dihydrobenzoxazole;Benzo[<em>d</em>]oxazol-2(3<em>H</em>)-one;1,2-Dihydrobenzoxazol-2-one;2,3-Dihydro-1,3-benzoxazol-2-one",
    "duplicated_cas_no": "5347-62-6;144220-92-8",
    "SMILES": "O=C1NC=2C(O1)=CC=CC2",
    "meta_data": {
        "InChI": "InChI=1S/C7H5NO2/c9-7-8-5-3-1-2-4-6(5)10-7/h1-4H,(H,8,9)",
        "InChIKey": null,
        "Canonical SMILES": "O=C1OC=2C=CC=CC2N1",
        "Molecular Formula": "C<sub>7</sub>H<sub>5</sub>NO<sub>2</sub>",
        "Molecular Mass": "135.12",
        "Boiling Point": "335 °C",
        "Melting Point": "138 °C"
    }
}