{
    "cas_no": "1621-56-3",
    "key_name": "7-Methoxyisoflavone",
    "cn_name": null,
    "alternate_name": "4<em>H</em>-1-Benzopyran-4-one, 7-methoxy-3-phenyl-;Isoflavone, 7-methoxy-;7-Methoxy-3-phenyl-4<em>H</em>-1-benzopyran-4-one;7-Methoxyisoflavone;7-Methoxy-3-phenyl-4<em>H</em>-chromen-4-one",
    "duplicated_cas_no": "",
    "SMILES": "O=C1C=2C(=CC(OC)=CC2)OC=C1C3=CC=CC=C3",
    "meta_data": {
        "InChI": "InChI=1S/C16H12O3/c1-18-12-7-8-13-15(9-12)19-10-14(16(13)17)11-5-3-2-4-6-11/h2-10H,1H3",
        "InChIKey": null,
        "Canonical SMILES": "O=C1C(=COC2=CC(OC)=CC=C21)C=3C=CC=CC3",
        "Molecular Formula": "C<sub>16</sub>H<sub>12</sub>O<sub>3</sub>",
        "Molecular Mass": "252.26",
        "Melting Point": "155 °C"
    }
}