{
    "cas_no": "594-72-9",
    "key_name": "1,1-Dichloro-1-nitroethane",
    "cn_name": "二氯硝基乙烷;1，1-二氯-1-硝基乙烷;",
    "alternate_name": "Ethane, 1,1-dichloro-1-nitro-;1,1-Dichloro-1-nitroethane;Ethide;1-Nitro-1,1-dichloroethane;NSC 6283",
    "duplicated_cas_no": "",
    "SMILES": "C(N(=O)=O)(C)(Cl)Cl",
    "meta_data": {
        "InChI": "InChI=1S/C2H3Cl2NO2/c1-2(3,4)5(6)7/h1H3",
        "InChIKey": null,
        "Canonical SMILES": "O=N(=O)C(Cl)(Cl)C",
        "Molecular Formula": "C<sub>2</sub>H<sub>3</sub>Cl<sub>2</sub>NO<sub>2</sub>",
        "Molecular Mass": "143.96",
        "Boiling Point": "124 °C",
        "Density": "1.4271 g/cm³ @ Temp: 20 °C"
    }
}