{
    "cas_no": "111-61-5",
    "key_name": "Ethyl stearate",
    "cn_name": "硬脂酸乙酯;十八酸乙酯;",
    "alternate_name": "Octadecanoic acid, ethyl ester;Stearic acid, ethyl ester;Ethyl stearate;Ethyl <em>n</em>-octadecanoate;Ethyl octadecanoate;NSC 8919;KAK-ES",
    "duplicated_cas_no": "",
    "SMILES": "C(CCCCCCCCCCCCCCC)CC(OCC)=O",
    "meta_data": {
        "InChI": "InChI=1S/C20H40O2/c1-3-5-6-7-8-9-10-11-12-13-14-15-16-17-18-19-20(21)22-4-2/h3-19H2,1-2H3",
        "InChIKey": null,
        "Canonical SMILES": "O=C(OCC)CCCCCCCCCCCCCCCCC",
        "Molecular Formula": "C<sub>20</sub>H<sub>40</sub>O<sub>2</sub>",
        "Molecular Mass": "312.53",
        "Boiling Point": "199 °C",
        "Melting Point": "33 °C"
    }
}