{
    "cas_no": "2909-52-6",
    "key_name": "Bromoform-<em>d</em>",
    "cn_name": "Bromoform-D;",
    "alternate_name": "Methane-<em>d</em>, tribromo-;Bromoform-<em>d</em>;Deuterotribromomethane;Tribromomethane-<em>d</em>;Tribromodeuteromethane;Tribromodeuteriomethane;Deuteriotribromomethane;Deuterobromoform;Deuteriobromoform;Bromoform-<em>d</em><sub>1</sub>",
    "duplicated_cas_no": "",
    "SMILES": "C(Br)(Br)(Br)[2H]",
    "meta_data": {
        "InChI": "InChI=1S/CHBr3/c2-1(3)4/h1H/i1D",
        "InChIKey": null,
        "Canonical SMILES": "BrC(Br)Br",
        "Molecular Formula": "CBr<sub>3</sub>D",
        "Molecular Mass": "",
        "Boiling Point": "136.5 °C"
    }
}