{
    "cas_no": "13311-79-0",
    "key_name": "1,2,3,4-Tetrahydro-6-methoxyquinoxaline",
    "cn_name": null,
    "alternate_name": "Quinoxaline, 1,2,3,4-tetrahydro-6-methoxy-;1,2,3,4-Tetrahydro-6-methoxyquinoxaline",
    "duplicated_cas_no": "",
    "SMILES": "O(C)C=1C=C2C(=CC1)NCCN2",
    "meta_data": {
        "InChI": "InChI=1S/C9H12N2O/c1-12-7-2-3-8-9(6-7)11-5-4-10-8/h2-3,6,10-11H,4-5H2,1H3",
        "InChIKey": null,
        "Canonical SMILES": "O(C1=CC=C2NCCNC2=C1)C",
        "Molecular Formula": "C<sub>9</sub>H<sub>12</sub>N<sub>2</sub>O",
        "Molecular Mass": "164.20",
        "Melting Point": "77-78.5 °C"
    }
}