{
    "cas_no": "1599-47-9",
    "key_name": "1,1-Dimethoxyhexane",
    "cn_name": "己醛二甲基乙缩醛;己醛而甲基乙缩醛;己醛二甲基乙缩醛;己醛二甲基乙缩醛,98%;",
    "alternate_name": "Hexane, 1,1-dimethoxy-;Hexanal, dimethyl acetal;1,1-Dimethoxyhexane;Caproaldehyde dimethyl acetal",
    "duplicated_cas_no": "",
    "SMILES": "C(CCCCC)(OC)OC",
    "meta_data": {
        "InChI": "InChI=1S/C8H18O2/c1-4-5-6-7-8(9-2)10-3/h8H,4-7H2,1-3H3",
        "InChIKey": null,
        "Canonical SMILES": "O(C)C(OC)CCCCC",
        "Molecular Formula": "C<sub>8</sub>H<sub>18</sub>O<sub>2</sub>",
        "Molecular Mass": "146.23",
        "Boiling Point": "158 °C",
        "Density": "0.846 g/cm³ @ Temp: 21 °C"
    }
}