{
    "cas_no": "492-73-9",
    "key_name": "2,2′-Pyridil",
    "cn_name": "二(2-吡啶基)乙二酮;",
    "alternate_name": "1,2-Ethanedione, 1,2-di-2-pyridinyl-;Glyoxal, di-2-pyridyl-;Ethanedione, di-2-pyridinyl-;1,2-Di-2-pyridinyl-1,2-ethanedione;Bipicolinoyl;Di-2-pyridylglyoxal;α-Pyridil;2,2′-Pyridil;Bis(2-pyridyl)ethanedione;2,2′-Dipyridylglyoxal;Di-2-pyridyldiketone;1,2-Bis(2-pyridyl)-1,2-ethanedione;NSC 16545;1,2-Bis(2-pyridinyl)-1,2-ethanedione;1,2-Di(pyridin-2-yl)ethane-1,2-dione",
    "duplicated_cas_no": "",
    "SMILES": "C(C(=O)C1=CC=CC=N1)(=O)C2=CC=CC=N2",
    "meta_data": {
        "InChI": "InChI=1S/C12H8N2O2/c15-11(9-5-1-3-7-13-9)12(16)10-6-2-4-8-14-10/h1-8H",
        "InChIKey": null,
        "Canonical SMILES": "O=C(C1=NC=CC=C1)C(=O)C2=NC=CC=C2",
        "Molecular Formula": "C<sub>12</sub>H<sub>8</sub>N<sub>2</sub>O<sub>2</sub>",
        "Molecular Mass": "212.20",
        "Melting Point": "155 °C"
    }
}