{
    "cas_no": "459-23-4",
    "key_name": "4-Fluorobenzaldehyde oxime",
    "cn_name": null,
    "alternate_name": "Benzaldehyde, 4-fluoro-, oxime;Benzaldehyde, <em>p</em>-fluoro-, oxime;<em>p</em>-Fluorobenzaldehyde oxime;4-Fluorobenzaldoxime;4-Fluorobenzaldehyde oxime",
    "duplicated_cas_no": "",
    "SMILES": "C(=NO)C1=CC=C(F)C=C1",
    "meta_data": {
        "InChI": "InChI=1S/C7H6FNO/c8-7-3-1-6(2-4-7)5-9-10/h1-5,10H",
        "InChIKey": null,
        "Canonical SMILES": "FC1=CC=C(C=NO)C=C1",
        "Molecular Formula": "C<sub>7</sub>H<sub>6</sub>FNO",
        "Molecular Mass": "139.13",
        "Melting Point": "83.5 °C"
    }
}