{
    "cas_no": "709-09-1",
    "key_name": "1,2-Dimethoxy-4-nitrobenzene",
    "cn_name": "3,4-二甲氧基硝基苯;1,2-二甲氧基-4-硝基苯;",
    "alternate_name": "Benzene, 1,2-dimethoxy-4-nitro-;Veratrole, 4-nitro-;1,2-Dimethoxy-4-nitrobenzene;3,4-Dimethoxynitrobenzene;4-Nitroveratrole;4-Nitro-1,2-dimethoxybenzene;NSC 10116;NSC 27974;NSC 93382",
    "duplicated_cas_no": "",
    "SMILES": "O(C)C1=C(OC)C=CC(N(=O)=O)=C1",
    "meta_data": {
        "InChI": "InChI=1S/C8H9NO4/c1-12-7-4-3-6(9(10)11)5-8(7)13-2/h3-5H,1-2H3",
        "InChIKey": null,
        "Canonical SMILES": "O=N(=O)C1=CC=C(OC)C(OC)=C1",
        "Molecular Formula": "C<sub>8</sub>H<sub>9</sub>NO<sub>4</sub>",
        "Molecular Mass": "183.16",
        "Melting Point": "98 °C"
    }
}