{
    "cas_no": "329-89-5",
    "key_name": "6-Aminonicotinamide",
    "cn_name": "6-氨基烟酰胺;6-氨基-3-吡啶甲酰胺;2-氨基吡啶-5-甲酰胺;",
    "alternate_name": "3-Pyridinecarboxamide, 6-amino-;Nicotinamide, 6-amino-;6-Amino-3-pyridinecarboxamide;6-Aminonicotinamide;2-Amino-5-carbamoylpyridine;SR 4388;NSC 21206;5-Aminocarbonyl-2-Aminopyridine;6 AN;MeSH ID: D015120",
    "duplicated_cas_no": "",
    "SMILES": "C(N)(=O)C=1C=CC(N)=NC1",
    "meta_data": {
        "InChI": "InChI=1S/C6H7N3O/c7-5-2-1-4(3-9-5)6(8)10/h1-3H,(H2,7,9)(H2,8,10)",
        "InChIKey": null,
        "Canonical SMILES": "O=C(N)C1=CN=C(N)C=C1",
        "Molecular Formula": "C<sub>6</sub>H<sub>7</sub>N<sub>3</sub>O",
        "Molecular Mass": "137.14",
        "Melting Point": "200 °C"
    }
}