{
    "cas_no": "9037-22-3",
    "key_name": "Amylopectin",
    "cn_name": "支链淀粉;",
    "alternate_name": "Amylopectin;Amioca WCS;WCS;Amaizo 839;Kosol;Amioca;Pectin, amylo;Starch, waxy;Ultraamylopectin N;Waxy corn starch;Waxy maize starch;Waxy starch;Cato 225;Waxy 7350;Cato 240;Cato 270;Farinex WM 85;Honen Alpha Waxy Starch;Ultrasperse A;C*Pharm 12018;Cerestar SF 04201;Waxy Alpha Y;Waxilys;Waxilys 200;Waxilys 100;C<sup>*</sup>Gel 04201;Amioca Powder T;ICB 3100;Matsunorin N;Matsunorin A;Pregeflo C 100;Novation 2600;Remyflo S 200;Farinex WM 55;Meritena 300;Eliane 100;Ultra-Crisp CS;Cleer-Cote 625NB;Versasheen;Remyline AX-DR;Clearam MH 1015;Clearam CI 3000;Clearam CI 1000;Clearam CH 1505;Eliane SC 160;Waxy potato starch;Mazaca 3401X;Novation Prima 300;Amylopectins;Waxy Starch Y;Novation 5600;Maisita 21.007;Remyline XS-B;SF 930;Eliane Gel 100;Amioca TF;Baomanbio T 0018;N 200 (starch);Waxy Corn Starch Y;CG 04201;MeSH ID: D000687;Eliane C 100;Stabilose AB 1000",
    "duplicated_cas_no": "9050-86-6;189047-96-9;3007538-33-9",
    "SMILES": "",
    "meta_data": {
        "InChI": "",
        "InChIKey": null,
        "Canonical SMILES": "",
        "Molecular Formula": "Unspecified",
        "Molecular Mass": "",
        "Melting Point": "160 °C",
        "Density": "0.0319 g/cm³"
    }
}