{
    "cas_no": "629-23-2",
    "key_name": "3-Tetradecanone",
    "cn_name": "3-十四酮;乙基十一基酮;",
    "alternate_name": "3-Tetradecanone;NSC 158516",
    "duplicated_cas_no": "",
    "SMILES": "C(CCC(CC)=O)CCCCCCCC",
    "meta_data": {
        "InChI": "InChI=1S/C14H28O/c1-3-5-6-7-8-9-10-11-12-13-14(15)4-2/h3-13H2,1-2H3",
        "InChIKey": null,
        "Canonical SMILES": "O=C(CC)CCCCCCCCCCC",
        "Molecular Formula": "C<sub>14</sub>H<sub>28</sub>O",
        "Molecular Mass": "212.37",
        "Melting Point": "34 °C"
    }
}