{
    "cas_no": "1912-26-1",
    "key_name": "Trietazine",
    "cn_name": "草达津;草达津;",
    "alternate_name": "1,3,5-Triazine-2,4-diamine, 6-chloro-<em>N</em><sup>2</sup>,<em>N</em><sup>2</sup>,<em>N</em><sup>4</sup>-triethyl-;<em>s</em>-Triazine, 2-chloro-4-(diethylamino)-6-(ethylamino)-;1,3,5-Triazine-2,4-diamine, 6-chloro-<em>N</em>,<em>N</em>,<em>N</em>′-triethyl-;6-Chloro-<em>N</em><sup>2</sup>,<em>N</em><sup>2</sup>,<em>N</em><sup>4</sup>-triethyl-1,3,5-triazine-2,4-diamine;G 27901;2-Chloro-4-(diethylamino)-6-(ethylamino)-<em>s</em>-triazine;2-Chloro-4-ethylamino-6-diethylamino-<em>s</em>-triazine;Gesafloc;Trietazine;Triethazine;2-Chloro-4-(diethylamino)-6-(ethylamino)-1,3,5-triazine;2-Ethylamino-4-diethylamino-6-chlorotriazine;NSC 13908;NC 1667",
    "duplicated_cas_no": "",
    "SMILES": "N(CC)(CC)C=1N=C(NCC)N=C(Cl)N1",
    "meta_data": {
        "InChI": "InChI=1S/C9H16ClN5/c1-4-11-8-12-7(10)13-9(14-8)15(5-2)6-3/h4-6H2,1-3H3,(H,11,12,13,14)",
        "InChIKey": null,
        "Canonical SMILES": "ClC=1N=C(N=C(N1)N(CC)CC)NCC",
        "Molecular Formula": "C<sub>9</sub>H<sub>16</sub>ClN<sub>5</sub>",
        "Molecular Mass": "229.71",
        "Melting Point": "100-101 °C"
    }
}