{
    "cas_no": "3229-00-3",
    "key_name": "1,3-Dibromo-2,2-bis(bromomethyl)propane",
    "cn_name": "四溴季戊醇;乙醇-2-氯碳酸酯;",
    "alternate_name": "Propane, 1,3-dibromo-2,2-bis(bromomethyl)-;1,3-Dibromo-2,2-bis(bromomethyl)propane;Pentaerythritol tetrabromide;Pentaerythrityl bromide;Pentaerythrityl tetrabromide;Tetra(bromomethyl)methane;2,2-Bis(bromomethyl)-1,3-dibromopropane;Tetrabromoneopentane;Tetrakis(bromomethyl)methane;Tetrabromopentaerythritol;NSC 8998;Pentaerithrityl tetrabromide",
    "duplicated_cas_no": "50995-89-6",
    "SMILES": "C(CBr)(CBr)(CBr)CBr",
    "meta_data": {
        "InChI": "InChI=1S/C5H8Br4/c6-1-5(2-7,3-8)4-9/h1-4H2",
        "InChIKey": null,
        "Canonical SMILES": "BrCC(CBr)(CBr)CBr",
        "Molecular Formula": "C<sub>5</sub>H<sub>8</sub>Br<sub>4</sub>",
        "Molecular Mass": "387.73",
        "Boiling Point": "305.5 °C",
        "Melting Point": "163 °C"
    }
}