{
    "cas_no": "74610-55-2",
    "key_name": "Tylosin tartrate",
    "cn_name": "酒石酸泰洛星;酒石酸泰乐菌素;",
    "alternate_name": "Tylosin, (2<em>R</em>,3<em>R</em>)-2,3-dihydroxybutanedioate (1:1);Tylosin, [<em>R</em>-(<em>R</em>*,<em>R</em>*)]-2,3-dihydroxybutanedioate (1:1) (salt);Tylosin, (2<em>R</em>,3<em>R</em>)-2,3-dihydroxybutanedioate (1:1) (salt);Oxacyclohexadecane, tylosin deriv.;Pharmasin;Tylan Injectable;Tylan Soluble;Tylosin tartrate",
    "duplicated_cas_no": "61913-18-6;8075-70-5;65608-64-2",
    "SMILES": "O([C@H]1[C@H](N(C)C)[C@@H](O)[C@H](O[C@H]2[C@@H](CC=O)C[C@@H](C)C(=O)/C=C/C(/C)=C/[C@H](CO[C@H]3[C@H](OC)[C@H](OC)[C@H](O)[C@@H](C)O3)[C@@H](CC)OC(=O)C[C@@H](O)[C@@H]2C)O[C@@H]1C)[C@H]4C[C@@](C)(O)[C@@H](O)[C@H](C)O4.[C@@H]([C@H](C(O)=O)O)(C(O)=O)O",
    "meta_data": {
        "InChI": "InChI=1S/C46H77NO17.C4H6O6/c1-13-33-30(22-58-45-42(57-12)41(56-11)37(52)26(5)60-45)18-23(2)14-15-31(49)24(3)19-29(16-17-48)39(25(4)32(50)20-34(51)62-33)64-44-38(53)36(47(9)10)40(27(6)61-44)63-35-21-46(8,55)43(54)28(7)59-35;5-1(3(7)8)2(6)4(9)10/h14-15,17-18,24-30,32-33,35-45,50,52-55H,13,16,19-22H2,1-12H3;1-2,5-6H,(H,7,8)(H,9,10)/b15-14+,23-18+;/t24-,25+,26-,27-,28+,29+,30-,32-,33-,35+,36-,37-,38-,39-,40-,41-,42-,43+,44+,45-,46-;1-,2-/m11/s1",
        "InChIKey": null,
        "Canonical SMILES": "O=CCC1CC(C(=O)C=CC(=CC(COC2OC(C)C(O)C(OC)C2OC)C(OC(=O)CC(O)C(C)C1OC3OC(C)C(OC4OC(C)C(O)C(O)(C)C4)C(N(C)C)C3O)CC)C)C.O=C(O)C(O)C(O)C(=O)O",
        "Molecular Formula": "C<sub>46</sub>H<sub>77</sub>NO<sub>17</sub>.C<sub>4</sub>H<sub>6</sub>O<sub>6</sub>",
        "Molecular Mass": "",
        "Melting Point": "140-146 °C"
    }
}