{
    "cas_no": "375-02-0",
    "key_name": "2,2,3,3,4,4,4-Heptafluorobutanal",
    "cn_name": "2,2,3,3,4,4,4-七氟丁醛水合物;",
    "alternate_name": "Butanal, 2,2,3,3,4,4,4-heptafluoro-;Butyraldehyde, heptafluoro-;Butanal, heptafluoro-;2,2,3,3,4,4,4-Heptafluorobutanal;Heptafluorobutyraldehyde;Perfluorobutyraldehyde",
    "duplicated_cas_no": "",
    "SMILES": "C(C(C=O)(F)F)(C(F)(F)F)(F)F",
    "meta_data": {
        "InChI": "InChI=1S/C4HF7O/c5-2(6,1-12)3(7,8)4(9,10)11/h1H",
        "InChIKey": null,
        "Canonical SMILES": "O=CC(F)(F)C(F)(F)C(F)(F)F",
        "Molecular Formula": "C<sub>4</sub>HF<sub>7</sub>O",
        "Molecular Mass": "198.04",
        "Boiling Point": "28 °C @ Press: 740 Torr"
    }
}