{
    "cas_no": "2179-59-1",
    "key_name": "Allyl propyl disulfide",
    "cn_name": "烯丙基丙基二硫醚;二硫化丙基丙烯;",
    "alternate_name": "Disulfide, 2-propen-1-yl propyl;Disulfide, allyl propyl;Disulfide, 2-propenyl propyl;2-Propen-1-yl propyl disulfide;Allyl propyl disulfide;Propyl allyl disulfide;4,5-Dithia-1-octene;2-Propenyl propyl disulfide;1-(Prop-2-enyldisulfanyl)propane",
    "duplicated_cas_no": "",
    "SMILES": "S(SCC=C)CCC",
    "meta_data": {
        "InChI": "InChI=1S/C6H12S2/c1-3-5-7-8-6-4-2/h3H,1,4-6H2,2H3",
        "InChIKey": null,
        "Canonical SMILES": "S(SCCC)CC=C",
        "Molecular Formula": "C<sub>6</sub>H<sub>12</sub>S<sub>2</sub>",
        "Molecular Mass": "148.29",
        "Boiling Point": "78-80 °C @ Press: 13 Torr",
        "Melting Point": "-15 °C",
        "Density": "0.9 g/cm³"
    }
}