{
    "cas_no": "626-62-0",
    "key_name": "Iodocyclohexane",
    "cn_name": "碘环己烷;",
    "alternate_name": "Cyclohexane, iodo-;Iodocyclohexane;Cyclohexyl iodide;NSC 6075",
    "duplicated_cas_no": "",
    "SMILES": "IC1CCCCC1",
    "meta_data": {
        "InChI": "InChI=1S/C6H11I/c7-6-4-2-1-3-5-6/h6H,1-5H2",
        "InChIKey": null,
        "Canonical SMILES": "IC1CCCCC1",
        "Molecular Formula": "C<sub>6</sub>H<sub>11</sub>I",
        "Molecular Mass": "210.06",
        "Boiling Point": "81-83 °C @ Press: 20 Torr",
        "Melting Point": "52 °C",
        "Density": "1.624 g/cm³ @ Temp: 20 °C"
    }
}