{
    "cas_no": "97845-60-8",
    "key_name": "1,1′-[2-[2-(2-amino-6-chloro-9<em>H</em>-purin-9-yl)ethyl]-1,3-propanediyl] diacetate",
    "cn_name": "9-(4-乙酰氧基-3-乙酰氧甲基丁基)-2-氨基-6-氯嘌呤;",
    "alternate_name": "1,3-Propanediol, 2-[2-(2-amino-6-chloro-9<em>H</em>-purin-9-yl)ethyl]-, 1,3-diacetate;1,3-Propanediol, 2-[2-(2-amino-6-chloro-9<em>H</em>-purin-9-yl)ethyl]-, diacetate (ester);1,1′-[2-[2-(2-amino-6-chloro-9<em>H</em>-purin-9-yl)ethyl]-1,3-propanediyl] diacetate;9-[4-Acetoxy-3-(acetoxymethyl)butyl]-2-amino-6-chloropurine;2-Amino-6-chloro-9-(4-acetoxy-3-acetoxymethylbutyl)purine;[2-(Acetyloxymethyl)-4-(2-amino-6-chloropurin-9-yl)butyl] acetate",
    "duplicated_cas_no": "",
    "SMILES": "C(CC(COC(C)=O)COC(C)=O)N1C=2C(N=C1)=C(Cl)N=C(N)N2",
    "meta_data": {
        "InChI": "InChI=1S/C14H18ClN5O4/c1-8(21)23-5-10(6-24-9(2)22)3-4-20-7-17-11-12(15)18-14(16)19-13(11)20/h7,10H,3-6H2,1-2H3,(H2,16,18,19)",
        "InChIKey": null,
        "Canonical SMILES": "O=C(OCC(COC(=O)C)CCN1C=NC=2C(Cl)=NC(=NC21)N)C",
        "Molecular Formula": "C<sub>14</sub>H<sub>18</sub>ClN<sub>5</sub>O<sub>4</sub>",
        "Molecular Mass": "355.78",
        "Melting Point": "132-134 °C"
    }
}