{
    "cas_no": "45762-41-2",
    "key_name": "4-Bromo-2-ethylaniline",
    "cn_name": null,
    "alternate_name": "Benzenamine, 4-bromo-2-ethyl-;Aniline, 4-bromo-2-ethyl-;4-Bromo-2-ethylbenzenamine;4-Bromo-2-ethylaniline;2-Ethyl-4-bromoaniline",
    "duplicated_cas_no": "",
    "SMILES": "C(C)C1=C(N)C=CC(Br)=C1",
    "meta_data": {
        "InChI": "InChI=1S/C8H10BrN/c1-2-6-5-7(9)3-4-8(6)10/h3-5H,2,10H2,1H3",
        "InChIKey": null,
        "Canonical SMILES": "BrC1=CC=C(N)C(=C1)CC",
        "Molecular Formula": "C<sub>8</sub>H<sub>10</sub>BrN",
        "Molecular Mass": "200.08",
        "Boiling Point": "134-138 °C @ Press: 8 Torr"
    }
}