{
    "cas_no": "126-71-6",
    "key_name": "Triisobutyl phosphate",
    "cn_name": "磷酸三异丁酯;",
    "alternate_name": "Phosphoric acid, tris(2-methylpropyl) ester;Phosphoric acid, triisobutyl ester;Isobutyl phosphate ((C<sub>4</sub>H<sub>9</sub>O)<sub>3</sub>PO);Triisobutyl phosphate;Antifoam TIP;NSC 62222;Daiguard 400;Reomol TIBP",
    "duplicated_cas_no": "856824-62-9",
    "SMILES": "P(OCC(C)C)(OCC(C)C)(OCC(C)C)=O",
    "meta_data": {
        "InChI": "InChI=1S/C12H27O4P/c1-10(2)7-14-17(13,15-8-11(3)4)16-9-12(5)6/h10-12H,7-9H2,1-6H3",
        "InChIKey": null,
        "Canonical SMILES": "O=P(OCC(C)C)(OCC(C)C)OCC(C)C",
        "Molecular Formula": "C<sub>12</sub>H<sub>27</sub>O<sub>4</sub>P",
        "Molecular Mass": "266.31",
        "Boiling Point": "264 °C",
        "Density": "0.9617 g/cm³ @ Temp: 25 °C"
    }
}