{
    "cas_no": "103203-84-5",
    "key_name": "3,4-Dihydro-2<em>H</em>-1-benzopyran-6-carboxylic acid",
    "cn_name": null,
    "alternate_name": "2<em>H</em>-1-Benzopyran-6-carboxylic acid, 3,4-dihydro-;6-Chromancarboxylic acid;3,4-Dihydro-2<em>H</em>-1-benzopyran-6-carboxylic acid;Chromane-6-carboxylic acid;3,4-Dihydro-2<em>H</em>-chromene-6-carboxylic acid",
    "duplicated_cas_no": "",
    "SMILES": "C(O)(=O)C=1C=C2C(=CC1)OCCC2",
    "meta_data": {
        "InChI": "InChI=1S/C10H10O3/c11-10(12)8-3-4-9-7(6-8)2-1-5-13-9/h3-4,6H,1-2,5H2,(H,11,12)",
        "InChIKey": null,
        "Canonical SMILES": "O=C(O)C1=CC=C2OCCCC2=C1",
        "Molecular Formula": "C<sub>10</sub>H<sub>10</sub>O<sub>3</sub>",
        "Molecular Mass": "178.18",
        "Melting Point": "148-150 °C"
    }
}