{
    "cas_no": "18599-20-7",
    "key_name": "1,4-Dibromo-1,1,2,2-tetrafluorobutane",
    "cn_name": null,
    "alternate_name": "Butane, 1,4-dibromo-1,1,2,2-tetrafluoro-;1,4-Dibromo-1,1,2,2-tetrafluorobutane",
    "duplicated_cas_no": "",
    "SMILES": "C(C(Br)(F)F)(CCBr)(F)F",
    "meta_data": {
        "InChI": "InChI=1S/C4H4Br2F4/c5-2-1-3(7,8)4(6,9)10/h1-2H2",
        "InChIKey": null,
        "Canonical SMILES": "FC(F)(Br)C(F)(F)CCBr",
        "Molecular Formula": "C<sub>4</sub>H<sub>4</sub>Br<sub>2</sub>F<sub>4</sub>",
        "Molecular Mass": "287.88",
        "Boiling Point": "66.6 °C @ Press: 61 Torr"
    }
}