{
    "cas_no": "75-87-6",
    "key_name": "Chloral",
    "cn_name": "三氯乙醛;",
    "alternate_name": "Acetaldehyde, 2,2,2-trichloro-;Chloral;Acetaldehyde, trichloro-;2,2,2-Trichloroacetaldehyde;Anhydrous chloral;Trichloroacetaldehyde;Trichloroethanal;Grasex;Sporotal 100;2,2,2-Trichloroethanal",
    "duplicated_cas_no": "",
    "SMILES": "C(C=O)(Cl)(Cl)Cl",
    "meta_data": {
        "InChI": "InChI=1S/C2HCl3O/c3-2(4,5)1-6/h1H",
        "InChIKey": null,
        "Canonical SMILES": "O=CC(Cl)(Cl)Cl",
        "Molecular Formula": "C<sub>2</sub>HCl<sub>3</sub>O",
        "Molecular Mass": "147.39",
        "Boiling Point": "97.8 °C @ Press: 760 Torr",
        "Melting Point": "-57.5 °C",
        "Density": "1.5121 g/cm³ @ Temp: 20 °C"
    }
}