{
    "cas_no": "72156-70-8",
    "key_name": "<em>N</em>-[4-(Methoxy-<sup>13</sup><em>C</em>)phenyl]acetamide",
    "cn_name": null,
    "alternate_name": "Acetamide, <em>N</em>-[4-(methoxy-<sup>13</sup><em>C</em>)phenyl]-;<em>N</em>-[4-(Methoxy-<sup>13</sup><em>C</em>)phenyl]acetamide",
    "duplicated_cas_no": "",
    "SMILES": "N(C(C)=O)C1=CC=C(O[13CH3])C=C1",
    "meta_data": {
        "InChI": "InChI=1S/C9H11NO2/c1-7(11)10-8-3-5-9(12-2)6-4-8/h3-6H,1-2H3,(H,10,11)/i2+1",
        "InChIKey": null,
        "Canonical SMILES": "O=C(NC1=CC=C(OC)C=C1)C",
        "Molecular Formula": "C<sub>9</sub>H<sub>11</sub>NO<sub>2</sub>",
        "Molecular Mass": "",
        "Melting Point": "127-129 °C"
    }
}