{
    "cas_no": "10588-01-9",
    "key_name": "Sodium dichromate",
    "cn_name": null,
    "alternate_name": "Chromic acid (H<sub>2</sub>Cr<sub>2</sub>O<sub>7</sub>), sodium salt (1:2);Dichromic acid (H<sub>2</sub>Cr<sub>2</sub>O<sub>7</sub>), disodium salt;Chromic acid (H<sub>2</sub>Cr<sub>2</sub>O<sub>7</sub>), disodium salt;Sodium dichromate(VI);Sodium dichromate;Sodium dichromate (Na<sub>2</sub>(Cr<sub>2</sub>O<sub>7</sub>));Disodium dichromate;Sodium chromate (Na<sub>2</sub>Cr<sub>2</sub>O<sub>7</sub>);Disodium dichromate (Na<sub>2</sub>Cr<sub>2</sub>O<sub>7</sub>);Disodium dichromium heptaoxide",
    "duplicated_cas_no": "12018-32-5;1018900-84-9;1088355-13-8;1391351-00-0",
    "SMILES": "O([Cr](O)(=O)=O)[Cr](O)(=O)=O.[Na]",
    "meta_data": {
        "InChI": "InChI=1S/2Cr.2Na.2H2O.5O/h;;;;2*1H2;;;;;/q2*+1;;;;;;;;;/p-2",
        "InChIKey": null,
        "Canonical SMILES": "[Na].O=[Cr](=O)(O)O[Cr](=O)(=O)O",
        "Molecular Formula": "Cr<sub>2</sub>H<sub>2</sub>O<sub>7</sub>.2Na",
        "Molecular Mass": "",
        "Melting Point": "356.7 °C",
        "Density": "2.52 g/cm³ @ Temp: 13 °C"
    }
}