{
    "cas_no": "103-01-5",
    "key_name": "<em>N</em>-Phenylglycine",
    "cn_name": "N-苯基甘氨酸;",
    "alternate_name": "Glycine, <em>N</em>-phenyl-;<em>N</em>-Phenylglycine;Anilinoacetic acid;(Phenylamino)acetic acid;Acetic acid, (phenylamino)-;<em>N</em>-(Phenylamino)acetic acid;NSC 83567;NPG;2-(Phenylamino)acetic acid;2-Anilinoacetic acid",
    "duplicated_cas_no": "",
    "SMILES": "N(CC(O)=O)C1=CC=CC=C1",
    "meta_data": {
        "InChI": "InChI=1S/C8H9NO2/c10-8(11)6-9-7-4-2-1-3-5-7/h1-5,9H,6H2,(H,10,11)",
        "InChIKey": null,
        "Canonical SMILES": "O=C(O)CNC=1C=CC=CC1",
        "Molecular Formula": "C<sub>8</sub>H<sub>9</sub>NO<sub>2</sub>",
        "Molecular Mass": "151.16",
        "Melting Point": "127.5 °C"
    }
}