{
    "cas_no": "2305-70-6",
    "key_name": "4-Hydroxy-3-quinolinecarbonitrile",
    "cn_name": null,
    "alternate_name": "3-Quinolinecarbonitrile, 4-hydroxy-;4-Hydroxy-3-quinolinecarbonitrile",
    "duplicated_cas_no": "",
    "SMILES": "OC=1C2=C(N=CC1C#N)C=CC=C2",
    "meta_data": {
        "InChI": "InChI=1S/C10H6N2O/c11-5-7-6-12-9-4-2-1-3-8(9)10(7)13/h1-4,6H,(H,12,13)",
        "InChIKey": null,
        "Canonical SMILES": "N#CC1=CN=C2C=CC=CC2=C1O",
        "Molecular Formula": "C<sub>10</sub>H<sub>6</sub>N<sub>2</sub>O",
        "Molecular Mass": "170.17",
        "Melting Point": "301 °C"
    }
}