{
    "cas_no": "5334-39-4",
    "key_name": "3-Methyl-4-nitro-1<em>H</em>-pyrazole",
    "cn_name": "3-甲基-4-硝基吡唑;",
    "alternate_name": "1<em>H</em>-Pyrazole, 3-methyl-4-nitro-;Pyrazole, 3-methyl-4-nitro-;Pyrazole, 3(<em>or</em> 5)-methyl-4-nitro-;3-Methyl-4-nitro-1<em>H</em>-pyrazole;3-Methyl-4-nitropyrazole;4-Nitro-3-methylpyrazole;NSC 1410",
    "duplicated_cas_no": "63779-48-6;114906-10-4;157895-03-9;1536200-34-6;1802990-60-8",
    "SMILES": "N(=O)(=O)C=1C(C)=NNC1",
    "meta_data": {
        "InChI": "InChI=1S/C4H5N3O2/c1-3-4(7(8)9)2-5-6-3/h2H,1H3,(H,5,6)",
        "InChIKey": null,
        "Canonical SMILES": "O=N(=O)C1=CNN=C1C",
        "Molecular Formula": "C<sub>4</sub>H<sub>5</sub>N<sub>3</sub>O<sub>2</sub>",
        "Molecular Mass": "127.10",
        "Melting Point": "133-134 °C"
    }
}