{
    "cas_no": "135-02-4",
    "key_name": "2-Methoxybenzaldehyde",
    "cn_name": "2-甲氧基苯甲醛;邻甲氧基苯甲醛;",
    "alternate_name": "Benzaldehyde, 2-methoxy-;<em>o</em>-Anisaldehyde;Benzaldehyde, <em>o</em>-methoxy-;2-Methoxybenzaldehyde;6-Methoxybenzaldehyde;<em>o</em>-Methoxybenzaldehyde;2-Anisaldehyde;2-Methoxybenzenecarboxaldehyde;Salicylaldehyde methyl ether;<em>o</em>-Formylanisole;2-Methoxyphenylformaldehyde;NC 064;NSC 58960;2-(Methyloxy)benzaldehyde",
    "duplicated_cas_no": "",
    "SMILES": "C(=O)C1=C(OC)C=CC=C1",
    "meta_data": {
        "InChI": "InChI=1S/C8H8O2/c1-10-8-5-3-2-4-7(8)6-9/h2-6H,1H3",
        "InChIKey": null,
        "Canonical SMILES": "O=CC=1C=CC=CC1OC",
        "Molecular Formula": "C<sub>8</sub>H<sub>8</sub>O<sub>2</sub>",
        "Molecular Mass": "136.15",
        "Boiling Point": "243.5 °C",
        "Melting Point": "37.5 °C",
        "Density": "1.0992 g/cm³ @ Temp: 50.8 °C"
    }
}