{
    "cas_no": "873-76-7",
    "key_name": "4-Chlorobenzyl alcohol",
    "cn_name": "4-氯苯甲醇;",
    "alternate_name": "Benzenemethanol, 4-chloro-;Benzyl alcohol, <em>p</em>-chloro-;4-Chlorobenzenemethanol;<em>p</em>-Chlorobenzyl alcohol;4-Chlorobenzyl alcohol;<em>p</em>-Chlorotoluol;4-Chlorophenylmethanol;NSC 5286;1-Chloro-4-(hydroxymethyl)benzene",
    "duplicated_cas_no": "185532-79-0",
    "SMILES": "C(O)C1=CC=C(Cl)C=C1",
    "meta_data": {
        "InChI": "InChI=1S/C7H7ClO/c8-7-3-1-6(5-9)2-4-7/h1-4,9H,5H2",
        "InChIKey": null,
        "Canonical SMILES": "ClC1=CC=C(C=C1)CO",
        "Molecular Formula": "C<sub>7</sub>H<sub>7</sub>ClO",
        "Molecular Mass": "142.58",
        "Boiling Point": "235 °C",
        "Melting Point": "75 °C"
    }
}