{
    "cas_no": "696-30-0",
    "key_name": "4-Isopropylpyridine",
    "cn_name": null,
    "alternate_name": "Pyridine, 4-(1-methylethyl)-;Pyridine, 4-isopropyl-;4-(1-Methylethyl)pyridine;4-Isopropylpyridine",
    "duplicated_cas_no": "",
    "SMILES": "C(C)(C)C=1C=CN=CC1",
    "meta_data": {
        "InChI": "InChI=1S/C8H11N/c1-7(2)8-3-5-9-6-4-8/h3-7H,1-2H3",
        "InChIKey": null,
        "Canonical SMILES": "N=1C=CC(=CC1)C(C)C",
        "Molecular Formula": "C<sub>8</sub>H<sub>11</sub>N",
        "Molecular Mass": "121.18",
        "Boiling Point": "178 °C",
        "Melting Point": "-54.9 °C"
    }
}