{
    "cas_no": "51100-54-0",
    "key_name": "1-Decen-3-ol",
    "cn_name": "1-癸烯-3-醇;",
    "alternate_name": "1-Decen-3-ol;3-Hydroxy-1-decene",
    "duplicated_cas_no": "74824-56-9",
    "SMILES": "C(CC(C=C)O)CCCCC",
    "meta_data": {
        "InChI": "InChI=1S/C10H20O/c1-3-5-6-7-8-9-10(11)4-2/h4,10-11H,2-3,5-9H2,1H3",
        "InChIKey": null,
        "Canonical SMILES": "OC(C=C)CCCCCCC",
        "Molecular Formula": "C<sub>10</sub>H<sub>20</sub>O",
        "Molecular Mass": "156.27",
        "Boiling Point": "78-79 °C @ Press: 1 Torr"
    }
}