{
    "cas_no": "97938-30-2",
    "key_name": "Sophoraflavanone G",
    "cn_name": null,
    "alternate_name": "4<em>H</em>-1-Benzopyran-4-one, 2-(2,4-dihydroxyphenyl)-2,3-dihydro-5,7-dihydroxy-8-[(2<em>R</em>)-5-methyl-2-(1-methylethenyl)-4-hexen-1-yl]-, (2<em>S</em>)-;4<em>H</em>-1-Benzopyran-4-one, 2-(2,4-dihydroxyphenyl)-2,3-dihydro-5,7-dihydroxy-8-[5-methyl-2-(1-methylethenyl)-4-hexenyl]-, [<em>S</em>-(<em>R</em>*,<em>S</em>*)]-;4<em>H</em>-1-Benzopyran-4-one, 2-(2,4-dihydroxyphenyl)-2,3-dihydro-5,7-dihydroxy-8-[(2<em>R</em>)-5-methyl-2-(1-methylethenyl)-4-hexenyl]-, (2<em>S</em>)-;(2<em>S</em>)-2-(2,4-Dihydroxyphenyl)-2,3-dihydro-5,7-dihydroxy-8-[(2<em>R</em>)-5-methyl-2-(1-methylethenyl)-4-hexen-1-yl]-4<em>H</em>-1-benzopyran-4-one;(-)-Vexibinol;Vexibinol;Sophoraflavanone G;Norkurarinone;Kushenol F;Kushnol F",
    "duplicated_cas_no": "99211-14-0;124858-43-1;34981-24-3;36545-61-6;352220-39-4",
    "SMILES": "C([C@@H](CC=C(C)C)C(C)=C)C1=C2C(C(=O)C[C@H](O2)C3=C(O)C=C(O)C=C3)=C(O)C=C1O",
    "meta_data": {
        "InChI": "InChI=1S/C25H28O6/c1-13(2)5-6-15(14(3)4)9-18-20(28)11-21(29)24-22(30)12-23(31-25(18)24)17-8-7-16(26)10-19(17)27/h5,7-8,10-11,15,23,26-29H,3,6,9,12H2,1-2,4H3/t15-,23+/m1/s1",
        "InChIKey": null,
        "Canonical SMILES": "O=C1C2=C(O)C=C(O)C(=C2OC(C3=CC=C(O)C=C3O)C1)CC(C(=C)C)CC=C(C)C",
        "Molecular Formula": "C<sub>25</sub>H<sub>28</sub>O<sub>6</sub>",
        "Molecular Mass": "424.49",
        "Melting Point": "178-180 °C"
    }
}