{
    "cas_no": "120-18-3",
    "key_name": "2-Naphthalenesulfonic acid",
    "cn_name": "2-萘磺酸;萘-2-磺酸;",
    "alternate_name": "2-Naphthalenesulfonic acid;β-Naphthalenesulfonic acid;β-Naphthylsulfonic acid;2-Naphthylsulfonic acid;2-Sulfonaphthalene;Dirinal NSK",
    "duplicated_cas_no": "54257-18-0;2756222-55-4",
    "SMILES": "S(=O)(=O)(O)C1=CC2=C(C=C1)C=CC=C2",
    "meta_data": {
        "InChI": "InChI=1S/C10H8O3S/c11-14(12,13)10-6-5-8-3-1-2-4-9(8)7-10/h1-7H,(H,11,12,13)",
        "InChIKey": null,
        "Canonical SMILES": "O=S(=O)(O)C=1C=CC=2C=CC=CC2C1",
        "Molecular Formula": "C<sub>10</sub>H<sub>8</sub>O<sub>3</sub>S",
        "Molecular Mass": "208.23",
        "Melting Point": "91 °C"
    }
}