{
    "cas_no": "105-30-6",
    "key_name": "2-Methyl-1-pentanol",
    "cn_name": "甲基异丁甲醇;2-甲基-1-戊醇;",
    "alternate_name": "1-Pentanol, 2-methyl-;2-Methyl-1-pentanol;2-Methylpentanol-1;2-MPOH;(±)-2-Methylpentanol;(±)-2-Methyl-1-pentanol;NSC 6250",
    "duplicated_cas_no": "17092-54-5",
    "SMILES": "C(CCC)(CO)C",
    "meta_data": {
        "InChI": "InChI=1S/C6H14O/c1-3-4-6(2)5-7/h6-7H,3-5H2,1-2H3",
        "InChIKey": null,
        "Canonical SMILES": "OCC(C)CCC",
        "Molecular Formula": "C<sub>6</sub>H<sub>14</sub>O",
        "Molecular Mass": "102.17",
        "Boiling Point": "148 °C @ Press: 760 Torr",
        "Density": "0.8263 g/cm³ @ Temp: 20 °C"
    }
}