{
    "cas_no": "14251-72-0",
    "key_name": "Butyltrimethylammonium chloride",
    "cn_name": null,
    "alternate_name": "1-Butanaminium, <em>N</em>,<em>N</em>,<em>N</em>-trimethyl-, chloride (1:1);Ammonium, butyltrimethyl-, chloride;1-Butanaminium, <em>N</em>,<em>N</em>,<em>N</em>-trimethyl-, chloride;Butyltrimethylammonium chloride;<em>N</em>-Butyl-<em>N</em>,<em>N</em>,<em>N</em>-trimethylammonium chloride;Trimethylbutylammonium chloride",
    "duplicated_cas_no": "",
    "SMILES": "C([N+](C)(C)C)CCC.[Cl-]",
    "meta_data": {
        "InChI": "InChI=1S/C7H18N.ClH/c1-5-6-7-8(2,3)4;/h5-7H2,1-4H3;1H/q+1;/p-1",
        "InChIKey": null,
        "Canonical SMILES": "[Cl-].CCCC[N+](C)(C)C",
        "Molecular Formula": "C<sub>7</sub>H<sub>18</sub>N.Cl",
        "Molecular Mass": "",
        "Melting Point": "223.7-224.0 °C"
    }
}