{
    "cas_no": "603-48-5",
    "key_name": "Leucocrystal Violet",
    "cn_name": "结晶紫;",
    "alternate_name": "Benzenamine, 4,4′,4′′-methylidynetris[<em>N</em>,<em>N</em>-dimethyl-;Aniline, 4,4′,4′′-methylidynetris[<em>N</em>,<em>N</em>-dimethyl-;<em>p</em>,<em>p</em>′,<em>p</em>′′-methylidynetris[<em>N</em>,<em>N</em>-dimethyl-Aniline;4,4′,4′′-Methylidynetris[<em>N</em>,<em>N</em>-dimethylbenzenamine];C.I. Basic Violet 3, leuco;4,4′,4′′-(Hexamethyltriamino)triphenylmethane;Leucomethyl green;Leucocrystal Violet;4,4′,4′′-Methylidynetris(<em>N</em>,<em>N</em>-dimethylaniline);Tris[4-(dimethylamino)phenyl]methane;4,4′,4′′-Tris(<em>N</em>,<em>N</em>-dimethylaminophenyl)methane;Crystal violet leuco base;Leucogentian violet;Leuco Basic Violet 3;A-DMA;LCV;NSC 7338;Leuco Crystal Violet",
    "duplicated_cas_no": "11098-97-8;161051-62-3",
    "SMILES": "C(C1=CC=C(N(C)C)C=C1)(C2=CC=C(N(C)C)C=C2)C3=CC=C(N(C)C)C=C3",
    "meta_data": {
        "InChI": "InChI=1S/C25H31N3/c1-26(2)22-13-7-19(8-14-22)25(20-9-15-23(16-10-20)27(3)4)21-11-17-24(18-12-21)28(5)6/h7-18,25H,1-6H3",
        "InChIKey": null,
        "Canonical SMILES": "C=1C=C(C=CC1N(C)C)C(C2=CC=C(C=C2)N(C)C)C3=CC=C(C=C3)N(C)C",
        "Molecular Formula": "C<sub>25</sub>H<sub>31</sub>N<sub>3</sub>",
        "Molecular Mass": "373.53",
        "Melting Point": "173 °C"
    }
}