{
    "cas_no": "588-67-0",
    "key_name": "Benzyl butyl ether",
    "cn_name": null,
    "alternate_name": "Benzene, (butoxymethyl)-;Ether, benzyl butyl;(Butoxymethyl)benzene;Benzyl butyl ether;Butyl benzyl ether;Benzyl <em>n</em>-butyl ether;<em>n</em>-Butyl benzyl ether;NSC 8476",
    "duplicated_cas_no": "",
    "SMILES": "C(OCCCC)C1=CC=CC=C1",
    "meta_data": {
        "InChI": "InChI=1S/C11H16O/c1-2-3-9-12-10-11-7-5-4-6-8-11/h4-8H,2-3,9-10H2,1H3",
        "InChIKey": null,
        "Canonical SMILES": "O(CC=1C=CC=CC1)CCCC",
        "Molecular Formula": "C<sub>11</sub>H<sub>16</sub>O",
        "Molecular Mass": "164.24",
        "Boiling Point": "223 °C",
        "Density": "0.918 g/cm³ @ Temp: 22 °C"
    }
}