{
    "cas_no": "12025-39-7",
    "key_name": "Germanium telluride (GeTe)",
    "cn_name": "碲化锗;",
    "alternate_name": "Germanium telluride (GeTe);Germanous telluride;Germanium monotelluride;Germanium telluride;Germanium telluride (Ge<sub>0.5</sub>Te<sub>0.5</sub>)",
    "duplicated_cas_no": "11073-85-1;26722-44-1;51682-06-5;1290115-19-3",
    "SMILES": "[Ge]=[Te]",
    "meta_data": {
        "InChI": "InChI=1S/GeTe/c1-2",
        "InChIKey": null,
        "Canonical SMILES": "[Ge]=[Te]",
        "Molecular Formula": "GeTe",
        "Molecular Mass": "",
        "Melting Point": "725 °C",
        "Density": "6.2 g/cm³"
    }
}