{
    "cas_no": "29741-10-4",
    "key_name": "Luteolin 7-<em>O</em>-glucuronide",
    "cn_name": null,
    "alternate_name": "β-<span class=\"text-smallcaps\">D</span>-Glucopyranosiduronic acid, 2-(3,4-dihydroxyphenyl)-5-hydroxy-4-oxo-4<em>H</em>-1-benzopyran-7-yl;Glucopyranosiduronic acid, 2-(3,4-dihydroxyphenyl)-5-hydroxy-4-oxo-4<em>H</em>-1-benzopyran-7-yl, β-<span class=\"text-smallcaps\">D</span>-;Flavone, 3′,4′,5,7-tetrahydroxy-, 7-β-<span class=\"text-smallcaps\">D</span>-glucopyranuronoside;2-(3,4-Dihydroxyphenyl)-5-hydroxy-4-oxo-4<em>H</em>-1-benzopyran-7-yl β-<span class=\"text-smallcaps\">D</span>-glucopyranosiduronic acid;Luteolin 7-glucuronide;Luteolin-7-β-<span class=\"text-smallcaps\">D</span>-glucuronide;Luteolin 7-<em>O</em>-β-<span class=\"text-smallcaps\">D</span>-glucuronide;Luteolin 7-<em>O</em>-glucuronide;Luteolin 7-<em>O</em>-β-glucuronide;Luteolin 7-<em>O</em>-β-<span class=\"text-smallcaps\">D</span>-glucuronopyranoside;Cyanidenon-7-<em>O</em>-β-<span class=\"text-smallcaps\">D</span>-glucuronic acid;Luteolin 7-<em>O</em>-β-glucuronopyranoside;Luteolin 7-<em>O</em>-beta-<span class=\"text-smallcaps\">D</span>-glucuronide;Luteolin-7-<em>O</em>-β-<span class=\"text-smallcaps\">D</span>-glucopyranosiduronic acid",
    "duplicated_cas_no": "100455-85-4;38934-14-4;52088-97-8;73285-56-0;478979-14-5",
    "SMILES": "O=C1C=2C(OC(=C1)C3=CC(O)=C(O)C=C3)=CC(O[C@@H]4O[C@H](C(O)=O)[C@@H](O)[C@H](O)[C@H]4O)=CC2O",
    "meta_data": {
        "InChI": "InChI=1S/C21H18O12/c22-9-2-1-7(3-10(9)23)13-6-12(25)15-11(24)4-8(5-14(15)32-13)31-21-18(28)16(26)17(27)19(33-21)20(29)30/h1-6,16-19,21-24,26-28H,(H,29,30)/t16-,17-,18+,19-,21+/m0/s1",
        "InChIKey": null,
        "Canonical SMILES": "O=C(O)C1OC(OC2=CC(O)=C3C(=O)C=C(OC3=C2)C=4C=CC(O)=C(O)C4)C(O)C(O)C1O",
        "Molecular Formula": "C<sub>21</sub>H<sub>18</sub>O<sub>12</sub>",
        "Molecular Mass": "462.36",
        "Melting Point": "242-244 °C"
    }
}