{
    "cas_no": "84-75-3",
    "key_name": "Dihexyl phthalate",
    "cn_name": "邻苯二甲酸二己酯;1,2-苯二甲酸二己酯;邻酞酸二己酯;",
    "alternate_name": "1,2-Benzenedicarboxylic acid, 1,2-dihexyl ester;Phthalic acid, dihexyl ester;1,2-Benzenedicarboxylic acid, dihexyl ester;Dihexyl phthalate;Di-<em>n</em>-hexyl phthalate;Bis(<em>n</em>-hexyl) phthalate;Jayflex DHP;NSC 4817",
    "duplicated_cas_no": "",
    "SMILES": "C(OCCCCCC)(=O)C1=C(C(OCCCCCC)=O)C=CC=C1",
    "meta_data": {
        "InChI": "InChI=1S/C20H30O4/c1-3-5-7-11-15-23-19(21)17-13-9-10-14-18(17)20(22)24-16-12-8-6-4-2/h9-10,13-14H,3-8,11-12,15-16H2,1-2H3",
        "InChIKey": null,
        "Canonical SMILES": "O=C(OCCCCCC)C=1C=CC=CC1C(=O)OCCCCCC",
        "Molecular Formula": "C<sub>20</sub>H<sub>30</sub>O<sub>4</sub>",
        "Molecular Mass": "334.45",
        "Boiling Point": "210 °C @ Press: 5 Torr",
        "Melting Point": "-58 °C",
        "Density": "0.995 g/cm³"
    }
}