{
    "cas_no": "3004-51-1",
    "key_name": "2-Propen-1-aminium, <em>N</em>,<em>N</em>,<em>N</em>-trimethyl-, bromide (1:1)",
    "cn_name": "烯丙基三甲基溴化铵;烯丙基三甲胺溴化物;",
    "alternate_name": "2-Propen-1-aminium, <em>N</em>,<em>N</em>,<em>N</em>-trimethyl-, bromide (1:1);Ammonium, allyltrimethyl-, bromide;Allyltrimethylammonium bromide;2-Propen-1-aminium, <em>N</em>,<em>N</em>,<em>N</em>-trimethyl-, bromide;AMAB;<em>N</em>-Allyltrimethylammonium bromide",
    "duplicated_cas_no": "",
    "SMILES": "C([N+](C)(C)C)C=C.[Br-]",
    "meta_data": {
        "InChI": "InChI=1S/C6H14N.BrH/c1-5-6-7(2,3)4;/h5H,1,6H2,2-4H3;1H/q+1;/p-1",
        "InChIKey": null,
        "Canonical SMILES": "[Br-].C=CC[N+](C)(C)C",
        "Molecular Formula": "C<sub>6</sub>H<sub>14</sub>N.Br",
        "Molecular Mass": "",
        "Melting Point": "168-169 °C"
    }
}