{
    "cas_no": "6258-63-5",
    "key_name": "2-Thiophenemethanethiol",
    "cn_name": "2-噻吩甲基硫醇;",
    "alternate_name": "2-Thiophenemethanethiol;Thenyl mercaptan;2-Thienylmethanethiol;2-(Mercaptomethyl)thiophene;2-Thienylmethyl mercaptan;(Thiophen-2-yl)methanethiol",
    "duplicated_cas_no": "",
    "SMILES": "C(S)C1=CC=CS1",
    "meta_data": {
        "InChI": "InChI=1S/C5H6S2/c6-4-5-2-1-3-7-5/h1-3,6H,4H2",
        "InChIKey": null,
        "Canonical SMILES": "SCC=1SC=CC1",
        "Molecular Formula": "C<sub>5</sub>H<sub>6</sub>S<sub>2</sub>",
        "Molecular Mass": "130.23",
        "Boiling Point": "181.5-183.5 °C"
    }
}