{
    "cas_no": "503-17-3",
    "key_name": "2-Butyne",
    "cn_name": null,
    "alternate_name": "2-Butyne;2-Butine;Dimethylacetylene",
    "duplicated_cas_no": "",
    "SMILES": "C(#CC)C",
    "meta_data": {
        "InChI": "InChI=1S/C4H6/c1-3-4-2/h1-2H3",
        "InChIKey": null,
        "Canonical SMILES": "C(#CC)C",
        "Molecular Formula": "C<sub>4</sub>H<sub>6</sub>",
        "Molecular Mass": "54.09",
        "Boiling Point": "26.9 °C",
        "Melting Point": "-32.3 °C",
        "Density": "0.688 g/cm³ @ Temp: 25 °C"
    }
}