{
    "cas_no": "1490-04-6",
    "key_name": "Menthol",
    "cn_name": "薄荷脑;",
    "alternate_name": "Cyclohexanol, 5-methyl-2-(1-methylethyl)-;Menthol;5-Methyl-2-(1-methylethyl)cyclohexanol;<em>p</em>-Menthan-3-ol;2-Isopropyl-5-methylcyclohexanol;3-Hydroxy-<em>p</em>-menthane;1-Methyl-4-isopropyl-3-cyclohexanol;Menthyl alcohol;2-Isopropyl-5-methylcyclohexan-1-ol;5-Methyl-2-isopropylcyclohexanol;2-(2-Propyl)-5-methyl-1-cyclohexanol;MeSH ID: D008610",
    "duplicated_cas_no": "",
    "SMILES": "C(C)(C)C1C(O)CC(C)CC1",
    "meta_data": {
        "InChI": "InChI=1S/C10H20O/c1-7(2)9-5-4-8(3)6-10(9)11/h7-11H,4-6H2,1-3H3",
        "InChIKey": null,
        "Canonical SMILES": "OC1CC(C)CCC1C(C)C",
        "Molecular Formula": "C<sub>10</sub>H<sub>20</sub>O",
        "Molecular Mass": "156.27",
        "Boiling Point": "87 °C @ Press: 8 Torr",
        "Melting Point": "33.5 °C",
        "Density": "0.9084 g/cm³ @ Temp: 20 °C"
    }
}