{
    "cas_no": "2823-42-9",
    "key_name": "(6α,11β,16α)-21-(Acetyloxy)-6,9-difluoro-11,17-dihydroxy-16-methylpregna-1,4-diene-3,20-dione",
    "cn_name": "双氟美松醋酸酯;",
    "alternate_name": "Pregna-1,4-diene-3,20-dione, 21-(acetyloxy)-6,9-difluoro-11,17-dihydroxy-16-methyl-, (6α,11β,16α)-;Pregna-1,4-diene-3,20-dione, 6α,9-difluoro-11β,17,21-trihydroxy-16α-methyl-, 21-acetate;(6α,11β,16α)-21-(Acetyloxy)-6,9-difluoro-11,17-dihydroxy-16-methylpregna-1,4-diene-3,20-dione;Flumethasone acetate;6α-Fluorodexamethasone 21-acetate;Flumethasone 21-acetate;Flumetasone 21-acetate",
    "duplicated_cas_no": "",
    "SMILES": "C[C@@]12[C@]([C@]3([C@@](F)([C@]4(C)C([C@@H](F)C3)=CC(=O)C=C4)[C@@H](O)C1)[H])(C[C@@H](C)[C@@]2(C(COC(C)=O)=O)O)[H]",
    "meta_data": {
        "InChI": "InChI=1S/C24H30F2O6/c1-12-7-15-16-9-18(25)17-8-14(28)5-6-21(17,3)23(16,26)19(29)10-22(15,4)24(12,31)20(30)11-32-13(2)27/h5-6,8,12,15-16,18-19,29,31H,7,9-11H2,1-4H3/t12-,15+,16+,18+,19+,21+,22+,23+,24+/m1/s1",
        "InChIKey": null,
        "Canonical SMILES": "O=C1C=CC2(C(=C1)C(F)CC3C4CC(C)C(O)(C(=O)COC(=O)C)C4(C)CC(O)C32F)C",
        "Molecular Formula": "C<sub>24</sub>H<sub>30</sub>F<sub>2</sub>O<sub>6</sub>",
        "Molecular Mass": "452.49",
        "Melting Point": "260-264 °C"
    }
}