{
    "cas_no": "70-47-3",
    "key_name": "(-)-Asparagine",
    "cn_name": "L-天冬酰胺;L-天门冬酰胺;2-氨基-3-氨基甲酰丙酸;",
    "alternate_name": "<span class=\"text-smallcaps\">L</span>-Asparagine;Asparagine, <span class=\"text-smallcaps\">L</span>-;Agedoite;Altheine;α-Aminosuccinamic acid;<span class=\"text-smallcaps\">L</span>-β-Asparagine;Asparagine acid;Asparamide;Aspartamic acid;Aspartic acid amide;Aspartic acid β-amide;Asparagine;Butanoic acid, 2,4-diamino-4-oxo-, (<em>S</em>)-;(-)-Asparagine;Asn;(<em>S</em>)-2,4-Diamino-4-oxobutanoic acid;<em>l</em>-Asparagine;(<em>S</em>)-Asparagine;<span class=\"text-smallcaps\">L</span>-2,4-Diamino-4-oxobutanoic acid;<span class=\"text-smallcaps\">L</span>-Aspartamine;Crystal VI;NSC 82391;(2S)-2-Amino-3-carbamoylpropanoic acid;(2S)-4-Amino-2-azaniumyl-4-oxobutanoate;MeSH ID: D001216",
    "duplicated_cas_no": "328-41-6;7006-34-0;32640-57-6",
    "SMILES": "[C@H](CC(N)=O)(C(O)=O)N",
    "meta_data": {
        "InChI": "InChI=1S/C4H8N2O3/c5-2(4(8)9)1-3(6)7/h2H,1,5H2,(H2,6,7)(H,8,9)/t2-/m0/s1",
        "InChIKey": null,
        "Canonical SMILES": "O=C(O)C(N)CC(=O)N",
        "Molecular Formula": "C<sub>4</sub>H<sub>8</sub>N<sub>2</sub>O<sub>3</sub>",
        "Molecular Mass": "132.12",
        "Melting Point": "234-235 °C"
    }
}