{
    "cas_no": "2142-66-7",
    "key_name": "1-[1,1′-Biphenyl]-2-ylethanone",
    "cn_name": null,
    "alternate_name": "Ethanone, 1-[1,1′-biphenyl]-2-yl-;Acetophenone, 2′-phenyl-;1-[1,1′-Biphenyl]-2-ylethanone;2-Acetylbiphenyl;<em>o</em>-Phenylacetophenone;2-Acetyl-1,1′-biphenyl;1-Biphenyl-2-ylethanone;<em>o</em>-Acetylphenyl benzene;1-(2-Phenylphenyl)ethan-1-one;2′-Phenylacetophenone",
    "duplicated_cas_no": "",
    "SMILES": "C(C)(=O)C1=C(C=CC=C1)C2=CC=CC=C2",
    "meta_data": {
        "InChI": "InChI=1S/C14H12O/c1-11(15)13-9-5-6-10-14(13)12-7-3-2-4-8-12/h2-10H,1H3",
        "InChIKey": null,
        "Canonical SMILES": "O=C(C=1C=CC=CC1C=2C=CC=CC2)C",
        "Molecular Formula": "C<sub>14</sub>H<sub>12</sub>O",
        "Molecular Mass": "196.24",
        "Boiling Point": "157.5-158 °C @ Press: 11 Torr",
        "Melting Point": "56-56.5 °C"
    }
}