{
    "cas_no": "625-95-6",
    "key_name": "3-Iodotoluene",
    "cn_name": "间碘甲苯;",
    "alternate_name": "Benzene, 1-iodo-3-methyl-;Toluene, <em>m</em>-iodo-;1-Iodo-3-methylbenzene;<em>m</em>-Methyliodobenzene;<em>m</em>-Iodotoluene;<em>m</em>-Tolyl iodide;3-Iodotoluene;3-Methylphenyl iodide;3-Methyliodobenzene;<em>m</em>-Methylphenyl iodide;m-Iodotoluene;NSC 3775;3-Tolyl iodide;3-Methyl-1-iodobenzene;Iodo-3-methylbenzene",
    "duplicated_cas_no": "",
    "SMILES": "CC1=CC(I)=CC=C1",
    "meta_data": {
        "InChI": "InChI=1S/C7H7I/c1-6-3-2-4-7(8)5-6/h2-5H,1H3",
        "InChIKey": null,
        "Canonical SMILES": "IC1=CC=CC(=C1)C",
        "Molecular Formula": "C<sub>7</sub>H<sub>7</sub>I",
        "Molecular Mass": "218.04",
        "Boiling Point": "213 °C",
        "Melting Point": "-27.2 °C",
        "Density": "1.6981 g/cm³"
    }
}