{
    "cas_no": "5221-53-4",
    "key_name": "2-Dimethylamino-6-hydroxy-4-methyl-5-butylpyrimidine",
    "cn_name": null,
    "alternate_name": "4(3<em>H</em>)-Pyrimidinone, 5-butyl-2-(dimethylamino)-6-methyl-;4(1<em>H</em>)-Pyrimidinone, 5-butyl-2-(dimethylamino)-6-methyl-;4-Pyrimidinol, 5-butyl-2-(dimethylamino)-6-methyl-;5-Butyl-2-(dimethylamino)-6-methyl-4(3<em>H</em>)-pyrimidinone;5-Butyl-2-dimethylamino-4-hydroxy-6-methylpyrimidine;Dimethirimol;Methyrimol;Milcurb;PP 675;Dimethyrimol;Melkeb;2-Dimethylamino-6-hydroxy-4-methyl-5-butylpyrimidine;NSC 263490;2-Dimethylamino-6-methyl-5-<em>n</em>-butyl-4-hydroxy-pyrimidine",
    "duplicated_cas_no": "19810-50-5;1135443-56-9",
    "SMILES": "C(CCC)C1=C(C)NC(N(C)C)=NC1=O",
    "meta_data": {
        "InChI": "InChI=1S/C11H19N3O/c1-5-6-7-9-8(2)12-11(14(3)4)13-10(9)15/h5-7H2,1-4H3,(H,12,13,15)",
        "InChIKey": null,
        "Canonical SMILES": "O=C1N=C(NC(=C1CCCC)C)N(C)C",
        "Molecular Formula": "C<sub>11</sub>H<sub>19</sub>N<sub>3</sub>O",
        "Molecular Mass": "209.29",
        "Melting Point": "102 °C"
    }
}