{
    "cas_no": "51276-47-2",
    "key_name": "Glufosinate",
    "cn_name": null,
    "alternate_name": "Butanoic acid, 2-amino-4-(hydroxymethylphosphinyl)-;2-Amino-4-(hydroxymethylphosphinyl)butanoic acid;3-Amino-3-carboxypropylmethylphosphinic acid;Glufosinate;HOE 35956;<span class=\"text-smallcaps\">DL</span>-2-Amino-4-(methylphosphino)butanoic acid;<span class=\"text-smallcaps\">DL</span>-Phosphinothricin;(±)-Phosphinothricin;2-Amino-4-[hydroxy(methyl)phosphoryl]butanoic acid",
    "duplicated_cas_no": "126633-48-5;53369-07-6",
    "SMILES": "C(C(C(O)=O)N)CP(C)(=O)O",
    "meta_data": {
        "InChI": "InChI=1S/C5H12NO4P/c1-11(9,10)3-2-4(6)5(7)8/h4H,2-3,6H2,1H3,(H,7,8)(H,9,10)",
        "InChIKey": null,
        "Canonical SMILES": "O=C(O)C(N)CCP(=O)(O)C",
        "Molecular Formula": "C<sub>5</sub>H<sub>12</sub>NO<sub>4</sub>P",
        "Molecular Mass": "181.13",
        "Melting Point": "230 °C (decomp)"
    }
}