{
    "cas_no": "18800-30-1",
    "key_name": "1-Bromo-4-(2-bromoethoxy)benzene",
    "cn_name": "1-(2-溴氧基)-4-溴苯;",
    "alternate_name": "Benzene, 1-bromo-4-(2-bromoethoxy)-;Phenetole, <em>p</em>,β-dibromo-;1-Bromo-4-(2-bromoethoxy)benzene;2-Bromoethyl <em>p</em>-bromophenyl ether;1-Bromo-2-(4-bromophenoxy)ethane;2-Bromoethyl 4-bromophenyl ether;β,4-Dibromophenetole;NSC 409402;2-(4-Bromophenyl)ethyl dithiocarbamate;β-(4-Bromophenoxy)ethyl bromide;2-(4-Bromophenoxy)ethyl bromide",
    "duplicated_cas_no": "",
    "SMILES": "O(CCBr)C1=CC=C(Br)C=C1",
    "meta_data": {
        "InChI": "InChI=1S/C8H8Br2O/c9-5-6-11-8-3-1-7(10)2-4-8/h1-4H,5-6H2",
        "InChIKey": null,
        "Canonical SMILES": "BrC1=CC=C(OCCBr)C=C1",
        "Molecular Formula": "C<sub>8</sub>H<sub>8</sub>Br<sub>2</sub>O",
        "Molecular Mass": "279.96",
        "Boiling Point": "165 °C @ Press: 16 Torr",
        "Melting Point": "56-57 °C"
    }
}