{
    "cas_no": "917-61-3",
    "key_name": "Sodium cyanate",
    "cn_name": "氰酸钠;",
    "alternate_name": "Cyanic acid, sodium salt (1:1);Sodium cyanate;Cyanic acid, sodium salt;Zassol;Sodium cyanate (NaOCN);Sodium isocyanate;Sodium cyanate (NaNCO);Sodium, (cyanato-κ<em>N</em>)-",
    "duplicated_cas_no": "16910-85-3;64256-36-6;159334-16-4;2410781-08-5",
    "SMILES": "C(#N)O.[Na]",
    "meta_data": {
        "InChI": "InChI=1S/CHNO.Na/c2-1-3;/h3H;",
        "InChIKey": null,
        "Canonical SMILES": "[Na].N#CO",
        "Molecular Formula": "CHNO.Na",
        "Molecular Mass": "",
        "Melting Point": "550 °C",
        "Density": "1.893 g/cm³ @ Temp: 204 °C"
    }
}