{
    "cas_no": "81-54-9",
    "key_name": "Purpurin",
    "cn_name": "1,2,4-三羟蒽醌;红紫素;紫素;",
    "alternate_name": "9,10-Anthracenedione, 1,2,4-trihydroxy-;Purpurin;Anthraquinone, 1,2,4-trihydroxy-;1,2,4-Trihydroxy-9,10-anthracenedione;C.I. 58205;C.I. 75410;Hydroxylizaric acid;Smoke Brown G;Verantin;Purpurine;Purpurin (dye);1,2,4-Trihydroxyanthraquinone;1,2,4-Trihydroxy-9,10-anthraquinone;NSC 10447;Purprin;1,2,4-Trihydroxy-9,10-dihydroanthracene-9,10-dione;1,2,4-Trihydroxyanthracenedione",
    "duplicated_cas_no": "",
    "SMILES": "O=C1C=2C(C(=O)C=3C1=CC=CC3)=C(O)C=C(O)C2O",
    "meta_data": {
        "InChI": "InChI=1S/C14H8O5/c15-8-5-9(16)14(19)11-10(8)12(17)6-3-1-2-4-7(6)13(11)18/h1-5,15-16,19H",
        "InChIKey": null,
        "Canonical SMILES": "O=C1C=2C=CC=CC2C(=O)C=3C(O)=C(O)C=C(O)C13",
        "Molecular Formula": "C<sub>14</sub>H<sub>8</sub>O<sub>5</sub>",
        "Molecular Mass": "256.21",
        "Melting Point": "259 °C"
    }
}