{
    "cas_no": "75-65-0",
    "key_name": "<em>tert</em>-Butanol",
    "cn_name": "叔丁醇;特丁醇;2-甲基-2-丙醇;三甲基甲醇;",
    "alternate_name": "2-Propanol, 2-methyl-;<em>tert</em>-Butyl alcohol;2-Methyl-2-propanol;<em>tert</em>-Butanol;1,1-Dimethylethanol;Trimethylcarbinol;Trimethylmethanol;<em>t</em>-Butanol;t-Butanol;2-Hydroxy-2-methylpropane;Tert-Bu-OH",
    "duplicated_cas_no": "",
    "SMILES": "C(C)(C)(C)O",
    "meta_data": {
        "InChI": "InChI=1S/C4H10O/c1-4(2,3)5/h5H,1-3H3",
        "InChIKey": null,
        "Canonical SMILES": "OC(C)(C)C",
        "Molecular Formula": "C<sub>4</sub>H<sub>10</sub>O",
        "Molecular Mass": "74.12",
        "Boiling Point": "82.41 °C",
        "Melting Point": "25.7 °C",
        "Density": "0.8 g/cm³"
    }
}