{
    "cas_no": "763-69-9",
    "key_name": "Ethyl 3-ethoxypropionate",
    "cn_name": "3-乙氧基丙酸乙酯;",
    "alternate_name": "Propanoic acid, 3-ethoxy-, ethyl ester;Propionic acid, 3-ethoxy-, ethyl ester;Ethyl β-ethoxypropionate;Ethyl 3-ethoxypropionate;3-Ethoxypropionic acid ethyl ester;Ethyl 3-ethoxypropanoate;Ethyl 4-oxahexanoate;Ektapro EEP;Ucar Ester EEP;NSC 8870;Sankio EEP;Ethyl ethoxypropionate;Solfine EP;β-Ethoxypropionic acid ethyl ester;Powerblox SV 33",
    "duplicated_cas_no": "1391911-67-3",
    "SMILES": "C(C(OCC)=O)COCC",
    "meta_data": {
        "InChI": "InChI=1S/C7H14O3/c1-3-9-6-5-7(8)10-4-2/h3-6H2,1-2H3",
        "InChIKey": null,
        "Canonical SMILES": "O=C(OCC)CCOCC",
        "Molecular Formula": "C<sub>7</sub>H<sub>14</sub>O<sub>3</sub>",
        "Molecular Mass": "146.18",
        "Boiling Point": "49.5-49.8 °C @ Press: 7 Torr",
        "Density": "0.9536 g/cm³ @ Temp: 15 °C"
    }
}