{
    "cas_no": "13115-71-4",
    "key_name": "Glycyl-<span class=\"text-smallcaps\">L</span>-glutamine",
    "cn_name": "甘氨酰-L-谷氨酰胺一水合物;N-甘氨酰-L-谷氨酰胺;",
    "alternate_name": "<span class=\"text-smallcaps\">L</span>-Glutamine, glycyl-;Glutamine, <em>N</em><sup>2</sup>-glycyl-, <span class=\"text-smallcaps\">L</span>-;<span class=\"text-smallcaps\">L</span>-Glutamine, <em>N</em><sup>2</sup>-glycyl-;Glycyl-<span class=\"text-smallcaps\">L</span>-glutamine;105: PN: EP2161028 PAGE: 10 claimed protein;101: PN: WO2011146121 PAGE: 115 claimed sequence;143: PN: US20130123467 SEQID: 172 claimed protein;(2S)-2-(2-Aminoacetamido)-4-carbamoylbutanoic acid;(<em>S</em>)-5-Amino-2-(2-aminoacetamido)-5-oxopentanoic acid;(2S)-5-Amino-2-[(2-azaniumylacetyl)amino]-5-oxopentanoate;23: PN: WO2020009548 SEQID: 23 claimed protein;15: PN: WO2021055880 SEQID: 16 claimed protein;23: PN: WO2021211467 SEQID: 176 claimed sequence;6: PN: WO2023160499 SEQID: 6 claimed sequence",
    "duplicated_cas_no": "",
    "SMILES": "[C@H](NC(CN)=O)(CCC(N)=O)C(O)=O",
    "meta_data": {
        "InChI": "InChI=1S/C7H13N3O4/c8-3-6(12)10-4(7(13)14)1-2-5(9)11/h4H,1-3,8H2,(H2,9,11)(H,10,12)(H,13,14)/t4-/m0/s1",
        "InChIKey": null,
        "Canonical SMILES": "O=C(N)CCC(NC(=O)CN)C(=O)O",
        "Molecular Formula": "C<sub>7</sub>H<sub>13</sub>N<sub>3</sub>O<sub>4</sub>",
        "Molecular Mass": "203.20",
        "Melting Point": "202-203 °C"
    }
}