{
    "cas_no": "95233-18-4",
    "key_name": "Atovaquone",
    "cn_name": null,
    "alternate_name": "1,4-Naphthalenedione, 2-[<em>trans</em>-4-(4-chlorophenyl)cyclohexyl]-3-hydroxy-;1,4-Naphthalenedione, 2-[4-(4-chlorophenyl)cyclohexyl]-3-hydroxy-, <em>trans</em>-;2-[<em>trans</em>-4-(4-Chlorophenyl)cyclohexyl]-3-hydroxy-1,4-naphthalenedione;566C80;566C;Atovaquone;Mepron;Mepron (antipneumocystic);BW 556C-80;BW 566C;Acuvel;Wellvone;Meprone;Samtirel;MeSH ID: D053626",
    "duplicated_cas_no": "",
    "SMILES": "O=C1C(=C(O)C(=O)C=2C1=CC=CC2)[C@H]3CC[C@@H](CC3)C4=CC=C(Cl)C=C4",
    "meta_data": {
        "InChI": "InChI=1/C22H19ClO3/c23-16-11-9-14(10-12-16)13-5-7-15(8-6-13)19-20(24)17-3-1-2-4-18(17)21(25)22(19)26/h1-4,9-13,15,26H,5-8H2/t13-,15-",
        "InChIKey": null,
        "Canonical SMILES": "O=C1C(O)=C(C(=O)C=2C=CC=CC12)C3CCC(C4=CC=C(Cl)C=C4)CC3",
        "Molecular Formula": "C<sub>22</sub>H<sub>19</sub>ClO<sub>3</sub>",
        "Molecular Mass": "366.84",
        "Melting Point": "216-219 °C"
    }
}