{
    "cas_no": "60410-16-4",
    "key_name": "4-Cyclopentene-1,3-diol, 1-acetate, (1<em>R</em>,3<em>S</em>)-",
    "cn_name": "(1S,4R)-顺-4-乙酰氧基-2-环戊烯-1-醇;",
    "alternate_name": "4-Cyclopentene-1,3-diol, 1-acetate, (1<em>R</em>,3<em>S</em>)-;4-Cyclopentene-1,3-diol, monoacetate, (1<em>R</em>-<em>cis</em>)-;4-Cyclopentene-1,3-diol, monoacetate, (1<em>R</em>,3<em>S</em>)-;(1<em>R</em>,4<em>S</em>)-(+)-4-Hydroxy-2-cyclopentenyl acetate;(+)-(1<em>R</em>-<em>cis</em>)-4-Cyclopentene-1,3-diol monoacetate;(1<em>R</em>,3<em>S</em>)-(+)-4-Cyclopentene-1,3-diol 1-acetate;(+)-(1R,4S)-4-Hydroxy-2-cyclopenten-1-yl acetate;(1<em>R</em>,3<em>S</em>)-(+)-1-Acetoxy-3-hydroxy-4-cyclopentene;(1s,4r)-<em>cis</em>-4-Acetoxy-2-cyclopenten-1-ol;Acetic acid (1<em>R</em>,4<em>S</em>)-4-hydroxycyclopent-2-enyl ester;(1S,4R)-4-Acetoxy-2-cyclopenten-1-ol;(1<em>S</em>,4<em>R</em>)-4-Acetoxy-2-cyclopenten-1-ol;(1R,4S)-4-Hydroxycyclopent-2-enyl acetate",
    "duplicated_cas_no": "",
    "SMILES": "O(C(C)=O)[C@@H]1C[C@H](O)C=C1",
    "meta_data": {
        "InChI": "InChI=1S/C7H10O3/c1-5(8)10-7-3-2-6(9)4-7/h2-3,6-7,9H,4H2,1H3/t6-,7+/m1/s1",
        "InChIKey": null,
        "Canonical SMILES": "O=C(OC1C=CC(O)C1)C",
        "Molecular Formula": "C<sub>7</sub>H<sub>10</sub>O<sub>3</sub>",
        "Molecular Mass": "142.15",
        "Melting Point": "49-51 °C"
    }
}