{
    "cas_no": "4385-35-7",
    "key_name": "3-Isochromanone",
    "cn_name": "3-异色酮;3-异色酮;",
    "alternate_name": "3<em>H</em>-2-Benzopyran-3-one, 1,4-dihydro-;3-Isochromanone;Acetic acid, (α-hydroxy-<em>o</em>-tolyl)-, δ-lactone;1,4-Dihydro-3<em>H</em>-2-benzopyran-3-one;1<em>H</em>-2-Benzopyran-3(4<em>H</em>)-one;Benzeneacetic acid, 2-(hydroxymethyl)-, δ-lactone;2-Hydroxymethylphenylacetic acid lactone;3,6-Dihydro-4,5-benzo-2-pyrone;NSC 160530;1,4-Dihydroisochromen-3-one;3,4-Dihydro-1<em>H</em>-2-benzopyran-3-one",
    "duplicated_cas_no": "",
    "SMILES": "O=C1CC=2C(CO1)=CC=CC2",
    "meta_data": {
        "InChI": "InChI=1S/C9H8O2/c10-9-5-7-3-1-2-4-8(7)6-11-9/h1-4H,5-6H2",
        "InChIKey": null,
        "Canonical SMILES": "O=C1OCC=2C=CC=CC2C1",
        "Molecular Formula": "C<sub>9</sub>H<sub>8</sub>O<sub>2</sub>",
        "Molecular Mass": "148.16",
        "Boiling Point": "130 °C @ Press: 1 Torr",
        "Melting Point": "82-83 °C"
    }
}