{
    "cas_no": "5447-97-2",
    "key_name": "2-Bromo-2-nitropropane",
    "cn_name": "2-溴-2-硝基丙烷;",
    "alternate_name": "Propane, 2-bromo-2-nitro-;2-Bromo-2-nitropropane;NSC 17672",
    "duplicated_cas_no": "",
    "SMILES": "C(N(=O)=O)(Br)(C)C",
    "meta_data": {
        "InChI": "InChI=1S/C3H6BrNO2/c1-3(2,4)5(6)7/h1-2H3",
        "InChIKey": null,
        "Canonical SMILES": "O=N(=O)C(Br)(C)C",
        "Molecular Formula": "C<sub>3</sub>H<sub>6</sub>BrNO<sub>2</sub>",
        "Molecular Mass": "167.99",
        "Boiling Point": "153 °C",
        "Melting Point": "33-35 °C"
    }
}