{
    "cas_no": "37908-98-8",
    "key_name": "Methyl 3-chloro-4-methoxybenzoate",
    "cn_name": "3-氯-4-甲氧基苯甲酸甲酯;",
    "alternate_name": "Benzoic acid, 3-chloro-4-methoxy-, methyl ester;<em>p</em>-Anisic acid, 3-chloro-, methyl ester;Methyl 3-chloro-4-methoxybenzoate;3-Chloro-4-methoxybenzoic acid methyl ester",
    "duplicated_cas_no": "",
    "SMILES": "C(OC)(=O)C1=CC(Cl)=C(OC)C=C1",
    "meta_data": {
        "InChI": "InChI=1S/C9H9ClO3/c1-12-8-4-3-6(5-7(8)10)9(11)13-2/h3-5H,1-2H3",
        "InChIKey": null,
        "Canonical SMILES": "O=C(OC)C1=CC=C(OC)C(Cl)=C1",
        "Molecular Formula": "C<sub>9</sub>H<sub>9</sub>ClO<sub>3</sub>",
        "Molecular Mass": "200.62",
        "Melting Point": "89-90 °C"
    }
}