{
    "cas_no": "51-19-4",
    "key_name": "Phenol, 2-amino-, hydrochloride (1:1)",
    "cn_name": "3,5-二甲氧基苯乙酮;3\",5\"-二甲氧基苯乙酮;",
    "alternate_name": "Phenol, 2-amino-, hydrochloride (1:1);Phenol, <em>o</em>-amino-, hydrochloride;Phenol, 2-amino-, hydrochloride;<em>o</em>-Aminophenol hydrochloride;2-Aminophenol hydrochloride;<em>o</em>-Hydroxyaniline hydrochloride",
    "duplicated_cas_no": "",
    "SMILES": "NC1=C(O)C=CC=C1.Cl",
    "meta_data": {
        "InChI": "InChI=1S/C6H7NO.ClH/c7-5-3-1-2-4-6(5)8;/h1-4,8H,7H2;1H",
        "InChIKey": null,
        "Canonical SMILES": "Cl.OC=1C=CC=CC1N",
        "Molecular Formula": "C<sub>6</sub>H<sub>7</sub>NO.ClH",
        "Molecular Mass": "",
        "Melting Point": "207 °C"
    }
}