{
    "cas_no": "139481-72-4",
    "key_name": "2-Ethoxy-1-[[2′-[1-(triphenylmethyl)-1<em>H</em>-tetrazol-5-yl][1,1′-biphenyl]-4-yl]methyl]-1<em>H</em>-benzimidazole-7-carboxylic acid",
    "cn_name": "三苯甲基坎地沙坦;2-乙氧基-3-[[4-[2-(1-三苯甲基-1H-四唑-5-基)苯基]苯基]甲基]-3H-苯并咪唑-4-羧酸;",
    "alternate_name": "1<em>H</em>-Benzimidazole-7-carboxylic acid, 2-ethoxy-1-[[2′-[1-(triphenylmethyl)-1<em>H</em>-tetrazol-5-yl][1,1′-biphenyl]-4-yl]methyl]-;2-Ethoxy-1-[[2′-[1-(triphenylmethyl)-1<em>H</em>-tetrazol-5-yl][1,1′-biphenyl]-4-yl]methyl]-1<em>H</em>-benzimidazole-7-carboxylic acid;2-Ethoxy-1-[(2′-(1-trityl-1<em>H</em>-tetrazol-5-yl)-1,1′-biphenyl-4-yl)methyl]-7-benzimidazolecarboxylic acid;2-Ethoxy-1-((2′-(1-trityl-1<em>H</em>-tetrazol-5-yl)-[1,1′-biphenyl]-4-yl)methyl)-1<em>H</em>-benzo[<em>d</em>]imidazole-7-carboxylic acid",
    "duplicated_cas_no": "",
    "SMILES": "C(N1C(=NN=N1)C2=C(C=CC=C2)C3=CC=C(CN4C=5C(N=C4OCC)=CC=CC5C(O)=O)C=C3)(C6=CC=CC=C6)(C7=CC=CC=C7)C8=CC=CC=C8",
    "meta_data": {
        "InChI": "InChI=1S/C43H34N6O3/c1-2-52-42-44-38-24-14-23-37(41(50)51)39(38)48(42)29-30-25-27-31(28-26-30)35-21-12-13-22-36(35)40-45-46-47-49(40)43(32-15-6-3-7-16-32,33-17-8-4-9-18-33)34-19-10-5-11-20-34/h3-28H,2,29H2,1H3,(H,50,51)",
        "InChIKey": null,
        "Canonical SMILES": "O=C(O)C1=CC=CC=2N=C(OCC)N(C21)CC=3C=CC(=CC3)C=4C=CC=CC4C5=NN=NN5C(C=6C=CC=CC6)(C=7C=CC=CC7)C=8C=CC=CC8",
        "Molecular Formula": "C<sub>43</sub>H<sub>34</sub>N<sub>6</sub>O<sub>3</sub>",
        "Molecular Mass": "682.77",
        "Melting Point": "163-165 °C"
    }
}