{
    "cas_no": "598-53-8",
    "key_name": "Propane, 2-methoxy-",
    "cn_name": "L-天冬氨酸钠;甲基异丙基醚;",
    "alternate_name": "Propane, 2-methoxy-;Ether, isopropyl methyl;Methyl isopropyl ether;Isopropyl methyl ether;2-Methoxypropane;Isopryl;Methyl <em>iso</em>-propyl ether;2-Propylmethyl ether",
    "duplicated_cas_no": "",
    "SMILES": "C(OC)(C)C",
    "meta_data": {
        "InChI": "InChI=1S/C4H10O/c1-4(2)5-3/h4H,1-3H3",
        "InChIKey": null,
        "Canonical SMILES": "O(C)C(C)C",
        "Molecular Formula": "C<sub>4</sub>H<sub>10</sub>O",
        "Molecular Mass": "74.12",
        "Boiling Point": "30.7 °C",
        "Density": "0.7237 g/cm³ @ Temp: 15 °C"
    }
}