{
    "cas_no": "17719-89-0",
    "key_name": "Bucinnazine",
    "cn_name": null,
    "alternate_name": "1-Butanone, 1-[4-(3-phenyl-2-propen-1-yl)-1-piperazinyl]-;Piperazine, 1-butyryl-4-cinnamyl-;Piperazine, 1-(1-oxobutyl)-4-(3-phenyl-2-propenyl)-;1-[4-(3-Phenyl-2-propen-1-yl)-1-piperazinyl]-1-butanone;1-Butyryl-4-cinnamylpiperazine;Bucinnazine;Bucinperazine",
    "duplicated_cas_no": "",
    "SMILES": "C(C=CC1=CC=CC=C1)N2CCN(C(CCC)=O)CC2",
    "meta_data": {
        "InChI": "InChI=1S/C17H24N2O/c1-2-7-17(20)19-14-12-18(13-15-19)11-6-10-16-8-4-3-5-9-16/h3-6,8-10H,2,7,11-15H2,1H3",
        "InChIKey": null,
        "Canonical SMILES": "O=C(N1CCN(CC=CC=2C=CC=CC2)CC1)CCC",
        "Molecular Formula": "C<sub>17</sub>H<sub>24</sub>N<sub>2</sub>O",
        "Molecular Mass": "272.39",
        "Boiling Point": "184-185 °C @ Press: 0.19 Torr"
    }
}