{
    "cas_no": "629-04-9",
    "key_name": "1-Bromoheptane",
    "cn_name": "1-溴代庚烷;溴庚烷;",
    "alternate_name": "Heptane, 1-bromo-;1-Bromoheptane;Heptyl bromide;<em>n</em>-Heptyl bromide;1-Heptyl bromide;NSC 7315",
    "duplicated_cas_no": "",
    "SMILES": "C(CCCC)CCBr",
    "meta_data": {
        "InChI": "InChI=1S/C7H15Br/c1-2-3-4-5-6-7-8/h2-7H2,1H3",
        "InChIKey": null,
        "Canonical SMILES": "BrCCCCCCC",
        "Molecular Formula": "C<sub>7</sub>H<sub>15</sub>Br",
        "Molecular Mass": "179.10",
        "Boiling Point": "179 °C",
        "Melting Point": "-58 °C",
        "Density": "1.1596 g/cm³ @ Temp: 0 °C"
    }
}