{
    "cas_no": "6153-89-5",
    "key_name": "5-Phenyl-1,10-phenanthroline",
    "cn_name": null,
    "alternate_name": "1,10-Phenanthroline, 5-phenyl-;5-Phenyl-1,10-phenanthroline",
    "duplicated_cas_no": "",
    "SMILES": "C12=C(C=C3C(=C1N=CC=C2)N=CC=C3)C4=CC=CC=C4",
    "meta_data": {
        "InChI": "InChI=1S/C18H12N2/c1-2-6-13(7-3-1)16-12-14-8-4-10-19-17(14)18-15(16)9-5-11-20-18/h1-12H",
        "InChIKey": null,
        "Canonical SMILES": "N1=CC=CC=2C=C(C3=CC=CC=C3)C=4C=CC=NC4C12",
        "Molecular Formula": "C<sub>18</sub>H<sub>12</sub>N<sub>2</sub>",
        "Molecular Mass": "256.30",
        "Melting Point": "202-203 °C"
    }
}