{
    "cas_no": "770-10-5",
    "key_name": "[(Trichlorosilyl)methyl]benzene",
    "cn_name": "苄基三氯硅烷;",
    "alternate_name": "Benzene, [(trichlorosilyl)methyl]-;Silane, benzyltrichloro-;Silane, trichloro(phenylmethyl)-;[(Trichlorosilyl)methyl]benzene;Benzyltrichlorosilane",
    "duplicated_cas_no": "",
    "SMILES": "C([Si](Cl)(Cl)Cl)C1=CC=CC=C1",
    "meta_data": {
        "InChI": "InChI=1S/C7H7Cl3Si/c8-11(9,10)6-7-4-2-1-3-5-7/h1-5H,6H2",
        "InChIKey": null,
        "Canonical SMILES": "Cl[Si](Cl)(Cl)CC=1C=CC=CC1",
        "Molecular Formula": "C<sub>7</sub>H<sub>7</sub>Cl<sub>3</sub>Si",
        "Molecular Mass": "225.57",
        "Boiling Point": "140-142 °C @ Press: 10 Torr",
        "Density": "1.288 g/cm³"
    }
}