{
    "cas_no": "7328-91-8",
    "key_name": "2,2-Dimethyl-1,3-propanediamine",
    "cn_name": "二甲基丙二胺;二甲基丙二胺;2,2-二甲基-1,3-丙二胺;H2NCH2C(CH3)2CH2NH2;",
    "alternate_name": "1,3-Propanediamine, 2,2-dimethyl-;2,2-Dimethyl-1,3-propanediamine;2,2-Dimethyl-1,3-diaminopropane;1,3-Diamino-2,2-dimethylpropane;2,2-Dimethyltrimethylenediamine;1,2-Diamino-2,2-dimethylpropane;NSC 17719;2,2-Dimethyl-1,3-propylenediamine;(3-Amino-2,2-dimethylpropyl)amine;2,2-Dimethylpropanediamine",
    "duplicated_cas_no": "",
    "SMILES": "C(CN)(CN)(C)C",
    "meta_data": {
        "InChI": "InChI=1S/C5H14N2/c1-5(2,3-6)4-7/h3-4,6-7H2,1-2H3",
        "InChIKey": null,
        "Canonical SMILES": "NCC(C)(C)CN",
        "Molecular Formula": "C<sub>5</sub>H<sub>14</sub>N<sub>2</sub>",
        "Molecular Mass": "102.18",
        "Boiling Point": "153 °C @ Press: 760 Torr"
    }
}