{
    "cas_no": "6908-41-4",
    "key_name": "Methyl 4-(hydroxymethyl)benzoate",
    "cn_name": "4-羟甲基苯甲酸甲酯;",
    "alternate_name": "Benzoic acid, 4-(hydroxymethyl)-, methyl ester;<em>p</em>-Toluic acid, α-hydroxy-, methyl ester;Methyl <em>p</em>-(hydroxymethyl)benzoate;Methyl 4-(hydroxymethyl)benzoate;<em>p</em>-(Methoxycarbonyl)benzyl alcohol;4-(Carbomethoxy)benzyl alcohol;4-(Methoxycarbonyl)benzyl alcohol;4-Hydroxymethylbenzoic acid methyl ester;1,4-Benzenedimethanol, α<sup>1</sup>-methoxy-",
    "duplicated_cas_no": "185532-81-4;2252140-10-4",
    "SMILES": "C(OC)(=O)C1=CC=C(CO)C=C1",
    "meta_data": {
        "InChI": "InChI=1S/C9H10O3/c1-12-9(11)8-4-2-7(6-10)3-5-8/h2-5,10H,6H2,1H3",
        "InChIKey": null,
        "Canonical SMILES": "O=C(OC)C1=CC=C(C=C1)CO",
        "Molecular Formula": "C<sub>9</sub>H<sub>10</sub>O<sub>3</sub>",
        "Molecular Mass": "166.17",
        "Boiling Point": "129-133 °C @ Press: 0.8 Torr",
        "Melting Point": "48.5-49.5 °C"
    }
}