{
    "cas_no": "2916-76-9",
    "key_name": "Acetic acid, 2-(trimethylsilyl)-, methyl ester",
    "cn_name": "(三甲基硅烷)乙酸甲酯;",
    "alternate_name": "Acetic acid, 2-(trimethylsilyl)-, methyl ester;Acetic acid, (trimethylsilyl)-, methyl ester;Methyl trimethylsilylacetate;NSC 601813;Methyl 2-(trimethylsilyl)acetate",
    "duplicated_cas_no": "",
    "SMILES": "C([Si](C)(C)C)C(OC)=O",
    "meta_data": {
        "InChI": "InChI=1S/C6H14O2Si/c1-8-6(7)5-9(2,3)4/h5H2,1-4H3",
        "InChIKey": null,
        "Canonical SMILES": "O=C(OC)C[Si](C)(C)C",
        "Molecular Formula": "C<sub>6</sub>H<sub>14</sub>O<sub>2</sub>Si",
        "Molecular Mass": "146.26",
        "Boiling Point": "62-64 °C @ Press: 50 Torr",
        "Density": "0.890 g/cm³"
    }
}