{
    "cas_no": "127-00-4",
    "key_name": "1-Chloro-2-propanol",
    "cn_name": null,
    "alternate_name": "2-Propanol, 1-chloro-;1-Chloro-2-propanol;1-Chloroisopropyl alcohol;α-Propylene chlorohydrin;<em>sec</em>-Propylene chlorohydrin;1-Chloro-2-hydroxypropane;(±)-1-Chloro-2-propanol;NSC 77373",
    "duplicated_cas_no": "20008-07-5",
    "SMILES": "C(CCl)(C)O",
    "meta_data": {
        "InChI": "InChI=1S/C3H7ClO/c1-3(5)2-4/h3,5H,2H2,1H3",
        "InChIKey": null,
        "Canonical SMILES": "ClCC(O)C",
        "Molecular Formula": "C<sub>3</sub>H<sub>7</sub>ClO",
        "Molecular Mass": "94.54",
        "Boiling Point": "126-127 °C",
        "Density": "1.115 g/cm³ @ Temp: 20 °C"
    }
}