{
    "cas_no": "6781-42-6",
    "key_name": "1,3-Diacetylbenzene",
    "cn_name": "1,3-二乙酰基苯;",
    "alternate_name": "Ethanone, 1,1′-(1,3-phenylene)bis-;Benzene, <em>m</em>-diacetyl-;1,1′-(1,3-Phenylene)bis[ethanone];<em>m</em>-Diacetylbenzene;1,3-Diacetylbenzene;1,3-Bis(1-oxoethyl)benzene;2,6-Diacetylbenzene;3-Acetylacetophenone;1-(3-Acetylphenyl)ethanone;<em>m</em>-Acetylacetophenone",
    "duplicated_cas_no": "",
    "SMILES": "C(C)(=O)C1=CC(C(C)=O)=CC=C1",
    "meta_data": {
        "InChI": "InChI=1S/C10H10O2/c1-7(11)9-4-3-5-10(6-9)8(2)12/h3-6H,1-2H3",
        "InChIKey": null,
        "Canonical SMILES": "O=C(C1=CC=CC(=C1)C(=O)C)C",
        "Molecular Formula": "C<sub>10</sub>H<sub>10</sub>O<sub>2</sub>",
        "Molecular Mass": "162.19",
        "Boiling Point": "152 °C",
        "Melting Point": "32 °C"
    }
}