{
    "cas_no": "5876-17-5",
    "key_name": "Haplopine",
    "cn_name": null,
    "alternate_name": "Furo[2,3-<em>b</em>]quinolin-7-ol, 4,8-dimethoxy-;4,8-Dimethoxyfuro[2,3-<em>b</em>]quinolin-7-ol;Haplopine;7-Hydroxy-8-methoxydictamnine",
    "duplicated_cas_no": "1363-10-6",
    "SMILES": "O(C)C1=C2C(C(OC)=C3C(=N2)OC=C3)=CC=C1O",
    "meta_data": {
        "InChI": "InChI=1S/C13H11NO4/c1-16-11-7-3-4-9(15)12(17-2)10(7)14-13-8(11)5-6-18-13/h3-6,15H,1-2H3",
        "InChIKey": null,
        "Canonical SMILES": "OC=1C=CC2=C(N=C3OC=CC3=C2OC)C1OC",
        "Molecular Formula": "C<sub>13</sub>H<sub>11</sub>NO<sub>4</sub>",
        "Molecular Mass": "245.23",
        "Melting Point": "202-204 °C"
    }
}