{
    "cas_no": "741683-19-2",
    "key_name": "3-Chloro-2-fluoro-4-pyridinecarboxylic acid",
    "cn_name": null,
    "alternate_name": "4-Pyridinecarboxylic acid, 3-chloro-2-fluoro-;3-Chloro-2-fluoro-4-pyridinecarboxylic acid;2-Fluoro-3-chloroisonicotinic acid;3-Chloro-2-fluoroisonicotinic acid;2-Fluoro-3-chloro-4-pyridinecarboxylic acid",
    "duplicated_cas_no": "",
    "SMILES": "C(O)(=O)C=1C(Cl)=C(F)N=CC1",
    "meta_data": {
        "InChI": "InChI=1S/C6H3ClFNO2/c7-4-3(6(10)11)1-2-9-5(4)8/h1-2H,(H,10,11)",
        "InChIKey": null,
        "Canonical SMILES": "O=C(O)C=1C=CN=C(F)C1Cl",
        "Molecular Formula": "C<sub>6</sub>H<sub>3</sub>ClFNO<sub>2</sub>",
        "Molecular Mass": "175.54",
        "Melting Point": "154 °C (decomp)"
    }
}