{
    "cas_no": "65423-28-1",
    "key_name": "3-Pyridinecarboxamide, 2-chloro-<em>N</em>-(phenylmethyl)-",
    "cn_name": "N-苄基-2-氯烟酰胺;",
    "alternate_name": "3-Pyridinecarboxamide, 2-chloro-<em>N</em>-(phenylmethyl)-;2-Chloronicotinic acid benzylamide;<em>N</em>-Benzyl-2-chloronicotinamide;2-Chloro-<em>N</em>-phenylmethyl-3-pyridinecarboxamide",
    "duplicated_cas_no": "",
    "SMILES": "C(NCC1=CC=CC=C1)(=O)C2=C(Cl)N=CC=C2",
    "meta_data": {
        "InChI": "InChI=1S/C13H11ClN2O/c14-12-11(7-4-8-15-12)13(17)16-9-10-5-2-1-3-6-10/h1-8H,9H2,(H,16,17)",
        "InChIKey": null,
        "Canonical SMILES": "O=C(NCC=1C=CC=CC1)C2=CC=CN=C2Cl",
        "Molecular Formula": "C<sub>13</sub>H<sub>11</sub>ClN<sub>2</sub>O",
        "Molecular Mass": "246.69",
        "Melting Point": "122-123 °C"
    }
}