{
    "cas_no": "80-35-3",
    "key_name": "Sulfamethoxypyridazine",
    "cn_name": "磺胺甲氧哒嗪;4-氨基-N-(6-甲氧基-3-哒嗪基)苯磺酰胺;3-对氨基苯磺酰胺基-6-甲氧基哒嗪;",
    "alternate_name": "Benzenesulfonamide, 4-amino-<em>N</em>-(6-methoxy-3-pyridazinyl)-;Sulfanilamide, <em>N</em><sup>1</sup>-(6-methoxy-3-pyridazinyl)-;4-Amino-<em>N</em>-(6-methoxy-3-pyridazinyl)benzenesulfonamide;CL 13,494;3-(<em>p</em>-Aminobenzenesulfamido)-6-methoxypyridazine;Davosin;Depovernil;Kinex;Kynex;Medicel;Lederkyn;<em>N</em><sup>1</sup>-(6-Methoxy-3-pyridazinyl)sulfanilamide;6-Methoxy-3-sulfanilamidopyridazine;Midicel;Midikel;Myasul;Paramid;Paramid Supra;Spofadazine;Sulfalex;3-Sulfanilamido-6-methoxypyridazine;Sultirene;6-Sulfanilamido-3-methoxypyridazine;Sulfamethoxypyridazine;Sulfapyridazine;Retamid;Retasulfine;3-(4-Aminobenzenesulfonamido)-6-methoxypyridazine;Retasulphine;Retasulfin;Quinoseptyl;Sulfapiridazin;Davozil;Lederkin;3-Methoxy-6-sulfanilamidopyridazine;SMOP;Sulfozona;Altezol;Piridolo;Lisulfen;Longin;Slosul;Sulphamethoxypyridazine;6-Methoxy-3-pyridazinylsulfanilamide;LAS (pharmaceutical);LAS;Sulfdurazin;CL 13494;RP 7522;MeSH ID: D013421",
    "duplicated_cas_no": "88538-49-2",
    "SMILES": "S(NC1=CC=C(OC)N=N1)(=O)(=O)C2=CC=C(N)C=C2",
    "meta_data": {
        "InChI": "InChI=1S/C11H12N4O3S/c1-18-11-7-6-10(13-14-11)15-19(16,17)9-4-2-8(12)3-5-9/h2-7H,12H2,1H3,(H,13,15)",
        "InChIKey": null,
        "Canonical SMILES": "O=S(=O)(NC1=NN=C(OC)C=C1)C2=CC=C(N)C=C2",
        "Molecular Formula": "C<sub>11</sub>H<sub>12</sub>N<sub>4</sub>O<sub>3</sub>S",
        "Molecular Mass": "280.30",
        "Melting Point": "182.5 °C",
        "Density": "1.48318 g/cm³"
    }
}