{
    "cas_no": "867131-59-7",
    "key_name": "4-Chloro-2-methyl-6-(methylthio)pyrimidine",
    "cn_name": null,
    "alternate_name": "Pyrimidine, 4-chloro-2-methyl-6-(methylthio)-;4-Chloro-2-methyl-6-(methylthio)pyrimidine",
    "duplicated_cas_no": "",
    "SMILES": "S(C)C=1C=C(Cl)N=C(C)N1",
    "meta_data": {
        "InChI": "InChI=1S/C6H7ClN2S/c1-4-8-5(7)3-6(9-4)10-2/h3H,1-2H3",
        "InChIKey": null,
        "Canonical SMILES": "ClC=1N=C(N=C(SC)C1)C",
        "Molecular Formula": "C<sub>6</sub>H<sub>7</sub>ClN<sub>2</sub>S",
        "Molecular Mass": "174.65",
        "Boiling Point": "126-128 °C @ Press: 19 Torr"
    }
}