{
    "cas_no": "611-74-5",
    "key_name": "<em>N</em>,<em>N</em>-Dimethylbenzamide",
    "cn_name": "N,N-二甲基苯甲酰胺;",
    "alternate_name": "Benzamide, <em>N</em>,<em>N</em>-dimethyl-;<em>N</em>,<em>N</em>-Dimethylbenzamide;Dimethylbenzamide;DMBZ;NSC 10996",
    "duplicated_cas_no": "",
    "SMILES": "C(N(C)C)(=O)C1=CC=CC=C1",
    "meta_data": {
        "InChI": "InChI=1S/C9H11NO/c1-10(2)9(11)8-6-4-3-5-7-8/h3-7H,1-2H3",
        "InChIKey": null,
        "Canonical SMILES": "O=C(C=1C=CC=CC1)N(C)C",
        "Molecular Formula": "C<sub>9</sub>H<sub>11</sub>NO",
        "Molecular Mass": "149.19",
        "Boiling Point": "132-133 °C",
        "Melting Point": "43-45 °C"
    }
}