{
    "cas_no": "79660-72-3",
    "key_name": "Fleroxacin",
    "cn_name": "氟罗沙星;6,8-二氟-1-(2-氟乙基)-1,4-二氢-7-(4-甲基-1-哌嗪基)-4-氧-3-喹啉羧酸;",
    "alternate_name": "3-Quinolinecarboxylic acid, 6,8-difluoro-1-(2-fluoroethyl)-1,4-dihydro-7-(4-methyl-1-piperazinyl)-4-oxo-;6,8-Difluoro-1-(2-fluoroethyl)-1,4-dihydro-7-(4-methyl-1-piperazinyl)-4-oxo-3-quinolinecarboxylic acid;Ro 23-6240;AM 833;Fleroxacin;Megalocin;Flerofloxacin;Quinodis;Ro 23-6240/000;Megalone;MeSH ID: D016576",
    "duplicated_cas_no": "110158-59-3;407610-62-2",
    "SMILES": "C(CF)N1C=2C(C(=O)C(C(O)=O)=C1)=CC(F)=C(C2F)N3CCN(C)CC3",
    "meta_data": {
        "InChI": "InChI=1S/C17H18F3N3O3/c1-21-4-6-22(7-5-21)15-12(19)8-10-14(13(15)20)23(3-2-18)9-11(16(10)24)17(25)26/h8-9H,2-7H2,1H3,(H,25,26)",
        "InChIKey": null,
        "Canonical SMILES": "O=C(O)C1=CN(C2=C(F)C(=C(F)C=C2C1=O)N3CCN(C)CC3)CCF",
        "Molecular Formula": "C<sub>17</sub>H<sub>18</sub>F<sub>3</sub>N<sub>3</sub>O<sub>3</sub>",
        "Molecular Mass": "369.34",
        "Melting Point": "270 °C (decomp)"
    }
}