{
    "cas_no": "22029-76-1",
    "key_name": "β-Ionol",
    "cn_name": null,
    "alternate_name": "3-Buten-2-ol, 4-(2,6,6-trimethyl-1-cyclohexen-1-yl)-;4-(2,6,6-Trimethyl-1-cyclohexen-1-yl)-3-buten-2-ol;β-Ionol",
    "duplicated_cas_no": "",
    "SMILES": "C(=CC(C)O)C=1C(C)(C)CCCC1C",
    "meta_data": {
        "InChI": "InChI=1S/C13H22O/c1-10-6-5-9-13(3,4)12(10)8-7-11(2)14/h7-8,11,14H,5-6,9H2,1-4H3",
        "InChIKey": null,
        "Canonical SMILES": "OC(C=CC1=C(C)CCCC1(C)C)C",
        "Molecular Formula": "C<sub>13</sub>H<sub>22</sub>O",
        "Molecular Mass": "194.31",
        "Boiling Point": "130.5 °C @ Press: 14.5 Torr",
        "Density": "0.9251 g/cm³ @ Temp: 19 °C"
    }
}