{
    "cas_no": "3301-49-3",
    "key_name": "Kumatakenin",
    "cn_name": null,
    "alternate_name": "4<em>H</em>-1-Benzopyran-4-one, 5-hydroxy-2-(4-hydroxyphenyl)-3,7-dimethoxy-;Flavone, 4′,5-dihydroxy-3,7-dimethoxy-;5-Hydroxy-2-(4-hydroxyphenyl)-3,7-dimethoxy-4<em>H</em>-1-benzopyran-4-one;Kumatakenin;Jaranol;4′,5-Dihydroxy-3,7-dimethoxyflavone;3,7-Di-<em>O</em>-methyl kaempferol;Kaempferol 3,7-dimethyl ether;3,7-Dimethylkaempferol;Kumatakillin;5,4′-Dihydroxy-3,7-dimethoxyflavone;Kamatakenin;Kaempferol 3,7-<em>O</em>-dimethyl ether;Kumatakenin A",
    "duplicated_cas_no": "",
    "SMILES": "O=C1C=2C(OC(=C1OC)C3=CC=C(O)C=C3)=CC(OC)=CC2O",
    "meta_data": {
        "InChI": "InChI=1S/C17H14O6/c1-21-11-7-12(19)14-13(8-11)23-16(17(22-2)15(14)20)9-3-5-10(18)6-4-9/h3-8,18-19H,1-2H3",
        "InChIKey": null,
        "Canonical SMILES": "O=C1C(OC)=C(OC=2C=C(OC)C=C(O)C12)C=3C=CC(O)=CC3",
        "Molecular Formula": "C<sub>17</sub>H<sub>14</sub>O<sub>6</sub>",
        "Molecular Mass": "314.29",
        "Melting Point": "253-254 °C"
    }
}