{
    "cas_no": "1849-36-1",
    "key_name": "4-Nitrobenzenethiol",
    "cn_name": "4-硝基苯硫酚;对硝基苯硫酚;对硝基硫酚;",
    "alternate_name": "Benzenethiol, 4-nitro-;Benzenethiol, <em>p</em>-nitro-;4-Nitrobenzenethiol;4-Nitrothiophenol;<em>p</em>-Nitrobenzenethiol;<em>p</em>-Nitrothiophenol;<em>p</em>-Nitrophenyl mercaptan;4-Nitrophenyl mercaptan;NSC 128182;1,4-Nitrobenzenethiol",
    "duplicated_cas_no": "",
    "SMILES": "N(=O)(=O)C1=CC=C(S)C=C1",
    "meta_data": {
        "InChI": "InChI=1S/C6H5NO2S/c8-7(9)5-1-3-6(10)4-2-5/h1-4,10H",
        "InChIKey": null,
        "Canonical SMILES": "O=N(=O)C1=CC=C(S)C=C1",
        "Molecular Formula": "C<sub>6</sub>H<sub>5</sub>NO<sub>2</sub>S",
        "Molecular Mass": "155.17",
        "Melting Point": "75 °C",
        "Density": "1.362 g/cm³"
    }
}