{
    "cas_no": "35704-19-9",
    "key_name": "<em>N</em>-(4-Cyanophenyl)acetamide",
    "cn_name": "4-乙酰氨苯甲腈;",
    "alternate_name": "Acetamide, <em>N</em>-(4-cyanophenyl)-;Acetanilide, 4′-cyano-;<em>N</em>-(4-Cyanophenyl)acetamide;4′-Cyanoacetanilide;<em>p</em>-Acetamidobenzonitrile;4-Cyanoacetanilide;<em>p</em>-Cyanoacetanilide;4-Acetamidobenzonitrile;<em>N</em>-Acetyl-4-cyanoaniline;NSC 88010;4-Acetylaminobenzonitrile",
    "duplicated_cas_no": "",
    "SMILES": "N(C(C)=O)C1=CC=C(C#N)C=C1",
    "meta_data": {
        "InChI": "InChI=1S/C9H8N2O/c1-7(12)11-9-4-2-8(6-10)3-5-9/h2-5H,1H3,(H,11,12)",
        "InChIKey": null,
        "Canonical SMILES": "N#CC1=CC=C(C=C1)NC(=O)C",
        "Molecular Formula": "C<sub>9</sub>H<sub>8</sub>N<sub>2</sub>O",
        "Molecular Mass": "160.17",
        "Melting Point": "206-208 °C"
    }
}