{
    "cas_no": "119-39-1",
    "key_name": "1(2<em>H</em>)-Phthalazinone",
    "cn_name": "1-(2H)-酞嗪酮;2,3-杂氮萘酮;",
    "alternate_name": "1(2<em>H</em>)-Phthalazinone;1-Phthalazinol;Phthalazinone;Phthalazin-1-one;1-Hydroxyphthalazine;1-Oxophthalazine;ICX 56225770;NSC 10432;NSC 52567;1-Hydroxy-2,3-benzodiazine",
    "duplicated_cas_no": "5418-26-8",
    "SMILES": "O=C1C=2C(C=NN1)=CC=CC2",
    "meta_data": {
        "InChI": "InChI=1S/C8H6N2O/c11-8-7-4-2-1-3-6(7)5-9-10-8/h1-5H,(H,10,11)",
        "InChIKey": null,
        "Canonical SMILES": "O=C1NN=CC=2C=CC=CC21",
        "Molecular Formula": "C<sub>8</sub>H<sub>6</sub>N<sub>2</sub>O",
        "Molecular Mass": "146.15",
        "Melting Point": "188 °C"
    }
}