{
    "cas_no": "14866-33-2",
    "key_name": "Tetraoctylammonium bromide",
    "cn_name": "四正辛基溴化铵;四辛基溴化铵;",
    "alternate_name": "1-Octanaminium, <em>N</em>,<em>N</em>,<em>N</em>-trioctyl-, bromide (1:1);Ammonium, tetraoctyl-, bromide;1-Octanaminium, <em>N</em>,<em>N</em>,<em>N</em>-trioctyl-, bromide;Tetraoctylammonium bromide;Tetra(<em>n</em>-octyl)ammonium bromide;TOAB",
    "duplicated_cas_no": "",
    "SMILES": "[N+](CCCCCCCC)(CCCCCCCC)(CCCCCCCC)CCCCCCCC.[Br-]",
    "meta_data": {
        "InChI": "InChI=1S/C32H68N.BrH/c1-5-9-13-17-21-25-29-33(30-26-22-18-14-10-6-2,31-27-23-19-15-11-7-3)32-28-24-20-16-12-8-4;/h5-32H2,1-4H3;1H/q+1;/p-1",
        "InChIKey": null,
        "Canonical SMILES": "[Br-].CCCCCCCC[N+](CCCCCCCC)(CCCCCCCC)CCCCCCCC",
        "Molecular Formula": "C<sub>32</sub>H<sub>68</sub>N.Br",
        "Molecular Mass": "",
        "Melting Point": "98 °C"
    }
}