{
    "cas_no": "63435-16-5",
    "key_name": "Benzoic acid, 4-amino-3-hydroxy-, methyl ester",
    "cn_name": null,
    "alternate_name": "Benzoic acid, 4-amino-3-hydroxy-, methyl ester;Methyl 4-amino-3-hydroxybenzoate;2-Hydroxy-4-methoxycarbonylaniline;4-Amino-3-hydroxybenzoic acid methyl ester;Methyl 3-hydroxy-4-aminobenzoate;Methyl 4-amino-3-hydroxybenzenecarboxylate;5-Methoxycarbonyl-2-aminophenol",
    "duplicated_cas_no": "",
    "SMILES": "C(OC)(=O)C1=CC(O)=C(N)C=C1",
    "meta_data": {
        "InChI": "InChI=1S/C8H9NO3/c1-12-8(11)5-2-3-6(9)7(10)4-5/h2-4,10H,9H2,1H3",
        "InChIKey": null,
        "Canonical SMILES": "O=C(OC)C1=CC=C(N)C(O)=C1",
        "Molecular Formula": "C<sub>8</sub>H<sub>9</sub>NO<sub>3</sub>",
        "Molecular Mass": "167.16",
        "Melting Point": "119-120 °C"
    }
}