{
    "cas_no": "54673-07-3",
    "key_name": "2-Cyano-3-(3-hydroxyphenyl)-2-propenoic acid",
    "cn_name": "α-氰基-3-羟基肉桂酸;",
    "alternate_name": "2-Propenoic acid, 2-cyano-3-(3-hydroxyphenyl)-;Cinnamic acid, α-cyano-<em>m</em>-hydroxy-;2-Cyano-3-(3-hydroxyphenyl)-2-propenoic acid;α-Cyano-<em>m</em>-hydroxycinnamic acid;α-Cyano-3-hydroxycinnamic acid;Ethyl α-cyano-3′-hydroxycinnamate;2-Cyano-3-(3-hydroxyphenyl)acrylic acid",
    "duplicated_cas_no": "",
    "SMILES": "C(=C(C(O)=O)C#N)C1=CC(O)=CC=C1",
    "meta_data": {
        "InChI": "InChI=1S/C10H7NO3/c11-6-8(10(13)14)4-7-2-1-3-9(12)5-7/h1-5,12H,(H,13,14)",
        "InChIKey": null,
        "Canonical SMILES": "N#CC(=CC=1C=CC=C(O)C1)C(=O)O",
        "Molecular Formula": "C<sub>10</sub>H<sub>7</sub>NO<sub>3</sub>",
        "Molecular Mass": "189.17",
        "Melting Point": "229 °C"
    }
}