{
    "cas_no": "69759-61-1",
    "key_name": "2,7-Dichloro-α-[(dibutylamino)methyl]-9<em>H</em>-fluorene-4-methanol",
    "cn_name": "α-（二正丁胺甲基）-2，7-二氯芴;",
    "alternate_name": "9<em>H</em>-Fluorene-4-methanol, 2,7-dichloro-α-[(dibutylamino)methyl]-;2,7-Dichloro-α-[(dibutylamino)methyl]-9<em>H</em>-fluorene-4-methanol;2-(Dibutylamino)-1-(2,7-dichloro-9<em>H</em>-fluoren-4-yl)ethanol",
    "duplicated_cas_no": "",
    "SMILES": "C(CN(CCCC)CCCC)(O)C1=C2C=3C(CC2=CC(Cl)=C1)=CC(Cl)=CC3",
    "meta_data": {
        "InChI": "InChI=1S/C23H29Cl2NO/c1-3-5-9-26(10-6-4-2)15-22(27)21-14-19(25)13-17-11-16-12-18(24)7-8-20(16)23(17)21/h7-8,12-14,22,27H,3-6,9-11,15H2,1-2H3",
        "InChIKey": null,
        "Canonical SMILES": "ClC=1C=CC2=C(C1)CC=3C=C(Cl)C=C(C23)C(O)CN(CCCC)CCCC",
        "Molecular Formula": "C<sub>23</sub>H<sub>29</sub>Cl<sub>2</sub>NO",
        "Molecular Mass": "406.39",
        "Melting Point": "79-81 °C"
    }
}