{
    "cas_no": "3356-88-5",
    "key_name": "3-(2-Hydroxyethyl)-2-oxazolidinone",
    "cn_name": null,
    "alternate_name": "2-Oxazolidinone, 3-(2-hydroxyethyl)-;3-(2-Hydroxyethyl)-2-oxazolidinone;3-(2-Hydroxyethyl)-1,3-oxazolidin-2-one;3-(Hydroxyethyl)-2-oxazolidone;NSC 57598;2-(2-Oxo-1,3-oxazolidin-3-yl)ethanol;<em>N</em>-(2-Hydroxyethyl)oxazolidin-2-one",
    "duplicated_cas_no": "",
    "SMILES": "C(CO)N1C(=O)OCC1",
    "meta_data": {
        "InChI": "InChI=1S/C5H9NO3/c7-3-1-6-2-4-9-5(6)8/h7H,1-4H2",
        "InChIKey": null,
        "Canonical SMILES": "O=C1OCCN1CCO",
        "Molecular Formula": "C<sub>5</sub>H<sub>9</sub>NO<sub>3</sub>",
        "Molecular Mass": "131.13",
        "Boiling Point": "162 °C @ Press: 1 Torr"
    }
}