{
    "cas_no": "112101-75-4",
    "key_name": "Benzenesulfonamide, 5-[(2<em>R</em>)-2-aminopropyl]-2-methoxy-, hydrochloride (1:1)",
    "cn_name": "(R)-(+)-5-(2-氨基丙基)-2-甲氧基苯磺酰胺盐酸盐;",
    "alternate_name": "Benzenesulfonamide, 5-[(2<em>R</em>)-2-aminopropyl]-2-methoxy-, hydrochloride (1:1);Benzenesulfonamide, 5-(2-aminopropyl)-2-methoxy-, monohydrochloride, (<em>R</em>)-;Benzenesulfonamide, 5-[(2<em>R</em>)-2-aminopropyl]-2-methoxy-, monohydrochloride;(<em>R</em>)-(-)-5-(2-Aminopropyl)-2-methoxybenzenesulfonamide hydrochloride;(R)-(+)-5-(2-Aminopropyl)-2-methoxybenzene sulfonamide hydrochloride",
    "duplicated_cas_no": "",
    "SMILES": "S(N)(=O)(=O)C1=C(OC)C=CC(C[C@@H](C)N)=C1.Cl",
    "meta_data": {
        "InChI": "InChI=1S/C10H16N2O3S.ClH/c1-7(11)5-8-3-4-9(15-2)10(6-8)16(12,13)14;/h3-4,6-7H,5,11H2,1-2H3,(H2,12,13,14);1H/t7-;/m1./s1",
        "InChIKey": null,
        "Canonical SMILES": "Cl.O=S(=O)(N)C1=CC(=CC=C1OC)CC(N)C",
        "Molecular Formula": "C<sub>10</sub>H<sub>16</sub>N<sub>2</sub>O<sub>3</sub>S.ClH",
        "Molecular Mass": "",
        "Melting Point": "276-278 °C"
    }
}