{
    "cas_no": "84682-27-9",
    "key_name": "1-(4-Methylphenyl)cyclohexanecarboxylic acid",
    "cn_name": "1-(4-甲基苯基)-1-环己羧酸;1-对甲苯基环己基甲酸;",
    "alternate_name": "Cyclohexanecarboxylic acid, 1-(4-methylphenyl)-;1-(4-Methylphenyl)cyclohexanecarboxylic acid;NSC 158275;1-(4-Methylphenyl)-1-cyclohexanecarboxylic acid;1-(4-Methylphenyl)cyclohexane-1-carboxylic acid",
    "duplicated_cas_no": "",
    "SMILES": "C(O)(=O)C1(CCCCC1)C2=CC=C(C)C=C2",
    "meta_data": {
        "InChI": "InChI=1S/C14H18O2/c1-11-5-7-12(8-6-11)14(13(15)16)9-3-2-4-10-14/h5-8H,2-4,9-10H2,1H3,(H,15,16)",
        "InChIKey": null,
        "Canonical SMILES": "O=C(O)C1(C2=CC=C(C=C2)C)CCCCC1",
        "Molecular Formula": "C<sub>14</sub>H<sub>18</sub>O<sub>2</sub>",
        "Molecular Mass": "218.29",
        "Melting Point": "168-171 °C"
    }
}