{
    "cas_no": "72505-21-6",
    "key_name": "4-(Trifluoromethyl)benzenecarbothioamide",
    "cn_name": "4-(三氟甲基)硫代苯甲酰胺;",
    "alternate_name": "Benzenecarbothioamide, 4-(trifluoromethyl)-;4-(Trifluoromethyl)benzenecarbothioamide;4-(Trifluoromethyl)thiobenzamide;<em>p</em>-(Trifluoromethyl)thiobenzamide;4-(Trifluoromethyl)benzene-1-carbothioamide;4-(Trifluoromethyl)benzothioamide",
    "duplicated_cas_no": "",
    "SMILES": "C(F)(F)(F)C1=CC=C(C(N)=S)C=C1",
    "meta_data": {
        "InChI": "InChI=1S/C8H6F3NS/c9-8(10,11)6-3-1-5(2-4-6)7(12)13/h1-4H,(H2,12,13)",
        "InChIKey": null,
        "Canonical SMILES": "FC(F)(F)C1=CC=C(C=C1)C(=S)N",
        "Molecular Formula": "C<sub>8</sub>H<sub>6</sub>F<sub>3</sub>NS",
        "Molecular Mass": "205.20",
        "Melting Point": "135-136 °C"
    }
}