{
    "cas_no": "1195-09-1",
    "key_name": "2-Methoxy-5-methylphenol",
    "cn_name": "3-羟基-4-甲氧基甲苯;2-甲氧基-5-甲基苯酚,98%;2-羟基-4-甲基苯甲醚;",
    "alternate_name": "Phenol, 2-methoxy-5-methyl-;<em>m</em>-Cresol, 6-methoxy-;Isocreosol;2-Methoxy-5-methylphenol;6-Methoxy-<em>m</em>-cresol;<em>o</em>-Hydroxy-<em>p</em>-methylanisole;3-Hydroxy-4-methoxytoluene;5-Methylguaiacol;3-Hydroxy-4-methoxy-1-methylbenzene;2-Hydroxy-4-methylanisole;5-Methyl-2-methoxyphenol",
    "duplicated_cas_no": "",
    "SMILES": "O(C)C1=C(O)C=C(C)C=C1",
    "meta_data": {
        "InChI": "InChI=1S/C8H10O2/c1-6-3-4-8(10-2)7(9)5-6/h3-5,9H,1-2H3",
        "InChIKey": null,
        "Canonical SMILES": "OC1=CC(=CC=C1OC)C",
        "Molecular Formula": "C<sub>8</sub>H<sub>10</sub>O<sub>2</sub>",
        "Molecular Mass": "138.16",
        "Boiling Point": "217-218 °C",
        "Melting Point": "35.5 °C",
        "Density": "1.0742 g/cm³ @ Temp: 38.60001953125 °C"
    }
}