{
    "cas_no": "115-20-8",
    "key_name": "Trichloroethanol",
    "cn_name": "2,2,2-三氯乙醇;",
    "alternate_name": "Ethanol, 2,2,2-trichloro-;2,2,2-Trichloroethanol;2,2,2-Trichloroethyl alcohol;Trichloroethanol;Trichlorethanol;(Hydroxymethyl)trichloromethane;β,β,β-Trichloroethanol;NSC 66407;2,2,2-Trichloroethan-1-ol",
    "duplicated_cas_no": "",
    "SMILES": "C(CO)(Cl)(Cl)Cl",
    "meta_data": {
        "InChI": "InChI=1S/C2H3Cl3O/c3-2(4,5)1-6/h6H,1H2",
        "InChIKey": null,
        "Canonical SMILES": "ClC(Cl)(Cl)CO",
        "Molecular Formula": "C<sub>2</sub>H<sub>3</sub>Cl<sub>3</sub>O",
        "Molecular Mass": "149.40",
        "Boiling Point": "152 °C",
        "Melting Point": "19 °C",
        "Density": "1.4712 g/cm³ @ Temp: 25 °C"
    }
}