{
    "cas_no": "70315-69-4",
    "key_name": "3-Iodo-5-nitro-1<em>H</em>-indazole",
    "cn_name": null,
    "alternate_name": "1<em>H</em>-Indazole, 3-iodo-5-nitro-;3-Iodo-5-nitro-1<em>H</em>-indazole;3-Iodo-5-nitro-2<em>H</em>-indazole",
    "duplicated_cas_no": "",
    "SMILES": "IC=1C=2C(=CC=C(N(=O)=O)C2)NN1",
    "meta_data": {
        "InChI": "InChI=1S/C7H4IN3O2/c8-7-5-3-4(11(12)13)1-2-6(5)9-10-7/h1-3H,(H,9,10)",
        "InChIKey": null,
        "Canonical SMILES": "O=N(=O)C=1C=CC=2NN=C(I)C2C1",
        "Molecular Formula": "C<sub>7</sub>H<sub>4</sub>IN<sub>3</sub>O<sub>2</sub>",
        "Molecular Mass": "289.03",
        "Melting Point": "214 °C"
    }
}