{
    "cas_no": "6112-76-1",
    "key_name": "6-Mercaptopurine monohydrate",
    "cn_name": "6-巯基嘌呤(一水合物);",
    "alternate_name": "6<em>H</em>-Purine-6-thione, 1,9-dihydro-, hydrate (1:1);Purine-6-thiol, monohydrate;6<em>H</em>-Purine-6-thione, 1,7-dihydro-, monohydrate;6-Mercaptopurine monohydrate;9<em>H</em>-Purine-6-thiol hydrate;Xaluprine",
    "duplicated_cas_no": "",
    "SMILES": "S=C1C2=C(NC=N1)N=CN2.O",
    "meta_data": {
        "InChI": "InChI=1S/C5H4N4S.H2O/c10-5-3-4(7-1-6-3)8-2-9-5;/h1-2H,(H2,6,7,8,9,10);1H2",
        "InChIKey": null,
        "Canonical SMILES": "S=C1N=CNC=2N=CNC12.O",
        "Molecular Formula": "C<sub>5</sub>H<sub>4</sub>N<sub>4</sub>S.H<sub>2</sub>O",
        "Molecular Mass": "",
        "Melting Point": "313-315 °C (decomp)"
    }
}