{
    "cas_no": "526-07-8",
    "key_name": "Sesamolin",
    "cn_name": null,
    "alternate_name": "1,3-Benzodioxole, 5-[(1<em>S</em>,3a<em>R</em>,4<em>R</em>,6a<em>R</em>)-4-(1,3-benzodioxol-5-yloxy)tetrahydro-1<em>H</em>,3<em>H</em>-furo[3,4-<em>c</em>]furan-1-yl]-;Sesamolin;1<em>H</em>,3<em>H</em>-Furo[3,4-<em>c</em>]furan, tetrahydro-1-[3,4-(methylenedioxy)phenoxy]-4-[3,4-(methylenedioxy)phenyl]-, (1<em>R</em>,3a<em>R</em>,4<em>S</em>,6a<em>R</em>)-;1,3-Benzodioxole, 5-[4-(1,3-benzodioxol-5-yloxy)tetrahydro-1<em>H</em>,3<em>H</em>-furo[3,4-<em>c</em>]furan-1-yl]-, [1<em>S</em>-(1α,3aα,4α,6aα)]-;1,3-Benzodioxole, 5-[4-(1,3-benzodioxol-5-yloxy)tetrahydro-1<em>H</em>,3<em>H</em>-furo[3,4-<em>c</em>]furan-1-yl]-, (1<em>S</em>,3a<em>R</em>,4<em>R</em>,6a<em>R</em>)-;1<em>H</em>,3<em>H</em>-Furo[3,4-<em>c</em>]furan, 1,3-benzodioxole deriv.;5-[(1<em>S</em>,3a<em>R</em>,4<em>R</em>,6a<em>R</em>)-4-(1,3-Benzodioxol-5-yloxy)tetrahydro-1<em>H</em>,3<em>H</em>-furo[3,4-<em>c</em>]furan-1-yl]-1,3-benzodioxole;2-(3,4-Methylenedioxyphenoxy)-6-(3,4-methylenedioxyphenyl)-<em>cis</em>-3,7-dioxabicyclo[3.3.0]octane;Tetrahydro-1-[3,4-(methylenedioxy)phenoxy]-4-[3,4-(methylenedioxy)phenyl]-1<em>H</em>,3<em>H</em>-furo[3,4-<em>c</em>]furan;(+)-Sesamolin",
    "duplicated_cas_no": "",
    "SMILES": "O([C@@H]1[C@@]2([C@@]([C@H](OC2)C=3C=C4C(=CC3)OCO4)(CO1)[H])[H])C=5C=C6C(=CC5)OCO6",
    "meta_data": {
        "InChI": "InChI=1S/C20H18O7/c1-3-15-17(25-9-23-15)5-11(1)19-13-7-22-20(14(13)8-21-19)27-12-2-4-16-18(6-12)26-10-24-16/h1-6,13-14,19-20H,7-10H2/t13-,14-,19+,20+/m0/s1",
        "InChIKey": null,
        "Canonical SMILES": "O1C2=CC=C(OC3OCC4C(OCC34)C5=CC=C6OCOC6=C5)C=C2OC1",
        "Molecular Formula": "C<sub>20</sub>H<sub>18</sub>O<sub>7</sub>",
        "Molecular Mass": "370.35",
        "Melting Point": "93.5 °C"
    }
}