{
    "cas_no": "459-03-0",
    "key_name": "(4-Fluorophenyl)acetone",
    "cn_name": "4-氟苯基丙酮;对氟苯基丙酮;",
    "alternate_name": "2-Propanone, 1-(4-fluorophenyl)-;2-Propanone, 1-(<em>p</em>-fluorophenyl)-;2-Propanone, (<em>p</em>-fluorophenyl)-;1-(4-Fluorophenyl)-2-propanone;<em>p</em>-Fluorobenzyl methyl ketone;(<em>p</em>-Fluorophenyl)acetone;(4-Fluorophenyl)acetone;4-Fluorobenzyl methyl ketone;3-(4-Fluorophenyl)-2-propanone;1-Acetonyl-4-fluorobenzene",
    "duplicated_cas_no": "",
    "SMILES": "C(C(C)=O)C1=CC=C(F)C=C1",
    "meta_data": {
        "InChI": "InChI=1S/C9H9FO/c1-7(11)6-8-2-4-9(10)5-3-8/h2-5H,6H2,1H3",
        "InChIKey": null,
        "Canonical SMILES": "O=C(C)CC1=CC=C(F)C=C1",
        "Molecular Formula": "C<sub>9</sub>H<sub>9</sub>FO",
        "Molecular Mass": "152.17",
        "Boiling Point": "108 °C @ Press: 18 Torr",
        "Density": "1.107 g/cm³ @ Temp: 20 °C"
    }
}