{
    "cas_no": "589-93-5",
    "key_name": "2,5-Dimethylpyridine",
    "cn_name": "2,5-二甲基吡啶;",
    "alternate_name": "Pyridine, 2,5-dimethyl-;2,5-Lutidine;2,5-Dimethylpyridine;NSC 5089",
    "duplicated_cas_no": "",
    "SMILES": "CC=1C=CC(C)=NC1",
    "meta_data": {
        "InChI": "InChI=1S/C7H9N/c1-6-3-4-7(2)8-5-6/h3-5H,1-2H3",
        "InChIKey": null,
        "Canonical SMILES": "N=1C=C(C=CC1C)C",
        "Molecular Formula": "C<sub>7</sub>H<sub>9</sub>N",
        "Molecular Mass": "107.15",
        "Boiling Point": "157 °C",
        "Melting Point": "-16 °C",
        "Density": "0.9261 g/cm³ @ Temp: 26 °C"
    }
}