{
    "cas_no": "62456-34-2",
    "key_name": "8-Bromo-1-naphthalenamine",
    "cn_name": null,
    "alternate_name": "1-Naphthalenamine, 8-bromo-;1-Naphthylamine, 8-bromo-;8-Bromo-1-naphthalenamine;1-Amino-8-bromonaphthalene;8-Bromo-1-naphthylamine;1-Amino-8-bromonaphthalen;8-Bromonaphthalen-1-amine;8-Bromonaphthalen-1-ylamine",
    "duplicated_cas_no": "",
    "SMILES": "BrC=1C2=C(C=CC=C2N)C=CC1",
    "meta_data": {
        "InChI": "InChI=1S/C10H8BrN/c11-8-5-1-3-7-4-2-6-9(12)10(7)8/h1-6H,12H2",
        "InChIKey": null,
        "Canonical SMILES": "BrC1=CC=CC=2C=CC=C(N)C12",
        "Molecular Formula": "C<sub>10</sub>H<sub>8</sub>BrN",
        "Molecular Mass": "222.08",
        "Boiling Point": "140-150 °C @ Press: 2 Torr",
        "Melting Point": "82-86 °C"
    }
}