{
    "cas_no": "106941-25-7",
    "key_name": "Adefovir",
    "cn_name": "阿德福韦;9-[2-(膦酰甲氧基)乙基]腺嘌呤;",
    "alternate_name": "Phosphonic acid, <em>P</em>-[[2-(6-amino-9<em>H</em>-purin-9-yl)ethoxy]methyl]-;Phosphonic acid, [[2-(6-amino-9<em>H</em>-purin-9-yl)ethoxy]methyl]-;<em>P</em>-[[2-(6-Amino-9<em>H</em>-purin-9-yl)ethoxy]methyl]phosphonic acid;9-(2-Phosphonylmethoxyethyl)adenine;PMEA;9-[2-(Phosphonomethoxy)ethyl]adenine;GS 0393;Adefovir;((2-(6-Amino-9<em>H</em>-purin-9-yl)ethoxy)methyl)phosphonicacid;[[2-(6-Amino-9<em>H</em>-purin-9-yl)ethoxy]methyl]phosphonic acid;2-(6-Aminopurin-9-yl)ethoxymethylphosphonic acid",
    "duplicated_cas_no": "",
    "SMILES": "C(COCP(=O)(O)O)N1C=2C(N=C1)=C(N)N=CN2",
    "meta_data": {
        "InChI": "InChI=1S/C8H12N5O4P/c9-7-6-8(11-3-10-7)13(4-12-6)1-2-17-5-18(14,15)16/h3-4H,1-2,5H2,(H2,9,10,11)(H2,14,15,16)",
        "InChIKey": null,
        "Canonical SMILES": "O=P(O)(O)COCCN1C=NC=2C(=NC=NC21)N",
        "Molecular Formula": "C<sub>8</sub>H<sub>12</sub>N<sub>5</sub>O<sub>4</sub>P",
        "Molecular Mass": "273.19",
        "Melting Point": "301 °C"
    }
}