{
    "cas_no": "24083-13-4",
    "key_name": "4-(Octyloxy)benzaldehyde",
    "cn_name": "4-正辛氧基苯甲醛;",
    "alternate_name": "Benzaldehyde, 4-(octyloxy)-;Benzaldehyde, <em>p</em>-(octyloxy)-;4-(Octyloxy)benzaldehyde;<em>p</em>-(Octyloxy)benzaldehyde;4-(<em>n</em>-Octyloxy)benzaldehyde",
    "duplicated_cas_no": "",
    "SMILES": "O(CCCCCCCC)C1=CC=C(C=O)C=C1",
    "meta_data": {
        "InChI": "InChI=1S/C15H22O2/c1-2-3-4-5-6-7-12-17-15-10-8-14(13-16)9-11-15/h8-11,13H,2-7,12H2,1H3",
        "InChIKey": null,
        "Canonical SMILES": "O=CC1=CC=C(OCCCCCCCC)C=C1",
        "Molecular Formula": "C<sub>15</sub>H<sub>22</sub>O<sub>2</sub>",
        "Molecular Mass": "234.33",
        "Boiling Point": "162-163 °C"
    }
}