{
    "cas_no": "75-58-1",
    "key_name": "Tetramethylammonium iodide",
    "cn_name": "四甲基碘化铵;N,N,N-三甲基-1-甲铵碘化物;",
    "alternate_name": "Methanaminium, <em>N</em>,<em>N</em>,<em>N</em>-trimethyl-, iodide (1:1);Tetramethylammonium iodide;Ammonium, tetramethyl-, iodide;Methanaminium, <em>N</em>,<em>N</em>,<em>N</em>-trimethyl-, iodide;Artilacer;Banikol;TMAI;Yodurtan",
    "duplicated_cas_no": "2084121-45-7",
    "SMILES": "[N+](C)(C)(C)C.[I-]",
    "meta_data": {
        "InChI": "InChI=1S/C4H12N.HI/c1-5(2,3)4;/h1-4H3;1H/q+1;/p-1",
        "InChIKey": null,
        "Canonical SMILES": "[I-].C[N+](C)(C)C",
        "Molecular Formula": "C<sub>4</sub>H<sub>12</sub>N.I",
        "Molecular Mass": "",
        "Melting Point": "&gt;230 °C"
    }
}