{
    "cas_no": "1191-08-8",
    "key_name": "1,4-Butanedithiol",
    "cn_name": null,
    "alternate_name": "1,4-Butanedithiol;Tetramethylenedithiol;1,4-Dimercaptobutane;NSC 60198;1,4-Dithiolbutane",
    "duplicated_cas_no": "",
    "SMILES": "C(CCS)CS",
    "meta_data": {
        "InChI": "InChI=1S/C4H10S2/c5-3-1-2-4-6/h5-6H,1-4H2",
        "InChIKey": null,
        "Canonical SMILES": "SCCCCS",
        "Molecular Formula": "C<sub>4</sub>H<sub>10</sub>S<sub>2</sub>",
        "Molecular Mass": "122.25",
        "Boiling Point": "195.5 °C",
        "Melting Point": "-53.9 °C"
    }
}