{
    "cas_no": "20300-02-1",
    "key_name": "2-Thiophenecarbothioamide",
    "cn_name": "噻吩-2-硫代甲酰胺;",
    "alternate_name": "2-Thiophenecarbothioamide;2-Thiophenecarboxamide, thio-;2-Thienylthiocarboxamide;2-Thiophenethiocarboxamide;2-Thiocarbamoylthiophene;2-(Aminothiocarbonyl)thiophene;Thiophene-2-carbothioic acid amide;Thien-2-carbothioic acid amide",
    "duplicated_cas_no": "",
    "SMILES": "C(N)(=S)C1=CC=CS1",
    "meta_data": {
        "InChI": "InChI=1S/C5H5NS2/c6-5(7)4-2-1-3-8-4/h1-3H,(H2,6,7)",
        "InChIKey": null,
        "Canonical SMILES": "S=C(N)C=1SC=CC1",
        "Molecular Formula": "C<sub>5</sub>H<sub>5</sub>NS<sub>2</sub>",
        "Molecular Mass": "143.23",
        "Melting Point": "110-111 °C"
    }
}