{
    "cas_no": "3204-73-7",
    "key_name": "Benzoic acid, 4-(2-hydroxyethoxy)-, methyl ester",
    "cn_name": "4-(2-羟乙氧基)苯甲酸甲酯;",
    "alternate_name": "Benzoic acid, 4-(2-hydroxyethoxy)-, methyl ester;Benzoic acid, <em>p</em>-(2-hydroxyethoxy)-, methyl ester;Methyl <em>p</em>-(2-hydroxyethoxy)benzoate;Methyl 4-(2-hydroxyethoxy)benzoate;Methyl <em>p</em>-(β-hydroxyethoxy)benzoate;Methyl 4-(β-hydroxyethoxy)benzoate;4-(2-Hydroxyethoxy)benzoic acid methyl ester;Methyl 4-(2′-hydroxyethoxy)benzoate",
    "duplicated_cas_no": "",
    "SMILES": "C(OC)(=O)C1=CC=C(OCCO)C=C1",
    "meta_data": {
        "InChI": "InChI=1S/C10H12O4/c1-13-10(12)8-2-4-9(5-3-8)14-7-6-11/h2-5,11H,6-7H2,1H3",
        "InChIKey": null,
        "Canonical SMILES": "O=C(OC)C1=CC=C(OCCO)C=C1",
        "Molecular Formula": "C<sub>10</sub>H<sub>12</sub>O<sub>4</sub>",
        "Molecular Mass": "196.20",
        "Boiling Point": "195-200 °C @ Press: 3-5 Torr",
        "Melting Point": "68 °C"
    }
}