{
    "cas_no": "2210-79-9",
    "key_name": "<em>o</em>-Cresyl glycidyl ether",
    "cn_name": "2-甲苯缩水甘油醚;邻甲苯缩水甘油醚;2,3-环氧丙基邻甲苯基醚;",
    "alternate_name": "Oxirane, 2-[(2-methylphenoxy)methyl]-;Propane, 1,2-epoxy-3-(<em>o</em>-tolyloxy)-;Oxirane, [(2-methylphenoxy)methyl]-;2-[(2-Methylphenoxy)methyl]oxirane;1-(<em>o</em>-Methylphenoxy)-2,3-epoxypropane;1,2-Epoxy-3-(2-methylphenoxy)propane;1-(2-Methylphenoxy)-2,3-epoxypropane;Glycidyl <em>o</em>-tolyl ether;Glycidyl 2-methylphenyl ether;1,2-Epoxy-3-(<em>o</em>-tolyloxy)propane;1-(2,3-Epoxypropoxy)-2-methylbenzene;Glycidyl <em>o</em>-methylphenyl ether;2-Methylphenyl glycidyl ether;Epodil 742;<em>o</em>-Cresyl glycidyl ether;(2-Methylphenoxymethyl)oxirane;Heloxy 62;Heloxy R Modifier 62;NSC 11571;NSC 20291;Araldite DY-K;SY-OCG;<em>o</em>-Cresol glycidyl ether;K 100;K 100 (epoxide);<em>o</em>-Methylphenyl glycidyl ether;H 62;Erisys 10;<em>o</em>-Tolyl glycidyl ether;ME 701;Heloxy Modifier KR;SY-OCGPEG;XY 691;D 691;H 62 (diluent);OCR-EP",
    "duplicated_cas_no": "80076-45-5;2377368-86-8;2975136-87-7",
    "SMILES": "O(CC1CO1)C2=C(C)C=CC=C2",
    "meta_data": {
        "InChI": "InChI=1S/C10H12O2/c1-8-4-2-3-5-10(8)12-7-9-6-11-9/h2-5,9H,6-7H2,1H3",
        "InChIKey": null,
        "Canonical SMILES": "O(C=1C=CC=CC1C)CC2OC2",
        "Molecular Formula": "C<sub>10</sub>H<sub>12</sub>O<sub>2</sub>",
        "Molecular Mass": "164.20",
        "Boiling Point": "109-111 °C @ Press: 4.00 Torr",
        "Density": "1.08 g/cm³"
    }
}