{
    "cas_no": "22621-41-6",
    "key_name": "Benzoic acid, 2-hydroxy-3-nitro-, methyl ester",
    "cn_name": "2-羟基-3-硝基苯甲酸甲酯;",
    "alternate_name": "Benzoic acid, 2-hydroxy-3-nitro-, methyl ester;Salicylic acid, 3-nitro-, methyl ester;Methyl 3-nitrosalicylate;2-(Methoxycarbonyl)-6-nitrophenol;3-Nitrosalicylic acid methyl ester;Methyl 2-hydroxy-3-nitrobenzoate;2-Hydroxy-3-nitrobenzoic acid methyl ester",
    "duplicated_cas_no": "",
    "SMILES": "C(OC)(=O)C1=C(O)C(N(=O)=O)=CC=C1",
    "meta_data": {
        "InChI": "InChI=1S/C8H7NO5/c1-14-8(11)5-3-2-4-6(7(5)10)9(12)13/h2-4,10H,1H3",
        "InChIKey": null,
        "Canonical SMILES": "O=C(OC)C1=CC=CC(=C1O)N(=O)=O",
        "Molecular Formula": "C<sub>8</sub>H<sub>7</sub>NO<sub>5</sub>",
        "Molecular Mass": "197.14",
        "Melting Point": "132 °C"
    }
}