{
    "cas_no": "5978-70-1",
    "key_name": "(<em>R</em>)-2-Octanol",
    "cn_name": "L-2-辛醇;R-2-辛醇;",
    "alternate_name": "2-Octanol, (2<em>R</em>)-;2-Octanol, (<em>R</em>)-;(2<em>R</em>)-2-Octanol;<em>l</em>-2-Octanol;(<em>R</em>)-(-)-2-Octanol;(-)-2-Octanol;(<em>R</em>)-2-Octanol;(<em>R</em>)-(-)-2-Octyl alcohol;<span class=\"text-smallcaps\">L</span>-(-)-Octan-2-ol;<span class=\"text-smallcaps\">L</span>-2-Octanol;(<em>R</em>)-1-Methylheptanol;(2R)-Octan-2-ol;(2R)-2-Octanol",
    "duplicated_cas_no": "113301-47-6;4128-32-9;51003-19-1",
    "SMILES": "C(C[C@@H](C)O)CCCC",
    "meta_data": {
        "InChI": "InChI=1S/C8H18O/c1-3-4-5-6-7-8(2)9/h8-9H,3-7H2,1-2H3/t8-/m1/s1",
        "InChIKey": null,
        "Canonical SMILES": "OC(C)CCCCCC",
        "Molecular Formula": "C<sub>8</sub>H<sub>18</sub>O",
        "Molecular Mass": "130.23",
        "Boiling Point": "77 °C @ Press: 10 Torr",
        "Density": "0.083 g/cm³ @ Temp: 20 °C"
    }
}