{
    "cas_no": "2393-92-2",
    "key_name": "Thiamphenicol glycinate",
    "cn_name": null,
    "alternate_name": "Glycine, (2<em>R</em>,3<em>R</em>)-2-[(2,2-dichloroacetyl)amino]-3-hydroxy-3-[4-(methylsulfonyl)phenyl]propyl ester;Glycine, α-ester with <span class=\"text-smallcaps\">D</span>-<em>threo</em>-(+)-2,2-dichloro-<em>N</em>-[β-hydroxy-α-(hydroxymethyl)-<em>p</em>-(methylsulfonyl)phenethyl]acetamide;Glycine, 2-[(dichloroacetyl)amino]-3-hydroxy-3-[4-(methylsulfonyl)phenyl]propyl ester, [<em>R</em>-(<em>R</em>*,<em>R</em>*)]-;Glycine, (2<em>R</em>,3<em>R</em>)-2-[(dichloroacetyl)amino]-3-hydroxy-3-[4-(methylsulfonyl)phenyl]propyl ester;Acetamide, 2,2-dichloro-<em>N</em>-[β-hydroxy-α-(hydroxymethyl)-<em>p</em>-(methylsulfonyl)phenethyl]-, α-ester with glycine, <span class=\"text-smallcaps\">D</span>-<em>threo</em>-(+)-;Thiamphenicol glycinate;Thiophenicol glycinate;Urfamicin;Thiamphenicol glycine ester",
    "duplicated_cas_no": "14434-24-3;29963-28-8;36708-15-3;51514-22-8",
    "SMILES": "[C@@H]([C@H](O)C1=CC=C(S(C)(=O)=O)C=C1)(NC(C(Cl)Cl)=O)COC(CN)=O",
    "meta_data": {
        "InChI": "InChI=1S/C14H18Cl2N2O6S/c1-25(22,23)9-4-2-8(3-5-9)12(20)10(7-24-11(19)6-17)18-14(21)13(15)16/h2-5,10,12-13,20H,6-7,17H2,1H3,(H,18,21)/t10-,12-/m1/s1",
        "InChIKey": null,
        "Canonical SMILES": "O=C(OCC(NC(=O)C(Cl)Cl)C(O)C1=CC=C(C=C1)S(=O)(=O)C)CN",
        "Molecular Formula": "C<sub>14</sub>H<sub>18</sub>Cl<sub>2</sub>N<sub>2</sub>O<sub>6</sub>S",
        "Molecular Mass": "413.27",
        "Melting Point": "111-112 °C"
    }
}