{
    "cas_no": "489-01-0",
    "key_name": "2,6-Di-<em>tert</em>-butyl-4-methoxyphenol",
    "cn_name": "3,5-二叔丁基-4-羟基苯甲醚;3,5-二叔丁基-4羟基苯甲醚;3,5-Di-tert-butyl-4-hydroxyanisole;CH3OC6H2[C(CH3;",
    "alternate_name": "Phenol, 2,6-bis(1,1-dimethylethyl)-4-methoxy-;Phenol, 2,6-di-<em>tert</em>-butyl-4-methoxy-;2,6-Bis(1,1-dimethylethyl)-4-methoxyphenol;3,5-Di-<em>tert</em>-butyl-4-hydroxyanisole;2,6-Di-<em>tert</em>-butyl-4-methoxyphenol;4-Methoxy-2,6-di-<em>tert</em>-butylphenol;Topanol 354;4-Hydroxy-3,5-di-<em>tert</em>-butylanisole;NSC 14451;2,6-Bis(<em>tert</em>-butyl)-4-methoxyphenol",
    "duplicated_cas_no": "137337-62-3",
    "SMILES": "C(C)(C)(C)C1=C(O)C(C(C)(C)C)=CC(OC)=C1",
    "meta_data": {
        "InChI": "InChI=1S/C15H24O2/c1-14(2,3)11-8-10(17-7)9-12(13(11)16)15(4,5)6/h8-9,16H,1-7H3",
        "InChIKey": null,
        "Canonical SMILES": "OC=1C(=CC(OC)=CC1C(C)(C)C)C(C)(C)C",
        "Molecular Formula": "C<sub>15</sub>H<sub>24</sub>O<sub>2</sub>",
        "Molecular Mass": "236.35",
        "Melting Point": "105-106 °C"
    }
}