{
    "cas_no": "1897-41-2",
    "key_name": "Tetrachloroterephthalonitrile",
    "cn_name": "四氯对苯二腈;四氯对苯二甲腈;",
    "alternate_name": "1,4-Benzenedicarbonitrile, 2,3,5,6-tetrachloro-;Terephthalonitrile, tetrachloro-;2,3,5,6-Tetrachloro-1,4-benzenedicarbonitrile;Tetrachloroterephthalonitrile;2,3,5,6-Tetrachloroterephthalonitrile;2,3,5,6-Tetrachloro-1,4-dicyanobenzene;Tetrachloroterephthalodinitrile;1,4-Dicyano-2,3,5,6-tetrachlorobenzene;Perchloroterephthalonitrile",
    "duplicated_cas_no": "",
    "SMILES": "C(#N)C1=C(Cl)C(Cl)=C(C#N)C(Cl)=C1Cl",
    "meta_data": {
        "InChI": "InChI=1S/C8Cl4N2/c9-5-3(1-13)6(10)8(12)4(2-14)7(5)11",
        "InChIKey": null,
        "Canonical SMILES": "N#CC1=C(Cl)C(Cl)=C(C#N)C(Cl)=C1Cl",
        "Molecular Formula": "C<sub>8</sub>Cl<sub>4</sub>N<sub>2</sub>",
        "Molecular Mass": "265.91",
        "Melting Point": "183-184 °C (decomp)"
    }
}