{
    "cas_no": "620-05-3",
    "key_name": "Benzyl iodide",
    "cn_name": null,
    "alternate_name": "Benzene, (iodomethyl)-;Toluene, α-iodo-;(Iodomethyl)benzene;Benzyl iodide;α-Iodotoluene;Iodophenylmethane",
    "duplicated_cas_no": "",
    "SMILES": "C(I)C1=CC=CC=C1",
    "meta_data": {
        "InChI": "InChI=1S/C7H7I/c8-6-7-4-2-1-3-5-7/h1-5H,6H2",
        "InChIKey": null,
        "Canonical SMILES": "ICC=1C=CC=CC1",
        "Molecular Formula": "C<sub>7</sub>H<sub>7</sub>I",
        "Molecular Mass": "218.04",
        "Boiling Point": "93 °C",
        "Melting Point": "24.5 °C",
        "Density": "1.7429 g/cm³ @ Temp: 20 °C"
    }
}