{
    "cas_no": "51652-47-2",
    "key_name": "(5<em>Z</em>)-5-Decen-1-ol",
    "cn_name": null,
    "alternate_name": "5-Decen-1-ol, (5<em>Z</em>)-;5-Decen-1-ol, (<em>Z</em>)-;(5<em>Z</em>)-5-Decen-1-ol;(<em>Z</em>)-5-Decen-1-ol;<em>cis</em>-5-Decen-1-ol;<em>cis</em>-5-Decenol",
    "duplicated_cas_no": "",
    "SMILES": "C(=C\\CCCC)\\CCCCO",
    "meta_data": {
        "InChI": "InChI=1S/C10H20O/c1-2-3-4-5-6-7-8-9-10-11/h5-6,11H,2-4,7-10H2,1H3/b6-5-",
        "InChIKey": null,
        "Canonical SMILES": "OCCCCC=CCCCC",
        "Molecular Formula": "C<sub>10</sub>H<sub>20</sub>O",
        "Molecular Mass": "156.27",
        "Boiling Point": "100-105 °C @ Press: 0.2 Torr"
    }
}