{
    "cas_no": "20555-91-3",
    "key_name": "1,2-Dichloro-4-iodobenzene",
    "cn_name": "3,4-二氯碘苯;1,2-二氯-4-碘代苯;",
    "alternate_name": "Benzene, 1,2-dichloro-4-iodo-;1,2-Dichloro-4-iodobenzene;3,4-Dichloroiodobenzene;3,4-Dichlorophenyl iodide;3,4-Dichloro-1-iodobenzene;4-Iodo-1,2-dichlorobenzene;1-Iodo-3,4-dichlorobenzene",
    "duplicated_cas_no": "",
    "SMILES": "ClC1=C(Cl)C=CC(I)=C1",
    "meta_data": {
        "InChI": "InChI=1S/C6H3Cl2I/c7-5-2-1-4(9)3-6(5)8/h1-3H",
        "InChIKey": null,
        "Canonical SMILES": "ClC1=CC=C(I)C=C1Cl",
        "Molecular Formula": "C<sub>6</sub>H<sub>3</sub>Cl<sub>2</sub>I",
        "Molecular Mass": "272.90",
        "Melting Point": "30.5 °C"
    }
}