{
    "cas_no": "4335-90-4",
    "key_name": "3-(Phenylmethylene)-2,4-pentanedione",
    "cn_name": "3-苄烯-2,4-戊二酮;3-苯亚甲基-2,4-戊烷二酮;",
    "alternate_name": "2,4-Pentanedione, 3-(phenylmethylene)-;2,4-Pentanedione, 3-benzylidene-;3-(Phenylmethylene)-2,4-pentanedione;Benzylidene acetylacetone;3-Benzylideneacetylacetone;3-Benzylidene-2,4-pentanedione;Benzalacetylacetone;1,1-Diacetyl-2-phenylethylene;(2,2-Diacetylvinyl)benzene;NSC 35140",
    "duplicated_cas_no": "",
    "SMILES": "C(=CC1=CC=CC=C1)(C(C)=O)C(C)=O",
    "meta_data": {
        "InChI": "InChI=1S/C12H12O2/c1-9(13)12(10(2)14)8-11-6-4-3-5-7-11/h3-8H,1-2H3",
        "InChIKey": null,
        "Canonical SMILES": "O=C(C(=CC=1C=CC=CC1)C(=O)C)C",
        "Molecular Formula": "C<sub>12</sub>H<sub>12</sub>O<sub>2</sub>",
        "Molecular Mass": "188.22",
        "Boiling Point": "150-152 °C @ Press: 15 Torr",
        "Melting Point": "169 °C"
    }
}