{
    "cas_no": "7789-41-5",
    "key_name": "Calcium bromide",
    "cn_name": "溴化钙;",
    "alternate_name": "Calcium bromide (CaBr<sub>2</sub>);Calcium bromide;Calcium dibromide",
    "duplicated_cas_no": "1690313-94-0",
    "SMILES": "[Ca](Br)Br",
    "meta_data": {
        "InChI": "InChI=1S/2BrH.Ca/h2*1H;/q;;+2/p-2",
        "InChIKey": null,
        "Canonical SMILES": "Br[Ca]Br",
        "Molecular Formula": "Br<sub>2</sub>Ca",
        "Molecular Mass": "",
        "Melting Point": "730 °C",
        "Density": "3.350 g/cm³"
    }
}