{
    "cas_no": "3153-55-7",
    "key_name": "(-)-Nornuciferine",
    "cn_name": null,
    "alternate_name": "4<em>H</em>-Dibenzo[<em>de</em>,<em>g</em>]quinolin-2-ol, 5,6,6a,7-tetrahydro-1-methoxy-6-methyl-, (6a<em>R</em>)-;6aβ-Aporphin-2-ol, 1-methoxy-;4<em>H</em>-Dibenzo[<em>de</em>,<em>g</em>]quinolin-2-ol, 5,6,6a,7-tetrahydro-1-methoxy-6-methyl-, (<em>R</em>)-;Asimilobine, <em>N</em>-methyl-;(6a<em>R</em>)-5,6,6a,7-Tetrahydro-1-methoxy-6-methyl-4<em>H</em>-dibenzo[<em>de</em>,<em>g</em>]quinolin-2-ol;<em>O</em>-Nornuciferine;<em>N</em>-Methylasimilobine;(-)-Nornuciferine;(-)-<em>N</em>-Methylasimilobine;<em>N</em>-Methylasimilobin",
    "duplicated_cas_no": "",
    "SMILES": "O(C)C1=C2C=3[C@@](CC=4C2=CC=CC4)(N(C)CCC3C=C1O)[H]",
    "meta_data": {
        "InChI": "InChI=1S/C18H19NO2/c1-19-8-7-12-10-15(20)18(21-2)17-13-6-4-3-5-11(13)9-14(19)16(12)17/h3-6,10,14,20H,7-9H2,1-2H3/t14-/m1/s1",
        "InChIKey": null,
        "Canonical SMILES": "OC=1C=C2C3=C(C1OC)C4=CC=CC=C4CC3N(C)CC2",
        "Molecular Formula": "C<sub>18</sub>H<sub>19</sub>NO<sub>2</sub>",
        "Molecular Mass": "281.35",
        "Melting Point": "195-197 °C"
    }
}