{
    "cas_no": "137-03-1",
    "key_name": "2-Heptylcyclopentanone",
    "cn_name": null,
    "alternate_name": "Cyclopentanone, 2-heptyl-;2-Heptylcyclopentanone;Alismone;2-(<em>n</em>-Heptyl)cyclopentanone;2-Heptylcyclopentan-1-one;NSC 78468;Fleuramone;Projasmone P",
    "duplicated_cas_no": "129234-93-1",
    "SMILES": "C(CCCCCC)C1C(=O)CCC1",
    "meta_data": {
        "InChI": "InChI=1S/C12H22O/c1-2-3-4-5-6-8-11-9-7-10-12(11)13/h11H,2-10H2,1H3",
        "InChIKey": null,
        "Canonical SMILES": "O=C1CCCC1CCCCCCC",
        "Molecular Formula": "C<sub>12</sub>H<sub>22</sub>O",
        "Molecular Mass": "182.30",
        "Boiling Point": "130 °C @ Press: 10 Torr",
        "Density": "0.8871 g/cm³ @ Temp: 20 °C"
    }
}