{
    "cas_no": "122-48-5",
    "key_name": "Zingerone",
    "cn_name": "姜酮;4-(4-羟基-3-甲氧基苯基)-2-丁酮;",
    "alternate_name": "2-Butanone, 4-(4-hydroxy-3-methoxyphenyl)-;4-(4-Hydroxy-3-methoxyphenyl)-2-butanone;4-Hydroxy-3-methoxybenzylacetone;(4-Hydroxy-3-methoxyphenyl)ethyl methyl ketone;3-Methoxy-4-hydroxybenzylacetone;Vanillylacetone;Zingiberone;Zingerone;[0]-Paradol;Gingerone;NSC 15335",
    "duplicated_cas_no": "",
    "SMILES": "C(CC(C)=O)C1=CC(OC)=C(O)C=C1",
    "meta_data": {
        "InChI": "InChI=1S/C11H14O3/c1-8(12)3-4-9-5-6-10(13)11(7-9)14-2/h5-7,13H,3-4H2,1-2H3",
        "InChIKey": null,
        "Canonical SMILES": "O=C(C)CCC1=CC=C(O)C(OC)=C1",
        "Molecular Formula": "C<sub>11</sub>H<sub>14</sub>O<sub>3</sub>",
        "Molecular Mass": "194.23",
        "Boiling Point": "187-188 °C @ Press: 14 Torr",
        "Melting Point": "40.5 °C",
        "Density": "1.138-1.139 g/cm³ @ Temp: 25 °C"
    }
}