{
    "cas_no": "1010-60-2",
    "key_name": "2-Chloro-1,4-naphthoquinone",
    "cn_name": "2-氯-1,4-萘醌;",
    "alternate_name": "1,4-Naphthalenedione, 2-chloro-;1,4-Naphthoquinone, 2-chloro-;2-Chloro-1,4-naphthalenedione;2-Chloronaphthoquinone;2-Chloro-1,4-naphthoquinone;NSC 400597;2-Chloro-1,4-dihydronaphthalene-1,4-dione",
    "duplicated_cas_no": "",
    "SMILES": "O=C1C=2C(C(=O)C=C1Cl)=CC=CC2",
    "meta_data": {
        "InChI": "InChI=1S/C10H5ClO2/c11-8-5-9(12)6-3-1-2-4-7(6)10(8)13/h1-5H",
        "InChIKey": null,
        "Canonical SMILES": "O=C1C=C(Cl)C(=O)C=2C=CC=CC12",
        "Molecular Formula": "C<sub>10</sub>H<sub>5</sub>ClO<sub>2</sub>",
        "Molecular Mass": "192.60",
        "Melting Point": "109-114 °C"
    }
}