{
    "cas_no": "107-37-9",
    "key_name": "Trichloro-2-propen-1-ylsilane",
    "cn_name": "丙烯基三氯硅烷;",
    "alternate_name": "Silane, trichloro-2-propen-1-yl-;Silane, allyltrichloro-;Silane, trichloro-2-propenyl-;Trichloro-2-propen-1-ylsilane;Allyltrichlorosilane;Propen-3-yltrichlorosilane;NSC 20940;Trichloro(2-propenyl)silane",
    "duplicated_cas_no": "",
    "SMILES": "C([Si](Cl)(Cl)Cl)C=C",
    "meta_data": {
        "InChI": "InChI=1S/C3H5Cl3Si/c1-2-3-7(4,5)6/h2H,1,3H2",
        "InChIKey": null,
        "Canonical SMILES": "Cl[Si](Cl)(Cl)CC=C",
        "Molecular Formula": "C<sub>3</sub>H<sub>5</sub>Cl<sub>3</sub>Si",
        "Molecular Mass": "175.52",
        "Boiling Point": "117.5 °C",
        "Melting Point": "35 °C",
        "Density": "1.2011 g/cm³ @ Temp: 20 °C"
    }
}