{
    "cas_no": "82494-09-5",
    "key_name": "Decyl β-<span class=\"text-smallcaps\">D</span>-maltopyranoside",
    "cn_name": "癸基-β-D-麦芽糖苷;",
    "alternate_name": "β-<span class=\"text-smallcaps\">D</smallcap>-Glucopyranoside, decyl 4-<em>O</em>-α-<smallcap>D</span>-glucopyranosyl-;Decyl 4-<em>O</em>-α-<span class=\"text-smallcaps\">D</smallcap>-glucopyranosyl-β-<smallcap>D</span>-glucopyranoside;1-Decyl β-<span class=\"text-smallcaps\">D</span>-maltoside;Decyl β-<span class=\"text-smallcaps\">D</span>-maltopyranoside;<em>n</em>-Decyl β-<span class=\"text-smallcaps\">D</span>-maltoside;Decylmaltoside;Decyl β-<span class=\"text-smallcaps\">D</span>-maltoside;1-<em>O</em>-Decyl-β-<span class=\"text-smallcaps\">D</span>-maltoside;Decyl β-maltopyranoside;Decyl-β-maltoside;<em>n</em>-Decyl-β-<span class=\"text-smallcaps\">D</span>-maltopyranoside;D 382",
    "duplicated_cas_no": "",
    "SMILES": "O([C@@H]1[C@@H](CO)O[C@@H](OCCCCCCCCCC)[C@H](O)[C@H]1O)[C@H]2O[C@H](CO)[C@@H](O)[C@H](O)[C@H]2O",
    "meta_data": {
        "InChI": "InChI=1S/C22H42O11/c1-2-3-4-5-6-7-8-9-10-30-21-19(29)17(27)20(14(12-24)32-21)33-22-18(28)16(26)15(25)13(11-23)31-22/h13-29H,2-12H2,1H3/t13-,14-,15-,16+,17-,18-,19-,20-,21-,22-/m1/s1",
        "InChIKey": null,
        "Canonical SMILES": "OCC1OC(OC2C(O)C(O)C(OCCCCCCCCCC)OC2CO)C(O)C(O)C1O",
        "Molecular Formula": "C<sub>22</sub>H<sub>42</sub>O<sub>11</sub>",
        "Molecular Mass": "482.56",
        "Melting Point": "86.4 °C"
    }
}