{
    "cas_no": "14075-53-7",
    "key_name": "Potassium tetrafluoroborate",
    "cn_name": "氟硼酸钾;",
    "alternate_name": "Borate(1-), tetrafluoro-, potassium (1:1);Borate(1-), tetrafluoro-, potassium;Potassium fluoborate (KBF<sub>4</sub>);Potassium borofluoride;Potassium fluoroborate;Potassium tetrafluoroborate(1-);Potassium fluoroborate (KBF<sub>4</sub>);Potassium borofluoride (KBF<sub>4</sub>);Potassium tetrafluoroborate;Boron potassium fluoride (KBF<sub>4</sub>);Potassium boride fluoride (KBF<sub>4</sub>);Potassium fluoborate;Potassium tetrafluoroborate (KBF<sub>4</sub>);Spec 102;Spec 104;NSC 168351;Spec 101",
    "duplicated_cas_no": "1303-68-0;12692-95-4;12712-39-9",
    "SMILES": "[B+3]([F-])([F-])([F-])[F-].[K+]",
    "meta_data": {
        "InChI": "InChI=1S/BF4.K/c2-1(3,4)5;/q-1;+1",
        "InChIKey": null,
        "Canonical SMILES": "[K+].[F-][B+3]([F-])([F-])[F-]",
        "Molecular Formula": "BF<sub>4</sub>.K",
        "Molecular Mass": "",
        "Melting Point": "650-850 °C",
        "Density": "2.554-2.559 g/cm³ @ Temp: 15 °C"
    }
}