{
    "cas_no": "67-66-3",
    "key_name": "Chloroform",
    "cn_name": "三氯甲烷;氯仿;",
    "alternate_name": "Methane, trichloro-;Chloroform;Trichloromethane;Trichloroform;R 20;R 20 (refrigerant);HCC 20;F 20;NSC 77361;MeSH ID: D002725",
    "duplicated_cas_no": "8013-54-5",
    "SMILES": "C(Cl)(Cl)Cl",
    "meta_data": {
        "InChI": "InChI=1S/CHCl3/c2-1(3)4/h1H",
        "InChIKey": null,
        "Canonical SMILES": "ClC(Cl)Cl",
        "Molecular Formula": "CHCl<sub>3</sub>",
        "Molecular Mass": "119.38",
        "Boiling Point": "61.2 °C",
        "Melting Point": "-63.2 °C",
        "Density": "1.4835 g/cm³ @ Temp: 20 °C"
    }
}