{
    "cas_no": "5356-83-2",
    "key_name": "Vinyldimethylethoxysilane",
    "cn_name": "乙烯基二甲基乙氧基硅烷;二甲基乙烯基乙氧基硅烷;",
    "alternate_name": "Silane, ethenylethoxydimethyl-;Silane, ethoxydimethylvinyl-;Ethenylethoxydimethylsilane;Ethoxydimethylvinylsilane;Ethenyl(ethoxy)dimethylsilane;Dimethylvinylethoxysilane;NSC 8963;Vinyldimethylethoxysilane;Dimethylethoxyvinylsilane;V 0046;Ethoxyvinyldimethylsilane",
    "duplicated_cas_no": "",
    "SMILES": "[Si](OCC)(C=C)(C)C",
    "meta_data": {
        "InChI": "InChI=1S/C6H14OSi/c1-5-7-8(3,4)6-2/h6H,2,5H2,1,3-4H3",
        "InChIKey": null,
        "Canonical SMILES": "O(CC)[Si](C=C)(C)C",
        "Molecular Formula": "C<sub>6</sub>H<sub>14</sub>OSi",
        "Molecular Mass": "130.26",
        "Boiling Point": "99 °C",
        "Density": "0.790 g/cm³ @ Temp: 20 °C"
    }
}