{
    "cas_no": "99-53-6",
    "key_name": "2-Methyl-4-nitrophenol",
    "cn_name": "4-硝基邻甲酚;2-甲基-4-硝基苯酚;",
    "alternate_name": "Phenol, 2-methyl-4-nitro-;<em>o</em>-Cresol, 4-nitro-;2-Methyl-4-nitrophenol;<em>p</em>-Nitro-<em>o</em>-cresol;4-Nitro-<em>o</em>-cresol;4-Nitro-2-methylphenol;2-Hydroxy-5-nitrotoluene;NSC 1022;1-Hydroxy-2-methyl-4-nitrobenzene",
    "duplicated_cas_no": "",
    "SMILES": "N(=O)(=O)C1=CC(C)=C(O)C=C1",
    "meta_data": {
        "InChI": "InChI=1S/C7H7NO3/c1-5-4-6(8(10)11)2-3-7(5)9/h2-4,9H,1H3",
        "InChIKey": null,
        "Canonical SMILES": "O=N(=O)C1=CC=C(O)C(=C1)C",
        "Molecular Formula": "C<sub>7</sub>H<sub>7</sub>NO<sub>3</sub>",
        "Molecular Mass": "153.14",
        "Melting Point": "96 °C"
    }
}