{
    "cas_no": "14765-30-1",
    "key_name": "2-<em>sec</em>-Butylcyclohexanone",
    "cn_name": "2-(1-甲基丙基)环己酮;",
    "alternate_name": "Cyclohexanone, 2-(1-methylpropyl)-;Cyclohexanone, 2-<em>sec</em>-butyl-;2-(1-Methylpropyl)cyclohexanone;2-<em>sec</em>-Butylcyclohexanone;NSC 21146;Freskomenthe;Frescomenthe;2-(<em>sec</em>-Butyl)cyclohexan-1-one;2-Butan-2-ylcyclohexan-1-one;2-(Butan-2-yl)cyclohexan-1-one",
    "duplicated_cas_no": "",
    "SMILES": "C(CC)(C)C1C(=O)CCCC1",
    "meta_data": {
        "InChI": "InChI=1S/C10H18O/c1-3-8(2)9-6-4-5-7-10(9)11/h8-9H,3-7H2,1-2H3",
        "InChIKey": null,
        "Canonical SMILES": "O=C1CCCCC1C(C)CC",
        "Molecular Formula": "C<sub>10</sub>H<sub>18</sub>O",
        "Molecular Mass": "154.25",
        "Boiling Point": "76-78 °C @ Press: 8 Torr",
        "Density": "0.9152 g/cm³ @ Temp: 20 °C"
    }
}