{
    "cas_no": "30263-65-1",
    "key_name": "1,1-Dibromo-3,3-dimethyl-2-butanone",
    "cn_name": "1,1-二溴频哪酮;",
    "alternate_name": "2-Butanone, 1,1-dibromo-3,3-dimethyl-;1,1-Dibromo-3,3-dimethyl-2-butanone;NSC 195963",
    "duplicated_cas_no": "",
    "SMILES": "C(C(C)(C)C)(C(Br)Br)=O",
    "meta_data": {
        "InChI": "InChI=1S/C6H10Br2O/c1-6(2,3)4(9)5(7)8/h5H,1-3H3",
        "InChIKey": null,
        "Canonical SMILES": "O=C(C(Br)Br)C(C)(C)C",
        "Molecular Formula": "C<sub>6</sub>H<sub>10</sub>Br<sub>2</sub>O",
        "Molecular Mass": "257.95",
        "Melting Point": "72 °C"
    }
}