{
    "cas_no": "401900-40-1",
    "key_name": "Andarine",
    "cn_name": null,
    "alternate_name": "Propanamide, 3-[4-(acetylamino)phenoxy]-2-hydroxy-2-methyl-<em>N</em>-[4-nitro-3-(trifluoromethyl)phenyl]-, (2<em>S</em>)-;(2<em>S</em>)-3-[4-(Acetylamino)phenoxy]-2-hydroxy-2-methyl-<em>N</em>-[4-nitro-3-(trifluoromethyl)phenyl]propanamide;<em>N</em>-[4-Nitro-3-(trifluoromethyl)phenyl]-(2<em>S</em>)-3-[4-(acetylamino)phenoxy]-2-hydroxy-2-methylpropanamide;S 4;Andarine;SARM S-4;GTx 007;(2S)-3-(4-Acetamidophenoxy)-2-hydroxy-2-methyl-<em>N</em>-[4-nitro-3-(trifluoromethyl)phenyl]propanamide",
    "duplicated_cas_no": "",
    "SMILES": "C(F)(F)(F)C1=C(N(=O)=O)C=CC(NC([C@@](COC2=CC=C(NC(C)=O)C=C2)(C)O)=O)=C1",
    "meta_data": {
        "InChI": "InChI=1S/C19H18F3N3O6/c1-11(26)23-12-3-6-14(7-4-12)31-10-18(2,28)17(27)24-13-5-8-16(25(29)30)15(9-13)19(20,21)22/h3-9,28H,10H2,1-2H3,(H,23,26)(H,24,27)/t18-/m0/s1",
        "InChIKey": null,
        "Canonical SMILES": "O=C(NC1=CC=C(OCC(O)(C(=O)NC2=CC=C(C(=C2)C(F)(F)F)N(=O)=O)C)C=C1)C",
        "Molecular Formula": "C<sub>19</sub>H<sub>18</sub>F<sub>3</sub>N<sub>3</sub>O<sub>6</sub>",
        "Molecular Mass": "441.36",
        "Melting Point": "70-74 °C"
    }
}