{
    "cas_no": "611-36-9",
    "key_name": "4-Hydroxyquinoline",
    "cn_name": "4-羟基喹啉;",
    "alternate_name": "4-Quinolinol;Kynurine;4-Hydroxyquinoline;NSC 3183;Quinoline-4-ol",
    "duplicated_cas_no": "",
    "SMILES": "OC=1C2=C(N=CC1)C=CC=C2",
    "meta_data": {
        "InChI": "InChI=1S/C9H7NO/c11-9-5-6-10-8-4-2-1-3-7(8)9/h1-6H,(H,10,11)",
        "InChIKey": null,
        "Canonical SMILES": "OC=1C=CN=C2C=CC=CC12",
        "Molecular Formula": "C<sub>9</sub>H<sub>7</sub>NO",
        "Molecular Mass": "145.16",
        "Boiling Point": "300 °C",
        "Melting Point": "201 °C"
    }
}