{
    "cas_no": "1526-17-6",
    "key_name": "2-Fluoro-6-nitrophenol",
    "cn_name": "2-氟-6-硝基苯酚;",
    "alternate_name": "Phenol, 2-fluoro-6-nitro-;2-Fluoro-6-nitrophenol;NSC 10282;6-Fluoro-2-nitrophenol",
    "duplicated_cas_no": "",
    "SMILES": "N(=O)(=O)C1=C(O)C(F)=CC=C1",
    "meta_data": {
        "InChI": "InChI=1S/C6H4FNO3/c7-4-2-1-3-5(6(4)9)8(10)11/h1-3,9H",
        "InChIKey": null,
        "Canonical SMILES": "O=N(=O)C=1C=CC=C(F)C1O",
        "Molecular Formula": "C<sub>6</sub>H<sub>4</sub>FNO<sub>3</sub>",
        "Molecular Mass": "157.10",
        "Melting Point": "87 °C"
    }
}