{
    "cas_no": "66734-13-2",
    "key_name": "Alclometasone dipropionate",
    "cn_name": "阿氯米松双丙酸酯;",
    "alternate_name": "Pregna-1,4-diene-3,20-dione, 7-chloro-11-hydroxy-16-methyl-17,21-bis(1-oxopropoxy)-, (7α,11β,16α)-;(7α,11β,16α)-7-Chloro-11-hydroxy-16-methyl-17,21-bis(1-oxopropoxy)pregna-1,4-diene-3,20-dione;Alclometasone dipropionate;Sch 22219;Delonal;Almeta;Vaderm;Aclovate;Alclometasone 17,21-dipropionate",
    "duplicated_cas_no": "",
    "SMILES": "C(COC(CC)=O)(=O)[C@]1(OC(CC)=O)[C@]2(C)[C@@](C[C@H]1C)([C@]3([C@]([C@@H](O)C2)([C@]4(C)C(C[C@H]3Cl)=CC(=O)C=C4)[H])[H])[H]",
    "meta_data": {
        "InChI": "InChI=1S/C28H37ClO7/c1-6-22(33)35-14-21(32)28(36-23(34)7-2)15(3)10-18-24-19(29)12-16-11-17(30)8-9-26(16,4)25(24)20(31)13-27(18,28)5/h8-9,11,15,18-20,24-25,31H,6-7,10,12-14H2,1-5H3/t15-,18+,19-,20+,24-,25+,26+,27+,28+/m1/s1",
        "InChIKey": null,
        "Canonical SMILES": "O=C1C=CC2(C(=C1)CC(Cl)C3C4CC(C)C(OC(=O)CC)(C(=O)COC(=O)CC)C4(C)CC(O)C32)C",
        "Molecular Formula": "C<sub>28</sub>H<sub>37</sub>ClO<sub>7</sub>",
        "Molecular Mass": "521.04",
        "Melting Point": "212-216 °C"
    }
}