{
    "cas_no": "77182-82-2",
    "key_name": "Glufosinate-ammonium",
    "cn_name": "草铵膦;草胺磷铵盐;2-氨基-4-[羟基(甲基)膦酰基]丁酸铵;",
    "alternate_name": "Butanoic acid, 2-amino-4-(hydroxymethylphosphinyl)-, ammonium salt (1:1);Butanoic acid, 2-amino-4-(hydroxymethylphosphinyl)-, monoammonium salt;Basta;HOE 00661;Glufosinate-ammonium;HOE 39866;Ammonium glufosinate;Finale;Finale 14SL;Basta LS;Ignite;Glufosinate monoammonium salt;Liberty;Liberty (pesticide);Dash;Basta Fl;Buster;Basta 150SL;BASTA 15;Ignite 280;Glufosinate ammonium salt;Liberty 280SL;Fascinate DRY;Fascinate;Fascinate 280SL;Fascinate 500 SG;Liberty 280",
    "duplicated_cas_no": "106917-54-8;118336-14-4;82785-28-2",
    "SMILES": "C(C(C(O)=O)N)CP(C)(=O)O.N",
    "meta_data": {
        "InChI": "InChI=1S/C5H12NO4P.H3N/c1-11(9,10)3-2-4(6)5(7)8;/h4H,2-3,6H2,1H3,(H,7,8)(H,9,10);1H3",
        "InChIKey": null,
        "Canonical SMILES": "O=C(O)C(N)CCP(=O)(O)C.N",
        "Molecular Formula": "C<sub>5</sub>H<sub>12</sub>NO<sub>4</sub>P.H<sub>3</sub>N",
        "Molecular Mass": "",
        "Melting Point": "215 °C",
        "Density": "1.4 g/cm³ @ Temp: 20 °C"
    }
}