{
    "cas_no": "88-19-7",
    "key_name": "2-Methylbenzenesulfonamide",
    "cn_name": "邻甲苯磺酰胺;2-甲苯磺酰胺;",
    "alternate_name": "Benzenesulfonamide, 2-methyl-;<em>o</em>-Toluenesulfonamide;2-Methylbenzenesulfonamide;<em>o</em>-Methylbenzenesulfonamide;Toluene-2-sulfonamide;<em>o</em>-Toluenesulfamide;2-Tolylsulfonamide;NSC 2185;2-Methylphenylsulfonamide;2-Methylbenzenesulfonimidic acid;2-Methylbenzene-1-sulfonamide",
    "duplicated_cas_no": "",
    "SMILES": "S(N)(=O)(=O)C1=C(C)C=CC=C1",
    "meta_data": {
        "InChI": "InChI=1S/C7H9NO2S/c1-6-4-2-3-5-7(6)11(8,9)10/h2-5H,1H3,(H2,8,9,10)",
        "InChIKey": null,
        "Canonical SMILES": "O=S(=O)(N)C=1C=CC=CC1C",
        "Molecular Formula": "C<sub>7</sub>H<sub>9</sub>NO<sub>2</sub>S",
        "Molecular Mass": "171.22",
        "Boiling Point": "214 °C @ Press: 9.98 Torr",
        "Melting Point": "156.3 °C"
    }
}