{
    "cas_no": "16853-85-3",
    "key_name": "Lithium aluminum hydride",
    "cn_name": "氢化铝锂;四氢化锂铝;",
    "alternate_name": "Aluminate(1-), tetrahydro-, lithium (1:1), (<em>T</em>-4)-;Aluminate(1-), tetrahydro-, lithium, (<em>T</em>-4)-;Aluminate(1-), tetrahydro-, lithium;Aluminum lithium hydride (LiAlH<sub>4</sub>);Lithium aluminum hydride (LiAlH<sub>4</sub>);Lithium aluminum hydride;Lithium tetrahydroaluminate;Lithium tetrahydroaluminate(1-);Lithium aluminum tetrahydride;Lithium tetrahydroaluminate (AlLiH<sub>4</sub>);Lithium tetrahydridoaluminate;Aluminum lithium tetrahydride;Lithium alanate;LAH;Aluminum lithium hydride",
    "duplicated_cas_no": "1302-30-3;1035696-44-6;1097640-73-7;1097640-76-0",
    "SMILES": "[Al+3]([H-])([H-])([H-])[H-].[Li+]",
    "meta_data": {
        "InChI": "InChI=1S/Al.Li.4H/q-1;+1;;;;",
        "InChIKey": null,
        "Canonical SMILES": "[Li+].[H-][Al+3]([H-])([H-])[H-]",
        "Molecular Formula": "AlH<sub>4</sub>.Li",
        "Molecular Mass": "",
        "Boiling Point": "89-90 °C @ Press: 2 Torr",
        "Melting Point": "165-175 °C",
        "Density": "0.92 g/cm³"
    }
}