{
    "cas_no": "3709-18-0",
    "key_name": "2,2,5-Trimethyl-1,3-dioxane-4,6-dione",
    "cn_name": "甲基丙二酸亚异丙酯;",
    "alternate_name": "1,3-Dioxane-4,6-dione, 2,2,5-trimethyl-;Malonic acid, methyl-, cyclic isopropylidene ester;Malonic acid, methyl-, monoisopropylidene cyclic ester;2,2,5-Trimethyl-1,3-dioxane-4,6-dione;2,2,5-Trimethyl-<em>m</em>-dioxane-4,6-dione;Methyl Meldrum's acid;2,2,5-Trimethyl-1,3-dioxan-4,6-dione;NSC 233870",
    "duplicated_cas_no": "1551041-64-5",
    "SMILES": "CC1(C)OC(=O)C(C)C(=O)O1",
    "meta_data": {
        "InChI": "InChI=1S/C7H10O4/c1-4-5(8)10-7(2,3)11-6(4)9/h4H,1-3H3",
        "InChIKey": null,
        "Canonical SMILES": "O=C1OC(OC(=O)C1C)(C)C",
        "Molecular Formula": "C<sub>7</sub>H<sub>10</sub>O<sub>4</sub>",
        "Molecular Mass": "158.15",
        "Melting Point": "114-115 °C"
    }
}