{
    "cas_no": "22480-91-7",
    "key_name": "2,3,4-Trimethoxybenzeneacetic acid",
    "cn_name": "2,3,4-三甲氧基苯乙酸;",
    "alternate_name": "Benzeneacetic acid, 2,3,4-trimethoxy-;Acetic acid, (2,3,4-trimethoxyphenyl)-;2,3,4-Trimethoxybenzeneacetic acid;2,3,4-Trimethoxyphenylacetic acid;2-(2,3,4-Trimethoxyphenyl)acetic acid",
    "duplicated_cas_no": "",
    "SMILES": "O(C)C1=C(OC)C(OC)=CC=C1CC(O)=O",
    "meta_data": {
        "InChI": "InChI=1S/C11H14O5/c1-14-8-5-4-7(6-9(12)13)10(15-2)11(8)16-3/h4-5H,6H2,1-3H3,(H,12,13)",
        "InChIKey": null,
        "Canonical SMILES": "O=C(O)CC1=CC=C(OC)C(OC)=C1OC",
        "Molecular Formula": "C<sub>11</sub>H<sub>14</sub>O<sub>5</sub>",
        "Molecular Mass": "226.23",
        "Melting Point": "120 °C"
    }
}