{
    "cas_no": "106-51-4",
    "key_name": "Quinone",
    "cn_name": "苯醌;对苯醌;1,4-苯醌;",
    "alternate_name": "2,5-Cyclohexadiene-1,4-dione;<em>p</em>-Benzoquinone;1,4-Benzoquinone;Chinone;1,4-Cyclohexadienedione;<em>p</em>-Quinone;Quinone;Stearer PBQ;PBQ 2;NSC 36324;PBQ;Inhibitor PBQ;RS 404;TR 9005",
    "duplicated_cas_no": "",
    "SMILES": "O=C1C=CC(=O)C=C1",
    "meta_data": {
        "InChI": "InChI=1S/C6H4O2/c7-5-1-2-6(8)4-3-5/h1-4H",
        "InChIKey": null,
        "Canonical SMILES": "O=C1C=CC(=O)C=C1",
        "Molecular Formula": "C<sub>6</sub>H<sub>4</sub>O<sub>2</sub>",
        "Molecular Mass": "108.09",
        "Boiling Point": "180 °C",
        "Melting Point": "115.7 °C",
        "Density": "1.318 g/cm³ @ Temp: 20 °C"
    }
}