{
    "cas_no": "2917-65-9",
    "key_name": "Methanol, 1-(trimethylsilyl)-, 1-acetate",
    "cn_name": "硅烷基甲基乙酸三甲酯;",
    "alternate_name": "Methanol, 1-(trimethylsilyl)-, 1-acetate;Methanol, (trimethylsilyl)-, acetate;(Trimethylsilyl)methyl acetate;Trimethyl(acetoxymethyl)silane;(Acetoxymethyl)(trimethyl)silane",
    "duplicated_cas_no": "",
    "SMILES": "C([Si](C)(C)C)OC(C)=O",
    "meta_data": {
        "InChI": "InChI=1S/C6H14O2Si/c1-6(7)8-5-9(2,3)4/h5H2,1-4H3",
        "InChIKey": null,
        "Canonical SMILES": "O=C(OC[Si](C)(C)C)C",
        "Molecular Formula": "C<sub>6</sub>H<sub>14</sub>O<sub>2</sub>Si",
        "Molecular Mass": "146.26",
        "Boiling Point": "136-137 °C",
        "Density": "0.867 g/cm³ @ Temp: 25 °C"
    }
}