{
    "cas_no": "4221-98-1",
    "key_name": "(-)-α-Phellandrene",
    "cn_name": "(-)-水芹烯;(R)-5-异丙基-2-甲基-1,3-环己二烯;",
    "alternate_name": "1,3-Cyclohexadiene, 2-methyl-5-(1-methylethyl)-, (5<em>R</em>)-;<em>p</em>-Mentha-1,5-diene, (<em>R</em>)-(-)-;1,3-Cyclohexadiene, 2-methyl-5-(1-methylethyl)-, (<em>R</em>)-;<em>p</em>-Mentha-1,5-diene, (-)-;(5<em>R</em>)-2-Methyl-5-(1-methylethyl)-1,3-cyclohexadiene;(-)-α-Phellandrene;<em>l</em>-α-Phellandrene;α-Phellandrene, (-)-;(-)-(<em>R</em>)-α-Phellandrene;(<em>R</em>)-(-)-α-Phellandrene;(<em>R</em>)-α-Phellandrene;(R)-α-Phellandrene;(5R)-2-Methyl-5-propan-2-ylcyclohexa-1,3-diene;(R)-5-Isopropyl-2-methylcyclohexa-1,3-diene",
    "duplicated_cas_no": "",
    "SMILES": "C(C)(C)[C@H]1CC=C(C)C=C1",
    "meta_data": {
        "InChI": "InChI=1S/C10H16/c1-8(2)10-6-4-9(3)5-7-10/h4-6,8,10H,7H2,1-3H3/t10-/m1/s1",
        "InChIKey": null,
        "Canonical SMILES": "C1=CC(CC=C1C)C(C)C",
        "Molecular Formula": "C<sub>10</sub>H<sub>16</sub>",
        "Molecular Mass": "136.23",
        "Boiling Point": "173-175 °C",
        "Density": "0.8358 g/cm³ @ Temp: 20 °C"
    }
}