{
    "cas_no": "54839-24-6",
    "key_name": "2-Propanol, 1-ethoxy-, 2-acetate",
    "cn_name": "乙酸-1-乙氧基-2-丙醇酯;",
    "alternate_name": "2-Propanol, 1-ethoxy-, 2-acetate;2-Propanol, 1-ethoxy-, acetate;2-Acetoxy-1-ethoxypropane;1-Ethoxypropan-2-yl acetate",
    "duplicated_cas_no": "",
    "SMILES": "O(C(COCC)C)C(C)=O",
    "meta_data": {
        "InChI": "InChI=1S/C7H14O3/c1-4-9-5-6(2)10-7(3)8/h6H,4-5H2,1-3H3",
        "InChIKey": null,
        "Canonical SMILES": "O=C(OC(C)COCC)C",
        "Molecular Formula": "C<sub>7</sub>H<sub>14</sub>O<sub>3</sub>",
        "Molecular Mass": "146.18",
        "Boiling Point": "158-160 °C",
        "Density": "0.9461 g/cm³ @ Temp: 20 °C"
    }
}