{
    "cas_no": "37199-66-9",
    "key_name": "Potassium polysulfide",
    "cn_name": "多硫化钾;",
    "alternate_name": "Potassium sulfide (K<sub>2</sub>(S<sub>x</sub>));Potassium polysulfide",
    "duplicated_cas_no": "50864-80-7",
    "SMILES": "",
    "meta_data": {
        "InChI": "",
        "InChIKey": null,
        "Canonical SMILES": "",
        "Molecular Formula": "Unspecified",
        "Molecular Mass": "",
        "Melting Point": "400 °C"
    }
}