{
    "uri": "substance/pt/37199669",
    "rn": "37199-66-9",
    "name": "Potassium polysulfide",
    "images": [],
    "inchi": "",
    "inchiKey": "",
    "smile": "",
    "canonicalSmile": "",
    "molecularFormula": "Unspecified",
    "molecularMass": "",
    "experimentalProperties": [
        {
            "name": "Melting Point",
            "property": "400 °C",
            "sourceNumber": 1
        }
    ],
    "propertyCitations": [
        {
            "docUri": "document/pt/document/14899051",
            "sourceNumber": 1,
            "source": "Spengler, Gunter; DE1106143, 1961, CAplus"
        }
    ],
    "synonyms": [
        "Potassium sulfide (K<sub>2</sub>(S<sub>x</sub>))",
        "Potassium polysulfide"
    ],
    "replacedRns": [
        "50864-80-7"
    ],
    "hasMolfile": false,
    "source": "https://commonchemistry.cas.org/detail?cas_rn=37199-66-9"
}