{
    "cas_no": "67-56-1",
    "key_name": "Methanol",
    "cn_name": "甲醇;",
    "alternate_name": "Methanol;Carbinol;Methyl alcohol;Methyl hydroxide;Monohydroxymethane;Wood alcohol;Methylol;Bieleski's solution;Methanol cluster;Solutions, Bieleski's;NSC 85232;Nuclear;MeSH ID: D000432",
    "duplicated_cas_no": "54841-71-3;1173023-83-0;1196157-60-4",
    "SMILES": "CO",
    "meta_data": {
        "InChI": "InChI=1S/CH4O/c1-2/h2H,1H3",
        "InChIKey": null,
        "Canonical SMILES": "OC",
        "Molecular Formula": "CH<sub>4</sub>O",
        "Molecular Mass": "32.04",
        "Boiling Point": "64.7 °C @ Press: 760 Torr",
        "Melting Point": "-97.8 °C",
        "Density": "0.8100 g/cm³ @ Temp: 0 °C"
    }
}