{
    "cas_no": "75-73-0",
    "key_name": "Carbon tetrafluoride",
    "cn_name": "四氟甲烷;四氟化碳;",
    "alternate_name": "Methane, tetrafluoro-;Carbon tetrafluoride;Tetrafluoromethane;Arcton 0;Freon 14;Carbon fluoride (CF<sub>4</sub>);Perfluoromethane;FC 14;R 14;R 14 (refrigerant);Refrigerant 14;Carbon tetrafluoride (CF<sub>4</sub>);Refrigerant R 14;Freon R 14;CFC 14;Khladon 14;FC 14 (refrigerant);DF 14;PFC 14",
    "duplicated_cas_no": "957761-07-8;1519044-53-1;2209093-32-1",
    "SMILES": "C(F)(F)(F)F",
    "meta_data": {
        "InChI": "InChI=1S/CF4/c2-1(3,4)5",
        "InChIKey": null,
        "Canonical SMILES": "FC(F)(F)F",
        "Molecular Formula": "CF<sub>4</sub>",
        "Molecular Mass": "88.00",
        "Boiling Point": "-127.8 °C",
        "Melting Point": "-183.6 °C",
        "Density": "3.034 g/cm³ @ Temp: 25 °C"
    }
}