{
    "cas_no": "583-57-3",
    "key_name": "1,2-Dimethylcyclohexane",
    "cn_name": null,
    "alternate_name": "Cyclohexane, 1,2-dimethyl-;1,2-Dimethylcyclohexane;<em>o</em>-Dimethylcyclohexane;NSC 43769",
    "duplicated_cas_no": "",
    "SMILES": "CC1C(C)CCCC1",
    "meta_data": {
        "InChI": "InChI=1S/C8H16/c1-7-5-3-4-6-8(7)2/h7-8H,3-6H2,1-2H3",
        "InChIKey": null,
        "Canonical SMILES": "CC1CCCCC1C",
        "Molecular Formula": "C<sub>8</sub>H<sub>16</sub>",
        "Molecular Mass": "112.21",
        "Boiling Point": "124 °C",
        "Density": "0.8234 g/cm³ @ Temp: 20 °C"
    }
}