{
    "cas_no": "7446-27-7",
    "key_name": "Phosphoric acid, lead(2+) salt (2:3)",
    "cn_name": "二盐基磷酸铅;磷酸铅;",
    "alternate_name": "Phosphoric acid, lead(2+) salt (2:3);Lead phosphate (Pb<sub>3</sub>P<sub>2</sub>O<sub>8</sub>);C.I. 77622;Lead orthophosphate;Lead phosphate;Perlex Paste 500;Perlex Paste 600A;Trilead phosphate;Lead phosphate (3:2);Lead phosphate (Pb<sub>3</sub>(PO<sub>4</sub>)<sub>2</sub>);Lead(2+) phosphate (Pb<sub>3</sub>(PO<sub>4</sub>)<sub>2</sub>);Lead diphosphate;Lead orthophosphate (Pb<sub>3</sub>(PO<sub>4</sub>)<sub>2</sub>);Lead(II) phosphate;Pigment White 30;C.I. Pigment White 30",
    "duplicated_cas_no": "1314087-56-3;3025789-32-3",
    "SMILES": "P(=O)(O)(O)O.[Pb]",
    "meta_data": {
        "InChI": "InChI=1S/H3O4P.Pb/c1-5(2,3)4;/h(H3,1,2,3,4);",
        "InChIKey": null,
        "Canonical SMILES": "[Pb].O=P(O)(O)O",
        "Molecular Formula": "H<sub>3</sub>O<sub>4</sub>P.<sup>3</sup>/<sub>2</sub>Pb",
        "Molecular Mass": "",
        "Melting Point": "1014 °C",
        "Density": "6.9 g/cm³"
    }
}