{
    "cas_no": "26225-79-6",
    "key_name": "Ethofumesate",
    "cn_name": "乙氧呋草黄;乙呋草黄;2-乙氧基-3,3-二甲基-2H-1-苯并呋喃-5-基甲磺酸酯;",
    "alternate_name": "5-Benzofuranol, 2-ethoxy-2,3-dihydro-3,3-dimethyl-, 5-methanesulfonate;5-Benzofuranol, 2-ethoxy-2,3-dihydro-3,3-dimethyl-, methanesulfonate, (±)-;5-Benzofuranol, 2-ethoxy-2,3-dihydro-3,3-dimethyl-, methanesulfonate;NC 8438;(±)-2-Ethoxy-2,3-dihydro-3,3-dimethyl-5-benzofuranyl methanesulfonate;(±)-2,3-Dihydro-3,3-dimethyl-2-ethoxy-5-benzofuranyl methanesulfonate;Ethofumesate;Nortron (new);Tramat;Nortron;CR 14658;Nortron 20EC;Stemat;Kemiron Plus;Kemiron Plus FL;Ethosat;Tramat 500;Tramat Flo;Burakosat;Prograss",
    "duplicated_cas_no": "54991-90-1;62059-51-2;67148-04-3;67293-74-7",
    "SMILES": "CC1(C)C=2C(OC1OCC)=CC=C(OS(C)(=O)=O)C2",
    "meta_data": {
        "InChI": "InChI=1S/C13H18O5S/c1-5-16-12-13(2,3)10-8-9(18-19(4,14)15)6-7-11(10)17-12/h6-8,12H,5H2,1-4H3",
        "InChIKey": null,
        "Canonical SMILES": "O=S(=O)(OC1=CC=C2OC(OCC)C(C2=C1)(C)C)C",
        "Molecular Formula": "C<sub>13</sub>H<sub>18</sub>O<sub>5</sub>S",
        "Molecular Mass": "286.34",
        "Melting Point": "71 °C"
    }
}