{
    "cas_no": "4920-81-4",
    "key_name": "Benzoic acid, 2-amino-3-hydroxy-, hydrochloride (1:1)",
    "cn_name": "2-氨基-3-羟基苯甲酸盐酸盐;",
    "alternate_name": "Benzoic acid, 2-amino-3-hydroxy-, hydrochloride (1:1);Anthranilic acid, 3-hydroxy-, hydrochloride;Benzoic acid, 2-amino-3-hydroxy-, hydrochloride;3-Hydroxyanthranilic acid hydrochloride",
    "duplicated_cas_no": "",
    "SMILES": "C(O)(=O)C1=C(N)C(O)=CC=C1.Cl",
    "meta_data": {
        "InChI": "InChI=1S/C7H7NO3.ClH/c8-6-4(7(10)11)2-1-3-5(6)9;/h1-3,9H,8H2,(H,10,11);1H",
        "InChIKey": null,
        "Canonical SMILES": "Cl.O=C(O)C=1C=CC=C(O)C1N",
        "Molecular Formula": "C<sub>7</sub>H<sub>7</sub>NO<sub>3</sub>.ClH",
        "Molecular Mass": "",
        "Melting Point": "204 °C"
    }
}