{
    "cas_no": "27992-32-1",
    "key_name": "6-Bromo-2(1<em>H</em>)-pyridinone",
    "cn_name": "2-溴-6-羟基吡啶;",
    "alternate_name": "2(1<em>H</em>)-Pyridinone, 6-bromo-;2(1<em>H</em>)-Pyridone, 6-bromo-;6-Bromo-2(1<em>H</em>)-pyridinone;6-Bromo-2-pyridone;6-Bromo-2-pyridinol;2-Hydroxy-6-bromopyridine;6-Bromo-2-hydroxypyridine;6-Bromo-1,2-dihydropyridin-2-one;2-Bromo-6-hydroxypyridine;6-Bromo-1<em>H</em>-pyridin-2-one",
    "duplicated_cas_no": "29981-38-2",
    "SMILES": "BrC=1NC(=O)C=CC1",
    "meta_data": {
        "InChI": "InChI=1S/C5H4BrNO/c6-4-2-1-3-5(8)7-4/h1-3H,(H,7,8)",
        "InChIKey": null,
        "Canonical SMILES": "O=C1C=CC=C(Br)N1",
        "Molecular Formula": "C<sub>5</sub>H<sub>4</sub>BrNO",
        "Molecular Mass": "174.00",
        "Melting Point": "123 °C"
    }
}