{
    "cas_no": "2445-76-3",
    "key_name": "Hexyl propanoate",
    "cn_name": "丙酸己酯;",
    "alternate_name": "Propanoic acid, hexyl ester;Propionic acid, hexyl ester;Hexyl propionate;<em>n</em>-Hexyl propionate;Hexyl propanoate;1-Hexyl propionate;1-Hexyl propanoate",
    "duplicated_cas_no": "",
    "SMILES": "C(OC(CC)=O)CCCCC",
    "meta_data": {
        "InChI": "InChI=1S/C9H18O2/c1-3-5-6-7-8-11-9(10)4-2/h3-8H2,1-2H3",
        "InChIKey": null,
        "Canonical SMILES": "O=C(OCCCCCC)CC",
        "Molecular Formula": "C<sub>9</sub>H<sub>18</sub>O<sub>2</sub>",
        "Molecular Mass": "158.24",
        "Boiling Point": "190 °C",
        "Melting Point": "-57.5 °C"
    }
}