{
    "cas_no": "16150-45-1",
    "key_name": "2,2′-Diethyl 5,5′-[(2-hydroxy-1,3-propanediyl)bis(oxy)]bis[4-oxo-4<em>H</em>-1-benzopyran-2-carboxylate]",
    "cn_name": null,
    "alternate_name": "4<em>H</em>-1-Benzopyran-2-carboxylic acid, 5,5′-[(2-hydroxy-1,3-propanediyl)bis(oxy)]bis[4-oxo-, 2,2′-diethyl ester;4<em>H</em>-1-Benzopyran-2-carboxylic acid, 5,5′-[(2-hydroxytrimethylene)dioxy]bis[4-oxo-, diethyl ester;4<em>H</em>-1-Benzopyran-2-carboxylic acid, 5,5′-[(2-hydroxy-1,3-propanediyl)bis(oxy)]bis[4-oxo-, diethyl ester;2,2′-Diethyl 5,5′-[(2-hydroxy-1,3-propanediyl)bis(oxy)]bis[4-oxo-4<em>H</em>-1-benzopyran-2-carboxylate];Cromoglycic acid diethyl ester;Diethyl cromoglycate;Cromophene",
    "duplicated_cas_no": "",
    "SMILES": "O(CC(COC1=C2C(OC(C(OCC)=O)=CC2=O)=CC=C1)O)C3=C4C(OC(C(OCC)=O)=CC4=O)=CC=C3",
    "meta_data": {
        "InChI": "InChI=1S/C27H24O11/c1-3-33-26(31)22-11-16(29)24-18(7-5-9-20(24)37-22)35-13-15(28)14-36-19-8-6-10-21-25(19)17(30)12-23(38-21)27(32)34-4-2/h5-12,15,28H,3-4,13-14H2,1-2H3",
        "InChIKey": null,
        "Canonical SMILES": "O=C(OCC)C=1OC2=CC=CC(OCC(O)COC=3C=CC=C4OC(=CC(=O)C43)C(=O)OCC)=C2C(=O)C1",
        "Molecular Formula": "C<sub>27</sub>H<sub>24</sub>O<sub>11</sub>",
        "Molecular Mass": "524.47",
        "Melting Point": "180-182 °C"
    }
}