{
    "cas_no": "36916-19-5",
    "key_name": "[5-Chloro-2-(3-methyl-4<em>H</em>-1,2,4-triazol-4-yl)phenyl]phenylmethanone",
    "cn_name": null,
    "alternate_name": "Methanone, [5-chloro-2-(3-methyl-4<em>H</em>-1,2,4-triazol-4-yl)phenyl]phenyl-;[5-Chloro-2-(3-methyl-4<em>H</em>-1,2,4-triazol-4-yl)phenyl]phenylmethanone;Benzophenone, 5-chloro-2-(3-methyl-4<em>H</em>-1,2,4-triazol-4-yl)-;[5-Chloro-2-(3-methyl-1,2,4-triazol-4-yl)phenyl]-phenylmethanone",
    "duplicated_cas_no": "57802-41-2",
    "SMILES": "C(=O)(C1=C(C=CC(Cl)=C1)N2C(C)=NN=C2)C3=CC=CC=C3",
    "meta_data": {
        "InChI": "InChI=1S/C16H12ClN3O/c1-11-19-18-10-20(11)15-8-7-13(17)9-14(15)16(21)12-5-3-2-4-6-12/h2-10H,1H3",
        "InChIKey": null,
        "Canonical SMILES": "O=C(C=1C=CC=CC1)C2=CC(Cl)=CC=C2N3C=NN=C3C",
        "Molecular Formula": "C<sub>16</sub>H<sub>12</sub>ClN<sub>3</sub>O",
        "Molecular Mass": "297.74",
        "Melting Point": "170-172 °C"
    }
}