{
    "cas_no": "7758-99-8",
    "key_name": "Copper sulfate pentahydrate",
    "cn_name": "硫酸铜五水合物;五水合硫酸铜;五水硫酸铜;",
    "alternate_name": "Sulfuric acid copper(2+) salt (1:1), hydrate (1:5);Sulfuric acid copper(2+) salt (1:1), pentahydrate;Copper sulfate pentahydrate;Cupric sulfate pentahydrate;Copper(II) sulfate pentahydrate;Copper(2+) sulfate pentahydrate;Copper sulfate (CuSO<sub>4</sub>) pentahydrate;Top Lucina HV-WA",
    "duplicated_cas_no": "17829-58-2;80867-41-0;2374869-84-6",
    "SMILES": "S(=O)(=O)(O)O.[Cu].O",
    "meta_data": {
        "InChI": "InChI=1S/Cu.H2O4S.5H2O/c;1-5(2,3)4;;;;;/h;(H2,1,2,3,4);5*1H2",
        "InChIKey": null,
        "Canonical SMILES": "[Cu].O=S(=O)(O)O.O",
        "Molecular Formula": "Cu.H<sub>2</sub>O<sub>4</sub>S.5H<sub>2</sub>O",
        "Molecular Mass": "",
        "Melting Point": "110 °C (decomp)",
        "Density": "2.286 g/cm³ @ Temp: 15.6 °C"
    }
}