{
    "cas_no": "4799-67-1",
    "key_name": "3-(Benzyloxy)-1,2-propanediol",
    "cn_name": "3-苄氧基-1,2-丙二醇;",
    "alternate_name": "1,2-Propanediol, 3-(phenylmethoxy)-;1,2-Propanediol, 3-(benzyloxy)-;3-(Phenylmethoxy)-1,2-propanediol;1-<em>O</em>-Benzylglycerol;3-(Benzyloxy)-1,2-propanediol;Glycerol α-monobenzyl ether;(<em>RS</em>)-3-(Benzyloxy)-1,2-propanediol;(±)-1-<em>O</em>-Benzylglycerol;<span class=\"text-smallcaps\">DL</span>-α-<em>O</em>-Benzylglycerol;Glycerol 1-benzyl ether;Glycerin 1-monobenzyl ether;NSC 74241;(±)-3-(Benzyloxy)-1,2-propanediol",
    "duplicated_cas_no": "13071-59-5",
    "SMILES": "C(OCC(CO)O)C1=CC=CC=C1",
    "meta_data": {
        "InChI": "InChI=1S/C10H14O3/c11-6-10(12)8-13-7-9-4-2-1-3-5-9/h1-5,10-12H,6-8H2",
        "InChIKey": null,
        "Canonical SMILES": "OCC(O)COCC=1C=CC=CC1",
        "Molecular Formula": "C<sub>10</sub>H<sub>14</sub>O<sub>3</sub>",
        "Molecular Mass": "182.22",
        "Boiling Point": "164-166 °C @ Press: 2 Torr",
        "Melting Point": "62.7-63.4 °C",
        "Density": "1.130 g/cm³ @ Temp: 25 °C"
    }
}