{
    "cas_no": "691-24-7",
    "key_name": "<em>N</em>,<em>N</em>′-Methanetetraylbis[2-methyl-2-propanamine]",
    "cn_name": "N,N-二叔丁基碳二亚胺;",
    "alternate_name": "2-Propanamine, <em>N</em>,<em>N</em>′-methanetetraylbis[2-methyl-;Carbodiimide, di-<em>tert</em>-butyl-;<em>N</em>,<em>N</em>′-Methanetetraylbis[2-methyl-2-propanamine];<em>N</em>,<em>N</em>′-Di-<em>tert</em>-butylcarbodiimide;Di-<em>tert</em>-butylcarbodiimide;1,3-Di-<em>tert</em>-butylcarbodiimide;Bis(<em>tert</em>-butyl)carbodiimide;<em>N</em>,<em>N</em>′-Di-<em>tert</em>-butylmethanediimine",
    "duplicated_cas_no": "",
    "SMILES": "N(C(C)(C)C)=C=NC(C)(C)C",
    "meta_data": {
        "InChI": "InChI=1S/C9H18N2/c1-8(2,3)10-7-11-9(4,5)6/h1-6H3",
        "InChIKey": null,
        "Canonical SMILES": "C(=NC(C)(C)C)=NC(C)(C)C",
        "Molecular Formula": "C<sub>9</sub>H<sub>18</sub>N<sub>2</sub>",
        "Molecular Mass": "154.25",
        "Boiling Point": "47.5-48.5 °C @ Press: 10 Torr"
    }
}