{
    "cas_no": "6613-44-1",
    "key_name": "3,5-Dimethylbenzoyl chloride",
    "cn_name": "3,5-二甲基苯甲酰氯;",
    "alternate_name": "Benzoyl chloride, 3,5-dimethyl-;3,5-Dimethylbenzoyl chloride",
    "duplicated_cas_no": "",
    "SMILES": "C(Cl)(=O)C1=CC(C)=CC(C)=C1",
    "meta_data": {
        "InChI": "InChI=1S/C9H9ClO/c1-6-3-7(2)5-8(4-6)9(10)11/h3-5H,1-2H3",
        "InChIKey": null,
        "Canonical SMILES": "O=C(Cl)C=1C=C(C=C(C1)C)C",
        "Molecular Formula": "C<sub>9</sub>H<sub>9</sub>ClO",
        "Molecular Mass": "168.62",
        "Boiling Point": "111-112 °C @ Press: 11 Torr"
    }
}