{
    "cas_no": "579-10-2",
    "key_name": "<em>N</em>-Methylacetanilide",
    "cn_name": "N-甲基乙酰苯胺;",
    "alternate_name": "Acetamide, <em>N</em>-methyl-<em>N</em>-phenyl-;Acetanilide, <em>N</em>-methyl-;<em>N</em>-Methyl-<em>N</em>-phenylacetamide;Acetomethylanilide;<em>N</em>-Acetyl-<em>N</em>-methylaniline;Exalgin;<em>N</em>-Methylacetanilide;Oxalgin;Phenylmethylacetamide;Methylantifebrin;Methylazol;NSC 2140",
    "duplicated_cas_no": "",
    "SMILES": "N(C(C)=O)(C)C1=CC=CC=C1",
    "meta_data": {
        "InChI": "InChI=1S/C9H11NO/c1-8(11)10(2)9-6-4-3-5-7-9/h3-7H,1-2H3",
        "InChIKey": null,
        "Canonical SMILES": "O=C(N(C=1C=CC=CC1)C)C",
        "Molecular Formula": "C<sub>9</sub>H<sub>11</sub>NO",
        "Molecular Mass": "149.19",
        "Boiling Point": "256 °C",
        "Melting Point": "103 °C"
    }
}