{
    "cas_no": "10076-48-9",
    "key_name": "Methyl 2,2-dimethoxypropionate",
    "cn_name": "2,2-二甲氧基丙酸甲酯;2,2-二甲氧基丙酸甲酯;",
    "alternate_name": "Propanoic acid, 2,2-dimethoxy-, methyl ester;Pyruvic acid, methyl ester, 2-(dimethyl acetal);Pyruvic acid, methyl ester, dimethyl acetal;Propionic acid, 2,2-dimethoxy-, methyl ester;Methyl 2,2-dimethoxypropionate;Methyl 2,2-dimethoxypropanoate;NSC 159637",
    "duplicated_cas_no": "",
    "SMILES": "C(C(OC)=O)(OC)(OC)C",
    "meta_data": {
        "InChI": "InChI=1S/C6H12O4/c1-6(9-3,10-4)5(7)8-2/h1-4H3",
        "InChIKey": null,
        "Canonical SMILES": "O=C(OC)C(OC)(OC)C",
        "Molecular Formula": "C<sub>6</sub>H<sub>12</sub>O<sub>4</sub>",
        "Molecular Mass": "148.16",
        "Boiling Point": "66.0-66.5 °C @ Press: 18 Torr",
        "Density": "1.0678 g/cm³ @ Temp: 19.800009765625 °C"
    }
}