{
    "cas_no": "30286-75-0",
    "key_name": "Oxitropium bromide",
    "cn_name": null,
    "alternate_name": "3-Oxa-9-azoniatricyclo[3.3.1.0<sup>2,4</sup>]nonane, 9-ethyl-7-[(2<em>S</em>)-3-hydroxy-1-oxo-2-phenylpropoxy]-9-methyl-, bromide (1:1), (1α,2β,4β,5α,7β)-;3-Oxa-9-azoniatricyclo[3.3.1.0<sup>2,4</sup>]nonane, 9-ethyl-7-(3-hydroxy-1-oxo-2-phenylpropoxy)-9-methyl-, bromide, [7(<em>S</em>)-(1α,2β,4β,5α,7β)]-;<em>N</em>-Ethylscopolammonium bromide;3-Oxa-9-azoniatricyclo[3.3.1.0<sup>2,4</sup>]nonane, 9-ethyl-7-[(2<em>S</em>)-3-hydroxy-1-oxo-2-phenylpropoxy]-9-methyl-, bromide, (1α,2β,4β,5α,7β)-;<em>N</em>-Ethylnorscopolamine methyl bromide;Oxytropium bromide;Oxitropium bromide;Scopolamine ethobromide;Hyoscine ethobromide;Ba 253Br;Ba 253;Tersigan;Ventilat;Oxivent;Ba 253BR-L;Tersigat",
    "duplicated_cas_no": "2019-63-8",
    "SMILES": "C(C)[N@+]1(C)[C@]2([C@@]3([C@@](O3)([C@@]1(C[C@H](OC([C@H](CO)C4=CC=CC=C4)=O)C2)[H])[H])[H])[H].[Br-]",
    "meta_data": {
        "InChI": "InChI=1S/C19H26NO4.BrH/c1-3-20(2)15-9-13(10-16(20)18-17(15)24-18)23-19(22)14(11-21)12-7-5-4-6-8-12;/h4-8,13-18,21H,3,9-11H2,1-2H3;1H/q+1;/p-1/t13-,14-,15-,16+,17-,18+,20-;/m1./s1",
        "InChIKey": null,
        "Canonical SMILES": "[Br-].O=C(OC1CC2C3OC3C(C1)[N+]2(C)CC)C(C=4C=CC=CC4)CO",
        "Molecular Formula": "C<sub>19</sub>H<sub>26</sub>NO<sub>4</sub>.Br",
        "Molecular Mass": "",
        "Melting Point": "203-204 °C (decomp)"
    }
}