{
    "cas_no": "140-53-4",
    "key_name": "(4-Chlorophenyl)acetonitrile",
    "cn_name": "对氯苯乙腈;",
    "alternate_name": "Benzeneacetonitrile, 4-chloro-;Acetonitrile, (<em>p</em>-chlorophenyl)-;4-Chlorobenzeneacetonitrile;(<em>p</em>-Chlorophenyl)acetonitrile;<em>p</em>-Chlorobenzyl cyanide;(4-Chlorophenyl)acetonitrile;4-Chlorobenzyl cyanide;2-(4-Chlorophenyl)acetonitrile;<em>p</em>-Chloro-α-cyanotoluene;4-Chlorobenzyl nitrile;<em>p</em>-Chlorbenzylnitrile;NSC 49108",
    "duplicated_cas_no": "",
    "SMILES": "C(C#N)C1=CC=C(Cl)C=C1",
    "meta_data": {
        "InChI": "InChI=1S/C8H6ClN/c9-8-3-1-7(2-4-8)5-6-10/h1-4H,5H2",
        "InChIKey": null,
        "Canonical SMILES": "N#CCC1=CC=C(Cl)C=C1",
        "Molecular Formula": "C<sub>8</sub>H<sub>6</sub>ClN",
        "Molecular Mass": "151.59",
        "Boiling Point": "100-101 °C @ Press: 1 Torr",
        "Melting Point": "30 °C",
        "Density": "1.1968 g/cm³ @ Temp: 20 °C"
    }
}