{
    "cas_no": "74-98-6",
    "key_name": "Propane",
    "cn_name": "丙烷;正丙烷;高纯丙烷;",
    "alternate_name": "Propane;Dimethylmethane;Propyl hydride;R 290;<em>n</em>-Propane;Liquefied petroleum gas;LPG;HC 290;Purifrigor P 2;Purifrigor P 2.5;Purifrigor P 3;Purifrigor P 3.5;R 280;MeSH ID: D011407",
    "duplicated_cas_no": "",
    "SMILES": "C(C)C",
    "meta_data": {
        "InChI": "InChI=1S/C3H8/c1-3-2/h3H2,1-2H3",
        "InChIKey": null,
        "Canonical SMILES": "CCC",
        "Molecular Formula": "C<sub>3</sub>H<sub>8</sub>",
        "Molecular Mass": "44.10",
        "Boiling Point": "-42.1 °C @ Press: 800 Torr",
        "Melting Point": "-189.7 °C",
        "Density": "0.5853 g/cm³ @ Temp: -45 °C"
    }
}