{
    "cas_no": "456-42-8",
    "key_name": "3-Fluorobenzyl chloride",
    "cn_name": "间氟氯苄;3-氟氯苄;",
    "alternate_name": "Benzene, 1-(chloromethyl)-3-fluoro-;Toluene, α-chloro-<em>m</em>-fluoro-;1-(Chloromethyl)-3-fluorobenzene;<em>m</em>-Fluorobenzyl chloride;3-Fluorobenzyl chloride;α-Chloro-3-fluorotoluene;α-Chloro-<em>m</em>-fluorotoluene;3-Fluorophenylmethyl chloride;NSC 60720",
    "duplicated_cas_no": "",
    "SMILES": "C(Cl)C1=CC(F)=CC=C1",
    "meta_data": {
        "InChI": "InChI=1S/C7H6ClF/c8-5-6-2-1-3-7(9)4-6/h1-4H,5H2",
        "InChIKey": null,
        "Canonical SMILES": "FC1=CC=CC(=C1)CCl",
        "Molecular Formula": "C<sub>7</sub>H<sub>6</sub>ClF",
        "Molecular Mass": "144.57",
        "Boiling Point": "176 °C @ Press: 756 Torr",
        "Melting Point": "34.5-36 °C",
        "Density": "1.2135 g/cm³ @ Temp: 20 °C"
    }
}