{
    "cas_no": "3484-10-4",
    "key_name": "2-Methyl-4-nitro-1<em>H</em>-indole",
    "cn_name": null,
    "alternate_name": "1<em>H</em>-Indole, 2-methyl-4-nitro-;Indole, 2-methyl-4-nitro-;2-Methyl-4-nitro-1<em>H</em>-indole;2-Methyl-4-nitroindole",
    "duplicated_cas_no": "",
    "SMILES": "N(=O)(=O)C1=C2C(NC(C)=C2)=CC=C1",
    "meta_data": {
        "InChI": "InChI=1S/C9H8N2O2/c1-6-5-7-8(10-6)3-2-4-9(7)11(12)13/h2-5,10H,1H3",
        "InChIKey": null,
        "Canonical SMILES": "O=N(=O)C=1C=CC=C2NC(=CC21)C",
        "Molecular Formula": "C<sub>9</sub>H<sub>8</sub>N<sub>2</sub>O<sub>2</sub>",
        "Molecular Mass": "176.17",
        "Melting Point": "192-194 °C"
    }
}