{
    "cas_no": "142-25-6",
    "key_name": "<em>N</em>,<em>N</em>,<em>N</em>′-Trimethylethylenediamine",
    "cn_name": "N,N,N\"-三甲基乙二胺;",
    "alternate_name": "1,2-Ethanediamine, <em>N</em><sup>1</sup>,<em>N</em><sup>1</sup>,<em>N</em><sup>2</sup>-trimethyl-;Ethylenediamine, <em>N</em>,<em>N</em>,<em>N</em>′-trimethyl-;1,2-Ethanediamine, <em>N</em>,<em>N</em>,<em>N</em>′-trimethyl-;<em>N</em><sup>1</sup>,<em>N</em><sup>1</sup>,<em>N</em><sup>2</sup>-Trimethyl-1,2-ethanediamine;<em>N</em>,<em>N</em>,<em>N</em>′-Trimethyldiaminoethane;<em>N</em>,<em>N</em>,<em>N</em>′-Trimethylethylenediamine;2-(Dimethylamino)-<em>N</em>-methylethylamine;<em>N</em>,<em>N</em>,<em>N</em>′-Trimethyl-1,2-ethanediamine;<em>N</em>,<em>N</em>,<em>N</em>′-Trimethylethanediamine;<em>N</em>,<em>N</em>,<em>N</em>′-Trimethyl-1,2-diaminoethane;<em>N</em>,<em>N</em>′,<em>N</em>′-Trimethylethylenediamine;<em>N</em>,<em>N</em>,<em>N</em>′-Trimethyl-1,2-ethylenediamine;1-(Dimethylamino)-2-(methylamino)ethane;[2-(Dimethylamino)ethyl]methylamine;1-(<em>N</em>,<em>N</em>-Dimethylamino)-2-(<em>N</em>-methylamino)ethane;<em>N</em>-[2-(Dimethylamino)ethyl]-<em>N</em>-methylamine;Methyl(2-(dimethylamino)ethyl)amine;<em>N</em>-Methyl-<em>N</em>′,<em>N</em>′-dimethylethylenediamine;<em>N</em>-[2-(Dimethylamino)ethyl]methylamine;<em>N</em>,<em>N</em>′,<em>N</em>′-Trimethylethane-1,2-diamine;<em>N</em><sup>1</sup>,<em>N</em><sup>1</sup>,<em>N</em><sup>2</sup>-Trimethylethane-1,2-diamine;<em>N</em>′,<em>N</em>,<em>N</em>-Trimethylethylenediamine;<em>N</em>,<em>N</em>,<em>N</em>′-Trimethylethan-1,2-diamine;<em>N</em>,<em>N</em>′,<em>N</em>′-Trimethylethan-1,2-diamine",
    "duplicated_cas_no": "1846580-43-5",
    "SMILES": "C(N(C)C)CNC",
    "meta_data": {
        "InChI": "InChI=1S/C5H14N2/c1-6-4-5-7(2)3/h6H,4-5H2,1-3H3",
        "InChIKey": null,
        "Canonical SMILES": "N(C)CCN(C)C",
        "Molecular Formula": "C<sub>5</sub>H<sub>14</sub>N<sub>2</sub>",
        "Molecular Mass": "102.18",
        "Boiling Point": "117 °C"
    }
}