{
    "cas_no": "2725-22-6",
    "key_name": "2-[4,6-Bis(2,4-dimethylphenyl)-1,3,5-triazin-2-yl]-5-(octyloxy)phenol",
    "cn_name": "紫外吸收剂UV-1164;2-(4,6-双(2,4-二甲基苯基)-1,3,5-三嗪-2-基)-5-辛氧基酚;",
    "alternate_name": "Phenol, 2-[4,6-bis(2,4-dimethylphenyl)-1,3,5-triazin-2-yl]-5-(octyloxy)-;Phenol, 2-(4,6-di-2,4-xylyl-<em>s</em>-triazin-2-yl)-5-(octyloxy)-;2-[4,6-Bis(2,4-dimethylphenyl)-1,3,5-triazin-2-yl]-5-(octyloxy)phenol;Cyasorb 1164;Cyasorb UV 1164;UV 1164;2,4-Bis(2,4-dimethylphenyl)-6-(2-hydroxy-4-octyloxyphenyl)-1,3,5-triazine;Tinuvin 1545;2,4-Bis(2,4-dimethylphenyl)-6-(2-hydroxy-4-octyloxyphenyl)-<em>s</em>-triazine;2-(4,6-Bis(2,4-dimethylphenyl)-1,3,5-triazine-2-yl)-5-octyloxyphenol;Cytec UV 1164;Cyagard UV 1164;2,6-Bis(2,4-dimethylphenyl)-4-(2-hydroxy-4-octyloxyphenyl)-<em>s</em>-triazine;2,4-Bis(2,4-dimethylphenyl)-6-(2-hydroxy-4-<em>n</em>-octyloxyphenyl)-1,3,5-triazine;2-(2-Hydroxy-4-octyloxyphenyl)-4,6-bis(2,4-dimethylphenyl)-1,3,5-triazine;Chiguard 1064;Triazine 425;UV 164;Eusorb UV 164;Kemisorb 102;Riasorb UV 1164;UV 9064;UVA 1164",
    "duplicated_cas_no": "1451950-15-4;1639120-27-6;2303884-61-7",
    "SMILES": "OC1=C(C=2N=C(N=C(N2)C3=C(C)C=C(C)C=C3)C4=C(C)C=C(C)C=C4)C=CC(OCCCCCCCC)=C1",
    "meta_data": {
        "InChI": "InChI=1S/C33H39N3O2/c1-6-7-8-9-10-11-18-38-26-14-17-29(30(37)21-26)33-35-31(27-15-12-22(2)19-24(27)4)34-32(36-33)28-16-13-23(3)20-25(28)5/h12-17,19-21,37H,6-11,18H2,1-5H3",
        "InChIKey": null,
        "Canonical SMILES": "OC=1C=C(OCCCCCCCC)C=CC1C=2N=C(N=C(N2)C=3C=CC(=CC3C)C)C=4C=CC(=CC4C)C",
        "Molecular Formula": "C<sub>33</sub>H<sub>39</sub>N<sub>3</sub>O<sub>2</sub>",
        "Molecular Mass": "509.68",
        "Melting Point": "83.5-84.0 °C"
    }
}