{
    "cas_no": "14813-85-5",
    "key_name": "1,3-Dihydro-1-phenyl-2<em>H</em>-benzimidazol-2-one",
    "cn_name": null,
    "alternate_name": "2<em>H</em>-Benzimidazol-2-one, 1,3-dihydro-1-phenyl-;2-Benzimidazolinone, 1-phenyl-;2-Benzimidazolol, 1-phenyl-;1,3-Dihydro-1-phenyl-2<em>H</em>-benzimidazol-2-one;1-Phenyl-2(3<em>H</em>)-benzimidazolone;1-Phenyl-2-benzimidazolinone;1-Phenyl-1,3-dihydro-2<em>H</em>-benzimidazol-2-one;1-Phenyl-1<em>H</em>-benzo[<em>d</em>]imidazol-2(3<em>H</em>)-one;1-Phenyl-1,3-dihydro-benzoimidazol-2-one;1-Phenyl-2,3-dihydro-1<em>H</em>-1,3-benzodiazol-2-one;1-Phenyl-1<em>H</em>-benzimidazol-2(3<em>H</em>)-one;3-Phenyl-1<em>H</em>-benzimidazol-2-one;1-Phenyl-1,3-dihydro-2<em>H</em>-benzo[<em>d</em>]imidazol-2-one",
    "duplicated_cas_no": "",
    "SMILES": "O=C1N(C=2C(N1)=CC=CC2)C3=CC=CC=C3",
    "meta_data": {
        "InChI": "InChI=1S/C13H10N2O/c16-13-14-11-8-4-5-9-12(11)15(13)10-6-2-1-3-7-10/h1-9H,(H,14,16)",
        "InChIKey": null,
        "Canonical SMILES": "O=C1NC=2C=CC=CC2N1C=3C=CC=CC3",
        "Molecular Formula": "C<sub>13</sub>H<sub>10</sub>N<sub>2</sub>O",
        "Molecular Mass": "210.23",
        "Melting Point": "201-202 °C"
    }
}