{
    "cas_no": "627-90-7",
    "key_name": "Ethyl undecanoate",
    "cn_name": "十一酸乙酯;",
    "alternate_name": "Undecanoic acid, ethyl ester;Hendecanoic acid, ethyl ester;Ethyl undecylate;Ethyl undecanoate;NSC 97265",
    "duplicated_cas_no": "",
    "SMILES": "C(CCCCCCCCC)C(OCC)=O",
    "meta_data": {
        "InChI": "InChI=1S/C13H26O2/c1-3-5-6-7-8-9-10-11-12-13(14)15-4-2/h3-12H2,1-2H3",
        "InChIKey": null,
        "Canonical SMILES": "O=C(OCC)CCCCCCCCCC",
        "Molecular Formula": "C<sub>13</sub>H<sub>26</sub>O<sub>2</sub>",
        "Molecular Mass": "214.34",
        "Boiling Point": "131 °C",
        "Melting Point": "-15 °C"
    }
}