{
    "cas_no": "1772-01-6",
    "key_name": "<em>N</em>-Hydroxy-2-pyridinecarboximidamide",
    "cn_name": "2-吡啶基脒肟;",
    "alternate_name": "2-Pyridinecarboximidamide, <em>N</em>-hydroxy-;Picolinamidoxime;<em>N</em>-Hydroxy-2-pyridinecarboximidamide;2-Pyridylamidoxime;Picolinic acid amidoxime;Pyridine-2-amidoxime;Picolinamide oxime;2-Pyridinecarboxamidoxime;<em>N</em>′-Hydroxy-2-pyridinecarboximidamide;2-Pyridinecarboxamide oxime",
    "duplicated_cas_no": "",
    "SMILES": "C(NO)(=N)C1=CC=CC=N1",
    "meta_data": {
        "InChI": "InChI=1S/C6H7N3O/c7-6(9-10)5-3-1-2-4-8-5/h1-4,10H,(H2,7,9)",
        "InChIKey": null,
        "Canonical SMILES": "N=C(NO)C1=NC=CC=C1",
        "Molecular Formula": "C<sub>6</sub>H<sub>7</sub>N<sub>3</sub>O",
        "Molecular Mass": "137.14",
        "Melting Point": "115.5-116 °C"
    }
}