{
    "cas_no": "14046-55-0",
    "key_name": "1-(3,4-Dimethoxyphenyl)-2-methyl-1-propanone",
    "cn_name": null,
    "alternate_name": "1-Propanone, 1-(3,4-dimethoxyphenyl)-2-methyl-;Propiophenone, 3′,4′-dimethoxy-2-methyl-;1-(3,4-Dimethoxyphenyl)-2-methyl-1-propanone;3′,4′-Dimethoxyisobutyrophenone;2-Methyl-1-(3,4-dimethoxyphenyl)-1-propanone;3,4-Dimethoxyphenyl isopropyl ketone;NSC 63844;1-(3,4-Dimethoxyphenyl)-2-methylpropanone",
    "duplicated_cas_no": "",
    "SMILES": "C(C(C)C)(=O)C1=CC(OC)=C(OC)C=C1",
    "meta_data": {
        "InChI": "InChI=1S/C12H16O3/c1-8(2)12(13)9-5-6-10(14-3)11(7-9)15-4/h5-8H,1-4H3",
        "InChIKey": null,
        "Canonical SMILES": "O=C(C1=CC=C(OC)C(OC)=C1)C(C)C",
        "Molecular Formula": "C<sub>12</sub>H<sub>16</sub>O<sub>3</sub>",
        "Molecular Mass": "208.25",
        "Boiling Point": "117-126 °C @ Press: 0.1-0.7 Torr"
    }
}