{
    "cas_no": "36082-50-5",
    "key_name": "5-Bromo-2,4-dichloropyrimidine",
    "cn_name": "5-溴-2,4-二氯嘧啶;",
    "alternate_name": "Pyrimidine, 5-bromo-2,4-dichloro-;5-Bromo-2,4-dichloropyrimidine;5-Bromo-2,6-dichloropyrimidine;2,4-Dichloro-5-bromopyrimidine;NSC 152517;2,6-Dichloro-5-bromopyrimidine",
    "duplicated_cas_no": "",
    "SMILES": "ClC=1C(Br)=CN=C(Cl)N1",
    "meta_data": {
        "InChI": "InChI=1S/C4HBrCl2N2/c5-2-1-8-4(7)9-3(2)6/h1H",
        "InChIKey": null,
        "Canonical SMILES": "ClC1=NC=C(Br)C(Cl)=N1",
        "Molecular Formula": "C<sub>4</sub>HBrCl<sub>2</sub>N<sub>2</sub>",
        "Molecular Mass": "227.87",
        "Boiling Point": "112-113 °C @ Press: 12 Torr"
    }
}