{
    "cas_no": "110-26-9",
    "key_name": "Methylenebisacrylamide",
    "cn_name": "N,N\"-亚甲基双丙烯酰胺;",
    "alternate_name": "2-Propenamide, <em>N</em>,<em>N</em>′-methylenebis-;Acrylamide, <em>N</em>,<em>N</em>′-methylenebis-;<em>N</em>,<em>N</em>′-Methylenebis[2-propenamide];Methylenebisacrylamide;<em>N</em>,<em>N</em>′-Methylenediacrylamide;<em>N</em>,<em>N</em>′-Methylenebis(acrylamide);Methylenediacrylamide;<em>N</em>,<em>N</em>′-Diacryloylmethylenediamine;Bisacrylamide;MBA;NSC 406836;NSC 7774;Triam 507;NMBA;MBAA;<em>N</em>,<em>N</em>′-Methylenebis(2-propenamide);N,N′-Methylenebis(2-propenamide);<em>N</em>,<em>N</em>′-Methylenebis(acrylamine);M 2877;M 7279;M 104022;Aladdin E 124733;14085E;MBAAm;NNMBAA",
    "duplicated_cas_no": "1227834-36-7;1847434-28-9",
    "SMILES": "N(CNC(C=C)=O)C(C=C)=O",
    "meta_data": {
        "InChI": "InChI=1S/C7H10N2O2/c1-3-6(10)8-5-9-7(11)4-2/h3-4H,1-2,5H2,(H,8,10)(H,9,11)",
        "InChIKey": null,
        "Canonical SMILES": "O=C(C=C)NCNC(=O)C=C",
        "Molecular Formula": "C<sub>7</sub>H<sub>10</sub>N<sub>2</sub>O<sub>2</sub>",
        "Molecular Mass": "154.17",
        "Melting Point": "181-182 °C"
    }
}