{
    "cas_no": "7440-38-2",
    "key_name": "Arsenic",
    "cn_name": "砷;",
    "alternate_name": "Arsenic;Arsenic-75;Arsenic black;MeSH ID: D001151",
    "duplicated_cas_no": "39277-51-5;55624-62-9",
    "SMILES": "[As]",
    "meta_data": {
        "InChI": "InChI=1S/As",
        "InChIKey": null,
        "Canonical SMILES": "[As]",
        "Molecular Formula": "As",
        "Molecular Mass": "",
        "Boiling Point": "615 °C",
        "Melting Point": "613 °C (sublm)",
        "Density": "5.778 g/cm³ @ Temp: 25 °C"
    }
}