{
    "cas_no": "200575-15-1",
    "key_name": "4-[[2-Ethoxy-5-[(4-methyl-1-piperazinyl)sulfonyl]benzoyl]amino]-1-methyl-3-propyl-1<em>H</em>-pyrazole-5-carboxamide",
    "cn_name": null,
    "alternate_name": "1<em>H</em>-Pyrazole-5-carboxamide, 4-[[2-ethoxy-5-[(4-methyl-1-piperazinyl)sulfonyl]benzoyl]amino]-1-methyl-3-propyl-;4-[[2-Ethoxy-5-[(4-methyl-1-piperazinyl)sulfonyl]benzoyl]amino]-1-methyl-3-propyl-1<em>H</em>-pyrazole-5-carboxamide;4-[2-Ethoxy-5-(4-methyl-1-piperazinylsulfonyl)benzamido]-1-methyl-3-propyl-1<em>H</em>-pyrazole-5-carboxamide",
    "duplicated_cas_no": "",
    "SMILES": "N(C(=O)C1=C(OCC)C=CC(S(=O)(=O)N2CCN(C)CC2)=C1)C=3C(CCC)=NN(C)C3C(N)=O",
    "meta_data": {
        "InChI": "InChI=1S/C22H32N6O5S/c1-5-7-17-19(20(21(23)29)27(4)25-17)24-22(30)16-14-15(8-9-18(16)33-6-2)34(31,32)28-12-10-26(3)11-13-28/h8-9,14H,5-7,10-13H2,1-4H3,(H2,23,29)(H,24,30)",
        "InChIKey": null,
        "Canonical SMILES": "O=C(N)C1=C(NC(=O)C2=CC(=CC=C2OCC)S(=O)(=O)N3CCN(C)CC3)C(=NN1C)CCC",
        "Molecular Formula": "C<sub>22</sub>H<sub>32</sub>N<sub>6</sub>O<sub>5</sub>S",
        "Molecular Mass": "492.59",
        "Melting Point": "208-210 °C"
    }
}