{
    "cas_no": "406-78-0",
    "key_name": "1,1,2,2-Tetrafluoro-1-(2,2,2-trifluoroethoxy)ethane",
    "cn_name": "1,1,2,2-四氟乙基-2,2,2-三氟乙基醚;",
    "alternate_name": "Ethane, 1,1,2,2-tetrafluoro-1-(2,2,2-trifluoroethoxy)-;Ether, 1,1,2,2-tetrafluoroethyl 2,2,2-trifluoroethyl;1,1,2,2-Tetrafluoro-1-(2,2,2-trifluoroethoxy)ethane;2,2,2-Trifluoroethyl 1,1,2,2-tetrafluoroethyl ether;347mcfEβγ;1-(2,2,2-Trifluoroethoxy)-1,1,2,2-tetrafluoroethane;HFE 347pc-f;HFE-S 7;1,1,2,2-Tetrafluoroethyl 2,2,2-trifluoroethyl ether;S 7;S 7 (ether);HFE 347;AE 3000;Asahiklin AE 3000;(2,2,2-Trifluoroethoxy)-1,1,2,2-tetrafluoroethane;HFE 347pcf2;Asahiklin AE 3100;Asahiklin AE 3100E;HFE 3400;HFE",
    "duplicated_cas_no": "",
    "SMILES": "O(C(C(F)F)(F)F)CC(F)(F)F",
    "meta_data": {
        "InChI": "InChI=1S/C4H3F7O/c5-2(6)4(10,11)12-1-3(7,8)9/h2H,1H2",
        "InChIKey": null,
        "Canonical SMILES": "FC(F)C(F)(F)OCC(F)(F)F",
        "Molecular Formula": "C<sub>4</sub>H<sub>3</sub>F<sub>7</sub>O",
        "Molecular Mass": "200.05",
        "Boiling Point": "56.2 °C",
        "Density": "1.4874 g/cm³ @ Temp: 20 °C"
    }
}