{
    "cas_no": "1014-70-6",
    "key_name": "Simetryn",
    "cn_name": "西草净;2-甲硫基-4,6-二乙胺基-1,3,4-三嗪;",
    "alternate_name": "1,3,5-Triazine-2,4-diamine, <em>N</em><sup>2</sup>,<em>N</em><sup>4</sup>-diethyl-6-(methylthio)-;<em>s</em>-Triazine, 2,4-bis(ethylamino)-6-(methylthio)-;1,3,5-Triazine-2,4-diamine, <em>N</em>,<em>N</em>′-diethyl-6-(methylthio)-;<em>N</em><sup>2</sup>,<em>N</em><sup>4</sup>-Diethyl-6-(methylthio)-1,3,5-triazine-2,4-diamine;G 32911;2,4-Bis(ethylamino)-6-methylmercapto-<em>s</em>-triazine;2-Methylmercapto-4,6-bis(ethylamino)-<em>s</em>-triazine;2-Methylthio-4,6-bis(ethylamino)-<em>s</em>-triazine;Simetryn;Simetryne;4,6-Bis(ethylamino)-2-methylthio-1,3,5-triazine;2-Methylthio-4-ethylamino-6-ethylamino-<em>s</em>-triazine;2-Methylthio-4,6-bis(ethylamino)-1,3,5-triazine;2,4-Diethylamino-6-methylthio-1,3,5-triazine;6-Methylthio-2,4-bis(ethylamino)-<em>s</em>-triazine;2,4-Bis(ethylamino)-6-methylthio-1,3,5-triazine;NSC 163051;<em>N</em>,<em>N</em>′-Diethyl-6-(methylthio)-1,3,5-triazine-2,4-diamine;Gybon",
    "duplicated_cas_no": "",
    "SMILES": "N(CC)C=1N=C(NCC)N=C(SC)N1",
    "meta_data": {
        "InChI": "InChI=1S/C8H15N5S/c1-4-9-6-11-7(10-5-2)13-8(12-6)14-3/h4-5H2,1-3H3,(H2,9,10,11,12,13)",
        "InChIKey": null,
        "Canonical SMILES": "N=1C(=NC(=NC1NCC)NCC)SC",
        "Molecular Formula": "C<sub>8</sub>H<sub>15</sub>N<sub>5</sub>S",
        "Molecular Mass": "213.30",
        "Melting Point": "82.5 °C"
    }
}