{
    "cas_no": "206055-89-2",
    "key_name": "3-(4-Fluorophenyl)-5-isoxazolemethanol",
    "cn_name": null,
    "alternate_name": "5-Isoxazolemethanol, 3-(4-fluorophenyl)-;3-(4-Fluorophenyl)-5-isoxazolemethanol;[3-(4-Fluorophenyl)isoxazol-5-yl]methanol",
    "duplicated_cas_no": "",
    "SMILES": "C(O)C1=CC(=NO1)C2=CC=C(F)C=C2",
    "meta_data": {
        "InChI": "InChI=1S/C10H8FNO2/c11-8-3-1-7(2-4-8)10-5-9(6-13)14-12-10/h1-5,13H,6H2",
        "InChIKey": null,
        "Canonical SMILES": "FC=1C=CC(=CC1)C2=NOC(=C2)CO",
        "Molecular Formula": "C<sub>10</sub>H<sub>8</sub>FNO<sub>2</sub>",
        "Molecular Mass": "193.17",
        "Melting Point": "97-98 °C"
    }
}