{
    "cas_no": "71-81-8",
    "key_name": "Isopropamide iodide",
    "cn_name": "4-碘-3-甲基苯甲酸甲酯;",
    "alternate_name": "Benzenepropanaminium, γ-(aminocarbonyl)-<em>N</em>-methyl-<em>N</em>,<em>N</em>-bis(1-methylethyl)-γ-phenyl-, iodide (1:1);(3-Carbamoyl-3,3-diphenylpropyl)diisopropylmethylammonium iodide;Ammonium, (3-carbamoyl-3,3-diphenylpropyl)diisopropylmethyl-, iodide;Benzenepropanaminium, γ-(aminocarbonyl)-<em>N</em>-methyl-<em>N</em>,<em>N</em>-bis(1-methylethyl)-γ-phenyl-, iodide;R 79;SKF 4740;Darbid;2,2-Diphenyl-4-diisopropylaminobutyramide methiodide;Isopropamide iodide;Priamide;Dipramid;Dipramide;Sanulcin;Tyrimide;Isamid;Marygin-M;5579 MD;Piaccamide;Priazimide;Isoproponum iodide",
    "duplicated_cas_no": "137405-07-3;2090-55-3;3374-86-5",
    "SMILES": "C(CC[N+](C(C)C)(C(C)C)C)(C(N)=O)(C1=CC=CC=C1)C2=CC=CC=C2.[I-]",
    "meta_data": {
        "InChI": "InChI=1S/C23H32N2O.HI/c1-18(2)25(5,19(3)4)17-16-23(22(24)26,20-12-8-6-9-13-20)21-14-10-7-11-15-21;/h6-15,18-19H,16-17H2,1-5H3,(H-,24,26);1H",
        "InChIKey": null,
        "Canonical SMILES": "[I-].O=C(N)C(C=1C=CC=CC1)(C=2C=CC=CC2)CC[N+](C)(C(C)C)C(C)C",
        "Molecular Formula": "C<sub>23</sub>H<sub>33</sub>N<sub>2</sub>O.I",
        "Molecular Mass": "",
        "Melting Point": "199 °C (decomp)"
    }
}