{
    "cas_no": "19804-27-4",
    "key_name": "4-Methyldiphenhydramine",
    "cn_name": null,
    "alternate_name": "Ethanamine, <em>N</em>,<em>N</em>-dimethyl-2-[(4-methylphenyl)phenylmethoxy]-;Ethylamine, <em>N</em>,<em>N</em>-dimethyl-2-[(<em>p</em>-methyl-α-phenylbenzyl)oxy]-;<em>N</em>,<em>N</em>-Dimethyl-2-[(4-methylphenyl)phenylmethoxy]ethanamine;<em>N</em>,<em>N</em>-Dimethyl-<em>N</em>-[2-(<em>p</em>-methyl-α-phenylbenzyloxy)ethyl]amine;4-Methyldiphenhydramine;<em>p</em>-Methylbenzhydryl 2-dimethylaminoethyl ether;<em>p</em>-Methyldiphenhydramine;Toladryl",
    "duplicated_cas_no": "33431-07-1",
    "SMILES": "C(OCCN(C)C)(C1=CC=C(C)C=C1)C2=CC=CC=C2",
    "meta_data": {
        "InChI": "InChI=1S/C18H23NO/c1-15-9-11-17(12-10-15)18(20-14-13-19(2)3)16-7-5-4-6-8-16/h4-12,18H,13-14H2,1-3H3",
        "InChIKey": null,
        "Canonical SMILES": "O(CCN(C)C)C(C=1C=CC=CC1)C2=CC=C(C=C2)C",
        "Molecular Formula": "C<sub>18</sub>H<sub>23</sub>NO",
        "Molecular Mass": "269.38",
        "Boiling Point": "143 °C",
        "Melting Point": "151-155 °C"
    }
}