{
    "cas_no": "2622-26-6",
    "key_name": "Periciazine",
    "cn_name": "氰噻嗪;氰噻嗪;",
    "alternate_name": "10<em>H</em>-Phenothiazine-2-carbonitrile, 10-[3-(4-hydroxy-1-piperidinyl)propyl]-;Phenothiazine-2-carbonitrile, 10-[3-(4-hydroxypiperidino)propyl]-;10-[3-(4-Hydroxy-1-piperidinyl)propyl]-10<em>H</em>-phenothiazine-2-carbonitrile;FI 6145;RP 8909;2-Cyano-10-[3-(4-hydroxy-1-piperidyl)propyl]phenothiazine;10-[3-(4-Hydroxypiperidino)propyl]phenothiazine-2-carbonitrile;Neulactil;Neuleptil;Periciazine;Pericyazine;Propericiazine;2-Cyano-10-[3-(4-hydroxypiperidino)propyl]phenothiazine;Aolept;Periciazinum;Bayer 1409;Nemactil;Properciazine;Nelactil;SKF 20716;Propericyazine",
    "duplicated_cas_no": "47476-90-4",
    "SMILES": "C(CCN1CCC(O)CC1)N2C=3C(SC=4C2=CC=CC4)=CC=C(C#N)C3",
    "meta_data": {
        "InChI": "InChI=1S/C21H23N3OS/c22-15-16-6-7-21-19(14-16)24(18-4-1-2-5-20(18)26-21)11-3-10-23-12-8-17(25)9-13-23/h1-2,4-7,14,17,25H,3,8-13H2",
        "InChIKey": null,
        "Canonical SMILES": "N#CC1=CC=C2SC=3C=CC=CC3N(C2=C1)CCCN4CCC(O)CC4",
        "Molecular Formula": "C<sub>21</sub>H<sub>23</sub>N<sub>3</sub>OS",
        "Molecular Mass": "365.49",
        "Melting Point": "116-117 °C"
    }
}