{
    "cas_no": "1798-09-0",
    "key_name": "(3-Methoxyphenyl)acetic acid",
    "cn_name": "3-甲氧基苯乙酸;间甲氧基苯乙酸;",
    "alternate_name": "Benzeneacetic acid, 3-methoxy-;Acetic acid, (<em>m</em>-methoxyphenyl)-;3-Methoxybenzeneacetic acid;(<em>m</em>-Methoxyphenyl)acetic acid;(3-Methoxyphenyl)acetic acid;<em>m</em>-Anisylacetic acid;2-(3-Methoxyphenyl)acetic acid;[3-(Methyloxy)phenyl]acetic acid;3-Methoxy-2-phenylacetic acid",
    "duplicated_cas_no": "",
    "SMILES": "C(C(O)=O)C1=CC(OC)=CC=C1",
    "meta_data": {
        "InChI": "InChI=1S/C9H10O3/c1-12-8-4-2-3-7(5-8)6-9(10)11/h2-5H,6H2,1H3,(H,10,11)",
        "InChIKey": null,
        "Canonical SMILES": "O=C(O)CC=1C=CC=C(OC)C1",
        "Molecular Formula": "C<sub>9</sub>H<sub>10</sub>O<sub>3</sub>",
        "Molecular Mass": "166.17",
        "Melting Point": "71-73 °C"
    }
}