{
    "cas_no": "109-55-7",
    "key_name": "<em>N</em>,<em>N</em>-Dimethyl-1,3-propanediamine",
    "cn_name": "N,N-二甲基-1,3-二氨基丙烷;DMPDA;",
    "alternate_name": "1,3-Propanediamine, <em>N</em><sup>1</sup>,<em>N</em><sup>1</sup>-dimethyl-;1,3-Propanediamine, <em>N</em>,<em>N</em>-dimethyl-;<em>N</em><sup>1</sup>,<em>N</em><sup>1</sup>-Dimethyl-1,3-propanediamine;<em>N</em>,<em>N</em>-Dimethyl-1,3-diaminopropane;<em>N</em>,<em>N</em>-Dimethyl-1,3-propylenediamine;<em>N</em>,<em>N</em>-Dimethyl-<em>N</em>-(3-aminopropyl)amine;<em>N</em>,<em>N</em>-Dimethyltrimethylenediamine;γ-Dimethylaminopropylamine;1-Amino-3-(dimethylamino)propane;3-Amino-1-(dimethylamino)propane;3-(Dimethylamino)-1-propylamine;1-(Dimethylamino)-3-aminopropane;3-(Dimethylamino)-1-propanamine;<em>N</em>,<em>N</em>-Dimethylpropylenediamine;(3-Aminopropyl)dimethylamine;3-(Dimethylamino)propanamine;3-(Dimethylamino)-1-aminopropane;<em>N</em>,<em>N</em>-Dimethyl-1,3-propanediamine;3-<em>N</em>,<em>N</em>-Dimethylaminopropylamine;<em>N</em>-Aminopropyl-<em>N</em>,<em>N</em>-dimethylamine;3-(Dimethylamino)propylamine;NSC 1067;(3-Dimethylaminopropan-1-yl)amine;<em>N</em>′,<em>N</em>′-Dimethylpropane-1,3-diamine;<em>N</em>,<em>N</em>-Dimethyl-3-aminopropylamine;<em>N</em>-(3-Dimethylaminopropyl)amine;3-(<em>N</em>,<em>N</em>-Dimethylamino)-1-propylamine;U-CAT 2000;N1,N1-Dimethylpropane-1,3-diamine;DMAPA;<em>N</em>,<em>N</em>-Dimethylaminopropyl-1-amine",
    "duplicated_cas_no": "68497-58-5;1190921-64-2",
    "SMILES": "C(N(C)C)CCN",
    "meta_data": {
        "InChI": "InChI=1S/C5H14N2/c1-7(2)5-3-4-6/h3-6H2,1-2H3",
        "InChIKey": null,
        "Canonical SMILES": "NCCCN(C)C",
        "Molecular Formula": "C<sub>5</sub>H<sub>14</sub>N<sub>2</sub>",
        "Molecular Mass": "102.18",
        "Boiling Point": "123 °C",
        "Melting Point": "-70 °C",
        "Density": "0.8100 g/cm³ @ Temp: 30 °C"
    }
}