{
    "cas_no": "7779-31-9",
    "key_name": "3,3,5-Trimethylcyclohexyl methacrylate",
    "cn_name": null,
    "alternate_name": "2-Propenoic acid, 2-methyl-, 3,3,5-trimethylcyclohexyl ester;Methacrylic acid, 3,3,5-trimethylcyclohexyl ester;3,3,5-Trimethylcyclohexyl methacrylate;Isophoryl methacrylate;SR 421A;CD 421;3,3,5-Trimethylcyclohexyl 2-methylprop-2-enoate;Sartomer CD 421;Miramer M 1131",
    "duplicated_cas_no": "1638686-88-0;2762029-91-2",
    "SMILES": "O(C(C(C)=C)=O)C1CC(C)(C)CC(C)C1",
    "meta_data": {
        "InChI": "InChI=1S/C13H22O2/c1-9(2)12(14)15-11-6-10(3)7-13(4,5)8-11/h10-11H,1,6-8H2,2-5H3",
        "InChIKey": null,
        "Canonical SMILES": "O=C(OC1CC(C)CC(C)(C)C1)C(=C)C",
        "Molecular Formula": "C<sub>13</sub>H<sub>22</sub>O<sub>2</sub>",
        "Molecular Mass": "210.31",
        "Boiling Point": "79 °C @ Press: 1.1 Torr",
        "Density": "0.9255 g/cm³ @ Temp: 20 °C"
    }
}