{
    "cas_no": "13734-34-4",
    "key_name": "BOC-<span class=\"text-smallcaps\">L</span>-Phenylalanine",
    "cn_name": "N-叔丁氧羰基-L-苯丙氨酸;BOC-L-苯丙氨酸;",
    "alternate_name": "<span class=\"text-smallcaps\">L</span>-Phenylalanine, <em>N</em>-[(1,1-dimethylethoxy)carbonyl]-;Alanine, <em>N</em>-carboxy-3-phenyl-, <em>N</em>-<em>tert</em>-butyl ester, <span class=\"text-smallcaps\">L</span>-;<em>N</em>-[(1,1-Dimethylethoxy)carbonyl]-<span class=\"text-smallcaps\">L</span>-phenylalanine;<em>N</em>-(<em>tert</em>-Butyloxycarbonyl)-<span class=\"text-smallcaps\">L</span>-phenylalanine;<em>tert</em>-Butoxycarbonyl-<span class=\"text-smallcaps\">L</span>-phenylalanine;<em>N</em>-(<em>tert</em>-Butoxycarbonyl)phenylalanine;(<em>tert</em>-Butoxycarbonyl)phenylalanine;<em>N</em>-(<em>tert</em>-Butoxycarbonyl)-<span class=\"text-smallcaps\">L</span>-phenylalanine;<em>N</em>-(<em>tert</em>-Butyloxycarbonyl)phenylalanine;BOC-<span class=\"text-smallcaps\">L</span>-Phenylalanine;(<em>S</em>)-<em>N</em>-(<em>tert</em>-Butoxycarbonyl)phenylalanine;<em>N</em>-BOC-<span class=\"text-smallcaps\">L</span>-phenylalanine;<em>N</em>-(<em>tert</em>-Butoxycarbonyl)-(<em>S</em>)-phenylalanine;<em>N</em>-<em>t</em>-BOC-<span class=\"text-smallcaps\">L</span>-phenylalanine;<em>N</em>-BOC-phenylalanine;(2<em>S</em>)-2-((<em>tert</em>-Butoxycarbonyl)amino)-3-phenylpropionic acid;(2<em>S</em>)-2-(<em>tert</em>-Butoxycarbonylamino)-3-phenylpropanoic acid;NSC 111172;<em>N</em>-BOC-(<em>S</em>)-phenylalanine;(<em>S</em>)-2-[(<em>tert</em>-Butoxycarbonyl)amino]-3-phenylpropionic acid;(<em>S</em>)-<em>N</em>-Boc-phenylalanine;(<em>S</em>)-2-(<em>tert</em>-Butoxycarbonylamino)-3-phenylpropanoic acid;6: PN: RU2506269 PAGE: 13 claimed sequence;Boc-<span class=\"text-smallcaps\">L</span>-Phe-OH;(2S)-2-[(2-Methylpropan-2-yl)oxycarbonylamino]-3-phenylpropanoic acid;(2S)-2-(<em>tert</em>-Butoxycarbonylamino)-3-phenyl-propanoic acid;(2S)-2-[[(<em>tert</em>-Butoxy)carbonyl]amino]-3-phenylpropanoic acid",
    "duplicated_cas_no": "92761-90-5;3033255-06-7",
    "SMILES": "[C@@H](CC1=CC=CC=C1)(NC(OC(C)(C)C)=O)C(O)=O",
    "meta_data": {
        "InChI": "InChI=1S/C14H19NO4/c1-14(2,3)19-13(18)15-11(12(16)17)9-10-7-5-4-6-8-10/h4-8,11H,9H2,1-3H3,(H,15,18)(H,16,17)/t11-/m0/s1",
        "InChIKey": null,
        "Canonical SMILES": "O=C(OC(C)(C)C)NC(C(=O)O)CC=1C=CC=CC1",
        "Molecular Formula": "C<sub>14</sub>H<sub>19</sub>NO<sub>4</sub>",
        "Molecular Mass": "265.30",
        "Melting Point": "79-80 °C"
    }
}