{
    "cas_no": "14487-45-7",
    "key_name": "5-Methyl hydrogen glutamate",
    "cn_name": null,
    "alternate_name": "Glutamic acid, 5-methyl ester;Glutamic acid, 5-methyl ester, <span class=\"text-smallcaps\">DL</span>-;<span class=\"text-smallcaps\">DL</span>-Glutamic acid, 5-methyl ester;5-Methyl hydrogen glutamate;2-Amino-5-methoxy-5-oxopentanoic acid;2-Amino-pentanedioic acid 5-methyl ester",
    "duplicated_cas_no": "",
    "SMILES": "C(CC(OC)=O)C(C(O)=O)N",
    "meta_data": {
        "InChI": "InChI=1S/C6H11NO4/c1-11-5(8)3-2-4(7)6(9)10/h4H,2-3,7H2,1H3,(H,9,10)",
        "InChIKey": null,
        "Canonical SMILES": "O=C(O)C(N)CCC(=O)OC",
        "Molecular Formula": "C<sub>6</sub>H<sub>11</sub>NO<sub>4</sub>",
        "Molecular Mass": "161.16",
        "Melting Point": "183 °C (decomp)"
    }
}