{
    "cas_no": "120279-26-7",
    "key_name": "4<em>H</em>-Thieno[2,3-<em>b</em>]thiopyran-2-sulfonamide, 5,6-dihydro-4-hydroxy-6-methyl-, 7,7-dioxide",
    "cn_name": "5,6-二氢-4-羟基-6-甲基-4H-噻吩并[2,3-b]噻喃-2-磺酰胺7,7-二氧化物;",
    "alternate_name": "4<em>H</em>-Thieno[2,3-<em>b</em>]thiopyran-2-sulfonamide, 5,6-dihydro-4-hydroxy-6-methyl-, 7,7-dioxide",
    "duplicated_cas_no": "1331937-64-4",
    "SMILES": "O=S1(=O)C2=C(C=C(S(N)(=O)=O)S2)C(O)CC1C",
    "meta_data": {
        "InChI": "InChI=1S/C8H11NO5S3/c1-4-2-6(10)5-3-7(17(9,13)14)15-8(5)16(4,11)12/h3-4,6,10H,2H2,1H3,(H2,9,13,14)",
        "InChIKey": null,
        "Canonical SMILES": "O=S(=O)(N)C=1SC2=C(C1)C(O)CC(C)S2(=O)=O",
        "Molecular Formula": "C<sub>8</sub>H<sub>11</sub>NO<sub>5</sub>S<sub>3</sub>",
        "Molecular Mass": "297.37",
        "Melting Point": "195-197 °C"
    }
}