{
    "cas_no": "112-88-9",
    "key_name": "1-Octadecene",
    "cn_name": "1-十八烷烯;1-十八烯;",
    "alternate_name": "1-Octadecene;α-Octadecene;Neodene 18;Dialen 18;Linealene 18;NSC 66460;Gulftene 18;Linealene C 18;AlphaPlus 1-Octadecene",
    "duplicated_cas_no": "",
    "SMILES": "C(CCCCCCCC=C)CCCCCCCC",
    "meta_data": {
        "InChI": "InChI=1S/C18H36/c1-3-5-7-9-11-13-15-17-18-16-14-12-10-8-6-4-2/h3H,1,4-18H2,2H3",
        "InChIKey": null,
        "Canonical SMILES": "C=CCCCCCCCCCCCCCCCC",
        "Molecular Formula": "C<sub>18</sub>H<sub>36</sub>",
        "Molecular Mass": "252.48",
        "Boiling Point": "144-146 °C @ Press: 3 Torr",
        "Melting Point": "17.5 °C",
        "Density": "0.7857 g/cm³ @ Temp: 25 °C"
    }
}