{
    "cas_no": "950-59-4",
    "key_name": "2,6-Bis(1,1-dimethylethyl)-4-mercaptophenol",
    "cn_name": "2,6-二叔丁基-4-巯基苯酚;",
    "alternate_name": "Phenol, 2,6-bis(1,1-dimethylethyl)-4-mercapto-;Phenol, 2,6-di-<em>tert</em>-butyl-4-mercapto-;2,6-Bis(1,1-dimethylethyl)-4-mercaptophenol;2,6-Di-<em>tert</em>-butyl-4-mercaptophenol;4-Mercapto-2,6-di-<em>tert</em>-butylphenol;3,5-Di-<em>tert</em>-butyl-4-hydroxythiophenol;3,5-Di-<em>tert</em>-butyl-4-hydroxybenzenethiol;2,6-Di-<em>tert</em>-butyl-4-thiophenol;H 327/74;2,6-Ditert-butyl-4-sulfanylphenol",
    "duplicated_cas_no": "",
    "SMILES": "C(C)(C)(C)C1=C(O)C(C(C)(C)C)=CC(S)=C1",
    "meta_data": {
        "InChI": "InChI=1S/C14H22OS/c1-13(2,3)10-7-9(16)8-11(12(10)15)14(4,5)6/h7-8,15-16H,1-6H3",
        "InChIKey": null,
        "Canonical SMILES": "OC=1C(=CC(S)=CC1C(C)(C)C)C(C)(C)C",
        "Molecular Formula": "C<sub>14</sub>H<sub>22</sub>OS",
        "Molecular Mass": "238.39",
        "Boiling Point": "85-97 °C @ Press: 0.2 Torr",
        "Melting Point": "65-69 °C"
    }
}