{
    "cas_no": "38951-97-2",
    "key_name": "(<em>SP</em>-4-1)-Bis[1,2-bis(4-methoxyphenyl)-1,2-ethenedithiolato(2-)-κ<em>S</em><sup>1</sup>,κ<em>S</em><sup>2</sup>]nickel",
    "cn_name": "双[4,4\"-二甲氧基-ALPHA,ALPHA\"-二苯乙烯二硫醇(2-)]镍;",
    "alternate_name": "Nickel, bis[1,2-bis(4-methoxyphenyl)-1,2-ethenedithiolato(2-)-κ<em>S</em><sup>1</sup>,κ<em>S</em><sup>2</sup>]-, (<em>SP</em>-4-1)-;Nickel, bis[1,2-bis(4-methoxyphenyl)-1,2-ethenedithiolato(2-)-<em>S</em>,<em>S</em>′]-, (<em>SP</em>-4-1)-;Nickel, bis[4,4′-dimethoxy-α,α′-stilbenedithiolato(2-)]-;Nickel, bis[1,2-bis(4-methoxyphenyl)-1,2-ethenedithiolato(2-)-κ<em>S</em>,κ<em>S</em>′]-, (<em>SP</em>-4-1)-;1,2-Ethenedithiol, 1,2-bis(4-methoxyphenyl)-, nickel complex, (<em>Z</em>)-;(<em>SP</em>-4-1)-Bis[1,2-bis(4-methoxyphenyl)-1,2-ethenedithiolato(2-)-κ<em>S</em><sup>1</sup>,κ<em>S</em><sup>2</sup>]nickel;Bis[1,2-di(<em>p</em>-methoxyphenyl)-1,2-ethylenedithiolato]nickel;B 4360;ADS 920MC",
    "duplicated_cas_no": "14263-98-0;2055284-08-5;2209079-70-7;2451257-91-1",
    "SMILES": "O(C)C1=CC=C(C=2S[Ni]3(SC(=C(S3)C4=CC=C(OC)C=C4)C5=CC=C(OC)C=C5)SC2C6=CC=C(OC)C=C6)C=C1",
    "meta_data": {
        "InChI": "InChI=1S/2C16H16O2S2.Ni/c2*1-17-13-7-3-11(4-8-13)15(19)16(20)12-5-9-14(18-2)10-6-12;/h2*3-10,19-20H,1-2H3;/q;;+4/p-4",
        "InChIKey": null,
        "Canonical SMILES": "O(C1=CC=C(C=C1)C=2S[Ni]3(SC2C4=CC=C(OC)C=C4)SC(C5=CC=C(OC)C=C5)=C(S3)C6=CC=C(OC)C=C6)C",
        "Molecular Formula": "C<sub>32</sub>H<sub>28</sub>NiO<sub>4</sub>S<sub>4</sub>",
        "Molecular Mass": "",
        "Melting Point": "245 °C"
    }
}