{
    "cas_no": "17609-80-2",
    "key_name": "4-Amino-3-chlorophenol",
    "cn_name": "4-氨基-3-氯苯酚;",
    "alternate_name": "Phenol, 4-amino-3-chloro-;4-Amino-3-chlorophenol;1-Hydroxy-4-amino-3-chlorobenzene;3-Chloro-4-aminophenol;3-Chloro-<em>p</em>-aminophenol;2-Chloro-4-hydroxyaniline",
    "duplicated_cas_no": "",
    "SMILES": "ClC1=C(N)C=CC(O)=C1",
    "meta_data": {
        "InChI": "InChI=1S/C6H6ClNO/c7-5-3-4(9)1-2-6(5)8/h1-3,9H,8H2",
        "InChIKey": null,
        "Canonical SMILES": "ClC1=CC(O)=CC=C1N",
        "Molecular Formula": "C<sub>6</sub>H<sub>6</sub>ClNO",
        "Molecular Mass": "143.57",
        "Melting Point": "159.5 °C"
    }
}