{
    "cas_no": "588-07-8",
    "key_name": "<em>N</em>-(3-Chlorophenyl)acetamide",
    "cn_name": null,
    "alternate_name": "Acetamide, <em>N</em>-(3-chlorophenyl)-;Acetanilide, 3′-chloro-;<em>N</em>-(3-Chlorophenyl)acetamide;3-Chloroacetanilide;<em>m</em>-Chloroacetanilide;3′-Chloroacetanilide;NSC 39967;NSC 6116",
    "duplicated_cas_no": "",
    "SMILES": "N(C(C)=O)C1=CC(Cl)=CC=C1",
    "meta_data": {
        "InChI": "InChI=1S/C8H8ClNO/c1-6(11)10-8-4-2-3-7(9)5-8/h2-5H,1H3,(H,10,11)",
        "InChIKey": null,
        "Canonical SMILES": "O=C(NC=1C=CC=C(Cl)C1)C",
        "Molecular Formula": "C<sub>8</sub>H<sub>8</sub>ClNO",
        "Molecular Mass": "169.61",
        "Boiling Point": "331.8-332.4 °C @ Press: 740 Torr",
        "Melting Point": "77-78 °C"
    }
}