{
    "cas_no": "24800-44-0",
    "key_name": "Tripropylene glycol",
    "cn_name": "三丙二醇;",
    "alternate_name": "Propanol, [(1-methyl-1,2-ethanediyl)bis(oxy)]bis-;Tripropylene glycol;[(1-Methyl-1,2-ethanediyl)bis(oxy)]bispropanol;T 0651;TPG-H",
    "duplicated_cas_no": "25323-34-6;32053-02-4;204838-67-5;205178-76-3;1293291-02-7",
    "SMILES": "",
    "meta_data": {
        "InChI": "",
        "InChIKey": null,
        "Canonical SMILES": "",
        "Molecular Formula": "C<sub>9</sub>H<sub>20</sub>O<sub>4</sub>",
        "Molecular Mass": "",
        "Boiling Point": "271 °C",
        "Melting Point": "&lt;-30 °C",
        "Density": "1.019 g/cm³ @ Temp: 20 °C"
    }
}