{
    "cas_no": "18742-02-4",
    "key_name": "2-(2-Bromoethyl)-1,3-dioxolane",
    "cn_name": "2-(2-溴乙基)-1,3-二恶烷;2-(2-溴乙基)-1,3-二噁烷;",
    "alternate_name": "1,3-Dioxolane, 2-(2-bromoethyl)-;2-(2-Bromoethyl)-1,3-dioxolane;1,1-(Ethylenedioxy)-3-bromopropane;3-Bromopropanal ethylene acetal;1-Bromo-3,3-(ethylenedioxy)propane;β-Bromopropionaldehyde ethylene acetal;3,3-(Ethylenedioxy)propyl bromide;3-Bromopropionaldehyde ethylene acetal;1,3-Dioxolan-2-ylethyl bromide;2-(1,3-Dioxolan-2-yl)ethyl bromide;2-(2-Bromoethyl)-1,3-dioxolan;2-(2′-Bromoethyl)-1,3-dioxolane",
    "duplicated_cas_no": "",
    "SMILES": "C(CBr)C1OCCO1",
    "meta_data": {
        "InChI": "InChI=1S/C5H9BrO2/c6-2-1-5-7-3-4-8-5/h5H,1-4H2",
        "InChIKey": null,
        "Canonical SMILES": "BrCCC1OCCO1",
        "Molecular Formula": "C<sub>5</sub>H<sub>9</sub>BrO<sub>2</sub>",
        "Molecular Mass": "181.03",
        "Boiling Point": "76-80 °C @ Press: 0.8 Torr"
    }
}