{
    "cas_no": "55912-20-4",
    "key_name": "4-Chloro-3-nitrobenzenemethanol",
    "cn_name": "4-氯-3-硝基苯甲醇;",
    "alternate_name": "Benzenemethanol, 4-chloro-3-nitro-;Benzyl alcohol, 4-chloro-:3-nitro-;4-Chloro-3-nitrobenzenemethanol;4-Chloro-3-nitrobenzyl alcohol;3-Nitro-4-chlorobenzyl alcohol;1-Chloro-4-hydroxymethyl-2-nitrobenzene;(4-Chloro-3-nitrophenyl)methanol;3-Hydroxymethyl-6-chloronitrobenzene",
    "duplicated_cas_no": "",
    "SMILES": "N(=O)(=O)C1=CC(CO)=CC=C1Cl",
    "meta_data": {
        "InChI": "InChI=1S/C7H6ClNO3/c8-6-2-1-5(4-10)3-7(6)9(11)12/h1-3,10H,4H2",
        "InChIKey": null,
        "Canonical SMILES": "O=N(=O)C1=CC(=CC=C1Cl)CO",
        "Molecular Formula": "C<sub>7</sub>H<sub>6</sub>ClNO<sub>3</sub>",
        "Molecular Mass": "187.58",
        "Melting Point": "64-65 °C"
    }
}