{
    "cas_no": "4136-95-2",
    "key_name": "2,4,6-Trichlorobenzoyl chloride",
    "cn_name": "2,4,6-三氯苯甲酰氯;",
    "alternate_name": "Benzoyl chloride, 2,4,6-trichloro-;2,4,6-Trichlorobenzoyl chloride;TCBC",
    "duplicated_cas_no": "",
    "SMILES": "C(Cl)(=O)C1=C(Cl)C=C(Cl)C=C1Cl",
    "meta_data": {
        "InChI": "InChI=1S/C7H2Cl4O/c8-3-1-4(9)6(7(11)12)5(10)2-3/h1-2H",
        "InChIKey": null,
        "Canonical SMILES": "O=C(Cl)C=1C(Cl)=CC(Cl)=CC1Cl",
        "Molecular Formula": "C<sub>7</sub>H<sub>2</sub>Cl<sub>4</sub>O",
        "Molecular Mass": "243.90",
        "Boiling Point": "90-96 °C @ Press: 0.7 Torr",
        "Melting Point": "165-166 °C"
    }
}