{
    "cas_no": "27137-85-5",
    "key_name": "Trichloro(dichlorophenyl)silane",
    "cn_name": "二氯苯基三氯硅烷;",
    "alternate_name": "Benzene, dichloro(trichlorosilyl)-;Silane, trichloro(dichlorophenyl)-;Dichloro(trichlorosilyl)benzene;(Dichlorophenyl)trichlorosilane;Trichloro(dichlorophenyl)silane",
    "duplicated_cas_no": "28514-68-3",
    "SMILES": "",
    "meta_data": {
        "InChI": "",
        "InChIKey": null,
        "Canonical SMILES": "",
        "Molecular Formula": "C<sub>6</sub>H<sub>3</sub>Cl<sub>5</sub>Si",
        "Molecular Mass": "",
        "Boiling Point": "260 °C",
        "Density": "1.562 g/cm³"
    }
}