{
    "cas_no": "19780-12-2",
    "key_name": "5-Dodecyne",
    "cn_name": "5-十二炔;",
    "alternate_name": "5-Dodecyne",
    "duplicated_cas_no": "",
    "SMILES": "C(C#CCCCC)CCCCC",
    "meta_data": {
        "InChI": "InChI=1S/C12H22/c1-3-5-7-9-11-12-10-8-6-4-2/h3-9,11H2,1-2H3",
        "InChIKey": null,
        "Canonical SMILES": "C(#CCCCCCC)CCCC",
        "Molecular Formula": "C<sub>12</sub>H<sub>22</sub>",
        "Molecular Mass": "166.30",
        "Boiling Point": "100-105 °C @ Press: 16 Torr"
    }
}