{
    "cas_no": "50606-95-6",
    "key_name": "4-Hexylbenzoyl chloride",
    "cn_name": null,
    "alternate_name": "Benzoyl chloride, 4-hexyl-;4-Hexylbenzoyl chloride;<em>p</em>-Hexylbenzoyl chloride;<em>p</em>-(<em>n</em>-Hexyl)benzoyl chloride",
    "duplicated_cas_no": "",
    "SMILES": "C(Cl)(=O)C1=CC=C(CCCCCC)C=C1",
    "meta_data": {
        "InChI": "InChI=1S/C13H17ClO/c1-2-3-4-5-6-11-7-9-12(10-8-11)13(14)15/h7-10H,2-6H2,1H3",
        "InChIKey": null,
        "Canonical SMILES": "O=C(Cl)C1=CC=C(C=C1)CCCCCC",
        "Molecular Formula": "C<sub>13</sub>H<sub>17</sub>ClO",
        "Molecular Mass": "224.73",
        "Boiling Point": "143 °C @ Press: 1.3 Torr"
    }
}