{
    "cas_no": "6052-73-9",
    "key_name": "5,6-Dihydro-2(1<em>H</em>)-pyridinone",
    "cn_name": null,
    "alternate_name": "2(1<em>H</em>)-Pyridinone, 5,6-dihydro-;2(1<em>H</em>)-Pyridone, 5,6-dihydro-;5,6-Dihydro-2(1<em>H</em>)-pyridinone;2-Pentenoic acid, 5-amino-, lactam;3,4-Dehydro-2-piperidone;5,6-Dihydro-2(1<em>H</em>)-pyridone;5,6-Dihydro-1<em>H</em>-pyridin-2-one;5,6-Dihydropyridin-2(1<em>H</em>)-one;1,2,5,6-Tetrahydropyridin-2-one;2,3-Dihydro-1<em>H</em>-pyridin-6-one",
    "duplicated_cas_no": "",
    "SMILES": "O=C1C=CCCN1",
    "meta_data": {
        "InChI": "InChI=1S/C5H7NO/c7-5-3-1-2-4-6-5/h1,3H,2,4H2,(H,6,7)",
        "InChIKey": null,
        "Canonical SMILES": "O=C1C=CCCN1",
        "Molecular Formula": "C<sub>5</sub>H<sub>7</sub>NO",
        "Molecular Mass": "97.12",
        "Melting Point": "187-188 °C"
    }
}