{
    "cas_no": "183802-98-4",
    "key_name": "5-Bromo-2-chlorophenol",
    "cn_name": "5-溴-2-氯苯酚;",
    "alternate_name": "Phenol, 5-bromo-2-chloro-;5-Bromo-2-chlorophenol;3-Bromo-6-chlorophenol",
    "duplicated_cas_no": "",
    "SMILES": "OC1=C(Cl)C=CC(Br)=C1",
    "meta_data": {
        "InChI": "InChI=1S/C6H4BrClO/c7-4-1-2-5(8)6(9)3-4/h1-3,9H",
        "InChIKey": null,
        "Canonical SMILES": "ClC1=CC=C(Br)C=C1O",
        "Molecular Formula": "C<sub>6</sub>H<sub>4</sub>BrClO",
        "Molecular Mass": "207.45",
        "Boiling Point": "230-234 °C @ Press: 744 Torr",
        "Melting Point": "57 °C"
    }
}