{
    "cas_no": "110347-85-8",
    "key_name": "Selfotel",
    "cn_name": null,
    "alternate_name": "2-Piperidinecarboxylic acid, 4-(phosphonomethyl)-, (2<em>R</em>,4<em>S</em>)-<em>rel</em>-;2-Piperidinecarboxylic acid, 4-(phosphonomethyl)-, <em>cis</em>-;<em>rel</em>-(2<em>R</em>,4<em>S</em>)-4-(Phosphonomethyl)-2-piperidinecarboxylic acid;CGS 19755;Selfotel;<em>cis</em>-4-[Phosphonomethyl]-2-piperidinecarboxylic acid;CPDD 0027",
    "duplicated_cas_no": "113229-84-8",
    "SMILES": "C(P(=O)(O)O)[C@H]1C[C@@H](C(O)=O)NCC1",
    "meta_data": {
        "InChI": "InChI=1/C7H14NO5P/c9-7(10)6-3-5(1-2-8-6)4-14(11,12)13/h5-6,8H,1-4H2,(H,9,10)(H2,11,12,13)/t5-,6+/s2",
        "InChIKey": null,
        "Canonical SMILES": "O=C(O)C1NCCC(C1)CP(=O)(O)O",
        "Molecular Formula": "C<sub>7</sub>H<sub>14</sub>NO<sub>5</sub>P",
        "Molecular Mass": "223.16",
        "Melting Point": "290-292 °C"
    }
}