{
    "cas_no": "75001-31-9",
    "key_name": "6-Methylimidazo[2,1-<em>b</em>]thiazole-5-carboxaldehyde",
    "cn_name": null,
    "alternate_name": "Imidazo[2,1-<em>b</em>]thiazole-5-carboxaldehyde, 6-methyl-;6-Methylimidazo[2,1-<em>b</em>]thiazole-5-carboxaldehyde;5-Formyl-6-methylimidazo[2,1-<em>b</em>]thiazole;NSC 315206;6-Methylimidazo[2,1-<em>b</em>][1,3]thiazole-5-carboxaldehyde",
    "duplicated_cas_no": "",
    "SMILES": "C(=O)C=1N2C(=NC1C)SC=C2",
    "meta_data": {
        "InChI": "InChI=1S/C7H6N2OS/c1-5-6(4-10)9-2-3-11-7(9)8-5/h2-4H,1H3",
        "InChIKey": null,
        "Canonical SMILES": "O=CC1=C(N=C2SC=CN21)C",
        "Molecular Formula": "C<sub>7</sub>H<sub>6</sub>N<sub>2</sub>OS",
        "Molecular Mass": "166.20",
        "Melting Point": "140-142 °C"
    }
}