{
    "cas_no": "624-91-9",
    "key_name": "Methyl nitrite",
    "cn_name": "亚硝酸甲酯;亚硝酸甲酯;",
    "alternate_name": "Nitrous acid, methyl ester;Methyl nitrite",
    "duplicated_cas_no": "",
    "SMILES": "N(OC)=O",
    "meta_data": {
        "InChI": "InChI=1S/CH3NO2/c1-4-2-3/h1H3",
        "InChIKey": null,
        "Canonical SMILES": "O=NOC",
        "Molecular Formula": "CH<sub>3</sub>NO<sub>2</sub>",
        "Molecular Mass": "61.04",
        "Boiling Point": "-12 °C",
        "Melting Point": "-16 °C",
        "Density": "0.991 g/cm³"
    }
}