{
    "cas_no": "34523-28-9",
    "key_name": "5-(Dimethylamino)-1-naphthalenesulfonyl fluoride",
    "cn_name": "丹磺酰氟;丹酰氟;5-二甲氨基萘-1-磺酰氟；1-二甲氨基萘-5-磺酰氟；氟化-5-二甲氨基萘-1-磺酰；丹磺酰氟;",
    "alternate_name": "1-Naphthalenesulfonyl fluoride, 5-(dimethylamino)-;5-(Dimethylamino)-1-naphthalenesulfonyl fluoride;5-(Dimethylamino)naphthalene-1-sulfonyl fluoride;Dansyl-fluoride",
    "duplicated_cas_no": "",
    "SMILES": "S(F)(=O)(=O)C=1C2=C(C(N(C)C)=CC=C2)C=CC1",
    "meta_data": {
        "InChI": "InChI=1S/C12H12FNO2S/c1-14(2)11-7-3-6-10-9(11)5-4-8-12(10)17(13,15)16/h3-8H,1-2H3",
        "InChIKey": null,
        "Canonical SMILES": "O=S(=O)(F)C1=CC=CC=2C1=CC=CC2N(C)C",
        "Molecular Formula": "C<sub>12</sub>H<sub>12</sub>FNO<sub>2</sub>S",
        "Molecular Mass": "253.29",
        "Melting Point": "40-42 °C"
    }
}