{
    "cas_no": "89-68-9",
    "key_name": "Chlorothymol",
    "cn_name": "4-氯-2-异丙基-5-甲基苯酚;2-甲基-3-氯-5-异丙基苯酚;4-氯代百里酚;",
    "alternate_name": "Phenol, 4-chloro-5-methyl-2-(1-methylethyl)-;Thymol, 6-chloro-;4-Chloro-5-methyl-2-(1-methylethyl)phenol;6-Chlorothymol;Chlorothymol;Chlorthymol;4-Chloro-6-isopropyl-3-methylphenol;2-Isopropyl-4-chloro-5-methylphenol;4-Chloro-2-isopropyl-5-methylphenol;NSC 406261;NSC 4964;4-Chloro-5-methyl-2-(propan-2-yl)phenol",
    "duplicated_cas_no": "",
    "SMILES": "C(C)(C)C1=C(O)C=C(C)C(Cl)=C1",
    "meta_data": {
        "InChI": "InChI=1S/C10H13ClO/c1-6(2)8-5-9(11)7(3)4-10(8)12/h4-6,12H,1-3H3",
        "InChIKey": null,
        "Canonical SMILES": "ClC=1C=C(C(O)=CC1C)C(C)C",
        "Molecular Formula": "C<sub>10</sub>H<sub>13</sub>ClO",
        "Molecular Mass": "184.66",
        "Boiling Point": "258.5 °C",
        "Melting Point": "63 °C"
    }
}