{
    "cas_no": "453-13-4",
    "key_name": "1,3-Difluoro-2-propanol",
    "cn_name": null,
    "alternate_name": "2-Propanol, 1,3-difluoro-;1,3-Difluoro-2-propanol;1,3-Difluoropropane-2-ol;1,3-Difluoroisopropanol;NSC 21305;NSC 76034",
    "duplicated_cas_no": "",
    "SMILES": "C(CF)(CF)O",
    "meta_data": {
        "InChI": "InChI=1S/C3H6F2O/c4-1-3(6)2-5/h3,6H,1-2H2",
        "InChIKey": null,
        "Canonical SMILES": "FCC(O)CF",
        "Molecular Formula": "C<sub>3</sub>H<sub>6</sub>F<sub>2</sub>O",
        "Molecular Mass": "96.08",
        "Boiling Point": "59 °C @ Press: 40 Torr",
        "Density": "1.244 g/cm³ @ Temp: 20 °C"
    }
}