{
    "cas_no": "83-30-7",
    "key_name": "2,4,6-Trihydroxybenzoic acid",
    "cn_name": "2,4,6-三羟基苯甲酸;间苯三酚甲酸;",
    "alternate_name": "Benzoic acid, 2,4,6-trihydroxy-;2,4,6-Trihydroxybenzoic acid;2,4,6-Trihydroxybenzenecarboxylic acid;Phloroglucinolcarboxylic acid;Phloroglucinic acid;NSC 36720;4,6-Dihydroxysalicylic acid",
    "duplicated_cas_no": "",
    "SMILES": "C(O)(=O)C1=C(O)C=C(O)C=C1O",
    "meta_data": {
        "InChI": "InChI=1S/C7H6O5/c8-3-1-4(9)6(7(11)12)5(10)2-3/h1-2,8-10H,(H,11,12)",
        "InChIKey": null,
        "Canonical SMILES": "O=C(O)C=1C(O)=CC(O)=CC1O",
        "Molecular Formula": "C<sub>7</sub>H<sub>6</sub>O<sub>5</sub>",
        "Molecular Mass": "170.12",
        "Melting Point": "160-161 °C"
    }
}