{
    "cas_no": "936250-22-5",
    "key_name": "(2-Aminopyrimidin-5-yl)boronic acid",
    "cn_name": null,
    "alternate_name": "Boronic acid, <em>B</em>-(2-amino-5-pyrimidinyl)-;<em>B</em>-(2-Amino-5-pyrimidinyl)boronic acid;(2-Aminopyrimidin-5-yl)boronic acid;2-Aminopyrimidine-5-boronic acid",
    "duplicated_cas_no": "",
    "SMILES": "B(O)(O)C=1C=NC(N)=NC1",
    "meta_data": {
        "InChI": "InChI=1S/C4H6BN3O2/c6-4-7-1-3(2-8-4)5(9)10/h1-2,9-10H,(H2,6,7,8)",
        "InChIKey": null,
        "Canonical SMILES": "OB(O)C1=CN=C(N=C1)N",
        "Molecular Formula": "C<sub>4</sub>H<sub>6</sub>BN<sub>3</sub>O<sub>2</sub>",
        "Molecular Mass": "138.92",
        "Melting Point": "&gt;300 °C"
    }
}