{
    "cas_no": "874-97-5",
    "key_name": "3-(Hydroxymethyl)benzonitrile",
    "cn_name": null,
    "alternate_name": "Benzonitrile, 3-(hydroxymethyl)-;<em>m</em>-Tolunitrile, α-hydroxy-;3-(Hydroxymethyl)benzonitrile;<em>m</em>-Cyanobenzyl alcohol;3-Cyanobenzyl alcohol;3-Cyanobenzenemethanol",
    "duplicated_cas_no": "185532-93-8",
    "SMILES": "C(#N)C1=CC(CO)=CC=C1",
    "meta_data": {
        "InChI": "InChI=1S/C8H7NO/c9-5-7-2-1-3-8(4-7)6-10/h1-4,10H,6H2",
        "InChIKey": null,
        "Canonical SMILES": "N#CC1=CC=CC(=C1)CO",
        "Molecular Formula": "C<sub>8</sub>H<sub>7</sub>NO",
        "Molecular Mass": "133.15",
        "Boiling Point": "109-110 °C @ Press: 0.1 Torr",
        "Melting Point": "25-30 °C"
    }
}