{
    "cas_no": "12738-64-6",
    "key_name": "Sucrose benzoate",
    "cn_name": null,
    "alternate_name": "α-<span class=\"text-smallcaps\">D</smallcap>-Glucopyranoside, β-<smallcap>D</span>-fructofuranosyl, benzoate;Sucrose benzoate;Benzoylsaccharose;Saccharose benzoate;Uniplex 280;Uniplex 280CG;TZ 3 (benzoate);Miramer SB",
    "duplicated_cas_no": "56093-82-4;2765399-96-8;2765612-22-2",
    "SMILES": "C(O)(=O)C1=CC=CC=C1.O([C@]1(CO)O[C@H](CO)[C@@H](O)[C@@H]1O)[C@H]2O[C@H](CO)[C@@H](O)[C@H](O)[C@H]2O",
    "meta_data": {
        "InChI": "InChI=1S/C12H22O11.C7H6O2/c13-1-4-6(16)8(18)9(19)11(21-4)23-12(3-15)10(20)7(17)5(2-14)22-12;8-7(9)6-4-2-1-3-5-6/h4-11,13-20H,1-3H2;1-5H,(H,8,9)/t4-,5-,6-,7-,8+,9-,10+,11-,12+;/m1./s1",
        "InChIKey": null,
        "Canonical SMILES": "O=C(O)C=1C=CC=CC1.OCC1OC(OC2(OC(CO)C(O)C2O)CO)C(O)C(O)C1O",
        "Molecular Formula": "C<sub>12</sub>H<sub>22</sub>O<sub>11</sub>.xC<sub>7</sub>H<sub>6</sub>O<sub>2</sub>",
        "Molecular Mass": "",
        "Melting Point": "98 °C"
    }
}