{
    "cas_no": "2113-58-8",
    "key_name": "3-Nitrobiphenyl",
    "cn_name": "3-硝基联苯;",
    "alternate_name": "1,1′-Biphenyl, 3-nitro-;Biphenyl, 3-nitro-;3-Nitro-1,1′-biphenyl;3-Nitrobiphenyl;<em>m</em>-Nitrobiphenyl;3-Nitrodiphenyl;NSC 408697;3-Phenylnitrobenzene;3′-Nitrobiphenyl;<em>m</em>-Nitrophenyl benzene;1-Nitro-3-phenylbenzene",
    "duplicated_cas_no": "",
    "SMILES": "N(=O)(=O)C=1C=C(C=CC1)C2=CC=CC=C2",
    "meta_data": {
        "InChI": "InChI=1S/C12H9NO2/c14-13(15)12-8-4-7-11(9-12)10-5-2-1-3-6-10/h1-9H",
        "InChIKey": null,
        "Canonical SMILES": "O=N(=O)C1=CC=CC(=C1)C=2C=CC=CC2",
        "Molecular Formula": "C<sub>12</sub>H<sub>9</sub>NO<sub>2</sub>",
        "Molecular Mass": "199.21",
        "Boiling Point": "227 °C",
        "Melting Point": "62 °C"
    }
}