{
    "cas_no": "51543-40-9",
    "key_name": "(-)-Flurbiprofen",
    "cn_name": "氟比洛芬;(R)-(-)-2-氟-alpha-甲基-4-联苯乙酸;",
    "alternate_name": "[1,1′-Biphenyl]-4-acetic acid, 2-fluoro-α-methyl-, (α<em>R</em>)-;[1,1′-Biphenyl]-4-acetic acid, 2-fluoro-α-methyl-, (<em>R</em>)-;(α<em>R</em>)-2-Fluoro-α-methyl[1,1′-biphenyl]-4-acetic acid;(-)-Flurbiprofen;<em>l</em>-Flurbiprofen;<em>R</em>-(-)-Flurbiprofen;(-)-(<em>R</em>)-Flurbiprofen;(<em>R</em>)-Flurbiprofen;E 7869;MPC 7869;Tarenflurbil;Flurizan;(<em>R</em>)-(-)-2-(2-Fluorobiphenyl-4-yl)propionic acid;(R)-Flurbiprofen;(2R)-2-(3-Fluoro-4-phenylphenyl)propanoic acid",
    "duplicated_cas_no": "",
    "SMILES": "FC1=C(C=CC([C@H](C(O)=O)C)=C1)C2=CC=CC=C2",
    "meta_data": {
        "InChI": "InChI=1S/C15H13FO2/c1-10(15(17)18)12-7-8-13(14(16)9-12)11-5-3-2-4-6-11/h2-10H,1H3,(H,17,18)/t10-/m1/s1",
        "InChIKey": null,
        "Canonical SMILES": "O=C(O)C(C=1C=CC(=C(F)C1)C=2C=CC=CC2)C",
        "Molecular Formula": "C<sub>15</sub>H<sub>13</sub>FO<sub>2</sub>",
        "Molecular Mass": "244.26",
        "Melting Point": "104-106 °C"
    }
}