{
    "cas_no": "6328-48-9",
    "key_name": "3-(Phenylmethoxy)propanenitrile",
    "cn_name": "3-苄氧基丙腈;3-(苯基甲氧基)丙腈;",
    "alternate_name": "Propanenitrile, 3-(phenylmethoxy)-;Propionitrile, 3-(benzyloxy)-;3-(Phenylmethoxy)propanenitrile;3-(Benzyloxy)propionitrile;(Benzyloxy)propionitrile;2-Cyanoethyl benzyl ether;NSC 43693;3-(Benzyloxy)propanenitrile",
    "duplicated_cas_no": "",
    "SMILES": "C(OCCC#N)C1=CC=CC=C1",
    "meta_data": {
        "InChI": "InChI=1S/C10H11NO/c11-7-4-8-12-9-10-5-2-1-3-6-10/h1-3,5-6H,4,8-9H2",
        "InChIKey": null,
        "Canonical SMILES": "N#CCCOCC=1C=CC=CC1",
        "Molecular Formula": "C<sub>10</sub>H<sub>11</sub>NO",
        "Molecular Mass": "161.20",
        "Boiling Point": "114-116 °C @ Press: 0.5 Torr",
        "Density": "1.0457 g/cm³ @ Temp: 20 °C"
    }
}