{
    "cas_no": "1939-27-1",
    "key_name": "2-Methyl-<em>N</em>-[3-(trifluoromethyl)phenyl]propanamide",
    "cn_name": "3-(异丁酰氨基)-1-三氟甲基苯;2-甲基-N-[3-(三氟甲基)苯基]丙酰胺;",
    "alternate_name": "Propanamide, 2-methyl-<em>N</em>-[3-(trifluoromethyl)phenyl]-;<em>m</em>-Propionotoluidide, α,α,α-trifluoro-2-methyl-;2-Methyl-<em>N</em>-[3-(trifluoromethyl)phenyl]propanamide;2-Methyl-<em>N</em>-[3-(trifluoromethyl)phenyl]propionamide;3′-Trifluoromethylisobutyranilide",
    "duplicated_cas_no": "",
    "SMILES": "N(C(C(C)C)=O)C1=CC(C(F)(F)F)=CC=C1",
    "meta_data": {
        "InChI": "InChI=1S/C11H12F3NO/c1-7(2)10(16)15-9-5-3-4-8(6-9)11(12,13)14/h3-7H,1-2H3,(H,15,16)",
        "InChIKey": null,
        "Canonical SMILES": "O=C(NC1=CC=CC(=C1)C(F)(F)F)C(C)C",
        "Molecular Formula": "C<sub>11</sub>H<sub>12</sub>F<sub>3</sub>NO",
        "Molecular Mass": "231.21",
        "Melting Point": "100-101 °C"
    }
}