{
    "cas_no": "6272-26-0",
    "key_name": "6-Hydroxy-2<em>H</em>-benzofuran-3-one",
    "cn_name": "6-羟基-2H-苯并呋喃-3-酮;",
    "alternate_name": "3(2<em>H</em>)-Benzofuranone, 6-hydroxy-;6-Hydroxy-3(2<em>H</em>)-benzofuranone;6-Hydroxy-3-coumaranone;6-Hydroxy-2<em>H</em>-benzofuran-3-one;6-Hydroxy-2,3-dihydrobenzo[<em>b</em>]furan-3-one;NSC 37407;6-Hydroxybenzofuran-3-one;6-Hydroxy-2,3-dihydrobenzofuran-3-one;6-Hydroxy-1-benzofuran-3(2<em>H</em>)-one;6-Hydroxy-2,3-dihydro-1-benzofuran-3-one",
    "duplicated_cas_no": "",
    "SMILES": "O=C1C=2C(OC1)=CC(O)=CC2",
    "meta_data": {
        "InChI": "InChI=1S/C8H6O3/c9-5-1-2-6-7(10)4-11-8(6)3-5/h1-3,9H,4H2",
        "InChIKey": null,
        "Canonical SMILES": "O=C1C2=CC=C(O)C=C2OC1",
        "Molecular Formula": "C<sub>8</sub>H<sub>6</sub>O<sub>3</sub>",
        "Molecular Mass": "150.13",
        "Melting Point": "245 °C (decomp)"
    }
}