{
    "cas_no": "30418-59-8",
    "key_name": "3-Aminophenylboronic acid",
    "cn_name": "3-氨基苯硼酸;间氨基苯硼酸;",
    "alternate_name": "Boronic acid, <em>B</em>-(3-aminophenyl)-;Benzeneboronic acid, <em>m</em>-amino-;Boronic acid, (3-aminophenyl)-;<em>B</em>-(3-Aminophenyl)boronic acid;<em>m</em>-Aminobenzeneboronic acid;3-Aminophenylboronic acid;3-Aminobenzeneboronic acid;<em>m</em>-Aminophenylboronic acid;3-Aminophenyl(dihydroxy)borane",
    "duplicated_cas_no": "",
    "SMILES": "B(O)(O)C1=CC(N)=CC=C1",
    "meta_data": {
        "InChI": "InChI=1S/C6H8BNO2/c8-6-3-1-2-5(4-6)7(9)10/h1-4,9-10H,8H2",
        "InChIKey": null,
        "Canonical SMILES": "OB(O)C=1C=CC=C(N)C1",
        "Molecular Formula": "C<sub>6</sub>H<sub>8</sub>BNO<sub>2</sub>",
        "Molecular Mass": "136.94",
        "Melting Point": "140 °C"
    }
}