{
    "cas_no": "142-46-1",
    "key_name": "Dithiourea",
    "cn_name": "2,5-二硫代联二脲;双硫脲;1,2-二(氨基硫代甲酰)肼;",
    "alternate_name": "1,2-Hydrazinedicarbothioamide;Biurea, 2,5-dithio-;Bithiourea;Dithiobiurea;2,5-Dithiodiurea;Dithiocarbamoylhydrazine;Dithiourea;2,5-Dithiobiurea;1,2-Dithiocarbamoylhydrazine;1,2-Bis(thiocarbamoyl)hydrazine;NSC 3511;(Carbamothioylamino)thiourea",
    "duplicated_cas_no": "",
    "SMILES": "N(NC(N)=S)C(N)=S",
    "meta_data": {
        "InChI": "InChI=1S/C2H6N4S2/c3-1(7)5-6-2(4)8/h(H3,3,5,7)(H3,4,6,8)",
        "InChIKey": null,
        "Canonical SMILES": "S=C(N)NNC(=S)N",
        "Molecular Formula": "C<sub>2</sub>H<sub>6</sub>N<sub>4</sub>S<sub>2</sub>",
        "Molecular Mass": "150.23",
        "Melting Point": "233 °C"
    }
}