{
    "cas_no": "16971-33-8",
    "key_name": "Carbonylchlorohydrotris(triphenylphosphine)ruthenium",
    "cn_name": null,
    "alternate_name": "Ruthenium, carbonylchlorohydrotris(triphenylphosphine)-;Carbonylchlorohydrotris(triphenylphosphine)ruthenium;Carbonylchlorohydridotris(triphenylphosphine)ruthenium(II);Chlorohydridocarbonyltris(triphenylphosphine) ruthenium",
    "duplicated_cas_no": "",
    "SMILES": "[Ru+2]([P](C1=CC=CC=C1)(C2=CC=CC=C2)C3=CC=CC=C3)([P](C4=CC=CC=C4)(C5=CC=CC=C5)C6=CC=CC=C6)([P](C7=CC=CC=C7)(C8=CC=CC=C8)C9=CC=CC=C9)(C#O)([Cl-])[H-]",
    "meta_data": {
        "InChI": "InChI=1S/3C18H15P.CO.ClH.Ru.H/c3*1-4-10-16(11-5-1)19(17-12-6-2-7-13-17)18-14-8-3-9-15-18;1-2;;;/h3*1-15H;;1H;;/q;;;;;+1;/p-1",
        "InChIKey": null,
        "Canonical SMILES": "[H-][Ru+2]([Cl-])(C#O)([P](C=1C=CC=CC1)(C=2C=CC=CC2)C=3C=CC=CC3)([P](C=4C=CC=CC4)(C=5C=CC=CC5)C=6C=CC=CC6)[P](C=7C=CC=CC7)(C=8C=CC=CC8)C=9C=CC=CC9",
        "Molecular Formula": "C<sub>55</sub>H<sub>46</sub>ClOP<sub>3</sub>Ru",
        "Molecular Mass": "",
        "Melting Point": "142 °C"
    }
}