{
    "cas_no": "489-32-7",
    "key_name": "Icariin",
    "cn_name": "淫羊藿苷;淫羊藿甙;淫羊藿提取物;",
    "alternate_name": "4<em>H</em>-1-Benzopyran-4-one, 3-[(6-deoxy-α-<span class=\"text-smallcaps\">L</smallcap>-mannopyranosyl)oxy]-7-(β-<smallcap>D</span>-glucopyranosyloxy)-5-hydroxy-2-(4-methoxyphenyl)-8-(3-methyl-2-buten-1-yl)-;Icariin;4<em>H</em>-1-Benzopyran-4-one, 3-[(6-deoxy-α-<span class=\"text-smallcaps\">L</smallcap>-mannopyranosyl)oxy]-7-(β-<smallcap>D</span>-glucopyranosyloxy)-5-hydroxy-2-(4-methoxyphenyl)-8-(3-methyl-2-butenyl)-;3-[(6-Deoxy-α-<span class=\"text-smallcaps\">L</smallcap>-mannopyranosyl)oxy]-7-(β-<smallcap>D</span>-glucopyranosyloxy)-5-hydroxy-2-(4-methoxyphenyl)-8-(3-methyl-2-buten-1-yl)-4<em>H</em>-1-benzopyran-4-one;Ieariline;Icariine;Icariln;Epimedium PE",
    "duplicated_cas_no": "",
    "SMILES": "C(C=C(C)C)C1=C2C(C(=O)C(O[C@H]3[C@H](O)[C@H](O)[C@@H](O)[C@H](C)O3)=C(O2)C4=CC=C(OC)C=C4)=C(O)C=C1O[C@@H]5O[C@H](CO)[C@@H](O)[C@H](O)[C@H]5O",
    "meta_data": {
        "InChI": "InChI=1S/C33H40O15/c1-13(2)5-10-17-19(45-33-28(42)26(40)23(37)20(12-34)46-33)11-18(35)21-24(38)31(48-32-27(41)25(39)22(36)14(3)44-32)29(47-30(17)21)15-6-8-16(43-4)9-7-15/h5-9,11,14,20,22-23,25-28,32-37,39-42H,10,12H2,1-4H3/t14-,20+,22-,23+,25+,26-,27+,28+,32-,33+/m0/s1",
        "InChIKey": null,
        "Canonical SMILES": "O=C1C(OC2OC(C)C(O)C(O)C2O)=C(OC=3C1=C(O)C=C(OC4OC(CO)C(O)C(O)C4O)C3CC=C(C)C)C=5C=CC(OC)=CC5",
        "Molecular Formula": "C<sub>33</sub>H<sub>40</sub>O<sub>15</sub>",
        "Molecular Mass": "676.66",
        "Melting Point": "231-235 °C"
    }
}