{
    "cas_no": "55687-05-3",
    "key_name": "2,5-Dichloroquinoxaline",
    "cn_name": null,
    "alternate_name": "Quinoxaline, 2,5-dichloro-;2,5-Dichloroquinoxaline",
    "duplicated_cas_no": "",
    "SMILES": "ClC=1C2=C(N=C(Cl)C=N2)C=CC1",
    "meta_data": {
        "InChI": "InChI=1S/C8H4Cl2N2/c9-5-2-1-3-6-8(5)11-4-7(10)12-6/h1-4H",
        "InChIKey": null,
        "Canonical SMILES": "ClC1=NC2=CC=CC(Cl)=C2N=C1",
        "Molecular Formula": "C<sub>8</sub>H<sub>4</sub>Cl<sub>2</sub>N<sub>2</sub>",
        "Molecular Mass": "199.04",
        "Melting Point": "~295 °C (decomp) (approx)"
    }
}