{
    "cas_no": "50990-93-7",
    "key_name": "2,5-Dimethyl-3-furancarbonyl chloride",
    "cn_name": "2,5-二甲基-3-呋喃甲酰氯;2,5-二甲基呋喃-3-碳酰氯;",
    "alternate_name": "3-Furancarbonyl chloride, 2,5-dimethyl-;2,5-Dimethyl-3-furancarbonyl chloride;2,5-Dimethyl-3-furoyl chloride",
    "duplicated_cas_no": "",
    "SMILES": "C(Cl)(=O)C=1C=C(C)OC1C",
    "meta_data": {
        "InChI": "InChI=1S/C7H7ClO2/c1-4-3-6(7(8)9)5(2)10-4/h3H,1-2H3",
        "InChIKey": null,
        "Canonical SMILES": "O=C(Cl)C=1C=C(OC1C)C",
        "Molecular Formula": "C<sub>7</sub>H<sub>7</sub>ClO<sub>2</sub>",
        "Molecular Mass": "158.58",
        "Boiling Point": "87-89 °C",
        "Melting Point": "20 °C"
    }
}