{
    "cas_no": "150915-40-5",
    "key_name": "Tirofiban hydrochloride monohydrate",
    "cn_name": "盐酸替罗非班;N-(正丁基磺酰基)-O-[4-(4-哌啶基)丁基]-L-酪氨酸盐酸盐水合物;",
    "alternate_name": "<span class=\"text-smallcaps\">L</span>-Tyrosine, <em>N</em>-(butylsulfonyl)-<em>O</em>-[4-(4-piperidinyl)butyl]-, hydrochloride, hydrate (1:1:1);<span class=\"text-smallcaps\">L</span>-Tyrosine, <em>N</em>-(butylsulfonyl)-<em>O</em>-[4-(4-piperidinyl)butyl]-, monohydrochloride, monohydrate;Tirofiban hydrochloride monohydrate",
    "duplicated_cas_no": "",
    "SMILES": "C([C@H](NS(CCCC)(=O)=O)C(O)=O)C1=CC=C(OCCCCC2CCNCC2)C=C1.Cl.O",
    "meta_data": {
        "InChI": "InChI=1S/C22H36N2O5S.ClH.H2O/c1-2-3-16-30(27,28)24-21(22(25)26)17-19-7-9-20(10-8-19)29-15-5-4-6-18-11-13-23-14-12-18;;/h7-10,18,21,23-24H,2-6,11-17H2,1H3,(H,25,26);1H;1H2/t21-;;/m0../s1",
        "InChIKey": null,
        "Canonical SMILES": "Cl.O=C(O)C(NS(=O)(=O)CCCC)CC1=CC=C(OCCCCC2CCNCC2)C=C1.O",
        "Molecular Formula": "C<sub>22</sub>H<sub>36</sub>N<sub>2</sub>O<sub>5</sub>S.ClH.H<sub>2</sub>O",
        "Molecular Mass": "",
        "Melting Point": "131-132 °C"
    }
}