{
    "cas_no": "402470-91-1",
    "key_name": "<em>N</em>,<em>N</em>,4-Trimethyl-γ-oxobenzenebutanamide",
    "cn_name": null,
    "alternate_name": "Benzenebutanamide, <em>N</em>,<em>N</em>,4-trimethyl-γ-oxo-;<em>N</em>,<em>N</em>,4-Trimethyl-γ-oxobenzenebutanamide;<em>N</em>,<em>N</em>-Dimethyl-3-(4-methylbenzoyl)propionamide;<em>N</em>,<em>N</em>-Dimethyl 4-(4-Methylphenyl)-4-oxobutanamide",
    "duplicated_cas_no": "",
    "SMILES": "C(CCC(N(C)C)=O)(=O)C1=CC=C(C)C=C1",
    "meta_data": {
        "InChI": "InChI=1S/C13H17NO2/c1-10-4-6-11(7-5-10)12(15)8-9-13(16)14(2)3/h4-7H,8-9H2,1-3H3",
        "InChIKey": null,
        "Canonical SMILES": "O=C(C1=CC=C(C=C1)C)CCC(=O)N(C)C",
        "Molecular Formula": "C<sub>13</sub>H<sub>17</sub>NO<sub>2</sub>",
        "Molecular Mass": "219.28",
        "Melting Point": "59-60 °C"
    }
}