{
    "cas_no": "122-62-3",
    "key_name": "Bis(2-ethylhexyl) sebacate",
    "cn_name": "癸二酸二异辛酯;癸二酸二辛酯;",
    "alternate_name": "Decanedioic acid, 1,10-bis(2-ethylhexyl) ester;Sebacic acid, bis(2-ethylhexyl) ester;Decanedioic acid, bis(2-ethylhexyl) ester;PX 438;Bis(2-ethylhexyl) sebacate;Bisoflex DOS;DOS;Monoplex DOS;Octoil S;Staflex DOS;Dioctyl sebacate;Plexol;Bisoflex;Bis(2-ethylhexyl) decanedioate;Bis(ethylhexyl) sebacate;Reolube DOS;Plexol 201J;Edenol 888;Ergoplast SDO;Sebacic acid di(2-ethylhexyl) ester;Plasthall DOS;Reomol DDS;Di-2-ethylhexyl sebacate;Edenor DEHS;Sebacic acid di-2-ethylhexyl diester;Decanedioic acid di(2-ethylhexyl) ester;Sansocizer DOS;Uniflex DOS;Hallstar DOS;Jeetox T-5;NSC 68878;BEHS;Trivent DOS;Synative ES DEHS;Edenol DOS 888;Neosolue-EHS;ES-DOS;FineNeo-EHS;Priolube 1856;Nycobase 20307 FG;Lubricit DOS;Zetemol OSB",
    "duplicated_cas_no": "131170-17-7;28986-40-5",
    "SMILES": "C(COC(CCCCCCCCC(OCC(CCCC)CC)=O)=O)(CCCC)CC",
    "meta_data": {
        "InChI": "InChI=1S/C26H50O4/c1-5-9-17-23(7-3)21-29-25(27)19-15-13-11-12-14-16-20-26(28)30-22-24(8-4)18-10-6-2/h23-24H,5-22H2,1-4H3",
        "InChIKey": null,
        "Canonical SMILES": "O=C(OCC(CC)CCCC)CCCCCCCCC(=O)OCC(CC)CCCC",
        "Molecular Formula": "C<sub>26</sub>H<sub>50</sub>O<sub>4</sub>",
        "Molecular Mass": "426.67",
        "Boiling Point": "256 °C @ Press: 5 Torr",
        "Melting Point": "-48 °C",
        "Density": "0.912 g/cm³ @ Temp: 25 °C"
    }
}