{
    "cas_no": "625-54-7",
    "key_name": "Ethyl isopropyl ether",
    "cn_name": "2-乙氧丙烷;乙基异丙醚;",
    "alternate_name": "Propane, 2-ethoxy-;Ether, ethyl isopropyl;2-Ethoxypropane;Ethyl isopropyl ether;Isopropyl ethyl ether;Ethyl <em>iso</em>-propyl ether",
    "duplicated_cas_no": "",
    "SMILES": "O(C(C)C)CC",
    "meta_data": {
        "InChI": "InChI=1S/C5H12O/c1-4-6-5(2)3/h5H,4H2,1-3H3",
        "InChIKey": null,
        "Canonical SMILES": "O(CC)C(C)C",
        "Molecular Formula": "C<sub>5</sub>H<sub>12</sub>O",
        "Molecular Mass": "88.15",
        "Boiling Point": "54.1 °C",
        "Density": "0.7211 g/cm³ @ Temp: 20 °C"
    }
}