{
    "cas_no": "540-67-0",
    "key_name": "Methoxyethane",
    "cn_name": "甲氧基乙烷;甲乙醚;乙甲醚;",
    "alternate_name": "Ethane, methoxy-;Ether, ethyl methyl;Ethyl methyl ether;Methane, ethoxy-;Methyl ethyl ether;Methoxyethane;R-E 263Fb",
    "duplicated_cas_no": "",
    "SMILES": "C(OC)C",
    "meta_data": {
        "InChI": "InChI=1S/C3H8O/c1-3-4-2/h3H2,1-2H3",
        "InChIKey": null,
        "Canonical SMILES": "O(C)CC",
        "Molecular Formula": "C<sub>3</sub>H<sub>8</sub>O",
        "Molecular Mass": "60.10",
        "Boiling Point": "7.4 °C",
        "Melting Point": "-113 °C",
        "Density": "0.7251 g/cm³ @ Temp: 0 °C"
    }
}