{
    "cas_no": "5875-25-2",
    "key_name": "2-Bromopropionamide",
    "cn_name": "2-溴丙酰胺;",
    "alternate_name": "Propanamide, 2-bromo-;Propionamide, 2-bromo-;2-Bromopropanamide;α-Bromopropionamide;2-Bromopropionamide;α-Bromopropanamide;NSC 402153",
    "duplicated_cas_no": "87205-50-3",
    "SMILES": "C(C(N)=O)(Br)C",
    "meta_data": {
        "InChI": "InChI=1S/C3H6BrNO/c1-2(4)3(5)6/h2H,1H3,(H2,5,6)",
        "InChIKey": null,
        "Canonical SMILES": "O=C(N)C(Br)C",
        "Molecular Formula": "C<sub>3</sub>H<sub>6</sub>BrNO",
        "Molecular Mass": "151.99",
        "Melting Point": "123 °C"
    }
}