{
    "cas_no": "302-72-7",
    "key_name": "Alanine",
    "cn_name": "DL-丙氨酸;",
    "alternate_name": "Alanine;Alanine, <span class=\"text-smallcaps\">DL</span>-;<span class=\"text-smallcaps\">DL</span>-Alanine;<em>dl</em>-2-Aminopropanoic acid;<span class=\"text-smallcaps\">DL</span>-α-Alanine;(±)-Alanine;(±)-2-Aminopropionic acid;<span class=\"text-smallcaps\">DL</span>-α-Aminopropionic acid;<span class=\"text-smallcaps\">DL</span>-Ala;(<em>R</em>,<em>S</em>)-Alanine;<em>dl</em>-Alanine;NSC 7602;2-Amino-propionic acid;2-Aminopropanoic acid;α-Methylglycine",
    "duplicated_cas_no": "",
    "SMILES": "C(C(O)=O)(C)N",
    "meta_data": {
        "InChI": "InChI=1S/C3H7NO2/c1-2(4)3(5)6/h2H,4H2,1H3,(H,5,6)",
        "InChIKey": null,
        "Canonical SMILES": "O=C(O)C(N)C",
        "Molecular Formula": "C<sub>3</sub>H<sub>7</sub>NO<sub>2</sub>",
        "Molecular Mass": "89.09",
        "Melting Point": "300 °C (decomp)"
    }
}