{
    "cas_no": "685-91-6",
    "key_name": "<em>N</em>,<em>N</em>-Diethylacetamide",
    "cn_name": "N,N-二乙基乙酰胺;",
    "alternate_name": "Acetamide, <em>N</em>,<em>N</em>-diethyl-;<em>N</em>,<em>N</em>-Diethylacetamide;<em>N</em>,<em>N</em>-Diethylethanamide;DEA;NSC 101",
    "duplicated_cas_no": "",
    "SMILES": "N(C(C)=O)(CC)CC",
    "meta_data": {
        "InChI": "InChI=1S/C6H13NO/c1-4-7(5-2)6(3)8/h4-5H2,1-3H3",
        "InChIKey": null,
        "Canonical SMILES": "O=C(N(CC)CC)C",
        "Molecular Formula": "C<sub>6</sub>H<sub>13</sub>NO",
        "Molecular Mass": "115.17",
        "Boiling Point": "185.5 °C",
        "Melting Point": "&lt;20 °C",
        "Density": "0.9130 g/cm³ @ Temp: 17 °C"
    }
}