{
    "cas_no": "299-35-4",
    "key_name": "3-[(4-Amino-2-methyl-5-pyrimidinyl)methyl]-5-(2-hydroxyethyl)-4-methyl-2(3<em>H</em>)-thiazolethione",
    "cn_name": "硫代硫胺素; 3-(4-氨基-2-甲基嘧啶-5-甲基)-5-(2-羟基乙基)-4-甲基噻唑-2(3H)-硫酮;",
    "alternate_name": "2(3<em>H</em>)-Thiazolethione, 3-[(4-amino-2-methyl-5-pyrimidinyl)methyl]-5-(2-hydroxyethyl)-4-methyl-;4-Thiazoline-2-thione, 3-[(4-amino-2-methyl-5-pyrimidinyl)methyl]-5-(2-hydroxyethyl)-4-methyl-;3-[(4-Amino-2-methyl-5-pyrimidinyl)methyl]-5-(2-hydroxyethyl)-4-methyl-2(3<em>H</em>)-thiazolethione;Thiothiamine;SB;Thiothiamin;Thiamin thiothiazolone;3-[(4-Amino-2-methylpyrimidin-5-yl)methyl]-5-(2-hydroxyethyl)-4-methyl-1,3-thiazole-2-thione;3-[(4-Amino-2-methylpyrimidin-5-yl)methyl]-5-(2-hydroxyethyl)-4-methyl-2,3-dihydro-1,3-thiazole-2-thione",
    "duplicated_cas_no": "",
    "SMILES": "C(N1C(C)=C(CCO)SC1=S)C=2C(N)=NC(C)=NC2",
    "meta_data": {
        "InChI": "InChI=1S/C12H16N4OS2/c1-7-10(3-4-17)19-12(18)16(7)6-9-5-14-8(2)15-11(9)13/h5,17H,3-4,6H2,1-2H3,(H2,13,14,15)",
        "InChIKey": null,
        "Canonical SMILES": "S=C1SC(=C(N1CC2=CN=C(N=C2N)C)C)CCO",
        "Molecular Formula": "C<sub>12</sub>H<sub>16</sub>N<sub>4</sub>OS<sub>2</sub>",
        "Molecular Mass": "296.41",
        "Melting Point": "238-239 °C"
    }
}