{
    "cas_no": "53072-18-7",
    "key_name": "2,3,4,5-Tetrafluorobenzenemethanol",
    "cn_name": "2,3,4,5-四氟苯甲醇;2,3,4,5-四氟苄醇;",
    "alternate_name": "Benzenemethanol, 2,3,4,5-tetrafluoro-;2,3,4,5-Tetrafluorobenzenemethanol;2,3,4,5-Tetrafluorobenzyl alcohol;(2,3,4,5-Tetrafluorophenyl)methanol",
    "duplicated_cas_no": "",
    "SMILES": "C(O)C1=C(F)C(F)=C(F)C(F)=C1",
    "meta_data": {
        "InChI": "InChI=1S/C7H4F4O/c8-4-1-3(2-12)5(9)7(11)6(4)10/h1,12H,2H2",
        "InChIKey": null,
        "Canonical SMILES": "FC=1C=C(C(F)=C(F)C1F)CO",
        "Molecular Formula": "C<sub>7</sub>H<sub>4</sub>F<sub>4</sub>O",
        "Molecular Mass": "180.10",
        "Boiling Point": "107-109 °C @ Press: 22 Torr"
    }
}