{
    "cas_no": "1709-52-0",
    "key_name": "4-Amino-<em>N</em>-methylbenzenesulfonamide",
    "cn_name": "4-氨基-N-甲基苯磺酰胺;",
    "alternate_name": "Benzenesulfonamide, 4-amino-<em>N</em>-methyl-;Sulfanilamide, <em>N</em><sup>1</sup>-methyl-;4-Amino-<em>N</em>-methylbenzenesulfonamide;<em>N</em><sup>1</sup>-Methylsulfanilamide;<em>N</em>-Methyl-<em>p</em>-aminobenzenesulfonamide;<em>N</em>-Methyl-4-aminobenzenesulfonamide;4-(Methylaminosulfonyl)aniline;NSC 137232;4-(<em>N</em>-Methylaminosulfonyl)aniline;<em>p</em>-Amino-<em>N</em>-methylbenzenesulfonamide;4-(Methylsulfamoyl)aniline",
    "duplicated_cas_no": "",
    "SMILES": "S(NC)(=O)(=O)C1=CC=C(N)C=C1",
    "meta_data": {
        "InChI": "InChI=1S/C7H10N2O2S/c1-9-12(10,11)7-4-2-6(8)3-5-7/h2-5,9H,8H2,1H3",
        "InChIKey": null,
        "Canonical SMILES": "O=S(=O)(NC)C1=CC=C(N)C=C1",
        "Molecular Formula": "C<sub>7</sub>H<sub>10</sub>N<sub>2</sub>O<sub>2</sub>S",
        "Molecular Mass": "186.23",
        "Melting Point": "111 °C"
    }
}