{
    "cas_no": "4218-81-9",
    "key_name": "Ascorbic acid, 2,6-dipalmitate",
    "cn_name": null,
    "alternate_name": "<span class=\"text-smallcaps\">L</span>-Ascorbic acid, 2,6-dihexadecanoate;<span class=\"text-smallcaps\">L</span>-Ascorbic acid, 2,6-dipalmitate;Ascorbic acid, 2,6-dipalmitate;Palmitic acid, 2,6-diester with <span class=\"text-smallcaps\">L</span>-ascorbic acid;2,6-<em>O</em>-Dipalmitoylascorbic acid;Ascorbyl 2,6-dipalmitate;2,6-Di-<em>O</em>-palmitoyl-<span class=\"text-smallcaps\">L</span>-ascorbic acid;<span class=\"text-smallcaps\">L</span>-(+)-Ascorbic acid 2,6-dihexadecanoate",
    "duplicated_cas_no": "16677-01-3;209459-00-7;1584132-71-7;1788032-14-3",
    "SMILES": "[C@@H](COC(CCCCCCCCCCCCCCC)=O)(O)[C@@]1(C(O)=C(OC(CCCCCCCCCCCCCCC)=O)C(=O)O1)[H]",
    "meta_data": {
        "InChI": "InChI=1S/C38H68O8/c1-3-5-7-9-11-13-15-17-19-21-23-25-27-29-33(40)44-31-32(39)36-35(42)37(38(43)46-36)45-34(41)30-28-26-24-22-20-18-16-14-12-10-8-6-4-2/h32,36,39,42H,3-31H2,1-2H3/t32-,36+/m0/s1",
        "InChIKey": null,
        "Canonical SMILES": "O=C1OC(C(O)=C1OC(=O)CCCCCCCCCCCCCCC)C(O)COC(=O)CCCCCCCCCCCCCCC",
        "Molecular Formula": "C<sub>38</sub>H<sub>68</sub>O<sub>8</sub>",
        "Molecular Mass": "652.94",
        "Melting Point": "114-115 °C"
    }
}