{
    "cas_no": "579-11-3",
    "key_name": "<em>N</em>-Chloro-<em>N</em>-phenylacetamide",
    "cn_name": "N-氯代乙酰苯胺;N-氯代-N-苯基乙酰胺;",
    "alternate_name": "Acetamide, <em>N</em>-chloro-<em>N</em>-phenyl-;Acetanilide, <em>N</em>-chloro-;<em>N</em>-Chloro-<em>N</em>-phenylacetamide;<em>N</em>-Chloroacetanilide",
    "duplicated_cas_no": "",
    "SMILES": "N(C(C)=O)(Cl)C1=CC=CC=C1",
    "meta_data": {
        "InChI": "InChI=1S/C8H8ClNO/c1-7(11)10(9)8-5-3-2-4-6-8/h2-6H,1H3",
        "InChIKey": null,
        "Canonical SMILES": "O=C(N(Cl)C=1C=CC=CC1)C",
        "Molecular Formula": "C<sub>8</sub>H<sub>8</sub>ClNO",
        "Molecular Mass": "169.61",
        "Melting Point": "90.5-91 °C"
    }
}