{
    "cas_no": "3917-15-5",
    "key_name": "Allyl vinyl ether",
    "cn_name": "烯丙基乙烯酯;烯丙基乙烯基醚;",
    "alternate_name": "1-Propene, 3-(ethenyloxy)-;Ether, allyl vinyl;3-(Ethenyloxy)-1-propene;Allyl vinyl ether;Vinyl allyl ether;Allyl ethenyl ether;NSC 6270;1-(Vinyloxy)-2-propene;3-Ethenoxyprop-1-ene",
    "duplicated_cas_no": "",
    "SMILES": "C(OC=C)C=C",
    "meta_data": {
        "InChI": "InChI=1S/C5H8O/c1-3-5-6-4-2/h3-4H,1-2,5H2",
        "InChIKey": null,
        "Canonical SMILES": "O(C=C)CC=C",
        "Molecular Formula": "C<sub>5</sub>H<sub>8</sub>O",
        "Molecular Mass": "84.12",
        "Boiling Point": "66 °C",
        "Density": "0.805 g/cm³ @ Temp: 20 °C"
    }
}