{
    "cas_no": "89-61-2",
    "key_name": "2,5-Dichloronitrobenzene",
    "cn_name": "2,5-二氯硝基苯;1,4-二氯-2-硝基苯;",
    "alternate_name": "Benzene, 1,4-dichloro-2-nitro-;Benzene, 1,4-dichloro-3-nitro-;1,4-Dichloro-2-nitrobenzene;2,5-Dichloronitrobenzene;Nitro-<em>p</em>-dichlorobenzene;2,5-Dichloro-1-nitrobenzene;1-Nitro-2,5-dichlorobenzene;1,4-Dichloro-3-nitrobenzene;2-Nitro-1,4-dichlorobenzene;NSC 406125;NSC 6294",
    "duplicated_cas_no": "",
    "SMILES": "N(=O)(=O)C1=C(Cl)C=CC(Cl)=C1",
    "meta_data": {
        "InChI": "InChI=1S/C6H3Cl2NO2/c7-4-1-2-5(8)6(3-4)9(10)11/h1-3H",
        "InChIKey": null,
        "Canonical SMILES": "O=N(=O)C1=CC(Cl)=CC=C1Cl",
        "Molecular Formula": "C<sub>6</sub>H<sub>3</sub>Cl<sub>2</sub>NO<sub>2</sub>",
        "Molecular Mass": "192.00",
        "Boiling Point": "267 °C",
        "Melting Point": "56 °C",
        "Density": "1.704 g/cm³ @ Temp: 16 °C"
    }
}