{
    "cas_no": "19276-03-0",
    "key_name": "1<em>H</em>-Imidazole, 2-(chloromethyl)-1-(phenylmethyl)-, hydrochloride (1:1)",
    "cn_name": null,
    "alternate_name": "1<em>H</em>-Imidazole, 2-(chloromethyl)-1-(phenylmethyl)-, hydrochloride (1:1);Imidazole, 1-benzyl-2-(chloromethyl)-, monohydrochloride;1<em>H</em>-Imidazole, 2-(chloromethyl)-1-(phenylmethyl)-, monohydrochloride;1-Benzyl-2-(chloromethyl)imidazole hydrochloride;1-Benzyl-2-(chloromethyl)-1<em>H</em>-imidazole hydrochloride",
    "duplicated_cas_no": "",
    "SMILES": "C(N1C(CCl)=NC=C1)C2=CC=CC=C2.Cl",
    "meta_data": {
        "InChI": "InChI=1S/C11H11ClN2.ClH/c12-8-11-13-6-7-14(11)9-10-4-2-1-3-5-10;/h1-7H,8-9H2;1H",
        "InChIKey": null,
        "Canonical SMILES": "Cl.ClCC1=NC=CN1CC=2C=CC=CC2",
        "Molecular Formula": "C<sub>11</sub>H<sub>11</sub>ClN<sub>2</sub>.ClH",
        "Molecular Mass": "",
        "Melting Point": "181-182 °C"
    }
}