{
    "cas_no": "394-30-9",
    "key_name": "5-Chloro-2-fluorobenzoic acid",
    "cn_name": "5-氯-2-氟苯甲酸;",
    "alternate_name": "Benzoic acid, 5-chloro-2-fluoro-;5-Chloro-2-fluorobenzoic acid;2-Fluoro-5-chlorobenzoic acid",
    "duplicated_cas_no": "",
    "SMILES": "C(O)(=O)C1=C(F)C=CC(Cl)=C1",
    "meta_data": {
        "InChI": "InChI=1S/C7H4ClFO2/c8-4-1-2-6(9)5(3-4)7(10)11/h1-3H,(H,10,11)",
        "InChIKey": null,
        "Canonical SMILES": "O=C(O)C1=CC(Cl)=CC=C1F",
        "Molecular Formula": "C<sub>7</sub>H<sub>4</sub>ClFO<sub>2</sub>",
        "Molecular Mass": "174.56",
        "Melting Point": "168 °C"
    }
}