{
    "cas_no": "14491-66-8",
    "key_name": "Dioctyl succinate",
    "cn_name": null,
    "alternate_name": "Butanedioic acid, 1,4-dioctyl ester;Succinic acid, dioctyl ester;Butanedioic acid, dioctyl ester;Dioctyl succinate",
    "duplicated_cas_no": "",
    "SMILES": "C(CCC(OCCCCCCCC)=O)(OCCCCCCCC)=O",
    "meta_data": {
        "InChI": "InChI=1S/C20H38O4/c1-3-5-7-9-11-13-17-23-19(21)15-16-20(22)24-18-14-12-10-8-6-4-2/h3-18H2,1-2H3",
        "InChIKey": null,
        "Canonical SMILES": "O=C(OCCCCCCCC)CCC(=O)OCCCCCCCC",
        "Molecular Formula": "C<sub>20</sub>H<sub>38</sub>O<sub>4</sub>",
        "Molecular Mass": "342.51",
        "Boiling Point": "210 °C @ Press: 0.11 Torr"
    }
}