{
    "cas_no": "12354-85-7",
    "key_name": "Bis[dichloro[η<sup>5</sup>-(pentamethylcyclopentadienyl)]rhodium]",
    "cn_name": null,
    "alternate_name": "Rhodium, di-μ-chlorodichlorobis[(1,2,3,4,5-η)-1,2,3,4,5-pentamethyl-2,4-cyclopentadien-1-yl]di-;1,3-Cyclopentadiene, 1,2,3,4,5-pentamethyl-, rhodium complex;Di-μ-Chlorodichlorobis(pentamethyl-π-cyclopentadienyl)dirhodium;Tetrachlorobis(pentamethylcyclopentadienyl)dirhodium;Di-μ-chlorodichlorobis(pentamethylcyclopentadienyl)dirhodium;Bis(dichloro(pentamethylcyclopentadienyl)rhodium);Bis(chloro(μ-chloro)(η<sup>5</sup>-pentamethylcyclopentadienyl)rhodium);Tetrachlorobis(η<sup>5</sup>-pentamethylcyclopentadienyl)dirhodium;Bis[dichloro[η<sup>5</sup>-(pentamethylcyclopentadienyl)]rhodium];Bis(μ-chloro)bis(chloro(η<sup>5</sup>-pentamethylcyclopentadienyl)rhodium);Dichlorobis(μ<sub>2</sub>-chloro)bis(η<sup>5</sup>-pentamethylcyclopentadienyl)dirhodium;(η<sup>5</sup>-Pentamethylcyclopentadienyl)rhodium dichloride dimer;Bis(pentamethylcyclopentadienylrhodium dichloride);Di-μ-chlorodichlorobis((η<sup>5</sup>-pentamethylcyclopentadienyl)rhodium);Dichloro(pentamethylcyclopentadienyl)rhodium dimer;Di-μ-chlorobis[chloro(η<sup>5</sup>-pentamethylcyclopentadienyl)rhodium];Pentamethylcyclopentadienerhodium dichloride dimer;Dichloro(pentamethylcyclopentadienyl)rhodium(II) dimer;Dichloro(pentamethylcyclopentadienyl)rhodium(III) dimer;Di-μ-chlorodichlorobis(η<sup>5</sup>-pentamethylcyclopentadienyl)dirhodium;(Pentamethylcyclopentadienyl)rhodium dichloride dimer;Pentamethylcyclopentadienylrhodium(III) chloride dimer;[RhCl<sub>2</sub>Cp<sup>*</sup>]<sub>2</sub>",
    "duplicated_cas_no": "51160-00-0;60867-02-9;1629020-38-7;1845755-27-2;2249844-06-0;2768478-35-7",
    "SMILES": "[Cl-][Rh+3]12345(C=6(C)C1(C)=C2(C)[C-]3(C)C46C)[Cl-][Rh+3]789%10([Cl-])([Cl-]5)[C-]%11(C)C7(C)=C8(C)C9(C)=C%10%11C",
    "meta_data": {
        "InChI": "InChI=1S/2C10H15.4ClH.2Rh/c2*1-6-7(2)9(4)10(5)8(6)3;;;;;;/h2*1-5H3;4*1H;;/q2*-1;;;;;2*+3/p-4",
        "InChIKey": null,
        "Canonical SMILES": "[Cl-][Rh+3]12345([Cl-][Rh+3]6789([Cl-])([Cl-]1)C=%10(C)C9(C)=C8(C)[C-]7(C)C%106C)C=%11(C)C5(C)=C4(C)[C-]3(C)C%112C",
        "Molecular Formula": "C<sub>20</sub>H<sub>30</sub>Cl<sub>4</sub>Rh<sub>2</sub>",
        "Molecular Mass": "",
        "Melting Point": "&gt;350 °C (decomp)"
    }
}