{
    "cas_no": "19275-46-8",
    "key_name": "3-Isomangostin",
    "cn_name": "3,4-二氢-5,9-二羟基-8-甲氧基-2,2-二甲基-7-(3-甲基-2-丁烯基)-2H,6H-吡喃并[3,2-B]氧杂蒽-6-酮;",
    "alternate_name": "2<em>H</em>,6<em>H</em>-Pyrano[3,2-<em>b</em>]xanthen-6-one, 3,4-dihydro-5,9-dihydroxy-8-methoxy-2,2-dimethyl-7-(3-methyl-2-butenyl)-;3,4-Dihydro-5,9-dihydroxy-8-methoxy-2,2-dimethyl-7-(3-methyl-2-butenyl)-2<em>H</em>,6<em>H</em>-pyrano[3,2-<em>b</em>]xanthen-6-one;3-Isomangostin",
    "duplicated_cas_no": "",
    "SMILES": "C(C=C(C)C)C1=C2C(OC=3C(C2=O)=C(O)C4=C(C3)OC(C)(C)CC4)=CC(O)=C1OC",
    "meta_data": {
        "InChI": "InChI=1S/C24H26O6/c1-12(2)6-7-14-19-17(10-15(25)23(14)28-5)29-18-11-16-13(8-9-24(3,4)30-16)21(26)20(18)22(19)27/h6,10-11,25-26H,7-9H2,1-5H3",
        "InChIKey": null,
        "Canonical SMILES": "O=C1C=2C(O)=C3C(OC(C)(C)CC3)=CC2OC4=CC(O)=C(OC)C(=C14)CC=C(C)C",
        "Molecular Formula": "C<sub>24</sub>H<sub>26</sub>O<sub>6</sub>",
        "Molecular Mass": "410.46",
        "Melting Point": "164-166 °C"
    }
}