{
    "cas_no": "80-32-0",
    "key_name": "Sulfachlorpyridazine",
    "cn_name": "4-氨基-N-(6-氯-3-哒嗪基)苯磺酰胺;6-氯-3-磺胺哒嗪;磺胺氯哒嗪;",
    "alternate_name": "Benzenesulfonamide, 4-amino-<em>N</em>-(6-chloro-3-pyridazinyl)-;Sulfanilamide, <em>N</em><sup>1</sup>-(6-chloro-3-pyridazinyl)-;4-Amino-<em>N</em>-(6-chloro-3-pyridazinyl)benzenesulfonamide;BA 10370;<em>N</em><sup>1</sup>-(6-Chloro-3-pyridazinyl)sulfanilamide;Consulid;Sonilyn;Sulfachlorpyridazine;6-Sulfanilamido-3-chloropyridazine;3-Chloro-6-sulfanilamidopyridazine;Bactolin;Renalsulfa;Sulfaclorazina;Sulfarene;Sulpirazina;Durasulf;Sulfochlorpyridazine;Nefrosul;Cosulid;Ciba 10370;MeSH ID: D013410",
    "duplicated_cas_no": "63747-94-4",
    "SMILES": "S(NC1=CC=C(Cl)N=N1)(=O)(=O)C2=CC=C(N)C=C2",
    "meta_data": {
        "InChI": "InChI=1S/C10H9ClN4O2S/c11-9-5-6-10(14-13-9)15-18(16,17)8-3-1-7(12)2-4-8/h1-6H,12H2,(H,14,15)",
        "InChIKey": null,
        "Canonical SMILES": "O=S(=O)(NC1=NN=C(Cl)C=C1)C2=CC=C(N)C=C2",
        "Molecular Formula": "C<sub>10</sub>H<sub>9</sub>ClN<sub>4</sub>O<sub>2</sub>S",
        "Molecular Mass": "284.72",
        "Melting Point": "187 °C"
    }
}