{
    "cas_no": "178631-05-5",
    "key_name": "1-Hexyl-3-methylimidazolium iodide",
    "cn_name": null,
    "alternate_name": "1<em>H</em>-Imidazolium, 3-hexyl-1-methyl-, iodide (1:1);1<em>H</em>-Imidazolium, 1-hexyl-3-methyl-, iodide;1-Hexyl-3-methylimidazolium iodide;1-Methyl-3-hexylimidazolium iodide;<em>N</em>-Methyl-<em>N</em>′-hexylimidazolium iodide;3-Hexyl-1-methylimidazolium iodide;1-Hexyl-3-methyl-1<em>H</em>-imidazol-3-ium iodide",
    "duplicated_cas_no": "255390-16-0",
    "SMILES": "C(CCCCC)[N+]1=CN(C)C=C1.[I-]",
    "meta_data": {
        "InChI": "InChI=1S/C10H19N2.HI/c1-3-4-5-6-7-12-9-8-11(2)10-12;/h8-10H,3-7H2,1-2H3;1H/q+1;/p-1",
        "InChIKey": null,
        "Canonical SMILES": "[I-].C1=C[N+](=CN1C)CCCCCC",
        "Molecular Formula": "C<sub>10</sub>H<sub>19</sub>N<sub>2</sub>.I",
        "Molecular Mass": "",
        "Melting Point": "200 °C (decomp)",
        "Density": "1.49 g/cm³"
    }
}