{
    "cas_no": "5637-42-3",
    "key_name": "<em>N</em>-(4-Cyanophenyl)guanidine",
    "cn_name": "N-(4-氰基苯基)胍;",
    "alternate_name": "Guanidine, <em>N</em>-(4-cyanophenyl)-;Guanidine, (<em>p</em>-cyanophenyl)-;Guanidine, (4-cyanophenyl)-;<em>N</em>-(4-Cyanophenyl)guanidine;4-Cyanophenylguanidine;1-(4-Cyanophenyl)guanidine;2-(4-Cyanophenyl)guanidine",
    "duplicated_cas_no": "",
    "SMILES": "N(C(=N)N)C1=CC=C(C#N)C=C1",
    "meta_data": {
        "InChI": "InChI=1S/C8H8N4/c9-5-6-1-3-7(4-2-6)12-8(10)11/h1-4H,(H4,10,11,12)",
        "InChIKey": null,
        "Canonical SMILES": "N#CC1=CC=C(C=C1)NC(=N)N",
        "Molecular Formula": "C<sub>8</sub>H<sub>8</sub>N<sub>4</sub>",
        "Molecular Mass": "160.18",
        "Melting Point": "220-222 °C"
    }
}