{
    "cas_no": "350-29-8",
    "key_name": "3-Fluoro-4-hydroxybenzoic acid",
    "cn_name": "3-氟-4-羟基苯甲酸;",
    "alternate_name": "Benzoic acid, 3-fluoro-4-hydroxy-;3-Fluoro-4-hydroxybenzoic acid;4-Hydroxy-3-fluorobenzoic acid;5-Fluoro-4-hydroxybenzoic acid",
    "duplicated_cas_no": "",
    "SMILES": "C(O)(=O)C1=CC(F)=C(O)C=C1",
    "meta_data": {
        "InChI": "InChI=1S/C7H5FO3/c8-5-3-4(7(10)11)1-2-6(5)9/h1-3,9H,(H,10,11)",
        "InChIKey": null,
        "Canonical SMILES": "O=C(O)C1=CC=C(O)C(F)=C1",
        "Molecular Formula": "C<sub>7</sub>H<sub>5</sub>FO<sub>3</sub>",
        "Molecular Mass": "156.11",
        "Melting Point": "160-161 °C"
    }
}