{
    "cas_no": "368-48-9",
    "key_name": "2-(Trifluoromethyl)pyridine",
    "cn_name": "2-三氟甲基吡啶;",
    "alternate_name": "Pyridine, 2-(trifluoromethyl)-;2-(Trifluoromethyl)pyridine",
    "duplicated_cas_no": "",
    "SMILES": "C(F)(F)(F)C1=CC=CC=N1",
    "meta_data": {
        "InChI": "InChI=1S/C6H4F3N/c7-6(8,9)5-3-1-2-4-10-5/h1-4H",
        "InChIKey": null,
        "Canonical SMILES": "FC(F)(F)C1=NC=CC=C1",
        "Molecular Formula": "C<sub>6</sub>H<sub>4</sub>F<sub>3</sub>N",
        "Molecular Mass": "147.10",
        "Boiling Point": "143.0 °C @ Press: 745.5 Torr"
    }
}