{
    "cas_no": "74448-92-3",
    "key_name": "4-(4-Chlorophenoxy)benzonitrile",
    "cn_name": "4-(4-氯苯氧基)苄腈;",
    "alternate_name": "Benzonitrile, 4-(4-chlorophenoxy)-;4-(4-Chlorophenoxy)benzonitrile",
    "duplicated_cas_no": "",
    "SMILES": "O(C1=CC=C(C#N)C=C1)C2=CC=C(Cl)C=C2",
    "meta_data": {
        "InChI": "InChI=1S/C13H8ClNO/c14-11-3-7-13(8-4-11)16-12-5-1-10(9-15)2-6-12/h1-8H",
        "InChIKey": null,
        "Canonical SMILES": "N#CC1=CC=C(OC2=CC=C(Cl)C=C2)C=C1",
        "Molecular Formula": "C<sub>13</sub>H<sub>8</sub>ClNO",
        "Molecular Mass": "229.66",
        "Boiling Point": "160 °C @ Press: 0.6 Torr",
        "Melting Point": "81-83 °C"
    }
}