{
    "cas_no": "452-11-9",
    "key_name": "3-Fluoro-4-methoxyphenol",
    "cn_name": "3-氟-4-甲氧基苯酚;3-氟-4-甲氧基苯酚;",
    "alternate_name": "Phenol, 3-fluoro-4-methoxy-;3-Fluoro-4-methoxyphenol",
    "duplicated_cas_no": "",
    "SMILES": "O(C)C1=C(F)C=C(O)C=C1",
    "meta_data": {
        "InChI": "InChI=1S/C7H7FO2/c1-10-7-3-2-5(9)4-6(7)8/h2-4,9H,1H3",
        "InChIKey": null,
        "Canonical SMILES": "FC1=CC(O)=CC=C1OC",
        "Molecular Formula": "C<sub>7</sub>H<sub>7</sub>FO<sub>2</sub>",
        "Molecular Mass": "142.13",
        "Melting Point": "54-55 °C"
    }
}