{
    "cas_no": "2004-70-8",
    "key_name": "<em>trans</em>-1,3-Pentadiene",
    "cn_name": null,
    "alternate_name": "1,3-Pentadiene, (3<em>E</em>)-;1,3-Pentadiene, (<em>E</em>)-;Piperylene, <em>trans</em>-;(3<em>E</em>)-1,3-Pentadiene;<em>trans</em>-1,3-Pentadiene;<em>trans</em>-Piperylene;<em>trans</em>-1-Methylbutadiene;(<em>E</em>)-1,3-Pentadiene;<em>trans</em>-1-Methyl-1,3-butadiene;1,3-<em>trans</em>-Pentadiene;(<em>E</em>)-Piperylene;NSC 73901",
    "duplicated_cas_no": "",
    "SMILES": "C(\\C=C)=C/C",
    "meta_data": {
        "InChI": "InChI=1S/C5H8/c1-3-5-4-2/h3-5H,1H2,2H3/b5-4+",
        "InChIKey": null,
        "Canonical SMILES": "C=CC=CC",
        "Molecular Formula": "C<sub>5</sub>H<sub>8</sub>",
        "Molecular Mass": "68.12",
        "Boiling Point": "42 °C",
        "Melting Point": "-87.5 °C",
        "Density": "0.6710 g/cm³ @ Temp: 25 °C"
    }
}