{
    "cas_no": "4052-92-0",
    "key_name": "3-(Chlorosulfonyl)benzoyl chloride",
    "cn_name": null,
    "alternate_name": "Benzoyl chloride, 3-(chlorosulfonyl)-;Benzoyl chloride, <em>m</em>-(chlorosulfonyl)-;3-(Chlorosulfonyl)benzoyl chloride;3-Chlorocarbonylphenylsulfonyl chloride;<em>m</em>-(Chlorosulfonyl)benzoyl chloride;3-Chlorosulfonylbenzoyl chloride;3-(Chlorosulfonyl)benzoic acid chloride",
    "duplicated_cas_no": "",
    "SMILES": "S(Cl)(=O)(=O)C1=CC(C(Cl)=O)=CC=C1",
    "meta_data": {
        "InChI": "InChI=1S/C7H4Cl2O3S/c8-7(10)5-2-1-3-6(4-5)13(9,11)12/h1-4H",
        "InChIKey": null,
        "Canonical SMILES": "O=C(Cl)C1=CC=CC(=C1)S(=O)(=O)Cl",
        "Molecular Formula": "C<sub>7</sub>H<sub>4</sub>Cl<sub>2</sub>O<sub>3</sub>S",
        "Molecular Mass": "239.08",
        "Boiling Point": "170-175 °C @ Press: 15 Torr"
    }
}