{
    "cas_no": "2978-11-2",
    "key_name": "(4-Nitrophenyl)methyl <em>N</em>,<em>N</em>′-bis(1-methylethyl)carbamimidate",
    "cn_name": "N,N-二异丙基-O-(4-硝基苄基)异脲;N,N-二异丙基脲;对硝基苯酰基;",
    "alternate_name": "Carbamimidic acid, <em>N</em>,<em>N</em>′-bis(1-methylethyl)-, (4-nitrophenyl)methyl ester;Pseudourea, 1,3-diisopropyl-2-(<em>p</em>-nitrobenzyl)-;(4-Nitrophenyl)methyl <em>N</em>,<em>N</em>′-bis(1-methylethyl)carbamimidate;<em>O</em>-<em>p</em>-Nitrobenzyl-<em>N</em>,<em>N</em>′-diisopropylisourea",
    "duplicated_cas_no": "",
    "SMILES": "C(OC(=NC(C)C)NC(C)C)C1=CC=C(N(=O)=O)C=C1",
    "meta_data": {
        "InChI": "InChI=1S/C14H21N3O3/c1-10(2)15-14(16-11(3)4)20-9-12-5-7-13(8-6-12)17(18)19/h5-8,10-11H,9H2,1-4H3,(H,15,16)",
        "InChIKey": null,
        "Canonical SMILES": "O=N(=O)C1=CC=C(C=C1)COC(=NC(C)C)NC(C)C",
        "Molecular Formula": "C<sub>14</sub>H<sub>21</sub>N<sub>3</sub>O<sub>3</sub>",
        "Molecular Mass": "279.33",
        "Melting Point": "42 °C"
    }
}