{
    "cas_no": "2621-79-6",
    "key_name": "Ethyl <em>N</em>-methyl-<em>N</em>-phenylcarbamate",
    "cn_name": "N-甲基-N-苯基乌拉坦;",
    "alternate_name": "Carbamic acid, <em>N</em>-methyl-<em>N</em>-phenyl-, ethyl ester;Carbanilic acid, <em>N</em>-methyl-, ethyl ester;Carbamic acid, methylphenyl-, ethyl ester;Ethyl <em>N</em>-methyl-<em>N</em>-phenylcarbamate;Ethyl methylphenylcarbamate;Ethyl <em>N</em>-methylcarbanilate;NSC 65608",
    "duplicated_cas_no": "",
    "SMILES": "N(C(OCC)=O)(C)C1=CC=CC=C1",
    "meta_data": {
        "InChI": "InChI=1S/C10H13NO2/c1-3-13-10(12)11(2)9-7-5-4-6-8-9/h4-8H,3H2,1-2H3",
        "InChIKey": null,
        "Canonical SMILES": "O=C(OCC)N(C=1C=CC=CC1)C",
        "Molecular Formula": "C<sub>10</sub>H<sub>13</sub>NO<sub>2</sub>",
        "Molecular Mass": "179.22",
        "Boiling Point": "116 °C @ Press: 8 Torr",
        "Melting Point": "242-244 °C"
    }
}