{
    "cas_no": "3710-42-7",
    "key_name": "7-Hydroxyheptanoic acid",
    "cn_name": "7-羟基庚酸;",
    "alternate_name": "Heptanoic acid, 7-hydroxy-;7-Hydroxyheptanoic acid",
    "duplicated_cas_no": "",
    "SMILES": "C(CCCCO)CC(O)=O",
    "meta_data": {
        "InChI": "InChI=1S/C7H14O3/c8-6-4-2-1-3-5-7(9)10/h8H,1-6H2,(H,9,10)",
        "InChIKey": null,
        "Canonical SMILES": "O=C(O)CCCCCCO",
        "Molecular Formula": "C<sub>7</sub>H<sub>14</sub>O<sub>3</sub>",
        "Molecular Mass": "146.18",
        "Boiling Point": "145-152 °C @ Press: 18 Torr",
        "Melting Point": "46 °C"
    }
}