{
    "cas_no": "100-61-8",
    "key_name": "<em>N</em>-Methylaniline",
    "cn_name": "N-甲基苯胺;",
    "alternate_name": "Benzenamine, <em>N</em>-methyl-;Aniline, <em>N</em>-methyl-;<em>N</em>-Methylbenzenamine;Anilinomethane;<em>N</em>-Methylaniline;Methylaniline;(Methylamino)benzene;<em>N</em>-Methylphenylamine;<em>N</em>-Monomethylaniline;<em>N</em>-Phenylmethylamine;<em>N</em>-Phenyl-<em>N</em>-methylamine;<em>N</em>-Methyl-<em>N</em>-phenylamine;Methyl(phenyl)amine;NSC 3502",
    "duplicated_cas_no": "",
    "SMILES": "N(C)C1=CC=CC=C1",
    "meta_data": {
        "InChI": "InChI=1S/C7H9N/c1-8-7-5-3-2-4-6-7/h2-6,8H,1H3",
        "InChIKey": null,
        "Canonical SMILES": "C=1C=CC(=CC1)NC",
        "Molecular Formula": "C<sub>7</sub>H<sub>9</sub>N",
        "Molecular Mass": "107.15",
        "Boiling Point": "196.25 °C",
        "Melting Point": "-57 °C",
        "Density": "0.989 g/cm³ @ Temp: 20 °C"
    }
}