{
    "cas_no": "82380-18-5",
    "key_name": "2-Fluoro-4-hydroxybenzonitrile",
    "cn_name": "2-氟-4-羟基苯腈;3-氟-4-氰基苯酚;",
    "alternate_name": "Benzonitrile, 2-fluoro-4-hydroxy-;2-Fluoro-4-hydroxybenzonitrile;3-Fluoro-4-cyanophenol;4-Hydroxy-2-fluorobenzonitrile;4-Cyano-3-fluorophenol;4-Nitrile-3-fluorophenol",
    "duplicated_cas_no": "",
    "SMILES": "C(#N)C1=C(F)C=C(O)C=C1",
    "meta_data": {
        "InChI": "InChI=1S/C7H4FNO/c8-7-3-6(10)2-1-5(7)4-9/h1-3,10H",
        "InChIKey": null,
        "Canonical SMILES": "N#CC1=CC=C(O)C=C1F",
        "Molecular Formula": "C<sub>7</sub>H<sub>4</sub>FNO",
        "Molecular Mass": "137.11",
        "Melting Point": "124-125 °C"
    }
}