{
    "cas_no": "41468-25-1",
    "key_name": "Pyridoxal 5′-phosphate monohydrate",
    "cn_name": "5-磷酸吡哆醛;3-羟基-2-甲基-5-[(膦酰氧基)甲基]-4-吡啶甲醛一水合物;",
    "alternate_name": "4-Pyridinecarboxaldehyde, 3-hydroxy-2-methyl-5-[(phosphonooxy)methyl]-, hydrate (1:1);4-Pyridinecarboxaldehyde, 3-hydroxy-2-methyl-5-[(phosphonooxy)methyl]-, monohydrate;Pyridoxal 5′-phosphate monohydrate;MC 1",
    "duplicated_cas_no": "",
    "SMILES": "C(OP(=O)(O)O)C=1C(C=O)=C(O)C(C)=NC1.O",
    "meta_data": {
        "InChI": "InChI=1S/C8H10NO6P.H2O/c1-5-8(11)7(3-10)6(2-9-5)4-15-16(12,13)14;/h2-3,11H,4H2,1H3,(H2,12,13,14);1H2",
        "InChIKey": null,
        "Canonical SMILES": "O=CC1=C(O)C(=NC=C1COP(=O)(O)O)C.O",
        "Molecular Formula": "C<sub>8</sub>H<sub>10</sub>NO<sub>6</sub>P.H<sub>2</sub>O",
        "Molecular Mass": "",
        "Melting Point": "140-143 °C"
    }
}