{
    "cas_no": "654-98-8",
    "key_name": "5-Chloro-2-(trifluoromethyl)benzoic acid",
    "cn_name": null,
    "alternate_name": "Benzoic acid, 5-chloro-2-(trifluoromethyl)-;<em>o</em>-Toluic acid, 5-chloro-α,α,α-trifluoro-;5-Chloro-2-(trifluoromethyl)benzoic acid;5-Chloro-2-trifluoromethylbenzoic acid;2-Trifluoromethyl-5-chlorobenzoic acid",
    "duplicated_cas_no": "",
    "SMILES": "C(O)(=O)C1=C(C(F)(F)F)C=CC(Cl)=C1",
    "meta_data": {
        "InChI": "InChI=1S/C8H4ClF3O2/c9-4-1-2-6(8(10,11)12)5(3-4)7(13)14/h1-3H,(H,13,14)",
        "InChIKey": null,
        "Canonical SMILES": "O=C(O)C1=CC(Cl)=CC=C1C(F)(F)F",
        "Molecular Formula": "C<sub>8</sub>H<sub>4</sub>ClF<sub>3</sub>O<sub>2</sub>",
        "Molecular Mass": "224.56",
        "Melting Point": "84-85 °C"
    }
}