{
    "cas_no": "609-71-2",
    "key_name": "2-Hydroxynicotinic acid",
    "cn_name": "2-羟基烟酸;",
    "alternate_name": "3-Pyridinecarboxylic acid, 1,2-dihydro-2-oxo-;Nicotinic acid, 1,2-dihydro-2-oxo-;1,2-Dihydro-2-oxo-3-pyridinecarboxylic acid;2-Hydroxynicotinic acid;2-Hydroxypyridine-3-carboxylic acid;3-Carboxy-2-pyridone;1,2-Dihydro-2-oxonicotinic acid;2-Hydroxy-3-carboxypyridine;NSC 226152;2-Oxo-1,2-dihydropyridine-3-carboxylic acid;2-Oxopyridine-3-carboxylic acid;2-Oxo-1<em>H</em>-pyridine-3-carboxylic acid;Pyridine-2-hydroxy-3-carboxylic acid",
    "duplicated_cas_no": "",
    "SMILES": "C(O)(=O)C=1C(=O)NC=CC1",
    "meta_data": {
        "InChI": "InChI=1S/C6H5NO3/c8-5-4(6(9)10)2-1-3-7-5/h1-3H,(H,7,8)(H,9,10)",
        "InChIKey": null,
        "Canonical SMILES": "O=C(O)C1=CC=CNC1=O",
        "Molecular Formula": "C<sub>6</sub>H<sub>5</sub>NO<sub>3</sub>",
        "Molecular Mass": "139.11",
        "Melting Point": "247-249 °C (decomp)"
    }
}