{
    "cas_no": "56816-01-4",
    "key_name": "(+)-Ethyl 3-hydroxybutyrate",
    "cn_name": "(S)-3-羟基丁酸乙酯;",
    "alternate_name": "Butanoic acid, 3-hydroxy-, ethyl ester, (3<em>S</em>)-;Butanoic acid, 3-hydroxy-, ethyl ester, (<em>S</em>)-;Ethyl (+)-3-hydroxybutanoate;(<em>S</em>)-(+)-Ethyl 3-hydroxybutyrate;Ethyl (<em>S</em>)-3-hydroxybutanoate;(<em>S</em>)-3-Hydroxybutanoic acid ethyl ester;Ethyl (<em>S</em>)-3-hydroxybutyrate;Ethyl (<em>S</em>)-(+)-β-hydroxybutyrate;(<em>S</em>)-(+)-Ethyl 3-hydroxybutanoate;(<em>S</em>)-3-Hydroxybutyric acid ethyl ester;(<em>S</em>)-(+)-3-Hydroxy-<em>n</em>-butyrate ethyl ester;(<em>S</em>)-Ethyl 3-hydroxybutyrate;(+)-Ethyl 3-hydroxybutyrate;(3<em>S</em>)-3-Hydroxybutyric acid ethyl ester",
    "duplicated_cas_no": "",
    "SMILES": "C(C(OCC)=O)[C@H](C)O",
    "meta_data": {
        "InChI": "InChI=1S/C6H12O3/c1-3-9-6(8)4-5(2)7/h5,7H,3-4H2,1-2H3/t5-/m0/s1",
        "InChIKey": null,
        "Canonical SMILES": "O=C(OCC)CC(O)C",
        "Molecular Formula": "C<sub>6</sub>H<sub>12</sub>O<sub>3</sub>",
        "Molecular Mass": "132.16",
        "Boiling Point": "70 °C @ Press: 11 Torr"
    }
}