{
    "cas_no": "5089-22-5",
    "key_name": "1,4-Bis(2-benzoxazolyl)naphthalene",
    "cn_name": "荧光增白剂367;1,4-二(苯并噁唑-2-基)萘;荧光增白剂KCB;",
    "alternate_name": "Benzoxazole, 2,2′-(1,4-naphthalenediyl)bis-;Benzoxazole, 2,2′-(1,4-naphthylene)bis-;2,2′-(1,4-Naphthalenediyl)bis[benzoxazole];1,4-Bis(2-benzoxazolyl)naphthalene;1,4-Di(2-benzoxazolyl)naphthalene;Hostalux KCB;KCB;Fluorescent brightener KCB;2-[4-(1,3-Benzoxazol-2-yl)naphthalen-1-yl]-1,3-benzoxazole;Fluorescent brightener 367;B 2728",
    "duplicated_cas_no": "1263217-20-4",
    "SMILES": "C=1(C2=C(C(=CC1)C3=NC=4C(O3)=CC=CC4)C=CC=C2)C5=NC=6C(O5)=CC=CC6",
    "meta_data": {
        "InChI": "InChI=1S/C24H14N2O2/c1-2-8-16-15(7-1)17(23-25-19-9-3-5-11-21(19)27-23)13-14-18(16)24-26-20-10-4-6-12-22(20)28-24/h1-14H",
        "InChIKey": null,
        "Canonical SMILES": "N1=C(OC2=CC=CC=C12)C3=CC=C(C4=NC5=CC=CC=C5O4)C=6C=CC=CC36",
        "Molecular Formula": "C<sub>24</sub>H<sub>14</sub>N<sub>2</sub>O<sub>2</sub>",
        "Molecular Mass": "362.38",
        "Melting Point": "212-213 °C"
    }
}