{
    "cas_no": "19179-36-3",
    "key_name": "3,5-Dihydroxybenzonitrile",
    "cn_name": "3,5-二羟基苯甲腈;",
    "alternate_name": "Benzonitrile, 3,5-dihydroxy-;α-Resorcylonitrile;3,5-Dihydroxybenzonitrile;5-Cyanoresorcinol",
    "duplicated_cas_no": "",
    "SMILES": "C(#N)C1=CC(O)=CC(O)=C1",
    "meta_data": {
        "InChI": "InChI=1S/C7H5NO2/c8-4-5-1-6(9)3-7(10)2-5/h1-3,9-10H",
        "InChIKey": null,
        "Canonical SMILES": "N#CC=1C=C(O)C=C(O)C1",
        "Molecular Formula": "C<sub>7</sub>H<sub>5</sub>NO<sub>2</sub>",
        "Molecular Mass": "135.12",
        "Melting Point": "154-156 °C"
    }
}