{
    "cas_no": "1332-81-6",
    "key_name": "Antimony tetroxide",
    "cn_name": "氧化锑;",
    "alternate_name": "Antimony oxide (Sb<sub>2</sub>O<sub>4</sub>);Antimony antimonate (Sb(SbO<sub>4</sub>));β-Antimony tetroxide;Antimony tetroxide;Antimony tetroxide (Sb<sub>2</sub>O<sub>4</sub>);Diantimony tetraoxide;Diantimony tetroxide;Sun Epoch NA 5050;NA 5050;FOX-L;ATE-H;ATE-S",
    "duplicated_cas_no": "",
    "SMILES": "O([Sb](=O)=O)[Sb]=O",
    "meta_data": {
        "InChI": "InChI=1S/4O.2Sb",
        "InChIKey": null,
        "Canonical SMILES": "O=[Sb]O[Sb](=O)=O",
        "Molecular Formula": "O<sub>4</sub>Sb<sub>2</sub>",
        "Molecular Mass": "",
        "Melting Point": "930 °C"
    }
}