{
    "cas_no": "397843-71-9",
    "key_name": "<em>B</em>-[3-[(Phenylamino)carbonyl]phenyl]boronic acid",
    "cn_name": "3-苯氨羰基苯硼酸;",
    "alternate_name": "Boronic acid, <em>B</em>-[3-[(phenylamino)carbonyl]phenyl]-;Boronic acid, [3-[(phenylamino)carbonyl]phenyl]-;<em>B</em>-[3-[(Phenylamino)carbonyl]phenyl]boronic acid;[3-(Phenylcarbamoyl)phenyl]boronic acid",
    "duplicated_cas_no": "",
    "SMILES": "C(NC1=CC=CC=C1)(=O)C2=CC(B(O)O)=CC=C2",
    "meta_data": {
        "InChI": "InChI=1S/C13H12BNO3/c16-13(15-12-7-2-1-3-8-12)10-5-4-6-11(9-10)14(17)18/h1-9,17-18H,(H,15,16)",
        "InChIKey": null,
        "Canonical SMILES": "O=C(NC=1C=CC=CC1)C=2C=CC=C(C2)B(O)O",
        "Molecular Formula": "C<sub>13</sub>H<sub>12</sub>BNO<sub>3</sub>",
        "Molecular Mass": "241.05",
        "Melting Point": "245-246 °C"
    }
}