{
    "cas_no": "7452-79-1",
    "key_name": "Ethyl 2-methylbutanoate",
    "cn_name": "2-甲基丁酸乙酯;",
    "alternate_name": "Butanoic acid, 2-methyl-, ethyl ester;Butyric acid, 2-methyl-, ethyl ester;Ethyl 2-methylbutyrate;Ethyl α-methylbutyrate;Ethyl 2-methylbutanoate;2-Methylbutyric acid ethyl ester;NSC 1103;2-Methylbutanoic acid ethyl ester;(±)-Ethyl 2-methylbutanoate",
    "duplicated_cas_no": "53956-13-1",
    "SMILES": "C(C(CC)C)(OCC)=O",
    "meta_data": {
        "InChI": "InChI=1S/C7H14O2/c1-4-6(3)7(8)9-5-2/h6H,4-5H2,1-3H3",
        "InChIKey": null,
        "Canonical SMILES": "O=C(OCC)C(C)CC",
        "Molecular Formula": "C<sub>7</sub>H<sub>14</sub>O<sub>2</sub>",
        "Molecular Mass": "130.18",
        "Boiling Point": "133.1 °C",
        "Density": "0.8687 g/cm³ @ Temp: 20 °C"
    }
}