{
    "cas_no": "51-36-5",
    "key_name": "3,5-Dichlorobenzoic acid",
    "cn_name": "3,5-二氯苯甲酸;",
    "alternate_name": "Benzoic acid, 3,5-dichloro-;3,5-Dichlorobenzoic acid;3,5-Dichlorobenzic acid",
    "duplicated_cas_no": "",
    "SMILES": "C(O)(=O)C1=CC(Cl)=CC(Cl)=C1",
    "meta_data": {
        "InChI": "InChI=1S/C7H4Cl2O2/c8-5-1-4(7(10)11)2-6(9)3-5/h1-3H,(H,10,11)",
        "InChIKey": null,
        "Canonical SMILES": "O=C(O)C=1C=C(Cl)C=C(Cl)C1",
        "Molecular Formula": "C<sub>7</sub>H<sub>4</sub>Cl<sub>2</sub>O<sub>2</sub>",
        "Molecular Mass": "191.01",
        "Melting Point": "188 °C"
    }
}