{
    "cas_no": "107-96-0",
    "key_name": "3-Mercaptopropionic acid",
    "cn_name": "3-巯基丙酸;",
    "alternate_name": "Propanoic acid, 3-mercapto-;Propionic acid, 3-mercapto-;Propionic acid, β-mercapto-;3-Mercaptopropanoic acid;3-Mercaptopropionic acid;β-Mercaptopropionic acid;β-Thiopropionic acid;3-Thiopropionic acid;Mercaptopropionic acid;3-Thiopropanoic acid;β-Mercaptopropanoic acid;MPA;Thiohydracrylic acid;2-Mercaptoethanecarboxylic acid;NSC 437;NSC 45157;BMPA (thiol);BMPA;3-Sulfanylpropanoic acid;R 013140;MeSH ID: D015097",
    "duplicated_cas_no": "803635-69-0;1629856-14-9;2018279-94-0",
    "SMILES": "C(C(O)=O)CS",
    "meta_data": {
        "InChI": "InChI=1S/C3H6O2S/c4-3(5)1-2-6/h6H,1-2H2,(H,4,5)",
        "InChIKey": null,
        "Canonical SMILES": "O=C(O)CCS",
        "Molecular Formula": "C<sub>3</sub>H<sub>6</sub>O<sub>2</sub>S",
        "Molecular Mass": "106.14",
        "Boiling Point": "111 °C @ Press: 15 Torr",
        "Melting Point": "16.8 °C",
        "Density": "1.218 g/cm³ @ Temp: 21 °C"
    }
}