{
    "cas_no": "2932-65-2",
    "key_name": "1-(4-Propylphenyl)ethanone",
    "cn_name": "对丙基苯乙酮;",
    "alternate_name": "Ethanone, 1-(4-propylphenyl)-;Acetophenone, 4′-propyl-;1-(4-Propylphenyl)ethanone;<em>p</em>-<em>n</em>-Propylacetophenone;<em>p</em>-Propylacetophenone;4′-Propylacetophenone;1-Acetyl-4-propylbenzene;Methyl 4-propylphenyl ketone;NSC 172873;1-(4-Propylphenyl)ethan-1-one",
    "duplicated_cas_no": "",
    "SMILES": "C(C)(=O)C1=CC=C(CCC)C=C1",
    "meta_data": {
        "InChI": "InChI=1S/C11H14O/c1-3-4-10-5-7-11(8-6-10)9(2)12/h5-8H,3-4H2,1-2H3",
        "InChIKey": null,
        "Canonical SMILES": "O=C(C1=CC=C(C=C1)CCC)C",
        "Molecular Formula": "C<sub>11</sub>H<sub>14</sub>O",
        "Molecular Mass": "162.23",
        "Boiling Point": "115 °C @ Press: 5 Torr",
        "Density": "0.980 g/cm³ @ Temp: 20 °C"
    }
}