{
    "cas_no": "10024-89-2",
    "key_name": "Morpholine, hydrochloride (1:1)",
    "cn_name": "吗啡啉盐酸盐;",
    "alternate_name": "Morpholine, hydrochloride (1:1);Morpholine, hydrochloride;Morpholinium chloride",
    "duplicated_cas_no": "",
    "SMILES": "C1COCCN1.Cl",
    "meta_data": {
        "InChI": "InChI=1S/C4H9NO.ClH/c1-3-6-4-2-5-1;/h5H,1-4H2;1H",
        "InChIKey": null,
        "Canonical SMILES": "Cl.O1CCNCC1",
        "Molecular Formula": "C<sub>4</sub>H<sub>9</sub>NO.ClH",
        "Molecular Mass": "",
        "Melting Point": "177 °C"
    }
}