{
    "cas_no": "6214-47-7",
    "key_name": "Ethyl 4-chloro-5-pyrimidineacetate",
    "cn_name": null,
    "alternate_name": "5-Pyrimidineacetic acid, 4-chloro-, ethyl ester;Ethyl 4-chloro-5-pyrimidineacetate;Ethyl 2-(4-chloropyrimidin-5-yl)acetate;(4-Chloro-pyrimidin-5-yl)-acetic acid ethyl ester",
    "duplicated_cas_no": "",
    "SMILES": "C(C(OCC)=O)C=1C(Cl)=NC=NC1",
    "meta_data": {
        "InChI": "InChI=1S/C8H9ClN2O2/c1-2-13-7(12)3-6-4-10-5-11-8(6)9/h4-5H,2-3H2,1H3",
        "InChIKey": null,
        "Canonical SMILES": "O=C(OCC)CC=1C=NC=NC1Cl",
        "Molecular Formula": "C<sub>8</sub>H<sub>9</sub>ClN<sub>2</sub>O<sub>2</sub>",
        "Molecular Mass": "200.62",
        "Boiling Point": "95-96 °C @ Press: 0.04 Torr"
    }
}