{
    "cas_no": "5652-84-6",
    "key_name": "Methyl <em>N</em>-cyanoacetimidate",
    "cn_name": "氰基甲酯;",
    "alternate_name": "Ethanimidic acid, <em>N</em>-cyano-, methyl ester;Acetimidic acid, <em>N</em>-cyano-, methyl ester;Methyl <em>N</em>-cyanoacetimidate;Methyl <em>N</em>-cyanoacetamidate;<em>N</em>-Cyanoethanimidic acid methyl ester",
    "duplicated_cas_no": "",
    "SMILES": "C(=NC#N)(OC)C",
    "meta_data": {
        "InChI": "InChI=1S/C4H6N2O/c1-4(7-2)6-3-5/h1-2H3",
        "InChIKey": null,
        "Canonical SMILES": "N#CN=C(OC)C",
        "Molecular Formula": "C<sub>4</sub>H<sub>6</sub>N<sub>2</sub>O",
        "Molecular Mass": "98.10",
        "Boiling Point": "98-99 °C @ Press: 25 Torr"
    }
}