{
    "cas_no": "16534-12-6",
    "key_name": "4-Bromo-3,5-dihydroxybenzoic acid",
    "cn_name": "4-溴-3,5-二羟基苯甲酸;",
    "alternate_name": "Benzoic acid, 4-bromo-3,5-dihydroxy-;α-Resorcylic acid, 4-bromo-;4-Bromo-3,5-dihydroxybenzoic acid;4-Bromo-3,5-resorcylic acid;NSC 151972",
    "duplicated_cas_no": "",
    "SMILES": "C(O)(=O)C1=CC(O)=C(Br)C(O)=C1",
    "meta_data": {
        "InChI": "InChI=1S/C7H5BrO4/c8-6-4(9)1-3(7(11)12)2-5(6)10/h1-2,9-10H,(H,11,12)",
        "InChIKey": null,
        "Canonical SMILES": "O=C(O)C1=CC(O)=C(Br)C(O)=C1",
        "Molecular Formula": "C<sub>7</sub>H<sub>5</sub>BrO<sub>4</sub>",
        "Molecular Mass": "233.02",
        "Melting Point": "245-250 °C"
    }
}