{
    "cas_no": "449811-01-2",
    "key_name": "Pamapimod",
    "cn_name": null,
    "alternate_name": "Pyrido[2,3-<em>d</em>]pyrimidin-7(8<em>H</em>)-one, 6-(2,4-difluorophenoxy)-2-[[3-hydroxy-1-(2-hydroxyethyl)propyl]amino]-8-methyl-;6-(2,4-Difluorophenoxy)-2-[[3-hydroxy-1-(2-hydroxyethyl)propyl]amino]-8-methylpyrido[2,3-<em>d</em>]pyrimidin-7(8<em>H</em>)-one;Pamapimod;R 1503;Ro 4402257;FTX 839",
    "duplicated_cas_no": "",
    "SMILES": "CN1C=2C(C=C(OC3=C(F)C=C(F)C=C3)C1=O)=CN=C(NC(CCO)CCO)N2",
    "meta_data": {
        "InChI": "InChI=1S/C19H20F2N4O4/c1-25-17-11(10-22-19(24-17)23-13(4-6-26)5-7-27)8-16(18(25)28)29-15-3-2-12(20)9-14(15)21/h2-3,8-10,13,26-27H,4-7H2,1H3,(H,22,23,24)",
        "InChIKey": null,
        "Canonical SMILES": "O=C1C(OC2=CC=C(F)C=C2F)=CC=3C=NC(=NC3N1C)NC(CCO)CCO",
        "Molecular Formula": "C<sub>19</sub>H<sub>20</sub>F<sub>2</sub>N<sub>4</sub>O<sub>4</sub>",
        "Molecular Mass": "406.38",
        "Melting Point": "157.4-158.2 °C"
    }
}