{
    "cas_no": "27610-45-3",
    "key_name": "Sodium sulfide hydrate",
    "cn_name": null,
    "alternate_name": "Sodium sulfide (Na<sub>2</sub>S), hydrate;Sodium sulfide hydrate",
    "duplicated_cas_no": "",
    "SMILES": "S([Na])[Na].O",
    "meta_data": {
        "InChI": "InChI=1S/2Na.H2O.S/h;;1H2;",
        "InChIKey": null,
        "Canonical SMILES": "[Na]S[Na].O",
        "Molecular Formula": "H<sub>2</sub>O.xNa<sub>2</sub>S",
        "Molecular Mass": "",
        "Melting Point": "183-185 °C"
    }
}