{
    "cas_no": "23576-42-3",
    "key_name": "Phenylalanylglycylglycine",
    "cn_name": "L-苯丙氨酰甘氨酰甘氨酸;",
    "alternate_name": "Glycine, <span class=\"text-smallcaps\">L</span>-phenylalanylglycyl-;Glycine, <em>N</em>-[<em>N</em>-(3-phenyl-<span class=\"text-smallcaps\">L</span>-alanyl)glycyl]-;Glycine, <em>N</em>-(<em>N</em>-<span class=\"text-smallcaps\">L</span>-phenylalanylglycyl)-;<span class=\"text-smallcaps\">L</span>-Phenylalanylglycylglycine;Phenylalanylglycylglycine;136: PN: WO2007046818 PAGE: 60 claimed protein;10: PN: WO2008098569 SEQID: 10 claimed protein;10: PN: DE102007008596 SEQID: 10 unclaimed protein;Phenylalanine-glycine-glycine;18: PN: WO2016105375 SEQID: 18 claimed protein;2-[[2-[[(2S)-2-Azaniumyl-3-phenylpropanoyl]amino]acetyl]amino]acetate;2-[2-[(2S)-2-Amino-3-phenylpropanamido]acetamido]acetic acid",
    "duplicated_cas_no": "",
    "SMILES": "C([C@@H](C(NCC(NCC(O)=O)=O)=O)N)C1=CC=CC=C1",
    "meta_data": {
        "InChI": "InChI=1S/C13H17N3O4/c14-10(6-9-4-2-1-3-5-9)13(20)16-7-11(17)15-8-12(18)19/h1-5,10H,6-8,14H2,(H,15,17)(H,16,20)(H,18,19)/t10-/m0/s1",
        "InChIKey": null,
        "Canonical SMILES": "O=C(O)CNC(=O)CNC(=O)C(N)CC=1C=CC=CC1",
        "Molecular Formula": "C<sub>13</sub>H<sub>17</sub>N<sub>3</sub>O<sub>4</sub>",
        "Molecular Mass": "279.29",
        "Melting Point": "235-236 °C (decomp)"
    }
}