{
    "cas_no": "37905-07-0",
    "key_name": "(4a<em>R</em>,6a<em>S</em>,7a<em>R</em>,11a<em>S</em>,11b<em>R</em>)-2,3,4,4a,5,6,11a,11b-Octahydro-4,4,8,11b-tetramethyl-1<em>H</em>-oxireno[1,10a]phenanthro[3,2-<em>b</em>]furan-9(7a<em>H</em>)-one",
    "cn_name": null,
    "alternate_name": "1<em>H</em>-Oxireno[1,10a]phenanthro[3,2-<em>b</em>]furan-9(7a<em>H</em>)-one, 2,3,4,4a,5,6,11a,11b-octahydro-4,4,8,11b-tetramethyl-, (4a<em>R</em>,6a<em>S</em>,7a<em>R</em>,11a<em>S</em>,11b<em>R</em>)-;1<em>H</em>-Oxireno[1,10a]phenanthro[3,2-<em>b</em>]furan-9(7a<em>H</em>)-one, 2,3,4,4a,5,6,11a,11b-octahydro-4,4,8,11b-tetramethyl-, [4a<em>R</em>-(4aα,6a<em>S</em>*,7aβ,11aα,11bβ)]-;(4a<em>R</em>,6a<em>S</em>,7a<em>R</em>,11a<em>S</em>,11b<em>R</em>)-2,3,4,4a,5,6,11a,11b-Octahydro-4,4,8,11b-tetramethyl-1<em>H</em>-oxireno[1,10a]phenanthro[3,2-<em>b</em>]furan-9(7a<em>H</em>)-one;Jolkinolide A",
    "duplicated_cas_no": "",
    "SMILES": "C[C@]12[C@]3([C@]4([C@](O4)(C=5C(=C3)OC(=O)C5C)[H])CC[C@@]1(C(C)(C)CCC2)[H])[H]",
    "meta_data": {
        "InChI": "InChI=1S/C20H26O3/c1-11-15-12(22-17(11)21)10-14-19(4)8-5-7-18(2,3)13(19)6-9-20(14)16(15)23-20/h10,13-14,16H,5-9H2,1-4H3/t13-,14+,16-,19-,20+/m1/s1",
        "InChIKey": null,
        "Canonical SMILES": "O=C1OC2=CC3C4(OC4C2=C1C)CCC5C(C)(C)CCCC35C",
        "Molecular Formula": "C<sub>20</sub>H<sub>26</sub>O<sub>3</sub>",
        "Molecular Mass": "314.42",
        "Melting Point": "218-219 °C"
    }
}