{
    "cas_no": "13938-94-8",
    "key_name": "Carbonylchlorobis(triphenylphosphine)rhodium",
    "cn_name": "氯化羰基双三苯基磷基铷;",
    "alternate_name": "Rhodium, carbonylchlorobis(triphenylphosphine)-;Rhodium, chlorocarbonylbis(triphenylphosphine)-;Carbonylchlorobis(triphenylphosphine)rhodium;Bis(triphenylphosphine)rhodiumcarbonyl chloride;Chlorocarbonylbis(triphenylphosphine)rhodium;Chlorocarbonylbis(triphenylphosphine)rhodium(I);Bis(triphenylphosphine)carbonylchlororhodium(I);Carbonylbis(triphenylphosphine)rhodium chloride;Bis(triphenylphosphine)carbonylchlororhodium;Rhodium carbonyl bis(triphenylphosphine) chloride;Bis(triphenylphosphine)carbonylrhodium(I) chloride;Bis(triphenylphosphine)carbonylrhodium chloride;NSC 168792;Carbonylbis(triphenylphosphine)rhodium(I) chloride",
    "duplicated_cas_no": "159282-47-0",
    "SMILES": "[P]([Rh+]([P](C1=CC=CC=C1)(C2=CC=CC=C2)C3=CC=CC=C3)(C#O)[Cl-])(C4=CC=CC=C4)(C5=CC=CC=C5)C6=CC=CC=C6",
    "meta_data": {
        "InChI": "InChI=1S/2C18H15P.CO.ClH.Rh/c2*1-4-10-16(11-5-1)19(17-12-6-2-7-13-17)18-14-8-3-9-15-18;1-2;;/h2*1-15H;;1H;/q;;;;+1/p-1",
        "InChIKey": null,
        "Canonical SMILES": "O#C[Rh+]([Cl-])([P](C=1C=CC=CC1)(C=2C=CC=CC2)C=3C=CC=CC3)[P](C=4C=CC=CC4)(C=5C=CC=CC5)C=6C=CC=CC6",
        "Molecular Formula": "C<sub>37</sub>H<sub>30</sub>ClOP<sub>2</sub>Rh",
        "Molecular Mass": "",
        "Melting Point": "198-205 °C"
    }
}