{
    "cas_no": "22059-22-9",
    "key_name": "Acetamide oxime",
    "cn_name": "N-羟基乙脒;",
    "alternate_name": "Ethanimidamide, <em>N</em>-hydroxy-;Acetamidoxime;Acetamide oxime;Methylamidoxime;<em>N</em>-Hydroxyacetamidine;<em>N</em>-Hydroxyethanimidamide;<em>N</em>′-Hydroxyethanimidamide;<em>N</em>′-Hydroxyacetimidamide;<em>N</em>′-Hydroxyacetamidine;<em>N</em>-Hydroxyacetimidamide",
    "duplicated_cas_no": "1217429-73-6",
    "SMILES": "C(NO)(C)=N",
    "meta_data": {
        "InChI": "InChI=1S/C2H6N2O/c1-2(3)4-5/h5H,1H3,(H2,3,4)",
        "InChIKey": null,
        "Canonical SMILES": "N=C(NO)C",
        "Molecular Formula": "C<sub>2</sub>H<sub>6</sub>N<sub>2</sub>O",
        "Molecular Mass": "74.08",
        "Melting Point": "135 °C"
    }
}