{
    "cas_no": "66500-55-8",
    "key_name": "1,4-Dioxaspiro[4.5]decane-8-carboxylic acid",
    "cn_name": null,
    "alternate_name": "1,4-Dioxaspiro[4.5]decane-8-carboxylic acid",
    "duplicated_cas_no": "",
    "SMILES": "C(O)(=O)C1CCC2(CC1)OCCO2",
    "meta_data": {
        "InChI": "InChI=1S/C9H14O4/c10-8(11)7-1-3-9(4-2-7)12-5-6-13-9/h7H,1-6H2,(H,10,11)",
        "InChIKey": null,
        "Canonical SMILES": "O=C(O)C1CCC2(OCCO2)CC1",
        "Molecular Formula": "C<sub>9</sub>H<sub>14</sub>O<sub>4</sub>",
        "Molecular Mass": "186.21",
        "Boiling Point": "131-136 °C @ Press: 2 Torr"
    }
}