{
    "cas_no": "101-29-1",
    "key_name": "3,5-Diiodo-4-oxo-1(4<em>H</em>)-pyridineacetic acid",
    "cn_name": "3,5-二碘-4-吡啶酮-1-乙酸;3,5-二碘-4-吡啶酮-1-乙酸;",
    "alternate_name": "1(4<em>H</em>)-Pyridineacetic acid, 3,5-diiodo-4-oxo-;3,5-Diiodo-4-oxo-1(4<em>H</em>)-pyridineacetic acid;3,5-Diiodo-4-pyridone-<em>N</em>-acetic acid;Pelvirinic acid;Umbradilic acid;Diodone acid;NSC 60718;1,4-Dihydro-3,5-diiodo-4-oxo-1-pyridylacetic acid;(3,5-Diiodo-4-oxopyridin-1(4<em>H</em>)-yl)acetic acid;2-(3,5-Diiodo-4-oxopyridin-1(4<em>H</em>)-yl)acetic acid;2-(3,5-Diiodo-4-oxopyridin-1-yl)acetic acid;2-(3,5-Diiodo-4-oxo-1,4-dihydropyridin-1-yl)acetic acid",
    "duplicated_cas_no": "859069-67-3",
    "SMILES": "C(C(O)=O)N1C=C(I)C(=O)C(I)=C1",
    "meta_data": {
        "InChI": "InChI=1S/C7H5I2NO3/c8-4-1-10(3-6(11)12)2-5(9)7(4)13/h1-2H,3H2,(H,11,12)",
        "InChIKey": null,
        "Canonical SMILES": "O=C1C(I)=CN(C=C1I)CC(=O)O",
        "Molecular Formula": "C<sub>7</sub>H<sub>5</sub>I<sub>2</sub>NO<sub>3</sub>",
        "Molecular Mass": "404.93",
        "Melting Point": "240 °C (decomp)"
    }
}