{
    "cas_no": "1188-38-1",
    "key_name": "Carbamylglutamic acid",
    "cn_name": null,
    "alternate_name": "<span class=\"text-smallcaps\">L</span>-Glutamic acid, <em>N</em>-(aminocarbonyl)-;Glutamic acid, <em>N</em>-carbamoyl-, <span class=\"text-smallcaps\">L</span>-;<em>N</em>-(Aminocarbonyl)-<span class=\"text-smallcaps\">L</span>-glutamic acid;Ureidoglutaric acid;<em>N</em>-Carbamoyl-<em>S</em>-glutamic acid;Carbamylglutamic acid;Carbamino-<span class=\"text-smallcaps\">L</span>-glutamic acid;<em>N</em>-Carbamyl-<span class=\"text-smallcaps\">L</span>-glutamic acid;<em>N</em>-Carbamoyl-<span class=\"text-smallcaps\">L</span>-glutamic acid;Carglumic acid;Carbaglu;OE 312;(<em>S</em>)-2-Ureidopentanedioic acid;(2S)-2-(Carbamoylamino)pentanedioic acid;Ucedane",
    "duplicated_cas_no": "52093-31-9",
    "SMILES": "[C@@H](CCC(O)=O)(NC(N)=O)C(O)=O",
    "meta_data": {
        "InChI": "InChI=1S/C6H10N2O5/c7-6(13)8-3(5(11)12)1-2-4(9)10/h3H,1-2H2,(H,9,10)(H,11,12)(H3,7,8,13)/t3-/m0/s1",
        "InChIKey": null,
        "Canonical SMILES": "O=C(N)NC(C(=O)O)CCC(=O)O",
        "Molecular Formula": "C<sub>6</sub>H<sub>10</sub>N<sub>2</sub>O<sub>5</sub>",
        "Molecular Mass": "190.15",
        "Melting Point": "157-159 °C"
    }
}