{
    "cas_no": "34662-28-7",
    "key_name": "3-Chloro-2-nitrobenzonitrile",
    "cn_name": null,
    "alternate_name": "Benzonitrile, 3-chloro-2-nitro-;3-Chloro-2-nitrobenzonitrile",
    "duplicated_cas_no": "",
    "SMILES": "N(=O)(=O)C1=C(C#N)C=CC=C1Cl",
    "meta_data": {
        "InChI": "InChI=1S/C7H3ClN2O2/c8-6-3-1-2-5(4-9)7(6)10(11)12/h1-3H",
        "InChIKey": null,
        "Canonical SMILES": "N#CC=1C=CC=C(Cl)C1N(=O)=O",
        "Molecular Formula": "C<sub>7</sub>H<sub>3</sub>ClN<sub>2</sub>O<sub>2</sub>",
        "Molecular Mass": "182.56",
        "Melting Point": "65 °C"
    }
}