{
    "cas_no": "79456-34-1",
    "key_name": "5-Bromo-3-(trifluoromethyl)pyridin-2-amine",
    "cn_name": null,
    "alternate_name": "2-Pyridinamine, 5-bromo-3-(trifluoromethyl)-;5-Bromo-3-(trifluoromethyl)-2-pyridinamine;(5-Bromo-3-trifluoromethylpyridin-2-yl)amine;5-Bromo-3-(trifluoromethyl)pyridin-2-amine;2-Amino-5-bromo-3-(trifluoromethyl)pyridine",
    "duplicated_cas_no": "",
    "SMILES": "C(F)(F)(F)C1=C(N)N=CC(Br)=C1",
    "meta_data": {
        "InChI": "InChI=1S/C6H4BrF3N2/c7-3-1-4(6(8,9)10)5(11)12-2-3/h1-2H,(H2,11,12)",
        "InChIKey": null,
        "Canonical SMILES": "FC(F)(F)C1=CC(Br)=CN=C1N",
        "Molecular Formula": "C<sub>6</sub>H<sub>4</sub>BrF<sub>3</sub>N<sub>2</sub>",
        "Molecular Mass": "241.01",
        "Melting Point": "91-93 °C"
    }
}