{
    "cas_no": "2998-57-4",
    "key_name": "Estramustine",
    "cn_name": "雌莫司汀;雌氮芥;雌二醇氮芥;",
    "alternate_name": "Estra-1,3,5(10)-triene-3,17-diol (17β)-, 3-[bis(2-chloroethyl)carbamate];Estradiol, 3-[bis(2-chloroethyl)carbamate];Carbamic acid, bis(2-chloroethyl)-, 17β-hydroxyestra-1,3,5(10)-trien-3-yl ester;Estramustine;Leo 275;17β-Estradiol 3-[bis(2-chloroethyl)carbamate];Estradiol 3-[<em>N</em>,<em>N</em>-bis(2-chloroethyl)carbamate];Estracty;Ro 22-2296/000;NSC 89201;β-Estradiol 3-[<em>N</em>,<em>N</em>-bis(2-chloroethyl)carbamate]",
    "duplicated_cas_no": "",
    "SMILES": "C[C@@]12[C@]([C@]3([C@@](C=4C(CC3)=CC(OC(N(CCCl)CCCl)=O)=CC4)(CC1)[H])[H])(CC[C@@H]2O)[H]",
    "meta_data": {
        "InChI": "InChI=1S/C23H31Cl2NO3/c1-23-9-8-18-17-5-3-16(29-22(28)26(12-10-24)13-11-25)14-15(17)2-4-19(18)20(23)6-7-21(23)27/h3,5,14,18-21,27H,2,4,6-13H2,1H3/t18-,19-,20+,21+,23+/m1/s1",
        "InChIKey": null,
        "Canonical SMILES": "O=C(OC1=CC=C2C(=C1)CCC3C2CCC4(C)C(O)CCC34)N(CCCl)CCCl",
        "Molecular Formula": "C<sub>23</sub>H<sub>31</sub>Cl<sub>2</sub>NO<sub>3</sub>",
        "Molecular Mass": "440.40",
        "Melting Point": "104.5 °C"
    }
}