{
    "cas_no": "59-50-7",
    "key_name": "4-Chloro-3-methylphenol",
    "cn_name": "4-氯-3-甲酚;对氯间甲酚;",
    "alternate_name": "Phenol, 4-chloro-3-methyl-;<em>m</em>-Cresol, 4-chloro-;4-Chloro-3-methylphenol;2-Chloro-5-hydroxytoluene;6-Chloro-3-hydroxytoluene;3-Methyl-4-chlorophenol;Parol;PCMC;Raschit;Raschit K;Preventol CMK;4-Chloro-5-methylphenol;Baktol;Baktolan;Ottafact;Rasen-Anicon;Aptal;Candaseptic;Peritonan;<em>para</em>-Chloro-<em>meta</em>-cresol;Chlorocresol;4-Chloro-3-cresol;1-Chloro-2-methyl-4-hydroxybenzene;<em>p</em>-Chloro-<em>m</em>-cresol;Neopredisan;4-Chloro-<em>m</em>-cresol;NSC 4166;Parmetol;Aldecoc XD;3-Methyl-<em>p</em>-chlorophenol",
    "duplicated_cas_no": "",
    "SMILES": "CC1=C(Cl)C=CC(O)=C1",
    "meta_data": {
        "InChI": "InChI=1S/C7H7ClO/c1-5-4-6(9)2-3-7(5)8/h2-4,9H,1H3",
        "InChIKey": null,
        "Canonical SMILES": "ClC1=CC=C(O)C=C1C",
        "Molecular Formula": "C<sub>7</sub>H<sub>7</sub>ClO",
        "Molecular Mass": "142.58",
        "Boiling Point": "235 °C",
        "Melting Point": "67 °C",
        "Density": "1.37 g/cm³"
    }
}