{
    "cas_no": "63843-83-4",
    "key_name": "4-Phenyl-1-(phenylmethyl)-4-piperidinol",
    "cn_name": null,
    "alternate_name": "4-Piperidinol, 4-phenyl-1-(phenylmethyl)-;4-Piperidinol, 1-benzyl-4-phenyl-;4-Phenyl-1-(phenylmethyl)-4-piperidinol;1-Benzyl-4-phenyl-4-piperidinol;1-Benzyl-4-hydroxy-4-phenylpiperidine;NSC 116051",
    "duplicated_cas_no": "",
    "SMILES": "OC1(CCN(CC2=CC=CC=C2)CC1)C3=CC=CC=C3",
    "meta_data": {
        "InChI": "InChI=1S/C18H21NO/c20-18(17-9-5-2-6-10-17)11-13-19(14-12-18)15-16-7-3-1-4-8-16/h1-10,20H,11-15H2",
        "InChIKey": null,
        "Canonical SMILES": "OC1(C=2C=CC=CC2)CCN(CC=3C=CC=CC3)CC1",
        "Molecular Formula": "C<sub>18</sub>H<sub>21</sub>NO",
        "Molecular Mass": "267.37",
        "Boiling Point": "176 °C @ Press: 0.1 Torr",
        "Melting Point": "103 °C"
    }
}