{
    "cas_no": "631-57-2",
    "key_name": "Propanenitrile, 2-oxo-",
    "cn_name": "乙酰氰;丙酮腈;氰乙酰;",
    "alternate_name": "Propanenitrile, 2-oxo-;Pyruvonitrile;Acetyl cyanide;Pyruvic acid nitrile;α-Oxopropionitrile;2-Oxopropionitrile;2-Oxopropanenitrile;NSC 91482",
    "duplicated_cas_no": "",
    "SMILES": "C(C#N)(C)=O",
    "meta_data": {
        "InChI": "InChI=1S/C3H3NO/c1-3(5)2-4/h1H3",
        "InChIKey": null,
        "Canonical SMILES": "N#CC(=O)C",
        "Molecular Formula": "C<sub>3</sub>H<sub>3</sub>NO",
        "Molecular Mass": "69.06",
        "Boiling Point": "92.3 °C",
        "Density": "0.9754 g/cm³ @ Temp: 20 °C"
    }
}