{
    "cas_no": "7726-03-6",
    "key_name": "Cholesteryl valerate",
    "cn_name": null,
    "alternate_name": "Cholest-5-en-3-ol (3β)-, 3-pentanoate;Cholesterol, valerate;Cholest-5-en-3-ol (3β)-, pentanoate;Valeric acid, cholesteryl ester;Cholesteryl valerate;Cholesterol pentanoate;Cholesteryl pentanoate;Cholesteryl <em>n</em>-valerate;Cholest-5-en-3β-ol valerate;5-Cholesten-3β-ol valerate",
    "duplicated_cas_no": "",
    "SMILES": "C[C@@]12[C@@]3([C@]([C@]4([C@](C)(CC3)[C@@]([C@@H](CCCC(C)C)C)(CC4)[H])[H])(CC=C1C[C@@H](OC(CCCC)=O)CC2)[H])[H]",
    "meta_data": {
        "InChI": "InChI=1S/C32H54O2/c1-7-8-12-30(33)34-25-17-19-31(5)24(21-25)13-14-26-28-16-15-27(23(4)11-9-10-22(2)3)32(28,6)20-18-29(26)31/h13,22-23,25-29H,7-12,14-21H2,1-6H3/t23-,25+,26+,27-,28+,29+,31+,32-/m1/s1",
        "InChIKey": null,
        "Canonical SMILES": "O=C(OC1CC2=CCC3C(CCC4(C)C(CCC34)C(C)CCCC(C)C)C2(C)CC1)CCCC",
        "Molecular Formula": "C<sub>32</sub>H<sub>54</sub>O<sub>2</sub>",
        "Molecular Mass": "470.77",
        "Melting Point": "90.0 °C"
    }
}