{
    "cas_no": "41088-52-2",
    "key_name": "Methyl 3,4-epoxycyclohexanecarboxylate",
    "cn_name": "3,4-环氧环己烷羧酸甲酯;",
    "alternate_name": "7-Oxabicyclo[4.1.0]heptane-3-carboxylic acid, methyl ester;Cyclohexanecarboxylic acid, 3,4-epoxy-, methyl ester;Methyl 3,4-epoxycyclohexanecarboxylate;Methyl 3,4-epoxycyclohexane-1-carboxylate;3,4-Epoxycyclohexanecarboxylate methyl ester;3,4-Cyclohexene oxide-1-carboxylic acid methyl ester;ERL 4140;3,4-Epoxycyclohexanecarboxylic acid methyl ester;1,2-Epoxy-4-methoxycarbonylcyclohexane;Methyl 7-oxabicyclo[4.1.0]heptane-3-carboxylate",
    "duplicated_cas_no": "",
    "SMILES": "C(OC)(=O)C1CC2C(O2)CC1",
    "meta_data": {
        "InChI": "InChI=1S/C8H12O3/c1-10-8(9)5-2-3-6-7(4-5)11-6/h5-7H,2-4H2,1H3",
        "InChIKey": null,
        "Canonical SMILES": "O=C(OC)C1CCC2OC2C1",
        "Molecular Formula": "C<sub>8</sub>H<sub>12</sub>O<sub>3</sub>",
        "Molecular Mass": "156.18",
        "Boiling Point": "115-117 °C @ Press: 22 Torr",
        "Density": "1.1309 g/cm³ @ Temp: 20 °C"
    }
}