{
    "cas_no": "6960-42-5",
    "key_name": "7-Nitroindole",
    "cn_name": "7-硝基吲哚;",
    "alternate_name": "1<em>H</em>-Indole, 7-nitro-;Indole, 7-nitro-;7-Nitro-1<em>H</em>-indole;7-Nitroindole;NSC 69874",
    "duplicated_cas_no": "",
    "SMILES": "N(=O)(=O)C1=C2C(C=CN2)=CC=C1",
    "meta_data": {
        "InChI": "InChI=1S/C8H6N2O2/c11-10(12)7-3-1-2-6-4-5-9-8(6)7/h1-5,9H",
        "InChIKey": null,
        "Canonical SMILES": "O=N(=O)C1=CC=CC=2C=CNC21",
        "Molecular Formula": "C<sub>8</sub>H<sub>6</sub>N<sub>2</sub>O<sub>2</sub>",
        "Molecular Mass": "162.15",
        "Boiling Point": "170-175 °C",
        "Melting Point": "113 °C"
    }
}