{
    "cas_no": "823-56-3",
    "key_name": "3,5-Dichloro-2-fluoropyridine",
    "cn_name": "3,5-二氯-2-氟吡啶;",
    "alternate_name": "Pyridine, 3,5-dichloro-2-fluoro-;3,5-Dichloro-2-fluoropyridine;2-Fluoro-3,5-dichloropyridine",
    "duplicated_cas_no": "",
    "SMILES": "ClC1=C(F)N=CC(Cl)=C1",
    "meta_data": {
        "InChI": "InChI=1S/C5H2Cl2FN/c6-3-1-4(7)5(8)9-2-3/h1-2H",
        "InChIKey": null,
        "Canonical SMILES": "FC1=NC=C(Cl)C=C1Cl",
        "Molecular Formula": "C<sub>5</sub>H<sub>2</sub>Cl<sub>2</sub>FN",
        "Molecular Mass": "165.98",
        "Boiling Point": "173-174 °C @ Press: 760 Torr",
        "Melting Point": "38-39 °C"
    }
}