{
    "cas_no": "2621-99-0",
    "key_name": "<em>N</em>-[4-(Aminosulfonyl)phenyl]-2-propenamide",
    "cn_name": "N-[(4-磺酰胺)苯基]丙烯酰胺;",
    "alternate_name": "2-Propenamide, <em>N</em>-[4-(aminosulfonyl)phenyl]-;Acrylanilide, 4′-sulfamoyl-;<em>N</em>-[4-(Aminosulfonyl)phenyl]-2-propenamide;4′-Sulfamoylacrylanilide;<em>N</em>-(<em>p</em>-Aminosulfonylphenyl)acrylamide;NSC 506350;<em>N</em>-(4-Sulfamoylphenyl)acrylamide",
    "duplicated_cas_no": "",
    "SMILES": "S(N)(=O)(=O)C1=CC=C(NC(C=C)=O)C=C1",
    "meta_data": {
        "InChI": "InChI=1S/C9H10N2O3S/c1-2-9(12)11-7-3-5-8(6-4-7)15(10,13)14/h2-6H,1H2,(H,11,12)(H2,10,13,14)",
        "InChIKey": null,
        "Canonical SMILES": "O=C(C=C)NC1=CC=C(C=C1)S(=O)(=O)N",
        "Molecular Formula": "C<sub>9</sub>H<sub>10</sub>N<sub>2</sub>O<sub>3</sub>S",
        "Molecular Mass": "226.25",
        "Melting Point": "215 °C"
    }
}