{
    "cas_no": "108-15-6",
    "key_name": "1-(Dimethylamino)-2-propylamine",
    "cn_name": "2-Amino-1-(dimethylamino)propane;",
    "alternate_name": "1,2-Propanediamine, <em>N</em><sup>1</sup>,<em>N</em><sup>1</sup>-dimethyl-;<em>N</em><sup>1</sup>,<em>N</em><sup>1</sup>-Dimethyl-1,2-propanediamine;2-Amino-1-(dimethylamino)propane;1-(Dimethylamino)-2-propylamine;(±)-<em>N</em><sup>1</sup>,<em>N</em><sup>1</sup>-Dimethyl-1,2-propanediamine;2-(Dimethylamino)-1-methylethylamine;NSC 166323;(1-Dimethylaminopropan-2-yl)amine;1-Dimethylaminopropan-2-amine;<em>N</em>,<em>N</em>-Dimethyl-2-methylethane-1,2-diamine;1-<em>N</em>,1-<em>N</em>-Dimethylpropane-1,2-diamine",
    "duplicated_cas_no": "62689-51-4",
    "SMILES": "C(C(C)N)N(C)C",
    "meta_data": {
        "InChI": "InChI=1S/C5H14N2/c1-5(6)4-7(2)3/h5H,4,6H2,1-3H3",
        "InChIKey": null,
        "Canonical SMILES": "NC(C)CN(C)C",
        "Molecular Formula": "C<sub>5</sub>H<sub>14</sub>N<sub>2</sub>",
        "Molecular Mass": "102.18",
        "Boiling Point": "113 °C",
        "Density": "0.8122 g/cm³ @ Temp: 20 °C"
    }
}