{
    "cas_no": "3218-02-8",
    "key_name": "Cyclohexanemethanamine",
    "cn_name": "环己基甲胺;环己甲胺;环己基甲基胺;",
    "alternate_name": "Cyclohexanemethanamine;Cyclohexanemethylamine;Cyclohexylmethanamine;(Aminomethyl)cyclohexane;NSC 172991;1-Cyclohexylmethanamine;C-Cyclohexyl-methylamine;Cyclohexylmethyleneamine",
    "duplicated_cas_no": "",
    "SMILES": "C(N)C1CCCCC1",
    "meta_data": {
        "InChI": "InChI=1S/C7H15N/c8-6-7-4-2-1-3-5-7/h7H,1-6,8H2",
        "InChIKey": null,
        "Canonical SMILES": "NCC1CCCCC1",
        "Molecular Formula": "C<sub>7</sub>H<sub>15</sub>N",
        "Molecular Mass": "113.20",
        "Boiling Point": "160 °C",
        "Melting Point": "162-163 °C",
        "Density": "0.8746 g/cm³ @ Temp: 14 °C"
    }
}