{
    "cas_no": "141556-42-5",
    "key_name": "1,3-Dihydro-1,3-bis(2,4,6-trimethylphenyl)-2<em>H</em>-imidazol-2-ylidene",
    "cn_name": "1,3-双(2,4,6-三甲基苯基)-1,3-二氢-2H-咪唑-2-亚基;1,3-双(2,4,6-三甲基苯基)咪唑-2-亚基;",
    "alternate_name": "2<em>H</em>-Imidazol-2-ylidene, 1,3-dihydro-1,3-bis(2,4,6-trimethylphenyl)-;1,3-Dihydro-1,3-bis(2,4,6-trimethylphenyl)-2<em>H</em>-imidazol-2-ylidene;1,3-Dimesitylimidazolin-2-ylidene;1,3-Bis(2,4,6-trimethylphenyl)imidazol-2-ylidene;1,3-Dihydro-1,3-dimesityl-2<em>H</em>-imidazol-2-ylidene;1,3-Dimesityl-4-imidazolin-2-ylidene;1,3-Dihydro-1,3-bis(mesityl)-2<em>H</em>-imidazol-2-ylidene;1,3-Dimesityl-2-imidazolylidene;1,3-Bis(2,4,6-trimethylphenyl)imidazolin-2-ylidene;1,3-Bis(mesityl)imidazol-2-ylidene;<em>N</em>,<em>N</em>′-Bis(2,4,6-trimethylphenyl)imidazolin-2-ylidene;1,3-Di(2,4,6-trimethylphenyl)imidazol-2-ylidene;IMes;1,3-Di-<em>tert</em>-mesitylimidazol-2-ylidene;1,3-Bis(2,4,6-trimethylphenyl)imidazole-2-ylidene",
    "duplicated_cas_no": "311311-60-1;930804-06-1;1109291-52-2;1617511-75-7",
    "SMILES": "CC1=C(N2[C]N(C=C2)C3=C(C)C=C(C)C=C3C)C(C)=CC(C)=C1",
    "meta_data": {
        "InChI": "InChI=1S/C21H24N2/c1-14-9-16(3)20(17(4)10-14)22-7-8-23(13-22)21-18(5)11-15(2)12-19(21)6/h7-12H,1-6H3",
        "InChIKey": null,
        "Canonical SMILES": "[C]1N(C=CN1C=2C(=CC(=CC2C)C)C)C=3C(=CC(=CC3C)C)C",
        "Molecular Formula": "C<sub>21</sub>H<sub>24</sub>N<sub>2</sub>",
        "Molecular Mass": "",
        "Melting Point": "149-151 °C"
    }
}