{
    "cas_no": "111-91-1",
    "key_name": "Bis(2-chloroethoxy)methane",
    "cn_name": "双(2-氯乙氧基)甲烷; 甲醛缩二(2-氯乙醇);",
    "alternate_name": "Ethane, 1,1′-[methylenebis(oxy)]bis[2-chloro-;Methane, bis(2-chloroethoxy)-;1,1′-[Methylenebis(oxy)]bis[2-chloroethane];Bis(2-chloroethoxy)methane;Di-2-chloroethyl formal;Formaldehyde bis(β-chloroethyl) acetal;Bis(β-chloroethyl) formal;Bis(2-chloroethyl) formal;Formaldehyde bis(2-chloroethyl) acetal;Di(2-chloroethoxy)methane;1,7-Dichloro-3,5-dioxaheptane;NSC 5212;1-Chloro-2-(2-chloroethoxymethoxy)ethane",
    "duplicated_cas_no": "",
    "SMILES": "C(OCCCl)OCCCl",
    "meta_data": {
        "InChI": "InChI=1S/C5H10Cl2O2/c6-1-3-8-5-9-4-2-7/h1-5H2",
        "InChIKey": null,
        "Canonical SMILES": "ClCCOCOCCCl",
        "Molecular Formula": "C<sub>5</sub>H<sub>10</sub>Cl<sub>2</sub>O<sub>2</sub>",
        "Molecular Mass": "173.04",
        "Boiling Point": "218.1 °C",
        "Melting Point": "-32 °C",
        "Density": "1.2339 g/cm³ @ Temp: 20 °C"
    }
}