{
    "cas_no": "1583-59-1",
    "key_name": "2,2-Difluoro-1,3-benzodioxole",
    "cn_name": "2,2-二氟-1,3-苯并二恶茂;2,2-二氟苯并二噁茂;",
    "alternate_name": "1,3-Benzodioxole, 2,2-difluoro-;Benzene, 1,2-[(difluoromethylene)dioxy]-;2,2-Difluoro-1,3-benzodioxole;2,2-Difluorobenzodioxole;2,2-Difluorobenzo[<em>d</em>][1,3]dioxole",
    "duplicated_cas_no": "",
    "SMILES": "FC1(F)OC=2C(O1)=CC=CC2",
    "meta_data": {
        "InChI": "InChI=1S/C7H4F2O2/c8-7(9)10-5-3-1-2-4-6(5)11-7/h1-4H",
        "InChIKey": null,
        "Canonical SMILES": "FC1(F)OC=2C=CC=CC2O1",
        "Molecular Formula": "C<sub>7</sub>H<sub>4</sub>F<sub>2</sub>O<sub>2</sub>",
        "Molecular Mass": "158.10",
        "Boiling Point": "129-130 °C",
        "Density": "1.3079 g/cm³ @ Temp: 20 °C"
    }
}