{
    "cas_no": "18297-63-7",
    "key_name": "<em>N</em>,<em>N</em>′-Bis(trimethylsilyl)urea",
    "cn_name": "六甲基二硅脲;BSU;",
    "alternate_name": "Urea, <em>N</em>,<em>N</em>′-bis(trimethylsilyl)-;Urea, 1,3-bis(trimethylsilyl)-;<em>N</em>,<em>N</em>′-Bis(trimethylsilyl)urea;<em>N</em><sup>1</sup>,<em>N</em><sup>2</sup>-Bis(trimethylsilyl)urea;1,3-Bis(trimethylsilyl)urea;Bis(trimethylsilyl)urea;TSL 8845",
    "duplicated_cas_no": "127290-39-5",
    "SMILES": "N([Si](C)(C)C)C(N[Si](C)(C)C)=O",
    "meta_data": {
        "InChI": "InChI=1S/C7H20N2OSi2/c1-11(2,3)8-7(10)9-12(4,5)6/h1-6H3,(H2,8,9,10)",
        "InChIKey": null,
        "Canonical SMILES": "O=C(N[Si](C)(C)C)N[Si](C)(C)C",
        "Molecular Formula": "C<sub>7</sub>H<sub>20</sub>N<sub>2</sub>OSi<sub>2</sub>",
        "Molecular Mass": "204.42",
        "Melting Point": "222-224 °C"
    }
}