{
    "cas_no": "79-33-4",
    "key_name": "<span class=\"text-smallcaps\">L</span>-Lactic acid",
    "cn_name": "L-乳酸;L-2-羟基丙酸;(S)-(+)-2-羟基丙酸;",
    "alternate_name": "Propanoic acid, 2-hydroxy-, (2<em>S</em>)-;Lactic acid, <span class=\"text-smallcaps\">L</span>-;Propanoic acid, 2-hydroxy-, (<em>S</em>)-;(2<em>S</em>)-2-Hydroxypropanoic acid;<em>d</em>-Lactic acid;Paralactic acid;Sarcolactic acid;(<em>S</em>)-(+)-Lactic acid;(+)-Lactic acid;<span class=\"text-smallcaps\">L</span>-Lactic acid;(<em>S</em>)-Lactic acid;<span class=\"text-smallcaps\">L</span>-(+)-α-Hydroxypropionic acid;Espiritin;Tisulac;(<em>S</em>)-2-Hydroxypropionic acid;<span class=\"text-smallcaps\">L</span>-(+)-Lactic acid;(<em>S</em>)-2-Hydroxypropanoic acid;PH 90;PURAC;PURAC Powder H 60;HiPure 90;(2S)-2-Hydroxypropanoic acid;Purac FCC 50;Purac Sanilac;Purac Sanilac 80",
    "duplicated_cas_no": "1715-99-7",
    "SMILES": "[C@@H](C(O)=O)(C)O",
    "meta_data": {
        "InChI": "InChI=1S/C3H6O3/c1-2(4)3(5)6/h2,4H,1H3,(H,5,6)/t2-/m0/s1",
        "InChIKey": null,
        "Canonical SMILES": "O=C(O)C(O)C",
        "Molecular Formula": "C<sub>3</sub>H<sub>6</sub>O<sub>3</sub>",
        "Molecular Mass": "90.08",
        "Melting Point": "53 °C"
    }
}