{
    "cas_no": "4707-50-0",
    "key_name": "2,4-Dihydroxy-6-propylbenzoic acid",
    "cn_name": null,
    "alternate_name": "Benzoic acid, 2,4-dihydroxy-6-propyl-;β-Resorcylic acid, 6-propyl-;2,4-Dihydroxy-6-propylbenzoic acid;Divaric acid;Divarinolic acid;Divarinic acid",
    "duplicated_cas_no": "",
    "SMILES": "C(O)(=O)C1=C(CCC)C=C(O)C=C1O",
    "meta_data": {
        "InChI": "InChI=1S/C10H12O4/c1-2-3-6-4-7(11)5-8(12)9(6)10(13)14/h4-5,11-12H,2-3H2,1H3,(H,13,14)",
        "InChIKey": null,
        "Canonical SMILES": "O=C(O)C=1C(O)=CC(O)=CC1CCC",
        "Molecular Formula": "C<sub>10</sub>H<sub>12</sub>O<sub>4</sub>",
        "Molecular Mass": "196.20",
        "Melting Point": "169 °C (decomp)"
    }
}