{
    "cas_no": "52128-35-5",
    "key_name": "Trimetrexate",
    "cn_name": null,
    "alternate_name": "2,4-Quinazolinediamine, 5-methyl-6-[[(3,4,5-trimethoxyphenyl)amino]methyl]-;5-Methyl-6-[[(3,4,5-trimethoxyphenyl)amino]methyl]-2,4-quinazolinediamine;TMQ;NSC 249008;JB 11;Trimetrexate;2,4-Diamino-5-methyl-6-[(3′,4′,5′-trimethoxyanilino)methyl]quinazoline;NSC 352122;CI 898",
    "duplicated_cas_no": "",
    "SMILES": "CC=1C2=C(C=CC1CNC3=CC(OC)=C(OC)C(OC)=C3)N=C(N)N=C2N",
    "meta_data": {
        "InChI": "InChI=1S/C19H23N5O3/c1-10-11(5-6-13-16(10)18(20)24-19(21)23-13)9-22-12-7-14(25-2)17(27-4)15(8-12)26-3/h5-8,22H,9H2,1-4H3,(H4,20,21,23,24)",
        "InChIKey": null,
        "Canonical SMILES": "N=1C(=NC2=CC=C(C(=C2C1N)C)CNC3=CC(OC)=C(OC)C(OC)=C3)N",
        "Molecular Formula": "C<sub>19</sub>H<sub>23</sub>N<sub>5</sub>O<sub>3</sub>",
        "Molecular Mass": "369.42",
        "Melting Point": "215-217 °C"
    }
}