{
    "cas_no": "22033-87-0",
    "key_name": "Olesoxime",
    "cn_name": "奥利索西;胆甾-4-烯-3-酮肟;",
    "alternate_name": "Cholest-4-en-3-one, oxime;NSC 21311;TRO 19622;Olesoxime",
    "duplicated_cas_no": "",
    "SMILES": "C[C@@]12[C@]([C@]3([C@@]([C@]4(C)C(CC3)=CC(=NO)CC4)(CC1)[H])[H])(CC[C@@]2([C@@H](CCCC(C)C)C)[H])[H]",
    "meta_data": {
        "InChI": "InChI=1S/C27H45NO/c1-18(2)7-6-8-19(3)23-11-12-24-22-10-9-20-17-21(28-29)13-15-26(20,4)25(22)14-16-27(23,24)5/h17-19,22-25,29H,6-16H2,1-5H3/t19-,22+,23-,24+,25+,26+,27-/m1/s1",
        "InChIKey": null,
        "Canonical SMILES": "ON=C1C=C2CCC3C(CCC4(C)C(CCC34)C(C)CCCC(C)C)C2(C)CC1",
        "Molecular Formula": "C<sub>27</sub>H<sub>45</sub>NO",
        "Molecular Mass": "399.65",
        "Melting Point": "145-148 °C"
    }
}