{
    "cas_no": "3952-18-9",
    "key_name": "Cupressuflavone",
    "cn_name": null,
    "alternate_name": "[8,8′-Bi-4<em>H</em>-1-benzopyran]-4,4′-dione, 5,5′,7,7′-tetrahydroxy-2,2′-bis(4-hydroxyphenyl)-;8,8′′-Biflavone, 4′,4′′′,5,5′′,7,7′′-hexahydroxy-;5,5′,7,7′-Tetrahydroxy-2,2′-bis(4-hydroxyphenyl)[8,8′-bi-4<em>H</em>-1-benzopyran]-4,4′-dione;Cupressuflavone;Neorhusflavone;8,8′′-Bisbaicalein",
    "duplicated_cas_no": "62599-47-7",
    "SMILES": "OC=1C(=C2C(C(=O)C=C(O2)C3=CC=C(O)C=C3)=C(O)C1)C4=C5C(C(=O)C=C(O5)C6=CC=C(O)C=C6)=C(O)C=C4O",
    "meta_data": {
        "InChI": "InChI=1S/C30H18O10/c31-15-5-1-13(2-6-15)23-11-21(37)25-17(33)9-19(35)27(29(25)39-23)28-20(36)10-18(34)26-22(38)12-24(40-30(26)28)14-3-7-16(32)8-4-14/h1-12,31-36H",
        "InChIKey": null,
        "Canonical SMILES": "O=C1C=C(OC2=C1C(O)=CC(O)=C2C=3C(O)=CC(O)=C4C(=O)C=C(OC43)C=5C=CC(O)=CC5)C=6C=CC(O)=CC6",
        "Molecular Formula": "C<sub>30</sub>H<sub>18</sub>O<sub>10</sub>",
        "Molecular Mass": "538.46",
        "Melting Point": "300 °C"
    }
}