{
    "cas_no": "2243-76-7",
    "key_name": "Mordant Orange 1",
    "cn_name": "媒介橙1;5-(4-硝基苯基偶氮)水杨酸;",
    "alternate_name": "Benzoic acid, 2-hydroxy-5-[2-(4-nitrophenyl)diazenyl]-;C.I. Mordant Orange 1;Benzoic acid, 2-hydroxy-5-[(4-nitrophenyl)azo]-;Salicylic acid, 5-(<em>p</em>-nitrophenylazo)-;2-Hydroxy-5-[2-(4-nitrophenyl)diazenyl]benzoic acid;C.I. 14030;Alizarine Chrome Orange G;Alizarine Orange R;Alizarine Orange 2GN;Alizarine Orange RD;Alizarine Yellow P;Alizarine Yellow R-CF;Alizarol Orange R;Alphacroic Orange R;Anthranol Chrome Yellow R;Azochromol Orange R;Brasilan Chrome Orange R;Calcochrome Orange R;Chromacid Orange S;Chrome Fast Orange RW;Chrome Orange;Chrome Orange N;Chrome Orange R;Chrome Orange MR;Chrome Orange RLE;Chrome Yellow 3RN;Chromol Orange R extra;Diamond Chrome Yellow 3R;Durochrome Yellow 2RN;Eniacromo Orange R;Eriochrome Orange AOR;Fenakrom Orange R;Hidachrome Orange R;Hispacrom Orange R;Java Chrome Yellow 3R;Java Unichrome Yellow 3R;KCA Chrome Orange R;Kenachrome Orange;Lighthouse Chrome Orange;Magracrom orange;Metachrome Orange R;Mitsui Chrome Orange A;Mitsui Chrome Orange AN;Monochrome Orange R;Monochrome Yellow 3R;<em>p</em>-Nitrobenzeneazosalicylic acid;Orthochrome Orange R;Peerachrome Yellow R;PNBAS;Pontachrome Yellow 3RN;Solochrome Orange M;Synchromate Orange AOR;Terracotta 2RN;Terra Cotta RRN;Tertrochrome Yellow 3R;Yodochrome Orange A;4-Nitrobenzene-1-azo-5-salicylic acid;Alizarine Yellow R;RV 2;Alizarin orange;Acid Alizarine Yellow R;Alizarin Yellow R;5-(<em>p</em>-Nitrophenylazo)salicylic acid;5-(4-Nitrophenylazo)salicylic acid;2-Hydroxy-5-(4-nitrophenylazo)benzoic acid;Mordant Orange 1;RV 2 (dye)",
    "duplicated_cas_no": "62340-95-8",
    "SMILES": "N(=NC1=CC=C(N(=O)=O)C=C1)C2=CC(C(O)=O)=C(O)C=C2",
    "meta_data": {
        "InChI": "InChI=1S/C13H9N3O5/c17-12-6-3-9(7-11(12)13(18)19)15-14-8-1-4-10(5-2-8)16(20)21/h1-7,17H,(H,18,19)",
        "InChIKey": null,
        "Canonical SMILES": "O=C(O)C1=CC(N=NC2=CC=C(C=C2)N(=O)=O)=CC=C1O",
        "Molecular Formula": "C<sub>13</sub>H<sub>9</sub>N<sub>3</sub>O<sub>5</sub>",
        "Molecular Mass": "287.23",
        "Melting Point": "253.5 °C (decomp)"
    }
}