{
    "cas_no": "956-04-7",
    "key_name": "4-Chlorochalcone",
    "cn_name": "4-氯查耳酮;(E)-3-(4-氯苯基)-1-苯基丙-2-烯-1-酮;",
    "alternate_name": "2-Propen-1-one, 3-(4-chlorophenyl)-1-phenyl-;Chalcone, 4-chloro-;3-(4-Chlorophenyl)-1-phenyl-2-propen-1-one;4-Chlorochalcone;2-(4-Chlorobenzylidene)acetophenone;<em>p</em>-Chlorostyryl phenyl ketone;<em>p</em>-Chlorochalcone;1-Phenyl-3-(4-chlorophenyl)prop-2-en-1-one;(4-Chlorobenzylidene)acetophenone;3-(<em>p</em>-Chlorophenyl)-1-phenyl-2-propen-1-one;4-Chlorostyryl phenyl ketone;NSC 2643;NSC 636920;1-Phenyl-3-(4-chlorophenyl)-2-propenone",
    "duplicated_cas_no": "139556-81-3",
    "SMILES": "C(C=CC1=CC=C(Cl)C=C1)(=O)C2=CC=CC=C2",
    "meta_data": {
        "InChI": "InChI=1S/C15H11ClO/c16-14-9-6-12(7-10-14)8-11-15(17)13-4-2-1-3-5-13/h1-11H",
        "InChIKey": null,
        "Canonical SMILES": "O=C(C=CC1=CC=C(Cl)C=C1)C=2C=CC=CC2",
        "Molecular Formula": "C<sub>15</sub>H<sub>11</sub>ClO",
        "Molecular Mass": "242.70",
        "Melting Point": "115-116 °C"
    }
}