{
    "cas_no": "5891-51-0",
    "key_name": "<span class=\"text-smallcaps\">L</smallcap>-Aspartyl-<smallcap>L</span>-lysine",
    "cn_name": "H-ASP-LYS-OH;",
    "alternate_name": "<span class=\"text-smallcaps\">L</smallcap>-Lysine, <smallcap>L</span>-α-aspartyl-;Lysine, <em>N</em><sup>2</sup>-<span class=\"text-smallcaps\">L</smallcap>-α-aspartyl-, <smallcap>L</span>-;<span class=\"text-smallcaps\">L</smallcap>-Lysine, <em>N</em><sup>2</sup>-<smallcap>L</span>-α-aspartyl-;<span class=\"text-smallcaps\">L</smallcap>-α-Aspartyl-<smallcap>L</span>-lysine;<span class=\"text-smallcaps\">L</smallcap>-Aspartyl-<smallcap>L</span>-lysine;424: PN: WO2005081628 SEQID: 1533 claimed protein;468: PN: EP2161028 TABLE: 4 claimed protein;178: PN: WO2011146121 PAGE: 117 claimed sequence;4: PN: WO2013070776 PAGE: 109 claimed sequence",
    "duplicated_cas_no": "24667-38-7",
    "SMILES": "[C@H](NC([C@H](CC(O)=O)N)=O)(CCCCN)C(O)=O",
    "meta_data": {
        "InChI": "InChI=1S/C10H19N3O5/c11-4-2-1-3-7(10(17)18)13-9(16)6(12)5-8(14)15/h6-7H,1-5,11-12H2,(H,13,16)(H,14,15)(H,17,18)/t6-,7-/m0/s1",
        "InChIKey": null,
        "Canonical SMILES": "O=C(O)CC(N)C(=O)NC(C(=O)O)CCCCN",
        "Molecular Formula": "C<sub>10</sub>H<sub>19</sub>N<sub>3</sub>O<sub>5</sub>",
        "Molecular Mass": "261.27",
        "Melting Point": "&gt;175 °C (decomp)"
    }
}