{
    "cas_no": "7651-82-3",
    "key_name": "6-Isoquinolinol",
    "cn_name": "6-羟基异喹啉;",
    "alternate_name": "6-Isoquinolinol;6-Hydroxyisoquinoline",
    "duplicated_cas_no": "",
    "SMILES": "OC1=CC2=C(C=C1)C=NC=C2",
    "meta_data": {
        "InChI": "InChI=1S/C9H7NO/c11-9-2-1-8-6-10-4-3-7(8)5-9/h1-6,11H",
        "InChIKey": null,
        "Canonical SMILES": "OC=1C=CC=2C=NC=CC2C1",
        "Molecular Formula": "C<sub>9</sub>H<sub>7</sub>NO",
        "Molecular Mass": "145.16",
        "Melting Point": "220 °C"
    }
}