{
    "cas_no": "3252-36-6",
    "key_name": "5-Bromo-4-chloro-3-indolyl acetate",
    "cn_name": "N-乙酰基-5-溴-3-羟基吲哚;3-乙酰氧基-5-溴-4-氯吲哚;",
    "alternate_name": "1<em>H</em>-Indol-3-ol, 5-bromo-4-chloro-, 3-acetate;Indol-3-ol, 5-bromo-4-chloro-, acetate (ester);1<em>H</em>-Indol-3-ol, 5-bromo-4-chloro-, acetate (ester);Indol-3-ol, 5-bromo-4-chloro-, acetate;Indoxyl, 5-bromo-4-chloro-, acetate;5-Bromo-4-chloroindoxyl acetate;5-Bromo-4-chloro-3-indolyl acetate;5-Bromo-4-chloro-3-indoxyl acetate",
    "duplicated_cas_no": "",
    "SMILES": "O(C(C)=O)C=1C=2C(NC1)=CC=C(Br)C2Cl",
    "meta_data": {
        "InChI": "InChI=1S/C10H7BrClNO2/c1-5(14)15-8-4-13-7-3-2-6(11)10(12)9(7)8/h2-4,13H,1H3",
        "InChIKey": null,
        "Canonical SMILES": "O=C(OC1=CNC=2C=CC(Br)=C(Cl)C12)C",
        "Molecular Formula": "C<sub>10</sub>H<sub>7</sub>BrClNO<sub>2</sub>",
        "Molecular Mass": "288.53",
        "Melting Point": "106-107 °C"
    }
}