{
    "cas_no": "4727-72-4",
    "key_name": "1-Benzyl-4-hydroxypiperidine",
    "cn_name": "N-苄基-4-羟基哌啶;1-苄基-4-羟基哌啶;",
    "alternate_name": "4-Piperidinol, 1-(phenylmethyl)-;4-Piperidinol, 1-benzyl-;1-(Phenylmethyl)-4-piperidinol;1-Benzyl-4-piperidinol;1-Benzyl-4-hydroxypiperidine;<em>N</em>-Benzyl-4-hydroxypiperidine;NSC 72991;4-Hydroxy-1-benzylpiperidine;4-Hydroxy-<em>N</em>-benzylpiperidine;<em>N</em>-Benzylpiperidin-4-ol",
    "duplicated_cas_no": "",
    "SMILES": "C(N1CCC(O)CC1)C2=CC=CC=C2",
    "meta_data": {
        "InChI": "InChI=1S/C12H17NO/c14-12-6-8-13(9-7-12)10-11-4-2-1-3-5-11/h1-5,12,14H,6-10H2",
        "InChIKey": null,
        "Canonical SMILES": "OC1CCN(CC=2C=CC=CC2)CC1",
        "Molecular Formula": "C<sub>12</sub>H<sub>17</sub>NO",
        "Molecular Mass": "191.27",
        "Boiling Point": "127-128 °C @ Press: 2 Torr",
        "Melting Point": "61-62 °C"
    }
}