{
    "cas_no": "7314-85-4",
    "key_name": "2-Bromoadamantane",
    "cn_name": "2-溴代金刚烷;2-溴金刚烷;",
    "alternate_name": "Tricyclo[3.3.1.1<sup>3,7</sup>]decane, 2-bromo-;Adamantane, 2-bromo-;2-Bromotricyclo[3.3.1.1<sup>3,7</sup>]decane;2-Bromoadamantane;2-Adamantyl bromide",
    "duplicated_cas_no": "",
    "SMILES": "BrC1C2CC3CC1CC(C2)C3",
    "meta_data": {
        "InChI": "InChI=1S/C10H15Br/c11-10-8-2-6-1-7(4-8)5-9(10)3-6/h6-10H,1-5H2",
        "InChIKey": null,
        "Canonical SMILES": "BrC1C2CC3CC(C2)CC1C3",
        "Molecular Formula": "C<sub>10</sub>H<sub>15</sub>Br",
        "Molecular Mass": "215.13",
        "Melting Point": "135-136 °C"
    }
}