{
    "cas_no": "627-77-0",
    "key_name": "<span class=\"text-smallcaps\">DL</span>-Citrulline",
    "cn_name": "DL-瓜氨酸;DL-2-氨基-5-脲基戊酸;",
    "alternate_name": "Ornithine, <em>N</em><sup>5</sup>-(aminocarbonyl)-;Ornithine, <em>N</em><sup>5</sup>-carbamoyl-, <span class=\"text-smallcaps\">DL</span>-;<span class=\"text-smallcaps\">DL</span>-Ornithine, <em>N</em><sup>5</sup>-(aminocarbonyl)-;Citrulline, <em>dl</em>-;<em>N</em><sup>5</sup>-(Aminocarbonyl)ornithine;<span class=\"text-smallcaps\">DL</span>-Citrulline;(±)-Citrulline;Norvaline, 5-[(aminocarbonyl)amino]-;NSC 46711;2-Amino-5-(carbamoylamino)pentanoic acid;2-Amino-5-ureido-pentanoic acid;2-Amino-5-ureidovaleric acid;2-Azaniumyl-5-(carbamoylamino)pentanoate",
    "duplicated_cas_no": "7005-93-8",
    "SMILES": "C(CCNC(N)=O)C(C(O)=O)N",
    "meta_data": {
        "InChI": "InChI=1S/C6H13N3O3/c7-4(5(10)11)2-1-3-9-6(8)12/h4H,1-3,7H2,(H,10,11)(H3,8,9,12)",
        "InChIKey": null,
        "Canonical SMILES": "O=C(N)NCCCC(N)C(=O)O",
        "Molecular Formula": "C<sub>6</sub>H<sub>13</sub>N<sub>3</sub>O<sub>3</sub>",
        "Molecular Mass": "175.19",
        "Melting Point": "210 °C"
    }
}