{
    "cas_no": "598-18-5",
    "key_name": "2-Bromo-1-propanol",
    "cn_name": null,
    "alternate_name": "1-Propanol, 2-bromo-;2-Bromo-1-propanol;2-Bromopropanol;2-Hydroxy-1-methylethyl bromide;1-Hydroxy-2-bromopropane;(±)-2-Bromo-1-propanol",
    "duplicated_cas_no": "113429-85-9",
    "SMILES": "C(CO)(Br)C",
    "meta_data": {
        "InChI": "InChI=1S/C3H7BrO/c1-3(4)2-5/h3,5H,2H2,1H3",
        "InChIKey": null,
        "Canonical SMILES": "BrC(C)CO",
        "Molecular Formula": "C<sub>3</sub>H<sub>7</sub>BrO",
        "Molecular Mass": "138.99",
        "Boiling Point": "64-65 °C @ Press: 25 Torr",
        "Density": "1.5551 g/cm³ @ Temp: 30 °C"
    }
}