{
    "cas_no": "518047-98-8",
    "key_name": "Phenylmethyl <em>N</em>-[2-(hydroxyamino)-2-imino-1,1-dimethylethyl]carbamate",
    "cn_name": null,
    "alternate_name": "Carbamic acid, <em>N</em>-[2-(hydroxyamino)-2-imino-1,1-dimethylethyl]-, phenylmethyl ester;Carbamic acid, [2-(hydroxyamino)-2-imino-1,1-dimethylethyl]-, phenylmethyl ester;Phenylmethyl <em>N</em>-[2-(hydroxyamino)-2-imino-1,1-dimethylethyl]carbamate;Benzyl [2-amino-2-(hydroxyimino)-1,1-dimethylethyl]carbamate;[1-(<em>N</em>-Hydroxycarbamimidoyl)-1-methylethyl]carbamic Acid Benzyl Ester",
    "duplicated_cas_no": "",
    "SMILES": "C(C(NO)=N)(NC(OCC1=CC=CC=C1)=O)(C)C",
    "meta_data": {
        "InChI": "InChI=1S/C12H17N3O3/c1-12(2,10(13)15-17)14-11(16)18-8-9-6-4-3-5-7-9/h3-7,17H,8H2,1-2H3,(H2,13,15)(H,14,16)",
        "InChIKey": null,
        "Canonical SMILES": "O=C(OCC=1C=CC=CC1)NC(C(=N)NO)(C)C",
        "Molecular Formula": "C<sub>12</sub>H<sub>17</sub>N<sub>3</sub>O<sub>3</sub>",
        "Molecular Mass": "251.28",
        "Melting Point": "160.0-160.5 °C"
    }
}