{
    "cas_no": "25360-10-5",
    "key_name": "<em>tert</em>-Nonyl mercaptan",
    "cn_name": "叔壬基硫醇;",
    "alternate_name": "<em>tert</em>-Nonanethiol;<em>tert</em>-Nonyl mercaptan;Sulfole 90",
    "duplicated_cas_no": "11090-82-7",
    "SMILES": "",
    "meta_data": {
        "InChI": "",
        "InChIKey": null,
        "Canonical SMILES": "",
        "Molecular Formula": "C<sub>9</sub>H<sub>20</sub>S",
        "Molecular Mass": "",
        "Boiling Point": "120-150 °C @ Press: 40 Torr",
        "Density": "0.849 g/cm³ @ Temp: 20 °C"
    }
}