{
    "cas_no": "140-40-9",
    "key_name": "2-(Acetylamino)-5-nitrothiazole",
    "cn_name": "醋胺硝唑;",
    "alternate_name": "Acetamide, <em>N</em>-(5-nitro-2-thiazolyl)-;Thiazole, 2-acetamido-5-nitro-;<em>N</em>-(5-Nitro-2-thiazolyl)acetamide;2-Acetamido-5-nitrothiazole;Acetyl enheptin;Acinitrazole;Aminitrozole;Enheptin A;Pleocide;Trichlorad;Trichorad;Trichoral;Tricolaval;Tritheon;Lavoflagin;2-(Acetylamino)-5-nitrothiazole;5-Nitro-2-acetamidothiazole;Gynofon;Cyzine Premix;Nitazol;Trichocid;Acinitrazol;Trikolaval;Tricosteril;Ametoterina;Aminitrozol;Tricogen;Trichoman;Tricoral;Nithiamide;Nitazole;CL 5279;NSC 31539;NSC 45914;<em>N</em>-(5-Nitro-1,3-thiazol-2-yl)acetamide",
    "duplicated_cas_no": "8028-25-9;176976-49-1",
    "SMILES": "N(C(C)=O)C=1SC(N(=O)=O)=CN1",
    "meta_data": {
        "InChI": "InChI=1S/C5H5N3O3S/c1-3(9)7-5-6-2-4(12-5)8(10)11/h2H,1H3,(H,6,7,9)",
        "InChIKey": null,
        "Canonical SMILES": "O=C(NC1=NC=C(S1)N(=O)=O)C",
        "Molecular Formula": "C<sub>5</sub>H<sub>5</sub>N<sub>3</sub>O<sub>3</sub>S",
        "Molecular Mass": "187.18",
        "Melting Point": "264.5 °C"
    }
}