{
    "cas_no": "18453-07-1",
    "key_name": "2-Thiazolylethylamine",
    "cn_name": null,
    "alternate_name": "2-Thiazoleethanamine;Thiazole, 2-(2-aminoethyl)-;2-(2-Aminoethyl)thiazole;2-Thiazolylethylamine;2-(2-Thiazolyl)ethylamine;2-Thiazoleethylamine;Y-G 16;2-(Thiazol-2-yl)ethanamine;2-(1,3-Thiazol-2-yl)ethylamine;2-(Thiazol-2-yl)ethan-1-amine;2-(1,3-Thiazol-2-yl)ethan-1-amine;2-(1,3-Thiazol-2-yl)ethanamine",
    "duplicated_cas_no": "",
    "SMILES": "C(CN)C1=NC=CS1",
    "meta_data": {
        "InChI": "InChI=1S/C5H8N2S/c6-2-1-5-7-3-4-8-5/h3-4H,1-2,6H2",
        "InChIKey": null,
        "Canonical SMILES": "N=1C=CSC1CCN",
        "Molecular Formula": "C<sub>5</sub>H<sub>8</sub>N<sub>2</sub>S",
        "Molecular Mass": "128.20",
        "Boiling Point": "75-76 °C @ Press: 2 Torr"
    }
}