{
    "cas_no": "1523-11-1",
    "key_name": "2-Naphthyl acetate",
    "cn_name": "乙酸-2-萘酯;",
    "alternate_name": "2-Naphthalenol, 2-acetate;2-Naphthol, acetate;2-Naphthalenol, acetate;β-Naphthyl acetate;2-Naphthyl acetate;β-Naphthol acetate;2-Acetoxynaphthalene;<em>O</em>-Acetyl-β-naphthol;β-Acetoxynaphthalene;Acetic acid 2-naphthyl ester;NSC 37069;2-Naphthalenyl acetate",
    "duplicated_cas_no": "",
    "SMILES": "O(C(C)=O)C1=CC2=C(C=C1)C=CC=C2",
    "meta_data": {
        "InChI": "InChI=1S/C12H10O2/c1-9(13)14-12-7-6-10-4-2-3-5-11(10)8-12/h2-8H,1H3",
        "InChIKey": null,
        "Canonical SMILES": "O=C(OC=1C=CC=2C=CC=CC2C1)C",
        "Molecular Formula": "C<sub>12</sub>H<sub>10</sub>O<sub>2</sub>",
        "Molecular Mass": "186.21",
        "Melting Point": "69 °C"
    }
}