{
    "cas_no": "21339-55-9",
    "key_name": "1-Methyl-<span class=\"text-smallcaps\">L</span>-tryptophan",
    "cn_name": "相思豆碱;",
    "alternate_name": "<span class=\"text-smallcaps\">L</span>-Tryptophan, 1-methyl-;Tryptophan, 1-methyl-, <span class=\"text-smallcaps\">L</span>-;1-Methyl-<span class=\"text-smallcaps\">L</span>-tryptophan;1-Methyltryptophan;<span class=\"text-smallcaps\">L</span>-1-Methyltryptophan;<span class=\"text-smallcaps\">L</span>-(-)-1-Methyltryptophan;NSC 77678;(<em>S</em>)-2-Amino-3-(1-methyl-1<em>H</em>-indol-3-yl)propanoic acid;<em>N</em>-1-Methyl-<span class=\"text-smallcaps\">L</span>-tryptophan",
    "duplicated_cas_no": "719-90-4",
    "SMILES": "C([C@@H](C(O)=O)N)C=1C=2C(N(C)C1)=CC=CC2",
    "meta_data": {
        "InChI": "InChI=1S/C12H14N2O2/c1-14-7-8(6-10(13)12(15)16)9-4-2-3-5-11(9)14/h2-5,7,10H,6,13H2,1H3,(H,15,16)/t10-/m0/s1",
        "InChIKey": null,
        "Canonical SMILES": "O=C(O)C(N)CC1=CN(C=2C=CC=CC21)C",
        "Molecular Formula": "C<sub>12</sub>H<sub>14</sub>N<sub>2</sub>O<sub>2</sub>",
        "Molecular Mass": "218.25",
        "Melting Point": "223-225 °C (decomp)"
    }
}