{
    "cas_no": "16056-11-4",
    "key_name": "Phenyltrimethylammonium bromide",
    "cn_name": "苯基三甲基溴化铵;",
    "alternate_name": "Benzenaminium, <em>N</em>,<em>N</em>,<em>N</em>-trimethyl-, bromide (1:1);Ammonium, trimethylphenyl-, bromide;Benzenaminium, <em>N</em>,<em>N</em>,<em>N</em>-trimethyl-, bromide;Trimethylphenylammonium bromide;Phenyltrimethylammonium bromide;<em>N</em>,<em>N</em>,<em>N</em>-Trimethylanilinium bromide",
    "duplicated_cas_no": "",
    "SMILES": "[N+](C)(C)(C)C1=CC=CC=C1.[Br-]",
    "meta_data": {
        "InChI": "InChI=1S/C9H14N.BrH/c1-10(2,3)9-7-5-4-6-8-9;/h4-8H,1-3H3;1H/q+1;/p-1",
        "InChIKey": null,
        "Canonical SMILES": "[Br-].C=1C=CC(=CC1)[N+](C)(C)C",
        "Molecular Formula": "C<sub>9</sub>H<sub>14</sub>N.Br",
        "Molecular Mass": "",
        "Melting Point": "214 °C"
    }
}