{
    "cas_no": "109-50-2",
    "key_name": "3-Hexyn-2-ol",
    "cn_name": "3-己炔-2-醇;",
    "alternate_name": "3-Hexyn-2-ol;2-Hydroxy-3-hexyne",
    "duplicated_cas_no": "",
    "SMILES": "C(C(C)O)#CCC",
    "meta_data": {
        "InChI": "InChI=1S/C6H10O/c1-3-4-5-6(2)7/h6-7H,3H2,1-2H3",
        "InChIKey": null,
        "Canonical SMILES": "OC(C#CCC)C",
        "Molecular Formula": "C<sub>6</sub>H<sub>10</sub>O",
        "Molecular Mass": "98.14",
        "Boiling Point": "79-80 °C @ Press: 60 Torr"
    }
}