{
    "cas_no": "620-81-5",
    "key_name": "Oxanilide",
    "cn_name": "草酰苯胺;N,N\"-二苯基草酰胺;N,N\"-草酰二苯胺;",
    "alternate_name": "Ethanediamide, <em>N</em><sup>1</sup>,<em>N</em><sup>2</sup>-diphenyl-;Oxanilide;Ethanediamide, <em>N</em>,<em>N</em>′-diphenyl-;<em>N</em><sup>1</sup>,<em>N</em><sup>2</sup>-Diphenylethanediamide;Oxalanilide;<em>N</em>,<em>N</em>′-Diphenyloxalamide;<em>N</em>,<em>N</em>′-Diphenyloxalic acid diamide;NSC 4183;<em>N</em>,<em>N</em>′-Diphenyloxamide",
    "duplicated_cas_no": "",
    "SMILES": "N(C(C(NC1=CC=CC=C1)=O)=O)C2=CC=CC=C2",
    "meta_data": {
        "InChI": "InChI=1S/C14H12N2O2/c17-13(15-11-7-3-1-4-8-11)14(18)16-12-9-5-2-6-10-12/h1-10H,(H,15,17)(H,16,18)",
        "InChIKey": null,
        "Canonical SMILES": "O=C(NC=1C=CC=CC1)C(=O)NC=2C=CC=CC2",
        "Molecular Formula": "C<sub>14</sub>H<sub>12</sub>N<sub>2</sub>O<sub>2</sub>",
        "Molecular Mass": "240.26",
        "Melting Point": "254 °C"
    }
}