{
    "cas_no": "3887-02-3",
    "key_name": "Methylmethacrylamide",
    "cn_name": null,
    "alternate_name": "2-Propenamide, <em>N</em>,2-dimethyl-;Acrylamide, <em>N</em>,2-dimethyl-;<em>N</em>,2-Dimethyl-2-propenamide;<em>N</em>-Methylmethacrylamide;<em>N</em>,2-Dimethylpropenamide;Methylmethacrylamide",
    "duplicated_cas_no": "",
    "SMILES": "C(C(C)=C)(NC)=O",
    "meta_data": {
        "InChI": "InChI=1S/C5H9NO/c1-4(2)5(7)6-3/h1H2,2-3H3,(H,6,7)",
        "InChIKey": null,
        "Canonical SMILES": "O=C(NC)C(=C)C",
        "Molecular Formula": "C<sub>5</sub>H<sub>9</sub>NO",
        "Molecular Mass": "99.13",
        "Boiling Point": "108-110 °C @ Press: 10 Torr",
        "Density": "0.9963 g/cm³ @ Temp: 20 °C"
    }
}