{
    "cas_no": "6333-54-6",
    "key_name": "Stearoylglycine",
    "cn_name": null,
    "alternate_name": "Glycine, <em>N</em>-(1-oxooctadecyl)-;Glycine, <em>N</em>-stearoyl-;<em>N</em>-(1-Oxooctadecyl)glycine;<em>N</em>-Octadecanoylglycine;Stearamidoacetic acid;<em>N</em>-Stearoylglycine;Stearoylglycine;NSC 15863",
    "duplicated_cas_no": "",
    "SMILES": "C(CC(NCC(O)=O)=O)CCCCCCCCCCCCCCC",
    "meta_data": {
        "InChI": "InChI=1S/C20H39NO3/c1-2-3-4-5-6-7-8-9-10-11-12-13-14-15-16-17-19(22)21-18-20(23)24/h2-18H2,1H3,(H,21,22)(H,23,24)",
        "InChIKey": null,
        "Canonical SMILES": "O=C(O)CNC(=O)CCCCCCCCCCCCCCCCC",
        "Molecular Formula": "C<sub>20</sub>H<sub>39</sub>NO<sub>3</sub>",
        "Molecular Mass": "341.53",
        "Melting Point": "125-126 °C"
    }
}