{
    "cas_no": "2346-00-1",
    "key_name": "2-Methyl-2-thiazoline",
    "cn_name": "2-甲基-2-噻唑啉;4,5-二氢-2-甲基噻唑;",
    "alternate_name": "Thiazole, 4,5-dihydro-2-methyl-;2-Thiazoline, 2-methyl-;4,5-Dihydro-2-methylthiazole;2-Methyl-Δ<sup>2</sup>-thiazoline;2-Methylthiazoline;2-Methyl-2-thiazoline;2-Methyl-4,5-dihydro-1,3-thiazole",
    "duplicated_cas_no": "",
    "SMILES": "CC1=NCCS1",
    "meta_data": {
        "InChI": "InChI=1S/C4H7NS/c1-4-5-2-3-6-4/h2-3H2,1H3",
        "InChIKey": null,
        "Canonical SMILES": "N1=C(SCC1)C",
        "Molecular Formula": "C<sub>4</sub>H<sub>7</sub>NS",
        "Molecular Mass": "101.17",
        "Boiling Point": "145 °C",
        "Melting Point": "-101 °C"
    }
}