{
    "cas_no": "1730-92-3",
    "key_name": "(3<em>S</em>)-3-Methylpentanoic acid",
    "cn_name": "(S)-3-甲基戊酸;",
    "alternate_name": "Pentanoic acid, 3-methyl-, (3<em>S</em>)-;Valeric acid, 3-methyl-, (<em>S</em>)-(+)-;Pentanoic acid, 3-methyl-, (<em>S</em>)-;(3<em>S</em>)-3-Methylpentanoic acid;(+)-3-Methylvaleric acid;(<em>S</em>)-3-Methylpentanoic acid;(+)-3-Methylpentanoic acid;(<em>S</em>)-(+)-3-Methylvaleric acid;(<em>S</em>)-3-Methylvaleric acid;(3S)-3-Methylpentanoic acid",
    "duplicated_cas_no": "",
    "SMILES": "[C@@H](CC(O)=O)(CC)C",
    "meta_data": {
        "InChI": "InChI=1S/C6H12O2/c1-3-5(2)4-6(7)8/h5H,3-4H2,1-2H3,(H,7,8)/t5-/m0/s1",
        "InChIKey": null,
        "Canonical SMILES": "O=C(O)CC(C)CC",
        "Molecular Formula": "C<sub>6</sub>H<sub>12</sub>O<sub>2</sub>",
        "Molecular Mass": "116.16",
        "Boiling Point": "100-103 °C @ Press: 12.5 Torr",
        "Density": "0.9735 g/cm³ @ Temp: 30 °C"
    }
}