{
    "cas_no": "924-16-3",
    "key_name": "<em>N</em>-Nitrosodibutylamine",
    "cn_name": "N-亚硝基二正丁胺;N-亚硝基二正丁胺N-Nitrosodibutylamine;",
    "alternate_name": "1-Butanamine, <em>N</em>-butyl-<em>N</em>-nitroso-;Dibutylamine, <em>N</em>-nitroso-;<em>N</em>-Butyl-<em>N</em>-nitroso-1-butanamine;Dibutylnitrosamine;Di-<em>n</em>-butylnitrosamine;<em>N</em>-Nitrosodibutylamine;<em>N</em>,<em>N</em>-Dibutylnitrosamine;<em>N</em>-Nitrosodi-<em>n</em>-butylamine;Nitrosodibutylamine;<em>N</em>,<em>N</em>-Di-<em>n</em>-butylnitrosamine;<em>N</em>-Nitroso-<em>N</em>-di-<em>n</em>-butylamine;NSC 6830;NDBA;<em>N</em>,<em>N</em>-Dibutylnitrous amide",
    "duplicated_cas_no": "",
    "SMILES": "N(CCCC)(CCCC)N=O",
    "meta_data": {
        "InChI": "InChI=1S/C8H18N2O/c1-3-5-7-10(9-11)8-6-4-2/h3-8H2,1-2H3",
        "InChIKey": null,
        "Canonical SMILES": "O=NN(CCCC)CCCC",
        "Molecular Formula": "C<sub>8</sub>H<sub>18</sub>N<sub>2</sub>O",
        "Molecular Mass": "158.24",
        "Boiling Point": "116 °C @ Press: 14 Torr",
        "Melting Point": "&lt;25 °C",
        "Density": "0.9009 g/cm³ @ Temp: 20 °C"
    }
}