{
    "cas_no": "6345-43-3",
    "key_name": "4,6-Dimethyl 4,6-pyrimidinedicarboxylate",
    "cn_name": null,
    "alternate_name": "4,6-Pyrimidinedicarboxylic acid, 4,6-dimethyl ester;4,6-Pyrimidinedicarboxylic acid, dimethyl ester;4,6-Dimethyl 4,6-pyrimidinedicarboxylate;Dimethyl 4,6-pyrimidinedicarboxylate;NSC 44349;4,6-Bis(methoxycarbonyl)pyrimidine",
    "duplicated_cas_no": "",
    "SMILES": "C(OC)(=O)C=1C=C(C(OC)=O)N=CN1",
    "meta_data": {
        "InChI": "InChI=1S/C8H8N2O4/c1-13-7(11)5-3-6(8(12)14-2)10-4-9-5/h3-4H,1-2H3",
        "InChIKey": null,
        "Canonical SMILES": "O=C(OC)C1=NC=NC(=C1)C(=O)OC",
        "Molecular Formula": "C<sub>8</sub>H<sub>8</sub>N<sub>2</sub>O<sub>4</sub>",
        "Molecular Mass": "196.16",
        "Melting Point": "82-83 °C"
    }
}