{
    "cas_no": "97614-43-2",
    "key_name": "α-<span class=\"text-smallcaps\">D</span>-Arabinofuranose, 2-deoxy-2-fluoro-, 1,3,5-tribenzoate",
    "cn_name": "2-脱氧-2-氟-1,3,5-三苯甲酰基-alpha-D-阿拉伯呋喃糖;",
    "alternate_name": "α-<span class=\"text-smallcaps\">D</span>-Arabinofuranose, 2-deoxy-2-fluoro-, 1,3,5-tribenzoate;α-<span class=\"text-smallcaps\">D</span>-Arabinofuranose, 2-deoxy-2-fluoro-, tribenzoate;2′-Fluoro-2′-deoxy-1,3,5-tri-<em>O</em>-benzoyl-α-<span class=\"text-smallcaps\">D</span>-arabinofuranose;2-Deoxy-2-fluoro-α-<span class=\"text-smallcaps\">D</span>-arabinofuranose 1,3,5-tribenzoate",
    "duplicated_cas_no": "",
    "SMILES": "O(C(=O)C1=CC=CC=C1)[C@@H]2[C@@H](COC(=O)C3=CC=CC=C3)O[C@H](OC(=O)C4=CC=CC=C4)[C@H]2F",
    "meta_data": {
        "InChI": "InChI=1S/C26H21FO7/c27-21-22(33-24(29)18-12-6-2-7-13-18)20(16-31-23(28)17-10-4-1-5-11-17)32-26(21)34-25(30)19-14-8-3-9-15-19/h1-15,20-22,26H,16H2/t20-,21+,22-,26-/m1/s1",
        "InChIKey": null,
        "Canonical SMILES": "O=C(OCC1OC(OC(=O)C=2C=CC=CC2)C(F)C1OC(=O)C=3C=CC=CC3)C=4C=CC=CC4",
        "Molecular Formula": "C<sub>26</sub>H<sub>21</sub>FO<sub>7</sub>",
        "Molecular Mass": "464.44",
        "Melting Point": "82 °C"
    }
}