{
    "cas_no": "10075-85-1",
    "key_name": "9,10-Bis(phenylethynyl)anthracene",
    "cn_name": "9,10-双苯乙炔基蒽;",
    "alternate_name": "Anthracene, 9,10-bis(2-phenylethynyl)-;Anthracene, 9,10-bis(phenylethynyl)-;9,10-Bis(2-phenylethynyl)anthracene;9,10-Bis(phenylethynyl)anthracene;BPEA (scintillator additive);BPEA;9,10-Bis(phenylvinyl)anthracene;Cyalume Green;9,10-Bis(phenethynyl)anthracene",
    "duplicated_cas_no": "",
    "SMILES": "C(#CC1=CC=CC=C1)C=2C3=C(C(C#CC4=CC=CC=C4)=C5C2C=CC=C5)C=CC=C3",
    "meta_data": {
        "InChI": "InChI=1S/C30H18/c1-3-11-23(12-4-1)19-21-29-25-15-7-9-17-27(25)30(28-18-10-8-16-26(28)29)22-20-24-13-5-2-6-14-24/h1-18H",
        "InChIKey": null,
        "Canonical SMILES": "C(#CC=1C=2C=CC=CC2C(C#CC=3C=CC=CC3)=C4C=CC=CC14)C=5C=CC=CC5",
        "Molecular Formula": "C<sub>30</sub>H<sub>18</sub>",
        "Molecular Mass": "378.46",
        "Melting Point": "257-258 °C"
    }
}