{
    "cas_no": "4016-11-9",
    "key_name": "Ethyl glycidyl ether",
    "cn_name": null,
    "alternate_name": "Oxirane, 2-(ethoxymethyl)-;Propane, 1,2-epoxy-3-ethoxy-;Oxirane, (ethoxymethyl)-;2-(Ethoxymethyl)oxirane;Ethyl glycidyl ether;1,2-Epoxy-3-ethoxypropane;3-Ethoxy-1,2-epoxypropane;(Ethoxymethyl)oxirane;Glycidyl ethyl ether;NSC 71436;2,3-Epoxypropyl ethyl ether;Ethoxy glycidyl ether",
    "duplicated_cas_no": "",
    "SMILES": "C(OCC)C1CO1",
    "meta_data": {
        "InChI": "InChI=1S/C5H10O2/c1-2-6-3-5-4-7-5/h5H,2-4H2,1H3",
        "InChIKey": null,
        "Canonical SMILES": "O(CC)CC1OC1",
        "Molecular Formula": "C<sub>5</sub>H<sub>10</sub>O<sub>2</sub>",
        "Molecular Mass": "102.13",
        "Boiling Point": "128 °C",
        "Density": "0.939 g/cm³ @ Temp: 25 °C"
    }
}