{
    "cas_no": "32047-53-3",
    "key_name": "2-Propanethiol, 1-amino-2-methyl-, hydrochloride (1:1)",
    "cn_name": "1-氨基-2-甲基丙烷-2-硫醇;",
    "alternate_name": "2-Propanethiol, 1-amino-2-methyl-, hydrochloride (1:1);2-Propanethiol, 1-amino-2-methyl-, hydrochloride;2-Methyl-3-aminopropane-2-thiol hydrochloride;1-Amino-2-methyl-2-propanethiol hydrochloride;2-Mercapto-2-methyl-1-propylamine hydrochloride",
    "duplicated_cas_no": "",
    "SMILES": "C(CN)(C)(C)S.Cl",
    "meta_data": {
        "InChI": "InChI=1S/C4H11NS.ClH/c1-4(2,6)3-5;/h6H,3,5H2,1-2H3;1H",
        "InChIKey": null,
        "Canonical SMILES": "Cl.SC(C)(C)CN",
        "Molecular Formula": "C<sub>4</sub>H<sub>11</sub>NS.ClH",
        "Molecular Mass": "",
        "Melting Point": "202-203 °C"
    }
}