{
    "cas_no": "1007-28-9",
    "key_name": "Deisopropylatrazine",
    "cn_name": "氟氯氢菊脂(去异丙基莠去津);氟氯氢菊脂(去异丙基莠去津);",
    "alternate_name": "1,3,5-Triazine-2,4-diamine, 6-chloro-<em>N</em><sup>2</sup>-ethyl-;<em>s</em>-Triazine, 2-amino-4-chloro-6-(ethylamino)-;1,3,5-Triazine-2,4-diamine, 6-chloro-<em>N</em>-ethyl-;6-Chloro-<em>N</em><sup>2</sup>-ethyl-1,3,5-triazine-2,4-diamine;2-Chloro-4-amino-6-(ethylamino)-<em>s</em>-triazine;2-Chloro-4-ethylamino-6-amino-<em>s</em>-triazine;4-Amino-2-chloro-6-(ethylamino)-<em>s</em>-triazine;G 28279;2-Amino-4-chloro-6-(ethylamino)-<em>s</em>-triazine;Deisopropylatrazine;4-Amino-2-chloro-6-ethylamino-1,3,5-triazine;Deethylsimazine;Desisopropylatrazine;F 703;DIA;2-Chloro-4-ethylamino-6-amino-1,3,5-triazine;NSC 13909;Atrazine-desisopropyl;6-Amino-2-chloro-4-ethylamino-<em>s</em>-triazine;Desethylsimazine;F 703 (amine);6-Amino-2-chloro-4-ethylamino-1,3,5-triazine;6-Desisopropylatrazine",
    "duplicated_cas_no": "",
    "SMILES": "N(CC)C=1N=C(Cl)N=C(N)N1",
    "meta_data": {
        "InChI": "InChI=1S/C5H8ClN5/c1-2-8-5-10-3(6)9-4(7)11-5/h2H2,1H3,(H3,7,8,9,10,11)",
        "InChIKey": null,
        "Canonical SMILES": "ClC=1N=C(N=C(N1)NCC)N",
        "Molecular Formula": "C<sub>5</sub>H<sub>8</sub>ClN<sub>5</sub>",
        "Molecular Mass": "173.60",
        "Melting Point": "177-179 °C"
    }
}