{
    "cas_no": "1128-05-8",
    "key_name": "3-Acetylbenzothiophene",
    "cn_name": "3-乙酰硫茚;3-乙酰苯并噻吩;",
    "alternate_name": "Ethanone, 1-benzo[<em>b</em>]thien-3-yl-;Ketone, benzo[<em>b</em>]thien-3-yl methyl;1-Benzo[<em>b</em>]thien-3-ylethanone;3-Acetylbenzothiophene;3-Acetylbenzo[<em>b</em>]thiophene;3-Acetylthianaphthene;3-Acetylthionaphthene;1-(3-Benzo[<em>b</em>]thienyl)ethanone;NSC 3226;1-(Benzo[<em>b</em>]thiophen-3-yl)ethanone;1-(Benzo[<em>b</em>]thien-3-yl)ethanone;1-(1-Benzothiophen-3-yl)ethan-1-one",
    "duplicated_cas_no": "",
    "SMILES": "C(C)(=O)C=1C=2C(SC1)=CC=CC2",
    "meta_data": {
        "InChI": "InChI=1S/C10H8OS/c1-7(11)9-6-12-10-5-3-2-4-8(9)10/h2-6H,1H3",
        "InChIKey": null,
        "Canonical SMILES": "O=C(C1=CSC=2C=CC=CC21)C",
        "Molecular Formula": "C<sub>10</sub>H<sub>8</sub>OS",
        "Molecular Mass": "176.23",
        "Boiling Point": "135-137 °C @ Press: 3 Torr",
        "Melting Point": "64-65 °C"
    }
}