{
    "cas_no": "14219-90-0",
    "key_name": "Thallium, (2,4-pentanedionato-κ<em>O</em>,κ<em>O</em>′)-",
    "cn_name": null,
    "alternate_name": "Thallium, (2,4-pentanedionato-κ<em>O</em>,κ<em>O</em>′)-;Thallium, (2,4-pentanedionato)-;Thallium, (2,4-pentanedionato-<em>O</em>,<em>O</em>′)-;Thallium acetoacetonate;Thallium acetylacetonate;(Acetylacetonato)thallium;(2,4-Pentanedionato)thallium;Thallous acetylacetonate;Thallium(I) acetylacetonate;(Acetylacetonato)thallium(I);Thallium(1+) acetylacetonate;NSC 127940",
    "duplicated_cas_no": "12627-32-6;25955-51-5",
    "SMILES": "CC=1[CH-]C(C)=O[Tl+]O1",
    "meta_data": {
        "InChI": "InChI=1S/C5H7O2.Tl/c1-4(6)3-5(2)7;/h3H,1-2H3;/q-1;+1",
        "InChIKey": null,
        "Canonical SMILES": "O=1[Tl+]O=C([CH-]C1C)C",
        "Molecular Formula": "C<sub>5</sub>H<sub>7</sub>O<sub>2</sub>Tl",
        "Molecular Mass": "",
        "Melting Point": "160 °C (decomp)"
    }
}