{
    "cas_no": "82104-74-3",
    "key_name": "5-Cyanophthalide",
    "cn_name": null,
    "alternate_name": "5-Isobenzofurancarbonitrile, 1,3-dihydro-1-oxo-;1,3-Dihydro-1-oxo-5-isobenzofurancarbonitrile;5-Cyanophthalide;1-Oxo-1,3-dihydroisobenzofuran-5-carbonitrile;1-Oxo-3<em>H</em>-2-benzofuran-5-carbonitrile;1-Oxo-1,3-dihydro-2-benzofuran-5-carbonitrile",
    "duplicated_cas_no": "1801894-78-9",
    "SMILES": "O=C1C=2C(=CC(C#N)=CC2)CO1",
    "meta_data": {
        "InChI": "InChI=1S/C9H5NO2/c10-4-6-1-2-8-7(3-6)5-12-9(8)11/h1-3H,5H2",
        "InChIKey": null,
        "Canonical SMILES": "N#CC1=CC=C2C(=O)OCC2=C1",
        "Molecular Formula": "C<sub>9</sub>H<sub>5</sub>NO<sub>2</sub>",
        "Molecular Mass": "159.14",
        "Melting Point": "202 °C"
    }
}