{
    "cas_no": "18511-62-1",
    "key_name": "2-(4-Fluorophenyl)oxirane",
    "cn_name": "(±)-4-氟苯乙烯环氧化物;(±)-4-氟苯乙烯环氧化物,98%;",
    "alternate_name": "Oxirane, 2-(4-fluorophenyl)-;Benzene, 1-(epoxyethyl)-4-fluoro-;Oxirane, (4-fluorophenyl)-;2-(4-Fluorophenyl)oxirane;(<em>p</em>-Fluorophenyl)oxirane;<em>p</em>-Fluorostyrene oxide;2-(<em>p</em>-Fluorophenyl)oxirane;4-Fluorostyrene oxide;(±)-(4-Fluorophenyl)oxirane;4-Fluorophenylstyrene oxide;4-Fluorostyrene epoxide;4-Fluorophenyloxirane",
    "duplicated_cas_no": "118839-07-9;53631-23-5",
    "SMILES": "FC1=CC=C(C2CO2)C=C1",
    "meta_data": {
        "InChI": "InChI=1S/C8H7FO/c9-7-3-1-6(2-4-7)8-5-10-8/h1-4,8H,5H2",
        "InChIKey": null,
        "Canonical SMILES": "FC1=CC=C(C=C1)C2OC2",
        "Molecular Formula": "C<sub>8</sub>H<sub>7</sub>FO",
        "Molecular Mass": "138.14",
        "Boiling Point": "63-64 °C @ Press: 0.5 Torr"
    }
}