{
    "cas_no": "13201-14-4",
    "key_name": "Dihydrocucurbitacin B",
    "cn_name": null,
    "alternate_name": "19-Norlanost-5-ene-3,11,22-trione, 25-(acetyloxy)-2,16,20-trihydroxy-9-methyl-, (2β,9β,10α,16α)-;19-Nor-9β,10α-lanost-5-ene-3,11,22-trione, 2β,16α,20,25-tetrahydroxy-9-methyl-, 25-acetate;Cucurbitacin B, dihydro-;(2β,9β,10α,16α)-25-(Acetyloxy)-2,16,20-trihydroxy-9-methyl-19-norlanost-5-ene-3,11,22-trione;Dihydrocucurbitacin B;23,24-Dihydrocucurbitacin B;NSC 106401",
    "duplicated_cas_no": "21284-12-8",
    "SMILES": "C[C@]12[C@@](C)([C@@]([C@@](C(CCC(OC(C)=O)(C)C)=O)(C)O)([C@H](O)C1)[H])CC(=O)[C@]3(C)[C@]2(CC=C4[C@]3(C[C@H](O)C(=O)C4(C)C)[H])[H]",
    "meta_data": {
        "InChI": "InChI=1S/C32H48O8/c1-17(33)40-27(2,3)13-12-23(36)32(9,39)25-21(35)15-29(6)22-11-10-18-19(14-20(34)26(38)28(18,4)5)31(22,8)24(37)16-30(25,29)7/h10,19-22,25,34-35,39H,11-16H2,1-9H3/t19-,20+,21-,22+,25+,29+,30-,31+,32+/m1/s1",
        "InChIKey": null,
        "Canonical SMILES": "O=C(OC(C)(C)CCC(=O)C(O)(C)C1C(O)CC2(C)C3CC=C4C(CC(O)C(=O)C4(C)C)C3(C(=O)CC12C)C)C",
        "Molecular Formula": "C<sub>32</sub>H<sub>48</sub>O<sub>8</sub>",
        "Molecular Mass": "560.72",
        "Melting Point": "110-115 °C"
    }
}