{
    "cas_no": "334-48-5",
    "key_name": "Decanoic acid",
    "cn_name": "癸酸;正癸酸;",
    "alternate_name": "Decanoic acid;Capric acid;Decoic acid;<em>n</em>-Decoic acid;Decylic acid;<em>n</em>-Decylic acid;<em>n</em>-Capric acid;1-Nonanecarboxylic acid;<em>n</em>-Decanoic acid;Caprinic acid;Caprynic acid;Emery 659;Prifac 296;NAA 102;Prifac 2906;Lunac 10-95;Lunac 10-98;NSC 5025;Lunac 10-98E;1-Decanoic acid;Palmac 99-10;Edenor C 10-98-100;Palamac 99-10;Caprates",
    "duplicated_cas_no": "",
    "SMILES": "C(CCCCCC)CCC(O)=O",
    "meta_data": {
        "InChI": "InChI=1S/C10H20O2/c1-2-3-4-5-6-7-8-9-10(11)12/h2-9H2,1H3,(H,11,12)",
        "InChIKey": null,
        "Canonical SMILES": "O=C(O)CCCCCCCCC",
        "Molecular Formula": "C<sub>10</sub>H<sub>20</sub>O<sub>2</sub>",
        "Molecular Mass": "172.26",
        "Boiling Point": "268.7 °C",
        "Melting Point": "31.5 °C",
        "Density": "0.890 g/cm³ @ Temp: 40 °C"
    }
}