{
    "cas_no": "399-36-0",
    "key_name": "<em>N</em>-(2,4-Difluorophenyl)acetamide",
    "cn_name": "2,4-二氟乙酰苯胺;N-(2,4-二氟苯基)乙酰胺;",
    "alternate_name": "Acetamide, <em>N</em>-(2,4-difluorophenyl)-;Acetanilide, 2′,4′-difluoro-;<em>N</em>-(2,4-Difluorophenyl)acetamide;2′,4′-Difluoroacetanilide;<em>N</em>-Acetyl-2,4-difluoroaniline;2,4-Difluoroacetanilide;NSC 51780",
    "duplicated_cas_no": "",
    "SMILES": "N(C(C)=O)C1=C(F)C=C(F)C=C1",
    "meta_data": {
        "InChI": "InChI=1S/C8H7F2NO/c1-5(12)11-8-3-2-6(9)4-7(8)10/h2-4H,1H3,(H,11,12)",
        "InChIKey": null,
        "Canonical SMILES": "O=C(NC1=CC=C(F)C=C1F)C",
        "Molecular Formula": "C<sub>8</sub>H<sub>7</sub>F<sub>2</sub>NO",
        "Molecular Mass": "171.14",
        "Melting Point": "121-123 °C"
    }
}