{
    "cas_no": "122-43-0",
    "key_name": "Butyl phenylacetate",
    "cn_name": "苯乙酸丁酯;",
    "alternate_name": "Benzeneacetic acid, butyl ester;Acetic acid, phenyl-, butyl ester;Butyl phenylacetate;Phenylethanoic acid butyl ester;Butyl benzeneacetate",
    "duplicated_cas_no": "",
    "SMILES": "C(C(OCCCC)=O)C1=CC=CC=C1",
    "meta_data": {
        "InChI": "InChI=1S/C12H16O2/c1-2-3-9-14-12(13)10-11-7-5-4-6-8-11/h4-8H,2-3,9-10H2,1H3",
        "InChIKey": null,
        "Canonical SMILES": "O=C(OCCCC)CC=1C=CC=CC1",
        "Molecular Formula": "C<sub>12</sub>H<sub>16</sub>O<sub>2</sub>",
        "Molecular Mass": "192.25",
        "Boiling Point": "138-140 °C @ Press: 19 Torr",
        "Density": "0.9980 g/cm³ @ Temp: 20 °C"
    }
}