{
    "cas_no": "18599-22-9",
    "key_name": "4-Bromo-3,3,4,4-tetrafluoro-1-butene",
    "cn_name": null,
    "alternate_name": "1-Butene, 4-bromo-3,3,4,4-tetrafluoro-;4-Bromo-3,3,4,4-tetrafluoro-1-butene",
    "duplicated_cas_no": "",
    "SMILES": "C(C(Br)(F)F)(C=C)(F)F",
    "meta_data": {
        "InChI": "InChI=1S/C4H3BrF4/c1-2-3(6,7)4(5,8)9/h2H,1H2",
        "InChIKey": null,
        "Canonical SMILES": "FC(F)(Br)C(F)(F)C=C",
        "Molecular Formula": "C<sub>4</sub>H<sub>3</sub>BrF<sub>4</sub>",
        "Molecular Mass": "206.96",
        "Boiling Point": "42 °C",
        "Density": "1.537 g/cm³ @ Temp: 25 °C"
    }
}