{
    "cas_no": "102-17-0",
    "key_name": "(4-Methoxyphenyl)methyl benzeneacetate",
    "cn_name": "苯乙酸茴香酯;",
    "alternate_name": "Benzeneacetic acid, (4-methoxyphenyl)methyl ester;Acetic acid, phenyl-, <em>p</em>-methoxybenzyl ester;Benzyl alcohol, <em>p</em>-methoxy-, phenylacetate;(4-Methoxyphenyl)methyl benzeneacetate;Anisyl phenylacetate;Phenylacetic acid, <em>p</em>-methoxybenzyl ester;<em>p</em>-Methoxybenzyl phenylacetate;4-Methoxybenzyl phenylacetate",
    "duplicated_cas_no": "",
    "SMILES": "C(C(OCC1=CC=C(OC)C=C1)=O)C2=CC=CC=C2",
    "meta_data": {
        "InChI": "InChI=1S/C16H16O3/c1-18-15-9-7-14(8-10-15)12-19-16(17)11-13-5-3-2-4-6-13/h2-10H,11-12H2,1H3",
        "InChIKey": null,
        "Canonical SMILES": "O=C(OCC1=CC=C(OC)C=C1)CC=2C=CC=CC2",
        "Molecular Formula": "C<sub>16</sub>H<sub>16</sub>O<sub>3</sub>",
        "Molecular Mass": "256.30",
        "Boiling Point": "370 °C"
    }
}