{
    "cas_no": "959-14-8",
    "key_name": "Oxolamine",
    "cn_name": "奥沙拉明;胺乙噁唑;5-[2-(二乙基氨基)乙基]-3-苯基-1,2,4-噁二唑;",
    "alternate_name": "1,2,4-Oxadiazole-5-ethanamine, <em>N</em>,<em>N</em>-diethyl-3-phenyl-;1,2,4-Oxadiazole, 5-[2-(diethylamino)ethyl]-3-phenyl-;<em>N</em>,<em>N</em>-Diethyl-3-phenyl-1,2,4-oxadiazole-5-ethanamine;Oxolamine;5-(2-Diethylaminoethyl)-3-phenyl-1,2,4-oxadiazole;3-Phenyl-5-(β-diethylaminoethyl)-1,2,4-oxadiazole;683M",
    "duplicated_cas_no": "",
    "SMILES": "C(CN(CC)CC)C1=NC(=NO1)C2=CC=CC=C2",
    "meta_data": {
        "InChI": "InChI=1S/C14H19N3O/c1-3-17(4-2)11-10-13-15-14(16-18-13)12-8-6-5-7-9-12/h5-9H,3-4,10-11H2,1-2H3",
        "InChIKey": null,
        "Canonical SMILES": "N=1OC(=NC1C=2C=CC=CC2)CCN(CC)CC",
        "Molecular Formula": "C<sub>14</sub>H<sub>19</sub>N<sub>3</sub>O",
        "Molecular Mass": "245.32",
        "Boiling Point": "127 °C",
        "Melting Point": "&lt;25 °C"
    }
}