{
    "cas_no": "1999-00-4",
    "key_name": "Ethyl 4-fluoro-β-oxobenzenepropanoate",
    "cn_name": "4-氟苯甲酰乙酸乙酯;",
    "alternate_name": "Benzenepropanoic acid, 4-fluoro-β-oxo-, ethyl ester;Acetic acid, (<em>p</em>-fluorobenzoyl)-, ethyl ester;Ethyl 4-fluoro-β-oxobenzenepropanoate;Ethyl (<em>p</em>-fluorobenzoyl)acetate;Ethyl α-(<em>p</em>-fluorobenzoyl)acetate;Ethyl (4-fluorobenzoyl)acetate;Ethyl 3-oxo-3-(4-fluorophenyl)propionate;Ethyl 3-(4-fluorophenyl)-3-oxopropanoate;Ethyl 2-(4-fluorobenzoyl)acetate;Ethyl 3-(4-fluorophenyl)-3-oxopropionate;3-(4-Fluorophenyl)-3-oxopropanoic acid ethyl ester;Ethyl 2-(<em>p</em>-fluorobenzoyl)acetate;(4-Fluorobenzoyl)acetic acid ethyl ester",
    "duplicated_cas_no": "",
    "SMILES": "C(CC(OCC)=O)(=O)C1=CC=C(F)C=C1",
    "meta_data": {
        "InChI": "InChI=1S/C11H11FO3/c1-2-15-11(14)7-10(13)8-3-5-9(12)6-4-8/h3-6H,2,7H2,1H3",
        "InChIKey": null,
        "Canonical SMILES": "O=C(OCC)CC(=O)C1=CC=C(F)C=C1",
        "Molecular Formula": "C<sub>11</sub>H<sub>11</sub>FO<sub>3</sub>",
        "Molecular Mass": "210.20",
        "Boiling Point": "104-105 °C @ Press: 0.6 Torr"
    }
}