{
    "cas_no": "1194-21-4",
    "key_name": "2-Amino-6-chloro-4(1<em>H</em>)-pyrimidinone",
    "cn_name": "2-氨基-6-氯-4-羟基嘧啶;",
    "alternate_name": "4(1<em>H</em>)-Pyrimidinone, 2-amino-6-chloro-;4-Pyrimidinol, 2-amino-6-chloro-;4(3<em>H</em>)-Pyrimidinone, 2-amino-6-chloro-;2-Amino-6-chloro-4(1<em>H</em>)-pyrimidinone;2-Amino-6-chloro-4-pyrimidinol;2-Amino-4-chloro-6-hydroxypyrimidine;6-Chloroisocytosine;2-Amino-4-hydroxy-6-chloropyrimidine;2-Amino-6-chloro-4-pyrimidinone;2-Amino-6-chloro-4(3<em>H</em>)-pyrimidinone;2-Amino-4-chloropyrimidine-6-one;NSC 35655;2-Amino-6-chloro-3<em>H</em>-pyrimidin-4-one;2-Amino-6-chloro-1<em>H</em>-pyrimidin-4-one;2-Amino-6-chloro-3,4-dihydropyrimidin-4-one",
    "duplicated_cas_no": "24541-69-3",
    "SMILES": "ClC1=CC(=O)N=C(N)N1",
    "meta_data": {
        "InChI": "InChI=1S/C4H4ClN3O/c5-2-1-3(9)8-4(6)7-2/h1H,(H3,6,7,8,9)",
        "InChIKey": null,
        "Canonical SMILES": "O=C1N=C(N)NC(Cl)=C1",
        "Molecular Formula": "C<sub>4</sub>H<sub>4</sub>ClN<sub>3</sub>O",
        "Molecular Mass": "145.55",
        "Melting Point": "261 °C"
    }
}