{
    "cas_no": "622-97-9",
    "key_name": "<em>p</em>-Methylstyrene",
    "cn_name": "4-甲基苯乙烯;对甲基苯乙烯;1-乙烯基-4-甲基苯;1-甲基-4-乙烯基苯;",
    "alternate_name": "Benzene, 1-ethenyl-4-methyl-;Styrene, <em>p</em>-methyl-;1-Ethenyl-4-methylbenzene;4-Methylstyrene;<em>p</em>-Vinyltoluene;1-Methyl-4-vinylbenzene;4-Vinyltoluene;<em>p</em>-Methylstyrene;1-<em>p</em>-Tolylethene;PMS;4-Ethenylmethylbenzene;(4-Methylphenyl)ethene;(4-Tolyl)ethene;4-Methylvinylbenzene;1-Vinyl-4-methylbenzene;1-(4-Methylphenyl)-1-ethene;<em>p</em>-Tolylethylene;4-Methyl-1-ethenylbenzene",
    "duplicated_cas_no": "",
    "SMILES": "C(=C)C1=CC=C(C)C=C1",
    "meta_data": {
        "InChI": "InChI=1S/C9H10/c1-3-9-6-4-8(2)5-7-9/h3-7H,1H2,2H3",
        "InChIKey": null,
        "Canonical SMILES": "C=CC1=CC=C(C=C1)C",
        "Molecular Formula": "C<sub>9</sub>H<sub>10</sub>",
        "Molecular Mass": "118.18",
        "Boiling Point": "172.8 °C",
        "Melting Point": "-34.1 °C",
        "Density": "0.9173 g/cm³ @ Temp: 25 °C"
    }
}