{
    "cas_no": "2386-53-0",
    "key_name": "Sodium dodecylsulfonate",
    "cn_name": null,
    "alternate_name": "1-Dodecanesulfonic acid, sodium salt (1:1);1-Dodecanesulfonic acid, sodium salt;Dodecanesulfonic acid, sodium salt;Sodium laurylsulfonate;Sodium dodecylsulfonate;Sodium dodecanesulfonate;Perlan Alb;Sodium 1-dodecanesulfonate;Dodecyl sodium sulfonate;Laurylsulfonic acid sodium salt;Sodium <em>n</em>-dodecylsulfonate;Dodecylsulfonic acid sodium salt;<em>n</em>-Dodecylsulfonic acid sodium salt;Calsoft SLS 30;Acme SLS;AS;Emal 2FG;P 30 (surfactant);P 30;Stepanol PCK;CP 20;CP 20 (emulsifier);DSS;H 95",
    "duplicated_cas_no": "12640-85-6;139874-16-1;163883-58-7",
    "SMILES": "C(CCCCCCCCC)CCS(=O)(=O)O.[Na]",
    "meta_data": {
        "InChI": "InChI=1S/C12H26O3S.Na/c1-2-3-4-5-6-7-8-9-10-11-12-16(13,14)15;/h2-12H2,1H3,(H,13,14,15);",
        "InChIKey": null,
        "Canonical SMILES": "[Na].O=S(=O)(O)CCCCCCCCCCCC",
        "Molecular Formula": "C<sub>12</sub>H<sub>26</sub>O<sub>3</sub>S.Na",
        "Molecular Mass": "",
        "Melting Point": "&gt;300 °C",
        "Density": "1.01 g/cm³ (solid)"
    }
}