{
    "cas_no": "586-42-5",
    "key_name": "3-Acetylbenzoic acid",
    "cn_name": "3-乙酰基苯甲酸;",
    "alternate_name": "Benzoic acid, 3-acetyl-;Benzoic acid, <em>m</em>-acetyl-;3-Acetylbenzoic acid;3′-Carboxyacetophenone;<em>m</em>-Acetylbenzoic acid;<em>m</em>-Carboxyacetophenone;3-(1-Oxoethyl)benzoic acid;NSC 2932",
    "duplicated_cas_no": "",
    "SMILES": "C(C)(=O)C1=CC(C(O)=O)=CC=C1",
    "meta_data": {
        "InChI": "InChI=1S/C9H8O3/c1-6(10)7-3-2-4-8(5-7)9(11)12/h2-5H,1H3,(H,11,12)",
        "InChIKey": null,
        "Canonical SMILES": "O=C(O)C1=CC=CC(=C1)C(=O)C",
        "Molecular Formula": "C<sub>9</sub>H<sub>8</sub>O<sub>3</sub>",
        "Molecular Mass": "164.16",
        "Melting Point": "170-173 °C"
    }
}