{
    "cas_no": "69-65-8",
    "key_name": "Mannitol",
    "cn_name": "D-甘露糖醇;甘露醇;",
    "alternate_name": "<span class=\"text-smallcaps\">D</span>-Mannitol;Mannitol, <span class=\"text-smallcaps\">D</span>-;Cordycepic acid;Mannite;Osmitrol;Mannitol;<span class=\"text-smallcaps\">D</span>-(-)-Mannitol;Manna sugar;Mannidex;Diosmol;Osmosal;Mannit;Isotol;Mannigen;Mannistol;Maniton S;Mannitolum;Mannogem 2080;Marine Crystal;Manicol;Resectisol;Mannit P;E 421;Mannogem EZ;Cerestar 16700;Pearlitol 100SD;Mannit 60;<span class=\"text-smallcaps\">D</span>-Mannit;Pearlitol 200SD;Parteck M 200;Mannit S;Pearlitol 50C;Pearlitol SD 100;Mannidex 16700;Parteck M 100;Perlitol SD 200;Nonpareil 108(200);Partek M;Pearlitol;Nonpareil 108;Pearlitol 160C;Pearlitol 25C;Parteck M 300;Perteck M;Parteck Delta M;Mannitol P 60;Mannitol 35;Mannitol 60;Brightmoon;Orocell 200;Parteck 300;Bronchitol;Pearlitol 2005D;Pearlitol 100;PharmMannidex;PharmMannidex 16701;Mannitol SD 200;Granutol R;M 100;(2R,3R,4R,5R)-Hexane-1,2,3,4,5,6-hexaol;Mannit Q;Granutol S;Granutol F;Granitol S;Mannitol 300DC;Mannitol 25C",
    "duplicated_cas_no": "75398-80-0;85085-15-0;123897-58-5;1081757-07-4",
    "SMILES": "[C@H]([C@@H]([C@@H](CO)O)O)([C@@H](CO)O)O",
    "meta_data": {
        "InChI": "InChI=1S/C6H14O6/c7-1-3(9)5(11)6(12)4(10)2-8/h3-12H,1-2H2/t3-,4-,5-,6-/m1/s1",
        "InChIKey": null,
        "Canonical SMILES": "OCC(O)C(O)C(O)C(O)CO",
        "Molecular Formula": "C<sub>6</sub>H<sub>14</sub>O<sub>6</sub>",
        "Molecular Mass": "182.17",
        "Boiling Point": "290-295 °C @ Press: 3.5 Torr",
        "Melting Point": "166-168 °C",
        "Density": "1.52 g/cm³ @ Temp: 20 °C"
    }
}