{
    "cas_no": "33414-49-2",
    "key_name": "1-(3-Hydroxy-4-methylphenyl)ethanone",
    "cn_name": null,
    "alternate_name": "Ethanone, 1-(3-hydroxy-4-methylphenyl)-;Acetophenone, 3′-hydroxy-4′-methyl-;1-(3-Hydroxy-4-methylphenyl)ethanone;2-Methyl-5-acetylphenol;3-Hydroxy-4-methylacetophenone;1-(3-Hydroxy-4-methylphenyl)ethan-1-one",
    "duplicated_cas_no": "",
    "SMILES": "C(C)(=O)C1=CC(O)=C(C)C=C1",
    "meta_data": {
        "InChI": "InChI=1S/C9H10O2/c1-6-3-4-8(7(2)10)5-9(6)11/h3-5,11H,1-2H3",
        "InChIKey": null,
        "Canonical SMILES": "O=C(C1=CC=C(C(O)=C1)C)C",
        "Molecular Formula": "C<sub>9</sub>H<sub>10</sub>O<sub>2</sub>",
        "Molecular Mass": "150.17",
        "Melting Point": "119-120 °C"
    }
}