{
    "cas_no": "1947-47-3",
    "key_name": "3-Amino-2-phenyl-1<em>H</em>-inden-1-one",
    "cn_name": "3-氨基-2-苯基二氢茚酮;3-氨基-2-苯基二氢茚酮;",
    "alternate_name": "1<em>H</em>-Inden-1-one, 3-amino-2-phenyl-;Indone, 3-amino-2-phenyl-;3-Amino-2-phenyl-1<em>H</em>-inden-1-one;3-Amino-2-phenylindene-1-one;NSC 156175;3-Amino-2-phenylinden-1-one",
    "duplicated_cas_no": "",
    "SMILES": "NC1=C(C(=O)C=2C1=CC=CC2)C3=CC=CC=C3",
    "meta_data": {
        "InChI": "InChI=1S/C15H11NO/c16-14-11-8-4-5-9-12(11)15(17)13(14)10-6-2-1-3-7-10/h1-9H,16H2",
        "InChIKey": null,
        "Canonical SMILES": "O=C1C=2C=CC=CC2C(N)=C1C=3C=CC=CC3",
        "Molecular Formula": "C<sub>15</sub>H<sub>11</sub>NO",
        "Molecular Mass": "221.25",
        "Melting Point": "266-268 °C"
    }
}