{
    "cas_no": "18227-67-3",
    "key_name": "3-Methyl-5-nitro-4-pyridinamine",
    "cn_name": null,
    "alternate_name": "4-Pyridinamine, 3-methyl-5-nitro-;3-Picoline, 4-amino-5-nitro-;3-Methyl-5-nitro-4-pyridinamine;3-Methyl-5-nitro-1,4-dihydropyridin-4-imine",
    "duplicated_cas_no": "",
    "SMILES": "N(=O)(=O)C=1C(N)=C(C)C=NC1",
    "meta_data": {
        "InChI": "InChI=1S/C6H7N3O2/c1-4-2-8-3-5(6(4)7)9(10)11/h2-3H,1H3,(H2,7,8)",
        "InChIKey": null,
        "Canonical SMILES": "O=N(=O)C1=CN=CC(=C1N)C",
        "Molecular Formula": "C<sub>6</sub>H<sub>7</sub>N<sub>3</sub>O<sub>2</sub>",
        "Molecular Mass": "153.14",
        "Melting Point": "193 °C"
    }
}