{
    "cas_no": "593-81-7",
    "key_name": "Trimethylammonium chloride",
    "cn_name": "三甲胺盐酸盐;盐酸三甲胺;",
    "alternate_name": "Methanamine, <em>N</em>,<em>N</em>-dimethyl-, hydrochloride (1:1);Trimethylamine, hydrochloride;Methanamine, <em>N</em>,<em>N</em>-dimethyl-, hydrochloride;Trimethylammonium chloride;Trimethylamine monohydrochloride;Trimethylamine hydrochloric acid;Hegzadesil",
    "duplicated_cas_no": "",
    "SMILES": "N(C)(C)C.Cl",
    "meta_data": {
        "InChI": "InChI=1S/C3H9N.ClH/c1-4(2)3;/h1-3H3;1H",
        "InChIKey": null,
        "Canonical SMILES": "Cl.N(C)(C)C",
        "Molecular Formula": "C<sub>3</sub>H<sub>9</sub>N.ClH",
        "Molecular Mass": "",
        "Boiling Point": "&lt;200 °C",
        "Melting Point": "277.5 °C"
    }
}