{
    "cas_no": "578729-21-2",
    "key_name": "1,1-Dimethylethyl <em>N</em>-[(1<em>R</em>)-1-(4-bromophenyl)ethyl]carbamate",
    "cn_name": "[(1R)-1-(4-溴苯基)乙基]氨基甲酸叔丁酯;",
    "alternate_name": "Carbamic acid, <em>N</em>-[(1<em>R</em>)-1-(4-bromophenyl)ethyl]-, 1,1-dimethylethyl ester;Carbamic acid, [(1<em>R</em>)-1-(4-bromophenyl)ethyl]-, 1,1-dimethylethyl ester;1,1-Dimethylethyl <em>N</em>-[(1<em>R</em>)-1-(4-bromophenyl)ethyl]carbamate;[(<em>R</em>)-1-(4-Bromophenyl)ethyl]carbamic acid tert-butyl ester;<em>tert</em>-Butyl [(1<em>R</em>)-1-(4-bromophenyl)ethyl]carbamate;<em>tert</em>-Butyl [(<em>R</em>)-1-(4-bromophenyl)ethyl]carbamate;(R)-<em>tert</em>-Butyl(1-(4-bromophenyl)ethyl)carbamate",
    "duplicated_cas_no": "",
    "SMILES": "[C@@H](NC(OC(C)(C)C)=O)(C)C1=CC=C(Br)C=C1",
    "meta_data": {
        "InChI": "InChI=1S/C13H18BrNO2/c1-9(10-5-7-11(14)8-6-10)15-12(16)17-13(2,3)4/h5-9H,1-4H3,(H,15,16)/t9-/m1/s1",
        "InChIKey": null,
        "Canonical SMILES": "O=C(OC(C)(C)C)NC(C1=CC=C(Br)C=C1)C",
        "Molecular Formula": "C<sub>13</sub>H<sub>18</sub>BrNO<sub>2</sub>",
        "Molecular Mass": "300.19",
        "Melting Point": "131-135 °C"
    }
}