{
    "cas_no": "1435-50-3",
    "key_name": "2-Bromo-1,4-dichlorobenzene",
    "cn_name": "2-溴-1,4-二氯苯;2,5-二氯溴苯;",
    "alternate_name": "Benzene, 2-bromo-1,4-dichloro-;2-Bromo-1,4-dichlorobenzene;1-Bromo-2,5-dichlorobenzene;2,5-Dichlorobromobenzene",
    "duplicated_cas_no": "",
    "SMILES": "BrC1=C(Cl)C=CC(Cl)=C1",
    "meta_data": {
        "InChI": "InChI=1S/C6H3BrCl2/c7-5-3-4(8)1-2-6(5)9/h1-3H",
        "InChIKey": null,
        "Canonical SMILES": "ClC1=CC=C(Cl)C(Br)=C1",
        "Molecular Formula": "C<sub>6</sub>H<sub>3</sub>BrCl<sub>2</sub>",
        "Molecular Mass": "225.90",
        "Boiling Point": "226 °C",
        "Melting Point": "35 °C"
    }
}