{
    "cas_no": "40711-41-9",
    "key_name": "Hydrazine, butyl-, ethanedioate (1:?)",
    "cn_name": null,
    "alternate_name": "Hydrazine, butyl-, ethanedioate (1:?);Hydrazine, butyl-, ethanedioate;Butylhydrazine oxalate",
    "duplicated_cas_no": "",
    "SMILES": "C(CNN)CC.C(C(O)=O)(O)=O",
    "meta_data": {
        "InChI": "InChI=1S/C4H12N2.C2H2O4/c1-2-3-4-6-5;3-1(4)2(5)6/h6H,2-5H2,1H3;(H,3,4)(H,5,6)",
        "InChIKey": null,
        "Canonical SMILES": "O=C(O)C(=O)O.NNCCCC",
        "Molecular Formula": "C<sub>4</sub>H<sub>12</sub>N<sub>2</sub>.xC<sub>2</sub>H<sub>2</sub>O<sub>4</sub>",
        "Molecular Mass": "",
        "Melting Point": "163-164 °C"
    }
}