{
    "cas_no": "33417-17-3",
    "key_name": "1,3-Dihydro-3-hydroxy-3-(2-oxopropyl)-2<em>H</em>-indol-2-one",
    "cn_name": null,
    "alternate_name": "2<em>H</em>-Indol-2-one, 1,3-dihydro-3-hydroxy-3-(2-oxopropyl)-;2-Indolinone, 3-acetonyl-3-hydroxy-;1,3-Dihydro-3-hydroxy-3-(2-oxopropyl)-2<em>H</em>-indol-2-one;NSC 174507;3-Hydroxy-3-(2-oxopropyl)-2,3-dihydro-1<em>H</em>-indol-2-one;3-Hydroxy-3-(2-oxopropyl)-1<em>H</em>-indol-2-one;3-Hydroxy-3-(2-oxopropyl)indolin-2-one;3-Hydroxy-3-acetonyloxindole;3-Hydroxy-3-(acetylmethyl)-2-indolinone;3-Hydroxy-3-(2-oxo-propyl)-1,3-dihydro-indol-2-one",
    "duplicated_cas_no": "",
    "SMILES": "C(C(C)=O)C1(O)C=2C(NC1=O)=CC=CC2",
    "meta_data": {
        "InChI": "InChI=1S/C11H11NO3/c1-7(13)6-11(15)8-4-2-3-5-9(8)12-10(11)14/h2-5,15H,6H2,1H3,(H,12,14)",
        "InChIKey": null,
        "Canonical SMILES": "O=C1NC=2C=CC=CC2C1(O)CC(=O)C",
        "Molecular Formula": "C<sub>11</sub>H<sub>11</sub>NO<sub>3</sub>",
        "Molecular Mass": "205.21",
        "Melting Point": "166-167 °C (decomp)"
    }
}