{
    "cas_no": "13103-80-5",
    "key_name": "3′-Hydroxypropiophenone",
    "cn_name": "3\"-羟基苯丙酮;",
    "alternate_name": "1-Propanone, 1-(3-hydroxyphenyl)-;Propiophenone, 3′-hydroxy-;1-(3-Hydroxyphenyl)-1-propanone;3′-Hydroxypropiophenone;<em>m</em>-Hydroxypropiophenone;NSC 63366;(3-Hydroxyphenyl)propan-1-one",
    "duplicated_cas_no": "",
    "SMILES": "C(CC)(=O)C1=CC(O)=CC=C1",
    "meta_data": {
        "InChI": "InChI=1S/C9H10O2/c1-2-9(11)7-4-3-5-8(10)6-7/h3-6,10H,2H2,1H3",
        "InChIKey": null,
        "Canonical SMILES": "O=C(C=1C=CC=C(O)C1)CC",
        "Molecular Formula": "C<sub>9</sub>H<sub>10</sub>O<sub>2</sub>",
        "Molecular Mass": "150.17",
        "Melting Point": "82 °C"
    }
}