{
    "cas_no": "56-06-4",
    "key_name": "2,4-Diamino-6-hydroxypyrimidine",
    "cn_name": "2,4-二氨基-6-羟基嘧啶;",
    "alternate_name": "4(3<em>H</em>)-Pyrimidinone, 2,6-diamino-;4(1<em>H</em>)-Pyrimidinone, 2,6-diamino-;2,6-Diamino-4(3<em>H</em>)-pyrimidinone;2,4-Diamino-6-hydroxypyrimidine;2,6-Diamino-4-pyrimidinol;2,6-Diamino-4-hydroxypyrimidine;6-Hydroxy-2,4-pyrimidinediamine;2,6-Diamino-4(1<em>H</em>)-pyrimidinone;6-Aminoisocytosine;2,6-Diaminopyrimidin-4-one;2,4-Diamino-6-pyrimidinone;NSC 44914;NSC 680818;NSC 9302;2,6-Diamino-3,4-dihydropyrimidin-4-one;6-Hydroxy-2,4-diaminopyrimidine;2,6-Diamino-3<em>H</em>-pyrimidin-4-one;4-Hydroxypyrimidine-2,6-diamine;2,6-Diamino-1,4-dihydropyrimidin-4-one;2,6-Diamino-1<em>H</em>-pyrimidin-4-one",
    "duplicated_cas_no": "40306-60-3;41982-31-4;863767-89-9",
    "SMILES": "NC1=CC(=O)N=C(N)N1",
    "meta_data": {
        "InChI": "InChI=1S/C4H6N4O/c5-2-1-3(9)8-4(6)7-2/h1H,(H5,5,6,7,8,9)",
        "InChIKey": null,
        "Canonical SMILES": "O=C1N=C(N)NC(N)=C1",
        "Molecular Formula": "C<sub>4</sub>H<sub>6</sub>N<sub>4</sub>O",
        "Molecular Mass": "126.12",
        "Melting Point": "286 °C (decomp)"
    }
}