{
    "cas_no": "20260-53-1",
    "key_name": "3-Pyridinecarbonyl chloride, hydrochloride (1:1)",
    "cn_name": "烟酰氯盐酸盐;氯化烟碱盐酸盐 ;盐酸烟酰氯 ;氯化烟碱盐酸盐/烟酰氯 ;",
    "alternate_name": "3-Pyridinecarbonyl chloride, hydrochloride (1:1);Nicotinoyl chloride, hydrochloride;3-Pyridinecarbonyl chloride, hydrochloride;Nicotinic acid chloride hydrochloride",
    "duplicated_cas_no": "",
    "SMILES": "C(Cl)(=O)C=1C=CC=NC1.Cl",
    "meta_data": {
        "InChI": "InChI=1S/C6H4ClNO.ClH/c7-6(9)5-2-1-3-8-4-5;/h1-4H;1H",
        "InChIKey": null,
        "Canonical SMILES": "Cl.O=C(Cl)C=1C=NC=CC1",
        "Molecular Formula": "C<sub>6</sub>H<sub>4</sub>ClNO.ClH",
        "Molecular Mass": "",
        "Melting Point": "164-165 °C"
    }
}