{
    "cas_no": "375-22-4",
    "key_name": "Heptafluorobutyric acid",
    "cn_name": "七氟丁酸;全氟丁酸;",
    "alternate_name": "Butanoic acid, 2,2,3,3,4,4,4-heptafluoro-;Butyric acid, heptafluoro-;Butanoic acid, heptafluoro-;2,2,3,3,4,4,4-Heptafluorobutanoic acid;Perfluorobutyric acid;Heptafluorobutyric acid;Perfluoropropanecarboxylic acid;Heptafluorobutanoic acid;Perfluorobutanoic acid;HFBA;NSC 820;Fluorad FC 23;FC 23;H 0024",
    "duplicated_cas_no": "",
    "SMILES": "C(C(C(O)=O)(F)F)(C(F)(F)F)(F)F",
    "meta_data": {
        "InChI": "InChI=1S/C4HF7O2/c5-2(6,1(12)13)3(7,8)4(9,10)11/h(H,12,13)",
        "InChIKey": null,
        "Canonical SMILES": "O=C(O)C(F)(F)C(F)(F)C(F)(F)F",
        "Molecular Formula": "C<sub>4</sub>HF<sub>7</sub>O<sub>2</sub>",
        "Molecular Mass": "214.04",
        "Boiling Point": "121 °C",
        "Melting Point": "-17.5 °C",
        "Density": "1.651 g/cm³ @ Temp: 20 °C"
    }
}