{
    "cas_no": "622-59-3",
    "key_name": "<em>p</em>-Tolyl isothiocyanate",
    "cn_name": "对甲苯异硫氰酸酯;异硫氰酸对甲苯酯;",
    "alternate_name": "Benzene, 1-isothiocyanato-4-methyl-;Isothiocyanic acid, <em>p</em>-tolyl ester;1-Isothiocyanato-4-methylbenzene;<em>p</em>-Tolyl isothiocyanate;4-Methylphenyl isothiocyanate;<em>p</em>-Methylphenyl isothiocyanate;4-Tolyl isothiocyanate",
    "duplicated_cas_no": "1623724-53-7;1869985-71-6;2124236-46-8",
    "SMILES": "N(=C=S)C1=CC=C(C)C=C1",
    "meta_data": {
        "InChI": "InChI=1S/C8H7NS/c1-7-2-4-8(5-3-7)9-6-10/h2-5H,1H3",
        "InChIKey": null,
        "Canonical SMILES": "S=C=NC1=CC=C(C=C1)C",
        "Molecular Formula": "C<sub>8</sub>H<sub>7</sub>NS",
        "Molecular Mass": "149.21",
        "Boiling Point": "237 °C",
        "Melting Point": "25-26 °C"
    }
}