{
    "cas_no": "41772-23-0",
    "key_name": "1-Naphthalenol, 2-amino-, hydrochloride (1:1)",
    "cn_name": "2-氨基-1-萘酚盐酸盐;",
    "alternate_name": "1-Naphthalenol, 2-amino-, hydrochloride (1:1);1-Naphthalenol, 2-amino-, hydrochloride;1-Naphthol, 2-amino-, hydrochloride;2-Amino-1-naphthol hydrochloride;1-Hydroxy-2-naphthylamine hydrochloride",
    "duplicated_cas_no": "",
    "SMILES": "OC=1C2=C(C=CC1N)C=CC=C2.Cl",
    "meta_data": {
        "InChI": "InChI=1S/C10H9NO.ClH/c11-9-6-5-7-3-1-2-4-8(7)10(9)12;/h1-6,12H,11H2;1H",
        "InChIKey": null,
        "Canonical SMILES": "Cl.OC1=C(N)C=CC=2C=CC=CC21",
        "Molecular Formula": "C<sub>10</sub>H<sub>9</sub>NO.ClH",
        "Molecular Mass": "",
        "Melting Point": "200-202 °C"
    }
}