{
    "cas_no": "36635-61-7",
    "key_name": "Tosylmethyl isocyanide",
    "cn_name": "对甲基苯磺酰甲基异腈;",
    "alternate_name": "Benzene, 1-[(isocyanomethyl)sulfonyl]-4-methyl-;1-[(Isocyanomethyl)sulfonyl]-4-methylbenzene;Tosylmethyl isocyanide;4-Tolylsulfonylmethyl isocyanide;(<em>p</em>-Tolylsulfonyl)methyl isocyanide;<em>p</em>-Toluenesulfonylmethyl isocyanide;<em>p</em>-Tosylmethyl isocyanide;Isocyanomethyl <em>p</em>-tolyl sulfone;4-Toluenesulfonylmethyl isocyanide;TOSMIC;<em>p</em>-Toluenesulfonylmethylisonitrile;<em>p</em>-Tosylmethyl isonitrile;(4-Methylphenylsulfonyl)methyl isocyanide;NSC 631633;1-(Isocyanomethanesulfonyl)-4-methylbenzene;1-Methyl-4-(((isocyano)methyl)sulfonyl)benzene",
    "duplicated_cas_no": "38622-91-2;71146-63-9;1290046-76-2;2546342-38-3",
    "SMILES": "S(C[N+]#[C-])(=O)(=O)C1=CC=C(C)C=C1",
    "meta_data": {
        "InChI": "InChI=1S/C9H9NO2S/c1-8-3-5-9(6-4-8)13(11,12)7-10-2/h3-6H,7H2,1H3",
        "InChIKey": null,
        "Canonical SMILES": "[C-]#[N+]CS(=O)(=O)C1=CC=C(C=C1)C",
        "Molecular Formula": "C<sub>9</sub>H<sub>9</sub>NO<sub>2</sub>S",
        "Molecular Mass": "",
        "Melting Point": "112-113 °C"
    }
}