{
    "cas_no": "5521-31-3",
    "key_name": "Pigment Red 179",
    "cn_name": "颜料红179;N,N\"-二甲基-3,4,9,10-苝四甲酰二亚胺;",
    "alternate_name": "Anthra[2,1,9-<em>def</em>:6,5,10-<em>d</em>'<em>e</em>'<em>f</em>′]diisoquinoline-1,3,8,10(2<em>H</em>,9<em>H</em>)-tetrone, 2,9-dimethyl-;3,4,9,10-Perylenetetracarboxylic 3,4:9,10-diimide, <em>N</em>,<em>N</em>′-dimethyl-;2,9-Dimethylanthra[2,1,9-<em>def</em>:6,5,10-<em>d</em>'<em>e</em>'<em>f</em>′]diisoquinoline-1,3,8,10(2<em>H</em>,9<em>H</em>)-tetrone;C.I. 71130;Caledon Red 2GN;Caledon Red 2G;C.I. Vat Red 23;Indanthren Red GG;Palanthrene Red GG;Ponsol Red YF;Perylene 3,4,9,10-tetracarboxylic acid bis(methylimide);3,4,9,10-Perylenetetracarboxylic 3,4:9,10-bis(<em>N</em>-methylimide);<em>N</em>,<em>N</em>′-Dimethyl-3,4,9,10-perylenetetracarboxylic diimide;<em>N</em>,<em>N</em>′-Dimethylperylene-3,4,9,10-tetracarboxylic 3,4:9,10-diimide;<em>N</em>,<em>N</em>′-Dimethylperylene-3,4,9,10-tetracarboxylic acid diimide;Paliogen Maroon 3920;C.I. Pigment Red 179;Pigment Perylene Bordeaux;Pigment Bordeaux Perylene;Perylene Bordeaux;Variogen Maroon 3920;Paliogen Maroon L 4020;Paliogen Red 4120;Perylene maroon;<em>N</em>,<em>N</em>′-Dimethylperylene-3,4:9,10-bis(dicarboximide);Paliogen Maroon L 3920;Hostaperm Red P 2GL;Indanthrene Red;Perrindo Maroon R 6436;Variogen Maroon L 4020;Paliogen Maroon L 3820;<em>N</em>-Methyl-3,4,9,10-perylenetetracarboxyldiimide;Fastogen Super Maroon PSK;Poliagen Maroon 3920;Pigment Red 179;Paliogen Maroon L 3980;Perrindo Maroon R 6424;Perrindo Maroon 6424;Hostaperm Red P 2GL-WD;2,9-Dimethylantra[2,1,9-<em>def</em>:6,5,10-<em>d</em>'<em>e</em>'<em>f</em>′]diisoquinoline-1,3,8,10-tetrone;Maroon R 6436;Paliogen Red L 4120;Paliogen Red L 3885;<em>N</em>,<em>N</em>′-Dimethylperylenetetracarboxylic bisimide;Sunfast Red 179-229-2179;<em>N</em>,<em>N</em>′-Dimethylperylene-3,4,9,10-dicarboximide;Perylene Maroon R 6436;<em>N</em>,<em>N</em>′-Dimethyl-3,4,9,10-perylenetetracarboximide;Indanthren Red FGL;Hostafine Red P 2GL;Me-PTCDI;Irgazin Red 2273;Irgazin Maroon 3379;Paliogen Red L 3875;Perylene-3,4,9,10-tetracarboxylic acid <em>N</em>,<em>N</em>′-bismethylimide;Paliogenrot 3885;Perrindo Maroon 179R6436-229-6436;Irgazin Red 179;PR 179;Irgazin Red 379;Lumogen Black FK 4280;Perrindo Maroon 179-229-6438;Perrind Maroon 179-229-6440;C.I. PR 179;Lumogen FK 4280;Black FK 4280;L 3920;Perrind Maroon 179-229-6438;Perrindo Maroon 179-229-8801;Hostatint Red A-P 2Y;Maroon 179 229-6438;Perrindo Maroon 179;DTXSID9029273;Lumogen Black Presentation 2J",
    "duplicated_cas_no": "51731-78-3;52349-09-4;73562-11-5;89900-37-8;136511-24-5;151833-81-7;152950-71-5;167139-79-9;872217-79-3;910615-93-9;948550-43-4;1039727-77-9",
    "SMILES": "O=C1C=2C3=C4C(C=5C=6C(C4=CC2)=CC=C7C6C(=CC5)C(=O)N(C)C7=O)=CC=C3C(=O)N1C",
    "meta_data": {
        "InChI": "InChI=1S/C26H14N2O4/c1-27-23(29)15-7-3-11-13-5-9-17-22-18(26(32)28(2)25(17)31)10-6-14(20(13)22)12-4-8-16(24(27)30)21(15)19(11)12/h3-10H,1-2H3",
        "InChIKey": null,
        "Canonical SMILES": "O=C1C2=CC=C3C4=CC=C5C(=O)N(C(=O)C6=CC=C(C=7C=CC(C(=O)N1C)=C2C37)C4=C56)C",
        "Molecular Formula": "C<sub>26</sub>H<sub>14</sub>N<sub>2</sub>O<sub>4</sub>",
        "Molecular Mass": "418.40",
        "Melting Point": "207-208 °C"
    }
}