{
    "cas_no": "117-79-3",
    "key_name": "2-Aminoanthraquinone",
    "cn_name": null,
    "alternate_name": "9,10-Anthracenedione, 2-amino-;Anthraquinone, 2-amino-;2-Amino-9,10-anthracenedione;2-Aminoanthraquinone;2-Amino-9,10-anthraquinone;β-Aminoanthraquinone;NSC 5;2-Amino-9,10-dihydroanthracene-9,10-dione;2AAQ",
    "duplicated_cas_no": "",
    "SMILES": "O=C1C=2C(C(=O)C=3C1=CC=CC3)=CC=C(N)C2",
    "meta_data": {
        "InChI": "InChI=1S/C14H9NO2/c15-8-5-6-11-12(7-8)14(17)10-4-2-1-3-9(10)13(11)16/h1-7H,15H2",
        "InChIKey": null,
        "Canonical SMILES": "O=C1C=2C=CC=CC2C(=O)C3=CC(N)=CC=C13",
        "Molecular Formula": "C<sub>14</sub>H<sub>9</sub>NO<sub>2</sub>",
        "Molecular Mass": "223.23",
        "Melting Point": "302 °C"
    }
}