{
    "cas_no": "108853-14-1",
    "key_name": "Moscatilin",
    "cn_name": null,
    "alternate_name": "Phenol, 4-[2-(4-hydroxy-3-methoxyphenyl)ethyl]-2,6-dimethoxy-;4-[2-(4-Hydroxy-3-methoxyphenyl)ethyl]-2,6-dimethoxyphenol;Moscatilin;Dendrophenol;Aloifol II;4-(4-Hydroxy-3-methoxyphenethyl)-2,6-dimethoxyphenol",
    "duplicated_cas_no": "",
    "SMILES": "C(CC1=CC(OC)=C(O)C=C1)C2=CC(OC)=C(O)C(OC)=C2",
    "meta_data": {
        "InChI": "InChI=1S/C17H20O5/c1-20-14-8-11(6-7-13(14)18)4-5-12-9-15(21-2)17(19)16(10-12)22-3/h6-10,18-19H,4-5H2,1-3H3",
        "InChIKey": null,
        "Canonical SMILES": "OC1=CC=C(C=C1OC)CCC2=CC(OC)=C(O)C(OC)=C2",
        "Molecular Formula": "C<sub>17</sub>H<sub>20</sub>O<sub>5</sub>",
        "Molecular Mass": "304.34",
        "Melting Point": "82-83 °C"
    }
}