{
    "cas_no": "7598-91-6",
    "key_name": "Ethyl 5-hydroxy-2-methylindole-3-carboxylate",
    "cn_name": null,
    "alternate_name": "1<em>H</em>-Indole-3-carboxylic acid, 5-hydroxy-2-methyl-, ethyl ester;Indole-3-carboxylic acid, 5-hydroxy-2-methyl-, ethyl ester;3-Ethoxycarbonyl-5-hydroxy-2-methylindole;3-(Ethoxycarbonyl)-2-methyl-5-hydroxyindole;Ethyl 5-hydroxy-2-methyl-1<em>H</em>-indole-3-carboxylate;Ethyl 5-hydroxy-2-methylindole-3-carboxylate;NSC 405600;5-Hydroxy-2-methyl-1<em>H</em>-indole-3-carboxylic acid ethyl ester;2-Methyl-3-carbethoxy-5-hydroxyindole",
    "duplicated_cas_no": "",
    "SMILES": "C(OCC)(=O)C=1C=2C(NC1C)=CC=C(O)C2",
    "meta_data": {
        "InChI": "InChI=1S/C12H13NO3/c1-3-16-12(15)11-7(2)13-10-5-4-8(14)6-9(10)11/h4-6,13-14H,3H2,1-2H3",
        "InChIKey": null,
        "Canonical SMILES": "O=C(OCC)C=1C=2C=C(O)C=CC2NC1C",
        "Molecular Formula": "C<sub>12</sub>H<sub>13</sub>NO<sub>3</sub>",
        "Molecular Mass": "219.24",
        "Melting Point": "205 °C"
    }
}