{
    "cas_no": "5438-07-3",
    "key_name": "2-Amino-2-phenylbutyric acid",
    "cn_name": "2-氨基-2-苯基丁酸;",
    "alternate_name": "Benzeneacetic acid, α-amino-α-ethyl-;Butyric acid, 2-amino-2-phenyl-;α-Amino-α-ethylbenzeneacetic acid;2-Ethyl-2-phenylglycine;NSC 16593;2-Amino-2-phenylbutyric acid;2-Amino-2-phenylbutanoic acid;(±)-2-Amino-2-phenylbutyric acid;<span class=\"text-smallcaps\">DL</span>-2-Amino-2-phenylbutyric acid;2-Azaniumyl-2-phenylbutanoate",
    "duplicated_cas_no": "20318-28-9",
    "SMILES": "C(C(O)=O)(CC)(N)C1=CC=CC=C1",
    "meta_data": {
        "InChI": "InChI=1S/C10H13NO2/c1-2-10(11,9(12)13)8-6-4-3-5-7-8/h3-7H,2,11H2,1H3,(H,12,13)",
        "InChIKey": null,
        "Canonical SMILES": "O=C(O)C(N)(C=1C=CC=CC1)CC",
        "Molecular Formula": "C<sub>10</sub>H<sub>13</sub>NO<sub>2</sub>",
        "Molecular Mass": "179.22",
        "Melting Point": "275 °C"
    }
}