{
    "cas_no": "1199-46-8",
    "key_name": "2-Amino-4-<em>tert</em>-butylphenol",
    "cn_name": "2-氨基-4-叔丁基酚;",
    "alternate_name": "Phenol, 2-amino-4-(1,1-dimethylethyl)-;Phenol, 2-amino-4-<em>tert</em>-butyl-;2-Amino-4-(1,1-dimethylethyl)phenol;2-Amino-4-<em>tert</em>-butylphenol;5-<em>tert</em>-Butyl-2-hydroxyaniline;4-<em>tert</em>-Butyl-2-aminophenol;<em>o</em>-Amino-<em>p</em>-<em>tert</em>-butylphenol;2-Amino-<em>4</em>-<em>t</em>-butylphenol;NSC 23803;2-Hydroxy-5-<em>tert</em>-butylaniline",
    "duplicated_cas_no": "",
    "SMILES": "C(C)(C)(C)C1=CC(N)=C(O)C=C1",
    "meta_data": {
        "InChI": "InChI=1S/C10H15NO/c1-10(2,3)7-4-5-9(12)8(11)6-7/h4-6,12H,11H2,1-3H3",
        "InChIKey": null,
        "Canonical SMILES": "OC1=CC=C(C=C1N)C(C)(C)C",
        "Molecular Formula": "C<sub>10</sub>H<sub>15</sub>NO",
        "Molecular Mass": "165.23",
        "Melting Point": "161 °C"
    }
}