{
    "cas_no": "13726-67-5",
    "key_name": "<em>N</em>-<em>tert</em>-Butoxycarbonyl-<span class=\"text-smallcaps\">L</span>-aspartic acid",
    "cn_name": "Boc-L-天冬氨酸;N-叔丁氧羰基-L-天冬氨酸;",
    "alternate_name": "<span class=\"text-smallcaps\">L</span>-Aspartic acid, <em>N</em>-[(1,1-dimethylethoxy)carbonyl]-;Aspartic acid, <em>N</em>-carboxy-, <em>N</em>-<em>tert</em>-butyl ester, <span class=\"text-smallcaps\">L</span>-;Aspartic acid, <em>N</em>-carboxy-, <em>N</em>-<em>tert</em>-butyl ester;<em>N</em>-[(1,1-Dimethylethoxy)carbonyl]-<span class=\"text-smallcaps\">L</span>-aspartic acid;<em>N</em><sup>α</sup>-(<em>tert</em>-Butyloxycarbonyl)aspartic acid;<em>N</em>-<em>tert</em>-Butoxycarbonyl-<span class=\"text-smallcaps\">L</span>-aspartic acid;<em>N</em>-(<em>tert</em>-Butoxycarbonyl)aspartic acid;<em>N</em>-<em>tert</em>-Butyloxycarbonyl-<span class=\"text-smallcaps\">L</span>-aspartic acid;<em>N</em>-Boc-<span class=\"text-smallcaps\">L</span>-aspartic acid;NSC 186910;Boc-<span class=\"text-smallcaps\">L</span>-aspartic acid;(2S)-2-[(2-Methylpropan-2-yl)oxycarbonylamino]butanedioic acid;(2S)-2-[[(<em>tert</em>-Butoxy)carbonyl]amino]butanedioic acid",
    "duplicated_cas_no": "",
    "SMILES": "[C@H](NC(OC(C)(C)C)=O)(CC(O)=O)C(O)=O",
    "meta_data": {
        "InChI": "InChI=1S/C9H15NO6/c1-9(2,3)16-8(15)10-5(7(13)14)4-6(11)12/h5H,4H2,1-3H3,(H,10,15)(H,11,12)(H,13,14)/t5-/m0/s1",
        "InChIKey": null,
        "Canonical SMILES": "O=C(OC(C)(C)C)NC(C(=O)O)CC(=O)O",
        "Molecular Formula": "C<sub>9</sub>H<sub>15</sub>NO<sub>6</sub>",
        "Molecular Mass": "233.22",
        "Melting Point": "175-176 °C"
    }
}