{
    "cas_no": "16225-26-6",
    "key_name": "3,5-Bis(1,1-dimethylethyl)benzoic acid",
    "cn_name": "3,5-二叔丁基苯甲酸;",
    "alternate_name": "Benzoic acid, 3,5-bis(1,1-dimethylethyl)-;Benzoic acid, 3,5-di-<em>tert</em>-butyl-;3,5-Bis(1,1-dimethylethyl)benzoic acid;3,5-Di-<em>tert</em>-butylbenzoic acid;3,5-Ditert-butylbenzoic acid",
    "duplicated_cas_no": "",
    "SMILES": "C(C)(C)(C)C1=CC(C(C)(C)C)=CC(C(O)=O)=C1",
    "meta_data": {
        "InChI": "InChI=1S/C15H22O2/c1-14(2,3)11-7-10(13(16)17)8-12(9-11)15(4,5)6/h7-9H,1-6H3,(H,16,17)",
        "InChIKey": null,
        "Canonical SMILES": "O=C(O)C=1C=C(C=C(C1)C(C)(C)C)C(C)(C)C",
        "Molecular Formula": "C<sub>15</sub>H<sub>22</sub>O<sub>2</sub>",
        "Molecular Mass": "234.33",
        "Melting Point": "172.6-173.0 °C"
    }
}