{
    "cas_no": "198904-31-3",
    "key_name": "Atazanavir",
    "cn_name": "阿扎那韦;",
    "alternate_name": "2,5,6,10,13-Pentaazatetradecanedioic acid, 3,12-bis(1,1-dimethylethyl)-8-hydroxy-4,11-dioxo-9-(phenylmethyl)-6-[[4-(2-pyridinyl)phenyl]methyl]-, 1,14-dimethyl ester, (3<em>S</em>,8<em>S</em>,9<em>S</em>,12<em>S</em>)-;2,5,6,10,13-Pentaazatetradecanedioic acid, 3,12-bis(1,1-dimethylethyl)-8-hydroxy-4,11-dioxo-9-(phenylmethyl)-6-[[4-(2-pyridinyl)phenyl]methyl]-, dimethyl ester, [3<em>S</em>-(3<em>R</em>*,8<em>R</em>*,9<em>R</em>*,12<em>R</em>*)]-;2,5,6,10,13-Pentaazatetradecanedioic acid, 3,12-bis(1,1-dimethylethyl)-8-hydroxy-4,11-dioxo-9-(phenylmethyl)-6-[[4-(2-pyridinyl)phenyl]methyl]-, dimethyl ester, (3<em>S</em>,8<em>S</em>,9<em>S</em>,12<em>S</em>)-;1,14-Dimethyl (3<em>S</em>,8<em>S</em>,9<em>S</em>,12<em>S</em>)-3,12-bis(1,1-dimethylethyl)-8-hydroxy-4,11-dioxo-9-(phenylmethyl)-6-[[4-(2-pyridinyl)phenyl]methyl]-2,5,6,10,13-pentaazatetradecanedioate;CGP 73547;BMS 232632;Atazanavir",
    "duplicated_cas_no": "",
    "SMILES": "N(CC1=CC=C(C=C1)C2=CC=CC=N2)(C[C@@H]([C@H](CC3=CC=CC=C3)NC([C@@H](NC(OC)=O)[C@](C)(C)C)=O)O)NC([C@@H](NC(OC)=O)[C@](C)(C)C)=O",
    "meta_data": {
        "InChI": "InChI=1S/C38H52N6O7/c1-37(2,3)31(41-35(48)50-7)33(46)40-29(22-25-14-10-9-11-15-25)30(45)24-44(43-34(47)32(38(4,5)6)42-36(49)51-8)23-26-17-19-27(20-18-26)28-16-12-13-21-39-28/h9-21,29-32,45H,22-24H2,1-8H3,(H,40,46)(H,41,48)(H,42,49)(H,43,47)/t29-,30-,31+,32+/m0/s1",
        "InChIKey": null,
        "Canonical SMILES": "O=C(OC)NC(C(=O)NN(CC=1C=CC(=CC1)C2=NC=CC=C2)CC(O)C(NC(=O)C(NC(=O)OC)C(C)(C)C)CC=3C=CC=CC3)C(C)(C)C",
        "Molecular Formula": "C<sub>38</sub>H<sub>52</sub>N<sub>6</sub>O<sub>7</sub>",
        "Molecular Mass": "704.86",
        "Melting Point": "198-200 °C"
    }
}