{
    "cas_no": "74-55-5",
    "key_name": "(+)-Ethambutol",
    "cn_name": "乙胺丁醇;",
    "alternate_name": "1-Butanol, 2,2′-(1,2-ethanediyldiimino)bis-, (2<em>S</em>,2′<em>S</em>)-;1-Butanol, 2,2′-(ethylenediimino)di-, (+)-;1-Butanol, 2,2′-(1,2-ethanediyldiimino)bis-, [<em>S</em>-(<em>R</em>*,<em>R</em>*)]-;(2<em>S</em>,2′<em>S</em>)-2,2′-(1,2-Ethanediyldiimino)bis[1-butanol];Ethambutol;<em>d</em>-2,2′-(Ethylenediimino)di-1-butanol;<em>d</em>-Ethambutol;<em>d</em>-2,2′-(Ethylenediimino)bis(1-butanol);Diambutol;(+)-<em>N</em>,<em>N</em>′-Bis[1-(hydroxymethyl)propyl]ethylenediamine;<em>d</em>-<em>N</em>,<em>N</em>′-Bis(1-hydroxymethylpropyl)ethylenediamine;EMB;(+)-Ethambutol;(+)-<em>S</em>,<em>S</em>-Ethambutol;Etambutol;(2<em>S</em>,7<em>S</em>)-2,7-Diethyl-3,6-diazaoctane-1,8-diol;Purderal;(<em>S</em>,<em>S</em>)-Ethambutol;MeSH ID: D004977",
    "duplicated_cas_no": "",
    "SMILES": "[C@H](NCCN[C@@H](CC)CO)(CC)CO",
    "meta_data": {
        "InChI": "InChI=1S/C10H24N2O2/c1-3-9(7-13)11-5-6-12-10(4-2)8-14/h9-14H,3-8H2,1-2H3/t9-,10-/m0/s1",
        "InChIKey": null,
        "Canonical SMILES": "OCC(NCCNC(CO)CC)CC",
        "Molecular Formula": "C<sub>10</sub>H<sub>24</sub>N<sub>2</sub>O<sub>2</sub>",
        "Molecular Mass": "204.31",
        "Melting Point": "87.5-88.8 °C"
    }
}