{
    "cas_no": "78-76-2",
    "key_name": "2-Bromobutane",
    "cn_name": "2-溴丁烷;",
    "alternate_name": "Butane, 2-bromo-;2-Bromobutane;<em>sec</em>-Butyl bromide;Methylethylbromomethane;2-Butyl bromide;(±)-<em>sec</em>-Butyl bromide;(±)-2-Bromobutane;NSC 8417",
    "duplicated_cas_no": "5787-31-5",
    "SMILES": "C(CC)(Br)C",
    "meta_data": {
        "InChI": "InChI=1S/C4H9Br/c1-3-4(2)5/h4H,3H2,1-2H3",
        "InChIKey": null,
        "Canonical SMILES": "BrC(C)CC",
        "Molecular Formula": "C<sub>4</sub>H<sub>9</sub>Br",
        "Molecular Mass": "137.02",
        "Boiling Point": "91.2 °C",
        "Melting Point": "-112 °C",
        "Density": "1.2425 g/cm³ @ Temp: 25 °C"
    }
}