{
    "cas_no": "149-73-5",
    "key_name": "Trimethyl orthoformate",
    "cn_name": "原甲酸三甲酯;",
    "alternate_name": "Methane, trimethoxy-;Orthoformic acid, trimethyl ester;Trimethoxymethane;Methyl orthoformate;Trimethyl orthoformate;Orthoformic acid methyl ester;Methoxymethylal;NSC 147479;Perma-Flo OF;OFM;TMOF",
    "duplicated_cas_no": "251301-35-6",
    "SMILES": "C(OC)(OC)OC",
    "meta_data": {
        "InChI": "InChI=1S/C4H10O3/c1-5-4(6-2)7-3/h4H,1-3H3",
        "InChIKey": null,
        "Canonical SMILES": "O(C)C(OC)OC",
        "Molecular Formula": "C<sub>4</sub>H<sub>10</sub>O<sub>3</sub>",
        "Molecular Mass": "106.12",
        "Boiling Point": "100.6 °C @ Press: 760 Torr",
        "Melting Point": "15 °C",
        "Density": "0.9676 g/cm³ @ Temp: 20 °C"
    }
}