{
    "cas_no": "53882-12-5",
    "key_name": "Lodoxamide",
    "cn_name": null,
    "alternate_name": "Acetic acid, 2,2′-[(2-chloro-5-cyano-1,3-phenylene)diimino]bis[2-oxo-;2,2′-[(2-Chloro-5-cyano-1,3-phenylene)diimino]bis[2-oxoacetic acid];Lodoxamide;Thilomide;2,2′-((2-chloro-5-cyano-1,3-phenylene)bis(azanediyl))bis(2-oxoacetic acid);2-[2-Chloro-5-cyano-3-(oxaloamino)anilino]-2-oxoacetic acid",
    "duplicated_cas_no": "",
    "SMILES": "N(C(C(O)=O)=O)C1=C(Cl)C(NC(C(O)=O)=O)=CC(C#N)=C1",
    "meta_data": {
        "InChI": "InChI=1S/C11H6ClN3O6/c12-7-5(14-8(16)10(18)19)1-4(3-13)2-6(7)15-9(17)11(20)21/h1-2H,(H,14,16)(H,15,17)(H,18,19)(H,20,21)",
        "InChIKey": null,
        "Canonical SMILES": "N#CC=1C=C(NC(=O)C(=O)O)C(Cl)=C(C1)NC(=O)C(=O)O",
        "Molecular Formula": "C<sub>11</sub>H<sub>6</sub>ClN<sub>3</sub>O<sub>6</sub>",
        "Molecular Mass": "311.63",
        "Melting Point": "212 °C (decomp)"
    }
}