{
    "cas_no": "2550-06-3",
    "key_name": "(3-Chloropropyl)trichlorosilane",
    "cn_name": "3-氯丙基三氯硅烷;",
    "alternate_name": "Silane, trichloro(3-chloropropyl)-;Trichloro(3-chloropropyl)silane;(γ-Chloropropyl)trichlorosilane;(3-Chloropropyl)trichlorosilane;NSC 139831;1-Chloro-3-(trichlorosilyl)propane",
    "duplicated_cas_no": "",
    "SMILES": "C([Si](Cl)(Cl)Cl)CCCl",
    "meta_data": {
        "InChI": "InChI=1S/C3H6Cl4Si/c4-2-1-3-8(5,6)7/h1-3H2",
        "InChIKey": null,
        "Canonical SMILES": "ClCCC[Si](Cl)(Cl)Cl",
        "Molecular Formula": "C<sub>3</sub>H<sub>6</sub>Cl<sub>4</sub>Si",
        "Molecular Mass": "211.98",
        "Boiling Point": "181.5 °C",
        "Density": "1.359 g/cm³"
    }
}