{
    "cas_no": "20191-75-7",
    "key_name": "1-Bromo-2-naphthalenamine",
    "cn_name": null,
    "alternate_name": "2-Naphthalenamine, 1-bromo-;2-Naphthylamine, 1-bromo-;1-Bromo-2-naphthalenamine;2-Amino-1-bromonaphthalene;1-Bromo-2-naphthylamine;1-Bromo-β-naphthylamine;1-Bromo-2-aminonaphthalene;1-Bromonaphthalen-2-amine",
    "duplicated_cas_no": "145611-71-8",
    "SMILES": "BrC=1C2=C(C=CC1N)C=CC=C2",
    "meta_data": {
        "InChI": "InChI=1S/C10H8BrN/c11-10-8-4-2-1-3-7(8)5-6-9(10)12/h1-6H,12H2",
        "InChIKey": null,
        "Canonical SMILES": "BrC1=C(N)C=CC=2C=CC=CC21",
        "Molecular Formula": "C<sub>10</sub>H<sub>8</sub>BrN",
        "Molecular Mass": "222.08",
        "Melting Point": "63-64 °C"
    }
}