{
    "cas_no": "4066-41-5",
    "key_name": "5-Acetyl-2-thiophenecarboxylic acid",
    "cn_name": "5-乙酰基噻吩-2-羧酸;",
    "alternate_name": "2-Thiophenecarboxylic acid, 5-acetyl-;5-Acetyl-2-thiophenecarboxylic acid;5-Carboxy-2-acetylthiophene",
    "duplicated_cas_no": "",
    "SMILES": "C(C)(=O)C=1SC(C(O)=O)=CC1",
    "meta_data": {
        "InChI": "InChI=1S/C7H6O3S/c1-4(8)5-2-3-6(11-5)7(9)10/h2-3H,1H3,(H,9,10)",
        "InChIKey": null,
        "Canonical SMILES": "O=C(O)C=1SC(=CC1)C(=O)C",
        "Molecular Formula": "C<sub>7</sub>H<sub>6</sub>O<sub>3</sub>S",
        "Molecular Mass": "170.19",
        "Melting Point": "142-143 °C"
    }
}