{
    "cas_no": "108-80-5",
    "key_name": "Cyanuric acid",
    "cn_name": "氰尿酸;三聚氰酸;2,4,6-三羟基-1,3,5-三嗪;",
    "alternate_name": "1,3,5-Triazine-2,4,6(1<em>H</em>,3<em>H</em>,5<em>H</em>)-trione;Isocyanuric acid;<em>s</em>-Triazine-2,4,6(1<em>H</em>,3<em>H</em>,5<em>H</em>)-trione;Cyanuric acid;Tricyanic acid;Trihydroxycyanidine;2,4,6-Trihydroxy-1,3,5-triazine;<em>s</em>-Triazine-2,4,6-triol;Pseudocyanuric acid;2,4,6-Trihydroxy-<em>s</em>-triazine;2,4,6-Trioxohexahydro-1,3,5-triazine;5-Azabarbituric acid;ICA-P;1,3,5-Triazine-2,4,6-trione;NSC 6284;1,3,5-Triazine-2,4,6-triol;[1,3,5]Triazine-2,4,6-triol",
    "duplicated_cas_no": "134016-52-7;504-19-8;273203-07-9",
    "SMILES": "O=C1NC(=O)NC(=O)N1",
    "meta_data": {
        "InChI": "InChI=1S/C3H3N3O3/c7-1-4-2(8)6-3(9)5-1/h(H3,4,5,6,7,8,9)",
        "InChIKey": null,
        "Canonical SMILES": "O=C1NC(=O)NC(=O)N1",
        "Molecular Formula": "C<sub>3</sub>H<sub>3</sub>N<sub>3</sub>O<sub>3</sub>",
        "Molecular Mass": "129.07",
        "Melting Point": "360 °C",
        "Density": "2.500 g/cm³ @ Temp: 20 °C"
    }
}