{
    "cas_no": "1124-63-6",
    "key_name": "3-Cyclohexyl-1-propanol",
    "cn_name": "3-环己基-1-丙醇;",
    "alternate_name": "Cyclohexanepropanol;3-Cyclohexyl-1-propanol;3-Cyclohexylpropyl alcohol;3-Cyclohexylpropanol;NSC 20787",
    "duplicated_cas_no": "",
    "SMILES": "C(CCO)C1CCCCC1",
    "meta_data": {
        "InChI": "InChI=1S/C9H18O/c10-8-4-7-9-5-2-1-3-6-9/h9-10H,1-8H2",
        "InChIKey": null,
        "Canonical SMILES": "OCCCC1CCCCC1",
        "Molecular Formula": "C<sub>9</sub>H<sub>18</sub>O",
        "Molecular Mass": "142.24",
        "Boiling Point": "105-106 °C @ Press: 10 Torr",
        "Density": "0.937 g/cm³ @ Temp: 25 °C"
    }
}