{
    "cas_no": "35146-32-8",
    "key_name": "1-(Triphenylmethyl)-<span class=\"text-smallcaps\">L</span>-histidine",
    "cn_name": null,
    "alternate_name": "<span class=\"text-smallcaps\">L</span>-Histidine, 1-(triphenylmethyl)-;1-(Triphenylmethyl)-<span class=\"text-smallcaps\">L</span>-histidine;(<em>S</em>)-2-Amino-3-(1-trityl-1<em>H</em>-imidazol-4-yl)propanoic acid",
    "duplicated_cas_no": "",
    "SMILES": "C(N1C=C(C[C@@H](C(O)=O)N)N=C1)(C2=CC=CC=C2)(C3=CC=CC=C3)C4=CC=CC=C4",
    "meta_data": {
        "InChI": "InChI=1S/C25H23N3O2/c26-23(24(29)30)16-22-17-28(18-27-22)25(19-10-4-1-5-11-19,20-12-6-2-7-13-20)21-14-8-3-9-15-21/h1-15,17-18,23H,16,26H2,(H,29,30)/t23-/m0/s1",
        "InChIKey": null,
        "Canonical SMILES": "O=C(O)C(N)CC=1N=CN(C1)C(C=2C=CC=CC2)(C=3C=CC=CC3)C=4C=CC=CC4",
        "Molecular Formula": "C<sub>25</sub>H<sub>23</sub>N<sub>3</sub>O<sub>2</sub>",
        "Molecular Mass": "397.47",
        "Melting Point": "221 °C"
    }
}