{
    "cas_no": "1360-76-5",
    "key_name": "Ranaconitine",
    "cn_name": null,
    "alternate_name": "Aconitane-4,7,8,9-tetrol, 20-ethyl-1,14,16-trimethoxy-, 4-[2-(acetylamino)benzoate], (1α,14α,16β)-;Ranaconitine;2<em>H</em>-12,3,6a-Ethanylylidene-7,9-methanonaphth[2,3-<em>b</em>]azocine, aconitane-4,7,8,9-tetrol deriv.;7-Hydroxylappaconitine",
    "duplicated_cas_no": "",
    "SMILES": "O(C)[C@@H]1[C@]23[C@]4([C@](O)(C[C@@]2([C@](OC(=O)C5=C(NC(C)=O)C=CC=C5)(CN4CC)CC1)[H])[C@]6(O)[C@]7(O)[C@]3(C[C@@]([C@@H]7OC)([C@@H](OC)C6)[H])[H])[H]",
    "meta_data": {
        "InChI": "InChI=1S/C32H44N2O9/c1-6-34-16-28(43-26(36)18-9-7-8-10-20(18)33-17(2)35)12-11-24(41-4)31-22-13-19-21(40-3)14-30(38,32(22,39)25(19)42-5)29(37,27(31)34)15-23(28)31/h7-10,19,21-25,27,37-39H,6,11-16H2,1-5H3,(H,33,35)/t19-,21+,22+,23-,24+,25+,27-,28-,29-,30+,31-,32+/m1/s1",
        "InChIKey": null,
        "Canonical SMILES": "O=C(OC12CN(CC)C3C4(O)CC1C3(C(OC)CC2)C5CC6C(OC)CC4(O)C5(O)C6OC)C=7C=CC=CC7NC(=O)C",
        "Molecular Formula": "C<sub>32</sub>H<sub>44</sub>N<sub>2</sub>O<sub>9</sub>",
        "Molecular Mass": "600.70",
        "Melting Point": "132-134 °C"
    }
}