{
    "cas_no": "15250-41-6",
    "key_name": "<em>N</em>,<em>N</em>′-[(1<em>S</em>)-1-Methyl-1,2-ethanediyl]bis[<em>N</em>-(carboxymethyl)glycine]",
    "cn_name": "(S)-(+)-1,2-丙二胺-N,N,N\",N\"-四乙酸;",
    "alternate_name": "Glycine, <em>N</em>,<em>N</em>′-[(1<em>S</em>)-1-methyl-1,2-ethanediyl]bis[<em>N</em>-(carboxymethyl)-;Acetic acid, (propylenedinitrilo)tetra-, (+)-;Glycine, <em>N</em>,<em>N</em>′-(1-methyl-1,2-ethanediyl)bis[<em>N</em>-(carboxymethyl)-, (<em>S</em>)-;<em>N</em>,<em>N</em>′-[(1<em>S</em>)-1-Methyl-1,2-ethanediyl]bis[<em>N</em>-(carboxymethyl)glycine];(+)-1,2-Diaminopropanetetraacetic acid;<em>d</em>-1,2-Diaminopropanetetraacetic acid;(<em>S</em>)-PDTA",
    "duplicated_cas_no": "",
    "SMILES": "N([C@H](CN(CC(O)=O)CC(O)=O)C)(CC(O)=O)CC(O)=O",
    "meta_data": {
        "InChI": "InChI=1S/C11H18N2O8/c1-7(13(5-10(18)19)6-11(20)21)2-12(3-8(14)15)4-9(16)17/h7H,2-6H2,1H3,(H,14,15)(H,16,17)(H,18,19)(H,20,21)/t7-/m0/s1",
        "InChIKey": null,
        "Canonical SMILES": "O=C(O)CN(CC(=O)O)CC(N(CC(=O)O)CC(=O)O)C",
        "Molecular Formula": "C<sub>11</sub>H<sub>18</sub>N<sub>2</sub>O<sub>8</sub>",
        "Molecular Mass": "306.27",
        "Melting Point": "199-201 °C"
    }
}