{
    "cas_no": "7640-33-7",
    "key_name": "5-Chloro-7-bromo-8-hydroxyquinoline",
    "cn_name": "7-溴-5-氯-8-羟基喹啉;",
    "alternate_name": "8-Quinolinol, 7-bromo-5-chloro-;7-Bromo-5-chloro-8-quinolinol;5-Chloro-7-bromo-8-quinolinol;7-Bromo-5-chloro-8-hydroxyquinoline;5-Chloro-7-bromo-8-hydroxyquinoline",
    "duplicated_cas_no": "",
    "SMILES": "OC=1C2=C(C(Cl)=CC1Br)C=CC=N2",
    "meta_data": {
        "InChI": "InChI=1S/C9H5BrClNO/c10-6-4-7(11)5-2-1-3-12-8(5)9(6)13/h1-4,13H",
        "InChIKey": null,
        "Canonical SMILES": "ClC=1C=C(Br)C(O)=C2N=CC=CC12",
        "Molecular Formula": "C<sub>9</sub>H<sub>5</sub>BrClNO",
        "Molecular Mass": "258.50",
        "Melting Point": "177-178 °C"
    }
}