{
    "cas_no": "119-60-8",
    "key_name": "Cyclohexyl ketone",
    "cn_name": "二环己基甲酮;",
    "alternate_name": "Methanone, dicyclohexyl-;Cyclohexyl ketone;Dicyclohexylmethanone;Dicyclohexyl ketone;Bicyclohexyl ketone;NSC 49725;NSC 60007",
    "duplicated_cas_no": "",
    "SMILES": "C(=O)(C1CCCCC1)C2CCCCC2",
    "meta_data": {
        "InChI": "InChI=1S/C13H22O/c14-13(11-7-3-1-4-8-11)12-9-5-2-6-10-12/h11-12H,1-10H2",
        "InChIKey": null,
        "Canonical SMILES": "O=C(C1CCCCC1)C2CCCCC2",
        "Molecular Formula": "C<sub>13</sub>H<sub>22</sub>O",
        "Molecular Mass": "194.31",
        "Boiling Point": "159 °C @ Press: 20 Torr",
        "Melting Point": "61 °C",
        "Density": "0.986 g/cm³ @ Temp: 0 °C"
    }
}