{
    "cas_no": "758-96-3",
    "key_name": "<em>N</em>,<em>N</em>-Dimethylpropionamide",
    "cn_name": "N,N-二甲基丙酰胺;",
    "alternate_name": "Propanamide, <em>N</em>,<em>N</em>-dimethyl-;Propionamide, <em>N</em>,<em>N</em>-dimethyl-;<em>N</em>,<em>N</em>-Dimethylpropanamide;<em>N</em>,<em>N</em>-Dimethylpropionamide;DMP;<em>N</em>,<em>N</em>-Di-methyl-3-propanamide",
    "duplicated_cas_no": "",
    "SMILES": "C(N(C)C)(CC)=O",
    "meta_data": {
        "InChI": "InChI=1S/C5H11NO/c1-4-5(7)6(2)3/h4H2,1-3H3",
        "InChIKey": null,
        "Canonical SMILES": "O=C(N(C)C)CC",
        "Molecular Formula": "C<sub>5</sub>H<sub>11</sub>NO",
        "Molecular Mass": "101.15",
        "Boiling Point": "174.5 °C",
        "Melting Point": "-45 °C",
        "Density": "0.9429 g/cm³ @ Temp: 0 °C"
    }
}