{
    "cas_no": "1004-75-7",
    "key_name": "4-Hydroxy-2,5,6-triaminopyrimidine",
    "cn_name": null,
    "alternate_name": "4(3<em>H</em>)-Pyrimidinone, 2,5,6-triamino-;4(1<em>H</em>)-Pyrimidinone, 2,5,6-triamino-;4-Pyrimidinol, 2,5,6-triamino-;2,5,6-Triamino-4(3<em>H</em>)-pyrimidinone;6-Hydroxy-2,4,5-triaminopyrimidine;2,4,5-Triamino-6-hydroxypyrimidine;2,5,6-Triamino-4-pyrimidinol;2,4,5-Triaminopyrimidin-6(1<em>H</em>)-one;2,4,5-Triamino-6-pyrimidinol;2,5,6-Triamino-4-oxopyrimidine;2,5,6-Triamino-4-pyrimidinone;4-Hydroxy-2,5,6-triaminopyrimidine;2,5,6-Triaminopyrimidin-4(3<em>H</em>)-one;2,5,6-Triaminopyrimidin-4(1<em>H</em>)-one;2,5,6-Triamino-4(1<em>H</em>)-pyrimidone;NSC 9313;2,5,6-Triamino-4-hydroxypyrimidine;2,5,6-Triamino-3,4-dihydro-4-pyrimidinone;2,5,6-Triamino-1<em>H</em>-pyrimidin-4-one;2,5,6-Triamino-1,4-dihydropyrimidin-4-one;2,5,6-Triamino-3,4-dihydropyrimidin-4-one",
    "duplicated_cas_no": "",
    "SMILES": "NC1=C(N)NC(N)=NC1=O",
    "meta_data": {
        "InChI": "InChI=1S/C4H7N5O/c5-1-2(6)8-4(7)9-3(1)10/h5H2,(H5,6,7,8,9,10)",
        "InChIKey": null,
        "Canonical SMILES": "O=C1N=C(N)NC(N)=C1N",
        "Molecular Formula": "C<sub>4</sub>H<sub>7</sub>N<sub>5</sub>O",
        "Molecular Mass": "141.13",
        "Melting Point": "242 °C (decomp)"
    }
}