{
    "cas_no": "85547-22-4",
    "key_name": "8,9-Dimethoxy-1<em>H</em>-benzo[<em>de</em>][1,6]naphthyridine",
    "cn_name": null,
    "alternate_name": "1<em>H</em>-Benzo[<em>de</em>][1,6]naphthyridine, 8,9-dimethoxy-;8,9-Dimethoxy-1<em>H</em>-benzo[<em>de</em>][1,6]naphthyridine;Aaptamine",
    "duplicated_cas_no": "",
    "SMILES": "O(C)C1=C2C3=C(C=C1OC)C=CN=C3C=CN2",
    "meta_data": {
        "InChI": "InChI=1S/C13H12N2O2/c1-16-10-7-8-3-5-14-9-4-6-15-12(11(8)9)13(10)17-2/h3-7,15H,1-2H3",
        "InChIKey": null,
        "Canonical SMILES": "N1=CC=C2C=C(OC)C(OC)=C3NC=CC1=C23",
        "Molecular Formula": "C<sub>13</sub>H<sub>12</sub>N<sub>2</sub>O<sub>2</sub>",
        "Molecular Mass": "228.25",
        "Melting Point": "110-112 °C"
    }
}