{
    "cas_no": "2675-79-8",
    "key_name": "1-Bromo-3,4,5-trimethoxybenzene",
    "cn_name": "1-溴-3,4,5-三甲氧基苯;3,4,5-三甲氧基溴苯;",
    "alternate_name": "Benzene, 5-bromo-1,2,3-trimethoxy-;5-Bromo-1,2,3-trimethoxybenzene;5-Bromopyrogallol trimethyl ether;3,4,5-Trimethoxybromobenzene;3,4,5-Trimethoxyphenyl bromide;1-Bromo-3,4,5-trimethoxybenzene;3,4,5-Trimethoxy-1-bromobenzene;1,2,3-Trimethoxy-5-bromobenzene",
    "duplicated_cas_no": "",
    "SMILES": "O(C)C1=C(OC)C=C(Br)C=C1OC",
    "meta_data": {
        "InChI": "InChI=1S/C9H11BrO3/c1-11-7-4-6(10)5-8(12-2)9(7)13-3/h4-5H,1-3H3",
        "InChIKey": null,
        "Canonical SMILES": "BrC=1C=C(OC)C(OC)=C(OC)C1",
        "Molecular Formula": "C<sub>9</sub>H<sub>11</sub>BrO<sub>3</sub>",
        "Molecular Mass": "247.09",
        "Melting Point": "78-79 °C"
    }
}