{
    "cas_no": "70006-24-5",
    "key_name": "2-[[4-(2-Pyridinyl)-1-piperazinyl]methyl]-1<em>H</em>-benzimidazole",
    "cn_name": null,
    "alternate_name": "1<em>H</em>-Benzimidazole, 2-[[4-(2-pyridinyl)-1-piperazinyl]methyl]-;2-[[4-(2-Pyridinyl)-1-piperazinyl]methyl]-1<em>H</em>-benzimidazole;2-[[4-(Pyridin-2-yl)piperazin-1-yl]methyl]-1<em>H</em>-benzimidazole;ABT 724;2-[[4-(Pyridin-2-yl)piperazin-1-yl]methyl]-1<em>H</em>-1,3-benzodiazole",
    "duplicated_cas_no": "",
    "SMILES": "C(C=1NC=2C(N1)=CC=CC2)N3CCN(CC3)C4=CC=CC=N4",
    "meta_data": {
        "InChI": "InChI=1S/C17H19N5/c1-2-6-15-14(5-1)19-16(20-15)13-21-9-11-22(12-10-21)17-7-3-4-8-18-17/h1-8H,9-13H2,(H,19,20)",
        "InChIKey": null,
        "Canonical SMILES": "N=1C=CC=CC1N2CCN(CC3=NC=4C=CC=CC4N3)CC2",
        "Molecular Formula": "C<sub>17</sub>H<sub>19</sub>N<sub>5</sub>",
        "Molecular Mass": "293.37",
        "Melting Point": "220-221 °C"
    }
}