{
    "cas_no": "768-70-7",
    "key_name": "3-Methoxyphenylacetylene",
    "cn_name": "3-乙炔基苯甲醚;",
    "alternate_name": "Benzene, 1-ethynyl-3-methoxy-;Anisole, <em>m</em>-ethynyl-;1-Ethynyl-3-methoxybenzene;<em>m</em>-Methoxyphenylacetylene;<em>m</em>-Ethynylanisole;3-Methoxyphenylacetylene;3-Ethynylanisole;<em>m</em>-Methoxyphenylethyne;3-Methoxyphenylethyne;<em>m</em>-Anisylacetylene;1-Methoxy-3-ethynylbenzene",
    "duplicated_cas_no": "",
    "SMILES": "C(#C)C1=CC(OC)=CC=C1",
    "meta_data": {
        "InChI": "InChI=1S/C9H8O/c1-3-8-5-4-6-9(7-8)10-2/h1,4-7H,2H3",
        "InChIKey": null,
        "Canonical SMILES": "C#CC1=CC=CC(OC)=C1",
        "Molecular Formula": "C<sub>9</sub>H<sub>8</sub>O",
        "Molecular Mass": "132.16",
        "Boiling Point": "88-89 °C @ Press: 16 Torr",
        "Density": "1.0224 g/cm³ @ Temp: 20 °C"
    }
}