{
    "cas_no": "21802-37-9",
    "key_name": "(<em>E</em>)-4-Methoxy[2,2′-bipyridine]-6-carboxaldehyde oxime",
    "cn_name": null,
    "alternate_name": "[2,2′-Bipyridine]-6-carboxaldehyde, 4-methoxy-, oxime, (<em>E</em>)-;Cerulomycin;(<em>E</em>)-4-Methoxy[2,2′-bipyridine]-6-carboxaldehyde oxime;Caerulomycin A;Caerulomycin",
    "duplicated_cas_no": "14761-66-1;25795-25-9",
    "SMILES": "C(=N/O)\\C1=NC(=CC(OC)=C1)C2=CC=CC=N2",
    "meta_data": {
        "InChI": "InChI=1S/C12H11N3O2/c1-17-10-6-9(8-14-16)15-12(7-10)11-4-2-3-5-13-11/h2-8,16H,1H3/b14-8+",
        "InChIKey": null,
        "Canonical SMILES": "ON=CC1=NC(=CC(OC)=C1)C2=NC=CC=C2",
        "Molecular Formula": "C<sub>12</sub>H<sub>11</sub>N<sub>3</sub>O<sub>2</sub>",
        "Molecular Mass": "229.23",
        "Melting Point": "173 °C"
    }
}