{
    "cas_no": "1707-75-1",
    "key_name": "1,1-Diphenyl-2-picrylhydrazine",
    "cn_name": "1,1-二苯基-2-苦味酰肼;",
    "alternate_name": "Hydrazine, 1,1-diphenyl-2-(2,4,6-trinitrophenyl)-;Hydrazine, 1,1-diphenyl-2-picryl-;1,1-Diphenyl-2-(2,4,6-trinitrophenyl)hydrazine;Diphenylpicrylhydrazine;1,1-Diphenyl-2-picrylhydrazine;α,α-Diphenyl-β-picrylhydrazine;2,2-Diphenyl-1-picrylhydrazine;2,2-Diphenyl-1-(2,4,6-trinitrophenyl)hydrazine;NSC 12563",
    "duplicated_cas_no": "",
    "SMILES": "N(N(C1=CC=CC=C1)C2=CC=CC=C2)C3=C(N(=O)=O)C=C(N(=O)=O)C=C3N(=O)=O",
    "meta_data": {
        "InChI": "InChI=1S/C18H13N5O6/c24-21(25)15-11-16(22(26)27)18(17(12-15)23(28)29)19-20(13-7-3-1-4-8-13)14-9-5-2-6-10-14/h1-12,19H",
        "InChIKey": null,
        "Canonical SMILES": "O=N(=O)C=1C=C(C(NN(C=2C=CC=CC2)C=3C=CC=CC3)=C(C1)N(=O)=O)N(=O)=O",
        "Molecular Formula": "C<sub>18</sub>H<sub>13</sub>N<sub>5</sub>O<sub>6</sub>",
        "Molecular Mass": "395.33",
        "Melting Point": "172-173 °C (decomp)"
    }
}