{
    "cas_no": "13290-74-9",
    "key_name": "1-Chloro-2-methyl-4-nitrobenzene",
    "cn_name": "2-氯-5-硝基甲苯;2-氯-5-硝基甲基苯;",
    "alternate_name": "Benzene, 1-chloro-2-methyl-4-nitro-;Toluene, 2-chloro-5-nitro-;1-Chloro-2-methyl-4-nitrobenzene;4-Chloro-3-methylnitrobenzene;2-Chloro-5-nitrotoluene;2-Methyl-4-nitrochlorobenzene;6-Chloro-3-nitrotoluene;2-Methyl-4-nitro-1-chlorobenzene;1-Chloro-4-nitro-2-methylbenzene",
    "duplicated_cas_no": "",
    "SMILES": "N(=O)(=O)C1=CC(C)=C(Cl)C=C1",
    "meta_data": {
        "InChI": "InChI=1S/C7H6ClNO2/c1-5-4-6(9(10)11)2-3-7(5)8/h2-4H,1H3",
        "InChIKey": null,
        "Canonical SMILES": "O=N(=O)C1=CC=C(Cl)C(=C1)C",
        "Molecular Formula": "C<sub>7</sub>H<sub>6</sub>ClNO<sub>2</sub>",
        "Molecular Mass": "171.58",
        "Boiling Point": "249 °C",
        "Melting Point": "42.5 °C"
    }
}