{
    "cas_no": "877-65-6",
    "key_name": "4-<em>tert</em>-Butylbenzyl alcohol",
    "cn_name": "4-叔丁基苯甲醇;",
    "alternate_name": "Benzenemethanol, 4-(1,1-dimethylethyl)-;Benzyl alcohol, <em>p</em>-<em>tert</em>-butyl-;4-(1,1-Dimethylethyl)benzenemethanol;<em>p</em>-<em>tert</em>-Butylbenzyl alcohol;4-<em>tert</em>-Butylbenzyl alcohol;4-<em>tert</em>-Butylphenylmethanol;4-(1,1-Dimethylethyl)benzyl alcohol;4-<em>t</em>-Butylbenzyl alcohol;1-(1,1-Dimethylethyl)-4-(hydroxymethyl)benzene",
    "duplicated_cas_no": "",
    "SMILES": "C(C)(C)(C)C1=CC=C(CO)C=C1",
    "meta_data": {
        "InChI": "InChI=1S/C11H16O/c1-11(2,3)10-6-4-9(8-12)5-7-10/h4-7,12H,8H2,1-3H3",
        "InChIKey": null,
        "Canonical SMILES": "OCC1=CC=C(C=C1)C(C)(C)C",
        "Molecular Formula": "C<sub>11</sub>H<sub>16</sub>O",
        "Molecular Mass": "164.24",
        "Boiling Point": "140 °C"
    }
}