{
    "cas_no": "1136-45-4",
    "key_name": "5-Methyl-3-phenylisoxazole-4-carboxylic acid",
    "cn_name": "5-甲基-3-苯基异恶唑-4-羧酸;3-苯基-5-甲基异恶唑-4-甲酸;",
    "alternate_name": "4-Isoxazolecarboxylic acid, 5-methyl-3-phenyl-;5-Methyl-3-phenyl-4-isoxazolecarboxylic acid;5-Methyl-3-phenylisoxazole-4-carboxylic acid;3-Phenyl-5-methylisoxazole-4-carboxylic acid;4-Carboxy-5-methyl-3-phenylisoxazole;NSC 76870",
    "duplicated_cas_no": "",
    "SMILES": "C(O)(=O)C=1C(=NOC1C)C2=CC=CC=C2",
    "meta_data": {
        "InChI": "InChI=1S/C11H9NO3/c1-7-9(11(13)14)10(12-15-7)8-5-3-2-4-6-8/h2-6H,1H3,(H,13,14)",
        "InChIKey": null,
        "Canonical SMILES": "O=C(O)C=1C(=NOC1C)C=2C=CC=CC2",
        "Molecular Formula": "C<sub>11</sub>H<sub>9</sub>NO<sub>3</sub>",
        "Molecular Mass": "203.19",
        "Melting Point": "188-189 °C"
    }
}