{
    "cas_no": "460-37-7",
    "key_name": "1,1,1-Trifluoro-3-iodopropane",
    "cn_name": null,
    "alternate_name": "Propane, 1,1,1-trifluoro-3-iodo-;1,1,1-Trifluoro-3-iodopropane;3,3,3-Trifluoropropyl iodide;1-Iodo-3,3,3-trifluoropropane;3,3,3-Trifluoro-1-iodopropane;3-Iodo-1,1,1-trifluoropropane;1<em>H</em>,1<em>H</em>,2<em>H</em>,2<em>H</em>-Trifluoro-1-iodopropane",
    "duplicated_cas_no": "",
    "SMILES": "C(C(F)(F)F)CI",
    "meta_data": {
        "InChI": "InChI=1S/C3H4F3I/c4-3(5,6)1-2-7/h1-2H2",
        "InChIKey": null,
        "Canonical SMILES": "FC(F)(F)CCI",
        "Molecular Formula": "C<sub>3</sub>H<sub>4</sub>F<sub>3</sub>I",
        "Molecular Mass": "223.96",
        "Boiling Point": "90 °C"
    }
}