{
    "cas_no": "13883-39-1",
    "key_name": "(3-Bromopropyl)trichlorosilane",
    "cn_name": "3-溴丙基三氯硅烷;3-溴丙基三氯硅烷;",
    "alternate_name": "Silane, (3-bromopropyl)trichloro-;(3-Bromopropyl)trichlorosilane;3-Bromopropyltrichlorosilane",
    "duplicated_cas_no": "",
    "SMILES": "C([Si](Cl)(Cl)Cl)CCBr",
    "meta_data": {
        "InChI": "InChI=1S/C3H6BrCl3Si/c4-2-1-3-8(5,6)7/h1-3H2",
        "InChIKey": null,
        "Canonical SMILES": "Cl[Si](Cl)(Cl)CCCBr",
        "Molecular Formula": "C<sub>3</sub>H<sub>6</sub>BrCl<sub>3</sub>Si",
        "Molecular Mass": "256.43",
        "Boiling Point": "85-86 °C @ Press: 16 Torr",
        "Density": "1.618 g/cm³"
    }
}