{
    "cas_no": "534-22-5",
    "key_name": "2-Methylfuran",
    "cn_name": "2-甲基呋喃;",
    "alternate_name": "Furan, 2-methyl-;2-Methylfuran;α-Methylfuran;Silvan;Sylvan;5-Methylfuran;NSC 3707;NSC 5211",
    "duplicated_cas_no": "",
    "SMILES": "CC1=CC=CO1",
    "meta_data": {
        "InChI": "InChI=1S/C5H6O/c1-5-3-2-4-6-5/h2-4H,1H3",
        "InChIKey": null,
        "Canonical SMILES": "O1C=CC=C1C",
        "Molecular Formula": "C<sub>5</sub>H<sub>6</sub>O",
        "Molecular Mass": "82.10",
        "Boiling Point": "65 °C",
        "Melting Point": "-87.5 °C",
        "Density": "0.9159 g/cm³ @ Temp: 20 °C"
    }
}