{
    "cas_no": "698-63-5",
    "key_name": "5-Nitrofurfural",
    "cn_name": "5-硝基糠醛;",
    "alternate_name": "2-Furancarboxaldehyde, 5-nitro-;2-Furaldehyde, 5-nitro-;5-Nitro-2-furancarboxaldehyde;5-Nitro-2-furaldehyde;5-Nitrofurfural;5-Nitrofurfuraldehyde;5-Nitro-2-furylcarboxaldehyde;2-Formyl-5-nitrofuran;Furadoxyl;NSC 111144;NSC 5574;5-Nitro-2-furylaldehyde",
    "duplicated_cas_no": "",
    "SMILES": "N(=O)(=O)C=1OC(C=O)=CC1",
    "meta_data": {
        "InChI": "InChI=1S/C5H3NO4/c7-3-4-1-2-5(10-4)6(8)9/h1-3H",
        "InChIKey": null,
        "Canonical SMILES": "O=CC=1OC(=CC1)N(=O)=O",
        "Molecular Formula": "C<sub>5</sub>H<sub>3</sub>NO<sub>4</sub>",
        "Molecular Mass": "141.08",
        "Boiling Point": "128-132 °C @ Press: 10 Torr",
        "Melting Point": "35-36 °C"
    }
}