{
    "cas_no": "1262036-50-9",
    "key_name": "<em>N</em>-[3-[(4a<em>S</em>,7a<em>S</em>)-2-Amino-4a,5-dihydro-4<em>H</em>-furo[3,4-<em>d</em>][1,3]thiazin-7a(7<em>H</em>)-yl]-4-fluorophenyl]-5-fluoro-2-pyridinecarboxamide",
    "cn_name": null,
    "alternate_name": "2-Pyridinecarboxamide, <em>N</em>-[3-[(4a<em>S</em>,7a<em>S</em>)-2-amino-4a,5-dihydro-4<em>H</em>-furo[3,4-<em>d</em>][1,3]thiazin-7a(7<em>H</em>)-yl]-4-fluorophenyl]-5-fluoro-;<em>N</em>-[3-[(4a<em>S</em>,7a<em>S</em>)-2-Amino-4a,5-dihydro-4<em>H</em>-furo[3,4-<em>d</em>][1,3]thiazin-7a(7<em>H</em>)-yl]-4-fluorophenyl]-5-fluoro-2-pyridinecarboxamide;LY 2886721;VTP 37948;BI 1181181",
    "duplicated_cas_no": "1421852-80-3;2244236-59-5",
    "SMILES": "FC=1C([C@@]23[C@@](COC2)(CSC(N)=N3)[H])=CC(NC(=O)C4=CC=C(F)C=N4)=CC1",
    "meta_data": {
        "InChI": "InChI=1S/C18H16F2N4O2S/c19-11-1-4-15(22-6-11)16(25)23-12-2-3-14(20)13(5-12)18-9-26-7-10(18)8-27-17(21)24-18/h1-6,10H,7-9H2,(H2,21,24)(H,23,25)/t10-,18-/m0/s1",
        "InChIKey": null,
        "Canonical SMILES": "O=C(NC1=CC=C(F)C(=C1)C23N=C(SCC3COC2)N)C4=NC=C(F)C=C4",
        "Molecular Formula": "C<sub>18</sub>H<sub>16</sub>F<sub>2</sub>N<sub>4</sub>O<sub>2</sub>S",
        "Molecular Mass": "390.41",
        "Melting Point": "254.9-255.7 °C"
    }
}