{
    "cas_no": "5407-98-7",
    "key_name": "Cyclobutyl phenyl ketone",
    "cn_name": "环丁基苯(基甲)酮;",
    "alternate_name": "Methanone, cyclobutylphenyl-;Ketone, cyclobutyl phenyl;Cyclobutylphenylmethanone;Cyclobutane, benzoyl-;Cyclobutyl phenyl ketone;Benzoylcyclobutane;Phenyl cyclobutyl ketone;NSC 10744;1-Cyclobutyl-1-phenylmethanone",
    "duplicated_cas_no": "",
    "SMILES": "C(=O)(C1CCC1)C2=CC=CC=C2",
    "meta_data": {
        "InChI": "InChI=1S/C11H12O/c12-11(10-7-4-8-10)9-5-2-1-3-6-9/h1-3,5-6,10H,4,7-8H2",
        "InChIKey": null,
        "Canonical SMILES": "O=C(C=1C=CC=CC1)C2CCC2",
        "Molecular Formula": "C<sub>11</sub>H<sub>12</sub>O",
        "Molecular Mass": "160.21",
        "Boiling Point": "260 °C",
        "Density": "1.0440 g/cm³ @ Temp: 420 °C"
    }
}