{
    "cas_no": "4769-97-5",
    "key_name": "4-Nitroindole",
    "cn_name": null,
    "alternate_name": "1<em>H</em>-Indole, 4-nitro-;Indole, 4-nitro-;4-Nitro-1<em>H</em>-indole;4-Nitroindole",
    "duplicated_cas_no": "",
    "SMILES": "N(=O)(=O)C1=C2C(NC=C2)=CC=C1",
    "meta_data": {
        "InChI": "InChI=1S/C8H6N2O2/c11-10(12)8-3-1-2-7-6(8)4-5-9-7/h1-5,9H",
        "InChIKey": null,
        "Canonical SMILES": "O=N(=O)C=1C=CC=C2NC=CC21",
        "Molecular Formula": "C<sub>8</sub>H<sub>6</sub>N<sub>2</sub>O<sub>2</sub>",
        "Molecular Mass": "162.15",
        "Melting Point": "205-206 °C"
    }
}