{
    "cas_no": "608-28-6",
    "key_name": "2-Iodo-1,3-dimethylbenzene",
    "cn_name": "1,3-二甲基-2-碘苯;2-碘间二甲苯;",
    "alternate_name": "Benzene, 2-iodo-1,3-dimethyl-;<em>m</em>-Xylene, 2-iodo-;2-Iodo-1,3-dimethylbenzene;2,6-Dimethyliodobenzene;2-Iodo-<em>m</em>-xylene;2,6-Dimethylphenyl iodide;NSC 9265;2,6-Dimethyl-1-iodobenzene;1,3-Dimethyl-2-iodobenzene;1-Iodo-2,6-dimethylbenzene",
    "duplicated_cas_no": "",
    "SMILES": "IC1=C(C)C=CC=C1C",
    "meta_data": {
        "InChI": "InChI=1S/C8H9I/c1-6-4-3-5-7(2)8(6)9/h3-5H,1-2H3",
        "InChIKey": null,
        "Canonical SMILES": "IC=1C(=CC=CC1C)C",
        "Molecular Formula": "C<sub>8</sub>H<sub>9</sub>I",
        "Molecular Mass": "232.06",
        "Boiling Point": "229.5 °C",
        "Melting Point": "11.2 °C",
        "Density": "1.6250 g/cm³ @ Temp: 25 °C"
    }
}