{
    "cas_no": "1126-71-2",
    "key_name": "Dimethylphenethylamine",
    "cn_name": "N,N-二甲基苯乙胺;",
    "alternate_name": "Benzeneethanamine, <em>N</em>,<em>N</em>-dimethyl-;Phenethylamine, <em>N</em>,<em>N</em>-dimethyl-;<em>N</em>,<em>N</em>-Dimethylbenzeneethanamine;[(Dimethylamino)ethyl]benzene;<em>N</em>,<em>N</em>-Dimethylphenethylamine;<em>N</em>,<em>N</em>-Dimethyl-β-phenethylamine;<em>N</em>,<em>N</em>-Dimethyl-2-phenylethylamine;<em>N</em>-Phenethyldimethylamine;<em>N</em>-(2-Phenylethyl)dimethylamine;Dimethylphenethylamine;Dimethyl(2-phenylethyl)amine;NSC 1849;<em>N</em>,<em>N</em>-Dimethylphenylethylamine;2-Phenylethyl-<em>N</em>,<em>N</em>-dimethylamine",
    "duplicated_cas_no": "",
    "SMILES": "C(CN(C)C)C1=CC=CC=C1",
    "meta_data": {
        "InChI": "InChI=1S/C10H15N/c1-11(2)9-8-10-6-4-3-5-7-10/h3-7H,8-9H2,1-2H3",
        "InChIKey": null,
        "Canonical SMILES": "C=1C=CC(=CC1)CCN(C)C",
        "Molecular Formula": "C<sub>10</sub>H<sub>15</sub>N",
        "Molecular Mass": "149.23",
        "Boiling Point": "198-200 °C"
    }
}