{
    "cas_no": "696-04-8",
    "key_name": "Dihydrothymine",
    "cn_name": null,
    "alternate_name": "2,4(1<em>H</em>,3<em>H</em>)-Pyrimidinedione, dihydro-5-methyl-;Hydrouracil, 5-methyl-;Dihydro-5-methyl-2,4(1<em>H</em>,3<em>H</em>)-pyrimidinedione;5-Methyl-5,6-dihydrouracil;5,6-Dihydrothymine;Dihydrothymine;5,6-Dihydro-5-methyluracil;NSC 44131;5-Methyldihydropyrimidine-2,4(1<em>H</em>,3<em>H</em>)-dione;2-Hydroxy-5-methyl-5,6-dihydro-1<em>H</em>-pyrimidin-4-one",
    "duplicated_cas_no": "",
    "SMILES": "O=C1C(C)CNC(=O)N1",
    "meta_data": {
        "InChI": "InChI=1S/C5H8N2O2/c1-3-2-6-5(9)7-4(3)8/h3H,2H2,1H3,(H2,6,7,8,9)",
        "InChIKey": null,
        "Canonical SMILES": "O=C1NC(=O)C(C)CN1",
        "Molecular Formula": "C<sub>5</sub>H<sub>8</sub>N<sub>2</sub>O<sub>2</sub>",
        "Molecular Mass": "128.13",
        "Melting Point": "260 °C",
        "Density": "1.149 g/cm³"
    }
}