{
    "cas_no": "1428-95-1",
    "key_name": "Hexamethylene amiloride",
    "cn_name": null,
    "alternate_name": "2-Pyrazinecarboxamide, 3-amino-<em>N</em>-(aminoiminomethyl)-6-chloro-5-(hexahydro-1<em>H</em>-azepin-1-yl)-;Pyrazinecarboxamide, <em>N</em>-amidino-3-amino-6-chloro-5-(hexahydro-1<em>H</em>-azepin-1-yl)-;Pyrazinecarboxamide, 3-amino-<em>N</em>-(aminoiminomethyl)-6-chloro-5-(hexahydro-1<em>H</em>-azepin-1-yl)-;3-Amino-<em>N</em>-(aminoiminomethyl)-6-chloro-5-(hexahydro-1<em>H</em>-azepin-1-yl)-2-pyrazinecarboxamide;5-(<em>N</em>,<em>N</em>-Hexamethylene)amiloride;Hexamethylene amiloride;5-(N,N-Hexamethylene)amiloride;5-Hexamethylene amiloride;<em>N</em>-Hexamethylene Amiloride",
    "duplicated_cas_no": "",
    "SMILES": "ClC=1C(=NC(N)=C(C(NC(=N)N)=O)N1)N2CCCCCC2",
    "meta_data": {
        "InChI": "InChI=1S/C12H18ClN7O/c13-8-10(20-5-3-1-2-4-6-20)18-9(14)7(17-8)11(21)19-12(15)16/h1-6H2,(H2,14,18)(H4,15,16,19,21)",
        "InChIKey": null,
        "Canonical SMILES": "O=C(NC(=N)N)C1=NC(Cl)=C(N=C1N)N2CCCCCC2",
        "Molecular Formula": "C<sub>12</sub>H<sub>18</sub>ClN<sub>7</sub>O",
        "Molecular Mass": "311.77",
        "Melting Point": "224-225 °C"
    }
}