{
    "cas_no": "65427-54-5",
    "key_name": "2,4-Diaminobutyric acid dihydrochloride",
    "cn_name": null,
    "alternate_name": "Butanoic acid, 2,4-diamino-, hydrochloride (1:2);Butanoic acid, 2,4-diamino-, dihydrochloride, (±)-;Butanoic acid, 2,4-diamino-, dihydrochloride;<span class=\"text-smallcaps\">DL</span>-2,4-Diaminobutyric acid dihydrochloride;2,4-Diaminobutyric acid dihydrochloride;<em>dl</em>-2,4-Diaminobutyric acid dihydrochloride;NSC 41117;2,4-Diaminobutanoic acid dihydrochloride",
    "duplicated_cas_no": "6970-28-1",
    "SMILES": "C(CCN)(C(O)=O)N.Cl",
    "meta_data": {
        "InChI": "InChI=1S/C4H10N2O2.2ClH/c5-2-1-3(6)4(7)8;;/h3H,1-2,5-6H2,(H,7,8);2*1H",
        "InChIKey": null,
        "Canonical SMILES": "Cl.O=C(O)C(N)CCN",
        "Molecular Formula": "C<sub>4</sub>H<sub>10</sub>N<sub>2</sub>O<sub>2</sub>.2ClH",
        "Molecular Mass": "",
        "Melting Point": "202-204 °C (decomp)"
    }
}