{
    "cas_no": "37560-50-2",
    "key_name": "1-(4-Chlorophenyl)-1<em>H</em>-pyrrole-2-carboxaldehyde",
    "cn_name": null,
    "alternate_name": "1<em>H</em>-Pyrrole-2-carboxaldehyde, 1-(4-chlorophenyl)-;1-(4-Chlorophenyl)-1<em>H</em>-pyrrole-2-carboxaldehyde;1-(4-Chlorophenyl)-2-pyrrolecarboxaldehyde;1-(4-Chlorophenyl)-1<em>H</em>-pyrrole-2-carbaldehyde;1-(4-Chlorophenyl)pyrrole-2-carbaldehyde",
    "duplicated_cas_no": "",
    "SMILES": "C(=O)C=1N(C=CC1)C2=CC=C(Cl)C=C2",
    "meta_data": {
        "InChI": "InChI=1S/C11H8ClNO/c12-9-3-5-10(6-4-9)13-7-1-2-11(13)8-14/h1-8H",
        "InChIKey": null,
        "Canonical SMILES": "O=CC1=CC=CN1C2=CC=C(Cl)C=C2",
        "Molecular Formula": "C<sub>11</sub>H<sub>8</sub>ClNO",
        "Molecular Mass": "205.64",
        "Melting Point": "96-97 °C"
    }
}