{
    "cas_no": "33483-65-7",
    "key_name": "Cyclohexanamine, 4-methyl-, hydrochloride (1:1), <em>trans</em>-",
    "cn_name": null,
    "alternate_name": "Cyclohexanamine, 4-methyl-, hydrochloride (1:1), <em>trans</em>-;Cyclohexylamine, 4-methyl-, hydrochloride, <em>trans</em>-;Cyclohexanamine, 4-methyl-, hydrochloride, <em>trans</em>-;<em>trans</em>-4-Methylcyclohexylamine hydrochloride;<em>trans</em>-4-Methylcyclohexanamine hydrochloride",
    "duplicated_cas_no": "",
    "SMILES": "C[C@H]1CC[C@H](N)CC1.Cl",
    "meta_data": {
        "InChI": "InChI=1/C7H15N.ClH/c1-6-2-4-7(8)5-3-6;/h6-7H,2-5,8H2,1H3;1H/t6-,7-;",
        "InChIKey": null,
        "Canonical SMILES": "Cl.NC1CCC(C)CC1",
        "Molecular Formula": "C<sub>7</sub>H<sub>15</sub>N.ClH",
        "Molecular Mass": "",
        "Melting Point": "260 °C"
    }
}