{
    "cas_no": "4494-26-2",
    "key_name": "5-Formyl-2′-deoxyuridine",
    "cn_name": null,
    "alternate_name": "Thymidine, α-oxo-;Uridine, 2′-deoxy-5-formyl-;5-Pyrimidinecarboxaldehyde, 1-(2-deoxy-β-<span class=\"text-smallcaps\">D</span>-<em>erythro</em>-pentofuranosyl)-1,2,3,4-tetrahydro-2,4-dioxo-;5-Pyrimidinecarboxaldehyde, 1-(2-deoxy-β-<span class=\"text-smallcaps\">D</span>-ribofuranosyl)-1,2,3,4-tetrahydro-2,4-dioxo-;α-Oxothymidine;5-Formyl-2′-deoxyuridine;2′-Deoxy-5-formyluridine;NSC 148297;5-Formyldeoxyuridine",
    "duplicated_cas_no": "1395087-08-7",
    "SMILES": "O=C1N([C@@H]2O[C@H](CO)[C@@H](O)C2)C=C(C=O)C(=O)N1",
    "meta_data": {
        "InChI": "InChI=1S/C10H12N2O6/c13-3-5-2-12(10(17)11-9(5)16)8-1-6(15)7(4-14)18-8/h2-3,6-8,14-15H,1,4H2,(H,11,16,17)/t6-,7+,8+/m0/s1",
        "InChIKey": null,
        "Canonical SMILES": "O=CC1=CN(C(=O)NC1=O)C2OC(CO)C(O)C2",
        "Molecular Formula": "C<sub>10</sub>H<sub>12</sub>N<sub>2</sub>O<sub>6</sub>",
        "Molecular Mass": "256.21",
        "Melting Point": "157-158 °C"
    }
}