{
    "cas_no": "73713-79-8",
    "key_name": "2,1,3-Benzothiadiazole-4-sulfonyl chloride",
    "cn_name": "2,1,3-苯并噻二唑-4-磺酰氯;苯并[1,2,5]噻二唑-4-磺酰氯;",
    "alternate_name": "2,1,3-Benzothiadiazole-4-sulfonyl chloride;Benzo[<em>c</em>]-1,2,5-thiadiazole-4-sulfonyl chloride;4-Chlorosulfonyl-2,1,3-benzothiadiazole;2λ<sup>4</sup>δ<sup>2</sup>-2,1,3-Benzothiadiazole-4-sulfonyl chloride",
    "duplicated_cas_no": "1006492-81-4",
    "SMILES": "S(Cl)(=O)(=O)C=1C=2C(C=CC1)=NSN2",
    "meta_data": {
        "InChI": "InChI=1S/C6H3ClN2O2S2/c7-13(10,11)5-3-1-2-4-6(5)9-12-8-4/h1-3H",
        "InChIKey": null,
        "Canonical SMILES": "O=S(=O)(Cl)C1=CC=CC2=NSN=C21",
        "Molecular Formula": "C<sub>6</sub>H<sub>3</sub>ClN<sub>2</sub>O<sub>2</sub>S<sub>2</sub>",
        "Molecular Mass": "234.68",
        "Melting Point": "163-165 °C"
    }
}