{
    "cas_no": "1611-03-6",
    "key_name": "3,5-Bis(1,1-dimethylethyl)-4-hydroxybenzeneacetic acid",
    "cn_name": "3,5-二叔丁基-4-羟基苯乙酸;",
    "alternate_name": "Benzeneacetic acid, 3,5-bis(1,1-dimethylethyl)-4-hydroxy-;Acetic acid, (3,5-di-<em>tert</em>-butyl-4-hydroxyphenyl)-;3,5-Bis(1,1-dimethylethyl)-4-hydroxybenzeneacetic acid;3,5-Di-<em>tert</em>-butyl-4-hydroxyphenylacetic acid;2,6-Di-<em>tert</em>-butyl-4-(carboxymethyl)phenol;(4-Hydroxy-3,5-di-<em>tert</em>-butylphenyl)acetic acid;2-(3,5-Di-<em>tert</em>-butyl-4-hydroxyphenyl)acetic acid;2-[3,5-Di(<em>tert</em>-butyl)-4-hydroxyphenyl]acetic acid",
    "duplicated_cas_no": "",
    "SMILES": "C(C)(C)(C)C1=C(O)C(C(C)(C)C)=CC(CC(O)=O)=C1",
    "meta_data": {
        "InChI": "InChI=1S/C16H24O3/c1-15(2,3)11-7-10(9-13(17)18)8-12(14(11)19)16(4,5)6/h7-8,19H,9H2,1-6H3,(H,17,18)",
        "InChIKey": null,
        "Canonical SMILES": "O=C(O)CC=1C=C(C(O)=C(C1)C(C)(C)C)C(C)(C)C",
        "Molecular Formula": "C<sub>16</sub>H<sub>24</sub>O<sub>3</sub>",
        "Molecular Mass": "264.36",
        "Melting Point": "158-159 °C"
    }
}