{
    "cas_no": "4441-15-0",
    "key_name": "2-Morpholinone",
    "cn_name": null,
    "alternate_name": "2-Morpholinone;Glycine, <em>N</em>-(2-hydroxyethyl)-, δ-lactone",
    "duplicated_cas_no": "",
    "SMILES": "O=C1CNCCO1",
    "meta_data": {
        "InChI": "InChI=1S/C4H7NO2/c6-4-3-5-1-2-7-4/h5H,1-3H2",
        "InChIKey": null,
        "Canonical SMILES": "O=C1OCCNC1",
        "Molecular Formula": "C<sub>4</sub>H<sub>7</sub>NO<sub>2</sub>",
        "Molecular Mass": "101.10",
        "Melting Point": "178 °C"
    }
}