{
    "cas_no": "7783-00-8",
    "key_name": "Selenious acid",
    "cn_name": "亚硒酸;",
    "alternate_name": "Selenious acid;Selenious acid (H<sub>2</sub>SeO<sub>3</sub>);Monohydrated selenium dioxide;Micro Se;Selenium hydroxide oxide (Se(OH)<sub>2</sub>O);MeSH ID: D020887",
    "duplicated_cas_no": "11140-60-6;1408288-83-4;2225846-51-3;2771671-88-4",
    "SMILES": "[Se](=O)(O)O",
    "meta_data": {
        "InChI": "InChI=1S/H2O3Se/c1-4(2)3/h(H2,1,2,3)",
        "InChIKey": null,
        "Canonical SMILES": "O=[Se](O)O",
        "Molecular Formula": "H<sub>2</sub>O<sub>3</sub>Se",
        "Molecular Mass": "128.97",
        "Melting Point": "70 °C (decomp)",
        "Density": "3.004 g/cm³ @ Temp: 15 °C"
    }
}