{
    "cas_no": "39300-45-3",
    "key_name": "Dinocap",
    "cn_name": "敌螨普;2-异辛基-4,6-二硝基苯基2-丁烯酸酯;",
    "alternate_name": "2-Butenoic acid, 2(<em>or</em> 4)-isooctyl-4,6(<em>or</em> 2,6)-dinitrophenyl ester;Karathane;Dinocap;Crotothane;Mildex;Carathane;DPC;DPC (pesticide);Karathane 25;Caprane;Karathane FN 57;Karathane LC;Dicap",
    "duplicated_cas_no": "12684-10-5;57131-13-2;57526-97-3;1135443-31-0",
    "SMILES": "",
    "meta_data": {
        "InChI": "",
        "InChIKey": null,
        "Canonical SMILES": "",
        "Molecular Formula": "C<sub>18</sub>H<sub>24</sub>N<sub>2</sub>O<sub>6</sub>",
        "Molecular Mass": "",
        "Boiling Point": "138-140 °C @ Press: 0.05 Torr",
        "Density": "1.10 g/cm³ @ Temp: 20 °C"
    }
}