{
    "cas_no": "55533-25-0",
    "key_name": "<em>N</em>-[(1,1-Dimethylethoxy)carbonyl]-4-[[(phenylmethoxy)carbonyl]amino]-<span class=\"text-smallcaps\">L</span>-phenylalanine",
    "cn_name": null,
    "alternate_name": "<span class=\"text-smallcaps\">L</span>-Phenylalanine, <em>N</em>-[(1,1-dimethylethoxy)carbonyl]-4-[[(phenylmethoxy)carbonyl]amino]-;<em>N</em>-[(1,1-Dimethylethoxy)carbonyl]-4-[[(phenylmethoxy)carbonyl]amino]-<span class=\"text-smallcaps\">L</span>-phenylalanine;(2S)-2-[(2-Methylpropan-2-yl)oxycarbonylamino]-3-[4-(phenylmethoxycarbonylamino)phenyl]propanoic acid",
    "duplicated_cas_no": "",
    "SMILES": "C([C@H](NC(OC(C)(C)C)=O)C(O)=O)C1=CC=C(NC(OCC2=CC=CC=C2)=O)C=C1",
    "meta_data": {
        "InChI": "InChI=1S/C22H26N2O6/c1-22(2,3)30-21(28)24-18(19(25)26)13-15-9-11-17(12-10-15)23-20(27)29-14-16-7-5-4-6-8-16/h4-12,18H,13-14H2,1-3H3,(H,23,27)(H,24,28)(H,25,26)/t18-/m0/s1",
        "InChIKey": null,
        "Canonical SMILES": "O=C(OCC=1C=CC=CC1)NC2=CC=C(C=C2)CC(NC(=O)OC(C)(C)C)C(=O)O",
        "Molecular Formula": "C<sub>22</sub>H<sub>26</sub>N<sub>2</sub>O<sub>6</sub>",
        "Molecular Mass": "414.45",
        "Melting Point": "165-167 °C"
    }
}