{
    "cas_no": "6380-28-5",
    "key_name": "Carvacryl acetate",
    "cn_name": null,
    "alternate_name": "Phenol, 2-methyl-5-(1-methylethyl)-, 1-acetate;Carvacrol, acetate;Phenol, 2-methyl-5-(1-methylethyl)-, acetate;Carvacryl acetate;NSC 6601;5-Isopropyl-2-methylphenyl acetate;2-Methyl-5-(propan-2-yl)phenyl acetate",
    "duplicated_cas_no": "",
    "SMILES": "O(C(C)=O)C1=CC(C(C)C)=CC=C1C",
    "meta_data": {
        "InChI": "InChI=1S/C12H16O2/c1-8(2)11-6-5-9(3)12(7-11)14-10(4)13/h5-8H,1-4H3",
        "InChIKey": null,
        "Canonical SMILES": "O=C(OC1=CC(=CC=C1C)C(C)C)C",
        "Molecular Formula": "C<sub>12</sub>H<sub>16</sub>O<sub>2</sub>",
        "Molecular Mass": "192.25",
        "Boiling Point": "246.5 °C",
        "Density": "0.994 g/cm³"
    }
}