{
    "cas_no": "91591-63-8",
    "key_name": "2,5-Dichloro-4,6-dimethyl-3-pyridinecarbonitrile",
    "cn_name": null,
    "alternate_name": "3-Pyridinecarbonitrile, 2,5-dichloro-4,6-dimethyl-;2,5-Dichloro-4,6-dimethyl-3-pyridinecarbonitrile;NSC 341973;2,5-Dichloro-4,6-dimethylnicotinonitrile;2,5-Dichloro-3-cyano-4,6-dimethylpyridine",
    "duplicated_cas_no": "",
    "SMILES": "C(#N)C=1C(C)=C(Cl)C(C)=NC1Cl",
    "meta_data": {
        "InChI": "InChI=1S/C8H6Cl2N2/c1-4-6(3-11)8(10)12-5(2)7(4)9/h1-2H3",
        "InChIKey": null,
        "Canonical SMILES": "N#CC1=C(Cl)N=C(C(Cl)=C1C)C",
        "Molecular Formula": "C<sub>8</sub>H<sub>6</sub>Cl<sub>2</sub>N<sub>2</sub>",
        "Molecular Mass": "201.05",
        "Melting Point": "67-68 °C"
    }
}