{
    "cas_no": "2646-30-2",
    "key_name": "<em>N</em>-(4-Bromophenyl)thiourea",
    "cn_name": "(4-溴苯基)硫脲;1-(4-溴苯基)-2-硫代脲;4-溴苯硫脲;(4-溴苯基)硫脲,97%;(4-溴苯基)硫脲;N-(4-溴苯基)硫脲,9;",
    "alternate_name": "Thiourea, <em>N</em>-(4-bromophenyl)-;Urea, 1-(<em>p</em>-bromophenyl)-2-thio-;Thiourea, (4-bromophenyl)-;<em>N</em>-(4-Bromophenyl)thiourea;<em>p</em>-Bromophenylthiourea;<em>N</em>-<em>p</em>-Bromophenylthiourea;4-Bromophenylthiourea;1-(4-Bromophenyl)thiourea;NSC 3404;NSC 72167;1-(4-Bromophenyl)-2-thiourea",
    "duplicated_cas_no": "",
    "SMILES": "N(C(N)=S)C1=CC=C(Br)C=C1",
    "meta_data": {
        "InChI": "InChI=1S/C7H7BrN2S/c8-5-1-3-6(4-2-5)10-7(9)11/h1-4H,(H3,9,10,11)",
        "InChIKey": null,
        "Canonical SMILES": "S=C(N)NC1=CC=C(Br)C=C1",
        "Molecular Formula": "C<sub>7</sub>H<sub>7</sub>BrN<sub>2</sub>S",
        "Molecular Mass": "231.11",
        "Melting Point": "223 °C"
    }
}