{
    "cas_no": "94695-50-8",
    "key_name": "Ethyl 2,3,4,5-tetrafluoro-β-oxobenzenepropanoate",
    "cn_name": "2,3,4,5-四氟苯甲酰乙酸乙酯;",
    "alternate_name": "Benzenepropanoic acid, 2,3,4,5-tetrafluoro-β-oxo-, ethyl ester;Ethyl 2,3,4,5-tetrafluoro-β-oxobenzenepropanoate;Ethyl α-(2,3,4,5-tetrafluorobenzoyl)acetate;Ethyl 2,3,4,5-tetrafluorobenzoylacetate;Ethyl 2,3,4,5-tetrafluoro-β-oxobenzenepropionate;Ethyl 2-(2,3,4,5-tetrafluorobenzoyl)acetate;3-Oxo-3-(2,3,4,5-tetrafluorophenyl)propionic acid ethyl ester",
    "duplicated_cas_no": "",
    "SMILES": "C(CC(OCC)=O)(=O)C1=C(F)C(F)=C(F)C(F)=C1",
    "meta_data": {
        "InChI": "InChI=1S/C11H8F4O3/c1-2-18-8(17)4-7(16)5-3-6(12)10(14)11(15)9(5)13/h3H,2,4H2,1H3",
        "InChIKey": null,
        "Canonical SMILES": "O=C(OCC)CC(=O)C1=CC(F)=C(F)C(F)=C1F",
        "Molecular Formula": "C<sub>11</sub>H<sub>8</sub>F<sub>4</sub>O<sub>3</sub>",
        "Molecular Mass": "264.17",
        "Boiling Point": "100 °C @ Press: 0.1 Torr",
        "Melting Point": "47-49 °C"
    }
}