{
    "cas_no": "4091-39-8",
    "key_name": "3-Chloro-2-butanone",
    "cn_name": "3-氯-2-丁酮;",
    "alternate_name": "2-Butanone, 3-chloro-;3-Chloro-2-butanone;3-Chlorobutanone;1-Chloroethyl methyl ketone;2-Chloro-3-butanone;(±)-3-Chloro-2-butanone",
    "duplicated_cas_no": "54439-42-8",
    "SMILES": "C(C(C)=O)(C)Cl",
    "meta_data": {
        "InChI": "InChI=1S/C4H7ClO/c1-3(5)4(2)6/h3H,1-2H3",
        "InChIKey": null,
        "Canonical SMILES": "O=C(C)C(Cl)C",
        "Molecular Formula": "C<sub>4</sub>H<sub>7</sub>ClO",
        "Molecular Mass": "106.55",
        "Boiling Point": "115 °C",
        "Melting Point": "108-111 °C",
        "Density": "1.063 g/cm³ @ Temp: 12 °C"
    }
}