{
    "cas_no": "63038-27-7",
    "key_name": "<span class=\"text-smallcaps\">L</span>-Valine, 3-methyl-, methyl ester, hydrochloride (1:1)",
    "cn_name": "L-叔亮氨酸甲酯盐酸盐;L-叔-亮氨酸 甲基 酯 盐酸盐;",
    "alternate_name": "<span class=\"text-smallcaps\">L</span>-Valine, 3-methyl-, methyl ester, hydrochloride (1:1);<span class=\"text-smallcaps\">L</span>-Valine, 3-methyl-, methyl ester, hydrochloride;<span class=\"text-smallcaps\">L</span>-<em>tert</em>-Leucine methyl ester hydrochloride;Methyl (2<em>S</em>)-2-amino-3,3-dimethylbutanoate hydrochloride;Methyl (<em>S</em>)-2-amino-3,3-dimethylbutanoate hydrochloride;<span class=\"text-smallcaps\">L</span>-<em>tert</em>-Butylglycine methyl ester hydrochloride;Methyl (2S)-2-amino-3,3-dimethylbutanoate hydrochloride",
    "duplicated_cas_no": "",
    "SMILES": "[C@H](C(C)(C)C)(C(OC)=O)N.Cl",
    "meta_data": {
        "InChI": "InChI=1S/C7H15NO2.ClH/c1-7(2,3)5(8)6(9)10-4;/h5H,8H2,1-4H3;1H/t5-;/m1./s1",
        "InChIKey": null,
        "Canonical SMILES": "Cl.O=C(OC)C(N)C(C)(C)C",
        "Molecular Formula": "C<sub>7</sub>H<sub>15</sub>NO<sub>2</sub>.ClH",
        "Molecular Mass": "",
        "Melting Point": "174-177 °C"
    }
}