{
    "cas_no": "6921-98-8",
    "key_name": "<em>N</em>,<em>N</em>′-Methylenebis[formamide]",
    "cn_name": "亚甲基二甲酰胺;亚甲基二甲酯;亚甲基二甲酰胺;",
    "alternate_name": "Formamide, <em>N</em>,<em>N</em>′-methylenebis-;<em>N</em>,<em>N</em>′-Methylenebis[formamide];Methylenebisformamide;Methylenediformamide;<em>N</em>,<em>N</em>′-Methylenebisformamide;<em>N</em>,<em>N</em>′-Methylenediformamide;Bis(formylamino)methane;NSC 21313",
    "duplicated_cas_no": "",
    "SMILES": "C(NC=O)NC=O",
    "meta_data": {
        "InChI": "InChI=1S/C3H6N2O2/c6-2-4-1-5-3-7/h2-3H,1H2,(H,4,6)(H,5,7)",
        "InChIKey": null,
        "Canonical SMILES": "O=CNCNC=O",
        "Molecular Formula": "C<sub>3</sub>H<sub>6</sub>N<sub>2</sub>O<sub>2</sub>",
        "Molecular Mass": "102.09",
        "Melting Point": "142-143 °C"
    }
}