{
    "cas_no": "3164-13-4",
    "key_name": "2-(4-Bromophenyl)benzoxazole",
    "cn_name": null,
    "alternate_name": "Benzoxazole, 2-(4-bromophenyl)-;Benzoxazole, 2-(<em>p</em>-bromophenyl)-;2-(4-Bromophenyl)benzoxazole;2-(<em>p</em>-Bromophenyl)benzoxazole;2-(4-Bromophenyl)-1,3-benzoxazole;2-(4-Bromophenyl)benzo[<em>d</em>]oxazole",
    "duplicated_cas_no": "",
    "SMILES": "BrC1=CC=C(C2=NC=3C(O2)=CC=CC3)C=C1",
    "meta_data": {
        "InChI": "InChI=1S/C13H8BrNO/c14-10-7-5-9(6-8-10)13-15-11-3-1-2-4-12(11)16-13/h1-8H",
        "InChIKey": null,
        "Canonical SMILES": "BrC1=CC=C(C=C1)C2=NC=3C=CC=CC3O2",
        "Molecular Formula": "C<sub>13</sub>H<sub>8</sub>BrNO",
        "Molecular Mass": "274.11",
        "Melting Point": "158-159 °C"
    }
}