{
    "cas_no": "90902-84-4",
    "key_name": "2,5-Dibromo-3-pyridinamine",
    "cn_name": "3-胺基-2,5-二溴吡啶;",
    "alternate_name": "3-Pyridinamine, 2,5-dibromo-;2,5-Dibromo-3-pyridinamine;2,5-Dibromo-3-aminopyridine;2,5-Dibromopyridin-3-ylamine;2,5-Dibromopyridin-3-amine",
    "duplicated_cas_no": "",
    "SMILES": "NC1=C(Br)N=CC(Br)=C1",
    "meta_data": {
        "InChI": "InChI=1S/C5H4Br2N2/c6-3-1-4(8)5(7)9-2-3/h1-2H,8H2",
        "InChIKey": null,
        "Canonical SMILES": "BrC1=NC=C(Br)C=C1N",
        "Molecular Formula": "C<sub>5</sub>H<sub>4</sub>Br<sub>2</sub>N<sub>2</sub>",
        "Molecular Mass": "251.91",
        "Melting Point": "153 °C"
    }
}