{
    "cas_no": "4426-47-5",
    "key_name": "Butylboronic acid",
    "cn_name": "正丁基硼酸;",
    "alternate_name": "Boronic acid, <em>B</em>-butyl-;1-Butaneboronic acid;Butaneboronic acid;Boronic acid, butyl-;<em>B</em>-Butylboronic acid;Butylboronic acid;<em>n</em>-Butaneboronic acid;Butyldihydroxyborane;<em>n</em>-Butylboronic acid;1-Butylboronic acid",
    "duplicated_cas_no": "",
    "SMILES": "C(B(O)O)CCC",
    "meta_data": {
        "InChI": "InChI=1S/C4H11BO2/c1-2-3-4-5(6)7/h6-7H,2-4H2,1H3",
        "InChIKey": null,
        "Canonical SMILES": "OB(O)CCCC",
        "Molecular Formula": "C<sub>4</sub>H<sub>11</sub>BO<sub>2</sub>",
        "Molecular Mass": "101.94",
        "Melting Point": "94-96 °C",
        "Density": "1.022 g/cm³"
    }
}