{
    "cas_no": "42116-76-7",
    "key_name": "Carnidazole",
    "cn_name": null,
    "alternate_name": "Carbamothioic acid, <em>N</em>-[2-(2-methyl-5-nitro-1<em>H</em>-imidazol-1-yl)ethyl]-, <em>O</em>-methyl ester;Carbamothioic acid, [2-(2-methyl-5-nitro-1<em>H</em>-imidazol-1-yl)ethyl]-, <em>O</em>-methyl ester;Carnidazole;Me 108;R 25831;Spartrix;NSC 293873",
    "duplicated_cas_no": "",
    "SMILES": "C(CNC(OC)=S)N1C(N(=O)=O)=CN=C1C",
    "meta_data": {
        "InChI": "InChI=1S/C8H12N4O3S/c1-6-10-5-7(12(13)14)11(6)4-3-9-8(16)15-2/h5H,3-4H2,1-2H3,(H,9,16)",
        "InChIKey": null,
        "Canonical SMILES": "O=N(=O)C1=CN=C(N1CCNC(=S)OC)C",
        "Molecular Formula": "C<sub>8</sub>H<sub>12</sub>N<sub>4</sub>O<sub>3</sub>S",
        "Molecular Mass": "244.27",
        "Melting Point": "142.4 °C (decomp)"
    }
}