{
    "cas_no": "40422-73-9",
    "key_name": "1-[4-(2-Bromoethyl)phenyl]ethanone",
    "cn_name": null,
    "alternate_name": "Ethanone, 1-[4-(2-bromoethyl)phenyl]-;Acetophenone, 4′-(2-bromoethyl)-;1-[4-(2-Bromoethyl)phenyl]ethanone;<em>p</em>-Acetylphenethyl bromide;<em>p</em>-(2-Bromoethyl)acetophenone;1-Acetyl-4-(2-bromoethyl)benzene;4′-(β-Bromoethyl)acetophenone;4′-(2-Bromoethyl)acetophenone;4-Acetylphenethyl bromide;1-[4-(2-Bromoethyl)phenyl]ethan-1-one;2-[4-Acetylphenyl]ethyl bromide",
    "duplicated_cas_no": "",
    "SMILES": "C(C)(=O)C1=CC=C(CCBr)C=C1",
    "meta_data": {
        "InChI": "InChI=1S/C10H11BrO/c1-8(12)10-4-2-9(3-5-10)6-7-11/h2-5H,6-7H2,1H3",
        "InChIKey": null,
        "Canonical SMILES": "O=C(C1=CC=C(C=C1)CCBr)C",
        "Molecular Formula": "C<sub>10</sub>H<sub>11</sub>BrO",
        "Molecular Mass": "227.10",
        "Boiling Point": "111-112 °C @ Press: 0.3 Torr"
    }
}