{
    "cas_no": "150-76-5",
    "key_name": "4-Methoxyphenol",
    "cn_name": "4-甲氧基苯酚;对羟基苯甲醚;",
    "alternate_name": "Phenol, 4-methoxy-;Phenol, <em>p</em>-methoxy-;4-Methoxyphenol;Hydroquinone monomethyl ether;Mequinol;<em>p</em>-Methoxyphenol;4-Hydroxyanisole;<em>p</em>-Hydroxyanisole;1-Hydroxy-4-methoxybenzene;HQMME;Hydroquinone methyl ether;Leucobasal;Leucodine B;Mechinolum;Novo-Dermoquinona;<em>p</em>-Guaiacol;PMF (antioxidant);<em>p</em>-Hydroxymethoxybenzene;MEHQ;<em>p</em>-Hydroxyanisol;BMS 181158;MQ-F;NSC 4960;4-MP;<em>p</em>-Hydroxyphenyl methyl ether;Hydroxyquinone methyl ether;4-Hydroxyphenyl methyl ether;MQ;Methoquinone;HQ-MME;POEA 15;MO 123",
    "duplicated_cas_no": "",
    "SMILES": "O(C)C1=CC=C(O)C=C1",
    "meta_data": {
        "InChI": "InChI=1S/C7H8O2/c1-9-7-4-2-6(8)3-5-7/h2-5,8H,1H3",
        "InChIKey": null,
        "Canonical SMILES": "OC1=CC=C(OC)C=C1",
        "Molecular Formula": "C<sub>7</sub>H<sub>8</sub>O<sub>2</sub>",
        "Molecular Mass": "124.14",
        "Boiling Point": "243 °C @ Press: 760 Torr",
        "Melting Point": "57 °C",
        "Density": "1.55 g/cm³ @ Temp: 20 °C"
    }
}