{
    "cas_no": "4720-82-5",
    "key_name": "1,2-Bis(1,3-benzodioxol-5-yl)-2-hydroxyethanone",
    "cn_name": "3,4:3,4-双(亚甲二氧基)安息香;",
    "alternate_name": "Ethanone, 1,2-bis(1,3-benzodioxol-5-yl)-2-hydroxy-;Piperonyloin;1,2-Bis(1,3-benzodioxol-5-yl)-2-hydroxyethanone;Piperoin;3,4:3′,4′-Bis(methylenedioxy)benzoin;NSC 39453;NSC 40921;Bis(3,4-methylenedioxy)benzoin",
    "duplicated_cas_no": "",
    "SMILES": "C(C(=O)C=1C=C2C(=CC1)OCO2)(O)C=3C=C4C(=CC3)OCO4",
    "meta_data": {
        "InChI": "InChI=1S/C16H12O6/c17-15(9-1-3-11-13(5-9)21-7-19-11)16(18)10-2-4-12-14(6-10)22-8-20-12/h1-6,15,17H,7-8H2",
        "InChIKey": null,
        "Canonical SMILES": "O=C(C1=CC=C2OCOC2=C1)C(O)C3=CC=C4OCOC4=C3",
        "Molecular Formula": "C<sub>16</sub>H<sub>12</sub>O<sub>6</sub>",
        "Molecular Mass": "300.26",
        "Melting Point": "118 °C"
    }
}