{
    "cas_no": "562-10-7",
    "key_name": "Donormil",
    "cn_name": "琥珀酸多西拉敏;N,N-二甲基-2-[1-苯基-1-(2-吡啶)乙氧基]乙胺琥珀酸盐;",
    "alternate_name": "Butanedioic acid, compd. with <em>N</em>,<em>N</em>-dimethyl-2-[1-phenyl-1-(2-pyridinyl)ethoxy]ethanamine (1:1);Succinic acid, compd. with 2-[α-[2-(dimethylamino)ethoxy]-α-methylbenzyl]pyridine (1:1);Pyridine, 2-[α-[2-(dimethylamino)ethoxy]-α-methylbenzyl]-, succinate (1:1);Ethanamine, <em>N</em>,<em>N</em>-dimethyl-2-[1-phenyl-1-(2-pyridinyl)ethoxy]-, butanedioate (1:1);Decapryn succinate (1:1);2-[α-(2-Dimethylaminoethoxy)-α-methylbenzyl]pyridine succinate (1:1);Decapryn;Unisom;Hoggar N;Decapryn succinate;Alsodorm;Gittalun;Sedaplus;2-[α-(2-Dimethylaminoethoxy)-α-methylbenzyl]pyridine succinate;Decamium;Doxised;Meraprina;Mereprine;NSC 74772;Donormil;Donormyl;Dormidina",
    "duplicated_cas_no": "121367-03-1;7047-26-9",
    "SMILES": "C(OCCN(C)C)(C)(C1=CC=CC=C1)C2=CC=CC=N2.C(CC(O)=O)C(O)=O",
    "meta_data": {
        "InChI": "InChI=1S/C17H22N2O.C4H6O4/c1-17(20-14-13-19(2)3,15-9-5-4-6-10-15)16-11-7-8-12-18-16;5-3(6)1-2-4(7)8/h4-12H,13-14H2,1-3H3;1-2H2,(H,5,6)(H,7,8)",
        "InChIKey": null,
        "Canonical SMILES": "O=C(O)CCC(=O)O.N=1C=CC=CC1C(OCCN(C)C)(C=2C=CC=CC2)C",
        "Molecular Formula": "C<sub>17</sub>H<sub>22</sub>N<sub>2</sub>O.C<sub>4</sub>H<sub>6</sub>O<sub>4</sub>",
        "Molecular Mass": "",
        "Melting Point": "100-104 °C"
    }
}