{
    "cas_no": "5355-68-0",
    "key_name": "1-Isopropyl-4-piperidinone",
    "cn_name": "1-异丙基-4-哌啶酮;N-异丙基-4-哌啶酮;1-(1\"-甲基乙基)-4-哌啶酮;",
    "alternate_name": "4-Piperidinone, 1-(1-methylethyl)-;4-Piperidone, 1-isopropyl-;1-(1-Methylethyl)-4-piperidinone;1-Isopropyl-4-piperidinone;1-Isopropyl-4-piperidone;<em>N</em>-Isopropyl-4-piperidinone;<em>N</em>-Isopropyl-4-piperidone;1-(Propan-2-yl)piperidin-4-one;1-Propan-2-ylpiperidin-4-one",
    "duplicated_cas_no": "",
    "SMILES": "C(C)(C)N1CCC(=O)CC1",
    "meta_data": {
        "InChI": "InChI=1S/C8H15NO/c1-7(2)9-5-3-8(10)4-6-9/h7H,3-6H2,1-2H3",
        "InChIKey": null,
        "Canonical SMILES": "O=C1CCN(CC1)C(C)C",
        "Molecular Formula": "C<sub>8</sub>H<sub>15</sub>NO",
        "Molecular Mass": "141.21",
        "Boiling Point": "103 °C @ Press: 25 Torr",
        "Melting Point": "105-105.5 °C",
        "Density": "0.9495 g/cm³ @ Temp: 254 °C"
    }
}