{
    "cas_no": "506-87-6",
    "key_name": "Ammonium carbonate",
    "cn_name": "碳酸铵;",
    "alternate_name": "Carbonic acid, ammonium salt (1:2);Carbonic acid, diammonium salt;Diammonium carbonate;Ammonium carbonate ((NH<sub>4</sub>)<sub>2</sub>CO<sub>3</sub>);Ammonium carbonate;Bis(ammonium) carbonate;Baker's ammonia;Salt of hartshorn;Hartshorn",
    "duplicated_cas_no": "6721-33-1;40956-82-9",
    "SMILES": "C(=O)(O)O.N",
    "meta_data": {
        "InChI": "InChI=1S/CH2O3.2H3N/c2-1(3)4;;/h(H2,2,3,4);2*1H3",
        "InChIKey": null,
        "Canonical SMILES": "O=C(O)O.N",
        "Molecular Formula": "CH<sub>2</sub>O<sub>3</sub>.2H<sub>3</sub>N",
        "Molecular Mass": "",
        "Melting Point": "58 °C (decomp)"
    }
}