{
    "cas_no": "355-38-4",
    "key_name": "2,2,3,3,4,4,5,5,6,6,6-Undecafluorohexanoyl fluoride",
    "cn_name": "十一氟己酰氟;",
    "alternate_name": "Hexanoyl fluoride, 2,2,3,3,4,4,5,5,6,6,6-undecafluoro-;Hexanoyl fluoride, undecafluoro-;2,2,3,3,4,4,5,5,6,6,6-Undecafluorohexanoyl fluoride;Perfluorohexanoyl fluoride;Undecafluorohexanoyl fluoride;Perfluorohexanone",
    "duplicated_cas_no": "",
    "SMILES": "C(C(C(C(F)=O)(F)F)(F)F)(C(C(F)(F)F)(F)F)(F)F",
    "meta_data": {
        "InChI": "InChI=1S/C6F12O/c7-1(19)2(8,9)3(10,11)4(12,13)5(14,15)6(16,17)18",
        "InChIKey": null,
        "Canonical SMILES": "O=C(F)C(F)(F)C(F)(F)C(F)(F)C(F)(F)C(F)(F)F",
        "Molecular Formula": "C<sub>6</sub>F<sub>12</sub>O",
        "Molecular Mass": "316.04",
        "Boiling Point": "60-65 °C"
    }
}