{
    "cas_no": "1469-48-3",
    "key_name": "<em>cis</em>-1,2,3,6-Tetrahydrophthalimide",
    "cn_name": "顺-1,2,3,6-四氢邻苯二甲酰亚胺;四氢吩胺;四氢邻苯二甲酰亚胺;顺-1,2,3,6-四氢邻苯二甲酰亚胺;",
    "alternate_name": "1<em>H</em>-Isoindole-1,3(2<em>H</em>)-dione, 3a,4,7,7a-tetrahydro-, (3a<em>R</em>,7a<em>S</em>)-<em>rel</em>-;4-Cyclohexene-1,2-dicarboximide, <em>cis</em>-;1<em>H</em>-Isoindole-1,3(2<em>H</em>)-dione, 3a,4,7,7a-tetrahydro-, <em>cis</em>-;<em>rel</em>-(3a<em>R</em>,7a<em>S</em>)-3a,4,7,7a-Tetrahydro-1<em>H</em>-isoindole-1,3(2<em>H</em>)-dione;<em>cis</em>-4-Cyclohexene-1,2-dicarboximide;<em>cis</em>-Δ<sup>4</sup>-Tetrahydrophthalimide;<em>cis</em>-Tetrahydrophthalimide;NSC 41605;<em>cis</em>-1,2,3,6-Tetrahydrophthalimide",
    "duplicated_cas_no": "565227-54-5;1629012-96-9;1802684-60-1;2068715-78-4;2983181-49-1",
    "SMILES": "O=C1[C@@]2([C@](C(=O)N1)(CC=CC2)[H])[H]",
    "meta_data": {
        "InChI": "InChI=1/C8H9NO2/c10-7-5-3-1-2-4-6(5)8(11)9-7/h1-2,5-6H,3-4H2,(H,9,10,11)/t5-,6+",
        "InChIKey": null,
        "Canonical SMILES": "O=C1NC(=O)C2CC=CCC12",
        "Molecular Formula": "C<sub>8</sub>H<sub>9</sub>NO<sub>2</sub>",
        "Molecular Mass": "151.16",
        "Boiling Point": "142-146 °C @ Press: 2 Torr",
        "Melting Point": "136.5-137.3 °C"
    }
}