{
    "cas_no": "587-48-4",
    "key_name": "3-Acetamidobenzoic acid",
    "cn_name": "3-乙酰氨基苯甲酸;",
    "alternate_name": "Benzoic acid, 3-(acetylamino)-;Benzoic acid, <em>m</em>-acetamido-;3-(Acetylamino)benzoic acid;<em>m</em>-Acetylaminobenzoic acid;3-Acetamidobenzoic acid;1-Acetylamino-3-carboxybenzene;3-Acetylaminobenzoic acid;NSC 4001",
    "duplicated_cas_no": "861510-59-0",
    "SMILES": "N(C(C)=O)C1=CC(C(O)=O)=CC=C1",
    "meta_data": {
        "InChI": "InChI=1S/C9H9NO3/c1-6(11)10-8-4-2-3-7(5-8)9(12)13/h2-5H,1H3,(H,10,11)(H,12,13)",
        "InChIKey": null,
        "Canonical SMILES": "O=C(O)C=1C=CC=C(C1)NC(=O)C",
        "Molecular Formula": "C<sub>9</sub>H<sub>9</sub>NO<sub>3</sub>",
        "Molecular Mass": "179.17",
        "Melting Point": "240-245 °C"
    }
}