{
    "cas_no": "22889-78-7",
    "key_name": "4-Amino-3,5-dichloropyridine",
    "cn_name": "4-氨基-3,5-二氯吡啶;",
    "alternate_name": "4-Pyridinamine, 3,5-dichloro-;Pyridine, 4-amino-3,5-dichloro-;3,5-Dichloro-4-pyridinamine;3,5-Dichloro-4-aminopyridine;4-Amino-3,5-dichloropyridine;3,5-Dichloropyridin-4-ylamine;3,5-Dichloropyridin-4-amine;3,5-Dichloropyridine-4-amine",
    "duplicated_cas_no": "",
    "SMILES": "NC=1C(Cl)=CN=CC1Cl",
    "meta_data": {
        "InChI": "InChI=1S/C5H4Cl2N2/c6-3-1-9-2-4(7)5(3)8/h1-2H,(H2,8,9)",
        "InChIKey": null,
        "Canonical SMILES": "ClC1=CN=CC(Cl)=C1N",
        "Molecular Formula": "C<sub>5</sub>H<sub>4</sub>Cl<sub>2</sub>N<sub>2</sub>",
        "Molecular Mass": "163.00",
        "Melting Point": "161 °C"
    }
}