{
    "cas_no": "18968-05-3",
    "key_name": "β-<span class=\"text-smallcaps\">D</span>-Mannopyranose, 1,3,4,6-tetraacetate",
    "cn_name": "1,3,4,6-四-氧-乙酰-β-D-吡啶甘露糖;",
    "alternate_name": "β-<span class=\"text-smallcaps\">D</span>-Mannopyranose, 1,3,4,6-tetraacetate;Mannopyranose, 1,3,4,6-tetraacetate, β-<span class=\"text-smallcaps\">D</span>-;1,3,4,6-Tetra-<em>O</em>-acetyl-β-<span class=\"text-smallcaps\">D</span>-mannopyranose",
    "duplicated_cas_no": "",
    "SMILES": "O(C(C)=O)[C@H]1[C@H](OC(C)=O)[C@H](O)[C@H](OC(C)=O)O[C@@H]1COC(C)=O",
    "meta_data": {
        "InChI": "InChI=1S/C14H20O10/c1-6(15)20-5-10-12(21-7(2)16)13(22-8(3)17)11(19)14(24-10)23-9(4)18/h10-14,19H,5H2,1-4H3/t10-,11+,12-,13-,14-/m1/s1",
        "InChIKey": null,
        "Canonical SMILES": "O=C(OCC1OC(OC(=O)C)C(O)C(OC(=O)C)C1OC(=O)C)C",
        "Molecular Formula": "C<sub>14</sub>H<sub>20</sub>O<sub>10</sub>",
        "Molecular Mass": "348.30",
        "Melting Point": "134-136 °C"
    }
}