{
    "cas_no": "15100-75-1",
    "key_name": "<span class=\"text-smallcaps\">L</span>-Phenylalanine, 1,1-dimethylethyl ester, hydrochloride (1:1)",
    "cn_name": "L-苯丙氨酸叔丁酯盐酸盐;",
    "alternate_name": "<span class=\"text-smallcaps\">L</span>-Phenylalanine, 1,1-dimethylethyl ester, hydrochloride (1:1);Alanine, phenyl-, <em>tert</em>-butyl ester, hydrochloride, <span class=\"text-smallcaps\">L</span>-;<span class=\"text-smallcaps\">L</span>-Phenylalanine, 1,1-dimethylethyl ester, hydrochloride;(<em>S</em>)-Phenylalanine <em>tert</em>-butyl ester hydrochloride;Phenylalanine <em>tert</em>-butyl ester hydrochloride;<em>tert</em>-Butyl <span class=\"text-smallcaps\">L</span>-phenylalaninate hydrochloride;<span class=\"text-smallcaps\">L</span>-Phenylalanine <em>tert</em>-butyl ester hydrochloride;NSC 96688;<em>tert</em>-Butyl (<em>S</em>)-2-amino-3-phenylpropanoate hydrochloride;<em>tert</em>-Butyl phenylalaninate hydrochloride",
    "duplicated_cas_no": "",
    "SMILES": "C([C@@H](C(OC(C)(C)C)=O)N)C1=CC=CC=C1.Cl",
    "meta_data": {
        "InChI": "InChI=1S/C13H19NO2.ClH/c1-13(2,3)16-12(15)11(14)9-10-7-5-4-6-8-10;/h4-8,11H,9,14H2,1-3H3;1H/t11-;/m0./s1",
        "InChIKey": null,
        "Canonical SMILES": "Cl.O=C(OC(C)(C)C)C(N)CC=1C=CC=CC1",
        "Molecular Formula": "C<sub>13</sub>H<sub>19</sub>NO<sub>2</sub>.ClH",
        "Molecular Mass": "",
        "Melting Point": "208-211 °C"
    }
}