{
    "cas_no": "590-29-4",
    "key_name": "Potassium formate",
    "cn_name": "甲酸钾;",
    "alternate_name": "Formic acid, potassium salt (1:1);Potassium formate;Formic acid, potassium salt;EcoForm PF 75;Meltium;FP 40;Desmorapid 30HB14;Dabco TMR 25",
    "duplicated_cas_no": "2414873-70-2",
    "SMILES": "C(O)=O.[K]",
    "meta_data": {
        "InChI": "InChI=1S/CH2O2.K/c2-1-3;/h1H,(H,2,3);",
        "InChIKey": null,
        "Canonical SMILES": "[K].O=CO",
        "Molecular Formula": "CH<sub>2</sub>O<sub>2</sub>.K",
        "Molecular Mass": "",
        "Melting Point": "167 °C",
        "Density": "1.91 g/cm³"
    }
}