{
    "cas_no": "112522-64-2",
    "key_name": "Tacedinaline",
    "cn_name": "4-乙酰氨基-N-(2\"-氨基苯基)-苯甲酰胺;",
    "alternate_name": "Benzamide, 4-(acetylamino)-<em>N</em>-(2-aminophenyl)-;4-(Acetylamino)-<em>N</em>-(2-aminophenyl)benzamide;Goe 5549;Acetyldinaline;CI 994;PD 123654;Tacedinaline;<em>N</em>-Acetyldinaline",
    "duplicated_cas_no": "919788-39-9",
    "SMILES": "N(C(=O)C1=CC=C(NC(C)=O)C=C1)C2=C(N)C=CC=C2",
    "meta_data": {
        "InChI": "InChI=1S/C15H15N3O2/c1-10(19)17-12-8-6-11(7-9-12)15(20)18-14-5-3-2-4-13(14)16/h2-9H,16H2,1H3,(H,17,19)(H,18,20)",
        "InChIKey": null,
        "Canonical SMILES": "O=C(NC=1C=CC=CC1N)C2=CC=C(C=C2)NC(=O)C",
        "Molecular Formula": "C<sub>15</sub>H<sub>15</sub>N<sub>3</sub>O<sub>2</sub>",
        "Molecular Mass": "269.30",
        "Melting Point": "216.1 °C"
    }
}