{
    "cas_no": "52780-14-0",
    "key_name": "1-(3-Bromophenyl)ethanol",
    "cn_name": "3-溴-α-甲基苯甲醇;",
    "alternate_name": "Benzenemethanol, 3-bromo-α-methyl-;Benzyl alcohol, <em>m</em>-bromo-α-methyl-;3-Bromo-α-methylbenzenemethanol;1-(3-Bromophenyl)ethanol;3-Bromophenylmethylcarbinol;NSC 143363;<em>m</em>-Bromo-α-methylbenzyl alcohol;1-(3-Bromophenyl)ethan-1-ol",
    "duplicated_cas_no": "64382-14-5",
    "SMILES": "C(C)(O)C1=CC(Br)=CC=C1",
    "meta_data": {
        "InChI": "InChI=1S/C8H9BrO/c1-6(10)7-3-2-4-8(9)5-7/h2-6,10H,1H3",
        "InChIKey": null,
        "Canonical SMILES": "BrC1=CC=CC(=C1)C(O)C",
        "Molecular Formula": "C<sub>8</sub>H<sub>9</sub>BrO",
        "Molecular Mass": "201.06",
        "Boiling Point": "136-140 °C @ Press: 20 Torr",
        "Density": "1.4697 g/cm³ @ Temp: 20 °C"
    }
}