{
    "cas_no": "354-32-5",
    "key_name": "Trifluoroacetyl chloride",
    "cn_name": "三氟乙酰氯;",
    "alternate_name": "Acetyl chloride, 2,2,2-trifluoro-;Acetyl chloride, trifluoro-;2,2,2-Trifluoroacetyl chloride;Trifluoroacetyl chloride;Perfluoroacetyl chloride",
    "duplicated_cas_no": "",
    "SMILES": "C(C(Cl)=O)(F)(F)F",
    "meta_data": {
        "InChI": "InChI=1S/C2ClF3O/c3-1(7)2(4,5)6",
        "InChIKey": null,
        "Canonical SMILES": "O=C(Cl)C(F)(F)F",
        "Molecular Formula": "C<sub>2</sub>ClF<sub>3</sub>O",
        "Molecular Mass": "132.47",
        "Boiling Point": "-27 °C"
    }
}