{
    "cas_no": "548-89-0",
    "key_name": "4-Carboxy-3-hydroxy-5-methylphenyl 4-[(2,4-dihydroxy-6-methylbenzoyl)oxy]-2-hydroxy-6-methylbenzoate",
    "cn_name": "石耳酸;",
    "alternate_name": "Benzoic acid, 4-[(2,4-dihydroxy-6-methylbenzoyl)oxy]-2-hydroxy-6-methyl-, 4-carboxy-3-hydroxy-5-methylphenyl ester;β-Resorcylic acid, 6-methyl-, 4-(6-methyl-β-resorcylate) 4-(6-methyl-β-resorcylate);β-Resorcylic acid, 6-methyl-, 4-ester with 6-methyl-β-resorcylic acid, 4-(6-methyl-β-resorcylate);4-Carboxy-3-hydroxy-5-methylphenyl 4-[(2,4-dihydroxy-6-methylbenzoyl)oxy]-2-hydroxy-6-methylbenzoate;Gyrophoric acid;NSC 646006",
    "duplicated_cas_no": "",
    "SMILES": "C(OC1=CC(C)=C(C(O)=O)C(O)=C1)(=O)C2=C(C)C=C(OC(=O)C3=C(C)C=C(O)C=C3O)C=C2O",
    "meta_data": {
        "InChI": "InChI=1S/C24H20O10/c1-10-4-13(25)7-16(26)20(10)23(31)34-15-6-12(3)21(18(28)9-15)24(32)33-14-5-11(2)19(22(29)30)17(27)8-14/h4-9,25-28H,1-3H3,(H,29,30)",
        "InChIKey": null,
        "Canonical SMILES": "O=C(O)C1=C(O)C=C(OC(=O)C2=C(O)C=C(OC(=O)C=3C(O)=CC(O)=CC3C)C=C2C)C=C1C",
        "Molecular Formula": "C<sub>24</sub>H<sub>20</sub>O<sub>10</sub>",
        "Molecular Mass": "468.41",
        "Melting Point": "230 °C (decomp)"
    }
}