{
    "cas_no": "1578-63-8",
    "key_name": "α-Fluorobenzeneacetic acid",
    "cn_name": "α-氟苯基乙酸;",
    "alternate_name": "Benzeneacetic acid, α-fluoro-;Acetic acid, fluorophenyl-;α-Fluorobenzeneacetic acid;α-Fluorophenylacetic acid;2-Fluoro-2-phenylacetic acid;(±)-2-Fluoro-2-phenylacetic acid;(±)-α-Fluorophenylacetic acid",
    "duplicated_cas_no": "108733-05-7",
    "SMILES": "C(C(O)=O)(F)C1=CC=CC=C1",
    "meta_data": {
        "InChI": "InChI=1S/C8H7FO2/c9-7(8(10)11)6-4-2-1-3-5-6/h1-5,7H,(H,10,11)",
        "InChIKey": null,
        "Canonical SMILES": "O=C(O)C(F)C=1C=CC=CC1",
        "Molecular Formula": "C<sub>8</sub>H<sub>7</sub>FO<sub>2</sub>",
        "Molecular Mass": "154.14",
        "Melting Point": "83-85 °C"
    }
}