{
    "cas_no": "1202-66-0",
    "key_name": "<em>N</em>-Acetyltyramine",
    "cn_name": "N-乙酰基酪胺;N-[2-(4-羟基苯基)乙基]乙酰胺;",
    "alternate_name": "Acetamide, <em>N</em>-[2-(4-hydroxyphenyl)ethyl]-;Acetamide, <em>N</em>-(<em>p</em>-hydroxyphenethyl)-;<em>N</em>-[2-(4-Hydroxyphenyl)ethyl]acetamide;<em>N</em>-Acetyltyramine;Tyramine, <em>N</em>-acetyl-;<em>N</em>-(4-Hydroxyphenethyl)acetamide",
    "duplicated_cas_no": "",
    "SMILES": "C(CNC(C)=O)C1=CC=C(O)C=C1",
    "meta_data": {
        "InChI": "InChI=1S/C10H13NO2/c1-8(12)11-7-6-9-2-4-10(13)5-3-9/h2-5,13H,6-7H2,1H3,(H,11,12)",
        "InChIKey": null,
        "Canonical SMILES": "O=C(NCCC1=CC=C(O)C=C1)C",
        "Molecular Formula": "C<sub>10</sub>H<sub>13</sub>NO<sub>2</sub>",
        "Molecular Mass": "179.22",
        "Melting Point": "169 °C"
    }
}