{
    "cas_no": "9003-08-1",
    "key_name": "Melamine resin",
    "cn_name": null,
    "alternate_name": "1,3,5-Triazine-2,4,6-triamine, polymer with formaldehyde;Melamine, polymer with formaldehyde;Melamine-formaldehyde resin;Methylenemelamine polycondensate;Formaldehyde-melamine condensate;Formaldehyde-melamine resin;Melamine-formaldehyde copolymer;Formaldehyde-melamine polymer;Melamine-formaldehyde polymer;Melamine-formaldehyde condensate;2,4,6-Triamino-<em>s</em>-triazine-formaldehyde polymer;Formalin-melamine copolymer;Cibamin M 84;Parez 607;Cymel 481;ML 045;Cymel 1116;BL 25;Sumirez Resin 613;Sumirez 613;Uformite MM 83;Sumirez 607;G 3;Cymel 7273-7;Cymel 247-10;Resimene X 735;Aerotex UM;Resimene X 740;Resloom HP;Melan 245;Dynomin MM 75;G 3 (resin);Mel-Iron A;Schercomel M;X 3387;Resydrol WM 501;Resimene X 712;Resimene X 714;Resimene X 720;Resimene X 730;Aerotex 92;Tanak M 3;Tanak MRX;CR 2024;Aerotex 3700;Accobond 3900;Beetle BT 309;Melolam 285;Sumitex M 3;M 3 (melamine polymer);Melform E 55;Melapret P;Plyamine M 27;Melform E 45;Cymel 1080;Madurit MW 161;Cyrez;Resimene 755;UGM 3;Melan 27;Merkapol P;M 3;U-Loid 344;Beckamine G 82;BC 336;Watersol S 695;Sumimal M 30W;Melolam;XM 1116;BL 35;Cymel 301;Cymel XM 1116;BC 71;BC 27;U-Van 20SE;Melan X 28;HM 100;Plyset TD 688;Nikalac MS 21;Accobond 3524;Aerotex M 3;Aerotex MW;Arigal C;Arkofix NM;Cassurit MLP;Deglaresin;Hicofor PR;K 121-02;K 421-02;Madurit MS;Madurit OP;Maprenal TTX;Melaform 150;Melalit;Melolak B;Meloplast B;Plaskon 3369;Plaskon 3381;Plaskon 3382;Prioset TD 756;Resimene 750;Resimene 817;Solapret MH;Uformite MM 46;Uformite QR 336;U-Van 20SB;VML 2;Sumimal M 62W;Beetle BC 27;Beetle BC 71;Resimene 740;U-Van 20SA;Maprenal MF;Maprenal VMF;Resimene X 745;Nikaresin S 176;PWP 8;Melaform;Melopas AMP 1;K 421-01;Maprenal VMF 52/7;Maprenal MF 900;Beckamine J 1012;WM 100;Melaform WM 100;Accobond 3903;Resamin MW 811;Nikalac MW 12LF;Aerotex resin MW;Super-Beckamine L 101;Resimene 731;Resimene X 764;Beckamine PM;Melan 20;Cymel 255;MX 40;Super-Beckamine J 820-60;Nikalac MW 30;Polomel MEC 3;Polomel ME 3;Cymel 385;Cymel 243-3;Cymel 1156;Beckamine MA-S;MeC 3;Beetle BE 681;Cyrez 966;Melan 15;Beetle BE 336;Super-Beckamine J 820;J 820;Cohedur A;GM 3;Melaform WM 6;U-Van 60R;U-Van 20SE60;Melan 22;Mirbane SM 850;Sumitex MW;Pressal;Diamelkol;Super-Beckamine 13-502;G 821;Super-Beckamine;Polpretan K 2;LMB 357;Maprenal NPX;Cymel 303;Madurit MW 638;Sumimal M 50W;Lyofix CH;Kauramin 542;Sumimal M;MW 30;Cymel 1130;Lyofix CHN;Sumimal M 70;Merkapol PG;Whiteset;MS-R 100S;Cymel 300;Romhidrol M 501;D 100-2;20SE60;Epok U 9192;Sumitex Resin MC;Sumitex MC;Cymel 373;Nikaresin S 305;Nikaresin S 260;S 260;X 242K;Cymel 350;Kauramin 782;Suntop M 700;SPMF 6;SPMF 7;Melan X 65;Super-Beckamine G 821;Beckamine J 101;Sumitex MK;S-Resin SA-N 30;Pryskyrice MH;K 423-02;Kauramin 650;Cymel 325;Cymel 265J;Sumitex M 6;Slomelam 2;CA 105;Super Beckosol ODL 131-60;Melamine-formol copolymer;MM 83;Beetle BT 670;Watersol S 683;Resimene 841;VU 59-3N;Resimene 714;Nikalac MW 12;NK Faster;Sumimal 100C;Polyfix PM 107;MS 21;Melan 28;Sumimal M 66B;Melasil K 1;Melasil K 2;Riken Resin MA 31;Maprenal MF 590;L 109-65;Melamine 20;Maprenal RT-MF 650;Cymel 428;Beckamine PM-N;Nikalac MS 11;Melan 23;Uformite MM 47;Melan 21A;Standopal;Resloom HP 50;Beckamine L 105-60;U-Van 28SE;Melan 243;Piafol;BN 30;Resimene 842;Cyrez 963P-A;Nikalac MX 40;Kaurit M 70;Parez 613;Beetle BC 371;Beetle BC 309;Parez 707;Sumirez M 613;Nikalac MX 705;M 76 (polymer);Melan X 71;Melan 28D;Maprenal MF 980;Maprenal MP 500;Nikalac MS 40;VU 51-3N;Tybon N 1765A;Melasil K 3;Formin K-K;Cymel 482;SPMF 4;Rostone 2150;Beckamine J 820;Cymel 412;Nikalac 031;Melan 29;L 121-60;Bancemine 115-60;Sumikanol 508;Melan 125;Madurit MW 150;M 76;PWP 15;Beetle BE 687;Melolak B-II;MFAS-R 100P;Tesmin ME 50L;Tesmin 201-80;Cymel 245;Beckamine APH;Cassurit HML;Resimene RF 5306;BMF 1 (aminoplast);Lyofix CHN-ZA;BMF 1;VU 5711N;Syn-U-Tex 4113E;U-Van 220;U-Van 221;Melan 28A;Madurit TN;Madurit 5238N;Super-Beckamine J 1600;Sumimal 100;Sumimal M 504C;Super-Beckamine L 121-60;Bancemine SM 975;Madurit VMW 3489;Madurit VMW 3490;Madurit VMW 3494;Madurit MW 484;Madurit VMW 3284;Madurit VMW 3399;Madurit MW 392;Madurit 152;Cymel 305;Nikalac MX 45;Cymel 1158;Cibamin M 100;Deglaresin N 12;Bancemine 125-60;Super-Beckamine L 121;Polyfix PM 5;Super-Beckamine J 820-40;Nikalac MW 22;Cymel 200;Melform 45;GM 4;Madurit MW 559;Maprenal MF 920;Beetle BE 645;RR 15-12-120;U-Van 20HS;Biomine 1651;Watersol S 685;Super-Beckamine G 821-60;Piamid;Nikalac MW 40;Mel-F;Nikalac MX 706;Sumimal M 40S;Proban 420B;Orga 100-2;Cassurit MT;U-Van 21R;Resimene 717;Melasil K 1S;BL 434;Bancemine SM 947;U-Van 102;Melopas 183GF;Maprenal MF 650;Basotect;SM 67;Resimene 745;Resimene 753;Melarom 3;Cymel C 1156;Super-Beckamine L 105-60;Super-Beckamine J 820-50;Setamine US 138BB70;Formaldehyde, polymer with 1,3,5-triazine-2,4,6-triamine;MF 910;U-Van 22R;Bancemine SM 970;Kauramin 700;UV 20SR;U-Van 128;Metazin 6U;U-Van 62;MR 1;Melopas N 37601;Melan 284A;Melform M 45S<sub>1</sub>;U-Van 122;Resimene 747;1PC6115;U-Van 21HV;Aerolite MF 15;Cymel 327;Maprenal MF 910;Super-Beckamine VG 118-60;Madurit MW 166;Maprenal MF 904;Maprenal MF 915;Maprenal MF 927;Melan 630;Tesmin 250-60;Tesmin 251-60;Super-Beckamine L 116-70;U-Loid 230;Cymel 1161;Cymel 266J;Sumifloc CL 8;Mirbane 850;U-Van 20SE50;Cyrez 933;Suntop M 701;Cyrez 963;Super-Beckamine L 117-60;Sumimal M 100C;Super-Beckamine L 105;Nanoplast FB 101;MR 67;Beckamine MA-N;Nikalac MX 485;S 1708;S 1710;S 1711;S 1707;SA 20.16;S 5057;Maprenal VMF 3655;Maprenal VMF 3935;Maprenal VMF 3925;Beckamine J 820-60;Melform E 50;ML 21;ML 133;Melan 26;Cassurit MLS;Melan 287;MR 231;Melan 8000;XM 1130;Cymel 1133;U-Van 120;Melan 445;MM 160V30M;Madurit MW 815;Madurit VMW 3819;Madurit VMW 3822;Cymel 235;U-Van 28N;Setamine US 139BB70;U-Loid UL 213-2;Resimene 746;Amilac 3;Super-Beckamine L 127-75B;Beetle 3735;Madurit VMW 3151;Madurit VMW 3114;Madurit VMW 3113;Madurit MW 112;Madurit MW 111;Beetle BT 336;Beetle BT 370;Cibamin ML 1000GB;Nikalac MS 001;Super-Beckamine L 125-60;BE 669;Beetle BE 669;BE 670;Beetle BE 670;Beetle 323;Beetle BT 323;Sumitex Resin M 3;Beetle BE 683;Beetle BE 3735;Beetle BE 3747;Beetle BE 3021;Tesmin 210;Luwipal 012;Melan 2000;Maprenal 980;SK 1 (plasticizer);Melamine resin;SK 1;Pidifix 303;Resydrol WM 461E;Savemix C 100;Nikalac MW 30M;Nikaresin S 306;U-Van 20N60;Cymel 1130-254J;L 6504;Super-Beckamine J 840;Melamine 366;Super-Beckamine L 117;Cymel 1370;QR 483;Melan 523;Super-Beckamine 47-508;Cymel 1130-285J;Maxichem 1DTM;Magnifloc 509C;U-Van 20S;Resimene RF 4518;Maprenal MF 929;Cymel HM 6;MFP 8;Super-Beckamine L 145-60;Beckamine APM;Madurit VMW 3163;Cyrez 963P;U-Van 166-60;M 33W;U-Van 2020;Sumimal M 40W;Beetle 336;Cymel 323;Nikalac MW 10LF;Elastofix ACS;Cymel 1130-235J;Super-Beckamine 114-60;Sumitex M 10;Sumimal M 100D;Mirbane SM 800;Cymel 380;Resimene RS 466;ML 630;Beetle 338;MX 705;MS 001;Meldur MS 80;Presal R 60;Budamin MF 55I;Viamin MF 514;Mikronal S 40;Resimene 730;Unica F 730;Epostar EPS-S;Super-Beckamine L 117-70B;Sumimal M 22;ML 3120;Sancoat PW 701;MF 009;Melan 620;Super-Beckamine L 127-60;Melan 220;Mirbane SM 607;Nikalac MX 750;Nikalac MX 032;U-Ramin T 34;U-Ramin P 6100;U-Ramin T 23-60;U-Ramin P 6300;Dynomin MM 9;Dynomin MM 100;Resin 516;Unica Resin 380K;MSP 100F;U-Van 28;U-Van 225;Unica 380K;SM 700;Cymel 202;Lyofix MLF;Cymel 1135;Nikalac MX 054;Super-Beckamine 47-508-60;Melasil U;Melasil U 1;Melasil U 2;Nikalac MX 430;U-Ramin T 33;Sumirez 615;Setamine US 132;BP 1;Setamine US 141;Prox M 3R;Sumimal M 55;Sumimal M 65B;Tesazin 3105-60;Mirbane MR 2;Budamin MF 60I;Viamin MF 754;Luplast BP 1;Suntop M 300;MF 004;Cymel 285;Astromel NW 6A;Cymel 1168;K 421-05;Nikalac MX 65;Suntop M 420;Maprenal MF 800;Cymel 267;U-Van 614;MW 085;Aerotex 3030;Sumikanol 507;PK 9511;Resinset Insolubilizer 656-4;Cassurit F;Univeks WA;L 140;UM 30M;Nanoplast MME 7002;Nikalac 305;Nikalac MW 24;Cymel 272;Cymel 254;Nikalac MX 031;Cymel 401;Maprenal MF 600;Maprenal MF 750;Maprenal WL;Maprenal RT;Metazin;Poly(formaldehyde-melamine);Cymel 1158/80;Cymel 254/80;Maprenal MF 915/75;Viamin MF 514/60;S 305;Resimene 797;Cymel C 238;Nikalac MX 43;Madurit 320;Larithane CL 3A;Super-Beckamine L 110-60;G 9 (aminoplast);G 9;PGS 15;Mirbane SM 700;Madurit MW 909;ML 21 (polymer);PFEL 15;Cargill 2347;Melami 90;Melami 1;Cymel C 35;K 421-02KB;Mycoat 506;ML 725;Luwipal 066;CP 9012;Cyanamid C 325;Cymel 771;Nikalac MX 500;Nikalac MX 600;Nikalac MS 95;Luwipal 068;Super Resamin 18706;Nikalac MX 708;M 700;Watersol S 683IM;U 100 (aminoplast);U 100;Melafob S;Cymel 325-101;M 80 (aminoplast);BT 427;M 80;Hydolan F 24;US 138;Super-Beckamine L 820-60;Cymel 405;Nikalac MX 101;Orgaselect;Sumimal MC 1;Sumimal M 50;BE 340;Cymel XV 805;U-Van 2061;Paracron MB 111C;Beetle BE 692;Sumimal M 8B;Cymel 236;BL 25 (aminoplast);BL 35 (aminoplast);Yuri UM 2;Mirbane SM 805;H 9044;ML 289;ML 245;Resimene 3520;Melamine Dust H 9044;Nikalac MW 24X;Cymel 328;Cymel 266;Maprenal TTK;Protex M 3M;EMEC 6;Nikalac MW 30HM;Doresco BM 8-1;Cymel C 303;Cymel C 506;Sumimal M 100;C 303;MA 1 (aminoplast);MA 1;Cascomel MF 600;Aricel PC 6N;Luwipal LR 8839;Nikalac N 8201;Acrafix MF;S-Resin SA 30;Granofin MH;Granofin MHN;MB 903;Super-Beckamine 13-548;U-Van 520;U-Van 2021;U-Van 2028;U-Van 165;U-Van 164;Luwipal LR 8852;Luwipal 8735;Resimene HM 3771;Resimene BM 9539;Resimene BM 5503;Cymel 712;Cymel C 267;Melaplast WNC;Sadecol L 5043H;Melaplast A 60;SM 960;Madurit MW 167;Madurit MW 114;Madurit VMW 3118;Madurit MW 113;Madurit VMW 3117;Cargill 23-2347;Resimene X 747;Madurit MW 330;Resimene HM 2612;Super-Beckamine J 830;U-Van 20RI;Sumirez AC 8;Transmat ST;Amilac 1400;C 8K;Super-Beckamine L 109-065;Maprenal VMF 3615;U-Van 280;Melflow X 100;Madurit HW 550;Cymel 322;U-Van 61;MW 051;MW 900;MW 053;Luwipal 013;Luwipal LR 8735;Permafresh Mel 80;Super-Beckamine L 145;Melolam 1769;Super-Beckamine S 695;Cyrez 964;MX 470;MC 1;M 100C;M 68B;Madurit 550;Melasil Z;Cymel 303LF;Beetle BT 338;U-Van 28-60;SR 613;Super-Beckamine L 164;Resimene 7550;MW 12LF;Saduren DS 2060;NR 300;TMF;Super-Beckamine L 161;RAQ 7750;RA 65;RA 50S;RA 50C;RA 50H;RA 50N;Nikalac MW 100LM;Resimene 7554HM;Saduren 163;U-Van XM 40;Super-Beckamine L 177-60;Sumitex Resin MK;Cassurit HMA;Super-Beckamine 14-570C;Maprenal 650;Melan 268A;Nikalac MX 41;Madurit MW 320PLW;Aerotru 19;Tesazin 3024;Resimene 7;Lead Lite;M 310;S 695;Nikalac MX 57;MW 095;Sumikaflex M 3;U-Van 20N;BB 40;Basotect V 3012;Astro Aricel PC 6N;Resimene RF 4514;Lamelite 140;Sumimal M 3;U 814;Cymel 370;U-Loid U 814;MW 100LM;Beckamine PMN-N;BM 7512;HM 2608;Maprenal VMF 3921w;Beetle PT 336;GM 3 (polymer);GT resin;Riken Resin MA 100;Melan 221;Resloom RM 441;Resloom 475;Melopas HT;Luwipal 044;Cymel 324;Sumirez SR 613;AM 146 (melamine resin);Astromel CR 1;Beetle Resin BE 3717;Beetle BE 3717;Aricel PC 6A;Sumiresin 613;Cymel 303F;U-Ramin T 21;Luwipal 8792;ML 60;Melapret PT 60;MW 5;Formaldehyde-melamine copolymer;Melan X 66;Resimene 751;MM 500Q;Berset 2003;Sequamel 80;Auramel 484;Auramel M 75;Aurarez 963;Uramex CP 1132MF;N 1311;Beetle BE 3745;Mycoat 508;Rolafret MEL;Kauramin 260;Super-Beckamine L 107-70;Nikalac MX 035;MF 013 (melamine resin);MB 925;Madurit SMW 818;MF 013;MF 415;Cymel 204;Melan 242;Nikalac MS 35;Nikalac MS 25;Beckamine L 116;B 9476;Hitterlite H 834S;MW 30M;Melan 13;Mycoat KC 16;RP 50;SM 653;Cymel 238;Fudowlite M 100F;Sumirez Resin M 33W;Sumirez M 33W;U-Van 361;Sumirez Resin 615;Nikalac NS 11;NS 11;Epostar S 12;BT 338;H 834S;U-Loid 811;Cymel 320;Melan 289;Mycoat 776;CP 9012SD;U-Van 28SE60;ML 2000;Cymel 352;Cymel 345;Resimene CE 7103;Setamine US 144BB60;Cymel 211;MX 50;Kauramin 786;MX 50 (aminoplast);Luwipal 018;Pressamine M 503;8% AC;Melan 269;Chrysogyplast PL 100R;Cymel M 3;Cymel 721;Cymel 701;Resimene 757;Kauramin 771;Astromel 400;Resimene AQ 1616;MX 303;Beetle BE 3020;Sumikanol 507K;Kauramin 787;Sumikanol 507A;SP Thermodic B;M 310 (aminoplast);Sumitex Resin 380K;Nikalac MX 042;Nikalac MW 100;Melan X 27;Maprenal VMF 3924;Cymel 203;Sumitex 380K;Mycoat 548;Mycoat G 1;Delicon 300;Super-Beckamine 17-590;Delicon 700;AQ 7550;KM 101671;Sumimal 66B;Melresin;Resimene CE 4514;Resimene CE 6517;Resimene 7512;Resimene 735;Resimene 6550;Mycoat 212;MW 60;Cyrez 964RPC;Pidifix 330;Sumirez Resin 513;Sumirez 513;Additol XT 922;U-Van 28-70W;Mycoat 254;Melinex MFB 10B11;Parez resin 613;Additol VXT 3923;Nikalac MK 45;U-Ramin T 566;C 305;Sumilit M 3;C 305 (polymer);Cymel 375;Resimene AG 7550;AG 7550;Epostar S;Epostar S 6;CRA 100;Cymel C 285;S 176;MX 788;HUX-W;Beetle 370;Setamine US 132BB71;U-Van 226;U-Van 20SB75;MF 97;Maprenal VMF 3921;Kauramin 710;Resimene 737;Nikaresin S 166;Super-Beckamine L 109-60;Melan 522;Maprenal NS 900;Polyfix LF 11;LF 11;Maprenal VMF 3611/70B;C 254;MF 008 (coating);MF 008;Jayfloc 824;MR 1 (aminoplast);Melan 265;Luwipal 1018;Cymel C 300;Setamine MS-AQ 80;NW 12LF;Sumikon MMC 50;Luwipal 73;Cymel 730;Cyrez 9631;Mycoat 238;Sumirez 8% AC;Mycoat 325;Aux Clear LF;Dynomin MB 13;U-Van 169;MX 750;Lamelite 440;Cyrez 964RPF;Maprenal VMF 3921W85WA;Resimene 3520S72;Sumimal M 40ST;Acrafix ML;Cymel XM 2819;Phenolite TD 2538;L 140 (aminoplast);Miracle Gem 3;Miracle Gem 7;Miracle Gem 10;Cyrez CRA 133M;Cyrez CRA 148M;Quecodur DMQ;Paracron MB 111;Maprenal MF 501;Cyrez CRA 138M;Kauramin 681;ML 60 (melamine resin);Luwipal 072;Cymel 3747;Cymel MB 98;Mycoat 723;GP 542D59;MF 817;Piamid M 50;Cyrez CRA 132;Cyrez CRA 138;Cyrez 963E;Aerotex Resin M 3;AM 146;ME-J;Super Beckamine L 167-65;UJ 100;Lerisene VHF;MR 280;MKF 300;Melarom 514;Lead Lite Melamine MMT;Lead Lite MMT;U 128;Maprenal MF 921;Wonderbond MR 70;Cascomel MO 608B;Cascomel MF 2L;M 56T;U-Van 62E;B 200;B 200 (melamine resin);Kuristuck B 100;Mycoat 525;Lamelite 200;H 7101;Sumirez Resin 8%AC;MG 7 (resin);MG 7;MS 11;Resimene 3521;MF 1206;U 355;Luwipal 063;Kauramin 711;M 40S;Resimene HMM 747;S 12;Melan 5100;CRA 132L;Cyrez CRA 138L;CRA 138L;Nikalac MS 17;SA 200 (aminoplast);SA 200;Madurit MW 490S;MW 30HM;R 747;Nikalac NW 100LM;Resimene CE 8230;Maprenal MF 900W95;BSRL 00602;Oshika Resin B 201;B 201;Melan 2650L;PMN;Cymel 232;HV 11;M 30WT;Resimene 4514;Basotect 3012;Basotect 2011;Maprenal VMF 3924/70B;Berset 2506;ME 12A;MM 102C50K;MM 979C40K;Simel 212;Cyrez 963L;Tesazin 3020-50;U-Van 20;RT 35vis2;Lav 50st;Lav 50ta;LD-dev;MF 002;Sumitex Resin RF;Sumitex RF;Cymel C 701;Cymel C 370;Resimene R 718;Setamine US 146BB72;Basotect G;Luwipal 016;MX 45;Tesfine 200;Sumirez Resin 613S;Sumirez 613S;Epostar SC 4;Optbeads 500S;Optbeads 3500M;Optbeads 6500M;Optbeads 2000M;2000M;ECCO Rez M 300NEW;G 821-60;Resimene CE 6550;Sumirez M 3;Lyofix MMA;WT 50;MF resin;Nikalac MW 390;Cymel 251;Sumirez 615K;Super Beckamine J 820-60A;Pidifix 361;Adeka EM 0104;Adeka Resin EM 0104;Kauramin 792;Nikalac MX 417;Luwipal 066F;Resimene 1460;Roof-proof FIX;Piamid M 70;Nikalet MC-CE 3180F;M 70;Cyrez RF 220;Delicon LB 90;Tekunon 300;Beppinsan;Nikalac MX 520;Setamine MS 152IB70;Duramac 2706;Quecodur DM 70;Setamine US 132BB70;Cymel MM 100;BTLM 415;U-Van 125;Riken Resin MM 65S;Mirbane 512;Beckamine APN;L 145-60;Cascomel BD 4508;Gekiochi-Kun;Kauramin KMT 773;Nikalet MC-CT 5720Z;MC-CT 5720Z;Madurit MW 550;MF 3828;RP 30;RP 30-20;Optbeads 200M;Beckamine J 1001;M 3TP;Prefere 70-0562L;Melamine-formalin copolymer;MX 002;Kauramin 773;Prefere 70-0502L;Prox M 3M;Beetle PT 3336;MF 900W95;XM 2677;M 120A;WT 50 (melamine resin);MX 706;Beckamine J 103;Sumimal M 56T;Helizarin Fixing Agent LF;XM 1992;SY 232;Cyrez CRA 132S;L 145;Azamin M 514;ECCO Resin M 300;Nikalac MX 730;Luwipal 052;Cymel 250;Basotect TG;Cascomin 1250;Beetle PT 366;HipeResin MF 100C;BIP 303;Mirbane S 300;Cymel 285-100;IB 603;Nikalac MX 10;Kuramin KMT 783;Kauramin KMT 792;H 5414;Kauramin KMT 783;UMC 300;Setamine MS 152AQ70;Sumikanol 507AP;DHM 301;Melapret NF 70M;Meldur MS 1;C 325;Cymel 370N;CRA 138M;Nikalac E 6401;Cymel 232S;Melform 45IX;Arcofix NM;Super-Beckamine L 166-60;Melcross 22;M 11MSA;Maprenal MF 921W;MR 625W;Sumirez 617;MX 105;Luwipal LR 8984;MS 100LM;Adeka Resin EM 0103;Nikalac ST 100;San Blast H 60-80;HipeResin MPER 5T;ML 20;ML 28;Resimene HM 2608;MG 100;U-Loid XL 723;MF 980;Prefere 13H560;Priam RMF 7960;Luwipal 066LF;Cymel 1151;Cymel 255-10;Renektan BN;D 5220X;LF 800;Cymel 3745;Knittex CHN;Knittex CHN-CL;Kronocol SM 10;Super-Beckamine L 109-65;Maprenal MF 580/55IB;CRT 42702;SM 975;Tubicoat Fixierer HT;Tubicoat Fixer HT;Cymel MB 14B;303LF;Basotect UF;S 6;S 6 (melamine resin);Nikalac MX 390;Madurit MW 830;Prefere 4865;Cassurite HML;Formaldehyde-methylolmelamine polymer;Formaldehyde-methylolmelamine copolymer;Luwipal 073;L 073;SP 300;Lanxess GR;Lanxess R 12;Mycoat 715;Setamine US 138;Cymel 1303;HW 30HM;MF-GP 1780;Dow Corning 25;BTC 101;Super-Beckamine L 118-60;Cymel UM 20;Youda M 303;Youda M 757;Cymel 1327;Super Beckamine J 820-60N;J 820-60N;TT 30-40;Nikalac MW 750LM;Maprenal MF 51460IB;Cymel MB 94;TF 200;PP 80-100;Madurit MW 840;Madruit MW 840/75WA;ML 707-60;Optbeads 500SL;Urecoll SMV;MFS 1000;Riken Resin MM 35;Super Beckamine 53-419;CRK 42705;Aminoplast 322;Maprenal MF 820;Fleamin Z;Super-Beckamine MAS;Kuramin 773;B 747;Cymel 688;Cyrez 964PRC;Epostar FS;Mycoat KC 8021;JY 5100;CL Clear 20;Resine R 17-34;Setamine US 138-0;MR 603LF;MF 216S;Aminoplast 072;MA 80;5717W;TD 93;Setamine 146;Luwipal 014;Luwipal 018BX;Melan 622;U-Van 228;SB 15-594;265B-L;J 101;Cytec 303;Prefere 700044L;Casco HM 707;Astromel NW 3A;Nikalac MX 750LM;Basotect V 2011;Astro Celrez LA 15;Astro Celrez DR 3;Melamine MF 900;CS 303;CS 303 (aminoplast);Melan 2040;HS 1020;963L;HMMM 80;TF 632;Mirbane KAM 7;Nikalac MW 035;L 117;CY 325;MX 035;Sumimal M 30WT;Beckamine PM 80;R 797;Resimene 758;SC-A 25;XR 91-110;Luracoll SD;Komelol 90GE;Cymel 1385;AWM 1000-80;AM 200-70;Cohedur A 200;HL 5707;Dinimin MB 14;Elecut C-K 01;Etermino 9226-60;MR 603;MR 625;BR 20SE;BR 37A65;M 158;Nikalac MX 410;Nikalac MW 022;MX 410;Cymel 615;SM 5717;SM 57-17;SM 5386;Sanmu 5717;Kaurit 820;CRK 42600;ACM 00198;Super Beckamine L 155-70;Melamine-paraformaldehyde copolymer;Beckamine PM 60;Cymel 651;Cymel MI 11-1;Cymel P 613;Cymel 682;Cytec 325;Cymel 3717;Oshika Resin MG 200;Mirbane 607;PF 9110;Unibo HT 580;Lead Lite W 5233LC;M 50WT;Uramex BF 891;U-Loid MA 436;Maprenal MF 6503;MF 260;US 138BB70;Melan M 284;Super Beckamine ELM 752;Kauramin 796;J 820-60;Super Beckamine J 821-60;S 40;S 30;S 25;ODL 131-60;Polyfix KAM 7;Beetle PT 312;Meldur MP;Maprenal MF 580;Allnex 303;Tubassist FIX 102W;Bersize 6549;Prefere 71-0463J;Komelol MM 90GE;MF 915;M 492;MF 760;MF 001;Maprenal MF 921W85WA;Melopas MP 181;YP 5603;MF 829;Atombond RP 50;CP 9013;YP 5629;20SE;Prefere 70-0690L;Ineos R 747;Cymel 304;Atombond RP 30;MX 730;Maprenal VMF 3950;SM 5747;Luwipal 010;US 146BB72;Super Beckamine L 166;Resimene AQ 7551;Sanmu 5860;MM 2615;DF 6061;SF 239;MM 2255;DM 30;Crystack B 100;DY 104;Melcross 03;DM 30 (melamine resin);Epostar S 21;Mycoat 775;MS 78-2;Setalux US 138BB70;Resimene R 757;Resimene R 747;1,3,5-Triazine-2,4,6-triamine-formaldehyde copolymer;Maprenal R 755;Maprenal 751;Maprenal 757;Maprenal 758;Maprenal 745;Maprenal 747;Liangqiang A 5;A 5;Maprenal 618;Cymel 11585;Ineos 747;U 138;Resimene AQ 2609;R 758;Cymel P 707;Itamin M 172;CYC 303;A 5747;Resimene CE 1058;MF 906H;Melan 2300;Resimene 3520S65;Amidir L 105-60;CML 038;Zywica MW 44;Basotect G+;Basotect G Plus;Riken Resin MM 6;Basotect UL;S 003C;Tubicoat HT;Amidir L 117-60;L 117-60;PM 80;MW 22;Kumad HM-N;EW-TZ 200;Melamine homopolymer;Aminoplast 325;BR 80WT;Resimene 718;Amidir L 105;Cymel 308;Permutex XR 9181;Amidir M 3;CE 7103;CY 327;CY 370;Westco HMMM;M 40W;Super Beckamine L 177-6;Amidir J 820;Amidir G 1825;Lubatan MD;BLT 3030;Epostar SS;MY 501;Kauramin 791;Polimin 55;Amidir APM;AQ 7551;Runbang HY 001;HY 001;M 5070;MW 30MLF;Amidir L 127-60;Trupotan HB;DF 893;Cohedur A 250;Basotect BAF 10G Plus;Basotect BAF 20G Plus;GQ 800HH;138BB70;Basotect W;Sumirez Resin 615K;SJQA 001;Cyrez 964BPF;MO 12;Amidir L 150-60;DY 104D;M 85 (aminoplast);M 85;Oshika Resin M 32;Cyrez CRA 200;Rubbond HM 72;HK 1553;AU 161-60;Amidir G 821-60;Dynomin MB 11B;Poly(melamine-co-formaldehyde);DS 38;Almin 65;Hakutolon S 830;M 80S;L 842;Melcross 25;Maprenal MF 920W75WA;Resimene AQ 2610;Primere 70-0867L;Amidir L 125-60;MA-S;HB;Relugan DLF;DLF;MW 390;Amidir J 820-60;Longfei 882;Amidia L 117-60;MF 44;HMMM 55;BIP SMX;Ciretz 963L;Nikalac MX 750M;Cyrez 964LF;MR 2052;Kauramin 738;MF 4750;SK 5710;HK 2515;Resimene 764;R 260 (melamine resin);R 260;MF 1I;Amidia L 166-60B;MF 50 (aminoplast);MF 50;Prefere 70562L;XP 1102;M 606;MF 04;1494L;Cymel UI 38-1;Nikalac MX 041;Sanmu 5847;Powerplast PP 1890S;Allnex 325;CN 3360;Complete trade name is Nikalac MW 100LM from Sanwa Chemical.;Amidir J 82060;Primer 70-1093L;Luwipal 073LF;Maprenal MF 920/75WA;Maprenal MF 800/55IB;Supraplast 680/95;Mycoat 2677;DW 3432;Dimension SD;XT 1;Etermino 9217-70;Luwipal 07LF;Setamine US 146BB42;Cymel 303FL;Amorso 1684;Etermino 9229-60;Melan 2220;Nikalac MX 002;CN 4500;PX 3100;Mycoat 263;Amidia L 109-65;Cymel C 327;Cymel 3020",
    "duplicated_cas_no": "9041-49-0;9051-19-8;9072-58-6;11111-89-0;12646-18-3;12704-78-8;12765-04-7;29714-94-1;30940-63-7;30940-64-8;34030-91-6;37203-74-0;37328-64-6;37331-33-2;37334-94-4;37335-84-5;37337-01-2;37341-80-3;37353-66-5;39315-67-8;39319-94-3;39327-99-6;39332-52-0;39341-50-9;39360-58-2;39389-43-0;39429-21-5;39429-81-7;39434-64-5;39993-08-3;50642-00-7;51023-12-2;51312-35-7;51938-48-8;51998-61-9;52038-69-4;52051-97-5;52276-98-9;52440-92-3;52623-43-5;52683-16-6;52683-37-1;52769-78-5;53023-96-4;53320-65-3;53569-24-7;53569-25-8;53569-45-2;53569-46-3;53571-16-7;53571-19-0;53571-42-9;53795-73-6;54018-13-2;54174-29-7;54293-12-8;54693-48-0;54848-00-9;54990-58-8;55070-42-3;55352-60-8;55840-50-1;56090-67-6;56275-18-4;56591-29-8;56645-06-8;56730-60-0;56833-76-2;56938-95-5;56996-33-9;57107-77-4;57284-78-3;57679-12-6;57762-77-3;58206-09-0;58206-48-7;58206-49-8;58615-50-2;58968-37-9;58969-09-8;59029-55-9;59112-02-6;59112-03-7;59678-66-9;59764-48-6;59800-49-6;59871-92-0;59948-14-0;60001-09-4;60083-83-2;60083-84-3;60120-28-7;60120-75-4;60407-70-7;60408-21-1;60649-35-6;60650-84-2;60704-25-8;60831-64-3;60937-72-6;60937-85-1;61036-55-3;61090-21-9;61090-29-7;61162-34-3;61240-66-2;61279-82-1;61585-04-4;61585-13-5;61585-21-5;61673-47-0;61710-34-7;61710-44-9;61763-42-6;61763-43-7;61840-54-8;61912-79-6;61932-64-7;62132-28-9;62339-91-7;62340-85-6;62340-86-7;62563-51-3;62610-79-1;62628-36-8;62628-85-7;62647-61-4;64735-27-9;66121-23-1;66829-09-2;68785-70-6;71123-90-5;73299-65-7;76416-80-3;76688-97-6;77272-09-4;77830-12-7;81030-97-9;91104-58-4;94469-58-6;94765-61-4;94810-21-6;95507-76-9;97396-96-8;103964-77-8;108066-79-1;110279-37-3;113170-09-5;117216-73-6;120798-28-9;122462-78-6;125023-23-6;131360-90-2;138068-10-7;138726-15-5;138726-16-6;139202-69-0;142804-86-2;145539-70-4;149532-34-3;154636-60-9;162355-17-1;182970-20-3;188572-00-1;209909-84-2;219919-84-3;302839-78-7;302839-87-8;302839-88-9;431889-44-0;643090-86-2;877607-25-5;880344-51-4;936352-95-3;1037600-52-4;1085765-81-6;1132677-87-2;1190289-71-4;1263432-76-3;1300090-85-0;1314864-56-6;1319719-63-5;1354716-79-2;1382467-61-9;1388736-43-3;1399841-70-3;1399841-72-5;1399841-74-7;1413282-31-1;1433964-52-3;1434262-74-4;1449125-57-8;1449125-86-3;1510823-88-7;1574342-70-3;1609006-24-7;1612825-59-8;1692910-42-1;1807473-04-6;2073104-53-5;2098564-17-9;2116501-51-8;2220995-24-2;2222418-46-2;2230104-42-2;2240117-06-8;2242890-27-1;2288727-88-6;2368237-68-5;2374152-31-3;2395886-99-2;2411806-01-2;2413551-99-0;2459726-49-7;2459839-84-8;2460591-43-7;2634760-65-7;2761681-73-4;2871697-24-2;3004814-65-4;3028938-63-5;3038114-15-4",
    "SMILES": "NC=1N=C(N)N=C(N)N1.C=O",
    "meta_data": {
        "InChI": "InChI=1S/C3H6N6.CH2O/c4-1-7-2(5)9-3(6)8-1;1-2/h(H6,4,5,6,7,8,9);1H2",
        "InChIKey": null,
        "Canonical SMILES": "O=C.N=1C(=NC(=NC1N)N)N",
        "Molecular Formula": "(C<sub>3</sub>H<sub>6</sub>N<sub>6</sub>.CH<sub>2</sub>O)<sub>x</sub>",
        "Molecular Mass": "",
        "Melting Point": "&gt;330 °C (decomp)",
        "Density": "1.13-1.14 g/cm³"
    }
}