{
    "cas_no": "7601-54-9",
    "key_name": "Trisodium phosphate",
    "cn_name": "磷酸三钠;磷酸钠;",
    "alternate_name": "Phosphoric acid, sodium salt (1:3);Phosphoric acid, trisodium salt;Dri-Tri;Sodium phosphate;Tribasic sodium phosphate;Trisodium orthophosphate;Trisodium phosphate;Tromete;Sodium phosphate (Na<sub>3</sub>PO<sub>4</sub>);Sodium phosphate, tribasic;Sodium tertiary phosphate;Antisal 4;Tribasic sodium orthophosphate;Laston RP;AvGard;JR 50A;Prayphos TSP-FG;Na<sub>3</sub>PO<sub>4</sub>;Joha T Neu;Sodium phosphorotetrathioate (Na<sub>3</sub>(PS<sub>4</sub>))",
    "duplicated_cas_no": "96337-98-3;1269628-78-5;2761986-28-9",
    "SMILES": "P(=O)(O)(O)O.[Na]",
    "meta_data": {
        "InChI": "InChI=1S/3Na.H3O4P/c;;;1-5(2,3)4/h;;;(H3,1,2,3,4)",
        "InChIKey": null,
        "Canonical SMILES": "[Na].O=P(O)(O)O",
        "Molecular Formula": "H<sub>3</sub>O<sub>4</sub>P.3Na",
        "Molecular Mass": "",
        "Melting Point": "75 °C (decomp)",
        "Density": "2.536 g/cm³ @ Temp: 17.5 °C"
    }
}