{
    "cas_no": "272451-65-7",
    "key_name": "Flubendiamide",
    "cn_name": null,
    "alternate_name": "1,2-Benzenedicarboxamide, <em>N</em><sup>2</sup>-[1,1-dimethyl-2-(methylsulfonyl)ethyl]-3-iodo-<em>N</em><sup>1</sup>-[2-methyl-4-[1,2,2,2-tetrafluoro-1-(trifluoromethyl)ethyl]phenyl]-;<em>N</em><sup>2</sup>-[1,1-Dimethyl-2-(methylsulfonyl)ethyl]-3-iodo-<em>N</em><sup>1</sup>-[2-methyl-4-[1,2,2,2-tetrafluoro-1-(trifluoromethyl)ethyl]phenyl]-1,2-benzenedicarboxamide;Flubendiamide;RIL 038;NNI 0001;Belt;Synapse;Synapse (insecticide);Takumi;Fame (insecticide);Fame;Phoenix;Phoenix (diamide insecticide);Takumi (insecticide);Belt 480SC;Fenos;3-Iodo-N2-(2-methyl-1-(methylsulfonyl)propan-2-yl)-N1-(2-methyl-4-(perfluoropropan-2-yl)phenyl)phthalamide",
    "duplicated_cas_no": "927187-28-8",
    "SMILES": "C(C(F)(F)F)(C(F)(F)F)(F)C1=CC(C)=C(NC(=O)C2=C(C(NC(CS(C)(=O)=O)(C)C)=O)C(I)=CC=C2)C=C1",
    "meta_data": {
        "InChI": "InChI=1S/C23H22F7IN2O4S/c1-12-10-13(21(24,22(25,26)27)23(28,29)30)8-9-16(12)32-18(34)14-6-5-7-15(31)17(14)19(35)33-20(2,3)11-38(4,36)37/h5-10H,11H2,1-4H3,(H,32,34)(H,33,35)",
        "InChIKey": null,
        "Canonical SMILES": "O=C(NC1=CC=C(C=C1C)C(F)(C(F)(F)F)C(F)(F)F)C=2C=CC=C(I)C2C(=O)NC(C)(C)CS(=O)(=O)C",
        "Molecular Formula": "C<sub>23</sub>H<sub>22</sub>F<sub>7</sub>IN<sub>2</sub>O<sub>4</sub>S",
        "Molecular Mass": "682.39",
        "Melting Point": "217.5-220.7 °C"
    }
}