{
    "cas_no": "1118-58-7",
    "key_name": "2-Methyl-1,3-pentadiene",
    "cn_name": "2-甲基-1,3-戊二烯;",
    "alternate_name": "1,3-Pentadiene, 2-methyl-;2-Methyl-1,3-pentadiene;1,3-Dimethyl-1,3-butadiene;NSC 123452;2,4-Dimethyl-1,3-butadiene",
    "duplicated_cas_no": "",
    "SMILES": "C(C(C)=C)=CC",
    "meta_data": {
        "InChI": "InChI=1S/C6H10/c1-4-5-6(2)3/h4-5H,2H2,1,3H3",
        "InChIKey": null,
        "Canonical SMILES": "C=C(C=CC)C",
        "Molecular Formula": "C<sub>6</sub>H<sub>10</sub>",
        "Molecular Mass": "82.14",
        "Boiling Point": "75.6-76.0 °C",
        "Density": "0.71896 g/cm³ @ Temp: 20 °C"
    }
}