{
    "cas_no": "84371-65-3",
    "key_name": "Mifepristone",
    "cn_name": "米非司酮;",
    "alternate_name": "Estra-4,9-dien-3-one, 11-[4-(dimethylamino)phenyl]-17-hydroxy-17-(1-propyn-1-yl)-, (11β,17β)-;Estra-4,9-dien-3-one, 11-[4-(dimethylamino)phenyl]-17-hydroxy-17-(1-propynyl)-, (11β,17β)-;(11β,17β)-11-[4-(Dimethylamino)phenyl]-17-hydroxy-17-(1-propyn-1-yl)estra-4,9-dien-3-one;RU 486;RU 38486;RU 486-6;R 38486;Mifepristone;Mifegyne;Mifestone;CDB 2477;Mifeprex;17β-Hydroxy-11β-[4-(dimethylamino)-phenyl]-17α-(prop-1-ynyl)-estra-4,9-dien-3-one;C 1073;VGX 410;MTPill;Pencrofton;(8<em>S</em>,11<em>R</em>,13<em>S</em>,14<em>S</em>,17<em>S</em>)-11-[4-(Dimethylamino)phenyl]-17-hydroxy-13-methyl-17-prop-1-ynyl-1,2,6,7,8,11,12,14,15,16-decahydrocyclopenta[<em>a</em>]phenanthren-3-one;MeSH ID: D015735",
    "duplicated_cas_no": "122742-25-0;83203-42-3",
    "SMILES": "C[C@@]12[C@]([C@]3(C([C@H](C1)C4=CC=C(N(C)C)C=C4)=C5C(CC3)=CC(=O)CC5)[H])(CC[C@]2(C#CC)O)[H]",
    "meta_data": {
        "InChI": "InChI=1S/C29H35NO2/c1-5-15-29(32)16-14-26-24-12-8-20-17-22(31)11-13-23(20)27(24)25(18-28(26,29)2)19-6-9-21(10-7-19)30(3)4/h6-7,9-10,17,24-26,32H,8,11-14,16,18H2,1-4H3/t24-,25+,26-,28-,29-/m0/s1",
        "InChIKey": null,
        "Canonical SMILES": "O=C1C=C2C(=C3C(C4=CC=C(C=C4)N(C)C)CC5(C)C(CCC5(O)C#CC)C3CC2)CC1",
        "Molecular Formula": "C<sub>29</sub>H<sub>35</sub>NO<sub>2</sub>",
        "Molecular Mass": "429.59",
        "Melting Point": "150 °C"
    }
}