{
    "cas_no": "17110-51-9",
    "key_name": "Cholesteryl oleyl carbonate",
    "cn_name": "胆固醇油醇碳酸酯;",
    "alternate_name": "Cholest-5-en-3-ol (3β)-, 3-[(9<em>Z</em>)-9-octadecen-1-yl carbonate];Cholesterol, 9-octadecenyl carbonate, (<em>Z</em>)-;Cholest-5-en-3-ol (3β)-, 9-octadecenyl carbonate, (<em>Z</em>)-;Cholest-5-en-3-ol (3β)-, (9<em>Z</em>)-9-octadecenyl carbonate;9-Octadecen-1-ol, cholesteryl carbonate, (<em>Z</em>)-;Carbonic acid, cholesteryl 9-octadecenyl ester, (<em>Z</em>)-;Carbonic acid, cholesteryl oleyl ester;Oleyl cholesteryl carbonate;Cholesteryl oleyl carbonate;Cholesterol oleyl carbonate;Kh 16",
    "duplicated_cas_no": "76202-42-1;1638490-14-8",
    "SMILES": "C[C@@]12[C@@]3([C@]([C@]4([C@](C)(CC3)[C@@]([C@@H](CCCC(C)C)C)(CC4)[H])[H])(CC=C1C[C@@H](OC(OCCCCCCCC/C=C\\CCCCCCCC)=O)CC2)[H])[H]",
    "meta_data": {
        "InChI": "InChI=1S/C46H80O3/c1-7-8-9-10-11-12-13-14-15-16-17-18-19-20-21-22-34-48-44(47)49-39-30-32-45(5)38(35-39)26-27-40-42-29-28-41(37(4)25-23-24-36(2)3)46(42,6)33-31-43(40)45/h14-15,26,36-37,39-43H,7-13,16-25,27-35H2,1-6H3/b15-14-/t37-,39+,40+,41-,42+,43+,45+,46-/m1/s1",
        "InChIKey": null,
        "Canonical SMILES": "O=C(OCCCCCCCCC=CCCCCCCCC)OC1CC2=CCC3C(CCC4(C)C(CCC34)C(C)CCCC(C)C)C2(C)CC1",
        "Molecular Formula": "C<sub>46</sub>H<sub>80</sub>O<sub>3</sub>",
        "Molecular Mass": "681.13",
        "Melting Point": "20 °C"
    }
}