{
    "cas_no": "1706-11-2",
    "key_name": "2-Methoxy-1,4-dimethylbenzene",
    "cn_name": "2,5-二甲基苯甲醚;",
    "alternate_name": "Benzene, 2-methoxy-1,4-dimethyl-;Anisole, 2,5-dimethyl-;2-Methoxy-1,4-dimethylbenzene;2,5-Dimethylanisole;2-Methoxy-<em>p</em>-xylene;2,5-Dimethylphenol methyl ether;3,6-Dimethylanisole;Methoxy-<em>p</em>-xylene",
    "duplicated_cas_no": "92415-84-4",
    "SMILES": "O(C)C1=C(C)C=CC(C)=C1",
    "meta_data": {
        "InChI": "InChI=1S/C9H12O/c1-7-4-5-8(2)9(6-7)10-3/h4-6H,1-3H3",
        "InChIKey": null,
        "Canonical SMILES": "O(C1=CC(=CC=C1C)C)C",
        "Molecular Formula": "C<sub>9</sub>H<sub>12</sub>O",
        "Molecular Mass": "136.19",
        "Boiling Point": "194 °C",
        "Melting Point": "90-92 °C"
    }
}