{
    "cas_no": "787618-22-8",
    "key_name": "[2′,6′-Bis(1-methylethoxy)[1,1′-biphenyl]-2-yl]dicyclohexylphosphine",
    "cn_name": "2-双环已基膦-2 \",6\"-二异丙氧基联苯;2-双环已基膦-2\",6\"-二异丙氧基联苯;",
    "alternate_name": "Phosphine, [2′,6′-bis(1-methylethoxy)[1,1′-biphenyl]-2-yl]dicyclohexyl-;[2′,6′-Bis(1-methylethoxy)[1,1′-biphenyl]-2-yl]dicyclohexylphosphine;2-(Dicyclohexylphosphino)-2′,6′-isopropoxybiphenyl;RuPhos;2-(Dicyclohexylphosphino)-2′,6′-di-isopropoxy-1,1′-biphenyl;2-(Dicyclohexylphosphino)-2′,6′-diisopropoxybiphenyl;2-Dicyclohexylphosphino-2′,6′-diisopropoxybiphenyl;Dicyclohexyl[2-[2,6-di(propan-2-yloxy)phenyl]phenyl]phosphane",
    "duplicated_cas_no": "",
    "SMILES": "P(C1=C(C=CC=C1)C2=C(OC(C)C)C=CC=C2OC(C)C)(C3CCCCC3)C4CCCCC4",
    "meta_data": {
        "InChI": "InChI=1S/C30H43O2P/c1-22(2)31-27-19-13-20-28(32-23(3)4)30(27)26-18-11-12-21-29(26)33(24-14-7-5-8-15-24)25-16-9-6-10-17-25/h11-13,18-25H,5-10,14-17H2,1-4H3",
        "InChIKey": null,
        "Canonical SMILES": "O(C1=CC=CC(OC(C)C)=C1C2=CC=CC=C2P(C3CCCCC3)C4CCCCC4)C(C)C",
        "Molecular Formula": "C<sub>30</sub>H<sub>43</sub>O<sub>2</sub>P",
        "Molecular Mass": "466.64",
        "Melting Point": "123-124 °C"
    }
}