{
    "cas_no": "3919-74-2",
    "key_name": "3-(2-Chloro-6-fluorophenyl)-5-methylisoxazole-4-carboxylic acid",
    "cn_name": "3-(2-氯-6-氟苯基)-5-甲基异恶唑-4-羧酸;3-(2-氯-6-氟苯基)-5-甲基-4-异恶唑甲酸;",
    "alternate_name": "4-Isoxazolecarboxylic acid, 3-(2-chloro-6-fluorophenyl)-5-methyl-;3-(2-Chloro-6-fluorophenyl)-5-methyl-4-isoxazolecarboxylic acid;3-(2-Chloro-6-fluorophenyl)-5-methylisoxazole-4-carboxylic acid",
    "duplicated_cas_no": "",
    "SMILES": "ClC1=C(C(F)=CC=C1)C=2C(C(O)=O)=C(C)ON2",
    "meta_data": {
        "InChI": "InChI=1S/C11H7ClFNO3/c1-5-8(11(15)16)10(14-17-5)9-6(12)3-2-4-7(9)13/h2-4H,1H3,(H,15,16)",
        "InChIKey": null,
        "Canonical SMILES": "O=C(O)C=1C(=NOC1C)C=2C(F)=CC=CC2Cl",
        "Molecular Formula": "C<sub>11</sub>H<sub>7</sub>ClFNO<sub>3</sub>",
        "Molecular Mass": "255.63",
        "Melting Point": "206-207 °C"
    }
}