{
    "cas_no": "299-28-5",
    "key_name": "Calcium gluconate",
    "cn_name": "葡萄糖酸钙;",
    "alternate_name": "<span class=\"text-smallcaps\">D</span>-Gluconic acid, calcium salt (2:1);Gluconic acid, calcium salt (2:1), <span class=\"text-smallcaps\">D</span>-;Calciofon;Calglucon;Glucobiogen;Calcium gluconate;Ebucin;Glucal;Calcium <span class=\"text-smallcaps\">D</span>-gluconate;Kalpren;Dragocal;Calcipur;Novocal;Calglucol;Calcium hexagluconate;Calcicol;Biocal;MeSH ID: D002125",
    "duplicated_cas_no": "3414-35-5;18016-24-5",
    "SMILES": "[C@H]([C@@H]([C@@H](CO)O)O)([C@H](C(O)=O)O)O.[Ca]",
    "meta_data": {
        "InChI": "InChI=1S/C6H12O7.Ca/c7-1-2(8)3(9)4(10)5(11)6(12)13;/h2-5,7-11H,1H2,(H,12,13);/t2-,3-,4+,5-;/m1./s1",
        "InChIKey": null,
        "Canonical SMILES": "[Ca].O=C(O)C(O)C(O)C(O)C(O)CO",
        "Molecular Formula": "C<sub>6</sub>H<sub>12</sub>O<sub>7</sub>.<sup>1</sup>/<sub>2</sub>Ca",
        "Molecular Mass": "",
        "Melting Point": "120 °C"
    }
}