{
    "cas_no": "107-46-0",
    "key_name": "Hexamethyldisiloxane",
    "cn_name": null,
    "alternate_name": "Disiloxane, 1,1,1,3,3,3-hexamethyl-;Disiloxane, hexamethyl-;1,1,1,3,3,3-Hexamethyldisiloxane;Hexamethyldisiloxane;Bis(trimethylsilyl) ether;Bis(trimethylsilyl) oxide;HMDS;SWS-F 221;Belsil DM 0.65;OS 10;OS 10 (siloxane);DC 0.65cs200;Dow Corning OS 10;KF 96L0.65;NSC 43346;HMDSO;LS 7130;Dow Corning 200/0.65;Glipoxan;SH 200-0.65cSt;SH 200-0.65CS;SF 0.65;Volasil DM 0.65;Volasil DM 0.65SP;PSF-0.65cSt;SH 200-0.6CS;HX 18;MM;MM (siloxane);OL-AK 065;Silicone Fluid AK 0.65;AK 0.65;Q 7-9180;Q 7-9180 Silicone Fluid;Dow Corning Q 7-9180;Lintec MC 3102E;MC 3102E;SIH 6115.1;S 7205;OS 10 Fluid;IOTA 005;SIH 6115.0",
    "duplicated_cas_no": "864719-97-1;1463472-97-0;1650537-56-6",
    "SMILES": "O([Si](C)(C)C)[Si](C)(C)C",
    "meta_data": {
        "InChI": "InChI=1S/C6H18OSi2/c1-8(2,3)7-9(4,5)6/h1-6H3",
        "InChIKey": null,
        "Canonical SMILES": "O([Si](C)(C)C)[Si](C)(C)C",
        "Molecular Formula": "C<sub>6</sub>H<sub>18</sub>OSi<sub>2</sub>",
        "Molecular Mass": "162.38",
        "Boiling Point": "99.5 °C",
        "Melting Point": "-66 °C",
        "Density": "0.7638 g/cm³ @ Temp: 20 °C"
    }
}