{
    "cas_no": "1218790-22-7",
    "key_name": "4-(4,4,5,5-Tetramethyl-1,3,2-dioxaborolan-2-yl)-1-naphthalenamine",
    "cn_name": null,
    "alternate_name": "1-Naphthalenamine, 4-(4,4,5,5-tetramethyl-1,3,2-dioxaborolan-2-yl)-;4-(4,4,5,5-Tetramethyl-1,3,2-dioxaborolan-2-yl)-1-naphthalenamine;4-Aminonaphthalene-1-boronic acid pinacol ester",
    "duplicated_cas_no": "",
    "SMILES": "CC1(C)OB(OC1(C)C)C=2C3=C(C(N)=CC2)C=CC=C3",
    "meta_data": {
        "InChI": "InChI=1S/C16H20BNO2/c1-15(2)16(3,4)20-17(19-15)13-9-10-14(18)12-8-6-5-7-11(12)13/h5-10H,18H2,1-4H3",
        "InChIKey": null,
        "Canonical SMILES": "O1B(OC(C)(C)C1(C)C)C2=CC=C(N)C=3C=CC=CC23",
        "Molecular Formula": "C<sub>16</sub>H<sub>20</sub>BNO<sub>2</sub>",
        "Molecular Mass": "269.15",
        "Melting Point": "142-143 °C"
    }
}