{
    "cas_no": "4245-35-6",
    "key_name": "Isoamyl acrylate",
    "cn_name": null,
    "alternate_name": "2-Propenoic acid, 3-methylbutyl ester;Acrylic acid, isopentyl ester;Isopentyl alcohol, acrylate;Isoamyl acrylate;Isopentyl acrylate;Isopentyl 2-propenoate;3-Methylbutyl 2-propenoate;Viscoat 158;3-Methylbutyl acrylate;NSC 20955;Light Acrylate IA-A",
    "duplicated_cas_no": "",
    "SMILES": "C(OCCC(C)C)(C=C)=O",
    "meta_data": {
        "InChI": "InChI=1S/C8H14O2/c1-4-8(9)10-6-5-7(2)3/h4,7H,1,5-6H2,2-3H3",
        "InChIKey": null,
        "Canonical SMILES": "O=C(OCCC(C)C)C=C",
        "Molecular Formula": "C<sub>8</sub>H<sub>14</sub>O<sub>2</sub>",
        "Molecular Mass": "142.20",
        "Boiling Point": "71-72 °C @ Press: 22 Torr",
        "Density": "0.9022 g/cm³ @ Temp: 15 °C"
    }
}