{
    "cas_no": "2212-10-4",
    "key_name": "(Chloromethyl)diethoxymethylsilane",
    "cn_name": "(氯甲基)甲基二乙氧基硅烷;",
    "alternate_name": "Silane, (chloromethyl)diethoxymethyl-;(Chloromethyl)diethoxymethylsilane;(Chloromethyl)methyldiethoxysilane",
    "duplicated_cas_no": "",
    "SMILES": "[Si](OCC)(OCC)(CCl)C",
    "meta_data": {
        "InChI": "InChI=1S/C6H15ClO2Si/c1-4-8-10(3,6-7)9-5-2/h4-6H2,1-3H3",
        "InChIKey": null,
        "Canonical SMILES": "ClC[Si](OCC)(OCC)C",
        "Molecular Formula": "C<sub>6</sub>H<sub>15</sub>ClO<sub>2</sub>Si",
        "Molecular Mass": "182.72",
        "Boiling Point": "160-161 °C",
        "Density": "1 g/cm³ @ Temp: 25 °C"
    }
}