{
    "cas_no": "184475-35-2",
    "key_name": "Gefitinib",
    "cn_name": "吉非替尼;N-(3-氯-4-氟苯基)-7-甲氧基-6-(3-吗啉-4-丙氧基)喹唑啉-4-胺;",
    "alternate_name": "4-Quinazolinamine, <em>N</em>-(3-chloro-4-fluorophenyl)-7-methoxy-6-[3-(4-morpholinyl)propoxy]-;<em>N</em>-(3-Chloro-4-fluorophenyl)-7-methoxy-6-[3-(4-morpholinyl)propoxy]-4-quinazolinamine;ZD 1839;Iressa;Gefitinib;4-(3′-Chloro-4′-fluoroanilino)-7-methoxy-6-(3-morpholinopropoxy)quinazoline;(3-Chloro-4-fluorophenyl)[7-methoxy-6-[3-(morpholin-4-yl)propoxy]quinazolin-4-yl]amine;4-(3-Chloro-4-fluorophenylamino)-7-methoxy-6-[3-(4-morpholinyl)propoxy]quinazoline;ZD1839;Gefonib;<em>N</em>-(3-Chloro-4-fluorophenyl)-7-methoxy-6-(3-morpholinopropoxy)quinazolin-4-amine",
    "duplicated_cas_no": "",
    "SMILES": "N(C=1C2=C(C=C(OC)C(OCCCN3CCOCC3)=C2)N=CN1)C4=CC(Cl)=C(F)C=C4",
    "meta_data": {
        "InChI": "InChI=1S/C22H24ClFN4O3/c1-29-20-13-19-16(12-21(20)31-8-2-5-28-6-9-30-10-7-28)22(26-14-25-19)27-15-3-4-18(24)17(23)11-15/h3-4,11-14H,2,5-10H2,1H3,(H,25,26,27)",
        "InChIKey": null,
        "Canonical SMILES": "FC1=CC=C(C=C1Cl)NC=2N=CN=C3C=C(OC)C(OCCCN4CCOCC4)=CC32",
        "Molecular Formula": "C<sub>22</sub>H<sub>24</sub>ClFN<sub>4</sub>O<sub>3</sub>",
        "Molecular Mass": "446.90",
        "Melting Point": "194-198 °C"
    }
}