{
    "cas_no": "1131-60-8",
    "key_name": "4-Cyclohexylphenol",
    "cn_name": "4-环己基苯酚;对环己基苯酚;",
    "alternate_name": "Phenol, 4-cyclohexyl-;Phenol, <em>p</em>-cyclohexyl-;4-Cyclohexylphenol;<em>p</em>-Cyclohexylphenol;<em>p</em>-Hydroxyphenylcyclohexane;NSC 5245",
    "duplicated_cas_no": "",
    "SMILES": "OC1=CC=C(C=C1)C2CCCCC2",
    "meta_data": {
        "InChI": "InChI=1S/C12H16O/c13-12-8-6-11(7-9-12)10-4-2-1-3-5-10/h6-10,13H,1-5H2",
        "InChIKey": null,
        "Canonical SMILES": "OC1=CC=C(C=C1)C2CCCCC2",
        "Molecular Formula": "C<sub>12</sub>H<sub>16</sub>O",
        "Molecular Mass": "176.25",
        "Boiling Point": "294 °C",
        "Melting Point": "133 °C"
    }
}