{
    "cas_no": "117337-19-6",
    "key_name": "Fluthiacet-methyl",
    "cn_name": "嗪草酸甲酯;",
    "alternate_name": "Acetic acid, 2-[[2-chloro-4-fluoro-5-[(tetrahydro-3-oxo-1<em>H</em>,3<em>H</em>-[1,3,4]thiadiazolo[3,4-<em>a</em>]pyridazin-1-ylidene)amino]phenyl]thio]-, methyl ester;Acetic acid, [[2-chloro-4-fluoro-5-[(tetrahydro-3-oxo-1<em>H</em>,3<em>H</em>-[1,3,4]thiadiazolo[3,4-<em>a</em>]pyridazin-1-ylidene)amino]phenyl]thio]-, methyl ester;1<em>H</em>,3<em>H</em>-[1,3,4]Thiadiazolo[3,4-<em>a</em>]pyridazine, acetic acid deriv.;Methyl 2-[[2-chloro-4-fluoro-5-[(tetrahydro-3-oxo-1<em>H</em>,3<em>H</em>-[1,3,4]thiadiazolo[3,4-<em>a</em>]pyridazin-1-ylidene)amino]phenyl]thio]acetamide;Fluthiacet-methyl;KIH 9201;Action;CGA 248757;Blizzard;Appeal;Cadet",
    "duplicated_cas_no": "177602-28-7",
    "SMILES": "N(=C1N2N(C(=O)S1)CCCC2)C3=CC(SCC(OC)=O)=C(Cl)C=C3F",
    "meta_data": {
        "InChI": "InChI=1S/C15H15ClFN3O3S2/c1-23-13(21)8-24-12-7-11(10(17)6-9(12)16)18-14-19-4-2-3-5-20(19)15(22)25-14/h6-7H,2-5,8H2,1H3",
        "InChIKey": null,
        "Canonical SMILES": "O=C1SC(=NC=2C=C(SCC(=O)OC)C(Cl)=CC2F)N3N1CCCC3",
        "Molecular Formula": "C<sub>15</sub>H<sub>15</sub>ClFN<sub>3</sub>O<sub>3</sub>S<sub>2</sub>",
        "Molecular Mass": "403.88",
        "Melting Point": "106 °C"
    }
}