{
    "cas_no": "76-09-5",
    "key_name": "Pinacol",
    "cn_name": "频哪醇;四甲基乙二醇;2,3-二甲基-2,3-丁二醇;",
    "alternate_name": "2,3-Butanediol, 2,3-dimethyl-;2,3-Dimethyl-2,3-butanediol;Pinacol;Pinacone;Tetramethylethylene glycol;2,3-Dihydroxy-2,3-dimethylbutane;2,3-Dimethyl-2,3-dihydroxybutane;1,1,2,2-Tetramethylethylene glycol;NSC 25943;1,1,2,2-Tetramethylethane-1,2-diol",
    "duplicated_cas_no": "52400-10-9",
    "SMILES": "C(C(C)(C)O)(C)(C)O",
    "meta_data": {
        "InChI": "InChI=1S/C6H14O2/c1-5(2,7)6(3,4)8/h7-8H,1-4H3",
        "InChIKey": null,
        "Canonical SMILES": "OC(C)(C)C(O)(C)C",
        "Molecular Formula": "C<sub>6</sub>H<sub>14</sub>O<sub>2</sub>",
        "Molecular Mass": "118.17",
        "Boiling Point": "174.4 °C",
        "Melting Point": "43 °C"
    }
}