{
    "cas_no": "598-99-2",
    "key_name": "Methyl trichloroacetate",
    "cn_name": "三氯乙酸甲酯;",
    "alternate_name": "Acetic acid, 2,2,2-trichloro-, methyl ester;Acetic acid, trichloro-, methyl ester;Methyl trichloroacetate;NSC 38452;Methyl α,α,α-trichloroacetate;Trichloroacetic acid methyl ester",
    "duplicated_cas_no": "1081783-08-5",
    "SMILES": "C(C(Cl)(Cl)Cl)(OC)=O",
    "meta_data": {
        "InChI": "InChI=1S/C3H3Cl3O2/c1-8-2(7)3(4,5)6/h1H3",
        "InChIKey": null,
        "Canonical SMILES": "O=C(OC)C(Cl)(Cl)Cl",
        "Molecular Formula": "C<sub>3</sub>H<sub>3</sub>Cl<sub>3</sub>O<sub>2</sub>",
        "Molecular Mass": "177.41",
        "Boiling Point": "153.8 °C",
        "Melting Point": "-17.5 °C",
        "Density": "1.515 g/cm³ @ Temp: 20 °C"
    }
}