{
    "cas_no": "744-45-6",
    "key_name": "Diphenyl isophthalate",
    "cn_name": "间苯二甲酸二苯酯;",
    "alternate_name": "1,3-Benzenedicarboxylic acid, 1,3-diphenyl ester;Isophthalic acid, diphenyl ester;1,3-Benzenedicarboxylic acid, diphenyl ester;Diphenyl isophthalate;Diphenyl <em>m</em>-phthalate;Diphenyl 1,3-benzenedicarboxylate;NSC 16430;NSC 631622",
    "duplicated_cas_no": "",
    "SMILES": "C(OC1=CC=CC=C1)(=O)C2=CC(C(OC3=CC=CC=C3)=O)=CC=C2",
    "meta_data": {
        "InChI": "InChI=1S/C20H14O4/c21-19(23-17-10-3-1-4-11-17)15-8-7-9-16(14-15)20(22)24-18-12-5-2-6-13-18/h1-14H",
        "InChIKey": null,
        "Canonical SMILES": "O=C(OC=1C=CC=CC1)C2=CC=CC(=C2)C(=O)OC=3C=CC=CC3",
        "Molecular Formula": "C<sub>20</sub>H<sub>14</sub>O<sub>4</sub>",
        "Molecular Mass": "318.32",
        "Melting Point": "137 °C"
    }
}