{
    "cas_no": "86209-51-0",
    "key_name": "Primisulfuron-methyl",
    "cn_name": "甲基氟嘧磺隆;2-[4,6-双(二氟甲氧基)嘧啶-2-基氨甲酰磺酰胺基]苯甲酸甲酯;",
    "alternate_name": "Benzoic acid, 2-[[[[[4,6-bis(difluoromethoxy)-2-pyrimidinyl]amino]carbonyl]amino]sulfonyl]-, methyl ester;CGA 136872;Primisulfuron-methyl;Tell;Beacon",
    "duplicated_cas_no": "179765-69-6",
    "SMILES": "S(NC(NC=1N=C(OC(F)F)C=C(OC(F)F)N1)=O)(=O)(=O)C2=C(C(OC)=O)C=CC=C2",
    "meta_data": {
        "InChI": "InChI=1S/C15H12F4N4O7S/c1-28-11(24)7-4-2-3-5-8(7)31(26,27)23-15(25)22-14-20-9(29-12(16)17)6-10(21-14)30-13(18)19/h2-6,12-13H,1H3,(H2,20,21,22,23,25)",
        "InChIKey": null,
        "Canonical SMILES": "O=C(OC)C=1C=CC=CC1S(=O)(=O)NC(=O)NC2=NC(OC(F)F)=CC(=N2)OC(F)F",
        "Molecular Formula": "C<sub>15</sub>H<sub>12</sub>F<sub>4</sub>N<sub>4</sub>O<sub>7</sub>S",
        "Molecular Mass": "468.34",
        "Melting Point": "194.8-197.4 °C (decomp)",
        "Density": "1.61 g/cm³ @ Temp: 20 °C"
    }
}