{
    "cas_no": "109-98-8",
    "key_name": "2-Pyrazoline",
    "cn_name": "2-吡唑啉;",
    "alternate_name": "1<em>H</em>-Pyrazole, 4,5-dihydro-;2-Pyrazoline;4,5-Dihydro-1<em>H</em>-pyrazole;4,5-Dihydropyrazole;Δ<sup>2</sup>-Pyrazoline",
    "duplicated_cas_no": "",
    "SMILES": "C1CNN=C1",
    "meta_data": {
        "InChI": "InChI=1S/C3H6N2/c1-2-4-5-3-1/h2,5H,1,3H2",
        "InChIKey": null,
        "Canonical SMILES": "N1=CCCN1",
        "Molecular Formula": "C<sub>3</sub>H<sub>6</sub>N<sub>2</sub>",
        "Molecular Mass": "70.09",
        "Boiling Point": "144 °C",
        "Melting Point": "163-165 °C"
    }
}