{
    "cas_no": "1317-37-9",
    "key_name": "Iron sulfide (FeS)",
    "cn_name": "硫化亚铁;",
    "alternate_name": "Iron sulfide (FeS);C.I. 77540;Black Iron Sulfide;Ferrous sulfide;Iron monosulfide;Iron monosulfide (FeS);Ferrous sulfide (FeS);Ferrous monosulfide;Iron(II) sulfide;FES;Synthetic troilite;Iron sulfide (FeS)",
    "duplicated_cas_no": "2253998-04-6",
    "SMILES": "[Fe]=S",
    "meta_data": {
        "InChI": "InChI=1S/Fe.S",
        "InChIKey": null,
        "Canonical SMILES": "S=[Fe]",
        "Molecular Formula": "FeS",
        "Molecular Mass": "",
        "Melting Point": "1194 °C",
        "Density": "4.84 g/cm³"
    }
}