{
    "cas_no": "14319-13-2",
    "key_name": "(<em>OC</em>-6-11)-Tris(2,2,6,6-tetramethyl-3,5-heptanedionato-κ<em>O</em><sup>3</sup>,κ<em>O</em><sup>5</sup>)lanthanum",
    "cn_name": "(2,2,6,6-四甲基-3,5-庚二酮酸)锂;三(2,2,6,6-四甲基-3,5-庚二酮酸)镧;三(2,2,6,6-四甲基-3,5-庚二酮酸)镧(;",
    "alternate_name": "Lanthanum, tris(2,2,6,6-tetramethyl-3,5-heptanedionato-κ<em>O</em><sup>3</sup>,κ<em>O</em><sup>5</sup>)-, (<em>OC</em>-6-11)-;Lanthanum, tris(2,2,6,6-tetramethyl-3,5-heptanedionato)-;Lanthanum, tris(2,2,6,6-tetramethyl-3,5-heptanedionato-<em>O</em>,<em>O</em>′)-, (<em>OC</em>-6-11)-;3,5-Heptanedione, 2,2,6,6-tetramethyl-, lanthanum complex;(<em>OC</em>-6-11)-Tris(2,2,6,6-tetramethyl-3,5-heptanedionato-κ<em>O</em><sup>3</sup>,κ<em>O</em><sup>5</sup>)lanthanum;Tris(dipivaloylmethanato)lanthanum;Tris(2,2,6,6-tetramethyl-3,5-heptanedionato)lanthanum;Tris(tetramethylheptanedionato)lanthanum;Lanthanum tris(dipivaloylmethanate);NSC 174900;Lanthanum tris(2,2,6,6-tetramethylheptane-3,5-dionate)",
    "duplicated_cas_no": "22898-21-1",
    "SMILES": "C(C)(C)(C)C1=O[La+3]23(O=C(C(C)(C)C)[CH-]C(C(C)(C)C)=O2)(O=C(C(C)(C)C)[CH-]C(C(C)(C)C)=O3)O=C(C(C)(C)C)[CH-]1",
    "meta_data": {
        "InChI": "InChI=1S/3C11H19O2.La/c3*1-10(2,3)8(12)7-9(13)11(4,5)6;/h3*7H,1-6H3;/q3*-1;+3",
        "InChIKey": null,
        "Canonical SMILES": "O1=C([CH-]C(=O[La+3]123(O=C([CH-]C(=O2)C(C)(C)C)C(C)(C)C)O=C([CH-]C(=O3)C(C)(C)C)C(C)(C)C)C(C)(C)C)C(C)(C)C",
        "Molecular Formula": "C<sub>33</sub>H<sub>57</sub>LaO<sub>6</sub>",
        "Molecular Mass": "",
        "Melting Point": "184 °C (sublm) @ Press: 0.8 Torr"
    }
}