{
    "cas_no": "23945-50-8",
    "key_name": "5-Carboxy-2-thiouracil",
    "cn_name": null,
    "alternate_name": "5-Pyrimidinecarboxylic acid, 1,2,3,4-tetrahydro-4-oxo-2-thioxo-;5-Pyrimidinecarboxylic acid, 4-hydroxy-2-mercapto-;1,2,3,4-Tetrahydro-4-oxo-2-thioxo-5-pyrimidinecarboxylic acid;4-Hydroxy-2-mercapto-5-pyrimidinecarboxylic acid;2-Thiouracil-5-carboxylic acid;5-Uracilcarboxylic acid, 2-thio-;2-Mercapto-4-hydroxypyrimidine-5-carboxylic acid;2-Mercapto-5-carboxyuracil;5-Carboxy-2-thiouracil;4-Oxo-1,2,3,4-tetrahydro-2-(thioxo)pyrimidine-5-carboxylic acid",
    "duplicated_cas_no": "321-22-2;857526-84-2",
    "SMILES": "C(O)(=O)C=1C(=O)NC(=S)NC1",
    "meta_data": {
        "InChI": "InChI=1S/C5H4N2O3S/c8-3-2(4(9)10)1-6-5(11)7-3/h1H,(H,9,10)(H2,6,7,8,11)",
        "InChIKey": null,
        "Canonical SMILES": "O=C(O)C1=CNC(=S)NC1=O",
        "Molecular Formula": "C<sub>5</sub>H<sub>4</sub>N<sub>2</sub>O<sub>3</sub>S",
        "Molecular Mass": "172.16",
        "Melting Point": "246-247 °C (decomp)"
    }
}