{
    "cas_no": "10043-35-3",
    "key_name": "Boric acid (H<sub>3</sub>BO<sub>3</sub>)",
    "cn_name": "硼酸;",
    "alternate_name": "Boric acid (H<sub>3</sub>BO<sub>3</sub>);Boracic acid;Orthoboric acid;Boron trihydroxide;Borofax;Orthoboric acid (B(OH)<sub>3</sub>);Orthoboric acid (H<sub>3</sub>BO<sub>3</sub>);Trihydroxyborane;Boric acid (B(OH)<sub>3</sub>);Dr.′s 1 Flea Terminator DFPBO;Dr.′s 1 Flea Terminator DF;Dr.′s 1 Flea Terminator DT;Flea Prufe;Super Flea Eliminator;Dia Flea-Mate;Dr.′s 1 Flea Terminator DTPBO;Basilit B;NSC 81726;Roach Away;CB BORiD;Roach Prufe;Niban-FG;Optibor;Boric acid;Niban Granular Bait;Bushwhacker;Entimaden;Niban;Nitrate balancer;Optibor TP;Boron hydroxide (B(OH)<sub>3</sub>);PS 1002;BorActin",
    "duplicated_cas_no": "12795-04-9;30698-98-7;2253722-08-4",
    "SMILES": "B(O)(O)O",
    "meta_data": {
        "InChI": "InChI=1S/BH3O3/c2-1(3)4/h2-4H",
        "InChIKey": null,
        "Canonical SMILES": "OB(O)O",
        "Molecular Formula": "BH<sub>3</sub>O<sub>3</sub>",
        "Molecular Mass": "61.83",
        "Melting Point": "171 °C (decomp)",
        "Density": "1.435 g/cm³ @ Temp: 15 °C"
    }
}