{
    "cas_no": "3860-63-7",
    "key_name": "Disperse Blue 26",
    "cn_name": "分散蓝26;分散蓝26DisperseBlue26;",
    "alternate_name": "9,10-Anthracenedione, 1,5-dihydroxy-4,8-bis(methylamino)-;Anthraquinone, 1,5-dihydroxy-4,8-bis(methylamino)-;1,5-Dihydroxy-4,8-bis(methylamino)-9,10-anthracenedione;C.I. 63305;Duranol Blue G;Duranol Printing Blue G;Kayalon Polyester Blue GF;Serilene Blue 2GL;Serilene Blue GL;Sumikaron Blue BR;C.I. Disperse Blue 26;Resiren Blue TG;Dispersol Blue B-G;Sumikaron Blue E-BR;PTB 31;Disperse Blue 26;Navilene Blue GL;RTB 31;Dipersol Blue B-G;Akasperse Blue 7G",
    "duplicated_cas_no": "",
    "SMILES": "O=C1C=2C(C(=O)C=3C1=C(O)C=CC3NC)=C(O)C=CC2NC",
    "meta_data": {
        "InChI": "InChI=1S/C16H14N2O4/c1-17-7-3-5-9(19)13-11(7)15(21)14-10(20)6-4-8(18-2)12(14)16(13)22/h3-6,17-20H,1-2H3",
        "InChIKey": null,
        "Canonical SMILES": "O=C1C=2C(O)=CC=C(NC)C2C(=O)C=3C(O)=CC=C(NC)C13",
        "Molecular Formula": "C<sub>16</sub>H<sub>14</sub>N<sub>2</sub>O<sub>4</sub>",
        "Molecular Mass": "298.29",
        "Melting Point": "217 °C"
    }
}