{
    "cas_no": "71830-08-5",
    "key_name": "(1<em>R</em>,3<em>S</em>)-3-Aminocyclopentanecarboxylic acid",
    "cn_name": null,
    "alternate_name": "Cyclopentanecarboxylic acid, 3-amino-, (1<em>R</em>,3<em>S</em>)-;Cyclopentanecarboxylic acid, 3-amino-, (1<em>R</em>-<em>cis</em>)-;(1<em>R</em>,3<em>S</em>)-3-Aminocyclopentanecarboxylic acid;(-)-<em>cis</em>-3-Aminocyclopentanecarboxylic acid;(1R,3S)-3-Aminocyclopentanecarboxylic acid",
    "duplicated_cas_no": "",
    "SMILES": "C(O)(=O)[C@H]1C[C@@H](N)CC1",
    "meta_data": {
        "InChI": "InChI=1S/C6H11NO2/c7-5-2-1-4(3-5)6(8)9/h4-5H,1-3,7H2,(H,8,9)/t4-,5+/m1/s1",
        "InChIKey": null,
        "Canonical SMILES": "O=C(O)C1CCC(N)C1",
        "Molecular Formula": "C<sub>6</sub>H<sub>11</sub>NO<sub>2</sub>",
        "Molecular Mass": "129.16",
        "Melting Point": "&gt;260 °C (decomp)"
    }
}