{
    "cas_no": "5393-55-5",
    "key_name": "<em>N</em>-1,3,4-Thiadiazol-2-ylacetamide",
    "cn_name": null,
    "alternate_name": "Acetamide, <em>N</em>-1,3,4-thiadiazol-2-yl-;1,3,4-Thiadiazole, 2-acetamido-;<em>N</em>-1,3,4-Thiadiazol-2-ylacetamide;2-Acetylamino-1,3,4-thiadiazole;2-Acetamido-1,3,4-thiadiazole;NSC 4729",
    "duplicated_cas_no": "",
    "SMILES": "N(C(C)=O)C1=NN=CS1",
    "meta_data": {
        "InChI": "InChI=1S/C4H5N3OS/c1-3(8)6-4-7-5-2-9-4/h2H,1H3,(H,6,7,8)",
        "InChIKey": null,
        "Canonical SMILES": "O=C(NC1=NN=CS1)C",
        "Molecular Formula": "C<sub>4</sub>H<sub>5</sub>N<sub>3</sub>OS",
        "Molecular Mass": "143.17",
        "Melting Point": "267-280 °C"
    }
}