{
    "cas_no": "29668-44-8",
    "key_name": "1,4-Benzodioxan-6-carboxaldehyde",
    "cn_name": null,
    "alternate_name": "1,4-Benzodioxin-6-carboxaldehyde, 2,3-dihydro-;1,4-Benzodioxan-6-carboxaldehyde;2,3-Dihydro-1,4-benzodioxin-6-carboxaldehyde;1,4-Benzodioxane-6-carboxaldehyde;3,4-Ethylenedioxybenzaldehyde;2,3-Dihydro-1,4-benzodioxan-6-carboxaldehyde;2,3-Dihydro-1,4-benzodioxin-6-aldehyde;2,3-Dihydrobenzo[1,4]dioxine-6-carboxaldehyde;1,4-Benzodioxane-6-aldehyde;2,3-Dihydrobenzo[<em>b</em>][1,4]dioxine-6-carboxaldehyde;2,3-Dihydrobenzo[<em>b</em>][1,4]dioxin-6-carboxaldehyde;1,4-Benzodioxan-7-formaldehyde;2,3-Dihydro-1,4-benzodioxine-6-carbaldehyde;2,3-Dihydro-benzo[1,4]dioxine-6-carbaldehyde",
    "duplicated_cas_no": "",
    "SMILES": "C(=O)C=1C=C2C(=CC1)OCCO2",
    "meta_data": {
        "InChI": "InChI=1S/C9H8O3/c10-6-7-1-2-8-9(5-7)12-4-3-11-8/h1-2,5-6H,3-4H2",
        "InChIKey": null,
        "Canonical SMILES": "O=CC1=CC=C2OCCOC2=C1",
        "Molecular Formula": "C<sub>9</sub>H<sub>8</sub>O<sub>3</sub>",
        "Molecular Mass": "164.16",
        "Boiling Point": "105-108 °C @ Press: 0.3 mbar",
        "Melting Point": "49.5-50.5 °C"
    }
}