{
    "cas_no": "34256-82-1",
    "key_name": "Acetochlor",
    "cn_name": "乙草胺;2\"-乙基-6\"甲基-N-(乙氧甲基)-2-氯代乙酰替苯胺;",
    "alternate_name": "Acetamide, 2-chloro-<em>N</em>-(ethoxymethyl)-<em>N</em>-(2-ethyl-6-methylphenyl)-;<em>o</em>-Acetotoluidide, 2-chloro-<em>N</em>-(ethoxymethyl)-6′-ethyl-;2-Chloro-<em>N</em>-(ethoxymethyl)-<em>N</em>-(2-ethyl-6-methylphenyl)acetamide;2-Chloro-<em>N</em>-(ethoxymethyl)-6′-ethyl-<em>o</em>-acetotoluidide;Acetochlor;MON 097;Nevirex;Azetochlor;2′-Ethyl-6′-methyl-<em>N</em>-(ethoxymethyl)-2-chloroacetanilide;MG 02;Harness;Acenit;Acetal;2-Methyl-6-ethyl-<em>N</em>-ethoxymethyl-2-chloroacetanilide;Riley;Acetal (herbicide);Trophee;Henaisi;Guardian;Guardian (herbicide);Trophy;Relay (herbicide);Relay;Warrant;Acetor 50 EC;Surpass;2-Ethyl-6-methyl-<em>N</em>-(ethoxymethyl)-2-chloroacetylaniline",
    "duplicated_cas_no": "123113-74-6;73412-88-1",
    "SMILES": "N(C(CCl)=O)(COCC)C1=C(CC)C=CC=C1C",
    "meta_data": {
        "InChI": "InChI=1S/C14H20ClNO2/c1-4-12-8-6-7-11(3)14(12)16(10-18-5-2)13(17)9-15/h6-8H,4-5,9-10H2,1-3H3",
        "InChIKey": null,
        "Canonical SMILES": "O=C(N(C=1C(=CC=CC1CC)C)COCC)CCl",
        "Molecular Formula": "C<sub>14</sub>H<sub>20</sub>ClNO<sub>2</sub>",
        "Molecular Mass": "269.77",
        "Boiling Point": "162 °C",
        "Melting Point": "&lt;0 °C"
    }
}