{
    "cas_no": "5965-66-2",
    "key_name": "β-Lactose",
    "cn_name": "β-D-乳糖;",
    "alternate_name": "β-<span class=\"text-smallcaps\">D</smallcap>-Glucopyranose, 4-<em>O</em>-β-<smallcap>D</span>-galactopyranosyl-;Lactose, β-;4-<em>O</em>-β-<span class=\"text-smallcaps\">D</smallcap>-Galactopyranosyl-β-<smallcap>D</span>-glucopyranose;β-Lactose;β-<span class=\"text-smallcaps\">D</span>-Lactose;Pharmatose DCL 40;Pharmatose DCL 21;Lactopress;β-<span class=\"text-smallcaps\">D</smallcap>-Galactose-(1→4)-β-<smallcap>D</span>-glucose",
    "duplicated_cas_no": "",
    "SMILES": "O([C@@H]1[C@@H](CO)O[C@@H](O)[C@H](O)[C@H]1O)[C@@H]2O[C@H](CO)[C@H](O)[C@H](O)[C@H]2O",
    "meta_data": {
        "InChI": "InChI=1S/C12H22O11/c13-1-3-5(15)6(16)9(19)12(22-3)23-10-4(2-14)21-11(20)8(18)7(10)17/h3-20H,1-2H2/t3-,4-,5+,6+,7-,8-,9-,10-,11-,12+/m1/s1",
        "InChIKey": null,
        "Canonical SMILES": "OCC1OC(OC2C(O)C(O)C(O)OC2CO)C(O)C(O)C1O",
        "Molecular Formula": "C<sub>12</sub>H<sub>22</sub>O<sub>11</sub>",
        "Molecular Mass": "342.30",
        "Melting Point": "254 °C",
        "Density": "0.63 g/cm³"
    }
}