{
    "cas_no": "3760-54-1",
    "key_name": "1-Pyrrolidinecarboxaldehyde",
    "cn_name": "1-甲酰基吡咯烷;",
    "alternate_name": "1-Pyrrolidinecarboxaldehyde;<em>N</em>-Formylpyrrolidine;1-Formylpyrrolidine;NSC 42516",
    "duplicated_cas_no": "",
    "SMILES": "C(=O)N1CCCC1",
    "meta_data": {
        "InChI": "InChI=1S/C5H9NO/c7-5-6-3-1-2-4-6/h5H,1-4H2",
        "InChIKey": null,
        "Canonical SMILES": "O=CN1CCCC1",
        "Molecular Formula": "C<sub>5</sub>H<sub>9</sub>NO",
        "Molecular Mass": "99.13",
        "Boiling Point": "213-214 °C",
        "Density": "1.0409 g/cm³ @ Temp: 20 °C"
    }
}