{
    "cas_no": "123863-99-0",
    "key_name": "9,9-Dioctyl-9<em>H</em>-fluorene",
    "cn_name": "9,9-二正辛酯芴;",
    "alternate_name": "9<em>H</em>-Fluorene, 9,9-dioctyl-;9,9-Dioctyl-9<em>H</em>-fluorene;9,9-Dioctylfluorene;9,9-Di-<em>n</em>-octylfluorene",
    "duplicated_cas_no": "",
    "SMILES": "C(CCCCCCC)C1(CCCCCCCC)C=2C(C=3C1=CC=CC3)=CC=CC2",
    "meta_data": {
        "InChI": "InChI=1S/C29H42/c1-3-5-7-9-11-17-23-29(24-18-12-10-8-6-4-2)27-21-15-13-19-25(27)26-20-14-16-22-28(26)29/h13-16,19-22H,3-12,17-18,23-24H2,1-2H3",
        "InChIKey": null,
        "Canonical SMILES": "C=1C=CC2=C(C1)C=3C=CC=CC3C2(CCCCCCCC)CCCCCCCC",
        "Molecular Formula": "C<sub>29</sub>H<sub>42</sub>",
        "Molecular Mass": "390.64",
        "Melting Point": "27-28 °C"
    }
}