{
    "cas_no": "36760-20-0",
    "key_name": "3,5-Dichloro-1<em>H</em>-indazole",
    "cn_name": null,
    "alternate_name": "1<em>H</em>-Indazole, 3,5-dichloro-;Indazole, 3,5-dichloro-;3,5-Dichloro-1<em>H</em>-indazole;3,5-Dichloro-2<em>H</em>-indazole",
    "duplicated_cas_no": "",
    "SMILES": "ClC=1C=2C(=CC=C(Cl)C2)NN1",
    "meta_data": {
        "InChI": "InChI=1S/C7H4Cl2N2/c8-4-1-2-6-5(3-4)7(9)11-10-6/h1-3H,(H,10,11)",
        "InChIKey": null,
        "Canonical SMILES": "ClC=1C=CC=2NN=C(Cl)C2C1",
        "Molecular Formula": "C<sub>7</sub>H<sub>4</sub>Cl<sub>2</sub>N<sub>2</sub>",
        "Molecular Mass": "187.03",
        "Melting Point": "240 °C"
    }
}