{
    "cas_no": "121-32-4",
    "key_name": "Ethylvanillin",
    "cn_name": "乙基香兰素;3-乙氧基-4-羟基苯甲醛;",
    "alternate_name": "Benzaldehyde, 3-ethoxy-4-hydroxy-;3-Ethoxy-4-hydroxybenzaldehyde;Bourbonal;Ethavan;Ethovan;Ethylprotal;Protocatechuic aldehyde ethyl ether;Quantrovanil;Vanillal;Ethylvanillin;4-Hydroxy-3-ethoxybenzaldehyde;Vanirom;2-Ethoxy-4-formylphenol;Rhodiarome;NSC 1803;NSC 67240;Arovanillon;3-Ethylvanillin;YS 065",
    "duplicated_cas_no": "",
    "SMILES": "O(CC)C1=CC(C=O)=CC=C1O",
    "meta_data": {
        "InChI": "InChI=1S/C9H10O3/c1-2-12-9-5-7(6-10)3-4-8(9)11/h3-6,11H,2H2,1H3",
        "InChIKey": null,
        "Canonical SMILES": "O=CC1=CC=C(O)C(OCC)=C1",
        "Molecular Formula": "C<sub>9</sub>H<sub>10</sub>O<sub>3</sub>",
        "Molecular Mass": "166.17",
        "Boiling Point": "285 °C",
        "Melting Point": "77.5 °C"
    }
}