{
    "cas_no": "609-14-3",
    "key_name": "Ethyl 2-methylacetoacetate",
    "cn_name": "2-甲基乙酰乙酸乙酯;",
    "alternate_name": "Butanoic acid, 2-methyl-3-oxo-, ethyl ester;Acetoacetic acid, 2-methyl-, ethyl ester;Acetoacetic acid, α-methyl-, ethyl ester;Ethyl 2-methylacetoacetate;Ethyl α-methylacetylacetate;2-Methylacetoacetic acid ethyl ester;Ethyl α-methylacetoacetate;Ethyl 2-methyl-3-oxobutyrate;Ethyl α-acetylpropionate;α-Methylacetoacetic ester;Ethyl 2-methyl-3-oxobutanoate;Ethyl 2-acetylpropionate;Ethyl methylacetoacetate;Ethyl (±)-2-methylacetoacetate;Ethyl 2-acetylpropanoate;2-Methyl-3-oxobutanoic acid ethyl ester;NSC 1102;2-Methyl-3-oxobutyric acid ethyl ester;Ethyl 3-oxo-2-methylbutanoate",
    "duplicated_cas_no": "64854-05-3",
    "SMILES": "C(C(OCC)=O)(C(C)=O)C",
    "meta_data": {
        "InChI": "InChI=1S/C7H12O3/c1-4-10-7(9)5(2)6(3)8/h5H,4H2,1-3H3",
        "InChIKey": null,
        "Canonical SMILES": "O=C(OCC)C(C(=O)C)C",
        "Molecular Formula": "C<sub>7</sub>H<sub>12</sub>O<sub>3</sub>",
        "Molecular Mass": "144.17",
        "Boiling Point": "187 °C",
        "Melting Point": "235-236 °C",
        "Density": "1.00150 g/cm³ @ Temp: 420 °C"
    }
}