{
    "cas_no": "87820-88-0",
    "key_name": "Tralkoxydim",
    "cn_name": "三甲苯草酮;2-[1-(乙氧基亚氨基)丙基]-3-羟基-5-(2,4,6-三甲苯基)环己-2-烯酮;",
    "alternate_name": "2-Cyclohexen-1-one, 2-[1-(ethoxyimino)propyl]-3-hydroxy-5-(2,4,6-trimethylphenyl)-;2-[1-(Ethoxyimino)propyl]-3-hydroxy-5-(2,4,6-trimethylphenyl)-2-cyclohexen-1-one;Tralkoxydim;PP 604;FD 4026;Grasp;ICI-A 604;Achieve;Achieve (pesticide);Splendor;ICIA 0604;Grasp (cyclohexenone);2-[1-(Ethoxyimino)propyl]-3-hydroxy-5-mesitylcyclohex-2-enone",
    "duplicated_cas_no": "115839-88-8",
    "SMILES": "CC1=C(C(C)=CC(C)=C1)C2CC(=O)C(C(=NOCC)CC)=C(O)C2",
    "meta_data": {
        "InChI": "InChI=1S/C20H27NO3/c1-6-16(21-24-7-2)20-17(22)10-15(11-18(20)23)19-13(4)8-12(3)9-14(19)5/h8-9,15,22H,6-7,10-11H2,1-5H3",
        "InChIKey": null,
        "Canonical SMILES": "O=C1C(=C(O)CC(C=2C(=CC(=CC2C)C)C)C1)C(=NOCC)CC",
        "Molecular Formula": "C<sub>20</sub>H<sub>27</sub>NO<sub>3</sub>",
        "Molecular Mass": "329.43",
        "Melting Point": "106 °C"
    }
}