{
    "cas_no": "3105-97-3",
    "key_name": "Hycanthone",
    "cn_name": null,
    "alternate_name": "9<em>H</em>-Thioxanthen-9-one, 1-[[2-(diethylamino)ethyl]amino]-4-(hydroxymethyl)-;Thioxanthen-9-one, 1-[[2-(diethylamino)ethyl]amino]-4-(hydroxymethyl)-;1-[[2-(Diethylamino)ethyl]amino]-4-(hydroxymethyl)-9<em>H</em>-thioxanthen-9-one;Win 24933;1-[[2-(Diethylamino)ethyl]amino]-4-(hydroxymethyl)thioxanthen-9-one;Hycanthone;Hycanthon;NSC 142982;NSC 134434;NCI 142982",
    "duplicated_cas_no": "",
    "SMILES": "C(O)C1=C2C(=C(NCCN(CC)CC)C=C1)C(=O)C=3C(S2)=CC=CC3",
    "meta_data": {
        "InChI": "InChI=1S/C20H24N2O2S/c1-3-22(4-2)12-11-21-16-10-9-14(13-23)20-18(16)19(24)15-7-5-6-8-17(15)25-20/h5-10,21,23H,3-4,11-13H2,1-2H3",
        "InChIKey": null,
        "Canonical SMILES": "O=C1C=2C=CC=CC2SC=3C(=CC=C(NCCN(CC)CC)C13)CO",
        "Molecular Formula": "C<sub>20</sub>H<sub>24</sub>N<sub>2</sub>O<sub>2</sub>S",
        "Molecular Mass": "356.48",
        "Melting Point": "101.9 °C"
    }
}