{
    "cas_no": "2623-86-1",
    "key_name": "3-Bromobutanoic acid",
    "cn_name": null,
    "alternate_name": "Butanoic acid, 3-bromo-;Butyric acid, 3-bromo-;3-Bromobutanoic acid;3-Bromobutyric acid;β-Bromobutyric acid;(±)-3-Bromobutyric acid",
    "duplicated_cas_no": "77732-34-4",
    "SMILES": "C(C(Br)C)C(O)=O",
    "meta_data": {
        "InChI": "InChI=1S/C4H7BrO2/c1-3(5)2-4(6)7/h3H,2H2,1H3,(H,6,7)",
        "InChIKey": null,
        "Canonical SMILES": "O=C(O)CC(Br)C",
        "Molecular Formula": "C<sub>4</sub>H<sub>7</sub>BrO<sub>2</sub>",
        "Molecular Mass": "167.00",
        "Boiling Point": "110-111 °C @ Press: 9-10 Torr",
        "Melting Point": "44 °C"
    }
}