{
    "cas_no": "420-46-2",
    "key_name": "1,1,1-Trifluoroethane",
    "cn_name": "1,1,1-三氟乙烷;",
    "alternate_name": "Ethane, 1,1,1-trifluoro-;1,1,1-Trifluoroethane;Methylfluoroform;R 143a;FC 143a;HFC 143a;CFC 143A;F 143A;HCF 143a;HCFC 143a;Fron 143a;TG 143a;HFA 143a;Freon 143a;HFO 143a",
    "duplicated_cas_no": "",
    "SMILES": "C(C)(F)(F)F",
    "meta_data": {
        "InChI": "InChI=1S/C2H3F3/c1-2(3,4)5/h1H3",
        "InChIKey": null,
        "Canonical SMILES": "FC(F)(F)C",
        "Molecular Formula": "C<sub>2</sub>H<sub>3</sub>F<sub>3</sub>",
        "Molecular Mass": "84.04",
        "Boiling Point": "-47.5 °C",
        "Melting Point": "-111.3 °C",
        "Density": "0.9543 g/cm³ @ Temp: 20.020 °C; Press: 10276 Torr"
    }
}