{
    "cas_no": "2540-99-0",
    "key_name": "3,3′,4,4′-Diphenyl sulfone tetracarboxylic dianhydride",
    "cn_name": "3,3\",4,4\"-二苯基砜四羧酸二酸酐;3,3,4,4-二苯基砜四羧酸二酸酐;",
    "alternate_name": "1,3-Isobenzofurandione, 5,5′-sulfonylbis-;Phthalic anhydride, 4,4′-sulfonyldi-;5,5′-Sulfonylbis[1,3-isobenzofurandione];3,3′,4,4′-Tetracarboxydiphenyl sulfone dianhydride;4,4′-Sulfonylbis(phthalic anhydride);3,3′,4,4′-Diphenyl sulfone tetracarboxylic anhydride;4,4′-Diphthalic anhydride sulfone;4,4′-Sulfonyldiphthalic anhydride;4,4′-Sulfonyldiphthalic acid dianhydride;3,3′,4,4′-Diphenyl sulfone tetracarboxylic dianhydride;NSC 689416;Rikacid DSDA;Bis(3,4-dicarboxyphenyl) sulfone dianhydride;3,3′,4,4′-Diphenyl sulfone tetracarboxylic acid dianhydride;DSDA;Diphenyl sulfone-3,4,3′,4′-tetracarboxylic dianhydride;3,3′,4,4′-Biphenylsulfone tetracarboxylic dianhydride;Diphenylsulfone-3,4,3′,4′-tetracarboxylic acid dianhydride;5,5′-sulfonylbis(isobenzofuran-1,3-dione)",
    "duplicated_cas_no": "163915-32-0;174612-55-6",
    "SMILES": "O=C1C=2C(=CC=C(S(=O)(=O)C=3C=C4C(=CC3)C(=O)OC4=O)C2)C(=O)O1",
    "meta_data": {
        "InChI": "InChI=1S/C16H6O8S/c17-13-9-3-1-7(5-11(9)15(19)23-13)25(21,22)8-2-4-10-12(6-8)16(20)24-14(10)18/h1-6H",
        "InChIKey": null,
        "Canonical SMILES": "O=C1OC(=O)C2=CC(=CC=C12)S(=O)(=O)C3=CC=C4C(=O)OC(=O)C4=C3",
        "Molecular Formula": "C<sub>16</sub>H<sub>6</sub>O<sub>8</sub>S",
        "Molecular Mass": "358.28",
        "Melting Point": "275-278 °C"
    }
}