{
    "cas_no": "538-68-1",
    "key_name": "Pentylbenzene",
    "cn_name": "戊基苯;戊苯;正戊基苯;",
    "alternate_name": "Benzene, pentyl-;Pentylbenzene;Amylbenzene;<em>n</em>-Amylbenzene;Pentane, 1-phenyl-;<em>n</em>-Pentylbenzene;1-Phenylpentane;1-Phenyl-<em>n</em>-pentane;NSC 73982;1-Pentylbenzene",
    "duplicated_cas_no": "74296-33-6",
    "SMILES": "C(CCCC)C1=CC=CC=C1",
    "meta_data": {
        "InChI": "InChI=1S/C11H16/c1-2-3-5-8-11-9-6-4-7-10-11/h4,6-7,9-10H,2-3,5,8H2,1H3",
        "InChIKey": null,
        "Canonical SMILES": "C=1C=CC(=CC1)CCCCC",
        "Molecular Formula": "C<sub>11</sub>H<sub>16</sub>",
        "Molecular Mass": "148.24",
        "Boiling Point": "205.4 °C",
        "Melting Point": "-75 °C",
        "Density": "0.8624 g/cm³ @ Temp: 22 °C"
    }
}