{
    "cas_no": "10596-23-3",
    "key_name": "Clodronate",
    "cn_name": "氯膦酸二钠;氯甲双磷酸二钠；氯屈膦酸二钠；氯膦酸钠；骨膦；洛屈;",
    "alternate_name": "Phosphonic acid, <em>P</em>,<em>P</em>′-(dichloromethylene)bis-;Phosphonic acid, (dichloromethylene)di-;Phosphonic acid, (dichloromethylene)bis-;<em>P</em>,<em>P</em>′-(Dichloromethylene)bis[phosphonic acid];Methanedichlorodiphosphonic acid;Dichloromethylenediphosphonic acid;Clodronic acid;(Dichloromethylene)bis[phosphonic acid];Clodronate;Cl 2MDP;DMDP;Clodrolip;Clodrosome",
    "duplicated_cas_no": "163706-60-3",
    "SMILES": "C(P(=O)(O)O)(P(=O)(O)O)(Cl)Cl",
    "meta_data": {
        "InChI": "InChI=1S/CH4Cl2O6P2/c2-1(3,10(4,5)6)11(7,8)9/h(H2,4,5,6)(H2,7,8,9)",
        "InChIKey": null,
        "Canonical SMILES": "O=P(O)(O)C(Cl)(Cl)P(=O)(O)O",
        "Molecular Formula": "CH<sub>4</sub>Cl<sub>2</sub>O<sub>6</sub>P<sub>2</sub>",
        "Molecular Mass": "244.89",
        "Melting Point": "250 °C"
    }
}