{
    "cas_no": "31430-15-6",
    "key_name": "Flubendazole",
    "cn_name": "氟苯咪唑;5-(4-氟苯甲酰基)苯并咪唑-2-氨基甲酸甲酯;",
    "alternate_name": "Carbamic acid, <em>N</em>-[6-(4-fluorobenzoyl)-1<em>H</em>-benzimidazol-2-yl]-, methyl ester;2-Benzimidazolecarbamic acid, 5-(<em>p</em>-fluorobenzoyl)-, methyl ester;Carbamic acid, [5-(4-fluorobenzoyl)-1<em>H</em>-benzimidazol-2-yl]-, methyl ester;Flubendazole;R 17899;Methyl (5-<em>p</em>-fluorobenzoyl-2-benzimidazolyl)carbamate;Flubenol;Fluvermal;R 17889;Flumoxane;Flumoxal;NSC 313680;Flubenvet",
    "duplicated_cas_no": "",
    "SMILES": "C(=O)(C=1C=C2C(N=C(NC(OC)=O)N2)=CC1)C3=CC=C(F)C=C3",
    "meta_data": {
        "InChI": "InChI=1S/C16H12FN3O3/c1-23-16(22)20-15-18-12-7-4-10(8-13(12)19-15)14(21)9-2-5-11(17)6-3-9/h2-8H,1H3,(H2,18,19,20,22)",
        "InChIKey": null,
        "Canonical SMILES": "O=C(OC)NC1=NC=2C=CC(=CC2N1)C(=O)C3=CC=C(F)C=C3",
        "Molecular Formula": "C<sub>16</sub>H<sub>12</sub>FN<sub>3</sub>O<sub>3</sub>",
        "Molecular Mass": "313.28",
        "Melting Point": "260 °C"
    }
}