{
    "cas_no": "40507-59-3",
    "key_name": "5-Nitro-4-imidazolecarboxylic acid",
    "cn_name": "4-硝基-1H-咪唑-5-羧酸;",
    "alternate_name": "1<em>H</em>-Imidazole-4-carboxylic acid, 5-nitro-;Imidazole-4-carboxylic acid, 5-nitro-;4-Imidazolecarboxylic acid, 5-nitro-;5-Nitro-1<em>H</em>-imidazole-4-carboxylic acid;4-Nitroimidazole-5-carboxylic acid;5-Nitro-4-imidazolecarboxylic acid",
    "duplicated_cas_no": "",
    "SMILES": "C(O)(=O)C1=C(N(=O)=O)N=CN1",
    "meta_data": {
        "InChI": "InChI=1S/C4H3N3O4/c8-4(9)2-3(7(10)11)6-1-5-2/h1H,(H,5,6)(H,8,9)",
        "InChIKey": null,
        "Canonical SMILES": "O=C(O)C=1NC=NC1N(=O)=O",
        "Molecular Formula": "C<sub>4</sub>H<sub>3</sub>N<sub>3</sub>O<sub>4</sub>",
        "Molecular Mass": "157.08",
        "Melting Point": "304-305 °C"
    }
}