{
    "cas_no": "74420-51-2",
    "key_name": "5-Bromo-2-methylimidazo[1,2-<em>a</em>]pyridine",
    "cn_name": null,
    "alternate_name": "Imidazo[1,2-<em>a</em>]pyridine, 5-bromo-2-methyl-;5-Bromo-2-methylimidazo[1,2-<em>a</em>]pyridine",
    "duplicated_cas_no": "",
    "SMILES": "BrC=1N2C(=NC(C)=C2)C=CC1",
    "meta_data": {
        "InChI": "InChI=1S/C8H7BrN2/c1-6-5-11-7(9)3-2-4-8(11)10-6/h2-5H,1H3",
        "InChIKey": null,
        "Canonical SMILES": "BrC1=CC=CC2=NC(=CN12)C",
        "Molecular Formula": "C<sub>8</sub>H<sub>7</sub>BrN<sub>2</sub>",
        "Molecular Mass": "211.06",
        "Melting Point": "55.0-56.5 °C"
    }
}