{
    "cas_no": "539-88-8",
    "key_name": "Ethyl levulinate",
    "cn_name": "乙酰丙酸乙酯;戊酮酸乙酯;4-酮基戊酸乙酯;",
    "alternate_name": "Pentanoic acid, 4-oxo-, ethyl ester;Levulinic acid, ethyl ester;Ethyl laevulinate;Ethyl 4-oxopentanoate;Ethyl 4-oxovalerate;Ethyl 3-acetylpropionate;Ethyl 4-ketovalerate;Ethyl levulinate;4-Oxopentanoic acid ethyl ester;NSC 24876;NSC 8863;NXT Solv 100;NS 100",
    "duplicated_cas_no": "1790637-12-5",
    "SMILES": "C(CCC(C)=O)(OCC)=O",
    "meta_data": {
        "InChI": "InChI=1S/C7H12O3/c1-3-10-7(9)5-4-6(2)8/h3-5H2,1-2H3",
        "InChIKey": null,
        "Canonical SMILES": "O=C(OCC)CCC(=O)C",
        "Molecular Formula": "C<sub>7</sub>H<sub>12</sub>O<sub>3</sub>",
        "Molecular Mass": "144.17",
        "Boiling Point": "205.8 °C",
        "Melting Point": "&lt;25 °C",
        "Density": "1.0168 g/cm³ @ Temp: 16.200009765625 °C"
    }
}