{
    "cas_no": "50995-95-4",
    "key_name": "2-Propylimidazole",
    "cn_name": "2-丙基咪唑;",
    "alternate_name": "1<em>H</em>-Imidazole, 2-propyl-;Imidazole, 2-propyl-;2-Propyl-1<em>H</em>-imidazole;2-Propylimidazole;2-<em>n</em>-Propylimidazole;Actiron NXJ 60;NXJ 60",
    "duplicated_cas_no": "",
    "SMILES": "C(CC)C=1NC=CN1",
    "meta_data": {
        "InChI": "InChI=1S/C6H10N2/c1-2-3-6-7-4-5-8-6/h4-5H,2-3H2,1H3,(H,7,8)",
        "InChIKey": null,
        "Canonical SMILES": "N=1C=CNC1CCC",
        "Molecular Formula": "C<sub>6</sub>H<sub>10</sub>N<sub>2</sub>",
        "Molecular Mass": "110.16",
        "Melting Point": "35 °C"
    }
}