{
    "cas_no": "109-06-8",
    "key_name": "2-Methylpyridine",
    "cn_name": "2-甲基吡啶;2-皮考林;",
    "alternate_name": "Pyridine, 2-methyl-;2-Picoline;2-Methylpyridine;α-Picoline;α-Methylpyridine;<em>o</em>-Picoline;<em>o</em>-Methylpyridine;NSC 3409",
    "duplicated_cas_no": "45505-34-8;82005-07-0",
    "SMILES": "CC1=CC=CC=N1",
    "meta_data": {
        "InChI": "InChI=1S/C6H7N/c1-6-4-2-3-5-7-6/h2-5H,1H3",
        "InChIKey": null,
        "Canonical SMILES": "N=1C=CC=CC1C",
        "Molecular Formula": "C<sub>6</sub>H<sub>7</sub>N",
        "Molecular Mass": "93.13",
        "Boiling Point": "128-129 °C",
        "Melting Point": "-70 °C",
        "Density": "0.9443 g/cm³ @ Temp: 20 °C"
    }
}