{
    "cas_no": "29969-57-1",
    "key_name": "2-Chloro-6-nitroquinoline",
    "cn_name": null,
    "alternate_name": "Quinoline, 2-chloro-6-nitro-;2-Chloro-6-nitroquinoline",
    "duplicated_cas_no": "13675-95-1",
    "SMILES": "N(=O)(=O)C1=CC2=C(N=C(Cl)C=C2)C=C1",
    "meta_data": {
        "InChI": "InChI=1S/C9H5ClN2O2/c10-9-4-1-6-5-7(12(13)14)2-3-8(6)11-9/h1-5H",
        "InChIKey": null,
        "Canonical SMILES": "O=N(=O)C=1C=CC2=NC(Cl)=CC=C2C1",
        "Molecular Formula": "C<sub>9</sub>H<sub>5</sub>ClN<sub>2</sub>O<sub>2</sub>",
        "Molecular Mass": "208.60",
        "Melting Point": "235 °C"
    }
}