{
    "cas_no": "1620-72-0",
    "key_name": "2-Methyl-6-(trifluoromethyl)pyridine",
    "cn_name": null,
    "alternate_name": "Pyridine, 2-methyl-6-(trifluoromethyl)-;2-Methyl-6-(trifluoromethyl)pyridine;2-Methyl-6-trifluoromethylpyridine;2-Trifluoromethyl-6-methylpyridine",
    "duplicated_cas_no": "",
    "SMILES": "C(F)(F)(F)C=1N=C(C)C=CC1",
    "meta_data": {
        "InChI": "InChI=1S/C7H6F3N/c1-5-3-2-4-6(11-5)7(8,9)10/h2-4H,1H3",
        "InChIKey": null,
        "Canonical SMILES": "FC(F)(F)C1=NC(=CC=C1)C",
        "Molecular Formula": "C<sub>7</sub>H<sub>6</sub>F<sub>3</sub>N",
        "Molecular Mass": "161.12",
        "Boiling Point": "153 °C",
        "Melting Point": "12.5 °C"
    }
}