{
    "cas_no": "108-87-2",
    "key_name": "Methylcyclohexane",
    "cn_name": "甲基环己烷;",
    "alternate_name": "Cyclohexane, methyl-;Methylcyclohexane;Cyclohexylmethane;Hexahydrotoluene;Toluene hexahydride;1-Methylcyclohexane;MCHX;NSC 9391;Swaclean MCH",
    "duplicated_cas_no": "",
    "SMILES": "CC1CCCCC1",
    "meta_data": {
        "InChI": "InChI=1S/C7H14/c1-7-5-3-2-4-6-7/h7H,2-6H2,1H3",
        "InChIKey": null,
        "Canonical SMILES": "CC1CCCCC1",
        "Molecular Formula": "C<sub>7</sub>H<sub>14</sub>",
        "Molecular Mass": "98.19",
        "Boiling Point": "100.9 °C @ Press: 760 Torr",
        "Melting Point": "-126.6 °C",
        "Density": "0.7694 g/cm³ @ Temp: 20 °C"
    }
}