{
    "cas_no": "80-75-1",
    "key_name": "11α-Hydroxyprogesterone",
    "cn_name": "11α-孕酮;11ALPHA-孕酮;",
    "alternate_name": "Pregn-4-ene-3,20-dione, 11-hydroxy-, (11α)-;Pregn-4-ene-3,20-dione, 11α-hydroxy-;Progesterone, 11α-hydroxy-;(11α)-11-Hydroxypregn-4-ene-3,20-dione;11α-Hydroxypregn-4-ene-3,20-dione;Pregn-4-en-11α-ol-3,20-dione;U 0384;4-Pregnene-11α-ol-3,20-dione;11α-Hydroxyprogesterone;11-Hydroxyprogesterone;DG 322B;NSC 3350",
    "duplicated_cas_no": "1942021-77-3",
    "SMILES": "C[C@@]12[C@@]3([C@]([C@]4([C@](C)(C[C@H]3O)[C@@H](C(C)=O)CC4)[H])(CCC1=CC(=O)CC2)[H])[H]",
    "meta_data": {
        "InChI": "InChI=1S/C21H30O3/c1-12(22)16-6-7-17-15-5-4-13-10-14(23)8-9-20(13,2)19(15)18(24)11-21(16,17)3/h10,15-19,24H,4-9,11H2,1-3H3/t15-,16+,17-,18+,19+,20-,21+/m0/s1",
        "InChIKey": null,
        "Canonical SMILES": "O=C1C=C2CCC3C4CCC(C(=O)C)C4(C)CC(O)C3C2(C)CC1",
        "Molecular Formula": "C<sub>21</sub>H<sub>30</sub>O<sub>3</sub>",
        "Molecular Mass": "330.46",
        "Melting Point": "166-168 °C"
    }
}