{
    "cas_no": "619-31-8",
    "key_name": "<em>N</em>,<em>N</em>-Dimethyl-3-nitroaniline",
    "cn_name": "N,N-二甲基-3-硝基苯胺;",
    "alternate_name": "Benzenamine, <em>N</em>,<em>N</em>-dimethyl-3-nitro-;Aniline, <em>N</em>,<em>N</em>-dimethyl-<em>m</em>-nitro-;<em>N</em>,<em>N</em>-Dimethyl-3-nitrobenzenamine;<em>m</em>-Nitro-<em>N</em>,<em>N</em>-dimethylaniline;<em>N</em>,<em>N</em>-Dimethyl-<em>m</em>-nitroaniline;1-(Dimethylamino)-3-nitrobenzene;3-Nitro-<em>N</em>,<em>N</em>-dimethylaniline;<em>N</em>,<em>N</em>-Dimethyl-3-nitroaniline;NSC 9814",
    "duplicated_cas_no": "",
    "SMILES": "N(C)(C)C1=CC(N(=O)=O)=CC=C1",
    "meta_data": {
        "InChI": "InChI=1S/C8H10N2O2/c1-9(2)7-4-3-5-8(6-7)10(11)12/h3-6H,1-2H3",
        "InChIKey": null,
        "Canonical SMILES": "O=N(=O)C1=CC=CC(=C1)N(C)C",
        "Molecular Formula": "C<sub>8</sub>H<sub>10</sub>N<sub>2</sub>O<sub>2</sub>",
        "Molecular Mass": "166.18",
        "Boiling Point": "282.5 °C",
        "Melting Point": "60.5 °C"
    }
}