{
    "cas_no": "119-23-3",
    "key_name": "1,4-Diethoxy-2-nitrobenzene",
    "cn_name": "2,5-二乙基硝基苯;",
    "alternate_name": "Benzene, 1,4-diethoxy-2-nitro-;1,4-Diethoxy-2-nitrobenzene;2-Nitrohydroquinone diethyl ether;2,5-Diethoxynitrobenzene;NSC 81234;2,5-Diethoxy-1-nitrobenzene",
    "duplicated_cas_no": "",
    "SMILES": "N(=O)(=O)C1=C(OCC)C=CC(OCC)=C1",
    "meta_data": {
        "InChI": "InChI=1S/C10H13NO4/c1-3-14-8-5-6-10(15-4-2)9(7-8)11(12)13/h5-7H,3-4H2,1-2H3",
        "InChIKey": null,
        "Canonical SMILES": "O=N(=O)C1=CC(OCC)=CC=C1OCC",
        "Molecular Formula": "C<sub>10</sub>H<sub>13</sub>NO<sub>4</sub>",
        "Molecular Mass": "211.21",
        "Melting Point": "-49 °C"
    }
}