{
    "cas_no": "17852-28-7",
    "key_name": "2-Amino-5-methylbenzophenone",
    "cn_name": null,
    "alternate_name": "Methanone, (2-amino-5-methylphenyl)phenyl-;Benzophenone, 2-amino-5-methyl-;(2-Amino-5-methylphenyl)phenylmethanone;2-Amino-5-methylbenzophenone;2-Benzoyl-4-methylaniline;2-Amino-5-methylphenyl phenyl ketone",
    "duplicated_cas_no": "",
    "SMILES": "C(=O)(C1=C(N)C=CC(C)=C1)C2=CC=CC=C2",
    "meta_data": {
        "InChI": "InChI=1S/C14H13NO/c1-10-7-8-13(15)12(9-10)14(16)11-5-3-2-4-6-11/h2-9H,15H2,1H3",
        "InChIKey": null,
        "Canonical SMILES": "O=C(C=1C=CC=CC1)C2=CC(=CC=C2N)C",
        "Molecular Formula": "C<sub>14</sub>H<sub>13</sub>NO",
        "Molecular Mass": "211.26",
        "Melting Point": "64-64.5 °C"
    }
}