{
    "cas_no": "618-47-3",
    "key_name": "3-Methylbenzamide",
    "cn_name": "3-甲基苯甲酰胺;",
    "alternate_name": "Benzamide, 3-methyl-;<em>m</em>-Toluamide;3-Methylbenzamide;<em>m</em>-Methylbenzamide;NSC 2170",
    "duplicated_cas_no": "",
    "SMILES": "C(N)(=O)C1=CC(C)=CC=C1",
    "meta_data": {
        "InChI": "InChI=1S/C8H9NO/c1-6-3-2-4-7(5-6)8(9)10/h2-5H,1H3,(H2,9,10)",
        "InChIKey": null,
        "Canonical SMILES": "O=C(N)C1=CC=CC(=C1)C",
        "Molecular Formula": "C<sub>8</sub>H<sub>9</sub>NO",
        "Molecular Mass": "135.16",
        "Melting Point": "94-96 °C",
        "Density": "1.19 g/cm³"
    }
}