{
    "cas_no": "586-98-1",
    "key_name": "2-Pyridinemethanol",
    "cn_name": "2-吡啶甲醇;2-羟甲基吡啶;",
    "alternate_name": "2-Pyridinemethanol;2-(Hydroxymethyl)pyridine;2-Pyridylcarbinol;Pyridine-2-carbinol;2-Pyridylmethanol;α-Picolyl alcohol;2-Pyridinylmethanol;Piconol;2-Pyridinylcarbinol",
    "duplicated_cas_no": "",
    "SMILES": "C(O)C1=CC=CC=N1",
    "meta_data": {
        "InChI": "InChI=1S/C6H7NO/c8-5-6-3-1-2-4-7-6/h1-4,8H,5H2",
        "InChIKey": null,
        "Canonical SMILES": "OCC1=NC=CC=C1",
        "Molecular Formula": "C<sub>6</sub>H<sub>7</sub>NO",
        "Molecular Mass": "109.13",
        "Boiling Point": "112 °C",
        "Melting Point": "73 °C"
    }
}