{
    "cas_no": "24979-70-2",
    "key_name": "Poly(4-vinylphenol)",
    "cn_name": null,
    "alternate_name": "Phenol, 4-ethenyl-, homopolymer;Phenol, <em>p</em>-vinyl-, polymers;Poly(4-vinylphenol);4-Vinylphenol polymer;Poly(<em>p</em>-hydroxystyrene);Poly(<em>p</em>-vinylphenol);<em>p</em>-Vinylphenol polymer;<em>p</em>-Hydroxystyrene polymer;Maruzen M;4-Hydroxystyrene polymer;Resin M;Maruzen resin M;PVP 7324;4-Vinylphenol homopolymer;PHP 6829;<em>p</em>-Vinylphenol homopolymer;Maruka Lyncur M;MS 2;MS 3;Maruka Lyncur M-S 4;Poly(4-hydroxyvinylbenzene);Poly(4-hydroxystyrene);Maruka Lyncur PHM-C;Maruka Lyncur M-S 1;SN 5773;SN 7549;SN 7548;<em>p</em>-Hydroxystyrene homopolymer;Maruka Lyncur M-S 3;Maruka Lyncur M-S 2;Maruka Lyncur M-S 2P;Maruka Lyncur M-H 2P;Maruka Lyncur M-S 1P;4-Hydroxystyrene homopolymer;Maruka Lyncur M-H 2;PHS-PG;PHS-NG;VP 5000;VP 8000;VP 15000;PHS 4;Maruka Lyncur M-S 4P;Poly(<em>p</em>-hydroxyvinylbenzene);VP 2500;Maruka Lyncur S 1P;Maruka Lyncur S 2P;Maruka Lyncur PIIM-C;Maruka Lyncur H 2P;PHS 15E01;VP 1500;Maruka Lyncur S 4P;S 4P;Maruka Lyncur H;Maruka Lyncur S 1;P 8ND;P 25ED;PB 5E;S 2P;PHS 8E01;HPS-H 10K",
    "duplicated_cas_no": "101052-19-1;301206-26-8;301206-27-9;1131708-03-6;1384864-57-6",
    "SMILES": "C(=C)C1=CC=C(O)C=C1",
    "meta_data": {
        "InChI": "InChI=1S/C8H8O/c1-2-7-3-5-8(9)6-4-7/h2-6,9H,1H2",
        "InChIKey": null,
        "Canonical SMILES": "OC1=CC=C(C=C)C=C1",
        "Molecular Formula": "(C<sub>8</sub>H<sub>8</sub>O)<sub>x</sub>",
        "Molecular Mass": "",
        "Melting Point": "170 °C",
        "Density": "1.16 g/cm³"
    }
}