{
    "cas_no": "1778-09-2",
    "key_name": "1-[4-(Methylthio)phenyl]ethanone",
    "cn_name": "4-甲硫基苯乙酮;对甲硫基苯乙酮;",
    "alternate_name": "Ethanone, 1-[4-(methylthio)phenyl]-;Acetophenone, 4′-(methylthio)-;1-[4-(Methylthio)phenyl]ethanone;<em>p</em>-(Methylmercapto)acetophenone;4′-(Methylmercapto)acetophenone;<em>p</em>-(Methylthio)acetophenone;4′-(Methylthio)acetophenone;<em>p</em>-Acetylphenyl methyl sulfide;4-Acetylthioanisole;Methyl <em>p</em>-acetylphenyl sulfide;<em>p</em>-Acetylthioanisole;Methyl 4-(methylthio)phenyl ketone;4-Acetylphenyl methyl sulfide;NSC 403927;1-(4-Methylsulfanylphenyl)ethanone;4-(Methylsulfenyl)acetophenone;1-Acetyl-4-(methylthio)benzene;1-[4-(Methylsulfanyl)phenyl]ethan-1-one;1-(4-(Methylthio)phenyl)ethan-1-one",
    "duplicated_cas_no": "918888-01-4",
    "SMILES": "C(C)(=O)C1=CC=C(SC)C=C1",
    "meta_data": {
        "InChI": "InChI=1S/C9H10OS/c1-7(10)8-3-5-9(11-2)6-4-8/h3-6H,1-2H3",
        "InChIKey": null,
        "Canonical SMILES": "O=C(C1=CC=C(SC)C=C1)C",
        "Molecular Formula": "C<sub>9</sub>H<sub>10</sub>OS",
        "Molecular Mass": "166.24",
        "Boiling Point": "170 °C @ Press: 10 Torr",
        "Melting Point": "79-80 °C"
    }
}