{
    "cas_no": "6140-17-6",
    "key_name": "1-Methyl-4-(trifluoromethyl)benzene",
    "cn_name": "4-甲基三氟甲苯;对甲基三氟甲苯;",
    "alternate_name": "Benzene, 1-methyl-4-(trifluoromethyl)-;<em>p</em>-Xylene, α,α,α-trifluoro-;1-Methyl-4-(trifluoromethyl)benzene;α,α,α-Trifluoro-<em>p</em>-xylene;<em>p</em>-(Trifluoromethyl)toluene;4-Methylbenzotrifluoride;4-(Trifluoromethyl)toluene;1-(Trifluoromethyl)-4-methylbenzene;4-Methyl-1-(trifluoromethyl)benzene;<em>p</em>-Methylbenzotrifluoride",
    "duplicated_cas_no": "",
    "SMILES": "C(F)(F)(F)C1=CC=C(C)C=C1",
    "meta_data": {
        "InChI": "InChI=1S/C8H7F3/c1-6-2-4-7(5-3-6)8(9,10)11/h2-5H,1H3",
        "InChIKey": null,
        "Canonical SMILES": "FC(F)(F)C1=CC=C(C=C1)C",
        "Molecular Formula": "C<sub>8</sub>H<sub>7</sub>F<sub>3</sub>",
        "Molecular Mass": "160.14",
        "Boiling Point": "129 °C",
        "Melting Point": "129-130 °C"
    }
}