{
    "cas_no": "279-23-2",
    "key_name": "Norbornane",
    "cn_name": "降莰烷;",
    "alternate_name": "Bicyclo[2.2.1]heptane;Norbornane;Cyclohexane, 1,4-<em>endo</em>-methylene-;Norbornylane;Norcamphane;Norfenchane;Norsantane;1,4-Endomethylenecyclohexane;NSC 91457",
    "duplicated_cas_no": "",
    "SMILES": "C12CC(CC1)CC2",
    "meta_data": {
        "InChI": "InChI=1S/C7H12/c1-2-7-4-3-6(1)5-7/h6-7H,1-5H2",
        "InChIKey": null,
        "Canonical SMILES": "C1CC2CCC1C2",
        "Molecular Formula": "C<sub>7</sub>H<sub>12</sub>",
        "Molecular Mass": "96.17",
        "Boiling Point": "105.3 °C",
        "Melting Point": "87.5 °C"
    }
}