{
    "cas_no": "78-87-5",
    "key_name": "1,2-Dichloropropane",
    "cn_name": "1,2-二氯丙烷;",
    "alternate_name": "Propane, 1,2-dichloro-;1,2-Dichloropropane;Propylene chloride;Propylene dichloride;1,2-DCP;R 270da;NSC 1237",
    "duplicated_cas_no": "26198-63-0",
    "SMILES": "C(CCl)(C)Cl",
    "meta_data": {
        "InChI": "InChI=1S/C3H6Cl2/c1-3(5)2-4/h3H,2H2,1H3",
        "InChIKey": null,
        "Canonical SMILES": "ClCC(Cl)C",
        "Molecular Formula": "C<sub>3</sub>H<sub>6</sub>Cl<sub>2</sub>",
        "Molecular Mass": "112.99",
        "Boiling Point": "96.4 °C",
        "Melting Point": "-100.4 °C",
        "Density": "1.159 g/cm³ @ Temp: 25 °C"
    }
}