{
    "cas_no": "1044870-39-4",
    "key_name": "Apabetalone",
    "cn_name": null,
    "alternate_name": "4(3<em>H</em>)-Quinazolinone, 2-[4-(2-hydroxyethoxy)-3,5-dimethylphenyl]-5,7-dimethoxy-;2-[4-(2-Hydroxyethoxy)-3,5-dimethylphenyl]-5,7-dimethoxy-4(3<em>H</em>)-quinazolinone;2-[4-(2-Hydroxyethoxy)-3,5-dimethylphenyl]-5,7-dimethoxy-3<em>H</em>-quinazolin-4-one;2-[4-(2-Hydroxyethoxy)-3,5-dimethylphenyl]-5,7-dimethoxyquinazolin-4(3<em>H</em>)-one;RVX 208;RVX 000222;Apabetalone;2-[4-(2-Hydroxyethoxy)-3,5-dimethylphenyl]-5,7-dimethoxy-1<em>H</em>-quinazolin-4-one",
    "duplicated_cas_no": "1246400-89-4",
    "SMILES": "O(C)C1=C2C(NC(=NC2=O)C3=CC(C)=C(OCCO)C(C)=C3)=CC(OC)=C1",
    "meta_data": {
        "InChI": "InChI=1S/C20H22N2O5/c1-11-7-13(8-12(2)18(11)27-6-5-23)19-21-15-9-14(25-3)10-16(26-4)17(15)20(24)22-19/h7-10,23H,5-6H2,1-4H3,(H,21,22,24)",
        "InChIKey": null,
        "Canonical SMILES": "O=C1N=C(NC=2C=C(OC)C=C(OC)C12)C=3C=C(C(OCCO)=C(C3)C)C",
        "Molecular Formula": "C<sub>20</sub>H<sub>22</sub>N<sub>2</sub>O<sub>5</sub>",
        "Molecular Mass": "370.40",
        "Melting Point": "594.2 °C"
    }
}