{
    "cas_no": "22090-26-2",
    "key_name": "1-(4-Bromophenyl)pyrrolidine",
    "cn_name": null,
    "alternate_name": "Pyrrolidine, 1-(4-bromophenyl)-;Pyrrolidine, 1-(<em>p</em>-bromophenyl)-;1-(4-Bromophenyl)pyrrolidine;<em>N</em>-(4-Bromophenyl)pyrrolidine;4-Pyrrolidinobromobenzene;4-Bromo-1-(1-pyrrolidinyl)benzene",
    "duplicated_cas_no": "",
    "SMILES": "BrC1=CC=C(C=C1)N2CCCC2",
    "meta_data": {
        "InChI": "InChI=1S/C10H12BrN/c11-9-3-5-10(6-4-9)12-7-1-2-8-12/h3-6H,1-2,7-8H2",
        "InChIKey": null,
        "Canonical SMILES": "BrC1=CC=C(C=C1)N2CCCC2",
        "Molecular Formula": "C<sub>10</sub>H<sub>12</sub>BrN",
        "Molecular Mass": "226.11",
        "Melting Point": "99-100 °C"
    }
}