{
    "cas_no": "3397-16-8",
    "key_name": "<em>N</em>-Stearoyl-<span class=\"text-smallcaps\">L</span>-glutamic acid",
    "cn_name": "硬脂酰谷氨酸;硬脂酰谷氨酸;",
    "alternate_name": "<span class=\"text-smallcaps\">L</span>-Glutamic acid, <em>N</em>-(1-oxooctadecyl)-;Glutamic acid, <em>N</em>-stearoyl-, <span class=\"text-smallcaps\">L</span>-;Glutamic acid, <em>N</em>-stearoyl-;<em>N</em>-(1-Oxooctadecyl)-<span class=\"text-smallcaps\">L</span>-glutamic acid;<em>N</em>-Stearoylglutamic acid;<em>N</em>-Stearoyl-<span class=\"text-smallcaps\">L</span>-glutamic acid;<em>N</em>-Octadecanoylglutamic acid;Amisoft HA;<em>N</em>-Octadecanoyl-<span class=\"text-smallcaps\">L</span>-glutamic acid;Aminosoft HS11PF;Amisoft HA-P",
    "duplicated_cas_no": "36728-08-2;45300-42-3;179799-62-3",
    "SMILES": "[C@H](NC(CCCCCCCCCCCCCCCCC)=O)(CCC(O)=O)C(O)=O",
    "meta_data": {
        "InChI": "InChI=1S/C23H43NO5/c1-2-3-4-5-6-7-8-9-10-11-12-13-14-15-16-17-21(25)24-20(23(28)29)18-19-22(26)27/h20H,2-19H2,1H3,(H,24,25)(H,26,27)(H,28,29)/t20-/m0/s1",
        "InChIKey": null,
        "Canonical SMILES": "O=C(O)CCC(NC(=O)CCCCCCCCCCCCCCCCC)C(=O)O",
        "Molecular Formula": "C<sub>23</sub>H<sub>43</sub>NO<sub>5</sub>",
        "Molecular Mass": "413.59",
        "Melting Point": "113-113.5 °C"
    }
}