{
    "cas_no": "87-56-9",
    "key_name": "Mucochloric acid",
    "cn_name": "糠氯酸;粘氯酸;二氯代丁烯醛;2,3-二氯丁烯醛酸;",
    "alternate_name": "2-Butenoic acid, 2,3-dichloro-4-oxo-, (2<em>Z</em>)-;Mucochloric acid;Malealdehydic acid, dichloro-;2-Butenoic acid, 2,3-dichloro-4-oxo-, (<em>Z</em>)-;(2<em>Z</em>)-2,3-Dichloro-4-oxo-2-butenoic acid;α,β-Dichloro-β-formylacrylic acid;Dichloromalealdehydic acid;2,3-Dichloromaleic aldehyde acid",
    "duplicated_cas_no": "",
    "SMILES": "C(=C(\\C=O)/Cl)(\\C(O)=O)/Cl",
    "meta_data": {
        "InChI": "InChI=1S/C4H2Cl2O3/c5-2(1-7)3(6)4(8)9/h1H,(H,8,9)/b3-2-",
        "InChIKey": null,
        "Canonical SMILES": "O=CC(Cl)=C(Cl)C(=O)O",
        "Molecular Formula": "C<sub>4</sub>H<sub>2</sub>Cl<sub>2</sub>O<sub>3</sub>",
        "Molecular Mass": "168.96",
        "Melting Point": "127 °C"
    }
}