{
    "cas_no": "1435-48-9",
    "key_name": "2,4-Dichlorofluorobenzene",
    "cn_name": "2,4-二氯氟苯;",
    "alternate_name": "Benzene, 2,4-dichloro-1-fluoro-;2,4-Dichloro-1-fluorobenzene;2,4-Dichlorofluorobenzene;1-Fluoro-2,4-dichlorobenzene;1,3-Dichloro-4-fluorobenzene;2,6-Dichloro-3-fluorophenyl;1,3-Bischloro-4-fluorobenzene;2,4-Dichloro-1-fluorbenzene",
    "duplicated_cas_no": "",
    "SMILES": "ClC1=C(F)C=CC(Cl)=C1",
    "meta_data": {
        "InChI": "InChI=1S/C6H3Cl2F/c7-4-1-2-6(9)5(8)3-4/h1-3H",
        "InChIKey": null,
        "Canonical SMILES": "FC1=CC=C(Cl)C=C1Cl",
        "Molecular Formula": "C<sub>6</sub>H<sub>3</sub>Cl<sub>2</sub>F",
        "Molecular Mass": "164.99",
        "Boiling Point": "172-174 °C",
        "Melting Point": "-13.8--13.2 °C",
        "Density": "1.4092 g/cm³ @ Temp: 20 °C"
    }
}