{
    "cas_no": "635-93-8",
    "key_name": "5-Chlorosalicylaldehyde",
    "cn_name": "5-氯代水杨醛;",
    "alternate_name": "Benzaldehyde, 5-chloro-2-hydroxy-;Salicylaldehyde, 5-chloro-;5-Chloro-2-hydroxybenzaldehyde;5-Chlorosalicylaldehyde;2-Hydroxy-5-chlorobenzaldehyde;4-Chloro-2-formylphenol;5-Chloro-<em>o</em>-salicylaldehyde;3-Chloro-6-hydroxybenzaldehyde;NSC 3811;5-Chlorosalicyaldehyde",
    "duplicated_cas_no": "",
    "SMILES": "C(=O)C1=C(O)C=CC(Cl)=C1",
    "meta_data": {
        "InChI": "InChI=1S/C7H5ClO2/c8-6-1-2-7(10)5(3-6)4-9/h1-4,10H",
        "InChIKey": null,
        "Canonical SMILES": "O=CC1=CC(Cl)=CC=C1O",
        "Molecular Formula": "C<sub>7</sub>H<sub>5</sub>ClO<sub>2</sub>",
        "Molecular Mass": "156.57",
        "Melting Point": "100.3 °C"
    }
}