{
    "cas_no": "2623-22-5",
    "key_name": "15-Acetoxyscirpenol",
    "cn_name": null,
    "alternate_name": "Trichothec-9-ene-3,4,15-triol, 12,13-epoxy-, 15-acetate, (3α,4β)-;Trichothec-9-ene-3α,4β,15-triol, 12,13-epoxy-, 15-acetate;Scirp-9-ene-3α,4β,15-triol, 12,13-epoxy-, 15-acetate;15-Acetoxyscirpen-3,4-diol;4-Deacetylanguidin;NSC 267030;15-Acetoxyscirpenol;15-Monoacetoxyscirpenol;15-Mono-<em>O</em>-acetylscirpenol;15-<em>O</em>-Acetylscirpenetriol;15-Acetylscirpenetriol;Monoacetoxyscirpenol;Acetoxyscirpenediol",
    "duplicated_cas_no": "852222-55-0;174421-33-1",
    "SMILES": "C[C@@]12[C@@]3([C@@]([C@H](O)[C@H]1O)(O[C@]4([C@]2(COC(C)=O)CCC(C)=C4)[H])[H])CO3",
    "meta_data": {
        "InChI": "InChI=1S/C17H24O6/c1-9-4-5-16(7-21-10(2)18)11(6-9)23-14-12(19)13(20)15(16,3)17(14)8-22-17/h6,11-14,19-20H,4-5,7-8H2,1-3H3/t11-,12-,13-,14-,15-,16-,17+/m1/s1",
        "InChIKey": null,
        "Canonical SMILES": "O=C(OCC12CCC(=CC2OC3C(O)C(O)C1(C)C43OC4)C)C",
        "Molecular Formula": "C<sub>17</sub>H<sub>24</sub>O<sub>6</sub>",
        "Molecular Mass": "324.37",
        "Melting Point": "170-172 °C"
    }
}