{
    "cas_no": "7786-34-7",
    "key_name": "Mevinphos",
    "cn_name": null,
    "alternate_name": "2-Butenoic acid, 3-[(dimethoxyphosphinyl)oxy]-, methyl ester;Crotonic acid, 3-hydroxy-, methyl ester, dimethyl phosphate;1-Methoxycarbonyl-1-propen-2-yl dimethyl phosphate;Meniphos;Phosdrin;Mevinphos;2-Methoxycarbonyl-1-methylvinyl dimethyl phosphate;Fosdrin;<em>O</em>,<em>O</em>-Dimethyl <em>O</em>-(1-carbomethoxy-1-propen-2-yl) phosphate;2-Carbomethoxy-1-methylvinyl dimethyl phosphate;Gesfid;CMDP;PD 5 (pesticide);PD 5;Phosdrin W 10;NSC 46470;MeSH ID: D008799",
    "duplicated_cas_no": "243464-31-5",
    "SMILES": "P(OC(=CC(OC)=O)C)(OC)(OC)=O",
    "meta_data": {
        "InChI": "InChI=1S/C7H13O6P/c1-6(5-7(8)10-2)13-14(9,11-3)12-4/h5H,1-4H3",
        "InChIKey": null,
        "Canonical SMILES": "O=C(OC)C=C(OP(=O)(OC)OC)C",
        "Molecular Formula": "C<sub>7</sub>H<sub>13</sub>O<sub>6</sub>P",
        "Molecular Mass": "224.15",
        "Boiling Point": "106-107.5 °C @ Press: 1 Torr",
        "Melting Point": "6.9 °C",
        "Density": "1.25 g/cm³ @ Temp: 20 °C"
    }
}