{
    "cas_no": "13159-52-9",
    "key_name": "3-Chloro-2-hydroxypropyl methacrylate",
    "cn_name": "2-甲基-2-丙烯酸-3-氯-2-羟基丙基酯;",
    "alternate_name": "2-Propenoic acid, 2-methyl-, 3-chloro-2-hydroxypropyl ester;Methacrylic acid, 3-chloro-2-hydroxypropyl ester;1,2-Propanediol, 3-chloro-, 1-methacrylate;3-Chloro-2-hydroxypropyl methacrylate;β-Hydroxy-γ-chloropropyl methacrylate;2-Hydroxy-3-chloropropyl methacrylate;Noimer M;1-Chloro-3-methacryloxy-2-propanol;Topolene M;3-Chloro-2-hydroxyprop-1-yl methacrylate;(3-Chloro-2-hydroxypropyl) 2-methylprop-2-enoate;2-Methyl-acrylic acid 3-chloro-2-hydroxy-propyl ester;3-Chloro-2-hydroxypropyl 2-methylprop-2-enoate",
    "duplicated_cas_no": "",
    "SMILES": "O(CC(CCl)O)C(C(C)=C)=O",
    "meta_data": {
        "InChI": "InChI=1S/C7H11ClO3/c1-5(2)7(10)11-4-6(9)3-8/h6,9H,1,3-4H2,2H3",
        "InChIKey": null,
        "Canonical SMILES": "O=C(OCC(O)CCl)C(=C)C",
        "Molecular Formula": "C<sub>7</sub>H<sub>11</sub>ClO<sub>3</sub>",
        "Molecular Mass": "178.61",
        "Boiling Point": "104-108 °C @ Press: 5 Torr",
        "Density": "1.1740 g/cm³ @ Temp: 20 °C"
    }
}