{
    "cas_no": "6203-18-5",
    "key_name": "4-(Dimethylamino)cinnamaldehyde",
    "cn_name": "4-二甲基氨基肉桂醛;4-(二甲基氨基)肉桂醛;对二甲氨基肉桂醛;",
    "alternate_name": "2-Propenal, 3-[4-(dimethylamino)phenyl]-;Cinnamaldehyde, <em>p</em>-(dimethylamino)-;3-[4-(Dimethylamino)phenyl]-2-propenal;<em>p</em>-(Dimethylamino)cinnamaldehyde;<em>p</em>-(Dimethylamino)cinnamic aldehyde;4-(Dimethylamino)cinnamaldehyde;4-(<em>N</em>,<em>N</em>-Dimethylamino)cinnamaldehyde;<em>p</em>-(<em>N</em>,<em>N</em>-Dimethylamino)cinnamaldehyde;3-(4-Dimethylaminophenyl)propenal;4-Dimethylaminozimtaldehyde;NSC 62138;4-Dimethylaminocinnamic aldehyde;p-Dimethylaminocinnamaldehyde;4-Dimethylaminocinnamaldehyde;D 0648",
    "duplicated_cas_no": "1619932-85-2",
    "SMILES": "N(C)(C)C1=CC=C(C=CC=O)C=C1",
    "meta_data": {
        "InChI": "InChI=1S/C11H13NO/c1-12(2)11-7-5-10(6-8-11)4-3-9-13/h3-9H,1-2H3",
        "InChIKey": null,
        "Canonical SMILES": "O=CC=CC1=CC=C(C=C1)N(C)C",
        "Molecular Formula": "C<sub>11</sub>H<sub>13</sub>NO",
        "Molecular Mass": "175.23",
        "Melting Point": "133.7-135 °C"
    }
}