{
    "cas_no": "97240-79-4",
    "key_name": "Topiramate",
    "cn_name": "托吡酯;妥泰;",
    "alternate_name": "β-<span class=\"text-smallcaps\">D</span>-Fructopyranose, 2,3:4,5-bis-<em>O</em>-(1-methylethylidene)-, 1-sulfamate;β-<span class=\"text-smallcaps\">D</span>-Fructopyranose, 2,3:4,5-bis-<em>O</em>-(1-methylethylidene)-, sulfamate;5<em>H</em>-Bis[1,3]dioxolo[4,5-<em>b</em>:4′,5′-<em>d</em>]pyran, β-<span class=\"text-smallcaps\">D</span>-fructopyranose deriv.;Topiramate;McN 4853;RWJ 17021;2,3:4,5-Bis-<em>O</em>-(1-methylethylidene) β-<span class=\"text-smallcaps\">D</span>-fructopyranose sulfamate;Topomax;Topamax;Epitomax;Topimax;Topamac;TPM;Epitoma;Topina;Sincronil;Qudexy XR;Trokendi XR;Topiragen;MeSH ID: C052342",
    "duplicated_cas_no": "1103510-60-6",
    "SMILES": "C(OS(N)(=O)=O)[C@]12[C@]([C@]3([C@@](CO1)(OC(C)(C)O3)[H])[H])(OC(C)(C)O2)[H]",
    "meta_data": {
        "InChI": "InChI=1S/C12H21NO8S/c1-10(2)18-7-5-16-12(6-17-22(13,14)15)9(8(7)19-10)20-11(3,4)21-12/h7-9H,5-6H2,1-4H3,(H2,13,14,15)/t7-,8-,9+,12+/m1/s1",
        "InChIKey": null,
        "Canonical SMILES": "O=S(=O)(OCC12OCC3OC(OC3C2OC(O1)(C)C)(C)C)N",
        "Molecular Formula": "C<sub>12</sub>H<sub>21</sub>NO<sub>8</sub>S",
        "Molecular Mass": "339.36",
        "Melting Point": "125-126 °C"
    }
}