{
    "cas_no": "6315-89-5",
    "key_name": "3,4-Dimethoxyaniline",
    "cn_name": "3,4-二甲氧基苯胺;",
    "alternate_name": "Benzenamine, 3,4-dimethoxy-;Aniline, 3,4-dimethoxy-;3,4-Dimethoxybenzenamine;3,4-Dimethoxyaniline;4-Aminoveratrole;2-Methoxy-4-aminoanisole;4-Aminoveratrol;3,4-Dimethoxyphenylamine;4-Amino-1,2-dimethoxybenzene;NSC 21033;3,4-Bis(methoxy)aniline",
    "duplicated_cas_no": "",
    "SMILES": "O(C)C1=C(OC)C=C(N)C=C1",
    "meta_data": {
        "InChI": "InChI=1S/C8H11NO2/c1-10-7-4-3-6(9)5-8(7)11-2/h3-5H,9H2,1-2H3",
        "InChIKey": null,
        "Canonical SMILES": "O(C1=CC=C(N)C=C1OC)C",
        "Molecular Formula": "C<sub>8</sub>H<sub>11</sub>NO<sub>2</sub>",
        "Molecular Mass": "153.18",
        "Boiling Point": "160 °C @ Press: 14 Torr",
        "Melting Point": "85 °C"
    }
}