{
    "cas_no": "23199-56-6",
    "key_name": "Methanesulfonic acid, 1,1,1-trichloro-, 2,2,2-trifluoroethyl ester",
    "cn_name": "2,2,2-三氟乙基三氯甲烷磺酸酯;",
    "alternate_name": "Methanesulfonic acid, 1,1,1-trichloro-, 2,2,2-trifluoroethyl ester;Methanesulfonic acid, trichloro-, 2,2,2-trifluoroethyl ester;Ethanol, 2,2,2-trifluoro-, trichloromethanesulfonate;2,2,2-Trifluoroethyl trichloromethanesulfonate;2,2,2-Trifluoroethyl trichloromethanesulphonat",
    "duplicated_cas_no": "",
    "SMILES": "S(C(Cl)(Cl)Cl)(OCC(F)(F)F)(=O)=O",
    "meta_data": {
        "InChI": "InChI=1S/C3H2Cl3F3O3S/c4-3(5,6)13(10,11)12-1-2(7,8)9/h1H2",
        "InChIKey": null,
        "Canonical SMILES": "O=S(=O)(OCC(F)(F)F)C(Cl)(Cl)Cl",
        "Molecular Formula": "C<sub>3</sub>H<sub>2</sub>Cl<sub>3</sub>F<sub>3</sub>O<sub>3</sub>S",
        "Molecular Mass": "281.47",
        "Boiling Point": "84-86.8 °C @ Press: 20 Torr"
    }
}