{
    "cas_no": "13641-96-8",
    "key_name": "2-Isocyanatoethyl acrylate",
    "cn_name": null,
    "alternate_name": "2-Propenoic acid, 2-isocyanatoethyl ester;Acrylic acid, ester with 2-hydroxyethyl isocyanate;Acrylic acid, 2-isocyanatoethyl ester;Isocyanic acid 2-hydroxyethyl ester acrylate (ester);2-Isocyanatoethyl acrylate;Karenz AOI;2-Acryloyloxyethyl isocyanate;Karenz AOI-VM;β-Acryloxyethyl isocyanate;AOI-VM;2-Isocyanatoethyl prop-2-enoate",
    "duplicated_cas_no": "2760899-58-7",
    "SMILES": "C(OCCN=C=O)(C=C)=O",
    "meta_data": {
        "InChI": "InChI=1S/C6H7NO3/c1-2-6(9)10-4-3-7-5-8/h2H,1,3-4H2",
        "InChIKey": null,
        "Canonical SMILES": "O=C=NCCOC(=O)C=C",
        "Molecular Formula": "C<sub>6</sub>H<sub>7</sub>NO<sub>3</sub>",
        "Molecular Mass": "141.12",
        "Boiling Point": "80-82 °C @ Press: 10 Torr",
        "Melting Point": "58 °C"
    }
}