{
    "cas_no": "427-49-6",
    "key_name": "α-Cyclopentylmandelic acid",
    "cn_name": "2-环戊基-2-羟基苯乙酸;",
    "alternate_name": "Benzeneacetic acid, α-cyclopentyl-α-hydroxy-;Mandelic acid, α-cyclopentyl-;α-Cyclopentyl-α-hydroxybenzeneacetic acid;Cyclopentylphenylglycolic acid;α-Cyclopentylmandelic acid;NSC 96637;2-Cyclopentyl-2-hydroxy-2-(phenyl)acetic acid;(±)-Cyclopentylmandelic acid;Cyclopentylhydroxyphenylacetic acid",
    "duplicated_cas_no": "64471-41-6",
    "SMILES": "C(C(O)=O)(O)(C1=CC=CC=C1)C2CCCC2",
    "meta_data": {
        "InChI": "InChI=1S/C13H16O3/c14-12(15)13(16,11-8-4-5-9-11)10-6-2-1-3-7-10/h1-3,6-7,11,16H,4-5,8-9H2,(H,14,15)",
        "InChIKey": null,
        "Canonical SMILES": "O=C(O)C(O)(C=1C=CC=CC1)C2CCCC2",
        "Molecular Formula": "C<sub>13</sub>H<sub>16</sub>O<sub>3</sub>",
        "Molecular Mass": "220.26",
        "Melting Point": "147-148 °C"
    }
}