{
    "cas_no": "2968-33-4",
    "key_name": "1-Propanamine, 3,3,3-trifluoro-, hydrochloride (1:1)",
    "cn_name": "3,3,3-三氟丙胺盐酸盐;3,3,3-三氟丙胺盐酸盐;",
    "alternate_name": "1-Propanamine, 3,3,3-trifluoro-, hydrochloride (1:1);Propylamine, 3,3,3-trifluoro-, hydrochloride;1-Propanamine, 3,3,3-trifluoro-, hydrochloride;3,3,3-Trifluoropropylamine hydrochloride;3,3,3-Trifluoropropylamine monohydrochloride;3,3,3-Trifluoro-1-propanamine hydrochloride",
    "duplicated_cas_no": "",
    "SMILES": "C(C(F)(F)F)CN.Cl",
    "meta_data": {
        "InChI": "InChI=1S/C3H6F3N.ClH/c4-3(5,6)1-2-7;/h1-2,7H2;1H",
        "InChIKey": null,
        "Canonical SMILES": "Cl.FC(F)(F)CCN",
        "Molecular Formula": "C<sub>3</sub>H<sub>6</sub>F<sub>3</sub>N.ClH",
        "Molecular Mass": "",
        "Melting Point": "222-222.5 °C"
    }
}