{
    "cas_no": "326-06-7",
    "key_name": "4,4,4-Trifluoro-1-phenyl-1,3-butanedione",
    "cn_name": "苯酰三氟丙酮;苯甲酰三氟丙酮;3-苯甲酰-1,1,1-三氟丙酮;苯酰三氟丙酮;3-苯甲酰-1,1,1-三氟丙酮, 98+%;苯酰 ;",
    "alternate_name": "1,3-Butanedione, 4,4,4-trifluoro-1-phenyl-;4,4,4-Trifluoro-1-phenyl-1,3-butanedione;3-Benzoyl-1,1,1-trifluoroacetone;1-Phenyl-4,4,4-trifluoro-1,3-butanedione;Benzoyl(trifluoroacetyl)methane;ω-(Trifluoroacetyl)acetophenone;1,1,1-Trifluoro-4-phenyl-2,4-butanedione;1-Phenyl-3-(trifluoromethyl)propane-1,3-dione;1-Benzoyl-3,3,3-trifluoro-2-propanone;4-Phenyl-1,1,1-trifluorobutane-2,4-dione;1-Benzoyl-3,3,3-trifluoroacetone;Benzoyl-1,1,1-trifluoroacetone;NSC 405720;NSC 42628;1,1,1-Trifluoro-3-phenylpropane-1,3-dione;4,4,4-Trifluoro-1-phenylbutan-1,3-dione;BTA;BFTA",
    "duplicated_cas_no": "2122853-82-9",
    "SMILES": "C(CC(C(F)(F)F)=O)(=O)C1=CC=CC=C1",
    "meta_data": {
        "InChI": "InChI=1S/C10H7F3O2/c11-10(12,13)9(15)6-8(14)7-4-2-1-3-5-7/h1-5H,6H2",
        "InChIKey": null,
        "Canonical SMILES": "O=C(C=1C=CC=CC1)CC(=O)C(F)(F)F",
        "Molecular Formula": "C<sub>10</sub>H<sub>7</sub>F<sub>3</sub>O<sub>2</sub>",
        "Molecular Mass": "216.16",
        "Boiling Point": "224 °C @ Press: 760 Torr",
        "Melting Point": "39-40.5 °C"
    }
}