{
    "cas_no": "2602-34-8",
    "key_name": "γ-Glycidoxypropyltriethoxysilane",
    "cn_name": "3-缩水甘油醚氧基丙基三乙氧基硅烷;",
    "alternate_name": "Oxirane, 2-[[3-(triethoxysilyl)propoxy]methyl]-;Silane, [3-(2,3-epoxypropoxy)propyl]triethoxy-;Silane, triethoxy[3-(oxiranylmethoxy)propyl]-;2-[[3-(Triethoxysilyl)propoxy]methyl]oxirane;3-(2,3-Epoxypropoxy)propyltriethoxysilane;NV 1115;3-(Triethoxysilyl)propyl glycidyl ether;γ-Glycidoxypropyltriethoxysilane;γ-(Glycidyloxypropyl)triethoxysilane;[3-(Glycidoxy)propyl]triethoxysilane;3-(Glycidyloxypropyl)triethoxysilane;[[3-(Triethoxysilyl)propoxy]methyl]oxirane;Glycidyl 3-(triethoxysilyl)propyl ether;NB 1115;[3-(Glycidyloxy)propyl]triethoxysilane;KBE 403;SLM 50-882;Silan GF 82;Dynasylan GLYEO;3-GPTES;Z 6041;γ-Glycydoxypropyltriethoxysilane;GF 82;Triethoxy(3-glycidoxypropyl)silane;AZ 6173;GOPTS;Silquest A 15589;Silquest A 1871;Silquest Y 15589;Geniosil GF 82;3-Glycydoxylpropyltriethoxysilane;SCA 413;Triethoxy[3-(2-oxiranylmethoxy)propyl]silane;HD 561;KBE 403E;KH 561;A 1871;DB 563;T 2675;Epoxypropoxypropyltriethoxysilane;Deolink Epoxy TE;CB 660E;LS 4668;γ-(2,3-Epoxypropoxy)propyltriethoxysilane;KMB 403;3-(2,3-Epoxypropyloxy) propyl triethoxy silane;UP 561;Deolink TE 100;A 187L;T 162295;K 8-860;USi 2302;Silanil 260",
    "duplicated_cas_no": "83652-86-2;110737-41-2;142985-86-2;159778-19-5;301683-98-7;1633690-47-7;2928569-26-8",
    "SMILES": "[Si](CCCOCC1CO1)(OCC)(OCC)OCC",
    "meta_data": {
        "InChI": "InChI=1S/C12H26O5Si/c1-4-15-18(16-5-2,17-6-3)9-7-8-13-10-12-11-14-12/h12H,4-11H2,1-3H3",
        "InChIKey": null,
        "Canonical SMILES": "O(CCC[Si](OCC)(OCC)OCC)CC1OC1",
        "Molecular Formula": "C<sub>12</sub>H<sub>26</sub>O<sub>5</sub>Si",
        "Molecular Mass": "278.42",
        "Boiling Point": "124 °C @ Press: 3 Torr",
        "Density": "1 g/cm³"
    }
}