{
    "cas_no": "7580-12-3",
    "key_name": "2,4,6-Triisopropyl-1,3,5-trioxane",
    "cn_name": null,
    "alternate_name": "1,3,5-Trioxane, 2,4,6-tris(1-methylethyl)-;<em>s</em>-Trioxane, 2,4,6-triisopropyl-;2,4,6-Tris(1-methylethyl)-1,3,5-trioxane;2,4,6-Triisopropyl-1,3,5-trioxane;Triisopropyl-<em>s</em>-trioxane;Sunsubly B;2,4,6-Triisopropyltrioxane;NSC 67871;Sunsubly",
    "duplicated_cas_no": "",
    "SMILES": "C(C)(C)C1OC(C(C)C)OC(C(C)C)O1",
    "meta_data": {
        "InChI": "InChI=1S/C12H24O3/c1-7(2)10-13-11(8(3)4)15-12(14-10)9(5)6/h7-12H,1-6H3",
        "InChIKey": null,
        "Canonical SMILES": "O1C(OC(OC1C(C)C)C(C)C)C(C)C",
        "Molecular Formula": "C<sub>12</sub>H<sub>24</sub>O<sub>3</sub>",
        "Molecular Mass": "216.32",
        "Melting Point": "64 °C"
    }
}