{
    "cas_no": "56011-02-0",
    "key_name": "Phenylethyl isoamyl ether",
    "cn_name": "苯乙基异戊基醚; 2-(3-甲基丁氧基)乙苯; 香芹醚;",
    "alternate_name": "Benzene, [2-(3-methylbutoxy)ethyl]-;[2-(3-Methylbutoxy)ethyl]benzene;Phenylethyl isoamyl ether;Isoamyl phenethyl ether;Anther;Anther (ether);2-Phenylethyl isoamyl ether",
    "duplicated_cas_no": "54173-86-3",
    "SMILES": "C(COCCC(C)C)C1=CC=CC=C1",
    "meta_data": {
        "InChI": "InChI=1S/C13H20O/c1-12(2)8-10-14-11-9-13-6-4-3-5-7-13/h3-7,12H,8-11H2,1-2H3",
        "InChIKey": null,
        "Canonical SMILES": "O(CCC=1C=CC=CC1)CCC(C)C",
        "Molecular Formula": "C<sub>13</sub>H<sub>20</sub>O",
        "Molecular Mass": "192.30",
        "Boiling Point": "112-114 °C @ Press: 8 Torr"
    }
}