{
    "cas_no": "4113-12-6",
    "key_name": "Hexadecyl ether",
    "cn_name": null,
    "alternate_name": "Hexadecane, 1-(hexadecyloxy)-;Hexadecyl ether;Hexadecane, 1,1′-oxybis-;1-(Hexadecyloxy)hexadecane;Dihexadecyl ether;Dicetyl ether;NSC 77143;Nacol Ether 16;Di-<em>n</em>-hexadecyl ether;1-Hexadecoxyhexadecane",
    "duplicated_cas_no": "",
    "SMILES": "O(CCCCCCCCCCCCCCCC)CCCCCCCCCCCCCCCC",
    "meta_data": {
        "InChI": "InChI=1S/C32H66O/c1-3-5-7-9-11-13-15-17-19-21-23-25-27-29-31-33-32-30-28-26-24-22-20-18-16-14-12-10-8-6-4-2/h3-32H2,1-2H3",
        "InChIKey": null,
        "Canonical SMILES": "O(CCCCCCCCCCCCCCCC)CCCCCCCCCCCCCCCC",
        "Molecular Formula": "C<sub>32</sub>H<sub>66</sub>O",
        "Molecular Mass": "466.87",
        "Melting Point": "55 °C",
        "Density": "0.8110 g/cm³ @ Temp: 56 °C"
    }
}