{
    "cas_no": "56-25-7",
    "key_name": "Cantharidin",
    "cn_name": "斑蝥素;六氢-3a,7a-二甲基-4,7-环氧异苯并呋喃-1,3-二酮;",
    "alternate_name": "4,7-Epoxyisobenzofuran-1,3-dione, hexahydro-3a,7a-dimethyl-, (3a<em>R</em>,4<em>S</em>,7<em>R</em>,7a<em>S</em>)-<em>rel</em>-;Cantharidin;7-Oxabicyclo[2.2.1]heptane-2,3-dicarboxylic anhydride, 2,3-dimethyl-;4,7-Epoxyisobenzofuran-1,3-dione, hexahydro-3a,7a-dimethyl-, (3aα,4β,7β,7aα)-;<em>rel</em>-(3a<em>R</em>,4<em>S</em>,7<em>R</em>,7a<em>S</em>)-Hexahydro-3a,7a-dimethyl-4,7-epoxyisobenzofuran-1,3-dione;Cantharides camphor;<em>exo</em>-1,2-<em>cis</em>-Dimethyl-3,6-epoxyhexahydrophthalic anhydride;Cantharidine;Kantaridin;1,2-Dimethyl-3,6-epoxyperhydrophthalic anhydride;Cantharone;NSC 61805;Canthacur;MeSH ID: D002193",
    "duplicated_cas_no": "1351357-43-1",
    "SMILES": "C[C@@]12[C@@](C)([C@@]3(O[C@]1(CC3)[H])[H])C(=O)OC2=O",
    "meta_data": {
        "InChI": "InChI=1/C10H12O4/c1-9-5-3-4-6(13-5)10(9,2)8(12)14-7(9)11/h5-6H,3-4H2,1-2H3/t5-,6+,9+,10-",
        "InChIKey": null,
        "Canonical SMILES": "O=C1OC(=O)C2(C)C3OC(CC3)C12C",
        "Molecular Formula": "C<sub>10</sub>H<sub>12</sub>O<sub>4</sub>",
        "Molecular Mass": "196.20",
        "Melting Point": "218 °C",
        "Density": "1.38 g/cm³"
    }
}