{
    "cas_no": "61714-27-0",
    "key_name": "W-7 Hydrochloride",
    "cn_name": "N-(6-氨基己基)-5-氯-1-萘磺胺盐酸盐;",
    "alternate_name": "1-Naphthalenesulfonamide, <em>N</em>-(6-aminohexyl)-5-chloro-, hydrochloride (1:1);1-Naphthalenesulfonamide, <em>N</em>-(6-aminohexyl)-5-chloro-, monohydrochloride;W 7;NSC 683545;W-7 Hydrochloride",
    "duplicated_cas_no": "",
    "SMILES": "S(NCCCCCCN)(=O)(=O)C=1C2=C(C(Cl)=CC=C2)C=CC1.Cl",
    "meta_data": {
        "InChI": "InChI=1S/C16H21ClN2O2S.ClH/c17-15-9-5-8-14-13(15)7-6-10-16(14)22(20,21)19-12-4-2-1-3-11-18;/h5-10,19H,1-4,11-12,18H2;1H",
        "InChIKey": null,
        "Canonical SMILES": "Cl.O=S(=O)(NCCCCCCN)C=1C=CC=C2C(Cl)=CC=CC21",
        "Molecular Formula": "C<sub>16</sub>H<sub>21</sub>ClN<sub>2</sub>O<sub>2</sub>S.ClH",
        "Molecular Mass": "",
        "Melting Point": "214 °C"
    }
}