{
    "cas_no": "18027-10-6",
    "key_name": "Sodium trimethylsilanolate",
    "cn_name": "三甲基硅烷醇酸钠;",
    "alternate_name": "Silanol, 1,1,1-trimethyl-, sodium salt (1:1);Silanol, trimethyl-, sodium salt;Sodium, (trimethylsiloxy)-;Sodium trimethylsilanolate;Trimethylsilanol sodium salt;Sodium trimethylsilanoate;Trimethylsilyloxysodium;Sodium trimethylsiloxide",
    "duplicated_cas_no": "89034-21-9;1086263-41-3;1233542-32-9",
    "SMILES": "[Si](C)(C)(C)O.[Na]",
    "meta_data": {
        "InChI": "InChI=1S/C3H10OSi.Na/c1-5(2,3)4;/h4H,1-3H3;",
        "InChIKey": null,
        "Canonical SMILES": "[Na].O[Si](C)(C)C",
        "Molecular Formula": "C<sub>3</sub>H<sub>10</sub>OSi.Na",
        "Molecular Mass": "",
        "Melting Point": "147-150 °C (decomp)",
        "Density": "1.255 g/cm³"
    }
}