{
    "cas_no": "7057-48-9",
    "key_name": "2′,3′-Didehydro-2′,3′-dideoxyadenosine",
    "cn_name": null,
    "alternate_name": "Adenosine, 2′,3′-didehydro-2′,3′-dideoxy-;Adenine, 9-(2,3-dideoxy-β-<span class=\"text-smallcaps\">D</span>-<em>glycero</em>-pent-2-enofuranosyl)-;2′,3′-Didehydro-2′,3′-dideoxyadenosine;2′,3′-Dideoxy-2′,3′-didehydroadenosine;Pent-2-enofuranoside, adenine-9 2,3-dideoxy-;NSC 108602",
    "duplicated_cas_no": "14585-76-3;16546-25-1",
    "SMILES": "NC1=C2C(N(C=N2)[C@@H]3O[C@H](CO)C=C3)=NC=N1",
    "meta_data": {
        "InChI": "InChI=1S/C10H11N5O2/c11-9-8-10(13-4-12-9)15(5-14-8)7-2-1-6(3-16)17-7/h1-2,4-7,16H,3H2,(H2,11,12,13)/t6-,7+/m0/s1",
        "InChIKey": null,
        "Canonical SMILES": "OCC1OC(C=C1)N2C=NC=3C(=NC=NC32)N",
        "Molecular Formula": "C<sub>10</sub>H<sub>11</sub>N<sub>5</sub>O<sub>2</sub>",
        "Molecular Mass": "233.23",
        "Melting Point": "191-192 °C"
    }
}