{
    "cas_no": "26496-94-6",
    "key_name": "Ethyl 4-bromomethylbenzoate",
    "cn_name": "4-(溴甲基)苯甲酸乙酯;",
    "alternate_name": "Benzoic acid, 4-(bromomethyl)-, ethyl ester;<em>p</em>-Toluic acid, α-bromo-, ethyl ester;4-Carbethoxybenzyl bromide;Ethyl 4-bromomethylbenzoate;<em>p</em>-Ethoxycarbonylbenzyl bromide;α-Bromo-<em>p</em>-toluic acid ethyl ester;4-(Bromomethyl)benzoic acid ethyl ester",
    "duplicated_cas_no": "",
    "SMILES": "C(OCC)(=O)C1=CC=C(CBr)C=C1",
    "meta_data": {
        "InChI": "InChI=1S/C10H11BrO2/c1-2-13-10(12)9-5-3-8(7-11)4-6-9/h3-6H,2,7H2,1H3",
        "InChIKey": null,
        "Canonical SMILES": "O=C(OCC)C1=CC=C(C=C1)CBr",
        "Molecular Formula": "C<sub>10</sub>H<sub>11</sub>BrO<sub>2</sub>",
        "Molecular Mass": "243.10",
        "Boiling Point": "165 °C @ Press: 15 Torr",
        "Melting Point": "35-36 °C"
    }
}