{
    "cas_no": "3352-87-2",
    "key_name": "<em>N</em>,<em>N</em>-Diethyldodecanamide",
    "cn_name": null,
    "alternate_name": "Dodecanamide, <em>N</em>,<em>N</em>-diethyl-;<em>N</em>,<em>N</em>-Diethyldodecanamide;<em>N</em>,<em>N</em>-Diethyllaurylamide;Diethyllauramide;<em>N</em>,<em>N</em>-Diethyllauramide;<em>n</em>-Dodecanoic acid diethylamide;NSC 3890;NSC 406286",
    "duplicated_cas_no": "",
    "SMILES": "N(C(CCCCCCCCCCC)=O)(CC)CC",
    "meta_data": {
        "InChI": "InChI=1S/C16H33NO/c1-4-7-8-9-10-11-12-13-14-15-16(18)17(5-2)6-3/h4-15H2,1-3H3",
        "InChIKey": null,
        "Canonical SMILES": "O=C(N(CC)CC)CCCCCCCCCCC",
        "Molecular Formula": "C<sub>16</sub>H<sub>33</sub>NO",
        "Molecular Mass": "255.44",
        "Boiling Point": "166-167 °C @ Press: 2 Torr",
        "Melting Point": "230-235 °C"
    }
}