{
    "cas_no": "607-32-9",
    "key_name": "5-Nitroisoquinoline",
    "cn_name": "5-硝基异喹啉;",
    "alternate_name": "Isoquinoline, 5-nitro-;5-Nitroisoquinoline;NSC 3017",
    "duplicated_cas_no": "",
    "SMILES": "N(=O)(=O)C=1C2=C(C=CC1)C=NC=C2",
    "meta_data": {
        "InChI": "InChI=1S/C9H6N2O2/c12-11(13)9-3-1-2-7-6-10-5-4-8(7)9/h1-6H",
        "InChIKey": null,
        "Canonical SMILES": "O=N(=O)C1=CC=CC=2C=NC=CC21",
        "Molecular Formula": "C<sub>9</sub>H<sub>6</sub>N<sub>2</sub>O<sub>2</sub>",
        "Molecular Mass": "174.16",
        "Melting Point": "110 °C"
    }
}