{
    "cas_no": "78628-80-5",
    "key_name": "Terbinafine hydrochloride",
    "cn_name": "盐酸特比萘芬;特比萘芬盐酸盐;(E)-N-(6,6-二甲基庚-2-烯-4-炔基)-N-甲基-1-萘甲胺盐酸盐;",
    "alternate_name": "1-Naphthalenemethanamine, <em>N</em>-[(2<em>E</em>)-6,6-dimethyl-2-hepten-4-yn-1-yl]-<em>N</em>-methyl-, hydrochloride (1:1);1-Naphthalenemethanamine, <em>N</em>-(6,6-dimethyl-2-hepten-4-ynyl)-<em>N</em>-methyl-, hydrochloride, (<em>E</em>)-;1-Naphthalenemethanamine, <em>N</em>-[(2<em>E</em>)-6,6-dimethyl-2-hepten-4-ynyl]-<em>N</em>-methyl-, hydrochloride;Terbinafine hydrochloride;Terbina;Lamisil;Bramazil;Bramizil;Muzonal;Terbine;Lamisil Once",
    "duplicated_cas_no": "",
    "SMILES": "C(N(C/C=C/C#CC(C)(C)C)C)C=1C2=C(C=CC1)C=CC=C2.Cl",
    "meta_data": {
        "InChI": "InChI=1S/C21H25N.ClH/c1-21(2,3)15-8-5-9-16-22(4)17-19-13-10-12-18-11-6-7-14-20(18)19;/h5-7,9-14H,16-17H2,1-4H3;1H/b9-5+;",
        "InChIKey": null,
        "Canonical SMILES": "Cl.C(#CC(C)(C)C)C=CCN(C)CC1=CC=CC=2C=CC=CC21",
        "Molecular Formula": "C<sub>21</sub>H<sub>25</sub>N.ClH",
        "Molecular Mass": "",
        "Melting Point": "205 °C"
    }
}