{
    "cas_no": "28896-49-3",
    "key_name": "1,1′-Oxybis[4-iodobenzene]",
    "cn_name": null,
    "alternate_name": "Benzene, 1,1′-oxybis[4-iodo-;Ether, bis(<em>p</em>-iodophenyl);1,1′-Oxybis[4-iodobenzene];Bis(<em>p</em>-iodophenyl) ether;4,4′-Diiododiphenyl ether;<em>p</em>,<em>p</em>′-Iododiphenyl ether;Bis(4-iodophenyl)ether;NSC 45097;4,4′-Diiodophenyl ether;1-Iodo-4-(4-iodophenoxy)benzene;4,4′-Oxybis(iodobenzene)",
    "duplicated_cas_no": "",
    "SMILES": "O(C1=CC=C(I)C=C1)C2=CC=C(I)C=C2",
    "meta_data": {
        "InChI": "InChI=1S/C12H8I2O/c13-9-1-5-11(6-2-9)15-12-7-3-10(14)4-8-12/h1-8H",
        "InChIKey": null,
        "Canonical SMILES": "IC1=CC=C(OC2=CC=C(I)C=C2)C=C1",
        "Molecular Formula": "C<sub>12</sub>H<sub>8</sub>I<sub>2</sub>O",
        "Molecular Mass": "422.00",
        "Melting Point": "139 °C"
    }
}