{
    "cas_no": "1885-76-3",
    "key_name": "2-Methyl-6-nitrobenzonitrile",
    "cn_name": "2-甲基-6-硝基苄腈;",
    "alternate_name": "Benzonitrile, 2-methyl-6-nitro-;<em>o</em>-Tolunitrile, 6-nitro-;2-Methyl-6-nitrobenzonitrile;6-Methyl-2-nitrobenzonitrile;6-Nitro-<em>o</em>-tolunitrile;6-Nitro-<em>o</em>-toluonitrile;2-Cyano-3-nitrotoluene",
    "duplicated_cas_no": "",
    "SMILES": "C(#N)C1=C(N(=O)=O)C=CC=C1C",
    "meta_data": {
        "InChI": "InChI=1S/C8H6N2O2/c1-6-3-2-4-8(10(11)12)7(6)5-9/h2-4H,1H3",
        "InChIKey": null,
        "Canonical SMILES": "N#CC=1C(=CC=CC1C)N(=O)=O",
        "Molecular Formula": "C<sub>8</sub>H<sub>6</sub>N<sub>2</sub>O<sub>2</sub>",
        "Molecular Mass": "162.15",
        "Melting Point": "109-110 °C"
    }
}