{
    "cas_no": "81-11-8",
    "key_name": "Diaminostilbenedisulfonic acid",
    "cn_name": "4,4\"-二氨基二苯乙烯-2,2\"-二磺酸;",
    "alternate_name": "Benzenesulfonic acid, 2,2′-(1,2-ethenediyl)bis[5-amino-;2,2′-Stilbenedisulfonic acid, 4,4′-diamino-;2,2′-(1,2-Ethenediyl)bis[5-aminobenzenesulfonic acid];Amsonic acid;DASD;<em>p</em>,<em>p</em>′-Diaminodiphenylethylene-<em>o</em>,<em>o</em>′-disulfonic acid;Flavonic acid;4,4′-Diamino-2,2′-stilbenedisulfonic acid;<em>p</em>,<em>p</em>′-Diaminostilbene-<em>o</em>,<em>o</em>′-disulfonic acid;2,2′-Disulfo-4,4′-stilbenediamine;Diaminostilbenedisulfonic acid;DAS;NSC 163;DSD acid",
    "duplicated_cas_no": "65941-98-2;1586010-34-5",
    "SMILES": "S(=O)(=O)(O)C1=C(C=CC2=C(S(=O)(=O)O)C=C(N)C=C2)C=CC(N)=C1",
    "meta_data": {
        "InChI": "InChI=1S/C14H14N2O6S2/c15-11-5-3-9(13(7-11)23(17,18)19)1-2-10-4-6-12(16)8-14(10)24(20,21)22/h1-8H,15-16H2,(H,17,18,19)(H,20,21,22)",
        "InChIKey": null,
        "Canonical SMILES": "O=S(=O)(O)C1=CC(N)=CC=C1C=CC2=CC=C(N)C=C2S(=O)(=O)O",
        "Molecular Formula": "C<sub>14</sub>H<sub>14</sub>N<sub>2</sub>O<sub>6</sub>S<sub>2</sub>",
        "Molecular Mass": "370.40",
        "Melting Point": "&gt;300 °C"
    }
}