{
    "cas_no": "632-14-4",
    "key_name": "<em>N</em>,<em>N</em>,<em>N</em>′-Trimethylurea",
    "cn_name": "三甲基脲;1,1,3-三甲基脲;",
    "alternate_name": "Urea, <em>N</em>,<em>N</em>,<em>N</em>′-trimethyl-;Urea, trimethyl-;Urea, 1,1,3-trimethyl-;<em>N</em>,<em>N</em>,<em>N</em>′-Trimethylurea;<em>N</em>,<em>N</em>′-Dimethyl-<em>N</em>-methylurea;Trimethylurea;1,1,3-Trimethylurea;NSC 409292",
    "duplicated_cas_no": "",
    "SMILES": "C(N(C)C)(NC)=O",
    "meta_data": {
        "InChI": "InChI=1S/C4H10N2O/c1-5-4(7)6(2)3/h1-3H3,(H,5,7)",
        "InChIKey": null,
        "Canonical SMILES": "O=C(NC)N(C)C",
        "Molecular Formula": "C<sub>4</sub>H<sub>10</sub>N<sub>2</sub>O",
        "Molecular Mass": "102.14",
        "Boiling Point": "232.5 °C",
        "Melting Point": "75.5 °C",
        "Density": "1.1575 g/cm³"
    }
}