{
    "cas_no": "121-81-3",
    "key_name": "3,5-Dinitrobenzamide",
    "cn_name": "3,5-二硝基苯甲酰胺;",
    "alternate_name": "Benzamide, 3,5-dinitro-;3,5-Dinitrobenzamide;Nitromide;Unistat;Tristat;NSC 60719",
    "duplicated_cas_no": "8012-51-9;8048-58-6",
    "SMILES": "C(N)(=O)C1=CC(N(=O)=O)=CC(N(=O)=O)=C1",
    "meta_data": {
        "InChI": "InChI=1S/C7H5N3O5/c8-7(11)4-1-5(9(12)13)3-6(2-4)10(14)15/h1-3H,(H2,8,11)",
        "InChIKey": null,
        "Canonical SMILES": "O=C(N)C=1C=C(C=C(C1)N(=O)=O)N(=O)=O",
        "Molecular Formula": "C<sub>7</sub>H<sub>5</sub>N<sub>3</sub>O<sub>5</sub>",
        "Molecular Mass": "211.13",
        "Melting Point": "184 °C"
    }
}