{
    "cas_no": "576-19-2",
    "key_name": "Biocytin",
    "cn_name": "生物胞素;",
    "alternate_name": "<span class=\"text-smallcaps\">L</span>-Lysine, <em>N</em><sup>6</sup>-[5-[(3a<em>S</em>,4<em>S</em>,6a<em>R</em>)-hexahydro-2-oxo-1<em>H</em>-thieno[3,4-<em>d</em>]imidazol-4-yl]-1-oxopentyl]-;Lysine, <em>N</em><sup>6</sup>-[5-(hexahydro-2-oxo-1<em>H</em>-thieno[3,4-<em>d</em>]imidazol-4-yl)valeryl]-, <span class=\"text-smallcaps\">L</span>-;<span class=\"text-smallcaps\">L</span>-Lysine, <em>N</em><sup>6</sup>-[5-(hexahydro-2-oxo-1<em>H</em>-thieno[3,4-<em>d</em>]imidazol-4-yl)-1-oxopentyl]-, [3a<em>S</em>-(3aα,4β,6aα)]-;1<em>H</em>-Thieno[3,4-<em>d</em>]imidazole, <span class=\"text-smallcaps\">L</span>-lysine deriv.;<em>N</em><sup>6</sup>-[5-[(3a<em>S</em>,4<em>S</em>,6a<em>R</em>)-Hexahydro-2-oxo-1<em>H</em>-thieno[3,4-<em>d</em>]imidazol-4-yl]-1-oxopentyl]-<span class=\"text-smallcaps\">L</span>-lysine;Biocytin;ε-<em>N</em>-Biotinyl-<span class=\"text-smallcaps\">L</span>-lysine;(+)-Biocytin;<em>d</em>-Biocytin;Biotin-e-<em>N</em>-lysine",
    "duplicated_cas_no": "26434-61-7",
    "SMILES": "C(CCCC(NCCCC[C@@H](C(O)=O)N)=O)[C@H]1[C@@]2([C@](CS1)(NC(=O)N2)[H])[H]",
    "meta_data": {
        "InChI": "InChI=1S/C16H28N4O4S/c17-10(15(22)23)5-3-4-8-18-13(21)7-2-1-6-12-14-11(9-25-12)19-16(24)20-14/h10-12,14H,1-9,17H2,(H,18,21)(H,22,23)(H2,19,20,24)/t10-,11-,12-,14-/m0/s1",
        "InChIKey": null,
        "Canonical SMILES": "O=C1NC2CSC(CCCCC(=O)NCCCCC(N)C(=O)O)C2N1",
        "Molecular Formula": "C<sub>16</sub>H<sub>28</sub>N<sub>4</sub>O<sub>4</sub>S",
        "Molecular Mass": "372.48",
        "Melting Point": "230-240 °C (decomp)"
    }
}