{
    "cas_no": "19230-81-0",
    "key_name": "Creatinine hydrochloride",
    "cn_name": "肌酐盐酸盐;肌酐盐酸盐;肌酸酐盐酸盐;",
    "alternate_name": "4<em>H</em>-Imidazol-4-one, 2-amino-1,5-dihydro-1-methyl-, hydrochloride (1:1);Creatinine, monohydrochloride;4<em>H</em>-Imidazol-4-one, 2-amino-1,5-dihydro-1-methyl-, monohydrochloride;2-Imidazolin-4-one, 2-amino-1-methyl-, monohydrochloride;Creatinine hydrochloride;2-Amino-1-methyl-1,5-dihydroimidazol-4-one hydrochloride;2-Imino-1-methylimidazolidin-4-one hydrochloride",
    "duplicated_cas_no": "",
    "SMILES": "NC=1N(C)CC(=O)N1.Cl",
    "meta_data": {
        "InChI": "InChI=1S/C4H7N3O.ClH/c1-7-2-3(8)6-4(7)5;/h2H2,1H3,(H2,5,6,8);1H",
        "InChIKey": null,
        "Canonical SMILES": "Cl.O=C1N=C(N)N(C)C1",
        "Molecular Formula": "C<sub>4</sub>H<sub>7</sub>N<sub>3</sub>O.ClH",
        "Molecular Mass": "",
        "Melting Point": "283-285 °C (decomp)"
    }
}