{
    "cas_no": "617-52-7",
    "key_name": "Dimethyl itaconate",
    "cn_name": "衣康酸二甲酯;",
    "alternate_name": "Butanedioic acid, 2-methylene-, 1,4-dimethyl ester;Succinic acid, methylene-, dimethyl ester;Butanedioic acid, methylene-, dimethyl ester;Itaconic acid dimethyl ester;Dimethyl itaconate;Methylenesuccinic acid dimethyl ester;Dimethyl methylenesuccinate;Methyl 4-methoxy-2-methylene-4-oxobutanoate;Dimethyl methylenebutanedioate;NSC 9385;Dimethyl 2-methylenesuccinate;Methylenebutanedioic acid dimethyl ester;1,4-Dimethyl 2-methylidenebutanedioate;2-Methylene-succinic acid dimethyl ester;2-(Methylene)butanedioic dimethyl ester",
    "duplicated_cas_no": "",
    "SMILES": "C(CC(OC)=O)(C(OC)=O)=C",
    "meta_data": {
        "InChI": "InChI=1S/C7H10O4/c1-5(7(9)11-3)4-6(8)10-2/h1,4H2,2-3H3",
        "InChIKey": null,
        "Canonical SMILES": "O=C(OC)C(=C)CC(=O)OC",
        "Molecular Formula": "C<sub>7</sub>H<sub>10</sub>O<sub>4</sub>",
        "Molecular Mass": "158.15",
        "Boiling Point": "208 °C",
        "Melting Point": "38 °C",
        "Density": "1.1246 g/cm³ @ Temp: 20 °C"
    }
}