{
    "cas_no": "580-72-3",
    "key_name": "(-)-Matairesinol",
    "cn_name": null,
    "alternate_name": "2(3<em>H</em>)-Furanone, dihydro-3,4-bis[(4-hydroxy-3-methoxyphenyl)methyl]-, (3<em>R</em>,4<em>R</em>)-;2(3<em>H</em>)-Furanone, dihydro-3,4-divanillyl-;Matairesinol;2(3<em>H</em>)-Furanone, dihydro-3,4-bis[(4-hydroxy-3-methoxyphenyl)methyl]-, (3<em>R</em>-<em>trans</em>)-;(3<em>R</em>,4<em>R</em>)-Dihydro-3,4-bis[(4-hydroxy-3-methoxyphenyl)methyl]-2(3<em>H</em>)-furanone;(-)-Matairesinol;(8<em>R</em>,8′<em>R</em>)-(-)-Matairesinol",
    "duplicated_cas_no": "41328-88-5",
    "SMILES": "C([C@@H]1[C@@H](CC2=CC(OC)=C(O)C=C2)C(=O)OC1)C3=CC(OC)=C(O)C=C3",
    "meta_data": {
        "InChI": "InChI=1S/C20H22O6/c1-24-18-9-12(3-5-16(18)21)7-14-11-26-20(23)15(14)8-13-4-6-17(22)19(10-13)25-2/h3-6,9-10,14-15,21-22H,7-8,11H2,1-2H3/t14-,15+/m0/s1",
        "InChIKey": null,
        "Canonical SMILES": "O=C1OCC(CC2=CC=C(O)C(OC)=C2)C1CC3=CC=C(O)C(OC)=C3",
        "Molecular Formula": "C<sub>20</sub>H<sub>22</sub>O<sub>6</sub>",
        "Molecular Mass": "358.39",
        "Melting Point": "119 °C"
    }
}