{
    "cas_no": "360-70-3",
    "key_name": "Nandrolone decanoate",
    "cn_name": "癸酸诺龙;",
    "alternate_name": "Estr-4-en-3-one, 17-[(1-oxodecyl)oxy]-, (17β)-;Estr-4-en-3-one, 17β-hydroxy-, decanoate;Decanoic acid, ester with 17β-hydroxyestr-4-en-3-one;(17β)-17-[(1-Oxodecyl)oxy]estr-4-en-3-one;Deca-Durabolin;17β-Hydroxyestr-4-en-3-one decanoate;Nandrolone decanoate;19-Norandrostenolone decanoate;19-Nor-17β-hydroxy-3-ketoandrost-4-ene 17-decanoate;19-Nortestosterone decanoate;19-Nortestosterone 17β-decanoate;Norandrostenolone decanoate;Retabolil;17β-Hydroxyestr-4-en-3-one 17-decanoate;17β-Hydroxy-19-norandrost-4-en-3-one 17-decanoate;Deca-Durabol;Nortestosterone decanoate;Anabolicum;Decanofort;Extraboline;Hybolin decanoate;Nandrobolic LA;Deca-Hybolin;Anabolin Forte;17β-Nandrolone laureate;17β-Nortestosterone laureate;DECA-Deca-Durabolin;4-Estrene-17β-ol-3-one decanoate",
    "duplicated_cas_no": "9040-11-3",
    "SMILES": "C[C@@]12[C@]([C@]3([C@@]([C@@]4(C(CC3)=CC(=O)CC4)[H])(CC1)[H])[H])(CC[C@@H]2OC(CCCCCCCCC)=O)[H]",
    "meta_data": {
        "InChI": "InChI=1S/C28H44O3/c1-3-4-5-6-7-8-9-10-27(30)31-26-16-15-25-24-13-11-20-19-21(29)12-14-22(20)23(24)17-18-28(25,26)2/h19,22-26H,3-18H2,1-2H3/t22-,23+,24+,25-,26-,28-/m0/s1",
        "InChIKey": null,
        "Canonical SMILES": "O=C(OC1CCC2C3CCC4=CC(=O)CCC4C3CCC12C)CCCCCCCCC",
        "Molecular Formula": "C<sub>28</sub>H<sub>44</sub>O<sub>3</sub>",
        "Molecular Mass": "428.65",
        "Melting Point": "32-35 °C"
    }
}