{
    "cas_no": "34562-97-5",
    "key_name": "4-[(3-Pyridinylcarbonyl)amino]butanoic acid",
    "cn_name": "匹卡米隆;4-((吡啶-3-羧基)-氨基)-丁酸;",
    "alternate_name": "Butanoic acid, 4-[(3-pyridinylcarbonyl)amino]-;Butyric acid, 4-nicotinamido-;4-[(3-Pyridinylcarbonyl)amino]butanoic acid;Nicotinoyl-γ-aminobutyric acid;Nicotinoyl-GABA;<em>N</em>-Nicotinoyl-γ-aminobutyric acid",
    "duplicated_cas_no": "",
    "SMILES": "C(NCCCC(O)=O)(=O)C=1C=CC=NC1",
    "meta_data": {
        "InChI": "InChI=1S/C10H12N2O3/c13-9(14)4-2-6-12-10(15)8-3-1-5-11-7-8/h1,3,5,7H,2,4,6H2,(H,12,15)(H,13,14)",
        "InChIKey": null,
        "Canonical SMILES": "O=C(O)CCCNC(=O)C=1C=NC=CC1",
        "Molecular Formula": "C<sub>10</sub>H<sub>12</sub>N<sub>2</sub>O<sub>3</sub>",
        "Molecular Mass": "208.21",
        "Melting Point": "210-211 °C (decomp)"
    }
}