{
    "cas_no": "12045-64-6",
    "key_name": "Zirconium diboride",
    "cn_name": null,
    "alternate_name": "Zirconium boride (ZrB<sub>2</sub>);Zirconium diboride;Zirconium boride;ZB-MOD;Ceraborex;Ceraborex CR",
    "duplicated_cas_no": "1613508-72-7;2182594-75-6",
    "SMILES": "[Zr](#B)#B",
    "meta_data": {
        "InChI": "InChI=1S/2B.Zr",
        "InChIKey": null,
        "Canonical SMILES": "B#[Zr]#B",
        "Molecular Formula": "B<sub>2</sub>Zr",
        "Molecular Mass": "",
        "Melting Point": "3040 °C",
        "Density": "6.119 g/cm³ @ Temp: Room temp"
    }
}