{
    "cas_no": "35778-58-6",
    "key_name": "<em>p</em>-Diethylaminobenzylidenerhodanine",
    "cn_name": "5-(4-二乙氨苄烯)罗丹宁;5-(4-二乙基氨基苯亚甲基)绕丹宁;",
    "alternate_name": "4-Thiazolidinone, 5-[[4-(diethylamino)phenyl]methylene]-2-thioxo-;5-[[4-(Diethylamino)phenyl]methylene]-2-thioxo-4-thiazolidinone;<em>p</em>-Diethylaminobenzylidenerhodanine;5-(<em>p</em>-Diethylaminobenzylidene)rhodanine;NSC 97270;5-(4-(Diethylamino)benzylidene)-2-thioxothiazolidin-4-one",
    "duplicated_cas_no": "41259-58-9",
    "SMILES": "N(CC)(CC)C1=CC=C(C=C2SC(=S)NC2=O)C=C1",
    "meta_data": {
        "InChI": "InChI=1S/C14H16N2OS2/c1-3-16(4-2)11-7-5-10(6-8-11)9-12-13(17)15-14(18)19-12/h5-9H,3-4H2,1-2H3,(H,15,17,18)",
        "InChIKey": null,
        "Canonical SMILES": "O=C1NC(=S)SC1=CC2=CC=C(C=C2)N(CC)CC",
        "Molecular Formula": "C<sub>14</sub>H<sub>16</sub>N<sub>2</sub>OS<sub>2</sub>",
        "Molecular Mass": "292.42",
        "Melting Point": "208 °C"
    }
}