{
    "cas_no": "919-86-8",
    "key_name": "Demeton-<em>S</em>-methyl",
    "cn_name": null,
    "alternate_name": "Phosphorothioic acid, <em>S</em>-[2-(ethylthio)ethyl] <em>O</em>,<em>O</em>-dimethyl ester;Phosphorothioic acid, <em>S</em>-[2-(ethylthio)ethyl] <em>O</em>,<em>O</em>-di-Me ester;Demeton-<em>S</em>-methyl;<em>O</em>,<em>O</em>-Dimethyl <em>S</em>-2-(ethylthio)ethyl phosphorothioate;<em>S</em>-[2-(Ethylthio)ethyl] <em>O</em>,<em>O</em>-dimethyl phosphorothioate;Metaisoseptox;Metaisosystox;Metasystox J;Methyl isosystox;<em>S</em>-[2-(Ethylthio)ethyl] <em>O</em>,<em>O</em>-dimethyl thiophosphate;Methyl demeton thioester;Metasystox I;Methylthionodemeton;Metasystox 55;Thiometon oxon;Methylmercaptophos thiol",
    "duplicated_cas_no": "1079803-49-8",
    "SMILES": "P(SCCSCC)(OC)(OC)=O",
    "meta_data": {
        "InChI": "InChI=1S/C6H15O3PS2/c1-4-11-5-6-12-10(7,8-2)9-3/h4-6H2,1-3H3",
        "InChIKey": null,
        "Canonical SMILES": "O=P(OC)(OC)SCCSCC",
        "Molecular Formula": "C<sub>6</sub>H<sub>15</sub>O<sub>3</sub>PS<sub>2</sub>",
        "Molecular Mass": "230.29",
        "Boiling Point": "118 °C @ Press: 1.0 Torr",
        "Melting Point": "&lt;25 °C",
        "Density": "1.207 g/cm³ @ Temp: 20 °C"
    }
}