{
    "cas_no": "14400-67-0",
    "key_name": "2,5-Dimethyl-3(2<em>H</em>)furanone",
    "cn_name": "2,5-二甲基-3(2H)-呋喃酮;",
    "alternate_name": "3(2<em>H</em>)-Furanone, 2,5-dimethyl-;2,5-Dimethyl-3(2<em>H</em>)-furanone;2,5-Dimethyl-2<em>H</em>-furan-3-one;2,3-Dihydro-2,5-dimethyl-3-furanone;2,5-Dimethyl-2,3-dihydrofuran-3-one;2,5-Dimethyl-3(2<em>H</em>)furanone;2,5-Dimethylfuran-3-one",
    "duplicated_cas_no": "149310-61-2",
    "SMILES": "O=C1C(C)OC(C)=C1",
    "meta_data": {
        "InChI": "InChI=1S/C6H8O2/c1-4-3-6(7)5(2)8-4/h3,5H,1-2H3",
        "InChIKey": null,
        "Canonical SMILES": "O=C1C=C(OC1C)C",
        "Molecular Formula": "C<sub>6</sub>H<sub>8</sub>O<sub>2</sub>",
        "Molecular Mass": "112.13",
        "Boiling Point": "70-72 °C @ Press: 13 Torr"
    }
}