{
    "cas_no": "4081-35-0",
    "key_name": "Bis(salicylidene)-1,6-hexanediamine",
    "cn_name": "N,N-双(水杨基)-1,6-己二胺;",
    "alternate_name": "Phenol, 2,2′-[1,6-hexanediylbis(nitrilomethylidyne)]bis-;<em>o</em>-Cresol, α,α′-(hexamethylenedinitrilo)di-;2,2′-[1,6-Hexanediylbis(nitrilomethylidyne)]bis[phenol];Disalicylalhexamethylenediamine;<em>N</em>,<em>N</em>′-Bis(salicylidene)hexamethylenediamine;Bis(salicylidene)-1,6-hexanediamine;1,6-Hexanediamine bis(salicylaldimine);1,6-Bis(salicylideneamino)hexane;NSC 91309;<em>N</em>,<em>N</em>′-Bis(salicylidene)-1,6-hexanediamine;<em>N</em>,<em>N</em>′-Disalicylidene-1,6-hexanediamine",
    "duplicated_cas_no": "",
    "SMILES": "C(=NCCCCCCN=CC1=C(O)C=CC=C1)C2=C(O)C=CC=C2",
    "meta_data": {
        "InChI": "InChI=1S/C20H24N2O2/c23-19-11-5-3-9-17(19)15-21-13-7-1-2-8-14-22-16-18-10-4-6-12-20(18)24/h3-6,9-12,15-16,23-24H,1-2,7-8,13-14H2",
        "InChIKey": null,
        "Canonical SMILES": "OC=1C=CC=CC1C=NCCCCCCN=CC=2C=CC=CC2O",
        "Molecular Formula": "C<sub>20</sub>H<sub>24</sub>N<sub>2</sub>O<sub>2</sub>",
        "Molecular Mass": "324.42",
        "Melting Point": "60 °C"
    }
}