{
    "cas_no": "18110-86-6",
    "key_name": "4-Methoxy-5-hydroxycanthin-6-one",
    "cn_name": null,
    "alternate_name": "6<em>H</em>-Indolo[3,2,1-<em>de</em>][1,5]naphthyridin-6-one, 5-hydroxy-4-methoxy-;5-Hydroxy-4-methoxy-6<em>H</em>-indolo[3,2,1-<em>de</em>][1,5]naphthyridin-6-one;Nigakinone;5-Hydroxy-4-methoxycanthin-6-one;4-Methoxy-5-hydroxycanthin-6-one",
    "duplicated_cas_no": "",
    "SMILES": "O=C1N2C=3C(C=4C2=CC=CC4)=CC=NC3C(OC)=C1O",
    "meta_data": {
        "InChI": "InChI=1S/C15H10N2O3/c1-20-14-11-12-9(6-7-16-11)8-4-2-3-5-10(8)17(12)15(19)13(14)18/h2-7,18H,1H3",
        "InChIKey": null,
        "Canonical SMILES": "O=C1C(O)=C(OC)C2=NC=CC=3C4=CC=CC=C4N1C23",
        "Molecular Formula": "C<sub>15</sub>H<sub>10</sub>N<sub>2</sub>O<sub>3</sub>",
        "Molecular Mass": "266.25",
        "Melting Point": "224-225 °C"
    }
}