{
    "cas_no": "27208-37-3",
    "key_name": "Cyclopenta[<em>cd</em>]pyrene",
    "cn_name": null,
    "alternate_name": "Cyclopenta[<em>cd</em>]pyrene;Acepyrene;Acepyrylene;Cyclopenta[<em>c</em>,<em>d</em>]pyrene",
    "duplicated_cas_no": "",
    "SMILES": "C12=C3C4=CC=5C1=C(C=CC2=CC=C3C=C4)C=CC5",
    "meta_data": {
        "InChI": "InChI=1S/C18H10/c1-2-11-4-6-13-7-5-12-8-9-15-10-14(3-1)16(11)18(13)17(12)15/h1-10H",
        "InChIKey": null,
        "Canonical SMILES": "C1=CC=2C=CC3=CC=C4C=CC5=CC(=C1)C2C3=C45",
        "Molecular Formula": "C<sub>18</sub>H<sub>10</sub>",
        "Molecular Mass": "226.27",
        "Melting Point": "174-176 °C"
    }
}