{
    "cas_no": "830-94-4",
    "key_name": "5-Chloro-<em>N</em>,<em>N</em>-dimethyl-1<em>H</em>-indole-3-methanamine",
    "cn_name": "5-氯芦竹碱;5-氯-3- (二甲氨基甲基)）吲哚;",
    "alternate_name": "1<em>H</em>-Indole-3-methanamine, 5-chloro-<em>N</em>,<em>N</em>-dimethyl-;Indole, 5-chloro-3-[(dimethylamino)methyl]-;5-Chloro-<em>N</em>,<em>N</em>-dimethyl-1<em>H</em>-indole-3-methanamine;5-Chlorogramine;5-Chloro-3-[(dimethylamino)methyl]indole;[(5-Chloro-1<em>H</em>-indol-3-yl)methyl]dimethylamine;1-(5-Chloro-1<em>H</em>-indol-3-yl)-<em>N</em>,<em>N</em>-dimethylmethanamine",
    "duplicated_cas_no": "",
    "SMILES": "C(N(C)C)C=1C=2C(NC1)=CC=C(Cl)C2",
    "meta_data": {
        "InChI": "InChI=1S/C11H13ClN2/c1-14(2)7-8-6-13-11-4-3-9(12)5-10(8)11/h3-6,13H,7H2,1-2H3",
        "InChIKey": null,
        "Canonical SMILES": "ClC=1C=CC=2NC=C(C2C1)CN(C)C",
        "Molecular Formula": "C<sub>11</sub>H<sub>13</sub>ClN<sub>2</sub>",
        "Molecular Mass": "208.69",
        "Melting Point": "150 °C"
    }
}