{
    "cas_no": "34086-50-5",
    "key_name": "Alpinumisoflavone",
    "cn_name": null,
    "alternate_name": "2<em>H</em>,6<em>H</em>-Benzo[1,2-<em>b</em>:5,4-<em>b</em>′]dipyran-6-one, 5-hydroxy-7-(4-hydroxyphenyl)-2,2-dimethyl-;2<em>H</em>,6<em>H</em>-Benzo[1,2-<em>b</em>:5,4-<em>b</em>′]dipyran-6-one, 5-hydroxy-7-(<em>p</em>-hydroxyphenyl)-2,2-dimethyl-;5-Hydroxy-7-(4-hydroxyphenyl)-2,2-dimethyl-2<em>H</em>,6<em>H</em>-benzo[1,2-<em>b</em>:5,4-<em>b</em>′]dipyran-6-one;Alpinumisoflavone",
    "duplicated_cas_no": "",
    "SMILES": "O=C1C=2C(=CC3=C(C2O)C=CC(C)(C)O3)OC=C1C4=CC=C(O)C=C4",
    "meta_data": {
        "InChI": "InChI=1S/C20H16O5/c1-20(2)8-7-13-15(25-20)9-16-17(18(13)22)19(23)14(10-24-16)11-3-5-12(21)6-4-11/h3-10,21-22H,1-2H3",
        "InChIKey": null,
        "Canonical SMILES": "O=C1C(=COC=2C=C3OC(C=CC3=C(O)C12)(C)C)C=4C=CC(O)=CC4",
        "Molecular Formula": "C<sub>20</sub>H<sub>16</sub>O<sub>5</sub>",
        "Molecular Mass": "336.34",
        "Melting Point": "213 °C"
    }
}