{
    "cas_no": "5227-53-2",
    "key_name": "Azepan-2-carboxylic acid",
    "cn_name": null,
    "alternate_name": "1<em>H</em>-Azepine-2-carboxylic acid, hexahydro-;Azepine-2-carboxylic acid, hexahydro-;Hexahydro-1<em>H</em>-azepine-2-carboxylic acid;Hexahydroazepine-2-carboxylic acid;NSC 86359;Azepan-2-carboxylic acid;Azepane-2-carboxylic acid",
    "duplicated_cas_no": "",
    "SMILES": "C(O)(=O)C1CCCCCN1",
    "meta_data": {
        "InChI": "InChI=1S/C7H13NO2/c9-7(10)6-4-2-1-3-5-8-6/h6,8H,1-5H2,(H,9,10)",
        "InChIKey": null,
        "Canonical SMILES": "O=C(O)C1NCCCCC1",
        "Molecular Formula": "C<sub>7</sub>H<sub>13</sub>NO<sub>2</sub>",
        "Molecular Mass": "143.18",
        "Melting Point": "208.0-208.5 °C"
    }
}