{
    "cas_no": "119584-74-6",
    "key_name": "2-Fluoro-6-(2,2,2-trifluoroethoxy)benzonitrile",
    "cn_name": null,
    "alternate_name": "Benzonitrile, 2-fluoro-6-(2,2,2-trifluoroethoxy)-;2-Fluoro-6-(2,2,2-trifluoroethoxy)benzonitrile",
    "duplicated_cas_no": "",
    "SMILES": "O(CC(F)(F)F)C1=C(C#N)C(F)=CC=C1",
    "meta_data": {
        "InChI": "InChI=1S/C9H5F4NO/c10-7-2-1-3-8(6(7)4-14)15-5-9(11,12)13/h1-3H,5H2",
        "InChIKey": null,
        "Canonical SMILES": "N#CC=1C(F)=CC=CC1OCC(F)(F)F",
        "Molecular Formula": "C<sub>9</sub>H<sub>5</sub>F<sub>4</sub>NO",
        "Molecular Mass": "219.14",
        "Melting Point": "83-85 °C"
    }
}