{
    "cas_no": "2612-28-4",
    "key_name": "2-Propyl-1,3-propanediol",
    "cn_name": "2-正丙基-1,3-丙二醇;2-正丙基丙烷-1,3-二醇;2-正丙基-1,3-丙二醇;2-正丙基-1,3-丙二醇,98%;",
    "alternate_name": "1,3-Propanediol, 2-propyl-;2-Propyl-1,3-propanediol",
    "duplicated_cas_no": "",
    "SMILES": "C(CCC)(CO)CO",
    "meta_data": {
        "InChI": "InChI=1S/C6H14O2/c1-2-3-6(4-7)5-8/h6-8H,2-5H2,1H3",
        "InChIKey": null,
        "Canonical SMILES": "OCC(CO)CCC",
        "Molecular Formula": "C<sub>6</sub>H<sub>14</sub>O<sub>2</sub>",
        "Molecular Mass": "118.17",
        "Boiling Point": "95-108 °C @ Press: 0.05 Torr",
        "Density": "0.9659 g/cm³ @ Temp: 20 °C"
    }
}