{
    "cas_no": "7789-99-3",
    "key_name": "1-Pentanol, 2-methyl-, 1-acetate",
    "cn_name": "2-甲基戊基醋酸酯;2-甲基戊基醋酸酯;",
    "alternate_name": "1-Pentanol, 2-methyl-, 1-acetate;1-Pentanol, 2-methyl-, acetate;2-Methylpentyl acetate",
    "duplicated_cas_no": "155749-23-8",
    "SMILES": "C(COC(C)=O)(CCC)C",
    "meta_data": {
        "InChI": "InChI=1S/C8H16O2/c1-4-5-7(2)6-10-8(3)9/h7H,4-6H2,1-3H3",
        "InChIKey": null,
        "Canonical SMILES": "O=C(OCC(C)CCC)C",
        "Molecular Formula": "C<sub>8</sub>H<sub>16</sub>O<sub>2</sub>",
        "Molecular Mass": "144.21",
        "Boiling Point": "163 °C"
    }
}