{
    "cas_no": "13287-42-8",
    "key_name": "2-(2-Bromoethyl)oxirane",
    "cn_name": "4-溴-1,2-环氧丁烷;",
    "alternate_name": "Oxirane, 2-(2-bromoethyl)-;Butane, 4-bromo-1,2-epoxy-;Oxirane, (2-bromoethyl)-;2-(2-Bromoethyl)oxirane;4-Bromo-1,2-epoxybutane;1,2-Epoxy-4-bromobutane;(2-Bromoethyl)oxirane;NSC 295369;1-Bromo-3,4-epoxybutane;4-Bromo-1,2-butylene oxide",
    "duplicated_cas_no": "139066-33-4",
    "SMILES": "C(CBr)C1CO1",
    "meta_data": {
        "InChI": "InChI=1S/C4H7BrO/c5-2-1-4-3-6-4/h4H,1-3H2",
        "InChIKey": null,
        "Canonical SMILES": "BrCCC1OC1",
        "Molecular Formula": "C<sub>4</sub>H<sub>7</sub>BrO",
        "Molecular Mass": "151.00",
        "Boiling Point": "65 °C @ Press: 240 mmHg"
    }
}