{
    "cas_no": "13358-73-1",
    "key_name": "<em>N</em>,<em>N</em>-Dibutylcarbamic chloride",
    "cn_name": null,
    "alternate_name": "Carbamic chloride, <em>N</em>,<em>N</em>-dibutyl-;Carbamoyl chloride, dibutyl-;Carbamic chloride, dibutyl-;<em>N</em>,<em>N</em>-Dibutylcarbamic chloride;Dibutylcarbamoyl chloride;<em>N</em>,<em>N</em>-Dibutylcarbamoyl chloride",
    "duplicated_cas_no": "",
    "SMILES": "N(CCCC)(CCCC)C(Cl)=O",
    "meta_data": {
        "InChI": "InChI=1S/C9H18ClNO/c1-3-5-7-11(9(10)12)8-6-4-2/h3-8H2,1-2H3",
        "InChIKey": null,
        "Canonical SMILES": "O=C(Cl)N(CCCC)CCCC",
        "Molecular Formula": "C<sub>9</sub>H<sub>18</sub>ClNO",
        "Molecular Mass": "191.70",
        "Boiling Point": "242-243 °C @ Press: 755 Torr",
        "Density": "0.987 g/cm³"
    }
}