{
    "cas_no": "632-02-0",
    "key_name": "1-Propanol, 3-chloro-, 1-(4-methylbenzenesulfonate)",
    "cn_name": null,
    "alternate_name": "1-Propanol, 3-chloro-, 1-(4-methylbenzenesulfonate);1-Propanol, 3-chloro-, 4-methylbenzenesulfonate;1-Propanol, 3-chloro-, <em>p</em>-toluenesulfonate;3-Chloropropyl <em>p</em>-toluenesulfonate;3-Chloropropyl <em>p</em>-tosylate;<em>O</em>-(<em>p</em>-Tolylsulfonyl)-3-chloropropanol;3-Chloropropyl <em>p</em>-toluensulfonate;NSC 859;Toluene-4-sulfonic acid 3-chloropropyl ester;3-Chloropropyl tosylate;3-Chloropropyl 4-methylbenzenesulfonate;3-Chloropropyl 4-methylbenzene-1-sulfonate",
    "duplicated_cas_no": "",
    "SMILES": "S(OCCCCl)(=O)(=O)C1=CC=C(C)C=C1",
    "meta_data": {
        "InChI": "InChI=1S/C10H13ClO3S/c1-9-3-5-10(6-4-9)15(12,13)14-8-2-7-11/h3-6H,2,7-8H2,1H3",
        "InChIKey": null,
        "Canonical SMILES": "O=S(=O)(OCCCCl)C1=CC=C(C=C1)C",
        "Molecular Formula": "C<sub>10</sub>H<sub>13</sub>ClO<sub>3</sub>S",
        "Molecular Mass": "248.73",
        "Boiling Point": "216-219 °C @ Press: 17 Torr",
        "Density": "1.2674 g/cm³ @ Temp: 20 °C"
    }
}