{
    "cas_no": "23288-49-5",
    "key_name": "Probucol",
    "cn_name": "普罗布考;4,4\"-[(1-甲基乙基)二硫]双[(2,6-二叔丁基)苯酚];",
    "alternate_name": "Phenol, 4,4′-[(1-methylethylidene)bis(thio)]bis[2,6-bis(1,1-dimethylethyl)-;Acetone, bis(3,5-di-<em>tert</em>-butyl-4-hydroxyphenyl) mercaptole;Phenol, 4,4′-(isopropylidenedithio)bis[2,6-di-<em>tert</em>-butyl-;4,4′-[(1-Methylethylidene)bis(thio)]bis[2,6-bis(1,1-dimethylethyl)phenol;DH 581;Probucol;4,4′-(Isopropylidenedithio)bis[2,6-di-<em>tert</em>-butylphenol];Biphenabid;Bisbid;Bisphenabid;Lorelco;Lurselle;Lipomal;Phenbutol;Panavir;Sinlestal;NSC 652160;NSC 86225;2,6-Di-<em>tert</em>-butyl-4-([2-[(3,5-di-<em>tert</em>-butyl-4-hydroxyphenyl)sulfanyl]propan-2-yl]sulfanyl)phenol;2,6-Di-<em>tert</em>-butyl-4-([2-[(3,5-di-<em>tert</em>-butyl-4-hydroxyphenyl)sulfanyl]propane-2-yl] sulfanyl) phenol;MeSH ID: D011341",
    "duplicated_cas_no": "",
    "SMILES": "C(C)(C)(C)C1=C(O)C(C(C)(C)C)=CC(SC(SC2=CC(C(C)(C)C)=C(O)C(C(C)(C)C)=C2)(C)C)=C1",
    "meta_data": {
        "InChI": "InChI=1S/C31H48O2S2/c1-27(2,3)21-15-19(16-22(25(21)32)28(4,5)6)34-31(13,14)35-20-17-23(29(7,8)9)26(33)24(18-20)30(10,11)12/h15-18,32-33H,1-14H3",
        "InChIKey": null,
        "Canonical SMILES": "OC=1C(=CC(SC(SC=2C=C(C(O)=C(C2)C(C)(C)C)C(C)(C)C)(C)C)=CC1C(C)(C)C)C(C)(C)C",
        "Molecular Formula": "C<sub>31</sub>H<sub>48</sub>O<sub>2</sub>S<sub>2</sub>",
        "Molecular Mass": "516.84",
        "Melting Point": "125 °C"
    }
}