{
    "cas_no": "7757-87-1",
    "key_name": "Magnesium phosphate (Mg<sub>3</sub>(PO<sub>4</sub>)<sub>2</sub>)",
    "cn_name": "磷酸三镁;替贝碘铵;",
    "alternate_name": "Phosphoric acid, magnesium salt (2:3);Tribasic magnesium phosphate;Trimagnesium phosphate;Trimagnesium diphosphate;Magnesium phosphate (Mg<sub>3</sub>(PO<sub>4</sub>)<sub>2</sub>);Trimagnesium diorthophosphate;Tertiary magnesium phosphate",
    "duplicated_cas_no": "9079-62-3;83677-34-3;847870-30-8;947340-28-5",
    "SMILES": "P(=O)(O)(O)O.[Mg]",
    "meta_data": {
        "InChI": "InChI=1S/Mg.H3O4P/c;1-5(2,3)4/h;(H3,1,2,3,4)",
        "InChIKey": null,
        "Canonical SMILES": "[Mg].O=P(O)(O)O",
        "Molecular Formula": "H<sub>3</sub>O<sub>4</sub>P.<sup>3</sup>/<sub>2</sub>Mg",
        "Molecular Mass": "",
        "Melting Point": "1184 °C"
    }
}