{
    "cas_no": "53827-53-5",
    "key_name": "6-Methyl-2(3<em>H</em>)-benzothiazolone",
    "cn_name": null,
    "alternate_name": "2(3<em>H</em>)-Benzothiazolone, 6-methyl-;6-Methyl-2(3<em>H</em>)-benzothiazolone;6-Methylbenzothiazolone;6-Methyl-2-oxobenzothiazoline;6-Methyl-1,3-benzothiazol-2(3<em>H</em>)-one",
    "duplicated_cas_no": "",
    "SMILES": "O=C1NC=2C(S1)=CC(C)=CC2",
    "meta_data": {
        "InChI": "InChI=1S/C8H7NOS/c1-5-2-3-6-7(4-5)11-8(10)9-6/h2-4H,1H3,(H,9,10)",
        "InChIKey": null,
        "Canonical SMILES": "O=C1SC2=CC(=CC=C2N1)C",
        "Molecular Formula": "C<sub>8</sub>H<sub>7</sub>NOS",
        "Molecular Mass": "165.21",
        "Melting Point": "169-170 °C"
    }
}