{
    "cas_no": "27848-84-6",
    "key_name": "Nicergoline",
    "cn_name": null,
    "alternate_name": "Ergoline-8-methanol, 10-methoxy-1,6-dimethyl-, 8-(5-bromo-3-pyridinecarboxylate), (8β)-;Ergoline-8β-methanol, 10-methoxy-1,6-dimethyl-, 5-bromonicotinate (ester);Ergoline-8-methanol, 10-methoxy-1,6-dimethyl-, 5-bromo-3-pyridinecarboxylate (ester), (8β)-;Nicotinic acid, 5-bromo-, (10-methoxy-1,6-dimethylergolin-8β-yl)methyl ester;Indolo[4,3-<em>fg</em>]quinoline, ergoline-8-methanol deriv.;MNE;Nicotergoline;1,6-Dimethyl-8β-(5-bromonicotinoyloxymethyl)-10α-methoxyergoline;Nicergoline;Sermion;TA 079;Ergotop;Ergobel;Cergodum;Circo-Maren;Duracebrol;Vasospan;Memoq;Nicergolent;FI 6714;Dilasenil;NSC 150531",
    "duplicated_cas_no": "24705-56-4;37415-54-6;47673-09-6",
    "SMILES": "O(C)[C@@]12C=3C=4C(C[C@]1(N(C)C[C@H](COC(=O)C=5C=C(Br)C=NC5)C2)[H])=CN(C)C4C=CC3",
    "meta_data": {
        "InChI": "InChI=1S/C24H26BrN3O3/c1-27-13-17-8-21-24(30-3,19-5-4-6-20(27)22(17)19)9-15(12-28(21)2)14-31-23(29)16-7-18(25)11-26-10-16/h4-7,10-11,13,15,21H,8-9,12,14H2,1-3H3/t15-,21-,24+/m1/s1",
        "InChIKey": null,
        "Canonical SMILES": "O=C(OCC1CN(C)C2CC3=CN(C4=CC=CC(=C43)C2(OC)C1)C)C=5C=NC=C(Br)C5",
        "Molecular Formula": "C<sub>24</sub>H<sub>26</sub>BrN<sub>3</sub>O<sub>3</sub>",
        "Molecular Mass": "484.39",
        "Melting Point": "136-138 °C"
    }
}