{
    "cas_no": "77-59-8",
    "key_name": "Tomatidine",
    "cn_name": null,
    "alternate_name": "Spirosolan-3-ol, (3β,5α,22β,25<em>S</em>)-;5α-Tomatidan-3β-ol;Tomatidine;(3β,5α,22β,25<em>S</em>)-Spirosolan-3-ol;Tomatidin;NSC 226903;Spirosolan-3-ol, (3β,5α,22α)-",
    "duplicated_cas_no": "894413-06-0;894494-73-6",
    "SMILES": "C[C@@H]1[C@@]2(O[C@@]3([C@]1([C@]4(C)[C@@](C3)([C@]5([C@](CC4)([C@]6(C)[C@@](CC5)(C[C@@H](O)CC6)[H])[H])[H])[H])[H])[H])CC[C@H](C)CN2",
    "meta_data": {
        "InChI": "InChI=1S/C27H45NO2/c1-16-7-12-27(28-15-16)17(2)24-23(30-27)14-22-20-6-5-18-13-19(29)8-10-25(18,3)21(20)9-11-26(22,24)4/h16-24,28-29H,5-15H2,1-4H3/t16-,17-,18-,19-,20+,21-,22-,23-,24-,25-,26-,27-/m0/s1",
        "InChIKey": null,
        "Canonical SMILES": "OC1CCC2(C)C(CCC3C2CCC4(C)C3CC5OC6(NCC(C)CC6)C(C)C54)C1",
        "Molecular Formula": "C<sub>27</sub>H<sub>45</sub>NO<sub>2</sub>",
        "Molecular Mass": "415.65",
        "Melting Point": "210.5 °C"
    }
}