{
    "cas_no": "42397-65-9",
    "key_name": "1,8-Dinitropyrene",
    "cn_name": "1,8-二硝基芘;",
    "alternate_name": "Pyrene, 1,8-dinitro-;1,8-Dinitropyrene",
    "duplicated_cas_no": "",
    "SMILES": "N(=O)(=O)C1=C2C3=C4C(=C(N(=O)=O)C=CC4=CC=C3C=C1)C=C2",
    "meta_data": {
        "InChI": "InChI=1S/C16H8N2O4/c19-17(20)13-7-3-9-1-2-10-4-8-14(18(21)22)12-6-5-11(13)15(9)16(10)12/h1-8H",
        "InChIKey": null,
        "Canonical SMILES": "O=N(=O)C=1C=CC2=CC=C3C=CC(=C4C=CC1C2=C34)N(=O)=O",
        "Molecular Formula": "C<sub>16</sub>H<sub>8</sub>N<sub>2</sub>O<sub>4</sub>",
        "Molecular Mass": "292.25",
        "Melting Point": "&gt;300 °C"
    }
}