{
    "cas_no": "287-92-3",
    "key_name": "Cyclopentane",
    "cn_name": "环戊烷;",
    "alternate_name": "Cyclopentane;Pentamethylene;Zeonsolv HP;Exxsol Cyclopentane S;NSC 60213;Exxsol HP 95;Marukazol FH;H&amp;N;IP 85;CP;CP 95;CP 95 (hydrocarbon);Marukasol FH",
    "duplicated_cas_no": "",
    "SMILES": "C1CCCC1",
    "meta_data": {
        "InChI": "InChI=1S/C5H10/c1-2-4-5-3-1/h1-5H2",
        "InChIKey": null,
        "Canonical SMILES": "C1CCCC1",
        "Molecular Formula": "C<sub>5</sub>H<sub>10</sub>",
        "Molecular Mass": "70.13",
        "Boiling Point": "49.2 °C @ Press: 760 Torr",
        "Melting Point": "-93.9 °C",
        "Density": "0.7457 g/cm³ @ Temp: 20 °C"
    }
}