{
    "cas_no": "10300-27-3",
    "key_name": "3′-<em>O</em>-Methylguanosine",
    "cn_name": null,
    "alternate_name": "Guanosine, 3′-<em>O</em>-methyl-;3′-<em>O</em>-Methylguanosine;NSC 106541",
    "duplicated_cas_no": "",
    "SMILES": "O=C1C2=C(N(C=N2)[C@H]3[C@H](O)[C@H](OC)[C@@H](CO)O3)NC(N)=N1",
    "meta_data": {
        "InChI": "InChI=1S/C11H15N5O5/c1-20-7-4(2-17)21-10(6(7)18)16-3-13-5-8(16)14-11(12)15-9(5)19/h3-4,6-7,10,17-18H,2H2,1H3,(H3,12,14,15,19)/t4-,6-,7-,10-/m1/s1",
        "InChIKey": null,
        "Canonical SMILES": "O=C1N=C(N)NC2=C1N=CN2C3OC(CO)C(OC)C3O",
        "Molecular Formula": "C<sub>11</sub>H<sub>15</sub>N<sub>5</sub>O<sub>5</sub>",
        "Molecular Mass": "297.27",
        "Melting Point": "263-300 °C (decomp)"
    }
}