{
    "cas_no": "3440-99-1",
    "key_name": "5-(3-Bromophenyl)-2<em>H</em>-tetrazole",
    "cn_name": "5-(3-溴苯基)-1H-四氮唑;5-(3-溴苯基)-1H-四唑;",
    "alternate_name": "2<em>H</em>-Tetrazole, 5-(3-bromophenyl)-;Tetrazole, 5-(<em>m</em>-bromophenyl)-;1<em>H</em>-Tetrazole, 5-(3-bromophenyl)-;5-(3-Bromophenyl)-2<em>H</em>-tetrazole;5-(<em>m</em>-Bromophenyl)tetrazole;5-(3-Bromophenyl)-1<em>H</em>-tetrazole;5-(3-Bromophenyl)-1<em>H</em>-1,2,3,4-tetrazole",
    "duplicated_cas_no": "",
    "SMILES": "BrC=1C=C(C=CC1)C=2NN=NN2",
    "meta_data": {
        "InChI": "InChI=1S/C7H5BrN4/c8-6-3-1-2-5(4-6)7-9-11-12-10-7/h1-4H,(H,9,10,11,12)",
        "InChIKey": null,
        "Canonical SMILES": "BrC1=CC=CC(=C1)C2=NN=NN2",
        "Molecular Formula": "C<sub>7</sub>H<sub>5</sub>BrN<sub>4</sub>",
        "Molecular Mass": "225.05",
        "Melting Point": "145-146 °C (decomp)"
    }
}