{
    "cas_no": "645-35-2",
    "key_name": "(-)-Histidine monohydrochloride",
    "cn_name": "L-组氨酸盐酸盐;",
    "alternate_name": "<span class=\"text-smallcaps\">L</span>-Histidine, hydrochloride (1:1);Histidine, monohydrochloride, <span class=\"text-smallcaps\">L</span>-;<span class=\"text-smallcaps\">L</span>-Histidine, monohydrochloride;(-)-Histidine monohydrochloride;Histidine hydrochloride;<span class=\"text-smallcaps\">L</span>-Histidine hydrochloride;Histidine monohydrochloride;NSC 257867",
    "duplicated_cas_no": "",
    "SMILES": "C([C@@H](C(O)=O)N)C1=CN=CN1.Cl",
    "meta_data": {
        "InChI": "InChI=1S/C6H9N3O2.ClH/c7-5(6(10)11)1-4-2-8-3-9-4;/h2-3,5H,1,7H2,(H,8,9)(H,10,11);1H/t5-;/m0./s1",
        "InChIKey": null,
        "Canonical SMILES": "Cl.O=C(O)C(N)CC1=CN=CN1",
        "Molecular Formula": "C<sub>6</sub>H<sub>9</sub>N<sub>3</sub>O<sub>2</sub>.ClH",
        "Molecular Mass": "",
        "Melting Point": "243-244 °C"
    }
}