{
    "cas_no": "13602-12-5",
    "key_name": "Isonicotinic acid <em>N</em>-oxide",
    "cn_name": "异烟酸-N-氧化物;",
    "alternate_name": "4-Pyridinecarboxylic acid, 1-oxide;Isonicotinic acid, 1-oxide;Isonicotinic acid oxide;4-Carboxypyridine <em>N</em>-oxide;4-Pyridinecarboxylic acid oxide;Isonicotinic acid <em>N</em>-oxide;4-Pyridinecarboxylic acid <em>N</em>-oxide;NSC 63044;4-Carboxypyridine 1-oxide;1-Oxidopyridin-1-ium-4-carboxylic acid",
    "duplicated_cas_no": "",
    "SMILES": "C(O)(=O)C=1C=CN(=O)=CC1",
    "meta_data": {
        "InChI": "InChI=1S/C6H5NO3/c8-6(9)5-1-3-7(10)4-2-5/h1-4H,(H,8,9)",
        "InChIKey": null,
        "Canonical SMILES": "O=C(O)C1=CC=N(=O)C=C1",
        "Molecular Formula": "C<sub>6</sub>H<sub>5</sub>NO<sub>3</sub>",
        "Molecular Mass": "139.11",
        "Melting Point": "270-271 °C"
    }
}