{
    "cas_no": "657408-07-6",
    "key_name": "2-Dicyclohexylphosphino-2′,6′-dimethoxybiphenyl",
    "cn_name": "2-双环己基膦-2\",6\"-二甲氧基联苯;",
    "alternate_name": "Phosphine, dicyclohexyl(2′,6′-dimethoxy[1,1′-biphenyl]-2-yl)-;Dicyclohexyl(2′,6′-dimethoxy[1,1′-biphenyl]-2-yl)phosphine;2-Dicyclohexylphosphino-2′,6′-dimethoxybiphenyl;2-(Dicyclohexylphosphino)-2′,6′-dimethoxy-1,1′-biphenyl;Dicyclohexyl(2′,6′-dimethoxybiphenyl-2-yl)phosphine;S-Phos;(2,6-Dimethoxy-1,1′-biphenyl-2-yl)dicyclohexylphosphine;(2′,6′-Dimethoxy-[1,1′-Biphenyl]-2-yl)dicyclohexylphosphine",
    "duplicated_cas_no": "",
    "SMILES": "P(C1=C(C=CC=C1)C2=C(OC)C=CC=C2OC)(C3CCCCC3)C4CCCCC4",
    "meta_data": {
        "InChI": "InChI=1S/C26H35O2P/c1-27-23-17-11-18-24(28-2)26(23)22-16-9-10-19-25(22)29(20-12-5-3-6-13-20)21-14-7-4-8-15-21/h9-11,16-21H,3-8,12-15H2,1-2H3",
        "InChIKey": null,
        "Canonical SMILES": "O(C1=CC=CC(OC)=C1C2=CC=CC=C2P(C3CCCCC3)C4CCCCC4)C",
        "Molecular Formula": "C<sub>26</sub>H<sub>35</sub>O<sub>2</sub>P",
        "Molecular Mass": "410.53",
        "Melting Point": "125-127 °C"
    }
}