{
    "cas_no": "112-73-2",
    "key_name": "Diethylene glycol dibutyl ether",
    "cn_name": "二乙二醇二丁醚;",
    "alternate_name": "Butane, 1,1′-[oxybis(2,1-ethanediyloxy)]bis-;Ether, bis(2-butoxyethyl);1,1′-[Oxybis(2,1-ethanediyloxy)]bis[butane];Bis(2-butoxyethyl) ether;2,2′-Dibutoxyethyl ether;Dibutyl Carbitol;5,8,11-Trioxapentadecane;Diethylene glycol dibutyl ether;2-Butoxyethyl ether;2-(2-Butoxyethoxy)-1-butoxyethane;Butex;DBDG;Hisolve BDB;Butyl diglyme;1-[2-(2-Butoxyethoxy)ethoxy]butane",
    "duplicated_cas_no": "201468-65-7",
    "SMILES": "O(CCOCCCC)CCOCCCC",
    "meta_data": {
        "InChI": "InChI=1S/C12H26O3/c1-3-5-7-13-9-11-15-12-10-14-8-6-4-2/h3-12H2,1-2H3",
        "InChIKey": null,
        "Canonical SMILES": "O(CCOCCCC)CCOCCCC",
        "Molecular Formula": "C<sub>12</sub>H<sub>26</sub>O<sub>3</sub>",
        "Molecular Mass": "218.33",
        "Boiling Point": "256 °C",
        "Melting Point": "-60 °C",
        "Density": "0.8847 g/cm³ @ Temp: 16 °C"
    }
}