{
    "cas_no": "942-91-6",
    "key_name": "<em>S</em>-(Thiobenzoyl)thioglycolic acid",
    "cn_name": "S-硫代苯甲酰巯基乙酸;S-(硫代苯甲酰基)硫乙酸;S-(硫代苯甲酰基)硫代乙醇酸;",
    "alternate_name": "Acetic acid, 2-[(phenylthioxomethyl)thio]-;Benzoic acid, dithio-, ester with mercaptoacetic acid;Acetic acid, [(phenylthioxomethyl)thio]-;Benzoic acid, dithio-, carboxymethyl ester;Acetic acid, mercapto-, dithiobenzoate;2-[(Phenylthioxomethyl)thio]acetic acid;Thiobenzoyl thioglycolate;(Thiobenzoylthio)acetic acid;Carboxymethyl dithiobenzoate;NSC 42331;NSC 68200;[(Phenylcarbonothioyl)thio]acetic acid;2-(Phenylcarbonothioylthio)acetic acid;<em>S</em>-(Thiobenzoyl)thioglycolic acid;2-(Thiobenzoylthio)acetic acid;2-(Benzothioylthio)acetic acid;2-(Benzenecarbonothioylsulfanyl)acetic acid",
    "duplicated_cas_no": "81824-27-3",
    "SMILES": "C(SCC(O)=O)(=S)C1=CC=CC=C1",
    "meta_data": {
        "InChI": "InChI=1S/C9H8O2S2/c10-8(11)6-13-9(12)7-4-2-1-3-5-7/h1-5H,6H2,(H,10,11)",
        "InChIKey": null,
        "Canonical SMILES": "O=C(O)CSC(=S)C=1C=CC=CC1",
        "Molecular Formula": "C<sub>9</sub>H<sub>8</sub>O<sub>2</sub>S<sub>2</sub>",
        "Molecular Mass": "212.29",
        "Melting Point": "123-125 °C"
    }
}