{
    "cas_no": "615-15-6",
    "key_name": "2-Methylbenzimidazole",
    "cn_name": "2-甲基苯并咪唑;",
    "alternate_name": "1<em>H</em>-Benzimidazole, 2-methyl-;Benzimidazole, 2-methyl-;2-Methyl-1<em>H</em>-benzimidazole;2-Methylbenzimidazole;NSC 6500;2-Methylbenzoimidazole;2-Methyl-1<em>H</em>-1,3-benzodiazole;2-Methyl-1<em>H</em>-benzo[<em>d</em>]imidazole",
    "duplicated_cas_no": "",
    "SMILES": "CC=1NC=2C(N1)=CC=CC2",
    "meta_data": {
        "InChI": "InChI=1S/C8H8N2/c1-6-9-7-4-2-3-5-8(7)10-6/h2-5H,1H3,(H,9,10)",
        "InChIKey": null,
        "Canonical SMILES": "N=1C=2C=CC=CC2NC1C",
        "Molecular Formula": "C<sub>8</sub>H<sub>8</sub>N<sub>2</sub>",
        "Molecular Mass": "132.16",
        "Melting Point": "176-177 °C"
    }
}