{
    "cas_no": "580-16-5",
    "key_name": "6-Hydroxyquinoline",
    "cn_name": "6-羟基喹啉;",
    "alternate_name": "6-Quinolinol;6-Hydroxyquinoline;1<em>H</em>-1,6-Epoxyquinoline;NSC 26343",
    "duplicated_cas_no": "",
    "SMILES": "OC1=CC2=C(C=C1)N=CC=C2",
    "meta_data": {
        "InChI": "InChI=1S/C9H7NO/c11-8-3-4-9-7(6-8)2-1-5-10-9/h1-6,11H",
        "InChIKey": null,
        "Canonical SMILES": "OC=1C=CC2=NC=CC=C2C1",
        "Molecular Formula": "C<sub>9</sub>H<sub>7</sub>NO",
        "Molecular Mass": "145.16",
        "Boiling Point": "360 °C",
        "Melting Point": "195 °C"
    }
}