{
    "cas_no": "18281-07-7",
    "key_name": "Tricosanoic acid, ethyl ester",
    "cn_name": null,
    "alternate_name": "Tricosanoic acid, ethyl ester;Ethyl tricosanoate",
    "duplicated_cas_no": "",
    "SMILES": "C(CCCCCCCCCCCCCCCCCCC)CCC(OCC)=O",
    "meta_data": {
        "InChI": "InChI=1S/C25H50O2/c1-3-5-6-7-8-9-10-11-12-13-14-15-16-17-18-19-20-21-22-23-24-25(26)27-4-2/h3-24H2,1-2H3",
        "InChIKey": null,
        "Canonical SMILES": "O=C(OCC)CCCCCCCCCCCCCCCCCCCCCC",
        "Molecular Formula": "C<sub>25</sub>H<sub>50</sub>O<sub>2</sub>",
        "Molecular Mass": "382.66",
        "Boiling Point": "198-199 °C @ Press: 0.27 Torr"
    }
}