{
    "cas_no": "38923-57-8",
    "key_name": "Butanoic acid, 2,2-dimethyl-3-oxo-, methyl ester",
    "cn_name": "2,2-二甲基乙酰乙酸甲酯;",
    "alternate_name": "Butanoic acid, 2,2-dimethyl-3-oxo-, methyl ester;Methyl α,α-dimethylacetoacetate;Methyl 2,2-dimethyl-3-oxobutanoate;Methyl 2,2-dimethylacetoacetate;Methyl 2,2-dimethyl-3-oxobutyrate;NSC 93904",
    "duplicated_cas_no": "",
    "SMILES": "C(C(OC)=O)(C(C)=O)(C)C",
    "meta_data": {
        "InChI": "InChI=1S/C7H12O3/c1-5(8)7(2,3)6(9)10-4/h1-4H3",
        "InChIKey": null,
        "Canonical SMILES": "O=C(OC)C(C(=O)C)(C)C",
        "Molecular Formula": "C<sub>7</sub>H<sub>12</sub>O<sub>3</sub>",
        "Molecular Mass": "144.17",
        "Boiling Point": "95-100 °C @ Press: 0.2 Torr",
        "Density": "0.9955 g/cm³ @ Temp: 20 °C"
    }
}