{
    "cas_no": "5398-79-8",
    "key_name": "2,5-Dichlorobenzeneacetic acid",
    "cn_name": null,
    "alternate_name": "Benzeneacetic acid, 2,5-dichloro-;Acetic acid, (2,5-dichlorophenyl)-;2,5-Dichlorobenzeneacetic acid;2,5-Dichlorophenylacetic acid;NSC 3045;2-(2,5-Dichlorophenyl)ethanoic acid;2-(2,5-Dichlorophenyl)acetic acid",
    "duplicated_cas_no": "",
    "SMILES": "C(C(O)=O)C1=C(Cl)C=CC(Cl)=C1",
    "meta_data": {
        "InChI": "InChI=1S/C8H6Cl2O2/c9-6-1-2-7(10)5(3-6)4-8(11)12/h1-3H,4H2,(H,11,12)",
        "InChIKey": null,
        "Canonical SMILES": "O=C(O)CC1=CC(Cl)=CC=C1Cl",
        "Molecular Formula": "C<sub>8</sub>H<sub>6</sub>Cl<sub>2</sub>O<sub>2</sub>",
        "Molecular Mass": "205.04",
        "Melting Point": "106.5-107 °C"
    }
}