{
    "cas_no": "133860-76-1",
    "key_name": "2-Chloro-<em>N</em><sup>4</sup>-(2-methylpropyl)-3,4-quinolinediamine",
    "cn_name": "2-氯-N4-(2-甲基丙基)-3,4-喹啉二胺;",
    "alternate_name": "3,4-Quinolinediamine, 2-chloro-<em>N</em><sup>4</sup>-(2-methylpropyl)-;2-Chloro-<em>N</em><sup>4</sup>-(2-methylpropyl)-3,4-quinolinediamine;2-Chloro-<em>N</em>′-(2-methylpropyl)quinoline-3,4-diamine;2-Chloro-3-Amino-4-IsobutylAminoQuinoline;2-Chloro-4-<em>N</em>-(2-methylpropyl)quinoline-3,4-diamine;2-Chloro-N4-isobutylquinoline-3,4-diamine",
    "duplicated_cas_no": "",
    "SMILES": "N(CC(C)C)C=1C2=C(N=C(Cl)C1N)C=CC=C2",
    "meta_data": {
        "InChI": "InChI=1S/C13H16ClN3/c1-8(2)7-16-12-9-5-3-4-6-10(9)17-13(14)11(12)15/h3-6,8H,7,15H2,1-2H3,(H,16,17)",
        "InChIKey": null,
        "Canonical SMILES": "ClC=1N=C2C=CC=CC2=C(NCC(C)C)C1N",
        "Molecular Formula": "C<sub>13</sub>H<sub>16</sub>ClN<sub>3</sub>",
        "Molecular Mass": "249.74",
        "Melting Point": "145-148 °C"
    }
}