{
    "cas_no": "461-92-7",
    "key_name": "1,1,1-Trifluoro-6-methyl-2,4-heptanedione",
    "cn_name": null,
    "alternate_name": "2,4-Heptanedione, 1,1,1-trifluoro-6-methyl-;1,1,1-Trifluoro-6-methyl-2,4-heptanedione;Trifluoroacetylisovalerylmethane;Isovaleryltrifluoroacetone;Trifluoroacetylisovaleroylmethane;NSC 42614;1,1,1-Trifluoro-6-methylheptan-2,4-dione",
    "duplicated_cas_no": "100667-61-6",
    "SMILES": "C(C(C(F)(F)F)=O)C(CC(C)C)=O",
    "meta_data": {
        "InChI": "InChI=1S/C8H11F3O2/c1-5(2)3-6(12)4-7(13)8(9,10)11/h5H,3-4H2,1-2H3",
        "InChIKey": null,
        "Canonical SMILES": "O=C(CC(=O)C(F)(F)F)CC(C)C",
        "Molecular Formula": "C<sub>8</sub>H<sub>11</sub>F<sub>3</sub>O<sub>2</sub>",
        "Molecular Mass": "196.17",
        "Boiling Point": "78 °C @ Press: 64 Torr",
        "Density": "1.13 g/cm³"
    }
}