{
    "cas_no": "4186-54-3",
    "key_name": "2,4-Dibromo-6-(bromomethyl)phenol",
    "cn_name": "2,4-二溴-6-溴甲基苯酚;",
    "alternate_name": "Phenol, 2,4-dibromo-6-(bromomethyl)-;<em>o</em>-Cresol, α,4,6-tribromo-;2,4-Dibromo-6-(bromomethyl)phenol;α,3,5-Tribromo-2-hydroxytoluene;3,5-Dibromo-2-hydroxybenzyl bromide;4,6-Dibromo-2-bromomethylphenol;2-(Bromomethyl)-4,6-dibromophenol",
    "duplicated_cas_no": "",
    "SMILES": "C(Br)C1=C(O)C(Br)=CC(Br)=C1",
    "meta_data": {
        "InChI": "InChI=1S/C7H5Br3O/c8-3-4-1-5(9)2-6(10)7(4)11/h1-2,11H,3H2",
        "InChIKey": null,
        "Canonical SMILES": "BrC=1C=C(Br)C(O)=C(C1)CBr",
        "Molecular Formula": "C<sub>7</sub>H<sub>5</sub>Br<sub>3</sub>O",
        "Molecular Mass": "344.83",
        "Melting Point": "118.5-119 °C"
    }
}