{
    "cas_no": "1186-73-8",
    "key_name": "1,1,1-Trimethyl methanetricarboxylate",
    "cn_name": null,
    "alternate_name": "Methanetricarboxylic acid, 1,1,1-trimethyl ester;Methanetricarboxylic acid, trimethyl ester;1,1,1-Trimethyl methanetricarboxylate;Trimethyl methanetricarboxylate;Tricarbomethoxymethane",
    "duplicated_cas_no": "",
    "SMILES": "C(C(OC)=O)(C(OC)=O)C(OC)=O",
    "meta_data": {
        "InChI": "InChI=1S/C7H10O6/c1-11-5(8)4(6(9)12-2)7(10)13-3/h4H,1-3H3",
        "InChIKey": null,
        "Canonical SMILES": "O=C(OC)C(C(=O)OC)C(=O)OC",
        "Molecular Formula": "C<sub>7</sub>H<sub>10</sub>O<sub>6</sub>",
        "Molecular Mass": "190.15",
        "Boiling Point": "128 °C @ Press: 15 Torr",
        "Melting Point": "45-46 °C"
    }
}