{
    "cas_no": "102-65-8",
    "key_name": "Sulfaclozine",
    "cn_name": "磺胺氯吡嗪;N-(5-氯-3-吡嗪基)-4-氨基苯磺酰胺;",
    "alternate_name": "Benzenesulfonamide, 4-amino-<em>N</em>-(6-chloro-2-pyrazinyl)-;Benzenesulfonamide, 4-amino-<em>N</em>-(6-chloropyrazinyl)-;Sulfanilamide, N<sup>1</sup>-(6-chloropyrazinyl)-;4-Amino-<em>N</em>-(6-chloro-2-pyrazinyl)benzenesulfonamide;<em>N</em><sup>1</sup>-(6-Chloropyrazinyl)sulfanilamide;Esb<sub>3</sub>;Sulfatyf;Sulfaclozine;Esb<sub>3</sub> (antibiotic);Sulfachloropyrazine",
    "duplicated_cas_no": "27890-59-1",
    "SMILES": "S(NC1=NC(Cl)=CN=C1)(=O)(=O)C2=CC=C(N)C=C2",
    "meta_data": {
        "InChI": "InChI=1S/C10H9ClN4O2S/c11-9-5-13-6-10(14-9)15-18(16,17)8-3-1-7(12)2-4-8/h1-6H,12H2,(H,14,15)",
        "InChIKey": null,
        "Canonical SMILES": "O=S(=O)(NC1=NC(Cl)=CN=C1)C2=CC=C(N)C=C2",
        "Molecular Formula": "C<sub>10</sub>H<sub>9</sub>ClN<sub>4</sub>O<sub>2</sub>S",
        "Molecular Mass": "284.72",
        "Melting Point": "234.8-235.4 °C"
    }
}