{
    "cas_no": "881-68-5",
    "key_name": "Acetovanillin",
    "cn_name": "乙酰香兰素;4-乙酰氧基-3-甲氧基苯甲醛;",
    "alternate_name": "Benzaldehyde, 4-(acetyloxy)-3-methoxy-;Vanillin, acetate;4-(Acetyloxy)-3-methoxybenzaldehyde;Acetovanillin;4-Acetoxy-3-methoxybenzaldehyde;Acetylvanillin;<em>O</em>-Acetylvanillin;4-<em>O</em>-Acetylvanillin;4-Formyl-2-methoxyphenol acetate;4-Formyl-2-methoxyphenyl acetate;4-Acetoxy-5-methoxybenzaldehyde;NSC 25863;NSC 8499",
    "duplicated_cas_no": "",
    "SMILES": "O(C(C)=O)C1=C(OC)C=C(C=O)C=C1",
    "meta_data": {
        "InChI": "InChI=1S/C10H10O4/c1-7(12)14-9-4-3-8(6-11)5-10(9)13-2/h3-6H,1-2H3",
        "InChIKey": null,
        "Canonical SMILES": "O=CC1=CC=C(OC(=O)C)C(OC)=C1",
        "Molecular Formula": "C<sub>10</sub>H<sub>10</sub>O<sub>4</sub>",
        "Molecular Mass": "194.18",
        "Melting Point": "77 °C"
    }
}