{
    "cas_no": "4521-28-2",
    "key_name": "4-Methoxybenzenebutanoic acid",
    "cn_name": "4-(4-甲氧基苯基)丁酸;",
    "alternate_name": "Benzenebutanoic acid, 4-methoxy-;Butyric acid, 4-(<em>p</em>-methoxyphenyl)-;Butyric acid, γ-(<em>p</em>-methoxyphenyl)-;4-Methoxybenzenebutanoic acid;4-(<em>p</em>-Methoxyphenyl)butyric acid;4-(4-Methoxyphenyl)butyric acid;4-(4-Methoxyphenyl)butanoic acid;NSC 407553",
    "duplicated_cas_no": "",
    "SMILES": "C(CCC(O)=O)C1=CC=C(OC)C=C1",
    "meta_data": {
        "InChI": "InChI=1S/C11H14O3/c1-14-10-7-5-9(6-8-10)3-2-4-11(12)13/h5-8H,2-4H2,1H3,(H,12,13)",
        "InChIKey": null,
        "Canonical SMILES": "O=C(O)CCCC1=CC=C(OC)C=C1",
        "Molecular Formula": "C<sub>11</sub>H<sub>14</sub>O<sub>3</sub>",
        "Molecular Mass": "194.23",
        "Boiling Point": "205-206 °C @ Press: 13 Torr",
        "Melting Point": "56-59 °C"
    }
}