{
    "cas_no": "79642-50-5",
    "key_name": "Disuccinimidyl glutarate",
    "cn_name": null,
    "alternate_name": "Pentanedioic acid, 1,5-bis(2,5-dioxo-1-pyrrolidinyl) ester;2,5-Pyrrolidinedione, 1,1′-[(1,5-dioxo-1,5-pentanediyl)bis(oxy)]bis-;Disuccinimidyl glutarate;DSG Crosslinker;<em>N</em>,<em>N</em>′-Disuccinimidyl glutarate;Di(<em>N</em>-succinimidyl)glutarate",
    "duplicated_cas_no": "",
    "SMILES": "O(C(CCCC(ON1C(=O)CCC1=O)=O)=O)N2C(=O)CCC2=O",
    "meta_data": {
        "InChI": "InChI=1S/C13H14N2O8/c16-8-4-5-9(17)14(8)22-12(20)2-1-3-13(21)23-15-10(18)6-7-11(15)19/h1-7H2",
        "InChIKey": null,
        "Canonical SMILES": "O=C(ON1C(=O)CCC1=O)CCCC(=O)ON2C(=O)CCC2=O",
        "Molecular Formula": "C<sub>13</sub>H<sub>14</sub>N<sub>2</sub>O<sub>8</sub>",
        "Molecular Mass": "326.26",
        "Melting Point": "168-172 °C"
    }
}