{
    "cas_no": "826-81-3",
    "key_name": "2-Methyl-8-hydroxyquinoline",
    "cn_name": "8-羟基喹哪啶;2-甲基-8-羟基喹啉;",
    "alternate_name": "8-Quinolinol, 2-methyl-;2-Methyl-8-quinolinol;8-Hydroxyquinaldine;2-Methyl-8-hydroxyquinoline;8-Hydroxy-2-methylquinoline;2-Methyloxine;Hydroxyquinaldine;NSC 403349;NSC 58553",
    "duplicated_cas_no": "",
    "SMILES": "OC=1C2=C(C=CC(C)=N2)C=CC1",
    "meta_data": {
        "InChI": "InChI=1S/C10H9NO/c1-7-5-6-8-3-2-4-9(12)10(8)11-7/h2-6,12H,1H3",
        "InChIKey": null,
        "Canonical SMILES": "OC1=CC=CC2=CC=C(N=C12)C",
        "Molecular Formula": "C<sub>10</sub>H<sub>9</sub>NO",
        "Molecular Mass": "159.18",
        "Boiling Point": "267 °C",
        "Melting Point": "73.8 °C"
    }
}