{
    "cas_no": "7784-41-0",
    "key_name": "Potassium dihydrogen arsenate",
    "cn_name": "砷酸钾;",
    "alternate_name": "Arsenic acid (H<sub>3</sub>AsO<sub>4</sub>), potassium salt (1:1);Potassium arsenate (KH<sub>2</sub>AsO<sub>4</sub>);Arsenic acid (H<sub>3</sub>AsO<sub>4</sub>), monopotassium salt;Macquer's salt;Potassium acid arsenate;Potassium dihydrogen arsenate;Potassium hydrogen arsenate (KH<sub>2</sub>AsO<sub>4</sub>);Monopotassium arsenate;Monopotassium dihydrogen arsenate;Potassium dihydrogen arsenate (KH<sub>2</sub>AsO<sub>4</sub>);Dihydrogen potassium arsenate;Potassium dihydrogen orthoarsenate;Hydrogen potassium arsenate (H<sub>2</sub>KAsO<sub>4</sub>);Potassium arsenate (K(H<sub>2</sub>AsO<sub>4</sub>))",
    "duplicated_cas_no": "72067-67-5;1263481-96-4;1314087-58-5",
    "SMILES": "[As](=O)(O)(O)O.[K]",
    "meta_data": {
        "InChI": "InChI=1S/AsH3O4.K/c2-1(3,4)5;/h(H3,2,3,4,5);",
        "InChIKey": null,
        "Canonical SMILES": "[K].O=[As](O)(O)O",
        "Molecular Formula": "AsH<sub>3</sub>O<sub>4</sub>.K",
        "Molecular Mass": "",
        "Melting Point": "288 °C",
        "Density": "2.867 g/cm³"
    }
}