{
    "cas_no": "60-80-0",
    "key_name": "Antipyrine",
    "cn_name": "安替比林;非那宗;2,3-二甲基-1-苯基-3-吡唑啉-5-酮;",
    "alternate_name": "3<em>H</em>-Pyrazol-3-one, 1,2-dihydro-1,5-dimethyl-2-phenyl-;Antipyrine;1,2-Dihydro-1,5-dimethyl-2-phenyl-3<em>H</em>-pyrazol-3-one;Analgesine;Anodynine;Dimethyloxychinizin;Dimethyloxyquinazine;2,3-Dimethyl-1-phenyl-3-pyrazolin-5-one;2,3-Dimethyl-1-phenyl-5-pyrazolone;Fenazone;Oxydimethylquinazine;Parodyne;Phenazone;1-Phenyl-2,3-dimethyl-5-pyrazolone;Sedatine;Phenazone (pharmaceutical);Azophen;Phenylone;Antipyrin;Phenazon;Antipirin;Phenylon;Anodynin;Pyrazophyl;Sedatin;Methozin;Apirelina;Azophene;Analgesin;Dentigoa N;Eu-Med mono;1,5-Dimethyl-2-phenyl-1,2-dihydropyrazol-3-one;NSC 7945;1,5-Dimethyl-2-phenyl-1,2-dihydro-3<em>H</em>-pyrazol-3-one;1,5-Dimethyl-2-phenyl-2,3-dihydro-1<em>H</em>-pyrazol-3-one;1,5-Dimethyl-2-phenylpyrazol-3-one;1,5-Dimethyl-2-phenyl-1<em>H</em>-pyrazol-3(2<em>H</em>)-one;MeSH ID: D000983",
    "duplicated_cas_no": "123175-91-7;5779-41-9",
    "SMILES": "CN1N(C(=O)C=C1C)C2=CC=CC=C2",
    "meta_data": {
        "InChI": "InChI=1S/C11H12N2O/c1-9-8-11(14)13(12(9)2)10-6-4-3-5-7-10/h3-8H,1-2H3",
        "InChIKey": null,
        "Canonical SMILES": "O=C1C=C(N(N1C=2C=CC=CC2)C)C",
        "Molecular Formula": "C<sub>11</sub>H<sub>12</sub>N<sub>2</sub>O",
        "Molecular Mass": "188.23",
        "Boiling Point": "319 °C",
        "Melting Point": "113 °C",
        "Density": "1.19 g/cm³"
    }
}