{
    "cas_no": "131427-22-0",
    "key_name": "3-(Chloromethyl)-1-(phenylmethyl)-1<em>H</em>-indazole",
    "cn_name": null,
    "alternate_name": "1<em>H</em>-Indazole, 3-(chloromethyl)-1-(phenylmethyl)-;3-(Chloromethyl)-1-(phenylmethyl)-1<em>H</em>-indazole;1-Benzyl-3-chloromethylindazole;1-Benzyl-3-(chloromethyl)-1<em>H</em>-indazole",
    "duplicated_cas_no": "",
    "SMILES": "C(N1C=2C(C(CCl)=N1)=CC=CC2)C3=CC=CC=C3",
    "meta_data": {
        "InChI": "InChI=1S/C15H13ClN2/c16-10-14-13-8-4-5-9-15(13)18(17-14)11-12-6-2-1-3-7-12/h1-9H,10-11H2",
        "InChIKey": null,
        "Canonical SMILES": "ClCC1=NN(C=2C=CC=CC12)CC=3C=CC=CC3",
        "Molecular Formula": "C<sub>15</sub>H<sub>13</sub>ClN<sub>2</sub>",
        "Molecular Mass": "256.73",
        "Melting Point": "89-91 °C"
    }
}