{
    "cas_no": "3939-09-1",
    "key_name": "2,4-Difluorobenzonitrile",
    "cn_name": "2,4-二氟苯腈;",
    "alternate_name": "Benzonitrile, 2,4-difluoro-;2,4-Difluorobenzonitrile",
    "duplicated_cas_no": "",
    "SMILES": "C(#N)C1=C(F)C=C(F)C=C1",
    "meta_data": {
        "InChI": "InChI=1S/C7H3F2N/c8-6-2-1-5(4-10)7(9)3-6/h1-3H",
        "InChIKey": null,
        "Canonical SMILES": "N#CC1=CC=C(F)C=C1F",
        "Molecular Formula": "C<sub>7</sub>H<sub>3</sub>F<sub>2</sub>N",
        "Molecular Mass": "139.10",
        "Melting Point": "46 °C"
    }
}