{
    "cas_no": "142-45-0",
    "key_name": "2-Butynedioic acid",
    "cn_name": "丁炔二酸;",
    "alternate_name": "2-Butynedioic acid;Acetylenedicarboxylic acid;Butynedioic acid;2-Butyne-1,4-dioic acid;NSC 1903;NSC 631597",
    "duplicated_cas_no": "",
    "SMILES": "C(#CC(O)=O)C(O)=O",
    "meta_data": {
        "InChI": "InChI=1S/C4H2O4/c5-3(6)1-2-4(7)8/h(H,5,6)(H,7,8)",
        "InChIKey": null,
        "Canonical SMILES": "O=C(O)C#CC(=O)O",
        "Molecular Formula": "C<sub>4</sub>H<sub>2</sub>O<sub>4</sub>",
        "Molecular Mass": "114.06",
        "Melting Point": "193-194 °C"
    }
}