{
    "cas_no": "75-57-0",
    "key_name": "Tetramethylammonium chloride",
    "cn_name": "四甲基氯化铵;",
    "alternate_name": "Methanaminium, <em>N</em>,<em>N</em>,<em>N</em>-trimethyl-, chloride (1:1);Tetramethylammonium chloride;Ammonium, tetramethyl-, chloride;Methanaminium, <em>N</em>,<em>N</em>,<em>N</em>-trimethyl-, chloride;Tetramine chloride;Tetramine;TMAC 100",
    "duplicated_cas_no": "79098-37-6;251459-49-1",
    "SMILES": "[N+](C)(C)(C)C.[Cl-]",
    "meta_data": {
        "InChI": "InChI=1S/C4H12N.ClH/c1-5(2,3)4;/h1-4H3;1H/q+1;/p-1",
        "InChIKey": null,
        "Canonical SMILES": "[Cl-].C[N+](C)(C)C",
        "Molecular Formula": "C<sub>4</sub>H<sub>12</sub>N.Cl",
        "Molecular Mass": "",
        "Melting Point": "368-370 °C (decomp)",
        "Density": "1.17 g/cm³"
    }
}