{
    "cas_no": "4886-30-0",
    "key_name": "1-Butyl-1<em>H</em>-benzimidazole",
    "cn_name": null,
    "alternate_name": "1<em>H</em>-Benzimidazole, 1-butyl-;Benzimidazole, 1-butyl-;1-Butyl-1<em>H</em>-benzimidazole;1-Butylbenzimidazole;<em>N</em>-Butylbenzimidazole;1-Butylbenzoimidazole;1-Butyl-1<em>H</em>-1,3-benzodiazole",
    "duplicated_cas_no": "",
    "SMILES": "C(CCC)N1C=2C(N=C1)=CC=CC2",
    "meta_data": {
        "InChI": "InChI=1S/C11H14N2/c1-2-3-8-13-9-12-10-6-4-5-7-11(10)13/h4-7,9H,2-3,8H2,1H3",
        "InChIKey": null,
        "Canonical SMILES": "N1=CN(C=2C=CC=CC12)CCCC",
        "Molecular Formula": "C<sub>11</sub>H<sub>14</sub>N<sub>2</sub>",
        "Molecular Mass": "174.24",
        "Boiling Point": "171-173 °C @ Press: 5 Torr",
        "Melting Point": "171-173 °C"
    }
}