{
    "cas_no": "24338-53-2",
    "key_name": "Nagilactone C",
    "cn_name": null,
    "alternate_name": "3<em>H</em>,8<em>H</em>-Furo[2′,3′,4′:4,5]oxireno[7,8]naphtho[2,1-<em>c</em>]pyran-3,8-dione, 1a,2,2a,4a,4b,5,9b,9c-octahydro-2,5-dihydroxy-2a,9b-dimethyl-6-(1-methylethyl)-, (1a<em>R</em>,2<em>R</em>,2a<em>R</em>,4a<em>S</em>,4b<em>R</em>,5<em>R</em>,9b<em>S</em>,9c<em>S</em>)-;3<em>H</em>,8<em>H</em>-Furo[2′,3′,4′:4,5]oxireno[7,8]naphtho[2,1-<em>c</em>]pyran-3,8-dione, 1aα,2,2a,4aβ,4bβ,5,9b,9cα-octahydro-2α,5α-dihydroxy-6-isopropyl-2aβ,9bα-dimethyl-;Podolactone B, 7,8-deepoxy-8,14-didehydro-15,16-dideoxy-7-hydroxy-, (1α,2α,7β)-;(1a<em>R</em>,2<em>R</em>,2a<em>R</em>,4a<em>S</em>,4b<em>R</em>,5<em>R</em>,9b<em>S</em>,9c<em>S</em>)-1a,2,2a,4a,4b,5,9b,9c-Octahydro-2,5-dihydroxy-2a,9b-dimethyl-6-(1-methylethyl)-3<em>H</em>,8<em>H</em>-furo[2′,3′,4′:4,5]oxireno[7,8]naphtho[2,1-<em>c</em>]pyran-3,8-dione;Nagilactone C;3<em>H</em>,8<em>H</em>-Furo[2′,3′,4′:4,5]oxireno[7,8]naphtho[2,1-<em>c</em>]pyran-3,8-dione, 1a,2,2a,4a,4b,5,9b,9c-octahydro-2,5-dihydroxy-2a,9b-dimethyl-6-(1-methylethyl)-, [1a<em>R</em>-(1aα,2β,2aα,4aα,4bα,5β,9bβ,9cα)]-;NSC 117884;NSC 211500",
    "duplicated_cas_no": "19891-52-2;71462-27-6",
    "SMILES": "C[C@@]12[C@@]3([C@](C)([C@@H](O)[C@@]4([C@]1(O4)[H])[H])C(=O)O[C@@]3([C@H](O)C=5C2=CC(=O)OC5C(C)C)[H])[H]",
    "meta_data": {
        "InChI": "InChI=1S/C19H22O7/c1-6(2)11-9-7(5-8(20)24-11)18(3)14-12(10(9)21)26-17(23)19(14,4)15(22)13-16(18)25-13/h5-6,10,12-16,21-22H,1-4H3/t10-,12-,13-,14-,15+,16-,18-,19-/m1/s1",
        "InChIKey": null,
        "Canonical SMILES": "O=C1OC(=C2C(=C1)C3(C)C4OC4C(O)C5(C(=O)OC(C2O)C53)C)C(C)C",
        "Molecular Formula": "C<sub>19</sub>H<sub>22</sub>O<sub>7</sub>",
        "Molecular Mass": "362.37",
        "Melting Point": "290 °C"
    }
}