{
    "cas_no": "495-02-3",
    "key_name": "Auraptene",
    "cn_name": "橙皮油素;橙皮油内酯;",
    "alternate_name": "2<em>H</em>-1-Benzopyran-2-one, 7-[[(2<em>E</em>)-3,7-dimethyl-2,6-octadien-1-yl]oxy]-;Coumarin, 7-[(3,7-dimethyl-2,6-octadienyl)oxy]-, (<em>E</em>)-;2<em>H</em>-1-Benzopyran-2-one, 7-[(3,7-dimethyl-2,6-octadienyl)oxy]-, (<em>E</em>)-;Coumarin, 7-(geranyloxy)-;2<em>H</em>-1-Benzopyran-2-one, 7-[[(2<em>E</em>)-3,7-dimethyl-2,6-octadienyl]oxy]-;7-[[(2<em>E</em>)-3,7-Dimethyl-2,6-octadien-1-yl]oxy]-2<em>H</em>-1-benzopyran-2-one;Aurapten (C<sub>19</sub>H<sub>22</sub>O<sub>3</sub>);7-Geranyloxycoumarin;Aurapten;(<em>E</em>)-7-Geranoxycoumarin;Auraptene;Rapten",
    "duplicated_cas_no": "5980-08-5",
    "SMILES": "O(C/C=C(/CCC=C(C)C)\\C)C=1C=C2C(=CC1)C=CC(=O)O2",
    "meta_data": {
        "InChI": "InChI=1S/C19H22O3/c1-14(2)5-4-6-15(3)11-12-21-17-9-7-16-8-10-19(20)22-18(16)13-17/h5,7-11,13H,4,6,12H2,1-3H3/b15-11+",
        "InChIKey": null,
        "Canonical SMILES": "O=C1OC=2C=C(OCC=C(C)CCC=C(C)C)C=CC2C=C1",
        "Molecular Formula": "C<sub>19</sub>H<sub>22</sub>O<sub>3</sub>",
        "Molecular Mass": "298.38",
        "Melting Point": "91 °C"
    }
}