{
    "cas_no": "1633-05-2",
    "key_name": "Strontium carbonate",
    "cn_name": "碳酸锶;",
    "alternate_name": "Carbonic acid, strontium salt (1:1);Strontium carbonate;C.I. 77837;Strontium carbonate (SrCO<sub>3</sub>);Strontium monocarbonate;C.I. Pigment White 34;Pigment White 34;Strontium(2+) carbonate;Strontium(II) carbonate;SW-K;SW-K 20;K 60 (carbonate);SW-P;K 60;SW-P-N;Powder N",
    "duplicated_cas_no": "",
    "SMILES": "C(=O)(O)O.[Sr]",
    "meta_data": {
        "InChI": "InChI=1S/CH2O3.Sr/c2-1(3)4;/h(H2,2,3,4);",
        "InChIKey": null,
        "Canonical SMILES": "[Sr].O=C(O)O",
        "Molecular Formula": "CH<sub>2</sub>O<sub>3</sub>.Sr",
        "Molecular Mass": "",
        "Melting Point": "1494 °C",
        "Density": "3.5 g/cm³"
    }
}