{
    "cas_no": "3300-25-2",
    "key_name": "1-Hydroxy-8-methoxy-3-methyl-9,10-anthracenedione",
    "cn_name": null,
    "alternate_name": "9,10-Anthracenedione, 1-hydroxy-8-methoxy-3-methyl-;Anthraquinone, 1-hydroxy-8-methoxy-3-methyl-;1-Hydroxy-8-methoxy-3-methyl-9,10-anthracenedione;8-<em>O</em>-Methylchrysophanol;Chrysophanol 8-methyl ether;8-Methoxylchrysophanol;1-Hydroxy-8-methoxy-3-methylanthraquinone",
    "duplicated_cas_no": "",
    "SMILES": "O=C1C=2C(C(=O)C=3C1=C(O)C=C(C)C3)=CC=CC2OC",
    "meta_data": {
        "InChI": "InChI=1S/C16H12O4/c1-8-6-10-13(11(17)7-8)16(19)14-9(15(10)18)4-3-5-12(14)20-2/h3-7,17H,1-2H3",
        "InChIKey": null,
        "Canonical SMILES": "O=C1C=2C=CC=C(OC)C2C(=O)C3=C(O)C=C(C=C13)C",
        "Molecular Formula": "C<sub>16</sub>H<sub>12</sub>O<sub>4</sub>",
        "Molecular Mass": "268.26",
        "Melting Point": "198 °C"
    }
}