{
    "cas_no": "6880-91-7",
    "key_name": "Dihydrochelerythrine",
    "cn_name": null,
    "alternate_name": "[1,3]Benzodioxolo[5,6-<em>c</em>]phenanthridine, 12,13-dihydro-1,2-dimethoxy-12-methyl-;Chelerythrine, 12,13-dihydro-;Chelerythrine, dihydro-;12,13-Dihydro-1,2-dimethoxy-12-methyl[1,3]benzodioxolo[5,6-<em>c</em>]phenanthridine;Dihydrochelerythrine;12,13-Dihydrochelerythrine;1,2-Dimethoxy-12-methyl-13<em>H</em>-[1,3]benzodioxolo[5,6-<em>c</em>]phenanthridine",
    "duplicated_cas_no": "",
    "SMILES": "CN1C2=C(C=3C(C1)=C(OC)C(OC)=CC3)C=CC=4C2=CC5=C(C4)OCO5",
    "meta_data": {
        "InChI": "InChI=1S/C21H19NO4/c1-22-10-16-13(6-7-17(23-2)21(16)24-3)14-5-4-12-8-18-19(26-11-25-18)9-15(12)20(14)22/h4-9H,10-11H2,1-3H3",
        "InChIKey": null,
        "Canonical SMILES": "O(C=1C=CC=2C3=CC=C4C=C5OCOC5=CC4=C3N(C)CC2C1OC)C",
        "Molecular Formula": "C<sub>21</sub>H<sub>19</sub>NO<sub>4</sub>",
        "Molecular Mass": "349.38",
        "Melting Point": "164-165 °C"
    }
}