{
    "cas_no": "34160-40-2",
    "key_name": "6-Bromo-2-pyridinecarboxaldehyde",
    "cn_name": "6-溴吡啶-2-甲醛;2-溴吡啶-6-甲醛;",
    "alternate_name": "2-Pyridinecarboxaldehyde, 6-bromo-;Picolinaldehyde, 6-bromo-;6-Bromo-2-pyridinecarboxaldehyde;6-Bromo-2-formylpyridine;2-Bromopyridine-6-carboxaldehyde;6-Bromopicolylaldehyde;2-Bromo-6-formylpyridine;6-Bromopyridine-2-aldehyde;2-Bromopyridyl-6-carboxaldehyde;2-Formyl-6-bromopyridine;6-Bromo-2-pyridinecarbaldehyde;6-Bromopicolinaldehyde",
    "duplicated_cas_no": "",
    "SMILES": "C(=O)C=1N=C(Br)C=CC1",
    "meta_data": {
        "InChI": "InChI=1S/C6H4BrNO/c7-6-3-1-2-5(4-9)8-6/h1-4H",
        "InChIKey": null,
        "Canonical SMILES": "O=CC1=NC(Br)=CC=C1",
        "Molecular Formula": "C<sub>6</sub>H<sub>4</sub>BrNO",
        "Molecular Mass": "186.01",
        "Melting Point": "80-81.5 °C"
    }
}