{
    "cas_no": "6587-24-2",
    "key_name": "Benzoic acid, 2-cyano-, methyl ester",
    "cn_name": "2-氰基苯甲酸甲酯; 邻氰基苯甲酸甲酯;",
    "alternate_name": "Benzoic acid, 2-cyano-, methyl ester;Benzoic acid, <em>o</em>-cyano-, methyl ester;Methyl <em>o</em>-cyanobenzoate;Methyl 2-cyanobenzoate;2-Cyanobenzoic acid methyl ester",
    "duplicated_cas_no": "",
    "SMILES": "C(OC)(=O)C1=C(C#N)C=CC=C1",
    "meta_data": {
        "InChI": "InChI=1S/C9H7NO2/c1-12-9(11)8-5-3-2-4-7(8)6-10/h2-5H,1H3",
        "InChIKey": null,
        "Canonical SMILES": "N#CC=1C=CC=CC1C(=O)OC",
        "Molecular Formula": "C<sub>9</sub>H<sub>7</sub>NO<sub>2</sub>",
        "Molecular Mass": "161.16",
        "Boiling Point": "147 °C @ Press: 11 Torr",
        "Melting Point": "50-51 °C"
    }
}