{
    "cas_no": "6768-23-6",
    "key_name": "Diethyl (4-methoxybenzylidene)malonate",
    "cn_name": "4-甲氧基亚苄基丙二酸二乙酯;",
    "alternate_name": "Propanedioic acid, 2-[(4-methoxyphenyl)methylene]-, 1,3-diethyl ester;Malonic acid, (<em>p</em>-methoxybenzylidene)-, diethyl ester;Propanedioic acid, [(4-methoxyphenyl)methylene]-, diethyl ester;(<em>p</em>-Methoxybenzylidene)malonic acid diethyl ester;Diethyl (4-methoxybenzylidene)malonate;Cyasorb UV 3100;Diethyl (<em>p</em>-methoxybenzylidene)malonate;<em>p</em>-Methoxy-β,β-(diethoxycarbonyl)styrene;NSC 95160;Diethyl 2-(4-methoxybenzylidene)malonate",
    "duplicated_cas_no": "",
    "SMILES": "C(=CC1=CC=C(OC)C=C1)(C(OCC)=O)C(OCC)=O",
    "meta_data": {
        "InChI": "InChI=1S/C15H18O5/c1-4-19-14(16)13(15(17)20-5-2)10-11-6-8-12(18-3)9-7-11/h6-10H,4-5H2,1-3H3",
        "InChIKey": null,
        "Canonical SMILES": "O=C(OCC)C(=CC1=CC=C(OC)C=C1)C(=O)OCC",
        "Molecular Formula": "C<sub>15</sub>H<sub>18</sub>O<sub>5</sub>",
        "Molecular Mass": "278.30",
        "Boiling Point": "185-187 °C @ Press: 3 Torr",
        "Melting Point": "38-40 °C"
    }
}