{
    "cas_no": "61-70-1",
    "key_name": "1-Methyl-1,3-dihydroindol-2-one",
    "cn_name": null,
    "alternate_name": "2<em>H</em>-Indol-2-one, 1,3-dihydro-1-methyl-;2-Indolinone, 1-methyl-;Oxindole, 1-methyl-;1,3-Dihydro-1-methyl-2<em>H</em>-indol-2-one;<em>N</em>-Methyloxindole;<em>N</em>-Methyl-2-indolinone;Ba 2777;1-Methyloxindole;<em>N</em>-Methylindol-2(3<em>H</em>)-one;1-Methyl-2-indolinone;1-Methyl-2-oxindole;1-Methyl-1,3-dihydroindol-2-one;1-Methylindol-2(3<em>H</em>)-one;1-Methyl-2-indolone;NSC 97219;1-Methyl-1<em>H</em>-indolin-2-one;<em>N</em>-Methyl-2-oxindole;1-Methyl-3<em>H</em>-indol-2-one;1-Methyl-2,3-dihydro-1<em>H</em>-indol-2-one",
    "duplicated_cas_no": "",
    "SMILES": "CN1C=2C(CC1=O)=CC=CC2",
    "meta_data": {
        "InChI": "InChI=1S/C9H9NO/c1-10-8-5-3-2-4-7(8)6-9(10)11/h2-5H,6H2,1H3",
        "InChIKey": null,
        "Canonical SMILES": "O=C1N(C=2C=CC=CC2C1)C",
        "Molecular Formula": "C<sub>9</sub>H<sub>9</sub>NO",
        "Molecular Mass": "147.17",
        "Boiling Point": "110-120 °C @ Press: 1 Torr",
        "Melting Point": "88 °C"
    }
}