{
    "cas_no": "2782-07-2",
    "key_name": "<span class=\"text-smallcaps\">D</span>-Galactono-1,4-lactone",
    "cn_name": "D(-)-半乳糖-1,4-内酯;D-半乳糖酸-1,4-内酯;水解乳糖酸内酯;",
    "alternate_name": "<span class=\"text-smallcaps\">D</span>-Galactonic acid, γ-lactone;Galactonic acid, γ-lactone, <span class=\"text-smallcaps\">D</span>-;<span class=\"text-smallcaps\">D</span>-Galactono-γ-lactone;<span class=\"text-smallcaps\">D</span>-Galactono-1,4-lactone;γ-<span class=\"text-smallcaps\">D</span>-Galactonolactone;1,4-<span class=\"text-smallcaps\">D</span>-Galactonolactone;<span class=\"text-smallcaps\">D</span>-Galactonic acid 1,4-lactone;NSC 102762",
    "duplicated_cas_no": "",
    "SMILES": "[C@H](CO)(O)[C@]1([C@H](O)[C@@H](O)C(=O)O1)[H]",
    "meta_data": {
        "InChI": "InChI=1S/C6H10O6/c7-1-2(8)5-3(9)4(10)6(11)12-5/h2-5,7-10H,1H2/t2-,3-,4-,5+/m1/s1",
        "InChIKey": null,
        "Canonical SMILES": "O=C1OC(C(O)CO)C(O)C1O",
        "Molecular Formula": "C<sub>6</sub>H<sub>10</sub>O<sub>6</sub>",
        "Molecular Mass": "178.14",
        "Melting Point": "133-134 °C"
    }
}