{
    "cas_no": "2251-50-5",
    "key_name": "Pentafluorobenzoyl chloride",
    "cn_name": "五氟苯甲酰氯;",
    "alternate_name": "Benzoyl chloride, 2,3,4,5,6-pentafluoro-;Benzoyl chloride, pentafluoro-;2,3,4,5,6-Pentafluorobenzoyl chloride;Pentafluorobenzoyl chloride;Perfluorobenzoyl chloride;2,3,4,5,6-Pentafluorobenzoic acid chloride;NSC 97002",
    "duplicated_cas_no": "",
    "SMILES": "C(Cl)(=O)C1=C(F)C(F)=C(F)C(F)=C1F",
    "meta_data": {
        "InChI": "InChI=1S/C7ClF5O/c8-7(14)1-2(9)4(11)6(13)5(12)3(1)10",
        "InChIKey": null,
        "Canonical SMILES": "O=C(Cl)C=1C(F)=C(F)C(F)=C(F)C1F",
        "Molecular Formula": "C<sub>7</sub>ClF<sub>5</sub>O",
        "Molecular Mass": "230.52",
        "Boiling Point": "158.5 °C"
    }
}