{
    "cas_no": "357263-41-3",
    "key_name": "7-Chloro-1<em>H</em>-pyrrolo[2,3-<em>c</em>]pyridine",
    "cn_name": "7-氯-6-氮杂吲哚;",
    "alternate_name": "1<em>H</em>-Pyrrolo[2,3-<em>c</em>]pyridine, 7-chloro-;7-Chloro-1<em>H</em>-pyrrolo[2,3-<em>c</em>]pyridine;7-Chloro-6-azaindole",
    "duplicated_cas_no": "",
    "SMILES": "ClC1=C2C(=CC=N1)C=CN2",
    "meta_data": {
        "InChI": "InChI=1S/C7H5ClN2/c8-7-6-5(1-3-9-6)2-4-10-7/h1-4,9H",
        "InChIKey": null,
        "Canonical SMILES": "ClC1=NC=CC=2C=CNC12",
        "Molecular Formula": "C<sub>7</sub>H<sub>5</sub>ClN<sub>2</sub>",
        "Molecular Mass": "152.58",
        "Melting Point": "123-124 °C"
    }
}