{
    "cas_no": "620-92-8",
    "key_name": "Bis(4-hydroxyphenyl)methane",
    "cn_name": null,
    "alternate_name": "Phenol, 4,4′-methylenebis-;Phenol, 4,4′-methylenedi-;Phenol, <em>p</em>,<em>p</em>′-methylenedi-;4,4′-Methylenebis[phenol];Bis(<em>p</em>-hydroxyphenyl)methane;Bis(4-hydroxyphenyl)methane;4,4′-Methylenediphenol;4,4′-Dihydroxydiphenylmethane;<em>p</em>-(<em>p</em>-Hydroxybenzyl)phenol;HDM;4,4′-Bis(hydroxyphenyl)methane;Bisphenol F;PP-BIP-F;NSC 401136;p,p′-BPF;1,1-Bis(4-hydroxyphenyl)methane;EMTP 120",
    "duplicated_cas_no": "1429425-30-8",
    "SMILES": "C(C1=CC=C(O)C=C1)C2=CC=C(O)C=C2",
    "meta_data": {
        "InChI": "InChI=1S/C13H12O2/c14-12-5-1-10(2-6-12)9-11-3-7-13(15)8-4-11/h1-8,14-15H,9H2",
        "InChIKey": null,
        "Canonical SMILES": "OC1=CC=C(C=C1)CC2=CC=C(O)C=C2",
        "Molecular Formula": "C<sub>13</sub>H<sub>12</sub>O<sub>2</sub>",
        "Molecular Mass": "200.23",
        "Boiling Point": "237-243 °C @ Press: 12-13 Torr",
        "Melting Point": "162.5 °C"
    }
}