{
    "cas_no": "2768-56-1",
    "key_name": "<em>N</em>-Benzyloxycarbonyl-<span class=\"text-smallcaps\">DL</span>-serine",
    "cn_name": "N-苄氧羰基-DL-丝氨酸;",
    "alternate_name": "Serine, <em>N</em>-[(phenylmethoxy)carbonyl]-;Serine, <em>N</em>-carboxy-, <em>N</em>-benzyl ester, <span class=\"text-smallcaps\">DL</span>-;<span class=\"text-smallcaps\">DL</span>-Serine, <em>N</em>-carboxy-, <em>N</em>-benzyl ester;<em>N</em>-[(Phenylmethoxy)carbonyl]serine;<em>N</em>-Carbobenzoxy-<span class=\"text-smallcaps\">DL</span>-serine;<em>N</em>-Benzyloxycarbonyl-<span class=\"text-smallcaps\">DL</span>-serine;<em>N</em>-Carbobenzyloxy-<span class=\"text-smallcaps\">DL</span>-serine;NSC 118530;NSC 22029;3-Hydroxy-2-(phenylmethoxycarbonylamino)propanoic acid;2-[[(Benzyloxy)carbonyl]amino]-3-hydroxypropanoic acid;2-Benzyloxycarbonylamino-3-hydroxy-propionic acid;Cbz-<em>x</em>-Ser-oh",
    "duplicated_cas_no": "200947-93-9",
    "SMILES": "C(OC(NC(C(O)=O)CO)=O)C1=CC=CC=C1",
    "meta_data": {
        "InChI": "InChI=1S/C11H13NO5/c13-6-9(10(14)15)12-11(16)17-7-8-4-2-1-3-5-8/h1-5,9,13H,6-7H2,(H,12,16)(H,14,15)",
        "InChIKey": null,
        "Canonical SMILES": "O=C(O)C(NC(=O)OCC=1C=CC=CC1)CO",
        "Molecular Formula": "C<sub>11</sub>H<sub>13</sub>NO<sub>5</sub>",
        "Molecular Mass": "239.22",
        "Melting Point": "125 °C"
    }
}