{
    "cas_no": "4747-07-3",
    "key_name": "Hexyl methyl ether",
    "cn_name": "1-甲氧基-己烷;",
    "alternate_name": "Hexane, 1-methoxy-;Ether, hexyl methyl;1-Methoxyhexane;Hexyl methyl ether;Methyl hexyl ether;<em>n</em>-Hexyl methyl ether;Diola (fragrance);Diola",
    "duplicated_cas_no": "",
    "SMILES": "C(CCOC)CCC",
    "meta_data": {
        "InChI": "InChI=1S/C7H16O/c1-3-4-5-6-7-8-2/h3-7H2,1-2H3",
        "InChIKey": null,
        "Canonical SMILES": "O(C)CCCCCC",
        "Molecular Formula": "C<sub>7</sub>H<sub>16</sub>O",
        "Molecular Mass": "116.20",
        "Boiling Point": "126.1 °C",
        "Density": "0.7997 g/cm³ @ Temp: 19 °C"
    }
}