{
    "cas_no": "12039-88-2",
    "key_name": "Tungsten silicide (WSi<sub>2</sub>)",
    "cn_name": "硅化钨;",
    "alternate_name": "Tungsten silicide (WSi<sub>2</sub>);Tungsten disilicide;Tungsten disilicide (WSi<sub>2</sub>);Tungsten silicide",
    "duplicated_cas_no": "259750-87-3;341026-23-1;349655-31-8;361445-78-5;1954684-03-7",
    "SMILES": "",
    "meta_data": {
        "InChI": "",
        "InChIKey": null,
        "Canonical SMILES": "",
        "Molecular Formula": "Si<sub>2</sub>W",
        "Molecular Mass": "",
        "Melting Point": "2065 °C",
        "Density": "9.88 g/cm³"
    }
}