{
    "cas_no": "638-17-5",
    "key_name": "Thialdine",
    "cn_name": null,
    "alternate_name": "4<em>H</em>-1,3,5-Dithiazine, dihydro-2,4,6-trimethyl-, (2α,4α,6α)-;(2α,4α,6α)-Dihydro-2,4,6-trimethyl-4<em>H</em>-1,3,5-dithiazine;Thialdine;2,4,6-Trimethyldihydro-1,3,5-dithiazine;2,4,6-Trimethylperhydro-1,3,5-dithiazine",
    "duplicated_cas_no": "",
    "SMILES": "C[C@H]1N[C@@H](C)S[C@@H](C)S1",
    "meta_data": {
        "InChI": "InChI=1/C6H13NS2/c1-4-7-5(2)9-6(3)8-4/h4-7H,1-3H3/t4-,5+,6-",
        "InChIKey": null,
        "Canonical SMILES": "S1C(SC(NC1C)C)C",
        "Molecular Formula": "C<sub>6</sub>H<sub>13</sub>NS<sub>2</sub>",
        "Molecular Mass": "163.30",
        "Melting Point": "46 °C"
    }
}