{
    "cas_no": "872-93-5",
    "key_name": "3-Methylsulfolane",
    "cn_name": "3-甲基环丁砜;3-甲基环丁砜;",
    "alternate_name": "Thiophene, tetrahydro-3-methyl-, 1,1-dioxide;3-Methylsulfolane;3-Methyltetrahydrothiophene 1,1-dioxide;3-Methyltetramethylene sulfone;3-Methylthiolane 1,1-dioxide;Tetrahydro-3-methylthiophene <em>S</em>,<em>S</em>-dioxide;NSC 77078;3-Methyl-1λ6-thiolane-1,1-dione",
    "duplicated_cas_no": "",
    "SMILES": "O=S1(=O)CC(C)CC1",
    "meta_data": {
        "InChI": "InChI=1S/C5H10O2S/c1-5-2-3-8(6,7)4-5/h5H,2-4H2,1H3",
        "InChIKey": null,
        "Canonical SMILES": "O=S1(=O)CCC(C)C1",
        "Molecular Formula": "C<sub>5</sub>H<sub>10</sub>O<sub>2</sub>S",
        "Molecular Mass": "134.20",
        "Boiling Point": "276 °C",
        "Melting Point": "1 °C",
        "Density": "1.1824 g/cm³ @ Temp: 20 °C"
    }
}