{
    "cas_no": "17477-29-1",
    "key_name": "Chlorodimethylpropylsilane",
    "cn_name": "丙基二甲基氯化硅烷;",
    "alternate_name": "Silane, chlorodimethylpropyl-;Chlorodimethylpropylsilane;Propyl(dimethyl)chlorosilane;Dimethylpropylsilyl chloride;Dimethyl-<em>n</em>-propylchlorosilane",
    "duplicated_cas_no": "",
    "SMILES": "C([Si](C)(C)Cl)CC",
    "meta_data": {
        "InChI": "InChI=1S/C5H13ClSi/c1-4-5-7(2,3)6/h4-5H2,1-3H3",
        "InChIKey": null,
        "Canonical SMILES": "Cl[Si](C)(C)CCC",
        "Molecular Formula": "C<sub>5</sub>H<sub>13</sub>ClSi",
        "Molecular Mass": "136.70",
        "Boiling Point": "113-114 °C",
        "Density": "0.872 g/cm³"
    }
}