{
    "cas_no": "1639-31-2",
    "key_name": "3,4,5-Trimethylbenzenamine",
    "cn_name": null,
    "alternate_name": "Benzenamine, 3,4,5-trimethyl-;Aniline, 3,4,5-trimethyl-;3,4,5-Trimethylbenzenamine;3,4,5-Trimethylaniline;NSC 403297;3,4,5-Trimethylbenzeneamine",
    "duplicated_cas_no": "",
    "SMILES": "CC1=C(C)C=C(N)C=C1C",
    "meta_data": {
        "InChI": "InChI=1S/C9H13N/c1-6-4-9(10)5-7(2)8(6)3/h4-5H,10H2,1-3H3",
        "InChIKey": null,
        "Canonical SMILES": "NC=1C=C(C(=C(C1)C)C)C",
        "Molecular Formula": "C<sub>9</sub>H<sub>13</sub>N",
        "Molecular Mass": "135.21",
        "Boiling Point": "133-135 °C @ Press: 16 Torr",
        "Melting Point": "76-77 °C"
    }
}