{
    "cas_no": "19652-14-3",
    "key_name": "3-(4-Chlorophenyl)-1-phenyl-1<em>H</em>-pyrazol-5-amine",
    "cn_name": null,
    "alternate_name": "1<em>H</em>-Pyrazol-5-amine, 3-(4-chlorophenyl)-1-phenyl-;Pyrazole, 5-amino-3-(<em>p</em>-chlorophenyl)-1-phenyl-;3-(4-Chlorophenyl)-1-phenyl-1<em>H</em>-pyrazol-5-amine",
    "duplicated_cas_no": "",
    "SMILES": "NC1=CC(=NN1C2=CC=CC=C2)C3=CC=C(Cl)C=C3",
    "meta_data": {
        "InChI": "InChI=1S/C15H12ClN3/c16-12-8-6-11(7-9-12)14-10-15(17)19(18-14)13-4-2-1-3-5-13/h1-10H,17H2",
        "InChIKey": null,
        "Canonical SMILES": "ClC=1C=CC(=CC1)C2=NN(C(N)=C2)C=3C=CC=CC3",
        "Molecular Formula": "C<sub>15</sub>H<sub>12</sub>ClN<sub>3</sub>",
        "Molecular Mass": "269.73",
        "Melting Point": "191-192 °C"
    }
}