{
    "cas_no": "1193-03-9",
    "key_name": "4-Piperidinamine, 1-methyl-, hydrochloride (1:2)",
    "cn_name": null,
    "alternate_name": "4-Piperidinamine, 1-methyl-, hydrochloride (1:2);Piperidine, 4-amino-1-methyl-, dihydrochloride;4-Piperidinamine, 1-methyl-, dihydrochloride;4-Amino-1-methylpiperidine dihydrochloride;1-Methylpiperidin-4-amine dihydrochloride",
    "duplicated_cas_no": "",
    "SMILES": "NC1CCN(C)CC1.Cl",
    "meta_data": {
        "InChI": "InChI=1S/C6H14N2.2ClH/c1-8-4-2-6(7)3-5-8;;/h6H,2-5,7H2,1H3;2*1H",
        "InChIKey": null,
        "Canonical SMILES": "Cl.NC1CCN(C)CC1",
        "Molecular Formula": "C<sub>6</sub>H<sub>14</sub>N<sub>2</sub>.2ClH",
        "Molecular Mass": "",
        "Melting Point": "247 °C"
    }
}