{
    "cas_no": "18051-88-2",
    "key_name": "Dichlorodecylmethylsilane",
    "cn_name": "二氯烷基甲基硅烷;",
    "alternate_name": "Silane, dichlorodecylmethyl-;Dichlorodecylmethylsilane;(Decyl)(methyl)dichlorosilane",
    "duplicated_cas_no": "",
    "SMILES": "C(CCCCCCCC)C[Si](C)(Cl)Cl",
    "meta_data": {
        "InChI": "InChI=1S/C11H24Cl2Si/c1-3-4-5-6-7-8-9-10-11-14(2,12)13/h3-11H2,1-2H3",
        "InChIKey": null,
        "Canonical SMILES": "Cl[Si](Cl)(C)CCCCCCCCCC",
        "Molecular Formula": "C<sub>11</sub>H<sub>24</sub>Cl<sub>2</sub>Si",
        "Molecular Mass": "255.30",
        "Boiling Point": "111-114 °C @ Press: 3 Torr",
        "Density": "0.960 g/cm³"
    }
}