{
    "cas_no": "627-32-7",
    "key_name": "3-Iodo-1-propanol",
    "cn_name": "3-碘丙醇;3-碘-1-丙醇;",
    "alternate_name": "1-Propanol, 3-iodo-;3-Iodo-1-propanol;1-Iodo-3-propanol;3-Iodopropanol;1-Hydroxy-3-iodopropane",
    "duplicated_cas_no": "",
    "SMILES": "C(CI)CO",
    "meta_data": {
        "InChI": "InChI=1S/C3H7IO/c4-2-1-3-5/h5H,1-3H2",
        "InChIKey": null,
        "Canonical SMILES": "ICCCO",
        "Molecular Formula": "C<sub>3</sub>H<sub>7</sub>IO",
        "Molecular Mass": "185.99",
        "Boiling Point": "112 °C @ Press: 31 Torr",
        "Density": "2.014 g/cm³ @ Temp: 25 °C"
    }
}