{
    "cas_no": "2415-85-2",
    "key_name": "<em>N</em>-(4-Methylphenyl)-3-oxobutanamide",
    "cn_name": "4\"-甲基乙酰乙酰苯胺;乙酰基乙酰对甲基苯胺;",
    "alternate_name": "Butanamide, <em>N</em>-(4-methylphenyl)-3-oxo-;<em>p</em>-Acetoacetotoluidide;<em>N</em>-(4-Methylphenyl)-3-oxobutanamide;Acetoacet-<em>p</em>-toluidide;4′-Methylacetoacetanilide;Acetoacetic acid <em>p</em>-toluidide;<em>p</em>-Methylacetoacetanilide;NSC 50631;1-(4-Methylphenylamino)buta-1,3-dione;<em>N</em>-(4-Methylphenyl)acetylacetamide;<em>N</em>-(<em>p</em>-Methylphenyl)-2-acetylacetamide;3-Oxo-<em>N</em>-(<em>p</em>-tolyl)butanamide",
    "duplicated_cas_no": "",
    "SMILES": "N(C(CC(C)=O)=O)C1=CC=C(C)C=C1",
    "meta_data": {
        "InChI": "InChI=1S/C11H13NO2/c1-8-3-5-10(6-4-8)12-11(14)7-9(2)13/h3-6H,7H2,1-2H3,(H,12,14)",
        "InChIKey": null,
        "Canonical SMILES": "O=C(NC1=CC=C(C=C1)C)CC(=O)C",
        "Molecular Formula": "C<sub>11</sub>H<sub>13</sub>NO<sub>2</sub>",
        "Molecular Mass": "191.23",
        "Melting Point": "94-95 °C"
    }
}