{
    "cas_no": "95-84-1",
    "key_name": "2-Amino-4-methylphenol",
    "cn_name": "邻氨基对甲苯酚;",
    "alternate_name": "Phenol, 2-amino-4-methyl-;<em>p</em>-Cresol, 2-amino-;2-Amino-4-methylphenol;6-Hydroxy-<em>m</em>-toluidine;2-Amino-<em>p</em>-cresol;2-Hydroxy-5-methylaniline;1-Amino-2-hydroxy-5-methylbenzene;1-Hydroxy-2-amino-4-methylbenzene;5-Methyl-2-hydroxyaniline;4-Methyl-2-aminophenol;3-Amino-4-hydroxytoluene;4-Methyl-<em>o</em>-aminophenol;(2-Hydroxy-5-methylphenyl)amine;NSC 60737;NSC 7630;2-Amino-4-cresol",
    "duplicated_cas_no": "",
    "SMILES": "NC1=C(O)C=CC(C)=C1",
    "meta_data": {
        "InChI": "InChI=1S/C7H9NO/c1-5-2-3-7(9)6(8)4-5/h2-4,9H,8H2,1H3",
        "InChIKey": null,
        "Canonical SMILES": "OC1=CC=C(C=C1N)C",
        "Molecular Formula": "C<sub>7</sub>H<sub>9</sub>NO",
        "Molecular Mass": "123.15",
        "Melting Point": "136 °C"
    }
}