{
    "cas_no": "1626-24-0",
    "key_name": "Chlorotriphenylgermane",
    "cn_name": "三苯基氯化锗;三苯基氯化锗;",
    "alternate_name": "Germane, chlorotriphenyl-;Triphenylgermanium chloride;Chlorotriphenylgermane;Triphenylgermyl chloride;Triphenylchlorogermane;NSC 166299",
    "duplicated_cas_no": "",
    "SMILES": "[Ge](Cl)(C1=CC=CC=C1)(C2=CC=CC=C2)C3=CC=CC=C3",
    "meta_data": {
        "InChI": "InChI=1S/C18H15ClGe/c19-20(16-10-4-1-5-11-16,17-12-6-2-7-13-17)18-14-8-3-9-15-18/h1-15H",
        "InChIKey": null,
        "Canonical SMILES": "Cl[Ge](C=1C=CC=CC1)(C=2C=CC=CC2)C=3C=CC=CC3",
        "Molecular Formula": "C<sub>18</sub>H<sub>15</sub>ClGe",
        "Molecular Mass": "339.40",
        "Boiling Point": "285 °C @ Press: 12 Torr",
        "Melting Point": "117 °C",
        "Density": "1.166 g/cm³ @ Temp: 20 °C"
    }
}