{
    "cas_no": "5586-88-9",
    "key_name": "(4-Chlorophenyl)acetone",
    "cn_name": "4-氯苯基丙酮;对氯苯基丙酮;",
    "alternate_name": "2-Propanone, 1-(4-chlorophenyl)-;2-Propanone, 1-(<em>p</em>-chlorophenyl)-;2-Propanone, (<em>p</em>-chlorophenyl)-;1-(4-Chlorophenyl)-2-propanone;(<em>p</em>-Chlorophenyl)acetone;Methyl <em>p</em>-chlorobenzyl ketone;1-(<em>p</em>-Chlorophenyl)-2-propanone;(4-Chlorophenyl)acetone;<em>p</em>-Chlorophenyl-2-propanone;<em>p</em>-Chlorobenzyl methyl ketone;4-Chlorobenzyl methyl ketone;NSC 22985;1-(4-Chlorophenyl)propan-2-one;1-(4-Chlorophenyl)acetone",
    "duplicated_cas_no": "",
    "SMILES": "C(C(C)=O)C1=CC=C(Cl)C=C1",
    "meta_data": {
        "InChI": "InChI=1S/C9H9ClO/c1-7(11)6-8-2-4-9(10)5-3-8/h2-5H,6H2,1H3",
        "InChIKey": null,
        "Canonical SMILES": "O=C(C)CC1=CC=C(Cl)C=C1",
        "Molecular Formula": "C<sub>9</sub>H<sub>9</sub>ClO",
        "Molecular Mass": "168.62",
        "Boiling Point": "85-86 °C @ Press: 1 Torr",
        "Melting Point": "6-8 °C",
        "Density": "1.1397 g/cm³"
    }
}