{
    "cas_no": "122-84-9",
    "key_name": "4-Methoxyphenylacetone",
    "cn_name": "对甲氧基苯基丙酮;",
    "alternate_name": "2-Propanone, 1-(4-methoxyphenyl)-;2-Propanone, 1-(<em>p</em>-methoxyphenyl)-;2-Propanone, (<em>p</em>-methoxyphenyl)-;1-(4-Methoxyphenyl)-2-propanone;<em>p</em>-Acetonylanisole;Anisketone;Anisyl methyl ketone;1-(<em>p</em>-Methoxyphenyl)-2-propanone;<em>p</em>-Methoxybenzyl methyl ketone;4-Methoxybenzyl methyl ketone;<em>p</em>-Methoxyphenylacetone;<em>p</em>-Anisylacetone;4-Methoxyphenylacetone;1-(<em>p</em>-Anisyl)-2-propanone;4′-Methoxyphenyl-2-propanone;1-(4-Methoxyphenyl)acetone;NSC 22983;NSC 46101;3-(4-Methoxyphenyl)propan-2-one",
    "duplicated_cas_no": "",
    "SMILES": "C(C(C)=O)C1=CC=C(OC)C=C1",
    "meta_data": {
        "InChI": "InChI=1S/C10H12O2/c1-8(11)7-9-3-5-10(12-2)6-4-9/h3-6H,7H2,1-2H3",
        "InChIKey": null,
        "Canonical SMILES": "O=C(C)CC1=CC=C(OC)C=C1",
        "Molecular Formula": "C<sub>10</sub>H<sub>12</sub>O<sub>2</sub>",
        "Molecular Mass": "164.20",
        "Boiling Point": "268 °C",
        "Melting Point": "&lt;-15 °C",
        "Density": "1.0861 g/cm³ @ Temp: 15 °C"
    }
}