{
    "cas_no": "637-69-4",
    "key_name": "4-Methoxystyrene",
    "cn_name": "4-甲氧基苯乙烯;对甲氧基苯乙烯;",
    "alternate_name": "Benzene, 1-ethenyl-4-methoxy-;Anisole, <em>p</em>-vinyl-;1-Ethenyl-4-methoxybenzene;4-Methoxystyrene;<em>p</em>-Vinylanisole;<em>p</em>-Methoxystyrene;<em>p</em>-Anisylethylene;(4-Methoxyphenyl)ethylene;1-Methoxy-4-vinylbenzene;(4-Methoxyphenyl)ethene;NSC 408326;NSC 42171;4-Methoxyvinylbenzene;<em>p</em>-Methoxylstyrene;4-Methoxystryrene;4-Methoxystrene;4-Vinylanisole;4-Methoxy-1-ethenylbenzene",
    "duplicated_cas_no": "",
    "SMILES": "C(=C)C1=CC=C(OC)C=C1",
    "meta_data": {
        "InChI": "InChI=1S/C9H10O/c1-3-8-4-6-9(10-2)7-5-8/h3-7H,1H2,2H3",
        "InChIKey": null,
        "Canonical SMILES": "O(C1=CC=C(C=C)C=C1)C",
        "Molecular Formula": "C<sub>9</sub>H<sub>10</sub>O",
        "Molecular Mass": "134.18",
        "Boiling Point": "205 °C",
        "Melting Point": "2 °C",
        "Density": "1.001 g/cm³ @ Temp: 18 °C"
    }
}