{
    "cas_no": "23513-14-6",
    "key_name": "[6]-Gingerol",
    "cn_name": "6-姜酚;没食子酚儿茶素;(5S)-5-羟基-1-(4-羟基-3-甲氧基苯基)癸-3-酮;",
    "alternate_name": "3-Decanone, 5-hydroxy-1-(4-hydroxy-3-methoxyphenyl)-, (5<em>S</em>)-;3-Decanone, 5-hydroxy-1-(4-hydroxy-3-methoxyphenyl)-, (<em>S</em>)-(+)-;3-Decanone, 5-hydroxy-1-(4-hydroxy-3-methoxyphenyl)-, (<em>S</em>)-;(5<em>S</em>)-5-Hydroxy-1-(4-hydroxy-3-methoxyphenyl)-3-decanone;(+)-[6]-Gingerol;[6]-Gingerol;(+)-5-Hydroxy-1-(4-hydroxy-3-methoxyphenyl)-3-decanone;(<em>S</em>)-(+)-[6]Gingerol;(<em>S</em>)-[6]Gingerol;(5<em>S</em>)-[6]-Gingerol;(5S)-5-Hydroxy-1-(4-hydroxy-3-methoxyphenyl)decan-3-one;3-Decanone 5-hydroxy-1-(4-hydroxy-3-methoxyphenyl)-, (5S)-",
    "duplicated_cas_no": "1391-73-7",
    "SMILES": "C(CC(C[C@H](CCCCC)O)=O)C1=CC(OC)=C(O)C=C1",
    "meta_data": {
        "InChI": "InChI=1S/C17H26O4/c1-3-4-5-6-14(18)12-15(19)9-7-13-8-10-16(20)17(11-13)21-2/h8,10-11,14,18,20H,3-7,9,12H2,1-2H3/t14-/m0/s1",
        "InChIKey": null,
        "Canonical SMILES": "O=C(CCC1=CC=C(O)C(OC)=C1)CC(O)CCCCC",
        "Molecular Formula": "C<sub>17</sub>H<sub>26</sub>O<sub>4</sub>",
        "Molecular Mass": "294.39",
        "Melting Point": "31 °C"
    }
}