{
    "cas_no": "1010396-29-8",
    "key_name": "(2<em>S</em>)-3-(4-Chloro-3-fluorophenoxy)-<em>N</em>-[4-cyano-3-(trifluoromethyl)phenyl]-2-hydroxy-2-methylpropanamide",
    "cn_name": null,
    "alternate_name": "Propanamide, 3-(4-chloro-3-fluorophenoxy)-<em>N</em>-[4-cyano-3-(trifluoromethyl)phenyl]-2-hydroxy-2-methyl-, (2<em>S</em>)-;(2<em>S</em>)-3-(4-Chloro-3-fluorophenoxy)-<em>N</em>-[4-cyano-3-(trifluoromethyl)phenyl]-2-hydroxy-2-methylpropanamide;S 23;S 23 (contraceptive);(<em>S</em>)-3-(4-Chloro-3-fluorophenoxy)-<em>N</em>-(4-cyano-3-(trifluoromethyl)phenyl)-2-hydroxy-2-methylpropanamide",
    "duplicated_cas_no": "",
    "SMILES": "C(F)(F)(F)C1=C(C#N)C=CC(NC([C@@](COC2=CC(F)=C(Cl)C=C2)(C)O)=O)=C1",
    "meta_data": {
        "InChI": "InChI=1S/C18H13ClF4N2O3/c1-17(27,9-28-12-4-5-14(19)15(20)7-12)16(26)25-11-3-2-10(8-24)13(6-11)18(21,22)23/h2-7,27H,9H2,1H3,(H,25,26)/t17-/m0/s1",
        "InChIKey": null,
        "Canonical SMILES": "N#CC1=CC=C(C=C1C(F)(F)F)NC(=O)C(O)(C)COC2=CC=C(Cl)C(F)=C2",
        "Molecular Formula": "C<sub>18</sub>H<sub>13</sub>ClF<sub>4</sub>N<sub>2</sub>O<sub>3</sub>",
        "Molecular Mass": "416.75",
        "Melting Point": "119-121 °C"
    }
}