{
    "cas_no": "56375-79-2",
    "key_name": "Methyltributylammonium chloride",
    "cn_name": "甲基三丁基氯化铵;三丁基甲基氯化铵;",
    "alternate_name": "1-Butanaminium, <em>N</em>,<em>N</em>-dibutyl-<em>N</em>-methyl-, chloride (1:1);1-Butanaminium, <em>N</em>,<em>N</em>-dibutyl-<em>N</em>-methyl-, chloride;Methyltributylammonium chloride;Tributylmethylammonium chloride;Aliquat 175;<em>N</em>-Methyl-<em>N</em>,<em>N</em>,<em>N</em>-tributylammonium chloride",
    "duplicated_cas_no": "",
    "SMILES": "[N+](CCCC)(CCCC)(CCCC)C.[Cl-]",
    "meta_data": {
        "InChI": "InChI=1S/C13H30N.ClH/c1-5-8-11-14(4,12-9-6-2)13-10-7-3;/h5-13H2,1-4H3;1H/q+1;/p-1",
        "InChIKey": null,
        "Canonical SMILES": "[Cl-].CCCC[N+](C)(CCCC)CCCC",
        "Molecular Formula": "C<sub>13</sub>H<sub>30</sub>N.Cl",
        "Molecular Mass": "",
        "Melting Point": "108-110 °C"
    }
}