{
    "cas_no": "5746-90-7",
    "key_name": "3-Methylglutaconic acid",
    "cn_name": null,
    "alternate_name": "2-Pentenedioic acid, 3-methyl-;Glutaconic acid, 3-methyl-;3-Methyl-2-pentenedioic acid;β-Methylglutaconic acid;3-Methylglutaconic acid;NSC 249232",
    "duplicated_cas_no": "",
    "SMILES": "C(C(=CC(O)=O)C)C(O)=O",
    "meta_data": {
        "InChI": "InChI=1S/C6H8O4/c1-4(2-5(7)8)3-6(9)10/h2H,3H2,1H3,(H,7,8)(H,9,10)",
        "InChIKey": null,
        "Canonical SMILES": "O=C(O)C=C(C)CC(=O)O",
        "Molecular Formula": "C<sub>6</sub>H<sub>8</sub>O<sub>4</sub>",
        "Molecular Mass": "144.13",
        "Melting Point": "115 °C"
    }
}