{
    "cas_no": "33420-52-9",
    "key_name": "2,2-Difluoro-1-propanol",
    "cn_name": "2,2-二氟丙醇;",
    "alternate_name": "1-Propanol, 2,2-difluoro-;2,2-Difluoro-1-propanol;2,2-Difluoropropanol",
    "duplicated_cas_no": "",
    "SMILES": "C(CO)(C)(F)F",
    "meta_data": {
        "InChI": "InChI=1S/C3H6F2O/c1-3(4,5)2-6/h6H,2H2,1H3",
        "InChIKey": null,
        "Canonical SMILES": "FC(F)(C)CO",
        "Molecular Formula": "C<sub>3</sub>H<sub>6</sub>F<sub>2</sub>O",
        "Molecular Mass": "96.08",
        "Boiling Point": "101-102 °C @ Press: 760 Torr",
        "Density": "1.1855 g/cm³ @ Temp: 20 °C"
    }
}