{
    "cas_no": "6628-00-8",
    "key_name": "<em>N</em>-2-Propen-1-ylcyclohexanamine",
    "cn_name": null,
    "alternate_name": "Cyclohexanamine, <em>N</em>-2-propen-1-yl-;Cyclohexanamine, <em>N</em>-2-propenyl-;<em>N</em>-2-Propen-1-ylcyclohexanamine;<em>N</em>-Allylcyclohexylamine;Allylcyclohexylamine;<em>N</em>-Cyclohexylallylamine;<em>N</em>-Allylcyclohexanamine;<em>N</em>-Allyl-<em>N</em>-cyclohexylamine;(Allylamino)cyclohexane;Cyclohexyl(2-propenyl)amine;NSC 60272",
    "duplicated_cas_no": "",
    "SMILES": "N(CC=C)C1CCCCC1",
    "meta_data": {
        "InChI": "InChI=1S/C9H17N/c1-2-8-10-9-6-4-3-5-7-9/h2,9-10H,1,3-8H2",
        "InChIKey": null,
        "Canonical SMILES": "C=CCNC1CCCCC1",
        "Molecular Formula": "C<sub>9</sub>H<sub>17</sub>N",
        "Molecular Mass": "139.24",
        "Boiling Point": "36-41 °C @ Press: 3.3 Torr"
    }
}