{
    "cas_no": "13287-49-5",
    "key_name": "(4-Nitrophenyl)methyl thiocyanate",
    "cn_name": null,
    "alternate_name": "Thiocyanic acid, (4-nitrophenyl)methyl ester;Thiocyanic acid, <em>p</em>-nitrobenzyl ester;Toluene, <em>p</em>-nitro-α-thiocyanato-;(4-Nitrophenyl)methyl thiocyanate;4-Nitrobenzyl thiocyanate;<em>p</em>-Nitrobenzyl thiocyanate;NSC 56364;1-Nitro-4-(thiocyanatomethyl)benzene",
    "duplicated_cas_no": "",
    "SMILES": "N(=O)(=O)C1=CC=C(CSC#N)C=C1",
    "meta_data": {
        "InChI": "InChI=1S/C8H6N2O2S/c9-6-13-5-7-1-3-8(4-2-7)10(11)12/h1-4H,5H2",
        "InChIKey": null,
        "Canonical SMILES": "N#CSCC1=CC=C(C=C1)N(=O)=O",
        "Molecular Formula": "C<sub>8</sub>H<sub>6</sub>N<sub>2</sub>O<sub>2</sub>S",
        "Molecular Mass": "194.21",
        "Melting Point": "85-86 °C"
    }
}