{
    "cas_no": "55453-87-7",
    "key_name": "Isoxepac",
    "cn_name": "伊索克酸;11-氧代-6,11-二氢二苯并[b,e]氧杂卓-2-乙酸;",
    "alternate_name": "Dibenz[<em>b</em>,<em>e</em>]oxepin-2-acetic acid, 6,11-dihydro-11-oxo-;6,11-Dihydro-11-oxodibenz[<em>b</em>,<em>e</em>]oxepin-2-acetic acid;Isoxepac;HP 549;11-Oxo-6,11-dihydrodibenz[<em>b</em>,<em>e</em>]oxepin-2-acetic acid;Artil;P 720549;NSC 300907;11-Oxo-6,11-dihydrodibenzo[<em>b</em>,<em>e</em>]oxepin-2-acetic acid;2-(11-Oxo-6<em>H</em>-benzo[<em>c</em>][1]benzoxepin-2-yl)acetic acid",
    "duplicated_cas_no": "",
    "SMILES": "O=C1C=2C(OCC=3C1=CC=CC3)=CC=C(CC(O)=O)C2",
    "meta_data": {
        "InChI": "InChI=1S/C16H12O4/c17-15(18)8-10-5-6-14-13(7-10)16(19)12-4-2-1-3-11(12)9-20-14/h1-7H,8-9H2,(H,17,18)",
        "InChIKey": null,
        "Canonical SMILES": "O=C(O)CC1=CC=C2OCC=3C=CC=CC3C(=O)C2=C1",
        "Molecular Formula": "C<sub>16</sub>H<sub>12</sub>O<sub>4</sub>",
        "Molecular Mass": "268.26",
        "Melting Point": "131-132.5 °C",
        "Density": "1.39 g/cm³"
    }
}