{
    "cas_no": "91674-26-9",
    "key_name": "Glucosamine 6-sulfate",
    "cn_name": "硫酸氨基葡萄糖;",
    "alternate_name": "<span class=\"text-smallcaps\">D</span>-Glucose, 2-amino-2-deoxy-, 6-(hydrogen sulfate);<span class=\"text-smallcaps\">D</span>-Glucose, 2-amino-2-deoxy-, 6-sulfate;Glucosamine 6-sulfate;<span class=\"text-smallcaps\">D</span>-Glucosamine-6-sulfate",
    "duplicated_cas_no": "",
    "SMILES": "[C@H]([C@@H]([C@H](C=O)N)O)([C@@H](COS(=O)(=O)O)O)O",
    "meta_data": {
        "InChI": "InChI=1S/C6H13NO8S/c7-3(1-8)5(10)6(11)4(9)2-15-16(12,13)14/h1,3-6,9-11H,2,7H2,(H,12,13,14)/t3-,4+,5+,6+/m0/s1",
        "InChIKey": null,
        "Canonical SMILES": "O=CC(N)C(O)C(O)C(O)COS(=O)(=O)O",
        "Molecular Formula": "C<sub>6</sub>H<sub>13</sub>NO<sub>8</sub>S",
        "Molecular Mass": "259.23",
        "Melting Point": "160-162 °C"
    }
}