{
    "cas_no": "2039-76-1",
    "key_name": "1-(3-Phenanthrenyl)ethanone",
    "cn_name": "3-乙酰菲;3-乙酰基菲;",
    "alternate_name": "Ethanone, 1-(3-phenanthrenyl)-;Ketone, methyl 3-phenanthryl;1-(3-Phenanthrenyl)ethanone;3-Acetylphenanthrene;Methyl 3-phenanthryl ketone;NSC 3192;1-(3-Phenanthryl)ethanone;1-(Phenanthren-3-yl)ethanone",
    "duplicated_cas_no": "",
    "SMILES": "C(C)(=O)C1=CC2=C3C(=CC=C2C=C1)C=CC=C3",
    "meta_data": {
        "InChI": "InChI=1S/C16H12O/c1-11(17)14-9-8-13-7-6-12-4-2-3-5-15(12)16(13)10-14/h2-10H,1H3",
        "InChIKey": null,
        "Canonical SMILES": "O=C(C=1C=CC=2C=CC=3C=CC=CC3C2C1)C",
        "Molecular Formula": "C<sub>16</sub>H<sub>12</sub>O",
        "Molecular Mass": "220.27",
        "Boiling Point": "172-181 °C @ Press: 0.9 Torr",
        "Melting Point": "87-88 °C"
    }
}