{
    "cas_no": "163451-81-8",
    "key_name": "Teriflunomide",
    "cn_name": null,
    "alternate_name": "2-Butenamide, 2-cyano-3-hydroxy-<em>N</em>-[4-(trifluoromethyl)phenyl]-, (2<em>Z</em>)-;2-Butenamide, 2-cyano-3-hydroxy-<em>N</em>-[4-(trifluoromethyl)phenyl]-, (<em>Z</em>)-;(2<em>Z</em>)-2-Cyano-3-hydroxy-<em>N</em>-[4-(trifluoromethyl)phenyl]-2-butenamide;A 77-1726;A 1726;Flucyamide;SU 20;Teriflunomide;HMR 1726;A 771726;Aubagio;Femorix",
    "duplicated_cas_no": "",
    "SMILES": "C(F)(F)(F)C1=CC=C(NC(/C(=C(/C)\\O)/C#N)=O)C=C1",
    "meta_data": {
        "InChI": "InChI=1S/C12H9F3N2O2/c1-7(18)10(6-16)11(19)17-9-4-2-8(3-5-9)12(13,14)15/h2-5,18H,1H3,(H,17,19)/b10-7-",
        "InChIKey": null,
        "Canonical SMILES": "N#CC(C(=O)NC1=CC=C(C=C1)C(F)(F)F)=C(O)C",
        "Molecular Formula": "C<sub>12</sub>H<sub>9</sub>F<sub>3</sub>N<sub>2</sub>O<sub>2</sub>",
        "Molecular Mass": "270.21",
        "Melting Point": "230-232 °C"
    }
}