{
    "cas_no": "63024-77-1",
    "key_name": "3-(Chloromethyl)benzoyl chloride",
    "cn_name": "3-(氯甲基)苯甲酰氯;",
    "alternate_name": "Benzoyl chloride, 3-(chloromethyl)-;<em>m</em>-Toluoyl chloride, α-chloro-;3-(Chloromethyl)benzoyl chloride;<em>m</em>-(Chloromethyl)benzoyl chloride;3-Chloromethylbenzoyl chloride",
    "duplicated_cas_no": "",
    "SMILES": "C(Cl)(=O)C1=CC(CCl)=CC=C1",
    "meta_data": {
        "InChI": "InChI=1S/C8H6Cl2O/c9-5-6-2-1-3-7(4-6)8(10)11/h1-4H,5H2",
        "InChIKey": null,
        "Canonical SMILES": "O=C(Cl)C1=CC=CC(=C1)CCl",
        "Molecular Formula": "C<sub>8</sub>H<sub>6</sub>Cl<sub>2</sub>O",
        "Molecular Mass": "189.04",
        "Boiling Point": "149-150 °C @ Press: 20 Torr"
    }
}