{
    "cas_no": "5166-67-6",
    "key_name": "Ethyl 1-methyl-3-piperidinecarboxylate",
    "cn_name": "1-甲基-3-哌啶甲酸乙酯;",
    "alternate_name": "3-Piperidinecarboxylic acid, 1-methyl-, ethyl ester;Nipecotic acid, 1-methyl-, ethyl ester;Ethyl 1-methyl-3-piperidinecarboxylate;Ethyl 1-methylnipecotate;Ethyl <em>N</em>-methylnipecotate;NSC 64739",
    "duplicated_cas_no": "",
    "SMILES": "C(OCC)(=O)C1CN(C)CCC1",
    "meta_data": {
        "InChI": "InChI=1S/C9H17NO2/c1-3-12-9(11)8-5-4-6-10(2)7-8/h8H,3-7H2,1-2H3",
        "InChIKey": null,
        "Canonical SMILES": "O=C(OCC)C1CN(C)CCC1",
        "Molecular Formula": "C<sub>9</sub>H<sub>17</sub>NO<sub>2</sub>",
        "Molecular Mass": "171.24",
        "Boiling Point": "105-107 °C @ Press: 2.5 Torr",
        "Density": "0.981 g/cm³ @ Temp: 20 °C"
    }
}