{
    "cas_no": "1732-13-4",
    "key_name": "1,2,3,6,7,8-Hexahydropyrene",
    "cn_name": "1,2,3,6,7,8-六氢芘;1,2,3,6,7,8-六氢芘;",
    "alternate_name": "Pyrene, 1,2,3,6,7,8-hexahydro-;1,2,3,6,7,8-Hexahydropyrene;NSC 60599",
    "duplicated_cas_no": "",
    "SMILES": "C12=C3C4=CC=C1CCCC2=CC=C3CCC4",
    "meta_data": {
        "InChI": "InChI=1S/C16H16/c1-3-11-7-9-13-5-2-6-14-10-8-12(4-1)15(11)16(13)14/h7-10H,1-6H2",
        "InChIKey": null,
        "Canonical SMILES": "C=1C=C2C=3C(=CC=C4C3C1CCC4)CCC2",
        "Molecular Formula": "C<sub>16</sub>H<sub>16</sub>",
        "Molecular Mass": "208.30",
        "Melting Point": "133 °C"
    }
}