{
    "cas_no": "95-23-8",
    "key_name": "5-Amino-2-benzimidazolinone",
    "cn_name": "5-氨基苯并咪唑酮;",
    "alternate_name": "2<em>H</em>-Benzimidazol-2-one, 5-amino-1,3-dihydro-;2-Benzimidazolinone, 5-amino-;5-Amino-1,3-dihydro-2<em>H</em>-benzimidazol-2-one;5-Amino-2(3<em>H</em>)-benzimidazolone;5-Amino-2-benzimidazolinone;5-Amino-2-hydroxybenzimidazole;2-Hydroxy-5-aminobenzimidazole;5-Amino-2-oxo-2,3-dihydro-1<em>H</em>-benzimidazole;5-Amino-1,3-dihydrobenzimidazol-2-one;5-Amino-1<em>H</em>-benzo[<em>d</em>]imidazol-2(3<em>H</em>)-one;5-Amino-1<em>H</em>-benzimidazol-2(3<em>H</em>)-one;2-Oxo-2,3-dihydro-1<em>H</em>-benzimidazol-5-amine;5-Amino-1,3-dihydro-2<em>H</em>-benzo[<em>d</em>]imidazol-2-one",
    "duplicated_cas_no": "40352-51-0",
    "SMILES": "O=C1NC=2C(N1)=CC(N)=CC2",
    "meta_data": {
        "InChI": "InChI=1S/C7H7N3O/c8-4-1-2-5-6(3-4)10-7(11)9-5/h1-3H,8H2,(H2,9,10,11)",
        "InChIKey": null,
        "Canonical SMILES": "O=C1NC2=CC=C(N)C=C2N1",
        "Molecular Formula": "C<sub>7</sub>H<sub>7</sub>N<sub>3</sub>O",
        "Molecular Mass": "149.15",
        "Melting Point": "&gt;300 °C"
    }
}