{
    "cas_no": "1177-71-5",
    "key_name": "Laxogenin",
    "cn_name": null,
    "alternate_name": "Spirostan-6-one, 3-hydroxy-, (3β,5α,25<em>R</em>)-;5α-Spirostan-6-one, 3β-hydroxy-;Laxogenin;Spiro[8<em>H</em>-naphth[2′,1′:4,5]indeno[2,1-<em>b</em>]furan-8,2′-[2<em>H</em>]pyran], spirostan-6-one deriv.;(3β,5α,25<em>R</em>)-3-Hydroxyspirostan-6-one;Laxogenine;6-Oxotigogenin;(25R)-3β-Hydroxy-5α-spirostan-6-one",
    "duplicated_cas_no": "20470-24-0",
    "SMILES": "C[C@@H]1[C@]2(O[C@@]3([C@]1([C@]4(C)[C@@](C3)([C@]5([C@](CC4)([C@]6(C)[C@@](C(=O)C5)(C[C@@H](O)CC6)[H])[H])[H])[H])[H])[H])CC[C@@H](C)CO2",
    "meta_data": {
        "InChI": "InChI=1S/C27H42O4/c1-15-5-10-27(30-14-15)16(2)24-23(31-27)13-20-18-12-22(29)21-11-17(28)6-8-25(21,3)19(18)7-9-26(20,24)4/h15-21,23-24,28H,5-14H2,1-4H3/t15-,16+,17+,18-,19+,20+,21-,23+,24+,25-,26+,27-/m1/s1",
        "InChIKey": null,
        "Canonical SMILES": "O=C1CC2C(CCC3(C)C2CC4OC5(OCC(C)CC5)C(C)C43)C6(C)CCC(O)CC16",
        "Molecular Formula": "C<sub>27</sub>H<sub>42</sub>O<sub>4</sub>",
        "Molecular Mass": "430.62",
        "Melting Point": "210-212 °C"
    }
}