{
    "cas_no": "374-98-1",
    "key_name": "1,1,1,2,2,3,3-Heptafluoro-4-iodobutane",
    "cn_name": "2,2,3,3,4,4,4-七氟-1-碘丁烷;",
    "alternate_name": "Butane, 1,1,1,2,2,3,3-heptafluoro-4-iodo-;1,1,1,2,2,3,3-Heptafluoro-4-iodobutane;2,2,3,3,4,4,4-Heptafluoro-1-iodobutane;1-Iodo-2,2,3,3,4,4,4-heptafluorobutane",
    "duplicated_cas_no": "",
    "SMILES": "C(C(CI)(F)F)(C(F)(F)F)(F)F",
    "meta_data": {
        "InChI": "InChI=1S/C4H2F7I/c5-2(6,1-12)3(7,8)4(9,10)11/h1H2",
        "InChIKey": null,
        "Canonical SMILES": "FC(F)(F)C(F)(F)C(F)(F)CI",
        "Molecular Formula": "C<sub>4</sub>H<sub>2</sub>F<sub>7</sub>I",
        "Molecular Mass": "309.95",
        "Boiling Point": "92 °C @ Press: 760 Torr",
        "Density": "2.019 g/cm³ @ Temp: 25 °C"
    }
}