{
    "cas_no": "53597-27-6",
    "key_name": "Fendosal",
    "cn_name": "芬度柳;5-(4,5-二氢-2-苯基-3H-苯并[e]吲哚-3-基)水杨酸;",
    "alternate_name": "Benzoic acid, 5-(4,5-dihydro-2-phenyl-3<em>H</em>-benz[<em>e</em>]indol-3-yl)-2-hydroxy-;3<em>H</em>-Benz[<em>e</em>]indole, benzoic acid deriv.;5-(4,5-Dihydro-2-phenyl-3<em>H</em>-benz[<em>e</em>]indol-3-yl)-2-hydroxybenzoic acid;3-(3-Carboxy-4-hydroxyphenyl)-4,5-dihydro-2-phenylbenz[<em>e</em>]indole;3-(3-Carboxy-4-hydroxyphenyl)-2-phenyl-4,5-dihydro-3<em>H</em>-benz[<em>e</em>]indole;Fendosal;Alnovin;P 71-0129;HP 129;NSC 351522;5-(4,5-Dihydro-2-phenyl-3<em>H</em>-benz[<em>e</em>]indol-3-yl)salicylic acid",
    "duplicated_cas_no": "",
    "SMILES": "C(O)(=O)C=1C=C(N2C3=C(C=C2C4=CC=CC=C4)C=5C(CC3)=CC=CC5)C=CC1O",
    "meta_data": {
        "InChI": "InChI=1S/C25H19NO3/c27-24-13-11-18(14-21(24)25(28)29)26-22-12-10-16-6-4-5-9-19(16)20(22)15-23(26)17-7-2-1-3-8-17/h1-9,11,13-15,27H,10,12H2,(H,28,29)",
        "InChIKey": null,
        "Canonical SMILES": "O=C(O)C1=CC(=CC=C1O)N2C(=CC=3C=4C=CC=CC4CCC32)C=5C=CC=CC5",
        "Molecular Formula": "C<sub>25</sub>H<sub>19</sub>NO<sub>3</sub>",
        "Molecular Mass": "381.42",
        "Melting Point": "223-225 °C (decomp)"
    }
}