{
    "cas_no": "93-62-9",
    "key_name": "(2-Hydroxyethyl)iminodiacetic acid",
    "cn_name": "N-(2-羟乙基)亚氨基二乙酸;(2-羟乙基)替亚胺二乙酸;N-(羧甲基)-N-(2-羟乙基)甘氨酸;N-羟乙基亚胺二乙酸;",
    "alternate_name": "Glycine, <em>N</em>-(carboxymethyl)-<em>N</em>-(2-hydroxyethyl)-;Acetic acid, [(2-hydroxyethyl)imino]di-;<em>N</em>-(Carboxymethyl)-<em>N</em>-(2-hydroxyethyl)glycine;<em>N</em>-(2-Hydroxyethyl)iminodiacetic acid;[(β-Hydroxyethyl)imino]diacetic acid;(2-Hydroxyethyl)iminodiacetic acid;HEIDA;<em>N</em>-(β-Hydroxyethyl)iminodiacetic acid;Ethanolamine-<em>N</em>,<em>N</em>-diacetic acid;HIMDA;NSC 18474;Chelest EA;Ethanoldiglycine;HIDA;Ethanoldiglycinic acid;2-[(Carboxymethyl)(2-hydroxyethyl)amino]acetic acid;2-[Carboxymethyl(2-hydroxyethyl)amino]acetic acid",
    "duplicated_cas_no": "",
    "SMILES": "N(CC(O)=O)(CC(O)=O)CCO",
    "meta_data": {
        "InChI": "InChI=1S/C6H11NO5/c8-2-1-7(3-5(9)10)4-6(11)12/h8H,1-4H2,(H,9,10)(H,11,12)",
        "InChIKey": null,
        "Canonical SMILES": "O=C(O)CN(CC(=O)O)CCO",
        "Molecular Formula": "C<sub>6</sub>H<sub>11</sub>NO<sub>5</sub>",
        "Molecular Mass": "177.16",
        "Melting Point": "170-172 °C"
    }
}