{
    "cas_no": "8006-39-1",
    "key_name": "Terpinol",
    "cn_name": null,
    "alternate_name": "Terpinol",
    "duplicated_cas_no": "",
    "SMILES": "",
    "meta_data": {
        "InChI": "",
        "InChIKey": null,
        "Canonical SMILES": "",
        "Molecular Formula": "Unspecified",
        "Molecular Mass": "",
        "Melting Point": "105.0 °C"
    }
}