{
    "uri": "substance/pt/8006391",
    "rn": "8006-39-1",
    "name": "Terpinol",
    "images": [],
    "inchi": "",
    "inchiKey": "",
    "smile": "",
    "canonicalSmile": "",
    "molecularFormula": "Unspecified",
    "molecularMass": "",
    "experimentalProperties": [
        {
            "name": "Melting Point",
            "property": "105.0 °C",
            "sourceNumber": 1
        }
    ],
    "propertyCitations": [
        {
            "docUri": "document/pt/document/22966903",
            "sourceNumber": 1,
            "source": "Schoorl, N.; Natuurwetenschappelijk Tijdschrift (Ghent), (1932), 14, 35-40, CAplus"
        }
    ],
    "synonyms": [
        "Terpinol"
    ],
    "replacedRns": [],
    "hasMolfile": false,
    "source": "https://commonchemistry.cas.org/detail?cas_rn=8006-39-1"
}