{
    "cas_no": "43111-32-6",
    "key_name": "2-(3-Chlorophenoxy)acetonitrile",
    "cn_name": "3-氯苯氧基乙腈;",
    "alternate_name": "Acetonitrile, 2-(3-chlorophenoxy)-;Acetonitrile, (3-chlorophenoxy)-;Acetonitrile, (<em>m</em>-chlorophenoxy)-;2-(3-Chlorophenoxy)acetonitrile;3-Chlorophenoxyacetonitrile;(<em>m</em>-Chlorophenoxy)acetonitrile",
    "duplicated_cas_no": "",
    "SMILES": "O(CC#N)C1=CC(Cl)=CC=C1",
    "meta_data": {
        "InChI": "InChI=1S/C8H6ClNO/c9-7-2-1-3-8(6-7)11-5-4-10/h1-3,6H,5H2",
        "InChIKey": null,
        "Canonical SMILES": "N#CCOC=1C=CC=C(Cl)C1",
        "Molecular Formula": "C<sub>8</sub>H<sub>6</sub>ClNO",
        "Molecular Mass": "167.59",
        "Boiling Point": "89 °C @ Press: 0.2 Torr"
    }
}