{
    "cas_no": "365996-05-0",
    "key_name": "1,1-Dimethylethyl 2-amino-6,7-dihydrothiazolo[5,4-<em>c</em>]pyridine-5(4<em>H</em>)-carboxylate",
    "cn_name": null,
    "alternate_name": "Thiazolo[5,4-<em>c</em>]pyridine-5(4<em>H</em>)-carboxylic acid, 2-amino-6,7-dihydro-, 1,1-dimethylethyl ester;1,1-Dimethylethyl 2-amino-6,7-dihydrothiazolo[5,4-<em>c</em>]pyridine-5(4<em>H</em>)-carboxylate;2-Amino-6,7-dihydro-4<em>H</em>-thiazolo[5,4-<em>c</em>]pyridine-5-carboxylic acid tert-butyl ester;2-Amino-4,5,6,7-tetrahydrothiazolo[5,4-<em>c</em>]pyridine-5-carboxylic acid tert-butyl ester;<em>tert</em>-Butyl 2-amino-6,7-dihydrothiazolo[5,4-<em>c</em>]pyridine-5-(4<em>H</em>)-carboxylate",
    "duplicated_cas_no": "",
    "SMILES": "C(OC(C)(C)C)(=O)N1CC2=C(CC1)N=C(N)S2",
    "meta_data": {
        "InChI": "InChI=1S/C11H17N3O2S/c1-11(2,3)16-10(15)14-5-4-7-8(6-14)17-9(12)13-7/h4-6H2,1-3H3,(H2,12,13)",
        "InChIKey": null,
        "Canonical SMILES": "O=C(OC(C)(C)C)N1CC=2SC(=NC2CC1)N",
        "Molecular Formula": "C<sub>11</sub>H<sub>17</sub>N<sub>3</sub>O<sub>2</sub>S",
        "Molecular Mass": "255.34",
        "Melting Point": "91-94 °C"
    }
}