{
    "cas_no": "752-56-7",
    "key_name": "Hibon",
    "cn_name": "核黄素四丁酸酯;核黄素四丁酸酯;核黄素四丁酯;维脉宁;四丁酸核糖黄素酯;四丁酸核黄素酯;",
    "alternate_name": "Riboflavin, 2′,3′,4′,5′-tetrabutanoate;Riboflavine, 2′,3′,4′,5′-tetrabutyrate;Benzo[<em>g</em>]pteridine, riboflavin deriv.;Riboflavine tetrabutyrate;Riboflavin tetrabutyrate;Vitamin B<sub>2</sub> tetrabutyrate;Vitamin B<sub>2</sub> 2′,3′,4′,5′-tetrabutyrate;Riboflavin-2′,3′,4′,5′-tetrabutyrate;Hibon;Tetra-<em>O</em>-butyrylriboflavin;Ribolact;Lacflavin;Wakaflavin L;Eyekas;Bituvitan;Viras;Riboflavin tetrabutylate",
    "duplicated_cas_no": "47862-83-9;47862-85-1;1195476-26-6",
    "SMILES": "C([C@@H]([C@@H]([C@@H](COC(CCC)=O)OC(CCC)=O)OC(CCC)=O)OC(CCC)=O)N1C=2C(N=C3C1=NC(=O)NC3=O)=CC(C)=C(C)C2",
    "meta_data": {
        "InChI": "InChI=1S/C33H44N4O10/c1-7-11-25(38)44-18-24(46-27(40)13-9-3)30(47-28(41)14-10-4)23(45-26(39)12-8-2)17-37-22-16-20(6)19(5)15-21(22)34-29-31(37)35-33(43)36-32(29)42/h15-16,23-24,30H,7-14,17-18H2,1-6H3,(H,36,42,43)/t23-,24+,30-/m0/s1",
        "InChIKey": null,
        "Canonical SMILES": "O=C1N=C2C(=NC=3C=C(C(=CC3N2CC(OC(=O)CCC)C(OC(=O)CCC)C(OC(=O)CCC)COC(=O)CCC)C)C)C(=O)N1",
        "Molecular Formula": "C<sub>33</sub>H<sub>44</sub>N<sub>4</sub>O<sub>10</sub>",
        "Molecular Mass": "656.72",
        "Melting Point": "145-147 °C",
        "Density": "1.250 g/cm³"
    }
}