{
    "cas_no": "60811-23-6",
    "key_name": "3-Chloro-4-fluorobenzenethiol",
    "cn_name": "3-氯-4氟硫酚;",
    "alternate_name": "Benzenethiol, 3-chloro-4-fluoro-;3-Chloro-4-fluorobenzenethiol;3-Chloro-4-fluorothiophenol;3-Chloro-4-fluorobenzene-1-thiol",
    "duplicated_cas_no": "",
    "SMILES": "ClC1=C(F)C=CC(S)=C1",
    "meta_data": {
        "InChI": "InChI=1S/C6H4ClFS/c7-5-3-4(9)1-2-6(5)8/h1-3,9H",
        "InChIKey": null,
        "Canonical SMILES": "FC1=CC=C(S)C=C1Cl",
        "Molecular Formula": "C<sub>6</sub>H<sub>4</sub>ClFS",
        "Molecular Mass": "162.61",
        "Boiling Point": "91-92 °C @ Press: 20 Torr"
    }
}