{
    "cas_no": "226954-04-7",
    "key_name": "<em>N</em>-Ethyl-7,8-dihydro-7-methyl-8-oxo-2-phenyl-<em>N</em>-(phenylmethyl)-9<em>H</em>-purine-9-acetamide",
    "cn_name": null,
    "alternate_name": "9<em>H</em>-Purine-9-acetamide, <em>N</em>-ethyl-7,8-dihydro-7-methyl-8-oxo-2-phenyl-<em>N</em>-(phenylmethyl)-;<em>N</em>-Ethyl-7,8-dihydro-7-methyl-8-oxo-2-phenyl-<em>N</em>-(phenylmethyl)-9<em>H</em>-purine-9-acetamide;Emapunil;AC 5216;XBD 173",
    "duplicated_cas_no": "1186335-03-4",
    "SMILES": "C(C(N(CC1=CC=CC=C1)CC)=O)N2C=3C(N(C)C2=O)=CN=C(N3)C4=CC=CC=C4",
    "meta_data": {
        "InChI": "InChI=1S/C23H23N5O2/c1-3-27(15-17-10-6-4-7-11-17)20(29)16-28-22-19(26(2)23(28)30)14-24-21(25-22)18-12-8-5-9-13-18/h4-14H,3,15-16H2,1-2H3",
        "InChIKey": null,
        "Canonical SMILES": "O=C1N(C2=CN=C(N=C2N1CC(=O)N(CC=3C=CC=CC3)CC)C=4C=CC=CC4)C",
        "Molecular Formula": "C<sub>23</sub>H<sub>23</sub>N<sub>5</sub>O<sub>2</sub>",
        "Molecular Mass": "401.46",
        "Melting Point": "165.5-166.5 °C"
    }
}