{
    "cas_no": "92-69-3",
    "key_name": "4-Hydroxybiphenyl",
    "cn_name": "对羟基联苯;对苯基苯酚;",
    "alternate_name": "[1,1′-Biphenyl]-4-ol;4-Biphenylol;<em>p</em>-Hydroxybiphenyl;4-Hydroxydiphenyl;Paraxenol;<em>p</em>-Phenylphenol;4-Phenylphenol;<em>p</em>-Hydroxydiphenyl;4-Hydroxybiphenyl;<em>p</em>-Biphenylol;4-Diphenylol;Tetrosin P 300;MK 1100;4-Hydroxy-1,1′-biphenyl;<em>p</em>-Xenol;NSC 1858;P-PP;Daicarrier DK-CN;DK-CN",
    "duplicated_cas_no": "61840-56-0;110617-59-9;215723-23-2",
    "SMILES": "OC1=CC=C(C=C1)C2=CC=CC=C2",
    "meta_data": {
        "InChI": "InChI=1S/C12H10O/c13-12-8-6-11(7-9-12)10-4-2-1-3-5-10/h1-9,13H",
        "InChIKey": null,
        "Canonical SMILES": "OC=1C=CC(=CC1)C=2C=CC=CC2",
        "Molecular Formula": "C<sub>12</sub>H<sub>10</sub>O",
        "Molecular Mass": "170.21",
        "Boiling Point": "305-308 °C",
        "Melting Point": "164-165 °C",
        "Density": "127 g/cm³ @ Temp: 25 °C"
    }
}