{
    "cas_no": "442-51-3",
    "key_name": "Harmine",
    "cn_name": "哈尔碱; 哈尔明碱; 肉叶云香碱; 去氢骆驼蓬碱; 7-甲氧基-1-甲基-9H-吡啶并[3,4-b]吲哚;",
    "alternate_name": "9<em>H</em>-Pyrido[3,4-<em>b</em>]indole, 7-methoxy-1-methyl-;7-Methoxy-1-methyl-9<em>H</em>-pyrido[3,4-<em>b</em>]indole;Banisterine;Harmine;Leucoharmine;1-Methyl-7-methoxy-β-carboline;Telepathine;Yageine;Banisterin;Telepathin;Harmin;Yagein;MeSH ID: D006247",
    "duplicated_cas_no": "",
    "SMILES": "CC1=C2C(C=3C(N2)=CC(OC)=CC3)=CC=N1",
    "meta_data": {
        "InChI": "InChI=1S/C13H12N2O/c1-8-13-11(5-6-14-8)10-4-3-9(16-2)7-12(10)15-13/h3-7,15H,1-2H3",
        "InChIKey": null,
        "Canonical SMILES": "N=1C=CC=2C=3C=CC(OC)=CC3NC2C1C",
        "Molecular Formula": "C<sub>13</sub>H<sub>12</sub>N<sub>2</sub>O",
        "Molecular Mass": "212.25",
        "Melting Point": "273 °C",
        "Density": "1.35 g/cm³"
    }
}