{
    "cas_no": "42228-92-2",
    "key_name": "Acivicin",
    "cn_name": "异恶唑醋酸;阿西维辛;(α-s,5s)-α-氨基-3-氯-4,5-二氢-5-异恶唑乙酸;",
    "alternate_name": "5-Isoxazoleacetic acid, α-amino-3-chloro-4,5-dihydro-, (α<em>S</em>,5<em>S</em>)-;5-Isoxazoleacetic acid, α-amino-3-chloro-4,5-dihydro-, [<em>S</em>-(<em>R</em>*,<em>R</em>*)]-;(α<em>S</em>,5<em>S</em>)-α-Amino-3-chloro-4,5-dihydro-5-isoxazoleacetic acid;NSC 163501;AT 125;(α-<em>S</em>, 5<em>S</em>)-α-Amino-3-chloro-4,5-dihydro-5-isoxazoleacetic acid;U 42126;Antibiotic AT 125;Acivicin",
    "duplicated_cas_no": "",
    "SMILES": "[C@H](C(O)=O)(N)[C@]1(ON=C(Cl)C1)[H]",
    "meta_data": {
        "InChI": "InChI=1S/C5H7ClN2O3/c6-3-1-2(11-8-3)4(7)5(9)10/h2,4H,1,7H2,(H,9,10)/t2-,4-/m0/s1",
        "InChIKey": null,
        "Canonical SMILES": "O=C(O)C(N)C1ON=C(Cl)C1",
        "Molecular Formula": "C<sub>5</sub>H<sub>7</sub>ClN<sub>2</sub>O<sub>3</sub>",
        "Molecular Mass": "178.57",
        "Melting Point": "&gt;180 °C (decomp)"
    }
}