{
    "cas_no": "87674-68-8",
    "key_name": "Dimethenamid",
    "cn_name": "二甲吩草胺;2-氯-N-(2,4-二甲基-3-噻吩基)-N-(2-甲氧基-1-甲基乙基)乙酰胺;",
    "alternate_name": "Acetamide, 2-chloro-<em>N</em>-(2,4-dimethyl-3-thienyl)-<em>N</em>-(2-methoxy-1-methylethyl)-;2-Chloro-<em>N</em>-(2,4-dimethyl-3-thienyl)-<em>N</em>-(2-methoxy-1-methylethyl)acetamide;SAN 582H;Dimethenamid;Frontier;SAN 582;Fieldstar",
    "duplicated_cas_no": "",
    "SMILES": "N(C(COC)C)(C(CCl)=O)C=1C(C)=CSC1C",
    "meta_data": {
        "InChI": "InChI=1S/C12H18ClNO2S/c1-8-7-17-10(3)12(8)14(11(15)5-13)9(2)6-16-4/h7,9H,5-6H2,1-4H3",
        "InChIKey": null,
        "Canonical SMILES": "O=C(N(C1=C(SC=C1C)C)C(C)COC)CCl",
        "Molecular Formula": "C<sub>12</sub>H<sub>18</sub>ClNO<sub>2</sub>S",
        "Molecular Mass": "275.79",
        "Boiling Point": "127 °C",
        "Melting Point": "&lt;25 °C"
    }
}