{
    "cas_no": "495-40-9",
    "key_name": "Butyrophenone",
    "cn_name": "苯丁酮;1-苯基-1-丁酮;",
    "alternate_name": "1-Butanone, 1-phenyl-;Butyrophenone;1-Phenyl-1-butanone;<em>n</em>-Butyrophenone;Propyl phenyl ketone;Phenyl propyl ketone;1-Benzoylpropane;Butanophenone;<em>n</em>-Propyl phenyl ketone;NSC 8463;Phenyl <em>n</em>-propyl ketone",
    "duplicated_cas_no": "",
    "SMILES": "C(CCC)(=O)C1=CC=CC=C1",
    "meta_data": {
        "InChI": "InChI=1S/C10H12O/c1-2-6-10(11)9-7-4-3-5-8-9/h3-5,7-8H,2,6H2,1H3",
        "InChIKey": null,
        "Canonical SMILES": "O=C(C=1C=CC=CC1)CCC",
        "Molecular Formula": "C<sub>10</sub>H<sub>12</sub>O",
        "Molecular Mass": "148.20",
        "Boiling Point": "228.5 °C",
        "Melting Point": "12 °C",
        "Density": "1.001 g/cm³ @ Temp: 40 °C"
    }
}