{
    "cas_no": "59293-67-3",
    "key_name": "2,4-Dichlorobenzenemethanethiol",
    "cn_name": "2,4-二氯苄硫醇;",
    "alternate_name": "Benzenemethanethiol, 2,4-dichloro-;α-Toluenethiol, 2,4-dichloro-;2,4-Dichlorobenzenemethanethiol;2,4-Dichlorobenzyl mercaptan;2,4-Dichlorobenzyl thiol;(2,4-Dichlorophenyl)methanethiol;NSC 33218",
    "duplicated_cas_no": "",
    "SMILES": "C(S)C1=C(Cl)C=C(Cl)C=C1",
    "meta_data": {
        "InChI": "InChI=1S/C7H6Cl2S/c8-6-2-1-5(4-10)7(9)3-6/h1-3,10H,4H2",
        "InChIKey": null,
        "Canonical SMILES": "ClC1=CC=C(C(Cl)=C1)CS",
        "Molecular Formula": "C<sub>7</sub>H<sub>6</sub>Cl<sub>2</sub>S",
        "Molecular Mass": "193.09",
        "Boiling Point": "151-152 °C @ Press: 29 Torr"
    }
}