{
    "cas_no": "696-62-8",
    "key_name": "4-Iodoanisole",
    "cn_name": null,
    "alternate_name": "Benzene, 1-iodo-4-methoxy-;Anisole, <em>p</em>-iodo-;Anisole, 4-iodo-;1-Iodo-4-methoxybenzene;<em>p</em>-Methoxyiodobenzene;<em>p</em>-Iodoanisole;4-Iodoanisole;4-Iodomethoxybenzene;<em>p</em>-Iodophenyl methyl ether;<em>p</em>-Methoxyphenyl iodide;<em>p</em>-Iodomethoxybenzene;4-Methoxyphenyl iodide;4-Methoxyiodobenzene;4-Methoxy-1-iodobenzene;4-Iodophenyl methyl ether;NSC 60727;1-Methoxy-4-iodobenzene",
    "duplicated_cas_no": "",
    "SMILES": "O(C)C1=CC=C(I)C=C1",
    "meta_data": {
        "InChI": "InChI=1S/C7H7IO/c1-9-7-4-2-6(8)3-5-7/h2-5H,1H3",
        "InChIKey": null,
        "Canonical SMILES": "IC1=CC=C(OC)C=C1",
        "Molecular Formula": "C<sub>7</sub>H<sub>7</sub>IO",
        "Molecular Mass": "234.03",
        "Boiling Point": "238 °C",
        "Melting Point": "53 °C"
    }
}