{
    "cas_no": "138-22-7",
    "key_name": "Butyl lactate",
    "cn_name": "乳酸丁酯;乳酸正丁酯;alpha-羟基丙酸丁酯;",
    "alternate_name": "Propanoic acid, 2-hydroxy-, butyl ester;Lactic acid, butyl ester;<em>n</em>-Butyl lactate;2-Hydroxypropanoic acid butyl ester;Butyl α-hydroxypropionate;Butyl lactate;(±)-<em>n</em>-Butyl lactate;α-Hydroxypropionic acid butyl ester;Butyl 2-hydroxypropanoate;Butyl 2-hydroxypropionate;NSC 6533;Purasolv BL;2-Hydroxypropionic acid 1-butyl ester",
    "duplicated_cas_no": "126872-21-7;545436-03-1;1550972-44-5",
    "SMILES": "C(OCCCC)(C(C)O)=O",
    "meta_data": {
        "InChI": "InChI=1S/C7H14O3/c1-3-4-5-10-7(9)6(2)8/h6,8H,3-5H2,1-2H3",
        "InChIKey": null,
        "Canonical SMILES": "O=C(OCCCC)C(O)C",
        "Molecular Formula": "C<sub>7</sub>H<sub>14</sub>O<sub>3</sub>",
        "Molecular Mass": "146.18",
        "Boiling Point": "186 °C",
        "Melting Point": "-28 °C",
        "Density": "0.9837 g/cm³ @ Temp: 20 °C"
    }
}