{
    "cas_no": "22614-75-1",
    "key_name": "6-Fluoro-2(1<em>H</em>)-quinolinone",
    "cn_name": null,
    "alternate_name": "2(1<em>H</em>)-Quinolinone, 6-fluoro-;Carbostyril, 6-fluoro-;6-Fluoro-2(1<em>H</em>)-quinolinone;6-Fluorocarbostyril;6-Fluoro-1<em>H</em>-quinolin-2-one;6-Fluoroquinolin-2(1<em>H</em>)-one",
    "duplicated_cas_no": "",
    "SMILES": "FC=1C=C2C(NC(=O)C=C2)=CC1",
    "meta_data": {
        "InChI": "InChI=1S/C9H6FNO/c10-7-2-3-8-6(5-7)1-4-9(12)11-8/h1-5H,(H,11,12)",
        "InChIKey": null,
        "Canonical SMILES": "O=C1C=CC=2C=C(F)C=CC2N1",
        "Molecular Formula": "C<sub>9</sub>H<sub>6</sub>FNO",
        "Molecular Mass": "163.15",
        "Melting Point": "270-275 °C"
    }
}