{
    "cas_no": "50868-73-0",
    "key_name": "2-Methoxy-6-methylaniline",
    "cn_name": "2-甲氧基-6-甲基苯胺;",
    "alternate_name": "Benzenamine, 2-methoxy-6-methyl-;<em>o</em>-Anisidine, 6-methyl-;2-Methoxy-6-methylbenzenamine;2-Methyl-6-methoxyaniline;2-Methoxy-6-methylaniline;2-Methoxy-6-methylphenylamine",
    "duplicated_cas_no": "",
    "SMILES": "O(C)C1=C(N)C(C)=CC=C1",
    "meta_data": {
        "InChI": "InChI=1S/C8H11NO/c1-6-4-3-5-7(10-2)8(6)9/h3-5H,9H2,1-2H3",
        "InChIKey": null,
        "Canonical SMILES": "O(C1=CC=CC(=C1N)C)C",
        "Molecular Formula": "C<sub>8</sub>H<sub>11</sub>NO",
        "Molecular Mass": "137.18",
        "Boiling Point": "96 °C @ Press: 4 Torr"
    }
}