{
    "cas_no": "87460-09-1",
    "key_name": "1-(Phenylmethyl) 2-[hydroxy(4-phenylbutyl)phosphinyl]acetate",
    "cn_name": "[羟基(4-苯丁基)氧膦基]乙酸苄酯;",
    "alternate_name": "Acetic acid, 2-[hydroxy(4-phenylbutyl)phosphinyl]-, 1-(phenylmethyl) ester;Acetic acid, [hydroxy(4-phenylbutyl)phosphinyl]-, phenylmethyl ester;1-(Phenylmethyl) 2-[hydroxy(4-phenylbutyl)phosphinyl]acetate;[Hydroxy-(4-phenyl-butyl)-phosphinoyl]-acetic acid benzyl ester;(2-(Benzyloxy)-2-oxoethyl)(4-phenylbutyl)phosphinicacid",
    "duplicated_cas_no": "",
    "SMILES": "C(OC(CP(CCCCC1=CC=CC=C1)(=O)O)=O)C2=CC=CC=C2",
    "meta_data": {
        "InChI": "InChI=1S/C19H23O4P/c20-19(23-15-18-12-5-2-6-13-18)16-24(21,22)14-8-7-11-17-9-3-1-4-10-17/h1-6,9-10,12-13H,7-8,11,14-16H2,(H,21,22)",
        "InChIKey": null,
        "Canonical SMILES": "O=C(OCC=1C=CC=CC1)CP(=O)(O)CCCCC=2C=CC=CC2",
        "Molecular Formula": "C<sub>19</sub>H<sub>23</sub>O<sub>4</sub>P",
        "Molecular Mass": "346.36",
        "Melting Point": "68-70 °C"
    }
}