{
    "cas_no": "532-11-6",
    "key_name": "5-(4-Methoxyphenyl)-3<em>H</em>-1,2-dithiole-3-thione",
    "cn_name": "茴三硫;胆维他;5-(对甲氧基苯基)-1,2-二硫环戊-4-烯-3-硫酮;",
    "alternate_name": "3<em>H</em>-1,2-Dithiole-3-thione, 5-(4-methoxyphenyl)-;3<em>H</em>-1,2-Dithiole-3-thione, 5-(<em>p</em>-methoxyphenyl)-;1,2-Dithiole-3-thione, 5-(<em>p</em>-methoxyphenyl)-;5-(4-Methoxyphenyl)-3<em>H</em>-1,2-dithiole-3-thione;Anethole trithione;5-(<em>p</em>-Methoxyphenyl)-1,2-dithiole-3-thione;Sulfarlem;Trithio-(<em>p</em>-methoxyphenyl)propene;Sulfogal;5-(<em>p</em>-Methoxyphenyl)-3<em>H</em>-1,2-dithiole-3-thione;3-(<em>p</em>-Methoxyphenyl)trithione;SKF 1717;ADT;Felviten;Tiopropen;Tiotrifar;Trithio;Anethole dithiolthione;Secrebil;Mucinol;Trithioanethole;Sulfralem;Heporal;5-(4-Methoxyphenyl)-3<em>H</em>-1,2-dithiol-3-thione;MeSH ID: D000781",
    "duplicated_cas_no": "1334-70-9",
    "SMILES": "S=C1C=C(SS1)C2=CC=C(OC)C=C2",
    "meta_data": {
        "InChI": "InChI=1S/C10H8OS3/c1-11-8-4-2-7(3-5-8)9-6-10(12)14-13-9/h2-6H,1H3",
        "InChIKey": null,
        "Canonical SMILES": "S=C1SSC(=C1)C=2C=CC(OC)=CC2",
        "Molecular Formula": "C<sub>10</sub>H<sub>8</sub>OS<sub>3</sub>",
        "Molecular Mass": "240.36",
        "Melting Point": "111 °C"
    }
}