{
    "cas_no": "643-93-6",
    "key_name": "3-Methylbiphenyl",
    "cn_name": "3-甲基联苯;",
    "alternate_name": "1,1′-Biphenyl, 3-methyl-;Biphenyl, 3-methyl-;3-Methyl-1,1′-biphenyl;3-Methylbiphenyl;3-Methyldiphenyl;<em>m</em>-Methylbiphenyl;3-Phenyltoluene;<em>m</em>-Phenyltoluene;(3-Methylphenyl)benzene",
    "duplicated_cas_no": "",
    "SMILES": "CC=1C=C(C=CC1)C2=CC=CC=C2",
    "meta_data": {
        "InChI": "InChI=1S/C13H12/c1-11-6-5-9-13(10-11)12-7-3-2-4-8-12/h2-10H,1H3",
        "InChIKey": null,
        "Canonical SMILES": "C=1C=CC(=CC1)C=2C=CC=C(C2)C",
        "Molecular Formula": "C<sub>13</sub>H<sub>12</sub>",
        "Molecular Mass": "168.23",
        "Boiling Point": "272.7 °C",
        "Melting Point": "4.5 °C",
        "Density": "1.0182 g/cm³ @ Temp: 16.7 °C"
    }
}