{
    "cas_no": "2459-10-1",
    "key_name": "Trimethyl trimellitate",
    "cn_name": "苯-1,2,4-三甲酸三甲酯;",
    "alternate_name": "1,2,4-Benzenetricarboxylic acid, 1,2,4-trimethyl ester;1,2,4-Benzenetricarboxylic acid, trimethyl ester;Trimellitic acid trimethyl ester;Trimethyl trimellitate;Trimethyl 1,2,4-benzenetricarboxylate;Methyl trimellitate;1,2,4-Tris(methoxycarbonyl)benzene;TMTM",
    "duplicated_cas_no": "",
    "SMILES": "C(OC)(=O)C1=C(C(OC)=O)C=CC(C(OC)=O)=C1",
    "meta_data": {
        "InChI": "InChI=1S/C12H12O6/c1-16-10(13)7-4-5-8(11(14)17-2)9(6-7)12(15)18-3/h4-6H,1-3H3",
        "InChIKey": null,
        "Canonical SMILES": "O=C(OC)C1=CC=C(C(=O)OC)C(=C1)C(=O)OC",
        "Molecular Formula": "C<sub>12</sub>H<sub>12</sub>O<sub>6</sub>",
        "Molecular Mass": "252.22",
        "Boiling Point": "194 °C @ Press: 12 Torr",
        "Melting Point": "-13 °C",
        "Density": "1.261 g/cm³"
    }
}