{
    "cas_no": "3034-38-6",
    "key_name": "5-Nitroimidazole",
    "cn_name": "4-硝基咪唑;",
    "alternate_name": "1<em>H</em>-Imidazole, 5-nitro-;Imidazole, 4-nitro-;1<em>H</em>-Imidazole, 4-nitro-;Imidazole, 4(<em>or</em> 5)-nitro-;5-Nitro-1<em>H</em>-imidazole;4-Nitroimidazole;5-Nitroimidazole;4(5)-Nitroimidazole;1<em>H</em>-5-Nitroimidazole;1<em>H</em>-4-Nitroimidazole;NSC 50359;4-Nitro-1<em>H</em>-imidazole",
    "duplicated_cas_no": "88054-21-1;196413-24-8;932779-11-8",
    "SMILES": "N(=O)(=O)C1=CN=CN1",
    "meta_data": {
        "InChI": "InChI=1S/C3H3N3O2/c7-6(8)3-1-4-2-5-3/h1-2H,(H,4,5)",
        "InChIKey": null,
        "Canonical SMILES": "O=N(=O)C1=CN=CN1",
        "Molecular Formula": "C<sub>3</sub>H<sub>3</sub>N<sub>3</sub>O<sub>2</sub>",
        "Molecular Mass": "113.07",
        "Melting Point": "303 °C (decomp)",
        "Density": "1.660 g/cm³ (solid)"
    }
}