{
    "cas_no": "20279-21-4",
    "key_name": "1,2,3,10b-Tetrahydrofluoranthene",
    "cn_name": "1,2,3,10b-四氢荧蒽;",
    "alternate_name": "Fluoranthene, 1,2,3,10b-tetrahydro-;1,2,3,10b-Tetrahydrofluoranthene;1,2,3,4-Tetrahydrofluoranthene;NSC 102260",
    "duplicated_cas_no": "127947-23-3",
    "SMILES": "C1=2C3C=4C(C1=CC=CC2CCC3)=CC=CC4",
    "meta_data": {
        "InChI": "InChI=1S/C16H14/c1-2-8-13-12(7-1)14-9-3-5-11-6-4-10-15(13)16(11)14/h1-3,5,7-9,15H,4,6,10H2",
        "InChIKey": null,
        "Canonical SMILES": "C=1C=CC2=C(C1)C3=CC=CC4=C3C2CCC4",
        "Molecular Formula": "C<sub>16</sub>H<sub>14</sub>",
        "Molecular Mass": "206.28",
        "Boiling Point": "203-205 °C",
        "Melting Point": "75 °C"
    }
}