{
    "cas_no": "115787-50-3",
    "key_name": "5-(2-Bromoacetyl)-2-hydroxybenzaldehyde",
    "cn_name": null,
    "alternate_name": "Benzaldehyde, 5-(2-bromoacetyl)-2-hydroxy-;Benzaldehyde, 5-(bromoacetyl)-2-hydroxy-;5-(2-Bromoacetyl)-2-hydroxybenzaldehyde;5-(Bromoacetyl)salicylaldehyde",
    "duplicated_cas_no": "",
    "SMILES": "C(CBr)(=O)C1=CC(C=O)=C(O)C=C1",
    "meta_data": {
        "InChI": "InChI=1S/C9H7BrO3/c10-4-9(13)6-1-2-8(12)7(3-6)5-11/h1-3,5,12H,4H2",
        "InChIKey": null,
        "Canonical SMILES": "O=CC1=CC(=CC=C1O)C(=O)CBr",
        "Molecular Formula": "C<sub>9</sub>H<sub>7</sub>BrO<sub>3</sub>",
        "Molecular Mass": "243.05",
        "Melting Point": "117-118 °C"
    }
}