{
    "cas_no": "13636-02-7",
    "key_name": "<em>N</em>,<em>N</em>-Dimethyl-3-(2-thienyl)-3-hydroxypropanamine",
    "cn_name": "3-(二甲基氨基)-1-(2-噻吩基)-1-丙醇;",
    "alternate_name": "2-Thiophenemethanol, α-[2-(dimethylamino)ethyl]-;α-[2-(Dimethylamino)ethyl]-2-thiophenemethanol;3-(Dimethylamino)-1-(2-thienyl)-1-propanol;<em>N</em>,<em>N</em>-Dimethyl-3-(2-thienyl)-3-hydroxypropanamine;3-(<em>N</em>,<em>N</em>-Dimethylamino)-1-(2-thienyl)propan-1-ol;<em>N</em>,<em>N</em>-Dimethyl-3-hydroxy-3-(2-thienyl)propanamine;<em>N</em>,<em>N</em>-Dimethyl-3-hydroxy-3-(2-thienyl)propan-1-amine",
    "duplicated_cas_no": "164199-55-7",
    "SMILES": "C(CCN(C)C)(O)C1=CC=CS1",
    "meta_data": {
        "InChI": "InChI=1S/C9H15NOS/c1-10(2)6-5-8(11)9-4-3-7-12-9/h3-4,7-8,11H,5-6H2,1-2H3",
        "InChIKey": null,
        "Canonical SMILES": "OC(C=1SC=CC1)CCN(C)C",
        "Molecular Formula": "C<sub>9</sub>H<sub>15</sub>NOS",
        "Molecular Mass": "185.29",
        "Melting Point": "69-71 °C"
    }
}