{
    "cas_no": "1703-61-3",
    "key_name": "4-Oxo-1,2-cyclopentanedicarboxylic acid",
    "cn_name": null,
    "alternate_name": "1,2-Cyclopentanedicarboxylic acid, 4-oxo-;4-Oxo-1,2-cyclopentanedicarboxylic acid;Cyclopentanone-3,4-dicarboxylic acid",
    "duplicated_cas_no": "",
    "SMILES": "C(O)(=O)C1C(C(O)=O)CC(=O)C1",
    "meta_data": {
        "InChI": "InChI=1S/C7H8O5/c8-3-1-4(6(9)10)5(2-3)7(11)12/h4-5H,1-2H2,(H,9,10)(H,11,12)",
        "InChIKey": null,
        "Canonical SMILES": "O=C(O)C1CC(=O)CC1C(=O)O",
        "Molecular Formula": "C<sub>7</sub>H<sub>8</sub>O<sub>5</sub>",
        "Molecular Mass": "172.14",
        "Melting Point": "189 °C"
    }
}