{
    "cas_no": "3467-59-2",
    "key_name": "<em>N</em>-(2,5-Dimethoxyphenyl)acetamide",
    "cn_name": "N-(2,5-二甲氧基苯基)乙酰胺;2,5-二甲氧基乙酰苯胺;",
    "alternate_name": "Acetamide, <em>N</em>-(2,5-dimethoxyphenyl)-;Acetanilide, 2′,5′-dimethoxy-;<em>N</em>-(2,5-Dimethoxyphenyl)acetamide;2′,5′-Dimethoxyacetanilide;2-Acetamidohydroquinone dimethyl ether;NSC 408044",
    "duplicated_cas_no": "",
    "SMILES": "N(C(C)=O)C1=C(OC)C=CC(OC)=C1",
    "meta_data": {
        "InChI": "InChI=1S/C10H13NO3/c1-7(12)11-9-6-8(13-2)4-5-10(9)14-3/h4-6H,1-3H3,(H,11,12)",
        "InChIKey": null,
        "Canonical SMILES": "O=C(NC1=CC(OC)=CC=C1OC)C",
        "Molecular Formula": "C<sub>10</sub>H<sub>13</sub>NO<sub>3</sub>",
        "Molecular Mass": "195.22",
        "Melting Point": "93-94 °C"
    }
}