{
    "cas_no": "527-54-8",
    "key_name": "3,4,5-Trimethylphenol",
    "cn_name": "3,4,5-三甲酚;3,4,5-三甲基苯酚;",
    "alternate_name": "Phenol, 3,4,5-trimethyl-;3,4,5-Trimethylphenol;3,4,5-Hemimellitenol;1-Hydroxy-3,4,5-trimethylbenzene;5-Hydroxy-1,2,3-trimethylbenzene;NSC 65648",
    "duplicated_cas_no": "",
    "SMILES": "CC1=C(C)C=C(O)C=C1C",
    "meta_data": {
        "InChI": "InChI=1S/C9H12O/c1-6-4-9(10)5-7(2)8(6)3/h4-5,10H,1-3H3",
        "InChIKey": null,
        "Canonical SMILES": "OC=1C=C(C(=C(C1)C)C)C",
        "Molecular Formula": "C<sub>9</sub>H<sub>12</sub>O",
        "Molecular Mass": "136.19",
        "Boiling Point": "248 °C @ Press: 758 Torr",
        "Melting Point": "106 °C"
    }
}