{
    "cas_no": "825-94-5",
    "key_name": "1-Chloro-4-(trichlorosilyl)benzene",
    "cn_name": null,
    "alternate_name": "Benzene, 1-chloro-4-(trichlorosilyl)-;Silane, trichloro(<em>p</em>-chlorophenyl)-;Silane, trichloro(4-chlorophenyl)-;1-Chloro-4-(trichlorosilyl)benzene;4-Chlorophenyltrichlorosilane;<em>p</em>-Chlorophenyltrichlorosilane;Trichloro(<em>p</em>-chlorophenyl)silane;Trichloro(4-chlorophenyl)silane",
    "duplicated_cas_no": "",
    "SMILES": "[Si](Cl)(Cl)(Cl)C1=CC=C(Cl)C=C1",
    "meta_data": {
        "InChI": "InChI=1S/C6H4Cl4Si/c7-5-1-3-6(4-2-5)11(8,9)10/h1-4H",
        "InChIKey": null,
        "Canonical SMILES": "ClC1=CC=C(C=C1)[Si](Cl)(Cl)Cl",
        "Molecular Formula": "C<sub>6</sub>H<sub>4</sub>Cl<sub>4</sub>Si",
        "Molecular Mass": "245.99",
        "Boiling Point": "105 °C @ Press: 18 Torr",
        "Density": "1.4062 g/cm³ @ Temp: 20 °C"
    }
}