{
    "cas_no": "57946-56-2",
    "key_name": "4-Chloro-2-fluoroaniline",
    "cn_name": "4-氯-2-氟苯胺;",
    "alternate_name": "Benzenamine, 4-chloro-2-fluoro-;4-Chloro-2-fluorobenzenamine;4-Chloro-2-fluoroaniline;2-Fluoro-4-chloroaniline;4-Chloro-2-fluorophenylamine",
    "duplicated_cas_no": "",
    "SMILES": "FC1=C(N)C=CC(Cl)=C1",
    "meta_data": {
        "InChI": "InChI=1S/C6H5ClFN/c7-4-1-2-6(9)5(8)3-4/h1-3H,9H2",
        "InChIKey": null,
        "Canonical SMILES": "FC1=CC(Cl)=CC=C1N",
        "Molecular Formula": "C<sub>6</sub>H<sub>5</sub>ClFN",
        "Molecular Mass": "145.56",
        "Boiling Point": "83-85 °C @ Press: 12 Torr"
    }
}