{
    "cas_no": "644-13-3",
    "key_name": "2-Benzoylnaphthalene",
    "cn_name": "2-苯甲酰萘;2-萘基苯基甲酮;",
    "alternate_name": "Methanone, 2-naphthalenylphenyl-;Ketone, 2-naphthyl phenyl;2-Naphthalenylphenylmethanone;2-Benzoylnaphthalene;2-Naphthyl phenyl ketone;2-Benzonaphthone;β-Benzoylnaphthalene;Phenyl 2-naphthyl ketone;β-Naphthyl phenyl ketone;NSC 5190",
    "duplicated_cas_no": "",
    "SMILES": "C(=O)(C1=CC2=C(C=C1)C=CC=C2)C3=CC=CC=C3",
    "meta_data": {
        "InChI": "InChI=1S/C17H12O/c18-17(14-7-2-1-3-8-14)16-11-10-13-6-4-5-9-15(13)12-16/h1-12H",
        "InChIKey": null,
        "Canonical SMILES": "O=C(C=1C=CC=CC1)C=2C=CC=3C=CC=CC3C2",
        "Molecular Formula": "C<sub>17</sub>H<sub>12</sub>O",
        "Molecular Mass": "232.28",
        "Boiling Point": "398 °C @ Press: 154 Torr",
        "Melting Point": "82 °C"
    }
}