{
    "cas_no": "126910-68-7",
    "key_name": "Methyl 5-chloro-3-(chlorosulfonyl)-2-thiophenecarboxylate",
    "cn_name": null,
    "alternate_name": "2-Thiophenecarboxylic acid, 5-chloro-3-(chlorosulfonyl)-, methyl ester;Methyl 5-chloro-3-(chlorosulfonyl)-2-thiophenecarboxylate",
    "duplicated_cas_no": "",
    "SMILES": "S(Cl)(=O)(=O)C1=C(C(OC)=O)SC(Cl)=C1",
    "meta_data": {
        "InChI": "InChI=1S/C6H4Cl2O4S2/c1-12-6(9)5-3(14(8,10)11)2-4(7)13-5/h2H,1H3",
        "InChIKey": null,
        "Canonical SMILES": "O=C(OC)C=1SC(Cl)=CC1S(=O)(=O)Cl",
        "Molecular Formula": "C<sub>6</sub>H<sub>4</sub>Cl<sub>2</sub>O<sub>4</sub>S<sub>2</sub>",
        "Molecular Mass": "275.13",
        "Melting Point": "50-52 °C"
    }
}