{
    "cas_no": "3430-15-7",
    "key_name": "2,3,5-Tribromo-6-methylpyridine",
    "cn_name": null,
    "alternate_name": "Pyridine, 2,3,5-tribromo-6-methyl-;2-Picoline, 3,5,6-tribromo-;2,3,5-Tribromo-6-methylpyridine;3,5,6-Tribromo-2-picoline;2,3,5-Tribromo-6-picoline",
    "duplicated_cas_no": "",
    "SMILES": "BrC1=C(Br)N=C(C)C(Br)=C1",
    "meta_data": {
        "InChI": "InChI=1S/C6H4Br3N/c1-3-4(7)2-5(8)6(9)10-3/h2H,1H3",
        "InChIKey": null,
        "Canonical SMILES": "BrC=1N=C(C(Br)=CC1Br)C",
        "Molecular Formula": "C<sub>6</sub>H<sub>4</sub>Br<sub>3</sub>N",
        "Molecular Mass": "329.81",
        "Melting Point": "76-77 °C"
    }
}