{
    "cas_no": "5657-61-4",
    "key_name": "Nicotinohydroxamic acid",
    "cn_name": "尼可马特;",
    "alternate_name": "3-Pyridinecarboxamide, <em>N</em>-hydroxy-;Nicotinohydroxamic acid;<em>N</em>-Hydroxy-3-pyridinecarboxamide;Nicotinohydroximic acid;Nicotinylhydroxamic acid;3-Pyridinehydroxamic acid;Nicoxamat;NSC 13997;3-Picolinehydroxamic acid;3-Pyridinecarbohydroxamic acid",
    "duplicated_cas_no": "1606-69-5",
    "SMILES": "C(NO)(=O)C=1C=CC=NC1",
    "meta_data": {
        "InChI": "InChI=1S/C6H6N2O2/c9-6(8-10)5-2-1-3-7-4-5/h1-4,10H,(H,8,9)",
        "InChIKey": null,
        "Canonical SMILES": "O=C(NO)C=1C=NC=CC1",
        "Molecular Formula": "C<sub>6</sub>H<sub>6</sub>N<sub>2</sub>O<sub>2</sub>",
        "Molecular Mass": "138.12",
        "Melting Point": "167 °C"
    }
}