{
    "cas_no": "29418-67-5",
    "key_name": "2-Bromobenzoic acid hydrazide",
    "cn_name": "2-溴苯甲酰肼;",
    "alternate_name": "Benzoic acid, 2-bromo-, hydrazide;Benzoic acid, <em>o</em>-bromo-, hydrazide;<em>o</em>-Bromobenzoic acid hydrazide;2-Bromobenzoic acid hydrazide;2-Bromobenzohydrazide;(<em>o</em>-Bromobenzoyl)hydrazine;<em>o</em>-Bromobenzoic hydrazide;2-Bromobenzoylhydrazine;2-Bromobenzenecarboxylic acid hydrazide;NSC 522536;2-Bromobenzoyl hydrazide;2-Bromobenzoic hydrazide;2-Bromobenzhydrazide",
    "duplicated_cas_no": "",
    "SMILES": "C(NN)(=O)C1=C(Br)C=CC=C1",
    "meta_data": {
        "InChI": "InChI=1S/C7H7BrN2O/c8-6-4-2-1-3-5(6)7(11)10-9/h1-4H,9H2,(H,10,11)",
        "InChIKey": null,
        "Canonical SMILES": "O=C(NN)C=1C=CC=CC1Br",
        "Molecular Formula": "C<sub>7</sub>H<sub>7</sub>BrN<sub>2</sub>O",
        "Molecular Mass": "215.05",
        "Melting Point": "152 °C"
    }
}