{
    "cas_no": "383-53-9",
    "key_name": "2-Bromo-1-[4-(trifluoromethyl)phenyl]ethanone",
    "cn_name": "2-溴-4\"-(三氟甲基)苯乙酮;",
    "alternate_name": "Ethanone, 2-bromo-1-[4-(trifluoromethyl)phenyl]-;Acetophenone, 2-bromo-4′-(trifluoromethyl)-;2-Bromo-1-[4-(trifluoromethyl)phenyl]ethanone;2-Bromo-4′-(trifluoromethyl)acetophenone;4-(Trifluoromethyl)phenacyl bromide;1-(2-Bromo-1-oxoethyl)-4-trifluoromethylbenzene;2-Bromo-1-[4-(trifluoromethyl)phenyl]ethan-1-one;NSC 277303;<em>p</em>-(Trifluoromethyl)phenacyl bromide;α-Bromo-<em>p</em>-(trifluoromethyl)acetophenone",
    "duplicated_cas_no": "",
    "SMILES": "C(F)(F)(F)C1=CC=C(C(CBr)=O)C=C1",
    "meta_data": {
        "InChI": "InChI=1S/C9H6BrF3O/c10-5-8(14)6-1-3-7(4-2-6)9(11,12)13/h1-4H,5H2",
        "InChIKey": null,
        "Canonical SMILES": "O=C(C1=CC=C(C=C1)C(F)(F)F)CBr",
        "Molecular Formula": "C<sub>9</sub>H<sub>6</sub>BrF<sub>3</sub>O",
        "Molecular Mass": "267.04",
        "Melting Point": "47-50 °C"
    }
}