{
    "cas_no": "75462-59-8",
    "key_name": "3,5-Bis(trifluoromethyl)benzyl chloride",
    "cn_name": null,
    "alternate_name": "Benzene, 1-(chloromethyl)-3,5-bis(trifluoromethyl)-;1-(Chloromethyl)-3,5-bis(trifluoromethyl)benzene;3,5-Bis(trifluoromethyl)benzyl chloride;3,5-Ditrifluoromethylbenzyl chloride;1,3-Ditrifluoromethyl-5-chloromethylbenzene",
    "duplicated_cas_no": "",
    "SMILES": "C(F)(F)(F)C1=CC(C(F)(F)F)=CC(CCl)=C1",
    "meta_data": {
        "InChI": "InChI=1S/C9H5ClF6/c10-4-5-1-6(8(11,12)13)3-7(2-5)9(14,15)16/h1-3H,4H2",
        "InChIKey": null,
        "Canonical SMILES": "FC(F)(F)C1=CC(=CC(=C1)C(F)(F)F)CCl",
        "Molecular Formula": "C<sub>9</sub>H<sub>5</sub>ClF<sub>6</sub>",
        "Molecular Mass": "262.58",
        "Melting Point": "47-48.5 °C"
    }
}