{
    "cas_no": "43038-45-5",
    "key_name": "1-Naphthoic hydrazide",
    "cn_name": "1-萘甲酰肼;1-萘甲酸肼;1-萘甲酸肼, 98+%;",
    "alternate_name": "1-Naphthalenecarboxylic acid, hydrazide;1-Naphthoic acid hydrazide;α-Naphthalenecarboxylic acid hydrazide;1-Naphthoylhydrazine;1-Naphthoylhydrazide;1-Naphthoic hydrazide;α-Naphthoylhydrazide;NSC 23046",
    "duplicated_cas_no": "",
    "SMILES": "C(NN)(=O)C=1C2=C(C=CC1)C=CC=C2",
    "meta_data": {
        "InChI": "InChI=1S/C11H10N2O/c12-13-11(14)10-7-3-5-8-4-1-2-6-9(8)10/h1-7H,12H2,(H,13,14)",
        "InChIKey": null,
        "Canonical SMILES": "O=C(NN)C1=CC=CC=2C=CC=CC21",
        "Molecular Formula": "C<sub>11</sub>H<sub>10</sub>N<sub>2</sub>O",
        "Molecular Mass": "186.21",
        "Melting Point": "164-166 °C"
    }
}