{
    "cas_no": "123237-62-7",
    "key_name": "<em>tert</em>-Butyldimethyl[((<em>S</em>)-oxiranyl)methoxy]silane",
    "cn_name": null,
    "alternate_name": "Oxirane, 2-[[[(1,1-dimethylethyl)dimethylsilyl]oxy]methyl]-, (2<em>S</em>)-;Silane, (1,1-dimethylethyl)dimethyl(oxiranylmethoxy)-, (<em>S</em>)-;Silane, (1,1-dimethylethyl)dimethyl[(2<em>S</em>)-oxiranylmethoxy]-;(2<em>S</em>)-2-[[[(1,1-Dimethylethyl)dimethylsilyl]oxy]methyl]oxirane;(2<em>S</em>)-1-<em>O</em>-(<em>tert</em>-Butyldimethylsilyl)glycidol;<em>tert</em>-Butyldimethyl[((2<em>S</em>)-oxiran-2-yl)methoxy]silane;<em>tert</em>-Butyldimethyl[((<em>S</em>)-oxiranyl)methoxy]silane;(<em>S</em>)-TBS-glycidol;(<em>S</em>)-2-((<em>tert</em>-Butyldimethylsilyloxy)methyl)oxirane;(2S)-<em>tert</em>-Butyldimethyl(oxiran-2-ylmethoxy)silane",
    "duplicated_cas_no": "",
    "SMILES": "[Si](C(C)(C)C)(OC[C@@H]1CO1)(C)C",
    "meta_data": {
        "InChI": "InChI=1S/C9H20O2Si/c1-9(2,3)12(4,5)11-7-8-6-10-8/h8H,6-7H2,1-5H3/t8-/m0/s1",
        "InChIKey": null,
        "Canonical SMILES": "O1CC1CO[Si](C)(C)C(C)(C)C",
        "Molecular Formula": "C<sub>9</sub>H<sub>20</sub>O<sub>2</sub>Si",
        "Molecular Mass": "188.34",
        "Boiling Point": "195-199 °C",
        "Density": "0.87 g/cm³"
    }
}