{
    "cas_no": "3929-61-1",
    "key_name": "<span class=\"text-smallcaps\">L</smallcap>-Glutamyl-<smallcap>L</span>-glutamic acid",
    "cn_name": null,
    "alternate_name": "<span class=\"text-smallcaps\">L</smallcap>-Glutamic acid, <smallcap>L</span>-α-glutamyl-;Glutamic acid, <em>N</em>-<span class=\"text-smallcaps\">L</smallcap>-α-glutamyl-, <smallcap>L</span>-;<span class=\"text-smallcaps\">L</smallcap>-Glutamic acid, <em>N</em>-<smallcap>L</span>-α-glutamyl-;<span class=\"text-smallcaps\">L</smallcap>-α-Glutamyl-<smallcap>L</span>-glutamic acid;<span class=\"text-smallcaps\">L</smallcap>-Glutamyl-<smallcap>L</span>-glutamic acid;α-Glutamylglutamic acid;NSC 335983;90: PN: WO2004025259 PAGE: 57 claimed protein;107: PN: US20070066537 PAGE: 17 claimed protein;2: PN: WO2008083678 PAGE: 33 claimed protein;84: PN: EP2161028 PAGE: 10 claimed protein;14: PN: WO2020009548 SEQID: 14 claimed protein;12: PN: WO2022182737 SEQID: 16 claimed sequence;34: PN: WO2023003984 SEQID: 44 claimed sequence;10: PN: WO2023056433 PAGE: 60 claimed sequence",
    "duplicated_cas_no": "",
    "SMILES": "[C@H](NC([C@H](CCC(O)=O)N)=O)(CCC(O)=O)C(O)=O",
    "meta_data": {
        "InChI": "InChI=1S/C10H16N2O7/c11-5(1-3-7(13)14)9(17)12-6(10(18)19)2-4-8(15)16/h5-6H,1-4,11H2,(H,12,17)(H,13,14)(H,15,16)(H,18,19)/t5-,6-/m0/s1",
        "InChIKey": null,
        "Canonical SMILES": "O=C(O)CCC(N)C(=O)NC(C(=O)O)CCC(=O)O",
        "Molecular Formula": "C<sub>10</sub>H<sub>16</sub>N<sub>2</sub>O<sub>7</sub>",
        "Molecular Mass": "276.24",
        "Melting Point": "167-168 °C",
        "Density": "1.51 g/cm³"
    }
}