{
    "cas_no": "2680-03-7",
    "key_name": "<em>N</em>,<em>N</em>-Dimethylacrylamide",
    "cn_name": "N,N-二甲基丙烯酰胺;",
    "alternate_name": "2-Propenamide, <em>N</em>,<em>N</em>-dimethyl-;Acrylamide, <em>N</em>,<em>N</em>-dimethyl-;<em>N</em>,<em>N</em>-Dimethyl-2-propenamide;<em>N</em>,<em>N</em>-Dimethylacrylamide;DMAC;<em>N</em>,<em>N</em>-Dimethylpropenamide;DMAA;NSC 32613;NSC 35191;<em>N</em>,<em>N</em>′-Dimethylacrylamide;N 828383;DMAAm;Kohshylmer DMAA",
    "duplicated_cas_no": "68761-83-1;1196872-91-9",
    "SMILES": "C(N(C)C)(C=C)=O",
    "meta_data": {
        "InChI": "InChI=1S/C5H9NO/c1-4-5(7)6(2)3/h4H,1H2,2-3H3",
        "InChIKey": null,
        "Canonical SMILES": "O=C(C=C)N(C)C",
        "Molecular Formula": "C<sub>5</sub>H<sub>9</sub>NO",
        "Molecular Mass": "99.13",
        "Boiling Point": "89-91 °C @ Press: 32 Torr"
    }
}