{
    "cas_no": "57582-46-4",
    "key_name": "3-Phenyl-2-propen-1-yl 3-oxobutanoate",
    "cn_name": null,
    "alternate_name": "Butanoic acid, 3-oxo-, 3-phenyl-2-propen-1-yl ester;Butanoic acid, 3-oxo-, 3-phenyl-2-propenyl ester;3-Phenyl-2-propen-1-yl 3-oxobutanoate;Cinnamyl acetoacetate;4-Phenyl-2-buten-1-yl acetoacetate",
    "duplicated_cas_no": "",
    "SMILES": "C(=CCOC(CC(C)=O)=O)C1=CC=CC=C1",
    "meta_data": {
        "InChI": "InChI=1S/C13H14O3/c1-11(14)10-13(15)16-9-5-8-12-6-3-2-4-7-12/h2-8H,9-10H2,1H3",
        "InChIKey": null,
        "Canonical SMILES": "O=C(OCC=CC=1C=CC=CC1)CC(=O)C",
        "Molecular Formula": "C<sub>13</sub>H<sub>14</sub>O<sub>3</sub>",
        "Molecular Mass": "218.25",
        "Boiling Point": "101-104 °C @ Press: 0.025 Torr",
        "Density": "1.1029 g/cm³ @ Temp: 25 °C"
    }
}