{
    "cas_no": "83919-23-7",
    "key_name": "Mometasone furoate",
    "cn_name": null,
    "alternate_name": "Pregna-1,4-diene-3,20-dione, 9,21-dichloro-17-[(2-furanylcarbonyl)oxy]-11-hydroxy-16-methyl-, (11β,16α)-;(11β,16α)-9,21-Dichloro-17-[(2-furanylcarbonyl)oxy]-11-hydroxy-16-methylpregna-1,4-diene-3,20-dione;Mometasone furoate;Sch 32088;Nasonex;Mometasone 17-(2-furoate);Elocon;Elomet;Elocom;Ecural;Asmanex;Asmanex Twisthaler;Twisthaler;Monovo;Ovixan;LYR 210",
    "duplicated_cas_no": "",
    "SMILES": "O(C(=O)C1=CC=CO1)[C@@]2(C(CCl)=O)[C@]3(C)[C@@](C[C@H]2C)([C@]4([C@](Cl)([C@@H](O)C3)[C@]5(C)C(CC4)=CC(=O)C=C5)[H])[H]",
    "meta_data": {
        "InChI": "InChI=1S/C27H30Cl2O6/c1-15-11-19-18-7-6-16-12-17(30)8-9-24(16,2)26(18,29)21(31)13-25(19,3)27(15,22(32)14-28)35-23(33)20-5-4-10-34-20/h4-5,8-10,12,15,18-19,21,31H,6-7,11,13-14H2,1-3H3/t15-,18+,19+,21+,24+,25+,26+,27+/m1/s1",
        "InChIKey": null,
        "Canonical SMILES": "O=C1C=CC2(C(=C1)CCC3C4CC(C)C(OC(=O)C=5OC=CC5)(C(=O)CCl)C4(C)CC(O)C32Cl)C",
        "Molecular Formula": "C<sub>27</sub>H<sub>30</sub>Cl<sub>2</sub>O<sub>6</sub>",
        "Molecular Mass": "521.43",
        "Melting Point": "218-220 °C",
        "Density": "1.37 g/cm³ (Solid)"
    }
}