{
    "cas_no": "612-28-2",
    "key_name": "<em>N</em>-Methyl-2-nitrobenzenamine",
    "cn_name": null,
    "alternate_name": "Benzenamine, <em>N</em>-methyl-2-nitro-;Aniline, <em>N</em>-methyl-<em>o</em>-nitro-;<em>N</em>-Methyl-2-nitrobenzenamine;<em>o</em>-Nitro-<em>N</em>-methylaniline;<em>N</em>-Methyl-<em>o</em>-nitroaniline;<em>o</em>-(Methylamino)nitrobenzene;<em>N</em>-Methyl-2-nitroaniline;2-Nitro-<em>N</em>-methylaniline;2-(Methylamino)nitrobenzene;NSC 86672;(Methyl)(2-nitrophenyl)amine;4-(<em>N</em>-Methylamino)-3-nitrobenzene",
    "duplicated_cas_no": "",
    "SMILES": "N(C)C1=C(N(=O)=O)C=CC=C1",
    "meta_data": {
        "InChI": "InChI=1S/C7H8N2O2/c1-8-6-4-2-3-5-7(6)9(10)11/h2-5,8H,1H3",
        "InChIKey": null,
        "Canonical SMILES": "O=N(=O)C=1C=CC=CC1NC",
        "Molecular Formula": "C<sub>7</sub>H<sub>8</sub>N<sub>2</sub>O<sub>2</sub>",
        "Molecular Mass": "152.15",
        "Boiling Point": "158 °C",
        "Melting Point": "38 °C"
    }
}