{
    "cas_no": "4368-56-3",
    "key_name": "Acid blue 62",
    "cn_name": null,
    "alternate_name": "2-Anthracenesulfonic acid, 1-amino-4-(cyclohexylamino)-9,10-dihydro-9,10-dioxo-, sodium salt (1:1);2-Anthracenesulfonic acid, 1-amino-4-(cyclohexylamino)-9,10-dihydro-9,10-dioxo-, monosodium salt;C.I. Acid Blue 62;Acid Alizarine Pure Blue R;Alizarine Brilliant Sky Blue R;Alizarine Direct Pure Blue R;Alizarine Fast Blue RFE;Alizarine Sky Blue R;Alizarine Supra Sky RA;Brilliant Alizarine Cyanine R;Brilliant Alizarine Light Blue 3FR;Erio Anthracene Brilliant Blue RFF;Erionyl Blue E-RFF;Eriosin Fast Blue RFF;Fenazo Light Blue RA;Kayacyl Sky Blue R;Kayaku Alizarine Sky Blue R;Suminol Levelling Sky Blue R;Telon Blue RRL;Tertracid Brilliant Light Blue R;C.I. 62045;Alizarine Supra Blue R;1-Amino-4-cyclohexylaminoanthraquinone-2-sodium sulfonate;Sodium 1-amino-4-(cyclohexylamino)-2-anthraquinonesulfonate;Acid blue 62;Polan Navy Blue E 2R;Alizarin Blue R;Alizarin Brilliant Sky Blue R;Nylomine Blue A 2R;Nylanthrene Brilliant Blue 2RFF;Acid Alizarine Brilliant Blue RN 200;Lissamine Blue 2BR;Aminyl Sky Blue E 2RL;Weak Acid Brilliant Blue 2BR;Weak Acid Blue BRN;Nylanthrene Blue B 2RF;Weak Acid Brilliant Blue R;Polan Blue E 2R;Best Acid Sky Blue R;Lerui Acid Brilliant Blue P 3FRL;Daedo Acid Blue C-R;Suracid Sky Blue BR;Dinacid Sky Blue R;Apollo Nylon Fast Blue L-R;Everacid Blue RRL;Vopsider Blue AIR;Allilon Acid Blue B 2R;Conacid Blue KB;Acid Blue 2BR;Acid Fast Blue IR;Covanyl Blue CRFF;Dycosweak Acid Brilliant Blue P 2R;Acid Brilliant Blue P 2R;Midlon Blue 2R;Triacid Light Sky Blue R;Hispalon Blue B-FAR;Acid Alizarine RN 200;Vicoacid Blue 62;Hispacid Blue FAR;Acid Blue BRN;Concorde Acid Sky Blue R;Naphthazine Blue CRFF;Kenamide Blue G 2R;Alizarine Brilliant Blue BR;Dyacid Lt Blue R;Acid Brilliant Blue BR;Nylosan Blue E 2RL;Rifa Acid Fast Blue E-R;Acid Alizarine Blue RN;Telon Blue RR;Nyloset Blue E 2RF",
    "duplicated_cas_no": "12237-70-6;340810-38-0;159520-53-3;224778-67-0;231946-75-1",
    "SMILES": "N(C1=C2C(C(=O)C=3C(C2=O)=CC=CC3)=C(N)C(S(=O)(=O)O)=C1)C4CCCCC4.[Na]",
    "meta_data": {
        "InChI": "InChI=1S/C20H20N2O5S.Na/c21-18-15(28(25,26)27)10-14(22-11-6-2-1-3-7-11)16-17(18)20(24)13-9-5-4-8-12(13)19(16)23;/h4-5,8-11,22H,1-3,6-7,21H2,(H,25,26,27);",
        "InChIKey": null,
        "Canonical SMILES": "[Na].O=C1C=2C=CC=CC2C(=O)C3=C(C=C(C(N)=C13)S(=O)(=O)O)NC4CCCCC4",
        "Molecular Formula": "C<sub>20</sub>H<sub>20</sub>N<sub>2</sub>O<sub>5</sub>S.Na",
        "Molecular Mass": "",
        "Melting Point": "&gt;300 °C"
    }
}