{
    "cas_no": "6245-75-6",
    "key_name": "<em>N</em>-(2-Carboxyethyl)iminodiacetic acid",
    "cn_name": "N,N-二(羧甲基)-β-氨基丙酸;",
    "alternate_name": "β-Alanine, <em>N</em>,<em>N</em>-bis(carboxymethyl)-;Acetic acid, [(2-carboxyethyl)imino]di-;<em>N</em>,<em>N</em>-Bis(carboxymethyl)-β-alanine;Acetic acid, 2,2′-[(2-carboxyethyl)imino]bis-;<em>N</em>-(2-Carboxyethyl)iminodiacetic acid;3-[Bis(carboxymethyl)amino]propionic acid;Nitrilo(3-propionic)diacetic acid;Trilon GS;β-Alanine-<em>N</em>,<em>N</em>-di(acetic acid)",
    "duplicated_cas_no": "161122-27-6",
    "SMILES": "N(CCC(O)=O)(CC(O)=O)CC(O)=O",
    "meta_data": {
        "InChI": "InChI=1S/C7H11NO6/c9-5(10)1-2-8(3-6(11)12)4-7(13)14/h1-4H2,(H,9,10)(H,11,12)(H,13,14)",
        "InChIKey": null,
        "Canonical SMILES": "O=C(O)CN(CC(=O)O)CCC(=O)O",
        "Molecular Formula": "C<sub>7</sub>H<sub>11</sub>NO<sub>6</sub>",
        "Molecular Mass": "205.17",
        "Melting Point": "200-202 °C (decomp)"
    }
}