{
    "cas_no": "14360-50-0",
    "key_name": "2-Hexanoylfuran",
    "cn_name": "正戊基2-呋喃酮;2-己酰呋喃;",
    "alternate_name": "1-Hexanone, 1-(2-furanyl)-;1-Hexanone, 1-(2-furyl)-;1-(2-Furanyl)-1-hexanone;2-Furyl pentyl ketone;2-Hexanoylfuran;NSC 27361;2-Furyl <em>n</em>-pentyl ketone;2-Caproylfuran;Pentyl 2-furyl ketone;1-(2-Furyl)hexan-1-one",
    "duplicated_cas_no": "",
    "SMILES": "C(CCCCC)(=O)C1=CC=CO1",
    "meta_data": {
        "InChI": "InChI=1S/C10H14O2/c1-2-3-4-6-9(11)10-7-5-8-12-10/h5,7-8H,2-4,6H2,1H3",
        "InChIKey": null,
        "Canonical SMILES": "O=C(C=1OC=CC1)CCCCC",
        "Molecular Formula": "C<sub>10</sub>H<sub>14</sub>O<sub>2</sub>",
        "Molecular Mass": "166.22",
        "Boiling Point": "116-119 °C @ Press: 16 Torr",
        "Density": "0.9954 g/cm³ @ Temp: 25 °C"
    }
}