{
    "cas_no": "103-24-2",
    "key_name": "Dioctyl azelate",
    "cn_name": "壬二酸二异酸;壬二酸二-2-乙基己酯;壬二酸二辛酯;壬二酸二(2-乙基己基)酯;增塑剂DOZ;双-2-乙基己基壬二酸酯;",
    "alternate_name": "Nonanedioic acid, 1,9-bis(2-ethylhexyl) ester;Azelaic acid, bis(2-ethylhexyl) ester;Nonanedioic acid, bis(2-ethylhexyl) ester;Azelaic acid di(2-ethylhexyl) ester;Bis(2-ethylhexyl) azelate;Dioctyl azelate;Plastolein 9058;Staflex DOX;Truflex DOX;Octyl azelate;Di-2-ethylhexyl azelate;Plastolein 9058DOZ;DOZ;Bis(2-ethylhexyl) nonanedioate;Sansocizer DOZ;Emery 2958;Emolien 2986;Nonanedioic acid di(2-ethylhexyl) ester;Dioctyl nonanedioate;Edenol 9058",
    "duplicated_cas_no": "29058-99-9",
    "SMILES": "C(COC(CCCCCCCC(OCC(CCCC)CC)=O)=O)(CCCC)CC",
    "meta_data": {
        "InChI": "InChI=1S/C25H48O4/c1-5-9-16-22(7-3)20-28-24(26)18-14-12-11-13-15-19-25(27)29-21-23(8-4)17-10-6-2/h22-23H,5-21H2,1-4H3",
        "InChIKey": null,
        "Canonical SMILES": "O=C(OCC(CC)CCCC)CCCCCCCC(=O)OCC(CC)CCCC",
        "Molecular Formula": "C<sub>25</sub>H<sub>48</sub>O<sub>4</sub>",
        "Molecular Mass": "412.65",
        "Boiling Point": "237 °C @ Press: 5 Torr",
        "Melting Point": "-78 °C",
        "Density": "0.915 g/cm³ @ Temp: 25 °C"
    }
}