{
    "cas_no": "70977-72-9",
    "key_name": "3-Amino-2-hydroxyacetophenone",
    "cn_name": "3-氨基-2-羟基苯乙酮;",
    "alternate_name": "Ethanone, 1-(3-amino-2-hydroxyphenyl)-;Acetophenone, 3′-amino-2′-hydroxy-;1-(3-Amino-2-hydroxyphenyl)ethanone;2-Acetyl-6-aminophenol;3-Amino-2-hydroxyacetophenone",
    "duplicated_cas_no": "",
    "SMILES": "C(C)(=O)C1=C(O)C(N)=CC=C1",
    "meta_data": {
        "InChI": "InChI=1S/C8H9NO2/c1-5(10)6-3-2-4-7(9)8(6)11/h2-4,11H,9H2,1H3",
        "InChIKey": null,
        "Canonical SMILES": "O=C(C=1C=CC=C(N)C1O)C",
        "Molecular Formula": "C<sub>8</sub>H<sub>9</sub>NO<sub>2</sub>",
        "Molecular Mass": "151.16",
        "Melting Point": "95-96 °C"
    }
}