{
    "cas_no": "2489-86-3",
    "key_name": "1-(2-Propen-1-yl)naphthalene",
    "cn_name": "1-烯丙基萘;1-烯丙基萘;",
    "alternate_name": "Naphthalene, 1-(2-propen-1-yl)-;Naphthalene, 1-allyl-;Naphthalene, 1-(2-propenyl)-;1-(2-Propen-1-yl)naphthalene;α-Allylnaphthalene;1-Allylnaphthalene;3-(1-Naphthyl)-1-propene;1-(Propen-2-yl)naphthalene;1-Prop-2-enylnaphthalene",
    "duplicated_cas_no": "",
    "SMILES": "C(C=C)C=1C2=C(C=CC1)C=CC=C2",
    "meta_data": {
        "InChI": "InChI=1S/C13H12/c1-2-6-11-8-5-9-12-7-3-4-10-13(11)12/h2-5,7-10H,1,6H2",
        "InChIKey": null,
        "Canonical SMILES": "C=CCC1=CC=CC=2C=CC=CC21",
        "Molecular Formula": "C<sub>13</sub>H<sub>12</sub>",
        "Molecular Mass": "168.23",
        "Boiling Point": "266 °C",
        "Density": "1.0228 g/cm³ @ Temp: 20 °C"
    }
}