{
    "cas_no": "54030-32-9",
    "key_name": "4-Hydroxy-3-(hydroxymethyl)benzaldehyde",
    "cn_name": null,
    "alternate_name": "Benzaldehyde, 4-hydroxy-3-(hydroxymethyl)-;4-Hydroxy-3-(hydroxymethyl)benzaldehyde;3-(Hydroxymethyl)-4-hydroxybenzaldehyde",
    "duplicated_cas_no": "",
    "SMILES": "C(O)C1=CC(C=O)=CC=C1O",
    "meta_data": {
        "InChI": "InChI=1S/C8H8O3/c9-4-6-1-2-8(11)7(3-6)5-10/h1-4,10-11H,5H2",
        "InChIKey": null,
        "Canonical SMILES": "O=CC1=CC=C(O)C(=C1)CO",
        "Molecular Formula": "C<sub>8</sub>H<sub>8</sub>O<sub>3</sub>",
        "Molecular Mass": "152.15",
        "Melting Point": "142-145 °C"
    }
}