{
    "cas_no": "67314-36-7",
    "key_name": "3,6,2′,3′,4′,6′-Hexa-<em>O</em>-acetyl-<span class=\"text-smallcaps\">D</span>-cellobial",
    "cn_name": null,
    "alternate_name": "<span class=\"text-smallcaps\">D</smallcap>-<em>arabino</em>-Hex-1-enitol, 1,5-anhydro-2-deoxy-4-<em>O</em>-(2,3,4,6-tetra-<em>O</em>-acetyl-β-<smallcap>D</span>-glucopyranosyl)-, 3,6-diacetate;<span class=\"text-smallcaps\">D</smallcap>-<em>arabino</em>-Hex-1-enitol, 1,5-anhydro-2-deoxy-4-<em>O</em>-(2,3,4,6-tetra-<em>O</em>-acetyl-β-<smallcap>D</span>-glucopyranosyl)-, diacetate;Cellobial peracetate;3,6,2′,3′,4′,6′-Hexa-<em>O</em>-acetyl-<span class=\"text-smallcaps\">D</span>-cellobial",
    "duplicated_cas_no": "",
    "SMILES": "O([C@H]1[C@H](OC(C)=O)[C@@H](OC(C)=O)[C@H](OC(C)=O)[C@@H](COC(C)=O)O1)[C@@H]2[C@@H](COC(C)=O)OC=C[C@H]2OC(C)=O",
    "meta_data": {
        "InChI": "InChI=1S/C24H32O15/c1-11(25)32-9-18-20(17(7-8-31-18)34-13(3)27)39-24-23(37-16(6)30)22(36-15(5)29)21(35-14(4)28)19(38-24)10-33-12(2)26/h7-8,17-24H,9-10H2,1-6H3/t17-,18-,19-,20+,21-,22+,23-,24+/m1/s1",
        "InChIKey": null,
        "Canonical SMILES": "O=C(OCC1OC=CC(OC(=O)C)C1OC2OC(COC(=O)C)C(OC(=O)C)C(OC(=O)C)C2OC(=O)C)C",
        "Molecular Formula": "C<sub>24</sub>H<sub>32</sub>O<sub>15</sub>",
        "Molecular Mass": "560.50",
        "Melting Point": "135-136 °C"
    }
}