{
    "cas_no": "5470-11-1",
    "key_name": "Hydroxyamine hydrochloride",
    "cn_name": "盐酸羟胺;盐酸胲;",
    "alternate_name": "Hydroxylamine, hydrochloride (1:1);Hydroxylamine, hydrochloride;Oxammonium hydrochloride;Hydroxylammonium chloride;Hydroxylamine chloride;Hydroxyamine hydrochloride;Hydroxyammonium chloride;Hydroxylamine chlorohydrate;HAHC",
    "duplicated_cas_no": "379722-73-3",
    "SMILES": "NO.Cl",
    "meta_data": {
        "InChI": "InChI=1S/ClH.H3NO/c;1-2/h1H;2H,1H2",
        "InChIKey": null,
        "Canonical SMILES": "Cl.ON",
        "Molecular Formula": "ClH.H<sub>3</sub>NO",
        "Molecular Mass": "",
        "Melting Point": "151 °C (decomp)",
        "Density": "1.7 g/cm³"
    }
}