{
    "cas_no": "75-64-9",
    "key_name": "tert-Butylamine",
    "cn_name": "叔丁胺;叔丁基胺;2-氨基-2-甲基丙烷;1,1-二甲基乙胺;",
    "alternate_name": "2-Propanamine, 2-methyl-;<em>tert</em>-Butylamine;2-Methyl-2-propanamine;2-Aminoisobutane;2-Amino-2-methylpropane;Trimethylaminomethane;2-Methyl-2-aminopropane;1,1-Dimethylethylamine;<em>t</em>-Butylamine;1,1-Dimethylethanamine;Erbumine;1-Amino-1,1-dimethylethane;tert-Butylamine;2-Methyl-2-propylamine;<em>N</em>-<em>tert</em>-Butylamine;NSC 9571;TB Amine",
    "duplicated_cas_no": "94896-77-2",
    "SMILES": "C(C)(C)(C)N",
    "meta_data": {
        "InChI": "InChI=1S/C4H11N/c1-4(2,3)5/h5H2,1-3H3",
        "InChIKey": null,
        "Canonical SMILES": "NC(C)(C)C",
        "Molecular Formula": "C<sub>4</sub>H<sub>11</sub>N",
        "Molecular Mass": "73.14",
        "Boiling Point": "44 °C",
        "Melting Point": "-66.9 °C",
        "Density": "0.6958 g/cm³ @ Temp: 20 °C"
    }
}