{
    "cas_no": "380843-75-4",
    "key_name": "Bosutinib",
    "cn_name": null,
    "alternate_name": "3-Quinolinecarbonitrile, 4-[(2,4-dichloro-5-methoxyphenyl)amino]-6-methoxy-7-[3-(4-methyl-1-piperazinyl)propoxy]-;4-[(2,4-Dichloro-5-methoxyphenyl)amino]-6-methoxy-7-[3-(4-methyl-1-piperazinyl)propoxy]-3-quinolinecarbonitrile;SKI 606;Bosutinib;SK 606;Bosulif;KIN 001-160",
    "duplicated_cas_no": "",
    "SMILES": "N(C=1C2=C(C=C(OCCCN3CCN(C)CC3)C(OC)=C2)N=CC1C#N)C4=CC(OC)=C(Cl)C=C4Cl",
    "meta_data": {
        "InChI": "InChI=1S/C26H29Cl2N5O3/c1-32-6-8-33(9-7-32)5-4-10-36-25-13-21-18(11-24(25)35-3)26(17(15-29)16-30-21)31-22-14-23(34-2)20(28)12-19(22)27/h11-14,16H,4-10H2,1-3H3,(H,30,31)",
        "InChIKey": null,
        "Canonical SMILES": "N#CC1=CN=C2C=C(OCCCN3CCN(C)CC3)C(OC)=CC2=C1NC4=CC(OC)=C(Cl)C=C4Cl",
        "Molecular Formula": "C<sub>26</sub>H<sub>29</sub>Cl<sub>2</sub>N<sub>5</sub>O<sub>3</sub>",
        "Molecular Mass": "530.45",
        "Melting Point": "116-120 °C"
    }
}