{
    "cas_no": "152459-95-5",
    "key_name": "Imatinib",
    "cn_name": "伊马替尼;4-[(4-甲基-1-哌嗪基)甲基]-N-[4-甲基-3-[4-(3-吡啶基)-2-嘧啶基]氨基]苯基]苯甲酰胺;",
    "alternate_name": "Benzamide, 4-[(4-methyl-1-piperazinyl)methyl]-<em>N</em>-[4-methyl-3-[[4-(3-pyridinyl)-2-pyrimidinyl]amino]phenyl]-;4-[(4-Methyl-1-piperazinyl)methyl]-<em>N</em>-[4-methyl-3-[[4-(3-pyridinyl)-2-pyrimidinyl]amino]phenyl]benzamide;CGP 57148;Imatinib;4-(4-Methylpiperazin-1-ylmethyl)-<em>N</em>-[4-methyl-3-[[4-(pyridin-3-yl)pyrimidin-2-yl]amino]phenyl]benzamide;Genfatinib;<em>N</em>-(4-Methyl-3-((4-(pyridin-3-yl)pyrimidin-2-yl)amino)phenyl)-4-((4-methylpiperazin-1-yl)methyl)benzamide",
    "duplicated_cas_no": "",
    "SMILES": "N(C=1N=C(C=CN1)C=2C=CC=NC2)C3=CC(NC(=O)C4=CC=C(CN5CCN(C)CC5)C=C4)=CC=C3C",
    "meta_data": {
        "InChI": "InChI=1S/C29H31N7O/c1-21-5-10-25(18-27(21)34-29-31-13-11-26(33-29)24-4-3-12-30-19-24)32-28(37)23-8-6-22(7-9-23)20-36-16-14-35(2)15-17-36/h3-13,18-19H,14-17,20H2,1-2H3,(H,32,37)(H,31,33,34)",
        "InChIKey": null,
        "Canonical SMILES": "O=C(NC1=CC=C(C(=C1)NC=2N=CC=C(N2)C3=CN=CC=C3)C)C4=CC=C(C=C4)CN5CCN(C)CC5",
        "Molecular Formula": "C<sub>29</sub>H<sub>31</sub>N<sub>7</sub>O",
        "Molecular Mass": "493.60",
        "Melting Point": "208-209 °C"
    }
}