{
    "cas_no": "125225-28-7",
    "key_name": "Ipconazole",
    "cn_name": "种菌唑标准品;",
    "alternate_name": "Cyclopentanol, 2-[(4-chlorophenyl)methyl]-5-(1-methylethyl)-1-(1<em>H</em>-1,2,4-triazol-1-ylmethyl)-;2-[(4-Chlorophenyl)methyl]-5-(1-methylethyl)-1-(1<em>H</em>-1,2,4-triazol-1-ylmethyl)cyclopentanol;Ipconazole;Vortex FL;Rancona;Vortex;Vortex (fungicide);Lumiflex",
    "duplicated_cas_no": "149202-33-5;1135441-11-0",
    "SMILES": "C(C1(O)C(CC2=CC=C(Cl)C=C2)CCC1C(C)C)N3C=NC=N3",
    "meta_data": {
        "InChI": "InChI=1S/C18H24ClN3O/c1-13(2)17-8-5-15(9-14-3-6-16(19)7-4-14)18(17,23)10-22-12-20-11-21-22/h3-4,6-7,11-13,15,17,23H,5,8-10H2,1-2H3",
        "InChIKey": null,
        "Canonical SMILES": "ClC1=CC=C(C=C1)CC2CCC(C(C)C)C2(O)CN3N=CN=C3",
        "Molecular Formula": "C<sub>18</sub>H<sub>24</sub>ClN<sub>3</sub>O",
        "Molecular Mass": "333.86",
        "Melting Point": "89 °C"
    }
}