{
    "cas_no": "58430-94-7",
    "key_name": "3,5,5-Trimethylhexyl acetate",
    "cn_name": null,
    "alternate_name": "1-Hexanol, 3,5,5-trimethyl-, 1-acetate;1-Hexanol, 3,5,5-trimethyl-, acetate;3,5,5-Trimethylhexyl acetate;Vanoris;Neononyl acetate",
    "duplicated_cas_no": "",
    "SMILES": "C(CC(C)(C)C)(CCOC(C)=O)C",
    "meta_data": {
        "InChI": "InChI=1S/C11H22O2/c1-9(8-11(3,4)5)6-7-13-10(2)12/h9H,6-8H2,1-5H3",
        "InChIKey": null,
        "Canonical SMILES": "O=C(OCCC(C)CC(C)(C)C)C",
        "Molecular Formula": "C<sub>11</sub>H<sub>22</sub>O<sub>2</sub>",
        "Molecular Mass": "186.29",
        "Boiling Point": "209 °C @ Press: 760 Torr"
    }
}