{
    "cas_no": "123-11-5",
    "key_name": "4-Methoxybenzaldehyde",
    "cn_name": "对甲氧基苯甲醛;大茴香醛;",
    "alternate_name": "Benzaldehyde, 4-methoxy-;<em>p</em>-Anisaldehyde;4-Methoxybenzaldehyde;Anisic aldehyde;Crategine;Anisaldehyde;Aubepine;<em>p</em>-Anisic aldehyde;4-Anisaldehyde;<em>p</em>-Formylanisole;Obepin;<em>p</em>-Methoxybenzaldehyde;NSC 5590",
    "duplicated_cas_no": "26249-15-0;68894-36-0;721942-53-6;2409679-18-9",
    "SMILES": "C(=O)C1=CC=C(OC)C=C1",
    "meta_data": {
        "InChI": "InChI=1S/C8H8O2/c1-10-8-4-2-7(6-9)3-5-8/h2-6H,1H3",
        "InChIKey": null,
        "Canonical SMILES": "O=CC1=CC=C(OC)C=C1",
        "Molecular Formula": "C<sub>8</sub>H<sub>8</sub>O<sub>2</sub>",
        "Molecular Mass": "136.15",
        "Boiling Point": "249.5 °C @ Press: 760 Torr",
        "Melting Point": "0 °C",
        "Density": "1.1191 g/cm³ @ Temp: 15 °C"
    }
}