{
    "cas_no": "2245-30-9",
    "key_name": "2-(1,1-Dimethylethyl)oxirane",
    "cn_name": "3,3-二甲基-1,2-环氧丁烷;",
    "alternate_name": "Oxirane, 2-(1,1-dimethylethyl)-;Butane, 1,2-epoxy-3,3-dimethyl-;Oxirane, (1,1-dimethylethyl)-;2-(1,1-Dimethylethyl)oxirane;<em>tert</em>-Butylethylene oxide;2-<em>tert</em>-Butyloxirane;<em>tert</em>-Butyloxirane;3,3-Dimethyl-1-butene oxide;3,3-Dimethyl-1,2-epoxybutane;(±)-<em>tert</em>-Butyloxirane;(±)-2-(<em>tert</em>-Butyl)oxirane;1,2-Epoxy-3,3-dimethylbutane;NSC 356829;Neohexene oxide",
    "duplicated_cas_no": "62137-90-0",
    "SMILES": "C(C)(C)(C)C1CO1",
    "meta_data": {
        "InChI": "InChI=1S/C6H12O/c1-6(2,3)5-4-7-5/h5H,4H2,1-3H3",
        "InChIKey": null,
        "Canonical SMILES": "O1CC1C(C)(C)C",
        "Molecular Formula": "C<sub>6</sub>H<sub>12</sub>O",
        "Molecular Mass": "100.16",
        "Boiling Point": "86 °C",
        "Density": "0.8195 g/cm³ @ Temp: 25 °C"
    }
}