{
    "cas_no": "78-38-6",
    "key_name": "Diethyl ethylphosphonate",
    "cn_name": "乙基磷酸二乙酯;乙基磷酸二乙酯;",
    "alternate_name": "Phosphonic acid, <em>P</em>-ethyl-, diethyl ester;Phosphonic acid, ethyl-, diethyl ester;Diethyl ethylphosphonate;Diethyl ethanephosphonate;Diethoxyethylphosphine oxide;Amgard V 490;Ethyldiethoxyphosphine oxide;Antiblaze 75;NSC 2671;Antiblaze V 490;Ethyldiethylphosphonic acid;DEEP;Albemarle V 490",
    "duplicated_cas_no": "150103-83-6",
    "SMILES": "P(OCC)(OCC)(CC)=O",
    "meta_data": {
        "InChI": "InChI=1S/C6H15O3P/c1-4-8-10(7,6-3)9-5-2/h4-6H2,1-3H3",
        "InChIKey": null,
        "Canonical SMILES": "O=P(OCC)(OCC)CC",
        "Molecular Formula": "C<sub>6</sub>H<sub>15</sub>O<sub>3</sub>P",
        "Molecular Mass": "166.16",
        "Boiling Point": "198 °C @ Press: 760 Torr",
        "Density": "1.0259 g/cm³ @ Temp: 20 °C"
    }
}