{
    "cas_no": "1982-47-4",
    "key_name": "Chloroxuron",
    "cn_name": "枯草隆;氯醚隆;特路灵;N`-4`(4-氯苯氧基)苯基-N,N-二甲基脲;",
    "alternate_name": "Urea, <em>N</em>′-[4-(4-chlorophenoxy)phenyl]-<em>N</em>,<em>N</em>-dimethyl-;Urea, 3-[<em>p</em>-(<em>p</em>-chlorophenoxy)phenyl]-1,1-dimethyl-;<em>N</em>′-[4-(4-Chlorophenoxy)phenyl]-<em>N</em>,<em>N</em>-dimethylurea;Chloroxuron;Tenoran;C 1983;<em>N</em>-4-(<em>p</em>-Chlorophenoxy)phenyl-<em>N</em>′,<em>N</em>′-dimethyl urea;3-[<em>p</em>-(<em>p</em>-Chlorophenoxy)phenyl]-1,1-dimethylurea;<em>N</em><sup>1</sup>-[4-(4-Chlorophenoxy)phenyl]-<em>N</em>,<em>N</em>-dimethylurea;Norex;3-[4-(<em>p</em>-Chlorophenoxy)phenyl]-1,1-dimethylurea;Gesamoos;Chloroxifenidim;1-[4-(4-Chlorophenoxy)phenyl]-3,3-dimethylurea",
    "duplicated_cas_no": "",
    "SMILES": "O(C1=CC=C(NC(N(C)C)=O)C=C1)C2=CC=C(Cl)C=C2",
    "meta_data": {
        "InChI": "InChI=1S/C15H15ClN2O2/c1-18(2)15(19)17-12-5-9-14(10-6-12)20-13-7-3-11(16)4-8-13/h3-10H,1-2H3,(H,17,19)",
        "InChIKey": null,
        "Canonical SMILES": "O=C(NC1=CC=C(OC2=CC=C(Cl)C=C2)C=C1)N(C)C",
        "Molecular Formula": "C<sub>15</sub>H<sub>15</sub>ClN<sub>2</sub>O<sub>2</sub>",
        "Molecular Mass": "290.74",
        "Melting Point": "151 °C",
        "Density": "1.34 g/cm³ @ Temp: 20 °C"
    }
}