{
    "cas_no": "20491-92-3",
    "key_name": "2,4,6-Trimethoxyphenol",
    "cn_name": "2,4,6-三甲氧基苯酚;",
    "alternate_name": "Phenol, 2,4,6-trimethoxy-;2,4,6-Trimethoxyphenol;2,4,6-Trimethoxylphenol",
    "duplicated_cas_no": "",
    "SMILES": "O(C)C1=C(O)C(OC)=CC(OC)=C1",
    "meta_data": {
        "InChI": "InChI=1S/C9H12O4/c1-11-6-4-7(12-2)9(10)8(5-6)13-3/h4-5,10H,1-3H3",
        "InChIKey": null,
        "Canonical SMILES": "OC=1C(OC)=CC(OC)=CC1OC",
        "Molecular Formula": "C<sub>9</sub>H<sub>12</sub>O<sub>4</sub>",
        "Molecular Mass": "184.19",
        "Melting Point": "60-64 °C"
    }
}