{
    "cas_no": "3556-60-3",
    "key_name": "3-Methoxy-4-methylbenzonitrile",
    "cn_name": null,
    "alternate_name": "Benzonitrile, 3-methoxy-4-methyl-;<em>m</em>-Anisonitrile, 4-methyl-;3-Methoxy-4-methylbenzonitrile;3-Methoxy-4-methylcyanobenzene;4-Methyl-3-methoxybenzonitrile",
    "duplicated_cas_no": "",
    "SMILES": "O(C)C1=CC(C#N)=CC=C1C",
    "meta_data": {
        "InChI": "InChI=1S/C9H9NO/c1-7-3-4-8(6-10)5-9(7)11-2/h3-5H,1-2H3",
        "InChIKey": null,
        "Canonical SMILES": "N#CC1=CC=C(C(OC)=C1)C",
        "Molecular Formula": "C<sub>9</sub>H<sub>9</sub>NO",
        "Molecular Mass": "147.17",
        "Melting Point": "51-52.5 °C"
    }
}