{
    "cas_no": "102-83-0",
    "key_name": "<em>N</em><sup>1</sup>,<em>N</em><sup>1</sup>-Dibutyl-1,3-propanediamine",
    "cn_name": "N,N-二丁基-1,3-丙二胺;3-(二丁氨基)丙胺;",
    "alternate_name": "1,3-Propanediamine, <em>N</em><sup>1</sup>,<em>N</em><sup>1</sup>-dibutyl-;1,3-Propanediamine, <em>N</em>,<em>N</em>-dibutyl-;<em>N</em><sup>1</sup>,<em>N</em><sup>1</sup>-Dibutyl-1,3-propanediamine;<em>N</em>,<em>N</em>-Dibutyl-1,3-propanediamine;<em>N</em>,<em>N</em>-Dibutyltrimethylenediamine;<em>N</em>,<em>N</em>-Dibutylaminopropylamine;3-(Dibutylamino)propylamine;<em>N</em>,<em>N</em>-Dibutyl-1,3-diaminopropane;3-(Dibutylamino)-1-propylamine;NSC 6333;NSC 7777;3-(<em>N</em>,<em>N</em>-Di-<em>n</em>-butylamino)-1-aminopropane;N-Aminopropyl-N,N-dibutylamine;(3-Aminopropyl)dibutylamine;1,3-Propanediamine N1,N1-dibutyl-",
    "duplicated_cas_no": "",
    "SMILES": "N(CCCC)(CCCC)CCCN",
    "meta_data": {
        "InChI": "InChI=1S/C11H26N2/c1-3-5-9-13(10-6-4-2)11-7-8-12/h3-12H2,1-2H3",
        "InChIKey": null,
        "Canonical SMILES": "NCCCN(CCCC)CCCC",
        "Molecular Formula": "C<sub>11</sub>H<sub>26</sub>N<sub>2</sub>",
        "Molecular Mass": "186.34",
        "Boiling Point": "121 °C @ Press: 20 Torr"
    }
}