{
    "cas_no": "79538-03-7",
    "key_name": "4-Methyl-2,3,5,6-tetrafluorobenzyl alcohol",
    "cn_name": "2,3,5,6-四氟-4-甲基苯甲醇;",
    "alternate_name": "Benzenemethanol, 2,3,5,6-tetrafluoro-4-methyl-;2,3,5,6-Tetrafluoro-4-methylbenzenemethanol;2,3,5,6-Tetrafluoro-4-methylbenzyl alcohol;4-Methyl-2,3,5,6-tetrafluorobenzyl alcohol",
    "duplicated_cas_no": "",
    "SMILES": "C(O)C1=C(F)C(F)=C(C)C(F)=C1F",
    "meta_data": {
        "InChI": "InChI=1S/C8H6F4O/c1-3-5(9)7(11)4(2-13)8(12)6(3)10/h13H,2H2,1H3",
        "InChIKey": null,
        "Canonical SMILES": "FC=1C(F)=C(C(F)=C(F)C1C)CO",
        "Molecular Formula": "C<sub>8</sub>H<sub>6</sub>F<sub>4</sub>O",
        "Molecular Mass": "194.13",
        "Melting Point": "50-51 °C"
    }
}