{
    "cas_no": "2368-80-1",
    "key_name": "(2-Fluorophenyl)hydrazine",
    "cn_name": "2-氟苯肼;邻氟苯肼;",
    "alternate_name": "Hydrazine, (2-fluorophenyl)-;Hydrazine, (<em>o</em>-fluorophenyl)-;(2-Fluorophenyl)hydrazine;(<em>o</em>-Fluorophenyl)hydrazine;2-Fluorophenylhydrazine;1-(2-Fluorophenyl)hydrazine;<em>N</em>-(2-Fluorophenyl)hydrazine",
    "duplicated_cas_no": "2763637-75-6",
    "SMILES": "N(N)C1=C(F)C=CC=C1",
    "meta_data": {
        "InChI": "InChI=1S/C6H7FN2/c7-5-3-1-2-4-6(5)9-8/h1-4,9H,8H2",
        "InChIKey": null,
        "Canonical SMILES": "FC=1C=CC=CC1NN",
        "Molecular Formula": "C<sub>6</sub>H<sub>7</sub>FN<sub>2</sub>",
        "Molecular Mass": "126.13",
        "Boiling Point": "95-96 °C @ Press: 9 Torr",
        "Melting Point": "45-47 °C"
    }
}