{
    "cas_no": "3042-81-7",
    "key_name": "Benzeneacetic acid, α-bromo-, methyl ester",
    "cn_name": "溴苯乙酸甲酯;",
    "alternate_name": "Benzeneacetic acid, α-bromo-, methyl ester;Acetic acid, bromophenyl-, methyl ester;Methyl bromophenylacetate;Methyl α-bromophenylacetate;Methyl α-bromo-α-phenylacetate;Methyl α-bromobenzeneacetate;Methyl 2-bromo-2-phenylacetate;Methyl 2-bromophenylacetate;Methyl <span class=\"text-smallcaps\">DL</span>-bromophenylacetate;α-Bromophenylacetic acid methyl ester;NSC 243708;2-Bromo-2-phenylacetic acid methyl ester;α-Bromobenzeneacetic acid methyl ester",
    "duplicated_cas_no": "37167-62-7",
    "SMILES": "C(C(OC)=O)(Br)C1=CC=CC=C1",
    "meta_data": {
        "InChI": "InChI=1S/C9H9BrO2/c1-12-9(11)8(10)7-5-3-2-4-6-7/h2-6,8H,1H3",
        "InChIKey": null,
        "Canonical SMILES": "O=C(OC)C(Br)C=1C=CC=CC1",
        "Molecular Formula": "C<sub>9</sub>H<sub>9</sub>BrO<sub>2</sub>",
        "Molecular Mass": "229.07",
        "Boiling Point": "154-155 °C @ Press: 10 Torr"
    }
}