{
    "cas_no": "622-56-0",
    "key_name": "<em>N</em>-Phenyltetradecanamide",
    "cn_name": "肉豆蔻酰苯胺;十四酰苯胺;N-苯基肉豆蔻酰胺;",
    "alternate_name": "Tetradecanamide, <em>N</em>-phenyl-;Myristanilide;<em>N</em>-Phenyltetradecanamide;Myristic acid anilide;<em>N</em>-Phenylmyristamide;Myristic acid <em>N</em>-phenylamide",
    "duplicated_cas_no": "",
    "SMILES": "N(C(CCCCCCCCCCCCC)=O)C1=CC=CC=C1",
    "meta_data": {
        "InChI": "InChI=1S/C20H33NO/c1-2-3-4-5-6-7-8-9-10-11-15-18-20(22)21-19-16-13-12-14-17-19/h12-14,16-17H,2-11,15,18H2,1H3,(H,21,22)",
        "InChIKey": null,
        "Canonical SMILES": "O=C(NC=1C=CC=CC1)CCCCCCCCCCCCC",
        "Molecular Formula": "C<sub>20</sub>H<sub>33</sub>NO",
        "Molecular Mass": "303.48",
        "Melting Point": "85.7-86.1 °C"
    }
}