{
    "cas_no": "2409-61-2",
    "key_name": "Bis(4-methylphenyl)phosphine oxide",
    "cn_name": "双(对甲基苯基)氧化膦;",
    "alternate_name": "Phosphine oxide, bis(4-methylphenyl)-;Phosphine oxide, di-<em>p</em>-tolyl-;Bis(4-methylphenyl)phosphine oxide;Bis-<em>p</em>-tolylphosphine oxide;Di-<em>p</em>-tolylphosphine oxide;Di(4-methylphenyl)phosphinous acid;Bis(4-tolyl)phosphine oxide;Di(para-tolyl)phosphine oxide;1-Methyl-4-[(4-methylphenyl)-oxidophosphaniumyl]benzene",
    "duplicated_cas_no": "",
    "SMILES": "P(=O)(C1=CC=C(C)C=C1)C2=CC=C(C)C=C2",
    "meta_data": {
        "InChI": "InChI=1S/C14H15OP/c1-11-3-7-13(8-4-11)16(15)14-9-5-12(2)6-10-14/h3-10,16H,1-2H3",
        "InChIKey": null,
        "Canonical SMILES": "O=P(C1=CC=C(C=C1)C)C2=CC=C(C=C2)C",
        "Molecular Formula": "C<sub>14</sub>H<sub>15</sub>OP",
        "Molecular Mass": "230.24",
        "Melting Point": "119-121 °C"
    }
}