{
    "cas_no": "10588-10-0",
    "key_name": "Isobutyl valerate",
    "cn_name": "戊酸异丁酯;2-甲基丙基戊酸酯;2-Methyl-1-propyl n-valerate;",
    "alternate_name": "Pentanoic acid, 2-methylpropyl ester;Valeric acid, isobutyl ester;Isobutyl valerinate;2-Methylpropyl valerate;Isobutyl valerate;Isobutyl pentanoate;2-Methyl-1-propyl pentanoate",
    "duplicated_cas_no": "",
    "SMILES": "C(OCC(C)C)(CCCC)=O",
    "meta_data": {
        "InChI": "InChI=1S/C9H18O2/c1-4-5-6-9(10)11-7-8(2)3/h8H,4-7H2,1-3H3",
        "InChIKey": null,
        "Canonical SMILES": "O=C(OCC(C)C)CCCC",
        "Molecular Formula": "C<sub>9</sub>H<sub>18</sub>O<sub>2</sub>",
        "Molecular Mass": "158.24",
        "Boiling Point": "179 °C"
    }
}