{
    "cas_no": "3371-85-5",
    "key_name": "Voacamine",
    "cn_name": null,
    "alternate_name": "Ibogamine-18-carboxylic acid, 12-methoxy-13-[(3α)-17-methoxy-17-oxovobasan-3-yl]-, methyl ester;Voacamine;6,9-Methano-5<em>H</em>-pyrido[1′,2′:1,2]azepino[4,5-<em>b</em>]indole-6(6a<em>H</em>)-carboxylic acid, 3-(14-carboxy-5-ethylidene-2,3,4,5,6,7,8,9-octahydro-3-methyl-2,6-methano-1<em>H</em>-azecino[5,4-<em>b</em>]indol-8-yl)-7-ethyl-7,8,9,10,12,13-hexahydro-2-methoxy-, dimethyl ester;Voacanginine;NSC 82591;MMH 18;Malarex",
    "duplicated_cas_no": "",
    "SMILES": "C(OC)(=O)[C@]12C3=C(C=4C(N3)=CC(=C(OC)C4)[C@@H]5C6=C(C=7C(N6)=CC=CC7)C[C@]8([C@H](C(OC)=O)[C@@](C5)(/C(=C\\C)/CN8C)[H])[H])CC[N@@]9[C@]1([C@@H](CC)C[C@](C2)(C9)[H])[H]",
    "meta_data": {
        "InChI": "InChI=1S/C43H52N4O5/c1-7-24-15-23-20-43(42(49)52-6)39-27(13-14-47(21-23)40(24)43)29-19-36(50-4)30(17-34(29)45-39)31-16-28-25(8-2)22-46(3)35(37(28)41(48)51-5)18-32-26-11-9-10-12-33(26)44-38(31)32/h8-12,17,19,23-24,28,31,35,37,40,44-45H,7,13-16,18,20-22H2,1-6H3/b25-8-/t23-,24+,28+,31-,35+,37-,40+,43-/m1/s1",
        "InChIKey": null,
        "Canonical SMILES": "O=C(OC)C1C2C(=CC)CN(C)C1CC=3C=4C=CC=CC4NC3C(C5=CC=6NC7=C(C6C=C5OC)CCN8CC9CC(CC)C8C7(C(=O)OC)C9)C2",
        "Molecular Formula": "C<sub>43</sub>H<sub>52</sub>N<sub>4</sub>O<sub>5</sub>",
        "Molecular Mass": "704.90",
        "Melting Point": "220-223 °C (decomp)"
    }
}