{
    "cas_no": "1961-77-9",
    "key_name": "Chlormadinone",
    "cn_name": "氯地孕酮;",
    "alternate_name": "Pregna-4,6-diene-3,20-dione, 6-chloro-17-hydroxy-;6-Chloro-17-hydroxypregna-4,6-diene-3,20-dione;Chlormadinone;6-Chloro-6-dehydro-17α-hydroxyprogesterone;6-Chloro-6-dehydro-17-hydroxyprogesterone;Chlormadinon",
    "duplicated_cas_no": "",
    "SMILES": "C[C@@]12[C@]([C@]3([C@@]([C@]4(C)C(C(Cl)=C3)=CC(=O)CC4)(CC1)[H])[H])(CC[C@@]2(C(C)=O)O)[H]",
    "meta_data": {
        "InChI": "InChI=1S/C21H27ClO3/c1-12(23)21(25)9-6-16-14-11-18(22)17-10-13(24)4-7-19(17,2)15(14)5-8-20(16,21)3/h10-11,14-16,25H,4-9H2,1-3H3/t14-,15+,16+,19-,20+,21+/m1/s1",
        "InChIKey": null,
        "Canonical SMILES": "O=C1C=C2C(Cl)=CC3C(CCC4(C)C3CCC4(O)C(=O)C)C2(C)CC1",
        "Molecular Formula": "C<sub>21</sub>H<sub>27</sub>ClO<sub>3</sub>",
        "Molecular Mass": "362.89",
        "Melting Point": "212-214 °C"
    }
}