{
    "cas_no": "629-62-9",
    "key_name": "Pentadecane",
    "cn_name": "十五烷;正十五烷;",
    "alternate_name": "Pentadecane;<em>n</em>-Pentadecane;NSC 172781",
    "duplicated_cas_no": "",
    "SMILES": "C(CCCCCCC)CCCCCCC",
    "meta_data": {
        "InChI": "InChI=1S/C15H32/c1-3-5-7-9-11-13-15-14-12-10-8-6-4-2/h3-15H2,1-2H3",
        "InChIKey": null,
        "Canonical SMILES": "CCCCCCCCCCCCCCC",
        "Molecular Formula": "C<sub>15</sub>H<sub>32</sub>",
        "Molecular Mass": "212.41",
        "Boiling Point": "270.6 °C @ Press: 760 Torr",
        "Melting Point": "9.9 °C",
        "Density": "0.7687 g/cm³ @ Temp: 20 °C"
    }
}