{
    "cas_no": "529-59-9",
    "key_name": "Genistin",
    "cn_name": "染料木苷;染料木甙;4\",5,7-三羟异黄酮-7-糖苷;",
    "alternate_name": "4<em>H</em>-1-Benzopyran-4-one, 7-(β-<span class=\"text-smallcaps\">D</span>-glucopyranosyloxy)-5-hydroxy-3-(4-hydroxyphenyl)-;Genistin;7-(β-<span class=\"text-smallcaps\">D</span>-Glucopyranosyloxy)-5-hydroxy-3-(4-hydroxyphenyl)-4<em>H</em>-1-benzopyran-4-one;Genistein, 7-β-<span class=\"text-smallcaps\">D</span>-glucopyranoside;Genistoside;Genistein 7-<em>O</em>-β-<span class=\"text-smallcaps\">D</span>-glucoside;Genisteol 7-monoglucoside;Genistein 7-<em>O</em>-glucoside;Genistine;4′,5,7-Trihydroxyisoflavone 7-β-<span class=\"text-smallcaps\">D</span>-glucopyranoside;Genistein 7-<em>O</em>-β-<span class=\"text-smallcaps\">D</span>-glucopyranoside;Genistein 7-<em>O</em>-β-glucoside;NSC 5112;5,4′-Di-hydroxyisoflavone-7-<em>O</em>-β-<span class=\"text-smallcaps\">D</span>-glucopyranoside",
    "duplicated_cas_no": "100455-46-7;25449-68-7;30370-89-9",
    "SMILES": "O=C1C=2C(=CC(O[C@@H]3O[C@H](CO)[C@@H](O)[C@H](O)[C@H]3O)=CC2O)OC=C1C4=CC=C(O)C=C4",
    "meta_data": {
        "InChI": "InChI=1S/C21H20O10/c22-7-15-18(26)19(27)20(28)21(31-15)30-11-5-13(24)16-14(6-11)29-8-12(17(16)25)9-1-3-10(23)4-2-9/h1-6,8,15,18-24,26-28H,7H2/t15-,18-,19+,20-,21-/m1/s1",
        "InChIKey": null,
        "Canonical SMILES": "O=C1C(=COC2=CC(OC3OC(CO)C(O)C(O)C3O)=CC(O)=C12)C=4C=CC(O)=CC4",
        "Molecular Formula": "C<sub>21</sub>H<sub>20</sub>O<sub>10</sub>",
        "Molecular Mass": "432.38",
        "Melting Point": "259 °C (decomp)"
    }
}