{
    "cas_no": "304903-10-4",
    "key_name": "1-Ethyl-1<em>H</em>-pyrazole-4-carboxaldehyde",
    "cn_name": null,
    "alternate_name": "1<em>H</em>-Pyrazole-4-carboxaldehyde, 1-ethyl-;1-Ethyl-1<em>H</em>-pyrazole-4-carboxaldehyde;1-Ethylpyrazole-4-carboxaldehyde;1-Ethylpyrazole-4-carbaldehyde;1-Ethyl-1<em>H</em>-pyrazole-4-carbaldehyde",
    "duplicated_cas_no": "",
    "SMILES": "C(=O)C1=CN(CC)N=C1",
    "meta_data": {
        "InChI": "InChI=1S/C6H8N2O/c1-2-8-4-6(5-9)3-7-8/h3-5H,2H2,1H3",
        "InChIKey": null,
        "Canonical SMILES": "O=CC=1C=NN(C1)CC",
        "Molecular Formula": "C<sub>6</sub>H<sub>8</sub>N<sub>2</sub>O",
        "Molecular Mass": "124.14",
        "Boiling Point": "46-48 °C @ Press: 5 Torr"
    }
}