{
    "cas_no": "688-73-3",
    "key_name": "Tributylstannane",
    "cn_name": "三正丁基氢锡;氢化三丁锡;",
    "alternate_name": "Stannane, tributyl-;Tributyltin hydride;Tributylstannane;Tributylstannic hydride;Tri-<em>n</em>-butyltin hydride;Tributylstannyl hydride;Tri-<em>n</em>-butylstannane;Hydridotris(butyl)tin;SnH(butyl)<sub>3</sub>",
    "duplicated_cas_no": "30115-44-7",
    "SMILES": "[SnH](CCCC)(CCCC)CCCC",
    "meta_data": {
        "InChI": "InChI=1S/3C4H9.Sn.H/c3*1-3-4-2;;/h3*1,3-4H2,2H3;;",
        "InChIKey": null,
        "Canonical SMILES": "CCCC[SnH](CCCC)CCCC",
        "Molecular Formula": "C<sub>12</sub>H<sub>28</sub>Sn",
        "Molecular Mass": "291.06",
        "Boiling Point": "76-81 °C @ Press: 0.7-0.9 Torr",
        "Density": "1.103 g/cm³ @ Temp: 20 °C"
    }
}