{
    "cas_no": "10106-41-9",
    "key_name": "(16α)-21-(Acetyloxy)-17-hydroxy-16-methylpregna-1,4,9(11)-triene-3,20-dione",
    "cn_name": "17&alpha;,21-二羟基-16&alpha;-甲基孕甾-1,4,9(11)-三烯-3,20-二酮-21-醋酸酯;21-乙酰氧基-17&alpha;-羟基;",
    "alternate_name": "Pregna-1,4,9(11)-triene-3,20-dione, 21-(acetyloxy)-17-hydroxy-16-methyl-, (16α)-;Pregna-1,4,9(11)-triene-3,20-dione, 17,21-dihydroxy-16α-methyl-, 21-acetate;(16α)-21-(Acetyloxy)-17-hydroxy-16-methylpregna-1,4,9(11)-triene-3,20-dione",
    "duplicated_cas_no": "",
    "SMILES": "C[C@@]12[C@]([C@]3(C(=CC1)[C@]4(C)C(CC3)=CC(=O)C=C4)[H])(C[C@@H](C)[C@@]2(C(COC(C)=O)=O)O)[H]",
    "meta_data": {
        "InChI": "InChI=1S/C24H30O5/c1-14-11-20-18-6-5-16-12-17(26)7-9-22(16,3)19(18)8-10-23(20,4)24(14,28)21(27)13-29-15(2)25/h7-9,12,14,18,20,28H,5-6,10-11,13H2,1-4H3/t14-,18-,20+,22+,23+,24+/m1/s1",
        "InChIKey": null,
        "Canonical SMILES": "O=C1C=CC2(C(=C1)CCC3C2=CCC4(C)C3CC(C)C4(O)C(=O)COC(=O)C)C",
        "Molecular Formula": "C<sub>24</sub>H<sub>30</sub>O<sub>5</sub>",
        "Molecular Mass": "398.49",
        "Melting Point": "210-213 °C"
    }
}