{
    "cas_no": "446-86-6",
    "key_name": "Azathioprine",
    "cn_name": "硫唑嘌呤;6-[(1-甲基-4-硝基-1H-咪唑-5-基)硫代]-1H-嘌呤;",
    "alternate_name": "9<em>H</em>-Purine, 6-[(1-methyl-4-nitro-1<em>H</em>-imidazol-5-yl)thio]-;Purine, 6-[(1-methyl-4-nitroimidazol-5-yl)thio]-;1<em>H</em>-Purine, 6-[(1-methyl-4-nitro-1<em>H</em>-imidazol-5-yl)thio]-;6-[(1-Methyl-4-nitro-1<em>H</em>-imidazol-5-yl)thio]-9<em>H</em>-purine;NSC 39084;Azathioprine;Azothioprine;Imuran;6-(1-Methyl-4-nitroimidazol-5-yl)thiopurine;6-(1-Methyl-4-nitromidazol-5-ylthio)purine;Muran;BW 57-322;Imurel;Imurek;Azathioprin;Azanin;Azoran;Azamune;Azathropine;Azafor;Azasan;MeSH ID: D001379",
    "duplicated_cas_no": "6165-04-4;11120-16-4;33609-91-5",
    "SMILES": "S(C1=C2C(N=CN2)=NC=N1)C3=C(N(=O)=O)N=CN3C",
    "meta_data": {
        "InChI": "InChI=1S/C9H7N7O2S/c1-15-4-14-7(16(17)18)9(15)19-8-5-6(11-2-10-5)12-3-13-8/h2-4H,1H3,(H,10,11,12,13)",
        "InChIKey": null,
        "Canonical SMILES": "O=N(=O)C=1N=CN(C1SC2=NC=NC=3N=CNC32)C",
        "Molecular Formula": "C<sub>9</sub>H<sub>7</sub>N<sub>7</sub>O<sub>2</sub>S",
        "Molecular Mass": "277.26",
        "Melting Point": "243.5 °C"
    }
}