{
    "cas_no": "58493-49-5",
    "key_name": "Olvanil",
    "cn_name": "奥伐尼;",
    "alternate_name": "9-Octadecenamide, <em>N</em>-[(4-hydroxy-3-methoxyphenyl)methyl]-, (9<em>Z</em>)-;9-Octadecenamide, <em>N</em>-[(4-hydroxy-3-methoxyphenyl)methyl]-, (<em>Z</em>)-;(9<em>Z</em>)-<em>N</em>-[(4-Hydroxy-3-methoxyphenyl)methyl]-9-octadecenamide;Olvanil;NE 19550;<em>N</em>-Vanillyloleamide;<em>N</em>-Vanillyl oleic amide;Oleoylvanillamine",
    "duplicated_cas_no": "875336-24-6",
    "SMILES": "C(NC(CCCCCCC/C=C\\CCCCCCCC)=O)C1=CC(OC)=C(O)C=C1",
    "meta_data": {
        "InChI": "InChI=1S/C26H43NO3/c1-3-4-5-6-7-8-9-10-11-12-13-14-15-16-17-18-26(29)27-22-23-19-20-24(28)25(21-23)30-2/h10-11,19-21,28H,3-9,12-18,22H2,1-2H3,(H,27,29)/b11-10-",
        "InChIKey": null,
        "Canonical SMILES": "O=C(NCC1=CC=C(O)C(OC)=C1)CCCCCCCC=CCCCCCCCC",
        "Molecular Formula": "C<sub>26</sub>H<sub>43</sub>NO<sub>3</sub>",
        "Molecular Mass": "417.62",
        "Melting Point": "36 °C"
    }
}