{
    "cas_no": "56-93-9",
    "key_name": "Benzyltrimethylammonium chloride",
    "cn_name": "苄基三甲基氯化铵;",
    "alternate_name": "Benzenemethanaminium, <em>N</em>,<em>N</em>,<em>N</em>-trimethyl-, chloride (1:1);Ammonium, benzyltrimethyl-, chloride;Benzyltrimethylammonium chloride;Benzenemethanaminium, <em>N</em>,<em>N</em>,<em>N</em>-trimethyl-, chloride;Trimethylbenzylammonium chloride;BTM;TMBAC;Hipochem Migrator J;Variquat B 200;BTMAC 100;Marcor 716;BTMAC 50;Amberlite IRC 178(Cl)",
    "duplicated_cas_no": "",
    "SMILES": "C([N+](C)(C)C)C1=CC=CC=C1.[Cl-]",
    "meta_data": {
        "InChI": "InChI=1S/C10H16N.ClH/c1-11(2,3)9-10-7-5-4-6-8-10;/h4-8H,9H2,1-3H3;1H/q+1;/p-1",
        "InChIKey": null,
        "Canonical SMILES": "[Cl-].C=1C=CC(=CC1)C[N+](C)(C)C",
        "Molecular Formula": "C<sub>10</sub>H<sub>16</sub>N.Cl",
        "Molecular Mass": "",
        "Melting Point": "243 °C",
        "Density": "1.07 g/cm³ @ Temp: 20 °C"
    }
}