{
    "cas_no": "617-84-5",
    "key_name": "Diethylformamide",
    "cn_name": "N,N-二乙基甲酰胺;",
    "alternate_name": "Formamide, <em>N</em>,<em>N</em>-diethyl-;<em>N</em>,<em>N</em>-Diethylformamide;Diethylformamide;<em>N</em>-Formyldiethylamine;NSC 6242",
    "duplicated_cas_no": "",
    "SMILES": "N(CC)(CC)C=O",
    "meta_data": {
        "InChI": "InChI=1S/C5H11NO/c1-3-6(4-2)5-7/h5H,3-4H2,1-2H3",
        "InChIKey": null,
        "Canonical SMILES": "O=CN(CC)CC",
        "Molecular Formula": "C<sub>5</sub>H<sub>11</sub>NO",
        "Molecular Mass": "101.15",
        "Boiling Point": "177.5 °C",
        "Melting Point": "60-61 °C",
        "Density": "0.9057 g/cm³ @ Temp: 20 °C"
    }
}