{
    "cas_no": "872-53-7",
    "key_name": "Cyclopentanecarboxaldehyde",
    "cn_name": "环戊基甲醛;环戊烷甲醛;",
    "alternate_name": "Cyclopentanecarboxaldehyde;Cyclopentanealdehyde;Cyclopentylformaldehyde;Formylcyclopentane;Cyclopentyl aldehyde;NSC 17492;Cyclopentanecarbaldehyde",
    "duplicated_cas_no": "",
    "SMILES": "C(=O)C1CCCC1",
    "meta_data": {
        "InChI": "InChI=1S/C6H10O/c7-5-6-3-1-2-4-6/h5-6H,1-4H2",
        "InChIKey": null,
        "Canonical SMILES": "O=CC1CCCC1",
        "Molecular Formula": "C<sub>6</sub>H<sub>10</sub>O",
        "Molecular Mass": "98.14",
        "Boiling Point": "133.5 °C",
        "Melting Point": "154-156 °C",
        "Density": "0.9356 g/cm³ @ Temp: 25 °C"
    }
}