{
    "cas_no": "13963-57-0",
    "key_name": "Aluminum acetylacetonate",
    "cn_name": "三乙酰丙酮铝;",
    "alternate_name": "Aluminum, tris(2,4-pentanedionato-κ<em>O</em><sup>2</sup>,κ<em>O</em><sup>4</sup>)-, (<em>OC</em>-6-11)-;Aluminum, tris(2,4-pentanedionato)-;Aluminum, tris(2,4-pentanedionato-<em>O</em>,<em>O</em>′)-, (<em>OC</em>-6-11)-;Aluminum, tris(2,4-pentanedionato-κ<em>O</em>,κ<em>O</em>′)-, (<em>OC</em>-6-11)-;(<em>OC</em>-6-11)-Tris(2,4-pentanedionato-κ<em>O</em><sup>2</sup>,κ<em>O</em><sup>4</sup>)aluminum;Aluminum acetylacetonate;Tris(acetylacetonyl)aluminum;Tris(2,4-pentanedionato)aluminum;Tris(acetylacetonato)aluminum;Tris(acetylacetone)aluminum;Tris(2,4-pentanedione)aluminum;Dotite Al;Triacetylacetonate aluminum;Alumichelate A;Aluminum Chelate A;Nacem Al;Nacem Aluminum;Tris(acetylacetonate)aluminum;AKA 080;Aluminum trisacetoacetate;Coponyl N 5792;NSC 4650;NSC 52330;Coponyl 5792;M 5A;Aluminum pentanedionate;Orgatix LA 80;Aluminum tris(2,4-pentadionate);Al(III)-AA;A 033;TR 25D;A 1009;LD 805;A 1013R;AL 3100;Orgatix AL 3100;A 6;HY 1805",
    "duplicated_cas_no": "131553-52-1;26676-32-4;224778-47-6",
    "SMILES": "CC1=O[Al+3]23(O=C(C)[CH-]C(C)=O2)(O=C(C)[CH-]C(C)=O3)O=C(C)[CH-]1",
    "meta_data": {
        "InChI": "InChI=1S/3C5H7O2.Al/c3*1-4(6)3-5(2)7;/h3*3H,1-2H3;/q3*-1;+3",
        "InChIKey": null,
        "Canonical SMILES": "O1=C([CH-]C(=O[Al+3]123(O=C([CH-]C(=O2)C)C)O=C([CH-]C(=O3)C)C)C)C",
        "Molecular Formula": "C<sub>15</sub>H<sub>21</sub>AlO<sub>6</sub>",
        "Molecular Mass": "",
        "Boiling Point": "315 °C",
        "Melting Point": "189 °C",
        "Density": "1.213 g/cm³"
    }
}