{
    "cas_no": "4447-60-3",
    "key_name": "2,2′,2′′-[Methylidynetris(oxy)]tris[propane]",
    "cn_name": "原甲酸三异丙酯;",
    "alternate_name": "Propane, 2,2′,2′′-[methylidynetris(oxy)]tris-;Orthoformic acid, triisopropyl ester;2,2′,2′′-[Methylidynetris(oxy)]tris[propane];Triisopropyl orthoformate;Tri-<em>iso</em>-propyl orthoformate;Tri(prop-2-yl) orthoformate;Tri(2-propyl) orthoformate;2-[Di(propan-2-yloxy)methoxy]propane;2-[Bis(propan-2-yloxy)methoxy]propane",
    "duplicated_cas_no": "",
    "SMILES": "C(OC(C)C)(OC(C)C)OC(C)C",
    "meta_data": {
        "InChI": "InChI=1S/C10H22O3/c1-7(2)11-10(12-8(3)4)13-9(5)6/h7-10H,1-6H3",
        "InChIKey": null,
        "Canonical SMILES": "O(C(OC(C)C)OC(C)C)C(C)C",
        "Molecular Formula": "C<sub>10</sub>H<sub>22</sub>O<sub>3</sub>",
        "Molecular Mass": "190.28",
        "Boiling Point": "167 °C",
        "Density": "0.8600 g/cm³ @ Temp: 25 °C"
    }
}