{
    "cas_no": "455-19-6",
    "key_name": "4-(Trifluoromethyl)benzaldehyde",
    "cn_name": "对三氟甲基苯甲醛;4-三氟甲基苯甲醛;",
    "alternate_name": "Benzaldehyde, 4-(trifluoromethyl)-;<em>p</em>-Tolualdehyde, α,α,α-trifluoro-;4-(Trifluoromethyl)benzaldehyde;<em>p</em>-(Trifluoromethyl)benzaldehyde;α,α,α-Trifluoro-<em>p</em>-tolualdehyde;α,α,α-Trifluoro-4-tolualdehyde;1-Formyl-4-trifluoromethylbenzene",
    "duplicated_cas_no": "",
    "SMILES": "C(F)(F)(F)C1=CC=C(C=O)C=C1",
    "meta_data": {
        "InChI": "InChI=1S/C8H5F3O/c9-8(10,11)7-3-1-6(5-12)2-4-7/h1-5H",
        "InChIKey": null,
        "Canonical SMILES": "O=CC1=CC=C(C=C1)C(F)(F)F",
        "Molecular Formula": "C<sub>8</sub>H<sub>5</sub>F<sub>3</sub>O",
        "Molecular Mass": "174.12",
        "Boiling Point": "66-67 °C @ Press: 13 Torr"
    }
}