{
    "cas_no": "2210-28-8",
    "key_name": "Propyl methacrylate",
    "cn_name": "丙基-2-甲基-2-丙烯酸酯;甲基丙烯酸丙酯;",
    "alternate_name": "2-Propenoic acid, 2-methyl-, propyl ester;Methacrylic acid, propyl ester;Propyl methacrylate;<em>n</em>-Propyl methacrylate;Propyl 2-methyl-2-propenoate;Propyl 2-methylacrylate;NSC 32624",
    "duplicated_cas_no": "30110-61-3;1887074-76-1",
    "SMILES": "C(C(C)=C)(OCCC)=O",
    "meta_data": {
        "InChI": "InChI=1S/C7H12O2/c1-4-5-9-7(8)6(2)3/h2,4-5H2,1,3H3",
        "InChIKey": null,
        "Canonical SMILES": "O=C(OCCC)C(=C)C",
        "Molecular Formula": "C<sub>7</sub>H<sub>12</sub>O<sub>2</sub>",
        "Molecular Mass": "128.17",
        "Boiling Point": "141 °C @ Press: 760 Torr",
        "Density": "0.9022 g/cm³ @ Temp: 20 °C"
    }
}