{
    "cas_no": "2876-71-3",
    "key_name": "Methyl 2-naphthaleneacetate",
    "cn_name": null,
    "alternate_name": "2-Naphthaleneacetic acid, methyl ester;Methyl 2-naphthaleneacetate;Methyl β-naphthylacetate;Methyl (2-naphthyl)acetate;Methyl 2-(naphthalen-2-yl)acetate;Methyl 2-(2-naphthyl)acetate",
    "duplicated_cas_no": "",
    "SMILES": "C(C(OC)=O)C1=CC2=C(C=C1)C=CC=C2",
    "meta_data": {
        "InChI": "InChI=1S/C13H12O2/c1-15-13(14)9-10-6-7-11-4-2-3-5-12(11)8-10/h2-8H,9H2,1H3",
        "InChIKey": null,
        "Canonical SMILES": "O=C(OC)CC=1C=CC=2C=CC=CC2C1",
        "Molecular Formula": "C<sub>13</sub>H<sub>12</sub>O<sub>2</sub>",
        "Molecular Mass": "200.23",
        "Boiling Point": "136 °C",
        "Melting Point": "51-53 °C"
    }
}