{
    "cas_no": "118974-02-0",
    "key_name": "Fumitremorgin C",
    "cn_name": null,
    "alternate_name": "5<em>H</em>,14<em>H</em>-Pyrrolo[1′′,2′′:4′,5′]pyrazino[1′,2′:1,6]pyrido[3,4-<em>b</em>]indole-5,14-dione, 1,2,3,5a,6,11,12,14a-octahydro-9-methoxy-12-(2-methyl-1-propen-1-yl)-, (5a<em>S</em>,12<em>S</em>,14a<em>S</em>)-;5<em>H</em>,14<em>H</em>-Pyrrolo[1′′,2′′:4′,5′]pyrazino[1′,2′:1,6]pyrido[3,4-<em>b</em>]indole-5,14-dione, 1,2,3,5a,6,11,12,14a-octahydro-9-methoxy-12-(2-methyl-1-propenyl)-, [5a<em>S</em>-(5aα,12β,14aα)]-;5<em>H</em>,14<em>H</em>-Pyrrolo[1′′,2′′:4′,5′]pyrazino[1′,2′:1,6]pyrido[3,4-<em>b</em>]indole-5,14-dione, 1,2,3,5a,6,11,12,14a-octahydro-9-methoxy-12-(2-methyl-1-propenyl)-, (5a<em>S</em>,12<em>S</em>,14a<em>S</em>)-;(5a<em>S</em>,12<em>S</em>,14a<em>S</em>)-1,2,3,5a,6,11,12,14a-Octahydro-9-methoxy-12-(2-methyl-1-propen-1-yl)-5<em>H</em>,14<em>H</em>-pyrrolo[1′′,2′′:4′,5′]pyrazino[1′,2′:1,6]pyrido[3,4-<em>b</em>]indole-5,14-dione;Fumitremorgin C;12α-Fumitremorgin C",
    "duplicated_cas_no": "",
    "SMILES": "C(=C(C)C)[C@@H]1N2[C@@](CC3=C1NC=4C3=CC=C(OC)C4)(C(=O)N5[C@](C2=O)(CCC5)[H])[H]",
    "meta_data": {
        "InChI": "InChI=1S/C22H25N3O3/c1-12(2)9-18-20-15(14-7-6-13(28-3)10-16(14)23-20)11-19-21(26)24-8-4-5-17(24)22(27)25(18)19/h6-7,9-10,17-19,23H,4-5,8,11H2,1-3H3/t17-,18-,19-/m0/s1",
        "InChIKey": null,
        "Canonical SMILES": "O=C1N2CCCC2C(=O)N3C(C=C(C)C)C=4NC=5C=C(OC)C=CC5C4CC13",
        "Molecular Formula": "C<sub>22</sub>H<sub>25</sub>N<sub>3</sub>O<sub>3</sub>",
        "Molecular Mass": "379.45",
        "Melting Point": "259.5-260.5 °C"
    }
}