{
    "cas_no": "73-67-6",
    "key_name": "4-Amino-2-methyl-5-pyrimidinemethanol",
    "cn_name": null,
    "alternate_name": "5-Pyrimidinemethanol, 4-amino-2-methyl-;4-Amino-2-methyl-5-pyrimidinemethanol;4-Amino-5-hydroxymethyl-2-methylpyrimidine;6-Amino-5-hydroxymethyl-2-methylpyrimidine;2-Methyl-4-amino-5-pyrimidinemethanol;2-Methyl-4-amino-5-(hydroxymethyl)pyrimidine;OMPM;Pyramin;Toxopyrimidine;TXP;Pyramine;Pyrazan;2-Methyl-5-hydroxymethyl-6-aminopyrimidine;2-Methyl-6-amino-5-hydroxymethylpyrimidine;Pyramine (pyridoxine antagonist);NSC 28247;4-Amino-2-methyl-5-hydroxymethylpyrimidine;(4-Imino-2-methyl-1,4-dihydropyrimidin-5-yl)methanol;(4-Amino-2-methyl-pyrimidin-5-yl)-methanol",
    "duplicated_cas_no": "",
    "SMILES": "C(O)C=1C(N)=NC(C)=NC1",
    "meta_data": {
        "InChI": "InChI=1S/C6H9N3O/c1-4-8-2-5(3-10)6(7)9-4/h2,10H,3H2,1H3,(H2,7,8,9)",
        "InChIKey": null,
        "Canonical SMILES": "OCC1=CN=C(N=C1N)C",
        "Molecular Formula": "C<sub>6</sub>H<sub>9</sub>N<sub>3</sub>O",
        "Molecular Mass": "139.16",
        "Melting Point": "198 °C"
    }
}