{
    "cas_no": "57060-88-5",
    "key_name": "3-Isoquinolinecarboxylic acid, 1,2,3,4-tetrahydro-, methyl ester, hydrochloride (1:1)",
    "cn_name": null,
    "alternate_name": "3-Isoquinolinecarboxylic acid, 1,2,3,4-tetrahydro-, methyl ester, hydrochloride (1:1);3-Isoquinolinecarboxylic acid, 1,2,3,4-tetrahydro-, methyl ester, hydrochloride;Methyl 1,2,3,4-tetrahydro-3-isoquinolinecarboxylate hydrochloride;1,2,3,4-Tetrahydro-isoquinoline-3-carboxylic acid methyl ester; hydrochloride",
    "duplicated_cas_no": "",
    "SMILES": "C(OC)(=O)C1CC=2C(CN1)=CC=CC2.Cl",
    "meta_data": {
        "InChI": "InChI=1S/C11H13NO2.ClH/c1-14-11(13)10-6-8-4-2-3-5-9(8)7-12-10;/h2-5,10,12H,6-7H2,1H3;1H",
        "InChIKey": null,
        "Canonical SMILES": "Cl.O=C(OC)C1NCC=2C=CC=CC2C1",
        "Molecular Formula": "C<sub>11</sub>H<sub>13</sub>NO<sub>2</sub>.ClH",
        "Molecular Mass": "",
        "Melting Point": "250-252 °C (decomp)"
    }
}