{
    "cas_no": "623-47-2",
    "key_name": "Ethyl propiolate",
    "cn_name": "丙炔酸乙酯;",
    "alternate_name": "2-Propynoic acid, ethyl ester;Propiolic acid, ethyl ester;Ethyl 2-propynoate;Ethyl propiolate;Ethyl propynoate;Ethyl acetylenecarboxylate;(Ethoxycarbonyl)acetylene;Carboethoxyacetylene;Ethyl acetylenemonocarboxylate;Ethyl propargylate;NSC 60551;Propynoic acid ethyl ester;Propargylic acid ethyl ester",
    "duplicated_cas_no": "",
    "SMILES": "C(OCC)(C#C)=O",
    "meta_data": {
        "InChI": "InChI=1S/C5H6O2/c1-3-5(6)7-4-2/h1H,4H2,2H3",
        "InChIKey": null,
        "Canonical SMILES": "O=C(C#C)OCC",
        "Molecular Formula": "C<sub>5</sub>H<sub>6</sub>O<sub>2</sub>",
        "Molecular Mass": "98.10",
        "Boiling Point": "120 °C"
    }
}