{
    "cas_no": "764-48-7",
    "key_name": "Hydroxyethyl vinyl ether",
    "cn_name": "2-乙烯氧基乙醇;乙烯基乙二醇醚;",
    "alternate_name": "Ethanol, 2-(ethenyloxy)-;Ethanol, 2-(vinyloxy)-;2-(Ethenyloxy)ethanol;Ethylene glycol vinyl ether;Ethylene glycol monovinyl ether;2-(Vinyloxy)ethanol;2-Hydroxyethyl vinyl ether;Vinyloxyethanol;Monovinyl glycol ether;Hydroxyethyl vinyl ether;2-Vinyloxy-1-ethanol;2-(Ethenyloxy)ethan-1-ol;2-Ethenoxyethanol",
    "duplicated_cas_no": "",
    "SMILES": "C(OC=C)CO",
    "meta_data": {
        "InChI": "InChI=1S/C4H8O2/c1-2-6-4-3-5/h2,5H,1,3-4H2",
        "InChIKey": null,
        "Canonical SMILES": "OCCOC=C",
        "Molecular Formula": "C<sub>4</sub>H<sub>8</sub>O<sub>2</sub>",
        "Molecular Mass": "88.11",
        "Boiling Point": "141.6 °C",
        "Density": "0.9821 g/cm³ @ Temp: 20 °C"
    }
}