{
    "cas_no": "63358-49-6",
    "key_name": "Aspoxicillin",
    "cn_name": null,
    "alternate_name": "Glycinamide, <em>N</em>-methyl-<span class=\"text-smallcaps\">D</span>-asparaginyl-<em>N</em>-[(2<em>S</em>,5<em>R</em>,6<em>R</em>)-2-carboxy-3,3-dimethyl-7-oxo-4-thia-1-azabicyclo[3.2.0]hept-6-yl]-2-(4-hydroxyphenyl)-, (2<em>R</em>)-;Glycinamide, <em>N</em>-methyl-<span class=\"text-smallcaps\">D</smallcap>-asparaginyl-<em>N</em>-(2-carboxy-3,3-dimethyl-7-oxo-4-thia-1-azabicyclo[3.2.0]hept-6-yl)-<smallcap>D</span>-2-(4-hydroxyphenyl)-, [2<em>S</em>-(2α,5α,6β)]-;TA 058;Aspoxicillin;ASPC;Doyle",
    "duplicated_cas_no": "",
    "SMILES": "N(C([C@H](NC([C@@H](CC(NC)=O)N)=O)C1=CC=C(O)C=C1)=O)[C@H]2[C@@]3(N([C@@H](C(O)=O)C(C)(C)S3)C2=O)[H]",
    "meta_data": {
        "InChI": "InChI=1S/C21H27N5O7S/c1-21(2)15(20(32)33)26-18(31)14(19(26)34-21)25-17(30)13(9-4-6-10(27)7-5-9)24-16(29)11(22)8-12(28)23-3/h4-7,11,13-15,19,27H,8,22H2,1-3H3,(H,23,28)(H,24,29)(H,25,30)(H,32,33)/t11-,13-,14-,15+,19-/m1/s1",
        "InChIKey": null,
        "Canonical SMILES": "O=C(O)C1N2C(=O)C(NC(=O)C(NC(=O)C(N)CC(=O)NC)C3=CC=C(O)C=C3)C2SC1(C)C",
        "Molecular Formula": "C<sub>21</sub>H<sub>27</sub>N<sub>5</sub>O<sub>7</sub>S",
        "Molecular Mass": "493.53",
        "Melting Point": "195-198 °C (decomp)"
    }
}