{
    "cas_no": "333-27-7",
    "key_name": "Methyl triflate",
    "cn_name": "三氟甲烷磺酸甲酯;",
    "alternate_name": "Methanesulfonic acid, 1,1,1-trifluoro-, methyl ester;Methanesulfonic acid, trifluoro-, methyl ester;Methyl trifluoromethanesulfonate;Methyl triflate;Trifluoromethanesulfonic acid methyl ester;NSC 270679;Methyl trifluoromethansulfonate",
    "duplicated_cas_no": "",
    "SMILES": "S(C(F)(F)F)(OC)(=O)=O",
    "meta_data": {
        "InChI": "InChI=1S/C2H3F3O3S/c1-8-9(6,7)2(3,4)5/h1H3",
        "InChIKey": null,
        "Canonical SMILES": "O=S(=O)(OC)C(F)(F)F",
        "Molecular Formula": "C<sub>2</sub>H<sub>3</sub>F<sub>3</sub>O<sub>3</sub>S",
        "Molecular Mass": "164.10",
        "Boiling Point": "99 °C",
        "Density": "1.496 g/cm³"
    }
}