{
    "cas_no": "1619-16-5",
    "key_name": "Hydroxyvalerenic acid",
    "cn_name": null,
    "alternate_name": "2-Propenoic acid, 3-[(1<em>R</em>,4<em>S</em>,7<em>R</em>,7a<em>R</em>)-2,4,5,6,7,7a-hexahydro-1-hydroxy-3,7-dimethyl-1<em>H</em>-inden-4-yl]-2-methyl-, (2<em>E</em>)-;Indene-4-acrylic acid, 2,4,5,6,7,7a-hexahydro-1-hydroxy-α,3,7-trimethyl-;2-Propenoic acid, 3-(2,4,5,6,7,7a-hexahydro-1-hydroxy-3,7-dimethyl-1<em>H</em>-inden-4-yl)-2-methyl-, [1<em>R</em>-[1α,4α(<em>E</em>),7β,7aα]]-;Valerenolic acid;(2<em>E</em>)-3-[(1<em>R</em>,4<em>S</em>,7<em>R</em>,7a<em>R</em>)-2,4,5,6,7,7a-Hexahydro-1-hydroxy-3,7-dimethyl-1<em>H</em>-inden-4-yl]-2-methyl-2-propenoic acid;Hydroxyvalerenic acid",
    "duplicated_cas_no": "",
    "SMILES": "C(=C(/C(O)=O)\\C)\\[C@H]1C=2[C@]([C@H](O)CC2C)([C@H](C)CC1)[H]",
    "meta_data": {
        "InChI": "InChI=1S/C15H22O3/c1-8-4-5-11(6-10(3)15(17)18)13-9(2)7-12(16)14(8)13/h6,8,11-12,14,16H,4-5,7H2,1-3H3,(H,17,18)/b10-6+/t8-,11+,12-,14+/m1/s1",
        "InChIKey": null,
        "Canonical SMILES": "O=C(O)C(=CC1C2=C(C)CC(O)C2C(C)CC1)C",
        "Molecular Formula": "C<sub>15</sub>H<sub>22</sub>O<sub>3</sub>",
        "Molecular Mass": "250.33",
        "Melting Point": "171-173 °C"
    }
}