{
    "cas_no": "79622-59-6",
    "key_name": "Fluazinam",
    "cn_name": "氟啶胺;N-[3-氯-5-(三氟甲基)-2-吡啶基]-3-氯-4-(三氟甲基)-2,6-二硝基苯胺;",
    "alternate_name": "2-Pyridinamine, 3-chloro-<em>N</em>-[3-chloro-2,6-dinitro-4-(trifluoromethyl)phenyl]-5-(trifluoromethyl)-;3-Chloro-<em>N</em>-[3-chloro-2,6-dinitro-4-(trifluoromethyl)phenyl]-5-(trifluoromethyl)-2-pyridinamine;<em>N</em>-(3-Chloro-5-trifluoromethyl-2-pyridyl)-2,6-dinitro-3-chloro-4-trifluoromethylaniline;PP 192;IKF 1216;Shirlan Flow;Fluazinam;Frowncide;ASC 67178;ASC 66825;Shirlan;Shirlan (Zeneca);Altima;Frowncide SC;Omega;Omega (pesticide);Sekoya;Mapro;Ohayo;Zignal;3-Chloro-N-(3-chloro-5-trifluoromethyl-2-pyridyl)-α,α,α-trifluoro-2,6-dinitro-p-toluidine;Lektivar 40SC;Gem (fungicide)",
    "duplicated_cas_no": "113015-31-9;160170-67-2;1135442-54-4",
    "SMILES": "N(C1=C(N(=O)=O)C(Cl)=C(C(F)(F)F)C=C1N(=O)=O)C2=C(Cl)C=C(C(F)(F)F)C=N2",
    "meta_data": {
        "InChI": "InChI=1S/C13H4Cl2F6N4O4/c14-6-1-4(12(16,17)18)3-22-11(6)23-9-7(24(26)27)2-5(13(19,20)21)8(15)10(9)25(28)29/h1-3H,(H,22,23)",
        "InChIKey": null,
        "Canonical SMILES": "O=N(=O)C=1C=C(C(Cl)=C(C1NC2=NC=C(C=C2Cl)C(F)(F)F)N(=O)=O)C(F)(F)F",
        "Molecular Formula": "C<sub>13</sub>H<sub>4</sub>Cl<sub>2</sub>F<sub>6</sub>N<sub>4</sub>O<sub>4</sub>",
        "Molecular Mass": "465.09",
        "Melting Point": "113 °C"
    }
}