{
    "cas_no": "98-02-2",
    "key_name": "2-Furanmethanethiol",
    "cn_name": "糠(基)硫醇;",
    "alternate_name": "2-Furanmethanethiol;Furfuryl mercaptan;Furfuryl thiol;2-Furylmethyl mercaptan;2-Furylmethanethiol;2-(Mercaptomethyl)furan;(2-Furanyl)methylmercaptan;2-Furfurylmercaptan;Furan-2-ylmethanethiol;NSC 41142;2-Furfurylthiol;Furfurylthiol;2-Furylmethylthiol",
    "duplicated_cas_no": "",
    "SMILES": "C(S)C1=CC=CO1",
    "meta_data": {
        "InChI": "InChI=1S/C5H6OS/c7-4-5-2-1-3-6-5/h1-3,7H,4H2",
        "InChIKey": null,
        "Canonical SMILES": "SCC=1OC=CC1",
        "Molecular Formula": "C<sub>5</sub>H<sub>6</sub>OS",
        "Molecular Mass": "114.17",
        "Boiling Point": "157 °C"
    }
}