{
    "cas_no": "618-31-5",
    "key_name": "Benzal bromide",
    "cn_name": "二溴甲苯;",
    "alternate_name": "Benzene, (dibromomethyl)-;Toluene, α,α-dibromo-;(Dibromomethyl)benzene;Benzylidene bromide;Benzal bromide;Dibromophenylmethane;α,α-Dibromotoluene;Benzal dibromide;Benzylidene dibromide",
    "duplicated_cas_no": "",
    "SMILES": "C(Br)(Br)C1=CC=CC=C1",
    "meta_data": {
        "InChI": "InChI=1S/C7H6Br2/c8-7(9)6-4-2-1-3-5-6/h1-5,7H",
        "InChIKey": null,
        "Canonical SMILES": "BrC(Br)C=1C=CC=CC1",
        "Molecular Formula": "C<sub>7</sub>H<sub>6</sub>Br<sub>2</sub>",
        "Molecular Mass": "249.93",
        "Boiling Point": "116 °C @ Press: 12 Torr",
        "Density": "1.8555 g/cm³ @ Temp: 234 °C"
    }
}