{
    "cas_no": "134-81-6",
    "key_name": "Benzil",
    "cn_name": null,
    "alternate_name": "1,2-Ethanedione, 1,2-diphenyl-;Benzil;Ethanedione, diphenyl-;1,2-Diphenyl-1,2-ethanedione;Bibenzoyl;Dibenzoyl;Diphenyl-α,β-diketone;1,2-Diphenylethanedione;Diphenylglyoxal;Diphenylethanedione;1,2-Diphenylethane-1,2-dione;Wy 20910;Esacure KBO;Diphenyl diketone;NSC 220315;NSC 4041",
    "duplicated_cas_no": "16510-35-3;1056020-46-2;1056020-44-0",
    "SMILES": "C(C(=O)C1=CC=CC=C1)(=O)C2=CC=CC=C2",
    "meta_data": {
        "InChI": "InChI=1S/C14H10O2/c15-13(11-7-3-1-4-8-11)14(16)12-9-5-2-6-10-12/h1-10H",
        "InChIKey": null,
        "Canonical SMILES": "O=C(C=1C=CC=CC1)C(=O)C=2C=CC=CC2",
        "Molecular Formula": "C<sub>14</sub>H<sub>10</sub>O<sub>2</sub>",
        "Molecular Mass": "210.23",
        "Boiling Point": "347 °C",
        "Melting Point": "94.8 °C",
        "Density": "1.084 g/cm³"
    }
}