{
    "cas_no": "122-14-5",
    "key_name": "Fenitrothion",
    "cn_name": "杀螟松;杀螟硫磷;O,O-二甲基-O-(3-甲基-4-硝基苯基)硫代磷酸酯;",
    "alternate_name": "Phosphorothioic acid, <em>O</em>,<em>O</em>-dimethyl <em>O</em>-(3-methyl-4-nitrophenyl) ester;Phosphorothioic acid, <em>O</em>,<em>O</em>-dimethyl <em>O</em>-(4-nitro-<em>m</em>-tolyl) ester;OMS 43;S 112A;S 5660;8057HC;ENT 25,715;Bayer 41831;CP 47114;<em>O</em>,<em>O</em>-Dimethyl <em>O</em>-(3-methyl-4-nitrophenyl) phosphorothioate;<em>O</em>,<em>O</em>-Dimethyl <em>O</em>-4-nitro-<em>m</em>-tolyl phosphorothioate;Fenitrothion;Metathion;Metathione;Metathionine E 50;Nitrophos;BAY 41831;CL 47300;Folithion;Metathion E 50;Monsanto CP 47114;Sumithion;EI 47300;Accothion;Phenitrothion;Folithion EC 50;Metation E 50;Agrothion;Ovadofos;<em>O</em>,<em>O</em>-Dimethyl <em>O</em>-(3-methyl-4-nitrophenyl) thiophosphate;<em>O</em>,<em>O</em>-Dimethyl <em>O</em>-(4-nitro-3-methylphenyl)thiophosphate;O,O-Dimethyl <em>O</em>-(3-methyl-4-nitrophenyl) phosphorothioate;<em>O</em>,<em>O</em>-Dimethyl O-(3-methyl-4-nitrophenyl) phosphorothioate;MEP;<em>O</em>,<em>O</em>-Dimethyl <em>O</em>-4-nitro-<em>m</em>-tolyl thiophosphate;Bayer S 5660;Verthion;Agriya 1050;Oleosumifene;Metation;Agria 1050;<em>O</em>,<em>O</em>-DiMe <em>O</em>-(3-methyl-4-nitrophenyl) thiophosphate;Nuvanol;MEP (pesticide);Arbogal;Methylnitrophos;Dimethyl 4-nitro-<em>m</em>-tolyl phosphorothionate;Mglawik F;Owadofos;Fenition;Oleometathion;Methadion;Insectigas F;Sumithion 20F;Sumifene;Owadophos;Super Sumithion;Sumithion 20MC;Sumi oil;Sumithion 50EC;Tionfos 50 LE;Sumigran;Sumithion Super 1000EC;Sumithion Super;Paluthion;ShaMingSong;Smichion 10FL;Sumithion 10FL;MeSH ID: D005278",
    "duplicated_cas_no": "12764-87-3;54182-70-6;94650-98-3",
    "SMILES": "O(P(OC)(OC)=S)C1=CC(C)=C(N(=O)=O)C=C1",
    "meta_data": {
        "InChI": "InChI=1S/C9H12NO5PS/c1-7-6-8(4-5-9(7)10(11)12)15-16(17,13-2)14-3/h4-6H,1-3H3",
        "InChIKey": null,
        "Canonical SMILES": "O=N(=O)C1=CC=C(OP(=S)(OC)OC)C=C1C",
        "Molecular Formula": "C<sub>9</sub>H<sub>12</sub>NO<sub>5</sub>PS",
        "Molecular Mass": "277.23",
        "Boiling Point": "118 °C @ Press: 0.05 Torr",
        "Melting Point": "3.4 °C",
        "Density": "1.3227 g/cm³ @ Temp: 25 °C"
    }
}