{
    "cas_no": "33537-99-4",
    "key_name": "6-Chloro-1,2,3,4-tetrahydroisoquinoline",
    "cn_name": "6-氯-1,2,3,4-四氢异喹啉;",
    "alternate_name": "Isoquinoline, 6-chloro-1,2,3,4-tetrahydro-;6-Chloro-1,2,3,4-tetrahydroisoquinoline",
    "duplicated_cas_no": "",
    "SMILES": "ClC=1C=C2C(=CC1)CNCC2",
    "meta_data": {
        "InChI": "InChI=1S/C9H10ClN/c10-9-2-1-8-6-11-4-3-7(8)5-9/h1-2,5,11H,3-4,6H2",
        "InChIKey": null,
        "Canonical SMILES": "ClC1=CC=C2C(=C1)CCNC2",
        "Molecular Formula": "C<sub>9</sub>H<sub>10</sub>ClN",
        "Molecular Mass": "167.64",
        "Melting Point": "189-191 °C"
    }
}