{
    "cas_no": "153259-65-5",
    "key_name": "Cilomilast",
    "cn_name": "西洛司特;4-氰基-4-(3-环戊氧基-4-甲氧基苯基)环己烷-1-甲酸;",
    "alternate_name": "Cyclohexanecarboxylic acid, 4-cyano-4-[3-(cyclopentyloxy)-4-methoxyphenyl]-, <em>cis</em>-;<em>cis</em>-4-Cyano-4-[3-(cyclopentyloxy)-4-methoxyphenyl]cyclohexanecarboxylic acid;<em>cis</em>-4-[3-(Cyclopentyloxy)-4-methoxyphenyl]-4-cyanocyclohexane-1-carboxylic acid;SB 207499;Ariflo;Cilomilast",
    "duplicated_cas_no": "",
    "SMILES": "C(#N)[C@]1(CC[C@@H](C(O)=O)CC1)C2=CC(OC3CCCC3)=C(OC)C=C2",
    "meta_data": {
        "InChI": "InChI=1/C20H25NO4/c1-24-17-7-6-15(12-18(17)25-16-4-2-3-5-16)20(13-21)10-8-14(9-11-20)19(22)23/h6-7,12,14,16H,2-5,8-11H2,1H3,(H,22,23)/t14-,20-",
        "InChIKey": null,
        "Canonical SMILES": "N#CC1(C2=CC=C(OC)C(OC3CCCC3)=C2)CCC(C(=O)O)CC1",
        "Molecular Formula": "C<sub>20</sub>H<sub>25</sub>NO<sub>4</sub>",
        "Molecular Mass": "343.42",
        "Melting Point": "157 °C"
    }
}