{
    "cas_no": "364-78-3",
    "key_name": "4-Fluoro-2-nitroaniline",
    "cn_name": "4-氟-2-硝基苯胺;",
    "alternate_name": "Benzenamine, 4-fluoro-2-nitro-;Aniline, 4-fluoro-2-nitro-;4-Fluoro-2-nitrobenzenamine;4-Fluoro-2-nitroaniline;2-Nitro-4-fluoroaniline;NSC 402980;4-Fluoro-2-nitrophenylamine",
    "duplicated_cas_no": "",
    "SMILES": "N(=O)(=O)C1=C(N)C=CC(F)=C1",
    "meta_data": {
        "InChI": "InChI=1S/C6H5FN2O2/c7-4-1-2-5(8)6(3-4)9(10)11/h1-3H,8H2",
        "InChIKey": null,
        "Canonical SMILES": "O=N(=O)C1=CC(F)=CC=C1N",
        "Molecular Formula": "C<sub>6</sub>H<sub>5</sub>FN<sub>2</sub>O<sub>2</sub>",
        "Molecular Mass": "156.11",
        "Melting Point": "93.5-94 °C"
    }
}