{
    "cas_no": "19241-19-1",
    "key_name": "1-Ethyl-2-isothiocyanatobenzene",
    "cn_name": "2-乙基异硫氰酸苯酯;",
    "alternate_name": "Benzene, 1-ethyl-2-isothiocyanato-;Isothiocyanic acid, <em>o</em>-ethylphenyl ester;1-Ethyl-2-isothiocyanatobenzene;2-Ethylphenyl isothiocyanate;<em>o</em>-Ethylphenyl isothiocyanate;2-Ethyl-1-isothiocyanatobenzene",
    "duplicated_cas_no": "",
    "SMILES": "N(=C=S)C1=C(CC)C=CC=C1",
    "meta_data": {
        "InChI": "InChI=1S/C9H9NS/c1-2-8-5-3-4-6-9(8)10-7-11/h3-6H,2H2,1H3",
        "InChIKey": null,
        "Canonical SMILES": "S=C=NC=1C=CC=CC1CC",
        "Molecular Formula": "C<sub>9</sub>H<sub>9</sub>NS",
        "Molecular Mass": "163.24",
        "Boiling Point": "254-255 °C"
    }
}