{
    "cas_no": "3913-02-8",
    "key_name": "2-Butyl-1-octanol",
    "cn_name": null,
    "alternate_name": "1-Octanol, 2-butyl-;2-Butyl-1-octanol;2-Butyloctyl alcohol;2-Butyloctanol;5-(Hydroxymethyl)undecane;Isofol 12;Jarcol I 12;NSC 2414;Guerbet C12;Guerbet dodecanol;Butyloctanol;Butyloctyl alcohol",
    "duplicated_cas_no": "201057-93-4",
    "SMILES": "C(CCCCCC)(CCCC)CO",
    "meta_data": {
        "InChI": "InChI=1S/C12H26O/c1-3-5-7-8-10-12(11-13)9-6-4-2/h12-13H,3-11H2,1-2H3",
        "InChIKey": null,
        "Canonical SMILES": "OCC(CCCC)CCCCCC",
        "Molecular Formula": "C<sub>12</sub>H<sub>26</sub>O",
        "Molecular Mass": "186.33",
        "Boiling Point": "132 °C",
        "Density": "0.8371 g/cm³ @ Temp: 16.5 °C"
    }
}