{
    "cas_no": "3645-00-9",
    "key_name": "1,4-Benzenedicarboxylic acid, 1-(2-hydroxyethyl) 4-methyl ester",
    "cn_name": "2-羟乙基甲基对苯二甲酸酯;对苯二甲酸二乙二醇酯;",
    "alternate_name": "1,4-Benzenedicarboxylic acid, 1-(2-hydroxyethyl) 4-methyl ester;Terephthalic acid, 2-hydroxyethyl methyl ester;1,4-Benzenedicarboxylic acid, 2-hydroxyethyl methyl ester;Ethylene glycol, mono(methyl terephthalate);2-Hydroxyethyl methyl terephthalate;β-Hydroxyethyl methyl terephthalate;Methyl 2-hydroxyethyl terephthalate;Monoglycol monomethyl terephthalate;Dimethyl terephthalate-ethylene glycol monoester;1-(2-Hydroxyethyl) 4-methyl benzene-1,4-dicarboxylate",
    "duplicated_cas_no": "",
    "SMILES": "C(OCCO)(=O)C1=CC=C(C(OC)=O)C=C1",
    "meta_data": {
        "InChI": "InChI=1S/C11H12O5/c1-15-10(13)8-2-4-9(5-3-8)11(14)16-7-6-12/h2-5,12H,6-7H2,1H3",
        "InChIKey": null,
        "Canonical SMILES": "O=C(OC)C1=CC=C(C=C1)C(=O)OCCO",
        "Molecular Formula": "C<sub>11</sub>H<sub>12</sub>O<sub>5</sub>",
        "Molecular Mass": "224.21",
        "Melting Point": "81 °C"
    }
}