{
    "cas_no": "85026-55-7",
    "key_name": "Rosin X",
    "cn_name": null,
    "alternate_name": "β-<span class=\"text-smallcaps\">D</span>-Glucopyranoside, (2<em>E</em>)-3-phenyl-2-propen-1-yl;β-<span class=\"text-smallcaps\">D</span>-Glucopyranoside, 3-phenyl-2-propenyl, (<em>E</em>)-;β-<span class=\"text-smallcaps\">D</span>-Glucopyranoside, (2<em>E</em>)-3-phenyl-2-propenyl;(2<em>E</em>)-3-Phenyl-2-propen-1-yl β-<span class=\"text-smallcaps\">D</span>-glucopyranoside;Rosin (glycoside);Rosin;Rosin X;Chinese Rosin W;<em>trans</em>-Cinnamyl β-<span class=\"text-smallcaps\">D</span>-glucopyranoside",
    "duplicated_cas_no": "",
    "SMILES": "O(C/C=C/C1=CC=CC=C1)[C@@H]2O[C@H](CO)[C@@H](O)[C@H](O)[C@H]2O",
    "meta_data": {
        "InChI": "InChI=1S/C15H20O6/c16-9-11-12(17)13(18)14(19)15(21-11)20-8-4-7-10-5-2-1-3-6-10/h1-7,11-19H,8-9H2/b7-4+/t11-,12-,13+,14-,15-/m1/s1",
        "InChIKey": null,
        "Canonical SMILES": "OCC1OC(OCC=CC=2C=CC=CC2)C(O)C(O)C1O",
        "Molecular Formula": "C<sub>15</sub>H<sub>20</sub>O<sub>6</sub>",
        "Molecular Mass": "296.32",
        "Melting Point": "114-116 °C"
    }
}