{
    "cas_no": "35481-77-7",
    "key_name": "(2a<em>S</em>,3<em>R</em>,6<em>S</em>,6a<em>R</em>,6b<em>S</em>,7a<em>R</em>,7b<em>R</em>,7c<em>S</em>,8<em>R</em>)-Octahydro-6a,7b-dihydroxy-7c-methyl-8-(1-methylethenyl)-3,6-methano-2,4,7-trioxacyclopenta[<em>cd</em>]cycloprop[<em>a</em>]azulen-5(1<em>H</em>)-one",
    "cn_name": null,
    "alternate_name": "3,6-Methano-2,4,7-trioxacyclopenta[<em>cd</em>]cycloprop[<em>a</em>]azulen-5(1<em>H</em>)-one, octahydro-6a,7b-dihydroxy-7c-methyl-8-(1-methylethenyl)-, (2a<em>S</em>,3<em>R</em>,6<em>S</em>,6a<em>R</em>,6b<em>S</em>,7a<em>R</em>,7b<em>R</em>,7c<em>S</em>,8<em>R</em>)-;3,6-Methano-2,4,7-trioxacyclopenta[<em>cd</em>]cycloprop[<em>a</em>]azulen-5(1<em>H</em>)-one, octahydro-6a,7b-dihydroxy-7c-methyl-8-(1-methylethenyl)-, [2a<em>S</em>-(2aα,3α,6α,6aα,6bβ,7aβ,7bα,7cα,8<em>S</em>*)]-;(2a<em>S</em>,3<em>R</em>,6<em>S</em>,6a<em>R</em>,6b<em>S</em>,7a<em>R</em>,7b<em>R</em>,7c<em>S</em>,8<em>R</em>)-Octahydro-6a,7b-dihydroxy-7c-methyl-8-(1-methylethenyl)-3,6-methano-2,4,7-trioxacyclopenta[<em>cd</em>]cycloprop[<em>a</em>]azulen-5(1<em>H</em>)-one;Corianin",
    "duplicated_cas_no": "",
    "SMILES": "O[C@]12[C@]3(C)[C@](O)([C@]4([C@@]1(O4)[H])[H])CO[C@@]3([C@]5([C@@H](C(C)=C)[C@@]2(C(=O)O5)[H])[H])[H]",
    "meta_data": {
        "InChI": "InChI=1S/C15H18O6/c1-5(2)6-7-12(16)20-8(6)9-13(3)14(17,4-19-9)10-11(21-10)15(7,13)18/h6-11,17-18H,1,4H2,2-3H3/t6-,7+,8+,9+,10+,11-,13-,14+,15-/m0/s1",
        "InChIKey": null,
        "Canonical SMILES": "O=C1OC2C3OCC4(O)C5OC5C(O)(C1C2C(=C)C)C34C",
        "Molecular Formula": "C<sub>15</sub>H<sub>18</sub>O<sub>6</sub>",
        "Molecular Mass": "294.30",
        "Melting Point": "216-217 °C"
    }
}