{
    "cas_no": "30544-47-9",
    "key_name": "Etofenamate",
    "cn_name": "2[[3-(三氟甲基)苯基]氨基]-2-(羟乙氧基)乙基苯甲酸酯;",
    "alternate_name": "Benzoic acid, 2-[[3-(trifluoromethyl)phenyl]amino]-, 2-(2-hydroxyethoxy)ethyl ester;Anthranilic acid, <em>N</em>-(α,α,α-trifluoro-<em>m</em>-tolyl)-, 2-(2-hydroxyethoxy)ethyl ester;Etofenamate;Rheumon;2-(2-Hydroxyethoxy)ethyl flufenamate;Bay-d 1107;Glasel;B 577;Traumon Gel;Bayrogel;Rheumon gel;WHR 5020;TV 485;2-[[3-(Trifluoromethyl)phenyl]amino]benzoic acid 2-(2-hydroxyethoxy)ethyl ester;Reumon",
    "duplicated_cas_no": "",
    "SMILES": "N(C1=C(C(OCCOCCO)=O)C=CC=C1)C2=CC(C(F)(F)F)=CC=C2",
    "meta_data": {
        "InChI": "InChI=1S/C18H18F3NO4/c19-18(20,21)13-4-3-5-14(12-13)22-16-7-2-1-6-15(16)17(24)26-11-10-25-9-8-23/h1-7,12,22-23H,8-11H2",
        "InChIKey": null,
        "Canonical SMILES": "O=C(OCCOCCO)C=1C=CC=CC1NC2=CC=CC(=C2)C(F)(F)F",
        "Molecular Formula": "C<sub>18</sub>H<sub>18</sub>F<sub>3</sub>NO<sub>4</sub>",
        "Molecular Mass": "369.33",
        "Boiling Point": "132.5 °C",
        "Melting Point": "&lt;25 °C"
    }
}