{
    "cas_no": "7509-13-9",
    "key_name": "1,2-Dihydro-1-oxo-3-isoquinolinecarboxylic acid",
    "cn_name": null,
    "alternate_name": "3-Isoquinolinecarboxylic acid, 1,2-dihydro-1-oxo-;1,2-Dihydro-1-oxo-3-isoquinolinecarboxylic acid;Isocarbostyril-3-carboxylic acid;1-Oxo-1,2-dihydroisoquinoline-3-carboxylic acid;NSC 131339;NSC 407253;1-Hydroxyisoquinoline-3-carboxylic acid",
    "duplicated_cas_no": "",
    "SMILES": "O=C1C=2C(C=C(C(O)=O)N1)=CC=CC2",
    "meta_data": {
        "InChI": "InChI=1S/C10H7NO3/c12-9-7-4-2-1-3-6(7)5-8(11-9)10(13)14/h1-5H,(H,11,12)(H,13,14)",
        "InChIKey": null,
        "Canonical SMILES": "O=C(O)C1=CC=2C=CC=CC2C(=O)N1",
        "Molecular Formula": "C<sub>10</sub>H<sub>7</sub>NO<sub>3</sub>",
        "Molecular Mass": "189.17",
        "Melting Point": "326-328 °C"
    }
}