{
    "cas_no": "144651-06-9",
    "key_name": "Benzoic acid, 2-[[[[(4,6-dimethyl-2-pyrimidinyl)amino]carbonyl]amino]sulfonyl]-, 3-oxetanyl ester",
    "cn_name": "环氧嘧磺隆;2-[(4,6-二甲氧基嘧啶-2-基)氨基甲酰氨基磺酰]苯甲酸氧杂环丁-3-醇酯;",
    "alternate_name": "Benzoic acid, 2-[[[[(4,6-dimethyl-2-pyrimidinyl)amino]carbonyl]amino]sulfonyl]-, 3-oxetanyl ester;CGA 277476;EP-A 0496701;Oxasulfuron;Expert",
    "duplicated_cas_no": "",
    "SMILES": "C(OC1COC1)(=O)C2=C(S(NC(NC=3N=C(C)C=C(C)N3)=O)(=O)=O)C=CC=C2",
    "meta_data": {
        "InChI": "InChI=1S/C17H18N4O6S/c1-10-7-11(2)19-16(18-10)20-17(23)21-28(24,25)14-6-4-3-5-13(14)15(22)27-12-8-26-9-12/h3-7,12H,8-9H2,1-2H3,(H2,18,19,20,21,23)",
        "InChIKey": null,
        "Canonical SMILES": "O=C(OC1COC1)C=2C=CC=CC2S(=O)(=O)NC(=O)NC=3N=C(C=C(N3)C)C",
        "Molecular Formula": "C<sub>17</sub>H<sub>18</sub>N<sub>4</sub>O<sub>6</sub>S",
        "Molecular Mass": "406.41",
        "Melting Point": "158 °C (decomp)"
    }
}