{
    "cas_no": "2944-70-9",
    "key_name": "Diacetoxymethylvinylsilane",
    "cn_name": "乙烯基甲基硅(二醇)二乙酸酯;",
    "alternate_name": "Silanediol, 1-ethenyl-1-methyl-, 1,1-diacetate;Silanediol, methylvinyl-, diacetate;Silanediol, ethenylmethyl-, diacetate;Methylvinyldiacetoxysilane;Diacetoxymethylvinylsilane;Vinylmethyldiacetoxysilane;(Acetyloxy)(ethenyl)methylsilyl acetate;(Acetyloxy-ethenyl-methylsilyl) acetate",
    "duplicated_cas_no": "",
    "SMILES": "[Si](OC(C)=O)(OC(C)=O)(C=C)C",
    "meta_data": {
        "InChI": "InChI=1S/C7H12O4Si/c1-5-12(4,10-6(2)8)11-7(3)9/h5H,1H2,2-4H3",
        "InChIKey": null,
        "Canonical SMILES": "O=C(O[Si](OC(=O)C)(C=C)C)C",
        "Molecular Formula": "C<sub>7</sub>H<sub>12</sub>O<sub>4</sub>Si",
        "Molecular Mass": "188.25",
        "Boiling Point": "56 °C @ Press: 9 Torr",
        "Density": "1.063 g/cm³"
    }
}