{
    "cas_no": "1917-44-8",
    "key_name": "4,6-Diphenyl-1,3,5-triazin-2(1<em>H</em>)-one",
    "cn_name": null,
    "alternate_name": "1,3,5-Triazin-2(1<em>H</em>)-one, 4,6-diphenyl-;<em>s</em>-Triazin-2(1<em>H</em>)-one, 4,6-diphenyl-;4,6-Diphenyl-1,3,5-triazin-2(1<em>H</em>)-one;2,4-Diphenyl-6-hydroxy-<em>s</em>-triazine;2-Hydroxy-4,6-diphenyl-<em>s</em>-triazine;NSC 288740;2-Hydroxy-4,6-diphenyl-1,3,5-triazine;2,6-Diphenyl-1<em>H</em>-1,3,5-triazin-4-one",
    "duplicated_cas_no": "2060-78-8",
    "SMILES": "O=C1N=C(NC(=N1)C2=CC=CC=C2)C3=CC=CC=C3",
    "meta_data": {
        "InChI": "InChI=1S/C15H11N3O/c19-15-17-13(11-7-3-1-4-8-11)16-14(18-15)12-9-5-2-6-10-12/h1-10H,(H,16,17,18,19)",
        "InChIKey": null,
        "Canonical SMILES": "O=C1N=C(NC(=N1)C=2C=CC=CC2)C=3C=CC=CC3",
        "Molecular Formula": "C<sub>15</sub>H<sub>11</sub>N<sub>3</sub>O",
        "Molecular Mass": "249.27",
        "Melting Point": "295 °C"
    }
}