{
    "cas_no": "2218-94-2",
    "key_name": "Nitron",
    "cn_name": "硝酸灵;氮试剂;1,4-二苯基-3-(苯氨基)-1(H)-1,2,4-三唑翁内盐;",
    "alternate_name": "4<em>H</em>-1,2,4-Triazolium, 1,4-diphenyl-3-(phenylamino)-, inner salt;1<em>H</em>-1,2,4-Triazolium, 1,4-diphenyl-3-(phenylamino)-, hydroxide, inner salt;Nitron;1<em>H</em>-1,2,4-Triazolium, 1,4-diphenyl-3-(phenylamino)-, inner salt;Nitron (analytical reagent);NSC 5038",
    "duplicated_cas_no": "99784-60-8;99994-22-6;100406-05-1;100627-96-1;487-88-7;6035-01-4;12283-40-8;57176-20-2;101540-27-6",
    "SMILES": "[N-](C=1[N+](=CN(N1)C2=CC=CC=C2)C3=CC=CC=C3)C4=CC=CC=C4",
    "meta_data": {
        "InChI": "InChI=1S/C20H16N4/c1-4-10-17(11-5-1)21-20-22-24(19-14-8-3-9-15-19)16-23(20)18-12-6-2-7-13-18/h1-16H",
        "InChIKey": null,
        "Canonical SMILES": "N1=C([N-]C=2C=CC=CC2)[N+](=CN1C=3C=CC=CC3)C=4C=CC=CC4",
        "Molecular Formula": "C<sub>20</sub>H<sub>16</sub>N<sub>4</sub>",
        "Molecular Mass": "",
        "Melting Point": "186-188 °C (decomp)"
    }
}