{
    "cas_no": "102-14-7",
    "key_name": "4-Anilino-4-oxobutanoic acid",
    "cn_name": "琥珀酸一酰苯胺;",
    "alternate_name": "Butanoic acid, 4-oxo-4-(phenylamino)-;Succinanilic acid;4-Oxo-4-(phenylamino)butanoic acid;<em>N</em>-Phenylbutanedioic acid monoamide;<em>N</em>-Phenylsuccinamic acid;Succinic acid monoanilide;Succinic monoanilide;NSC 56471;4-Anilino-4-oxobutanoic acid;4-Oxo-4-(<em>N</em>-phenylamino)butanoic acid",
    "duplicated_cas_no": "",
    "SMILES": "N(C(CCC(O)=O)=O)C1=CC=CC=C1",
    "meta_data": {
        "InChI": "InChI=1S/C10H11NO3/c12-9(6-7-10(13)14)11-8-4-2-1-3-5-8/h1-5H,6-7H2,(H,11,12)(H,13,14)",
        "InChIKey": null,
        "Canonical SMILES": "O=C(O)CCC(=O)NC=1C=CC=CC1",
        "Molecular Formula": "C<sub>10</sub>H<sub>11</sub>NO<sub>3</sub>",
        "Molecular Mass": "193.20",
        "Melting Point": "148.5 °C"
    }
}