{
    "cas_no": "23950-58-5",
    "key_name": "Propyzamide",
    "cn_name": "戊炔草胺;N-(1,1-二甲基炔丙基)-3,5-二氯-苯甲酰胺;",
    "alternate_name": "Benzamide, 3,5-dichloro-<em>N</em>-(1,1-dimethyl-2-propyn-1-yl)-;Benzamide, 3,5-dichloro-<em>N</em>-(1,1-dimethyl-2-propynyl)-;3,5-Dichloro-<em>N</em>-(1,1-dimethyl-2-propyn-1-yl)benzamide;<em>N</em>-(1,1-Dimethylpropynyl)-3,5-dichlorobenzamide;Pronamide;3,5-Dichloro-<em>N</em>-(1,1-dimethyl-2-propynyl)benzamide;RH 315;Kerb;Propyzamide;Kerb 50W;3,5-Dichloro-<em>N</em>-(1,1-dimethylpropynyl)benzamide;Kerb Flo;Kerb Flo 500;3,5-Dichloro-<em>N</em>-(2-methylbut-3-yn-2-yl)benzamide",
    "duplicated_cas_no": "11097-11-3;11097-12-4;66393-62-2",
    "SMILES": "C(NC(C#C)(C)C)(=O)C1=CC(Cl)=CC(Cl)=C1",
    "meta_data": {
        "InChI": "InChI=1S/C12H11Cl2NO/c1-4-12(2,3)15-11(16)8-5-9(13)7-10(14)6-8/h1,5-7H,2-3H3,(H,15,16)",
        "InChIKey": null,
        "Canonical SMILES": "O=C(NC(C#C)(C)C)C=1C=C(Cl)C=C(Cl)C1",
        "Molecular Formula": "C<sub>12</sub>H<sub>11</sub>Cl<sub>2</sub>NO",
        "Molecular Mass": "256.13",
        "Melting Point": "155-156 °C"
    }
}