{
    "cas_no": "455-01-6",
    "key_name": "3-(Trifluoromethyl)benzeneethanol",
    "cn_name": null,
    "alternate_name": "Benzeneethanol, 3-(trifluoromethyl)-;Phenethyl alcohol, <em>m</em>-(trifluoromethyl)-;3-(Trifluoromethyl)benzeneethanol;2-[<em>m</em>-(Trifluoromethyl)phenyl]ethanol;3-(Trifluoromethyl)phenethyl alcohol;2-[3-(Trifluoromethyl)phenyl]ethanol;2-[3-(Trifluoromethyl)phenyl]ethyl alcohol;NSC 43028;3-Trifluoromethylbenzeneethanol;2-[3-(Trifluoromethyl)phenyl]ethan-1-ol",
    "duplicated_cas_no": "",
    "SMILES": "C(F)(F)(F)C1=CC(CCO)=CC=C1",
    "meta_data": {
        "InChI": "InChI=1S/C9H9F3O/c10-9(11,12)8-3-1-2-7(6-8)4-5-13/h1-3,6,13H,4-5H2",
        "InChIKey": null,
        "Canonical SMILES": "FC(F)(F)C=1C=CC=C(C1)CCO",
        "Molecular Formula": "C<sub>9</sub>H<sub>9</sub>F<sub>3</sub>O",
        "Molecular Mass": "190.16",
        "Boiling Point": "85-90 °C @ Press: 4 Torr",
        "Density": "1.2608 g/cm³ @ Temp: 20 °C"
    }
}