{
    "cas_no": "1308-38-9",
    "key_name": "Chromia",
    "cn_name": null,
    "alternate_name": "Chromium oxide (Cr<sub>2</sub>O<sub>3</sub>);11661 Green;C.I. 77288;Casalis Green;Chrome green;Chromium Oxide Green;Chromium Oxide Pigment;Chromium Oxide X1134;Chromium sesquioxide;Green Chrome Oxide;Green cinnabar;Green Oxide of Chromium;Levanox Green GA;Pure Chromium Oxide Green 59;Chromic oxide;Chromia;Green chromic oxide;Chromium trioxide (Cr<sub>2</sub>O<sub>3</sub>);Dichromium trioxide;Chromium oxide;C.I. Pigment Green 17;Chromium(3+) oxide;Chrome Oxide Green GN-M;Green chromium oxide;P 106F10;Chrome Oxide Green BX;PK 5304;OKhP 1;Chrome Oxide Green GN;Amperit 704.0;Chrome Oxide Green GP;Amdry 6410;G 112 (oxide);G 112;Sicopal Green 9996;Chrome Green G 7;LC 4;LC 4 (ceramic);Chrome Green F 3;CRO 2A;200P2;Metco A-F 15;Kromex U 1;G 4099;G 7;Chromium oxide (Cr<sub>0.67</sub>O);G 5;G 5 (abrasive);E 410;E 410 (catalyst);Nanox S 2400;PG 17;Pigment Green 17;Black 10P922;Geode V 775;Eclipse Green 10241;Oxide Green PE 621;Arctic Black 10C909;Shepherd Black 10C909;Shepherd Black 10C909A;Shepherd 10C909A;Black 10C909;Unicer 166;DK 412;Green Chromium Oxide GN;Colortherm Green GN;Black 10C909A;SGC;G 105;GR 30C654;Shepherd Green 30C654;Colortherm Green GN-M;Newport Chrome;G 8599;Green GN-M;42-703A;JM 205;Amdry 6420;KFB 17;ND 812",
    "duplicated_cas_no": "12689-83-7;144855-63-0;164057-73-2;165589-75-3;185464-26-0;196696-68-1;294202-64-5;499126-69-1;960246-23-5;1093852-36-8;1229022-62-1;1610419-57-2",
    "SMILES": "",
    "meta_data": {
        "InChI": "",
        "InChIKey": null,
        "Canonical SMILES": "",
        "Molecular Formula": "Cr<sub>2</sub>O<sub>3</sub>",
        "Molecular Mass": "",
        "Boiling Point": "4000 °C",
        "Melting Point": "2435 °C",
        "Density": "5.22 g/cm³ @ Temp: 25 °C"
    }
}