{
    "cas_no": "175276-94-5",
    "key_name": "3-Thiopheneacetic acid hydrazide",
    "cn_name": "噻吩-3-醋酸肼;2-(3-噻吩基)乙醇肼;",
    "alternate_name": "3-Thiopheneacetic acid, hydrazide;3-Thiopheneacetic acid hydrazide;[3]Thienyl-acetic acid hydrazide;2-Thiophen-3-ylacetohydrazide;2-(Thiophen-3-yl)acetohydrazide",
    "duplicated_cas_no": "",
    "SMILES": "C(C(NN)=O)C=1C=CSC1",
    "meta_data": {
        "InChI": "InChI=1S/C6H8N2OS/c7-8-6(9)3-5-1-2-10-4-5/h1-2,4H,3,7H2,(H,8,9)",
        "InChIKey": null,
        "Canonical SMILES": "O=C(NN)CC1=CSC=C1",
        "Molecular Formula": "C<sub>6</sub>H<sub>8</sub>N<sub>2</sub>OS",
        "Molecular Mass": "156.21",
        "Melting Point": "83-84 °C"
    }
}