{
    "cas_no": "226085-18-3",
    "key_name": "3-Bromo-1-[(4-methylphenyl)sulfonyl]-1<em>H</em>-pyrrolo[2,3-<em>b</em>]pyridine",
    "cn_name": null,
    "alternate_name": "1<em>H</em>-Pyrrolo[2,3-<em>b</em>]pyridine, 3-bromo-1-[(4-methylphenyl)sulfonyl]-;3-Bromo-1-[(4-methylphenyl)sulfonyl]-1<em>H</em>-pyrrolo[2,3-<em>b</em>]pyridine;3-Bromo-1-tosyl-1<em>H</em>-pyrrolo[2,3-<em>b</em>]pyridine;3-Bromo-1-(4-methylphenyl)sulfonylpyrrolo[2,3-<em>b</em>]pyridine;ZX167-064",
    "duplicated_cas_no": "",
    "SMILES": "S(=O)(=O)(N1C=2C(C(Br)=C1)=CC=CN2)C3=CC=C(C)C=C3",
    "meta_data": {
        "InChI": "InChI=1S/C14H11BrN2O2S/c1-10-4-6-11(7-5-10)20(18,19)17-9-13(15)12-3-2-8-16-14(12)17/h2-9H,1H3",
        "InChIKey": null,
        "Canonical SMILES": "O=S(=O)(C1=CC=C(C=C1)C)N2C=C(Br)C=3C=CC=NC32",
        "Molecular Formula": "C<sub>14</sub>H<sub>11</sub>BrN<sub>2</sub>O<sub>2</sub>S",
        "Molecular Mass": "351.22",
        "Melting Point": "144-146 °C"
    }
}