{
    "cas_no": "51333-22-3",
    "key_name": "Budesonide",
    "cn_name": "布地奈德;16alpha,17alpha-22R,S-丙基亚甲基二氧-孕甾-1,4-二烯-11beta,21-二羟基-3,20二酮;",
    "alternate_name": "Pregna-1,4-diene-3,20-dione, 16,17-[butylidenebis(oxy)]-11,21-dihydroxy-, (11β,16α)-;2<em>H</em>-Naphth[2′,1′:4,5]indeno[1,2-<em>d</em>][1,3]dioxole, pregna-1,4-diene-3,20-dione deriv.;(11β,16α)-16,17-[Butylidenebis(oxy)]-11,21-dihydroxypregna-1,4-diene-3,20-dione;Budesonide;Pulmicort;Preferid;Rhinocort;Rhinocort Aqua;16α,17α-(Butylidenedioxy)-11β,21-dihydroxypregna-1,4-diene-3,20-dione;Entocort;Respules;S 1320;Bidien;Budeson;Cortivent;Micronyl;Spirocort;Nebuampul;Budenofalk;Turbuhaler;Budesomide;Budes;Budecort Aqua;Barazone;Rhinocort respules;Novopulmon;Budesonide MMX;Uceris MMX;Uceris;Bunesonide;Jorveza;Budesonid;Budesonida;Tarpeyo;Nefecon;TAK 721;TAK-721;Eohilia;MeSH ID: D019819",
    "duplicated_cas_no": "",
    "SMILES": "C(CO)(=O)[C@]12[C@]3(C)[C@@](C[C@]1(OC(CCC)O2)[H])([C@]4([C@]([C@@H](O)C3)([C@]5(C)C(CC4)=CC(=O)C=C5)[H])[H])[H]",
    "meta_data": {
        "InChI": "InChI=1S/C25H34O6/c1-4-5-21-30-20-11-17-16-7-6-14-10-15(27)8-9-23(14,2)22(16)18(28)12-24(17,3)25(20,31-21)19(29)13-26/h8-10,16-18,20-22,26,28H,4-7,11-13H2,1-3H3/t16-,17-,18-,20+,21?,22+,23-,24-,25+/m0/s1",
        "InChIKey": null,
        "Canonical SMILES": "O=C1C=CC2(C(=C1)CCC3C4CC5OC(OC5(C(=O)CO)C4(C)CC(O)C32)CCC)C",
        "Molecular Formula": "C<sub>25</sub>H<sub>34</sub>O<sub>6</sub>",
        "Molecular Mass": "430.53",
        "Melting Point": "226 °C (decomp)",
        "Density": "1.3 g/cm³ (approx)"
    }
}