{
    "cas_no": "5137-52-0",
    "key_name": "Pentyl benzeneacetate",
    "cn_name": "苯乙酸戊酯;",
    "alternate_name": "Benzeneacetic acid, pentyl ester;Acetic acid, phenyl-, pentyl ester;Pentyl benzeneacetate;Pentyl phenylacetate;Amyl phenylacetate;NSC 46135;Pentyl 2-phenylacetate",
    "duplicated_cas_no": "",
    "SMILES": "C(C(OCCCCC)=O)C1=CC=CC=C1",
    "meta_data": {
        "InChI": "InChI=1S/C13H18O2/c1-2-3-7-10-15-13(14)11-12-8-5-4-6-9-12/h4-6,8-9H,2-3,7,10-11H2,1H3",
        "InChIKey": null,
        "Canonical SMILES": "O=C(OCCCCC)CC=1C=CC=CC1",
        "Molecular Formula": "C<sub>13</sub>H<sub>18</sub>O<sub>2</sub>",
        "Molecular Mass": "206.28",
        "Melting Point": "31-32 °C"
    }
}