{
    "cas_no": "132201-33-3",
    "key_name": "(2<em>R</em>,3<em>S</em>)-<em>N</em>-Benzoyl-3-phenylisoserine",
    "cn_name": "N-苯甲酰基-(2R,3S)-3-苯基异丝氨酸;(2R,3S)-3-苯甲酰氨基-2-羟基-3-苯基丙酸;",
    "alternate_name": "Benzenepropanoic acid, β-(benzoylamino)-α-hydroxy-, (α<em>R</em>,β<em>S</em>)-;Benzenepropanoic acid, β-(benzoylamino)-α-hydroxy-, [<em>R</em>-(<em>R</em>*,<em>S</em>*)]-;(α<em>R</em>,β<em>S</em>)-β-(Benzoylamino)-α-hydroxybenzenepropanoic acid;<em>N</em>-Benzoyl-(2<em>R</em>,3<em>S</em>)-3-phenylisoserine;(2<em>R</em>,3<em>S</em>)-<em>N</em>-Benzoyl-3-phenylisoserine;(2<em>R</em>,3<em>S</em>)-3-(Benzoylamino)-2-hydroxy-3-phenylpropionic acid",
    "duplicated_cas_no": "",
    "SMILES": "[C@@H](NC(=O)C1=CC=CC=C1)([C@H](C(O)=O)O)C2=CC=CC=C2",
    "meta_data": {
        "InChI": "InChI=1S/C16H15NO4/c18-14(16(20)21)13(11-7-3-1-4-8-11)17-15(19)12-9-5-2-6-10-12/h1-10,13-14,18H,(H,17,19)(H,20,21)/t13-,14+/m0/s1",
        "InChIKey": null,
        "Canonical SMILES": "O=C(O)C(O)C(NC(=O)C=1C=CC=CC1)C=2C=CC=CC2",
        "Molecular Formula": "C<sub>16</sub>H<sub>15</sub>NO<sub>4</sub>",
        "Molecular Mass": "285.29",
        "Melting Point": "166-168 °C"
    }
}