{
    "cas_no": "5714-22-7",
    "key_name": "Sulfur fluoride (S<sub>2</sub>F<sub>10</sub>)",
    "cn_name": "五氟化硫;五氟化硫;",
    "alternate_name": "Sulfur fluoride (S<sub>2</sub>F<sub>10</sub>);Disulfur decafluoride;Disulfur decafluoride (S<sub>2</sub>F<sub>10</sub>);Decafluorodisulfur",
    "duplicated_cas_no": "",
    "SMILES": "S(S(F)(F)(F)(F)F)(F)(F)(F)(F)F",
    "meta_data": {
        "InChI": "InChI=1S/F10S2/c1-11(2,3,4,5)12(6,7,8,9)10",
        "InChIKey": null,
        "Canonical SMILES": "FS(F)(F)(F)(F)S(F)(F)(F)(F)F",
        "Molecular Formula": "F<sub>10</sub>S<sub>2</sub>",
        "Molecular Mass": "254.11",
        "Boiling Point": "-29 °C",
        "Melting Point": "-92 °C",
        "Density": "2.08 g/cm³"
    }
}