{
    "cas_no": "102767-28-2",
    "key_name": "Levetiracetam",
    "cn_name": "左乙拉西坦;(S)-alpha-乙基-2-氧合-1-乙酰胺吡咯烷;",
    "alternate_name": "1-Pyrrolidineacetamide, α-ethyl-2-oxo-, (α<em>S</em>)-;1-Pyrrolidineacetamide, α-ethyl-2-oxo-, (<em>S</em>)-;(α<em>S</em>)-α-Ethyl-2-oxo-1-pyrrolidineacetamide;UCB-L 059;Levetiracetam;Keppra;Levesam 500;(-)-Levetiracetam;Levroxa;(-)-(<em>S</em>)-α-Ethyl-2-oxo-1-pyrrolidineacetamide;Levipil;(<em>S</em>)-Levetiracetam;Levesam;Spritam;(<em>S</em>)-2-(2-Oxopyrrolidin-1-yl)butanamide;(2S)-2-(2-Oxopyrrolidin-1-yl)butanamide;AGB 101 (low-dose levetiracetam);AGB 101;Varuby;Matever",
    "duplicated_cas_no": "",
    "SMILES": "[C@@H](C(N)=O)(CC)N1C(=O)CCC1",
    "meta_data": {
        "InChI": "InChI=1S/C8H14N2O2/c1-2-6(8(9)12)10-5-3-4-7(10)11/h6H,2-5H2,1H3,(H2,9,12)/t6-/m0/s1",
        "InChIKey": null,
        "Canonical SMILES": "O=C(N)C(N1C(=O)CCC1)CC",
        "Molecular Formula": "C<sub>8</sub>H<sub>14</sub>N<sub>2</sub>O<sub>2</sub>",
        "Molecular Mass": "",
        "Melting Point": "115-117 °C"
    }
}