{
    "cas_no": "100-85-6",
    "key_name": "Benzyltrimethylammonium hydroxide",
    "cn_name": "苄基三甲基氢氧化铵;",
    "alternate_name": "Benzenemethanaminium, <em>N</em>,<em>N</em>,<em>N</em>-trimethyl-, hydroxide (1:1);Ammonium, benzyltrimethyl-, hydroxide;Benzyltrimethylammonium hydroxide;Benzenemethanaminium, <em>N</em>,<em>N</em>,<em>N</em>-trimethyl-, hydroxide;Triton B;Trimethylbenzylammonium hydroxide;<em>N</em>-Benzyltrimethylammonium hydroxide;Sumquat 2311;<em>N</em>,<em>N</em>,<em>N</em>-Trimethylbenzenemethanaminium hydroxide;BTMAH 40;<em>N</em>,<em>N</em>,<em>N</em>-Trimethyl-<em>N</em>-benzylammonium hydroxide",
    "duplicated_cas_no": "",
    "SMILES": "C([N+](C)(C)C)C1=CC=CC=C1.[OH-]",
    "meta_data": {
        "InChI": "InChI=1S/C10H16N.H2O/c1-11(2,3)9-10-7-5-4-6-8-10;/h4-8H,9H2,1-3H3;1H2/q+1;/p-1",
        "InChIKey": null,
        "Canonical SMILES": "[OH-].C=1C=CC(=CC1)C[N+](C)(C)C",
        "Molecular Formula": "C<sub>10</sub>H<sub>16</sub>N.HO",
        "Molecular Mass": "",
        "Melting Point": "80 °C"
    }
}