{
    "cas_no": "20329-96-8",
    "key_name": "Methyl (E)-3,4,5-trimethoxycinnamate",
    "cn_name": null,
    "alternate_name": "2-Propenoic acid, 3-(3,4,5-trimethoxyphenyl)-, methyl ester, (2<em>E</em>)-;Cinnamic acid, 3,4,5-trimethoxy-, methyl ester, (<em>E</em>)-;2-Propenoic acid, 3-(3,4,5-trimethoxyphenyl)-, methyl ester, (<em>E</em>)-;Methyl <em>trans</em>-3-(3,4,5-trimethoxyphenyl)acrylate;Methyl 3,4,5-trimethoxy-<em>trans</em>-cinnamate;Methyl <em>trans</em>-3,4,5-trimethoxycinnamate;Methyl (E)-3,4,5-trimethoxycinnamate;<em>trans</em>-3-(3,4,5-Tri-methoxyphenyl-3-Propenoic acid methyl ester",
    "duplicated_cas_no": "",
    "SMILES": "O(C)C1=C(OC)C=C(/C=C/C(OC)=O)C=C1OC",
    "meta_data": {
        "InChI": "InChI=1S/C13H16O5/c1-15-10-7-9(5-6-12(14)17-3)8-11(16-2)13(10)18-4/h5-8H,1-4H3/b6-5+",
        "InChIKey": null,
        "Canonical SMILES": "O=C(OC)C=CC1=CC(OC)=C(OC)C(OC)=C1",
        "Molecular Formula": "C<sub>13</sub>H<sub>16</sub>O<sub>5</sub>",
        "Molecular Mass": "252.26",
        "Melting Point": "229-231 °C (decomp)"
    }
}