{
    "cas_no": "13823-29-5",
    "key_name": "Thorium nitrate",
    "cn_name": "硝酸钍;",
    "alternate_name": "Nitric acid, thorium(4+) salt (4:1);Nitric acid, thorium(4+) salt;Thorium nitrate ((Th(NO<sub>3</sub>)<sub>4</sub>));Thorium tetranitrate;Thorium(4+) nitrate;Thorium nitrate;Thorium(IV) nitrate;Prolabo",
    "duplicated_cas_no": "10476-90-1;32321-67-8;82089-56-3",
    "SMILES": "N(=O)(=O)O.[Th]",
    "meta_data": {
        "InChI": "InChI=1S/HNO3.Th/c2-1(3)4;/h(H,2,3,4);",
        "InChIKey": null,
        "Canonical SMILES": "[Th].O=N(=O)O",
        "Molecular Formula": "HNO<sub>3</sub>.<sup>1</sup>/<sub>4</sub>Th",
        "Molecular Mass": "",
        "Melting Point": "101 °C"
    }
}