{
    "cas_no": "21746-40-7",
    "key_name": "<em>N</em>-Propylmaleimide",
    "cn_name": null,
    "alternate_name": "1<em>H</em>-Pyrrole-2,5-dione, 1-propyl-;Maleimide, <em>N</em>-propyl-;1-Propyl-1<em>H</em>-pyrrole-2,5-dione;<em>N</em>-Propylmaleimide;1-Propyl-2,5-dihydro-1<em>H</em>-pyrrole-2,5-dione",
    "duplicated_cas_no": "",
    "SMILES": "C(CC)N1C(=O)C=CC1=O",
    "meta_data": {
        "InChI": "InChI=1S/C7H9NO2/c1-2-5-8-6(9)3-4-7(8)10/h3-4H,2,5H2,1H3",
        "InChIKey": null,
        "Canonical SMILES": "O=C1C=CC(=O)N1CCC",
        "Molecular Formula": "C<sub>7</sub>H<sub>9</sub>NO<sub>2</sub>",
        "Molecular Mass": "139.15",
        "Boiling Point": "97 °C @ Press: 18 Torr",
        "Melting Point": "80 °C"
    }
}