{
    "cas_no": "7437-55-0",
    "key_name": "8-Geranyloxypsoralen",
    "cn_name": null,
    "alternate_name": "7<em>H</em>-Furo[3,2-<em>g</em>][1]benzopyran-7-one, 9-[[(2<em>E</em>)-3,7-dimethyl-2,6-octadien-1-yl]oxy]-;7<em>H</em>-Furo[3,2-<em>g</em>][1]benzopyran-7-one, 9-[(3,7-dimethyl-2,6-octadienyl)oxy]-, (<em>E</em>)-;5-Benzofuranacrylic acid, 7-(geranyloxy)-6-hydroxy-, δ-lactone;7<em>H</em>-Furo[3,2-<em>g</em>][1]benzopyran-7-one, 9-[[(2<em>E</em>)-3,7-dimethyl-2,6-octadienyl]oxy]-;9-[[(2<em>E</em>)-3,7-Dimethyl-2,6-octadien-1-yl]oxy]-7<em>H</em>-furo[3,2-<em>g</em>][1]benzopyran-7-one;8-Geranyloxypsoralen",
    "duplicated_cas_no": "",
    "SMILES": "O(C/C=C(/CCC=C(C)C)\\C)C=1C2=C(C=C3C1OC=C3)C=CC(=O)O2",
    "meta_data": {
        "InChI": "InChI=1S/C21H22O4/c1-14(2)5-4-6-15(3)9-11-24-21-19-17(10-12-23-19)13-16-7-8-18(22)25-20(16)21/h5,7-10,12-13H,4,6,11H2,1-3H3/b15-9+",
        "InChIKey": null,
        "Canonical SMILES": "O=C1OC=2C(C=C1)=CC=3C=COC3C2OCC=C(C)CCC=C(C)C",
        "Molecular Formula": "C<sub>21</sub>H<sub>22</sub>O<sub>4</sub>",
        "Molecular Mass": "338.40",
        "Melting Point": "53-54 °C"
    }
}