{
    "cas_no": "27215-14-1",
    "key_name": "Neoandrographolide",
    "cn_name": "新穿心莲内酯;新穿心莲素;穿心莲新甙;",
    "alternate_name": "2(5<em>H</em>)-Furanone, 3-[2-[(1<em>R</em>,4a<em>S</em>,5<em>R</em>,8a<em>S</em>)-5-[(β-<span class=\"text-smallcaps\">D</span>-glucopyranosyloxy)methyl]decahydro-5,8a-dimethyl-2-methylene-1-naphthalenyl]ethyl]-;5β,9β<span class=\"text-smallcaps\">H</span>,10α-Labda-8(20),13-dien-16-oic acid, 18-(glucosyloxy)-15-hydroxy-, γ-lactone;2(5<em>H</em>)-Furanone, 3-[2-[5-[(β-<span class=\"text-smallcaps\">D</span>-glucopyranosyloxy)methyl]decahydro-5,8a-dimethyl-2-methylene-1-naphthalenyl]ethyl]-, [1<em>R</em>-(1α,4aβ,5α,8aα)]-;3-[2-[(1<em>R</em>,4a<em>S</em>,5<em>R</em>,8a<em>S</em>)-5-[(β-<span class=\"text-smallcaps\">D</span>-Glucopyranosyloxy)methyl]decahydro-5,8a-dimethyl-2-methylene-1-naphthalenyl]ethyl]-2(5<em>H</em>)-furanone;Neoandrographolide;Neoandrographiside",
    "duplicated_cas_no": "31222-64-7",
    "SMILES": "C[C@]12[C@@]([C@@](CO[C@@H]3O[C@H](CO)[C@@H](O)[C@H](O)[C@H]3O)(C)CCC1)(CCC(=C)[C@H]2CCC=4C(=O)OCC4)[H]",
    "meta_data": {
        "InChI": "InChI=1S/C26H40O8/c1-15-5-8-19-25(2,14-33-24-22(30)21(29)20(28)18(13-27)34-24)10-4-11-26(19,3)17(15)7-6-16-9-12-32-23(16)31/h9,17-22,24,27-30H,1,4-8,10-14H2,2-3H3/t17-,18-,19-,20-,21+,22-,24-,25+,26+/m1/s1",
        "InChIKey": null,
        "Canonical SMILES": "O=C1OCC=C1CCC2C(=C)CCC3C(C)(COC4OC(CO)C(O)C(O)C4O)CCCC23C",
        "Molecular Formula": "C<sub>26</sub>H<sub>40</sub>O<sub>8</sub>",
        "Molecular Mass": "480.59",
        "Melting Point": "174.0-174.5 °C"
    }
}