{
    "cas_no": "175204-88-3",
    "key_name": "4-Thiazolecarboxylic acid, 2-[4-(trifluoromethyl)phenyl]-, ethyl ester",
    "cn_name": null,
    "alternate_name": "4-Thiazolecarboxylic acid, 2-[4-(trifluoromethyl)phenyl]-, ethyl ester;2-(4-Trifluoromethylphenyl)thiazole-4-carboxylic acid ethyl ester;Ethyl 2-(4-trifluoromethylphenyl)thiazole-4-carboxylate",
    "duplicated_cas_no": "",
    "SMILES": "C(OCC)(=O)C=1N=C(SC1)C2=CC=C(C(F)(F)F)C=C2",
    "meta_data": {
        "InChI": "InChI=1S/C13H10F3NO2S/c1-2-19-12(18)10-7-20-11(17-10)8-3-5-9(6-4-8)13(14,15)16/h3-7H,2H2,1H3",
        "InChIKey": null,
        "Canonical SMILES": "O=C(OCC)C=1N=C(SC1)C=2C=CC(=CC2)C(F)(F)F",
        "Molecular Formula": "C<sub>13</sub>H<sub>10</sub>F<sub>3</sub>NO<sub>2</sub>S",
        "Molecular Mass": "301.28",
        "Melting Point": "97-99 °C"
    }
}