{
    "cas_no": "135531-86-1",
    "key_name": "Camalexin",
    "cn_name": null,
    "alternate_name": "1<em>H</em>-Indole, 3-(2-thiazolyl)-;3-(2-Thiazolyl)-1<em>H</em>-indole;Camalexin;Camalexine;SML 1016;3-(1,3-Thiazol-2-yl)-1<em>H</em>-indole",
    "duplicated_cas_no": "",
    "SMILES": "C=1(C=2C(NC1)=CC=CC2)C3=NC=CS3",
    "meta_data": {
        "InChI": "InChI=1S/C11H8N2S/c1-2-4-10-8(3-1)9(7-13-10)11-12-5-6-14-11/h1-7,13H",
        "InChIKey": null,
        "Canonical SMILES": "N=1C=CSC1C2=CNC=3C=CC=CC32",
        "Molecular Formula": "C<sub>11</sub>H<sub>8</sub>N<sub>2</sub>S",
        "Molecular Mass": "200.26",
        "Melting Point": "137-138 °C"
    }
}