{
    "cas_no": "112-43-6",
    "key_name": "10-Undecen-1-ol",
    "cn_name": "十一烯醇;10-十一烯-1-醇;",
    "alternate_name": "10-Undecen-1-ol;1-Undecen-11-ol;Undecylenic alcohol;10-Undecylen-1-ol;10-Undecenol;11-Hydroxy-1-undecene;ω-Undecenyl alcohol;10-Undecenyl alcohol;ω-Undecenol;ω-Undecylenyl alcohol;NSC 66157",
    "duplicated_cas_no": "118020-80-7;1082770-76-0",
    "SMILES": "C(CCCCCO)CCCC=C",
    "meta_data": {
        "InChI": "InChI=1S/C11H22O/c1-2-3-4-5-6-7-8-9-10-11-12/h2,12H,1,3-11H2",
        "InChIKey": null,
        "Canonical SMILES": "OCCCCCCCCCC=C",
        "Molecular Formula": "C<sub>11</sub>H<sub>22</sub>O",
        "Molecular Mass": "170.29",
        "Boiling Point": "250 °C",
        "Melting Point": "-2 °C"
    }
}