{
    "cas_no": "41808-35-9",
    "key_name": "5-Amino-3-methyl-4-isothiazolecarbonitrile",
    "cn_name": null,
    "alternate_name": "4-Isothiazolecarbonitrile, 5-amino-3-methyl-;5-Amino-3-methyl-4-isothiazolecarbonitrile;5-Amino-4-cyano-3-methylisothiazole;5-Amino-3-methylisothiazole-4-carbonitrile",
    "duplicated_cas_no": "",
    "SMILES": "C(#N)C=1C(C)=NSC1N",
    "meta_data": {
        "InChI": "InChI=1S/C5H5N3S/c1-3-4(2-6)5(7)9-8-3/h7H2,1H3",
        "InChIKey": null,
        "Canonical SMILES": "N#CC1=C(SN=C1C)N",
        "Molecular Formula": "C<sub>5</sub>H<sub>5</sub>N<sub>3</sub>S",
        "Molecular Mass": "139.18",
        "Melting Point": "202 °C"
    }
}