{
    "cas_no": "68359-37-5",
    "key_name": "Cyfluthrin",
    "cn_name": null,
    "alternate_name": "Cyclopropanecarboxylic acid, 3-(2,2-dichloroethenyl)-2,2-dimethyl-, cyano(4-fluoro-3-phenoxyphenyl)methyl ester;Cyfluthrin;BAY-FCR 1272;Baythroid;FCR 1272;α-Cyano-3-phenoxy-4-fluorobenzyl 2,2-dimethyl-3-(2,2-dichlorovinyl)cyclopropanecarboxylate;Eulan SP;BAY-Vl 1704;Solfac;Tempo 2;Optem PT 600;Renounce;Tombstone;Preventol HS 12;Tombstone Helios;α-Cyano-4-fluoro-3-phenoxybenzyl 3-(2,2-dichlorovinyl)-2,2-dimethylcyclopropanecarboxylate;Tempo 20WP;Cyfloxylate;Solfac 050EW;Adalticid Solfak;Cy-Kick",
    "duplicated_cas_no": "80850-08-4;83855-46-3;85782-82-7",
    "SMILES": "C(OC(C#N)C1=CC(OC2=CC=CC=C2)=C(F)C=C1)(=O)C3C(C=C(Cl)Cl)C3(C)C",
    "meta_data": {
        "InChI": "InChI=1S/C22H18Cl2FNO3/c1-22(2)15(11-19(23)24)20(22)21(27)29-18(12-26)13-8-9-16(25)17(10-13)28-14-6-4-3-5-7-14/h3-11,15,18,20H,1-2H3",
        "InChIKey": null,
        "Canonical SMILES": "N#CC(OC(=O)C1C(C=C(Cl)Cl)C1(C)C)C2=CC=C(F)C(OC=3C=CC=CC3)=C2",
        "Molecular Formula": "C<sub>22</sub>H<sub>18</sub>Cl<sub>2</sub>FNO<sub>3</sub>",
        "Molecular Mass": "434.29",
        "Melting Point": "60 °C"
    }
}