{
    "cas_no": "9002-83-9",
    "key_name": "Chlorotrifluoroethylene homopolymer",
    "cn_name": null,
    "alternate_name": "Ethene, 1-chloro-1,2,2-trifluoro-, homopolymer;Ethylene, chlorotrifluoro-, polymers;Ethene, chlorotrifluoro-, homopolymer;Aclar 33C;Daiflon CTFE;Fluorolube GR 470;Fluoroplast 3;Fluorothene;Poly(chlorotrifluoroethylene);Poly(trifluorochloroethylene);Poly(monochlorotrifluoroethylene);Ftoroplast 3;Fluoroplast F 3;Chlorotrifluoroethylene polymer;F 3 (vinyl polymer);Fluorolon 3;Monochlorotrifluoroethylene polymer;Trifluorochloroethylene polymer;Ftorlon F 3;Poly(trifluorovinyl chloride);Plaskon CTFE;Ekafluvin;Ftorlon 3;Halocarbon Oil 13-21;Halon;Kel-F 81;Kel-F 3;Poly(trifluoromonochloroethylene);Teflex;Voltalef 202;Kel S;Halar 200;Kel-F 200;Kel-F 90;Fluorolube 2000;Poly(ethylene trifluoride chloride);Voltalef 300LD;Halon (polymer);TL 340;Fluorolube S 30;Fluorolube FS 5;Daiflon M 300P;Poly(trifluoroethylene chloride);12FD;Ftoroplast 3P;Fluoroplast 3P;F 3;Voltalef;Voltalef 300UF;Poly(1-chloro-1,2,2-trifluoroethylene);Daifloil 100;Daifloil 10;Fluorolube 300/140;Halocarbon Oil 11-14;Halocarbon Oil 11-21;Hostaflon C;11F;12F;13FM;4LF;Chlorotrifluoroethylene homopolymer;Daifloil 3;Neosorb ND;Kel-F 6061;Daiflon CTFE-D 55P;Daiflon M 300;Daifloil 20;Daifloil 50;Voltalef 1S;Daiflon D 45S;FL-G 5;FL-G 35;FL-G 100;FL-G 330;Trifluorochloroethylene homopolymer;MLO 83-322;MLO 81-125;Kel-F;Kel-F 95/5;Poly(chlorotrifluoroethene);Neoflon CTFE;CTFE oil 27;CTFE oil 56;PCTFE;Kel-F 6050;3.1 Oil;Safetol 3.1;Neoflon CTFE-M 300;HBF 430;Neoflon DF 0025;Kel-F 10;Kel-F 700;Halocarbon Oil 1000N;Halocarbon Oil 700;EL Sealer No. 4810N-R;EL Sealer 4810N-R;Voltalef UF 300;FLuorolube LG 160;Fulusin T;Aclon HP 128;Voltalef 10S;Aclon HP 1120;Halocarbon 95;Chlorotrifluoroethene homopolymer;Aclar HP;Teflon PCTFE;HaloVac 60;Aclar NT;M 400H;M 300P;Aclon 3000;Neoflon CTFE-M 400H;Neoflen CTFE-M 400;Teflex (fluoropolymer);Neoflon CTFE-M 400;Aclar RX 160;Flurolube FS 5;Halocarbon Oil 0.8;Halocarbon Oil 56;Aclar 33;Aclar CTFE;Neoflon CTFE-M 300PL;Aclon 1180;Neoflon M 300P;DF 1;TBM 240;Flonlube FL 800;Flonlube FL 500;Clarus P 4000TR;Voltalef 302;Neoflon PCTFE;Neoflon PCTFE-M 300;P 2000TR;Aclon 1090;HFM-F 8800;Poly(vinyl trifluorochloride);Neoflon M 300PL;Neoflon M 300;M 300;DF 0025C1;Neoflon DF 0025C;Neoflon PCTFE-DF 0050C1;Neoflon DF 0050C1;Neoflon M 400H;Kel-F oil;M 400P;Poly(chlorotrifluoro-1,2-ethanediyl);HydroBlock P 600TR;DF 0050C1;Neoflon PCTFE-M 300P;Aclar UltRx 6000;Neoflon M 300H;Aclar SupRx 900;M 300H;Ftoroplast F 3;Aclar UltRx 2000;Aclar UltRx 3000;Neoflon PCTFE-M 300PL;FP 3;FP 3 (vinyl polymer);Halocarbon 700;Halocarbon 27;Daifloil 1;Diafluoyl 1;Daifloil 2",
    "duplicated_cas_no": "8045-75-8;9016-25-5;9036-80-0;27837-89-4;39360-67-3;39403-94-6;39475-51-9;50935-29-0;52350-38-6;52683-04-2;52932-38-4;55353-92-9;56749-16-7;57176-51-9;57176-52-0;58339-48-3;58339-49-4;58339-57-4;58339-65-4;59889-02-0;69494-42-4;84842-77-3;105864-12-8;220983-28-8;287935-60-8",
    "SMILES": "C(=C(F)F)(Cl)F",
    "meta_data": {
        "InChI": "InChI=1S/C2ClF3/c3-1(4)2(5)6",
        "InChIKey": null,
        "Canonical SMILES": "FC(F)=C(F)Cl",
        "Molecular Formula": "(C<sub>2</sub>ClF<sub>3</sub>)<sub>x</sub>",
        "Molecular Mass": "",
        "Boiling Point": "140-190 °C @ Press: 1 Torr",
        "Melting Point": "210-212 °C",
        "Density": "2.111 g/cm³ @ Temp: 25 °C"
    }
}