{
    "cas_no": "1146-65-2",
    "key_name": "Naphthalene-<em>d</em><sub>8</sub>",
    "cn_name": "萘-d8;萘D8;",
    "alternate_name": "Naphthalene-<em>1</em>,<em>2</em>,<em>3</em>,<em>4</em>,<em>5</em>,<em>6</em>,<em>7</em>,<em>8</em>-<em>d</em><sub>8</sub>;Naphthalene-<em>d</em><sub>8</sub>;Octadeuterionaphthalene;Perdeuteronaphthalene;Octadeuteronaphthalene;Perdeuterated naphthalene;Perdeuterionaphthalene;Naphthalene (C<sub>10</sub>D<sub>8</sub>);1,2,3,4,5,6,7,8-Octadeuterionaphthalene",
    "duplicated_cas_no": "",
    "SMILES": "C12=C(C(=C(C(=C1[2H])[2H])[2H])[2H])C(=C(C(=C2[2H])[2H])[2H])[2H]",
    "meta_data": {
        "InChI": "InChI=1S/C10H8/c1-2-6-10-8-4-3-7-9(10)5-1/h1-8H/i1D,2D,3D,4D,5D,6D,7D,8D",
        "InChIKey": null,
        "Canonical SMILES": "C=1C=CC=2C=CC=CC2C1",
        "Molecular Formula": "C<sub>10</sub>D<sub>8</sub>",
        "Molecular Mass": "",
        "Boiling Point": "217.1 °C @ Press: 760 Torr",
        "Melting Point": "77.5 °C",
        "Density": "1.242 g/cm³ @ Temp: 20 °C"
    }
}