{
    "cas_no": "771-69-7",
    "key_name": "1,2,3-Trifluoro-4-nitrobenzene",
    "cn_name": "2,3,4-三氟硝基苯;",
    "alternate_name": "Benzene, 1,2,3-trifluoro-4-nitro-;1,2,3-Trifluoro-4-nitrobenzene;2,3,4-Trifluoronitrobenzene;4-Nitro-1,2,3-trifluorobenzene;2,3,4-Trifluoro-1-nitrobenzene",
    "duplicated_cas_no": "",
    "SMILES": "N(=O)(=O)C1=C(F)C(F)=C(F)C=C1",
    "meta_data": {
        "InChI": "InChI=1S/C6H2F3NO2/c7-3-1-2-4(10(11)12)6(9)5(3)8/h1-2H",
        "InChIKey": null,
        "Canonical SMILES": "O=N(=O)C1=CC=C(F)C(F)=C1F",
        "Molecular Formula": "C<sub>6</sub>H<sub>2</sub>F<sub>3</sub>NO<sub>2</sub>",
        "Molecular Mass": "177.08",
        "Boiling Point": "92 °C @ Press: 20 Torr"
    }
}