{
    "cas_no": "4579-64-0",
    "key_name": "Ergoline-8-carboxylic acid, 9,10-didehydro-6-methyl-, methyl ester, (8β)-",
    "cn_name": null,
    "alternate_name": "Ergoline-8-carboxylic acid, 9,10-didehydro-6-methyl-, methyl ester, (8β)-;Ergoline-8β-carboxylic acid, 9,10-didehydro-6-methyl-, methyl ester;Lysergic acid, methyl ester;Indolo[4,3-<em>fg</em>]quinoline, ergoline-8-carboxylic acid deriv.;<span class=\"text-smallcaps\">D</span>-Lysergic acid methyl ester;Methyl lysergate;Methyl <span class=\"text-smallcaps\">D</span>-lysergate;NSC 157966;(+)-Lysergic acid methyl ester",
    "duplicated_cas_no": "412019-82-0",
    "SMILES": "CN1[C@]2(C(C=3C=4C(C2)=CNC4C=CC3)=C[C@@H](C(OC)=O)C1)[H]",
    "meta_data": {
        "InChI": "InChI=1S/C17H18N2O2/c1-19-9-11(17(20)21-2)6-13-12-4-3-5-14-16(12)10(8-18-14)7-15(13)19/h3-6,8,11,15,18H,7,9H2,1-2H3/t11-,15-/m1/s1",
        "InChIKey": null,
        "Canonical SMILES": "O=C(OC)C1C=C2C=3C=CC=C4NC=C(C43)CC2N(C)C1",
        "Molecular Formula": "C<sub>17</sub>H<sub>18</sub>N<sub>2</sub>O<sub>2</sub>",
        "Molecular Mass": "282.34",
        "Melting Point": "131-139 °C"
    }
}