{
    "cas_no": "36798-79-5",
    "key_name": "Budralazine",
    "cn_name": "布屈嗪;1-(2-(1,3-二甲基-2-亚丁烯基)肼基)二氮杂萘;",
    "alternate_name": "3-Penten-2-one, 4-methyl-, 2-(1-phthalazinyl)hydrazone;1(2<em>H</em>)-Phthalazinone, (1,3-dimethyl-2-butenylidene)hydrazone;DJ 1461;Budralazine;Buterazine",
    "duplicated_cas_no": "",
    "SMILES": "N(N=C(C=C(C)C)C)C=1C2=C(C=NN1)C=CC=C2",
    "meta_data": {
        "InChI": "InChI=1S/C14H16N4/c1-10(2)8-11(3)16-18-14-13-7-5-4-6-12(13)9-15-17-14/h4-9H,1-3H3,(H,17,18)",
        "InChIKey": null,
        "Canonical SMILES": "N=1N=C(NN=C(C=C(C)C)C)C=2C=CC=CC2C1",
        "Molecular Formula": "C<sub>14</sub>H<sub>16</sub>N<sub>4</sub>",
        "Molecular Mass": "240.30",
        "Melting Point": "132-133 °C"
    }
}