{
    "cas_no": "367-67-9",
    "key_name": "2-Bromo-5-nitrobenzotrifluoride",
    "cn_name": "2-溴-5-硝基三氟甲苯;",
    "alternate_name": "Benzene, 1-bromo-4-nitro-2-(trifluoromethyl)-;Toluene, 2-bromo-α,α,α-trifluoro-5-nitro-;1-Bromo-4-nitro-2-(trifluoromethyl)benzene;2-Bromo-5-nitrobenzotrifluoride;4-Bromo-3-trifluoromethylnitrobenzene;2-Trifluoromethyl-4-nitrobromobenzene",
    "duplicated_cas_no": "",
    "SMILES": "C(F)(F)(F)C1=CC(N(=O)=O)=CC=C1Br",
    "meta_data": {
        "InChI": "InChI=1S/C7H3BrF3NO2/c8-6-2-1-4(12(13)14)3-5(6)7(9,10)11/h1-3H",
        "InChIKey": null,
        "Canonical SMILES": "O=N(=O)C1=CC=C(Br)C(=C1)C(F)(F)F",
        "Molecular Formula": "C<sub>7</sub>H<sub>3</sub>BrF<sub>3</sub>NO<sub>2</sub>",
        "Molecular Mass": "270.00",
        "Boiling Point": "87-88 °C @ Press: 2.5-3 Torr",
        "Melting Point": "46-48 °C"
    }
}