{
    "cas_no": "14405-45-9",
    "key_name": "Indium acetylacetonate",
    "cn_name": "2,4-戊二酮酸铟;2,4-戊二酸铟;三(2,4-戊二酮酸)铟(III);2,4-戊二酮酸铟,98%;",
    "alternate_name": "Indium, tris(2,4-pentanedionato-κ<em>O</em><sup>2</sup>,κ<em>O</em><sup>4</sup>)-, (<em>OC</em>-6-11)-;Indium, tris(2,4-pentanedionato)-;Indium, tris(2,4-pentanedionato-<em>O</em>,<em>O</em>′)-, (<em>OC</em>-6-11)-;Indium, tris(2,4-pentanedionato-κ<em>O</em>,κ<em>O</em>′)-, (<em>OC</em>-6-11)-;(<em>OC</em>-6-11)-Tris(2,4-pentanedionato-κ<em>O</em><sup>2</sup>,κ<em>O</em><sup>4</sup>)indium;Indium acetylacetonate;Tris(2,4-pentanedionato)indium;Indium tris(acetylacetonate);Tris(acetylacetonato)indium;Nacem Indium;NSC 166829;Indium(III) acetylacetonate",
    "duplicated_cas_no": "",
    "SMILES": "CC1=O[In+3]23(O=C(C)[CH-]C(C)=O2)(O=C(C)[CH-]C(C)=O3)O=C(C)[CH-]1",
    "meta_data": {
        "InChI": "InChI=1S/3C5H7O2.In/c3*1-4(6)3-5(2)7;/h3*3H,1-2H3;/q3*-1;+3",
        "InChIKey": null,
        "Canonical SMILES": "O1=C([CH-]C(=O[In+3]123(O=C([CH-]C(=O2)C)C)O=C([CH-]C(=O3)C)C)C)C",
        "Molecular Formula": "C<sub>15</sub>H<sub>21</sub>InO<sub>6</sub>",
        "Molecular Mass": "",
        "Boiling Point": "260-280 °C",
        "Melting Point": "186 °C",
        "Density": "1.410 g/cm³"
    }
}