{
    "cas_no": "29834-76-2",
    "key_name": "(2<em>S</em>)-2-Amino-4-hexynoic acid",
    "cn_name": null,
    "alternate_name": "4-Hexynoic acid, 2-amino-, (2<em>S</em>)-;4-Hexynoic acid, 2-amino-, <span class=\"text-smallcaps\">L</span>-;4-Hexynoic acid, 2-amino-, (<em>S</em>)-;(2<em>S</em>)-2-Amino-4-hexynoic acid;<span class=\"text-smallcaps\">L</span>-2-Amino-4-hexynoic acid;(<em>S</em>)-2-Aminohex-4-ynoic acid;(2S)-2-Aminohex-4-ynoic acid",
    "duplicated_cas_no": "",
    "SMILES": "[C@@H](C(O)=O)(CC#CC)N",
    "meta_data": {
        "InChI": "InChI=1S/C6H9NO2/c1-2-3-4-5(7)6(8)9/h5H,4,7H2,1H3,(H,8,9)/t5-/m0/s1",
        "InChIKey": null,
        "Canonical SMILES": "O=C(O)C(N)CC#CC",
        "Molecular Formula": "C<sub>6</sub>H<sub>9</sub>NO<sub>2</sub>",
        "Molecular Mass": "127.14",
        "Melting Point": "238-240 °C"
    }
}