{
    "cas_no": "119-97-1",
    "key_name": "3-[Ethyl(4-formyl-3-methylphenyl)amino]propanenitrile",
    "cn_name": "4-(N-乙基-N-氰乙基)氨基-2-甲基苯甲醛;2-甲基-4-[(N-乙基-N-氰乙基)氨基]苯甲醛;",
    "alternate_name": "Propanenitrile, 3-[ethyl(4-formyl-3-methylphenyl)amino]-;Propionitrile, 3-(<em>N</em>-ethyl-4-formyl-<em>m</em>-toluidino)-;<em>o</em>-Tolualdehyde, 4-[(2-cyanoethyl)ethylamino]-;3-[Ethyl(4-formyl-3-methylphenyl)amino]propanenitrile;2-Methyl-<em>N</em>-ethyl-<em>N</em>-(2-cyanoethyl)-4-aminobenzaldehyde",
    "duplicated_cas_no": "",
    "SMILES": "N(CCC#N)(CC)C1=CC(C)=C(C=O)C=C1",
    "meta_data": {
        "InChI": "InChI=1S/C13H16N2O/c1-3-15(8-4-7-14)13-6-5-12(10-16)11(2)9-13/h5-6,9-10H,3-4,8H2,1-2H3",
        "InChIKey": null,
        "Canonical SMILES": "N#CCCN(C1=CC=C(C=O)C(=C1)C)CC",
        "Molecular Formula": "C<sub>13</sub>H<sub>16</sub>N<sub>2</sub>O",
        "Molecular Mass": "216.28",
        "Melting Point": "60-61 °C"
    }
}