{
    "cas_no": "83-43-2",
    "key_name": "Methylprednisolone",
    "cn_name": "甲基强的松龙;甲基泼尼松龙;",
    "alternate_name": "Pregna-1,4-diene-3,20-dione, 11,17,21-trihydroxy-6-methyl-, (6α,11β)-;Pregna-1,4-diene-3,20-dione, 11β,17,21-trihydroxy-6α-methyl-;(6α,11β)-11,17,21-Trihydroxy-6-methylpregna-1,4-diene-3,20-dione;Medrol;Medrone;Δ<sup>1</sup>-6α-Methylhydrocortisone;Methylprednisolone;6α-Methylprednisolone;Metrisone;11β,17,21-Trihydroxy-6α-methylpregna-1,4-diene-3,20-dione;11β,17α,21-Trihydroxy-6α-methyl-1,4-pregnadiene-3,20-dione;Urbason;Urbasone;Wyacort;6α-Methyl-11β,17α,21β-trihydroxy-1,4-pregnadiene-3,20-dione;Dopomedrol;Besonia;Promacortine;Metastab;Metilbetasone;Medesone;Medrate;Moderin;Noretona;Urbazone;Metipred;U 7532;Methypred;Suprametil;NSC 19987;A-Methapred;Medorol;Medralone;M-Prednisol;Duralone;Prednol;Prednol L;Solimedrol;Metilprednisolone;SW 196788;MeSH ID: D008775",
    "duplicated_cas_no": "121673-01-6;570-35-4",
    "SMILES": "C[C@@]12[C@]([C@]3([C@@]([C@]4(C)C([C@@H](C)C3)=CC(=O)C=C4)([C@@H](O)C1)[H])[H])(CC[C@@]2(C(CO)=O)O)[H]",
    "meta_data": {
        "InChI": "InChI=1S/C22H30O5/c1-12-8-14-15-5-7-22(27,18(26)11-23)21(15,3)10-17(25)19(14)20(2)6-4-13(24)9-16(12)20/h4,6,9,12,14-15,17,19,23,25,27H,5,7-8,10-11H2,1-3H3/t12-,14-,15-,17-,19+,20-,21-,22-/m0/s1",
        "InChIKey": null,
        "Canonical SMILES": "O=C1C=CC2(C(=C1)C(C)CC3C4CCC(O)(C(=O)CO)C4(C)CC(O)C32)C",
        "Molecular Formula": "C<sub>22</sub>H<sub>30</sub>O<sub>5</sub>",
        "Molecular Mass": "374.47",
        "Melting Point": "228-237 °C"
    }
}