{
    "cas_no": "3277-26-7",
    "key_name": "1,1,3,3-Tetramethyldisiloxane",
    "cn_name": "1,1,3,3-四甲基二硅氧烷;",
    "alternate_name": "Disiloxane, 1,1,3,3-tetramethyl-;1,1,3,3-Tetramethyldisiloxane;Bis(dimethylsilyl) ether;Bis(dimethylsilyl) oxide;<em>sym</em>-Tetramethyldisiloxane;Dimethylsilyl ether;1,3-Dihydrotetramethyldisiloxane;1,3-Dihydrogen-1,1,3,3-tetramethyldisiloxane;1,1,3,3-Tetramethyl-1,3-dihydrodisiloxane;T 2030;1,1,3,3-Tetramethyl-1,3-disiloxane;T 2030 (siloxane);NSC 155369;LS 7040;[(Dimethylsilyl)oxy]dimethylsilane;Dowsil 3-7010;VM 29;IOTA 606",
    "duplicated_cas_no": "1198417-41-2",
    "SMILES": "O([SiH](C)C)[SiH](C)C",
    "meta_data": {
        "InChI": "InChI=1S/C4H14OSi2/c1-6(2)5-7(3)4/h6-7H,1-4H3",
        "InChIKey": null,
        "Canonical SMILES": "O([SiH](C)C)[SiH](C)C",
        "Molecular Formula": "C<sub>4</sub>H<sub>14</sub>OSi<sub>2</sub>",
        "Molecular Mass": "134.32",
        "Boiling Point": "72 °C",
        "Density": "0.757 g/cm³"
    }
}