{
    "cas_no": "3314-30-5",
    "key_name": "1<em>H</em>-Benzimidazole-2-carboxaldehyde",
    "cn_name": "苯并咪唑-2-甲醛;",
    "alternate_name": "1<em>H</em>-Benzimidazole-2-carboxaldehyde;2-Benzimidazolecarboxaldehyde;Benzimidazole-2-carbaldehyde;2-Formylbenzimidazole;2-Benzimidazolylformaldehyde;NSC 26309;NSC 405912;1<em>H</em>-Benzimidazole-2-carbaldehyde;1<em>H</em>-1,3-Benzodiazole-2-carbaldehyde",
    "duplicated_cas_no": "",
    "SMILES": "C(=O)C=1NC=2C(N1)=CC=CC2",
    "meta_data": {
        "InChI": "InChI=1S/C8H6N2O/c11-5-8-9-6-3-1-2-4-7(6)10-8/h1-5H,(H,9,10)",
        "InChIKey": null,
        "Canonical SMILES": "O=CC1=NC=2C=CC=CC2N1",
        "Molecular Formula": "C<sub>8</sub>H<sub>6</sub>N<sub>2</sub>O",
        "Molecular Mass": "146.15",
        "Melting Point": "235 °C (decomp)"
    }
}