{
    "cas_no": "14906-64-0",
    "key_name": "3-Pyridinecarbonitrile, 1-oxide",
    "cn_name": "3-氰基吡啶氮氧化物;烟肼氧化物;3-氰基吡啶 氮氧化物;3-氰基吡啶氮氧化物,97%;",
    "alternate_name": "3-Pyridinecarbonitrile, 1-oxide;Nicotinonitrile, 1-oxide;3-Cyanopyridine 1-oxide;3-Cyanopyridine <em>N</em>-oxide;Nicotinonitrile <em>N</em>-oxide;NSC 170850;1-Oxidopyridin-1-ium-3-carbonitrile;3-Cyanopyridin-1-ium-1-olate",
    "duplicated_cas_no": "",
    "SMILES": "C(#N)C1=CN(=O)=CC=C1",
    "meta_data": {
        "InChI": "InChI=1S/C6H4N2O/c7-4-6-2-1-3-8(9)5-6/h1-3,5H",
        "InChIKey": null,
        "Canonical SMILES": "N#CC1=CC=CN(=O)=C1",
        "Molecular Formula": "C<sub>6</sub>H<sub>4</sub>N<sub>2</sub>O",
        "Molecular Mass": "120.11",
        "Melting Point": "175-176 °C"
    }
}