{
    "cas_no": "996-97-4",
    "key_name": "<em>N</em>,<em>N</em>-Diethyloctanamide",
    "cn_name": "N,N-二乙基辛酰胺;",
    "alternate_name": "Octanamide, <em>N</em>,<em>N</em>-diethyl-;<em>N</em>,<em>N</em>-Diethyloctanamide;<em>N</em>,<em>N</em>-Diethyloctamide;Caprylic acid diethylamide;Repellent 790;NSC 3916",
    "duplicated_cas_no": "",
    "SMILES": "N(C(CCCCCCC)=O)(CC)CC",
    "meta_data": {
        "InChI": "InChI=1S/C12H25NO/c1-4-7-8-9-10-11-12(14)13(5-2)6-3/h4-11H2,1-3H3",
        "InChIKey": null,
        "Canonical SMILES": "O=C(N(CC)CC)CCCCCCC",
        "Molecular Formula": "C<sub>12</sub>H<sub>25</sub>NO",
        "Molecular Mass": "199.33",
        "Boiling Point": "148 °C @ Press: 15 Torr",
        "Density": "0.8722 g/cm³ @ Temp: 20 °C"
    }
}