{
    "cas_no": "645-66-9",
    "key_name": "Lauric anhydride",
    "cn_name": "十二酸酐;月桂[酸]酐;",
    "alternate_name": "Dodecanoic acid, 1,1′-anhydride;Lauric anhydride;Dodecanoic acid, anhydride;Lauric acid anhydride;Dodecanoic anhydride;Lauroyl anhydride;NSC 293871",
    "duplicated_cas_no": "",
    "SMILES": "C(OC(CCCCCCCCCCC)=O)(CCCCCCCCCCC)=O",
    "meta_data": {
        "InChI": "InChI=1S/C24H46O3/c1-3-5-7-9-11-13-15-17-19-21-23(25)27-24(26)22-20-18-16-14-12-10-8-6-4-2/h3-22H2,1-2H3",
        "InChIKey": null,
        "Canonical SMILES": "O=C(OC(=O)CCCCCCCCCCC)CCCCCCCCCCC",
        "Molecular Formula": "C<sub>24</sub>H<sub>46</sub>O<sub>3</sub>",
        "Molecular Mass": "382.62",
        "Boiling Point": "205-208 °C @ Press: 0.5 Torr",
        "Melting Point": "41.8 °C",
        "Density": "0.8552 g/cm³ @ Temp: 70 °C"
    }
}