{
    "cas_no": "5008-73-1",
    "key_name": "1-[(1-Methylethyl)thio]propane",
    "cn_name": "正丙基异丙酯硫醚;异丙基丙基硫醚;",
    "alternate_name": "Propane, 1-[(1-methylethyl)thio]-;Sulfide, isopropyl propyl;1-[(1-Methylethyl)thio]propane;<em>n</em>-Propyl isopropyl sulfide;Isopropylpropyl sulfide;Propyl isopropyl sulfide;1-(Propan-2-ylsulfanyl)propane",
    "duplicated_cas_no": "",
    "SMILES": "S(C(C)C)CCC",
    "meta_data": {
        "InChI": "InChI=1S/C6H14S/c1-4-5-7-6(2)3/h6H,4-5H2,1-3H3",
        "InChIKey": null,
        "Canonical SMILES": "S(CCC)C(C)C",
        "Molecular Formula": "C<sub>6</sub>H<sub>14</sub>S",
        "Molecular Mass": "118.24",
        "Boiling Point": "132.1 °C"
    }
}