{
    "cas_no": "371-49-3",
    "key_name": "Butyl 2-fluoroacetate",
    "cn_name": "氟醋酸丁酯;",
    "alternate_name": "Acetic acid, 2-fluoro-, butyl ester;Butyl 2-fluoroacetate;Butyl fluoroacetate",
    "duplicated_cas_no": "",
    "SMILES": "C(OCCCC)(CF)=O",
    "meta_data": {
        "InChI": "InChI=1S/C6H11FO2/c1-2-3-4-9-6(8)5-7/h2-5H2,1H3",
        "InChIKey": null,
        "Canonical SMILES": "O=C(OCCCC)CF",
        "Molecular Formula": "C<sub>6</sub>H<sub>11</sub>FO<sub>2</sub>",
        "Molecular Mass": "134.15",
        "Boiling Point": "153 °C",
        "Density": "1.0231 g/cm³"
    }
}