{
    "cas_no": "2439-10-3",
    "key_name": "Dodine",
    "cn_name": "多果定;十二烷基胍醋酸盐;",
    "alternate_name": "Guanidine, <em>N</em>-dodecyl-, acetate (1:1);Guanidine, dodecyl-, monoacetate;Guanidine, dodecyl-, acetate;Cyprex 65W;American Cyanamid 5,223;Cyprex;Dodecylguanidine acetate;<em>n</em>-Dodecylguanidine acetate;Dodin;Dodine;Doguadine;Laurylguanidine acetate;Melprex;Melprex 65W;Syllit;AC 5223;Karpen;Melprex 65;Aadodin;Dodecylguanidinium acetate;Syllit 65;Carpene;Dodine gorsac;Melprex Liquid Dodine;Radspor;Dodex;Dodex (pesticide);Comet;Dodine 400;Dodine 544SC;Dodine 600SC;Elast;Cytrex",
    "duplicated_cas_no": "96923-04-5;15880-99-6;51426-08-5;1135443-22-9",
    "SMILES": "C(CCCCCCCC)CCCNC(=N)N.C(C)(O)=O",
    "meta_data": {
        "InChI": "InChI=1S/C13H29N3.C2H4O2/c1-2-3-4-5-6-7-8-9-10-11-12-16-13(14)15;1-2(3)4/h2-12H2,1H3,(H4,14,15,16);1H3,(H,3,4)",
        "InChIKey": null,
        "Canonical SMILES": "O=C(O)C.N=C(N)NCCCCCCCCCCCC",
        "Molecular Formula": "C<sub>13</sub>H<sub>29</sub>N<sub>3</sub>.C<sub>2</sub>H<sub>4</sub>O<sub>2</sub>",
        "Molecular Mass": "",
        "Melting Point": "136 °C"
    }
}