{
    "cas_no": "74877-08-0",
    "key_name": "3-Bromo-α-methylbenzenemethanamine",
    "cn_name": null,
    "alternate_name": "Benzenemethanamine, 3-bromo-α-methyl-;Benzylamine, <em>m</em>-bromo-α-methyl-;3-Bromo-α-methylbenzenemethanamine;α-Methyl-3-bromobenzenemethanamine;1-(3-Bromophenyl)ethylamine;1-(3-Bromophenyl)ethanamine;1-(3-Bromophenyl)ethan-1-amine;3-Bromo-α-methylbenzylamine",
    "duplicated_cas_no": "",
    "SMILES": "C(C)(N)C1=CC(Br)=CC=C1",
    "meta_data": {
        "InChI": "InChI=1S/C8H10BrN/c1-6(10)7-3-2-4-8(9)5-7/h2-6H,10H2,1H3",
        "InChIKey": null,
        "Canonical SMILES": "BrC1=CC=CC(=C1)C(N)C",
        "Molecular Formula": "C<sub>8</sub>H<sub>10</sub>BrN",
        "Molecular Mass": "200.08",
        "Boiling Point": "96-97 °C @ Press: 4 Torr"
    }
}