{
    "cas_no": "645-33-0",
    "key_name": "3-Hydroxy-4-methoxyphenethylamine hydrochloride",
    "cn_name": "2,5-二氯吡啶-4-醛;2,5-二氯-4-醛基吡啶;",
    "alternate_name": "Phenol, 5-(2-aminoethyl)-2-methoxy-, hydrochloride (1:1);Phenol, 5-(2-aminoethyl)-2-methoxy-, hydrochloride;Guaiacol, 5-(2-aminoethyl)-, hydrochloride;3-Hydroxy-4-methoxyphenethylamine hydrochloride;4-<em>O</em>-Methyldopamine hydrochloride;3-Hydroxy-4-methoxy-β-phenethylamine hydrochloride;2-(3-Hydroxy-4-methoxyphenyl)ethanamine hydrochloride;5-(2-Aminoethyl)-2-methoxyphenol hydrochloride",
    "duplicated_cas_no": "",
    "SMILES": "C(CN)C1=CC(O)=C(OC)C=C1.Cl",
    "meta_data": {
        "InChI": "InChI=1S/C9H13NO2.ClH/c1-12-9-3-2-7(4-5-10)6-8(9)11;/h2-3,6,11H,4-5,10H2,1H3;1H",
        "InChIKey": null,
        "Canonical SMILES": "Cl.OC1=CC(=CC=C1OC)CCN",
        "Molecular Formula": "C<sub>9</sub>H<sub>13</sub>NO<sub>2</sub>.ClH",
        "Molecular Mass": "",
        "Melting Point": "206-207 °C"
    }
}