{
    "cas_no": "10589-94-3",
    "key_name": "2,18-Dimethyl 3,7,12,17-tetramethyl-21<em>H</em>,23<em>H</em>-porphine-2,18-dipropanoate",
    "cn_name": "次卟啉二甲酯;3,7,12,17-四甲基-21H,23H-卟吩-2,18-二丙酸二甲酯;",
    "alternate_name": "21<em>H</em>,23<em>H</em>-Porphine-2,18-dipropanoic acid, 3,7,12,17-tetramethyl-, 2,18-dimethyl ester;2,18-Porphinedipropionic acid, 3,7,12,17-tetramethyl-, dimethyl ester;Deuteroporphyrin IX dimethyl ester;21<em>H</em>,23<em>H</em>-Porphine-2,18-dipropanoic acid, 3,7,12,17-tetramethyl-, dimethyl ester;2,18-Dimethyl 3,7,12,17-tetramethyl-21<em>H</em>,23<em>H</em>-porphine-2,18-dipropanoate;Dimethyl 3,7,12,17-tetramethyl-21<em>H</em>,23<em>H</em>-porphine-2,18-dipropionate;NSC 17451;Deuteroporphyrin dimethyl ester",
    "duplicated_cas_no": "2499-39-0;129196-06-1;168206-48-2;246037-92-3;283604-12-6;460745-37-3;475639-44-2;942128-90-7;1007459-74-6",
    "SMILES": "C(CC(OC)=O)C1=C2C=C3C(CCC(OC)=O)=C(C)C(=N3)C=C4NC(=CC5=NC(=CC(N2)=C1C)C(C)=C5)C(C)=C4",
    "meta_data": {
        "InChI": "InChI=1S/C32H34N4O4/c1-17-11-22-14-27-19(3)23(7-9-31(37)39-5)29(35-27)16-30-24(8-10-32(38)40-6)20(4)28(36-30)15-26-18(2)12-21(34-26)13-25(17)33-22/h11-16,33,36H,7-10H2,1-6H3/b21-13-,22-14?,25-13?,26-15?,27-14-,28-15-,29-16?,30-16-",
        "InChIKey": null,
        "Canonical SMILES": "O=C(OC)CCC=1C=2N=C(C=C3C=C(C(=CC4=NC(=CC=5NC(C2)=C(C5C)CCC(=O)OC)C(=C4)C)N3)C)C1C",
        "Molecular Formula": "C<sub>32</sub>H<sub>34</sub>N<sub>4</sub>O<sub>4</sub>",
        "Molecular Mass": "538.64",
        "Melting Point": "224-225 °C"
    }
}