{
    "cas_no": "112726-66-6",
    "key_name": "BTCP",
    "cn_name": "N-[1-(2-苯并[b]噻嗯-2-基)环己基)]哌啶马来酸;",
    "alternate_name": "Piperidine, 1-(1-benzo[<em>b</em>]thien-2-ylcyclohexyl)-;1-(1-Benzo[<em>b</em>]thien-2-ylcyclohexyl)piperidine;<em>N</em>-[1-(2-Benzo[<em>b</em>]thiophenyl)cyclohexyl]piperidine;GK 13;BTCP;1-[1-(2-Benzo[<em>b</em>]thienyl)cyclohexyl]piperidine;Benocyclidine;1-[1-(1-Benzothiophen-2-yl)cyclohexyl]piperidine",
    "duplicated_cas_no": "120093-01-8",
    "SMILES": "C1(CCCCC1)(C2=CC=3C(S2)=CC=CC3)N4CCCCC4",
    "meta_data": {
        "InChI": "InChI=1S/C19H25NS/c1-5-11-19(12-6-1,20-13-7-2-8-14-20)18-15-16-9-3-4-10-17(16)21-18/h3-4,9-10,15H,1-2,5-8,11-14H2",
        "InChIKey": null,
        "Canonical SMILES": "S1C=2C=CC=CC2C=C1C3(N4CCCCC4)CCCCC3",
        "Molecular Formula": "C<sub>19</sub>H<sub>25</sub>NS",
        "Molecular Mass": "299.47",
        "Melting Point": "80 °C"
    }
}