{
    "cas_no": "68301-59-7",
    "key_name": "1-(2-Chloro-4-hydroxyphenyl)ethanone",
    "cn_name": null,
    "alternate_name": "Ethanone, 1-(2-chloro-4-hydroxyphenyl)-;1-(2-Chloro-4-hydroxyphenyl)ethanone;2′-Chloro-4′-hydroxyacetophenone;3-Chloro-4-acetylphenol;1-(2-Chloro-4-hydroxyphenyl)ethan-1-one",
    "duplicated_cas_no": "",
    "SMILES": "C(C)(=O)C1=C(Cl)C=C(O)C=C1",
    "meta_data": {
        "InChI": "InChI=1S/C8H7ClO2/c1-5(10)7-3-2-6(11)4-8(7)9/h2-4,11H,1H3",
        "InChIKey": null,
        "Canonical SMILES": "O=C(C1=CC=C(O)C=C1Cl)C",
        "Molecular Formula": "C<sub>8</sub>H<sub>7</sub>ClO<sub>2</sub>",
        "Molecular Mass": "170.59",
        "Melting Point": "110 °C"
    }
}