{
    "cas_no": "1888-94-4",
    "key_name": "2-Chloroethyl methacrylate",
    "cn_name": null,
    "alternate_name": "2-Propenoic acid, 2-methyl-, 2-chloroethyl ester;Methacrylic acid, 2-chloroethyl ester;Ethanol, 2-chloro-, methacrylate;β-Chloroethyl methacrylate;2-Chloroethyl methacrylate;Methacrylic acid β-chloroethyl ester;NSC 18595;2-Chloroethyl 2-methylprop-2-enoate",
    "duplicated_cas_no": "",
    "SMILES": "C(C(C)=C)(OCCCl)=O",
    "meta_data": {
        "InChI": "InChI=1S/C6H9ClO2/c1-5(2)6(8)9-4-3-7/h1,3-4H2,2H3",
        "InChIKey": null,
        "Canonical SMILES": "O=C(OCCCl)C(=C)C",
        "Molecular Formula": "C<sub>6</sub>H<sub>9</sub>ClO<sub>2</sub>",
        "Molecular Mass": "148.59",
        "Boiling Point": "60 °C @ Press: 7.5 Torr",
        "Density": "1.105 g/cm³ @ Temp: 20 °C"
    }
}