{
    "cas_no": "22892-96-2",
    "key_name": "3-(Aminosulfonyl)-4-chloro-5-nitrobenzoic acid",
    "cn_name": "4-氯-3-硝基-5-磺酰胺基苯甲酸;",
    "alternate_name": "Benzoic acid, 3-(aminosulfonyl)-4-chloro-5-nitro-;Benzoic acid, 4-chloro-3-nitro-5-sulfamoyl-;3-(Aminosulfonyl)-4-chloro-5-nitrobenzoic acid;4-Chloro-3-nitro-5-sulfamoylbenzoate acid;4-Chloro-3-nitro-5-sulfamoylbenzoic acid;4-Chloro-3-nitro-5-sulfamylbenzoic acid;5-Aminosulfonyl-4-chloro-3-nitrobenzoic acid;4-Chloro-3-nitro-5-sulfonamido-benzoic acid;2-Chloro-3-nitro-5-carboxy-benzenesulphonamide",
    "duplicated_cas_no": "",
    "SMILES": "S(N)(=O)(=O)C1=C(Cl)C(N(=O)=O)=CC(C(O)=O)=C1",
    "meta_data": {
        "InChI": "InChI=1S/C7H5ClN2O6S/c8-6-4(10(13)14)1-3(7(11)12)2-5(6)17(9,15)16/h1-2H,(H,11,12)(H2,9,15,16)",
        "InChIKey": null,
        "Canonical SMILES": "O=C(O)C=1C=C(C(Cl)=C(C1)S(=O)(=O)N)N(=O)=O",
        "Molecular Formula": "C<sub>7</sub>H<sub>5</sub>ClN<sub>2</sub>O<sub>6</sub>S",
        "Molecular Mass": "280.64",
        "Melting Point": "235-236.5 °C (decomp)"
    }
}