{
    "cas_no": "504-74-5",
    "key_name": "Imidazolidine",
    "cn_name": "咪唑啉;咪唑啉;",
    "alternate_name": "Imidazolidine;Imidazole, tetrahydro-;1,3-Diazacyclopentane",
    "duplicated_cas_no": "",
    "SMILES": "C1CNCN1",
    "meta_data": {
        "InChI": "InChI=1S/C3H8N2/c1-2-5-3-4-1/h4-5H,1-3H2",
        "InChIKey": null,
        "Canonical SMILES": "N1CNCC1",
        "Molecular Formula": "C<sub>3</sub>H<sub>8</sub>N<sub>2</sub>",
        "Molecular Mass": "72.11",
        "Melting Point": "68.2-68.8 °C"
    }
}