{
    "cas_no": "24787-87-9",
    "key_name": "<span class=\"text-smallcaps\">L</smallcap>-Alanine, <em>N</em>-[(phenylmethoxy)carbonyl]-<smallcap>L</span>-seryl-",
    "cn_name": null,
    "alternate_name": "<span class=\"text-smallcaps\">L</smallcap>-Alanine, <em>N</em>-[(phenylmethoxy)carbonyl]-<smallcap>L</span>-seryl-;Alanine, <em>N</em>-(<em>N</em>-carboxy-<span class=\"text-smallcaps\">L</smallcap>-seryl)-, <em>N</em>-benzyl ester, <smallcap>L</span>-;<span class=\"text-smallcaps\">L</smallcap>-Alanine, <em>N</em>-[<em>N</em>-[(phenylmethoxy)carbonyl]-<smallcap>L</span>-seryl]-;NSC 333744",
    "duplicated_cas_no": "",
    "SMILES": "[C@H](C(N[C@H](C(O)=O)C)=O)(NC(OCC1=CC=CC=C1)=O)CO",
    "meta_data": {
        "InChI": "InChI=1S/C14H18N2O6/c1-9(13(19)20)15-12(18)11(7-17)16-14(21)22-8-10-5-3-2-4-6-10/h2-6,9,11,17H,7-8H2,1H3,(H,15,18)(H,16,21)(H,19,20)/t9-,11-/m0/s1",
        "InChIKey": null,
        "Canonical SMILES": "O=C(OCC=1C=CC=CC1)NC(C(=O)NC(C(=O)O)C)CO",
        "Molecular Formula": "C<sub>14</sub>H<sub>18</sub>N<sub>2</sub>O<sub>6</sub>",
        "Molecular Mass": "310.30",
        "Melting Point": "161-162 °C"
    }
}