{
    "cas_no": "109-89-7",
    "key_name": "Diethylamine",
    "cn_name": "二乙胺;二乙基胺;",
    "alternate_name": "Ethanamine, <em>N</em>-ethyl-;Diethylamine;<em>N</em>-Ethylethanamine;<em>N</em>,<em>N</em>-Diethylamine;DEA",
    "duplicated_cas_no": "1637232-73-5",
    "SMILES": "N(CC)CC",
    "meta_data": {
        "InChI": "InChI=1S/C4H11N/c1-3-5-4-2/h5H,3-4H2,1-2H3",
        "InChIKey": null,
        "Canonical SMILES": "N(CC)CC",
        "Molecular Formula": "C<sub>4</sub>H<sub>11</sub>N",
        "Molecular Mass": "73.14",
        "Boiling Point": "55.5 °C",
        "Melting Point": "-50 °C",
        "Density": "0.7074 g/cm³ @ Temp: 20 °C"
    }
}