{
    "cas_no": "574-96-9",
    "key_name": "1-Hydroxy-2-naphthaldehyde",
    "cn_name": "1-羟基-2-奈甲醛;",
    "alternate_name": "2-Naphthalenecarboxaldehyde, 1-hydroxy-;2-Naphthaldehyde, 1-hydroxy-;1-Hydroxy-2-naphthalenecarboxaldehyde;1-Hydroxy-2-naphthaldehyde;1-Hydroxy-2-formylnaphthalene;1-Hydroxynaphthalene-2-carbaldehyde",
    "duplicated_cas_no": "",
    "SMILES": "OC=1C2=C(C=CC1C=O)C=CC=C2",
    "meta_data": {
        "InChI": "InChI=1S/C11H8O2/c12-7-9-6-5-8-3-1-2-4-10(8)11(9)13/h1-7,13H",
        "InChIKey": null,
        "Canonical SMILES": "O=CC=1C=CC=2C=CC=CC2C1O",
        "Molecular Formula": "C<sub>11</sub>H<sub>8</sub>O<sub>2</sub>",
        "Molecular Mass": "172.18",
        "Melting Point": "59 °C"
    }
}