{
    "cas_no": "62476-59-9",
    "key_name": "Acifluorfen sodium",
    "cn_name": "三氟羧草醚钠盐;5-[2-氯-4-(三氟甲基)-苯氧基]-2-硝基苯甲酸钠;",
    "alternate_name": "Benzoic acid, 5-[2-chloro-4-(trifluoromethyl)phenoxy]-2-nitro-, sodium salt (1:1);Benzoic acid, 5-[2-chloro-4-(trifluoromethyl)phenoxy]-2-nitro-, sodium salt;Blazer (herbicide);RH 6201;Sodium 3-carboxy-4-nitrophenyl 2-chloro-α,α,α-trifluoro-<em>p</em>-tolyl ether;Acifluorfen sodium;Blazer;Sodium acifluorfen;Acifluorfen sodium salt;Blazer 2S;Blazer 2L;Sodium 5-(2-chloro-4-trifluoromethylphenoxy)-2-nitrobenzoate;Carbofluorfen;MC 10978;Status;Tackle 2AS;Tackle;Ultra Blazer",
    "duplicated_cas_no": "63748-59-4;74434-44-9;94128-03-7",
    "SMILES": "O(C1=CC(C(O)=O)=C(N(=O)=O)C=C1)C2=C(Cl)C=C(C(F)(F)F)C=C2.[Na]",
    "meta_data": {
        "InChI": "InChI=1S/C14H7ClF3NO5.Na/c15-10-5-7(14(16,17)18)1-4-12(10)24-8-2-3-11(19(22)23)9(6-8)13(20)21;/h1-6H,(H,20,21);",
        "InChIKey": null,
        "Canonical SMILES": "[Na].O=C(O)C1=CC(OC2=CC=C(C=C2Cl)C(F)(F)F)=CC=C1N(=O)=O",
        "Molecular Formula": "C<sub>14</sub>H<sub>7</sub>ClF<sub>3</sub>NO<sub>5</sub>.Na",
        "Molecular Mass": "",
        "Boiling Point": "&gt;100 °C",
        "Melting Point": "&gt;100 °C",
        "Density": "1.26 g/cm³ @ Temp: 23 °C"
    }
}