{
    "cas_no": "1731-88-0",
    "key_name": "Methyl tridecanoate",
    "cn_name": "十三碳酸脂肪酸;",
    "alternate_name": "Tridecanoic acid, methyl ester;Methyl <em>n</em>-tridecanoate;Methyl tridecanoate;NSC 163375",
    "duplicated_cas_no": "",
    "SMILES": "C(CCC(OC)=O)CCCCCCCCC",
    "meta_data": {
        "InChI": "InChI=1S/C14H28O2/c1-3-4-5-6-7-8-9-10-11-12-13-14(15)16-2/h3-13H2,1-2H3",
        "InChIKey": null,
        "Canonical SMILES": "O=C(OC)CCCCCCCCCCCC",
        "Molecular Formula": "C<sub>14</sub>H<sub>28</sub>O<sub>2</sub>",
        "Molecular Mass": "228.37",
        "Boiling Point": "92 °C",
        "Melting Point": "6.5 °C"
    }
}