{
    "cas_no": "122-46-3",
    "key_name": "3-Methylphenyl acetate",
    "cn_name": "醋甲酚酯;",
    "alternate_name": "Acetic acid, 3-methylphenyl ester;Acetic acid, <em>m</em>-tolyl ester;Acetic acid <em>m</em>-cresol ester;<em>m</em>-Acetoxytoluene;Cresatin;<em>m</em>-Cresyl acetate;Kresatin;<em>m</em>-Tolyl acetate;<em>m</em>-Cresol acetate;3-Methylphenyl acetate;3-Acetoxytoluene;3-Cresyl acetate;3-Tolyl acetate;3-Methylphenol acetate;<em>m</em>-Methylphenyl acetate;NSC 4795",
    "duplicated_cas_no": "",
    "SMILES": "O(C(C)=O)C1=CC(C)=CC=C1",
    "meta_data": {
        "InChI": "InChI=1S/C9H10O2/c1-7-4-3-5-9(6-7)11-8(2)10/h3-6H,1-2H3",
        "InChIKey": null,
        "Canonical SMILES": "O=C(OC1=CC=CC(=C1)C)C",
        "Molecular Formula": "C<sub>9</sub>H<sub>10</sub>O<sub>2</sub>",
        "Molecular Mass": "150.17",
        "Boiling Point": "212 °C",
        "Melting Point": "12 °C",
        "Density": "1.048 g/cm³ @ Temp: 20 °C"
    }
}