{
    "cas_no": "2886-65-9",
    "key_name": "Desalkylflurazepam",
    "cn_name": null,
    "alternate_name": "2<em>H</em>-1,4-Benzodiazepin-2-one, 7-chloro-5-(2-fluorophenyl)-1,3-dihydro-;2<em>H</em>-1,4-Benzodiazepin-2-one, 7-chloro-5-(<em>o</em>-fluorophenyl)-1,3-dihydro-;7-Chloro-5-(2-fluorophenyl)-1,3-dihydro-2<em>H</em>-1,4-benzodiazepin-2-one;<em>N</em>-1-Desalkylflurazepam;7-Chloro-5-(<em>o</em>-fluorophenyl)-1,3-dihydro-1,4-benzodiazepin-2-one;7-Chloro-5-(<em>o</em>-fluorophenyl)-1,3-dihydro-2<em>H</em>-1,4-benzodiazepine-2-one;7-Chloro-5-(2′-fluorophenyl)-1,3-dihydro-2<em>H</em>-1,4-benzodiazepin-2-one;Ro 5-3367;Norfludiazepam;CM 7116;<em>N</em>-Desalkylflutoprazepam;<em>N</em>-Desalkyl-2-oxoquazepam;Dealkylflurazepam;Desalkylflurazepam;Descarbethoxyloflazepate;Sch 17514;Norflutoprazepam;7-Chloro-1,3-dihydro-5-(2′-fluorophenyl)-2<em>H</em>-1,4-benzodiazapin-2-one;Norflurazepam",
    "duplicated_cas_no": "",
    "SMILES": "ClC=1C=C2C(=NCC(=O)NC2=CC1)C3=C(F)C=CC=C3",
    "meta_data": {
        "InChI": "InChI=1S/C15H10ClFN2O/c16-9-5-6-13-11(7-9)15(18-8-14(20)19-13)10-3-1-2-4-12(10)17/h1-7H,8H2,(H,19,20)",
        "InChIKey": null,
        "Canonical SMILES": "O=C1NC=2C=CC(Cl)=CC2C(=NC1)C=3C=CC=CC3F",
        "Molecular Formula": "C<sub>15</sub>H<sub>10</sub>ClFN<sub>2</sub>O",
        "Molecular Mass": "288.70",
        "Melting Point": "205-206 °C"
    }
}