{
    "cas_no": "4449-51-8",
    "key_name": "Cyclopamine",
    "cn_name": "环杷明;",
    "alternate_name": "Spiro[9<em>H</em>-benzo[<em>a</em>]fluorene-9,2′(3′<em>H</em>)-furo[3,2-<em>b</em>]pyridin]-3-ol, 1,2,3,3′a,4,4′,5′,6,6′,6a,6b,7,7′,7′a,8,11,11a,11b-octadecahydro-3′,6′,10,11b-tetramethyl-, (2′<em>R</em>,3<em>S</em>,3′<em>R</em>,3′a<em>S</em>,6′<em>S</em>,6a<em>S</em>,6b<em>S</em>,7′a<em>R</em>,11a<em>S</em>,11b<em>R</em>)-;Cyclopamine;Veratraman-3-ol, 17,23-epoxy-, (3β,23β)-;Jervine, 11-deoxo-;(2′<em>R</em>,3<em>S</em>,3′<em>R</em>,3′a<em>S</em>,6′<em>S</em>,6a<em>S</em>,6b<em>S</em>,7′a<em>R</em>,11a<em>S</em>,11b<em>R</em>)-1,2,3,3′a,4,4′,5′,6,6′,6a,6b,7,7′,7′a,8,11,11a,11b-Octadecahydro-3′,6′,10,11b-tetramethylspiro[9<em>H</em>-benzo[<em>a</em>]fluorene-9,2′(3′<em>H</em>)-furo[3,2-<em>b</em>]pyridin]-3-ol;11-Deoxyjervine;11-Deoxojervine;(-)-Cyclopamine",
    "duplicated_cas_no": "11051-96-0;26108-61-2",
    "SMILES": "CC=1[C@]2([C@H](C)[C@]3([C@](O2)(C[C@H](C)CN3)[H])[H])CC[C@@]4(C1C[C@]5([C@]4(CC=C6[C@]5(C)CC[C@H](O)C6)[H])[H])[H]",
    "meta_data": {
        "InChI": "InChI=1S/C27H41NO2/c1-15-11-24-25(28-14-15)17(3)27(30-24)10-8-20-21-6-5-18-12-19(29)7-9-26(18,4)23(21)13-22(20)16(27)2/h5,15,17,19-21,23-25,28-29H,6-14H2,1-4H3/t15-,17+,19-,20-,21-,23-,24+,25-,26-,27-/m0/s1",
        "InChIKey": null,
        "Canonical SMILES": "OC1CC2=CCC3C4C(=C(C)C5(OC6CC(C)CNC6C5C)CC4)CC3C2(C)CC1",
        "Molecular Formula": "C<sub>27</sub>H<sub>41</sub>NO<sub>2</sub>",
        "Molecular Mass": "411.62",
        "Melting Point": "224-227 °C"
    }
}