{
    "cas_no": "10527-11-4",
    "key_name": "3-(4-Hydroxyphenyl)-1,1,3-trimethyl-5-indanol",
    "cn_name": "茚满双酚;",
    "alternate_name": "1<em>H</em>-Inden-5-ol, 2,3-dihydro-3-(4-hydroxyphenyl)-1,1,3-trimethyl-;5-Indanol, 3-(<em>p</em>-hydroxyphenyl)-1,1,3-trimethyl-;2,3-Dihydro-3-(4-hydroxyphenyl)-1,1,3-trimethyl-1<em>H</em>-inden-5-ol;3-(4-Hydroxyphenyl)-1,1,3-trimethyl-5-indanol;5-Hydroxy-3-(4-hydroxyphenyl)-1,1,3-trimethylindan;3-(<em>p</em>-Hydroxyphenyl)-1,1,3-trimethyl-5-indanol;1,3,3-Trimethyl-1-<em>p</em>-hydroxyphenylindan-6-ol;PIPE-CD",
    "duplicated_cas_no": "67746-69-4",
    "SMILES": "CC1(C=2C(C(C)(C)C1)=CC=C(O)C2)C3=CC=C(O)C=C3",
    "meta_data": {
        "InChI": "InChI=1S/C18H20O2/c1-17(2)11-18(3,12-4-6-13(19)7-5-12)16-10-14(20)8-9-15(16)17/h4-10,19-20H,11H2,1-3H3",
        "InChIKey": null,
        "Canonical SMILES": "OC1=CC=C(C=C1)C2(C3=CC(O)=CC=C3C(C)(C)C2)C",
        "Molecular Formula": "C<sub>18</sub>H<sub>20</sub>O<sub>2</sub>",
        "Molecular Mass": "268.35",
        "Melting Point": "194-195 °C"
    }
}