{
    "cas_no": "112-64-1",
    "key_name": "Tetradecanoyl chloride",
    "cn_name": "肉豆蔻酰氯;十四烷酰氯;",
    "alternate_name": "Tetradecanoyl chloride;Myristoyl chloride;<em>n</em>-Tetradecanoyl chloride;Myristic acid chloride;Tetradecanoic acid chloride;NSC 9417;Tetradecanoic acid, anhydride with carbonochloridic acid",
    "duplicated_cas_no": "902459-01-2;1246204-30-7",
    "SMILES": "C(CCCCCCCC)CCCCC(Cl)=O",
    "meta_data": {
        "InChI": "InChI=1S/C14H27ClO/c1-2-3-4-5-6-7-8-9-10-11-12-13-14(15)16/h2-13H2,1H3",
        "InChIKey": null,
        "Canonical SMILES": "O=C(Cl)CCCCCCCCCCCCC",
        "Molecular Formula": "C<sub>14</sub>H<sub>27</sub>ClO",
        "Molecular Mass": "246.82",
        "Boiling Point": "145-148 °C @ Press: 5 Torr",
        "Melting Point": "-1 °C"
    }
}