{
    "cas_no": "3930-20-9",
    "key_name": "Sotalol",
    "cn_name": "索他洛尔;4\"-(1-羟基-2-异丙胺乙基)甲磺酰苯胺;",
    "alternate_name": "Methanesulfonamide, <em>N</em>-[4-[1-hydroxy-2-[(1-methylethyl)amino]ethyl]phenyl]-;Methanesulfonanilide, 4′-[1-hydroxy-2-(isopropylamino)ethyl]-;<em>N</em>-[4-[1-Hydroxy-2-[(1-methylethyl)amino]ethyl]phenyl]methanesulfonamide;4′-[1-Hydroxy-2-(isopropylamino)ethyl]methanesulfonanilide;Sotalol;Beta-Cardone;<span class=\"text-smallcaps\">DL</span>-4-(2-Isopropylamino-1-hydroxyethyl)methanesulfonanilide;<em>dl</em>-Sotalol;(±)-Sotalol;<span class=\"text-smallcaps\">DL</span>-Sotalol;MeSH ID: D013015",
    "duplicated_cas_no": "27948-47-6",
    "SMILES": "C(CNC(C)C)(O)C1=CC=C(NS(C)(=O)=O)C=C1",
    "meta_data": {
        "InChI": "InChI=1S/C12H20N2O3S/c1-9(2)13-8-12(15)10-4-6-11(7-5-10)14-18(3,16)17/h4-7,9,12-15H,8H2,1-3H3",
        "InChIKey": null,
        "Canonical SMILES": "O=S(=O)(NC1=CC=C(C=C1)C(O)CNC(C)C)C",
        "Molecular Formula": "C<sub>12</sub>H<sub>20</sub>N<sub>2</sub>O<sub>3</sub>S",
        "Molecular Mass": "272.36",
        "Melting Point": "206.5-207 °C",
        "Density": "1.298 g/cm³"
    }
}