{
    "cas_no": "676128-63-5",
    "key_name": "(<em>S</em>)-1-(2-Fluorophenyl)-3-(2-oxo-5-phenyl-2,3-dihydro-1<em>H</em>-benzo[<em>e</em>][1,4]diazepin-3-yl)urea",
    "cn_name": null,
    "alternate_name": "Urea, <em>N</em>-[(3<em>S</em>)-2,3-dihydro-2-oxo-5-phenyl-1<em>H</em>-1,4-benzodiazepin-3-yl]-<em>N</em>′-(2-fluorophenyl)-;<em>N</em>-[(3<em>S</em>)-2,3-Dihydro-2-oxo-5-phenyl-1<em>H</em>-1,4-benzodiazepin-3-yl]-<em>N</em>′-(2-fluorophenyl)urea;(<em>S</em>)-1-(2-Fluorophenyl)-3-(2-oxo-5-phenyl-2,3-dihydro-1<em>H</em>-benzo[<em>e</em>][1,4]diazepin-3-yl)urea;RSV 604;(<em>S</em>)-<em>N</em>-(2-Fluorophenyl)-<em>N</em>′-(2-oxo-5-phenyl-2,3-dihydro-1<em>H</em>-benzo[<em>e</em>][1,4]diazepin-3-yl)urea;1-(2-Fluorophenyl)-3-[(3S)-2-oxo-5-phenyl-1,3-dihydro-1,4-benzodiazepin-3-yl]urea",
    "duplicated_cas_no": "",
    "SMILES": "N(C(NC1=C(F)C=CC=C1)=O)[C@H]2N=C(C=3C(NC2=O)=CC=CC3)C4=CC=CC=C4",
    "meta_data": {
        "InChI": "InChI=1S/C22H17FN4O2/c23-16-11-5-7-13-18(16)25-22(29)27-20-21(28)24-17-12-6-4-10-15(17)19(26-20)14-8-2-1-3-9-14/h1-13,20H,(H,24,28)(H2,25,27,29)/t20-/m1/s1",
        "InChIKey": null,
        "Canonical SMILES": "O=C(NC=1C=CC=CC1F)NC2N=C(C=3C=CC=CC3)C=4C=CC=CC4NC2=O",
        "Molecular Formula": "C<sub>22</sub>H<sub>17</sub>FN<sub>4</sub>O<sub>2</sub>",
        "Molecular Mass": "388.39",
        "Melting Point": "243-245 °C (decomp)"
    }
}