{
    "cas_no": "19833-12-6",
    "key_name": "Myricetin 3-<em>O</em>-glucoside",
    "cn_name": null,
    "alternate_name": "4<em>H</em>-1-Benzopyran-4-one, 3-(β-<span class=\"text-smallcaps\">D</span>-glucopyranosyloxy)-5,7-dihydroxy-2-(3,4,5-trihydroxyphenyl)-;Isomyricitrin;Myricetin 3-glucoside;3-(β-<span class=\"text-smallcaps\">D</span>-Glucopyranosyloxy)-5,7-dihydroxy-2-(3,4,5-trihydroxyphenyl)-4<em>H</em>-1-benzopyran-4-one;Myricetin 3-<em>O</em>-glucoside;Myricetin 3-β-<span class=\"text-smallcaps\">D</span>-glucopyranoside;Myricetin 3-<em>O</em>-<span class=\"text-smallcaps\">D</span>-glucoside;Myricetin 3-<em>O</em>-β-<span class=\"text-smallcaps\">D</span>-glucoside;Myricetin 3-β-glucoside;Myricetin 3-<em>O</em>-β-<span class=\"text-smallcaps\">D</span>-glucopyranoside;3,3′,4′,5,5′,7-Hexahydroxyflavone 3-β-<span class=\"text-smallcaps\">D</span>-glucopyranoside;Isomericitrin;Myricetin 3-<em>O</em>-glucopyranoside",
    "duplicated_cas_no": "6822-41-9;29662-78-0",
    "SMILES": "O(C1=C(OC=2C(C1=O)=C(O)C=C(O)C2)C3=CC(O)=C(O)C(O)=C3)[C@@H]4O[C@H](CO)[C@@H](O)[C@H](O)[C@H]4O",
    "meta_data": {
        "InChI": "InChI=1S/C21H20O13/c22-5-12-15(28)17(30)18(31)21(33-12)34-20-16(29)13-8(24)3-7(23)4-11(13)32-19(20)6-1-9(25)14(27)10(26)2-6/h1-4,12,15,17-18,21-28,30-31H,5H2/t12-,15-,17+,18-,21+/m1/s1",
        "InChIKey": null,
        "Canonical SMILES": "O=C1C(OC2OC(CO)C(O)C(O)C2O)=C(OC=3C=C(O)C=C(O)C13)C=4C=C(O)C(O)=C(O)C4",
        "Molecular Formula": "C<sub>21</sub>H<sub>20</sub>O<sub>13</sub>",
        "Molecular Mass": "480.38",
        "Melting Point": "275-277 °C"
    }
}