{
    "cas_no": "768-11-6",
    "key_name": "5-Bromobenzothiazole",
    "cn_name": "5-溴苯并噻唑;",
    "alternate_name": "Benzothiazole, 5-bromo-;5-Bromobenzothiazole;5-Bromobenzo[<em>d</em>]thiazole;5-Bromo-1,3-benzothiazole",
    "duplicated_cas_no": "",
    "SMILES": "BrC=1C=C2C(=CC1)SC=N2",
    "meta_data": {
        "InChI": "InChI=1S/C7H4BrNS/c8-5-1-2-7-6(3-5)9-4-10-7/h1-4H",
        "InChIKey": null,
        "Canonical SMILES": "BrC=1C=CC=2SC=NC2C1",
        "Molecular Formula": "C<sub>7</sub>H<sub>4</sub>BrNS",
        "Molecular Mass": "214.08",
        "Melting Point": "106 °C"
    }
}