{
    "cas_no": "359-70-6",
    "key_name": "Perfluorotriethylamine",
    "cn_name": "全氟三乙胺;",
    "alternate_name": "Ethanamine, 1,1,2,2,2-pentafluoro-<em>N</em>,<em>N</em>-bis(1,1,2,2,2-pentafluoroethyl)-;Triethylamine, pentadecafluoro-;Ethanamine, 1,1,2,2,2-pentafluoro-<em>N</em>,<em>N</em>-bis(pentafluoroethyl)-;1,1,2,2,2-Pentafluoro-<em>N</em>,<em>N</em>-bis(1,1,2,2,2-pentafluoroethyl)ethanamine;Perfluorotriethylamine;Pentadecafluorotriethylamine;Tri(perfluoroethyl)amine;Tris(pentafluoroethyl)amine;Tris(perfluoroethyl) amine;FC 131 (amine);FC 131",
    "duplicated_cas_no": "",
    "SMILES": "N(C(C(F)(F)F)(F)F)(C(C(F)(F)F)(F)F)C(C(F)(F)F)(F)F",
    "meta_data": {
        "InChI": "InChI=1S/C6F15N/c7-1(8,9)4(16,17)22(5(18,19)2(10,11)12)6(20,21)3(13,14)15",
        "InChIKey": null,
        "Canonical SMILES": "FC(F)(F)C(F)(F)N(C(F)(F)C(F)(F)F)C(F)(F)C(F)(F)F",
        "Molecular Formula": "C<sub>6</sub>F<sub>15</sub>N",
        "Molecular Mass": "371.05",
        "Boiling Point": "71 °C",
        "Melting Point": "-110 °C",
        "Density": "1.736 g/cm³ @ Temp: 25 °C"
    }
}