{
    "cas_no": "3984-22-3",
    "key_name": "2-Ethenyl-1,3-dioxolane",
    "cn_name": "2-乙烯基-1,3-二氧戊环;2-乙烯基-1,3-二恶茂烷;",
    "alternate_name": "1,3-Dioxolane, 2-ethenyl-;1,3-Dioxolane, 2-vinyl-;2-Ethenyl-1,3-dioxolane;2-Vinyl-1,3-dioxolane;Acrolein ethylene acetal;Acrolein ethylene ketal",
    "duplicated_cas_no": "",
    "SMILES": "C(=C)C1OCCO1",
    "meta_data": {
        "InChI": "InChI=1S/C5H8O2/c1-2-5-6-3-4-7-5/h2,5H,1,3-4H2",
        "InChIKey": null,
        "Canonical SMILES": "O1CCOC1C=C",
        "Molecular Formula": "C<sub>5</sub>H<sub>8</sub>O<sub>2</sub>",
        "Molecular Mass": "100.12",
        "Boiling Point": "112-116 °C",
        "Density": "0.9581 g/cm³ @ Temp: 20 °C"
    }
}