{
    "cas_no": "58-32-2",
    "key_name": "Dipyridamole",
    "cn_name": "双嘧达莫;潘生丁;双嘧哌胺醇;2,6-双(二羟乙基氨基)-4,8-二哌啶基嘧啶并[5,4-d]嘧啶;",
    "alternate_name": "Ethanol, 2,2′,2′′,2′′′-[(4,8-di-1-piperidinylpyrimido[5,4-<em>d</em>]pyrimidine-2,6-diyl)dinitrilo]tetrakis-;Ethanol, 2,2′,2′′,2′′′-[(4,8-dipiperidinopyrimido[5,4-<em>d</em>]pyrimidine-2,6-diyl)dinitrilo]tetra-;Pyrimido[5,4-<em>d</em>]pyrimidine, ethanol deriv.;2,2′,2′′,2′′′-[(4,8-Di-1-piperidinylpyrimido[5,4-<em>d</em>]pyrimidine-2,6-diyl)dinitrilo]tetrakis[ethanol];RA 8;2,6-Bis(diethanolamino)-4,8-dipiperidinopyrimido[5,4-<em>d</em>]pyrimidine;2,2′,2′′,2′′′-[[4,8-Dipiperidinopyrimido(5,4-<em>d</em>)pyrimidine-2,6-diyl]dinitrilo]tetraethanol;Dipyridamine;Dipyridamol;Dipyridamole;Persantin;Persantine;Anginal;Cardoxin;Curantyl;Kurantil;Stenocardil;Apricor;Cardioflux;Stimolcardio;Coribon;Corosan;Coroxin;Prandiol;Coronarine;Cardoxil;Gulliostin;Protangix;Piroan;Peridamol;Natyl;Coridil;Cleridium;NSC 515776;Dipyridan;NSC 619103;2,2′,2′′,2′′′-[[4,8-Di(piperidin-1-yl)pyrimido[5,4-<em>d</em>]pyrimidine-2,6-diyl]dinitrilo]tetraethanol;2,2′,2′′,2′′′-((4,8-Di(piperidin-1-yl)pyrimido[5,4-<em>d</em>]pyrimidine-2,6-diyl)bis(azanetriyl))tetraethanol;2-([6-[Bis(2-hydroxyethyl)amino]-4,8-bis(piperidin-1-yl)-[1,3]diazino[5,4-<em>d</em>]pyrimidin-2-yl](2-hydroxyethyl)amino)ethan-1-ol;2-[[2-[Bis(2-hydroxyethyl)amino]-4,8-di(piperidin-1-yl)pyrimido[5,4-<em>d</em>]pyrimidin-6-yl]-(2-hydroxyethyl)amino]ethanol;MeSH ID: D004176",
    "duplicated_cas_no": "",
    "SMILES": "N(CCO)(CCO)C1=NC2=C(C(=N1)N3CCCCC3)N=C(N(CCO)CCO)N=C2N4CCCCC4",
    "meta_data": {
        "InChI": "InChI=1S/C24H40N8O4/c33-15-11-31(12-16-34)23-26-20-19(21(27-23)29-7-3-1-4-8-29)25-24(32(13-17-35)14-18-36)28-22(20)30-9-5-2-6-10-30/h33-36H,1-18H2",
        "InChIKey": null,
        "Canonical SMILES": "OCCN(C=1N=C2C(N=C(N=C2N3CCCCC3)N(CCO)CCO)=C(N1)N4CCCCC4)CCO",
        "Molecular Formula": "C<sub>24</sub>H<sub>40</sub>N<sub>8</sub>O<sub>4</sub>",
        "Molecular Mass": "504.63",
        "Melting Point": "163 °C"
    }
}