{
    "cas_no": "2413-38-9",
    "key_name": "Flupentixol dihydrochloride",
    "cn_name": "盐酸氟哌噻吨;(Z)-4-[3-[2-(三氟甲基)-9H-硫杂蒽-9-亚基]丙基]-1-哌嗪基乙醇二盐酸盐;",
    "alternate_name": "1-Piperazineethanol, 4-[3-[2-(trifluoromethyl)-9<em>H</em>-thioxanthen-9-ylidene]propyl]-, hydrochloride (1:2);1-Piperazineethanol, 4-[3-[2-(trifluoromethyl)thioxanthen-9-ylidene]propyl]-, dihydrochloride;1-Piperazineethanol, 4-[3-[2-(trifluoromethyl)-9<em>H</em>-thioxanthen-9-ylidene]propyl]-, dihydrochloride;FX 703;Flupentixol dihydrochloride;Flupentixol hydrochloride;Emergil;Siplarol;Metamin",
    "duplicated_cas_no": "",
    "SMILES": "C(CCN1CCN(CCO)CC1)=C2C=3C(SC=4C2=CC=CC4)=CC=C(C(F)(F)F)C3.Cl",
    "meta_data": {
        "InChI": "InChI=1S/C23H25F3N2OS.2ClH/c24-23(25,26)17-7-8-22-20(16-17)18(19-4-1-2-6-21(19)30-22)5-3-9-27-10-12-28(13-11-27)14-15-29;;/h1-2,4-8,16,29H,3,9-15H2;2*1H",
        "InChIKey": null,
        "Canonical SMILES": "Cl.FC(F)(F)C1=CC=C2SC=3C=CC=CC3C(=CCCN4CCN(CCO)CC4)C2=C1",
        "Molecular Formula": "C<sub>23</sub>H<sub>25</sub>F<sub>3</sub>N<sub>2</sub>OS.2ClH",
        "Molecular Mass": "",
        "Melting Point": "237-239 °C"
    }
}