{
    "cas_no": "21609-90-5",
    "key_name": "Leptophos",
    "cn_name": "对溴磷;O-(4-溴-2，5-二氯苯基)-O-甲基苯基硫代膦酸酯;溴苯膦;",
    "alternate_name": "Phosphonothioic acid, <em>P</em>-phenyl-, <em>O</em>-(4-bromo-2,5-dichlorophenyl) <em>O</em>-methyl ester;Phosphonothioic acid, phenyl-, <em>O</em>-(4-bromo-2,5-dichlorophenyl) <em>O</em>-methyl ester;<em>O</em>-(4-Bromo-2,5-dichlorophenyl) <em>O</em>-methyl phenylphosphonothioate;VCS 506;Velsicol VCS 506;Velsicol 506;Phosvel;K62-105;Leptophos;Fosvel;NK 711;Abar;Oleophosvel;MBCP;(±)-Leptophos;MeSH ID: D010773",
    "duplicated_cas_no": "73270-49-2",
    "SMILES": "P(OC1=C(Cl)C=C(Br)C(Cl)=C1)(OC)(=S)C2=CC=CC=C2",
    "meta_data": {
        "InChI": "InChI=1S/C13H10BrCl2O2PS/c1-17-19(20,9-5-3-2-4-6-9)18-13-8-11(15)10(14)7-12(13)16/h2-8H,1H3",
        "InChIKey": null,
        "Canonical SMILES": "S=P(OC=1C=C(Cl)C(Br)=CC1Cl)(OC)C=2C=CC=CC2",
        "Molecular Formula": "C<sub>13</sub>H<sub>10</sub>BrCl<sub>2</sub>O<sub>2</sub>PS",
        "Molecular Mass": "412.07",
        "Melting Point": "70.2-70.6 °C",
        "Density": "1.53 g/cm³ @ Temp: 25 °C"
    }
}