{
    "cas_no": "26088-79-9",
    "key_name": "<em>N</em>-[4-(2,2-Dicyanoethenyl)phenyl]acetamide",
    "cn_name": "2-(4-乙酰氨基苯亚甲基)丙二腈;2-(4-乙酰氨基亚苄基)丙二腈;",
    "alternate_name": "Acetamide, <em>N</em>-[4-(2,2-dicyanoethenyl)phenyl]-;Malononitrile, (<em>p</em>-acetamidobenzylidene)-;Acetanilide, 4′-(2,2-dicyanovinyl)-;<em>N</em>-[4-(2,2-Dicyanoethenyl)phenyl]acetamide;NSC 56077;<em>N</em>-[4-(2,2-Dicyanovinyl)phenyl]acetamide",
    "duplicated_cas_no": "",
    "SMILES": "C(=C(C#N)C#N)C1=CC=C(NC(C)=O)C=C1",
    "meta_data": {
        "InChI": "InChI=1S/C12H9N3O/c1-9(16)15-12-4-2-10(3-5-12)6-11(7-13)8-14/h2-6H,1H3,(H,15,16)",
        "InChIKey": null,
        "Canonical SMILES": "N#CC(C#N)=CC1=CC=C(C=C1)NC(=O)C",
        "Molecular Formula": "C<sub>12</sub>H<sub>9</sub>N<sub>3</sub>O",
        "Molecular Mass": "211.22",
        "Melting Point": "236 °C"
    }
}