{
    "cas_no": "13195-66-9",
    "key_name": "Decanoic acid, 3-oxo-, ethyl ester",
    "cn_name": "3-羰基癸酸乙酯;",
    "alternate_name": "Decanoic acid, 3-oxo-, ethyl ester;Capric acid, β-oxo-, ethyl ester;Ethyl octanoylacetate;3-Oxodecanoic acid ethyl ester;Ethyl 3-oxodecanoate",
    "duplicated_cas_no": "",
    "SMILES": "C(CC(OCC)=O)(CCCCCCC)=O",
    "meta_data": {
        "InChI": "InChI=1S/C12H22O3/c1-3-5-6-7-8-9-11(13)10-12(14)15-4-2/h3-10H2,1-2H3",
        "InChIKey": null,
        "Canonical SMILES": "O=C(OCC)CC(=O)CCCCCCC",
        "Molecular Formula": "C<sub>12</sub>H<sub>22</sub>O<sub>3</sub>",
        "Molecular Mass": "214.30",
        "Boiling Point": "123-126 °C @ Press: 11 Torr"
    }
}