{
    "cas_no": "1668-13-9",
    "key_name": "Alanine <em>p</em>-nitroanilide",
    "cn_name": "L-丙氨酸4-硝基酰苯胺;",
    "alternate_name": "Propanamide, 2-amino-<em>N</em>-(4-nitrophenyl)-, (2<em>S</em>)-;Propionanilide, 2-amino-4′-nitro-, <span class=\"text-smallcaps\">L</span>-;Propanamide, 2-amino-<em>N</em>-(4-nitrophenyl)-, (<em>S</em>)-;(2<em>S</em>)-2-Amino-<em>N</em>-(4-nitrophenyl)propanamide;<span class=\"text-smallcaps\">L</span>-Alanine <em>p</em>-nitroanilide;<span class=\"text-smallcaps\">L</span>-Alanyl <em>p</em>-nitroanilide;<span class=\"text-smallcaps\">L</span>-Alanine 4-nitroanilide;Alanine <em>p</em>-nitroanilide;<em>N</em>-α-<span class=\"text-smallcaps\">L</span>-Alanine <em>p</em>-nitroanilide;2-Amino-4′-nitro-<span class=\"text-smallcaps\">L</span>-propionanilide;(2S)-2-Amino-<em>N</em>-(4-nitrophenyl)propanamide",
    "duplicated_cas_no": "",
    "SMILES": "N(C([C@H](C)N)=O)C1=CC=C(N(=O)=O)C=C1",
    "meta_data": {
        "InChI": "InChI=1S/C9H11N3O3/c1-6(10)9(13)11-7-2-4-8(5-3-7)12(14)15/h2-6H,10H2,1H3,(H,11,13)/t6-/m0/s1",
        "InChIKey": null,
        "Canonical SMILES": "O=C(NC1=CC=C(C=C1)N(=O)=O)C(N)C",
        "Molecular Formula": "C<sub>9</sub>H<sub>11</sub>N<sub>3</sub>O<sub>3</sub>",
        "Molecular Mass": "209.20",
        "Melting Point": "95 °C"
    }
}