{
    "cas_no": "622-33-3",
    "key_name": "<em>O</em>-Benzylhydroxylamine",
    "cn_name": "O-苄基羟胺;邻苄基羟胺;",
    "alternate_name": "Hydroxylamine, <em>O</em>-(phenylmethyl)-;Hydroxylamine, <em>O</em>-benzyl-;Benzyloxyamine;<em>O</em>-(Phenylmethyl)hydroxylamine;<em>O</em>-Benzylhydroxylamine;SNR 1635;<em>O</em>-Benzyloxyamine;α-(Aminooxy)toluene",
    "duplicated_cas_no": "",
    "SMILES": "C(ON)C1=CC=CC=C1",
    "meta_data": {
        "InChI": "InChI=1S/C7H9NO/c8-9-6-7-4-2-1-3-5-7/h1-5H,6,8H2",
        "InChIKey": null,
        "Canonical SMILES": "O(N)CC=1C=CC=CC1",
        "Molecular Formula": "C<sub>7</sub>H<sub>9</sub>NO",
        "Molecular Mass": "123.15",
        "Boiling Point": "118-119 °C @ Press: 30 Torr",
        "Melting Point": "229-235 °C"
    }
}