{
    "cas_no": "2555-29-5",
    "key_name": "8-Acetyl-7-hydroxy-4-methylcoumarin",
    "cn_name": "8-乙酰基-7-羟基-4-甲基香豆素;8-乙酰基-7-羟基-4-甲基-2H-1-苯并吡喃-2-酮;",
    "alternate_name": "2<em>H</em>-1-Benzopyran-2-one, 8-acetyl-7-hydroxy-4-methyl-;Coumarin, 8-acetyl-7-hydroxy-4-methyl-;Umbelliferone, 8-acetyl-4-methyl-;8-Acetyl-7-hydroxy-4-methyl-2<em>H</em>-1-benzopyran-2-one;4-Methyl-7-hydroxy-8-acetylcoumarin;7-Hydroxy-8-acetyl-4-methylcoumarin;8-Acetyl-7-hydroxy-4-methylcoumarin;4-Methyl-7-hydroxy-8-acetocoumarin;8-Acetyl-4-methylumbelliferone;NSC 19027;8-Acetyl-4-methyl-7-hydroxycoumarin",
    "duplicated_cas_no": "",
    "SMILES": "C(C)(=O)C1=C2C(C(C)=CC(=O)O2)=CC=C1O",
    "meta_data": {
        "InChI": "InChI=1S/C12H10O4/c1-6-5-10(15)16-12-8(6)3-4-9(14)11(12)7(2)13/h3-5,14H,1-2H3",
        "InChIKey": null,
        "Canonical SMILES": "O=C1OC2=C(C=CC(O)=C2C(=O)C)C(=C1)C",
        "Molecular Formula": "C<sub>12</sub>H<sub>10</sub>O<sub>4</sub>",
        "Molecular Mass": "218.21",
        "Melting Point": "168 °C"
    }
}