{
    "cas_no": "13194-68-8",
    "key_name": "4-Iodo-2-methylaniline",
    "cn_name": "4-碘基-2-甲基苯胺;",
    "alternate_name": "Benzenamine, 4-iodo-2-methyl-;<em>o</em>-Toluidine, 4-iodo-;4-Iodo-2-methylbenzenamine;4-Iodo-<em>o</em>-toluidine;4-Iodo-2-methylaniline;2-Amino-5-iodotoluene;NSC 60731;2-Methyl-4-iodoaniline;4-Iodo-2-Methylbenzenamine",
    "duplicated_cas_no": "",
    "SMILES": "CC1=C(N)C=CC(I)=C1",
    "meta_data": {
        "InChI": "InChI=1S/C7H8IN/c1-5-4-6(8)2-3-7(5)9/h2-4H,9H2,1H3",
        "InChIKey": null,
        "Canonical SMILES": "IC1=CC=C(N)C(=C1)C",
        "Molecular Formula": "C<sub>7</sub>H<sub>8</sub>IN",
        "Molecular Mass": "233.05",
        "Melting Point": "88 °C"
    }
}