{
    "cas_no": "77-76-9",
    "key_name": "2,2-Dimethoxypropane",
    "cn_name": "2,2-二甲氧基丙烷;",
    "alternate_name": "Propane, 2,2-dimethoxy-;Acetone, dimethyl acetal;2,2-Dimethoxypropane;Acetone dimethyl ketal;NSC 62085;2,2-Bis(methyloxy)propane;2,2-DMP",
    "duplicated_cas_no": "",
    "SMILES": "C(OC)(OC)(C)C",
    "meta_data": {
        "InChI": "InChI=1S/C5H12O2/c1-5(2,6-3)7-4/h1-4H3",
        "InChIKey": null,
        "Canonical SMILES": "O(C)C(OC)(C)C",
        "Molecular Formula": "C<sub>5</sub>H<sub>12</sub>O<sub>2</sub>",
        "Molecular Mass": "104.15",
        "Boiling Point": "83 °C",
        "Melting Point": "-47 °C",
        "Density": "0.8448 g/cm³ @ Temp: 20 °C"
    }
}