{
    "cas_no": "141-12-8",
    "key_name": "Neryl acetate",
    "cn_name": "乙酸橙花酯;橙花乙酸酯;(Z)-3,7-二甲基-2,6-辛二烯-1-醇乙酸酯;",
    "alternate_name": "2,6-Octadien-1-ol, 3,7-dimethyl-, 1-acetate, (2<em>Z</em>)-;2,6-Octadien-1-ol, 3,7-dimethyl-, acetate, (<em>Z</em>)-;Nerol acetate;2,6-Octadien-1-ol, 3,7-dimethyl-, acetate, (2<em>Z</em>)-;2,6-Octadien-1-ol, 3,7-dimethyl-, formate, <em>cis</em>-;Neryl acetate;<em>cis</em>-Geranyl acetate;<em>cis</em>-1-Acetoxy-3,7-dimethyl-2,6-octadiene;<em>Z</em>-3,7-Dimethyl-2,6-octadien-1-ol acetate;Acetic acid neryl ester",
    "duplicated_cas_no": "130396-85-9",
    "SMILES": "C(\\CCC=C(C)C)(=C\\COC(C)=O)/C",
    "meta_data": {
        "InChI": "InChI=1S/C12H20O2/c1-10(2)6-5-7-11(3)8-9-14-12(4)13/h6,8H,5,7,9H2,1-4H3/b11-8-",
        "InChIKey": null,
        "Canonical SMILES": "O=C(OCC=C(C)CCC=C(C)C)C",
        "Molecular Formula": "C<sub>12</sub>H<sub>20</sub>O<sub>2</sub>",
        "Molecular Mass": "196.29",
        "Boiling Point": "235 °C",
        "Melting Point": "&lt;25 °C",
        "Density": "0.903 g/cm³ @ Temp: 15 °C"
    }
}