{
    "cas_no": "23282-20-4",
    "key_name": "Nivalenol",
    "cn_name": "瓜萎镰菌醇;",
    "alternate_name": "Trichothec-9-en-8-one, 12,13-epoxy-3,4,7,15-tetrahydroxy-, (3α,4β,7α)-;Trichothec-9-en-8-one, 12,13-epoxy-3α,4β,7α,15-tetrahydroxy-;Spiro[2,5-methano-1-benzoxepin-10,2′-oxirane], trichothec-9-en-8-one deriv.;(3α,4β,7α)-12,13-Epoxy-3,4,7,15-tetrahydroxytrichothec-9-en-8-one;12,13-Epoxy-3α,4β,7α,15-tetrahydroxytrichothec-9-en-8-one;3α,4β,7α,15-Tetrahydroxyscrip-9-en-8-one;Nivalenol;NSC 269143",
    "duplicated_cas_no": "",
    "SMILES": "C[C@]12[C@@]3([C@](O[C@]4([C@]1(CO)[C@H](O)C(=O)C(C)=C4)[H])([C@H](O)[C@H]2O)[H])CO3",
    "meta_data": {
        "InChI": "InChI=1S/C15H20O7/c1-6-3-7-14(4-16,11(20)8(6)17)13(2)10(19)9(18)12(22-7)15(13)5-21-15/h3,7,9-12,16,18-20H,4-5H2,1-2H3/t7-,9-,10-,11-,12-,13-,14-,15+/m1/s1",
        "InChIKey": null,
        "Canonical SMILES": "O=C1C(=CC2OC3C(O)C(O)C(C)(C43OC4)C2(CO)C1O)C",
        "Molecular Formula": "C<sub>15</sub>H<sub>20</sub>O<sub>7</sub>",
        "Molecular Mass": "312.32",
        "Melting Point": "222-223 °C (decomp)"
    }
}