{
    "cas_no": "529-84-0",
    "key_name": "4-Methylesculetin",
    "cn_name": "4-甲基七叶亭;6,7-二羟基-4-甲基香豆素;",
    "alternate_name": "2<em>H</em>-1-Benzopyran-2-one, 6,7-dihydroxy-4-methyl-;Coumarin, 6,7-dihydroxy-4-methyl-;Esculetin, 4-methyl-;6,7-Dihydroxy-4-methyl-2<em>H</em>-1-benzopyran-2-one;4-Methylesculetin;4-Methyl-6,7-dihydroxycoumarin;4-Methylaesculetin;6,7-Dihydroxy-4-methylcoumarin;Methylesculetin;4-Methylesculetol;NSC 11828;NSC 688807",
    "duplicated_cas_no": "",
    "SMILES": "CC=1C=2C(=CC(O)=C(O)C2)OC(=O)C1",
    "meta_data": {
        "InChI": "InChI=1S/C10H8O4/c1-5-2-10(13)14-9-4-8(12)7(11)3-6(5)9/h2-4,11-12H,1H3",
        "InChIKey": null,
        "Canonical SMILES": "O=C1OC=2C=C(O)C(O)=CC2C(=C1)C",
        "Molecular Formula": "C<sub>10</sub>H<sub>8</sub>O<sub>4</sub>",
        "Molecular Mass": "192.17",
        "Melting Point": "199 °C"
    }
}