{
    "cas_no": "5535-49-9",
    "key_name": "2-Chloroethyl phenyl sulfide",
    "cn_name": "2-氯乙基苯基硫醚;",
    "alternate_name": "Benzene, [(2-chloroethyl)thio]-;Sulfide, 2-chloroethyl phenyl;[(2-Chloroethyl)thio]benzene;2-Chloroethyl phenyl sulfide;2-(Phenylthio)ethyl chloride;1-Chloro-2-(phenylthio)ethane;Phenyl half-mustard;NSC 45458;[(2-Chloroethyl)sulfanyl]benzene;2-Chloroethylsulfanylbenzene;2-Chloroethyl-phenylsulfane",
    "duplicated_cas_no": "",
    "SMILES": "S(CCCl)C1=CC=CC=C1",
    "meta_data": {
        "InChI": "InChI=1S/C8H9ClS/c9-6-7-10-8-4-2-1-3-5-8/h1-5H,6-7H2",
        "InChIKey": null,
        "Canonical SMILES": "ClCCSC=1C=CC=CC1",
        "Molecular Formula": "C<sub>8</sub>H<sub>9</sub>ClS",
        "Molecular Mass": "172.68",
        "Boiling Point": "144.5 °C @ Press: 26 Torr",
        "Melting Point": "5 °C",
        "Density": "1.182 g/cm³ @ Temp: 23.5 °C"
    }
}