{
    "cas_no": "522-75-8",
    "key_name": "Thioindigo",
    "cn_name": "还原红41;分散红364;溶剂红242;",
    "alternate_name": "Benzo[<em>b</em>]thiophen-3(2<em>H</em>)-one, 2-(3-oxobenzo[<em>b</em>]thien-2(3<em>H</em>)-ylidene)-;Thioindigo;[Δ<sup>2,2′(3</sup><em><sup>H</sup></em><sup>,3′</sup><em><sup>H</sup></em><sup>)</sup>-Bibenzo[<em>b</em>]thiophene]-3,3′-dione;2-(3-Oxobenzo[<em>b</em>]thien-2(3<em>H</em>)-ylidene)benzo[<em>b</em>]thiophen-3(2<em>H</em>)-one;C.I. 73300;Antinolo Red B;Ciba Pink B;Durindone Printing Red B;Durindone Red B;Durindone Red BP;Heliane Red 5B;Helindon Red BB;Tetra Pink B;Thioindigo Red B;Tina Pink B;Tyrian Red A 5B;Vat Red 5B;C.I. Vat Red 41;Isothioindigo;Thioindigo Red S;C.I. Disperse Red 364;Vat Red 41;Disperse Red 364;Samaron Brilliant Pink 5B;Hostasol Red 5B;C.I. Solvent Red 242;Solvent Red 242;Thioindigo red C;Kenawax Fluorescent Red 3BYP;Plast Red D 54;Disperse Red TR 16;KP Plast Brilliant Red MG",
    "duplicated_cas_no": "389105-46-8",
    "SMILES": "O=C1C(SC=2C1=CC=CC2)=C3C(=O)C=4C(S3)=CC=CC4",
    "meta_data": {
        "InChI": "InChI=1S/C16H8O2S2/c17-13-9-5-1-3-7-11(9)19-15(13)16-14(18)10-6-2-4-8-12(10)20-16/h1-8H",
        "InChIKey": null,
        "Canonical SMILES": "O=C1C(SC=2C=CC=CC21)=C3SC=4C=CC=CC4C3=O",
        "Molecular Formula": "C<sub>16</sub>H<sub>8</sub>O<sub>2</sub>S<sub>2</sub>",
        "Molecular Mass": "296.36",
        "Melting Point": "359 °C"
    }
}