{
    "cas_no": "554-62-1",
    "key_name": "Phytosphingosine",
    "cn_name": null,
    "alternate_name": "1,3,4-Octadecanetriol, 2-amino-, (2<em>S</em>,3<em>S</em>,4<em>R</em>)-;Phytosphingosine;1,3,4-Octadecanetriol, 2-amino-, <span class=\"text-smallcaps\">D</span>-<em>ribo</em>-;1,3,4-Octadecanetriol, 2-amino-, [2<em>S</em>-(2<em>R</em>*,3<em>R</em>*,4<em>S</em>*)]-;(2<em>S</em>,3<em>S</em>,4<em>R</em>)-2-Amino-1,3,4-octadecanetriol;<em>C</em><sub>18</sub>-Phytosphingosine;Sphinganine, 4-<span class=\"text-smallcaps\">D</span>-hydroxy-;4-<span class=\"text-smallcaps\">D</span>-Hydroxysphinganine;<span class=\"text-smallcaps\">D</span>-<em>ribo</em>-1,3,4-Trihydroxy-2-aminooctadecane;(+)-<span class=\"text-smallcaps\">D</span>-<em>ribo</em>-Phytosphingosine;<span class=\"text-smallcaps\">D</span>-<em>ribo</em>-Phytosphingosine;(2<em>S</em>,3<em>S</em>,4<em>R</em>)-2-Amino-1,3,4-trihydroxyoctadecane",
    "duplicated_cas_no": "33511-66-9;947747-32-2",
    "SMILES": "[C@@H](CCCCCCCCCCCCCC)([C@H]([C@H](CO)N)O)O",
    "meta_data": {
        "InChI": "InChI=1S/C18H39NO3/c1-2-3-4-5-6-7-8-9-10-11-12-13-14-17(21)18(22)16(19)15-20/h16-18,20-22H,2-15,19H2,1H3/t16-,17+,18-/m0/s1",
        "InChIKey": null,
        "Canonical SMILES": "OCC(N)C(O)C(O)CCCCCCCCCCCCCC",
        "Molecular Formula": "C<sub>18</sub>H<sub>39</sub>NO<sub>3</sub>",
        "Molecular Mass": "317.51",
        "Melting Point": "110-112.5 °C"
    }
}