{
    "cas_no": "106-69-4",
    "key_name": "1,2,6-Hexanetriol",
    "cn_name": "1,2,6-己三醇;",
    "alternate_name": "1,2,6-Hexanetriol;1,2,6-Trihydroxyhexane;(±)-1,2,6-Hexanetriol;NSC 404957",
    "duplicated_cas_no": "112254-74-7",
    "SMILES": "C(CCCCO)(CO)O",
    "meta_data": {
        "InChI": "InChI=1S/C6H14O3/c7-4-2-1-3-6(9)5-8/h6-9H,1-5H2",
        "InChIKey": null,
        "Canonical SMILES": "OCCCCC(O)CO",
        "Molecular Formula": "C<sub>6</sub>H<sub>14</sub>O<sub>3</sub>",
        "Molecular Mass": "134.17",
        "Boiling Point": "170 °C",
        "Density": "1.03 g/cm³ @ Temp: 20 °C"
    }
}