{
    "cas_no": "744-80-9",
    "key_name": "Benzonal",
    "cn_name": "苯甲酰苯巴比妥;1-苯甲酰基-5-乙基-5-苯基巴比妥酸;",
    "alternate_name": "2,4,6(1<em>H</em>,3<em>H</em>,5<em>H</em>)-Pyrimidinetrione, 1-benzoyl-5-ethyl-5-phenyl-;Barbituric acid, 1-benzoyl-5-ethyl-5-phenyl-;1-Benzoyl-5-ethyl-5-phenyl-2,4,6(1<em>H</em>,3<em>H</em>,5<em>H</em>)-pyrimidinetrione;Benzonal;1-Benzoyl-5-phenyl-5-ethylbarbituric acid;1-Benzoyl-5-ethyl-5-phenylbarbituric acid;Benzobarbital;Benzoylluminal;1-Benzoyl-5-ethyl-5-phenyl-1,3-diazinane-2,4,6-trione",
    "duplicated_cas_no": "113960-20-6",
    "SMILES": "C(C)C1(C(=O)N(C(=O)C2=CC=CC=C2)C(=O)NC1=O)C3=CC=CC=C3",
    "meta_data": {
        "InChI": "InChI=1S/C19H16N2O4/c1-2-19(14-11-7-4-8-12-14)16(23)20-18(25)21(17(19)24)15(22)13-9-5-3-6-10-13/h3-12H,2H2,1H3,(H,20,23,25)",
        "InChIKey": null,
        "Canonical SMILES": "O=C1NC(=O)C(C=2C=CC=CC2)(C(=O)N1C(=O)C=3C=CC=CC3)CC",
        "Molecular Formula": "C<sub>19</sub>H<sub>16</sub>N<sub>2</sub>O<sub>4</sub>",
        "Molecular Mass": "336.34",
        "Melting Point": "134-135 °C"
    }
}