{
    "cas_no": "1129-30-2",
    "key_name": "2,6-Diacetylpyridine",
    "cn_name": "2,6-二乙酰基吡啶;",
    "alternate_name": "Ethanone, 1,1′-(2,6-pyridinediyl)bis-;Pyridine, 2,6-diacetyl-;1,1′-(2,6-Pyridinediyl)bis[ethanone];2,6-Diacetylpyridine;NSC 63355;1-(6-Acetylpyridin-2-yl)ethanone",
    "duplicated_cas_no": "",
    "SMILES": "C(C)(=O)C=1N=C(C(C)=O)C=CC1",
    "meta_data": {
        "InChI": "InChI=1S/C9H9NO2/c1-6(11)8-4-3-5-9(10-8)7(2)12/h3-5H,1-2H3",
        "InChIKey": null,
        "Canonical SMILES": "O=C(C=1N=C(C=CC1)C(=O)C)C",
        "Molecular Formula": "C<sub>9</sub>H<sub>9</sub>NO<sub>2</sub>",
        "Molecular Mass": "163.17",
        "Boiling Point": "126 °C @ Press: 6 Torr",
        "Melting Point": "79 °C (sublm)"
    }
}