{
    "cas_no": "20443-98-5",
    "key_name": "2,6-Dichlorobenzyl bromide",
    "cn_name": "2,6-二氯苄基溴;2,6-二氯苯甲基溴;",
    "alternate_name": "Benzene, 2-(bromomethyl)-1,3-dichloro-;Toluene, α-bromo-2,6-dichloro-;2-(Bromomethyl)-1,3-dichlorobenzene;2,6-Dichlorobenzyl bromide;α-Bromo-2,6-dichlorotoluene;2,6-Dichloro-α-bromotoluene;NSC 93898;1-Bromomethyl-2,6-dichlorobenzene",
    "duplicated_cas_no": "",
    "SMILES": "C(Br)C1=C(Cl)C=CC=C1Cl",
    "meta_data": {
        "InChI": "InChI=1S/C7H5BrCl2/c8-4-5-6(9)2-1-3-7(5)10/h1-3H,4H2",
        "InChIKey": null,
        "Canonical SMILES": "ClC1=CC=CC(Cl)=C1CBr",
        "Molecular Formula": "C<sub>7</sub>H<sub>5</sub>BrCl<sub>2</sub>",
        "Molecular Mass": "239.92",
        "Boiling Point": "118 °C @ Press: 2 Torr",
        "Melting Point": "45-46 °C"
    }
}