{
    "cas_no": "104-16-5",
    "key_name": "1-(3-Chloropropyl)-4-methylpiperazine",
    "cn_name": "1-(3-氯丙基)-4-甲基哌嗪;",
    "alternate_name": "Piperazine, 1-(3-chloropropyl)-4-methyl-;1-(3-Chloropropyl)-4-methylpiperazine;3-(4-Methylpiperazino)propyl chloride;1-Methyl-4-(3-chloropropyl)piperazine;1-Chloro-3-(4-methyl-1-piperazinyl)propane;<em>N</em>-(3-Chloropropyl)-<em>N</em>′-methylpiperazine;3-(4-Methyl-1-piperazinyl)propyl chloride;<em>N</em>-Methylpiperazinopropyl chloride",
    "duplicated_cas_no": "",
    "SMILES": "C(CCCl)N1CCN(C)CC1",
    "meta_data": {
        "InChI": "InChI=1S/C8H17ClN2/c1-10-5-7-11(8-6-10)4-2-3-9/h2-8H2,1H3",
        "InChIKey": null,
        "Canonical SMILES": "ClCCCN1CCN(C)CC1",
        "Molecular Formula": "C<sub>8</sub>H<sub>17</sub>ClN<sub>2</sub>",
        "Molecular Mass": "176.69",
        "Boiling Point": "82-83 °C @ Press: 3 Torr",
        "Melting Point": "128-130 °C"
    }
}