{
    "cas_no": "574-66-3",
    "key_name": "Benzophenone, oxime",
    "cn_name": "二苯甲酮肟;",
    "alternate_name": "Methanone, diphenyl-, oxime;Benzophenone, oxime;Diphenyl ketoxime;Diphenylmethanone oxime;(Diphenylmethylene)hydroxylamine;NSC 20724;Benzophenone oxime",
    "duplicated_cas_no": "",
    "SMILES": "C(=NO)(C1=CC=CC=C1)C2=CC=CC=C2",
    "meta_data": {
        "InChI": "InChI=1S/C13H11NO/c15-14-13(11-7-3-1-4-8-11)12-9-5-2-6-10-12/h1-10,15H",
        "InChIKey": null,
        "Canonical SMILES": "ON=C(C=1C=CC=CC1)C=2C=CC=CC2",
        "Molecular Formula": "C<sub>13</sub>H<sub>11</sub>NO",
        "Molecular Mass": "197.23",
        "Melting Point": "141 °C"
    }
}