{
    "cas_no": "73590-58-6",
    "key_name": "Omeprazole",
    "cn_name": "奥美拉唑;5-甲氧基-2-[(4-甲氧基-3,5-二甲基-2-吡啶基)-甲基亚砜]-3H-苯并咪唑;",
    "alternate_name": "1<em>H</em>-Benzimidazole, 6-methoxy-2-[[(4-methoxy-3,5-dimethyl-2-pyridinyl)methyl]sulfinyl]-;1<em>H</em>-Benzimidazole, 5-methoxy-2-[[(4-methoxy-3,5-dimethyl-2-pyridinyl)methyl]sulfinyl]-;6-Methoxy-2-[[(4-methoxy-3,5-dimethyl-2-pyridinyl)methyl]sulfinyl]-1<em>H</em>-benzimidazole;Omeprazole;H 168/68;Losec;Prilosec;Audazol;Aulcer;Belmazol;Ceprandal;Elgam;Emeproton;Gastrimut;Indurgan;Miol;Mopral;Omapren;Ompanyt;Parizac;Pepticum;Prysma;Sanamidol;Secrepina;Ulceral;Ulcesep;Ulcometion;Zimor;Omepral;Gastrozole;(±)-Omeprazole;Antra;Antra MUPS;Ultop;2-[[(3,5-Dimethyl-4-methoxy-2-pyridyl)methyl]sulfinyl]-5-methoxy-1<em>H</em>-benzimidazole;Omebeta 20;Dizprazol;Dudencer;Epirazole;Gastroloc;Gibancer;Acidex;Desec;Logastric;Lomac;Miracid;Ocid;Omed;Omedar;OMEP;Omepril;Omeprazon;Omezol;Omezzol;Omid;Omizac;Omisec;OMP;OMZ;Oprax;Opraz;Ozoken;Peptilcer;Prazidec;Ramezol;Roweprazol;Ulcozol;Ulsen;Ulzone;Zefxon;Zoltum;Inhibitron;Inhipump;Omepradex;Mepral;Omeprazen;5-Methoxy-2-[[(4-methoxy-3,5-dimethyl-2-pyridyl)methyl]sulfinyl]-1<em>H</em>-benzimidazole;GastroGard;Megazole;Omeprol;Omeprazole-Towa;Ovulanze;Omerap;Emilok;5-Methoxy-2-[[(4-methoxy-3,5-dimethyl-2-pyridinyl)methyl]sulfinyl]-1<em>H</em>-benzimidazole;Omelac;Petprazol 20;Equiprazole;Zegerid;Gastroguard;RS-omeprazole;MeSH ID: D009853",
    "duplicated_cas_no": "131959-78-9;172964-80-6",
    "SMILES": "S(CC1=C(C)C(OC)=C(C)C=N1)(=O)C=2NC=3C(N2)=CC=C(OC)C3",
    "meta_data": {
        "InChI": "InChI=1S/C17H19N3O3S/c1-10-8-18-15(11(2)16(10)23-4)9-24(21)17-19-13-6-5-12(22-3)7-14(13)20-17/h5-8H,9H2,1-4H3,(H,19,20)",
        "InChIKey": null,
        "Canonical SMILES": "O=S(C1=NC=2C=CC(OC)=CC2N1)CC3=NC=C(C(OC)=C3C)C",
        "Molecular Formula": "C<sub>17</sub>H<sub>19</sub>N<sub>3</sub>O<sub>3</sub>S",
        "Molecular Mass": "345.42",
        "Melting Point": "156 °C",
        "Density": "1.332 g/cm³"
    }
}