{
    "cas_no": "1738-25-6",
    "key_name": "Dimethylaminopropionitrile",
    "cn_name": "二甲氨基丙腈;",
    "alternate_name": "Propanenitrile, 3-(dimethylamino)-;Propionitrile, 3-(dimethylamino)-;3-(Dimethylamino)propanenitrile;β-(Dimethylamino)propionitrile;β-<em>N</em>-Dimethylaminopropionitrile;<em>N</em>,<em>N</em>-Dimethylamino-3-propionitrile;3-(<em>N</em>,<em>N</em>-Dimethylamino)propionitrile;Dimethylaminopropionitrile;DMAPN;3-(Dimethylamino)propionitrile;<em>N</em>,<em>N</em>-Dimethyl-2-cyanoethylamine;NSC 232;3-Dimethylaminopropiononitrile",
    "duplicated_cas_no": "",
    "SMILES": "C(N(C)C)CC#N",
    "meta_data": {
        "InChI": "InChI=1S/C5H10N2/c1-7(2)5-3-4-6/h3,5H2,1-2H3",
        "InChIKey": null,
        "Canonical SMILES": "N#CCCN(C)C",
        "Molecular Formula": "C<sub>5</sub>H<sub>10</sub>N<sub>2</sub>",
        "Molecular Mass": "98.15",
        "Boiling Point": "173 °C",
        "Melting Point": "-44.2 °C",
        "Density": "0.8705 g/cm³ @ Temp: 20 °C"
    }
}