{
    "cas_no": "38460-95-6",
    "key_name": "10-Undecenoyl chloride",
    "cn_name": "10-十一烯酰氯;",
    "alternate_name": "10-Undecenoyl chloride;10-Undecylenoyl chloride;ω-Undecylenic acid chloride;10-Hendecenoyl chloride;ω-Undecenoyl chloride;NSC 155178;Undec-10-enoyl chloride",
    "duplicated_cas_no": "",
    "SMILES": "C(CCCCC=C)CCCC(Cl)=O",
    "meta_data": {
        "InChI": "InChI=1S/C11H19ClO/c1-2-3-4-5-6-7-8-9-10-11(12)13/h2H,1,3-10H2",
        "InChIKey": null,
        "Canonical SMILES": "O=C(Cl)CCCCCCCCC=C",
        "Molecular Formula": "C<sub>11</sub>H<sub>19</sub>ClO",
        "Molecular Mass": "202.72",
        "Boiling Point": "102 °C @ Press: 2 Torr"
    }
}