{
    "cas_no": "60-12-8",
    "key_name": "2-Phenylethanol",
    "cn_name": "苯乙醇;",
    "alternate_name": "Benzeneethanol;Phenethyl alcohol;Benzyl carbinol;Ethanol, 2-phenyl-;β-(Hydroxyethyl)benzene;PEA;β-PEA;Phenethanol;2-Phenylethanol;Phenylethyl alcohol;β-Phenylethyl alcohol;β-Phenethyl alcohol;β-Phenylethanol;2-Phenylethyl alcohol;2-Phenethyl alcohol;Phenylethanol;β-Phenethanol;2-Phenethanol;2-Phenyl-1-ethanol;(2-Hydroxyethyl)benzene;NSC 406252;Phenethylol;β-Phenethylol;Methyl 3-[(4-Chlorobenzyl)oxy]-4-iodobenzoate;Microcare PEA;AR 606;Dermosoft PEA;MeSH ID: D010626",
    "duplicated_cas_no": "2043361-12-0",
    "SMILES": "C(CO)C1=CC=CC=C1",
    "meta_data": {
        "InChI": "InChI=1S/C8H10O/c9-7-6-8-4-2-1-3-5-8/h1-5,9H,6-7H2",
        "InChIKey": null,
        "Canonical SMILES": "OCCC=1C=CC=CC1",
        "Molecular Formula": "C<sub>8</sub>H<sub>10</sub>O",
        "Molecular Mass": "122.16",
        "Boiling Point": "218.2 °C @ Press: 760 Torr",
        "Melting Point": "-27 °C",
        "Density": "1.0202 g/cm³ @ Temp: 20 °C"
    }
}