{
    "cas_no": "24295-03-2",
    "key_name": "2-Acetylthiazole",
    "cn_name": "2-乙酰基噻唑;",
    "alternate_name": "Ethanone, 1-(2-thiazolyl)-;Ketone, methyl 2-thiazolyl;1-(2-Thiazolyl)ethanone;2-Acetylthiazole;2-Acetyl-1,3-thiazole;1-(Thiazol-2-yl)ethanone;1-(1,3-Thiazol-2-yl)ethanone;1-(1,3-Thiazol-2-yl)ethan-1-one",
    "duplicated_cas_no": "",
    "SMILES": "C(C)(=O)C1=NC=CS1",
    "meta_data": {
        "InChI": "InChI=1S/C5H5NOS/c1-4(7)5-6-2-3-8-5/h2-3H,1H3",
        "InChIKey": null,
        "Canonical SMILES": "O=C(C1=NC=CS1)C",
        "Molecular Formula": "C<sub>5</sub>H<sub>5</sub>NOS",
        "Molecular Mass": "127.16",
        "Boiling Point": "95-105 °C @ Press: 15 Torr"
    }
}