{
    "cas_no": "76-72-2",
    "key_name": "1,3-Diethyl 2-ethyl-2-(1-methylbutyl)propanedioate",
    "cn_name": "乙基(1-甲基丁基)丙二酸二乙酯;",
    "alternate_name": "Propanedioic acid, 2-ethyl-2-(1-methylbutyl)-, 1,3-diethyl ester;Malonic acid, ethyl(1-methylbutyl)-, diethyl ester;Propanedioic acid, ethyl(1-methylbutyl)-, diethyl ester;Malonic acid, ethyl(α-methylbutyl)-, diethyl ester;1,3-Diethyl 2-ethyl-2-(1-methylbutyl)propanedioate;NSC 10824",
    "duplicated_cas_no": "",
    "SMILES": "C(C(CCC)C)(C(OCC)=O)(C(OCC)=O)CC",
    "meta_data": {
        "InChI": "InChI=1S/C14H26O4/c1-6-10-11(5)14(7-2,12(15)17-8-3)13(16)18-9-4/h11H,6-10H2,1-5H3",
        "InChIKey": null,
        "Canonical SMILES": "O=C(OCC)C(C(=O)OCC)(CC)C(C)CCC",
        "Molecular Formula": "C<sub>14</sub>H<sub>26</sub>O<sub>4</sub>",
        "Molecular Mass": "258.35",
        "Boiling Point": "120-122 °C @ Press: 8 Torr",
        "Density": "0.986 g/cm³ @ Temp: 20 °C"
    }
}