{
    "cas_no": "6398-51-2",
    "key_name": "α-2-Propen-1-yl-2-furanmethanol",
    "cn_name": "4-(2-呋喃基)-1-丁烯-4-醇;",
    "alternate_name": "2-Furanmethanol, α-2-propen-1-yl-;Furfuryl alcohol, α-allyl-;2-Furanmethanol, α-2-propenyl-;α-2-Propen-1-yl-2-furanmethanol;2-(1-Hydroxy-3-butenyl)furan;α-Allylfurfuryl alcohol;α-(2-Propenyl)-2-furanmethanol;1-(2-Furyl)-3-butenol;NSC 75454;1-(2-Furyl)-3-buten-1-ol;1-(Furan-2-yl)but-3-en-1-ol",
    "duplicated_cas_no": "119619-39-5",
    "SMILES": "C(CC=C)(O)C1=CC=CO1",
    "meta_data": {
        "InChI": "InChI=1S/C8H10O2/c1-2-4-7(9)8-5-3-6-10-8/h2-3,5-7,9H,1,4H2",
        "InChIKey": null,
        "Canonical SMILES": "OC(C=1OC=CC1)CC=C",
        "Molecular Formula": "C<sub>8</sub>H<sub>10</sub>O<sub>2</sub>",
        "Molecular Mass": "138.16",
        "Boiling Point": "87-93 °C @ Press: 3 Torr"
    }
}