{
    "cas_no": "21101-63-3",
    "key_name": "1-(Bromomethyl)-4-[(trifluoromethyl)thio]benzene",
    "cn_name": "4-(三氟甲硫基)苯甲基溴;",
    "alternate_name": "Benzene, 1-(bromomethyl)-4-[(trifluoromethyl)thio]-;Sulfide, α-bromo-<em>p</em>-tolyl trifluoromethyl;1-(Bromomethyl)-4-[(trifluoromethyl)thio]benzene;4-(Trifluoromethylthio)benzyl bromide;4-Trifluoromethylsulfanylbenzyl bromide;1-Bromomethyl-4-trifluoromethylsulfanylbenzene",
    "duplicated_cas_no": "",
    "SMILES": "S(C(F)(F)F)C1=CC=C(CBr)C=C1",
    "meta_data": {
        "InChI": "InChI=1S/C8H6BrF3S/c9-5-6-1-3-7(4-2-6)13-8(10,11)12/h1-4H,5H2",
        "InChIKey": null,
        "Canonical SMILES": "FC(F)(F)SC1=CC=C(C=C1)CBr",
        "Molecular Formula": "C<sub>8</sub>H<sub>6</sub>BrF<sub>3</sub>S",
        "Molecular Mass": "271.10",
        "Boiling Point": "105-106 °C @ Press: 760 Torr",
        "Melting Point": "52-52.5 °C"
    }
}