{
    "cas_no": "19437-26-4",
    "key_name": "2-Pyridyl ketone",
    "cn_name": "2-二吡啶基酮;2,2-二吡啶基甲酮;",
    "alternate_name": "Methanone, di-2-pyridinyl-;2-Pyridyl ketone;Di-2-pyridinylmethanone;Di-2-pyridyl ketone;2,2′-Dipyridyl ketone;Bis(2-pyridyl) ketone;Di(pyridin-2-yl) ketone;Bis(pyridin-2-yl) ketone;2,2′-Bis(pyridyl)ketone;NSC 174057;Bis(pyridin-2-yl)methanone;2,2′-Bipyridyl ketone;Di(pyridine-2-yl)methanone;2-(Pyridine-2-carbonyl)pyridine;Bis(2-pyridyl)methanone",
    "duplicated_cas_no": "",
    "SMILES": "C(=O)(C1=CC=CC=N1)C2=CC=CC=N2",
    "meta_data": {
        "InChI": "InChI=1S/C11H8N2O/c14-11(9-5-1-3-7-12-9)10-6-2-4-8-13-10/h1-8H",
        "InChIKey": null,
        "Canonical SMILES": "O=C(C1=NC=CC=C1)C2=NC=CC=C2",
        "Molecular Formula": "C<sub>11</sub>H<sub>8</sub>N<sub>2</sub>O",
        "Molecular Mass": "184.19",
        "Boiling Point": "115-125 °C @ Press: 0.1 Torr",
        "Melting Point": "52-53 °C"
    }
}