{
    "cas_no": "804-63-7",
    "key_name": "Quinine sulfate",
    "cn_name": "硫酸奎宁;奎宁硫酸盐;硫酸金鸡纳盐;硫酸金鸡纳霜;",
    "alternate_name": "Cinchonan-9-ol, 6′-methoxy-, (8α,9<em>R</em>)-, sulfate (2:1);Quinine, sulfate (2:1) (salt);Cinchonan-9-ol, 6′-methoxy-, (8α,9<em>R</em>)-, sulfate (2:1) (salt);Quinine sulfate;Aflukin;Coco-Quinine;Quinine sulfuric acid;Quinine sulfate (2:1);Quinine hemisulfate;Quinoc;NSC 5362;Quinersol;Chinin;Chinine",
    "duplicated_cas_no": "57237-58-8;2283369-71-9",
    "SMILES": "S(=O)(=O)(O)O.[C@@H](O)(C=1C2=C(C=CC(OC)=C2)N=CC1)[C@]3([N@@]4C[C@H](C=C)[C@](C3)(CC4)[H])[H]",
    "meta_data": {
        "InChI": "InChI=1S/C20H24N2O2.H2O4S/c1-3-13-12-22-9-7-14(13)10-19(22)20(23)16-6-8-21-18-5-4-15(24-2)11-17(16)18;1-5(2,3)4/h3-6,8,11,13-14,19-20,23H,1,7,9-10,12H2,2H3;(H2,1,2,3,4)/t13-,14-,19-,20+;/m0./s1",
        "InChIKey": null,
        "Canonical SMILES": "O=S(=O)(O)O.OC(C=1C=CN=C2C=CC(OC)=CC21)C3N4CCC(C3)C(C=C)C4",
        "Molecular Formula": "C<sub>20</sub>H<sub>24</sub>N<sub>2</sub>O<sub>2</sub>.<sup>1</sup>/<sub>2</sub>H<sub>2</sub>O<sub>4</sub>S",
        "Molecular Mass": "",
        "Melting Point": "235.2 °C"
    }
}