{
    "cas_no": "594-56-9",
    "key_name": "2,3,3-Trimethyl-1-butene",
    "cn_name": "2,3,3-三甲基-1-丁烯;",
    "alternate_name": "1-Butene, 2,3,3-trimethyl-;2,3,3-Trimethyl-1-butene;Triptene;1-Methyl-1-<em>tert</em>-butylethylene;2,3,3-Trimethylbutene;2-<em>tert</em>-Butylpropene;1-Methyl-1-<em>tert</em>-butylethene;1-<em>tert</em>-Butyl-1-methylethylene;2,2,3-Trimethylbutene;NSC 73922",
    "duplicated_cas_no": "",
    "SMILES": "C(C(C)=C)(C)(C)C",
    "meta_data": {
        "InChI": "InChI=1S/C7H14/c1-6(2)7(3,4)5/h1H2,2-5H3",
        "InChIKey": null,
        "Canonical SMILES": "C=C(C)C(C)(C)C",
        "Molecular Formula": "C<sub>7</sub>H<sub>14</sub>",
        "Molecular Mass": "98.19",
        "Boiling Point": "77.9 °C",
        "Melting Point": "-109.9 °C",
        "Density": "0.7235 g/cm³ @ Temp: 40 °C"
    }
}