{
    "cas_no": "16188-57-1",
    "key_name": "2-Iodo-4-methylphenol",
    "cn_name": null,
    "alternate_name": "Phenol, 2-iodo-4-methyl-;<em>p</em>-Cresol, 2-iodo-;2-Iodo-4-methylphenol",
    "duplicated_cas_no": "",
    "SMILES": "IC1=C(O)C=CC(C)=C1",
    "meta_data": {
        "InChI": "InChI=1S/C7H7IO/c1-5-2-3-7(9)6(8)4-5/h2-4,9H,1H3",
        "InChIKey": null,
        "Canonical SMILES": "IC1=CC(=CC=C1O)C",
        "Molecular Formula": "C<sub>7</sub>H<sub>7</sub>IO",
        "Molecular Mass": "234.03",
        "Boiling Point": "96-98 °C @ Press: 3 Torr",
        "Melting Point": "35 °C",
        "Density": "1.684 g/cm³ @ Temp: 25 °C"
    }
}