{
    "cas_no": "38775-38-1",
    "key_name": "1-Hexadecanesulfonyl chloride",
    "cn_name": null,
    "alternate_name": "1-Hexadecanesulfonyl chloride;Hexadecylsulfonyl chloride;NSC 93798",
    "duplicated_cas_no": "",
    "SMILES": "C(CCCCCCCCCCCCC)CCS(Cl)(=O)=O",
    "meta_data": {
        "InChI": "InChI=1S/C16H33ClO2S/c1-2-3-4-5-6-7-8-9-10-11-12-13-14-15-16-20(17,18)19/h2-16H2,1H3",
        "InChIKey": null,
        "Canonical SMILES": "O=S(=O)(Cl)CCCCCCCCCCCCCCCC",
        "Molecular Formula": "C<sub>16</sub>H<sub>33</sub>ClO<sub>2</sub>S",
        "Molecular Mass": "324.95",
        "Melting Point": "49-50 °C"
    }
}