{
    "cas_no": "107-52-8",
    "key_name": "Tetradecamethylhexasiloxane",
    "cn_name": "十四甲基六硅氧烷;",
    "alternate_name": "Hexasiloxane, 1,1,1,3,3,5,5,7,7,9,9,11,11,11-tetradecamethyl-;Hexasiloxane, tetradecamethyl-;1,1,1,3,3,5,5,7,7,9,9,11,11,11-Tetradecamethylhexasiloxane;Tetradecamethylhexasiloxane;[Dimethyl(trimethylsilyloxy)silyl]oxy-[[dimethyl(trimethylsilyloxy)silyl]oxy-dimethylsilyl]oxy-dimethylsilane",
    "duplicated_cas_no": "",
    "SMILES": "O([Si](O[Si](O[Si](C)(C)C)(C)C)(C)C)[Si](O[Si](O[Si](C)(C)C)(C)C)(C)C",
    "meta_data": {
        "InChI": "InChI=1S/C14H42O5Si6/c1-20(2,3)15-22(7,8)17-24(11,12)19-25(13,14)18-23(9,10)16-21(4,5)6/h1-14H3",
        "InChIKey": null,
        "Canonical SMILES": "O([Si](O[Si](O[Si](C)(C)C)(C)C)(C)C)[Si](O[Si](O[Si](C)(C)C)(C)C)(C)C",
        "Molecular Formula": "C<sub>14</sub>H<sub>42</sub>O<sub>5</sub>Si<sub>6</sub>",
        "Molecular Mass": "458.99",
        "Boiling Point": "245.5 °C",
        "Melting Point": "-59 °C",
        "Density": "0.8873 g/cm³ @ Temp: 25 °C"
    }
}