{
    "cas_no": "399-72-4",
    "key_name": "5-Fluoro-2-methylindole",
    "cn_name": "5-氟-2-甲基吲哚;",
    "alternate_name": "1<em>H</em>-Indole, 5-fluoro-2-methyl-;Indole, 5-fluoro-2-methyl-;5-Fluoro-2-methyl-1<em>H</em>-indole;5-Fluoro-2-methylindole",
    "duplicated_cas_no": "",
    "SMILES": "CC=1NC=2C(C1)=CC(F)=CC2",
    "meta_data": {
        "InChI": "InChI=1S/C9H8FN/c1-6-4-7-5-8(10)2-3-9(7)11-6/h2-5,11H,1H3",
        "InChIKey": null,
        "Canonical SMILES": "FC=1C=CC=2NC(=CC2C1)C",
        "Molecular Formula": "C<sub>9</sub>H<sub>8</sub>FN",
        "Molecular Mass": "149.16",
        "Boiling Point": "112-120 °C @ Press: 0.1 Torr",
        "Melting Point": "102 °C"
    }
}