{
    "cas_no": "40987-24-4",
    "key_name": "4-(Phenylmethyl)-2-morpholinemethanol",
    "cn_name": "(4-苄基吗啉-2-基)甲醇;",
    "alternate_name": "2-Morpholinemethanol, 4-(phenylmethyl)-;4-(Phenylmethyl)-2-morpholinemethanol;4-Benzyl-2-(hydroxymethyl)morpholine;<em>N</em>-Benzyl-2-(hydroxymethyl)morpholine;4-Benzyl-2-morpholinemethanol;(4-Benzylmorpholin-2-yl)methanol;2-Hydroxymethyl-4-benzylmorpholine",
    "duplicated_cas_no": "51997-56-9",
    "SMILES": "C(N1CC(CO)OCC1)C2=CC=CC=C2",
    "meta_data": {
        "InChI": "InChI=1S/C12H17NO2/c14-10-12-9-13(6-7-15-12)8-11-4-2-1-3-5-11/h1-5,12,14H,6-10H2",
        "InChIKey": null,
        "Canonical SMILES": "OCC1OCCN(CC=2C=CC=CC2)C1",
        "Molecular Formula": "C<sub>12</sub>H<sub>17</sub>NO<sub>2</sub>",
        "Molecular Mass": "207.27",
        "Boiling Point": "113-115 °C @ Press: 0.01 Torr"
    }
}