{
    "cas_no": "60832-72-6",
    "key_name": "Oxazolo[4,5-<em>b</em>]pyridin-2(3<em>H</em>)-one",
    "cn_name": "2,3-二氢吡啶并[2,3-d][1,3]噁唑-2-酮;噁唑[4,5-b]吡啶-2(3H)-酮;",
    "alternate_name": "Oxazolo[4,5-<em>b</em>]pyridin-2(3<em>H</em>)-one;[1,3]Oxazolo[4,5-<em>b</em>]pyridin-2(3<em>H</em>)-one;3<em>H</em>-Oxazolo[4,5-<em>b</em>]pyridin-2-one;2,3-Dihydro-pyrido[2,3-<em>d</em>][1,3]oxazol-2-one;[1,3]Oxazolo[4,5-<em>b</em>]pyridin-2-ol;2<em>H</em>,3<em>H</em>-[1,3]Oxazolo[4,5-<em>b</em>]pyridin-2-one;Oxazolo[4,5-<em>b</em>]pyridin-2-ol",
    "duplicated_cas_no": "",
    "SMILES": "O=C1NC=2C(O1)=CC=CN2",
    "meta_data": {
        "InChI": "InChI=1S/C6H4N2O2/c9-6-8-5-4(10-6)2-1-3-7-5/h1-3H,(H,7,8,9)",
        "InChIKey": null,
        "Canonical SMILES": "O=C1OC2=CC=CN=C2N1",
        "Molecular Formula": "C<sub>6</sub>H<sub>4</sub>N<sub>2</sub>O<sub>2</sub>",
        "Molecular Mass": "136.11",
        "Melting Point": "211-212 °C"
    }
}