{
    "cas_no": "24599-58-4",
    "key_name": "2,5-Dimethoxytoluene",
    "cn_name": "2,5-二甲氧基甲苯;",
    "alternate_name": "Benzene, 1,4-dimethoxy-2-methyl-;Toluene, 2,5-dimethoxy-;1,4-Dimethoxy-2-methylbenzene;Methylhydroquinone dimethyl ether;2,5-Dimethoxytoluene;2-Methylhydroquinone dimethyl ether;2-Methyl-1,4-dimethoxybenzene;NSC 149950;2-Methyl-1,4-bis(methyloxy)benzene;1-Methyl-2,5-dimethoxybenzene",
    "duplicated_cas_no": "",
    "SMILES": "O(C)C1=CC(C)=C(OC)C=C1",
    "meta_data": {
        "InChI": "InChI=1S/C9H12O2/c1-7-6-8(10-2)4-5-9(7)11-3/h4-6H,1-3H3",
        "InChIKey": null,
        "Canonical SMILES": "O(C1=CC=C(OC)C(=C1)C)C",
        "Molecular Formula": "C<sub>9</sub>H<sub>12</sub>O<sub>2</sub>",
        "Molecular Mass": "152.19",
        "Boiling Point": "214-218 °C",
        "Melting Point": "40-40.5 °C"
    }
}