{
    "cas_no": "3196-15-4",
    "key_name": "Butanoic acid, 2-bromo-, methyl ester",
    "cn_name": "2-溴丁酸甲酯;",
    "alternate_name": "Butanoic acid, 2-bromo-, methyl ester;Butyric acid, 2-bromo-, methyl ester;Methyl 2-bromobutanoate;Methyl 2-bromobutyrate;Methyl α-bromobutyrate;2-Bromobutyric acid methyl ester;(±)-Methyl 2-bromobutanoate;α-Bromobutanoic acid methyl ester;NSC 21974;(<em>dl</em>)-(Methyl 2-bromobutyrate);2-Bromobutanoic acid methyl ester",
    "duplicated_cas_no": "69043-96-5",
    "SMILES": "C(C(OC)=O)(CC)Br",
    "meta_data": {
        "InChI": "InChI=1S/C5H9BrO2/c1-3-4(6)5(7)8-2/h4H,3H2,1-2H3",
        "InChIKey": null,
        "Canonical SMILES": "O=C(OC)C(Br)CC",
        "Molecular Formula": "C<sub>5</sub>H<sub>9</sub>BrO<sub>2</sub>",
        "Molecular Mass": "181.03",
        "Boiling Point": "168 °C",
        "Melting Point": "116 °C",
        "Density": "1.4022 g/cm³ @ Temp: 25 °C"
    }
}