{
    "cas_no": "712-97-0",
    "key_name": "6-Nitro-1,3-benzodioxole-5-carboxaldehyde",
    "cn_name": "6-硝基胡椒醛;6-硝基-3,4-亚甲基二氧基苯甲醛;",
    "alternate_name": "1,3-Benzodioxole-5-carboxaldehyde, 6-nitro-;Piperonal, 6-nitro-;6-Nitro-1,3-benzodioxole-5-carboxaldehyde;6-Nitropiperonal;<em>o</em>-Nitropiperonal;4,5-(Methylenedioxy)-2-nitrobenzaldehyde;3,4-(Methylenedioxy)-6-nitrobenzaldehyde;6-Nitrobenzo[1,3]dioxole-5-carboxaldehyde;NSC 40550;NSC 66217;6-Nitrobenzo[<em>d</em>][1,3]dioxole-5-carbaldehyde;6-Nitro-2<em>H</em>-1,3-benzodioxole-5-carboxaldehyde",
    "duplicated_cas_no": "",
    "SMILES": "C(=O)C=1C=C2C(=CC1N(=O)=O)OCO2",
    "meta_data": {
        "InChI": "InChI=1S/C8H5NO5/c10-3-5-1-7-8(14-4-13-7)2-6(5)9(11)12/h1-3H,4H2",
        "InChIKey": null,
        "Canonical SMILES": "O=CC1=CC=2OCOC2C=C1N(=O)=O",
        "Molecular Formula": "C<sub>8</sub>H<sub>5</sub>NO<sub>5</sub>",
        "Molecular Mass": "195.13",
        "Melting Point": "98.5 °C"
    }
}