{
    "cas_no": "104-72-3",
    "key_name": "Decylbenzene",
    "cn_name": "癸苯;",
    "alternate_name": "Benzene, decyl-;Decane, 1-phenyl-;Decylbenzene;1-Phenyldecane;<em>n</em>-Decylbenzene;1-Phenyl-<em>n</em>-decane;NSC 74191",
    "duplicated_cas_no": "",
    "SMILES": "C(CCCCCCCCC)C1=CC=CC=C1",
    "meta_data": {
        "InChI": "InChI=1S/C16H26/c1-2-3-4-5-6-7-8-10-13-16-14-11-9-12-15-16/h9,11-12,14-15H,2-8,10,13H2,1H3",
        "InChIKey": null,
        "Canonical SMILES": "C=1C=CC(=CC1)CCCCCCCCCC",
        "Molecular Formula": "C<sub>16</sub>H<sub>26</sub>",
        "Molecular Mass": "218.38",
        "Boiling Point": "298 °C",
        "Melting Point": "-14.4 °C",
        "Density": "0.8555 g/cm³ @ Temp: 20 °C"
    }
}