{
    "cas_no": "65-45-2",
    "key_name": "Salicylamide",
    "cn_name": "2-羟基苄胺;水杨酰胺;",
    "alternate_name": "Benzamide, 2-hydroxy-;Salicylamide;2-Hydroxybenzamide;Acket;Afko-Sal;Algamon;Algiamida;Amidosal;Amid-Sal;Anamid;Benesal;Dropsprin;<em>o</em>-Hydroxybenzamide;Liquiprin;Novecyl;OHB;Oramid;Panithal;Raspberin;Salamide;Saliamin;Salicim;Salipur;Salizell;Salrin;Salymid;Urtosal;Salicylic acid amide;Saliamid;Cymidon;Morsarinas;Cetamide;Allevin;Serramida;2-Carbamoylphenol;2-Carboxamidophenol;SR 4326;Salamid;Samid;Cidal;NSC 3115;NSC 83150",
    "duplicated_cas_no": "",
    "SMILES": "C(N)(=O)C1=C(O)C=CC=C1",
    "meta_data": {
        "InChI": "InChI=1S/C7H7NO2/c8-7(10)5-3-1-2-4-6(5)9/h1-4,9H,(H2,8,10)",
        "InChIKey": null,
        "Canonical SMILES": "O=C(N)C=1C=CC=CC1O",
        "Molecular Formula": "C<sub>7</sub>H<sub>7</sub>NO<sub>2</sub>",
        "Molecular Mass": "137.14",
        "Boiling Point": "181.5 °C @ Press: 14 Torr",
        "Melting Point": "140 °C",
        "Density": "1.175 g/cm³ @ Temp: 140 °C"
    }
}