{
    "cas_no": "860034-11-3",
    "key_name": "<em>B</em>-(4-Bromo-2-nitrophenyl)boronic acid",
    "cn_name": null,
    "alternate_name": "Boronic acid, <em>B</em>-(4-bromo-2-nitrophenyl)-;Boronic acid, (4-bromo-2-nitrophenyl)-;<em>B</em>-(4-Bromo-2-nitrophenyl)boronic acid;4-Bromo-2-nitrophenylboronic acid",
    "duplicated_cas_no": "",
    "SMILES": "B(O)(O)C1=C(N(=O)=O)C=C(Br)C=C1",
    "meta_data": {
        "InChI": "InChI=1S/C6H5BBrNO4/c8-4-1-2-5(7(10)11)6(3-4)9(12)13/h1-3,10-11H",
        "InChIKey": null,
        "Canonical SMILES": "O=N(=O)C1=CC(Br)=CC=C1B(O)O",
        "Molecular Formula": "C<sub>6</sub>H<sub>5</sub>BBrNO<sub>4</sub>",
        "Molecular Mass": "245.82",
        "Melting Point": "274-276 °C"
    }
}