{
    "cas_no": "5470-95-1",
    "key_name": "Benzaldehyde, 2,3-dimethoxy-, oxime",
    "cn_name": "2,3-二甲氧基苯甲醛肟;",
    "alternate_name": "Benzaldehyde, 2,3-dimethoxy-, oxime;2,3-Dimethoxybenzaldoxime;2,3-Dimethoxybenzaldehyde oxime;NSC 27024",
    "duplicated_cas_no": "",
    "SMILES": "O(C)C1=C(C=NO)C=CC=C1OC",
    "meta_data": {
        "InChI": "InChI=1S/C9H11NO3/c1-12-8-5-3-4-7(6-10-11)9(8)13-2/h3-6,11H,1-2H3",
        "InChIKey": null,
        "Canonical SMILES": "ON=CC=1C=CC=C(OC)C1OC",
        "Molecular Formula": "C<sub>9</sub>H<sub>11</sub>NO<sub>3</sub>",
        "Molecular Mass": "181.19",
        "Melting Point": "96.5 °C"
    }
}