{
    "cas_no": "22479-95-4",
    "key_name": "Dimethyl 4-hydroxyphthalate",
    "cn_name": "4-羟基酞酸二甲酯;4-羟基邻苯二甲酸二甲酯;",
    "alternate_name": "1,2-Benzenedicarboxylic acid, 4-hydroxy-, 1,2-dimethyl ester;Phthalic acid, 4-hydroxy-, dimethyl ester;1,2-Benzenedicarboxylic acid, 4-hydroxy-, dimethyl ester;4-Hydroxy-<em>o</em>-phthalic acid dimethyl ester;Dimethyl 4-hydroxyphthalate;Dimethyl 4-hydroxy-1,2-benzenedicarboxylate;1,2-Dimethyl 4-hydroxybenzene-1,2-dicarboxylate",
    "duplicated_cas_no": "",
    "SMILES": "C(OC)(=O)C1=C(C(OC)=O)C=CC(O)=C1",
    "meta_data": {
        "InChI": "InChI=1S/C10H10O5/c1-14-9(12)7-4-3-6(11)5-8(7)10(13)15-2/h3-5,11H,1-2H3",
        "InChIKey": null,
        "Canonical SMILES": "O=C(OC)C1=CC=C(O)C=C1C(=O)OC",
        "Molecular Formula": "C<sub>10</sub>H<sub>10</sub>O<sub>5</sub>",
        "Molecular Mass": "210.18",
        "Melting Point": "100-110 °C"
    }
}