{
    "cas_no": "99-45-6",
    "key_name": "Adrenalone",
    "cn_name": "肾上腺酮;3\",4\"-二羟基-2-(甲基氨基)苯乙酮;",
    "alternate_name": "Ethanone, 1-(3,4-dihydroxyphenyl)-2-(methylamino)-;Adrenalone;Acetophenone, 3′,4′-dihydroxy-2-(methylamino)-;1-(3,4-Dihydroxyphenyl)-2-(methylamino)ethanone;Adrenone;3′,4′-Dihydroxy-2-(methylamino)acetophenone;Haemodan;Kephrine;Methaminoacetocatechol;Styphnone;Stryphnone;U 2134;4-Methylaminoacetopyrocatechol;Stypnone;3,4-Dihydroxy-α-methylaminoacetophenone;Stryphnon;Adrenon;Chemosan;Stypnon;Ketogaze;NSC 243611;Adrenolone;1-(3,4-Dihydroxyphenyl)-2-(methylamino)ethan-1-one",
    "duplicated_cas_no": "",
    "SMILES": "C(CNC)(=O)C1=CC(O)=C(O)C=C1",
    "meta_data": {
        "InChI": "InChI=1S/C9H11NO3/c1-10-5-9(13)6-2-3-7(11)8(12)4-6/h2-4,10-12H,5H2,1H3",
        "InChIKey": null,
        "Canonical SMILES": "O=C(C1=CC=C(O)C(O)=C1)CNC",
        "Molecular Formula": "C<sub>9</sub>H<sub>11</sub>NO<sub>3</sub>",
        "Molecular Mass": "181.19",
        "Melting Point": "235.5 °C (decomp)"
    }
}