{
    "cas_no": "105-56-6",
    "key_name": "Ethyl cyanoacetate",
    "cn_name": "氰乙酸乙酯;",
    "alternate_name": "Acetic acid, 2-cyano-, ethyl ester;Acetic acid, cyano-, ethyl ester;Cyanoacetic acid ethyl ester;Cyanoacetic ester;Ethyl cyanoacetate;Ethyl cyanoethanoate;Malonic acid ethyl ester nitrile;Ethyl cyanacetate;Ethyl 2-cyanoacetate;Ethyl α-cyanoacetate;NSC 8844;(Ethoxycarbonyl)acetonitrile;3-Ethoxy-3-oxopropanenitrile;2-Cyanoacetic acid ethyl ester",
    "duplicated_cas_no": "1427280-50-9",
    "SMILES": "C(CC#N)(OCC)=O",
    "meta_data": {
        "InChI": "InChI=1S/C5H7NO2/c1-2-8-5(7)3-4-6/h2-3H2,1H3",
        "InChIKey": null,
        "Canonical SMILES": "N#CCC(=O)OCC",
        "Molecular Formula": "C<sub>5</sub>H<sub>7</sub>NO<sub>2</sub>",
        "Molecular Mass": "113.11",
        "Boiling Point": "206.0 °C @ Press: 760 Torr",
        "Melting Point": "-22 °C",
        "Density": "1.0560 g/cm³ @ Temp: 25 °C"
    }
}