{
    "cas_no": "19398-77-7",
    "key_name": "3,4-Diethylhexane",
    "cn_name": "3,4-二乙基己烷;",
    "alternate_name": "Hexane, 3,4-diethyl-;3,4-Diethylhexane",
    "duplicated_cas_no": "",
    "SMILES": "C(C(CC)CC)(CC)CC",
    "meta_data": {
        "InChI": "InChI=1S/C10H22/c1-5-9(6-2)10(7-3)8-4/h9-10H,5-8H2,1-4H3",
        "InChIKey": null,
        "Canonical SMILES": "CCC(CC)C(CC)CC",
        "Molecular Formula": "C<sub>10</sub>H<sub>22</sub>",
        "Molecular Mass": "142.28",
        "Boiling Point": "163.9 °C",
        "Density": "0.7514 g/cm³ @ Temp: 20 °C"
    }
}