{
    "cas_no": "40877-19-8",
    "key_name": "4-Chloro-1-(4-methoxyphenyl)-1-butanone",
    "cn_name": "γ-氯-4-甲氧基苯丁酮;",
    "alternate_name": "1-Butanone, 4-chloro-1-(4-methoxyphenyl)-;Butyrophenone, 4-chloro-4′-methoxy-;4-Chloro-1-(4-methoxyphenyl)-1-butanone;4-Chloro-4′-methoxybutyrophenone;3-Chloropropyl 4-methoxyphenyl ketone;4-Methoxyphenyl 3-chloropropyl ketone;NSC 73121;4′-Methoxy-4-chlorobutyrophenone",
    "duplicated_cas_no": "1082678-09-8",
    "SMILES": "C(CCCCl)(=O)C1=CC=C(OC)C=C1",
    "meta_data": {
        "InChI": "InChI=1S/C11H13ClO2/c1-14-10-6-4-9(5-7-10)11(13)3-2-8-12/h4-7H,2-3,8H2,1H3",
        "InChIKey": null,
        "Canonical SMILES": "O=C(C1=CC=C(OC)C=C1)CCCCl",
        "Molecular Formula": "C<sub>11</sub>H<sub>13</sub>ClO<sub>2</sub>",
        "Molecular Mass": "212.67",
        "Boiling Point": "175 °C @ Press: 6 Torr",
        "Melting Point": "28.5-30 °C"
    }
}