{
    "cas_no": "91-04-3",
    "key_name": "2,6-Bis(hydroxymethyl)-<em>p</em>-cresol",
    "cn_name": "2-羟基-5-甲基间苯二甲醇;2,6-双(羟甲基)-4-甲酚;",
    "alternate_name": "1,3-Benzenedimethanol, 2-hydroxy-5-methyl-;α<sup>1</sup>,α<sup>3</sup>-Mesitylenediol, 2-hydroxy-;2-Hydroxy-5-methyl-1,3-benzenedimethanol;2,6-Dimethylol-4-methylphenol;2,6-Bis(hydroxymethyl)-<em>p</em>-cresol;2,6-Dimethylol-<em>p</em>-cresol;α<sup>1</sup>,α<sup>3</sup>,2-Trihydroxymesitylene;2,6-Bis(hydroxymethyl)-4-methylphenol;2,6-Di(hydroxymethyl)-<em>p</em>-cresol;NSC 15838;DML-PC;4-Methyl-2,6-bis(hydroxymethyl)phenol;26DMPC;AV Lite 26DMPC;(2-Hydroxy-5-methyl-1,3-phenylene)dimethanol;2,4-Bis(hydroxymethyl)-<em>p</em>-cresol",
    "duplicated_cas_no": "312714-78-6;1383625-11-3",
    "SMILES": "C(O)C1=C(O)C(CO)=CC(C)=C1",
    "meta_data": {
        "InChI": "InChI=1S/C9H12O3/c1-6-2-7(4-10)9(12)8(3-6)5-11/h2-3,10-12H,4-5H2,1H3",
        "InChIKey": null,
        "Canonical SMILES": "OC=1C(=CC(=CC1CO)C)CO",
        "Molecular Formula": "C<sub>9</sub>H<sub>12</sub>O<sub>3</sub>",
        "Molecular Mass": "168.19",
        "Melting Point": "128 °C"
    }
}