{
    "cas_no": "143-19-1",
    "key_name": "Sodium oleate",
    "cn_name": "油酸钠;(Z)-9-十八烯酸钠盐;9-十八烯酸钠;",
    "alternate_name": "9-Octadecenoic acid (9<em>Z</em>)-, sodium salt (1:1);Oleic acid, sodium salt;9-Octadecenoic acid (<em>Z</em>)-, sodium salt;9-Octadecenoic acid (9<em>Z</em>)-, sodium salt;Eunatrol;Olate Flakes;Sodium oleate;Pionin D 951P;NPS Red Oil Soap;Nonsoul ON 1;Lunac SO 90L;Nonsoul ON-A;Pionin A 5;Edenor OL 72MY, sodium salt;Ligaphob NT 90;DX-F 200;PX-N 98;Raynol PM 1440",
    "duplicated_cas_no": "",
    "SMILES": "C(C/C=C\\CCCCCCCC)CCCCCC(O)=O.[Na]",
    "meta_data": {
        "InChI": "InChI=1S/C18H34O2.Na/c1-2-3-4-5-6-7-8-9-10-11-12-13-14-15-16-17-18(19)20;/h9-10H,2-8,11-17H2,1H3,(H,19,20);/b10-9-;",
        "InChIKey": null,
        "Canonical SMILES": "[Na].O=C(O)CCCCCCCC=CCCCCCCCC",
        "Molecular Formula": "C<sub>18</sub>H<sub>34</sub>O<sub>2</sub>.Na",
        "Molecular Mass": "",
        "Melting Point": "232-235 °C",
        "Density": "0.874 g/cm³ (liquid)"
    }
}