{
    "cas_no": "1120-49-6",
    "key_name": "Didecylamine",
    "cn_name": "二癸胺;N-癸基-1-癸胺;",
    "alternate_name": "1-Decanamine, <em>N</em>-decyl-;Didecylamine;<em>N</em>-Decyl-1-decanamine;<em>N</em>-Decyldecanamine;<em>N</em>,<em>N</em>-Didecylamine",
    "duplicated_cas_no": "",
    "SMILES": "N(CCCCCCCCCC)CCCCCCCCCC",
    "meta_data": {
        "InChI": "InChI=1S/C20H43N/c1-3-5-7-9-11-13-15-17-19-21-20-18-16-14-12-10-8-6-4-2/h21H,3-20H2,1-2H3",
        "InChIKey": null,
        "Canonical SMILES": "N(CCCCCCCCCC)CCCCCCCCCC",
        "Molecular Formula": "C<sub>20</sub>H<sub>43</sub>N",
        "Molecular Mass": "297.56",
        "Boiling Point": "184-186 °C @ Press: 3.0 Torr",
        "Melting Point": "47.5 °C"
    }
}