{
    "cas_no": "54582-35-3",
    "key_name": "<em>N</em>-[(4-Methoxyphenyl)methyl]urea",
    "cn_name": null,
    "alternate_name": "Urea, <em>N</em>-[(4-methoxyphenyl)methyl]-;Urea, [(4-methoxyphenyl)methyl]-;<em>N</em>-[(4-Methoxyphenyl)methyl]urea;(<em>p</em>-Methoxybenzyl)urea;<em>N</em>-(4-Methoxybenzyl)urea;4-Methoxybenzylurea;1-(4-Methoxybenzyl)urea;[(4-Methoxyphenyl)methyl]urea;(4-Methoxyphenyl)methylurea",
    "duplicated_cas_no": "",
    "SMILES": "C(NC(N)=O)C1=CC=C(OC)C=C1",
    "meta_data": {
        "InChI": "InChI=1S/C9H12N2O2/c1-13-8-4-2-7(3-5-8)6-11-9(10)12/h2-5H,6H2,1H3,(H3,10,11,12)",
        "InChIKey": null,
        "Canonical SMILES": "O=C(N)NCC1=CC=C(OC)C=C1",
        "Molecular Formula": "C<sub>9</sub>H<sub>12</sub>N<sub>2</sub>O<sub>2</sub>",
        "Molecular Mass": "180.20",
        "Melting Point": "110-112 °C"
    }
}