{
    "cas_no": "2643-85-8",
    "key_name": "(+)-Oxypeucedanin hydrate",
    "cn_name": null,
    "alternate_name": "7<em>H</em>-Furo[3,2-<em>g</em>][1]benzopyran-7-one, 4-[(2<em>R</em>)-2,3-dihydroxy-3-methylbutoxy]-;Oxypeucedanin hydrate;7<em>H</em>-Furo[3,2-<em>g</em>][1]benzopyran-7-one, 4-(2,3-dihydroxy-3-methylbutoxy)-, (<em>R</em>)-(+)-;7<em>H</em>-Furo[3,2-<em>g</em>][1]benzopyran-7-one, 4-(2,3-dihydroxy-3-methylbutoxy)-, (<em>R</em>)-;4-[(2<em>R</em>)-2,3-Dihydroxy-3-methylbutoxy]-7<em>H</em>-furo[3,2-<em>g</em>][1]benzopyran-7-one;Prangol;Prangolarin hydrate;Hydroxypeucedanin hydrate;(+)-Oxypeucedanin hydrate;(+)-Aviprin;(<em>R</em>)-(+)-Oxypeucedan hydrate;Aviprin;(<em>R</em>)-(+)-Oxypeucedanin hydrate",
    "duplicated_cas_no": "",
    "SMILES": "O(C[C@H](C(C)(C)O)O)C=1C2=C(C=C3C1C=CO3)OC(=O)C=C2",
    "meta_data": {
        "InChI": "InChI=1S/C16H16O6/c1-16(2,19)13(17)8-21-15-9-3-4-14(18)22-12(9)7-11-10(15)5-6-20-11/h3-7,13,17,19H,8H2,1-2H3/t13-/m1/s1",
        "InChIKey": null,
        "Canonical SMILES": "O=C1OC=2C=C3OC=CC3=C(OCC(O)C(O)(C)C)C2C=C1",
        "Molecular Formula": "C<sub>16</sub>H<sub>16</sub>O<sub>6</sub>",
        "Molecular Mass": "304.29",
        "Melting Point": "136 °C"
    }
}