{
    "cas_no": "5651-88-7",
    "key_name": "(2-Propyn-1-ylthio)benzene",
    "cn_name": "硫化苯基炔丙基;",
    "alternate_name": "Benzene, (2-propyn-1-ylthio)-;Sulfide, phenyl 2-propynyl;Benzene, (2-propynylthio)-;(2-Propyn-1-ylthio)benzene;Phenyl propargyl sulfide;Phenyl 2-propynyl sulfide;1-Phenylthio-2-propyne;3-(Phenylthio)propyne;Propargyl phenyl sulfide;3-Phenylthio-1-propyne;(2-Propynylthio)benzene;Prop-2-ynylthiobenzene;Phenyl propargyl thioether;Phenylthiomethylacetylene;Propargyl phenyl thioether;(Prop-2-yn-1-ylsulfanyl)benzene",
    "duplicated_cas_no": "",
    "SMILES": "S(CC#C)C1=CC=CC=C1",
    "meta_data": {
        "InChI": "InChI=1S/C9H8S/c1-2-8-10-9-6-4-3-5-7-9/h1,3-7H,8H2",
        "InChIKey": null,
        "Canonical SMILES": "C#CCSC=1C=CC=CC1",
        "Molecular Formula": "C<sub>9</sub>H<sub>8</sub>S",
        "Molecular Mass": "148.22",
        "Boiling Point": "104-110 °C @ Press: 10 Torr",
        "Density": "1.0735 g/cm³ @ Temp: 20 °C"
    }
}