{
    "cas_no": "557-01-7",
    "key_name": "2(1<em>H</em>)-Pyrimidinone",
    "cn_name": "2-羟基嘧啶;",
    "alternate_name": "2(1<em>H</em>)-Pyrimidinone;2-Oxopyrimidine;2-Pyrimidone;2-Hydroxypyrimidine;2-Pyrimidinol;2-Pyrimidinone;2(1<em>H</em>)-Pyrimidone;1,2-Dihydropyrimidin-2-one;NSC 618280;1<em>H</em>-Pyrimidin-2-one",
    "duplicated_cas_no": "2209-57-6",
    "SMILES": "O=C1NC=CC=N1",
    "meta_data": {
        "InChI": "InChI=1S/C4H4N2O/c7-4-5-2-1-3-6-4/h1-3H,(H,5,6,7)",
        "InChIKey": null,
        "Canonical SMILES": "O=C1N=CC=CN1",
        "Molecular Formula": "C<sub>4</sub>H<sub>4</sub>N<sub>2</sub>O",
        "Molecular Mass": "96.09",
        "Melting Point": "177-178 °C"
    }
}