{
    "cas_no": "93-59-4",
    "key_name": "Perbenzoic acid",
    "cn_name": "2-氯-4-(三氟甲基)苯硼酸;",
    "alternate_name": "Benzenecarboperoxoic acid;Peroxybenzoic acid;Benzoyl hydrogen peroxide;Benzoyl hydroperoxide;Perbenzoic acid;Hydroperoxide, benzoyl;Peroxobenzoic acid;PBA",
    "duplicated_cas_no": "796089-67-3;1155174-25-6",
    "SMILES": "C(OO)(=O)C1=CC=CC=C1",
    "meta_data": {
        "InChI": "InChI=1S/C7H6O3/c8-7(10-9)6-4-2-1-3-5-6/h1-5,9H",
        "InChIKey": null,
        "Canonical SMILES": "O=C(OO)C=1C=CC=CC1",
        "Molecular Formula": "C<sub>7</sub>H<sub>6</sub>O<sub>3</sub>",
        "Molecular Mass": "138.12",
        "Boiling Point": "105 °C",
        "Melting Point": "42 °C"
    }
}