{
    "cas_no": "112-98-1",
    "key_name": "5,8,11,14,17-Pentaoxaheneicosane",
    "cn_name": "二丁氧基四甘醇醚;二丁氧基四甘醇醚;",
    "alternate_name": "5,8,11,14,17-Pentaoxaheneicosane;Pentaether;Ether, bis[2-(2-butoxyethoxy)ethyl];Tetraethylene glycol dibutyl ether;5,8,11,14,17-Pentaoxauneicosane",
    "duplicated_cas_no": "",
    "SMILES": "O(CCOCCOCCCC)CCOCCOCCCC",
    "meta_data": {
        "InChI": "InChI=1S/C16H34O5/c1-3-5-7-17-9-11-19-13-15-21-16-14-20-12-10-18-8-6-4-2/h3-16H2,1-2H3",
        "InChIKey": null,
        "Canonical SMILES": "O(CCOCCOCCCC)CCOCCOCCCC",
        "Molecular Formula": "C<sub>16</sub>H<sub>34</sub>O<sub>5</sub>",
        "Molecular Mass": "306.44",
        "Boiling Point": "170 °C @ Press: 5 Torr"
    }
}