{
    "cas_no": "22323-82-6",
    "key_name": "(+)-Solketal",
    "cn_name": "(S)-(+)-甘油醇缩丙酮;S-丙酮缩甘油;",
    "alternate_name": "1,3-Dioxolane-4-methanol, 2,2-dimethyl-, (4<em>S</em>)-;1,3-Dioxolane-4-methanol, 2,2-dimethyl-, <span class=\"text-smallcaps\">L</span>-;1,3-Dioxolane-4-methanol, 2,2-dimethyl-, (<em>S</em>)-;(4<em>S</em>)-2,2-Dimethyl-1,3-dioxolane-4-methanol;<span class=\"text-smallcaps\">L</span>-(+)-2,2-Dimethyl-1,3-dioxolane-4-methanol;1,2-Isopropylidene-<em>sn</em>-glycerol;(2<em>S</em>)-Glycerol 1,2-acetonide;2,3-<em>O</em>-Isopropylidene-<span class=\"text-smallcaps\">D</span>-glycerol;1,2-<em>O</em>-Isopropylidene-<em>sn</em>-glycerol;(<em>S</em>)-(+)-1,2-Isopropylideneglycerol;(<em>S</em>)-Solketal;(<em>S</em>)-2,2-Dimethyl-1,3-dioxolane-4-methanol;(+)-Solketal;(+)-α,β-Isopropylideneglycerol;(<em>S</em>)-Isopropylideneglycerol;(4<em>S</em>)-2,2-Dimethyl-1,3-dioxolan-4-ylmethanol;1,2-<em>O</em>-Isopropylidene-(<em>S</em>)-glycerol;(+)-2,2-Dimethyl-1,3-dioxolane-4-methanol;(<em>S</em>)-1,2-Isopropylideneglycerol;(<em>S</em>)-1,2-<em>O</em>-Isopropylideneglycerol;(+)-1,2-<em>O</em>-Isopropylidene-<em>sn</em>-glycerol;(+)-Glycerol acetonide;(<em>S</em>)-(+)-2,2-Dimethyl-1,3-dioxolane-4-methanol;(<em>S</em>)-(+)-(2,2-Dimethyl-[1,3]dioxolan-4-yl)methanol;((4S)-2,2-Dimethyl-1,3-dioxolan-4-yl)methanol;(<em>S</em>)-(+)-2,2-Dimethyl-1,3-dioxolan-4-methanol;[(<em>S</em>)-2,2-Dimethyl-[1,3]dioxolan-4-yl]methanol;(<em>S</em>)-2,2-Dimethyl-1,3-dioxolan-4-methanol",
    "duplicated_cas_no": "",
    "SMILES": "C(O)[C@@H]1OC(C)(C)OC1",
    "meta_data": {
        "InChI": "InChI=1S/C6H12O3/c1-6(2)8-4-5(3-7)9-6/h5,7H,3-4H2,1-2H3/t5-/m0/s1",
        "InChIKey": null,
        "Canonical SMILES": "OCC1OC(OC1)(C)C",
        "Molecular Formula": "C<sub>6</sub>H<sub>12</sub>O<sub>3</sub>",
        "Molecular Mass": "132.16",
        "Boiling Point": "77-78 °C @ Press: 9.98 Torr"
    }
}