{
    "cas_no": "628-02-4",
    "key_name": "Hexanamide",
    "cn_name": "己酰胺;正己酰胺;",
    "alternate_name": "Hexanamide;Caproamide;<em>n</em>-Hexanamide;Hexamide;Capronamide;<em>n</em>-Caproamide;Hexylamide;Caproic amide;Capromide;NSC 8437",
    "duplicated_cas_no": "",
    "SMILES": "C(CCCC)C(N)=O",
    "meta_data": {
        "InChI": "InChI=1S/C6H13NO/c1-2-3-4-5-6(7)8/h2-5H2,1H3,(H2,7,8)",
        "InChIKey": null,
        "Canonical SMILES": "O=C(N)CCCCC",
        "Molecular Formula": "C<sub>6</sub>H<sub>13</sub>NO",
        "Molecular Mass": "115.17",
        "Boiling Point": "255 °C @ Press: 760 Torr",
        "Melting Point": "101 °C",
        "Density": "0.999 g/cm³ @ Temp: 20 °C"
    }
}