{
    "cas_no": "5617-41-4",
    "key_name": "Heptylcyclohexane",
    "cn_name": "庚基环已烷;庚基环已烷;",
    "alternate_name": "Cyclohexane, heptyl-;Heptane, 1-cyclohexyl-;Heptylcyclohexane;<em>n</em>-Heptylcyclohexane;1-Cyclohexylheptane;NSC 102802",
    "duplicated_cas_no": "",
    "SMILES": "C(CCCCCC)C1CCCCC1",
    "meta_data": {
        "InChI": "InChI=1S/C13H26/c1-2-3-4-5-7-10-13-11-8-6-9-12-13/h13H,2-12H2,1H3",
        "InChIKey": null,
        "Canonical SMILES": "CCCCCCCC1CCCCC1",
        "Molecular Formula": "C<sub>13</sub>H<sub>26</sub>",
        "Molecular Mass": "182.35",
        "Boiling Point": "244 °C",
        "Melting Point": "-30 °C",
        "Density": "0.8124 g/cm³ @ Temp: 20 °C"
    }
}