{
    "cas_no": "78-95-5",
    "key_name": "Chloroacetone",
    "cn_name": "氯丙酮;一氯丙酮；1-氯-2-丙酮;氯代丙酮;",
    "alternate_name": "2-Propanone, 1-chloro-;2-Propanone, chloro-;1-Chloro-2-propanone;Acetonyl chloride;Chloroacetone;Chloropropanone;Monochloroacetone;α-Chloroacetone;1-Chloroacetone;Chloromethyl methyl ketone;Chloro-2-propanone;Methyl chloromethyl ketone;NSC 30673",
    "duplicated_cas_no": "",
    "SMILES": "C(CCl)(C)=O",
    "meta_data": {
        "InChI": "InChI=1S/C3H5ClO/c1-3(5)2-4/h2H2,1H3",
        "InChIKey": null,
        "Canonical SMILES": "O=C(C)CCl",
        "Molecular Formula": "C<sub>3</sub>H<sub>5</sub>ClO",
        "Molecular Mass": "92.52",
        "Boiling Point": "119.7 °C",
        "Melting Point": "-44.5 °C",
        "Density": "1.123 g/cm³ @ Temp: 25 °C"
    }
}