{
    "cas_no": "65078-77-5",
    "key_name": "2,3-Dichloro-6-nitrobenzenamine",
    "cn_name": null,
    "alternate_name": "Benzenamine, 2,3-dichloro-6-nitro-;2,3-Dichloro-6-nitrobenzenamine;2,3-Dichloro-6-nitroaniline",
    "duplicated_cas_no": "",
    "SMILES": "N(=O)(=O)C1=C(N)C(Cl)=C(Cl)C=C1",
    "meta_data": {
        "InChI": "InChI=1S/C6H4Cl2N2O2/c7-3-1-2-4(10(11)12)6(9)5(3)8/h1-2H,9H2",
        "InChIKey": null,
        "Canonical SMILES": "O=N(=O)C1=CC=C(Cl)C(Cl)=C1N",
        "Molecular Formula": "C<sub>6</sub>H<sub>4</sub>Cl<sub>2</sub>N<sub>2</sub>O<sub>2</sub>",
        "Molecular Mass": "207.01",
        "Melting Point": "166.7 °C"
    }
}