{
    "cas_no": "2037-48-1",
    "key_name": "Deoxystreptamine",
    "cn_name": null,
    "alternate_name": "Streptamine, 2-deoxy-;1,2,3-Cyclohexanetriol, 4,6-diamino-;Streptamine, deoxy-;2-Deoxystreptamine;Deoxystreptamine;2-Desoxystreptamine;2-Deoxy-<span class=\"text-smallcaps\">D</span>-streptamine;NSC 156938",
    "duplicated_cas_no": "101742-77-2;103189-57-7;731753-11-0;1021017-73-1;1378302-04-5;1888528-48-0;2117745-63-6;2408766-88-9;2648558-71-6;2732970-14-6;2927158-87-8",
    "SMILES": "O[C@H]1[C@H](O)[C@@H](O)[C@H](N)C[C@@H]1N",
    "meta_data": {
        "InChI": "InChI=1/C6H14N2O3/c7-2-1-3(8)5(10)6(11)4(2)9/h2-6,9-11H,1,7-8H2/t2-,3+,4+,5-,6-",
        "InChIKey": null,
        "Canonical SMILES": "OC1C(O)C(N)CC(N)C1O",
        "Molecular Formula": "C<sub>6</sub>H<sub>14</sub>N<sub>2</sub>O<sub>3</sub>",
        "Molecular Mass": "162.19",
        "Melting Point": "280 °C"
    }
}