{
    "cas_no": "7697-28-1",
    "key_name": "4-Bromo-3-methylbenzoic acid",
    "cn_name": "3-甲基-4-溴苯甲酸;4-溴-3-甲基苯甲酸;",
    "alternate_name": "Benzoic acid, 4-bromo-3-methyl-;<em>m</em>-Toluic acid, 4-bromo-;4-Bromo-3-methylbenzoic acid;3-Methyl-4-bromobenzoic acid",
    "duplicated_cas_no": "",
    "SMILES": "C(O)(=O)C1=CC(C)=C(Br)C=C1",
    "meta_data": {
        "InChI": "InChI=1S/C8H7BrO2/c1-5-4-6(8(10)11)2-3-7(5)9/h2-4H,1H3,(H,10,11)",
        "InChIKey": null,
        "Canonical SMILES": "O=C(O)C1=CC=C(Br)C(=C1)C",
        "Molecular Formula": "C<sub>8</sub>H<sub>7</sub>BrO<sub>2</sub>",
        "Molecular Mass": "215.04",
        "Melting Point": "212-212.5 °C"
    }
}