{
    "cas_no": "3333-52-6",
    "key_name": "2,2,3,3-Tetramethylbutanedinitrile",
    "cn_name": "四甲基丁二腈;四甲基琥珀腈;",
    "alternate_name": "Butanedinitrile, 2,2,3,3-tetramethyl-;Succinonitrile, tetramethyl-;Butanedinitrile, tetramethyl-;2,2,3,3-Tetramethylbutanedinitrile;Tetramethylsuccinonitrile;Tetramethylsuccinodinitrile;2,3-Dicyano-2,3-dimethylbutane;Tetramethylsuccinic acid dinitrile;NSC 39746;2,2,3,3-Tetramethylsuccinonitrile",
    "duplicated_cas_no": "",
    "SMILES": "C(C(C#N)(C)C)(C#N)(C)C",
    "meta_data": {
        "InChI": "InChI=1S/C8H12N2/c1-7(2,5-9)8(3,4)6-10/h1-4H3",
        "InChIKey": null,
        "Canonical SMILES": "N#CC(C)(C)C(C#N)(C)C",
        "Molecular Formula": "C<sub>8</sub>H<sub>12</sub>N<sub>2</sub>",
        "Molecular Mass": "136.19",
        "Boiling Point": "140-180 °C @ Press: 1 x 10<sup>-3</sup> Torr",
        "Melting Point": "170.5 °C",
        "Density": "1.070 g/cm³"
    }
}