{
    "cas_no": "2271-93-4",
    "key_name": "<em>N</em>,<em>N</em>′-Hexamethylene-1,6-bis(1-aziridinecarboxamide)",
    "cn_name": "N,N\"-1,6-己二基双(1-氮丙啶酰胺);",
    "alternate_name": "1-Aziridinecarboxamide, <em>N</em>,<em>N</em>′-1,6-hexanediylbis-;1-Aziridinecarboxamide, <em>N</em>,<em>N</em>′-hexamethylenebis-;<em>N</em>,<em>N</em>′-1,6-Hexanediylbis[1-aziridinecarboxamide];HBC;<em>N</em>,<em>N</em>′-Hexamethylenebis(1-aziridinecarboxamide);Hexamethylenebis(ethyleneurea);<em>N</em>,<em>N</em>′-Hexamethylenebis(1-aziridinyl carboxamide);1,6-Hexamethylenebis(ethyleneurea);OM 53139;Olin 53139;Hexamethylenediethyleneurea;1,1′-(Hexamethylenedicarbamoyl)diaziridine;AI 3-50172;ENT 50172;HDU;HZ 22;Chemitite HZ 22;<em>N</em>,<em>N</em>′-Hexamethylene-1,6-bis(1-aziridinecarboxamide);DM 130;NSC 146970;1,6-Hexamethylene bis(<em>N</em>,<em>N</em>-ethyleneurea);N,N′-Hexamethylene 1,6-bis(1-aziridinyl carboxamide)",
    "duplicated_cas_no": "157948-35-1",
    "SMILES": "C(NCCCCCCNC(=O)N1CC1)(=O)N2CC2",
    "meta_data": {
        "InChI": "InChI=1S/C12H22N4O2/c17-11(15-7-8-15)13-5-3-1-2-4-6-14-12(18)16-9-10-16/h1-10H2,(H,13,17)(H,14,18)",
        "InChIKey": null,
        "Canonical SMILES": "O=C(NCCCCCCNC(=O)N1CC1)N2CC2",
        "Molecular Formula": "C<sub>12</sub>H<sub>22</sub>N<sub>4</sub>O<sub>2</sub>",
        "Molecular Mass": "254.33",
        "Melting Point": "106 °C"
    }
}