{
    "cas_no": "6324-50-1",
    "key_name": "1,3,5-Trichloro-2-iodobenzene",
    "cn_name": "1-碘-2,4,6-三氯苯;2,4,6-三氯碘苯;",
    "alternate_name": "Benzene, 1,3,5-trichloro-2-iodo-;1,3,5-Trichloro-2-iodobenzene;2,4,6-Trichloro-1-iodobenzene;2,4,6-Trichloroiodobenzene;1-Iodo-2,4,6-trichlorobenzene;NSC 29082",
    "duplicated_cas_no": "",
    "SMILES": "IC1=C(Cl)C=C(Cl)C=C1Cl",
    "meta_data": {
        "InChI": "InChI=1S/C6H2Cl3I/c7-3-1-4(8)6(10)5(9)2-3/h1-2H",
        "InChIKey": null,
        "Canonical SMILES": "ClC=1C=C(Cl)C(I)=C(Cl)C1",
        "Molecular Formula": "C<sub>6</sub>H<sub>2</sub>Cl<sub>3</sub>I",
        "Molecular Mass": "307.34",
        "Melting Point": "53-54 °C"
    }
}