{
    "cas_no": "152628-03-0",
    "key_name": "7-Methyl-2-propyl-1<em>H</em>-benzimidazole-5-carboxylic acid",
    "cn_name": "2-正丙基-4-甲基-6-羧基苯并咪唑;2-正丙基-4-甲基苯并咪唑-6-羧酸;",
    "alternate_name": "1<em>H</em>-Benzimidazole-5-carboxylic acid, 7-methyl-2-propyl-;7-Methyl-2-propyl-1<em>H</em>-benzimidazole-5-carboxylic acid;4-Methyl-2-propyl-6-benzimidazolecarboxylic acid;2-Propyl-4-methylbenzimidazol-6-carboxylic acid;4-Methyl-2-propyl-1<em>H</em>-benzimidazole-6-carboxylic acid;7-Methyl-2-propyl-3<em>H</em>-benzimidazole-5-carboxylic acid",
    "duplicated_cas_no": "",
    "SMILES": "CC1=C2C(NC(CCC)=N2)=CC(C(O)=O)=C1",
    "meta_data": {
        "InChI": "InChI=1S/C12H14N2O2/c1-3-4-10-13-9-6-8(12(15)16)5-7(2)11(9)14-10/h5-6H,3-4H2,1-2H3,(H,13,14)(H,15,16)",
        "InChIKey": null,
        "Canonical SMILES": "O=C(O)C=1C=C2NC(=NC2=C(C1)C)CCC",
        "Molecular Formula": "C<sub>12</sub>H<sub>14</sub>N<sub>2</sub>O<sub>2</sub>",
        "Molecular Mass": "218.25",
        "Melting Point": "295-297 °C"
    }
}