{
    "cas_no": "5197-28-4",
    "key_name": "2-Bromo-1-methoxy-4-nitrobenzene",
    "cn_name": "2-溴-4-硝基苯甲醚;",
    "alternate_name": "Benzene, 2-bromo-1-methoxy-4-nitro-;Anisole, 2-bromo-4-nitro-;2-Bromo-1-methoxy-4-nitrobenzene;2-Bromo-4-nitroanisole;3-Bromo-4-methoxynitrobenzene;4-Nitro-2-bromoanisole;1-Bromo-2-methoxy-5-nitrobenzene;NSC 143545;2-Methoxy-5-nitrobromobenzene;3-Bromo-4-methoxy-1-nitrobenzene",
    "duplicated_cas_no": "",
    "SMILES": "N(=O)(=O)C1=CC(Br)=C(OC)C=C1",
    "meta_data": {
        "InChI": "InChI=1S/C7H6BrNO3/c1-12-7-3-2-5(9(10)11)4-6(7)8/h2-4H,1H3",
        "InChIKey": null,
        "Canonical SMILES": "O=N(=O)C1=CC=C(OC)C(Br)=C1",
        "Molecular Formula": "C<sub>7</sub>H<sub>6</sub>BrNO<sub>3</sub>",
        "Molecular Mass": "232.03",
        "Melting Point": "108 °C"
    }
}