{
    "cas_no": "17933-03-8",
    "key_name": "3-Methylphenylboronic acid",
    "cn_name": "3-甲基苯硼酸;3-甲基苯基硼酸;",
    "alternate_name": "Boronic acid, <em>B</em>-(3-methylphenyl)-;<em>m</em>-Tolueneboronic acid;Boronic acid, (3-methylphenyl)-;<em>B</em>-(3-Methylphenyl)boronic acid;<em>m</em>-Tolylboronic acid;<em>m</em>-Methylbenzeneboronic acid;<em>m</em>-Tolyldihydroxyborane;<em>m</em>-Methylphenylboronic acid;3-Methylphenylboronic acid;<em>m</em>-Boronotoluene;3-Methylbenzeneboronic acid;3-Tolylboronic acid",
    "duplicated_cas_no": "1166976-51-7",
    "SMILES": "B(O)(O)C1=CC(C)=CC=C1",
    "meta_data": {
        "InChI": "InChI=1S/C7H9BO2/c1-6-3-2-4-7(5-6)8(9)10/h2-5,9-10H,1H3",
        "InChIKey": null,
        "Canonical SMILES": "OB(O)C1=CC=CC(=C1)C",
        "Molecular Formula": "C<sub>7</sub>H<sub>9</sub>BO<sub>2</sub>",
        "Molecular Mass": "135.96",
        "Melting Point": "157 °C"
    }
}