{
    "cas_no": "25550-52-1",
    "key_name": "Dimethylbenzenethiol",
    "cn_name": "硫代二甲苯酚;",
    "alternate_name": "Benzenethiol, dimethyl-;Xylenethiol;<em>ar</em>-Xylenethiol;Dimethylbenzenethiol;Xylyl mercaptan;RPA 3",
    "duplicated_cas_no": "",
    "SMILES": "",
    "meta_data": {
        "InChI": "",
        "InChIKey": null,
        "Canonical SMILES": "",
        "Molecular Formula": "C<sub>8</sub>H<sub>10</sub>S",
        "Molecular Mass": "",
        "Boiling Point": "210-220 °C",
        "Density": "1.026 g/cm³ @ Temp: 25 °C"
    }
}