{
    "cas_no": "2935-35-5",
    "key_name": "<span class=\"text-smallcaps\">L</span>-Phenylglycine",
    "cn_name": "L-苯甘氨酸;右旋苯甘氨酸;L-氨基苯基乙酸;",
    "alternate_name": "Benzeneacetic acid, α-amino-, (α<em>S</em>)-;Glycine, 2-phenyl-, <span class=\"text-smallcaps\">L</span>-;Benzeneacetic acid, α-amino-, (<em>S</em>)-;(α<em>S</em>)-α-Aminobenzeneacetic acid;<span class=\"text-smallcaps\">L</span>-Phenylglycine;<span class=\"text-smallcaps\">L</span>-2-Phenylglycine;<span class=\"text-smallcaps\">L</span>-(+)-2-Phenylglycine;<span class=\"text-smallcaps\">L</span>-α-Phenylglycine;<span class=\"text-smallcaps\">L</span>-(+)-α-Aminophenylacetic acid;(<em>S</em>)-Phenylglycine;(<em>S</em>)-α-Aminobenzeneacetic acid;<span class=\"text-smallcaps\">L</span>-(+)-Phenylglycine;(<em>S</em>)-(+)-Phenylglycine;(+)-Phenylglycine;<span class=\"text-smallcaps\">L</span>-α-Aminophenylacetic acid;(<em>S</em>)-(+)-2-Phenylglycine;<em>S</em>-(+)-α-Phenylglycine;(<em>S</em>)-Amino(phenyl)acetic acid;NSC 206293;(<em>S</em>)-2-Amino-2-(phenyl)ethanoic acid;<span class=\"text-smallcaps\">L</span>(+)-α-Phenylglycine;(<em>S</em>)-2-Amino-2-(phenyl)acetic acid;(2S)-2-Azaniumyl-2-phenylacetate;(2S)-2-Amino-2-phenylacetic acid",
    "duplicated_cas_no": "",
    "SMILES": "[C@H](C(O)=O)(N)C1=CC=CC=C1",
    "meta_data": {
        "InChI": "InChI=1S/C8H9NO2/c9-7(8(10)11)6-4-2-1-3-5-6/h1-5,7H,9H2,(H,10,11)/t7-/m0/s1",
        "InChIKey": null,
        "Canonical SMILES": "O=C(O)C(N)C=1C=CC=CC1",
        "Molecular Formula": "C<sub>8</sub>H<sub>9</sub>NO<sub>2</sub>",
        "Molecular Mass": "151.16",
        "Melting Point": "225-228 °C"
    }
}