{
    "cas_no": "96-15-1",
    "key_name": "(±)-2-Methylbutylamine",
    "cn_name": "吲哚啉;2,3-二氢吲哚; 2,3-二氢-1H-吲哚;二氢吲哚;",
    "alternate_name": "1-Butanamine, 2-methyl-;Butylamine, 2-methyl-;2-Methyl-1-butanamine;2-Methylbutylamine;1-Amino-2-methylbutane;2-Methyl-1-butylamine;β-Methylbutylamine;2-Methylbutanamine;<em>dl</em>-2-Methylbutylamine;(±)-2-Methylbutylamine;2-Ethylpropylamine",
    "duplicated_cas_no": "2799-00-0",
    "SMILES": "C(CC)(CN)C",
    "meta_data": {
        "InChI": "InChI=1S/C5H13N/c1-3-5(2)4-6/h5H,3-4,6H2,1-2H3",
        "InChIKey": null,
        "Canonical SMILES": "NCC(C)CC",
        "Molecular Formula": "C<sub>5</sub>H<sub>13</sub>N",
        "Molecular Mass": "87.16",
        "Boiling Point": "40-45 °C @ Press: 12 Torr"
    }
}