{
    "cas_no": "3258-02-4",
    "key_name": "<em>N</em><sup>4</sup>-Hydroxycytidine",
    "cn_name": null,
    "alternate_name": "Uridine, 4-oxime;Cytidine, <em>N</em>-hydroxy-;<em>N</em><sup>4</sup>-Hydroxycytidine;<em>N</em>-Hydroxycytidine;EIDD 1931;NHC",
    "duplicated_cas_no": "85373-26-8",
    "SMILES": "O[C@H]1[C@@H](O[C@H](CO)[C@H]1O)N2C(=O)NC(=NO)C=C2",
    "meta_data": {
        "InChI": "InChI=1S/C9H13N3O6/c13-3-4-6(14)7(15)8(18-4)12-2-1-5(11-17)10-9(12)16/h1-2,4,6-8,13-15,17H,3H2,(H,10,11,16)/t4-,6-,7-,8-/m1/s1",
        "InChIKey": null,
        "Canonical SMILES": "O=C1NC(=NO)C=CN1C2OC(CO)C(O)C2O",
        "Molecular Formula": "C<sub>9</sub>H<sub>13</sub>N<sub>3</sub>O<sub>6</sub>",
        "Molecular Mass": "259.22",
        "Melting Point": "169-172 °C"
    }
}