{
    "cas_no": "10139-47-6",
    "key_name": "Zinc iodide",
    "cn_name": "碘化锌;",
    "alternate_name": "Zinc iodide (ZnI<sub>2</sub>);Zinc iodide;Zinc diiodide;NSC 39113;Zinc iodide (Zn<sub>0.5</sub>I)",
    "duplicated_cas_no": "3031903-75-7",
    "SMILES": "[Zn](I)I",
    "meta_data": {
        "InChI": "InChI=1S/2HI.Zn/h2*1H;/q;;+2/p-2",
        "InChIKey": null,
        "Canonical SMILES": "I[Zn]I",
        "Molecular Formula": "I<sub>2</sub>Zn",
        "Molecular Mass": "",
        "Melting Point": "446 °C",
        "Density": "4.74 g/cm³ @ Temp: 25 °C"
    }
}