{
    "cas_no": "2131-64-8",
    "key_name": "4-Isothiocyanato-<em>N</em>,<em>N</em>-dimethylbenzenamine",
    "cn_name": "4-二甲氨基苯基硫代异氰酸酯;",
    "alternate_name": "Benzenamine, 4-isothiocyanato-<em>N</em>,<em>N</em>-dimethyl-;Isothiocyanic acid, <em>p</em>-(dimethylamino)phenyl ester;Aniline, <em>p</em>-isothiocyanato-<em>N</em>,<em>N</em>-dimethyl-;4-Isothiocyanato-<em>N</em>,<em>N</em>-dimethylbenzenamine;<em>p</em>-Isothiocyanato-<em>N</em>,<em>N</em>-dimethylaniline;<em>p</em>-(Dimethylamino)phenyl isothiocyanate;4-(<em>N</em>,<em>N</em>-Dimethylamino)phenyl isothiocyanate;4-(Dimethylamino)phenyl isothiocyanate;NSC 196179;(4-Isothiocyanatophenyl)dimethylamine",
    "duplicated_cas_no": "",
    "SMILES": "N(C)(C)C1=CC=C(N=C=S)C=C1",
    "meta_data": {
        "InChI": "InChI=1S/C9H10N2S/c1-11(2)9-5-3-8(4-6-9)10-7-12/h3-6H,1-2H3",
        "InChIKey": null,
        "Canonical SMILES": "S=C=NC1=CC=C(C=C1)N(C)C",
        "Molecular Formula": "C<sub>9</sub>H<sub>10</sub>N<sub>2</sub>S",
        "Molecular Mass": "178.25",
        "Melting Point": "73 °C",
        "Density": "1.12 g/cm³"
    }
}