{
    "cas_no": "996-35-0",
    "key_name": "Dimethylisopropylamine",
    "cn_name": "二甲基异丙胺;",
    "alternate_name": "2-Propanamine, <em>N</em>,<em>N</em>-dimethyl-;Ethylamine, <em>N</em>,<em>N</em>,1-trimethyl-;<em>N</em>,<em>N</em>-Dimethyl-2-propanamine;Dimethylisopropylamine;<em>N</em>,<em>N</em>-Dimethylisopropylamine;Isopropyldimethylamine;2-Dimethylaminopropane;Catalyst 704",
    "duplicated_cas_no": "",
    "SMILES": "C(N(C)C)(C)C",
    "meta_data": {
        "InChI": "InChI=1S/C5H13N/c1-5(2)6(3)4/h5H,1-4H3",
        "InChIKey": null,
        "Canonical SMILES": "N(C)(C)C(C)C",
        "Molecular Formula": "C<sub>5</sub>H<sub>13</sub>N",
        "Molecular Mass": "87.16",
        "Boiling Point": "66 °C"
    }
}