{
    "cas_no": "1844-01-5",
    "key_name": "Bis(4-hydroxyphenyl)diphenylmethane",
    "cn_name": "4,4\"-二苯亚甲基双酚;4,4\"-二羟基四苯基甲烷;双酚BP;",
    "alternate_name": "Phenol, 4,4′-(diphenylmethylene)bis-;Phenol, 4,4′-(diphenylmethylene)di-;4,4′-(Diphenylmethylene)bis[phenol];4,4′-Dihydroxytetraphenylmethane;Bis(4-hydroxyphenyl)diphenylmethane;Bisphenol TP;1,1-Diphenyl-1,1-bis(4-hydroxyphenyl)methane;Bis(<em>p</em>-hydroxyphenyl)diphenylmethane;NSC 30848;BisP-DP;Bisphenol BP;4,4′-(Diphenylmethylene)diphenol;1,1-Bis(4-hydroxyphenyl)-1,1-diphenylmethane",
    "duplicated_cas_no": "625392-34-9",
    "SMILES": "C(C1=CC=C(O)C=C1)(C2=CC=C(O)C=C2)(C3=CC=CC=C3)C4=CC=CC=C4",
    "meta_data": {
        "InChI": "InChI=1S/C25H20O2/c26-23-15-11-21(12-16-23)25(19-7-3-1-4-8-19,20-9-5-2-6-10-20)22-13-17-24(27)18-14-22/h1-18,26-27H",
        "InChIKey": null,
        "Canonical SMILES": "OC1=CC=C(C=C1)C(C=2C=CC=CC2)(C=3C=CC=CC3)C4=CC=C(O)C=C4",
        "Molecular Formula": "C<sub>25</sub>H<sub>20</sub>O<sub>2</sub>",
        "Molecular Mass": "352.43",
        "Melting Point": "296-298 °C"
    }
}