{
    "cas_no": "781-43-1",
    "key_name": "9,10-Dimethylanthracene",
    "cn_name": "9,10-二甲基蒽;",
    "alternate_name": "Anthracene, 9,10-dimethyl-;9,10-Dimethylanthracene;NSC 4220",
    "duplicated_cas_no": "",
    "SMILES": "CC=1C2=C(C(C)=C3C1C=CC=C3)C=CC=C2",
    "meta_data": {
        "InChI": "InChI=1S/C16H14/c1-11-13-7-3-5-9-15(13)12(2)16-10-6-4-8-14(11)16/h3-10H,1-2H3",
        "InChIKey": null,
        "Canonical SMILES": "C=1C=CC=2C(C1)=C(C=3C=CC=CC3C2C)C",
        "Molecular Formula": "C<sub>16</sub>H<sub>14</sub>",
        "Molecular Mass": "206.28",
        "Boiling Point": "360-362 °C @ Press: 760 Torr",
        "Melting Point": "4-182 °C"
    }
}