{
    "cas_no": "3077-85-8",
    "key_name": "3-Nitrocarbazole",
    "cn_name": null,
    "alternate_name": "9<em>H</em>-Carbazole, 3-nitro-;Carbazole, 3-nitro-;3-Nitro-9<em>H</em>-carbazole;3-Nitrocarbazole;INF 51;NSC 67708",
    "duplicated_cas_no": "",
    "SMILES": "N(=O)(=O)C=1C=C2C=3C(NC2=CC1)=CC=CC3",
    "meta_data": {
        "InChI": "InChI=1S/C12H8N2O2/c15-14(16)8-5-6-12-10(7-8)9-3-1-2-4-11(9)13-12/h1-7,13H",
        "InChIKey": null,
        "Canonical SMILES": "O=N(=O)C=1C=CC=2NC=3C=CC=CC3C2C1",
        "Molecular Formula": "C<sub>12</sub>H<sub>8</sub>N<sub>2</sub>O<sub>2</sub>",
        "Molecular Mass": "212.20",
        "Melting Point": "212 °C"
    }
}