{
    "cas_no": "22832-87-7",
    "key_name": "Miconazole nitrate",
    "cn_name": "硝酸咪康唑;(2,4-二氯苯基)-2-[(2,4-二氯苯基)甲氧基]乙基]-1H-咪唑硝酸盐;",
    "alternate_name": "1<em>H</em>-Imidazole, 1-[2-(2,4-dichlorophenyl)-2-[(2,4-dichlorophenyl)methoxy]ethyl]-, nitrate (1:1);Imidazole, 1-[2,4-dichloro-β-[(2,4-dichlorobenzyl)oxy]phenethyl]-, mononitrate;1<em>H</em>-Imidazole, 1-[2-(2,4-dichlorophenyl)-2-[(2,4-dichlorophenyl)methoxy]ethyl]-, mononitrate;[2,4-Dichloro-β-(2,4-dichlorobenzyloxy)phenethyl]imidazole nitrate;Miconazole nitrate;R 14889;Daktarin talc;Daktarin;Monistat;(±)-Miconazole nitrate;Monistat-Derm;Micatin;Epi-Monistat;Vodol;Zeasorb AF;Lotrimin AF Powder Aerosol;Gyno-Daktarin;Andergin;Albistat;Gyno-Monistat;Ecobi;Prilagin;Lotrimin AF Powder;Daktar;Brentan;Conoderm;Conofite;Aflorix;Miconal;Lotrimin AF Spray Liquid;Micotef;Fungiderm;Deralbine;Loptrimin AF Jock-Itch Powder Aerosol;Antifungal Cream;Fungisdin;Dermonistat;Florid;Monistat Cream and Suppositories;Hi-Pick;NSC 169434;Zimycan;Priconazole;Miconaz;Dactrine",
    "duplicated_cas_no": "75319-48-1",
    "SMILES": "C(CN1C=CN=C1)(OCC2=C(Cl)C=C(Cl)C=C2)C3=C(Cl)C=C(Cl)C=C3.N(=O)(=O)O",
    "meta_data": {
        "InChI": "InChI=1S/C18H14Cl4N2O.HNO3/c19-13-2-1-12(16(21)7-13)10-25-18(9-24-6-5-23-11-24)15-4-3-14(20)8-17(15)22;2-1(3)4/h1-8,11,18H,9-10H2;(H,2,3,4)",
        "InChIKey": null,
        "Canonical SMILES": "O=N(=O)O.ClC1=CC=C(C(Cl)=C1)COC(C2=CC=C(Cl)C=C2Cl)CN3C=NC=C3",
        "Molecular Formula": "C<sub>18</sub>H<sub>14</sub>Cl<sub>4</sub>N<sub>2</sub>O.HNO<sub>3</sub>",
        "Molecular Mass": "",
        "Melting Point": "170.5 °C"
    }
}