{
    "cas_no": "91-76-9",
    "key_name": "Benzoguanamine",
    "cn_name": "2,4-二氨基-6-苯基-1,3,5-三嗪;苯代三聚氰胺;",
    "alternate_name": "1,3,5-Triazine-2,4-diamine, 6-phenyl-;<em>s</em>-Triazine, 2,4-diamino-6-phenyl-;6-Phenyl-1,3,5-triazine-2,4-diamine;Benzoguanimine;4,6-Diamino-2-phenyl-<em>s</em>-triazine;2,4-Diamino-6-phenyl-<em>s</em>-triazine;2-Phenyl-4,6-diamino-1,3,5-triazine;Benzoguanamine;ENT 60118;2,4-Diamino-6-phenyl-1,3,5-triazine;2-Phenyl-4,6-diamino-<em>s</em>-triazine;2,6-Diamino-4-phenyl-1,3,5-triazine;NSC 3267;Nikaganamine;Benzoquanamine;6-Phenyl-2,4-diamino-1,3,5-triazine;2,4-Diamino-6-phenyltriazine",
    "duplicated_cas_no": "26676-98-2;1426672-77-6",
    "SMILES": "NC1=NC(=NC(N)=N1)C2=CC=CC=C2",
    "meta_data": {
        "InChI": "InChI=1S/C9H9N5/c10-8-12-7(13-9(11)14-8)6-4-2-1-3-5-6/h1-5H,(H4,10,11,12,13,14)",
        "InChIKey": null,
        "Canonical SMILES": "N=1C(=NC(=NC1N)C=2C=CC=CC2)N",
        "Molecular Formula": "C<sub>9</sub>H<sub>9</sub>N<sub>5</sub>",
        "Molecular Mass": "187.20",
        "Melting Point": "227-228 °C",
        "Density": "1.40 g/cm³ @ Temp: 25 °C"
    }
}