{
    "cas_no": "107753-78-6",
    "key_name": "Zafirlukast",
    "cn_name": "扎鲁司特;扎鲁斯特;[3-[2-甲氧基-4-[(2-甲苯基)磺酰胺基甲酰基]苄基]-1-甲基-吲哚-5-基]氨基甲酸环戊酯;",
    "alternate_name": "Carbamic acid, <em>N</em>-[3-[[2-methoxy-4-[[[(2-methylphenyl)sulfonyl]amino]carbonyl]phenyl]methyl]-1-methyl-1<em>H</em>-indol-5-yl]-, cyclopentyl ester;Carbamic acid, [3-[[2-methoxy-4-[[[(2-methylphenyl)sulfonyl]amino]carbonyl]phenyl]methyl]-1-methyl-1<em>H</em>-indol-5-yl]-, cyclopentyl ester;ICI 204219;Cyclopentyl 3-[2-methoxy-4-[(<em>o</em>-tolylsulfonyl)carbamoyl]benzyl]-1-methylindole-5-carbamate;Zafirlukast;Accolate;Vanticon;S 1633;[3-[2-Methoxy-4-(toluene-2-sulfonylaminocarbonyl)-benzyl]-1-methyl-1<em>H</em>-indol-5-yl]-carbamic acid cyclopentyl ester",
    "duplicated_cas_no": "",
    "SMILES": "C(C=1C=2C(N(C)C1)=CC=C(NC(OC3CCCC3)=O)C2)C4=C(OC)C=C(C(NS(=O)(=O)C5=C(C)C=CC=C5)=O)C=C4",
    "meta_data": {
        "InChI": "InChI=1S/C31H33N3O6S/c1-20-8-4-7-11-29(20)41(37,38)33-30(35)22-13-12-21(28(17-22)39-3)16-23-19-34(2)27-15-14-24(18-26(23)27)32-31(36)40-25-9-5-6-10-25/h4,7-8,11-15,17-19,25H,5-6,9-10,16H2,1-3H3,(H,32,36)(H,33,35)",
        "InChIKey": null,
        "Canonical SMILES": "O=C(OC1CCCC1)NC=2C=CC3=C(C2)C(=CN3C)CC4=CC=C(C=C4OC)C(=O)NS(=O)(=O)C=5C=CC=CC5C",
        "Molecular Formula": "C<sub>31</sub>H<sub>33</sub>N<sub>3</sub>O<sub>6</sub>S",
        "Molecular Mass": "575.68",
        "Melting Point": "138-140 °C"
    }
}