{
    "cas_no": "15793-77-8",
    "key_name": "2-Hydrazinoquinoline",
    "cn_name": "2-肼喹啉;2-肼基喹啉;",
    "alternate_name": "Quinoline, 2-hydrazinyl-;Quinoline, 2-hydrazino-;2(1<em>H</em>)-Quinolinone, hydrazone;2-Hydrazinylquinoline;2-Hydrazinoquinoline;2-Quinolylhydrazine;α-Quinolylhydrazine;(2-Quinolinyl)hydrazine;NSC 525792",
    "duplicated_cas_no": "",
    "SMILES": "N(N)=C1NC=2C(C=C1)=CC=CC2",
    "meta_data": {
        "InChI": "InChI=1S/C9H9N3/c10-12-9-6-5-7-3-1-2-4-8(7)11-9/h1-6H,10H2,(H,11,12)",
        "InChIKey": null,
        "Canonical SMILES": "N(N)=C1C=CC=2C=CC=CC2N1",
        "Molecular Formula": "C<sub>9</sub>H<sub>9</sub>N<sub>3</sub>",
        "Molecular Mass": "159.19",
        "Melting Point": "~142 °C (approx)"
    }
}