{
    "cas_no": "33301-41-6",
    "key_name": "1-(Diphenylmethyl)-3-[(methylsulfonyl)oxy]azetidine",
    "cn_name": "1-二苯甲基-3-甲烷磺酸氮杂环丁烷;1-二苯甲基氮杂环丁-3-基甲磺酸酯;",
    "alternate_name": "3-Azetidinol, 1-(diphenylmethyl)-, 3-methanesulfonate;3-Azetidinol, 1-(diphenylmethyl)-, methanesulfonate (ester);1-(Diphenylmethyl)-3-(mesyloxy)azetidine;3-(Mesyloxy)-<em>N</em>-(diphenylmethyl)azetidine;1-Benzhydryl-3-mesyloxyazetidine;Methanesulfonic acid 1-benzhydrylazetidin-3-yl ester;1-Benzhydryl-3-methanesulfonyloxyazetidine;1-Benzhydryl-3-azetidinyl methanesulfonate;1-(Diphenylmethyl)-3-[(methylsulfonyl)oxy]azetidine;3-[(Methylsulfonyl)oxy]-1-benzhydrylazetidine;1-Benzhydryl-3-[(methylsulfonyl)oxy]azetidine;1-(Diphenylmethyl)azetidin-3-yl methanesulfonate;Cyclobutanol, 3-(diphenylmethyl)-, 1-methanesulfonate",
    "duplicated_cas_no": "178312-49-7;1375075-76-5;1448326-30-4",
    "SMILES": "C(N1CC(OS(C)(=O)=O)C1)(C2=CC=CC=C2)C3=CC=CC=C3",
    "meta_data": {
        "InChI": "InChI=1S/C17H19NO3S/c1-22(19,20)21-16-12-18(13-16)17(14-8-4-2-5-9-14)15-10-6-3-7-11-15/h2-11,16-17H,12-13H2,1H3",
        "InChIKey": null,
        "Canonical SMILES": "O=S(=O)(OC1CN(C1)C(C=2C=CC=CC2)C=3C=CC=CC3)C",
        "Molecular Formula": "C<sub>17</sub>H<sub>19</sub>NO<sub>3</sub>S",
        "Molecular Mass": "317.40",
        "Melting Point": "115-116 °C"
    }
}