{
    "cas_no": "1885-13-8",
    "key_name": "4-Methoxyphthalic acid",
    "cn_name": "4-甲氧基邻苯二甲酸;",
    "alternate_name": "1,2-Benzenedicarboxylic acid, 4-methoxy-;Phthalic acid, 4-methoxy-;4-Methoxy-1,2-benzenedicarboxylic acid;4-Methoxyphthalic acid;4-Methoxy-<em>o</em>-phthalic acid",
    "duplicated_cas_no": "",
    "SMILES": "C(O)(=O)C1=C(C(O)=O)C=CC(OC)=C1",
    "meta_data": {
        "InChI": "InChI=1S/C9H8O5/c1-14-5-2-3-6(8(10)11)7(4-5)9(12)13/h2-4H,1H3,(H,10,11)(H,12,13)",
        "InChIKey": null,
        "Canonical SMILES": "O=C(O)C1=CC=C(OC)C=C1C(=O)O",
        "Molecular Formula": "C<sub>9</sub>H<sub>8</sub>O<sub>5</sub>",
        "Molecular Mass": "196.16",
        "Melting Point": "170 °C"
    }
}