{
    "cas_no": "1249-97-4",
    "key_name": "3,7-Bis(dimethylamino)-10-benzoylphenothiazine",
    "cn_name": "苯甲酰无色亚甲蓝;苯甲酰无色亚甲蓝;10-苯甲酰基-3,7-双(二甲氨基)吩噻嗪;",
    "alternate_name": "Methanone, [3,7-bis(dimethylamino)-10<em>H</em>-phenothiazin-10-yl]phenyl-;Phenothiazine, 10-benzoyl-3,7-bis(dimethylamino)-;10<em>H</em>-Phenothiazine-3,7-diamine, 10-benzoyl-<em>N</em>,<em>N</em>,<em>N</em>′,<em>N</em>′-tetramethyl-;[3,7-Bis(dimethylamino)-10<em>H</em>-phenothiazin-10-yl]phenylmethanone;10-Benzoyl-3,7-bis(dimethylamino)phenothiazine;3,7-Bis(dimethylamino)-10-benzoylphenothiazine;<em>N</em>-Benzoylleucomethylene Blue;Copikem II;BLMB;NSC 11881",
    "duplicated_cas_no": "28348-67-6;82457-91-8",
    "SMILES": "C(=O)(N1C=2C(SC=3C1=CC=C(N(C)C)C3)=CC(N(C)C)=CC2)C4=CC=CC=C4",
    "meta_data": {
        "InChI": "InChI=1S/C23H23N3OS/c1-24(2)17-10-12-19-21(14-17)28-22-15-18(25(3)4)11-13-20(22)26(19)23(27)16-8-6-5-7-9-16/h5-15H,1-4H3",
        "InChIKey": null,
        "Canonical SMILES": "O=C(C=1C=CC=CC1)N2C3=CC=C(C=C3SC4=CC(=CC=C42)N(C)C)N(C)C",
        "Molecular Formula": "C<sub>23</sub>H<sub>23</sub>N<sub>3</sub>OS",
        "Molecular Mass": "389.51",
        "Melting Point": "185-187 °C"
    }
}