{
    "cas_no": "10012-47-2",
    "key_name": "Benzoic acid, 4-amino-, 2-(dimethylamino)ethyl ester",
    "cn_name": null,
    "alternate_name": "Benzoic acid, 4-amino-, 2-(dimethylamino)ethyl ester;Benzoic acid, <em>p</em>-amino-, 2-(dimethylamino)ethyl ester;Ethanol, 2-dimethylamino-, <em>p</em>-aminobenzoate;(Dimethylamino)ethyl <em>p</em>-aminobenzoate;2-(Dimethylamino)ethyl 4-aminobenzoate;Dimethylprocaine;NSC 25247",
    "duplicated_cas_no": "",
    "SMILES": "C(OCCN(C)C)(=O)C1=CC=C(N)C=C1",
    "meta_data": {
        "InChI": "InChI=1S/C11H16N2O2/c1-13(2)7-8-15-11(14)9-3-5-10(12)6-4-9/h3-6H,7-8,12H2,1-2H3",
        "InChIKey": null,
        "Canonical SMILES": "O=C(OCCN(C)C)C1=CC=C(N)C=C1",
        "Molecular Formula": "C<sub>11</sub>H<sub>16</sub>N<sub>2</sub>O<sub>2</sub>",
        "Molecular Mass": "208.26",
        "Melting Point": "121 °C"
    }
}