{
    "cas_no": "13061-28-4",
    "key_name": "1-(2,4,5-Trichlorophenyl)ethanone",
    "cn_name": null,
    "alternate_name": "Ethanone, 1-(2,4,5-trichlorophenyl)-;Acetophenone, 2′,4′,5′-trichloro-;1-(2,4,5-Trichlorophenyl)ethanone;2′,4′,5′-Trichloroacetophenone;1-(2,4,5-Trichlorophenyl)ethan-1-one",
    "duplicated_cas_no": "",
    "SMILES": "C(C)(=O)C1=C(Cl)C=C(Cl)C(Cl)=C1",
    "meta_data": {
        "InChI": "InChI=1S/C8H5Cl3O/c1-4(12)5-2-7(10)8(11)3-6(5)9/h2-3H,1H3",
        "InChIKey": null,
        "Canonical SMILES": "O=C(C1=CC(Cl)=C(Cl)C=C1Cl)C",
        "Molecular Formula": "C<sub>8</sub>H<sub>5</sub>Cl<sub>3</sub>O",
        "Molecular Mass": "223.48",
        "Boiling Point": "128-132 °C @ Press: 1.5 Torr",
        "Melting Point": "47 °C"
    }
}