{
    "cas_no": "393-52-2",
    "key_name": "2-Fluorobenzoyl chloride",
    "cn_name": "邻氟苯甲酰氯;2-氟苯甲酰氯;",
    "alternate_name": "Benzoyl chloride, 2-fluoro-;Benzoyl chloride, <em>o</em>-fluoro-;2-Fluorobenzoyl chloride;<em>o</em>-Fluorobenzoyl chloride;NSC 88304;2-Fluorobenzenecarbonyl chloride",
    "duplicated_cas_no": "",
    "SMILES": "C(Cl)(=O)C1=C(F)C=CC=C1",
    "meta_data": {
        "InChI": "InChI=1S/C7H4ClFO/c8-7(10)5-3-1-2-4-6(5)9/h1-4H",
        "InChIKey": null,
        "Canonical SMILES": "O=C(Cl)C=1C=CC=CC1F",
        "Molecular Formula": "C<sub>7</sub>H<sub>4</sub>ClFO",
        "Molecular Mass": "158.56",
        "Boiling Point": "204 °C",
        "Melting Point": "4 °C"
    }
}