{
    "cas_no": "69048-98-2",
    "key_name": "1-Ethyl-1,2-dihydro-5<em>H</em>-tetrazol-5-one",
    "cn_name": null,
    "alternate_name": "5<em>H</em>-Tetrazol-5-one, 1-ethyl-1,2-dihydro-;1<em>H</em>-Tetrazol-5-ol, 1-ethyl-;1-Ethyl-1,2-dihydro-5<em>H</em>-tetrazol-5-one;1-Ethyl-1<em>H</em>-tetrazol-5(4<em>H</em>)-one;1-Ethyl-1<em>H</em>-1,2,3,4-tetrazol-5-ol;1-Ethyl-4,5-dihydro-1<em>H</em>-1,2,3,4-tetrazol-5-one;1-Ethyl-1,4-dihydro-5<em>H</em>-tetrazol-5-one;1-Ethyl-2,5-dihydro-1<em>H</em>-1,2,3,4-tetrazol-5-one;1-Ethyl-2<em>H</em>-tetrazol-5-one",
    "duplicated_cas_no": "",
    "SMILES": "C(C)N1C(=O)NN=N1",
    "meta_data": {
        "InChI": "InChI=1S/C3H6N4O/c1-2-7-3(8)4-5-6-7/h2H2,1H3,(H,4,6,8)",
        "InChIKey": null,
        "Canonical SMILES": "O=C1NN=NN1CC",
        "Molecular Formula": "C<sub>3</sub>H<sub>6</sub>N<sub>4</sub>O",
        "Molecular Mass": "114.11",
        "Boiling Point": "133 °C @ Press: 1 Torr",
        "Melting Point": "79.7 °C"
    }
}