{
    "cas_no": "115404-57-4",
    "key_name": "Niloticin",
    "cn_name": null,
    "alternate_name": "Lanost-7-en-3-one, 24,25-epoxy-23-hydroxy-, (13α,14β,17α,20<em>S</em>,23<em>R</em>,24<em>S</em>)-;(13α,14β,17α,20<em>S</em>,23<em>R</em>,24<em>S</em>)-24,25-Epoxy-23-hydroxylanost-7-en-3-one;Niloticin",
    "duplicated_cas_no": "",
    "SMILES": "C[C@@]12C=3[C@@]([C@]4(C)[C@@](CC3)(C(C)(C)C(=O)CC4)[H])(CC[C@@]1(C)[C@]([C@H](C[C@@H](O)[C@]5([C@@](C)(C)O5)[H])C)(CC2)[H])[H]",
    "meta_data": {
        "InChI": "InChI=1S/C30H48O3/c1-18(17-22(31)25-27(4,5)33-25)19-11-15-30(8)21-9-10-23-26(2,3)24(32)13-14-28(23,6)20(21)12-16-29(19,30)7/h9,18-20,22-23,25,31H,10-17H2,1-8H3/t18-,19-,20-,22+,23-,25-,28+,29-,30+/m0/s1",
        "InChIKey": null,
        "Canonical SMILES": "O=C1CCC2(C)C3C(=CCC2C1(C)C)C4(C)CCC(C(C)CC(O)C5OC5(C)C)C4(C)CC3",
        "Molecular Formula": "C<sub>30</sub>H<sub>48</sub>O<sub>3</sub>",
        "Molecular Mass": "456.70",
        "Melting Point": "149-151 °C"
    }
}