{
    "cas_no": "61350-65-0",
    "key_name": "(2<em>R</em>)-2-Pyrrolidineacetic acid",
    "cn_name": null,
    "alternate_name": "2-Pyrrolidineacetic acid, (2<em>R</em>)-;2-Pyrrolidineacetic acid, (<em>R</em>)-;(2<em>R</em>)-2-Pyrrolidineacetic acid;(<em>R</em>)-2-Pyrrolidineacetic acid;(r)-2-(Pyrrolidin-2-yl)acetic acid;2-[(2R)-Pyrrolidin-2-yl]acetic acid",
    "duplicated_cas_no": "",
    "SMILES": "C(C(O)=O)[C@H]1CCCN1",
    "meta_data": {
        "InChI": "InChI=1S/C6H11NO2/c8-6(9)4-5-2-1-3-7-5/h5,7H,1-4H2,(H,8,9)/t5-/m1/s1",
        "InChIKey": null,
        "Canonical SMILES": "O=C(O)CC1NCCC1",
        "Molecular Formula": "C<sub>6</sub>H<sub>11</sub>NO<sub>2</sub>",
        "Molecular Mass": "129.16",
        "Melting Point": "181-183 °C"
    }
}