{
    "cas_no": "3382-18-1",
    "key_name": "3,4-Dihydro-6,7-dimethoxyisoquinoline",
    "cn_name": "6,7-二甲氧基-3,4-二氢异喹啉;",
    "alternate_name": "Isoquinoline, 3,4-dihydro-6,7-dimethoxy-;3,4-Dihydro-6,7-dimethoxyisoquinoline;6,7-Dimethoxy-3,4-dihydroisoquinoline;3,4-Dihydrobackebergine;Dehydroheliamine;NSC 627588",
    "duplicated_cas_no": "",
    "SMILES": "O(C)C=1C=C2C(=CC1OC)C=NCC2",
    "meta_data": {
        "InChI": "InChI=1S/C11H13NO2/c1-13-10-5-8-3-4-12-7-9(8)6-11(10)14-2/h5-7H,3-4H2,1-2H3",
        "InChIKey": null,
        "Canonical SMILES": "N1=CC=2C=C(OC)C(OC)=CC2CC1",
        "Molecular Formula": "C<sub>11</sub>H<sub>13</sub>NO<sub>2</sub>",
        "Molecular Mass": "191.23",
        "Boiling Point": "205-208 °C"
    }
}