{
    "cas_no": "111-77-3",
    "key_name": "Diethylene glycol monomethyl ether",
    "cn_name": "二乙二醇单甲醚;",
    "alternate_name": "Ethanol, 2-(2-methoxyethoxy)-;2-(2-Methoxyethoxy)ethanol;Diethylene glycol methyl ether;Diethylene glycol monomethyl ether;Diglycol monomethyl ether;Dowanol DM;β-Methoxy-β′-hydroxydiethyl ether;Methyl Carbitol;Poly-Solv DM;Methyl Dioxitol;Methyl digol;3,6-Dioxa-1-heptanol;Ektasolve DM;Hicotol CAR;Ethanol, 2,2′-oxybis-, monomethyl ether;2-(2′-Methoxyethoxy)ethanol;Methyldiethylene glycol;2-(2-Methoxyethoxy)ethan-1-ol;NSC 2261;MDG;Bikanol M 2;Hisolve DM;2-Hydroxyethyl 2-methoxyethyl ether;M 0537;Methoxydiethylene glycol;Nycosol 13;Transcultol P;ZK 211109-01",
    "duplicated_cas_no": "1552323-12-2",
    "SMILES": "C(OCCO)COC",
    "meta_data": {
        "InChI": "InChI=1S/C5H12O3/c1-7-4-5-8-3-2-6/h6H,2-5H2,1H3",
        "InChIKey": null,
        "Canonical SMILES": "OCCOCCOC",
        "Molecular Formula": "C<sub>5</sub>H<sub>12</sub>O<sub>3</sub>",
        "Molecular Mass": "120.15",
        "Boiling Point": "193 °C",
        "Melting Point": "&lt;-84 °C",
        "Density": "1.035 g/cm³ @ Temp: 20 °C"
    }
}