{
    "cas_no": "4792-83-0",
    "key_name": "Azoxyphenetole",
    "cn_name": null,
    "alternate_name": "Diazene, bis(4-ethoxyphenyl)-, 1-oxide;Azoxybenzene, 4,4′-diethoxy-;Phenetole, 4,4′-azoxydi-;<em>p</em>,<em>p</em>′-Azoxyphenetole;4,4′-Azoxyphenetole;4,4′-Bis(ethoxy)azoxybenzene;4,4′-Diethoxyazoxybenzene;4,4′-Azoxydiphenetole;<em>p</em>,<em>p</em>′-Diethyloxyazoxybenzene;Azoxyphenetole;<em>p</em>,<em>p</em>′-Diethoxyazoxybenzene;PAP;ADP;NSC 142006",
    "duplicated_cas_no": "",
    "SMILES": "N(=N(=O)C1=CC=C(OCC)C=C1)C2=CC=C(OCC)C=C2",
    "meta_data": {
        "InChI": "InChI=1S/C16H18N2O3/c1-3-20-15-9-5-13(6-10-15)17-18(19)14-7-11-16(12-8-14)21-4-2/h5-12H,3-4H2,1-2H3",
        "InChIKey": null,
        "Canonical SMILES": "O=N(=NC1=CC=C(OCC)C=C1)C2=CC=C(OCC)C=C2",
        "Molecular Formula": "C<sub>16</sub>H<sub>18</sub>N<sub>2</sub>O<sub>3</sub>",
        "Molecular Mass": "286.33",
        "Melting Point": "134.7 °C"
    }
}