{
    "cas_no": "259809-49-9",
    "key_name": "6-(1,1-Dimethylethyl) 7,8-dihydro-1,6-naphthyridine-2,6(5<em>H</em>)-dicarboxylate",
    "cn_name": null,
    "alternate_name": "1,6-Naphthyridine-2,6(5<em>H</em>)-dicarboxylic acid, 7,8-dihydro-, 6-(1,1-dimethylethyl) ester;6-(1,1-Dimethylethyl) 7,8-dihydro-1,6-naphthyridine-2,6(5<em>H</em>)-dicarboxylate;6-(<em>tert</em>-Butoxycarbonyl)-5,6,7,8-tetrahydro-1,6-naphthyridine-2-carboxylic acid",
    "duplicated_cas_no": "",
    "SMILES": "C(OC(C)(C)C)(=O)N1CC=2C(=NC(C(O)=O)=CC2)CC1",
    "meta_data": {
        "InChI": "InChI=1S/C14H18N2O4/c1-14(2,3)20-13(19)16-7-6-10-9(8-16)4-5-11(15-10)12(17)18/h4-5H,6-8H2,1-3H3,(H,17,18)",
        "InChIKey": null,
        "Canonical SMILES": "O=C(O)C=1N=C2C(=CC1)CN(C(=O)OC(C)(C)C)CC2",
        "Molecular Formula": "C<sub>14</sub>H<sub>18</sub>N<sub>2</sub>O<sub>4</sub>",
        "Molecular Mass": "278.30",
        "Melting Point": "181-185 °C"
    }
}