{
    "cas_no": "538-44-3",
    "key_name": "4,4-Dimethyl-1-phenyl-1-penten-3-one",
    "cn_name": null,
    "alternate_name": "1-Penten-3-one, 4,4-dimethyl-1-phenyl-;4,4-Dimethyl-1-phenyl-1-penten-3-one;Benzalpinacolone;Benzylidenepinacolone;<em>tert</em>-Butyl styryl ketone;2,2-Dimethyl-5-phenyl-4-penten-3-one;1,1-Dimethylethyl styryl ketone;NSC 15299",
    "duplicated_cas_no": "",
    "SMILES": "C(=CC(C(C)(C)C)=O)C1=CC=CC=C1",
    "meta_data": {
        "InChI": "InChI=1S/C13H16O/c1-13(2,3)12(14)10-9-11-7-5-4-6-8-11/h4-10H,1-3H3",
        "InChIKey": null,
        "Canonical SMILES": "O=C(C=CC=1C=CC=CC1)C(C)(C)C",
        "Molecular Formula": "C<sub>13</sub>H<sub>16</sub>O",
        "Molecular Mass": "188.27",
        "Boiling Point": "152 °C @ Press: 17 Torr",
        "Melting Point": "43 °C"
    }
}