{
    "cas_no": "157115-85-0",
    "key_name": "1-(2-Phenylacetyl)-<span class=\"text-smallcaps\">L</span>-prolylglycine ethy ester",
    "cn_name": null,
    "alternate_name": "Glycine, 1-(2-phenylacetyl)-<span class=\"text-smallcaps\">L</span>-prolyl-, ethyl ester;Glycine, <em>N</em>-[1-(phenylacetyl)-<span class=\"text-smallcaps\">L</span>-prolyl]-, ethyl ester;Glycine, 1-(phenylacetyl)-<span class=\"text-smallcaps\">L</span>-prolyl-, ethyl ester;1-(2-Phenylacetyl)-<span class=\"text-smallcaps\">L</span>-prolylglycine ethy ester;GVS 111;Noopept;SGS 111;Omberacetam;(<em>S</em>)-Ethyl 2-(1-(2-phenylacetyl)pyrrolidine-2-carboxamido)acetate",
    "duplicated_cas_no": "",
    "SMILES": "C(CC1=CC=CC=C1)(=O)N2[C@H](C(NCC(OCC)=O)=O)CCC2",
    "meta_data": {
        "InChI": "InChI=1S/C17H22N2O4/c1-2-23-16(21)12-18-17(22)14-9-6-10-19(14)15(20)11-13-7-4-3-5-8-13/h3-5,7-8,14H,2,6,9-12H2,1H3,(H,18,22)/t14-/m0/s1",
        "InChIKey": null,
        "Canonical SMILES": "O=C(OCC)CNC(=O)C1N(C(=O)CC=2C=CC=CC2)CCC1",
        "Molecular Formula": "C<sub>17</sub>H<sub>22</sub>N<sub>2</sub>O<sub>4</sub>",
        "Molecular Mass": "318.37",
        "Melting Point": "96-97 °C"
    }
}