{
    "cas_no": "3859-41-4",
    "key_name": "1,3-Cyclopentanedione",
    "cn_name": "1,3-环戊二酮;",
    "alternate_name": "1,3-Cyclopentanedione;1,3-Cyclopentadione;NSC 364015",
    "duplicated_cas_no": "",
    "SMILES": "O=C1CC(=O)CC1",
    "meta_data": {
        "InChI": "InChI=1S/C5H6O2/c6-4-1-2-5(7)3-4/h1-3H2",
        "InChIKey": null,
        "Canonical SMILES": "O=C1CC(=O)CC1",
        "Molecular Formula": "C<sub>5</sub>H<sub>6</sub>O<sub>2</sub>",
        "Molecular Mass": "98.10",
        "Melting Point": "151.5-152.5 °C"
    }
}