{
    "cas_no": "28924-21-2",
    "key_name": "1-[3,5-Bis(phenylmethoxy)phenyl]ethanone",
    "cn_name": "3,5-二苄氧基苯乙酮;",
    "alternate_name": "Ethanone, 1-[3,5-bis(phenylmethoxy)phenyl]-;Acetophenone, 3′,5′-bis(benzyloxy)-;1-[3,5-Bis(phenylmethoxy)phenyl]ethanone;3′,5′-Bis(benzyloxy)acetophenone;3′,5′-Dibenzyloxyacetophenone;1-[3,5-Bis(benzyloxy)phenyl]ethanone",
    "duplicated_cas_no": "",
    "SMILES": "O(CC1=CC=CC=C1)C2=CC(OCC3=CC=CC=C3)=CC(C(C)=O)=C2",
    "meta_data": {
        "InChI": "InChI=1S/C22H20O3/c1-17(23)20-12-21(24-15-18-8-4-2-5-9-18)14-22(13-20)25-16-19-10-6-3-7-11-19/h2-14H,15-16H2,1H3",
        "InChIKey": null,
        "Canonical SMILES": "O=C(C=1C=C(OCC=2C=CC=CC2)C=C(OCC=3C=CC=CC3)C1)C",
        "Molecular Formula": "C<sub>22</sub>H<sub>20</sub>O<sub>3</sub>",
        "Molecular Mass": "332.39",
        "Melting Point": "62 °C"
    }
}