{
    "cas_no": "1833-31-4",
    "key_name": "[(Chlorodimethylsilyl)methyl]benzene",
    "cn_name": "苄基二甲基氯硅烷;",
    "alternate_name": "Benzene, [(chlorodimethylsilyl)methyl]-;Silane, benzylchlorodimethyl-;Silane, chlorodimethyl(phenylmethyl)-;[(Chlorodimethylsilyl)methyl]benzene;Benzyldimethylchlorosilane;Benzylchlorodimethylsilane;Benzyldimethylsilyl chloride;Phenylmethylchlorodimethylsilane",
    "duplicated_cas_no": "178664-50-1;1690317-67-9",
    "SMILES": "C([Si](C)(C)Cl)C1=CC=CC=C1",
    "meta_data": {
        "InChI": "InChI=1S/C9H13ClSi/c1-11(2,10)8-9-6-4-3-5-7-9/h3-7H,8H2,1-2H3",
        "InChIKey": null,
        "Canonical SMILES": "Cl[Si](C)(C)CC=1C=CC=CC1",
        "Molecular Formula": "C<sub>9</sub>H<sub>13</sub>ClSi",
        "Molecular Mass": "184.74",
        "Boiling Point": "75-76 °C @ Press: 15 Torr",
        "Density": "0.949 g/cm³"
    }
}