{
    "cas_no": "177406-68-7",
    "key_name": "Benthiavalicarb isopropyl",
    "cn_name": "苯噻菌胺;",
    "alternate_name": "Carbamic acid, <em>N</em>-[(1<em>S</em>)-1-[[[(1<em>R</em>)-1-(6-fluoro-2-benzothiazolyl)ethyl]amino]carbonyl]-2-methylpropyl]-, 1-methylethyl ester;Carbamic acid, [1-[[[1-(6-fluoro-2-benzothiazolyl)ethyl]amino]carbonyl]-2-methylpropyl]-, 1-methylethyl ester, [<em>S</em>-(<em>R</em>*,<em>S</em>*)]-;Carbamic acid, [(1<em>S</em>)-1-[[[(1<em>R</em>)-1-(6-fluoro-2-benzothiazolyl)ethyl]amino]carbonyl]-2-methylpropyl]-, 1-methylethyl ester;1-Methylethyl [(1<em>S</em>)-1-[[[(1<em>R</em>)-1-(6-fluoro-2-benzothiazolyl)ethyl]amino]carbonyl]-2-methylpropyl]carbamate;Benthiavalicarb isopropyl;Bensaijunan",
    "duplicated_cas_no": "365564-65-4",
    "SMILES": "[C@@H](NC([C@@H](NC(OC(C)C)=O)C(C)C)=O)(C)C=1SC=2C(N1)=CC=C(F)C2",
    "meta_data": {
        "InChI": "InChI=1S/C18H24FN3O3S/c1-9(2)15(22-18(24)25-10(3)4)16(23)20-11(5)17-21-13-7-6-12(19)8-14(13)26-17/h6-11,15H,1-5H3,(H,20,23)(H,22,24)/t11-,15+/m1/s1",
        "InChIKey": null,
        "Canonical SMILES": "O=C(OC(C)C)NC(C(=O)NC(C1=NC=2C=CC(F)=CC2S1)C)C(C)C",
        "Molecular Formula": "C<sub>18</sub>H<sub>24</sub>FN<sub>3</sub>O<sub>3</sub>S",
        "Molecular Mass": "381.46",
        "Melting Point": "152.0 °C"
    }
}