{
    "cas_no": "72490-01-8",
    "key_name": "Fenoxycarb",
    "cn_name": "苯氧威;双氧威;N-[2-(4-苯氧基苯氧基)乙基]氨基甲酸乙酯;",
    "alternate_name": "Carbamic acid, <em>N</em>-[2-(4-phenoxyphenoxy)ethyl]-, ethyl ester;Carbamic acid, [2-(4-phenoxyphenoxy)ethyl]-, ethyl ester;Ro 13-5223;Ethyl [2-(4-phenoxyphenoxy)ethyl]carbamate;Fenoxycarb;Insegar;ABG 6215;Logic;Eclipse;Eclipse (growth regulator);Phenoxycarb;Logic (growth regulator);Et 2-(p-phenoxyphenoxy)ethylcarbamate",
    "duplicated_cas_no": "79127-80-3",
    "SMILES": "O(C1=CC=C(OCCNC(OCC)=O)C=C1)C2=CC=CC=C2",
    "meta_data": {
        "InChI": "InChI=1S/C17H19NO4/c1-2-20-17(19)18-12-13-21-14-8-10-16(11-9-14)22-15-6-4-3-5-7-15/h3-11H,2,12-13H2,1H3,(H,18,19)",
        "InChIKey": null,
        "Canonical SMILES": "O=C(OCC)NCCOC1=CC=C(OC=2C=CC=CC2)C=C1",
        "Molecular Formula": "C<sub>17</sub>H<sub>19</sub>NO<sub>4</sub>",
        "Molecular Mass": "301.34",
        "Melting Point": "53-54 °C"
    }
}