{
    "cas_no": "503-66-2",
    "key_name": "3-Hydroxypropionic acid",
    "cn_name": "3-羟基丙酸;",
    "alternate_name": "Propanoic acid, 3-hydroxy-;Hydracrylic acid;3-Hydroxypropanoic acid;β-Hydroxypropionic acid;3-Hydroxypropionic acid;β-Lactic acid;Ethylenelactic acid;2-Deoxyglyceric acid",
    "duplicated_cas_no": "1111092-31-9",
    "SMILES": "C(C(O)=O)CO",
    "meta_data": {
        "InChI": "InChI=1S/C3H6O3/c4-2-1-3(5)6/h4H,1-2H2,(H,5,6)",
        "InChIKey": null,
        "Canonical SMILES": "O=C(O)CCO",
        "Molecular Formula": "C<sub>3</sub>H<sub>6</sub>O<sub>3</sub>",
        "Molecular Mass": "90.08",
        "Boiling Point": "179-180.5 °C @ Press: 765 Torr",
        "Melting Point": "&lt;25 °C",
        "Density": "1.1989 g/cm³"
    }
}