{
    "cas_no": "3674-13-3",
    "key_name": "Ethyl 2,3-dibromopropanoate",
    "cn_name": "2,3-二溴丙酸乙酯;",
    "alternate_name": "Propanoic acid, 2,3-dibromo-, ethyl ester;Propionic acid, 2,3-dibromo-, ethyl ester;Ethyl 2,3-dibromopropanoate;Ethyl 2,3-dibromopropionate;Ethyl α,β-dibromopropionate;2,3-Dibromopropanoic acid ethyl ester;NSC 60552;2,3-Dibromopropionic acid ethyl ester;2,3-Dibromopropionic ethyl ester",
    "duplicated_cas_no": "131699-99-5",
    "SMILES": "C(C(CBr)Br)(OCC)=O",
    "meta_data": {
        "InChI": "InChI=1S/C5H8Br2O2/c1-2-9-5(8)4(7)3-6/h4H,2-3H2,1H3",
        "InChIKey": null,
        "Canonical SMILES": "O=C(OCC)C(Br)CBr",
        "Molecular Formula": "C<sub>5</sub>H<sub>8</sub>Br<sub>2</sub>O<sub>2</sub>",
        "Molecular Mass": "259.92",
        "Boiling Point": "214.5 °C",
        "Density": "1.7882 g/cm³ @ Temp: 0 °C"
    }
}