{
    "cas_no": "606-21-3",
    "key_name": "2-Chloro-1,3-dinitrobenzene",
    "cn_name": "2,6-二硝基氯苯;",
    "alternate_name": "Benzene, 2-chloro-1,3-dinitro-;2-Chloro-1,3-dinitrobenzene;1-Chloro-2,6-dinitrobenzene;2,6-Dinitrochlorobenzene;1,3-Dinitro-2-chlorobenzene;2,6-Dinitro-1-chlorobenzene;NSC 105590;NSC 21276",
    "duplicated_cas_no": "",
    "SMILES": "N(=O)(=O)C1=C(Cl)C(N(=O)=O)=CC=C1",
    "meta_data": {
        "InChI": "InChI=1S/C6H3ClN2O4/c7-6-4(8(10)11)2-1-3-5(6)9(12)13/h1-3H",
        "InChIKey": null,
        "Canonical SMILES": "O=N(=O)C1=CC=CC(=C1Cl)N(=O)=O",
        "Molecular Formula": "C<sub>6</sub>H<sub>3</sub>ClN<sub>2</sub>O<sub>4</sub>",
        "Molecular Mass": "202.55",
        "Boiling Point": "315 °C",
        "Melting Point": "86-87 °C",
        "Density": "1.6867 g/cm³ @ Temp: 16.5 °C"
    }
}