{
    "cas_no": "399-25-7",
    "key_name": "1-Fluoro-2-(2-nitroethenyl)benzene",
    "cn_name": "1-(2-氟苯基)-2-硝基乙烯;2-氟-beta-硝基苯乙烯;",
    "alternate_name": "Benzene, 1-fluoro-2-(2-nitroethenyl)-;Styrene, <em>o</em>-fluoro-β-nitro-;1-Fluoro-2-(2-nitroethenyl)benzene;<em>o</em>-Fluoro-β-nitrostyrene;NSC 170713;1-(2-Fluorophenyl)-2-nitroethene;1-Fluoro-2-(2-nitrovinyl)benzene",
    "duplicated_cas_no": "",
    "SMILES": "C(=CN(=O)=O)C1=C(F)C=CC=C1",
    "meta_data": {
        "InChI": "InChI=1S/C8H6FNO2/c9-8-4-2-1-3-7(8)5-6-10(11)12/h1-6H",
        "InChIKey": null,
        "Canonical SMILES": "O=N(=O)C=CC=1C=CC=CC1F",
        "Molecular Formula": "C<sub>8</sub>H<sub>6</sub>FNO<sub>2</sub>",
        "Molecular Mass": "167.14",
        "Melting Point": "56.5-57.5 °C"
    }
}