{
    "cas_no": "35790-95-5",
    "key_name": "β-Hederin",
    "cn_name": null,
    "alternate_name": "Olean-12-en-28-oic acid, 3-[[2-<em>O</em>-(6-deoxy-α-<span class=\"text-smallcaps\">L</smallcap>-mannopyranosyl)-α-<smallcap>L</span>-arabinopyranosyl]oxy]-, (3β)-;(3β)-3-[[2-<em>O</em>-(6-Deoxy-α-<span class=\"text-smallcaps\">L</smallcap>-mannopyranosyl)-α-<smallcap>L</span>-arabinopyranosyl]oxy]olean-12-en-28-oic acid;β-Hederin;Eleutheroside K;Prosapogenin CP<sub>2</sub>;Tauroside C;Glycoside L-C;Oleanoic acid 3-<em>O</em>-<span class=\"text-smallcaps\">L</smallcap>-rhamnopyranosyl(1→2)-α-<smallcap>L</span>-arabinopyranoside;Eleatheroside K;3β-[(<em>O</em>-α-<span class=\"text-smallcaps\">L</smallcap>-Rhamnopyranosyl-(1→2)-α-<smallcap>L</span>-arabinopyranosyl)oxy]olean-12-en-28-oic acid;Oleanolic acid 3-<em>O</em>-α-<span class=\"text-smallcaps\">L</smallcap>-rhamnopyranosyl-(1→2)-α-<smallcap>L</span>-arabinopyranoside;Pulchinenoside B11",
    "duplicated_cas_no": "29613-08-9",
    "SMILES": "C[C@]12[C@@]3(C)C([C@]4([C@@](C(O)=O)(CC3)CCC(C)(C)C4)[H])=CC[C@@]1([C@]5(C)[C@@](CC2)(C(C)(C)[C@@H](O[C@H]6[C@H](O[C@H]7[C@H](O)[C@H](O)[C@@H](O)[C@H](C)O7)[C@@H](O)[C@@H](O)CO6)CC5)[H])[H]",
    "meta_data": {
        "InChI": "InChI=1S/C41H66O11/c1-21-28(43)30(45)31(46)33(50-21)52-32-29(44)24(42)20-49-34(32)51-27-12-13-38(6)25(37(27,4)5)11-14-40(8)26(38)10-9-22-23-19-36(2,3)15-17-41(23,35(47)48)18-16-39(22,40)7/h9,21,23-34,42-46H,10-20H2,1-8H3,(H,47,48)/t21-,23-,24-,25-,26+,27-,28-,29-,30+,31+,32+,33-,34-,38-,39+,40+,41-/m0/s1",
        "InChIKey": null,
        "Canonical SMILES": "O=C(O)C12CCC(C)(C)CC2C3=CCC4C5(C)CCC(OC6OCC(O)C(O)C6OC7OC(C)C(O)C(O)C7O)C(C)(C)C5CCC4(C)C3(C)CC1",
        "Molecular Formula": "C<sub>41</sub>H<sub>66</sub>O<sub>11</sub>",
        "Molecular Mass": "734.96",
        "Melting Point": "221-223 °C"
    }
}