{
    "cas_no": "76060-35-0",
    "key_name": "[6]-Dehydrogingerdione",
    "cn_name": null,
    "alternate_name": "1-Decene-3,5-dione, 1-(4-hydroxy-3-methoxyphenyl)-, (1<em>E</em>)-;1-Decene-3,5-dione, 1-(4-hydroxy-3-methoxyphenyl)-, (<em>E</em>)-;(1<em>E</em>)-1-(4-Hydroxy-3-methoxyphenyl)-1-decene-3,5-dione;[6]-Dehydrogingerdione",
    "duplicated_cas_no": "121532-25-0",
    "SMILES": "C(=C/C(CC(CCCCC)=O)=O)\\C1=CC(OC)=C(O)C=C1",
    "meta_data": {
        "InChI": "InChI=1S/C17H22O4/c1-3-4-5-6-14(18)12-15(19)9-7-13-8-10-16(20)17(11-13)21-2/h7-11,20H,3-6,12H2,1-2H3/b9-7+",
        "InChIKey": null,
        "Canonical SMILES": "O=C(C=CC1=CC=C(O)C(OC)=C1)CC(=O)CCCCC",
        "Molecular Formula": "C<sub>17</sub>H<sub>22</sub>O<sub>4</sub>",
        "Molecular Mass": "290.35",
        "Melting Point": "84 °C"
    }
}