{
    "cas_no": "116-71-2",
    "key_name": "Anthra[9,1,2-<em>cde</em>]benzo[<em>rst</em>]pentaphene-5,10-dione",
    "cn_name": "还原深蓝BO;士林深蓝BO;紫蒽酮;还原深蓝BO;还原深蓝BOA;",
    "alternate_name": "Anthra[9,1,2-<em>cde</em>]benzo[<em>rst</em>]pentaphene-5,10-dione;Violanthrone;C.I. 59800;Ahcovat Dark Blue BO;Amanthrene Dark Blue BO;Amanthrene Supra Dark Blue BO;Anthravat Dark Blue BO;Belanthrene Dark Blue BO;Benzadone Dark Blue BOA;Benzadone Dark Blue BOR;Benzadone Dark Blue BORI;Benzadone Navy Blue R;Bianthrone A;Calcoloid Dark Blue B 2R;Calcoloid Dark Blue BO;Calcoloid Dark Blue BOD;Caledon Dark Blue BM;Caledon Printing Dark Blue BM;Carbanthrene Dark Blue DR;Carbanthrene Printing Dark Blue DR;Cibanone Dark Blue BO;Cibanone Dark Blue FBOA;Cibanone Dark Blue FMBA;Cibanone Dark Blue MBA;Dibenzanthrone;Endurol Dark Blue BOR;Fenanthren Dark Blue BO;Hydroform Deep Blue BOA;Indanthren Dark Blue BOA;Indanthrene Dark Blue BO;Irgalite Blue 2R;Leucosol Dark Blue BR;Mikethrene Dark Blue BO;Mikethrene Dark Blue BOA;Navinon Dark Blue BO;Nihonthrene Dark Blue BO;Nihonthrene Dark Blue BOA;Nyanthrene Navy Blue BR;Palanthrene Dark Blue BOA;Paradone Dark Blue;Paradone Dark Blue 58321;Pernithrene Dark Blue BOA;Ponsol Dark Blue BR;Ponsol Dark Blue BRD;Romantrene Dark Blue FBO;Sandothrene Dark Blue NBM;Sandothrene Dark Blue NBO;Sandothrene Dark Blue NBOA;Sandothrene Dark Blue NMBA;Solanthrene Dark Blue B;Solanthrene Dark Blue BA;Tinon Dark Blue BO;Tinon Dark Blue BOA;Tinon Dark Blue BOR;Tinon Dark Blue MB;Tinon Dark Blue MBA;Tyrian Dark Blue I-BOA;C.I. Vat Blue 20;Violanthrone A;5,10-Violanthrenedione;Dinaphtho[1,2,3-<em>cd</em>:3′,2′,1′-<em>lm</em>]perylene-5,10-dione;Mikethrene Dark Blue B;Sandothrene Dark Blue BOA;Vat Blue 20;Solanthrene Dark Blue F-BA;Vat Dark Blue O;C.I. Pigment Blue 65;Pigment Blue 65;Farbanthren Dark Blue BOA;Solanthrene Dark Blue BOA;Ostanthren Dark Blue BOA;Cibanone Dark Blue BOA;Violanthrene N;Caledon Navy BM;Indanthren Dark Blue DB;Indanthrene Dark Blue DB;Vat Blue BO;NSC 2212;Navinon Blue BO;Cibanone Navy Blue 01",
    "duplicated_cas_no": "475-50-3;57455-86-4",
    "SMILES": "O=C1C=2C3=C4C(C=5C=6C(C4=CC2)=CC=C7C6C(=CC5)C=8C(C7=O)=CC=CC8)=CC=C3C=9C1=CC=CC9",
    "meta_data": {
        "InChI": "InChI=1S/C34H16O2/c35-33-25-7-3-1-5-17(25)19-9-11-21-22-12-10-20-18-6-2-4-8-26(18)34(36)28-16-14-24(30(22)32(20)28)23-13-15-27(33)31(19)29(21)23/h1-16H",
        "InChIKey": null,
        "Canonical SMILES": "O=C1C=2C=CC=CC2C=3C=CC=4C5=CC=C6C=7C=CC=CC7C(=O)C=8C=CC(C9=CC=C1C3C94)=C5C86",
        "Molecular Formula": "C<sub>34</sub>H<sub>16</sub>O<sub>2</sub>",
        "Molecular Mass": "456.49",
        "Melting Point": "338-339 °C"
    }
}