{
    "cas_no": "22892-95-1",
    "key_name": "4-Chloro-3-(chlorosulfonyl)-5-nitrobenzoic acid",
    "cn_name": null,
    "alternate_name": "Benzoic acid, 4-chloro-3-(chlorosulfonyl)-5-nitro-;4-Chloro-3-(chlorosulfonyl)-5-nitrobenzoic acid",
    "duplicated_cas_no": "95649-52-8",
    "SMILES": "S(Cl)(=O)(=O)C1=C(Cl)C(N(=O)=O)=CC(C(O)=O)=C1",
    "meta_data": {
        "InChI": "InChI=1S/C7H3Cl2NO6S/c8-6-4(10(13)14)1-3(7(11)12)2-5(6)17(9,15)16/h1-2H,(H,11,12)",
        "InChIKey": null,
        "Canonical SMILES": "O=C(O)C=1C=C(C(Cl)=C(C1)S(=O)(=O)Cl)N(=O)=O",
        "Molecular Formula": "C<sub>7</sub>H<sub>3</sub>Cl<sub>2</sub>NO<sub>6</sub>S",
        "Molecular Mass": "300.07",
        "Melting Point": "193-194 °C (decomp)"
    }
}