{
    "cas_no": "5619-05-6",
    "key_name": "Valine, methyl ester, hydrochloride (1:1)",
    "cn_name": "DL-缬氨酸甲酯盐酸盐;L-缬氨酸甲酯盐酸盐;",
    "alternate_name": "Valine, methyl ester, hydrochloride (1:1);Valine, methyl ester, hydrochloride, <span class=\"text-smallcaps\">DL</span>-;<span class=\"text-smallcaps\">DL</span>-Valine, methyl ester, hydrochloride;Valine, methyl ester, hydrochloride;Methyl <span class=\"text-smallcaps\">DL</span>-valinate hydrochloride;NSC 32111;Methyl 2-amino-3-methylbutanoate hydrochloride",
    "duplicated_cas_no": "",
    "SMILES": "C(C(OC)=O)(C(C)C)N.Cl",
    "meta_data": {
        "InChI": "InChI=1S/C6H13NO2.ClH/c1-4(2)5(7)6(8)9-3;/h4-5H,7H2,1-3H3;1H",
        "InChIKey": null,
        "Canonical SMILES": "Cl.O=C(OC)C(N)C(C)C",
        "Molecular Formula": "C<sub>6</sub>H<sub>13</sub>NO<sub>2</sub>.ClH",
        "Molecular Mass": "",
        "Melting Point": "120-122 °C"
    }
}