{
    "cas_no": "7341-17-5",
    "key_name": "2-Ethyl-1-hexanethiol",
    "cn_name": "2-乙基己基硫醇;异辛硫醇;",
    "alternate_name": "1-Hexanethiol, 2-ethyl-;2-Ethyl-1-hexanethiol;2-Ethylhexylmercaptan;2-Ethylhexanethiol",
    "duplicated_cas_no": "110502-32-4",
    "SMILES": "C(CCCC)(CC)CS",
    "meta_data": {
        "InChI": "InChI=1S/C8H18S/c1-3-5-6-8(4-2)7-9/h8-9H,3-7H2,1-2H3",
        "InChIKey": null,
        "Canonical SMILES": "SCC(CC)CCCC",
        "Molecular Formula": "C<sub>8</sub>H<sub>18</sub>S",
        "Molecular Mass": "146.29",
        "Boiling Point": "80 °C @ Press: 19 Torr",
        "Density": "0.8467 g/cm³ @ Temp: 25 °C"
    }
}