{
    "cas_no": "125995-03-1",
    "key_name": "Atorvastatin lactone",
    "cn_name": "阿托伐他汀内酯;(4R,6R)-6-{2-[2-(4-氟苯基)-5-异丙基-3-苯基-4-(苯基氨基甲酰基)吡咯-1-基]乙基}-4-羟基四;",
    "alternate_name": "1<em>H</em>-Pyrrole-3-carboxamide, 5-(4-fluorophenyl)-2-(1-methylethyl)-<em>N</em>,4-diphenyl-1-[2-[(2<em>R</em>,4<em>R</em>)-tetrahydro-4-hydroxy-6-oxo-2<em>H</em>-pyran-2-yl]ethyl]-;1<em>H</em>-Pyrrole-3-carboxamide, 5-(4-fluorophenyl)-2-(1-methylethyl)-<em>N</em>,4-diphenyl-1-[2-(tetrahydro-4-hydroxy-6-oxo-2<em>H</em>-pyran-2-yl)ethyl]-, (2<em>R</em>-<em>trans</em>)-;5-(4-Fluorophenyl)-2-(1-methylethyl)-<em>N</em>,4-diphenyl-1-[2-[(2<em>R</em>,4<em>R</em>)-tetrahydro-4-hydroxy-6-oxo-2<em>H</em>-pyran-2-yl]ethyl]-1<em>H</em>-pyrrole-3-carboxamide;Atorvastatin lactone;Atorvastatin δ-lactone;5-(4-Fluorophenyl)-1-[2-[(2<em>R</em>,4<em>R</em>)-4-hydroxy-6-oxotetrahydropyran-2-yl]ethyl]-2-isopropyl-4-phenyl-1<em>H</em>-pyrrole-3-carboxylic acid phenylamide",
    "duplicated_cas_no": "142062-65-5",
    "SMILES": "C(NC1=CC=CC=C1)(=O)C=2C(=C(N(CC[C@@H]3C[C@@H](O)CC(=O)O3)C2C(C)C)C4=CC=C(F)C=C4)C5=CC=CC=C5",
    "meta_data": {
        "InChI": "InChI=1S/C33H33FN2O4/c1-21(2)31-30(33(39)35-25-11-7-4-8-12-25)29(22-9-5-3-6-10-22)32(23-13-15-24(34)16-14-23)36(31)18-17-27-19-26(37)20-28(38)40-27/h3-16,21,26-27,37H,17-20H2,1-2H3,(H,35,39)/t26-,27-/m1/s1",
        "InChIKey": null,
        "Canonical SMILES": "O=C1OC(CCN2C(C=3C=CC(F)=CC3)=C(C=4C=CC=CC4)C(C(=O)NC=5C=CC=CC5)=C2C(C)C)CC(O)C1",
        "Molecular Formula": "C<sub>33</sub>H<sub>33</sub>FN<sub>2</sub>O<sub>4</sub>",
        "Molecular Mass": "540.62",
        "Melting Point": "160-162 °C"
    }
}