{
    "cas_no": "94-31-5",
    "key_name": "4-[(2-Chloroethyl)methylamino]benzaldehyde",
    "cn_name": "N-甲基-N-氯乙基-4-氨基苯甲醛;4-(N-甲基-N-氯乙基)氨基苯甲醛;",
    "alternate_name": "Benzaldehyde, 4-[(2-chloroethyl)methylamino]-;Benzaldehyde, <em>p</em>-[(2-chloroethyl)methylamino]-;4-[(2-Chloroethyl)methylamino]benzaldehyde;4-(<em>N</em>-2-Chloroethyl-<em>N</em>-methylamino)benzaldehyde;4-[<em>N</em>-Methyl-<em>N</em>-(β-chloroethyl)amino]benzaldehyde",
    "duplicated_cas_no": "",
    "SMILES": "N(CCCl)(C)C1=CC=C(C=O)C=C1",
    "meta_data": {
        "InChI": "InChI=1S/C10H12ClNO/c1-12(7-6-11)10-4-2-9(8-13)3-5-10/h2-5,8H,6-7H2,1H3",
        "InChIKey": null,
        "Canonical SMILES": "O=CC1=CC=C(C=C1)N(C)CCCl",
        "Molecular Formula": "C<sub>10</sub>H<sub>12</sub>ClNO",
        "Molecular Mass": "197.66",
        "Melting Point": "70 °C"
    }
}