{
    "cas_no": "22055-22-7",
    "key_name": "9-(1,3-Benzodioxol-5-yl)-4-hydroxy-6,7-dimethoxynaphtho[2,3-<em>c</em>]furan-1(3<em>H</em>)-one",
    "cn_name": null,
    "alternate_name": "Naphtho[2,3-<em>c</em>]furan-1(3<em>H</em>)-one, 9-(1,3-benzodioxol-5-yl)-4-hydroxy-6,7-dimethoxy-;Naphtho[2,3-<em>c</em>]furan-1(3<em>H</em>)-one, 4-hydroxy-6,7-dimethoxy-9-[3,4-(methylenedioxy)phenyl]-;9-(1,3-Benzodioxol-5-yl)-4-hydroxy-6,7-dimethoxynaphtho[2,3-<em>c</em>]furan-1(3<em>H</em>)-one;Diphyllin;NSC 309691",
    "duplicated_cas_no": "",
    "SMILES": "O=C1C2=C(C=3C(C(O)=C2CO1)=CC(OC)=C(OC)C3)C=4C=C5C(=CC4)OCO5",
    "meta_data": {
        "InChI": "InChI=1S/C21H16O7/c1-24-15-6-11-12(7-16(15)25-2)20(22)13-8-26-21(23)19(13)18(11)10-3-4-14-17(5-10)28-9-27-14/h3-7,22H,8-9H2,1-2H3",
        "InChIKey": null,
        "Canonical SMILES": "O=C1OCC=2C(O)=C3C=C(OC)C(OC)=CC3=C(C=4C=CC=5OCOC5C4)C12",
        "Molecular Formula": "C<sub>21</sub>H<sub>16</sub>O<sub>7</sub>",
        "Molecular Mass": "380.35",
        "Melting Point": "290 °C"
    }
}