{
    "cas_no": "132-27-4",
    "key_name": "Sodium <em>o</em>-phenylphenate",
    "cn_name": "邻苯基苯酚钠;",
    "alternate_name": "[1,1′-Biphenyl]-2-ol, sodium salt (1:1);2-Biphenylol, sodium salt;[1,1′-Biphenyl]-2-ol, sodium salt;Phenol, <em>o</em>-phenyl-, sodium deriv.;Dowicide A;Dowicide;2-Hydroxydiphenyl sodium;Natriphene;Preventol ON;Sodium 2-hydroxydiphenyl;Sodium <em>o</em>-phenylphenate;Sodium 2-phenylphenate;Sodium <em>o</em>-phenylphenolate;Sodium <em>o</em>-phenylphenoxide;Stopmold B;Topane;<em>o</em>-Phenylphenol sodium salt;2-Phenylphenol sodium salt;SOPP;2-Hydroxybiphenyl sodium salt;Sodium 2-biphenylolate;Sodium <em>o</em>-phenylphenol;Preventol ON extra;Dowicide A Flakes;Mystox WFA;Sodium 2-phenylphenoxide;Deccosol;<em>o</em>-Hydroxybiphenyl sodium salt;Sodium 2-phenylphenol;Bactolyse 74880;Microban Additive P 2;Sodium 2-phenylphenoate;Microban P 2;Sodium orthophenylphenoxide;Sodium orthophenylphenol;Sodium, (2-biphenylyloxy)-",
    "duplicated_cas_no": "875253-17-1",
    "SMILES": "OC1=C(C2=CC=CC=C2)C=CC=C1.[Na]",
    "meta_data": {
        "InChI": "InChI=1S/C12H10O.Na/c13-12-9-5-4-8-11(12)10-6-2-1-3-7-10;/h1-9,13H;",
        "InChIKey": null,
        "Canonical SMILES": "[Na].OC=1C=CC=CC1C=2C=CC=CC2",
        "Molecular Formula": "C<sub>12</sub>H<sub>10</sub>O.Na",
        "Molecular Mass": "",
        "Melting Point": "282 °C"
    }
}