{
    "cas_no": "97-77-8",
    "key_name": "Tetraethylthiuram disulfide",
    "cn_name": "二硫化四乙基秋兰姆;双硫醒;戒酒硫;",
    "alternate_name": "Thioperoxydicarbonic diamide ([(H<sub>2</sub>N)C(S)]<sub>2</sub>S<sub>2</sub>), <em>N</em>,<em>N</em>,<em>N</em>′,<em>N</em>′-tetraethyl-;Disulfide, bis(diethylthiocarbamoyl);Thioperoxydicarbonic diamide ([(H<sub>2</sub>N)C(S)]<sub>2</sub>S<sub>2</sub>), tetraethyl-;<em>N</em>,<em>N</em>,<em>N</em>′,<em>N</em>′-Tetraethylthioperoxydicarbonic diamide ([(H<sub>2</sub>N)C(S)]<sub>2</sub>S<sub>2</sub>);Abstensil;Abstinyl;Alcophobin;Antabuse;Antadix;Antaethyl;Antalcol;Antietanol;Antietil;Antikol;Aversan;Bis(<em>N</em>,<em>N</em>-diethylthiocarbamoyl) disulfide;Bis(diethylthiocarbamoyl) disulfide;Contralin;Cronetal;Disulfiram;Esperal;Etabus;Ethyl Thiram;Ethyl Thiurad;Ethyl Tuex;Exhorran;Noxal;Refusal;Stopetyl;TETD;Tetradine;Tetraethylthiuram disulfide;Tetraetil;Thiuram E;Thiuranide;TTD;Antabus;<em>N</em>,<em>N</em>,<em>N</em>′,<em>N</em>′-Tetraethylthiuram disulfide;Tetraethylthiram disulfide;Tetraethylthiuram;Teturam;Ekagom TEDS;Ekagom TETDS;Dicupral;Averzan;Abstinil;Antetan;Antetil;Krotenal;Tetradin;Espenal;Antivitium;TTs;Hoca;Tetraethylthioperoxydicarbonic diamide;Anticol;Nocceler TET;Tetraethylthiuram sulfide;Accel TET;Ekagom DTET;Ethyl Tuads;Sanceler TET;Teturamin;Sanceler TET-G;NSC 25953;Soxinol TET;Accel TET-R;Nocceler TET-G;Exhoran;Akrochem TETD;Nocceler TED;Tetraethyldithiuram disulfide;Etiltox;<em>N</em>,<em>N</em>,<em>N</em>′,<em>N</em>′-Tetraethyldithiuram disulfide;Curekind TETD;Accelerator TET;<em>N</em>,<em>N</em>-Diethyl[(diethylcarbamothioyl)disulfanyl]carbothioamide;TETDS;Rhenogran TETD;TETD 80;Curebead PB 75",
    "duplicated_cas_no": "155-01-1;11078-22-1",
    "SMILES": "N(C(SSC(N(CC)CC)=S)=S)(CC)CC",
    "meta_data": {
        "InChI": "InChI=1S/C10H20N2S4/c1-5-11(6-2)9(13)15-16-10(14)12(7-3)8-4/h5-8H2,1-4H3",
        "InChIKey": null,
        "Canonical SMILES": "S=C(SSC(=S)N(CC)CC)N(CC)CC",
        "Molecular Formula": "C<sub>10</sub>H<sub>20</sub>N<sub>2</sub>S<sub>4</sub>",
        "Molecular Mass": "296.54",
        "Boiling Point": "117 °C @ Press: 17 Torr",
        "Melting Point": "71.5 °C",
        "Density": "1.30 g/cm³"
    }
}