{
    "cas_no": "513-38-2",
    "key_name": "Isobutyl iodide",
    "cn_name": "碘代异丁烷;1-碘-2-甲基丙烷;",
    "alternate_name": "Propane, 1-iodo-2-methyl-;1-Iodo-2-methylpropane;Isobutyl iodide;2-Methylpropyl iodide;3-Iodo-2-methylpropane;NSC 8421;2-Methyl-1-iodopropane;1-Iodoisobutane;2-Methylpropan-1-yl iodide",
    "duplicated_cas_no": "",
    "SMILES": "C(CI)(C)C",
    "meta_data": {
        "InChI": "InChI=1S/C4H9I/c1-4(2)3-5/h4H,3H2,1-2H3",
        "InChIKey": null,
        "Canonical SMILES": "ICC(C)C",
        "Molecular Formula": "C<sub>4</sub>H<sub>9</sub>I",
        "Molecular Mass": "184.02",
        "Boiling Point": "121.1 °C",
        "Melting Point": "-93 °C",
        "Density": "1.58693 g/cm³ @ Temp: 30 °C"
    }
}