{
    "cas_no": "40180-04-9",
    "key_name": "Tienilic acid",
    "cn_name": null,
    "alternate_name": "Acetic acid, 2-[2,3-dichloro-4-(2-thienylcarbonyl)phenoxy]-;Acetic acid, [2,3-dichloro-4-(2-thienylcarbonyl)phenoxy]-;2-[2,3-Dichloro-4-(2-thienylcarbonyl)phenoxy]acetic acid;2,3-Dichloro-4-(2-thenoyl)phenoxyacetic acid;Tienilic acid;Ticrynafen;SKF 62698;4-(2-Thenoyl)-2,3-dichlorophenoxyacetic acid;4-(2-Thienylcarbonyl)-2,3-dichlorophenoxyacetic acid;FR 3068;Selacryn;ANP 3624;Tienylic acid;Thienylic acid;Difluorex;CE 3624;2-[2,3-Dichloro-4-(thiophene-2-carbonyl)phenoxy]acetic acid",
    "duplicated_cas_no": "",
    "SMILES": "C(=O)(C1=C(Cl)C(Cl)=C(OCC(O)=O)C=C1)C2=CC=CS2",
    "meta_data": {
        "InChI": "InChI=1S/C13H8Cl2O4S/c14-11-7(13(18)9-2-1-5-20-9)3-4-8(12(11)15)19-6-10(16)17/h1-5H,6H2,(H,16,17)",
        "InChIKey": null,
        "Canonical SMILES": "O=C(O)COC1=CC=C(C(=O)C=2SC=CC2)C(Cl)=C1Cl",
        "Molecular Formula": "C<sub>13</sub>H<sub>8</sub>Cl<sub>2</sub>O<sub>4</sub>S",
        "Molecular Mass": "331.17",
        "Melting Point": "149 °C"
    }
}