{
    "cas_no": "5465-28-1",
    "key_name": "2-Ethyl-2-phenylbutyric acid",
    "cn_name": "2-苯基-2-乙基丁酸;",
    "alternate_name": "Benzeneacetic acid, α,α-diethyl-;Butyric acid, 2-ethyl-2-phenyl-;α,α-Diethylbenzeneacetic acid;2-Phenyl-2-ethylbutyric acid;2-Ethyl-2-phenylbutyric acid;NSC 28953;2-Ethyl-2-phenylbutanoic acid",
    "duplicated_cas_no": "",
    "SMILES": "C(C(O)=O)(CC)(CC)C1=CC=CC=C1",
    "meta_data": {
        "InChI": "InChI=1S/C12H16O2/c1-3-12(4-2,11(13)14)10-8-6-5-7-9-10/h5-9H,3-4H2,1-2H3,(H,13,14)",
        "InChIKey": null,
        "Canonical SMILES": "O=C(O)C(C=1C=CC=CC1)(CC)CC",
        "Molecular Formula": "C<sub>12</sub>H<sub>16</sub>O<sub>2</sub>",
        "Molecular Mass": "192.25",
        "Melting Point": "93 °C"
    }
}