{
    "cas_no": "621-52-3",
    "key_name": "1-Ethoxy-3-nitrobenzene",
    "cn_name": "间硝基苯乙醚;",
    "alternate_name": "Benzene, 1-ethoxy-3-nitro-;Phenetole, <em>m</em>-nitro-;1-Ethoxy-3-nitrobenzene;<em>m</em>-Nitrophenetole;<em>m</em>-Ethoxynitrobenzene;m-Nitrophenyl ethyl ether;NSC 5405;Ethyl 3-nitrophenyl ether;3-Ethoxynitrobenzene",
    "duplicated_cas_no": "",
    "SMILES": "O(CC)C1=CC(N(=O)=O)=CC=C1",
    "meta_data": {
        "InChI": "InChI=1S/C8H9NO3/c1-2-12-8-5-3-4-7(6-8)9(10)11/h3-6H,2H2,1H3",
        "InChIKey": null,
        "Canonical SMILES": "O=N(=O)C=1C=CC=C(OCC)C1",
        "Molecular Formula": "C<sub>8</sub>H<sub>9</sub>NO<sub>3</sub>",
        "Molecular Mass": "167.16",
        "Boiling Point": "264 °C",
        "Melting Point": "36 °C"
    }
}