{
    "cas_no": "29678-81-7",
    "key_name": "(<em>R</em>)-2-Hydroxy-4-phenylbutyric acid",
    "cn_name": "(R)-2-羟基-4-苯基丁酸;",
    "alternate_name": "Benzenebutanoic acid, α-hydroxy-, (α<em>R</em>)-;Butyric acid, 2-hydroxy-4-phenyl-, <span class=\"text-smallcaps\">D</span>-(-)-;Benzenebutanoic acid, α-hydroxy-, (<em>R</em>)-;(α<em>R</em>)-α-Hydroxybenzenebutanoic acid;<span class=\"text-smallcaps\">D</span>-(-)-Benzyllactic acid;(<em>R</em>)-2-Hydroxy-4-phenylbutanoic acid;(<em>R</em>)-(-)-2-Hydroxy-4-phenylbutyric acid;(<em>R</em>)-2-Hydroxy-4-phenylbutyric acid;(2<em>R</em>)-2-Hydroxy-4-phenylbutanoic acid;(2R)-2-Hydroxy-4-phenylbutanoic acid;(r)-2-Hydroxy-4-phenylbutyricacid",
    "duplicated_cas_no": "",
    "SMILES": "C(C[C@H](C(O)=O)O)C1=CC=CC=C1",
    "meta_data": {
        "InChI": "InChI=1S/C10H12O3/c11-9(10(12)13)7-6-8-4-2-1-3-5-8/h1-5,9,11H,6-7H2,(H,12,13)/t9-/m1/s1",
        "InChIKey": null,
        "Canonical SMILES": "O=C(O)C(O)CCC=1C=CC=CC1",
        "Molecular Formula": "C<sub>10</sub>H<sub>12</sub>O<sub>3</sub>",
        "Molecular Mass": "180.20",
        "Melting Point": "115-117 °C"
    }
}