{
    "cas_no": "224311-49-3",
    "key_name": "2′-[Bis(1,1-dimethylethyl)phosphino]-<em>N</em>,<em>N</em>-dimethyl[1,1′-biphenyl]-2-amine",
    "cn_name": "2-(二-叔丁基膦)-2\"-(N,N-二甲基氨基)联苯;",
    "alternate_name": "[1,1′-Biphenyl]-2-amine, 2′-[bis(1,1-dimethylethyl)phosphino]-<em>N</em>,<em>N</em>-dimethyl-;2′-[Bis(1,1-dimethylethyl)phosphino]-<em>N</em>,<em>N</em>-dimethyl[1,1′-biphenyl]-2-amine;2-(Di-<em>tert</em>-butylphosphino)-2′-(dimethylamino)biphenyl;2′-(Di-<em>tert</em>-butylphosphino)-<em>N</em>,<em>N</em>-dimethylbiphenyl-2-amine;t-BuDavePhos;2-[Di(<em>tert</em>-butyl)phosphino]-2′-(dimethylamino)-[1,1′-biphenyl];Di-<em>tert</em>-butyl[2-[2-(dimethylamino)phenyl]phenyl]phosphine;2-(2-Ditert-butylphosphanylphenyl)-<em>N</em>,<em>N</em>-dimethylaniline",
    "duplicated_cas_no": "",
    "SMILES": "P(C(C)(C)C)(C(C)(C)C)C1=C(C=CC=C1)C2=C(N(C)C)C=CC=C2",
    "meta_data": {
        "InChI": "InChI=1S/C22H32NP/c1-21(2,3)24(22(4,5)6)20-16-12-10-14-18(20)17-13-9-11-15-19(17)23(7)8/h9-16H,1-8H3",
        "InChIKey": null,
        "Canonical SMILES": "C=1C=CC(=C(C1)C=2C=CC=CC2P(C(C)(C)C)C(C)(C)C)N(C)C",
        "Molecular Formula": "C<sub>22</sub>H<sub>32</sub>NP",
        "Molecular Mass": "341.47",
        "Melting Point": "111-113 °C"
    }
}