{
    "cas_no": "7440-24-6",
    "key_name": "Strontium",
    "cn_name": null,
    "alternate_name": "Strontium;Strontium element;MeSH ID: D013324",
    "duplicated_cas_no": "",
    "SMILES": "[Sr]",
    "meta_data": {
        "InChI": "InChI=1S/Sr",
        "InChIKey": null,
        "Canonical SMILES": "[Sr]",
        "Molecular Formula": "Sr",
        "Molecular Mass": "",
        "Boiling Point": "1382 °C",
        "Melting Point": "777 °C",
        "Density": "2.64 g/cm³"
    }
}