{
    "cas_no": "656-32-6",
    "key_name": "<em>N</em>-(2-Fluorophenyl)thiourea",
    "cn_name": "1-(2-氟苯基)-2-硫脲;2-氟苯基硫脲;",
    "alternate_name": "Thiourea, <em>N</em>-(2-fluorophenyl)-;Urea, 1-(<em>o</em>-fluorophenyl)-2-thio-;Thiourea, (2-fluorophenyl)-;<em>N</em>-(2-Fluorophenyl)thiourea;(2-Fluorophenyl)thiourea;1-(2-Fluorophenyl)thiourea;1-(2-Fluorophenyl)-2-thiourea",
    "duplicated_cas_no": "",
    "SMILES": "N(C(N)=S)C1=C(F)C=CC=C1",
    "meta_data": {
        "InChI": "InChI=1S/C7H7FN2S/c8-5-3-1-2-4-6(5)10-7(9)11/h1-4H,(H3,9,10,11)",
        "InChIKey": null,
        "Canonical SMILES": "FC=1C=CC=CC1NC(=S)N",
        "Molecular Formula": "C<sub>7</sub>H<sub>7</sub>FN<sub>2</sub>S",
        "Molecular Mass": "170.21",
        "Boiling Point": "139-140 °C @ Press: 760 Torr",
        "Melting Point": "138-140 °C"
    }
}