{
    "cas_no": "111-45-5",
    "key_name": "Ethylene glycol monoallyl ether",
    "cn_name": "烯丙基羟乙基醚;乙二醇单烯丙基醚;",
    "alternate_name": "Ethanol, 2-(2-propen-1-yloxy)-;Ethanol, 2-(allyloxy)-;Ethanol, 2-(2-propenyloxy)-;2-(2-Propen-1-yloxy)ethanol;Allyl Cellosolve;2-(Allyloxy)ethanol;Ethylene glycol allyl ether;Allyl 2-hydroxyethyl ether;6-Hydroxy-4-oxa-1-hexene;Ethylene glycol monoallyl ether;2-(2-Propenyloxy)ethanol;Hydroxyethyl allyl ether;Lioxasol;2-Hydroxyethyl allyl ether;NSC 32614;Allyl monoethoxylate;Allyl alcohol monoethoxylate;Hansa ADD 4035;2-(Prop-2-en-1-yloxy)ethan-1-ol;2-Prop-2-enoxyethanol",
    "duplicated_cas_no": "",
    "SMILES": "O(CC=C)CCO",
    "meta_data": {
        "InChI": "InChI=1S/C5H10O2/c1-2-4-7-5-3-6/h2,6H,1,3-5H2",
        "InChIKey": null,
        "Canonical SMILES": "OCCOCC=C",
        "Molecular Formula": "C<sub>5</sub>H<sub>10</sub>O<sub>2</sub>",
        "Molecular Mass": "102.13",
        "Boiling Point": "158.5 °C",
        "Density": "0.958 g/cm³ @ Temp: 20 °C"
    }
}