{
    "cas_no": "90-19-7",
    "key_name": "Rhamnetin",
    "cn_name": "鼠李素;3,5,3\",4\"-四羟基-7-甲氧基黄酮;",
    "alternate_name": "4<em>H</em>-1-Benzopyran-4-one, 2-(3,4-dihydroxyphenyl)-3,5-dihydroxy-7-methoxy-;Rhamnetin;Flavone, 3,3′,4′,5-tetrahydroxy-7-methoxy-;2-(3,4-Dihydroxyphenyl)-3,5-dihydroxy-7-methoxy-4<em>H</em>-1-benzopyran-4-one;C.I. 75690;7-Methoxyquercetin;7-Methylquercetin;7-<em>O</em>-Methylquercetin;Quercetin 7-methyl ether;β-Rhamnocitrin;3,3′,4′,5-Tetrahydroxy-7-methoxyflavone;3,5,3′,4′-Tetrahydroxy-7-methoxyflavone;LY 805921;NSC 19802;2-(3,4-Dihydroxyphenyl)-3,5-dihydroxy-7-methoxychromen-4-one",
    "duplicated_cas_no": "",
    "SMILES": "O=C1C=2C(OC(=C1O)C3=CC(O)=C(O)C=C3)=CC(OC)=CC2O",
    "meta_data": {
        "InChI": "InChI=1S/C16H12O7/c1-22-8-5-11(19)13-12(6-8)23-16(15(21)14(13)20)7-2-3-9(17)10(18)4-7/h2-6,17-19,21H,1H3",
        "InChIKey": null,
        "Canonical SMILES": "O=C1C(O)=C(OC2=CC(OC)=CC(O)=C12)C=3C=CC(O)=C(O)C3",
        "Molecular Formula": "C<sub>16</sub>H<sub>12</sub>O<sub>7</sub>",
        "Molecular Mass": "316.26",
        "Melting Point": "295 °C"
    }
}