{
    "cas_no": "3343-41-7",
    "key_name": "α-HPMS",
    "cn_name": "α-羟基-2-吡啶甲磺酸;",
    "alternate_name": "2-Pyridinemethanesulfonic acid, α-hydroxy-;α-Hydroxy-2-pyridinemethanesulfonic acid;2-Pyridylhydroxymethanesulfonic acid;α-HPMS;NSC 11732",
    "duplicated_cas_no": "",
    "SMILES": "C(S(=O)(=O)O)(O)C1=CC=CC=N1",
    "meta_data": {
        "InChI": "InChI=1S/C6H7NO4S/c8-6(12(9,10)11)5-3-1-2-4-7-5/h1-4,6,8H,(H,9,10,11)",
        "InChIKey": null,
        "Canonical SMILES": "O=S(=O)(O)C(O)C1=NC=CC=C1",
        "Molecular Formula": "C<sub>6</sub>H<sub>7</sub>NO<sub>4</sub>S",
        "Molecular Mass": "189.19",
        "Melting Point": "205 °C"
    }
}