{
    "cas_no": "102-02-3",
    "key_name": "Phenylbiguanide",
    "cn_name": "苯基双胍;1-苯基双胍;",
    "alternate_name": "Imidodicarbonimidic diamide, <em>N</em>-phenyl-;Biguanide, 1-phenyl-;<em>N</em>-Phenylimidodicarbonimidic diamide;Phenylbiguanide;1-Phenylbiguanide;<em>N</em>-Phenyl-<em>N</em>′-guanylguanidine;<em>N</em>-Phenylbiguanide;<em>N</em><sup>1</sup>-Phenylbiguanide;PBG;1-(Diaminomethylidene)-2-phenylguanidine;1-Carbamimidamido-<em>N</em>-phenylmethanimidamide",
    "duplicated_cas_no": "86338-86-5",
    "SMILES": "N(C(NC(=N)N)=N)C1=CC=CC=C1",
    "meta_data": {
        "InChI": "InChI=1S/C8H11N5/c9-7(10)13-8(11)12-6-4-2-1-3-5-6/h1-5H,(H6,9,10,11,12,13)",
        "InChIKey": null,
        "Canonical SMILES": "N=C(N)NC(=N)NC=1C=CC=CC1",
        "Molecular Formula": "C<sub>8</sub>H<sub>11</sub>N<sub>5</sub>",
        "Molecular Mass": "177.21",
        "Melting Point": "143 °C"
    }
}