{
    "cas_no": "86-68-0",
    "key_name": "Quininic acid",
    "cn_name": "6-甲氧基-4-羧酸喹啉;6-甲氧基-4-羧酸喹啉;",
    "alternate_name": "4-Quinolinecarboxylic acid, 6-methoxy-;Cinchoninic acid, 6-methoxy-;6-Methoxy-4-quinolinecarboxylic acid;6-Methoxycinchoninic acid;Quininic acid;NSC 403610",
    "duplicated_cas_no": "",
    "SMILES": "C(O)(=O)C=1C2=C(C=CC(OC)=C2)N=CC1",
    "meta_data": {
        "InChI": "InChI=1S/C11H9NO3/c1-15-7-2-3-10-9(6-7)8(11(13)14)4-5-12-10/h2-6H,1H3,(H,13,14)",
        "InChIKey": null,
        "Canonical SMILES": "O=C(O)C=1C=CN=C2C=CC(OC)=CC21",
        "Molecular Formula": "C<sub>11</sub>H<sub>9</sub>NO<sub>3</sub>",
        "Molecular Mass": "203.19",
        "Boiling Point": "110-115 °C @ Press: 5 mmHg",
        "Melting Point": "280 °C (decomp)"
    }
}