{
    "cas_no": "2143-87-5",
    "key_name": "<em>N</em>,<em>N</em>-Dimethyl-4′-nitro[1,1′-biphenyl]-4-amine",
    "cn_name": "4-二甲胺基-4\"-硝基联苯;",
    "alternate_name": "[1,1′-Biphenyl]-4-amine, <em>N</em>,<em>N</em>-dimethyl-4′-nitro-;4-Biphenylamine, <em>N</em>,<em>N</em>-dimethyl-4′-nitro-;<em>N</em>,<em>N</em>-Dimethyl-4′-nitro[1,1′-biphenyl]-4-amine;4-(Dimethylamino)-4′-nitrobiphenyl;<em>N</em>,<em>N</em>-Dimethyl-(4′-nitrobiphenyl-4-yl)amine;4-<em>N</em>,<em>N</em>-Dimethylamino-4′-nitrobiphenyl;<em>N</em>,<em>N</em>-Dimethyl-4′-nitrobiphenyl-4-amine",
    "duplicated_cas_no": "",
    "SMILES": "N(C)(C)C1=CC=C(C=C1)C2=CC=C(N(=O)=O)C=C2",
    "meta_data": {
        "InChI": "InChI=1S/C14H14N2O2/c1-15(2)13-7-3-11(4-8-13)12-5-9-14(10-6-12)16(17)18/h3-10H,1-2H3",
        "InChIKey": null,
        "Canonical SMILES": "O=N(=O)C1=CC=C(C=C1)C=2C=CC(=CC2)N(C)C",
        "Molecular Formula": "C<sub>14</sub>H<sub>14</sub>N<sub>2</sub>O<sub>2</sub>",
        "Molecular Mass": "242.27",
        "Melting Point": "244 °C"
    }
}