{
    "cas_no": "6452-61-5",
    "key_name": "Dibutyldiphenylstannane",
    "cn_name": "二丁基二苯基锡;",
    "alternate_name": "Stannane, dibutyldiphenyl-;Tin, dibutyldiphenyl-;Dibutyldiphenylstannane;Dibutyldiphenyltin;Diphenyldibutylstannane;Diphenyldibutyltin;Di-<em>n</em>-butyldiphenyltin",
    "duplicated_cas_no": "",
    "SMILES": "[Sn](CCCC)(CCCC)(C1=CC=CC=C1)C2=CC=CC=C2",
    "meta_data": {
        "InChI": "InChI=1S/2C6H5.2C4H9.Sn/c2*1-2-4-6-5-3-1;2*1-3-4-2;/h2*1-5H;2*1,3-4H2,2H3;",
        "InChIKey": null,
        "Canonical SMILES": "C=1C=CC(=CC1)[Sn](C=2C=CC=CC2)(CCCC)CCCC",
        "Molecular Formula": "C<sub>20</sub>H<sub>28</sub>Sn",
        "Molecular Mass": "387.15",
        "Boiling Point": "137 °C @ Press: 0.2 Torr"
    }
}