{
    "cas_no": "23214-92-8",
    "key_name": "Doxorubicin",
    "cn_name": "阿霉素;10-((3-氨基-2,3,6-三去氧-alpha-L-来苏-己吡喃基)氧)-7,8,9,10-四氢-6,8,11-三羟基-8-羟乙酰基-1-;",
    "alternate_name": "5,12-Naphthacenedione, 10-[(3-amino-2,3,6-trideoxy-α-<span class=\"text-smallcaps\">L</span>-<em>lyxo</em>-hexopyranosyl)oxy]-7,8,9,10-tetrahydro-6,8,11-trihydroxy-8-(2-hydroxyacetyl)-1-methoxy-, (8<em>S</em>,10<em>S</em>)-;5,12-Naphthacenedione, 10-[(3-amino-2,3,6-trideoxy-α-<span class=\"text-smallcaps\">L</span>-<em>lyxo</em>-hexopyranosyl)oxy]-7,8,9,10-tetrahydro-6,8,11-trihydroxy-8-(hydroxyacetyl)-1-methoxy-, (8<em>S</em>-<em>cis</em>)-;5,12-Naphthacenedione, 10-[(3-amino-2,3,6-trideoxy-α-<span class=\"text-smallcaps\">L</span>-<em>lyxo</em>-hexopyranosyl)oxy]-7,8,9,10-tetrahydro-6,8,11-trihydroxy-8-(hydroxyacetyl)-1-methoxy-, (8<em>S</em>,10<em>S</em>)-;(8<em>S</em>,10<em>S</em>)-10-[(3-Amino-2,3,6-trideoxy-α-<span class=\"text-smallcaps\">L</span>-<em>lyxo</em>-hexopyranosyl)oxy]-7,8,9,10-tetrahydro-6,8,11-trihydroxy-8-(2-hydroxyacetyl)-1-methoxy-5,12-naphthacenedione;14-Hydroxydaunomycin;Doxorubicin;NSC 123127;Doxil;Caelyx;Evacet;PK 2;Biotransdox;Rubex;Hydroxydaunomycin;Hydroxydaunorubicin;Rubidox;(7S,9S)-7-[(2R,4S,5S,6S)-4-Amino-5-hydroxy-6-methyloxan-2-yl]oxy-6,9,1 1-trihydroxy-9-(2-hydroxyacetyl)-4-methoxy-8,10-dihydro-7<em>H</em>-tetracene-5,12-dione;Liporubicin;Oncodox;Caelix;Livatag;Ameisu;Thermodox;MeSH ID: D004317",
    "duplicated_cas_no": "23257-17-2;24385-08-8;25311-50-6;29042-30-6;1392315-46-6;1394125-92-8",
    "SMILES": "OC=1C2=C([C@@H](O[C@H]3C[C@H](N)[C@H](O)[C@H](C)O3)C[C@@](C(CO)=O)(O)C2)C(O)=C4C1C(=O)C=5C(C4=O)=C(OC)C=CC5",
    "meta_data": {
        "InChI": "InChI=1S/C27H29NO11/c1-10-22(31)13(28)6-17(38-10)39-15-8-27(36,16(30)9-29)7-12-19(15)26(35)21-20(24(12)33)23(32)11-4-3-5-14(37-2)18(11)25(21)34/h3-5,10,13,15,17,22,29,31,33,35-36H,6-9,28H2,1-2H3/t10-,13-,15-,17-,22+,27-/m0/s1",
        "InChIKey": null,
        "Canonical SMILES": "O=C1C=2C=CC=C(OC)C2C(=O)C=3C(O)=C4C(=C(O)C13)CC(O)(C(=O)CO)CC4OC5OC(C)C(O)C(N)C5",
        "Molecular Formula": "C<sub>27</sub>H<sub>29</sub>NO<sub>11</sub>",
        "Molecular Mass": "543.52",
        "Melting Point": "204 °C"
    }
}