{
    "cas_no": "2138-22-9",
    "key_name": "4-Chlorocatechol",
    "cn_name": "4-氯邻苯二酚;",
    "alternate_name": "1,2-Benzenediol, 4-chloro-;Pyrocatechol, 4-chloro-;4-Chloro-1,2-benzenediol;4-Chlorocatechol;4-Chloropyrocatechol;4-Chloro-1,2-dihydroxybenzene",
    "duplicated_cas_no": "",
    "SMILES": "OC1=C(O)C=CC(Cl)=C1",
    "meta_data": {
        "InChI": "InChI=1S/C6H5ClO2/c7-4-1-2-5(8)6(9)3-4/h1-3,8-9H",
        "InChIKey": null,
        "Canonical SMILES": "ClC1=CC=C(O)C(O)=C1",
        "Molecular Formula": "C<sub>6</sub>H<sub>5</sub>ClO<sub>2</sub>",
        "Molecular Mass": "144.56",
        "Boiling Point": "136-136.5 °C @ Press: 8.5 Torr",
        "Melting Point": "90.5 °C"
    }
}