{
    "cas_no": "108-88-3",
    "key_name": "Toluene",
    "cn_name": "甲苯;",
    "alternate_name": "Benzene, methyl-;Toluene;Methylbenzene;Methacide;Methylbenzol;Phenylmethane;Toluol;Antisal 1a;CP 25;1-Methylbenzene;CP 25 (solvent);NSC 406333;MeSH ID: D014050",
    "duplicated_cas_no": "1053657-77-4;1202864-97-8",
    "SMILES": "CC1=CC=CC=C1",
    "meta_data": {
        "InChI": "InChI=1S/C7H8/c1-7-5-3-2-4-6-7/h2-6H,1H3",
        "InChIKey": null,
        "Canonical SMILES": "C=1C=CC(=CC1)C",
        "Molecular Formula": "C<sub>7</sub>H<sub>8</sub>",
        "Molecular Mass": "92.14",
        "Boiling Point": "110.6 °C",
        "Melting Point": "-94.9 °C",
        "Density": "0.8636 g/cm³ @ Temp: 20 °C"
    }
}