{
    "cas_no": "2308-18-1",
    "key_name": "3-Methylbutyl 3-oxobutanoate",
    "cn_name": "乙酰乙酸异戊酯;",
    "alternate_name": "Butanoic acid, 3-oxo-, 3-methylbutyl ester;Acetoacetic acid, isopentyl ester;Isopentyl alcohol, acetoacetate;3-Methylbutyl 3-oxobutanoate;Isoamyl acetoacetate;Isopentyl acetoacetate;Isoamyl acetylacetate;Isoamyl 3-oxo-butanoate;3-Methyl-1-butyl 3-oxobutanoate",
    "duplicated_cas_no": "",
    "SMILES": "C(OCCC(C)C)(CC(C)=O)=O",
    "meta_data": {
        "InChI": "InChI=1S/C9H16O3/c1-7(2)4-5-12-9(11)6-8(3)10/h7H,4-6H2,1-3H3",
        "InChIKey": null,
        "Canonical SMILES": "O=C(OCCC(C)C)CC(=O)C",
        "Molecular Formula": "C<sub>9</sub>H<sub>16</sub>O<sub>3</sub>",
        "Molecular Mass": "172.22",
        "Boiling Point": "90-97 °C @ Press: 8 Torr"
    }
}