{
    "cas_no": "787-07-5",
    "key_name": "Diethyl succinylsuccinate",
    "cn_name": "丁二酰丁二酸二乙酯;1,4-环己二酮-2,5-二甲酸二乙酯;",
    "alternate_name": "1,4-Cyclohexanedicarboxylic acid, 2,5-dioxo-, 1,4-diethyl ester;1,4-Cyclohexanedicarboxylic acid, 2,5-dioxo-, diethyl ester;Diethyl 2,5-dioxo-1,4-cyclohexanedicarboxylate;2,5-Bis(ethoxycarbonyl)-1,4-cyclohexanedione;Diethyl succinosuccinate;Succinylsuccinic acid ethyl ester;Diethyl succinylsuccinate;Diethyl 1,4-cyclohexanedione-2,5-dicarboxylate;Diethyl 1,4-dioxo-2,5-cyclohexanedicarboxylate;2,5-Dicarbethoxy-1,4-cyclohexanedione;2,5-Dioxo-1,4-cyclohexanedicarboxylic acid diethyl ester;NSC 1140;NSC 130894",
    "duplicated_cas_no": "",
    "SMILES": "C(OCC)(=O)C1C(=O)CC(C(OCC)=O)C(=O)C1",
    "meta_data": {
        "InChI": "InChI=1S/C12H16O6/c1-3-17-11(15)7-5-10(14)8(6-9(7)13)12(16)18-4-2/h7-8H,3-6H2,1-2H3",
        "InChIKey": null,
        "Canonical SMILES": "O=C(OCC)C1C(=O)CC(C(=O)OCC)C(=O)C1",
        "Molecular Formula": "C<sub>12</sub>H<sub>16</sub>O<sub>6</sub>",
        "Molecular Mass": "256.25",
        "Melting Point": "127-128 °C"
    }
}