{
    "cas_no": "19287-45-7",
    "key_name": "Diborane",
    "cn_name": "乙硼烷;",
    "alternate_name": "Diborane(6);Diboron hexahydride;Diborane;Diborane (B<sub>2</sub>H<sub>6</sub>);Borane (B<sub>2</sub>H<sub>6</sub>);Boron hydride (B<sub>2</sub>H<sub>6</sub>);Hydrogen boride (H<sub>6</sub>B<sub>2</sub>)",
    "duplicated_cas_no": "133441-46-0;1304-00-3;16970-81-3;19287-88-8;849231-16-9",
    "SMILES": "[BH2]1[H][BH2][H]1",
    "meta_data": {
        "InChI": "InChI=1S/B2H6/c1-3-2-4-1/h1-2H2",
        "InChIKey": null,
        "Canonical SMILES": "[H]1[BH2][H][BH2]1",
        "Molecular Formula": "B<sub>2</sub>H<sub>6</sub>",
        "Molecular Mass": "27.67",
        "Boiling Point": "-92.5 °C",
        "Melting Point": "-165 °C",
        "Density": "0.33 g/cm³ @ Temp: -29.6 °C"
    }
}