{
    "cas_no": "7307-04-2",
    "key_name": "5,5-Dimethyl-2,4-hexanedione",
    "cn_name": null,
    "alternate_name": "2,4-Hexanedione, 5,5-dimethyl-;5,5-Dimethyl-2,4-hexanedione;Pivaloylacetone;Pivaloylacetylmethane;2,2-Dimethyl-3,5-hexanedione;1-(<em>tert</em>-Butoxy)-1,3-dioxobutane;5,5-Dimethylhexan-2,4-dione",
    "duplicated_cas_no": "",
    "SMILES": "C(CC(C)=O)(C(C)(C)C)=O",
    "meta_data": {
        "InChI": "InChI=1S/C8H14O2/c1-6(9)5-7(10)8(2,3)4/h5H2,1-4H3",
        "InChIKey": null,
        "Canonical SMILES": "O=C(C)CC(=O)C(C)(C)C",
        "Molecular Formula": "C<sub>8</sub>H<sub>14</sub>O<sub>2</sub>",
        "Molecular Mass": "142.20",
        "Boiling Point": "70-71 °C @ Press: 20 Torr",
        "Melting Point": "105-106 °C",
        "Density": "0.9412 g/cm³ @ Temp: 20 °C"
    }
}