{
    "cas_no": "3908-55-2",
    "key_name": "Trimethyl(methylthio)silane",
    "cn_name": "三甲基(甲硫基)硅烷;",
    "alternate_name": "Silane, trimethyl(methylthio)-;Trimethyl(methylthio)silane;(Methylthio)trimethylsilane;Methyl trimethylsilyl sulfide",
    "duplicated_cas_no": "",
    "SMILES": "[Si](SC)(C)(C)C",
    "meta_data": {
        "InChI": "InChI=1S/C4H12SSi/c1-5-6(2,3)4/h1-4H3",
        "InChIKey": null,
        "Canonical SMILES": "S(C)[Si](C)(C)C",
        "Molecular Formula": "C<sub>4</sub>H<sub>12</sub>SSi",
        "Molecular Mass": "120.29",
        "Boiling Point": "110-114 °C",
        "Density": "0.85 g/cm³"
    }
}