{
    "cas_no": "5307-14-2",
    "key_name": "Nitro-<em>p</em>-phenylenediamine",
    "cn_name": "2-硝基-1,4-苯二胺;邻硝基对苯二胺;",
    "alternate_name": "1,4-Benzenediamine, 2-nitro-;<em>p</em>-Phenylenediamine, 2-nitro-;2-Nitro-1,4-benzenediamine;C.I. 76070;C.I. Oxidation Base 22;Durafur Brown 2R;Fouramine 2R;Fourrine 36;Fourrine Brown 2R;<em>o</em>-Nitro-<em>p</em>-phenylenediamine;Ursol Brown RR;Zoba Brown RR;Nitro-<em>p</em>-phenylenediamine;2-Nitro-<em>p</em>-phenylenediamine;1,4-Diamino-2-nitrobenzene;2,5-Diaminonitrobenzene;2-Nitro-4-aminoaniline;2-Nitro-1,4-diaminobenzene;4-Amino-2-nitroaniline;NPD;2-Nitro-1,4-phenylenediamine;<em>p</em>-Phenylenediamine, nitro-;1,4-Benzenediamine, nitro-;NSC 5377;1,4-Diamino-3-nitrobenzene",
    "duplicated_cas_no": "29467-01-4",
    "SMILES": "N(=O)(=O)C1=C(N)C=CC(N)=C1",
    "meta_data": {
        "InChI": "InChI=1S/C6H7N3O2/c7-4-1-2-5(8)6(3-4)9(10)11/h1-3H,7-8H2",
        "InChIKey": null,
        "Canonical SMILES": "O=N(=O)C1=CC(N)=CC=C1N",
        "Molecular Formula": "C<sub>6</sub>H<sub>7</sub>N<sub>3</sub>O<sub>2</sub>",
        "Molecular Mass": "153.14",
        "Melting Point": "137 °C"
    }
}