{
    "cas_no": "57-11-4",
    "key_name": "Stearic acid",
    "cn_name": "硬脂酸;十八碳烷酸;十八烷酸;十八酸;司的令;脂蜡酸;硬蜡酸;硬酯酸;十八碳酸;",
    "alternate_name": "Octadecanoic acid;Stearic acid;Kam 1000;Kam 2000;Kam 3000;1-Heptadecanecarboxylic acid;Neo-Fat 18-59;Neo-Fat 18-53;Neo-Fat 18-54;Stearex Beads;Stearophanic acid;Hydrofol Acid 150;PD 185;Hystrene S 97;Hystrene T 70;Hystrene 80;Vanicol;Humko Industrene R;NAA 173;Neo-Fat 18;<em>n</em>-Octadecanoic acid;Industrene R;Barolub FTA;Loxiol G 20;Lunac S 20;Century 1210;Century 1220;Century 1230;Century 1240;Emersol 6349;Neo-Fat 18S;Selosol 920;Hystrene 9718NFFG;Hydrofol Acid 1895;17FA;A 1760;Pristerene 4900;Lunac S 90;Lunac S 40;NAA 180;Sunfat 18S;Norsorex AP;Lunac S 90KC;Lunac S 30;Emersol 153NF;Edenor ST 1;Edenor ST 20;Lunac 30;Hystrene 9718NF;Industrene 8718;400JB9103-88;Nopcocera LU 6418;Kortacid 1895;Adeka Fatty Acid SA 910;S 30C;S 30C (fatty acid);Lunac YA;WO 2;WO 2 (fatty acid);Radiacid 0427;Hystrene 9718;Lunac S 98;Emersol 120;Industrene 9018;F 3;F 3 (lubricant);SA 200;Edenor HT-JG 60;VLZ 200;Lunac S 50;Pristerene 9559;Edenor C 18/98;NAA 175S;Prifac 2918;Pristerene 4963;S 300;S 300 (fatty acid);G 270;TST;NAA 175;Nissan Unister NAA 180;Unister NAA 180;FA 1655;NSC 25956;NSC 261168;Pristerene 9429;Edenor C 18;Stearic Acid Cherry;Vis-Plus;Industrene 5016K;Hystrene 5016;SA 400 (fatty acid);SA 400;V 1890;Industrene 5016;Kortacid 1989;SA 1801;Dervacid 3155;Prifac 2979;Prifac 2981;S 40T;Tsubaki;NAA 173K;Kiri stearic acid;Prifrac 2981;Century 1224;NAA 180P;T 18;Lunac S 25;Radiacid 0152;F 1500;G 20;Edenor C 18/98-100;60R;60R Rubber Grade Stearic Acid;NAA 180P1;1-Octadecanoic acid;VEG-FGK;Beads Stearic Acid YR;HST;Radiacid 444;Lunac S 50V;Speziol;T 32;Adeka SA 300;B 1841;Emersol 7036;Lunac S 35;50S;Stearic Acid 50S;Parteck LUB-STA 50;Lunac S 90V;S 90V;MXST 100;Imex Stearic Acid ST;SA 1837;Palmac 98-18;Daiwax STF;Stearic acid 1801;Stearic acid 1840;PF 1808;Stearic Acid Camellia;F 1000;Stearic acid 1837;Stearic acid 1742;B 1801;R 300;SA 1810;300S;TPSA 1865;300S (carboxylic acid);Palmata 1801;AC 1801;S 920;S 50V;Edenor ST 4A;MDAS 101;Palmera A 9218;LU 6418;Omyacid 39;NAA 133;NF-GenAR;Radiacid 0444;NAA 176;550V;Stearic acid 300;SAD;SA 1081;Stearina TP 8;Stearic acid S;F 300;Palamac 98-18;VA 1839;ST 1801;ST-AC;POFAC 1855;Elofad TH 100;SA 1800;SA 180;S 98;Hystrene 5016NF;Stearina RG;SR-Sakura;Edenor C 18-98MY;S 108289;VA 1810;AS 1801;AS 1840;AS 1865;Pristerene 4928;AS 1895;Azewax DP 10;SA 1847;SA 1865;LC 60;LC 60 (fatty acid);Palmera B 1805;TP 8;VA 1865;Pristerene 4031;HST 1840;IRM 21;SF 1801;SA 1SOI;Radiacid 0417;Lubristic 995;Palmera A 9818;Palmera B 1810;ST 866 (acid);ST 031 (acid);ST 860;ST 866;ST 031;Stacid;Beads Stearic Acid Sakura;Stearina N;Stearin N;Stearic Acid F 2000;S 1838;SA 40 (carboxylic acid);SA 40;TRV 1665;TRV 1890;SA 1898;YE 3661;Aflux 52;Ligamed SA 1V;PH 100;Edenor ST 4;MC Stearate S;Stearic Acid YR",
    "duplicated_cas_no": "8013-28-3;8023-06-1;8037-40-9;8037-83-0;8039-51-8;8039-52-9;8039-53-0;8039-54-1;39390-61-9;58392-66-8;82497-27-6;134503-33-6;197923-10-7;294203-07-9;294203-15-9;1245726-94-6;1429745-84-5",
    "SMILES": "C(CCCCCCCCCCC)CCCCCC(O)=O",
    "meta_data": {
        "InChI": "InChI=1S/C18H36O2/c1-2-3-4-5-6-7-8-9-10-11-12-13-14-15-16-17-18(19)20/h2-17H2,1H3,(H,19,20)",
        "InChIKey": null,
        "Canonical SMILES": "O=C(O)CCCCCCCCCCCCCCCCC",
        "Molecular Formula": "C<sub>18</sub>H<sub>36</sub>O<sub>2</sub>",
        "Molecular Mass": "284.48",
        "Boiling Point": "232 °C @ Press: 15 Torr",
        "Melting Point": "69.4 °C",
        "Density": "0.9408 g/cm³ @ Temp: 20 °C"
    }
}