{
    "cas_no": "3459-92-5",
    "key_name": "Bis(phenylmethyl) carbonate",
    "cn_name": null,
    "alternate_name": "Carbonic acid, bis(phenylmethyl) ester;Carbonic acid, dibenzyl ester;Bis(phenylmethyl) carbonate;Dibenzyl carbonate;Benzyl carbonate;NSC 406789",
    "duplicated_cas_no": "",
    "SMILES": "C(OC(OCC1=CC=CC=C1)=O)C2=CC=CC=C2",
    "meta_data": {
        "InChI": "InChI=1S/C15H14O3/c16-15(17-11-13-7-3-1-4-8-13)18-12-14-9-5-2-6-10-14/h1-10H,11-12H2",
        "InChIKey": null,
        "Canonical SMILES": "O=C(OCC=1C=CC=CC1)OCC=2C=CC=CC2",
        "Molecular Formula": "C<sub>15</sub>H<sub>14</sub>O<sub>3</sub>",
        "Molecular Mass": "242.27",
        "Boiling Point": "175-180 °C @ Press: 4 Torr",
        "Melting Point": "29-29.5 °C"
    }
}