{
    "cas_no": "107-06-2",
    "key_name": "1,2-Dichloroethane",
    "cn_name": "1,2-二氯乙烷;二氯化乙烯;",
    "alternate_name": "Ethane, 1,2-dichloro-;1,2-Dichloroethane;Brocide;<em>sym</em>-Dichloroethane;α,β-Dichloroethane;Dutch liquid;Ethylene chloride;Ethylene dichloride;Glycol dichloride;1,2-Bichloroethane;1,2-Dichlorethane;Dichlor-Mulsion;DCE;HCC 150;1,2-Ethylene dichloride",
    "duplicated_cas_no": "52399-93-6",
    "SMILES": "C(CCl)Cl",
    "meta_data": {
        "InChI": "InChI=1S/C2H4Cl2/c3-1-2-4/h1-2H2",
        "InChIKey": null,
        "Canonical SMILES": "ClCCCl",
        "Molecular Formula": "C<sub>2</sub>H<sub>4</sub>Cl<sub>2</sub>",
        "Molecular Mass": "98.96",
        "Boiling Point": "83.5 °C",
        "Melting Point": "-35.3 °C",
        "Density": "1.2351 g/cm³ @ Temp: 20 °C"
    }
}