{
    "cas_no": "90280-13-0",
    "key_name": "2-[[Bis(4-fluorophenyl)methyl]sulfinyl]acetamide",
    "cn_name": null,
    "alternate_name": "Acetamide, 2-[[bis(4-fluorophenyl)methyl]sulfinyl]-;2-[[Bis(4-fluorophenyl)methyl]sulfinyl]acetamide;Flmodafinil;CRL 40,940;Bisfluoromodafinil;Lauflumide;NLS 4",
    "duplicated_cas_no": "",
    "SMILES": "C(S(CC(N)=O)=O)(C1=CC=C(F)C=C1)C2=CC=C(F)C=C2",
    "meta_data": {
        "InChI": "InChI=1S/C15H13F2NO2S/c16-12-5-1-10(2-6-12)15(21(20)9-14(18)19)11-3-7-13(17)8-4-11/h1-8,15H,9H2,(H2,18,19)",
        "InChIKey": null,
        "Canonical SMILES": "O=C(N)CS(=O)C(C1=CC=C(F)C=C1)C2=CC=C(F)C=C2",
        "Molecular Formula": "C<sub>15</sub>H<sub>13</sub>F<sub>2</sub>NO<sub>2</sub>S",
        "Molecular Mass": "309.33",
        "Melting Point": "78-80 °C"
    }
}