{
    "cas_no": "120-13-8",
    "key_name": "4-Ethoxy-3-methoxybenzeneacetic acid",
    "cn_name": "4-乙氧基-3-甲氧基苯乙酸;",
    "alternate_name": "Benzeneacetic acid, 4-ethoxy-3-methoxy-;Acetic acid, (4-ethoxy-3-methoxyphenyl)-;4-Ethoxy-3-methoxybenzeneacetic acid;(4-Ethoxy-3-methoxyphenyl)acetic acid;2-(4-Ethoxy-3-methoxyphenyl)acetic acid;NSC 62696",
    "duplicated_cas_no": "",
    "SMILES": "O(C)C1=C(OCC)C=CC(CC(O)=O)=C1",
    "meta_data": {
        "InChI": "InChI=1S/C11H14O4/c1-3-15-9-5-4-8(7-11(12)13)6-10(9)14-2/h4-6H,3,7H2,1-2H3,(H,12,13)",
        "InChIKey": null,
        "Canonical SMILES": "O=C(O)CC1=CC=C(OCC)C(OC)=C1",
        "Molecular Formula": "C<sub>11</sub>H<sub>14</sub>O<sub>4</sub>",
        "Molecular Mass": "210.23",
        "Melting Point": "183-185 °C"
    }
}