{
    "cas_no": "581-49-7",
    "key_name": "(-)-Anatabine",
    "cn_name": null,
    "alternate_name": "2,3′-Bipyridine, 1,2,3,6-tetrahydro-, (2<em>S</em>)-;Anatabine;2,3′-Bipyridine, 1,2,3,6-tetrahydro-, (<em>S</em>)-;(2<em>S</em>)-1,2,3,6-Tetrahydro-2,3′-bipyridine;Anatabine, (-)-;(-)-Anatabine;(<em>S</em>)-(-)-Anatabine;(<em>S</em>)-Anatabine;3-[(2S)-1,2,3,6-Tetrahydropyridin-2-yl]pyridine",
    "duplicated_cas_no": "",
    "SMILES": "C=1(C=CC=NC1)[C@@H]2CC=CCN2",
    "meta_data": {
        "InChI": "InChI=1S/C10H12N2/c1-2-7-12-10(5-1)9-4-3-6-11-8-9/h1-4,6,8,10,12H,5,7H2/t10-/m0/s1",
        "InChIKey": null,
        "Canonical SMILES": "N=1C=CC=C(C1)C2NCC=CC2",
        "Molecular Formula": "C<sub>10</sub>H<sub>12</sub>N<sub>2</sub>",
        "Molecular Mass": "160.22",
        "Boiling Point": "145.5 °C"
    }
}