{
    "cas_no": "120568-11-8",
    "key_name": "5-(4′-Methyl-1,1′-biphenyl-2-yl)-1<em>H</em>-tetrazole",
    "cn_name": null,
    "alternate_name": "2<em>H</em>-Tetrazole, 5-(4′-methyl[1,1′-biphenyl]-2-yl)-;1<em>H</em>-Tetrazole, 5-(4′-methyl[1,1′-biphenyl]-2-yl)-;5-(4′-Methyl[1,1′-biphenyl]-2-yl)-2<em>H</em>-tetrazole;5-(4′-Methylbiphenyl-2-yl)tetrazole;5-[2-(4′-Methylbiphenyl)]tetrazole;2-(Tetrazol-5-yl)-4′-methyl-1,1′-biphenyl;L 158507;5-(4′-Methyl-1,1′-biphenyl-2-yl)-1<em>H</em>-tetrazole;5-(4′-Methyl-2-biphenyl)tetrazole;5-(4′-Methylbiphenyl-2-yl)-1<em>H</em>-tetrazole",
    "duplicated_cas_no": "1695540-80-7",
    "SMILES": "CC1=CC=C(C2=C(C=CC=C2)C=3NN=NN3)C=C1",
    "meta_data": {
        "InChI": "InChI=1S/C14H12N4/c1-10-6-8-11(9-7-10)12-4-2-3-5-13(12)14-15-17-18-16-14/h2-9H,1H3,(H,15,16,17,18)",
        "InChIKey": null,
        "Canonical SMILES": "N1=NNC(=N1)C=2C=CC=CC2C=3C=CC(=CC3)C",
        "Molecular Formula": "C<sub>14</sub>H<sub>12</sub>N<sub>4</sub>",
        "Molecular Mass": "236.27",
        "Melting Point": "150 °C"
    }
}