{
    "cas_no": "136-80-1",
    "key_name": "2-[(2-Methylphenyl)amino]ethanol",
    "cn_name": "N-羟乙基-邻甲基苯胺;N-羟乙基-邻甲基苯胺;",
    "alternate_name": "Ethanol, 2-[(2-methylphenyl)amino]-;Ethanol, 2-<em>o</em>-toluidino-;2-[(2-Methylphenyl)amino]ethanol;<em>N</em>-β-Hydroxyethyl-<em>o</em>-toluidine;<em>o</em>-Toluidino ethanol;<em>o</em>-Tolyl ethanolamine;<em>N</em>-(2-Hydroxyethyl)-<em>o</em>-toluidine;2-(<em>o</em>-Toluidino)ethanol;2-<em>o</em>-Tolylaminoethanol;<em>N</em>-(2-Hydroxyethyl)-2-methylaniline;NSC 2152;2-[(2-Methylphenyl)amino]ethan-1-ol;2-(2-Methylanilino)ethanol",
    "duplicated_cas_no": "",
    "SMILES": "N(CCO)C1=C(C)C=CC=C1",
    "meta_data": {
        "InChI": "InChI=1S/C9H13NO/c1-8-4-2-3-5-9(8)10-6-7-11/h2-5,10-11H,6-7H2,1H3",
        "InChIKey": null,
        "Canonical SMILES": "OCCNC=1C=CC=CC1C",
        "Molecular Formula": "C<sub>9</sub>H<sub>13</sub>NO",
        "Molecular Mass": "151.21",
        "Boiling Point": "285.5 °C",
        "Density": "1.0962 g/cm³ @ Temp: 20 °C"
    }
}