{
    "cas_no": "586-95-8",
    "key_name": "4-Pyridinemethanol",
    "cn_name": "4-吡啶甲醇;",
    "alternate_name": "4-Pyridinemethanol;4-(Hydroxymethyl)pyridine;4-Pyridylcarbinol;4-Pyridylmethanol;γ-Picolyl alcohol;4-Pyridinecarbinol;4-Picolyl alcohol;4-Pyridylmethyl alcohol;(Pyridin-4-yl)methanol;NSC 126907;NSC 26024;NSC 49167;4-(Hydroxymethylene)pyridine",
    "duplicated_cas_no": "",
    "SMILES": "C(O)C=1C=CN=CC1",
    "meta_data": {
        "InChI": "InChI=1S/C6H7NO/c8-5-6-1-3-7-4-2-6/h1-4,8H,5H2",
        "InChIKey": null,
        "Canonical SMILES": "OCC=1C=CN=CC1",
        "Molecular Formula": "C<sub>6</sub>H<sub>7</sub>NO",
        "Molecular Mass": "109.13",
        "Boiling Point": "140-142 °C @ Press: 12 Torr",
        "Melting Point": "53 °C"
    }
}