{
    "cas_no": "28165-50-6",
    "key_name": "2-Amino-6-bromophenol",
    "cn_name": "2-氨基-6-溴苯酚;",
    "alternate_name": "Phenol, 2-amino-6-bromo-;2-Amino-6-bromophenol;2-Bromo-6-aminophenol",
    "duplicated_cas_no": "",
    "SMILES": "OC1=C(Br)C=CC=C1N",
    "meta_data": {
        "InChI": "InChI=1S/C6H6BrNO/c7-4-2-1-3-5(8)6(4)9/h1-3,9H,8H2",
        "InChIKey": null,
        "Canonical SMILES": "BrC1=CC=CC(N)=C1O",
        "Molecular Formula": "C<sub>6</sub>H<sub>6</sub>BrNO",
        "Molecular Mass": "188.02",
        "Melting Point": "84-86 °C"
    }
}