{
    "cas_no": "490-31-3",
    "key_name": "Robinetin",
    "cn_name": null,
    "alternate_name": "4<em>H</em>-1-Benzopyran-4-one, 3,7-dihydroxy-2-(3,4,5-trihydroxyphenyl)-;Robinetin;Flavone, 3,3′,4′,5′,7-pentahydroxy-;3,7-Dihydroxy-2-(3,4,5-trihydroxyphenyl)-4<em>H</em>-1-benzopyran-4-one;Norkanugin;3,3′,4′,5′,7-Pentahydroxyflavone;3,7,3′,4′,5′-Pentahydroxyflavone;NSC 407331;NSC 656274;3,7-Dihydroxy-2-(3,4,5-trihydroxyphenyl)-4<em>H</em>-chromen-4-one;3,7-Dihydroxy-2-(3,4,5-trihydroxyphenyl)chromen-4-one",
    "duplicated_cas_no": "",
    "SMILES": "OC1=C(OC=2C(C1=O)=CC=C(O)C2)C3=CC(O)=C(O)C(O)=C3",
    "meta_data": {
        "InChI": "InChI=1S/C15H10O7/c16-7-1-2-8-11(5-7)22-15(14(21)12(8)19)6-3-9(17)13(20)10(18)4-6/h1-5,16-18,20-21H",
        "InChIKey": null,
        "Canonical SMILES": "O=C1C(O)=C(OC2=CC(O)=CC=C12)C=3C=C(O)C(O)=C(O)C3",
        "Molecular Formula": "C<sub>15</sub>H<sub>10</sub>O<sub>7</sub>",
        "Molecular Mass": "302.24",
        "Melting Point": "310-312 °C (decomp)"
    }
}