{
    "cas_no": "624-78-2",
    "key_name": "<em>N</em>-Ethyl-<em>N</em>-methylamine",
    "cn_name": "N-乙基甲基胺;N-乙基甲胺;甲乙胺;",
    "alternate_name": "Ethanamine, <em>N</em>-methyl-;Ethylamine, <em>N</em>-methyl-;<em>N</em>-Methylethanamine;<em>N</em>-Methylethylamine;Ethylmethylamine;Methylethylamine;Methylaminoethane;<em>N</em>-Methyl-<em>N</em>-ethylamine;<em>N</em>-Ethylmethylamine;NMEA;<em>N</em>-Ethyl-<em>N</em>-methylamine",
    "duplicated_cas_no": "",
    "SMILES": "C(NC)C",
    "meta_data": {
        "InChI": "InChI=1S/C3H9N/c1-3-4-2/h4H,3H2,1-2H3",
        "InChIKey": null,
        "Canonical SMILES": "N(C)CC",
        "Molecular Formula": "C<sub>3</sub>H<sub>9</sub>N",
        "Molecular Mass": "59.11",
        "Boiling Point": "36.5 °C"
    }
}