{
    "cas_no": "3147-55-5",
    "key_name": "3,5-Dibromosalicylic acid",
    "cn_name": "3,5-二溴水杨酸;3,5-二溴-2-羟基苯甲酸;3,5-二溴邻羟基苯甲酸;",
    "alternate_name": "Benzoic acid, 3,5-dibromo-2-hydroxy-;Salicylic acid, 3,5-dibromo-;3,5-Dibromo-2-hydroxybenzoic acid;2-Hydroxy-3,5-dibromobenzoic acid;3,5-Dibromosalicylic acid;NSC 1062",
    "duplicated_cas_no": "",
    "SMILES": "C(O)(=O)C1=C(O)C(Br)=CC(Br)=C1",
    "meta_data": {
        "InChI": "InChI=1S/C7H4Br2O3/c8-3-1-4(7(11)12)6(10)5(9)2-3/h1-2,10H,(H,11,12)",
        "InChIKey": null,
        "Canonical SMILES": "O=C(O)C=1C=C(Br)C=C(Br)C1O",
        "Molecular Formula": "C<sub>7</sub>H<sub>4</sub>Br<sub>2</sub>O<sub>3</sub>",
        "Molecular Mass": "295.91",
        "Melting Point": "228 °C"
    }
}