{
    "cas_no": "1633-78-9",
    "key_name": "6-Mercapto-1-hexanol",
    "cn_name": "6-巯基己-1-醇;",
    "alternate_name": "1-Hexanol, 6-mercapto-;6-Mercapto-1-hexanol;6-Hydroxy-1-hexanethiol;6-Mercaptohexanol;Mercaptohexanol;1-Mercapto-6-hexanol;6-Hydroxyhexyl mercaptan",
    "duplicated_cas_no": "874746-54-0",
    "SMILES": "C(CCCS)CCO",
    "meta_data": {
        "InChI": "InChI=1S/C6H14OS/c7-5-3-1-2-4-6-8/h7-8H,1-6H2",
        "InChIKey": null,
        "Canonical SMILES": "OCCCCCCS",
        "Molecular Formula": "C<sub>6</sub>H<sub>14</sub>OS",
        "Molecular Mass": "134.24",
        "Boiling Point": "118-119 °C @ Press: 15 Torr"
    }
}