{
    "cas_no": "77301-42-9",
    "key_name": "1-(6-Methoxy-2-naphthyl)ethanol",
    "cn_name": "1-(6-甲氧基-2-萘甲基)乙醇;",
    "alternate_name": "2-Naphthalenemethanol, 6-methoxy-α-methyl-;6-Methoxy-α-methyl-2-naphthalenemethanol;α-(6-Methoxy-2-naphthyl)ethyl alcohol;α-(6-Methoxy-2-naphthyl)ethanol;1-(6-Methoxy-2-naphthyl)ethanol;(±)-1-(6-Methoxynaphthyl)ethanol;1-(6′-Methoxy-2-naphthyl)ethanol;2-(1-Hydroxyethyl)-6-methoxynaphthalene;1-(6-Methoxynaphthalen-2-yl)ethanol;1-(6-Methoxynaphthalen-2-yl)ethan-1-ol",
    "duplicated_cas_no": "125712-80-3",
    "SMILES": "C(C)(O)C1=CC2=C(C=C(OC)C=C2)C=C1",
    "meta_data": {
        "InChI": "InChI=1S/C13H14O2/c1-9(14)10-3-4-12-8-13(15-2)6-5-11(12)7-10/h3-9,14H,1-2H3",
        "InChIKey": null,
        "Canonical SMILES": "OC(C1=CC=C2C=C(OC)C=CC2=C1)C",
        "Molecular Formula": "C<sub>13</sub>H<sub>14</sub>O<sub>2</sub>",
        "Molecular Mass": "202.25",
        "Melting Point": "113.5-114.5 °C"
    }
}