{
    "cas_no": "47458-32-2",
    "key_name": "Dihydro-3-octadecyl-2,5-furandione",
    "cn_name": "十八烷基琥珀酸酐;",
    "alternate_name": "2,5-Furandione, dihydro-3-octadecyl-;Dihydro-3-octadecyl-2,5-furandione;Octadecylsuccinic anhydride;<em>n</em>-Octadecylsuccinic anhydride;Stearylsuccinic anhydride;NSC 79894;2-Octadecylsuccinic anhydride;3-Octadecyloxolane-2,5-dione",
    "duplicated_cas_no": "2250016-94-3",
    "SMILES": "C(CCCCCCCCCCCCCCCCC)C1C(=O)OC(=O)C1",
    "meta_data": {
        "InChI": "InChI=1S/C22H40O3/c1-2-3-4-5-6-7-8-9-10-11-12-13-14-15-16-17-18-20-19-21(23)25-22(20)24/h20H,2-19H2,1H3",
        "InChIKey": null,
        "Canonical SMILES": "O=C1OC(=O)C(C1)CCCCCCCCCCCCCCCCCC",
        "Molecular Formula": "C<sub>22</sub>H<sub>40</sub>O<sub>3</sub>",
        "Molecular Mass": "352.55",
        "Melting Point": "80-81 °C"
    }
}