{
    "cas_no": "79-53-8",
    "key_name": "1-Chloro-1,1,3,3,3-pentafluoro-2-propanone",
    "cn_name": "对戊氧基苯酚;",
    "alternate_name": "2-Propanone, 1-chloro-1,1,3,3,3-pentafluoro-;1-Chloro-1,1,3,3,3-pentafluoro-2-propanone;Chloropentafluoro-2-propanone;Chloropentafluoroacetone;1,1,1,3,3-Pentafluoro-3-chloroacetone;Pentafluorochloroacetone;α-Chloroperfluoroacetone",
    "duplicated_cas_no": "",
    "SMILES": "C(C(Cl)(F)F)(C(F)(F)F)=O",
    "meta_data": {
        "InChI": "InChI=1S/C3ClF5O/c4-2(5,6)1(10)3(7,8)9",
        "InChIKey": null,
        "Canonical SMILES": "O=C(C(F)(F)F)C(F)(F)Cl",
        "Molecular Formula": "C<sub>3</sub>ClF<sub>5</sub>O",
        "Molecular Mass": "182.48",
        "Boiling Point": "8 °C",
        "Melting Point": "-133 °C"
    }
}