{
    "cas_no": "505-10-2",
    "key_name": "3-(Methylthio)-1-propanol",
    "cn_name": "3-甲硫基丙醇;",
    "alternate_name": "1-Propanol, 3-(methylthio)-;3-(Methylthio)-1-propanol;γ-Methylmercaptopropyl alcohol;Methionol;3-Methylmercapto-1-propanol;3-Hydroxypropyl methyl sulfide;3-(Methylthio)propanol;4-Thiapentan-1-ol;3-(Methylsulfanyl)-1-propanol;NSC 2859",
    "duplicated_cas_no": "",
    "SMILES": "C(CSC)CO",
    "meta_data": {
        "InChI": "InChI=1S/C4H10OS/c1-6-4-2-3-5/h5H,2-4H2,1H3",
        "InChIKey": null,
        "Canonical SMILES": "OCCCSC",
        "Molecular Formula": "C<sub>4</sub>H<sub>10</sub>OS",
        "Molecular Mass": "106.19",
        "Boiling Point": "102 °C @ Press: 14 Torr",
        "Density": "1.030 g/cm³ @ Temp: 20 °C"
    }
}