{
    "cas_no": "1462-86-8",
    "key_name": "3-Aminopicolinic acid",
    "cn_name": "3-氨基吡啶-2-羧酸;3-氨基吡啶-2-甲酸;",
    "alternate_name": "2-Pyridinecarboxylic acid, 3-amino-;Picolinic acid, 3-amino-;3-Amino-2-pyridinecarboxylic acid;3-Aminopicolinic acid;3-Amino-2-carboxypyridine;3-Amino-2-picolinic acid",
    "duplicated_cas_no": "",
    "SMILES": "C(O)(=O)C1=C(N)C=CC=N1",
    "meta_data": {
        "InChI": "InChI=1S/C6H6N2O2/c7-4-2-1-3-8-5(4)6(9)10/h1-3H,7H2,(H,9,10)",
        "InChIKey": null,
        "Canonical SMILES": "O=C(O)C1=NC=CC=C1N",
        "Molecular Formula": "C<sub>6</sub>H<sub>6</sub>N<sub>2</sub>O<sub>2</sub>",
        "Molecular Mass": "138.12",
        "Melting Point": "210 °C"
    }
}