{
    "cas_no": "24426-16-2",
    "key_name": "<em>N</em>,<em>N</em>-Diethyldiethylenetriamine",
    "cn_name": null,
    "alternate_name": "1,2-Ethanediamine, <em>N</em><sup>2</sup>-(2-aminoethyl)-<em>N</em><sup>1</sup>,<em>N</em><sup>1</sup>-diethyl-;Diethylenetriamine, 1,1-diethyl-;1,2-Ethanediamine, <em>N</em>′-(2-aminoethyl)-<em>N</em>,<em>N</em>-diethyl-;<em>N</em><sup>2</sup>-(2-Aminoethyl)-<em>N</em><sup>1</sup>,<em>N</em><sup>1</sup>-diethyl-1,2-ethanediamine;<em>N</em>,<em>N</em>-Diethyldiethylenetriamine;NSC 166316;<em>N</em>′-(2-Diethylaminoethyl)ethane-1,2-diamine;<em>N</em>-(2-Diethylaminoethyl)ethane-1,2-diamine;<em>N</em>-(2-Diethylaminoethyl)ethylenediamine;(2-Aminoethyl)[2-(diethylamino)ethyl]amine;[2-[(2-Aminoethyl)amino]ethyl]diethylamine",
    "duplicated_cas_no": "",
    "SMILES": "N(CCNCCN)(CC)CC",
    "meta_data": {
        "InChI": "InChI=1S/C8H21N3/c1-3-11(4-2)8-7-10-6-5-9/h10H,3-9H2,1-2H3",
        "InChIKey": null,
        "Canonical SMILES": "NCCNCCN(CC)CC",
        "Molecular Formula": "C<sub>8</sub>H<sub>21</sub>N<sub>3</sub>",
        "Molecular Mass": "159.27",
        "Boiling Point": "112-114 °C @ Press: 24 Torr",
        "Density": "0.8761 g/cm³ @ Temp: 20 °C"
    }
}