{
    "cas_no": "7757-79-1",
    "key_name": "Potassium nitrate",
    "cn_name": "硝酸钾;",
    "alternate_name": "Nitric acid potassium salt (1:1);Nitric acid potassium salt;Potassium nitrate (1:1);Nitre;Niter;Potassium nitrate;Saltpeter;Collo-Bo;Nitric acid, potassium salt;E 252;Krista K;Krista K Plus;Nitrokalite",
    "duplicated_cas_no": "96193-83-8",
    "SMILES": "N(=O)(=O)O.[K]",
    "meta_data": {
        "InChI": "InChI=1S/K.HNO3/c;2-1(3)4/h;(H,2,3,4)",
        "InChIKey": null,
        "Canonical SMILES": "[K].O=N(=O)O",
        "Molecular Formula": "HNO<sub>3</sub>.K",
        "Molecular Mass": "",
        "Melting Point": "334 °C",
        "Density": "2.109 g/cm³ @ Temp: 16 °C"
    }
}