{
    "cas_no": "132-22-9",
    "key_name": "(±)-Chlorpheniramine",
    "cn_name": null,
    "alternate_name": "2-Pyridinepropanamine, γ-(4-chlorophenyl)-<em>N</em>,<em>N</em>-dimethyl-;Pyridine, 2-[<em>p</em>-chloro-α-[2-(dimethylamino)ethyl]benzyl]-;γ-(4-Chlorophenyl)-<em>N</em>,<em>N</em>-dimethyl-2-pyridinepropanamine;Allergican;2-[<em>p</em>-Chloro-α-[2-(dimethylamino)ethyl]benzyl]pyridine;Chlorophenylpyridamine;1-(<em>p</em>-Chlorophenyl)-1-(2-pyridyl)-3-dimethylaminopropane;3-(<em>p</em>-Chlorophenyl)-3-(2-pyridyl)-<em>N</em>,<em>N</em>-dimethylpropylamine;γ-(4-Chlorophenyl)-γ-(2-pyridyl)propyldimethylamine;Chloroprophenpyridamine;Chlorphenamine;Chlorpheniramine;Chlorprophenpyridamine;4-Chloropheniramine;Haynon;Chloropheniramine;(±)-Chloropheniramine;(±)-Chlorpheniramine;<em>dl</em>-1-(<em>p</em>-Chlorophenyl)-1-(2-pyridyl)-3-(dimethylamino)propane;<em>RS</em>-Chlorpheniramine;Chloropheriamine;[3-(4-Chlorophenyl)-3-(pyridin-2-yl)propyl]dimethylamine;3-(4-Chlorophenyl)-<em>N</em>,<em>N</em>-dimethyl-3-(pyridin-2-yl)propan-1-amine",
    "duplicated_cas_no": "42882-96-2;46970-45-0",
    "SMILES": "C(CCN(C)C)(C1=CC=C(Cl)C=C1)C2=CC=CC=N2",
    "meta_data": {
        "InChI": "InChI=1S/C16H19ClN2/c1-19(2)12-10-15(16-5-3-4-11-18-16)13-6-8-14(17)9-7-13/h3-9,11,15H,10,12H2,1-2H3",
        "InChIKey": null,
        "Canonical SMILES": "ClC1=CC=C(C=C1)C(C2=NC=CC=C2)CCN(C)C",
        "Molecular Formula": "C<sub>16</sub>H<sub>19</sub>ClN<sub>2</sub>",
        "Molecular Mass": "274.79",
        "Boiling Point": "141-143 °C @ Press: 1.0 Torr"
    }
}