{
    "cas_no": "78-00-2",
    "key_name": "Tetraethyllead",
    "cn_name": "四乙基铅;发动机燃料抗爆混合物;",
    "alternate_name": "Plumbane, tetraethyl-;Tetraethylplumbane;Lead, tetraethyl-;TEL;Tetraethyllead;NSC 22314;MeSH ID: D013756",
    "duplicated_cas_no": "",
    "SMILES": "[Pb](CC)(CC)(CC)CC",
    "meta_data": {
        "InChI": "InChI=1S/4C2H5.Pb/c4*1-2;/h4*1H2,2H3;",
        "InChIKey": null,
        "Canonical SMILES": "CC[Pb](CC)(CC)CC",
        "Molecular Formula": "C<sub>8</sub>H<sub>20</sub>Pb",
        "Molecular Mass": "323.44",
        "Boiling Point": "202 °C",
        "Melting Point": "-136.8 °C",
        "Density": "1.653 g/cm³ @ Temp: 20 °C"
    }
}