{
    "cas_no": "574-09-4",
    "key_name": "(±)-Benzoin ethyl ether",
    "cn_name": "2-乙氧基-1,2-二苯基乙酮;安息香乙醚;苯偶姻乙醚;乙氧基苯偶姻;",
    "alternate_name": "Ethanone, 2-ethoxy-1,2-diphenyl-;Acetophenone, 2-ethoxy-2-phenyl-;2-Ethoxy-1,2-diphenylethanone;Benzoin ethyl ether;2-Ethoxy-2-phenylacetophenone;Ethyl benzoin ether;2-Ethoxybenzoin;Ethoxybenzoin;<em>dl</em>-Benzoin ethyl ether;(±)-Benzoin ethyl ether;Seikuol BEE;PS 8A;2-Ethoxy-1,2-diphenylethan-1-one",
    "duplicated_cas_no": "5987-97-3",
    "SMILES": "C(C(=O)C1=CC=CC=C1)(OCC)C2=CC=CC=C2",
    "meta_data": {
        "InChI": "InChI=1S/C16H16O2/c1-2-18-16(14-11-7-4-8-12-14)15(17)13-9-5-3-6-10-13/h3-12,16H,2H2,1H3",
        "InChIKey": null,
        "Canonical SMILES": "O=C(C=1C=CC=CC1)C(OCC)C=2C=CC=CC2",
        "Molecular Formula": "C<sub>16</sub>H<sub>16</sub>O<sub>2</sub>",
        "Molecular Mass": "240.30",
        "Boiling Point": "201-202 °C @ Press: 5 Torr",
        "Melting Point": "62 °C"
    }
}