{
    "cas_no": "622-57-1",
    "key_name": "<em>N</em>-Ethyl-4-methylaniline",
    "cn_name": "N-乙基-4-甲基苯胺;N-乙基对甲苯胺;",
    "alternate_name": "Benzenamine, <em>N</em>-ethyl-4-methyl-;<em>p</em>-Toluidine, <em>N</em>-ethyl-;<em>N</em>-Ethyl-4-methylbenzenamine;<em>N</em>-Ethyl-<em>p</em>-toluidine;<em>p</em>-Methyl-<em>N</em>-ethylaniline;<em>N</em>-Ethyl-4-methylaniline;<em>N</em>-Ethyl-<em>p</em>-methylaniline;<em>N</em>-Ethyl-4-toluidine;NSC 8889;4-(Ethylamino)toluene",
    "duplicated_cas_no": "",
    "SMILES": "N(CC)C1=CC=C(C)C=C1",
    "meta_data": {
        "InChI": "InChI=1S/C9H13N/c1-3-10-9-6-4-8(2)5-7-9/h4-7,10H,3H2,1-2H3",
        "InChIKey": null,
        "Canonical SMILES": "C=1C=C(C=CC1NCC)C",
        "Molecular Formula": "C<sub>9</sub>H<sub>13</sub>N",
        "Molecular Mass": "135.21",
        "Boiling Point": "217 °C"
    }
}