{
    "cas_no": "500-44-7",
    "key_name": "Mimosine",
    "cn_name": "含羞草素;含羞草素;含羞草碱;含羞草氨酸;L(-)-含羞草氨酸[β-[N-(3-羟基-4-吡啶酮)]-α-氨基丙酸];",
    "alternate_name": "1(4<em>H</em>)-Pyridinepropanoic acid, α-amino-3-hydroxy-4-oxo-, (α<em>S</em>)-;Mimosine;1(4<em>H</em>)-Pyridinepropanoic acid, α-amino-3-hydroxy-4-oxo-, (<em>S</em>)-;(α<em>S</em>)-α-Amino-3-hydroxy-4-oxo-1(4<em>H</em>)-pyridinepropanoic acid;Leucaenine;Leucaenol;Leucenol;Leucenine;<span class=\"text-smallcaps\">L</span>-Mimosine;Mimosin;NSC 69188;MeSH ID: D008898",
    "duplicated_cas_no": "27678-82-6",
    "SMILES": "C([C@@H](C(O)=O)N)N1C=C(O)C(=O)C=C1",
    "meta_data": {
        "InChI": "InChI=1S/C8H10N2O4/c9-5(8(13)14)3-10-2-1-6(11)7(12)4-10/h1-2,4-5,12H,3,9H2,(H,13,14)/t5-/m0/s1",
        "InChIKey": null,
        "Canonical SMILES": "O=C(O)C(N)CN1C=CC(=O)C(O)=C1",
        "Molecular Formula": "C<sub>8</sub>H<sub>10</sub>N<sub>2</sub>O<sub>4</sub>",
        "Molecular Mass": "198.18",
        "Melting Point": "225 °C"
    }
}