{
    "cas_no": "23138-55-8",
    "key_name": "3-Bromophenyl isocyanate",
    "cn_name": "3-溴苯基异氰酸酯;",
    "alternate_name": "Benzene, 1-bromo-3-isocyanato-;Isocyanic acid, <em>m</em>-bromophenyl ester;1-Bromo-3-isocyanatobenzene;3-Bromophenyl isocyanate;<em>m</em>-Bromophenyl isocyanate;1-Isocyanato-3-bromobenzene;3-Isocyanatobromobenzene",
    "duplicated_cas_no": "",
    "SMILES": "N(=C=O)C1=CC(Br)=CC=C1",
    "meta_data": {
        "InChI": "InChI=1S/C7H4BrNO/c8-6-2-1-3-7(4-6)9-5-10/h1-4H",
        "InChIKey": null,
        "Canonical SMILES": "O=C=NC=1C=CC=C(Br)C1",
        "Molecular Formula": "C<sub>7</sub>H<sub>4</sub>BrNO",
        "Molecular Mass": "198.02",
        "Boiling Point": "73.5 °C @ Press: 6 Torr"
    }
}