{
    "cas_no": "52-53-9",
    "key_name": "Verapamil",
    "cn_name": "维拉帕米;5-((3,4-二甲氧基苯乙基)甲基氨基)-2-(3,4-二甲氧基苯基)-2-异丙基戊腈;",
    "alternate_name": "Benzeneacetonitrile, α-[3-[[2-(3,4-dimethoxyphenyl)ethyl]methylamino]propyl]-3,4-dimethoxy-α-(1-methylethyl)-;Valeronitrile, 5-[(3,4-dimethoxyphenethyl)methylamino]-2-(3,4-dimethoxyphenyl)-2-isopropyl-;α-[3-[[2-(3,4-Dimethoxyphenyl)ethyl]methylamino]propyl]-3,4-dimethoxy-α-(1-methylethyl)benzeneacetonitrile;D 365;CP 16533-1;5-[(3,4-Dimethoxyphenethyl)methylamino]-2-(3,4-dimethoxy phenyl)-2-isopropylvaleronitrile;Iproveratril;Verapamil;NSC 272306NA;(±)-Verapamil;<em>dl</em>-Verapamil;<em>R</em>,<em>S</em>-Verapamil;VPL;Lekoptin;2-(3,4-Dimethoxyphenyl)-5-[[2-(3,4-dimethoxyphenyl)ethyl](methyl)amino]-2-isopropylpentanenitrile;2-(3,4-Dimethoxyphenyl)-5-[2-(3,4-dimethoxyphenyl)ethyl-methylamino]-2-propan-2-ylpentanenitrile;2-(3,4-Dimethoxyphenyl)-5-[[2-(3,4-dimethoxyphenyl)ethyl](methyl)amino]-2-(propan-2-yl)pentanenitrile;MeSH ID: D014700",
    "duplicated_cas_no": "7482-85-1;56949-77-0;1007128-78-0;2723558-88-9",
    "SMILES": "C(CCCN(CCC1=CC(OC)=C(OC)C=C1)C)(C(C)C)(C#N)C2=CC(OC)=C(OC)C=C2",
    "meta_data": {
        "InChI": "InChI=1S/C27H38N2O4/c1-20(2)27(19-28,22-10-12-24(31-5)26(18-22)33-7)14-8-15-29(3)16-13-21-9-11-23(30-4)25(17-21)32-6/h9-12,17-18,20H,8,13-16H2,1-7H3",
        "InChIKey": null,
        "Canonical SMILES": "N#CC(C1=CC=C(OC)C(OC)=C1)(CCCN(C)CCC2=CC=C(OC)C(OC)=C2)C(C)C",
        "Molecular Formula": "C<sub>27</sub>H<sub>38</sub>N<sub>2</sub>O<sub>4</sub>",
        "Molecular Mass": "454.60",
        "Boiling Point": "243-246 °C",
        "Melting Point": "&lt;25 °C"
    }
}