{
    "cas_no": "60-09-3",
    "key_name": "4-Aminoazobenzene",
    "cn_name": "4-氨基偶氮苯;4-苯基偶氮基苯胺;对氨基偶氮苯;苯胺黄;安尼林黄;标准(偶氮)色基棕;",
    "alternate_name": "Benzenamine, 4-(2-phenyldiazenyl)-;C.I. Solvent Yellow 1;Benzenamine, 4-(phenylazo)-;4-(2-Phenyldiazenyl)benzenamine;C.I. 11000;4-Aminoazobenzene;<em>p</em>-Aminoazobenzene;<em>p</em>-Aminoazobenzol;4-Aminoazobenzol;<em>p</em>-Aminodiphenylimide;Brasilazina Oil Yellow G;Cellitazol R;Ceres Yellow R;Fast Spirit Yellow;Fat Yellow AAB;Oil Yellow AAB;Oil Yellow AB;Oil Yellow AN;Organol Yellow 2A;Somalia Yellow 2G;Sudan Yellow R;Oil Soluble Aniline Yellow;Oil Yellow B;Solvent Yellow 1;Aniline yellow;<em>p</em>-(Phenylazo)aniline;4-(Phenylazo)aniline;NSC 2032;4-(Phenylazo)benzenamine;4-(Phenyldiazenyl)aniline;Solvent yellow?;MeSH ID: D010128",
    "duplicated_cas_no": "81691-68-1",
    "SMILES": "N(=NC1=CC=CC=C1)C2=CC=C(N)C=C2",
    "meta_data": {
        "InChI": "InChI=1S/C12H11N3/c13-10-6-8-12(9-7-10)15-14-11-4-2-1-3-5-11/h1-9H,13H2",
        "InChIKey": null,
        "Canonical SMILES": "N(=NC1=CC=C(N)C=C1)C=2C=CC=CC2",
        "Molecular Formula": "C<sub>12</sub>H<sub>11</sub>N<sub>3</sub>",
        "Molecular Mass": "197.24",
        "Boiling Point": "&gt;360 °C",
        "Melting Point": "128 °C"
    }
}