{
    "cas_no": "15965-31-8",
    "key_name": "5-Chloro-1<em>H</em>-imidazole",
    "cn_name": "4-氯咪唑;",
    "alternate_name": "1<em>H</em>-Imidazole, 5-chloro-;Imidazole, 4-chloro-;1<em>H</em>-Imidazole, 4-chloro-;5-Chloro-1<em>H</em>-imidazole;5-Chloroimidazole;4-Chloroimidazole;NSC 222413;4-Chloro-1<em>H</em>-imidazole",
    "duplicated_cas_no": "196413-21-5",
    "SMILES": "ClC1=CN=CN1",
    "meta_data": {
        "InChI": "InChI=1S/C3H3ClN2/c4-3-1-5-2-6-3/h1-2H,(H,5,6)",
        "InChIKey": null,
        "Canonical SMILES": "ClC1=CN=CN1",
        "Molecular Formula": "C<sub>3</sub>H<sub>3</sub>ClN<sub>2</sub>",
        "Molecular Mass": "102.52",
        "Melting Point": "120-121 °C"
    }
}