{
    "cas_no": "533-98-2",
    "key_name": "1,2-Dibromobutane",
    "cn_name": "1,2-二溴丁烷;",
    "alternate_name": "Butane, 1,2-dibromo-;1,2-Dibromobutane;α-Butylene dibromide;(±)-1,2-Dibromobutane;NSC 6181",
    "duplicated_cas_no": "130232-44-9",
    "SMILES": "C(CBr)(CC)Br",
    "meta_data": {
        "InChI": "InChI=1S/C4H8Br2/c1-2-4(6)3-5/h4H,2-3H2,1H3",
        "InChIKey": null,
        "Canonical SMILES": "BrCC(Br)CC",
        "Molecular Formula": "C<sub>4</sub>H<sub>8</sub>Br<sub>2</sub>",
        "Molecular Mass": "215.91",
        "Boiling Point": "166.3 °C",
        "Melting Point": "-65.4 °C",
        "Density": "2.0174 g/cm³ @ Temp: 19 °C"
    }
}