{
    "cas_no": "88709-17-5",
    "key_name": "Benzoic acid, 2-ethoxy-4-methyl-, ethyl ester",
    "cn_name": null,
    "alternate_name": "Benzoic acid, 2-ethoxy-4-methyl-, ethyl ester;Ethyl 2-ethoxy-4-methylbenzoate",
    "duplicated_cas_no": "",
    "SMILES": "O(CC)C1=C(C(OCC)=O)C=CC(C)=C1",
    "meta_data": {
        "InChI": "InChI=1S/C12H16O3/c1-4-14-11-8-9(3)6-7-10(11)12(13)15-5-2/h6-8H,4-5H2,1-3H3",
        "InChIKey": null,
        "Canonical SMILES": "O=C(OCC)C1=CC=C(C=C1OCC)C",
        "Molecular Formula": "C<sub>12</sub>H<sub>16</sub>O<sub>3</sub>",
        "Molecular Mass": "208.25",
        "Boiling Point": "156 °C @ Press: 5 Torr"
    }
}