{
    "cas_no": "110-15-6",
    "key_name": "Succinic acid",
    "cn_name": "丁二酸;琥珀酸;",
    "alternate_name": "Butanedioic acid;Succinic acid;Amber acid;Asuccin;1,2-Ethanedicarboxylic acid;Wormwood acid;Dihydrofumaric acid;Katasuccin;1,4-Butanedioic acid;A 12084;NSC 106449;NSC 25949;Yantar-antitox;Biosuccinium SA;S 3674;Biosuccinium;MeSH ID: D019802",
    "duplicated_cas_no": "623158-99-6;2087491-34-5",
    "SMILES": "C(CC(O)=O)C(O)=O",
    "meta_data": {
        "InChI": "InChI=1S/C4H6O4/c5-3(6)1-2-4(7)8/h1-2H2,(H,5,6)(H,7,8)",
        "InChIKey": null,
        "Canonical SMILES": "O=C(O)CCC(=O)O",
        "Molecular Formula": "C<sub>4</sub>H<sub>6</sub>O<sub>4</sub>",
        "Molecular Mass": "118.09",
        "Boiling Point": "235 °C",
        "Melting Point": "188 °C",
        "Density": "1.572 g/cm³ @ Temp: 25 °C"
    }
}