{
    "cas_no": "5989-27-5",
    "key_name": "(+)-Limonene",
    "cn_name": null,
    "alternate_name": "Cyclohexene, 1-methyl-4-(1-methylethenyl)-, (4<em>R</em>)-;<em>p</em>-Mentha-1,8-diene, (<em>R</em>)-(+)-;Cyclohexene, 1-methyl-4-(1-methylethenyl)-, (<em>R</em>)-;(4<em>R</em>)-1-Methyl-4-(1-methylethenyl)cyclohexene;(+)-<em>p</em>-Mentha-1,8-diene;(+)-Limonene;Carvene;d-Limonene;Limonene, (+)-;<span class=\"text-smallcaps\">D</span>-(+)-Limonene;(+)-(4<em>R</em>)-Limonene;Refchole;<span class=\"text-smallcaps\">D</span>-Limonene;(+)-Dipentene;<em>d</em>-(+)-Limonene;(<em>R</em>)-<em>p</em>-Mentha-1,8-diene;(+)-α-Limonene;(4<em>R</em>)-(+)-Limonene;(<em>R</em>)-(+)-<em>p</em>-Mentha-1,8-diene;(<em>R</em>)-4-Isopropenyl-1-methyl-1-cyclohexene;EC 7;Glidesafe;Biogenic SE 374;Glidsafe;(+)-(<em>R</em>)-Limonene;(<em>R</em>)-(+)-Limonene;(4<em>R</em>)-Limonene;(<em>R</em>)-Limonene;NK 1100;Fruits Dry;(4R)-1-Methyl-4-prop-1-en-2-yl-cyclohexene;Woody River 8;Bio Clear;Clearene;HistoSolve X;Master Clear;Safsolv;Histo-Clear;(R)-1-Methyl-4-(prop-1-en-2-yl)cyclohex-1-ene;IVOD;<em>R</em>-Limonene;Alda 341;(4R)-1-Methyl-4-(prop-1-en-2-yl)cyclohex-1-ene;HB 09;NMX 02;Orange Oil X 5;Citrisolv;(<em>R</em>)-4-isopropenyl-1-methylcyclohexene",
    "duplicated_cas_no": "7705-13-7;94765-75-0;95327-98-3;1051930-86-9",
    "SMILES": "C(C)(=C)[C@@H]1CCC(C)=CC1",
    "meta_data": {
        "InChI": "InChI=1S/C10H16/c1-8(2)10-6-4-9(3)5-7-10/h4,10H,1,5-7H2,2-3H3/t10-/m0/s1",
        "InChIKey": null,
        "Canonical SMILES": "C=C(C)C1CC=C(C)CC1",
        "Molecular Formula": "C<sub>10</sub>H<sub>16</sub>",
        "Molecular Mass": "136.23",
        "Boiling Point": "175.5-176 °C @ Press: 763 Torr",
        "Melting Point": "-74.35 °C",
        "Density": "0.8402 g/cm³ @ Temp: 25 °C"
    }
}