{
    "cas_no": "769-26-6",
    "key_name": "2-Ethynyl-1,3,5-trimethylbenzene",
    "cn_name": null,
    "alternate_name": "Benzene, 2-ethynyl-1,3,5-trimethyl-;Mesitylene, 2-ethynyl-;2-Ethynyl-1,3,5-trimethylbenzene;Ethynylmesitylene;Mesitylacetylene;(2,4,6-Trimethylphenyl)acetylene;2-Ethynylmesitylene;Mesitylethyne;1-Ethynyl-2,4,6-trimethylbenzene",
    "duplicated_cas_no": "",
    "SMILES": "C(#C)C1=C(C)C=C(C)C=C1C",
    "meta_data": {
        "InChI": "InChI=1S/C11H12/c1-5-11-9(3)6-8(2)7-10(11)4/h1,6-7H,2-4H3",
        "InChIKey": null,
        "Canonical SMILES": "C#CC=1C(=CC(=CC1C)C)C",
        "Molecular Formula": "C<sub>11</sub>H<sub>12</sub>",
        "Molecular Mass": "144.21",
        "Boiling Point": "100.6-101.5 °C @ Press: 20 Torr",
        "Melting Point": "2.7-3.5 °C",
        "Density": "0.9185 g/cm³ @ Temp: 25 °C"
    }
}