{
    "cas_no": "7381-30-8",
    "key_name": "1,2-Bis(trimethylsiloxy)ethane",
    "cn_name": "1,2-双(三甲基硅氧基)乙烷;",
    "alternate_name": "3,6-Dioxa-2,7-disilaoctane, 2,2,7,7-tetramethyl-;2,2,7,7-Tetramethyl-3,6-dioxa-2,7-disilaoctane;1,2-Bis(trimethylsiloxy)ethane;1,2-Bis(trimethylsilyloxy)ethane;Ethylene glycol bis(trimethylsilyl) ether;1,2-Ethanediol bis(trimethylsilyl) ether;Trimethyl(2-(trimethylsilyloxy)ethoxy)silane;2,2,7,7-Tetramethy1-3,6-dioxa-2,7-disilaoctane",
    "duplicated_cas_no": "110966-10-4",
    "SMILES": "O([Si](C)(C)C)CCO[Si](C)(C)C",
    "meta_data": {
        "InChI": "InChI=1S/C8H22O2Si2/c1-11(2,3)9-7-8-10-12(4,5)6/h7-8H2,1-6H3",
        "InChIKey": null,
        "Canonical SMILES": "O(CCO[Si](C)(C)C)[Si](C)(C)C",
        "Molecular Formula": "C<sub>8</sub>H<sub>22</sub>O<sub>2</sub>Si<sub>2</sub>",
        "Molecular Mass": "206.43",
        "Boiling Point": "70 °C @ Press: 25 Torr",
        "Density": "0.842 g/cm³"
    }
}