{
    "cas_no": "2349-70-4",
    "key_name": "2-Ethyl-1,4-benzenediol",
    "cn_name": null,
    "alternate_name": "1,4-Benzenediol, 2-ethyl-;Hydroquinone, ethyl-;2-Ethyl-1,4-benzenediol;Ethylhydroquinone;2-Ethylhydroquinone;Ethyl-1,4-hydroquinone;2-Ethyl-1,4-dihydroxybenzene",
    "duplicated_cas_no": "",
    "SMILES": "C(C)C1=C(O)C=CC(O)=C1",
    "meta_data": {
        "InChI": "InChI=1S/C8H10O2/c1-2-6-5-7(9)3-4-8(6)10/h3-5,9-10H,2H2,1H3",
        "InChIKey": null,
        "Canonical SMILES": "OC1=CC=C(O)C(=C1)CC",
        "Molecular Formula": "C<sub>8</sub>H<sub>10</sub>O<sub>2</sub>",
        "Molecular Mass": "138.16",
        "Melting Point": "112 °C"
    }
}