{
    "cas_no": "40004-69-1",
    "key_name": "2-Methyl-5-thiazolecarboxylic acid",
    "cn_name": null,
    "alternate_name": "5-Thiazolecarboxylic acid, 2-methyl-;2-Methyl-5-thiazolecarboxylic acid;RU 21933;2-Methyl-1,3-thiazole-5-carboxylic acid;NSC 170606",
    "duplicated_cas_no": "",
    "SMILES": "C(O)(=O)C=1SC(C)=NC1",
    "meta_data": {
        "InChI": "InChI=1S/C5H5NO2S/c1-3-6-2-4(9-3)5(7)8/h2H,1H3,(H,7,8)",
        "InChIKey": null,
        "Canonical SMILES": "O=C(O)C=1SC(=NC1)C",
        "Molecular Formula": "C<sub>5</sub>H<sub>5</sub>NO<sub>2</sub>S",
        "Molecular Mass": "143.16",
        "Melting Point": "209 °C"
    }
}