{
    "cas_no": "770-12-7",
    "key_name": "Phosphorodichloridic acid, phenyl ester",
    "cn_name": "二氯化磷酸苯酯;苯氧基磷酰二氯;",
    "alternate_name": "Phosphorodichloridic acid, phenyl ester;Phenyl phosphorodichloridate;Phenylphosphoric dichloride;Phenoxydichlorophosphine oxide;Phenyl dichlorophosphate;Dichlorophenoxyphosphine oxide;Phenoxyphosphoryl dichloride;Phenyl dichlorophosphinate;NSC 44412",
    "duplicated_cas_no": "",
    "SMILES": "O(P(Cl)(Cl)=O)C1=CC=CC=C1",
    "meta_data": {
        "InChI": "InChI=1S/C6H5Cl2O2P/c7-11(8,9)10-6-4-2-1-3-5-6/h1-5H",
        "InChIKey": null,
        "Canonical SMILES": "O=P(Cl)(Cl)OC=1C=CC=CC1",
        "Molecular Formula": "C<sub>6</sub>H<sub>5</sub>Cl<sub>2</sub>O<sub>2</sub>P",
        "Molecular Mass": "210.98",
        "Boiling Point": "242 °C",
        "Density": "1.4145 g/cm³ @ Temp: 20 °C"
    }
}