{
    "cas_no": "516-05-2",
    "key_name": "Methylmalonic acid",
    "cn_name": "甲基丙二酸;",
    "alternate_name": "Propanedioic acid, 2-methyl-;Malonic acid, methyl-;Propanedioic acid, methyl-;2-Methylpropanedioic acid;1,1-Ethanedicarboxylic acid;Methylmalonic acid;Isosuccinic acid;2-Methylmalonic acid;Methylpropanedioic acid;NSC 25201;MeSH ID: D008764",
    "duplicated_cas_no": "",
    "SMILES": "C(C(O)=O)(C(O)=O)C",
    "meta_data": {
        "InChI": "InChI=1S/C4H6O4/c1-2(3(5)6)4(7)8/h2H,1H3,(H,5,6)(H,7,8)",
        "InChIKey": null,
        "Canonical SMILES": "O=C(O)C(C(=O)O)C",
        "Molecular Formula": "C<sub>4</sub>H<sub>6</sub>O<sub>4</sub>",
        "Molecular Mass": "118.09",
        "Boiling Point": "120 °C @ Press: 15 Torr",
        "Melting Point": "135 °C (decomp)"
    }
}