{
    "cas_no": "3698-89-3",
    "key_name": "1-(Methylthio)dodecane",
    "cn_name": "正十二烷基甲基硫醚;",
    "alternate_name": "Dodecane, 1-(methylthio)-;Sulfide, dodecyl methyl;1-(Methylthio)dodecane;Dodecyl methyl sulphide;Methyl lauryl sulfide;Dodecyl methyl sulfide;2-Thiatetradecane;1-Methylthiododecane;NSC 87889;<em>n</em>-Dodecyl methyl sulfide;Methyl dodecyl sulfide;1-Methylsulfanyldodecane",
    "duplicated_cas_no": "",
    "SMILES": "C(CCCCCSC)CCCCCC",
    "meta_data": {
        "InChI": "InChI=1S/C13H28S/c1-3-4-5-6-7-8-9-10-11-12-13-14-2/h3-13H2,1-2H3",
        "InChIKey": null,
        "Canonical SMILES": "S(C)CCCCCCCCCCCC",
        "Molecular Formula": "C<sub>13</sub>H<sub>28</sub>S",
        "Molecular Mass": "216.43",
        "Boiling Point": "135 °C @ Press: 11 Torr"
    }
}