{
    "cas_no": "2592-95-2",
    "key_name": "1-Hydroxybenzotriazole",
    "cn_name": "1-羟基苯并三唑;",
    "alternate_name": "1<em>H</em>-Benzotriazole, 1-hydroxy-;1-Hydroxy-1<em>H</em>-benzotriazole;Benzazimidol;1-Hydroxybenzotriazole;1-Hydroxy-1,2,3-benzotriazole;1<em>H</em>-Benzotriazol-1-ol;<em>N</em>-Hydroxybenzotriazole;<em>N</em>-Hydroxy-1,2,3-benzotriazole;1-Benzotriazolol;HOBt;1<em>H</em>-Benzo[<em>d</em>][1,2,3]triazol-1-ol;1-Hydroxy-1<em>H</em>-1,2,3-benzotriazole;1<em>H</em>-1,2,3-Benzotriazol-1-ol",
    "duplicated_cas_no": "",
    "SMILES": "ON1C=2C(=CC=CC2)N=N1",
    "meta_data": {
        "InChI": "InChI=1S/C6H5N3O/c10-9-6-4-2-1-3-5(6)7-8-9/h1-4,10H",
        "InChIKey": null,
        "Canonical SMILES": "ON1N=NC=2C=CC=CC21",
        "Molecular Formula": "C<sub>6</sub>H<sub>5</sub>N<sub>3</sub>O",
        "Molecular Mass": "135.12",
        "Melting Point": "110 °C"
    }
}