{
    "cas_no": "2317-91-1",
    "key_name": "Ethene, 1-chloro-1-fluoro-",
    "cn_name": "1-氯-1-氟乙烯;1-氯-1-氟乙烯;",
    "alternate_name": "Ethene, 1-chloro-1-fluoro-;Ethylene, 1-chloro-1-fluoro-;1-Chloro-1-fluoroethylene;1-Chloro-1-fluoroethene;1-Fluoro-1-chloroethylene;F 1131a;HCFC 1131a;R 1131a;HCFO 1131a;HFO 1131a",
    "duplicated_cas_no": "",
    "SMILES": "C(=C)(Cl)F",
    "meta_data": {
        "InChI": "InChI=1S/C2H2ClF/c1-2(3)4/h1H2",
        "InChIKey": null,
        "Canonical SMILES": "FC(Cl)=C",
        "Molecular Formula": "C<sub>2</sub>H<sub>2</sub>ClF",
        "Molecular Mass": "80.49",
        "Boiling Point": "-12-10 °C",
        "Density": "2.618 g/cm³"
    }
}