{
    "cas_no": "33208-99-0",
    "key_name": "<span class=\"text-smallcaps\">L</span>-Alaninamide hydrochloride",
    "cn_name": "L-丙氨酰胺盐酸盐;",
    "alternate_name": "Propanamide, 2-amino-, hydrochloride (1:1), (2<em>S</em>)-;Propanamide, 2-amino-, monohydrochloride, (<em>S</em>)-;Alaninamide, monohydrochloride, <span class=\"text-smallcaps\">L</span>-;Propanamide, 2-amino-, monohydrochloride, (2<em>S</em>)-;<span class=\"text-smallcaps\">L</span>-Alanine amide hydrochloride;<span class=\"text-smallcaps\">L</span>-Alaninamide hydrochloride;Alanine amide hydrochloride;(<em>S</em>)-2-Aminopropionamide hydrochloride;(2<em>S</em>)-2-Aminopropanamide hydrochloride;(2S)-2-Aminopropanamide hydrochloride;(<em>S</em>)-2-Aminopropanamide hydrochloride;(<em>S</em>)-Alaninamide hydrochloride",
    "duplicated_cas_no": "",
    "SMILES": "[C@@H](C(N)=O)(C)N.Cl",
    "meta_data": {
        "InChI": "InChI=1S/C3H8N2O.ClH/c1-2(4)3(5)6;/h2H,4H2,1H3,(H2,5,6);1H/t2-;/m0./s1",
        "InChIKey": null,
        "Canonical SMILES": "Cl.O=C(N)C(N)C",
        "Molecular Formula": "C<sub>3</sub>H<sub>8</sub>N<sub>2</sub>O.ClH",
        "Molecular Mass": "",
        "Melting Point": "196-199 °C"
    }
}