{
    "cas_no": "96-41-3",
    "key_name": "Cyclopentanol",
    "cn_name": "环戊醇;羟基环戊烷;",
    "alternate_name": "Cyclopentanol;Cyclopentyl alcohol;Hydroxycyclopentane;NSC 49117;1-Cyclopentanol",
    "duplicated_cas_no": "",
    "SMILES": "OC1CCCC1",
    "meta_data": {
        "InChI": "InChI=1S/C5H10O/c6-5-3-1-2-4-5/h5-6H,1-4H2",
        "InChIKey": null,
        "Canonical SMILES": "OC1CCCC1",
        "Molecular Formula": "C<sub>5</sub>H<sub>10</sub>O",
        "Molecular Mass": "86.13",
        "Boiling Point": "140.4 °C @ Press: 760 Torr",
        "Melting Point": "-19 °C",
        "Density": "0.9478 g/cm³ @ Temp: 20 °C"
    }
}