{
    "cas_no": "3817-11-6",
    "key_name": "<em>N</em>-Butyl-<em>N</em>-(4-hydroxybutyl)nitrosamine",
    "cn_name": "N-丁基-N-(4-羟丁基)亚硝胺;N-丁基-N-丁四醇-亚硝胺;",
    "alternate_name": "1-Butanol, 4-(butylnitrosoamino)-;1-Butanol, 4-(butylnitrosamino)-;4-(Butylnitrosoamino)-1-butanol;<em>N</em>-Butyl-<em>N</em>-(4-hydroxybutyl)nitrosamine;Butyl(4-hydroxybutyl)nitrosamine;Butylbutanolnitrosamine;4-Hydroxybutylbutylnitrosamine;<em>N</em>-Butyl-<em>N</em>-(1-hydroxybutyl)nitrosamine;<em>N</em>-Nitrosobutyl-4-hydroxybutylamine;<em>N</em>-Nitrosobutylbutan-4-olamine;BBN",
    "duplicated_cas_no": "856296-83-8",
    "SMILES": "N(CCCCO)(CCCC)N=O",
    "meta_data": {
        "InChI": "InChI=1S/C8H18N2O2/c1-2-3-6-10(9-12)7-4-5-8-11/h11H,2-8H2,1H3",
        "InChIKey": null,
        "Canonical SMILES": "O=NN(CCCC)CCCCO",
        "Molecular Formula": "C<sub>8</sub>H<sub>18</sub>N<sub>2</sub>O<sub>2</sub>",
        "Molecular Mass": "174.24",
        "Boiling Point": "165-167 °C @ Press: 5 Torr"
    }
}