{
    "cas_no": "475231-21-1",
    "key_name": "3′-Hydroxypterostilbene",
    "cn_name": null,
    "alternate_name": "1,2-Benzenediol, 4-[(1<em>E</em>)-2-(3,5-dimethoxyphenyl)ethenyl]-;4-[(1<em>E</em>)-2-(3,5-Dimethoxyphenyl)ethenyl]-1,2-benzenediol;3′-Hydroxypterostilbene",
    "duplicated_cas_no": "",
    "SMILES": "C(=C/C1=CC(O)=C(O)C=C1)\\C2=CC(OC)=CC(OC)=C2",
    "meta_data": {
        "InChI": "InChI=1S/C16H16O4/c1-19-13-7-12(8-14(10-13)20-2)4-3-11-5-6-15(17)16(18)9-11/h3-10,17-18H,1-2H3/b4-3+",
        "InChIKey": null,
        "Canonical SMILES": "OC1=CC=C(C=CC=2C=C(OC)C=C(OC)C2)C=C1O",
        "Molecular Formula": "C<sub>16</sub>H<sub>16</sub>O<sub>4</sub>",
        "Molecular Mass": "272.30",
        "Melting Point": "112-115 °C"
    }
}