{
    "cas_no": "26386-88-9",
    "key_name": "Diphenylphosphoryl azide",
    "cn_name": "叠氮磷酸二苯酯;",
    "alternate_name": "Phosphorazidic acid, diphenyl ester;Diphenylphosphoryl azide;Diphenyl phosphorazidate;Diphenylphosphorazide;<em>O</em>,<em>O</em>-Diphenylphosphoryl azide;Diphenyl azidophosphate;DPPA;Azidodiphenoxyoxophosphorane;Phosphoric acid diphenyl ester azide;[Azido(phenoxy)phosphoryl]oxybenzene;Diphenyl phosphoroazidate",
    "duplicated_cas_no": "883743-16-6;154113-45-8",
    "SMILES": "P(OC1=CC=CC=C1)(OC2=CC=CC=C2)(N=[N+]=[N-])=O",
    "meta_data": {
        "InChI": "InChI=1S/C12H10N3O3P/c13-14-15-19(16,17-11-7-3-1-4-8-11)18-12-9-5-2-6-10-12/h1-10H",
        "InChIKey": null,
        "Canonical SMILES": "[N-]=[N+]=NP(=O)(OC=1C=CC=CC1)OC=2C=CC=CC2",
        "Molecular Formula": "C<sub>12</sub>H<sub>10</sub>N<sub>3</sub>O<sub>3</sub>P",
        "Molecular Mass": "",
        "Boiling Point": "157 °C @ Press: 0.17 Torr",
        "Density": "1.277 g/cm³"
    }
}