{
    "cas_no": "76-13-1",
    "key_name": "CFC 113",
    "cn_name": "1,1,2-三氟三氯乙烷;1,1,2-三氟-1,2,2-三氯乙烷;氟利昂-113;",
    "alternate_name": "Ethane, 1,1,2-trichloro-1,2,2-trifluoro-;1,1,2-Trichloro-1,2,2-trifluoroethane;Arklone P;Freon TF;Freon 113;Genetron 113;1,1,2-Trifluorotrichloroethane;1,1,2-Trifluoro-1,2,2-trichloroethane;F 113;Fluorocarbon 113;1,1,2-Trichlorotrifluoroethane;FC 113;R 113 (halocarbon);Forane 113;Frigen 113TR;Frigen 113TR-T;Frigen 113TR-N;1,2,2-Trichlorotrifluoroethane;Freon 113TR-T;Frigen 113;Frigen 113A;Khladon 113;Daiflon S 3;Isceon 113;Refrigerant R 113;R 113;Ledon 113;Asahifron 113;Refrigerant 113;CFC 113;Fronsolve 113;FKW 113;Daiflon 113;Fron 113;P 113;Fridohna;Fronsolve AD 9;Freon TS;Delifrene 113;Delifrene LS;F 113 (refrigerant);Arcton 113;Halon 113;Chlorofluorocarbon 113;Hladon 113;A 113",
    "duplicated_cas_no": "39349-94-5;56996-61-3;57762-34-2;59948-56-0",
    "SMILES": "C(C(Cl)(F)F)(Cl)(Cl)F",
    "meta_data": {
        "InChI": "InChI=1S/C2Cl3F3/c3-1(4,6)2(5,7)8",
        "InChIKey": null,
        "Canonical SMILES": "FC(F)(Cl)C(F)(Cl)Cl",
        "Molecular Formula": "C<sub>2</sub>Cl<sub>3</sub>F<sub>3</sub>",
        "Molecular Mass": "187.38",
        "Boiling Point": "47.7 °C",
        "Melting Point": "-35 °C",
        "Density": "1.5635 g/cm³ @ Temp: 25 °C"
    }
}