{
    "cas_no": "6281-32-9",
    "key_name": "4-Quinolinemethanol",
    "cn_name": null,
    "alternate_name": "4-Quinolinemethanol;4-(Hydroxymethyl)quinoline;AV 78164;NSC 6507;(Quinolin-4-yl)methanol",
    "duplicated_cas_no": "",
    "SMILES": "C(O)C=1C2=C(N=CC1)C=CC=C2",
    "meta_data": {
        "InChI": "InChI=1S/C10H9NO/c12-7-8-5-6-11-10-4-2-1-3-9(8)10/h1-6,12H,7H2",
        "InChIKey": null,
        "Canonical SMILES": "OCC=1C=CN=C2C=CC=CC21",
        "Molecular Formula": "C<sub>10</sub>H<sub>9</sub>NO",
        "Molecular Mass": "159.18",
        "Boiling Point": "145 °C @ Press: 0.2 Torr",
        "Melting Point": "96-97 °C"
    }
}