{
    "cas_no": "1904-58-1",
    "key_name": "2-Aminobenzohydrazide",
    "cn_name": "2-氨基亚苯基肼;",
    "alternate_name": "Benzoic acid, 2-amino-, hydrazide;Anthranilic acid, hydrazide;<em>o</em>-Aminobenzhydrazide;<em>o</em>-Aminobenzoic acid hydrazide;<em>o</em>-Aminobenzoic hydrazide;2-Aminobenzhydrazide;2-Aminobenzoic acid hydrazide;Anthraniloyl hydrazide;2-Aminobenzoylhydrazine;Anthranilic hydrazide;<em>o</em>-Aminobenzoylhydrazine;1-(2-Aminobenzoyl)hydrazine;2-Aminobenzohydrazide;NSC 642;2-Aminobenzoylhydrazide;INHd 22;Anthranoylhydrazine;<em>o</em>-Aminobenzohydrazide;Anthraniloylhydrazine;2-Aminobenzoic hydrazide",
    "duplicated_cas_no": "46004-62-0",
    "SMILES": "C(NN)(=O)C1=C(N)C=CC=C1",
    "meta_data": {
        "InChI": "InChI=1S/C7H9N3O/c8-6-4-2-1-3-5(6)7(11)10-9/h1-4H,8-9H2,(H,10,11)",
        "InChIKey": null,
        "Canonical SMILES": "O=C(NN)C=1C=CC=CC1N",
        "Molecular Formula": "C<sub>7</sub>H<sub>9</sub>N<sub>3</sub>O",
        "Molecular Mass": "151.17",
        "Melting Point": "120-121 °C"
    }
}