{
    "cas_no": "96829-58-2",
    "key_name": "Tetrahydrolipstatin",
    "cn_name": "奥利司他;",
    "alternate_name": "<span class=\"text-smallcaps\">L</span>-Leucine, <em>N</em>-formyl-, (1<em>S</em>)-1-[[(2<em>S</em>,3<em>S</em>)-3-hexyl-4-oxo-2-oxetanyl]methyl]dodecyl ester;<span class=\"text-smallcaps\">L</span>-Leucine, <em>N</em>-formyl-, 1-[(3-hexyl-4-oxo-2-oxetanyl)methyl]dodecyl ester, [2<em>S</em>-[2α(<em>R</em>*),3β]]-;Tetrahydrolipstatin;(-)-Tetrahydrolipstatin;Ro 18-0647/002;Orlistat;Xenical;Listata;Alli",
    "duplicated_cas_no": "111397-16-1;1236363-36-2",
    "SMILES": "C([C@@H](OC([C@H](CC(C)C)NC=O)=O)CCCCCCCCCCC)[C@H]1[C@H](CCCCCC)C(=O)O1",
    "meta_data": {
        "InChI": "InChI=1S/C29H53NO5/c1-5-7-9-11-12-13-14-15-16-18-24(34-29(33)26(30-22-31)20-23(3)4)21-27-25(28(32)35-27)19-17-10-8-6-2/h22-27H,5-21H2,1-4H3,(H,30,31)/t24-,25-,26-,27-/m0/s1",
        "InChIKey": null,
        "Canonical SMILES": "O=CNC(C(=O)OC(CCCCCCCCCCC)CC1OC(=O)C1CCCCCC)CC(C)C",
        "Molecular Formula": "C<sub>29</sub>H<sub>53</sub>NO<sub>5</sub>",
        "Molecular Mass": "495.73",
        "Melting Point": "39-41 °C"
    }
}