{
    "cas_no": "65399-18-0",
    "key_name": "4-Nitrophthalide",
    "cn_name": "4-硝基苯酞;4-硝基-1(3H)-异苯并呋喃酮;4-硝基-2-苯并[c]呋喃酮;",
    "alternate_name": "1(3<em>H</em>)-Isobenzofuranone, 4-nitro-;4-Nitro-1(3<em>H</em>)-isobenzofuranone;4-Nitrophthalide",
    "duplicated_cas_no": "",
    "SMILES": "N(=O)(=O)C1=C2C(C(=O)OC2)=CC=C1",
    "meta_data": {
        "InChI": "InChI=1S/C8H5NO4/c10-8-5-2-1-3-7(9(11)12)6(5)4-13-8/h1-3H,4H2",
        "InChIKey": null,
        "Canonical SMILES": "O=C1OCC=2C1=CC=CC2N(=O)=O",
        "Molecular Formula": "C<sub>8</sub>H<sub>5</sub>NO<sub>4</sub>",
        "Molecular Mass": "179.13",
        "Melting Point": "136 °C"
    }
}