{
    "cas_no": "94-01-9",
    "key_name": "1,3-Benzenediol, 1,3-dibenzoate",
    "cn_name": "1,3-联苯甲酰氧基苯;1,3-苯二醇二苯甲酸酯;间亚苯基二苯甲酸酯;亚苯基间二苯甲酸酯;间苯二酚双苯甲酸酯;",
    "alternate_name": "1,3-Benzenediol, 1,3-dibenzoate;Resorcinol, dibenzoate;1,3-Benzenediol, dibenzoate;1,3-Bis(benzoyloxy)benzene;1,3-Dibenzoyloxybenzene;NSC 33405;NSC 4906;1,3-Phenylene dibenzoate",
    "duplicated_cas_no": "31228-61-2",
    "SMILES": "C(OC1=CC(OC(=O)C2=CC=CC=C2)=CC=C1)(=O)C3=CC=CC=C3",
    "meta_data": {
        "InChI": "InChI=1S/C20H14O4/c21-19(15-8-3-1-4-9-15)23-17-12-7-13-18(14-17)24-20(22)16-10-5-2-6-11-16/h1-14H",
        "InChIKey": null,
        "Canonical SMILES": "O=C(OC1=CC=CC(OC(=O)C=2C=CC=CC2)=C1)C=3C=CC=CC3",
        "Molecular Formula": "C<sub>20</sub>H<sub>14</sub>O<sub>4</sub>",
        "Molecular Mass": "318.32",
        "Melting Point": "117 °C"
    }
}