{
    "cas_no": "4663-94-9",
    "key_name": "2,3-Pyridinedicarboxamide",
    "cn_name": "吡啶-2,3-二甲酰胺;",
    "alternate_name": "2,3-Pyridinedicarboxamide;Quinolinamide",
    "duplicated_cas_no": "",
    "SMILES": "C(N)(=O)C1=C(C(N)=O)N=CC=C1",
    "meta_data": {
        "InChI": "InChI=1S/C7H7N3O2/c8-6(11)4-2-1-3-10-5(4)7(9)12/h1-3H,(H2,8,11)(H2,9,12)",
        "InChIKey": null,
        "Canonical SMILES": "O=C(N)C1=NC=CC=C1C(=O)N",
        "Molecular Formula": "C<sub>7</sub>H<sub>7</sub>N<sub>3</sub>O<sub>2</sub>",
        "Molecular Mass": "165.15",
        "Melting Point": "209 °C"
    }
}