{
    "cas_no": "1801-72-5",
    "key_name": "<em>N</em>,<em>N</em>′-Di-2-propen-1-ylurea",
    "cn_name": "1,3-二烯丙基脲;",
    "alternate_name": "Urea, <em>N</em>,<em>N</em>′-di-2-propen-1-yl-;Urea, 1,3-diallyl-;Urea, <em>N</em>,<em>N</em>′-di-2-propenyl-;<em>N</em>,<em>N</em>′-Di-2-propen-1-ylurea;1,3-Diallylurea;<em>N</em>,<em>N</em>′-Diallylurea;<em>N</em>,<em>N</em>′-Di-2-propenylurea;<em>N</em>,<em>N</em>′-Bis(2-propenyl)urea;NSC 102722;Diallyl urea;1,3-Bis(prop-2-enyl)urea;1,3-Bis(prop-2-en-1-yl)urea",
    "duplicated_cas_no": "",
    "SMILES": "C(NCC=C)(NCC=C)=O",
    "meta_data": {
        "InChI": "InChI=1S/C7H12N2O/c1-3-5-8-7(10)9-6-4-2/h3-4H,1-2,5-6H2,(H2,8,9,10)",
        "InChIKey": null,
        "Canonical SMILES": "O=C(NCC=C)NCC=C",
        "Molecular Formula": "C<sub>7</sub>H<sub>12</sub>N<sub>2</sub>O",
        "Molecular Mass": "140.18",
        "Melting Point": "90-93 °C"
    }
}