{
    "cas_no": "1193-65-3",
    "key_name": "1-Azabicyclo[2.2.2]octan-3-one, hydrochloride (1:1)",
    "cn_name": "3-奎宁环酮盐酸盐;",
    "alternate_name": "1-Azabicyclo[2.2.2]octan-3-one, hydrochloride (1:1);3-Quinuclidinone, hydrochloride;1-Azabicyclo[2.2.2]octan-3-one, hydrochloride;3-Quinuclidone hydrochloride;3-Oxoquinuclidine hydrochloride;Quinuclidinone hydrochloride",
    "duplicated_cas_no": "139086-75-2",
    "SMILES": "O=C1C2CCN(C1)CC2.Cl",
    "meta_data": {
        "InChI": "InChI=1S/C7H11NO.ClH/c9-7-5-8-3-1-6(7)2-4-8;/h6H,1-5H2;1H",
        "InChIKey": null,
        "Canonical SMILES": "Cl.O=C1CN2CCC1CC2",
        "Molecular Formula": "C<sub>7</sub>H<sub>11</sub>NO.ClH",
        "Molecular Mass": "",
        "Melting Point": "294-295 °C (decomp)"
    }
}