{
    "cas_no": "14062-25-0",
    "key_name": "Ethyl 2-(4-bromophenyl)acetate",
    "cn_name": "对溴苯乙酸乙酯;4-溴苯乙酸乙酯;",
    "alternate_name": "Benzeneacetic acid, 4-bromo-, ethyl ester;Acetic acid, (<em>p</em>-bromophenyl)-, ethyl ester;Ethyl 4-bromophenyl acetate;Ethyl 4-bromobenzeneacetate;Ethyl (<em>p</em>-bromophenyl)acetate;Ethyl 2-(4-bromophenyl)acetate;(4-Bromophenyl)acetic acid ethyl ester",
    "duplicated_cas_no": "",
    "SMILES": "C(C(OCC)=O)C1=CC=C(Br)C=C1",
    "meta_data": {
        "InChI": "InChI=1S/C10H11BrO2/c1-2-13-10(12)7-8-3-5-9(11)6-4-8/h3-6H,2,7H2,1H3",
        "InChIKey": null,
        "Canonical SMILES": "O=C(OCC)CC1=CC=C(Br)C=C1",
        "Molecular Formula": "C<sub>10</sub>H<sub>11</sub>BrO<sub>2</sub>",
        "Molecular Mass": "243.10",
        "Boiling Point": "142-144 °C @ Press: 12-14 Torr",
        "Melting Point": "30 °C"
    }
}