{
    "cas_no": "4448-77-5",
    "key_name": "Cycloheptanemethanamine",
    "cn_name": "环庚甲胺;",
    "alternate_name": "Cycloheptanemethanamine;Cycloheptanemethylamine;Cycloheptylmethylamine;Aminomethylcycloheptane;Cycloheptylmethanamine;(Cycloheptanylmethyl)amine",
    "duplicated_cas_no": "",
    "SMILES": "C(N)C1CCCCCC1",
    "meta_data": {
        "InChI": "InChI=1S/C8H17N/c9-7-8-5-3-1-2-4-6-8/h8H,1-7,9H2",
        "InChIKey": null,
        "Canonical SMILES": "NCC1CCCCCC1",
        "Molecular Formula": "C<sub>8</sub>H<sub>17</sub>N",
        "Molecular Mass": "127.23",
        "Boiling Point": "102.5 °C @ Press: 35 Torr",
        "Density": "0.8893 g/cm³ @ Temp: 25 °C"
    }
}