{
    "cas_no": "557-40-4",
    "key_name": "Allyl ether",
    "cn_name": "烯丙基醚;二烯丙基醚;烯丙醚;",
    "alternate_name": "1-Propene, 3,3′-oxybis-;Allyl ether;3,3′-Oxybis[1-propene];Diallyl ether;4-Oxahepta-1,6-diene;3-(Allyloxy)-1-propene;Bis(allyl) ether;3,3′-Oxybis-1-propene;NSC 7619;3-(2-Propenoxy)-1-propene",
    "duplicated_cas_no": "",
    "SMILES": "O(CC=C)CC=C",
    "meta_data": {
        "InChI": "InChI=1S/C6H10O/c1-3-5-7-6-4-2/h3-4H,1-2,5-6H2",
        "InChIKey": null,
        "Canonical SMILES": "O(CC=C)CC=C",
        "Molecular Formula": "C<sub>6</sub>H<sub>10</sub>O",
        "Molecular Mass": "98.14",
        "Boiling Point": "94 °C",
        "Melting Point": "-6 °C",
        "Density": "0.8449 g/cm³ @ Temp: 0 °C"
    }
}