{
    "cas_no": "15199-43-6",
    "key_name": "Methan-<em>d</em><sub>3</sub>-ol, 1,1′-sulfate",
    "cn_name": "氘代硫酸二甲酯;",
    "alternate_name": "Methan-<em>d</em><sub>3</sub>-ol, 1,1′-sulfate;Sulfuric acid, di(methyl-<em>d</em><sub>3</sub>) ester;Methan-<em>d</em><sub>3</sub>-ol, sulfate (2:1);(Methyl sulfate)-<em>d</em><sub>6</sub>;Dimethyl-<em>d</em><sub>6</sub> sulfate;Bis(trideuteriomethyl) sulfate",
    "duplicated_cas_no": "934295-57-5",
    "SMILES": "S(OC([2H])([2H])[2H])(OC([2H])([2H])[2H])(=O)=O",
    "meta_data": {
        "InChI": "InChI=1S/C2H6O4S/c1-5-7(3,4)6-2/h1-2H3/i1D3,2D3",
        "InChIKey": null,
        "Canonical SMILES": "O=S(=O)(OC)OC",
        "Molecular Formula": "C<sub>2</sub>D<sub>6</sub>O<sub>4</sub>S",
        "Molecular Mass": "",
        "Boiling Point": "69-71 °C @ Press: 11 Torr"
    }
}