{
    "cas_no": "30162-37-9",
    "key_name": "<em>N</em>-3-Pyridinylthiourea",
    "cn_name": "3-吡啶硫脲;3-吡啶基硫脲;",
    "alternate_name": "Thiourea, <em>N</em>-3-pyridinyl-;Thiourea, 3-pyridinyl-;Urea, 1-(3-pyridyl)-2-thio-;<em>N</em>-3-Pyridinylthiourea;3-Pyridylthiourea;<em>N</em>-3-Pyridylthiourea;1-(3-Pyridyl)thiourea;NSC 201721;(Pyridin-3-yl)thiourea;<em>N</em>-Pyridin-3-ylthiourea;1-(Pyridin-3-yl)thiourea",
    "duplicated_cas_no": "",
    "SMILES": "N(C(N)=S)C=1C=CC=NC1",
    "meta_data": {
        "InChI": "InChI=1S/C6H7N3S/c7-6(10)9-5-2-1-3-8-4-5/h1-4H,(H3,7,9,10)",
        "InChIKey": null,
        "Canonical SMILES": "S=C(N)NC=1C=NC=CC1",
        "Molecular Formula": "C<sub>6</sub>H<sub>7</sub>N<sub>3</sub>S",
        "Molecular Mass": "153.20",
        "Melting Point": "165-167 °C"
    }
}