{
    "cas_no": "4504-87-4",
    "key_name": "Dibenz[<em>b</em>,<em>e</em>]oxepin-11(6<em>H</em>)-one",
    "cn_name": "6,11-二氢二苯并[b,e]氧杂卓-11-酮;",
    "alternate_name": "Dibenz[<em>b</em>,<em>e</em>]oxepin-11(6<em>H</em>)-one;6,11-Dihydrodibenz[<em>b</em>,<em>e</em>]oxepin-11-one",
    "duplicated_cas_no": "",
    "SMILES": "O=C1C=2C(COC=3C1=CC=CC3)=CC=CC2",
    "meta_data": {
        "InChI": "InChI=1S/C14H10O2/c15-14-11-6-2-1-5-10(11)9-16-13-8-4-3-7-12(13)14/h1-8H,9H2",
        "InChIKey": null,
        "Canonical SMILES": "O=C1C=2C=CC=CC2OCC=3C=CC=CC13",
        "Molecular Formula": "C<sub>14</sub>H<sub>10</sub>O<sub>2</sub>",
        "Molecular Mass": "210.23",
        "Melting Point": "71-72 °C"
    }
}