{
    "cas_no": "618-42-8",
    "key_name": "1-Acetylpiperidine",
    "cn_name": "1-乙酰哌啶;1-乙酰六氢吡啶;",
    "alternate_name": "Ethanone, 1-(1-piperidinyl)-;Piperidine, 1-acetyl-;1-(1-Piperidinyl)ethanone;Acetic acid, piperidide;<em>N</em>-Acetylpiperidine;1-Acetylpiperidine;Acetylpiperidide;NSC 239;1-(Piperidin-1-yl)ethan-1-one",
    "duplicated_cas_no": "140864-96-6",
    "SMILES": "C(C)(=O)N1CCCCC1",
    "meta_data": {
        "InChI": "InChI=1S/C7H13NO/c1-7(9)8-5-3-2-4-6-8/h2-6H2,1H3",
        "InChIKey": null,
        "Canonical SMILES": "O=C(N1CCCCC1)C",
        "Molecular Formula": "C<sub>7</sub>H<sub>13</sub>NO",
        "Molecular Mass": "127.18",
        "Boiling Point": "226.5 °C",
        "Melting Point": "-13.4 °C"
    }
}