{
    "cas_no": "127-48-0",
    "key_name": "Trimethadione",
    "cn_name": "三甲双酮;3,5,5-三甲基噁唑烷-2,4-二酮;",
    "alternate_name": "2,4-Oxazolidinedione, 3,5,5-trimethyl-;3,5,5-Trimethyl-2,4-oxazolidinedione;Epidione;Petidion;Petidon;Pitmal;Tridione;Tridone;Trimedal;Trimetadione;Trimethadione;3,3,5-Trimethyl-2,4-diketooxazolidine;Trimetin;Troxidone;Minoaleviatin;Trimethin;Tridion;Absentol;Ptimal;Edion;Trimethadion;Petilep;Epixal;Trioxanona;NSC 15799;NSC 169503;3,5,5-Trimethyl-1,3-oxazolidine-2,4-dione;MeSH ID: D014293",
    "duplicated_cas_no": "",
    "SMILES": "O=C1C(C)(C)OC(=O)N1C",
    "meta_data": {
        "InChI": "InChI=1S/C6H9NO3/c1-6(2)4(8)7(3)5(9)10-6/h1-3H3",
        "InChIKey": null,
        "Canonical SMILES": "O=C1OC(C(=O)N1C)(C)C",
        "Molecular Formula": "C<sub>6</sub>H<sub>9</sub>NO<sub>3</sub>",
        "Molecular Mass": "143.14",
        "Boiling Point": "78-80 °C @ Press: 5 Torr",
        "Melting Point": "46 °C"
    }
}