{
    "cas_no": "4445-07-2",
    "key_name": "Octadecylbenzene",
    "cn_name": "十八烷基苯;",
    "alternate_name": "Benzene, octadecyl-;Octadecane, 1-phenyl-;Octadecylbenzene;<em>n</em>-Octadecylbenzene;NSC 41235",
    "duplicated_cas_no": "",
    "SMILES": "C(CCCCCCCCCCCCCCCCC)C1=CC=CC=C1",
    "meta_data": {
        "InChI": "InChI=1S/C24H42/c1-2-3-4-5-6-7-8-9-10-11-12-13-14-15-16-18-21-24-22-19-17-20-23-24/h17,19-20,22-23H,2-16,18,21H2,1H3",
        "InChIKey": null,
        "Canonical SMILES": "C=1C=CC(=CC1)CCCCCCCCCCCCCCCCCC",
        "Molecular Formula": "C<sub>24</sub>H<sub>42</sub>",
        "Molecular Mass": "330.59",
        "Boiling Point": "408 °C",
        "Melting Point": "29 °C",
        "Density": "0.8563 g/cm³ @ Temp: 20 °C"
    }
}