{
    "cas_no": "766-81-4",
    "key_name": "1-Bromo-3-ethynylbenzene",
    "cn_name": null,
    "alternate_name": "Benzene, 1-bromo-3-ethynyl-;1-Bromo-3-ethynylbenzene;<em>m</em>-Bromophenylacetylene;(3-Bromophenyl)acetylene",
    "duplicated_cas_no": "",
    "SMILES": "C(#C)C1=CC(Br)=CC=C1",
    "meta_data": {
        "InChI": "InChI=1S/C8H5Br/c1-2-7-4-3-5-8(9)6-7/h1,3-6H",
        "InChIKey": null,
        "Canonical SMILES": "BrC1=CC=CC(C#C)=C1",
        "Molecular Formula": "C<sub>8</sub>H<sub>5</sub>Br",
        "Molecular Mass": "181.03",
        "Boiling Point": "87 °C @ Press: 15 Torr"
    }
}