{
    "cas_no": "1074-87-9",
    "key_name": "1<em>H</em>-Indole-7-methanol",
    "cn_name": "吲哚-7-甲醇;吲哚-7-甲醇;",
    "alternate_name": "1<em>H</em>-Indole-7-methanol;Indole-7-methanol;(1<em>H</em>-Indol-7-yl)methanol",
    "duplicated_cas_no": "",
    "SMILES": "C(O)C1=C2C(C=CN2)=CC=C1",
    "meta_data": {
        "InChI": "InChI=1S/C9H9NO/c11-6-8-3-1-2-7-4-5-10-9(7)8/h1-5,10-11H,6H2",
        "InChIKey": null,
        "Canonical SMILES": "OCC1=CC=CC=2C=CNC21",
        "Molecular Formula": "C<sub>9</sub>H<sub>9</sub>NO",
        "Molecular Mass": "147.17",
        "Melting Point": "55-56 °C"
    }
}