{
    "cas_no": "88-26-6",
    "key_name": "3,5-Di-<em>tert</em>-butyl-4-hydroxybenzyl alcohol",
    "cn_name": "3,5-二叔丁基-4-羟基苄醇;",
    "alternate_name": "Benzenemethanol, 3,5-bis(1,1-dimethylethyl)-4-hydroxy-;Benzyl alcohol, 3,5-di-<em>tert</em>-butyl-4-hydroxy-;3,5-Bis(1,1-dimethylethyl)-4-hydroxybenzenemethanol;2,6-Di-<em>tert</em>-butyl-4-hydroxymethylphenol;4-Hydroxymethyl-2,6-di-<em>tert</em>-butylphenol;Ionox 100;3,5-Di-<em>tert</em>-butyl-4-hydroxybenzyl alcohol;4-Hydroxy-3,5-di-<em>tert</em>-butylbenzyl alcohol;AO 754;Ethanox 754;3,5-Di-<em>tert</em>-butyl-4-hydroxyphenylmethanol;NSC 159133;3,5-Di-<em>t</em>-butyl-4-hydroxy-benzyl alcohol",
    "duplicated_cas_no": "",
    "SMILES": "C(C)(C)(C)C1=C(O)C(C(C)(C)C)=CC(CO)=C1",
    "meta_data": {
        "InChI": "InChI=1S/C15H24O2/c1-14(2,3)11-7-10(9-16)8-12(13(11)17)15(4,5)6/h7-8,16-17H,9H2,1-6H3",
        "InChIKey": null,
        "Canonical SMILES": "OC=1C(=CC(=CC1C(C)(C)C)CO)C(C)(C)C",
        "Molecular Formula": "C<sub>15</sub>H<sub>24</sub>O<sub>2</sub>",
        "Molecular Mass": "236.35",
        "Melting Point": "137.9 °C"
    }
}