{
    "cas_no": "25465-65-0",
    "key_name": "<em>rel</em>-(1<em>R</em>,2<em>R</em>,3<em>S</em>,5<em>S</em>)-2,6,6-Trimethylbicyclo[3.1.1]heptan-3-ol",
    "cn_name": "(-)-异松蒎醇;(1R,2R,3R,5S)-2,6,6-三甲基双环[3.1.1]庚-3-醇;",
    "alternate_name": "Bicyclo[3.1.1]heptan-3-ol, 2,6,6-trimethyl-, (1<em>R</em>,2<em>R</em>,3<em>S</em>,5<em>S</em>)-<em>rel</em>-;Bicyclo[3.1.1]heptan-3-ol, 2,6,6-trimethyl-, (1α,2β,3β,5α)-;3-Pinanol, stereoisomer;<em>rel</em>-(1<em>R</em>,2<em>R</em>,3<em>S</em>,5<em>S</em>)-2,6,6-Trimethylbicyclo[3.1.1]heptan-3-ol;Neoisopinocampheol;<em>neo</em>-Isopinocampheol",
    "duplicated_cas_no": "125473-76-9;15358-90-4",
    "SMILES": "CC1(C)[C@]2(C[C@@]1(C[C@@H](O)[C@H]2C)[H])[H]",
    "meta_data": {
        "InChI": "InChI=1/C10H18O/c1-6-8-4-7(5-9(6)11)10(8,2)3/h6-9,11H,4-5H2,1-3H3/t6-,7+,8-,9+/s2",
        "InChIKey": null,
        "Canonical SMILES": "OC1CC2CC(C1C)C2(C)C",
        "Molecular Formula": "C<sub>10</sub>H<sub>18</sub>O",
        "Molecular Mass": "154.25",
        "Boiling Point": "217 °C",
        "Melting Point": "36 °C",
        "Density": "0.977 g/cm³ @ Temp: 15 °C"
    }
}