{
    "cas_no": "104-96-1",
    "key_name": "4-(Methylthio)aniline",
    "cn_name": "4-氨基茴香硫醚;对氨基茴香硫醚;4-(甲基硫代)苯胺;",
    "alternate_name": "Benzenamine, 4-(methylthio)-;Aniline, <em>p</em>-(methylthio)-;4-(Methylthio)benzenamine;<em>p</em>-(Methylthio)aniline;<em>p</em>-Thioanisidine;<em>p</em>-Aminophenyl methyl sulfide;<em>p</em>-Thiomethoxyaniline;4-(Methylthio)aniline;<em>p</em>-Aminothioanisole;4-Aminothioanisole;Methyl <em>p</em>-aminophenyl sulfide;4-Aminophenyl methyl sulfide;[4-(Methylthio)phenyl]amine;NSC 75842;4-(Methylsulfanyl)aniline;4-(Methylsulfanyl)phenylamine;4-Methylthiobenzeneamine;1-Amino-4-(methylthio)benzene",
    "duplicated_cas_no": "",
    "SMILES": "S(C)C1=CC=C(N)C=C1",
    "meta_data": {
        "InChI": "InChI=1S/C7H9NS/c1-9-7-4-2-6(8)3-5-7/h2-5H,8H2,1H3",
        "InChIKey": null,
        "Canonical SMILES": "S(C1=CC=C(N)C=C1)C",
        "Molecular Formula": "C<sub>7</sub>H<sub>9</sub>NS",
        "Molecular Mass": "139.22",
        "Boiling Point": "272.5 °C",
        "Melting Point": "156-158 °C"
    }
}