{
    "cas_no": "10298-80-3",
    "key_name": "1-Chloro-4-methoxy-2-nitrobenzene",
    "cn_name": "4-氯-3-硝基苯甲醚;",
    "alternate_name": "Benzene, 1-chloro-4-methoxy-2-nitro-;Anisole, 4-chloro-3-nitro-;1-Chloro-4-methoxy-2-nitrobenzene;4-Chloro-3-nitroanisole;2-Nitro-4-methoxychlorobenzene;NSC 47339",
    "duplicated_cas_no": "",
    "SMILES": "N(=O)(=O)C1=CC(OC)=CC=C1Cl",
    "meta_data": {
        "InChI": "InChI=1S/C7H6ClNO3/c1-12-5-2-3-6(8)7(4-5)9(10)11/h2-4H,1H3",
        "InChIKey": null,
        "Canonical SMILES": "O=N(=O)C1=CC(OC)=CC=C1Cl",
        "Molecular Formula": "C<sub>7</sub>H<sub>6</sub>ClNO<sub>3</sub>",
        "Molecular Mass": "187.58",
        "Boiling Point": "210 °C @ Press: 15 Torr",
        "Melting Point": "52.5-53.5 °C"
    }
}