{
    "cas_no": "288628-05-7",
    "key_name": "6,7,8,9,10,11-Hexahydro-6-oxobenzo[<em>b</em>]cyclohepta[<em>d</em>]pyran-3-yl sulfamate",
    "cn_name": null,
    "alternate_name": "Sulfamic acid, 6,7,8,9,10,11-hexahydro-6-oxobenzo[<em>b</em>]cyclohepta[<em>d</em>]pyran-3-yl ester;6,7,8,9,10,11-Hexahydro-6-oxobenzo[<em>b</em>]cyclohepta[<em>d</em>]pyran-3-yl sulfamate;667-Coumate;BN 83495;STX 64;Irosustat",
    "duplicated_cas_no": "",
    "SMILES": "O=C1C2=C(C=3C(=CC(OS(N)(=O)=O)=CC3)O1)CCCCC2",
    "meta_data": {
        "InChI": "InChI=1S/C14H15NO5S/c15-21(17,18)20-9-6-7-11-10-4-2-1-3-5-12(10)14(16)19-13(11)8-9/h6-8H,1-5H2,(H2,15,17,18)",
        "InChIKey": null,
        "Canonical SMILES": "O=C1OC=2C=C(OS(=O)(=O)N)C=CC2C3=C1CCCCC3",
        "Molecular Formula": "C<sub>14</sub>H<sub>15</sub>NO<sub>5</sub>S",
        "Molecular Mass": "309.34",
        "Melting Point": "170.1-173.4 °C"
    }
}