{
    "cas_no": "86-74-8",
    "key_name": "Carbazole",
    "cn_name": "咔唑;亚氨基二亚苯;9-氮杂芴;",
    "alternate_name": "9<em>H</em>-Carbazole;Carbazole;9-Azafluorene;Dibenzopyrrole;Dibenzo[<em>b</em>,<em>d</em>]pyrrole;Diphenylenimine;SKF 20091;NSC 3498;Chlorophenesin carbamate",
    "duplicated_cas_no": "",
    "SMILES": "C1=2C=3C(NC1=CC=CC2)=CC=CC3",
    "meta_data": {
        "InChI": "InChI=1S/C12H9N/c1-3-7-11-9(5-1)10-6-2-4-8-12(10)13-11/h1-8,13H",
        "InChIKey": null,
        "Canonical SMILES": "C=1C=CC2=C(C1)NC=3C=CC=CC32",
        "Molecular Formula": "C<sub>12</sub>H<sub>9</sub>N",
        "Molecular Mass": "167.21",
        "Boiling Point": "355 °C",
        "Melting Point": "245 °C",
        "Density": "1.10 g/cm³ @ Temp: 18 °C"
    }
}