{
    "cas_no": "542-46-1",
    "key_name": "Civetone",
    "cn_name": "环十七烯-9-酮-1;(Z)-9-环十七烯-1-酮;灵猫酮;",
    "alternate_name": "9-Cycloheptadecen-1-one, (9<em>Z</em>)-;9-Cycloheptadecen-1-one, (<em>Z</em>)-;Civetone;(9<em>Z</em>)-9-Cycloheptadecen-1-one;<em>cis</em>-Civetone;(Z)-Cycloheptadec-9-enone;(<em>Z</em>)-Civetone",
    "duplicated_cas_no": "",
    "SMILES": "O=C1CCCCCCC/C=C\\CCCCCCC1",
    "meta_data": {
        "InChI": "InChI=1S/C17H30O/c18-17-15-13-11-9-7-5-3-1-2-4-6-8-10-12-14-16-17/h1-2H,3-16H2/b2-1-",
        "InChIKey": null,
        "Canonical SMILES": "O=C1CCCCCCCC=CCCCCCCC1",
        "Molecular Formula": "C<sub>17</sub>H<sub>30</sub>O",
        "Molecular Mass": "250.42",
        "Boiling Point": "343 °C",
        "Melting Point": "32.5 °C",
        "Density": "0.917 g/cm³ @ Temp: 334 °C"
    }
}