{
    "cas_no": "1719-76-2",
    "key_name": "<em>N</em>-(1-Methylethyl)thiourea",
    "cn_name": "异丙基硫脲;1-异丙基-2-硫脲;",
    "alternate_name": "Thiourea, <em>N</em>-(1-methylethyl)-;Urea, 1-isopropyl-2-thio-;Thiourea, (1-methylethyl)-;<em>N</em>-(1-Methylethyl)thiourea;Isopropylthiourea;<em>N</em>-Isopropylthiourea;1-Isopropylthiourea;1-Iso-Propyl-2-thiourea;(Propan-2-yl)thiourea",
    "duplicated_cas_no": "",
    "SMILES": "N(C(C)C)C(N)=S",
    "meta_data": {
        "InChI": "InChI=1S/C4H10N2S/c1-3(2)6-4(5)7/h3H,1-2H3,(H3,5,6,7)",
        "InChIKey": null,
        "Canonical SMILES": "S=C(N)NC(C)C",
        "Molecular Formula": "C<sub>4</sub>H<sub>10</sub>N<sub>2</sub>S",
        "Molecular Mass": "118.20",
        "Melting Point": "169-170 °C"
    }
}