{
    "cas_no": "1195-79-5",
    "key_name": "(±)-Fenchone",
    "cn_name": "1,3,3-三甲基-二环[2.2.1]庚-2-酮;",
    "alternate_name": "Bicyclo[2.2.1]heptan-2-one, 1,3,3-trimethyl-;2-Norbornanone, 1,3,3-trimethyl-;1,3,3-Trimethylbicyclo[2.2.1]heptan-2-one;Fenchone;1,3,3-Trimethyl-2-norbornanone;1,3,3-Trimethylnorcamphor;<em>dl</em>-Fenchone;(±)-Fenchone;NSC 122687;NSC 8896",
    "duplicated_cas_no": "126-21-6;18492-37-0;1071582-04-1",
    "SMILES": "CC12C(=O)C(C)(C)C(C1)CC2",
    "meta_data": {
        "InChI": "InChI=1S/C10H16O/c1-9(2)7-4-5-10(3,6-7)8(9)11/h7H,4-6H2,1-3H3",
        "InChIKey": null,
        "Canonical SMILES": "O=C1C(C)(C)C2CCC1(C)C2",
        "Molecular Formula": "C<sub>10</sub>H<sub>16</sub>O",
        "Molecular Mass": "152.23",
        "Boiling Point": "191-193 °C",
        "Melting Point": "5 °C",
        "Density": "0.9443 g/cm³ @ Temp: 20 °C"
    }
}