{
    "cas_no": "18643-86-2",
    "key_name": "1,4-Dimethyl 2-bromo-1,4-benzenedicarboxylate",
    "cn_name": "邻溴对二苯甲酸二甲酯;",
    "alternate_name": "1,4-Benzenedicarboxylic acid, 2-bromo-, 1,4-dimethyl ester;Terephthalic acid, bromo-, dimethyl ester;1,4-Benzenedicarboxylic acid, 2-bromo-, dimethyl ester;1,4-Dimethyl 2-bromo-1,4-benzenedicarboxylate;Dimethyl monobromoterephthalate;Dimethyl 2-bromoterephthalate;Dimethyl bromoterephthalate;Dimethyl 2-bromobenzene-1,4-dicarboxylate;1,4-Dimethyl 2-bromobenzene-1,4-dicarboxylate",
    "duplicated_cas_no": "223564-57-6",
    "SMILES": "C(OC)(=O)C1=C(Br)C=C(C(OC)=O)C=C1",
    "meta_data": {
        "InChI": "InChI=1S/C10H9BrO4/c1-14-9(12)6-3-4-7(8(11)5-6)10(13)15-2/h3-5H,1-2H3",
        "InChIKey": null,
        "Canonical SMILES": "O=C(OC)C1=CC=C(C(=O)OC)C(Br)=C1",
        "Molecular Formula": "C<sub>10</sub>H<sub>9</sub>BrO<sub>4</sub>",
        "Molecular Mass": "273.08",
        "Melting Point": "113-114 °C"
    }
}