{
    "cas_no": "90-00-6",
    "key_name": "2-Ethylphenol",
    "cn_name": "2-乙基苯酚;",
    "alternate_name": "Phenol, 2-ethyl-;Phenol, <em>o</em>-ethyl-;2-Ethylphenol;<em>o</em>-Ethylphenol;Phlorol;1-Ethyl-2-hydroxybenzene;NSC 10112;<em>o</em>-Hydroxyethylbenzene",
    "duplicated_cas_no": "",
    "SMILES": "C(C)C1=C(O)C=CC=C1",
    "meta_data": {
        "InChI": "InChI=1S/C8H10O/c1-2-7-5-3-4-6-8(7)9/h3-6,9H,2H2,1H3",
        "InChIKey": null,
        "Canonical SMILES": "OC=1C=CC=CC1CC",
        "Molecular Formula": "C<sub>8</sub>H<sub>10</sub>O",
        "Molecular Mass": "122.16",
        "Boiling Point": "204.5 °C",
        "Melting Point": "18 °C",
        "Density": "1.0146 g/cm³ @ Temp: 25 °C"
    }
}