{
    "cas_no": "14062-24-9",
    "key_name": "Benzeneacetic acid, 4-chloro-, ethyl ester",
    "cn_name": null,
    "alternate_name": "Benzeneacetic acid, 4-chloro-, ethyl ester;Acetic acid, (<em>p</em>-chlorophenyl)-, ethyl ester;<em>p</em>-Chlorophenylacetic acid ethyl ester;Ethyl (4-chlorophenyl)acetate;Ethyl (<em>p</em>-chlorophenyl)acetate;Ethyl 4-chlorobenzeneacetate;NSC 368009;(4-Chlorophenyl)acetic acid ethyl ester;4-Chlorobenzeneacetic acid ethyl ester;2-(4-Chlorophenyl)acetic acid ethyl ester;Ethyl 2-(4-chlorophenyl)acetate",
    "duplicated_cas_no": "278791-43-8",
    "SMILES": "C(C(OCC)=O)C1=CC=C(Cl)C=C1",
    "meta_data": {
        "InChI": "InChI=1S/C10H11ClO2/c1-2-13-10(12)7-8-3-5-9(11)6-4-8/h3-6H,2,7H2,1H3",
        "InChIKey": null,
        "Canonical SMILES": "O=C(OCC)CC1=CC=C(Cl)C=C1",
        "Molecular Formula": "C<sub>10</sub>H<sub>11</sub>ClO<sub>2</sub>",
        "Molecular Mass": "198.65",
        "Boiling Point": "134-135 °C @ Press: 15 Torr",
        "Melting Point": "32-34 °C"
    }
}