{
    "cas_no": "5993-91-9",
    "key_name": "1<em>H</em>-Benzimidazole-2-methanamine, hydrochloride (1:2)",
    "cn_name": "2-(氨甲基)苯并咪唑二盐酸盐水合物;",
    "alternate_name": "1<em>H</em>-Benzimidazole-2-methanamine, hydrochloride (1:2);1<em>H</em>-Benzimidazole-2-methanamine, dihydrochloride;Benzimidazole, 2-(aminomethyl)-, dihydrochloride;2-Aminomethylbenzimidazole dihydrochloride;2-Aminomethyl-1<em>H</em>-benzimidazole dihydrochloride;(1<em>H</em>-Benzimidazol-2-yl)methanamine dihydrochloride;(1<em>H</em>-1,3-Benzodiazol-2-yl)methanamine dihydrochloride;1<em>H</em>-1,3-Benzodiazol-2-ylmethanamine dihydrochloride;(1<em>H</em>-Benzimidazol-2-ylmethyl)amine dihydrochloride;2-(Azaniumylmethyl)-1<em>H</em>-1,3-benzodiazol-1-ium dichloride",
    "duplicated_cas_no": "1031737-23-1;1431380-87-8",
    "SMILES": "C(N)C=1NC=2C(N1)=CC=CC2.Cl",
    "meta_data": {
        "InChI": "InChI=1S/C8H9N3.2ClH/c9-5-8-10-6-3-1-2-4-7(6)11-8;;/h1-4H,5,9H2,(H,10,11);2*1H",
        "InChIKey": null,
        "Canonical SMILES": "Cl.N=1C=2C=CC=CC2NC1CN",
        "Molecular Formula": "C<sub>8</sub>H<sub>9</sub>N<sub>3</sub>.2ClH",
        "Molecular Mass": "",
        "Melting Point": "264-265 °C (decomp)"
    }
}