{
    "cas_no": "818-81-5",
    "key_name": "2-Methyloctanol",
    "cn_name": null,
    "alternate_name": "1-Octanol, 2-methyl-;2-Methyl-1-octanol;1-Hydroxy-2-methyloctane;2-Methyloctanol",
    "duplicated_cas_no": "152615-07-1",
    "SMILES": "C(CCCCCC)(CO)C",
    "meta_data": {
        "InChI": "InChI=1S/C9H20O/c1-3-4-5-6-7-9(2)8-10/h9-10H,3-8H2,1-2H3",
        "InChIKey": null,
        "Canonical SMILES": "OCC(C)CCCCCC",
        "Molecular Formula": "C<sub>9</sub>H<sub>20</sub>O",
        "Molecular Mass": "144.25",
        "Boiling Point": "100 °C @ Press: 15 Torr"
    }
}