{
    "cas_no": "1122-81-2",
    "key_name": "4-Propylpyridine",
    "cn_name": "4-丙基吡啶;",
    "alternate_name": "Pyridine, 4-propyl-;4-Propylpyridine;1-(4-Pyridyl)propane;4-<em>n</em>-Propylpyridine;NSC 967",
    "duplicated_cas_no": "",
    "SMILES": "C(CC)C=1C=CN=CC1",
    "meta_data": {
        "InChI": "InChI=1S/C8H11N/c1-2-3-8-4-6-9-7-5-8/h4-7H,2-3H2,1H3",
        "InChIKey": null,
        "Canonical SMILES": "N=1C=CC(=CC1)CCC",
        "Molecular Formula": "C<sub>8</sub>H<sub>11</sub>N",
        "Molecular Mass": "121.18",
        "Boiling Point": "185 °C",
        "Melting Point": "131-131.6 °C",
        "Density": "0.9250 g/cm³ @ Temp: 20 °C"
    }
}