{
    "cas_no": "3378-82-3",
    "key_name": "1-Bromo-2-naphthalenecarboxaldehyde",
    "cn_name": "1-溴-2-萘甲醛;1-溴-2-萘甲醛;",
    "alternate_name": "2-Naphthalenecarboxaldehyde, 1-bromo-;2-Naphthaldehyde, 1-bromo-;1-Bromo-2-naphthalenecarboxaldehyde;1-Bromo-2-naphthaldehyde;1-Bromonaphthalene-2-carbaldehyde",
    "duplicated_cas_no": "",
    "SMILES": "BrC=1C2=C(C=CC1C=O)C=CC=C2",
    "meta_data": {
        "InChI": "InChI=1S/C11H7BrO/c12-11-9(7-13)6-5-8-3-1-2-4-10(8)11/h1-7H",
        "InChIKey": null,
        "Canonical SMILES": "O=CC=1C=CC=2C=CC=CC2C1Br",
        "Molecular Formula": "C<sub>11</sub>H<sub>7</sub>BrO",
        "Molecular Mass": "235.08",
        "Melting Point": "119-120 °C"
    }
}