{
    "cas_no": "5293-84-5",
    "key_name": "Phosphonium, (chloromethyl)triphenyl-, chloride (1:1)",
    "cn_name": "(氯甲基)三苯基氯化磷;氯甲基三苯基膦氯化物;",
    "alternate_name": "Phosphonium, (chloromethyl)triphenyl-, chloride (1:1);Phosphonium, (chloromethyl)triphenyl-, chloride;(Chloromethyl)triphenylphosphonium chloride;NSC 93980",
    "duplicated_cas_no": "",
    "SMILES": "[P+](CCl)(C1=CC=CC=C1)(C2=CC=CC=C2)C3=CC=CC=C3.[Cl-]",
    "meta_data": {
        "InChI": "InChI=1S/C19H17ClP.ClH/c20-16-21(17-10-4-1-5-11-17,18-12-6-2-7-13-18)19-14-8-3-9-15-19;/h1-15H,16H2;1H/q+1;/p-1",
        "InChIKey": null,
        "Canonical SMILES": "[Cl-].ClC[P+](C=1C=CC=CC1)(C=2C=CC=CC2)C=3C=CC=CC3",
        "Molecular Formula": "C<sub>19</sub>H<sub>17</sub>ClP.Cl",
        "Molecular Mass": "",
        "Melting Point": "256-258 °C"
    }
}