{
    "cas_no": "5021-93-2",
    "key_name": "Diethyldiethoxysilane",
    "cn_name": "二乙氧基二乙基硅烷;二乙基二乙氧基硅烷;",
    "alternate_name": "Silane, diethoxydiethyl-;Diethoxydiethylsilane;Diethyldiethoxysilane",
    "duplicated_cas_no": "",
    "SMILES": "[Si](OCC)(OCC)(CC)CC",
    "meta_data": {
        "InChI": "InChI=1S/C8H20O2Si/c1-5-9-11(7-3,8-4)10-6-2/h5-8H2,1-4H3",
        "InChIKey": null,
        "Canonical SMILES": "O(CC)[Si](OCC)(CC)CC",
        "Molecular Formula": "C<sub>8</sub>H<sub>20</sub>O<sub>2</sub>Si",
        "Molecular Mass": "176.33",
        "Boiling Point": "157 °C",
        "Density": "0.862 g/cm³"
    }
}