{
    "cas_no": "74137-36-3",
    "key_name": "1,3-Dibromo-5-methoxybenzene",
    "cn_name": "3,5-二溴苯甲醚;",
    "alternate_name": "Benzene, 1,3-dibromo-5-methoxy-;1,3-Dibromo-5-methoxybenzene;3,5-Dibromoanisole;3,5-Bromo-1-methoxyphenyl",
    "duplicated_cas_no": "",
    "SMILES": "O(C)C1=CC(Br)=CC(Br)=C1",
    "meta_data": {
        "InChI": "InChI=1S/C7H6Br2O/c1-10-7-3-5(8)2-6(9)4-7/h2-4H,1H3",
        "InChIKey": null,
        "Canonical SMILES": "BrC=1C=C(Br)C=C(OC)C1",
        "Molecular Formula": "C<sub>7</sub>H<sub>6</sub>Br<sub>2</sub>O",
        "Molecular Mass": "265.93",
        "Melting Point": "38 °C"
    }
}