{
    "cas_no": "7517-99-9",
    "key_name": "5-(Hydroxymethyl)oxazolidin-2-one",
    "cn_name": null,
    "alternate_name": "2-Oxazolidinone, 5-(hydroxymethyl)-;5-(Hydroxymethyl)-2-oxazolidinone;5-(Hydroxymethyl)oxazolidin-2-one;5-(Hydroxymethyl)-1,3-oxazolidin-2-one",
    "duplicated_cas_no": "60487-07-2",
    "SMILES": "C(O)C1OC(=O)NC1",
    "meta_data": {
        "InChI": "InChI=1S/C4H7NO3/c6-2-3-1-5-4(7)8-3/h3,6H,1-2H2,(H,5,7)",
        "InChIKey": null,
        "Canonical SMILES": "O=C1OC(CO)CN1",
        "Molecular Formula": "C<sub>4</sub>H<sub>7</sub>NO<sub>3</sub>",
        "Molecular Mass": "117.10",
        "Melting Point": "36 °C"
    }
}