{
    "cas_no": "29528-28-7",
    "key_name": "4-(1<em>H</em>-Imidazol-5-yl)benzenamine",
    "cn_name": null,
    "alternate_name": "Benzenamine, 4-(1<em>H</em>-imidazol-5-yl)-;Imidazole, 4-(<em>p</em>-aminophenyl)-;Benzenamine, 4-(1<em>H</em>-imidazol-4-yl)-;4-(1<em>H</em>-Imidazol-5-yl)benzenamine;4-(4-Aminophenyl)-1<em>H</em>-imidazole;DA 4036;4-(1<em>H</em>-Imidazol-4-yl)aniline;4-(1<em>H</em>-Imidazol-4-yl)phenylamine",
    "duplicated_cas_no": "",
    "SMILES": "NC1=CC=C(C=C1)C2=CN=CN2",
    "meta_data": {
        "InChI": "InChI=1S/C9H9N3/c10-8-3-1-7(2-4-8)9-5-11-6-12-9/h1-6H,10H2,(H,11,12)",
        "InChIKey": null,
        "Canonical SMILES": "N1=CNC(=C1)C=2C=CC(N)=CC2",
        "Molecular Formula": "C<sub>9</sub>H<sub>9</sub>N<sub>3</sub>",
        "Molecular Mass": "159.19",
        "Melting Point": "98 °C"
    }
}