{
    "cas_no": "509088-69-1",
    "key_name": "1,3-Propanediol, 2-amino-2-[2-[2-chloro-4-[[3-(phenylmethoxy)phenyl]thio]phenyl]ethyl]-, hydrochloride (1:1)",
    "cn_name": null,
    "alternate_name": "1,3-Propanediol, 2-amino-2-[2-[2-chloro-4-[[3-(phenylmethoxy)phenyl]thio]phenyl]ethyl]-, hydrochloride (1:1);1,3-Propanediol, 2-amino-2-[2-[2-chloro-4-[[3-(phenylmethoxy)phenyl]thio]phenyl]ethyl]-, hydrochloride;KRP 203 HCl;2-Amino-2-(4-((3-(benzyloxy)phenyl)thio)-2-chlorophenethyl)propane-1,3-diol hydrochloride;2-Amino-2-(4-((3-(benzyloxy)phenyl)thio)-2-chloro-phenethyl)propane-1,3-diol hydrochloride;Mocravimod hydrochloride",
    "duplicated_cas_no": "",
    "SMILES": "C(CC(CO)(CO)N)C1=C(Cl)C=C(SC2=CC(OCC3=CC=CC=C3)=CC=C2)C=C1.Cl",
    "meta_data": {
        "InChI": "InChI=1S/C24H26ClNO3S.ClH/c25-23-14-22(10-9-19(23)11-12-24(26,16-27)17-28)30-21-8-4-7-20(13-21)29-15-18-5-2-1-3-6-18;/h1-10,13-14,27-28H,11-12,15-17,26H2;1H",
        "InChIKey": null,
        "Canonical SMILES": "Cl.ClC1=CC(SC=2C=CC=C(OCC=3C=CC=CC3)C2)=CC=C1CCC(N)(CO)CO",
        "Molecular Formula": "C<sub>24</sub>H<sub>26</sub>ClNO<sub>3</sub>S.ClH",
        "Molecular Mass": "",
        "Melting Point": "199-200 °C (decomp)"
    }
}