{
    "cas_no": "542-05-2",
    "key_name": "3-Oxopentanedioic acid",
    "cn_name": "1,3-丙酮二羧酸;",
    "alternate_name": "Pentanedioic acid, 3-oxo-;Glutaric acid, 3-oxo-;Glutaric acid, β-oxo-;3-Oxopentanedioic acid;<em>s</em>-Acetonedicarboxylic acid;β-Ketoglutaric acid;3-Oxoglutaric acid;Acetone-1,3-dicarboxylic acid;1,3-Dicarboxyacetone;β-Oxoglutaric acid;3-Ketoglutaric acid",
    "duplicated_cas_no": "",
    "SMILES": "C(C(CC(O)=O)=O)C(O)=O",
    "meta_data": {
        "InChI": "InChI=1S/C5H6O5/c6-3(1-4(7)8)2-5(9)10/h1-2H2,(H,7,8)(H,9,10)",
        "InChIKey": null,
        "Canonical SMILES": "O=C(O)CC(=O)CC(=O)O",
        "Molecular Formula": "C<sub>5</sub>H<sub>6</sub>O<sub>5</sub>",
        "Molecular Mass": "146.10",
        "Melting Point": "138 °C (decomp)"
    }
}