{
    "cas_no": "79-50-5",
    "key_name": "(±)-Pantolactone",
    "cn_name": "DL-泛酰内酯;DL-泛酰酸内酯;DL-alpha-羟基-beta,beta-二甲基-gamma-丁内酯;",
    "alternate_name": "2(3<em>H</em>)-Furanone, dihydro-3-hydroxy-4,4-dimethyl-;2(3<em>H</em>)-Furanone, dihydro-3-hydroxy-4,4-dimethyl-, (±)-;Butyric acid, α,γ-dihydroxy-β,β-dimethyl-, γ-lactone;Dihydro-3-hydroxy-4,4-dimethyl-2(3<em>H</em>)-furanone;<span class=\"text-smallcaps\">DL</span>-Pantolactone;(±)-Pantolactone;<span class=\"text-smallcaps\">DL</span>-Pantoic acid γ-lactone;<em>dl</em>-Pantoyl lactone;<span class=\"text-smallcaps\">DL</span>-Pantoyl lactone;(<em>RS</em>)-Pantolactone;(±)-Pantoyl lactone;(±)-2-Hydroxy-3,3-dimethyl-γ-butyrolactone;α-Oxy-β,β-dimethyl-γ-butyrolactone;2,4-Dihydroxy-3,3-dimethylbutanoic acid γ-lactone;2,4-Dihydroxy-3,3-dimethylbutyric acid γ-lactone;2-Hydroxy-3,3-dimethylbutan-4-olide;2-Hydroxy-3,3-dimethyl-γ-butyrolactone;3-Hydroxy-4,4-dimethyl-2-oxotetrahydrofuran;3-Hydroxy-4,4-dimethyl-2-tetrahydrofuranone;3-Hydroxydihydro-4,4-dimethyl-2(3<em>H</em>)-furanone;NSC 135788;NSC 5926;α-Hydroxy-β,β-dimethyl-γ-butyrolactone;3-Hydroxy-4,4-dimethyldihydrofuran-2(3<em>H</em>)-one;3-Hydroxy-4,4-dimethyl-dihydro-furan-2-one;3-Hydroxy-4,4-dimethyloxolan-2-one",
    "duplicated_cas_no": "52126-90-6",
    "SMILES": "OC1C(C)(C)COC1=O",
    "meta_data": {
        "InChI": "InChI=1S/C6H10O3/c1-6(2)3-9-5(8)4(6)7/h4,7H,3H2,1-2H3",
        "InChIKey": null,
        "Canonical SMILES": "O=C1OCC(C)(C)C1O",
        "Molecular Formula": "C<sub>6</sub>H<sub>10</sub>O<sub>3</sub>",
        "Molecular Mass": "130.14",
        "Boiling Point": "120 °C @ Press: 11 Torr",
        "Melting Point": "91-92 °C"
    }
}