{
    "cas_no": "64168-11-2",
    "key_name": "4,4′-Trimethylenebis(1-methylpiperidine)",
    "cn_name": "4,4\"-三亚甲基双(1-甲基哌啶);",
    "alternate_name": "Piperidine, 4,4′-(1,3-propanediyl)bis[1-methyl-;4,4′-(1,3-Propanediyl)bis[1-methylpiperidine];4,4′-Trimethylenebis(<em>N</em>-methylpiperidine);4,4′-Trimethylenebis(1-methylpiperidine);1-Methyl-4-[3-(1-methylpiperidin-4-yl)propyl]piperidine",
    "duplicated_cas_no": "",
    "SMILES": "C(CCC1CCN(C)CC1)C2CCN(C)CC2",
    "meta_data": {
        "InChI": "InChI=1S/C15H30N2/c1-16-10-6-14(7-11-16)4-3-5-15-8-12-17(2)13-9-15/h14-15H,3-13H2,1-2H3",
        "InChIKey": null,
        "Canonical SMILES": "N1(C)CCC(CC1)CCCC2CCN(C)CC2",
        "Molecular Formula": "C<sub>15</sub>H<sub>30</sub>N<sub>2</sub>",
        "Molecular Mass": "238.41",
        "Melting Point": "13.7 °C"
    }
}