{
    "cas_no": "590-66-9",
    "key_name": "1,1-Dimethylcyclohexane",
    "cn_name": "1，1-二甲基环己烷;1,1-二甲基环己烷;",
    "alternate_name": "Cyclohexane, 1,1-dimethyl-;1,1-Dimethylcyclohexane;<em>gem</em>-Dimethylcyclohexane;NSC 74156",
    "duplicated_cas_no": "",
    "SMILES": "CC1(C)CCCCC1",
    "meta_data": {
        "InChI": "InChI=1S/C8H16/c1-8(2)6-4-3-5-7-8/h3-7H2,1-2H3",
        "InChIKey": null,
        "Canonical SMILES": "CC1(C)CCCCC1",
        "Molecular Formula": "C<sub>8</sub>H<sub>16</sub>",
        "Molecular Mass": "112.21",
        "Boiling Point": "119.6 °C",
        "Melting Point": "-33.3 °C",
        "Density": "0.783 g/cm³ @ Temp: 15 °C"
    }
}