{
    "cas_no": "112-85-6",
    "key_name": "Docosanoic acid",
    "cn_name": "二十二酸;山嵛酸;",
    "alternate_name": "Docosanoic acid;Behenic acid;<em>n</em>-Docosanoic acid;Hydrofol Acid 560;1-Docosanoic acid;Hydrofol 2022-55;Glycon B 70;NAA 222S;B 95 (acid);B 95;NAA 22S;Edenor C 22-85R;EXL 5;Prifac 2987;NSC 32364;Edenor C 22-85RGS;Prifrac 2989;B 100DF",
    "duplicated_cas_no": "",
    "SMILES": "C(CCCCCCCCCCCCCC)CCCCCCC(O)=O",
    "meta_data": {
        "InChI": "InChI=1S/C22H44O2/c1-2-3-4-5-6-7-8-9-10-11-12-13-14-15-16-17-18-19-20-21-22(23)24/h2-21H2,1H3,(H,23,24)",
        "InChIKey": null,
        "Canonical SMILES": "O=C(O)CCCCCCCCCCCCCCCCCCCCC",
        "Molecular Formula": "C<sub>22</sub>H<sub>44</sub>O<sub>2</sub>",
        "Molecular Mass": "340.58",
        "Boiling Point": "306 °C @ Press: 60 Torr",
        "Melting Point": "79.95 °C",
        "Density": "0.8221 g/cm³ @ Temp: 100 °C"
    }
}