{
    "cas_no": "371-42-6",
    "key_name": "4-Fluorobenzenethiol",
    "cn_name": "对氟苯硫酚;4-氟苯硫酚;",
    "alternate_name": "Benzenethiol, 4-fluoro-;Benzenethiol, <em>p</em>-fluoro-;4-Fluorobenzenethiol;<em>p</em>-Fluorobenzenethiol;<em>p</em>-Fluorothiophenol;4-Fluorothiophenol;4-Fluorophenyl mercaptan;(4-Fluorophenyl)thiol;NSC 77081",
    "duplicated_cas_no": "",
    "SMILES": "FC1=CC=C(S)C=C1",
    "meta_data": {
        "InChI": "InChI=1S/C6H5FS/c7-5-1-3-6(8)4-2-5/h1-4,8H",
        "InChIKey": null,
        "Canonical SMILES": "FC1=CC=C(S)C=C1",
        "Molecular Formula": "C<sub>6</sub>H<sub>5</sub>FS",
        "Molecular Mass": "128.17",
        "Boiling Point": "162 °C",
        "Melting Point": "49-51 °C"
    }
}