{
    "cas_no": "2719-40-6",
    "key_name": "2-Chloro-4-(chloromethyl)-1-methylbenzene",
    "cn_name": "3-氯-4-甲基苯甲酰氯;",
    "alternate_name": "Benzene, 2-chloro-4-(chloromethyl)-1-methyl-;<em>p</em>-Xylene, α<sup>4</sup>,2-dichloro-;2-Chloro-4-(chloromethyl)-1-methylbenzene;3-Chloro-4-methylbenzyl chloride;3-Chloro-1-(chloromethyl)-4-methylbenzene;α<sup>4</sup>,2-Dichloro-<em>p</em>-xylene;1-Methyl-2-chloro-4-chloromethylbenzene",
    "duplicated_cas_no": "",
    "SMILES": "C(Cl)C1=CC(Cl)=C(C)C=C1",
    "meta_data": {
        "InChI": "InChI=1S/C8H8Cl2/c1-6-2-3-7(5-9)4-8(6)10/h2-4H,5H2,1H3",
        "InChIKey": null,
        "Canonical SMILES": "ClC1=CC(=CC=C1C)CCl",
        "Molecular Formula": "C<sub>8</sub>H<sub>8</sub>Cl<sub>2</sub>",
        "Molecular Mass": "175.06",
        "Boiling Point": "124 °C @ Press: 20 Torr"
    }
}