{
    "cas_no": "1584-03-8",
    "key_name": "Perfluoro(2-methyl-2-pentene)",
    "cn_name": "全氟-2-甲基-2-戊烯;十二氟-2-甲基-2-戊烯;",
    "alternate_name": "2-Pentene, 1,1,1,3,4,4,5,5,5-nonafluoro-2-(trifluoromethyl)-;2-Pentene, nonafluoro-2-(trifluoromethyl)-;1,1,1,3,4,4,5,5,5-Nonafluoro-2-(trifluoromethyl)-2-pentene;Perfluoro(2-methyl-2-pentene);2-(Trifluoromethyl)perfluoro-2-pentene;2-(Trifluoromethyl)nonafluoro-2-pentene;Perfluoro(1-ethyl-2-methyl-1-propene);Hexafluoropropene dimer",
    "duplicated_cas_no": "",
    "SMILES": "C(=C(C(C(F)(F)F)(F)F)F)(C(F)(F)F)C(F)(F)F",
    "meta_data": {
        "InChI": "InChI=1S/C6F12/c7-2(3(8,9)6(16,17)18)1(4(10,11)12)5(13,14)15",
        "InChIKey": null,
        "Canonical SMILES": "FC(=C(C(F)(F)F)C(F)(F)F)C(F)(F)C(F)(F)F",
        "Molecular Formula": "C<sub>6</sub>F<sub>12</sub>",
        "Molecular Mass": "300.05",
        "Boiling Point": "50.5 °C",
        "Melting Point": "48-50 °C"
    }
}