{
    "cas_no": "393-11-3",
    "key_name": "4-Nitro-3-(trifluoromethyl)aniline",
    "cn_name": "5-氨基-2-硝基三氟甲苯;4-硝基-3-三氟甲基苯胺;",
    "alternate_name": "Benzenamine, 4-nitro-3-(trifluoromethyl)-;<em>m</em>-Toluidine, α,α,α-trifluoro-4-nitro-;4-Nitro-3-(trifluoromethyl)benzenamine;α,α,α-Trifluoro-4-nitro-<em>m</em>-toluidine;3-Trifluoromethyl-4-nitroaniline;4-Nitro-3-(trifluoromethyl)aniline;5-Amino-2-nitrobenzotrifluoride;NSC 10323;(4-Nitro-3-trifluoromethylphenyl)amine;3-Amino-6-nitrobenzotrifluoride",
    "duplicated_cas_no": "",
    "SMILES": "C(F)(F)(F)C1=C(N(=O)=O)C=CC(N)=C1",
    "meta_data": {
        "InChI": "InChI=1S/C7H5F3N2O2/c8-7(9,10)5-3-4(11)1-2-6(5)12(13)14/h1-3H,11H2",
        "InChIKey": null,
        "Canonical SMILES": "O=N(=O)C1=CC=C(N)C=C1C(F)(F)F",
        "Molecular Formula": "C<sub>7</sub>H<sub>5</sub>F<sub>3</sub>N<sub>2</sub>O<sub>2</sub>",
        "Molecular Mass": "206.12",
        "Melting Point": "129 °C"
    }
}