{
    "cas_no": "3910-35-8",
    "key_name": "1,1,3-Trimethyl-3-phenylindane",
    "cn_name": "2,3-二氢-1,1,3-三甲基-3-苯基-1H-茚;",
    "alternate_name": "1<em>H</em>-Indene, 2,3-dihydro-1,1,3-trimethyl-3-phenyl-;Indan, 1,1,3-trimethyl-3-phenyl-;2,3-Dihydro-1,1,3-trimethyl-3-phenyl-1<em>H</em>-indene;1,1,3-Trimethyl-3-phenylindan;1,3,3-Trimethyl-1-phenylindan;1,1,3-Trimethyl-3-phenylindane;1-Phenyl-1,3,3-trimethylindan;1,2-Dihydro-1,3,3-trimethyl-1-phenylindene;1-Phenyl-1,3,3-trimethylindane;1,3,3-Trimethyl-1-phenylindane;NSC 11311;NSC 55135;1,1,3-Trimethyl-3-phenyl-2,3-dihydro-1<em>H</em>-indene;1,1,3-Trimethyl-3-phenyl-2<em>H</em>-indene",
    "duplicated_cas_no": "",
    "SMILES": "CC1(C=2C(C(C)(C)C1)=CC=CC2)C3=CC=CC=C3",
    "meta_data": {
        "InChI": "InChI=1S/C18H20/c1-17(2)13-18(3,14-9-5-4-6-10-14)16-12-8-7-11-15(16)17/h4-12H,13H2,1-3H3",
        "InChIKey": null,
        "Canonical SMILES": "C=1C=CC(=CC1)C2(C=3C=CC=CC3C(C)(C)C2)C",
        "Molecular Formula": "C<sub>18</sub>H<sub>20</sub>",
        "Molecular Mass": "236.35",
        "Boiling Point": "308.5 °C",
        "Melting Point": "52.5 °C",
        "Density": "0.968 g/cm³ @ Temp: 70 °C"
    }
}