{
    "cas_no": "404-71-7",
    "key_name": "3-Fluorophenyl isocyanate",
    "cn_name": "3-氟异氰酸苯酯;",
    "alternate_name": "Benzene, 1-fluoro-3-isocyanato-;Isocyanic acid, <em>m</em>-fluorophenyl ester;1-Fluoro-3-isocyanatobenzene;Isocyanic acid, 3-fluorophenyl ester;<em>m</em>-Fluorophenyl isocyanate;3-Fluorophenyl isocyanate;1-Isocyanato-3-fluorobenzene",
    "duplicated_cas_no": "",
    "SMILES": "N(=C=O)C1=CC(F)=CC=C1",
    "meta_data": {
        "InChI": "InChI=1S/C7H4FNO/c8-6-2-1-3-7(4-6)9-5-10/h1-4H",
        "InChIKey": null,
        "Canonical SMILES": "O=C=NC=1C=CC=C(F)C1",
        "Molecular Formula": "C<sub>7</sub>H<sub>4</sub>FNO",
        "Molecular Mass": "137.11",
        "Boiling Point": "66-68.5 °C @ Press: 29 Torr"
    }
}