{
    "cas_no": "13238-84-1",
    "key_name": "2,5-Diethylpyrazine",
    "cn_name": "2,5-二乙基吡嗪;",
    "alternate_name": "Pyrazine, 2,5-diethyl-;2,5-Diethylpyrazine",
    "duplicated_cas_no": "",
    "SMILES": "C(C)C=1C=NC(CC)=CN1",
    "meta_data": {
        "InChI": "InChI=1S/C8H12N2/c1-3-7-5-10-8(4-2)6-9-7/h5-6H,3-4H2,1-2H3",
        "InChIKey": null,
        "Canonical SMILES": "N=1C=C(N=CC1CC)CC",
        "Molecular Formula": "C<sub>8</sub>H<sub>12</sub>N<sub>2</sub>",
        "Molecular Mass": "136.19",
        "Boiling Point": "187-188 °C"
    }
}