{
    "cas_no": "79-01-6",
    "key_name": "Trichloroethylene",
    "cn_name": "三氯乙烯;",
    "alternate_name": "Ethene, 1,1,2-trichloro-;Ethylene, trichloro-;Ethene, trichloro-;1,1,2-Trichloroethene;Algylen;Chlorylen;Ethinyl trichloride;Ethylene trichloride;Germalgene;Threthylen;Threthylene;Trethylene;Trichloran;Trichloren;Trichloroethene;Trichloroethylene;1,1,2-Trichloroethylene;Trilene;Trimar;Westrosol;Triclene;Anamenth;Fluate;Densinfluat;Narcogen;Trilen;Chlorilen;Narkosoid;Trielin;Trieline;Trielene;TCE;F 1120;Triklone N;R 1120;TCE (chlorohydrocarbon);LPS HDX Heavy Duty Degreaser;HCO 1120;MeSH ID: D014241",
    "duplicated_cas_no": "52037-46-4",
    "SMILES": "C(=CCl)(Cl)Cl",
    "meta_data": {
        "InChI": "InChI=1S/C2HCl3/c3-1-2(4)5/h1H",
        "InChIKey": null,
        "Canonical SMILES": "ClC=C(Cl)Cl",
        "Molecular Formula": "C<sub>2</sub>HCl<sub>3</sub>",
        "Molecular Mass": "131.39",
        "Boiling Point": "87.2 °C",
        "Melting Point": "-84.7 °C",
        "Density": "1.4642 g/cm³ @ Temp: 20 °C"
    }
}