{
    "cas_no": "466-37-5",
    "key_name": "1,2,2,2-Tetraphenylethanone",
    "cn_name": "2,2,2-三苯基苯乙酮;",
    "alternate_name": "Ethanone, 1,2,2,2-tetraphenyl-;β-Benzopinacolone;Acetophenone, 2,2,2-triphenyl-;Ethanone, tetraphenyl-;1,2,2,2-Tetraphenylethanone;ω,ω,ω-Triphenylacetophenone;2,2,2-Triphenylacetophenone;Phenyl trityl ketone;Tetraphenylethanone;1,2,2,2-Tetraphenyl-1-ethanone;Benzopinacolone;NSC 194;NSC 2820",
    "duplicated_cas_no": "",
    "SMILES": "C(C(=O)C1=CC=CC=C1)(C2=CC=CC=C2)(C3=CC=CC=C3)C4=CC=CC=C4",
    "meta_data": {
        "InChI": "InChI=1S/C26H20O/c27-25(21-13-5-1-6-14-21)26(22-15-7-2-8-16-22,23-17-9-3-10-18-23)24-19-11-4-12-20-24/h1-20H",
        "InChIKey": null,
        "Canonical SMILES": "O=C(C=1C=CC=CC1)C(C=2C=CC=CC2)(C=3C=CC=CC3)C=4C=CC=CC4",
        "Molecular Formula": "C<sub>26</sub>H<sub>20</sub>O",
        "Molecular Mass": "348.44",
        "Melting Point": "183-184 °C"
    }
}