{
    "cas_no": "111-39-7",
    "key_name": "<em>N</em>-Propylethylenediamine",
    "cn_name": "N-正丙基乙二胺;N-丙基亚乙基二胺;N-丙基乙二胺;",
    "alternate_name": "1,2-Ethanediamine, <em>N</em><sup>1</sup>-propyl-;Ethylenediamine, <em>N</em>-propyl-;1,2-Ethanediamine, <em>N</em>-propyl-;<em>N</em><sup>1</sup>-Propyl-1,2-ethanediamine;<em>N</em>-Propylethylenediamine;<em>N</em>-(<em>n</em>-Propyl)ethylenediamine;<em>N</em>-Propylethane-1,2-diamine;[2-(Propylamino)ethyl]amine;NSC 166324;1-Propylethylenediamine;<em>N</em>-Propyl-1,2-diaminoethane;(2-Aminoethyl)(propyl)amine;2-(<em>n</em>-Propylamino)ethylamine",
    "duplicated_cas_no": "",
    "SMILES": "N(CCC)CCN",
    "meta_data": {
        "InChI": "InChI=1S/C5H14N2/c1-2-4-7-5-3-6/h7H,2-6H2,1H3",
        "InChIKey": null,
        "Canonical SMILES": "NCCNCCC",
        "Molecular Formula": "C<sub>5</sub>H<sub>14</sub>N<sub>2</sub>",
        "Molecular Mass": "102.18",
        "Boiling Point": "155 °C"
    }
}