{
    "cas_no": "24966-39-0",
    "key_name": "2,6-Dichlorobenzenethiol",
    "cn_name": "2,6-二氯硫酚;2,6-二氯苯硫酚;",
    "alternate_name": "Benzenethiol, 2,6-dichloro-;2,6-Dichlorobenzenethiol;2,6-Dichlorothiophenol;2,6-Dichlorophenylthiol;2,6-Dichlorobenzene-1-thiol",
    "duplicated_cas_no": "",
    "SMILES": "SC1=C(Cl)C=CC=C1Cl",
    "meta_data": {
        "InChI": "InChI=1S/C6H4Cl2S/c7-4-2-1-3-5(8)6(4)9/h1-3,9H",
        "InChIKey": null,
        "Canonical SMILES": "ClC1=CC=CC(Cl)=C1S",
        "Molecular Formula": "C<sub>6</sub>H<sub>4</sub>Cl<sub>2</sub>S",
        "Molecular Mass": "179.07",
        "Melting Point": "166-168 °C"
    }
}