{
    "cas_no": "15231-91-1",
    "key_name": "6-Bromo-2-naphthalenol",
    "cn_name": "6-溴-2-萘酚;",
    "alternate_name": "2-Naphthalenol, 6-bromo-;2-Naphthol, 6-bromo-;6-Bromo-2-naphthalenol;6-Bromo-β-naphthol;6-Bromo-2-naphthol;2-Bromo-6-hydroxynaphthalene;6-Bromo-2-hydroxynaphthalene;2-Hydroxy-6-bromonaphthalene;6-Hydroxy-2-bromonaphthalene;2-Bromo-6-naphthol;6-Bromo-2-naphthalinol;NSC 17563",
    "duplicated_cas_no": "",
    "SMILES": "BrC1=CC2=C(C=C(O)C=C2)C=C1",
    "meta_data": {
        "InChI": "InChI=1S/C10H7BrO/c11-9-3-1-8-6-10(12)4-2-7(8)5-9/h1-6,12H",
        "InChIKey": null,
        "Canonical SMILES": "BrC=1C=CC2=CC(O)=CC=C2C1",
        "Molecular Formula": "C<sub>10</sub>H<sub>7</sub>BrO",
        "Molecular Mass": "223.07",
        "Melting Point": "127-128 °C"
    }
}