{
    "cas_no": "480-94-4",
    "key_name": "1<em>H</em>-Indole-3-thiol",
    "cn_name": null,
    "alternate_name": "1<em>H</em>-Indole-3-thiol;Indole-3-thiol;3-Mercaptoindole;3-Sulfanylindole",
    "duplicated_cas_no": "",
    "SMILES": "SC=1C=2C(=CC=CC2)NC1",
    "meta_data": {
        "InChI": "InChI=1S/C8H7NS/c10-8-5-9-7-4-2-1-3-6(7)8/h1-5,9-10H",
        "InChIKey": null,
        "Canonical SMILES": "SC1=CNC=2C=CC=CC12",
        "Molecular Formula": "C<sub>8</sub>H<sub>7</sub>NS",
        "Molecular Mass": "149.21",
        "Melting Point": "99-100 °C"
    }
}