{
    "cas_no": "627-11-2",
    "key_name": "Carbonochloridic acid, 2-chloroethyl ester",
    "cn_name": "氯甲酸氯乙酯;",
    "alternate_name": "Carbonochloridic acid, 2-chloroethyl ester;Formic acid, chloro-, 2-chloroethyl ester;2-Chloroethyl chlorocarbonate;(2-Chloroethoxy)carbonyl chloride;β-Chloroethyl chloroformate;2-Chloroethyl chloroformate;2-Chloroethyl carbonochloridate;Chloroformic acid 2-chloroethyl ester;Chloroethyl chloroformate",
    "duplicated_cas_no": "1081786-38-0",
    "SMILES": "O(C(Cl)=O)CCCl",
    "meta_data": {
        "InChI": "InChI=1S/C3H4Cl2O2/c4-1-2-7-3(5)6/h1-2H2",
        "InChIKey": null,
        "Canonical SMILES": "O=C(Cl)OCCCl",
        "Molecular Formula": "C<sub>3</sub>H<sub>4</sub>Cl<sub>2</sub>O<sub>2</sub>",
        "Molecular Mass": "142.97",
        "Boiling Point": "155 °C",
        "Melting Point": "&lt;25 °C",
        "Density": "1.3847 g/cm³ @ Temp: 20 °C"
    }
}