{
    "cas_no": "5355-16-8",
    "key_name": "Diaveridine",
    "cn_name": "敌菌净;2,4-二氨基-5-(3,4-二甲氧基苄基)嘧啶;",
    "alternate_name": "2,4-Pyrimidinediamine, 5-[(3,4-dimethoxyphenyl)methyl]-;Pyrimidine, 2,4-diamino-5-veratryl-;5-[(3,4-Dimethoxyphenyl)methyl]-2,4-pyrimidinediamine;2,4-Diamino-5-(3,4-dimethoxybenzyl)pyrimidine;2,4-Diamino-5-veratrylpyrimidine;Diaveridine;Diaveridin;EGIS 5645;NSC 408735;BW 49-210",
    "duplicated_cas_no": "",
    "SMILES": "C(C1=CC(OC)=C(OC)C=C1)C=2C(N)=NC(N)=NC2",
    "meta_data": {
        "InChI": "InChI=1S/C13H16N4O2/c1-18-10-4-3-8(6-11(10)19-2)5-9-7-16-13(15)17-12(9)14/h3-4,6-7H,5H2,1-2H3,(H4,14,15,16,17)",
        "InChIKey": null,
        "Canonical SMILES": "N=1C=C(C(=NC1N)N)CC2=CC=C(OC)C(OC)=C2",
        "Molecular Formula": "C<sub>13</sub>H<sub>16</sub>N<sub>4</sub>O<sub>2</sub>",
        "Molecular Mass": "260.29",
        "Melting Point": "233 °C"
    }
}