{
    "cas_no": "630-17-1",
    "key_name": "1-Bromo-2,2-dimethylpropane",
    "cn_name": "1-溴-2,2-二甲基丙烷;溴化新戊烷;",
    "alternate_name": "Propane, 1-bromo-2,2-dimethyl-;1-Bromo-2,2-dimethylpropane;Neopentyl bromide;2,2-Dimethylpropyl bromide;2,2-Dimethyl-1-bromopropane;Bromoneopentane",
    "duplicated_cas_no": "",
    "SMILES": "C(CBr)(C)(C)C",
    "meta_data": {
        "InChI": "InChI=1S/C5H11Br/c1-5(2,3)4-6/h4H2,1-3H3",
        "InChIKey": null,
        "Canonical SMILES": "BrCC(C)(C)C",
        "Molecular Formula": "C<sub>5</sub>H<sub>11</sub>Br",
        "Molecular Mass": "151.04",
        "Boiling Point": "106 °C",
        "Density": "1.200 g/cm³ @ Temp: 20 °C"
    }
}