{
    "cas_no": "934-34-9",
    "key_name": "2-Benzothiazolinone",
    "cn_name": "2-羟基苯并噻唑;",
    "alternate_name": "2(3<em>H</em>)-Benzothiazolone;2-Benzothiazolinone;2-Hydroxybenzothiazole;2-Benzothiazolol;Benzothiazolone;2-Benzothiazolone;2-Oxobenzothiazole;NSC 26422;NSC 33823;NSC 7706;1,3-Benzothiazol-2(3<em>H</em>)-one;2,3-Dihydro-1,3-benzothiazol-2-one;1,3-Benzothiazol-2-ol",
    "duplicated_cas_no": "4464-59-9;60362-05-2;92353-21-4",
    "SMILES": "O=C1NC=2C(S1)=CC=CC2",
    "meta_data": {
        "InChI": "InChI=1S/C7H5NOS/c9-7-8-5-3-1-2-4-6(5)10-7/h1-4H,(H,8,9)",
        "InChIKey": null,
        "Canonical SMILES": "O=C1SC=2C=CC=CC2N1",
        "Molecular Formula": "C<sub>7</sub>H<sub>5</sub>NOS",
        "Molecular Mass": "151.19",
        "Boiling Point": "360 °C",
        "Melting Point": "139 °C"
    }
}