{
    "cas_no": "2234-13-1",
    "key_name": "Octachloronaphthalene",
    "cn_name": "八氯化萘;八氯萘;全氯萘;",
    "alternate_name": "Naphthalene, 1,2,3,4,5,6,7,8-octachloro-;Naphthalene, octachloro-;1,2,3,4,5,6,7,8-Octachloronaphthalene;Perna;Halowax 1051;Perchloronaphthalene;Octachloronaphthalene;PCN 75;NSC 243655",
    "duplicated_cas_no": "",
    "SMILES": "ClC=1C2=C(C(Cl)=C(Cl)C(Cl)=C2Cl)C(Cl)=C(Cl)C1Cl",
    "meta_data": {
        "InChI": "InChI=1S/C10Cl8/c11-3-1-2(5(13)9(17)7(3)15)6(14)10(18)8(16)4(1)12",
        "InChIKey": null,
        "Canonical SMILES": "ClC=1C(Cl)=C(Cl)C=2C(Cl)=C(Cl)C(Cl)=C(Cl)C2C1Cl",
        "Molecular Formula": "C<sub>10</sub>Cl<sub>8</sub>",
        "Molecular Mass": "403.73",
        "Boiling Point": "246 °C @ Press: 0.50 Torr",
        "Melting Point": "185-197 °C",
        "Density": "2.00 g/cm³ @ Temp: 25 °C"
    }
}