{
    "cas_no": "1800-91-5",
    "key_name": "3,3,4,4,5,5,6,6,7,7,8,8-Dodecafluoro-1,9-decadiene",
    "cn_name": "十二氟-1,9-癸二烯;3,3,4,4,5,5,6,6,7,7,8,8-十二氟-1,9-癸二烯;",
    "alternate_name": "1,9-Decadiene, 3,3,4,4,5,5,6,6,7,7,8,8-dodecafluoro-;3,3,4,4,5,5,6,6,7,7,8,8-Dodecafluoro-1,9-decadiene;1,6-Divinylperfluorohexane;C 6DV",
    "duplicated_cas_no": "",
    "SMILES": "C(C(C(C(C=C)(F)F)(F)F)(F)F)(C(C(C=C)(F)F)(F)F)(F)F",
    "meta_data": {
        "InChI": "InChI=1S/C10H6F12/c1-3-5(11,12)7(15,16)9(19,20)10(21,22)8(17,18)6(13,14)4-2/h3-4H,1-2H2",
        "InChIKey": null,
        "Canonical SMILES": "FC(F)(C=C)C(F)(F)C(F)(F)C(F)(F)C(F)(F)C(F)(F)C=C",
        "Molecular Formula": "C<sub>10</sub>H<sub>6</sub>F<sub>12</sub>",
        "Molecular Mass": "354.14",
        "Boiling Point": "135-137 °C @ Press: 760 Torr"
    }
}