{
    "cas_no": "70110-59-7",
    "key_name": "5-<em>n</em>-Heneicosylresorcinol",
    "cn_name": null,
    "alternate_name": "1,3-Benzenediol, 5-heneicosyl-;Resorcinol, 5-heneicosyl-;5-Heneicosyl-1,3-benzenediol;5-Heneicosylresorcinol;5-<em>n</em>-Heneicosylresorcinol;1,3-Dihydroxy-5-<em>n</em>-heneicosylbenzene;1,3-Dihydroxy-5-heneicosylbenzene",
    "duplicated_cas_no": "",
    "SMILES": "C(CCCCCCCCCCCCCCCCCCCC)C1=CC(O)=CC(O)=C1",
    "meta_data": {
        "InChI": "InChI=1S/C27H48O2/c1-2-3-4-5-6-7-8-9-10-11-12-13-14-15-16-17-18-19-20-21-25-22-26(28)24-27(29)23-25/h22-24,28-29H,2-21H2,1H3",
        "InChIKey": null,
        "Canonical SMILES": "OC=1C=C(O)C=C(C1)CCCCCCCCCCCCCCCCCCCCC",
        "Molecular Formula": "C<sub>27</sub>H<sub>48</sub>O<sub>2</sub>",
        "Molecular Mass": "404.67",
        "Melting Point": "99 °C"
    }
}