{
    "cas_no": "68-39-3",
    "key_name": "4-Amino-3-isoxazolidinone",
    "cn_name": "DL-环丝氨酸;DL-环丝氨酸;DL-4-氨基-3-异噁唑烷酮;",
    "alternate_name": "3-Isoxazolidinone, 4-amino-;3-Isoxazolidinone, 4-amino-, (±)-;4-Amino-3-isoxazolidinone;<span class=\"text-smallcaps\">DL</span>-Cycloserine;3-Oxoisooxazolidin-4-amine",
    "duplicated_cas_no": "4834-58-6",
    "SMILES": "NC1C(=O)NOC1",
    "meta_data": {
        "InChI": "InChI=1S/C3H6N2O2/c4-2-1-7-5-3(2)6/h2H,1,4H2,(H,5,6)",
        "InChIKey": null,
        "Canonical SMILES": "O=C1NOCC1N",
        "Molecular Formula": "C<sub>3</sub>H<sub>6</sub>N<sub>2</sub>O<sub>2</sub>",
        "Molecular Mass": "102.09",
        "Melting Point": "138-141 °C"
    }
}