{
    "cas_no": "479-43-6",
    "key_name": "Canthin-6-one",
    "cn_name": null,
    "alternate_name": "6<em>H</em>-Indolo[3,2,1-<em>de</em>][1,5]naphthyridin-6-one;Canthin-6-one;NSC 103003",
    "duplicated_cas_no": "",
    "SMILES": "O=C1N2C=3C(C=4C2=CC=CC4)=CC=NC3C=C1",
    "meta_data": {
        "InChI": "InChI=1S/C14H8N2O/c17-13-6-5-11-14-10(7-8-15-11)9-3-1-2-4-12(9)16(13)14/h1-8H",
        "InChIKey": null,
        "Canonical SMILES": "O=C1C=CC2=NC=CC=3C4=CC=CC=C4N1C23",
        "Molecular Formula": "C<sub>14</sub>H<sub>8</sub>N<sub>2</sub>O",
        "Molecular Mass": "220.23",
        "Melting Point": "161-161.5 °C"
    }
}