{
    "cas_no": "3739-94-4",
    "key_name": "2,6-Pyridinedicarbonyl dichloride",
    "cn_name": "2,6-吡啶二甲酰氯;",
    "alternate_name": "2,6-Pyridinedicarbonyl dichloride;2,6-Pyridinedicarbonyl chloride;2,6-Pyridinedicarboxylic acid dichloride;2,6-Bis(chlorocarbonyl)pyridine;2,6-Dicarbonylpyridine dichloride;(2,6-Chlorocarbonyl)pyridine;Pyridine-2,6-bis(carbonyl chloride);2,6-Pyridinedicarboxylic acid chloride;Pyridine-2,6-dicarboxylic chloride",
    "duplicated_cas_no": "",
    "SMILES": "C(Cl)(=O)C=1N=C(C(Cl)=O)C=CC1",
    "meta_data": {
        "InChI": "InChI=1S/C7H3Cl2NO2/c8-6(11)4-2-1-3-5(10-4)7(9)12/h1-3H",
        "InChIKey": null,
        "Canonical SMILES": "O=C(Cl)C=1N=C(C=CC1)C(=O)Cl",
        "Molecular Formula": "C<sub>7</sub>H<sub>3</sub>Cl<sub>2</sub>NO<sub>2</sub>",
        "Molecular Mass": "204.01",
        "Boiling Point": "163 °C @ Press: 15 Torr",
        "Melting Point": "60-61.5 °C"
    }
}