{
    "cas_no": "5813-86-5",
    "key_name": "3-Methoxybenzamide",
    "cn_name": "3-甲氧基苯甲酰胺;",
    "alternate_name": "Benzamide, 3-methoxy-;<em>m</em>-Anisamide;3-Methoxybenzamide;<em>m</em>-Methoxybenzamide;3MBA;m-Methoxybenzamide;NSC 209527;NSC 28589",
    "duplicated_cas_no": "",
    "SMILES": "C(N)(=O)C1=CC(OC)=CC=C1",
    "meta_data": {
        "InChI": "InChI=1S/C8H9NO2/c1-11-7-4-2-3-6(5-7)8(9)10/h2-5H,1H3,(H2,9,10)",
        "InChIKey": null,
        "Canonical SMILES": "O=C(N)C=1C=CC=C(OC)C1",
        "Molecular Formula": "C<sub>8</sub>H<sub>9</sub>NO<sub>2</sub>",
        "Molecular Mass": "151.16",
        "Melting Point": "134 °C"
    }
}