{
    "cas_no": "1779-49-3",
    "key_name": "Methyltriphenylphosphonium bromide",
    "cn_name": "甲基三苯基溴化鏻;",
    "alternate_name": "Phosphonium, methyltriphenyl-, bromide (1:1);Methyltriphenylphosphonium bromide;Phosphonium, methyltriphenyl-, bromide;Triphenylmethylphosphonium bromide;Triphenylphosphonium methylbromide;Triphenylphosphonium methobromide;MTPPB;M 0779;Methyltriphenyliphosphonium bromide;MePPh3Br",
    "duplicated_cas_no": "27200-84-6;131507-02-3;1233518-83-6;2069974-10-1;2413994-38-2;2640505-88-8;2700224-01-5;2983116-05-6",
    "SMILES": "[P+](C)(C1=CC=CC=C1)(C2=CC=CC=C2)C3=CC=CC=C3.[Br-]",
    "meta_data": {
        "InChI": "InChI=1S/C19H18P.BrH/c1-20(17-11-5-2-6-12-17,18-13-7-3-8-14-18)19-15-9-4-10-16-19;/h2-16H,1H3;1H/q+1;/p-1",
        "InChIKey": null,
        "Canonical SMILES": "[Br-].C=1C=CC(=CC1)[P+](C=2C=CC=CC2)(C=3C=CC=CC3)C",
        "Molecular Formula": "C<sub>19</sub>H<sub>18</sub>P.Br",
        "Molecular Mass": "",
        "Melting Point": "229-232 °C"
    }
}