{
    "cas_no": "6789-88-4",
    "key_name": "Hexyl benzoate",
    "cn_name": "苯甲酸己酯;",
    "alternate_name": "Benzoic acid, hexyl ester;Hexyl benzoate;<em>n</em>-Hexyl benzoate;1-Hexyl benzoate;Hexyl alcohol, benzoate",
    "duplicated_cas_no": "",
    "SMILES": "C(OCCCCCC)(=O)C1=CC=CC=C1",
    "meta_data": {
        "InChI": "InChI=1S/C13H18O2/c1-2-3-4-8-11-15-13(14)12-9-6-5-7-10-12/h5-7,9-10H,2-4,8,11H2,1H3",
        "InChIKey": null,
        "Canonical SMILES": "O=C(OCCCCCC)C=1C=CC=CC1",
        "Molecular Formula": "C<sub>13</sub>H<sub>18</sub>O<sub>2</sub>",
        "Molecular Mass": "206.28",
        "Boiling Point": "272 °C @ Press: 770 Torr",
        "Density": "0.971 g/cm³ @ Temp: 25 °C"
    }
}