{
    "cas_no": "131-12-4",
    "key_name": "Pimpinellin",
    "cn_name": "茴芹内酯;",
    "alternate_name": "2<em>H</em>-Furo[2,3-<em>h</em>]-1-benzopyran-2-one, 5,6-dimethoxy-;Pimpinellin;5,6-Dimethoxy-2<em>H</em>-furo[2,3-<em>h</em>]-1-benzopyran-2-one;Pimpinelline;Pimpinecilin;6,7-Dimethoxyangelicin;Pimpinelin",
    "duplicated_cas_no": "2842596-76-1",
    "SMILES": "O(C)C=1C2=C(C3=C(C1OC)C=CC(=O)O3)C=CO2",
    "meta_data": {
        "InChI": "InChI=1S/C13H10O5/c1-15-11-7-3-4-9(14)18-10(7)8-5-6-17-12(8)13(11)16-2/h3-6H,1-2H3",
        "InChIKey": null,
        "Canonical SMILES": "O=C1OC2=C3C=COC3=C(OC)C(OC)=C2C=C1",
        "Molecular Formula": "C<sub>13</sub>H<sub>10</sub>O<sub>5</sub>",
        "Molecular Mass": "246.22",
        "Melting Point": "119 °C"
    }
}