{
    "cas_no": "6230-11-1",
    "key_name": "<em>O</em>-Methyl-<span class=\"text-smallcaps\">L</span>-tyrosine",
    "cn_name": "4-甲氧基-L-苯丙氨酸;",
    "alternate_name": "<span class=\"text-smallcaps\">L</span>-Tyrosine, <em>O</em>-methyl-;Alanine, 3-(<em>p</em>-methoxyphenyl)-, <span class=\"text-smallcaps\">L</span>-;<em>O</em>-Methyl-<span class=\"text-smallcaps\">L</span>-tyrosine;<em>O</em>-Methyltyrosine;<em>p</em>-Methoxy-<span class=\"text-smallcaps\">L</span>-phenylalanine;β-(4-Methoxyphenyl)-<span class=\"text-smallcaps\">L</span>-alanine;<span class=\"text-smallcaps\">L</span>-4-Methoxyphenylalanine;<span class=\"text-smallcaps\">L</span>-<em>O</em>-Methyltyrosine;NSC 30082;<span class=\"text-smallcaps\">L</span>-Tyrosine methyl ether;(<em>S</em>)-2-Amino-3-(4-methoxyphenyl)propanoic acid;(2S)-2-Amino-3-(4-methoxyphenyl)propanoic acid",
    "duplicated_cas_no": "",
    "SMILES": "C([C@@H](C(O)=O)N)C1=CC=C(OC)C=C1",
    "meta_data": {
        "InChI": "InChI=1S/C10H13NO3/c1-14-8-4-2-7(3-5-8)6-9(11)10(12)13/h2-5,9H,6,11H2,1H3,(H,12,13)/t9-/m0/s1",
        "InChIKey": null,
        "Canonical SMILES": "O=C(O)C(N)CC1=CC=C(OC)C=C1",
        "Molecular Formula": "C<sub>10</sub>H<sub>13</sub>NO<sub>3</sub>",
        "Molecular Mass": "195.22",
        "Melting Point": "295 °C"
    }
}