{
    "cas_no": "57-03-4",
    "key_name": "<span class=\"text-smallcaps\">DL</span>-α-Glycerol phosphate",
    "cn_name": "甘油磷酸酯;",
    "alternate_name": "1,2,3-Propanetriol, 1-(dihydrogen phosphate);Glycerol, 1-(dihydrogen phosphate);<span class=\"text-smallcaps\">DL</span>-α-Glycerophosphoric acid;<span class=\"text-smallcaps\">DL</span>-Glycerol 1-phosphate;<span class=\"text-smallcaps\">DL</span>-α-Glyceryl phosphate;<span class=\"text-smallcaps\">DL</span>-Glycerol 3-phosphate;<span class=\"text-smallcaps\">DL</span>-α-Glycerophosphate;<span class=\"text-smallcaps\">DL</span>-α-Glycerol phosphate;<span class=\"text-smallcaps\">D</smallcap>,<smallcap>L</span>-α-Glycerol-phosphate;Glycerol-3-phosphate;<span class=\"text-smallcaps\">D</smallcap>,<smallcap>L</span>-Glycerol phosphate;Glycerol-1-phosphate;D,L-Glycerol phosphate",
    "duplicated_cas_no": "626-73-3;1509-81-5",
    "SMILES": "C(C(CO)O)OP(=O)(O)O",
    "meta_data": {
        "InChI": "InChI=1S/C3H9O6P/c4-1-3(5)2-9-10(6,7)8/h3-5H,1-2H2,(H2,6,7,8)",
        "InChIKey": null,
        "Canonical SMILES": "O=P(O)(O)OCC(O)CO",
        "Molecular Formula": "C<sub>3</sub>H<sub>9</sub>O<sub>6</sub>P",
        "Molecular Mass": "172.07",
        "Melting Point": "-25 °C"
    }
}