{
    "cas_no": "70702-47-5",
    "key_name": "(α<em>R</em>)-α-Amino-3-pyridinepropanoic acid",
    "cn_name": "3-(3-吡啶基)-D-丙氨酸;",
    "alternate_name": "3-Pyridinepropanoic acid, α-amino-, (α<em>R</em>)-;3-Pyridinepropanoic acid, α-amino-, (<em>R</em>)-;(α<em>R</em>)-α-Amino-3-pyridinepropanoic acid;3-(3-Pyridyl)-<span class=\"text-smallcaps\">D</span>-alanine;β-(3-Pyridyl)-<span class=\"text-smallcaps\">D</span>-alanine;(2R)-2-Amino-3-(pyridin-3-yl)propanoic acid;(2R)-2-Azaniumyl-3-pyridin-3-ylpropanoate",
    "duplicated_cas_no": "",
    "SMILES": "C([C@H](C(O)=O)N)C=1C=CC=NC1",
    "meta_data": {
        "InChI": "InChI=1S/C8H10N2O2/c9-7(8(11)12)4-6-2-1-3-10-5-6/h1-3,5,7H,4,9H2,(H,11,12)/t7-/m1/s1",
        "InChIKey": null,
        "Canonical SMILES": "O=C(O)C(N)CC=1C=NC=CC1",
        "Molecular Formula": "C<sub>8</sub>H<sub>10</sub>N<sub>2</sub>O<sub>2</sub>",
        "Molecular Mass": "166.18",
        "Melting Point": "167-168 °C"
    }
}