{
    "cas_no": "10351-88-9",
    "key_name": "Phyllanthin",
    "cn_name": null,
    "alternate_name": "Benzene, 1,1′-[(2<em>S</em>,3<em>S</em>)-2,3-bis(methoxymethyl)-1,4-butanediyl]bis[3,4-dimethoxy-;Phyllanthin;Benzene, 1,1′-[2,3-bis(methoxymethyl)-1,4-butanediyl]bis[3,4-dimethoxy-, [<em>S</em>-(<em>R</em>*,<em>R</em>*)]-;Butane, 1,4-dimethoxy-2,3-diveratryl-, (2<em>S</em>,3<em>S</em>)-(+)-;1,1′-[(2<em>S</em>,3<em>S</em>)-2,3-Bis(methoxymethyl)-1,4-butanediyl]bis[3,4-dimethoxybenzene];NSC 619043",
    "duplicated_cas_no": "",
    "SMILES": "[C@@H]([C@H](CC1=CC(OC)=C(OC)C=C1)COC)(CC2=CC(OC)=C(OC)C=C2)COC",
    "meta_data": {
        "InChI": "InChI=1S/C24H34O6/c1-25-15-19(11-17-7-9-21(27-3)23(13-17)29-5)20(16-26-2)12-18-8-10-22(28-4)24(14-18)30-6/h7-10,13-14,19-20H,11-12,15-16H2,1-6H3/t19-,20-/m1/s1",
        "InChIKey": null,
        "Canonical SMILES": "O(C1=CC=C(C=C1OC)CC(COC)C(COC)CC2=CC=C(OC)C(OC)=C2)C",
        "Molecular Formula": "C<sub>24</sub>H<sub>34</sub>O<sub>6</sub>",
        "Molecular Mass": "418.52",
        "Melting Point": "167 °C (decomp)"
    }
}