{
    "cas_no": "552-16-9",
    "key_name": "2-Nitrobenzoic acid",
    "cn_name": "邻硝基苯甲酸;",
    "alternate_name": "Benzoic acid, 2-nitro-;Benzoic acid, <em>o</em>-nitro-;2-Nitrobenzoic acid;<em>o</em>-Nitrobenzoic acid;<em>o</em>-Carboxynitrobenzene;NSC 9576",
    "duplicated_cas_no": "",
    "SMILES": "C(O)(=O)C1=C(N(=O)=O)C=CC=C1",
    "meta_data": {
        "InChI": "InChI=1S/C7H5NO4/c9-7(10)5-3-1-2-4-6(5)8(11)12/h1-4H,(H,9,10)",
        "InChIKey": null,
        "Canonical SMILES": "O=C(O)C=1C=CC=CC1N(=O)=O",
        "Molecular Formula": "C<sub>7</sub>H<sub>5</sub>NO<sub>4</sub>",
        "Molecular Mass": "167.12",
        "Melting Point": "147.5 °C"
    }
}