{
    "cas_no": "52415-29-9",
    "key_name": "6-Bromoindole",
    "cn_name": "6-溴吲哚;",
    "alternate_name": "1<em>H</em>-Indole, 6-bromo-;Indole, 6-bromo-;6-Bromo-1<em>H</em>-indole;6-Bromoindole",
    "duplicated_cas_no": "1294514-42-3",
    "SMILES": "BrC=1C=C2C(=CC1)C=CN2",
    "meta_data": {
        "InChI": "InChI=1S/C8H6BrN/c9-7-2-1-6-3-4-10-8(6)5-7/h1-5,10H",
        "InChIKey": null,
        "Canonical SMILES": "BrC=1C=CC=2C=CNC2C1",
        "Molecular Formula": "C<sub>8</sub>H<sub>6</sub>BrN",
        "Molecular Mass": "196.04",
        "Melting Point": "94 °C"
    }
}