{
    "cas_no": "24003-67-6",
    "key_name": "Hexanoylglycine",
    "cn_name": null,
    "alternate_name": "Glycine, <em>N</em>-(1-oxohexyl)-;Glycine, <em>N</em>-hexanoyl-;<em>N</em>-(1-Oxohexyl)glycine;<em>N</em>-Caproylglycine;<em>n</em>-Hexanoylglycine;Hexanoylglycine;Caproylglycine;NSC 224460;2-Hexanamidoacetic acid",
    "duplicated_cas_no": "",
    "SMILES": "C(NCC(O)=O)(CCCCC)=O",
    "meta_data": {
        "InChI": "InChI=1S/C8H15NO3/c1-2-3-4-5-7(10)9-6-8(11)12/h2-6H2,1H3,(H,9,10)(H,11,12)",
        "InChIKey": null,
        "Canonical SMILES": "O=C(O)CNC(=O)CCCCC",
        "Molecular Formula": "C<sub>8</sub>H<sub>15</sub>NO<sub>3</sub>",
        "Molecular Mass": "173.21",
        "Melting Point": "93-94 °C"
    }
}