{
    "cas_no": "5934-29-2",
    "key_name": "<span class=\"text-smallcaps\">L</span>-Histidine hydrochloride monohydrate",
    "cn_name": "L-盐酸组氨酸一水物;L-组氨酸盐酸盐一水物;",
    "alternate_name": "<span class=\"text-smallcaps\">L</span>-Histidine, hydrochloride, hydrate (1:1:1);Histidine, monohydrochloride, monohydrate, <span class=\"text-smallcaps\">L</span>-;<span class=\"text-smallcaps\">L</span>-Histidine, monohydrochloride, monohydrate;<span class=\"text-smallcaps\">L</span>-Histidine hydrochloride monohydrate;<span class=\"text-smallcaps\">L</span>-Histidine monohydrate monohydrochloride",
    "duplicated_cas_no": "35343-95-4",
    "SMILES": "C([C@@H](C(O)=O)N)C1=CN=CN1.Cl.O",
    "meta_data": {
        "InChI": "InChI=1S/C6H9N3O2.ClH.H2O/c7-5(6(10)11)1-4-2-8-3-9-4;;/h2-3,5H,1,7H2,(H,8,9)(H,10,11);1H;1H2/t5-;;/m0../s1",
        "InChIKey": null,
        "Canonical SMILES": "Cl.O=C(O)C(N)CC1=CN=CN1.O",
        "Molecular Formula": "C<sub>6</sub>H<sub>9</sub>N<sub>3</sub>O<sub>2</sub>.ClH.H<sub>2</sub>O",
        "Molecular Mass": "",
        "Melting Point": "251-252 °C (decomp)"
    }
}