{
    "cas_no": "13343-62-9",
    "key_name": "Phenylmethyl 2-(acetylamino)-2-deoxy-α-<span class=\"text-smallcaps\">D</span>-glucopyranoside",
    "cn_name": null,
    "alternate_name": "α-<span class=\"text-smallcaps\">D</span>-Glucopyranoside, phenylmethyl 2-(acetylamino)-2-deoxy-;Glucopyranoside, benzyl 2-acetamido-2-deoxy-, α-<span class=\"text-smallcaps\">D</span>-;α-<span class=\"text-smallcaps\">D</span>-Glucopyranoside, benzyl 2-acetamido-2-deoxy-;Phenylmethyl 2-(acetylamino)-2-deoxy-α-<span class=\"text-smallcaps\">D</span>-glucopyranoside;Benzyl 2-acetamido-2-deoxy-α-<span class=\"text-smallcaps\">D</span>-glucopyranoside",
    "duplicated_cas_no": "66026-09-3;1338830-02-6",
    "SMILES": "O(CC1=CC=CC=C1)[C@@H]2[C@H](NC(C)=O)[C@@H](O)[C@H](O)[C@@H](CO)O2",
    "meta_data": {
        "InChI": "InChI=1S/C15H21NO6/c1-9(18)16-12-14(20)13(19)11(7-17)22-15(12)21-8-10-5-3-2-4-6-10/h2-6,11-15,17,19-20H,7-8H2,1H3,(H,16,18)/t11-,12-,13-,14-,15+/m1/s1",
        "InChIKey": null,
        "Canonical SMILES": "O=C(NC1C(OCC=2C=CC=CC2)OC(CO)C(O)C1O)C",
        "Molecular Formula": "C<sub>15</sub>H<sub>21</sub>NO<sub>6</sub>",
        "Molecular Mass": "311.33",
        "Melting Point": "183-184 °C"
    }
}