{
    "cas_no": "6367-10-8",
    "key_name": "(2<em>S</em>)-2-(Acetylamino)-6-amino-<em>N</em>-methylhexanamide",
    "cn_name": null,
    "alternate_name": "Hexanamide, 2-(acetylamino)-6-amino-<em>N</em>-methyl-, (2<em>S</em>)-;Hexanamide, 2-acetamido-6-amino-<em>N</em>-methyl-, <span class=\"text-smallcaps\">L</span>-;Hexanamide, 2-(acetylamino)-6-amino-<em>N</em>-methyl-, (<em>S</em>)-;(2<em>S</em>)-2-(Acetylamino)-6-amino-<em>N</em>-methylhexanamide;<em>N</em><sup>α</sup>-Acetyllysine methylamide;<em>N</em>-Acetyl-<em>N</em>′-methyllysylamide;<em>N</em>-Acetyl-<span class=\"text-smallcaps\">L</span>-lysine methylamide;Nα-Acetyl-<span class=\"text-smallcaps\">L</span>-lysine-<em>N</em>-methylamide;(2S)-2-Acetamido-6-amino-<em>N</em>-methylhexanamide;Ac-Lys-NHMe",
    "duplicated_cas_no": "",
    "SMILES": "[C@H](C(NC)=O)(NC(C)=O)CCCCN",
    "meta_data": {
        "InChI": "InChI=1S/C9H19N3O2/c1-7(13)12-8(9(14)11-2)5-3-4-6-10/h8H,3-6,10H2,1-2H3,(H,11,14)(H,12,13)/t8-/m0/s1",
        "InChIKey": null,
        "Canonical SMILES": "O=C(NC(C(=O)NC)CCCCN)C",
        "Molecular Formula": "C<sub>9</sub>H<sub>19</sub>N<sub>3</sub>O<sub>2</sub>",
        "Molecular Mass": "201.27",
        "Melting Point": "166 °C"
    }
}