{
    "cas_no": "7364-33-2",
    "key_name": "1,2-Dihydro-6-nitro-3<em>H</em>-indazol-3-one",
    "cn_name": null,
    "alternate_name": "3<em>H</em>-Indazol-3-one, 1,2-dihydro-6-nitro-;3-Indazolinone, 6-nitro-;1,2-Dihydro-6-nitro-3<em>H</em>-indazol-3-one;6-Nitro-3-indazolinone;NSC 87549;6-Nitro-1,2-dihydroindazol-3-one;3-Hydroxy-6-nitro (1<em>H</em>)indazole",
    "duplicated_cas_no": "",
    "SMILES": "O=C1C=2C(=CC(N(=O)=O)=CC2)NN1",
    "meta_data": {
        "InChI": "InChI=1S/C7H5N3O3/c11-7-5-2-1-4(10(12)13)3-6(5)8-9-7/h1-3H,(H2,8,9,11)",
        "InChIKey": null,
        "Canonical SMILES": "O=C1NNC2=CC(=CC=C12)N(=O)=O",
        "Molecular Formula": "C<sub>7</sub>H<sub>5</sub>N<sub>3</sub>O<sub>3</sub>",
        "Molecular Mass": "179.13",
        "Melting Point": "243 °C"
    }
}