{
    "cas_no": "6295-21-2",
    "key_name": "3-Chlorophthalide",
    "cn_name": "3-氯苯酞;3-氯苯并呋喃酮;",
    "alternate_name": "1(3<em>H</em>)-Isobenzofuranone, 3-chloro-;Phthalide, 3-chloro-;3-Chloro-1(3<em>H</em>)-isobenzofuranone;3-Chlorophthalide;NSC 11815;3-Chloro-1,3-dihydro-1-isobenzofuranone;3-Chloro-3<em>H</em>-2-benzofuran-1-one",
    "duplicated_cas_no": "",
    "SMILES": "ClC1C=2C(C(=O)O1)=CC=CC2",
    "meta_data": {
        "InChI": "InChI=1S/C8H5ClO2/c9-7-5-3-1-2-4-6(5)8(10)11-7/h1-4,7H",
        "InChIKey": null,
        "Canonical SMILES": "O=C1OC(Cl)C=2C=CC=CC12",
        "Molecular Formula": "C<sub>8</sub>H<sub>5</sub>ClO<sub>2</sub>",
        "Molecular Mass": "168.58",
        "Boiling Point": "136 °C @ Press: 8 Torr",
        "Melting Point": "72-74 °C"
    }
}