{
    "cas_no": "767-91-9",
    "key_name": "1-Ethynyl-2-methoxybenzene",
    "cn_name": null,
    "alternate_name": "Benzene, 1-ethynyl-2-methoxy-;Anisole, <em>o</em>-ethynyl-;1-Ethynyl-2-methoxybenzene;(2-Methoxyphenyl)acetylene;(<em>o</em>-Methoxyphenyl)acetylene;<em>o</em>-Anisylacetylene;<em>o</em>-Ethynylanisole;(2-Methoxyphenyl)ethyne;2-Ethynylanisole",
    "duplicated_cas_no": "",
    "SMILES": "C(#C)C1=C(OC)C=CC=C1",
    "meta_data": {
        "InChI": "InChI=1S/C9H8O/c1-3-8-6-4-5-7-9(8)10-2/h1,4-7H,2H3",
        "InChIKey": null,
        "Canonical SMILES": "C#CC=1C=CC=CC1OC",
        "Molecular Formula": "C<sub>9</sub>H<sub>8</sub>O",
        "Molecular Mass": "132.16",
        "Boiling Point": "92 °C"
    }
}