{
    "cas_no": "3404-72-6",
    "key_name": "2,3-Dimethyl-1-pentene",
    "cn_name": "2,3-二甲基-1-戊烯;3-乙基-2-甲基-1-丁烯;",
    "alternate_name": "1-Pentene, 2,3-dimethyl-;2,3-Dimethyl-1-pentene;NSC 74134",
    "duplicated_cas_no": "99494-04-9",
    "SMILES": "C(C(C)=C)(CC)C",
    "meta_data": {
        "InChI": "InChI=1S/C7H14/c1-5-7(4)6(2)3/h7H,2,5H2,1,3-4H3",
        "InChIKey": null,
        "Canonical SMILES": "C=C(C)C(C)CC",
        "Molecular Formula": "C<sub>7</sub>H<sub>14</sub>",
        "Molecular Mass": "98.19",
        "Boiling Point": "84.3 °C",
        "Melting Point": "-134.3 °C",
        "Density": "0.7054 g/cm³ @ Temp: 20 °C"
    }
}