{
    "cas_no": "2941-63-1",
    "key_name": "2-Methyl-6-nitrobenzothiazole",
    "cn_name": "2-甲基-6-硝基苯并噻唑;",
    "alternate_name": "Benzothiazole, 2-methyl-6-nitro-;2-Methyl-6-nitrobenzothiazole;6-Nitro-2-methylbenzothiazole;NSC 504572;2-Methyl-6-nitro-1,3-benzothiazole",
    "duplicated_cas_no": "",
    "SMILES": "N(=O)(=O)C=1C=C2C(=CC1)N=C(C)S2",
    "meta_data": {
        "InChI": "InChI=1S/C8H6N2O2S/c1-5-9-7-3-2-6(10(11)12)4-8(7)13-5/h2-4H,1H3",
        "InChIKey": null,
        "Canonical SMILES": "O=N(=O)C=1C=CC=2N=C(SC2C1)C",
        "Molecular Formula": "C<sub>8</sub>H<sub>6</sub>N<sub>2</sub>O<sub>2</sub>S",
        "Molecular Mass": "194.21",
        "Melting Point": "206.5 °C"
    }
}