{
    "cas_no": "1483-74-5",
    "key_name": "1,1,4,4-Tetraphenyl-2-butyne-1,4-diol",
    "cn_name": "1,1,4,4-四苯基-2-丁炔-1,4-二醇;1,1,4,4-四苯基-2-丁炔-1,4-二醇;",
    "alternate_name": "2-Butyne-1,4-diol, 1,1,4,4-tetraphenyl-;2-Butyne-1,4-diol, tetraphenyl-;1,1,4,4-Tetraphenyl-2-butyne-1,4-diol;α,α′-Ethynylenebis[benzhydrol];1,1,4,4-Tetraphenyl-1,4-dihydroxy-2-butyne;NSC 666680;1,1,4,4-Tetraphenylbut-2-yne-1,4-diol;1,1,4,4-Tetraphenyl-2-butyn-1,4-diol",
    "duplicated_cas_no": "",
    "SMILES": "C(C#CC(O)(C1=CC=CC=C1)C2=CC=CC=C2)(O)(C3=CC=CC=C3)C4=CC=CC=C4",
    "meta_data": {
        "InChI": "InChI=1S/C28H22O2/c29-27(23-13-5-1-6-14-23,24-15-7-2-8-16-24)21-22-28(30,25-17-9-3-10-18-25)26-19-11-4-12-20-26/h1-20,29-30H",
        "InChIKey": null,
        "Canonical SMILES": "OC(C#CC(O)(C=1C=CC=CC1)C=2C=CC=CC2)(C=3C=CC=CC3)C=4C=CC=CC4",
        "Molecular Formula": "C<sub>28</sub>H<sub>22</sub>O<sub>2</sub>",
        "Molecular Mass": "390.47",
        "Melting Point": "192 °C"
    }
}