{
    "cas_no": "7727-33-5",
    "key_name": "1,1,2,2-Tetrakis(4-hydroxyphenyl)ethane",
    "cn_name": "1,1,2,2-四(4-羟基苯基)乙烷;",
    "alternate_name": "Phenol, 4,4′,4′′,4′′′-(1,2-ethanediylidene)tetrakis-;Phenol, 4,4′,4′′,4′′′-ethanediylidenetetra-;4,4′,4′′,4′′′-(1,2-Ethanediylidene)tetrakis[phenol];1,1,2,2-Tetrakis(<em>p</em>-hydroxyphenyl)ethane;1,1,2,2-Tetrakis(4-hydroxyphenyl)ethane;TEP-DF;Tekp-E;NSC 310098;TEP;KPF 3110;1,1,2,2-Tetra(<em>p</em>-hydroxyphenyl)ethane;AV Lite TEP-DF;TEF-DT;Tetraphenolethane",
    "duplicated_cas_no": "",
    "SMILES": "C(C(C1=CC=C(O)C=C1)C2=CC=C(O)C=C2)(C3=CC=C(O)C=C3)C4=CC=C(O)C=C4",
    "meta_data": {
        "InChI": "InChI=1S/C26H22O4/c27-21-9-1-17(2-10-21)25(18-3-11-22(28)12-4-18)26(19-5-13-23(29)14-6-19)20-7-15-24(30)16-8-20/h1-16,25-30H",
        "InChIKey": null,
        "Canonical SMILES": "OC1=CC=C(C=C1)C(C2=CC=C(O)C=C2)C(C3=CC=C(O)C=C3)C4=CC=C(O)C=C4",
        "Molecular Formula": "C<sub>26</sub>H<sub>22</sub>O<sub>4</sub>",
        "Molecular Mass": "398.45",
        "Melting Point": "299-300 °C"
    }
}