{
    "cas_no": "5878-43-3",
    "key_name": "(8β)-6-Methylergoline-8-carboxylic acid",
    "cn_name": "6-Methylergoline-8beta-carboxylicacid;",
    "alternate_name": "Ergoline-8-carboxylic acid, 6-methyl-, (8β)-;Ergoline-8β-carboxylic acid, 6-methyl-;Lysergic acid, dihydro-;(8β)-6-Methylergoline-8-carboxylic acid;Lysergic acid, 9,10-dihydro-, I;<span class=\"text-smallcaps\">D</span>-Dihydrolysergic acid I;Dihydrolysergic acid;9,10-Dihydro-<span class=\"text-smallcaps\">D</span>-lysergic acid;9,10-Dihydrolysergic acid I;9,10α-Dihydrolysergic acid;6-Methyl-8β-ergolinecarboxylic acid;6-Methyl-8β-carboxyergoline",
    "duplicated_cas_no": "1286-08-4;38994-06-8",
    "SMILES": "CN1[C@]2([C@@](C=3C=4C(C2)=CNC4C=CC3)(C[C@@H](C(O)=O)C1)[H])[H]",
    "meta_data": {
        "InChI": "InChI=1S/C16H18N2O2/c1-18-8-10(16(19)20)5-12-11-3-2-4-13-15(11)9(7-17-13)6-14(12)18/h2-4,7,10,12,14,17H,5-6,8H2,1H3,(H,19,20)/t10-,12-,14-/m1/s1",
        "InChIKey": null,
        "Canonical SMILES": "O=C(O)C1CN(C)C2CC3=CNC4=CC=CC(=C43)C2C1",
        "Molecular Formula": "C<sub>16</sub>H<sub>18</sub>N<sub>2</sub>O<sub>2</sub>",
        "Molecular Mass": "270.33",
        "Melting Point": "300 °C"
    }
}