{
    "cas_no": "335-64-8",
    "key_name": "Perfluorooctanoyl chloride",
    "cn_name": "全氟辛酰氯;",
    "alternate_name": "Octanoyl chloride, 2,2,3,3,4,4,5,5,6,6,7,7,8,8,8-pentadecafluoro-;Octanoyl chloride, pentadecafluoro-;2,2,3,3,4,4,5,5,6,6,7,7,8,8,8-Pentadecafluorooctanoyl chloride;Perfluorooctanoic acid chloride;Perfluorooctanoyl chloride;Perfluorocaprylic chloride;<em>n</em>-Perfluorooctanoyl chloride;Pentadecafluorooctanoyl chloride;2,2,3,3,4,4,5,5,6,6,7,7,8,8,8-Pentadecafluorooctanoic acid chloride;Perfluorooctanoic chloride",
    "duplicated_cas_no": "",
    "SMILES": "C(C(C(C(C(Cl)=O)(F)F)(F)F)(F)F)(C(C(C(F)(F)F)(F)F)(F)F)(F)F",
    "meta_data": {
        "InChI": "InChI=1S/C8ClF15O/c9-1(25)2(10,11)3(12,13)4(14,15)5(16,17)6(18,19)7(20,21)8(22,23)24",
        "InChIKey": null,
        "Canonical SMILES": "O=C(Cl)C(F)(F)C(F)(F)C(F)(F)C(F)(F)C(F)(F)C(F)(F)C(F)(F)F",
        "Molecular Formula": "C<sub>8</sub>ClF<sub>15</sub>O",
        "Molecular Mass": "432.51",
        "Boiling Point": "131 °C",
        "Melting Point": "74-75 °C"
    }
}