{
    "cas_no": "14222-60-7",
    "key_name": "Prothionamide",
    "cn_name": "丙硫异烟胺;2-丙基硫代异烟酰胺;",
    "alternate_name": "4-Pyridinecarbothioamide, 2-propyl-;Isonicotinamide, 2-propylthio-;2-Propyl-4-pyridinecarbothioamide;2-Propylthioisonicotinamide;Prothionamide;Trevintix;Ektebin;Protionamid;2-Propylisonicotinylthioamide;9778 R. P.;Tebeform;1321TH;Tuberex;Protion;Protionamide;Protionizina;TH 1321;RP 9778;2-Propylpyridine-4-thiocarboxamide;Peteha;Tuberamin;2-Propylpyridine-4-carboimidothioic acid",
    "duplicated_cas_no": "",
    "SMILES": "C(CC)C1=CC(C(N)=S)=CC=N1",
    "meta_data": {
        "InChI": "InChI=1S/C9H12N2S/c1-2-3-8-6-7(9(10)12)4-5-11-8/h4-6H,2-3H2,1H3,(H2,10,12)",
        "InChIKey": null,
        "Canonical SMILES": "S=C(N)C=1C=CN=C(C1)CCC",
        "Molecular Formula": "C<sub>9</sub>H<sub>12</sub>N<sub>2</sub>S",
        "Molecular Mass": "180.27",
        "Melting Point": "136.7 °C"
    }
}