{
    "cas_no": "491-70-3",
    "key_name": "Luteolin",
    "cn_name": "木犀草素;3\",4\",5,7-四羟基黄酮;",
    "alternate_name": "4<em>H</em>-1-Benzopyran-4-one, 2-(3,4-dihydroxyphenyl)-5,7-dihydroxy-;Luteolin;Flavone, 3′,4′,5,7-tetrahydroxy-;2-(3,4-Dihydroxyphenyl)-5,7-dihydroxy-4<em>H</em>-1-benzopyran-4-one;Luteoline;Luteolol;3′,4′,5,7-Tetrahydroxyflavone;Yama Kariyasu;Digitoflavone;Cyanidenon 1470;Flacitran;5,7,3′,4′-Tetrahydroxyflavone;Weld lake;Cyanidenon;2-(3,4-Dihydroxyphenyl)-5,7-dihydroxy-4<em>H</em>-benzopyran-4-one;Salifazide;ST 024703;2-(3,4-Dihydroxyphenyl)-5,7-dihydroxy-4<em>H</em>-chromen-4-one;2-(3,4-Dihydroxy-phenyl)-5,7-dihydroxy-chromen-4-one;2-(3,4-Dihydroxyphenyl)-5,7-dihydroxychromen-4-one;TCM 5280445;MeSH ID: D047311",
    "duplicated_cas_no": "12671-63-5",
    "SMILES": "O=C1C=2C(OC(=C1)C3=CC(O)=C(O)C=C3)=CC(O)=CC2O",
    "meta_data": {
        "InChI": "InChI=1S/C15H10O6/c16-8-4-11(19)15-12(20)6-13(21-14(15)5-8)7-1-2-9(17)10(18)3-7/h1-6,16-19H",
        "InChIKey": null,
        "Canonical SMILES": "O=C1C=C(OC=2C=C(O)C=C(O)C12)C=3C=CC(O)=C(O)C3",
        "Molecular Formula": "C<sub>15</sub>H<sub>10</sub>O<sub>6</sub>",
        "Molecular Mass": "286.24",
        "Melting Point": "329.5 °C (decomp)"
    }
}