{
    "cas_no": "38521-46-9",
    "key_name": "2-Mercaptonicotinic acid",
    "cn_name": "2-巯基烟酸;",
    "alternate_name": "3-Pyridinecarboxylic acid, 1,2-dihydro-2-thioxo-;1,2-Dihydro-2-thioxo-3-pyridinecarboxylic acid;2-Mercaptonicotinic acid;2-Mercaptopyridine-3-carboxylic acid;3-Aza-2-thiosalicylic acid;2-Mercapto-3-carboxypyridine;2-Sulfanylpyridine-3-carboxylic acid;2-Thioxo-1,2-dihydro-pyridine-3-carboxylic acid;2-Sulfanylidene-1<em>H</em>-pyridine-3-carboxylic acid",
    "duplicated_cas_no": "",
    "SMILES": "C(O)(=O)C=1C(=S)NC=CC1",
    "meta_data": {
        "InChI": "InChI=1S/C6H5NO2S/c8-6(9)4-2-1-3-7-5(4)10/h1-3H,(H,7,10)(H,8,9)",
        "InChIKey": null,
        "Canonical SMILES": "O=C(O)C1=CC=CNC1=S",
        "Molecular Formula": "C<sub>6</sub>H<sub>5</sub>NO<sub>2</sub>S",
        "Molecular Mass": "155.17",
        "Melting Point": "270 °C"
    }
}