{
    "cas_no": "2146-36-3",
    "key_name": "Dodecahydroacenaphthylene",
    "cn_name": null,
    "alternate_name": "Acenaphthylene, dodecahydro-;Acenaphthene, decahydro-;Dodecahydroacenaphthylene;Perhydroacenaphthene;Decahydroacenaphthene;Tricyclo[6.3.1.0<sup>4,12</sup>]dodecane",
    "duplicated_cas_no": "",
    "SMILES": "C12C3CCC1CCCC2CCC3",
    "meta_data": {
        "InChI": "InChI=1S/C12H20/c1-3-9-4-2-6-11-8-7-10(5-1)12(9)11/h9-12H,1-8H2",
        "InChIKey": null,
        "Canonical SMILES": "C1CC2CCCC3CCC(C1)C23",
        "Molecular Formula": "C<sub>12</sub>H<sub>20</sub>",
        "Molecular Mass": "164.29",
        "Boiling Point": "115 °C @ Press: 12 Torr",
        "Melting Point": "20 °C",
        "Density": "1.029 g/cm³ @ Temp: 20 °C"
    }
}