{
    "cas_no": "2549-93-1",
    "key_name": "1,4-Cyclohexanedimethanamine",
    "cn_name": "1,4-环己烷二甲胺;1,4-双氨甲基环己烷;",
    "alternate_name": "1,4-Cyclohexanedimethanamine;1,4-Cyclohexanebis(methylamine);1,4-Bis(aminomethyl)cyclohexane;1,4-Di(aminomethyl)cyclohexane;Hexahydro-<em>p</em>-xylylenediamine;1,4-Cyclohexanedimethylamine;1,4-Cyclohexylenebis(methylamine);<em>p</em>-Bis(aminomethyl)cyclohexane;[[4-(Aminomethyl)cyclohexyl]methyl]amine;XTA 808;XTA 801;[4-(Aminomethyl)cyclohexyl]methanamine",
    "duplicated_cas_no": "",
    "SMILES": "C(N)C1CCC(CN)CC1",
    "meta_data": {
        "InChI": "InChI=1S/C8H18N2/c9-5-7-1-2-8(6-10)4-3-7/h7-8H,1-6,9-10H2",
        "InChIKey": null,
        "Canonical SMILES": "NCC1CCC(CN)CC1",
        "Molecular Formula": "C<sub>8</sub>H<sub>18</sub>N<sub>2</sub>",
        "Molecular Mass": "142.24",
        "Boiling Point": "113-115 °C",
        "Melting Point": "-9 °C"
    }
}