{
    "cas_no": "645-56-7",
    "key_name": "4-Propylphenol",
    "cn_name": "4-丙基苯酚;对丙基苯酚;",
    "alternate_name": "Phenol, 4-propyl-;Phenol, <em>p</em>-propyl-;4-Propylphenol;<em>p</em>-Propylphenol;4-<em>n</em>-Propylphenol;<em>p</em>-Hydroxypropylbenzene;Dihydrochavicol;<em>p</em>-<em>n</em>-Propylphenol;<em>p</em>-Hydroxy-<em>n</em>-propylbenzene;NSC 65647;Hydrochavicol",
    "duplicated_cas_no": "",
    "SMILES": "C(CC)C1=CC=C(O)C=C1",
    "meta_data": {
        "InChI": "InChI=1S/C9H12O/c1-2-3-8-4-6-9(10)7-5-8/h4-7,10H,2-3H2,1H3",
        "InChIKey": null,
        "Canonical SMILES": "OC1=CC=C(C=C1)CCC",
        "Molecular Formula": "C<sub>9</sub>H<sub>12</sub>O",
        "Molecular Mass": "136.19",
        "Boiling Point": "232.6 °C",
        "Melting Point": "22 °C",
        "Density": "1.009 g/cm³ @ Temp: 20 °C"
    }
}