{
    "cas_no": "2403-66-9",
    "key_name": "1<em>H</em>-Benzimidazole-2-propanol",
    "cn_name": null,
    "alternate_name": "1<em>H</em>-Benzimidazole-2-propanol;2-Benzimidazolepropanol;2-(γ-Hydroxypropyl)benzimidazole;3-(1<em>H</em>-Benzimidazol-2-yl)propan-1-ol;NSC 62090;2-(3′-Hydroxypropyl)benzimidazole;2-(3-Hydroxypropyl)benzimidazole;3-(Benzimidazol-2-yl)propan-1-ol",
    "duplicated_cas_no": "",
    "SMILES": "C(CCO)C=1NC=2C(N1)=CC=CC2",
    "meta_data": {
        "InChI": "InChI=1S/C10H12N2O/c13-7-3-6-10-11-8-4-1-2-5-9(8)12-10/h1-2,4-5,13H,3,6-7H2,(H,11,12)",
        "InChIKey": null,
        "Canonical SMILES": "OCCCC1=NC=2C=CC=CC2N1",
        "Molecular Formula": "C<sub>10</sub>H<sub>12</sub>N<sub>2</sub>O",
        "Molecular Mass": "176.22",
        "Melting Point": "163 °C"
    }
}