{
    "cas_no": "90-97-1",
    "key_name": "4,4′-Dichlorobenzhydrol",
    "cn_name": "4,4\"-二氯二苯甲醇;",
    "alternate_name": "Benzenemethanol, 4-chloro-α-(4-chlorophenyl)-;Benzhydrol, 4,4′-dichloro-;4-Chloro-α-(4-chlorophenyl)benzenemethanol;Bis(<em>p</em>-chlorophenyl)methanol;DBH;4,4′-Dichlorobenzhydrol;<em>p</em>,<em>p</em>′-Dichlorobenzhydrol;DBH (degradation product);Bis(4-chlorophenyl)methanol;4,4′-Dichlorodiphenylcarbinol;4,4′-Dichlorobenzhydryl alcohol;NSC 121779;NSC 5250",
    "duplicated_cas_no": "",
    "SMILES": "C(O)(C1=CC=C(Cl)C=C1)C2=CC=C(Cl)C=C2",
    "meta_data": {
        "InChI": "InChI=1S/C13H10Cl2O/c14-11-5-1-9(2-6-11)13(16)10-3-7-12(15)8-4-10/h1-8,13,16H",
        "InChIKey": null,
        "Canonical SMILES": "ClC1=CC=C(C=C1)C(O)C2=CC=C(Cl)C=C2",
        "Molecular Formula": "C<sub>13</sub>H<sub>10</sub>Cl<sub>2</sub>O",
        "Molecular Mass": "253.12",
        "Melting Point": "94 °C"
    }
}