{
    "cas_no": "392-41-6",
    "key_name": "Methyl trifluoroacrylate",
    "cn_name": null,
    "alternate_name": "2-Propenoic acid, 2,3,3-trifluoro-, methyl ester;Acrylic acid, trifluoro-, methyl ester;Methyl trifluoroacrylate;Methyl perfluoroacrylate;Methyl α,β,β-trifluoroacrylate;Perfluoroacrylic acid methyl ester;Methyl trifluoropropenoate;Methyl 2,3,3-trifluoroacrylate",
    "duplicated_cas_no": "",
    "SMILES": "C(C(OC)=O)(=C(F)F)F",
    "meta_data": {
        "InChI": "InChI=1S/C4H3F3O2/c1-9-4(8)2(5)3(6)7/h1H3",
        "InChIKey": null,
        "Canonical SMILES": "O=C(OC)C(F)=C(F)F",
        "Molecular Formula": "C<sub>4</sub>H<sub>3</sub>F<sub>3</sub>O<sub>2</sub>",
        "Molecular Mass": "140.06",
        "Boiling Point": "84-85 °C",
        "Density": "1.3259 g/cm³ @ Temp: 21.5 °C"
    }
}