{
    "cas_no": "1689-82-3",
    "key_name": "4-Hydroxyazobenzene",
    "cn_name": "4-苯偶氮基苯酚;4-羟基偶氮苯;对苯偶氮酚;对羟基偶氮苯C6H5N:NC6H4OH;",
    "alternate_name": "Phenol, 4-(2-phenyldiazenyl)-;C.I. Solvent Yellow 7;Phenol, 4-(phenylazo)-;Phenol, <em>p</em>-phenylazo-;4-(2-Phenyldiazenyl)phenol;C.I. 11800;Brasilazina Oil Yellow O;<em>p</em>-Hydroxyazobenzene;4-Hydroxyazobenzene;Pirocard Green 491;4-(Phenylazo)phenol;<em>p</em>-(Phenylazo)phenol;Solvent Yellow 7;NSC 3177;4-(Phenyldiazenyl)phenol;p-Phenylazophenol",
    "duplicated_cas_no": "",
    "SMILES": "N(=NC1=CC=CC=C1)C2=CC=C(O)C=C2",
    "meta_data": {
        "InChI": "InChI=1S/C12H10N2O/c15-12-8-6-11(7-9-12)14-13-10-4-2-1-3-5-10/h1-9,15H",
        "InChIKey": null,
        "Canonical SMILES": "OC1=CC=C(N=NC=2C=CC=CC2)C=C1",
        "Molecular Formula": "C<sub>12</sub>H<sub>10</sub>N<sub>2</sub>O",
        "Molecular Mass": "198.22",
        "Boiling Point": "225 °C",
        "Melting Point": "155-157 °C"
    }
}