{
    "cas_no": "25213-02-9",
    "key_name": "Ethylene-1-hexene copolymer",
    "cn_name": "1-己烯与乙烯的聚合物;",
    "alternate_name": "1-Hexene, polymer with ethene;1-Hexene, polymer with ethylene;Ethylene, polymer with 1-hexene;Ethene, polymer with 1-hexene;Ethylene-1-hexene copolymer;Ethylene-hexene copolymer;Ethylene-1-hexene polymer;1-Hexene-ethylene copolymer;1-Hexene-ethylene polymer;TR 418;Marlex 5502;Marlex HHM 5502;Paxon 4100;Paxon EA 55-180;Rigidex 002-55;PE 3408;HR 501;Unifos 8141;HS 7068;HS 7064;DEX 8218;GERS 7068;Marlex TR 950;Marlex TR 418;Escorene LL 3001.63;Tipelin BA 550-13;Tipelin BF 520-14;Tipelin FS 340-02;Tipelin FA 381-10;Tipelin FA 470-02;Tipelin BS 520-14;Tipelin BB 640-16;Tipelin ME 500-05;Tipelin ME 610-05;Tipelin ME 601-05;Tipelin MG 670-06;Rigidex H 060;Exxon 3001;Mobil NTA 101;NTX 018;Marlex TR 125;NTX 017;LL 3003;Tufthene;NTA 101;DEFD 1569;DEFD 1063;Sumikathene Alpha;Sumikathene Alpha-CS 2010;608F3;Ethylene-α-hexene copolymer;Tipelin PS 380-09;ZF 150-1;Tipelin BS 501-17;Tipelin FB 472-20;Marlex HHM-TR 400;Marlex H 600;Marlex 400;Marlex 8600;Sumikathene Alpha-FZ 202-0;Ethene-1-hexene copolymer;Sumikathene L-GZ 801;Sumikathene Alpha-FZ 201-0;SLP 3011A;SLP 3011D;SLP 3011B;SLP 9017;SLP 1-342;SLP 4008;HMA 047;Exxon 3003.37;Exxon 3001.63;Exxon 3002.37;UC 1539;Exact 3011C;Exact 4008;TUF 2030;Tufthene TUF 2023;FZ 201-0;ER 1833;Escorene LL 3001.00;Esso 8460;TR 938;Novacor 821N;Novacor 0118;ECD 103;ECD 106;Exact SLP 4008;MP 635661;TUF 2069;Novacor TF 0119F;Escorene LL 3003;Escorene LL 3001;Exact 2010;Exact 2009;Linirex BF 1350;Escorene AL 3004YB;TUF 2060;Exact 9017;Sumikathene Alpha FZ 201;ZF 230-1;Nipolon Z-ZF 230-1;Nipolon Z-ZM 450-1;Nipolon Z-ZM 431-1;TFY 826F;DMDA 6147;LL 3201.00;Escorene LL 3201;Sumikathene Alpha-FZ 203-0;Kernel 54FT;Novapol TF 0119F;Exact 4044;FZ 205-0;54FT;DFDA 9064;Rigidex HM 4560XP;J-REX LL-BF 1350;SLP 8-6031;NUC-G 5221;Exxon 2009;SP 2520;Sumikathene Alpha-FZ 205-0;SF 240;Novapol TD 7902U;Exceed ECD 102;Polyethy C 6SF240;LL 3001;TUF 2032;Exact 4050;Exact 3132;Exceed 350D60;Petrothene GA 635-661;NUC-FLX ETS 9063;Exact 3037;Exceed LL 301;Exceed ECD 103;Exceed ECD 202;Escorene AL 3108ZD;AL 3108XV;Exceed 377L60;Evolue SP 2040;Evolue SP 1540;Sumikathene Hi-Alpha CW 2001;Sumikathene Hi-Alpha CW 2002;SF 840;SF 941;Polyethy LL-SF 941;Polyethy LL-SF 840;Sumikathene Alpha-FZ 266-0;Exact 3009;Polyethy LL-SF 240;Sumikathene Alpha-LZ 752-1;LT 724X;CM 757X;SLP 9057;SP 1540;Exact 4150;SLP 9063;SP 2040;Exceed 357C32;Exceed 377D60;Exceed 399L60;D 139;Exact SLX 9090;Nipolon L-F 20;Novatec LL-SF 240;Sumikathene Hi-Alpha FW 201-0;Evolue SP 2020;Polyethy SF 230;TUF 0855;SF 230;Escorene LL 3001.32;Sumikathene E-FV 202;Sumikathene E-FV 403;Sumikathene E-FV 402-0;Sumikathene E-FV 401;Sumikathene E-FV 201;Umerit 0540F;Sumikathene FZ 201;J-REX BF 3650;Sumikathene E-FV 203;Sumikathene E-FV 404;Sumikathene Hi-Alpha CW 2004;Nipolon Z-ZF 260-1;Sumikathene E-FV 402;Kernel 54FTK;Kernel 64FTK;Escorene LL 3003.32;Sumikathene Alpha-CS 8053;Novatec SF 230;Kernel KE 025;Kernel 57L;Exact 4151;Exact 3131;Novatec SH 510;SH 510;Exact 3030;Sumikathene CS 3009;Lamiron RC 1000;Exceed ECD 401A;Clearflex CL 106;SLX 9092;Kernel KE 027;Kernel KE 360;0540F;Evolue P-SC 05100;Evolue P-SC 00100;BF 1390;CM 27057F;Kernel KE 028;Novapol Super Hexene TD 9022C;Novapol TD 9022C;Mxsten CM 27057F;Exact 9110;Exact SLX 9092;Sumikathene Hi-Alpha FW 202-0;Ultzex 15100C;UZ 15100C;KE 028;SP 0540;Evolue SP 0540;FG 982;FW 202;Novatec SF 240;NC 524A;Sumikathene Alpha-GZ 802;GZ 802;FZ 202-0;Novapol TR 0735;Kernel KF 360;Sumikathene E-FV 403-0;F 20;Exceed 350A60;LL 09;LL 05;Kernel KS 560;ME 8161;ME 8167;ME 8169;Rigidex 002-40;Exact 4051;DFDA 7068;Kernel KS 340;KS 340;ETS 9078NT7;CM 27050F;LT 24016F;CV 77502;CV 27052F;Marlex HHM-TR 480N;J-REX LL-AC 404A;ECD 357C32;Sumikathene E-FV 405;AL 3108ZD;NC 479A;NC 499A;NC 544A;NH 744A;Harmorex NC 524A;Harmorex LL-NC 479A;Harmorex LL-NC 544A;Harmorex LL-NH 744A;Harmorex LL-NC 499A;HD 6706;Kernel KF 271;KF 271;Tuflin HS 7028;HS 7028;Umerit 2525F;Kernel KS 240;KS 240;Sumikathene α-GZ 802;Sumikathene Alpha-CS 8051;CS 8051;Exceed ECD 321;Exceed ECD 147;LL 3105;Sumikathene Hi-Alpha FW 201;Sumikathene Hi-Alpha FW 202;CW 8003;Sumikathene Hi-Alpha CW 5001;FW 201-0;KF 360;MP 635-662;Exceed ECD 137;Exceed ECD 129;Escorene LL 3002.32;ECD 137;ECD 129;LL 3002.32;KS 560;Exact 9106;BP-LL 6130;Kernel KJ 740;FV 403;KJ 740;HHM 5502;Kernel KJ 6400;KJ 6400;GRSN 7510NT;Kernel KF 260;J-REX LL-AC 41SA;J-REX LL-AF 204A;Harmorex LL-NH 745A;AF 204A;NH 745A;Sumikathene EV 404;Sumikathene α FZ 203-0;Exceed 361C33;KC 650;Sumikathene E-FV 103;Sumikathene FW 201-0;Sumikathene Aplha-FZ 204-0;FZ 204-0;350D60;GMH 2780H;Harmorex LL-NC 524A;Excellen FX-CX 4002;mPACT D 350;Exceed ECD 112;Kernel KJ 640;Kernel KF 270;KF 270;KJ 640;CX 2001;Exxon 6706;NTX 101;1-Hexene-ethene copolymer;Kernel KC 370;Novapol TR 0338UG;Sumikathene Alpha-FZ 103-0;Sumikathene FZ 103-0;Sumikathene FZ 103;Excellen FX-CX 2001;FX-CX 2001;Excellen CX 5005;Excellen CX 5010;Excellen CX 5007;Excellen CX 5012;Kernel KC 570S;Exceed 2518CB;KC 570S;Alkatuff 820;Alkatuff 755;Nipolon Z-TZ 420;Alkatuff 501;Novatec C 6SF240;KF 260;E-FV 203;FV 401;FV 202;FV 102;Kernel KF 380;Sumikathene FV 401;Exxco 012;Exceed 2718CB;mPact D 449;Evolue SP 2540;SP 2540;Kernel KC 574;KC 574;Evolue SP 2520;Excellen FX-CX 3005;CV 27507F;Exact 3040;Lumitac 43-1;Sumikathene CS 8051;GFH 4580H;Marlex HHM 55180F;Kernel KF 281;KF 281;Exceed 4518PA;FV 405;Exceed ML 2518FC;Excellen FX-CX 5026;X 1 (polyolefin);X 1;Evolue SP 1510;Evolue SP 0510;SP 0510;SP 1510;Evolue SP 1520;SP 1520;Exceed 1018CA;Exceed 1327CA;GZ 801;Sumikathene Alpha-GZ 801;Exceed 1023CA;Harmorex NC 479A;M 8160;M 8166;Exceed 1880CA;LL 3002;SP 250;18PFAX;18TFA;18RFA;143SA;SP 250 (polyolefin);Exceed 411;Exceed 330;Novatec HD-HB 120R;Novatec HD-SH 510;Novatec HD-HB 214RW;HB 120R;HB 214RW;Harmorex NC 544A;MarFlex PE 7235;Excellen FX-CX 5017;CX 3005;Exact 4056;Kernel KF 370;Sholex A 607F;J-REX LL-A 607F;FV 201;Nipolon Z 7P04A;Kernel KF 280;Kernel KC 581;KC 581;Kernel KF 273;KF 273;Evolue SP 2320;SP 2320;Sumikathene Hi-Alpha CW 8003;Evolue 0510B;ZM 063;Novatec LL-SF 8402;SF 8402;ML 4518;ML 2518;18FAX;Exceed 1018EB;Excellen FX-CX 5007;FX-CX 5007;Umerit EX 3335;Umerit ZM 064;Umerit EX 3322;Umerit EX 3224;Kaneru KF 480;LLM 103;Excellen FX-CX 3007;DGD 2400;UHAF 1710;Innovex 6910AA;Tosoh 43-1;FMRN 063;Nipolon Z-ZF 230;Unimighty FMGN 040;Unimighty FMGN 030;Unimighty FMGN 020;Unimighty FMGN 010;Exxon Exceed 1012CA;Exxon Exceed 1018CA;Exceed 1012CA;1023CA;Sumikathene E-FV 104;E-FV 104;Sumikathene FZ 203-0;1018CA;250GF;Clearflex FG 166;FG 166;TD 9022D;CL 106;Tipelin FB 472;ECD 321;Umerit 1520F;1520F;TF 0338E;TUF 2022;Excellen FV 103;ECD 364;MarFlex D 143;2525F;Evolue SP 0510B;FV 103;9022C;9022D;LFH 118;Excellen FX-CX 4008;Sumikathene E-FV 101;Sumikathene E-FV 4101;Novapol TF 0219E;Umerit 420SD;Dow 7997;Evolue FV 202;Revolve N 307;HXM 571;Harmorex NC 585A;Novapol TR 0338;ME 8166;Exceed 3518CB;Exceed 3527CB;Tipelin PS 380-30/302;KN-KJ 640;Exceed 3512CB;MB 50K;Novatec SF 8402;Sumikathene E-FV 407;EMCC 3002.32;Dowlex 2645G;Nipolon Z 04P67B;Z 04P67B;KF 280;Excellen FX-CX 5016;Nipolon Z 9P51A;Novatec SF 840;Novatec C6 SF 840;Dowlex 2631;Dowlex 2629;Borecene RM 8343;RM 8343;Novatec LL-SF 720G;Novatec SF 720;Novatec C 6SF8402;Umerit 4040F;Umerit 4540F;SP 0510B;Exceed ML 2518;Finacene M 3410EP;M 3410EP;D 350;Excellen GMH-GH 030;Excellen GMH-GH 051;FV 402;NF 464A;Harmorex NF 464A;MarFlex D 143LP;Novatec UF 641;D 143LP;Exceed 3518;Nipolon Z 04P70A;Z 04P70A;KF 370;Nipolon Z-TZ 420A;LL 3003.32;VL 4470;Continuum DGDA 2490;Continuum DGDC 2480;Tipelin FA 381;HD 6605;Exceed 1012;Novatec C 6SF720;Nipolon Z 04P67D;Z 04P67D;Excellen GMH;Excellen FX 5501;FX 5501;Excellen CX 2001;Excellen FX-CX 8008;SF 720;Umerit 0520F;Umerit 215FA;Nipolon Z 04P62A;0520F;Petrothene LR 590000;Petrothene GA 837091;Novatec LL-UF 641;Hival 103538;Evolue SP 1071C;SP 1071C;Finacene ER 2245;Dow 2645G;SC 74858F;LL 3001.63;Nipolon Z-YB 10T;Novatec LL-SF 941;Nipolon 9P51A;N 307;Evolue SP 4030S;420SD;CV 77525;Exceed 2018CA;Harmorex LL-NH 745N;NH 745N;Harmorex 745N;Harmorex NH 745N;20-05CH;Enable 20-10CH;Enable 20-05CH;Enable 27-05CH;Sumikathene E-FV 102;3527CB;Exceed 2018;Enable 2705;Excellen GMH-CB 5005;Continuum DGDA 2492NT;Excellen CX 4002;Evolue 0540;Kernel 370;HS 7028NT7;Enable 23-05CH;Enable 35-05CH;Evolue H-SP 3510;DL 1002RM;Exceed 1012CJ;Marflex mPACT D 143;Marflex mPACT D 350;Marflex D 350;Enable 20-10CE;Creolex K 4125;K 4125;Enable 20-05CE;Exact 3139;FX 301;Harmorex NF 444A;NF 444A;Exceed 1018;Exxon 1018;Enable 2703CH;Enable 20-10CB;Exceed 1018CA/EB;Enable 35-05;Sumikathene CW 8003;Flexus 9211;Umerit 2040FC;Excellen GMH-CB 5001;DHDA 1184NTJ;Sumikathene GMH-CB 5001;Kernel KS 340T;QLLM 06;HPR 18H10AX;QLLM 08;DFDA 9030;EHM 6007;Marlex EHM 6007;Kernel KC 571;Sumikathene Hi-Alpha CW 2007;Sumikathene Hi-Alpha CS 1009;MarFlex 7109;Flexomer ETS 9078;Flexomer ETS 9078NT7;Excellen GMH-CB 5002;Sumikathene EP-CU 5001;UM 0540F;SP 2020;Petrothene GA 602050;3518CB;Marlex H 525;Excellen FX 408;HXM-TR 571;Tipelin FS 471;HD 6605.70;Exceed 3527;Tuflin HS 7001NT7;CV 77518;CV 77528;TUB 121N3000;GMH-GH 051;Umerit ZM 076;Clearflex FG 106;FG 106;M 3583UV;HF 7042;Enable 20-05;Enable 20-10;Enable 27-05;Starflex GM 1810BA;Nipolon Z-TZ 250B;Novatec SF 720GN;Kernel KS 430;SP 4530;GM 1835CAX01;Nipolon Z 04P71D;Nipolon Z 05P51A;KS 340T;NTX 095;Marlex HHM 5502BN;Formolene HB 5502F;Marlex 5502BN;HHM 5502BN;Exceed 4518;ST 518;DFDA 7094;DNDC 7150;HXF 5107;EXP 605;Evolue SP 4530;Sumikathene FV 402;PE 9057;Nipolon Z 04P67E;XP 9000;EPPE-GH 030;EPPE-GT 050;mLLDPE 3518;Tuflin HSE 7002;Umerit UM 0520F;Eltex PF 1320AA;Starflex GM 1835CAX01;20-05HH;Enable 20-05HH;Exceed 3512;Enable 27-03;Sabic 6218BE;Enable 2703;Q 471;Sumikathene FV 203;MarFlex D 163;D 163;Starflex GM 1210;GM 1210;Enable 2005;FV 203;Dowlex 2606G;Kernel KS 260;Sumikathene FV 407;Petrothene GA 601032;Evolue H-SP 50800P;Tuflin HS 7028NT7;Enable 2010;MarFlex LF 093;Exceed 2010CB;Exceed 1012HJ;DJM 1810H;1810H;MPE 3518;35-05HH;27-03HH;Enable 27-03HH;Enable 35-05HH;Marlex TR 131;TPSeal M 3671;Nipolon Z-FY 11;Nipolon Z-FY 12;Umerit 1540FT;Enable 3505HH;Evolue SP 1028;Exceed LL 3527;Exceed LL 1018;Exceed LL 3518;LLDPE 6118NE;Sabic 6118NE;CW 5001;2010CB;Nipolon Z-ZF 260;Z-ZF 260;EM 100;C 6LLDPE;MarFlex D 139;Exceed 1018KA;431GD;Sumikathene CU 5001;Exceed 3812CB;Exceed 0019IM;Exceed 1015HA;Escorene HD 9856B;Novapol HF-Y 450A;3505HH;Nipolon Z-HF 210K;Nipolon Z-HF 250K;Nipolon Z 04P65B;Nipolon Z-ZM 330;DMDB 4506;Harmorex NF 366A;Eltex PF 1315AZ;DNDA 1081;Eltex 1315AZ;LLDPE 1648;Nipolon HM 510R;Enable 2010CB;Sumikathene E-FV 203N;Harmorex NC 566A;NC 566A;Evolue SP 0523A;Evolue SP 0520H;Evolue P-SP 9016;Exceed 0019XC;Enable 2005HH;Enable 2703HH;DMDA 8940NT;DMDA 8940;Marlex HMN-TR 945G;Lumicene mPE M1810EP;FV 407;CU 5001;FV 101;Nipolon HF 250K;HD 9856B;Exceed 7518;Enable 27-05HH;Exceed XP 6026;SE 0327;Exceed 1012HA;HD 6704;Novapol TF 0438E;Enable 2005MC;Enable 2703MC;1018MA;Resility XDPDB 3162;Exceed 1018MA;Exceed XP 8784;Sinopec 9030;Nipolon TZ 420;Enable 2005CB;Supeer 7318;Dowlex GM 8480F;GM 8480F;Exceed 1012MA;Lumicene M 2710EP;M 2710EP;Lumicene M 4041UV;M 4041UV;Dowlex 2636G;EC 045D;Novapol 534;LLDPE 2705;F 3306S;Dowlex 2607G;Evolue SP 4030F;1012HJ;Exceed 1327MA;1327MA;XP 9400;XP 9200;9400XP;DMDA 8940NT7;Lumicene M 3410EP;NTX 141;Exceed 1518KC;Enable 2005HE;PE 100;Exceed 1327KD;DGDA 2460BK;1327KD;HF 210K;Nipolon Z-HM 510R;RM 10440UV;TF 0219E;Xsene XRT 70;XRT 70;Lucene SP 988;Enable 4002HH;SE 1020A;Sumikathene FV 405;E 1012HA;Enable 3505MC;3505MC;Exceed XP 6056ML;6056ML;XSC 50;XC 10;Lotrene Q 5502BN;Lotrene Q 50100;Q 50100;GH 030;E-FV 402;E-FV 405;GA 601032;Exceed XP 8318;Exceed 2018MA;2018MA;35-05CH;E 1018MA;SP 4030S;PE 6438R;Supeer 7118NE;UP 203;Exceed 1018HA;1018HA;mLLDPE 1018HA;Exceed XP 8358;LL 8446.21;PE 0019;LX 141;Exceed 3518PA;Excellen FX-FX 307;Sumikathene E-EV 203N;Evolue SP 2090C;Evolue SP 3210;SP 0523A;Exceed PE 1018;Aspun XUS 61850;TPSeal TRC-D 0045 Natural;TPSeal TRC-D 0045 white;Nipolon Z-HL 610K;ML 3601U;Lumicene MPE-EC 045D;Lumicene MPE-M 2314EP;Continuum DGDA 2502BK;Continuum DGDA 2490BK;TPSeal TPS 0007C02;TPSeal 235;Lumicene MP-E-M 3583UV;Lumicene M 1811PCE;BX 202;Sabic LLDPE BX 202;Novatec C 6SF8402G;Harmorex NC 564A;NC 564A;D 139FK;Evolue 2320;Alkatuff LL 438;D 136FK;Exceed XP 8784ML;Continuum DMDC 1250NT7;LL 3003.39;Lumicene Supertough 32ST05;32ST05;Enable 4002MC;4002MC;Enable 3505CH;Supertough 32ST05;SLH 818;R 335HL;Exceed 1018KB;E 1018KB;Evolue SP 1523;Evolue SP 13100C;Enable 2010PA;2010PA;DFDA 6010;4536PA;Evolue SP 3530;SP 3530;Exceed 4536PA;LLDPE 4536PA;Primatop MDPE 003938;Marlex HHM 4903;Evolue H-SP 4505;Harmorex NF 324A;Harmorex NF 375B;NF 384A;Harmorex NF 384A;LL 6208AF;UM 0520F;Exceed 8784ML;InnoPlus LL 7910A;Exact 4160;Exceed XP 8656ML;Unipol II;DGDA 1310NT;Exceel 2012;Green PE-SGF 4950;4540F;PE-HD 03580SB;Exceed 2018EB;Enable 4002;Exceed 0015;Exceed 4536;Exceed 0019;ExxonMobil;Exceed XP 8358ML;Exceed S 9243;Exceed XP 8346CB;Exceed S 9333ML;Kernel KF 283;Kernel KF 260T;KF 260T;NF 384;Exceed XP 7052ML;Eltex HD 3850UA;LLDPE 3527;4607GC;Attane 4607GC;XP 8656ML;Sabic LLDPE 6135NE;6135NE;UP 204;Excellen FX 201;FX 201;Evolue SP 0511;SP 0511;Exceed XP 8346PA;Luflexen hyPE 35P-FA;Exceed 1327MD;QHM 22F;XP 8358;1327MD",
    "duplicated_cas_no": "85411-34-3;113609-22-6;113690-22-5;116283-62-6;130810-85-4;148047-11-4;151184-08-6;153550-72-2;155925-19-2;156680-76-1;156831-58-2;160171-33-5;169741-38-2;171903-33-6;171903-34-7;172777-92-3;183748-41-6;192230-60-7;195215-72-6;195263-13-9;197099-14-2;198650-97-4;198650-98-5;202289-65-4;207869-68-9;209797-60-4;210104-24-8;210104-74-8;215660-51-8;217821-93-7;219316-22-0;221548-79-4;225654-29-5;237750-32-2;241807-87-4;247049-99-6;250290-98-3;254978-25-1;256421-07-5;259661-91-1;259869-94-8;261630-22-2;268567-81-3;273734-24-0;277308-77-7;277308-83-5;286388-51-0;289473-34-3;300699-11-0;302917-11-9;325773-59-9;325773-71-5;339058-01-4;344759-96-2;351859-70-6;354117-42-3;356067-68-0;358622-01-2;360055-11-4;366804-42-4;366804-43-5;383186-28-5;401844-61-9;402571-31-7;403643-47-0;404893-25-0;440093-20-9;443761-20-4;467215-94-7;477882-92-1;477883-25-3;497105-72-3;500340-38-5;546102-71-0;610319-29-4;654672-43-2;676269-27-5;709043-56-1;728019-52-1;773075-25-5;773080-73-2;776328-60-0;841277-60-9;850495-55-5;851076-79-4;851076-80-7;852380-45-1;863301-90-0;864380-40-5;869212-76-0;873441-94-2;874755-82-5;876615-00-8;876706-26-2;903527-62-8;916671-32-4;917807-27-3;926009-88-3;928832-24-0;937723-48-3;944463-98-3;947240-21-3;949925-94-4;959844-93-0;1030023-38-1;1032826-29-1;1042226-56-1;1060767-44-3;1071909-12-0;1078126-50-7;1092778-87-4;1119694-89-1;1152413-84-7;1160942-86-8;1187025-85-9;1187025-89-3;1187025-93-9;1187025-95-1;1196701-49-1;1243539-43-6;1255100-35-6;1261562-22-4;1268495-31-3;1281939-82-9;1311144-08-7;1319724-24-7;1354702-73-0;1373761-59-1;1395067-44-3;1403327-89-8;1416055-88-3;1417424-43-1;1431961-90-8;1448541-83-0;1449016-27-6;1450995-74-0;1607016-50-1;1609469-74-0;1708098-66-1;1802235-54-6;1808179-27-2;1809634-65-8;1809739-65-8;1823192-10-4;1848342-03-9;1907634-09-6;1919829-15-4;1980841-52-8;2005463-94-3;2014334-24-6;2022160-30-9;2034113-11-4;2072835-24-4;2079028-26-3;2126095-87-0;2127111-57-1;2129981-20-8;2218495-22-6;2222357-60-8;2251721-43-2;2253117-52-9;2272925-09-2;2292165-77-4;2316467-85-1;2375240-70-1;2377080-99-2;2429911-40-8;2470511-78-3;2550941-33-6;2640166-18-1;2701561-74-0;2730934-79-7;2747136-90-7;2747145-88-4;2747970-32-5;2911639-58-0;2922304-11-6;2922304-18-3;2925572-06-9;2978761-28-1;3037034-85-5",
    "SMILES": "C(CC=C)CC.C=C",
    "meta_data": {
        "InChI": "InChI=1S/C6H12.C2H4/c1-3-5-6-4-2;1-2/h3H,1,4-6H2,2H3;1-2H2",
        "InChIKey": null,
        "Canonical SMILES": "C=C.C=CCCCC",
        "Molecular Formula": "(C<sub>6</sub>H<sub>12</sub>.C<sub>2</sub>H<sub>4</sub>)<sub>x</sub>",
        "Molecular Mass": "",
        "Melting Point": "116 °C",
        "Density": "0.921 g/cm³"
    }
}