{
    "cas_no": "41365-32-6",
    "key_name": "Cirsilineol",
    "cn_name": null,
    "alternate_name": "4<em>H</em>-1-Benzopyran-4-one, 5-hydroxy-2-(4-hydroxy-3-methoxyphenyl)-6,7-dimethoxy-;5-Hydroxy-2-(4-hydroxy-3-methoxyphenyl)-6,7-dimethoxy-4<em>H</em>-1-benzopyran-4-one;Cirsilineol;4′,5-Dihydroxy-3′,6,7-trimethoxyflavone;Fastigenin;Anisomelin;5,4′-Dihydroxy-6,7,3′-trimethoxyflavone;Eupatrin;6-Methoxyluteolin 3′,7-dimethyl ether;NSC 633556;5,4′-Didemethylsinensetin",
    "duplicated_cas_no": "2223047-35-4",
    "SMILES": "OC1=C2C(OC(=CC2=O)C3=CC(OC)=C(O)C=C3)=CC(OC)=C1OC",
    "meta_data": {
        "InChI": "InChI=1S/C18H16O7/c1-22-13-6-9(4-5-10(13)19)12-7-11(20)16-14(25-12)8-15(23-2)18(24-3)17(16)21/h4-8,19,21H,1-3H3",
        "InChIKey": null,
        "Canonical SMILES": "O=C1C=C(OC=2C=C(OC)C(OC)=C(O)C12)C=3C=CC(O)=C(OC)C3",
        "Molecular Formula": "C<sub>18</sub>H<sub>16</sub>O<sub>7</sub>",
        "Molecular Mass": "344.32",
        "Melting Point": "147 °C"
    }
}