{
    "cas_no": "509-14-8",
    "key_name": "Tetranitromethane",
    "cn_name": "四硝基甲烷;",
    "alternate_name": "Methane, tetranitro-;Tetranitromethane;TNM;NSC 16146;MeSH ID: D013774",
    "duplicated_cas_no": "",
    "SMILES": "C(N(=O)=O)(N(=O)=O)(N(=O)=O)N(=O)=O",
    "meta_data": {
        "InChI": "InChI=1S/CN4O8/c6-2(7)1(3(8)9,4(10)11)5(12)13",
        "InChIKey": null,
        "Canonical SMILES": "O=N(=O)C(N(=O)=O)(N(=O)=O)N(=O)=O",
        "Molecular Formula": "CN<sub>4</sub>O<sub>8</sub>",
        "Molecular Mass": "196.03",
        "Boiling Point": "0 °C @ Press: 1.9 Torr",
        "Melting Point": "13.8 °C",
        "Density": "1.6229 g/cm³ @ Temp: 20 °C"
    }
}