{
    "cas_no": "3025-30-7",
    "key_name": "Ethyl (E,Z)-2,4-decadienoate",
    "cn_name": "(E,Z)-2,4-癸二烯酸乙酯;2,4-癸二烯酸乙酯;",
    "alternate_name": "2,4-Decadienoic acid, ethyl ester, (2<em>E</em>,4<em>Z</em>)-;2,4-Decadienoic acid, ethyl ester, (<em>E</em>,<em>Z</em>)-;Ethyl <em>trans</em>-2,<em>cis</em>-4-decadienoate;Ethyl (2<em>E</em>,4<em>Z</em>)-decadienoate;Ethyl (E,Z)-2,4-decadienoate;Ethyl (2<em>E</em>,4<em>Z</em>)-2,4-decadienoate;Pear ester",
    "duplicated_cas_no": "",
    "SMILES": "C(=C/C=C\\CCCCC)\\C(OCC)=O",
    "meta_data": {
        "InChI": "InChI=1S/C12H20O2/c1-3-5-6-7-8-9-10-11-12(13)14-4-2/h8-11H,3-7H2,1-2H3/b9-8-,11-10+",
        "InChIKey": null,
        "Canonical SMILES": "O=C(OCC)C=CC=CCCCCC",
        "Molecular Formula": "C<sub>12</sub>H<sub>20</sub>O<sub>2</sub>",
        "Molecular Mass": "196.29",
        "Boiling Point": "81-82 °C @ Press: 0.1 Torr"
    }
}