{
    "cas_no": "756-79-6",
    "key_name": "Dimethyl methylphosphonate",
    "cn_name": "甲基膦酸二甲酯;",
    "alternate_name": "Phosphonic acid, <em>P</em>-methyl-, dimethyl ester;Phosphonic acid, methyl-, dimethyl ester;Dimethyl methylphosphonate;DMMP;Methanephosphonic acid dimethyl ester;Dimethyl methanephosphonate;Dimethoxymethyl phosphine oxide;Fyrol DMMP;Methylphosphonic acid dimethyl ester;<em>O</em>,<em>O</em>-Dimethyl methylphosphonate;Fran TF 2000;Metaran;Reoflam DMMP;NSC 62240;D 169102;JY 48K;QN 6;CG 124",
    "duplicated_cas_no": "351011-43-3;880251-70-7",
    "SMILES": "P(OC)(OC)(C)=O",
    "meta_data": {
        "InChI": "InChI=1S/C3H9O3P/c1-5-7(3,4)6-2/h1-3H3",
        "InChIKey": null,
        "Canonical SMILES": "O=P(OC)(OC)C",
        "Molecular Formula": "C<sub>3</sub>H<sub>9</sub>O<sub>3</sub>P",
        "Molecular Mass": "124.08",
        "Boiling Point": "181 °C @ Press: 754 Torr",
        "Density": "1.150 g/cm³ @ Temp: 20 °C"
    }
}