{
    "cas_no": "2239-88-5",
    "key_name": "3,3′-Di-<em>O</em>-methylellagic acid",
    "cn_name": null,
    "alternate_name": "[1]Benzopyrano[5,4,3-<em>cde</em>][1]benzopyran-5,10-dione, 2,7-dihydroxy-3,8-dimethoxy-;Diphenic acid, 4,4′,6,6′-tetrahydroxy-5,5′-dimethoxy-, di-δ-lactone;2,7-Dihydroxy-3,8-dimethoxy[1]benzopyrano[5,4,3-<em>cde</em>][1]benzopyran-5,10-dione;3,3′-Di-<em>O</em>-methylellagic acid;Ellagic acid, 3,3′-di-<em>O</em>-methyl-;Ellagic acid 3,3′-dimethyl ether;3,3′-Dimethoxyellagic acid;3,3′-Dimethylellagic acid;Dimethoxy ellagic acid",
    "duplicated_cas_no": "124590-36-9",
    "SMILES": "O(C)C=1C2=C3C4=C(C(OC)=C(O)C=C4C(=O)O2)OC(=O)C3=CC1O",
    "meta_data": {
        "InChI": "InChI=1S/C16H10O8/c1-21-11-7(17)3-5-9-10-6(15(19)23-13(9)11)4-8(18)12(22-2)14(10)24-16(5)20/h3-4,17-18H,1-2H3",
        "InChIKey": null,
        "Canonical SMILES": "O=C1OC2=C(OC)C(O)=CC=3C(=O)OC=4C(OC)=C(O)C=C1C4C23",
        "Molecular Formula": "C<sub>16</sub>H<sub>10</sub>O<sub>8</sub>",
        "Molecular Mass": "330.25",
        "Melting Point": "330-331 °C"
    }
}