{
    "cas_no": "65-28-1",
    "key_name": "Phentolamine methanesulfonate",
    "cn_name": "甲磺酸酚妥拉明;2-[N-(间羟基)-对甲苯胺甲基]-2-咪唑啉甲磺酸盐;",
    "alternate_name": "Phenol, 3-[[(4,5-dihydro-1<em>H</em>-imidazol-2-yl)methyl](4-methylphenyl)amino]-, methanesulfonate (1:1);Phenol, <em>m</em>-[<em>N</em>-(2-imidazolin-2-ylmethyl)-<em>p</em>-toluidino]-, monomethanesulfonate (salt);Phenol, 3-[[(4,5-dihydro-1<em>H</em>-imidazol-2-yl)methyl](4-methylphenyl)amino]-, monomethanesulfonate (salt);<em>m</em>-[<em>N</em>-(2-Imidazolin-2-ylmethyl)-<em>p</em>-toluidino]phenol methanesulfonate;Phentolamine mesylate;Phentolamine methanesulfonate;Regitine methanesulfonate;Regitin methanesulphonate;Phentolamine methanesulphonate;Regitine mesylate;Vasomax;Rogitine",
    "duplicated_cas_no": "252228-09-4",
    "SMILES": "S(C)(=O)(=O)O.N(CC=1NCCN1)(C2=CC(O)=CC=C2)C3=CC=C(C)C=C3",
    "meta_data": {
        "InChI": "InChI=1S/C17H19N3O.CH4O3S/c1-13-5-7-14(8-6-13)20(12-17-18-9-10-19-17)15-3-2-4-16(21)11-15;1-5(2,3)4/h2-8,11,21H,9-10,12H2,1H3,(H,18,19);1H3,(H,2,3,4)",
        "InChIKey": null,
        "Canonical SMILES": "O=S(=O)(O)C.OC1=CC=CC(=C1)N(C2=CC=C(C=C2)C)CC3=NCCN3",
        "Molecular Formula": "C<sub>17</sub>H<sub>19</sub>N<sub>3</sub>O.CH<sub>4</sub>O<sub>3</sub>S",
        "Molecular Mass": "",
        "Melting Point": "177-181 °C"
    }
}