{
    "cas_no": "143-22-6",
    "key_name": "Triethylene glycol monobutyl ether",
    "cn_name": "三乙二醇单丁醚;三甘醇单丁醚;三乙二醇丁醚;三乙二醇丁基醚;2-[2-(2-丁氧基乙氧基)乙氧基]乙醇;",
    "alternate_name": "Ethanol, 2-[2-(2-butoxyethoxy)ethoxy]-;2-[2-(2-Butoxyethoxy)ethoxy]ethanol;Butoxytriethylene glycol;Butoxytriglycol;Dowanol TBAT;Triethylene glycol monobutyl ether;Triglycol monobutyl ether;3,6,9-Trioxatridecan-1-ol;Butyltriglycol;TEGBE;C<sub>4</sub>E<sub>3</sub>;BTG;NSC 164915;Butysenol 30;Koremul BE 3;Triethylene glycol mono-<em>n</em>-butyl ether;BDGE 30;2-[2-(2-Butoxyethoxy)ethoxy]ethan-1-ol;Butycenol 30",
    "duplicated_cas_no": "",
    "SMILES": "C(OCCOCCO)COCCCC",
    "meta_data": {
        "InChI": "InChI=1S/C10H22O4/c1-2-3-5-12-7-9-14-10-8-13-6-4-11/h11H,2-10H2,1H3",
        "InChIKey": null,
        "Canonical SMILES": "OCCOCCOCCOCCCC",
        "Molecular Formula": "C<sub>10</sub>H<sub>22</sub>O<sub>4</sub>",
        "Molecular Mass": "206.28",
        "Boiling Point": "278 °C @ Press: 760 Torr",
        "Melting Point": "-35 °C",
        "Density": "0.9890 g/cm³ @ Temp: 20 °C"
    }
}