{
    "cas_no": "95-64-7",
    "key_name": "3,4-Dimethylaniline",
    "cn_name": "3,4-二甲基苯胺;",
    "alternate_name": "Benzenamine, 3,4-dimethyl-;3,4-Xylidine;3,4-Dimethylbenzenamine;3,4-Dimethylaniline;4-Amino-1,2-dimethylbenzene;3,4-Dimethylaminobenzene;1-Amino-3,4-dimethylbenzene;4-Amino-<em>o</em>-xylene;3,4-Xylylamine;3,4-Dimethylphenylamine;NSC 41800;NSC 7099",
    "duplicated_cas_no": "",
    "SMILES": "CC1=C(C)C=CC(N)=C1",
    "meta_data": {
        "InChI": "InChI=1S/C8H11N/c1-6-3-4-8(9)5-7(6)2/h3-5H,9H2,1-2H3",
        "InChIKey": null,
        "Canonical SMILES": "NC1=CC=C(C(=C1)C)C",
        "Molecular Formula": "C<sub>8</sub>H<sub>11</sub>N",
        "Molecular Mass": "121.18",
        "Boiling Point": "228 °C @ Press: 760 Torr",
        "Melting Point": "51 °C",
        "Density": "1.076 g/cm³ @ Temp: 18 °C"
    }
}