{
    "cas_no": "3641-10-9",
    "key_name": "1<em>H</em>-1,2,4-Triazole-5-carbonitrile",
    "cn_name": "3-氰基-1,2,4-三氮唑;",
    "alternate_name": "1<em>H</em>-1,2,4-Triazole-5-carbonitrile;<em>s</em>-Triazole-3-carbonitrile;1<em>H</em>-1,2,4-Triazole-3-carbonitrile;3-Cyano-1,2,4-triazole;1,2,4-Triazole-3-carbonitrile;5-Carbonitrile-1<em>H</em>-1,2,4-Triazole",
    "duplicated_cas_no": "21126-65-8",
    "SMILES": "C(#N)C=1NC=NN1",
    "meta_data": {
        "InChI": "InChI=1S/C3H2N4/c4-1-3-5-2-6-7-3/h2H,(H,5,6,7)",
        "InChIKey": null,
        "Canonical SMILES": "N#CC1=NN=CN1",
        "Molecular Formula": "C<sub>3</sub>H<sub>2</sub>N<sub>4</sub>",
        "Molecular Mass": "94.07",
        "Melting Point": "187 °C"
    }
}