{
    "cas_no": "57-15-8",
    "key_name": "Chlorobutanol",
    "cn_name": "三氯叔丁醇;1,1,1-三氯-2-甲基-2-丙醇;",
    "alternate_name": "2-Propanol, 1,1,1-trichloro-2-methyl-;1,1,1-Trichloro-2-methyl-2-propanol;Acetone chloroform;Anhydrous chlorobutanol;Chlorbutanol;Chlorbutol;Chloretone;Chlorobutanol;Clortran;Methaform;Sedaform;Trichloro-<em>tert</em>-butyl alcohol;1,1,1-Trichloro-<em>tert</em>-butyl alcohol;2-(Trichloromethyl)-2-propanol;β,β,β-Trichloro-<em>tert</em>-butyl alcohol;Acetonchloroform;Chloreton;Dentalone;Khloreton;Acetochlorone;Chlortran;2,2,2-Trichloro-1,1-dimethylethanol;Trichlorobutanol;Coliquifilm;NSC 44794;NSC 4596;NSC 5208;MeSH ID: D002724",
    "duplicated_cas_no": "",
    "SMILES": "C(C(Cl)(Cl)Cl)(C)(C)O",
    "meta_data": {
        "InChI": "InChI=1S/C4H7Cl3O/c1-3(2,8)4(5,6)7/h8H,1-2H3",
        "InChIKey": null,
        "Canonical SMILES": "ClC(Cl)(Cl)C(O)(C)C",
        "Molecular Formula": "C<sub>4</sub>H<sub>7</sub>Cl<sub>3</sub>O",
        "Molecular Mass": "177.46",
        "Boiling Point": "167 °C",
        "Melting Point": "97 °C"
    }
}