{
    "cas_no": "19099-54-8",
    "key_name": "1-Iodo-2-isopropylbenzene",
    "cn_name": "1-碘-2-异丙基苯;2-碘异丙基苯;",
    "alternate_name": "Benzene, 1-iodo-2-(1-methylethyl)-;Cumene, <em>o</em>-iodo-;1-Iodo-2-(1-methylethyl)benzene;<em>o</em>-Iodocumene;2-Iodo-1-isopropylbenzene;2-Isopropyliodobenzene;1-Iodo-2-isopropylbenzene;2-Isopropylphenyl iodide;1-Iodo-2-propan-2-ylbenzene;1-Iodo-2-(propan-2-yl)benzene;1-Isopropyl-2-iodobenzene;2-Isopropyl-1-iodobenzene",
    "duplicated_cas_no": "",
    "SMILES": "C(C)(C)C1=C(I)C=CC=C1",
    "meta_data": {
        "InChI": "InChI=1S/C9H11I/c1-7(2)8-5-3-4-6-9(8)10/h3-7H,1-2H3",
        "InChIKey": null,
        "Canonical SMILES": "IC=1C=CC=CC1C(C)C",
        "Molecular Formula": "C<sub>9</sub>H<sub>11</sub>I",
        "Molecular Mass": "246.09",
        "Boiling Point": "84-85 °C @ Press: 2 Torr",
        "Density": "1.5487 g/cm³ @ Temp: 20 °C"
    }
}