{
    "cas_no": "97-96-1",
    "key_name": "2-Ethylbutanal",
    "cn_name": null,
    "alternate_name": "Butanal, 2-ethyl-;Butyraldehyde, 2-ethyl-;Butyraldehyde, α-ethyl-;2-Ethylbutanal;Diethylacetaldehyde;α-Ethylbutyraldehyde;2-Ethylbutyraldehyde;2-Ethylbutyric aldehyde;3-Formylpentane;α-Ethylbutanal;NSC 6757",
    "duplicated_cas_no": "",
    "SMILES": "C(CC)(CC)C=O",
    "meta_data": {
        "InChI": "InChI=1S/C6H12O/c1-3-6(4-2)5-7/h5-6H,3-4H2,1-2H3",
        "InChIKey": null,
        "Canonical SMILES": "O=CC(CC)CC",
        "Molecular Formula": "C<sub>6</sub>H<sub>12</sub>O",
        "Molecular Mass": "100.16",
        "Boiling Point": "117-119 °C"
    }
}