{
    "cas_no": "2899-66-3",
    "key_name": "3-[(Phenylmethyl)thio]propanoic acid",
    "cn_name": null,
    "alternate_name": "Propanoic acid, 3-[(phenylmethyl)thio]-;Propionic acid, 3-(benzylthio)-;3-[(Phenylmethyl)thio]propanoic acid;β-(Benzylthio)propionic acid;3-(Benzylthio)propionic acid;<em>S</em>-Benzyl-β-mercaptopropionic acid;3-(Benzylthio)propanoic acid;NSC 5996;NSC 8528;3-(Benzylsulfanyl)propanoic acid",
    "duplicated_cas_no": "",
    "SMILES": "C(SCCC(O)=O)C1=CC=CC=C1",
    "meta_data": {
        "InChI": "InChI=1S/C10H12O2S/c11-10(12)6-7-13-8-9-4-2-1-3-5-9/h1-5H,6-8H2,(H,11,12)",
        "InChIKey": null,
        "Canonical SMILES": "O=C(O)CCSCC=1C=CC=CC1",
        "Molecular Formula": "C<sub>10</sub>H<sub>12</sub>O<sub>2</sub>S",
        "Molecular Mass": "196.27",
        "Boiling Point": "147 °C @ Press: 0.5 Torr",
        "Melting Point": "81-81.5 °C"
    }
}