{
    "cas_no": "100868-46-0",
    "key_name": "3,5-Dichloro-4-methylpyridine",
    "cn_name": "3,5-二氯-4-甲基吡啶;",
    "alternate_name": "Pyridine, 3,5-dichloro-4-methyl-;4-Picoline, 3,5-dichloro-;3,5-Dichloro-4-methylpyridine;3,5-Dichloro-4-picoline",
    "duplicated_cas_no": "",
    "SMILES": "CC=1C(Cl)=CN=CC1Cl",
    "meta_data": {
        "InChI": "InChI=1S/C6H5Cl2N/c1-4-5(7)2-9-3-6(4)8/h2-3H,1H3",
        "InChIKey": null,
        "Canonical SMILES": "ClC1=CN=CC(Cl)=C1C",
        "Molecular Formula": "C<sub>6</sub>H<sub>5</sub>Cl<sub>2</sub>N",
        "Molecular Mass": "162.02",
        "Boiling Point": "125-127 °C @ Press: 74 Torr",
        "Melting Point": "49 °C"
    }
}