{
    "cas_no": "52-39-1",
    "key_name": "(+)-Aldosterone",
    "cn_name": null,
    "alternate_name": "Pregn-4-en-18-al, 11,21-dihydroxy-3,20-dioxo-, (11β)-;Aldosterone;(11β)-11,21-Dihydroxy-3,20-dioxopregn-4-en-18-al;Aldocorten;Aldocortene;(+)-Aldosterone;<em>d</em>-Aldosterone;11β,21-Dihydroxy-3,20-diketo-4-pregnen-18-al;11β,21-Dihydroxy-3,20-diketopregn-4-ene-18-al;11β,21-Dihydroxypregn-4-ene-3,18,20-trione;Electrocortin;Elektrocortin;18-Formyl-11β,21-dihydroxy-4-pregnene-3,20-dione;18-Oxocorticosterone;Aldocortin;Reichstein X;NSC 73856;MeSH ID: D000450",
    "duplicated_cas_no": "152-04-5;10328-70-8;47468-70-2",
    "SMILES": "C(=O)[C@@]12[C@]([C@]3([C@]([C@@H](O)C1)([C@]4(C)C(CC3)=CC(=O)CC4)[H])[H])(CC[C@@H]2C(CO)=O)[H]",
    "meta_data": {
        "InChI": "InChI=1S/C21H28O5/c1-20-7-6-13(24)8-12(20)2-3-14-15-4-5-16(18(26)10-22)21(15,11-23)9-17(25)19(14)20/h8,11,14-17,19,22,25H,2-7,9-10H2,1H3/t14-,15-,16+,17-,19+,20-,21+/m0/s1",
        "InChIKey": null,
        "Canonical SMILES": "O=CC12CC(O)C3C(CCC4=CC(=O)CCC43C)C2CCC1C(=O)CO",
        "Molecular Formula": "C<sub>21</sub>H<sub>28</sub>O<sub>5</sub>",
        "Molecular Mass": "360.44",
        "Melting Point": "166.5 °C"
    }
}