{
    "cas_no": "529-55-5",
    "key_name": "Prunin",
    "cn_name": "柚(苷)配基-7-O-葡糖苷;柚(苷)配基-7-O-葡糖苷;",
    "alternate_name": "4<em>H</em>-1-Benzopyran-4-one, 7-(β-<span class=\"text-smallcaps\">D</span>-glucopyranosyloxy)-2,3-dihydro-5-hydroxy-2-(4-hydroxyphenyl)-, (2<em>S</em>)-;Prunin;4<em>H</em>-1-Benzopyran-4-one, 7-(β-<span class=\"text-smallcaps\">D</span>-glucopyranosyloxy)-2,3-dihydro-5-hydroxy-2-(4-hydroxyphenyl)-, (<em>S</em>)-;(2<em>S</em>)-7-(β-<span class=\"text-smallcaps\">D</span>-Glucopyranosyloxy)-2,3-dihydro-5-hydroxy-2-(4-hydroxyphenyl)-4<em>H</em>-1-benzopyran-4-one;Naringenin 7-glucoside;(-)-Naringenin 7-β-<span class=\"text-smallcaps\">D</span>-glucoside;Naringenin 7-<em>O</em>-glucoside;Naringenin 7-<em>O</em>-β-<span class=\"text-smallcaps\">D</span>-glucoside;Naringenin 7-<em>O</em>-β-<span class=\"text-smallcaps\">D</span>-glucopyranoside;4′,5,7-Trihydroxyflavanone 7-<em>O</em>-β-<span class=\"text-smallcaps\">D</span>-glucopyranoside;NSC 135064;(2<em>S</em>)-Naringenin 7-<em>O</em>-β-<span class=\"text-smallcaps\">D</span>-glucopyranoside",
    "duplicated_cas_no": "30399-86-1;31049-13-5",
    "SMILES": "O=C1C=2C(O[C@@H](C1)C3=CC=C(O)C=C3)=CC(O[C@@H]4O[C@H](CO)[C@@H](O)[C@H](O)[C@H]4O)=CC2O",
    "meta_data": {
        "InChI": "InChI=1S/C21H22O10/c22-8-16-18(26)19(27)20(28)21(31-16)29-11-5-12(24)17-13(25)7-14(30-15(17)6-11)9-1-3-10(23)4-2-9/h1-6,14,16,18-24,26-28H,7-8H2/t14-,16+,18+,19-,20+,21+/m0/s1",
        "InChIKey": null,
        "Canonical SMILES": "O=C1C2=C(O)C=C(OC3OC(CO)C(O)C(O)C3O)C=C2OC(C4=CC=C(O)C=C4)C1",
        "Molecular Formula": "C<sub>21</sub>H<sub>22</sub>O<sub>10</sub>",
        "Molecular Mass": "434.39",
        "Melting Point": "225 °C"
    }
}