{
    "cas_no": "3496-11-5",
    "key_name": "<span class=\"text-smallcaps\">L</span>-Valine, <em>N</em>-[(phenylmethoxy)carbonyl]-, 2,5-dioxo-1-pyrrolidinyl ester",
    "cn_name": null,
    "alternate_name": "<span class=\"text-smallcaps\">L</span>-Valine, <em>N</em>-[(phenylmethoxy)carbonyl]-, 2,5-dioxo-1-pyrrolidinyl ester;Succinimide, <em>N</em>-[(<em>N</em>-carboxy-<span class=\"text-smallcaps\">L</span>-valyl)oxy]-, benzyl ester;Carbamic acid, [1-[[(2,5-dioxo-1-pyrrolidinyl)oxy]carbonyl]-2-methylpropyl]-, phenylmethyl ester, (<em>S</em>)-;Carbamic acid, [(1<em>S</em>)-1-[[(2,5-dioxo-1-pyrrolidinyl)oxy]carbonyl]-2-methylpropyl]-, phenylmethyl ester;Valine, <em>N</em>-carboxy-, <em>N</em>-benzyl ester, succinimido deriv., <span class=\"text-smallcaps\">L</span>-;<em>N</em>-Benzyloxycarbonyl-<span class=\"text-smallcaps\">L</span>-valine <em>N</em>-hydroxysuccinimide ester;<em>N</em>-Carbobenzyloxy-<span class=\"text-smallcaps\">L</span>-valine hydroxysuccinimide ester;NSC 322480;(2,5-Dioxopyrrolidin-1-yl) (2S)-3-methyl-2-(phenylmethoxycarbonylamino)butanoate",
    "duplicated_cas_no": "869307-47-1",
    "SMILES": "O(C([C@@H](NC(OCC1=CC=CC=C1)=O)[C@H](C)C)=O)N2C(=O)CCC2=O",
    "meta_data": {
        "InChI": "InChI=1S/C17H20N2O6/c1-11(2)15(16(22)25-19-13(20)8-9-14(19)21)18-17(23)24-10-12-6-4-3-5-7-12/h3-7,11,15H,8-10H2,1-2H3,(H,18,23)/t15-/m0/s1",
        "InChIKey": null,
        "Canonical SMILES": "O=C(OCC=1C=CC=CC1)NC(C(=O)ON2C(=O)CCC2=O)C(C)C",
        "Molecular Formula": "C<sub>17</sub>H<sub>20</sub>N<sub>2</sub>O<sub>6</sub>",
        "Molecular Mass": "348.35",
        "Melting Point": "116-117 °C"
    }
}