{
    "cas_no": "456-48-4",
    "key_name": "3-Fluorobenzaldehyde",
    "cn_name": "3-氟苯甲醛;间氟苯甲醛;",
    "alternate_name": "Benzaldehyde, 3-fluoro-;Benzaldehyde, <em>m</em>-fluoro-;3-Fluorobenzaldehyde;<em>m</em>-Fluorobenzaldehyde;3-Fluorobenzenecarboxaldehyde;NSC 66830;3-Fluorophenylcarboxaldehyde",
    "duplicated_cas_no": "",
    "SMILES": "C(=O)C1=CC(F)=CC=C1",
    "meta_data": {
        "InChI": "InChI=1S/C7H5FO/c8-7-3-1-2-6(4-7)5-9/h1-5H",
        "InChIKey": null,
        "Canonical SMILES": "O=CC=1C=CC=C(F)C1",
        "Molecular Formula": "C<sub>7</sub>H<sub>5</sub>FO",
        "Molecular Mass": "124.11",
        "Boiling Point": "173 °C",
        "Melting Point": "150-151 °C",
        "Density": "1.7156 g/cm³ @ Temp: 20 °C"
    }
}