{
    "cas_no": "15396-00-6",
    "key_name": "(3-Isocyanatopropyl)trimethoxysilane",
    "cn_name": "3-异氰酸酯基丙基三甲氧基硅烷;",
    "alternate_name": "Silane, (3-isocyanatopropyl)trimethoxy-;Isocyanic acid, 3-(trimethoxysilyl)propyl ester;(3-Isocyanatopropyl)trimethoxysilane;3-(Trimethoxysilyl)propyl isocyanate;(γ-Isocyanatopropyl)trimethoxysilane;KBK 9007;Silquest Y 5187;Y 5187;1-Isocyanato-3-trimethoxysilylpropane;Silquest A-Link 35;3-Isocyanopropyltrimethoxysilane;Geniosil GF 40;A-Link 35;γ-Isocyanopropyltrimethoxysilane;SII 6456.0;Unisilan 18;Trimethoxy(3-isocyanatopropyl)silane;GF 40;KH 901;Vestanat EP-IPMS;3-Isocyanate propyltrimethoxysilane;3-Isocyantopropyltrimethoxysilane;KBE 900;KBM 9007A;KBM 9007N;Isocyanopropyl trimethoxy silane;SCA-Y 25M;IC 301;T 03;Silong 9907M;Sanfu SI 335;SI 335;A11262;QX 335",
    "duplicated_cas_no": "127274-08-2;133556-58-8;799763-22-7;180983-94-2;1114991-16-0;649740-09-0",
    "SMILES": "[Si](CCCN=C=O)(OC)(OC)OC",
    "meta_data": {
        "InChI": "InChI=1S/C7H15NO4Si/c1-10-13(11-2,12-3)6-4-5-8-7-9/h4-6H2,1-3H3",
        "InChIKey": null,
        "Canonical SMILES": "O=C=NCCC[Si](OC)(OC)OC",
        "Molecular Formula": "C<sub>7</sub>H<sub>15</sub>NO<sub>4</sub>Si",
        "Molecular Mass": "205.28",
        "Boiling Point": "95-98 °C @ Press: 10 Torr",
        "Density": "1.073 g/cm³"
    }
}