{
    "cas_no": "27773-65-5",
    "key_name": "(+)-Apovincaminic acid",
    "cn_name": null,
    "alternate_name": "1<em>H</em>-Indolo[3,2,1-<em>de</em>]pyrido[3,2,1-<em>ij</em>][1,5]naphthyridine-12-carboxylic acid, 13a-ethyl-2,3,5,6,13a,13b-hexahydro-, (13a<em>S</em>,13b<em>S</em>)-;Apovincamin-22-oic acid;Eburnamenine-14-carboxylic acid, (3α,16α)-;1<em>H</em>-Indolo[3,2,1-<em>de</em>]pyrido[3,2,1-<em>ij</em>][1,5]naphthyridine, eburnamenine-14-carboxylic acid deriv.;(13a<em>S</em>,13b<em>S</em>)-13a-Ethyl-2,3,5,6,13a,13b-hexahydro-1<em>H</em>-indolo[3,2,1-<em>de</em>]pyrido[3,2,1-<em>ij</em>][1,5]naphthyridine-12-carboxylic acid;Apovincaminic acid;(+)-<em>cis</em>-Apovincaminic acid;<em>cis</em>-Apovincaminic acid;(3α,16α)-Eburnamenine-14-carboxylic acid;(+)-Apovincaminic acid;Apovincamine acid",
    "duplicated_cas_no": "",
    "SMILES": "C(C)[C@]12[C@]3(C=4N(C=5C(C4CCN3CCC1)=CC=CC5)C(C(O)=O)=C2)[H]",
    "meta_data": {
        "InChI": "InChI=1S/C20H22N2O2/c1-2-20-9-5-10-21-11-8-14-13-6-3-4-7-15(13)22(17(14)18(20)21)16(12-20)19(23)24/h3-4,6-7,12,18H,2,5,8-11H2,1H3,(H,23,24)/t18-,20+/m1/s1",
        "InChIKey": null,
        "Canonical SMILES": "O=C(O)C1=CC2(CC)CCCN3CCC=4C=5C=CC=CC5N1C4C32",
        "Molecular Formula": "C<sub>20</sub>H<sub>22</sub>N<sub>2</sub>O<sub>2</sub>",
        "Molecular Mass": "322.40",
        "Melting Point": "126-129 °C"
    }
}