{
    "cas_no": "304-17-6",
    "key_name": "<em>N</em>-Isopropylphthalimide",
    "cn_name": "N-异丙基邻苯二甲酰亚胺;N-异丙基酞酰亚胺;",
    "alternate_name": "1<em>H</em>-Isoindole-1,3(2<em>H</em>)-dione, 2-(1-methylethyl)-;Phthalimide, <em>N</em>-isopropyl-;2-(1-Methylethyl)-1<em>H</em>-isoindole-1,3(2<em>H</em>)-dione;<em>N</em>-Isopropylphthalimide;NSC 406141;2-Isopropylisoindoline-1,3-dione;2-(Propan-2-yl)-2,3-dihydro-1<em>H</em>-isoindole-1,3-dione",
    "duplicated_cas_no": "",
    "SMILES": "O=C1C=2C(C(=O)N1C(C)C)=CC=CC2",
    "meta_data": {
        "InChI": "InChI=1S/C11H11NO2/c1-7(2)12-10(13)8-5-3-4-6-9(8)11(12)14/h3-7H,1-2H3",
        "InChIKey": null,
        "Canonical SMILES": "O=C1C=2C=CC=CC2C(=O)N1C(C)C",
        "Molecular Formula": "C<sub>11</sub>H<sub>11</sub>NO<sub>2</sub>",
        "Molecular Mass": "189.21",
        "Melting Point": "86 °C"
    }
}