{
    "cas_no": "4390-04-9",
    "key_name": "(±)-2,2,4,4,6,8,8-Heptamethylnonane",
    "cn_name": "七甲基壬烷;异十六烷;2,2,4,4,6,8,8-七甲基壬烷;",
    "alternate_name": "Nonane, 2,2,4,4,6,8,8-heptamethyl-;2,2,4,4,6,8,8-Heptamethylnonane;NSC 77129;(±)-2,2,4,4,6,8,8-Heptamethylnonane;Isocetane",
    "duplicated_cas_no": "125803-38-5",
    "SMILES": "C(C(CC(CC(C)(C)C)C)(C)C)C(C)(C)C",
    "meta_data": {
        "InChI": "InChI=1S/C16H34/c1-13(10-14(2,3)4)11-16(8,9)12-15(5,6)7/h13H,10-12H2,1-9H3",
        "InChIKey": null,
        "Canonical SMILES": "CC(CC(C)(C)C)CC(C)(C)CC(C)(C)C",
        "Molecular Formula": "C<sub>16</sub>H<sub>34</sub>",
        "Molecular Mass": "226.44",
        "Boiling Point": "240 °C",
        "Density": "0.768 g/cm³ @ Temp: 45 °C; Press: 750 Torr"
    }
}