{
    "cas_no": "1772-43-6",
    "key_name": "2,4,4-Trimethyl-2-oxazoline",
    "cn_name": "2,4,4-三甲基-2-唑啉;2,4,4-三甲基-2-恶唑;",
    "alternate_name": "Oxazole, 4,5-dihydro-2,4,4-trimethyl-;2-Oxazoline, 2,4,4-trimethyl-;4,5-Dihydro-2,4,4-trimethyloxazole;2,4,4-Trimethyl-2-oxazoline;2,4,4-Trimethyl-1,3-oxazoline;NSC 107049;2,4,4-Trimethyl-4,5-dihydro-1,3-oxazole;2,4,4-Trimethyl-5<em>H</em>-1,3-oxazole",
    "duplicated_cas_no": "",
    "SMILES": "CC1(C)N=C(C)OC1",
    "meta_data": {
        "InChI": "InChI=1S/C6H11NO/c1-5-7-6(2,3)4-8-5/h4H2,1-3H3",
        "InChIKey": null,
        "Canonical SMILES": "N1=C(OCC1(C)C)C",
        "Molecular Formula": "C<sub>6</sub>H<sub>11</sub>NO",
        "Molecular Mass": "113.16",
        "Boiling Point": "112 °C @ Press: 760 Torr"
    }
}