{
    "cas_no": "17625-83-1",
    "key_name": "<em>N</em>-(4-Aminophenyl)benzamide",
    "cn_name": "4-氨基苯甲酰苯胺;对氨基苯甲酰苯胺;",
    "alternate_name": "Benzamide, <em>N</em>-(4-aminophenyl)-;Benzanilide, 4′-amino-;<em>N</em>-(4-Aminophenyl)benzamide;<em>N</em>-Benzoyl-1,4-diaminobenzene;1-Amino-4-(benzoylamino)benzene;<em>N</em>-Benzoyl-<em>p</em>-phenylenediamine;4′-Aminobenzanilide;<em>p</em>-Benzamidoaniline;<em>N</em>-Benzoyl-4-aminoaniline",
    "duplicated_cas_no": "",
    "SMILES": "C(NC1=CC=C(N)C=C1)(=O)C2=CC=CC=C2",
    "meta_data": {
        "InChI": "InChI=1S/C13H12N2O/c14-11-6-8-12(9-7-11)15-13(16)10-4-2-1-3-5-10/h1-9H,14H2,(H,15,16)",
        "InChIKey": null,
        "Canonical SMILES": "O=C(NC1=CC=C(N)C=C1)C=2C=CC=CC2",
        "Molecular Formula": "C<sub>13</sub>H<sub>12</sub>N<sub>2</sub>O",
        "Molecular Mass": "212.25",
        "Melting Point": "129 °C"
    }
}