{
    "cas_no": "75-62-7",
    "key_name": "Bromotrichloromethane",
    "cn_name": "三氯溴甲烷;溴三氯甲烷;溴氯仿;",
    "alternate_name": "Methane, bromotrichloro-;Bromotrichloromethane;Trichlorobromomethane;Carbon bromotrichloride;Monobromotrichloromethane;Trichloromethyl bromide;Carbon trichlorobromide;Carbon bromide trichloride (CBrCl<sub>3</sub>);Bromotrichlormethane;NSC 8017;MeSH ID: D001975",
    "duplicated_cas_no": "",
    "SMILES": "C(Br)(Cl)(Cl)Cl",
    "meta_data": {
        "InChI": "InChI=1S/CBrCl3/c2-1(3,4)5",
        "InChIKey": null,
        "Canonical SMILES": "ClC(Cl)(Cl)Br",
        "Molecular Formula": "CBrCl<sub>3</sub>",
        "Molecular Mass": "198.27",
        "Boiling Point": "105 °C",
        "Melting Point": "-5.7 °C",
        "Density": "2.012 g/cm³ @ Temp: 25 °C"
    }
}