{
    "cas_no": "196597-77-0",
    "key_name": "4,5-Dibromo-1,2,6,7-tetrahydro-8<em>H</em>-indeno[5,4-<em>b</em>]furan-8-one",
    "cn_name": null,
    "alternate_name": "8<em>H</em>-Indeno[5,4-<em>b</em>]furan-8-one, 4,5-dibromo-1,2,6,7-tetrahydro-;4,5-Dibromo-1,2,6,7-tetrahydro-8<em>H</em>-indeno[5,4-<em>b</em>]furan-8-one",
    "duplicated_cas_no": "",
    "SMILES": "O=C1C=2C3=C(C(Br)=C(Br)C2CC1)OCC3",
    "meta_data": {
        "InChI": "InChI=1S/C11H8Br2O2/c12-9-5-1-2-7(14)8(5)6-3-4-15-11(6)10(9)13/h1-4H2",
        "InChIKey": null,
        "Canonical SMILES": "O=C1C=2C(=C(Br)C(Br)=C3OCCC32)CC1",
        "Molecular Formula": "C<sub>11</sub>H<sub>8</sub>Br<sub>2</sub>O<sub>2</sub>",
        "Molecular Mass": "331.99",
        "Melting Point": "224-226 °C"
    }
}