{
    "cas_no": "41292-65-3",
    "key_name": "5-Hydroxybenzimidazole",
    "cn_name": null,
    "alternate_name": "1<em>H</em>-Benzimidazol-6-ol;1<em>H</em>-Benzimidazol-5-ol;5(<em>or</em> 6)-Benzimidazolol;5-Hydroxybenzimidazole;5-Benzimidazolol;1<em>H</em>-Benzo[<em>d</em>]imidazol-6-ol;1<em>H</em>-1,3-Benzodiazol-6-ol;1<em>H</em>-1,3-Benzodiazol-5-ol",
    "duplicated_cas_no": "149471-91-0",
    "SMILES": "OC=1C=C2C(=CC1)NC=N2",
    "meta_data": {
        "InChI": "InChI=1S/C7H6N2O/c10-5-1-2-6-7(3-5)9-4-8-6/h1-4,10H,(H,8,9)",
        "InChIKey": null,
        "Canonical SMILES": "OC=1C=CC=2NC=NC2C1",
        "Molecular Formula": "C<sub>7</sub>H<sub>6</sub>N<sub>2</sub>O",
        "Molecular Mass": "134.14",
        "Melting Point": "220-222 °C"
    }
}