{
    "cas_no": "32459-62-4",
    "key_name": "1-Ethoxy-4-isocyanatobenzene",
    "cn_name": "4-乙氧基苯基异氰酸酯;",
    "alternate_name": "Benzene, 1-ethoxy-4-isocyanato-;Isocyanic acid, <em>p</em>-ethoxyphenyl ester;Phenetole, <em>p</em>-isocyanato-;1-Ethoxy-4-isocyanatobenzene;<em>p</em>-Ethoxyphenyl isocyanate;4-Ethoxyphenyl isocyanate;4-Ethoxy-1-isocyanatobenzene",
    "duplicated_cas_no": "",
    "SMILES": "N(=C=O)C1=CC=C(OCC)C=C1",
    "meta_data": {
        "InChI": "InChI=1S/C9H9NO2/c1-2-12-9-5-3-8(4-6-9)10-7-11/h3-6H,2H2,1H3",
        "InChIKey": null,
        "Canonical SMILES": "O=C=NC1=CC=C(OCC)C=C1",
        "Molecular Formula": "C<sub>9</sub>H<sub>9</sub>NO<sub>2</sub>",
        "Molecular Mass": "163.17",
        "Boiling Point": "110 °C",
        "Melting Point": "61 °C"
    }
}