{
    "cas_no": "493-52-7",
    "key_name": "Methyl red",
    "cn_name": "甲基红;酸性红2;对二甲氨基偶氮苯邻羧酸;2-[[4-(二甲基氨基)苯基]偶氮基]苯甲酸;",
    "alternate_name": "Benzoic acid, 2-[2-[4-(dimethylamino)phenyl]diazenyl]-;C.I. Acid Red 2;Benzoic acid, 2-[[4-(dimethylamino)phenyl]azo]-;2-[2-[4-(Dimethylamino)phenyl]diazenyl]benzoic acid;<em>p</em>-(Dimethylamino)azobenzene-<em>o</em>-carboxylic acid;Methyl red;2-Carboxy-4′-(dimethylamino)azobenzene;<em>o</em>-[[<em>p</em>-(Dimethylamino)phenyl]azo]benzoic acid;<em>o</em>-Methyl red;4′-(Dimethylamino)azobenzene-2-carboxylic acid;2-[(<em>p</em>-Dimethylamino)phenyl]azobenzoic acid;C.I. 13020;Acid Red 2;4-(2-Carboxyphenylazo)-<em>N</em>,<em>N</em>-dimethylaniline;Methyl red C.I. 13020;2-[[4-(Dimethylamino)phenyl]azo]benzoic acid;NSC 215212;NSC 34729;NSC 9597;4-(Dimethylamino)azobenzene-2′-carboxylic acid;2-(<em>N</em>,<em>N</em>-Dimethyl-4-aminophenyl)azobenzenecarboxylic acid;2-[[4-(Dimethylamino)phenyl]diazenyl]benzoic acid",
    "duplicated_cas_no": "",
    "SMILES": "N(=NC1=CC=C(N(C)C)C=C1)C2=C(C(O)=O)C=CC=C2",
    "meta_data": {
        "InChI": "InChI=1S/C15H15N3O2/c1-18(2)12-9-7-11(8-10-12)16-17-14-6-4-3-5-13(14)15(19)20/h3-10H,1-2H3,(H,19,20)",
        "InChIKey": null,
        "Canonical SMILES": "O=C(O)C=1C=CC=CC1N=NC2=CC=C(C=C2)N(C)C",
        "Molecular Formula": "C<sub>15</sub>H<sub>15</sub>N<sub>3</sub>O<sub>2</sub>",
        "Molecular Mass": "269.30",
        "Melting Point": "181-182 °C",
        "Density": "1.31 g/cm³"
    }
}