{
    "cas_no": "96314-26-0",
    "key_name": "(4<em>S</em>)-4-Phenyl-<span class=\"text-smallcaps\">L</span>-proline",
    "cn_name": "反-4-苯基-L-脯氨酸;",
    "alternate_name": "<span class=\"text-smallcaps\">L</span>-Proline, 4-phenyl-, (4<em>S</em>)-;<span class=\"text-smallcaps\">L</span>-Proline, 4-phenyl-, <em>trans</em>-;Proline, 4-phenyl-;(4<em>S</em>)-4-Phenyl-<span class=\"text-smallcaps\">L</span>-proline;<em>trans</em>-4-Phenyl-<span class=\"text-smallcaps\">L</span>-proline",
    "duplicated_cas_no": "",
    "SMILES": "C(O)(=O)[C@@H]1C[C@H](CN1)C2=CC=CC=C2",
    "meta_data": {
        "InChI": "InChI=1S/C11H13NO2/c13-11(14)10-6-9(7-12-10)8-4-2-1-3-5-8/h1-5,9-10,12H,6-7H2,(H,13,14)/t9-,10+/m1/s1",
        "InChIKey": null,
        "Canonical SMILES": "O=C(O)C1NCC(C=2C=CC=CC2)C1",
        "Molecular Formula": "C<sub>11</sub>H<sub>13</sub>NO<sub>2</sub>",
        "Molecular Mass": "191.23",
        "Melting Point": "&gt;300 °C (decomp)"
    }
}