{
    "cas_no": "4180-26-1",
    "key_name": "2-Propenoic acid, 2,2,3,3,4,4,5,5,6,6,7,7,8,8,9,9-hexadecafluorononyl ester",
    "cn_name": "2,2,3,3,4,4,5,5,6,6,7,7,8,8,9,9-十六氟壬醇丙烯酸盐;",
    "alternate_name": "2-Propenoic acid, 2,2,3,3,4,4,5,5,6,6,7,7,8,8,9,9-hexadecafluorononyl ester;Acrylic acid, 2,2,3,3,4,4,5,5,6,6,7,7,8,8,9,9-hexadecafluorononyl ester;1-Nonanol, 2,2,3,3,4,4,5,5,6,6,7,7,8,8,9,9-hexadecafluoro-, acrylate;1,1,9-Trihydroperfluorononyl acrylate;1<em>H</em>,1<em>H</em>,9<em>H</em>-Hexadecafluoro-1-nonyl acrylate;1<em>H</em>,1<em>H</em>,9<em>H</em>-Hexadecafluorononyl acrylate;1<em>H</em>,1<em>H</em>,9<em>H</em>-Perfluorononyl acrylate;R 5810;2,2,3,3,4,4,5,5,6,6,7,7,8,8,9,9-Hexadecafluorononyl acrylate;2,2,3,3,4,4,5,5,6,6,7,7,8,8,9,9-Hexadecafluorononyl prop-2-enoate",
    "duplicated_cas_no": "848665-04-3",
    "SMILES": "C(C(C(C(C(F)F)(F)F)(F)F)(F)F)(C(C(C(COC(C=C)=O)(F)F)(F)F)(F)F)(F)F",
    "meta_data": {
        "InChI": "InChI=1S/C12H6F16O2/c1-2-4(29)30-3-6(15,16)8(19,20)10(23,24)12(27,28)11(25,26)9(21,22)7(17,18)5(13)14/h2,5H,1,3H2",
        "InChIKey": null,
        "Canonical SMILES": "O=C(OCC(F)(F)C(F)(F)C(F)(F)C(F)(F)C(F)(F)C(F)(F)C(F)(F)C(F)F)C=C",
        "Molecular Formula": "C<sub>12</sub>H<sub>6</sub>F<sub>16</sub>O<sub>2</sub>",
        "Molecular Mass": "486.15",
        "Boiling Point": "87-88 °C @ Press: 6 Torr",
        "Density": "1.648 g/cm³ @ Temp: 20 °C"
    }
}