{
    "cas_no": "21211-22-3",
    "key_name": "3-Chlorobenzo[<em>b</em>]thiophene-2-carboxylic acid",
    "cn_name": null,
    "alternate_name": "Benzo[<em>b</em>]thiophene-2-carboxylic acid, 3-chloro-;3-Chlorobenzo[<em>b</em>]thiophene-2-carboxylic acid;3-Chlorobenzothiophene-2-carboxylic acid;NSC 206632;3-Chloro-1-benzothiophene-2-carboxylic acid",
    "duplicated_cas_no": "",
    "SMILES": "ClC=1C=2C(SC1C(O)=O)=CC=CC2",
    "meta_data": {
        "InChI": "InChI=1S/C9H5ClO2S/c10-7-5-3-1-2-4-6(5)13-8(7)9(11)12/h1-4H,(H,11,12)",
        "InChIKey": null,
        "Canonical SMILES": "O=C(O)C=1SC=2C=CC=CC2C1Cl",
        "Molecular Formula": "C<sub>9</sub>H<sub>5</sub>ClO<sub>2</sub>S",
        "Molecular Mass": "212.65",
        "Melting Point": "263 °C"
    }
}