{
    "cas_no": "486-66-8",
    "key_name": "Daidzein",
    "cn_name": "大豆素;黄豆苷元;大豆甙元;大豆黄酮;4\",7-二羟基异黄酮;",
    "alternate_name": "4<em>H</em>-1-Benzopyran-4-one, 7-hydroxy-3-(4-hydroxyphenyl)-;Daidzein;Isoflavone, 4′,7-dihydroxy-;7-Hydroxy-3-(4-hydroxyphenyl)-4<em>H</em>-1-benzopyran-4-one;4′,7-Dihydroxyisoflavone;7,4′-Dihydroxyisoflavone;Daidzeol;K 251b;NPI 031E;Isoaurostatin;FW 635I-1;Daidzin aglycone;Broad ID:BRD-K42095107",
    "duplicated_cas_no": "",
    "SMILES": "O=C1C=2C(OC=C1C3=CC=C(O)C=C3)=CC(O)=CC2",
    "meta_data": {
        "InChI": "InChI=1S/C15H10O4/c16-10-3-1-9(2-4-10)13-8-19-14-7-11(17)5-6-12(14)15(13)18/h1-8,16-17H",
        "InChIKey": null,
        "Canonical SMILES": "O=C1C(=COC2=CC(O)=CC=C12)C=3C=CC(O)=CC3",
        "Molecular Formula": "C<sub>15</sub>H<sub>10</sub>O<sub>4</sub>",
        "Molecular Mass": "254.24",
        "Melting Point": "323 °C (decomp)"
    }
}