{
    "cas_no": "17878-44-3",
    "key_name": "1-Bromo-4-[(trimethylsilyl)oxy]benzene",
    "cn_name": "对(三甲基硅氧基)溴苯;",
    "alternate_name": "Benzene, 1-bromo-4-[(trimethylsilyl)oxy]-;Silane, (<em>p</em>-bromophenoxy)trimethyl-;Silane, (4-bromophenoxy)trimethyl-;1-Bromo-4-[(trimethylsilyl)oxy]benzene;(<em>p</em>-Bromophenoxy)trimethylsilane;4-Trimethylsilyloxybromobenzene;4-(Trimethylsiloxy)bromobenzene;Trimethyl(<em>p</em>-bromophenoxy)silane;4-Bromo(trimethylsiloxy)benzene;4-Bromophenyl trimethylsilyl ether;(4-Bromophenoxy)trimethylsilane;NSC 96824;1-Bromo-4-trimethylsilyloxybenzene",
    "duplicated_cas_no": "",
    "SMILES": "O([Si](C)(C)C)C1=CC=C(Br)C=C1",
    "meta_data": {
        "InChI": "InChI=1S/C9H13BrOSi/c1-12(2,3)11-9-6-4-8(10)5-7-9/h4-7H,1-3H3",
        "InChIKey": null,
        "Canonical SMILES": "BrC1=CC=C(O[Si](C)(C)C)C=C1",
        "Molecular Formula": "C<sub>9</sub>H<sub>13</sub>BrOSi",
        "Molecular Mass": "245.19",
        "Boiling Point": "122 °C @ Press: 20 Torr",
        "Density": "1.2619 g/cm³ @ Temp: 20 °C"
    }
}