{
    "cas_no": "20719-68-0",
    "key_name": "1-Methoxy-2-methyl-2-propanamine",
    "cn_name": null,
    "alternate_name": "2-Propanamine, 1-methoxy-2-methyl-;Ethylamine, 2-methoxy-1,1-dimethyl-;1-Methoxy-2-methyl-2-propanamine;1,1-Dimethyl-2-methoxyethylamine;2-Methoxy-1,1-dimethylethylamine;1-Methoxy-2-amino-2-methylpropane;2-Amino-2-methyl-1-methoxypropane",
    "duplicated_cas_no": "",
    "SMILES": "C(C(C)(C)N)OC",
    "meta_data": {
        "InChI": "InChI=1S/C5H13NO/c1-5(2,6)4-7-3/h4,6H2,1-3H3",
        "InChIKey": null,
        "Canonical SMILES": "O(C)CC(N)(C)C",
        "Molecular Formula": "C<sub>5</sub>H<sub>13</sub>NO",
        "Molecular Mass": "103.16",
        "Boiling Point": "101 °C @ Press: 744 Torr"
    }
}