{
    "cas_no": "5369-16-4",
    "key_name": "3-(1-Methylethyl)benzenamine",
    "cn_name": "间异丙基苯胺;",
    "alternate_name": "Benzenamine, 3-(1-methylethyl)-;Aniline, <em>m</em>-isopropyl-;3-(1-Methylethyl)benzenamine;<em>m</em>-Cumidine;<em>m</em>-Isopropylaniline;3-Isopropylaniline;3-Cumidine;<em>m</em>-Aminocumene;3-Isopropylphenylamine;3-(1-Methylethyl)aniline;3-Isopropylbenzenamine;3-(Propan-2-yl)aniline",
    "duplicated_cas_no": "",
    "SMILES": "C(C)(C)C1=CC(N)=CC=C1",
    "meta_data": {
        "InChI": "InChI=1S/C9H13N/c1-7(2)8-4-3-5-9(10)6-8/h3-7H,10H2,1-2H3",
        "InChIKey": null,
        "Canonical SMILES": "NC1=CC=CC(=C1)C(C)C",
        "Molecular Formula": "C<sub>9</sub>H<sub>13</sub>N",
        "Molecular Mass": "135.21",
        "Boiling Point": "79-80 °C @ Press: 3 Torr",
        "Density": "0.9534 g/cm³ @ Temp: 25 °C"
    }
}