{
    "cas_no": "1204-86-0",
    "key_name": "4-Morpholinobenzaldehyde",
    "cn_name": "4-(4-吗啉)苯甲醛;",
    "alternate_name": "Benzaldehyde, 4-(4-morpholinyl)-;Benzaldehyde, <em>p</em>-morpholino-;4-(4-Morpholinyl)benzaldehyde;4-Morpholinobenzaldehyde;<em>p</em>-Morpholinobenzaldehyde;<em>N</em>-(4-Formylphenyl)morpholine;NSC 156543",
    "duplicated_cas_no": "",
    "SMILES": "C(=O)C1=CC=C(C=C1)N2CCOCC2",
    "meta_data": {
        "InChI": "InChI=1S/C11H13NO2/c13-9-10-1-3-11(4-2-10)12-5-7-14-8-6-12/h1-4,9H,5-8H2",
        "InChIKey": null,
        "Canonical SMILES": "O=CC1=CC=C(C=C1)N2CCOCC2",
        "Molecular Formula": "C<sub>11</sub>H<sub>13</sub>NO<sub>2</sub>",
        "Molecular Mass": "191.23",
        "Melting Point": "63 °C"
    }
}