{
    "cas_no": "38185-55-6",
    "key_name": "5-Bromo-3-chloropyridin-2-amine",
    "cn_name": null,
    "alternate_name": "2-Pyridinamine, 5-bromo-3-chloro-;5-Bromo-3-chloro-2-pyridinamine;2-Amino-5-bromo-3-chloropyridine;2-Amino-3-chloro-5-bromopyridine;5-Bromo-3-chloropyridin-2-amine",
    "duplicated_cas_no": "",
    "SMILES": "ClC1=C(N)N=CC(Br)=C1",
    "meta_data": {
        "InChI": "InChI=1S/C5H4BrClN2/c6-3-1-4(7)5(8)9-2-3/h1-2H,(H2,8,9)",
        "InChIKey": null,
        "Canonical SMILES": "ClC1=CC(Br)=CN=C1N",
        "Molecular Formula": "C<sub>5</sub>H<sub>4</sub>BrClN<sub>2</sub>",
        "Molecular Mass": "207.46",
        "Melting Point": "97 °C"
    }
}