{
    "cas_no": "100-42-5",
    "key_name": "Styrene",
    "cn_name": "苯乙烯;苏合香烯;乙烯苯;乙烯基苯;",
    "alternate_name": "Benzene, ethenyl-;Styrene;Ethenylbenzene;Cinnamene;Phenethylene;Phenylethene;Phenylethylene;Styrol;Styrole;Styrolene;Vinylbenzene;Vinylbenzol;Styropol SO;NSC 62785;TTB 7302;Maomin SM;S 0095;STC;BYX 6;EM 50;M 00247;S 4972;MeSH ID: D020058",
    "duplicated_cas_no": "79637-11-9;1161074-30-1;1198090-46-8;1453489-93-4;1646200-96-5;2015955-51-6;2351150-23-5;2576469-81-1;2706608-32-2",
    "SMILES": "C(=C)C1=CC=CC=C1",
    "meta_data": {
        "InChI": "InChI=1S/C8H8/c1-2-8-6-4-3-5-7-8/h2-7H,1H2",
        "InChIKey": null,
        "Canonical SMILES": "C=CC=1C=CC=CC1",
        "Molecular Formula": "C<sub>8</sub>H<sub>8</sub>",
        "Molecular Mass": "104.15",
        "Boiling Point": "145 °C",
        "Melting Point": "-31 °C",
        "Density": "0.9060 g/cm³ @ Temp: 20 °C"
    }
}