{
    "cas_no": "76-32-4",
    "key_name": "1,8,8-Trimethyl-3-oxabicyclo[3.2.1]octane-2,4-dione",
    "cn_name": "(±)-樟脑酸酐;",
    "alternate_name": "3-Oxabicyclo[3.2.1]octane-2,4-dione, 1,8,8-trimethyl-;Camphoric anhydride;1,8,8-Trimethyl-3-oxabicyclo[3.2.1]octane-2,4-dione;(±)-Camphoric anhydride;<em>dl</em>-Camphoric anhydride;<span class=\"text-smallcaps\">DL</span>-Camphoric anhydride;NSC 4559;NSC 60293;NSC 657821",
    "duplicated_cas_no": "595-30-2;1195133-08-4;1657013-38-1",
    "SMILES": "CC12C(C)(C)C(CC1)C(=O)OC2=O",
    "meta_data": {
        "InChI": "InChI=1S/C10H14O3/c1-9(2)6-4-5-10(9,3)8(12)13-7(6)11/h6H,4-5H2,1-3H3",
        "InChIKey": null,
        "Canonical SMILES": "O=C1OC(=O)C2(C)CCC1C2(C)C",
        "Molecular Formula": "C<sub>10</sub>H<sub>14</sub>O<sub>3</sub>",
        "Molecular Mass": "182.22",
        "Melting Point": "218-219 °C"
    }
}