{
    "cas_no": "387-46-2",
    "key_name": "2,6-Dihydroxybenzaldehyde",
    "cn_name": "2,6-二羟基苯甲醛;",
    "alternate_name": "Benzaldehyde, 2,6-dihydroxy-;γ-Resorcylaldehyde;2,6-Dihydroxybenzaldehyde;Ranjal;6-Hydroxysalicylaldehyde",
    "duplicated_cas_no": "2938895-14-6",
    "SMILES": "C(=O)C1=C(O)C=CC=C1O",
    "meta_data": {
        "InChI": "InChI=1S/C7H6O3/c8-4-5-6(9)2-1-3-7(5)10/h1-4,9-10H",
        "InChIKey": null,
        "Canonical SMILES": "O=CC=1C(O)=CC=CC1O",
        "Molecular Formula": "C<sub>7</sub>H<sub>6</sub>O<sub>3</sub>",
        "Molecular Mass": "138.12",
        "Boiling Point": "122 °C @ Press: 15 Torr",
        "Melting Point": "154-155 °C"
    }
}