{
    "cas_no": "2923-16-2",
    "key_name": "Acetic acid, 2,2,2-trifluoro-, potassium salt (1:1)",
    "cn_name": "三氟乙酸钾;2,2,2-三氟乙酸钾;",
    "alternate_name": "Acetic acid, 2,2,2-trifluoro-, potassium salt (1:1);Acetic acid, trifluoro-, potassium salt;Potassium trifluoroacetate",
    "duplicated_cas_no": "",
    "SMILES": "C(C(O)=O)(F)(F)F.[K]",
    "meta_data": {
        "InChI": "InChI=1S/C2HF3O2.K/c3-2(4,5)1(6)7;/h(H,6,7);",
        "InChIKey": null,
        "Canonical SMILES": "[K].O=C(O)C(F)(F)F",
        "Molecular Formula": "C<sub>2</sub>HF<sub>3</sub>O<sub>2</sub>.K",
        "Molecular Mass": "",
        "Melting Point": "143-145 °C",
        "Density": "2.433 g/cm³"
    }
}