{
    "cas_no": "2570-26-5",
    "key_name": "Pentadecylamine",
    "cn_name": "正十五胺;",
    "alternate_name": "1-Pentadecanamine;Pentadecylamine;<em>n</em>-Pentadecylamine;1-Pentadecylamine;Monopentadecylamine;1-Aminopentadecane",
    "duplicated_cas_no": "",
    "SMILES": "C(CCCCCCCN)CCCCCCC",
    "meta_data": {
        "InChI": "InChI=1S/C15H33N/c1-2-3-4-5-6-7-8-9-10-11-12-13-14-15-16/h2-16H2,1H3",
        "InChIKey": null,
        "Canonical SMILES": "NCCCCCCCCCCCCCCC",
        "Molecular Formula": "C<sub>15</sub>H<sub>33</sub>N",
        "Molecular Mass": "227.43",
        "Boiling Point": "307.6 °C",
        "Melting Point": "37.3 °C"
    }
}