{
    "cas_no": "367-31-7",
    "key_name": "4-Fluoro-1,2-phenylenediamine",
    "cn_name": null,
    "alternate_name": "1,2-Benzenediamine, 4-fluoro-;<em>o</em>-Phenylenediamine, 4-fluoro-;4-Fluoro-1,2-benzenediamine;4-Fluoro-<em>o</em>-phenylenediamine;4-Fluoro-1,2-phenylenediamine;1,2-Diamino-4-fluorobenzene;4-Fluoro-1,2-diaminobenzene;2-Amino-5-fluoroaniline;5-Fluoro-1,2-diaminobenzene;3,4-Diamino-1-fluorobenzene;(4-Fluorophenyl)-1,2-diamine;5-Fluorobenzene-1,2-diamine",
    "duplicated_cas_no": "",
    "SMILES": "NC1=C(N)C=CC(F)=C1",
    "meta_data": {
        "InChI": "InChI=1S/C6H7FN2/c7-4-1-2-5(8)6(9)3-4/h1-3H,8-9H2",
        "InChIKey": null,
        "Canonical SMILES": "FC1=CC=C(N)C(N)=C1",
        "Molecular Formula": "C<sub>6</sub>H<sub>7</sub>FN<sub>2</sub>",
        "Molecular Mass": "126.13",
        "Melting Point": "88-89 °C"
    }
}