{
    "cas_no": "21427-62-3",
    "key_name": "2,5-Dichloro-3-nitropyridine",
    "cn_name": "2,5-二氯-3-硝基吡啶;",
    "alternate_name": "Pyridine, 2,5-dichloro-3-nitro-;2,5-Dichloro-3-nitropyridine;3-Nitro-2,5-dichloropyridine",
    "duplicated_cas_no": "",
    "SMILES": "N(=O)(=O)C1=C(Cl)N=CC(Cl)=C1",
    "meta_data": {
        "InChI": "InChI=1S/C5H2Cl2N2O2/c6-3-1-4(9(10)11)5(7)8-2-3/h1-2H",
        "InChIKey": null,
        "Canonical SMILES": "O=N(=O)C1=CC(Cl)=CN=C1Cl",
        "Molecular Formula": "C<sub>5</sub>H<sub>2</sub>Cl<sub>2</sub>N<sub>2</sub>O<sub>2</sub>",
        "Molecular Mass": "192.99",
        "Melting Point": "110-115 °C"
    }
}