{
    "cas_no": "99-96-7",
    "key_name": "4-Hydroxybenzoic acid",
    "cn_name": "对羟基苯甲酸;4-羟基苯甲酸;",
    "alternate_name": "Benzoic acid, 4-hydroxy-;Benzoic acid, <em>p</em>-hydroxy-;4-Hydroxybenzoic acid;<em>p</em>-Hydroxybenzoic acid;<em>p</em>-Salicylic acid;4-Carboxyphenol;Paraben-acid;<em>p</em>-Carboxyphenol;NSC 4961;<em>p</em>-Hydroxyl benzoic acid",
    "duplicated_cas_no": "",
    "SMILES": "C(O)(=O)C1=CC=C(O)C=C1",
    "meta_data": {
        "InChI": "InChI=1S/C7H6O3/c8-6-3-1-5(2-4-6)7(9)10/h1-4,8H,(H,9,10)",
        "InChIKey": null,
        "Canonical SMILES": "O=C(O)C1=CC=C(O)C=C1",
        "Molecular Formula": "C<sub>7</sub>H<sub>6</sub>O<sub>3</sub>",
        "Molecular Mass": "138.12",
        "Melting Point": "214.5 °C",
        "Density": "1.46 g/cm³ @ Temp: 25 °C"
    }
}