{
    "cas_no": "20462-00-4",
    "key_name": "Ethyl 1,3-dithiane-2-carboxylate",
    "cn_name": null,
    "alternate_name": "1,3-Dithiane-2-carboxylic acid, ethyl ester;<em>m</em>-Dithiane-2-carboxylic acid, ethyl ester;Ethyl 1,3-dithiane-2-carboxylate;2-(Ethoxycarbonyl)-1,3-dithiane",
    "duplicated_cas_no": "",
    "SMILES": "C(OCC)(=O)C1SCCCS1",
    "meta_data": {
        "InChI": "InChI=1S/C7H12O2S2/c1-2-9-6(8)7-10-4-3-5-11-7/h7H,2-5H2,1H3",
        "InChIKey": null,
        "Canonical SMILES": "O=C(OCC)C1SCCCS1",
        "Molecular Formula": "C<sub>7</sub>H<sub>12</sub>O<sub>2</sub>S<sub>2</sub>",
        "Molecular Mass": "192.30",
        "Boiling Point": "96 °C @ Press: 0.4 Torr"
    }
}