{
    "cas_no": "7250-55-7",
    "key_name": "1,5-Dimethyl 3-hydroxypentanedioate",
    "cn_name": "3-羟基戊二酸二甲酯;",
    "alternate_name": "Pentanedioic acid, 3-hydroxy-, 1,5-dimethyl ester;Glutaric acid, 3-hydroxy-, dimethyl ester;Pentanedioic acid, 3-hydroxy-, dimethyl ester;1,5-Dimethyl 3-hydroxypentanedioate;Dimethyl β-hydroxyglutarate;NSC 30047;3-Hydroxyglutaric acid dimethyl ester;Dimethyl 3-hydroxyglutarate;3-Hydroxypentanedioic acid dimethyl ester;Dimethyl 3-hydroxypentanedioate",
    "duplicated_cas_no": "",
    "SMILES": "C(CC(OC)=O)(CC(OC)=O)O",
    "meta_data": {
        "InChI": "InChI=1S/C7H12O5/c1-11-6(9)3-5(8)4-7(10)12-2/h5,8H,3-4H2,1-2H3",
        "InChIKey": null,
        "Canonical SMILES": "O=C(OC)CC(O)CC(=O)OC",
        "Molecular Formula": "C<sub>7</sub>H<sub>12</sub>O<sub>5</sub>",
        "Molecular Mass": "176.17",
        "Boiling Point": "135-138 °C @ Press: 12.5 Torr"
    }
}