{
    "cas_no": "38514-05-5",
    "key_name": "6-Methyl-1-octanol",
    "cn_name": null,
    "alternate_name": "1-Octanol, 6-methyl-;6-Methyl-1-octanol",
    "duplicated_cas_no": "",
    "SMILES": "C(CCCCCO)(CC)C",
    "meta_data": {
        "InChI": "InChI=1S/C9H20O/c1-3-9(2)7-5-4-6-8-10/h9-10H,3-8H2,1-2H3",
        "InChIKey": null,
        "Canonical SMILES": "OCCCCCC(C)CC",
        "Molecular Formula": "C<sub>9</sub>H<sub>20</sub>O",
        "Molecular Mass": "144.25",
        "Boiling Point": "100 °C @ Press: 20 Torr",
        "Density": "0.828 g/cm³ @ Temp: 24 °C"
    }
}