{
    "cas_no": "13093-87-3",
    "key_name": "Benzylpenillic acid",
    "cn_name": null,
    "alternate_name": "Imidazo[5,1-<em>b</em>]thiazole-3,7-dicarboxylic acid, 2,3,7,7a-tetrahydro-2,2-dimethyl-5-(phenylmethyl)-;Imidazo[5,1-<em>b</em>]thiazole-3,7-dicarboxylic acid, 5-benzyl-2,3,7,7a-tetrahydro-2,2-dimethyl-;2,3,7,7a-Tetrahydro-2,2-dimethyl-5-(phenylmethyl)imidazo[5,1-<em>b</em>]thiazole-3,7-dicarboxylic acid;Benzylpenillic acid;NSC 76064",
    "duplicated_cas_no": "4302-64-1",
    "SMILES": "C(O)(=O)C1N2C(C(C(O)=O)N=C2CC3=CC=CC=C3)SC1(C)C",
    "meta_data": {
        "InChI": "InChI=1S/C16H18N2O4S/c1-16(2)12(15(21)22)18-10(8-9-6-4-3-5-7-9)17-11(14(19)20)13(18)23-16/h3-7,11-13H,8H2,1-2H3,(H,19,20)(H,21,22)",
        "InChIKey": null,
        "Canonical SMILES": "O=C(O)C1N=C(N2C1SC(C)(C)C2C(=O)O)CC=3C=CC=CC3",
        "Molecular Formula": "C<sub>16</sub>H<sub>18</sub>N<sub>2</sub>O<sub>4</sub>S",
        "Molecular Mass": "334.39",
        "Melting Point": "180-182 °C"
    }
}