{
    "cas_no": "36267-71-7",
    "key_name": "2-Methyl-5,7-dihydrothieno[3,4-<em>d</em>]pyrimidine",
    "cn_name": "2-甲基-5,7-二氢噻吩并[3,4-d]嘧啶;5,7-二氢-2-甲基噻吩并[3,4-d]嘧啶;",
    "alternate_name": "Thieno[3,4-<em>d</em>]pyrimidine, 5,7-dihydro-2-methyl-;5,7-Dihydro-2-methylthieno[3,4-<em>d</em>]pyrimidine;2-Methyl-5,7-dihydrothieno[3,4-<em>d</em>]pyrimidine;2-Methyl-5<em>H</em>,7<em>H</em>-thieno[3,4-<em>d</em>]pyrimidine",
    "duplicated_cas_no": "",
    "SMILES": "CC=1N=C2C(=CN1)CSC2",
    "meta_data": {
        "InChI": "InChI=1S/C7H8N2S/c1-5-8-2-6-3-10-4-7(6)9-5/h2H,3-4H2,1H3",
        "InChIKey": null,
        "Canonical SMILES": "N=1C=C2C(=NC1C)CSC2",
        "Molecular Formula": "C<sub>7</sub>H<sub>8</sub>N<sub>2</sub>S",
        "Molecular Mass": "152.22",
        "Melting Point": "64.5-65 °C"
    }
}