{
    "cas_no": "1780-19-4",
    "key_name": "2-Methyl-1,2,3,4-tetrahydroquinoline",
    "cn_name": "1,2,3,4-四氢-2-甲基喹啉;",
    "alternate_name": "Quinoline, 1,2,3,4-tetrahydro-2-methyl-;Quinaldine, 1,2,3,4-tetrahydro-;1,2,3,4-Tetrahydro-2-methylquinoline;2-Methyl-1,2,3,4-tetrahydroquinoline;1,2,3,4-Tetrahydroquinaldine;NSC 65607",
    "duplicated_cas_no": "74497-74-8",
    "SMILES": "CC1NC=2C(CC1)=CC=CC2",
    "meta_data": {
        "InChI": "InChI=1S/C10H13N/c1-8-6-7-9-4-2-3-5-10(9)11-8/h2-5,8,11H,6-7H2,1H3",
        "InChIKey": null,
        "Canonical SMILES": "C=1C=CC2=C(C1)NC(C)CC2",
        "Molecular Formula": "C<sub>10</sub>H<sub>13</sub>N",
        "Molecular Mass": "147.22",
        "Boiling Point": "125 °C @ Press: 17 Torr"
    }
}