{
    "cas_no": "57076-71-8",
    "key_name": "Denbufylline",
    "cn_name": "旦布菲林;",
    "alternate_name": "1<em>H</em>-Purine-2,6-dione, 1,3-dibutyl-3,7-dihydro-7-(2-oxopropyl)-;1,3-Dibutyl-3,7-dihydro-7-(2-oxopropyl)-1<em>H</em>-purine-2,6-dione;BRL 30892;Denbufylline;Denbutylline;Denbutyline",
    "duplicated_cas_no": "",
    "SMILES": "C(C(C)=O)N1C2=C(N(CCCC)C(=O)N(CCCC)C2=O)N=C1",
    "meta_data": {
        "InChI": "InChI=1S/C16H24N4O3/c1-4-6-8-19-14-13(18(11-17-14)10-12(3)21)15(22)20(16(19)23)9-7-5-2/h11H,4-10H2,1-3H3",
        "InChIKey": null,
        "Canonical SMILES": "O=C1C2=C(N=CN2CC(=O)C)N(C(=O)N1CCCC)CCCC",
        "Molecular Formula": "C<sub>16</sub>H<sub>24</sub>N<sub>4</sub>O<sub>3</sub>",
        "Molecular Mass": "320.39",
        "Melting Point": "100.5 °C"
    }
}