{
    "cas_no": "2459-05-4",
    "key_name": "Monoethyl fumarate",
    "cn_name": "富马酸单乙酯;",
    "alternate_name": "2-Butenedioic acid (2<em>E</em>)-, 1-ethyl ester;Fumaric acid, monoethyl ester;2-Butenedioic acid (<em>E</em>)-, monoethyl ester;Fumaric acid, ethyl ester;2-Butenedioic acid (2<em>E</em>)-, monoethyl ester;Ethyl hydrogen fumarate;Monoethyl fumarate;Monoethyl <em>trans</em>-2-butenedioate;(<em>E</em>)-4-Ethoxy-4-oxo-2-butenoic acid;(E)-4-Ethoxy-4-oxobut-2-enoic acid",
    "duplicated_cas_no": "",
    "SMILES": "C(/C=C/C(O)=O)(OCC)=O",
    "meta_data": {
        "InChI": "InChI=1S/C6H8O4/c1-2-10-6(9)4-3-5(7)8/h3-4H,2H2,1H3,(H,7,8)/b4-3+",
        "InChIKey": null,
        "Canonical SMILES": "O=C(O)C=CC(=O)OCC",
        "Molecular Formula": "C<sub>6</sub>H<sub>8</sub>O<sub>4</sub>",
        "Molecular Mass": "144.13",
        "Boiling Point": "146-149 °C @ Press: 18 Torr",
        "Melting Point": "70 °C",
        "Density": "1.43818 g/cm³ @ Temp: 87.0 °C"
    }
}