{
    "cas_no": "51581-32-9",
    "key_name": "Norpyridostigmine",
    "cn_name": "3-(N,N-二甲氨基甲酰氧基)吡啶;",
    "alternate_name": "Carbamic acid, <em>N</em>,<em>N</em>-dimethyl-, 3-pyridinyl ester;Carbamic acid, dimethyl-, 3-pyridinyl ester;Carbamic acid, dimethyl-, 3-pyridyl ester;Ro 1-5142;Norpyridostigmine;3-(Dimethylcarbamoyloxy)pyridine;NSC 168373;Pyridin-3-yl dimethylcarbamate",
    "duplicated_cas_no": "",
    "SMILES": "O(C(N(C)C)=O)C=1C=CC=NC1",
    "meta_data": {
        "InChI": "InChI=1S/C8H10N2O2/c1-10(2)8(11)12-7-4-3-5-9-6-7/h3-6H,1-2H3",
        "InChIKey": null,
        "Canonical SMILES": "O=C(OC=1C=NC=CC1)N(C)C",
        "Molecular Formula": "C<sub>8</sub>H<sub>10</sub>N<sub>2</sub>O<sub>2</sub>",
        "Molecular Mass": "166.18",
        "Boiling Point": "149 °C @ Press: 15 Torr"
    }
}