{
    "cas_no": "3349-60-8",
    "key_name": "2,3-Dihydro-1<em>H</em>-inden-1-one oxime",
    "cn_name": null,
    "alternate_name": "1<em>H</em>-Inden-1-one, 2,3-dihydro-, oxime;1-Indanone, oxime;2,3-Dihydro-1<em>H</em>-inden-1-one oxime;NSC 186236",
    "duplicated_cas_no": "2768026-89-5",
    "SMILES": "N(O)=C1C=2C(CC1)=CC=CC2",
    "meta_data": {
        "InChI": "InChI=1S/C9H9NO/c11-10-9-6-5-7-3-1-2-4-8(7)9/h1-4,11H,5-6H2",
        "InChIKey": null,
        "Canonical SMILES": "ON=C1C=2C=CC=CC2CC1",
        "Molecular Formula": "C<sub>9</sub>H<sub>9</sub>NO",
        "Molecular Mass": "147.17",
        "Melting Point": "145-146 °C"
    }
}