{
    "cas_no": "16629-19-9",
    "key_name": "2-Thiophenesulfonyl chloride",
    "cn_name": "2-噻吩磺酰氯;噻吩-2-磺酰氯;",
    "alternate_name": "2-Thiophenesulfonyl chloride;2-Thienylsulfonyl chloride;2-(Chlorosulfonyl)thiophene",
    "duplicated_cas_no": "",
    "SMILES": "S(Cl)(=O)(=O)C1=CC=CS1",
    "meta_data": {
        "InChI": "InChI=1S/C4H3ClO2S2/c5-9(6,7)4-2-1-3-8-4/h1-3H",
        "InChIKey": null,
        "Canonical SMILES": "O=S(=O)(Cl)C=1SC=CC1",
        "Molecular Formula": "C<sub>4</sub>H<sub>3</sub>ClO<sub>2</sub>S<sub>2</sub>",
        "Molecular Mass": "182.65",
        "Boiling Point": "123-125 °C",
        "Melting Point": "28 °C"
    }
}