{
    "cas_no": "7789-80-2",
    "key_name": "Calcium iodate",
    "cn_name": "碘酸钙;",
    "alternate_name": "Iodic acid (HIO<sub>3</sub>), calcium salt (2:1);Calcium iodate (Ca(IO<sub>3</sub>)<sub>2</sub>);Iodic acid (HIO<sub>3</sub>), calcium salt;Iodic acid, calcium salt;Calcium iodate;Laurarite",
    "duplicated_cas_no": "40563-56-2",
    "SMILES": "I(=O)(=O)O.[Ca]",
    "meta_data": {
        "InChI": "InChI=1S/Ca.HIO3/c;2-1(3)4/h;(H,2,3,4)",
        "InChIKey": null,
        "Canonical SMILES": "[Ca].O=I(=O)O",
        "Molecular Formula": "Ca.2HIO<sub>3</sub>",
        "Molecular Mass": "",
        "Melting Point": "540 °C (decomp)",
        "Density": "4.519 g/cm³ @ Temp: 15 °C"
    }
}