{
    "cas_no": "10406-25-4",
    "key_name": "4-Cyanobenzylamine",
    "cn_name": "4-氰基苯甲胺;4-(氨基甲基)苯腈;",
    "alternate_name": "Benzonitrile, 4-(aminomethyl)-;<em>p</em>-Tolunitrile, α-amino-;4-(Aminomethyl)benzonitrile;<em>p</em>-Cyanobenzylamine;4-Cyanobenzylamine;<em>p</em>-Cyanophenylmethylamine;α-Amino-<em>p</em>-tolunitrile;(4-Cyanophenyl)methanamine",
    "duplicated_cas_no": "",
    "SMILES": "C(N)C1=CC=C(C#N)C=C1",
    "meta_data": {
        "InChI": "InChI=1S/C8H8N2/c9-5-7-1-2-8(6-10)4-3-7/h1-4H,5,9H2",
        "InChIKey": null,
        "Canonical SMILES": "N#CC1=CC=C(C=C1)CN",
        "Molecular Formula": "C<sub>8</sub>H<sub>8</sub>N<sub>2</sub>",
        "Molecular Mass": "132.16",
        "Boiling Point": "92 °C @ Press: 5 Torr",
        "Melting Point": "19 °C",
        "Density": "0.9406 g/cm³ @ Temp: 20 °C"
    }
}