{
    "cas_no": "71987-67-2",
    "key_name": "(5-Fluoro-2-methyl-1<em>H</em>-indol-3-yl)acetic acid",
    "cn_name": null,
    "alternate_name": "1<em>H</em>-Indole-3-acetic acid, 5-fluoro-2-methyl-;5-Fluoro-2-methyl-1<em>H</em>-indole-3-acetic acid;5-Fluoro-2-methyl-3-indoleacetic acid;SR 036;(5-Fluoro-2-methyl-1<em>H</em>-indol-3-yl)acetic acid;2-(5-Fluoro-2-methyl-1<em>H</em>-indol-3-yl)acetic acid",
    "duplicated_cas_no": "",
    "SMILES": "C(C(O)=O)C=1C=2C(NC1C)=CC=C(F)C2",
    "meta_data": {
        "InChI": "InChI=1S/C11H10FNO2/c1-6-8(5-11(14)15)9-4-7(12)2-3-10(9)13-6/h2-4,13H,5H2,1H3,(H,14,15)",
        "InChIKey": null,
        "Canonical SMILES": "O=C(O)CC=1C=2C=C(F)C=CC2NC1C",
        "Molecular Formula": "C<sub>11</sub>H<sub>10</sub>FNO<sub>2</sub>",
        "Molecular Mass": "207.20",
        "Melting Point": "179-182 °C"
    }
}