{
    "cas_no": "16273-37-3",
    "key_name": "3-Chloromandelic acid",
    "cn_name": "间氯扁桃酸;2-(3-氯苯基)-2-羟基乙酸;",
    "alternate_name": "Benzeneacetic acid, 3-chloro-α-hydroxy-;Mandelic acid, <em>m</em>-chloro-;3-Chloro-α-hydroxybenzeneacetic acid;3-Chloromandelic acid;<em>m</em>-Chloromandelic acid;(±)-<em>m</em>-Chloromandelic acid;NSC 126599;2-(3-Chlorophenyl)-2-(hydroxy)acetic acid;(3-Chlorophenyl)hydroxyacetic acid;3-Chlorophenyl-2-hydroxyacetic acid",
    "duplicated_cas_no": "52950-16-0",
    "SMILES": "C(C(O)=O)(O)C1=CC(Cl)=CC=C1",
    "meta_data": {
        "InChI": "InChI=1S/C8H7ClO3/c9-6-3-1-2-5(4-6)7(10)8(11)12/h1-4,7,10H,(H,11,12)",
        "InChIKey": null,
        "Canonical SMILES": "O=C(O)C(O)C=1C=CC=C(Cl)C1",
        "Molecular Formula": "C<sub>8</sub>H<sub>7</sub>ClO<sub>3</sub>",
        "Molecular Mass": "186.59",
        "Melting Point": "115-115.5 °C"
    }
}