{
    "cas_no": "100324-81-0",
    "key_name": "Lisofylline",
    "cn_name": null,
    "alternate_name": "1<em>H</em>-Purine-2,6-dione, 3,7-dihydro-1-[(5<em>R</em>)-5-hydroxyhexyl]-3,7-dimethyl-;1<em>H</em>-Purine-2,6-dione, 3,7-dihydro-1-(5-hydroxyhexyl)-3,7-dimethyl-, (<em>R</em>)-;3,7-Dihydro-1-[(5<em>R</em>)-5-hydroxyhexyl]-3,7-dimethyl-1<em>H</em>-purine-2,6-dione;Lisofylline;CT 1501R;ProTec;Lisophylline;(<em>R</em>)-1-(5-Hydroxyhexyl)-3,7-dimethyl-1<em>H</em>-purine-2,6(3<em>H</em>,7<em>H</em>)-dione;(<em>R</em>)-Lisofylline;(<em>R</em>)-Lisophylline",
    "duplicated_cas_no": "",
    "SMILES": "O=C1C2=C(N(C)C(=O)N1CCCC[C@@H](C)O)N=CN2C",
    "meta_data": {
        "InChI": "InChI=1S/C13H20N4O3/c1-9(18)6-4-5-7-17-12(19)10-11(14-8-15(10)2)16(3)13(17)20/h8-9,18H,4-7H2,1-3H3/t9-/m1/s1",
        "InChIKey": null,
        "Canonical SMILES": "O=C1C2=C(N=CN2C)N(C(=O)N1CCCCC(O)C)C",
        "Molecular Formula": "C<sub>13</sub>H<sub>20</sub>N<sub>4</sub>O<sub>3</sub>",
        "Molecular Mass": "280.32",
        "Melting Point": "123-125 °C"
    }
}