{
    "cas_no": "1519-47-7",
    "key_name": "1,4-Xylylenebis(triphenylphosphonium chloride)",
    "cn_name": "对二亚甲苯双(氯化三苯基膦);对亚二甲苯双(氯化三苯基膦);",
    "alternate_name": "Phosphonium, 1,1′-[1,4-phenylenebis(methylene)]bis[1,1,1-triphenyl-, chloride (1:2);Phosphonium, (<em>p</em>-phenylenedimethylene)bis[triphenyl-, dichloride;Phosphonium, [1,4-phenylenebis(methylene)]bis[triphenyl-, dichloride;(<em>p</em>-Phenylenedimethylene)bis[triphenylphosphonium chloride];<em>p</em>-Xylylene bis(triphenylphosphonium chloride);<em>p</em>-Xylylenebis(triphenylphosphonium) dichloride;1,4-Bis(triphenylphosphonium)-<em>p</em>-xylene dichloride;1,4-Xylylenebis(triphenylphosphonium chloride);NSC 64113;(1,4-Phenylenebis(methylene))bis(triphenylphosphonium) chloride",
    "duplicated_cas_no": "130547-46-5;150998-51-9",
    "SMILES": "[P+](CC1=CC=C(C[P+](C2=CC=CC=C2)(C3=CC=CC=C3)C4=CC=CC=C4)C=C1)(C5=CC=CC=C5)(C6=CC=CC=C6)C7=CC=CC=C7.[Cl-]",
    "meta_data": {
        "InChI": "InChI=1S/C44H38P2.2ClH/c1-7-19-39(20-8-1)45(40-21-9-2-10-22-40,41-23-11-3-12-24-41)35-37-31-33-38(34-32-37)36-46(42-25-13-4-14-26-42,43-27-15-5-16-28-43)44-29-17-6-18-30-44;;/h1-34H,35-36H2;2*1H/q+2;;/p-2",
        "InChIKey": null,
        "Canonical SMILES": "[Cl-].C=1C=CC(=CC1)[P+](C=2C=CC=CC2)(C=3C=CC=CC3)CC4=CC=C(C=C4)C[P+](C=5C=CC=CC5)(C=6C=CC=CC6)C=7C=CC=CC7",
        "Molecular Formula": "C<sub>44</sub>H<sub>38</sub>P<sub>2</sub>.2Cl",
        "Molecular Mass": "",
        "Melting Point": "&gt;400 °C"
    }
}