{
    "cas_no": "94-20-2",
    "key_name": "Chlorpropamide",
    "cn_name": "氯磺丙脲;",
    "alternate_name": "Benzenesulfonamide, 4-chloro-<em>N</em>-[(propylamino)carbonyl]-;Urea, 1-[(<em>p</em>-chlorophenyl)sulfonyl]-3-propyl-;4-Chloro-<em>N</em>-[(propylamino)carbonyl]benzenesulfonamide;P 607;Catanil;<em>N</em>-(<em>p</em>-Chlorobenzenesulfonyl)-<em>N</em>′-propylurea;1-(<em>p</em>-Chlorobenzenesulfonyl)-3-propylurea;1-(<em>p</em>-Chlorophenylsulfonyl)-3-propylurea;Chloropropamide;Chlorpropamide;Diabenese;Diabinese;<em>N</em>-Propyl-<em>N</em>′-(<em>p</em>-chlorobenzenesulfonyl)urea;1-Propyl-3-(<em>p</em>-chlorobenzenesulfonyl)urea;<em>N</em>-Propyl-<em>N</em>′-<em>p</em>-chlorphenylsulfonylcarbamide;<em>N</em>-(4-Chlorophenylsulfonyl)-<em>N</em>′-propylurea;Chlorpropamid;Diabeneza;Diabaril;U 9818;Glisema;Chloronase;Meldian;Chlorodiabina;Diabetoral;Diabet-Pages;Diabenal;Melitase;Adiaben;Diabechlor;Millinese;Asucrol;Stabinol;NSC 44634;NSC 626720;Pamidin;1-(4-Chlorophenyl)sulfonyl-3-propyl-urea;1-(4-Chlorophenyl)sulfonyl-3-propylurea;1-(4-Chloro-benzenesulfonyl)-3-<em>n</em>-propyl-urea;4-Chloro-<em>N</em>-(propylcarbamoyl)benzenesulfonamide;MeSH ID: D002747",
    "duplicated_cas_no": "360-19-0;856615-17-3",
    "SMILES": "S(NC(NCCC)=O)(=O)(=O)C1=CC=C(Cl)C=C1",
    "meta_data": {
        "InChI": "InChI=1S/C10H13ClN2O3S/c1-2-7-12-10(14)13-17(15,16)9-5-3-8(11)4-6-9/h3-6H,2,7H2,1H3,(H2,12,13,14)",
        "InChIKey": null,
        "Canonical SMILES": "O=C(NCCC)NS(=O)(=O)C1=CC=C(Cl)C=C1",
        "Molecular Formula": "C<sub>10</sub>H<sub>13</sub>ClN<sub>2</sub>O<sub>3</sub>S",
        "Molecular Mass": "276.74",
        "Melting Point": "127-129 °C"
    }
}