{
    "cas_no": "400-38-4",
    "key_name": "Isopropyl trifluoroacetate",
    "cn_name": "三氟乙酰异丙酯;",
    "alternate_name": "Acetic acid, 2,2,2-trifluoro-, 1-methylethyl ester;Acetic acid, trifluoro-, isopropyl ester;Acetic acid, trifluoro-, 1-methylethyl ester;Isopropyl trifluoroacetate;Trifluoroacetic acid isopropyl ester",
    "duplicated_cas_no": "",
    "SMILES": "C(OC(C)C)(C(F)(F)F)=O",
    "meta_data": {
        "InChI": "InChI=1S/C5H7F3O2/c1-3(2)10-4(9)5(6,7)8/h3H,1-2H3",
        "InChIKey": null,
        "Canonical SMILES": "O=C(OC(C)C)C(F)(F)F",
        "Molecular Formula": "C<sub>5</sub>H<sub>7</sub>F<sub>3</sub>O<sub>2</sub>",
        "Molecular Mass": "156.10",
        "Boiling Point": "73.5 °C",
        "Density": "1.077 g/cm³ @ Temp: 25 °C"
    }
}