{
    "cas_no": "22459-81-0",
    "key_name": "<em>N</em>-(4-Bromo-3-chlorophenyl)acetamide",
    "cn_name": "4-溴-3-氯乙酰苯胺;",
    "alternate_name": "Acetamide, <em>N</em>-(4-bromo-3-chlorophenyl)-;Acetanilide, 4′-bromo-3′-chloro-;<em>N</em>-(4-Bromo-3-chlorophenyl)acetamide;3-Chloro-4-bromoacetanilide;4-Bromo-3-chloroacetanilide",
    "duplicated_cas_no": "",
    "SMILES": "N(C(C)=O)C1=CC(Cl)=C(Br)C=C1",
    "meta_data": {
        "InChI": "InChI=1S/C8H7BrClNO/c1-5(12)11-6-2-3-7(9)8(10)4-6/h2-4H,1H3,(H,11,12)",
        "InChIKey": null,
        "Canonical SMILES": "O=C(NC1=CC=C(Br)C(Cl)=C1)C",
        "Molecular Formula": "C<sub>8</sub>H<sub>7</sub>BrClNO",
        "Molecular Mass": "248.50",
        "Melting Point": "151.400078125 °C"
    }
}