{
    "cas_no": "299-95-6",
    "key_name": "Isoproterenol sulfate",
    "cn_name": "消旋硫酸异丙肾上腺素;硫酸异丙肾上腺素;",
    "alternate_name": "1,2-Benzenediol, 4-[1-hydroxy-2-[(1-methylethyl)amino]ethyl]-, sulfate (2:1);Benzyl alcohol, 3,4-dihydroxy-α-[(isopropylamino)methyl]-, sulfate (2:1) (salt);1,2-Benzenediol, 4-[1-hydroxy-2-[(1-methylethyl)amino]ethyl]-, sulfate (2:1) (salt);1-(3,4-Dihydroxyphenyl)-2-isopropylaminoethanol sulfate (2:1);Isoprenaline sulfate (2:1);Isoproterenol sulfate (2:1);Isopropylnoradrenaline sulfate;Isoproterenol sulfate;Isoprenaline sulfate;<em>N</em>-Isopropylnorepinephrine sulfate;Aleudrin;Novodrin;Medihaler-ISO;Novodrine;<em>dl</em>-α-3,4-Dihydroxyphenyl-β-<em>iso</em>-propylaminoethanol sulfate;<em>dl</em>-Isoprenaline sulfate;(±)-Isoprenaline sulfate;<em>dl</em>-Isoproterenol sulfate;(±)-Isoproterenol sulfate",
    "duplicated_cas_no": "114-45-4;750-95-8",
    "SMILES": "C(CNC(C)C)(O)C1=CC(O)=C(O)C=C1.S(=O)(=O)(O)O",
    "meta_data": {
        "InChI": "InChI=1S/C11H17NO3.H2O4S/c1-7(2)12-6-11(15)8-3-4-9(13)10(14)5-8;1-5(2,3)4/h3-5,7,11-15H,6H2,1-2H3;(H2,1,2,3,4)",
        "InChIKey": null,
        "Canonical SMILES": "O=S(=O)(O)O.OC1=CC=C(C=C1O)C(O)CNC(C)C",
        "Molecular Formula": "C<sub>11</sub>H<sub>17</sub>NO<sub>3</sub>.<sup>1</sup>/<sub>2</sub>H<sub>2</sub>O<sub>4</sub>S",
        "Molecular Mass": "",
        "Melting Point": "180 °C"
    }
}