{
    "cas_no": "16154-72-6",
    "key_name": "3-Chloro-4-(4-methyl-1-piperazinyl)benzenamine",
    "cn_name": null,
    "alternate_name": "Benzenamine, 3-chloro-4-(4-methyl-1-piperazinyl)-;Piperazine, 1-(4-amino-2-chlorophenyl)-4-methyl-;3-Chloro-4-(4-methyl-1-piperazinyl)benzenamine;3-Chloro-4-(4-methyl-1-piperazinyl)aniline;[3-Chloro-4-(4-methylpiperazin-1-yl)phenyl]amine;1-(4-Amino-2-chlorophenyl)-4-methylpiperazine",
    "duplicated_cas_no": "",
    "SMILES": "ClC1=C(N2CCN(C)CC2)C=CC(N)=C1",
    "meta_data": {
        "InChI": "InChI=1S/C11H16ClN3/c1-14-4-6-15(7-5-14)11-3-2-9(13)8-10(11)12/h2-3,8H,4-7,13H2,1H3",
        "InChIKey": null,
        "Canonical SMILES": "ClC1=CC(N)=CC=C1N2CCN(C)CC2",
        "Molecular Formula": "C<sub>11</sub>H<sub>16</sub>ClN<sub>3</sub>",
        "Molecular Mass": "225.72",
        "Melting Point": "141 °C"
    }
}