{
    "cas_no": "1776-30-3",
    "key_name": "2′,4′-Dihydroxychalcone",
    "cn_name": "2\",4\"-二羟查耳酮;",
    "alternate_name": "2-Propen-1-one, 1-(2,4-dihydroxyphenyl)-3-phenyl-;Chalcone, 2′,4′-dihydroxy-;1-(2,4-Dihydroxyphenyl)-3-phenyl-2-propen-1-one;2′,4′-Dihydroxychalcone;NSC 401492",
    "duplicated_cas_no": "",
    "SMILES": "C(C=CC1=CC=CC=C1)(=O)C2=C(O)C=C(O)C=C2",
    "meta_data": {
        "InChI": "InChI=1S/C15H12O3/c16-12-7-8-13(15(18)10-12)14(17)9-6-11-4-2-1-3-5-11/h1-10,16,18H",
        "InChIKey": null,
        "Canonical SMILES": "O=C(C=CC=1C=CC=CC1)C2=CC=C(O)C=C2O",
        "Molecular Formula": "C<sub>15</sub>H<sub>12</sub>O<sub>3</sub>",
        "Molecular Mass": "240.25",
        "Melting Point": "150 °C"
    }
}