{
    "cas_no": "7627-38-5",
    "key_name": "2,4-Dichloro-5-(chloromethyl)pyrimidine",
    "cn_name": null,
    "alternate_name": "Pyrimidine, 2,4-dichloro-5-(chloromethyl)-;2,4-Dichloro-5-(chloromethyl)pyrimidine;2,4-Dichloro-5-chloromethylpyrimidine",
    "duplicated_cas_no": "",
    "SMILES": "C(Cl)C=1C(Cl)=NC(Cl)=NC1",
    "meta_data": {
        "InChI": "InChI=1S/C5H3Cl3N2/c6-1-3-2-9-5(8)10-4(3)7/h2H,1H2",
        "InChIKey": null,
        "Canonical SMILES": "ClC1=NC=C(C(Cl)=N1)CCl",
        "Molecular Formula": "C<sub>5</sub>H<sub>3</sub>Cl<sub>3</sub>N<sub>2</sub>",
        "Molecular Mass": "197.45",
        "Boiling Point": "90-100 °C @ Press: 1 x 10<sup>-3</sup> Torr",
        "Melting Point": "62-63 °C"
    }
}