{
    "cas_no": "39603-24-2",
    "key_name": "5,7-Dimethylisatin",
    "cn_name": "5,7-二甲基靛红;",
    "alternate_name": "1<em>H</em>-Indole-2,3-dione, 5,7-dimethyl-;Isatin, 5,7-dimethyl-;5,7-Dimethyl-1<em>H</em>-indole-2,3-dione;5,7-Dimethylisatin;5,7-Dimethylindoline-2,3-dione;5,7-Dimethyl-2,3-dihydro-2,3-dioxoindole",
    "duplicated_cas_no": "",
    "SMILES": "CC1=C2C(C(=O)C(=O)N2)=CC(C)=C1",
    "meta_data": {
        "InChI": "InChI=1S/C10H9NO2/c1-5-3-6(2)8-7(4-5)9(12)10(13)11-8/h3-4H,1-2H3,(H,11,12,13)",
        "InChIKey": null,
        "Canonical SMILES": "O=C1NC=2C(=CC(=CC2C)C)C1=O",
        "Molecular Formula": "C<sub>10</sub>H<sub>9</sub>NO<sub>2</sub>",
        "Molecular Mass": "175.18",
        "Melting Point": "242 °C"
    }
}