{
    "cas_no": "6575-07-1",
    "key_name": "2-Chloro-6-nitrobenzonitrile",
    "cn_name": "2-氯-6-硝基苯甲腈;",
    "alternate_name": "Benzonitrile, 2-chloro-6-nitro-;2-Chloro-6-nitrobenzonitrile;3-Chloro-2-cyanonitrobenzene;3-Chloro-2-cyano-1-nitrobenzene",
    "duplicated_cas_no": "",
    "SMILES": "C(#N)C1=C(N(=O)=O)C=CC=C1Cl",
    "meta_data": {
        "InChI": "InChI=1S/C7H3ClN2O2/c8-6-2-1-3-7(10(11)12)5(6)4-9/h1-3H",
        "InChIKey": null,
        "Canonical SMILES": "N#CC=1C(Cl)=CC=CC1N(=O)=O",
        "Molecular Formula": "C<sub>7</sub>H<sub>3</sub>ClN<sub>2</sub>O<sub>2</sub>",
        "Molecular Mass": "182.56",
        "Melting Point": "122-123 °C"
    }
}