{
    "cas_no": "35661-39-3",
    "key_name": "<em>N</em>-[(9<em>H</em>-Fluoren-9-ylmethoxy)carbonyl]-<span class=\"text-smallcaps\">L</span>-alanine",
    "cn_name": "N-芴甲氧羰基-L-丙氨酸;FMOC-L-丙氨酸;",
    "alternate_name": "<span class=\"text-smallcaps\">L</span>-Alanine, <em>N</em>-[(9<em>H</em>-fluoren-9-ylmethoxy)carbonyl]-;<em>N</em>-[(9<em>H</em>-Fluoren-9-ylmethoxy)carbonyl]-<span class=\"text-smallcaps\">L</span>-alanine;<em>N</em>-(9-Fluorenylmethoxycarbonyl)alanine;NPC 14688;(9-Fluorenylmethoxycarbonyl)-<span class=\"text-smallcaps\">L</span>-alanine;FMOC-<span class=\"text-smallcaps\">L</span>-alanine;FMOC-Alanine;(<em>S</em>)-<em>N</em>-Fmoc-alanine;NSC 334296;<em>N</em>-9-Fluorenylmethoxycarbonyl-<span class=\"text-smallcaps\">L</span>-alanine;(<em>S</em>)-2-[[[(9<em>H</em>-Fluoren-9-yl)methoxy]carbonyl]amino]propionic acid;(2<em>S</em>)-2-[[[(9<em>H</em>-Fluoren-9-yl)methoxy]carbonyl]amino]propanoic acid;(2S)-2-[[(9<em>H</em>-Fluoren-9-ylmethoxy)carbonyl]amino]propanoic acid;(2S)-2-([[(9<em>H</em>-Fluoren-9-yl)methoxy]carbonyl]amino)propanoic acid;(2S)-2-[[(9H-fluoren-9-ylmethoxy)carbonyl]amino]propanoic acid",
    "duplicated_cas_no": "",
    "SMILES": "C(OC(N[C@H](C(O)=O)C)=O)C1C=2C(C=3C1=CC=CC3)=CC=CC2",
    "meta_data": {
        "InChI": "InChI=1S/C18H17NO4/c1-11(17(20)21)19-18(22)23-10-16-14-8-4-2-6-12(14)13-7-3-5-9-15(13)16/h2-9,11,16H,10H2,1H3,(H,19,22)(H,20,21)/t11-/m0/s1",
        "InChIKey": null,
        "Canonical SMILES": "O=C(OCC1C=2C=CC=CC2C=3C=CC=CC31)NC(C(=O)O)C",
        "Molecular Formula": "C<sub>18</sub>H<sub>17</sub>NO<sub>4</sub>",
        "Molecular Mass": "311.33",
        "Melting Point": "161-163 °C (decomp)"
    }
}