{
    "cas_no": "3336-40-1",
    "key_name": "3,5-Diiodo-4-methoxybenzonitrile",
    "cn_name": null,
    "alternate_name": "Benzonitrile, 3,5-diiodo-4-methoxy-;<em>p</em>-Anisonitrile, 3,5-diiodo-;3,5-Diiodo-4-methoxybenzonitrile;Methyl ioxynil",
    "duplicated_cas_no": "",
    "SMILES": "O(C)C1=C(I)C=C(C#N)C=C1I",
    "meta_data": {
        "InChI": "InChI=1S/C8H5I2NO/c1-12-8-6(9)2-5(4-11)3-7(8)10/h2-3H,1H3",
        "InChIKey": null,
        "Canonical SMILES": "N#CC1=CC(I)=C(OC)C(I)=C1",
        "Molecular Formula": "C<sub>8</sub>H<sub>5</sub>I<sub>2</sub>NO",
        "Molecular Mass": "384.94",
        "Melting Point": "154 °C"
    }
}