{
    "cas_no": "600-14-6",
    "key_name": "2,3-Pentanedione",
    "cn_name": "2,3-戊二酮;",
    "alternate_name": "2,3-Pentanedione;Acetylpropionyl;NSC 7613",
    "duplicated_cas_no": "1341-45-3",
    "SMILES": "C(C(C)=O)(CC)=O",
    "meta_data": {
        "InChI": "InChI=1S/C5H8O2/c1-3-5(7)4(2)6/h3H2,1-2H3",
        "InChIKey": null,
        "Canonical SMILES": "O=C(C(=O)CC)C",
        "Molecular Formula": "C<sub>5</sub>H<sub>8</sub>O<sub>2</sub>",
        "Molecular Mass": "100.12",
        "Boiling Point": "108 °C",
        "Density": "0.9571 g/cm³ @ Temp: 17 °C"
    }
}