{
    "cas_no": "16957-70-3",
    "key_name": "(<em>E</em>)-2-Methyl-2-pentenoic acid",
    "cn_name": "反式-2-甲基-2-戊烯酸;草莓酸;",
    "alternate_name": "2-Pentenoic acid, 2-methyl-, (2<em>E</em>)-;2-Pentenoic acid, 2-methyl-, (<em>E</em>)-;(2<em>E</em>)-2-Methyl-2-pentenoic acid;<em>trans</em>-2-Methyl-2-pentenoic acid;(<em>E</em>)-2-Methyl-2-pentenoyl chloride;(<em>E</em>)-2-Methyl-2-pentenoic acid;(2E)-2-Methylpent-2-enoic acid",
    "duplicated_cas_no": "1628063-57-9",
    "SMILES": "C(=C/CC)(\\C(O)=O)/C",
    "meta_data": {
        "InChI": "InChI=1S/C6H10O2/c1-3-4-5(2)6(7)8/h4H,3H2,1-2H3,(H,7,8)/b5-4+",
        "InChIKey": null,
        "Canonical SMILES": "O=C(O)C(=CCC)C",
        "Molecular Formula": "C<sub>6</sub>H<sub>10</sub>O<sub>2</sub>",
        "Molecular Mass": "114.14",
        "Boiling Point": "214 °C",
        "Melting Point": "24.4 °C"
    }
}