{
    "cas_no": "5189-11-7",
    "key_name": "Pizotifen malate",
    "cn_name": "苯噻啶苹果酸盐;9,10-二氢-4-(1-甲基哌啶-4-亚基)-4H-苯并[4,5]环庚烷并[1,2-b]噻吩苹果酸盐(1:1);",
    "alternate_name": "Butanedioic acid, 2-hydroxy-, compd. with 4-(9,10-dihydro-4<em>H</em>-benzo[4,5]cyclohepta[1,2-<em>b</em>]thien-4-ylidene)-1-methylpiperidine (1:1);Malic acid, compd. with 4-(9,10-dihydro-4<em>H</em>-benzo[4,5]cyclohepta[1,2-<em>b</em>]thien-4-ylidene)-1-methylpiperidine (1:1);Butanedioic acid, hydroxy-, compd. with 4-(9,10-dihydro-4<em>H</em>-benzo[4,5]cyclohepta[1,2-<em>b</em>]thien-4-ylidene)-1-methylpiperidine (1:1);Malic acid, compd. with 4-(9,10-dihydro-4<em>H</em>-benzo[4,5]cyclohepta[1,2-<em>b</em>]thien-4-ylidene)-1-methylpiperidine;4<em>H</em>-Benzo[4,5]cyclohepta[1,2-<em>b</em>]thiophene, 9,10-dihydro-4-(1-methyl-4-piperidylidene)-, malate (1:1);Piperidine, 4-(9,10-dihydro-4<em>H</em>-benzo[4,5]cyclohepta[1,2-<em>b</em>]thien-4-ylidene)-1-methyl-, malate (1:1);4<em>H</em>-Benzo[4,5]cyclohepta[1,2-<em>b</em>]thiophene, piperidine deriv.;Piperidine, 4-(9,10-dihydro-4<em>H</em>-benzo[4,5]cyclohepta[1,2-<em>b</em>]thien-4-ylidene)-1-methyl-, hydroxybutanedioate (1:1);Pizotifen malate;Pizotifen hydrogen malate;4-(9,10-Dihydro-4<em>H</em>-benzo[4,5]cyclohepta[1,2-<em>b</em>]thien-4-ylidene)-1-methylpiperidinium hydrogen malate;Mosegor;Sanomigran;Sanmigran;Pizotyline malate",
    "duplicated_cas_no": "",
    "SMILES": "CN1CCC(=C2C3=C(CCC=4C2=CC=CC4)SC=C3)CC1.C(CC(O)=O)(C(O)=O)O",
    "meta_data": {
        "InChI": "InChI=1S/C19H21NS.C4H6O5/c1-20-11-8-15(9-12-20)19-16-5-3-2-4-14(16)6-7-18-17(19)10-13-21-18;5-2(4(8)9)1-3(6)7/h2-5,10,13H,6-9,11-12H2,1H3;2,5H,1H2,(H,6,7)(H,8,9)",
        "InChIKey": null,
        "Canonical SMILES": "O=C(O)CC(O)C(=O)O.S1C=CC2=C1CCC=3C=CC=CC3C2=C4CCN(C)CC4",
        "Molecular Formula": "C<sub>19</sub>H<sub>21</sub>NS.C<sub>4</sub>H<sub>6</sub>O<sub>5</sub>",
        "Molecular Mass": "",
        "Melting Point": "185-186 °C (decomp)"
    }
}