{
    "cas_no": "32231-06-4",
    "key_name": "1-Piperonylpiperazine",
    "cn_name": "1-胡椒基哌嗪;N-(3,4-亚甲二氧基苯甲基)哌嗪;",
    "alternate_name": "Piperazine, 1-(1,3-benzodioxol-5-ylmethyl)-;Piperazine, 1-piperonyl-;1-(1,3-Benzodioxol-5-ylmethyl)piperazine;<em>N</em>-(3,4-Methylenedioxybenzyl)piperazine;1-Piperonylpiperazine;1-(3,4-Methylenedioxybenzyl)piperazine;<em>N</em>-Piperonylpiperazine;5-(Piperazinomethyl)-1,3-benzodioxole;1-(4-Piperonyl)piperazine;1-(Benzo[1,3]dioxol-5-ylmethyl)piperazine;1-(3,4-Methylenedioxyphenylmethyl)piperazine;1-(1,3-Benzodioxolan-5-ylmethyl)piperazine;1-(Benzodioxol-5-ylmethyl)piperazine;4-[(Benzodioxol-5-yl)methyl]piperazine;4-(4-Piperonyl)piperazine;4-[(1,3-Benzodioxol-5-yl)methyl]piperazine;<em>N</em>-[(1,3-Benzodioxol-5-yl)methyl]piperazine;1-[(2<em>H</em>-1,3-Benzodioxol-5-yl)methyl]piperazine;1-[(Benzo[<em>d</em>][1,3]dioxol-5-yl)methyl]piperazine;1-[(1,3-Dioxaindan-5-yl)methyl]piperazine",
    "duplicated_cas_no": "",
    "SMILES": "C(C=1C=C2C(=CC1)OCO2)N3CCNCC3",
    "meta_data": {
        "InChI": "InChI=1S/C12H16N2O2/c1-2-11-12(16-9-15-11)7-10(1)8-14-5-3-13-4-6-14/h1-2,7,13H,3-6,8-9H2",
        "InChIKey": null,
        "Canonical SMILES": "O1C2=CC=C(C=C2OC1)CN3CCNCC3",
        "Molecular Formula": "C<sub>12</sub>H<sub>16</sub>N<sub>2</sub>O<sub>2</sub>",
        "Molecular Mass": "220.27",
        "Boiling Point": "147-149 °C @ Press: 2 Torr",
        "Melting Point": "97-102 °C"
    }
}