{
    "cas_no": "8001-35-2",
    "key_name": "Toxaphene",
    "cn_name": null,
    "alternate_name": "Toxaphene;Alltox;Chlorinated camphene;Geniphene;Phenacide;Phenatox;Toxakil;Polychlorocamphene;Toxyphen;Melipax;Hercules 3956;Toxaphen;Estonox;M 5055;Camphechlor;Camphochlor;Kamfochlor;Strobane T;PChK;Anatox;Canfeclor;PCC;PKhF;PChK (insecticide);Polychlorcamphene;MeSH ID: D014112",
    "duplicated_cas_no": "8022-04-6;12687-42-2;12698-98-5;12770-20-6;37226-11-2;56645-28-4",
    "SMILES": "",
    "meta_data": {
        "InChI": "",
        "InChIKey": null,
        "Canonical SMILES": "",
        "Molecular Formula": "Unspecified",
        "Molecular Mass": "",
        "Melting Point": "65-90 °C",
        "Density": "1.65 g/cm³ @ Temp: 25 °C"
    }
}