{
    "uri": "substance/pt/8001352",
    "rn": "8001-35-2",
    "name": "Toxaphene",
    "images": [],
    "inchi": "",
    "inchiKey": "",
    "smile": "",
    "canonicalSmile": "",
    "molecularFormula": "Unspecified",
    "molecularMass": "",
    "experimentalProperties": [
        {
            "name": "Melting Point",
            "property": "65-90 °C",
            "sourceNumber": 1
        },
        {
            "name": "Density",
            "property": "1.65 g/cm³ @ Temp: 25 °C",
            "sourceNumber": 1
        }
    ],
    "propertyCitations": [
        {
            "docUri": "",
            "sourceNumber": 1,
            "source": "Hazardous Substances Data Bank data were obtained from the National Library of Medicine (US)"
        }
    ],
    "synonyms": [
        "Toxaphene",
        "Alltox",
        "Chlorinated camphene",
        "Geniphene",
        "Phenacide",
        "Phenatox",
        "Toxakil",
        "Polychlorocamphene",
        "Toxyphen",
        "Melipax",
        "Hercules 3956",
        "Toxaphen",
        "Estonox",
        "M 5055",
        "Camphechlor",
        "Camphochlor",
        "Kamfochlor",
        "Strobane T",
        "PChK",
        "Anatox",
        "Canfeclor",
        "PCC",
        "PKhF",
        "PChK (insecticide)",
        "Polychlorcamphene",
        "MeSH ID: D014112"
    ],
    "replacedRns": [
        "8022-04-6",
        "12687-42-2",
        "12698-98-5",
        "12770-20-6",
        "37226-11-2",
        "56645-28-4"
    ],
    "hasMolfile": false,
    "source": "https://commonchemistry.cas.org/detail?cas_rn=8001-35-2"
}