{
    "cas_no": "20846-91-7",
    "key_name": "Ethylenediamine-<em>N</em>,<em>N</em>′-disuccinic acid",
    "cn_name": "N,N\"-(1,2-乙烷二基)双天冬氨酸;",
    "alternate_name": "<span class=\"text-smallcaps\">L</span>-Aspartic acid, <em>N</em>,<em>N</em>′-1,2-ethanediylbis-;Aspartic acid, <em>N</em>,<em>N</em>′-ethylenedi-, <span class=\"text-smallcaps\">L</smallcap>,<smallcap>L</span>-;Aspartic acid, <em>N</em>,<em>N</em>′-ethylenedi-;<em>N</em>,<em>N</em>′-1,2-Ethanediylbis[<span class=\"text-smallcaps\">L</span>-aspartic acid];<em>N</em>,<em>N</em>′-Ethylenediaminedisuccinic acid;<span class=\"text-smallcaps\">L</span>-Ethylenediaminedisuccinic acid;EDSS;(<em>S</em>,<em>S</em>)-Ethylenediamine-<em>N</em>,<em>N</em>′-disuccinic acid;<em>N</em>,<em>N</em>′-Ethylenediaspartic acid;<em>N</em>,<em>N</em>′-Bis(1,2-dicarboxyethyl)ethylenediamine;(<em>S</em>,<em>S</em>′)-Ethylenediamine-<em>N</em>,<em>N</em>′-disuccinic acid;(<em>S</em>,<em>S</em>)-Ethylenediaminedisuccinic acid;[S,S]-EDDS;(S,S)-Ethylenediaminedisuccinic acid;Enviomet C 265;EDDS;Ethylenediamine-<em>N</em>,<em>N</em>′-disuccinic acid;Chelest EDDS 4H;(<em>S</em>,<em>S</em>)-Ethylenediaminesuccinic acid;[S,S]-Ethylenediamine-<em>N</em>,<em>N</em>′-disuccinic acid;Natraquest E 30",
    "duplicated_cas_no": "687-32-1;57230-42-9;66093-63-8;70742-11-9;161233-89-2",
    "SMILES": "[C@H](CC(O)=O)(C(O)=O)NCCN[C@@H](CC(O)=O)C(O)=O",
    "meta_data": {
        "InChI": "InChI=1S/C10H16N2O8/c13-7(14)3-5(9(17)18)11-1-2-12-6(10(19)20)4-8(15)16/h5-6,11-12H,1-4H2,(H,13,14)(H,15,16)(H,17,18)(H,19,20)/t5-,6-/m0/s1",
        "InChIKey": null,
        "Canonical SMILES": "O=C(O)CC(NCCNC(C(=O)O)CC(=O)O)C(=O)O",
        "Molecular Formula": "C<sub>10</sub>H<sub>16</sub>N<sub>2</sub>O<sub>8</sub>",
        "Molecular Mass": "292.24",
        "Melting Point": "220-222 °C"
    }
}