{
    "cas_no": "274-71-5",
    "key_name": "Pyrazolo[1,5-<em>a</em>]pyrimidine",
    "cn_name": null,
    "alternate_name": "Pyrazolo[1,5-<em>a</em>]pyrimidine;1,4,7a-Triazaindene",
    "duplicated_cas_no": "",
    "SMILES": "C=12N(N=CC1)C=CC=N2",
    "meta_data": {
        "InChI": "InChI=1S/C6H5N3/c1-3-7-6-2-4-8-9(6)5-1/h1-5H",
        "InChIKey": null,
        "Canonical SMILES": "N1=CC=CN2N=CC=C12",
        "Molecular Formula": "C<sub>6</sub>H<sub>5</sub>N<sub>3</sub>",
        "Molecular Mass": "119.12",
        "Melting Point": "105 °C"
    }
}