{
    "cas_no": "551-15-5",
    "key_name": "Liquiritin",
    "cn_name": "甘草苷; 甘草甙;",
    "alternate_name": "4<em>H</em>-1-Benzopyran-4-one, 2-[4-(β-<span class=\"text-smallcaps\">D</span>-glucopyranosyloxy)phenyl]-2,3-dihydro-7-hydroxy-, (2<em>S</em>)-;Liquiritin;4<em>H</em>-1-Benzopyran-4-one, 2-[4-(β-<span class=\"text-smallcaps\">D</span>-glucopyranosyloxy)phenyl]-2,3-dihydro-7-hydroxy-, (<em>S</em>)-;(2<em>S</em>)-2-[4-(β-<span class=\"text-smallcaps\">D</span>-Glucopyranosyloxy)phenyl]-2,3-dihydro-7-hydroxy-4<em>H</em>-1-benzopyran-4-one;7-Hydroxyflavanone 4′-<em>O</em>-glucoside;Liquiritoside;4′,7-Dihydroxyflavanone 4′-β-<span class=\"text-smallcaps\">D</span>-glucoside;Likviritin;4′,7-Dihydroxyflavanone 4′-β-<span class=\"text-smallcaps\">D</span>-glucopyranoside;Liquiritigenin 4′-β-<span class=\"text-smallcaps\">D</span>-glucopyranoside",
    "duplicated_cas_no": "17654-21-6;30372-08-8;31564-20-2;100483-53-2;906340-70-3",
    "SMILES": "O=C1C=2C(O[C@@H](C1)C3=CC=C(O[C@@H]4O[C@H](CO)[C@@H](O)[C@H](O)[C@H]4O)C=C3)=CC(O)=CC2",
    "meta_data": {
        "InChI": "InChI=1S/C21H22O9/c22-9-17-18(25)19(26)20(27)21(30-17)28-12-4-1-10(2-5-12)15-8-14(24)13-6-3-11(23)7-16(13)29-15/h1-7,15,17-23,25-27H,8-9H2/t15-,17+,18+,19-,20+,21+/m0/s1",
        "InChIKey": null,
        "Canonical SMILES": "O=C1C2=CC=C(O)C=C2OC(C3=CC=C(OC4OC(CO)C(O)C(O)C4O)C=C3)C1",
        "Molecular Formula": "C<sub>21</sub>H<sub>22</sub>O<sub>9</sub>",
        "Molecular Mass": "418.39",
        "Melting Point": "208 °C"
    }
}