{
    "cas_no": "35271-74-0",
    "key_name": "3-(4-Chlorophenyl)pentanedioic acid",
    "cn_name": "3-(4-氯苯基)戊二酸;",
    "alternate_name": "Pentanedioic acid, 3-(4-chlorophenyl)-;Glutaric acid, 3-(<em>p</em>-chlorophenyl)-;3-(4-Chlorophenyl)pentanedioic acid;β-(<em>p</em>-Chlorophenyl)glutaric acid;3-(4-Chlorophenyl)glutaric acid",
    "duplicated_cas_no": "",
    "SMILES": "C(CC(O)=O)(CC(O)=O)C1=CC=C(Cl)C=C1",
    "meta_data": {
        "InChI": "InChI=1S/C11H11ClO4/c12-9-3-1-7(2-4-9)8(5-10(13)14)6-11(15)16/h1-4,8H,5-6H2,(H,13,14)(H,15,16)",
        "InChIKey": null,
        "Canonical SMILES": "O=C(O)CC(C1=CC=C(Cl)C=C1)CC(=O)O",
        "Molecular Formula": "C<sub>11</sub>H<sub>11</sub>ClO<sub>4</sub>",
        "Molecular Mass": "242.66",
        "Melting Point": "166-168 °C"
    }
}