{
    "cas_no": "6809-52-5",
    "key_name": "Teprenone",
    "cn_name": null,
    "alternate_name": "5,9,13,17-Nonadecatetraen-2-one, 6,10,14,18-tetramethyl-;6,10,14,18-Tetramethyl-5,9,13,17-nonadecatetraen-2-one;Teprenone;Selbex;Geranylgeranylacetone;E 36U31;E 0671;GGA",
    "duplicated_cas_no": "",
    "SMILES": "C(CCC=C(CCC=C(C)C)C)(=CCCC(=CCCC(C)=O)C)C",
    "meta_data": {
        "InChI": "InChI=1S/C23H38O/c1-19(2)11-7-12-20(3)13-8-14-21(4)15-9-16-22(5)17-10-18-23(6)24/h11,13,15,17H,7-10,12,14,16,18H2,1-6H3",
        "InChIKey": null,
        "Canonical SMILES": "O=C(C)CCC=C(C)CCC=C(C)CCC=C(C)CCC=C(C)C",
        "Molecular Formula": "C<sub>23</sub>H<sub>38</sub>O",
        "Molecular Mass": "330.55",
        "Boiling Point": "155-160 °C @ Press: 0.01 Torr",
        "Density": "0.9081 g/cm³ @ Temp: 20.5 °C"
    }
}