{
    "cas_no": "712-48-1",
    "key_name": "Diphenylchloroarsine",
    "cn_name": null,
    "alternate_name": "Arsinous chloride, <em>As</em>,<em>As</em>-diphenyl-;Arsine, chlorodiphenyl-;Arsinous chloride, diphenyl-;<em>As</em>,<em>As</em>-Diphenylarsinous chloride;Chlorodiphenylarsine;Diphenylchloroarsine;Diphenylarsenic chloride;Clark 1;CLARK I;Diphenylarsinous chloride",
    "duplicated_cas_no": "",
    "SMILES": "[As](Cl)(C1=CC=CC=C1)C2=CC=CC=C2",
    "meta_data": {
        "InChI": "InChI=1S/C12H10AsCl/c14-13(11-7-3-1-4-8-11)12-9-5-2-6-10-12/h1-10H",
        "InChIKey": null,
        "Canonical SMILES": "Cl[As](C=1C=CC=CC1)C=2C=CC=CC2",
        "Molecular Formula": "C<sub>12</sub>H<sub>10</sub>AsCl",
        "Molecular Mass": "264.58",
        "Boiling Point": "337 °C",
        "Melting Point": "44 °C"
    }
}