{
    "cas_no": "1468-39-9",
    "key_name": "Isovaleric anhydride",
    "cn_name": "异戊酸酐;",
    "alternate_name": "Butanoic acid, 3-methyl-, 1,1′-anhydride;Isovaleric anhydride;Butanoic acid, 3-methyl-, anhydride;Isovaleric acid anhydride;Isovaleryl anhydride;3-Methylbutanoic anhydride;Isopentanoic anhydride;3-Methylbutyric anhydride;3-Methylbutanoyl 3-methylbutanoate",
    "duplicated_cas_no": "",
    "SMILES": "C(OC(CC(C)C)=O)(CC(C)C)=O",
    "meta_data": {
        "InChI": "InChI=1S/C10H18O3/c1-7(2)5-9(11)13-10(12)6-8(3)4/h7-8H,5-6H2,1-4H3",
        "InChIKey": null,
        "Canonical SMILES": "O=C(OC(=O)CC(C)C)CC(C)C",
        "Molecular Formula": "C<sub>10</sub>H<sub>18</sub>O<sub>3</sub>",
        "Molecular Mass": "186.25",
        "Boiling Point": "215 °C"
    }
}