{
    "cas_no": "4917-76-4",
    "key_name": "Thiodisuccinic acid",
    "cn_name": "2,2\"-硫代二丁二酸;",
    "alternate_name": "Butanedioic acid, 2,2′-thiobis-;Succinic acid, 2,2′-thiodi-;2,2′-Thiobis[butanedioic acid];Thiodisuccinic acid;2,2′-Thiobis(succinic acid);2,2′-Thiodisuccinic acid;2-(1,2-Dicarboxyethylsulfanyl)butanedioic acid",
    "duplicated_cas_no": "",
    "SMILES": "C(SC(CC(O)=O)C(O)=O)(CC(O)=O)C(O)=O",
    "meta_data": {
        "InChI": "InChI=1S/C8H10O8S/c9-5(10)1-3(7(13)14)17-4(8(15)16)2-6(11)12/h3-4H,1-2H2,(H,9,10)(H,11,12)(H,13,14)(H,15,16)",
        "InChIKey": null,
        "Canonical SMILES": "O=C(O)CC(SC(C(=O)O)CC(=O)O)C(=O)O",
        "Molecular Formula": "C<sub>8</sub>H<sub>10</sub>O<sub>8</sub>S",
        "Molecular Mass": "266.23",
        "Melting Point": "212-213 °C"
    }
}