{
    "cas_no": "17082-09-6",
    "key_name": "<em>trans</em>-Cinnamoyl chloride",
    "cn_name": null,
    "alternate_name": "2-Propenoyl chloride, 3-phenyl-, (2<em>E</em>)-;Cinnamoyl chloride, (<em>E</em>)-;2-Propenoyl chloride, 3-phenyl-, (<em>E</em>)-;(2<em>E</em>)-3-Phenyl-2-propenoyl chloride;<em>trans</em>-Cinnamoyl chloride;(<em>E</em>)-Cinnamoyl chloride;(<em>E</em>)-3-Phenyl-2-propenoyl chloride;<em>trans</em>-Cinnamic acid chloride;(2<em>E</em>)-3-Phenylprop-2-enoyl chloride;<em>trans</em>-3-Phenyl-2-propenoyl chloride",
    "duplicated_cas_no": "2231811-45-1",
    "SMILES": "C(=C/C(Cl)=O)\\C1=CC=CC=C1",
    "meta_data": {
        "InChI": "InChI=1S/C9H7ClO/c10-9(11)7-6-8-4-2-1-3-5-8/h1-7H/b7-6+",
        "InChIKey": null,
        "Canonical SMILES": "O=C(Cl)C=CC=1C=CC=CC1",
        "Molecular Formula": "C<sub>9</sub>H<sub>7</sub>ClO",
        "Molecular Mass": "166.60",
        "Boiling Point": "131 °C @ Press: 12 Torr",
        "Melting Point": "38 °C"
    }
}