{
    "cas_no": "511-01-3",
    "key_name": "(+)-Onocerin",
    "cn_name": null,
    "alternate_name": "2-Naphthalenol, 5,5′-(1,2-ethanediyl)bis[decahydro-1,1,4a-trimethyl-6-methylene-, (2<em>S</em>,2′<em>S</em>,4a<em>R</em>,4′a<em>R</em>,5<em>S</em>,5′<em>S</em>,8a<em>R</em>,8′a<em>R</em>)-;Onocera-8(26),14(27)-diene-3β,21α-diol;8,14-Secogammacera-8(26),14(27)-diene-3,21-diol, (3β,21α)-;(2<em>S</em>,2′<em>S</em>,4a<em>R</em>,4′a<em>R</em>,5<em>S</em>,5′<em>S</em>,8a<em>R</em>,8′a<em>R</em>)-5,5′-(1,2-Ethanediyl)bis[decahydro-1,1,4a-trimethyl-6-methylene-2-naphthalenol];α-Onocerin;Onocerin;(+)-Onocerin",
    "duplicated_cas_no": "",
    "SMILES": "C[C@@]12[C@](C(C)(C)[C@@H](O)CC1)(CCC(=C)[C@@H]2CC[C@@H]3[C@]4(C)[C@](C(C)(C)[C@@H](O)CC4)(CCC3=C)[H])[H]",
    "meta_data": {
        "InChI": "InChI=1S/C30H50O2/c1-19-9-13-23-27(3,4)25(31)15-17-29(23,7)21(19)11-12-22-20(2)10-14-24-28(5,6)26(32)16-18-30(22,24)8/h21-26,31-32H,1-2,9-18H2,3-8H3/t21-,22-,23-,24-,25-,26-,29+,30+/m0/s1",
        "InChIKey": null,
        "Canonical SMILES": "OC1CCC2(C)C(C(=C)CCC2C1(C)C)CCC3C(=C)CCC4C(C)(C)C(O)CCC34C",
        "Molecular Formula": "C<sub>30</sub>H<sub>50</sub>O<sub>2</sub>",
        "Molecular Mass": "442.72",
        "Melting Point": "202-203 °C"
    }
}