{
    "cas_no": "30071-93-3",
    "key_name": "Bis (trifluoromethyl)acetophenone",
    "cn_name": "3,5-双三氟甲基苯乙酮;",
    "alternate_name": "Ethanone, 1-[3,5-bis(trifluoromethyl)phenyl]-;Acetophenone, 3′,5′-bis(trifluoromethyl)-;1-[3,5-Bis(trifluoromethyl)phenyl]ethanone;1-[3,5-Di(trifluoromethyl)phenyl]ethanone;3′,5′-Bis(trifluoromethyl)acetophenone;3,5-Bis(trifluoromethyl)acetophenone;3,5-Di(trifluoromethyl)acetophenone;3,5-Bis(trifluoromethyl)phenyl methyl ketone;1-[3,5-Bis(trifluoromethyl)phenyl]ethan-1-one;Bis (trifluoromethyl)acetophenone;1-[3,5-Di(trifluoromethyl)phenyl]ethan-1-one",
    "duplicated_cas_no": "",
    "SMILES": "C(F)(F)(F)C1=CC(C(F)(F)F)=CC(C(C)=O)=C1",
    "meta_data": {
        "InChI": "InChI=1S/C10H6F6O/c1-5(17)6-2-7(9(11,12)13)4-8(3-6)10(14,15)16/h2-4H,1H3",
        "InChIKey": null,
        "Canonical SMILES": "O=C(C=1C=C(C=C(C1)C(F)(F)F)C(F)(F)F)C",
        "Molecular Formula": "C<sub>10</sub>H<sub>6</sub>F<sub>6</sub>O",
        "Molecular Mass": "256.14",
        "Boiling Point": "187-189 °C"
    }
}