{
    "cas_no": "77017-20-0",
    "key_name": "(16α)-21-(Acetyloxy)-16,17-dihydroxypregna-1,4,9(11)-triene-3,20-dione",
    "cn_name": "16&alpha;,17&alpha;-二羟基孕甾-1,4,9(11)三烯-3,20-酮-21-醋酸酯;孕甾-1,4,9(11)三烯-16&alpha;,17&alpha;",
    "alternate_name": "Pregna-1,4,9(11)-triene-3,20-dione, 21-(acetyloxy)-16,17-dihydroxy-, (16α)-;Pregna-1,4,9(11)-triene-3,20-dione, 16α,17,21-trihydroxy-, 21-acetate;(16α)-21-(Acetyloxy)-16,17-dihydroxypregna-1,4,9(11)-triene-3,20-dione;(16a)-21-Acetyloxy-16,17-dihydroxy-pregna-1,4,9(11)-triene-3,20-dione",
    "duplicated_cas_no": "",
    "SMILES": "C[C@@]12[C@]([C@]3(C(=CC1)[C@]4(C)C(CC3)=CC(=O)C=C4)[H])(C[C@@H](O)[C@@]2(C(COC(C)=O)=O)O)[H]",
    "meta_data": {
        "InChI": "InChI=1S/C23H28O6/c1-13(24)29-12-20(27)23(28)19(26)11-18-16-5-4-14-10-15(25)6-8-21(14,2)17(16)7-9-22(18,23)3/h6-8,10,16,18-19,26,28H,4-5,9,11-12H2,1-3H3/t16-,18+,19-,21+,22+,23+/m1/s1",
        "InChIKey": null,
        "Canonical SMILES": "O=C1C=CC2(C(=C1)CCC3C2=CCC4(C)C3CC(O)C4(O)C(=O)COC(=O)C)C",
        "Molecular Formula": "C<sub>23</sub>H<sub>28</sub>O<sub>6</sub>",
        "Molecular Mass": "400.46",
        "Melting Point": "213-215 °C"
    }
}