{
    "cas_no": "66750-10-5",
    "key_name": "<em>N</em>-Phenylaza-15-crown-5",
    "cn_name": null,
    "alternate_name": "1,4,7,10-Tetraoxa-13-azacyclopentadecane, 13-phenyl-;13-Phenyl-1,4,7,10-tetraoxa-13-azacyclopentadecane;<em>N</em>-Phenylaza-15-crown-5;1-<em>N</em>-Phenylaza-15-crown-5;N-Phenylaza-15-crown-5;1-Phenyl-4,7,10,13-tetraoxa-1-azacyclopentadecane",
    "duplicated_cas_no": "",
    "SMILES": "C1(=CC=CC=C1)N2CCOCCOCCOCCOCC2",
    "meta_data": {
        "InChI": "InChI=1S/C16H25NO4/c1-2-4-16(5-3-1)17-6-8-18-10-12-20-14-15-21-13-11-19-9-7-17/h1-5H,6-15H2",
        "InChIKey": null,
        "Canonical SMILES": "O1CCOCCOCCN(C=2C=CC=CC2)CCOCC1",
        "Molecular Formula": "C<sub>16</sub>H<sub>25</sub>NO<sub>4</sub>",
        "Molecular Mass": "295.37",
        "Melting Point": "44-45 °C"
    }
}