{
    "cas_no": "57734-57-3",
    "key_name": "2-Pyrrolidinemethanamine",
    "cn_name": "吡咯烷-2-甲胺;",
    "alternate_name": "2-Pyrrolidinemethanamine;2-(Aminomethyl)pyrrolidine;1-(Pyrrolidin-2-yl)methanamine;Pyrrolidin-2-ylmethanamine",
    "duplicated_cas_no": "123654-27-3",
    "SMILES": "C(N)C1CCCN1",
    "meta_data": {
        "InChI": "InChI=1S/C5H12N2/c6-4-5-2-1-3-7-5/h5,7H,1-4,6H2",
        "InChIKey": null,
        "Canonical SMILES": "NCC1NCCC1",
        "Molecular Formula": "C<sub>5</sub>H<sub>12</sub>N<sub>2</sub>",
        "Molecular Mass": "100.16",
        "Boiling Point": "65 °C @ Press: 11 Torr"
    }
}