{
    "cas_no": "114772-38-2",
    "key_name": "Methyl 4′-(bromomethyl)biphenyl-2-carboxylate",
    "cn_name": "4\"-溴甲基-2-甲酸甲酯联苯;",
    "alternate_name": "[1,1′-Biphenyl]-2-carboxylic acid, 4′-(bromomethyl)-, methyl ester;Methyl 4′-(bromomethyl)-1,1′-biphenyl-2-carboxylate;Methyl 4′-(bromomethyl)biphenyl-2-carboxylate;4-(2′-Carbomethoxyphenyl)benzyl bromide;Methyl 2-(4′-bromomethylphenyl)benzoate;2′-(Methoxycarbonyl)biphenyl-4-ylmethyl bromide;Methyl 2-[4-(bromomethyl)phenyl]benzoate;4′-(Bromomethyl)biphenyl-2-carboxylic acid methyl ester;2-(4-Bromomethylphenyl)benzoic acid methyl ester;4′-Bromomethyl-1,1′-biphenyl-2-carboxylic acid methyl ester;4-Bromomethylbiphenyl-2′-carboxylic acid methyl ester",
    "duplicated_cas_no": "140126-76-7;1621471-12-2",
    "SMILES": "C(OC)(=O)C1=C(C=CC=C1)C2=CC=C(CBr)C=C2",
    "meta_data": {
        "InChI": "InChI=1S/C15H13BrO2/c1-18-15(17)14-5-3-2-4-13(14)12-8-6-11(10-16)7-9-12/h2-9H,10H2,1H3",
        "InChIKey": null,
        "Canonical SMILES": "O=C(OC)C=1C=CC=CC1C=2C=CC(=CC2)CBr",
        "Molecular Formula": "C<sub>15</sub>H<sub>13</sub>BrO<sub>2</sub>",
        "Molecular Mass": "305.17",
        "Melting Point": "40-42 °C"
    }
}