{
    "cas_no": "81322-67-0",
    "key_name": "3-Chloro-6-hydroxy-2,4-dimethylbenzaldehyde",
    "cn_name": null,
    "alternate_name": "Benzaldehyde, 3-chloro-6-hydroxy-2,4-dimethyl-;Salicylaldehyde, 5-chloro-4,6-dimethyl-;3-Chloro-6-hydroxy-2,4-dimethylbenzaldehyde;5-Chloro-2-hydroxy-4,6-dimethylbenzaldehyde",
    "duplicated_cas_no": "1392849-01-2",
    "SMILES": "C(=O)C1=C(C)C(Cl)=C(C)C=C1O",
    "meta_data": {
        "InChI": "InChI=1S/C9H9ClO2/c1-5-3-8(12)7(4-11)6(2)9(5)10/h3-4,12H,1-2H3",
        "InChIKey": null,
        "Canonical SMILES": "O=CC1=C(O)C=C(C(Cl)=C1C)C",
        "Molecular Formula": "C<sub>9</sub>H<sub>9</sub>ClO<sub>2</sub>",
        "Molecular Mass": "184.62",
        "Melting Point": "89-90 °C"
    }
}