{
    "cas_no": "71258-18-9",
    "key_name": "4-Piperidinecarbonitrile, 4-phenyl-1-(phenylmethyl)-, hydrochloride (1:1)",
    "cn_name": "1-苄基-4-氰基-4-苯基哌啶盐酸盐;",
    "alternate_name": "4-Piperidinecarbonitrile, 4-phenyl-1-(phenylmethyl)-, hydrochloride (1:1);4-Piperidinecarbonitrile, 4-phenyl-1-(phenylmethyl)-, monohydrochloride;1-Benzyl-4-cyano-4-phenylpiperidine hydrochloride;1-Benzyl-4-phenylpiperidine-4-carbonitrile hydrochloride;1-<em>N</em>-Benzyl-4-cyano-4-phenylpiperidine hydrochloride",
    "duplicated_cas_no": "",
    "SMILES": "C(#N)C1(CCN(CC2=CC=CC=C2)CC1)C3=CC=CC=C3.Cl",
    "meta_data": {
        "InChI": "InChI=1S/C19H20N2.ClH/c20-16-19(18-9-5-2-6-10-18)11-13-21(14-12-19)15-17-7-3-1-4-8-17;/h1-10H,11-15H2;1H",
        "InChIKey": null,
        "Canonical SMILES": "Cl.N#CC1(C=2C=CC=CC2)CCN(CC=3C=CC=CC3)CC1",
        "Molecular Formula": "C<sub>19</sub>H<sub>20</sub>N<sub>2</sub>.ClH",
        "Molecular Mass": "",
        "Melting Point": "259-260 °C"
    }
}