{
    "cas_no": "59454-35-2",
    "key_name": "4-Decyl-4′-cyanobiphenyl",
    "cn_name": null,
    "alternate_name": "[1,1′-Biphenyl]-4-carbonitrile, 4′-decyl-;4′-Decyl[1,1′-biphenyl]-4-carbonitrile;4-Cyano-4′-decylbiphenyl;4-Decyl-4′-cyanobiphenyl;CB 10 (liquid crystal);CB 10;K 30 (liquid crystal);K 30;10CB;4-<em>n</em>-Decyl-4′-cyanobiphenyl;4′-Decyl-4-cyanobiphenyl;4′-Decylbiphenyl-4′-carbonitrile",
    "duplicated_cas_no": "",
    "SMILES": "C(CCCCCCCCC)C1=CC=C(C=C1)C2=CC=C(C#N)C=C2",
    "meta_data": {
        "InChI": "InChI=1S/C23H29N/c1-2-3-4-5-6-7-8-9-10-20-11-15-22(16-12-20)23-17-13-21(19-24)14-18-23/h11-18H,2-10H2,1H3",
        "InChIKey": null,
        "Canonical SMILES": "N#CC=1C=CC(=CC1)C2=CC=C(C=C2)CCCCCCCCCC",
        "Molecular Formula": "C<sub>23</sub>H<sub>29</sub>N",
        "Molecular Mass": "319.48",
        "Boiling Point": "228-230 °C @ Press: 2 Torr"
    }
}