{
    "cas_no": "16874-75-2",
    "key_name": "Histidylalanine",
    "cn_name": null,
    "alternate_name": "<span class=\"text-smallcaps\">L</smallcap>-Alanine, <smallcap>L</span>-histidyl-;Alanine, <em>N</em>-<span class=\"text-smallcaps\">L</smallcap>-histidyl-, <smallcap>L</span>-;<span class=\"text-smallcaps\">L</smallcap>-Alanine, <em>N</em>-<smallcap>L</span>-histidyl-;Alanine, <em>N</em>-<span class=\"text-smallcaps\">L</span>-histidyl-;Alanine, <em>N</em>-histidyl-;<span class=\"text-smallcaps\">L</smallcap>-Histidyl-<smallcap>L</span>-alanine;Histidylalanine;NSC 522632;180: PN: EP2161028 PAGE: 10 claimed protein;22: PN: WO2011146121 PAGE: 114 claimed protein;29: PN: WO2014018423 PAGE: 215 claimed protein;10: PN: EP2878667 TABLE: 5 claimed protein;29: PN: WO2021026336 PAGE: 101 claimed sequence;42: PN: WO2021211467 SEQID: 195 claimed sequence;802: PN: WO2022215055 SEQID: 802 claimed protein",
    "duplicated_cas_no": "877036-15-2",
    "SMILES": "C([C@@H](C(N[C@H](C(O)=O)C)=O)N)C1=CN=CN1",
    "meta_data": {
        "InChI": "InChI=1S/C9H14N4O3/c1-5(9(15)16)13-8(14)7(10)2-6-3-11-4-12-6/h3-5,7H,2,10H2,1H3,(H,11,12)(H,13,14)(H,15,16)/t5-,7-/m0/s1",
        "InChIKey": null,
        "Canonical SMILES": "O=C(O)C(NC(=O)C(N)CC1=CN=CN1)C",
        "Molecular Formula": "C<sub>9</sub>H<sub>14</sub>N<sub>4</sub>O<sub>3</sub>",
        "Molecular Mass": "226.23",
        "Melting Point": "198-200 °C (decomp)"
    }
}