{
    "cas_no": "931-87-3",
    "key_name": "<em>cis</em>-Cyclooctene",
    "cn_name": "顺-环辛烯;",
    "alternate_name": "Cyclooctene, (1<em>Z</em>)-;Cyclooctene, (<em>Z</em>)-;(1<em>Z</em>)-Cyclooctene;<em>cis</em>-Cyclooctene;(<em>Z</em>)-Cyclooctene",
    "duplicated_cas_no": "21395-82-4;2231770-59-3",
    "SMILES": "C1CCC/C=C\\CC1",
    "meta_data": {
        "InChI": "InChI=1S/C8H14/c1-2-4-6-8-7-5-3-1/h1-2H,3-8H2/b2-1-",
        "InChIKey": null,
        "Canonical SMILES": "C1=CCCCCCC1",
        "Molecular Formula": "C<sub>8</sub>H<sub>14</sub>",
        "Molecular Mass": "110.20",
        "Boiling Point": "138 °C",
        "Melting Point": "-12 °C",
        "Density": "0.8448 g/cm³ @ Temp: 25 °C"
    }
}