{
    "cas_no": "105-75-9",
    "key_name": "Dibutyl fumarate",
    "cn_name": "富马酸二丁酯;",
    "alternate_name": "2-Butenedioic acid (2<em>E</em>)-, 1,4-dibutyl ester;Fumaric acid, dibutyl ester;2-Butenedioic acid (<em>E</em>)-, dibutyl ester;2-Butenedioic acid (2<em>E</em>)-, dibutyl ester;Dibutyl fumarate;RC Comonomer DBF;Staflex DBF;Butyl fumarate;Fumaric acid di-<em>n</em>-butyl ester;NSC 140",
    "duplicated_cas_no": "72399-98-5;76736-49-7",
    "SMILES": "C(/C=C/C(OCCCC)=O)(OCCCC)=O",
    "meta_data": {
        "InChI": "InChI=1S/C12H20O4/c1-3-5-9-15-11(13)7-8-12(14)16-10-6-4-2/h7-8H,3-6,9-10H2,1-2H3/b8-7+",
        "InChIKey": null,
        "Canonical SMILES": "O=C(OCCCC)C=CC(=O)OCCCC",
        "Molecular Formula": "C<sub>12</sub>H<sub>20</sub>O<sub>4</sub>",
        "Molecular Mass": "228.28",
        "Boiling Point": "150-151 °C @ Press: 4 Torr",
        "Density": "1.072 g/cm³ @ Temp: 20 °C"
    }
}