{
    "cas_no": "645-31-8",
    "key_name": "1,2-Benzenediol, 4-(2-aminoethyl)-, hydrobromide (1:1)",
    "cn_name": "3-羟基酪胺氢溴酸盐;2-(3,4-二羟基苯基)乙胺;",
    "alternate_name": "1,2-Benzenediol, 4-(2-aminoethyl)-, hydrobromide (1:1);Pyrocatechol, 4-(2-aminoethyl)-, hydrobromide;1,2-Benzenediol, 4-(2-aminoethyl)-, hydrobromide;Dopamine hydrobromide;3-Hydroxytyramine hydrobromide;3,4-Dihydroxy-phenethylamine hydrobromide",
    "duplicated_cas_no": "",
    "SMILES": "C(CN)C1=CC(O)=C(O)C=C1.Br",
    "meta_data": {
        "InChI": "InChI=1S/C8H11NO2.BrH/c9-4-3-6-1-2-7(10)8(11)5-6;/h1-2,5,10-11H,3-4,9H2;1H",
        "InChIKey": null,
        "Canonical SMILES": "Br.OC1=CC=C(C=C1O)CCN",
        "Molecular Formula": "C<sub>8</sub>H<sub>11</sub>NO<sub>2</sub>.BrH",
        "Molecular Mass": "",
        "Melting Point": "212 °C"
    }
}