{
    "cas_no": "1404-19-9",
    "key_name": "Oligomycin",
    "cn_name": "寡霉素;",
    "alternate_name": "Oligomycin",
    "duplicated_cas_no": "11098-49-0",
    "SMILES": "",
    "meta_data": {
        "InChI": "",
        "InChIKey": null,
        "Canonical SMILES": "",
        "Molecular Formula": "Unspecified",
        "Molecular Mass": "",
        "Melting Point": "135.8-136.3 °C",
        "Density": "1.143 g/cm³"
    }
}