{
    "uri": "substance/pt/1404199",
    "rn": "1404-19-9",
    "name": "Oligomycin",
    "images": [],
    "inchi": "",
    "inchiKey": "",
    "smile": "",
    "canonicalSmile": "",
    "molecularFormula": "Unspecified",
    "molecularMass": "",
    "experimentalProperties": [
        {
            "name": "Melting Point",
            "property": "135.8-136.3 °C",
            "sourceNumber": 1
        },
        {
            "name": "Density",
            "property": "1.143 g/cm³",
            "sourceNumber": 2
        }
    ],
    "propertyCitations": [
        {
            "docUri": "document/pt/document/17267385",
            "sourceNumber": 1,
            "source": "Smith, Robert M.; Antibiotics and Chemotherapy (Washington, D. C.), (1954), 4, 962-70, CAplus"
        },
        {
            "docUri": "document/pt/document/12206917",
            "sourceNumber": 2,
            "source": "Thompson, R. Q.; Anti-microbial Agents Chemotherapy, (1962), 1961, 474-80, CAplus"
        }
    ],
    "synonyms": [
        "Oligomycin"
    ],
    "replacedRns": [
        "11098-49-0"
    ],
    "hasMolfile": false,
    "source": "https://commonchemistry.cas.org/detail?cas_rn=1404-19-9"
}