{
    "cas_no": "83883-26-5",
    "key_name": "4-[[6-[(1-Oxo-2-propen-1-yl)oxy]hexyl]oxy]benzoic acid",
    "cn_name": "4-(6-(丙烯酰氧基)己氧基)苯甲酸;",
    "alternate_name": "Benzoic acid, 4-[[6-[(1-oxo-2-propen-1-yl)oxy]hexyl]oxy]-;Benzoic acid, 4-[[6-[(1-oxo-2-propenyl)oxy]hexyl]oxy]-;4-[[6-[(1-Oxo-2-propen-1-yl)oxy]hexyl]oxy]benzoic acid;4-[[6-(Acryloyloxy)hexyl]oxy]benzoic acid;4-(ω-Acryloyloxyhexyloxy)benzoic acid;4-(Acryloyloxyhexyloxy)benzoic acid;4-(6-Acryloyloxyhex-1-yloxy)benzoic acid;4-[[6-(Acryloxy)hexyl]oxy]benzoic acid;6OBA;4-(6-Acryloylhex-1-yloxy)benzoic acid;4-(6-Propenoyloxyhexyloxy)benzoic acid;4-(6′-Acryloyloxyhexyloxy)benzoic acid;6-(4-Carboxyphenoxy)-<em>n</em>-hexyl acrylate",
    "duplicated_cas_no": "122408-79-1;325976-46-3;1428334-18-2;2900294-48-4",
    "SMILES": "O(CCCCCCOC(C=C)=O)C1=CC=C(C(O)=O)C=C1",
    "meta_data": {
        "InChI": "InChI=1S/C16H20O5/c1-2-15(17)21-12-6-4-3-5-11-20-14-9-7-13(8-10-14)16(18)19/h2,7-10H,1,3-6,11-12H2,(H,18,19)",
        "InChIKey": null,
        "Canonical SMILES": "O=C(OCCCCCCOC1=CC=C(C=C1)C(=O)O)C=C",
        "Molecular Formula": "C<sub>16</sub>H<sub>20</sub>O<sub>5</sub>",
        "Molecular Mass": "292.33",
        "Melting Point": "92-93 °C"
    }
}