{
    "cas_no": "625-65-0",
    "key_name": "2,4-Dimethyl-2-pentene",
    "cn_name": "2,4-二甲基-2-戊烯;2,4,4-三甲基-2-丁烯;异丙基二甲基乙烯;",
    "alternate_name": "2-Pentene, 2,4-dimethyl-;2,4-Dimethyl-2-pentene;NSC 74139",
    "duplicated_cas_no": "",
    "SMILES": "C(C(C)C)=C(C)C",
    "meta_data": {
        "InChI": "InChI=1S/C7H14/c1-6(2)5-7(3)4/h5-6H,1-4H3",
        "InChIKey": null,
        "Canonical SMILES": "C(=C(C)C)C(C)C",
        "Molecular Formula": "C<sub>7</sub>H<sub>14</sub>",
        "Molecular Mass": "98.19",
        "Boiling Point": "83.4 °C",
        "Melting Point": "-127.7 °C",
        "Density": "0.7123 g/cm³ @ Temp: 0 °C"
    }
}