{
    "cas_no": "37865-86-4",
    "key_name": "6-Ethoxy-1<em>H</em>-indole",
    "cn_name": null,
    "alternate_name": "1<em>H</em>-Indole, 6-ethoxy-;Indole, 6-ethoxy-;6-Ethoxy-1<em>H</em>-indole;6-Ethoxyindole",
    "duplicated_cas_no": "",
    "SMILES": "O(CC)C=1C=C2C(=CC1)C=CN2",
    "meta_data": {
        "InChI": "InChI=1S/C10H11NO/c1-2-12-9-4-3-8-5-6-11-10(8)7-9/h3-7,11H,2H2,1H3",
        "InChIKey": null,
        "Canonical SMILES": "O(C=1C=CC=2C=CNC2C1)CC",
        "Molecular Formula": "C<sub>10</sub>H<sub>11</sub>NO",
        "Molecular Mass": "161.20",
        "Melting Point": "55 °C"
    }
}