{
    "cas_no": "4127-47-3",
    "key_name": "1,1,2,2-Tetramethylcyclopropane",
    "cn_name": "1,1,2,2-四甲基环丙烷;",
    "alternate_name": "Cyclopropane, 1,1,2,2-tetramethyl-;1,1,2,2-Tetramethylcyclopropane",
    "duplicated_cas_no": "",
    "SMILES": "CC1(C)C(C)(C)C1",
    "meta_data": {
        "InChI": "InChI=1S/C7H14/c1-6(2)5-7(6,3)4/h5H2,1-4H3",
        "InChIKey": null,
        "Canonical SMILES": "CC1(C)CC1(C)C",
        "Molecular Formula": "C<sub>7</sub>H<sub>14</sub>",
        "Molecular Mass": "98.19",
        "Boiling Point": "75 °C @ Press: 747 Torr",
        "Density": "0.7188 g/cm³ @ Temp: 20 °C"
    }
}