{
    "cas_no": "13067-19-1",
    "key_name": "<em>N</em>-1,3-Benzodioxol-5-ylacetamide",
    "cn_name": null,
    "alternate_name": "Acetamide, <em>N</em>-1,3-benzodioxol-5-yl-;Acetanilide, 3′,4′-(methylenedioxy)-;<em>N</em>-1,3-Benzodioxol-5-ylacetamide;<em>N</em>-(1,3-Benzodioxol-5-yl)acetamide;1-Acetamido-3,4-(methylenedioxy)benzene;3′,4′-(Methylenedioxy)acetanilide;3,4-Methylenedioxyacetanilide;NSC 159113;<em>N</em>-(Benzo[<em>d</em>][1,3]dioxol-5-yl)acetamide",
    "duplicated_cas_no": "",
    "SMILES": "N(C(C)=O)C=1C=C2C(=CC1)OCO2",
    "meta_data": {
        "InChI": "InChI=1S/C9H9NO3/c1-6(11)10-7-2-3-8-9(4-7)13-5-12-8/h2-4H,5H2,1H3,(H,10,11)",
        "InChIKey": null,
        "Canonical SMILES": "O=C(NC1=CC=C2OCOC2=C1)C",
        "Molecular Formula": "C<sub>9</sub>H<sub>9</sub>NO<sub>3</sub>",
        "Molecular Mass": "179.17",
        "Melting Point": "135-136 °C"
    }
}