{
    "cas_no": "5274-61-3",
    "key_name": "Diethylene glycol monohexadecyl ether",
    "cn_name": null,
    "alternate_name": "Ethanol, 2-[2-(hexadecyloxy)ethoxy]-;2-[2-(Hexadecyloxy)ethoxy]ethanol;Diethylene glycol monohexadecyl ether;Diethylene glycol hexadecyl ether;Polyoxyethylene(2) cetyl ether",
    "duplicated_cas_no": "",
    "SMILES": "C(CCCCCCCCCCC)CCCCOCCOCCO",
    "meta_data": {
        "InChI": "InChI=1S/C20H42O3/c1-2-3-4-5-6-7-8-9-10-11-12-13-14-15-17-22-19-20-23-18-16-21/h21H,2-20H2,1H3",
        "InChIKey": null,
        "Canonical SMILES": "OCCOCCOCCCCCCCCCCCCCCCC",
        "Molecular Formula": "C<sub>20</sub>H<sub>42</sub>O<sub>3</sub>",
        "Molecular Mass": "330.55",
        "Boiling Point": "154 °C @ Press: 0.02 Torr"
    }
}