{
    "cas_no": "7789-18-6",
    "key_name": "Cesium nitrate",
    "cn_name": "硝酸铯;",
    "alternate_name": "Nitric acid, cesium salt (1:1);Cesium nitrate;Nitric acid, cesium salt",
    "duplicated_cas_no": "",
    "SMILES": "N(=O)(=O)O.[Cs]",
    "meta_data": {
        "InChI": "InChI=1S/Cs.HNO3/c;2-1(3)4/h;(H,2,3,4)",
        "InChIKey": null,
        "Canonical SMILES": "[Cs].O=N(=O)O",
        "Molecular Formula": "Cs.HNO<sub>3</sub>",
        "Molecular Mass": "",
        "Melting Point": "245 °C",
        "Density": "3.6415 g/cm³ @ Temp: 15.15 °C"
    }
}