{
    "cas_no": "68694-11-1",
    "key_name": "Triflumizole",
    "cn_name": "1-[(1E)-1-[[4-氯-2-(三氟甲基)苯基]亚氨基]-2-丙氧基乙基]-(1H-咪唑);",
    "alternate_name": "Benzenamine, 4-chloro-<em>N</em>-[1-(1<em>H</em>-imidazol-1-yl)-2-propoxyethylidene]-2-(trifluoromethyl)-, [<em>N</em>(<em>E</em>)]-;1<em>H</em>-Imidazole, 1-[1-[[4-chloro-2-(trifluoromethyl)phenyl]imino]-2-propoxyethyl]-, (<em>E</em>)-;1<em>H</em>-Imidazole, 1-[(1<em>E</em>)-1-[[4-chloro-2-(trifluoromethyl)phenyl]imino]-2-propoxyethyl]-;[<em>N</em>(<em>E</em>)]-4-Chloro-<em>N</em>-[1-(1<em>H</em>-imidazol-1-yl)-2-propoxyethylidene]-2-(trifluoromethyl)benzenamine;Triflumizol;Triflumizole;Trifmine;NF 114;SSP 11;Procure;Condor;Trifumine;Trifumin;Terraguard;Procure (fungicide)",
    "duplicated_cas_no": "99387-89-0;99403-07-3;121280-28-2;124282-24-2;128395-88-0;136169-57-8;1135441-23-4",
    "SMILES": "C(F)(F)(F)C1=C(/N=C(\\COCCC)/N2C=CN=C2)C=CC(Cl)=C1",
    "meta_data": {
        "InChI": "InChI=1S/C15H15ClF3N3O/c1-2-7-23-9-14(22-6-5-20-10-22)21-13-4-3-11(16)8-12(13)15(17,18)19/h3-6,8,10H,2,7,9H2,1H3/b21-14+",
        "InChIKey": null,
        "Canonical SMILES": "FC(F)(F)C1=CC(Cl)=CC=C1N=C(N2C=NC=C2)COCCC",
        "Molecular Formula": "C<sub>15</sub>H<sub>15</sub>ClF<sub>3</sub>N<sub>3</sub>O",
        "Molecular Mass": "345.75",
        "Melting Point": "63 °C",
        "Density": "1.4 g/cm³"
    }
}