{
    "cas_no": "21622-01-5",
    "key_name": "3-Cyclopentene-1-carboxylic acid, ethyl ester",
    "cn_name": "3-环戊烯-1-甲酸乙酯;",
    "alternate_name": "3-Cyclopentene-1-carboxylic acid, ethyl ester;Ethyl cyclopent-3-enecarboxylate;Ethyl 3-cyclopentene-1-carboxylate",
    "duplicated_cas_no": "",
    "SMILES": "C(OCC)(=O)C1CC=CC1",
    "meta_data": {
        "InChI": "InChI=1S/C8H12O2/c1-2-10-8(9)7-5-3-4-6-7/h3-4,7H,2,5-6H2,1H3",
        "InChIKey": null,
        "Canonical SMILES": "O=C(OCC)C1CC=CC1",
        "Molecular Formula": "C<sub>8</sub>H<sub>12</sub>O<sub>2</sub>",
        "Molecular Mass": "140.18",
        "Boiling Point": "89-93 °C @ Press: 40 Torr"
    }
}