{
    "cas_no": "21314-17-0",
    "key_name": "1,5-Dihydro-1-phenyl-4<em>H</em>-pyrazolo[3,4-<em>d</em>]pyrimidin-4-one",
    "cn_name": "4-羟基-1-苯基吡唑并[3,4-D]嘧啶;",
    "alternate_name": "4<em>H</em>-Pyrazolo[3,4-<em>d</em>]pyrimidin-4-one, 1,5-dihydro-1-phenyl-;1<em>H</em>-Pyrazolo[3,4-<em>d</em>]pyrimidin-4-ol, 1-phenyl-;1,5-Dihydro-1-phenyl-4<em>H</em>-pyrazolo[3,4-<em>d</em>]pyrimidin-4-one;1-Phenylallopurinol;4-Hydroxy-1-phenylpyrazolo[3,4-<em>d</em>]pyrimidine;NSC 3954;1-Phenyl-1<em>H</em>-pyrazolo[3,4-<em>d</em>]pyrimidin-4-ol;1-Phenyl-1,5-dihydro-4<em>H</em>-pyrazolo[3,4-<em>d</em>]pyrimidin-4-one;1-Phenyl-1<em>H</em>-Pyrazolo[3,4-<em>d</em>]pyrimidine-4-ol;1-Phenyl-1<em>H</em>,4<em>H</em>,5<em>H</em>-pyrazolo[3,4-<em>d</em>]pyrimidin-4-one",
    "duplicated_cas_no": "",
    "SMILES": "O=C1C2=C(N(N=C2)C3=CC=CC=C3)NC=N1",
    "meta_data": {
        "InChI": "InChI=1S/C11H8N4O/c16-11-9-6-14-15(10(9)12-7-13-11)8-4-2-1-3-5-8/h1-7H,(H,12,13,16)",
        "InChIKey": null,
        "Canonical SMILES": "O=C1N=CNC2=C1C=NN2C=3C=CC=CC3",
        "Molecular Formula": "C<sub>11</sub>H<sub>8</sub>N<sub>4</sub>O",
        "Molecular Mass": "212.21",
        "Melting Point": "299 °C"
    }
}