{
    "cas_no": "5382-17-2",
    "key_name": "4-Hydroxypiperidine hydrochloride",
    "cn_name": "4-羟基哌啶盐酸盐;",
    "alternate_name": "4-Piperidinol, hydrochloride (1:1);4-Piperidinol, hydrochloride;4-Hydroxypiperidine hydrochloride",
    "duplicated_cas_no": "",
    "SMILES": "OC1CCNCC1.Cl",
    "meta_data": {
        "InChI": "InChI=1S/C5H11NO.ClH/c7-5-1-3-6-4-2-5;/h5-7H,1-4H2;1H",
        "InChIKey": null,
        "Canonical SMILES": "Cl.OC1CCNCC1",
        "Molecular Formula": "C<sub>5</sub>H<sub>11</sub>NO.ClH",
        "Molecular Mass": "",
        "Melting Point": "147-149 °C"
    }
}