{
    "cas_no": "36215-07-3",
    "key_name": "1-Chloro-3-methoxypropane",
    "cn_name": "3-氯丙基甲基醚;",
    "alternate_name": "Propane, 1-chloro-3-methoxy-;Ether, 3-chloropropyl methyl;1-Chloro-3-methoxypropane;3-Chloro-1-methoxypropane;3-Chloropropyl methyl ether;3-Methoxypropyl chloride;3-Methoxy-1-chloropropane;Methyl 3-chloropropyl ether",
    "duplicated_cas_no": "",
    "SMILES": "C(COC)CCl",
    "meta_data": {
        "InChI": "InChI=1S/C4H9ClO/c1-6-4-2-3-5/h2-4H2,1H3",
        "InChIKey": null,
        "Canonical SMILES": "ClCCCOC",
        "Molecular Formula": "C<sub>4</sub>H<sub>9</sub>ClO",
        "Molecular Mass": "108.57",
        "Boiling Point": "111 °C",
        "Melting Point": "110-112 °C",
        "Density": "1.0009 g/cm³ @ Temp: 20 °C"
    }
}