{
    "cas_no": "98-32-8",
    "key_name": "2-Aminophenol-4-sulfonamide",
    "cn_name": "2-氨基-4-磺酰胺基苯酚;2-氨基苯酚-4-磺酰胺;",
    "alternate_name": "Benzenesulfonamide, 3-amino-4-hydroxy-;Metanilamide, 4-hydroxy-;1-Phenol-4-sulfonamide, 2-amino-;3-Amino-4-hydroxybenzenesulfonamide;<em>o</em>-Aminophenol-<em>p</em>-sulfonamide;2-Aminophenol-4-sulfonamide;2-Amino-4-sulfamoylphenol;2-Amino-1-hydroxy-4-benzenesulfonamide;4-Hydroxymetanilamide;NSC 4976;3-Amino-4-hydroxyphenylsulfonamide;3-Amino-4-hydroxybenzene-1-sulfonamide",
    "duplicated_cas_no": "",
    "SMILES": "S(N)(=O)(=O)C1=CC(N)=C(O)C=C1",
    "meta_data": {
        "InChI": "InChI=1S/C6H8N2O3S/c7-5-3-4(12(8,10)11)1-2-6(5)9/h1-3,9H,7H2,(H2,8,10,11)",
        "InChIKey": null,
        "Canonical SMILES": "O=S(=O)(N)C1=CC=C(O)C(N)=C1",
        "Molecular Formula": "C<sub>6</sub>H<sub>8</sub>N<sub>2</sub>O<sub>3</sub>S",
        "Molecular Mass": "188.20",
        "Melting Point": "202 °C"
    }
}