{
    "cas_no": "83-73-8",
    "key_name": "5,7-Diiodo-8-hydroxyquinoline",
    "cn_name": "5,7-二碘-8-羟基喹啉;双碘羟喹;双碘喹;",
    "alternate_name": "8-Quinolinol, 5,7-diiodo-;5,7-Diiodo-8-quinolinol;Diiodohydroxyquin;Diiodohydroxyquinoline;5,7-Diiodooxine;Diiodoquin;5,7-Diiodo-8-hydroxyquinoline;Dinoleine;Diodohydroxyquin;Diodoquin;Diodoxylin;Di-Quinol;Direxiode;Disoquin;Dyodin;Embequin;Enterosept;Floraquin;8-Hydroxy-5,7-diiodoquinoline;Lanodoxin;Moebiquin;Quinadome;Searlequin;Sebaquin;Zoaquin;Yodoxin;Enterodiamoebin;Diamoebin;Iodoquinol;Diiodoquinol;SS 578;Rafamebin;Ioquin;Searlewuin;Stanquinate;NSC 74939;NSC 8704;Iodoquin;MeSH ID: D004103",
    "duplicated_cas_no": "",
    "SMILES": "OC=1C2=C(C(I)=CC1I)C=CC=N2",
    "meta_data": {
        "InChI": "InChI=1S/C9H5I2NO/c10-6-4-7(11)9(13)8-5(6)2-1-3-12-8/h1-4,13H",
        "InChIKey": null,
        "Canonical SMILES": "IC1=CC(I)=C2C=CC=NC2=C1O",
        "Molecular Formula": "C<sub>9</sub>H<sub>5</sub>I<sub>2</sub>NO",
        "Molecular Mass": "396.95",
        "Melting Point": "210 °C"
    }
}