{
    "cas_no": "554-95-0",
    "key_name": "1,3,5-Benzenetricarboxylic acid",
    "cn_name": "均苯三酸;均苯三甲酸;",
    "alternate_name": "1,3,5-Benzenetricarboxylic acid;Trimesic acid;Trimesinic acid;Trimesitinic acid;5-Carboxyisophthalic acid;1,3,5-Tricarboxybenzene;NSC 3998;B 0043;Benzene-1,3,5-tricarboxylic acid",
    "duplicated_cas_no": "1585941-71-4;2634727-14-1",
    "SMILES": "C(O)(=O)C1=CC(C(O)=O)=CC(C(O)=O)=C1",
    "meta_data": {
        "InChI": "InChI=1S/C9H6O6/c10-7(11)4-1-5(8(12)13)3-6(2-4)9(14)15/h1-3H,(H,10,11)(H,12,13)(H,14,15)",
        "InChIKey": null,
        "Canonical SMILES": "O=C(O)C=1C=C(C=C(C1)C(=O)O)C(=O)O",
        "Molecular Formula": "C<sub>9</sub>H<sub>6</sub>O<sub>6</sub>",
        "Molecular Mass": "210.14",
        "Boiling Point": "180-181 °C @ Press: 16 Torr",
        "Melting Point": "&gt;300 °C"
    }
}