{
    "cas_no": "6424-12-0",
    "key_name": "α-<span class=\"text-smallcaps\">D</smallcap>-Glucopyranoside, 1,3,4,6-tetra-<em>O</em>-acetyl-β-<smallcap>D</smallcap>-fructofuranosyl <em>O</em>-2,3,4,6-tetra-<em>O</em>-acetyl-α-<smallcap>D</span>-galactopyranosyl-(1→6)-, 2,3,4-triacetate",
    "cn_name": "D-(-)-十一烷酸乙酯棉子糖;",
    "alternate_name": "α-<span class=\"text-smallcaps\">D</smallcap>-Glucopyranoside, 1,3,4,6-tetra-<em>O</em>-acetyl-β-<smallcap>D</smallcap>-fructofuranosyl <em>O</em>-2,3,4,6-tetra-<em>O</em>-acetyl-α-<smallcap>D</span>-galactopyranosyl-(1→6)-, 2,3,4-triacetate;Raffinose, undecaacetate;α-<span class=\"text-smallcaps\">D</smallcap>-Glucopyranoside, 1,3,4,6-tetra-<em>O</em>-acetyl-β-<smallcap>D</smallcap>-fructofuranosyl <em>O</em>-2,3,4,6-tetra-<em>O</em>-acetyl-α-<smallcap>D</span>-galactopyranosyl-(1→6)-, triacetate;Raffinose hendecaacetate;Raffinose peracetate",
    "duplicated_cas_no": "1656986-85-4",
    "SMILES": "O([C@@]1(COC(C)=O)[C@@H](OC(C)=O)[C@H](OC(C)=O)[C@@H](COC(C)=O)O1)[C@@H]2[C@H](OC(C)=O)[C@@H](OC(C)=O)[C@H](OC(C)=O)[C@@H](CO[C@@H]3[C@H](OC(C)=O)[C@@H](OC(C)=O)[C@@H](OC(C)=O)[C@@H](COC(C)=O)O3)O2",
    "meta_data": {
        "InChI": "InChI=1S/C40H54O27/c1-16(41)52-12-27-30(56-19(4)44)33(59-22(7)47)35(61-24(9)49)38(64-27)54-13-28-31(57-20(5)45)34(60-23(8)48)36(62-25(10)50)39(65-28)67-40(15-55-18(3)43)37(63-26(11)51)32(58-21(6)46)29(66-40)14-53-17(2)42/h27-39H,12-15H2,1-11H3/t27-,28-,29-,30+,31-,32-,33+,34+,35-,36-,37+,38+,39-,40+/m1/s1",
        "InChIKey": null,
        "Canonical SMILES": "O=C(OCC1OC(OCC2OC(OC3(OC(COC(=O)C)C(OC(=O)C)C3OC(=O)C)COC(=O)C)C(OC(=O)C)C(OC(=O)C)C2OC(=O)C)C(OC(=O)C)C(OC(=O)C)C1OC(=O)C)C",
        "Molecular Formula": "C<sub>40</sub>H<sub>54</sub>O<sub>27</sub>",
        "Molecular Mass": "966.84",
        "Boiling Point": "215-220 °C @ Press: 3 x 10<sup>-4</sup> Torr",
        "Melting Point": "99 °C"
    }
}