{
    "cas_no": "877179-04-9",
    "key_name": "3′,4′-Dichloro-5-fluoro[1,1′-biphenyl]-2-amine",
    "cn_name": null,
    "alternate_name": "[1,1′-Biphenyl]-2-amine, 3′,4′-dichloro-5-fluoro-;3′,4′-Dichloro-5-fluoro[1,1′-biphenyl]-2-amine;2-(3,4-Dichlorophenyl)-4-fluoroaniline;3′,4′-Dichloro-5-fluorobiphenyl-2-amine;3′,4′-Dichloro-5-fluorobiphenyl-2-ylamine;3′,4′-Dichloro-2-amino-5-fluorobiphenyl",
    "duplicated_cas_no": "",
    "SMILES": "NC1=C(C2=CC(Cl)=C(Cl)C=C2)C=C(F)C=C1",
    "meta_data": {
        "InChI": "InChI=1S/C12H8Cl2FN/c13-10-3-1-7(5-11(10)14)9-6-8(15)2-4-12(9)16/h1-6H,16H2",
        "InChIKey": null,
        "Canonical SMILES": "FC1=CC=C(N)C(=C1)C=2C=CC(Cl)=C(Cl)C2",
        "Molecular Formula": "C<sub>12</sub>H<sub>8</sub>Cl<sub>2</sub>FN",
        "Molecular Mass": "256.10",
        "Melting Point": "55-58 °C"
    }
}