{
    "cas_no": "602-41-5",
    "key_name": "Thiocolchicoside",
    "cn_name": "硫秋水仙苷;",
    "alternate_name": "Acetamide, <em>N</em>-[(7<em>S</em>)-3-(β-<span class=\"text-smallcaps\">D</span>-glucopyranosyloxy)-5,6,7,9-tetrahydro-1,2-dimethoxy-10-(methylthio)-9-oxobenzo[<em>a</em>]heptalen-7-yl]-;Colchicoside, 10-thio-;Acetamide, <em>N</em>-[3-(β-<span class=\"text-smallcaps\">D</span>-glucopyranosyloxy)-5,6,7,9-tetrahydro-1,2-dimethoxy-10-(methylthio)-9-oxobenzo[<em>a</em>]heptalen-7-yl]-, (<em>S</em>)-;Colchicoside, thio-;Benzo[<em>a</em>]heptalene, acetamide deriv.;<em>N</em>-[(7<em>S</em>)-3-(β-<span class=\"text-smallcaps\">D</span>-Glucopyranosyloxy)-5,6,7,9-tetrahydro-1,2-dimethoxy-10-(methylthio)-9-oxobenzo[<em>a</em>]heptalen-7-yl]acetamide;R 271;Thiocolchicoside;Coltramyl;Muscoril;2-Demethoxy-2-glucosidoxythiocolchicine;Miorel;Coltrax;NSC 147755;Miotens;Thiocholshikoside;Etoshine MR",
    "duplicated_cas_no": "24568-37-4;27133-72-8;1309596-52-8",
    "SMILES": "O(C)C1=C2C=3C([C@@H](NC(C)=O)CCC2=CC(O[C@@H]4O[C@H](CO)[C@@H](O)[C@H](O)[C@H]4O)=C1OC)=CC(=O)C(SC)=CC3",
    "meta_data": {
        "InChI": "InChI=1S/C27H33NO10S/c1-12(30)28-16-7-5-13-9-18(37-27-24(34)23(33)22(32)19(11-29)38-27)25(35-2)26(36-3)21(13)14-6-8-20(39-4)17(31)10-15(14)16/h6,8-10,16,19,22-24,27,29,32-34H,5,7,11H2,1-4H3,(H,28,30)/t16-,19+,22+,23-,24+,27+/m0/s1",
        "InChIKey": null,
        "Canonical SMILES": "O=C1C=C2C(=CC=C1SC)C3=C(OC)C(OC)=C(OC4OC(CO)C(O)C(O)C4O)C=C3CCC2NC(=O)C",
        "Molecular Formula": "C<sub>27</sub>H<sub>33</sub>NO<sub>10</sub>S",
        "Molecular Mass": "563.62",
        "Melting Point": "220 °C (decomp)"
    }
}