{
    "cas_no": "74223-64-6",
    "key_name": "Metsulfuron-methyl",
    "cn_name": "甲磺隆;3-(4-甲氧基-6-甲基-1,3,5-三嗪-2-基)-1-(2-甲氧基甲酰基苯基)磺酰脲;",
    "alternate_name": "Benzoic acid, 2-[[[[(4-methoxy-6-methyl-1,3,5-triazin-2-yl)amino]carbonyl]amino]sulfonyl]-, methyl ester;DPD 63760H;DPX 6376;Metsulfuron-methyl;DPX-T 6376;Gropper;Escort;Ally 20DF;Ally;T 6376;Brush-off;<em>N</em>-[(2-Methoxycarbonyl)phenyl]sulfonyl-<em>N</em>′-(6-methoxy-4-methyl-2-triazinyl)urea;HCHA 92HA;Escort (pesticide);Saber DF;Strech 60VP;Grench;Laren;Ally XP;Algrip;Cimarron;MSM Turf;Accurate 60VG;Allie SX;Zinger;Zinger WP",
    "duplicated_cas_no": "82197-07-7;860461-33-2",
    "SMILES": "S(NC(NC=1N=C(OC)N=C(C)N1)=O)(=O)(=O)C2=C(C(OC)=O)C=CC=C2",
    "meta_data": {
        "InChI": "InChI=1S/C14H15N5O6S/c1-8-15-12(18-14(16-8)25-3)17-13(21)19-26(22,23)10-7-5-4-6-9(10)11(20)24-2/h4-7H,1-3H3,(H2,15,16,17,18,19,21)",
        "InChIKey": null,
        "Canonical SMILES": "O=C(OC)C=1C=CC=CC1S(=O)(=O)NC(=O)NC2=NC(=NC(=N2)C)OC",
        "Molecular Formula": "C<sub>14</sub>H<sub>15</sub>N<sub>5</sub>O<sub>6</sub>S",
        "Molecular Mass": "381.36",
        "Melting Point": "163-166 °C"
    }
}