{
    "cas_no": "876189-20-7",
    "key_name": "2-Furancarboxylic acid, 5-borono-, 2-methyl ester",
    "cn_name": null,
    "alternate_name": "2-Furancarboxylic acid, 5-borono-, 2-methyl ester;[5-(Methoxycarbonyl)-2-furyl]boronic acid;5-(Methoxycarbonyl)furan-2-ylboronic acid;Methyl 5-boronofuran-2-carboxylate",
    "duplicated_cas_no": "",
    "SMILES": "C(OC)(=O)C=1OC(B(O)O)=CC1",
    "meta_data": {
        "InChI": "InChI=1S/C6H7BO5/c1-11-6(8)4-2-3-5(12-4)7(9)10/h2-3,9-10H,1H3",
        "InChIKey": null,
        "Canonical SMILES": "O=C(OC)C=1OC(=CC1)B(O)O",
        "Molecular Formula": "C<sub>6</sub>H<sub>7</sub>BO<sub>5</sub>",
        "Molecular Mass": "169.93",
        "Melting Point": "128 °C"
    }
}