{
    "cas_no": "7144-08-3",
    "key_name": "Cholesteryl chloroformate",
    "cn_name": "胆固醇甲酰氯;氯甲酸胆固醇酯;",
    "alternate_name": "Cholest-5-en-3-ol (3β)-, 3-(carbonochloridate);Cholesterol, chloroformate;Cholest-5-en-3-ol (3β)-, carbonochloridate;Formic acid, chloro-, cholesteryl ester;Cholesteryl chloroformate;(Cholesteryloxy)carbonyl chloride;3-Cholesteryl chloroformate;Cholesteryl chlorocarbonate;Cholesterol carbonochloridate;Cholesterol chlorocarbonate;Cholest-5-en-3β-ol chloroformate;NSC 59689;3β-[(Chlorocarbonyl)oxy]-5-cholestene",
    "duplicated_cas_no": "870637-57-3",
    "SMILES": "C[C@@]12[C@@]3([C@]([C@]4([C@](C)(CC3)[C@@]([C@@H](CCCC(C)C)C)(CC4)[H])[H])(CC=C1C[C@@H](OC(Cl)=O)CC2)[H])[H]",
    "meta_data": {
        "InChI": "InChI=1S/C28H45ClO2/c1-18(2)7-6-8-19(3)23-11-12-24-22-10-9-20-17-21(31-26(29)30)13-15-27(20,4)25(22)14-16-28(23,24)5/h9,18-19,21-25H,6-8,10-17H2,1-5H3/t19-,21+,22+,23-,24+,25+,27+,28-/m1/s1",
        "InChIKey": null,
        "Canonical SMILES": "O=C(Cl)OC1CC2=CCC3C(CCC4(C)C(CCC34)C(C)CCCC(C)C)C2(C)CC1",
        "Molecular Formula": "C<sub>28</sub>H<sub>45</sub>ClO<sub>2</sub>",
        "Molecular Mass": "449.11",
        "Melting Point": "117-118 °C"
    }
}