{
    "cas_no": "3302-10-1",
    "key_name": "3,5,5-Trimethylhexanoic acid",
    "cn_name": "3,5,5-三甲基己酸;异壬酸;",
    "alternate_name": "Hexanoic acid, 3,5,5-trimethyl-;3,5,5-Trimethylhexanoic acid;3,5,5-Trimethyl-<em>n</em>-hexanoic acid;3,5,5-Trimethylcaproic acid;Kyowanoic N;NSC 52185",
    "duplicated_cas_no": "",
    "SMILES": "C(C(C)(C)C)C(CC(O)=O)C",
    "meta_data": {
        "InChI": "InChI=1S/C9H18O2/c1-7(5-8(10)11)6-9(2,3)4/h7H,5-6H2,1-4H3,(H,10,11)",
        "InChIKey": null,
        "Canonical SMILES": "O=C(O)CC(C)CC(C)(C)C",
        "Molecular Formula": "C<sub>9</sub>H<sub>18</sub>O<sub>2</sub>",
        "Molecular Mass": "158.24",
        "Boiling Point": "80-85 °C @ Press: 3 Torr",
        "Density": "0.91 g/cm³ (liquid)"
    }
}