{
    "cas_no": "14465-68-0",
    "key_name": "Trilinolenin",
    "cn_name": "三亚麻精;",
    "alternate_name": "9,12,15-Octadecatrienoic acid, 1,1′,1′′-(1,2,3-propanetriyl) ester, (9<em>Z</em>,9′<em>Z</em>,9′′<em>Z</em>,12<em>Z</em>,12′<em>Z</em>,12′′<em>Z</em>,15<em>Z</em>,15′<em>Z</em>,15′′<em>Z</em>)-;Linolenin, tri-;9,12,15-Octadecatrienoic acid, 1,2,3-propanetriyl ester, (<em>all</em>-<em>Z</em>)-;9,12,15-Octadecatrienoic acid, 1,2,3-propanetriyl ester, (9<em>Z</em>,9′<em>Z</em>,9′′<em>Z</em>,12<em>Z</em>,12′<em>Z</em>,12′′<em>Z</em>,15<em>Z</em>,15′<em>Z</em>,15′′<em>Z</em>)-;Trilinolenin;Glycerol trilinolenate;Trilinolenic glyceride;Glyceryl trilinolenate;Trilinolenoylglycerol;Tri-α-linolenin;Triglyceride LnLnLn;Linolenic acid triglyceride;C54:9",
    "duplicated_cas_no": "195814-28-9;1704716-04-0",
    "SMILES": "C(OC(CCCCCCC/C=C\\C/C=C\\C/C=C\\CC)=O)(COC(CCCCCCC/C=C\\C/C=C\\C/C=C\\CC)=O)COC(CCCCCCC/C=C\\C/C=C\\C/C=C\\CC)=O",
    "meta_data": {
        "InChI": "InChI=1S/C57H92O6/c1-4-7-10-13-16-19-22-25-28-31-34-37-40-43-46-49-55(58)61-52-54(63-57(60)51-48-45-42-39-36-33-30-27-24-21-18-15-12-9-6-3)53-62-56(59)50-47-44-41-38-35-32-29-26-23-20-17-14-11-8-5-2/h7-12,16-21,25-30,54H,4-6,13-15,22-24,31-53H2,1-3H3/b10-7-,11-8-,12-9-,19-16-,20-17-,21-18-,28-25-,29-26-,30-27-",
        "InChIKey": null,
        "Canonical SMILES": "O=C(OCC(OC(=O)CCCCCCCC=CCC=CCC=CCC)COC(=O)CCCCCCCC=CCC=CCC=CCC)CCCCCCCC=CCC=CCC=CCC",
        "Molecular Formula": "C<sub>57</sub>H<sub>92</sub>O<sub>6</sub>",
        "Molecular Mass": "873.34",
        "Melting Point": "-23-24 °C",
        "Density": "0.9591 g/cm³ @ Temp: 20 °C"
    }
}