{
    "cas_no": "138517-66-5",
    "key_name": "(11<em>S</em>,12<em>S</em>)-9,10-Dihydro-9,10-ethanoanthracene-11,12-diamine",
    "cn_name": null,
    "alternate_name": "9,10-Ethanoanthracene-11,12-diamine, 9,10-dihydro-, (11<em>S</em>,12<em>S</em>)-;9,10-Ethanoanthracene-11,12-diamine, 9,10-dihydro-, (11<em>S</em>-<em>trans</em>)-;(11<em>S</em>,12<em>S</em>)-9,10-Dihydro-9,10-ethanoanthracene-11,12-diamine",
    "duplicated_cas_no": "",
    "SMILES": "N[C@H]1C2C=3C(C(C=4C2=CC=CC4)[C@@H]1N)=CC=CC3",
    "meta_data": {
        "InChI": "InChI=1S/C16H16N2/c17-15-13-9-5-1-2-6-10(9)14(16(15)18)12-8-4-3-7-11(12)13/h1-8,13-16H,17-18H2/t13?,14?,15-,16-/m0/s1",
        "InChIKey": null,
        "Canonical SMILES": "NC1C(N)C2C=3C=CC=CC3C1C=4C=CC=CC42",
        "Molecular Formula": "C<sub>16</sub>H<sub>16</sub>N<sub>2</sub>",
        "Molecular Mass": "236.31",
        "Melting Point": "152.5-153.9 °C"
    }
}