{
    "cas_no": "2613-26-5",
    "key_name": "(<em>OC</em>-6-21)-Pentafluoro(3-nitrophenyl)sulfur",
    "cn_name": "3-硝基苯基五氟化硫;五氟化(3-硝基苯基)硫;3-硝基苯基五氟化硫;3-硝基苯基五氟化硫,95%;间硝基苯基五氟化硫;",
    "alternate_name": "Sulfur, pentafluoro(3-nitrophenyl)-, (<em>OC</em>-6-21)-;Sulfur, pentafluoro(<em>m</em>-nitrophenyl)-;(<em>m</em>-Nitrophenyl)sulfur pentafluoride;(<em>OC</em>-6-21)-Pentafluoro(3-nitrophenyl)sulfur;(3-Nitrophenyl)sulfur pentafluoride;3-(Pentafluorosulfanyl)nitrobenzene;1-Nitro-3-(pentafluorosulfanyl)benzene;3-(Pentafluorosulfanyl)-1-nitrobenzene",
    "duplicated_cas_no": "",
    "SMILES": "S(F)(F)(F)(F)(F)C1=CC(N(=O)=O)=CC=C1",
    "meta_data": {
        "InChI": "InChI=1S/C6H4F5NO2S/c7-15(8,9,10,11)6-3-1-2-5(4-6)12(13)14/h1-4H",
        "InChIKey": null,
        "Canonical SMILES": "O=N(=O)C1=CC=CC(=C1)S(F)(F)(F)(F)F",
        "Molecular Formula": "C<sub>6</sub>H<sub>4</sub>F<sub>5</sub>NO<sub>2</sub>S",
        "Molecular Mass": "249.16",
        "Boiling Point": "85.5 °C @ Press: 2.6 Torr",
        "Melting Point": "0 °C"
    }
}