{
    "cas_no": "73776-25-7",
    "key_name": "2-Chloro-3-quinolinecarboxylic acid",
    "cn_name": null,
    "alternate_name": "3-Quinolinecarboxylic acid, 2-chloro-;2-Chloro-3-quinolinecarboxylic acid",
    "duplicated_cas_no": "",
    "SMILES": "C(O)(=O)C1=CC2=C(N=C1Cl)C=CC=C2",
    "meta_data": {
        "InChI": "InChI=1S/C10H6ClNO2/c11-9-7(10(13)14)5-6-3-1-2-4-8(6)12-9/h1-5H,(H,13,14)",
        "InChIKey": null,
        "Canonical SMILES": "O=C(O)C=1C=C2C=CC=CC2=NC1Cl",
        "Molecular Formula": "C<sub>10</sub>H<sub>6</sub>ClNO<sub>2</sub>",
        "Molecular Mass": "207.61",
        "Melting Point": "200 °C (decomp)"
    }
}