{
    "cas_no": "613-87-6",
    "key_name": "(<em>S</em>)-1-Phenylpropanol",
    "cn_name": "S(-)-1-苯基-1-丙醇;",
    "alternate_name": "Benzenemethanol, α-ethyl-, (α<em>S</em>)-;Benzenemethanol, α-ethyl-, (<em>S</em>)-;Benzyl alcohol, α-ethyl-, (<em>S</em>)-(-)-;(α<em>S</em>)-α-Ethylbenzenemethanol;(-)-α-Ethylbenzyl alcohol;(-)-1-Phenylpropyl alcohol;(<em>S</em>)-1-Phenylpropanol;(-)-1-Phenylpropan-1-ol;(<em>S</em>)-1-Phenylpropan-1-ol;(<em>S</em>)-(-)-1-Phenyl-1-propanol;(<em>S</em>)-Phenylethylcarbinol;(<em>S</em>)-α-Ethylbenzyl alcohol;(<em>S</em>)-α-Hydroxypropylbenzene;(-)-α-Phenylpropanol;(<em>S</em>)-α-Ethylbenzenemethanol;(-)-1-Phenylpropanol;(1<em>S</em>)-1-Phenyl-1-propanol;(1S)-1-Phenylpropan-1-ol",
    "duplicated_cas_no": "",
    "SMILES": "[C@@H](CC)(O)C1=CC=CC=C1",
    "meta_data": {
        "InChI": "InChI=1S/C9H12O/c1-2-9(10)8-6-4-3-5-7-8/h3-7,9-10H,2H2,1H3/t9-/m0/s1",
        "InChIKey": null,
        "Canonical SMILES": "OC(C=1C=CC=CC1)CC",
        "Molecular Formula": "C<sub>9</sub>H<sub>12</sub>O",
        "Molecular Mass": "136.19",
        "Boiling Point": "61 °C @ Press: 0.2 Torr"
    }
}