{
    "cas_no": "10340-91-7",
    "key_name": "Benzyl isocyanide",
    "cn_name": "苄异腈;",
    "alternate_name": "Benzene, (isocyanomethyl)-;Benzyl isocyanide;(Isocyanomethyl)benzene;Benzyl isonitrile",
    "duplicated_cas_no": "2546342-30-5",
    "SMILES": "C([N+]#[C-])C1=CC=CC=C1",
    "meta_data": {
        "InChI": "InChI=1S/C8H7N/c1-9-7-8-5-3-2-4-6-8/h2-6H,7H2",
        "InChIKey": null,
        "Canonical SMILES": "[C-]#[N+]CC=1C=CC=CC1",
        "Molecular Formula": "C<sub>8</sub>H<sub>7</sub>N",
        "Molecular Mass": "",
        "Boiling Point": "95-97 °C @ Press: 13 Torr"
    }
}