{
    "cas_no": "6602-34-2",
    "key_name": "2,4,6-Tribromo-3-pyridinol",
    "cn_name": null,
    "alternate_name": "3-Pyridinol, 2,4,6-tribromo-;2,4,6-Tribromo-3-pyridinol;2,4,6-Tribromo-3-hydroxypyridine",
    "duplicated_cas_no": "",
    "SMILES": "OC=1C(Br)=CC(Br)=NC1Br",
    "meta_data": {
        "InChI": "InChI=1S/C5H2Br3NO/c6-2-1-3(7)9-5(8)4(2)10/h1,10H",
        "InChIKey": null,
        "Canonical SMILES": "BrC=1N=C(Br)C(O)=C(Br)C1",
        "Molecular Formula": "C<sub>5</sub>H<sub>2</sub>Br<sub>3</sub>NO",
        "Molecular Mass": "331.79",
        "Melting Point": "90.5-91 °C"
    }
}