{
    "cas_no": "13338-82-4",
    "key_name": "4-Aminocyclohexanemethanamine",
    "cn_name": "4-氨甲基环己胺;",
    "alternate_name": "Cyclohexanemethanamine, 4-amino-;Cyclohexanemethylamine, 4-amino-;4-Aminocyclohexanemethanamine;4-(Aminomethyl)cyclohexylamine;4-Aminomethyl-1-cyclohexanamine",
    "duplicated_cas_no": "",
    "SMILES": "C(N)C1CCC(N)CC1",
    "meta_data": {
        "InChI": "InChI=1S/C7H16N2/c8-5-6-1-3-7(9)4-2-6/h6-7H,1-5,8-9H2",
        "InChIKey": null,
        "Canonical SMILES": "NCC1CCC(N)CC1",
        "Molecular Formula": "C<sub>7</sub>H<sub>16</sub>N<sub>2</sub>",
        "Molecular Mass": "128.22",
        "Boiling Point": "102-103 °C @ Press: 15 Torr"
    }
}