{
    "cas_no": "1070-78-6",
    "key_name": "1,1,1,3-Tetrachloropropane",
    "cn_name": "1,1,1,3-四氯丙烷;",
    "alternate_name": "Propane, 1,1,1,3-tetrachloro-;1,1,1,3-Tetrachloropropane;HCC 250fb;HCC 250;1,3,3,3-Tetrachloropropane",
    "duplicated_cas_no": "",
    "SMILES": "C(C(Cl)(Cl)Cl)CCl",
    "meta_data": {
        "InChI": "InChI=1S/C3H4Cl4/c4-2-1-3(5,6)7/h1-2H2",
        "InChIKey": null,
        "Canonical SMILES": "ClCCC(Cl)(Cl)Cl",
        "Molecular Formula": "C<sub>3</sub>H<sub>4</sub>Cl<sub>4</sub>",
        "Molecular Mass": "181.88",
        "Boiling Point": "157 °C",
        "Density": "1.4463 g/cm³ @ Temp: 25 °C"
    }
}