{
    "cas_no": "16562-13-3",
    "key_name": "Stepholidine",
    "cn_name": null,
    "alternate_name": "6<em>H</em>-Dibenzo[<em>a</em>,<em>g</em>]quinolizine-2,10-diol, 5,8,13,13a-tetrahydro-3,9-dimethoxy-, (13a<em>S</em>)-;13aα-Berbine-2,10-diol, 3,9-dimethoxy-;6<em>H</em>-Dibenzo[<em>a</em>,<em>g</em>]quinolizine-2,10-diol, 5,8,13,13a-tetrahydro-3,9-dimethoxy-, (<em>S</em>)-;(13a<em>S</em>)-5,8,13,13a-Tetrahydro-3,9-dimethoxy-6<em>H</em>-dibenzo[<em>a</em>,<em>g</em>]quinolizine-2,10-diol;Stepholidine;(-)-Stepholidine;<em>l</em>-Stepholidine;Stopholidine;(13AS)-3,9-dimethoxy-6,8,13,13a-tetrahydro-5<em>H</em>-isoquinolino[2,1-<em>b</em>]isoquinoline-2,10-diol",
    "duplicated_cas_no": "",
    "SMILES": "OC=1C=C2[C@]3(N(CC=4C(C3)=CC=C(O)C4OC)CCC2=CC1OC)[H]",
    "meta_data": {
        "InChI": "InChI=1S/C19H21NO4/c1-23-18-8-12-5-6-20-10-14-11(3-4-16(21)19(14)24-2)7-15(20)13(12)9-17(18)22/h3-4,8-9,15,21-22H,5-7,10H2,1-2H3/t15-/m0/s1",
        "InChIKey": null,
        "Canonical SMILES": "OC1=CC=C2C(=C1OC)CN3CCC4=CC(OC)=C(O)C=C4C3C2",
        "Molecular Formula": "C<sub>19</sub>H<sub>21</sub>NO<sub>4</sub>",
        "Molecular Mass": "327.37",
        "Melting Point": "161-162 °C"
    }
}