{
    "cas_no": "614-34-6",
    "key_name": "4-Methylphenyl benzoate",
    "cn_name": "苯甲酸-4-甲基苯酯;",
    "alternate_name": "Benzoic acid, 4-methylphenyl ester;Benzoic acid, <em>p</em>-tolyl ester;4-Methylphenyl benzoate;<em>p</em>-Tolyl benzoate;<em>p</em>-Cresyl benzoate;<em>p</em>-Cresol benzoate;4-Cresyl benzoate;<em>p</em>-Methylphenyl benzoate;NSC 137593;NSC 8788",
    "duplicated_cas_no": "",
    "SMILES": "C(OC1=CC=C(C)C=C1)(=O)C2=CC=CC=C2",
    "meta_data": {
        "InChI": "InChI=1S/C14H12O2/c1-11-7-9-13(10-8-11)16-14(15)12-5-3-2-4-6-12/h2-10H,1H3",
        "InChIKey": null,
        "Canonical SMILES": "O=C(OC1=CC=C(C=C1)C)C=2C=CC=CC2",
        "Molecular Formula": "C<sub>14</sub>H<sub>12</sub>O<sub>2</sub>",
        "Molecular Mass": "212.24",
        "Boiling Point": "316 °C",
        "Melting Point": "71.5 °C"
    }
}