{
    "cas_no": "7433-78-5",
    "key_name": "(5<em>Z</em>)-5-Decene",
    "cn_name": "顺式-5-癸烯;",
    "alternate_name": "5-Decene, (5<em>Z</em>)-;5-Decene, (<em>Z</em>)-;(5<em>Z</em>)-5-Decene;<em>cis</em>-5-Decene;(<em>Z</em>)-5-Decene;ε-<em>cis</em>-Decene;5-<em>cis</em>-Decene;(Z)-5-Decene",
    "duplicated_cas_no": "",
    "SMILES": "C(=C\\CCCC)\\CCCC",
    "meta_data": {
        "InChI": "InChI=1S/C10H20/c1-3-5-7-9-10-8-6-4-2/h9-10H,3-8H2,1-2H3/b10-9-",
        "InChIKey": null,
        "Canonical SMILES": "C(=CCCCC)CCCC",
        "Molecular Formula": "C<sub>10</sub>H<sub>20</sub>",
        "Molecular Mass": "140.27",
        "Boiling Point": "171 °C",
        "Melting Point": "-112 °C",
        "Density": "0.74063 g/cm³ @ Temp: 25 °C"
    }
}