{
    "cas_no": "3862-25-7",
    "key_name": "7α-Hydroxy-4-cholesten-3-one",
    "cn_name": null,
    "alternate_name": "Cholest-4-en-3-one, 7-hydroxy-, (7α)-;Cholest-4-en-3-one, 7α-hydroxy-;(7α)-7-Hydroxycholest-4-en-3-one;7α-Hydroxycholest-4-en-3-one;7α-Hydroxy-4-cholesten-3-one",
    "duplicated_cas_no": "",
    "SMILES": "C[C@@]12[C@]([C@]3([C@@]([C@]4(C)C(C[C@H]3O)=CC(=O)CC4)(CC1)[H])[H])(CC[C@@]2([C@@H](CCCC(C)C)C)[H])[H]",
    "meta_data": {
        "InChI": "InChI=1S/C27H44O2/c1-17(2)7-6-8-18(3)21-9-10-22-25-23(12-14-27(21,22)5)26(4)13-11-20(28)15-19(26)16-24(25)29/h15,17-18,21-25,29H,6-14,16H2,1-5H3/t18-,21-,22+,23+,24-,25+,26+,27-/m1/s1",
        "InChIKey": null,
        "Canonical SMILES": "O=C1C=C2CC(O)C3C(CCC4(C)C(CCC34)C(C)CCCC(C)C)C2(C)CC1",
        "Molecular Formula": "C<sub>27</sub>H<sub>44</sub>O<sub>2</sub>",
        "Molecular Mass": "400.64",
        "Melting Point": "181-182 °C"
    }
}