{
    "cas_no": "583-42-6",
    "key_name": "5-Fluoro-1,3-dihydro-2<em>H</em>-benzimidazole-2-thione",
    "cn_name": null,
    "alternate_name": "2<em>H</em>-Benzimidazole-2-thione, 5-fluoro-1,3-dihydro-;2-Benzimidazolethiol, 5-fluoro-;2-Benzimidazolethiol, 5(<em>or</em> 6)-fluoro-;5-Fluoro-1,3-dihydro-2<em>H</em>-benzimidazole-2-thione;5-Fluoro-2-benzimidazolethiol;5-Fluoro-2-mercaptobenzimidazole;5-Fluoro-2-mercapto-1<em>H</em>-benzimidazole;5-Fluoro-1<em>H</em>-benzimidazole-2-thiol;5-Fluoro-1,3-dihydrobenzimidazole-2-thione",
    "duplicated_cas_no": "",
    "SMILES": "S=C1NC=2C(N1)=CC(F)=CC2",
    "meta_data": {
        "InChI": "InChI=1S/C7H5FN2S/c8-4-1-2-5-6(3-4)10-7(11)9-5/h1-3H,(H2,9,10,11)",
        "InChIKey": null,
        "Canonical SMILES": "FC1=CC=C2NC(=S)NC2=C1",
        "Molecular Formula": "C<sub>7</sub>H<sub>5</sub>FN<sub>2</sub>S",
        "Molecular Mass": "168.19",
        "Melting Point": "280 °C"
    }
}