{
    "cas_no": "7782-50-5",
    "key_name": "Chlorine",
    "cn_name": "氯;液氯;氯气;",
    "alternate_name": "Chlorine;Molecular chlorine;Chlorine mol.;Dichlorine;Diatomic chlorine;Chlorine molecule (Cl<sub>2</sub>);MeSH ID: D002713",
    "duplicated_cas_no": "",
    "SMILES": "ClCl",
    "meta_data": {
        "InChI": "InChI=1S/Cl2/c1-2",
        "InChIKey": null,
        "Canonical SMILES": "ClCl",
        "Molecular Formula": "Cl<sub>2</sub>",
        "Molecular Mass": "70.91",
        "Boiling Point": "-34.04 °C",
        "Melting Point": "-105.5 °C",
        "Density": "1.4 g/cm³ @ Temp: 20 °C; Press: 5210 Torr"
    }
}