{
    "cas_no": "19008-43-6",
    "key_name": "Benzoic acid, 4-amino-, phenylmethyl ester",
    "cn_name": "对氨基苯甲酸苄基酯;",
    "alternate_name": "Benzoic acid, 4-amino-, phenylmethyl ester;Benzoic acid, <em>p</em>-amino-, benzyl ester;4-Aminobenzoic acid benzyl ester;Benzyl <em>p</em>-aminobenzoate;<em>p</em>-(Benzyloxycarbonyl)aniline;Benzyl 4-aminobenzoate;Phenylmethyl 4-aminobenzoate;NSC 30685",
    "duplicated_cas_no": "",
    "SMILES": "C(OCC1=CC=CC=C1)(=O)C2=CC=C(N)C=C2",
    "meta_data": {
        "InChI": "InChI=1S/C14H13NO2/c15-13-8-6-12(7-9-13)14(16)17-10-11-4-2-1-3-5-11/h1-9H,10,15H2",
        "InChIKey": null,
        "Canonical SMILES": "O=C(OCC=1C=CC=CC1)C2=CC=C(N)C=C2",
        "Molecular Formula": "C<sub>14</sub>H<sub>13</sub>NO<sub>2</sub>",
        "Molecular Mass": "227.26",
        "Melting Point": "84.7 °C"
    }
}