{
    "cas_no": "4281-40-7",
    "key_name": "6,7-Dimethoxy-4-methyl-2<em>H</em>-1-benzopyran-2-one",
    "cn_name": null,
    "alternate_name": "2<em>H</em>-1-Benzopyran-2-one, 6,7-dimethoxy-4-methyl-;Coumarin, 6,7-dimethoxy-4-methyl-;6,7-Dimethoxy-4-methyl-2<em>H</em>-1-benzopyran-2-one;4-Methyl-6,7-dimethoxycoumarin;6,7-Dimethoxy-4-methylcoumarin;NSC 688797",
    "duplicated_cas_no": "",
    "SMILES": "CC=1C=2C(=CC(OC)=C(OC)C2)OC(=O)C1",
    "meta_data": {
        "InChI": "InChI=1S/C12H12O4/c1-7-4-12(13)16-9-6-11(15-3)10(14-2)5-8(7)9/h4-6H,1-3H3",
        "InChIKey": null,
        "Canonical SMILES": "O=C1OC=2C=C(OC)C(OC)=CC2C(=C1)C",
        "Molecular Formula": "C<sub>12</sub>H<sub>12</sub>O<sub>4</sub>",
        "Molecular Mass": "220.22",
        "Melting Point": "144 °C"
    }
}