{
    "cas_no": "38101-59-6",
    "key_name": "Thymogen",
    "cn_name": null,
    "alternate_name": "<span class=\"text-smallcaps\">L</smallcap>-Tryptophan, <smallcap>L</span>-α-glutamyl-;<span class=\"text-smallcaps\">L</smallcap>-Tryptophan, <em>N</em>-<smallcap>L</span>-α-glutamyl-;<span class=\"text-smallcaps\">L</smallcap>-α-Glutamyl-<smallcap>L</span>-tryptophan;Glutamyltryptophan;Thymogen;Timogen;IM 862;Oglufanide;<span class=\"text-smallcaps\">L</smallcap>-Glutamyl-<smallcap>L</span>-tryptophan;NSC 334073;262: PN: EP2161028 PAGE: 12 claimed protein;13: PN: JP2010248096 PAGE: 2 claimed protein;199: PN: WO2011146121 PAGE: 117 claimed sequence;22: PN: JP2014079213 TABLE: 2 claimed sequence;α-Glu-Trp;1: PN: WO2024041532 SEQID: 101 claimed sequence",
    "duplicated_cas_no": "122933-59-9",
    "SMILES": "C([C@H](NC([C@H](CCC(O)=O)N)=O)C(O)=O)C=1C=2C(NC1)=CC=CC2",
    "meta_data": {
        "InChI": "InChI=1S/C16H19N3O5/c17-11(5-6-14(20)21)15(22)19-13(16(23)24)7-9-8-18-12-4-2-1-3-10(9)12/h1-4,8,11,13,18H,5-7,17H2,(H,19,22)(H,20,21)(H,23,24)/t11-,13-/m0/s1",
        "InChIKey": null,
        "Canonical SMILES": "O=C(O)CCC(N)C(=O)NC(C(=O)O)CC1=CNC=2C=CC=CC21",
        "Molecular Formula": "C<sub>16</sub>H<sub>19</sub>N<sub>3</sub>O<sub>5</sub>",
        "Molecular Mass": "333.34",
        "Melting Point": "121-122 °C"
    }
}