{
    "cas_no": "1175536-50-1",
    "key_name": "2,3-Butanediol, 2-(2,4-difluorophenyl)-1-(1<em>H</em>-1,2,4-triazol-1-yl)-, (2<em>R</em>,3<em>R</em>)-, methanesulfonate (1:1)",
    "cn_name": null,
    "alternate_name": "2,3-Butanediol, 2-(2,4-difluorophenyl)-1-(1<em>H</em>-1,2,4-triazol-1-yl)-, (2<em>R</em>,3<em>R</em>)-, methanesulfonate (1:1)",
    "duplicated_cas_no": "",
    "SMILES": "[C@](CN1C=NC=N1)([C@@H](C)O)(O)C2=C(F)C=C(F)C=C2.S(C)(=O)(=O)O",
    "meta_data": {
        "InChI": "InChI=1S/C12H13F2N3O2.CH4O3S/c1-8(18)12(19,5-17-7-15-6-16-17)10-3-2-9(13)4-11(10)14;1-5(2,3)4/h2-4,6-8,18-19H,5H2,1H3;1H3,(H,2,3,4)/t8-,12-;/m1./s1",
        "InChIKey": null,
        "Canonical SMILES": "O=S(=O)(O)C.FC1=CC=C(C(F)=C1)C(O)(CN2N=CN=C2)C(O)C",
        "Molecular Formula": "C<sub>12</sub>H<sub>13</sub>F<sub>2</sub>N<sub>3</sub>O<sub>2</sub>.CH<sub>4</sub>O<sub>3</sub>S",
        "Molecular Mass": "",
        "Melting Point": "173.5-174.5 °C"
    }
}