{
    "cas_no": "2231-66-5",
    "key_name": "2,2-Dimethyl-5-(1-methylethylidene)-1,3-dioxane-4,6-dione",
    "cn_name": null,
    "alternate_name": "1,3-Dioxane-4,6-dione, 2,2-dimethyl-5-(1-methylethylidene)-;Malonic acid, isopropylidene-, cyclic isopropylidene ester;2,2-Propanediol, cyclic isopropylidenemalonate;2,2-Dimethyl-5-(1-methylethylidene)-1,3-dioxane-4,6-dione;Propanedioic acid, (1-methylethylidene)-, cyclic 1-methylethylidene ester;1,3-Dioxane-4,6-dione, 5-isopropylidene-2,2-dimethyl-;5-Isopropylidene-2,2-dimethyl-[1,3]dioxane-4,6-dione;2,2-Dimethyl-5-(propan-2-ylidene)-1,3-dioxane-4,6-dione",
    "duplicated_cas_no": "",
    "SMILES": "C(C)(C)=C1C(=O)OC(C)(C)OC1=O",
    "meta_data": {
        "InChI": "InChI=1S/C9H12O4/c1-5(2)6-7(10)12-9(3,4)13-8(6)11/h1-4H3",
        "InChIKey": null,
        "Canonical SMILES": "O=C1OC(OC(=O)C1=C(C)C)(C)C",
        "Molecular Formula": "C<sub>9</sub>H<sub>12</sub>O<sub>4</sub>",
        "Molecular Mass": "184.19",
        "Melting Point": "128 °C"
    }
}