{
    "cas_no": "219537-97-0",
    "key_name": "3,3′-(1-Cyclopentene-1,2-diyl)bis[5-chloro-2-methylthiophene]",
    "cn_name": null,
    "alternate_name": "Thiophene, 3,3′-(1-cyclopentene-1,2-diyl)bis[5-chloro-2-methyl-;3,3′-(1-Cyclopentene-1,2-diyl)bis[5-chloro-2-methylthiophene];1,2-Bis(5-chloro-2-methyl-3-thienyl)cyclopentene;1,2-Bis(5′-chloro-2′-methylthien-3′-yl)cyclopentene;1,2-Bis(5-chloro-2-methylthiophen-3-yl)cyclopent-1-ene",
    "duplicated_cas_no": "",
    "SMILES": "CC1=C(C2=C(CCC2)C=3C=C(Cl)SC3C)C=C(Cl)S1",
    "meta_data": {
        "InChI": "InChI=1S/C15H14Cl2S2/c1-8-12(6-14(16)18-8)10-4-3-5-11(10)13-7-15(17)19-9(13)2/h6-7H,3-5H2,1-2H3",
        "InChIKey": null,
        "Canonical SMILES": "ClC=1SC(=C(C1)C2=C(C=3C=C(Cl)SC3C)CCC2)C",
        "Molecular Formula": "C<sub>15</sub>H<sub>14</sub>Cl<sub>2</sub>S<sub>2</sub>",
        "Molecular Mass": "329.31",
        "Melting Point": "76-78 °C"
    }
}