{
    "cas_no": "32046-51-8",
    "key_name": "2-Methyl-5-nitrobenzoxazole",
    "cn_name": null,
    "alternate_name": "Benzoxazole, 2-methyl-5-nitro-;2-Methyl-5-nitrobenzoxazole;2-Methyl-5-nitro-1,3-benzoxazole;2-Methyl-5-nitro-benzooxazole",
    "duplicated_cas_no": "",
    "SMILES": "N(=O)(=O)C=1C=C2C(=CC1)OC(C)=N2",
    "meta_data": {
        "InChI": "InChI=1S/C8H6N2O3/c1-5-9-7-4-6(10(11)12)2-3-8(7)13-5/h2-4H,1H3",
        "InChIKey": null,
        "Canonical SMILES": "O=N(=O)C=1C=CC=2OC(=NC2C1)C",
        "Molecular Formula": "C<sub>8</sub>H<sub>6</sub>N<sub>2</sub>O<sub>3</sub>",
        "Molecular Mass": "178.14",
        "Melting Point": "154.7-155.5 °C"
    }
}