{
    "cas_no": "140-22-7",
    "key_name": "Diphenylcarbazide",
    "cn_name": "1,5-二苯基卡巴肼;1,5-二苯卡巴肼;二苯基碳酰二肼;二苯氨基脲;",
    "alternate_name": "Carbonic dihydrazide, 2,2′-diphenyl-;Carbohydrazide, 1,5-diphenyl-;2,2′-Diphenylcarbonic dihydrazide;<em>sym</em>-Diphenylcarbazide;DPC;1,5-Diphenylcarbohydrazide;1,5-Diphenylcarbazide;Diphenylcarbazide;2,2′-Diphenylcarbazide;<em>s</em>-Diphenylcarbazide;<em>N</em>,<em>N</em>′-Diphenylcarbazide;NSC 5058;1,3-Dianilinourea;MeSH ID: D004160",
    "duplicated_cas_no": "135330-50-6",
    "SMILES": "N(NC(NNC1=CC=CC=C1)=O)C2=CC=CC=C2",
    "meta_data": {
        "InChI": "InChI=1S/C13H14N4O/c18-13(16-14-11-7-3-1-4-8-11)17-15-12-9-5-2-6-10-12/h1-10,14-15H,(H2,16,17,18)",
        "InChIKey": null,
        "Canonical SMILES": "O=C(NNC=1C=CC=CC1)NNC=2C=CC=CC2",
        "Molecular Formula": "C<sub>13</sub>H<sub>14</sub>N<sub>4</sub>O",
        "Molecular Mass": "242.28",
        "Melting Point": "170 °C"
    }
}