{
    "cas_no": "13455-01-1",
    "key_name": "Phosphorous triiodide",
    "cn_name": "碘化磷(III);碘化磷;",
    "alternate_name": "Phosphorous triiodide;Phosphorus iodide (PI<sub>3</sub>);Phosphorus triiodide;Triiodophosphine",
    "duplicated_cas_no": "",
    "SMILES": "P(I)(I)I",
    "meta_data": {
        "InChI": "InChI=1S/I3P/c1-4(2)3",
        "InChIKey": null,
        "Canonical SMILES": "IP(I)I",
        "Molecular Formula": "I<sub>3</sub>P",
        "Molecular Mass": "411.69",
        "Melting Point": "61 °C"
    }
}