{
    "cas_no": "1205-40-9",
    "key_name": "2-Chloro-<em>N</em>-phenylbenzenamine",
    "cn_name": null,
    "alternate_name": "Benzenamine, 2-chloro-<em>N</em>-phenyl-;Diphenylamine, 2-chloro-;2-Chloro-<em>N</em>-phenylbenzenamine;<em>N</em>-(<em>o</em>-Chlorophenyl)aniline;2-Chlorodiphenylamine;<em>N</em>-Phenyl-2-chloroaniline;2-Chloro-<em>N</em>-phenylaniline",
    "duplicated_cas_no": "",
    "SMILES": "N(C1=C(Cl)C=CC=C1)C2=CC=CC=C2",
    "meta_data": {
        "InChI": "InChI=1S/C12H10ClN/c13-11-8-4-5-9-12(11)14-10-6-2-1-3-7-10/h1-9,14H",
        "InChIKey": null,
        "Canonical SMILES": "ClC=1C=CC=CC1NC=2C=CC=CC2",
        "Molecular Formula": "C<sub>12</sub>H<sub>10</sub>ClN",
        "Molecular Mass": "203.67",
        "Boiling Point": "174-175 °C @ Press: 12 Torr",
        "Melting Point": "15-16 °C"
    }
}