{
    "cas_no": "2582-30-1",
    "key_name": "Aminoguanidine bicarbonate",
    "cn_name": null,
    "alternate_name": "Carbonic acid, compd. with hydrazinecarboximidamide (1:1);Carbonic acid, compd. with aminoguanidine (1:1);Guanidine, amino-, hydrogen carbonate;Guanidine, amino-, bicarbonate;Guanidine, amino-, carbonate (1:1);Hydrazinecarboximidamide, carbonate (1:1);Aminoguanidine bicarbonate;Ba 51-090222;Aminoguanidinium bicarbonate;Aminoguanidine hydrogen carbonate;<em>N</em><sup>1</sup>-Aminoguanidine carbonate (1:1);Aminoguanidine carbonate (1:1);1-Aminoguanidine bicarbonate;Aminoguanidinium hydrogen carbonate;NSC 7887;Aminoguanidinium carbonate;1-Aminoguanidine hydrogen carbonate",
    "duplicated_cas_no": "",
    "SMILES": "C(=O)(O)O.C(NN)(=N)N",
    "meta_data": {
        "InChI": "InChI=1S/CH6N4.CH2O3/c2-1(3)5-4;2-1(3)4/h4H2,(H4,2,3,5);(H2,2,3,4)",
        "InChIKey": null,
        "Canonical SMILES": "O=C(O)O.N=C(N)NN",
        "Molecular Formula": "CH<sub>6</sub>N<sub>4</sub>.CH<sub>2</sub>O<sub>3</sub>",
        "Molecular Mass": "",
        "Melting Point": "171.5-172.5 °C"
    }
}