{
    "cas_no": "12054-85-2",
    "key_name": "Ammonium molybdate ((NH<sub>4</sub>)<sub>6</sub>Mo<sub>7</sub>O<sub>24</sub>) tetrahydrate",
    "cn_name": null,
    "alternate_name": "Molybdate (Mo<sub>7</sub>O<sub>24</sub><sup>6-</sup>), ammonium, hydrate (1:6:4);Molybdic acid (H<sub>6</sub>Mo<sub>7</sub>O<sub>24</sub>), hexaammonium salt, tetrahydrate;Ammonium molybdate tetrahydrate [(NH<sub>4</sub>)<sub>6</sub>Mo<sub>7</sub>O<sub>24</sub>.4H<sub>2</sub>O];Ammonium heptamolybdate ((NH<sub>4</sub>)<sub>6</sub>Mo<sub>7</sub>O<sub>24</sub>) tetrahydrate;Ammonium molybdate ((NH<sub>4</sub>)<sub>6</sub>Mo<sub>7</sub>O<sub>24</sub>) tetrahydrate;Ammonium molybdate [(NH<sub>4</sub>)<sub>6</sub>Mo<sub>7</sub>O<sub>27</sub>.4H<sub>2</sub>O];Ammonium molybdate hydrate ((NH<sub>4</sub>)<sub>6</sub>Mo<sub>7</sub>O<sub>24</sub>.4H<sub>2</sub>O);Ammonium paramolybdate tetrahydrate;Hexaammonium heptamolybdate tetrahydrate;Ammonium molybdate tetrahydrate",
    "duplicated_cas_no": "12218-71-2;12674-41-8;1382204-67-2;1674386-56-1;2377584-23-9",
    "SMILES": "O=[Mo+2]123(=O)[O-]45[Mo]6789[O-]%10%11[Mo+2](=O)(=O)([O-]61)([O-2]2)[O-2][Mo+2]%10(=O)(=O)([O-]7)[O-2][Mo+2]%11%12(=O)(=O)[O-]8[Mo+2]4(=O)(=O)([O-2]%12)[O-2][Mo+2]5(=O)(=O)([O-]9)[O-2]3.[NH4+].O",
    "meta_data": {
        "InChI": "InChI=1S/7Mo.6H3N.4H2O.24O/h;;;;;;;6*1H3;4*1H2;;;;;;;;;;;;;;;;;;;;;;;;/q;6*+2;;;;;;;;;;;;;;;;;;;;;;;6*-2;6*-1/p+6",
        "InChIKey": null,
        "Canonical SMILES": "O=[Mo+2]123(=O)[O-][Mo]4567[O-][Mo+2]89(=O)(=O)[O-2][Mo+2]%10%11(=O)(=O)[O-2][Mo+2](=O)(=O)([O-2]1)([O-]4%10)[O-]52[Mo+2]%12(=O)(=O)([O-2]3)[O-2][Mo+2](=O)(=O)([O-2]8)([O-]6%12)[O-]79%11.O.[NH4+]",
        "Molecular Formula": "H<sub>4</sub>N.<sup>2</sup>/<sub>3</sub>H<sub>2</sub>O.<sup>1</sup>/<sub>6</sub>Mo<sub>7</sub>O<sub>24</sub>",
        "Molecular Mass": "",
        "Melting Point": "~400 °C (decomp) (approx)"
    }
}