{
    "cas_no": "1825-64-5",
    "key_name": "Trimethyl(1-methylethoxy)silane",
    "cn_name": "异丙氧基三甲基硅烷;",
    "alternate_name": "Silane, trimethyl(1-methylethoxy)-;Silane, isopropoxytrimethyl-;Trimethyl(1-methylethoxy)silane;Trimethylisopropoxysilane;Isopropoxytrimethylsilane;Isopropyl trimethylsilyl ether;(Isopropyloxy)trimethylsilane;Trimethylsilyl isopropyl ether;2-Propoxytrimethylsilane;Trimethyl[(1-methylethyl)oxy]silane",
    "duplicated_cas_no": "",
    "SMILES": "O([Si](C)(C)C)C(C)C",
    "meta_data": {
        "InChI": "InChI=1S/C6H16OSi/c1-6(2)7-8(3,4)5/h6H,1-5H3",
        "InChIKey": null,
        "Canonical SMILES": "O(C(C)C)[Si](C)(C)C",
        "Molecular Formula": "C<sub>6</sub>H<sub>16</sub>OSi",
        "Molecular Mass": "132.28",
        "Boiling Point": "87 °C",
        "Density": "0.8758 g/cm³ @ Temp: 20 °C"
    }
}