{
    "cas_no": "10557-21-8",
    "key_name": "1-(4-Chlorophenyl)-1,2-propanedione",
    "cn_name": "1-(4-氯苯基)-1,2-丙二酮;",
    "alternate_name": "1,2-Propanedione, 1-(4-chlorophenyl)-;1,2-Propanedione, 1-(<em>p</em>-chlorophenyl)-;1-(4-Chlorophenyl)-1,2-propanedione;1-(<em>p</em>-Chlorophenyl)-1,2-propanedione;1-(4-Chlorophenyl)-1,2-propandione",
    "duplicated_cas_no": "",
    "SMILES": "C(C(C)=O)(=O)C1=CC=C(Cl)C=C1",
    "meta_data": {
        "InChI": "InChI=1S/C9H7ClO2/c1-6(11)9(12)7-2-4-8(10)5-3-7/h2-5H,1H3",
        "InChIKey": null,
        "Canonical SMILES": "O=C(C1=CC=C(Cl)C=C1)C(=O)C",
        "Molecular Formula": "C<sub>9</sub>H<sub>7</sub>ClO<sub>2</sub>",
        "Molecular Mass": "182.60",
        "Boiling Point": "54-59 °C @ Press: 0.03 Torr",
        "Melting Point": "22-23 °C",
        "Density": "1.2700 g/cm³ @ Temp: 20 °C"
    }
}