{
    "cas_no": "22961-45-1",
    "key_name": "<em>N</em>-Phenyl-4-pyridinamine",
    "cn_name": "4-苯氨基吡啶;",
    "alternate_name": "4-Pyridinamine, <em>N</em>-phenyl-;Pyridine, 4-anilino-;<em>N</em>-Phenyl-4-pyridinamine;4-Anilinopyridine;4-(Phenylamino)pyridine;<em>N</em>-4-Pyridylaniline;NSC 153374",
    "duplicated_cas_no": "",
    "SMILES": "N(C1=CC=CC=C1)C=2C=CN=CC2",
    "meta_data": {
        "InChI": "InChI=1S/C11H10N2/c1-2-4-10(5-3-1)13-11-6-8-12-9-7-11/h1-9H,(H,12,13)",
        "InChIKey": null,
        "Canonical SMILES": "N=1C=CC(=CC1)NC=2C=CC=CC2",
        "Molecular Formula": "C<sub>11</sub>H<sub>10</sub>N<sub>2</sub>",
        "Molecular Mass": "170.21",
        "Melting Point": "175 °C"
    }
}