{
    "cas_no": "629-60-7",
    "key_name": "Tridecanenitrile",
    "cn_name": "十三腈;氰十二烷;",
    "alternate_name": "Tridecanenitrile;Tridecanonitrile;Dodecyl cyanide;Dodecanecarbonitrile;1-Dodecyl cyanide;<em>n</em>-Tridecanonitrile;NSC 3886",
    "duplicated_cas_no": "",
    "SMILES": "C(CCCCCC#N)CCCCCC",
    "meta_data": {
        "InChI": "InChI=1S/C13H25N/c1-2-3-4-5-6-7-8-9-10-11-12-13-14/h2-12H2,1H3",
        "InChIKey": null,
        "Canonical SMILES": "N#CCCCCCCCCCCCC",
        "Molecular Formula": "C<sub>13</sub>H<sub>25</sub>N",
        "Molecular Mass": "195.34",
        "Boiling Point": "293 °C",
        "Melting Point": "9.7 °C"
    }
}