{
    "cas_no": "6413-10-1",
    "key_name": "Fructone",
    "cn_name": "苹果酯;2-甲基-1,3-二氧杂环戊烷-2-乙酸乙酯;乙酰乙酸乙酯环乙二缩酮;",
    "alternate_name": "1,3-Dioxolane-2-acetic acid, 2-methyl-, ethyl ester;Ethyl acetoacetate 3-ethylene acetal;Ethyl acetoacetate ethylene ketal;Ethyl 3-oxobutyrate ethylene ketal;Fructone;Ethyl acetoacetate ethylene glycol ketal;Ethyl 2-methyl-1,3-dioxolane-2-acetate;NSC 6537;(2-Methyl-1,3-dioxolan-2-yl)acetic acid ethyl ester;2-Methyl-2-[(ethoxycarbonyl)methyl]-1,3-dioxolane;Applinal;Ethyl 2-(2-methyl-1,3-dioxolan-2-yl)acetate;Ethyl (2-methyl-1,3-dioxolan-2-yl)acetate;Jasmaprunate",
    "duplicated_cas_no": "1021149-30-3",
    "SMILES": "C(C(OCC)=O)C1(C)OCCO1",
    "meta_data": {
        "InChI": "InChI=1S/C8H14O4/c1-3-10-7(9)6-8(2)11-4-5-12-8/h3-6H2,1-2H3",
        "InChIKey": null,
        "Canonical SMILES": "O=C(OCC)CC1(OCCO1)C",
        "Molecular Formula": "C<sub>8</sub>H<sub>14</sub>O<sub>4</sub>",
        "Molecular Mass": "174.19",
        "Boiling Point": "107 °C @ Press: 11 Torr",
        "Density": "1.0409 g/cm³ @ Temp: 20 °C"
    }
}