{
    "cas_no": "876-27-7",
    "key_name": "Acetic acid, 4-chlorophenyl ester",
    "cn_name": null,
    "alternate_name": "Acetic acid, 4-chlorophenyl ester;Acetic acid, <em>p</em>-chlorophenyl ester;Phenol, <em>p</em>-chloro-, acetate;<em>p</em>-Chlorophenyl acetate;<em>p</em>-Acetoxychlorobenzene;4-Chlorophenyl acetate;4-Acetoxychlorobenzene;4-Acetoxyphenyl chloride;NSC 48669;1-Acetoxy-4-chlorobenzene",
    "duplicated_cas_no": "",
    "SMILES": "O(C(C)=O)C1=CC=C(Cl)C=C1",
    "meta_data": {
        "InChI": "InChI=1S/C8H7ClO2/c1-6(10)11-8-4-2-7(9)3-5-8/h2-5H,1H3",
        "InChIKey": null,
        "Canonical SMILES": "O=C(OC1=CC=C(Cl)C=C1)C",
        "Molecular Formula": "C<sub>8</sub>H<sub>7</sub>ClO<sub>2</sub>",
        "Molecular Mass": "170.59",
        "Boiling Point": "108 °C @ Press: 12.5 Torr",
        "Melting Point": "7-8 °C",
        "Density": "1.2248 g/cm³ @ Temp: 20 °C"
    }
}