{
    "cas_no": "335-05-7",
    "key_name": "Trifluoromethanesulfonyl fluoride",
    "cn_name": null,
    "alternate_name": "Methanesulfonyl fluoride, trifluoro-;Trifluoromethanesulfonyl fluoride;Trifluoromethylsulfonyl fluoride;Perfluoromethanesulfonyl fluoride",
    "duplicated_cas_no": "",
    "SMILES": "C(S(F)(=O)=O)(F)(F)F",
    "meta_data": {
        "InChI": "InChI=1S/CF4O2S/c2-1(3,4)8(5,6)7",
        "InChIKey": null,
        "Canonical SMILES": "O=S(=O)(F)C(F)(F)F",
        "Molecular Formula": "CF<sub>4</sub>O<sub>2</sub>S",
        "Molecular Mass": "152.07",
        "Boiling Point": "-21.7 °C"
    }
}