{
    "cas_no": "88-20-0",
    "key_name": "<em>o</em>-Toluenesulfonic acid",
    "cn_name": null,
    "alternate_name": "Benzenesulfonic acid, 2-methyl-;<em>o</em>-Toluenesulfonic acid;2-Methylbenzenesulfonic acid;Toluene-2-sulfonic acid;<em>o</em>-Methylbenzenesulfonic acid;NSC 87381;2-Methylbenzensulfonic acid",
    "duplicated_cas_no": "",
    "SMILES": "S(=O)(=O)(O)C1=C(C)C=CC=C1",
    "meta_data": {
        "InChI": "InChI=1S/C7H8O3S/c1-6-4-2-3-5-7(6)11(8,9)10/h2-5H,1H3,(H,8,9,10)",
        "InChIKey": null,
        "Canonical SMILES": "O=S(=O)(O)C=1C=CC=CC1C",
        "Molecular Formula": "C<sub>7</sub>H<sub>8</sub>O<sub>3</sub>S",
        "Molecular Mass": "172.20",
        "Boiling Point": "128.8 °C",
        "Melting Point": "67.5 °C"
    }
}