{
    "cas_no": "165668-41-7",
    "key_name": "Indisulam",
    "cn_name": "Indisulam;N-(3-氯-1H-吲哚-7-基)-1,4-苯二磺酰胺;",
    "alternate_name": "1,4-Benzenedisulfonamide, <em>N</em><sup>1</sup>-(3-chloro-1<em>H</em>-indol-7-yl)-;1,4-Benzenedisulfonamide, <em>N</em>-(3-chloro-1<em>H</em>-indol-7-yl)-;<em>N</em><sup>1</sup>-(3-Chloro-1<em>H</em>-indol-7-yl)-1,4-benzenedisulfonamide;E 7070;Indisulam",
    "duplicated_cas_no": "",
    "SMILES": "N(S(=O)(=O)C1=CC=C(S(N)(=O)=O)C=C1)C2=C3C(C(Cl)=CN3)=CC=C2",
    "meta_data": {
        "InChI": "InChI=1S/C14H12ClN3O4S2/c15-12-8-17-14-11(12)2-1-3-13(14)18-24(21,22)10-6-4-9(5-7-10)23(16,19)20/h1-8,17-18H,(H2,16,19,20)",
        "InChIKey": null,
        "Canonical SMILES": "O=S(=O)(N)C1=CC=C(C=C1)S(=O)(=O)NC2=CC=CC=3C(Cl)=CNC23",
        "Molecular Formula": "C<sub>14</sub>H<sub>12</sub>ClN<sub>3</sub>O<sub>4</sub>S<sub>2</sub>",
        "Molecular Mass": "385.85",
        "Melting Point": "242-243 °C (decomp)"
    }
}