{
    "cas_no": "149-29-1",
    "key_name": "Patulin",
    "cn_name": "棒曲霉素;展青霉素;",
    "alternate_name": "4<em>H</em>-Furo[3,2-<em>c</em>]pyran-2(6<em>H</em>)-one, 4-hydroxy-;Patulin;4-Hydroxy-4<em>H</em>-furo[3,2-<em>c</em>]pyran-2(6<em>H</em>)-one;Clairformin;Clavacin;Clavatin;Claviformin;Expansin;Expansine;Mycoin;Penicidin;Acetic acid, (2,4-dihydroxy-2<em>H</em>-pyran-3(6<em>H</em>)-ylidene)-, 3,4-lactone;Mycoin C;Patuline;Mycoin C<sub>3</sub>;Terinin;<span class=\"text-smallcaps\">DL</span>-Patulin;NSC 32951;NSC 8120;Expansin (antibiotic);Leucopin;Gigantin;MeSH ID: D010365",
    "duplicated_cas_no": "26540-84-1;62351-07-9",
    "SMILES": "OC1C=2C(OC(=O)C2)=CCO1",
    "meta_data": {
        "InChI": "InChI=1S/C7H6O4/c8-6-3-4-5(11-6)1-2-10-7(4)9/h1,3,7,9H,2H2",
        "InChIKey": null,
        "Canonical SMILES": "O=C1OC2=CCOC(O)C2=C1",
        "Molecular Formula": "C<sub>7</sub>H<sub>6</sub>O<sub>4</sub>",
        "Molecular Mass": "154.12",
        "Melting Point": "111.0 °C"
    }
}