{
    "cas_no": "6639-36-7",
    "key_name": "2-Nitrodibenzothiophene",
    "cn_name": "2-硝基双苯并噻吩;2-硝基双苯并噻吩;",
    "alternate_name": "Dibenzothiophene, 2-nitro-;2-Nitrodibenzothiophene;NSC 16062;2-Nitrodibenzo[<em>b</em>,<em>d</em>]thiophene",
    "duplicated_cas_no": "",
    "SMILES": "N(=O)(=O)C=1C=C2C=3C(SC2=CC1)=CC=CC3",
    "meta_data": {
        "InChI": "InChI=1S/C12H7NO2S/c14-13(15)8-5-6-12-10(7-8)9-3-1-2-4-11(9)16-12/h1-7H",
        "InChIKey": null,
        "Canonical SMILES": "O=N(=O)C=1C=CC=2SC=3C=CC=CC3C2C1",
        "Molecular Formula": "C<sub>12</sub>H<sub>7</sub>NO<sub>2</sub>S",
        "Molecular Mass": "229.25",
        "Melting Point": "186 °C"
    }
}