{
    "cas_no": "42142-17-6",
    "key_name": "α,2-Dimethylbenzenemethanamine",
    "cn_name": "1-(邻甲苯基)乙胺;",
    "alternate_name": "Benzenemethanamine, α,2-dimethyl-;α,2-Dimethylbenzenemethanamine;<em>o</em>-Methyl-α-phenylethylamine;<em>o</em>-Methyl-α-phenethylamine;(±)-<em>o</em>-Methyl-α-phenylethylamine;1-(<em>o</em>-Methylphenyl)ethylamine;1-<em>o</em>-Tolylethylamine;1-(2-Methylphenyl)-1-ethanamine;1-(2-Methylphenyl)ethanamine",
    "duplicated_cas_no": "42070-96-2",
    "SMILES": "C(C)(N)C1=C(C)C=CC=C1",
    "meta_data": {
        "InChI": "InChI=1S/C9H13N/c1-7-5-3-4-6-9(7)8(2)10/h3-6,8H,10H2,1-2H3",
        "InChIKey": null,
        "Canonical SMILES": "NC(C=1C=CC=CC1C)C",
        "Molecular Formula": "C<sub>9</sub>H<sub>13</sub>N",
        "Molecular Mass": "135.21",
        "Boiling Point": "55-57 °C @ Press: 1 Torr",
        "Density": "0.9736 g/cm³ @ Temp: 20 °C"
    }
}