{
    "cas_no": "5351-69-9",
    "key_name": "4-Phenylthiosemicarbazide",
    "cn_name": "4-苯基-3-硫代氨基脲;",
    "alternate_name": "Hydrazinecarbothioamide, <em>N</em>-phenyl-;Semicarbazide, 4-phenyl-3-thio-;<em>N</em>-Phenylhydrazinecarbothioamide;4-Phenyl-3-thiosemicarbazide;4-Phenylthiosemicarbazide;Phenylthiosemicarbazide;<em>N</em>-Phenylthiosemicarbazide;<em>N</em><sup>1</sup>-Phenylthiosemicarbazide;NSC 58946;NSC 704;4-Phenylhydrazinethiocarbamide;1-Amino-3-phenylthiourea;3-Amino-1-phenylthiourea",
    "duplicated_cas_no": "",
    "SMILES": "N(C(NN)=S)C1=CC=CC=C1",
    "meta_data": {
        "InChI": "InChI=1S/C7H9N3S/c8-10-7(11)9-6-4-2-1-3-5-6/h1-5H,8H2,(H2,9,10,11)",
        "InChIKey": null,
        "Canonical SMILES": "S=C(NN)NC=1C=CC=CC1",
        "Molecular Formula": "C<sub>7</sub>H<sub>9</sub>N<sub>3</sub>S",
        "Molecular Mass": "167.23",
        "Melting Point": "150-151 °C",
        "Density": "1.321 g/cm³"
    }
}