{
    "cas_no": "41744-40-5",
    "key_name": "Sulbenicillin",
    "cn_name": null,
    "alternate_name": "4-Thia-1-azabicyclo[3.2.0]heptane-2-carboxylic acid, 3,3-dimethyl-7-oxo-6-[[(2<em>R</em>)-2-phenyl-2-sulfoacetyl]amino]-, (2<em>S</em>,5<em>R</em>,6<em>R</em>)-;4-Thia-1-azabicyclo[3.2.0]heptane-2-carboxylic acid, 3,3-dimethyl-7-oxo-6-[(phenylsulfoacetyl)amino]-, [2<em>S</em>-[2α,5α,6β(<em>S</em>*)]]-;4-Thia-1-azabicyclo[3.2.0]heptane-2-carboxylic acid, 3,3-dimethyl-7-oxo-6-[[(2<em>R</em>)-phenylsulfoacetyl]amino]-, (2<em>S</em>,5<em>R</em>,6<em>R</em>)-;(2<em>S</em>,5<em>R</em>,6<em>R</em>)-3,3-Dimethyl-7-oxo-6-[[(2<em>R</em>)-2-phenyl-2-sulfoacetyl]amino]-4-thia-1-azabicyclo[3.2.0]heptane-2-carboxylic acid;<span class=\"text-smallcaps\">D</span>-(-)-Sulbenicillin;Sulbenicillin, <span class=\"text-smallcaps\">D</span>-(-)-;α-Sulfobenzylpenicillin;Sulbenicillin;SBPC",
    "duplicated_cas_no": "12772-42-8;34779-28-7",
    "SMILES": "C(O)(=O)[C@@H]1N2[C@@]([C@H](NC([C@H](S(=O)(=O)O)C3=CC=CC=C3)=O)C2=O)(SC1(C)C)[H]",
    "meta_data": {
        "InChI": "InChI=1S/C16H18N2O7S2/c1-16(2)11(15(21)22)18-13(20)9(14(18)26-16)17-12(19)10(27(23,24)25)8-6-4-3-5-7-8/h3-7,9-11,14H,1-2H3,(H,17,19)(H,21,22)(H,23,24,25)/t9-,10-,11+,14-/m1/s1",
        "InChIKey": null,
        "Canonical SMILES": "O=C(O)C1N2C(=O)C(NC(=O)C(C=3C=CC=CC3)S(=O)(=O)O)C2SC1(C)C",
        "Molecular Formula": "C<sub>16</sub>H<sub>18</sub>N<sub>2</sub>O<sub>7</sub>S<sub>2</sub>",
        "Molecular Mass": "414.45",
        "Melting Point": "197 °C (decomp)"
    }
}