{
    "cas_no": "51566-62-2",
    "key_name": "Citronellyl nitrile",
    "cn_name": "3,7-二甲基-6-辛烯腈;香茅腈;",
    "alternate_name": "6-Octenenitrile, 3,7-dimethyl-;3,7-Dimethyl-6-octenenitrile;Citronellyl nitrile;3,7-Dimethyl-6-octenonitrile;Agrunitrile;Agrunitril;Citranellyl nitrile",
    "duplicated_cas_no": "",
    "SMILES": "C(CCC=C(C)C)(CC#N)C",
    "meta_data": {
        "InChI": "InChI=1S/C10H17N/c1-9(2)5-4-6-10(3)7-8-11/h5,10H,4,6-7H2,1-3H3",
        "InChIKey": null,
        "Canonical SMILES": "N#CCC(C)CCC=C(C)C",
        "Molecular Formula": "C<sub>10</sub>H<sub>17</sub>N",
        "Molecular Mass": "151.25",
        "Boiling Point": "91.5-92 °C @ Press: 11 Torr",
        "Density": "0.7887 g/cm³ @ Temp: 78 °C"
    }
}