{
    "cas_no": "2419-38-7",
    "key_name": "<em>N</em>-Phthaloyl-<span class=\"text-smallcaps\">L</span>-leucine",
    "cn_name": null,
    "alternate_name": "2<em>H</em>-Isoindole-2-acetic acid, 1,3-dihydro-α-(2-methylpropyl)-1,3-dioxo-, (α<em>S</em>)-;2-Isoindolineacetic acid, α-isobutyl-1,3-dioxo-, <span class=\"text-smallcaps\">L</span>-;2<em>H</em>-Isoindole-2-acetic acid, 1,3-dihydro-α-(2-methylpropyl)-1,3-dioxo-, (<em>S</em>)-;(α<em>S</em>)-1,3-Dihydro-α-(2-methylpropyl)-1,3-dioxo-2<em>H</em>-isoindole-2-acetic acid;<em>N</em>-Phthaloyl-<span class=\"text-smallcaps\">L</span>-leucine;Phthaloyl-<span class=\"text-smallcaps\">L</span>-leucine;<em>N</em>-Phthaloyl-(<em>S</em>)-leucine;Phthalimidoleucine;<span class=\"text-smallcaps\">L</span>-<em>N</em>-Phthaloyl-Leucine;(2S)-2-(1,3-Dioxoisoindolin-2-yl)-4-methyl-pentanoic acid;(2S)-2-(1,3-Dioxo-2,3-dihydro-1<em>H</em>-isoindol-2-yl)-4-methylpentanoic acid;2<em>H</em>-Isoindole-2-acetic acid 1,3-dihydro-α-(2-methylpropyl)-1,3-dioxo-, (αS)-;(<em>S</em>)-2-(1,3-Dioxoisoindolin-2-yl)-4-methylpentanoic acid",
    "duplicated_cas_no": "",
    "SMILES": "[C@H](CC(C)C)(C(O)=O)N1C(=O)C=2C(C1=O)=CC=CC2",
    "meta_data": {
        "InChI": "InChI=1S/C14H15NO4/c1-8(2)7-11(14(18)19)15-12(16)9-5-3-4-6-10(9)13(15)17/h3-6,8,11H,7H2,1-2H3,(H,18,19)/t11-/m0/s1",
        "InChIKey": null,
        "Canonical SMILES": "O=C(O)C(N1C(=O)C=2C=CC=CC2C1=O)CC(C)C",
        "Molecular Formula": "C<sub>14</sub>H<sub>15</sub>NO<sub>4</sub>",
        "Molecular Mass": "261.27",
        "Melting Point": "118-119 °C"
    }
}