{
    "cas_no": "10272-07-8",
    "key_name": "3,5-Dimethoxyaniline",
    "cn_name": "3,5-二甲氧基苯胺;",
    "alternate_name": "Benzenamine, 3,5-dimethoxy-;Aniline, 3,5-dimethoxy-;3,5-Dimethoxybenzenamine;3,5-Dimethoxyaniline;3,5-Dimethoxyphenylamine;3,5-Dimethoxybenzeneamine;3,5-Bis(methyloxy)aniline",
    "duplicated_cas_no": "",
    "SMILES": "O(C)C1=CC(OC)=CC(N)=C1",
    "meta_data": {
        "InChI": "InChI=1S/C8H11NO2/c1-10-7-3-6(9)4-8(5-7)11-2/h3-5H,9H2,1-2H3",
        "InChIKey": null,
        "Canonical SMILES": "O(C=1C=C(OC)C=C(N)C1)C",
        "Molecular Formula": "C<sub>8</sub>H<sub>11</sub>NO<sub>2</sub>",
        "Molecular Mass": "153.18",
        "Boiling Point": "178 °C @ Press: 20 Torr",
        "Melting Point": "46 °C"
    }
}