{
    "cas_no": "90764-90-2",
    "key_name": "3-Methyl-1<em>H</em>-indazol-5-amine",
    "cn_name": null,
    "alternate_name": "1<em>H</em>-Indazol-5-amine, 3-methyl-;1<em>H</em>-Indazole, 5-amino-3-methyl-;3-Methyl-1<em>H</em>-indazol-5-amine;5-Amino-3-methylindazole;(3-Methyl-1<em>H</em>-indazol-5-yl)amine;5-Amino-3-methyl-1<em>H</em>-indazole;3-Methyl-2<em>H</em>-indazol-5-amine",
    "duplicated_cas_no": "",
    "SMILES": "CC=1C=2C(=CC=C(N)C2)NN1",
    "meta_data": {
        "InChI": "InChI=1S/C8H9N3/c1-5-7-4-6(9)2-3-8(7)11-10-5/h2-4H,9H2,1H3,(H,10,11)",
        "InChIKey": null,
        "Canonical SMILES": "N=1NC=2C=CC(N)=CC2C1C",
        "Molecular Formula": "C<sub>8</sub>H<sub>9</sub>N<sub>3</sub>",
        "Molecular Mass": "147.18",
        "Melting Point": "232-233 °C"
    }
}