{
    "cas_no": "2155-96-6",
    "key_name": "Diphenylvinylphosphine",
    "cn_name": "乙烯基二苯基膦;",
    "alternate_name": "Phosphine, ethenyldiphenyl-;Phosphine, diphenylvinyl-;Ethenyldiphenylphosphine;Diphenylvinylphosphine;Vinyldiphenylphosphine;NSC 151257",
    "duplicated_cas_no": "",
    "SMILES": "P(C=C)(C1=CC=CC=C1)C2=CC=CC=C2",
    "meta_data": {
        "InChI": "InChI=1S/C14H13P/c1-2-15(13-9-5-3-6-10-13)14-11-7-4-8-12-14/h2-12H,1H2",
        "InChIKey": null,
        "Canonical SMILES": "C=CP(C=1C=CC=CC1)C=2C=CC=CC2",
        "Molecular Formula": "C<sub>14</sub>H<sub>13</sub>P",
        "Molecular Mass": "212.23",
        "Boiling Point": "104 °C @ Press: 0.25 Torr",
        "Melting Point": "70.5-71.5 °C"
    }
}