{
    "cas_no": "6341-72-6",
    "key_name": "α-Methyl[1,1′-biphenyl]-4-acetic acid",
    "cn_name": null,
    "alternate_name": "[1,1′-Biphenyl]-4-acetic acid, α-methyl-;4-Biphenylacetic acid, α-methyl-;Hydratropic acid, <em>p</em>-phenyl-;α-Methyl[1,1′-biphenyl]-4-acetic acid;2-(4-Biphenylyl)propionic acid;2-(4-Biphenyl)propionic acid;(±)-2-(4-Biphenyl)propionic acid;Biprofen;NSC 16300;2-(4-Phenylphenyl)propionic acid;16300Y1;2-((1,1′-Biphenyl]-4-yl)propanoic acid;2-(4-Biphenylyl)propanoic acid;2-(4-Phenylphenyl)propanoic acid",
    "duplicated_cas_no": "92937-21-8",
    "SMILES": "C(C(O)=O)(C)C1=CC=C(C=C1)C2=CC=CC=C2",
    "meta_data": {
        "InChI": "InChI=1S/C15H14O2/c1-11(15(16)17)12-7-9-14(10-8-12)13-5-3-2-4-6-13/h2-11H,1H3,(H,16,17)",
        "InChIKey": null,
        "Canonical SMILES": "O=C(O)C(C=1C=CC(=CC1)C=2C=CC=CC2)C",
        "Molecular Formula": "C<sub>15</sub>H<sub>14</sub>O<sub>2</sub>",
        "Molecular Mass": "226.27",
        "Melting Point": "145-147 °C"
    }
}