{
    "cas_no": "35948-25-5",
    "key_name": "9,10-Dihydro-9-oxa-10-phosphaphenanthrene 10-oxide",
    "cn_name": "9,10-二氢-9-氧杂-10-磷杂菲-10-氧化物;DOPO;DOP;",
    "alternate_name": "6<em>H</em>-Dibenz[<em>c</em>,<em>e</em>][1,2]oxaphosphorin, 6-oxide;3,4:5,6-Dibenzo-2<em>H</em>-1,2-oxaphosphorin-2-oxide;9,10-Dihydro-9-oxa-10-phosphaphenanthrene 10-oxide;HCA (heat stabilizer);HCA;Hiretar 101;Sanko HCA;DOPO;9,10-Dihydro-9-oxa-10-phosphorylphenanthrene 10-oxide;Ukanol DOPO;Ukanol GKF;Epoclean;Struktol Polydis 3710;Polydis 3710;KFR-DOPO;Chemguard DOPO;Polyphlox 3742;DOP 11S25;Polyphlox 3710;Nofia OL 3001P;IDB-DPP",
    "duplicated_cas_no": "62281-13-4;77921-21-2;99208-51-2;134767-33-2;225505-41-9;460088-16-8",
    "SMILES": "O=P1C=2C(C=3C(O1)=CC=CC3)=CC=CC2",
    "meta_data": {
        "InChI": "InChI=1S/C12H9O2P/c13-15-12-8-4-2-6-10(12)9-5-1-3-7-11(9)14-15/h1-8,15H",
        "InChIKey": null,
        "Canonical SMILES": "O=P1OC=2C=CC=CC2C=3C=CC=CC31",
        "Molecular Formula": "C<sub>12</sub>H<sub>9</sub>O<sub>2</sub>P",
        "Molecular Mass": "216.17",
        "Melting Point": "119-121 °C"
    }
}