{
    "cas_no": "23749-58-8",
    "key_name": "7<em>H</em>-Benzimidazo[2,1-<em>a</em>]benz[<em>de</em>]isoquinolin-7-one",
    "cn_name": null,
    "alternate_name": "7<em>H</em>-Benzimidazo[2,1-<em>a</em>]benz[<em>de</em>]isoquinolin-7-one;Naphthoylenebenzimidazole;1,8-Naphthoylene-1′,2′-benzimidazole;Benzimidazole, 1,2-(1′,8′-naphthoylene)-;1,2-(1,8-Naphthoylene)benzimidazole;1,2-Naphthoylenebenzimidazole;Luminophor 2;Luminofor Yellow-Green 490RT;Yellow-Green 490RT;Luminor 490RT;Luminor Yellow Green 490RT;Luminor 2;Lum 15;Solvent Yellow 184;C.I. Solvent Yellow 184;C.I. 71090;NSC 159457;1,8-Naphthalenebenzimidazole",
    "duplicated_cas_no": "3171-87-7;50467-37-3;57407-35-9;88984-64-9",
    "SMILES": "O=C1N2C(C3=C4C1=CC=CC4=CC=C3)=NC=5C2=CC=CC5",
    "meta_data": {
        "InChI": "InChI=1S/C18H10N2O/c21-18-13-8-4-6-11-5-3-7-12(16(11)13)17-19-14-9-1-2-10-15(14)20(17)18/h1-10H",
        "InChIKey": null,
        "Canonical SMILES": "O=C1C2=CC=CC3=CC=CC(C4=NC=5C=CC=CC5N14)=C32",
        "Molecular Formula": "C<sub>18</sub>H<sub>10</sub>N<sub>2</sub>O",
        "Molecular Mass": "270.28",
        "Melting Point": "189 °C"
    }
}