{
    "cas_no": "338-76-1",
    "key_name": "Methyl 2-fluoroisobutyrate",
    "cn_name": null,
    "alternate_name": "Propanoic acid, 2-fluoro-2-methyl-, methyl ester;Propionic acid, 2-fluoro-2-methyl-, methyl ester;Methyl 2-fluoroisobutyrate;Methyl 2-fluoro-2-methylpropionate;Methyl α-fluoro-α-methylpropionate;2-Fluoro-2-methylpropionic acid methyl ester;Methyl 2-fluoro-2-methylpropanoate",
    "duplicated_cas_no": "",
    "SMILES": "C(C(C)(C)F)(OC)=O",
    "meta_data": {
        "InChI": "InChI=1S/C5H9FO2/c1-5(2,6)4(7)8-3/h1-3H3",
        "InChIKey": null,
        "Canonical SMILES": "O=C(OC)C(F)(C)C",
        "Molecular Formula": "C<sub>5</sub>H<sub>9</sub>FO<sub>2</sub>",
        "Molecular Mass": "120.12",
        "Boiling Point": "108-109 °C"
    }
}