{
    "cas_no": "4295-06-1",
    "key_name": "4-Chloro-2-methylquinoline",
    "cn_name": "4-氯喹哪啶;4-氯-2-甲基喹啉;",
    "alternate_name": "Quinoline, 4-chloro-2-methyl-;Quinaldine, 4-chloro-;4-Chloro-2-methylquinoline;4-Chloroquinaldine;NSC 89752;2-Methyl-4-chloroquinoline",
    "duplicated_cas_no": "",
    "SMILES": "ClC=1C2=C(N=C(C)C1)C=CC=C2",
    "meta_data": {
        "InChI": "InChI=1S/C10H8ClN/c1-7-6-9(11)8-4-2-3-5-10(8)12-7/h2-6H,1H3",
        "InChIKey": null,
        "Canonical SMILES": "ClC1=CC(=NC=2C=CC=CC12)C",
        "Molecular Formula": "C<sub>10</sub>H<sub>8</sub>ClN",
        "Molecular Mass": "177.63",
        "Boiling Point": "269.5 °C",
        "Melting Point": "42.5 °C"
    }
}