{
    "cas_no": "2402-95-1",
    "key_name": "2-Chloropyridine <em>N</em>-oxide",
    "cn_name": "2-氯吡啶-N-氧化物;",
    "alternate_name": "Pyridine, 2-chloro-, 1-oxide;Pyridine, 2-chloro-, oxide;2-Chloropyridine <em>N</em>-oxide;2-Chloropyridine oxide;2-Chloropyridine 1-oxide;2-Chloro-1-oxidopyridin-1-ium;2-Chloropyridin-1-ium-1-olate",
    "duplicated_cas_no": "",
    "SMILES": "ClC=1N(=O)=CC=CC1",
    "meta_data": {
        "InChI": "InChI=1S/C5H4ClNO/c6-5-3-1-2-4-7(5)8/h1-4H",
        "InChIKey": null,
        "Canonical SMILES": "O=N=1C=CC=CC1Cl",
        "Molecular Formula": "C<sub>5</sub>H<sub>4</sub>ClNO",
        "Molecular Mass": "129.54",
        "Melting Point": "66-68 °C"
    }
}