{
    "cas_no": "533-30-2",
    "key_name": "6-Benzothiazolamine",
    "cn_name": "6-氨基苯并噻唑;",
    "alternate_name": "6-Benzothiazolamine;Benzothiazole, 6-amino-;6-Aminobenzothiazole;(Benzothiazol-6-yl)amine;NSC 170647;1,3-Benzothiazol-6-amine;Benzo[<em>d</em>]thiazol-6-amine;6-Amino-1,3-benzothiazole;(Benzo[<em>d</em>]thiazol-6-yl)amine",
    "duplicated_cas_no": "",
    "SMILES": "NC=1C=C2C(=CC1)N=CS2",
    "meta_data": {
        "InChI": "InChI=1S/C7H6N2S/c8-5-1-2-6-7(3-5)10-4-9-6/h1-4H,8H2",
        "InChIKey": null,
        "Canonical SMILES": "N1=CSC=2C=C(N)C=CC12",
        "Molecular Formula": "C<sub>7</sub>H<sub>6</sub>N<sub>2</sub>S",
        "Molecular Mass": "150.20",
        "Melting Point": "87 °C"
    }
}