{
    "cas_no": "394-39-8",
    "key_name": "4-Chloro-2-fluorobenzoyl chloride",
    "cn_name": "4-氯-2-氟苯甲酰氯;2-氟-4-氯苯甲酰氯;",
    "alternate_name": "Benzoyl chloride, 4-chloro-2-fluoro-;4-Chloro-2-fluorobenzoyl chloride;2-Fluoro-4-chlorobenzoyl chloride",
    "duplicated_cas_no": "",
    "SMILES": "C(Cl)(=O)C1=C(F)C=C(Cl)C=C1",
    "meta_data": {
        "InChI": "InChI=1S/C7H3Cl2FO/c8-4-1-2-5(7(9)11)6(10)3-4/h1-3H",
        "InChIKey": null,
        "Canonical SMILES": "O=C(Cl)C1=CC=C(Cl)C=C1F",
        "Molecular Formula": "C<sub>7</sub>H<sub>3</sub>Cl<sub>2</sub>FO",
        "Molecular Mass": "193.00",
        "Boiling Point": "105-106 °C @ Press: 14 Torr"
    }
}