{
    "cas_no": "31366-25-3",
    "key_name": "Tetrathiafulvalene",
    "cn_name": null,
    "alternate_name": "1,3-Dithiole, 2-(1,3-dithiol-2-ylidene)-;Δ<sup>2,2′</sup>-Bi-1,3-dithiole;2-(1,3-Dithiol-2-ylidene)-1,3-dithiole;1,4,5,8-Tetrathiafulvalene;Tetrathiafulvalene;TTF;NSC 222862;2-(2<em>H</em>-1,3-Dithiol-2-ylidene)-2<em>H</em>-1,3-dithiole",
    "duplicated_cas_no": "56243-32-4;56481-75-5;87891-32-5;143413-93-8",
    "SMILES": "C1(SC=CS1)=C2SC=CS2",
    "meta_data": {
        "InChI": "InChI=1S/C6H4S4/c1-2-8-5(7-1)6-9-3-4-10-6/h1-4H",
        "InChIKey": null,
        "Canonical SMILES": "S1C=CSC1=C2SC=CS2",
        "Molecular Formula": "C<sub>6</sub>H<sub>4</sub>S<sub>4</sub>",
        "Molecular Mass": "204.36",
        "Boiling Point": "90 °C @ Press: 1 Torr",
        "Melting Point": "119.1 °C",
        "Density": "1.24618 g/cm³ @ Temp: 20.000 °C"
    }
}