{
    "cas_no": "2525-16-8",
    "key_name": "1-Aza-2-methoxy-1-cycloheptene",
    "cn_name": "1-氮杂-2-甲氧基-1-环庚烯;3,4,5,6-四氢-7-甲氧基-2H-氮杂卓;",
    "alternate_name": "2<em>H</em>-Azepine, 3,4,5,6-tetrahydro-7-methoxy-;3,4,5,6-Tetrahydro-7-methoxy-2<em>H</em>-azepine;<em>O</em>-Methylcaprolactim;Caprolactim <em>O</em>-methyl ether;2-Methoxy-1-azacycloheptene;4,5,6,7-Tetrahydro-2-methoxy-3<em>H</em>-azepine;<em>O</em>-Methyl-ε-caprolactim;ε-Caprolactim methyl ether;Caprolactim methyl ether;7-Methoxy-3,4,5,6-tetrahydro-2<em>H</em>-azepine;1-Aza-2-methoxy-1-cycloheptene;2-Methoxy-4,5,6,7-tetrahydro-3<em>H</em>-azepine;NSC 31263;NSC 523095",
    "duplicated_cas_no": "",
    "SMILES": "O(C)C=1CCCCCN1",
    "meta_data": {
        "InChI": "InChI=1S/C7H13NO/c1-9-7-5-3-2-4-6-8-7/h2-6H2,1H3",
        "InChIKey": null,
        "Canonical SMILES": "N1=C(OC)CCCCC1",
        "Molecular Formula": "C<sub>7</sub>H<sub>13</sub>NO",
        "Molecular Mass": "127.18",
        "Boiling Point": "65-67 °C @ Press: 24 Torr",
        "Density": "0.9632 g/cm³ @ Temp: 25 °C"
    }
}