{
    "cas_no": "669008-26-8",
    "key_name": "1-Methylcyclopropanesulfonamide",
    "cn_name": "1-甲基环丙烷磺酰胺;",
    "alternate_name": "Cyclopropanesulfonamide, 1-methyl-;1-Methylcyclopropanesulfonamide;1-Methylcyclopropane-1-sulfonamide",
    "duplicated_cas_no": "",
    "SMILES": "S(N)(=O)(=O)C1(C)CC1",
    "meta_data": {
        "InChI": "InChI=1S/C4H9NO2S/c1-4(2-3-4)8(5,6)7/h2-3H2,1H3,(H2,5,6,7)",
        "InChIKey": null,
        "Canonical SMILES": "O=S(=O)(N)C1(C)CC1",
        "Molecular Formula": "C<sub>4</sub>H<sub>9</sub>NO<sub>2</sub>S",
        "Molecular Mass": "135.18",
        "Melting Point": "103-104 °C"
    }
}