{
    "cas_no": "2444-19-1",
    "key_name": "1,4-Benzenediol, 1-benzoate",
    "cn_name": "4-羟基苯基安息香酸;",
    "alternate_name": "1,4-Benzenediol, 1-benzoate;Hydroquinone, monobenzoate;1,4-Benzenediol, monobenzoate;Hydroquinone, benzoate;Hydroquinone, benzoate (mono-);<em>p</em>-Hydroxyphenyl benzoate;4-(Benzoyloxy)phenol;4-Hydroxyphenyl benzoate;NSC 48470;<em>p</em>-Hydroquinone monobenzoate",
    "duplicated_cas_no": "",
    "SMILES": "C(OC1=CC=C(O)C=C1)(=O)C2=CC=CC=C2",
    "meta_data": {
        "InChI": "InChI=1S/C13H10O3/c14-11-6-8-12(9-7-11)16-13(15)10-4-2-1-3-5-10/h1-9,14H",
        "InChIKey": null,
        "Canonical SMILES": "O=C(OC1=CC=C(O)C=C1)C=2C=CC=CC2",
        "Molecular Formula": "C<sub>13</sub>H<sub>10</sub>O<sub>3</sub>",
        "Molecular Mass": "214.22",
        "Melting Point": "163-164 °C"
    }
}