{
    "cas_no": "5031-78-7",
    "key_name": "1-(4-Phenoxyphenyl)ethanone",
    "cn_name": "4\"-苯氧基苯乙酮;对苯氧基苯乙酮;",
    "alternate_name": "Ethanone, 1-(4-phenoxyphenyl)-;Acetophenone, 4′-phenoxy-;1-(4-Phenoxyphenyl)ethanone;4-Acetyldiphenyl ether;4-Acetylphenyl phenyl ether;4′-Phenoxyacetophenone;<em>p</em>-Phenoxyacetophenone;4-Acetyldiphenyl oxide;1,2-(4-Acetylphenoxy)benzene;NSC 39658;1-(4-Phenoxyphenyl)ethan-1-one",
    "duplicated_cas_no": "",
    "SMILES": "O(C1=CC=C(C(C)=O)C=C1)C2=CC=CC=C2",
    "meta_data": {
        "InChI": "InChI=1S/C14H12O2/c1-11(15)12-7-9-14(10-8-12)16-13-5-3-2-4-6-13/h2-10H,1H3",
        "InChIKey": null,
        "Canonical SMILES": "O=C(C1=CC=C(OC=2C=CC=CC2)C=C1)C",
        "Molecular Formula": "C<sub>14</sub>H<sub>12</sub>O<sub>2</sub>",
        "Molecular Mass": "212.24",
        "Boiling Point": "190-195 °C @ Press: 13 Torr",
        "Melting Point": "49 °C"
    }
}