{
    "cas_no": "38260-01-4",
    "key_name": "Triethylenetetramine dihydrochloride",
    "cn_name": "三乙烯四胺二盐酸盐;",
    "alternate_name": "1,2-Ethanediamine, <em>N</em><sup>1</sup>,<em>N</em><sup>2</sup>-bis(2-aminoethyl)-, hydrochloride (1:2);1,2-Ethanediamine, <em>N</em>,<em>N</em>′-bis(2-aminoethyl)-, dihydrochloride;Triethylenetetramine dihydrochloride;Trientine hydrochloride;Trien dihydrochloride;TTH;Cuprid;Syprine;Trientine dihydrochloride;<em>N</em>,<em>N</em>′-Bis-(2-aminoethyl)-1,2-ethanediamine dihydrochloride;Cufence",
    "duplicated_cas_no": "",
    "SMILES": "C(CNCCN)NCCN.Cl",
    "meta_data": {
        "InChI": "InChI=1S/C6H18N4.2ClH/c7-1-3-9-5-6-10-4-2-8;;/h9-10H,1-8H2;2*1H",
        "InChIKey": null,
        "Canonical SMILES": "Cl.NCCNCCNCCN",
        "Molecular Formula": "C<sub>6</sub>H<sub>18</sub>N<sub>4</sub>.2ClH",
        "Molecular Mass": "",
        "Melting Point": "115-118 °C"
    }
}