{
    "cas_no": "124379-29-9",
    "key_name": "(<em>S</em>)-4-(3,4-Dichlorophenyl)-1-tetralone",
    "cn_name": "4-(3,4-二氯苯)-3,4-二氢-2H-萘-1-酮;",
    "alternate_name": "1(2<em>H</em>)-Naphthalenone, 4-(3,4-dichlorophenyl)-3,4-dihydro-, (4<em>S</em>)-;1(2<em>H</em>)-Naphthalenone, 4-(3,4-dichlorophenyl)-3,4-dihydro-, (<em>S</em>)-;(4<em>S</em>)-4-(3,4-Dichlorophenyl)-3,4-dihydro-1(2<em>H</em>)-naphthalenone;(4<em>S</em>)-(3,4-Dichlorophenyl)-3,4-dihydro-1(2<em>H</em>)-naphthalenone;(<em>S</em>)-4-(3,4-Dichlorophenyl)-1-tetralone;(<em>S</em>)-4-(3,4-Dichlorophenyl)-3,4-dihydro-1-naphthalenone;(4S)-4-(3,4-Dichlorophenyl)-3,4-dihydro-2<em>H</em>-naphthalen-1-one;(4S)-4-(3,4-Dichlorophenyl)-3,4-dihydronaphthalen-1(2<em>H</em>)-one",
    "duplicated_cas_no": "",
    "SMILES": "O=C1C=2C([C@@H](CC1)C3=CC(Cl)=C(Cl)C=C3)=CC=CC2",
    "meta_data": {
        "InChI": "InChI=1S/C16H12Cl2O/c17-14-7-5-10(9-15(14)18)11-6-8-16(19)13-4-2-1-3-12(11)13/h1-5,7,9,11H,6,8H2/t11-/m0/s1",
        "InChIKey": null,
        "Canonical SMILES": "O=C1C=2C=CC=CC2C(C3=CC=C(Cl)C(Cl)=C3)CC1",
        "Molecular Formula": "C<sub>16</sub>H<sub>12</sub>Cl<sub>2</sub>O",
        "Molecular Mass": "291.17",
        "Melting Point": "83-85 °C"
    }
}