{
    "cas_no": "64917-82-4",
    "key_name": "Schisantherin D",
    "cn_name": null,
    "alternate_name": "Cycloocta[1,2-<em>f</em>:3,4-<em>f</em>′]bis[1,3]benzodioxole-5,6-diol, 5,6,7,8-tetrahydro-13,14-dimethoxy-6,7-dimethyl-, 5-benzoate, (5<em>S</em>,6<em>S</em>,7<em>S</em>,13a<em>S</em>)-;Cycloocta[1,2-<em>f</em>:3,4-<em>f</em>′]bis[1,3]benzodioxole-5,6-diol, 5,6,7,8-tetrahydro-13,14-dimethoxy-6,7-dimethyl-, 5-benzoate, stereoisomer;Schisantherin D;Schizantherin D;Shisantherin D;(-)-Schisantherin D",
    "duplicated_cas_no": "497064-83-2",
    "SMILES": "O(C)C1=C2C=3C(=CC4=C(C3OC)OCO4)CC(C)C(C)(O)C(OC(=O)C5=CC=CC=C5)C2=CC6=C1OCO6",
    "meta_data": {
        "InChI": "InChI=1S/C29H28O9/c1-15-10-17-11-19-23(36-13-34-19)25(32-3)21(17)22-18(12-20-24(26(22)33-4)37-14-35-20)27(29(15,2)31)38-28(30)16-8-6-5-7-9-16/h5-9,11-12,15,27,31H,10,13-14H2,1-4H3",
        "InChIKey": null,
        "Canonical SMILES": "O=C(OC1C2=CC=3OCOC3C(OC)=C2C=4C(OC)=C5OCOC5=CC4CC(C)C1(O)C)C=6C=CC=CC6",
        "Molecular Formula": "C<sub>29</sub>H<sub>28</sub>O<sub>9</sub>",
        "Molecular Mass": "520.53",
        "Melting Point": "122-125 °C"
    }
}