{
    "cas_no": "511-28-4",
    "key_name": "Vitamin D<sub>4</sub>",
    "cn_name": null,
    "alternate_name": "Cyclohexanol, 4-methylene-3-[(2<em>E</em>)-2-[(1<em>R</em>,3a<em>S</em>,7a<em>R</em>)-octahydro-7a-methyl-1-[(1<em>R</em>,4<em>S</em>)-1,4,5-trimethylhexyl]-4<em>H</em>-inden-4-ylidene]ethylidene]-, (1<em>S</em>,3<em>Z</em>)-;Vitamin D<sub>4</sub>;9,10-Secoergosta-5,7,10(19)-trien-3-ol, (3β,5<em>Z</em>,7<em>E</em>)-;Ergocalciferol, 22,23-dihydro-;(1<em>S</em>,3<em>Z</em>)-4-Methylene-3-[(2<em>E</em>)-2-[(1<em>R</em>,3a<em>S</em>,7a<em>R</em>)-octahydro-7a-methyl-1-[(1<em>R</em>,4<em>S</em>)-1,4,5-trimethylhexyl]-4<em>H</em>-inden-4-ylidene]ethylidene]cyclohexanol;22,23-Dihydrovitamin D<sub>2</sub>;22,23-Dihydroergocalciferol;24<em>S</em>-Methylcalciol;22,23-Dihydroercalciol",
    "duplicated_cas_no": "",
    "SMILES": "C[C@@]12[C@](\\C(=C\\C=C\\3/C(=C)CC[C@H](O)C3)\\CCC1)(CC[C@@]2([C@@H](CC[C@@H](C(C)C)C)C)[H])[H]",
    "meta_data": {
        "InChI": "InChI=1S/C28H46O/c1-19(2)20(3)9-10-22(5)26-15-16-27-23(8-7-17-28(26,27)6)12-13-24-18-25(29)14-11-21(24)4/h12-13,19-20,22,25-27,29H,4,7-11,14-18H2,1-3,5-6H3/b23-12+,24-13-/t20-,22+,25-,26+,27-,28+/m0/s1",
        "InChIKey": null,
        "Canonical SMILES": "OC1CC(=CC=C2CCCC3(C)C2CCC3C(C)CCC(C)C(C)C)C(=C)CC1",
        "Molecular Formula": "C<sub>28</sub>H<sub>46</sub>O",
        "Molecular Mass": "398.66",
        "Melting Point": "97 °C"
    }
}