{
    "cas_no": "29706-84-1",
    "key_name": "3′-Azido-3′-deoxy-5′-<em>O</em>-(triphenylmethyl)thymidine",
    "cn_name": null,
    "alternate_name": "Thymidine, 3′-azido-3′-deoxy-5′-<em>O</em>-(triphenylmethyl)-;Thymidine, 3′-azido-3′-deoxy-5′-<em>O</em>-trityl-;3′-Azido-3′-deoxy-5′-<em>O</em>-(triphenylmethyl)thymidine;3′-Azido-3′-deoxy-5′-<em>O</em>-tritylthymidine",
    "duplicated_cas_no": "399024-16-9",
    "SMILES": "C(OC[C@@H]1[C@@H](N=[N+]=[N-])C[C@@H](O1)N2C(=O)NC(=O)C(C)=C2)(C3=CC=CC=C3)(C4=CC=CC=C4)C5=CC=CC=C5",
    "meta_data": {
        "InChI": "InChI=1S/C29H27N5O4/c1-20-18-34(28(36)31-27(20)35)26-17-24(32-33-30)25(38-26)19-37-29(21-11-5-2-6-12-21,22-13-7-3-8-14-22)23-15-9-4-10-16-23/h2-16,18,24-26H,17,19H2,1H3,(H,31,35,36)/t24-,25+,26+/m0/s1",
        "InChIKey": null,
        "Canonical SMILES": "[N-]=[N+]=NC1CC(OC1COC(C=2C=CC=CC2)(C=3C=CC=CC3)C=4C=CC=CC4)N5C=C(C(=O)NC5=O)C",
        "Molecular Formula": "C<sub>29</sub>H<sub>27</sub>N<sub>5</sub>O<sub>4</sub>",
        "Molecular Mass": "",
        "Melting Point": "103-104 °C"
    }
}