{
    "cas_no": "20187-55-7",
    "key_name": "Bendazac",
    "cn_name": "苄达酸;[(1-苄基-1H-吲唑-3-基)氧]乙酸;",
    "alternate_name": "Acetic acid, 2-[[1-(phenylmethyl)-1<em>H</em>-indazol-3-yl]oxy]-;Acetic acid, [(1-benzyl-1<em>H</em>-indazol-3-yl)oxy]-;Acetic acid, [[1-(phenylmethyl)-1<em>H</em>-indazol-3-yl]oxy]-;2-[[1-(Phenylmethyl)-1<em>H</em>-indazol-3-yl]oxy]acetic acid;Bendazac;1-Benzylindazole-3-oxyacetic acid;AF 983;(1-Benzyl-3-indazolyl)oxyacetic acid;Zildazac;Bindazac;Zildasac;Dogalina;Bendazolic acid;2-(1-Benzyl-1<em>H</em>-indazol-3-yloxy)acetic Acid;2-(1-Benzylindazol-3-yl)oxyacetic acid;2-((1-Benzyl-1<em>H</em>-indazol-3-yl)oxy)acetic acid",
    "duplicated_cas_no": "",
    "SMILES": "C(N1C=2C(C(OCC(O)=O)=N1)=CC=CC2)C3=CC=CC=C3",
    "meta_data": {
        "InChI": "InChI=1S/C16H14N2O3/c19-15(20)11-21-16-13-8-4-5-9-14(13)18(17-16)10-12-6-2-1-3-7-12/h1-9H,10-11H2,(H,19,20)",
        "InChIKey": null,
        "Canonical SMILES": "O=C(O)COC1=NN(C=2C=CC=CC12)CC=3C=CC=CC3",
        "Molecular Formula": "C<sub>16</sub>H<sub>14</sub>N<sub>2</sub>O<sub>3</sub>",
        "Molecular Mass": "282.29",
        "Melting Point": "160 °C"
    }
}