{
    "cas_no": "3160-59-6",
    "key_name": "<em>N</em>-[(Phenylmethoxy)carbonyl]-<span class=\"text-smallcaps\">L</span>-isoleucine",
    "cn_name": "N-苄氧羰基-L-异亮氨酸;",
    "alternate_name": "<span class=\"text-smallcaps\">L</span>-Isoleucine, <em>N</em>-[(phenylmethoxy)carbonyl]-;Isoleucine, <em>N</em>-carboxy-, <em>N</em>-benzyl ester, <span class=\"text-smallcaps\">L</span>-;Isoleucine, <em>N</em>-carboxy-, <em>N</em>-benzyl ester;<em>N</em>-[(Phenylmethoxy)carbonyl]-<span class=\"text-smallcaps\">L</span>-isoleucine;<em>N</em>-Carbobenzoxy-<span class=\"text-smallcaps\">L</span>-isoleucine;<em>N</em>-Benzyloxycarbonyl-<span class=\"text-smallcaps\">L</span>-isoleucine;<em>N</em>-(Benzyloxycarbonyl)isoleucine;<em>N</em>-(Carbobenzyloxy)isoleucine;CBZ-<span class=\"text-smallcaps\">L</span>-Isoleucine;<em>N</em>-Carbobenzyloxy-<span class=\"text-smallcaps\">L</span>-isoleucine;((Benzyloxy)carbonyl)-<span class=\"text-smallcaps\">L</span>-isoleucine",
    "duplicated_cas_no": "1396986-90-5;1440420-19-8",
    "SMILES": "[C@@H]([C@H](CC)C)(NC(OCC1=CC=CC=C1)=O)C(O)=O",
    "meta_data": {
        "InChI": "InChI=1S/C14H19NO4/c1-3-10(2)12(13(16)17)15-14(18)19-9-11-7-5-4-6-8-11/h4-8,10,12H,3,9H2,1-2H3,(H,15,18)(H,16,17)/t10-,12-/m0/s1",
        "InChIKey": null,
        "Canonical SMILES": "O=C(OCC=1C=CC=CC1)NC(C(=O)O)C(C)CC",
        "Molecular Formula": "C<sub>14</sub>H<sub>19</sub>NO<sub>4</sub>",
        "Molecular Mass": "265.30",
        "Melting Point": "44-46 °C"
    }
}