{
    "cas_no": "345-35-7",
    "key_name": "2-Fluorobenzyl chloride",
    "cn_name": "邻氟氯苄;2-氟氯苄;",
    "alternate_name": "Benzene, 1-(chloromethyl)-2-fluoro-;Toluene, α-chloro-<em>o</em>-fluoro-;1-(Chloromethyl)-2-fluorobenzene;<em>o</em>-Fluorobenzyl chloride;2-Fluorobenzyl chloride;α-Chloro-2-fluorotoluene;α-Chloro-<em>o</em>-fluorotoluene;o-fluorobenzyl chloride;NSC 88295;2-Fluorophenylmethyl chloride",
    "duplicated_cas_no": "",
    "SMILES": "C(Cl)C1=C(F)C=CC=C1",
    "meta_data": {
        "InChI": "InChI=1S/C7H6ClF/c8-5-6-3-1-2-4-7(6)9/h1-4H,5H2",
        "InChIKey": null,
        "Canonical SMILES": "FC=1C=CC=CC1CCl",
        "Molecular Formula": "C<sub>7</sub>H<sub>6</sub>ClF",
        "Molecular Mass": "144.57",
        "Boiling Point": "83 °C @ Press: 32 Torr",
        "Melting Point": "36-38 °C",
        "Density": "1.2162 g/cm³ @ Temp: 24 °C"
    }
}