{
    "cas_no": "132-17-2",
    "key_name": "Benztropine mesylate",
    "cn_name": null,
    "alternate_name": "8-Azabicyclo[3.2.1]octane, 3-(diphenylmethoxy)-8-methyl-, (3-<em>endo</em>)-, methanesulfonate (1:1);1α<span class=\"text-smallcaps\">H</smallcap>,5α<smallcap>H</span>-Tropane, 3α-(diphenylmethoxy)-, methanesulfonate;8-Azabicyclo[3.2.1]octane, 3-(diphenylmethoxy)-8-methyl-, <em>endo</em>-, methanesulfonate;8-Azabicyclo[3.2.1]octane, 3-(diphenylmethoxy)-8-methyl-, (3-<em>endo</em>)-, methanesulfonate;MK 02;Benzatropine methanesulfonate;Benzotropine methanesulfonate;Benztropine mesylate;Benztropine methanesulfonate;Cobrentin methanesulfonate;Cogentin methanesulfonate;3-Diphenylmethoxytropane mesylate;3-Diphenylmethoxytropane methanesulfonate;Tropine benzohydryl ether methanesulfonate;Benzotropine mesylate;Cogentin;Cogentinol;NSC 169913;NSC 42199",
    "duplicated_cas_no": "",
    "SMILES": "C(O[C@H]1C[C@@]2(N(C)[C@](C1)(CC2)[H])[H])(C3=CC=CC=C3)C4=CC=CC=C4.S(C)(=O)(=O)O",
    "meta_data": {
        "InChI": "InChI=1/C21H25NO.CH4O3S/c1-22-18-12-13-19(22)15-20(14-18)23-21(16-8-4-2-5-9-16)17-10-6-3-7-11-17;1-5(2,3)4/h2-11,18-21H,12-15H2,1H3;1H3,(H,2,3,4)/t18-,19+,20+;",
        "InChIKey": null,
        "Canonical SMILES": "O=S(=O)(O)C.O(C(C=1C=CC=CC1)C=2C=CC=CC2)C3CC4N(C)C(CC4)C3",
        "Molecular Formula": "C<sub>21</sub>H<sub>25</sub>NO.CH<sub>4</sub>O<sub>3</sub>S",
        "Molecular Mass": "",
        "Melting Point": "143 °C"
    }
}