{
    "cas_no": "1115-99-7",
    "key_name": "Triethylgallium",
    "cn_name": "三乙基化镓;",
    "alternate_name": "Gallium, triethyl-;Triethylgallium;Triethylgallane",
    "duplicated_cas_no": "",
    "SMILES": "[Ga](CC)(CC)CC",
    "meta_data": {
        "InChI": "InChI=1S/3C2H5.Ga/c3*1-2;/h3*1H2,2H3;",
        "InChIKey": null,
        "Canonical SMILES": "[Ga](CC)(CC)CC",
        "Molecular Formula": "C<sub>6</sub>H<sub>15</sub>Ga",
        "Molecular Mass": "",
        "Boiling Point": "46-48 °C @ Press: 18 Torr",
        "Melting Point": "142 °C"
    }
}