{
    "cas_no": "205-12-9",
    "key_name": "7<em>H</em>-Benzo[<em>c</em>]fluorene",
    "cn_name": null,
    "alternate_name": "7<em>H</em>-Benzo[<em>c</em>]fluorene;Benzo[<em>c</em>]fluorene;3,4-Benzofluorene;NSC 89264",
    "duplicated_cas_no": "",
    "SMILES": "C=12C=3C(CC1C=CC=4C2=CC=CC4)=CC=CC3",
    "meta_data": {
        "InChI": "InChI=1S/C17H12/c1-3-7-15-12(5-1)9-10-14-11-13-6-2-4-8-16(13)17(14)15/h1-10H,11H2",
        "InChIKey": null,
        "Canonical SMILES": "C=1C=CC2=C(C1)C=CC3=C2C=4C=CC=CC4C3",
        "Molecular Formula": "C<sub>17</sub>H<sub>12</sub>",
        "Molecular Mass": "216.28",
        "Melting Point": "124-125 °C"
    }
}