{
    "cas_no": "1505-52-8",
    "key_name": "3-Methylbenzo[<em>b</em>]thiophene-2-acetic acid",
    "cn_name": "3-甲基苯并[b]噻吩-2-乙酸;",
    "alternate_name": "Benzo[<em>b</em>]thiophene-2-acetic acid, 3-methyl-;3-Methylbenzo[<em>b</em>]thiophene-2-acetic acid;2-(3-Methylbenzo[<em>b</em>]thiophen-2-yl)acetic acid;2-(3-Methyl-1-benzothiophen-2-yl)acetic acid",
    "duplicated_cas_no": "",
    "SMILES": "CC=1C=2C(SC1CC(O)=O)=CC=CC2",
    "meta_data": {
        "InChI": "InChI=1S/C11H10O2S/c1-7-8-4-2-3-5-9(8)14-10(7)6-11(12)13/h2-5H,6H2,1H3,(H,12,13)",
        "InChIKey": null,
        "Canonical SMILES": "O=C(O)CC=1SC=2C=CC=CC2C1C",
        "Molecular Formula": "C<sub>11</sub>H<sub>10</sub>O<sub>2</sub>S",
        "Molecular Mass": "206.26",
        "Melting Point": "150.4-152 °C"
    }
}