{
    "cas_no": "1888-71-7",
    "key_name": "1,1,2,3,3,3-Hexachloro-1-propene",
    "cn_name": "六氯丙烯;",
    "alternate_name": "1-Propene, 1,1,2,3,3,3-hexachloro-;Propene, hexachloro-;1,1,2,3,3,3-Hexachloro-1-propene;Hexachloropropene;Hexachloropropylene;Perchloropropylene;Perchloropropene;1,1,1,2,3,3-Hexachloropropene;Hexachloro-1-propene;NSC 7297;Perchloroprop-1-ene",
    "duplicated_cas_no": "",
    "SMILES": "C(C(Cl)(Cl)Cl)(=C(Cl)Cl)Cl",
    "meta_data": {
        "InChI": "InChI=1S/C3Cl6/c4-1(2(5)6)3(7,8)9",
        "InChIKey": null,
        "Canonical SMILES": "ClC(Cl)=C(Cl)C(Cl)(Cl)Cl",
        "Molecular Formula": "C<sub>3</sub>Cl<sub>6</sub>",
        "Molecular Mass": "248.75",
        "Boiling Point": "209.5 °C",
        "Melting Point": "-72.9 °C",
        "Density": "1.7632 g/cm³ @ Temp: 20 °C"
    }
}