{
    "cas_no": "35161-70-7",
    "key_name": "Methylhexylamine",
    "cn_name": "N-己基甲胺;N-甲基己胺;",
    "alternate_name": "1-Hexanamine, <em>N</em>-methyl-;Hexylamine, <em>N</em>-methyl-;<em>N</em>-Methyl-1-hexanamine;<em>N</em>-Methylhexylamine;<em>N</em>-Hexyl-<em>N</em>-methylamine;Hexylmethylamine;<em>N</em>-Methylhexanamine;Methylhexylamine;<em>N</em>-Methyl-<em>N</em>-hexylamine;<em>N</em>-Methyl-1-aminohexane;<em>N</em>-Methyl-1-hexylamine;<em>N</em>-Hexylmethylamine",
    "duplicated_cas_no": "",
    "SMILES": "C(CCNC)CCC",
    "meta_data": {
        "InChI": "InChI=1S/C7H17N/c1-3-4-5-6-7-8-2/h8H,3-7H2,1-2H3",
        "InChIKey": null,
        "Canonical SMILES": "N(C)CCCCCC",
        "Molecular Formula": "C<sub>7</sub>H<sub>17</sub>N",
        "Molecular Mass": "115.22",
        "Boiling Point": "126-128 °C @ Press: 754 Torr",
        "Density": "0.761 g/cm³ @ Temp: 20 °C"
    }
}