{
    "cas_no": "634-35-5",
    "key_name": "Quinolinium, 1-ethyl-, iodide (1:1)",
    "cn_name": null,
    "alternate_name": "Quinolinium, 1-ethyl-, iodide (1:1);Quinolinium, 1-ethyl-, iodide;1-Ethylquinolinium iodide;<em>N</em>-Ethylquinolinium iodide;Quinoline ethiodide;Ethane, iodo-, addn. compd. with quinoline",
    "duplicated_cas_no": "32797-04-9;792922-69-1",
    "SMILES": "C(C)[N+]=1C2=C(C=CC1)C=CC=C2.[I-]",
    "meta_data": {
        "InChI": "InChI=1S/C11H12N.HI/c1-2-12-9-5-7-10-6-3-4-8-11(10)12;/h3-9H,2H2,1H3;1H/q+1;/p-1",
        "InChIKey": null,
        "Canonical SMILES": "[I-].C=1C=CC2=C(C1)C=CC=[N+]2CC",
        "Molecular Formula": "C<sub>11</sub>H<sub>12</sub>N.I",
        "Molecular Mass": "",
        "Melting Point": "156 °C"
    }
}