{
    "cas_no": "54454-10-3",
    "key_name": "5-Chloro-1,3-dimethyl-1<em>H</em>-pyrazole",
    "cn_name": "5-氯-1,3-二甲基-1H-吡唑;",
    "alternate_name": "1<em>H</em>-Pyrazole, 5-chloro-1,3-dimethyl-;5-Chloro-1,3-dimethyl-1<em>H</em>-pyrazole;5-Chloro-1,3-dimethylpyrazole",
    "duplicated_cas_no": "",
    "SMILES": "ClC=1N(C)N=C(C)C1",
    "meta_data": {
        "InChI": "InChI=1S/C5H7ClN2/c1-4-3-5(6)8(2)7-4/h3H,1-2H3",
        "InChIKey": null,
        "Canonical SMILES": "ClC1=CC(=NN1C)C",
        "Molecular Formula": "C<sub>5</sub>H<sub>7</sub>ClN<sub>2</sub>",
        "Molecular Mass": "130.58",
        "Boiling Point": "157.5 °C",
        "Density": "1.1400 g/cm³ @ Temp: 20 °C"
    }
}