{
    "cas_no": "55589-62-3",
    "key_name": "Acesulfame potassium",
    "cn_name": null,
    "alternate_name": "1,2,3-Oxathiazin-4(3<em>H</em>)-one, 6-methyl-, 2,2-dioxide, potassium salt (1:1);1,2,3-Oxathiazin-4(3<em>H</em>)-one, 6-methyl-, 2,2-dioxide, potassium salt;Acesulfame K;Sunett;Acesulfame potassium;6-Methyl-3,4-dihydro-1,2,3-oxathiazin-4-one 2,2-dioxide potassium salt;Potassium acesulfame;Sunnett;Otizon;E 950;Sweet One;Potassium acesulfamate;Sunett D;Sunnet Pharma Grade D;Ace-K;Potassium acetosulfame",
    "duplicated_cas_no": "124030-40-6;133249-02-2;1017787-12-0",
    "SMILES": "O=S1(=O)NC(=O)C=C(C)O1.[K]",
    "meta_data": {
        "InChI": "InChI=1S/C4H5NO4S.K/c1-3-2-4(6)5-10(7,8)9-3;/h2H,1H3,(H,5,6);",
        "InChIKey": null,
        "Canonical SMILES": "[K].O=C1C=C(OS(=O)(=O)N1)C",
        "Molecular Formula": "C<sub>4</sub>H<sub>5</sub>NO<sub>4</sub>S.K",
        "Molecular Mass": "",
        "Melting Point": "68 °C"
    }
}