{
    "cas_no": "38585-74-9",
    "key_name": "5-Thiazolemethanol",
    "cn_name": "5-羟甲基噻唑;",
    "alternate_name": "5-Thiazolemethanol;5-(Hydroxymethyl)thiazole;5-(Hydroxymethyl)-1,3-thiazole;(1,3-Thiazol-5-yl)methanol;Thiazol-5-ylmethanol",
    "duplicated_cas_no": "",
    "SMILES": "C(O)C1=CN=CS1",
    "meta_data": {
        "InChI": "InChI=1S/C4H5NOS/c6-2-4-1-5-3-7-4/h1,3,6H,2H2",
        "InChIKey": null,
        "Canonical SMILES": "OCC=1SC=NC1",
        "Molecular Formula": "C<sub>4</sub>H<sub>5</sub>NOS",
        "Molecular Mass": "115.15",
        "Boiling Point": "114 °C @ Press: 1.5 Torr"
    }
}