{
    "cas_no": "353-09-3",
    "key_name": "β-Guanidinopropionic acid",
    "cn_name": "3-胍基丙酸;beta-丙酸胍;",
    "alternate_name": "β-Alanine, <em>N</em>-(aminoiminomethyl)-;β-Alanine, <em>N</em>-amidino-;<em>N</em>-(Aminoiminomethyl)-β-alanine;Guanidinepropionic acid;Guanidinopropionic acid;β-Guanidinopropionic acid;β-Guanidopropionic acid;Guanidinepropanoic acid;3-Guanidinopropanoic acid;3-Guanidinopropionic acid;Propanoic acid, 3-[(aminoiminomethyl)amino]-;PNU 10483;<em>N</em>-(3-Propanoic acid)guanidine;3-(Diaminomethylideneamino)propanoic acid;3-Carbamimidamidopropanoic acid;Ompenaclid;RGX 202;RGX 202-01",
    "duplicated_cas_no": "2487255-17-2",
    "SMILES": "C(CC(O)=O)NC(=N)N",
    "meta_data": {
        "InChI": "InChI=1S/C4H9N3O2/c5-4(6)7-2-1-3(8)9/h1-2H2,(H,8,9)(H4,5,6,7)",
        "InChIKey": null,
        "Canonical SMILES": "O=C(O)CCNC(=N)N",
        "Molecular Formula": "C<sub>4</sub>H<sub>9</sub>N<sub>3</sub>O<sub>2</sub>",
        "Molecular Mass": "131.13",
        "Melting Point": "204 °C"
    }
}