{
    "cas_no": "55836-71-0",
    "key_name": "4-Ethoxybenzamide",
    "cn_name": "4-乙氧基苯甲酰胺;对乙氧基苯甲酰胺;",
    "alternate_name": "Benzamide, 4-ethoxy-;Benzamide, <em>p</em>-ethoxy-;4-Ethoxybenzamide",
    "duplicated_cas_no": "",
    "SMILES": "C(N)(=O)C1=CC=C(OCC)C=C1",
    "meta_data": {
        "InChI": "InChI=1S/C9H11NO2/c1-2-12-8-5-3-7(4-6-8)9(10)11/h3-6H,2H2,1H3,(H2,10,11)",
        "InChIKey": null,
        "Canonical SMILES": "O=C(N)C1=CC=C(OCC)C=C1",
        "Molecular Formula": "C<sub>9</sub>H<sub>11</sub>NO<sub>2</sub>",
        "Molecular Mass": "165.19",
        "Melting Point": "208-210 °C"
    }
}