{
    "cas_no": "394-33-2",
    "key_name": "4-Fluoro-2-nitrophenol",
    "cn_name": "4-氟-2-硝基苯酚;2-硝基-4-氟苯酚;",
    "alternate_name": "Phenol, 4-fluoro-2-nitro-;4-Fluoro-2-nitrophenol;2-Nitro-4-fluorophenol;2-Hydroxy-5-fluoronitrobenzene;NSC 10283",
    "duplicated_cas_no": "",
    "SMILES": "N(=O)(=O)C1=C(O)C=CC(F)=C1",
    "meta_data": {
        "InChI": "InChI=1S/C6H4FNO3/c7-4-1-2-6(9)5(3-4)8(10)11/h1-3,9H",
        "InChIKey": null,
        "Canonical SMILES": "O=N(=O)C1=CC(F)=CC=C1O",
        "Molecular Formula": "C<sub>6</sub>H<sub>4</sub>FNO<sub>3</sub>",
        "Molecular Mass": "157.10",
        "Melting Point": "73.7 °C"
    }
}