{
    "cas_no": "1730-37-6",
    "key_name": "1-Methylfluorene",
    "cn_name": "1-甲基芴;",
    "alternate_name": "9<em>H</em>-Fluorene, 1-methyl-;Fluorene, 1-methyl-;1-Methyl-9<em>H</em>-fluorene;1-Methylfluorene;NSC 80183",
    "duplicated_cas_no": "",
    "SMILES": "CC1=C2C(C=3C(C2)=CC=CC3)=CC=C1",
    "meta_data": {
        "InChI": "InChI=1S/C14H12/c1-10-5-4-8-13-12-7-3-2-6-11(12)9-14(10)13/h2-8H,9H2,1H3",
        "InChIKey": null,
        "Canonical SMILES": "C=1C=CC2=C(C1)C3=CC=CC(=C3C2)C",
        "Molecular Formula": "C<sub>14</sub>H<sub>12</sub>",
        "Molecular Mass": "180.25",
        "Boiling Point": "318.1 °C",
        "Melting Point": "85 °C"
    }
}