{
    "cas_no": "592-79-0",
    "key_name": "5-Fluoro-1-pentanamine",
    "cn_name": "5-氟戊胺;5-氟戊胺;",
    "alternate_name": "1-Pentanamine, 5-fluoro-;Pentylamine, 5-fluoro-;5-Fluoro-1-pentanamine;5-Fluoropentylamine",
    "duplicated_cas_no": "",
    "SMILES": "C(CCF)CCN",
    "meta_data": {
        "InChI": "InChI=1S/C5H12FN/c6-4-2-1-3-5-7/h1-5,7H2",
        "InChIKey": null,
        "Canonical SMILES": "FCCCCCN",
        "Molecular Formula": "C<sub>5</sub>H<sub>12</sub>FN",
        "Molecular Mass": "105.15",
        "Boiling Point": "67-67.5 °C @ Press: 50 Torr"
    }
}