{
    "cas_no": "123-32-0",
    "key_name": "2,5-Dimethylpyrazine",
    "cn_name": "2,5-二甲基吡嗪;",
    "alternate_name": "Pyrazine, 2,5-dimethyl-;2,5-Dimethylpyrazine;NSC 49139",
    "duplicated_cas_no": "",
    "SMILES": "CC=1C=NC(C)=CN1",
    "meta_data": {
        "InChI": "InChI=1S/C6H8N2/c1-5-3-8-6(2)4-7-5/h3-4H,1-2H3",
        "InChIKey": null,
        "Canonical SMILES": "N=1C=C(N=CC1C)C",
        "Molecular Formula": "C<sub>6</sub>H<sub>8</sub>N<sub>2</sub>",
        "Molecular Mass": "108.14",
        "Boiling Point": "155 °C",
        "Melting Point": "15 °C",
        "Density": "0.9887 g/cm³ @ Temp: 20 °C"
    }
}