{
    "cas_no": "5437-38-7",
    "key_name": "3-Methyl-2-nitrobenzoic acid",
    "cn_name": "3-甲基-2-硝基苯甲酸;",
    "alternate_name": "Benzoic acid, 3-methyl-2-nitro-;<em>m</em>-Toluic acid, 2-nitro-;3-Methyl-2-nitrobenzoic acid;2-Nitro-<em>m</em>-toluic acid;NSC 16048",
    "duplicated_cas_no": "",
    "SMILES": "N(=O)(=O)C1=C(C(O)=O)C=CC=C1C",
    "meta_data": {
        "InChI": "InChI=1S/C8H7NO4/c1-5-3-2-4-6(8(10)11)7(5)9(12)13/h2-4H,1H3,(H,10,11)",
        "InChIKey": null,
        "Canonical SMILES": "O=C(O)C1=CC=CC(=C1N(=O)=O)C",
        "Molecular Formula": "C<sub>8</sub>H<sub>7</sub>NO<sub>4</sub>",
        "Molecular Mass": "181.15",
        "Melting Point": "219-220 °C"
    }
}