{
    "cas_no": "935-42-2",
    "key_name": "1-Phenylcyclopropanemethanamine",
    "cn_name": null,
    "alternate_name": "Cyclopropanemethanamine, 1-phenyl-;Cyclopropanemethylamine, 1-phenyl-;1-Phenylcyclopropanemethanamine;1-Phenylcyclopropanemethylamine;1-Aminomethyl-1-phenylcyclopropane;(1-Phenylcyclopropyl)methanamine;[(1-Phenylcyclopropyl)methyl]amine",
    "duplicated_cas_no": "",
    "SMILES": "C(N)C1(CC1)C2=CC=CC=C2",
    "meta_data": {
        "InChI": "InChI=1S/C10H13N/c11-8-10(6-7-10)9-4-2-1-3-5-9/h1-5H,6-8,11H2",
        "InChIKey": null,
        "Canonical SMILES": "NCC1(C=2C=CC=CC2)CC1",
        "Molecular Formula": "C<sub>10</sub>H<sub>13</sub>N",
        "Molecular Mass": "147.22",
        "Boiling Point": "125-130 °C @ Press: 0.5 Torr",
        "Melting Point": "230-233 °C"
    }
}