{
    "cas_no": "565-69-5",
    "key_name": "2-Methyl-3-pentanone",
    "cn_name": "2-甲基-3-戊酮;乙基异丙基甲酮;乙基异丙基(甲)酮;2-甲基-3-戊酮,97%;乙基異丙基酮;2-甲-3-戊酮;",
    "alternate_name": "3-Pentanone, 2-methyl-;2-Methyl-3-pentanone;Ethyl isopropyl ketone;Isopropyl ethyl ketone;4-Methyl-3-pentanone",
    "duplicated_cas_no": "",
    "SMILES": "C(C(C)C)(CC)=O",
    "meta_data": {
        "InChI": "InChI=1S/C6H12O/c1-4-6(7)5(2)3/h5H,4H2,1-3H3",
        "InChIKey": null,
        "Canonical SMILES": "O=C(CC)C(C)C",
        "Molecular Formula": "C<sub>6</sub>H<sub>12</sub>O",
        "Molecular Mass": "100.16",
        "Boiling Point": "113.5 °C",
        "Melting Point": "-69 °C",
        "Density": "0.8349 g/cm³ @ Temp: 0 °C"
    }
}