{
    "cas_no": "625-72-9",
    "key_name": "(<em>R</em>)-3-Hydroxybutyric acid",
    "cn_name": null,
    "alternate_name": "Butanoic acid, 3-hydroxy-, (3<em>R</em>)-;Butyric acid, 3-hydroxy-, <span class=\"text-smallcaps\">D</span>-(-)-;Butanoic acid, 3-hydroxy-, (<em>R</em>)-;(3<em>R</em>)-3-Hydroxybutanoic acid;<span class=\"text-smallcaps\">D</span>-β-Hydroxybutyrate;(-)-3-Hydroxybutyric acid;<span class=\"text-smallcaps\">D</span>-β-Hydroxybutyric acid;<span class=\"text-smallcaps\">D</span>-(-)-3-Hydroxybutyric acid;<span class=\"text-smallcaps\">D</span>-(-)-3-Hydroxybutyrate;<span class=\"text-smallcaps\">D</span>-(-)-β-Hydroxybutyric acid;<span class=\"text-smallcaps\">D</span>-(-)-3-Hydroxybutanoic acid;(<em>R</em>)-β-Hydroxybutanoic acid;3-<span class=\"text-smallcaps\">D</span>-Hydroxybutyrate;<span class=\"text-smallcaps\">D</span>-3-Hydroxybutyrate;(<em>R</em>)-3-Hydroxybutyrate;(3<em>R</em>)-Hydroxybutyrate;(<em>R</em>)-(-)-β-Hydroxybutyric acid;(<em>R</em>)-(-)-3-Hydroxybutyric acid;<span class=\"text-smallcaps\">D</span>-3-Hydroxybutyric acid;(-)-3-Hydroxy-<em>n</em>-butyric acid;(<em>R</em>)-β-Hydroxybutyric acid;(<em>R</em>)-3-Hydroxybutanoic acid;(<em>R</em>)-3-Hydroxybutyric acid;(3<em>R</em>)-3-Hydroxybutyric acid;3<em>R</em>-Hydroxybutanoic acid;(R)-3-Hydroxybutyric acid;(3R)-3-Hydroxybutanoic acid;Oketoa",
    "duplicated_cas_no": "",
    "SMILES": "C([C@@H](C)O)C(O)=O",
    "meta_data": {
        "InChI": "InChI=1S/C4H8O3/c1-3(5)2-4(6)7/h3,5H,2H2,1H3,(H,6,7)/t3-/m1/s1",
        "InChIKey": null,
        "Canonical SMILES": "O=C(O)CC(O)C",
        "Molecular Formula": "C<sub>4</sub>H<sub>8</sub>O<sub>3</sub>",
        "Molecular Mass": "104.10",
        "Boiling Point": "90-92 °C @ Press: 0.08 Torr"
    }
}