{
    "cas_no": "61379-64-4",
    "key_name": "4-Cyclopentyl-1-piperazinamine",
    "cn_name": "1-氨基-4-环戊基哌嗪;",
    "alternate_name": "1-Piperazinamine, 4-cyclopentyl-;4-Cyclopentyl-1-piperazinamine;1-Amino-4-cyclopentylpiperazine",
    "duplicated_cas_no": "",
    "SMILES": "NN1CCN(CC1)C2CCCC2",
    "meta_data": {
        "InChI": "InChI=1S/C9H19N3/c10-12-7-5-11(6-8-12)9-3-1-2-4-9/h9H,1-8,10H2",
        "InChIKey": null,
        "Canonical SMILES": "NN1CCN(CC1)C2CCCC2",
        "Molecular Formula": "C<sub>9</sub>H<sub>19</sub>N<sub>3</sub>",
        "Molecular Mass": "169.27",
        "Melting Point": "52-54 °C"
    }
}