{
    "cas_no": "362-76-5",
    "key_name": "2′,3′-Isopropylideneguanosine",
    "cn_name": "2\",3\"-O-异丙亚基鸟苷;",
    "alternate_name": "Guanosine, 2′,3′-<em>O</em>-(1-methylethylidene)-;Guanosine, 2′,3′-<em>O</em>-isopropylidene-;Furo[3,4-<em>d</em>]-1,3-dioxole, guanosine deriv.;2′,3′-<em>O</em>-(1-Methylethylidene)guanosine;Isopropylideneguanosine;2′,3′-<em>O</em>-Isopropylideneguanosine;2′,3′-Isopropylideneguanosine",
    "duplicated_cas_no": "1803254-67-2",
    "SMILES": "C(O)[C@H]1O[C@H]([C@]2([C@@]1(OC(C)(C)O2)[H])[H])N3C4=C(N=C3)C(=O)N=C(N)N4",
    "meta_data": {
        "InChI": "InChI=1S/C13H17N5O5/c1-13(2)22-7-5(3-19)21-11(8(7)23-13)18-4-15-6-9(18)16-12(14)17-10(6)20/h4-5,7-8,11,19H,3H2,1-2H3,(H3,14,16,17,20)/t5-,7-,8-,11-/m1/s1",
        "InChIKey": null,
        "Canonical SMILES": "O=C1N=C(N)NC2=C1N=CN2C3OC(CO)C4OC(OC34)(C)C",
        "Molecular Formula": "C<sub>13</sub>H<sub>17</sub>N<sub>5</sub>O<sub>5</sub>",
        "Molecular Mass": "323.30",
        "Melting Point": "299 °C (decomp)"
    }
}