{
    "cas_no": "40052-13-9",
    "key_name": "Mono-<em>tert</em>-butyl malonate",
    "cn_name": "丙二酸单叔丁酯;",
    "alternate_name": "Propanedioic acid, 1-(1,1-dimethylethyl) ester;Propanedioic acid, mono(1,1-dimethylethyl) ester;<em>tert</em>-Butyl hydrogen malonate;Mono-<em>tert</em>-butyl malonate;Malonic acid <em>tert</em>-butyl monoester;Malonic acid mono-<em>tert</em>-butyl ester;2-(<em>tert</em>-Butoxycarbonyl)acetic acid;3-<em>tert</em>-Butoxy-3-oxopropanoic acid;3-<em>tert</em>-Butoxy-3-oxopropionic acid;3-[(2-Methylpropan-2-yl)oxy]-3-oxopropanoic acid",
    "duplicated_cas_no": "50990-09-5",
    "SMILES": "O(C(C)(C)C)C(CC(O)=O)=O",
    "meta_data": {
        "InChI": "InChI=1S/C7H12O4/c1-7(2,3)11-6(10)4-5(8)9/h4H2,1-3H3,(H,8,9)",
        "InChIKey": null,
        "Canonical SMILES": "O=C(O)CC(=O)OC(C)(C)C",
        "Molecular Formula": "C<sub>7</sub>H<sub>12</sub>O<sub>4</sub>",
        "Molecular Mass": "160.17",
        "Boiling Point": "90 °C @ Press: 2 Torr",
        "Melting Point": "19-20 °C"
    }
}