{
    "cas_no": "7235-40-7",
    "key_name": "β-Carotene",
    "cn_name": "beta-胡萝卜素;",
    "alternate_name": "β,β-Carotene;β-Carotene, <em>all</em>-<em>trans</em>-;β-Carotene;Cyclohexene, 1,1′-(3,7,12,16-tetramethyl-1,3,5,7,9,11,13,15,17-octadecanonaene-1,18-diyl)bis[2,6,6-trimethyl-, (<em>all</em>-<em>E</em>)-;<em>all</em>-<em>trans</em>-β-Carotene;Serlabo;(<em>all</em>-<em>E</em>)-1,1′-(3,7,12,16-Tetramethyl-1,3,5,7,9,11,13,15,17-octadecanonaene-1,18-diyl)bis[2,6,6-trimethylcyclohexene];KPMK;<em>all</em>-<em>E</em>-β-Carotene;C.I. Food Orange 5;Betacarotene;Food Orange 5;Provatenol;Rovimix β-carotene;Lucarotin;Lucaratin;Solatene;Provatene;BetaVit;Carotaben;NSC 62794;Carotene Base 80S;Lurotin;C.I. 40800;Lucarotin 10CWD/O;CoroCare;Lucarotin 30SUN;Caroten Base 35468;Carofertin;Lucarotin 20MCT;Carotene Base 80;Carotene Base 80SV;Natpure COL Red LC318L;MeSH ID: D019207",
    "duplicated_cas_no": "116-32-5;31797-85-0;2321332-51-6;2519474-91-8",
    "SMILES": "C(=C/C(=C/C=C/C(=C/C=C/C=C(/C=C/C=C(/C=C/C=1C(C)(C)CCCC1C)\\C)\\C)/C)/C)\\C=2C(C)(C)CCCC2C",
    "meta_data": {
        "InChI": "InChI=1S/C40H56/c1-31(19-13-21-33(3)25-27-37-35(5)23-15-29-39(37,7)8)17-11-12-18-32(2)20-14-22-34(4)26-28-38-36(6)24-16-30-40(38,9)10/h11-14,17-22,25-28H,15-16,23-24,29-30H2,1-10H3/b12-11+,19-13+,20-14+,27-25+,28-26+,31-17+,32-18+,33-21+,34-22+",
        "InChIKey": null,
        "Canonical SMILES": "C(=CC=C(C=CC=C(C=CC1=C(C)CCCC1(C)C)C)C)C=C(C=CC=C(C=CC2=C(C)CCCC2(C)C)C)C",
        "Molecular Formula": "C<sub>40</sub>H<sub>56</sub>",
        "Molecular Mass": "536.87",
        "Melting Point": "183 °C",
        "Density": "1.00 g/cm³ @ Temp: 20 °C"
    }
}