{
    "cas_no": "1003-61-8",
    "key_name": "2-Amino-5-thiazolecarboxaldehyde",
    "cn_name": "2-氨基-5-醛基噻唑;",
    "alternate_name": "5-Thiazolecarboxaldehyde, 2-amino-;2-Amino-5-thiazolecarboxaldehyde;2-Amino-5-formylthiazole;2-Amino-1,3-thiazole-5-carboxaldehyde;2-Amino-1,3-thiazole-5-carbaldehyde;2-Aminothiazole-5-carbaldehyde;2-Amino-thiazole-5-carbaldehyde",
    "duplicated_cas_no": "",
    "SMILES": "C(=O)C=1SC(N)=NC1",
    "meta_data": {
        "InChI": "InChI=1S/C4H4N2OS/c5-4-6-1-3(2-7)8-4/h1-2H,(H2,5,6)",
        "InChIKey": null,
        "Canonical SMILES": "O=CC=1SC(=NC1)N",
        "Molecular Formula": "C<sub>4</sub>H<sub>4</sub>N<sub>2</sub>OS",
        "Molecular Mass": "128.15",
        "Melting Point": "172-175 °C"
    }
}