{
    "cas_no": "3042-84-0",
    "key_name": "Brompyrazon",
    "cn_name": "溴杀草敏;5-氨基-4-溴-2-苯基哒嗪-3-酮；溴哒酮;",
    "alternate_name": "3(2<em>H</em>)-Pyridazinone, 5-amino-4-bromo-2-phenyl-;5-Amino-4-bromo-2-phenyl-3(2<em>H</em>)-pyridazinone;BAS 2430;1-Phenyl-4-amino-5-bromo-6-pyridazone;5-Amino-4-bromo-2-phenyl-3-pyridazone;BAS 2430H;Brompyrazon;5-Amino-4-bromo-2-phenylpyridazin-3-one;1-Phenyl-4-amino-5-bromo-6-pyridazinone;4-Amino-5-bromo-1-phenyl-6-pyridazinone",
    "duplicated_cas_no": "",
    "SMILES": "O=C1N(N=CC(N)=C1Br)C2=CC=CC=C2",
    "meta_data": {
        "InChI": "InChI=1S/C10H8BrN3O/c11-9-8(12)6-13-14(10(9)15)7-4-2-1-3-5-7/h1-6H,12H2",
        "InChIKey": null,
        "Canonical SMILES": "O=C1C(Br)=C(N)C=NN1C=2C=CC=CC2",
        "Molecular Formula": "C<sub>10</sub>H<sub>8</sub>BrN<sub>3</sub>O",
        "Molecular Mass": "266.09",
        "Melting Point": "223.5 °C"
    }
}