{
    "cas_no": "1836-74-4",
    "key_name": "1-Chloro-4-(4-nitrophenoxy)benzene",
    "cn_name": "1-(4-氯苯氧基)-4-硝基苯;",
    "alternate_name": "Benzene, 1-chloro-4-(4-nitrophenoxy)-;Ether, <em>p</em>-chlorophenyl <em>p</em>-nitrophenyl;1-Chloro-4-(4-nitrophenoxy)benzene;<em>p</em>-Chlorophenyl <em>p</em>-nitrophenyl ether;4-Chloro-4′-nitrodiphenyl ether;4-Chlorophenyl 4-nitrophenyl ether;4′-Chloro-4-nitrodiphenyl ether;4-(4-Chlorophenoxy)nitrobenzene;NSC 12989;1-(4-Chlorophenoxy)-4-nitrobenzene;4-Chloro-(4-nitrophenoxy)benzene",
    "duplicated_cas_no": "",
    "SMILES": "O(C1=CC=C(N(=O)=O)C=C1)C2=CC=C(Cl)C=C2",
    "meta_data": {
        "InChI": "InChI=1S/C12H8ClNO3/c13-9-1-5-11(6-2-9)17-12-7-3-10(4-8-12)14(15)16/h1-8H",
        "InChIKey": null,
        "Canonical SMILES": "O=N(=O)C1=CC=C(OC2=CC=C(Cl)C=C2)C=C1",
        "Molecular Formula": "C<sub>12</sub>H<sub>8</sub>ClNO<sub>3</sub>",
        "Molecular Mass": "249.65",
        "Melting Point": "76.5 °C"
    }
}