{
    "cas_no": "873-62-1",
    "key_name": "3-Cyanophenol",
    "cn_name": "3-羟基苯腈;间羟基苯腈;间氰基苯酚;",
    "alternate_name": "Benzonitrile, 3-hydroxy-;Benzonitrile, <em>m</em>-hydroxy-;3-Hydroxybenzonitrile;3-Cyanophenol;<em>m</em>-Cyanophenol;<em>m</em>-Hydroxybenzonitrile;m-Cyanophenol;NSC 60108",
    "duplicated_cas_no": "52805-82-0",
    "SMILES": "C(#N)C1=CC(O)=CC=C1",
    "meta_data": {
        "InChI": "InChI=1S/C7H5NO/c8-5-6-2-1-3-7(9)4-6/h1-4,9H",
        "InChIKey": null,
        "Canonical SMILES": "N#CC=1C=CC=C(O)C1",
        "Molecular Formula": "C<sub>7</sub>H<sub>5</sub>NO",
        "Molecular Mass": "119.12",
        "Boiling Point": "179-180 °C @ Press: 13 Torr",
        "Melting Point": "79-81 °C"
    }
}