{
    "cas_no": "4043-59-8",
    "key_name": "1,3-Diethoxy-2-propanol",
    "cn_name": "1,3-二乙氧基-2-丙醇;甘油1,3-二乙醚;",
    "alternate_name": "2-Propanol, 1,3-diethoxy-;1,3-Diethoxy-2-propanol;Glycerol α,γ-diethyl ether;Diethylin;Glycerol 1,3-bis(ethyl ether);Glycerol 1,3-diethyl ether;1,3-Glycerin diethyl ether;1,3-Diethyl glycerin ether;NSC 403841",
    "duplicated_cas_no": "",
    "SMILES": "C(COCC)(COCC)O",
    "meta_data": {
        "InChI": "InChI=1S/C7H16O3/c1-3-9-5-7(8)6-10-4-2/h7-8H,3-6H2,1-2H3",
        "InChIKey": null,
        "Canonical SMILES": "OC(COCC)COCC",
        "Molecular Formula": "C<sub>7</sub>H<sub>16</sub>O<sub>3</sub>",
        "Molecular Mass": "148.20",
        "Boiling Point": "61.5-62 °C @ Press: 2 Torr",
        "Density": "0.9514 g/cm³ @ Temp: 20 °C"
    }
}