{
    "cas_no": "10108-64-2",
    "key_name": "Cadmium chloride",
    "cn_name": "氯化镉;",
    "alternate_name": "Cadmium chloride (CdCl<sub>2</sub>);Cadmium dichloride;Dichlorocadmium;Cadmium chloride;NSC 51148;MeSH ID: D019256",
    "duplicated_cas_no": "",
    "SMILES": "[Cd](Cl)Cl",
    "meta_data": {
        "InChI": "InChI=1S/Cd.2ClH/h;2*1H/q+2;;/p-2",
        "InChIKey": null,
        "Canonical SMILES": "Cl[Cd]Cl",
        "Molecular Formula": "CdCl<sub>2</sub>",
        "Molecular Mass": "",
        "Boiling Point": "960 °C",
        "Melting Point": "568 °C",
        "Density": "4.05 g/cm³"
    }
}