{
    "cas_no": "96-26-4",
    "key_name": "Dihydroxyacetone",
    "cn_name": "1,3-二羟基丙酮;",
    "alternate_name": "2-Propanone, 1,3-dihydroxy-;1,3-Dihydroxy-2-propanone;Chromelin;1,3-Dihydroxyacetone;Dihydroxyacetone;Triulose;Dihyxal;Otan;Oxantin;Oxatone;Soleal;Viticolor;α,α′-Dihydroxyacetone;Bis(hydroxymethyl) ketone;NSC 24343;2-Oxopropane-1,3-diol;MeSH ID: D004098",
    "duplicated_cas_no": "",
    "SMILES": "C(CO)(CO)=O",
    "meta_data": {
        "InChI": "InChI=1S/C3H6O3/c4-1-3(6)2-5/h4-5H,1-2H2",
        "InChIKey": null,
        "Canonical SMILES": "O=C(CO)CO",
        "Molecular Formula": "C<sub>3</sub>H<sub>6</sub>O<sub>3</sub>",
        "Molecular Mass": "90.08",
        "Melting Point": "90 °C"
    }
}