{
    "cas_no": "69628-98-4",
    "key_name": "1-(2-Methoxyethyl)-4-nitrobenzene",
    "cn_name": null,
    "alternate_name": "Benzene, 1-(2-methoxyethyl)-4-nitro-;Ether, methyl <em>p</em>-nitrophenethyl;1-(2-Methoxyethyl)-4-nitrobenzene;<em>p</em>-Nitrophenethyl methyl ether;Methyl <em>p</em>-nitrophenethyl ether;1-Methoxy-2-(4-nitrophenyl)ethane;2-(4-Nitrophenyl)ethyl methyl ether",
    "duplicated_cas_no": "",
    "SMILES": "N(=O)(=O)C1=CC=C(CCOC)C=C1",
    "meta_data": {
        "InChI": "InChI=1S/C9H11NO3/c1-13-7-6-8-2-4-9(5-3-8)10(11)12/h2-5H,6-7H2,1H3",
        "InChIKey": null,
        "Canonical SMILES": "O=N(=O)C1=CC=C(C=C1)CCOC",
        "Molecular Formula": "C<sub>9</sub>H<sub>11</sub>NO<sub>3</sub>",
        "Molecular Mass": "181.19",
        "Boiling Point": "62.5-63 °C",
        "Melting Point": "60-61 °C"
    }
}