{
    "cas_no": "73724-46-6",
    "key_name": "<em>N</em>-[(9<em>H</em>-Fluoren-9-ylmethoxy)carbonyl]-<span class=\"text-smallcaps\">L</span>-serine phenylmethyl ester",
    "cn_name": null,
    "alternate_name": "<span class=\"text-smallcaps\">L</span>-Serine, <em>N</em>-[(9<em>H</em>-fluoren-9-ylmethoxy)carbonyl]-, phenylmethyl ester;<em>N</em>-[(9<em>H</em>-Fluoren-9-ylmethoxy)carbonyl]-<span class=\"text-smallcaps\">L</span>-serine phenylmethyl ester;Fmoc-<span class=\"text-smallcaps\">L</span>-serine benzyl ester;Fmoc-Ser-OBn;<em>N</em>-Fmoc-<span class=\"text-smallcaps\">L</span>-serine benzyl ester;(<em>S</em>)-Benzyl 2-((((9<em>H</em>-fluoren-9-yl)methoxy)carbonyl)amino)-3-hydroxypropanoate",
    "duplicated_cas_no": "125803-96-5",
    "SMILES": "C(OC(N[C@H](C(OCC1=CC=CC=C1)=O)CO)=O)C2C=3C(C=4C2=CC=CC4)=CC=CC3",
    "meta_data": {
        "InChI": "InChI=1S/C25H23NO5/c27-14-23(24(28)30-15-17-8-2-1-3-9-17)26-25(29)31-16-22-20-12-6-4-10-18(20)19-11-5-7-13-21(19)22/h1-13,22-23,27H,14-16H2,(H,26,29)/t23-/m0/s1",
        "InChIKey": null,
        "Canonical SMILES": "O=C(OCC1C=2C=CC=CC2C=3C=CC=CC31)NC(C(=O)OCC=4C=CC=CC4)CO",
        "Molecular Formula": "C<sub>25</sub>H<sub>23</sub>NO<sub>5</sub>",
        "Molecular Mass": "417.45",
        "Melting Point": "98-100 °C"
    }
}