{
    "cas_no": "618385-01-6",
    "key_name": "Vorapaxar",
    "cn_name": null,
    "alternate_name": "Carbamic acid, <em>N</em>-[(1<em>R</em>,3a<em>R</em>,4a<em>R</em>,6<em>R</em>,8a<em>R</em>,9<em>S</em>,9a<em>S</em>)-9-[(1<em>E</em>)-2-[5-(3-fluorophenyl)-2-pyridinyl]ethenyl]dodecahydro-1-methyl-3-oxonaphtho[2,3-<em>c</em>]furan-6-yl]-, ethyl ester;Carbamic acid, [(1<em>R</em>,3a<em>R</em>,4a<em>R</em>,6<em>R</em>,8a<em>R</em>,9<em>S</em>,9a<em>S</em>)-9-[(1<em>E</em>)-2-[5-(3-fluorophenyl)-2-pyridinyl]ethenyl]dodecahydro-1-methyl-3-oxonaphtho[2,3-<em>c</em>]furan-6-yl]-, ethyl ester;Vorapaxar",
    "duplicated_cas_no": "",
    "SMILES": "C(=C/C1=CC=C(C=N1)C2=CC(F)=CC=C2)\\[C@@H]3[C@]4([C@@](C[C@]5([C@]3(CC[C@@H](NC(OCC)=O)C5)[H])[H])(C(=O)O[C@@H]4C)[H])[H]",
    "meta_data": {
        "InChI": "InChI=1S/C29H33FN2O4/c1-3-35-29(34)32-23-10-11-24-20(14-23)15-26-27(17(2)36-28(26)33)25(24)12-9-22-8-7-19(16-31-22)18-5-4-6-21(30)13-18/h4-9,12-13,16-17,20,23-27H,3,10-11,14-15H2,1-2H3,(H,32,34)/b12-9+/t17-,20+,23-,24-,25+,26-,27+/m1/s1",
        "InChIKey": null,
        "Canonical SMILES": "O=C(OCC)NC1CCC2C(C=CC=3N=CC(=CC3)C4=CC=CC(F)=C4)C5C(OC(=O)C5CC2C1)C",
        "Molecular Formula": "C<sub>29</sub>H<sub>33</sub>FN<sub>2</sub>O<sub>4</sub>",
        "Molecular Mass": "492.58",
        "Melting Point": "125 °C"
    }
}