{
    "cas_no": "101-14-4",
    "key_name": "3,3′-Dichloro-4,4′-diaminodiphenylmethane",
    "cn_name": "4,4\"-二氨基-3,3\"-二氯二苯甲烷;",
    "alternate_name": "Benzenamine, 4,4′-methylenebis[2-chloro-;Aniline, 4,4′-methylenebis[2-chloro-;4,4′-Methylenebis[2-chlorobenzenamine];MOCA (curing agent);3,3′-Dichloro-4,4′-diaminodiphenylmethane;Methylenebis(<em>o</em>-chloroaniline);Bis(3-chloro-4-aminophenyl)methane;Methylenebis(3-chloro-4-aminobenzene);4,4′-Methylenebis[2-chloroaniline];Quodorole;Bis(4-amino-3-chlorophenyl)methane;Diamet Kh;MOCA;Millionate M;4,4′-Methylenebis[<em>o</em>-chloroaniline];Cuamine MT;MBOCA;Bisamine S;Curene 442;4,4′-Methylenebis(2-chloraniline);Diamet X;Cuamine M;SL 4037;CPP 100;Bisamine A;2,2′-Dichloro-4,4′-methylenedianiline;NSC 52954;Ihara Cuamine MT;Methylenebis(chloraniline);Kuralon;Pandex E;Pandex M 3202;Isocross SM;HR 100 (amine);HR 100;DKh;Vibracure A 133;Vibracure 133;Curalon M;Cuamine K;[4-(4-Amino-3-chlorobenzyl)-2-chlorophenyl]amine;3,3′-Dichloro-4,4′-diphenylmethanediamine",
    "duplicated_cas_no": "29371-14-0;51065-07-7;78642-65-6;126699-69-2;142661-36-7;913092-91-8;1899048-27-1;1951406-44-2",
    "SMILES": "C(C1=CC(Cl)=C(N)C=C1)C2=CC(Cl)=C(N)C=C2",
    "meta_data": {
        "InChI": "InChI=1S/C13H12Cl2N2/c14-10-6-8(1-3-12(10)16)5-9-2-4-13(17)11(15)7-9/h1-4,6-7H,5,16-17H2",
        "InChIKey": null,
        "Canonical SMILES": "ClC1=CC(=CC=C1N)CC2=CC=C(N)C(Cl)=C2",
        "Molecular Formula": "C<sub>13</sub>H<sub>12</sub>Cl<sub>2</sub>N<sub>2</sub>",
        "Molecular Mass": "267.15",
        "Boiling Point": "378.9 °C",
        "Melting Point": "110 °C",
        "Density": "1.44 g/cm³"
    }
}