{
    "cas_no": "145-12-0",
    "key_name": "Oxymesterone",
    "cn_name": "羟甲睾酮;",
    "alternate_name": "Androst-4-en-3-one, 4,17-dihydroxy-17-methyl-, (17β)-;Androst-4-en-3-one, 4,17β-dihydroxy-17-methyl-;(17β)-4,17-Dihydroxy-17-methylandrost-4-en-3-one;Aranabol;4,17β-Dihydroxy-17-methylandrost-4-en-3-one;4,17β-Dihydroxy-17α-methylandrost-4-en-3-one;4-Hydroxy-17-methyltestosterone;4-Hydroxy-17α-methyltestosterone;Oranabol;Oxymesterone;Anamidol;Oxymestrone;Theranabol;NSC 45048",
    "duplicated_cas_no": "",
    "SMILES": "C[C@@]12[C@@]3([C@]([C@]4([C@](C)(CC3)[C@@](C)(O)CC4)[H])(CCC1=C(O)C(=O)CC2)[H])[H]",
    "meta_data": {
        "InChI": "InChI=1S/C20H30O3/c1-18-9-8-16(21)17(22)15(18)5-4-12-13(18)6-10-19(2)14(12)7-11-20(19,3)23/h12-14,22-23H,4-11H2,1-3H3/t12-,13+,14+,18-,19+,20+/m1/s1",
        "InChIKey": null,
        "Canonical SMILES": "O=C1C(O)=C2CCC3C(CCC4(C)C3CCC4(O)C)C2(C)CC1",
        "Molecular Formula": "C<sub>20</sub>H<sub>30</sub>O<sub>3</sub>",
        "Molecular Mass": "318.45",
        "Melting Point": "170 °C"
    }
}