{
    "cas_no": "103300-91-0",
    "key_name": "<em>N</em><sup>2</sup>-[(1<em>S</em>)-1-(Ethoxycarbonyl)-3-phenylpropyl]-<em>N</em><sup>6</sup>-(2,2,2-trifluoroacetyl)-<span class=\"text-smallcaps\">L</smallcap>-lysyl-<smallcap>L</span>-proline",
    "cn_name": "N2-[1-(S)-乙氧羰基-3-苯丙基]-N6-三氟乙酰基-L-赖氨酸-L-脯氨酸;",
    "alternate_name": "<span class=\"text-smallcaps\">L</smallcap>-Proline, <em>N</em><sup>2</sup>-[(1<em>S</em>)-1-(ethoxycarbonyl)-3-phenylpropyl]-<em>N</em><sup>6</sup>-(2,2,2-trifluoroacetyl)-<smallcap>L</span>-lysyl-;<span class=\"text-smallcaps\">L</smallcap>-Proline, 1-[<em>N</em><sup>2</sup>-[1-(ethoxycarbonyl)-3-phenylpropyl]-<em>N</em><sup>6</sup>-(trifluoroacetyl)-<smallcap>L</span>-lysyl]-, (<em>S</em>)-;<span class=\"text-smallcaps\">L</smallcap>-Proline, <em>N</em><sup>2</sup>-[(1<em>S</em>)-1-(ethoxycarbonyl)-3-phenylpropyl]-<em>N</em><sup>6</sup>-(trifluoroacetyl)-<smallcap>L</span>-lysyl-;<em>N</em><sup>2</sup>-[(1<em>S</em>)-1-(Ethoxycarbonyl)-3-phenylpropyl]-<em>N</em><sup>6</sup>-(2,2,2-trifluoroacetyl)-<span class=\"text-smallcaps\">L</smallcap>-lysyl-<smallcap>L</span>-proline;<em>N</em><sup>2</sup>-[(<em>S</em>)-1-Ethoxycarbonyl-3-phenylpropyl]-<em>N</em><sup>6</sup>-trifluoroacetyl-<span class=\"text-smallcaps\">L</smallcap>-lysyl-<smallcap>L</span>-proline",
    "duplicated_cas_no": "1236363-17-9",
    "SMILES": "C([C@@H](N[C@@H](CCC1=CC=CC=C1)C(OCC)=O)CCCCNC(C(F)(F)F)=O)(=O)N2[C@H](C(O)=O)CCC2",
    "meta_data": {
        "InChI": "InChI=1S/C25H34F3N3O6/c1-2-37-23(35)19(14-13-17-9-4-3-5-10-17)30-18(11-6-7-15-29-24(36)25(26,27)28)21(32)31-16-8-12-20(31)22(33)34/h3-5,9-10,18-20,30H,2,6-8,11-16H2,1H3,(H,29,36)(H,33,34)/t18-,19-,20-/m0/s1",
        "InChIKey": null,
        "Canonical SMILES": "O=C(O)C1N(C(=O)C(NC(C(=O)OCC)CCC=2C=CC=CC2)CCCCNC(=O)C(F)(F)F)CCC1",
        "Molecular Formula": "C<sub>25</sub>H<sub>34</sub>F<sub>3</sub>N<sub>3</sub>O<sub>6</sub>",
        "Molecular Mass": "529.55",
        "Melting Point": "78 °C"
    }
}