{
    "cas_no": "578-57-4",
    "key_name": "2-Bromoanisole",
    "cn_name": "2-溴苯甲醚;邻溴苯甲醚;",
    "alternate_name": "Benzene, 1-bromo-2-methoxy-;Anisole, <em>o</em>-bromo-;1-Bromo-2-methoxybenzene;<em>o</em>-Methoxybromobenzene;<em>o</em>-Bromoanisole;<em>o</em>-Bromophenyl methyl ether;2-Bromoanisole;2-Bromo-1-methoxybenzene;<em>o</em>-Methoxyphenyl bromide;2-Methoxyphenyl bromide;2-Methoxybromobenzene;<em>o</em>-Anisyl bromide;<em>o</em>-Bromomethoxybenzene;2-Bromomethoxybenzene;NSC 6977;2-Methoxy-1-bromobenzene;2-Bromo-3-methoxybenzene",
    "duplicated_cas_no": "",
    "SMILES": "O(C)C1=C(Br)C=CC=C1",
    "meta_data": {
        "InChI": "InChI=1S/C7H7BrO/c1-9-7-5-3-2-4-6(7)8/h2-5H,1H3",
        "InChIKey": null,
        "Canonical SMILES": "BrC=1C=CC=CC1OC",
        "Molecular Formula": "C<sub>7</sub>H<sub>7</sub>BrO",
        "Molecular Mass": "187.03",
        "Boiling Point": "216 °C",
        "Melting Point": "2.5 °C"
    }
}