{
    "cas_no": "15673-00-4",
    "key_name": "3,3-Dimethylbutylamine",
    "cn_name": null,
    "alternate_name": "1-Butanamine, 3,3-dimethyl-;Butylamine, 3,3-dimethyl-;3,3-Dimethyl-1-butanamine;3,3-Dimethylbutylamine;1-Amino-3,3-dimethylbutane;3,3-Dimethylbutanamine",
    "duplicated_cas_no": "",
    "SMILES": "C(C(C)(C)C)CN",
    "meta_data": {
        "InChI": "InChI=1S/C6H15N/c1-6(2,3)4-5-7/h4-5,7H2,1-3H3",
        "InChIKey": null,
        "Canonical SMILES": "NCCC(C)(C)C",
        "Molecular Formula": "C<sub>6</sub>H<sub>15</sub>N",
        "Molecular Mass": "101.19",
        "Boiling Point": "112.8-112.9 °C @ Press: 745 Torr",
        "Density": "0.759 g/cm³ @ Temp: 20 °C"
    }
}