{
    "cas_no": "3973-70-4",
    "key_name": "1-Amino-4-(2-hydroxyethyl)piperazine",
    "cn_name": null,
    "alternate_name": "1-Piperazineethanol, 4-amino-;4-Amino-1-piperazineethanol;1-Amino-4-(2-hydroxyethyl)piperazine;NSC 87954;2-(4-Aminopiperazin-1-yl)ethanol;2-(4-Aminopiperazin-1-yl)ethan-1-ol",
    "duplicated_cas_no": "",
    "SMILES": "C(CO)N1CCN(N)CC1",
    "meta_data": {
        "InChI": "InChI=1S/C6H15N3O/c7-9-3-1-8(2-4-9)5-6-10/h10H,1-7H2",
        "InChIKey": null,
        "Canonical SMILES": "OCCN1CCN(N)CC1",
        "Molecular Formula": "C<sub>6</sub>H<sub>15</sub>N<sub>3</sub>O",
        "Molecular Mass": "145.20",
        "Melting Point": "103-105 °C"
    }
}