{
    "cas_no": "53663-39-1",
    "key_name": "2-Bromo-3-methylbenzoic acid",
    "cn_name": "2-溴-3-甲基苯甲酸;3-甲基-2-溴苯甲酸;",
    "alternate_name": "Benzoic acid, 2-bromo-3-methyl-;<em>m</em>-Toluic acid, 2-bromo-;2-Bromo-3-methylbenzoic acid;2-Bromo-<em>m</em>-toluic acid;3-Methyl-2-bromobenzoic acid",
    "duplicated_cas_no": "",
    "SMILES": "C(O)(=O)C1=C(Br)C(C)=CC=C1",
    "meta_data": {
        "InChI": "InChI=1S/C8H7BrO2/c1-5-3-2-4-6(7(5)9)8(10)11/h2-4H,1H3,(H,10,11)",
        "InChIKey": null,
        "Canonical SMILES": "O=C(O)C1=CC=CC(=C1Br)C",
        "Molecular Formula": "C<sub>8</sub>H<sub>7</sub>BrO<sub>2</sub>",
        "Molecular Mass": "215.04",
        "Melting Point": "135-137 °C"
    }
}