{
    "cas_no": "6142-15-0",
    "key_name": "2-Thiazolamine, 4-methyl-, hydrochloride (1:1)",
    "cn_name": "2-氨基-4-甲基噻唑盐酸盐;",
    "alternate_name": "2-Thiazolamine, 4-methyl-, hydrochloride (1:1);Thiazole, 2-amino-4-methyl-, monohydrochloride;2-Thiazolamine, 4-methyl-, monohydrochloride;Thiazole, 2-amino-4-methyl-, hydrochloride;2-Amino-4-methylthiazole hydrochloride;4-Methyl-2-thiazolamine monohydrochloride;4-Methylthiazol-2-amine hydrochloride",
    "duplicated_cas_no": "68939-85-5",
    "SMILES": "CC=1N=C(N)SC1.Cl",
    "meta_data": {
        "InChI": "InChI=1S/C4H6N2S.ClH/c1-3-2-7-4(5)6-3;/h2H,1H3,(H2,5,6);1H",
        "InChIKey": null,
        "Canonical SMILES": "Cl.N1=C(SC=C1C)N",
        "Molecular Formula": "C<sub>4</sub>H<sub>6</sub>N<sub>2</sub>S.ClH",
        "Molecular Mass": "",
        "Melting Point": "169-171 °C"
    }
}