{
    "cas_no": "29136-19-4",
    "key_name": "Nonadecylbenzene",
    "cn_name": "正十九烷基苯;",
    "alternate_name": "Benzene, nonadecyl-;Nonadecane, 1-phenyl-;Nonadecylbenzene;<em>n</em>-Nonadecylbenzene;1-Phenylnonadecane",
    "duplicated_cas_no": "",
    "SMILES": "C(CCCCCCCCCCCCCCCCCC)C1=CC=CC=C1",
    "meta_data": {
        "InChI": "InChI=1S/C25H44/c1-2-3-4-5-6-7-8-9-10-11-12-13-14-15-16-17-19-22-25-23-20-18-21-24-25/h18,20-21,23-24H,2-17,19,22H2,1H3",
        "InChIKey": null,
        "Canonical SMILES": "C=1C=CC(=CC1)CCCCCCCCCCCCCCCCCCC",
        "Molecular Formula": "C<sub>25</sub>H<sub>44</sub>",
        "Molecular Mass": "344.62",
        "Boiling Point": "419 °C",
        "Melting Point": "40 °C"
    }
}