{
    "cas_no": "53910-25-1",
    "key_name": "Pentostatin",
    "cn_name": null,
    "alternate_name": "Imidazo[4,5-<em>d</em>][1,3]diazepin-8-ol, 3-(2-deoxy-β-<span class=\"text-smallcaps\">D</span>-<em>erythro</em>-pentofuranosyl)-3,4,7,8-tetrahydro-, (8<em>R</em>)-;Imidazo[4,5-<em>d</em>][1,3]diazepin-8-ol, 3-(2-deoxy-β-<span class=\"text-smallcaps\">D</span>-<em>erythro</em>-pentofuranosyl)-3,4,7,8-tetrahydro-, (<em>R</em>)-;(8<em>R</em>)-3-(2-Deoxy-β-<span class=\"text-smallcaps\">D</span>-<em>erythro</em>-pentofuranosyl)-3,4,7,8-tetrahydroimidazo[4,5-<em>d</em>][1,3]diazepin-8-ol;CL 67310465;2′-Deoxycoformycin;NSC 218321;Co-Vidarabine;Pentostatin;Deoxycoformycin;Cl 825;Nipent;Deaminase inhibitor;2′-DCF;Vira A deaminase inhibitor;CI 825;PD-ADI;Co-V;2′-Dexoycoformycin;NSC 247520;Coforin;MeSH ID: D015649",
    "duplicated_cas_no": "59979-24-7;63677-95-2;69196-00-5;70865-77-9",
    "SMILES": "O[C@H]1C2=C(N(C=N2)[C@@H]3O[C@H](CO)[C@@H](O)C3)NC=NC1",
    "meta_data": {
        "InChI": "InChI=1S/C11H16N4O4/c16-3-8-6(17)1-9(19-8)15-5-14-10-7(18)2-12-4-13-11(10)15/h4-9,16-18H,1-3H2,(H,12,13)/t6-,7+,8+,9+/m0/s1",
        "InChIKey": null,
        "Canonical SMILES": "OCC1OC(N2C=NC3=C2NC=NCC3O)CC1O",
        "Molecular Formula": "C<sub>11</sub>H<sub>16</sub>N<sub>4</sub>O<sub>4</sub>",
        "Molecular Mass": "268.27",
        "Melting Point": "220-225 °C"
    }
}