{
    "cas_no": "83-27-2",
    "key_name": "1,3-Diethyl 2-(1-methylpropyl)propanedioate",
    "cn_name": null,
    "alternate_name": "Propanedioic acid, 2-(1-methylpropyl)-, 1,3-diethyl ester;Malonic acid, <em>sec</em>-butyl-, diethyl ester;Propanedioic acid, (1-methylpropyl)-, diethyl ester;1,3-Diethyl 2-(1-methylpropyl)propanedioate;<em>sec</em>-Butylmalonic acid, diethyl ester;Diethyl <em>sec</em>-butylmalonate;(1-Methylpropyl)propanedioic acid diethyl ester;NSC 127865;NSC 30679;NSC 41157;Diethyl 2-<em>sec</em>-butylmalonate;1,3-Diethyl 2-(butan-2-yl)propanedioate",
    "duplicated_cas_no": "116261-12-2",
    "SMILES": "C(C(OCC)=O)(C(OCC)=O)C(CC)C",
    "meta_data": {
        "InChI": "InChI=1S/C11H20O4/c1-5-8(4)9(10(12)14-6-2)11(13)15-7-3/h8-9H,5-7H2,1-4H3",
        "InChIKey": null,
        "Canonical SMILES": "O=C(OCC)C(C(=O)OCC)C(C)CC",
        "Molecular Formula": "C<sub>11</sub>H<sub>20</sub>O<sub>4</sub>",
        "Molecular Mass": "216.27",
        "Boiling Point": "107-108 °C @ Press: 10 Torr"
    }
}