{
    "cas_no": "2039-86-3",
    "key_name": "3-Bromostyrene",
    "cn_name": "3-溴苯乙烯;",
    "alternate_name": "Benzene, 1-bromo-3-ethenyl-;Styrene, <em>m</em>-bromo-;1-Bromo-3-ethenylbenzene;3-Bromostyrene;<em>m</em>-Bromostyrene;1-Bromo-3-vinylbenzene;3-Vinylbromobenzene;3-Bromovinylbenzene",
    "duplicated_cas_no": "",
    "SMILES": "C(=C)C1=CC(Br)=CC=C1",
    "meta_data": {
        "InChI": "InChI=1S/C8H7Br/c1-2-7-4-3-5-8(9)6-7/h2-6H,1H2",
        "InChIKey": null,
        "Canonical SMILES": "BrC1=CC=CC(C=C)=C1",
        "Molecular Formula": "C<sub>8</sub>H<sub>7</sub>Br",
        "Molecular Mass": "183.05",
        "Boiling Point": "90-94 °C",
        "Density": "1.4059 g/cm³ @ Temp: 20 °C"
    }
}