{
    "cas_no": "111-48-8",
    "key_name": "Thiodiglycol",
    "cn_name": "硫二甘醇;二(2－羟乙基)硫醚;硫代双乙醇;",
    "alternate_name": "Ethanol, 2,2′-thiobis-;Ethanol, 2,2′-thiodi-;2,2′-Thiobis[ethanol];Bis(2-hydroxyethyl) sulfide;β,β′-Dihydroxydiethyl sulfide;β,β′-Dihydroxyethyl sulfide;Bis(β-hydroxyethyl) sulfide;Kromfax Solvent;2,2′-Thiodiethanol;Thiodiethylene glycol;Thiodiglycol;β-Thiodiglycol;Di(2-hydroxyethyl) sulfide;Bis(2-hydroxyethyl) thioether;2,2′-Thiodiglycol;Tedegyl;Diethanol sulfide;3-Thiapentane-1,5-diol;2,2′-Dihydroxydiethyl sulfide;NSC 6289;1,5-Dihydroxy-3-thiapentane;2-(2-Hydroxyethylthio)ethanol;Di(2-hydroxyethyl) thioether;Thiodiglycol HP;2-[(2-Hydroxyethyl)sulfanyl]ethan-1-ol",
    "duplicated_cas_no": "",
    "SMILES": "S(CCO)CCO",
    "meta_data": {
        "InChI": "InChI=1S/C4H10O2S/c5-1-3-7-4-2-6/h5-6H,1-4H2",
        "InChIKey": null,
        "Canonical SMILES": "OCCSCCO",
        "Molecular Formula": "C<sub>4</sub>H<sub>10</sub>O<sub>2</sub>S",
        "Molecular Mass": "122.19",
        "Boiling Point": "282 °C",
        "Melting Point": "-10.2 °C",
        "Density": "1.1819 g/cm³ @ Temp: 20 °C"
    }
}