{
    "cas_no": "20870-78-4",
    "key_name": "5-Bromo-2-oxindole",
    "cn_name": "5-溴氧化吲哚;5-溴-1,3-二氢-2H-吲哚-2-酮;",
    "alternate_name": "2<em>H</em>-Indol-2-one, 5-bromo-1,3-dihydro-;2-Indolinone, 5-bromo-;Oxindole, 5-bromo-;5-Bromo-1,3-dihydro-2<em>H</em>-indol-2-one;5-Bromo-2-oxindole;5-Bromo-1,3-dihydroindol-2-one;5-Bromooxindole;5-Bromo-2-oxo-2,3-dihydro-1<em>H</em>-indole;5-Bromo-2,3-dihydroindol-2-one",
    "duplicated_cas_no": "",
    "SMILES": "O=C1NC=2C(C1)=CC(Br)=CC2",
    "meta_data": {
        "InChI": "InChI=1S/C8H6BrNO/c9-6-1-2-7-5(3-6)4-8(11)10-7/h1-3H,4H2,(H,10,11)",
        "InChIKey": null,
        "Canonical SMILES": "O=C1NC2=CC=C(Br)C=C2C1",
        "Molecular Formula": "C<sub>8</sub>H<sub>6</sub>BrNO",
        "Molecular Mass": "212.04",
        "Melting Point": "220-221 °C"
    }
}