{
    "cas_no": "5949-29-1",
    "key_name": "2-Hydroxy-1,2,3-propanetricarboxylic acid hydrate (1:1)",
    "cn_name": "柠檬酸;一水柠檬酸;",
    "alternate_name": "1,2,3-Propanetricarboxylic acid, 2-hydroxy-, hydrate (1:1);Citric acid, monohydrate;1,2,3-Propanetricarboxylic acid, 2-hydroxy-, monohydrate;2-Hydroxy-1,2,3-propanetricarboxylic acid hydrate (1:1);2-Hydroxy-1,2,3-propanetricarboxylic acid monohydrate;Citronsyra Mono E 33-8-80MLT",
    "duplicated_cas_no": "2579498-77-2",
    "SMILES": "C(CC(O)=O)(CC(O)=O)(C(O)=O)O.O",
    "meta_data": {
        "InChI": "InChI=1S/C6H8O7.H2O/c7-3(8)1-6(13,5(11)12)2-4(9)10;/h13H,1-2H2,(H,7,8)(H,9,10)(H,11,12);1H2",
        "InChIKey": null,
        "Canonical SMILES": "O=C(O)CC(O)(C(=O)O)CC(=O)O.O",
        "Molecular Formula": "C<sub>6</sub>H<sub>8</sub>O<sub>7</sub>.H<sub>2</sub>O",
        "Molecular Mass": "",
        "Melting Point": "135 °C",
        "Density": "1.5 g/cm³"
    }
}