{
    "cas_no": "19467-03-9",
    "key_name": "Melittoside",
    "cn_name": null,
    "alternate_name": "β-<span class=\"text-smallcaps\">D</span>-Glucopyranoside, (1<em>S</em>,4a<em>S</em>,5<em>R</em>,7a<em>R</em>)-5,7a-dihydro-5-hydroxy-7-(hydroxymethyl)cyclopenta[<em>c</em>]pyran-1,4a(1<em>H</em>)-diyl bis-;Melittoside;β-<span class=\"text-smallcaps\">D</span>-Glucopyranoside, 5,7a-dihydro-5-hydroxy-7-(hydroxymethyl)cyclopenta[<em>c</em>]pyran-1,4a(1<em>H</em>)-diyl bis-, [1<em>S</em>-(1α,4aα,5α,7aα)]-;(1<em>S</em>,4a<em>S</em>,5<em>R</em>,7a<em>R</em>)-5,7a-Dihydro-5-hydroxy-7-(hydroxymethyl)cyclopenta[<em>c</em>]pyran-1,4a(1<em>H</em>)-diyl bis-β-<span class=\"text-smallcaps\">D</span>-glucopyranoside",
    "duplicated_cas_no": "",
    "SMILES": "O([C@]12[C@]([C@H](O[C@@H]3O[C@H](CO)[C@@H](O)[C@H](O)[C@H]3O)OC=C1)(C(CO)=C[C@H]2O)[H])[C@@H]4O[C@H](CO)[C@@H](O)[C@H](O)[C@H]4O",
    "meta_data": {
        "InChI": "InChI=1S/C21H32O15/c22-4-7-3-10(25)21(36-20-17(31)15(29)13(27)9(6-24)34-20)1-2-32-18(11(7)21)35-19-16(30)14(28)12(26)8(5-23)33-19/h1-3,8-20,22-31H,4-6H2/t8-,9-,10-,11+,12-,13-,14+,15+,16-,17-,18+,19+,20+,21-/m1/s1",
        "InChIKey": null,
        "Canonical SMILES": "OCC1=CC(O)C2(OC3OC(CO)C(O)C(O)C3O)C=COC(OC4OC(CO)C(O)C(O)C4O)C12",
        "Molecular Formula": "C<sub>21</sub>H<sub>32</sub>O<sub>15</sub>",
        "Molecular Mass": "",
        "Melting Point": "167-168 °C"
    }
}