{
    "cas_no": "67-96-9",
    "key_name": "Dihydrotachysterol",
    "cn_name": "双氢速甾醇;",
    "alternate_name": "Cyclohexanol, 4-methyl-3-[(2<em>E</em>)-2-[(1<em>R</em>,3a<em>S</em>,7a<em>R</em>)-octahydro-7a-methyl-1-[(1<em>R</em>,2<em>E</em>,4<em>R</em>)-1,4,5-trimethyl-2-hexen-1-yl]-4<em>H</em>-inden-4-ylidene]ethylidene]-, (1<em>S</em>,3<em>E</em>,4<em>S</em>)-;Tachysterol, dihydro-;Tachysterol<sub>2</sub>, dihydro-;9,10-Secoergosta-5,7,22-trien-3-ol, (3β,5<em>E</em>,7<em>E</em>,10α,22<em>E</em>)-;(1<em>S</em>,3<em>E</em>,4<em>S</em>)-4-Methyl-3-[(2<em>E</em>)-2-[(1<em>R</em>,3a<em>S</em>,7a<em>R</em>)-octahydro-7a-methyl-1-[(1<em>R</em>,2<em>E</em>,4<em>R</em>)-1,4,5-trimethyl-2-hexen-1-yl]-4<em>H</em>-inden-4-ylidene]ethylidene]cyclohexanol;Antitanil;Calcamine;DHT<sub>2</sub>;Dichystrolum;Dihydrotachysterol;Hytakerol;24-Methyl-9,10-secocholesta-5,7,22-trien-3β-ol;Parterol;9,10-Secoergosta-5,7,22-trien-3β-ol;Anti-tetany substance 10;A.T. 10;Dihydrotachysterol<sub>2</sub>;Dygratyl;Tachystin;A.T. 10 (steroid);Tachyrol;Dihydral;Dichysterol;MeSH ID: D004097",
    "duplicated_cas_no": "911-10-4;1369-89-7;11040-39-4",
    "SMILES": "C[C@@]12[C@](\\C(=C\\C=C/3\\[C@@H](C)CC[C@H](O)C3)\\CCC1)(CC[C@@]2([C@@H](/C=C/[C@@H](C(C)C)C)C)[H])[H]",
    "meta_data": {
        "InChI": "InChI=1S/C28H46O/c1-19(2)20(3)9-10-22(5)26-15-16-27-23(8-7-17-28(26,27)6)12-13-24-18-25(29)14-11-21(24)4/h9-10,12-13,19-22,25-27,29H,7-8,11,14-18H2,1-6H3/b10-9+,23-12+,24-13+/t20-,21-,22+,25-,26+,27-,28+/m0/s1",
        "InChIKey": null,
        "Canonical SMILES": "OC1CC(=CC=C2CCCC3(C)C2CCC3C(C=CC(C)C(C)C)C)C(C)CC1",
        "Molecular Formula": "C<sub>28</sub>H<sub>46</sub>O",
        "Molecular Mass": "398.66",
        "Melting Point": "125-127 °C"
    }
}