{
    "cas_no": "17980-32-4",
    "key_name": "Diisobutyldimethoxysilane",
    "cn_name": "二异丁基二甲氧基硅烷;",
    "alternate_name": "Silane, dimethoxybis(2-methylpropyl)-;Silane, diisobutyldimethoxy-;Dimethoxybis(2-methylpropyl)silane;Diisobutyldimethoxysilane",
    "duplicated_cas_no": "",
    "SMILES": "[Si](CC(C)C)(CC(C)C)(OC)OC",
    "meta_data": {
        "InChI": "InChI=1S/C10H24O2Si/c1-9(2)7-13(11-5,12-6)8-10(3)4/h9-10H,7-8H2,1-6H3",
        "InChIKey": null,
        "Canonical SMILES": "O(C)[Si](OC)(CC(C)C)CC(C)C",
        "Molecular Formula": "C<sub>10</sub>H<sub>24</sub>O<sub>2</sub>Si",
        "Molecular Mass": "204.38",
        "Boiling Point": "120 °C @ Press: 6 Torr",
        "Density": "0.870 g/cm³"
    }
}