{
    "cas_no": "122-66-7",
    "key_name": "Hydrazobenzene",
    "cn_name": "1,2-二苯肼;",
    "alternate_name": "Hydrazine, 1,2-diphenyl-;Hydrazobenzene;1,2-Diphenylhydrazine;<em>N</em>,<em>N</em>′-Bianiline;Benzene, 1,1′-hydrazobis-;<em>N</em>,<em>N</em>′-Diphenylhydrazine;NSC 3510",
    "duplicated_cas_no": "",
    "SMILES": "N(NC1=CC=CC=C1)C2=CC=CC=C2",
    "meta_data": {
        "InChI": "InChI=1S/C12H12N2/c1-3-7-11(8-4-1)13-14-12-9-5-2-6-10-12/h1-10,13-14H",
        "InChIKey": null,
        "Canonical SMILES": "C=1C=CC(=CC1)NNC=2C=CC=CC2",
        "Molecular Formula": "C<sub>12</sub>H<sub>12</sub>N<sub>2</sub>",
        "Molecular Mass": "184.24",
        "Boiling Point": "293 °C @ Press: 760 Torr",
        "Melting Point": "131 °C (decomp)",
        "Density": "1.158 g/cm³ @ Temp: 16 °C"
    }
}