{
    "cas_no": "474-69-1",
    "key_name": "Lumisterol",
    "cn_name": "光甾醇;光甾醇;感光固醇；光化麦角固醇;",
    "alternate_name": "Ergosta-5,7,22-trien-3-ol, (3β,9β,10α,22<em>E</em>)-;9β,10α-Ergosta-5,7,22-trien-3β-ol;Lumisterol;9β,10α-Ergosta-5,7,22-trien-3-ol;(3β,9β,10α,22<em>E</em>)-Ergosta-5,7,22-trien-3-ol;9β,10α-Ergosterol;Lumisterol<sub>2</sub>",
    "duplicated_cas_no": "",
    "SMILES": "C[C@@]12[C@](C=3[C@]([C@@]4(C)C(=CC3)C[C@@H](O)CC4)(CC1)[H])(CC[C@@]2([C@@H](/C=C/[C@@H](C(C)C)C)C)[H])[H]",
    "meta_data": {
        "InChI": "InChI=1S/C28H44O/c1-18(2)19(3)7-8-20(4)24-11-12-25-23-10-9-21-17-22(29)13-15-27(21,5)26(23)14-16-28(24,25)6/h7-10,18-20,22,24-26,29H,11-17H2,1-6H3/b8-7+/t19-,20+,22-,24+,25-,26+,27+,28+/m0/s1",
        "InChIKey": null,
        "Canonical SMILES": "OC1CC2=CC=C3C(CCC4(C)C3CCC4C(C=CC(C)C(C)C)C)C2(C)CC1",
        "Molecular Formula": "C<sub>28</sub>H<sub>44</sub>O",
        "Molecular Mass": "396.65",
        "Melting Point": "118 °C"
    }
}