{
    "cas_no": "925-83-7",
    "key_name": "Decanedioic acid 1,10-dihydrazide",
    "cn_name": "癸二酰肼;癸二酰肼;",
    "alternate_name": "Decanedioic acid, 1,10-dihydrazide;Sebacic acid, dihydrazide;Decanedioic acid, dihydrazide;Decanedioic acid 1,10-dihydrazide;Sebacic dihydrazide;Sebacic acid hydrazide;NSC 23709;SDH-S;SDH",
    "duplicated_cas_no": "1788094-08-5;2978502-76-8",
    "SMILES": "C(CCCCCCCCC(NN)=O)(NN)=O",
    "meta_data": {
        "InChI": "InChI=1S/C10H22N4O2/c11-13-9(15)7-5-3-1-2-4-6-8-10(16)14-12/h1-8,11-12H2,(H,13,15)(H,14,16)",
        "InChIKey": null,
        "Canonical SMILES": "O=C(NN)CCCCCCCCC(=O)NN",
        "Molecular Formula": "C<sub>10</sub>H<sub>22</sub>N<sub>4</sub>O<sub>2</sub>",
        "Molecular Mass": "230.31",
        "Melting Point": "185 °C"
    }
}