{
    "cas_no": "108-20-3",
    "key_name": "Diisopropyl ether",
    "cn_name": "异丙醚;二异丙基醚;",
    "alternate_name": "Propane, 2,2′-oxybis-;Isopropyl ether;2,2′-Oxybis[propane];Diisopropyl ether;Diisopropyl oxide;2-Isopropoxypropane;Bis(isopropyl) ether;Di-1-methylethyl ether;2-(Propan-2-yloxy)propane",
    "duplicated_cas_no": "",
    "SMILES": "O(C(C)C)C(C)C",
    "meta_data": {
        "InChI": "InChI=1S/C6H14O/c1-5(2)7-6(3)4/h5-6H,1-4H3",
        "InChIKey": null,
        "Canonical SMILES": "O(C(C)C)C(C)C",
        "Molecular Formula": "C<sub>6</sub>H<sub>14</sub>O",
        "Molecular Mass": "102.17",
        "Boiling Point": "68.5 °C",
        "Melting Point": "-86.8 °C",
        "Density": "0.7258 g/cm³ @ Temp: 20 °C"
    }
}