{
    "cas_no": "1322-14-1",
    "key_name": "Calcium undecylenate",
    "cn_name": "十一碳烯酸钙;十一碳烯酸钙;",
    "alternate_name": "10-Undecenoic acid, calcium salt (2:1);10-Undecenoic acid, calcium salt;Calcium undecylenate;Cal-Desene",
    "duplicated_cas_no": "",
    "SMILES": "C(CCCCC=C)CCCC(O)=O.[Ca]",
    "meta_data": {
        "InChI": "InChI=1S/C11H20O2.Ca/c1-2-3-4-5-6-7-8-9-10-11(12)13;/h2H,1,3-10H2,(H,12,13);",
        "InChIKey": null,
        "Canonical SMILES": "[Ca].O=C(O)CCCCCCCCC=C",
        "Molecular Formula": "C<sub>11</sub>H<sub>20</sub>O<sub>2</sub>.<sup>1</sup>/<sub>2</sub>Ca",
        "Molecular Mass": "",
        "Melting Point": "146 °C (decomp)"
    }
}