{
    "cas_no": "84551-43-9",
    "key_name": "1,1,1,2,2,3,3,4,4,7,7,8,8,9,9,10,10,10-Octadecafluoro-5-decene",
    "cn_name": null,
    "alternate_name": "5-Decene, 1,1,1,2,2,3,3,4,4,7,7,8,8,9,9,10,10,10-octadecafluoro-;1,1,1,2,2,3,3,4,4,7,7,8,8,9,9,10,10,10-Octadecafluoro-5-decene;Bis(perfluorobutyl)ethene;F 44E;Octadecafluoro-5-decene;Therox;1,2-Bis(perfluorobutyl)ethylene;1,2-Bis(nonafluorobutyl)ethylene",
    "duplicated_cas_no": "134695-97-9;1201928-69-9",
    "SMILES": "C(C(C(F)(F)F)(F)F)(C(C=CC(C(C(C(F)(F)F)(F)F)(F)F)(F)F)(F)F)(F)F",
    "meta_data": {
        "InChI": "InChI=1S/C10H2F18/c11-3(12,5(15,16)7(19,20)9(23,24)25)1-2-4(13,14)6(17,18)8(21,22)10(26,27)28/h1-2H",
        "InChIKey": null,
        "Canonical SMILES": "FC(F)(F)C(F)(F)C(F)(F)C(F)(F)C=CC(F)(F)C(F)(F)C(F)(F)C(F)(F)F",
        "Molecular Formula": "C<sub>10</sub>H<sub>2</sub>F<sub>18</sub>",
        "Molecular Mass": "464.09",
        "Boiling Point": "150 °C"
    }
}