{
    "cas_no": "2345-34-8",
    "key_name": "<em>p</em>-Acetoxybenzoic acid",
    "cn_name": "4-乙酰氧基苯甲酸;4-(乙酰基氧基)苯甲酸;",
    "alternate_name": "Benzoic acid, 4-(acetyloxy)-;Benzoic acid, <em>p</em>-hydroxy-, acetate;4-(Acetyloxy)benzoic acid;<em>p</em>-Carboxyphenyl acetate;<em>p</em>-Acetoxybenzoic acid;<em>p</em>-Hydroxybenzoic acid acetate;<em>p</em>-Acetyloxybenzoic acid;4-Carboxyphenyl acetate;4-Acetoxybenzoic acid;NSC 11340",
    "duplicated_cas_no": "865486-47-1",
    "SMILES": "O(C(C)=O)C1=CC=C(C(O)=O)C=C1",
    "meta_data": {
        "InChI": "InChI=1S/C9H8O4/c1-6(10)13-8-4-2-7(3-5-8)9(11)12/h2-5H,1H3,(H,11,12)",
        "InChIKey": null,
        "Canonical SMILES": "O=C(O)C1=CC=C(OC(=O)C)C=C1",
        "Molecular Formula": "C<sub>9</sub>H<sub>8</sub>O<sub>4</sub>",
        "Molecular Mass": "180.16",
        "Boiling Point": "100-120 °C @ Press: 45 Torr",
        "Melting Point": "191-194 °C"
    }
}