{
    "cas_no": "36157-40-1",
    "key_name": "3-Acetyl-2,5-dichlorothiophene",
    "cn_name": "2,5-二氯-3-乙酰基噻吩;3-乙酰-2,5-二氯噻吩;",
    "alternate_name": "Ethanone, 1-(2,5-dichloro-3-thienyl)-;1-(2,5-Dichloro-3-thienyl)ethanone;2,5-Dichloro-3-thienyl methyl ketone;3-Acetyl-2,5-dichlorothiophene;2,5-Dichloro-3-acetylthiophene;1-(2,5-Dichlorothiophen-3-yl)ethanone;1-(2,5-Dichlorothiophen-3-yl)ethan-1-one",
    "duplicated_cas_no": "131922-21-9",
    "SMILES": "C(C)(=O)C=1C=C(Cl)SC1Cl",
    "meta_data": {
        "InChI": "InChI=1S/C6H4Cl2OS/c1-3(9)4-2-5(7)10-6(4)8/h2H,1H3",
        "InChIKey": null,
        "Canonical SMILES": "O=C(C=1C=C(Cl)SC1Cl)C",
        "Molecular Formula": "C<sub>6</sub>H<sub>4</sub>Cl<sub>2</sub>OS",
        "Molecular Mass": "195.07",
        "Boiling Point": "120-122 °C @ Press: 6 Torr",
        "Melting Point": "39 °C"
    }
}