{
    "cas_no": "138-14-7",
    "key_name": "Deferoxamine mesylate",
    "cn_name": null,
    "alternate_name": "Butanediamide, <em>N</em><sup>4</sup>-[5-[[4-[[5-(acetylhydroxyamino)pentyl]amino]-1,4-dioxobutyl]hydroxyamino]pentyl]-<em>N</em><sup>1</sup>-(5-aminopentyl)-<em>N</em><sup>1</sup>-hydroxy-, methanesulfonate (1:1);Propionohydroxamic acid, <em>N</em>-[5-[3-[(5-aminopentyl)hydroxycarbamoyl]propionamido]pentyl]-3-[[5-(<em>N</em>-hydroxyacetamido)pentyl]carbamoyl]-, monomethanesulfonate (salt);Butanediamide, <em>N</em>′-[5-[[4-[[5-(acetylhydroxyamino)pentyl]amino]-1,4-dioxobutyl]hydroxyamino]pentyl]-<em>N</em>-(5-aminopentyl)-<em>N</em>-hydroxy-, monomethanesulfonate (salt);Propionohydroxamic acid, <em>N</em>-[5-[3-[(5-aminopentyl)hydroxycarbamoyl]propionamido]pentyl]-3-[[5-(<em>N</em>-hydroxyacetamido)pentyl]carbamoyl]-, methanesulfonate;Desferrioxamine methanesulfonate;Desferrioxamine B mesylate;Desferrioxamine B methanesulfonate;Deferoxamine B mesylate;Deferrioxamine methanesulfonate;Desferrioxamine mesylate;Desferal mesylate;Desferal;Deferrioxamine B methanesulfonate;Deferoxamine mesylate;Deferoxamine methanesulfonate;DFOM;Ba 33112;NSC 644468;DFX mesylate;Desferrioxamine mesilate",
    "duplicated_cas_no": "17688-38-9;35908-62-4",
    "SMILES": "S(C)(=O)(=O)O.C(CCC(NCCCCCN(C(C)=O)O)=O)(N(CCCCCNC(CCC(N(CCCCCN)O)=O)=O)O)=O",
    "meta_data": {
        "InChI": "InChI=1S/C25H48N6O8.CH4O3S/c1-21(32)29(37)18-9-3-6-16-27-22(33)12-14-25(36)31(39)20-10-4-7-17-28-23(34)11-13-24(35)30(38)19-8-2-5-15-26;1-5(2,3)4/h37-39H,2-20,26H2,1H3,(H,27,33)(H,28,34);1H3,(H,2,3,4)",
        "InChIKey": null,
        "Canonical SMILES": "O=C(NCCCCCN(O)C(=O)C)CCC(=O)N(O)CCCCCNC(=O)CCC(=O)N(O)CCCCCN.O=S(=O)(O)C",
        "Molecular Formula": "C<sub>25</sub>H<sub>48</sub>N<sub>6</sub>O<sub>8</sub>.CH<sub>4</sub>O<sub>3</sub>S",
        "Molecular Mass": "",
        "Melting Point": "148-149 °C"
    }
}