{
    "cas_no": "589-98-0",
    "key_name": "3-Octanol",
    "cn_name": null,
    "alternate_name": "3-Octanol;Ethylamylcarbinol;<em>n</em>-Octan-3-ol;1-Ethyl-1-hexanol;(±)-3-Octanol;<span class=\"text-smallcaps\">DL</span>-3-Octanol;Octan-3-ol",
    "duplicated_cas_no": "20296-29-1",
    "SMILES": "C(CCCCC)(CC)O",
    "meta_data": {
        "InChI": "InChI=1S/C8H18O/c1-3-5-6-7-8(9)4-2/h8-9H,3-7H2,1-2H3",
        "InChIKey": null,
        "Canonical SMILES": "OC(CC)CCCCC",
        "Molecular Formula": "C<sub>8</sub>H<sub>18</sub>O",
        "Molecular Mass": "130.23",
        "Boiling Point": "171 °C",
        "Melting Point": "-45 °C",
        "Density": "0.8279 g/cm³ @ Temp: 15 °C"
    }
}