{
    "cas_no": "55776-17-5",
    "key_name": "2,6-Dimethoxy-3-nitrobenzoic acid",
    "cn_name": "2,6-二甲氧基-3-硝基苯甲酸;",
    "alternate_name": "Benzoic acid, 2,6-dimethoxy-3-nitro-;2,6-Dimethoxy-3-nitrobenzoic acid",
    "duplicated_cas_no": "",
    "SMILES": "O(C)C1=C(C(O)=O)C(OC)=CC=C1N(=O)=O",
    "meta_data": {
        "InChI": "InChI=1S/C9H9NO6/c1-15-6-4-3-5(10(13)14)8(16-2)7(6)9(11)12/h3-4H,1-2H3,(H,11,12)",
        "InChIKey": null,
        "Canonical SMILES": "O=C(O)C=1C(OC)=CC=C(C1OC)N(=O)=O",
        "Molecular Formula": "C<sub>9</sub>H<sub>9</sub>NO<sub>6</sub>",
        "Molecular Mass": "227.17",
        "Melting Point": "132 °C"
    }
}