{
    "cas_no": "13814-75-0",
    "key_name": "Molybdenum chloride oxide (MoCl<sub>4</sub>O)",
    "cn_name": null,
    "alternate_name": "Molybdenum chloride oxide (MoCl<sub>4</sub>O);Molybdenum chloride oxide (MoOCl<sub>4</sub>);Molybdenum oxide chloride (MoOCl<sub>4</sub>);Molybdenum oxide tetrachloride;Tetrachlorooxomolybdenum;Molybdenum tetrachloride oxide;Molybdenum oxychloride (MoOCl<sub>4</sub>);Molybdenum oxytetrachloride;Molybdenum tetrachloride monoxide;Molybdenum oxychloride (MoCl<sub>4</sub>O);Molybdenum carbide oxide (MoC<sub>14</sub>O)",
    "duplicated_cas_no": "1369410-62-7;3017159-08-6",
    "SMILES": "[Mo](Cl)(Cl)(Cl)(Cl)=O",
    "meta_data": {
        "InChI": "InChI=1S/4ClH.Mo.O/h4*1H;;/q;;;;+4;/p-4",
        "InChIKey": null,
        "Canonical SMILES": "O=[Mo](Cl)(Cl)(Cl)Cl",
        "Molecular Formula": "Cl<sub>4</sub>MoO",
        "Molecular Mass": "",
        "Boiling Point": "197 °C",
        "Melting Point": "97 °C"
    }
}