{
    "cas_no": "81-96-9",
    "key_name": "3-Bromobenzanthrone",
    "cn_name": "3-溴代苯绕蒽酮;",
    "alternate_name": "7<em>H</em>-Benz[<em>de</em>]anthracen-7-one, 3-bromo-;3-Bromo-7<em>H</em>-benz[<em>de</em>]anthracen-7-one;3-Bromobenzanthrone;NSC 13976;3-Bromobenzo[<em>b</em>]phenalen-7-one;3-Bromo-7<em>H</em>-benzo[<em>de</em>]anthracen-7-one",
    "duplicated_cas_no": "",
    "SMILES": "O=C1C=2C3=C(C=4C1=CC=CC4)C=CC(Br)=C3C=CC2",
    "meta_data": {
        "InChI": "InChI=1S/C17H9BrO/c18-15-9-8-11-10-4-1-2-5-12(10)17(19)14-7-3-6-13(15)16(11)14/h1-9H",
        "InChIKey": null,
        "Canonical SMILES": "O=C1C=2C=CC=CC2C=3C=CC(Br)=C4C=CC=C1C43",
        "Molecular Formula": "C<sub>17</sub>H<sub>9</sub>BrO",
        "Molecular Mass": "309.16",
        "Melting Point": "167 °C"
    }
}