{
    "cas_no": "4209-02-3",
    "key_name": "1-(4-Bromophenyl)-2-chloroethanone",
    "cn_name": null,
    "alternate_name": "Ethanone, 1-(4-bromophenyl)-2-chloro-;Acetophenone, 4′-bromo-2-chloro-;1-(4-Bromophenyl)-2-chloroethanone;<em>p</em>-Bromophenacyl chloride;4-Bromophenacyl chloride;4′-Bromo-2-chloroacetophenone;4-Bromo-1-(chloroacetyl)benzene;<em>p</em>-Bromo-α-chloroacetophenone;4′-Bromo-α-chloroacetophenone;NSC 94761;Chloromethyl 4-bromophenyl ketone;1-(4-Bromophenyl)-2-chloroethan-1-one",
    "duplicated_cas_no": "",
    "SMILES": "C(CCl)(=O)C1=CC=C(Br)C=C1",
    "meta_data": {
        "InChI": "InChI=1S/C8H6BrClO/c9-7-3-1-6(2-4-7)8(11)5-10/h1-4H,5H2",
        "InChIKey": null,
        "Canonical SMILES": "O=C(C1=CC=C(Br)C=C1)CCl",
        "Molecular Formula": "C<sub>8</sub>H<sub>6</sub>BrClO",
        "Molecular Mass": "233.49",
        "Melting Point": "119-120 °C"
    }
}