{
    "cas_no": "140-67-0",
    "key_name": "Estragole",
    "cn_name": "4-烯丙基苯甲醚;对烯丙基苯甲醚;草蒿脑;",
    "alternate_name": "Benzene, 1-methoxy-4-(2-propen-1-yl)-;Anisole, <em>p</em>-allyl-;Estragole;Benzene, 1-methoxy-4-(2-propenyl)-;Ether, <em>p</em>-allylphenyl methyl;1-Methoxy-4-(2-propen-1-yl)benzene;<em>p</em>-Allylanisole;Chavicol methyl ether;Esdragol;Esdragon;Isoanethole;<em>p</em>-Methoxyallylbenzene;Methyl chavicol;Chavicol, <em>O</em>-methyl-;Esdragole;4-Methoxyallylbenzene;4-Allylanisole;3-(<em>p</em>-Methoxyphenyl)propene;Estragol;4-Allylmethoxybenzene;1-Allyl-4-methoxybenzene;Chavicol, methyl-;1-Methoxy-4-(2-propenyl)benzene;<em>p</em>-Allylphenyl methyl ether;3-(<em>p</em>-Methoxyphenyl)-1-propene;3-(4-Methoxyphenyl)-1-propene;NSC 404113;<em>O</em>-Methylchavicol;Estragenole;AUSTL 21320;Esteragol;3-(4-Methoxyphenyl)propene",
    "duplicated_cas_no": "1407-27-8;77525-18-9",
    "SMILES": "C(C=C)C1=CC=C(OC)C=C1",
    "meta_data": {
        "InChI": "InChI=1S/C10H12O/c1-3-4-9-5-7-10(11-2)8-6-9/h3,5-8H,1,4H2,2H3",
        "InChIKey": null,
        "Canonical SMILES": "O(C1=CC=C(C=C1)CC=C)C",
        "Molecular Formula": "C<sub>10</sub>H<sub>12</sub>O",
        "Molecular Mass": "148.20",
        "Boiling Point": "215.5 °C",
        "Melting Point": "28-35 °C",
        "Density": "0.9645 g/cm³ @ Temp: 21 °C"
    }
}