{
    "cas_no": "621-29-4",
    "key_name": "3-Methylphenyl isocyanate",
    "cn_name": "异氰酸间甲苯酯;间甲苯基异氰酸酯;间甲苯异氰酸酯;",
    "alternate_name": "Benzene, 1-isocyanato-3-methyl-;Isocyanic acid, <em>m</em>-tolyl ester;1-Isocyanato-3-methylbenzene;3-Methylphenyl isocyanate;<em>m</em>-Methylphenyl isocyanate;<em>m</em>-Isocyanatotoluene;3-Tolyl isocyanate;<em>m</em>-Tolyl isocyanate",
    "duplicated_cas_no": "",
    "SMILES": "N(=C=O)C1=CC(C)=CC=C1",
    "meta_data": {
        "InChI": "InChI=1S/C8H7NO/c1-7-3-2-4-8(5-7)9-6-10/h2-5H,1H3",
        "InChIKey": null,
        "Canonical SMILES": "O=C=NC1=CC=CC(=C1)C",
        "Molecular Formula": "C<sub>8</sub>H<sub>7</sub>NO",
        "Molecular Mass": "133.15",
        "Boiling Point": "187.2-187.4 °C",
        "Density": "1.0630 g/cm³ @ Temp: 20 °C"
    }
}