{
    "cas_no": "1740-19-8",
    "key_name": "Dehydroabietic acid",
    "cn_name": null,
    "alternate_name": "1-Phenanthrenecarboxylic acid, 1,2,3,4,4a,9,10,10a-octahydro-1,4a-dimethyl-7-(1-methylethyl)-, (1<em>R</em>,4a<em>S</em>,10a<em>R</em>)-;Abietic acid, dehydro-;Podocarpa-8,11,13-trien-15-oic acid, 13-isopropyl-;1-Phenanthrenecarboxylic acid, 1,2,3,4,4a,9,10,10a-octahydro-1,4a-dimethyl-7-(1-methylethyl)-, [1<em>R</em>-(1α,4aβ,10aα)]-;(1<em>R</em>,4a<em>S</em>,10a<em>R</em>)-1,2,3,4,4a,9,10,10a-Octahydro-1,4a-dimethyl-7-(1-methylethyl)-1-phenanthrenecarboxylic acid;Dehydroabietic acid;Abieta-8,11,13-trien-18-oic acid;(+)-Dehydroabietic acid;NSC 2952;Resigral 52;7-Callitrisic acid",
    "duplicated_cas_no": "135577-73-0;2501-27-1;35949-24-7",
    "SMILES": "C[C@@]12[C@]([C@@](C(O)=O)(C)CCC1)(CCC=3C2=CC=C(C(C)C)C3)[H]",
    "meta_data": {
        "InChI": "InChI=1S/C20H28O2/c1-13(2)14-6-8-16-15(12-14)7-9-17-19(16,3)10-5-11-20(17,4)18(21)22/h6,8,12-13,17H,5,7,9-11H2,1-4H3,(H,21,22)/t17-,19-,20-/m1/s1",
        "InChIKey": null,
        "Canonical SMILES": "O=C(O)C1(C)CCCC2(C3=CC=C(C=C3CCC12)C(C)C)C",
        "Molecular Formula": "C<sub>20</sub>H<sub>28</sub>O<sub>2</sub>",
        "Molecular Mass": "300.44",
        "Melting Point": "166-167 °C"
    }
}