{
    "cas_no": "78-96-6",
    "key_name": "(±)-1-Amino-2-propanol",
    "cn_name": "1-氨基-2-丙醇;异丙醇胺;",
    "alternate_name": "2-Propanol, 1-amino-;1-Amino-2-propanol;α-Aminoisopropyl alcohol;Isopropanolamine;Threamine;Monoisopropanolamine;2-Hydroxy-1-propylamine;1-Amino-2-hydroxypropane;2-Hydroxypropylamine;1-Methyl-2-aminoethanol;2-Amino-1-methylethanol;2-Hydroxypropanamine;MIPA;2-Hydroxy-1-propanamine;β-Aminoisopropanol;<span class=\"text-smallcaps\">DL</span>-1-Amino-2-propanol;<em>dl</em>-1-Amino-2-propanol;(±)-1-Amino-2-propanol;(<em>RS</em>)-1-Amino-2-hydroxypropane;(<em>RS</em>)-1-amino-2-propanol;NSC 3188;(2-Hydroxy-2-methylethyl)amine;1-Aminoisopropanol;Additive CA",
    "duplicated_cas_no": "1674-56-2;1790637-35-2",
    "SMILES": "C(CN)(C)O",
    "meta_data": {
        "InChI": "InChI=1S/C3H9NO/c1-3(5)2-4/h3,5H,2,4H2,1H3",
        "InChIKey": null,
        "Canonical SMILES": "OC(C)CN",
        "Molecular Formula": "C<sub>3</sub>H<sub>9</sub>NO",
        "Molecular Mass": "75.11",
        "Boiling Point": "159.46 °C @ Press: 760 Torr",
        "Melting Point": "1.74 °C",
        "Density": "0.9611 g/cm³ @ Temp: 20 °C"
    }
}