{
    "cas_no": "853-39-4",
    "key_name": "Decafluorobenzophenone",
    "cn_name": null,
    "alternate_name": "Methanone, bis(2,3,4,5,6-pentafluorophenyl)-;Benzophenone, decafluoro-;Methanone, bis(pentafluorophenyl)-;Bis(2,3,4,5,6-pentafluorophenyl)methanone;Decafluorobenzophenone;Perfluorobenzophenone;NSC 96914",
    "duplicated_cas_no": "",
    "SMILES": "C(=O)(C1=C(F)C(F)=C(F)C(F)=C1F)C2=C(F)C(F)=C(F)C(F)=C2F",
    "meta_data": {
        "InChI": "InChI=1S/C13F10O/c14-3-1(4(15)8(19)11(22)7(3)18)13(24)2-5(16)9(20)12(23)10(21)6(2)17",
        "InChIKey": null,
        "Canonical SMILES": "O=C(C=1C(F)=C(F)C(F)=C(F)C1F)C=2C(F)=C(F)C(F)=C(F)C2F",
        "Molecular Formula": "C<sub>13</sub>F<sub>10</sub>O",
        "Molecular Mass": "362.12",
        "Melting Point": "91-92 °C"
    }
}