{
    "cas_no": "1076-43-3",
    "key_name": "Benzene-<em>d</em><sub>6</sub>",
    "cn_name": "苯-d6;",
    "alternate_name": "Benzene-<em>1</em>,<em>2</em>,<em>3</em>,<em>4</em>,<em>5</em>,<em>6</em>-<em>d</em><sub>6</sub>;Benzene-<em>d</em><sub>6</sub>;Hexadeuterobenzene;Perdeuterobenzene;Perdeuteriobenzene;Hexadeuteriobenzene;Deuterobenzene;Perdeuterated benzene",
    "duplicated_cas_no": "",
    "SMILES": "C=1(C(=C(C(=C(C1[2H])[2H])[2H])[2H])[2H])[2H]",
    "meta_data": {
        "InChI": "InChI=1S/C6H6/c1-2-4-6-5-3-1/h1-6H/i1D,2D,3D,4D,5D,6D",
        "InChIKey": null,
        "Canonical SMILES": "C=1C=CC=CC1",
        "Molecular Formula": "C<sub>6</sub>D<sub>6</sub>",
        "Molecular Mass": "",
        "Boiling Point": "82.5 °C",
        "Melting Point": "-1 °C",
        "Density": "0.954 g/cm³ @ Temp: 17 °C"
    }
}