{
    "cas_no": "675-62-7",
    "key_name": "Dichloromethyl(3,3,3-trifluoropropyl)silane",
    "cn_name": null,
    "alternate_name": "Silane, dichloromethyl(3,3,3-trifluoropropyl)-;Dichloromethyl(3,3,3-trifluoropropyl)silane;(3,3,3-Trifluoropropyl)methyldichlorosilane;Methyl-3,3,3-trifluoropropyldichlorosilane;(3,3,3-Trifluoropropyl)dichloromethylsilane",
    "duplicated_cas_no": "",
    "SMILES": "C(C[Si](C)(Cl)Cl)C(F)(F)F",
    "meta_data": {
        "InChI": "InChI=1S/C4H7Cl2F3Si/c1-10(5,6)3-2-4(7,8)9/h2-3H2,1H3",
        "InChIKey": null,
        "Canonical SMILES": "FC(F)(F)CC[Si](Cl)(Cl)C",
        "Molecular Formula": "C<sub>4</sub>H<sub>7</sub>Cl<sub>2</sub>F<sub>3</sub>Si",
        "Molecular Mass": "211.09",
        "Boiling Point": "121-122 °C",
        "Density": "1.261 g/cm³"
    }
}