{
    "cas_no": "51980-54-2",
    "key_name": "4-(1-Pyrrolidinyl)benzaldehyde",
    "cn_name": null,
    "alternate_name": "Benzaldehyde, 4-(1-pyrrolidinyl)-;Benzaldehyde, <em>p</em>-1-pyrrolidinyl-;4-(1-Pyrrolidinyl)benzaldehyde;4-Pyrrolidinobenzaldehyde;<em>p</em>-Pyrrolidinobenzaldehyde;1-(4-Formylphenyl)pyrrolidine;4-(1-Pyrrolidino)benzaldehyde",
    "duplicated_cas_no": "",
    "SMILES": "C(=O)C1=CC=C(C=C1)N2CCCC2",
    "meta_data": {
        "InChI": "InChI=1S/C11H13NO/c13-9-10-3-5-11(6-4-10)12-7-1-2-8-12/h3-6,9H,1-2,7-8H2",
        "InChIKey": null,
        "Canonical SMILES": "O=CC1=CC=C(C=C1)N2CCCC2",
        "Molecular Formula": "C<sub>11</sub>H<sub>13</sub>NO",
        "Molecular Mass": "175.23",
        "Melting Point": "84.5-85.5 °C"
    }
}