{
    "cas_no": "284461-73-0",
    "key_name": "Sorafenib",
    "cn_name": "索拉非尼;4-{4-[3-(4-氯-3-三氟甲基苯基)酰脲]苯氧基}吡啶-2-甲酰胺;",
    "alternate_name": "2-Pyridinecarboxamide, 4-[4-[[[[4-chloro-3-(trifluoromethyl)phenyl]amino]carbonyl]amino]phenoxy]-<em>N</em>-methyl-;4-[4-[[[[4-Chloro-3-(trifluoromethyl)phenyl]amino]carbonyl]amino]phenoxy]-<em>N</em>-methyl-2-pyridinecarboxamide;BAY 43-9006;Sorafenib;<em>N</em>-[4-Chloro-3-(trifluoromethyl)phenyl]-<em>N</em>′-[4-[2-(<em>N</em>-methylcarbamoyl)-4-pyridyloxy]phenyl]urea;Nevaxar",
    "duplicated_cas_no": "",
    "SMILES": "O(C=1C=C(C(NC)=O)N=CC1)C2=CC=C(NC(NC3=CC(C(F)(F)F)=C(Cl)C=C3)=O)C=C2",
    "meta_data": {
        "InChI": "InChI=1S/C21H16ClF3N4O3/c1-26-19(30)18-11-15(8-9-27-18)32-14-5-2-12(3-6-14)28-20(31)29-13-4-7-17(22)16(10-13)21(23,24)25/h2-11H,1H3,(H,26,30)(H2,28,29,31)",
        "InChIKey": null,
        "Canonical SMILES": "O=C(NC1=CC=C(OC=2C=CN=C(C2)C(=O)NC)C=C1)NC3=CC=C(Cl)C(=C3)C(F)(F)F",
        "Molecular Formula": "C<sub>21</sub>H<sub>16</sub>ClF<sub>3</sub>N<sub>4</sub>O<sub>3</sub>",
        "Molecular Mass": "464.82",
        "Melting Point": "215 °C"
    }
}