{
    "cas_no": "69159-50-8",
    "key_name": "1-(10,11-Dihydro-5<em>H</em>-dibenzo[<em>a</em>,<em>d</em>]cyclohepten-5-yl)piperazine",
    "cn_name": null,
    "alternate_name": "Piperazine, 1-(10,11-dihydro-5<em>H</em>-dibenzo[<em>a</em>,<em>d</em>]cyclohepten-5-yl)-;1-(10,11-Dihydro-5<em>H</em>-dibenzo[<em>a</em>,<em>d</em>]cyclohepten-5-yl)piperazine;5-(Suberan-5-yl)piperazine",
    "duplicated_cas_no": "",
    "SMILES": "C1(C=2C(CCC=3C1=CC=CC3)=CC=CC2)N4CCNCC4",
    "meta_data": {
        "InChI": "InChI=1S/C19H22N2/c1-3-7-17-15(5-1)9-10-16-6-2-4-8-18(16)19(17)21-13-11-20-12-14-21/h1-8,19-20H,9-14H2",
        "InChIKey": null,
        "Canonical SMILES": "C=1C=CC2=C(C1)CCC=3C=CC=CC3C2N4CCNCC4",
        "Molecular Formula": "C<sub>19</sub>H<sub>22</sub>N<sub>2</sub>",
        "Molecular Mass": "278.39",
        "Melting Point": "109 °C"
    }
}