{
    "cas_no": "6174-95-4",
    "key_name": "1,1,2,2-Tetraethyl 1,1,2,2-ethenetetracarboxylate",
    "cn_name": "亚乙基四羧酸四乙酯;",
    "alternate_name": "1,1,2,2-Ethenetetracarboxylic acid, 1,1,2,2-tetraethyl ester;Ethenetetracarboxylic acid, tetraethyl ester;1,1,2,2-Tetraethyl 1,1,2,2-ethenetetracarboxylate;Tetraethyl ethenetetracarboxylate;Tetraethyl ethylenetetracarboxylate;Tetrakis(ethoxycarbonyl)ethylene;Tetracarbethoxyethylene;Tetraethyl 1,1,2,2-ethenetetracarboxylate;Tetraethoxycarbonylethylene;NSC 16084;2,3-Bis-ethoxycarbonyl-but-2-enedioic acid diethyl ester",
    "duplicated_cas_no": "",
    "SMILES": "C(=C(C(OCC)=O)C(OCC)=O)(C(OCC)=O)C(OCC)=O",
    "meta_data": {
        "InChI": "InChI=1S/C14H20O8/c1-5-19-11(15)9(12(16)20-6-2)10(13(17)21-7-3)14(18)22-8-4/h5-8H2,1-4H3",
        "InChIKey": null,
        "Canonical SMILES": "O=C(OCC)C(C(=O)OCC)=C(C(=O)OCC)C(=O)OCC",
        "Molecular Formula": "C<sub>14</sub>H<sub>20</sub>O<sub>8</sub>",
        "Molecular Mass": "316.30",
        "Boiling Point": "203 °C",
        "Melting Point": "58 °C"
    }
}