{
    "cas_no": "2719-27-9",
    "key_name": "Cyclohexanecarbonyl chloride",
    "cn_name": "环己甲酰氯;",
    "alternate_name": "Cyclohexanecarbonyl chloride;Cyclohexylcarbonyl chloride;(Chlorocarbonyl)cyclohexane;Hexahydrobenzoyl chloride;Cyclohexanecarboxylic acid chloride;Cyclohexanoyl chloride;NSC 85181;Cyclohexanoic acid chloride",
    "duplicated_cas_no": "1245720-18-6",
    "SMILES": "C(Cl)(=O)C1CCCCC1",
    "meta_data": {
        "InChI": "InChI=1S/C7H11ClO/c8-7(9)6-4-2-1-3-5-6/h6H,1-5H2",
        "InChIKey": null,
        "Canonical SMILES": "O=C(Cl)C1CCCCC1",
        "Molecular Formula": "C<sub>7</sub>H<sub>11</sub>ClO",
        "Molecular Mass": "146.61",
        "Boiling Point": "180 °C"
    }
}