{
    "cas_no": "9003-53-6",
    "key_name": "Polystyrene",
    "cn_name": null,
    "alternate_name": "Benzene, ethenyl-, homopolymer;Styrene, polymers;Lustrex;Polystyrene;Polystyrol F;Rhodolne;Styrofoam;Afcolene;Dylene 8;Krasten SB;Trolitul;Trycite 1000;Vinamul N 710;Oligostyrene;Styropor;Styron;ET 450;Carinex SB 61;Carinex HRM;PY 2763;Dylene 9;Styrafoil;Styron 686;Diarex HF 77;Dylite;Styropor KA;PSB-S;Dylite F 40L;Estyrene H 61;Polyco 220NS;Polystyrene BW;Polystyrol;Styrene polymer;Styron 440A;Styron 475;Styron 666;Ubatol U 2001;Vestyron N;Toporex 830;Styroflex;Bustren K 525-19;Styron 683;BASF III;Cosden 550;Diarex HF 55-247;Diarex HS 77;Diarex HT 90;Dow 1683;Edistir RB;Hostyren N 4000;Hostyren N;K 525;KR 2537;Lacqren 506;Lacqren 550;Lustrex H 77;NaPSt;Piccolastic A 25;Piccolastic A;Piccolastic D 150;Piccolastic D;Polystrol D;PS 1;PS 2;PS 454H;R 3612;SRM 705;SRM 706;ST 90;Styrex C;Styron GP;Styron 678;Styropor IBE;TGD 5161;UP 1;UP 2 (styrene polymer);Vestyron MB;Vinamul 7700;Vinyl Products R 3612;3A;454H;825TV-PS;Diarex HF 55;Piccolastic E 200;Piccolastic E 100;Shell 300;Krasten 1.4;Krasten 052;Vinylbenzene polymer;Esbrite G-P 2;Esbrite 4-52;Copal Z;Styron 690;Dorvon FR 100;Piccolastic D 125;Dow MX 5516;Dow 456;Dow MX 5514;Esbrite 4;Styrocell PM;Atactic polystyrene;SPS 600;Diarex 43G;Lustrex HT 88;MX 4500;Styropian FH 105;HT 91-1;Estyrene G 10;Esbrite 4-62;SB 475K;Styron 679;Esbrite G-P 4;Bustren U 825;Carinex GP;Bicolene H;Esbrite 500SH;X 600 (vinyl polymer);UPM (vinyl polymer);Bustren Y 825;Bustren Y 3532;Carinex HR;Vestyron;Bustren;UP 27;Dow 665;Escorez 7404;BSB-S-E;BSB-S 40;PS-B;Koplen 2;Bustren K 500;MX 5516;PSB-C;PSV-L 2;Bactolatex;PSV-L;FC-MY 5450;Styron 69021;Afcolene S 100;BP-KLP;Hostyren N 7001;Dorvon;Diarex HT 88A;Piccolastic A 50;UCC 6863;HF 10;Dylene 8G;Esbrite LBL;MX 5517-02;686E;Dow 360;Dow 860;Bustren U 825E11;Styropian;Vinamul N 7700;Piccolastic;Diarex HT 190;Estyrene G 20;Afcolene 666;U 625;HT 88A;HF 77;Lustrex HF 77;Pelaspan ESP 109s;Sternite 30;Esbrite 8;Carinex SL 273;666U;Esbrite;N 4000V;SMD 3500;Bakelite SMD 3500;Diarex HT 500;PSB-S-E;PSB-S 40;Esbrite 2;Vestyron 512;Printel's;PSV-L 1;PSV-L 1S;MX 5514;ST 30UL;PS 200;PS 209;Carinex TGX/MF;Styron 685;S 173;R 3 (polymer);Carinex SB 59;TMDE 6500;Hostyren S;Styron T 679;SD 188;Styrofan 2D;Hi-Styrol;Estyrene G 15;Styron GP 686;Denka QP 3;Styron 666K27;HT-F 76;Toporex 500;LS 061A;KM;Cosden 945E;Owispol GF;KB (polymer);KM (polymer);LS 1028E;Pelaspan 333;Lustrex HH 101;NBS 706;Styropor JQ 300;Styropor HT 500;Piccolastic C 125;Vestyron 114-31;A 3-80;TC 3-30;Cadco 0115;HHI 11;PRX 1195;Styron PS 3;Piccolastic E 75;Styron 666V;BDH 29-790;UPM 508L;Styron 666U;Hostyren N 4000V;168N15;Diarex YH 476;Toporex 550-02;Toporex 850-51;Sternite ST 30VL;Sty-Grade;PS 1 (vinyl polymer);Bakelite SMD 5401;Fostarene 50D3;Fostarene 817D9;Styron 680;Piccolastic D 100;Vestyron 502;PM 86;666U26;Hostyren N 7000;Cosden 525;Cosden 510;Cosden 500;TGDG 6500NT;Denka Styrol QP;Estyrene S 60;S 102;S 108;Styron 457;R 5;UPS 804;Styron 863;NBS 705;S 102 (polymer);S 105;S 108 (polymer);S 109;S 111 (polymer);R 3;N 168;Woodlack B-C;Woodlack B-W;Woodlack B;Woodlack C;PS 5;TGDB 2100;Dylene 957;Amoco M 9;Styropor BF 61;Styron GP 679;XFS 4220;KS 318;Bustren K 525;Denka MW;Kanepearl GL;Bakelite TMDE 6500;XC 7226.00;Styron 456;Lustrex HT 42-1;Lustrex HF 55;Hostyren F;UPM 0508;Krasten 463;Fostafoam;KS 418;Carinex TGX/SF;Poly(vinylbenzene);Denka QP;M 9 (polymer);M 9;Diarex HT 59;Dylene 805;K 158;Bustren K 550-19;Piccolastic D 75;KPTL 5;DYL 8G;Styropian S;Styropian Z;Styropian SG;Styropor P;Styropor H;Bustren U 825E26;Bustren K 525-11;Carinex SI 78;Carinex TGH;Estyrene H 60;Estyrene G 30;KR 2159;Coles 6MW;Diarex HH 101;Kanepearl KO;Kanepearl KM;YB;Styropor F;PSV;PSV-S;Diarex HH 102;HH 99L2020;HT 88-1000;Fostarene 20D9;Dylene KTPL 5;PSR 3/8;Dylene 8D;473E;UP 1LA;BF 61;Esbrite 500SD62;S 2355;Dylite M 57A;Dylite F 64A;D 150 (polymer);Suprapal LG;Himer ST 90;Himer ST 120;Lustrex HF 66;Esbrite 8M62;Galirene HF 55;Esbrite 800;Esbrite 500S;BN 26N;PS-B (aromatic polymer);PSV-MP;Trycite;R 5 (styrene polymer);ST 153;Krasten 522;N 7000;HH 101;H 3;Polysol C 4;HT 88-5;Viki;PS 5 (vinyl polymer);PS 084;Denka GT;Carinex;KB;CR 5500;CR 2500;Bakelite LP 80;LS 1102A;LS 1047E;LS 1134B;Styrobach;UPM 508-02;Bustren AB 20;Bustren AB 05;Piccolastic E 125;EPS-GX;Vestyron 114;Biosilon;678U;Denka HRM;Denka Styrol;Edistir FA;Styrodur 30;Hostyren 4000Z;HT 58;PSV-LD;SDL 59;Toporex 525-51;Kanepearl GB;Edistir NA;PSV 76C;PSV 77S;PSV 74S;PSV 65C;PSV 55C;PSV-S 76X;Lustrex HF 555;ZC 337;Krasten 144-9001;Toporex;Dylene 601;PSS 267P;Toporex GP 500;Shell 203;Galirene HH 102;Styrofoam DB;Styrofoam RM;Styrofoam SI;Styrofoam SM;Styrofoam TG;Styrofoam IB;Styrofoam BB;H 3 (polymer);Owispol KT;UPM 0703E;475K;D 125;Kanepearl NEB;Owispol GA;Krasten 336;Krasten 452;Rhodopas S 051;BP-KLP 35;Dow Resin PS-2;KFPZ;Estyrene C 20;456M;UPM 3L;TSK F 40;TSK F 80;TSK F 120;TSK F 225;TSK F 459;TSK F 870;TSK F 1600;USS 610;Reel-lite 83;Cosden 615;Lytron RX 1259;Himer ST 135;Cosden 945;Norflex (polymer);Norflex;Heatmax;R 2 (polyolefin);R 2;A 75;Diarex HRM 3;PSB-L 1;CR 3500;JSR-IK 1500;XP 71005.01;HH 103;G 2 (polyolefin);H 5M;AT 100 (styrene polymer);G 2;Polidex;Styrofilm;Himer SF 95;Lustrex Crystal 101;Krasten 1.2;Krasten 162;Romstiral;Styropol;DP 3037;Krasten 126;Cosden 500S;Dylene 3D;K 524;Lustrex LX 4300;SRM 1478;Denka Styrol GP 1;Styron R 666;Estyrene G 32;Owispol GM;SB 473D;SB 456N;SB 454C;SB 427D;SB 466I;JSR-LX 303;Diarex HT 61;Hostyren N 4001;NBS 1478;Gedex 8S;Bakelite TMDP 9540;Arralene;G 32 (polymer);G 14 (polymer);G 14;Lacqren 1531;Scopyrol C 337;Scopyrol S 246;Krasten 144;MA 1563;Krasten 127;Krasten 562;HH 30E;SAM-E;Voncoat FS 110;Hostyren XS/TU;Denka Styrol GP 2;LPA 3500;HCG 100;Mypole;Mobil IIOR;Hostyren N 2000V01;Lustrex HF 777;S 111;Styron 634;Santoclear;GPX 1-301;GPX 2-301;Gedex 4201;Polysar 205;G 18;Diarex HI 516;Homopolystyrene;Estyrene H 1H61;LS 1121B;GP 683;Diarex 307;Toporex 525;Cospan 96;R 5C7;Styrene homopolymer;Lacqren 3631;H 2R;Fostarene 50;Hostyren N 5001;F 380;Denka Styrol QP 2;Denka Styrol HIS 3;Pelaspan-Pac;N 150;Owispol S;SNL 400;Dicsheet M;PSM;Esbrite 8M;UP 2;AT 100;HH 880;Toporex 872-01;Dow 648;MB 3700;Afcolene 492;Gedex 1541;ET 61 (polymer);Piccolastic C 100;Toporex 500-51;ET 61;UPS 612;Finepearl 3000SP;Finepearl 3000;Finepearl PB 3003;XP 71008.00;Styron 660;ET 11 (vinyl polymer);ET 11;Dicstyrene GH 8000;Polysar 220;Edistir TA 20110;XD 8439;Lytron 604;Nipol LX 303;MS 555;PSZM 115;Polidux HF 55;Himer SB 75;Thermocole;Dicstyrene CR 4500;Toporex 570-57;Dylene 1037T;NF 20;HH 30;Darex 670;CT 110;NF 20 (polymer);HH 30 (polymer);Estyrene GP 20;Estyrene GP 15;Estyrene GP 32;Huntsman 333;Huntsman 351;PSZT;G 32;HT 51;HH 31;HT 51 (polymer);SGP 70;Dow 666;Hostyren N 5000;Lacqren 1811;Diarex HH 105;GP 1-301;Styron 678E;X 600;US 305;Gedex 1819JA100;GH 8300;PSM 151;PSMD;Toporex 825-21;Polysar 201;Esbrite GP 8;JSR-BK 2500;Styron 685D;Toyo Soda 380;Toyo Soda 550;Toyo Soda 2000;Styropor BF 414;Styron 49;Lustrex 777;T 1000 (vinyl polymer);PSA 35;T 1000;Fostarene T 58;Lytron 607;Styrol ET 61;9M62;Denka Styrol GP 1-301;Denka Styrol HRM;Esbrite Highflow 2;HH 105;Edistir 20-100;SN 100;FA 20100;16ERA8;SEHI 103;XP 6065;Esbrite 4-62A;SEHI 110;H 165;HF 55;Eslen Beads HK;Eslen Beads HCM;Gedex 1541CA100;Gedex PS 628;Vestypor 01S;143E;PS 144C;Toporex 550-01;Esbrite 8-62;PSHF 55;HH 102;Huntsman 203;UPM 612;Nikecell;Krasten 27;Polystyrol 475K;Owipian;Texicote 57-0033;FG 4;PS 115M;Opticite 350;Opticite 520;Opticite 580;Opticite 620;Polyflex (vinyl polymer);Toporex 550;Diarex HF 77-307 Natural;Diarex HH 102-307 Natural;Polyflex;ZR 200;Esbrite 2V;NBS 1479;Styrol HT 51;PS 706;PSB-PBzh;PSB-PBs;UPM;Lustrex 101;US 300;Himer SB 125;XZ 86876;Lytron 2203;Scopyrol S 267P;Polystyrol 168N;Toporex 565-51;XZ 86609.02;Estyrene G 12F;Lacqren 1160C;Diarex YH 951;Estyrene HI;Styrol NF 20;Fostarene 57;PS 201;PS 084 (vinyl polymer);ATO 1530;Styron K 218151;Esbrite H 1500A;Styron 8703;Styron 685D2;Denka Styrol GP;Denka Styrol MW 1;Dicstyrene CR 4300;D 1B33;G 2210;Styrafil G 35/35;Toporex 550-51;US 300 (vinyl polymer);Edistir 1380;Denka Styrol HRM 2;Toporex GP 555;Esbrite 7;Styron GP 683;PSE 1;G 14KDC;Dicstyrene CR 5000;PP 401B;Dicstyrene CR 3500;Styron 600;158K;Dow 91;Esbrite 500SD-N;B 1;Sumibrite UH 04;Finepearl PB 3011W;Finepearl PB 3006W;158KR;Dicstyrene UX 560;Polysar HH 101;XP 5536;YG 689;Styron 691;Styron 667;PNBOO;Styron 693;GP 1;Diarex R 42108;Esbrite 8K;Kanepearl GM;Kanepearl GT;Diarex HH 102-307R;Kaneka FL;Kaneka FM;SP 30;UPM-ZL;PSMD-E;Finepearl BS 11;Gedex 4240;Maxiglac 100;Esbrite 7-62;Esbrite 6-62;Piccolastic D 127;Lytron 2503;SGP 60C;A 75 (vinyl polymer);Toporex 600;Hostyren V 40000;PS 143E;QP 3-301;Toporex 550-05;XP 6069;Styron 854D;550P (styrene polymer);Resit S 94;Polystron MCG 100;Lytron 2502;XU 6069.02;GP 666;Ryulex F 25;Finepearl BS 10;PSV 313;Styron XH 803;LS 1166B;Isolofoam;Dow 685D;CS 55388-1205;Gedex 1260GA100;Styron 637;271T;Toporex MP 500;PS 475K;Styrol GP 1;HH 102E;PSBR 300K;Styron 686E;DePeX;JP 200;Finepearl 300F;PS 200 (polymer);Denka Styrol QP 330;Lacqren 1540H;Muticle 240D;Esbrite 6P;ZE 1400A;Denka Styrol QP 2-301;XC 510;EA 3300;HH 200;Toporex 555;GP 125;UV 148;Esbrite 2X;MC 2100;Koplen;Esbrite T 8K;XP 6069.02;Edistir SRL 800;Edistir N 1380;Mobil 1240;Styron G 8259;Stadex SC 310S;Sumibrite M 192;Lacqren 1241H;Styrol HH 30E;Polysar 103;PG 33;550P;Lytron 2101;Styron H 8765;Toporex GPPS 550-51;Stirodur 3000;Coethylene SB 0425;Okirol E 4/3;PS 525P1;Sumibrite E 183;Dicstyrene GH 8300;SB 735;Edistir N 1280;Diarex YH 478;Sumibrite E 163;Polystyrol 158K;Styron 638;PG 383;Koplen F 0822;OCF-P 713;Esbrite 6S62UA;Lacqren 1540;Estar EM 116;Edistir N 1460;Edistir N 1670;Edistir N 1840;Edistir N 1921;Eslen Beads HE;Eslen Beads HBY;HH 32;PS 678E;Styron 666D;Styron 666APR;Sumibrite M 140;Haitesuto 88-5;HH 31S;PS 666;Styron 492J;S 008;Sumibrite 4;Polyrex PG 79;9M62C;PSS 6600;Novacor 101;Esbrite 9M;YB (polymer);ZR 200 (polymer);XU 72104.04;Styropor JL 350;PSH 165;PS 1500;Piccolastic A 125;SX 1103K;144C;Estyrene G 15L;PS 165H;Polysar 204;HRM 5;Styron 679R;VS 100 (styrene polymer);Idemitsu Styrol US 300;UHB 100;VS 100;Elastyrene 200;Novacor 555;HF 11;HH 30J;UP 1 (polymer);Esbrite 2V62;Styron 688;Styron D 685;Vestyron 640;GP-US 305;Styron G 8073;Diarex HH 200;Estizulia PS 1500;Toporex 570;Toporex GP 525;Polystyrene 685;Eslen Beads LFK;Styron QG 683;Toporex 580-57U;Krasten 151;Dylene 8X;Mobil 2524;PS 1240;PS 168N;CJ 3947;ES 201;Estyrene G 17;Diarex YH 565;Styron 615APR;Denka Styrol MT 5;Novacor 103;Estyrene G 14;Dicstyrene CR 5600;Estyrene GP 10;G 12-55;76RES7116;Toporex 575-57U;US 320;Toporex 570-2;Diarex HF%%;Styron 500PI;Styron 685W;HRM 2;Styron GP 685;G 9303;KR 2601;Polystron 678SF1;TS 144;TS 85;GSP 70C;Estyrene G 13;PS-GP 678E;BASF 1900;BASF 1800;PS 10;BASF 1424;Diarex GP;Polystron 666P1;C 10;T 575-57U;EF 60;Lacqren 1240;C 10 (styrene polymer);2V62F;LFP;G 8102;Hostyren PS-N 7000;KS 141C;148H;N 201;Owispol SO;Polysar PS 210;N 201 (styrene polymer);GPPS 20;Denka Styrol HRM 3;Styron 615;Esbrite E 197N;Denka Styrol HRM 5;Styron 623;Denka Styrol MW;Diarex HF 77-307 Crystal;Ecostyr PD-I 3000;N 2000;Krasten 120;Sumibrite ST 970;MF 20;Daicel Styrol 31;Vestyron 1203;MF 20 (styrene polymer);H 8507;Sumibrite UT 750;Sumibrite UT 850;QP 2B;666R;Styron 666R;Toporex 570-57U;GPPS 220;PS 103-300;E 183;Discover GPPS-OPS;168N003 Clear;GPPS 103;H 101;T 57-57U;Daicel Styrol 51;G 6000HHR;Adion H;AT 938;Himer SB 130;H 101 (styrene polymer);QPX 2B;Styron 665;G 14K;Styron 484-27;Huntsman 202H1Y;Dow 666D;Huntsman 204HON;Dow 666APR;GPPS-G 116;Styron XG 805;GP 666R;GP 679R;JF 151;Upearl LPS;G 9305;Dicstyrene HF 11;G 9401;G 20;333AZY;GP 678E;C 35;Polystyrol 143E;PS 685;PS 204;Nipol LX 410;Kanepearl FB;C 35 (styrene polymer);SX 1302;GP 685;Himer SB 150;666D;B 315;Styrocel;B 315 (styrene polymer);MIPS-R 71;Toporex XGPPS 550-51;MD 9520;Koplen F 1640;Daicel Styrol 20;Daicel Styrol 53;Dicstyrene XC 510;Techpolymer SBX 17;Styron G 680;Styron G 8102;Mark-A-Cite;Dicstyrene CR 5800;Sumibrite E 183N;F 10;Hostyren PS 168N;Galirene HH 102E;F 10 (styrene polymer);Toporex 555-57;Toporex 575-57;PS 210;Esbrite T 2;VS 124;CR 350;Dicstyrene XC 520;GX 9365;685D;Flo-Pak S;Lacqren 1340H;PS 128;Novacor 103-300;Novacor 220;PS 128 (styrene polymer);Sumibrite ST 970K;Finepearl PB 3001E;GR 2500;N 3000;N 3000 (styrene polymer);GR 2500 (styrene polymer);Krasten 146;GPS 130;EM 116;Novacor 777;Toporex 585-57;Eslen Beads HCE;168N;PS 666D;N 4000;Huntsman 208;H 814;Lacqren 1541;GPPS 555;Novacor 2272;Lacqren 1340;Styropor JFL 250;S 105 (styrene polymer);Styron 664;VMX 41FT;Solarene G 144;Eslen Beads HA;Aspac;Vestypor 10N;Extir A 7000;Vestyron 314;Scientific Polymer Products 686;Denka Styrol GP-HRM 6;HRM 6;Styroflex (Russian polymer);Styron 8259;Huntsman 212;R 70;R 70 (polymer);Solarene 144;Solarene 126;Solarene 116;DIC 2500;HF 2660;GP 679;G 10;Styron 605;GPPS 125;Radoslav;VF;Styron GP 66HR3;Sumikon PM 8220;Styropor JF 200;Styropor JF;Styron 612;PS 535;G 8059;Nova 101C;Styron 678C;Vestyron 1202;G 13-55;Dicstyrene GR 3500;VZ 70;VZ 65;VZ 74;VZ 96;R 53;Sumibrite GP-M 183;JA 100;R 53 (styrene polymer);BN 4901X;DL 256;DPP 714;Hibeads SSB;G 757X;MS 620;HH 31B;M 131P;Novacor PS 2400/300;A 180;MS 620 (styrene polymer);Scandiplast 9101;GPPS 51;Amoco 18240;138F;Sumibrite E 183K;Bonron K 855-51;Eslen Beads HDM;Sumibrite E 193N;Sumibrite BX 930;OPS Film GM;OPS-B 2C;Kohplan KS;Polysar 101;Plastron PSG 505;Plastron PSG 403;EB 3300;1800P;CR 4500G;Toporex 826-51;Styron G 9305;PM 86 (vinyl polymer);VS 2A;A 180 (vinyl polymer);Hibeads 7SB;Eslen Beads FDL;S 134;Hibeads SSB-HX;Ryupearl 70K;Buna S 134;Toporex 555-57U;Denka Styrol GP 1B;GP 1B;Sumibrite E 163K;Scott C 35;PS 304;Styron G 8509;M 121;158L-KG2;144CKG2;Dart 108;Styron 615PR;Styron G 9401;Dow 555;QP 2;G 8259;Daicel Styrol 30;Hostyren N 2000;Diarex DIX-CK;G 440K;Styron GPPS;Styropor JPE 151;Denka Styrol GP 200;GP 200;Saivinol P 305;G 13-50A;G 13-55S;Sumibrite G 690N;G 590;Daicel Styrol 50;105E;Paracryl 18-290;Penopleks;LX 303;H 450K;Edistir N 1381;N 1381;Lacqren 1810;Huntsman 202;Styron 648;PH 408;Styropor JQ 301N;Fina 517;Fina 535;Diarex HH 107;Fina Crystal 500;Styron H 8752;PS 304 (styrene polymer);G 690X;BSC Styrolboard 7;ST 52;ST 52 (polymer);Starex HF 2660;B-OPS;Cellomer S 2;G 1616SX;GP 525;MC 3500;EF 60 (polymer);Fancy Wrap GS;G 690K;31N;G 340;RQ 301;UX 560;G 340 (styrene polymer);615APR;SB 6 (vinyl polymer);Esbrite G 690K;PS 101-300;LS 1039E;Dicsheet OPS-GK 130;VPT;Austrex 555;GX 0196;D 1;G 430;N 5000;TY 324;D 1 (styrene polymer);Nova 172;Nova 103;Blendex 28270;Toporex G 797N;G 13-30K;G 490N;Kikko Foam;Novacor 172;PS 2124;Styrochem C 35;Novacor 103-00;T 31;ST 850;G 747R;Styron 663;ER Beads;GPPS-G 8259;Styron 656D;T 31 (styrene polymer);GP-G 200C;Styron G 9802;Daicel Styrol G 90;EA 3000;NS 28;Sumibrite M 183;Polysar 6065;Kanepearl SKM;Denka Styrol GPA;GPPS 30;G 590H;QG 7535A;G 120K;Sumibrite GP-M 140;PS 103;Toyo Styrol 31N;PS 158K;679R;Fina 525;XU 70262.08;PS 680;XZ 94007.40;MC 3600;Solarene G 126KS;Blendex 865;OPS Sheet 3000;U-PICA A 06;Isopor (polystyrene);HRM 2-211L;Kanelite PS;Styron 485;GP 150;Toyo Styrol G 320C;Huntsman 207;UR 510;Dicstyrene GR 4500;G 797N;G 899;NF 22;Huntsman 210;NF 22 (vinyl polymer);D 125 (styrene polymer);G 490X;Styron 678D;GPPS 679;Isopor;GPPS 673;HF 555;Poly-Star HH 30G;Styron 685P;Falcon 1008;Cell Pearl;S 96-12;Polystyrene 680;GPPS 525;GP 680;Kaneraito PS;UX 600;GP 158K;HH 102-305;Hibeads GP;GS 0805;G 18 (styrene polymer);PS;HRM 221IL;A 2500;Daicel Styrol 31N;GP-NB-P;5026B;A&amp;M Polystyrene 685;A 2500 (styrene polymer);PS 202;Novacor 115;Styropor JF-D;PS 101;Styron 666DW;PC 9000;GP 680E;Fina 585;HF 2680;HRM 20;LCIC 838;SGP 50;Styron 666H;SGP 50 (styrene polymer);NNP 30-2000;Toyo Styrol GP 14L;GP 14L;PS 122 (styrene polymer);PS 410;PS 1320;PS 2520;PS 2360;Toyo Styrol GP-HG 915;PS 340;PS 122;147F;Denka Styrol HI-RXB;Nipol UFN 1008;PN 609 (styrene polymer);PS 340 (styrene polymer);PN 609;Toyo Styrol G 15L;50IS;Falcon 1016;Bonset EPS 45T;XZ 40;BASF 2524;G 430K;MX 130H;Nippe Latex SY 314;Styropor P 25;PS 172;XZ 40 (styrene polymer);B 2;B 2 (styrene polymer);HH 3101;PS 612;Vestyron 214;US 310;Toyo Styrol GP-G 200C;F-PS 1;Tylac 4031;GPPS 685;GA 200C;Toyo Styrol MT 2;Toyo Styrol GP-G 330;GP-G 330;Spacel 4940;Spacel 7740;Diarex HF 77-307;A&amp;M Polystyrene GP 679;GP-Q 301;HID-H 07630;YH 520;Toyo Styrol GP-G 14L;HF 888;Toyo Styrol HIES 650N;G 340C;Lustrex HH 103;Cosmo gel 04;OP 62B;Lacqren Crystal;2D-MicroHex;S 103LA;BPPS 525;Toporex 525-01;SGP 10;Styron GPPS 685;G 330C;GP 9;HS 150;A&amp;M Polystyrene 680;HS 777;PS 20BN;CR 3500G;SGP 10 (styrene polymer);Extir E 3000AE;Extir E 5000AE;Extir E 7000AE;Extir EH 2000;685D-W;Lytron 2202;Lytron GA 5705;Eslen Beads HEM;Styron 687C;Extir 1910;PS 140;Novacor 2272-300;Maxiglac 125;Kanepearl NSGMB;PS 140 (styrene polymer);G 13;P 948St;SBX 17;Styron 656D267;SX 130;Himer ST 95;Dylene 989;PS 951N;Eslen Beads HDMF;MW 1;Polyrex PG 383;E 101A12;HRM 12N;HRM 18;Styron 660-71;Toyo Styrol HRM 26;G 460N;DXL 219-45;Palapreg H 814;T 570-57U;Innova HF 555;HRM 10N;Dow 666H;Huntsman 5371;Source 5RPC;Polystyrol 144C;M 35;PSL (vinyl polymer);Toporex 550-50;Scott C 24;M 35 (styrene polymer);PSL;Fancy Wrap GMLS;DXL 219V01;Huntsman 331;Toyo Styrol HRM 5B;Nippon Polysty G 360N;G 360N;PSB-SM 25F;HRM 5B;Toyo Styrol HRM 23;HRM 23;TS 85 (styrene polymer);HRM 63X;Toyo Styrol MW 1-301;SGP 1000;Toyo Styrol G 14L;Toyo Styrol MW 1;Novacor PS 2282;HRM 10;HRM 63C;CX 5197;Toyo Styrol G 19;Bonset EPS 62;Formosa 5250;G 200C;Polyrex PG 33;PS 35;Toyo Styrol GP-HRM 63C;EPS-NF 514;EPS-NF 714;Nova 1200;Nova 1037C;148G;145G;Edistir N 1910;PS 427D;Hurlen L;PS 30;FR 453M;F 215;Koplen 814F;Resirene HF 777;HF 777;Sumibrite G 690K;168M;D 150;G 19K;DPP 711;GPPS 15NFI;GPPS 25SPE;Toyo Styrol HRM 2;GPPS 20HR;PS 1301;PS 1301 (styrene polymer);HH 203;JPE 150;Toyo Styrol G 220;Lacqren 1450N;Krasten 171;Edistir 2560;Styron E 680;HRM 40N;20SPH;Lacqren 1160;DP 210;Emultex 340;EPS 35;F 271TU;PS 2110;EPS 35 (polymer);GP-P;G 20L;Novacor 777D300;Styropor JQ 250NX;JQ 250NX;HH 111;S 685;Lacqren 1070;SRM 2888;HRM 26;HRM 30;JPE 251;Toyo Styrol GP-HRM 26;145D;PS 1600;Toyo Styrol GP-HRM 56;Toyo Styrol HRM 56;HRM 56;Chemipearl W 410;ST 0603W;Stadex SC 014S;Stadex SC 046S;Stadex SC 051S;Stadex SC 061S;Immutex G 2110;PS 615APR26W;PSN;EPS;Austrex 103;Styron PS 665;A &amp; M Polystyrene 679;Nova 3600;GP 100;GP 100 (styrene polymer);Krasten 137;EPS 45T;Shin LSK-NS Shiro;PS 1510;PS 01;PS 01 (styrene polymer);N 2000MG;Owispol GPPS 525;SX 350;GE 1000;Nova 171N;Edistir N 2560;N 2560;P 3005S;HRM 12;Toyo Styrol HRM 13N;Edistir N 1841;N 1841;Styron 649D;MW 1D;Nova 3900;G 100C;Resirene HH 103;Resirene HF 555;Nova 1301;G 100C (styrene polymer);Roofmate;Styron 865D;L 3050;GPPS 678C;GPPS 100;Monosized PS Microsphere;Latex Microsphere Suspension 5100A;OPS 40;Nova 1210;PSJ 685;Edistir N 1671;PSJ 679;N 2380;S 0-001T;G 0002;Styron 617;CastForm;PrimeCast;PSBR 35K;G 220;DPS;DPS (vinyl polymer);PS-HH 30;5020B;KPS;Hibeads SSB-TX 7;Hibeads EX 15;PG 383M;Kanelite Super E IIIb;Kanelite Super E IIIa;GPPS-HF 77;PS 147F;GPPS-G 590;FinaAto 1540;Nova 1510;Saivinol PE 3;G 690N;G 797;BX 930;Polystyrene KM;Styrodur 3035C;OS 2000;G 13-50B;Immutex G 0205;Styrodia JFN 200;Nova 555;Arufon XF 900;Novacor 1301;Diarex HT 44;Moritex 5043;S 320B640-250;MD 2055-300;BS 1.6;Bonset EPS-LB 2;Toyo Styrol GP-HRM 12;Poresta blue;GPPS 7;Lacqren 1540/1541;SG 23;HRM 61C;PSN 115;Styron 695;SO 001T;SRM 1963;SRM 1691;Duke 3020A;SRM 1690;PS 152D;PS 20.3;PS 667;EQ 1402;Marait Board;H 814-902;SW 7310;Styron 678E-C1;Foamular F 250;G 450X;Neopor 2200;Styron D 693;PS 658;DPP 3720;HFF 777;Espree CPS 7GP;CPS 7GP;Nova 1600;Atofina 523;N 714;HDS 40;Polystyrol 143B;143B;Polys Beto;OptiBind;25SP;Kanepearl VF;Empera 123L;25SPE;Kanepearl NSG;Kanepearl YD;XC 515;Scott C 21;Scott C 31;SB.GAH 088-03-040(825);EN 2;ES Danmatto LV;Lacqren 7420;EN 2 (styrene resin);PS 168;PS 3680;PG 79;PSJ-HH 32;PS 010;GPPS-HF 55;Lacqren 1960N;PSJ-G 9305;M 550;Toyo Styrol HRM 10N;Fancy Wrap GMN;Styron 663W;F 2000;F 2000 (styrene polymer);Kanelite Super E III;GPPS;F 271M;F 271T;M 97BC;EPS-NF 414;Kanelite Super E;EPS 45TD;H 700;GPPS 3600;DXL 219-45Y;MDL 2503G350;Eslen Beads HDMF 2;HRM 50;PS 148G;Leonardo 5000;NVA 3900;JQ 251;Hibeads SB-TX 7;QLXJIB;PSJ-HF 77;Styropor F 315N;Styrovit 104D;Styrovit;Repstyrol 61L;MT 2-301;GPPS-G 100C;GPPS 535;Styron 678CW;Nova 1300;PSJ-Polystyrene 685;Denka Styrol 525-52N;Lacquerene 1540;GPPS 116;Styrodur 3035CS;G 490K;H 8102;Austrex 400;M 303;HRM 14;Styropor F 315;GPS-B 1;PS 670;Baystal SX 1160;M 2102;Toyo Styrol MT 1C;Dow 1568;Dow 1569;Dow 1570;Dow 680E;Toyo Styrol GP-HRM 40;Edistir N 1782;R 2/827;Almatex Muticle PP 600;Polystyrol 427D;615APR26W;G 9504;Styron 668;HP 500M;Estapor ES-K 030;Styron 168;Styron 640;NPS 7;SSB-TX 17;Techpolymer SBP 8;R 330B;Nova 34RB;D 240B;Mirafoam;688C;HE 2660;G 320C;SH 65;Toyo Styrol G 210C;Lacqren 6541;Palapreg H 814-01;H 1682;H 232 (vinyl polymer);H 232;Eslen Foam SU;CL 2500F;Austrex 112;R 850E;NEWRS;747R;Petren;Thermocol;LGG 109;S 680;PSM (polyolefin);Styron 660-7;Styrodia JQ 250NX;SOP;Nova 2500;S 2584A7;Lacqren Cristal PS 1960N;HF 77E;G 210B;SC 203EL;PG 80;Edistir N 2380;PS 10K;Toyo Styrol GP-G 320C;Dow 688G;Kanepearl HD-B;Kanepearl LVF-B;Total 945A;Toyo Styrol J 2;HF 77-301;PS 1960;535HF;535LF;GMVS;UNF 1008;SB 25;680L;PSPG-EDN 88G;Empera 156F;PSJ-Polystyrene HF 77;SC 208;Neopor 2300;Neopor N 2200;Neopor N 2400;Styropor P 426;New Generation Spindrift;Dicstyrene XC 515;SC 203LV;PS 47500;Polystyrol 145D-Q610;SL 90025506;PSJ 680;Stypol 040-0165;Toporex G 120K;Owispol 945E;Miraboard H;Toyo Styrol G 200C;Styron 685DW;Dicstyrene EX 710;GPPS 145D;PSJ-Polystyrene 666;Styron 685SD;Styron 615APR-W;G 8102K27;Toyo Styrol G 200;G 100;PSB-S 35;QH 7860;G 100 (styrene polymer);GMNO;N 2982;N 1782;Empera 153F;Styropor P 326;Polystyrol K;Total 100H45;G 144;Polyhope 9965;4250A;MC 3100;Polystyrol 168 N GLASKL;PS 2310;PS 708;PS 1220;Techpolymer SBX 5SS;Himer SB 103;HRM 61;Styroace;Neopor X 5300;HRM 21;Styropor F 215;PS 1070;PS 1450N;PSJ-Polystyrene GPPS G 9305;Toyo Styrol GP-G 200;Styron 675;D 999;PS 3900;GPPS 20HRE;LG 15NFI;Irostyrene Mat;Sabic 125;GPPS 251P;Toyo Styrol GP-NW 1-301;Toyo Styrol H 45;SGT 10;F 551;GPPS 24HRE;Empera 251N;Total 523;Polystyrene 523;Polystyrene 3900;PS 2500;Toyo Styrol GP-HRM 61;Toyo Styrol HRM 40;PSJ-Polystyrene 679;Toyo Styrol GP-G 2000C;NF 414;NF 514;NF 714;PS 143;HF 44;GS 1020;GPPS 200D;Ganzpearl GS 0459S6;GMNO 25;Chemisnow SX 350;HRM 40;Krasten 127/9001;UPS 825;PG 22 (vinyl polymer);Denka Thermo Sheet T 250;PSJ-GPPS 679;Trycite 8001;PG 22;Krasten 152;GN 085;EA 3400;G 757;DLX 219-45;Hival Prime 5108;D 833A;CC-PS 251N;XC 510A;Dicstyrene CX 515;Delaprism S;F 77;PSJ-G 8102;Sconapor F 238;GP 9S1;Dicstyrene EXP 0711;HRM 52;PSJ-Polystyrene G 9401;PSS Polystyrene;Immutex NF-PS;Bee-cell;XK 315;ST 311125;LGG 108;HH 679;160KH;HF 2660S;JPS-BX 970X;BX 970X;EA 3710;Taitarex GPPS 861N;HH 999;LG 240;LG 160;Foamular 250;PSJ-Polystyrene 680;Styroace II;CX 5229;VS 142;Thermopore;Solarene G 1160;Solarene G 1441;SGM 085;CN 5901;G 116;MC 3700;Solarene G 116;Sidaplax Polyflex 90;Sidaplax PF 90;Stairovit 106V;L 1550;GPPS 251;459F;M 7002;Polystyrol 459F;Tabriz 1160;CF 150;GPPS 123P;SE 2000;Tosoh F 4;Tosoh F 2;Tosoh F 1;A 5000;A 1000;A 500;Styropor F 415N;DunB;D 933B;PS 400;PS 29000;Polystyrol 9534574;PSV-SU;PSV-B;PS-R 0.35;KSR 3;Sunpor EPS-STD;Roofmate S;Roofmate Xenergy SL;PS 3500;Polystyrene 679;GPPS 680;Styron F 168;Roofmate SP-X;PS 80/30;Owispol 525;GPPS-P 9305;Edistir N 2982;Styrofoam LB;EPS 200;EPS-RF 33;Crystal Polystyrene 525B;Crystal Polystyrene 524B;GP 150K;Owipian 1325;Lacqren 4142;Empera 171M;Poly-Star HH 35;SC 206;BOPS 38;Krasten 174;Dynoseeds TS 40;LS 1221B;Dow 686;PS 680A;Kanepearl K-BS;Kanepearl SR 14;Eslen Beads HCH 2;PS 220;Styropor F 495;PS 523W;25SPI;HDMSF;Eslen Beads HDMA;Histyrene PS 65;CMPS 406ME;Styrofoam Floormate 200A;Floormate 200A;Toyo Styrol GP-G 100C;PS 500;Accurel XP 800;GP-HR 2390P00;GP-HF 2660;168M-KG2;GPPS-N 1841;GPPS-N 2560;M 168;Trycite 1003U;Toyo Styrol GP-RMS 26;Immutex G 0104;Empera 124N;PS 00400NS;GP 5250;Styron PS 685D;Empera 416N;Total 1050;HR 2660;HJM;Kanepearl NB 7;Kanepearl HJM;HR 59-40;Eslen Beads HJM;HR 2390P00;PS 685D;Nova 1660;Ineos 1600;GPPS 232;685K27-7;Americas Styrenics 610;Kaurit Light 200;PS 641;Polyrex PG 80N;GPPS 150;NMIJ-CRM 8110a;PS 3190;EPOR 20I;SEPS-N 20;Crystal PS 1300;GPPS-K 27;S 11;57057U;Styron 610;Denka Styrol QP 3;Vestyron J 110;H 260LB250;PS 585;PS 590;Empera 116L;5250A230;666H;165H;35046SE;Crystal Polystyrene 500B;Verex 1600;Modarez OS 197;Crystal 1340;GB/T 12671-2008;SE 2500;S 40;PS 1960N;Owipian FS 1325;Owipian FS 0308;GM;525N;K 710;PS 1540;Krasten 154;Empera 116N;PolyShrink;Ethylbenzene-styrene copolymer;SF 200;SB 130;Empera 251;PS 580;PS 990;Dow 678;GPPS 680A;Polystyrene 648;SF 200H;GX 154;PS 686;Toyo Styrol GP-MW 1C;Weber.therm Clima 032;Neo Super 100;PSS 550K;Synbra BioFoam;15SPE;EPS 452;Terrapor 4;Styron 680A;P 3954SNH2;PS 145D;Techpolymer XX 11AJ;YK 450;P 1432;ST 95;Styrophane;HRM 13N;412B;RW 3;PG 5250;BOPS G 38;Styrofoam LB-X;UV 148 (vinyl polymer);XS 4600;MI 750;Polystyrol 165H;Empera 146;Empera 153;Styropor 3035CS;PSB-S-M 50;EPS 7146;GPPS 123;Styrofoam FB-X;Compaxx 900X;PS 50KN;PSM 118;Dylite F 271T;Styrodia JQ 301N;Styrodia FMC 605;SBX 30;G 1160EP;GPPS 15NF;Woodlac;951F;PSC 529;L 447;L 257;HRM 52N;GPPS 1460;Tabriz 1460;HIE 1 (vinyl polymer);GX 251;HIE 1;PS 158K-Q4;158K-Q4;Bonset EPS 35;PS 185K;E 303;E 303 (vinyl polymer);Styron 648PC;Edistir 2982;GP 5000;Ganzpearl GS 1105M;MG 33 (vinyl polymer);MG 33;Goodfellow 261595;HT-EPS 800;HT-EPS 1000;PSJ-Polystyrene GPPS HF 77;XPS;158N;Kanepearl SBS;GPPS 500;Toyo Styrol GP-HRM 24N;GP 5500;HRM 24N;Polystyrene 1340;Bycolene 143E;PS 466F;668D;Lambdapor 753P;PS 3100;25HRE;Empera 116;HH 112;GPPS 535N;GPPS 1050;Toyo Styrol HRM 18;LP 6000;679K29;Toyo Styrol G 100C;MT 5D;SX-PS 130;Toyo Styrol HRM 12N;Dicstyrene LP 6000;P 8606S;EA 3130;Styrolution PS 153F;GPPS 3100;PS 585X;Dynoseeds TS 500;MW 2C;HDMF 2;Toyo Styrol HRM 12;Toyo Styrol GP-MW 2C;Longwang F-SB;GPPS 550;Eslen Beads HDMSF;CR 4500;GPPS 525N;Styron A-Tech 1180;Duke Standards A 4203;Duke Standards 4203A;Dicstyrene CR 2500;ST 316310;PS 954N;MS 0103;PS 116N/L;SPH 20;PS 30-300;PS 40-300;4440H;GPPS 165H;15NF;Vorproduct T 6772;GP 5350;Taitarex 861D;GPPS 1240;Bycolene 158K;Bycolene 165H;CX 5238;Hymer SB 150;PS 125;Cristal 1340;GPPS 1300;PS 1340;HP 100;Nova 3100;PS 954;HP 780;F 351;Toyo Styrol G 210;GPPS 1540;P 107091;PS 808;Taitarex GPPS 808;Styropor F 15E;Styrodur 5000CS;PS 124N/L;GPPS 158K;Synthos PS 585X;GP 585X;MC 3650;PS 325;Dicstyrene XC 315;Polystyrol 147F-GR21;Texicote 57-0058;P 8921S;Styrene-<em>N</em>,<em>N</em>,<em>N</em>′,<em>N</em>′-tetramethylethylenediamine copolymer;G 210;Styrodia JQ 200NX;Styrodia JK 505;GP 550;MWID;GP 125E;F 8805;YS Resin SX 100;SX 100;CR 2600;SKH 127;Kanepearl SG;PS 350;H 9125;BD 4039;PS 15;MH 6800-1;PS 15 (styrene polymer);Polystyrene LO;PS 158N;GPPS 500N;Styrofan SPH;Porene GP 150;9096U;HX 220;WE 68-284;Duomaster S 20;FB 1753;Styrolution 158N;Crystal Polystyrene 1160;Crystal 1160;PG 23;PS 148H;SAX 80;GS 430;HRM 52M;PH 879;SKU 441147;PS 416N;Styrolution PS 416N;OPS Film GMCO;N 1841H;GPPS-N 1841H;TreverChrom CHR-P 10/300;Oidys 25;HRM 26B;PS 2031-1;ST 313200;EPS 150S;EPS 70F;HP 600AJ;GPS 5000;S 168N;Toyo Styrol GP-G 210C;MR 63005K;PSJ-Polystyrene 475P;PSJ 475P;TSK-Gel F 20;PSJ-Polystyrene G 679K29;N 1921;Styrodur 2800C;PS 535B;Styrex EPS 1012RC;B 105;Eslen Beads FDK 40LV;PS 468N;GPPS 158N;GP 535N;MF 21-301;PS 100;Empera 350N;PS 100 (styrene polymer);535N;MW 1-301;CP 500;PS 126;SC 202EF;Polyflex 90;HP 433;Styron D 2;Styrofoam B 2;Styrofoam FG;S 30;Edistir N 3380;Robbex 515PH;Styron 643;P 107085;Styrolution 165N;Styrolution 124N;PS-FluoGreen 1.0;CRM 5701A;Stadex SC 0100D;Stadex SC 0110D;Norflex 50P;IPE-PST 30;Neopor F 5300;Dynoseeds TS 80;PS 536;P 627S;PS 281;PS 123;PS 663;PS 232;GPPS 121;GPPS 630A;Dow 630A;PT 250;GPPS 500W;Styrolution PS 485N;PS 485N;PS 158KQ;N 1941;GPPS 500NT;Techpolymer XX 01JH;Techpolymer XX 02JH;P 1-0800;GPPS 818K;GPS 525HF;PS-GP 137;PS 85F;Styropor KF 212;PS 350K;B 104;SKG 118;B 104 (styrene polymer);PS 500NM;A 300;Sabic PS 100;Toyo Styrol H 700;PS-A 500;PS-A 300;Styron 650HF and Styron 660;Styron 650HF;B 220MRN;Falcon 12;U 288;TF 4000;PKF 301XS;PKF 401XS;PKF 501XS;PS 2031;Tamiya 70127;EPS 391F;GPPS 680E;KD 9388A;PS-BS 190UD;PS-BS 793KP;PS-U 249;GPPS 208;PS 156F;GPPS 501;GPPS 666D;Edistir ICE 900;GPPS 1160;Ineos Nova 3900;Innova 4600;P 10486A-S;P 19073B-S;495N;NR 1200;383M;UV 1-4001;Neopor P 5200;Neopor F 2300;Neopor F 5200 Plus;L 1694;PS 400P;GPPS-SG 26;Styrovit 102D;PSJ-Polystyrene HF 777;25PSI;P 10447S;GPPS 1441;MS 200;PSJ-Polystyrene GPPS SGP 10;PSJ-Polystyrene SGP 10;MS 200 (polystyrene);SC 201LV;N 1291;Styron 6500;PS 1160;PS 200k;QG 7855;PG 80N;Styrolution PS 124N;PS 124N;5250GPPS;Toyo Styrol GP-G 201C;Crystal 1540;PS-GP 152;Dow 615D;MB 3150;HIPS 6351;N 8100 (polystyrene);N 8100;MAF 1113;PS 153 (polystyrene);PS 153;HRM 63;Edistir N 3982;76552-1EA;Edistir N 3840;PS 155;PS 1180;TY 855;PS 954C;PS 3010-01;TR 954;XX 284;XX 301;XX 306;Styrolution 156F;Styrolution PS 158N;SF 510;PS 576H;F 288;F 128 (polystyrene);F 128;Aclcom MED PS;WD 500E;GPPS 688B;GP 1050;GPPS 350;HP 825T;Styrofan GL;EPS 2211;IPS 1001;HIPS 1001;Sunpor EPS-SE;PS 5112;XS 4400W;LS 366130;Sunpor 778;MPC 2005;GPPS-QG 7535;G 120 (styrene polymer);G 120;Toyo Styrol HMT 1;Denka Styrol HRM 2S311;Denka Styrol MF 21-321;N 3982;HRM 2S311;MF 21-321;Styrolution 124L;GPPS-YN;GSP-NB;Toyo Styrol GP-HRM 61C;HI 450G;PS 5210;GPPS 550P;MFI 14;Tairirex GP 5000;MP 6250;GP 525N;GP 535A;Polystyrol 456M;GP 1070;Crystal Polystyrene 1810;PSC 1540;Doki 485;GP 150E;GPS 525N;450PG;XX 40IK;XB 301EPS;PSN-LN;IFS-K;PSMA 5210;ST 313120;PSJ-H 8672;R 027658;GPPS 1540A;MeSH ID: D011137;Styrolution 1600;Plastic Pigment 756A;LRHPS-BCWA 1134;PSB-S 25;Styrodia KF 2300;Styrodia FA 200;HIPS-AGI 02;Owispol 954E;GPPS 351;ST 685D;KD-GP;PCR-GPPS;T 301 (polystyrene);PS 1GER100;T 301;GB-T 10801-2021;Toyo Styrol HMT-PS;Kanepearl NSG-B;HFC 401;GS 25SPPE;PS 15V;Oidys CA-F 10;SM 0425;Toyo Styrol H 350;Toyo Styrol GP 200;HIPS-HT 478;HF 77-306;TY 635;Toyo Styrol HI-H 450K9-020;HMT 1 (polystyrene);EPS-GN 30;PST 100;PST 001UM;PST 010UM;PST 020UM;GP 110 (styrene polymer);SP 701PS;Ganzpearl GS 0605S;HP 835G;GPPS 1600;SEP 03T3;XX 6283Z;GS 0305;HS 21258;PS 5250;GPPS 152P;PSJ-Polystyrene HIPS-HT 478;HI 450PG;PS 679;NM-HT 200;Secco 85F;KM 5030;KBsphere 200PS;KBsphere 3PS;KBsphere 20P;PSJ Polystyrene HF 37-706",
    "duplicated_cas_no": "9044-64-8;9055-91-8;11120-46-0;12627-11-1;25038-60-2;39470-87-6;40494-15-3;51609-83-7;51609-87-1;52932-49-7;53112-49-5;53986-84-8;54578-24-4;54596-41-7;55128-06-8;55465-00-4;56451-72-0;56748-62-0;57657-06-4;58033-91-3;60120-16-3;60328-46-3;60880-98-0;61584-89-2;61584-90-5;63849-49-0;78354-47-9;81834-12-0;86090-91-7;98444-30-5;105270-05-1;110866-50-7;120037-99-2;120534-26-1;124229-31-8;124229-48-7;130243-06-0;131495-39-1;132827-43-1;137262-45-4;144637-93-4;149212-19-1;155197-45-8;157243-21-5;157929-02-7;161776-45-0;171022-02-9;171022-09-6;172641-48-4;172867-64-0;219782-52-2;260975-79-9;359762-95-1;360046-70-4;373601-20-8;441772-62-9;471865-10-8;487021-46-5;644984-36-1;666836-48-2;726192-11-6;730985-59-8;851588-70-0;852837-17-3;937162-73-7;1083095-63-9;1160710-79-1;1187742-34-2;1191987-17-3;1227265-55-5;1263545-74-9;1360862-30-1;1397706-69-2;1415127-06-8;1415263-61-4;1430218-84-0;1462855-56-6;1609008-94-7;1620621-58-0;1623021-11-3;1633667-53-4;1636918-11-0;1691258-69-1;1858177-20-4;1887074-77-2;1916433-35-6;2015955-53-8;2035446-93-4;2058269-38-6;2093331-60-1;2093331-64-5;2197947-17-2;2751703-37-2;2766186-63-2;2766186-66-5;2766186-70-1",
    "SMILES": "C(=C)C1=CC=CC=C1",
    "meta_data": {
        "InChI": "InChI=1S/C8H8/c1-2-8-6-4-3-5-7-8/h2-7H,1H2",
        "InChIKey": null,
        "Canonical SMILES": "C=CC=1C=CC=CC1",
        "Molecular Formula": "(C<sub>8</sub>H<sub>8</sub>)<sub>x</sub>",
        "Molecular Mass": "",
        "Boiling Point": "30-80 °C",
        "Melting Point": "240 °C",
        "Density": "1.04-1.13 g/cm³"
    }
}