{
    "cas_no": "456-24-6",
    "key_name": "2-Fluoro-5-nitropyridine",
    "cn_name": "2-氟-5-硝基吡啶;",
    "alternate_name": "Pyridine, 2-fluoro-5-nitro-;2-Fluoro-5-nitropyridine;NSC 26280",
    "duplicated_cas_no": "",
    "SMILES": "N(=O)(=O)C=1C=CC(F)=NC1",
    "meta_data": {
        "InChI": "InChI=1S/C5H3FN2O2/c6-5-2-1-4(3-7-5)8(9)10/h1-3H",
        "InChIKey": null,
        "Canonical SMILES": "O=N(=O)C1=CN=C(F)C=C1",
        "Molecular Formula": "C<sub>5</sub>H<sub>3</sub>FN<sub>2</sub>O<sub>2</sub>",
        "Molecular Mass": "142.09",
        "Boiling Point": "79-81 °C @ Press: 5-6 Torr",
        "Melting Point": "19-21 °C",
        "Density": "1.410 g/cm³ @ Temp: 23 °C"
    }
}