{
    "cas_no": "517-56-6",
    "key_name": "(+)-Corytuberine",
    "cn_name": null,
    "alternate_name": "4<em>H</em>-Dibenzo[<em>de</em>,<em>g</em>]quinoline-1,11-diol, 5,6,6a,7-tetrahydro-2,10-dimethoxy-6-methyl-, (6a<em>S</em>)-;6aα-Aporphine-1,11-diol, 2,10-dimethoxy-;Corytuberine;4<em>H</em>-Dibenzo[<em>de</em>,<em>g</em>]quinoline-1,11-diol, 5,6,6a,7-tetrahydro-2,10-dimethoxy-6-methyl-, (<em>S</em>)-;(6a<em>S</em>)-5,6,6a,7-Tetrahydro-2,10-dimethoxy-6-methyl-4<em>H</em>-dibenzo[<em>de</em>,<em>g</em>]quinoline-1,11-diol;1,11-Dihydroxy-2,10-dimethoxy-6aα-aporphine;2,10-Dimethoxy-6aα-aporphine-1,11-diol;(+)-Corytuberine;(<em>S</em>)-Corytuberine;(6AS)-2,10-dimethoxy-6-methyl-5,6,6a,7-tetrahydro-4<em>H</em>-dibenzo[<em>de</em>,<em>g</em>]quinoline-1,11-diol",
    "duplicated_cas_no": "",
    "SMILES": "OC1=C2C=3[C@](CC=4C2=C(O)C(OC)=CC4)(N(C)CCC3C=C1OC)[H]",
    "meta_data": {
        "InChI": "InChI=1S/C19H21NO4/c1-20-7-6-11-9-14(24-3)19(22)17-15(11)12(20)8-10-4-5-13(23-2)18(21)16(10)17/h4-5,9,12,21-22H,6-8H2,1-3H3/t12-/m0/s1",
        "InChIKey": null,
        "Canonical SMILES": "OC=1C(OC)=CC=C2C1C=3C(O)=C(OC)C=C4C3C(N(C)CC4)C2",
        "Molecular Formula": "C<sub>19</sub>H<sub>21</sub>NO<sub>4</sub>",
        "Molecular Mass": "327.37",
        "Melting Point": "245 °C"
    }
}