{
    "cas_no": "19006-82-7",
    "key_name": "6-Phenyl-2(1<em>H</em>)-pyridinone",
    "cn_name": "6-苯基-2-羟基吡啶酮;",
    "alternate_name": "2(1<em>H</em>)-Pyridinone, 6-phenyl-;2(1<em>H</em>)-Pyridone, 6-phenyl-;6-Phenyl-2(1<em>H</em>)-pyridinone;6-Phenyl-2-pyridinone;2-Hydroxy-6-phenylpyridine;6-Phenyl-2-pyridone;6-Phenylpyridin-2-ol",
    "duplicated_cas_no": "",
    "SMILES": "O=C1NC(=CC=C1)C2=CC=CC=C2",
    "meta_data": {
        "InChI": "InChI=1S/C11H9NO/c13-11-8-4-7-10(12-11)9-5-2-1-3-6-9/h1-8H,(H,12,13)",
        "InChIKey": null,
        "Canonical SMILES": "O=C1C=CC=C(N1)C=2C=CC=CC2",
        "Molecular Formula": "C<sub>11</sub>H<sub>9</sub>NO",
        "Molecular Mass": "171.20",
        "Melting Point": "195-196 °C"
    }
}