{
    "cas_no": "403-54-3",
    "key_name": "3-Fluorobenzonitrile",
    "cn_name": "3-氟苯腈;间氟苯腈;",
    "alternate_name": "Benzonitrile, 3-fluoro-;Benzonitrile, <em>m</em>-fluoro-;3-Fluorobenzonitrile;<em>m</em>-Fluorobenzonitrile;<em>m</em>-Cyanofluorobenzene;m-Fluorobenzonitrile;NSC 88310;3-Fluorobenzenenitrile",
    "duplicated_cas_no": "",
    "SMILES": "C(#N)C1=CC(F)=CC=C1",
    "meta_data": {
        "InChI": "InChI=1S/C7H4FN/c8-7-3-1-2-6(4-7)5-9/h1-4H",
        "InChIKey": null,
        "Canonical SMILES": "N#CC=1C=CC=C(F)C1",
        "Molecular Formula": "C<sub>7</sub>H<sub>4</sub>FN",
        "Molecular Mass": "121.11",
        "Boiling Point": "182.5 °C",
        "Melting Point": "-16 °C"
    }
}