{
    "cas_no": "578-68-7",
    "key_name": "4-Aminoquinoline",
    "cn_name": "4-氨基喹啉;",
    "alternate_name": "4-Quinolinamine;Quinoline, 4-amino-;4-Aminoquinoline;4-Quinolylamine",
    "duplicated_cas_no": "",
    "SMILES": "NC=1C2=C(N=CC1)C=CC=C2",
    "meta_data": {
        "InChI": "InChI=1S/C9H8N2/c10-8-5-6-11-9-4-2-1-3-7(8)9/h1-6H,(H2,10,11)",
        "InChIKey": null,
        "Canonical SMILES": "N=1C=CC(N)=C2C=CC=CC12",
        "Molecular Formula": "C<sub>9</sub>H<sub>8</sub>N<sub>2</sub>",
        "Molecular Mass": "144.17",
        "Boiling Point": "180 °C",
        "Melting Point": "154.8 °C"
    }
}