{
    "cas_no": "120-20-7",
    "key_name": "3,4-Dimethoxyphenethylamine",
    "cn_name": "3,4-二甲氧基苯乙胺;",
    "alternate_name": "Benzeneethanamine, 3,4-dimethoxy-;Phenethylamine, 3,4-dimethoxy-;3,4-Dimethoxybenzeneethanamine;3,4-Di-<em>O</em>-methyldopamine;β-(3,4-Dimethoxyphenyl)ethylamine;3,4-Dimethoxy-β-phenylethylamine;DIMPEA;DMPE;DMPEA;Homoveratrylamine;2-(3,4-Dimethoxyphenyl)ethylamine;3,4-Dimethoxyphenethylamine;Dopamine dimethyl ether;<em>O</em>,<em>O</em>-Dimethyldopamine;2-(3,4-Dimethoxyphenyl)ethanamine;NSC 16948;NSC 26152;NSC 6328;2-(3,4-Dimethoxyphenyl)-1-aminoethane;2-(3,4-Dimethoxyphenyl)ethan-1-amine;2-(3,4-Dimethoxyphenyl)ethaneamine",
    "duplicated_cas_no": "",
    "SMILES": "O(C)C1=C(OC)C=CC(CCN)=C1",
    "meta_data": {
        "InChI": "InChI=1S/C10H15NO2/c1-12-9-4-3-8(5-6-11)7-10(9)13-2/h3-4,7H,5-6,11H2,1-2H3",
        "InChIKey": null,
        "Canonical SMILES": "O(C1=CC=C(C=C1OC)CCN)C",
        "Molecular Formula": "C<sub>10</sub>H<sub>15</sub>NO<sub>2</sub>",
        "Molecular Mass": "181.23",
        "Boiling Point": "188 °C @ Press: 15 Torr",
        "Melting Point": "124 °C"
    }
}