{
    "cas_no": "636-61-3",
    "key_name": "<span class=\"text-smallcaps\">D</span>-Malic acid",
    "cn_name": "D-(+)-苹果酸;(R)-羟基丁二酸;",
    "alternate_name": "Butanedioic acid, 2-hydroxy-, (2<em>R</em>)-;Malic acid, <span class=\"text-smallcaps\">D</span>-;Butanedioic acid, hydroxy-, (<em>R</em>)-;Butanedioic acid, hydroxy-, (2<em>R</em>)-;(2<em>R</em>)-2-Hydroxybutanedioic acid;<span class=\"text-smallcaps\">D</span>-Malic acid;(+)-Malic acid;<span class=\"text-smallcaps\">D</span>-(+)-Malic acid;(<em>R</em>)-(+)-Malic acid;(<em>R</em>)-Malic acid;(2<em>R</em>)-Malic acid;<span class=\"text-smallcaps\">D</span>-(+)-2-Hydroxysuccinic acid;(<em>R</em>)-2-Hydroxysuccinic acid;(R)-Malic acid;(2R)-2-Hydroxysuccinic acid;(R)-2-Hydroxysuccinate;(2R)-2-Hydroxybutanedioic acid;(R)-2-Hydroxysuccinic acid",
    "duplicated_cas_no": "15856-21-0;1245537-07-8",
    "SMILES": "[C@@H](CC(O)=O)(C(O)=O)O",
    "meta_data": {
        "InChI": "InChI=1S/C4H6O5/c5-2(4(8)9)1-3(6)7/h2,5H,1H2,(H,6,7)(H,8,9)/t2-/m1/s1",
        "InChIKey": null,
        "Canonical SMILES": "O=C(O)CC(O)C(=O)O",
        "Molecular Formula": "C<sub>4</sub>H<sub>6</sub>O<sub>5</sub>",
        "Molecular Mass": "134.09",
        "Melting Point": "98-100 °C"
    }
}