{
    "cas_no": "591-19-5",
    "key_name": "3-Bromoaniline",
    "cn_name": "间溴苯胺;3-溴苯胺;",
    "alternate_name": "Benzenamine, 3-bromo-;Aniline, <em>m</em>-bromo-;3-Bromobenzenamine;<em>m</em>-Aminobromobenzene;<em>m</em>-Bromoaniline;3-Bromoaniline;1-Amino-3-bromobenzene;3-Amino-1-bromobenzene;m-Aminobromobenzene;m-Bromoaniline;(<em>m</em>-Bromophenyl)amine;(3-Bromophenyl)amine;NSC 10298",
    "duplicated_cas_no": "",
    "SMILES": "BrC1=CC(N)=CC=C1",
    "meta_data": {
        "InChI": "InChI=1S/C6H6BrN/c7-5-2-1-3-6(8)4-5/h1-4H,8H2",
        "InChIKey": null,
        "Canonical SMILES": "BrC1=CC=CC(N)=C1",
        "Molecular Formula": "C<sub>6</sub>H<sub>6</sub>BrN",
        "Molecular Mass": "172.02",
        "Boiling Point": "251 °C",
        "Melting Point": "18.5 °C",
        "Density": "1.58 g/cm³"
    }
}