{
    "cas_no": "93-19-6",
    "key_name": "2-Isobutylquinoline",
    "cn_name": null,
    "alternate_name": "Quinoline, 2-(2-methylpropyl)-;Quinoline, 2-isobutyl-;2-(2-Methylpropyl)quinoline;2-Isobutylquinoline",
    "duplicated_cas_no": "",
    "SMILES": "C(C(C)C)C1=NC2=C(C=C1)C=CC=C2",
    "meta_data": {
        "InChI": "InChI=1S/C13H15N/c1-10(2)9-12-8-7-11-5-3-4-6-13(11)14-12/h3-8,10H,9H2,1-2H3",
        "InChIKey": null,
        "Canonical SMILES": "N=1C=2C=CC=CC2C=CC1CC(C)C",
        "Molecular Formula": "C<sub>13</sub>H<sub>15</sub>N",
        "Molecular Mass": "185.26",
        "Boiling Point": "157 °C @ Press: 22 Torr"
    }
}