{
    "cas_no": "110-02-1",
    "key_name": "Thiophene",
    "cn_name": "噻吩;硫杂茂;硫代呋喃;",
    "alternate_name": "Thiophene;Divinylene sulfide;Thiofurfuran;Thiole;Thiotetrole;Furan, thio-;Thiacyclopentadiene;Thiaphene;Thiofuran;Huile H50;Huile HSO;Thiophen;CP 34;NSC 405073",
    "duplicated_cas_no": "8014-23-1",
    "SMILES": "C=1C=CSC1",
    "meta_data": {
        "InChI": "InChI=1S/C4H4S/c1-2-4-5-3-1/h1-4H",
        "InChIKey": null,
        "Canonical SMILES": "S1C=CC=C1",
        "Molecular Formula": "C<sub>4</sub>H<sub>4</sub>S",
        "Molecular Mass": "84.14",
        "Boiling Point": "84.0 °C @ Press: 760 Torr",
        "Melting Point": "-39.4 °C",
        "Density": "1.06494 g/cm³ @ Temp: 20 °C"
    }
}