{
    "cas_no": "10364-94-0",
    "key_name": "1<em>H</em>-Imidazol-1-ylphenylmethanone",
    "cn_name": "N-苯甲酰咪唑;",
    "alternate_name": "Methanone, 1<em>H</em>-imidazol-1-ylphenyl-;Imidazole, 1-benzoyl-;1<em>H</em>-Imidazole, 1-benzoyl-;1<em>H</em>-Imidazol-1-ylphenylmethanone;<em>N</em>-Benzoylimidazole;1-Benzoylimidazole;1-Benzoyl-1<em>H</em>-imidazole",
    "duplicated_cas_no": "",
    "SMILES": "C(=O)(N1C=CN=C1)C2=CC=CC=C2",
    "meta_data": {
        "InChI": "InChI=1S/C10H8N2O/c13-10(12-7-6-11-8-12)9-4-2-1-3-5-9/h1-8H",
        "InChIKey": null,
        "Canonical SMILES": "O=C(C=1C=CC=CC1)N2C=NC=C2",
        "Molecular Formula": "C<sub>10</sub>H<sub>8</sub>N<sub>2</sub>O",
        "Molecular Mass": "172.18",
        "Melting Point": "19-20 °C"
    }
}