{
    "cas_no": "7390-81-0",
    "key_name": "1,2-Epoxyoctadecane",
    "cn_name": "1,2-环氧十八烷;十六烷基环氧乙烷;",
    "alternate_name": "Oxirane, 2-hexadecyl-;Octadecane, 1,2-epoxy-;Oxirane, hexadecyl-;2-Hexadecyloxirane;1,2-Epoxyoctadecane;Octadecylene oxide;1,2-Octadecylene oxide;1,2-Octadecene epoxide;Hexadecyloxirane;Vikolox 18;Epoxide C 18;Vilolox C<sub>16</sub>;1,2-Octadecene oxide",
    "duplicated_cas_no": "165323-66-0",
    "SMILES": "C(CCCCCCCCCCCCCCC)C1CO1",
    "meta_data": {
        "InChI": "InChI=1S/C18H36O/c1-2-3-4-5-6-7-8-9-10-11-12-13-14-15-16-18-17-19-18/h18H,2-17H2,1H3",
        "InChIKey": null,
        "Canonical SMILES": "O1CC1CCCCCCCCCCCCCCCC",
        "Molecular Formula": "C<sub>18</sub>H<sub>36</sub>O",
        "Molecular Mass": "268.48",
        "Boiling Point": "137 °C @ Press: 0.5 Torr"
    }
}