{
    "cas_no": "16856-13-6",
    "key_name": "<span class=\"text-smallcaps\">L</span>-Aspartic acid, 4-methyl ester, hydrochloride (1:1)",
    "cn_name": "L-天冬氨酸-beta-甲酯盐酸盐;",
    "alternate_name": "<span class=\"text-smallcaps\">L</span>-Aspartic acid, 4-methyl ester, hydrochloride (1:1);<span class=\"text-smallcaps\">L</span>-Aspartic acid, 4-methyl ester, hydrochloride;Aspartic acid, 4-methyl ester, hydrochloride, <span class=\"text-smallcaps\">L</span>-;<span class=\"text-smallcaps\">L</span>-Aspartic acid β-methyl ester hydrochloride;β-Methyl <span class=\"text-smallcaps\">L</span>-aspartate hydrochloride;(<em>S</em>)-2-Amino-4-methoxy-4-oxobutanoic acid hydrochloride",
    "duplicated_cas_no": "",
    "SMILES": "C([C@@H](C(O)=O)N)C(OC)=O.Cl",
    "meta_data": {
        "InChI": "InChI=1S/C5H9NO4.ClH/c1-10-4(7)2-3(6)5(8)9;/h3H,2,6H2,1H3,(H,8,9);1H/t3-;/m0./s1",
        "InChIKey": null,
        "Canonical SMILES": "Cl.O=C(OC)CC(N)C(=O)O",
        "Molecular Formula": "C<sub>5</sub>H<sub>9</sub>NO<sub>4</sub>.ClH",
        "Molecular Mass": "",
        "Melting Point": "190 °C"
    }
}