{
    "cas_no": "1436-43-7",
    "key_name": "2-Quinolinecarbonitrile",
    "cn_name": "喹啉-2-甲腈;2-氰基喹啉;",
    "alternate_name": "2-Quinolinecarbonitrile;Quinaldonitrile;2-Cyanoquinoline;Quinoline-2-nitrile",
    "duplicated_cas_no": "",
    "SMILES": "C(#N)C1=NC2=C(C=C1)C=CC=C2",
    "meta_data": {
        "InChI": "InChI=1S/C10H6N2/c11-7-9-6-5-8-3-1-2-4-10(8)12-9/h1-6H",
        "InChIKey": null,
        "Canonical SMILES": "N#CC=1N=C2C=CC=CC2=CC1",
        "Molecular Formula": "C<sub>10</sub>H<sub>6</sub>N<sub>2</sub>",
        "Molecular Mass": "154.17",
        "Boiling Point": "160 °C",
        "Melting Point": "95 °C"
    }
}