{
    "cas_no": "106-20-7",
    "key_name": "Bis(2-ethylhexyl)amine",
    "cn_name": "二异辛胺;二(2-乙基己基)胺;",
    "alternate_name": "1-Hexanamine, 2-ethyl-<em>N</em>-(2-ethylhexyl)-;Dihexylamine, 2,2′-diethyl-;2-Ethyl-<em>N</em>-(2-ethylhexyl)-1-hexanamine;Di(2-ethylhexyl)amine;Bis(2-ethylhexyl)amine;2,2′-Diethyldihexylamine;NSC 5329;<em>N</em>,<em>N</em>-Bis(2-ethylhexyl)amine;<em>N</em>,<em>N</em>-Di(2-ethylhexyl)amine",
    "duplicated_cas_no": "102095-26-1",
    "SMILES": "C(CNCC(CCCC)CC)(CCCC)CC",
    "meta_data": {
        "InChI": "InChI=1S/C16H35N/c1-5-9-11-15(7-3)13-17-14-16(8-4)12-10-6-2/h15-17H,5-14H2,1-4H3",
        "InChIKey": null,
        "Canonical SMILES": "N(CC(CC)CCCC)CC(CC)CCCC",
        "Molecular Formula": "C<sub>16</sub>H<sub>35</sub>N",
        "Molecular Mass": "241.46",
        "Boiling Point": "126 °C @ Press: 4.0 Torr"
    }
}