{
    "cas_no": "620-17-7",
    "key_name": "3-Ethylphenol",
    "cn_name": "3-乙基苯酚;间乙基苯酚;",
    "alternate_name": "Phenol, 3-ethyl-;Phenol, <em>m</em>-ethyl-;3-Ethylphenol;<em>m</em>-Ethylphenol;1-Ethyl-3-hydroxybenzene;<em>m</em>-Hydroxyethylbenzene;NSC 8873",
    "duplicated_cas_no": "",
    "SMILES": "C(C)C1=CC(O)=CC=C1",
    "meta_data": {
        "InChI": "InChI=1S/C8H10O/c1-2-7-4-3-5-8(9)6-7/h3-6,9H,2H2,1H3",
        "InChIKey": null,
        "Canonical SMILES": "OC1=CC=CC(=C1)CC",
        "Molecular Formula": "C<sub>8</sub>H<sub>10</sub>O",
        "Molecular Mass": "122.16",
        "Boiling Point": "218.4 °C @ Press: 760 Torr",
        "Melting Point": "-4 °C",
        "Density": "1.0283 g/cm³ @ Temp: 20 °C"
    }
}