{
    "cas_no": "1122-60-7",
    "key_name": "Nitrocyclohexane",
    "cn_name": null,
    "alternate_name": "Cyclohexane, nitro-;Nitrocyclohexane;NSC 66277",
    "duplicated_cas_no": "",
    "SMILES": "N(=O)(=O)C1CCCCC1",
    "meta_data": {
        "InChI": "InChI=1S/C6H11NO2/c8-7(9)6-4-2-1-3-5-6/h6H,1-5H2",
        "InChIKey": null,
        "Canonical SMILES": "O=N(=O)C1CCCCC1",
        "Molecular Formula": "C<sub>6</sub>H<sub>11</sub>NO<sub>2</sub>",
        "Molecular Mass": "129.16",
        "Boiling Point": "205.5 °C @ Press: 768 Torr",
        "Melting Point": "-34 °C",
        "Density": "1.0610 g/cm³ @ Temp: 20 °C"
    }
}