{
    "cas_no": "22089-22-1",
    "key_name": "Trofosfamide",
    "cn_name": null,
    "alternate_name": "2<em>H</em>-1,3,2-Oxazaphosphorin-2-amine, <em>N</em>,<em>N</em>,3-tris(2-chloroethyl)tetrahydro-, 2-oxide;2<em>H</em>-1,3,2-Oxazaphosphorine, 2-[bis(2-chloroethyl)amino]-3-(2-chloroethyl)tetrahydro-, 2-oxide;Trophosphamide;Trofosfamide;NSC 109723;Trilophosphamide;Trisfosfamide;Trifosfamide;Trofosfamid;Ixoten;3-(2-Chloroethyl)-2-[bis(2-chloroethyl)amino]tetrahydro-2<em>H</em>-1,3,2-oxazaphosphorine 2-oxide;Asta Z 4828;Trilofosfamida;Trophosphamid;Triphosphamide;Z 4828",
    "duplicated_cas_no": "39471-04-0;63228-86-4",
    "SMILES": "N(CCCl)(CCCl)P1(=O)N(CCCl)CCCO1",
    "meta_data": {
        "InChI": "InChI=1S/C9H18Cl3N2O2P/c10-2-6-13-5-1-9-16-17(13,15)14(7-3-11)8-4-12/h1-9H2",
        "InChIKey": null,
        "Canonical SMILES": "O=P1(OCCCN1CCCl)N(CCCl)CCCl",
        "Molecular Formula": "C<sub>9</sub>H<sub>18</sub>Cl<sub>3</sub>N<sub>2</sub>O<sub>2</sub>P",
        "Molecular Mass": "323.58",
        "Melting Point": "50.5 °C"
    }
}