{
    "cas_no": "88312-64-5",
    "key_name": "Methyl 2-amino-5-nitro-3-pyridinecarboxylate",
    "cn_name": null,
    "alternate_name": "3-Pyridinecarboxylic acid, 2-amino-5-nitro-, methyl ester;Methyl 2-amino-5-nitro-3-pyridinecarboxylate;2-Amino-3-(methoxycarbonyl)-5-nitropyridine",
    "duplicated_cas_no": "",
    "SMILES": "C(OC)(=O)C=1C=C(N(=O)=O)C=NC1N",
    "meta_data": {
        "InChI": "InChI=1S/C7H7N3O4/c1-14-7(11)5-2-4(10(12)13)3-9-6(5)8/h2-3H,1H3,(H2,8,9)",
        "InChIKey": null,
        "Canonical SMILES": "O=C(OC)C1=CC(=CN=C1N)N(=O)=O",
        "Molecular Formula": "C<sub>7</sub>H<sub>7</sub>N<sub>3</sub>O<sub>4</sub>",
        "Molecular Mass": "197.15",
        "Melting Point": "199-200 °C"
    }
}