{
    "cas_no": "3079-30-9",
    "key_name": "Dodecyl methyl sulfoxide",
    "cn_name": "十二烷基甲基亚砜;",
    "alternate_name": "Dodecane, 1-(methylsulfinyl)-;Sulfoxide, dodecyl methyl;1-(Methylsulfinyl)dodecane;Methyl <em>n</em>-dodecyl sulfoxide;Dodecyl methyl sulfoxide;Methyl lauryl sulfoxide;Methyl dodecyl sulfoxide;<em>n</em>-Dodecyl methyl sulfoxide",
    "duplicated_cas_no": "158895-99-9",
    "SMILES": "C(CCCCCCCCC)CCS(C)=O",
    "meta_data": {
        "InChI": "InChI=1S/C13H28OS/c1-3-4-5-6-7-8-9-10-11-12-13-15(2)14/h3-13H2,1-2H3",
        "InChIKey": null,
        "Canonical SMILES": "O=S(C)CCCCCCCCCCCC",
        "Molecular Formula": "C<sub>13</sub>H<sub>28</sub>OS",
        "Molecular Mass": "232.43",
        "Melting Point": "64 °C"
    }
}