{
    "cas_no": "7391-69-7",
    "key_name": "5-(1-Methylethyl)-2,4,6(1<em>H</em>,3<em>H</em>,5<em>H</em>)-pyrimidinetrione",
    "cn_name": "5-异丙基巴比土酸;",
    "alternate_name": "2,4,6(1<em>H</em>,3<em>H</em>,5<em>H</em>)-Pyrimidinetrione, 5-(1-methylethyl)-;Barbituric acid, 5-isopropyl-;5-(1-Methylethyl)-2,4,6(1<em>H</em>,3<em>H</em>,5<em>H</em>)-pyrimidinetrione;5-Isopropylbarbituric acid",
    "duplicated_cas_no": "1850-95-9;1221747-22-3",
    "SMILES": "C(C)(C)C1C(=O)NC(=O)NC1=O",
    "meta_data": {
        "InChI": "InChI=1S/C7H10N2O3/c1-3(2)4-5(10)8-7(12)9-6(4)11/h3-4H,1-2H3,(H2,8,9,10,11,12)",
        "InChIKey": null,
        "Canonical SMILES": "O=C1NC(=O)C(C(=O)N1)C(C)C",
        "Molecular Formula": "C<sub>7</sub>H<sub>10</sub>N<sub>2</sub>O<sub>3</sub>",
        "Molecular Mass": "170.17",
        "Melting Point": "212-213 °C"
    }
}