{
    "cas_no": "100-20-9",
    "key_name": "Terephthaloyl chloride",
    "cn_name": "对苯二甲酰氯;",
    "alternate_name": "1,4-Benzenedicarbonyl dichloride;Terephthaloyl chloride;Terephthaloyl dichloride;<em>p</em>-Phthaloyl chloride;Terephthalic acid dichloride;<em>p</em>-Phthaloyl dichloride;Terephthalic acid chloride;Terephthalic dichloride;<em>p</em>-Phenylenedicarbonyl dichloride;1,4-Benzenedicarbonyl chloride;Benzene 1,4-dicarboxylic acid dichloride;1,4-Bis(chlorocarbonyl)benzene;1,4-Di(chlorocarbonyl)benzene;NSC 41885",
    "duplicated_cas_no": "106158-15-0;108454-76-8;188665-55-6;1640987-72-9;1927884-58-9",
    "SMILES": "C(Cl)(=O)C1=CC=C(C(Cl)=O)C=C1",
    "meta_data": {
        "InChI": "InChI=1S/C8H4Cl2O2/c9-7(11)5-1-2-6(4-3-5)8(10)12/h1-4H",
        "InChIKey": null,
        "Canonical SMILES": "O=C(Cl)C1=CC=C(C=C1)C(=O)Cl",
        "Molecular Formula": "C<sub>8</sub>H<sub>4</sub>Cl<sub>2</sub>O<sub>2</sub>",
        "Molecular Mass": "203.02",
        "Boiling Point": "259 °C",
        "Melting Point": "82-84 °C"
    }
}