{
    "cas_no": "3189-22-8",
    "key_name": "7-Methoxyindole",
    "cn_name": "7-甲氧基吲哚;",
    "alternate_name": "1<em>H</em>-Indole, 7-methoxy-;Indole, 7-methoxy-;7-Methoxy-1<em>H</em>-indole;7-Methoxyindole;NSC 100739;7-(Methyloxy)-1<em>H</em>-indole",
    "duplicated_cas_no": "",
    "SMILES": "O(C)C1=C2C(C=CN2)=CC=C1",
    "meta_data": {
        "InChI": "InChI=1S/C9H9NO/c1-11-8-4-2-3-7-5-6-10-9(7)8/h2-6,10H,1H3",
        "InChIKey": null,
        "Canonical SMILES": "O(C1=CC=CC=2C=CNC12)C",
        "Molecular Formula": "C<sub>9</sub>H<sub>9</sub>NO",
        "Molecular Mass": "147.17",
        "Boiling Point": "157 °C @ Press: 17 Torr"
    }
}