{
    "cas_no": "7753-60-8",
    "key_name": "Anecortave",
    "cn_name": "17&alpha;-羟基孕甾-4,9(11)-二烯-3,20-二酮-21-醋酸酯;孕甾-4,9(11)-二烯-17&alpha;,21-二醇-3,20-二酮21-;",
    "alternate_name": "Pregna-4,9(11)-diene-3,20-dione, 21-(acetyloxy)-17-hydroxy-;Pregna-4,9(11)-diene-3,20-dione, 17,21-dihydroxy-, 21-acetate;21-(Acetyloxy)-17-hydroxypregna-4,9(11)-diene-3,20-dione;21-Acetoxypregna-4,9(11)-dien-17α-ol-3,20-dione;Al 3789;Anecortave acetate;Anecortave;NSC 15475;NSC 24345;Retaane;2-((10S,13S,17R)-17-Hydroxy-10,13-dimethyl-3-oxo-2,3,6,7,8,10,12,13,14,15,16,17-dodecahydro-1<em>H</em>-cyclopenta[<em>a</em>]phenanthren-17-yl)-2-oxoethyl acetate",
    "duplicated_cas_no": "2488831-60-1",
    "SMILES": "C[C@@]12[C@]([C@]3(C([C@]4(C)C(CC3)=CC(=O)CC4)=CC1)[H])(CC[C@@]2(C(COC(C)=O)=O)O)[H]",
    "meta_data": {
        "InChI": "InChI=1S/C23H30O5/c1-14(24)28-13-20(26)23(27)11-8-19-17-5-4-15-12-16(25)6-9-21(15,2)18(17)7-10-22(19,23)3/h7,12,17,19,27H,4-6,8-11,13H2,1-3H3/t17-,19+,21+,22+,23+/m1/s1",
        "InChIKey": null,
        "Canonical SMILES": "O=C(OCC(=O)C1(O)CCC2C3C(=CCC21C)C4(C(=CC(=O)CC4)CC3)C)C",
        "Molecular Formula": "C<sub>23</sub>H<sub>30</sub>O<sub>5</sub>",
        "Molecular Mass": "386.48",
        "Melting Point": "231.5-234.5 °C"
    }
}