{
    "cas_no": "55877-79-7",
    "key_name": "5-Chloro-2-methoxybenzonitrile",
    "cn_name": null,
    "alternate_name": "Benzonitrile, 5-chloro-2-methoxy-;<em>o</em>-Anisonitrile, 5-chloro-;5-Chloro-2-methoxybenzonitrile;4-Chloro-2-cyanoanisole;2-Methoxy-5-chlorobenzonitrile",
    "duplicated_cas_no": "",
    "SMILES": "O(C)C1=C(C#N)C=C(Cl)C=C1",
    "meta_data": {
        "InChI": "InChI=1S/C8H6ClNO/c1-11-8-3-2-7(9)4-6(8)5-10/h2-4H,1H3",
        "InChIKey": null,
        "Canonical SMILES": "N#CC1=CC(Cl)=CC=C1OC",
        "Molecular Formula": "C<sub>8</sub>H<sub>6</sub>ClNO",
        "Molecular Mass": "167.59",
        "Melting Point": "99 °C"
    }
}