{
    "cas_no": "32857-62-8",
    "key_name": "4-(Trifluoromethyl)benzeneacetic acid",
    "cn_name": "4-三氟甲基苯乙酸;对三氟甲基苯乙酸;",
    "alternate_name": "Benzeneacetic acid, 4-(trifluoromethyl)-;Acetic acid, (α,α,α-trifluoro-<em>p</em>-tolyl)-;4-(Trifluoromethyl)benzeneacetic acid;(α,α,α-Trifluoro-<em>p</em>-tolyl)acetic acid;<em>p</em>-(Trifluoromethyl)phenylacetic acid;2-(4-Trifluoromethylphenyl)acetic acid",
    "duplicated_cas_no": "",
    "SMILES": "C(F)(F)(F)C1=CC=C(CC(O)=O)C=C1",
    "meta_data": {
        "InChI": "InChI=1S/C9H7F3O2/c10-9(11,12)7-3-1-6(2-4-7)5-8(13)14/h1-4H,5H2,(H,13,14)",
        "InChIKey": null,
        "Canonical SMILES": "O=C(O)CC1=CC=C(C=C1)C(F)(F)F",
        "Molecular Formula": "C<sub>9</sub>H<sub>7</sub>F<sub>3</sub>O<sub>2</sub>",
        "Molecular Mass": "204.15",
        "Melting Point": "83-85 °C"
    }
}