{
    "cas_no": "142-64-3",
    "key_name": "Piperazine, hydrochloride (1:2)",
    "cn_name": "哌嗪二盐酸盐;盐酸哌嗪;哌嗪二盐酸盐单水合物;",
    "alternate_name": "Piperazine, hydrochloride (1:2);Piperazine, dihydrochloride;Diethylenediamine dihydrochloride;Dihydro Pip Wormer;Dowzene DHC;Piperazine hydrochloride;Piperazine wormer premix;Piperazinium dichloride;Ascarex D",
    "duplicated_cas_no": "8049-00-1",
    "SMILES": "C1CNCCN1.Cl",
    "meta_data": {
        "InChI": "InChI=1S/C4H10N2.2ClH/c1-2-6-4-3-5-1;;/h5-6H,1-4H2;2*1H",
        "InChIKey": null,
        "Canonical SMILES": "Cl.N1CCNCC1",
        "Molecular Formula": "C<sub>4</sub>H<sub>10</sub>N<sub>2</sub>.2ClH",
        "Molecular Mass": "",
        "Melting Point": "310 °C"
    }
}