{
    "cas_no": "14901-07-6",
    "key_name": "4-(2,6,6-Trimethyl-1-cyclohexen-1-yl)-3-buten-2-one",
    "cn_name": "beta-紫罗兰酮;乙位紫罗兰酮;4-(2,6,6-三甲基-1-环己烯基)-3-丁烯-2-酮;",
    "alternate_name": "3-Buten-2-one, 4-(2,6,6-trimethyl-1-cyclohexen-1-yl)-;4-(2,6,6-Trimethyl-1-cyclohexen-1-yl)-3-buten-2-one;4-(2,6,6-Trimethyl-1-cyclohexenyl)-3-buten-2-one;NSC 402758;NSC 46137",
    "duplicated_cas_no": "",
    "SMILES": "C(=CC(C)=O)C=1C(C)(C)CCCC1C",
    "meta_data": {
        "InChI": "InChI=1S/C13H20O/c1-10-6-5-9-13(3,4)12(10)8-7-11(2)14/h7-8H,5-6,9H2,1-4H3",
        "InChIKey": null,
        "Canonical SMILES": "O=C(C=CC1=C(C)CCCC1(C)C)C",
        "Molecular Formula": "C<sub>13</sub>H<sub>20</sub>O",
        "Molecular Mass": "192.30",
        "Boiling Point": "127 °C",
        "Melting Point": "&lt;25 °C"
    }
}