{
    "cas_no": "75-45-6",
    "key_name": "Chlorodifluoromethane",
    "cn_name": "一氯二氟甲烷;二氟氯甲烷;氟利昂22;",
    "alternate_name": "Methane, chlorodifluoro-;Chlorodifluoromethane;Ucon 22;Algofrene 6;Arcton 4;Difluorochloromethane;Electro-CF 22;Freon 22;Frigen 22;Genetron 22;Isotron 22;Monochlorodifluoromethane;R 22;Difluoromonochloromethane;Algeon 22;FC 22;Khladon 22;Daiflon 22;Dymel 22;Arcton 22;Flugene 22;Isceon 22;Haltron 22;Forane 22;Algofrene 22;Propellant 22;Refrigerant 22;CFC 22;Fron 22;FKW 22;Refrigerant R 22;HCFC 22;F 22 (halocarbon);HFA 22;Solkane 22;Halon 22;FC 22 (halocarbon);Korfron 22;Difluoromethyl chloride;Freon R 22",
    "duplicated_cas_no": "134191-96-1;73666-77-0;191542-01-5",
    "SMILES": "C(Cl)(F)F",
    "meta_data": {
        "InChI": "InChI=1S/CHClF2/c2-1(3)4/h1H",
        "InChIKey": null,
        "Canonical SMILES": "FC(F)Cl",
        "Molecular Formula": "CHClF<sub>2</sub>",
        "Molecular Mass": "86.47",
        "Boiling Point": "-40.8 °C @ Press: 760 Torr",
        "Melting Point": "-157.4 °C",
        "Density": "1.194 g/cm³ @ Temp: 25 °C"
    }
}