{
    "cas_no": "24221-86-1",
    "key_name": "(+)-Ephedrine hydrochloride",
    "cn_name": null,
    "alternate_name": "Benzenemethanol, α-[(1<em>R</em>)-1-(methylamino)ethyl]-, hydrochloride (1:1), (α<em>S</em>)-;Ephedrine, hydrochloride, (+)-;Benzenemethanol, α-[1-(methylamino)ethyl]-, hydrochloride, [<em>S</em>-(<em>R</em>*,<em>S</em>*)]-;Benzenemethanol, α-[(1<em>R</em>)-1-(methylamino)ethyl]-, hydrochloride, (α<em>S</em>)-;<span class=\"text-smallcaps\">D</span>-(+)-Ephedrine hydrochloride;<em>d</em>-Ephedrine hydrochloride;(+)-Ephedrine hydrochloride;(1<em>S</em>,2<em>R</em>)-(+)-2-(Methylamino)-1-phenylpropan-1-ol hydrochloride;CPDD 0048;(1<em>S</em>,2<em>R</em>)-(+)-Ephedrine hydrochloride;(1<em>S</em>,2<em>R</em>)-Ephedrine hydrochloride;(1S,2R)-(+)-Ephedrine hydrochloride;(1<em>S</em>,2<em>R</em>)-(+)-Ephedrinium hydrochloride;(+)-(1<em>S</em>,2<em>R</em>)-Ephedrine hydrochloride",
    "duplicated_cas_no": "",
    "SMILES": "[C@H]([C@H](NC)C)(O)C1=CC=CC=C1.Cl",
    "meta_data": {
        "InChI": "InChI=1S/C10H15NO.ClH/c1-8(11-2)10(12)9-6-4-3-5-7-9;/h3-8,10-12H,1-2H3;1H/t8-,10-;/m1./s1",
        "InChIKey": null,
        "Canonical SMILES": "Cl.OC(C=1C=CC=CC1)C(NC)C",
        "Molecular Formula": "C<sub>10</sub>H<sub>15</sub>NO.ClH",
        "Molecular Mass": "",
        "Melting Point": "181-182 °C"
    }
}