{
    "cas_no": "3796-24-5",
    "key_name": "4-(Trifluoromethyl)pyridine",
    "cn_name": "4-三氟甲基吡啶;",
    "alternate_name": "Pyridine, 4-(trifluoromethyl)-;4-(Trifluoromethyl)pyridine",
    "duplicated_cas_no": "",
    "SMILES": "C(F)(F)(F)C=1C=CN=CC1",
    "meta_data": {
        "InChI": "InChI=1S/C6H4F3N/c7-6(8,9)5-1-3-10-4-2-5/h1-4H",
        "InChIKey": null,
        "Canonical SMILES": "FC(F)(F)C=1C=CN=CC1",
        "Molecular Formula": "C<sub>6</sub>H<sub>4</sub>F<sub>3</sub>N",
        "Molecular Mass": "147.10",
        "Boiling Point": "108-110 °C"
    }
}