{
    "cas_no": "3710-23-4",
    "key_name": "2-Isopropenylnaphthalene",
    "cn_name": "2-异丙苯基萘;",
    "alternate_name": "Naphthalene, 2-(1-methylethenyl)-;Naphthalene, 2-isopropenyl-;2-(1-Methylethenyl)naphthalene;2-Isopropenylnaphthalene;2-(α-Methylvinyl)naphthalene;2-(1-Propen-2-yl)naphthalene;2-(2-Naphthyl)-1-propene",
    "duplicated_cas_no": "",
    "SMILES": "C(C)(=C)C1=CC2=C(C=C1)C=CC=C2",
    "meta_data": {
        "InChI": "InChI=1S/C13H12/c1-10(2)12-8-7-11-5-3-4-6-13(11)9-12/h3-9H,1H2,2H3",
        "InChIKey": null,
        "Canonical SMILES": "C=C(C=1C=CC=2C=CC=CC2C1)C",
        "Molecular Formula": "C<sub>13</sub>H<sub>12</sub>",
        "Molecular Mass": "168.23",
        "Boiling Point": "155 °C @ Press: 11 Torr",
        "Melting Point": "56 °C"
    }
}