{
    "cas_no": "2163-80-6",
    "key_name": "Monosodium methanearsonate",
    "cn_name": null,
    "alternate_name": "Arsonic acid, methyl-, monosodium salt;Methanearsonic acid, monosodium salt;Ansar 529;Ansar 170;Ansar 170L;Monosodium acid methanearsonate;Monosodium acid metharsonate;Monosodium methanearsonate;Monosodium methylarsonate;MSMA;Daconate;Sodium acid methanearsonate;Weed 108;Gepiron;Bueno 6;Methylarsonic acid monosodium salt",
    "duplicated_cas_no": "",
    "SMILES": "[As](C)(=O)(O)O.[Na]",
    "meta_data": {
        "InChI": "InChI=1S/CH5AsO3.Na/c1-2(3,4)5;/h1H3,(H2,3,4,5);",
        "InChIKey": null,
        "Canonical SMILES": "[Na].O=[As](O)(O)C",
        "Molecular Formula": "CH<sub>5</sub>AsO<sub>3</sub>.Na",
        "Molecular Mass": "",
        "Melting Point": "130-140 °C"
    }
}