{
    "cas_no": "4027-59-2",
    "key_name": "5-Ethyl-1<em>H</em>-pyrazole-3-carboxylic acid",
    "cn_name": null,
    "alternate_name": "1<em>H</em>-Pyrazole-3-carboxylic acid, 5-ethyl-;Pyrazole-3-carboxylic acid, 5-ethyl-;Pyrazole-3(<em>or</em> 5)-carboxylic acid, 5(<em>or</em> 3)-ethyl-;5-Ethyl-1<em>H</em>-pyrazole-3-carboxylic acid;5-Ethyl-3-pyrazolecarboxylic acid;3-Ethyl-1<em>H</em>-pyrazole-5-carboxylic acid",
    "duplicated_cas_no": "393512-46-4;949034-30-4;1636885-62-5;2725956-32-9",
    "SMILES": "C(O)(=O)C=1C=C(CC)NN1",
    "meta_data": {
        "InChI": "InChI=1S/C6H8N2O2/c1-2-4-3-5(6(9)10)8-7-4/h3H,2H2,1H3,(H,7,8)(H,9,10)",
        "InChIKey": null,
        "Canonical SMILES": "O=C(O)C1=NNC(=C1)CC",
        "Molecular Formula": "C<sub>6</sub>H<sub>8</sub>N<sub>2</sub>O<sub>2</sub>",
        "Molecular Mass": "140.14",
        "Melting Point": "189-192.5 °C"
    }
}