{
    "cas_no": "16588-02-6",
    "key_name": "2-Chloro-5-nitrobenzonitrile",
    "cn_name": "2-氯-5-硝基苯甲腈;",
    "alternate_name": "Benzonitrile, 2-chloro-5-nitro-;2-Chloro-5-nitrobenzonitrile;6-Chloro-3-nitrobenzonitrile;2-Chloro-5-nitrobenzenenitrile;1-Chloro-2-cyano-4-nitrobenzene;NSC 28973",
    "duplicated_cas_no": "",
    "SMILES": "C(#N)C1=CC(N(=O)=O)=CC=C1Cl",
    "meta_data": {
        "InChI": "InChI=1S/C7H3ClN2O2/c8-7-2-1-6(10(11)12)3-5(7)4-9/h1-3H",
        "InChIKey": null,
        "Canonical SMILES": "N#CC1=CC(=CC=C1Cl)N(=O)=O",
        "Molecular Formula": "C<sub>7</sub>H<sub>3</sub>ClN<sub>2</sub>O<sub>2</sub>",
        "Molecular Mass": "182.56",
        "Melting Point": "108-109 °C"
    }
}