{
    "cas_no": "13731-82-3",
    "key_name": "2,5-Dibromo-1,4-benzenedicarboxylic acid",
    "cn_name": "2,5-二溴对苯二甲酸;2,5-二溴-1,4-苯二甲酸;",
    "alternate_name": "1,4-Benzenedicarboxylic acid, 2,5-dibromo-;Terephthalic acid, 2,5-dibromo-;2,5-Dibromo-1,4-benzenedicarboxylic acid;2,5-Dibromoterephthalic acid;NSC 115430;2,5-Dibromo-4-carboxybenzoic acid;1,4-Dibromo-2,5-benzenedicarboxylic acid;2,5-Dibromotetrephthalic acid",
    "duplicated_cas_no": "",
    "SMILES": "C(O)(=O)C1=C(Br)C=C(C(O)=O)C(Br)=C1",
    "meta_data": {
        "InChI": "InChI=1S/C8H4Br2O4/c9-5-1-3(7(11)12)6(10)2-4(5)8(13)14/h1-2H,(H,11,12)(H,13,14)",
        "InChIKey": null,
        "Canonical SMILES": "O=C(O)C1=CC(Br)=C(C=C1Br)C(=O)O",
        "Molecular Formula": "C<sub>8</sub>H<sub>4</sub>Br<sub>2</sub>O<sub>4</sub>",
        "Molecular Mass": "323.92",
        "Melting Point": "313 °C"
    }
}