{
    "cas_no": "2290-65-5",
    "key_name": "Isothiocyanatotrimethylsilane",
    "cn_name": "三甲硅烷基异氰酸酯;异硫氢酸三甲基硅酯;",
    "alternate_name": "Silane, isothiocyanatotrimethyl-;Isothiocyanatotrimethylsilane;Trimethylsilyl isothiocyanate;Trimethylisothiocyanatosilane",
    "duplicated_cas_no": "",
    "SMILES": "N([Si](C)(C)C)=C=S",
    "meta_data": {
        "InChI": "InChI=1S/C4H9NSSi/c1-7(2,3)5-4-6/h1-3H3",
        "InChIKey": null,
        "Canonical SMILES": "S=C=N[Si](C)(C)C",
        "Molecular Formula": "C<sub>4</sub>H<sub>9</sub>NSSi",
        "Molecular Mass": "131.27",
        "Boiling Point": "144 °C",
        "Melting Point": "-33 °C",
        "Density": "0.931 g/cm³"
    }
}