{
    "cas_no": "1882-72-0",
    "key_name": "Benzoic acid, 2-amino-5-hydroxy-, methyl ester",
    "cn_name": "2-氨基-5-羟基苯甲酸甲基;",
    "alternate_name": "Benzoic acid, 2-amino-5-hydroxy-, methyl ester;Anthranilic acid, 5-hydroxy-, methyl ester;Methyl 5-hydroxyanthranilate;4-Amino-3-methoxycarbonylphenol;Methyl 2-amino-5-hydroxybenzoate;5-Hydroxyanthranilic acid methyl ester;2-Amino-5-hydroxybenzoic acid methyl ester",
    "duplicated_cas_no": "",
    "SMILES": "C(OC)(=O)C1=C(N)C=CC(O)=C1",
    "meta_data": {
        "InChI": "InChI=1S/C8H9NO3/c1-12-8(11)6-4-5(10)2-3-7(6)9/h2-4,10H,9H2,1H3",
        "InChIKey": null,
        "Canonical SMILES": "O=C(OC)C1=CC(O)=CC=C1N",
        "Molecular Formula": "C<sub>8</sub>H<sub>9</sub>NO<sub>3</sub>",
        "Molecular Mass": "167.16",
        "Melting Point": "158 °C"
    }
}