{
    "cas_no": "3286-46-2",
    "key_name": "Sulbutiamine",
    "cn_name": "舒布硫胺;硫锌酸硫胺;",
    "alternate_name": "Propanoic acid, 2-methyl-, 1,1′-[dithiobis[3-[1-[[(4-amino-2-methyl-5-pyrimidinyl)methyl]formylamino]ethylidene]-3,1-propanediyl]] ester;Isobutyric acid, diester with <em>N</em>,<em>N</em>′-[dithiobis[2-(2-hydroxyethyl)-1-methylvinylene]]bis[<em>N</em>-[(4-amino-2-methyl-5-pyrimidinyl)methyl]formamide];Propanoic acid, 2-methyl-, dithiobis[3-[1-[[(4-amino-2-methyl-5-pyrimidinyl)methyl]formylamino]ethylidene]-3,1-propanediyl] ester;Formamide, <em>N</em>,<em>N</em>′-[dithiobis[2-(2-hydroxyethyl)-1-methylvinylene]]bis[<em>N</em>-[(4-amino-2-methyl-5-pyrimidinyl)methyl]-, diisobutyrate (ester);<em>O</em>-Isobutyroylthiamine disulfide;<em>O</em>-Isobutyrylthiamine disulfide;Vitaberin;Sulbutiamine;Bisibutiamine;Arcalion Forte;Bisibuthiamine",
    "duplicated_cas_no": "",
    "SMILES": "C(=C(N(CC=1C(N)=NC(C)=NC1)C=O)C)(SSC(=C(N(CC=2C(N)=NC(C)=NC2)C=O)C)CCOC(C(C)C)=O)CCOC(C(C)C)=O",
    "meta_data": {
        "InChI": "InChI=1S/C32H46N8O6S2/c1-19(2)31(43)45-11-9-27(21(5)39(17-41)15-25-13-35-23(7)37-29(25)33)47-48-28(10-12-46-32(44)20(3)4)22(6)40(18-42)16-26-14-36-24(8)38-30(26)34/h13-14,17-20H,9-12,15-16H2,1-8H3,(H2,33,35,37)(H2,34,36,38)",
        "InChIKey": null,
        "Canonical SMILES": "O=CN(C(=C(SSC(=C(N(C=O)CC1=CN=C(N=C1N)C)C)CCOC(=O)C(C)C)CCOC(=O)C(C)C)C)CC2=CN=C(N=C2N)C",
        "Molecular Formula": "C<sub>32</sub>H<sub>46</sub>N<sub>8</sub>O<sub>6</sub>S<sub>2</sub>",
        "Molecular Mass": "702.89",
        "Melting Point": "140.5-141.5 °C"
    }
}