{
    "cas_no": "554-14-3",
    "key_name": "2-Methylthiophene",
    "cn_name": "2-甲基噻吩;",
    "alternate_name": "Thiophene, 2-methyl-;2-Methylthiophene;α-Methylthiophene;2-Thienylmethane",
    "duplicated_cas_no": "",
    "SMILES": "CC1=CC=CS1",
    "meta_data": {
        "InChI": "InChI=1S/C5H6S/c1-5-3-2-4-6-5/h2-4H,1H3",
        "InChIKey": null,
        "Canonical SMILES": "S1C=CC=C1C",
        "Molecular Formula": "C<sub>5</sub>H<sub>6</sub>S",
        "Molecular Mass": "98.17",
        "Boiling Point": "112.6 °C",
        "Melting Point": "-63.4 °C",
        "Density": "1.0168 g/cm³ @ Temp: 20 °C"
    }
}