{
    "cas_no": "1193-72-2",
    "key_name": "1-Bromo-2,4-dichlorobenzene",
    "cn_name": "2,4-二氯溴苯;",
    "alternate_name": "Benzene, 1-bromo-2,4-dichloro-;1-Bromo-2,4-dichlorobenzene;2,4-Dichlorobromobenzene;2,4-Dichloro-1-bromobenzene;NSC 158360;4-Bromo-1,3-dichlorobenzene",
    "duplicated_cas_no": "",
    "SMILES": "ClC1=C(Br)C=CC(Cl)=C1",
    "meta_data": {
        "InChI": "InChI=1S/C6H3BrCl2/c7-5-2-1-4(8)3-6(5)9/h1-3H",
        "InChIKey": null,
        "Canonical SMILES": "ClC1=CC=C(Br)C(Cl)=C1",
        "Molecular Formula": "C<sub>6</sub>H<sub>3</sub>BrCl<sub>2</sub>",
        "Molecular Mass": "225.90",
        "Boiling Point": "235 °C",
        "Melting Point": "26 °C"
    }
}