{
    "cas_no": "118-45-6",
    "key_name": "4-Chlorophthalic anhydride",
    "cn_name": "4-氯代苯酐;4-氯邻苯二甲酸酐;",
    "alternate_name": "1,3-Isobenzofurandione, 5-chloro-;Phthalic anhydride, 4-chloro-;5-Chloro-1,3-isobenzofurandione;4-Chlorophthalic anhydride;<em>p</em>-Chlorophthalic anhydride;4-Chlorophthalic acid anhydride;5-Chloro-2-benzofuran-1,3-dione;5-Chloroisobenzofuran-1,3-dione",
    "duplicated_cas_no": "",
    "SMILES": "O=C1C=2C(C(=O)O1)=CC=C(Cl)C2",
    "meta_data": {
        "InChI": "InChI=1S/C8H3ClO3/c9-4-1-2-5-6(3-4)8(11)12-7(5)10/h1-3H",
        "InChIKey": null,
        "Canonical SMILES": "O=C1OC(=O)C2=CC(Cl)=CC=C12",
        "Molecular Formula": "C<sub>8</sub>H<sub>3</sub>ClO<sub>3</sub>",
        "Molecular Mass": "182.56",
        "Boiling Point": "286-290 °C",
        "Melting Point": "98 °C"
    }
}