{
    "cas_no": "29617-66-1",
    "key_name": "(2<em>S</em>)-2-Chloropropanoic acid",
    "cn_name": null,
    "alternate_name": "Propanoic acid, 2-chloro-, (2<em>S</em>)-;Propionic acid, 2-chloro-, <span class=\"text-smallcaps\">L</span>-;Propanoic acid, 2-chloro-, (<em>S</em>)-;(2<em>S</em>)-2-Chloropropanoic acid;2-Chloro-<span class=\"text-smallcaps\">L</span>-propionic acid;2(<em>S</em>)-Chloropropionic acid;(<em>S</em>)-2-Chloropropionic acid;<span class=\"text-smallcaps\">L</span>-2-Chloropropanoic acid;<span class=\"text-smallcaps\">L</span>-2-Chloropropionic acid;α-<span class=\"text-smallcaps\">L</span>-Chloropropionic acid;(<em>S</em>)-2-Chloropropanoic acid;<em>S</em>-(-)-2-Chloropropionic acid;(2<em>S</em>)-Chloropropanoic acid;(-)-2-Chloropropionic acid;(-)-2-Chloropropanoic acid;(-)-α-Chloropropanoic acid;(<em>S</em>)-α-Chloropropionic acid;(2<em>S</em>)-2-Chloropropionic acid;(2S)-2-Chloropropanoic acid",
    "duplicated_cas_no": "32644-11-4",
    "SMILES": "[C@@H](C(O)=O)(C)Cl",
    "meta_data": {
        "InChI": "InChI=1S/C3H5ClO2/c1-2(4)3(5)6/h2H,1H3,(H,5,6)/t2-/m0/s1",
        "InChIKey": null,
        "Canonical SMILES": "O=C(O)C(Cl)C",
        "Molecular Formula": "C<sub>3</sub>H<sub>5</sub>ClO<sub>2</sub>",
        "Molecular Mass": "108.52",
        "Boiling Point": "75 °C @ Press: 10 Torr",
        "Density": "1.265 g/cm³ @ Temp: 20 °C"
    }
}