{
    "cas_no": "850567-55-4",
    "key_name": "2-[1-(4-Fluorophenyl)ethenyl]-4,4,5,5-tetramethyl-1,3,2-dioxaborolane",
    "cn_name": null,
    "alternate_name": "1,3,2-Dioxaborolane, 2-[1-(4-fluorophenyl)ethenyl]-4,4,5,5-tetramethyl-;2-[1-(4-Fluorophenyl)ethenyl]-4,4,5,5-tetramethyl-1,3,2-dioxaborolane;2-[1-(4-Fluorophenyl)vinyl]-4,4,5,5-tetramethyl-1,3,2-dioxaborolane;2-(1-(4-Fluorophenyl)ethenyl)-4,4,5,5-tetramethyl-1,3,2-dioxaborolane;1-(4-Fluorophenyl)vinylboronic acid pinacol ester",
    "duplicated_cas_no": "",
    "SMILES": "C(=C)(B1OC(C)(C)C(C)(C)O1)C2=CC=C(F)C=C2",
    "meta_data": {
        "InChI": "InChI=1S/C14H18BFO2/c1-10(11-6-8-12(16)9-7-11)15-17-13(2,3)14(4,5)18-15/h6-9H,1H2,2-5H3",
        "InChIKey": null,
        "Canonical SMILES": "FC1=CC=C(C=C1)C(=C)B2OC(C)(C)C(O2)(C)C",
        "Molecular Formula": "C<sub>14</sub>H<sub>18</sub>BFO<sub>2</sub>",
        "Molecular Mass": "248.10",
        "Melting Point": "43.2-44.1 °C"
    }
}