{
    "cas_no": "14716-89-3",
    "key_name": "(3-Methylisoxazol-5-yl)methanol",
    "cn_name": null,
    "alternate_name": "5-Isoxazolemethanol, 3-methyl-;3-Methyl-5-isoxazolemethanol;5-(Hydroxymethyl)-3-methylisoxazole;3-Methyl-5-(hydroxymethyl)isoxazole;(3-Methylisoxazol-5-yl)methanol;(3-Methyl-1,2-oxazol-5-yl)methanol",
    "duplicated_cas_no": "",
    "SMILES": "C(O)C1=CC(C)=NO1",
    "meta_data": {
        "InChI": "InChI=1S/C5H7NO2/c1-4-2-5(3-7)8-6-4/h2,7H,3H2,1H3",
        "InChIKey": null,
        "Canonical SMILES": "OCC=1ON=C(C1)C",
        "Molecular Formula": "C<sub>5</sub>H<sub>7</sub>NO<sub>2</sub>",
        "Molecular Mass": "113.11",
        "Boiling Point": "78-80 °C @ Press: 0.75 Torr",
        "Melting Point": "130 °C"
    }
}