{
    "cas_no": "4346-15-0",
    "key_name": "Butanoic acid, 1<em>H</em>-indol-3-yl ester",
    "cn_name": "3-吲哚酚丁酸酯;",
    "alternate_name": "Butanoic acid, 1<em>H</em>-indol-3-yl ester;Butyric acid, indol-3-yl ester;Indol-3-ol, butyrate (ester);Indol-3-ol, butyrate;Indoxyl butyrate;Indoxyl <em>n</em>-butyrate;1<em>H</em>-Indol-3-yl butyrate;3-Butyryloxyindole",
    "duplicated_cas_no": "",
    "SMILES": "O(C(CCC)=O)C=1C=2C(NC1)=CC=CC2",
    "meta_data": {
        "InChI": "InChI=1S/C12H13NO2/c1-2-5-12(14)15-11-8-13-10-7-4-3-6-9(10)11/h3-4,6-8,13H,2,5H2,1H3",
        "InChIKey": null,
        "Canonical SMILES": "O=C(OC1=CNC=2C=CC=CC12)CCC",
        "Molecular Formula": "C<sub>12</sub>H<sub>13</sub>NO<sub>2</sub>",
        "Molecular Mass": "203.24",
        "Melting Point": "86-87 °C"
    }
}