{
    "cas_no": "154934-99-3",
    "key_name": "2-Chloro-4-(trifluoromethyl)-5-pyrimidinecarbonyl chloride",
    "cn_name": null,
    "alternate_name": "5-Pyrimidinecarbonyl chloride, 2-chloro-4-(trifluoromethyl)-;2-Chloro-4-(trifluoromethyl)-5-pyrimidinecarbonyl chloride;2-Chloro-4-trifluoromethyl-5-pyrimidinecarboxylic acid chloride;2-Chloro-4-trifluoromethylpyrimidine-5-carboxylic acid;2-Chloro-4-trifluoromethylpyrimidine-5-carbonyl chloride",
    "duplicated_cas_no": "",
    "SMILES": "C(F)(F)(F)C=1C(C(Cl)=O)=CN=C(Cl)N1",
    "meta_data": {
        "InChI": "InChI=1S/C6HCl2F3N2O/c7-4(14)2-1-12-5(8)13-3(2)6(9,10)11/h1H",
        "InChIKey": null,
        "Canonical SMILES": "O=C(Cl)C1=CN=C(Cl)N=C1C(F)(F)F",
        "Molecular Formula": "C<sub>6</sub>HCl<sub>2</sub>F<sub>3</sub>N<sub>2</sub>O",
        "Molecular Mass": "244.99",
        "Melting Point": "158 °C"
    }
}