{
    "cas_no": "16696-65-4",
    "key_name": "1,11-Dibromoundecane",
    "cn_name": "1,11-二溴十一烷;",
    "alternate_name": "Undecane, 1,11-dibromo-;1,11-Dibromoundecane",
    "duplicated_cas_no": "",
    "SMILES": "C(CCCCCBr)CCCCCBr",
    "meta_data": {
        "InChI": "InChI=1S/C11H22Br2/c12-10-8-6-4-2-1-3-5-7-9-11-13/h1-11H2",
        "InChIKey": null,
        "Canonical SMILES": "BrCCCCCCCCCCCBr",
        "Molecular Formula": "C<sub>11</sub>H<sub>22</sub>Br<sub>2</sub>",
        "Molecular Mass": "314.10",
        "Boiling Point": "170-175 °C @ Press: 15 Torr",
        "Melting Point": "166 °C"
    }
}