{
    "cas_no": "52549-17-4",
    "key_name": "(±)-Pranoprofen",
    "cn_name": "普拉洛芬;2-(5H-[1]苯并吡喃[2,3-b]吡啶-7-基)丙酸;",
    "alternate_name": "5<em>H</em>-[1]Benzopyrano[2,3-<em>b</em>]pyridine-7-acetic acid, α-methyl-;α-Methyl-5<em>H</em>-[1]benzopyrano[2,3-<em>b</em>]pyridine-7-acetic acid;Y 8004;2-(5<em>H</em>-[1]-Benzopyrano[2,3-<em>b</em>]pyridin-7-yl)propionic acid;Pranoprofen;Niflan;α-Methyl-5<em>H</em>-[1]benzopyrano[2,3-<em>b</em>]pyridine-7-ylacetic acid;(±)-Pranoprofen;(<em>RS</em>)-Pranoprofen;<em>dl</em>-Pranoprofen;Oftalar;2-(5<em>H</em>-Chromeno[2,3-<em>b</em>]pyridin-7-yl)propanoic acid",
    "duplicated_cas_no": "103813-86-1",
    "SMILES": "C(C(O)=O)(C)C=1C=C2C(OC=3C(C2)=CC=CN3)=CC1",
    "meta_data": {
        "InChI": "InChI=1S/C15H13NO3/c1-9(15(17)18)10-4-5-13-12(7-10)8-11-3-2-6-16-14(11)19-13/h2-7,9H,8H2,1H3,(H,17,18)",
        "InChIKey": null,
        "Canonical SMILES": "O=C(O)C(C1=CC=C2OC3=NC=CC=C3CC2=C1)C",
        "Molecular Formula": "C<sub>15</sub>H<sub>13</sub>NO<sub>3</sub>",
        "Molecular Mass": "255.27",
        "Melting Point": "182-183 °C"
    }
}