{
    "cas_no": "26643-91-4",
    "key_name": "4-Methyl-2-phenyl-2-pentenal",
    "cn_name": "4-甲基-2-苯基-2-戊烯醛;",
    "alternate_name": "Benzeneacetaldehyde, α-(2-methylpropylidene)-;2-Pentenal, 4-methyl-2-phenyl-;α-(2-Methylpropylidene)benzeneacetaldehyde;4-Methyl-2-phenyl-2-pentenal;2-Phenyl-4-methylpent-2-enal",
    "duplicated_cas_no": "",
    "SMILES": "C(=CC(C)C)(C=O)C1=CC=CC=C1",
    "meta_data": {
        "InChI": "InChI=1S/C12H14O/c1-10(2)8-12(9-13)11-6-4-3-5-7-11/h3-10H,1-2H3",
        "InChIKey": null,
        "Canonical SMILES": "O=CC(=CC(C)C)C=1C=CC=CC1",
        "Molecular Formula": "C<sub>12</sub>H<sub>14</sub>O",
        "Molecular Mass": "174.24",
        "Boiling Point": "82-87 °C @ Press: 0.7 Torr"
    }
}