{
    "cas_no": "102-50-1",
    "key_name": "4-Methoxy-2-methylaniline",
    "cn_name": "2-氨基-5-甲氧基甲苯;2-甲基-4-甲氧基苯胺;",
    "alternate_name": "Benzenamine, 4-methoxy-2-methyl-;<em>p</em>-Anisidine, 2-methyl-;4-Methoxy-2-methylbenzenamine;4-Methoxy-2-methylaniline;2-Methyl-4-methoxyaniline;2-Methyl-<em>p</em>-anisidine;2-Amino-5-methoxytoluene;<em>m</em>-Cresidine;2-Methyl-4-anisidine;2-Methyl-4-methoxybenzenamine;NSC 66563;4-Methoxy-<em>o</em>-toluidine;2-Methyl-4-(methyloxy)aniline;[2-Methyl-4-(methyloxy)phenyl]amine;3-Methyl-4-aminophenol methyl ether",
    "duplicated_cas_no": "",
    "SMILES": "O(C)C1=CC(C)=C(N)C=C1",
    "meta_data": {
        "InChI": "InChI=1S/C8H11NO/c1-6-5-7(10-2)3-4-8(6)9/h3-5H,9H2,1-2H3",
        "InChIKey": null,
        "Canonical SMILES": "O(C1=CC=C(N)C(=C1)C)C",
        "Molecular Formula": "C<sub>8</sub>H<sub>11</sub>NO",
        "Molecular Mass": "137.18",
        "Boiling Point": "248.5 °C",
        "Melting Point": "29.5 °C",
        "Density": "1.065 g/cm³ @ Temp: 25 °C"
    }
}