{
    "cas_no": "6106-81-6",
    "key_name": "Benzeneacetic acid, α-(hydroxymethyl)-, (1α,2β,4β,5α,7β)-9-methyl-9-oxido-3-oxa-9-azatricyclo[3.3.1.0<sup>2,4</sup>]non-7-yl ester, hydrobromide (1:1), (α<em>S</em>)-",
    "cn_name": null,
    "alternate_name": "Benzeneacetic acid, α-(hydroxymethyl)-, (1α,2β,4β,5α,7β)-9-methyl-9-oxido-3-oxa-9-azatricyclo[3.3.1.0<sup>2,4</sup>]non-7-yl ester, hydrobromide (1:1), (α<em>S</em>)-;Scopolamine, <em>N</em>-oxide, hydrobromide;1α<span class=\"text-smallcaps\">H</smallcap>,5α<smallcap>H</span>-Tropan-3α-ol, 6β,7β-epoxy-, (-)-tropate (ester), 8-oxide, hydrobromide;Benzeneacetic acid, α-(hydroxymethyl)-, 9-methyl-3-oxa-9-azatricyclo[3.3.1.0<sup>2,4</sup>]non-7-yl ester, <em>N</em>-oxide, hydrobromide, [7(<em>S</em>)-(1α,2β,4β,5α,7β)]-;Benzeneacetic acid, α-(hydroxymethyl)-, (1α,2β,4β,5α,7β)-9-methyl-9-oxido-3-oxa-9-azatricyclo[3.3.1.0<sup>2,4</sup>]non-7-yl ester, hydrobromide, (α<em>S</em>)-;3-Oxa-9-azatricyclo[3.3.1.0<sup>2,4</sup>]nonane, benzeneacetic acid deriv.;Scopolamine aminoxide hydrobromide;Aminoxyscopolamine hydrobromide;Benzeneacetic acid, α-(hydroxymethyl)-, 9-methyl-9-oxido-3-oxa-9-azatricyclo[3.3.1.0<sup>2,4</sup>]non-7-yl ester, hydrobromide, [7(<em>S</em>)-(1α,2β,4β,5α,7β)]-;NSC 61807;(-)-Scopolamine <em>N</em>-oxide hydrobromide",
    "duplicated_cas_no": "",
    "SMILES": "CN1(=O)[C@]2([C@@]3([C@@](O3)([C@@]1(C[C@H](OC([C@H](CO)C4=CC=CC=C4)=O)C2)[H])[H])[H])[H].Br",
    "meta_data": {
        "InChI": "InChI=1S/C17H21NO5.BrH/c1-18(21)13-7-11(8-14(18)16-15(13)23-16)22-17(20)12(9-19)10-5-3-2-4-6-10;/h2-6,11-16,19H,7-9H2,1H3;1H/t11-,12-,13-,14+,15-,16+,18?;/m1./s1",
        "InChIKey": null,
        "Canonical SMILES": "Br.O=C(OC1CC2C3OC3C(C1)N2(=O)C)C(C=4C=CC=CC4)CO",
        "Molecular Formula": "C<sub>17</sub>H<sub>21</sub>NO<sub>5</sub>.BrH",
        "Molecular Mass": "",
        "Melting Point": "135-138 °C"
    }
}