{
    "cas_no": "28447-20-3",
    "key_name": "3-Ethenylbenzoic acid",
    "cn_name": "3-乙烯基苯甲酸;",
    "alternate_name": "Benzoic acid, 3-ethenyl-;Benzoic acid, <em>m</em>-vinyl-;3-Ethenylbenzoic acid;<em>m</em>-Vinylbenzoic acid;<em>m</em>-Carboxystyrene;3-Carboxystyrene;3-Vinylbenzoic acid",
    "duplicated_cas_no": "",
    "SMILES": "C(O)(=O)C1=CC(C=C)=CC=C1",
    "meta_data": {
        "InChI": "InChI=1S/C9H8O2/c1-2-7-4-3-5-8(6-7)9(10)11/h2-6H,1H2,(H,10,11)",
        "InChIKey": null,
        "Canonical SMILES": "O=C(O)C=1C=CC=C(C=C)C1",
        "Molecular Formula": "C<sub>9</sub>H<sub>8</sub>O<sub>2</sub>",
        "Molecular Mass": "148.16",
        "Melting Point": "96 °C"
    }
}