{
    "cas_no": "1201-26-9",
    "key_name": "Indole-3-acetone",
    "cn_name": "吲哚-3-丙酮;3-吲哚基丙酮;",
    "alternate_name": "2-Propanone, 1-(1<em>H</em>-indol-3-yl)-;2-Propanone, 1-indol-3-yl-;2-Propanone, indol-3-yl-;1-(1<em>H</em>-Indol-3-yl)-2-propanone;Indole-3-acetone;Indol-3-yl-2-propanone;3-(2-Oxopropyl)indole;3-Indolylacetone;3-Acetonylindole;(1<em>H</em>-Indol-3-yl)acetone;NSC 100751;1-(1<em>H</em>-Indol-3-yl)propan-2-one",
    "duplicated_cas_no": "",
    "SMILES": "C(C(C)=O)C=1C=2C(NC1)=CC=CC2",
    "meta_data": {
        "InChI": "InChI=1S/C11H11NO/c1-8(13)6-9-7-12-11-5-3-2-4-10(9)11/h2-5,7,12H,6H2,1H3",
        "InChIKey": null,
        "Canonical SMILES": "O=C(C)CC1=CNC=2C=CC=CC21",
        "Molecular Formula": "C<sub>11</sub>H<sub>11</sub>NO",
        "Molecular Mass": "173.21",
        "Melting Point": "116 °C"
    }
}