{
    "cas_no": "3940-27-0",
    "key_name": "Serine, ethyl ester, hydrochloride (1:1)",
    "cn_name": null,
    "alternate_name": "Serine, ethyl ester, hydrochloride (1:1);Serine, ethyl ester, hydrochloride, <span class=\"text-smallcaps\">DL</span>-;<span class=\"text-smallcaps\">DL</span>-Serine, ethyl ester, hydrochloride;Serine, ethyl ester, hydrochloride;NSC 29417",
    "duplicated_cas_no": "",
    "SMILES": "C(C(CO)N)(OCC)=O.Cl",
    "meta_data": {
        "InChI": "InChI=1S/C5H11NO3.ClH/c1-2-9-5(8)4(6)3-7;/h4,7H,2-3,6H2,1H3;1H",
        "InChIKey": null,
        "Canonical SMILES": "Cl.O=C(OCC)C(N)CO",
        "Molecular Formula": "C<sub>5</sub>H<sub>11</sub>NO<sub>3</sub>.ClH",
        "Molecular Mass": "",
        "Melting Point": "94-97 °C"
    }
}