{
    "cas_no": "1472-87-3",
    "key_name": "Dimethyl brassylate",
    "cn_name": "巴西酸二甲酯;十三碳二酸二甲酯;",
    "alternate_name": "Tridecanedioic acid, 1,13-dimethyl ester;Tridecanedioic acid, dimethyl ester;Dimethyl brassylate;Dimethyl tridecanedioate;1,11-Undecanedicarboxylic acid dimethyl ester;Dimethyl tridecane-1,13-dioate;Dimethyl 1,11-undecanedicarboxylate;DMB",
    "duplicated_cas_no": "",
    "SMILES": "C(CCCCCCCCCCCC(OC)=O)(OC)=O",
    "meta_data": {
        "InChI": "InChI=1S/C15H28O4/c1-18-14(16)12-10-8-6-4-3-5-7-9-11-13-15(17)19-2/h3-13H2,1-2H3",
        "InChIKey": null,
        "Canonical SMILES": "O=C(OC)CCCCCCCCCCCC(=O)OC",
        "Molecular Formula": "C<sub>15</sub>H<sub>28</sub>O<sub>4</sub>",
        "Molecular Mass": "272.38",
        "Boiling Point": "331.9 °C",
        "Melting Point": "36 °C"
    }
}