{
    "cas_no": "480-23-9",
    "key_name": "Orobol",
    "cn_name": null,
    "alternate_name": "4<em>H</em>-1-Benzopyran-4-one, 3-(3,4-dihydroxyphenyl)-5,7-dihydroxy-;Isoflavone, 3′,4′,5,7-tetrahydroxy-;3-(3,4-Dihydroxyphenyl)-5,7-dihydroxy-4<em>H</em>-1-benzopyran-4-one;Orobol;Isoluteolin;5,7,3′,4′-Tetrahydroxyisoflavone;3′,4′,5,7-Tetrahydroxyisoflavone;NSC 678114;3′-Hydroxygenistein",
    "duplicated_cas_no": "",
    "SMILES": "O=C1C=2C(OC=C1C3=CC(O)=C(O)C=C3)=CC(O)=CC2O",
    "meta_data": {
        "InChI": "InChI=1S/C15H10O6/c16-8-4-12(19)14-13(5-8)21-6-9(15(14)20)7-1-2-10(17)11(18)3-7/h1-6,16-19H",
        "InChIKey": null,
        "Canonical SMILES": "O=C1C(=COC=2C=C(O)C=C(O)C12)C=3C=CC(O)=C(O)C3",
        "Molecular Formula": "C<sub>15</sub>H<sub>10</sub>O<sub>6</sub>",
        "Molecular Mass": "286.24",
        "Melting Point": "270 °C"
    }
}